# vtk DataFile Version 2.0
Comment goes here
ASCII

DATASET STRUCTURED_POINTS
FIELD FieldData 1
TIME 1 1 double
0.00400000
DIMENSIONS    64   64   1

ORIGIN    0.000   0.000   0.000
SPACING   0.03125 0.03125   1.000

POINT_DATA   4096
VECTORS u double

-0.129122 -0.000015 0.000000 0.095180 0.000059 0.000000 -0.078461 -0.000014 0.000000 0.105382 0.000047 0.000000 -0.084641 -0.000038 0.000000 0.113599 0.000031 0.000000 -0.104160 -0.000019 0.000000 0.134354 -0.000070 0.000000 -0.121737 0.000026 0.000000 0.146942 -0.000095 0.000000 -0.123490 0.000130 0.000000 0.134865 -0.000094 0.000000 -0.096862 0.000073 0.000000 0.100582 0.000015 0.000000 -0.060589 -0.000065 0.000000 0.069564 0.000124 0.000000 -0.032993 -0.000258 0.000000 0.040862 0.000176 0.000000 -0.006268 -0.000127 0.000000 0.012830 0.000174 0.000000 0.019615 -0.000149 0.000000 -0.012377 -0.000570 0.000000 0.041097 0.000733 0.000000 -0.032813 -0.000085 0.000000 0.051920 -0.000202 0.000000 -0.044311 0.000184 0.000000 0.056702 0.000168 0.000000 -0.052122 -0.000408 0.000000 0.059408 0.000159 0.000000 -0.058952 -0.000165 0.000000 0.059716 0.000053 0.000000 -0.065214 0.000056 0.000000 0.058945 -0.000235 0.000000 -0.069918 0.000098 0.000000 0.057505 0.000033 0.000000 -0.075084 -0.000120 0.000000 0.055551 0.000168 0.000000 -0.079307 -0.000164 0.000000 0.053219 -0.000137 0.000000 -0.081870 0.000306 0.000000 0.049082 -0.000370 0.000000 -0.082972 0.000370 0.000000 0.043143 -0.000413 0.000000 -0.081581 0.000078 0.000000 0.037121 0.000175 0.000000 -0.081261 -0.000204 0.000000 0.031222 0.000157 0.000000 -0.080582 -0.000118 0.000000 0.024444 -0.000037 0.000000 -0.077123 0.000035 0.000000 0.015825 0.000030 0.000000 -0.073070 -0.000018 0.000000 0.005590 0.000011 0.000000 -0.066500 0.000014 0.000000 -0.007089 -0.000033 0.000000 -0.057973 0.000047 0.000000 -0.018365 -0.000024 0.000000 -0.055734 0.000025 0.000000 -0.018309 -0.000012 0.000000 -0.059198 0.000001 0.000000 -0.032972 -0.000004 0.000000 -0.023253 -0.000013 0.000000 -0.101613 -0.000016 0.000000 0.060250 0.000042 0.000000 
-0.073394 -0.017459 0.000000 0.174641 -0.025290 0.000000 -0.205832 -0.005136 0.000000 0.185507 0.003127 0.000000 -0.206654 -0.004112 0.000000 0.172244 0.009746 0.000000 -0.174348 -0.010349 0.000000 0.132428 0.008716 0.000000 -0.134601 -0.006223 0.000000 0.090580 0.000801 0.000000 -0.098953 0.006104 0.000000 0.059817 -0.013348 0.000000 -0.078990 0.017223 0.000000 0.041007 -0.018189 0.000000 -0.062944 0.015538 0.000000 0.017834 -0.013751 0.000000 -0.039516 0.014221 0.000000 -0.005358 -0.013353 0.000000 -0.016733 0.014098 0.000000 -0.027371 -0.013078 0.000000 0.003158 0.012779 0.000000 -0.046457 -0.010666 0.000000 0.016555 0.009983 0.000000 -0.056756 -0.005285 0.000000 0.029135 0.005595 0.000000 -0.066197 -0.002208 0.000000 0.038138 0.003738 0.000000 -0.070617 -0.001560 0.000000 0.042514 0.003702 0.000000 -0.072700 -0.000374 0.000000 0.046353 0.003244 0.000000 -0.073696 0.000403 0.000000 0.050490 0.002148 0.000000 -0.075088 0.000689 0.000000 0.054431 0.002770 0.000000 -0.075055 0.000720 0.000000 0.056728 0.002378 0.000000 -0.073374 0.000974 0.000000 0.057614 0.001082 0.000000 -0.071406 0.002445 0.000000 0.058717 0.000116 0.000000 -0.069112 0.003367 0.000000 0.058691 -0.000889 0.000000 -0.065872 0.002836 0.000000 0.057137 0.000055 0.000000 -0.060336 0.002719 0.000000 0.055016 -0.000157 0.000000 -0.055196 0.003350 0.000000 0.052507 -0.001906 0.000000 -0.049596 0.004399 0.000000 0.048815 -0.002046 0.000000 -0.041626 0.005108 0.000000 0.043250 -0.003269 0.000000 -0.031438 0.006318 0.000000 0.036335 -0.004258 0.000000 -0.021254 0.005653 0.000000 0.028502 -0.001146 0.000000 -0.007181 0.000006 0.000000 0.012497 0.001713 0.000000 0.013029 0.007336 0.000000 0.004110 -0.017996 0.000000 0.011180 0.034337 0.000000 0.023304 -0.041797 0.000000 -0.004362 0.013805 0.000000 
0.048788 -0.179018 0.000000 0.069479 0.132497 0.000000 -0.059000 -0.010881 0.000000 0.077909 0.000870 0.000000 -0.051331 0.013226 0.000000 0.067378 -0.032276 0.000000 -0.032057 0.039796 0.000000 0.037649 -0.039816 0.000000 0.006005 0.041874 0.000000 0.008293 -0.035744 0.000000 0.038485 0.030893 0.000000 -0.005608 -0.020057 0.000000 0.049904 0.018882 0.000000 -0.004187 -0.016032 0.000000 0.054446 0.023108 0.000000 -0.007987 -0.023303 0.000000 0.066490 0.022934 0.000000 -0.013288 -0.022607 0.000000 0.077125 0.021886 0.000000 -0.017853 -0.019717 0.000000 0.084821 0.018936 0.000000 -0.021426 -0.013968 0.000000 0.090045 0.011032 0.000000 -0.022631 -0.012664 0.000000 0.097946 0.009239 0.000000 -0.026020 -0.008820 0.000000 0.105072 0.004588 0.000000 -0.027856 -0.004784 0.000000 0.109257 0.002241 0.000000 -0.027725 -0.004004 0.000000 0.113128 0.001050 0.000000 -0.026960 -0.004081 0.000000 0.116994 0.001156 0.000000 -0.027018 -0.003844 0.000000 0.120317 -0.000000 0.000000 -0.025453 -0.002416 0.000000 0.122265 -0.001513 0.000000 -0.023116 -0.001050 0.000000 0.123086 -0.002105 0.000000 -0.021384 -0.000798 0.000000 0.124608 -0.002664 0.000000 -0.019898 0.000397 0.000000 0.125765 -0.003652 0.000000 -0.018519 0.001631 0.000000 0.125056 -0.005361 0.000000 -0.014960 0.001918 0.000000 0.123445 -0.004983 0.000000 -0.011470 0.002390 0.000000 0.121443 -0.005637 0.000000 -0.009003 0.003727 0.000000 0.118832 -0.007940 0.000000 -0.004903 0.005547 0.000000 0.114859 -0.010176 0.000000 -0.000334 0.006929 0.000000 0.110232 -0.010217 0.000000 0.003707 0.007880 0.000000 0.103226 -0.014097 0.000000 0.013621 0.016030 0.000000 0.084234 -0.020223 0.000000 0.031543 0.008388 0.000000 0.073545 0.001846 0.000000 0.020868 -0.019207 0.000000 0.102265 0.015526 0.000000 -0.018588 0.096740 0.000000 
0.024701 -0.105526 0.000000 -0.072205 0.082498 0.000000 0.045206 -0.013566 0.000000 -0.063135 -0.004542 0.000000 -0.060342 0.006420 0.000000 -0.049857 -0.009529 0.000000 0.008700 0.019380 0.000000 -0.029949 -0.029346 0.000000 0.044993 0.023133 0.000000 -0.012854 -0.031679 0.000000 0.068543 0.020005 0.000000 -0.004651 -0.024767 0.000000 0.093148 0.015803 0.000000 -0.004833 -0.022731 0.000000 0.113209 0.019337 0.000000 -0.000775 -0.025795 0.000000 0.122635 0.019522 0.000000 0.003597 -0.023987 0.000000 0.128962 0.018664 0.000000 0.008188 -0.020774 0.000000 0.133810 0.016353 0.000000 0.012290 -0.015890 0.000000 0.139612 0.011188 0.000000 0.012341 -0.013186 0.000000 0.143090 0.008984 0.000000 0.013277 -0.009334 0.000000 0.146657 0.005573 0.000000 0.012444 -0.005746 0.000000 0.150882 0.003571 0.000000 0.011346 -0.004244 0.000000 0.153781 0.002479 0.000000 0.010419 -0.003463 0.000000 0.155183 0.002206 0.000000 0.010428 -0.002634 0.000000 0.155489 0.001205 0.000000 0.010294 -0.001227 0.000000 0.155626 0.000041 0.000000 0.009721 0.000152 0.000000 0.155548 -0.000650 0.000000 0.009379 0.000924 0.000000 0.154375 -0.001370 0.000000 0.009253 0.002211 0.000000 0.152819 -0.002268 0.000000 0.009040 0.003544 0.000000 0.150838 -0.003504 0.000000 0.008127 0.004329 0.000000 0.147586 -0.003647 0.000000 0.008169 0.005353 0.000000 0.142981 -0.004373 0.000000 0.008460 0.007009 0.000000 0.137305 -0.006146 0.000000 0.007918 0.009081 0.000000 0.130454 -0.007837 0.000000 0.006679 0.010945 0.000000 0.121489 -0.008299 0.000000 0.006619 0.012659 0.000000 0.109082 -0.011060 0.000000 0.004730 0.018999 0.000000 0.098304 -0.016209 0.000000 -0.001614 0.018025 0.000000 0.074988 -0.007322 0.000000 0.011231 0.005617 0.000000 0.014362 -0.002341 0.000000 0.045487 0.067282 0.000000 
0.056648 -0.061326 0.000000 -0.044376 0.111992 0.000000 0.051798 -0.019951 0.000000 -0.041702 0.106418 0.000000 -0.043553 -0.000053 0.000000 -0.035062 -0.101318 0.000000 0.032752 0.019889 0.000000 -0.024527 -0.076109 0.000000 0.069280 0.024779 0.000000 -0.014982 -0.059293 0.000000 0.091562 0.022690 0.000000 -0.009430 -0.044662 0.000000 0.110789 0.019064 0.000000 -0.007749 -0.036093 0.000000 0.125464 0.019050 0.000000 -0.003564 -0.032729 0.000000 0.133217 0.018562 0.000000 0.000634 -0.028934 0.000000 0.138621 0.017295 0.000000 0.004686 -0.024566 0.000000 0.142786 0.014833 0.000000 0.008132 -0.019769 0.000000 0.147192 0.010982 0.000000 0.009082 -0.016142 0.000000 0.150341 0.008303 0.000000 0.010022 -0.012387 0.000000 0.153507 0.005421 0.000000 0.009784 -0.009009 0.000000 0.156898 0.003338 0.000000 0.009245 -0.006903 0.000000 0.159370 0.001977 0.000000 0.008797 -0.005483 0.000000 0.160785 0.001147 0.000000 0.008897 -0.004149 0.000000 0.161371 0.000134 0.000000 0.008898 -0.002553 0.000000 0.161646 -0.000941 0.000000 0.008658 -0.000973 0.000000 0.161620 -0.001763 0.000000 0.008518 0.000376 0.000000 0.160811 -0.002538 0.000000 0.008435 0.001953 0.000000 0.159592 -0.003439 0.000000 0.008283 0.003612 0.000000 0.157923 -0.004448 0.000000 0.007765 0.005170 0.000000 0.155249 -0.005025 0.000000 0.007759 0.006995 0.000000 0.151527 -0.005927 0.000000 0.007891 0.009404 0.000000 0.146893 -0.007398 0.000000 0.007489 0.012398 0.000000 0.141243 -0.008938 0.000000 0.006709 0.015894 0.000000 0.133876 -0.010156 0.000000 0.006678 0.020287 0.000000 0.123826 -0.012209 0.000000 0.005761 0.026808 0.000000 0.113992 -0.013879 0.000000 0.001806 0.031704 0.000000 0.097305 -0.010998 0.000000 0.006663 0.041419 0.000000 0.059667 -0.018731 0.000000 0.021587 0.086401 0.000000 
0.050337 -0.039562 0.000000 -0.031170 0.087349 0.000000 0.040033 -0.016240 0.000000 -0.036463 0.090808 0.000000 -0.002174 -0.000220 0.000000 -0.036133 -0.085834 0.000000 0.033972 0.008845 0.000000 -0.025088 -0.065873 0.000000 0.061873 0.013587 0.000000 -0.014941 -0.053961 0.000000 0.083245 0.014453 0.000000 -0.008278 -0.043993 0.000000 0.101811 0.014122 0.000000 -0.004841 -0.037407 0.000000 0.116674 0.015152 0.000000 -0.001244 -0.033548 0.000000 0.126521 0.015325 0.000000 0.002359 -0.029391 0.000000 0.133407 0.014611 0.000000 0.005766 -0.024939 0.000000 0.138678 0.012907 0.000000 0.008488 -0.020295 0.000000 0.143311 0.010237 0.000000 0.009708 -0.016335 0.000000 0.146912 0.008045 0.000000 0.010447 -0.012500 0.000000 0.150096 0.005811 0.000000 0.010414 -0.009136 0.000000 0.153052 0.004110 0.000000 0.010037 -0.006717 0.000000 0.155262 0.002927 0.000000 0.009641 -0.004878 0.000000 0.156576 0.002107 0.000000 0.009467 -0.003221 0.000000 0.157141 0.001204 0.000000 0.009270 -0.001502 0.000000 0.157260 0.000281 0.000000 0.008947 0.000179 0.000000 0.156949 -0.000510 0.000000 0.008652 0.001733 0.000000 0.156002 -0.001287 0.000000 0.008396 0.003429 0.000000 0.154524 -0.002116 0.000000 0.008075 0.005213 0.000000 0.152440 -0.002986 0.000000 0.007590 0.007004 0.000000 0.149452 -0.003641 0.000000 0.007302 0.009074 0.000000 0.145429 -0.004505 0.000000 0.007020 0.011643 0.000000 0.140334 -0.005744 0.000000 0.006403 0.014731 0.000000 0.133982 -0.007058 0.000000 0.005479 0.018312 0.000000 0.125908 -0.008268 0.000000 0.004576 0.022710 0.000000 0.115623 -0.010143 0.000000 0.003062 0.028832 0.000000 0.103224 -0.012254 0.000000 0.001230 0.034712 0.000000 0.084757 -0.012179 0.000000 0.003453 0.043255 0.000000 0.059204 -0.017264 0.000000 0.002928 0.070301 0.000000 
0.073700 -0.027227 0.000000 -0.020962 0.122296 0.000000 0.055352 -0.014658 0.000000 -0.025452 0.148625 0.000000 0.013632 -0.000382 0.000000 -0.025344 -0.137464 0.000000 0.052674 0.008843 0.000000 -0.019776 -0.104010 0.000000 0.081171 0.014632 0.000000 -0.014105 -0.080666 0.000000 0.101518 0.016027 0.000000 -0.009755 -0.063227 0.000000 0.117365 0.015627 0.000000 -0.006716 -0.050956 0.000000 0.129315 0.015454 0.000000 -0.003390 -0.042576 0.000000 0.137368 0.014958 0.000000 -0.000079 -0.035820 0.000000 0.143071 0.013888 0.000000 0.002983 -0.029838 0.000000 0.147428 0.012111 0.000000 0.005463 -0.024403 0.000000 0.151151 0.009762 0.000000 0.006891 -0.019743 0.000000 0.154175 0.007563 0.000000 0.007789 -0.015571 0.000000 0.156871 0.005455 0.000000 0.008084 -0.011965 0.000000 0.159317 0.003716 0.000000 0.008061 -0.009112 0.000000 0.161208 0.002372 0.000000 0.007978 -0.006797 0.000000 0.162443 0.001322 0.000000 0.007994 -0.004714 0.000000 0.163090 0.000332 0.000000 0.007974 -0.002672 0.000000 0.163328 -0.000618 0.000000 0.007867 -0.000662 0.000000 0.163174 -0.001468 0.000000 0.007742 0.001323 0.000000 0.162507 -0.002282 0.000000 0.007606 0.003430 0.000000 0.161377 -0.003118 0.000000 0.007412 0.005696 0.000000 0.159714 -0.003963 0.000000 0.007110 0.008158 0.000000 0.157320 -0.004737 0.000000 0.006894 0.011017 0.000000 0.154097 -0.005646 0.000000 0.006652 0.014499 0.000000 0.149982 -0.006781 0.000000 0.006174 0.018750 0.000000 0.144826 -0.008014 0.000000 0.005498 0.023968 0.000000 0.138276 -0.009253 0.000000 0.004802 0.030572 0.000000 0.129952 -0.010695 0.000000 0.003648 0.039207 0.000000 0.119882 -0.012047 0.000000 0.001882 0.050172 0.000000 0.105864 -0.013221 0.000000 0.001570 0.066973 0.000000 0.086699 -0.018206 0.000000 -0.000795 0.095268 0.000000 
0.077398 -0.019395 0.000000 -0.018558 0.105697 0.000000 0.066446 -0.011750 0.000000 -0.023890 0.132529 0.000000 0.048860 -0.000328 0.000000 -0.024000 -0.124877 0.000000 0.067373 0.003277 0.000000 -0.019292 -0.094370 0.000000 0.085185 0.007916 0.000000 -0.013539 -0.074309 0.000000 0.100666 0.010103 0.000000 -0.008673 -0.059840 0.000000 0.114071 0.011082 0.000000 -0.005012 -0.049357 0.000000 0.125047 0.011826 0.000000 -0.001738 -0.041601 0.000000 0.133272 0.012014 0.000000 0.001291 -0.035095 0.000000 0.139387 0.011549 0.000000 0.003990 -0.029296 0.000000 0.144112 0.010426 0.000000 0.006141 -0.024018 0.000000 0.147971 0.008810 0.000000 0.007510 -0.019358 0.000000 0.151084 0.007146 0.000000 0.008339 -0.015197 0.000000 0.153701 0.005517 0.000000 0.008676 -0.011581 0.000000 0.155905 0.004133 0.000000 0.008694 -0.008608 0.000000 0.157577 0.003010 0.000000 0.008591 -0.006113 0.000000 0.158658 0.002090 0.000000 0.008477 -0.003868 0.000000 0.159183 0.001224 0.000000 0.008320 -0.001740 0.000000 0.159270 0.000387 0.000000 0.008098 0.000333 0.000000 0.158934 -0.000385 0.000000 0.007838 0.002399 0.000000 0.158109 -0.001150 0.000000 0.007559 0.004559 0.000000 0.156790 -0.001923 0.000000 0.007230 0.006876 0.000000 0.154901 -0.002684 0.000000 0.006815 0.009398 0.000000 0.152312 -0.003425 0.000000 0.006392 0.012297 0.000000 0.148911 -0.004263 0.000000 0.005884 0.015758 0.000000 0.144587 -0.005266 0.000000 0.005169 0.019887 0.000000 0.139201 -0.006381 0.000000 0.004239 0.024863 0.000000 0.132515 -0.007573 0.000000 0.003133 0.031033 0.000000 0.124261 -0.008988 0.000000 0.001708 0.038902 0.000000 0.114196 -0.010489 0.000000 0.000054 0.048730 0.000000 0.101569 -0.011867 0.000000 -0.001537 0.062420 0.000000 0.087497 -0.014899 0.000000 -0.006140 0.083300 0.000000 
0.096106 -0.014810 0.000000 -0.013298 0.133248 0.000000 0.082210 -0.009325 0.000000 -0.017280 0.166210 0.000000 0.063533 -0.000273 0.000000 -0.017377 -0.155976 0.000000 0.083172 0.004136 0.000000 -0.015135 -0.121822 0.000000 0.101219 0.008879 0.000000 -0.011910 -0.096147 0.000000 0.115977 0.011160 0.000000 -0.008771 -0.076633 0.000000 0.127840 0.011966 0.000000 -0.005969 -0.061931 0.000000 0.137065 0.012179 0.000000 -0.003199 -0.050801 0.000000 0.143870 0.011930 0.000000 -0.000543 -0.041934 0.000000 0.148868 0.011189 0.000000 0.001862 -0.034563 0.000000 0.152704 0.009961 0.000000 0.003848 -0.028261 0.000000 0.155811 0.008393 0.000000 0.005228 -0.022856 0.000000 0.158336 0.006734 0.000000 0.006161 -0.018188 0.000000 0.160487 0.005119 0.000000 0.006700 -0.014169 0.000000 0.162290 0.003697 0.000000 0.006939 -0.010785 0.000000 0.163702 0.002476 0.000000 0.007058 -0.007878 0.000000 0.164688 0.001435 0.000000 0.007128 -0.005240 0.000000 0.165218 0.000490 0.000000 0.007137 -0.002759 0.000000 0.165401 -0.000397 0.000000 0.007095 -0.000326 0.000000 0.165240 -0.001207 0.000000 0.006976 0.002148 0.000000 0.164667 -0.002004 0.000000 0.006833 0.004749 0.000000 0.163695 -0.002789 0.000000 0.006651 0.007585 0.000000 0.162236 -0.003548 0.000000 0.006368 0.010747 0.000000 0.160219 -0.004314 0.000000 0.006057 0.014418 0.000000 0.157558 -0.005138 0.000000 0.005648 0.018823 0.000000 0.154113 -0.006066 0.000000 0.005059 0.024136 0.000000 0.149803 -0.007083 0.000000 0.004304 0.030653 0.000000 0.144449 -0.008148 0.000000 0.003385 0.038827 0.000000 0.137825 -0.009269 0.000000 0.002145 0.049271 0.000000 0.129717 -0.010393 0.000000 0.000500 0.062798 0.000000 0.119560 -0.011631 0.000000 -0.001472 0.081045 0.000000 0.107577 -0.013602 0.000000 -0.005311 0.105367 0.000000 
0.105295 -0.011407 0.000000 -0.013066 0.119593 0.000000 0.099433 -0.007768 0.000000 -0.016527 0.151207 0.000000 0.093983 -0.000231 0.000000 -0.016619 -0.144516 0.000000 0.101512 0.001035 0.000000 -0.014545 -0.112417 0.000000 0.110844 0.004691 0.000000 -0.011253 -0.089067 0.000000 0.120168 0.006964 0.000000 -0.007862 -0.071702 0.000000 0.128765 0.008280 0.000000 -0.004795 -0.058582 0.000000 0.136171 0.009057 0.000000 -0.001984 -0.048406 0.000000 0.142135 0.009358 0.000000 0.000552 -0.040092 0.000000 0.146755 0.009145 0.000000 0.002764 -0.033132 0.000000 0.150413 0.008440 0.000000 0.004575 -0.027124 0.000000 0.153374 0.007429 0.000000 0.005852 -0.021883 0.000000 0.155752 0.006214 0.000000 0.006725 -0.017347 0.000000 0.157720 0.004977 0.000000 0.007255 -0.013385 0.000000 0.159289 0.003894 0.000000 0.007473 -0.010020 0.000000 0.160483 0.002890 0.000000 0.007551 -0.007099 0.000000 0.161297 0.002021 0.000000 0.007532 -0.004397 0.000000 0.161664 0.001215 0.000000 0.007433 -0.001923 0.000000 0.161703 0.000429 0.000000 0.007288 0.000494 0.000000 0.161408 -0.000266 0.000000 0.007041 0.002973 0.000000 0.160709 -0.001007 0.000000 0.006773 0.005531 0.000000 0.159627 -0.001740 0.000000 0.006472 0.008335 0.000000 0.158063 -0.002401 0.000000 0.006049 0.011416 0.000000 0.155983 -0.003114 0.000000 0.005568 0.014957 0.000000 0.153317 -0.003854 0.000000 0.004955 0.019203 0.000000 0.149900 -0.004677 0.000000 0.004150 0.024197 0.000000 0.145720 -0.005626 0.000000 0.003173 0.030217 0.000000 0.140691 -0.006654 0.000000 0.002009 0.037657 0.000000 0.134709 -0.007748 0.000000 0.000581 0.047010 0.000000 0.127729 -0.008844 0.000000 -0.001188 0.058887 0.000000 0.119823 -0.009895 0.000000 -0.003516 0.074404 0.000000 0.111825 -0.011060 0.000000 -0.007362 0.094771 0.000000 
0.120930 -0.009106 0.000000 -0.009656 0.139109 0.000000 0.113822 -0.005865 0.000000 -0.012289 0.171660 0.000000 0.107410 -0.000180 0.000000 -0.012367 -0.163506 0.000000 0.115279 0.002061 0.000000 -0.011476 -0.131153 0.000000 0.124566 0.005587 0.000000 -0.009633 -0.105471 0.000000 0.133337 0.007770 0.000000 -0.007449 -0.085229 0.000000 0.140955 0.008899 0.000000 -0.005189 -0.069337 0.000000 0.147237 0.009369 0.000000 -0.002895 -0.056765 0.000000 0.152181 0.009393 0.000000 -0.000753 -0.046555 0.000000 0.155826 0.008978 0.000000 0.001158 -0.038221 0.000000 0.158711 0.008150 0.000000 0.002839 -0.031222 0.000000 0.161051 0.007116 0.000000 0.004013 -0.025234 0.000000 0.162871 0.005861 0.000000 0.004926 -0.020157 0.000000 0.164449 0.004589 0.000000 0.005618 -0.015738 0.000000 0.165655 0.003480 0.000000 0.005935 -0.011979 0.000000 0.166623 0.002398 0.000000 0.006189 -0.008692 0.000000 0.167390 0.001454 0.000000 0.006322 -0.005607 0.000000 0.167692 0.000588 0.000000 0.006352 -0.002797 0.000000 0.167818 -0.000252 0.000000 0.006400 -0.000031 0.000000 0.167718 -0.000961 0.000000 0.006235 0.002848 0.000000 0.167225 -0.001735 0.000000 0.006100 0.005830 0.000000 0.166499 -0.002488 0.000000 0.005989 0.009149 0.000000 0.165317 -0.003125 0.000000 0.005654 0.012827 0.000000 0.163761 -0.003833 0.000000 0.005316 0.017085 0.000000 0.161805 -0.004526 0.000000 0.004823 0.022240 0.000000 0.159107 -0.005261 0.000000 0.004108 0.028316 0.000000 0.155825 -0.006106 0.000000 0.003274 0.035683 0.000000 0.151891 -0.006984 0.000000 0.002288 0.044808 0.000000 0.147181 -0.007840 0.000000 0.001045 0.056252 0.000000 0.141596 -0.008625 0.000000 -0.000555 0.070704 0.000000 0.135080 -0.009303 0.000000 -0.002644 0.089043 0.000000 0.127943 -0.009756 0.000000 -0.005665 0.111898 0.000000 
0.132510 -0.007416 0.000000 -0.009828 0.126700 0.000000 0.131984 -0.005136 0.000000 -0.011931 0.157619 0.000000 0.133904 -0.000153 0.000000 -0.011998 -0.152384 0.000000 0.133869 0.000144 0.000000 -0.011015 -0.121704 0.000000 0.136520 0.002848 0.000000 -0.009065 -0.097838 0.000000 0.140404 0.004780 0.000000 -0.006728 -0.079320 0.000000 0.144651 0.006020 0.000000 -0.004321 -0.064864 0.000000 0.148739 0.006763 0.000000 -0.001956 -0.053351 0.000000 0.152343 0.007216 0.000000 0.000139 -0.043737 0.000000 0.155087 0.007234 0.000000 0.001938 -0.036017 0.000000 0.157411 0.006760 0.000000 0.003543 -0.029464 0.000000 0.159362 0.006255 0.000000 0.004599 -0.023704 0.000000 0.160829 0.005301 0.000000 0.005453 -0.018925 0.000000 0.162139 0.004285 0.000000 0.006147 -0.014590 0.000000 0.163048 0.003577 0.000000 0.006391 -0.010988 0.000000 0.163771 0.002637 0.000000 0.006607 -0.007866 0.000000 0.164382 0.001888 0.000000 0.006666 -0.004700 0.000000 0.164474 0.001184 0.000000 0.006593 -0.002048 0.000000 0.164469 0.000382 0.000000 0.006579 0.000594 0.000000 0.164288 -0.000101 0.000000 0.006267 0.003466 0.000000 0.163691 -0.000872 0.000000 0.006020 0.006258 0.000000 0.162947 -0.001629 0.000000 0.005835 0.009516 0.000000 0.161741 -0.002066 0.000000 0.005340 0.012972 0.000000 0.160242 -0.002776 0.000000 0.004874 0.016913 0.000000 0.158472 -0.003361 0.000000 0.004219 0.021902 0.000000 0.155978 -0.003962 0.000000 0.003304 0.027479 0.000000 0.153088 -0.004792 0.000000 0.002293 0.034150 0.000000 0.149818 -0.005668 0.000000 0.001151 0.042367 0.000000 0.146155 -0.006506 0.000000 -0.000207 0.052596 0.000000 0.142184 -0.007245 0.000000 -0.001871 0.065403 0.000000 0.138165 -0.007805 0.000000 -0.003975 0.081541 0.000000 0.134684 -0.008039 0.000000 -0.006719 0.101784 0.000000 
0.145841 -0.005997 0.000000 -0.007378 0.139635 0.000000 0.144729 -0.003762 0.000000 -0.009055 0.169740 0.000000 0.146020 -0.000113 0.000000 -0.009112 -0.163470 0.000000 0.145975 0.001078 0.000000 -0.008769 -0.133805 0.000000 0.148435 0.003637 0.000000 -0.007696 -0.109355 0.000000 0.151856 0.005433 0.000000 -0.006203 -0.089476 0.000000 0.155408 0.006492 0.000000 -0.004443 -0.073426 0.000000 0.158749 0.007004 0.000000 -0.002438 -0.060369 0.000000 0.161794 0.007298 0.000000 -0.000732 -0.049299 0.000000 0.163544 0.007179 0.000000 0.000686 -0.040545 0.000000 0.165264 0.006544 0.000000 0.002336 -0.033173 0.000000 0.166809 0.006060 0.000000 0.003062 -0.026702 0.000000 0.167649 0.005006 0.000000 0.003910 -0.021467 0.000000 0.168784 0.003895 0.000000 0.004910 -0.016646 0.000000 0.169257 0.003235 0.000000 0.004996 -0.012702 0.000000 0.169745 0.002181 0.000000 0.005440 -0.009303 0.000000 0.170557 0.001395 0.000000 0.005619 -0.005699 0.000000 0.170344 0.000662 0.000000 0.005550 -0.002793 0.000000 0.170460 -0.000238 0.000000 0.005916 0.000150 0.000000 0.170590 -0.000648 0.000000 0.005464 0.003444 0.000000 0.170017 -0.001489 0.000000 0.005342 0.006575 0.000000 0.169757 -0.002303 0.000000 0.005551 0.010355 0.000000 0.168774 -0.002630 0.000000 0.004944 0.014326 0.000000 0.167702 -0.003366 0.000000 0.004730 0.018854 0.000000 0.166794 -0.003871 0.000000 0.004222 0.024735 0.000000 0.164684 -0.004345 0.000000 0.003276 0.031206 0.000000 0.162497 -0.005095 0.000000 0.002397 0.038952 0.000000 0.160109 -0.005842 0.000000 0.001447 0.048471 0.000000 0.157411 -0.006483 0.000000 0.000302 0.060223 0.000000 0.154405 -0.006961 0.000000 -0.001119 0.074723 0.000000 0.151218 -0.007198 0.000000 -0.002885 0.092524 0.000000 0.148184 -0.007012 0.000000 -0.005048 0.114072 0.000000 
0.158070 -0.005086 0.000000 -0.007597 0.127812 0.000000 0.162079 -0.003459 0.000000 -0.008895 0.156328 0.000000 0.169116 -0.000096 0.000000 -0.008943 -0.152339 0.000000 0.163547 -0.000200 0.000000 -0.008451 -0.124165 0.000000 0.160972 0.001776 0.000000 -0.007264 -0.101259 0.000000 0.160282 0.003286 0.000000 -0.005665 -0.082872 0.000000 0.160700 0.004260 0.000000 -0.003805 -0.068205 0.000000 0.161795 0.004758 0.000000 -0.001659 -0.056395 0.000000 0.163411 0.005510 0.000000 0.000024 -0.045488 0.000000 0.163840 0.005817 0.000000 0.001305 -0.037737 0.000000 0.164784 0.005110 0.000000 0.003061 -0.031009 0.000000 0.165832 0.005529 0.000000 0.003546 -0.024544 0.000000 0.166064 0.004453 0.000000 0.004343 -0.020060 0.000000 0.166960 0.003286 0.000000 0.005488 -0.015063 0.000000 0.166992 0.003491 0.000000 0.005338 -0.011476 0.000000 0.167170 0.002193 0.000000 0.005821 -0.008678 0.000000 0.167986 0.001708 0.000000 0.005934 -0.004487 0.000000 0.167380 0.001253 0.000000 0.005693 -0.002164 0.000000 0.167412 0.000016 0.000000 0.006168 0.000464 0.000000 0.167582 0.000351 0.000000 0.005426 0.004038 0.000000 0.166822 -0.000750 0.000000 0.005205 0.006518 0.000000 0.166728 -0.001838 0.000000 0.005507 0.010499 0.000000 0.165712 -0.001459 0.000000 0.004603 0.014045 0.000000 0.164769 -0.002562 0.000000 0.004367 0.017821 0.000000 0.164354 -0.002852 0.000000 0.003744 0.024012 0.000000 0.162449 -0.003016 0.000000 0.002553 0.029666 0.000000 0.160835 -0.003913 0.000000 0.001544 0.036538 0.000000 0.159337 -0.004718 0.000000 0.000507 0.045065 0.000000 0.157909 -0.005361 0.000000 -0.000690 0.055602 0.000000 0.156685 -0.005823 0.000000 -0.002112 0.068591 0.000000 0.155966 -0.006040 0.000000 -0.003795 0.084574 0.000000 0.156231 -0.005876 0.000000 -0.005710 0.104128 0.000000 
0.169516 -0.004111 0.000000 -0.005755 0.135625 0.000000 0.173228 -0.002463 0.000000 -0.006847 0.162704 0.000000 0.179885 -0.000065 0.000000 -0.006889 -0.157901 0.000000 0.174168 0.000586 0.000000 -0.006789 -0.131230 0.000000 0.171349 0.002450 0.000000 -0.006181 -0.108664 0.000000 0.170246 0.003835 0.000000 -0.005225 -0.089895 0.000000 0.170076 0.004631 0.000000 -0.003941 -0.074521 0.000000 0.170561 0.004858 0.000000 -0.001684 -0.061985 0.000000 0.172699 0.005615 0.000000 -0.000420 -0.049727 0.000000 0.171294 0.005898 0.000000 -0.000020 -0.041489 0.000000 0.171994 0.004788 0.000000 0.002755 -0.034220 0.000000 0.173271 0.005576 0.000000 0.001988 -0.026934 0.000000 0.172134 0.004209 0.000000 0.002743 -0.022363 0.000000 0.173783 0.002751 0.000000 0.005116 -0.016677 0.000000 0.172842 0.003385 0.000000 0.003699 -0.012880 0.000000 0.172543 0.001699 0.000000 0.004953 -0.010119 0.000000 0.174747 0.001281 0.000000 0.005165 -0.005093 0.000000 0.172665 0.000903 0.000000 0.004313 -0.002825 0.000000 0.173089 -0.000714 0.000000 0.006250 -0.000021 0.000000 0.174163 0.000094 0.000000 0.004363 0.004205 0.000000 0.172497 -0.001267 0.000000 0.004253 0.006669 0.000000 0.173739 -0.002605 0.000000 0.005929 0.011371 0.000000 0.172319 -0.001726 0.000000 0.003840 0.015270 0.000000 0.171478 -0.003131 0.000000 0.004438 0.019269 0.000000 0.172986 -0.003249 0.000000 0.004058 0.026639 0.000000 0.170338 -0.003153 0.000000 0.002376 0.032821 0.000000 0.169368 -0.004086 0.000000 0.001590 0.040450 0.000000 0.168637 -0.004805 0.000000 0.000802 0.049899 0.000000 0.167948 -0.005286 0.000000 -0.000163 0.061447 0.000000 0.167393 -0.005539 0.000000 -0.001341 0.075442 0.000000 0.167199 -0.005515 0.000000 -0.002726 0.092260 0.000000 0.167733 -0.005096 0.000000 -0.004263 0.112232 0.000000 
0.181455 -0.003594 0.000000 -0.005955 0.124101 0.000000 0.189142 -0.002367 0.000000 -0.006786 0.149671 0.000000 0.199993 -0.000054 0.000000 -0.006820 -0.146623 0.000000 0.190234 -0.000300 0.000000 -0.006581 -0.121346 0.000000 0.183546 0.001167 0.000000 -0.005874 -0.100156 0.000000 0.179054 0.002330 0.000000 -0.004864 -0.082703 0.000000 0.176076 0.002976 0.000000 -0.003575 -0.068690 0.000000 0.174333 0.002501 0.000000 -0.001171 -0.058532 0.000000 0.175126 0.004246 0.000000 0.000037 -0.044083 0.000000 0.172078 0.005417 0.000000 0.000195 -0.038436 0.000000 0.171913 0.002334 0.000000 0.003296 -0.032286 0.000000 0.172661 0.006296 0.000000 0.002135 -0.023407 0.000000 0.170635 0.003698 0.000000 0.002838 -0.021709 0.000000 0.172163 0.000912 0.000000 0.005531 -0.014122 0.000000 0.170633 0.004908 0.000000 0.003651 -0.011177 0.000000 0.169932 0.000939 0.000000 0.005075 -0.010883 0.000000 0.172354 0.001496 0.000000 0.005227 -0.002404 0.000000 0.169647 0.002106 0.000000 0.004076 -0.002588 0.000000 0.170060 -0.001922 0.000000 0.006364 -0.000610 0.000000 0.171303 0.002238 0.000000 0.004017 0.005704 0.000000 0.169285 -0.000640 0.000000 0.003820 0.005275 0.000000 0.170942 -0.003514 0.000000 0.005787 0.011920 0.000000 0.169453 0.000630 0.000000 0.003198 0.014885 0.000000 0.168769 -0.003160 0.000000 0.003942 0.016313 0.000000 0.171110 -0.002472 0.000000 0.003531 0.026659 0.000000 0.168629 -0.001334 0.000000 0.001618 0.030636 0.000000 0.168464 -0.003127 0.000000 0.000823 0.037269 0.000000 0.168786 -0.003930 0.000000 0.000023 0.045755 0.000000 0.169458 -0.004396 0.000000 -0.000947 0.056157 0.000000 0.170680 -0.004645 0.000000 -0.002092 0.068785 0.000000 0.172782 -0.004654 0.000000 -0.003381 0.084040 0.000000 0.176200 -0.004339 0.000000 -0.004730 0.102344 0.000000 