# vtk DataFile Version 2.0
Comment goes here
ASCII

DATASET STRUCTURED_POINTS
FIELD FieldData 1
TIME 1 1 double
0.08600000
DIMENSIONS    64   64   1

ORIGIN    0.000   0.000   0.000
SPACING   0.03125 0.03125   1.000

POINT_DATA   4096
VECTORS u double

0.949121 -7.046685 0.000000 -2.215029 -0.144583 0.000000 1.088705 0.601602 0.000000 -3.235114 -0.381000 0.000000 0.215413 -0.105070 0.000000 -2.482099 -0.106834 0.000000 0.956885 0.614522 0.000000 -3.373668 -0.507235 0.000000 0.636148 0.050305 0.000000 -3.233214 -0.613718 0.000000 0.148186 0.053837 0.000000 -1.921479 0.983193 0.000000 -1.149770 1.017985 0.000000 -1.743130 1.444732 0.000000 -1.407541 1.482072 0.000000 -1.190352 0.857168 0.000000 -0.833031 -0.463176 0.000000 -0.515975 0.518251 0.000000 -1.664886 -0.150401 0.000000 -1.965024 0.339721 0.000000 -1.493927 0.497596 0.000000 -2.217825 1.236562 0.000000 -1.038877 0.215562 0.000000 -0.774484 -0.064191 0.000000 -1.421452 0.030199 0.000000 2.039317 -0.420928 0.000000 0.319712 0.270681 0.000000 1.950931 -0.130608 0.000000 -0.312633 0.727189 0.000000 1.344147 0.394750 0.000000 -0.334845 -0.992495 0.000000 1.637852 -0.120843 0.000000 -1.309339 0.099228 0.000000 1.870217 -0.358617 0.000000 -0.115966 1.414517 0.000000 2.278628 1.417481 0.000000 0.079261 1.359347 0.000000 5.580433 0.136685 0.000000 2.285704 -0.780198 0.000000 2.432113 -0.854989 0.000000 0.047031 -0.683086 0.000000 2.915301 0.257691 0.000000 -0.389114 0.351967 0.000000 1.338468 -0.048413 0.000000 -0.972350 -0.178073 0.000000 0.487421 -1.016205 0.000000 -2.984246 -0.802589 0.000000 -1.782177 0.935086 0.000000 -2.430369 0.139052 0.000000 -1.334463 -0.477776 0.000000 -1.465322 0.867033 0.000000 0.296496 0.408169 0.000000 -0.738331 0.384788 0.000000 -0.105094 -0.364869 0.000000 -0.177322 0.255967 0.000000 -0.789464 0.115859 0.000000 -0.107145 0.241252 0.000000 -0.981837 -0.691208 0.000000 0.041352 0.504609 0.000000 -1.398053 -0.923637 0.000000 0.442081 0.589413 0.000000 -2.239699 -0.429682 0.000000 0.805213 0.261318 0.000000 -3.568310 0.286934 0.000000 
0.284966 -8.622498 0.000000 -1.313750 -0.478852 0.000000 0.812607 1.104205 0.000000 -1.711497 -0.146059 0.000000 1.213875 -0.010848 0.000000 -2.173586 -0.995300 0.000000 0.932802 0.527258 0.000000 -1.427148 -0.856083 0.000000 0.970967 -0.753508 0.000000 -0.602440 -0.145671 0.000000 -1.279729 -1.146124 0.000000 -0.277889 0.504494 0.000000 -0.311585 -0.255472 0.000000 0.857899 0.853199 0.000000 0.333616 -0.581964 0.000000 3.238640 -0.620093 0.000000 1.660502 -1.497451 0.000000 2.625076 -0.072655 0.000000 0.979070 0.116894 0.000000 1.481748 -0.742809 0.000000 1.305839 -0.778807 0.000000 1.913602 -1.183838 0.000000 3.116054 -1.285500 0.000000 1.853650 -0.598751 0.000000 3.544425 -2.388821 0.000000 0.878531 -1.415743 0.000000 1.242894 -0.370930 0.000000 1.243806 -0.425165 0.000000 0.014792 -0.248330 0.000000 1.145068 0.072944 0.000000 -0.194604 -0.414385 0.000000 -1.352877 -0.086064 0.000000 -0.001089 0.365088 0.000000 -2.837797 -0.673131 0.000000 -2.299091 -0.398492 0.000000 -1.127720 0.325835 0.000000 -0.568336 -0.952013 0.000000 1.099180 -1.210733 0.000000 0.278890 1.700203 0.000000 -2.190592 0.775977 0.000000 -2.142902 -1.115775 0.000000 -2.474383 -0.153601 0.000000 -1.861572 0.614386 0.000000 -2.498189 0.146912 0.000000 -2.448239 0.456296 0.000000 -3.435650 0.727083 0.000000 -4.817131 0.538999 0.000000 -4.461415 -0.779717 0.000000 -1.618930 -0.421066 0.000000 -3.514979 -0.206857 0.000000 -3.315864 -0.505308 0.000000 -1.989303 -0.656951 0.000000 -1.879509 0.083193 0.000000 -0.932291 -0.756739 0.000000 -1.572480 0.395505 0.000000 -0.514437 -0.154661 0.000000 -1.139270 0.161165 0.000000 -0.020025 -0.693742 0.000000 -1.309134 0.705409 0.000000 0.171518 -1.072577 0.000000 -1.362091 0.921022 0.000000 0.435272 -0.800601 0.000000 -1.242017 1.214226 0.000000 0.597980 -0.484774 0.000000 
4.542098 -5.134956 0.000000 -0.614208 -0.672224 0.000000 3.695742 0.999350 0.000000 0.292561 -0.782268 0.000000 3.019998 0.357019 0.000000 0.126594 0.174239 0.000000 2.821851 -0.131917 0.000000 0.853236 -0.545400 0.000000 2.298288 -0.774402 0.000000 0.231630 1.636978 0.000000 0.951638 -0.270715 0.000000 -1.191266 0.015049 0.000000 0.706680 -0.117803 0.000000 -1.940074 0.799531 0.000000 0.374047 -0.898668 0.000000 -2.778892 -0.469718 0.000000 -0.908941 0.150388 0.000000 -5.110828 1.199684 0.000000 -2.297983 0.992927 0.000000 -6.043019 0.012952 0.000000 -3.279488 0.065742 0.000000 -6.855518 -0.573653 0.000000 -3.620681 0.275514 0.000000 -7.036338 -0.492562 0.000000 -2.024095 1.005318 0.000000 -7.635284 1.880603 0.000000 -1.524366 -0.094594 0.000000 -4.935826 1.097494 0.000000 0.511669 0.825926 0.000000 -2.807616 0.604147 0.000000 3.074894 1.505450 0.000000 -1.496581 -0.314358 0.000000 5.402683 1.584148 0.000000 0.133022 1.939386 0.000000 5.527188 -0.295560 0.000000 1.342534 -0.313275 0.000000 7.383173 -0.867553 0.000000 1.943429 -0.710541 0.000000 7.448279 2.509574 0.000000 3.138757 1.566804 0.000000 7.997831 -0.399295 0.000000 2.492838 -0.023639 0.000000 8.017721 0.375774 0.000000 3.030151 0.538254 0.000000 7.913212 0.759388 0.000000 3.061084 1.352687 0.000000 7.958415 0.223176 0.000000 3.386626 -2.263116 0.000000 8.187223 -0.807384 0.000000 3.318660 1.219159 0.000000 7.456030 -0.658642 0.000000 3.123967 -1.028186 0.000000 7.300725 -0.672224 0.000000 3.442668 -0.671898 0.000000 6.871410 -0.161887 0.000000 3.731537 -0.317351 0.000000 6.824120 -0.253161 0.000000 3.724242 -0.521344 0.000000 6.288264 0.313066 0.000000 3.956693 -0.870680 0.000000 5.490110 0.325659 0.000000 4.448051 -0.549756 0.000000 4.739247 0.098610 0.000000 5.703567 -1.240048 0.000000 
8.124554 -2.304722 0.000000 1.665768 0.367504 0.000000 6.774531 0.197435 0.000000 1.992830 0.529685 0.000000 4.687592 0.155119 0.000000 2.170657 -0.797152 0.000000 6.021644 -0.199384 0.000000 1.788140 -0.332520 0.000000 5.310606 -0.131901 0.000000 0.464537 1.200979 0.000000 5.614716 0.276771 0.000000 -0.881453 0.749451 0.000000 4.011047 0.493337 0.000000 -2.596961 1.185832 0.000000 2.545776 0.256854 0.000000 -5.537068 0.662895 0.000000 -0.516842 0.834485 0.000000 -8.260398 1.316388 0.000000 -2.552187 1.049085 0.000000 -10.538672 0.238696 0.000000 -5.226103 0.033692 0.000000 -12.930732 -0.842645 0.000000 -7.033598 -1.104680 0.000000 -13.495121 -2.195337 0.000000 -6.772809 -1.789875 0.000000 -11.230223 -1.915472 0.000000 -2.682607 -3.070389 0.000000 -8.512318 -2.461200 0.000000 1.361622 -2.376540 0.000000 -4.905508 -2.490280 0.000000 4.807566 -1.725420 0.000000 -1.257780 -2.413853 0.000000 6.932271 -1.264515 0.000000 1.949006 -0.797636 0.000000 10.313811 -1.608005 0.000000 3.295093 -1.530150 0.000000 11.427862 -1.552908 0.000000 3.684030 -1.275839 0.000000 11.785105 0.504876 0.000000 6.316148 0.226426 0.000000 13.508796 -0.469856 0.000000 6.256600 -0.173491 0.000000 13.574766 0.077073 0.000000 6.638094 0.251421 0.000000 13.878731 0.425363 0.000000 7.165064 0.681880 0.000000 14.819295 0.213456 0.000000 7.287782 -1.008525 0.000000 12.854316 -0.353100 0.000000 6.686617 0.524336 0.000000 13.753600 -0.310614 0.000000 6.298871 -0.501646 0.000000 12.835743 -0.235509 0.000000 5.874281 -0.327424 0.000000 12.254164 0.106637 0.000000 5.785850 -0.107371 0.000000 11.898035 0.168459 0.000000 5.508597 -0.157887 0.000000 11.317890 0.472958 0.000000 5.600637 -0.274422 0.000000 10.380538 0.429664 0.000000 5.711628 -0.049738 0.000000 9.599664 -0.041290 0.000000 5.873920 -0.287625 0.000000 
8.182054 -0.926804 0.000000 2.629947 0.677799 0.000000 6.980138 0.672288 0.000000 1.857652 1.304671 0.000000 5.175603 0.179192 0.000000 1.898667 -1.159813 0.000000 5.625824 0.250601 0.000000 0.971971 0.165638 0.000000 5.089791 0.549201 0.000000 -0.252424 1.332868 0.000000 4.826036 1.075275 0.000000 -1.660330 1.618718 0.000000 3.419506 1.597704 0.000000 -3.466565 2.264802 0.000000 1.704998 2.041439 0.000000 -6.092756 2.592900 0.000000 -1.018493 2.873718 0.000000 -8.809503 3.235029 0.000000 -3.424510 3.271201 0.000000 -11.397978 2.686868 0.000000 -6.062392 2.457803 0.000000 -13.648699 1.233843 0.000000 -7.454847 0.839902 0.000000 -14.011335 -0.753351 0.000000 -6.523675 -1.259580 0.000000 -11.415451 -2.209599 0.000000 -2.221305 -2.812499 0.000000 -7.852630 -2.946735 0.000000 2.232042 -2.780884 0.000000 -3.805134 -2.841797 0.000000 5.861404 -2.142277 0.000000 -0.247223 -2.439063 0.000000 8.377004 -1.622638 0.000000 2.564449 -1.442155 0.000000 11.091253 -1.641647 0.000000 4.155317 -1.427325 0.000000 12.300824 -1.256490 0.000000 4.917747 -1.067784 0.000000 12.908193 -0.122545 0.000000 6.573117 -0.156887 0.000000 13.997088 -0.339747 0.000000 6.834519 -0.089608 0.000000 14.184403 -0.005721 0.000000 7.115062 0.234289 0.000000 14.331582 0.232419 0.000000 7.376331 0.412123 0.000000 14.647998 0.100458 0.000000 7.352994 -0.298137 0.000000 13.530835 -0.206219 0.000000 6.877960 0.319875 0.000000 13.663641 -0.270897 0.000000 6.470248 -0.110330 0.000000 12.966283 -0.247634 0.000000 6.094220 -0.090319 0.000000 12.403260 -0.073455 0.000000 5.916188 0.038779 0.000000 11.926227 0.024092 0.000000 5.680158 0.058801 0.000000 11.290883 0.221026 0.000000 5.601847 0.066673 0.000000 10.415467 0.214668 0.000000 5.466716 0.231118 0.000000 9.529560 -0.063681 0.000000 5.038355 0.235062 0.000000 
8.794234 0.103686 0.000000 3.188291 1.569420 0.000000 7.630701 0.969731 0.000000 2.621156 2.334220 0.000000 6.089100 0.114103 0.000000 2.679118 -1.247373 0.000000 6.295913 0.727313 0.000000 1.813830 0.203514 0.000000 6.203937 1.092494 0.000000 0.794220 1.464734 0.000000 5.923038 1.684678 0.000000 -0.465219 2.155981 0.000000 4.802882 2.299572 0.000000 -2.208640 2.900340 0.000000 3.058458 2.883045 0.000000 -4.739564 3.386386 0.000000 0.320577 3.551233 0.000000 -7.822135 3.722405 0.000000 -2.904276 3.637560 0.000000 -11.304868 2.876578 0.000000 -6.457267 2.284413 0.000000 -14.553858 0.549810 0.000000 -8.792170 -0.742044 0.000000 -15.602317 -3.126509 0.000000 -7.961202 -4.385759 0.000000 -12.806934 -6.217842 0.000000 -3.164617 -6.633210 0.000000 -8.451869 -6.914547 0.000000 1.639133 -6.424035 0.000000 -4.242735 -6.119642 0.000000 5.344965 -5.283332 0.000000 -0.715304 -4.929452 0.000000 8.061407 -4.076187 0.000000 2.025098 -3.511885 0.000000 10.439928 -3.198873 0.000000 3.738762 -2.739722 0.000000 11.890666 -2.315338 0.000000 4.896132 -1.883209 0.000000 12.787161 -1.150494 0.000000 6.196840 -0.862469 0.000000 13.659128 -0.731259 0.000000 6.689941 -0.360806 0.000000 13.971332 -0.203469 0.000000 6.986951 0.104242 0.000000 14.116719 0.164094 0.000000 7.157619 0.365464 0.000000 14.157985 0.236793 0.000000 7.076673 0.108639 0.000000 13.515220 0.121934 0.000000 6.739847 0.391530 0.000000 13.367121 0.097099 0.000000 6.399813 0.195712 0.000000 12.893229 0.140519 0.000000 6.099698 0.235599 0.000000 12.429670 0.284669 0.000000 5.895996 0.369663 0.000000 11.983853 0.404488 0.000000 5.675230 0.477457 0.000000 11.419473 0.551269 0.000000 5.507600 0.600994 0.000000 10.690488 0.564796 0.000000 5.247469 0.836169 0.000000 9.881114 0.387070 0.000000 4.684858 1.059881 0.000000 
8.978572 0.569762 0.000000 3.296317 1.841332 0.000000 7.922268 1.239423 0.000000 2.536941 2.846271 0.000000 6.528327 0.121229 0.000000 2.531723 -1.366626 0.000000 6.281673 1.115889 0.000000 1.460284 0.257614 0.000000 5.874955 1.568811 0.000000 0.285429 1.613767 0.000000 5.287683 2.334715 0.000000 -1.081377 2.738874 0.000000 4.041098 3.341125 0.000000 -2.889846 4.009226 0.000000 2.107472 4.572363 0.000000 -5.406310 5.330781 0.000000 -0.764265 5.956289 0.000000 -8.663874 6.459882 0.000000 -4.368311 6.753934 0.000000 -12.696444 6.239860 0.000000 -8.441512 5.706793 0.000000 -16.734344 3.568746 0.000000 -11.080000 1.888361 0.000000 -17.811142 -1.584319 0.000000 -9.527263 -4.054963 0.000000 -13.780403 -7.006184 0.000000 -2.857984 -7.167564 0.000000 -7.684329 -7.750486 0.000000 3.028010 -6.990018 0.000000 -2.664509 -6.547629 0.000000 7.039752 -5.669708 0.000000 0.960734 -5.155505 0.000000 9.782528 -4.363040 0.000000 3.474047 -3.820675 0.000000 11.854376 -3.355312 0.000000 5.048861 -2.878063 0.000000 13.149639 -2.413860 0.000000 6.091477 -1.964279 0.000000 13.928927 -1.423252 0.000000 6.999591 -1.028855 0.000000 14.499219 -0.832849 0.000000 7.361867 -0.401812 0.000000 14.653198 -0.302730 0.000000 7.482493 0.088903 0.000000 14.597210 0.061750 0.000000 7.447388 0.370857 0.000000 14.398825 0.181404 0.000000 7.227499 0.344628 0.000000 13.826491 0.130607 0.000000 6.848730 0.467974 0.000000 13.480259 0.069137 0.000000 6.493377 0.363562 0.000000 13.026880 0.052481 0.000000 6.207484 0.373240 0.000000 12.570180 0.130247 0.000000 5.985539 0.484595 0.000000 12.084518 0.244858 0.000000 5.744568 0.623181 0.000000 11.492379 0.388656 0.000000 5.489103 0.795658 0.000000 10.768296 0.474800 0.000000 5.117529 1.040491 0.000000 9.956320 0.498930 0.000000 4.455080 1.321942 0.000000 
9.556146 1.262449 0.000000 3.762350 2.625724 0.000000 8.614771 1.729106 0.000000 3.269154 3.728161 0.000000 7.446156 0.119321 0.000000 3.269685 -1.000720 0.000000 7.296936 1.798752 0.000000 2.477807 0.610232 0.000000 7.120426 2.267349 0.000000 1.581858 2.052006 0.000000 6.792521 3.051484 0.000000 0.525383 3.402567 0.000000 5.930067 4.108041 0.000000 -0.971123 4.833965 0.000000 4.280941 5.399509 0.000000 -3.302125 6.258124 0.000000 1.373597 6.808796 0.000000 -6.894096 7.326450 0.000000 -3.180397 7.670130 0.000000 -12.166371 6.949780 0.000000 -9.125306 6.322312 0.000000 -18.368436 3.188298 0.000000 -13.832591 0.334755 0.000000 -21.701340 -4.679246 0.000000 -13.154590 -8.416498 0.000000 -16.034990 -12.887122 0.000000 -3.790066 -12.729285 0.000000 -8.286269 -12.800541 0.000000 2.848729 -11.443856 0.000000 -2.908647 -10.131384 0.000000 6.713405 -8.908575 0.000000 0.605777 -7.672229 0.000000 9.371234 -6.589499 0.000000 3.048828 -5.583733 0.000000 11.356686 -4.773687 0.000000 4.686133 -4.034985 0.000000 12.786210 -3.357953 0.000000 5.890882 -2.662497 0.000000 13.711915 -2.058608 0.000000 6.784669 -1.432761 0.000000 14.280314 -1.093534 0.000000 7.212049 -0.514784 0.000000 14.463842 -0.324095 0.000000 7.341224 0.160230 0.000000 14.400748 0.199198 0.000000 7.264655 0.563849 0.000000 14.138492 0.456682 0.000000 7.009772 0.680973 0.000000 13.651947 0.500703 0.000000 6.658682 0.737762 0.000000 13.281676 0.452451 0.000000 6.351764 0.649091 0.000000 12.938283 0.426412 0.000000 6.131109 0.692299 0.000000 12.593170 0.506615 0.000000 5.942322 0.855325 0.000000 12.195784 0.645459 0.000000 5.721925 1.069595 0.000000 11.697025 0.806735 0.000000 5.459497 1.325077 0.000000 11.087823 0.936370 0.000000 5.096191 1.648145 0.000000 10.387771 1.049519 0.000000 4.546253 2.037629 0.000000 
9.797182 1.353665 0.000000 3.719582 2.782707 0.000000 8.937954 1.732619 0.000000 3.152343 4.014886 0.000000 7.847558 0.120698 0.000000 3.122851 -1.217406 0.000000 7.468719 1.907768 0.000000 2.225021 0.434125 0.000000 6.999057 2.464760 0.000000 1.189418 1.941672 0.000000 6.395129 3.391189 0.000000 0.009606 3.601328 0.000000 5.312005 4.837632 0.000000 -1.559450 5.658351 0.000000 3.403247 6.903365 0.000000 -3.926623 8.238125 0.000000 0.144152 9.548260 0.000000 -7.718017 11.013876 0.000000 -5.045660 12.026208 0.000000 -13.985891 12.184768 0.000000 -12.418465 11.908859 0.000000 -22.795220 8.276031 0.000000 -18.752386 5.221265 0.000000 -27.068084 -2.262319 0.000000 -17.512518 -9.721313 0.000000 -18.383908 -16.370708 0.000000 -2.699920 -14.916285 0.000000 -6.431759 -14.389282 0.000000 5.668359 -12.367640 0.000000 -0.080841 -10.412305 0.000000 9.466556 -9.184132 0.000000 3.321840 -7.813334 0.000000 11.852147 -6.806091 0.000000 5.329971 -5.806127 0.000000 13.378158 -4.992617 0.000000 6.484307 -4.307587 0.000000 14.502530 -3.618610 0.000000 7.405042 -2.889985 0.000000 15.157264 -2.317038 0.000000 7.967156 -1.597253 0.000000 15.413522 -1.260229 0.000000 8.122660 -0.585340 0.000000 15.331159 -0.431906 0.000000 7.999295 0.151996 0.000000 15.006439 0.138319 0.000000 7.691375 0.633113 0.000000 14.520856 0.436287 0.000000 7.252029 0.831173 0.000000 13.900353 0.481697 0.000000 6.777588 0.838245 0.000000 13.405611 0.376055 0.000000 6.425613 0.706955 0.000000 13.090630 0.273136 0.000000 6.231488 0.718353 0.000000 12.772545 0.319034 0.000000 6.044193 0.881981 0.000000 12.360974 0.465256 0.000000 5.788488 1.121940 0.000000 11.841990 0.651083 0.000000 5.457774 1.404860 0.000000 11.232699 0.838106 0.000000 5.023350 1.740543 0.000000 10.556792 1.048867 0.000000 4.437558 2.153568 0.000000 
10.343693 1.980425 0.000000 4.174762 3.484952 0.000000 9.608424 2.296345 0.000000 3.850762 4.818557 0.000000 8.726322 0.148813 0.000000 3.828134 -0.621881 0.000000 8.571189 2.696582 0.000000 3.269432 1.079894 0.000000 8.417389 3.302952 0.000000 2.657302 2.655933 0.000000 8.260058 4.231295 0.000000 2.019958 4.485691 0.000000 7.840828 5.677097 0.000000 1.134378 6.742724 0.000000 6.727714 7.766682 0.000000 -0.565765 9.517219 0.000000 4.018655 10.600190 0.000000 -4.204019 12.516262 0.000000 -2.016976 13.938004 0.000000 -11.580300 14.322585 0.000000 -12.843993 15.131641 0.000000 -24.943177 9.522219 0.000000 -23.968898 4.607618 0.000000 -37.064555 -5.919114 0.000000 -26.433962 -17.100673 0.000000 -21.443130 -27.699720 0.000000 -1.694151 -24.681434 0.000000 -5.688422 -21.168819 0.000000 6.753904 -17.794774 0.000000 0.325180 -13.929580 0.000000 9.254281 -12.311256 0.000000 3.023404 -10.057820 0.000000 11.334496 -8.597630 0.000000 4.885665 -7.109744 0.000000 12.805755 -5.928023 0.000000 6.068180 -5.159357 0.000000 14.175957 -4.278688 0.000000 7.201482 -3.317230 0.000000 14.991622 -2.620722 0.000000 7.835352 -1.689019 0.000000 15.282847 -1.249039 0.000000 8.029116 -0.432421 0.000000 15.208749 -0.200729 0.000000 7.897052 0.484949 0.000000 14.882523 0.507118 0.000000 7.545502 1.049432 0.000000 14.341381 0.896027 0.000000 7.041423 1.301476 0.000000 13.674324 0.975145 0.000000 6.526988 1.232504 0.000000 13.164526 0.804426 0.000000 6.211136 0.964072 0.000000 12.985987 0.620537 0.000000 6.117767 1.010383 0.000000 12.809419 0.693909 0.000000 5.999772 1.266896 0.000000 12.507813 0.901165 0.000000 5.784753 1.588579 0.000000 12.082258 1.137449 0.000000 5.485717 1.934369 0.000000 11.567979 1.370794 0.000000 5.109779 2.324052 0.000000 10.990976 1.635312 0.000000 4.655614 2.797239 0.000000 
10.598653 1.834518 0.000000 4.125395 3.517976 0.000000 9.922804 2.056619 0.000000 3.754334 4.896989 0.000000 9.102697 0.143325 0.000000 3.711194 -1.062273 0.000000 8.811435 2.466470 0.000000 3.060819 0.587924 0.000000 8.472994 3.076890 0.000000 2.315169 2.099003 0.000000 8.103855 4.028533 0.000000 1.541014 4.020558 0.000000 7.463513 5.723212 0.000000 0.614313 6.771465 0.000000 6.074706 8.603508 0.000000 -0.929498 10.947185 0.000000 3.007164 13.186514 0.000000 -4.178878 17.049506 0.000000 -3.958575 19.402489 0.000000 -13.423464 23.011786 0.000000 -18.596274 25.271736 0.000000 -33.456166 19.400936 0.000000 -33.300479 17.342643 0.000000 -49.440419 0.202745 0.000000 -36.560428 -25.342738 0.000000 -25.273874 -41.110520 0.000000 3.654760 -30.670993 0.000000 0.601982 -22.837336 0.000000 12.787339 -18.381241 0.000000 5.609464 -12.912682 0.000000 13.283781 -11.882357 0.000000 7.124988 -9.893550 0.000000 14.783933 -8.668351 0.000000 8.065777 -7.277385 0.000000 15.282362 -6.175132 0.000000 8.156722 -5.677789 0.000000 16.311805 -4.751912 0.000000 9.086966 -3.705649 0.000000 16.795753 -2.950909 0.000000 9.338337 -1.888478 0.000000 16.658732 -1.453992 0.000000 9.154740 -0.511242 0.000000 16.255021 -0.299841 0.000000 8.699395 0.478222 0.000000 15.581607 0.489868 0.000000 8.059591 1.174255 0.000000 14.772881 0.940366 0.000000 7.315339 1.498231 0.000000 13.859974 0.996132 0.000000 6.585828 1.348043 0.000000 13.145621 0.691907 0.000000 6.192621 0.885495 0.000000 13.149639 0.366504 0.000000 6.251523 0.894920 0.000000 13.063491 0.437029 0.000000 6.165458 1.183586 0.000000 12.736610 0.680275 0.000000 5.891519 1.547496 0.000000 12.271629 0.950119 0.000000 5.516620 1.919139 0.000000 11.748042 1.214044 0.000000 5.083438 2.317546 0.000000 11.194665 1.503032 0.000000 4.603191 2.800851 0.000000 
11.098087 2.458221 0.000000 4.540516 4.160801 0.000000 10.535147 2.667407 0.000000 4.379724 5.638664 0.000000 9.905491 0.191953 0.000000 4.344873 -0.330619 0.000000 9.856935 3.346957 0.000000 4.051132 1.418335 0.000000 9.897423 4.048601 0.000000 3.801814 3.025072 0.000000 10.130178 5.005450 0.000000 3.760175 5.126033 0.000000 10.521313 6.603798 0.000000 4.003321 8.131530 0.000000 10.782247 9.310493 0.000000 4.074755 12.584761 0.000000 9.911073 13.849570 0.000000 1.945308 19.482002 0.000000 3.536431 23.182590 0.000000 -3.194902 28.960284 0.000000 -12.736123 35.164343 0.000000 -34.427870 24.226424 0.000000 -38.375736 20.591872 0.000000 -60.553284 -2.659165 0.000000 -36.036756 -41.267218 0.000000 -11.869916 -67.914908 0.000000 17.122835 -50.557290 0.000000 6.724116 -30.301399 0.000000 16.279407 -22.802256 0.000000 6.910990 -14.426023 0.000000 12.150631 -13.826780 0.000000 6.303035 -11.557972 0.000000 13.880575 -9.538419 0.000000 7.404176 -7.608173 0.000000 14.308377 -6.018969 0.000000 7.499834 -6.188800 0.000000 16.119739 -5.208931 0.000000 9.007219 -3.801178 0.000000 16.798928 -2.872094 0.000000 9.318581 -1.551998 0.000000 16.642360 -1.065442 0.000000 9.178237 -0.028710 0.000000 16.219385 0.254616 0.000000 8.653118 1.158363 0.000000 15.574928 1.146922 0.000000 7.974036 1.858157 0.000000 14.670160 1.640279 0.000000 7.092259 2.214383 0.000000 13.544912 1.704655 0.000000 6.204240 1.946857 0.000000 12.698665 1.197634 0.000000 5.861135 0.960055 0.000000 13.027831 0.561634 0.000000 6.125171 1.096531 0.000000 13.138074 0.779974 0.000000 6.143581 1.593777 0.000000 12.923777 1.175104 0.000000 5.918652 2.053560 0.000000 12.533015 1.512347 0.000000 5.581094 2.457957 0.000000 12.079532 1.803975 0.000000 5.209957 2.877429 0.000000 11.603726 2.115559 0.000000 4.842464 3.393250 0.000000 
11.348783 2.136466 0.000000 4.532433 4.080916 0.000000 10.835467 2.217411 0.000000 4.342720 5.526644 0.000000 10.275100 0.178177 0.000000 4.289478 -1.013718 0.000000 10.146968 2.760211 0.000000 3.921169 0.547437 0.000000 10.100701 3.326208 0.000000 3.512655 1.866248 0.000000 10.225658 4.070172 0.000000 3.207177 3.629423 0.000000 10.483930 5.480066 0.000000 3.294969 6.510531 0.000000 10.532339 8.532074 0.000000 3.954582 11.818360 0.000000 9.823723 15.315961 0.000000 5.211511 23.424148 0.000000 7.636846 24.542698 0.000000 1.411008 39.284339 0.000000 -32.202959 56.504704 0.000000 -26.304149 45.040549 0.000000 -5.313367 43.468057 0.000000 11.921613 -2.136236 0.000000 44.498365 -74.026106 0.000000 41.826019 -94.270111 0.000000 45.731207 -49.265026 0.000000 28.884136 -21.993908 0.000000 28.800693 -18.568115 0.000000 15.431680 -8.783906 0.000000 16.089115 -11.274402 0.000000 11.461090 -11.623494 0.000000 18.718273 -9.769492 0.000000 11.683444 -7.705187 0.000000 16.628716 -6.270790 0.000000 9.009264 -7.489151 0.000000 18.658417 -6.259297 0.000000 11.435388 -4.384838 0.000000 19.089988 -3.262271 0.000000 11.125502 -1.731910 0.000000 18.155574 -1.313648 0.000000 10.499677 -0.088267 0.000000 17.449403 0.225278 0.000000 9.542271 1.122678 0.000000 16.308990 1.168950 0.000000 8.514362 2.079024 0.000000 15.128541 1.822143 0.000000 7.412860 2.623479 0.000000 13.640154 1.884151 0.000000 6.032718 2.194290 0.000000 12.155237 1.035013 0.000000 5.545065 0.556328 0.000000 13.289990 0.102468 0.000000 6.465799 0.784678 0.000000 13.568346 0.418619 0.000000 6.463735 1.397884 0.000000 13.219247 0.905204 0.000000 6.071914 1.938258 0.000000 12.736677 1.287676 0.000000 5.628849 2.372621 0.000000 12.264488 1.585182 0.000000 5.211875 2.793353 0.000000 11.811767 1.870524 0.000000 4.832580 3.306490 0.000000 
11.784468 2.758367 0.000000 4.859938 4.674117 0.000000 11.363397 2.857120 0.000000 4.825714 6.199032 0.000000 10.967448 0.245195 0.000000 4.781213 -0.202486 0.000000 11.013156 3.715266 0.000000 4.752834 1.464602 0.000000 11.279938 4.457116 0.000000 4.843199 2.900115 0.000000 11.979449 5.310928 0.000000 5.267934 4.867761 0.000000 13.481731 6.516006 0.000000 6.687361 8.083121 0.000000 16.206114 8.650880 0.000000 10.230207 13.293378 0.000000 21.893352 12.592641 0.000000 14.947906 21.668878 0.000000 20.302722 26.983094 0.000000 11.502704 68.800088 0.000000 -5.712636 62.879500 0.000000 42.881191 -2.663169 0.000000 103.559260 -17.633890 0.000000 143.554078 -52.470897 0.000000 157.469058 -71.171624 0.000000 118.153432 -69.147751 0.000000 71.617965 -37.615407 0.000000 26.865837 -13.370884 0.000000 27.399857 -9.349801 0.000000 14.556583 -1.714445 0.000000 8.999064 -9.856191 0.000000 7.801028 -14.187131 0.000000 17.638745 -9.760772 0.000000 10.974715 -5.518615 0.000000 14.380451 -3.344789 0.000000 7.581963 -8.218501 0.000000 19.224715 -7.635056 0.000000 11.788442 -4.232749 0.000000 19.445732 -2.562208 0.000000 11.335993 -0.617584 0.000000 18.275191 -0.439617 0.000000 10.724215 0.677461 0.000000 17.430850 1.212021 0.000000 9.474945 2.298776 0.000000 16.542941 2.174831 0.000000 8.662009 3.038606 0.000000 15.211149 2.741782 0.000000 7.067616 3.702770 0.000000 13.157154 3.084797 0.000000 5.448971 3.431774 0.000000 11.028122 1.685287 0.000000 4.956322 -0.174698 0.000000 13.263391 -0.359100 0.000000 6.371433 0.818175 0.000000 13.761719 0.782038 0.000000 6.516693 1.942876 0.000000 13.479329 1.566925 0.000000 6.140898 2.536130 0.000000 13.019859 1.955412 0.000000 5.707013 2.930146 0.000000 12.582622 2.220950 0.000000 5.332830 3.330150 0.000000 12.180906 2.494854 0.000000 5.035665 3.856235 0.000000 
12.024528 2.312194 0.000000 4.912214 4.501987 0.000000 11.658156 2.251634 0.000000 4.867201 5.922593 0.000000 11.350795 0.222679 0.000000 4.807644 -1.059425 0.000000 11.370214 2.788589 0.000000 4.760333 0.280654 0.000000 11.616361 3.235843 0.000000 4.749503 1.166737 0.000000 12.297899 3.645437 0.000000 4.783537 2.127140 0.000000 13.777456 4.060639 0.000000 5.346725 3.786148 0.000000 16.014253 4.989228 0.000000 8.902329 6.131121 0.000000 18.553011 10.598262 0.000000 8.695967 25.014778 0.000000 57.699567 27.987900 0.000000 44.682738 65.299697 0.000000 43.213842 25.126217 0.000000 80.356338 -64.231348 0.000000 132.878204 -57.204829 0.000000 178.061725 -56.046033 0.000000 245.840733 -48.625460 0.000000 183.200131 -8.419018 0.000000 86.414996 42.022569 0.000000 42.665133 22.224199 0.000000 39.308010 -6.258861 0.000000 17.134617 9.616888 0.000000 4.991181 -4.518847 0.000000 11.878606 -20.263176 0.000000 27.091949 -12.943179 0.000000 18.400783 -4.446893 0.000000 14.063271 -2.878038 0.000000 5.250631 -12.333415 0.000000 22.761157 -10.465776 0.000000 16.041322 -4.605855 0.000000 22.791266 -2.809821 0.000000 13.353097 -0.561369 0.000000 19.550640 -0.701871 0.000000 12.519423 0.756075 0.000000 18.909831 1.474549 0.000000 10.116913 2.010587 0.000000 17.199278 1.981885 0.000000 9.224556 3.410816 0.000000 15.961143 3.416536 0.000000 7.504008 4.677474 0.000000 13.248155 3.502797 0.000000 4.459333 4.323321 0.000000 8.756255 1.527661 0.000000 3.805063 -1.678940 0.000000 14.228526 -1.312643 0.000000 7.515510 0.286349 0.000000 14.560553 0.273359 0.000000 7.007549 1.680274 0.000000 13.798057 1.281000 0.000000 6.256077 2.397728 0.000000 13.195639 1.721562 0.000000 5.727243 2.809858 0.000000 12.747545 1.959365 0.000000 5.344526 3.195069 0.000000 12.376073 2.167689 0.000000 5.064798 3.702927 0.000000 
12.378757 2.910951 0.000000 5.104928 5.040489 0.000000 12.086863 2.902134 0.000000 5.114659 6.506393 0.000000 11.903713 0.304752 0.000000 5.064104 -0.221906 0.000000 11.963730 3.762578 0.000000 5.214005 1.218456 0.000000 12.289959 4.467945 0.000000 5.626112 2.218576 0.000000 13.096893 5.276894 0.000000 6.515325 3.388204 0.000000 15.030397 5.952818 0.000000 8.318722 5.846324 0.000000 20.067174 5.095276 0.000000 14.596335 10.754620 0.000000 25.613963 12.799003 0.000000 51.353376 -17.477677 0.000000 80.657307 -9.003677 0.000000 33.017920 83.285813 0.000000 105.329564 27.205900 0.000000 108.644754 -92.327530 0.000000 176.458157 -115.339277 0.000000 145.590863 -165.433426 0.000000 87.878773 -76.310030 0.000000 17.043789 90.277986 0.000000 -8.214816 102.919591 0.000000 3.202156 33.736102 0.000000 32.085269 16.180715 0.000000 14.790108 32.602384 0.000000 9.152199 -4.600180 0.000000 17.824150 -36.287898 0.000000 34.208928 -16.282948 0.000000 20.542573 7.510062 0.000000 8.263919 9.805363 0.000000 7.271916 -16.916386 0.000000 28.605517 -18.425747 0.000000 19.383933 -4.262858 0.000000 23.579976 0.126018 0.000000 13.497655 2.623041 0.000000 19.271556 0.394057 0.000000 12.521519 1.318269 0.000000 18.691466 3.614531 0.000000 10.308010 4.009329 0.000000 17.547701 3.067188 0.000000 10.222681 4.276741 0.000000 16.355798 4.462330 0.000000 7.339103 6.415758 0.000000 13.036778 6.129472 0.000000 3.874426 7.923675 0.000000 4.447024 2.339558 0.000000 3.159325 -5.646969 0.000000 15.720402 -4.069548 0.000000 8.629117 0.486148 0.000000 15.248880 1.289999 0.000000 7.303892 2.705372 0.000000 14.174331 2.318397 0.000000 6.347067 3.138548 0.000000 13.500140 2.484246 0.000000 5.800661 3.378239 0.000000 13.042592 2.603667 0.000000 5.435754 3.701622 0.000000 12.689208 2.774583 0.000000 5.196524 4.207779 0.000000 