# vtk DataFile Version 2.0
Comment goes here
ASCII

DATASET STRUCTURED_POINTS
FIELD FieldData 1
TIME 1 1 double
0.00100000
DIMENSIONS    64   64   1

ORIGIN    0.000   0.000   0.000
SPACING   0.03125 0.03125   1.000

POINT_DATA   4096
SCALARS uX double
LOOKUP_TABLE default

-6.197338e-03 2.456234e-02 -2.390787e-02 3.106881e-02 -2.079475e-02 2.768621e-02 -2.161578e-02 2.229790e-02 -1.111212e-02 9.628675e-03 -2.251860e-03 2.352590e-03 7.636254e-04 6.834844e-05 1.216258e-03 -1.894024e-03 2.256125e-03 -3.506215e-03 2.619383e-03 -4.794653e-03 2.986422e-03 -5.768702e-03 3.280002e-03 -6.452896e-03 3.427083e-03 -6.967068e-03 3.577334e-03 -7.344035e-03 3.761427e-03 -7.641026e-03 3.876544e-03 -7.848365e-03 3.954595e-03 -7.965940e-03 3.982512e-03 -8.031144e-03 3.993894e-03 -8.025211e-03 3.965148e-03 -7.973818e-03 3.916900e-03 -7.857810e-03 3.862115e-03 -7.668984e-03 3.748536e-03 -7.394322e-03 3.601254e-03 -6.989151e-03 3.442767e-03 -6.498521e-03 3.221622e-03 -5.803501e-03 2.912701e-03 -4.964910e-03 2.414789e-03 -3.902867e-03 1.806698e-03 -2.665171e-03 8.070329e-04 -4.145363e-04 -1.427548e-03 1.463001e-03 -2.591290e-03 2.741243e-03 
-9.158953e-03 1.550428e-02 -2.197823e-02 2.556166e-02 -3.210422e-02 2.555849e-02 -2.052817e-02 1.351460e-02 -1.196164e-02 6.400835e-03 -5.266290e-03 1.489612e-03 -1.775026e-03 -7.485820e-04 6.959447e-05 -2.133780e-03 1.628264e-03 -3.183387e-03 2.790860e-03 -3.980885e-03 3.623970e-03 -4.634224e-03 4.128554e-03 -4.948281e-03 4.633847e-03 -5.270877e-03 5.051637e-03 -5.538581e-03 5.337487e-03 -5.734435e-03 5.551054e-03 -5.834521e-03 5.655834e-03 -5.913968e-03 5.778541e-03 -5.976870e-03 5.810175e-03 -5.976606e-03 5.752943e-03 -5.892830e-03 5.646597e-03 -5.816182e-03 5.515814e-03 -5.760911e-03 5.377090e-03 -5.554496e-03 5.089879e-03 -5.281937e-03 4.686791e-03 -4.932946e-03 4.274941e-03 -4.488999e-03 3.696283e-03 -3.876977e-03 2.913316e-03 -3.075487e-03 1.881173e-03 -2.036292e-03 4.935006e-04 -2.928703e-04 -1.425484e-03 2.014421e-03 -3.502500e-03 4.478028e-03 
-5.375886e-03 5.967264e-04 -6.764234e-03 3.919900e-03 -1.637182e-02 5.626113e-03 -7.275238e-03 8.124522e-04 -4.512749e-03 1.842293e-03 -2.086816e-03 1.393321e-03 8.643365e-04 2.375125e-04 3.503062e-03 -2.873302e-04 5.212163e-03 -6.380503e-04 6.689211e-03 -8.474142e-04 7.733189e-03 -1.035539e-03 8.486921e-03 -1.164705e-03 9.168750e-03 -1.277696e-03 9.681781e-03 -1.383162e-03 1.001391e-02 -1.446969e-03 1.027651e-02 -1.484010e-03 1.044827e-02 -1.522647e-03 1.056865e-02 -1.540544e-03 1.060139e-02 -1.543792e-03 1.056788e-02 -1.514461e-03 1.045840e-02 -1.484181e-03 1.026949e-02 -1.449714e-03 1.003452e-02 -1.373394e-03 9.681936e-03 -1.292249e-03 9.184839e-03 -1.148028e-03 8.578455e-03 -1.004422e-03 7.794982e-03 -7.775358e-04 6.810869e-03 -4.763447e-04 5.495925e-03 -1.136766e-06 3.849575e-03 4.984065e-04 2.120875e-03 1.753356e-03 -8.602829e-04 4.034592e-03 
-5.867221e-03 -3.983507e-03 -7.318160e-03 -9.731340e-03 -1.566802e-02 -9.775233e-03 -8.709590e-03 -2.444144e-03 -4.127338e-03 1.524177e-04 -1.207474e-03 1.508684e-03 1.965034e-03 1.412847e-03 4.771850e-03 1.205166e-03 6.693963e-03 1.074624e-03 8.196888e-03 9.929991e-04 9.354315e-03 9.805892e-04 1.031692e-02 8.528430e-04 1.101414e-02 7.918404e-04 1.153891e-02 7.620909e-04 1.194006e-02 7.465505e-04 1.223119e-02 7.095410e-04 1.245735e-02 6.909993e-04 1.255163e-02 6.986790e-04 1.258812e-02 7.017096e-04 1.256760e-02 6.848187e-04 1.246302e-02 7.036504e-04 1.226136e-02 7.676206e-04 1.194076e-02 7.770080e-04 1.154770e-02 8.035893e-04 1.103609e-02 8.611141e-04 1.030918e-02 9.302879e-04 9.398445e-03 9.922254e-04 8.237379e-03 1.078638e-03 6.728876e-03 1.224200e-03 4.758331e-03 1.147986e-03 2.162061e-03 1.084279e-03 -1.986423e-03 1.720964e-03 
-2.311697e-03 -3.294752e-03 -5.029674e-03 -6.929361e-03 -1.391678e-02 -6.952249e-03 -5.688342e-03 -2.522085e-03 -1.341460e-03 -5.256139e-04 1.235234e-03 7.036493e-04 3.732849e-03 9.173153e-04 5.975266e-03 8.984579e-04 7.651657e-03 8.727310e-04 8.976892e-03 8.491958e-04 1.001850e-02 8.490685e-04 1.086647e-02 7.841937e-04 1.150200e-02 7.447200e-04 1.198630e-02 7.227769e-04 1.235458e-02 7.083058e-04 1.262148e-02 6.845540e-04 1.281720e-02 6.715794e-04 1.291349e-02 6.727079e-04 1.294848e-02 6.737090e-04 1.292256e-02 6.669163e-04 1.282174e-02 6.805211e-04 1.263705e-02 7.169828e-04 1.235336e-02 7.270198e-04 1.198804e-02 7.461507e-04 1.151022e-02 7.784830e-04 1.086125e-02 8.165477e-04 1.004401e-02 8.464965e-04 9.009870e-03 8.828865e-04 7.693955e-03 9.252093e-04 6.022154e-03 8.235418e-04 3.859561e-03 6.329411e-04 7.495964e-04 3.777297e-04 
-1.133021e-03 -2.973206e-03 -3.111900e-03 -5.248049e-03 -6.039537e-03 -5.214952e-03 -3.322271e-03 -2.637599e-03 -5.937982e-04 -8.059889e-04 1.731209e-03 2.824157e-04 3.965574e-03 6.674614e-04 5.961807e-03 7.735614e-04 7.551909e-03 7.950950e-04 8.823553e-03 7.924322e-04 9.836533e-03 7.849619e-04 1.065212e-02 7.437089e-04 1.128145e-02 7.117260e-04 1.176353e-02 6.911365e-04 1.212977e-02 6.763432e-04 1.239918e-02 6.591834e-04 1.258862e-02 6.489267e-04 1.269130e-02 6.480571e-04 1.272667e-02 6.484082e-04 1.269795e-02 6.475543e-04 1.259596e-02 6.596145e-04 1.241152e-02 6.843692e-04 1.213570e-02 6.985536e-04 1.177011e-02 7.157976e-04 1.128995e-02 7.408090e-04 1.065546e-02 7.658936e-04 9.849995e-03 7.809103e-04 8.832400e-03 7.817264e-04 7.544434e-03 7.442738e-04 5.917779e-03 5.702754e-04 3.873087e-03 2.261772e-04 1.324266e-03 -4.976082e-04 
1.270847e-03 -2.437290e-03 -1.053074e-03 -3.920648e-03 -4.281060e-03 -3.908923e-03 -1.133683e-03 -2.290010e-03 1.587471e-03 -9.705945e-04 3.700193e-03 -7.300518e-05 5.570445e-03 3.498233e-04 7.216348e-03 5.305757e-04 8.564785e-03 6.139147e-04 9.660368e-03 6.542162e-04 1.054403e-02 6.740148e-04 1.125639e-02 6.654915e-04 1.181329e-02 6.538140e-04 1.224377e-02 6.446310e-04 1.257138e-02 6.366493e-04 1.281190e-02 6.269299e-04 1.297900e-02 6.206450e-04 1.307285e-02 6.192624e-04 1.310478e-02 6.191629e-04 1.307670e-02 6.191840e-04 1.298337e-02 6.262536e-04 1.281829e-02 6.393916e-04 1.257376e-02 6.464507e-04 1.224610e-02 6.533495e-04 1.181698e-02 6.607356e-04 1.125905e-02 6.633316e-04 1.055508e-02 6.521641e-04 9.674264e-03 6.190612e-04 8.576128e-03 5.387036e-04 7.213063e-03 3.422939e-04 5.524741e-03 -2.975998e-05 3.456247e-03 -7.547722e-04 
3.122982e-03 -2.162168e-03 2.042554e-03 -3.134023e-03 1.332010e-03 -3.123751e-03 2.054617e-03 -2.084866e-03 3.342986e-03 -1.021039e-03 4.760420e-03 -2.407187e-04 6.203904e-03 2.006587e-04 7.557412e-03 4.260576e-04 8.727732e-03 5.392236e-04 9.708290e-03 5.960819e-04 1.051551e-02 6.224237e-04 1.117286e-02 6.246349e-04 1.169529e-02 6.195201e-04 1.210324e-02 6.136350e-04 1.241556e-02 6.077394e-04 1.264636e-02 6.011560e-04 1.280585e-02 5.966943e-04 1.289752e-02 5.954318e-04 1.292853e-02 5.955083e-04 1.290077e-02 5.966163e-04 1.281055e-02 6.021313e-04 1.265229e-02 6.108979e-04 1.241965e-02 6.162984e-04 1.210638e-02 6.195179e-04 1.169740e-02 6.197375e-04 1.117205e-02 6.109008e-04 1.051304e-02 5.831913e-04 9.697215e-03 5.225508e-04 8.698165e-03 4.004273e-04 7.494831e-03 1.623344e-04 6.087957e-03 -2.521474e-04 4.543637e-03 -9.644864e-04 
4.991922e-03 -1.778962e-03 3.827490e-03 -2.439837e-03 2.993685e-03 -2.438210e-03 3.847246e-03 -1.758500e-03 5.124880e-03 -9.937822e-04 6.407644e-03 -3.749032e-04 7.632411e-03 2.441270e-05 8.754905e-03 2.601105e-04 9.730769e-03 3.981388e-04 1.055577e-02 4.797410e-04 1.124084e-02 5.272833e-04 1.180177e-02 5.499443e-04 1.225100e-02 5.604139e-04 1.260413e-02 5.652842e-04 1.287526e-02 5.667305e-04 1.307573e-02 5.658710e-04 1.321405e-02 5.648084e-04 1.329414e-02 5.645337e-04 1.332108e-02 5.644959e-04 1.329610e-02 5.644030e-04 1.321674e-02 5.659173e-04 1.307898e-02 5.678789e-04 1.287730e-02 5.660413e-04 1.260563e-02 5.600600e-04 1.225255e-02 5.477775e-04 1.180289e-02 5.238778e-04 1.124301e-02 4.797653e-04 1.055597e-02 4.024880e-04 9.723226e-03 2.682460e-04 8.729221e-03 3.668508e-05 7.570071e-03 -3.395099e-04 6.279767e-03 -9.297020e-04 
7.038720e-03 -1.576944e-03 6.826990e-03 -2.033132e-03 7.221238e-03 -2.030892e-03 6.865850e-03 -1.557107e-03 7.150768e-03 -9.526001e-04 7.763604e-03 -4.249136e-04 8.532225e-03 -5.016173e-05 9.336210e-03 1.907900e-04 1.009332e-02 3.396626e-04 1.076636e-02 4.302497e-04 1.134437e-02 4.840171e-04 1.182851e-02 5.128876e-04 1.222360e-02 5.280850e-04 1.253860e-02 5.361444e-04 1.278286e-02 5.398238e-04 1.296485e-02 5.410070e-04 1.309090e-02 5.412629e-04 1.316441e-02 5.414676e-04 1.318915e-02 5.415768e-04 1.316606e-02 5.412711e-04 1.309319e-02 5.413964e-04 1.296745e-02 5.407924e-04 1.278425e-02 5.362239e-04 1.253834e-02 5.262376e-04 1.222123e-02 5.077215e-04 1.182229e-02 4.747799e-04 1.133289e-02 4.184017e-04 1.074526e-02 3.248557e-04 1.005618e-02 1.725469e-04 9.275414e-03 -6.922211e-05 8.440256e-03 -4.326178e-04 7.639316e-03 -9.459842e-04 
8.589569e-03 -1.309025e-03 8.377400e-03 -1.633275e-03 8.737716e-03 -1.634461e-03 8.404118e-03 -1.311999e-03 8.657184e-03 -8.711439e-04 9.173110e-03 -4.572431e-04 9.796665e-03 -1.373789e-04 1.044010e-02 8.731691e-05 1.104762e-02 2.387910e-04 1.159111e-02 3.393270e-04 1.206180e-02 4.054339e-04 1.245886e-02 4.465893e-04 1.278481e-02 4.726135e-04 1.304647e-02 4.893615e-04 1.324981e-02 4.991179e-04 1.340171e-02 5.050153e-04 1.350732e-02 5.081840e-04 1.356859e-02 5.095682e-04 1.358929e-02 5.098837e-04 1.356988e-02 5.080146e-04 1.350850e-02 5.051336e-04 1.340359e-02 5.001652e-04 1.325084e-02 4.897753e-04 1.304654e-02 4.730713e-04 1.278472e-02 4.464359e-04 1.245694e-02 4.046358e-04 1.205809e-02 3.405299e-04 1.158339e-02 2.428777e-04 1.103158e-02 9.510547e-05 1.041051e-02 -1.242911e-04 9.746538e-03 -4.352599e-04 9.100811e-03 -8.455437e-04 
1.056556e-02 -1.166495e-03 1.100542e-02 -1.401236e-03 1.203805e-02 -1.400795e-03 1.103681e-02 -1.160076e-03 1.063067e-02 -8.073494e-04 1.061103e-02 -4.561775e-04 1.082519e-02 -1.671815e-04 1.116189e-02 4.760320e-05 1.154299e-02 1.983888e-04 1.191947e-02 3.012383e-04 1.226711e-02 3.705082e-04 1.257320e-02 4.148141e-04 1.283200e-02 4.437885e-04 1.304471e-02 4.630341e-04 1.321242e-02 4.744044e-04 1.333929e-02 4.817856e-04 1.342847e-02 4.858829e-04 1.348008e-02 4.875989e-04 1.349761e-02 4.880600e-04 1.348112e-02 4.854949e-04 1.342870e-02 4.813907e-04 1.334006e-02 4.746512e-04 1.321156e-02 4.615668e-04 1.304149e-02 4.414866e-04 1.282690e-02 4.101303e-04 1.256299e-02 3.620946e-04 1.225098e-02 2.907788e-04 1.189475e-02 1.859217e-04 1.150586e-02 3.412502e-05 1.111039e-02 -1.791527e-04 1.075832e-02 -4.631149e-04 1.053463e-02 -8.098755e-04 
1.188813e-02 -9.783261e-04 1.235483e-02 -1.152316e-03 1.339192e-02 -1.153600e-03 1.237433e-02 -9.838882e-04 1.192664e-02 -7.215546e-04 1.183096e-02 -4.455493e-04 1.194105e-02 -2.040025e-04 1.216122e-02 -1.225432e-05 1.242851e-02 1.303822e-04 1.269924e-02 2.333429e-04 1.295641e-02 3.085369e-04 1.318705e-02 3.583660e-04 1.338293e-02 3.940896e-04 1.354712e-02 4.204309e-04 1.367580e-02 4.353645e-04 1.377398e-02 4.468884e-04 1.384493e-02 4.533444e-04 1.388363e-02 4.556712e-04 1.389760e-02 4.574563e-04 1.388562e-02 4.526380e-04 1.384381e-02 4.464372e-04 1.377603e-02 4.378729e-04 1.367591e-02 4.198230e-04 1.354499e-02 3.960135e-04 1.338284e-02 3.602585e-04 1.318204e-02 3.076989e-04 1.294903e-02 2.348399e-04 1.268792e-02 1.333864e-04 1.240918e-02 -6.411471e-06 1.213471e-02 -1.936945e-04 1.190474e-02 -4.316922e-04 1.178736e-02 -7.081825e-04 
1.368347e-02 -8.779243e-04 1.459105e-02 -1.009004e-03 1.602963e-02 -1.008886e-03 1.461266e-02 -8.750496e-04 1.372407e-02 -6.605479e-04 1.322465e-02 -4.252682e-04 1.299564e-02 -2.099908e-04 1.294318e-02 -3.158418e-05 1.299727e-02 1.050520e-04 1.310142e-02 2.058070e-04 1.323141e-02 2.819639e-04 1.336517e-02 3.320726e-04 1.348649e-02 3.692210e-04 1.359581e-02 3.977995e-04 1.368285e-02 4.129744e-04 1.375140e-02 4.258480e-04 1.380363e-02 4.328842e-04 1.382982e-02 4.349851e-04 1.384010e-02 4.375694e-04 1.383209e-02 4.312579e-04 1.380045e-02 4.240201e-04 1.375252e-02 4.148547e-04 1.368042e-02 3.939051e-04 1.358917e-02 3.680114e-04 1.348190e-02 3.292181e-04 1.335178e-02 2.726888e-04 1.321328e-02 1.966965e-04 1.307690e-02 9.392645e-05 1.296212e-02 -4.281618e-05 1.290194e-02 -2.183982e-04 1.294800e-02 -4.308108e-04 1.317531e-02 -6.639040e-04 
1.482078e-02 -7.437853e-04 1.576185e-02 -8.446358e-04 1.721866e-02 -8.455780e-04 1.577461e-02 -7.483953e-04 1.484409e-02 -5.856381e-04 1.428305e-02 -3.993989e-04 1.397536e-02 -2.208283e-04 1.383522e-02 -6.271428e-05 1.380597e-02 6.164957e-05 1.382094e-02 1.551257e-04 1.387754e-02 2.370047e-04 1.395000e-02 2.842485e-04 1.401274e-02 3.249482e-04 1.408328e-02 3.629076e-04 1.413231e-02 3.750211e-04 1.417347e-02 3.938289e-04 1.421480e-02 4.026338e-04 1.422339e-02 4.023161e-04 1.423186e-02 4.116314e-04 1.423119e-02 3.986438e-04 1.420510e-02 3.901040e-04 1.418079e-02 3.850655e-04 1.413180e-02 3.556304e-04 1.407468e-02 3.309003e-04 1.401961e-02 2.908852e-04 1.393935e-02 2.310609e-04 1.386808e-02 1.577440e-04 1.381006e-02 6.223906e-05 1.378249e-02 -6.044315e-05 1.381439e-02 -2.123826e-04 1.395037e-02 -3.896301e-04 1.425574e-02 -5.771667e-04 
1.640196e-02 -6.722960e-04 1.764571e-02 -7.507518e-04 1.935823e-02 -7.506784e-04 1.766014e-02 -6.706887e-04 1.642832e-02 -5.345263e-04 1.556787e-02 -3.743584e-04 1.498956e-02 -2.159305e-04 1.461792e-02 -7.022490e-05 1.439904e-02 4.637295e-05 1.425755e-02 1.349737e-04 1.419128e-02 2.169214e-04 1.416751e-02 2.620904e-04 1.415299e-02 3.030046e-04 1.416692e-02 3.431950e-04 1.417103e-02 3.538456e-04 1.417983e-02 3.741903e-04 1.420170e-02 3.832631e-04 1.419547e-02 3.818877e-04 1.420013e-02 3.930631e-04 1.420431e-02 3.777171e-04 1.418851e-02 3.683526e-04 1.418680e-02 3.640026e-04 1.416772e-02 3.311873e-04 1.415288e-02 3.059943e-04 1.415684e-02 2.646001e-04 1.414896e-02 2.027459e-04 1.417346e-02 1.293916e-04 1.423745e-02 3.590371e-05 1.436377e-02 -8.091770e-05 1.458726e-02 -2.208122e-04 1.495642e-02 -3.778243e-04 1.553514e-02 -5.370031e-04 
1.737740e-02 -5.750140e-04 1.865315e-02 -6.373508e-04 2.038670e-02 -6.379939e-04 1.866137e-02 -5.784754e-04 1.739205e-02 -4.732043e-04 1.648179e-02 -3.455811e-04 1.584214e-02 -2.171986e-04 1.539831e-02 -1.067649e-04 1.508455e-02 -3.544086e-06 1.490100e-02 8.850288e-05 1.476807e-02 1.431830e-04 1.467597e-02 2.121762e-04 1.463474e-02 2.536522e-04 1.459010e-02 2.692216e-04 1.458063e-02 3.079796e-04 1.457277e-02 3.159502e-04 1.454778e-02 3.262133e-04 1.456326e-02 3.393247e-04 1.455842e-02 3.230157e-04 1.454878e-02 3.350576e-04 1.456459e-02 3.252565e-04 1.455818e-02 2.931549e-04 1.457937e-02 2.867288e-04 1.460230e-02 2.488433e-04 1.461713e-02 2.090829e-04 1.468767e-02 1.679151e-04 1.477387e-02 1.028362e-04 1.490176e-02 1.826907e-05 1.509634e-02 -8.521712e-05 1.538999e-02 -2.057618e-04 1.582660e-02 -3.372777e-04 1.646445e-02 -4.670679e-04 
1.874350e-02 -5.235045e-04 2.023161e-02 -5.732544e-04 2.213607e-02 -5.731789e-04 2.024136e-02 -5.225008e-04 1.876119e-02 -4.325113e-04 1.762894e-02 -3.217100e-04 1.677681e-02 -2.091485e-04 1.613991e-02 -1.168863e-04 1.564916e-02 -2.144874e-05 1.533845e-02 7.079051e-05 1.508865e-02 1.113516e-04 1.489717e-02 1.902536e-04 1.479103e-02 2.308645e-04 1.467877e-02 2.339185e-04 1.463275e-02 2.850178e-04 1.459517e-02 2.865130e-04 1.453331e-02 2.967845e-04 1.455021e-02 3.162356e-04 1.453779e-02 2.866745e-04 1.452398e-02 3.112080e-04 1.456246e-02 3.008623e-04 1.456772e-02 2.553761e-04 1.462845e-02 2.608416e-04 1.469777e-02 2.164074e-04 1.475610e-02 1.766579e-04 1.491376e-02 1.443027e-04 1.509413e-02 8.222019e-05 1.533565e-02 1.214794e-06 1.566827e-02 -9.594552e-05 1.612689e-02 -2.061073e-04 1.675528e-02 -3.226696e-04 1.760687e-02 -4.339868e-04 
1.957121e-02 -4.518521e-04 2.108667e-02 -4.924792e-04 2.301037e-02 -4.928982e-04 2.109211e-02 -4.543082e-04 1.958094e-02 -3.831234e-04 1.840994e-02 -2.925237e-04 1.751310e-02 -1.956206e-04 1.683134e-02 -1.023812e-04 1.631535e-02 -1.632994e-05 1.593046e-02 5.925161e-05 1.564000e-02 1.208743e-04 1.542148e-02 1.744043e-04 1.526016e-02 2.156436e-04 1.513843e-02 2.458371e-04 1.505154e-02 2.717314e-04 1.498922e-02 2.882803e-04 1.494528e-02 2.994610e-04 1.492346e-02 3.057585e-04 1.491519e-02 3.041898e-04 1.492142e-02 3.010701e-04 1.494631e-02 2.902674e-04 1.498648e-02 2.713055e-04 1.504997e-02 2.492918e-04 1.513803e-02 2.172512e-04 1.525610e-02 1.772924e-04 1.542035e-02 1.286803e-04 1.563796e-02 6.741694e-05 1.592678e-02 -6.781489e-06 1.631113e-02 -9.293194e-05 1.682261e-02 -1.881687e-04 1.750158e-02 -2.866497e-04 1.839805e-02 -3.788122e-04 
2.073356e-02 -4.144799e-04 2.240117e-02 -4.475783e-04 2.444333e-02 -4.474741e-04 2.240801e-02 -4.136248e-04 2.074613e-02 -3.513097e-04 1.940988e-02 -2.708232e-04 1.834886e-02 -1.820688e-04 1.751574e-02 -8.880103e-05 1.687510e-02 -8.125745e-06 1.635844e-02 5.829236e-05 1.596970e-02 1.296869e-04 1.567457e-02 1.695298e-04 1.543520e-02 2.102336e-04 1.526935e-02 2.533351e-04 1.513176e-02 2.658044e-04 1.503480e-02 2.893120e-04 1.498467e-02 3.004076e-04 1.493428e-02 2.996043e-04 1.492484e-02 3.117265e-04 1.494354e-02 2.942410e-04 1.496965e-02 2.828009e-04 1.504161e-02 2.767908e-04 1.512744e-02 2.404065e-04 1.525368e-02 2.139983e-04 1.543972e-02 1.732109e-04 1.565588e-02 1.155876e-04 1.595365e-02 5.397212e-05 1.634277e-02 -1.731863e-05 1.684674e-02 -9.797105e-05 1.749677e-02 -1.850006e-04 1.833094e-02 -2.727587e-04 1.939357e-02 -3.527687e-04 
2.142274e-02 -3.611023e-04 2.311196e-02 -3.887932e-04 2.516981e-02 -3.890464e-04 2.311575e-02 -3.627367e-04 2.142966e-02 -3.124586e-04 2.006391e-02 -2.457713e-04 1.896897e-02 -1.703803e-04 1.809860e-02 -9.123218e-05 1.741421e-02 -1.906887e-05 1.686548e-02 4.395786e-05 1.643975e-02 1.057823e-04 1.610907e-02 1.488533e-04 1.584598e-02 1.886052e-04 1.565112e-02 2.257996e-04 1.549765e-02 2.448282e-04 1.538728e-02 2.654445e-04 1.531958e-02 2.770574e-04 1.527011e-02 2.800585e-04 1.525720e-02 2.859176e-04 1.527460e-02 2.746869e-04 1.531273e-02 2.633608e-04 1.539068e-02 2.515362e-04 1.549575e-02 2.218822e-04 1.564375e-02 1.930851e-04 1.584791e-02 1.536625e-04 1.609966e-02 1.020973e-04 1.643083e-02 4.493324e-05 1.685627e-02 -1.987941e-05 1.739878e-02 -9.155957e-05 1.808774e-02 -1.673304e-04 1.895907e-02 -2.423391e-04 2.005497e-02 -3.096779e-04 
2.239601e-02 -3.340669e-04 2.419617e-02 -3.570316e-04 2.633838e-02 -3.568962e-04 2.420121e-02 -3.332159e-04 2.240543e-02 -2.882810e-04 2.091561e-02 -2.282058e-04 1.969299e-02 -1.595037e-04 1.869909e-02 -8.769312e-05 1.789791e-02 -2.012777e-05 1.725052e-02 4.081331e-05 1.673583e-02 9.718572e-05 1.632862e-02 1.414336e-04 1.600586e-02 1.801200e-04 1.575805e-02 2.136371e-04 1.556691e-02 2.355470e-04 1.542761e-02 2.541235e-04 1.533548e-02 2.655149e-04 1.527739e-02 2.700433e-04 1.525936e-02 2.721728e-04 1.527843e-02 2.637831e-04 1.533098e-02 2.520542e-04 1.542625e-02 2.366730e-04 1.556222e-02 2.099902e-04 1.574978e-02 1.793218e-04 1.599994e-02 1.399392e-04 1.631637e-02 9.086495e-05 1.672183e-02 3.539980e-05 1.723503e-02 -2.648966e-05 1.787915e-02 -9.361850e-05 1.868251e-02 -1.631641e-04 1.967812e-02 -2.305944e-04 2.090292e-02 -2.898481e-04 
2.295282e-02 -2.940847e-04 2.476864e-02 -3.137460e-04 2.692241e-02 -3.138839e-04 2.477143e-02 -2.951350e-04 2.295803e-02 -2.582042e-04 2.144706e-02 -2.077239e-04 2.020029e-02 -1.488983e-04 1.917989e-02 -8.655856e-05 1.835048e-02 -2.613544e-05 1.767750e-02 2.986478e-05 1.713720e-02 8.141835e-05 1.670608e-02 1.244063e-04 1.636358e-02 1.617142e-04 1.609739e-02 1.933989e-04 1.589275e-02 2.163354e-04 1.574267e-02 2.344676e-04 1.564138e-02 2.461163e-04 1.558020e-02 2.514988e-04 1.556059e-02 2.526865e-04 1.558075e-02 2.458662e-04 1.563935e-02 2.344848e-04 1.574209e-02 2.183316e-04 1.589051e-02 1.936140e-04 1.609332e-02 1.636761e-04 1.636039e-02 1.263025e-04 1.669955e-02 8.111334e-05 1.712942e-02 3.009870e-05 1.766869e-02 -2.610907e-05 1.833999e-02 -8.609563e-05 1.917051e-02 -1.472529e-04 2.019198e-02 -2.056971e-04 2.144003e-02 -2.564566e-04 
2.375141e-02 -2.749067e-04 2.564914e-02 -2.914999e-04 2.786412e-02 -2.913434e-04 2.565301e-02 -2.740629e-04 2.375876e-02 -2.403939e-04 2.215413e-02 -1.942167e-04 2.080839e-02 -1.400481e-04 1.968973e-02 -8.234379e-05 1.876692e-02 -2.550887e-05 1.800989e-02 2.790238e-05 1.739448e-02 7.680293e-05 1.689823e-02 1.188981e-04 1.650156e-02 1.551748e-04 1.619009e-02 1.855399e-04 1.595022e-02 2.086231e-04 1.577324e-02 2.261164e-04 1.565224e-02 2.374817e-04 1.558047e-02 2.428811e-04 1.555677e-02 2.431316e-04 1.557982e-02 2.366638e-04 1.564960e-02 2.249592e-04 1.577020e-02 2.078507e-04 1.594539e-02 1.835596e-04 1.618330e-02 1.533561e-04 1.649388e-02 1.163565e-04 1.688783e-02 7.253360e-05 1.738228e-02 2.325243e-05 1.799636e-02 -3.042051e-05 1.875234e-02 -8.684815e-05 1.967597e-02 -1.434416e-04 2.079614e-02 -1.966054e-04 2.214397e-02 -2.419608e-04 
2.417988e-02 -2.450326e-04 2.608736e-02 -2.595881e-04 2.830968e-02 -2.596515e-04 2.608952e-02 -2.457164e-04 2.418398e-02 -2.175009e-04 2.256602e-02 -1.780232e-04 2.120521e-02 -1.309314e-04 2.007018e-02 -7.996945e-05 1.913033e-02 -2.877989e-05 1.835684e-02 2.021772e-05 1.772549e-02 6.561940e-05 1.721445e-02 1.056392e-04 1.680488e-02 1.404459e-04 1.648212e-02 1.697463e-04 1.623328e-02 1.926469e-04 1.604928e-02 2.099738e-04 1.592307e-02 2.214415e-04 1.584871e-02 2.271338e-04 1.582422e-02 2.274633e-04 1.584846e-02 2.216068e-04 1.592182e-02 2.103805e-04 1.604784e-02 1.936918e-04 1.623088e-02 1.705662e-04 1.647862e-02 1.417030e-04 1.680079e-02 1.067586e-04 1.720873e-02 6.595536e-05 1.771860e-02 2.045794e-05 1.834909e-02 -2.855911e-05 1.912198e-02 -7.945992e-05 2.006233e-02 -1.298875e-04 2.119831e-02 -1.767383e-04 2.256035e-02 -2.163652e-04 
2.481651e-02 -2.320977e-04 2.678486e-02 -2.446279e-04 2.905205e-02 -2.444622e-04 2.678796e-02 -2.313000e-04 2.482245e-02 -2.050164e-04 2.313377e-02 -1.682205e-04 2.169672e-02 -1.241293e-04 2.048452e-02 -7.612624e-05 1.947015e-02 -2.746714e-05 1.862763e-02 1.950145e-05 1.793397e-02 6.322491e-05 1.736824e-02 1.021807e-04 1.691208e-02 1.361408e-04 1.655050e-02 1.647245e-04 1.627065e-02 1.872889e-04 1.606290e-02 2.042370e-04 1.591977e-02 2.154143e-04 1.583546e-02 2.208680e-04 1.580741e-02 2.208085e-04 1.583450e-02 2.147816e-04 1.591741e-02 2.032682e-04 1.605955e-02 1.862111e-04 1.626584e-02 1.630416e-04 1.654414e-02 1.341870e-04 1.690444e-02 9.959763e-05 1.735879e-02 5.966107e-05 1.792309e-02 1.549752e-05 1.861579e-02 -3.159576e-05 1.945788e-02 -7.991090e-05 2.047291e-02 -1.271476e-04 2.168649e-02 -1.704234e-04 2.312542e-02 -2.064817e-04 
2.511902e-02 -2.100907e-04 2.709125e-02 -2.213933e-04 2.936154e-02 -2.214133e-04 2.709297e-02 -2.105799e-04 2.512232e-02 -1.880612e-04 2.342784e-02 -1.559380e-04 2.198437e-02 -1.168360e-04 2.076528e-02 -7.360904e-05 1.974381e-02 -2.923326e-05 1.889404e-02 1.416584e-05 1.819347e-02 5.520175e-05 1.762135e-02 9.208461e-05 1.715939e-02 1.246837e-04 1.679291e-02 1.524931e-04 1.650897e-02 1.745317e-04 1.629810e-02 1.913392e-04 1.615292e-02 2.025420e-04 1.606735e-02 2.081315e-04 1.603912e-02 2.084264e-04 1.606703e-02 2.027171e-04 1.615165e-02 1.917387e-04 1.629658e-02 1.754891e-04 1.650654e-02 1.532563e-04 1.678948e-02 1.258116e-04 1.715541e-02 9.307396e-05 1.761599e-02 5.549218e-05 1.818716e-02 1.433755e-05 1.888710e-02 -2.912450e-05 1.973649e-02 -7.329641e-05 2.075854e-02 -1.160975e-04 2.197857e-02 -1.550021e-04 2.342317e-02 -1.872320e-04 
2.560436e-02 -2.023728e-04 2.762174e-02 -2.123479e-04 2.992496e-02 -2.121831e-04 2.762431e-02 -2.016598e-04 2.560931e-02 -1.801527e-04 2.386176e-02 -1.495209e-04 2.236022e-02 -1.121236e-04 2.108145e-02 -7.056587e-05 2.000154e-02 -2.773583e-05 1.909652e-02 1.434486e-05 1.834554e-02 5.441394e-05 1.772869e-02 9.045849e-05 1.722802e-02 1.224827e-04 1.682919e-02 1.499282e-04 1.651898e-02 1.715707e-04 1.628792e-02 1.881283e-04 1.612849e-02 1.990706e-04 1.603421e-02 2.043679e-04 1.600292e-02 2.044529e-04 1.603336e-02 1.983861e-04 1.612599e-02 1.871209e-04 1.628473e-02 1.706841e-04 1.651431e-02 1.482092e-04 1.682297e-02 1.207528e-04 1.722097e-02 8.818649e-05 1.771980e-02 5.101616e-05 1.833551e-02 1.067313e-05 1.908581e-02 -3.154824e-05 1.999049e-02 -7.405092e-05 2.107131e-02 -1.148134e-04 2.235147e-02 -1.514574e-04 2.385473e-02 -1.814436e-04 
2.578177e-02 -1.867037e-04 2.779708e-02 -1.960081e-04 3.009907e-02 -1.960084e-04 2.779850e-02 -1.871301e-04 2.578451e-02 -1.682274e-04 2.403862e-02 -1.408329e-04 2.253915e-02 -1.068668e-04 2.126275e-02 -6.839857e-05 2.018560e-02 -2.871090e-05 1.928204e-02 1.047636e-05 1.853299e-02 4.893648e-05 1.791808e-02 8.281329e-05 1.741840e-02 1.137108e-04 1.702118e-02 1.410104e-04 1.671159e-02 1.616475e-04 1.648122e-02 1.783092e-04 1.632314e-02 1.892557e-04 1.622867e-02 1.944237e-04 1.619787e-02 1.953936e-04 1.622891e-02 1.890966e-04 1.632115e-02 1.783684e-04 1.648027e-02 1.632699e-04 1.670924e-02 1.411587e-04 1.701736e-02 1.152133e-04 1.741539e-02 8.423405e-05 1.791265e-02 4.860248e-05 1.852696e-02 1.052539e-05 1.927566e-02 -2.897907e-05 2.017835e-02 -6.850260e-05 2.125678e-02 -1.062028e-04 2.253426e-02 -1.399391e-04 2.403474e-02 -1.674684e-04 
2.612446e-02 -1.836006e-04 2.817280e-02 -1.920791e-04 3.049865e-02 -1.919231e-04 2.817501e-02 -1.830048e-04 2.612872e-02 -1.644153e-04 2.434373e-02 -1.375883e-04 2.280094e-02 -1.042795e-04 2.147952e-02 -6.627895e-05 2.035805e-02 -2.725612e-05 1.941136e-02 1.119906e-05 1.862297e-02 4.962682e-05 1.797294e-02 8.275613e-05 1.744214e-02 1.134027e-04 1.701924e-02 1.409345e-04 1.668817e-02 1.609372e-04 1.644131e-02 1.776345e-04 1.627205e-02 1.883719e-04 1.616995e-02 1.930800e-04 1.613671e-02 1.942492e-04 1.617003e-02 1.871892e-04 1.626844e-02 1.761453e-04 1.643909e-02 1.611954e-04 1.668368e-02 1.383585e-04 1.701246e-02 1.124291e-04 1.743665e-02 8.137990e-05 1.796394e-02 4.554462e-05 1.861335e-02 7.727901e-06 1.940145e-02 -3.121843e-05 2.034696e-02 -6.993005e-05 2.147038e-02 -1.065963e-04 2.279334e-02 -1.391478e-04 2.433768e-02 -1.654611e-04 
2.617626e-02 -1.732459e-04 2.821622e-02 -1.814723e-04 3.053628e-02 -1.814699e-04 2.821744e-02 -1.737064e-04 2.617857e-02 -1.568867e-04 2.440299e-02 -1.323008e-04 2.287087e-02 -1.014009e-04 2.156097e-02 -6.440886e-05 2.045379e-02 -2.768916e-05 1.951553e-02 7.513175e-06 1.873839e-02 4.725355e-05 1.809957e-02 7.652075e-05 1.757495e-02 1.063353e-04 1.716183e-02 1.361895e-04 1.683498e-02 1.527384e-04 1.659206e-02 1.709939e-04 1.642976e-02 1.817477e-04 1.632630e-02 1.849140e-04 1.629478e-02 1.896273e-04 1.632961e-02 1.799074e-04 1.642377e-02 1.693685e-04 1.659412e-02 1.580633e-04 1.683277e-02 1.328955e-04 1.715534e-02 1.096492e-04 1.757614e-02 8.004691e-05 1.809225e-02 4.415901e-05 1.873237e-02 8.141399e-06 1.951022e-02 -2.881362e-05 2.044446e-02 -6.553095e-05 2.155599e-02 -1.002709e-04 2.286694e-02 -1.310817e-04 2.439978e-02 -1.559973e-04 
2.638302e-02 -1.744881e-04 2.844633e-02 -1.822821e-04 3.078311e-02 -1.821393e-04 2.844833e-02 -1.740223e-04 2.638684e-02 -1.569168e-04 2.458351e-02 -1.321387e-04 2.302027e-02 -1.011286e-04 2.167763e-02 -6.362682e-05 2.053854e-02 -2.682126e-05 1.956792e-02 8.079762e-06 1.876171e-02 4.886443e-05 1.809692e-02 7.743537e-05 1.754834e-02 1.073276e-04 1.711633e-02 1.380830e-04 1.677281e-02 1.536089e-04 1.651709e-02 1.723216e-04 1.634689e-02 1.829234e-04 1.623684e-02 1.853309e-04 1.620357e-02 1.908189e-04 1.624041e-02 1.798613e-04 1.633866e-02 1.689637e-04 1.651833e-02 1.581741e-04 1.676850e-02 1.316006e-04 1.710656e-02 1.085048e-04 1.754779e-02 7.863908e-05 1.808595e-02 4.205522e-05 1.875250e-02 5.913111e-06 1.955970e-02 -3.112238e-05 2.052550e-02 -6.785337e-05 2.166992e-02 -1.024929e-04 2.301384e-02 -1.330750e-04 2.457820e-02 -1.576508e-04 
2.630728e-02 -1.688089e-04 2.835526e-02 -1.767012e-04 3.068119e-02 -1.767048e-04 2.835638e-02 -1.693402e-04 2.630936e-02 -1.533138e-04 2.452388e-02 -1.300841e-04 2.298036e-02 -1.020285e-04 2.165645e-02 -7.381681e-05 2.052572e-02 -3.882558e-05 1.958789e-02 9.824594e-09 1.879810e-02 2.758153e-05 1.814353e-02 6.743066e-05 1.761997e-02 9.647235e-05 1.719080e-02 1.136692e-04 1.686641e-02 1.421206e-04 1.662227e-02 1.537695e-04 1.644273e-02 1.644105e-04 1.635200e-02 1.738559e-04 1.631690e-02 1.657474e-04 1.634427e-02 1.689651e-04 1.645019e-02 1.586288e-04 1.661364e-02 1.349694e-04 1.686415e-02 1.227093e-04 1.719509e-02 9.432751e-05 1.760936e-02 6.602607e-05 1.814783e-02 3.984586e-05 1.880005e-02 6.695653e-06 1.958840e-02 -2.888487e-05 2.053328e-02 -6.453554e-05 2.165578e-02 -9.826681e-05 2.297774e-02 -1.281181e-04 2.452118e-02 -1.521919e-04 
2.638309e-02 -1.744176e-04 2.844639e-02 -1.822229e-04 3.078317e-02 -1.820890e-04 2.844836e-02 -1.740297e-04 2.638679e-02 -1.570924e-04 2.458321e-02 -1.329225e-04 2.301900e-02 -1.044705e-04 2.167219e-02 -7.884323e-05 2.051345e-02 -4.305427e-05 1.956006e-02 -9.257404e-07 1.874901e-02 2.166155e-05 1.807297e-02 6.773750e-05 1.753799e-02 9.706511e-05 1.709040e-02 1.083540e-04 1.675874e-02 1.430908e-04 1.650734e-02 1.514740e-04 1.631428e-02 1.620158e-04 1.622696e-02 1.744992e-04 1.618887e-02 1.596328e-04 1.621313e-02 1.689798e-04 1.632747e-02 1.582706e-04 1.649169e-02 1.278170e-04 1.675429e-02 1.213627e-04 1.709746e-02 8.946651e-05 1.751826e-02 6.072466e-05 1.807955e-02 3.812468e-05 1.875101e-02 4.992534e-06 1.955934e-02 -3.132983e-05 2.052544e-02 -6.786703e-05 2.166994e-02 -1.024456e-04 2.301390e-02 -1.330071e-04 2.457827e-02 -1.575775e-04 
2.617640e-02 -1.730951e-04 2.821636e-02 -1.813363e-04 3.053641e-02 -1.813435e-04 2.821753e-02 -1.736373e-04 2.617859e-02 -1.569458e-04 2.440283e-02 -1.326945e-04 2.287022e-02 -1.028137e-04 2.155877e-02 -6.939699e-05 2.044598e-02 -3.319051e-05 1.951221e-02 3.771257e-06 1.873367e-02 3.854236e-05 1.809169e-02 7.253901e-05 1.757061e-02 1.021437e-04 1.715331e-02 1.266383e-04 1.682970e-02 1.483080e-04 1.658789e-02 1.638028e-04 1.641938e-02 1.745272e-04 1.632207e-02 1.803539e-04 1.628926e-02 1.796117e-04 1.632063e-02 1.754551e-04 1.641908e-02 1.649912e-04 1.658537e-02 1.483457e-04 1.682748e-02 1.286479e-04 1.715152e-02 1.032212e-04 1.756696e-02 7.418811e-05 1.808967e-02 4.250354e-05 1.873162e-02 7.681104e-06 1.951004e-02 -2.888497e-05 2.044448e-02 -6.545840e-05 2.155609e-02 -1.001414e-04 2.286708e-02 -1.309308e-04 2.439993e-02 -1.558416e-04 