# vtk DataFile Version 2.0
Comment goes here
ASCII

DATASET STRUCTURED_POINTS
FIELD FieldData 1
TIME 1 1 double
0.09600000
DIMENSIONS    64   64   1

ORIGIN    0.000   0.000   0.000
SPACING   0.03125 0.03125   1.000

POINT_DATA   4096
SCALARS uX double
LOOKUP_TABLE default

-1.874272e+01 3.201836e+01 -1.656961e+01 3.134106e+01 -2.471693e+01 2.238365e+01 -8.284956e+00 1.991324e+01 -1.464363e+01 1.387859e+01 -3.822574e+00 1.449874e+01 -2.282234e+01 -8.208927e+00 -1.499948e+01 7.768949e+00 5.393247e+00 5.432134e-01 -9.319547e+00 -1.989757e+01 4.819646e+00 -5.783266e+00 1.655903e+01 -1.292881e+01 -1.390165e+01 -1.667146e+01 -1.441524e+01 1.515940e+00 6.836005e+00 -1.238300e+01 2.194202e+01 -3.175180e+01 9.162783e+00 -8.536217e+00 2.243452e+01 -2.379336e+01 2.501138e+01 3.186008e+00 4.578622e+01 -1.123474e+01 2.362001e+01 5.036038e+00 8.238013e+00 2.283394e+01 -1.032068e+00 -7.911066e-01 8.537261e+00 -8.635330e+00 9.508410e-01 -1.860845e+01 3.839346e+00 -6.156253e+00 1.288121e+00 2.461552e+00 4.293698e+00 -2.441660e-01 4.867717e+00 2.176851e+01 -1.665948e+01 2.168148e+01 -2.485050e+01 3.646964e+00 -1.707887e+01 5.688311e+00 
-1.949596e+01 3.993726e+00 -2.922508e+01 -3.875509e+00 3.670992e+00 -3.108272e+00 -1.323511e+01 7.113205e+00 -1.050341e+01 1.438182e+01 -1.541466e+01 1.177807e+01 3.792599e+00 1.148250e+01 -9.288451e+00 -6.893499e+00 1.000776e+01 -8.110140e+00 1.905389e+01 2.240729e+01 2.344725e+01 -4.071268e+00 -4.194165e-01 -3.126744e+00 1.672236e+01 2.403338e+01 3.048869e+01 2.161155e+01 2.037375e+01 1.129534e+01 2.851813e+00 -2.206026e+01 6.036351e+01 -4.934664e+01 3.644562e+01 2.401213e+01 -5.548807e+00 -5.978367e+01 -1.517360e+01 -5.182701e+01 -1.959274e+01 -2.169912e+01 -6.376675e+00 -2.899765e+01 1.791993e+01 -3.468219e-01 -1.350328e+00 -2.972516e-02 8.747994e+00 1.676990e+01 8.457517e+00 2.992987e+00 1.231891e+01 -6.609540e+00 9.168324e+00 -7.734267e+00 -1.172822e+01 8.428418e+00 -1.933002e+01 6.572776e+00 4.117908e+00 2.106119e+01 2.266734e+00 8.867198e+00 
-2.008875e+01 2.318662e+00 4.127349e+01 1.921988e+01 2.726319e+00 -1.685337e+01 -2.954667e+00 4.113647e+01 2.494581e+01 -1.030220e+00 4.858922e+00 -9.761653e+00 1.806648e+01 1.867270e+01 1.048002e+01 7.827059e-01 2.377302e+00 5.576132e+00 -1.718486e-01 1.860406e+00 -2.427425e+01 1.312228e+00 -7.550310e+00 1.046374e+01 -6.655774e+00 -1.494369e+00 -9.574363e+01 -3.643862e+01 -8.116536e+01 -1.761876e+01 4.535164e+01 4.152064e+00 -5.464572e+01 -2.954669e+01 -6.556423e+01 -7.179500e+01 -2.987839e+01 1.069968e+02 7.277716e+01 1.084211e+02 1.020087e+02 3.532385e+01 3.992205e+01 -5.885957e-01 9.747163e-01 -1.784036e+01 -1.389322e+01 -3.566414e+00 -2.208223e+01 9.794233e+00 -2.240984e+01 4.394778e+00 -1.033213e+01 2.186925e+00 -5.438147e+00 8.657974e+00 -3.724490e+00 1.115676e+01 2.458845e+00 -8.611956e+00 -4.224446e+00 -1.335376e+01 -1.386404e+01 -1.744439e+01 
-1.575675e+01 -3.380448e+00 7.079847e+01 2.040944e+01 -2.938651e+00 2.558670e+01 -2.190508e+00 6.242794e+01 3.779924e+01 4.381272e+01 2.130593e+01 9.285852e+00 -1.358734e+00 -4.895088e+00 1.323429e+01 3.914442e+00 -5.768836e-01 -1.158406e+01 -2.987353e+01 -7.424464e+01 -7.596921e+01 -5.231127e+01 -3.095563e+01 -5.755138e+01 -9.938448e+01 -9.999310e+01 -1.169160e+02 8.753339e+00 -5.186669e+01 -4.936414e+00 4.907472e+01 1.525917e+01 3.756297e+01 -1.588925e+01 -4.765081e+01 -9.725124e+01 -4.341378e+01 7.195672e+01 1.394795e+02 7.420968e+01 8.348102e+01 3.573462e+01 -4.269839e+01 -5.079126e+01 -3.995788e+01 -1.535413e+00 3.335919e+00 6.578119e+01 3.283806e+01 1.852788e+01 -1.336268e+01 -1.429894e+01 -2.536093e+01 5.252284e+00 -1.151704e+01 1.263831e+01 -2.899405e+00 -7.721185e+00 -5.587239e+01 -3.655256e+01 -3.700209e+01 -5.792176e+01 -5.363448e+01 -6.377977e+01 
-1.334505e+01 4.851983e+01 2.705816e+01 7.208199e+01 -5.530089e+00 7.540390e+01 3.511388e+01 1.006923e+01 2.599809e+00 -3.368445e+01 5.334421e+00 1.526646e+01 9.406956e+00 1.323741e+01 1.314178e+01 1.434553e+01 5.700565e+00 4.294875e+00 4.930945e-01 -7.176966e+00 7.446214e+00 -2.837531e+01 -3.494147e+01 -4.604888e+01 -3.381393e+01 -6.925561e+01 -6.030421e+00 -1.876443e+01 3.480597e+01 8.693142e+01 4.005143e+00 6.521581e+01 9.396772e+01 2.662563e+01 1.347057e+02 7.361051e+01 1.255536e+02 2.814732e+01 7.011656e+01 -6.017139e+01 6.019775e+01 1.232019e+02 7.439538e+01 9.047031e+01 -8.287918e+00 -1.151660e+01 -1.788628e+01 -6.149566e+00 -2.222829e+01 -1.400377e+01 -1.931125e+01 -1.341451e+01 -1.204515e+01 3.896296e+00 9.608403e+00 1.816186e+01 8.987459e+00 2.869350e+01 2.077872e+01 3.183778e+01 -1.454775e+01 1.031769e+01 -4.565077e+01 -1.055880e+01 
3.436827e+01 1.947323e+01 1.687322e+00 -2.852920e+01 -1.745527e+01 -1.559340e+01 -1.127540e+01 -6.259843e+01 -3.555134e+01 -2.849909e+01 -5.457607e+01 1.906553e+01 3.233611e+00 4.365297e+00 1.195054e+01 8.694041e+00 6.112544e+00 2.577854e+00 1.012308e+01 9.518044e+00 9.294581e+00 1.157436e+00 -1.403429e+01 -1.704803e+01 -4.019483e+00 1.851907e+01 5.398965e+01 -5.348345e+01 -1.443420e+01 2.334641e+01 -5.923028e+01 5.300546e+01 7.815782e+01 7.371728e+01 1.047668e+02 1.022860e+02 1.053035e+02 6.763842e+01 -4.593913e+01 5.337998e+01 4.493492e+01 6.487444e+01 1.266164e+02 1.806501e+02 4.340708e+01 7.993157e+01 3.259548e+01 4.557520e+01 -6.329700e+00 1.473962e+01 -5.102870e+01 -1.793189e+00 -2.034809e+01 2.146330e+01 2.101971e+01 3.401161e+01 5.588326e+01 2.679075e+01 8.430224e+01 -2.149713e+01 -5.472746e+00 -4.588099e+01 -2.577519e+00 2.007433e+01 
-9.932555e+01 -1.193299e+02 -1.467829e+02 -1.163834e+02 -6.214927e+00 -8.809720e+01 -4.362441e+01 -8.931639e+01 -4.348080e+01 2.553976e+01 -6.222361e+00 2.348425e+01 3.354281e+00 3.378963e+01 1.556728e+01 2.621134e+01 1.545869e+01 2.225631e+01 3.791282e+00 1.242891e+01 4.282000e+01 -2.568563e+01 5.415086e+01 1.491127e+01 3.636495e+01 6.599542e+01 7.978150e+01 6.871850e+01 7.856742e-01 -1.555832e+01 2.916623e+00 5.846449e+01 7.415809e+01 9.569830e+01 4.538992e+01 1.231011e+02 -7.877008e+00 -4.240462e+01 -3.902420e+01 1.045381e+02 6.951516e+01 5.440255e+01 9.983719e+01 1.613255e+02 1.736495e+02 2.178330e+02 1.634920e+02 1.767552e+02 1.227212e+02 1.041415e+02 8.194058e+01 1.408902e+02 1.213453e+02 9.089612e+01 4.211890e+01 1.669517e+01 6.582695e-01 -4.380358e+01 -5.380084e+01 -6.013382e+01 -1.477100e+01 -4.630986e+01 -4.333838e+01 -6.698057e+01 
-1.397844e+02 -2.492748e+02 -2.380401e+02 -1.242319e+02 -2.740170e+00 -1.449416e+02 -4.971827e+01 -1.054400e+02 -9.670768e+00 -5.578617e+01 8.263446e+01 5.636828e+01 4.964886e+01 -2.481058e+01 1.910035e+01 2.069504e+01 8.692420e+00 1.592175e+01 1.150497e+01 3.382598e+01 3.515267e+01 3.281485e+01 6.648642e+01 2.265874e+01 2.585731e+01 4.694364e+01 4.118586e-02 6.122595e+01 2.634878e+01 1.212033e+02 1.018775e+02 6.460143e+01 3.647567e+00 3.710849e+01 6.027513e+01 1.133919e+02 1.302212e+02 -2.569143e+01 1.290359e+02 2.584828e+01 9.303511e+01 2.961159e+01 1.512453e+02 2.029737e+02 1.329639e+02 1.451969e+02 1.402967e+02 1.307164e+02 1.020414e+02 1.330225e+02 1.424418e+02 1.130285e+02 1.044566e+02 4.462299e+01 3.929791e+01 -4.946955e+00 -1.835974e+01 -1.694371e+01 -3.648133e+01 2.002863e+01 1.773505e+01 -3.174444e+01 -4.927177e+01 -1.299743e+02 
-2.077608e+01 -7.939629e+01 -1.180143e+01 -1.131208e+02 1.641918e+00 -1.399808e+02 -9.138381e+01 -1.791507e+01 2.780771e+01 -7.433680e+00 3.455383e+01 -1.256567e+01 -2.336814e+01 5.101949e+01 3.149803e+01 2.045361e+01 1.774372e+01 6.642698e+00 -6.111816e+00 2.207478e+01 -8.863874e-01 4.499958e+01 1.770505e+01 5.110998e+01 4.175556e+01 3.843691e+01 1.923645e+01 1.208372e+01 4.330404e+01 5.650211e+00 3.737950e+01 -1.252573e+01 -1.659778e+01 4.240631e+01 -8.029907e+00 -1.449428e+01 -3.461306e+01 1.910682e+01 -2.077893e+01 -5.615777e+01 -1.437870e+02 -7.347090e+01 1.997887e+01 3.656240e+01 1.016660e+02 1.266087e+02 1.238382e+02 1.363521e+02 1.394299e+02 1.404540e+02 1.626272e+02 3.903800e+01 3.196926e+01 -3.874945e+00 1.282962e+01 2.727660e+01 2.604207e+01 5.718716e+01 5.266866e+01 4.543246e+01 -8.464919e+00 3.691359e+01 -1.381206e+01 4.920303e+01 
8.809997e+01 1.044300e+02 1.235985e+02 6.076430e+01 2.758789e+01 5.526082e+01 7.670830e+01 1.134963e+02 1.557630e+02 6.175790e+01 2.936288e+01 -1.343994e+01 -1.472251e+02 5.384862e+01 -6.983294e+00 7.131473e+01 3.381616e+01 6.014967e+01 9.892763e+00 3.850783e+01 2.441070e+01 4.962630e+01 1.000950e+01 7.407039e+01 6.598177e+01 4.227089e+01 7.696754e+01 4.288010e+01 8.317282e+01 -3.628182e+01 2.029467e+01 -4.921403e+01 3.521815e+01 3.125089e+01 7.236662e+01 3.682059e+01 -2.818694e+01 1.390050e+02 -6.251940e+01 5.505425e+01 -3.136912e+01 1.912380e+02 -1.665989e+01 1.685838e+01 4.837031e+01 5.585417e+01 3.468970e+01 -1.177335e+01 6.001071e+01 -6.814995e+00 4.328802e+01 2.034260e+01 2.412204e+01 2.928300e+01 3.598490e+01 -3.695613e+00 2.011739e+01 1.850032e+01 2.623906e+01 -1.029129e+01 -4.366916e+01 1.225976e+02 2.767285e+01 1.211326e+02 
1.000257e+02 7.802706e+01 9.796302e+01 6.849505e+01 1.480638e+01 5.965145e+01 1.920922e+02 -4.284192e+01 9.952181e+00 -1.739859e+01 1.182501e+02 4.580219e+01 8.978702e+01 1.118952e+02 3.301835e+01 1.330853e+01 2.463350e+01 -8.521451e+00 -5.149380e+01 -4.586484e+01 3.984397e+01 3.916844e+01 2.616053e+01 5.702969e+01 5.715038e+01 9.203233e+01 4.704395e+01 2.695900e+01 1.071438e+02 4.025401e+01 -3.038339e+01 5.619597e+00 -1.701766e+01 3.941302e+00 9.277140e+01 6.839148e+01 5.333907e+01 1.048429e+02 8.861810e+01 2.555717e+02 2.262071e+02 1.762284e+02 5.311846e+01 -2.498925e+01 -1.828442e+01 -7.530333e+01 1.390508e+01 -6.245802e+01 4.024041e+01 4.188242e+01 -1.704568e+01 1.901028e+01 2.307138e+01 -2.211598e+01 2.383164e+01 -5.955303e+00 8.292366e+00 3.880792e+01 1.081086e+01 7.660767e+01 2.571406e+01 1.040296e+02 1.076660e+02 -8.867404e+00 
1.210226e+02 4.062819e+00 -7.230102e+01 2.848924e+01 -1.016529e+01 3.462086e+01 2.028707e+01 3.818373e+01 -7.872618e+01 -8.720739e+01 1.614354e+02 -1.685410e+02 1.197689e+02 -1.021353e+02 1.422912e+01 -9.963308e+01 5.049423e+01 -4.089834e+01 4.313135e+01 5.409380e+00 3.048869e+01 4.715417e+00 -3.299240e+00 6.556835e+01 4.548311e+01 -1.644548e+01 -7.520033e+00 1.563166e+01 2.486687e+00 1.386536e+02 -3.297168e+01 1.226586e+02 -1.980152e+01 9.473251e+01 6.782286e+00 -8.913505e+00 5.870133e+01 -5.128092e+00 5.610410e+01 1.059644e+02 9.329791e+01 -4.817416e+01 3.543696e+01 -1.037629e+02 -1.478584e+01 -7.306252e+01 -5.879188e+01 -5.445885e+00 -1.011461e+01 -2.086539e+01 -1.685111e+01 -6.942317e+00 7.616258e+01 -8.138211e+00 5.489348e-01 -1.909012e+00 8.178873e+00 7.140469e+01 9.452975e+01 3.155993e+01 4.545723e+01 8.902925e+01 -1.446513e+01 8.657646e+01 
-3.408113e+01 5.538080e+01 -1.020520e+02 6.527932e+01 -3.244198e+00 7.584294e+01 -5.650524e+00 2.560882e+02 5.022263e+01 -5.513761e+00 -1.078029e+02 -3.502682e+01 -2.192973e+01 -1.676327e+02 2.037365e+01 2.273655e+01 4.748905e+01 7.759617e+01 1.697196e+02 8.287948e+01 -1.146246e+01 4.398377e+01 2.274564e+01 7.111341e+01 3.578538e+01 -2.070471e+01 5.841918e+00 3.212618e+01 1.697644e+01 7.571102e+01 9.672893e+01 1.168088e+02 3.250505e+01 3.337698e+01 -3.031461e+01 1.827664e+01 -3.153521e+01 -1.065365e+02 -3.820327e+01 -1.173368e+02 2.889897e+01 -6.180314e+01 7.670580e+00 -2.920020e+01 -2.876267e+01 1.764370e+01 -2.961939e+01 3.103640e+01 -6.349511e+00 9.126193e+00 3.467320e+01 4.705715e+01 -1.708743e+01 5.360421e+01 -1.642943e+01 -9.090447e+01 5.046149e+01 5.477511e+01 3.492290e+01 4.818227e+01 1.112692e+01 9.152538e+01 4.055220e+01 8.369144e+01 
-7.751226e+00 2.387494e+02 7.893905e+01 1.116504e+01 -1.322215e+01 3.780112e+01 -9.369724e+01 1.143851e+02 1.932059e+01 4.418249e+01 -1.866818e+02 1.645693e+02 6.211238e+00 1.392578e+02 4.863848e+00 1.168126e+01 -8.992831e+01 -2.048920e+00 4.313414e-01 -5.752011e+01 5.940758e+01 -5.849199e+01 1.028438e+02 -1.198263e+02 4.954367e+01 1.524904e+01 6.434748e+01 9.670071e+01 1.980720e+02 -1.874014e+01 1.518330e+02 2.409048e+01 1.626062e+01 5.576488e+01 -4.112552e+01 6.500205e+01 5.489122e+01 4.488815e+00 7.601596e+00 -7.694962e+01 -5.423810e+00 -3.986080e+01 6.315412e+01 -2.300546e+01 1.236104e+01 7.503013e+01 1.966422e+01 1.356817e+01 -4.708390e+01 4.518065e+01 2.059592e+01 -1.727241e+01 -4.823170e+01 -1.026599e+02 -3.395735e+01 3.295529e+00 3.423061e+01 8.448064e+01 1.128063e+02 1.456336e+02 6.741051e+01 7.410120e+01 1.227901e+02 8.213020e+01 
1.819655e+02 1.392500e+02 2.277120e+02 1.220517e+02 5.361728e+01 1.174689e+02 -2.567122e+01 8.713464e+01 -4.320295e-01 5.679040e+01 8.671848e+00 -7.044396e+01 -7.796575e+01 -5.011157e+01 -1.091722e+02 -4.584036e+00 -2.761032e+01 -1.063764e+01 -7.240104e+00 1.640204e+01 6.015420e+01 3.916434e+01 4.343242e+01 1.313965e-01 -2.973001e+01 -1.190452e+01 6.400704e+01 9.501519e+01 1.517287e+02 3.759362e+01 1.078363e+02 6.389073e+01 1.489308e+01 6.959294e+01 1.406237e+01 6.967440e+01 1.750282e+02 6.143480e+01 1.051643e+02 6.814824e+01 -5.868811e+01 6.088585e+01 -6.462314e+01 -2.428083e+01 -4.021664e+01 3.155274e+01 6.355865e+00 2.962916e+01 -9.752607e+01 3.316086e+01 -1.134068e+02 1.132131e+02 -1.500042e+01 1.050861e+02 1.090303e+02 1.788482e+02 1.410644e+02 7.017972e+01 1.328171e+01 5.352021e+01 1.487154e+02 1.227487e+02 2.091293e+02 2.094229e+02 
-2.435336e+00 9.354010e+01 -2.491126e+01 1.341927e+01 4.233116e+01 6.100227e+00 2.669354e+02 -5.831523e+01 -1.009370e+02 1.327488e+02 1.224816e+02 9.229838e+01 6.989946e+01 3.815887e+01 -2.199317e+01 4.638568e+01 7.217886e+01 -6.228663e+00 3.516810e+01 -3.831476e+01 -8.809925e+00 -1.885613e+01 -2.946578e+01 2.369617e+01 7.436728e+01 2.019388e+01 1.299889e+02 2.404846e+01 9.388420e+01 2.083224e+01 2.910821e+01 1.437314e+01 3.938075e+01 -6.462962e+01 6.636271e+01 3.401346e+01 3.826273e+01 1.211041e+02 1.037272e+02 5.863447e+01 -5.193758e+01 -1.666708e+01 -7.647541e+01 2.503337e+01 2.548630e+01 -4.730573e+01 2.936616e+01 2.900901e+01 3.833612e+01 4.154832e+01 5.176346e+01 1.020601e+02 5.926894e+01 1.409549e+02 -1.524388e+01 5.060577e+01 -4.770894e+01 5.584439e+01 -6.425873e+01 1.360407e+02 -4.048506e+01 -1.007333e+01 -4.640163e+01 -4.618233e+01 
-8.530411e+01 -4.006024e+01 -2.159806e+01 -3.090524e+01 6.356659e+00 -4.008638e+01 7.632861e+01 -1.882062e+02 1.373697e+02 5.579043e+00 2.290825e+00 -7.995553e+00 -3.350750e+01 -1.035993e+02 2.396980e+01 -1.122101e+02 -2.429786e+01 1.402749e+01 5.154760e+01 -4.373800e+01 1.302880e+01 -6.805289e+01 -4.196248e+01 -1.039209e+02 -4.416342e+01 -4.930124e+01 -2.245825e+01 -6.059795e+01 -9.206751e+01 -8.059634e+00 -1.400130e+02 -1.275722e+02 -2.437521e+01 -1.336998e+02 -2.617562e+01 -3.075574e+01 -5.070970e+01 1.961484e+00 -6.420514e+01 -7.672379e+01 -9.529293e+01 -1.213793e+02 -8.263479e+01 1.484032e+01 -4.429041e+01 -2.139111e+01 -8.579692e+01 -2.137392e+00 9.440165e+01 -7.415092e+01 8.444204e+01 -6.006277e+01 -3.364235e+01 3.650675e+01 -8.560705e+01 1.003066e+01 -1.220165e+02 -1.134052e+02 -1.170085e+01 3.381628e+01 -1.092855e+02 1.474508e+02 -9.415213e+01 3.625579e+01 
2.169098e+01 -9.905491e+01 1.181714e+02 6.962513e+01 2.830842e+01 6.488955e+01 -1.526828e+02 3.830992e+01 1.975745e+02 6.147521e+01 -9.611296e-01 2.446266e+01 4.225396e+01 -1.149413e+01 9.631718e+01 -8.164417e+01 7.524840e+01 1.571282e+01 2.628247e+01 7.631383e+00 -1.373813e+01 2.040224e+01 -4.039563e+01 4.457522e+01 -5.724989e+01 -8.115385e+01 -1.670705e+02 -1.674476e+02 -1.996284e+02 -9.264298e+01 -1.584448e+02 -4.916844e+01 -5.170177e-01 -3.454944e+01 -1.895221e+01 6.420716e+01 -4.687426e+01 -6.887485e+01 -7.009850e+01 -6.184391e+01 3.711922e+01 -4.753976e+01 -2.430095e+01 -2.629790e+00 -2.024103e+01 1.349826e+01 3.755509e+01 2.447947e+01 6.703407e+01 1.819130e+01 -2.065708e+01 -9.100160e+00 -4.519008e+01 3.196025e+01 1.362635e+02 -1.319190e+01 6.540299e+01 -3.037371e+01 7.452505e+01 -3.635849e+01 1.112645e+02 1.013292e+00 2.374157e+01 4.513764e+01 
1.433911e+02 1.182643e+02 6.962774e+01 6.556756e+01 8.958648e+00 9.393217e+01 8.879459e+01 2.139236e+01 -7.197840e+01 -1.751945e-03 -1.350011e+02 6.551952e+01 6.249148e+01 9.597661e+01 6.674036e+01 5.938161e+01 3.430904e+01 -3.195043e+01 -2.898517e+01 3.480917e+01 -2.722688e+01 -1.485718e+01 -1.255091e+01 -4.267812e+01 3.834989e+01 -2.365309e+01 -7.559451e+01 -1.348252e+02 -1.646546e+02 -1.474573e+02 -7.518016e+01 1.402333e+01 -3.030967e+01 6.025208e+01 -1.126196e+01 -5.345843e+01 -7.315212e+01 -2.964759e+00 -5.651015e+01 -3.746311e+01 -4.824050e+01 -6.595715e+01 -6.305212e+01 -1.000818e+02 5.612941e+00 -4.516684e+01 2.534575e+01 2.077164e+00 6.248658e+00 2.290489e+00 -2.116932e+01 5.690743e+01 5.041996e+01 1.916776e+01 6.446776e+01 1.196757e+02 1.178349e+01 1.296690e+02 3.163738e+01 1.263354e+02 1.170257e+02 -1.560578e+02 -6.128723e+00 -9.709528e+01 
4.281324e+01 -3.688037e+01 -6.039830e+01 -2.278700e+01 2.644236e+01 -5.518439e+01 1.178983e+01 -4.228311e+01 -1.270866e+01 -4.834435e+01 -5.509222e+01 -2.202463e+02 8.920734e-01 -1.686537e+02 1.666145e+01 -7.711260e+01 -1.416447e+01 -6.002793e+01 2.121442e+01 1.751050e+01 -3.469431e+01 -5.549330e+01 -7.453787e+01 -2.334697e+02 -1.702902e+02 -1.498242e+02 -3.966784e+01 -1.095016e+02 -1.409465e+02 -1.433862e+02 -9.202219e+01 -9.555931e+01 -6.806851e+01 -5.769322e+01 -1.115818e+02 -1.186327e+02 -1.067018e+02 -5.795397e+01 1.532213e+01 6.493975e+00 -3.221290e+01 -4.220322e+01 -4.555615e+01 -4.631411e+01 2.291278e+01 -1.083199e+01 1.431433e+01 -9.834801e+01 3.705874e+01 -2.964804e+01 1.291029e+02 4.087401e+01 1.048908e+02 -7.058499e+01 -7.315734e+01 -8.611979e+01 -4.928495e+01 -1.930674e+01 -1.424083e+02 -5.956126e+01 9.192884e+01 6.900070e+01 1.581936e+01 -4.070496e+01 
7.256426e+01 -4.321061e+01 -1.769810e+02 -5.356673e+01 -7.038370e+00 -8.691405e+01 -2.004283e+02 -1.944961e+02 -2.413871e+02 -1.705092e+01 -2.734738e+01 -8.125125e+01 1.128538e+02 7.864144e+01 -4.559530e+01 1.104303e+01 1.426425e+01 -3.347984e+01 2.813880e+01 -2.273092e+01 2.129939e+01 5.529264e+00 -1.155202e+01 -4.256607e+01 -1.162441e+02 -1.207674e+02 -8.449324e+01 -1.196955e+02 -2.691803e+01 -9.401454e+01 -1.710949e+01 -1.568679e+02 -5.443220e+01 -8.196267e+01 -8.896977e+01 -1.061845e+02 -7.949668e+01 -7.584448e+01 -5.359465e+01 -5.929611e+01 -6.373746e+01 -2.099019e+01 2.210610e+01 -3.193381e+01 -6.293473e+01 -4.858260e+01 -8.846545e+01 -5.242083e+01 -1.572634e+02 -5.643333e+01 -4.237492e+01 -7.206664e+01 1.314054e+01 -1.590551e+01 -7.549221e+01 -2.285165e+02 6.713483e+01 -6.560875e+01 -6.323860e+01 -1.700769e+02 4.592720e+01 -1.486717e+01 1.739389e+02 5.335807e+01 
3.720417e+01 9.024689e+01 1.644656e+02 7.416578e+01 2.138787e+01 8.969536e+01 -2.408481e+01 -1.321034e+02 -7.578885e+01 -1.145305e+02 -1.612183e+02 -2.809714e+01 -1.293461e+02 -1.170006e+01 -8.388359e+01 6.411166e+01 -5.286444e+01 4.473906e+00 -2.294481e+01 -3.441968e+01 2.418055e+01 -4.838317e+00 2.072859e+01 4.041343e+01 6.348803e+01 -1.040412e+01 -4.059009e+01 -1.644862e+02 -7.464821e+01 -1.088393e+02 5.135211e+01 -1.088032e+02 -4.130452e+01 -1.191741e+02 4.490036e+01 -1.094047e+02 1.327813e+02 -4.767682e+01 -2.924882e+00 -3.902721e+01 -5.719676e+01 3.925202e+01 2.645528e+01 7.198304e+01 2.351173e+01 -1.233783e+01 -1.157002e+01 -4.786013e+01 -9.935591e+01 -1.341854e+02 -2.133003e+02 -1.553538e+02 -9.362784e+01 1.345468e+01 7.727940e+01 4.475489e+01 -3.722875e+01 -1.397040e+01 2.284080e+01 -1.961726e+01 -1.202643e+02 -6.636552e+01 1.612364e+02 1.035564e+02 
-8.056478e+00 2.680222e+01 1.049127e+02 -5.282487e+01 4.860609e+01 -5.103152e+01 -4.319987e+01 6.349631e+01 9.484724e+01 3.291939e+01 9.282880e+01 -3.856550e+01 -6.760764e+01 -1.123225e+02 3.836719e+01 -4.912693e+01 -2.213036e+01 2.348022e-03 -2.811037e+01 -3.561837e+01 -4.010895e+01 -4.063713e+01 1.269097e+01 -2.440025e+01 1.061947e+02 1.423992e+01 8.286432e+01 -8.080893e+01 -4.465689e+01 -1.001564e+02 -5.884388e+01 -4.167206e+01 3.341441e+01 -8.378188e+01 4.639247e+01 -3.383362e+01 5.418387e+01 -6.447118e+01 -3.326177e+01 -2.602271e+01 4.896573e+01 2.755506e+01 -2.385449e+01 -4.433039e+01 -4.413043e+01 -6.512130e+01 -2.958233e+01 -7.943664e+01 -1.119845e+01 3.994528e+01 -4.792295e+01 1.319159e+00 -1.081569e+02 2.071545e+01 3.905168e+01 1.258414e+02 9.179517e+01 4.220240e+01 4.915783e+01 1.154847e+02 2.025294e+01 -4.308392e+01 5.395084e+01 -1.962867e+01 
-6.680756e+01 8.245710e+01 2.879949e+01 -7.037861e+01 3.861112e+01 -7.629477e+01 4.995440e+01 6.532001e+01 8.902028e+01 2.183644e+02 3.034789e+02 7.390566e+01 5.117759e+01 2.396464e+01 -3.892430e+01 -1.145369e+01 2.337567e+01 6.974623e+00 7.216682e+00 5.014821e+00 1.970193e-01 7.830278e+00 3.825515e+01 3.719249e+01 6.883164e+01 5.967797e+01 1.115415e+02 3.836422e+00 6.153744e+01 -5.010286e+01 -4.698410e+01 -2.435235e+01 2.401020e+01 2.420985e+01 9.255841e+01 1.208733e+01 -1.175745e+01 -1.814781e+01 -8.062971e+01 -9.668896e+00 5.155952e+01 -5.134184e+00 1.278003e+01 -1.425316e+02 -2.564404e+01 -6.537460e+01 -2.879882e+01 2.042514e+01 -3.864275e+01 5.961866e+01 -1.044081e+01 7.744671e+01 -7.293726e+01 7.820129e+01 -7.530454e+00 8.845835e+01 6.673131e+01 -3.529692e+01 -5.495708e+00 1.342066e+02 9.672591e+01 1.164680e+02 -6.422187e+01 7.058318e+01 
-6.340945e+01 7.849610e+01 5.525676e+01 7.629955e+01 3.498265e+01 1.187885e+02 8.904637e+01 2.511173e+02 1.240094e+02 2.326058e+02 -2.844187e+01 8.518188e+01 1.021117e+01 5.514859e+01 -1.298259e+01 5.132454e+01 3.212137e+01 1.129172e+00 -3.376019e-01 2.047637e+01 1.792444e+01 1.642273e+01 2.497682e+01 2.141591e+01 2.765590e+01 4.524437e+01 7.663507e+01 5.370335e+01 6.695781e+01 -4.828489e+01 -4.080297e-01 2.486163e+01 3.559205e+01 3.699151e+01 2.133623e+01 -2.477517e+01 4.543344e+01 -1.689919e+01 4.329874e+01 -1.934968e+01 6.565955e+01 -2.227539e+01 4.344354e+01 6.446895e+01 5.800906e+01 -1.170536e+01 6.308901e+00 -9.815119e+00 2.488053e+01 -3.182837e+01 -6.173612e+01 -3.569933e+01 2.515845e+00 -2.123505e+01 1.006128e+02 2.070811e+01 -3.810341e+01 3.499330e+01 1.140196e+02 -9.266669e+01 -5.208866e+01 5.198071e+01 -1.248067e+02 -2.095288e+00 
-9.297174e+00 -1.618375e+02 -5.965247e+01 1.289640e+02 2.401489e+01 1.560588e+02 7.080964e+01 2.162154e+02 8.008520e+01 1.459867e+02 -8.876283e+01 1.991481e+02 6.695707e+00 1.019270e+02 5.562231e+01 8.709457e-01 -1.638260e+01 -1.529102e+01 -3.878843e+01 1.028690e+01 2.613404e+01 4.046664e+01 1.921356e+01 4.234546e+01 4.835215e+01 3.465225e+01 7.718714e+01 1.062438e+02 1.181993e+02 1.251787e+02 4.349454e+00 1.019952e+02 5.007512e+00 3.675011e+01 -2.029077e+01 1.839626e+01 -1.081945e+01 5.280287e+00 4.690681e+01 -5.100009e+01 7.669834e+01 4.773977e+01 4.999651e+01 2.368276e+00 1.818583e+01 -3.016474e+00 2.031771e+01 -1.343546e+01 -1.498044e+01 5.957748e+00 4.264747e+01 -4.608483e+01 1.662722e+01 2.393714e+01 2.013663e+01 6.669906e+01 1.628104e+02 7.173609e+01 4.260781e+01 -3.913808e+01 -6.555469e+01 2.384957e+01 -5.289222e+01 -9.848508e+01 
1.575208e-01 -1.603684e+01 1.126356e+02 8.936873e+01 2.356849e+01 4.905155e+01 1.526979e+02 -2.176816e+01 9.308132e+01 6.061302e+00 1.364997e+02 2.059529e+02 -4.836373e+01 5.216870e+01 -5.510657e+01 4.087794e+00 -1.508981e+01 -7.448950e+00 2.416423e+01 3.641980e+00 4.824932e+01 3.756707e+01 1.367883e+01 8.734889e+01 2.593420e+01 3.976047e+01 2.416237e+01 1.314511e+02 6.224966e+01 2.044843e+02 1.045303e+02 -4.734793e+01 -2.376893e+01 3.775246e+01 2.651622e+01 3.186463e+01 -4.374367e+01 1.236237e+02 4.397046e+01 1.556642e+02 4.450524e+01 1.056174e+02 8.228835e+01 3.501751e+01 1.541272e+02 5.612742e+01 7.777207e+01 5.467020e+01 -2.124820e+01 1.300513e+01 1.006254e+02 5.641736e+00 9.703800e+01 -5.274395e+01 5.897439e-01 7.444277e+01 2.809605e+00 5.921284e+01 1.464882e+02 8.877832e+01 8.729964e+01 5.471008e+01 3.721946e+01 -4.267473e+01 
4.110516e+01 1.507302e+02 5.905815e+01 1.252451e+02 6.486351e+00 1.072172e+02 6.798908e+01 1.623520e+01 7.459378e+01 -3.815872e+01 1.491852e+02 -1.099222e+02 1.145975e+01 -1.506325e+00 -4.746929e+00 4.506326e+01 -5.744753e+00 2.639117e+01 3.401559e+01 2.208404e+01 6.286540e+01 2.359965e+01 5.371198e+01 4.398794e+01 2.416457e+01 8.547183e+01 2.443717e+01 1.689618e+02 4.280645e+01 1.052758e+02 6.622204e+01 -9.946268e-01 4.392037e+01 2.985156e+01 1.317276e+01 4.532405e+01 -1.753719e+01 5.907896e+01 1.136106e+02 6.297658e+01 -2.332727e+01 -8.313814e+01 8.792456e+00 4.362547e+01 5.203934e+01 -1.195830e+01 4.142921e+01 4.201092e+01 5.693510e+01 6.546192e+00 7.378297e+01 9.444732e+01 8.096417e+01 1.358383e+01 3.754991e+01 7.587296e+01 -4.350219e+01 2.737657e+01 1.022267e+02 4.971380e+01 2.526186e+01 8.661847e+01 1.269903e+02 -2.971359e+01 
8.946583e+00 7.190513e+01 -1.699995e+01 1.231862e+02 2.186593e+01 1.065479e+02 5.715377e+01 8.774492e+01 1.851401e+02 2.711812e+01 1.719055e+02 -1.469663e+02 2.502642e+00 9.496757e+00 -1.915359e+00 -3.574036e+00 -2.700681e+01 1.464614e+01 -2.251402e+00 6.098003e+01 -4.860373e+01 5.385787e+01 1.380796e+01 8.101211e+00 4.722029e+01 8.302599e+01 1.191842e+02 8.149090e+01 1.468707e+02 1.155290e+01 5.801726e+01 8.049347e+01 3.537089e+01 2.434982e+01 -7.885151e+01 2.265449e+01 4.245502e+01 -1.571674e+01 6.697784e+01 -3.365242e+01 -2.427355e+01 5.788764e+00 9.512093e+01 1.700851e+02 1.294846e+01 -3.747881e+01 9.552490e+00 -1.445183e+01 5.560108e+01 3.727277e+01 1.237080e+02 3.729855e+01 1.472212e+02 -1.123536e+01 6.683374e+01 -4.441667e+01 5.366490e+01 -1.231871e+01 -4.079199e+01 3.002553e+01 8.501770e+01 1.047396e+01 -5.438460e+00 8.944940e+01 
1.410110e+02 1.536363e+02 2.015051e+01 7.660276e+01 1.480862e+01 9.234849e+01 -5.307796e+01 -9.156198e-01 -1.743385e+01 -5.788043e+01 -6.525415e+01 -8.800152e+01 -3.286218e+01 -2.894458e+01 -2.934230e+00 6.971434e+01 -1.245508e+01 8.403466e+01 1.652369e+01 1.947909e+01 -1.204768e+01 8.091616e+01 1.165540e+01 2.760795e+01 7.195938e+00 4.261811e+01 2.463388e+01 1.217201e+01 4.438568e+01 3.803496e+01 4.876528e+01 6.812321e+01 4.224317e+01 8.671886e+01 -5.303611e+01 -1.946459e+01 1.171425e+02 -3.227151e+01 4.243718e+01 4.748055e+01 5.410226e+01 1.001423e+02 1.405722e+00 7.169403e+01 -3.346285e+01 1.818652e-01 3.641680e+01 2.968936e+01 5.798748e+01 5.494531e+00 6.626415e+01 2.433818e+01 1.110441e+02 4.298401e+01 7.562493e+01 1.854827e+01 7.491096e+01 7.353794e+01 -4.433581e+01 -5.939888e+00 -2.667241e+00 -4.379610e+01 -7.607488e+01 2.539015e+02 
4.335126e+01 9.070937e+01 -8.410989e+01 1.628200e+02 6.076327e+00 1.944585e+02 4.332018e+00 1.692719e+02 -3.640038e+01 1.095494e+02 -5.656569e+01 5.104476e+01 2.172407e+01 1.315854e+01 6.431116e+01 5.669394e+01 7.299390e+01 6.176599e+01 3.640068e+01 2.106305e+01 1.996402e+01 6.054467e+01 6.199760e+01 4.006909e+01 -2.802774e+01 1.514962e+01 -1.303038e+01 3.760695e+01 -2.288117e+01 6.631071e+01 8.538908e+00 6.522058e+01 1.156585e+01 2.943261e+01 6.460371e+01 2.294641e+01 8.367893e+01 -2.089145e+00 -4.013136e+01 -1.355405e+01 3.814839e+01 -2.449202e+01 -4.227421e+01 -1.098337e+02 3.441581e+01 2.586570e+02 1.229348e+02 1.057420e+02 6.921524e+01 6.554482e+00 -2.844461e+01 -4.184734e+01 -1.551906e+00 5.598316e+01 -4.504895e+01 1.213759e+02 -1.971343e+01 4.588375e+01 -4.272474e+00 5.458256e-01 -4.118510e+01 7.689460e+01 -1.551974e+01 2.009247e+02 
8.711594e+00 2.535567e+02 5.174551e+01 2.313976e+02 3.758205e+01 2.078084e+02 1.212989e+02 2.317759e+02 1.028951e+02 2.026710e+02 4.541489e+00 1.183495e+02 4.375903e+01 6.123586e+01 5.008933e+01 4.377523e+01 4.402592e+01 2.490920e+01 5.225382e+01 7.287679e+01 2.887964e+01 3.603384e+01 4.925096e+01 4.770229e+01 2.445752e+01 3.369102e+01 -2.970465e+01 4.256542e+01 2.007790e+01 3.125308e+01 3.769200e+01 4.892781e+01 9.276318e+00 2.454688e+01 2.887873e+01 -5.033490e+01 -1.147659e+01 7.711569e+01 -4.558229e+01 4.586467e+01 3.595117e+00 4.703662e+01 1.680981e+01 1.335912e+02 4.653728e+01 1.349311e+02 -3.096469e+01 1.143572e+02 6.921586e+00 1.159789e+02 1.660644e+01 2.270813e+00 -3.003313e+01 -3.366064e+01 -2.058801e+01 -2.807597e+01 -2.823428e+01 4.330234e+01 3.928151e+01 1.960512e-01 -9.441815e+00 8.239528e+00 1.260298e+02 6.155383e+01 
1.376528e+02 2.340870e+02 1.031447e+02 6.760388e+01 1.985741e+01 6.742015e+01 -6.786205e+01 8.269198e+01 -4.577795e+01 7.412831e+01 3.220808e+01 1.542291e+02 1.606004e+02 1.235692e+02 1.362330e+02 6.049256e+01 6.288338e+01 5.173581e+01 2.710744e+01 5.528409e+01 8.997157e+01 -1.653277e+01 4.795940e+01 5.320479e+01 1.119757e+02 1.798883e+01 1.646789e+01 5.854762e+01 -7.880888e+00 8.066520e+01 1.490986e+00 5.790090e+01 -1.083164e+01 -6.604567e-01 2.263639e+01 3.998721e+01 -6.351675e+01 8.122227e+01 5.987056e+01 2.435037e+01 -1.075359e+02 -3.524984e+01 -3.646312e+01 -4.010805e+01 -7.174199e+01 -9.144835e+01 -1.193820e+02 1.138988e+01 8.082805e+01 2.248175e+00 5.128753e+01 -2.270054e+00 -7.607178e+01 5.289315e+01 -2.142350e+01 -3.556164e+01 -2.699230e+01 8.254274e+00 -4.296047e+01 4.101252e+01 -7.124197e+01 -2.373208e+01 7.360657e+01 1.748284e+02 
8.563854e+01 4.800291e+01 7.752780e+01 3.141902e+01 2.574313e+00 3.349632e+01 7.099987e-01 5.768934e+01 -4.597831e+01 -3.147255e-01 9.092324e+01 1.602349e+02 2.126345e+02 1.312704e+02 1.457363e+02 4.397058e+01 9.732237e+01 1.297009e+01 4.370113e+01 2.322939e+01 2.707213e+01 -2.153818e+01 6.375018e+01 9.703840e-01 1.263434e+01 2.343759e+01 -1.896121e+01 -5.652147e+01 -2.957960e+01 -3.742584e+01 -2.730421e+01 -5.566891e+00 2.468044e+01 9.951159e+00 -9.869976e+00 1.435987e+02 -6.106681e+01 4.733781e+00 1.411084e+00 9.382804e+01 5.099625e-01 3.743537e+01 1.078937e+02 3.089757e+01 2.731651e+01 4.215470e+01 -8.412752e+01 -5.795380e+01 1.578841e+00 1.650299e+01 -4.633700e+01 -2.707954e+01 4.665769e+01 2.921345e+01 -5.854642e+01 1.145933e+02 -3.570446e+01 1.518989e+01 -5.155654e+01 9.295799e+01 2.504664e+01 1.962432e+01 -6.108085e+01 1.536120e+02 