# vtk DataFile Version 2.0
Comment goes here
ASCII

DATASET STRUCTURED_POINTS
FIELD FieldData 1
TIME 1 1 double
0.05200000
DIMENSIONS    64   64   1

ORIGIN    0.000   0.000   0.000
SPACING   0.03125 0.03125   1.000

POINT_DATA   4096
SCALARS uX double
LOOKUP_TABLE default

7.596936e-01 -1.493439e+00 5.028971e-01 -1.433010e+00 3.097589e-01 -1.351223e+00 3.593645e-01 -1.175178e+00 2.797222e-01 -9.700576e-01 1.476734e-01 -7.762707e-01 2.011415e-02 -6.221279e-01 -7.441661e-02 -5.146839e-01 -1.313725e-01 -4.461728e-01 -1.611148e-01 -4.038799e-01 -1.724514e-01 -3.788917e-01 -1.741848e-01 -3.518583e-01 -2.017906e-01 -2.733816e-01 -3.033322e-01 -1.140324e-01 -4.803780e-01 1.091790e-01 -7.113094e-01 3.624932e-01 -9.510229e-01 6.024750e-01 -1.163429e+00 7.936900e-01 -1.308903e+00 8.959516e-01 -1.354134e+00 8.971875e-01 -1.305260e+00 8.054910e-01 -1.177514e+00 6.435929e-01 -9.974521e-01 4.392336e-01 -7.859594e-01 2.139367e-01 -5.667814e-01 -1.127561e-02 -3.633532e-01 -2.110881e-01 -1.980549e-01 -3.767775e-01 -7.141654e-02 -5.153917e-01 2.956044e-02 -6.478299e-01 1.292729e-01 -8.082698e-01 2.671870e-01 -1.034517e+00 4.605246e-01 -1.323426e+00 
-6.099199e-01 3.601237e-01 -2.266172e-01 3.002681e-01 -1.164703e-03 2.629671e-01 -1.847263e-01 1.566020e-01 -2.428149e-01 5.160434e-02 -2.464747e-01 -3.946442e-02 -2.380151e-01 -1.062729e-01 -2.371437e-01 -1.484813e-01 -2.479887e-01 -1.737798e-01 -2.651138e-01 -1.893226e-01 -2.855463e-01 -1.971688e-01 -3.087562e-01 -2.078495e-01 -3.162537e-01 -2.455361e-01 -2.798346e-01 -3.272997e-01 -2.014046e-01 -4.420583e-01 -9.343229e-02 -5.726460e-01 2.099393e-02 -6.963649e-01 1.239665e-01 -7.951507e-01 1.943932e-01 -8.464897e-01 2.150997e-01 -8.440849e-01 1.883324e-01 -7.937251e-01 1.247845e-01 -7.089671e-01 3.810626e-02 -6.014741e-01 -6.241189e-02 -4.839061e-01 -1.644307e-01 -3.658127e-01 -2.557985e-01 -2.608584e-01 -3.224984e-01 -1.736684e-01 -3.637620e-01 -1.014133e-01 -3.833442e-01 -3.465309e-02 -3.917872e-01 4.526322e-02 -4.113306e-01 1.626268e-01 -4.505991e-01 3.196139e-01 
1.066431e+00 6.636210e-01 1.022002e+00 6.231384e-01 7.581330e-01 5.644157e-01 1.221300e+00 5.115188e-01 1.581359e+00 3.914103e-01 1.877605e+00 2.646869e-01 2.110259e+00 1.631043e-01 2.282971e+00 9.526320e-02 2.405546e+00 5.773997e-02 2.493617e+00 4.093375e-02 2.556072e+00 3.977769e-02 2.602266e+00 4.768304e-02 2.650682e+00 2.049829e-02 2.742300e+00 -6.066830e-02 2.877046e+00 -1.857187e-01 3.042533e+00 -3.304518e-01 3.209086e+00 -4.685888e-01 3.353771e+00 -5.793709e-01 3.450193e+00 -6.360293e-01 3.474389e+00 -6.312951e-01 3.433876e+00 -5.712322e-01 3.338157e+00 -4.718076e-01 3.206567e+00 -3.491955e-01 3.049794e+00 -2.161107e-01 2.880602e+00 -8.273496e-02 2.712544e+00 3.199743e-02 2.558286e+00 1.216059e-01 2.413989e+00 1.901010e-01 2.268875e+00 2.505777e-01 2.103014e+00 3.252017e-01 1.879171e+00 4.504023e-01 1.565654e+00 6.398257e-01 
3.103808e+00 -3.236889e-02 2.179243e+00 -1.206641e-01 1.085927e+00 -8.751432e-02 2.378049e+00 -2.367706e-02 3.083536e+00 3.267988e-02 3.543766e+00 8.155309e-02 3.880658e+00 1.189843e-01 4.146432e+00 1.451603e-01 4.363979e+00 1.638104e-01 4.541106e+00 1.775206e-01 4.687385e+00 1.834498e-01 4.812046e+00 1.825743e-01 4.910223e+00 1.915304e-01 4.968187e+00 2.199106e-01 4.992279e+00 2.626084e-01 4.990183e+00 3.125701e-01 4.974962e+00 3.609309e-01 4.952356e+00 4.017186e-01 4.931747e+00 4.232773e-01 4.921305e+00 4.227397e-01 4.916045e+00 4.054628e-01 4.910721e+00 3.782958e-01 4.898805e+00 3.447435e-01 4.875500e+00 3.087446e-01 4.834718e+00 2.719430e-01 4.768587e+00 2.423080e-01 4.667040e+00 2.228184e-01 4.526573e+00 2.120274e-01 4.342156e+00 2.045578e-01 4.107554e+00 1.873941e-01 3.820596e+00 1.375456e-01 3.463569e+00 3.317454e-02 
3.137959e+00 1.053334e-01 2.418317e+00 -1.986462e-02 1.515047e+00 -6.996615e-03 2.521258e+00 -1.551569e-02 3.172830e+00 2.258647e-02 3.627396e+00 6.648848e-02 3.967946e+00 1.070536e-01 4.234377e+00 1.427992e-01 4.447387e+00 1.729408e-01 4.615517e+00 1.988577e-01 4.749230e+00 2.187003e-01 4.856355e+00 2.270725e-01 4.940450e+00 2.366138e-01 4.998321e+00 2.506396e-01 5.035888e+00 2.680941e-01 5.055968e+00 2.860003e-01 5.065540e+00 3.028634e-01 5.066595e+00 3.184007e-01 5.062811e+00 3.286658e-01 5.058204e+00 3.317119e-01 5.045970e+00 3.296113e-01 5.024938e+00 3.247183e-01 4.992309e+00 3.156946e-01 4.944774e+00 3.038199e-01 4.880730e+00 2.875717e-01 4.795369e+00 2.716427e-01 4.681892e+00 2.581853e-01 4.538220e+00 2.475066e-01 4.358515e+00 2.381415e-01 4.133844e+00 2.263082e-01 3.855718e+00 1.948949e-01 3.513169e+00 1.172188e-01 
3.244304e+00 -1.225879e-02 2.647210e+00 -4.582243e-02 1.932654e+00 -4.979031e-02 2.652761e+00 -1.629868e-02 3.250478e+00 2.683292e-02 3.686823e+00 6.853387e-02 4.014412e+00 1.059649e-01 4.271294e+00 1.378876e-01 4.477865e+00 1.642905e-01 4.641832e+00 1.863980e-01 4.773926e+00 2.030203e-01 4.881219e+00 2.154876e-01 4.960187e+00 2.316536e-01 5.011683e+00 2.558198e-01 5.039443e+00 2.870127e-01 5.047356e+00 3.214774e-01 5.043432e+00 3.541788e-01 5.031552e+00 3.821387e-01 5.019358e+00 4.000175e-01 5.010900e+00 4.042669e-01 5.000152e+00 3.971853e-01 4.985795e+00 3.807576e-01 4.964233e+00 3.573405e-01 4.930222e+00 3.300137e-01 4.879848e+00 3.004982e-01 4.805639e+00 2.730441e-01 4.702834e+00 2.490624e-01 4.568663e+00 2.269430e-01 4.399598e+00 2.025864e-01 4.190807e+00 1.690512e-01 3.936119e+00 1.175684e-01 3.624092e+00 4.713825e-02 
3.384742e+00 9.160877e-02 2.909609e+00 4.551541e-02 2.329593e+00 4.100674e-02 2.867697e+00 3.057687e-02 3.361916e+00 4.588882e-02 3.753435e+00 7.471153e-02 4.060052e+00 1.084490e-01 4.305143e+00 1.428013e-01 4.504474e+00 1.745583e-01 4.661570e+00 2.020574e-01 4.786015e+00 2.233984e-01 4.887089e+00 2.372672e-01 4.960309e+00 2.492276e-01 5.012544e+00 2.617517e-01 5.050099e+00 2.745330e-01 5.071062e+00 2.881906e-01 5.083103e+00 3.015874e-01 5.087538e+00 3.142822e-01 5.086923e+00 3.238703e-01 5.084904e+00 3.273376e-01 5.071355e+00 3.271804e-01 5.048648e+00 3.240033e-01 5.017964e+00 3.163011e-01 4.971398e+00 3.056285e-01 4.910124e+00 2.910932e-01 4.830046e+00 2.746607e-01 4.724926e+00 2.586554e-01 4.594183e+00 2.433853e-01 4.435442e+00 2.276330e-01 4.243302e+00 2.078607e-01 4.011054e+00 1.775736e-01 3.729919e+00 1.350459e-01 
3.569125e+00 3.690252e-02 3.177747e+00 2.019997e-02 2.715005e+00 1.559838e-02 3.098927e+00 2.133250e-02 3.505946e+00 4.401468e-02 3.853693e+00 7.449668e-02 4.135175e+00 1.079316e-01 4.364911e+00 1.409329e-01 4.554738e+00 1.709455e-01 4.700916e+00 1.981788e-01 4.817870e+00 2.192458e-01 4.915870e+00 2.348669e-01 4.981257e+00 2.517723e-01 5.025984e+00 2.712369e-01 5.054718e+00 2.939828e-01 5.065927e+00 3.189216e-01 5.069678e+00 3.423220e-01 5.063346e+00 3.645708e-01 5.056732e+00 3.799594e-01 5.054913e+00 3.834286e-01 5.041978e+00 3.796630e-01 5.024709e+00 3.684242e-01 5.002185e+00 3.501157e-01 4.966341e+00 3.273435e-01 4.917678e+00 2.995659e-01 4.845922e+00 2.717258e-01 4.751209e+00 2.453525e-01 4.633848e+00 2.197510e-01 4.492130e+00 1.928521e-01 4.322110e+00 1.612765e-01 4.118019e+00 1.221002e-01 3.871371e+00 7.778752e-02 
3.756488e+00 1.088773e-01 3.447569e+00 8.800449e-02 3.080537e+00 8.344975e-02 3.358208e+00 6.964491e-02 3.671556e+00 7.104066e-02 3.961375e+00 8.728702e-02 4.209154e+00 1.148431e-01 4.418933e+00 1.495223e-01 4.599134e+00 1.857326e-01 4.737929e+00 2.163202e-01 4.845156e+00 2.381819e-01 4.940947e+00 2.522052e-01 4.999304e+00 2.633592e-01 5.040406e+00 2.733371e-01 5.078464e+00 2.812127e-01 5.094653e+00 2.906367e-01 5.106915e+00 3.013132e-01 5.113283e+00 3.130784e-01 5.113493e+00 3.228623e-01 5.120726e+00 3.258733e-01 5.105836e+00 3.269829e-01 5.081262e+00 3.257540e-01 5.058725e+00 3.184147e-01 5.013696e+00 3.088935e-01 4.957896e+00 2.946392e-01 4.888615e+00 2.756346e-01 4.793064e+00 2.545868e-01 4.678520e+00 2.337993e-01 4.547349e+00 2.139572e-01 4.395927e+00 1.931282e-01 4.218542e+00 1.684028e-01 4.008512e+00 1.395381e-01 
3.960901e+00 7.407849e-02 3.717007e+00 6.795624e-02 3.434534e+00 6.376431e-02 3.619425e+00 5.727479e-02 3.856979e+00 6.476975e-02 4.095727e+00 8.437549e-02 4.310680e+00 1.142402e-01 4.500934e+00 1.502580e-01 4.671924e+00 1.880618e-01 4.789973e+00 2.220250e-01 4.882616e+00 2.428713e-01 4.978248e+00 2.561987e-01 5.022955e+00 2.708744e-01 5.056396e+00 2.850276e-01 5.085833e+00 2.998473e-01 5.092983e+00 3.166929e-01 5.104113e+00 3.331621e-01 5.096636e+00 3.540786e-01 5.091811e+00 3.690040e-01 5.106829e+00 3.695122e-01 5.089188e+00 3.685079e-01 5.070522e+00 3.620854e-01 5.053706e+00 3.465216e-01 5.017721e+00 3.273402e-01 4.977831e+00 2.993809e-01 4.908757e+00 2.693679e-01 4.821542e+00 2.389008e-01 4.722638e+00 2.097592e-01 4.612389e+00 1.823819e-01 4.486519e+00 1.551095e-01 4.339599e+00 1.265169e-01 4.166237e+00 9.814606e-02 
4.158788e+00 1.270334e-01 3.977885e+00 1.208781e-01 3.769209e+00 1.169883e-01 3.882479e+00 9.922738e-02 4.046525e+00 9.012237e-02 4.228662e+00 9.404937e-02 4.405209e+00 1.153821e-01 4.570896e+00 1.554559e-01 4.732659e+00 2.123494e-01 4.846343e+00 2.460885e-01 4.920279e+00 2.605753e-01 5.023653e+00 2.743817e-01 5.055824e+00 2.799008e-01 5.074405e+00 2.887287e-01 5.123893e+00 2.884973e-01 5.124248e+00 2.888619e-01 5.135542e+00 3.027461e-01 5.145460e+00 3.148409e-01 5.138169e+00 3.232901e-01 5.172472e+00 3.278053e-01 5.151044e+00 3.283675e-01 5.116735e+00 3.317403e-01 5.118791e+00 3.222601e-01 5.070271e+00 3.121234e-01 5.020529e+00 3.047623e-01 4.970223e+00 2.821281e-01 4.877190e+00 2.490080e-01 4.777520e+00 2.194564e-01 4.678291e+00 1.971302e-01 4.572641e+00 1.789642e-01 4.453646e+00 1.615315e-01 4.316728e+00 1.438312e-01 
4.362664e+00 1.022348e-01 4.234633e+00 1.046336e-01 4.092269e+00 1.012472e-01 4.142745e+00 8.700076e-02 4.247854e+00 8.089033e-02 4.382617e+00 8.640099e-02 4.524651e+00 1.099346e-01 4.670989e+00 1.526858e-01 4.835791e+00 2.293495e-01 4.907088e+00 2.640851e-01 4.953797e+00 2.733851e-01 5.076311e+00 2.815835e-01 5.078479e+00 2.859013e-01 5.095626e+00 3.063333e-01 5.132811e+00 3.049204e-01 5.120492e+00 3.055338e-01 5.152576e+00 3.283638e-01 5.129517e+00 3.494862e-01 5.115685e+00 3.661584e-01 5.179310e+00 3.600726e-01 5.140006e+00 3.579437e-01 5.120270e+00 3.675833e-01 5.120579e+00 3.455739e-01 5.078723e+00 3.266736e-01 5.065734e+00 3.085802e-01 4.987510e+00 2.719382e-01 4.899202e+00 2.298198e-01 4.819247e+00 1.943060e-01 4.745445e+00 1.680842e-01 4.667879e+00 1.473996e-01 4.579729e+00 1.291839e-01 4.478102e+00 1.133833e-01 
4.556464e+00 1.433557e-01 4.479132e+00 1.480877e-01 4.396465e+00 1.451710e-01 4.392184e+00 1.242123e-01 4.438598e+00 1.027994e-01 4.521698e+00 8.457221e-02 4.626245e+00 8.311130e-02 4.751956e+00 1.220935e-01 4.914193e+00 3.049952e-01 4.988575e+00 2.940541e-01 4.985723e+00 2.772312e-01 5.152937e+00 3.208171e-01 5.124749e+00 2.749094e-01 5.098823e+00 3.324151e-01 5.198164e+00 2.993517e-01 5.147810e+00 2.470879e-01 5.171504e+00 3.314673e-01 5.187417e+00 3.173119e-01 5.139449e+00 3.120818e-01 5.260943e+00 3.497504e-01 5.206020e+00 3.119306e-01 5.139406e+00 3.603985e-01 5.210440e+00 3.287578e-01 5.133648e+00 2.838422e-01 5.100644e+00 3.525865e-01 5.081481e+00 3.106070e-01 4.957907e+00 2.359351e-01 4.872245e+00 1.926449e-01 4.813910e+00 1.730095e-01 4.759185e+00 1.628098e-01 4.698634e+00 1.551005e-01 4.630566e+00 1.482433e-01 
4.751016e+00 1.249567e-01 4.717387e+00 1.357310e-01 4.688903e+00 1.334188e-01 4.637598e+00 1.161896e-01 4.637994e+00 9.590279e-02 4.680305e+00 7.319068e-02 4.751257e+00 5.891146e-02 4.860856e+00 5.458997e-02 5.087755e+00 4.079478e-01 5.036711e+00 2.943056e-01 4.994091e+00 3.064745e-01 5.240399e+00 3.328660e-01 5.120489e+00 2.194653e-01 5.154150e+00 4.184768e-01 5.192978e+00 3.006909e-01 5.116597e+00 2.048778e-01 5.259437e+00 3.863808e-01 5.143989e+00 3.269763e-01 5.099468e+00 3.771836e-01 5.310556e+00 3.666224e-01 5.169156e+00 2.875393e-01 5.188172e+00 4.503914e-01 5.198581e+00 3.350996e-01 5.122307e+00 2.641856e-01 5.237107e+00 3.811232e-01 5.063183e+00 2.890795e-01 4.953914e+00 2.076691e-01 4.904965e+00 1.631942e-01 4.880783e+00 1.450590e-01 4.856057e+00 1.361904e-01 4.824702e+00 1.298025e-01 4.788347e+00 1.253748e-01 
4.933738e+00 1.586517e-01 4.941577e+00 1.738931e-01 4.962904e+00 1.721985e-01 4.866958e+00 1.564686e-01 4.817121e+00 1.296217e-01 4.804954e+00 7.765518e-02 4.827644e+00 -2.281560e-02 4.934429e+00 -1.651845e-01 5.200490e+00 7.309948e-01 5.125465e+00 2.149159e-01 4.980128e+00 1.635028e-01 5.405971e+00 5.720619e-01 5.130661e+00 -2.451013e-02 5.138259e+00 6.037397e-01 5.328691e+00 3.384440e-01 5.082923e+00 -1.246609e-01 5.301875e+00 6.600321e-01 5.213487e+00 2.290223e-01 5.055327e+00 1.987383e-01 5.481718e+00 5.831746e-01 5.199499e+00 3.043326e-02 5.173246e+00 6.042402e-01 5.356124e+00 3.683204e-01 5.125583e+00 -8.238253e-02 5.316346e+00 6.805768e-01 5.221079e+00 3.670368e-01 4.976429e+00 1.672599e-01 4.944106e+00 1.340464e-01 4.950118e+00 1.380681e-01 4.949891e+00 1.448091e-01 4.943393e+00 1.493459e-01 4.936105e+00 1.530219e-01 
5.114501e+00 1.452374e-01 5.158415e+00 1.654042e-01 5.224947e+00 1.643875e-01 5.089873e+00 1.566529e-01 5.001190e+00 1.393993e-01 4.953033e+00 9.742225e-02 4.945469e+00 1.666067e-02 4.981490e+00 -1.310907e-02 5.115992e+00 3.249684e-01 4.887114e+00 -2.005514e-01 4.975468e+00 5.742589e-02 5.260661e+00 3.096093e-01 4.942066e+00 -1.813459e-01 5.157788e+00 5.299237e-01 5.120576e+00 1.346415e-01 4.940857e+00 -1.078701e-01 5.290156e+00 6.701598e-01 4.952916e+00 -5.973502e-03 4.998225e+00 2.337950e-01 5.442049e+00 5.938810e-01 4.981644e+00 -5.693007e-02 5.208163e+00 7.471590e-01 5.222578e+00 3.125966e-01 4.996137e+00 -3.238741e-02 5.445275e+00 1.044374e+00 5.051372e+00 3.438926e-01 4.917209e+00 1.084849e-01 4.976492e+00 9.517969e-02 5.024844e+00 1.120982e-01 5.050127e+00 1.238239e-01 5.067108e+00 1.303977e-01 5.086101e+00 1.361176e-01 
5.281951e+00 1.735631e-01 5.360197e+00 1.980543e-01 5.468947e+00 1.976648e-01 5.301165e+00 1.997565e-01 5.173995e+00 2.056593e-01 5.066038e+00 2.229521e-01 4.926453e+00 2.443073e-01 4.601889e+00 2.068438e-01 3.704934e+00 -1.702488e+00 4.132391e+00 -8.235276e-01 4.345126e+00 -8.944240e-01 3.317058e+00 -1.513830e+00 4.089611e+00 -4.851872e-01 4.016787e+00 -1.575026e+00 3.785379e+00 -9.572129e-01 4.273490e+00 -2.531555e-01 3.784031e+00 -1.460256e+00 4.134105e+00 -6.975701e-01 4.324856e+00 -8.044860e-01 3.470721e+00 -1.237963e+00 4.077294e+00 -3.803757e-01 4.111154e+00 -1.282861e+00 3.902594e+00 -7.332299e-01 4.323799e+00 -1.147018e-01 4.090597e+00 -1.087249e+00 4.388495e+00 -4.768112e-01 4.869250e+00 -9.009351e-02 5.043836e+00 5.070701e-02 5.108016e+00 1.059441e-01 5.145632e+00 1.318397e-01 5.181084e+00 1.469682e-01 5.224207e+00 1.591528e-01 
5.445896e+00 1.635185e-01 5.554120e+00 1.905201e-01 5.700786e+00 1.907700e-01 5.498966e+00 1.985962e-01 5.332448e+00 2.173648e-01 5.169688e+00 2.672504e-01 4.940796e+00 3.464906e-01 4.487267e+00 3.063526e-01 3.551774e+00 -1.781865e+00 3.894727e+00 -7.013336e-01 4.094806e+00 -1.038767e+00 2.773374e+00 -1.838169e+00 3.762750e+00 -4.642304e-01 3.541504e+00 -2.270279e+00 3.303717e+00 -1.230954e+00 3.989661e+00 -3.027636e-01 3.065249e+00 -2.349974e+00 3.841553e+00 -9.001066e-01 3.996633e+00 -1.332773e+00 2.486787e+00 -2.102343e+00 3.725291e+00 -5.317744e-01 3.460478e+00 -2.455161e+00 3.277044e+00 -1.316713e+00 4.039320e+00 -3.030474e-01 3.120644e+00 -2.639846e+00 4.262012e+00 -9.706616e-01 4.999728e+00 -1.921246e-01 5.160091e+00 2.979912e-02 5.207810e+00 9.582836e-02 5.248702e+00 1.209430e-01 5.298663e+00 1.348352e-01 5.362604e+00 1.471590e-01 
5.595192e+00 1.868610e-01 5.732711e+00 2.141108e-01 5.914874e+00 2.148623e-01 5.692430e+00 2.162936e-01 5.509050e+00 2.138912e-01 5.350252e+00 2.097219e-01 5.200059e+00 2.048086e-01 5.063576e+00 2.091987e-01 5.189042e+00 4.027494e-01 4.776776e+00 1.665710e-03 4.844471e+00 7.668555e-02 4.875516e+00 4.524675e-02 4.654140e+00 -1.174563e-01 4.859666e+00 -6.220749e-02 4.644161e+00 -1.993732e-01 4.686637e+00 -7.849513e-02 4.768881e+00 -2.133911e-01 4.592686e+00 -3.532611e-01 4.766648e+00 -1.979292e-01 4.578466e+00 -3.760993e-01 4.594381e+00 -2.906401e-01 4.773701e+00 -3.984211e-01 4.555974e+00 -4.383514e-01 4.744894e+00 -1.393844e-01 4.725305e+00 -5.177406e-01 4.744781e+00 -3.755135e-01 5.042641e+00 -1.000037e-01 5.185680e+00 3.661522e-02 5.263682e+00 9.868030e-02 5.329074e+00 1.300679e-01 5.400323e+00 1.499215e-01 5.486602e+00 1.670237e-01 
5.740119e+00 1.775832e-01 5.903213e+00 2.037859e-01 6.116684e+00 2.050983e-01 5.872587e+00 2.037133e-01 5.670485e+00 1.880474e-01 5.506964e+00 1.408155e-01 5.396056e+00 2.687233e-02 5.415746e+00 -1.350265e-01 5.641340e+00 8.846852e-01 5.454945e+00 2.842031e-01 5.225697e+00 2.445291e-01 5.679591e+00 7.173409e-01 5.269599e+00 -2.163273e-02 5.313965e+00 7.668742e-01 5.433394e+00 3.551599e-01 5.131501e+00 -1.414352e-01 5.449977e+00 8.293736e-01 5.212045e+00 1.258304e-01 5.124468e+00 2.283350e-01 5.634626e+00 6.648200e-01 5.202896e+00 -1.022038e-01 5.329310e+00 7.379361e-01 5.447298e+00 2.881877e-01 5.211406e+00 -1.699362e-01 5.571950e+00 9.201589e-01 5.314963e+00 2.716336e-01 5.182429e+00 6.497104e-02 5.255752e+00 7.388632e-02 5.339223e+00 1.045543e-01 5.418123e+00 1.264598e-01 5.505068e+00 1.425413e-01 5.609812e+00 1.581180e-01 
5.870143e+00 1.977387e-01 6.057825e+00 2.231710e-01 6.301038e+00 2.249245e-01 6.047043e+00 2.240409e-01 5.839077e+00 2.132045e-01 5.677849e+00 1.884522e-01 5.574399e+00 1.419824e-01 5.567220e+00 7.948208e-02 5.669969e+00 4.696385e-01 5.522723e+00 3.486927e-01 5.368815e+00 3.067909e-01 5.586833e+00 4.429864e-01 5.396177e+00 1.980020e-01 5.357376e+00 5.023641e-01 5.428967e+00 3.475161e-01 5.273788e+00 7.345943e-02 5.424912e+00 4.966678e-01 5.327574e+00 2.947137e-01 5.215188e+00 2.725302e-01 5.530740e+00 4.560271e-01 5.340139e+00 1.384903e-01 5.335663e+00 5.196421e-01 5.463751e+00 3.478998e-01 5.319672e+00 3.213359e-02 5.504526e+00 5.903434e-01 5.440532e+00 3.414831e-01 5.304707e+00 1.569138e-01 5.332866e+00 1.205617e-01 5.407034e+00 1.281982e-01 5.494269e+00 1.433543e-01 5.595963e+00 1.592485e-01 5.718799e+00 1.766082e-01 
5.994874e+00 1.893001e-01 6.204081e+00 2.120269e-01 6.472978e+00 2.142340e-01 6.205520e+00 2.110748e-01 5.985163e+00 1.974118e-01 5.814593e+00 1.766680e-01 5.699080e+00 1.669162e-01 5.642371e+00 2.085755e-01 5.635166e+00 3.533477e-01 5.579992e+00 3.458281e-01 5.468779e+00 3.547371e-01 5.560610e+00 3.677947e-01 5.445749e+00 3.196723e-01 5.381548e+00 4.072741e-01 5.420330e+00 3.293357e-01 5.332425e+00 2.640826e-01 5.383896e+00 3.719516e-01 5.334991e+00 3.312716e-01 5.285365e+00 3.471309e-01 5.463318e+00 3.589668e-01 5.369437e+00 2.967768e-01 5.357837e+00 4.097332e-01 5.433502e+00 3.297041e-01 5.379687e+00 2.593126e-01 5.478693e+00 4.005482e-01 5.426992e+00 3.033416e-01 5.377879e+00 1.985289e-01 5.406840e+00 1.513672e-01 5.479250e+00 1.412321e-01 5.573448e+00 1.455996e-01 5.687223e+00 1.557752e-01 5.825378e+00 1.701045e-01 
6.105149e+00 2.078435e-01 6.334285e+00 2.303682e-01 6.627662e+00 2.330044e-01 6.352594e+00 2.339777e-01 6.125307e+00 2.285791e-01 5.946167e+00 2.215467e-01 5.815892e+00 2.248513e-01 5.731866e+00 2.571132e-01 5.681817e+00 3.219466e-01 5.625337e+00 3.457361e-01 5.538990e+00 3.519305e-01 5.559341e+00 3.563389e-01 5.487966e+00 3.408816e-01 5.421327e+00 3.582960e-01 5.440580e+00 3.327106e-01 5.384776e+00 2.985336e-01 5.386604e+00 3.310457e-01 5.375988e+00 3.303727e-01 5.342787e+00 3.240248e-01 5.438757e+00 3.373775e-01 5.405158e+00 3.165157e-01 5.381027e+00 3.417412e-01 5.446985e+00 3.229638e-01 5.422047e+00 2.843982e-01 5.460455e+00 3.250086e-01 5.479459e+00 2.890994e-01 5.453629e+00 2.203376e-01 5.477545e+00 1.781613e-01 5.545853e+00 1.631176e-01 5.643683e+00 1.637029e-01 5.767118e+00 1.727905e-01 5.918935e+00 1.876731e-01 
6.209064e+00 2.006983e-01 6.455668e+00 2.207502e-01 6.769803e+00 2.237929e-01 6.483718e+00 2.251029e-01 6.244312e+00 2.220373e-01 6.051158e+00 2.219834e-01 5.901983e+00 2.360858e-01 5.792236e+00 2.697895e-01 5.721554e+00 3.097106e-01 5.660852e+00 3.370676e-01 5.587931e+00 3.543563e-01 5.575426e+00 3.524932e-01 5.507433e+00 3.515806e-01 5.451092e+00 3.547474e-01 5.444023e+00 3.386045e-01 5.400460e+00 3.281919e-01 5.394769e+00 3.321377e-01 5.378069e+00 3.384658e-01 5.365972e+00 3.430486e-01 5.426283e+00 3.379046e-01 5.406949e+00 3.355041e-01 5.402938e+00 3.391885e-01 5.442165e+00 3.262799e-01 5.439871e+00 3.106622e-01 5.478731e+00 3.000392e-01 5.488514e+00 2.689829e-01 5.493289e+00 2.237877e-01 5.531260e+00 1.882797e-01 5.605667e+00 1.699396e-01 5.710596e+00 1.654301e-01 5.843904e+00 1.704460e-01 6.008128e+00 1.825507e-01 
6.299114e+00 2.178391e-01 6.561295e+00 2.381738e-01 6.894824e+00 2.415965e-01 6.601069e+00 2.461158e-01 6.353991e+00 2.473796e-01 6.151274e+00 2.512142e-01 5.990088e+00 2.647778e-01 5.866444e+00 2.894527e-01 5.778193e+00 3.157086e-01 5.706554e+00 3.390386e-01 5.633723e+00 3.529088e-01 5.598618e+00 3.523767e-01 5.538947e+00 3.501037e-01 5.484402e+00 3.456779e-01 5.467910e+00 3.345427e-01 5.431144e+00 3.252332e-01 5.414652e+00 3.225599e-01 5.405475e+00 3.257898e-01 5.397355e+00 3.272325e-01 5.432715e+00 3.251776e-01 5.428712e+00 3.226524e-01 5.426543e+00 3.198354e-01 5.460389e+00 3.116591e-01 5.467303e+00 2.987613e-01 5.494818e+00 2.855019e-01 5.524988e+00 2.624619e-01 5.543529e+00 2.292821e-01 5.585026e+00 2.004312e-01 5.660919e+00 1.839418e-01 5.769921e+00 1.798034e-01 5.910691e+00 1.853939e-01 6.085302e+00 1.985337e-01 
6.381806e+00 2.116378e-01 6.657537e+00 2.302718e-01 7.007207e+00 2.340485e-01 6.703579e+00 2.395799e-01 6.445568e+00 2.427497e-01 6.230555e+00 2.496381e-01 6.055828e+00 2.658526e-01 5.919014e+00 2.903148e-01 5.819812e+00 3.152435e-01 5.739488e+00 3.377572e-01 5.664255e+00 3.526346e-01 5.618529e+00 3.544868e-01 5.554866e+00 3.540749e-01 5.500617e+00 3.502330e-01 5.475100e+00 3.418129e-01 5.438903e+00 3.358638e-01 5.421329e+00 3.318047e-01 5.408518e+00 3.343528e-01 5.404203e+00 3.370486e-01 5.432149e+00 3.331876e-01 5.430778e+00 3.308523e-01 5.435451e+00 3.261094e-01 5.464520e+00 3.166580e-01 5.478822e+00 3.035228e-01 5.510618e+00 2.821547e-01 5.540011e+00 2.565054e-01 5.569389e+00 2.270978e-01 5.621327e+00 2.009627e-01 5.705406e+00 1.843645e-01 5.822268e+00 1.785781e-01 5.971785e+00 1.822260e-01 6.156448e+00 1.936976e-01 
6.451170e+00 2.271670e-01 6.738432e+00 2.464855e-01 7.102577e+00 2.505709e-01 6.791563e+00 2.574079e-01 6.526526e+00 2.607759e-01 6.304034e+00 2.658198e-01 6.121537e+00 2.786811e-01 5.975872e+00 3.005612e-01 5.865332e+00 3.255260e-01 5.784374e+00 3.454536e-01 5.699893e+00 3.540877e-01 5.646415e+00 3.588980e-01 5.583776e+00 3.545150e-01 5.522530e+00 3.460737e-01 5.500780e+00 3.375348e-01 5.461380e+00 3.276980e-01 5.436343e+00 3.237759e-01 5.431348e+00 3.227022e-01 5.423305e+00 3.215517e-01 5.447882e+00 3.234839e-01 5.451325e+00 3.189452e-01 5.451236e+00 3.124842e-01 5.488091e+00 3.054344e-01 5.502080e+00 2.937987e-01 5.528017e+00 2.810422e-01 5.572884e+00 2.598080e-01 5.605431e+00 2.306795e-01 5.658590e+00 2.055981e-01 5.745882e+00 1.912634e-01 5.867729e+00 1.880253e-01 6.023705e+00 1.940244e-01 6.216302e+00 2.075545e-01 
6.512412e+00 2.213913e-01 6.809433e+00 2.398118e-01 7.185241e+00 2.441804e-01 6.865681e+00 2.517130e-01 6.591674e+00 2.553852e-01 6.359960e+00 2.603592e-01 6.168887e+00 2.734137e-01 6.016658e+00 2.976511e-01 5.900704e+00 3.289049e-01 5.811341e+00 3.486947e-01 5.717808e+00 3.545125e-01 5.665891e+00 3.625928e-01 5.593935e+00 3.580667e-01 5.527894e+00 3.518812e-01 5.507280e+00 3.437513e-01 5.463274e+00 3.326529e-01 5.440310e+00 3.325711e-01 5.431125e+00 3.308089e-01 5.420718e+00 3.282555e-01 5.453246e+00 3.320478e-01 5.451548e+00 3.255858e-01 5.451844e+00 3.200210e-01 5.494784e+00 3.109633e-01 5.509519e+00 2.957958e-01 5.541849e+00 2.844174e-01 5.585330e+00 2.597087e-01 5.619090e+00 2.270263e-01 5.679220e+00 2.010070e-01 5.775027e+00 1.869360e-01 5.904950e+00 1.837966e-01 6.068602e+00 1.894431e-01 6.269042e+00 2.023932e-01 
6.560752e+00 2.355070e-01 6.865362e+00 2.552420e-01 7.250981e+00 2.598476e-01 6.924606e+00 2.678775e-01 6.644205e+00 2.689527e-01 6.406316e+00 2.659036e-01 6.211145e+00 2.674408e-01 6.057020e+00 2.913456e-01 5.928882e+00 3.520750e-01 5.859137e+00 3.649681e-01 5.740725e+00 3.453051e-01 5.693754e+00 3.831305e-01 5.624162e+00 3.581247e-01 5.531145e+00 3.481408e-01 5.539375e+00 3.452545e-01 5.479320e+00 3.107633e-01 5.442116e+00 3.342485e-01 5.455421e+00 3.200466e-01 5.426505e+00 2.986316e-01 5.475276e+00 3.391071e-01 5.475568e+00 3.125082e-01 5.451415e+00 3.071398e-01 5.528421e+00 3.068327e-01 5.530510e+00 2.759440e-01 5.550101e+00 3.029672e-01 5.623217e+00 2.790619e-01 5.640898e+00 2.274686e-01 5.698341e+00 1.969166e-01 5.799864e+00 1.866759e-01 5.935937e+00 1.885935e-01 6.105070e+00 1.983124e-01 6.311080e+00 2.142758e-01 
6.600455e+00 2.299285e-01 6.911054e+00 2.494987e-01 7.303965e+00 2.543095e-01 6.970447e+00 2.630346e-01 6.682719e+00 2.635442e-01 6.437565e+00 2.574327e-01 6.236963e+00 2.520362e-01 6.084719e+00 2.677329e-01 5.965934e+00 3.843729e-01 5.875528e+00 3.682575e-01 5.737840e+00 3.356998e-01 5.722219e+00 3.995097e-01 5.621705e+00 3.466950e-01 5.525975e+00 3.686716e-01 5.545786e+00 3.511183e-01 5.468263e+00 2.913066e-01 5.454251e+00 3.621476e-01 5.446129e+00 3.221355e-01 5.407880e+00 2.951981e-01 5.497924e+00 3.597908e-01 5.465523e+00 3.029363e-01 5.444931e+00 3.303584e-01 5.537601e+00 3.135813e-01 5.526994e+00 2.546503e-01 5.576906e+00 3.338149e-01 5.626765e+00 2.820568e-01 5.635535e+00 2.167738e-01 5.702699e+00 1.855967e-01 5.814989e+00 1.781678e-01 5.958964e+00 1.821370e-01 6.134077e+00 1.926786e-01 6.345399e+00 2.087659e-01 
6.627488e+00 2.430710e-01 6.941781e+00 2.646958e-01 7.340097e+00 2.696787e-01 7.001069e+00 2.809046e-01 6.706991e+00 2.816768e-01 6.452459e+00 2.652134e-01 6.243528e+00 2.164273e-01 6.106773e+00 1.560922e-01 5.990933e+00 5.328655e-01 5.933167e+00 3.885039e-01 5.717788e+00 2.194021e-01 5.775218e+00 5.493153e-01 5.645486e+00 2.687202e-01 5.495027e+00 3.892230e-01 5.608500e+00 4.042777e-01 5.453237e+00 1.375925e-01 5.455023e+00 4.833764e-01 5.475526e+00 2.931108e-01 5.372705e+00 1.587765e-01 5.559527e+00 5.053333e-01 5.480215e+00 2.062434e-01 5.412803e+00 3.451880e-01 5.603470e+00 3.584377e-01 5.519720e+00 8.714269e-02 5.593753e+00 4.850079e-01 5.684132e+00 3.275737e-01 5.623442e+00 1.865880e-01 5.701079e+00 1.635738e-01 5.827178e+00 1.711420e-01 5.977231e+00 1.842974e-01 6.155415e+00 2.000485e-01 6.369387e+00 2.194250e-01 
6.645573e+00 2.375048e-01 6.962136e+00 2.594189e-01 7.363439e+00 2.645218e-01 7.019094e+00 2.773965e-01 6.718820e+00 2.798829e-01 6.456177e+00 2.639055e-01 6.237208e+00 2.117521e-01 6.089836e+00 1.426002e-01 5.996260e+00 5.657198e-01 5.876524e+00 3.196436e-01 5.662623e+00 1.789863e-01 5.764543e+00 5.710193e-01 5.569030e+00 1.837082e-01 5.464463e+00 3.841403e-01 5.567828e+00 3.775543e-01 5.381169e+00 8.845687e-02 5.437257e+00 5.050902e-01 5.394558e+00 2.166267e-01 5.311901e+00 1.314146e-01 5.533815e+00 5.144822e-01 5.388522e+00 1.232401e-01 5.380305e+00 3.363030e-01 5.552873e+00 3.220163e-01 5.451296e+00 4.318923e-02 5.592727e+00 5.118298e-01 5.614455e+00 2.726811e-01 5.584026e+00 1.453707e-01 5.693850e+00 1.432463e-01 5.832949e+00 1.610034e-01 5.988121e+00 1.778218e-01 6.169091e+00 1.944883e-01 6.385298e+00 2.138744e-01 
6.650904e+00 2.494979e-01 6.967650e+00 2.731614e-01 7.369969e+00 2.783152e-01 7.024574e+00 2.960159e-01 6.721665e+00 3.118333e-01 6.446490e+00 3.328724e-01 6.180149e+00 3.673967e-01 5.876198e+00 3.671025e-01 5.587572e+00 -3.007124e-01 5.289446e+00 -1.359338e-01 5.330557e+00 3.599745e-02 4.937607e+00 -5.169610e-01 4.994762e+00 -1.051990e-01 5.097819e+00 -3.402991e-01 4.757514e+00 -3.519141e-01 4.959952e+00 3.870595e-02 4.885967e+00 -5.334832e-01 4.827484e+00 -2.268341e-01 4.980263e+00 -7.293370e-02 4.598902e+00 -6.430289e-01 4.814155e+00 -1.668449e-01 4.993238e+00 -4.260598e-01 4.715267e+00 -4.216138e-01 5.017417e+00 2.303241e-03 5.040453e+00 -6.473604e-01 5.118582e+00 -3.117551e-01 5.505760e+00 5.858024e-04 5.701386e+00 1.146175e-01 5.843475e+00 1.584450e-01 5.995370e+00 1.824843e-01 6.174826e+00 2.024389e-01 6.390601e+00 2.240273e-01 
6.647211e+00 2.432520e-01 6.962780e+00 2.668581e-01 7.363692e+00 2.720168e-01 7.016633e+00 2.915471e-01 6.710725e+00 3.130184e-01 6.427543e+00 3.503302e-01 6.135903e+00 4.215120e-01 5.751344e+00 4.429544e-01 5.339237e+00 -7.797249e-01 4.993847e+00 -3.682008e-01 5.160678e+00 -6.220109e-02 4.493204e+00 -1.078536e+00 4.718692e+00 -2.370412e-01 4.897562e+00 -7.046427e-01 4.354370e+00 -6.969042e-01 4.756325e+00 1.354886e-02 4.591959e+00 -1.024108e+00 4.567172e+00 -4.057429e-01 4.819006e+00 -1.726409e-01 4.147684e+00 -1.157854e+00 4.561293e+00 -2.694704e-01 4.800185e+00 -7.609684e-01 4.340619e+00 -7.274872e-01 4.825623e+00 -1.137879e-02 4.773855e+00 -1.144504e+00 4.920989e+00 -5.318915e-01 5.481321e+00 -4.565993e-02 5.704258e+00 1.068798e-01 5.844747e+00 1.558793e-01 5.994416e+00 1.793061e-01 6.172773e+00 1.979987e-01 6.387777e+00 2.184894e-01 
6.630527e+00 2.535100e-01 6.943327e+00 2.769131e-01 7.340582e+00 2.819488e-01 6.998403e+00 2.969625e-01 6.699837e+00 3.056975e-01 6.434448e+00 3.080845e-01 6.195230e+00 3.017002e-01 5.967777e+00 2.699964e-01 5.781712e+00 9.676700e-02 5.539652e+00 4.234984e-02 5.478699e+00 1.050193e-01 5.338896e+00 -1.441271e-02 5.251285e+00 7.201377e-03 5.283049e+00 2.692399e-02 5.152942e+00 -1.030916e-02 5.160169e+00 5.457629e-02 5.183633e+00 4.424893e-03 5.102413e+00 -1.860184e-02 5.148662e+00 4.466950e-02 5.110981e+00 -3.024960e-02 5.099959e+00 -2.788120e-02 5.208035e+00 9.392320e-03 5.169587e+00 -1.861171e-02 5.240460e+00 2.809444e-02 5.366209e+00 3.355740e-02 5.372575e+00 1.520204e-02 5.529923e+00 8.099367e-02 5.685332e+00 1.327860e-01 5.828276e+00 1.647174e-01 5.981703e+00 1.869297e-01 6.160206e+00 2.067177e-01 6.373531e+00 2.282601e-01 