# vtk DataFile Version 2.0
Comment goes here
ASCII

DATASET STRUCTURED_POINTS
FIELD FieldData 1
TIME 1 1 double
0.09500000
DIMENSIONS    64   64   1

ORIGIN    0.000   0.000   0.000
SPACING   0.03125 0.03125   1.000

POINT_DATA   4096
SCALARS Omega double
LOOKUP_TABLE default

-5.477593e+02 4.969618e+03 -2.430781e+03 -3.081684e+03 -2.164145e+02 3.502161e+02 -9.281141e+02 3.535030e+03 -2.281740e+03 1.419430e+03 -6.787056e+02 8.607666e+02 2.992345e+02 -2.000001e+03 1.328346e+03 -1.129612e+03 -6.669028e+02 -7.658641e+01 1.903391e+03 2.770008e+03 6.915646e+02 -4.480776e+02 -3.306864e+03 3.605715e+02 -1.142440e+03 -1.228361e+03 9.842692e+02 8.627980e+02 8.045390e+02 -7.429843e+01 6.128745e+02 4.790886e+02 3.832104e+02 8.610994e+02 -1.156405e+03 -3.863340e+02 -2.391879e+02 5.317786e+02 -9.861897e+02 -2.936995e+02 4.786347e+02 -5.600181e+02 1.296076e+01 -1.993340e+02 2.442991e+03 -9.557299e+02 1.304891e+03 1.400970e+03 -8.414719e+02 9.143480e+02 -1.870127e+02 8.019702e+02 -1.016154e+03 -4.668260e+02 3.081383e+03 -1.390281e+03 -2.146580e+03 1.953149e+03 -5.830061e+02 2.157279e+03 1.763129e+03 2.674737e+03 3.006498e+03 -3.148818e+03 
1.029267e+03 -5.233559e+03 8.265749e+02 4.197640e+03 1.268018e+02 2.304951e+03 -1.542024e+03 -8.849970e+02 1.107218e+03 -1.296001e+02 8.382965e+02 -1.246196e+03 7.810100e+02 4.242568e+00 1.392450e+03 -9.236211e+02 2.375906e+03 -1.472640e+03 -3.387862e+02 -3.039201e+03 -1.357211e+03 1.691716e+03 -1.611900e+01 -5.636025e+01 1.628059e+02 -6.861110e+02 -1.718635e+03 -2.153214e+03 -4.324599e+02 -2.771878e+03 -1.535516e+03 -2.240921e+03 -1.073515e+03 -1.144550e+03 -1.794005e+03 4.891302e+02 -3.778553e+02 -3.724700e+02 3.047129e+02 -3.571029e+02 -5.745996e+02 -4.710364e+02 -1.381498e+03 -1.067890e+03 -4.501348e+02 -1.263273e+03 1.621580e+02 -1.627669e+03 8.010295e+02 -5.760690e+02 -1.292386e+02 2.897595e+02 -1.936680e+03 5.220269e+03 -2.709378e+03 -1.953110e+02 3.926348e+03 -6.767990e+03 3.867736e+03 -1.029899e+03 -2.076909e+03 -1.272285e+03 -3.992856e+03 5.389759e+03 
-7.450010e+03 -9.273838e+02 3.055546e+03 -2.873321e+03 -1.485439e+03 -8.804951e+02 2.139992e+03 -4.396660e+03 -2.608792e+03 -5.652841e+03 -1.794169e+03 6.002154e+02 1.595238e+03 1.856675e+03 -1.910143e+03 -8.640079e+02 4.868609e+03 -6.046947e+02 5.142191e+02 4.177493e+02 6.313419e+03 2.513369e+03 1.034905e+03 6.035637e+01 -4.095452e+02 -6.766091e+02 -1.428143e+03 -2.329701e+03 -1.495748e+03 1.783228e+03 9.978315e+02 2.323339e+02 -1.977119e+02 1.176789e+02 -2.910440e+02 -2.598555e+03 -1.172660e+03 -6.000736e+02 -1.458296e+02 -2.496754e+02 -4.625972e+02 1.784033e+02 -1.391890e+02 -9.835298e+02 -1.951858e+03 -1.434923e+02 -9.861658e+02 -4.055026e+03 6.862700e+02 -2.566320e+03 2.263755e+03 1.262758e+02 2.375403e+03 -3.410422e+03 -2.154776e+03 3.660233e+03 1.660370e+02 -8.887283e+02 -1.486368e+03 -5.587476e+03 1.503948e+03 -2.912942e+03 2.145831e+03 5.996928e+02 
1.060674e+04 -1.026479e+03 -9.563107e+03 -1.620956e+03 2.494292e+03 -1.830750e+03 -6.757058e+03 -9.112056e+02 1.072498e+03 4.232252e+03 5.054308e+01 6.877059e+02 2.306639e+02 -5.951116e+02 4.114123e+03 4.475514e+03 -2.562649e+03 9.057748e+02 4.082169e+03 5.055198e+03 -1.250641e+03 -5.560213e+03 1.955215e+03 4.063783e+01 -1.183924e+03 1.402516e+03 1.121989e+02 4.096985e+03 4.030331e+03 -1.406551e+03 -8.282425e+02 4.293604e+03 -8.889091e+02 -3.168057e+03 2.002318e+03 2.357397e+03 1.233676e+03 -9.514075e+02 -8.374923e+02 2.571009e+02 6.895716e+02 3.818182e+02 -3.323511e+02 2.254551e+02 -3.812164e+02 -1.506624e+02 -6.740125e+02 -2.156433e+03 -1.077114e+03 1.183864e+03 -9.352559e+02 -4.824151e+03 -3.357056e+03 4.674740e+02 4.374039e+03 1.885346e+03 -9.755744e+03 8.135772e+03 7.415305e+02 6.239204e+03 -2.430959e+03 1.582334e+03 3.375502e+03 -3.694114e+03 
1.258942e+04 -8.707546e+03 2.610325e+03 -9.893230e+02 -1.491746e+03 -4.978706e+03 -9.915217e+02 9.709881e+03 6.738959e+03 5.529168e+03 1.364736e+03 -5.551690e+03 -2.484364e+03 1.042412e+03 1.077462e+03 -8.284300e+02 -5.547780e+03 2.338281e+03 -1.893831e+03 -4.888743e+03 -1.012341e+04 -4.153172e+03 3.749616e+03 -4.940167e+02 2.078211e+03 4.706528e+03 -4.918004e+02 -2.550851e+02 5.971902e+03 -1.135137e+03 -3.841100e+03 2.401864e+03 1.317890e+03 6.582326e+02 4.542245e+03 2.080653e+03 5.420423e+02 2.846788e+03 2.251125e+03 -3.124381e+02 -5.395763e+02 1.841942e+02 -7.018975e+02 -7.262496e+02 -3.542346e+02 2.003297e+03 -3.547644e+03 6.652032e+03 7.547396e+02 8.092538e+02 -6.760807e+03 1.787395e+03 1.965272e+03 2.510069e+02 -3.827397e+03 -1.298027e+04 3.441265e+03 3.323953e+03 -4.425939e+03 -1.918416e+03 1.037429e+04 4.857357e+03 -1.185522e+04 8.363523e+03 
-4.458236e+03 -1.222414e+04 1.094798e+04 5.673127e+01 -3.016706e+03 -5.051326e+03 2.076882e+01 3.533444e+03 4.110369e+03 -1.516650e+03 -3.467725e+03 -5.932646e+03 -1.138818e+04 -7.611453e+03 4.948710e+03 -2.965843e+03 -8.801919e+03 7.905608e+02 2.599589e+03 -6.663785e+02 -3.914776e+03 6.096090e+03 4.321130e+03 -6.979092e+03 3.860475e+02 3.426752e+03 3.008042e+03 6.144551e+03 -2.648952e+03 7.329990e+02 -2.123167e+02 -6.088022e+03 3.480331e+03 3.215680e+03 2.145551e+02 -8.087671e+02 -3.859110e+02 1.551609e+03 7.512447e+02 -2.223078e+03 -2.867399e+01 1.366363e+03 -1.123061e+03 -2.329651e+03 3.557040e+03 6.538045e+02 -2.184653e+02 6.757454e+01 5.304516e+02 -1.072952e+03 7.055259e+03 -4.392061e+03 4.302744e+03 3.752849e+03 -1.927541e+02 2.796349e+02 3.458023e+03 -3.472641e+03 1.171253e+03 7.955244e+03 1.868024e+02 -1.147245e+04 -5.242137e+03 1.724409e+03 
-1.160071e+04 7.966700e+03 -1.318394e+03 -3.857197e+03 -5.925957e+03 3.452515e+03 3.471473e+03 -5.878763e+03 -8.989956e+03 -5.775560e+03 2.350292e+03 4.060244e+03 -5.686453e+03 -6.072914e+03 -4.380401e+03 -7.676346e+03 -1.270388e+03 -1.724603e+02 -1.764530e+02 -3.431480e+02 2.880268e+03 -6.787622e+02 -4.025433e+03 -2.726592e+03 3.794464e+03 2.915432e+02 -6.994337e+02 -4.390295e+03 -6.476709e+03 6.727888e+02 2.809676e+03 -2.334624e+03 4.804568e+03 -6.481648e+03 -5.100579e+03 -2.089144e+03 7.829736e+02 2.837281e+03 5.559306e+01 -2.679016e+03 -1.550875e+03 9.357419e+01 1.363549e+03 -6.983126e+02 4.323027e+03 -2.064326e+03 6.527706e+03 -2.726291e+03 -6.549062e+03 6.130783e+03 1.123593e+03 1.097526e+03 -7.550780e+03 6.515350e+02 -5.338732e+03 4.757272e+02 9.930329e+03 -1.047694e+04 4.276793e+03 6.743667e+03 -1.274924e+04 -2.364030e+03 -5.460153e+02 1.002856e+03 
-3.813400e+02 8.978079e+03 -2.785823e+03 8.509169e+03 -4.055998e+03 7.112836e+03 8.644328e+03 6.399448e+03 -6.019034e+03 1.447829e+03 1.036224e+04 -9.416750e+02 -1.180849e+04 -4.224028e+03 -1.356360e+03 -2.184317e+03 -4.518761e+03 -4.286332e+03 -5.169420e+01 2.527847e+03 -6.054928e+03 -5.281498e+03 1.992126e+03 -4.355213e+03 -4.672441e+03 1.446377e+03 6.776944e+03 1.874968e+03 3.305293e+03 -2.737068e+03 -5.890211e+03 -4.144136e+03 -3.689028e+03 -2.459217e+02 -3.751112e+03 -6.355218e+03 -2.587870e+03 -1.282177e+03 1.399094e+03 4.698021e+02 -6.226989e+02 -6.602071e+02 -1.363560e+01 4.676259e+03 2.705294e+02 2.352812e+02 -2.291291e+03 4.842562e+03 -2.900825e+03 -3.354775e+03 -6.158668e+03 5.586765e+03 -2.642756e+02 -5.808222e+03 2.312036e+02 4.224879e+03 -4.622552e+03 -9.025736e+03 1.564063e+04 -5.921886e+03 -1.683204e+04 6.792188e+03 5.574231e+02 8.123547e+02 
1.343764e+04 -1.106659e+04 7.132549e+03 1.250752e+04 -6.009271e+03 7.083527e+03 5.841048e+03 -4.783829e+03 1.892282e+03 6.132746e+03 -3.936246e+03 1.883504e+03 5.147006e+03 -2.848663e+03 -7.402268e+02 1.018298e+04 1.202831e+04 2.648289e+03 -4.395870e+03 -3.391152e+03 -3.657630e+03 -2.166255e+03 2.234165e+03 5.984978e+03 -9.782197e+02 2.829918e+03 1.693549e+03 1.073527e+04 -3.484690e+03 -4.583854e+03 -3.424822e+02 7.340649e+03 4.607685e+03 2.234309e+03 -9.719398e+03 -1.019187e+04 -3.239990e+03 -6.295219e+02 -2.089731e+02 1.624889e+03 -8.687311e+02 -5.729180e+02 1.204088e+03 -1.824769e+03 -2.669308e+03 1.842460e+03 -5.270820e+02 -2.611527e+03 5.251689e+03 -6.105754e+03 -3.366023e+03 6.177143e+03 7.655404e+03 1.040565e+03 5.955178e+03 -2.190500e+02 -9.931146e+03 1.006305e+04 -2.705776e+03 -6.557948e+03 1.436885e+04 -3.212540e+03 -4.719622e+03 4.994262e+03 
-6.254636e+03 -3.165961e+03 9.192392e+03 -2.004875e+03 -3.977127e+03 4.283395e+03 9.299377e+03 -8.723545e+03 4.878687e+03 -1.347857e+03 -1.185031e+04 2.038073e+03 9.178515e+03 7.848329e+03 5.071465e+03 3.626550e+03 1.130282e+04 -3.546100e+03 -9.500252e+03 -3.171321e+03 5.885826e+03 6.876466e+03 -1.084691e+04 -5.907167e+03 -1.405557e+03 -4.364800e+02 1.898407e+03 8.788256e+03 7.108277e+02 -6.595773e+03 2.855083e+03 2.330973e+03 7.575497e+03 2.100698e+03 -5.686669e+03 2.815166e+03 4.239805e+03 6.420283e+01 1.067124e+03 -2.717939e+03 -1.977850e+03 1.462591e+03 -4.159871e+03 -2.085969e+03 -2.816855e+03 2.443124e+03 5.536972e+00 4.847679e+03 1.556698e+02 2.307639e+03 -3.197110e+03 -4.845511e+03 3.419995e+03 -4.441628e+03 -1.302812e+04 6.474608e+03 5.479314e+03 -5.470328e+03 -1.061986e+04 5.268460e+03 3.548486e+03 -7.467420e+03 4.023217e+03 5.665081e+03 
2.062272e+03 -1.380484e+03 -9.391186e+03 -2.193005e+02 1.372331e+03 -3.148563e+02 3.376075e+03 -1.236970e+03 1.485222e+04 1.065087e+03 -5.876594e+03 -4.295942e+03 1.195662e+04 1.488085e+04 8.888540e+02 -2.668978e+03 -4.522820e+03 -3.109891e+03 -2.320376e+03 -1.036511e+03 -9.423639e+01 6.007738e+03 -1.973151e+03 -7.556229e+03 -6.999243e+03 -5.203413e+03 -1.484785e+03 -3.639376e+03 4.037490e+03 -3.371929e+03 5.508356e+03 1.748731e+03 3.290626e+02 5.534584e+03 5.840618e+03 4.813808e+03 5.750268e+03 1.168458e+03 -2.485831e+03 -4.059865e+03 -3.107685e+03 -4.216623e+03 1.072280e+03 1.021406e+04 -1.997863e+03 1.461714e+03 -3.539012e+03 7.934624e+02 4.258341e+03 6.579504e+03 -9.173345e+03 -9.306856e+03 1.068733e+04 -1.681229e+04 -5.603794e+03 -1.023490e+03 3.986319e+03 2.332778e+02 -9.624346e+03 4.254304e+03 -4.869852e+03 8.359158e+03 2.047143e+03 -2.035017e+03 
8.992461e+02 -6.922766e+02 -1.473811e+04 -8.054678e+03 2.069249e+03 -5.243678e+03 -1.891519e+03 -9.290708e+03 6.937135e+02 2.851042e+03 1.208223e+04 6.341352e+03 3.575021e+03 1.701964e+03 2.468351e+03 7.519025e+03 4.152131e+02 3.787359e+03 1.839618e+03 6.118205e+02 3.264188e+03 -3.217454e+03 2.884327e+03 9.904822e+01 2.676657e+02 1.554138e+03 -7.814536e+03 -2.496680e+03 -1.599255e+02 6.014494e+03 -5.420088e+03 -4.667650e+03 3.891735e+03 2.496266e+03 2.704852e+03 1.492538e+03 1.003089e+02 8.211039e+01 -1.397958e+03 4.291624e+03 -2.357800e+03 1.600511e+03 7.669367e+03 -6.333732e+03 3.775597e+03 7.417854e+03 3.415561e+03 -3.253314e+02 -2.623895e+03 -7.975714e+02 7.383825e+03 4.338906e+03 -7.017552e+03 -4.144549e+03 1.964568e+04 -6.709755e+03 -4.054808e+03 3.053096e+03 1.929754e+03 4.571495e+02 -5.734053e+03 1.014326e+04 -1.231635e+03 -4.859267e+03 
4.459785e+03 3.578233e+03 -4.181262e+02 -7.380600e+03 -3.529207e+03 -4.186992e+03 -2.538564e+03 -3.728636e+03 -6.066130e+03 -4.332657e+02 2.783253e+02 3.970744e+03 4.800629e+03 4.242398e+03 5.687860e+03 6.102771e+03 6.236345e+03 -5.637153e+03 -3.441840e+02 -3.818779e+03 -1.941569e+03 1.108286e+03 3.849333e+02 -1.525580e+03 1.922253e+03 4.282742e+03 6.873870e+02 1.464387e+03 -3.379524e+03 5.208120e+03 3.550806e+03 1.238292e+03 -1.254275e+03 -1.263014e+03 -5.907332e+02 2.166149e+03 2.825307e+03 -1.241722e+03 -1.885161e+03 3.418745e+03 -1.090335e+00 1.337008e+03 -5.506245e+02 -4.243096e+03 4.766549e+03 2.939646e+03 7.823213e+01 -2.499219e+03 6.296402e+00 -3.090737e+03 -9.354474e+03 9.115701e+03 7.221877e+03 4.770620e+03 -1.405034e+03 -3.684501e+03 -5.010183e+03 9.174604e+03 5.006678e+03 4.314170e+03 -4.316514e+03 1.342146e+03 -1.153488e+04 -5.073089e+03 
-1.728233e+03 -1.068449e+04 9.461571e+03 7.979636e+03 1.138695e+02 4.350160e+03 -8.725032e+03 -4.466410e+02 -4.327241e+03 -9.572262e+03 -2.454460e+03 1.752370e+03 6.206214e+03 2.872127e+03 1.037319e+02 1.289671e+03 -4.231797e+03 -6.601715e+03 -3.126680e+03 -1.956049e+03 1.306192e+03 5.219371e+03 3.160394e+03 -1.841852e+03 -4.304029e+03 -3.590057e+03 1.483191e+03 -2.639715e+03 -1.079574e+03 -3.433012e+03 3.461714e+03 3.775190e+03 -2.451688e+03 -4.799630e+03 -2.997151e+03 4.111786e+03 -2.808780e+03 -1.655785e+03 -8.898312e+02 -1.849164e+03 -6.296572e+03 -9.988382e+02 2.099668e+03 -1.091373e+03 -5.429249e+03 3.247386e+03 6.794795e+03 -1.887124e+03 2.090266e+02 1.827362e+03 -6.809204e+03 -1.125330e+04 7.668334e+03 -7.437073e+02 2.987818e+03 1.219824e+04 -1.199710e+04 -7.525909e+03 1.856499e+04 -4.640541e+03 7.246933e+02 2.368443e+03 -6.057512e+03 8.727430e+03 
-4.463212e+02 -1.445216e+03 1.806034e+01 -4.623792e+03 -8.973694e+02 -6.399673e+03 2.373968e+03 -3.286714e+03 -2.921088e+03 4.993263e+03 6.207560e+02 5.208338e+03 3.657590e+03 1.936001e+03 -2.632565e+03 -2.351760e+03 -3.016365e+03 -2.571300e+03 -1.292738e+03 2.005445e+03 2.469771e+03 3.640302e+03 1.692469e+03 -6.072529e+03 -2.422739e+03 -4.880333e+03 2.831590e+02 -2.897499e+03 -1.647406e+03 -3.811097e+03 -3.060468e+03 -2.032989e+03 1.026229e+03 2.189050e+02 -3.179115e+03 9.305935e+02 2.601614e+03 -5.553282e+03 -5.334446e+03 6.708360e+02 -1.129168e+03 9.969592e+02 -2.491809e+03 -5.323009e+03 6.493659e+02 -8.318800e+02 3.180712e+03 1.992098e+03 1.312739e+03 4.727519e+03 -2.822474e+03 -4.249508e+03 -1.032133e+03 7.558155e+03 5.149623e+03 -5.060104e+03 2.867855e+03 3.013603e+03 9.515319e+02 -7.379684e+03 7.058717e+03 -7.724685e+03 7.708731e+03 -1.829280e+03 
-4.046067e+02 5.253926e+03 1.316485e+03 -9.649160e+03 -5.351925e+03 -2.812714e+03 1.547289e+03 -2.574688e+03 1.696113e+03 9.516297e+03 6.306216e+03 4.366082e+03 -1.085748e+03 -4.897798e+03 -4.909398e+03 -5.148617e+03 3.162853e+03 -1.068614e+03 2.351364e+03 -5.678353e+02 -2.353840e+03 -9.748173e+02 2.211420e+03 -5.627043e+02 1.942144e+03 -1.090213e+03 -2.164380e+03 3.935030e+03 -1.268699e+03 6.242410e+02 1.265974e+03 -4.087190e+03 3.532449e+03 1.136501e+02 -2.751744e+03 -6.888470e+02 1.654630e+03 2.007468e+02 3.840950e+03 -1.653984e+03 3.113787e+03 3.315625e+03 1.985606e+03 -2.973249e+03 -2.904690e+03 1.830815e+03 1.979430e+03 1.177363e+03 -1.091291e+03 8.534983e+03 -9.815253e+03 -3.464615e+03 4.660872e+03 2.081331e+03 1.048670e+03 -1.135263e+04 -6.759827e+03 7.302368e+03 4.104230e+03 5.178801e+03 6.424642e+03 -7.140146e+03 1.790248e+03 3.097178e+02 
-7.382122e+03 -1.093606e+02 -1.080118e+03 1.093735e+03 -1.344470e+03 -1.319843e+03 8.747246e+02 5.022734e+03 -3.801408e+02 -5.401118e+03 -3.140170e+03 -8.254654e+03 -1.450593e+03 -1.790245e+03 -4.076627e+03 -2.672726e+03 1.947575e+03 -1.196580e+02 3.246443e+02 -8.537151e+02 8.736071e+02 3.887795e+03 2.266076e+03 1.907393e+02 -1.460927e+03 2.051104e+03 1.040723e+03 3.586600e+03 2.109467e+03 1.421448e+03 -3.815844e+02 -1.673740e+03 1.662553e+03 3.111407e+03 -2.029762e+03 -3.274264e+03 -5.517146e+03 -2.295761e+03 2.148760e+03 -1.471162e+03 1.865971e+03 1.477259e+03 1.037614e+03 5.225687e+03 -9.885773e+02 3.190416e+03 3.239938e+03 -4.892783e+03 3.727453e+03 1.481821e+03 1.881252e+03 -7.390117e+02 -4.809854e+03 -7.967927e+02 6.514449e+03 -4.671382e+03 -7.177979e+03 -6.231174e+03 5.344422e+03 1.223243e+04 -2.078174e+03 2.587386e+03 7.875460e+02 5.848399e+03 
-1.830078e+03 4.477359e+03 1.917204e+03 -1.513935e+03 -2.328749e+03 -4.619704e+03 3.005593e+03 1.112188e+03 -5.913856e+03 -4.464930e+03 3.397165e+03 4.668619e+03 1.026622e+03 -1.711670e+03 -6.956877e+03 -1.856280e+03 3.778979e+03 -2.571693e+03 -1.499189e+03 2.478965e+03 -2.069919e+02 3.356517e+03 -9.957074e+02 -2.636407e+03 -2.733488e+02 2.218386e+03 1.015123e+03 -6.301168e+00 4.979635e+02 2.089122e+03 2.476957e+03 4.698387e+02 -1.261216e+03 2.430011e+03 -1.882347e+03 -1.499274e+03 1.158389e+03 -1.157765e+03 -1.060913e+03 -2.615681e+03 -4.644747e+03 -4.492565e+03 -4.232271e+02 5.234374e+03 4.085514e+03 -3.842445e+03 -1.225754e+03 3.384834e+02 7.281413e+02 -1.005796e+03 2.338655e+03 -7.324059e+03 3.438767e+03 1.209523e+03 6.085134e+02 3.351558e+03 -9.168570e+03 -3.465536e+03 4.438260e+03 4.501116e+03 -1.948112e+03 6.515004e+03 -5.991777e+03 1.280299e+03 
6.270205e+03 -4.372444e+03 -3.196388e+03 1.783669e+03 -1.325778e+03 -2.216238e+03 3.189456e+03 4.251520e+03 1.784684e+03 -8.353073e+02 1.650800e+02 9.837952e+03 5.239329e+03 1.564677e+03 -5.008052e+03 -3.221362e+03 -5.221732e+02 9.364142e+02 6.544178e+02 -1.384746e+03 -9.427722e+02 8.822155e+02 -9.951156e+02 -1.118117e+03 1.007875e+03 -3.702072e+01 -2.171502e+03 -2.299810e+02 5.735760e+02 -3.194701e+03 7.857605e+02 1.360795e+03 -3.730886e+02 -3.482764e+02 6.724209e+02 1.610874e+03 -9.444223e+02 -8.638640e+02 1.377760e+02 1.767041e+03 2.592719e+03 1.302217e+03 -1.666264e+03 -2.654238e+03 -3.152664e+01 -3.995279e+03 2.479332e+03 1.899449e+03 -3.183132e+03 2.307448e+03 -6.010760e+03 1.982684e+03 3.784377e+03 -2.087925e+03 6.773401e+03 1.357212e+03 1.808782e+03 -5.516152e+02 -5.072200e+03 -1.218019e+03 5.375032e+03 -2.729659e+03 -3.777351e+03 4.913243e+03 
-3.792134e+03 8.945799e+02 3.990607e+03 -3.281151e+03 -6.926069e+03 -3.152160e+02 4.572944e+03 4.755539e+03 -8.004213e+02 -3.976067e+03 -1.458716e+03 7.152173e+03 5.437299e+03 4.064631e+03 -4.597140e+03 -2.436241e+03 1.069407e+03 -2.389493e+02 -1.892247e+03 1.436792e+03 6.926534e+02 -2.082138e+03 1.785583e+02 1.355507e+02 4.488065e+02 6.975264e+02 -8.502279e+02 -7.156922e+02 -1.048031e+03 -1.149081e+02 9.093026e+02 -5.147581e+02 -1.784585e+03 1.140802e+03 1.713471e+03 -2.360133e+03 1.120546e+03 1.643771e+03 -9.469011e+02 1.975964e+03 3.318821e+02 5.093568e+03 4.187104e+03 -1.607837e+03 -2.310100e+03 -2.266556e+02 1.189224e+03 2.787634e+03 -1.643962e+03 -2.932843e+03 1.107930e+03 1.496888e+03 -6.235780e+03 8.987716e+02 4.842381e+03 -5.995728e+03 6.955780e+03 6.456547e+03 1.646494e+03 7.105862e+02 2.277195e+03 -6.400190e+03 3.098612e+03 4.497460e+03 
2.114965e+03 7.918174e+03 -2.097109e+03 -2.624577e+03 -3.300417e+03 2.059388e+03 2.886210e+03 9.160846e+02 -8.949679e+01 -1.413416e+02 2.750473e+02 -8.599604e+02 -4.114693e+03 -8.407638e+02 -3.146958e+03 -2.972056e+03 3.190045e+02 -2.980995e+02 4.665671e+02 8.415100e+02 -3.565845e+02 4.752214e+02 2.876333e+02 -6.145049e+02 3.526841e+02 1.076157e+03 -1.053271e+03 -2.791124e+02 2.821731e+02 5.273796e+02 3.693024e+02 -1.369053e+02 -7.418260e+02 -8.821736e+02 1.785177e+03 1.434654e+03 -2.291783e+02 1.307255e+03 -4.011301e+02 -2.907642e+03 -1.212334e+02 4.929045e+02 -1.295874e+02 2.580999e+03 2.478617e+03 6.145607e+02 -3.775090e+02 5.204630e+03 4.589302e+02 -5.106834e+03 -3.820125e+02 -1.223818e+03 2.203847e+03 -9.647595e+02 -2.897609e+03 3.463703e+03 -8.110420e+03 2.862377e+02 1.976000e+03 -3.851304e+02 2.254060e+02 8.852458e+02 2.181998e+03 -6.517959e+03 
7.058436e+03 6.381127e+03 4.868994e+03 3.629582e+03 -6.082360e+03 2.830596e+03 2.270043e+03 7.312755e+02 1.789906e+03 4.202550e+03 6.711407e+03 -2.919470e+03 -8.344952e+03 -5.413353e+03 -6.672463e+03 -5.959511e+03 -1.364167e+03 -2.119402e+02 8.648930e+01 2.615398e+02 -3.574732e+02 -2.318273e+02 2.185818e+02 5.587739e+01 -1.945658e+02 2.513974e+02 -9.338769e+01 -5.253606e+02 1.153793e+02 8.662186e+02 2.740403e+01 3.613813e+02 1.155386e+02 -1.541179e+03 -1.126568e+03 -6.644376e+02 -6.531251e+02 4.607989e+02 6.098363e+02 1.107204e+03 -4.636963e+02 -3.111178e+03 1.145360e+02 -2.482514e+02 2.207164e+03 5.287773e+02 7.918566e+02 1.101602e+03 9.469962e+02 6.531819e+02 -1.426556e+03 3.004972e+02 9.168479e+02 -3.856291e+03 -9.425411e+02 9.257797e+01 -9.619235e+02 8.209444e+02 -1.662423e+03 1.105800e+03 1.357552e+02 1.550748e+03 2.531129e+03 4.083525e+03 
3.938440e+03 1.051360e+04 1.188237e+03 1.120561e+03 -5.478469e+03 4.276093e+02 1.239835e+03 5.765950e+03 8.965838e+03 1.131964e+04 4.056825e+03 -3.096157e+03 1.418959e+03 -1.266848e+02 -8.502001e+03 -8.086062e+03 -2.780346e+03 -1.301525e+02 -1.100446e+02 7.942668e+01 -6.858270e+01 -4.617071e+01 -1.383243e+01 -1.784925e+02 -7.221281e+01 -7.451685e+01 3.791452e+01 -5.592818e+01 -3.981033e+02 -2.764927e+02 -1.108413e+02 -5.334710e+01 -3.023846e+02 -2.597151e+02 -5.119218e+02 3.549597e+02 -8.449109e+01 -9.385168e+02 -8.111389e+02 -4.994825e+02 -1.192238e+03 8.926218e+01 -8.133406e+02 -2.618391e+03 -6.957011e+02 2.635910e+02 5.011663e+02 -2.330532e+02 1.033176e+02 4.427635e+02 8.531246e+02 -1.853965e+03 -8.814039e+02 1.421340e+03 2.790654e+03 -4.830880e+02 1.389697e+03 2.306690e+02 5.251916e+02 -1.398314e+03 -1.014986e+03 1.098809e+03 -1.350735e+03 3.192213e+03 
6.627405e+02 5.479371e+03 -3.528279e+02 4.179939e+02 -4.015328e+03 1.689642e+03 3.504934e+03 6.740795e+03 9.552691e+03 7.227546e+03 -3.429012e+03 -9.826082e+02 7.091898e+03 3.791528e+02 -7.157256e+03 -5.041583e+03 -1.455512e+03 -9.605669e+01 5.928686e+00 9.042943e+01 -1.378700e+02 6.665725e+01 9.803743e+01 -2.962605e+01 -3.499116e+01 5.590876e+01 4.585410e+01 -2.552905e+01 1.323368e+02 1.043969e+02 1.125722e+01 2.684550e+02 -2.280276e+02 2.484074e+02 1.151196e+03 5.716582e+02 2.040039e+02 1.242210e+02 -8.559850e+01 -1.208350e+02 4.451054e+02 8.895623e+02 7.315910e+02 2.265499e+03 7.958464e+02 -7.988531e+01 -8.413217e+02 -5.956428e+01 3.319864e+02 -2.235496e+02 -2.386162e+02 1.558052e+03 -3.622512e+02 -1.082191e+03 -4.690542e+01 3.815367e+02 -6.125573e+02 3.043338e+02 1.870038e+03 1.237993e+03 -6.117330e+02 -3.397817e+02 -1.854695e+03 -4.736587e+03 
-3.781921e+03 -8.359528e+02 8.653449e+03 -1.048946e+03 -4.369157e+03 3.042338e+02 1.448889e+03 3.140082e+03 4.626415e+03 -6.153568e+01 -3.568583e+03 -1.262983e+03 3.054897e+03 -2.086050e+03 -3.148933e+03 -1.294299e+03 -2.870518e+02 -6.461266e+00 -6.640322e+01 -1.078408e+01 -1.321292e+00 1.424053e+01 -5.489212e+01 2.118137e+00 2.077225e+01 -5.898136e+01 1.452565e+01 -5.448608e+00 -1.344529e+02 3.795987e+01 9.845983e+00 -1.088969e+02 1.817757e+02 -4.476311e+02 -5.587511e+02 -2.018207e+02 -1.840188e+02 2.414635e+02 5.443280e+02 3.332350e+02 1.135661e+02 -4.783937e+02 -2.612442e+02 5.254445e+02 6.700989e+02 2.149463e+02 3.260633e+02 -8.369626e+01 -2.005552e+01 1.242111e+02 -1.646664e+02 -2.713967e+02 4.909567e+02 7.059963e+02 -9.816532e+01 3.648609e+02 -3.728052e+02 -8.209885e+02 -1.878738e+03 -5.440200e+01 1.124120e+03 6.699416e+02 2.024301e+03 1.950200e+03 
-2.785886e+03 -2.068975e+03 6.154322e+03 -1.765473e+03 -4.045582e+03 -6.028385e+02 -1.677704e+02 1.193788e+03 2.561433e+02 4.900939e+02 -6.744555e+02 -1.949680e+03 4.793708e+02 -1.538661e+03 -7.079986e+02 -1.305794e+02 -1.209253e+01 1.462813e+01 -1.535941e+01 8.840611e+00 -1.999044e+01 1.862052e+01 9.103990e+00 1.591417e+00 6.732740e+00 2.714891e+00 1.245520e+01 -1.944936e+01 -3.022437e+01 -4.834002e+00 -1.909988e+01 6.981657e+01 -6.982861e+01 -4.040730e+01 8.864673e+01 2.022013e+01 -9.664560e+01 -3.586397e+02 -6.217057e+02 -5.303779e+02 -5.881596e+02 -2.334095e+02 -3.904766e+02 -6.696686e+02 6.726927e+01 1.056265e+02 -1.304500e+02 6.621205e+01 3.456922e+01 -4.539950e+01 9.288157e+01 2.349199e+00 -5.236570e+02 -3.817621e+02 2.693086e+02 -3.622805e+02 -2.982314e+02 -1.772164e+01 5.839991e+02 5.057575e+02 -2.112268e+02 4.331693e+02 2.119442e+03 2.704613e+03 
1.128197e+03 -1.680672e+03 1.054058e+03 -1.613133e+03 -2.469736e+03 -1.688294e+02 -9.414777e+02 -8.905996e+01 -2.543120e+03 2.283632e+03 7.813904e+02 -1.854132e+03 2.549291e+02 -5.271874e+02 -5.704313e+01 -4.732903e+01 1.719807e-01 -5.633678e+00 -1.797579e+01 -4.772610e+00 -4.392228e+00 6.296147e+00 -1.425081e+01 6.850457e+00 -5.019825e+00 -1.520432e+01 -5.275401e+00 -2.375349e+01 -1.378007e+01 1.620124e+01 -2.235568e+01 -1.683162e+01 -5.605877e+00 -7.211680e+01 9.544075e+01 9.235908e+01 1.170880e+02 2.202349e+02 2.466004e+02 1.846182e+02 2.262280e+02 2.556451e+02 3.790729e+02 4.838629e+02 3.294703e+01 2.388021e+01 3.858564e+01 -2.471492e+01 6.447784e-01 2.090200e+01 -2.584086e+01 1.387028e+00 8.652219e+01 2.290511e+02 6.814506e+01 3.403911e+02 3.641034e+02 1.098353e+02 2.196958e+02 -1.261262e+02 1.330583e+02 2.801828e+02 9.458788e+02 2.462796e+03 
2.266117e+03 -6.560665e+02 2.099440e+02 -7.358346e+02 -1.584086e+03 1.675163e+02 -1.078898e+03 4.643455e+02 -2.608800e+03 5.335534e+02 3.195268e+02 -1.061256e+03 2.455483e+02 -1.930802e+02 4.006311e+01 -3.169650e+01 6.736037e-01 -7.630811e+00 -8.901377e+00 -1.877399e+00 -4.964162e+00 2.356903e+00 1.731504e+00 5.431347e-01 1.376778e+00 -3.215879e+00 -6.336235e-01 -1.171948e+00 -1.438722e+01 -3.676752e+00 -6.920125e+00 -2.881130e+00 5.424052e+00 -2.596362e+01 -4.011047e+01 -2.366376e+01 -2.565615e+01 -5.866433e+01 -9.295098e+01 -7.159095e+01 -1.072741e+02 -1.612534e+02 -1.461566e+02 -1.637167e+02 -1.883871e+01 2.423908e+01 -9.957175e+00 2.887324e+01 1.060023e+01 3.358642e+00 4.609970e-01 1.465516e+01 -8.007427e+01 -7.098153e+00 -3.872417e+01 -9.722254e+01 -2.877193e+02 -1.609672e+02 -4.340802e+02 2.159519e+02 -7.346053e+01 1.142076e+02 4.904143e+02 1.571545e+03 
1.676393e+03 3.166480e+02 5.877801e+02 -4.648986e+02 -1.252515e+03 5.499372e+02 -6.516941e+02 5.376485e+02 -1.234186e+03 -2.705108e+02 -2.738679e+02 -5.306340e+02 8.489614e+01 -1.515118e+02 4.593673e+01 -4.059875e+01 7.418780e+00 -1.313343e+01 -3.465410e+00 -4.760372e+00 -2.168753e+00 -2.926439e-01 -4.516671e+00 -1.041714e-01 -6.498795e+00 -5.460745e+00 -6.639981e+00 -8.957945e+00 -3.958122e+00 -1.148169e+00 -8.609364e+00 1.821610e+00 -2.193068e+00 1.080854e+01 3.995653e+01 2.197908e+01 2.074283e+01 1.841649e+01 1.816634e+01 1.360512e+01 3.012834e+01 5.840358e+01 5.262521e+01 4.795087e+01 1.103609e+01 6.844845e+00 5.388448e+00 -4.911304e+00 -2.188954e+00 9.814965e-01 -8.795544e+00 -9.515825e+00 -2.633673e+01 2.329800e+01 2.855681e+01 7.628192e+01 1.016744e+02 1.057204e+02 1.693089e+02 -5.276959e+01 7.997143e+01 6.778360e+01 2.401983e+02 6.967980e+02 
6.994541e+02 8.185413e+01 7.529904e+02 -3.733231e+02 -1.088217e+03 3.783650e+02 -3.187993e+02 3.590351e+02 -2.197548e+02 -2.420477e+02 -2.169804e+02 -2.786893e+02 3.048865e+00 -1.041079e+02 2.393993e+01 -3.549193e+01 3.441881e+00 -1.342583e+01 -2.496124e+00 -5.104029e+00 -1.785069e+00 -1.956722e+00 2.663423e-01 -1.738731e+00 1.691737e-01 -2.185612e+00 -1.100213e+00 -9.544361e-01 -4.709737e+00 -1.760598e+00 -2.201645e+00 -4.005563e+00 1.162474e+00 -7.670819e+00 -1.039932e+01 -3.410673e+00 -3.605510e+00 -2.448730e+00 -8.706506e+00 -5.533414e+00 -1.449897e+01 -2.195264e+01 -2.347675e+01 -1.689644e+01 -1.015336e+01 2.425701e+00 -1.382997e+00 9.585233e+00 3.484689e+00 6.529788e+00 -9.821536e-01 1.102269e+01 -7.910624e-01 1.299022e+01 -3.008736e+00 1.913060e-01 -2.219962e+01 -1.703735e+01 -8.426390e+01 1.428807e+01 -5.177867e+01 2.513310e+00 2.683688e+01 2.782667e+02 
3.508123e+02 -5.067037e+01 6.836802e+02 -6.341852e+02 -1.013311e+03 2.866164e+02 -1.552097e+01 2.047711e+02 7.739175e+01 -1.513723e+02 -8.152503e+01 -1.590331e+02 -1.031849e+01 -8.479553e+01 1.586130e+01 -3.514726e+01 6.314367e+00 -1.460095e+01 7.630878e-01 -6.139774e+00 -6.448520e-01 -2.822700e+00 -2.212417e+00 -2.288839e+00 -3.924433e+00 -3.151596e+00 -4.233909e+00 -3.361000e+00 -2.693369e+00 -1.060295e+00 -1.936212e+00 2.741989e+00 2.301258e+00 7.063591e+00 1.002778e+01 5.834463e+00 6.091324e+00 3.465780e+00 2.556504e+00 3.288613e+00 5.989680e+00 9.736952e+00 1.047083e+01 9.254853e+00 7.807150e+00 5.093110e+00 3.943124e+00 8.395545e-01 4.320270e-01 6.578528e-01 -4.048455e+00 -1.312436e-01 -1.239582e+01 5.587592e+00 -3.757222e+00 1.446013e+01 1.949053e+00 1.809965e+01 1.922681e+01 -3.186284e+00 2.687908e+01 6.419726e+00 5.944068e+01 8.650788e+01 
2.250042e+02 -4.081587e+01 6.122761e+02 -5.529137e+02 -8.701919e+02 2.112011e+02 1.706961e+01 1.290953e+02 1.191698e+02 -9.530908e+01 3.751523e+00 -9.427451e+01 8.209276e-03 -5.654531e+01 7.703517e+00 -2.678523e+01 3.202600e+00 -1.236587e+01 4.159430e-01 -5.683625e+00 -7.040599e-03 -2.896624e+00 3.419848e-01 -1.951210e+00 1.609348e-01 -1.454558e+00 -5.087041e-01 -8.427265e-01 -1.563528e+00 -9.417026e-01 -1.199995e+00 -1.619935e+00 -1.100504e+00 -2.205188e+00 -3.705538e+00 -1.160325e+00 -3.235286e+00 -8.731483e-01 -4.291430e+00 -2.478037e+00 -6.666821e+00 -5.005885e+00 -8.463320e+00 -4.184645e+00 -6.059744e+00 -3.468269e-01 -2.244026e+00 2.831160e+00 -1.511648e-01 3.350159e+00 -5.184819e-01 4.505389e+00 9.309875e-01 5.240672e+00 2.125030e+00 3.494327e+00 4.264410e-01 -8.394945e-01 -1.045895e+01 -1.490213e+00 -8.408734e+00 -5.668823e+00 1.672236e+01 2.639495e+01 
1.563175e+02 9.618321e-01 4.997465e+02 -5.155662e+02 -7.658159e+02 2.539836e+02 6.439576e+01 7.390998e+01 7.577273e+01 -5.213047e+01 1.793194e+01 -5.816286e+01 5.564780e+00 -4.227511e+01 7.481713e+00 -2.352314e+01 4.558837e+00 -1.207427e+01 1.722678e+00 -6.150427e+00 1.316725e-01 -3.490946e+00 -1.140444e+00 -2.539072e+00 -2.180459e+00 -2.155056e+00 -2.407599e+00 -1.523388e+00 -1.647914e+00 -1.626603e-01 -4.701857e-01 1.872432e+00 1.542773e+00 3.506631e+00 3.479920e+00 3.306464e+00 3.156332e+00 2.854102e+00 2.451684e+00 3.236133e+00 3.429447e+00 4.431985e+00 4.672986e+00 4.559002e+00 4.689633e+00 3.662748e+00 3.428557e+00 2.115833e+00 1.746412e+00 1.548753e+00 -6.045158e-01 1.685302e+00 -3.129686e+00 2.980504e+00 -1.768226e+00 4.086007e+00 1.379315e+00 2.659999e+00 8.100704e+00 -3.106674e+00 1.654265e+01 -6.014945e+00 3.638460e+01 -4.989257e+00 
9.882168e+01 -1.147657e+01 3.778305e+02 -3.703260e+02 -6.039153e+02 2.171117e+02 4.073448e+01 4.657752e+01 5.144866e+01 -2.702540e+01 2.268357e+01 -3.640024e+01 9.236991e+00 -2.806487e+01 5.844583e+00 -1.670946e+01 3.334454e+00 -8.991840e+00 1.709584e+00 -4.630327e+00 1.031625e+00 -2.449513e+00 7.769850e-01 -1.406244e+00 4.579793e-01 -7.860357e-01 1.304082e-03 -3.612781e-01 -5.045765e-01 -2.614761e-01 -7.282296e-01 -4.179452e-01 -1.132465e+00 -6.072823e-01 -2.093461e+00 -5.754019e-01 -2.580327e+00 -7.435379e-01 -3.281917e+00 -1.409528e+00 -4.244144e+00 -1.976159e+00 -4.711399e+00 -1.655457e+00 -3.909279e+00 -4.976072e-01 -2.365714e+00 7.041651e-01 -1.264580e+00 1.216103e+00 -8.732223e-01 1.507009e+00 -2.916089e-01 1.467665e+00 1.259859e-01 5.033918e-01 -4.322366e-01 -1.570522e+00 -1.671771e+00 -3.816635e+00 2.186683e+00 -7.980683e+00 1.818970e+01 -1.409185e+01 