# vtk DataFile Version 2.0
Comment goes here
ASCII

DATASET STRUCTURED_POINTS
FIELD FieldData 1
TIME 1 1 double
0.03700000
DIMENSIONS    64   64   1

ORIGIN    0.000   0.000   0.000
SPACING   0.03125 0.03125   1.000

POINT_DATA   4096
SCALARS Omega double
LOOKUP_TABLE default

-1.448235e-01 -2.712749e-01 -2.333646e-01 -2.432358e-01 -2.113582e-01 -2.445875e-01 -1.770287e-01 -3.095554e-01 -1.580199e-01 -3.504782e-01 -8.035174e-02 -3.699917e-01 6.725185e-02 -3.399826e-01 2.963737e-01 -1.997683e-01 6.278002e-01 -1.030050e-01 7.493902e-01 4.673052e-02 7.241854e-01 6.348963e-02 7.685278e-01 1.057637e-01 7.527153e-01 6.440998e-02 6.976246e-01 1.745332e-01 6.365425e-01 2.025304e-01 6.348607e-01 2.651461e-01 5.323481e-01 3.473529e-01 4.122449e-01 4.631446e-01 3.581470e-01 5.249656e-01 4.094570e-01 4.461460e-01 4.293422e-01 4.244338e-01 3.854813e-01 4.504925e-01 3.383164e-01 5.453586e-01 3.045167e-01 4.694973e-01 1.494299e-01 3.705367e-01 -1.559927e-01 2.459512e-01 -4.119304e-01 1.789922e-01 -5.835469e-01 1.929591e-01 -7.022504e-01 2.329504e-01 -7.679931e-01 2.835435e-01 -8.030647e-01 2.953717e-01 -8.515674e-01 2.967249e-01 
4.110142e+00 -2.791130e+01 -3.153878e+00 -2.409136e+01 -4.743036e+00 -2.225949e+01 -7.092926e+00 -2.013362e+01 -1.062365e+01 -1.845503e+01 -1.352286e+01 -1.669980e+01 -1.629965e+01 -1.509932e+01 -1.877057e+01 -1.386095e+01 -2.156664e+01 -1.132980e+01 -2.618978e+01 -5.932541e+00 -3.327938e+01 1.378852e+00 -4.122585e+01 8.508138e+00 -4.761610e+01 1.323628e+01 -5.080018e+01 1.444891e+01 -5.101127e+01 1.306272e+01 -4.885078e+01 1.022901e+01 -4.567881e+01 6.851396e+00 -4.243468e+01 3.939596e+00 -4.020016e+01 2.735030e+00 -4.020654e+01 3.687273e+00 -4.202051e+01 6.356761e+00 -4.513889e+01 9.895677e+00 -4.856234e+01 1.296688e+01 -5.058457e+01 1.440404e+01 -5.031108e+01 1.331029e+01 -4.708248e+01 9.493167e+00 -4.128494e+01 3.692496e+00 -3.419014e+01 -2.975826e+00 -2.691708e+01 -9.498300e+00 -1.994191e+01 -1.559764e+01 -1.335256e+01 -2.115601e+01 -7.177019e+00 -2.833844e+01 
-4.647908e+01 7.127379e+00 -2.502118e+01 5.335219e+00 -5.723061e+00 5.079173e+00 -2.723850e+01 3.683363e+00 -3.620774e+01 3.181881e+00 -4.253857e+01 2.478598e+00 -4.727186e+01 1.581945e+00 -5.159384e+01 7.927954e-01 -5.586635e+01 -5.085443e-01 -5.748987e+01 -3.336973e+00 -5.652476e+01 -6.854181e+00 -5.499420e+01 -1.002157e+01 -5.364143e+01 -1.214449e+01 -5.335607e+01 -1.264335e+01 -5.457513e+01 -1.163988e+01 -5.672498e+01 -1.014725e+01 -5.867189e+01 -8.573666e+00 -6.017519e+01 -7.444478e+00 -6.119190e+01 -6.981035e+00 -6.130596e+01 -7.341984e+00 -6.002366e+01 -8.807032e+00 -5.767516e+01 -1.089277e+01 -5.508779e+01 -1.276781e+01 -5.317465e+01 -1.316232e+01 -5.157805e+01 -1.217026e+01 -5.018682e+01 -9.616082e+00 -4.979775e+01 -6.475890e+00 -4.997511e+01 -3.439165e+00 -4.988735e+01 -8.155705e-01 -4.907555e+01 1.547297e+00 -4.717246e+01 3.576019e+00 -4.284161e+01 8.084519e+00 
-2.505613e+01 8.868467e+00 -1.330994e+01 7.721749e+00 -1.727539e+01 6.599766e+00 -1.217971e+01 6.512287e+00 -1.686422e+01 5.484468e+00 -1.997165e+01 4.397659e+00 -2.214545e+01 3.376848e+00 -2.402244e+01 2.593094e+00 -2.561228e+01 1.176860e+00 -2.555229e+01 -1.238228e+00 -2.376670e+01 -4.314397e+00 -2.133109e+01 -7.060533e+00 -1.934298e+01 -8.888209e+00 -1.850880e+01 -9.120118e+00 -1.892551e+01 -8.089901e+00 -2.031764e+01 -6.750648e+00 -2.191818e+01 -5.387110e+00 -2.336474e+01 -4.304372e+00 -2.435754e+01 -3.897589e+00 -2.446358e+01 -4.416931e+00 -2.357987e+01 -5.850027e+00 -2.190580e+01 -7.622531e+00 -1.996593e+01 -9.119476e+00 -1.860887e+01 -9.682493e+00 -1.779444e+01 -9.138118e+00 -1.760026e+01 -7.007282e+00 -1.841016e+01 -4.185930e+00 -1.974583e+01 -1.320043e+00 -2.102636e+01 1.275959e+00 -2.194686e+01 3.570708e+00 -2.223302e+01 5.591789e+00 -2.131389e+01 9.214915e+00 
-6.065787e-01 8.500408e-01 -1.243647e+00 -1.487733e+00 -3.128143e+01 3.642599e-01 8.269946e-01 -9.224463e-02 -3.134499e-02 -6.665713e-02 -3.207959e-01 -3.721988e-02 -4.504810e-01 3.068944e-02 -6.009964e-01 1.686018e-01 -4.712197e-01 -1.657946e-01 -5.013762e-01 -1.522685e-01 -4.605413e-01 -1.455831e-02 -3.266871e-01 -4.888103e-03 -3.741034e-01 -1.622075e-01 -4.106287e-01 -2.168488e-01 -3.059589e-01 -1.170793e-01 -1.943360e-01 -1.281539e-01 -2.880364e-01 -2.419447e-01 -3.660669e-01 -2.055733e-01 -3.210275e-01 -1.971155e-02 -2.846228e-01 1.026425e-02 -4.350041e-01 -9.884290e-02 -5.287036e-01 -8.087521e-02 -4.573360e-01 7.226214e-02 -3.955888e-01 1.868871e-02 -3.826256e-01 -3.556952e-01 -1.971649e-01 -1.977788e-01 -2.173680e-01 -1.477612e-01 -1.962451e-01 -1.249885e-01 -1.572096e-01 -6.675798e-02 -1.376321e-01 2.596744e-02 -1.564461e-01 1.267077e-01 -2.764462e-01 4.485979e-01 
-3.667947e-01 1.565953e-01 -9.013640e-01 -1.300467e+00 -3.974447e+01 -3.490029e-01 9.642438e-01 -2.935975e-01 5.444845e-01 -1.654232e-01 2.976648e-01 -1.007043e-01 1.480967e-01 2.628668e-02 -1.413529e-01 4.325864e-01 8.766583e-02 -3.090452e-01 2.194404e-03 -1.964879e-01 1.875076e-02 8.918032e-02 2.126133e-01 1.398223e-01 -2.189927e-03 -1.259181e-01 -1.513754e-01 -1.616833e-01 -4.679110e-03 1.147603e-01 1.800857e-01 1.338858e-01 -4.981636e-02 -1.470091e-01 -1.662430e-01 -1.578436e-01 5.257582e-03 1.405461e-01 1.783735e-01 1.595989e-01 -5.265286e-02 -1.087250e-01 -1.679961e-01 -9.681135e-02 -9.248364e-03 2.348767e-01 4.951191e-02 2.691286e-01 -1.266708e-01 -4.551881e-01 2.573353e-01 1.700923e-02 5.750819e-03 8.823936e-02 -6.770447e-02 7.710058e-02 -9.055246e-02 7.381773e-02 -1.194358e-01 8.626203e-02 -1.850255e-01 1.121313e-01 -3.317709e-01 3.765555e-01 
-4.603945e-01 1.861219e-01 -7.729468e-01 -1.616966e+00 -4.658939e+01 -4.760998e-01 8.153135e-01 -2.732207e-01 5.682443e-01 -2.128141e-01 3.640431e-01 -1.730579e-01 2.426009e-01 5.383043e-02 -4.009971e-01 9.993838e-01 7.626227e-01 1.712574e-02 1.866696e-01 1.754377e-01 6.268329e-02 7.162018e-01 4.643551e-01 5.158724e-01 1.870714e-01 -9.156286e-02 -9.651224e-02 -7.778092e-02 4.562569e-02 5.727370e-01 4.120970e-01 3.901638e-01 1.261866e-01 -2.601238e-01 -1.062309e-01 -2.017387e-01 7.809178e-02 5.335601e-01 4.158872e-01 3.827449e-01 1.194421e-01 -2.642204e-01 -9.647682e-02 -2.031074e-01 8.742379e-02 6.211717e-01 1.523549e-01 6.773568e-01 -2.344863e-01 -1.679304e+00 5.512899e-01 1.470892e-01 -2.670469e-02 1.727458e-01 -1.370754e-01 1.042355e-01 -1.419521e-01 8.618722e-02 -1.641839e-01 1.016799e-01 -2.250041e-01 1.532999e-01 -3.488175e-01 2.796444e-01 
-3.734901e-01 2.409451e-01 -4.615841e-01 -1.494435e+00 -5.144637e+01 -5.306699e-01 4.763764e-01 -3.641716e-01 4.749046e-01 -3.006999e-01 3.596281e-01 -3.133733e-01 3.056055e-01 -2.017201e-01 -6.529323e-01 7.086778e-01 1.260590e+01 1.053932e+01 6.558330e+00 1.003523e+01 4.669068e+00 8.176536e+00 8.654139e+00 5.271574e+00 8.937224e+00 7.199831e+00 6.177764e+00 9.676529e+00 4.980591e+00 8.055947e+00 8.997733e+00 5.097176e+00 9.245049e+00 7.090700e+00 6.323965e+00 9.409344e+00 5.061910e+00 7.809827e+00 8.912113e+00 4.906918e+00 9.004487e+00 6.771148e+00 6.098173e+00 8.826637e+00 4.864371e+00 7.550494e+00 8.422627e+00 5.064940e+00 9.859605e+00 8.687949e+00 2.203182e+00 9.456305e-01 -2.481963e-01 2.261006e-01 -1.920631e-01 1.388546e-01 -1.412225e-01 1.261073e-01 -1.471407e-01 1.457452e-01 -2.005115e-01 1.934517e-01 -2.986214e-01 2.732118e-01 
-3.535089e-01 2.459433e-01 -2.880005e-01 -1.687554e+00 -5.526556e+01 -5.599560e-01 3.002904e-01 -3.487543e-01 4.095775e-01 -3.475982e-01 3.976615e-01 -5.813834e-01 7.018535e-01 -1.250687e+00 7.206721e-01 1.637418e+00 3.510752e+01 2.757038e+01 2.036198e+01 2.817766e+01 1.499627e+01 2.317730e+01 2.615003e+01 1.458878e+01 2.875963e+01 2.191148e+01 2.099986e+01 3.079057e+01 1.610256e+01 2.508795e+01 2.798393e+01 1.558385e+01 3.032133e+01 2.328040e+01 2.159342e+01 3.167192e+01 1.633402e+01 2.541672e+01 2.816729e+01 1.571975e+01 3.004763e+01 2.319882e+01 2.115722e+01 3.101971e+01 1.585248e+01 2.540460e+01 2.813908e+01 1.700653e+01 3.694362e+01 3.811857e+01 2.899580e+00 2.136272e+00 -1.164150e+00 2.206684e-01 -3.747838e-01 1.151198e-01 -1.820522e-01 1.177016e-01 -1.644080e-01 1.459000e-01 -2.075546e-01 1.928055e-01 -2.852612e-01 2.420096e-01 
-2.391137e-01 2.555360e-01 -4.370935e-02 -1.633198e+00 -5.772396e+01 -5.202065e-01 9.592900e-02 -3.744416e-01 2.954701e-01 -3.657283e-01 3.752440e-01 -5.644096e-01 7.089776e-01 -1.429359e+00 1.549734e+00 8.122529e-02 1.249108e+01 7.681244e+00 8.844135e+00 9.258840e+00 6.982127e+00 8.596548e+00 1.119699e+01 5.192437e+00 1.299795e+01 8.578434e+00 9.919373e+00 1.300377e+01 7.414905e+00 1.127154e+01 1.251352e+01 6.926885e+00 1.416588e+01 1.044462e+01 1.028150e+01 1.463743e+01 7.467922e+00 1.236736e+01 1.290423e+01 7.647945e+00 1.442761e+01 1.117721e+01 1.032079e+01 1.533298e+01 7.251842e+00 1.333436e+01 1.340448e+01 9.904406e+00 2.028477e+01 2.006848e+01 -2.219991e-01 1.649913e+00 -6.935857e-01 3.297615e-01 -2.534868e-01 1.660493e-01 -1.339731e-01 1.515425e-01 -1.262131e-01 1.731774e-01 -1.596069e-01 2.119188e-01 -2.093849e-01 2.532106e-01 
-1.913822e-01 2.418168e-01 1.048356e-01 -1.710682e+00 -5.951818e+01 -5.346513e-01 -3.359061e-02 -3.205686e-01 1.845922e-01 -1.979261e-01 1.754139e-01 3.928985e-02 -6.237466e-02 6.315892e-01 3.093162e-01 -2.809917e+00 -3.427107e+01 -2.724963e+01 -1.879388e+01 -2.793403e+01 -1.378938e+01 -2.320811e+01 -2.437531e+01 -1.459254e+01 -2.725329e+01 -2.111636e+01 -1.992199e+01 -2.929879e+01 -1.491416e+01 -2.432303e+01 -2.594719e+01 -1.488613e+01 -2.870849e+01 -2.173472e+01 -2.058206e+01 -2.956318e+01 -1.520584e+01 -2.419924e+01 -2.601796e+01 -1.457588e+01 -2.833631e+01 -2.116122e+01 -2.014704e+01 -2.838782e+01 -1.474475e+01 -2.349948e+01 -2.590730e+01 -1.605719e+01 -3.554365e+01 -3.460007e+01 -1.462499e+00 -1.430474e+00 7.110455e-01 6.183396e-02 1.508447e-01 1.365626e-01 -2.967221e-02 1.462172e-01 -9.700079e-02 1.692005e-01 -1.419881e-01 2.046094e-01 -1.801828e-01 2.404843e-01 
-8.631519e-02 2.370264e-01 2.802193e-01 -1.653995e+00 -6.027173e+01 -4.689193e-01 -1.615538e-01 -3.126563e-01 3.949629e-02 -1.770396e-01 8.374655e-03 1.403059e-01 -3.626951e-01 8.801971e-01 -5.277295e-01 5.221098e-01 -2.500136e+01 -1.944319e+01 -1.547430e+01 -1.993221e+01 -1.152423e+01 -1.625098e+01 -2.010163e+01 -1.052360e+01 -2.171087e+01 -1.643616e+01 -1.579960e+01 -2.315879e+01 -1.253251e+01 -1.866331e+01 -2.179481e+01 -1.188287e+01 -2.312810e+01 -1.810453e+01 -1.634144e+01 -2.446709e+01 -1.275111e+01 -1.938840e+01 -2.210137e+01 -1.225893e+01 -2.311772e+01 -1.837160e+01 -1.613783e+01 -2.445532e+01 -1.247032e+01 -1.997402e+01 -2.223005e+01 -1.349730e+01 -2.831554e+01 -3.068543e+01 -3.316181e+00 -2.251344e+00 9.017635e-01 -1.183611e-01 2.216311e-01 8.400206e-02 1.401360e-02 1.394519e-01 -5.441369e-02 1.748959e-01 -8.799105e-02 2.105621e-01 -1.042560e-01 2.443988e-01 
-4.088911e-02 2.220006e-01 3.925346e-01 -1.692662e+00 -6.063877e+01 -4.594710e-01 -2.438743e-01 -3.057475e-01 -3.903077e-02 -1.884769e-01 -4.472152e-02 -3.199023e-02 -2.007044e-01 1.580345e-01 -1.522985e-01 -5.796817e-01 -2.050515e+00 1.551080e-02 -1.472719e+00 -4.256504e-01 -9.960965e-01 -1.245040e+00 -1.712703e+00 -7.119498e-01 -1.939503e+00 -6.113371e-01 -1.387664e+00 -1.327834e+00 -1.010341e+00 -1.952512e+00 -1.935921e+00 -1.208917e+00 -2.121676e+00 -1.064510e+00 -1.405724e+00 -1.760556e+00 -9.814854e-01 -2.293519e+00 -2.005155e+00 -1.447514e+00 -2.171314e+00 -1.329592e+00 -1.384446e+00 -2.082974e+00 -9.071023e-01 -2.780366e+00 -1.850254e+00 -2.204901e+00 -2.677357e+00 -9.227145e-01 -5.319638e-01 -6.334258e-01 1.718405e-01 -1.315165e-01 8.940768e-02 4.969536e-02 2.203742e-03 1.205294e-01 -4.598429e-02 1.626756e-01 -7.089209e-02 1.997947e-01 -7.518611e-02 2.342151e-01 
4.260372e-02 2.091893e-01 5.138995e-01 -1.628168e+00 -6.013633e+01 -3.895013e-01 -3.107261e-01 -2.924629e-01 -1.312150e-01 -1.888648e-01 -1.132173e-01 -6.243957e-02 -1.912456e-01 -1.065197e-02 -3.707583e-02 -8.264242e-01 4.468329e-01 2.676141e-01 -8.300183e-03 1.006751e-01 -1.268010e-01 -2.546779e-01 -2.219444e-01 -1.702948e-01 6.604313e-02 1.699280e-01 1.471299e-01 1.585650e-01 -7.225385e-02 -2.424075e-01 -2.528909e-01 -2.205495e-01 4.449921e-02 1.746999e-01 1.685082e-01 1.887892e-01 -4.276524e-02 -2.393944e-01 -2.614057e-01 -2.454446e-01 3.015383e-02 1.594818e-01 1.853859e-01 1.852377e-01 3.278742e-03 -3.125552e-01 -1.227960e-01 -4.432563e-01 4.137412e-02 9.788745e-01 -3.244895e-01 -1.623604e-01 9.612680e-02 -7.682721e-02 7.941752e-02 4.903013e-02 2.057385e-02 1.177737e-01 -1.244564e-02 1.619311e-01 -2.301922e-02 1.984781e-01 -1.051912e-02 2.306874e-01 
7.597152e-02 1.944793e-01 5.910199e-01 -1.641982e+00 -5.942928e+01 -3.702390e-01 -3.478092e-01 -3.083505e-01 -1.580164e-01 -2.318287e-01 -9.347454e-02 -1.639395e-01 -7.293728e-02 -8.198498e-02 -9.171552e-02 -2.499545e-02 2.182170e-01 -1.955623e-01 7.146914e-02 -5.570299e-02 6.514155e-03 2.056001e-02 5.201316e-02 2.445206e-02 -1.066748e-02 -2.864233e-02 -9.712900e-03 -2.117610e-02 4.176640e-02 4.488503e-02 2.359726e-02 -4.793446e-03 -4.766191e-02 -3.999194e-02 3.396689e-03 6.642654e-03 7.654464e-02 7.007264e-02 1.856162e-02 -1.393703e-02 -5.882333e-02 -4.175506e-02 2.743921e-02 3.257241e-02 1.370384e-01 1.149635e-01 -4.566224e-03 1.446412e-01 -3.535407e-01 -2.507855e-02 2.097004e-01 7.896468e-02 2.443711e-02 5.171857e-02 -3.701920e-03 7.539716e-02 -1.177321e-02 1.139374e-01 -1.659254e-02 1.517362e-01 -1.221652e-02 1.875259e-01 1.144233e-02 2.207302e-01 
1.366376e-01 1.769716e-01 6.690094e-01 -1.571020e+00 -5.795779e+01 -3.024621e-01 -3.689848e-01 -3.003550e-01 -1.981692e-01 -2.546863e-01 -1.053700e-01 -2.278953e-01 -5.025871e-02 -1.189173e-01 -2.840109e-01 4.642343e-02 1.454646e+00 1.495569e+00 6.357419e-01 1.354210e+00 4.504871e-01 1.096409e+00 9.341903e-01 7.817531e-01 8.033155e-01 8.575593e-01 4.907837e-01 1.017929e+00 4.993576e-01 9.096416e-01 9.250463e-01 6.035624e-01 8.171334e-01 6.648191e-01 5.384176e-01 8.392444e-01 5.439834e-01 7.840847e-01 9.192126e-01 4.775081e-01 8.159698e-01 5.057885e-01 5.746471e-01 6.693214e-01 6.023736e-01 6.928394e-01 8.686004e-01 5.657841e-01 6.904648e-01 2.186890e-01 4.877056e-01 1.837358e-01 -7.916530e-03 1.178356e-01 -3.045223e-02 1.015317e-01 -9.220001e-03 1.214497e-01 6.333157e-03 1.516840e-01 2.527598e-02 1.832270e-01 6.121750e-02 2.125963e-01 
1.567825e-01 1.622556e-01 7.136428e-01 -1.553823e+00 -5.638842e+01 -2.826221e-01 -3.789064e-01 -3.094242e-01 -2.056727e-01 -2.915786e-01 -8.618235e-02 -3.763542e-01 8.464096e-02 -5.608597e-01 4.084540e-02 -1.943174e+00 1.203585e+01 1.279461e+01 7.340144e+00 1.120861e+01 6.326621e+00 7.755658e+00 1.069193e+01 6.163141e+00 1.008443e+01 9.717822e+00 6.920815e+00 1.163951e+01 6.743233e+00 8.143439e+00 1.137092e+01 6.331828e+00 1.060156e+01 9.996561e+00 7.188764e+00 1.172389e+01 6.881575e+00 8.088634e+00 1.144568e+01 6.215588e+00 1.054175e+01 9.724962e+00 7.138709e+00 1.127667e+01 6.708806e+00 7.855731e+00 1.145551e+01 6.124683e+00 1.241965e+01 1.569344e+01 2.942993e+00 1.333998e+00 -4.196149e-01 1.562158e-01 -1.432349e-01 1.004107e-01 -3.436770e-02 1.151402e-01 4.910424e-03 1.428106e-01 3.348182e-02 1.731882e-01 7.568413e-02 2.027452e-01 
1.973126e-01 1.426954e-01 7.551511e-01 -1.469945e+00 -5.414005e+01 -2.213215e-01 -3.751370e-01 -2.922506e-01 -2.183337e-01 -3.050342e-01 -5.743677e-02 -4.856706e-01 2.850074e-01 -1.067665e+00 8.206506e-01 -2.374710e+00 1.374520e+01 1.313243e+01 9.071281e+00 1.205621e+01 8.025335e+00 8.642013e+00 1.311999e+01 6.750928e+00 1.285225e+01 1.133100e+01 9.041727e+00 1.409599e+01 8.537344e+00 1.007766e+01 1.426059e+01 7.743304e+00 1.369569e+01 1.248682e+01 9.348657e+00 1.495904e+01 8.634519e+00 1.055550e+01 1.445373e+01 8.074783e+00 1.367147e+01 1.269889e+01 9.207468e+00 1.498868e+01 8.237620e+00 1.072945e+01 1.448440e+01 8.630181e+00 1.724539e+01 2.170803e+01 2.575895e+00 1.907529e+00 -6.534619e-01 2.615529e-01 -1.923515e-01 1.233000e-01 -3.118438e-02 1.195818e-01 2.527053e-02 1.402461e-01 6.287904e-02 1.661808e-01 1.116194e-01 1.915384e-01 
2.057434e-01 1.282320e-01 7.698691e-01 -1.414617e+00 -5.186608e+01 -2.078223e-01 -3.703145e-01 -2.635802e-01 -2.222976e-01 -2.171731e-01 -1.020466e-01 -1.838236e-01 2.990126e-02 -2.098166e-01 5.176788e-01 4.252534e-01 -8.017997e+00 -8.974464e+00 -4.096471e+00 -7.752571e+00 -3.512836e+00 -5.454095e+00 -6.246451e+00 -4.238190e+00 -5.914910e+00 -6.101941e+00 -3.924875e+00 -7.093449e+00 -3.700102e+00 -5.064594e+00 -6.422764e+00 -3.788491e+00 -6.112929e+00 -5.698802e+00 -4.098302e+00 -6.644423e+00 -3.803147e+00 -4.657655e+00 -6.381597e+00 -3.362110e+00 -6.028838e+00 -5.142357e+00 -4.106392e+00 -5.976577e+00 -3.771349e+00 -4.091071e+00 -6.392179e+00 -3.017868e+00 -7.208954e+00 -8.054842e+00 -1.410336e+00 -1.725523e-01 5.015916e-02 1.488208e-01 2.829158e-02 1.208447e-01 2.751062e-02 1.183230e-01 4.360683e-02 1.339861e-01 7.223510e-02 1.570842e-01 1.196303e-01 1.814737e-01 
2.294728e-01 1.094766e-01 7.797040e-01 -1.311186e+00 -4.899018e+01 -1.559951e-01 -3.611906e-01 -2.250324e-01 -2.535410e-01 -1.509267e-01 -1.948273e-01 2.947563e-02 -2.938610e-01 4.557293e-01 -4.413344e-01 2.391073e+00 -1.513496e+01 -1.548596e+01 -9.687247e+00 -1.386807e+01 -8.418107e+00 -9.780422e+00 -1.408537e+01 -7.767612e+00 -1.356101e+01 -1.252439e+01 -9.406693e+00 -1.527721e+01 -9.009457e+00 -1.083547e+01 -1.518363e+01 -8.375758e+00 -1.439657e+01 -1.331984e+01 -9.776898e+00 -1.582083e+01 -9.171957e+00 -1.105803e+01 -1.535666e+01 -8.442926e+00 -1.435888e+01 -1.324256e+01 -9.677801e+00 -1.554706e+01 -8.856776e+00 -1.096120e+01 -1.543115e+01 -8.533980e+00 -1.761735e+01 -2.222416e+01 -3.357747e+00 -1.615058e+00 5.688721e-01 -2.772106e-03 1.844570e-01 8.931848e-02 7.866810e-02 1.078159e-01 7.101107e-02 1.258251e-01 9.580166e-02 1.470369e-01 1.434794e-01 1.680996e-01 
2.269845e-01 9.648161e-02 7.683137e-01 -1.243329e+00 -4.615879e+01 -1.429055e-01 -3.505097e-01 -2.132975e-01 -2.571285e-01 -1.510554e-01 -2.118993e-01 -4.545371e-02 -2.691379e-01 1.460687e-01 -3.659554e-01 6.475931e-01 -4.339713e+00 -3.825699e+00 -3.166030e+00 -3.619755e+00 -2.789249e+00 -2.757733e+00 -4.555616e+00 -2.196217e+00 -4.288634e+00 -3.604998e+00 -2.971955e+00 -4.565250e+00 -2.983624e+00 -3.429425e+00 -5.002103e+00 -2.672750e+00 -4.588288e+00 -4.151167e+00 -3.067090e+00 -5.014167e+00 -3.019671e+00 -3.708444e+00 -5.088855e+00 -2.877778e+00 -4.577252e+00 -4.343626e+00 -2.990902e+00 -5.166567e+00 -2.866578e+00 -3.940907e+00 -5.010234e+00 -3.170175e+00 -5.508295e+00 -6.949818e+00 -1.513501e+00 -8.274166e-01 2.404890e-01 -5.438273e-02 1.238273e-01 5.306650e-02 7.448977e-02 8.970158e-02 7.340277e-02 1.134787e-01 9.741692e-02 1.357668e-01 1.433270e-01 1.568738e-01 
2.359207e-01 7.934873e-02 7.522756e-01 -1.140028e+00 -4.280110e+01 -9.559263e-02 -3.298559e-01 -1.836855e-01 -2.656605e-01 -1.353897e-01 -2.243112e-01 -8.105559e-02 -2.216400e-01 -9.104348e-02 -9.475490e-02 -6.208953e-01 1.560908e-01 3.606232e-01 -1.462223e-01 1.669156e-01 -1.848975e-01 -1.847549e-01 -2.370506e-01 -7.528351e-02 -3.313963e-02 1.761326e-01 2.717291e-02 9.347248e-02 -1.146365e-01 -2.429233e-01 -2.213509e-01 -1.319367e-01 -1.394692e-02 1.384595e-01 6.275710e-02 5.649495e-02 -7.986509e-02 -2.820898e-01 -2.045392e-01 -1.715192e-01 5.689933e-03 9.622616e-02 1.014307e-01 6.980602e-03 -3.336010e-02 -3.809161e-01 -6.664463e-02 -3.707891e-01 7.479830e-02 7.056303e-01 -3.112358e-01 -9.031886e-02 5.234191e-02 -4.208539e-02 8.888379e-02 3.532513e-02 7.982257e-02 7.627695e-02 8.542971e-02 1.021541e-01 1.101983e-01 1.236200e-01 1.551608e-01 1.422259e-01 
2.239241e-01 6.808267e-02 7.182321e-01 -1.062974e+00 -3.952961e+01 -8.714935e-02 -3.076173e-01 -1.768773e-01 -2.469076e-01 -1.388144e-01 -1.983374e-01 -1.063762e-01 -1.622773e-01 -1.262058e-01 -3.722037e-02 -3.846995e-01 1.764991e-01 2.405998e-02 -1.335478e-02 -1.794363e-02 -7.909654e-02 -1.418601e-01 -9.451992e-02 -7.894289e-02 3.864699e-02 4.883765e-02 5.955838e-02 2.833355e-02 -4.253964e-02 -1.102191e-01 -9.012797e-02 -6.843762e-02 4.380129e-02 7.201718e-02 7.451791e-02 5.903225e-02 -2.816194e-02 -8.989172e-02 -8.884206e-02 -6.128506e-02 4.585197e-02 8.278743e-02 9.083803e-02 7.594175e-02 -3.762683e-03 -9.342449e-02 -3.601535e-02 -7.939361e-02 2.845900e-02 4.094025e-01 -1.789921e-01 3.269838e-02 1.613427e-02 3.737925e-03 5.779327e-02 3.830419e-02 6.563072e-02 6.822316e-02 7.820743e-02 9.162774e-02 1.040924e-01 1.122357e-01 1.471901e-01 1.303305e-01 
2.203244e-01 5.341519e-02 6.810734e-01 -9.629071e-01 -3.580447e+01 -4.493778e-02 -2.748573e-01 -1.540845e-01 -2.344246e-01 -1.313799e-01 -1.827126e-01 -1.176271e-01 -1.275963e-01 -1.432372e-01 -1.848949e-02 -2.432414e-01 5.984750e-02 -4.303809e-02 -6.267349e-03 -3.623091e-02 -4.808821e-02 -9.770908e-02 -6.121686e-02 -5.514848e-02 6.968842e-03 1.459805e-02 2.966616e-02 4.636139e-04 -1.908477e-02 -6.873518e-02 -4.978998e-02 -3.782267e-02 1.538560e-02 3.635930e-02 4.199439e-02 2.545762e-02 -7.922702e-03 -4.970137e-02 -4.553093e-02 -2.678441e-02 1.990542e-02 4.811295e-02 5.493949e-02 3.989661e-02 1.244284e-02 -3.896925e-02 -1.641126e-02 3.923765e-03 -2.700834e-02 2.279526e-01 -8.363640e-02 8.187958e-02 2.358457e-04 3.134655e-02 4.231065e-02 4.136368e-02 6.160382e-02 6.227699e-02 7.977315e-02 8.215742e-02 1.068744e-01 1.002444e-01 1.482843e-01 1.156250e-01 
2.007325e-01 4.416366e-02 6.281568e-01 -8.758731e-01 -3.217881e+01 -4.070964e-02 -2.453295e-01 -1.451343e-01 -2.065010e-01 -1.262978e-01 -1.550080e-01 -1.151935e-01 -1.013713e-01 -1.269114e-01 -2.434672e-02 -1.643384e-01 1.834646e-02 -6.677919e-02 -5.956555e-03 -5.000516e-02 -2.881154e-02 -6.991061e-02 -3.625820e-02 -4.246359e-02 -1.004041e-03 -5.348259e-03 1.321426e-02 -1.150271e-02 -1.103021e-02 -4.218855e-02 -2.668016e-02 -2.277409e-02 6.369077e-03 1.470388e-02 2.197316e-02 9.016429e-03 -3.135466e-03 -2.522351e-02 -2.204523e-02 -9.766419e-03 1.133089e-02 2.823245e-02 3.121744e-02 2.545586e-02 8.589782e-03 -5.333877e-03 -1.303082e-02 2.821774e-02 -2.588289e-02 1.350926e-01 -5.087805e-02 7.730181e-02 -2.475958e-03 4.377753e-02 2.974653e-02 4.497890e-02 4.976459e-02 5.812261e-02 6.924442e-02 7.376201e-02 9.570391e-02 8.955114e-02 1.342365e-01 1.035855e-01 
1.871633e-01 3.227956e-02 5.740789e-01 -7.769934e-01 -2.817541e+01 -3.667572e-03 -2.057744e-01 -1.233603e-01 -1.852670e-01 -1.148259e-01 -1.370274e-01 -1.087165e-01 -8.635727e-02 -1.152891e-01 -2.914952e-02 -1.259393e-01 -6.515765e-03 -7.180434e-02 -1.097477e-02 -5.244828e-02 -2.175895e-02 -5.578316e-02 -2.673566e-02 -3.574010e-02 -7.569026e-03 -1.317026e-02 4.156085e-03 -1.573662e-02 -6.333939e-03 -2.950267e-02 -1.592974e-02 -1.580801e-02 8.119742e-04 5.441411e-03 1.231031e-02 2.041967e-03 7.879443e-04 -1.434572e-02 -1.075032e-02 -3.099805e-03 5.999985e-03 1.851462e-02 1.963617e-02 1.784414e-02 8.641190e-03 7.394279e-03 -9.366387e-03 3.512754e-02 -2.521836e-02 9.226608e-02 -2.835414e-02 7.215147e-02 -8.576260e-04 4.904758e-02 2.471354e-02 4.570547e-02 4.516498e-02 5.355283e-02 6.556752e-02 6.534122e-02 9.129961e-02 7.807585e-02 1.268727e-01 8.932668e-02 
1.619725e-01 2.486697e-02 5.066006e-01 -6.817195e-01 -2.426766e+01 -6.497153e-04 -1.726553e-01 -1.104250e-01 -1.553973e-01 -1.031880e-01 -1.129084e-01 -9.643818e-02 -7.086571e-02 -9.649246e-02 -2.980860e-02 -9.627776e-02 -1.182143e-02 -6.581579e-02 -9.999302e-03 -4.960245e-02 -1.441059e-02 -4.481014e-02 -1.659845e-02 -3.032865e-02 -6.192257e-03 -1.644376e-02 8.037876e-04 -1.599132e-02 -4.152360e-03 -2.055241e-02 -8.900754e-03 -1.158877e-02 -6.877350e-05 1.305180e-04 6.485152e-03 -7.684024e-04 8.563714e-04 -7.058928e-03 -4.897682e-03 7.789164e-04 3.759675e-03 1.323966e-02 1.079812e-02 1.507336e-02 3.880081e-03 1.428398e-02 -8.433529e-03 3.326143e-02 -1.877399e-02 6.388575e-02 -1.936446e-02 5.833065e-02 -1.401391e-03 4.601796e-02 1.785372e-02 4.328143e-02 3.546367e-02 4.827262e-02 5.402266e-02 5.711347e-02 7.720809e-02 6.753234e-02 1.086670e-01 7.713179e-02 
1.409223e-01 1.535205e-02 4.397613e-01 -5.831803e-01 -2.006363e+01 3.198991e-02 -1.299711e-01 -8.772901e-02 -1.304700e-01 -8.786403e-02 -9.475595e-02 -8.323929e-02 -5.968712e-02 -8.182777e-02 -2.909467e-02 -7.801197e-02 -1.567094e-02 -5.835293e-02 -1.126458e-02 -4.459514e-02 -1.215303e-02 -3.737005e-02 -1.301011e-02 -2.607429e-02 -6.791035e-03 -1.633619e-02 -1.451746e-03 -1.473825e-02 -3.091203e-03 -1.561069e-02 -5.705745e-03 -9.156183e-03 -8.976166e-04 -1.793377e-03 3.708724e-03 -1.722977e-03 1.371831e-03 -3.980336e-03 -2.029045e-03 1.797725e-03 2.368035e-03 9.966737e-03 6.690294e-03 1.264044e-02 2.477079e-03 1.549331e-02 -6.918326e-03 2.995830e-02 -1.478157e-02 4.929122e-02 -1.255219e-02 4.945987e-02 -1.030142e-04 4.233248e-02 1.498711e-02 3.955191e-02 3.044164e-02 4.225177e-02 4.729785e-02 4.837291e-02 6.792736e-02 5.611913e-02 9.513834e-02 6.323288e-02 
1.120458e-01 9.166856e-03 3.621997e-01 -4.825823e-01 -1.594207e+01 3.660630e-02 -9.451974e-02 -7.099831e-02 -1.004083e-01 -7.243542e-02 -7.221093e-02 -6.782286e-02 -4.530216e-02 -6.476961e-02 -2.315367e-02 -5.991212e-02 -1.220498e-02 -4.731249e-02 -7.788603e-03 -3.688985e-02 -7.411679e-03 -2.970963e-02 -7.543978e-03 -2.129247e-02 -4.103509e-03 -1.452631e-02 -1.081854e-03 -1.233776e-02 -1.820505e-03 -1.141298e-02 -3.110453e-03 -6.991327e-03 -5.295933e-04 -2.453674e-03 2.016945e-03 -1.653900e-03 8.646007e-04 -1.666236e-03 -9.176272e-04 2.547402e-03 1.171513e-03 7.972786e-03 2.951393e-03 1.096003e-02 -2.594613e-04 1.477204e-02 -6.608061e-03 2.464344e-02 -1.158798e-02 3.630073e-02 -1.005620e-02 3.824813e-02 -1.582995e-03 3.496641e-02 9.533634e-03 3.333452e-02 2.171329e-02 3.503743e-02 3.545601e-02 3.933494e-02 5.233409e-02 4.515884e-02 7.445000e-02 5.065819e-02 
8.576049e-02 1.269521e-03 2.867001e-01 -3.847087e-01 -1.161031e+01 6.570076e-02 -5.046132e-02 -4.742387e-02 -7.324731e-02 -5.497405e-02 -5.286259e-02 -5.231856e-02 -3.279389e-02 -5.005063e-02 -1.710757e-02 -4.603671e-02 -9.243051e-03 -3.745304e-02 -5.724119e-03 -2.946378e-02 -5.094557e-03 -2.322711e-02 -5.129988e-03 -1.677716e-02 -3.135445e-03 -1.178189e-02 -1.086419e-03 -9.707353e-03 -1.205595e-03 -8.409741e-03 -1.901322e-03 -5.273231e-03 -4.528222e-04 -2.248848e-03 1.236297e-03 -1.393250e-03 7.833129e-04 -8.092927e-04 -3.448537e-04 2.284677e-03 5.319649e-04 6.178330e-03 1.267758e-03 8.979967e-03 -1.189883e-03 1.275942e-02 -5.992903e-03 2.015827e-02 -9.609650e-03 2.821748e-02 -8.129075e-03 3.043070e-02 -2.081314e-03 2.855865e-02 6.233852e-03 2.695938e-02 1.576029e-02 2.741307e-02 2.663686e-02 2.980982e-02 3.980002e-02 3.347877e-02 5.670280e-02 3.690425e-02 
5.502940e-02 -4.415576e-03 2.033563e-01 -2.812910e-01 -7.342440e+00 7.377171e-02 -1.300734e-02 -2.760951e-02 -4.337152e-02 -3.743881e-02 -3.080172e-02 -3.583599e-02 -1.777435e-02 -3.413447e-02 -7.895002e-03 -3.126251e-02 -2.917224e-03 -2.594282e-02 -9.364655e-04 -2.059420e-02 -8.805069e-04 -1.603993e-02 -1.286418e-03 -1.163030e-02 -5.956590e-04 -8.287698e-03 2.010509e-04 -6.639296e-03 -9.575102e-05 -5.459132e-03 -6.364146e-04 -3.443285e-03 -1.082140e-05 -1.588004e-03 7.625225e-04 -8.269274e-04 3.793721e-04 -6.430126e-05 -4.214945e-04 2.081193e-03 -3.203138e-04 4.712659e-03 -5.106779e-04 6.955022e-03 -2.632510e-03 9.929988e-03 -6.098495e-03 1.479309e-02 -8.675207e-03 1.975146e-02 -8.055094e-03 2.143911e-02 -4.325637e-03 2.039281e-02 1.139521e-03 1.907518e-02 7.577096e-03 1.884141e-02 1.495238e-02 1.988720e-02 2.378080e-02 2.190732e-02 3.499079e-02 2.380278e-02 
2.553226e-02 -1.143200e-02 1.231158e-01 -1.846918e-01 -2.953551e+00 9.994149e-02 3.139820e-02 -3.774968e-03 -1.468462e-02 -1.907873e-02 -1.004675e-02 -1.962803e-02 -3.364290e-03 -1.960239e-02 1.368795e-03 -1.848881e-02 3.160639e-03 -1.562794e-02 3.239068e-03 -1.237412e-02 2.295044e-03 -9.401012e-03 1.226840e-03 -6.582761e-03 9.929046e-04 -4.517685e-03 1.062185e-03 -3.531974e-03 6.301017e-04 -2.855315e-03 8.441129e-05 -1.738737e-03 2.479884e-04 -7.397457e-04 5.857654e-04 -3.515772e-04 2.473439e-04 1.172443e-04 -4.545344e-04 1.462039e-03 -7.753678e-04 3.187641e-03 -1.373178e-03 4.827132e-03 -3.280986e-03 7.035546e-03 -6.146718e-03 1.034668e-02 -8.353906e-03 1.351590e-02 -8.314825e-03 1.443652e-02 -6.240471e-03 1.323431e-02 -3.034660e-03 1.144098e-02 6.921581e-04 1.014687e-02 4.739127e-03 9.675232e-03 9.250870e-03 9.913000e-03 1.466748e-02 1.008578e-02 
-5.258810e-03 -1.725783e-02 3.800171e-02 -8.013035e-02 1.393105e+00 1.125596e-01 7.046330e-02 1.835919e-02 1.451102e-02 -4.017254e-04 1.137415e-02 -2.797841e-03 1.173924e-02 -4.357188e-03 1.157816e-02 -5.033189e-03 1.024266e-02 -4.516978e-03 8.299330e-03 -3.471814e-03 6.134235e-03 -2.343417e-03 4.243212e-03 -1.223261e-03 3.101185e-03 -4.893696e-04 2.371941e-03 -3.048113e-04 1.568255e-03 -2.563780e-04 8.497308e-04 2.555261e-05 5.969945e-04 2.552353e-04 4.777125e-04 2.127790e-04 -4.513334e-06 2.849412e-04 -7.274469e-04 8.671016e-04 -1.358986e-03 1.691755e-03 -2.291158e-03 2.525877e-03 -4.073144e-03 3.691405e-03 -6.450212e-03 5.370087e-03 -8.448296e-03 6.788150e-03 -9.169052e-03 6.759723e-03 -8.719607e-03 5.221865e-03 -7.742101e-03 3.019521e-03 -6.792809e-03 8.885619e-04 -6.221817e-03 -8.540786e-04 -6.192486e-03 -2.186116e-03 -6.701252e-03 -3.539206e-03 
-3.609627e-02 -2.397847e-02 -4.327905e-02 1.468319e-02 5.769589e+00 1.361649e-01 1.142566e-01 4.173912e-02 4.391668e-02 1.805933e-02 3.298235e-02 1.341711e-02 2.732600e-02 9.899266e-03 2.245894e-02 7.298271e-03 1.782149e-02 5.790957e-03 1.361419e-02 4.972152e-03 9.954708e-03 4.487372e-03 7.025434e-03 4.162655e-03 5.001544e-03 3.710342e-03 3.597565e-03 3.010980e-03 2.420168e-03 2.300503e-03 1.466103e-03 1.784512e-03 9.001341e-04 1.294402e-03 4.947260e-04 7.033580e-04 -1.042532e-04 2.390120e-04 -8.969630e-04 1.230622e-04 -1.735200e-03 1.937852e-04 -2.870196e-03 3.002816e-04 -4.656876e-03 5.923293e-04 -6.942437e-03 1.093556e-03 -9.083983e-03 1.234863e-03 -1.053924e-02 2.095997e-04 -1.149896e-02 -2.090168e-03 -1.253408e-02 -5.136286e-03 -1.422865e-02 -8.371500e-03 -1.709796e-02 -1.148285e-02 -2.159768e-02 -1.436859e-02 -2.813555e-02 -1.718856e-02 