# vtk DataFile Version 2.0
Comment goes here
ASCII

DATASET STRUCTURED_POINTS
FIELD FieldData 1
TIME 1 1 double
0.05900000
DIMENSIONS    64   64   1

ORIGIN    0.000   0.000   0.000
SPACING   0.03125 0.03125   1.000

POINT_DATA   4096
SCALARS Omega double
LOOKUP_TABLE default

-3.463564e-01 -6.368890e-01 -1.540859e-01 -9.199043e-01 -2.096133e-01 -9.025702e-02 -1.694339e-01 -6.482957e-01 -1.921940e-01 -7.021870e-01 -1.308883e-01 -6.863528e-01 -7.880142e-03 -5.110857e-01 2.097660e-01 -1.071630e-01 5.848010e-01 1.771322e-01 9.030480e-01 4.943611e-01 9.198296e-01 5.451974e-01 1.088545e+00 5.849678e-01 9.191293e-01 5.508542e-01 7.994446e-01 6.771443e-01 8.214355e-01 7.748957e-01 9.004988e-01 7.121844e-01 7.476349e-01 6.993101e-01 6.427043e-01 7.970919e-01 7.128563e-01 9.292871e-01 8.103470e-01 8.066735e-01 7.072289e-01 8.233453e-01 5.529326e-01 9.506840e-01 5.153992e-01 1.026699e+00 5.041095e-01 7.562910e-01 2.381543e-01 4.012499e-01 -1.021815e-01 1.701610e-01 -4.375358e-01 2.915990e-02 -6.277979e-01 -6.438573e-02 -7.076023e-01 -1.084276e-01 -7.046470e-01 -1.482431e-01 -6.565053e-01 -1.641727e-01 -6.433995e-01 6.802440e-02 
-8.149900e+00 -3.961353e+01 -1.038050e+01 -3.262550e+01 -1.510818e+01 -2.897795e+01 -2.058534e+01 -2.373087e+01 -2.839393e+01 -1.913957e+01 -3.464264e+01 -1.555787e+01 -3.904354e+01 -1.362543e+01 -4.189223e+01 -1.318285e+01 -4.372011e+01 -1.328395e+01 -4.513236e+01 -1.306664e+01 -4.682701e+01 -1.147498e+01 -4.990014e+01 -8.262598e+00 -5.434796e+01 -3.021563e+00 -6.038294e+01 3.059693e+00 -6.691518e+01 8.975139e+00 -7.275472e+01 1.414679e+01 -7.763373e+01 1.871449e+01 -8.197893e+01 2.240760e+01 -8.568365e+01 2.506534e+01 -8.756923e+01 2.578543e+01 -8.669662e+01 2.350521e+01 -8.291714e+01 1.873982e+01 -7.756433e+01 1.319483e+01 -7.142766e+01 7.626894e+00 -6.467515e+01 1.973011e+00 -5.734758e+01 -4.211000e+00 -4.943638e+01 -1.085192e+01 -4.154363e+01 -1.731250e+01 -3.443167e+01 -2.253372e+01 -2.879847e+01 -2.642395e+01 -2.383322e+01 -2.995478e+01 -1.910113e+01 -3.374616e+01 
-6.538809e+01 1.293977e+01 -4.556998e+01 9.762853e+00 -1.050770e+01 8.571786e+00 -4.793653e+01 3.653141e+00 -6.056840e+01 1.665020e+00 -6.902628e+01 3.038128e-01 -7.599674e+01 -7.927105e-01 -8.241149e+01 -2.146168e+00 -8.882674e+01 -4.107664e+00 -9.390705e+01 -5.547472e+00 -9.720127e+01 -6.508598e+00 -9.929158e+01 -8.125950e+00 -9.879321e+01 -1.081435e+01 -9.697263e+01 -1.387559e+01 -9.571109e+01 -1.677340e+01 -9.496206e+01 -1.907040e+01 -9.325145e+01 -2.138325e+01 -9.127137e+01 -2.349762e+01 -9.018252e+01 -2.551863e+01 -8.969041e+01 -2.634748e+01 -8.912890e+01 -2.577136e+01 -8.953255e+01 -2.409015e+01 -9.104151e+01 -2.205086e+01 -9.229052e+01 -1.939455e+01 -9.187116e+01 -1.610240e+01 -9.045210e+01 -1.237406e+01 -8.886495e+01 -8.350844e+00 -8.740539e+01 -4.629198e+00 -8.545428e+01 -2.047163e+00 -8.181779e+01 -3.268516e-01 -7.655435e+01 1.262150e+00 -6.762080e+01 2.809202e+00 
-3.326642e+01 1.000992e+01 -2.468555e+01 1.195319e+01 -3.016610e+01 8.017308e+00 -1.836638e+01 9.874776e+00 -2.582484e+01 7.017410e+00 -3.016658e+01 4.759490e+00 -3.362390e+01 3.315752e+00 -3.686059e+01 2.241585e+00 -3.982447e+01 1.698260e-01 -4.208307e+01 -8.124113e-01 -4.357497e+01 -2.024955e+00 -4.391109e+01 -3.765063e+00 -4.292056e+01 -6.416466e+00 -4.104921e+01 -8.904228e+00 -3.903740e+01 -1.126700e+01 -3.723488e+01 -1.349482e+01 -3.534836e+01 -1.544267e+01 -3.347063e+01 -1.674926e+01 -3.193155e+01 -1.774688e+01 -3.103437e+01 -1.849137e+01 -3.086826e+01 -1.775458e+01 -3.179202e+01 -1.575511e+01 -3.346523e+01 -1.346135e+01 -3.505535e+01 -1.162953e+01 -3.614175e+01 -9.534765e+00 -3.689605e+01 -6.598782e+00 -3.759222e+01 -3.124431e+00 -3.838266e+01 4.921653e-02 -3.878943e+01 2.364797e+00 -3.801972e+01 3.727829e+00 -3.612862e+01 5.091127e+00 -3.317889e+01 8.500589e+00 
-2.544248e+00 2.169023e+00 -2.762045e+00 -5.501492e+00 -5.124094e+01 6.778381e-02 4.722341e+00 -1.261723e-02 7.330427e-01 -4.895020e-02 -4.734914e-01 4.029882e-02 -9.701295e-01 4.448397e-01 -1.502263e+00 1.023410e+00 -1.545721e+00 -7.663722e-01 -1.310344e+00 -6.920653e-01 -1.208323e+00 -6.389217e-02 -9.448988e-01 -1.254960e-01 -1.272050e+00 -4.201018e-01 -1.560094e+00 -4.482948e-01 -1.367244e+00 6.324269e-02 -1.003581e+00 -7.343402e-02 -1.198877e+00 -4.193989e-01 -1.344706e+00 -4.338584e-01 -1.051665e+00 2.721315e-02 -6.981519e-01 -2.362169e-01 -8.867352e-01 -6.513758e-01 -1.066367e+00 -6.334405e-01 -8.640195e-01 -1.501294e-01 -6.566843e-01 -6.445705e-01 -5.534167e-01 -1.345957e+00 -3.053155e-01 -7.015120e-01 -2.990393e-01 -1.814736e-01 -4.261138e-01 -1.334216e-02 -4.994336e-01 1.443261e-01 -5.530192e-01 4.199213e-01 -6.692252e-01 8.692187e-01 -8.204886e-01 1.540769e+00 
-1.931007e+00 1.768086e+00 -2.417328e+00 -4.885415e+00 -6.554142e+01 -1.692431e+00 4.218742e+00 -1.070446e+00 2.328655e+00 -5.477300e-01 1.273438e+00 -3.522625e-01 7.501115e-01 4.111006e-01 1.098027e-01 2.275509e+00 -8.870378e-01 -1.490871e+00 1.988357e-01 -8.697794e-01 3.638762e-01 6.143284e-01 5.547278e-01 3.344697e-01 1.804819e-03 -3.564819e-01 -4.252453e-01 -5.594049e-01 5.488930e-02 6.521575e-01 4.293944e-01 3.779013e-01 -7.227327e-02 -4.115181e-01 -4.267986e-01 -5.532838e-01 5.573263e-02 6.745870e-01 3.775352e-01 3.977681e-01 -1.046717e-01 -3.089600e-01 -4.867559e-01 -2.430925e-01 -1.551211e-01 1.056066e+00 -1.270659e-01 4.022468e-01 -1.352871e-01 -1.405489e+00 5.062277e-01 -2.109605e-02 2.779413e-01 5.091664e-01 -1.475094e-01 4.526243e-01 -3.433750e-01 4.260422e-01 -4.718879e-01 5.602265e-01 -7.092792e-01 8.213892e-01 -1.143308e+00 6.946486e-01 
-2.001243e+00 1.176451e+00 -1.553984e+00 -5.770954e+00 -7.580467e+01 -1.165590e+00 3.369266e+00 -1.248896e+00 2.335423e+00 -9.550120e-01 1.505133e+00 -9.109515e-01 1.014879e+00 8.274131e-02 1.761583e-01 3.330696e-01 1.255688e+00 1.757463e+00 1.453815e+00 1.451594e+00 5.988677e-01 2.894388e+00 1.750809e+00 1.346935e+00 6.055167e-01 1.082869e-01 -4.142544e-01 2.540038e-01 2.166272e-01 2.357423e+00 1.451734e+00 7.872183e-01 5.011005e-01 -5.558814e-01 -3.855952e-01 -2.660843e-01 2.259195e-01 2.051469e+00 1.355336e+00 3.970924e-01 5.035604e-01 -9.383339e-01 -3.754446e-01 -3.997611e-01 7.826889e-02 2.590255e+00 2.882860e-01 4.158117e-01 -1.054690e-01 -5.782262e+00 6.344976e-01 -2.569999e-01 4.616608e-01 1.107538e+00 -3.892966e-01 6.091501e-01 -5.874146e-01 4.618697e-01 -6.743286e-01 5.533649e-01 -8.855701e-01 7.426974e-01 -1.257841e+00 8.397099e-01 
-1.747522e+00 1.005800e+00 -1.085975e+00 -5.088931e+00 -8.395224e+01 -1.206292e+00 1.851498e+00 -1.709650e+00 1.838168e+00 -1.377476e+00 1.317846e+00 -1.732121e+00 7.471634e-01 -3.031192e+00 2.837759e+00 -1.783674e+01 1.734718e+01 2.981896e+01 1.678096e+01 2.268368e+01 1.300618e+01 1.118871e+01 2.037855e+01 1.672695e+01 1.377118e+01 1.728972e+01 9.162078e+00 1.755844e+01 1.253195e+01 1.023451e+01 1.988196e+01 1.499304e+01 1.360448e+01 1.560300e+01 9.222796e+00 1.585575e+01 1.226549e+01 9.290351e+00 1.955435e+01 1.368170e+01 1.339320e+01 1.369719e+01 9.162636e+00 1.381891e+01 1.172990e+01 8.488384e+00 1.719562e+01 1.137033e+01 1.098293e+01 8.147479e+00 7.241595e+00 6.102808e+00 5.815733e-01 1.667197e+00 -8.583978e-01 6.118385e-01 -7.231338e-01 5.456779e-01 -6.678729e-01 6.875986e-01 -8.245524e-01 8.827308e-01 -1.165111e+00 1.023210e+00 
-1.454037e+00 7.662975e-01 -1.668258e-01 -5.496088e+00 -8.942644e+01 -7.142806e-01 1.164165e+00 -1.583448e+00 1.362085e+00 -1.522530e+00 1.246891e+00 -2.885188e+00 1.929151e+00 -7.706765e+00 8.446734e+00 -3.086607e+01 4.385720e+01 5.484246e+01 3.847392e+01 4.803069e+01 3.269881e+01 2.326877e+01 5.485643e+01 3.602243e+01 4.175832e+01 4.461295e+01 3.111451e+01 5.213074e+01 3.599114e+01 2.726464e+01 5.847188e+01 3.980944e+01 4.330716e+01 4.761708e+01 3.162827e+01 5.379847e+01 3.621708e+01 2.806949e+01 5.957571e+01 4.131762e+01 4.285467e+01 4.756728e+01 3.123275e+01 5.289988e+01 3.635234e+01 2.640586e+01 5.935246e+01 3.960978e+01 3.889511e+01 7.787529e+01 1.504946e+01 1.699459e+01 -4.062251e+00 2.689687e-01 -2.365817e+00 -1.254824e-01 -1.003190e+00 3.602779e-01 -7.207286e-01 6.465933e-01 -8.258333e-01 8.572211e-01 -1.092798e+00 1.011665e+00 
-1.107899e+00 6.251329e-01 4.076314e-01 -4.951826e+00 -9.382762e+01 -6.845370e-01 4.189132e-01 -1.606334e+00 9.835170e-01 -1.270539e+00 1.401413e+00 -1.674783e+00 2.584335e+00 -3.706708e+00 5.298464e+00 -7.178526e+00 9.245355e+00 1.476173e+00 1.175263e+01 4.782177e+00 1.160476e+01 3.164055e+00 1.903784e+01 5.876528e+00 1.782261e+01 1.201073e+01 1.445538e+01 1.802134e+01 1.448698e+01 1.066884e+01 2.474620e+01 1.389149e+01 2.023848e+01 1.916959e+01 1.505402e+01 2.410975e+01 1.464900e+01 1.448374e+01 2.700131e+01 1.870215e+01 2.060696e+01 2.367823e+01 1.485382e+01 2.879344e+01 1.449625e+01 1.749472e+01 2.927021e+01 2.408988e+01 2.821471e+01 5.352347e+01 -5.463855e-01 1.026263e+01 -3.611267e+00 7.934325e-01 -1.643567e+00 2.421376e-01 -7.153672e-01 5.120142e-01 -5.575922e-01 7.337833e-01 -6.708814e-01 9.130653e-01 -8.926719e-01 1.038282e+00 
-7.596644e-01 4.243331e-01 1.183742e+00 -4.910559e+00 -9.620242e+01 -3.703995e-01 1.096791e-01 -1.380673e+00 6.143232e-01 -5.765368e-01 8.849949e-01 1.233173e+00 3.195274e-01 5.803861e+00 -4.776271e+00 2.820116e+01 -4.431212e+01 -5.810279e+01 -3.544245e+01 -5.096820e+01 -2.975963e+01 -2.749925e+01 -5.291193e+01 -3.734547e+01 -3.976333e+01 -4.462508e+01 -2.981633e+01 -5.184116e+01 -3.209928e+01 -2.902567e+01 -5.535301e+01 -3.725226e+01 -4.130981e+01 -4.450545e+01 -3.066746e+01 -5.124510e+01 -3.222536e+01 -2.822548e+01 -5.611187e+01 -3.623718e+01 -4.108415e+01 -4.208172e+01 -3.087746e+01 -4.813352e+01 -3.243516e+01 -2.488089e+01 -5.403360e+01 -3.284050e+01 -4.326365e+01 -7.478308e+01 -6.647204e+00 -9.256616e+00 2.701143e+00 1.466845e+00 1.181800e+00 1.318247e+00 7.163345e-02 9.037275e-01 -3.426325e-01 8.394878e-01 -5.573674e-01 9.197847e-01 -7.301304e-01 1.001560e+00 
-4.228618e-01 3.053608e-01 1.680759e+00 -4.436378e+00 -9.793754e+01 -2.491667e-01 -3.126489e-01 -1.436036e+00 5.157683e-02 -8.287148e-01 2.094387e-01 6.826516e-01 -7.013181e-01 5.176413e+00 -8.034580e+00 2.610651e+01 -2.426906e+01 -3.259984e+01 -2.896877e+01 -2.968718e+01 -2.589179e+01 -1.262303e+01 -3.925714e+01 -2.465423e+01 -3.029249e+01 -3.156294e+01 -2.272983e+01 -3.575155e+01 -2.910451e+01 -1.825981e+01 -4.428519e+01 -3.057993e+01 -3.235477e+01 -3.654436e+01 -2.357270e+01 -3.974041e+01 -2.947582e+01 -2.054752e+01 -4.597963e+01 -3.369189e+01 -3.244588e+01 -3.863200e+01 -2.349357e+01 -4.177820e+01 -2.966637e+01 -2.141482e+01 -4.694596e+01 -3.598508e+01 -2.835899e+01 -6.190530e+01 -1.509710e+01 -1.841257e+01 2.499550e+00 -2.735281e-01 1.650967e+00 1.045303e+00 2.986706e-01 8.848151e-01 -1.843329e-01 8.548514e-01 -3.898255e-01 9.223424e-01 -5.118690e-01 9.757547e-01 
-1.074638e-01 1.211272e-01 2.286429e+00 -4.295148e+00 -9.811472e+01 8.155622e-02 -5.049134e-01 -1.303916e+00 -4.045362e-01 -8.616558e-01 -3.281393e-01 -2.663092e-01 -8.491025e-01 -2.495289e-01 -1.615880e+00 6.370883e-01 -3.601197e+00 1.299546e+00 -3.120647e+00 1.020877e+00 -1.364567e+00 -1.107173e+00 -3.854042e+00 5.615241e-01 -3.359944e+00 1.616166e-01 -1.742883e+00 -1.612810e+00 -1.534334e+00 -2.828754e+00 -4.827783e+00 -1.467924e+00 -3.647704e+00 -1.612555e+00 -1.630713e+00 -3.209705e+00 -1.494240e+00 -4.031538e+00 -5.179985e+00 -2.942764e+00 -3.556758e+00 -3.196621e+00 -1.301550e+00 -5.091108e+00 -1.256692e+00 -6.025860e+00 -5.029690e+00 -4.609427e+00 -4.531247e+00 -2.381350e-01 -1.321073e+00 -3.488841e+00 2.736286e-02 -1.244349e+00 4.100688e-01 2.786401e-01 1.144619e-01 6.627124e-01 -1.456713e-01 7.845611e-01 -2.905645e-01 8.785793e-01 -3.452057e-01 9.190979e-01 
1.840584e-01 7.015853e-03 2.654898e+00 -3.862118e+00 -9.787447e+01 2.064092e-01 -7.092132e-01 -1.284241e+00 -7.387974e-01 -9.515259e-01 -6.069918e-01 -3.982680e-01 -8.729826e-01 -6.008413e-01 -5.869760e-01 -3.522698e+00 2.352469e+00 1.116280e+00 3.379768e-02 4.913795e-01 -7.385316e-01 -1.250521e+00 -4.530446e-01 -4.863594e-01 2.163671e-01 5.191878e-01 3.900839e-01 6.628653e-01 -4.403326e-01 -1.115390e+00 -5.366030e-01 -4.650363e-01 1.955059e-01 5.826134e-01 4.764271e-01 7.524951e-01 -3.201073e-01 -1.134366e+00 -5.850679e-01 -5.233755e-01 1.544777e-01 4.639217e-01 6.024726e-01 5.492116e-01 -9.248703e-02 -1.676876e+00 -3.428976e-01 -5.899747e-01 1.153777e-01 3.361347e+00 -6.493906e-01 -4.795395e-01 -1.219502e-01 -7.311807e-01 2.964065e-01 1.502366e-01 1.349124e-01 5.572566e-01 -5.326263e-02 7.267171e-01 -1.495374e-01 8.338608e-01 -1.504636e-01 8.610329e-01 
4.378246e-01 -1.646753e-01 3.091405e+00 -3.727560e+00 -9.642430e+01 4.930091e-01 -7.338753e-01 -1.309243e+00 -9.049336e-01 -1.265778e+00 -5.656678e-01 -1.072899e+00 -2.754595e-01 -7.196279e-01 2.879064e-01 -9.126472e-03 -2.854983e-01 -6.647462e-01 5.988006e-01 8.421872e-03 4.365134e-01 4.070951e-01 -3.153943e-01 -1.109645e-01 2.920707e-02 -1.499890e-01 2.747559e-01 2.054872e-01 3.093761e-01 3.270938e-01 -4.674441e-01 -2.692572e-01 -2.675310e-02 -2.266756e-01 3.566854e-01 2.633514e-01 3.954941e-01 3.629418e-01 -5.282817e-01 -3.209753e-01 -2.967721e-02 -3.124477e-01 5.141297e-01 3.293877e-01 5.799508e-01 6.129986e-01 -7.915692e-01 4.352269e-01 -1.002305e+00 -3.628705e-02 5.527294e-01 1.975318e-01 3.819086e-01 2.060263e-01 -4.117223e-03 2.673618e-01 -8.924034e-02 4.585543e-01 -1.056766e-01 6.312011e-01 -9.536212e-02 7.627983e-01 -1.881251e-02 7.884015e-01 
6.701173e-01 -2.817136e-01 3.318435e+00 -3.320449e+00 -9.462042e+01 5.722981e-01 -7.888605e-01 -1.246149e+00 -1.006075e+00 -1.359484e+00 -6.236544e-01 -1.439861e+00 -3.106114e-01 -1.691383e+00 7.183711e-01 -2.521531e+00 2.017220e-02 3.975598e+00 3.173792e+00 4.297844e+00 2.045361e+00 2.845159e+00 1.886205e+00 3.454320e+00 1.633317e+00 2.715073e+00 1.062237e+00 2.152750e+00 1.669577e+00 1.807075e+00 1.800011e+00 2.171100e+00 1.611237e+00 1.664877e+00 1.165108e+00 1.473956e+00 1.702532e+00 1.254901e+00 1.821880e+00 1.386964e+00 1.727139e+00 8.511798e-01 1.395585e+00 9.457088e-01 1.907522e+00 1.109812e+00 1.650700e+00 1.225467e+00 1.258363e+00 -9.481296e-01 1.221171e+00 4.106694e-01 4.589760e-01 7.053843e-01 -1.300032e-01 4.201131e-01 -1.512039e-01 4.504725e-01 -6.770890e-02 5.822560e-01 9.769415e-03 7.037856e-01 1.376463e-01 7.114929e-01 
8.627596e-01 -4.238160e-01 3.576006e+00 -3.111140e+00 -9.182915e+01 7.578264e-01 -7.458532e-01 -1.182557e+00 -1.093274e+00 -1.451337e+00 -7.185498e-01 -2.119707e+00 -4.739109e-02 -5.192541e+00 4.495994e+00 -1.411321e+01 5.340141e+00 1.795504e+01 1.872447e+01 1.839933e+01 1.654290e+01 9.425225e+00 1.773432e+01 2.132133e+01 1.535974e+01 2.017300e+01 1.200710e+01 1.404488e+01 1.710419e+01 9.748415e+00 1.884373e+01 2.178719e+01 1.606449e+01 2.004297e+01 1.249714e+01 1.385774e+01 1.737987e+01 9.239597e+00 1.899519e+01 2.139544e+01 1.639118e+01 1.923882e+01 1.259639e+01 1.285397e+01 1.763100e+01 8.320977e+00 1.915430e+01 2.049798e+01 1.340535e+01 2.560664e+01 1.233276e+01 1.234745e+01 1.032684e-01 1.163897e+00 -1.019416e+00 1.331111e-01 -3.836638e-01 3.220483e-01 -8.500454e-02 5.114249e-01 6.554729e-02 6.456066e-01 2.420410e-01 6.398094e-01 
1.033035e+00 -5.158274e-01 3.655783e+00 -2.703020e+00 -8.870421e+01 7.739003e-01 -7.431325e-01 -1.047611e+00 -1.067532e+00 -1.314700e+00 -5.298043e-01 -2.066216e+00 7.721813e-01 -5.143418e+00 5.425061e+00 -1.331369e+01 7.793926e+00 1.290611e+01 1.853546e+01 1.341411e+01 1.786398e+01 6.292124e+00 2.126744e+01 1.944886e+01 1.869823e+01 2.020800e+01 1.475207e+01 1.531662e+01 1.993753e+01 1.030906e+01 2.381845e+01 2.453506e+01 2.007218e+01 2.379311e+01 1.516733e+01 1.768320e+01 2.037283e+01 1.175467e+01 2.438399e+01 2.696286e+01 2.041125e+01 2.550499e+01 1.471533e+01 1.862573e+01 2.029376e+01 1.251295e+01 2.472739e+01 2.777200e+01 1.905312e+01 4.224967e+01 1.267480e+01 1.671576e+01 -1.667116e+00 1.412926e+00 -1.515644e+00 4.163515e-02 -4.344197e-01 2.564605e-01 -2.134497e-02 4.596054e-01 1.634543e-01 5.881118e-01 3.655817e-01 5.608049e-01 
1.164670e+00 -6.037064e-01 3.738231e+00 -2.423885e+00 -8.479401e+01 8.291199e-01 -6.315513e-01 -9.114560e-01 -9.458722e-01 -8.608918e-01 -4.271084e-01 -2.963100e-01 1.352652e-01 1.702522e+00 -1.852809e+00 7.923625e+00 -4.029884e+00 -1.625223e+01 -1.204019e+01 -1.594989e+01 -9.532994e+00 -9.254521e+00 -1.183904e+01 -1.642311e+01 -9.328757e+00 -1.451191e+01 -6.609982e+00 -1.035588e+01 -9.504661e+00 -7.094801e+00 -1.185473e+01 -1.363145e+01 -9.409869e+00 -1.199411e+01 -6.921693e+00 -8.517892e+00 -9.494377e+00 -5.266395e+00 -1.172408e+01 -1.144497e+01 -9.572439e+00 -9.733923e+00 -7.232067e+00 -6.425654e+00 -9.781567e+00 -3.162933e+00 -1.171652e+01 -8.387404e+00 -8.932940e+00 -1.323757e+01 -5.752376e+00 -2.862358e+00 -4.125877e-01 7.084880e-01 1.505447e-01 6.154562e-01 1.181889e-01 4.853861e-01 1.495232e-01 5.042796e-01 2.468863e-01 5.659940e-01 4.470342e-01 5.009191e-01 
1.267596e+00 -6.377382e-01 3.679790e+00 -2.042044e+00 -8.053947e+01 8.191698e-01 -6.179543e-01 -8.097049e-01 -9.726791e-01 -7.136826e-01 -6.888713e-01 2.928062e-01 -1.029519e+00 4.228530e+00 -6.207860e+00 1.409772e+01 -6.569470e+00 -1.834301e+01 -2.191888e+01 -1.957718e+01 -2.045641e+01 -9.919945e+00 -2.281428e+01 -2.425798e+01 -2.000068e+01 -2.410505e+01 -1.563053e+01 -1.761546e+01 -2.185332e+01 -1.205694e+01 -2.526879e+01 -2.738596e+01 -2.133372e+01 -2.594074e+01 -1.620234e+01 -1.874013e+01 -2.229812e+01 -1.236750e+01 -2.586089e+01 -2.849351e+01 -2.178966e+01 -2.633907e+01 -1.602660e+01 -1.847194e+01 -2.245968e+01 -1.175576e+01 -2.653638e+01 -2.801826e+01 -1.942844e+01 -4.030840e+01 -1.487431e+01 -1.616650e+01 7.957137e-01 -3.171602e-01 1.327268e+00 8.268854e-01 4.965500e-01 5.952053e-01 2.841986e-01 5.168319e-01 3.316521e-01 5.308200e-01 5.322741e-01 4.347916e-01 
1.329185e+00 -6.747287e-01 3.628273e+00 -1.796443e+00 -7.569439e+01 8.720552e-01 -5.740513e-01 -7.091287e-01 -1.040259e+00 -7.248194e-01 -9.196826e-01 -3.388876e-01 -1.141739e+00 5.438128e-01 -2.744294e+00 2.683208e+00 -1.666973e+00 -2.725651e+00 -6.546565e+00 -3.299980e+00 -6.704564e+00 -1.945766e+00 -6.974174e+00 -5.601724e+00 -6.265374e+00 -5.833434e+00 -5.059542e+00 -4.547877e+00 -7.222468e+00 -3.706362e+00 -7.889654e+00 -8.134773e+00 -6.760148e+00 -7.665803e+00 -5.188522e+00 -5.779072e+00 -7.439549e+00 -4.623897e+00 -8.097368e+00 -9.582987e+00 -6.843138e+00 -8.772344e+00 -4.948368e+00 -6.604987e+00 -7.341137e+00 -5.482227e+00 -7.965842e+00 -1.092077e+01 -5.610938e+00 -1.132907e+01 -6.286583e+00 -7.333069e+00 -2.368628e-01 -9.609216e-01 6.618755e-01 2.829416e-01 4.021490e-01 4.223317e-01 3.096219e-01 4.542681e-01 3.689592e-01 4.859987e-01 5.738555e-01 3.792605e-01 
1.362844e+00 -6.735982e-01 3.467456e+00 -1.482689e+00 -7.054280e+01 8.553227e-01 -5.679843e-01 -5.816503e-01 -1.064168e+00 -6.249853e-01 -1.011625e+00 -4.700855e-01 -1.014579e+00 -9.713833e-01 -6.414934e-01 -2.449125e+00 8.828725e-01 9.017556e-01 -4.811207e-01 5.539691e-01 -8.034954e-01 -7.728270e-01 -3.130153e-01 1.288968e-01 -3.291314e-01 6.392025e-01 -1.724789e-01 6.046767e-02 -4.177450e-01 -8.622661e-01 -1.746828e-01 2.350466e-02 -1.723630e-01 5.003974e-01 3.961567e-03 -5.932165e-02 -2.953617e-01 -1.012119e+00 -9.341095e-02 -1.440860e-01 -6.270838e-02 3.272243e-01 1.666806e-01 -3.770139e-01 -9.135726e-02 -1.553461e+00 2.910919e-01 -4.718583e-01 1.097918e-01 2.284228e+00 -7.462503e-01 -1.678569e-01 -2.680329e-01 -5.798310e-01 2.791849e-01 1.525278e-02 3.479247e-01 2.897732e-01 3.429267e-01 3.871578e-01 4.123776e-01 4.301186e-01 6.170147e-01 3.168859e-01 
1.352778e+00 -6.780195e-01 3.313883e+00 -1.313145e+00 -6.498366e+01 8.615071e-01 -4.918100e-01 -5.501609e-01 -9.998610e-01 -6.770031e-01 -8.996250e-01 -6.053487e-01 -7.265274e-01 -8.262081e-01 -2.725023e-01 -1.360147e+00 5.606845e-01 -1.097600e-01 -2.737089e-02 -8.946309e-02 -2.860787e-01 -5.848205e-01 -3.399000e-02 -1.922299e-01 -4.964225e-02 1.434054e-01 -3.035690e-02 -5.032087e-02 -1.375516e-01 -4.832822e-01 4.025638e-02 -6.201869e-02 9.137845e-03 2.622183e-01 4.141717e-02 6.384250e-02 -9.432719e-02 -4.224510e-01 5.080143e-02 -4.615246e-03 2.348361e-02 3.129517e-01 1.032648e-01 5.693916e-02 -3.276400e-03 -4.902555e-01 1.670454e-01 1.869326e-01 -1.061716e-01 1.434823e+00 -4.556312e-01 3.061554e-01 -1.884473e-01 -1.635401e-01 1.431067e-01 2.741500e-02 2.542755e-01 2.152575e-01 3.079517e-01 3.206838e-01 4.021239e-01 3.751790e-01 6.133328e-01 2.641112e-01 
1.318731e+00 -6.579259e-01 3.078802e+00 -1.088993e+00 -5.914406e+01 8.208592e-01 -4.458251e-01 -4.653615e-01 -9.208549e-01 -6.438220e-01 -8.058843e-01 -6.536588e-01 -5.574062e-01 -7.903462e-01 -1.521500e-01 -7.722296e-01 1.544382e-01 -4.234106e-01 -1.787571e-02 -2.098715e-01 -1.184462e-01 -3.195001e-01 -9.413025e-02 -1.416498e-01 -8.087983e-02 -5.308536e-03 -1.376106e-02 -1.203069e-01 -4.295514e-02 -2.429486e-01 -3.357567e-02 -4.190386e-02 -2.140084e-02 9.619552e-02 4.493592e-02 -2.083993e-02 -3.571067e-03 -1.726937e-01 -1.702563e-02 1.695930e-02 2.684622e-03 1.464343e-01 1.023435e-01 6.371078e-03 7.748244e-02 -1.169411e-01 3.572352e-02 3.152927e-01 -1.644304e-01 7.390252e-01 -2.606682e-01 4.088746e-01 -9.784393e-02 6.421974e-02 8.487661e-02 6.712172e-02 2.082982e-01 1.775770e-01 2.946487e-01 2.685074e-01 4.021714e-01 3.199685e-01 6.114510e-01 2.084411e-01 
1.245878e+00 -6.345518e-01 2.840622e+00 -9.563781e-01 -5.301010e+01 7.767475e-01 -3.568905e-01 -4.287060e-01 -8.076010e-01 -6.144524e-01 -6.860907e-01 -6.033230e-01 -4.568709e-01 -6.362551e-01 -1.799332e-01 -5.872355e-01 -1.056775e-02 -4.270626e-01 -3.435436e-02 -2.675464e-01 -6.480927e-02 -2.467733e-01 -7.328921e-02 -1.346823e-01 -6.070565e-02 -6.378740e-02 -1.308276e-02 -1.159667e-01 -1.933042e-02 -1.449344e-01 -2.803157e-02 -3.367755e-02 -1.754347e-02 2.783767e-02 2.779153e-02 -3.469831e-02 1.126234e-02 -7.841515e-02 -8.740700e-03 2.652375e-02 3.353775e-03 8.310388e-02 6.355517e-02 2.018711e-02 4.922057e-02 2.272037e-02 -1.360405e-02 2.664465e-01 -1.437528e-01 4.312273e-01 -1.614510e-01 3.559696e-01 -5.772967e-02 1.584008e-01 6.191870e-02 1.167555e-01 1.640373e-01 1.682253e-01 2.547301e-01 2.325690e-01 3.669009e-01 2.757248e-01 5.719274e-01 1.656368e-01 
1.153679e+00 -5.941591e-01 2.546805e+00 -7.924937e-01 -4.662866e+01 7.139238e-01 -2.922863e-01 -3.537712e-01 -6.974299e-01 -5.539299e-01 -5.908010e-01 -5.528189e-01 -3.851919e-01 -5.437111e-01 -1.755775e-01 -4.785057e-01 -6.709352e-02 -4.079354e-01 -5.503931e-02 -2.767254e-01 -5.415226e-02 -2.022939e-01 -7.368469e-02 -1.250429e-01 -5.807437e-02 -8.679396e-02 -1.323532e-02 -1.076254e-01 -1.352408e-02 -9.917544e-02 -3.475632e-02 -3.502994e-02 -1.878384e-02 -5.123655e-03 2.336601e-02 -3.488940e-02 1.586496e-02 -3.704827e-02 -1.322345e-02 2.234721e-02 4.413932e-03 5.148644e-02 5.456571e-02 3.173727e-02 4.156357e-02 7.545540e-02 -3.199826e-02 2.232381e-01 -1.148536e-01 3.076070e-01 -1.107421e-01 2.969518e-01 -2.782192e-02 1.888924e-01 5.545207e-02 1.397324e-01 1.416749e-01 1.583285e-01 2.309781e-01 2.004102e-01 3.409476e-01 2.315198e-01 5.339121e-01 1.225133e-01 
1.030526e+00 -5.438682e-01 2.240941e+00 -6.747023e-01 -4.003165e+01 6.356670e-01 -2.156788e-01 -3.069020e-01 -5.819679e-01 -4.890634e-01 -4.933144e-01 -4.766885e-01 -3.281237e-01 -4.498101e-01 -1.751459e-01 -3.972621e-01 -8.714420e-02 -3.423310e-01 -5.681362e-02 -2.508240e-01 -4.423536e-02 -1.795553e-01 -5.132355e-02 -1.189631e-01 -3.813059e-02 -8.838090e-02 -9.951649e-03 -8.905852e-02 -8.784457e-03 -7.225233e-02 -2.142256e-02 -3.243585e-02 -1.033699e-02 -1.472512e-02 1.538544e-02 -2.567834e-02 1.216675e-02 -1.618761e-02 -5.421959e-03 2.145779e-02 4.319523e-03 4.150381e-02 2.998269e-02 4.256642e-02 1.559280e-02 8.533248e-02 -3.763754e-02 1.729985e-01 -8.820695e-02 2.231887e-01 -8.010822e-02 2.356356e-01 -1.960224e-02 1.819308e-01 4.353739e-02 1.455997e-01 1.132252e-01 1.497740e-01 1.923066e-01 1.755127e-01 2.930784e-01 1.963905e-01 4.695148e-01 9.182186e-02 
8.930944e-01 -4.837556e-01 1.902183e+00 -5.481753e-01 -3.323563e+01 5.570664e-01 -1.495405e-01 -2.306666e-01 -4.666769e-01 -4.085424e-01 -4.041459e-01 -4.034833e-01 -2.705304e-01 -3.746460e-01 -1.517636e-01 -3.336530e-01 -8.368322e-02 -2.921321e-01 -5.586569e-02 -2.215523e-01 -4.192533e-02 -1.564353e-01 -4.461884e-02 -1.068293e-01 -3.215525e-02 -8.163082e-02 -1.037081e-02 -7.496586e-02 -9.254778e-03 -5.775445e-02 -1.910307e-02 -3.079343e-02 -8.878120e-03 -1.813981e-02 1.113973e-02 -2.013828e-02 9.360458e-03 -8.411736e-03 -4.107551e-03 1.780168e-02 4.391354e-03 3.466565e-02 2.190468e-02 4.527675e-02 7.932850e-03 8.267369e-02 -3.535488e-02 1.415498e-01 -6.905208e-02 1.795964e-01 -5.927858e-02 1.925835e-01 -1.236802e-02 1.643483e-01 3.740121e-02 1.375184e-01 9.449603e-02 1.340728e-01 1.629272e-01 1.478345e-01 2.514299e-01 1.591281e-01 4.057472e-01 6.100580e-02 
7.329723e-01 -4.121911e-01 1.547351e+00 -4.393037e-01 -2.629246e+01 4.576091e-01 -8.852996e-02 -1.775875e-01 -3.540846e-01 -3.303359e-01 -3.123806e-01 -3.249984e-01 -2.118591e-01 -2.980341e-01 -1.239887e-01 -2.649140e-01 -6.955902e-02 -2.301874e-01 -4.323193e-02 -1.797020e-01 -2.976454e-02 -1.301154e-01 -2.750333e-02 -9.144934e-02 -1.805309e-02 -6.931183e-02 -5.005667e-03 -5.860291e-02 -4.412048e-03 -4.346215e-02 -9.802433e-03 -2.505603e-02 -3.484838e-03 -1.530892e-02 7.861347e-03 -1.272500e-02 6.411104e-03 -1.810255e-03 -1.804771e-03 1.664822e-02 1.635514e-03 3.061797e-02 8.216012e-03 4.310201e-02 -4.778490e-03 7.107814e-02 -3.438068e-02 1.093390e-01 -5.561024e-02 1.368368e-01 -4.850889e-02 1.500714e-01 -1.484680e-02 1.371759e-01 2.339655e-02 1.200082e-01 6.814593e-02 1.149724e-01 1.233759e-01 1.217737e-01 1.962310e-01 1.268622e-01 3.249966e-01 3.951633e-02 
5.641039e-01 -3.379068e-01 1.178408e+00 -3.370540e-01 -1.920919e+01 3.685632e-01 -2.511860e-02 -1.008201e-01 -2.372647e-01 -2.414615e-01 -2.216106e-01 -2.466994e-01 -1.493542e-01 -2.278722e-01 -8.550921e-02 -2.050839e-01 -4.699490e-02 -1.792741e-01 -2.882454e-02 -1.419710e-01 -2.003165e-02 -1.034511e-01 -1.832020e-02 -7.289728e-02 -1.160486e-02 -5.458064e-02 -2.974315e-03 -4.452695e-02 -3.090039e-03 -3.283557e-02 -7.044047e-03 -1.982811e-02 -2.390794e-03 -1.222750e-02 5.538307e-03 -8.652180e-03 4.425744e-03 1.405626e-04 -1.510114e-03 1.399804e-02 4.035358e-04 2.606280e-02 3.320447e-03 3.822473e-02 -8.256813e-03 5.968114e-02 -3.128855e-02 8.716304e-02 -4.671965e-02 1.085397e-01 -4.089446e-02 1.184352e-01 -1.642277e-02 1.109219e-01 1.250269e-02 9.803182e-02 4.645481e-02 9.118104e-02 8.865123e-02 9.227896e-02 1.444428e-01 9.201423e-02 2.441619e-01 1.738642e-02 
3.808883e-01 -2.531661e-01 7.931178e-01 -2.336548e-01 -1.204370e+01 2.567623e-01 2.505618e-02 -4.303739e-02 -1.253109e-01 -1.564567e-01 -1.289208e-01 -1.669780e-01 -8.452576e-02 -1.552104e-01 -4.396321e-02 -1.400783e-01 -1.940753e-02 -1.224039e-01 -8.318654e-03 -9.806813e-02 -3.933022e-03 -7.229643e-02 -3.548741e-03 -5.113935e-02 -5.276573e-04 -3.754320e-02 3.153557e-03 -2.922765e-02 1.871022e-03 -2.082562e-02 -1.189858e-03 -1.236773e-02 7.766419e-04 -7.053060e-03 4.405646e-03 -3.695816e-03 2.754472e-03 2.784936e-03 -1.749801e-03 1.227312e-02 -2.507691e-03 2.122498e-02 -3.794946e-03 3.074559e-02 -1.401367e-02 4.553640e-02 -3.048526e-02 6.361499e-02 -4.145879e-02 7.840057e-02 -3.866586e-02 8.570953e-02 -2.289675e-02 8.140167e-02 -3.217124e-03 7.187266e-02 1.980114e-02 6.475015e-02 4.817346e-02 6.249213e-02 8.558803e-02 5.916999e-02 1.542746e-01 8.917658e-04 
1.947352e-01 -1.716509e-01 4.090014e-01 -1.456766e-01 -4.801978e+00 1.623002e-01 8.653294e-02 3.264127e-02 -7.604770e-03 -6.499458e-02 -3.511922e-02 -8.736094e-02 -1.664137e-02 -8.606267e-02 2.992738e-03 -8.086558e-02 1.240756e-02 -7.234862e-02 1.360158e-02 -5.823324e-02 1.132855e-02 -4.201950e-02 7.832757e-03 -2.825729e-02 7.080319e-03 -1.948907e-02 7.311814e-03 -1.449045e-02 4.712112e-03 -9.836086e-03 1.418182e-03 -5.153427e-03 1.857355e-03 -2.278820e-03 3.538911e-03 -4.701230e-04 1.688651e-03 3.442529e-03 -2.207278e-03 9.688282e-03 -3.960562e-03 1.606055e-02 -6.679303e-03 2.296137e-02 -1.591551e-02 3.299699e-02 -2.949708e-02 4.512799e-02 -3.892187e-02 5.500668e-02 -3.838763e-02 5.879097e-02 -2.927215e-02 5.409328e-02 -1.772025e-02 4.481584e-02 -4.984153e-03 3.616069e-02 9.689948e-03 3.054506e-02 2.809207e-02 2.461179e-02 6.407183e-02 -1.660326e-02 
2.769065e-03 -8.139243e-02 1.053254e-02 -4.222254e-02 2.458739e+00 4.556557e-02 1.310164e-01 9.528867e-02 1.042853e-01 2.430914e-02 5.813166e-02 -6.616159e-03 5.111296e-02 -1.476776e-02 5.008442e-02 -1.842477e-02 4.520892e-02 -1.894249e-02 3.714523e-02 -1.524860e-02 2.860247e-02 -9.253033e-03 2.105283e-02 -3.817737e-03 1.632906e-02 -7.256619e-04 1.302368e-02 4.696093e-04 8.867221e-03 1.505396e-03 5.001651e-03 2.617837e-03 3.645456e-03 2.928138e-03 3.128785e-03 2.921138e-03 6.438109e-04 4.314842e-03 -3.097739e-03 7.219295e-03 -6.070345e-03 1.040744e-02 -1.021207e-02 1.400863e-02 -1.848940e-02 1.932474e-02 -2.929620e-02 2.571365e-02 -3.752312e-02 3.055050e-02 -3.978702e-02 3.106889e-02 -3.694594e-02 2.548074e-02 -3.332164e-02 1.594519e-02 -3.073786e-02 5.948505e-03 -2.972973e-02 -2.350832e-03 -3.046127e-02 -1.002190e-02 -2.786294e-02 -3.195063e-02 
-1.863384e-01 9.947856e-04 -3.739025e-01 4.116864e-02 9.729932e+00 -4.871513e-02 1.924646e-01 1.692877e-01 2.212036e-01 1.151540e-01 1.527580e-01 7.240396e-02 1.211682e-01 5.329625e-02 1.005035e-01 3.973690e-02 8.089764e-02 3.007367e-02 6.236182e-02 2.482358e-02 4.639031e-02 2.257143e-02 3.368039e-02 2.113639e-02 2.485437e-02 1.893065e-02 1.843226e-02 1.592767e-02 1.254329e-02 1.313461e-02 7.651590e-03 1.077079e-02 4.957094e-03 8.260660e-03 3.141196e-03 5.826720e-03 1.614897e-04 4.515904e-03 -3.717478e-03 4.444329e-03 -7.362139e-03 4.739296e-03 -1.217543e-02 5.278018e-03 -2.013766e-02 6.741119e-03 -3.011951e-02 8.716188e-03 -3.861080e-02 9.289902e-03 -4.346163e-02 6.229047e-03 -4.594167e-02 -1.649498e-03 -4.958664e-02 -1.290832e-02 -5.675715e-02 -2.502897e-02 -6.922424e-02 -3.604186e-02 -8.915986e-02 -4.507463e-02 -1.199621e-01 -4.836692e-02 