# vtk DataFile Version 2.0
Comment goes here
ASCII

DATASET STRUCTURED_POINTS
FIELD FieldData 1
TIME 1 1 double
0.01200000
DIMENSIONS    64   64   1

ORIGIN    0.000   0.000   0.000
SPACING   0.03125 0.03125   1.000

POINT_DATA   4096
SCALARS Omega double
LOOKUP_TABLE default

-4.288973e-01 4.076311e-01 -4.264397e-01 9.747400e-02 -4.804938e-01 3.336186e-01 -3.902899e-01 2.103359e-01 -3.609087e-01 1.783308e-01 -3.192239e-01 1.664020e-01 -2.712426e-01 1.537919e-01 -1.878028e-01 1.584944e-01 -8.972103e-02 1.652268e-01 -3.926623e-02 1.955774e-01 -4.320102e-02 2.297821e-01 -4.212270e-02 2.529385e-01 -6.524895e-02 2.851447e-01 -8.392589e-02 2.875160e-01 -8.392507e-02 3.036611e-01 -5.075707e-02 2.563978e-01 -3.293591e-02 2.486783e-01 3.469179e-03 1.722419e-01 6.956538e-02 1.327578e-01 1.904388e-01 -1.929373e-02 2.782904e-01 -6.899318e-02 3.546891e-01 -2.151530e-01 4.400226e-01 -2.360439e-01 5.674021e-01 -4.483121e-01 6.010967e-01 -4.828195e-01 4.875660e-01 -4.865678e-01 3.754048e-01 -4.444564e-01 2.574118e-01 -3.586022e-01 1.490335e-01 -2.873404e-01 7.421070e-02 -2.182324e-01 2.411593e-02 -1.891299e-01 8.045349e-02 -2.279439e-01 
-3.104951e+00 -1.869272e+01 9.896157e+00 -1.574542e+01 6.114977e+00 -1.272309e+01 2.270265e+00 -8.653056e+00 -1.955182e+00 -4.486487e+00 -6.121156e+00 -8.896481e-01 -9.515306e+00 1.786799e+00 -1.188927e+01 3.250109e+00 -1.292875e+01 3.512594e+00 -1.299586e+01 3.194222e+00 -1.274841e+01 2.718469e+00 -1.227020e+01 2.232366e+00 -1.201730e+01 2.123163e+00 -1.208692e+01 2.345577e+00 -1.244569e+01 2.679592e+00 -1.251729e+01 2.520877e+00 -1.232884e+01 2.408617e+00 -1.225381e+01 2.237380e+00 -1.203604e+01 2.096271e+00 -1.189252e+01 1.871811e+00 -1.141970e+01 1.361085e+00 -1.123943e+01 1.605533e+00 -1.168176e+01 1.988910e+00 -1.132684e+01 1.109660e+00 -9.777875e+00 -6.954524e-01 -7.648357e+00 -2.474990e+00 -5.744607e+00 -3.703862e+00 -5.076332e+00 -3.276801e+00 -6.183231e+00 -1.385956e+00 -8.421805e+00 1.148403e+00 -1.044222e+01 2.852323e+00 -1.220552e+01 4.612963e+00 
-2.536417e+00 1.776598e+01 -1.818464e+01 9.825428e+00 -6.913070e+00 7.458371e+00 -8.472010e+00 5.031280e+00 -9.646728e+00 2.866390e+00 -1.009050e+01 1.132002e+00 -1.054024e+01 -1.446135e-01 -1.119841e+01 -8.938254e-01 -1.235206e+01 -1.019637e+00 -1.349448e+01 -9.726241e-01 -1.433814e+01 -7.954483e-01 -1.522385e+01 -5.480082e-01 -1.571710e+01 -6.515123e-01 -1.583778e+01 -9.495994e-01 -1.563087e+01 -1.418463e+00 -1.570292e+01 -1.277194e+00 -1.587133e+01 -1.450436e+00 -1.569034e+01 -1.564680e+00 -1.562826e+01 -1.804635e+00 -1.549420e+01 -1.780797e+00 -1.562785e+01 -1.583859e+00 -1.533291e+01 -2.112188e+00 -1.418959e+01 -3.207799e+00 -1.350690e+01 -2.881384e+00 -1.337822e+01 -2.195465e+00 -1.298623e+01 -1.651592e+00 -1.257480e+01 -1.374960e+00 -1.144998e+01 -2.324366e+00 -9.097476e+00 -4.103396e+00 -5.933849e+00 -6.409988e+00 -2.587728e+00 -8.602437e+00 4.026979e+00 -1.708358e+01 
-7.404421e-01 1.236768e+01 -1.142423e+01 8.125580e+00 -1.497421e+00 5.960860e+00 -4.823688e+00 4.116481e+00 -4.690979e+00 2.226490e+00 -4.174643e+00 6.952886e-01 -3.777687e+00 -4.149804e-01 -3.652967e+00 -1.029094e+00 -4.022472e+00 -1.123259e+00 -4.585707e+00 -1.023536e+00 -5.057142e+00 -8.398245e-01 -5.593202e+00 -6.276123e-01 -5.897727e+00 -6.623240e-01 -5.954588e+00 -8.520668e-01 -5.783323e+00 -1.144257e+00 -5.799611e+00 -1.053329e+00 -5.917693e+00 -1.123937e+00 -5.838635e+00 -1.158765e+00 -5.838201e+00 -1.260038e+00 -5.776161e+00 -1.231195e+00 -5.915974e+00 -1.045664e+00 -5.790225e+00 -1.379576e+00 -5.119495e+00 -2.011320e+00 -4.819917e+00 -1.724839e+00 -5.029612e+00 -1.064757e+00 -5.240874e+00 -4.747290e-01 -5.400599e+00 -1.129081e-01 -4.969590e+00 -6.682243e-01 -3.582843e+00 -1.921126e+00 -1.565397e+00 -3.577075e+00 5.168325e-01 -5.067191e+00 4.410000e+00 -9.345369e+00 
-5.646678e-02 1.233692e-01 -1.109827e-01 -2.813880e-02 -1.320002e+01 -4.759777e-02 6.883181e-03 1.897370e-03 -1.587484e-02 7.260908e-04 -1.900796e-02 -3.649385e-05 -1.976543e-02 -1.685960e-03 -2.285715e-02 -2.056589e-03 -2.317453e-02 -5.587340e-03 -2.672704e-02 -5.559431e-03 -2.810360e-02 -3.913437e-03 -2.832904e-02 -2.127472e-03 -3.011437e-02 -4.956625e-03 -3.185435e-02 -6.287226e-03 -3.036495e-02 -5.621838e-03 -2.901401e-02 -4.467466e-03 -3.020450e-02 -7.647047e-03 -3.175784e-02 -8.381139e-03 -2.995006e-02 -6.562412e-03 -2.790719e-02 -6.214208e-03 -2.899300e-02 -9.201878e-03 -3.042286e-02 -8.456663e-03 -2.772096e-02 -6.107489e-03 -2.408143e-02 -7.577774e-03 -2.246893e-02 -1.419667e-02 -1.954744e-02 -1.091507e-02 -2.211383e-02 -6.627445e-03 -2.359431e-02 -1.714628e-03 -2.190375e-02 1.422568e-03 -1.455557e-02 -1.433360e-03 -4.275179e-03 -2.217257e-02 5.059577e-02 -3.160796e-02 
-1.972210e-02 -8.609194e-02 -5.565761e-02 6.824054e-02 -1.161831e+01 -2.044034e-01 2.268832e-02 -9.457143e-03 1.526229e-02 -5.031290e-03 8.640425e-03 -3.135272e-03 4.263718e-03 -1.361725e-03 -6.520568e-04 3.548740e-03 3.615760e-03 -3.336539e-03 -7.302572e-04 -4.309404e-03 3.368387e-04 4.354202e-04 3.472025e-03 2.360334e-03 1.260815e-03 -2.134799e-03 -2.810194e-03 -3.095673e-03 -1.154955e-04 1.713862e-03 3.095903e-03 2.854383e-03 3.966551e-04 -2.324598e-03 -3.459122e-03 -2.827673e-03 1.865719e-04 2.553041e-03 3.128694e-03 3.010129e-03 -2.936059e-04 -2.192090e-03 -3.776282e-03 -1.571805e-03 1.676593e-04 4.149200e-03 2.014202e-03 3.964538e-03 -1.043192e-03 -7.518098e-03 2.863202e-03 -3.393083e-04 -1.460653e-03 7.177261e-04 -2.119384e-03 1.141593e-03 -2.385324e-03 1.632877e-03 -3.986433e-03 2.468699e-03 -6.902930e-03 1.092639e-02 1.136052e-02 6.662226e-02 
-3.406581e-02 -3.701265e-02 -5.288178e-02 3.668875e-01 -1.743117e+01 -5.771773e-01 2.672206e-02 -6.036245e-03 2.068685e-02 -4.540162e-03 1.236427e-02 -3.551258e-03 6.753149e-03 -1.362157e-03 -4.798121e-03 1.848598e-02 1.662772e-02 4.186410e-03 5.037425e-03 6.216220e-03 3.433285e-03 1.710625e-02 1.180627e-02 1.436625e-02 1.066934e-02 2.858837e-03 2.366026e-03 5.034347e-03 3.733770e-03 1.784503e-02 1.185954e-02 1.406865e-02 9.574632e-03 9.868540e-04 1.816424e-03 3.564974e-03 4.208650e-03 1.715460e-02 1.170422e-02 1.286552e-02 8.462049e-03 -2.033821e-04 1.308833e-03 2.814468e-03 3.861324e-03 1.611554e-02 8.164860e-03 1.235092e-02 2.066855e-03 -1.750575e-02 7.876119e-03 9.548887e-04 -2.620914e-03 2.120277e-03 -2.492239e-03 2.418049e-03 -1.523660e-03 3.058770e-03 -1.908269e-03 3.603595e-03 -4.405343e-03 7.247656e-03 3.807067e-04 3.523217e-02 
-1.217365e-02 -1.346660e-02 -2.304089e-02 2.422204e-01 -1.581107e+01 -4.317459e-01 7.577064e-03 -6.780641e-03 1.202903e-02 -6.740715e-03 8.897464e-03 -5.947264e-03 6.471281e-03 -4.103936e-03 -1.128357e-02 1.111240e+00 2.389686e+00 1.418804e+00 1.742075e+00 2.199402e+00 1.148821e+00 2.247751e+00 1.893896e+00 1.437302e+00 2.560205e+00 1.530621e+00 1.966572e+00 2.478108e+00 1.277544e+00 2.442708e+00 2.062219e+00 1.528866e+00 2.716508e+00 1.617968e+00 2.044092e+00 2.570628e+00 1.317255e+00 2.486132e+00 2.102515e+00 1.536038e+00 2.726925e+00 1.619364e+00 2.028830e+00 2.546578e+00 1.310866e+00 2.473859e+00 2.094327e+00 1.696710e+00 3.073501e+00 1.666828e+00 2.748504e-02 7.113571e-03 -5.057131e-03 3.503771e-03 -3.459870e-03 2.565461e-03 -3.312411e-03 2.890140e-03 -3.938231e-03 4.823606e-03 -3.647151e-03 1.072760e-02 1.230723e-03 1.772231e-02 
-1.631351e-02 -3.814168e-03 -2.269491e-02 2.503480e-01 -1.946737e+01 -4.802739e-01 7.695776e-03 -5.781760e-03 1.449009e-02 -6.215993e-03 1.219667e-02 -8.013387e-03 1.601954e-02 -1.692262e-02 1.224434e-02 3.681947e+00 8.016890e+00 4.740473e+00 5.917518e+00 7.395868e+00 3.913830e+00 7.566926e+00 6.419379e+00 4.842298e+00 8.712932e+00 5.185042e+00 6.731754e+00 8.423335e+00 4.368725e+00 8.292548e+00 7.022520e+00 5.189826e+00 9.283599e+00 5.518121e+00 7.016708e+00 8.783619e+00 4.510302e+00 8.479163e+00 7.176012e+00 5.240843e+00 9.344591e+00 5.551848e+00 6.981472e+00 8.745942e+00 4.497173e+00 8.488195e+00 7.179120e+00 5.840564e+00 1.062854e+01 5.800364e+00 3.599833e-02 2.056315e-02 -1.523701e-02 6.127758e-03 -4.702098e-03 3.550381e-03 -2.594129e-03 3.620081e-03 -2.865407e-03 4.705606e-03 -4.204885e-03 7.558625e-03 -5.504762e-03 1.171539e-02 
-4.495749e-03 1.295540e-03 -5.764644e-03 1.468875e-01 -1.787186e+01 -3.599491e-01 -3.237735e-03 -5.940295e-03 6.930566e-03 -7.803180e-03 8.497939e-03 -1.154351e-02 1.471368e-02 -2.788872e-02 3.207646e-02 1.682461e+00 3.710886e+00 2.163649e+00 2.785061e+00 3.423036e+00 1.856199e+00 3.529438e+00 3.028385e+00 2.261887e+00 4.123018e+00 2.427324e+00 3.203561e+00 3.968438e+00 2.083217e+00 3.923421e+00 3.336624e+00 2.456280e+00 4.420662e+00 2.612352e+00 3.353069e+00 4.172438e+00 2.155044e+00 4.042003e+00 3.421064e+00 2.501556e+00 4.467127e+00 2.651049e+00 3.347627e+00 4.188091e+00 2.152421e+00 4.084119e+00 3.438726e+00 2.828859e+00 5.131579e+00 2.798699e+00 2.799399e-03 2.084952e-02 -9.546926e-03 6.368571e-03 -4.090726e-03 3.701021e-03 -2.969134e-03 3.846231e-03 -2.829833e-03 5.440285e-03 -2.260492e-03 8.203232e-03 -1.108591e-03 9.047968e-03 
-6.458959e-03 3.951662e-03 -6.382153e-03 1.284079e-01 -2.023092e+01 -3.658621e-01 -3.805818e-03 -5.889139e-03 6.861776e-03 -5.756915e-03 5.890389e-03 -4.757382e-03 1.273769e-03 7.374418e-04 5.720230e-03 -3.500518e+00 -7.574360e+00 -4.499967e+00 -5.580409e+00 -6.998665e+00 -3.680847e+00 -7.160039e+00 -6.041873e+00 -4.585677e+00 -8.208757e+00 -4.898941e+00 -6.343815e+00 -7.941546e+00 -4.107990e+00 -7.825461e+00 -6.602774e+00 -4.898976e+00 -8.739621e+00 -5.198296e+00 -6.610284e+00 -8.266790e+00 -4.241542e+00 -7.989434e+00 -6.744619e+00 -4.936161e+00 -8.793129e+00 -5.218551e+00 -6.575017e+00 -8.218089e+00 -4.231144e+00 -7.983158e+00 -6.749422e+00 -5.494121e+00 -1.000200e+01 -5.435877e+00 -2.911705e-02 -1.554055e-02 8.873375e-03 -6.327317e-04 8.577032e-04 2.335319e-03 -1.153219e-03 3.608016e-03 -2.095550e-03 4.869184e-03 -2.991592e-03 6.490030e-03 -4.028746e-03 7.383305e-03 
9.268504e-04 4.936371e-03 3.039877e-03 5.873953e-02 -1.865388e+01 -2.787155e-01 -1.022956e-02 -5.233456e-03 4.093372e-04 -4.721043e-03 2.868787e-04 -9.173898e-04 -6.458996e-03 1.380651e-02 -6.225827e-03 -2.781232e+00 -6.105893e+00 -3.598231e+00 -4.520610e+00 -5.636328e+00 -2.999087e+00 -5.771338e+00 -4.924240e+00 -3.696158e+00 -6.682105e+00 -3.968606e+00 -5.162149e+00 -6.457452e+00 -3.357792e+00 -6.354640e+00 -5.402655e+00 -3.978070e+00 -7.135464e+00 -4.238772e+00 -5.389411e+00 -6.752070e+00 -3.470793e+00 -6.513694e+00 -5.528016e+00 -4.027812e+00 -7.191778e+00 -4.276066e+00 -5.369348e+00 -6.740663e+00 -3.463577e+00 -6.540080e+00 -5.536176e+00 -4.505435e+00 -8.192683e+00 -4.491515e+00 -3.788468e-02 -1.910302e-02 1.059578e-02 -2.758119e-03 1.504854e-03 1.583172e-03 -6.930717e-04 3.461193e-03 -1.111202e-03 5.061954e-03 -6.633567e-04 6.619177e-03 2.726325e-04 6.966969e-03 
-2.558554e-04 5.951382e-03 2.366832e-03 3.949439e-02 -2.014157e+01 -2.741296e-01 -1.038522e-02 -5.777137e-03 5.552768e-04 -4.547368e-03 7.980651e-04 -1.857980e-03 -1.907921e-03 4.365717e-03 -2.777210e-03 -2.133811e-01 -4.542630e-01 -2.501494e-01 -3.450692e-01 -4.046314e-01 -2.333667e-01 -4.340463e-01 -3.793595e-01 -2.807594e-01 -5.144711e-01 -2.899091e-01 -3.996564e-01 -4.816815e-01 -2.624531e-01 -4.935579e-01 -4.203872e-01 -3.111418e-01 -5.544741e-01 -3.170973e-01 -4.195148e-01 -5.125799e-01 -2.712627e-01 -5.140521e-01 -4.315795e-01 -3.205673e-01 -5.613181e-01 -3.260901e-01 -4.189636e-01 -5.209069e-01 -2.691128e-01 -5.257867e-01 -4.304434e-01 -3.663839e-01 -6.356570e-01 -3.302500e-01 -7.203569e-03 -5.046789e-03 3.243764e-03 -6.213799e-04 1.069004e-03 1.865190e-03 -2.367832e-04 3.371058e-03 -8.916900e-04 4.605836e-03 -1.186030e-03 5.747517e-03 -1.091574e-03 6.381327e-03 
4.476133e-03 5.875402e-03 7.930508e-03 -4.235609e-03 -1.856952e+01 -2.128168e-01 -1.397229e-02 -5.267791e-03 -3.777755e-03 -4.290508e-03 -2.539248e-03 -2.221920e-03 -3.284756e-03 -6.926437e-06 -6.618154e-04 -1.274229e-02 3.610492e-03 1.185709e-03 2.074280e-03 2.798629e-04 -2.679712e-03 -5.815917e-03 -4.787183e-03 -3.987419e-03 -5.827638e-04 2.893316e-03 2.405616e-03 1.464270e-03 -2.134854e-03 -5.986097e-03 -5.659593e-03 -4.508191e-03 -1.343230e-03 3.116446e-03 2.537049e-03 1.986141e-03 -1.555927e-03 -5.770822e-03 -5.738548e-03 -4.699554e-03 -1.751603e-03 2.747356e-03 2.625968e-03 1.880476e-03 -1.253772e-04 -5.924649e-03 -3.989754e-03 -6.258551e-03 -3.150274e-03 1.347365e-02 -3.455670e-03 -1.297837e-03 2.136655e-03 -1.197403e-04 1.086617e-03 1.818524e-03 3.030278e-04 3.315218e-03 2.798502e-04 4.616036e-03 9.548837e-04 5.714725e-03 2.298645e-03 6.204691e-03 
3.620402e-03 6.344655e-03 7.318494e-03 -1.854609e-02 -1.942431e+01 -2.063677e-01 -1.359771e-02 -5.939073e-03 -3.251687e-03 -4.775200e-03 -1.502924e-03 -3.394648e-03 -1.394962e-03 -2.033695e-03 -3.176219e-03 -1.923960e-03 6.706287e-03 -2.844844e-03 1.391836e-03 -3.214097e-03 -9.783219e-04 -9.396085e-04 1.526513e-03 8.781542e-04 1.948195e-03 -7.799111e-06 -1.089881e-04 -1.008578e-03 -4.246684e-04 5.752467e-04 1.358685e-03 1.084869e-03 1.193517e-03 1.513679e-04 -7.229880e-05 -6.958768e-05 3.092209e-04 1.401337e-03 1.408112e-03 1.044482e-03 6.668673e-04 8.167892e-05 4.126641e-05 7.540617e-04 1.106752e-03 2.666095e-03 5.437917e-04 2.938851e-03 -3.205072e-03 5.516534e-04 2.123868e-03 1.562739e-03 2.853017e-04 1.722743e-03 2.186839e-04 2.461558e-03 1.337950e-04 3.386771e-03 1.746115e-04 4.349487e-03 5.403748e-04 5.262843e-03 1.510181e-03 5.954132e-03 
6.615945e-03 5.986611e-03 1.069498e-02 -4.552497e-02 -1.784740e+01 -1.618033e-01 -1.532690e-02 -5.670871e-03 -5.771435e-03 -5.025901e-03 -3.223670e-03 -4.277354e-03 -2.167782e-03 -2.298167e-03 -7.683352e-03 9.445633e-02 1.998057e-01 1.208453e-01 1.384654e-01 1.832965e-01 8.999804e-02 1.874211e-01 1.532988e-01 1.200661e-01 2.046530e-01 1.256807e-01 1.538713e-01 1.995054e-01 1.003246e-01 1.981454e-01 1.652075e-01 1.238257e-01 2.150574e-01 1.287742e-01 1.595891e-01 2.026247e-01 1.040733e-01 1.980081e-01 1.680128e-01 1.214504e-01 2.149041e-01 1.257913e-01 1.583030e-01 1.970501e-01 1.043751e-01 1.934014e-01 1.663112e-01 1.315542e-01 2.349365e-01 1.240031e-01 6.656218e-03 2.246828e-03 -3.225049e-04 2.533318e-03 4.468654e-05 2.797361e-03 5.517976e-04 3.464723e-03 1.193962e-03 4.316648e-03 2.246798e-03 5.141970e-03 3.944703e-03 5.722060e-03 
5.873449e-03 6.180589e-03 1.007689e-02 -5.617834e-02 -1.821660e+01 -1.538209e-01 -1.459077e-02 -6.133177e-03 -5.119870e-03 -5.506842e-03 -1.996491e-03 -5.678994e-03 1.851804e-03 -7.798642e-03 -7.392613e-03 1.319708e+00 2.982227e+00 1.799653e+00 2.171381e+00 2.774608e+00 1.451110e+00 2.798377e+00 2.405289e+00 1.780749e+00 3.227762e+00 1.952544e+00 2.467694e+00 3.143672e+00 1.619117e+00 3.057749e+00 2.626341e+00 1.903498e+00 3.435459e+00 2.069336e+00 2.571826e+00 3.269436e+00 1.671882e+00 3.120121e+00 2.682327e+00 1.917324e+00 3.456118e+00 2.076801e+00 2.558185e+00 3.248880e+00 1.667317e+00 3.115692e+00 2.682366e+00 2.128237e+00 3.922896e+00 2.196366e+00 2.690230e-02 9.625568e-03 -5.369770e-03 4.057363e-03 -1.016889e-03 3.173944e-03 2.904068e-04 3.465370e-03 1.005888e-03 4.117844e-03 1.885966e-03 4.859841e-03 3.354985e-03 5.558300e-03 
7.694500e-03 5.728592e-03 1.207906e-02 -7.316125e-02 -1.663119e+01 -1.191845e-01 -1.518746e-02 -5.871866e-03 -6.496947e-03 -5.964741e-03 -2.365486e-03 -8.295434e-03 5.116562e-03 -1.914753e-02 7.940099e-03 1.682686e+00 3.836050e+00 2.295949e+00 2.821533e+00 3.565808e+00 1.894186e+00 3.610009e+00 3.126975e+00 2.298541e+00 4.203989e+00 2.526101e+00 3.225624e+00 4.083107e+00 2.117779e+00 3.979822e+00 3.426456e+00 2.478621e+00 4.489327e+00 2.697193e+00 3.368065e+00 4.269520e+00 2.187198e+00 4.081232e+00 3.504584e+00 2.511029e+00 4.524528e+00 2.722108e+00 3.354100e+00 4.263255e+00 2.180690e+00 4.097159e+00 3.511364e+00 2.809206e+00 5.165722e+00 2.896627e+00 2.132061e-02 1.862947e-02 -8.184487e-03 6.020895e-03 -1.441358e-03 3.611130e-03 6.622859e-04 3.493080e-03 1.846220e-03 4.000923e-03 3.152314e-03 4.650634e-03 4.996110e-03 5.246073e-03 
6.960632e-03 5.727515e-03 1.138069e-02 -8.101034e-02 -1.661654e+01 -1.098511e-01 -1.431961e-02 -5.835648e-03 -6.279306e-03 -5.380096e-03 -3.278358e-03 -5.824660e-03 -4.210079e-04 -8.400057e-03 1.202870e-02 -7.814158e-01 -1.729088e+00 -1.059802e+00 -1.244761e+00 -1.612639e+00 -8.250426e-01 -1.620606e+00 -1.371420e+00 -1.031974e+00 -1.840239e+00 -1.124065e+00 -1.403832e+00 -1.796977e+00 -9.168441e-01 -1.747458e+00 -1.488403e+00 -1.087510e+00 -1.948973e+00 -1.176365e+00 -1.458964e+00 -1.853203e+00 -9.459983e-01 -1.769736e+00 -1.516390e+00 -1.084987e+00 -1.955377e+00 -1.169779e+00 -1.448492e+00 -1.828209e+00 -9.439582e-01 -1.752895e+00 -1.514768e+00 -1.192172e+00 -2.210220e+00 -1.223779e+00 -1.709049e-02 1.956398e-03 7.321190e-04 2.781703e-03 5.939843e-04 2.836486e-03 1.078229e-03 3.193832e-03 1.785498e-03 3.752924e-03 2.834401e-03 4.400613e-03 4.460211e-03 5.066887e-03 
7.967313e-03 5.220683e-03 1.244473e-02 -9.132478e-02 -1.502584e+01 -8.176997e-02 -1.437988e-02 -5.091611e-03 -7.676286e-03 -4.122455e-03 -5.889688e-03 -2.067820e-03 -7.858416e-03 5.593448e-03 -9.394692e-05 -1.780098e+00 -4.037062e+00 -2.430275e+00 -2.956735e+00 -3.758591e+00 -1.980727e+00 -3.798756e+00 -3.277562e+00 -2.420678e+00 -4.404375e+00 -2.656660e+00 -3.374318e+00 -4.284898e+00 -2.214595e+00 -4.173053e+00 -3.588261e+00 -2.599607e+00 -4.698930e+00 -2.826618e+00 -3.522258e+00 -4.470649e+00 -2.288312e+00 -4.270862e+00 -3.669154e+00 -2.626409e+00 -4.733574e+00 -2.845283e+00 -3.507310e+00 -4.455451e+00 -2.283137e+00 -4.277941e+00 -3.675164e+00 -2.926651e+00 -5.394031e+00 -3.020745e+00 -3.002009e-02 -1.072778e-02 7.417359e-03 -4.021669e-04 2.482313e-03 1.895376e-03 1.965583e-03 2.796964e-03 2.570223e-03 3.466110e-03 3.740753e-03 4.095468e-03 5.489394e-03 4.686240e-03 
7.198634e-03 5.070093e-03 1.160246e-02 -9.376393e-02 -1.470518e+01 -7.463920e-02 -1.334177e-02 -4.918669e-03 -7.168163e-03 -3.821644e-03 -5.495526e-03 -1.930604e-03 -6.148439e-03 3.331872e-03 -3.661366e-03 -5.527230e-01 -1.257974e+00 -7.467269e-01 -9.281702e-01 -1.165480e+00 -6.262911e-01 -1.186155e+00 -1.035463e+00 -7.571897e-01 -1.389572e+00 -8.303467e-01 -1.064695e+00 -1.345939e+00 -7.020836e-01 -1.316661e+00 -1.138438e+00 -8.212692e-01 -1.487677e+00 -8.911931e-01 -1.113594e+00 -1.413196e+00 -7.258083e-01 -1.355175e+00 -1.165934e+00 -8.350630e-01 -1.501159e+00 -9.027426e-01 -1.109981e+00 -1.416119e+00 -7.233858e-01 -1.365558e+00 -1.167706e+00 -9.371134e-01 -1.713753e+00 -9.584963e-01 -1.173264e-02 -5.092348e-03 4.174150e-03 1.851415e-05 2.129735e-03 1.707182e-03 1.882750e-03 2.562598e-03 2.373559e-03 3.219874e-03 3.371541e-03 3.842281e-03 4.928583e-03 4.461410e-03 
7.623377e-03 4.552148e-03 1.197824e-02 -9.826363e-02 -1.311812e+01 -5.246736e-02 -1.285199e-02 -4.329324e-03 -7.679957e-03 -3.366475e-03 -5.964946e-03 -2.129961e-03 -5.019057e-03 -8.895067e-04 -1.892170e-03 -1.007666e-02 -3.526430e-03 1.918853e-03 -2.845543e-03 1.335456e-03 -4.777998e-03 -5.241033e-03 -7.478908e-03 -4.166019e-03 -5.248918e-03 1.294618e-03 -1.831830e-03 -3.605218e-04 -3.732061e-03 -7.391176e-03 -7.444932e-03 -5.446908e-03 -5.356220e-03 5.311072e-04 -1.409191e-03 -1.376542e-03 -2.961968e-03 -8.454381e-03 -7.030205e-03 -6.195216e-03 -4.974470e-03 -3.129106e-04 -6.260801e-04 -2.491607e-03 -1.412936e-03 -9.739199e-03 -4.955572e-03 -8.018166e-03 -4.772417e-03 8.518559e-03 -2.673776e-03 -2.278459e-04 2.029631e-03 4.107875e-04 2.111092e-03 1.487936e-03 2.245157e-03 2.280251e-03 2.844609e-03 2.921141e-03 3.906048e-03 3.502612e-03 5.469243e-03 4.050255e-03 
6.802887e-03 4.300874e-03 1.096506e-02 -9.537162e-02 -1.254876e+01 -4.811864e-02 -1.165862e-02 -4.154189e-03 -6.881610e-03 -3.296324e-03 -5.170762e-03 -2.449486e-03 -3.918199e-03 -2.157668e-03 -1.298741e-03 -6.529975e-03 7.428627e-04 -1.078964e-03 8.069128e-04 -8.376633e-04 -1.266358e-03 -2.870613e-03 -2.142144e-03 -2.006562e-03 2.037135e-04 6.449937e-04 1.669179e-03 4.950052e-04 -5.186314e-04 -2.021937e-03 -1.975836e-03 -1.521641e-03 2.620012e-04 1.222914e-03 1.938219e-03 1.233989e-03 -1.310175e-04 -1.414907e-03 -1.859758e-03 -1.190695e-03 2.514516e-04 1.514867e-03 2.158098e-03 1.732646e-03 5.350219e-04 -8.679443e-04 -1.308004e-03 -6.193823e-04 -8.473667e-04 6.426079e-03 -1.673309e-03 1.129240e-03 1.187883e-03 9.662304e-04 1.630901e-03 1.551015e-03 1.933179e-03 2.148620e-03 2.508538e-03 2.705404e-03 3.453806e-03 3.246165e-03 4.851165e-03 3.783734e-03 
6.802084e-03 3.796132e-03 1.081767e-02 -9.531801e-02 -1.097530e+01 -3.070920e-02 -1.077170e-02 -3.683582e-03 -6.819630e-03 -3.034617e-03 -5.106847e-03 -2.544958e-03 -3.603733e-03 -2.655118e-03 -1.611152e-03 -4.554784e-03 -1.479796e-04 -1.668518e-03 -1.598168e-05 -1.144974e-03 -1.006128e-03 -2.114968e-03 -1.350617e-03 -1.544441e-03 -7.635391e-05 5.268685e-05 7.225996e-04 6.497693e-05 -3.299197e-04 -1.311012e-03 -1.035543e-03 -9.826792e-04 1.076786e-04 6.244006e-04 9.808640e-04 6.792352e-04 -3.215489e-05 -7.936118e-04 -8.848196e-04 -6.156363e-04 1.907504e-04 9.620316e-04 1.202909e-03 1.127639e-03 4.071998e-04 -2.171389e-04 -6.468116e-04 3.836622e-04 -7.017410e-04 4.072062e-03 -7.584781e-04 1.705301e-03 8.198620e-04 1.218992e-03 1.523559e-03 1.498038e-03 2.030824e-03 1.952742e-03 2.698608e-03 2.430892e-03 3.663885e-03 2.904998e-03 5.007299e-03 3.368593e-03 
5.929951e-03 3.478138e-03 9.648787e-03 -8.871499e-02 -1.019996e+01 -2.796427e-02 -9.489019e-03 -3.453098e-03 -5.908801e-03 -2.894027e-03 -4.316617e-03 -2.515695e-03 -2.927829e-03 -2.544399e-03 -1.381575e-03 -3.265015e-03 -4.017348e-04 -1.797988e-03 -1.828358e-04 -1.342115e-03 -6.621116e-04 -1.617411e-03 -8.307211e-04 -1.192073e-03 -1.265916e-04 -3.282589e-04 3.339111e-04 -2.501158e-04 -2.039263e-04 -8.329445e-04 -5.739716e-04 -6.061427e-04 5.002029e-05 2.134456e-04 5.355135e-04 2.901991e-04 2.615089e-06 -3.575332e-04 -4.452310e-04 -2.182109e-04 1.432466e-04 5.955868e-04 6.918725e-04 7.695398e-04 2.310694e-04 2.726819e-04 -4.092272e-04 7.574151e-04 -4.874516e-04 2.566536e-03 -4.667831e-04 1.607276e-03 5.502276e-04 1.315588e-03 1.171841e-03 1.483209e-03 1.674060e-03 1.821838e-03 2.289737e-03 2.218065e-03 3.146464e-03 2.637363e-03 4.333524e-03 3.067293e-03 
5.616099e-03 2.989676e-03 9.105953e-03 -8.561590e-02 -8.650545e+00 -1.388174e-02 -8.354703e-03 -3.006513e-03 -5.530351e-03 -2.594941e-03 -4.064676e-03 -2.350412e-03 -2.769532e-03 -2.371036e-03 -1.533611e-03 -2.598446e-03 -7.368216e-04 -1.720641e-03 -4.734189e-04 -1.298826e-03 -6.261187e-04 -1.323653e-03 -6.368546e-04 -9.984914e-04 -2.168135e-04 -4.325714e-04 6.610577e-05 -3.253837e-04 -1.673564e-04 -6.060632e-04 -3.301741e-04 -4.402183e-04 2.718767e-06 6.518125e-05 2.679278e-04 1.411483e-04 1.827460e-05 -1.919263e-04 -1.944954e-04 -7.587580e-05 1.144925e-04 4.326367e-04 4.076461e-04 5.867935e-04 1.711613e-04 4.123610e-04 -2.023662e-04 8.517744e-04 -2.903016e-04 1.893779e-03 -1.539638e-04 1.520788e-03 5.178223e-04 1.301297e-03 1.106350e-03 1.382919e-03 1.648382e-03 1.629859e-03 2.280840e-03 1.948921e-03 3.106108e-03 2.297477e-03 4.197935e-03 2.655558e-03 
4.705141e-03 2.623506e-03 7.822964e-03 -7.701874e-02 -7.702771e+00 -1.136189e-02 -7.021275e-03 -2.694256e-03 -4.595710e-03 -2.340503e-03 -3.322226e-03 -2.118930e-03 -2.229220e-03 -2.053711e-03 -1.268683e-03 -2.050318e-03 -6.621637e-04 -1.527453e-03 -4.096430e-04 -1.198425e-03 -4.351132e-04 -1.088661e-03 -4.139464e-04 -8.308512e-04 -1.697589e-04 -4.805197e-04 1.036596e-06 -3.671592e-04 -1.088216e-04 -4.455379e-04 -1.876547e-04 -3.169712e-04 -1.606936e-06 -3.204120e-05 1.488548e-04 4.463835e-05 2.094920e-05 -7.156421e-05 -8.894991e-05 2.909786e-05 7.859257e-05 3.263081e-04 2.298234e-04 4.709413e-04 8.177939e-05 4.818250e-04 -1.483228e-04 7.979576e-04 -2.044926e-04 1.369255e-03 -9.011230e-05 1.271628e-03 3.700980e-04 1.188283e-03 8.365988e-04 1.264062e-03 1.301753e-03 1.456258e-03 1.847462e-03 1.714550e-03 2.553392e-03 2.009089e-03 3.486651e-03 2.322904e-03 
4.162998e-03 2.145697e-03 6.989733e-03 -7.216649e-02 -6.189011e+00 5.994183e-04 -5.730152e-03 -2.233533e-03 -4.023979e-03 -1.980266e-03 -2.939187e-03 -1.823410e-03 -2.010424e-03 -1.754944e-03 -1.235489e-03 -1.675992e-03 -7.286586e-04 -1.319624e-03 -4.802161e-04 -1.046873e-03 -4.185422e-04 -9.043983e-04 -3.541798e-04 -6.959539e-04 -1.881555e-04 -4.448625e-04 -6.866256e-05 -3.376116e-04 -9.967084e-05 -3.468916e-04 -1.225110e-04 -2.455792e-04 -1.526013e-05 -5.688175e-05 7.300807e-05 1.093593e-05 1.884967e-05 -2.929810e-05 -2.922853e-05 5.645295e-05 6.094854e-05 2.612051e-04 1.404217e-04 3.895809e-04 5.911134e-05 4.629921e-04 -7.394884e-05 7.208201e-04 -1.020034e-04 1.090239e-03 2.019397e-05 1.096373e-03 3.619730e-04 1.054169e-03 7.632486e-04 1.101595e-03 1.194872e-03 1.238619e-03 1.698845e-03 1.434833e-03 2.329634e-03 1.665106e-03 3.136793e-03 1.912731e-03 
3.234209e-03 1.741829e-03 5.644047e-03 -6.284485e-02 -5.096595e+00 3.877890e-03 -4.360467e-03 -1.847000e-03 -3.097300e-03 -1.641954e-03 -2.228673e-03 -1.503055e-03 -1.501993e-03 -1.413962e-03 -9.185409e-04 -1.309392e-03 -5.369562e-04 -1.069602e-03 -3.372742e-04 -8.643096e-04 -2.689840e-04 -7.246144e-04 -2.175239e-04 -5.626017e-04 -1.188603e-04 -3.910722e-04 -4.710466e-05 -2.978923e-04 -5.798771e-05 -2.662619e-04 -6.690185e-05 -1.861009e-04 -6.879774e-06 -6.712219e-05 4.263108e-05 -7.313428e-06 1.447362e-05 2.132606e-06 -1.220793e-05 7.467605e-05 3.238636e-05 2.101025e-04 6.619624e-05 3.177065e-04 7.997396e-06 4.087470e-04 -7.811121e-05 5.914958e-04 -9.493327e-05 8.183234e-04 -5.323275e-06 8.649986e-04 2.323267e-04 8.694876e-04 5.313811e-04 9.173873e-04 8.684875e-04 1.022155e-03 1.267890e-03 1.171872e-03 1.768933e-03 1.352177e-03 2.411985e-03 1.551505e-03 
2.529176e-03 1.269680e-03 4.606775e-03 -5.716855e-02 -3.631695e+00 1.453076e-02 -2.964478e-03 -1.368706e-03 -2.393168e-03 -1.242215e-03 -1.734346e-03 -1.154146e-03 -1.182182e-03 -1.090414e-03 -7.452016e-04 -1.003073e-03 -4.535998e-04 -8.363851e-04 -2.916736e-04 -6.805563e-04 -2.204243e-04 -5.620411e-04 -1.700446e-04 -4.368304e-04 -1.019574e-04 -3.116804e-04 -5.175134e-05 -2.360767e-04 -4.706311e-05 -1.995949e-04 -4.440057e-05 -1.388495e-04 -8.590190e-06 -5.737940e-05 2.093668e-05 -1.017022e-05 9.792046e-06 9.567308e-06 -2.611270e-06 6.764484e-05 1.887321e-05 1.660728e-04 3.202169e-05 2.549098e-04 -5.617334e-06 3.420009e-04 -5.854588e-05 4.827508e-04 -6.488558e-05 6.378551e-04 9.823712e-06 6.858559e-04 1.861483e-04 6.911089e-04 4.211639e-04 7.159668e-04 6.951850e-04 7.795839e-04 1.018257e-03 8.780518e-04 1.414064e-03 1.001496e-03 1.909248e-03 1.140609e-03 
1.608702e-03 8.359215e-04 3.250550e-03 -4.792596e-02 -2.418576e+00 1.912091e-02 -1.569623e-03 -9.266288e-04 -1.492273e-03 -8.520164e-04 -1.053332e-03 -7.948512e-04 -6.902062e-04 -7.490582e-04 -4.091600e-04 -6.860308e-04 -2.253478e-04 -5.806066e-04 -1.265519e-04 -4.770326e-04 -8.703366e-05 -3.914251e-04 -6.425344e-05 -3.054693e-04 -3.326405e-05 -2.235606e-04 -1.104465e-05 -1.692792e-04 -1.239845e-05 -1.365421e-04 -1.443505e-05 -9.414242e-05 1.680816e-06 -4.293518e-05 1.448630e-05 -8.350543e-06 4.781109e-06 1.405980e-05 -7.046930e-06 5.681344e-05 -3.066613e-06 1.220518e-04 -6.814431e-06 1.865367e-04 -4.068816e-05 2.534670e-04 -8.254440e-05 3.461514e-04 -9.364412e-05 4.409152e-04 -5.045891e-05 4.779063e-04 5.955393e-05 4.851378e-04 2.124272e-04 4.983307e-04 3.940298e-04 5.330389e-04 6.083300e-04 5.904685e-04 8.699060e-04 6.662818e-04 1.197136e-03 7.551237e-04 
7.922490e-04 3.686340e-04 2.079585e-03 -4.204002e-02 -1.017581e+00 2.893494e-02 -1.055545e-04 -4.397056e-04 -6.955871e-04 -4.348032e-04 -4.718101e-04 -4.276478e-04 -2.834078e-04 -4.220156e-04 -1.392729e-04 -3.981372e-04 -4.999157e-05 -3.439468e-04 -9.334967e-06 -2.844470e-04 -1.105578e-06 -2.320455e-04 -5.088922e-07 -1.792952e-04 6.601369e-06 -1.296720e-04 1.152317e-05 -9.686096e-05 6.058444e-06 -7.728674e-05 1.210522e-06 -5.292933e-05 6.182285e-06 -2.365900e-05 9.655544e-06 -3.484658e-06 1.135451e-06 1.079963e-05 -9.885439e-06 3.827941e-05 -1.503105e-05 8.083418e-05 -2.693070e-05 1.254499e-04 -5.723717e-05 1.731528e-04 -9.291297e-05 2.337136e-04 -1.094429e-04 2.889587e-04 -8.997615e-05 3.041424e-04 -2.821904e-05 2.923191e-04 6.164884e-05 2.779300e-04 1.673451e-04 2.748855e-04 2.865800e-04 2.864856e-04 4.245275e-04 3.107670e-04 5.898199e-04 3.443059e-04 
-8.964660e-05 -8.769942e-05 7.634700e-04 -3.335868e-02 2.951196e-01 3.509800e-02 1.295616e-03 3.947403e-05 1.583351e-04 -1.528028e-05 1.645424e-04 -5.155388e-05 1.756801e-04 -8.325926e-05 1.815902e-04 -9.876126e-05 1.721869e-04 -9.275330e-05 1.474953e-04 -7.843232e-05 1.141661e-04 -6.362042e-05 8.434472e-05 -4.643873e-05 6.479622e-05 -2.967379e-05 4.978634e-05 -2.045137e-05 3.350754e-05 -1.716586e-05 2.052429e-05 -1.116042e-05 1.471554e-05 -2.288020e-06 9.030845e-06 2.868913e-06 -3.162288e-06 6.059593e-06 -1.773079e-05 1.657510e-05 -3.111834e-05 3.534040e-05 -5.085341e-05 5.574596e-05 -8.330394e-05 7.722105e-05 -1.206290e-04 1.023958e-04 -1.483117e-04 1.200211e-04 -1.567236e-04 1.116903e-04 -1.438914e-04 8.252798e-05 -1.206276e-04 4.595462e-05 -9.843143e-05 1.135397e-05 -8.369333e-05 -1.763818e-05 -7.817186e-05 -4.086611e-05 -8.096415e-05 -5.944943e-05 
-9.759592e-04 -5.463924e-04 -4.836386e-04 -2.766391e-02 1.615114e+00 4.430305e-02 2.794523e-03 5.226627e-04 1.014127e-03 4.026802e-04 8.046611e-04 3.162954e-04 6.418199e-04 2.392093e-04 5.121279e-04 1.797189e-04 4.030885e-04 1.406515e-04 3.088309e-04 1.140412e-04 2.286442e-04 9.385713e-05 1.655374e-04 7.941467e-05 1.199884e-04 6.792501e-05 8.620458e-05 5.454490e-05 5.865433e-05 3.966610e-05 3.754040e-05 2.784542e-05 2.315460e-05 1.895189e-05 1.048285e-05 9.054498e-06 -5.197659e-06 -9.864294e-07 -2.307693e-05 -6.075875e-06 -4.255119e-05 -5.995452e-06 -6.856790e-05 -5.191643e-06 -1.052394e-04 -5.361805e-06 -1.487928e-04 -7.375683e-06 -1.914704e-04 -2.024888e-05 -2.287565e-04 -5.587942e-05 -2.624334e-04 -1.122816e-04 -3.028289e-04 -1.804278e-04 -3.626167e-04 -2.526635e-04 -4.525798e-04 -3.250275e-04 -5.809312e-04 -3.962059e-04 -7.539148e-04 -4.659857e-04 