# vtk DataFile Version 2.0
Comment goes here
ASCII

DATASET STRUCTURED_POINTS
FIELD FieldData 1
TIME 1 1 double
0.07700000
DIMENSIONS    64   64   1

ORIGIN    0.000   0.000   0.000
SPACING   0.03125 0.03125   1.000

POINT_DATA   4096
VECTORS u double

0.517292 0.031809 0.000000 -1.809164 -0.017627 0.000000 0.324888 0.015173 0.000000 -1.771770 -0.007845 0.000000 0.073689 -0.006682 0.000000 -1.731501 -0.008829 0.000000 0.344747 0.014277 0.000000 -1.597733 -0.008674 0.000000 0.447638 0.006913 0.000000 -1.502381 -0.012860 0.000000 0.470704 0.000956 0.000000 -1.408606 -0.016560 0.000000 0.433923 -0.005129 0.000000 -1.283153 -0.019560 0.000000 0.333281 -0.008504 0.000000 -1.104192 -0.020669 0.000000 0.161715 -0.004944 0.000000 -0.863603 -0.025864 0.000000 -0.055630 0.003396 0.000000 -0.594154 -0.014396 0.000000 -0.292954 0.008626 0.000000 -0.343362 -0.009771 0.000000 -0.508495 0.009186 0.000000 -0.129313 -0.005347 0.000000 -0.695350 0.005669 0.000000 0.061500 -0.006607 0.000000 -0.865804 -0.000807 0.000000 0.239274 -0.007660 0.000000 -1.018381 0.005910 0.000000 0.397749 -0.006134 0.000000 -1.150409 0.008890 0.000000 0.535384 -0.003356 0.000000 -1.261110 0.003633 0.000000 0.648066 -0.004915 0.000000 -1.341755 -0.004054 0.000000 0.728215 -0.004701 0.000000 -1.385426 0.002864 0.000000 0.768311 -0.001605 0.000000 -1.390755 0.003833 0.000000 0.769646 0.001624 0.000000 -1.362215 -0.000873 0.000000 0.736044 0.001444 0.000000 -1.306322 -0.008027 0.000000 0.675358 0.003112 0.000000 -1.229561 0.002580 0.000000 0.588326 0.005279 0.000000 -1.136640 0.007322 0.000000 0.472554 0.006959 0.000000 -1.017168 0.008418 0.000000 0.302058 0.004198 0.000000 -0.849333 0.007155 0.000000 0.060631 0.003671 0.000000 -0.623965 0.001531 0.000000 -0.238843 0.001790 0.000000 -0.358972 -0.000996 0.000000 -0.578038 -0.000163 0.000000 -0.074808 -0.001783 0.000000 -0.937881 -0.001264 0.000000 0.205250 -0.002110 0.000000 -1.299724 -0.001586 0.000000 0.464433 -0.001734 0.000000 -1.653314 -0.002694 0.000000 0.681166 -0.000146 0.000000 -1.965708 -0.010818 0.000000 
-0.229413 -0.072389 0.000000 0.266228 0.090048 0.000000 0.010462 -0.015420 0.000000 0.252674 0.117644 0.000000 0.328781 -0.000284 0.000000 0.231665 -0.142099 0.000000 -0.107973 -0.063667 0.000000 0.105079 -0.057289 0.000000 -0.319179 -0.037583 0.000000 0.047978 -0.015370 0.000000 -0.438986 -0.031392 0.000000 0.010318 0.016101 0.000000 -0.504482 -0.042216 0.000000 -0.043822 0.049188 0.000000 -0.523160 -0.066559 0.000000 -0.133313 0.084586 0.000000 -0.493478 -0.100892 0.000000 -0.262684 0.108300 0.000000 -0.450864 -0.122024 0.000000 -0.402212 0.110268 0.000000 -0.375221 -0.115559 0.000000 -0.522396 0.098028 0.000000 -0.292276 -0.097557 0.000000 -0.618936 0.081399 0.000000 -0.218270 -0.083146 0.000000 -0.705200 0.074794 0.000000 -0.152098 -0.072088 0.000000 -0.790794 0.067309 0.000000 -0.099043 -0.069677 0.000000 -0.863850 0.057724 0.000000 -0.052546 -0.063742 0.000000 -0.926306 0.046944 0.000000 -0.013407 -0.048516 0.000000 -0.978785 0.034999 0.000000 0.007490 -0.028581 0.000000 -1.019142 0.018402 0.000000 0.003638 -0.016880 0.000000 -1.030052 -0.000235 0.000000 -0.016330 -0.001771 0.000000 -1.020532 -0.016517 0.000000 -0.049544 0.017870 0.000000 -0.992520 -0.028346 0.000000 -0.094890 0.035594 0.000000 -0.955578 -0.039466 0.000000 -0.149366 0.040439 0.000000 -0.891515 -0.048810 0.000000 -0.202445 0.050791 0.000000 -0.808498 -0.061800 0.000000 -0.254270 0.078168 0.000000 -0.691178 -0.081797 0.000000 -0.315906 0.114373 0.000000 -0.535036 -0.109909 0.000000 -0.398996 0.147753 0.000000 -0.353083 -0.128783 0.000000 -0.495621 0.169528 0.000000 -0.153755 -0.137863 0.000000 -0.595098 0.180209 0.000000 0.052467 -0.135905 0.000000 -0.679636 0.181139 0.000000 0.253271 -0.125993 0.000000 -0.731837 0.176724 0.000000 0.438171 -0.104884 0.000000 -0.725299 0.156515 0.000000 0.575320 0.083191 0.000000 
2.037669 0.340901 0.000000 0.512451 -0.257502 0.000000 1.662237 0.028726 0.000000 0.490096 -0.326165 0.000000 1.197679 0.014328 0.000000 0.481017 0.427926 0.000000 1.963522 0.140863 0.000000 0.597846 0.202531 0.000000 2.391796 0.064013 0.000000 0.586129 0.106948 0.000000 2.692997 0.038616 0.000000 0.528619 0.048936 0.000000 2.944880 0.049011 0.000000 0.457305 -0.000883 0.000000 3.185925 0.080987 0.000000 0.376873 -0.050350 0.000000 3.436553 0.124427 0.000000 0.276678 -0.068478 0.000000 3.750724 0.142923 0.000000 0.143329 -0.090038 0.000000 4.007129 0.128810 0.000000 -0.002523 -0.092716 0.000000 4.186249 0.105726 0.000000 -0.129061 -0.079353 0.000000 4.321295 0.091934 0.000000 -0.235327 -0.072779 0.000000 4.449323 0.084786 0.000000 -0.321660 -0.060714 0.000000 4.580269 0.078966 0.000000 -0.399512 -0.052631 0.000000 4.684971 0.071347 0.000000 -0.463928 -0.042494 0.000000 4.760178 0.056112 0.000000 -0.499277 -0.025812 0.000000 4.820655 0.036303 0.000000 -0.496727 -0.000849 0.000000 4.867176 0.013773 0.000000 -0.477795 0.018362 0.000000 4.872531 -0.005687 0.000000 -0.438057 0.034839 0.000000 4.832707 -0.028885 0.000000 -0.371282 0.046789 0.000000 4.773044 -0.044968 0.000000 -0.284073 0.057589 0.000000 4.704977 -0.061483 0.000000 -0.215881 0.058358 0.000000 4.605273 -0.075696 0.000000 -0.164744 0.058784 0.000000 4.449506 -0.108901 0.000000 -0.099342 0.065834 0.000000 4.218805 -0.148988 0.000000 0.002826 0.086761 0.000000 3.932115 -0.180421 0.000000 0.143219 0.098415 0.000000 3.610833 -0.200324 0.000000 0.301797 0.099314 0.000000 3.267439 -0.208004 0.000000 0.466204 0.083274 0.000000 2.909212 -0.202914 0.000000 0.625449 0.050615 0.000000 2.522843 -0.186634 0.000000 0.782532 -0.009232 0.000000 2.100276 -0.137295 0.000000 0.837349 -0.506704 0.000000 
4.296282 0.252509 0.000000 0.046662 0.465481 0.000000 3.288421 0.006934 0.000000 -0.361618 0.582203 0.000000 1.733859 0.008795 0.000000 -0.357975 -0.907942 0.000000 3.896443 -0.180496 0.000000 -0.174817 -0.485563 0.000000 4.917864 -0.025867 0.000000 -0.151025 -0.316572 0.000000 5.579393 0.026118 0.000000 -0.156830 -0.235782 0.000000 6.084235 0.029099 0.000000 -0.113995 -0.191857 0.000000 6.487516 0.013873 0.000000 0.018839 -0.166042 0.000000 6.785420 -0.000697 0.000000 0.222101 -0.205871 0.000000 7.131194 0.011325 0.000000 0.421136 -0.146137 0.000000 7.326967 0.030294 0.000000 0.546893 -0.081092 0.000000 7.425690 0.028981 0.000000 0.626343 -0.053647 0.000000 7.479818 0.023120 0.000000 0.673910 -0.053234 0.000000 7.534002 0.014245 0.000000 0.706926 -0.063637 0.000000 7.623670 0.008175 0.000000 0.737509 -0.046978 0.000000 7.663336 0.000673 0.000000 0.775770 -0.028262 0.000000 7.665816 -0.013167 0.000000 0.809651 -0.025479 0.000000 7.680248 -0.031131 0.000000 0.835178 -0.028119 0.000000 7.736513 -0.035812 0.000000 0.855155 -0.005590 0.000000 7.744403 -0.041509 0.000000 0.879516 0.023306 0.000000 7.713616 -0.048905 0.000000 0.899419 0.031317 0.000000 7.683279 -0.051615 0.000000 0.917344 0.028601 0.000000 7.672368 -0.027752 0.000000 0.923913 0.050895 0.000000 7.588859 -0.000346 0.000000 0.918993 0.093967 0.000000 7.430806 0.012766 0.000000 0.889108 0.148904 0.000000 7.247798 0.012205 0.000000 0.793530 0.176781 0.000000 7.009776 0.007360 0.000000 0.670731 0.192499 0.000000 6.755730 0.010950 0.000000 0.543673 0.205532 0.000000 6.485854 0.015801 0.000000 0.429543 0.222322 0.000000 6.177263 0.021894 0.000000 0.324395 0.260375 0.000000 5.795664 0.019641 0.000000 0.202406 0.317683 0.000000 5.299429 0.101698 0.000000 0.029347 0.145798 0.000000 
4.481802 0.323586 0.000000 0.237085 0.750359 0.000000 3.642401 0.437006 0.000000 -0.179915 1.228397 0.000000 2.372373 0.010685 0.000000 -0.186141 -1.734658 0.000000 3.907496 -0.042295 0.000000 -0.260985 -0.818890 0.000000 4.888892 0.040221 0.000000 -0.240224 -0.554581 0.000000 5.567898 0.044421 0.000000 -0.228001 -0.455907 0.000000 6.098289 0.006176 0.000000 -0.194094 -0.404163 0.000000 6.536627 -0.051847 0.000000 -0.036857 -0.348255 0.000000 6.819869 -0.078835 0.000000 0.217671 -0.414253 0.000000 7.261760 -0.056112 0.000000 0.460969 -0.285811 0.000000 7.484362 0.003054 0.000000 0.592177 -0.191440 0.000000 7.570064 0.026276 0.000000 0.655095 -0.133481 0.000000 7.624937 0.044367 0.000000 0.677370 -0.126963 0.000000 7.691414 0.051770 0.000000 0.684108 -0.150381 0.000000 7.795198 0.048383 0.000000 0.736652 -0.092298 0.000000 7.819752 0.033085 0.000000 0.773765 -0.044974 0.000000 7.811429 0.022231 0.000000 0.792873 -0.040244 0.000000 7.821118 0.010776 0.000000 0.794354 -0.057114 0.000000 7.877239 -0.006204 0.000000 0.836384 0.010472 0.000000 7.860308 -0.030048 0.000000 0.865968 0.065626 0.000000 7.809549 -0.048788 0.000000 0.884756 0.077127 0.000000 7.767750 -0.062893 0.000000 0.890821 0.068500 0.000000 7.759897 -0.068053 0.000000 0.921033 0.141867 0.000000 7.675074 -0.070776 0.000000 0.918299 0.216837 0.000000 7.514075 -0.079016 0.000000 0.901861 0.248843 0.000000 7.279056 -0.053410 0.000000 0.819244 0.324783 0.000000 7.002583 -0.057622 0.000000 0.696633 0.352460 0.000000 6.717167 -0.073266 0.000000 0.575507 0.369191 0.000000 6.431608 -0.093875 0.000000 0.491316 0.391865 0.000000 6.117496 -0.097766 0.000000 0.434245 0.432214 0.000000 5.741712 -0.064645 0.000000 0.357970 0.487003 0.000000 5.279496 0.035763 0.000000 0.294770 0.496443 0.000000 
4.829422 0.310195 0.000000 0.011142 1.304881 0.000000 4.035908 0.423934 0.000000 -0.108309 1.852231 0.000000 2.990426 0.015020 0.000000 -0.117969 -2.443064 0.000000 4.053461 -0.105651 0.000000 -0.185366 -1.466959 0.000000 5.004942 -0.046628 0.000000 -0.189647 -0.995578 0.000000 5.684445 0.013895 0.000000 -0.228146 -0.766172 0.000000 6.211989 -0.004809 0.000000 -0.287391 -0.630195 0.000000 6.680828 -0.143364 0.000000 -0.185815 -0.449285 0.000000 6.964467 -0.255225 0.000000 0.334412 -0.647761 0.000000 7.415201 -0.231973 0.000000 0.571928 -0.368739 0.000000 7.569102 -0.100915 0.000000 0.578898 -0.166793 0.000000 7.633379 -0.033937 0.000000 0.647444 -0.108520 0.000000 7.656925 0.000845 0.000000 0.704230 -0.119712 0.000000 7.696206 0.007507 0.000000 0.718664 -0.167421 0.000000 7.839879 -0.044369 0.000000 0.748634 -0.071532 0.000000 7.845486 -0.036440 0.000000 0.804400 -0.019939 0.000000 7.805033 -0.032275 0.000000 0.852015 -0.035168 0.000000 7.800763 -0.032612 0.000000 0.856964 -0.084240 0.000000 7.909357 -0.077841 0.000000 0.879791 0.011341 0.000000 7.877817 -0.071094 0.000000 0.921323 0.074065 0.000000 7.806261 -0.067693 0.000000 0.954543 0.073116 0.000000 7.768850 -0.057680 0.000000 0.956383 0.036454 0.000000 7.824993 -0.057965 0.000000 0.989707 0.135717 0.000000 7.716893 0.002388 0.000000 1.024034 0.254967 0.000000 7.521850 0.029204 0.000000 1.063293 0.383923 0.000000 7.342247 0.094822 0.000000 0.899876 0.453253 0.000000 7.047889 0.129970 0.000000 0.686937 0.477915 0.000000 6.784934 0.132076 0.000000 0.509723 0.491091 0.000000 6.543342 0.099992 0.000000 0.390554 0.536433 0.000000 6.277077 0.078965 0.000000 0.296962 0.636159 0.000000 5.938823 0.095917 0.000000 0.192228 0.779899 0.000000 5.489328 0.164897 0.000000 0.065289 0.943492 0.000000 
5.058572 0.377734 0.000000 0.162312 1.543873 0.000000 4.432188 0.556457 0.000000 0.076221 2.273879 0.000000 3.582061 0.020345 0.000000 0.065932 -2.797694 0.000000 4.293516 0.025102 0.000000 -0.061868 -1.770370 0.000000 5.022440 0.044501 0.000000 -0.114340 -1.234084 0.000000 5.607270 0.082920 0.000000 -0.188657 -0.983451 0.000000 6.089984 0.065421 0.000000 -0.410167 -0.873002 0.000000 6.608209 -0.153423 0.000000 -0.535280 -0.631893 0.000000 6.898808 -0.599062 0.000000 0.437837 -0.864987 0.000000 7.491065 -0.293627 0.000000 0.725495 -0.439712 0.000000 7.605260 -0.003916 0.000000 0.600374 -0.255717 0.000000 7.585061 -0.042270 0.000000 0.661896 -0.157027 0.000000 7.603982 -0.012419 0.000000 0.703783 -0.166244 0.000000 7.653116 0.037335 0.000000 0.615421 -0.294055 0.000000 7.895843 0.018413 0.000000 0.711658 -0.097904 0.000000 7.857376 -0.022681 0.000000 0.778607 -0.004522 0.000000 7.793641 -0.025383 0.000000 0.821844 -0.035973 0.000000 7.786151 0.005827 0.000000 0.734172 -0.165708 0.000000 7.983034 -0.029031 0.000000 0.807891 0.042012 0.000000 7.910521 -0.071579 0.000000 0.863246 0.137182 0.000000 7.811886 -0.082008 0.000000 0.901684 0.114538 0.000000 7.763582 -0.064733 0.000000 0.831545 0.012357 0.000000 7.907361 -0.101376 0.000000 0.911441 0.249967 0.000000 7.805361 -0.105103 0.000000 0.962894 0.411880 0.000000 7.634616 -0.118275 0.000000 1.061011 0.428446 0.000000 7.333450 0.110007 0.000000 0.886951 0.619140 0.000000 6.985249 0.155316 0.000000 0.633601 0.615415 0.000000 6.722702 0.103948 0.000000 0.460455 0.610783 0.000000 6.516854 0.025295 0.000000 0.395526 0.658130 0.000000 6.287747 -0.004174 0.000000 0.362661 0.770468 0.000000 5.989278 0.040089 0.000000 0.317359 0.936498 0.000000 5.596135 0.162702 0.000000 0.247088 1.156349 0.000000 
5.423217 0.394970 0.000000 0.082697 1.931265 0.000000 4.861683 0.510025 0.000000 0.109545 2.702358 0.000000 4.152437 0.025310 0.000000 0.099267 -3.154519 0.000000 4.640736 0.022148 0.000000 0.031723 -2.195884 0.000000 5.220378 0.005844 0.000000 0.001992 -1.580408 0.000000 5.728366 0.088212 0.000000 -0.059212 -1.248886 0.000000 6.162925 0.216701 0.000000 -0.283208 -1.148421 0.000000 6.614065 -0.018251 0.000000 -0.515005 -0.739883 0.000000 7.015147 -1.228342 0.000000 0.286516 -1.240018 0.000000 7.407756 -0.519630 0.000000 0.445810 -0.482934 0.000000 7.525336 0.024207 0.000000 0.238602 -0.146595 0.000000 7.572665 -0.095460 0.000000 0.468411 -0.127441 0.000000 7.577462 -0.041042 0.000000 0.614109 -0.168847 0.000000 7.598638 0.095870 0.000000 0.512872 -0.410147 0.000000 7.940851 -0.140606 0.000000 0.608632 -0.033065 0.000000 7.810330 -0.103390 0.000000 0.741509 0.043796 0.000000 7.711356 -0.075511 0.000000 0.848693 -0.027679 0.000000 7.701866 0.055060 0.000000 0.697657 -0.281123 0.000000 8.037658 -0.151560 0.000000 0.808130 0.083854 0.000000 7.841612 -0.126449 0.000000 0.915754 0.172701 0.000000 7.713536 -0.106131 0.000000 0.984874 0.121420 0.000000 7.693825 0.012459 0.000000 0.771608 -0.107325 0.000000 8.040743 -0.137861 0.000000 0.890470 0.237717 0.000000 7.804555 -0.049065 0.000000 1.119909 0.425712 0.000000 7.537476 -0.068912 0.000000 1.623346 0.685088 0.000000 7.544674 0.268882 0.000000 1.239546 0.801454 0.000000 7.008686 0.383320 0.000000 0.504687 0.740463 0.000000 6.785964 0.305222 0.000000 0.307044 0.696939 0.000000 6.670295 0.164921 0.000000 0.286320 0.765540 0.000000 6.494379 0.111830 0.000000 0.259112 0.934628 0.000000 6.233908 0.141219 0.000000 0.202297 1.173042 0.000000 5.884462 0.235168 0.000000 0.130774 1.481055 0.000000 
5.708498 0.425810 0.000000 0.205645 2.105407 0.000000 5.269547 0.529609 0.000000 0.239054 2.983126 0.000000 4.697872 0.030623 0.000000 0.228836 -3.285993 0.000000 5.017803 0.092646 0.000000 0.166330 -2.350012 0.000000 5.418658 0.074232 0.000000 0.165079 -1.742071 0.000000 5.800726 0.144124 0.000000 0.280983 -1.418011 0.000000 6.044672 0.289417 0.000000 0.516131 -1.324142 0.000000 6.032261 0.078374 0.000000 0.442311 -1.032975 0.000000 6.146852 -1.400583 0.000000 -0.900462 -1.257596 0.000000 5.600815 -0.452921 0.000000 -1.388066 -0.557292 0.000000 5.776891 0.203291 0.000000 -1.279192 -0.303047 0.000000 6.221768 -0.272078 0.000000 -1.155027 -0.161823 0.000000 6.469388 -0.158117 0.000000 -0.927221 -0.187420 0.000000 6.539495 0.138573 0.000000 -0.633672 -0.636268 0.000000 6.441831 -0.077347 0.000000 -0.711977 0.032618 0.000000 6.628895 -0.155558 0.000000 -0.657799 0.094452 0.000000 6.717334 -0.132567 0.000000 -0.507323 -0.026484 0.000000 6.691918 0.156863 0.000000 -0.298715 -0.501499 0.000000 6.603639 -0.139504 0.000000 -0.386295 0.238058 0.000000 6.715617 -0.179204 0.000000 -0.335851 0.265257 0.000000 6.741041 -0.151128 0.000000 -0.194370 0.134250 0.000000 6.698324 0.148533 0.000000 -0.023346 -0.334561 0.000000 6.696633 -0.220239 0.000000 -0.058062 0.486155 0.000000 6.825025 -0.334542 0.000000 0.231597 0.678959 0.000000 6.923054 -0.621712 0.000000 1.030925 0.421248 0.000000 6.732276 0.493808 0.000000 0.463238 1.155128 0.000000 6.618270 0.890175 0.000000 0.090123 0.838137 0.000000 6.711510 0.301591 0.000000 0.162633 0.726452 0.000000 6.706261 0.046019 0.000000 0.260706 0.834045 0.000000 6.571876 0.023034 0.000000 0.294911 1.030939 0.000000 6.353178 0.096903 0.000000 0.281431 1.285944 0.000000 6.067682 0.234226 0.000000 0.241166 1.617595 0.000000 
6.062136 0.430491 0.000000 0.168571 2.370216 0.000000 5.684986 0.476616 0.000000 0.247731 3.274033 0.000000 5.221709 0.035528 0.000000 0.238205 -3.474451 0.000000 5.420839 0.084654 0.000000 0.207030 -2.596739 0.000000 5.691789 0.007095 0.000000 0.261650 -1.962476 0.000000 5.917226 -0.027692 0.000000 0.538873 -1.492831 0.000000 5.873831 -0.018447 0.000000 1.121475 -1.136010 0.000000 5.350261 0.055569 0.000000 1.212017 -0.854474 0.000000 5.022414 0.114431 0.000000 -1.734550 -0.693981 0.000000 3.776174 -0.032025 0.000000 -2.687862 -0.659010 0.000000 3.779875 -0.084668 0.000000 -2.229640 -0.591472 0.000000 4.040701 -0.219625 0.000000 -2.681051 -0.375061 0.000000 4.434839 -0.268848 0.000000 -2.920958 -0.238954 0.000000 4.647893 -0.197679 0.000000 -2.674222 -0.312482 0.000000 3.832614 -0.062301 0.000000 -2.609544 -0.220129 0.000000 4.153058 -0.157569 0.000000 -2.781313 -0.044643 0.000000 4.586380 -0.225988 0.000000 -2.961948 -0.002263 0.000000 4.724991 -0.153548 0.000000 -2.677497 -0.192843 0.000000 3.835313 -0.063980 0.000000 -2.600514 -0.028124 0.000000 4.179220 -0.176893 0.000000 -2.716975 0.147277 0.000000 4.600897 -0.247611 0.000000 -2.838551 0.164137 0.000000 4.718164 -0.158565 0.000000 -2.509158 -0.105633 0.000000 3.833203 -0.103145 0.000000 -2.468878 0.109324 0.000000 4.222989 -0.338724 0.000000 -2.784571 0.327683 0.000000 4.853838 -0.868240 0.000000 -4.122257 0.875866 0.000000 5.507518 0.836569 0.000000 -2.270621 0.915460 0.000000 6.751047 0.756435 0.000000 -0.431201 0.647222 0.000000 7.079112 0.232711 0.000000 0.164130 0.702187 0.000000 6.995876 0.066849 0.000000 0.266732 0.899925 0.000000 6.818067 0.077625 0.000000 0.251145 1.153327 0.000000 6.610521 0.154700 0.000000 0.212349 1.458537 0.000000 6.364441 0.275433 0.000000 0.174566 1.840239 0.000000 
6.355058 0.431805 0.000000 0.265314 2.482556 0.000000 6.073926 0.450449 0.000000 0.343608 3.446403 0.000000 5.721580 0.040150 0.000000 0.334902 -3.485123 0.000000 5.805709 0.123821 0.000000 0.282650 -2.620962 0.000000 5.942995 0.019613 0.000000 0.260465 -1.967508 0.000000 6.075885 -0.133099 0.000000 0.363882 -1.374616 0.000000 6.081801 -0.293185 0.000000 0.638953 -0.800572 0.000000 5.898390 -0.012168 0.000000 0.733628 -0.705128 0.000000 5.991843 1.545984 0.000000 -0.061971 -0.011356 0.000000 5.372065 0.500391 0.000000 -0.554771 -0.560993 0.000000 5.160667 -0.254931 0.000000 -0.651773 -0.563873 0.000000 5.292364 0.179333 0.000000 -1.030930 -0.555960 0.000000 5.424054 0.081789 0.000000 -1.336759 -0.400475 0.000000 5.456693 -0.108163 0.000000 -1.281787 0.179011 0.000000 5.021564 -0.142025 0.000000 -1.468645 -0.287827 0.000000 5.198802 0.016210 0.000000 -1.696826 -0.338870 0.000000 5.433829 0.048068 0.000000 -1.900725 -0.165095 0.000000 5.483354 -0.127588 0.000000 -1.722411 0.388179 0.000000 4.936285 -0.216487 0.000000 -1.876788 -0.105849 0.000000 5.163438 -0.062743 0.000000 -2.057060 -0.156420 0.000000 5.431342 -0.029552 0.000000 -2.223570 0.016983 0.000000 5.481131 -0.180860 0.000000 -1.986257 0.550399 0.000000 4.832851 -0.260518 0.000000 -2.179395 0.096369 0.000000 5.062126 -0.018849 0.000000 -2.596675 0.048110 0.000000 5.406726 0.715974 0.000000 -3.681868 -0.232432 0.000000 5.895069 -1.357828 0.000000 -2.358275 -0.088401 0.000000 6.877010 -0.949245 0.000000 -0.584019 0.510073 0.000000 7.144515 -0.293741 0.000000 0.101361 0.809687 0.000000 7.067026 -0.056582 0.000000 0.264219 1.011855 0.000000 6.918262 0.038621 0.000000 0.283943 1.238484 0.000000 6.756394 0.135699 0.000000 0.271926 1.532025 0.000000 6.573798 0.272010 0.000000 0.256011 1.919899 0.000000 
6.683753 0.421188 0.000000 0.240623 2.651347 0.000000 6.461155 0.398321 0.000000 0.337900 3.626379 0.000000 6.199503 0.044234 0.000000 0.330465 -3.558580 0.000000 6.201457 0.136906 0.000000 0.273354 -2.734025 0.000000 6.264337 0.029280 0.000000 0.179232 -2.095367 0.000000 6.378788 -0.131109 0.000000 0.024617 -1.498747 0.000000 6.559800 -0.293518 0.000000 -0.266114 -0.952599 0.000000 6.868495 -0.039106 0.000000 -0.390455 -0.947928 0.000000 7.055785 0.910030 0.000000 0.654144 -0.074202 0.000000 7.568303 0.460775 0.000000 0.953358 -0.447612 0.000000 7.656198 0.012334 0.000000 0.766805 -0.723170 0.000000 7.622487 0.159533 0.000000 0.859374 -0.506751 0.000000 7.579321 0.036981 0.000000 0.844072 -0.271594 0.000000 7.571300 -0.252651 0.000000 0.721310 0.122647 0.000000 7.844572 0.124557 0.000000 0.680630 -0.397366 0.000000 7.742513 0.070613 0.000000 0.666897 -0.279671 0.000000 7.656091 -0.022089 0.000000 0.664173 -0.051788 0.000000 7.645701 -0.331862 0.000000 0.583668 0.354227 0.000000 7.893314 0.090396 0.000000 0.526873 -0.255277 0.000000 7.790196 0.003380 0.000000 0.498799 -0.120628 0.000000 7.708675 -0.081101 0.000000 0.487558 0.114348 0.000000 7.691500 -0.395878 0.000000 0.431610 0.542647 0.000000 7.884398 0.089992 0.000000 0.395915 -0.119951 0.000000 7.774685 0.078556 0.000000 0.504097 -0.016917 0.000000 7.706023 0.216953 0.000000 1.289713 0.387523 0.000000 7.382457 -0.487024 0.000000 0.446742 -0.066480 0.000000 7.142823 -1.017820 0.000000 0.017545 0.379717 0.000000 7.143968 -0.452669 0.000000 0.085932 0.779677 0.000000 7.144009 -0.096009 0.000000 0.180039 1.048688 0.000000 7.084124 0.057901 0.000000 0.212061 1.315195 0.000000 6.982669 0.166716 0.000000 0.211714 1.641134 0.000000 6.850434 0.291348 0.000000 0.209538 2.058979 0.000000 
6.965543 0.400720 0.000000 0.317506 2.705154 0.000000 6.821419 0.353172 0.000000 0.412174 3.708055 0.000000 6.654400 0.047585 0.000000 0.405731 -3.487077 0.000000 6.584064 0.180931 0.000000 0.345897 -2.683842 0.000000 6.575462 0.113735 0.000000 0.241612 -2.081959 0.000000 6.643803 0.021516 0.000000 0.073168 -1.555628 0.000000 6.829821 -0.002455 0.000000 -0.240893 -1.109267 0.000000 7.184117 0.112173 0.000000 -0.382127 -0.892418 0.000000 7.297877 0.501385 0.000000 0.386425 -0.523874 0.000000 7.839038 0.201178 0.000000 0.731219 -0.648889 0.000000 7.975262 -0.068379 0.000000 0.662723 -0.530162 0.000000 7.838181 0.086765 0.000000 0.783247 -0.512794 0.000000 7.781835 0.097091 0.000000 0.824737 -0.392454 0.000000 7.808076 0.014599 0.000000 0.609179 -0.094261 0.000000 8.100673 -0.101345 0.000000 0.724928 -0.185768 0.000000 7.961901 0.029943 0.000000 0.823251 -0.252448 0.000000 7.865551 0.050792 0.000000 0.858674 -0.154705 0.000000 7.876010 -0.047083 0.000000 0.623123 0.140566 0.000000 8.182234 -0.159692 0.000000 0.757426 -0.002731 0.000000 8.003441 -0.034669 0.000000 0.836848 -0.074899 0.000000 7.895839 -0.018311 0.000000 0.861513 0.034158 0.000000 7.900434 -0.124912 0.000000 0.611274 0.357501 0.000000 8.209426 -0.224823 0.000000 0.790446 0.206082 0.000000 7.978887 -0.127031 0.000000 0.985792 0.116773 0.000000 7.778870 -0.069643 0.000000 1.327849 0.091134 0.000000 7.836098 -0.514857 0.000000 1.086147 0.151233 0.000000 7.427006 -0.520048 0.000000 0.387781 0.508927 0.000000 7.258945 -0.362127 0.000000 0.192644 0.809647 0.000000 7.227170 -0.150690 0.000000 0.209125 1.071739 0.000000 7.194386 0.006599 0.000000 0.240963 1.339939 0.000000 7.138711 0.136046 0.000000 0.257905 1.664261 0.000000 7.063731 0.274185 0.000000 0.273278 2.086580 0.000000 
7.264343 0.376960 0.000000 0.297804 2.795472 0.000000 7.175424 0.303653 0.000000 0.394464 3.793398 0.000000 7.087186 0.050678 0.000000 0.389152 -3.488243 0.000000 6.974099 0.196739 0.000000 0.323975 -2.725423 0.000000 6.934246 0.133565 0.000000 0.206408 -2.163708 0.000000 6.988008 0.037335 0.000000 0.064610 -1.684765 0.000000 7.147564 0.020542 0.000000 -0.045136 -1.306896 0.000000 7.376135 0.102128 0.000000 0.004507 -1.061688 0.000000 7.531244 0.141478 0.000000 0.369156 -0.615363 0.000000 7.859691 0.115981 0.000000 0.661118 -0.583836 0.000000 7.961509 0.080830 0.000000 0.671965 -0.586088 0.000000 7.981387 0.039009 0.000000 0.734268 -0.450405 0.000000 7.923678 -0.004509 0.000000 0.774640 -0.297835 0.000000 7.889578 -0.037094 0.000000 0.761842 -0.169951 0.000000 8.009924 0.008808 0.000000 0.715846 -0.258594 0.000000 8.048531 -0.027710 0.000000 0.772135 -0.183321 0.000000 7.975773 -0.057512 0.000000 0.818586 -0.062248 0.000000 7.932273 -0.096311 0.000000 0.808199 0.048003 0.000000 8.060284 -0.043908 0.000000 0.766412 -0.076485 0.000000 8.084163 -0.076042 0.000000 0.817921 -0.013025 0.000000 8.002268 -0.105766 0.000000 0.868133 0.109753 0.000000 7.954708 -0.145638 0.000000 0.873067 0.233654 0.000000 8.081614 -0.089180 0.000000 0.882160 0.110587 0.000000 8.080096 -0.116789 0.000000 0.974142 0.183100 0.000000 7.962778 -0.125105 0.000000 1.105377 0.330295 0.000000 7.776150 -0.245321 0.000000 0.864880 0.342612 0.000000 7.569906 -0.319455 0.000000 0.534086 0.547778 0.000000 7.423256 -0.257532 0.000000 0.294088 0.811451 0.000000 7.370585 -0.112491 0.000000 0.213078 1.081473 0.000000 7.360793 0.026063 0.000000 0.206397 1.370870 0.000000 7.346662 0.149775 0.000000 0.218404 1.716114 0.000000 7.316025 0.275975 0.000000 0.241455 2.157167 0.000000 
7.526655 0.344372 0.000000 0.360710 2.794074 0.000000 7.503395 0.256512 0.000000 0.455492 3.796292 0.000000 7.497585 0.052897 0.000000 0.451567 -3.373990 0.000000 7.332889 0.246109 0.000000 0.401761 -2.643989 0.000000 7.243358 0.231302 0.000000 0.294222 -2.135721 0.000000 7.243867 0.163314 0.000000 0.141708 -1.715184 0.000000 7.343690 0.107291 0.000000 0.017534 -1.337838 0.000000 7.470968 0.062530 0.000000 0.110659 -1.047528 0.000000 7.506799 0.136737 0.000000 0.239544 -0.852321 0.000000 7.854253 -0.090785 0.000000 0.614047 -0.750707 0.000000 8.036860 -0.079225 0.000000 0.745952 -0.550040 0.000000 7.983224 0.024461 0.000000 0.791353 -0.455085 0.000000 7.932116 0.056719 0.000000 0.751176 -0.358353 0.000000 7.949816 0.027398 0.000000 0.670375 -0.214608 0.000000 8.040412 -0.055349 0.000000 0.744473 -0.224374 0.000000 8.045068 -0.026346 0.000000 0.807989 -0.179690 0.000000 7.978978 0.004342 0.000000 0.772747 -0.111205 0.000000 7.983875 -0.036697 0.000000 0.694434 0.012555 0.000000 8.080609 -0.117904 0.000000 0.768860 -0.026610 0.000000 8.078967 -0.086179 0.000000 0.827361 0.006996 0.000000 8.003165 -0.068522 0.000000 0.800196 0.081718 0.000000 8.001952 -0.129846 0.000000 0.739468 0.230595 0.000000 8.095174 -0.233917 0.000000 0.848362 0.207600 0.000000 8.068972 -0.219013 0.000000 0.951173 0.234090 0.000000 7.930354 -0.200877 0.000000 0.989019 0.277762 0.000000 7.853323 -0.274360 0.000000 0.888136 0.357478 0.000000 7.681493 -0.189254 0.000000 0.609222 0.655577 0.000000 7.521996 -0.122129 0.000000 0.367960 0.862318 0.000000 7.471471 -0.069680 0.000000 0.262590 1.081531 0.000000 7.484442 0.013281 0.000000 0.246832 1.354071 0.000000 7.507057 0.124039 0.000000 0.263769 1.694898 0.000000 7.523001 0.251134 0.000000 0.296363 2.138262 0.000000 
7.795392 0.312614 0.000000 0.349804 2.818732 0.000000 7.820932 0.208871 0.000000 0.441978 3.799208 0.000000 7.885679 0.054603 0.000000 0.439447 -3.323547 0.000000 7.687539 0.246546 0.000000 0.416209 -2.635891 0.000000 7.561705 0.241104 0.000000 0.354499 -2.164217 0.000000 7.510543 0.189850 0.000000 0.240506 -1.784588 0.000000 7.553676 0.144716 0.000000 0.075161 -1.434173 0.000000 7.654123 0.009003 0.000000 0.074071 -1.097520 0.000000 7.692294 0.012593 0.000000 0.201419 -0.962817 0.000000 7.984709 -0.258522 0.000000 0.658855 -0.766443 0.000000 8.126607 -0.051076 0.000000 0.687353 -0.532451 0.000000 8.068851 -0.006392 0.000000 0.795850 -0.399297 0.000000 7.989065 0.035668 0.000000 0.749751 -0.315535 0.000000 7.977305 0.043707 0.000000 0.607475 -0.260546 0.000000 8.042634 -0.065290 0.000000 0.688678 -0.263250 0.000000 8.116108 -0.091226 0.000000 0.881567 -0.117231 0.000000 8.012438 -0.022270 0.000000 0.807374 -0.067144 0.000000 7.992284 -0.017999 0.000000 0.660033 -0.048731 0.000000 8.063182 -0.118333 0.000000 0.743425 -0.074843 0.000000 8.139945 -0.134543 0.000000 0.925533 0.062777 0.000000 8.032002 -0.078601 0.000000 0.845132 0.110966 0.000000 8.017404 -0.084910 0.000000 0.694012 0.140432 0.000000 8.102799 -0.198074 0.000000 0.784009 0.136790 0.000000 8.172978 -0.219601 0.000000 1.007349 0.321719 0.000000 8.022078 -0.162951 0.000000 0.939578 0.407325 0.000000 7.920779 -0.144439 0.000000 0.965831 0.514442 0.000000 7.792467 -0.040541 0.000000 0.582171 0.707276 0.000000 7.604344 -0.016270 0.000000 0.314545 0.861976 0.000000 7.602342 -0.007120 0.000000 0.235385 1.068502 0.000000 7.654302 0.041821 0.000000 0.228093 1.348255 0.000000 7.706957 0.132837 0.000000 0.245116 1.700169 0.000000 7.754592 0.243381 0.000000 0.280079 2.153513 0.000000 