# vtk DataFile Version 2.0
Comment goes here
ASCII

DATASET STRUCTURED_POINTS
FIELD FieldData 1
TIME 1 1 double
0.06100000
DIMENSIONS    64   64   1

ORIGIN    0.000   0.000   0.000
SPACING   0.03125 0.03125   1.000

POINT_DATA   4096
SCALARS uX double
LOOKUP_TABLE default

6.949592e-01 -1.705269e+00 4.513541e-01 -1.507309e+00 8.116156e-02 -1.314993e+00 1.128516e-01 -1.095480e+00 7.341160e-02 -9.360694e-01 3.073571e-02 -8.321893e-01 1.325838e-02 -7.763479e-01 2.281785e-02 -7.430082e-01 2.956364e-02 -6.943789e-01 2.059494e-03 -6.071272e-01 -8.147167e-02 -4.697681e-01 -2.240007e-01 -2.885869e-01 -4.031334e-01 -8.766502e-02 -5.937877e-01 1.192383e-01 -7.882653e-01 3.322975e-01 -9.850670e-01 5.402680e-01 -1.171262e+00 7.255744e-01 -1.327279e+00 8.704615e-01 -1.434342e+00 9.584231e-01 -1.470201e+00 9.642751e-01 -1.424247e+00 8.797234e-01 -1.300132e+00 7.233261e-01 -1.124495e+00 5.295490e-01 -9.272259e-01 3.120582e-01 -7.156286e-01 5.995371e-02 -4.731495e-01 -2.343973e-01 -1.960850e-01 -5.545258e-01 8.118022e-02 -8.574666e-01 3.156903e-01 -1.110286e+00 4.873403e-01 -1.308128e+00 5.957075e-01 -1.462038e+00 6.514377e-01 -1.592287e+00 
-3.823981e-01 4.167613e-01 -2.000298e-01 3.304740e-01 1.315485e-01 2.434545e-01 -9.930963e-02 1.112024e-01 -2.034558e-01 3.098828e-02 -2.685590e-01 -1.451093e-02 -3.296384e-01 -3.521624e-02 -3.984983e-01 -4.865866e-02 -4.621757e-01 -7.372282e-02 -5.002353e-01 -1.170441e-01 -4.936940e-01 -1.803700e-01 -4.489654e-01 -2.676284e-01 -3.739211e-01 -3.652338e-01 -2.899349e-01 -4.695221e-01 -2.057493e-01 -5.797598e-01 -1.179237e-01 -6.887948e-01 -2.482393e-02 -7.915392e-01 5.723069e-02 -8.790470e-01 1.137011e-01 -9.435528e-01 1.383697e-01 -9.615187e-01 1.294220e-01 -9.353580e-01 8.657911e-02 -8.746088e-01 1.901302e-02 -7.941063e-01 -5.276533e-02 -6.934082e-01 -1.171690e-01 -5.714215e-01 -1.880196e-01 -4.267246e-01 -2.770534e-01 -2.661384e-01 -3.681466e-01 -1.146127e-01 -4.366389e-01 1.114473e-02 -4.700842e-01 1.108052e-01 -4.638297e-01 1.880713e-01 -4.158551e-01 2.571914e-01 
1.469270e+00 6.740265e-01 1.196457e+00 5.641642e-01 9.332131e-01 4.419530e-01 1.569907e+00 3.912250e-01 1.971162e+00 3.097306e-01 2.250640e+00 2.476190e-01 2.449062e+00 2.292829e-01 2.594591e+00 2.493147e-01 2.722994e+00 2.709897e-01 2.849550e+00 2.563122e-01 2.975422e+00 1.857102e-01 3.121539e+00 8.247176e-02 3.261281e+00 -3.338066e-02 3.397783e+00 -1.428957e-01 3.548042e+00 -2.592670e-01 3.701906e+00 -3.765255e-01 3.831101e+00 -4.775933e-01 3.939071e+00 -5.467766e-01 4.031425e+00 -5.859283e-01 4.078143e+00 -5.840427e-01 4.050030e+00 -5.255447e-01 3.961704e+00 -4.235699e-01 3.844764e+00 -3.183278e-01 3.707587e+00 -2.308803e-01 3.530855e+00 -1.411310e-01 3.304195e+00 -1.843007e-02 3.036508e+00 1.315061e-01 2.761354e+00 2.767374e-01 2.506671e+00 3.949003e-01 2.274292e+00 4.805965e-01 2.048623e+00 5.467674e-01 1.796226e+00 6.148080e-01 
3.477040e+00 -1.402144e-01 2.630242e+00 -2.833712e-01 1.306726e+00 -2.082522e-01 2.853013e+00 -1.224784e-01 3.663288e+00 -8.801116e-02 4.208140e+00 -6.578812e-02 4.633639e+00 -3.045924e-02 5.002505e+00 4.190822e-02 5.335529e+00 1.634279e-01 5.592477e+00 2.534078e-01 5.764688e+00 3.117544e-01 5.883493e+00 3.648221e-01 5.924967e+00 4.111736e-01 5.946712e+00 4.502810e-01 5.994290e+00 4.880234e-01 6.036450e+00 5.285057e-01 6.020563e+00 5.671879e-01 5.995147e+00 6.027688e-01 6.005807e+00 6.330014e-01 6.024420e+00 6.487339e-01 5.998166e+00 6.481033e-01 5.965000e+00 6.389288e-01 5.954010e+00 6.228148e-01 5.917305e+00 5.878455e-01 5.801564e+00 5.207991e-01 5.640906e+00 4.241294e-01 5.462665e+00 3.155526e-01 5.282306e+00 2.263837e-01 5.080927e+00 1.694110e-01 4.829503e+00 1.331762e-01 4.497996e+00 1.018344e-01 4.049854e+00 4.944963e-02 
3.566391e+00 4.566809e-02 2.874287e+00 -1.539070e-01 1.826141e+00 -1.206561e-01 2.988456e+00 -1.522905e-01 3.747718e+00 -1.278514e-01 4.283972e+00 -9.939261e-02 4.702346e+00 -6.141789e-02 5.064496e+00 2.161801e-02 5.385329e+00 2.214841e-01 5.645010e+00 3.182878e-01 5.813185e+00 3.587255e-01 5.939756e+00 4.088352e-01 5.987615e+00 4.430476e-01 6.020777e+00 4.575672e-01 6.089766e+00 4.685135e-01 6.149735e+00 5.014800e-01 6.138415e+00 5.218457e-01 6.117311e+00 5.319920e-01 6.139502e+00 5.407043e-01 6.164073e+00 5.692555e-01 6.122475e+00 5.806624e-01 6.068661e+00 5.819323e-01 6.046683e+00 5.776647e-01 6.003319e+00 5.726546e-01 5.872356e+00 5.238219e-01 5.680094e+00 4.468459e-01 5.466423e+00 3.505593e-01 5.263192e+00 2.795323e-01 5.054213e+00 2.398693e-01 4.806311e+00 2.183265e-01 4.490181e+00 1.909841e-01 4.086801e+00 1.266798e-01 
3.775097e+00 -9.069210e-02 3.139447e+00 -1.433182e-01 2.302314e+00 -1.491588e-01 3.129668e+00 -1.323935e-01 3.833149e+00 -1.141892e-01 4.349766e+00 -1.126409e-01 4.757560e+00 -1.114692e-01 5.128325e+00 -6.448929e-02 5.494161e+00 2.678202e-01 5.725350e+00 3.574668e-01 5.860971e+00 3.471344e-01 6.001415e+00 3.901412e-01 6.024583e+00 4.472513e-01 6.026757e+00 4.872896e-01 6.090049e+00 4.822521e-01 6.163772e+00 5.272771e-01 6.123917e+00 5.781172e-01 6.074572e+00 6.133445e-01 6.101265e+00 6.033577e-01 6.153553e+00 6.372794e-01 6.097939e+00 6.649260e-01 6.036436e+00 6.722798e-01 6.041257e+00 6.410088e-01 6.035570e+00 6.474673e-01 5.888898e+00 6.154659e-01 5.695424e+00 4.658115e-01 5.481897e+00 3.159344e-01 5.304536e+00 2.189892e-01 5.127261e+00 1.633602e-01 4.907222e+00 1.217607e-01 4.618529e+00 7.438240e-02 4.242957e+00 4.485094e-03 
3.954766e+00 3.904112e-02 3.448556e+00 -2.378242e-02 2.781936e+00 -3.008950e-02 3.370116e+00 -7.089678e-02 3.934353e+00 -8.422749e-02 4.384642e+00 -1.021971e-01 4.747836e+00 -1.618696e-01 5.111522e+00 -2.677710e-01 5.535622e+00 4.451619e-01 5.744118e+00 4.644463e-01 5.836364e+00 3.139511e-01 6.004912e+00 4.067107e-01 6.009859e+00 4.791761e-01 6.000499e+00 4.988915e-01 6.093293e+00 4.003087e-01 6.214573e+00 4.871554e-01 6.158872e+00 5.489217e-01 6.095097e+00 5.648114e-01 6.144393e+00 4.681402e-01 6.243310e+00 5.516130e-01 6.160871e+00 6.049167e-01 6.071908e+00 6.145091e-01 6.088294e+00 5.301191e-01 6.132467e+00 6.090810e-01 5.972211e+00 6.345700e-01 5.695277e+00 4.580374e-01 5.444179e+00 2.877590e-01 5.279902e+00 2.189598e-01 5.126389e+00 1.970369e-01 4.931983e+00 1.824768e-01 4.679014e+00 1.572793e-01 4.357630e+00 1.136555e-01 
4.206978e+00 -2.010836e-02 3.768372e+00 -3.128116e-02 3.222706e+00 -3.760091e-02 3.630990e+00 -5.275854e-02 4.083102e+00 -5.802513e-02 4.467683e+00 -9.022065e-02 4.786878e+00 -2.045031e-01 5.132425e+00 -3.838833e-01 5.616577e+00 4.258164e-01 5.757442e+00 4.065132e-01 5.824269e+00 1.299066e-01 6.052592e+00 3.029346e-01 6.014932e+00 4.609537e-01 5.965604e+00 5.179462e-01 6.063764e+00 2.734877e-01 6.237640e+00 4.660754e-01 6.119248e+00 6.105152e-01 6.012359e+00 6.527741e-01 6.083356e+00 3.938541e-01 6.253502e+00 5.941832e-01 6.109814e+00 7.168558e-01 5.997051e+00 7.216832e-01 6.077794e+00 4.346043e-01 6.233516e+00 6.875731e-01 5.987782e+00 1.114842e+00 5.717353e+00 4.886937e-01 5.413454e+00 1.729692e-01 5.325077e+00 1.272323e-01 5.223778e+00 1.222278e-01 5.061680e+00 1.066739e-01 4.839498e+00 7.633508e-02 4.555820e+00 3.293208e-02 
4.432674e+00 7.336527e-02 4.092508e+00 6.083549e-02 3.663832e+00 5.467772e-02 3.941740e+00 2.906877e-02 4.271084e+00 2.300237e-02 4.571787e+00 3.539661e-02 4.797169e+00 5.387954e-02 4.873516e+00 5.839203e-02 4.769170e+00 -7.583975e-01 4.792597e+00 -7.924768e-01 4.910727e+00 -6.279513e-01 4.993079e+00 -6.679999e-01 5.164566e+00 -6.067139e-01 5.263667e+00 -4.970720e-01 5.223942e+00 -4.328330e-01 5.244959e+00 -4.678739e-01 5.325041e+00 -4.113024e-01 5.356135e+00 -3.209680e-01 5.285414e+00 -2.944753e-01 5.300012e+00 -3.136897e-01 5.339783e+00 -2.437055e-01 5.349561e+00 -1.456098e-01 5.295194e+00 -1.263430e-01 5.380300e+00 -1.785426e-02 5.473021e+00 3.769741e-01 5.239459e+00 4.182270e-02 5.300271e+00 3.367112e-02 5.334466e+00 1.001382e-01 5.267083e+00 1.393112e-01 5.130518e+00 1.490891e-01 4.944437e+00 1.379970e-01 4.712639e+00 1.115504e-01 
4.690741e+00 3.831181e-02 4.410867e+00 5.277996e-02 4.069455e+00 4.713748e-02 4.240810e+00 3.896979e-02 4.470615e+00 6.304090e-02 4.671494e+00 1.502533e-01 4.727901e+00 3.260344e-01 4.407403e+00 4.518852e-01 3.431600e+00 -2.039584e+00 3.375201e+00 -2.274528e+00 3.484766e+00 -1.704708e+00 3.062933e+00 -2.009913e+00 3.403920e+00 -2.325192e+00 3.743758e+00 -2.434725e+00 3.579281e+00 -1.830031e+00 3.073198e+00 -2.079753e+00 3.425067e+00 -2.329193e+00 3.774956e+00 -2.412240e+00 3.597129e+00 -1.793776e+00 3.039472e+00 -2.059408e+00 3.403189e+00 -2.288158e+00 3.749408e+00 -2.334788e+00 3.581409e+00 -1.706805e+00 3.130885e+00 -2.057406e+00 3.688886e+00 -2.807996e+00 4.747755e+00 -1.059651e+00 5.425096e+00 -1.828647e-01 5.502787e+00 5.281418e-02 5.412452e+00 1.010313e-01 5.279943e+00 1.006337e-01 5.118039e+00 8.380601e-02 4.922802e+00 6.008782e-02 
4.926368e+00 1.098356e-01 4.723513e+00 1.253055e-01 4.473013e+00 1.201037e-01 4.558932e+00 1.006076e-01 4.696046e+00 1.014680e-01 4.827139e+00 1.533619e-01 4.866830e+00 2.803404e-01 4.701870e+00 3.913197e-01 4.405385e+00 -7.184964e-01 4.199484e+00 -9.588887e-01 4.179366e+00 -7.869396e-01 3.986674e+00 -1.057039e+00 4.150485e+00 -1.331830e+00 4.334201e+00 -1.444792e+00 4.195802e+00 -1.155808e+00 3.911897e+00 -1.396950e+00 4.133936e+00 -1.606765e+00 4.358622e+00 -1.669738e+00 4.212049e+00 -1.318145e+00 3.863792e+00 -1.578856e+00 4.108789e+00 -1.779522e+00 4.342292e+00 -1.819974e+00 4.188060e+00 -1.428373e+00 3.845049e+00 -1.778985e+00 4.217144e+00 -2.296643e+00 4.976868e+00 -1.023637e+00 5.490174e+00 -2.205116e-01 5.552124e+00 4.085234e-02 5.476997e+00 1.152308e-01 5.370582e+00 1.339649e-01 5.244825e+00 1.323195e-01 5.097473e+00 1.213881e-01 
5.174219e+00 8.555497e-02 5.023787e+00 1.131091e-01 4.843633e+00 1.085929e-01 4.861772e+00 8.438120e-02 4.937093e+00 5.534204e-02 5.041088e+00 9.184786e-03 5.154901e+00 -9.099043e-02 5.342973e+00 -2.281705e-01 5.776760e+00 6.563752e-01 5.834548e+00 6.427799e-01 5.858476e+00 3.569577e-01 6.049355e+00 4.538377e-01 5.975348e+00 5.232502e-01 5.915586e+00 5.245464e-01 5.967617e+00 2.781559e-01 6.127779e+00 3.683515e-01 6.030907e+00 4.452812e-01 5.953363e+00 4.662804e-01 5.985044e+00 2.323984e-01 6.146142e+00 3.187188e-01 6.049277e+00 3.841461e-01 5.982224e+00 3.955344e-01 6.011056e+00 1.795491e-01 6.142325e+00 3.530898e-01 6.046403e+00 8.198261e-01 5.697023e+00 1.606547e-01 5.593842e+00 1.589669e-02 5.593596e+00 5.359204e-02 5.564554e+00 8.652696e-02 5.500483e+00 9.673123e-02 5.411335e+00 9.389874e-02 5.301879e+00 8.694012e-02 
5.404094e+00 1.426429e-01 5.315867e+00 1.718047e-01 5.210350e+00 1.679246e-01 5.172350e+00 1.405055e-01 5.190356e+00 1.020042e-01 5.254781e+00 3.964199e-02 5.366391e+00 -9.468101e-02 5.600895e+00 -2.895496e-01 5.914507e+00 5.117377e-01 6.083096e+00 5.625984e-01 6.106267e+00 3.274316e-01 6.232531e+00 4.731956e-01 6.162666e+00 5.706291e-01 6.096902e+00 5.526550e-01 6.208246e+00 3.344356e-01 6.345562e+00 5.002955e-01 6.234260e+00 5.902402e-01 6.141435e+00 5.725340e-01 6.239635e+00 3.444144e-01 6.381142e+00 5.268059e-01 6.253831e+00 6.155835e-01 6.158261e+00 5.974695e-01 6.255760e+00 3.710911e-01 6.368419e+00 6.242594e-01 6.141994e+00 9.144264e-01 5.986306e+00 4.487228e-01 5.727470e+00 1.433715e-01 5.668908e+00 1.008400e-01 5.643874e+00 1.158730e-01 5.603364e+00 1.293660e-01 5.547413e+00 1.351320e-01 5.480056e+00 1.369865e-01 
5.634928e+00 1.259716e-01 5.592011e+00 1.599814e-01 5.546187e+00 1.568163e-01 5.465846e+00 1.281078e-01 5.445871e+00 8.584444e-02 5.487174e+00 3.371129e-02 5.589193e+00 -1.197877e-02 5.766504e+00 8.652107e-03 5.991108e+00 3.427312e-01 6.127683e+00 4.540170e-01 6.157873e+00 4.349211e-01 6.242199e+00 4.580097e-01 6.221787e+00 4.978992e-01 6.177369e+00 5.163707e-01 6.215282e+00 4.760876e-01 6.305948e+00 5.008632e-01 6.265021e+00 5.383536e-01 6.201067e+00 5.581569e-01 6.231650e+00 5.148443e-01 6.324798e+00 5.440617e-01 6.279855e+00 5.831145e-01 6.215636e+00 6.100261e-01 6.241934e+00 5.818396e-01 6.307151e+00 6.311743e-01 6.216628e+00 6.440410e-01 6.009645e+00 4.390661e-01 5.843570e+00 2.334050e-01 5.771268e+00 1.374691e-01 5.749529e+00 1.123831e-01 5.732474e+00 1.096568e-01 5.706600e+00 1.111144e-01 5.672769e+00 1.147067e-01 
5.851423e+00 1.734658e-01 5.859627e+00 2.089009e-01 5.876585e+00 2.064941e-01 5.755390e+00 1.797308e-01 5.693289e+00 1.347335e-01 5.694112e+00 7.382355e-02 5.756254e+00 1.725253e-02 5.876030e+00 5.195886e-02 5.972992e+00 3.470279e-01 6.175830e+00 4.576400e-01 6.238750e+00 4.362373e-01 6.271880e+00 4.952549e-01 6.235680e+00 5.077967e-01 6.208162e+00 4.761678e-01 6.277562e+00 4.493512e-01 6.326225e+00 5.138537e-01 6.275888e+00 5.243473e-01 6.231785e+00 4.925823e-01 6.294813e+00 4.663168e-01 6.346836e+00 5.377005e-01 6.294032e+00 5.527093e-01 6.245152e+00 5.306646e-01 6.299556e+00 5.229041e-01 6.325626e+00 6.088382e-01 6.219109e+00 6.100563e-01 6.098189e+00 4.601744e-01 5.928517e+00 2.731243e-01 5.851525e+00 1.728747e-01 5.839553e+00 1.432995e-01 5.842829e+00 1.419912e-01 5.844925e+00 1.483047e-01 5.846356e+00 1.574971e-01 
6.062264e+00 1.641664e-01 6.108911e+00 2.027290e-01 6.177740e+00 2.011700e-01 6.023892e+00 1.852140e-01 5.927613e+00 1.560227e-01 5.888988e+00 1.100458e-01 5.907798e+00 3.292707e-02 6.002370e+00 -1.896541e-02 6.088838e+00 3.741365e-01 6.277288e+00 4.642632e-01 6.286175e+00 3.838721e-01 6.307146e+00 5.060683e-01 6.272400e+00 5.198931e-01 6.230390e+00 4.479598e-01 6.292077e+00 4.183157e-01 6.333158e+00 5.562769e-01 6.289305e+00 5.623593e-01 6.232756e+00 4.833135e-01 6.294720e+00 4.503569e-01 6.341290e+00 5.950775e-01 6.302780e+00 5.986377e-01 6.248295e+00 5.141521e-01 6.312903e+00 4.790718e-01 6.356725e+00 6.226928e-01 6.271015e+00 6.646696e-01 6.160031e+00 4.681862e-01 5.967440e+00 2.330801e-01 5.925677e+00 1.515535e-01 5.945046e+00 1.316342e-01 5.971231e+00 1.300185e-01 5.996675e+00 1.348140e-01 6.025211e+00 1.447218e-01 
6.261089e+00 2.054094e-01 6.349974e+00 2.444232e-01 6.472135e+00 2.436628e-01 6.283771e+00 2.333660e-01 6.151237e+00 2.122539e-01 6.073445e+00 1.789512e-01 6.048627e+00 1.223242e-01 6.074400e+00 5.687904e-02 6.112502e+00 2.041627e-01 6.184810e+00 2.181985e-01 6.204280e+00 1.781535e-01 6.237029e+00 3.003022e-01 6.205839e+00 3.385879e-01 6.173648e+00 2.985513e-01 6.224813e+00 2.741181e-01 6.262631e+00 4.110794e-01 6.216765e+00 4.294385e-01 6.168051e+00 3.639233e-01 6.224816e+00 3.302585e-01 6.268542e+00 4.852143e-01 6.223619e+00 5.017865e-01 6.172499e+00 4.252002e-01 6.236425e+00 3.913271e-01 6.290603e+00 5.724888e-01 6.227094e+00 7.419272e-01 6.144565e+00 4.614725e-01 5.989730e+00 2.111142e-01 5.996276e+00 1.537977e-01 6.040931e+00 1.507970e-01 6.085344e+00 1.580032e-01 6.132439e+00 1.682995e-01 6.189082e+00 1.825108e-01 
6.449716e+00 2.014587e-01 6.571397e+00 2.414599e-01 6.738590e+00 2.415314e-01 6.524565e+00 2.451273e-01 6.364385e+00 2.542513e-01 6.245097e+00 2.910594e-01 6.132774e+00 3.836260e-01 5.948114e+00 4.175927e-01 5.807145e+00 -3.525561e-01 5.371032e+00 -5.853934e-01 5.327968e+00 -4.803198e-01 5.306149e+00 -7.133799e-01 5.361340e+00 -6.872051e-01 5.409714e+00 -5.028318e-01 5.291356e+00 -4.364106e-01 5.247918e+00 -6.665405e-01 5.312423e+00 -6.278094e-01 5.378564e+00 -4.426816e-01 5.270255e+00 -3.713432e-01 5.235417e+00 -6.046291e-01 5.296662e+00 -5.627650e-01 5.366187e+00 -3.824022e-01 5.278848e+00 -3.252353e-01 5.287721e+00 -5.871766e-01 5.447471e+00 -6.949395e-01 5.594255e+00 -3.511600e-01 5.937515e+00 4.569694e-04 6.091258e+00 1.148793e-01 6.156235e+00 1.434895e-01 6.210020e+00 1.531107e-01 6.272756e+00 1.621149e-01 6.350995e+00 1.763893e-01 
6.627818e+00 2.373938e-01 6.784880e+00 2.758597e-01 6.997207e+00 2.767108e-01 6.752866e+00 2.827050e-01 6.558125e+00 2.964344e-01 6.393162e+00 3.462358e-01 6.214732e+00 4.670674e-01 5.949747e+00 5.291200e-01 5.760194e+00 -2.559146e-01 5.243043e+00 -5.194078e-01 5.129490e+00 -4.410035e-01 5.059165e+00 -7.971504e-01 5.107005e+00 -8.501028e-01 5.169181e+00 -6.738080e-01 5.001674e+00 -6.128821e-01 4.914191e+00 -9.834435e-01 5.009006e+00 -9.859881e-01 5.125271e+00 -7.594129e-01 4.966335e+00 -6.713055e-01 4.883437e+00 -1.065109e+00 4.987066e+00 -1.052531e+00 5.122024e+00 -8.061575e-01 4.979066e+00 -7.265294e-01 4.930051e+00 -1.182732e+00 5.170274e+00 -1.466074e+00 5.463321e+00 -7.807657e-01 6.019336e+00 -1.025078e-01 6.204873e+00 1.114692e-01 6.264555e+00 1.638751e-01 6.322352e+00 1.803001e-01 6.399766e+00 1.928965e-01 6.500415e+00 2.100794e-01 
6.792522e+00 2.357449e-01 6.978320e+00 2.725086e-01 7.228897e+00 2.741699e-01 6.962995e+00 2.809640e-01 6.748118e+00 2.828663e-01 6.571401e+00 2.810064e-01 6.424351e+00 2.650833e-01 6.318410e+00 2.365017e-01 6.256766e+00 3.671713e-01 6.192536e+00 3.484759e-01 6.092972e+00 2.662189e-01 6.067772e+00 2.469361e-01 6.020856e+00 2.066095e-01 5.979891e+00 1.704491e-01 5.956632e+00 1.312012e-01 5.959792e+00 1.099586e-01 5.941165e+00 9.181243e-02 5.927310e+00 8.382067e-02 5.917782e+00 5.318732e-02 5.936954e+00 2.268411e-02 5.939679e+00 6.525924e-03 5.950260e+00 2.296464e-03 5.958873e+00 -3.791164e-02 6.002178e+00 -8.653635e-02 6.040890e+00 -5.000998e-02 6.055593e+00 -6.301745e-02 6.163529e+00 5.031330e-02 6.263515e+00 1.280447e-01 6.341480e+00 1.615912e-01 6.422810e+00 1.770375e-01 6.520543e+00 1.898359e-01 6.641796e+00 2.075270e-01 
6.947995e+00 2.657571e-01 7.163863e+00 2.998556e-01 7.451931e+00 3.022528e-01 7.163281e+00 3.088359e-01 6.926887e+00 3.042386e-01 6.735547e+00 2.771589e-01 6.598890e+00 1.975113e-01 6.551065e+00 1.198881e-01 6.491776e+00 4.660176e-01 6.597455e+00 5.373422e-01 6.541054e+00 4.334658e-01 6.500698e+00 5.603096e-01 6.435787e+00 5.609606e-01 6.376893e+00 4.560545e-01 6.418163e+00 3.995055e-01 6.429582e+00 5.481022e-01 6.379936e+00 5.404316e-01 6.329106e+00 4.288084e-01 6.389823e+00 3.676853e-01 6.420878e+00 5.275777e-01 6.389941e+00 5.144804e-01 6.356570e+00 3.922378e-01 6.437826e+00 3.279830e-01 6.489953e+00 5.184645e-01 6.438046e+00 6.616477e-01 6.410850e+00 4.128338e-01 6.293492e+00 1.918217e-01 6.334362e+00 1.680186e-01 6.420392e+00 1.848756e-01 6.517301e+00 2.010501e-01 6.631944e+00 2.166557e-01 6.773127e+00 2.366415e-01 
7.088418e+00 2.652024e-01 7.328958e+00 2.961412e-01 7.648908e+00 2.992059e-01 7.346866e+00 3.076067e-01 7.100098e+00 3.064420e-01 6.902929e+00 2.934976e-01 6.760799e+00 2.658713e-01 6.682153e+00 2.561788e-01 6.613677e+00 4.007808e-01 6.633682e+00 4.561993e-01 6.587511e+00 4.430163e-01 6.540964e+00 5.027835e-01 6.482424e+00 5.076191e-01 6.432760e+00 4.666452e-01 6.440776e+00 4.510481e-01 6.435948e+00 5.181918e-01 6.400832e+00 5.143063e-01 6.368416e+00 4.639025e-01 6.398866e+00 4.436025e-01 6.414241e+00 5.155136e-01 6.399834e+00 5.056194e-01 6.386737e+00 4.473117e-01 6.436613e+00 4.259085e-01 6.464954e+00 5.094370e-01 6.446925e+00 5.241909e-01 6.450318e+00 4.120861e-01 6.393997e+00 2.617143e-01 6.422488e+00 2.091581e-01 6.502788e+00 2.012777e-01 6.607714e+00 2.065201e-01 6.736188e+00 2.180738e-01 6.894026e+00 2.367951e-01 
7.220256e+00 2.902599e-01 7.486008e+00 3.179261e-01 7.836553e+00 3.216143e-01 7.518874e+00 3.298151e-01 7.257406e+00 3.275925e-01 7.046616e+00 3.168528e-01 6.887616e+00 3.096618e-01 6.773954e+00 3.331782e-01 6.680540e+00 3.956430e-01 6.673829e+00 4.484896e-01 6.631976e+00 4.680656e-01 6.573577e+00 4.934151e-01 6.518943e+00 4.888743e-01 6.475390e+00 4.685738e-01 6.466146e+00 4.680589e-01 6.449684e+00 4.906525e-01 6.423630e+00 4.809789e-01 6.402494e+00 4.555994e-01 6.417353e+00 4.525399e-01 6.424076e+00 4.768760e-01 6.419424e+00 4.658318e-01 6.417838e+00 4.402265e-01 6.450951e+00 4.413123e-01 6.470582e+00 4.702344e-01 6.471303e+00 4.537343e-01 6.477895e+00 3.895854e-01 6.462631e+00 2.981492e-01 6.496263e+00 2.459735e-01 6.577677e+00 2.298671e-01 6.690572e+00 2.317025e-01 6.831810e+00 2.430444e-01 7.005930e+00 2.623446e-01 
7.336476e+00 2.909595e-01 7.622350e+00 3.159695e-01 7.998822e+00 3.202664e-01 7.670696e+00 3.330088e-01 7.399729e+00 3.385311e-01 7.177838e+00 3.394385e-01 7.003029e+00 3.444518e-01 6.868383e+00 3.657084e-01 6.762202e+00 4.031884e-01 6.711878e+00 4.385076e-01 6.657108e+00 4.613657e-01 6.596353e+00 4.793622e-01 6.541774e+00 4.797607e-01 6.498476e+00 4.732315e-01 6.476177e+00 4.771009e-01 6.453454e+00 4.871180e-01 6.430869e+00 4.799104e-01 6.414759e+00 4.667344e-01 6.419315e+00 4.669065e-01 6.421889e+00 4.752081e-01 6.423124e+00 4.641022e-01 6.428698e+00 4.468341e-01 6.453637e+00 4.435138e-01 6.473710e+00 4.433711e-01 6.490744e+00 4.131367e-01 6.511752e+00 3.713708e-01 6.522897e+00 3.095940e-01 6.566451e+00 2.646711e-01 6.650973e+00 2.435768e-01 6.769481e+00 2.394480e-01 6.920134e+00 2.469769e-01 7.106728e+00 2.643649e-01 
7.444251e+00 3.126445e-01 7.750390e+00 3.348335e-01 8.151200e+00 3.396666e-01 7.810787e+00 3.535690e-01 7.527181e+00 3.611741e-01 7.291084e+00 3.658241e-01 7.099089e+00 3.751410e-01 6.945643e+00 3.934750e-01 6.827990e+00 4.200475e-01 6.757094e+00 4.463184e-01 6.692978e+00 4.659292e-01 6.629076e+00 4.766335e-01 6.572626e+00 4.757436e-01 6.526997e+00 4.717589e-01 6.497513e+00 4.720750e-01 6.472536e+00 4.723935e-01 6.450616e+00 4.645429e-01 6.435378e+00 4.556582e-01 6.434719e+00 4.533796e-01 6.436800e+00 4.526400e-01 6.439708e+00 4.433965e-01 6.447168e+00 4.331489e-01 6.467952e+00 4.281042e-01 6.490339e+00 4.184677e-01 6.513432e+00 3.928845e-01 6.539509e+00 3.589225e-01 6.567902e+00 3.173123e-01 6.622926e+00 2.834033e-01 6.713659e+00 2.651811e-01 6.839147e+00 2.614818e-01 6.999516e+00 2.692865e-01 7.198736e+00 2.868756e-01 
7.536169e+00 3.140547e-01 7.857803e+00 3.343503e-01 8.278723e+00 3.397028e-01 7.929119e+00 3.577003e-01 7.636863e+00 3.708361e-01 7.390564e+00 3.806865e-01 7.186621e+00 3.922958e-01 7.020805e+00 4.080854e-01 6.890428e+00 4.275645e-01 6.796745e+00 4.462398e-01 6.718685e+00 4.615070e-01 6.648990e+00 4.706301e-01 6.589168e+00 4.727061e-01 6.540584e+00 4.726168e-01 6.505258e+00 4.735970e-01 6.477053e+00 4.729229e-01 6.454776e+00 4.675028e-01 6.439838e+00 4.615131e-01 6.435829e+00 4.582067e-01 6.436839e+00 4.539690e-01 6.441845e+00 4.442987e-01 6.452473e+00 4.330333e-01 6.473345e+00 4.221601e-01 6.499300e+00 4.056132e-01 6.530282e+00 3.795045e-01 6.566188e+00 3.499292e-01 6.608869e+00 3.172558e-01 6.674268e+00 2.893070e-01 6.771521e+00 2.721351e-01 6.902950e+00 2.669767e-01 7.070612e+00 2.729943e-01 7.279069e+00 2.893396e-01 
7.619569e+00 3.330701e-01 7.956590e+00 3.513337e-01 8.395924e+00 3.571245e-01 8.036434e+00 3.764678e-01 7.733959e+00 3.913402e-01 7.476420e+00 4.025374e-01 7.260393e+00 4.138807e-01 7.082991e+00 4.268950e-01 6.942565e+00 4.419814e-01 6.836758e+00 4.553655e-01 6.750250e+00 4.655955e-01 6.676084e+00 4.707571e-01 6.613145e+00 4.708831e-01 6.561759e+00 4.690409e-01 6.523013e+00 4.666040e-01 6.493104e+00 4.624161e-01 6.470004e+00 4.558448e-01 6.454446e+00 4.492897e-01 6.448652e+00 4.437085e-01 6.449282e+00 4.371807e-01 6.454546e+00 4.281070e-01 6.465796e+00 4.181245e-01 6.486465e+00 4.067328e-01 6.514365e+00 3.905028e-01 6.548534e+00 3.687805e-01 6.589530e+00 3.444559e-01 6.641331e+00 3.200457e-01 6.715388e+00 2.995583e-01 6.819387e+00 2.870704e-01 6.957296e+00 2.844509e-01 7.132621e+00 2.918519e-01 7.350601e+00 3.088395e-01 
7.686969e+00 3.341836e-01 8.034974e+00 3.511814e-01 8.488661e+00 3.573725e-01 8.121773e+00 3.794954e-01 7.812547e+00 3.975674e-01 7.547512e+00 4.110126e-01 7.323289e+00 4.228006e-01 7.137164e+00 4.343475e-01 6.986555e+00 4.460482e-01 6.867719e+00 4.560333e-01 6.771009e+00 4.637066e-01 6.690431e+00 4.680770e-01 6.623376e+00 4.692370e-01 6.568919e+00 4.687243e-01 6.526828e+00 4.670472e-01 6.494565e+00 4.636207e-01 6.470467e+00 4.583843e-01 6.454515e+00 4.525933e-01 6.447608e+00 4.464474e-01 6.447950e+00 4.387509e-01 6.454496e+00 4.286764e-01 6.468008e+00 4.168385e-01 6.490588e+00 4.026396e-01 6.521598e+00 3.845088e-01 6.560795e+00 3.629058e-01 6.608790e+00 3.402231e-01 6.669377e+00 3.186696e-01 6.751185e+00 3.008698e-01 6.861267e+00 2.897115e-01 7.004487e+00 2.871520e-01 7.185400e+00 2.940531e-01 7.409922e+00 3.105512e-01 
7.745740e+00 3.507799e-01 8.104408e+00 3.665339e-01 8.570765e+00 3.730426e-01 8.196620e+00 3.960351e-01 7.880061e+00 4.149281e-01 7.607291e+00 4.284484e-01 7.375132e+00 4.391607e-01 7.181357e+00 4.485330e-01 7.023462e+00 4.571181e-01 6.897196e+00 4.635487e-01 6.794580e+00 4.675319e-01 6.709991e+00 4.687460e-01 6.640142e+00 4.674352e-01 6.583542e+00 4.645130e-01 6.539501e+00 4.602480e-01 6.505920e+00 4.545879e-01 6.480991e+00 4.478523e-01 6.464440e+00 4.407581e-01 6.456742e+00 4.332183e-01 6.456685e+00 4.246323e-01 6.463239e+00 4.146749e-01 6.477128e+00 4.034064e-01 6.500142e+00 3.900659e-01 6.532354e+00 3.739293e-01 6.573675e+00 3.557688e-01 6.625353e+00 3.372920e-01 6.691416e+00 3.206362e-01 6.778979e+00 3.077095e-01 6.894325e+00 3.005546e-01 7.042671e+00 3.008622e-01 7.229236e+00 3.096416e-01 7.460462e+00 3.271811e-01 
7.788447e+00 3.507985e-01 8.153658e+00 3.658308e-01 8.628681e+00 3.726039e-01 8.249553e+00 3.972433e-01 7.928589e+00 4.178045e-01 7.651071e+00 4.322668e-01 7.413732e+00 4.429577e-01 7.214201e+00 4.513848e-01 7.049541e+00 4.582331e-01 6.915584e+00 4.630745e-01 6.806300e+00 4.659469e-01 6.716769e+00 4.668552e-01 6.643518e+00 4.660072e-01 6.584480e+00 4.638307e-01 6.538319e+00 4.603819e-01 6.503168e+00 4.556236e-01 6.477450e+00 4.497482e-01 6.460599e+00 4.430592e-01 6.452603e+00 4.353631e-01 6.452693e+00 4.262396e-01 6.460290e+00 4.154470e-01 6.475916e+00 4.029179e-01 6.500823e+00 3.882524e-01 6.535468e+00 3.713588e-01 6.580278e+00 3.531630e-01 6.636694e+00 3.352468e-01 6.708336e+00 3.194699e-01 6.801119e+00 3.074681e-01 6.920877e+00 3.009206e-01 7.073027e+00 3.013935e-01 7.263249e+00 3.100676e-01 7.498428e+00 3.274712e-01 
7.822425e+00 3.652548e-01 8.193693e+00 3.797536e-01 8.675760e+00 3.867073e-01 8.292241e+00 4.116076e-01 7.966880e+00 4.322134e-01 7.684866e+00 4.461239e-01 7.442996e+00 4.555422e-01 7.239051e+00 4.620523e-01 7.070125e+00 4.664274e-01 6.932060e+00 4.685570e-01 6.819386e+00 4.686341e-01 6.727381e+00 4.669028e-01 6.652439e+00 4.636533e-01 6.592221e+00 4.592008e-01 6.545111e+00 4.536317e-01 6.509272e+00 4.470587e-01 6.483112e+00 4.397319e-01 6.465935e+00 4.318459e-01 6.457550e+00 4.232446e-01 6.457339e+00 4.136957e-01 6.464843e+00 4.030741e-01 6.480585e+00 3.912474e-01 6.505717e+00 3.779145e-01 6.540938e+00 3.631701e-01 6.586955e+00 3.478736e-01 6.645536e+00 3.333497e-01 6.720271e+00 3.211799e-01 6.816438e+00 3.127411e-01 6.939489e+00 3.093891e-01 7.094879e+00 3.124478e-01 7.288548e+00 3.230157e-01 7.527668e+00 3.416070e-01 
7.840351e+00 3.637228e-01 8.213713e+00 3.779999e-01 8.698817e+00 3.850733e-01 8.313043e+00 4.107627e-01 7.985782e+00 4.320287e-01 7.701681e+00 4.461814e-01 7.457434e+00 4.553919e-01 7.250659e+00 4.613018e-01 7.078269e+00 4.648460e-01 6.936294e+00 4.663438e-01 6.820031e+00 4.661482e-01 6.725179e+00 4.645716e-01 6.648216e+00 4.618579e-01 6.586584e+00 4.581657e-01 6.538366e+00 4.534910e-01 6.501752e+00 4.478453e-01 6.475252e+00 4.413072e-01 6.458054e+00 4.338928e-01 6.449774e+00 4.254173e-01 6.449947e+00 4.156782e-01 6.458327e+00 4.045623e-01 6.475351e+00 3.919964e-01 6.501935e+00 3.779245e-01 6.538887e+00 3.626664e-01 6.587189e+00 3.471050e-01 6.648694e+00 3.325047e-01 6.726694e+00 3.203172e-01 6.825868e+00 3.118666e-01 6.951360e+00 3.084439e-01 7.108621e+00 3.113385e-01 7.303759e+00 3.217076e-01 7.544175e+00 3.401716e-01 
7.849458e+00 3.764282e-01 8.224336e+00 3.908001e-01 8.710936e+00 3.979087e-01 8.323719e+00 4.232619e-01 7.994921e+00 4.439229e-01 7.709328e+00 4.571000e-01 7.463632e+00 4.649077e-01 7.255471e+00 4.690300e-01 7.081750e+00 4.704779e-01 6.938535e+00 4.697393e-01 6.821321e+00 4.672627e-01 6.725895e+00 4.634506e-01 6.648708e+00 4.586070e-01 6.587069e+00 4.529165e-01 6.538903e+00 4.464383e-01 6.502362e+00 4.392466e-01 6.475945e+00 4.314489e-01 6.458770e+00 4.230726e-01 6.450370e+00 4.140003e-01 6.450335e+00 4.041114e-01 6.458504e+00 3.933466e-01 6.475330e+00 3.816594e-01 6.501710e+00 3.690533e-01 6.538584e+00 3.558570e-01 6.587136e+00 3.428456e-01 6.649380e+00 3.311039e-01 6.728559e+00 3.218646e-01 6.829054e+00 3.162822e-01 6.955796e+00 3.154819e-01 7.114191e+00 3.205976e-01 7.310418e+00 3.326830e-01 7.551982e+00 3.523072e-01 
7.842591e+00 3.730847e-01 8.215067e+00 3.876971e-01 8.699092e+00 3.947772e-01 8.312496e+00 4.202288e-01 7.984404e+00 4.408087e-01 7.699409e+00 4.537752e-01 7.454153e+00 4.612855e-01 7.246101e+00 4.650710e-01 7.072026e+00 4.662520e-01 6.928076e+00 4.654984e-01 6.810053e+00 4.633208e-01 6.713978e+00 4.601077e-01 6.636404e+00 4.561050e-01 6.574579e+00 4.514152e-01 6.526321e+00 4.460248e-01 6.489792e+00 4.399046e-01 6.463550e+00 4.330297e-01 6.446675e+00 4.253223e-01 6.438639e+00 4.166313e-01 6.439091e+00 4.068287e-01 6.447962e+00 3.958606e-01 6.465658e+00 3.837413e-01 6.492969e+00 3.706046e-01 6.530858e+00 3.568764e-01 6.580617e+00 3.433430e-01 6.644260e+00 3.310629e-01 6.724821e+00 3.212316e-01 6.826338e+00 3.150195e-01 6.953507e+00 3.135850e-01 7.111657e+00 3.181004e-01 7.306988e+00 3.296826e-01 7.547081e+00 3.489918e-01 
7.826806e+00 3.844678e-01 8.196297e+00 3.997318e-01 8.676305e+00 4.066993e-01 8.291234e+00 4.312317e-01 7.964406e+00 4.506114e-01 7.680819e+00 4.622284e-01 7.437086e+00 4.681904e-01 7.230597e+00 4.702378e-01 7.058054e+00 4.695364e-01 6.915574e+00 4.668370e-01 6.798997e+00 4.627037e-01 6.704358e+00 4.575673e-01 6.628189e+00 4.517162e-01 6.567665e+00 4.452991e-01 6.520523e+00 4.383607e-01 6.484892e+00 4.309221e-01 6.459320e+00 4.229974e-01 6.442852e+00 4.145518e-01 6.434930e+00 4.054954e-01 6.435231e+00 3.957552e-01 6.443740e+00 3.853146e-01 6.460889e+00 3.742131e-01 6.487485e+00 3.625977e-01 6.524580e+00 3.508543e-01 6.573591e+00 3.396621e-01 6.636616e+00 3.299281e-01 6.716652e+00 3.226778e-01 6.817581e+00 3.189420e-01 6.943965e+00 3.197588e-01 7.101055e+00 3.261915e-01 7.295025e+00 3.392739e-01 7.533427e+00 3.596367e-01 