# vtk DataFile Version 2.0
Comment goes here
ASCII

DATASET STRUCTURED_POINTS
FIELD FieldData 1
TIME 1 1 double
0.00200000
DIMENSIONS    64   64   1

ORIGIN    0.000   0.000   0.000
SPACING   0.03125 0.03125   1.000

POINT_DATA   4096
SCALARS Omega double
LOOKUP_TABLE default

7.402931e-04 -8.279628e-04 -2.411819e-04 -5.749346e-04 -1.362184e-03 5.218442e-04 -7.143224e-04 1.084954e-03 4.020258e-04 -1.045571e-03 2.490438e-03 -3.203657e-03 2.912098e-03 -1.603606e-04 -1.623575e-03 -1.775111e-03 1.954145e-03 1.152789e-02 -1.887693e-02 1.483489e-02 -6.194707e-03 -2.512685e-03 1.408190e-03 -7.593447e-04 6.006142e-04 2.523562e-03 4.250758e-03 -1.776588e-03 6.548556e-03 -7.715750e-03 1.114633e-02 -8.022264e-03 7.029185e-03 -2.853055e-03 1.217328e-03 -1.394666e-04 7.182671e-05 9.195163e-04 -8.963168e-04 2.075292e-03 -4.590922e-04 5.385855e-04 4.089472e-04 1.266345e-03 -9.919037e-04 4.493253e-03 -3.466810e-03 2.449451e-03 4.346430e-04 -1.205326e-03 1.103224e-03 -1.346548e-03 4.500990e-04 -1.491066e-03 5.157253e-04 -6.305429e-04 -3.228427e-04 -3.886233e-04 -6.280661e-04 2.074448e-04 -6.613280e-04 1.116414e-05 -1.172513e-03 4.762190e-05 
-1.177172e+00 1.502229e+00 -7.005995e-01 1.134225e+00 -2.412610e-01 7.168465e-01 -6.539013e-01 1.245838e+00 -9.336847e-01 8.679584e-01 -4.798808e-01 3.684877e-01 -2.287529e-01 9.495121e-02 -8.031491e-02 -9.660638e-02 -6.863755e-02 -1.304744e-01 -1.790829e-01 -9.664469e-02 -2.535417e-01 -1.367908e-01 -2.390329e-01 -2.185349e-01 -2.384421e-01 -2.489255e-01 -2.732404e-01 -2.738234e-01 -2.855918e-01 -2.946717e-01 -3.157569e-01 -3.052236e-01 -3.349737e-01 -3.138016e-01 -3.453794e-01 -3.230666e-01 -3.433197e-01 -3.303995e-01 -3.396377e-01 -3.313758e-01 -3.371030e-01 -3.254789e-01 -3.394762e-01 -3.131419e-01 -3.413381e-01 -3.077501e-01 -3.299753e-01 -2.982204e-01 -3.333096e-01 -2.937736e-01 -3.137727e-01 -3.089189e-01 -3.241993e-01 -2.834591e-01 -3.907725e-01 -2.515912e-01 -4.270151e-01 -2.775372e-01 -4.101644e-01 -3.543082e-01 -3.222969e-01 -5.826658e-01 -4.141788e-01 -1.567608e-01 
-2.124683e-01 1.937790e+00 -1.796868e+00 1.852477e+00 -1.354378e+00 2.089388e+00 -1.048537e+00 7.888626e-01 -5.428164e-01 4.608392e-01 -6.173181e-01 2.004136e-01 -4.498430e-01 -1.211455e-01 -3.657015e-01 -2.720332e-01 -3.410180e-01 -3.408017e-01 -3.468522e-01 -3.320381e-01 -4.209869e-01 -3.286866e-01 -4.318717e-01 -3.761227e-01 -4.088386e-01 -4.034623e-01 -4.093973e-01 -4.048482e-01 -4.157336e-01 -3.989270e-01 -4.316609e-01 -3.957592e-01 -4.310871e-01 -3.999162e-01 -4.258224e-01 -4.047517e-01 -4.214258e-01 -4.080206e-01 -4.153063e-01 -4.084131e-01 -4.143315e-01 -4.001675e-01 -4.194882e-01 -3.916702e-01 -4.128740e-01 -3.901341e-01 -3.958692e-01 -3.707799e-01 -4.028112e-01 -3.484665e-01 -3.714412e-01 -3.368906e-01 -3.439088e-01 -2.730660e-01 -3.393879e-01 -1.896194e-01 -3.049030e-01 -1.482704e-01 -1.978933e-01 -1.227310e-01 -1.283192e-01 2.063043e-01 2.498574e-01 -4.906150e-01 
1.026900e-01 7.216114e-01 -7.932697e-01 7.541475e-01 -3.609591e-01 9.303105e-01 -4.190391e-01 1.794859e-01 -1.100980e-01 7.974349e-02 -2.296397e-01 3.608411e-02 -1.889883e-01 -7.877090e-02 -1.734386e-01 -1.214286e-01 -1.618115e-01 -1.494589e-01 -1.473505e-01 -1.514456e-01 -1.691279e-01 -1.455044e-01 -1.765367e-01 -1.537433e-01 -1.664728e-01 -1.601670e-01 -1.611498e-01 -1.570372e-01 -1.612178e-01 -1.516473e-01 -1.627551e-01 -1.486278e-01 -1.591373e-01 -1.488115e-01 -1.552203e-01 -1.491198e-01 -1.537831e-01 -1.490375e-01 -1.517645e-01 -1.487287e-01 -1.516281e-01 -1.460861e-01 -1.532755e-01 -1.442533e-01 -1.496196e-01 -1.439857e-01 -1.434563e-01 -1.359001e-01 -1.461030e-01 -1.255392e-01 -1.338003e-01 -1.169706e-01 -1.178658e-01 -8.902093e-02 -1.036185e-01 -5.206080e-02 -7.952258e-02 -2.625376e-02 -2.782455e-02 6.395274e-04 -8.009894e-03 2.098690e-01 2.018126e-01 -2.227760e-01 
2.770560e-05 4.255942e-04 -5.280423e-04 -2.071285e-02 -1.913934e+00 1.877482e-02 -7.236689e-05 -6.912188e-06 -4.144795e-05 5.219633e-05 -9.987725e-05 -1.909999e-05 -9.716944e-05 -6.600410e-05 -9.377749e-05 -7.668320e-05 -9.890667e-05 -8.527264e-05 -9.429758e-05 -9.110323e-05 -1.030941e-04 -9.235814e-05 -1.073725e-04 -9.499799e-05 -1.037109e-04 -1.000579e-04 -1.014736e-04 -1.006451e-04 -1.038403e-04 -9.850907e-05 -1.052777e-04 -9.717752e-05 -1.043079e-04 -9.772113e-05 -1.024386e-04 -9.911246e-05 -1.016470e-04 -1.000770e-04 -1.002544e-04 -1.008478e-04 -9.978389e-05 -9.976710e-05 -1.006207e-04 -9.828172e-05 -9.882164e-05 -9.728145e-05 -9.608542e-05 -9.451314e-05 -9.788544e-05 -9.049730e-05 -9.236793e-05 -8.745665e-05 -8.533216e-05 -7.729813e-05 -7.768185e-05 -6.042805e-05 -7.010542e-05 -4.223426e-05 -5.417747e-05 -1.750270e-05 -2.628727e-05 7.996030e-05 8.792175e-05 2.130775e-05 
5.289584e-06 -3.781159e-05 -7.328437e-05 -3.216243e-03 -1.740713e+00 1.839970e-04 2.945535e-05 -1.942765e-05 1.634843e-05 -1.156690e-05 1.530860e-05 -8.245723e-06 9.857626e-06 -5.716149e-06 6.321613e-06 -1.373184e-06 6.781548e-06 1.169413e-06 5.682680e-06 2.368389e-06 5.161309e-06 3.490060e-06 4.700681e-06 4.499369e-06 4.199790e-06 4.822651e-06 4.327141e-06 4.511639e-06 4.601828e-06 4.354515e-06 5.128111e-06 4.161510e-06 5.566771e-06 4.256867e-06 5.318881e-06 4.710526e-06 4.913802e-06 5.093974e-06 4.483588e-06 5.442585e-06 3.994990e-06 5.318859e-06 4.230759e-06 4.821207e-06 4.391502e-06 4.411692e-06 4.398290e-06 3.763995e-06 4.024109e-06 2.338507e-06 -8.827897e-07 5.002441e-07 -1.926495e-06 5.334225e-07 -3.380611e-06 5.021635e-07 -5.708747e-06 1.329281e-06 -9.311570e-06 3.829050e-06 -1.204346e-05 7.122384e-06 -6.033610e-08 5.283562e-05 
-2.266030e-05 -1.714011e-05 -7.265995e-05 -8.004295e-03 -2.248082e+00 4.324198e-03 4.949707e-05 -1.291061e-05 2.875864e-05 -8.347622e-06 1.800754e-05 -7.220085e-06 9.606813e-06 -5.341020e-06 6.385920e-06 2.901839e-03 5.815169e-03 5.053085e-03 7.499377e-03 6.876154e-03 8.264518e-03 8.681382e-03 8.553436e-03 1.065894e-02 8.449027e-03 1.158809e-02 9.679956e-03 1.125985e-02 1.090390e-02 1.085088e-02 1.222171e-02 1.011955e-02 1.323918e-02 1.024736e-02 1.265398e-02 1.129929e-02 1.172219e-02 1.215160e-02 1.083841e-02 1.313019e-02 9.882389e-03 1.289101e-02 1.055428e-02 1.149441e-02 1.105478e-02 1.029861e-02 1.147108e-02 9.001092e-03 1.142895e-02 5.721728e-03 1.888080e-06 6.959475e-07 -1.753290e-06 8.007514e-07 -2.917471e-06 8.950541e-07 -4.787162e-06 1.545508e-06 -7.439819e-06 3.749522e-06 -1.012357e-05 7.184694e-06 -7.504633e-06 3.168345e-05 
-1.605398e-06 -1.135047e-05 -9.668548e-06 1.176202e-03 -2.096606e+00 -4.647683e-03 -2.113178e-06 -1.693425e-06 6.373894e-06 -7.036593e-06 8.096584e-06 -6.799406e-06 6.772484e-06 -5.443507e-06 7.698866e-06 6.986911e-03 1.399147e-02 1.216233e-02 1.804841e-02 1.654995e-02 1.989172e-02 2.089532e-02 2.058821e-02 2.565587e-02 2.033763e-02 2.789309e-02 2.330126e-02 2.710381e-02 2.624804e-02 2.611990e-02 2.942058e-02 2.435982e-02 3.187016e-02 2.466786e-02 3.046170e-02 2.720052e-02 2.821881e-02 2.925273e-02 2.609153e-02 3.160909e-02 2.379025e-02 3.103379e-02 2.540790e-02 2.767212e-02 2.661308e-02 2.479379e-02 2.761584e-02 2.167062e-02 2.751579e-02 1.377584e-02 4.990263e-06 1.358889e-06 -2.120867e-06 1.290182e-06 -3.033921e-06 1.659998e-06 -4.481585e-06 2.710145e-06 -5.967093e-06 4.854924e-06 -5.790814e-06 8.243119e-06 -8.270830e-07 1.506828e-05 
-9.520684e-06 -3.148490e-06 -1.170827e-05 -3.400452e-03 -2.351414e+00 -3.598394e-04 4.788650e-06 -3.826660e-06 1.167104e-05 -6.387618e-06 1.007315e-05 -6.344257e-06 7.043319e-06 -5.565875e-06 5.791033e-06 1.236313e-03 2.485991e-03 2.155806e-03 3.206583e-03 2.935702e-03 3.534058e-03 3.708193e-03 3.657759e-03 4.554522e-03 3.613238e-03 4.952688e-03 4.139576e-03 4.813270e-03 4.663126e-03 4.639182e-03 5.226923e-03 4.327082e-03 5.662385e-03 4.382311e-03 5.412413e-03 4.832780e-03 5.014076e-03 5.197927e-03 4.636189e-03 5.617176e-03 4.227297e-03 5.515494e-03 4.514822e-03 4.918690e-03 4.729106e-03 4.407719e-03 4.907569e-03 3.853093e-03 4.890514e-03 2.449995e-03 -4.548662e-07 1.473795e-06 -1.800753e-06 1.468410e-06 -2.542292e-06 1.867732e-06 -3.735759e-06 2.830352e-06 -5.140685e-06 4.729903e-06 -6.158079e-06 7.483682e-06 -6.023248e-06 1.138551e-05 
4.605783e-06 -3.020645e-06 1.260883e-05 1.694125e-03 -2.212902e+00 -5.258942e-03 -1.642055e-05 -3.017599e-07 -2.703413e-06 -4.812086e-06 1.748853e-06 -5.481969e-06 2.899486e-06 -4.708161e-06 5.977810e-07 -6.938516e-03 -1.387443e-02 -1.207070e-02 -1.790046e-02 -1.642206e-02 -1.973017e-02 -2.073191e-02 -2.042200e-02 -2.545388e-02 -2.017412e-02 -2.767282e-02 -2.311474e-02 -2.688943e-02 -2.603841e-02 -2.591296e-02 -2.918587e-02 -2.416650e-02 -3.161603e-02 -2.447173e-02 -3.021883e-02 -2.698389e-02 -2.799389e-02 -2.901945e-02 -2.588368e-02 -3.135674e-02 -2.360089e-02 -3.078574e-02 -2.520580e-02 -2.745051e-02 -2.640156e-02 -2.459477e-02 -2.739658e-02 -2.149622e-02 -2.729754e-02 -1.366413e-02 -7.423731e-06 9.943130e-07 -1.358180e-06 1.604036e-06 -2.076630e-06 2.254006e-06 -2.721442e-06 3.267255e-06 -2.927759e-06 4.752178e-06 -1.821147e-06 6.328267e-06 1.362164e-06 6.422921e-06 
1.596581e-06 1.510401e-06 1.011853e-05 -2.368583e-03 -2.334050e+00 -1.305751e-03 -1.266754e-05 -3.040455e-06 -5.245284e-07 -5.199099e-06 2.768396e-06 -5.291134e-06 2.896622e-06 -4.264189e-06 6.316524e-07 -4.147886e-03 -8.292447e-03 -7.214997e-03 -1.070002e-02 -9.815957e-03 -1.179438e-02 -1.239243e-02 -1.220830e-02 -1.521549e-02 -1.206037e-02 -1.654236e-02 -1.381843e-02 -1.607446e-02 -1.556643e-02 -1.549106e-02 -1.744825e-02 -1.444727e-02 -1.890126e-02 -1.462997e-02 -1.806614e-02 -1.613208e-02 -1.673609e-02 -1.734929e-02 -1.547457e-02 -1.874693e-02 -1.410984e-02 -1.840584e-02 -1.506942e-02 -1.641210e-02 -1.578441e-02 -1.470497e-02 -1.637950e-02 -1.285253e-02 -1.632090e-02 -8.169622e-03 -4.220074e-06 9.045807e-07 -9.622255e-07 1.655131e-06 -1.630504e-06 2.354199e-06 -2.236862e-06 3.333367e-06 -2.654986e-06 4.706095e-06 -2.467016e-06 6.136525e-06 -1.148398e-06 6.477757e-06 
9.644631e-06 1.002253e-06 1.946734e-05 9.874102e-04 -2.201455e+00 -4.471873e-03 -2.157349e-05 -1.887417e-06 -8.539073e-06 -4.209930e-06 -3.050372e-06 -4.650963e-06 -5.742374e-07 -4.022994e-06 2.645307e-07 -5.979868e-05 -1.125357e-04 -1.007806e-04 -1.457986e-04 -1.357738e-04 -1.610684e-04 -1.706890e-04 -1.669713e-04 -2.091750e-04 -1.651630e-04 -2.273051e-04 -1.894315e-04 -2.208486e-04 -2.135332e-04 -2.128263e-04 -2.394523e-04 -1.984681e-04 -2.594466e-04 -2.009071e-04 -2.480192e-04 -2.214959e-04 -2.297951e-04 -2.381917e-04 -2.124941e-04 -2.573664e-04 -1.937933e-04 -2.526935e-04 -2.070270e-04 -2.252563e-04 -2.168925e-04 -2.017184e-04 -2.251778e-04 -1.760821e-04 -2.247080e-04 -1.111798e-04 -5.261574e-07 1.251106e-06 -7.449973e-07 1.833846e-06 -9.903435e-07 2.514350e-06 -9.958363e-07 3.375556e-06 -4.311926e-07 4.365807e-06 1.226170e-06 5.090065e-06 4.481671e-06 4.549480e-06 
8.098802e-06 3.410822e-06 1.729097e-05 -2.122753e-03 -2.243283e+00 -1.368922e-03 -1.883954e-05 -3.674908e-06 -7.437571e-06 -4.747582e-06 -2.445916e-06 -4.749606e-06 -4.178354e-07 -4.118465e-06 2.580677e-07 -3.104542e-06 1.241495e-06 -2.095617e-06 1.351876e-06 -1.250921e-06 1.298249e-06 -5.777530e-07 1.192884e-06 -3.226665e-08 1.052145e-06 3.184595e-07 1.088377e-06 4.934160e-07 1.145432e-06 6.141573e-07 1.233613e-06 6.840055e-07 1.313300e-06 8.232043e-07 1.241452e-06 1.034128e-06 1.136180e-06 1.219444e-06 1.036309e-06 1.419403e-06 9.210151e-07 1.503690e-06 9.444012e-07 1.501687e-06 9.385908e-07 1.558290e-06 8.728265e-07 1.675402e-06 6.602687e-07 1.696072e-06 -3.409310e-07 1.413557e-06 -5.305006e-07 1.929665e-06 -7.065419e-07 2.587566e-06 -7.347850e-07 3.424719e-06 -3.898329e-07 4.395052e-06 7.217019e-07 5.200918e-06 3.201597e-06 5.183604e-06 
1.222354e-05 2.978946e-06 2.066545e-05 3.050132e-04 -2.112558e+00 -3.607270e-03 -2.245299e-05 -3.248225e-06 -1.150139e-05 -4.182089e-06 -6.085368e-06 -4.292674e-06 -3.020135e-06 -3.809964e-06 -1.270463e-06 7.189323e-04 1.444583e-03 1.254438e-03 1.863936e-03 1.708197e-03 2.054472e-03 2.157413e-03 2.126429e-03 2.649326e-03 2.100555e-03 2.880456e-03 2.406654e-03 2.798977e-03 2.710925e-03 2.697381e-03 3.038517e-03 2.515608e-03 3.291383e-03 2.547498e-03 3.145812e-03 2.809049e-03 2.914142e-03 3.020974e-03 2.694404e-03 3.264283e-03 2.456744e-03 3.204819e-03 2.623765e-03 2.857668e-03 2.748130e-03 2.560496e-03 2.851553e-03 2.238133e-03 2.840889e-03 1.423450e-03 6.401629e-07 1.521137e-06 -1.635634e-07 2.012308e-06 -1.330779e-08 2.601554e-06 4.458210e-07 3.296057e-06 1.481874e-06 4.004336e-06 3.472255e-06 4.467651e-06 6.859738e-06 4.244051e-06 
1.114109e-05 4.144184e-06 1.880817e-05 -1.987078e-03 -2.103391e+00 -1.258817e-03 -2.013658e-05 -4.158356e-06 -1.070033e-05 -4.532151e-06 -5.609134e-06 -4.411703e-06 -2.769481e-06 -3.990014e-06 -2.202804e-07 3.178802e-03 6.368742e-03 5.536696e-03 8.216551e-03 7.534853e-03 9.056428e-03 9.513731e-03 9.373853e-03 1.168150e-02 9.260103e-03 1.270004e-02 1.060976e-02 1.234076e-02 1.195151e-02 1.189285e-02 1.339610e-02 1.109142e-02 1.451129e-02 1.123200e-02 1.386983e-02 1.238515e-02 1.284863e-02 1.331959e-02 1.188000e-02 1.439251e-02 1.083226e-02 1.413038e-02 1.156891e-02 1.259974e-02 1.211765e-02 1.128923e-02 1.257431e-02 9.867268e-03 1.252853e-02 6.274051e-03 2.795178e-06 1.780493e-06 -1.224963e-07 2.099166e-06 1.319299e-07 2.642789e-06 5.521961e-07 3.320014e-06 1.413169e-06 4.039119e-06 3.072253e-06 4.604010e-06 6.049367e-06 4.712460e-06 
1.298384e-05 3.812964e-06 1.965247e-05 -1.536379e-04 -1.972529e+00 -2.901068e-03 -2.134317e-05 -3.928860e-06 -1.250005e-05 -4.181490e-06 -7.655989e-06 -4.118316e-06 -4.427443e-06 -3.952202e-06 -1.487224e-06 2.075931e-03 4.161192e-03 3.616969e-03 5.369900e-03 4.923220e-03 5.919522e-03 6.217072e-03 6.127416e-03 7.634547e-03 6.053342e-03 8.300854e-03 6.935775e-03 8.066500e-03 7.813098e-03 7.774135e-03 8.757675e-03 7.250587e-03 9.486943e-03 7.342824e-03 9.067773e-03 8.097045e-03 8.400279e-03 8.708314e-03 7.767105e-03 9.410159e-03 7.082165e-03 9.239161e-03 7.563904e-03 8.238787e-03 7.922833e-03 7.382307e-03 8.221700e-03 6.452869e-03 8.192426e-03 4.103475e-03 1.737929e-06 1.962003e-06 2.339011e-07 2.125344e-06 7.623770e-07 2.570456e-06 1.527421e-06 3.126661e-06 2.810955e-06 3.683818e-06 4.908822e-06 4.088646e-06 8.162215e-06 4.155648e-06 
1.203827e-05 4.271945e-06 1.801253e-05 -1.834186e-03 -1.928709e+00 -1.122220e-03 -1.925546e-05 -4.257253e-06 -1.174826e-05 -4.274774e-06 -7.226222e-06 -4.055318e-06 -4.326324e-06 -3.688583e-06 -3.317342e-06 -2.844756e-03 -5.688984e-03 -4.949210e-03 -7.337683e-03 -6.732356e-03 -8.086907e-03 -8.498349e-03 -8.369950e-03 -1.043309e-02 -8.268174e-03 -1.134180e-02 -9.473152e-03 -1.102038e-02 -1.067107e-02 -1.061991e-02 -1.196080e-02 -9.903888e-03 -1.295641e-02 -1.002898e-02 -1.238360e-02 -1.105818e-02 -1.147177e-02 -1.189210e-02 -1.060690e-02 -1.284964e-02 -9.671426e-03 -1.261520e-02 -1.032911e-02 -1.124814e-02 -1.081899e-02 -1.007759e-02 -1.122660e-02 -8.807496e-03 -1.118544e-02 -5.598882e-03 -2.495308e-06 1.612399e-06 5.245356e-07 2.045753e-06 8.787293e-07 2.540966e-06 1.538511e-06 3.102467e-06 2.667291e-06 3.671549e-06 4.531426e-06 4.136119e-06 7.498569e-06 4.358412e-06 
1.260343e-05 3.990919e-06 1.773214e-05 -4.192998e-04 -1.796872e+00 -2.343471e-03 -1.931666e-05 -4.051876e-06 -1.230274e-05 -3.974999e-06 -8.268451e-06 -3.696446e-06 -5.477332e-06 -3.166282e-06 -4.595837e-06 -2.803944e-03 -5.609649e-03 -4.878749e-03 -7.235721e-03 -6.637134e-03 -7.974772e-03 -8.378820e-03 -8.254038e-03 -1.028706e-02 -8.153804e-03 -1.118361e-02 -9.342139e-03 -1.086711e-02 -1.052361e-02 -1.047259e-02 -1.179566e-02 -9.766794e-03 -1.277771e-02 -9.890447e-03 -1.221297e-02 -1.090573e-02 -1.131383e-02 -1.172847e-02 -1.046096e-02 -1.267317e-02 -9.538399e-03 -1.244229e-02 -1.018711e-02 -1.109433e-02 -1.067036e-02 -9.940129e-03 -1.107257e-02 -8.687652e-03 -1.103249e-02 -5.522916e-03 -1.902368e-06 1.319556e-06 9.794503e-07 1.899653e-06 1.425994e-06 2.386615e-06 2.268013e-06 2.880308e-06 3.605232e-06 3.357460e-06 5.622708e-06 3.745979e-06 8.543991e-06 3.965135e-06 
1.168540e-05 4.056952e-06 1.623686e-05 -1.647321e-03 -1.728568e+00 -9.882608e-04 -1.738976e-05 -4.044947e-06 -1.150633e-05 -3.896321e-06 -7.751613e-06 -3.589477e-06 -5.146554e-06 -3.115075e-06 -3.557915e-06 -3.435529e-04 -6.846231e-04 -5.955838e-04 -8.821367e-04 -8.093110e-04 -9.718261e-04 -1.021128e-03 -1.005634e-03 -1.253325e-03 -9.933234e-04 -1.362429e-03 -1.137967e-03 -1.323837e-03 -1.281818e-03 -1.275751e-03 -1.436740e-03 -1.189745e-03 -1.556349e-03 -1.204737e-03 -1.487570e-03 -1.328353e-03 -1.378061e-03 -1.428536e-03 -1.274168e-03 -1.543583e-03 -1.161788e-03 -1.515448e-03 -1.240799e-03 -1.351194e-03 -1.299630e-03 -1.210508e-03 -1.348597e-03 -1.057770e-03 -1.343771e-03 -6.717983e-04 3.146937e-07 1.425622e-06 9.369797e-07 1.877793e-06 1.404896e-06 2.334321e-06 2.177733e-06 2.812217e-06 3.386290e-06 3.283092e-06 5.216515e-06 3.687011e-06 7.900683e-06 3.956030e-06 
1.154448e-05 3.792673e-06 1.544560e-05 -5.428647e-04 -1.595557e+00 -1.896701e-03 -1.687763e-05 -3.831401e-06 -1.135818e-05 -3.641739e-06 -8.079724e-06 -3.337239e-06 -5.632462e-06 -2.948132e-06 -3.844785e-06 -2.758481e-06 -2.796848e-06 -2.383832e-06 -2.051639e-06 -2.069292e-06 -1.529644e-06 -1.813763e-06 -1.165115e-06 -1.621762e-06 -9.243187e-07 -1.444906e-06 -8.243316e-07 -1.224568e-06 -7.677998e-07 -1.032943e-06 -7.553638e-07 -8.412131e-07 -7.365982e-07 -6.898587e-07 -6.532304e-07 -6.099127e-07 -5.704635e-07 -5.276052e-07 -4.841345e-07 -4.462206e-07 -4.032470e-07 -3.182434e-07 -3.920541e-07 -9.486140e-08 -3.334790e-07 1.427352e-07 -2.483747e-07 4.391329e-07 -1.323895e-07 1.014520e-06 7.358327e-07 1.419422e-06 1.187122e-06 1.771445e-06 1.770150e-06 2.171490e-06 2.644459e-06 2.591036e-06 3.927272e-06 3.002601e-06 5.749319e-06 3.364908e-06 8.248761e-06 3.635107e-06 
1.062079e-05 3.644978e-06 1.405179e-05 -1.433560e-03 -1.509454e+00 -8.582685e-04 -1.508503e-05 -3.641987e-06 -1.050868e-05 -3.449893e-06 -7.488673e-06 -3.162783e-06 -5.234782e-06 -2.812839e-06 -3.601192e-06 -2.490762e-06 -2.406428e-06 -2.095192e-06 -1.626166e-06 -1.727349e-06 -1.099234e-06 -1.403826e-06 -7.425990e-07 -1.127599e-06 -5.091298e-07 -8.947741e-07 -3.477052e-07 -6.869585e-07 -2.332647e-07 -5.079123e-07 -1.519778e-07 -3.467791e-07 -8.640820e-08 -1.960215e-07 -3.469276e-08 -6.061921e-08 6.093244e-09 6.933926e-08 4.683035e-08 2.018793e-07 8.666752e-08 3.354439e-07 1.362548e-07 4.912582e-07 2.116986e-07 6.748610e-07 3.113818e-07 9.041185e-07 4.442165e-07 1.200848e-06 7.343573e-07 1.399741e-06 1.127750e-06 1.718529e-06 1.672373e-06 2.087716e-06 2.472617e-06 2.480875e-06 3.637519e-06 2.870237e-06 5.294650e-06 3.218141e-06 7.582472e-06 3.484841e-06 
1.009222e-05 3.381179e-06 1.303182e-05 -5.681514e-04 -1.375414e+00 -1.525682e-03 -1.427552e-05 -3.410251e-06 -9.973707e-06 -3.205227e-06 -7.374710e-06 -2.926301e-06 -5.336167e-06 -2.604949e-06 -3.784145e-06 -2.288400e-06 -2.632836e-06 -1.934354e-06 -1.823042e-06 -1.602654e-06 -1.255564e-06 -1.307911e-06 -8.608782e-07 -1.052846e-06 -5.920858e-07 -8.363054e-07 -4.056218e-07 -6.448912e-07 -2.728122e-07 -4.775267e-07 -1.774996e-07 -3.266145e-07 -1.032641e-07 -1.855899e-07 -4.430259e-08 -5.692370e-08 4.083056e-09 6.654062e-08 5.160341e-08 1.914476e-07 1.012697e-07 3.194183e-07 1.644576e-07 4.666663e-07 2.554251e-07 6.385598e-07 3.807362e-07 8.481426e-07 5.584590e-07 1.106138e-06 8.551263e-07 1.314444e-06 1.287743e-06 1.593482e-06 1.879441e-06 1.917476e-06 2.710018e-06 2.264277e-06 3.864231e-06 2.611235e-06 5.429581e-06 2.930891e-06 7.487388e-06 3.194715e-06 
9.156479e-06 3.121443e-06 1.171315e-05 -1.203938e-03 -1.276100e+00 -7.271921e-04 -1.260188e-05 -3.125919e-06 -9.083588e-06 -2.942985e-06 -6.724205e-06 -2.695426e-06 -4.875028e-06 -2.408531e-06 -3.472371e-06 -2.112481e-06 -2.433121e-06 -1.799523e-06 -1.695411e-06 -1.501076e-06 -1.176456e-06 -1.231605e-06 -8.137751e-07 -9.953200e-07 -5.627045e-07 -7.904880e-07 -3.867926e-07 -6.103970e-07 -2.614900e-07 -4.520031e-07 -1.703941e-07 -3.096657e-07 -1.005388e-07 -1.786021e-07 -4.479608e-08 -5.678131e-08 2.619406e-09 6.111553e-08 4.865151e-08 1.805894e-07 9.842373e-08 3.060393e-07 1.604734e-07 4.469390e-07 2.456373e-07 6.099813e-07 3.638445e-07 8.024882e-07 5.348297e-07 1.024290e-06 8.045122e-07 1.242260e-06 1.189238e-06 1.503564e-06 1.724288e-06 1.800268e-06 2.473753e-06 2.116652e-06 3.513331e-06 2.432358e-06 4.925408e-06 2.722048e-06 6.788667e-06 2.958980e-06 
8.417223e-06 2.850869e-06 1.059759e-05 -5.285009e-04 -1.141361e+00 -1.203205e-03 -1.163174e-05 -2.874173e-06 -8.340088e-06 -2.692337e-06 -6.339413e-06 -2.456188e-06 -4.716302e-06 -2.189429e-06 -3.442892e-06 -1.913822e-06 -2.473715e-06 -1.631493e-06 -1.758852e-06 -1.363693e-06 -1.240258e-06 -1.121342e-06 -8.686738e-07 -9.078157e-07 -6.054303e-07 -7.220978e-07 -4.185115e-07 -5.588630e-07 -2.841493e-07 -4.145218e-07 -1.858342e-07 -2.843740e-07 -1.106876e-07 -1.642425e-07 -5.047574e-08 -5.196923e-08 1.374186e-09 5.677658e-08 5.201968e-08 1.667592e-07 1.077532e-07 2.824520e-07 1.775692e-07 4.116054e-07 2.723905e-07 5.598182e-07 4.039568e-07 7.325323e-07 5.913988e-07 9.292743e-07 8.677771e-07 1.130184e-06 1.259846e-06 1.361876e-06 1.796546e-06 1.622750e-06 2.526256e-06 1.901988e-06 3.504378e-06 2.184289e-06 4.785949e-06 2.450515e-06 6.416413e-06 2.679470e-06 
7.471426e-06 2.536461e-06 9.336246e-06 -9.674402e-04 -1.032102e+00 -5.904834e-04 -1.006352e-05 -2.544749e-06 -7.422857e-06 -2.391523e-06 -5.643466e-06 -2.190730e-06 -4.201188e-06 -1.960854e-06 -3.071927e-06 -1.718994e-06 -2.212898e-06 -1.473357e-06 -1.577761e-06 -1.238286e-06 -1.116146e-06 -1.022972e-06 -7.845404e-07 -8.310295e-07 -5.482720e-07 -6.620771e-07 -3.797286e-07 -5.130654e-07 -2.583602e-07 -3.808933e-07 -1.692835e-07 -2.617951e-07 -1.013835e-07 -1.521879e-07 -4.685164e-08 -4.906444e-08 5.848344e-10 5.141602e-08 4.699207e-08 1.534481e-07 9.833589e-08 2.613772e-07 1.620853e-07 3.807312e-07 2.474852e-07 5.162391e-07 3.659011e-07 6.714818e-07 5.344979e-07 8.460576e-07 7.789237e-07 1.033613e-06 1.122707e-06 1.244580e-06 1.595650e-06 1.477815e-06 2.239811e-06 1.724779e-06 3.104379e-06 1.971985e-06 4.239768e-06 2.202171e-06 5.688586e-06 2.396312e-06 
6.619837e-06 2.255898e-06 8.187325e-06 -4.475740e-04 -8.971047e-01 -9.101205e-04 -9.000035e-06 -2.274254e-06 -6.569467e-06 -2.129601e-06 -5.093100e-06 -1.943783e-06 -3.866485e-06 -1.734489e-06 -2.881611e-06 -1.516527e-06 -2.114250e-06 -1.298690e-06 -1.531937e-06 -1.091766e-06 -1.098564e-06 -9.026308e-07 -7.807715e-07 -7.339638e-07 -5.502582e-07 -5.853659e-07 -3.835536e-07 -4.542139e-07 -2.622626e-07 -3.375841e-07 -1.725667e-07 -2.322148e-07 -1.039142e-07 -1.350168e-07 -4.850942e-08 -4.334601e-08 1.927358e-11 4.601561e-08 4.777770e-08 1.366560e-07 1.009377e-07 2.324168e-07 1.669389e-07 3.378981e-07 2.547787e-07 4.569953e-07 3.754776e-07 5.925374e-07 5.443578e-07 7.444386e-07 7.823639e-07 9.089998e-07 1.111743e-06 1.092357e-06 1.557057e-06 1.294443e-06 2.149845e-06 1.509508e-06 2.924985e-06 1.727622e-06 3.915400e-06 1.935450e-06 5.145087e-06 2.117184e-06 
5.667535e-06 1.918915e-06 6.969502e-06 -7.297927e-04 -7.802976e-01 -4.458431e-04 -7.523862e-06 -1.927818e-06 -5.635378e-06 -1.811564e-06 -4.364786e-06 -1.660630e-06 -3.310661e-06 -1.488397e-06 -2.466046e-06 -1.306734e-06 -1.809004e-06 -1.124340e-06 -1.310772e-06 -9.496075e-07 -9.402128e-07 -7.882723e-07 -6.685434e-07 -6.429637e-07 -4.713210e-07 -5.138073e-07 -3.285846e-07 -3.992376e-07 -2.247433e-07 -2.970433e-07 -1.479674e-07 -2.046308e-07 -8.928918e-08 -1.193631e-07 -4.192416e-08 -3.867253e-08 -3.252117e-10 4.028720e-08 4.065435e-08 1.206015e-07 8.628819e-08 2.055422e-07 1.427415e-07 2.986267e-07 2.175636e-07 4.029412e-07 3.203340e-07 5.206447e-07 4.640196e-07 6.521513e-07 6.656088e-07 7.964883e-07 9.441273e-07 9.558397e-07 1.321997e-06 1.129162e-06 1.826763e-06 1.311340e-06 2.488963e-06 1.493691e-06 3.337944e-06 1.664673e-06 4.395558e-06 1.810970e-06 
4.757959e-06 1.626869e-06 5.814217e-06 -3.415391e-04 -6.455584e-01 -6.337326e-04 -6.398503e-06 -1.640367e-06 -4.726050e-06 -1.537037e-06 -3.714190e-06 -1.404304e-06 -2.859506e-06 -1.254645e-06 -2.161594e-06 -1.098521e-06 -1.608238e-06 -9.435489e-07 -1.180430e-06 -7.962172e-07 -8.563614e-07 -6.607670e-07 -6.148032e-07 -5.390375e-07 -4.368544e-07 -4.309421e-07 -3.064763e-07 -3.350638e-07 -2.106711e-07 -2.494480e-07 -1.392708e-07 -1.719024e-07 -8.437200e-08 -1.002412e-07 -3.982070e-08 -3.235094e-08 -4.869661e-10 3.408017e-08 3.842227e-08 1.015793e-07 8.184232e-08 1.728522e-07 1.354464e-07 2.507541e-07 2.060417e-07 3.377668e-07 3.020613e-07 4.356191e-07 4.344268e-07 5.447804e-07 6.169182e-07 6.648303e-07 8.651894e-07 7.971977e-07 1.196655e-06 9.414015e-07 1.631319e-06 1.094016e-06 2.190107e-06 1.248755e-06 2.891634e-06 1.396733e-06 3.747736e-06 1.526921e-06 
3.802139e-06 1.284982e-06 4.628073e-06 -4.939713e-04 -5.230134e-01 -2.930519e-04 -5.001465e-06 -1.292389e-06 -3.782045e-06 -1.215059e-06 -2.965327e-06 -1.114802e-06 -2.277222e-06 -1.000436e-06 -1.717113e-06 -8.797583e-07 -1.274454e-06 -7.589477e-07 -9.332955e-07 -6.430625e-07 -6.756658e-07 -5.355431e-07 -4.841852e-07 -4.380840e-07 -3.434700e-07 -3.509077e-07 -2.406058e-07 -2.731985e-07 -1.652004e-07 -2.035923e-07 -1.091377e-07 -1.404476e-07 -6.614080e-08 -8.202887e-08 -3.130917e-08 -2.656363e-08 -5.755065e-10 2.784501e-08 2.981155e-08 8.322661e-08 6.371346e-08 1.417081e-07 1.055444e-07 2.054331e-07 1.606517e-07 2.762739e-07 2.357544e-07 3.555565e-07 3.395015e-07 4.438254e-07 4.827257e-07 5.410799e-07 6.780769e-07 6.476300e-07 9.401244e-07 7.624763e-07 1.285526e-06 8.825362e-07 1.731801e-06 1.002567e-06 2.294781e-06 1.115430e-06 2.984843e-06 1.212615e-06 
2.864115e-06 9.807496e-07 3.475364e-06 -2.213942e-04 -3.891200e-01 -3.658481e-04 -3.826770e-06 -9.894257e-07 -2.845908e-06 -9.279262e-07 -2.255653e-06 -8.487082e-07 -1.751829e-06 -7.592024e-07 -1.335896e-06 -6.656992e-07 -1.002375e-06 -5.729802e-07 -7.415481e-07 -4.847068e-07 -5.417935e-07 -4.032498e-07 -3.913799e-07 -3.296912e-07 -2.795365e-07 -2.640497e-07 -1.969298e-07 -2.056015e-07 -1.358337e-07 -1.532416e-07 -9.006699e-08 -1.057022e-07 -5.474909e-08 -6.168211e-08 -2.599252e-08 -1.987337e-08 -5.170616e-10 2.111781e-08 2.473382e-08 6.279551e-08 5.291534e-08 1.067490e-07 8.759988e-08 1.545731e-07 1.330420e-07 2.076485e-07 1.944676e-07 2.669457e-07 2.784154e-07 3.328970e-07 3.928668e-07 4.056033e-07 5.469855e-07 4.853743e-07 7.509172e-07 5.717305e-07 1.015718e-06 6.627683e-07 1.352454e-06 7.549679e-07 1.770464e-06 8.432155e-07 2.274948e-06 9.209900e-07 
1.907057e-06 6.433954e-07 2.310179e-06 -2.610793e-04 -2.622426e-01 -1.333290e-04 -2.497072e-06 -6.481302e-07 -1.896655e-06 -6.098222e-07 -1.497184e-06 -5.600832e-07 -1.157624e-06 -5.032673e-07 -8.786841e-07 -4.432327e-07 -6.562163e-07 -3.830899e-07 -4.832200e-07 -3.252789e-07 -3.514989e-07 -2.714591e-07 -2.528857e-07 -2.224810e-07 -1.799636e-07 -1.784965e-07 -1.263848e-07 -1.391500e-07 -8.695217e-08 -1.037915e-07 -5.754722e-08 -7.162517e-08 -3.495324e-08 -4.179790e-08 -1.663111e-08 -1.342405e-08 -4.579689e-10 1.444022e-08 1.553092e-08 4.280441e-08 3.336918e-08 7.271980e-08 5.537264e-08 1.052154e-07 8.433102e-08 1.411714e-07 1.237105e-07 1.812004e-07 1.778644e-07 2.255877e-07 2.521304e-07 2.743868e-07 3.527491e-07 3.275731e-07 4.867959e-07 3.845937e-07 6.620701e-07 4.440021e-07 8.864925e-07 5.033360e-07 1.166914e-06 5.591827e-07 1.507386e-06 6.073902e-07 
9.561656e-07 3.268453e-07 1.159559e-06 -9.489010e-05 -1.298637e-01 -1.011082e-04 -1.275202e-06 -3.307438e-07 -9.491811e-07 -3.106574e-07 -7.549555e-07 -2.846711e-07 -5.882997e-07 -2.551904e-07 -4.499898e-07 -2.242573e-07 -3.385305e-07 -1.934531e-07 -2.509771e-07 -1.639946e-07 -1.836806e-07 -1.366979e-07 -1.328690e-07 -1.119594e-07 -9.501223e-08 -8.980923e-08 -6.700866e-08 -7.001617e-08 -4.626577e-08 -5.221288e-08 -3.070225e-08 -3.598388e-08 -1.868207e-08 -2.091104e-08 -8.909124e-09 -6.573902e-09 -2.899668e-10 7.483445e-09 8.205848e-09 2.176826e-08 1.766401e-08 3.682469e-08 2.932878e-08 5.318430e-08 4.468617e-08 7.127690e-08 6.554960e-08 9.136020e-08 9.414722e-08 1.135110e-07 1.331399e-07 1.377352e-07 1.855337e-07 1.641051e-07 2.545917e-07 1.925049e-07 3.437804e-07 2.223851e-07 4.565017e-07 2.526510e-07 5.955551e-07 2.816482e-07 7.623784e-07 3.072210e-07 
2.460216e-10 -1.216746e-09 5.648225e-09 -3.110276e-05 2.250654e-04 3.125047e-05 -2.784898e-09 -3.052194e-10 1.495316e-09 -7.980677e-10 1.929505e-09 -1.331589e-09 2.350765e-09 -1.802611e-09 2.689268e-09 -2.113339e-09 2.868956e-09 -2.208829e-09 2.851074e-09 -2.122039e-09 2.646084e-09 -1.930623e-09 2.299579e-09 -1.699024e-09 1.876301e-09 -1.451464e-09 1.445774e-09 -1.179181e-09 1.061533e-09 -8.680005e-10 7.425230e-10 -5.186072e-10 4.684763e-10 -1.516213e-10 1.901060e-10 2.049289e-10 -1.461686e-10 5.384255e-10 -5.720697e-10 8.629952e-10 -1.083248e-09 1.211444e-09 -1.637384e-09 1.607732e-09 -2.164708e-09 2.026583e-09 -2.579330e-09 2.372427e-09 -2.789725e-09 2.505261e-09 -2.730171e-09 2.330438e-09 -2.411154e-09 1.891847e-09 -1.926918e-09 1.309082e-09 -1.391382e-09 6.947440e-10 -8.872342e-10 1.188001e-10 -4.518850e-10 -3.903520e-10 -8.404565e-11 -8.319932e-10 
-9.556183e-07 -3.294038e-07 -1.148360e-06 3.201915e-05 1.303151e-01 1.642758e-04 1.270046e-06 3.303238e-07 9.520896e-07 3.092065e-07 7.587836e-07 2.820741e-07 5.930438e-07 2.515545e-07 4.554810e-07 2.199239e-07 3.444169e-07 1.889080e-07 2.568205e-07 1.596405e-07 1.890744e-07 1.327467e-07 1.375132e-07 1.084725e-07 9.875235e-08 8.680252e-08 6.984678e-08 6.754290e-08 4.832386e-08 5.037215e-08 3.214145e-08 3.487754e-08 1.961398e-08 2.058697e-08 9.329825e-09 7.001753e-09 7.182096e-11 -6.372372e-09 -9.263270e-09 -2.000916e-08 -1.975456e-08 -3.436417e-08 -3.255740e-08 -4.989134e-08 -4.901313e-08 -6.706188e-08 -7.075680e-08 -8.635568e-08 -9.981340e-08 -1.082003e-07 -1.386819e-07 -1.328468e-07 -1.903833e-07 -1.602313e-07 -2.584046e-07 -1.899293e-07 -3.464719e-07 -2.211293e-07 -4.581634e-07 -2.525911e-07 -5.963498e-07 -2.826129e-07 -7.624589e-07 -3.090487e-07 