# vtk DataFile Version 2.0
Comment goes here
ASCII

DATASET STRUCTURED_POINTS
FIELD FieldData 1
TIME 1 1 double
0.01400000
DIMENSIONS    64   64   1

ORIGIN    0.000   0.000   0.000
SPACING   0.03125 0.03125   1.000

POINT_DATA   4096
SCALARS Omega double
LOOKUP_TABLE default

-4.200473e-01 5.869345e-01 -4.742910e-01 1.809670e-02 -5.110442e-01 3.661201e-01 -4.085800e-01 1.721093e-01 -4.033104e-01 1.773332e-01 -4.110662e-01 2.001318e-01 -3.853303e-01 2.296263e-01 -3.180643e-01 3.343652e-01 -2.205792e-01 4.502360e-01 -2.516371e-01 5.165057e-01 -2.603976e-01 5.229692e-01 -2.449148e-01 5.286083e-01 -2.633750e-01 5.650595e-01 -2.610750e-01 5.319877e-01 -1.978868e-01 4.629408e-01 -1.419050e-01 4.211244e-01 -1.137696e-01 3.839409e-01 -6.480779e-02 3.261911e-01 -1.311515e-04 2.649761e-01 6.757849e-02 2.172747e-01 1.067793e-01 1.900092e-01 2.199852e-01 2.747011e-02 4.133003e-01 -1.581012e-01 5.748656e-01 -2.920539e-01 6.042621e-01 -3.986756e-01 4.717065e-01 -5.338828e-01 4.405370e-01 -6.742780e-01 5.142838e-01 -7.952847e-01 6.014049e-01 -8.685264e-01 6.492241e-01 -8.912806e-01 6.703166e-01 -9.080684e-01 8.805014e-01 -1.110337e+00 
-5.184274e+00 -1.889268e+01 9.766447e+00 -1.804049e+01 6.924151e+00 -1.544437e+01 3.070258e+00 -1.098285e+01 -1.667253e+00 -6.170093e+00 -6.465985e+00 -1.932068e+00 -1.054524e+01 1.295434e+00 -1.355812e+01 3.304186e+00 -1.541961e+01 4.108181e+00 -1.591414e+01 3.720174e+00 -1.532594e+01 2.801527e+00 -1.453807e+01 2.029448e+00 -1.401934e+01 1.617178e+00 -1.389880e+01 1.614870e+00 -1.417292e+01 1.971857e+00 -1.457858e+01 2.194543e+00 -1.464455e+01 2.041303e+00 -1.438012e+01 1.590946e+00 -1.386169e+01 1.113390e+00 -1.354211e+01 1.118048e+00 -1.397071e+01 1.929519e+00 -1.482861e+01 2.457312e+00 -1.454920e+01 1.577345e+00 -1.311649e+01 3.280541e-02 -1.105574e+01 -1.882103e+00 -8.947055e+00 -2.916718e+00 -8.188116e+00 -2.433313e+00 -9.311693e+00 -3.033165e-01 -1.159494e+01 2.297887e+00 -1.391259e+01 4.425956e+00 -1.494409e+01 4.325876e+00 -1.340925e+01 2.376383e+00 
-3.020054e+00 1.623873e+01 -1.994943e+01 1.087691e+01 -8.766849e+00 8.582716e+00 -1.095115e+01 6.168050e+00 -1.246322e+01 3.771951e+00 -1.302533e+01 1.756975e+00 -1.344319e+01 4.967440e-02 -1.402581e+01 -1.476137e+00 -1.496789e+01 -2.451028e+00 -1.572740e+01 -2.568485e+00 -1.676936e+01 -2.239581e+00 -1.765328e+01 -2.082332e+00 -1.809966e+01 -2.152551e+00 -1.835545e+01 -2.198701e+00 -1.846838e+01 -2.445818e+00 -1.840283e+01 -2.619352e+00 -1.839897e+01 -2.716638e+00 -1.840257e+01 -2.696641e+00 -1.857338e+01 -2.571806e+00 -1.864952e+01 -2.757836e+00 -1.806938e+01 -3.628215e+00 -1.708365e+01 -4.226235e+00 -1.699271e+01 -3.713229e+00 -1.743096e+01 -2.990100e+00 -1.768351e+01 -1.722098e+00 -1.723643e+01 -7.532993e-01 -1.636672e+01 -8.210192e-01 -1.459435e+01 -2.141472e+00 -1.204704e+01 -3.793240e+00 -9.171637e+00 -5.578614e+00 -6.328201e+00 -6.549510e+00 -3.141684e+00 -1.212680e+01 
-6.224288e-01 1.162717e+01 -1.243777e+01 8.958289e+00 -1.837449e+00 7.175855e+00 -6.241683e+00 5.108436e+00 -6.211256e+00 2.965101e+00 -5.658213e+00 1.168019e+00 -5.122703e+00 -2.527202e-01 -4.834371e+00 -1.328240e+00 -4.922962e+00 -1.928264e+00 -5.218061e+00 -1.891006e+00 -5.863537e+00 -1.549593e+00 -6.463769e+00 -1.328021e+00 -6.793536e+00 -1.285640e+00 -6.947512e+00 -1.317305e+00 -6.947322e+00 -1.521453e+00 -6.831890e+00 -1.659667e+00 -6.813747e+00 -1.690214e+00 -6.857416e+00 -1.604565e+00 -7.033408e+00 -1.455017e+00 -7.126902e+00 -1.552058e+00 -6.751538e+00 -2.143520e+00 -6.076553e+00 -2.566777e+00 -6.047317e+00 -2.177998e+00 -6.499534e+00 -1.561718e+00 -6.998965e+00 -6.072649e-01 -7.197727e+00 4.677313e-02 -6.915321e+00 -1.024572e-01 -5.800740e+00 -1.189434e+00 -4.070635e+00 -2.531515e+00 -2.168196e+00 -3.864246e+00 -5.118658e-01 -4.409690e+00 1.097067e+00 -6.346812e+00 
-8.046355e-02 1.808455e-01 -1.587115e-01 -5.265502e-02 -1.520626e+01 -5.039740e-02 1.428458e-02 -6.041580e-04 -2.394690e-02 -6.741929e-04 -2.964737e-02 -6.171590e-04 -2.984898e-02 -2.115915e-03 -3.803331e-02 3.552549e-03 -3.151164e-02 -1.267634e-02 -3.307067e-02 -1.176551e-02 -3.857769e-02 -9.329592e-03 -4.336416e-02 -7.403893e-03 -4.419501e-02 -5.761475e-03 -4.395077e-02 -6.505126e-03 -4.509170e-02 -6.238639e-03 -4.482350e-02 -6.692837e-03 -4.491976e-02 -9.961012e-03 -4.460589e-02 -1.210305e-02 -4.432485e-02 -1.256957e-02 -4.534842e-02 -1.050129e-02 -4.371370e-02 -7.912429e-03 -4.144555e-02 -9.588136e-03 -4.124211e-02 -9.101584e-03 -4.140548e-02 -7.065132e-03 -3.659238e-02 -2.983706e-02 -2.716180e-02 -9.727776e-03 -3.930606e-02 -3.663491e-03 -3.924446e-02 1.056947e-03 -3.240526e-02 2.783483e-03 -1.867265e-02 -4.138283e-03 -5.273438e-03 -3.309346e-02 5.773940e-02 -2.829035e-02 
-3.118256e-02 -1.221149e-01 -8.584245e-02 -3.008682e-02 -1.331853e+01 -1.539802e-01 3.806210e-02 -1.648509e-02 2.558664e-02 -9.248137e-03 1.522711e-02 -6.809380e-03 8.069701e-03 -1.862771e-03 -1.246342e-02 5.183594e-02 3.701863e-02 2.286287e-02 2.433064e-02 2.268656e-02 1.945875e-02 2.446678e-02 1.629467e-02 2.680612e-02 1.465007e-02 3.232555e-02 1.578792e-02 2.985342e-02 1.605834e-02 2.807705e-02 1.871529e-02 2.447793e-02 2.009374e-02 1.774632e-02 1.907848e-02 1.698571e-02 1.792948e-02 1.762044e-02 1.573600e-02 2.011134e-02 1.502255e-02 2.668126e-02 1.555628e-02 2.432682e-02 1.388022e-02 2.488747e-02 1.136703e-02 2.623651e-02 7.435506e-03 -4.632862e-02 1.524664e-02 3.462931e-03 -4.348078e-03 5.054996e-03 -4.133301e-03 4.136023e-03 -3.689180e-03 3.735048e-03 -6.113088e-03 4.553004e-03 -1.017930e-02 1.748242e-02 1.329542e-02 9.161238e-02 
-5.311189e-02 -5.125072e-02 -8.307310e-02 2.415161e-01 -2.017102e+01 -5.301217e-01 4.369957e-02 -1.107671e-02 3.394289e-02 -8.601032e-03 2.186791e-02 -7.874709e-03 1.798716e-02 -8.220846e-03 -1.760956e-02 2.057218e+00 4.571803e+00 3.401136e+00 3.534078e+00 3.220139e+00 3.307410e+00 3.487628e+00 3.147119e+00 3.899478e+00 2.976850e+00 3.937978e+00 3.292669e+00 3.684104e+00 3.582972e+00 3.462239e+00 3.916109e+00 3.183473e+00 4.147906e+00 3.266980e+00 3.929279e+00 3.574916e+00 3.661970e+00 3.845662e+00 3.397548e+00 4.162851e+00 3.141069e+00 4.073684e+00 3.403377e+00 3.745060e+00 3.655629e+00 3.585436e+00 4.075053e+00 3.970201e+00 5.774153e+00 3.231779e+00 5.988947e-02 1.963050e-02 -1.514326e-02 7.576542e-03 -5.277986e-03 5.746686e-03 -2.033348e-03 5.965927e-03 -2.834665e-03 6.524565e-03 -7.340477e-03 1.196118e-02 -3.743020e-03 4.913346e-02 
-1.979542e-02 -1.799428e-02 -3.658423e-02 9.663670e-02 -1.824975e+01 -3.557642e-01 1.407069e-02 -1.271840e-02 2.088417e-02 -1.342256e-02 1.852750e-02 -1.861897e-02 2.882399e-02 -4.617222e-02 3.444484e-02 4.768085e+00 1.071790e+01 7.924071e+00 8.360843e+00 7.543774e+00 7.855830e+00 8.204256e+00 7.493750e+00 9.199799e+00 7.090805e+00 9.309385e+00 7.841480e+00 8.721364e+00 8.542930e+00 8.209815e+00 9.338895e+00 7.559047e+00 9.901314e+00 7.766224e+00 9.387713e+00 8.511816e+00 8.751372e+00 9.167456e+00 8.126821e+00 9.930928e+00 7.507098e+00 9.726802e+00 8.132148e+00 8.953202e+00 8.749462e+00 8.593057e+00 9.780790e+00 9.575205e+00 1.394449e+01 7.817383e+00 4.723475e-02 5.138695e-02 -2.999041e-02 1.343522e-02 -9.213258e-03 6.169876e-03 -5.617641e-03 5.575516e-03 -6.087960e-03 8.317674e-03 -6.007595e-03 1.691413e-02 -4.198890e-04 2.634981e-02 
-2.638273e-02 -3.597035e-03 -3.634581e-02 1.170049e-01 -2.262349e+01 -4.329418e-01 1.358019e-02 -1.103183e-02 2.409276e-02 -1.209454e-02 2.090667e-02 -1.739617e-02 2.649066e-02 -4.115995e-02 5.464475e-02 7.266945e-01 1.735531e+00 1.232703e+00 1.424522e+00 1.201138e+00 1.358703e+00 1.339596e+00 1.306786e+00 1.532832e+00 1.244093e+00 1.572154e+00 1.378033e+00 1.486212e+00 1.506598e+00 1.410867e+00 1.650736e+00 1.307532e+00 1.754575e+00 1.351897e+00 1.668325e+00 1.491912e+00 1.557620e+00 1.616164e+00 1.449159e+00 1.760481e+00 1.340027e+00 1.735697e+00 1.452623e+00 1.609970e+00 1.566357e+00 1.561830e+00 1.760201e+00 1.764146e+00 2.552066e+00 1.439388e+00 -1.075479e-02 2.393539e-02 -1.137691e-02 8.808819e-03 -4.681024e-03 6.282618e-03 -3.280023e-03 6.558932e-03 -4.415425e-03 8.150416e-03 -7.234196e-03 1.223815e-02 -1.050340e-02 1.777164e-02 
-7.704552e-03 3.716042e-03 -9.034886e-03 -1.840424e-03 -2.071318e+01 -2.901658e-01 -3.946723e-03 -9.929599e-03 1.006587e-02 -9.786002e-03 7.826465e-03 -4.816062e-03 -2.884571e-03 1.706029e-02 1.293392e-03 -4.767976e+00 -1.065275e+01 -7.906992e+00 -8.284739e+00 -7.529835e+00 -7.782336e+00 -8.177358e+00 -7.423620e+00 -9.155531e+00 -7.022434e+00 -9.257660e+00 -7.767581e+00 -8.667386e+00 -8.463604e+00 -8.155077e+00 -9.251705e+00 -7.506439e+00 -9.810094e+00 -7.707819e+00 -9.300929e+00 -8.444791e+00 -8.669940e+00 -9.091697e+00 -8.052349e+00 -9.843003e+00 -7.437550e+00 -9.636958e+00 -8.057570e+00 -8.863821e+00 -8.671473e+00 -8.502105e+00 -9.697112e+00 -9.484623e+00 -1.381446e+01 -7.726220e+00 -4.872411e-02 -4.365267e-02 2.118089e-02 -5.277395e-03 2.242843e-03 2.653796e-03 -2.420736e-03 5.725201e-03 -3.863999e-03 8.915018e-03 -3.753700e-03 1.324833e-02 -2.726459e-03 1.453358e-02 
-1.088274e-02 7.537386e-03 -9.932888e-03 -8.525916e-05 -2.358191e+01 -3.265153e-01 -5.281261e-03 -1.002934e-02 1.023763e-02 -7.790870e-03 6.235521e-03 -4.705684e-04 -9.767751e-03 2.539818e-02 -1.183126e-02 -2.770193e+00 -6.310870e+00 -4.649620e+00 -4.958796e+00 -4.435233e+00 -4.664012e+00 -4.838304e+00 -4.451043e+00 -5.440364e+00 -4.218367e+00 -5.512323e+00 -4.669046e+00 -5.172290e+00 -5.087862e+00 -4.873641e+00 -5.566338e+00 -4.490977e+00 -5.901953e+00 -4.621267e+00 -5.597086e+00 -5.068545e+00 -5.219813e+00 -5.462488e+00 -4.845877e+00 -5.922671e+00 -4.480278e+00 -5.803160e+00 -4.855916e+00 -5.348881e+00 -5.222370e+00 -5.138846e+00 -5.833398e+00 -5.716627e+00 -8.319212e+00 -4.700659e+00 -5.665595e-02 -3.294645e-02 2.093700e-02 -4.317964e-03 3.702099e-03 3.007159e-03 -9.727147e-04 5.907439e-03 -3.164179e-03 8.127075e-03 -5.117956e-03 1.064175e-02 -7.229595e-03 1.201631e-02 
1.042816e-03 8.974431e-03 5.769707e-03 -7.922714e-02 -2.168326e+01 -2.225967e-01 -1.509567e-02 -9.153151e-03 4.102051e-04 -7.746543e-03 4.611983e-04 -2.810654e-03 -4.385937e-03 7.351119e-03 -7.675502e-03 -6.273163e-02 -9.739742e-02 -4.965611e-02 -9.334130e-02 -5.003051e-02 -8.927917e-02 -6.185711e-02 -8.482251e-02 -7.679204e-02 -8.003084e-02 -8.866592e-02 -8.651312e-02 -8.688954e-02 -9.366610e-02 -8.521918e-02 -1.034123e-01 -7.895656e-02 -1.114419e-01 -7.669813e-02 -1.074847e-01 -8.507783e-02 -1.006833e-01 -9.393659e-02 -9.231300e-02 -1.051299e-01 -8.342122e-02 -1.129787e-01 -8.841163e-02 -1.082195e-01 -9.290909e-02 -1.098142e-01 -1.008228e-01 -1.225695e-01 -1.396812e-01 -3.470732e-02 -6.381232e-03 -7.973294e-03 4.592376e-03 -1.804351e-03 1.303476e-03 2.726034e-03 -8.862372e-04 5.708109e-03 -1.628070e-03 8.409717e-03 -1.213174e-03 1.094876e-02 -2.422829e-05 1.164987e-02 
-8.676183e-04 1.031146e-02 4.808653e-03 -8.166263e-02 -2.352321e+01 -2.412072e-01 -1.563377e-02 -1.012473e-02 8.173460e-04 -7.848838e-03 1.493868e-03 -4.271157e-03 -1.285835e-03 3.310521e-04 -3.872628e-03 -4.322097e-03 1.837989e-02 3.423602e-03 6.171671e-03 6.547671e-03 3.938778e-03 7.095643e-03 3.502984e-03 7.055208e-03 2.305763e-03 6.257250e-03 2.615057e-03 5.668974e-03 3.154819e-03 4.966912e-03 3.675593e-03 4.550241e-03 4.898598e-03 5.177517e-03 5.248278e-03 5.428354e-03 4.886645e-03 5.409992e-03 4.768467e-03 5.466935e-03 4.061276e-03 4.394088e-03 4.190241e-03 3.364596e-03 5.238217e-03 2.527287e-03 5.692023e-03 3.503788e-03 -8.211725e-04 1.108070e-02 -6.053094e-04 -3.908975e-04 1.865032e-03 1.335636e-03 6.596070e-04 3.734391e-03 -5.738681e-04 5.791250e-03 -1.517743e-03 7.710505e-03 -2.152295e-03 9.531137e-03 -2.189236e-03 1.063466e-02 
6.874073e-03 1.022656e-02 1.431109e-02 -1.294959e-01 -2.162905e+01 -1.685955e-01 -2.079156e-02 -9.769259e-03 -5.327526e-03 -8.846796e-03 -1.925557e-03 -7.387616e-03 -8.870550e-04 -4.608046e-03 -1.689996e-02 4.998991e-01 1.160835e+00 8.789073e-01 8.866432e-01 8.304242e-01 8.280340e-01 8.966651e-01 7.863893e-01 9.956067e-01 7.480948e-01 9.960406e-01 8.303554e-01 9.288180e-01 9.032006e-01 8.708638e-01 9.879930e-01 7.997192e-01 1.041066e+00 8.272516e-01 9.828660e-01 9.030397e-01 9.169087e-01 9.702390e-01 8.502870e-01 1.045949e+00 7.914153e-01 1.015717e+00 8.602139e-01 9.312306e-01 9.244215e-01 8.904119e-01 1.031469e+00 9.851495e-01 1.446025e+00 8.332856e-01 2.375434e-02 7.550303e-03 -3.006861e-03 4.404514e-03 -1.070586e-03 4.673265e-03 -4.258154e-04 6.075065e-03 1.485118e-04 7.885947e-03 1.316543e-03 9.609222e-03 3.404596e-03 1.049738e-02 
5.493816e-03 1.074783e-02 1.343836e-02 -1.340684e-01 -2.270956e+01 -1.754000e-01 -2.044113e-02 -1.072095e-02 -4.519553e-03 -9.780602e-03 6.080255e-04 -1.134018e-02 1.000378e-02 -2.188604e-02 -8.706245e-05 2.062154e+00 4.892376e+00 3.680545e+00 3.802616e+00 3.476816e+00 3.570663e+00 3.776288e+00 3.399642e+00 4.221298e+00 3.237145e+00 4.239617e+00 3.590323e+00 3.969213e+00 3.908960e+00 3.733583e+00 4.277213e+00 3.436007e+00 4.510328e+00 3.564187e+00 4.261285e+00 3.898908e+00 3.976079e+00 4.199188e+00 3.688170e+00 4.538997e+00 3.428686e+00 4.415245e+00 3.724077e+00 4.061014e+00 4.003383e+00 3.891801e+00 4.477148e+00 4.306747e+00 6.347744e+00 3.695502e+00 4.783543e-02 2.597348e-02 -1.551343e-02 8.011639e-03 -3.182363e-03 5.424498e-03 -5.639622e-04 5.989908e-03 7.150340e-05 7.318988e-03 6.878533e-04 8.761455e-03 2.161806e-03 9.947876e-03 
1.045594e-02 1.019408e-02 1.927970e-02 -1.604712e-01 -2.081405e+01 -1.242153e-01 -2.296669e-02 -1.034849e-02 -8.375628e-03 -1.072063e-02 -1.475394e-03 -1.532614e-02 1.124448e-02 -3.659813e-02 2.798003e-02 1.273854e+00 3.098899e+00 2.292693e+00 2.450294e+00 2.180271e+00 2.311817e+00 2.387471e+00 2.205908e+00 2.687556e+00 2.102894e+00 2.712916e+00 2.331645e+00 2.548944e+00 2.540816e+00 2.405877e+00 2.781753e+00 2.219902e+00 2.936214e+00 2.307967e+00 2.776590e+00 2.531294e+00 2.591429e+00 2.732537e+00 2.404230e+00 2.959824e+00 2.233315e+00 2.886529e+00 2.424441e+00 2.661705e+00 2.606041e+00 2.559227e+00 2.917754e+00 2.844987e+00 4.166180e+00 2.436428e+00 1.391095e-02 3.174962e-02 -1.319250e-02 1.016869e-02 -2.940784e-03 6.173783e-03 1.407575e-04 6.197333e-03 1.712816e-03 7.324893e-03 3.493129e-03 8.633789e-03 6.193445e-03 9.642403e-03 
9.254832e-03 1.030821e-02 1.837343e-02 -1.655047e-01 -2.130936e+01 -1.230745e-01 -2.223379e-02 -1.026007e-02 -8.687370e-03 -8.900992e-03 -4.664998e-03 -7.822030e-03 -4.265802e-03 -4.630547e-03 1.896101e-02 -1.883288e+00 -4.386616e+00 -3.326714e+00 -3.388874e+00 -3.139523e+00 -3.180002e+00 -3.399606e+00 -3.027279e+00 -3.789238e+00 -2.881759e+00 -3.800872e+00 -3.197737e+00 -3.553548e+00 -3.481894e+00 -3.338925e+00 -3.808358e+00 -3.069777e+00 -4.014977e+00 -3.178949e+00 -3.791680e+00 -3.474137e+00 -3.537134e+00 -3.738548e+00 -3.282248e+00 -4.037515e+00 -3.052130e+00 -3.926156e+00 -3.316334e+00 -3.606867e+00 -3.566806e+00 -3.453371e+00 -3.991857e+00 -3.826537e+00 -5.653387e+00 -3.259240e+00 -4.839463e-02 -9.944110e-03 8.585161e-03 2.126065e-03 2.391299e-03 4.236705e-03 1.533310e-03 5.464354e-03 1.924527e-03 6.720217e-03 3.069303e-03 8.009125e-03 5.290893e-03 9.221426e-03 
1.232351e-02 9.542687e-03 2.181156e-02 -1.765532e-01 -1.941262e+01 -8.716485e-02 -2.349421e-02 -9.100768e-03 -1.207231e-02 -7.101357e-03 -9.336655e-03 -2.572158e-03 -1.414329e-02 1.366464e-02 -5.539600e-03 -1.783991e+00 -4.258386e+00 -3.193603e+00 -3.335415e+00 -3.022981e+00 -3.136870e+00 -3.292287e+00 -2.988796e+00 -3.689724e+00 -2.848868e+00 -3.712981e+00 -3.160973e+00 -3.481939e+00 -3.442740e+00 -3.279447e+00 -3.768513e+00 -3.020530e+00 -3.974267e+00 -3.135106e+00 -3.755370e+00 -3.431871e+00 -3.504482e+00 -3.699254e+00 -3.250625e+00 -4.002599e+00 -3.022552e+00 -3.897691e+00 -3.283287e+00 -3.589155e+00 -3.528647e+00 -3.442918e+00 -3.946526e+00 -3.809649e+00 -5.609830e+00 -3.268359e+00 -4.715770e-02 -2.125236e-02 1.369213e-02 -1.462831e-03 4.216234e-03 3.116858e-03 2.807269e-03 5.012287e-03 3.484542e-03 6.410656e-03 5.218623e-03 7.662787e-03 8.045135e-03 8.730145e-03 
1.113167e-02 9.405757e-03 2.069564e-02 -1.769124e-01 -1.944932e+01 -8.514695e-02 -2.219183e-02 -9.054923e-03 -1.137478e-02 -6.958906e-03 -8.314513e-03 -3.845653e-03 -8.331611e-03 2.912278e-03 -5.454930e-03 -2.220092e-01 -5.137709e-01 -3.705945e-01 -4.176882e-01 -3.547488e-01 -3.939622e-01 -3.922873e-01 -3.752030e-01 -4.455357e-01 -3.586455e-01 -4.548327e-01 -3.977490e-01 -4.297575e-01 -4.330153e-01 -4.074696e-01 -4.746166e-01 -3.763518e-01 -5.004784e-01 -3.897203e-01 -4.731333e-01 -4.279159e-01 -4.415814e-01 -4.631131e-01 -4.088133e-01 -5.035660e-01 -3.800181e-01 -4.953428e-01 -4.123586e-01 -4.588113e-01 -4.412916e-01 -4.432941e-01 -4.914535e-01 -4.905606e-01 -7.033484e-01 -3.930540e-01 -1.108593e-02 -5.040792e-03 4.806679e-03 3.736698e-04 3.177678e-03 3.009083e-03 2.750930e-03 4.626462e-03 3.297829e-03 5.936982e-03 4.707789e-03 7.159400e-03 7.182897e-03 8.329401e-03 
1.286501e-02 8.573862e-03 2.243516e-02 -1.775273e-01 -1.755611e+01 -5.980423e-02 -2.233291e-02 -8.110054e-03 -1.313545e-02 -6.264039e-03 -1.000628e-02 -4.066855e-03 -8.230939e-03 -2.624204e-03 -1.609212e-03 -1.818903e-02 1.828027e-03 -1.587955e-03 -4.037665e-03 -1.047545e-03 -3.230060e-03 -1.339232e-03 -2.263210e-03 -1.660668e-03 -3.042828e-03 -3.466523e-03 -3.584641e-03 -3.287390e-03 -3.357799e-03 -3.385470e-03 -3.616813e-03 -2.771149e-03 -2.504681e-03 -9.854665e-04 -1.639603e-03 -9.533303e-04 -1.497130e-03 -1.181978e-03 -9.722170e-04 -1.500725e-03 -1.688045e-03 -3.512858e-03 -2.231508e-03 -3.620825e-03 -1.219648e-03 -4.665037e-03 -1.328189e-04 -5.641077e-03 -5.385540e-03 1.880957e-02 -6.015091e-03 3.483264e-04 3.106963e-03 8.721892e-04 3.389185e-03 2.757046e-03 3.512572e-03 4.281010e-03 4.415352e-03 5.558880e-03 6.170250e-03 6.705843e-03 8.906519e-03 7.734295e-03 
1.160361e-02 8.272838e-03 2.099904e-02 -1.720891e-01 -1.722430e+01 -5.923532e-02 -2.063154e-02 -8.074354e-03 -1.185557e-02 -6.446529e-03 -8.518153e-03 -5.018669e-03 -6.042139e-03 -4.709601e-03 -2.047865e-03 -1.082876e-02 2.858934e-03 -4.779831e-03 -9.768973e-05 -2.663333e-03 -3.144863e-04 -1.995495e-03 -1.456607e-04 -1.807047e-03 -6.756139e-04 -2.095604e-03 -9.229996e-04 -1.797203e-03 -7.801928e-04 -1.526813e-03 -6.073174e-04 -9.391419e-04 1.640386e-04 5.127779e-05 6.884543e-04 4.458155e-04 7.635455e-04 6.066251e-04 7.809632e-04 6.186830e-04 2.514200e-04 4.155279e-06 -8.344120e-05 -6.190276e-05 2.313803e-04 4.515524e-05 1.344131e-04 1.591461e-03 -3.053344e-03 9.961071e-03 -2.697215e-03 2.862694e-03 1.332509e-03 2.213838e-03 2.371819e-03 3.067523e-03 2.971857e-03 4.138292e-03 3.915614e-03 5.212270e-03 5.497472e-03 6.274107e-03 7.963935e-03 7.320133e-03 
1.236673e-02 7.448108e-03 2.149373e-02 -1.662081e-01 -1.534145e+01 -4.062212e-02 -1.993223e-02 -7.314639e-03 -1.244908e-02 -6.048734e-03 -9.079310e-03 -5.173522e-03 -6.133838e-03 -5.482337e-03 -2.260533e-03 -8.761343e-03 2.673129e-04 -4.511987e-03 -6.529487e-04 -2.740228e-03 -5.945554e-04 -2.032450e-03 -3.939523e-04 -1.747537e-03 -6.380607e-04 -1.887906e-03 -7.891151e-04 -1.663850e-03 -6.626313e-04 -1.380606e-03 -4.689988e-04 -8.456848e-04 8.258633e-05 -3.174704e-05 4.949690e-04 3.697842e-04 5.936837e-04 5.426334e-04 5.862218e-04 5.346063e-04 2.266780e-04 1.071414e-04 -3.375978e-06 9.283070e-05 1.589189e-04 3.472950e-04 1.948948e-05 1.901887e-03 -1.717656e-03 7.604554e-03 -1.862504e-03 3.493533e-03 1.101673e-03 2.522124e-03 2.457035e-03 3.006379e-03 3.383908e-03 3.882685e-03 4.577062e-03 4.835643e-03 6.339022e-03 5.782264e-03 8.870187e-03 6.686338e-03 
1.101030e-02 7.029129e-03 1.972532e-02 -1.563719e-01 -1.470648e+01 -4.085978e-02 -1.802493e-02 -7.130361e-03 -1.098726e-02 -6.001254e-03 -7.757140e-03 -5.281249e-03 -5.038843e-03 -5.281307e-03 -2.270202e-03 -6.295301e-03 -2.475292e-04 -4.364846e-03 -3.939310e-04 -2.948758e-03 -4.106338e-04 -2.193047e-03 -3.690049e-04 -1.823371e-03 -4.954846e-04 -1.677538e-03 -5.651857e-04 -1.428603e-03 -4.830695e-04 -1.126134e-03 -3.014791e-04 -6.967657e-04 4.869239e-05 -1.782166e-04 3.323593e-04 1.603016e-04 4.353718e-04 3.458507e-04 4.140304e-04 4.065521e-04 2.147345e-04 3.302421e-04 4.383718e-05 4.758413e-04 -1.194328e-05 9.675476e-04 -3.153711e-04 2.259058e-03 -1.238205e-03 4.648370e-03 -9.373444e-04 3.334212e-03 6.824251e-04 2.830971e-03 1.832084e-03 3.104721e-03 2.789609e-03 3.738973e-03 3.935248e-03 4.521717e-03 5.539559e-03 5.368228e-03 7.826068e-03 6.239130e-03 
1.105858e-02 6.228196e-03 1.930157e-02 -1.468405e-01 -1.284290e+01 -2.618802e-02 -1.675363e-02 -6.402544e-03 -1.087705e-02 -5.536978e-03 -7.818892e-03 -5.042849e-03 -5.168372e-03 -5.062173e-03 -2.709216e-03 -5.452525e-03 -1.209959e-03 -3.960764e-03 -8.944555e-04 -2.782242e-03 -6.831269e-04 -2.084118e-03 -5.304617e-04 -1.705643e-03 -5.287173e-04 -1.530211e-03 -5.291921e-04 -1.304186e-03 -4.349420e-04 -1.021693e-03 -2.670657e-04 -6.366545e-04 4.558667e-06 -1.879134e-04 2.316142e-04 1.268703e-04 3.268444e-04 3.064811e-04 3.156619e-04 3.714936e-04 1.804487e-04 3.488179e-04 6.115898e-05 5.143944e-04 1.378875e-05 9.948138e-04 -1.768989e-04 2.101585e-03 -6.667021e-04 3.850048e-03 -4.694935e-04 3.184333e-03 7.869041e-04 2.784403e-03 1.925224e-03 2.956076e-03 2.985785e-03 3.463669e-03 4.230611e-03 4.127317e-03 5.877742e-03 4.853618e-03 8.101785e-03 5.591570e-03 
9.614019e-03 5.714157e-03 1.725602e-02 -1.344649e-01 -1.195474e+01 -2.593694e-02 -1.472452e-02 -6.024584e-03 -9.374932e-03 -5.227586e-03 -6.620545e-03 -4.727622e-03 -4.333126e-03 -4.514146e-03 -2.409951e-03 -4.400107e-03 -1.149385e-03 -3.511208e-03 -7.127401e-04 -2.640355e-03 -5.146498e-04 -2.026317e-03 -4.115660e-04 -1.634778e-03 -3.935534e-04 -1.378046e-03 -3.776995e-04 -1.131279e-03 -3.069512e-04 -8.633419e-04 -1.789231e-04 -5.519374e-04 3.110997e-06 -2.251792e-04 1.591690e-04 3.328799e-05 2.325487e-04 2.123624e-04 2.224171e-04 3.307035e-04 1.329306e-04 4.344899e-04 2.775995e-05 6.654524e-04 -7.170497e-05 1.122898e-03 -2.487799e-04 1.901417e-03 -4.805243e-04 2.808253e-03 -2.249772e-04 2.736595e-03 5.939044e-04 2.646054e-03 1.488399e-03 2.823666e-03 2.423015e-03 3.229594e-03 3.538358e-03 3.780275e-03 5.001650e-03 4.415697e-03 6.975231e-03 5.096569e-03 
9.135060e-03 4.928441e-03 1.616165e-02 -1.231499e-01 -1.012177e+01 -1.342779e-02 -1.305443e-02 -5.261285e-03 -8.812191e-03 -4.649093e-03 -6.344354e-03 -4.265294e-03 -4.277967e-03 -4.061407e-03 -2.595543e-03 -3.844272e-03 -1.508934e-03 -3.109174e-03 -9.790999e-04 -2.377924e-03 -6.819835e-04 -1.836461e-03 -5.072221e-04 -1.475793e-03 -4.253549e-04 -1.233363e-03 -3.697096e-04 -1.010123e-03 -2.878379e-04 -7.692640e-04 -1.703914e-04 -4.934504e-04 -2.133834e-05 -2.070276e-04 1.062591e-04 2.554690e-05 1.709499e-04 1.903726e-04 1.694507e-04 3.035859e-04 1.098053e-04 4.126353e-04 3.849767e-05 6.313484e-04 -2.491117e-05 1.040848e-03 -1.210690e-04 1.694434e-03 -2.134516e-04 2.410059e-03 2.044877e-05 2.461689e-03 7.014245e-04 2.426424e-03 1.530073e-03 2.568908e-03 2.450455e-03 2.895649e-03 3.550298e-03 3.348858e-03 4.951806e-03 3.875690e-03 6.775726e-03 4.437596e-03 
7.627964e-03 4.333337e-03 1.392287e-02 -1.096842e-01 -9.020772e+00 -1.171144e-02 -1.092341e-02 -4.713087e-03 -7.303604e-03 -4.155544e-03 -5.190901e-03 -3.766937e-03 -3.472459e-03 -3.480582e-03 -2.127970e-03 -3.174904e-03 -1.230136e-03 -2.647692e-03 -7.498257e-04 -2.099887e-03 -4.946267e-04 -1.654202e-03 -3.589235e-04 -1.325457e-03 -2.936671e-04 -1.079186e-03 -2.498370e-04 -8.626506e-04 -1.919581e-04 -6.477770e-04 -1.099643e-04 -4.232211e-04 -1.066107e-05 -2.012322e-04 7.417852e-05 -9.807827e-06 1.169262e-04 1.443622e-04 1.106313e-04 2.754930e-04 6.157485e-05 4.196052e-04 -6.132258e-06 6.391429e-04 -7.798019e-05 9.785027e-04 -1.544067e-04 1.438626e-03 -1.783606e-04 1.890196e-03 2.934984e-05 2.051048e-03 5.170880e-04 2.134102e-03 1.157712e-03 2.295312e-03 1.916566e-03 2.571510e-03 2.846440e-03 2.946740e-03 4.039172e-03 3.393993e-03 5.598411e-03 3.888168e-03 
6.763292e-03 3.551437e-03 1.234947e-02 -9.772379e-02 -7.232165e+00 -3.624528e-04 -8.960592e-03 -3.905718e-03 -6.420226e-03 -3.494673e-03 -4.640000e-03 -3.197784e-03 -3.182209e-03 -2.959483e-03 -2.046702e-03 -2.682833e-03 -1.275561e-03 -2.248960e-03 -8.164599e-04 -1.796916e-03 -5.458095e-04 -1.420820e-03 -3.873890e-04 -1.138022e-03 -2.987130e-04 -9.244137e-04 -2.392056e-04 -7.381407e-04 -1.780977e-04 -5.535905e-04 -1.044603e-04 -3.611283e-04 -2.233969e-05 -1.710049e-04 4.667673e-05 -5.536353e-06 8.280249e-05 1.288018e-04 8.081246e-05 2.442875e-04 4.700234e-05 3.729140e-04 5.135554e-07 5.651494e-04 -4.437630e-05 8.549865e-04 -8.028234e-05 1.235660e-03 -6.130588e-05 1.601759e-03 1.297275e-04 1.760336e-03 5.436592e-04 1.841782e-03 1.108350e-03 1.969396e-03 1.795498e-03 2.183141e-03 2.637068e-03 2.476130e-03 3.696414e-03 2.827356e-03 5.047086e-03 3.215383e-03 
5.230045e-03 2.887850e-03 1.000714e-02 -8.408958e-02 -5.952289e+00 3.328494e-03 -6.737068e-03 -3.228621e-03 -4.920297e-03 -2.885261e-03 -3.504567e-03 -2.615998e-03 -2.367500e-03 -2.381614e-03 -1.499539e-03 -2.127036e-03 -9.055160e-04 -1.803184e-03 -5.461039e-04 -1.468436e-03 -3.414570e-04 -1.176556e-03 -2.303353e-04 -9.433781e-04 -1.728357e-04 -7.575937e-04 -1.372001e-04 -5.965595e-04 -1.012962e-04 -4.437063e-04 -5.668328e-05 -2.920969e-04 -6.953597e-06 -1.457346e-04 3.377285e-05 -1.391498e-05 5.166705e-05 1.017028e-04 4.141911e-05 2.108036e-04 6.588006e-06 3.343785e-04 -4.110838e-05 5.001322e-04 -8.899042e-05 7.238998e-04 -1.215238e-04 9.925436e-04 -9.939227e-05 1.244370e-03 4.537310e-05 1.397405e-03 3.408692e-04 1.501014e-03 7.584883e-04 1.621987e-03 1.285504e-03 1.793882e-03 1.943971e-03 2.022276e-03 2.780828e-03 2.299491e-03 3.855202e-03 2.613617e-03 
4.088607e-03 2.104596e-03 8.104351e-03 -7.214548e-02 -4.224117e+00 1.400101e-02 -4.558559e-03 -2.390566e-03 -3.800853e-03 -2.178013e-03 -2.733417e-03 -1.998464e-03 -1.869388e-03 -1.835075e-03 -1.207613e-03 -1.646224e-03 -7.495050e-04 -1.402419e-03 -4.621791e-04 -1.146398e-03 -2.917598e-04 -9.200413e-04 -1.954164e-04 -7.379592e-04 -1.432170e-04 -5.928058e-04 -1.107821e-04 -4.670143e-04 -8.065765e-05 -3.467980e-04 -4.571781e-05 -2.265735e-04 -8.339826e-06 -1.099272e-04 2.139246e-05 -4.668735e-06 3.335061e-05 8.738759e-05 2.359334e-05 1.741709e-04 -4.757257e-06 2.731714e-04 -4.227579e-05 4.063365e-04 -7.796392e-05 5.849379e-04 -9.791872e-05 7.957216e-04 -7.254245e-05 9.893183e-04 4.499541e-05 1.106754e-03 2.784275e-04 1.178729e-03 6.124787e-04 1.256001e-03 1.036947e-03 1.367724e-03 1.563498e-03 1.520892e-03 2.221384e-03 1.710634e-03 3.049055e-03 1.928004e-03 
2.573038e-03 1.385866e-03 5.745776e-03 -5.887527e-02 -2.794728e+00 1.983772e-02 -2.265722e-03 -1.623033e-03 -2.334099e-03 -1.498204e-03 -1.628775e-03 -1.375291e-03 -1.065810e-03 -1.259723e-03 -6.424771e-04 -1.128327e-03 -3.546398e-04 -9.687494e-04 -1.807561e-04 -8.009368e-04 -8.716955e-05 -6.481505e-04 -4.402723e-05 -5.206889e-04 -2.880875e-05 -4.160047e-04 -2.411212e-05 -3.249961e-04 -1.825162e-05 -2.395620e-04 -6.854087e-06 -1.560041e-04 7.553244e-06 -7.553581e-05 1.744341e-05 -1.349099e-06 1.506282e-05 6.651405e-05 -3.403795e-06 1.335296e-04 -3.657253e-05 2.101613e-04 -7.828436e-05 3.078663e-04 -1.195670e-04 4.306984e-04 -1.476555e-04 5.678532e-04 -1.411482e-04 6.913309e-04 -7.270477e-05 7.732213e-04 7.108251e-05 8.249205e-04 2.838096e-04 8.731835e-04 5.596064e-04 9.380792e-04 9.045872e-04 1.028244e-03 1.336990e-03 1.144182e-03 1.882988e-03 1.282339e-03 
1.240872e-03 6.037574e-04 3.632552e-03 -4.732581e-02 -1.145346e+00 2.999932e-02 6.017877e-05 -7.735248e-04 -1.045834e-03 -7.724326e-04 -6.938348e-04 -7.401281e-04 -4.099935e-04 -7.052340e-04 -1.990577e-04 -6.500582e-04 -6.252385e-05 -5.668570e-04 1.093848e-05 -4.709303e-04 4.044904e-05 -3.808665e-04 4.341884e-05 -3.059241e-04 3.333826e-05 -2.451886e-04 2.085331e-05 -1.921658e-04 1.301949e-05 -1.408289e-04 1.188012e-05 -8.875241e-05 1.455681e-05 -3.757505e-05 1.470077e-05 9.466782e-06 5.899051e-06 5.168683e-05 -1.526728e-05 9.302214e-05 -4.818728e-05 1.414788e-04 -8.859542e-05 2.054827e-04 -1.299887e-04 2.870255e-04 -1.631821e-04 3.759290e-04 -1.736166e-04 4.492658e-04 -1.436677e-04 4.856246e-04 -6.520321e-05 4.918663e-04 5.559362e-05 4.881254e-04 2.105363e-04 4.909202e-04 3.979472e-04 5.083064e-04 6.238215e-04 5.418493e-04 8.996797e-04 5.898546e-04 
-2.062133e-04 -1.562611e-04 1.342963e-03 -3.472936e-02 4.076908e-01 3.797491e-02 2.380364e-03 5.346264e-05 3.490292e-04 -5.222284e-05 3.438695e-04 -9.750191e-05 3.415874e-04 -1.334999e-04 3.321171e-04 -1.501026e-04 3.083222e-04 -1.442148e-04 2.702610e-04 -1.240723e-04 2.234008e-04 -1.005824e-04 1.741472e-04 -8.033572e-05 1.280232e-04 -6.428520e-05 8.941477e-05 -4.993493e-05 6.073672e-05 -3.458732e-05 4.140856e-05 -1.732506e-05 2.776813e-05 6.661148e-07 1.409201e-05 1.744816e-05 -5.245124e-06 3.247043e-05 -3.374276e-05 4.768176e-05 -7.191375e-05 6.698596e-05 -1.174680e-04 9.385469e-05 -1.661169e-04 1.275668e-04 -2.117129e-04 1.604651e-04 -2.459236e-04 1.788585e-04 -2.606930e-04 1.709882e-04 -2.546620e-04 1.385151e-04 -2.353491e-04 9.156336e-05 -2.132971e-04 4.043878e-05 -1.968304e-04 -8.184316e-06 -1.902843e-04 -5.124206e-05 -1.943506e-04 -8.783692e-05 
-1.658991e-03 -9.281944e-04 -8.834923e-04 -2.379870e-02 1.957503e+00 4.760423e-02 4.786900e-03 8.935768e-04 1.746280e-03 6.700252e-04 1.386526e-03 5.353876e-04 1.101694e-03 4.166726e-04 8.737303e-04 3.220663e-04 6.873187e-04 2.538494e-04 5.325633e-04 2.056211e-04 4.042026e-04 1.684405e-04 2.990301e-04 1.362779e-04 2.147428e-04 1.073755e-04 1.495695e-04 8.271638e-05 1.014171e-04 6.348596e-05 6.687383e-05 4.941328e-05 4.091323e-05 3.850269e-05 1.748482e-05 2.815818e-05 -9.067589e-06 1.692461e-05 -4.265105e-05 5.406015e-06 -8.489207e-05 -4.247336e-06 -1.354140e-04 -1.040495e-05 -1.925911e-04 -1.500320e-05 -2.539380e-04 -2.557739e-05 -3.162969e-04 -5.409737e-05 -3.778662e-04 -1.104908e-04 -4.426338e-04 -1.943839e-04 -5.221248e-04 -2.982240e-04 -6.318322e-04 -4.135026e-04 -7.874462e-04 -5.339784e-04 -1.003059e-03 -6.559177e-04 -1.290630e-03 -7.771070e-04 