# vtk DataFile Version 2.0
Comment goes here
ASCII

DATASET STRUCTURED_POINTS
FIELD FieldData 1
TIME 1 1 double
0.02500000
DIMENSIONS    64   64   1

ORIGIN    0.000   0.000   0.000
SPACING   0.03125 0.03125   1.000

POINT_DATA   4096
SCALARS Omega double
LOOKUP_TABLE default

6.008202e-02 -7.337327e-02 -5.576111e-01 -2.608432e-01 -5.914189e-01 5.255914e-01 -4.524057e-01 -4.437585e-03 -3.779725e-01 -9.142755e-02 -2.998096e-01 -1.350465e-01 -1.988749e-01 -1.133406e-01 -1.226549e-02 1.889392e-02 3.267936e-01 4.200859e-02 4.994702e-01 2.843985e-02 5.346895e-01 8.618926e-02 5.225877e-01 8.974338e-02 5.830716e-01 -3.650237e-03 6.729863e-01 -5.934598e-02 6.893448e-01 -6.085651e-02 6.961027e-01 -3.951818e-02 6.308293e-01 6.458427e-02 5.094339e-01 1.651577e-01 4.281402e-01 2.560568e-01 3.623781e-01 3.402152e-01 3.081892e-01 4.104030e-01 2.615307e-01 4.455615e-01 2.820960e-01 3.717594e-01 3.068725e-01 3.253660e-01 2.123300e-01 2.216281e-01 -1.243539e-01 6.857846e-02 -3.259094e-01 -1.774242e-02 -4.003044e-01 -3.542038e-02 -4.528347e-01 4.603090e-03 -4.927837e-01 3.663255e-02 -4.920552e-01 3.634485e-02 -5.214194e-01 1.097581e-01 
-3.006396e+00 -2.195177e+01 3.422639e+00 -2.183639e+01 3.255538e+00 -2.239395e+01 2.477755e+00 -2.111457e+01 3.298136e-01 -1.889559e+01 -3.400873e+00 -1.493054e+01 -8.483912e+00 -1.014481e+01 -1.433112e+01 -4.909793e+00 -2.074693e+01 7.767784e-01 -2.680680e+01 5.576027e+00 -3.091330e+01 7.971387e+00 -3.237995e+01 7.990921e+00 -3.163580e+01 6.616930e+00 -3.034412e+01 5.502852e+00 -2.957683e+01 5.070570e+00 -2.953716e+01 5.357760e+00 -2.994226e+01 5.605300e+00 -2.981906e+01 5.159089e+00 -2.911902e+01 4.237093e+00 -2.781383e+01 2.519183e+00 -2.570406e+01 3.977696e-01 -2.393643e+01 -3.811227e-01 -2.428956e+01 1.225522e+00 -2.648837e+01 4.071164e+00 -2.898750e+01 6.945369e+00 -3.084565e+01 9.319047e+00 -3.171889e+01 9.821017e+00 -3.043119e+01 7.798656e+00 -2.669783e+01 3.157903e+00 -2.078120e+01 -3.108057e+00 -1.371511e+01 -1.019166e+01 -4.732489e+00 -1.778815e+01 
-1.701608e+01 3.713069e+00 -1.897335e+01 5.770893e+00 -5.669722e+00 5.980572e+00 -1.816634e+01 5.941940e+00 -2.476944e+01 5.573705e+00 -2.853363e+01 4.123702e+00 -3.066284e+01 2.108634e+00 -3.218175e+01 -6.524345e-01 -3.350686e+01 -3.851830e+00 -3.301286e+01 -6.338565e+00 -3.278967e+01 -7.491306e+00 -3.358553e+01 -7.144868e+00 -3.547695e+01 -5.900896e+00 -3.722588e+01 -5.095427e+00 -3.822734e+01 -4.800946e+00 -3.857598e+01 -5.157009e+00 -3.816895e+01 -5.778733e+00 -3.790761e+01 -5.957416e+00 -3.792739e+01 -5.996729e+00 -3.819881e+01 -5.416407e+00 -3.921247e+01 -4.145644e+00 -4.032687e+01 -3.408154e+00 -3.990111e+01 -4.171605e+00 -3.797990e+01 -5.556678e+00 -3.550977e+01 -6.323673e+00 -3.196363e+01 -6.509624e+00 -2.912976e+01 -6.365696e+00 -2.768340e+01 -5.486594e+00 -2.732402e+01 -3.482101e+00 -2.776229e+01 -8.014116e-01 -2.804660e+01 2.401432e+00 -3.097745e+01 6.238474e+00 
-8.072821e+00 6.357619e+00 -1.118052e+01 6.824733e+00 -8.695100e+00 7.695311e+00 -9.756355e+00 7.060011e+00 -1.301290e+01 6.178193e+00 -1.443057e+01 4.526192e+00 -1.468774e+01 2.579214e+00 -1.438412e+01 3.094086e-01 -1.372277e+01 -2.339009e+00 -1.228874e+01 -4.327642e+00 -1.133495e+01 -5.226642e+00 -1.142235e+01 -4.984352e+00 -1.247417e+01 -4.081911e+00 -1.358452e+01 -3.488569e+00 -1.424866e+01 -3.291610e+00 -1.444752e+01 -3.566315e+00 -1.419795e+01 -3.960774e+00 -1.411696e+01 -3.978580e+00 -1.426437e+01 -3.805991e+00 -1.463153e+01 -3.157327e+00 -1.551703e+01 -2.079602e+00 -1.639662e+01 -1.549037e+00 -1.612169e+01 -2.268922e+00 -1.477444e+01 -3.560897e+00 -1.309575e+01 -4.679149e+00 -1.103081e+01 -5.240553e+00 -9.474148e+00 -5.268969e+00 -8.939337e+00 -4.438580e+00 -9.375785e+00 -2.534089e+00 -1.062763e+01 3.354293e-03 -1.202799e+01 2.885643e+00 -1.508208e+01 6.598683e+00 
-1.632869e-01 4.771125e-01 -5.535191e-01 -1.079614e-01 -2.246361e+01 -2.613195e-01 1.574884e-01 -3.193874e-02 -9.512829e-02 -2.872535e-02 -1.670719e-01 -1.672362e-02 -1.808478e-01 5.723821e-03 -2.390631e-01 1.004593e-01 -1.426321e-01 -9.438215e-02 -1.090034e-01 -5.074475e-02 -1.411582e-01 -5.909300e-02 -1.453418e-01 -6.621928e-02 -1.373178e-01 -5.159024e-02 -1.346417e-01 -4.293310e-02 -1.455702e-01 -2.942574e-02 -1.533066e-01 -2.122623e-02 -1.690487e-01 -3.281238e-02 -1.707058e-01 -3.974879e-02 -1.618560e-01 -4.948394e-02 -1.538732e-01 -6.015634e-02 -1.356101e-01 -5.237429e-02 -1.308786e-01 -4.517052e-02 -1.488766e-01 -1.804061e-02 -2.073857e-01 5.787575e-02 -1.979598e-01 -1.622011e-01 -8.004669e-02 6.128318e-03 -1.555049e-01 -1.776110e-03 -1.326236e-01 -2.945155e-02 -9.956367e-02 -4.687002e-02 -7.213887e-02 -4.998997e-02 -5.753617e-02 -5.003326e-02 -3.841273e-02 1.373227e-01 
-1.103747e-01 -1.513589e-01 -3.502645e-01 -4.008961e-01 -2.541927e+01 -2.216069e-01 2.719309e-01 -9.831771e-02 1.662801e-01 -5.765114e-02 1.007747e-01 -4.302343e-02 5.804836e-02 5.441481e-03 -1.346179e-01 4.215899e-01 2.751841e-01 6.355246e-02 1.198655e-01 1.265608e-01 7.756342e-02 1.240113e-01 6.537362e-02 1.219379e-01 6.073790e-02 1.510861e-01 6.987612e-02 1.357153e-01 6.984921e-02 1.258246e-01 8.509521e-02 1.012149e-01 9.028890e-02 5.954678e-02 8.786184e-02 5.617910e-02 8.536349e-02 5.496434e-02 7.250839e-02 5.970026e-02 6.613419e-02 9.563019e-02 6.738680e-02 8.244490e-02 6.192712e-02 8.333786e-02 8.625262e-03 2.433838e-01 -4.431884e-03 -4.992258e-01 1.524694e-01 4.523639e-02 -1.910838e-02 4.917865e-02 -2.972673e-02 3.107632e-02 -2.804388e-02 2.298075e-02 -3.690036e-02 2.114061e-02 -6.002192e-02 3.463720e-02 -7.889314e-02 2.254221e-01 
-1.769520e-01 -3.784158e-02 -3.463683e-01 -5.026252e-01 -3.234494e+01 -4.122205e-01 2.557985e-01 -7.655860e-02 1.869986e-01 -6.234181e-02 1.303675e-01 -6.445126e-02 1.296154e-01 -6.399610e-02 -2.096584e-01 3.303056e+00 1.042076e+01 8.054385e+00 6.495316e+00 6.103689e+00 6.733040e+00 7.533730e+00 6.491233e+00 8.270611e+00 6.301203e+00 8.110987e+00 6.977248e+00 7.574074e+00 7.540509e+00 7.082657e+00 8.248414e+00 6.519518e+00 8.477191e+00 6.883475e+00 7.911848e+00 7.410058e+00 7.399366e+00 7.945932e+00 6.850152e+00 8.533573e+00 6.560514e+00 8.289883e+00 7.209081e+00 7.677199e+00 7.745012e+00 6.477001e+00 7.190719e+00 6.915964e+00 1.098335e+01 7.793609e+00 6.176556e-01 2.432183e-01 -1.200869e-01 6.726261e-02 -4.718412e-02 3.843871e-02 -3.248670e-02 3.006403e-02 -4.220533e-02 3.083634e-02 -6.828446e-02 4.782853e-02 -1.076468e-01 1.282793e-01 
-1.031472e-01 2.478116e-02 -1.664781e-01 -6.217164e-01 -3.352481e+01 -2.346601e-01 1.346333e-01 -9.972427e-02 1.442949e-01 -9.697508e-02 1.321109e-01 -1.538384e-01 2.307674e-01 -4.020439e-01 2.148179e-01 7.136233e+00 2.322401e+01 1.744575e+01 1.485296e+01 1.351222e+01 1.573938e+01 1.702155e+01 1.523938e+01 1.890519e+01 1.477081e+01 1.868534e+01 1.633687e+01 1.753724e+01 1.771254e+01 1.649365e+01 1.938450e+01 1.523455e+01 1.999765e+01 1.613847e+01 1.868982e+01 1.745849e+01 1.748797e+01 1.879920e+01 1.623157e+01 2.026482e+01 1.549040e+01 1.976358e+01 1.702570e+01 1.837061e+01 1.834835e+01 1.550397e+01 1.728042e+01 1.694330e+01 2.698760e+01 1.933545e+01 4.119701e-01 4.923852e-01 -2.802562e-01 1.029198e-01 -7.972065e-02 4.600647e-02 -3.974261e-02 3.724125e-02 -4.021610e-02 4.344528e-02 -5.541699e-02 6.509203e-02 -7.458885e-02 1.047773e-01 
-1.211882e-01 5.073500e-02 -1.475574e-01 -6.259346e-01 -3.784124e+01 -3.900859e-01 9.916050e-02 -8.882877e-02 1.391568e-01 -8.704800e-02 1.318810e-01 -1.273190e-01 1.924297e-01 -3.150585e-01 4.271717e-01 6.413997e-01 3.015142e+00 1.863767e+00 2.413021e+00 1.543860e+00 2.583105e+00 2.256995e+00 2.542670e+00 2.721808e+00 2.492509e+00 2.834292e+00 2.766844e+00 2.755283e+00 3.031564e+00 2.672312e+00 3.342629e+00 2.527626e+00 3.481311e+00 2.737045e+00 3.275395e+00 3.026394e+00 3.071882e+00 3.319605e+00 2.858356e+00 3.637854e+00 2.723491e+00 3.622176e+00 3.007878e+00 3.443808e+00 3.271360e+00 2.997253e+00 3.126911e+00 3.447653e+00 5.243208e+00 3.799326e+00 -1.159732e-01 2.243345e-01 -9.401039e-02 7.279084e-02 -3.852966e-02 4.445593e-02 -3.074756e-02 3.963592e-02 -4.075949e-02 4.461692e-02 -6.137133e-02 5.898463e-02 -8.952171e-02 7.799447e-02 
-5.792374e-02 6.663694e-02 -2.819570e-02 -7.220677e-01 -3.781999e+01 -2.299464e-01 2.005243e-02 -8.469024e-02 7.264788e-02 -6.189469e-02 5.208682e-02 -2.163172e-03 -4.614545e-02 2.012223e-01 6.513817e-02 -7.319699e+00 -2.325842e+01 -1.764988e+01 -1.462371e+01 -1.375254e+01 -1.556829e+01 -1.715700e+01 -1.507586e+01 -1.895864e+01 -1.461026e+01 -1.869080e+01 -1.617472e+01 -1.749927e+01 -1.754384e+01 -1.643051e+01 -1.919391e+01 -1.515455e+01 -1.980796e+01 -1.602173e+01 -1.850863e+01 -1.731316e+01 -1.732006e+01 -1.861615e+01 -1.609008e+01 -2.003663e+01 -1.535818e+01 -1.952106e+01 -1.688413e+01 -1.810287e+01 -1.818577e+01 -1.520199e+01 -1.716991e+01 -1.676600e+01 -2.669891e+01 -1.894794e+01 -3.767441e-01 -4.116752e-01 2.145805e-01 -3.291554e-02 3.675388e-02 2.195422e-02 -9.157995e-03 3.792608e-02 -2.660316e-02 5.048474e-02 -3.938066e-02 6.656583e-02 -5.006448e-02 8.000597e-02 
-6.138046e-02 7.054109e-02 -1.206207e-02 -7.086752e-01 -4.044335e+01 -3.393727e-01 -1.005099e-02 -8.182280e-02 5.495491e-02 -5.149340e-02 2.780442e-02 1.884414e-02 -9.682037e-02 2.230796e-01 -4.829992e-02 -3.751680e+00 -1.346646e+01 -1.006632e+01 -8.920974e+00 -7.734614e+00 -9.290265e+00 -9.862541e+00 -9.018590e+00 -1.105453e+01 -8.789068e+00 -1.097543e+01 -9.744352e+00 -1.035734e+01 -1.057028e+01 -9.766781e+00 -1.159288e+01 -9.050340e+00 -1.195161e+01 -9.631468e+00 -1.118047e+01 -1.043790e+01 -1.046901e+01 -1.126723e+01 -9.704700e+00 -1.217746e+01 -9.292666e+00 -1.189206e+01 -1.022904e+01 -1.109900e+01 -1.103621e+01 -9.446128e+00 -1.030737e+01 -1.011127e+01 -1.609772e+01 -1.187750e+01 -5.850621e-01 -3.641717e-01 2.033718e-01 -3.606630e-02 4.136145e-02 1.856898e-02 -5.641441e-03 3.598708e-02 -2.619467e-02 4.728400e-02 -4.188065e-02 5.949695e-02 -5.533317e-02 7.025739e-02 
-1.147243e-02 7.355089e-02 6.518195e-02 -7.720579e-01 -3.959048e+01 -2.053906e-01 -5.509336e-02 -7.788375e-02 6.645286e-03 -5.404851e-02 9.715434e-04 -1.106176e-02 -4.178335e-02 5.955647e-02 -4.630811e-02 -2.840582e-01 -2.532028e-01 9.320266e-02 -2.725877e-01 1.153013e-02 -2.426833e-01 -6.026481e-02 -2.279118e-01 -1.170206e-01 -2.109192e-01 -1.904511e-01 -2.199171e-01 -2.031169e-01 -2.315659e-01 -2.118210e-01 -2.602882e-01 -1.926694e-01 -2.821550e-01 -1.733434e-01 -2.730369e-01 -1.994900e-01 -2.570619e-01 -2.322187e-01 -2.278496e-01 -2.766496e-01 -2.000951e-01 -3.370238e-01 -2.119133e-01 -3.326617e-01 -2.214328e-01 -3.238247e-01 -1.724989e-01 -5.020487e-01 -3.509712e-01 2.158472e-01 -5.769003e-02 -8.342548e-02 3.886064e-02 -2.153704e-02 1.613040e-02 1.611196e-02 -3.250729e-03 3.594201e-02 -1.405333e-02 5.028174e-02 -1.986357e-02 6.344510e-02 -2.028484e-02 7.321247e-02 
-1.106723e-02 7.319445e-02 7.639383e-02 -7.531863e-01 -4.099608e+01 -2.812326e-01 -7.345102e-02 -8.107054e-02 -1.676797e-03 -5.712028e-02 1.721787e-03 -2.745256e-02 -1.771660e-02 6.788132e-03 -3.037635e-02 -5.853879e-02 1.525308e-01 3.595222e-02 8.404137e-03 4.611046e-02 1.395034e-02 4.033970e-02 1.422215e-02 3.804415e-02 7.574021e-03 2.830262e-02 7.287724e-03 2.387272e-02 1.024469e-02 1.897429e-02 1.229210e-02 1.605951e-02 2.063986e-02 2.241815e-02 2.440804e-02 2.333730e-02 2.319705e-02 2.170870e-02 2.413003e-02 2.245081e-02 1.976114e-02 1.197638e-02 1.694988e-02 5.973902e-03 2.180164e-02 -2.023275e-03 4.231632e-02 8.862619e-04 -2.296304e-02 9.021524e-02 -6.058754e-03 -5.820626e-03 1.493314e-02 5.238554e-03 5.378225e-03 2.199714e-02 -5.678627e-03 3.511052e-02 -1.447260e-02 4.653810e-02 -2.061905e-02 5.769183e-02 -2.154140e-02 6.776617e-02 
2.531443e-02 7.172630e-02 1.271319e-01 -7.865684e-01 -3.954357e+01 -1.749810e-01 -9.572236e-02 -7.981371e-02 -3.039898e-02 -6.742502e-02 -9.777870e-03 -5.729656e-02 -1.150963e-03 -3.725802e-02 -1.333401e-01 6.690449e-01 2.697025e+00 2.237904e+00 1.646538e+00 1.693904e+00 1.659517e+00 2.062259e+00 1.612377e+00 2.187514e+00 1.627019e+00 2.089939e+00 1.798535e+00 1.939802e+00 1.948509e+00 1.795169e+00 2.121400e+00 1.682548e+00 2.128264e+00 1.798297e+00 1.981361e+00 1.923688e+00 1.853943e+00 2.061021e+00 1.714071e+00 2.156929e+00 1.706566e+00 2.047171e+00 1.874852e+00 1.885994e+00 2.035248e+00 1.594933e+00 1.891893e+00 1.719003e+00 2.760501e+00 2.133848e+00 2.513110e-01 8.189801e-02 -2.878540e-02 3.089771e-02 -1.158497e-02 3.028127e-02 -5.964728e-03 3.849190e-02 -4.579188e-03 4.897613e-02 -1.888513e-03 5.965716e-02 6.320223e-03 6.869031e-02 
2.557863e-02 7.011771e-02 1.335660e-01 -7.669812e-01 -4.001064e+01 -2.228043e-01 -1.042973e-01 -8.351606e-02 -3.175237e-02 -7.590303e-02 3.310164e-03 -9.753440e-02 7.853611e-02 -1.895382e-01 -4.412318e-03 2.334220e+00 1.047758e+01 8.576866e+00 6.824386e+00 6.380146e+00 6.991306e+00 8.053963e+00 6.811842e+00 8.712895e+00 6.870742e+00 8.425521e+00 7.583870e+00 7.921740e+00 8.236805e+00 7.406036e+00 8.975034e+00 6.999638e+00 9.023574e+00 7.545263e+00 8.402908e+00 8.117532e+00 7.862393e+00 8.764054e+00 7.266600e+00 9.232887e+00 7.210417e+00 8.816080e+00 7.916041e+00 8.205963e+00 8.586468e+00 6.999225e+00 7.977639e+00 7.361761e+00 1.212573e+01 9.745180e+00 5.550351e-01 2.794359e-01 -1.518986e-01 5.475753e-02 -3.541540e-02 3.371658e-02 -9.507044e-03 3.689764e-02 -4.552433e-03 4.533072e-02 -1.769681e-03 5.501415e-02 6.133323e-03 6.465949e-02 
5.075296e-02 6.651401e-02 1.659850e-01 -7.742279e-01 -3.810740e+01 -1.402490e-01 -1.137302e-01 -8.033889e-02 -4.875730e-02 -8.144399e-02 -1.824523e-03 -1.209876e-01 9.492278e-02 -2.894913e-01 2.243557e-01 1.206517e+00 6.247570e+00 4.798881e+00 4.330327e+00 3.609673e+00 4.472296e+00 4.748972e+00 4.369211e+00 5.255792e+00 4.409196e+00 5.165745e+00 4.864331e+00 4.915766e+00 5.294596e+00 4.648663e+00 5.777486e+00 4.430968e+00 5.827943e+00 4.814201e+00 5.435731e+00 5.221886e+00 5.087891e+00 5.676761e+00 4.701256e+00 6.018434e+00 4.650675e+00 5.791955e+00 5.100819e+00 5.429539e+00 5.526131e+00 4.671692e+00 5.117885e+00 5.030631e+00 8.012817e+00 6.483111e+00 1.883785e-01 2.985450e-01 -1.213950e-01 7.551945e-02 -3.070988e-02 4.148721e-02 -4.521627e-03 3.992029e-02 5.107541e-03 4.659510e-02 1.348664e-02 5.526328e-02 2.697787e-02 6.364923e-02 
4.950692e-02 6.412404e-02 1.677824e-01 -7.513234e-01 -3.782719e+01 -1.676371e-01 -1.173285e-01 -7.506264e-02 -5.549108e-02 -6.024934e-02 -2.982458e-02 -4.261461e-02 -3.107401e-02 -6.298662e-03 1.688063e-01 -2.378153e+00 -9.505683e+00 -7.921108e+00 -6.008577e+00 -5.950414e+00 -6.212986e+00 -7.397611e+00 -6.048361e+00 -7.937466e+00 -6.102980e+00 -7.647425e+00 -6.750371e+00 -7.158292e+00 -7.333377e+00 -6.670827e+00 -7.981411e+00 -6.278981e+00 -8.018471e+00 -6.732413e+00 -7.454164e+00 -7.222263e+00 -6.973599e+00 -7.774457e+00 -6.454351e+00 -8.172421e+00 -6.412254e+00 -7.795202e+00 -7.051543e+00 -7.231233e+00 -7.646024e+00 -6.117266e+00 -7.133251e+00 -6.528993e+00 -1.082249e+01 -8.416768e+00 -5.033846e-01 -1.345575e-01 8.364501e-02 1.636924e-02 2.200475e-02 2.867352e-02 9.430684e-03 3.506191e-02 9.084579e-03 4.263488e-02 1.435710e-02 5.119967e-02 2.651118e-02 6.011708e-02 
6.598922e-02 5.928862e-02 1.864591e-01 -7.352522e-01 -3.558016e+01 -1.059000e-01 -1.220465e-01 -6.655080e-02 -7.390279e-02 -4.771508e-02 -5.937456e-02 -5.181399e-03 -1.024966e-01 1.196769e-01 -3.446821e-02 -1.915955e+00 -8.920137e+00 -7.225583e+00 -6.002279e+00 -5.383319e+00 -6.112534e+00 -6.870495e+00 -5.962865e+00 -7.492719e+00 -6.029413e+00 -7.292083e+00 -6.663724e+00 -6.892701e+00 -7.244317e+00 -6.468874e+00 -7.900519e+00 -6.128283e+00 -7.942811e+00 -6.616954e+00 -7.397546e+00 -7.133379e+00 -6.921388e+00 -7.721819e+00 -6.394648e+00 -8.159054e+00 -6.350150e+00 -7.817257e+00 -6.973831e+00 -7.299029e+00 -7.559950e+00 -6.250088e+00 -6.996713e+00 -6.557251e+00 -1.073133e+01 -8.647942e+00 -5.493402e-01 -2.464142e-01 1.284127e-01 -1.383756e-02 3.655680e-02 1.998883e-02 1.803444e-02 3.236408e-02 1.832619e-02 4.126669e-02 2.626103e-02 4.963969e-02 4.127051e-02 5.754453e-02 
6.283477e-02 5.646603e-02 1.834854e-01 -7.071634e-01 -3.470768e+01 -1.232677e-01 -1.203441e-01 -6.497630e-02 -7.294236e-02 -4.783526e-02 -5.614837e-02 -2.404785e-02 -6.165464e-02 1.939164e-02 -3.778832e-02 -3.142809e-01 -1.044729e+00 -6.899881e-01 -8.214698e-01 -5.482741e-01 -7.939097e-01 -7.525646e-01 -7.704462e-01 -8.593520e-01 -7.816589e-01 -8.764961e-01 -8.627870e-01 -8.483506e-01 -9.360866e-01 -8.119504e-01 -1.023842e+00 -7.713279e-01 -1.028316e+00 -8.275182e-01 -9.586417e-01 -9.029898e-01 -8.952356e-01 -9.898481e-01 -8.213816e-01 -1.065417e+00 -8.141547e-01 -1.051151e+00 -8.919572e-01 -9.942549e-01 -9.592223e-01 -8.748138e-01 -8.526766e-01 -9.766833e-01 -1.376799e+00 -9.456348e-01 -1.352341e-01 -6.340278e-02 3.602969e-02 -4.318370e-03 2.330920e-02 1.728064e-02 1.729347e-02 2.887399e-02 1.843634e-02 3.768079e-02 2.550343e-02 4.595746e-02 3.940926e-02 5.417243e-02 
7.253099e-02 5.119518e-02 1.915247e-01 -6.761705e-01 -3.220197e+01 -7.630931e-02 -1.194776e-01 -5.798776e-02 -8.187192e-02 -4.337659e-02 -6.459252e-02 -2.734245e-02 -5.634391e-02 -2.295610e-02 -3.662254e-03 -1.625882e-01 4.529545e-02 2.796000e-02 -4.595876e-02 -2.578422e-03 -1.326126e-02 -6.012165e-03 -9.294125e-03 -7.857080e-03 -1.626458e-02 -1.879986e-02 -1.903187e-02 -1.788723e-02 -1.754650e-02 -1.853088e-02 -1.800337e-02 -1.237986e-02 -7.660024e-03 -7.247976e-04 -3.599318e-03 -1.221819e-03 -1.949036e-03 -1.874208e-03 3.926254e-04 -5.659025e-03 -6.757169e-03 -1.877463e-02 -1.083073e-02 -1.902042e-02 -8.377773e-03 -2.235306e-02 2.108032e-02 -6.851769e-02 -1.572256e-02 1.727161e-01 -7.045484e-02 -3.175070e-03 1.825677e-02 6.398948e-04 2.272314e-02 1.582929e-02 2.138719e-02 2.692376e-02 2.474416e-02 3.566219e-02 3.362544e-02 4.346987e-02 4.887424e-02 5.070380e-02 
6.752903e-02 4.815996e-02 1.838466e-01 -6.407684e-01 -3.085017e+01 -8.950520e-02 -1.134814e-01 -5.754559e-02 -7.523973e-02 -4.537462e-02 -5.538230e-02 -3.583500e-02 -3.954891e-02 -3.680697e-02 -6.920575e-03 -8.950409e-02 3.365351e-02 -2.358427e-02 -9.807405e-03 -1.439004e-02 -2.172851e-03 -1.338158e-02 -8.845825e-04 -1.290038e-02 -4.821478e-03 -1.479433e-02 -6.765737e-03 -1.290604e-02 -6.090071e-03 -1.090537e-02 -4.622178e-03 -6.046599e-03 1.434249e-03 7.259176e-04 4.658626e-03 3.041626e-03 5.538187e-03 4.151820e-03 5.231539e-03 3.459132e-03 8.239061e-04 -8.856071e-04 -2.073251e-03 -1.259053e-03 -2.244230e-04 -1.088903e-03 9.037647e-03 2.640565e-04 -1.945203e-02 8.380729e-02 -2.985968e-02 1.998518e-02 5.012269e-03 1.228607e-02 1.397476e-02 1.818561e-02 1.740449e-02 2.568263e-02 2.227978e-02 3.301466e-02 3.103121e-02 4.023872e-02 4.535801e-02 4.741981e-02 
7.189624e-02 4.298108e-02 1.836093e-01 -6.008630e-01 -2.815094e+01 -5.218633e-02 -1.080292e-01 -5.190834e-02 -7.729367e-02 -4.285033e-02 -5.686467e-02 -3.745131e-02 -3.750820e-02 -4.225996e-02 -7.311031e-03 -7.033204e-02 9.698513e-03 -2.484439e-02 -8.162957e-03 -1.630070e-02 -3.848860e-03 -1.378551e-02 -2.382662e-03 -1.269570e-02 -4.413757e-03 -1.356474e-02 -5.672458e-03 -1.196015e-02 -4.982755e-03 -9.789755e-03 -3.436850e-03 -5.387776e-03 8.682944e-04 1.027796e-04 3.539753e-03 2.498199e-03 4.358271e-03 3.590377e-03 3.927172e-03 2.875886e-03 8.439688e-04 -3.030497e-05 -1.208944e-03 2.637348e-05 5.989724e-05 1.410073e-03 4.707747e-03 6.335600e-03 -1.153339e-02 6.089497e-02 -2.066272e-02 2.597133e-02 2.937791e-03 1.577747e-02 1.362346e-02 1.853883e-02 1.934073e-02 2.451653e-02 2.583396e-02 3.098512e-02 3.564773e-02 3.739826e-02 5.036820e-02 4.356840e-02 
6.531900e-02 3.981222e-02 1.717496e-01 -5.587989e-01 -2.640263e+01 -6.206152e-02 -9.950966e-02 -5.063151e-02 -6.874397e-02 -4.257873e-02 -4.867474e-02 -3.808303e-02 -3.052927e-02 -3.929457e-02 -1.008902e-02 -4.774355e-02 2.538836e-03 -2.839098e-02 -3.670344e-03 -1.844225e-02 -2.828290e-03 -1.443118e-02 -2.378928e-03 -1.256287e-02 -3.365028e-03 -1.173469e-02 -4.050378e-03 -1.007351e-02 -3.613285e-03 -7.891923e-03 -2.298257e-03 -4.646386e-03 3.108307e-04 -1.089692e-03 2.270247e-03 1.063549e-03 3.017491e-03 2.186872e-03 2.686230e-03 2.257914e-03 1.038101e-03 1.608146e-03 -2.915614e-04 2.537961e-03 -2.183248e-04 5.536016e-03 -2.568479e-04 1.320029e-02 -9.742997e-03 3.545058e-02 -1.053508e-02 2.425063e-02 1.192233e-03 1.857336e-02 9.492941e-03 1.954868e-02 1.562787e-02 2.355344e-02 2.237895e-02 2.873409e-02 3.177842e-02 3.441080e-02 4.544796e-02 4.027678e-02 
6.553550e-02 3.489680e-02 1.651470e-01 -5.138796e-01 -2.356296e+01 -3.066266e-02 -9.094297e-02 -4.522012e-02 -6.699126e-02 -3.942441e-02 -4.789280e-02 -3.650237e-02 -3.040642e-02 -3.752321e-02 -1.316469e-02 -4.079583e-02 -4.915940e-03 -2.640262e-02 -5.831431e-03 -1.808658e-02 -4.247651e-03 -1.403827e-02 -3.268980e-03 -1.195599e-02 -3.453476e-03 -1.085105e-02 -3.654924e-03 -9.249819e-03 -3.112534e-03 -7.155042e-03 -1.916401e-03 -4.244839e-03 8.964584e-05 -1.181968e-03 1.666328e-03 8.109629e-04 2.308314e-03 1.876613e-03 2.055395e-03 2.037073e-03 8.814515e-04 1.811891e-03 -8.627496e-05 2.928708e-03 -1.224254e-04 5.967503e-03 -4.052047e-04 1.277943e-02 -5.894789e-03 2.837583e-02 -6.578861e-03 2.311642e-02 1.966565e-03 1.875694e-02 9.795577e-03 1.908785e-02 1.649475e-02 2.219225e-02 2.385852e-02 2.652814e-02 3.353405e-02 3.134804e-02 4.688264e-02 3.625729e-02 
5.773318e-02 3.156984e-02 1.499479e-01 -4.673185e-01 -2.148426e+01 -3.618396e-02 -8.085158e-02 -4.259809e-02 -5.798307e-02 -3.711302e-02 -4.070988e-02 -3.391755e-02 -2.575637e-02 -3.278750e-02 -1.281315e-02 -3.198384e-02 -5.564832e-03 -2.409247e-02 -4.268294e-03 -1.754086e-02 -3.152395e-03 -1.356064e-02 -2.546734e-03 -1.117145e-02 -2.557259e-03 -9.547307e-03 -2.603117e-03 -7.883336e-03 -2.214370e-03 -5.991047e-03 -1.345982e-03 -3.749521e-03 -4.372275e-05 -1.515542e-03 1.054178e-03 1.588665e-04 1.554201e-03 1.255541e-03 1.404090e-03 1.888947e-03 6.798800e-04 2.502252e-03 -9.272149e-05 4.026235e-03 -6.325392e-04 7.051213e-03 -1.663243e-03 1.235509e-02 -4.567602e-03 2.006353e-02 -3.803159e-03 1.935066e-02 1.481907e-03 1.779652e-02 7.381559e-03 1.830083e-02 1.328723e-02 2.065126e-02 2.006792e-02 2.415726e-02 2.889305e-02 2.832638e-02 4.093853e-02 3.282539e-02 
5.476777e-02 2.688030e-02 1.385670e-01 -4.199836e-01 -1.855133e+01 -8.335259e-03 -7.013320e-02 -3.691483e-02 -5.388067e-02 -3.306894e-02 -3.841084e-02 -3.065256e-02 -2.507604e-02 -2.947648e-02 -1.413317e-02 -2.785762e-02 -8.063895e-03 -2.155646e-02 -5.688924e-03 -1.610407e-02 -4.029787e-03 -1.251415e-02 -3.038268e-03 -1.024096e-02 -2.658773e-03 -8.651682e-03 -2.436557e-03 -7.095785e-03 -1.970135e-03 -5.358992e-03 -1.185578e-03 -3.363948e-03 -1.342745e-04 -1.406211e-03 7.515959e-04 9.629503e-05 1.170137e-03 1.102622e-03 1.071884e-03 1.732606e-03 5.463751e-04 2.410439e-03 -2.492130e-05 3.874448e-03 -4.332726e-04 6.605433e-03 -1.122436e-03 1.107240e-02 -2.722728e-03 1.695681e-02 -1.924852e-03 1.735466e-02 2.297583e-03 1.649749e-02 7.594648e-03 1.690933e-02 1.331820e-02 1.876861e-02 1.997525e-02 2.161609e-02 2.843028e-02 2.502660e-02 3.960528e-02 2.867917e-02 
4.611181e-02 2.333916e-02 1.209730e-01 -3.710857e-01 -1.619944e+01 -8.514103e-03 -5.878883e-02 -3.305560e-02 -4.474748e-02 -2.946335e-02 -3.154144e-02 -2.687455e-02 -2.055834e-02 -2.494888e-02 -1.196561e-02 -2.266900e-02 -6.744800e-03 -1.842126e-02 -4.268655e-03 -1.430520e-02 -2.870370e-03 -1.122633e-02 -2.125766e-03 -9.062529e-03 -1.822368e-03 -7.438076e-03 -1.646971e-03 -5.968293e-03 -1.334067e-03 -4.471260e-03 -8.068365e-04 -2.897006e-03 -1.231882e-04 -1.388565e-03 4.655856e-04 -1.393966e-04 7.487355e-04 8.274733e-04 6.640424e-04 1.626111e-03 2.678943e-04 2.548328e-03 -2.512026e-04 4.017646e-03 -7.878006e-04 6.324477e-03 -1.480430e-03 9.557192e-03 -2.253034e-03 1.308596e-02 -1.337185e-03 1.419465e-02 1.623143e-03 1.438322e-02 5.646399e-03 1.505895e-02 1.036377e-02 1.660867e-02 1.606188e-02 1.892742e-02 2.335801e-02 2.180060e-02 3.300066e-02 2.500796e-02 
4.075959e-02 1.878460e-02 1.061365e-01 -3.230467e-01 -1.321772e+01 1.707251e-02 -4.649432e-02 -2.704718e-02 -3.893792e-02 -2.480934e-02 -2.784051e-02 -2.284875e-02 -1.860924e-02 -2.123769e-02 -1.149293e-02 -1.918358e-02 -7.056071e-03 -1.575303e-02 -4.595942e-03 -1.238350e-02 -3.102120e-03 -9.768373e-03 -2.232779e-03 -7.878741e-03 -1.785846e-03 -6.440841e-03 -1.504601e-03 -5.148374e-03 -1.168820e-03 -3.840793e-03 -7.032413e-04 -2.481207e-03 -1.484772e-04 -1.186484e-03 3.193868e-04 -1.079246e-04 5.444812e-04 7.335077e-04 4.798688e-04 1.442732e-03 1.769311e-04 2.274534e-03 -2.189138e-04 3.568709e-03 -6.133956e-04 5.546146e-03 -1.056182e-03 8.222369e-03 -1.409583e-03 1.104291e-02 -5.404675e-04 1.219653e-02 1.913566e-03 1.251548e-02 5.389865e-03 1.307149e-02 9.608328e-03 1.425755e-02 1.473591e-02 1.604259e-02 2.120835e-02 1.826360e-02 2.958209e-02 2.073434e-02 
3.162781e-02 1.499058e-02 8.706477e-02 -2.733844e-01 -1.064447e+01 2.265343e-02 -3.404655e-02 -2.220881e-02 -2.977819e-02 -2.043130e-02 -2.100951e-02 -1.859406e-02 -1.386018e-02 -1.695387e-02 -8.456906e-03 -1.507405e-02 -4.971255e-03 -1.259494e-02 -2.981935e-03 -1.010920e-02 -1.860362e-03 -8.046921e-03 -1.271561e-03 -6.458495e-03 -1.002581e-03 -5.203965e-03 -8.559849e-04 -4.104070e-03 -6.774972e-04 -3.046253e-03 -4.084928e-04 -1.997772e-03 -8.037143e-05 -1.008824e-03 1.943270e-04 -1.462474e-04 3.059420e-04 5.894787e-04 2.089240e-04 1.279236e-03 -7.283994e-05 2.086330e-03 -4.592379e-04 3.204494e-03 -8.779734e-04 4.743779e-03 -1.278682e-03 6.643407e-03 -1.444855e-03 8.514137e-03 -7.553061e-04 9.575374e-03 9.817016e-04 1.012090e-02 3.536753e-03 1.071400e-02 6.776480e-03 1.166560e-02 1.081532e-02 1.304145e-02 1.596433e-02 1.478613e-02 2.265107e-02 1.678961e-02 
2.454570e-02 1.050478e-02 6.988045e-02 -2.257353e-01 -7.657242e+00 4.650677e-02 -2.061874e-02 -1.599000e-02 -2.265860e-02 -1.544751e-02 -1.609358e-02 -1.423870e-02 -1.069957e-02 -1.309962e-02 -6.639956e-03 -1.170659e-02 -3.995070e-03 -9.848123e-03 -2.423261e-03 -7.950844e-03 -1.509817e-03 -6.346263e-03 -1.015574e-03 -5.095812e-03 -7.781736e-04 -4.102971e-03 -6.468608e-04 -3.229857e-03 -5.027487e-04 -2.385951e-03 -2.987561e-04 -1.547772e-03 -5.845307e-05 -7.580986e-04 1.354031e-04 -7.146416e-05 2.004470e-04 5.111170e-04 1.018359e-04 1.058635e-03 -1.404673e-04 1.706974e-03 -4.630675e-04 2.609350e-03 -8.024330e-04 3.844422e-03 -1.100910e-03 5.343644e-03 -1.182581e-03 6.789731e-03 -6.295315e-04 7.633575e-03 7.196095e-04 8.031533e-03 2.735888e-03 8.396568e-03 5.319865e-03 8.990864e-03 8.529463e-03 9.887483e-03 1.256389e-02 1.105338e-02 1.771288e-02 1.240544e-02 
1.532528e-02 6.450836e-03 5.018326e-02 -1.763074e-01 -4.910916e+00 5.779072e-02 -7.278512e-03 -1.042480e-02 -1.362286e-02 -1.060816e-02 -9.357669e-03 -9.767110e-03 -5.871680e-03 -8.947076e-03 -3.300632e-03 -7.975765e-03 -1.652119e-03 -6.772258e-03 -7.250644e-04 -5.529747e-03 -2.632443e-04 -4.437573e-03 -8.790190e-05 -3.553892e-03 -7.073697e-05 -2.837411e-03 -1.042105e-04 -2.212399e-03 -1.098748e-04 -1.622233e-03 -5.873861e-05 -1.048315e-03 2.771644e-05 -5.080117e-04 8.971202e-05 -2.470738e-05 6.522818e-05 4.072485e-04 -7.846933e-05 8.347351e-04 -3.357456e-04 1.339502e-03 -6.687782e-04 2.004632e-03 -1.025704e-03 2.860783e-03 -1.336114e-03 3.841613e-03 -1.455599e-03 4.750891e-03 -1.150175e-03 5.325779e-03 -3.284707e-04 5.614475e-03 9.522667e-04 5.830976e-03 2.634303e-03 6.151428e-03 4.743304e-03 6.656712e-03 7.397201e-03 7.355634e-03 1.078390e-02 8.209639e-03 
7.068257e-03 2.011268e-03 3.159416e-02 -1.297411e-01 -1.961213e+00 7.995088e-02 6.846182e-03 -4.153939e-03 -5.545263e-03 -5.499400e-03 -3.512673e-03 -5.296111e-03 -1.785496e-03 -5.046008e-03 -5.558084e-04 -4.622615e-03 1.551675e-04 -3.976635e-03 4.697339e-04 -3.253681e-03 5.389516e-04 -2.603059e-03 4.675124e-04 -2.080020e-03 3.311120e-04 -1.661047e-03 1.948682e-04 -1.292326e-03 1.059568e-04 -9.332236e-04 7.747644e-05 -5.737398e-04 8.620271e-05 -2.323678e-04 8.202974e-05 6.831392e-05 1.386737e-05 3.297141e-04 -1.469148e-04 5.876742e-04 -3.990206e-04 9.056591e-04 -7.159971e-04 1.345376e-03 -1.059089e-03 1.923216e-03 -1.374728e-03 2.575505e-03 -1.560828e-03 3.140998e-03 -1.465382e-03 3.422754e-03 -1.032259e-03 3.439668e-03 -3.134514e-04 3.346943e-03 6.236019e-04 3.285983e-03 1.757092e-03 3.329815e-03 3.123234e-03 3.494854e-03 4.805310e-03 3.759943e-03 
-1.834553e-03 -2.283364e-03 1.207443e-02 -8.117632e-02 9.123256e-01 9.663785e-02 2.075357e-02 1.923263e-03 3.119925e-03 -3.941183e-04 2.896439e-03 -7.317541e-04 2.829987e-03 -9.815980e-04 2.686071e-03 -1.078675e-03 2.419723e-03 -1.005019e-03 2.061248e-03 -8.345370e-04 1.665834e-03 -6.545932e-04 1.274839e-03 -5.093227e-04 9.189672e-04 -3.977792e-04 6.245165e-04 -2.976233e-04 4.076146e-04 -1.900346e-04 2.640599e-04 -7.193961e-05 1.668926e-04 4.480877e-05 7.300277e-05 1.465681e-04 -6.076654e-05 2.331134e-04 -2.622366e-04 3.235649e-04 -5.375991e-04 4.506309e-04 -8.734199e-04 6.419550e-04 -1.242841e-03 8.949611e-04 -1.605094e-03 1.158524e-03 -1.896102e-03 1.331723e-03 -2.042814e-03 1.307060e-03 -2.033387e-03 1.080289e-03 -1.923323e-03 7.284983e-04 -1.791224e-03 3.386071e-04 -1.702046e-03 -3.111650e-05 -1.693411e-03 -3.538194e-04 -1.776450e-03 -6.280329e-04 
-1.078215e-02 -6.660670e-03 -7.093970e-03 -3.615011e-02 3.780864e+00 1.168378e-01 3.511065e-02 8.079646e-03 1.180272e-02 4.685859e-03 9.339024e-03 3.722843e-03 7.507476e-03 2.895021e-03 6.002404e-03 2.249226e-03 4.733199e-03 1.798093e-03 3.661383e-03 1.484452e-03 2.769389e-03 1.237582e-03 2.038551e-03 1.016819e-03 1.451789e-03 8.156684e-04 9.970673e-04 6.446125e-04 6.618726e-04 5.115548e-04 4.242801e-04 4.117466e-04 2.495981e-04 3.286595e-04 9.424390e-05 2.446958e-04 -8.340524e-05 1.533921e-04 -3.123670e-04 6.411338e-05 -6.048569e-04 -3.306276e-06 -9.584485e-04 -3.436154e-05 -1.361503e-03 -4.012061e-05 -1.794634e-03 -7.095948e-05 -2.227522e-03 -2.143126e-04 -2.632674e-03 -5.576907e-04 -3.032815e-03 -1.111779e-03 -3.508032e-03 -1.820862e-03 -4.168379e-03 -2.614629e-03 -5.128756e-03 -3.439954e-03 -6.497557e-03 -4.265465e-03 -8.374035e-03 -5.077143e-03 