# vtk DataFile Version 2.0
Comment goes here
ASCII

DATASET STRUCTURED_POINTS
FIELD FieldData 1
TIME 1 1 double
0.02800000
DIMENSIONS    64   64   1

ORIGIN    0.000   0.000   0.000
SPACING   0.03125 0.03125   1.000

POINT_DATA   4096
SCALARS Omega double
LOOKUP_TABLE default

1.134975e-03 -1.009421e+00 5.479525e-01 -1.296179e+00 5.601900e-01 -3.757900e-01 3.654157e-01 -7.962721e-01 3.018561e-01 -7.605363e-01 2.575828e-01 -6.699438e-01 2.252803e-01 -4.893286e-01 2.876440e-01 -1.936561e-01 5.498746e-01 1.311835e-02 5.321535e-01 1.371545e-01 5.211477e-01 2.274404e-01 4.390938e-01 3.431550e-01 3.175845e-01 4.453676e-01 2.086936e-01 5.318978e-01 1.256108e-01 5.737272e-01 1.278523e-01 5.490288e-01 1.506356e-01 5.547476e-01 1.275522e-01 6.278580e-01 1.966805e-02 7.927880e-01 -1.003688e-01 8.724029e-01 -9.307251e-02 8.436568e-01 -1.792613e-02 7.914310e-01 3.135706e-02 7.481118e-01 3.011040e-02 6.968150e-01 -1.532097e-02 4.916057e-01 -2.922665e-01 1.969620e-01 -4.066629e-01 3.697256e-03 -4.189723e-01 -9.279353e-02 -3.858962e-01 -1.401685e-01 -3.468258e-01 -1.663836e-01 -3.005186e-01 -1.865880e-01 -3.207569e-01 -9.885076e-03 
-2.932298e+00 -2.105189e+01 5.450770e-01 -1.942873e+01 -1.085187e+00 -1.976088e+01 -1.510940e+00 -1.886110e+01 -3.039560e+00 -1.820739e+01 -4.887001e+00 -1.629843e+01 -8.681027e+00 -1.226210e+01 -1.435041e+01 -7.190178e+00 -2.077402e+01 -2.021588e+00 -2.633363e+01 2.307068e+00 -3.059609e+01 5.368920e+00 -3.326689e+01 7.077570e+00 -3.468424e+01 7.839529e+00 -3.517802e+01 7.802793e+00 -3.500764e+01 7.429122e+00 -3.476436e+01 7.166258e+00 -3.439064e+01 6.265315e+00 -3.280279e+01 3.705996e+00 -2.959707e+01 2.272287e-01 -2.658453e+01 -1.905042e+00 -2.585491e+01 -1.184478e+00 -2.785126e+01 1.610561e+00 -3.100018e+01 5.009587e+00 -3.417291e+01 8.099615e+00 -3.625990e+01 1.012174e+01 -3.681185e+01 1.088402e+01 -3.590696e+01 9.735134e+00 -3.314219e+01 6.533391e+00 -2.854082e+01 1.304378e+00 -2.186845e+01 -5.960856e+00 -1.353092e+01 -1.423987e+01 -3.834902e+00 -2.244701e+01 
-2.291566e+01 6.066203e+00 -2.356724e+01 7.013113e+00 -7.025037e+00 7.007347e+00 -2.184861e+01 6.513469e+00 -2.889612e+01 6.451039e+00 -3.386197e+01 5.649570e+00 -3.641036e+01 3.073257e+00 -3.758411e+01 -5.717960e-01 -3.869507e+01 -4.150594e+00 -3.840957e+01 -6.643624e+00 -3.815714e+01 -8.341049e+00 -3.829641e+01 -9.160705e+00 -3.869143e+01 -9.473299e+00 -3.932791e+01 -9.227250e+00 -4.021678e+01 -8.736130e+00 -4.093930e+01 -8.582398e+00 -4.119028e+01 -8.473163e+00 -4.182057e+01 -7.430731e+00 -4.351568e+01 -5.672459e+00 -4.508467e+01 -4.674891e+00 -4.540099e+01 -5.081701e+00 -4.437500e+01 -6.278598e+00 -4.279836e+01 -7.562681e+00 -4.079152e+01 -8.559783e+00 -3.886796e+01 -8.432999e+00 -3.600347e+01 -7.280250e+00 -3.414175e+01 -5.832876e+00 -3.352241e+01 -4.072831e+00 -3.350836e+01 -1.757041e+00 -3.411127e+01 1.618278e+00 -3.495158e+01 5.763900e+00 -3.776091e+01 9.530865e+00 
-1.128188e+01 7.353978e+00 -1.288494e+01 7.015366e+00 -1.092426e+01 7.592261e+00 -1.075396e+01 7.016683e+00 -1.446484e+01 6.535341e+00 -1.689594e+01 5.543436e+00 -1.765490e+01 3.409997e+00 -1.725738e+01 6.883582e-01 -1.647964e+01 -2.126811e+00 -1.526341e+01 -4.005192e+00 -1.422800e+01 -5.261961e+00 -1.374227e+01 -5.854184e+00 -1.365154e+01 -6.055103e+00 -1.389298e+01 -5.911202e+00 -1.440743e+01 -5.632451e+00 -1.482898e+01 -5.565528e+00 -1.503811e+01 -5.404838e+00 -1.565203e+01 -4.419852e+00 -1.710303e+01 -2.849662e+00 -1.845965e+01 -1.917222e+00 -1.875565e+01 -2.239406e+00 -1.785789e+01 -3.368019e+00 -1.649058e+01 -4.685115e+00 -1.492393e+01 -5.841033e+00 -1.358157e+01 -6.421619e+00 -1.208454e+01 -5.993309e+00 -1.132842e+01 -5.030900e+00 -1.146179e+01 -3.512997e+00 -1.221257e+01 -1.319523e+00 -1.368891e+01 1.765760e+00 -1.562354e+01 5.363155e+00 -1.882930e+01 8.998127e+00 
-2.215393e-01 5.475542e-01 -7.075623e-01 -5.847614e-01 -2.453351e+01 8.775319e-02 2.596833e-01 -4.289145e-02 -9.778429e-02 -3.827149e-02 -2.101001e-01 -2.621739e-02 -2.443419e-01 8.724932e-03 -3.423716e-01 1.651302e-01 -2.113298e-01 -1.294723e-01 -1.491968e-01 -5.496910e-02 -1.925259e-01 -7.753655e-02 -1.878892e-01 -9.442837e-02 -1.733857e-01 -7.338648e-02 -1.690181e-01 -5.638912e-02 -1.818814e-01 -3.557654e-02 -1.884516e-01 -2.973169e-02 -2.077048e-01 -5.296246e-02 -2.062141e-01 -6.677115e-02 -1.945754e-01 -7.929643e-02 -1.903023e-01 -8.087690e-02 -1.785883e-01 -5.099202e-02 -1.840676e-01 -3.404156e-02 -2.058541e-01 -6.584104e-03 -2.812789e-01 8.526260e-02 -2.633248e-01 -2.426119e-01 -7.971594e-02 -4.755130e-03 -1.862669e-01 -1.751090e-02 -1.594460e-01 -5.110846e-02 -1.189940e-01 -6.427504e-02 -8.705969e-02 -5.113537e-02 -7.332008e-02 -2.992247e-02 -8.873712e-02 2.092144e-01 
-1.468391e-01 -1.169078e-01 -4.602900e-01 -7.082082e-01 -2.903375e+01 -1.013326e-01 3.938351e-01 -1.377225e-01 2.349031e-01 -8.431240e-02 1.414000e-01 -6.548598e-02 8.475746e-02 1.003831e-02 -1.972305e-01 5.876794e-01 3.985957e-01 9.354235e-02 1.685030e-01 1.896600e-01 1.027327e-01 1.746118e-01 8.684205e-02 1.673062e-01 7.847937e-02 2.071334e-01 9.177327e-02 1.871533e-01 9.375489e-02 1.740527e-01 1.175220e-01 1.330002e-01 1.240566e-01 7.036661e-02 1.212264e-01 6.321856e-02 1.157271e-01 5.889339e-02 9.485441e-02 7.214573e-02 8.676608e-02 1.348798e-01 8.922647e-02 1.241636e-01 8.274005e-02 1.111767e-01 -3.415801e-03 3.294104e-01 -1.552160e-02 -7.510858e-01 2.169760e-01 6.759084e-02 -2.607996e-02 7.145203e-02 -4.502650e-02 4.455390e-02 -4.186449e-02 3.261418e-02 -5.363833e-02 2.872235e-02 -8.650708e-02 3.809221e-02 -1.300333e-01 2.773787e-01 
-2.211506e-01 -6.471649e-03 -4.392182e-01 -8.496933e-01 -3.579576e+01 -2.961810e-01 3.550783e-01 -1.126053e-01 2.550377e-01 -9.397924e-02 1.770671e-01 -1.016880e-01 1.806349e-01 -1.001278e-01 -2.904115e-01 3.138449e+00 1.196511e+01 9.598110e+00 7.697612e+00 7.251232e+00 7.762461e+00 8.822662e+00 7.340498e+00 9.327043e+00 7.082179e+00 8.997569e+00 7.789579e+00 8.386221e+00 8.393046e+00 7.818429e+00 9.180624e+00 7.221355e+00 9.357243e+00 7.669871e+00 8.736496e+00 8.226350e+00 8.177756e+00 8.817029e+00 7.552056e+00 9.414981e+00 7.296229e+00 9.125855e+00 8.052782e+00 8.705932e+00 8.905564e+00 7.630877e+00 8.579306e+00 7.756657e+00 1.211932e+01 9.290479e+00 9.408113e-01 3.885998e-01 -1.790879e-01 9.344399e-02 -7.641725e-02 5.126191e-02 -5.372819e-02 3.925684e-02 -6.579650e-02 4.070242e-02 -9.977669e-02 6.404171e-02 -1.565795e-01 1.629984e-01 
-1.460960e-01 5.979125e-02 -2.236139e-01 -8.900022e-01 -3.803294e+01 -2.007567e-01 1.994094e-01 -1.469860e-01 2.060232e-01 -1.418789e-01 1.876165e-01 -2.296238e-01 3.312667e-01 -5.919531e-01 3.272831e-01 6.662899e+00 2.624146e+01 2.025233e+01 1.737266e+01 1.572293e+01 1.808294e+01 1.963700e+01 1.716361e+01 2.106215e+01 1.651867e+01 2.052053e+01 1.814161e+01 1.924741e+01 1.961449e+01 1.808268e+01 2.145474e+01 1.677728e+01 2.197456e+01 1.790570e+01 2.053873e+01 1.933222e+01 1.924000e+01 2.082205e+01 1.782756e+01 2.232154e+01 1.714397e+01 2.171470e+01 1.894233e+01 2.080436e+01 2.102342e+01 1.823578e+01 2.063483e+01 1.909789e+01 3.005626e+01 2.338257e+01 6.330067e-01 7.502919e-01 -4.263830e-01 1.420733e-01 -1.228022e-01 6.407475e-02 -5.960375e-02 5.232223e-02 -5.901779e-02 5.974534e-02 -8.234122e-02 8.604343e-02 -1.162193e-01 1.397836e-01 
-1.607859e-01 8.529403e-02 -1.813289e-01 -9.347502e-01 -4.209195e+01 -3.362617e-01 1.387943e-01 -1.315219e-01 1.906820e-01 -1.258583e-01 1.825418e-01 -1.814514e-01 2.708323e-01 -4.435705e-01 6.109020e-01 3.909998e-01 3.115981e+00 1.806581e+00 2.750428e+00 1.535992e+00 2.919842e+00 2.382746e+00 2.836077e+00 2.848432e+00 2.766337e+00 2.974335e+00 3.047747e+00 2.923438e+00 3.332252e+00 2.861920e+00 3.670363e+00 2.740457e+00 3.798301e+00 3.010542e+00 3.570635e+00 3.342215e+00 3.350733e+00 3.681347e+00 3.114823e+00 4.024088e+00 2.992698e+00 4.013687e+00 3.333639e+00 3.947961e+00 3.746166e+00 3.584750e+00 3.757888e+00 4.017829e+00 5.975858e+00 4.706415e+00 -1.707987e-01 3.386143e-01 -1.441135e-01 1.051556e-01 -6.075839e-02 6.232870e-02 -4.797882e-02 5.489551e-02 -6.098225e-02 6.197548e-02 -8.852802e-02 8.204391e-02 -1.265645e-01 1.083319e-01 
-8.703003e-02 1.017269e-01 -3.295923e-02 -9.829196e-01 -4.279637e+01 -2.169442e-01 3.632560e-02 -1.260489e-01 1.053011e-01 -8.677284e-02 7.550198e-02 8.562495e-03 -6.893177e-02 3.102859e-01 8.098165e-02 -6.928558e+00 -2.634695e+01 -2.059584e+01 -1.707379e+01 -1.610683e+01 -1.787688e+01 -1.987626e+01 -1.696426e+01 -2.119391e+01 -1.632745e+01 -2.058251e+01 -1.795610e+01 -1.924115e+01 -1.942452e+01 -1.803659e+01 -2.124019e+01 -1.670030e+01 -2.176801e+01 -1.777797e+01 -2.034185e+01 -1.916853e+01 -1.906074e+01 -2.060820e+01 -1.768125e+01 -2.204991e+01 -1.700291e+01 -2.142007e+01 -1.879176e+01 -2.046918e+01 -2.083498e+01 -1.783639e+01 -2.050274e+01 -1.889214e+01 -2.974257e+01 -2.286655e+01 -5.620849e-01 -6.215979e-01 3.260664e-01 -3.843379e-02 5.910497e-02 3.479009e-02 -1.166282e-02 5.478384e-02 -3.877230e-02 7.071982e-02 -5.934181e-02 9.173190e-02 -7.766097e-02 1.118658e-01 
-8.375034e-02 1.036406e-01 2.436752e-03 -9.897346e-01 -4.510746e+01 -3.155009e-01 -1.311906e-02 -1.213832e-01 7.345323e-02 -7.401366e-02 3.684798e-02 3.205681e-02 -1.383730e-01 3.210729e-01 -8.749772e-02 -3.253407e+00 -1.511183e+01 -1.160541e+01 -1.047137e+01 -8.903045e+00 -1.063703e+01 -1.130308e+01 -1.015209e+01 -1.226263e+01 -9.842461e+00 -1.201516e+01 -1.083740e+01 -1.134859e+01 -1.172248e+01 -1.069436e+01 -1.285467e+01 -9.969090e+00 -1.314631e+01 -1.070307e+01 -1.230251e+01 -1.158089e+01 -1.153139e+01 -1.251322e+01 -1.066649e+01 -1.345143e+01 -1.030289e+01 -1.310226e+01 -1.139730e+01 -1.260395e+01 -1.267562e+01 -1.117210e+01 -1.232808e+01 -1.139845e+01 -1.787565e+01 -1.441248e+01 -9.121646e-01 -5.848975e-01 3.029206e-01 -5.169581e-02 6.259432e-02 2.658235e-02 -8.489381e-03 5.081542e-02 -3.843793e-02 6.671781e-02 -6.017312e-02 8.416757e-02 -7.811480e-02 1.003587e-01 
-2.242003e-02 1.060137e-01 1.012882e-01 -1.023260e+00 -4.474362e+01 -2.009606e-01 -7.107097e-02 -1.164821e-01 1.037636e-02 -7.878467e-02 1.555343e-03 -1.581484e-02 -6.131597e-02 8.010870e-02 -6.168867e-02 -3.766814e-01 -3.190321e-01 1.844177e-01 -3.521209e-01 5.302010e-02 -3.056789e-01 -3.451610e-02 -2.832247e-01 -1.068004e-01 -2.554584e-01 -2.120438e-01 -2.615061e-01 -2.345627e-01 -2.717445e-01 -2.509247e-01 -3.081008e-01 -2.245799e-01 -3.352503e-01 -1.958941e-01 -3.248693e-01 -2.303999e-01 -3.060094e-01 -2.730026e-01 -2.672688e-01 -3.340797e-01 -2.309192e-01 -4.230489e-01 -2.436767e-01 -4.273166e-01 -2.598427e-01 -4.143527e-01 -1.913892e-01 -6.480514e-01 -4.207123e-01 3.799862e-01 -7.860081e-02 -1.313681e-01 5.614462e-02 -3.416236e-02 2.454187e-02 2.262445e-02 -4.380115e-03 5.104090e-02 -2.123094e-02 7.080805e-02 -3.132013e-02 8.901154e-02 -3.398454e-02 1.039357e-01 
-1.569486e-02 1.036329e-01 1.264636e-01 -1.012363e+00 -4.580140e+01 -2.714745e-01 -1.017832e-01 -1.202633e-01 -6.336444e-03 -8.415560e-02 -6.940251e-04 -4.100620e-02 -2.769486e-02 7.774682e-03 -4.413552e-02 -9.497919e-02 2.182913e-01 5.807773e-02 8.603757e-03 6.647089e-02 2.036156e-02 5.836469e-02 1.886136e-02 5.541630e-02 9.013695e-03 3.931468e-02 8.344504e-03 3.244470e-02 1.287507e-02 2.437537e-02 1.476835e-02 1.964153e-02 2.741974e-02 2.981527e-02 3.254074e-02 3.071801e-02 3.104293e-02 2.839801e-02 3.367103e-02 3.016809e-02 2.817532e-02 1.395916e-02 2.468790e-02 6.656282e-03 2.925393e-02 -5.134020e-03 5.797534e-02 2.086368e-04 -3.306028e-02 1.304033e-01 -7.749559e-03 -1.035344e-02 2.096637e-02 5.343121e-03 6.913903e-03 3.001024e-02 -9.110204e-03 4.916949e-02 -2.156731e-02 6.576389e-02 -3.001386e-02 8.199645e-02 -3.096396e-02 9.704448e-02 
3.019285e-02 1.007761e-01 1.926222e-01 -1.025200e+00 -4.466014e+01 -1.736960e-01 -1.292236e-01 -1.189141e-01 -4.286202e-02 -9.990239e-02 -1.352473e-02 -8.625121e-02 -2.183387e-04 -5.785225e-02 -1.770358e-01 5.399029e-01 3.089012e+00 2.709656e+00 1.957784e+00 2.063220e+00 1.904330e+00 2.456406e+00 1.836325e+00 2.492018e+00 1.841525e+00 2.339503e+00 2.019638e+00 2.161521e+00 2.185927e+00 1.989720e+00 2.368859e+00 1.891008e+00 2.348796e+00 2.025720e+00 2.191128e+00 2.159116e+00 2.050334e+00 2.306902e+00 1.901037e+00 2.379814e+00 1.917416e+00 2.246699e+00 2.113190e+00 2.119926e+00 2.373237e+00 1.854877e+00 2.280207e+00 1.956386e+00 3.043435e+00 2.584094e+00 3.887772e-01 1.321730e-01 -4.271936e-02 4.343625e-02 -1.855290e-02 4.234395e-02 -9.925628e-03 5.419594e-02 -8.330503e-03 6.905459e-02 -5.617489e-03 8.427157e-02 4.540185e-03 9.781203e-02 
3.511964e-02 9.715754e-02 2.082790e-01 -1.005437e+00 -4.475280e+01 -2.192213e-01 -1.448293e-01 -1.233073e-01 -4.842292e-02 -1.125024e-01 1.305168e-03 -1.476591e-01 1.072867e-01 -2.826704e-01 2.222137e-02 1.714962e+00 1.171765e+01 1.007821e+01 8.009752e+00 7.519084e+00 7.976321e+00 9.356307e+00 7.706647e+00 9.697416e+00 7.721020e+00 9.240968e+00 8.454149e+00 8.676176e+00 9.171079e+00 8.089672e+00 9.944309e+00 7.775730e+00 9.882145e+00 8.415331e+00 9.214617e+00 9.033606e+00 8.620340e+00 9.745147e+00 7.982410e+00 1.012991e+01 8.013419e+00 9.638481e+00 8.827253e+00 9.208859e+00 9.911628e+00 8.155114e+00 9.546226e+00 8.341161e+00 1.339357e+01 1.194161e+01 8.877443e-01 4.507424e-01 -2.295563e-01 7.490732e-02 -5.605840e-02 4.585273e-02 -1.564118e-02 5.141748e-02 -7.622156e-03 6.399598e-02 -3.413165e-03 7.818062e-02 7.751684e-03 9.232376e-02 
6.736522e-02 9.160902e-02 2.507516e-01 -9.951213e-01 -4.302044e+01 -1.404241e-01 -1.550957e-01 -1.183182e-01 -6.899438e-02 -1.189651e-01 -2.451376e-03 -1.760817e-01 1.350481e-01 -4.137194e-01 3.355348e-01 7.547705e-01 6.856289e+00 5.423423e+00 5.041114e+00 4.096723e+00 5.090367e+00 5.377792e+00 4.931796e+00 5.727305e+00 4.942863e+00 5.570355e+00 5.407756e+00 5.311722e+00 5.877520e+00 5.025986e+00 6.381821e+00 4.882767e+00 6.367000e+00 5.338407e+00 5.944951e+00 5.790194e+00 5.562960e+00 6.299571e+00 5.146544e+00 6.602361e+00 5.143550e+00 6.344132e+00 5.657736e+00 6.114353e+00 6.344001e+00 5.465290e+00 6.088986e+00 5.762064e+00 8.873556e+00 7.973354e+00 3.151254e-01 4.594316e-01 -1.826332e-01 1.076063e-01 -4.781287e-02 5.824758e-02 -8.289324e-03 5.620698e-02 5.457497e-03 6.579977e-02 1.657517e-02 7.825900e-02 3.458625e-02 9.056795e-02 
6.896204e-02 8.721721e-02 2.576396e-01 -9.652391e-01 -4.234515e+01 -1.675598e-01 -1.626130e-01 -1.092206e-01 -8.017932e-02 -8.563784e-02 -4.274072e-02 -5.524140e-02 -4.244879e-02 1.716481e-03 2.241994e-01 -1.939650e+00 -1.067306e+01 -9.380623e+00 -7.025128e+00 -7.085340e+00 -7.081947e+00 -8.652643e+00 -6.830319e+00 -8.885876e+00 -6.848851e+00 -8.430024e+00 -7.520876e+00 -7.870981e+00 -8.161176e+00 -7.310379e+00 -8.838143e+00 -6.986866e+00 -8.774770e+00 -7.511279e+00 -8.164263e+00 -8.033535e+00 -7.638428e+00 -8.632465e+00 -7.085872e+00 -8.949794e+00 -7.125190e+00 -8.503074e+00 -7.869912e+00 -8.096335e+00 -8.830955e+00 -7.095021e+00 -8.540849e+00 -7.387463e+00 -1.199369e+01 -1.027054e+01 -7.877568e-01 -2.268632e-01 1.256122e-01 2.603827e-02 3.382884e-02 4.176333e-02 1.362188e-02 4.991179e-02 1.244007e-02 6.049874e-02 1.961168e-02 7.276327e-02 3.652825e-02 8.557249e-02 
9.023493e-02 8.018960e-02 2.816207e-01 -9.318148e-01 -4.015484e+01 -1.077300e-01 -1.672213e-01 -9.721948e-02 -1.040356e-01 -6.863829e-02 -8.301713e-02 -4.393493e-03 -1.427229e-01 1.715606e-01 -7.736357e-02 -1.357213e+00 -9.895375e+00 -8.402150e+00 -7.044462e+00 -6.275767e+00 -6.961055e+00 -7.919389e+00 -6.742509e+00 -8.289250e+00 -6.777437e+00 -7.963797e+00 -7.430629e+00 -7.527800e+00 -8.068002e+00 -7.052606e+00 -8.755204e+00 -6.798347e+00 -8.697276e+00 -7.371834e+00 -8.109665e+00 -7.933307e+00 -7.584229e+00 -8.586542e+00 -7.018736e+00 -8.959007e+00 -7.051590e+00 -8.561933e+00 -7.768499e+00 -8.208958e+00 -8.718716e+00 -7.300940e+00 -8.361163e+00 -7.439958e+00 -1.184495e+01 -1.059579e+01 -8.734239e-01 -4.022059e-01 1.939861e-01 -1.828407e-02 5.593053e-02 2.926968e-02 2.600393e-02 4.615922e-02 2.499480e-02 5.853099e-02 3.527202e-02 7.039747e-02 5.563832e-02 8.176085e-02 
8.818630e-02 7.550923e-02 2.801188e-01 -8.953746e-01 -3.887451e+01 -1.245779e-01 -1.669216e-01 -9.455681e-02 -1.047279e-01 -6.928057e-02 -8.115537e-02 -3.511737e-02 -8.970559e-02 2.228415e-02 -6.152476e-02 -2.948246e-01 -1.147509e+00 -7.423835e-01 -9.836246e-01 -6.044659e-01 -9.134251e-01 -8.380433e-01 -8.834340e-01 -9.304914e-01 -8.916767e-01 -9.495205e-01 -9.749844e-01 -9.258608e-01 -1.055326e+00 -8.888393e-01 -1.148560e+00 -8.569749e-01 -1.138743e+00 -9.228014e-01 -1.062152e+00 -1.008970e+00 -9.896654e-01 -1.109872e+00 -9.073556e-01 -1.188609e+00 -9.087020e-01 -1.178801e+00 -9.961209e-01 -1.146204e+00 -1.108347e+00 -1.041916e+00 -1.007630e+00 -1.144799e+00 -1.520859e+00 -1.118538e+00 -2.114900e-01 -1.044759e-01 5.154790e-02 -8.684832e-03 3.411186e-02 2.385708e-02 2.478032e-02 4.073055e-02 2.586397e-02 5.335604e-02 3.551657e-02 6.519477e-02 5.489751e-02 7.688895e-02 
1.006240e-01 6.801902e-02 2.894237e-01 -8.478572e-01 -3.633283e+01 -7.832324e-02 -1.642789e-01 -8.446720e-02 -1.158163e-01 -6.307172e-02 -9.186571e-02 -4.005795e-02 -8.131935e-02 -3.625365e-02 -7.887892e-03 -2.382338e-01 7.530133e-02 4.493121e-02 -6.757345e-02 -5.551140e-03 -1.512633e-02 -8.038905e-03 -1.442540e-02 -1.058159e-02 -2.396209e-02 -2.562373e-02 -2.669706e-02 -2.504631e-02 -2.462474e-02 -2.598718e-02 -2.416008e-02 -1.583673e-02 -8.853328e-03 2.946430e-04 -3.756773e-03 -5.826360e-04 -9.342891e-04 -1.276072e-03 1.447314e-03 -8.449882e-03 -8.513962e-03 -2.718705e-02 -1.303176e-02 -2.895255e-02 -1.300075e-02 -2.960799e-02 3.092796e-02 -9.284971e-02 -1.365144e-02 2.529254e-01 -1.081984e-01 -7.534011e-03 2.467267e-02 -1.128885e-03 3.263655e-02 2.178030e-02 3.022113e-02 3.794931e-02 3.423770e-02 5.044740e-02 4.612463e-02 6.157505e-02 6.710307e-02 7.188718e-02 
9.523795e-02 6.333321e-02 2.800083e-01 -8.034050e-01 -3.456623e+01 -9.089840e-02 -1.573170e-01 -8.374065e-02 -1.076574e-01 -6.612946e-02 -7.974763e-02 -5.263647e-02 -5.733077e-02 -5.487836e-02 -9.908691e-03 -1.302504e-01 5.091276e-02 -3.286109e-02 -1.374221e-02 -2.112840e-02 -1.574565e-03 -1.954128e-02 -1.969354e-03 -1.851420e-02 -7.667677e-03 -2.107144e-02 -1.009301e-02 -1.870666e-02 -9.011863e-03 -1.585444e-02 -6.457341e-03 -8.387048e-03 2.353473e-03 1.237907e-03 6.761401e-03 4.458630e-03 8.123710e-03 5.999474e-03 7.390693e-03 4.251141e-03 1.302059e-03 -2.156969e-03 -2.615199e-03 -2.795413e-03 -1.481304e-03 -8.397068e-04 1.281342e-02 2.207843e-03 -2.686226e-02 1.225144e-01 -4.476024e-02 2.812986e-02 6.062971e-03 1.624268e-02 1.956755e-02 2.499737e-02 2.448173e-02 3.597839e-02 3.121131e-02 4.657428e-02 4.338914e-02 5.692853e-02 6.347523e-02 6.711835e-02 
1.005749e-01 5.609923e-02 2.776970e-01 -7.478436e-01 -3.175429e+01 -5.348222e-02 -1.485773e-01 -7.548249e-02 -1.093574e-01 -6.250262e-02 -8.070412e-02 -5.484762e-02 -5.329054e-02 -6.211326e-02 -9.330703e-03 -1.020692e-01 1.594079e-02 -3.560444e-02 -1.087580e-02 -2.375264e-02 -4.352251e-03 -2.006821e-02 -3.736247e-03 -1.842295e-02 -6.880946e-03 -1.949060e-02 -8.479267e-03 -1.733080e-02 -7.358044e-03 -1.416126e-02 -4.809607e-03 -7.453610e-03 1.520049e-03 3.015382e-04 5.255301e-03 3.638339e-03 6.444712e-03 5.090384e-03 5.599787e-03 3.505155e-03 1.251562e-03 -7.306391e-04 -1.651468e-03 -6.031530e-04 -7.070162e-04 2.879367e-03 6.636499e-03 1.090987e-02 -1.654701e-02 8.808793e-02 -3.115736e-02 3.734377e-02 2.965923e-03 2.182781e-02 1.872626e-02 2.577741e-02 2.684944e-02 3.443289e-02 3.575581e-02 4.371614e-02 4.926708e-02 5.287116e-02 6.975993e-02 6.162294e-02 
9.242762e-02 5.149515e-02 2.613553e-01 -6.956807e-01 -2.958812e+01 -6.287550e-02 -1.376131e-01 -7.358983e-02 -9.798662e-02 -6.204585e-02 -6.960630e-02 -5.561901e-02 -4.361748e-02 -5.740608e-02 -1.385391e-02 -6.928823e-02 4.233755e-03 -4.110432e-02 -4.643741e-03 -2.670288e-02 -3.398718e-03 -2.090436e-02 -3.446482e-03 -1.811400e-02 -5.066616e-03 -1.685195e-02 -6.011926e-03 -1.452832e-02 -5.300945e-03 -1.137049e-02 -3.270472e-03 -6.554261e-03 5.414052e-04 -1.475864e-03 3.338292e-03 1.543369e-03 4.412224e-03 3.036909e-03 3.879253e-03 2.865782e-03 1.548795e-03 1.886931e-03 -4.241949e-04 3.408070e-03 -7.199171e-04 8.456573e-03 -6.113083e-04 1.986166e-02 -1.451699e-02 5.150334e-02 -1.574843e-02 3.498376e-02 9.937296e-04 2.614901e-02 1.298166e-02 2.733011e-02 2.175567e-02 3.304914e-02 3.127238e-02 4.047609e-02 4.448324e-02 4.858322e-02 6.375340e-02 5.687205e-02 
9.214938e-02 4.476711e-02 2.499933e-01 -6.357196e-01 -2.657111e+01 -3.085748e-02 -1.247840e-01 -6.561860e-02 -9.463298e-02 -5.747080e-02 -6.769119e-02 -5.325141e-02 -4.275241e-02 -5.467919e-02 -1.781403e-02 -5.922209e-02 -6.216889e-03 -3.839616e-02 -7.611922e-03 -2.626568e-02 -5.463680e-03 -2.039094e-02 -4.593055e-03 -1.734444e-02 -5.085083e-03 -1.567467e-02 -5.385413e-03 -1.336469e-02 -4.545937e-03 -1.029564e-02 -2.717294e-03 -5.988965e-03 2.364492e-04 -1.626194e-03 2.504424e-03 1.159665e-03 3.410927e-03 2.572094e-03 2.982857e-03 2.603414e-03 1.273381e-03 2.278181e-03 -2.091626e-04 4.080316e-03 -5.312819e-04 9.041779e-03 -8.953238e-04 1.906853e-02 -9.117446e-03 4.098924e-02 -1.015057e-02 3.335130e-02 2.008240e-03 2.663131e-02 1.321276e-02 2.687434e-02 2.270105e-02 3.124081e-02 3.299537e-02 3.740494e-02 4.649856e-02 4.425456e-02 6.523451e-02 5.117368e-02 
8.187872e-02 4.017437e-02 2.281078e-01 -5.779742e-01 -2.407512e+01 -3.598981e-02 -1.113534e-01 -6.178282e-02 -8.237436e-02 -5.402680e-02 -5.792152e-02 -4.939346e-02 -3.654541e-02 -4.771174e-02 -1.789021e-02 -4.646302e-02 -7.633389e-03 -3.502972e-02 -5.718777e-03 -2.545230e-02 -4.156378e-03 -1.964903e-02 -3.537699e-03 -1.614731e-02 -3.698613e-03 -1.376345e-02 -3.801251e-03 -1.135987e-02 -3.223567e-03 -8.610612e-03 -1.931268e-03 -5.337012e-03 -2.700968e-05 -2.141065e-03 1.561456e-03 2.132661e-04 2.279419e-03 1.708677e-03 2.045678e-03 2.520223e-03 9.846962e-04 3.412453e-03 -2.078599e-04 5.754406e-03 -1.149784e-03 1.040103e-02 -2.702712e-03 1.813252e-02 -7.084323e-03 2.905853e-02 -5.915254e-03 2.789077e-02 1.607407e-03 2.532829e-02 1.001266e-02 2.582248e-02 1.840395e-02 2.907655e-02 2.799103e-02 3.403634e-02 4.045064e-02 3.994830e-02 5.749739e-02 4.626609e-02 
7.725803e-02 3.389246e-02 2.098915e-01 -5.160395e-01 -2.091018e+01 -7.182033e-03 -9.575414e-02 -5.339855e-02 -7.597042e-02 -4.815992e-02 -5.413443e-02 -4.463064e-02 -3.515038e-02 -4.287466e-02 -1.948751e-02 -4.049101e-02 -1.098226e-02 -3.138727e-02 -7.636212e-03 -2.341930e-02 -5.366792e-03 -1.818449e-02 -4.172801e-03 -1.486293e-02 -3.779846e-03 -1.252350e-02 -3.516466e-03 -1.024930e-02 -2.842950e-03 -7.707394e-03 -1.682990e-03 -4.792577e-03 -1.410326e-04 -1.993448e-03 1.142549e-03 1.166323e-04 1.734337e-03 1.492469e-03 1.561390e-03 2.327830e-03 7.618252e-04 3.325982e-03 -1.481806e-04 5.565595e-03 -8.750711e-04 9.719758e-03 -1.963519e-03 1.619651e-02 -4.459901e-03 2.449316e-02 -3.303705e-03 2.499909e-02 2.685391e-03 2.355130e-02 1.018345e-02 2.395303e-02 1.825469e-02 2.649680e-02 2.760259e-02 3.049347e-02 3.947612e-02 3.530427e-02 5.524085e-02 4.041235e-02 
6.548911e-02 2.918251e-02 1.839670e-01 -4.550789e-01 -1.814558e+01 -6.932543e-03 -8.040547e-02 -4.776103e-02 -6.338443e-02 -4.286198e-02 -4.472072e-02 -3.909254e-02 -2.907245e-02 -3.627594e-02 -1.678111e-02 -3.295709e-02 -9.384680e-03 -2.680338e-02 -5.845000e-03 -2.078919e-02 -3.877464e-03 -1.628894e-02 -2.915664e-03 -1.312295e-02 -2.568068e-03 -1.074611e-02 -2.360264e-03 -8.605913e-03 -1.920299e-03 -6.427927e-03 -1.153732e-03 -4.142860e-03 -1.580760e-04 -1.982192e-03 6.959817e-04 -2.172967e-04 1.101531e-03 1.130141e-03 9.653919e-04 2.244727e-03 3.640418e-04 3.592064e-03 -4.495136e-04 5.791228e-03 -1.321013e-03 9.226699e-03 -2.408699e-03 1.390665e-02 -3.629498e-03 1.891979e-02 -2.299509e-03 2.042974e-02 1.913880e-03 2.053358e-02 7.619287e-03 2.134309e-02 1.430000e-02 2.344875e-02 2.235867e-02 2.668828e-02 3.268028e-02 3.073031e-02 4.635899e-02 3.520121e-02 
5.760160e-02 2.319299e-02 1.607798e-01 -3.928201e-01 -1.488580e+01 1.983195e-02 -6.280897e-02 -3.889293e-02 -5.476875e-02 -3.610798e-02 -3.914238e-02 -3.324321e-02 -2.603443e-02 -3.088370e-02 -1.591354e-02 -2.790386e-02 -9.676776e-03 -2.294102e-02 -6.219465e-03 -1.802536e-02 -4.156882e-03 -1.420657e-02 -3.024203e-03 -1.144316e-02 -2.476726e-03 -9.333640e-03 -2.125673e-03 -7.439839e-03 -1.661169e-03 -5.527730e-03 -9.893463e-04 -3.550772e-03 -1.826005e-04 -1.695631e-03 4.936797e-04 -1.722199e-04 8.088852e-04 1.002233e-03 6.921738e-04 1.998971e-03 2.145098e-04 3.218094e-03 -4.241251e-04 5.151684e-03 -1.084465e-03 8.084550e-03 -1.814845e-03 1.194933e-02 -2.428330e-03 1.595053e-02 -1.199772e-03 1.755658e-02 2.274097e-03 1.790216e-02 7.176563e-03 1.857595e-02 1.311405e-02 2.017325e-02 2.032444e-02 2.264868e-02 2.943970e-02 2.575603e-02 4.128534e-02 2.918171e-02 
4.493967e-02 1.825763e-02 1.322662e-01 -3.304535e-01 -1.190894e+01 2.597886e-02 -4.578757e-02 -3.181155e-02 -4.201968e-02 -2.971102e-02 -2.968203e-02 -2.703889e-02 -1.952197e-02 -2.465213e-02 -1.182695e-02 -2.192817e-02 -6.889040e-03 -1.833536e-02 -4.068108e-03 -1.470876e-02 -2.493974e-03 -1.169316e-02 -1.704743e-03 -9.367893e-03 -1.371778e-03 -7.530948e-03 -1.196952e-03 -5.923795e-03 -9.576197e-04 -4.382289e-03 -5.752530e-04 -2.862025e-03 -1.016754e-04 -1.442838e-03 2.946391e-04 -2.179460e-04 4.506678e-04 8.207265e-04 2.965284e-04 1.803314e-03 -1.383418e-04 2.981837e-03 -7.441012e-04 4.635237e-03 -1.412721e-03 6.899039e-03 -2.057065e-03 9.644201e-03 -2.357350e-03 1.230979e-02 -1.379464e-03 1.378499e-02 1.087962e-03 1.447844e-02 4.704794e-03 1.522899e-02 9.285669e-03 1.650542e-02 1.499581e-02 1.840466e-02 2.228419e-02 2.083842e-02 3.177882e-02 2.360693e-02 
3.469590e-02 1.243212e-02 1.057272e-01 -2.689583e-01 -8.605274e+00 5.114520e-02 -2.678350e-02 -2.263282e-02 -3.170293e-02 -2.247276e-02 -2.252459e-02 -2.071350e-02 -1.488005e-02 -1.905440e-02 -9.127323e-03 -1.703919e-02 -5.410754e-03 -1.434921e-02 -3.213649e-03 -1.158502e-02 -1.958799e-03 -9.240514e-03 -1.313763e-03 -7.409130e-03 -1.030320e-03 -5.951112e-03 -8.811590e-04 -4.668972e-03 -6.947712e-04 -3.433662e-03 -4.088312e-04 -2.215561e-03 -6.418037e-05 -1.081869e-03 2.127143e-04 -1.075489e-04 2.975515e-04 7.146740e-04 1.362951e-04 1.496306e-03 -2.455457e-04 2.445381e-03 -7.590782e-04 3.780657e-03 -1.308971e-03 5.595813e-03 -1.802073e-03 7.761711e-03 -1.977129e-03 9.823462e-03 -1.206336e-03 1.100517e-02 6.997762e-04 1.151697e-02 3.540624e-03 1.196720e-02 7.175556e-03 1.274895e-02 1.169027e-02 1.397206e-02 1.737611e-02 1.558565e-02 2.466449e-02 1.743816e-02 
2.174126e-02 7.210689e-03 7.596825e-02 -2.063607e-01 -5.469409e+00 6.317723e-02 -8.391828e-03 -1.446303e-02 -1.901307e-02 -1.541907e-02 -1.309649e-02 -1.420603e-02 -8.151570e-03 -1.301820e-02 -4.502947e-03 -1.161612e-02 -2.177922e-03 -9.874313e-03 -8.786122e-04 -8.063635e-03 -2.452019e-04 -6.465259e-03 -2.823735e-05 -5.168349e-03 -3.745750e-05 -4.114971e-03 -1.116616e-04 -3.196721e-03 -1.359651e-04 -2.332686e-03 -7.040837e-05 -1.498070e-03 5.072960e-05 -7.202369e-04 1.371990e-04 -3.090914e-05 9.567114e-05 5.836235e-04 -1.244105e-04 1.198503e-03 -5.178327e-04 1.938003e-03 -1.031374e-03 2.920091e-03 -1.586962e-03 4.177283e-03 -2.075419e-03 5.598708e-03 -2.280343e-03 6.899568e-03 -1.854192e-03 7.701307e-03 -6.886050e-04 8.070125e-03 1.123534e-03 8.324463e-03 3.499591e-03 8.729123e-03 6.477701e-03 9.404933e-03 1.022905e-02 1.036271e-02 1.503062e-02 1.152111e-02 
9.928327e-03 1.479798e-03 4.748938e-02 -1.463374e-01 -2.171773e+00 8.672772e-02 1.143236e-02 -5.212170e-03 -7.464432e-03 -7.992416e-03 -4.736971e-03 -7.709478e-03 -2.293027e-03 -7.349321e-03 -5.599139e-04 -6.742691e-03 4.233649e-04 -5.810941e-03 8.412275e-04 -4.758355e-03 9.075659e-04 -3.805062e-03 7.695193e-04 -3.034247e-03 5.405396e-04 -2.413321e-03 3.193939e-04 -1.866154e-03 1.756088e-04 -1.336052e-03 1.264142e-04 -8.111031e-04 1.350550e-04 -3.197703e-04 1.251975e-04 1.075172e-04 1.942245e-05 4.779733e-04 -2.263338e-04 8.497402e-04 -6.119654e-04 1.319096e-03 -1.099302e-03 1.973022e-03 -1.629051e-03 2.825861e-03 -2.117594e-03 3.774971e-03 -2.410774e-03 4.587488e-03 -2.282497e-03 4.981222e-03 -1.667570e-03 4.979551e-03 -6.509987e-04 4.810953e-03 6.687440e-04 4.686751e-03 2.260884e-03 4.716460e-03 4.178536e-03 4.924033e-03 6.545482e-03 5.261062e-03 
-2.704604e-03 -4.045818e-03 1.774434e-02 -8.424423e-02 1.071845e+00 1.043501e-01 3.074406e-02 3.736266e-03 4.813099e-03 -5.600989e-04 4.328727e-03 -1.073936e-03 4.230788e-03 -1.445670e-03 4.014488e-03 -1.597255e-03 3.613619e-03 -1.497749e-03 3.078280e-03 -1.250027e-03 2.488870e-03 -9.825069e-04 1.904130e-03 -7.618691e-04 1.370704e-03 -5.886591e-04 9.295793e-04 -4.321224e-04 6.054383e-04 -2.666026e-04 3.916882e-04 -8.930509e-05 2.476570e-04 8.166979e-05 1.086746e-04 2.278446e-04 -9.000461e-05 3.521602e-04 -3.904778e-04 4.863331e-04 -8.027698e-04 6.804670e-04 -1.307007e-03 9.734559e-04 -1.861507e-03 1.356464e-03 -2.402499e-03 1.749722e-03 -2.832327e-03 2.005410e-03 -3.042730e-03 1.966633e-03 -3.025186e-03 1.626146e-03 -2.865929e-03 1.099175e-03 -2.679597e-03 5.168535e-04 -2.560071e-03 -3.281845e-05 -2.562736e-03 -5.096937e-04 -2.704979e-03 -9.227825e-04 
-1.538419e-02 -9.697106e-03 -1.141136e-02 -2.617637e-02 4.313543e+00 1.259788e-01 5.075383e-02 1.280831e-02 1.710568e-02 6.832026e-03 1.343242e-02 5.403769e-03 1.083851e-02 4.191893e-03 8.695782e-03 3.243982e-03 6.876224e-03 2.581824e-03 5.331963e-03 2.125431e-03 4.040797e-03 1.771303e-03 2.977160e-03 1.458685e-03 2.119383e-03 1.176602e-03 1.453294e-03 9.385843e-04 9.626413e-04 7.543007e-04 6.158457e-04 6.152488e-04 3.616386e-04 4.968174e-04 1.351782e-04 3.748326e-04 -1.255493e-04 2.428784e-04 -4.637472e-04 1.179205e-04 -8.973457e-04 3.082666e-05 -1.421576e-03 1.697112e-06 -2.016348e-03 1.081118e-05 -2.648810e-03 -1.847475e-05 -3.270152e-03 -2.132349e-04 -3.837783e-03 -7.003158e-04 -4.389647e-03 -1.496308e-03 -5.046149e-03 -2.518835e-03 -5.967944e-03 -3.662648e-03 -7.322423e-03 -4.847882e-03 -9.269840e-03 -6.027353e-03 -1.196036e-02 -7.185616e-03 