# vtk DataFile Version 2.0
Comment goes here
ASCII

DATASET STRUCTURED_POINTS
FIELD FieldData 1
TIME 1 1 double
0.00700000
DIMENSIONS    64   64   1

ORIGIN    0.000   0.000   0.000
SPACING   0.03125 0.03125   1.000

POINT_DATA   4096
SCALARS P double
LOOKUP_TABLE default

1.317413e+01 -1.569836e+01 4.938516e+01 -3.641890e+01 1.050527e+02 1.902548e+02 8.813864e+01 1.826582e+02 1.008128e+02 1.776005e+02 1.085781e+02 1.736520e+02 1.130607e+02 1.704763e+02 1.151036e+02 1.684241e+02 1.123408e+02 1.690526e+02 1.079768e+02 1.638906e+02 1.100008e+02 1.542750e+02 1.104664e+02 1.495009e+02 1.080828e+02 1.412704e+02 1.071697e+02 1.337163e+02 1.054782e+02 1.244473e+02 1.029707e+02 1.144865e+02 1.007659e+02 1.044119e+02 9.769812e+01 9.544426e+01 9.373112e+01 8.643699e+01 9.029270e+01 7.681048e+01 8.640442e+01 6.634289e+01 8.255741e+01 5.629864e+01 7.825509e+01 4.598195e+01 7.334077e+01 3.677294e+01 7.045377e+01 2.628311e+01 6.559096e+01 2.188673e+01 5.777834e+01 1.269809e+01 5.961680e+01 -4.449703e+00 6.354086e+01 -1.622396e+01 5.990714e+01 -2.038443e+01 5.057444e+01 -1.946479e+01 3.799974e+01 -1.153529e+01 
-5.108165e+00 -4.854737e+01 1.455586e+01 -5.994598e+01 4.905438e+01 1.127798e+02 3.062075e+01 1.088908e+02 3.563330e+01 1.057528e+02 3.850050e+01 1.024383e+02 4.021362e+01 9.911170e+01 4.100337e+01 9.587668e+01 3.952254e+01 9.401897e+01 3.711178e+01 8.884644e+01 3.837452e+01 8.121338e+01 3.857726e+01 7.668146e+01 3.726113e+01 6.974713e+01 3.728524e+01 6.329711e+01 3.691401e+01 5.590997e+01 3.604652e+01 4.825338e+01 3.541156e+01 4.052815e+01 3.440427e+01 3.342828e+01 3.296648e+01 2.629487e+01 3.190619e+01 1.891650e+01 3.041394e+01 1.128409e+01 2.869924e+01 4.179297e+00 2.674786e+01 -3.154378e+00 2.447798e+01 -9.895706e+00 2.360849e+01 -1.751727e+01 2.158471e+01 -2.110129e+01 1.747849e+01 -2.708035e+01 1.881975e+01 -3.749903e+01 2.137031e+01 -4.488010e+01 1.985999e+01 -4.839065e+01 1.575876e+01 -4.954839e+01 9.970551e+00 -4.592961e+01 
-7.268177e+00 -7.577489e+01 -3.590451e+00 -7.983281e+01 5.164928e+00 7.714268e+01 -2.921025e+00 7.454233e+01 -2.713619e+00 7.144417e+01 -2.591136e+00 6.764368e+01 -2.413268e+00 6.346484e+01 -2.271702e+00 5.879624e+01 -2.386789e+00 5.406285e+01 -2.741567e+00 4.850586e+01 -2.448171e+00 4.238612e+01 -2.494181e+00 3.697055e+01 -2.788906e+00 3.072761e+01 -2.473835e+00 2.449756e+01 -2.155484e+00 1.802313e+01 -1.994988e+00 1.154516e+01 -1.800059e+00 5.027014e+00 -1.612296e+00 -1.391905e+00 -1.469599e+00 -7.801210e+00 -1.285677e+00 -1.413972e+01 -1.400176e+00 -2.032300e+01 -1.776738e+00 -2.613102e+01 -2.272520e+00 -3.196607e+01 -2.782173e+00 -3.764933e+01 -2.813663e+00 -4.354083e+01 -3.006986e+00 -4.816983e+01 -3.833136e+00 -5.288868e+01 -3.577981e+00 -5.828587e+01 -3.093126e+00 -6.293846e+01 -3.230714e+00 -6.700835e+01 -3.432212e+00 -7.074347e+01 -3.850030e+00 -7.289384e+01 
-6.055242e+00 -7.192880e+01 -4.144631e+00 -7.457763e+01 -2.935853e+00 7.343651e+01 -1.993571e+00 7.146904e+01 -1.372071e+00 6.876583e+01 -9.818591e-01 6.543001e+01 -7.143093e-01 6.166302e+01 -6.182138e-01 5.746709e+01 -7.716450e-01 5.290667e+01 -1.042420e+00 4.771810e+01 -1.024304e+00 4.210495e+01 -1.100043e+00 3.662070e+01 -1.264352e+00 3.073507e+01 -1.147493e+00 2.469785e+01 -9.788248e-01 1.847609e+01 -8.693765e-01 1.218419e+01 -7.570772e-01 5.867700e+00 -6.671036e-01 -3.821058e-01 -6.315313e-01 -6.582333e+00 -6.403250e-01 -1.270864e+01 -8.490595e-01 -1.869854e+01 -1.258313e+00 -2.447419e+01 -1.759321e+00 -3.019521e+01 -2.240499e+00 -3.580299e+01 -2.515537e+00 -4.128517e+01 -2.849467e+00 -4.604872e+01 -3.298820e+00 -5.078312e+01 -3.181119e+00 -5.575995e+01 -2.916029e+00 -6.023640e+01 -3.092831e+00 -6.402413e+01 -3.627787e+00 -6.714810e+01 -4.572582e+00 -6.939528e+01 
-4.699222e+00 -7.699074e+01 -3.788671e+00 -7.984319e+01 -3.288858e+00 7.725307e+01 -2.940738e+00 7.474601e+01 -2.678951e+00 7.151036e+01 -2.463592e+00 6.770000e+01 -2.255250e+00 6.346306e+01 -2.100766e+00 5.881058e+01 -2.113163e+00 5.373899e+01 -2.229808e+00 4.821635e+01 -2.222645e+00 4.240605e+01 -2.285382e+00 3.661773e+01 -2.390380e+00 3.056780e+01 -2.319349e+00 2.438250e+01 -2.184383e+00 1.805156e+01 -2.057704e+00 1.165022e+01 -1.918092e+00 5.218738e+00 -1.796868e+00 -1.168541e+00 -1.731110e+00 -7.498169e+00 -1.736421e+00 -1.373677e+01 -1.907345e+00 -1.984547e+01 -2.226714e+00 -2.580080e+01 -2.617363e+00 -3.169783e+01 -3.000410e+00 -3.750721e+01 -3.253507e+00 -4.317972e+01 -3.479194e+00 -4.825091e+01 -3.702916e+00 -5.316313e+01 -3.619552e+00 -5.810753e+01 -3.454018e+00 -6.272490e+01 -3.479498e+00 -6.694070e+01 -3.638893e+00 -7.073703e+01 -3.993094e+00 -7.391105e+01 
-4.257962e+00 -7.365559e+01 -3.585897e+00 -7.624030e+01 -2.839464e+00 7.495025e+01 -2.102592e+00 7.250756e+01 -1.536196e+00 6.946679e+01 -1.105256e+00 6.593906e+01 -7.703147e-01 6.202652e+01 -5.479598e-01 5.773383e+01 -5.644165e-01 5.284245e+01 -7.046676e-01 4.756464e+01 -7.972196e-01 4.203177e+01 -9.093060e-01 3.640315e+01 -1.040446e+00 3.059589e+01 -1.074941e+00 2.462255e+01 -1.039249e+00 1.850111e+01 -9.824230e-01 1.228092e+01 -9.073894e-01 6.017500e+00 -8.604633e-01 -2.022146e-01 -8.883760e-01 -6.349678e+00 -1.010839e+00 -1.240379e+01 -1.278858e+00 -1.834129e+01 -1.664247e+00 -2.418707e+01 -2.097258e+00 -2.998098e+01 -2.531808e+00 -3.571186e+01 -2.916382e+00 -4.129710e+01 -3.212642e+00 -4.623892e+01 -3.317997e+00 -5.101869e+01 -3.258238e+00 -5.573578e+01 -3.182496e+00 -6.015972e+01 -3.283543e+00 -6.415381e+01 -3.569096e+00 -6.768367e+01 -3.976173e+00 -7.075626e+01 
-3.883157e+00 -7.846404e+01 -3.549827e+00 -8.148753e+01 -3.208138e+00 7.863558e+01 -2.881015e+00 7.567436e+01 -2.599539e+00 7.214877e+01 -2.329365e+00 6.818139e+01 -2.043523e+00 6.387594e+01 -1.763263e+00 5.924200e+01 -1.733879e+00 5.386562e+01 -1.840650e+00 4.821425e+01 -1.926652e+00 4.240377e+01 -2.033509e+00 3.652662e+01 -2.167789e+00 3.054255e+01 -2.229239e+00 2.441283e+01 -2.204541e+00 1.815083e+01 -2.132294e+00 1.178580e+01 -2.017365e+00 5.366016e+00 -1.926414e+00 -1.003216e+00 -1.921687e+00 -7.286495e+00 -2.021705e+00 -1.346408e+01 -2.266205e+00 -1.952153e+01 -2.605047e+00 -2.552887e+01 -2.969197e+00 -3.151735e+01 -3.347708e+00 -3.750246e+01 -3.718983e+00 -4.342055e+01 -3.953954e+00 -4.849129e+01 -3.881244e+00 -5.340631e+01 -3.743662e+00 -5.825603e+01 -3.622246e+00 -6.291315e+01 -3.593237e+00 -6.729563e+01 -3.650973e+00 -7.135600e+01 -3.777712e+00 -7.504705e+01 
-3.469590e+00 -7.570335e+01 -3.093517e+00 -7.880713e+01 -2.567328e+00 7.723138e+01 -2.048457e+00 7.414082e+01 -1.568054e+00 7.065222e+01 -1.134069e+00 6.683147e+01 -7.146464e-01 6.276986e+01 -2.401868e-01 5.859631e+01 -2.319410e-01 5.316392e+01 -4.137871e-01 4.766611e+01 -5.500224e-01 4.205434e+01 -6.988781e-01 3.636410e+01 -9.132555e-01 3.062210e+01 -1.072701e+00 2.469515e+01 -1.120482e+00 1.862513e+01 -1.112980e+00 1.242134e+01 -1.029035e+00 6.123652e+00 -9.790839e-01 -9.491125e-02 -1.050807e+00 -6.210689e+00 -1.235895e+00 -1.221603e+01 -1.591519e+00 -1.807607e+01 -2.022268e+00 -2.395175e+01 -2.433201e+00 -2.982981e+01 -2.872277e+00 -3.576712e+01 -3.403053e+00 -4.195448e+01 -3.768671e+00 -4.659045e+01 -3.503042e+00 -5.131715e+01 -3.351221e+00 -5.600424e+01 -3.271145e+00 -6.051241e+01 -3.289305e+00 -6.474867e+01 -3.389315e+00 -6.867715e+01 -3.500080e+00 -7.230682e+01 
-3.527918e+00 -8.033242e+01 -3.318709e+00 -8.390163e+01 -3.046447e+00 8.074064e+01 -2.783951e+00 7.716795e+01 -2.511619e+00 7.322911e+01 -2.211617e+00 6.900121e+01 -1.826963e+00 6.461932e+01 -1.179815e+00 6.041783e+01 -1.215349e+00 5.426757e+01 -1.470894e+00 4.837145e+01 -1.609077e+00 4.246817e+01 -1.753731e+00 3.654232e+01 -2.018582e+00 3.066275e+01 -2.225004e+00 2.457550e+01 -2.271733e+00 1.835328e+01 -2.248572e+00 1.197609e+01 -2.091225e+00 5.462126e+00 -1.969301e+00 -9.246886e-01 -2.007315e+00 -7.181196e+00 -2.162372e+00 -1.331214e+01 -2.531480e+00 -1.924813e+01 -2.957678e+00 -2.527592e+01 -3.306023e+00 -3.134035e+01 -3.700510e+00 -3.756507e+01 -4.314003e+00 -4.450834e+01 -4.742602e+00 -4.888539e+01 -4.125347e+00 -5.371466e+01 -3.851421e+00 -5.859701e+01 -3.697120e+00 -6.337583e+01 -3.619027e+00 -6.797232e+01 -3.592733e+00 -7.234251e+01 -3.584495e+00 -7.646108e+01 
-3.038925e+00 -7.804149e+01 -2.753096e+00 -8.180568e+01 -2.355993e+00 7.995042e+01 -1.961949e+00 7.617415e+01 -1.556329e+00 7.217022e+01 -1.149649e+00 6.796499e+01 -7.150863e-01 6.362637e+01 -1.582031e-01 5.931759e+01 -1.313495e-01 5.357658e+01 -3.154095e-01 4.791117e+01 -4.561469e-01 4.220198e+01 -6.176690e-01 3.644893e+01 -8.694106e-01 3.070074e+01 -1.082300e+00 2.477833e+01 -1.175856e+00 1.872646e+01 -1.207234e+00 1.253719e+01 -1.142340e+00 6.239420e+00 -1.111123e+00 3.196045e-02 -1.212718e+00 -6.067977e+00 -1.425326e+00 -1.206046e+01 -1.809091e+00 -1.790772e+01 -2.246248e+00 -2.381560e+01 -2.634929e+00 -2.975395e+01 -3.055621e+00 -3.579842e+01 -3.609667e+00 -4.224934e+01 -3.978827e+00 -4.685157e+01 -3.574194e+00 -5.165537e+01 -3.372068e+00 -5.645146e+01 -3.260975e+00 -6.113672e+01 -3.212801e+00 -6.565111e+01 -3.198733e+00 -6.996906e+01 -3.166375e+00 -7.409272e+01 
-3.332435e+00 -8.249976e+01 -3.154968e+00 -8.670295e+01 -2.926524e+00 8.325197e+01 -2.702339e+00 7.903097e+01 -2.453917e+00 7.460003e+01 -2.178979e+00 6.997524e+01 -1.871184e+00 6.517887e+01 -1.555582e+00 6.017015e+01 -1.490327e+00 5.446830e+01 -1.575625e+00 4.860318e+01 -1.687664e+00 4.266547e+01 -1.825140e+00 3.668498e+01 -1.998544e+00 3.067110e+01 -2.144649e+00 2.455287e+01 -2.217366e+00 1.833255e+01 -2.231456e+00 1.201724e+01 -2.195031e+00 5.646240e+00 -2.180150e+00 -6.791988e-01 -2.250339e+00 -6.924018e+00 -2.416790e+00 -1.308019e+01 -2.692953e+00 -1.915252e+01 -3.020499e+00 -2.523076e+01 -3.344716e+00 -3.132800e+01 -3.681867e+00 -3.745727e+01 -4.029961e+00 -4.355224e+01 -4.206517e+00 -4.883379e+01 -4.023512e+00 -5.397129e+01 -3.838522e+00 -5.904159e+01 -3.695000e+00 -6.402035e+01 -3.592280e+00 -6.887421e+01 -3.516122e+00 -7.357896e+01 -3.441535e+00 -7.812158e+01 
-2.771602e+00 -8.055986e+01 -2.527890e+00 -8.499493e+01 -2.211017e+00 8.288941e+01 -1.891220e+00 7.843895e+01 -1.547890e+00 7.389109e+01 -1.193689e+00 6.923154e+01 -8.361765e-01 6.444849e+01 -5.108719e-01 5.947167e+01 -4.140188e-01 5.394025e+01 -4.721820e-01 4.823824e+01 -5.809027e-01 4.245840e+01 -7.265232e-01 3.663143e+01 -9.086904e-01 3.076390e+01 -1.073919e+00 2.480079e+01 -1.181785e+00 1.874071e+01 -1.240511e+00 1.259194e+01 -1.261275e+00 6.392953e+00 -1.305454e+00 2.285307e-01 -1.427468e+00 -5.867115e+00 -1.639459e+00 -1.188618e+01 -1.947622e+00 -1.783779e+01 -2.302177e+00 -2.379323e+01 -2.656562e+00 -2.976443e+01 -3.016066e+00 -3.574962e+01 -3.365661e+00 -4.165951e+01 -3.553571e+00 -4.691574e+01 -3.440729e+00 -5.200249e+01 -3.301034e+00 -5.700960e+01 -3.187426e+00 -6.193155e+01 -3.102035e+00 -6.674932e+01 -3.026845e+00 -7.145417e+01 -2.929579e+00 -7.605208e+01 
-3.209167e+00 -8.483818e+01 -3.046609e+00 -8.967299e+01 -2.849139e+00 8.596275e+01 -2.648940e+00 8.110770e+01 -2.424982e+00 7.616700e+01 -2.180096e+00 7.112180e+01 -1.923310e+00 6.595079e+01 -1.694915e+00 6.058487e+01 -1.616451e+00 5.483113e+01 -1.654733e+00 4.890798e+01 -1.743414e+00 4.290684e+01 -1.864270e+00 3.686286e+01 -2.008124e+00 3.078144e+01 -2.136844e+00 2.462993e+01 -2.220806e+00 1.840390e+01 -2.262735e+00 1.211194e+01 -2.276654e+00 5.786904e+00 -2.308321e+00 -5.113433e-01 -2.399697e+00 -6.752542e+00 -2.564880e+00 -1.292915e+01 -2.804728e+00 -1.905233e+01 -3.084329e+00 -2.516777e+01 -3.368649e+00 -3.128548e+01 -3.649636e+00 -3.738817e+01 -3.900141e+00 -4.337564e+01 -4.015814e+00 -4.892559e+01 -3.923704e+00 -5.429504e+01 -3.783773e+00 -5.957743e+01 -3.651705e+00 -6.478904e+01 -3.538752e+00 -6.992399e+01 -3.438279e+00 -7.497573e+01 -3.334847e+00 -7.994431e+01 
-2.593206e+00 -8.314659e+01 -2.379759e+00 -8.821971e+01 -2.118662e+00 8.589281e+01 -1.847380e+00 8.080520e+01 -1.552433e+00 7.572599e+01 -1.242257e+00 7.062295e+01 -9.261248e-01 6.546600e+01 -6.387168e-01 6.018093e+01 -5.398403e-01 5.447403e+01 -5.776330e-01 4.864310e+01 -6.684426e-01 4.276200e+01 -7.987538e-01 3.685411e+01 -9.652632e-01 3.092231e+01 -1.122855e+00 2.492024e+01 -1.236769e+00 1.884368e+01 -1.311434e+00 1.269735e+01 -1.356172e+00 6.512240e+00 -1.421781e+00 3.562685e-01 -1.552269e+00 -5.742918e+00 -1.757529e+00 -1.177980e+01 -2.040256e+00 -1.776444e+01 -2.358285e+00 -2.375506e+01 -2.672885e+00 -2.976108e+01 -2.985510e+00 -3.577724e+01 -3.279840e+00 -4.172445e+01 -3.433074e+00 -4.714767e+01 -3.334654e+00 -5.242887e+01 -3.203847e+00 -5.765259e+01 -3.085595e+00 -6.283001e+01 -2.981254e+00 -6.795951e+01 -2.877757e+00 -7.304468e+01 -2.755233e+00 -7.809916e+01 
-3.125641e+00 -8.723216e+01 -2.977056e+00 -9.266357e+01 -2.805135e+00 8.872423e+01 -2.622549e+00 8.327360e+01 -2.419135e+00 7.784093e+01 -2.194504e+00 7.239597e+01 -1.948290e+00 6.691937e+01 -1.686470e+00 6.138794e+01 -1.624731e+00 5.536347e+01 -1.682756e+00 4.929092e+01 -1.766657e+00 4.319116e+01 -1.880309e+00 3.707799e+01 -2.033053e+00 3.096165e+01 -2.173798e+00 2.478153e+01 -2.266190e+00 1.854123e+01 -2.321754e+00 1.224000e+01 -2.340066e+00 5.901006e+00 -2.376601e+00 -4.005511e-01 -2.475252e+00 -6.645754e+00 -2.638424e+00 -1.283188e+01 -2.877087e+00 -1.896015e+01 -3.143445e+00 -2.510257e+01 -3.395649e+00 -3.125814e+01 -3.646980e+00 -3.743494e+01 -3.903008e+00 -4.363729e+01 -4.035151e+00 -4.919672e+01 -3.872438e+00 -5.470524e+01 -3.721304e+00 -6.018348e+01 -3.589331e+00 -6.563359e+01 -3.472947e+00 -7.105571e+01 -3.364093e+00 -7.645391e+01 -3.252042e+00 -8.183935e+01 
-2.468910e+00 -8.570406e+01 -2.282932e+00 -9.136592e+01 -2.065618e+00 8.884212e+01 -1.830275e+00 8.316658e+01 -1.574347e+00 7.758720e+01 -1.298332e+00 7.207026e+01 -9.889239e-01 6.661434e+01 -5.811976e-01 6.131329e+01 -5.278183e-01 5.513207e+01 -6.296485e-01 4.909834e+01 -7.162776e-01 4.309242e+01 -8.346819e-01 3.710034e+01 -1.030995e+00 3.115068e+01 -1.215350e+00 2.511416e+01 -1.330839e+00 1.901642e+01 -1.411963e+00 1.284176e+01 -1.429619e+00 6.602528e+00 -1.473024e+00 4.270515e-01 -1.602261e+00 -5.681249e+00 -1.798153e+00 -1.172619e+01 -2.097965e+00 -1.768557e+01 -2.417766e+00 -2.370168e+01 -2.690981e+00 -2.974784e+01 -2.972486e+00 -3.587455e+01 -3.332219e+00 -4.231373e+01 -3.567487e+00 -4.751954e+01 -3.261796e+00 -5.291200e+01 -3.094375e+00 -5.834139e+01 -2.970101e+00 -6.377571e+01 -2.860102e+00 -6.921300e+01 -2.748638e+00 -7.466430e+01 -2.622088e+00 -8.015089e+01 
-3.066835e+00 -8.958485e+01 -2.934386e+00 -9.556398e+01 -2.786598e+00 9.142183e+01 -2.619965e+00 8.542431e+01 -2.436633e+00 7.952931e+01 -2.232071e+00 7.370375e+01 -1.990583e+00 6.794579e+01 -1.652304e+00 6.233854e+01 -1.621171e+00 5.595224e+01 -1.721063e+00 4.970876e+01 -1.801203e+00 4.350060e+01 -1.905234e+00 3.731344e+01 -2.075953e+00 3.117223e+01 -2.233666e+00 2.496039e+01 -2.327826e+00 1.870037e+01 -2.389479e+00 1.237708e+01 -2.392291e+00 6.000277e+00 -2.416009e+00 -3.160115e-01 -2.514262e+00 -6.569855e+00 -2.669716e+00 -1.276532e+01 -2.916091e+00 -1.888267e+01 -3.178295e+00 -2.504986e+01 -3.397008e+00 -3.124357e+01 -3.622808e+00 -3.751183e+01 -3.920448e+00 -4.406555e+01 -4.108083e+00 -4.951702e+01 -3.810328e+00 -5.514507e+01 -3.639962e+00 -6.081710e+01 -3.511645e+00 -6.650538e+01 -3.400103e+00 -7.221024e+01 -3.294030e+00 -7.794333e+01 -3.185215e+00 -8.372497e+01 
-2.379962e+00 -8.815019e+01 -2.220945e+00 -9.434402e+01 -2.041754e+00 9.164377e+01 -1.836760e+00 8.543445e+01 -1.618499e+00 7.938792e+01 -1.389255e+00 7.345772e+01 -1.150786e+00 6.760749e+01 -9.126037e-01 6.179191e+01 -8.343349e-01 5.567057e+01 -8.589388e-01 4.955614e+01 -9.159182e-01 4.345963e+01 -1.006642e+00 3.738070e+01 -1.137249e+00 3.131886e+01 -1.268639e+00 2.522371e+01 -1.371810e+00 1.909307e+01 -1.453202e+00 1.292322e+01 -1.511555e+00 6.729220e+00 -1.586841e+00 5.650709e-01 -1.710601e+00 -5.556574e+00 -1.883367e+00 -1.163540e+01 -2.111011e+00 -1.767469e+01 -2.356050e+00 -2.372969e+01 -2.586003e+00 -2.980311e+01 -2.811159e+00 -3.590610e+01 -3.035218e+00 -4.203653e+01 -3.157257e+00 -4.770673e+01 -3.050143e+00 -5.335849e+01 -2.941871e+00 -5.902498e+01 -2.840719e+00 -6.471785e+01 -2.741094e+00 -7.045156e+01 -2.635722e+00 -7.624726e+01 -2.517313e+00 -8.213410e+01 
-3.024559e+00 -9.181648e+01 -2.910442e+00 -9.828750e+01 -2.787052e+00 9.396525e+01 -2.636978e+00 8.747433e+01 -2.477388e+00 8.114957e+01 -2.307712e+00 7.494430e+01 -2.129362e+00 6.881915e+01 -1.958071e+00 6.271674e+01 -1.900210e+00 5.641953e+01 -1.922215e+00 5.011700e+01 -1.974223e+00 4.383344e+01 -2.052683e+00 3.757047e+01 -2.158611e+00 3.132412e+01 -2.263781e+00 2.505925e+01 -2.346341e+00 1.877042e+01 -2.408993e+00 1.245540e+01 -2.454279e+00 6.127484e+00 -2.511984e+00 -1.750532e-01 -2.606775e+00 -6.440371e+00 -2.741736e+00 -1.266804e+01 -2.918514e+00 -1.886439e+01 -3.109718e+00 -2.506808e+01 -3.290982e+00 -3.128533e+01 -3.465822e+00 -3.752144e+01 -3.629435e+00 -4.374828e+01 -3.706304e+00 -4.966361e+01 -3.619646e+00 -5.554150e+01 -3.516503e+00 -6.143430e+01 -3.417531e+00 -6.736005e+01 -3.322465e+00 -7.333568e+01 -3.227807e+00 -7.938304e+01 -3.129647e+00 -8.553088e+01 
-2.315241e+00 -9.041692e+01 -2.182594e+00 -9.708183e+01 -2.037637e+00 9.422455e+01 -1.859554e+00 8.754125e+01 -1.675844e+00 8.107358e+01 -1.490898e+00 7.476595e+01 -1.313135e+00 6.856598e+01 -1.162097e+00 6.241130e+01 -1.085232e+00 5.620351e+01 -1.073171e+00 4.999899e+01 -1.101899e+00 4.381483e+01 -1.162219e+00 3.765233e+01 -1.247268e+00 3.150478e+01 -1.339817e+00 2.535328e+01 -1.426089e+00 1.919051e+01 -1.504809e+00 1.301536e+01 -1.580050e+00 6.837056e+00 -1.668174e+00 6.753344e-01 -1.783717e+00 -5.460705e+00 -1.930236e+00 -1.157057e+01 -2.105161e+00 -1.766097e+01 -2.292038e+00 -2.375062e+01 -2.473962e+00 -2.984439e+01 -2.643295e+00 -3.593716e+01 -2.785730e+00 -4.199627e+01 -2.860514e+00 -4.791228e+01 -2.839791e+00 -5.379018e+01 -2.782565e+00 -5.968197e+01 -2.710366e+00 -6.561868e+01 -2.628695e+00 -7.162740e+01 -2.537115e+00 -7.773809e+01 -2.433313e+00 -8.398668e+01 
-2.993799e+00 -9.386175e+01 -2.899119e+00 -1.007647e+02 -2.799743e+00 9.628419e+01 -2.666473e+00 8.935921e+01 -2.530422e+00 8.265120e+01 -2.393628e+00 7.610543e+01 -2.262438e+00 6.967087e+01 -2.153070e+00 6.329029e+01 -2.098340e+00 5.689212e+01 -2.093338e+00 5.050643e+01 -2.120958e+00 4.414587e+01 -2.172888e+00 3.781079e+01 -2.242508e+00 3.149446e+01 -2.316684e+00 2.518213e+01 -2.384893e+00 1.886671e+01 -2.445839e+00 1.254686e+01 -2.503581e+00 6.229496e+00 -2.570854e+00 -7.128101e-02 -2.659212e+00 -6.348492e+00 -2.772084e+00 -1.260223e+01 -2.906944e+00 -1.883888e+01 -3.051211e+00 -2.507264e+01 -3.191450e+00 -3.130823e+01 -3.319774e+00 -3.754077e+01 -3.422873e+00 -4.374278e+01 -3.470667e+00 -4.984664e+01 -3.446078e+00 -5.592277e+01 -3.389320e+00 -6.201829e+01 -3.320110e+00 -6.816444e+01 -3.245293e+00 -7.438883e+01 -3.166352e+00 -8.072155e+01 -3.082801e+00 -8.719815e+01 
-2.267719e+00 -9.244821e+01 -2.160034e+00 -9.952066e+01 -2.045466e+00 9.652633e+01 -1.891131e+00 8.943327e+01 -1.736819e+00 8.260000e+01 -1.587184e+00 7.596721e+01 -1.450299e+00 6.948001e+01 -1.339363e+00 6.308490e+01 -1.271558e+00 5.673331e+01 -1.246819e+00 5.042156e+01 -1.256536e+00 4.414841e+01 -1.293342e+00 3.790891e+01 -1.350074e+00 3.169458e+01 -1.417416e+00 2.549414e+01 -1.488008e+00 1.930036e+01 -1.559897e+00 1.311077e+01 -1.635589e+00 6.928379e+00 -1.722113e+00 7.598927e-01 -1.825938e+00 -5.391072e+00 -1.948821e+00 -1.152538e+01 -2.087569e+00 -1.764814e+01 -2.233087e+00 -2.376753e+01 -2.374533e+00 -2.988682e+01 -2.502138e+00 -3.600216e+01 -2.603311e+00 -4.209885e+01 -2.660624e+00 -4.815541e+01 -2.666654e+00 -5.420773e+01 -2.638861e+00 -6.029377e+01 -2.590256e+00 -6.644717e+01 -2.527242e+00 -7.270081e+01 -2.452156e+00 -7.909039e+01 -2.365531e+00 -8.565688e+01 
-2.971272e+00 -9.566754e+01 -2.895859e+00 -1.029397e+02 -2.818996e+00 9.832293e+01 -2.701842e+00 9.102740e+01 -2.586573e+00 8.399101e+01 -2.475792e+00 7.715585e+01 -2.375261e+00 7.046930e+01 -2.294968e+00 6.388207e+01 -2.247127e+00 5.735244e+01 -2.232121e+00 5.087084e+01 -2.243661e+00 4.443286e+01 -2.275674e+00 3.803233e+01 -2.322126e+00 3.166076e+01 -2.375728e+00 2.530812e+01 -2.430817e+00 1.896747e+01 -2.485922e+00 1.263591e+01 -2.543323e+00 6.314973e+00 -2.608676e+00 8.910622e-03 -2.687225e+00 -6.280144e+00 -2.780574e+00 -1.255362e+01 -2.886161e+00 -1.881638e+01 -2.996849e+00 -2.507544e+01 -3.103873e+00 -3.133427e+01 -3.198830e+00 -3.759077e+01 -3.271297e+00 -4.383526e+01 -3.308355e+00 -5.005697e+01 -3.305415e+00 -5.628437e+01 -3.275274e+00 -6.255142e+01 -3.229099e+00 -6.889032e+01 -3.173295e+00 -7.533338e+01 -3.110921e+00 -8.191584e+01 -3.043315e+00 -8.867812e+01 
-2.232777e+00 -9.419836e+01 -2.147876e+00 -1.016130e+02 -2.059701e+00 9.850181e+01 -1.925970e+00 9.106564e+01 -1.795667e+00 8.392624e+01 -1.672716e+00 7.702327e+01 -1.563140e+00 7.030243e+01 -1.474863e+00 6.371545e+01 -1.415527e+00 5.722347e+01 -1.386484e+00 5.080558e+01 -1.384462e+00 4.444833e+01 -1.404867e+00 3.814030e+01 -1.442552e+00 3.187045e+01 -1.491967e+00 2.562832e+01 -1.548772e+00 1.940604e+01 -1.611269e+00 1.319900e+01 -1.680351e+00 7.005818e+00 -1.758826e+00 8.269038e-01 -1.849209e+00 -5.338155e+00 -1.951676e+00 -1.149185e+01 -2.063366e+00 -1.763880e+01 -2.178336e+00 -2.378463e+01 -2.289031e+00 -2.993329e+01 -2.387448e+00 -3.608591e+01 -2.464827e+00 -4.224142e+01 -2.512664e+00 -4.840250e+01 -2.528037e+00 -5.459136e+01 -2.516734e+00 -6.083804e+01 -2.485478e+00 -6.717522e+01 -2.439049e+00 -7.363808e+01 -2.380297e+00 -8.026559e+01 -2.310998e+00 -8.710206e+01 
-2.954748e+00 -9.719109e+01 -2.897457e+00 -1.047679e+02 -2.840863e+00 1.000365e+02 -2.738539e+00 9.243612e+01 -2.640741e+00 8.512951e+01 -2.549679e+00 7.805779e+01 -2.469426e+00 7.116867e+01 -2.405666e+00 6.441649e+01 -2.363817e+00 5.776482e+01 -2.344867e+00 5.119170e+01 -2.346291e+00 4.468239e+01 -2.364360e+00 3.822486e+01 -2.394885e+00 3.180811e+01 -2.433502e+00 2.542210e+01 -2.476885e+00 1.905914e+01 -2.523816e+00 1.271437e+01 -2.575193e+00 6.385583e+00 -2.633393e+00 7.207375e-02 -2.700555e+00 -6.227423e+00 -2.776969e+00 -1.251581e+01 -2.860438e+00 -1.879769e+01 -2.946293e+00 -2.507853e+01 -3.028475e+00 -3.136273e+01 -3.100460e+00 -3.765283e+01 -3.155276e+00 -4.395044e+01 -3.186600e+00 -5.026141e+01 -3.192632e+00 -5.660616e+01 -3.178031e+00 -6.301260e+01 -3.148650e+00 -6.951199e+01 -3.109053e+00 -7.613852e+01 -3.062263e+00 -8.293039e+01 -3.010287e+00 -8.993120e+01 
-2.207303e+00 -9.563075e+01 -2.142566e+00 -1.033211e+02 -2.076847e+00 1.001124e+02 -1.960775e+00 9.240078e+01 -1.849827e+00 8.501588e+01 -1.746970e+00 7.789721e+01 -1.656340e+00 7.099111e+01 -1.582707e+00 6.425116e+01 -1.530094e+00 5.763958e+01 -1.499766e+00 5.112898e+01 -1.490453e+00 4.469903e+01 -1.499506e+00 3.833346e+01 -1.523622e+00 3.201855e+01 -1.559379e+00 2.574262e+01 -1.604041e+00 1.949646e+01 -1.656209e+00 1.327339e+01 -1.715845e+00 7.068971e+00 -1.783759e+00 8.800276e-01 -1.860532e+00 -5.296650e+00 -1.945459e+00 -1.146516e+01 -2.036047e+00 -1.763066e+01 -2.128026e+00 -2.379899e+01 -2.215971e+00 -2.997587e+01 -2.293984e+00 -3.616681e+01 -2.356170e+00 -4.237838e+01 -2.397695e+00 -4.862169e+01 -2.416775e+00 -5.491708e+01 -2.415385e+00 -6.129175e+01 -2.396896e+00 -6.777760e+01 -2.364477e+00 -7.441075e+01 -2.320656e+00 -8.123201e+01 -2.267549e+00 -8.828773e+01 
-2.942688e+00 -9.839876e+01 -2.901822e+00 -1.062145e+02 -2.862965e+00 1.013887e+02 -2.774018e+00 9.355017e+01 -2.690780e+00 8.603260e+01 -2.614809e+00 7.877688e+01 -2.548710e+00 7.173102e+01 -2.495696e+00 6.485038e+01 -2.458495e+00 5.809864e+01 -2.437890e+00 5.144869e+01 -2.432780e+00 4.488009e+01 -2.440995e+00 3.837659e+01 -2.459883e+00 3.192467e+01 -2.486775e+00 2.551300e+01 -2.519611e+00 1.913262e+01 -2.557430e+00 1.277683e+01 -2.600380e+00 6.440902e+00 -2.649285e+00 1.211986e-01 -2.704779e+00 -6.185860e+00 -2.766468e+00 -1.248456e+01 -2.832501e+00 -1.878009e+01 -2.899584e+00 -2.507834e+01 -2.963460e+00 -3.138534e+01 -3.019472e+00 -3.770740e+01 -3.063056e+00 -4.405228e+01 -3.090645e+00 -5.043200e+01 -3.101147e+00 -5.686622e+01 -3.096387e+00 -6.338087e+01 -3.079433e+00 -7.000663e+01 -3.053287e+00 -7.677853e+01 -3.020436e+00 -8.373644e+01 -2.982932e+00 -9.092585e+01 
-2.189180e+00 -9.671694e+01 -2.141861e+00 -1.046156e+02 -2.094923e+00 1.013272e+02 -1.993936e+00 9.340821e+01 -1.898651e+00 8.583868e+01 -1.811167e+00 7.855822e+01 -1.734247e+00 7.151349e+01 -1.670852e+00 6.465842e+01 -1.623365e+00 5.795466e+01 -1.592782e+00 5.137167e+01 -1.578659e+00 4.488526e+01 -1.579540e+00 3.847593e+01 -1.593422e+00 3.212762e+01 -1.618185e+00 2.582712e+01 -1.652046e+00 1.956375e+01 -1.693881e+00 1.332911e+01 -1.743233e+00 7.116624e+00 -1.799999e+00 9.208502e-01 -1.863866e+00 -5.263368e+00 -1.933759e+00 -1.144152e+01 -2.007526e+00 -1.761974e+01 -2.081953e+00 -2.380488e+01 -2.153073e+00 -3.000447e+01 -2.216625e+00 -3.622711e+01 -2.268549e+00 -4.248360e+01 -2.305702e+00 -4.878881e+01 -2.326677e+00 -5.516355e+01 -2.332003e+00 -6.163435e+01 -2.323337e+00 -6.823285e+01 -2.302687e+00 -7.499561e+01 -2.272061e+00 -8.196443e+01 -2.233481e+00 -8.918687e+01 
-2.934027e+00 -9.926510e+01 -2.907689e+00 -1.072531e+02 -2.884070e+00 1.023516e+02 -2.807173e+00 9.434190e+01 -2.736233e+00 8.667295e+01 -2.672182e+00 7.928555e+01 -2.616567e+00 7.212780e+01 -2.571200e+00 6.515514e+01 -2.537556e+00 5.833052e+01 -2.516164e+00 5.162422e+01 -2.506526e+00 4.501261e+01 -2.507419e+00 3.847667e+01 -2.517251e+00 3.200090e+01 -2.534408e+00 2.557259e+01 -2.557604e+00 1.918147e+01 -2.586120e+00 1.281942e+01 -2.619795e+00 6.479969e+00 -2.658759e+00 1.576496e-01 -2.702980e+00 -6.152698e+00 -2.751805e+00 -1.245651e+01 -2.803710e+00 -1.875984e+01 -2.856296e+00 -2.506946e+01 -2.906548e+00 -3.139296e+01 -2.951207e+00 -3.773921e+01 -2.987215e+00 -4.411930e+01 -3.012302e+00 -5.054815e+01 -3.025603e+00 -5.704594e+01 -3.027794e+00 -6.363820e+01 -3.020481e+00 -7.035541e+01 -3.005580e+00 -7.723300e+01 -2.984979e+00 -8.431168e+01 -2.960502e+00 -9.163802e+01 
-2.176985e+00 -9.743603e+01 -2.144442e+00 -1.054752e+02 -2.112971e+00 1.021230e+02 -2.024939e+00 9.406475e+01 -1.942487e+00 8.637148e+01 -1.867027e+00 7.898290e+01 -1.800383e+00 7.184580e+01 -1.744459e+00 6.491410e+01 -1.700791e+00 5.814879e+01 -1.670159e+00 5.151765e+01 -1.652502e+00 4.499432e+01 -1.647084e+00 3.855728e+01 -1.652753e+00 3.218883e+01 -1.668227e+00 2.587445e+01 -1.692352e+00 1.960227e+01 -1.724270e+00 1.336263e+01 -1.763416e+00 7.147536e+00 -1.809332e+00 9.500808e-01 -1.861369e+00 -5.236198e+00 -1.918383e+00 -1.141786e+01 -1.978560e+00 -1.760197e+01 -2.039423e+00 -2.379639e+01 -2.098021e+00 -3.001007e+01 -2.151229e+00 -3.625361e+01 -2.196129e+00 -4.254016e+01 -2.230446e+00 -4.888649e+01 -2.252945e+00 -5.531408e+01 -2.263519e+00 -6.184945e+01 -2.262901e+00 -6.852414e+01 -2.252310e+00 -7.537490e+01 -2.233241e+00 -8.244396e+01 -2.207438e+00 -8.977946e+01 
-2.928053e+00 -9.977232e+01 -2.914392e+00 -1.078655e+02 -2.903711e+00 1.029048e+02 -2.837810e+00 9.479122e+01 -2.777530e+00 8.703058e+01 -2.723280e+00 7.956376e+01 -2.675878e+00 7.233894e+01 -2.636313e+00 6.531151e+01 -2.605403e+00 5.844383e+01 -2.583493e+00 5.170488e+01 -2.570378e+00 4.506931e+01 -2.565411e+00 3.851650e+01 -2.567705e+00 3.202962e+01 -2.576338e+00 2.559492e+01 -2.590556e+00 1.920121e+01 -2.609889e+00 1.283939e+01 -2.634130e+00 6.501874e+00 -2.663175e+00 1.820989e-01 -2.696772e+00 -6.126103e+00 -2.734266e+00 -1.242900e+01 -2.774454e+00 -1.873335e+01 -2.815585e+00 -2.504674e+01 -2.855510e+00 -3.137790e+01 -2.891932e+00 -3.773724e+01 -2.922727e+00 -4.413764e+01 -2.946297e+00 -5.059546e+01 -2.961874e+00 -5.713138e+01 -2.969587e+00 -6.377085e+01 -2.970230e+00 -7.054423e+01 -2.964973e+00 -7.748700e+01 -2.955168e+00 -8.464017e+01 -2.942303e+00 -9.205076e+01 
-2.169830e+00 -9.777434e+01 -2.149645e+00 -1.058858e+02 -2.130713e+00 1.024840e+02 -2.053944e+00 9.435460e+01 -1.982188e+00 8.659841e+01 -1.916336e+00 7.915528e+01 -1.857590e+00 7.197217e+01 -1.807218e+00 6.500302e+01 -1.766283e+00 5.820851e+01 -1.735428e+00 5.155562e+01 -1.714794e+00 4.501697e+01 -1.704088e+00 3.856993e+01 -1.702722e+00 3.219588e+01 -1.709982e+00 2.587951e+01 -1.725168e+00 1.960822e+01 -1.747692e+00 1.337157e+01 -1.777058e+00 7.160774e+00 -1.812759e+00 9.680987e-01 -1.854106e+00 -5.213682e+00 -1.900062e+00 -1.139180e+01 -1.949142e+00 -1.757395e+01 -1.999423e+00 -2.376868e+01 -2.048665e+00 -2.998586e+01 -2.094513e+00 -3.623720e+01 -2.134754e+00 -4.253702e+01 -2.167593e+00 -4.890302e+01 -2.191876e+00 -5.535703e+01 -2.207155e+00 -6.192549e+01 -2.213608e+00 -6.863979e+01 -2.211883e+00 -7.553653e+01 -2.203012e+00 -8.265793e+01 -2.188389e+00 -9.005228e+01 
-2.924340e+00 -9.990995e+01 -2.921689e+00 -1.080409e+02 -2.921930e+00 1.030360e+02 -2.866294e+00 9.488573e+01 -2.815562e+00 8.709306e+01 -2.769718e+00 7.959902e+01 -2.729081e+00 7.235204e+01 -2.694134e+00 6.530764e+01 -2.665319e+00 5.842811e+01 -2.642871e+00 5.168193e+01 -2.626749e+00 4.504310e+01 -2.616680e+00 3.849028e+01 -2.612253e+00 3.200606e+01 -2.613038e+00 2.557620e+01 -2.618692e+00 1.918904e+01 -2.629007e+00 1.283501e+01 -2.643889e+00 6.506010e+00 -2.663253e+00 1.949461e-01 -2.686877e+00 -6.104846e+00 -2.714249e+00 -1.240006e+01 -2.744489e+00 -1.869787e+01 -2.776343e+00 -2.500631e+01 -2.808279e+00 -3.133472e+01 -2.838653e+00 -3.769429e+01 -2.865920e+00 -4.409868e+01 -2.888855e+00 -5.056481e+01 -2.906728e+00 -5.711349e+01 -2.919352e+00 -6.376993e+01 -2.927012e+00 -7.056414e+01 -2.930338e+00 -7.753133e+01 -2.930213e+00 -8.471229e+01 -2.927754e+00 -9.215398e+01 