# vtk DataFile Version 2.0
Comment goes here
ASCII

DATASET STRUCTURED_POINTS
FIELD FieldData 1
TIME 1 1 double
0.05400000
DIMENSIONS    64   64   1

ORIGIN    0.000   0.000   0.000
SPACING   0.03125 0.03125   1.000

POINT_DATA   4096
SCALARS P double
LOOKUP_TABLE default

-3.775252e+01 -1.932632e+02 -2.253908e+01 -2.064674e+02 6.677410e+01 1.177586e+02 -2.054005e+01 1.138980e+02 -3.089262e+01 1.096797e+02 -3.675243e+01 9.905270e+01 -3.648331e+01 8.555037e+01 -3.555955e+01 7.405884e+01 -3.624208e+01 6.221175e+01 -3.245231e+01 4.470909e+01 -2.659136e+01 2.634856e+01 -1.985055e+01 7.711354e+00 -1.532466e+01 -6.497690e+00 -1.624179e+01 -1.440795e+01 -2.317694e+01 -1.982817e+01 -2.910573e+01 -2.570896e+01 -3.641640e+01 -3.014551e+01 -4.249794e+01 -3.956004e+01 -4.394004e+01 -5.024197e+01 -4.595598e+01 -6.041451e+01 -5.048951e+01 -6.623233e+01 -5.863542e+01 -7.255717e+01 -6.481367e+01 -8.023540e+01 -7.203495e+01 -8.703883e+01 -7.751625e+01 -9.630656e+01 -7.825301e+01 -1.085400e+02 -7.606430e+01 -1.198693e+02 -7.474253e+01 -1.317145e+02 -6.898491e+01 -1.488618e+02 -5.886417e+01 -1.676178e+02 -4.810031e+01 -1.845419e+02 -3.727515e+01 -1.971775e+02 
-1.050467e+01 -1.249221e+02 -1.117461e+00 -1.346727e+02 6.499011e+01 1.073055e+02 2.076547e-01 1.032804e+02 -5.735776e+00 9.924520e+01 -9.073760e+00 9.158853e+01 -9.072620e+00 8.246573e+01 -9.013291e+00 7.461928e+01 -1.032630e+01 6.677335e+01 -9.354704e+00 5.563694e+01 -7.307415e+00 4.409044e+01 -4.546961e+00 3.209011e+01 -2.574235e+00 2.205920e+01 -3.180338e+00 1.505730e+01 -6.601019e+00 8.958242e+00 -8.816457e+00 2.371416e+00 -1.174826e+01 -3.210266e+00 -1.414133e+01 -1.146978e+01 -1.412970e+01 -2.024346e+01 -1.456922e+01 -2.888382e+01 -1.636319e+01 -3.509617e+01 -2.015903e+01 -4.168470e+01 -2.277426e+01 -4.887409e+01 -2.614521e+01 -5.523853e+01 -2.875028e+01 -6.261915e+01 -2.880381e+01 -7.149847e+01 -2.733802e+01 -7.950004e+01 -2.691318e+01 -8.729369e+01 -2.431673e+01 -9.774646e+01 -1.962214e+01 -1.086468e+02 -1.474797e+01 -1.185245e+02 -9.280174e+00 -1.266514e+02 
5.795391e+00 -8.729898e+01 8.790039e+00 -9.216721e+01 3.102545e+01 9.983575e+01 9.717449e+00 9.607952e+01 8.111947e+00 9.175067e+01 7.016678e+00 8.628691e+01 6.521001e+00 8.028758e+01 5.913003e+00 7.435396e+01 4.779005e+00 6.833161e+01 4.078832e+00 6.142818e+01 3.646680e+00 5.440787e+01 3.472903e+00 4.707882e+01 3.335547e+00 3.979980e+01 2.907383e+00 3.284456e+01 2.139352e+00 2.579552e+01 1.907446e+00 1.850961e+01 1.599889e+00 1.157545e+01 1.389945e+00 4.206546e+00 1.583171e+00 -3.116431e+00 1.559876e+00 -1.050771e+01 1.320144e+00 -1.748827e+01 7.704733e-01 -2.456483e+01 6.024187e-01 -3.163017e+01 3.669451e-01 -3.830976e+01 3.346749e-01 -4.492032e+01 8.394577e-01 -5.163344e+01 1.558251e+00 -5.791056e+01 1.776522e+00 -6.372727e+01 2.268813e+00 -6.966135e+01 3.102880e+00 -7.519125e+01 4.022153e+00 -8.024785e+01 5.463324e+00 -8.505777e+01 
6.097207e+00 -8.956874e+01 9.124257e+00 -9.352280e+01 1.195634e+01 1.004782e+02 9.907973e+00 9.671216e+01 7.963223e+00 9.212620e+01 6.654648e+00 8.667420e+01 5.941253e+00 8.069560e+01 5.316811e+00 7.453882e+01 4.388471e+00 6.824101e+01 3.662869e+00 6.118216e+01 3.308698e+00 5.387671e+01 3.164496e+00 4.643223e+01 3.047471e+00 3.910552e+01 2.696452e+00 3.201536e+01 2.156768e+00 2.498722e+01 1.890573e+00 1.794088e+01 1.726065e+00 1.097992e+01 1.646708e+00 3.774687e+00 1.715495e+00 -3.515117e+00 1.637473e+00 -1.080934e+01 1.279426e+00 -1.788682e+01 6.399644e-01 -2.492043e+01 2.963085e-02 -3.186141e+01 -5.828489e-01 -3.857494e+01 -9.341471e-01 -4.518158e+01 -6.983736e-01 -5.186140e+01 -1.380553e-01 -5.826810e+01 3.220504e-01 -6.437746e+01 1.038687e+00 -7.045538e+01 2.075999e+00 -7.624632e+01 3.315766e+00 -8.157328e+01 4.826777e+00 -8.622758e+01 
6.390861e+00 -8.920121e+01 8.652406e+00 -9.312671e+01 1.115090e+01 1.001364e+02 9.397959e+00 9.636255e+01 7.956589e+00 9.178388e+01 6.941586e+00 8.647752e+01 6.297093e+00 8.068419e+01 5.719932e+00 7.458377e+01 4.791635e+00 6.824702e+01 4.108569e+00 6.135454e+01 3.678724e+00 5.433887e+01 3.366322e+00 4.720310e+01 3.082770e+00 4.004727e+01 2.640639e+00 3.289676e+01 2.124103e+00 2.574016e+01 1.826754e+00 1.859542e+01 1.661797e+00 1.150935e+01 1.578632e+00 4.299858e+00 1.576059e+00 -2.944540e+00 1.469126e+00 -1.020538e+01 1.194659e+00 -1.738944e+01 7.847654e-01 -2.456049e+01 4.711909e-01 -3.165202e+01 2.737386e-01 -3.855970e+01 3.108469e-01 -4.527112e+01 8.864272e-01 -5.179901e+01 1.440747e+00 -5.806772e+01 1.824559e+00 -6.406491e+01 2.341350e+00 -6.992845e+01 3.077181e+00 -7.551113e+01 4.005980e+00 -8.070703e+01 5.199419e+00 -8.544305e+01 
6.015851e+00 -9.151328e+01 8.156487e+00 -9.555957e+01 1.010999e+01 1.006313e+02 8.883816e+00 9.682760e+01 7.483828e+00 9.217294e+01 6.397494e+00 8.684815e+01 5.705199e+00 8.104995e+01 5.245500e+00 7.474982e+01 4.575465e+00 6.829357e+01 3.751584e+00 6.107329e+01 3.310405e+00 5.389244e+01 3.024337e+00 4.668530e+01 2.809966e+00 3.947869e+01 2.437728e+00 3.221927e+01 2.008620e+00 2.504539e+01 1.742205e+00 1.802051e+01 1.669781e+00 1.100873e+01 1.651023e+00 3.900811e+00 1.615233e+00 -3.277102e+00 1.442577e+00 -1.049216e+01 1.043410e+00 -1.772640e+01 4.832189e-01 -2.493339e+01 -9.608978e-02 -3.204010e+01 -5.977221e-01 -3.903196e+01 -8.328158e-01 -4.572619e+01 -4.203454e-01 -5.236664e+01 6.998431e-02 -5.870982e+01 5.193519e-01 -6.485591e+01 1.178963e+00 -7.090117e+01 2.081584e+00 -7.672813e+01 3.196581e+00 -8.219570e+01 4.531507e+00 -8.716454e+01 
6.112920e+00 -9.168739e+01 7.794386e+00 -9.613042e+01 9.520870e+00 1.010615e+02 8.482985e+00 9.698299e+01 7.369644e+00 9.227585e+01 6.496720e+00 8.702254e+01 5.918872e+00 8.133894e+01 5.539761e+00 7.520379e+01 4.805041e+00 6.815838e+01 4.042059e+00 6.129370e+01 3.608997e+00 5.430959e+01 3.251276e+00 4.731744e+01 2.991012e+00 4.026551e+01 2.492053e+00 3.296612e+01 1.967646e+00 2.570486e+01 1.670968e+00 1.864450e+01 1.653832e+00 1.156837e+01 1.683348e+00 4.406828e+00 1.669955e+00 -2.789788e+00 1.531681e+00 -9.997723e+00 1.187955e+00 -1.729799e+01 7.371649e-01 -2.461959e+01 3.219030e-01 -3.187757e+01 5.232821e-02 -3.913162e+01 -5.811143e-02 -4.616839e+01 8.769975e-01 -5.223714e+01 1.365707e+00 -5.839163e+01 1.705364e+00 -6.449547e+01 2.226414e+00 -7.051242e+01 2.924086e+00 -7.632175e+01 3.794334e+00 -8.183634e+01 4.862119e+00 -8.698681e+01 
5.358148e+00 -9.401855e+01 6.922435e+00 -9.878146e+01 8.395563e+00 1.019019e+02 7.605258e+00 9.756696e+01 6.624676e+00 9.269804e+01 5.744644e+00 8.733748e+01 5.079473e+00 8.168026e+01 4.745870e+00 7.615698e+01 5.262700e+00 6.763024e+01 3.709084e+00 6.094101e+01 3.080830e+00 5.389462e+01 2.851386e+00 4.691684e+01 2.703898e+00 3.992243e+01 2.292167e+00 3.237707e+01 1.826071e+00 2.499710e+01 1.471644e+00 1.810256e+01 1.570305e+00 1.112880e+01 1.660587e+00 4.050280e+00 1.625938e+00 -3.074617e+00 1.436840e+00 -1.020315e+01 9.219397e-01 -1.758718e+01 3.543918e-01 -2.501905e+01 -1.881109e-01 -3.231283e+01 -7.306989e-01 -3.968227e+01 -1.457720e+00 -4.739815e+01 -3.329617e-01 -5.304434e+01 3.456028e-02 -5.910131e+01 4.689201e-01 -6.537463e+01 1.114366e+00 -7.160305e+01 1.927065e+00 -7.765629e+01 2.901073e+00 -8.344812e+01 4.045213e+00 -8.891132e+01 
5.367088e+00 -9.454560e+01 6.595082e+00 -9.974545e+01 7.823928e+00 1.030193e+02 7.224895e+00 9.828531e+01 6.475828e+00 9.324312e+01 5.789881e+00 8.791232e+01 5.284310e+00 8.255486e+01 5.168440e+00 7.780444e+01 5.962695e+00 6.794555e+01 4.178867e+00 6.146617e+01 3.399905e+00 5.432679e+01 3.164994e+00 4.751959e+01 2.996459e+00 4.077038e+01 2.479104e+00 3.300826e+01 1.906438e+00 2.542966e+01 1.433889e+00 1.864836e+01 1.671628e+00 1.165863e+01 1.860738e+00 4.523340e+00 1.870539e+00 -2.637465e+00 1.725670e+00 -9.724742e+00 1.147367e+00 -1.720668e+01 6.827508e-01 -2.477941e+01 3.660194e-01 -3.204603e+01 1.392254e-01 -3.949468e+01 2.890769e-02 -4.880287e+01 2.990040e-01 -5.200976e+01 8.275688e-01 -5.833508e+01 1.412390e+00 -6.495926e+01 2.003817e+00 -7.134338e+01 2.653154e+00 -7.749213e+01 3.414459e+00 -8.341487e+01 4.316230e+00 -8.910120e+01 
4.391467e+00 -9.682222e+01 5.492139e+00 -1.023497e+02 6.512237e+00 1.041442e+02 6.144203e+00 9.909498e+01 5.592415e+00 9.383213e+01 5.034100e+00 8.832354e+01 4.565574e+00 8.269871e+01 4.231509e+00 7.718193e+01 3.971618e+00 6.825676e+01 3.569519e+00 6.136187e+01 3.123005e+00 5.426736e+01 2.900234e+00 4.726929e+01 2.726168e+00 4.027464e+01 2.283288e+00 3.263780e+01 1.820712e+00 2.513215e+01 1.467703e+00 1.818928e+01 1.604707e+00 1.117640e+01 1.721621e+00 4.078971e+00 1.692979e+00 -3.059243e+00 1.499296e+00 -1.020612e+01 9.442408e-01 -1.767906e+01 4.239017e-01 -2.519830e+01 -4.879321e-03 -3.248102e+01 -3.832103e-01 -3.984163e+01 -7.142412e-01 -4.784189e+01 -9.050242e-01 -5.310630e+01 -3.082448e-01 -5.945329e+01 3.131989e-01 -6.605932e+01 9.578211e-01 -7.255399e+01 1.661099e+00 -7.889697e+01 2.462018e+00 -8.506879e+01 3.374300e+00 -9.104729e+01 
4.352107e+00 -9.753350e+01 5.167041e+00 -1.034696e+02 5.929824e+00 1.057370e+02 5.759706e+00 1.002678e+02 5.435958e+00 9.472722e+01 5.109031e+00 8.902661e+01 4.880897e+00 8.310728e+01 4.707718e+00 7.673760e+01 3.799672e+00 6.931884e+01 3.556794e+00 6.207197e+01 3.350369e+00 5.490311e+01 3.068303e+00 4.782793e+01 2.844171e+00 4.071244e+01 2.364965e+00 3.331687e+01 1.878577e+00 2.595549e+01 1.627954e+00 1.882213e+01 1.674479e+00 1.168364e+01 1.754019e+00 4.489262e+00 1.754440e+00 -2.740003e+00 1.619749e+00 -1.000068e+01 1.271762e+00 -1.739894e+01 7.978463e-01 -2.483182e+01 3.258217e-01 -3.218440e+01 -1.773593e-02 -3.955340e+01 -3.779757e-01 -4.699441e+01 6.417029e-01 -5.302438e+01 9.982404e-01 -5.950175e+01 1.320819e+00 -6.601057e+01 1.763343e+00 -7.250036e+01 2.289735e+00 -7.891827e+01 2.896530e+00 -8.523598e+01 3.586630e+00 -9.144159e+01 
3.250537e+00 -9.969264e+01 3.921405e+00 -1.059274e+02 4.472403e+00 1.070027e+02 4.523052e+00 1.012032e+02 4.388764e+00 9.537253e+01 4.195758e+00 8.938982e+01 4.047715e+00 8.313329e+01 3.942205e+00 7.633872e+01 3.662847e+00 6.964856e+01 3.094905e+00 6.219417e+01 2.893710e+00 5.488998e+01 2.646188e+00 4.766794e+01 2.432917e+00 4.040476e+01 2.098132e+00 3.297421e+01 1.735757e+00 2.559863e+01 1.509210e+00 1.842029e+01 1.503254e+00 1.129448e+01 1.525987e+00 4.160085e+00 1.473683e+00 -3.031205e+00 1.295268e+00 -1.032209e+01 9.396699e-01 -1.776619e+01 4.894638e-01 -2.522368e+01 3.776964e-02 -3.258802e+01 -3.123182e-01 -3.988226e+01 -4.338006e-01 -4.673976e+01 -1.867887e-01 -5.371298e+01 1.771376e-01 -6.045478e+01 4.331089e-01 -6.708707e+01 8.235537e-01 -7.371292e+01 1.329302e+00 -8.031313e+01 1.917598e+00 -8.685493e+01 2.567030e+00 -9.331803e+01 
3.182248e+00 -1.004716e+02 3.591886e+00 -1.070745e+02 3.875313e+00 1.088670e+02 4.117752e+00 1.026474e+02 4.175063e+00 9.646885e+01 4.144656e+00 9.020069e+01 4.102399e+00 8.372054e+01 4.022712e+00 7.690619e+01 3.685693e+00 7.014199e+01 3.227176e+00 6.278896e+01 3.031225e+00 5.548749e+01 2.794226e+00 4.825092e+01 2.575374e+00 4.098419e+01 2.246461e+00 3.361389e+01 1.880952e+00 2.625554e+01 1.653201e+00 1.898868e+01 1.627265e+00 1.178254e+01 1.647202e+00 4.571315e+00 1.619537e+00 -2.687814e+00 1.500365e+00 -1.001821e+01 1.242655e+00 -1.744093e+01 8.501670e-01 -2.487695e+01 4.418346e-01 -3.225722e+01 1.453664e-01 -3.957810e+01 3.612950e-02 -4.671806e+01 6.688675e-01 -5.362072e+01 1.047683e+00 -6.037144e+01 1.254310e+00 -6.704267e+01 1.524330e+00 -7.372727e+01 1.877814e+00 -8.042752e+01 2.288998e+00 -8.712382e+01 2.733402e+00 -9.380593e+01 
2.017373e+00 -1.024753e+02 2.268501e+00 -1.093425e+02 2.326620e+00 1.101574e+02 2.787725e+00 1.036264e+02 3.027850e+00 9.716533e+01 3.144957e+00 9.065504e+01 3.232696e+00 8.396691e+01 3.313128e+00 7.696441e+01 3.296349e+00 7.025130e+01 2.756105e+00 6.279489e+01 2.579024e+00 5.539066e+01 2.367555e+00 4.807913e+01 2.203376e+00 4.074389e+01 1.965901e+00 3.330743e+01 1.630173e+00 2.590507e+01 1.395689e+00 1.861498e+01 1.379754e+00 1.143036e+01 1.391504e+00 4.256214e+00 1.345750e+00 -2.983474e+00 1.211365e+00 -1.032784e+01 9.452598e-01 -1.779680e+01 5.365401e-01 -2.526688e+01 1.096341e-01 -3.267601e+01 -2.102783e-01 -4.004262e+01 -3.121612e-01 -4.713079e+01 -1.320558e-01 -5.428990e+01 2.160207e-01 -6.119674e+01 3.846329e-01 -6.800951e+01 6.249044e-01 -7.486331e+01 9.439258e-01 -8.175291e+01 1.306249e+00 -8.865676e+01 1.677651e+00 -9.556515e+01 
1.934449e+00 -1.032448e+02 1.940304e+00 -1.104385e+02 1.727362e+00 1.121635e+02 2.374283e+00 1.052448e+02 2.772157e+00 9.844550e+01 2.997702e+00 9.166211e+01 3.128011e+00 8.481462e+01 3.262655e+00 7.793483e+01 3.545846e+00 7.072907e+01 2.965070e+00 6.330778e+01 2.681939e+00 5.596409e+01 2.506873e+00 4.867648e+01 2.373826e+00 4.138387e+01 2.187519e+00 3.392371e+01 1.814429e+00 2.647803e+01 1.534175e+00 1.912024e+01 1.546658e+00 1.189896e+01 1.578009e+00 4.677390e+00 1.562235e+00 -2.605804e+00 1.489188e+00 -9.965042e+00 1.298135e+00 -1.744099e+01 9.282258e-01 -2.492149e+01 5.387219e-01 -3.236697e+01 2.529521e-01 -3.982536e+01 4.486189e-02 -4.733762e+01 5.850817e-01 -5.430099e+01 8.847497e-01 -6.106222e+01 1.024113e+00 -6.792522e+01 1.202608e+00 -7.487963e+01 1.411588e+00 -8.189434e+01 1.624044e+00 -8.895751e+01 1.811129e+00 -9.607209e+01 
7.505805e-01 -1.050742e+02 5.933274e-01 -1.124991e+02 1.611686e-01 1.134102e+02 1.023532e+00 1.062084e+02 1.601559e+00 9.914871e+01 1.971343e+00 9.216572e+01 2.215746e+00 8.528109e+01 2.505489e+00 7.872585e+01 3.099513e+00 7.081759e+01 2.610325e+00 6.319012e+01 2.211676e+00 5.579147e+01 2.115110e+00 4.847464e+01 2.044255e+00 4.122495e+01 1.988110e+00 3.363210e+01 1.528219e+00 2.609382e+01 1.141342e+00 1.869851e+01 1.240056e+00 1.155010e+01 1.300252e+00 4.377269e+00 1.294579e+00 -2.892690e+00 1.245863e+00 -1.025291e+01 1.055206e+00 -1.780854e+01 6.247072e-01 -2.534572e+01 1.847983e-01 -3.279044e+01 -9.409747e-02 -4.022756e+01 -2.998076e-01 -4.846111e+01 -1.840775e-01 -5.485414e+01 -1.156590e-01 -6.159629e+01 1.288109e-01 -6.874245e+01 3.339061e-01 -7.592717e+01 5.073268e-01 -8.313389e+01 6.536524e-01 -9.038300e+01 7.495787e-01 -9.769215e+01 
6.689638e-01 -1.057835e+02 2.824001e-01 -1.134960e+02 -4.115308e-01 1.154725e+02 6.362411e-01 1.079347e+02 1.375892e+00 1.005953e+02 1.884185e+00 9.341055e+01 2.229540e+00 8.639341e+01 2.484931e+00 7.959337e+01 2.609947e+00 7.172648e+01 2.619240e+00 6.395119e+01 2.448167e+00 5.648465e+01 2.378889e+00 4.910757e+01 2.314069e+00 4.180019e+01 2.231267e+00 3.420728e+01 1.808350e+00 2.665511e+01 1.453161e+00 1.922131e+01 1.531602e+00 1.200022e+01 1.589181e+00 4.759766e+00 1.596477e+00 -2.562653e+00 1.571433e+00 -9.958523e+00 1.422918e+00 -1.752505e+01 1.065842e+00 -2.506770e+01 7.046718e-01 -3.252658e+01 4.890781e-01 -3.997263e+01 3.598926e-01 -4.806838e+01 2.674564e-01 -5.458418e+01 3.625535e-01 -6.142803e+01 6.438924e-01 -6.866642e+01 8.245258e-01 -7.595137e+01 9.153348e-01 -8.327699e+01 9.342181e-01 -9.067408e+01 8.658018e-01 -9.816945e+01 
-5.012839e-01 -1.074300e+02 -1.045948e+00 -1.153437e+02 -1.942293e+00 1.166374e+02 -6.896271e-01 1.088565e+02 2.362821e-01 1.012942e+02 9.195761e-01 9.389650e+01 1.427574e+00 8.659119e+01 1.756179e+00 7.920286e+01 1.738016e+00 7.178104e+01 1.797094e+00 6.400241e+01 1.925755e+00 5.643288e+01 1.877990e+00 4.894992e+01 1.840562e+00 4.149421e+01 1.718519e+00 3.394797e+01 1.466208e+00 2.642952e+01 1.273278e+00 1.899826e+01 1.280104e+00 1.167883e+01 1.289333e+00 4.368076e+00 1.246676e+00 -2.990739e+00 1.149462e+00 -1.041590e+01 9.602068e-01 -1.793710e+01 6.348828e-01 -2.545959e+01 2.914989e-01 -3.295351e+01 1.501388e-02 -4.044884e+01 -2.081265e-01 -4.795785e+01 -2.217501e-01 -5.515969e+01 -8.589627e-02 -6.235090e+01 -1.126166e-02 -6.962921e+01 4.428603e-02 -7.699554e+01 5.150423e-02 -8.444410e+01 -1.240150e-02 -9.198562e+01 -1.798639e-01 -9.964044e+01 
-5.630426e-01 -1.080461e+02 -1.319216e+00 -1.162120e+02 -2.467928e+00 1.186686e+02 -1.046549e+00 1.105874e+02 1.691037e-02 1.027538e+02 8.066097e-01 9.510701e+01 1.388046e+00 8.754860e+01 1.781171e+00 7.991363e+01 2.048809e+00 7.258075e+01 1.986606e+00 6.482550e+01 2.079495e+00 5.715503e+01 2.070352e+00 4.960941e+01 2.040425e+00 4.208457e+01 1.941936e+00 3.453033e+01 1.741777e+00 2.700696e+01 1.580431e+00 1.954345e+01 1.559836e+00 1.215999e+01 1.557565e+00 4.792891e+00 1.525378e+00 -2.608684e+00 1.450704e+00 -1.006739e+01 1.302278e+00 -1.759994e+01 1.053144e+00 -2.512685e+01 7.872588e-01 -3.263084e+01 5.735016e-01 -4.014506e+01 4.602945e-01 -4.749781e+01 4.561050e-01 -5.494845e+01 5.708145e-01 -6.224922e+01 5.598773e-01 -6.957699e+01 5.257252e-01 -7.701488e+01 4.359354e-01 -8.456423e+01 2.526989e-01 -9.223618e+01 -6.279656e-02 -1.000545e+02 
-1.694430e+00 -1.095074e+02 -2.598671e+00 -1.178456e+02 -3.930794e+00 1.196835e+02 -2.327347e+00 1.113818e+02 -1.102050e+00 1.033292e+02 -1.775120e-01 9.546082e+01 5.017468e-01 8.769787e+01 9.681597e-01 7.998123e+01 1.281169e+00 7.243156e+01 1.348472e+00 6.472775e+01 1.496660e+00 5.704566e+01 1.552317e+00 4.943002e+01 1.557066e+00 4.184805e+01 1.494970e+00 3.427958e+01 1.379214e+00 2.674705e+01 1.282299e+00 1.926488e+01 1.247697e+00 1.183631e+01 1.216571e+00 4.424903e+00 1.151352e+00 -3.006609e+00 1.038766e+00 -1.047819e+01 8.632841e-01 -1.799326e+01 6.173108e-01 -2.551559e+01 3.543468e-01 -3.302453e+01 1.250648e-01 -4.052852e+01 -4.568694e-02 -4.798599e+01 -4.891311e-02 -5.549635e+01 -1.692504e-02 -6.295330e+01 -9.140093e-02 -7.042282e+01 -2.094889e-01 -7.797283e+01 -3.853105e-01 -8.563215e+01 -6.574956e-01 -9.342261e+01 -1.073619e+00 -1.013709e+02 
-1.717695e+00 -1.100093e+02 -2.813025e+00 -1.185661e+02 -4.379594e+00 1.216119e+02 -2.625018e+00 1.130464e+02 -1.275392e+00 1.047497e+02 -2.484676e-01 9.666119e+01 5.156942e-01 8.871384e+01 1.060729e+00 8.087455e+01 1.442229e+00 7.322034e+01 1.555837e+00 6.548192e+01 1.704631e+00 5.774496e+01 1.778958e+00 5.007475e+01 1.798033e+00 4.244737e+01 1.757510e+00 3.485076e+01 1.669736e+00 2.729359e+01 1.590305e+00 1.977898e+01 1.553155e+00 1.230738e+01 1.522810e+00 4.853380e+00 1.469799e+00 -2.613727e+00 1.380173e+00 -1.011156e+01 1.241309e+00 -1.764089e+01 1.050792e+00 -2.517429e+01 8.470625e-01 -3.269619e+01 6.738542e-01 -4.021102e+01 5.635643e-01 -4.769434e+01 5.125971e-01 -5.525051e+01 5.260817e-01 -6.278634e+01 4.269469e-01 -7.032942e+01 2.494765e-01 -7.795558e+01 -1.070255e-02 -8.570635e+01 -3.898678e-01 -9.361051e+01 -9.377108e-01 -1.016996e+02 
-2.791998e+00 -1.112863e+02 -4.023008e+00 -1.199862e+02 -5.759523e+00 1.224353e+02 -3.842350e+00 1.136854e+02 -2.352659e+00 1.052089e+02 -1.208399e+00 9.695421e+01 -3.478788e-01 8.887134e+01 2.794074e-01 8.093059e+01 7.124557e-01 7.312111e+01 9.460137e-01 6.533290e+01 1.141101e+00 5.757442e+01 1.263946e+00 4.986693e+01 1.323278e+00 4.220608e+01 1.324220e+00 3.458642e+01 1.285492e+00 2.700920e+01 1.239641e+00 1.947334e+01 1.203767e+00 1.197368e+01 1.159152e+00 4.491303e+00 1.085918e+00 -2.996342e+00 9.739260e-01 -1.050335e+01 8.174793e-01 -1.803128e+01 6.206321e-01 -2.556865e+01 4.112441e-01 -3.310743e+01 2.195354e-01 -4.065570e+01 6.612386e-02 -4.821659e+01 -1.587307e-02 -5.581780e+01 -8.238701e-02 -6.343288e+01 -2.342653e-01 -7.108136e+01 -4.699109e-01 -7.881033e+01 -8.000307e-01 -8.665964e+01 -1.259700e+00 -9.466367e+01 -1.900941e+00 -1.028588e+02 
-2.760516e+00 -1.116608e+02 -4.159058e+00 -1.205466e+02 -6.103148e+00 1.242140e+02 -4.053665e+00 1.152412e+02 -2.454889e+00 1.065600e+02 -1.219659e+00 9.812424e+01 -2.836592e-01 8.989033e+01 4.063216e-01 8.182905e+01 8.893781e-01 7.391857e+01 1.168099e+00 6.606152e+01 1.382696e+00 5.824738e+01 1.522454e+00 5.049169e+01 1.596818e+00 4.279084e+01 1.614897e+00 3.513917e+01 1.594063e+00 2.753306e+01 1.561104e+00 1.996702e+01 1.531095e+00 1.243431e+01 1.493723e+00 4.919384e+00 1.434532e+00 -2.596463e+00 1.344868e+00 -1.012545e+01 1.220428e+00 -1.766944e+01 1.065422e+00 -2.522101e+01 9.002689e-01 -3.277603e+01 7.482923e-01 -4.034289e+01 6.221030e-01 -4.792988e+01 5.181011e-01 -5.556413e+01 4.256317e-01 -6.323041e+01 2.486377e-01 -7.094111e+01 -3.108677e-02 -7.874002e+01 -4.283588e-01 -8.667075e+01 -9.777456e-01 -9.477277e+01 -1.731747e+00 -1.030872e+02 
-3.763224e+00 -1.127568e+02 -5.281077e+00 -1.217568e+02 -7.377011e+00 1.248217e+02 -5.184134e+00 1.157047e+02 -3.463744e+00 1.068856e+02 -2.124917e+00 9.832408e+01 -1.101027e+00 8.998054e+01 -3.369206e-01 8.182016e+01 2.088858e-01 7.380617e+01 5.731370e-01 6.588494e+01 8.386334e-01 5.803454e+01 1.020388e+00 5.024934e+01 1.131557e+00 4.252358e+01 1.184452e+00 3.485111e+01 1.195810e+00 2.722625e+01 1.183985e+00 1.964220e+01 1.158638e+00 1.209031e+01 1.114666e+00 4.556968e+00 1.043302e+00 -2.973071e+00 9.393988e-01 -1.051086e+01 8.020165e-01 -1.806103e+01 6.369796e-01 -2.562369e+01 4.595861e-01 -3.320089e+01 2.856173e-01 -4.080246e+01 1.247569e-01 -4.843766e+01 -1.608115e-02 -5.611558e+01 -1.703800e-01 -6.383781e+01 -3.994907e-01 -7.162140e+01 -7.298248e-01 -7.949944e+01 -1.184986e+00 -8.750988e+01 -1.802636e+00 -9.569237e+01 -2.637524e+00 -1.040908e+02 
-3.662336e+00 -1.129957e+02 -5.321096e+00 -1.221496e+02 -7.592147e+00 1.264131e+02 -5.289198e+00 1.171136e+02 -3.478845e+00 1.081276e+02 -2.065409e+00 9.941736e+01 -9.800960e-01 9.094570e+01 -1.657177e-01 8.267730e+01 4.217806e-01 7.457394e+01 8.215405e-01 6.658244e+01 1.109224e+00 5.867668e+01 1.307317e+00 5.084671e+01 1.432199e+00 4.308426e+01 1.498539e+00 3.538111e+01 1.522813e+00 2.772890e+01 1.521740e+00 2.011862e+01 1.505005e+00 1.254060e+01 1.471125e+00 4.982280e+00 1.414511e+00 -2.569824e+00 1.331387e+00 -1.012594e+01 1.221191e+00 -1.769133e+01 1.088431e+00 -2.526817e+01 9.436832e-01 -3.286071e+01 7.970648e-01 -4.047930e+01 6.512733e-01 -4.813504e+01 5.007902e-01 -5.584034e+01 3.260547e-01 -6.360062e+01 7.192491e-02 -7.143278e+01 -2.952197e-01 -7.936883e+01 -8.041206e-01 -8.744781e+01 -1.494421e+00 -9.571214e+01 -2.422044e+00 -1.042093e+02 
-4.580464e+00 -1.139162e+02 -6.337617e+00 -1.231553e+02 -8.734920e+00 1.267840e+02 -6.311160e+00 1.173788e+02 -4.398961e+00 1.082918e+02 -2.898256e+00 9.948791e+01 -1.738167e+00 9.093079e+01 -8.592880e-01 8.258346e+01 -2.124920e-01 7.440718e+01 2.502266e-01 6.636205e+01 5.846958e-01 5.842067e+01 8.200627e-01 5.056543e+01 9.764838e-01 4.278360e+01 1.070376e+00 3.506456e+01 1.117347e+00 2.739846e+01 1.130918e+00 1.977543e+01 1.118956e+00 1.218500e+01 1.082019e+00 4.615127e+00 1.017613e+00 -2.946607e+00 9.242775e-01 -1.051057e+01 8.030507e-01 -1.808426e+01 6.585280e-01 -2.567368e+01 4.986000e-01 -3.328607e+01 3.300414e-01 -4.093172e+01 1.549398e-01 -4.862050e+01 -3.061238e-02 -5.636101e+01 -2.524871e-01 -6.416344e+01 -5.523260e-01 -7.204687e+01 -9.640250e-01 -8.003987e+01 -1.521215e+00 -8.817799e+01 -2.267249e+00 -9.650248e+01 -3.260837e+00 -1.050619e+02 
-4.396759e+00 -1.140144e+02 -6.265869e+00 -1.233761e+02 -8.802352e+00 1.281551e+02 -6.294388e+00 1.186060e+02 -4.314242e+00 1.093875e+02 -2.757657e+00 1.004653e+02 -1.551705e+00 9.180435e+01 -6.351573e-01 8.336799e+01 4.311563e-02 7.511726e+01 5.317346e-01 6.701148e+01 8.845383e-01 5.902149e+01 1.133433e+00 5.112727e+01 1.300895e+00 4.331377e+01 1.404963e+00 3.556830e+01 1.461645e+00 2.787912e+01 1.484339e+00 2.023493e+01 1.481469e+00 1.262452e+01 1.455429e+00 5.036063e+00 1.405490e+00 -2.542194e+00 1.331000e+00 -1.012035e+01 1.232807e+00 -1.770639e+01 1.113961e+00 -2.530737e+01 9.790717e-01 -3.293164e+01 8.308532e-01 -4.059015e+01 6.667708e-01 -4.829426e+01 4.778221e-01 -5.605553e+01 2.425075e-01 -6.388620e+01 -7.766599e-02 -7.180614e+01 -5.188929e-01 -7.984418e+01 -1.117991e+00 -8.803663e+01 -1.920514e+00 -9.642637e+01 -2.986710e+00 -1.050643e+02 
-5.218894e+00 -1.147661e+02 -7.161608e+00 -1.241837e+02 -9.792798e+00 1.282698e+02 -7.190442e+00 1.186513e+02 -5.130721e+00 1.093664e+02 -3.505677e+00 1.003812e+02 -2.240434e+00 9.166177e+01 -1.271523e+00 8.317136e+01 -5.444604e-01 7.487265e+01 -8.824755e-03 6.672978e+01 3.824224e-01 5.871366e+01 6.624615e-01 5.080148e+01 8.556408e-01 4.297530e+01 9.809579e-01 3.522027e+01 1.054040e+00 2.752335e+01 1.087097e+00 1.987242e+01 1.087989e+00 1.225573e+01 1.060094e+00 4.661389e+00 1.004331e+00 -2.922253e+00 9.214031e-01 -1.050582e+01 8.129186e-01 -1.809869e+01 6.817455e-01 -2.570979e+01 5.312160e-01 -3.334870e+01 3.627269e-01 -4.102612e+01 1.735122e-01 -4.875275e+01 -4.556691e-02 -5.653938e+01 -3.170571e-01 -6.439988e+01 -6.740637e-01 -7.235456e+01 -1.151708e+00 -8.043084e+01 -1.788940e+00 -8.866308e+01 -2.634006e+00 -9.709306e+01 -3.749677e+00 -1.057720e+02 
-4.940832e+00 -1.147206e+02 -6.965060e+00 -1.242301e+02 -9.697228e+00 1.293927e+02 -7.039544e+00 1.196679e+02 -4.936085e+00 1.102858e+02 -3.275580e+00 1.012131e+02 -1.981457e+00 9.241630e+01 -9.888859e-01 8.385922e+01 -2.421762e-01 7.550439e+01 3.093555e-01 6.731537e+01 7.123383e-01 5.926194e+01 1.001177e+00 5.131983e+01 1.201617e+00 4.346948e+01 1.333754e+00 3.569450e+01 1.413786e+00 2.798050e+01 1.454274e+00 2.031438e+01 1.463674e+00 1.268384e+01 1.446388e+00 5.076958e+00 1.404266e+00 -2.517725e+00 1.338342e+00 -1.011075e+01 1.249781e+00 -1.771177e+01 1.140065e+00 -2.533024e+01 1.010188e+00 -3.297638e+01 8.587204e-01 -4.066158e+01 6.798956e-01 -4.839784e+01 4.620369e-01 -5.619805e+01 1.838135e-01 -6.407755e+01 -1.865937e-01 -7.205754e+01 -6.850686e-01 -8.016606e+01 -1.352221e+00 -8.843818e+01 -2.237846e+00 -9.691678e+01 -3.405967e+00 -1.056546e+02 
-5.657955e+00 -1.153099e+02 -7.728069e+00 -1.248460e+02 -1.051938e+01 1.292357e+02 -7.796753e+00 1.194773e+02 -5.638202e+00 1.100625e+02 -3.929911e+00 1.009582e+02 -2.593766e+00 9.213131e+01 -1.563230e+00 8.354643e+01 -7.808702e-01 7.516738e+01 -1.958785e-01 6.695984e+01 2.358019e-01 5.889387e+01 5.484669e-01 5.094419e+01 7.684598e-01 4.308975e+01 9.162367e-01 3.531279e+01 1.007808e+00 2.759796e+01 1.055269e+00 1.993150e+01 1.066917e+00 1.230068e+01 1.047673e+00 4.693331e+00 1.000257e+00 -2.902189e+00 9.264674e-01 -1.049688e+01 8.278834e-01 -1.810117e+01 7.059168e-01 -2.572535e+01 5.610910e-01 -3.338006e+01 3.915751e-01 -4.107650e+01 1.915821e-01 -4.882631e+01 -5.059820e-02 -5.664219e+01 -3.559220e-01 -6.453993e+01 -7.537087e-01 -7.254055e+01 -1.278813e+00 -8.067110e+01 -1.972593e+00 -8.896538e+01 -2.886407e+00 -9.746532e+01 -4.086084e+00 -1.062234e+02 
-5.276651e+00 -1.151185e+02 -7.397043e+00 -1.247160e+02 -1.024982e+01 1.300891e+02 -7.502964e+00 1.202615e+02 -5.326548e+00 1.107839e+02 -3.604584e+00 1.016233e+02 -2.257811e+00 9.274717e+01 -1.218878e+00 8.412009e+01 -4.297331e-01 7.570579e+01 1.605583e-01 6.746948e+01 5.960169e-01 5.938045e+01 9.115146e-01 5.141250e+01 1.134162e+00 4.354354e+01 1.285099e+00 3.575483e+01 1.380819e+00 2.803017e+01 1.433810e+00 2.035521e+01 1.452835e+00 1.271690e+01 1.443385e+00 5.103033e+00 1.408621e+00 -2.497918e+00 1.350369e+00 -1.009688e+01 1.269675e+00 -1.770435e+01 1.166801e+00 -2.533087e+01 1.040566e+00 -3.298749e+01 8.871498e-01 -4.068602e+01 6.987720e-01 -4.843914e+01 4.622373e-01 -5.626097e+01 1.567450e-01 -6.416849e+01 -2.465600e-01 -7.218350e+01 -7.827670e-01 -8.033370e+01 -1.493957e+00 -8.865354e+01 -2.432266e+00 -9.718562e+01 -3.664177e+00 -1.059833e+02 
-5.882776e+00 -1.155514e+02 -8.019266e+00 -1.251459e+02 -1.089303e+01 1.296506e+02 -8.112750e+00 1.198253e+02 -5.907331e+00 1.103489e+02 -4.159602e+00 1.011884e+02 -2.789390e+00 9.231154e+01 -1.728311e+00 8.368326e+01 -9.175794e-01 7.526824e+01 -3.065509e-01 6.703280e+01 1.475325e-01 5.894665e+01 4.790256e-01 5.098337e+01 7.149344e-01 4.312029e+01 8.763038e-01 3.533808e+01 9.793743e-01 2.762002e+01 1.036331e+00 1.995139e+01 1.055833e+00 1.231884e+01 1.043602e+00 4.709995e+00 1.003246e+00 -2.886860e+00 9.370363e-01 -1.048291e+01 8.463231e-01 -1.808902e+01 7.314832e-01 -2.571599e+01 5.913466e-01 -3.337493e+01 4.221878e-01 -4.107742e+01 2.164896e-01 -4.883585e+01 -3.859614e-02 -5.666410e+01 -3.630932e-01 -6.457903e+01 -7.843433e-01 -7.260194e+01 -1.336507e+00 -8.075961e+01 -2.061687e+00 -8.908539e+01 -3.012692e+00 -9.762090e+01 -4.256991e+00 -1.064189e+02 
-5.392497e+00 -1.152118e+02 -7.547894e+00 -1.248377e+02 -1.044320e+01 1.302207e+02 -7.671214e+00 1.203625e+02 -5.474907e+00 1.108578e+02 -3.736252e+00 1.016731e+02 -2.374564e+00 9.277604e+01 -1.321174e+00 8.413144e+01 -5.171313e-01 7.570367e+01 8.815115e-02 6.745863e+01 5.373501e-01 5.936551e+01 8.649974e-01 5.139732e+01 1.098419e+00 4.353086e+01 1.258996e+00 3.574628e+01 1.363256e+00 2.802648e+01 1.423651e+00 2.035652e+01 1.449125e+00 1.272302e+01 1.445684e+00 5.113737e+00 1.417079e+00 -2.482847e+00 1.365431e+00 -1.007772e+01 1.291549e+00 -1.768165e+01 1.194863e+00 -2.530551e+01 1.072919e+00 -3.296060e+01 9.205554e-01 -4.065901e+01 7.288859e-01 -4.841386e+01 4.840975e-01 -5.624003e+01 1.660251e-01 -6.415529e+01 -2.524786e-01 -7.218164e+01 -8.055160e-01 -8.034643e+01 -1.535282e+00 -8.868347e+01 -2.494661e+00 -9.723478e+01 -3.751069e+00 -1.060535e+02 
-5.884975e+00 -1.154931e+02 -8.025386e+00 -1.250859e+02 -1.090204e+01 1.294979e+02 -8.129297e+00 1.196782e+02 -5.931024e+00 1.102089e+02 -4.189444e+00 1.010564e+02 -2.823662e+00 9.218793e+01 -1.764610e+00 8.356857e+01 -9.532396e-01 7.516320e+01 -3.394714e-01 6.693849e+01 1.184253e-01 5.886417e+01 4.542364e-01 5.091355e+01 6.947468e-01 4.306355e+01 8.608716e-01 3.529433e+01 9.686886e-01 2.758876e+01 1.030263e+00 1.993185e+01 1.054322e+00 1.231019e+01 1.046884e+00 4.711477e+00 1.011899e+00 -2.875835e+00 9.517660e-01 -1.046281e+01 8.675966e-01 -1.806026e+01 7.591185e-01 -2.567904e+01 6.242244e-01 -3.333029e+01 4.582066e-01 -4.102573e+01 2.527639e-01 -4.877813e+01 -5.204376e-03 -5.660194e+01 -3.348721e-01 -6.451444e+01 -7.621311e-01 -7.253692e+01 -1.320107e+00 -8.069571e+01 -2.050538e+00 -8.902347e+01 -3.006286e+00 -9.756106e+01 -4.254991e+00 -1.063605e+02 