# vtk DataFile Version 2.0
Comment goes here
ASCII

DATASET STRUCTURED_POINTS
FIELD FieldData 1
TIME 1 1 double
0.01000000
DIMENSIONS    64   64   1

ORIGIN    0.000   0.000   0.000
SPACING   0.03125 0.03125   1.000

POINT_DATA   4096
SCALARS P double
LOOKUP_TABLE default

1.075640e+01 -4.415022e+01 2.676127e+01 -6.841883e+01 9.646924e+01 1.788401e+02 5.223735e+01 1.653863e+02 6.246661e+01 1.512490e+02 7.054587e+01 1.383878e+02 7.316911e+01 1.310303e+02 7.028561e+01 1.260716e+02 6.626302e+01 1.197975e+02 6.266335e+01 1.136736e+02 5.770073e+01 1.075032e+02 5.226293e+01 1.005350e+02 5.079794e+01 8.766436e+01 5.227604e+01 7.812625e+01 4.857998e+01 7.104790e+01 4.572739e+01 6.146042e+01 4.312834e+01 5.501391e+01 3.985221e+01 4.468694e+01 3.865231e+01 3.457155e+01 3.860370e+01 2.425470e+01 3.572585e+01 1.807704e+01 3.290852e+01 8.563297e+00 3.400330e+01 1.129168e+00 2.873442e+01 -1.689216e+00 2.420589e+01 -1.029670e+01 2.828110e+01 -2.474191e+01 3.597847e+01 -3.721487e+01 3.906965e+01 -4.480429e+01 3.924822e+01 -4.856667e+01 3.241792e+01 -4.461257e+01 2.203291e+01 -4.098319e+01 1.380200e+01 -3.921502e+01 
-2.616847e-01 -6.272263e+01 7.872476e+00 -7.573906e+01 5.576150e+01 1.148590e+02 1.885611e+01 1.088072e+02 2.311749e+01 1.016103e+02 2.656384e+01 9.431075e+01 2.757940e+01 8.932362e+01 2.601589e+01 8.509945e+01 2.403666e+01 7.966153e+01 2.255575e+01 7.397702e+01 2.031559e+01 6.835900e+01 1.753500e+01 6.242807e+01 1.712418e+01 5.279011e+01 1.848492e+01 4.520028e+01 1.665646e+01 3.900986e+01 1.540487e+01 3.125132e+01 1.429833e+01 2.542685e+01 1.267257e+01 1.732833e+01 1.226104e+01 9.368879e+00 1.254171e+01 1.220729e+00 1.104049e+01 -4.528742e+00 9.735890e+00 -1.277423e+01 1.107372e+01 -1.986521e+01 8.535211e+00 -2.410689e+01 6.280245e+00 -3.136897e+01 8.675021e+00 -4.151501e+01 1.284455e+01 -5.012975e+01 1.430969e+01 -5.605953e+01 1.460769e+01 -6.018977e+01 1.131984e+01 -6.015487e+01 6.320827e+00 -6.023710e+01 2.127933e+00 -6.025787e+01 
-3.160425e+00 -8.430752e+01 -1.526339e+00 -8.924442e+01 1.288866e+01 8.790285e+01 -5.848180e-01 8.477212e+01 -3.526869e-01 8.084045e+01 -4.800079e-02 7.624686e+01 7.314676e-02 7.152315e+01 -1.444084e-01 6.653475e+01 -4.509117e-01 6.085025e+01 -6.010393e-01 5.481803e+01 -9.740576e-01 4.877165e+01 -1.559286e+00 4.260428e+01 -1.551324e+00 3.538888e+01 -1.109900e+00 2.863605e+01 -1.471081e+00 2.218396e+01 -1.675729e+00 1.530617e+01 -1.851744e+00 8.904630e+00 -2.236267e+00 2.032606e+00 -2.330069e+00 -4.860926e+00 -2.218503e+00 -1.183782e+01 -2.563248e+00 -1.832587e+01 -2.738262e+00 -2.569931e+01 -2.094866e+00 -3.286406e+01 -2.300466e+00 -3.932894e+01 -2.449079e+00 -4.616461e+01 -1.751302e+00 -5.313568e+01 -8.539227e-01 -5.930231e+01 -6.610330e-01 -6.464814e+01 -6.124410e-01 -6.962940e+01 -1.058291e+00 -7.378481e+01 -1.640972e+00 -7.787492e+01 -2.224695e+00 -8.130571e+01 
-2.796766e+00 -7.964024e+01 -1.653225e+00 -8.290225e+01 -6.622996e-01 8.342278e+01 2.378191e-02 8.083129e+01 5.860752e-01 7.733466e+01 1.031213e+00 7.323795e+01 1.215222e+00 6.886890e+01 1.068608e+00 6.416859e+01 7.142234e-01 5.886626e+01 3.415444e-01 5.319944e+01 -1.375840e-01 4.737921e+01 -6.482898e-01 4.130279e+01 -7.894224e-01 3.466399e+01 -6.990982e-01 2.813873e+01 -9.418808e-01 2.175427e+01 -1.196889e+00 1.523419e+01 -1.439354e+00 8.824035e+00 -1.730050e+00 2.194288e+00 -1.868542e+00 -4.508926e+00 -1.928407e+00 -1.119515e+01 -2.182702e+00 -1.770663e+01 -2.323393e+00 -2.456828e+01 -2.140786e+00 -3.131797e+01 -2.286118e+00 -3.776232e+01 -2.336003e+00 -4.435536e+01 -1.818705e+00 -5.085057e+01 -1.056945e+00 -5.675606e+01 -6.673100e-01 -6.193274e+01 -6.354931e-01 -6.647574e+01 -1.078376e+00 -7.028304e+01 -1.745563e+00 -7.370756e+01 -2.372330e+00 -7.672305e+01 
-1.945499e+00 -8.551280e+01 -1.440643e+00 -8.898960e+01 -9.326325e-01 8.794281e+01 -6.288748e-01 8.486702e+01 -3.650249e-01 8.097376e+01 -1.140494e-01 7.651949e+01 4.532938e-02 7.172476e+01 3.990834e-02 6.654999e+01 -1.480700e-01 6.077618e+01 -4.051468e-01 5.471016e+01 -7.304159e-01 4.850982e+01 -1.075625e+00 4.214097e+01 -1.236813e+00 3.544446e+01 -1.269489e+00 2.876633e+01 -1.461173e+00 2.212390e+01 -1.637978e+00 1.537299e+01 -1.797749e+00 8.671731e+00 -1.989837e+00 1.854296e+00 -2.114981e+00 -4.994165e+00 -2.205226e+00 -1.184362e+01 -2.396126e+00 -1.861687e+01 -2.508396e+00 -2.561391e+01 -2.414607e+00 -3.258835e+01 -2.483091e+00 -3.939999e+01 -2.514408e+00 -4.621548e+01 -2.210294e+00 -5.266707e+01 -1.706219e+00 -5.862226e+01 -1.403524e+00 -6.408132e+01 -1.290982e+00 -6.913999e+01 -1.416775e+00 -7.373920e+01 -1.654403e+00 -7.803585e+01 -1.880096e+00 -8.192463e+01 
-1.809945e+00 -8.156477e+01 -1.305222e+00 -8.477735e+01 -6.880233e-01 8.504518e+01 -1.003778e-01 8.193174e+01 3.907847e-01 7.819896e+01 7.900653e-01 7.401056e+01 1.056074e+00 6.951043e+01 1.146646e+00 6.466084e+01 9.126991e-01 5.904545e+01 5.180148e-01 5.320572e+01 1.090559e-01 4.722265e+01 -2.778301e-01 4.106778e+01 -5.532013e-01 3.470013e+01 -7.380130e-01 2.826058e+01 -9.568632e-01 2.179446e+01 -1.164206e+00 1.524982e+01 -1.339636e+00 8.672753e+00 -1.516416e+00 2.037618e+00 -1.673562e+00 -4.613570e+00 -1.834182e+00 -1.123840e+01 -2.056015e+00 -1.781757e+01 -2.226746e+00 -2.450431e+01 -2.289237e+00 -3.119977e+01 -2.407851e+00 -3.787274e+01 -2.509699e+00 -4.460772e+01 -2.319968e+00 -5.066344e+01 -1.791789e+00 -5.630416e+01 -1.408292e+00 -6.150389e+01 -1.271388e+00 -6.625349e+01 -1.390426e+00 -7.054520e+01 -1.640122e+00 -7.448569e+01 -1.847108e+00 -7.812180e+01 
-1.579434e+00 -8.688298e+01 -1.293557e+00 -9.048384e+01 -9.477773e-01 8.928988e+01 -6.433644e-01 8.577031e+01 -3.659978e-01 8.166268e+01 -8.925997e-02 7.712940e+01 1.804622e-01 7.230441e+01 4.037065e-01 6.715718e+01 2.281598e-01 6.099080e+01 -1.382134e-01 5.473494e+01 -4.648792e-01 4.841588e+01 -7.740078e-01 4.200484e+01 -1.050890e+00 3.547962e+01 -1.270877e+00 2.886017e+01 -1.465014e+00 2.217345e+01 -1.615144e+00 1.539117e+01 -1.709535e+00 8.555814e+00 -1.809881e+00 1.706716e+00 -1.934500e+00 -5.126238e+00 -2.090284e+00 -1.192592e+01 -2.308452e+00 -1.868617e+01 -2.485387e+00 -2.555128e+01 -2.568934e+00 -3.247501e+01 -2.698866e+00 -3.947196e+01 -2.911535e+00 -4.663649e+01 -2.875696e+00 -5.269323e+01 -2.358373e+00 -5.843700e+01 -1.954874e+00 -6.391507e+01 -1.729103e+00 -6.911292e+01 -1.662941e+00 -7.400326e+01 -1.679101e+00 -7.860796e+01 -1.684456e+00 -8.289926e+01 
-1.400616e+00 -8.372868e+01 -1.049414e+00 -8.746988e+01 -5.831421e-01 8.739529e+01 -1.418499e-01 8.364435e+01 2.817865e-01 7.951397e+01 6.794581e-01 7.509218e+01 1.069493e+00 7.050190e+01 1.542090e+00 6.590678e+01 1.277857e+00 5.944452e+01 7.106253e-01 5.335442e+01 3.352201e-01 4.723793e+01 -1.731912e-02 4.104452e+01 -4.080566e-01 3.480632e+01 -7.430491e-01 2.840857e+01 -9.826375e-01 2.191371e+01 -1.161792e+00 1.529950e+01 -1.236170e+00 8.580762e+00 -1.321664e+00 1.896858e+00 -1.474782e+00 -4.744479e+00 -1.678272e+00 -1.132843e+01 -1.981682e+00 -1.782266e+01 -2.238393e+00 -2.443146e+01 -2.379923e+00 -3.110418e+01 -2.543678e+00 -3.792684e+01 -2.965534e+00 -4.555105e+01 -3.171512e+00 -5.088612e+01 -2.383068e+00 -5.629086e+01 -1.901066e+00 -6.152391e+01 -1.649589e+00 -6.648973e+01 -1.571999e+00 -7.116230e+01 -1.578761e+00 -7.557155e+01 -1.558617e+00 -7.974874e+01 
-1.440152e+00 -8.863752e+01 -1.201545e+00 -9.277761e+01 -9.100875e-01 9.138693e+01 -6.473796e-01 8.726331e+01 -3.712541e-01 8.277749e+01 -5.903022e-02 7.803247e+01 3.585911e-01 7.321402e+01 1.141630e+00 6.878939e+01 8.168698e-01 6.129447e+01 9.572779e-02 5.482288e+01 -2.133458e-01 4.841409e+01 -5.026777e-01 4.198313e+01 -9.253177e-01 3.560926e+01 -1.297774e+00 2.902185e+01 -1.511954e+00 2.231916e+01 -1.645060e+00 1.546234e+01 -1.609239e+00 8.452829e+00 -1.603714e+00 1.542193e+00 -1.722627e+00 -5.291634e+00 -1.913558e+00 -1.204751e+01 -2.267232e+00 -1.865060e+01 -2.555371e+00 -2.542954e+01 -2.674898e+00 -3.228762e+01 -2.824552e+00 -3.937737e+01 -3.516073e+00 -4.816779e+01 -4.054119e+00 -5.302445e+01 -2.899478e+00 -5.851589e+01 -2.327239e+00 -6.402906e+01 -2.005585e+00 -6.939393e+01 -1.824619e+00 -7.455323e+01 -1.712096e+00 -7.949129e+01 -1.602421e+00 -8.419105e+01 
-1.208502e+00 -8.612561e+01 -9.110599e-01 -9.052782e+01 -5.383731e-01 9.016172e+01 -1.782258e-01 8.574072e+01 1.933883e-01 8.112141e+01 5.740535e-01 7.634305e+01 9.975737e-01 7.150052e+01 1.596075e+00 6.681734e+01 1.353903e+00 5.993964e+01 7.683065e-01 5.366216e+01 4.270713e-01 4.742250e+01 9.535356e-02 4.116225e+01 -3.274944e-01 3.492572e+01 -7.073055e-01 2.851564e+01 -9.556944e-01 2.199226e+01 -1.123521e+00 1.533466e+01 -1.159893e+00 8.554971e+00 -1.213151e+00 1.842874e+00 -1.363006e+00 -4.803486e+00 -1.580239e+00 -1.137986e+01 -1.918764e+00 -1.784636e+01 -2.215716e+00 -2.443738e+01 -2.395268e+00 -3.110804e+01 -2.595123e+00 -3.797356e+01 -3.150786e+00 -4.591508e+01 -3.524969e+00 -5.104412e+01 -2.666175e+00 -5.645017e+01 -2.161310e+00 -6.181122e+01 -1.852459e+00 -6.701953e+01 -1.668723e+00 -7.204362e+01 -1.544773e+00 -7.689025e+01 -1.411368e+00 -8.157802e+01 
-1.392033e+00 -9.069149e+01 -1.170885e+00 -9.546739e+01 -9.170579e-01 9.389752e+01 -6.765554e-01 8.912529e+01 -4.172880e-01 8.415413e+01 -1.336212e-01 7.900692e+01 1.792913e-01 7.370873e+01 4.787432e-01 6.818143e+01 3.603235e-01 6.167000e+01 2.545630e-02 5.515796e+01 -2.683586e-01 4.865168e+01 -5.581955e-01 4.213361e+01 -8.764696e-01 3.559772e+01 -1.166621e+00 2.896187e+01 -1.376711e+00 2.222887e+01 -1.514996e+00 1.539719e+01 -1.581188e+00 8.495252e+00 -1.648754e+00 1.614197e+00 -1.772859e+00 -5.222529e+00 -1.956387e+00 -1.201069e+01 -2.203409e+00 -1.875963e+01 -2.442010e+00 -2.557489e+01 -2.635293e+00 -3.247467e+01 -2.852131e+00 -3.950958e+01 -3.171384e+00 -4.671859e+01 -3.273988e+00 -5.275687e+01 -2.847168e+00 -5.858010e+01 -2.444763e+00 -6.429266e+01 -2.139026e+00 -6.988022e+01 -1.916129e+00 -7.532295e+01 -1.741696e+00 -8.061035e+01 -1.577476e+00 -8.573509e+01 
-1.121029e+00 -8.865868e+01 -8.559203e-01 -9.372790e+01 -5.471459e-01 9.312613e+01 -2.349294e-01 8.804325e+01 9.181732e-02 8.289030e+01 4.260141e-01 7.765438e+01 7.581540e-01 7.231866e+01 1.031995e+00 6.677380e+01 9.426039e-01 6.046803e+01 6.371455e-01 5.411246e+01 3.327660e-01 4.775596e+01 2.107028e-02 4.139182e+01 -3.143449e-01 3.500755e+01 -6.222612e-01 2.853542e+01 -8.576237e-01 2.197256e+01 -1.024112e+00 1.531964e+01 -1.127283e+00 8.606797e+00 -1.230749e+00 1.910452e+00 -1.382861e+00 -4.745227e+00 -1.589735e+00 -1.135528e+01 -1.850619e+00 -1.793450e+01 -2.106154e+00 -2.456748e+01 -2.326951e+00 -3.127578e+01 -2.559732e+00 -3.809072e+01 -2.846608e+00 -4.498149e+01 -2.937586e+00 -5.094563e+01 -2.587876e+00 -5.665965e+01 -2.222378e+00 -6.225245e+01 -1.928793e+00 -6.773363e+01 -1.705357e+00 -7.310186e+01 -1.521352e+00 -7.836634e+01 -1.337710e+00 -8.354481e+01 
-1.387869e+00 -9.291769e+01 -1.182474e+00 -9.832776e+01 -9.601795e-01 9.660351e+01 -7.331510e-01 9.119409e+01 -4.923597e-01 8.571079e+01 -2.390330e-01 8.013328e+01 1.291831e-02 7.443109e+01 2.015636e-01 6.849978e+01 1.423941e-01 6.205169e+01 -8.111926e-02 5.549074e+01 -3.297656e-01 4.890456e+01 -5.904028e-01 4.230609e+01 -8.645244e-01 3.568476e+01 -1.116494e+00 2.899688e+01 -1.313050e+00 2.223412e+01 -1.452830e+00 1.539903e+01 -1.545668e+00 8.518503e+00 -1.637656e+00 1.645580e+00 -1.766248e+00 -5.197606e+00 -1.940565e+00 -1.200778e+01 -2.155943e+00 -1.880216e+01 -2.373714e+00 -2.563629e+01 -2.573073e+00 -3.252868e+01 -2.776380e+00 -3.947945e+01 -2.984116e+00 -4.639025e+01 -3.025407e+00 -5.270104e+01 -2.772312e+00 -5.875470e+01 -2.464538e+00 -6.468101e+01 -2.188495e+00 -7.051029e+01 -1.958548e+00 -7.624591e+01 -1.761822e+00 -8.188885e+01 -1.577667e+00 -8.744315e+01 
-1.088747e+00 -9.122724e+01 -8.528647e-01 -9.692817e+01 -5.941225e-01 9.613374e+01 -3.134905e-01 9.042424e+01 -2.165935e-02 8.474675e+01 2.774039e-01 7.906815e+01 5.735051e-01 7.335148e+01 8.148346e-01 6.749015e+01 7.576519e-01 6.104187e+01 5.077690e-01 5.456331e+01 2.466256e-01 4.809722e+01 -2.945417e-02 4.163979e+01 -3.303911e-01 3.517589e+01 -6.098519e-01 2.864596e+01 -8.283058e-01 2.204310e+01 -9.868833e-01 1.536653e+01 -1.091750e+00 8.643653e+00 -1.198857e+00 1.937415e+00 -1.347913e+00 -4.732705e+00 -1.545672e+00 -1.136331e+01 -1.789997e+00 -1.797013e+01 -2.031612e+00 -2.462176e+01 -2.246503e+00 -3.133706e+01 -2.467389e+00 -3.813770e+01 -2.721037e+00 -4.498426e+01 -2.810019e+00 -5.108938e+01 -2.528298e+00 -5.698889e+01 -2.211469e+00 -6.280489e+01 -1.934740e+00 -6.855999e+01 -1.702971e+00 -7.426241e+01 -1.499241e+00 -7.992574e+01 -1.300929e+00 -8.557134e+01 
-1.405661e+00 -9.520092e+01 -1.219738e+00 -1.012089e+02 -1.027533e+00 9.935172e+01 -8.108577e-01 9.334414e+01 -5.848992e-01 8.736674e+01 -3.465960e-01 8.138839e+01 -9.447466e-02 7.538781e+01 1.627161e-01 6.933413e+01 9.513415e-02 6.254456e+01 -1.597641e-01 5.584867e+01 -3.781275e-01 4.916981e+01 -6.090016e-01 4.250043e+01 -8.758072e-01 3.583740e+01 -1.121959e+00 2.910669e+01 -1.305963e+00 2.231200e+01 -1.436569e+00 1.544765e+01 -1.509045e+00 8.535278e+00 -1.589107e+00 1.647392e+00 -1.713818e+00 -5.205920e+00 -1.884156e+00 -1.202187e+01 -2.107542e+00 -1.880587e+01 -2.324055e+00 -2.563944e+01 -2.506234e+00 -3.252489e+01 -2.692803e+00 -3.949280e+01 -2.952874e+00 -4.666812e+01 -3.081937e+00 -5.289755e+01 -2.755636e+00 -5.905457e+01 -2.453329e+00 -6.516520e+01 -2.191959e+00 -7.123255e+01 -1.968153e+00 -7.725925e+01 -1.770924e+00 -8.325259e+01 -1.587158e+00 -8.922607e+01 
-1.086054e+00 -9.374317e+01 -8.807681e-01 -1.000250e+02 -6.661522e-01 9.906836e+01 -4.101741e-01 9.278067e+01 -1.472531e-01 8.660964e+01 1.278907e-01 8.052500e+01 4.385018e-01 7.453835e+01 8.825917e-01 6.879618e+01 7.737915e-01 6.164449e+01 3.918349e-01 5.500174e+01 1.763905e-01 4.842970e+01 -5.466913e-02 4.189271e+01 -3.690293e-01 3.540911e+01 -6.580821e-01 2.882939e+01 -8.583787e-01 2.218747e+01 -1.002096e+00 1.546107e+01 -1.051529e+00 8.664774e+00 -1.124125e+00 1.928070e+00 -1.264061e+00 -4.760150e+00 -1.455259e+00 -1.139683e+01 -1.733859e+00 -1.796231e+01 -1.983777e+00 -2.461261e+01 -2.159643e+00 -3.131364e+01 -2.339450e+00 -3.814250e+01 -2.744407e+00 -4.573279e+01 -3.068318e+00 -5.143005e+01 -2.507358e+00 -5.739913e+01 -2.161410e+00 -6.341718e+01 -1.896334e+00 -6.943793e+01 -1.673642e+00 -7.546024e+01 -1.473857e+00 -8.149984e+01 -1.281805e+00 -8.758267e+01 
-1.433666e+00 -9.744528e+01 -1.271427e+00 -1.040006e+02 -1.110327e+00 1.020260e+02 -9.047186e-01 9.546994e+01 -6.947840e-01 8.902831e+01 -4.720067e-01 8.267067e+01 -2.123681e-01 7.640735e+01 1.729554e-01 7.036741e+01 7.674991e-02 6.306535e+01 -2.573558e-01 5.622261e+01 -4.405924e-01 4.944847e+01 -6.360729e-01 4.270867e+01 -9.058614e-01 3.601939e+01 -1.153574e+00 2.924609e+01 -1.322618e+00 2.241908e+01 -1.441614e+00 1.551780e+01 -1.476595e+00 8.554712e+00 -1.532759e+00 1.645570e+00 -1.649517e+00 -5.220272e+00 -1.812510e+00 -1.204021e+01 -2.054487e+00 -1.879625e+01 -2.271098e+00 -2.562772e+01 -2.421340e+00 -3.250339e+01 -2.575975e+00 -3.949501e+01 -2.936483e+00 -4.717499e+01 -3.226931e+00 -5.316035e+01 -2.717685e+00 -5.939897e+01 -2.402071e+00 -6.569152e+01 -2.158525e+00 -7.199405e+01 -1.952284e+00 -7.830386e+01 -1.768668e+00 -8.463315e+01 -1.598091e+00 -9.100341e+01 
-1.098638e+00 -9.613220e+01 -9.259191e-01 -1.029372e+02 -7.535305e-01 1.018393e+02 -5.206506e-01 9.502596e+01 -2.899451e-01 8.839000e+01 -6.022723e-02 8.188550e+01 1.692797e-01 7.547551e+01 3.863610e-01 6.910345e+01 3.520257e-01 6.224893e+01 1.659060e-01 5.550880e+01 -8.768944e-03 4.882774e+01 -2.022414e-01 4.218576e+01 -4.303186e-01 3.557099e+01 -6.489773e-01 2.892189e+01 -8.240340e-01 2.223579e+01 -9.595986e-01 1.550560e+01 -1.052123e+00 8.745914e+00 -1.150158e+00 2.009633e+00 -1.281840e+00 -4.696511e+00 -1.447869e+00 -1.137179e+01 -1.652161e+00 -1.802246e+01 -1.848696e+00 -2.471087e+01 -2.015118e+00 -3.144351e+01 -2.181891e+00 -3.825255e+01 -2.401523e+00 -4.522146e+01 -2.510946e+00 -5.150892e+01 -2.268362e+00 -5.776270e+01 -2.030342e+00 -6.402675e+01 -1.816354e+00 -7.031341e+01 -1.622960e+00 -7.663910e+01 -1.443294e+00 -8.302802e+01 -1.270324e+00 -8.951230e+01 
-1.465181e+00 -9.957231e+01 -1.329862e+00 -1.066178e+02 -1.201494e+00 1.045360e+02 -1.009559e+00 9.748501e+01 -8.220728e-01 9.060805e+01 -6.363439e-01 8.385752e+01 -4.528258e-01 7.719095e+01 -2.935220e-01 7.053415e+01 -3.186038e-01 6.356486e+01 -4.618253e-01 5.664877e+01 -6.100684e-01 4.978182e+01 -7.737897e-01 4.294970e+01 -9.612292e-01 3.613838e+01 -1.140887e+00 2.930440e+01 -1.286803e+00 2.244117e+01 -1.399609e+00 1.554401e+01 -1.480541e+00 8.626060e+00 -1.564769e+00 1.724476e+00 -1.675086e+00 -5.153015e+00 -1.814161e+00 -1.200601e+01 -1.981635e+00 -1.884331e+01 -2.144833e+00 -2.570844e+01 -2.287161e+00 -3.261129e+01 -2.428776e+00 -3.957388e+01 -2.594407e+00 -4.660607e+01 -2.661207e+00 -5.318228e+01 -2.480846e+00 -5.969275e+01 -2.277934e+00 -6.620816e+01 -2.088417e+00 -7.274745e+01 -1.915299e+00 -7.932743e+01 -1.755904e+00 -8.597043e+01 -1.606784e+00 -9.270603e+01 
-1.118115e+00 -9.833254e+01 -9.786768e-01 -1.055996e+02 -8.464808e-01 1.043775e+02 -6.359182e-01 9.709733e+01 -4.366948e-01 9.004125e+01 -2.514345e-01 8.315234e+01 -8.901764e-02 7.637340e+01 2.487345e-02 6.962870e+01 2.276617e-02 6.278744e+01 -6.721163e-02 5.597158e+01 -1.915535e-01 4.919852e+01 -3.399443e-01 4.246258e+01 -5.064857e-01 3.574988e+01 -6.717402e-01 2.903544e+01 -8.188680e-01 2.230904e+01 -9.447206e-01 1.556701e+01 -1.052520e+00 8.817065e+00 -1.160393e+00 2.077031e+00 -1.282556e+00 -4.646931e+00 -1.422363e+00 -1.135596e+01 -1.576597e+00 -1.805942e+01 -1.728302e+00 -2.477970e+01 -1.866064e+00 -3.152503e+01 -1.992164e+00 -3.829607e+01 -2.101625e+00 -4.506002e+01 -2.129990e+00 -5.162068e+01 -2.025383e+00 -5.811622e+01 -1.875919e+00 -6.461348e+01 -1.717053e+00 -7.114912e+01 -1.560545e+00 -7.775339e+01 -1.408977e+00 -8.445883e+01 -1.261769e+00 -9.130349e+01 
-1.496221e+00 -1.015181e+02 -1.389179e+00 -1.089927e+02 -1.293497e+00 1.068139e+02 -1.116830e+00 9.932803e+01 -9.527221e-01 9.206297e+01 -8.022799e-01 8.496175e+01 -6.728739e-01 7.796836e+01 -5.863497e-01 7.101449e+01 -5.886378e-01 6.400955e+01 -6.608153e-01 5.702612e+01 -7.644964e-01 5.008080e+01 -8.884650e-01 4.316943e+01 -1.026118e+00 3.627971e+01 -1.162458e+00 2.939220e+01 -1.284447e+00 2.249737e+01 -1.389148e+00 1.559195e+01 -1.479900e+00 8.681742e+00 -1.570437e+00 1.779429e+00 -1.672067e+00 -5.110090e+00 -1.787873e+00 -1.198812e+01 -1.914710e+00 -1.886292e+01 -2.039861e+00 -2.575102e+01 -2.154057e+00 -3.265922e+01 -2.256644e+00 -3.958532e+01 -2.339276e+00 -4.649593e+01 -2.354325e+00 -5.326550e+01 -2.268906e+00 -5.998095e+01 -2.141553e+00 -6.670055e+01 -2.003324e+00 -7.345949e+01 -1.866638e+00 -8.028688e+01 -1.735823e+00 -8.721365e+01 -1.612156e+00 -9.427612e+01 
-1.139442e+00 -1.002931e+02 -1.032232e+00 -1.079590e+02 -9.369276e-01 1.066294e+02 -7.471334e-01 9.894635e+01 -5.750744e-01 9.152697e+01 -4.242075e-01 8.431077e+01 -3.029604e-01 7.723951e+01 -2.271670e-01 7.025383e+01 -2.177333e-01 6.329993e+01 -2.658026e-01 5.639141e+01 -3.506863e-01 4.953206e+01 -4.601451e-01 4.271563e+01 -5.847582e-01 3.593020e+01 -7.129621e-01 2.916097e+01 -8.351303e-01 2.239809e+01 -9.477042e-01 1.563690e+01 -1.052358e+00 8.878700e+00 -1.156233e+00 2.128376e+00 -1.265771e+00 -4.612445e+00 -1.382768e+00 -1.134630e+01 -1.504254e+00 -1.808009e+01 -1.622128e+00 -2.482372e+01 -1.728612e+00 -3.158137e+01 -1.818041e+00 -3.834834e+01 -1.879315e+00 -4.510201e+01 -1.887293e+00 -5.179541e+01 -1.829694e+00 -5.846719e+01 -1.732633e+00 -6.516131e+01 -1.617298e+00 -7.191557e+01 -1.495658e+00 -7.876562e+01 -1.373633e+00 -8.574919e+01 -1.254177e+00 -9.290873e+01 
-1.524362e+00 -1.032309e+02 -1.445025e+00 -1.110714e+02 -1.380088e+00 1.088068e+02 -1.218760e+00 1.009509e+02 -1.075349e+00 9.335497e+01 -9.517625e-01 8.595946e+01 -8.543156e-01 7.870841e+01 -7.951577e-01 7.154777e+01 -7.886484e-01 6.443270e+01 -8.284568e-01 5.736537e+01 -8.991115e-01 5.034577e+01 -9.900816e-01 4.336719e+01 -1.093075e+00 3.641862e+01 -1.198779e+00 2.948732e+01 -1.299568e+00 2.256431e+01 -1.392531e+00 1.564506e+01 -1.479145e+00 8.729835e+00 -1.564943e+00 1.821623e+00 -1.655024e+00 -5.078789e+00 -1.750892e+00 -1.197390e+01 -1.850059e+00 -1.886962e+01 -1.946122e+00 -2.577373e+01 -2.032520e+00 -3.268963e+01 -2.103624e+00 -3.961319e+01 -2.149468e+00 -4.652682e+01 -2.151361e+00 -5.340113e+01 -2.101321e+00 -6.026408e+01 -2.017943e+00 -6.715303e+01 -1.918706e+00 -7.410258e+01 -1.814634e+00 -8.114638e+01 -1.711948e+00 -8.832052e+01 -1.614291e+00 -9.566606e+01 
-1.159535e+00 -1.019722e+02 -1.082052e+00 -1.099721e+02 -1.019401e+00 1.085514e+02 -8.482323e-01 1.005321e+02 -6.982706e-01 9.281026e+01 -5.722071e-01 8.532534e+01 -4.756093e-01 7.802153e+01 -4.165459e-01 7.084858e+01 -4.019981e-01 6.376725e+01 -4.283343e-01 5.676205e+01 -4.859570e-01 4.982254e+01 -5.659037e-01 4.293743e+01 -6.601068e-01 3.609413e+01 -7.606674e-01 2.928012e+01 -8.612526e-01 2.248554e+01 -9.586823e-01 1.570403e+01 -1.052939e+00 8.932620e+00 -1.146477e+00 2.170212e+00 -1.241720e+00 -4.585083e+00 -1.338996e+00 -1.133703e+01 -1.435923e+00 -1.809127e+01 -1.527597e+00 -2.485403e+01 -1.608247e+00 -3.162881e+01 -1.671755e+00 -3.841443e+01 -1.709861e+00 -4.520403e+01 -1.712167e+00 -5.199081e+01 -1.675530e+00 -5.879510e+01 -1.609659e+00 -6.564852e+01 -1.526146e+00 -7.258581e+01 -1.434005e+00 -7.964390e+01 -1.339400e+00 -8.686313e+01 -1.246674e+00 -9.428877e+01 
-1.548104e+00 -1.046692e+02 -1.494466e+00 -1.128107e+02 -1.457122e+00 1.104721e+02 -1.310289e+00 1.023129e+02 -1.184119e+00 9.444659e+01 -1.079926e+00 8.681326e+01 -1.001494e+00 7.935898e+01 -9.545721e-01 7.203623e+01 -9.437820e-01 6.480828e+01 -9.661724e-01 5.765686e+01 -1.014204e+00 5.056964e+01 -1.080412e+00 4.353477e+01 -1.157997e+00 3.654013e+01 -1.240499e+00 2.957413e+01 -1.322823e+00 2.262758e+01 -1.402401e+00 1.569432e+01 -1.479242e+00 8.771034e+00 -1.555271e+00 1.856016e+00 -1.632409e+00 -5.052911e+00 -1.710932e+00 -1.195932e+01 -1.788896e+00 -1.886820e+01 -1.862325e+00 -2.578490e+01 -1.926375e+00 -3.271268e+01 -1.975723e+00 -3.965132e+01 -2.003509e+00 -4.659689e+01 -2.001927e+00 -5.354742e+01 -1.969009e+00 -6.052062e+01 -1.912241e+00 -6.754453e+01 -1.841260e+00 -7.465119e+01 -1.764117e+00 -8.187547e+01 -1.686719e+00 -8.925611e+01 -1.613468e+00 -9.683716e+01 
-1.176472e+00 -1.033362e+02 -1.125349e+00 -1.116045e+02 -1.090755e+00 1.101076e+02 -9.360095e-01 1.018193e+02 -8.038411e-01 9.385641e+01 -6.957602e-01 8.615905e+01 -6.147733e-01 7.867326e+01 -5.645580e-01 7.135221e+01 -5.473274e-01 6.415856e+01 -5.609016e-01 5.706693e+01 -5.999336e-01 5.005850e+01 -6.582671e-01 4.311725e+01 -7.298180e-01 3.622865e+01 -8.088993e-01 2.937976e+01 -8.909283e-01 2.255994e+01 -9.731011e-01 1.576113e+01 -1.054434e+00 8.977576e+00 -1.135229e+00 2.204895e+00 -1.215903e+00 -4.561206e+00 -1.295899e+00 -1.132567e+01 -1.373204e+00 -1.809420e+01 -1.444407e+00 -2.487259e+01 -1.505275e+00 -3.166567e+01 -1.551095e+00 -3.847677e+01 -1.576660e+00 -4.530876e+01 -1.577333e+00 -5.216826e+01 -1.552395e+00 -5.907352e+01 -1.506433e+00 -6.605162e+01 -1.446135e+00 -7.313517e+01 -1.377932e+00 -8.036112e+01 -1.307239e+00 -8.777100e+01 -1.238648e+00 -9.541168e+01 
-1.566497e+00 -1.058004e+02 -1.535736e+00 -1.141772e+02 -1.522315e+00 1.117754e+02 -1.388893e+00 1.033803e+02 -1.277083e+00 9.530421e+01 -1.187257e+00 8.748769e+01 -1.121094e+00 7.987806e+01 -1.080864e+00 7.242999e+01 -1.067722e+00 6.510726e+01 -1.079644e+00 5.788406e+01 -1.112203e+00 5.074100e+01 -1.160261e+00 4.366197e+01 -1.218743e+00 3.663288e+01 -1.282979e+00 2.964142e+01 -1.349254e+00 2.267757e+01 -1.415315e+00 1.573363e+01 -1.480390e+00 8.803996e+00 -1.544733e+00 1.884287e+00 -1.608698e+00 -5.029656e+00 -1.671869e+00 -1.194243e+01 -1.732638e+00 -1.885918e+01 -1.788255e+00 -2.578519e+01 -1.835244e+00 -3.272508e+01 -1.869709e+00 -3.968267e+01 -1.887480e+00 -4.666196e+01 -1.885095e+00 -5.367077e+01 -1.862269e+00 -6.072620e+01 -1.822828e+00 -6.785323e+01 -1.772483e+00 -7.508233e+01 -1.716955e+00 -8.244863e+01 -1.661260e+00 -8.999216e+01 -1.609752e+00 -9.775865e+01 
-1.189030e+00 -1.043588e+02 -1.160559e+00 -1.128293e+02 -1.149489e+00 1.112689e+02 -1.009292e+00 1.027788e+02 -8.917733e-01 9.463591e+01 -7.973505e-01 8.678063e+01 -7.272242e-01 7.916005e+01 -6.827096e-01 7.172836e+01 -6.641118e-01 6.444772e+01 -6.696720e-01 5.728847e+01 -6.958872e-01 5.022712e+01 -7.384346e-01 4.324425e+01 -7.928251e-01 3.632334e+01 -8.548409e-01 2.945026e+01 -9.209755e-01 2.261330e+01 -9.887654e-01 1.580296e+01 -1.056806e+00 9.011636e+00 -1.124429e+00 2.232935e+00 -1.191106e+00 -4.539079e+00 -1.255868e+00 -1.131043e+01 -1.316987e+00 -1.808746e+01 -1.371969e+00 -2.487669e+01 -1.417797e+00 -3.168470e+01 -1.451227e+00 -3.851835e+01 -1.469148e+00 -4.538598e+01 -1.469387e+00 -5.229984e+01 -1.452003e+00 -5.927901e+01 -1.419684e+00 -6.634934e+01 -1.376673e+00 -7.354240e+01 -1.327643e+00 -8.089497e+01 -1.277128e+00 -8.844905e+01 -1.229466e+00 -9.625236e+01 
-1.578926e+00 -1.065998e+02 -1.567908e+00 -1.151455e+02 -1.574691e+00 1.126894e+02 -1.453786e+00 1.041258e+02 -1.354371e+00 9.590045e+01 -1.275942e+00 8.795416e+01 -1.218720e+00 8.023495e+01 -1.183119e+00 7.269803e+01 -1.168854e+00 6.530643e+01 -1.174165e+00 5.803087e+01 -1.196009e+00 5.084810e+01 -1.230729e+00 4.373908e+01 -1.274579e+00 3.668785e+01 -1.324094e+00 2.968104e+01 -1.376436e+00 2.270760e+01 -1.429644e+00 1.575864e+01 -1.482632e+00 8.827012e+00 -1.534917e+00 1.906743e+00 -1.586140e+00 -5.007661e+00 -1.635592e+00 -1.192169e+01 -1.681948e+00 -1.884107e+01 -1.723255e+00 -2.577176e+01 -1.757122e+00 -3.271997e+01 -1.780983e+00 -3.969244e+01 -1.792443e+00 -4.669758e+01 -1.789962e+00 -5.374750e+01 -1.773823e+00 -6.086026e+01 -1.746425e+00 -6.806009e+01 -1.711497e+00 -7.537680e+01 -1.673213e+00 -8.284547e+01 -1.635700e+00 -9.050669e+01 -1.602941e+00 -9.840705e+01 
-1.196425e+00 -1.050209e+02 -1.186917e+00 -1.136268e+02 -1.195134e+00 1.120128e+02 -1.068118e+00 1.033883e+02 -9.631811e-01 9.512583e+01 -8.798675e-01 8.716629e+01 -8.181857e-01 7.945721e+01 -7.781512e-01 7.195301e+01 -7.591852e-01 6.461513e+01 -7.596590e-01 5.741182e+01 -7.769663e-01 5.031702e+01 -8.079163e-01 4.330912e+01 -8.491374e-01 3.637003e+01 -8.974145e-01 2.948454e+01 -9.499767e-01 2.263995e+01 -1.004684e+00 1.582572e+01 -1.060034e+00 9.033022e+00 -1.114984e+00 2.254217e+00 -1.168634e+00 -4.517716e+00 -1.219909e+00 -1.128966e+01 -1.267371e+00 -1.806867e+01 -1.309194e+00 -2.486217e+01 -1.343302e+00 -3.167825e+01 -1.367595e+00 -3.852610e+01 -1.380285e+00 -4.541708e+01 -1.380387e+00 -5.236619e+01 -1.368271e+00 -5.939350e+01 -1.345808e+00 -6.652463e+01 -1.315959e+00 -7.379071e+01 -1.282253e+00 -8.122827e+01 -1.248452e+00 -8.887941e+01 -1.218461e+00 -9.679215e+01 
-1.584991e+00 -1.070502e+02 -1.590609e+00 -1.156980e+02 -1.614089e+00 1.131943e+02 -1.505199e+00 1.045297e+02 -1.417079e+00 9.621511e+01 -1.348507e+00 8.819193e+01 -1.298744e+00 8.040846e+01 -1.267174e+00 7.282003e+01 -1.252824e+00 6.538905e+01 -1.254016e+00 5.808453e+01 -1.268398e+00 5.088118e+01 -1.293228e+00 4.375817e+01 -1.325685e+00 3.669827e+01 -1.363138e+00 2.968718e+01 -1.403369e+00 2.271308e+01 -1.444706e+00 1.576626e+01 -1.486023e+00 8.838631e+00 -1.526581e+00 1.923277e+00 -1.565770e+00 -4.986121e+00 -1.602846e+00 -1.189570e+01 -1.636778e+00 -1.881175e+01 -1.666216e+00 -2.574097e+01 -1.689611e+00 -3.269074e+01 -1.705407e+00 -3.966968e+01 -1.712329e+00 -4.668855e+01 -1.709794e+00 -5.376155e+01 -1.698332e+00 -6.090753e+01 -1.679692e+00 -6.815057e+01 -1.656540e+00 -7.552010e+01 -1.632041e+00 -8.305101e+01 -1.609579e+00 -9.078397e+01 -1.592663e+00 -9.876583e+01 
-1.198180e+00 -1.053096e+02 -1.204174e+00 -1.139842e+02 -1.227829e+00 1.123240e+02 -1.113170e+00 1.036321e+02 -1.019614e+00 9.531037e+01 -9.460414e-01 8.729983e+01 -8.916839e-01 7.954839e+01 -8.558104e-01 7.201057e+01 -8.373818e-01 6.464746e+01 -8.348138e-01 5.742629e+01 -8.459780e-01 5.031972e+01 -8.683814e-01 4.330497e+01 -8.994038e-01 3.636297e+01 -9.365246e-01 2.947781e+01 -9.775104e-01 2.263617e+01 -1.020530e+00 1.582688e+01 -1.064164e+00 9.040449e+00 -1.107307e+00 2.268555e+00 -1.148995e+00 -4.496436e+00 -1.188240e+00 -1.126193e+01 -1.223908e+00 -1.803550e+01 -1.254715e+00 -2.482524e+01 -1.279302e+00 -3.164017e+01 -1.296403e+00 -3.849086e+01 -1.305073e+00 -4.539023e+01 -1.304977e+00 -5.235456e+01 -1.296643e+00 -5.940447e+01 -1.281533e+00 -6.656550e+01 -1.261878e+00 -7.386837e+01 -1.240438e+00 -8.134926e+01 -1.220333e+00 -8.905006e+01 -1.204986e+00 -9.701871e+01 
-1.584458e+00 -1.071416e+02 -1.603833e+00 -1.158246e+02 -1.640831e+00 1.132780e+02 -1.543909e+00 1.045793e+02 -1.466691e+00 9.623550e+01 -1.407394e+00 8.818803e+01 -1.364640e+00 8.038557e+01 -1.337207e+00 7.278367e+01 -1.323757e+00 6.534454e+01 -1.322642e+00 5.803657e+01 -1.331892e+00 5.083358e+01 -1.349338e+00 4.371392e+01 -1.372793e+00 3.665971e+01 -1.400218e+00 2.965621e+01 -1.429865e+00 2.269121e+01 -1.460355e+00 1.575462e+01 -1.490672e+00 8.837931e+00 -1.520078e+00 1.933800e+00 -1.547967e+00 -4.964468e+00 -1.573721e+00 -1.186333e+01 -1.596614e+00 -1.876938e+01 -1.615801e+00 -2.568975e+01 -1.630382e+00 -3.263248e+01 -1.639539e+00 -3.960715e+01 -1.642726e+00 -4.662560e+01 -1.639903e+00 -5.370289e+01 -1.631732e+00 -6.085814e+01 -1.619628e+00 -6.811520e+01 -1.605632e+00 -7.550302e+01 -1.592219e+00 -8.305602e+01 -1.582160e+00 -9.081452e+01 -1.578470e+00 -9.882521e+01 