# vtk DataFile Version 2.0
Comment goes here
ASCII

DATASET STRUCTURED_POINTS
FIELD FieldData 1
TIME 1 1 double
0.01700000
DIMENSIONS    64   64   1

ORIGIN    0.000   0.000   0.000
SPACING   0.03125 0.03125   1.000

POINT_DATA   4096
VECTORS u double

0.052849 -0.025691 0.000000 -0.590437 0.007892 0.000000 0.389602 -0.002014 0.000000 -0.711537 0.001721 0.000000 0.438554 -0.001636 0.000000 -0.688947 -0.000595 0.000000 0.367973 0.000220 0.000000 -0.576511 -0.000615 0.000000 0.236314 0.000607 0.000000 -0.409768 -0.001743 0.000000 0.076652 0.000999 0.000000 -0.234314 -0.003335 0.000000 -0.074950 0.001005 0.000000 -0.077496 -0.005364 0.000000 -0.195971 0.000939 0.000000 0.039046 -0.007079 0.000000 -0.267855 0.002067 0.000000 0.101881 -0.005366 0.000000 -0.293847 0.003815 0.000000 0.118134 -0.005139 0.000000 -0.282003 0.004140 0.000000 0.102036 -0.003933 0.000000 -0.247134 0.002819 0.000000 0.072226 -0.002544 0.000000 -0.208829 0.001715 0.000000 0.040178 -0.002230 0.000000 -0.171309 0.002577 0.000000 0.012580 -0.003346 0.000000 -0.145836 0.003700 0.000000 -0.000137 -0.003507 0.000000 -0.131089 0.003018 0.000000 -0.011839 -0.002192 0.000000 -0.113187 0.001762 0.000000 -0.025733 -0.001500 0.000000 -0.102261 0.001481 0.000000 -0.021988 -0.001730 0.000000 -0.113932 0.001312 0.000000 0.000063 -0.000877 0.000000 -0.134229 -0.000331 0.000000 0.017620 0.000791 0.000000 -0.143970 -0.001403 0.000000 0.023493 0.001553 0.000000 -0.139134 -0.002267 0.000000 0.004885 0.002898 0.000000 -0.102220 -0.003353 0.000000 -0.044479 0.003732 0.000000 -0.047077 -0.002597 0.000000 -0.097366 0.003921 0.000000 -0.008816 -0.000394 0.000000 -0.116990 0.005778 0.000000 -0.020175 0.001238 0.000000 -0.081049 0.004034 0.000000 -0.092953 0.001130 0.000000 0.013601 0.001870 0.000000 -0.212316 0.000873 0.000000 0.133076 0.000237 0.000000 -0.324349 0.000965 0.000000 0.206243 -0.000541 0.000000 -0.354813 0.000858 0.000000 0.170607 -0.000819 0.000000 -0.272010 0.000445 0.000000 0.034501 -0.000246 0.000000 -0.112838 -0.002389 0.000000 -0.151102 0.015135 0.000000 
-0.062997 0.211538 0.000000 0.333643 -0.167950 0.000000 -0.395474 0.059911 0.000000 0.419275 -0.025007 0.000000 -0.421794 -0.010062 0.000000 0.395038 0.035237 0.000000 -0.369907 -0.055117 0.000000 0.320233 0.064317 0.000000 -0.294593 -0.080908 0.000000 0.216172 0.077277 0.000000 -0.207398 -0.083651 0.000000 0.107767 0.072394 0.000000 -0.125700 -0.072618 0.000000 0.005710 0.056864 0.000000 -0.058585 -0.051217 0.000000 -0.078885 0.032411 0.000000 -0.015231 -0.024421 0.000000 -0.136015 0.008189 0.000000 0.010975 -0.002326 0.000000 -0.165646 -0.009911 0.000000 0.015903 0.011732 0.000000 -0.173763 -0.019651 0.000000 0.008583 0.016830 0.000000 -0.175255 -0.020162 0.000000 0.002929 0.017177 0.000000 -0.176396 -0.019497 0.000000 -0.003445 0.014958 0.000000 -0.176423 -0.013871 0.000000 -0.005107 0.007971 0.000000 -0.183803 -0.009171 0.000000 -0.000269 0.007846 0.000000 -0.190864 -0.010857 0.000000 0.002296 0.008687 0.000000 -0.194501 -0.006928 0.000000 0.006148 -0.000663 0.000000 -0.204940 0.004885 0.000000 0.018946 -0.010192 0.000000 -0.222150 0.009701 0.000000 0.033182 -0.008623 0.000000 -0.233452 0.005721 0.000000 0.039043 -0.004538 0.000000 -0.236090 0.000288 0.000000 0.035218 0.005659 0.000000 -0.221662 -0.013974 0.000000 0.009561 0.019423 0.000000 -0.184800 -0.022024 0.000000 -0.030601 0.020014 0.000000 -0.139322 -0.013613 0.000000 -0.066246 0.002121 0.000000 -0.104026 0.009715 0.000000 -0.073533 -0.025931 0.000000 -0.092655 0.040363 0.000000 -0.051408 -0.053752 0.000000 -0.113369 0.063208 0.000000 -0.004823 -0.064133 0.000000 -0.153200 0.058596 0.000000 0.043301 -0.039086 0.000000 -0.174679 0.016572 0.000000 0.052693 0.016950 0.000000 -0.143292 -0.041080 0.000000 0.008947 0.068179 0.000000 -0.066289 -0.079762 0.000000 -0.062474 0.093601 0.000000 0.015268 -0.085657 0.000000 
0.530892 -0.344066 0.000000 0.367508 0.340369 0.000000 0.147286 -0.087646 0.000000 0.449926 0.028041 0.000000 0.130300 0.022601 0.000000 0.428069 -0.052482 0.000000 0.189424 0.075025 0.000000 0.337988 -0.075930 0.000000 0.325371 0.104668 0.000000 0.217053 -0.088938 0.000000 0.482409 0.109403 0.000000 0.098476 -0.085032 0.000000 0.630766 0.103062 0.000000 -0.000705 -0.072479 0.000000 0.759550 0.085534 0.000000 -0.067321 -0.050433 0.000000 0.856123 0.059198 0.000000 -0.101188 -0.031572 0.000000 0.907363 0.033446 0.000000 -0.110589 -0.010068 0.000000 0.923575 0.012257 0.000000 -0.101884 0.003388 0.000000 0.920510 0.004310 0.000000 -0.088443 0.003109 0.000000 0.916016 0.002857 0.000000 -0.077269 0.004144 0.000000 0.910794 0.002604 0.000000 -0.070064 -0.001684 0.000000 0.912542 0.011080 0.000000 -0.074478 -0.008345 0.000000 0.919789 0.010079 0.000000 -0.076877 -0.004757 0.000000 0.919453 0.005399 0.000000 -0.072691 -0.005353 0.000000 0.918609 0.011920 0.000000 -0.078012 -0.014527 0.000000 0.930547 0.018522 0.000000 -0.094585 -0.015113 0.000000 0.945348 0.010971 0.000000 -0.105742 -0.005070 0.000000 0.950865 0.001235 0.000000 -0.110113 0.005378 0.000000 0.947209 -0.016695 0.000000 -0.097563 0.028555 0.000000 0.917115 -0.040214 0.000000 -0.060297 0.043894 0.000000 0.866986 -0.048075 0.000000 -0.019351 0.039566 0.000000 0.816256 -0.035689 0.000000 -0.006492 0.013065 0.000000 0.781687 -0.010133 0.000000 -0.034901 -0.018091 0.000000 0.791293 0.021844 0.000000 -0.099471 -0.044716 0.000000 0.839345 0.040704 0.000000 -0.180201 -0.047886 0.000000 0.887729 0.022444 0.000000 -0.229497 -0.009933 0.000000 0.879292 -0.030530 0.000000 -0.203236 0.042927 0.000000 0.790850 -0.076558 0.000000 -0.110849 0.071175 0.000000 0.652940 -0.083945 0.000000 0.007939 0.015657 0.000000 
0.607222 -0.148031 0.000000 -0.182055 0.215656 0.000000 0.571766 -0.022506 0.000000 -0.207252 -0.008021 0.000000 0.166610 0.011795 0.000000 -0.184540 -0.023888 0.000000 0.526473 0.034964 0.000000 -0.144620 -0.071630 0.000000 0.742184 0.040027 0.000000 -0.099708 -0.079761 0.000000 0.882989 0.034926 0.000000 -0.056755 -0.075963 0.000000 0.988504 0.026564 0.000000 -0.011390 -0.071920 0.000000 1.081278 0.015399 0.000000 0.038688 -0.064161 0.000000 1.179155 0.009446 0.000000 0.072561 -0.043052 0.000000 1.237117 0.007074 0.000000 0.082800 -0.026123 0.000000 1.282449 0.003027 0.000000 0.082505 -0.016586 0.000000 1.321346 0.003389 0.000000 0.080476 -0.015668 0.000000 1.351090 0.006002 0.000000 0.076353 -0.014275 0.000000 1.379027 0.007753 0.000000 0.069006 -0.015619 0.000000 1.399868 0.012384 0.000000 0.067340 -0.016418 0.000000 1.412104 0.010246 0.000000 0.066176 -0.010520 0.000000 1.421748 0.004502 0.000000 0.065427 -0.006084 0.000000 1.424301 0.004658 0.000000 0.073387 -0.007053 0.000000 1.415114 0.006382 0.000000 0.088619 -0.005100 0.000000 1.401743 0.002534 0.000000 0.099683 0.000204 0.000000 1.392396 -0.000167 0.000000 0.104501 0.003944 0.000000 1.386913 -0.006890 0.000000 0.098868 0.016119 0.000000 1.392082 -0.017843 0.000000 0.080120 0.028106 0.000000 1.400497 -0.020932 0.000000 0.055582 0.037116 0.000000 1.392943 -0.010738 0.000000 0.022470 0.044284 0.000000 1.328101 0.002479 0.000000 -0.012127 0.030757 0.000000 1.257099 0.010817 0.000000 -0.013503 0.015155 0.000000 1.176803 0.016598 0.000000 0.009526 0.010212 0.000000 1.087289 0.010210 0.000000 0.031588 0.025009 0.000000 1.003675 -0.009312 0.000000 0.030152 0.047363 0.000000 0.925309 -0.024207 0.000000 0.012979 0.058148 0.000000 0.824423 -0.025187 0.000000 0.017142 0.036391 0.000000 
0.782469 -0.144870 0.000000 -0.107259 0.375824 0.000000 0.687441 -0.062449 0.000000 -0.110437 0.433197 0.000000 0.300876 -0.000112 0.000000 -0.098927 -0.412345 0.000000 0.653787 0.035105 0.000000 -0.078069 -0.291641 0.000000 0.851029 0.059756 0.000000 -0.058607 -0.229743 0.000000 0.982158 0.066450 0.000000 -0.040895 -0.190547 0.000000 1.083127 0.057697 0.000000 -0.017131 -0.165253 0.000000 1.174926 0.035456 0.000000 0.022625 -0.148311 0.000000 1.279012 0.025325 0.000000 0.051484 -0.089534 0.000000 1.327511 0.023206 0.000000 0.058890 -0.055399 0.000000 1.361166 0.012552 0.000000 0.062732 -0.035510 0.000000 1.388276 0.006339 0.000000 0.066820 -0.026634 0.000000 1.409279 0.006980 0.000000 0.067412 -0.023793 0.000000 1.430862 0.009951 0.000000 0.063258 -0.022525 0.000000 1.448502 0.012747 0.000000 0.061165 -0.020582 0.000000 1.460560 0.011243 0.000000 0.059497 -0.014400 0.000000 1.468885 0.006148 0.000000 0.060255 -0.007907 0.000000 1.469938 0.003959 0.000000 0.067285 -0.005340 0.000000 1.463322 0.003291 0.000000 0.078283 -0.001742 0.000000 1.454086 -0.000092 0.000000 0.086420 0.004277 0.000000 1.447041 -0.003584 0.000000 0.089057 0.010861 0.000000 1.443399 -0.011063 0.000000 0.085100 0.023385 0.000000 1.444945 -0.021466 0.000000 0.075843 0.035479 0.000000 1.447712 -0.023536 0.000000 0.064965 0.047120 0.000000 1.438492 -0.002578 0.000000 0.036188 0.077907 0.000000 1.363424 0.024464 0.000000 -0.008561 0.052912 0.000000 1.305428 0.023220 0.000000 -0.023728 0.035581 0.000000 1.251301 0.017676 0.000000 -0.019556 0.041627 0.000000 1.190730 0.000381 0.000000 -0.011365 0.073681 0.000000 1.125758 -0.029093 0.000000 -0.010887 0.121293 0.000000 1.052692 -0.059385 0.000000 -0.014574 0.172061 0.000000 0.953619 -0.088108 0.000000 -0.009243 0.232859 0.000000 
0.756511 -0.050016 0.000000 -0.117153 0.310684 0.000000 0.644308 -0.019328 0.000000 -0.141867 0.378545 0.000000 0.440772 0.000285 0.000000 -0.142799 -0.376799 0.000000 0.645280 0.014105 0.000000 -0.119383 -0.268872 0.000000 0.806795 0.020565 0.000000 -0.092587 -0.210891 0.000000 0.925691 0.017215 0.000000 -0.065299 -0.176931 0.000000 1.017286 0.002800 0.000000 -0.033524 -0.163719 0.000000 1.102644 -0.024357 0.000000 0.027629 -0.168247 0.000000 1.241035 -0.019413 0.000000 0.072055 -0.091551 0.000000 1.274320 -0.000332 0.000000 0.073585 -0.059778 0.000000 1.306045 -0.000814 0.000000 0.077518 -0.043697 0.000000 1.334426 -0.000699 0.000000 0.082056 -0.036670 0.000000 1.358215 0.005409 0.000000 0.079945 -0.035858 0.000000 1.384564 0.011908 0.000000 0.072482 -0.033259 0.000000 1.406227 0.014477 0.000000 0.066435 -0.028476 0.000000 1.422677 0.011914 0.000000 0.061673 -0.018845 0.000000 1.432669 0.003744 0.000000 0.064293 -0.007138 0.000000 1.431310 -0.002373 0.000000 0.074019 -0.000437 0.000000 1.423165 -0.004617 0.000000 0.086381 0.004135 0.000000 1.412255 -0.005603 0.000000 0.097104 0.007250 0.000000 1.403104 -0.002804 0.000000 0.097847 0.007586 0.000000 1.403189 -0.002933 0.000000 0.089651 0.014573 0.000000 1.407914 -0.008587 0.000000 0.079150 0.025339 0.000000 1.416196 -0.010054 0.000000 0.076971 0.046336 0.000000 1.427506 0.018040 0.000000 0.052969 0.119353 0.000000 1.305494 0.047228 0.000000 -0.012853 0.088753 0.000000 1.243905 0.025984 0.000000 -0.019146 0.069282 0.000000 1.186798 0.012425 0.000000 -0.008045 0.070783 0.000000 1.122337 0.002019 0.000000 0.002141 0.089981 0.000000 1.053044 -0.009789 0.000000 0.000920 0.120429 0.000000 0.976989 -0.020520 0.000000 -0.012633 0.157220 0.000000 0.882284 -0.030517 0.000000 -0.039840 0.207540 0.000000 
0.888464 -0.067557 0.000000 -0.066593 0.488028 0.000000 0.764053 -0.037734 0.000000 -0.079129 0.636733 0.000000 0.563403 0.000820 0.000000 -0.079780 -0.616853 0.000000 0.757070 0.011689 0.000000 -0.069685 -0.453156 0.000000 0.905968 0.032961 0.000000 -0.060884 -0.348639 0.000000 1.014301 0.039162 0.000000 -0.054508 -0.282142 0.000000 1.095383 0.025922 0.000000 -0.044194 -0.250612 0.000000 1.172335 -0.025697 0.000000 0.020385 -0.286702 0.000000 1.350952 -0.019102 0.000000 0.068331 -0.122819 0.000000 1.356682 0.021676 0.000000 0.055962 -0.087124 0.000000 1.375315 0.008619 0.000000 0.060232 -0.063891 0.000000 1.393724 0.001801 0.000000 0.070090 -0.050423 0.000000 1.408630 0.009092 0.000000 0.070404 -0.050142 0.000000 1.431851 0.017414 0.000000 0.062632 -0.044188 0.000000 1.451667 0.018794 0.000000 0.055619 -0.037032 0.000000 1.468260 0.016005 0.000000 0.048753 -0.024392 0.000000 1.478521 0.003529 0.000000 0.052418 -0.006547 0.000000 1.474710 -0.005767 0.000000 0.063472 0.002805 0.000000 1.466043 -0.009072 0.000000 0.075613 0.009168 0.000000 1.455501 -0.010815 0.000000 0.087260 0.013429 0.000000 1.445705 -0.004327 0.000000 0.086260 0.010776 0.000000 1.448657 -0.002866 0.000000 0.077091 0.018660 0.000000 1.454180 -0.010965 0.000000 0.071871 0.027197 0.000000 1.467664 -0.021358 0.000000 0.089494 0.035810 0.000000 1.511110 0.021425 0.000000 0.072643 0.199919 0.000000 1.330506 0.090286 0.000000 -0.030244 0.114501 0.000000 1.286422 0.029513 0.000000 -0.038041 0.092688 0.000000 1.253245 0.006575 0.000000 -0.030572 0.106088 0.000000 1.210308 -0.009805 0.000000 -0.023680 0.142974 0.000000 1.156844 -0.027872 0.000000 -0.022140 0.197349 0.000000 1.090570 -0.045833 0.000000 -0.026113 0.266765 0.000000 1.003710 -0.060901 0.000000 -0.036620 0.358631 0.000000 
0.891105 -0.020043 0.000000 -0.083355 0.435096 0.000000 0.801773 -0.006792 0.000000 -0.104001 0.579195 0.000000 0.692184 0.000936 0.000000 -0.104463 -0.570466 0.000000 0.803865 0.004010 0.000000 -0.096755 -0.417771 0.000000 0.907413 0.011764 0.000000 -0.085329 -0.319223 0.000000 0.989600 0.010839 0.000000 -0.077541 -0.258014 0.000000 1.046536 -0.007514 0.000000 -0.084133 -0.240671 0.000000 1.069574 -0.088935 0.000000 -0.128324 -0.346864 0.000000 1.021049 -0.067358 0.000000 -0.166265 -0.097280 0.000000 1.058205 0.012036 0.000000 -0.170568 -0.078411 0.000000 1.093214 -0.005084 0.000000 -0.180360 -0.062105 0.000000 1.122471 -0.010557 0.000000 -0.191966 -0.051577 0.000000 1.143901 0.005095 0.000000 -0.195917 -0.059080 0.000000 1.152365 0.019679 0.000000 -0.191975 -0.053075 0.000000 1.154668 0.021491 0.000000 -0.185182 -0.045068 0.000000 1.153623 0.018780 0.000000 -0.178818 -0.029107 0.000000 1.154486 0.000079 0.000000 -0.179501 -0.003326 0.000000 1.161419 -0.013427 0.000000 -0.184717 0.008231 0.000000 1.168802 -0.016758 0.000000 -0.189981 0.014677 0.000000 1.174364 -0.017249 0.000000 -0.193664 0.017046 0.000000 1.175906 -0.001804 0.000000 -0.189819 0.004634 0.000000 1.168226 0.006235 0.000000 -0.182063 0.009049 0.000000 1.157873 -0.003366 0.000000 -0.177469 0.011855 0.000000 1.145049 -0.027676 0.000000 -0.177870 0.002890 0.000000 1.131081 0.034890 0.000000 -0.149960 0.299957 0.000000 1.211372 0.150115 0.000000 -0.076465 0.132837 0.000000 1.224061 0.033781 0.000000 -0.043194 0.102458 0.000000 1.200802 0.004956 0.000000 -0.025236 0.113721 0.000000 1.159453 -0.004873 0.000000 -0.016676 0.143445 0.000000 1.107824 -0.011329 0.000000 -0.017798 0.186703 0.000000 1.047404 -0.016547 0.000000 -0.028922 0.244080 0.000000 0.975418 -0.020011 0.000000 -0.050774 0.322786 0.000000 
1.002879 -0.034975 0.000000 -0.052148 0.577359 0.000000 0.911987 -0.017088 0.000000 -0.061833 0.746322 0.000000 0.803887 0.001283 0.000000 -0.062242 -0.728534 0.000000 0.907834 0.003980 0.000000 -0.060293 -0.556704 0.000000 1.001995 0.021535 0.000000 -0.060134 -0.430826 0.000000 1.073212 0.031374 0.000000 -0.070406 -0.339078 0.000000 1.108908 0.032514 0.000000 -0.119277 -0.273649 0.000000 1.062050 0.018494 0.000000 -0.328058 -0.238178 0.000000 0.711238 0.018840 0.000000 -0.491491 -0.159974 0.000000 0.783687 0.025979 0.000000 -0.494923 -0.122133 0.000000 0.833070 0.018411 0.000000 -0.529184 -0.093147 0.000000 0.869107 0.013407 0.000000 -0.571623 -0.071854 0.000000 0.891792 0.013043 0.000000 -0.581167 -0.058606 0.000000 0.873094 0.013471 0.000000 -0.560007 -0.046491 0.000000 0.845202 0.012001 0.000000 -0.533098 -0.035987 0.000000 0.815219 0.009642 0.000000 -0.508040 -0.025254 0.000000 0.800320 0.004211 0.000000 -0.515523 -0.013481 0.000000 0.821513 -0.000552 0.000000 -0.545307 -0.004578 0.000000 0.851774 -0.003808 0.000000 -0.576923 0.003606 0.000000 0.880755 -0.007132 0.000000 -0.603912 0.011887 0.000000 0.899246 -0.008172 0.000000 -0.594108 0.018455 0.000000 0.875888 -0.010622 0.000000 -0.561490 0.029014 0.000000 0.841114 -0.015559 0.000000 -0.541964 0.040021 0.000000 0.788962 -0.020957 0.000000 -0.568632 0.049778 0.000000 0.693263 -0.006486 0.000000 -0.472572 0.119628 0.000000 1.157690 0.016791 0.000000 -0.153820 0.101812 0.000000 1.260258 -0.003758 0.000000 -0.068690 0.115947 0.000000 1.265713 -0.011384 0.000000 -0.041239 0.147436 0.000000 1.240674 -0.018365 0.000000 -0.030857 0.194603 0.000000 1.200779 -0.026750 0.000000 -0.028313 0.257768 0.000000 1.148740 -0.034708 0.000000 -0.031286 0.338751 0.000000 1.083013 -0.039050 0.000000 -0.039296 0.442945 0.000000 
1.028365 -0.007191 0.000000 -0.065548 0.525987 0.000000 0.974611 0.002893 0.000000 -0.078821 0.687295 0.000000 0.921902 0.001345 0.000000 -0.079191 -0.674413 0.000000 0.973946 0.002061 0.000000 -0.077767 -0.511931 0.000000 1.030485 0.011605 0.000000 -0.073969 -0.390441 0.000000 1.078822 0.021111 0.000000 -0.074155 -0.293709 0.000000 1.108545 0.041358 0.000000 -0.092640 -0.193813 0.000000 1.097669 0.119846 0.000000 -0.179760 0.003948 0.000000 0.961323 0.096075 0.000000 -0.251531 -0.169729 0.000000 0.995374 0.015468 0.000000 -0.257703 -0.127794 0.000000 1.025664 0.029177 0.000000 -0.276281 -0.098142 0.000000 1.050491 0.031882 0.000000 -0.298146 -0.074261 0.000000 1.067777 0.014639 0.000000 -0.305072 -0.040382 0.000000 1.065349 -0.001480 0.000000 -0.297633 -0.025183 0.000000 1.056891 -0.005418 0.000000 -0.286627 -0.015085 0.000000 1.046218 -0.006278 0.000000 -0.276185 -0.014207 0.000000 1.041616 0.007561 0.000000 -0.279957 -0.024519 0.000000 1.052290 0.016358 0.000000 -0.293603 -0.022030 0.000000 1.066668 0.014858 0.000000 -0.308107 -0.014305 0.000000 1.079901 0.009740 0.000000 -0.320182 -0.001445 0.000000 1.087453 -0.011609 0.000000 -0.315833 0.027993 0.000000 1.076154 -0.026383 0.000000 -0.301296 0.043823 0.000000 1.059261 -0.022893 0.000000 -0.291800 0.064007 0.000000 1.034909 -0.001008 0.000000 -0.299306 0.098589 0.000000 0.994622 -0.061169 0.000000 -0.250166 -0.164470 0.000000 1.195722 -0.168637 0.000000 -0.100589 0.030268 0.000000 1.239762 -0.051349 0.000000 -0.052062 0.097003 0.000000 1.232861 -0.022494 0.000000 -0.033053 0.138760 0.000000 1.207007 -0.015256 0.000000 -0.025876 0.183340 0.000000 1.171549 -0.013872 0.000000 -0.026702 0.238742 0.000000 1.129352 -0.013574 0.000000 -0.034574 0.309806 0.000000 1.081100 -0.012000 0.000000 -0.048511 0.402921 0.000000 
1.126868 -0.017937 0.000000 -0.042789 0.631113 0.000000 1.074170 -0.003816 0.000000 -0.048720 0.799031 0.000000 1.023204 0.001653 0.000000 -0.049053 -0.780578 0.000000 1.070491 0.002556 0.000000 -0.049437 -0.613243 0.000000 1.122269 0.017736 0.000000 -0.049456 -0.479163 0.000000 1.169032 0.031560 0.000000 -0.049729 -0.368802 0.000000 1.209363 0.050999 0.000000 -0.043433 -0.262772 0.000000 1.259184 0.105614 0.000000 0.019977 -0.101832 0.000000 1.422790 0.090611 0.000000 0.067774 -0.194025 0.000000 1.411101 0.032151 0.000000 0.054161 -0.152423 0.000000 1.415418 0.036989 0.000000 0.057563 -0.117975 0.000000 1.422630 0.035272 0.000000 0.066807 -0.089139 0.000000 1.429601 0.019969 0.000000 0.066265 -0.056179 0.000000 1.447311 0.006033 0.000000 0.057378 -0.038032 0.000000 1.463691 0.000995 0.000000 0.048626 -0.025314 0.000000 1.478442 -0.000801 0.000000 0.040452 -0.020653 0.000000 1.487155 0.007984 0.000000 0.043655 -0.024155 0.000000 1.482307 0.013095 0.000000 0.053866 -0.018956 0.000000 1.474172 0.010696 0.000000 0.064376 -0.009627 0.000000 1.465280 0.004943 0.000000 0.074542 0.004335 0.000000 1.457672 -0.012520 0.000000 0.072413 0.029755 0.000000 1.463581 -0.025158 0.000000 0.063616 0.045906 0.000000 1.471779 -0.025056 0.000000 0.061734 0.064373 0.000000 1.488112 -0.013450 0.000000 0.084797 0.090064 0.000000 1.534243 -0.055626 0.000000 0.071301 -0.081472 0.000000 1.358399 -0.132786 0.000000 -0.030449 0.057772 0.000000 1.323965 -0.052285 0.000000 -0.039130 0.122848 0.000000 1.307058 -0.030393 0.000000 -0.034336 0.173291 0.000000 1.285481 -0.025542 0.000000 -0.030175 0.230061 0.000000 1.256623 -0.025923 0.000000 -0.029046 0.299966 0.000000 1.220333 -0.026837 0.000000 -0.031165 0.387002 0.000000 1.176666 -0.025113 0.000000 -0.036118 0.495681 0.000000 
1.165064 -0.000520 0.000000 -0.052471 0.578685 0.000000 1.143483 0.008825 0.000000 -0.060472 0.738262 0.000000 1.130743 0.001677 0.000000 -0.060755 -0.721700 0.000000 1.141702 0.002446 0.000000 -0.061291 -0.563709 0.000000 1.163397 0.011623 0.000000 -0.059212 -0.437204 0.000000 1.188535 0.021384 0.000000 -0.054814 -0.334040 0.000000 1.216069 0.035061 0.000000 -0.041620 -0.243634 0.000000 1.259783 0.056436 0.000000 0.016999 -0.159659 0.000000 1.391597 0.048277 0.000000 0.063730 -0.158040 0.000000 1.389558 0.029080 0.000000 0.059556 -0.132111 0.000000 1.392430 0.025775 0.000000 0.065397 -0.105354 0.000000 1.397718 0.022638 0.000000 0.074724 -0.081233 0.000000 1.404453 0.015181 0.000000 0.075066 -0.058091 0.000000 1.420625 0.007406 0.000000 0.067624 -0.041563 0.000000 1.436430 0.003335 0.000000 0.059562 -0.029837 0.000000 1.450656 0.001897 0.000000 0.052539 -0.022920 0.000000 1.458705 0.004357 0.000000 0.055642 -0.019672 0.000000 1.454713 0.006148 0.000000 0.065271 -0.013895 0.000000 1.447056 0.004348 0.000000 0.075587 -0.005413 0.000000 1.438602 -0.000426 0.000000 0.084950 0.006163 0.000000 1.432330 -0.009480 0.000000 0.083494 0.022085 0.000000 1.437823 -0.017585 0.000000 0.076107 0.035624 0.000000 1.446131 -0.021011 0.000000 0.074179 0.047674 0.000000 1.460089 -0.024071 0.000000 0.089315 0.052459 0.000000 1.488748 -0.047673 0.000000 0.072626 0.011373 0.000000 1.342791 -0.066887 0.000000 -0.015226 0.064703 0.000000 1.301815 -0.042668 0.000000 -0.029549 0.113910 0.000000 1.282718 -0.027289 0.000000 -0.028559 0.160337 0.000000 1.263857 -0.019416 0.000000 -0.026964 0.212198 0.000000 1.241848 -0.015001 0.000000 -0.028560 0.275032 0.000000 1.217064 -0.011456 0.000000 -0.034047 0.353473 0.000000 1.190735 -0.007047 0.000000 -0.042697 0.452719 0.000000 
1.252802 -0.008163 0.000000 -0.034620 0.652693 0.000000 1.232909 0.004184 0.000000 -0.037919 0.811771 0.000000 1.222018 0.001936 0.000000 -0.038164 -0.791537 0.000000 1.229984 0.003092 0.000000 -0.039067 -0.634938 0.000000 1.248719 0.015657 0.000000 -0.038760 -0.504301 0.000000 1.272184 0.027163 0.000000 -0.035796 -0.396336 0.000000 1.300427 0.037804 0.000000 -0.023127 -0.306486 0.000000 1.344161 0.046995 0.000000 0.018320 -0.233646 0.000000 1.432933 0.043880 0.000000 0.051096 -0.191986 0.000000 1.445002 0.036325 0.000000 0.053436 -0.155295 0.000000 1.449595 0.031149 0.000000 0.058309 -0.123263 0.000000 1.453722 0.025944 0.000000 0.064636 -0.095874 0.000000 1.459293 0.019627 0.000000 0.065165 -0.072350 0.000000 1.470834 0.013475 0.000000 0.059998 -0.053837 0.000000 1.482922 0.009057 0.000000 0.053857 -0.039540 0.000000 1.493631 0.006222 0.000000 0.049089 -0.028702 0.000000 1.499311 0.004881 0.000000 0.051296 -0.020163 0.000000 1.496684 0.003466 0.000000 0.058600 -0.011299 0.000000 1.490715 0.000380 0.000000 0.066918 -0.001173 0.000000 1.484179 -0.004421 0.000000 0.073814 0.010608 0.000000 1.480122 -0.011064 0.000000 0.073641 0.024261 0.000000 1.483969 -0.017771 0.000000 0.069291 0.037599 0.000000 1.490891 -0.023128 0.000000 0.068173 0.050414 0.000000 1.500158 -0.028587 0.000000 0.073310 0.061406 0.000000 1.505009 -0.038937 0.000000 0.052654 0.064486 0.000000 1.412596 -0.044934 0.000000 -0.005022 0.098748 0.000000 1.372531 -0.037962 0.000000 -0.023446 0.141945 0.000000 1.353268 -0.031383 0.000000 -0.026770 0.192151 0.000000 1.337419 -0.027137 0.000000 -0.026438 0.252070 0.000000 1.319659 -0.024327 0.000000 -0.026482 0.324750 0.000000 1.298983 -0.021350 0.000000 -0.028015 0.413330 0.000000 1.276033 -0.016462 0.000000 -0.030963 0.521353 0.000000 
1.296569 0.003136 0.000000 -0.041400 0.598578 0.000000 1.301803 0.012124 0.000000 -0.046024 0.749153 0.000000 1.319320 0.001922 0.000000 -0.046212 -0.729666 0.000000 1.299934 0.003349 0.000000 -0.047437 -0.582444 0.000000 1.293959 0.011316 0.000000 -0.046749 -0.460670 0.000000 1.296368 0.018421 0.000000 -0.043694 -0.362283 0.000000 1.306150 0.022392 0.000000 -0.032549 -0.287368 0.000000 1.333152 0.014990 0.000000 0.014549 -0.248432 0.000000 1.430761 0.015502 0.000000 0.055711 -0.170108 0.000000 1.425710 0.026740 0.000000 0.053553 -0.136705 0.000000 1.424117 0.020901 0.000000 0.059370 -0.109481 0.000000 1.424773 0.016311 0.000000 0.067624 -0.086804 0.000000 1.427766 0.014653 0.000000 0.068248 -0.069633 0.000000 1.438896 0.012573 0.000000 0.062613 -0.053651 0.000000 1.450427 0.009476 0.000000 0.056217 -0.040545 0.000000 1.461137 0.006664 0.000000 0.050740 -0.028601 0.000000 1.466746 0.002150 0.000000 0.053693 -0.017044 0.000000 1.463025 -0.001156 0.000000 0.061625 -0.007926 0.000000 1.456662 -0.003970 0.000000 0.070237 0.001123 0.000000 1.449868 -0.007322 0.000000 0.077754 0.010220 0.000000 1.445547 -0.009306 0.000000 0.076381 0.018238 0.000000 1.450722 -0.013236 0.000000 0.070482 0.028702 0.000000 1.458366 -0.019892 0.000000 0.068582 0.038408 0.000000 1.470359 -0.029208 0.000000 0.078706 0.047607 0.000000 1.492121 -0.027018 0.000000 0.065158 0.103786 0.000000 1.377135 -0.009211 0.000000 -0.008154 0.104769 0.000000 1.344749 -0.024244 0.000000 -0.023098 0.133172 0.000000 1.332818 -0.023966 0.000000 -0.024748 0.176186 0.000000 1.323840 -0.019747 0.000000 -0.024836 0.229958 0.000000 1.314730 -0.014957 0.000000 -0.026483 0.295708 0.000000 1.305952 -0.009923 0.000000 -0.030262 0.376424 0.000000 1.299089 -0.004098 0.000000 -0.035646 0.475949 0.000000 
1.374724 -0.002409 0.000000 -0.026895 0.647459 0.000000 1.381612 0.008808 0.000000 -0.028485 0.794254 0.000000 1.400830 0.002124 0.000000 -0.028633 -0.772150 0.000000 1.379399 0.004317 0.000000 -0.029851 -0.628962 0.000000 1.371105 0.014969 0.000000 -0.030555 -0.506711 0.000000 1.370792 0.024108 0.000000 -0.030910 -0.406118 0.000000 1.375439 0.026660 0.000000 -0.029965 -0.333487 0.000000 1.385466 -0.000103 0.000000 -0.019808 -0.331255 0.000000 1.413065 0.002718 0.000000 -0.011361 -0.186935 0.000000 1.415010 0.038483 0.000000 -0.013212 -0.153702 0.000000 1.417708 0.025332 0.000000 -0.011982 -0.123920 0.000000 1.420077 0.017691 0.000000 -0.009787 -0.098867 0.000000 1.422336 0.019003 0.000000 -0.009403 -0.083481 0.000000 1.426448 0.019109 0.000000 -0.010582 -0.065368 0.000000 1.430448 0.015453 0.000000 -0.011890 -0.050250 0.000000 1.434090 0.011699 0.000000 -0.013060 -0.034310 0.000000 1.436298 0.001928 0.000000 -0.011891 -0.016443 0.000000 1.435725 -0.004466 0.000000 -0.009221 -0.004936 0.000000 1.434249 -0.008232 0.000000 -0.006180 0.005621 0.000000 1.432477 -0.011938 0.000000 -0.003150 0.014928 0.000000 1.431148 -0.009691 0.000000 -0.002417 0.019087 0.000000 1.432541 -0.011872 0.000000 -0.002879 0.029954 0.000000 1.434580 -0.021229 0.000000 -0.002255 0.038422 0.000000 1.437818 -0.038710 0.000000 0.001988 0.039644 0.000000 1.445533 -0.025389 0.000000 -0.000857 0.179471 0.000000 1.410141 0.028377 0.000000 -0.021089 0.131134 0.000000 1.401358 -0.023017 0.000000 -0.023709 0.153875 0.000000 1.396435 -0.029733 0.000000 -0.023111 0.201129 0.000000 1.391255 -0.027049 0.000000 -0.022370 0.261180 0.000000 1.385418 -0.022680 0.000000 -0.022378 0.333529 0.000000 1.379601 -0.017571 0.000000 -0.023319 0.420193 0.000000 1.375245 -0.011079 0.000000 -0.024982 0.523872 0.000000 
1.419591 0.005049 0.000000 -0.031478 0.591690 0.000000 1.446805 0.013715 0.000000 -0.033898 0.729935 0.000000 1.488099 0.002070 0.000000 -0.033983 -0.708235 0.000000 1.445324 0.004566 0.000000 -0.035435 -0.574149 0.000000 1.416734 0.012020 0.000000 -0.036383 -0.460357 0.000000 1.396857 0.018775 0.000000 -0.039661 -0.366931 0.000000 1.377414 0.021447 0.000000 -0.056366 -0.297394 0.000000 1.335626 0.004833 0.000000 -0.136583 -0.276032 0.000000 1.169369 0.007055 0.000000 -0.210339 -0.172053 0.000000 1.189167 0.028590 0.000000 -0.207176 -0.139402 0.000000 1.200475 0.019672 0.000000 -0.218555 -0.111851 0.000000 1.207708 0.014116 0.000000 -0.233698 -0.089062 0.000000 1.210375 0.014268 0.000000 -0.234971 -0.073744 0.000000 1.197893 0.013752 0.000000 -0.225188 -0.057651 0.000000 1.183778 0.010783 0.000000 -0.213859 -0.044188 0.000000 1.169964 0.007835 0.000000 -0.203746 -0.030809 0.000000 1.164002 0.000980 0.000000 -0.208065 -0.016471 0.000000 1.173087 -0.003826 0.000000 -0.220224 -0.006450 0.000000 1.185439 -0.007011 0.000000 -0.232960 0.002894 0.000000 1.197664 -0.010352 0.000000 -0.243309 0.011549 0.000000 1.205191 -0.010040 0.000000 -0.237658 0.016846 0.000000 1.196446 -0.012774 0.000000 -0.223627 0.026662 0.000000 1.184151 -0.020516 0.000000 -0.215358 0.035170 0.000000 1.164570 -0.033451 0.000000 -0.227532 0.039892 0.000000 1.124991 -0.024173 0.000000 -0.199153 0.139178 0.000000 1.321957 0.011021 0.000000 -0.063221 0.113552 0.000000 1.369703 -0.021624 0.000000 -0.030828 0.138096 0.000000 1.380539 -0.024564 0.000000 -0.022718 0.181367 0.000000 1.383989 -0.020488 0.000000 -0.021174 0.235795 0.000000 1.387101 -0.014950 0.000000 -0.022233 0.301525 0.000000 1.392583 -0.008982 0.000000 -0.024798 0.380781 0.000000 1.402578 -0.002436 0.000000 -0.028155 0.476470 0.000000 