# vtk DataFile Version 2.0
Comment goes here
ASCII

DATASET STRUCTURED_POINTS
FIELD FieldData 1
TIME 1 1 double
0.03400000
DIMENSIONS    64   64   1

ORIGIN    0.000   0.000   0.000
SPACING   0.03125 0.03125   1.000

POINT_DATA   4096
SCALARS uX double
LOOKUP_TABLE default

5.989731e-01 -1.084402e+00 4.580445e-01 -1.070209e+00 3.545906e-01 -1.037805e+00 3.952499e-01 -9.601728e-01 3.708970e-01 -8.636492e-01 3.195655e-01 -7.689597e-01 2.663700e-01 -6.807352e-01 2.070739e-01 -5.777034e-01 1.198612e-01 -4.365685e-01 -2.441125e-02 -2.387236e-01 -2.227158e-01 -3.884382e-03 -4.501987e-01 2.427079e-01 -6.690297e-01 4.462408e-01 -8.079684e-01 5.344959e-01 -8.198061e-01 4.975115e-01 -7.228303e-01 3.715880e-01 -5.640492e-01 2.099352e-01 -4.067017e-01 8.077698e-02 -3.059325e-01 2.169891e-02 -2.871845e-01 4.785928e-02 -3.533439e-01 1.445568e-01 -4.676427e-01 2.653864e-01 -5.910412e-01 3.808831e-01 -6.981986e-01 4.626844e-01 -7.547366e-01 4.642526e-01 -7.240629e-01 3.635425e-01 -5.917010e-01 1.681048e-01 -3.702002e-01 -9.909218e-02 -1.101273e-01 -3.714503e-01 1.218380e-01 -6.095367e-01 3.140025e-01 -8.211247e-01 4.754861e-01 -1.014816e+00 
-3.721173e-01 2.495334e-01 -1.661528e-01 2.372301e-01 -3.972936e-02 2.266237e-01 -1.509121e-01 1.902389e-01 -2.021988e-01 1.492737e-01 -2.280614e-01 1.121868e-01 -2.498154e-01 7.881694e-02 -2.688626e-01 3.401342e-02 -2.754452e-01 -2.987607e-02 -2.390549e-01 -1.229273e-01 -1.665133e-01 -2.343380e-01 -7.325600e-02 -3.532616e-01 2.141128e-02 -4.527505e-01 7.839681e-02 -4.927497e-01 7.117135e-02 -4.678005e-01 1.105014e-02 -3.988035e-01 -7.697052e-02 -3.146664e-01 -1.573672e-01 -2.526849e-01 -2.028449e-01 -2.291053e-01 -2.042278e-01 -2.507477e-01 -1.600260e-01 -3.078485e-01 -9.391053e-02 -3.725117e-01 -2.587374e-02 -4.315985e-01 3.691076e-02 -4.738120e-01 8.330100e-02 -4.715228e-01 9.519444e-02 -4.152604e-01 5.387475e-02 -3.135980e-01 -3.792211e-02 -1.751175e-01 -1.519957e-01 -3.671417e-02 -2.449620e-01 8.118594e-02 -3.110234e-01 1.849834e-01 -3.523972e-01 2.782822e-01 
6.700883e-01 4.287789e-01 6.265680e-01 4.030414e-01 4.464273e-01 3.847289e-01 6.911483e-01 3.431400e-01 8.892518e-01 2.828929e-01 1.052676e+00 2.315625e-01 1.185398e+00 2.029200e-01 1.308669e+00 1.847049e-01 1.448647e+00 1.410785e-01 1.588319e+00 5.188124e-02 1.745721e+00 -6.718364e-02 1.912596e+00 -2.037438e-01 2.074512e+00 -3.213698e-01 2.184522e+00 -3.671209e-01 2.206447e+00 -3.338046e-01 2.153482e+00 -2.450432e-01 2.053044e+00 -1.331786e-01 1.948749e+00 -4.487611e-02 1.880638e+00 -4.818624e-03 1.866247e+00 -2.512070e-02 1.910970e+00 -9.744931e-02 1.987044e+00 -1.858817e-01 2.064305e+00 -2.725373e-01 2.123428e+00 -3.447302e-01 2.133753e+00 -3.818507e-01 2.056676e+00 -3.569216e-01 1.916323e+00 -2.596155e-01 1.724396e+00 -1.026899e-01 1.504674e+00 6.058167e-02 1.296672e+00 1.991148e-01 1.097138e+00 3.219565e-01 8.886036e-01 4.390841e-01 
1.895144e+00 -1.172162e-01 1.316560e+00 -1.525818e-01 5.969847e-01 -1.442851e-01 1.380782e+00 -1.279817e-01 1.844825e+00 -1.096576e-01 2.163453e+00 -9.083530e-02 2.415044e+00 -6.260246e-02 2.640834e+00 -1.814726e-03 2.872839e+00 7.798014e-02 2.987938e+00 1.312691e-01 3.039353e+00 1.824635e-01 3.061191e+00 2.327929e-01 3.070197e+00 2.705746e-01 3.092254e+00 2.744606e-01 3.139238e+00 2.474577e-01 3.199964e+00 2.072397e-01 3.256626e+00 1.713196e-01 3.295045e+00 1.547321e-01 3.308468e+00 1.579140e-01 3.298776e+00 1.781004e-01 3.270194e+00 2.065355e-01 3.236797e+00 2.324998e-01 3.200066e+00 2.557296e-01 3.146156e+00 2.719269e-01 3.062037e+00 2.466007e-01 2.919562e+00 1.579585e-01 2.804951e+00 7.906099e-02 2.731630e+00 9.529970e-03 2.663840e+00 -4.159104e-02 2.558862e+00 -7.456595e-02 2.404496e+00 -1.060298e-01 2.190355e+00 -1.494609e-01 
1.933533e+00 -6.365606e-02 1.480813e+00 -9.339026e-02 8.878943e-01 -9.079964e-02 1.514017e+00 -8.887870e-02 1.923041e+00 -7.547836e-02 2.216529e+00 -5.945690e-02 2.451328e+00 -3.149878e-02 2.666191e+00 3.834067e-02 2.915565e+00 1.250343e-01 3.022017e+00 1.550066e-01 3.081545e+00 1.802656e-01 3.120167e+00 2.010658e-01 3.149716e+00 2.117946e-01 3.185511e+00 2.048434e-01 3.228604e+00 1.867999e-01 3.271092e+00 1.683737e-01 3.300800e+00 1.609635e-01 3.313477e+00 1.665589e-01 3.312236e+00 1.799321e-01 3.301148e+00 1.955453e-01 3.286081e+00 2.061305e-01 3.275433e+00 2.119474e-01 3.264127e+00 2.178320e-01 3.236567e+00 2.264987e-01 3.172482e+00 1.953545e-01 3.002549e+00 9.846238e-02 2.874218e+00 3.622537e-02 2.782227e+00 -1.059848e-03 2.690661e+00 -2.147717e-02 2.570614e+00 -3.089904e-02 2.411491e+00 -4.128459e-02 2.204754e+00 -6.311803e-02 
1.987987e+00 -1.251453e-01 1.605997e+00 -1.341310e-01 1.150457e+00 -1.355360e-01 1.602937e+00 -1.216304e-01 1.967949e+00 -1.112299e-01 2.242587e+00 -1.033202e-01 2.458944e+00 -8.812332e-02 2.655848e+00 -2.218991e-02 2.976891e+00 1.504175e-01 3.034867e+00 1.578041e-01 3.072288e+00 1.984366e-01 3.093859e+00 2.329063e-01 3.113382e+00 2.480426e-01 3.149840e+00 2.428185e-01 3.196099e+00 2.207898e-01 3.247924e+00 1.943628e-01 3.284076e+00 1.834940e-01 3.300496e+00 1.833390e-01 3.302145e+00 1.955036e-01 3.288665e+00 2.128998e-01 3.270701e+00 2.201366e-01 3.257460e+00 2.310432e-01 3.244270e+00 2.448097e-01 3.223011e+00 2.644994e-01 3.184308e+00 2.877333e-01 2.945548e+00 1.052742e-01 2.825354e+00 3.547491e-02 2.758933e+00 -4.018339e-03 2.687909e+00 -3.513120e-02 2.587677e+00 -6.162671e-02 2.446408e+00 -8.735049e-02 2.253044e+00 -1.143438e-01 
2.088741e+00 -5.594583e-02 1.783701e+00 -7.343391e-02 1.418010e+00 -7.514094e-02 1.764455e+00 -7.479934e-02 2.061169e+00 -7.530317e-02 2.292249e+00 -8.123135e-02 2.475370e+00 -9.097431e-02 2.653446e+00 -3.213909e-02 3.039479e+00 1.852917e-01 3.057729e+00 1.480418e-01 3.096514e+00 1.754693e-01 3.122381e+00 1.932311e-01 3.149537e+00 1.901051e-01 3.196779e+00 1.760112e-01 3.244031e+00 1.564904e-01 3.289484e+00 1.408909e-01 3.309090e+00 1.523248e-01 3.305806e+00 1.698020e-01 3.295704e+00 1.929161e-01 3.277471e+00 2.110633e-01 3.264662e+00 2.012855e-01 3.269238e+00 1.983646e-01 3.280641e+00 2.030732e-01 3.296272e+00 2.385159e-01 3.320655e+00 3.418899e-01 2.951165e+00 3.202240e-02 2.849353e+00 -2.005271e-02 2.797550e+00 -2.584022e-02 2.727200e+00 -2.772901e-02 2.627289e+00 -3.080395e-02 2.493191e+00 -3.767683e-02 2.318230e+00 -5.103066e-02 
2.192151e+00 -9.600266e-02 1.943548e+00 -1.048387e-01 1.660863e+00 -1.066056e-01 1.909391e+00 -1.032778e-01 2.149104e+00 -1.028717e-01 2.342870e+00 -1.126048e-01 2.479706e+00 -1.496561e-01 2.537791e+00 -2.493167e-01 2.371301e+00 -4.500258e-01 2.454698e+00 -4.520389e-01 2.524365e+00 -4.586097e-01 2.570387e+00 -4.518203e-01 2.592104e+00 -4.306378e-01 2.591087e+00 -4.077469e-01 2.589160e+00 -3.913396e-01 2.592914e+00 -3.892779e-01 2.617099e+00 -4.085987e-01 2.652036e+00 -4.316669e-01 2.682700e+00 -4.494567e-01 2.702231e+00 -4.499248e-01 2.697982e+00 -4.226068e-01 2.670026e+00 -3.874699e-01 2.630795e+00 -3.509063e-01 2.600198e+00 -3.147072e-01 2.601401e+00 -2.835296e-01 2.729560e+00 -1.187940e-01 2.799028e+00 -5.267495e-02 2.788932e+00 -3.690021e-02 2.739347e+00 -4.174977e-02 2.658341e+00 -5.449472e-02 2.544025e+00 -7.055942e-02 2.391195e+00 -8.722765e-02 
2.320156e+00 -4.409273e-02 2.124191e+00 -5.361770e-02 1.906311e+00 -5.536658e-02 2.087355e+00 -5.751001e-02 2.268151e+00 -6.266329e-02 2.410980e+00 -7.892600e-02 2.477985e+00 -1.468823e-01 2.367232e+00 -4.629323e-01 1.565584e+00 -1.124669e+00 1.713207e+00 -1.134659e+00 1.804961e+00 -1.242481e+00 1.885433e+00 -1.301335e+00 1.914116e+00 -1.291218e+00 1.856075e+00 -1.245441e+00 1.784425e+00 -1.193712e+00 1.719304e+00 -1.164214e+00 1.728579e+00 -1.215145e+00 1.798646e+00 -1.287411e+00 1.873301e+00 -1.360806e+00 1.941301e+00 -1.396109e+00 1.957664e+00 -1.335410e+00 1.894276e+00 -1.268746e+00 1.793215e+00 -1.211460e+00 1.689527e+00 -1.217824e+00 1.626475e+00 -1.258722e+00 2.567744e+00 -3.822268e-01 2.826105e+00 -1.284365e-01 2.841921e+00 -5.616428e-02 2.795517e+00 -3.487134e-02 2.718943e+00 -2.993200e-02 2.615954e+00 -3.227909e-02 2.484363e+00 -3.887064e-02 
2.440773e+00 -7.164462e-02 2.289958e+00 -7.721084e-02 2.129599e+00 -7.883493e-02 2.248928e+00 -7.975708e-02 2.383303e+00 -8.155390e-02 2.499050e+00 -8.800880e-02 2.568655e+00 -1.142556e-01 2.549021e+00 -2.339874e-01 2.277867e+00 -5.045727e-01 2.313535e+00 -5.291862e-01 2.363451e+00 -5.893300e-01 2.403796e+00 -6.258179e-01 2.419868e+00 -6.301422e-01 2.399280e+00 -6.186125e-01 2.372806e+00 -6.046818e-01 2.350857e+00 -6.030317e-01 2.363828e+00 -6.372083e-01 2.402991e+00 -6.798939e-01 2.442724e+00 -7.204425e-01 2.475096e+00 -7.393758e-01 2.477824e+00 -7.118572e-01 2.441681e+00 -6.783596e-01 2.386168e+00 -6.482017e-01 2.332175e+00 -6.373503e-01 2.302307e+00 -6.425985e-01 2.713947e+00 -2.334448e-01 2.850036e+00 -9.294045e-02 2.855981e+00 -5.102459e-02 2.820978e+00 -4.252784e-02 2.761498e+00 -4.643967e-02 2.678966e+00 -5.519146e-02 2.572214e+00 -6.480376e-02 
2.576999e+00 -2.966609e-02 2.465841e+00 -3.391394e-02 2.353745e+00 -3.542332e-02 2.429068e+00 -3.957727e-02 2.524264e+00 -4.628469e-02 2.617381e+00 -5.677545e-02 2.702407e+00 -6.471518e-02 2.810604e+00 1.822303e-04 3.183374e+00 2.376901e-01 3.153481e+00 1.966493e-01 3.164717e+00 2.102106e-01 3.174185e+00 2.118254e-01 3.193219e+00 1.937274e-01 3.235699e+00 1.695221e-01 3.276284e+00 1.460751e-01 3.312642e+00 1.307856e-01 3.322331e+00 1.438953e-01 3.310993e+00 1.616281e-01 3.297164e+00 1.816436e-01 3.280381e+00 1.930556e-01 3.273852e+00 1.749283e-01 3.288102e+00 1.649109e-01 3.311492e+00 1.658486e-01 3.341796e+00 2.068641e-01 3.378575e+00 3.068098e-01 3.029887e+00 2.589696e-03 2.950892e+00 -3.969198e-02 2.924083e+00 -3.408771e-02 2.887488e+00 -2.650278e-02 2.834518e+00 -2.310067e-02 2.764848e+00 -2.352853e-02 2.678600e+00 -2.637998e-02 
2.700879e+00 -4.889597e-02 2.626373e+00 -5.136846e-02 2.557602e+00 -5.267925e-02 2.590267e+00 -5.646749e-02 2.649150e+00 -6.145368e-02 2.717250e+00 -6.835794e-02 2.791177e+00 -6.942101e-02 2.897302e+00 -1.335018e-02 3.196932e+00 1.927845e-01 3.202961e+00 1.828768e-01 3.200603e+00 2.062064e-01 3.203046e+00 2.182769e-01 3.216665e+00 2.116267e-01 3.251498e+00 1.966632e-01 3.287905e+00 1.789505e-01 3.321312e+00 1.683102e-01 3.330797e+00 1.803522e-01 3.322093e+00 1.974954e-01 3.308704e+00 2.173339e-01 3.292559e+00 2.290991e-01 3.287266e+00 2.170953e-01 3.298760e+00 2.106303e-01 3.318928e+00 2.141495e-01 3.337538e+00 2.393853e-01 3.346635e+00 3.023835e-01 3.076998e+00 4.849639e-02 2.975878e+00 -1.692413e-02 2.947731e+00 -2.822306e-02 2.921851e+00 -3.069985e-02 2.884919e+00 -3.414788e-02 2.834977e+00 -3.929372e-02 2.772702e+00 -4.472285e-02 
2.836156e+00 -1.371740e-02 2.792796e+00 -1.420472e-02 2.760984e+00 -1.534435e-02 2.763072e+00 -2.005559e-02 2.793545e+00 -2.617701e-02 2.840803e+00 -3.149079e-02 2.903585e+00 -2.301029e-02 3.000095e+00 3.932907e-02 3.204773e+00 1.653702e-01 3.235549e+00 1.774260e-01 3.243187e+00 1.922610e-01 3.250425e+00 1.973741e-01 3.265037e+00 1.913151e-01 3.293154e+00 1.778002e-01 3.322788e+00 1.640398e-01 3.347135e+00 1.573954e-01 3.354136e+00 1.653394e-01 3.347155e+00 1.806464e-01 3.335433e+00 1.970509e-01 3.323813e+00 2.060116e-01 3.321219e+00 2.016392e-01 3.331285e+00 1.974218e-01 3.347881e+00 2.004919e-01 3.356911e+00 2.190493e-01 3.339220e+00 2.076587e-01 3.154305e+00 6.450726e-02 3.057937e+00 4.391903e-03 3.021217e+00 -1.147766e-02 2.995264e+00 -1.324076e-02 2.964889e+00 -1.239831e-02 2.927204e+00 -1.218523e-02 2.883188e+00 -1.283881e-02 
2.956365e+00 -2.706939e-02 2.943103e+00 -2.665011e-02 2.945507e+00 -2.755074e-02 2.915230e+00 -3.205044e-02 2.914927e+00 -3.775195e-02 2.934312e+00 -4.473355e-02 2.970420e+00 -4.569585e-02 3.039578e+00 -3.288716e-03 3.250908e+00 1.782452e-01 3.260221e+00 1.710247e-01 3.253016e+00 1.896814e-01 3.252115e+00 1.968996e-01 3.261778e+00 1.913318e-01 3.287618e+00 1.800130e-01 3.315450e+00 1.679503e-01 3.337986e+00 1.651843e-01 3.340754e+00 1.764568e-01 3.331471e+00 1.922280e-01 3.318790e+00 2.088453e-01 3.307209e+00 2.149896e-01 3.306597e+00 2.051062e-01 3.317689e+00 1.984793e-01 3.337414e+00 1.991507e-01 3.352296e+00 2.193105e-01 3.357799e+00 2.724065e-01 3.148471e+00 5.938299e-02 3.062851e+00 -6.572858e-04 3.044668e+00 -1.403937e-02 3.034082e+00 -1.747733e-02 3.019496e+00 -1.994594e-02 3.000012e+00 -2.282840e-02 2.977619e+00 -2.549583e-02 
3.085565e+00 3.003411e-03 3.097147e+00 5.656749e-03 3.128496e+00 4.964239e-03 3.075208e+00 1.154511e-03 3.052248e+00 -3.986151e-03 3.050537e+00 -1.101107e-02 3.063835e+00 -1.987635e-02 3.090268e+00 -1.989003e-02 3.129787e+00 -6.368382e-03 3.143862e+00 -1.244033e-02 3.153268e+00 -4.387444e-03 3.157916e+00 1.621845e-03 3.162849e+00 4.550392e-03 3.171810e+00 4.573498e-03 3.182149e+00 2.941715e-03 3.192020e+00 2.298794e-03 3.197096e+00 5.751712e-03 3.197457e+00 1.208267e-02 3.195353e+00 2.051004e-02 3.191669e+00 2.781742e-02 3.189421e+00 3.147083e-02 3.190725e+00 3.575198e-02 3.194829e+00 4.087384e-02 3.199603e+00 5.120069e-02 3.208932e+00 6.874098e-02 3.131823e+00 6.497351e-03 3.116321e+00 -5.223086e-03 3.113222e+00 -4.986100e-03 3.108466e+00 -2.736300e-03 3.101257e+00 -7.821457e-04 3.093017e+00 5.444261e-04 3.086374e+00 1.613462e-03 
3.198224e+00 -6.003899e-03 3.234676e+00 -2.796027e-03 3.293757e+00 -3.230585e-03 3.214949e+00 -6.171508e-03 3.165808e+00 -9.241674e-03 3.134801e+00 -1.366811e-02 3.102717e+00 -3.018978e-02 3.022721e+00 -1.156125e-01 2.666019e+00 -4.739356e-01 2.689109e+00 -4.707470e-01 2.717353e+00 -5.016495e-01 2.727971e+00 -5.048933e-01 2.718067e+00 -4.871799e-01 2.681891e+00 -4.647589e-01 2.646690e+00 -4.472305e-01 2.626408e+00 -4.505214e-01 2.640493e+00 -4.752223e-01 2.670445e+00 -5.026741e-01 2.699118e+00 -5.245583e-01 2.716925e+00 -5.210614e-01 2.710856e+00 -4.872715e-01 2.684785e+00 -4.576343e-01 2.645419e+00 -4.396846e-01 2.618533e+00 -4.647385e-01 2.607127e+00 -5.481435e-01 2.969577e+00 -1.504669e-01 3.112903e+00 -3.843358e-02 3.142385e+00 -1.120446e-02 3.151366e+00 -5.300259e-03 3.157479e+00 -5.032367e-03 3.165020e+00 -6.071693e-03 3.177138e+00 -6.721502e-03 
3.318145e+00 1.990965e-02 3.374554e+00 2.522388e-02 3.456634e+00 2.500591e-02 3.359867e+00 2.332059e-02 3.292647e+00 2.188305e-02 3.244136e+00 2.080457e-02 3.196235e+00 1.254039e-02 3.110032e+00 -5.312698e-02 2.834176e+00 -3.275221e-01 2.822989e+00 -3.388267e-01 2.837569e+00 -3.777454e-01 2.841961e+00 -3.928045e-01 2.830672e+00 -3.885847e-01 2.798037e+00 -3.781737e-01 2.765576e+00 -3.699201e-01 2.745706e+00 -3.776755e-01 2.755489e+00 -4.029978e-01 2.779909e+00 -4.306544e-01 2.804495e+00 -4.534813e-01 2.820660e+00 -4.545300e-01 2.816867e+00 -4.295389e-01 2.796252e+00 -4.078947e-01 2.764465e+00 -3.971380e-01 2.743901e+00 -4.212158e-01 2.734451e+00 -4.895776e-01 3.050187e+00 -1.442866e-01 3.180144e+00 -3.410359e-02 3.210721e+00 -2.223976e-03 3.224021e+00 7.889740e-03 3.237092e+00 1.185647e-02 3.254681e+00 1.421984e-02 3.280222e+00 1.661104e-02 
3.420836e+00 1.404731e-02 3.497850e+00 1.943768e-02 3.602691e+00 1.945591e-02 3.486813e+00 1.781460e-02 3.401642e+00 1.653653e-02 3.340407e+00 1.576346e-02 3.297170e+00 1.635076e-02 3.276241e+00 2.981157e-02 3.362695e+00 1.385475e-01 3.320899e+00 1.224649e-01 3.299804e+00 1.256012e-01 3.287001e+00 1.229144e-01 3.281630e+00 1.154180e-01 3.285691e+00 1.070944e-01 3.291214e+00 9.947618e-02 3.295378e+00 9.679920e-02 3.292353e+00 9.970612e-02 3.286355e+00 1.033984e-01 3.281192e+00 1.071125e-01 3.278060e+00 1.057057e-01 3.280394e+00 9.703866e-02 3.288283e+00 9.057189e-02 3.301278e+00 8.606457e-02 3.315970e+00 9.602500e-02 3.335835e+00 1.381241e-01 3.243789e+00 2.678985e-02 3.233460e+00 1.217796e-02 3.248379e+00 1.239912e-02 3.267626e+00 1.235696e-02 3.291612e+00 1.151542e-02 3.322827e+00 1.093413e-02 3.364453e+00 1.153305e-02 
3.529383e+00 3.635070e-02 3.622469e+00 4.338431e-02 3.745681e+00 4.360970e-02 3.616276e+00 4.262683e-02 3.517991e+00 4.136167e-02 3.445633e+00 3.932537e-02 3.396468e+00 3.665929e-02 3.379592e+00 4.817394e-02 3.474681e+00 1.754810e-01 3.441431e+00 1.638137e-01 3.412244e+00 1.730303e-01 3.395173e+00 1.743001e-01 3.388116e+00 1.682960e-01 3.393187e+00 1.604938e-01 3.400719e+00 1.530827e-01 3.406022e+00 1.525354e-01 3.400880e+00 1.596947e-01 3.391238e+00 1.681728e-01 3.382153e+00 1.765030e-01 3.376383e+00 1.770393e-01 3.379108e+00 1.669246e-01 3.389483e+00 1.585957e-01 3.406728e+00 1.534221e-01 3.423325e+00 1.624077e-01 3.443202e+00 2.129665e-01 3.325396e+00 6.168503e-02 3.296912e+00 2.882303e-02 3.311707e+00 2.492169e-02 3.335355e+00 2.554466e-02 3.366023e+00 2.683744e-02 3.406175e+00 2.873941e-02 3.459170e+00 3.173199e-02 
3.620528e+00 3.273799e-02 3.730631e+00 3.971772e-02 3.872578e+00 4.016666e-02 3.728437e+00 3.975729e-02 3.616271e+00 4.034866e-02 3.532643e+00 4.320291e-02 3.475894e+00 5.191818e-02 3.449956e+00 7.796774e-02 3.472130e+00 1.333153e-01 3.451970e+00 1.484693e-01 3.426423e+00 1.608588e-01 3.407332e+00 1.668568e-01 3.396181e+00 1.675124e-01 3.393360e+00 1.651027e-01 3.393829e+00 1.623099e-01 3.393786e+00 1.623721e-01 3.389046e+00 1.664893e-01 3.381882e+00 1.721435e-01 3.375430e+00 1.770107e-01 3.372077e+00 1.775039e-01 3.374634e+00 1.724105e-01 3.382717e+00 1.665114e-01 3.394384e+00 1.619700e-01 3.403564e+00 1.621657e-01 3.406354e+00 1.550744e-01 3.356515e+00 8.738619e-02 3.338263e+00 5.343328e-02 3.350442e+00 3.880046e-02 3.377908e+00 3.197314e-02 3.416973e+00 2.865315e-02 3.468412e+00 2.765775e-02 3.534912e+00 2.891445e-02 
3.716334e+00 5.188637e-02 3.839301e+00 6.008720e-02 3.995858e+00 6.072658e-02 3.841313e+00 6.066318e-02 3.718821e+00 6.111016e-02 3.625340e+00 6.335478e-02 3.559036e+00 7.125935e-02 3.521016e+00 9.468454e-02 3.517055e+00 1.339838e-01 3.495678e+00 1.481337e-01 3.467987e+00 1.569342e-01 3.446547e+00 1.604658e-01 3.432708e+00 1.598434e-01 3.426092e+00 1.569641e-01 3.422948e+00 1.541523e-01 3.419945e+00 1.537963e-01 3.414053e+00 1.565349e-01 3.407126e+00 1.606216e-01 3.401437e+00 1.639140e-01 3.399075e+00 1.637082e-01 3.402056e+00 1.594042e-01 3.409757e+00 1.541861e-01 3.420492e+00 1.499218e-01 3.429105e+00 1.480782e-01 3.431152e+00 1.373126e-01 3.402856e+00 9.044898e-02 3.391905e+00 6.192788e-02 3.407440e+00 4.890705e-02 3.439342e+00 4.361393e-02 3.484407e+00 4.216824e-02 3.543525e+00 4.318730e-02 3.619481e+00 4.637625e-02 
3.794827e+00 4.971672e-02 3.931737e+00 5.788643e-02 4.103623e+00 5.873414e-02 3.937013e+00 5.943041e-02 3.802633e+00 6.161715e-02 3.697818e+00 6.686327e-02 3.620075e+00 7.795145e-02 3.567503e+00 9.854061e-02 3.537219e+00 1.229793e-01 3.507555e+00 1.386215e-01 3.477782e+00 1.495473e-01 3.453289e+00 1.560192e-01 3.435393e+00 1.588826e-01 3.423664e+00 1.593212e-01 3.415804e+00 1.589985e-01 3.409489e+00 1.594147e-01 3.402923e+00 1.612116e-01 3.396759e+00 1.636429e-01 3.392365e+00 1.652852e-01 3.391104e+00 1.646464e-01 3.394046e+00 1.612718e-01 3.400750e+00 1.562459e-01 3.409646e+00 1.501466e-01 3.417578e+00 1.419673e-01 3.422047e+00 1.247131e-01 3.414957e+00 9.558956e-02 3.417816e+00 7.224919e-02 3.439149e+00 5.736383e-02 3.476735e+00 4.871210e-02 3.529387e+00 4.429356e-02 3.598045e+00 4.310965e-02 3.685252e+00 4.487737e-02 
3.877001e+00 6.610181e-02 4.024020e+00 7.519370e-02 4.207333e+00 7.621078e-02 4.032598e+00 7.709969e-02 3.889901e+00 7.902929e-02 3.776584e+00 8.344808e-02 3.689929e+00 9.271333e-02 3.627405e+00 1.090864e-01 3.585669e+00 1.274685e-01 3.549692e+00 1.397400e-01 3.516315e+00 1.476700e-01 3.488913e+00 1.518515e-01 3.468268e+00 1.531371e-01 3.453702e+00 1.526000e-01 3.443257e+00 1.516142e-01 3.434946e+00 1.513329e-01 3.427370e+00 1.521833e-01 3.420997e+00 1.535655e-01 3.416856e+00 1.543070e-01 3.416025e+00 1.532477e-01 3.419246e+00 1.500503e-01 3.426072e+00 1.454228e-01 3.435212e+00 1.397243e-01 3.444260e+00 1.319728e-01 3.451402e+00 1.173003e-01 3.453074e+00 9.506074e-02 3.462652e+00 7.658508e-02 3.488575e+00 6.470415e-02 3.530657e+00 5.828079e-02 3.588584e+00 5.583091e-02 3.663636e+00 5.647339e-02 3.758496e+00 5.988541e-02 
3.942034e+00 6.466016e-02 4.100320e+00 7.374234e-02 4.295983e+00 7.494466e-02 4.111154e+00 7.638714e-02 3.958234e+00 7.932085e-02 3.834654e+00 8.492203e-02 3.737363e+00 9.444746e-02 3.663043e+00 1.082066e-01 3.607448e+00 1.225286e-01 3.562378e+00 1.341226e-01 3.524018e+00 1.428898e-01 3.492616e+00 1.487900e-01 3.468088e+00 1.522037e-01 3.449643e+00 1.537812e-01 3.435821e+00 1.544195e-01 3.425149e+00 1.549008e-01 3.416613e+00 1.556022e-01 3.410243e+00 1.562673e-01 3.406576e+00 1.561969e-01 3.406240e+00 1.546642e-01 3.409621e+00 1.513053e-01 3.416434e+00 1.461722e-01 3.425838e+00 1.391119e-01 3.436630e+00 1.292153e-01 3.448177e+00 1.146203e-01 3.459893e+00 9.709547e-02 3.479315e+00 8.126744e-02 3.512364e+00 6.935141e-02 3.560843e+00 6.154517e-02 3.625806e+00 5.740771e-02 3.708999e+00 5.657672e-02 3.813163e+00 5.895014e-02 
4.009994e+00 7.863544e-02 4.175942e+00 8.842909e-02 4.380236e+00 8.977420e-02 4.189234e+00 9.129344e-02 4.029895e+00 9.383636e-02 3.899630e+00 9.842053e-02 3.795402e+00 1.060052e-01 3.713948e+00 1.165904e-01 3.651337e+00 1.273856e-01 3.600860e+00 1.360339e-01 3.558760e+00 1.422297e-01 3.524477e+00 1.460272e-01 3.497490e+00 1.478189e-01 3.476832e+00 1.482019e-01 3.461118e+00 1.479232e-01 3.449017e+00 1.476028e-01 3.439645e+00 1.475140e-01 3.432948e+00 1.474337e-01 3.429299e+00 1.467923e-01 3.429160e+00 1.450061e-01 3.432795e+00 1.417688e-01 3.439964e+00 1.370737e-01 3.450051e+00 1.307768e-01 3.462263e+00 1.222186e-01 3.476389e+00 1.102562e-01 3.492838e+00 9.638228e-02 3.517020e+00 8.398165e-02 3.554162e+00 7.485220e-02 3.606613e+00 6.931764e-02 3.675945e+00 6.711624e-02 3.764211e+00 6.797037e-02 3.874303e+00 7.178059e-02 
4.060984e+00 7.736175e-02 4.235812e+00 8.713412e-02 4.449786e+00 8.863461e-02 4.250481e+00 9.041963e-02 4.082648e+00 9.337370e-02 3.943797e+00 9.825517e-02 3.830821e+00 1.054912e-01 3.740339e+00 1.146945e-01 3.668544e+00 1.240813e-01 3.610698e+00 1.323331e-01 3.563379e+00 1.389849e-01 3.525016e+00 1.438451e-01 3.494513e+00 1.470144e-01 3.470741e+00 1.488068e-01 3.452459e+00 1.496774e-01 3.438540e+00 1.500387e-01 3.428206e+00 1.501046e-01 3.421218e+00 1.497797e-01 3.417687e+00 1.487214e-01 3.417840e+00 1.465312e-01 3.421822e+00 1.429137e-01 3.429538e+00 1.376973e-01 3.440731e+00 1.306729e-01 3.455209e+00 1.215074e-01 3.473277e+00 1.100657e-01 3.495970e+00 9.774720e-02 3.527055e+00 8.641060e-02 3.570460e+00 7.734565e-02 3.628844e+00 7.113171e-02 3.704364e+00 6.793570e-02 3.799426e+00 6.781638e-02 3.917046e+00 7.088684e-02 
4.114359e+00 8.926897e-02 4.294605e+00 9.959351e-02 4.514678e+00 1.012050e-01 4.311041e+00 1.029787e-01 4.138671e+00 1.054691e-01 3.995074e+00 1.093275e-01 3.877225e+00 1.148695e-01 3.781881e+00 1.217355e-01 3.705463e+00 1.286025e-01 3.643711e+00 1.344729e-01 3.593379e+00 1.389521e-01 3.552651e+00 1.419324e-01 3.520206e+00 1.435487e-01 3.494796e+00 1.441002e-01 3.475174e+00 1.439767e-01 3.460255e+00 1.435148e-01 3.449294e+00 1.428779e-01 3.442005e+00 1.419799e-01 3.438414e+00 1.405393e-01 3.438666e+00 1.382300e-01 3.442862e+00 1.348053e-01 3.450957e+00 1.301186e-01 3.462833e+00 1.240180e-01 3.478510e+00 1.163065e-01 3.498499e+00 1.070028e-01 3.524055e+00 9.721756e-02 3.558296e+00 8.843314e-02 3.604749e+00 8.169952e-02 3.666172e+00 7.753243e-02 3.744959e+00 7.611276e-02 3.843716e+00 7.751378e-02 3.965581e+00 8.183872e-02 
4.150902e+00 8.776575e-02 4.337833e+00 9.803270e-02 4.565133e+00 9.976510e-02 4.354955e+00 1.015847e-01 4.175872e+00 1.041537e-01 4.025528e+00 1.079878e-01 3.900915e+00 1.132024e-01 3.798830e+00 1.194279e-01 3.715889e+00 1.257927e-01 3.648527e+00 1.316088e-01 3.593753e+00 1.364954e-01 3.549464e+00 1.402530e-01 3.514062e+00 1.428592e-01 3.486180e+00 1.444358e-01 3.464587e+00 1.451941e-01 3.448260e+00 1.453388e-01 3.436468e+00 1.449798e-01 3.428832e+00 1.440726e-01 3.425240e+00 1.424380e-01 3.425726e+00 1.398442e-01 3.430364e+00 1.360840e-01 3.439213e+00 1.310081e-01 3.452379e+00 1.245167e-01 3.470173e+00 1.166042e-01 3.493330e+00 1.075605e-01 3.523230e+00 9.828958e-02 3.562416e+00 8.981616e-02 3.613823e+00 8.297059e-02 3.680157e+00 7.831348e-02 3.764005e+00 7.620082e-02 3.868158e+00 7.689526e-02 3.995850e+00 8.065355e-02 
4.189470e+00 9.794182e-02 4.379706e+00 1.086327e-01 4.610743e+00 1.104405e-01 4.398026e+00 1.121908e-01 4.216254e+00 1.142854e-01 4.063062e+00 1.171854e-01 3.935514e+00 1.209892e-01 3.830504e+00 1.254118e-01 3.744788e+00 1.298136e-01 3.675000e+00 1.336780e-01 3.618257e+00 1.367179e-01 3.572397e+00 1.388097e-01 3.535726e+00 1.399755e-01 3.506807e+00 1.403478e-01 3.484391e+00 1.401184e-01 3.467456e+00 1.394623e-01 3.455275e+00 1.384684e-01 3.447438e+00 1.370980e-01 3.443788e+00 1.352035e-01 3.444321e+00 1.325948e-01 3.449097e+00 1.291033e-01 3.458212e+00 1.246135e-01 3.471852e+00 1.190667e-01 3.490433e+00 1.125029e-01 3.514785e+00 1.052078e-01 3.546329e+00 9.791503e-02 3.587378e+00 9.147221e-02 3.640676e+00 8.657208e-02 3.708920e+00 8.369475e-02 3.794796e+00 8.315641e-02 3.901207e+00 8.519418e-02 4.031478e+00 9.003749e-02 
4.211305e+00 9.593515e-02 4.406148e+00 1.065162e-01 4.642102e+00 1.084073e-01 4.424593e+00 1.100701e-01 4.237897e+00 1.120966e-01 4.079795e+00 1.149029e-01 3.947382e+00 1.185259e-01 3.837607e+00 1.227258e-01 3.747362e+00 1.270519e-01 3.673566e+00 1.311035e-01 3.613480e+00 1.346041e-01 3.564878e+00 1.373808e-01 3.525950e+00 1.393640e-01 3.495192e+00 1.405738e-01 3.471339e+00 1.410891e-01 3.453378e+00 1.409964e-01 3.440567e+00 1.403402e-01 3.432445e+00 1.390897e-01 3.428786e+00 1.371432e-01 3.429536e+00 1.343652e-01 3.434756e+00 1.306305e-01 3.444613e+00 1.258603e-01 3.459418e+00 1.200519e-01 3.479730e+00 1.133319e-01 3.506478e+00 1.060433e-01 3.541087e+00 9.879953e-02 3.585630e+00 9.227843e-02 3.642571e+00 8.708597e-02 3.714505e+00 8.371810e-02 3.804158e+00 8.257626e-02 3.914506e+00 8.400809e-02 4.048929e+00 8.834794e-02 
4.234952e+00 1.047074e-01 4.431060e+00 1.156055e-01 4.668493e+00 1.175337e-01 4.450206e+00 1.190923e-01 4.262634e+00 1.206673e-01 4.103522e+00 1.226492e-01 3.970000e+00 1.250918e-01 3.859074e+00 1.278310e-01 3.767704e+00 1.305472e-01 3.692907e+00 1.329524e-01 3.632002e+00 1.348532e-01 3.582755e+00 1.361443e-01 3.543324e+00 1.368033e-01 3.512169e+00 1.368755e-01 3.488014e+00 1.364450e-01 3.469839e+00 1.355938e-01 3.456898e+00 1.343631e-01 3.448714e+00 1.327288e-01 3.445038e+00 1.306083e-01 3.445796e+00 1.278918e-01 3.451050e+00 1.244802e-01 3.460985e+00 1.203179e-01 3.475958e+00 1.154202e-01 3.496578e+00 1.099164e-01 3.523810e+00 1.041107e-01 3.559080e+00 9.851273e-02 3.604367e+00 9.369148e-02 3.662041e+00 9.015976e-02 3.734678e+00 8.834158e-02 3.825039e+00 8.858509e-02 3.936168e+00 9.119556e-02 4.071499e+00 9.646906e-02 
4.241924e+00 1.019972e-01 4.440622e+00 1.127200e-01 4.680745e+00 1.146925e-01 4.459404e+00 1.160916e-01 4.268687e+00 1.175560e-01 4.106471e+00 1.194775e-01 3.969902e+00 1.218959e-01 3.856012e+00 1.246803e-01 3.761840e+00 1.275868e-01 3.684524e+00 1.303685e-01 3.621463e+00 1.328259e-01 3.570420e+00 1.348139e-01 3.529513e+00 1.362459e-01 3.497172e+00 1.370904e-01 3.472104e+00 1.373549e-01 3.453287e+00 1.370597e-01 3.439958e+00 1.362101e-01 3.431612e+00 1.347780e-01 3.427965e+00 1.327020e-01 3.428924e+00 1.299058e-01 3.434559e+00 1.263260e-01 3.445099e+00 1.219426e-01 3.460970e+00 1.168097e-01 3.482849e+00 1.110921e-01 3.511741e+00 1.050990e-01 3.549051e+00 9.928006e-02 3.596634e+00 9.413555e-02 3.656711e+00 9.014848e-02 3.731772e+00 8.776089e-02 3.824557e+00 8.737602e-02 3.938127e+00 8.937310e-02 4.075939e+00 9.412422e-02 
4.250627e+00 1.096786e-01 4.448576e+00 1.206279e-01 4.687967e+00 1.225979e-01 4.467596e+00 1.238708e-01 4.277800e+00 1.249162e-01 4.116375e+00 1.261089e-01 3.980465e+00 1.275134e-01 3.867114e+00 1.290582e-01 3.773387e+00 1.305842e-01 3.696459e+00 1.319277e-01 3.633761e+00 1.329608e-01 3.583059e+00 1.335994e-01 3.542463e+00 1.338052e-01 3.510394e+00 1.335794e-01 3.485557e+00 1.329483e-01 3.466926e+00 1.319416e-01 3.453743e+00 1.305711e-01 3.445492e+00 1.288170e-01 3.441884e+00 1.266308e-01 3.442818e+00 1.239517e-01 3.448363e+00 1.207314e-01 3.458761e+00 1.169606e-01 3.474453e+00 1.126956e-01 3.496138e+00 1.080868e-01 3.524829e+00 1.034015e-01 3.561919e+00 9.901817e-02 3.609216e+00 9.535923e-02 3.668892e+00 9.283524e-02 3.743417e+00 9.182414e-02 3.835549e+00 9.267357e-02 3.948382e+00 9.571385e-02 4.085418e+00 1.012729e-01 
4.242668e+00 1.060971e-01 4.441208e+00 1.167916e-01 4.681090e+00 1.187661e-01 4.459404e+00 1.198428e-01 4.268244e+00 1.207889e-01 4.105507e+00 1.219974e-01 3.968318e+00 1.235301e-01 3.853717e+00 1.253289e-01 3.758791e+00 1.272575e-01 3.680765e+00 1.291558e-01 3.617109e+00 1.308742e-01 3.565602e+00 1.322878e-01 3.524346e+00 1.333044e-01 3.491757e+00 1.338655e-01 3.466534e+00 1.339404e-01 3.447653e+00 1.335133e-01 3.434345e+00 1.325678e-01 3.426082e+00 1.310773e-01 3.422559e+00 1.290034e-01 3.423668e+00 1.263068e-01 3.429488e+00 1.229646e-01 3.440287e+00 1.189932e-01 3.456544e+00 1.144719e-01 3.478986e+00 1.095652e-01 3.508638e+00 1.045360e-01 3.546863e+00 9.973544e-02 3.595393e+00 9.556081e-02 3.656304e+00 9.242007e-02 3.731992e+00 9.071563e-02 3.825175e+00 9.084166e-02 3.938934e+00 9.318790e-02 4.076772e+00 9.814475e-02 
4.236474e+00 1.129865e-01 4.432240e+00 1.238304e-01 4.669179e+00 1.257624e-01 4.450229e+00 1.266964e-01 4.261798e+00 1.272520e-01 4.101655e+00 1.278013e-01 3.966878e+00 1.284294e-01 3.854479e+00 1.291244e-01 3.761534e+00 1.298131e-01 3.685270e+00 1.304026e-01 3.623165e+00 1.308074e-01 3.573004e+00 1.309606e-01 3.532895e+00 1.308186e-01 3.501257e+00 1.303610e-01 3.476801e+00 1.295833e-01 3.458511e+00 1.284864e-01 3.445627e+00 1.270657e-01 3.437627e+00 1.253031e-01 3.434207e+00 1.231690e-01 3.435257e+00 1.206322e-01 3.440857e+00 1.176763e-01 3.451277e+00 1.143194e-01 3.466996e+00 1.106339e-01 3.488743e+00 1.067641e-01 3.517533e+00 1.029346e-01 3.554711e+00 9.944194e-02 3.601973e+00 9.662147e-02 3.661367e+00 9.481899e-02 3.735270e+00 9.437710e-02 3.826406e+00 9.563363e-02 3.937880e+00 9.892588e-02 4.073228e+00 1.045961e-01 