# vtk DataFile Version 2.0
Comment goes here
ASCII

DATASET STRUCTURED_POINTS
FIELD FieldData 1
TIME 1 1 double
0.06300000
DIMENSIONS    64   64   1

ORIGIN    0.000   0.000   0.000
SPACING   0.03125 0.03125   1.000

POINT_DATA   4096
SCALARS Omega double
LOOKUP_TABLE default

1.885072e-02 -2.536590e-01 -1.319645e-01 -3.060125e-01 -1.565297e-01 -9.976188e-02 -4.629826e-02 -2.542538e-01 3.108813e-03 -2.595048e-01 6.027972e-02 -2.083557e-01 1.165230e-01 -1.118942e-01 1.723783e-01 4.148780e-03 2.271961e-01 1.103891e-01 3.154023e-01 1.986260e-01 4.227494e-01 2.998257e-01 4.320266e-01 3.150506e-01 3.735391e-01 3.033812e-01 3.770594e-01 4.105938e-01 3.361635e-01 4.502538e-01 2.742322e-01 4.685465e-01 2.040533e-01 4.966847e-01 1.775239e-01 5.185753e-01 1.809570e-01 5.185374e-01 1.941065e-01 5.416441e-01 1.903336e-01 4.988672e-01 1.749520e-01 4.475925e-01 2.128423e-01 3.301425e-01 1.884083e-01 2.506170e-01 1.343796e-01 1.540640e-01 9.376862e-02 6.854639e-02 4.767766e-02 -3.705386e-02 1.439685e-02 -1.062842e-01 -2.295903e-02 -1.554820e-01 -4.936943e-02 -1.906939e-01 -6.663941e-02 -2.208877e-01 -7.000868e-02 -1.667134e-01 
-1.299385e+01 -4.088698e+01 -1.175385e+01 -3.348542e+01 -1.829067e+01 -2.843653e+01 -2.435648e+01 -2.380653e+01 -3.164900e+01 -2.094126e+01 -3.617467e+01 -1.932478e+01 -3.879724e+01 -1.866495e+01 -4.032981e+01 -1.843512e+01 -4.169143e+01 -1.747905e+01 -4.430690e+01 -1.458525e+01 -4.894856e+01 -9.859392e+00 -5.461706e+01 -4.458893e+00 -6.019425e+01 6.370650e-01 -6.538718e+01 5.319765e+00 -7.039936e+01 1.023422e+01 -7.582074e+01 1.561288e+01 -8.137645e+01 2.066894e+01 -8.606103e+01 2.422950e+01 -8.902039e+01 2.574197e+01 -8.941800e+01 2.495003e+01 -8.801993e+01 2.284720e+01 -8.542134e+01 1.982746e+01 -8.178490e+01 1.592532e+01 -7.692944e+01 1.079515e+01 -7.070552e+01 4.531982e+00 -6.321172e+01 -2.994145e+00 -5.441240e+01 -1.115613e+01 -4.534379e+01 -1.905104e+01 -3.676234e+01 -2.598544e+01 -2.920964e+01 -3.137032e+01 -2.309443e+01 -3.504065e+01 -1.817740e+01 -3.756377e+01 
-6.357238e+01 1.023995e+01 -5.044954e+01 7.821885e+00 -9.942313e+00 5.992658e+00 -5.149188e+01 -1.080875e-01 -6.565325e+01 -1.700796e+00 -7.560579e+01 -2.368864e+00 -8.346792e+01 -2.615028e+00 -8.998515e+01 -2.668411e+00 -9.536353e+01 -3.141231e+00 -9.895670e+01 -4.728744e+00 -1.004666e+02 -7.334509e+00 -1.007514e+02 -1.003138e+01 -1.006152e+02 -1.220242e+01 -1.004877e+02 -1.409320e+01 -1.001334e+02 -1.611422e+01 -9.905503e+01 -1.870038e+01 -9.734744e+01 -2.134135e+01 -9.576108e+01 -2.339434e+01 -9.478493e+01 -2.439270e+01 -9.481918e+01 -2.425265e+01 -9.529870e+01 -2.364109e+01 -9.554979e+01 -2.283405e+01 -9.578153e+01 -2.147410e+01 -9.600895e+01 -1.957259e+01 -9.620774e+01 -1.718086e+01 -9.632266e+01 -1.404067e+01 -9.649437e+01 -1.048129e+01 -9.591200e+01 -7.049446e+00 -9.413629e+01 -3.973365e+00 -9.076006e+01 -1.378449e+00 -8.516741e+01 4.440008e-01 -7.637879e+01 5.548305e-01 
-3.140998e+01 8.536544e+00 -2.753658e+01 1.138271e+01 -3.345507e+01 5.914195e+00 -1.892966e+01 9.002949e+00 -2.760815e+01 6.533002e+00 -3.326989e+01 4.748075e+00 -3.764897e+01 3.537504e+00 -4.117506e+01 2.632860e+00 -4.397874e+01 1.568038e+00 -4.548152e+01 -3.563315e-01 -4.545801e+01 -2.817763e+00 -4.455681e+01 -5.613448e+00 -4.358311e+01 -8.030435e+00 -4.253336e+01 -9.897701e+00 -4.123173e+01 -1.182096e+01 -3.951859e+01 -1.408481e+01 -3.743608e+01 -1.616222e+01 -3.551594e+01 -1.756861e+01 -3.416053e+01 -1.805927e+01 -3.385896e+01 -1.753380e+01 -3.411354e+01 -1.660250e+01 -3.458368e+01 -1.549454e+01 -3.521273e+01 -1.410518e+01 -3.613659e+01 -1.223367e+01 -3.739235e+01 -9.914495e+00 -3.883053e+01 -7.049672e+00 -4.054181e+01 -3.898444e+00 -4.202751e+01 -9.133890e-01 -4.286655e+01 1.747415e+00 -4.263704e+01 3.645359e+00 -4.082338e+01 5.191949e+00 -3.829280e+01 7.415945e+00 
-2.925619e+00 2.252439e+00 -3.045264e+00 -6.372054e+00 -5.504063e+01 -6.016009e-01 5.997189e+00 3.685615e-01 1.056666e+00 2.511786e-01 -5.636240e-01 1.609976e-01 -1.174231e+00 6.659357e-02 -1.410227e+00 -5.034611e-02 -1.459082e+00 -1.689584e-01 -1.505594e+00 -2.585327e-01 -1.528853e+00 -2.708232e-01 -1.557894e+00 -2.682522e-01 -1.599779e+00 -2.336283e-01 -1.562416e+00 -2.172070e-01 -1.573421e+00 -2.192903e-01 -1.498408e+00 -2.300927e-01 -1.421669e+00 -2.412523e-01 -1.300681e+00 -2.648816e-01 -1.174210e+00 -3.471126e-01 -1.069069e+00 -4.693743e-01 -9.413130e-01 -6.314184e-01 -8.580163e-01 -7.279027e-01 -7.237038e-01 -7.565665e-01 -6.246610e-01 -7.184141e-01 -5.228590e-01 -6.463488e-01 -4.595449e-01 -5.584990e-01 -4.409833e-01 -4.052593e-01 -4.497330e-01 -1.849210e-01 -4.985119e-01 1.064227e-01 -6.158798e-01 4.641944e-01 -8.105381e-01 9.713892e-01 -1.060893e+00 1.882366e+00 
-2.375806e+00 1.930038e+00 -2.751746e+00 -5.624866e+00 -7.139153e+01 -2.567613e+00 5.136349e+00 -1.026965e+00 2.909713e+00 -2.663285e-01 1.450340e+00 -1.333498e-01 7.093904e-01 -9.682124e-02 3.425093e-01 -8.642862e-02 1.986751e-01 -1.059219e-01 7.998442e-02 -1.476976e-01 1.237185e-02 -1.328822e-01 3.398904e-02 -1.163352e-01 -5.810138e-03 -4.821641e-02 3.691132e-02 -3.833903e-02 -2.694029e-03 -2.098567e-02 2.201808e-02 -3.079000e-03 -2.301530e-02 -1.421738e-02 -4.537559e-02 -1.748586e-03 -4.523062e-02 -2.444679e-03 -7.193728e-02 2.856960e-02 -2.224132e-02 3.621872e-02 -6.012512e-02 5.280805e-02 -1.854210e-02 4.926965e-02 -4.783103e-02 3.125900e-02 -4.250896e-02 4.687409e-02 -5.304507e-02 7.212745e-02 -1.037837e-01 1.505019e-01 -1.721318e-01 2.792086e-01 -2.832113e-01 4.454631e-01 -4.661484e-01 6.970957e-01 -8.051352e-01 1.020181e+00 -1.307136e+00 9.967762e-01 
-2.380470e+00 1.262380e+00 -1.714497e+00 -6.521316e+00 -8.178617e+01 -1.871430e+00 3.981215e+00 -1.224868e+00 2.857817e+00 -4.959270e-01 1.571919e+00 -2.514132e-01 7.896466e-01 -1.391786e-01 3.844685e-01 -1.208653e-01 2.973174e-01 -1.762326e-01 1.300172e-01 -2.381295e-01 7.244362e-02 -1.727534e-01 9.452652e-02 -1.463346e-01 3.931900e-02 -4.852023e-02 1.675823e-01 -3.913957e-02 6.336756e-02 5.718370e-03 1.280902e-01 2.479941e-02 2.641650e-02 1.481601e-02 2.276953e-03 3.580069e-02 -2.040296e-02 1.913532e-02 -6.868229e-02 6.910642e-02 1.951018e-03 5.753351e-02 -9.223203e-02 9.396826e-02 -1.649466e-02 6.874438e-02 -8.928108e-02 4.727635e-02 -5.115913e-02 7.146192e-02 -5.866863e-02 1.055070e-01 -1.260859e-01 2.237168e-01 -2.179444e-01 3.794845e-01 -3.706109e-01 5.413392e-01 -6.108762e-01 7.310749e-01 -9.672604e-01 9.589587e-01 -1.463450e+00 1.081933e+00 
-2.096741e+00 1.043832e+00 -1.230896e+00 -5.713577e+00 -9.131185e+01 -1.763582e+00 2.101213e+00 -1.818556e+00 2.255763e+00 -8.666543e-01 1.531924e+00 -4.053768e-01 8.390486e-01 -1.807052e-01 3.947298e-01 -1.566102e-01 3.172742e-01 -2.131875e-01 1.479204e-01 -3.594618e-01 5.720992e-02 -2.254885e-01 1.262202e-01 -2.309117e-01 4.388080e-03 -7.686614e-02 1.860484e-01 -7.352854e-02 2.341134e-02 -3.540010e-02 1.170911e-01 4.508507e-03 -1.335622e-02 -4.305799e-02 -4.258066e-02 2.782373e-02 -4.620446e-02 -1.289295e-02 -1.154488e-01 9.764108e-02 2.868679e-02 8.021804e-02 -9.700519e-02 1.565678e-01 2.914247e-02 1.327258e-01 -7.963962e-02 6.779286e-02 -2.518357e-02 9.062089e-02 -1.756467e-02 1.004879e-01 -8.476364e-02 2.647054e-01 -1.767891e-01 4.700595e-01 -3.326885e-01 6.666950e-01 -5.658528e-01 8.815087e-01 -9.026452e-01 1.110494e+00 -1.362842e+00 1.285885e+00 
-1.721348e+00 7.592214e-01 -1.368890e-01 -6.161619e+00 -9.692211e+01 -1.101709e+00 1.292205e+00 -1.770218e+00 1.655485e+00 -9.973994e-01 1.301994e+00 -4.646996e-01 7.005607e-01 -1.024878e-01 2.558720e-01 -9.360867e-02 3.785108e-01 -4.205228e-01 1.203072e-01 -4.677984e-01 6.965403e-02 -2.974415e-01 1.752657e-01 -2.720510e-01 -4.016796e-02 -4.172206e-02 3.468783e-01 -1.114214e-01 -2.423936e-03 2.536316e-02 2.382271e-01 -2.162031e-03 -3.793840e-02 -5.996826e-03 -2.765288e-02 3.876659e-02 -5.636128e-02 -5.465123e-03 -1.719785e-01 1.370947e-01 9.600708e-02 7.190323e-02 -1.834073e-01 2.395211e-01 6.575264e-02 1.367618e-01 -1.851101e-01 5.648137e-02 -5.261329e-02 1.903967e-02 -1.963580e-03 3.753159e-02 -6.270162e-02 2.872576e-01 -1.699591e-01 5.285304e-01 -3.619827e-01 7.093686e-01 -6.102897e-01 8.881213e-01 -9.149326e-01 1.084515e+00 -1.289624e+00 1.243790e+00 
-1.332802e+00 5.883735e-01 5.231371e-01 -5.668128e+00 -1.023035e+02 -8.387504e-01 3.713180e-01 -2.019387e+00 9.333867e-01 -1.319246e+00 1.011035e+00 -6.141073e-01 6.054535e-01 5.310501e-02 1.244646e-01 1.383258e-01 1.975773e-01 -7.488720e-01 1.731673e-01 -5.572951e-01 3.966821e-03 -4.054648e-01 2.481337e-01 -3.813318e-01 -1.023424e-01 -1.146562e-02 3.947486e-01 -2.178225e-01 -1.413304e-02 1.083185e-01 2.308927e-01 -8.072702e-02 -6.274603e-02 1.712543e-02 -1.004509e-01 -2.157012e-02 -7.210240e-02 -4.530769e-02 -2.583879e-01 1.699645e-01 1.551793e-01 1.383551e-02 -1.793961e-01 4.250165e-01 1.077747e-01 1.545171e-01 -1.928845e-01 1.672353e-01 -7.827898e-02 -8.584226e-02 6.323270e-02 -9.812876e-02 6.927664e-02 3.394288e-01 -7.913649e-02 6.351443e-01 -3.048532e-01 8.041433e-01 -5.393982e-01 9.635035e-01 -7.940446e-01 1.135846e+00 -1.089415e+00 1.258142e+00 
-9.113640e-01 3.314684e-01 1.462641e+00 -5.740127e+00 -1.048589e+02 -3.553349e-01 5.115409e-02 -2.037612e+00 4.373954e-01 -1.506345e+00 7.277113e-01 -7.094600e-01 3.654630e-01 4.731768e-01 -1.807484e-01 1.174189e+00 4.729727e-03 -2.232784e+00 3.355543e-01 1.738426e-01 -1.290302e-01 -1.052983e+00 4.711744e-01 -6.639788e-02 -3.948827e-01 1.817966e-03 7.822395e-01 -4.161749e-01 -1.338191e-01 6.584611e-01 3.844052e-01 -5.639089e-01 -5.691796e-02 6.269035e-01 -2.263426e-01 -5.437210e-01 2.476240e-02 3.206007e-01 -5.225718e-01 -5.940623e-02 4.470194e-01 1.431234e-02 -3.547521e-01 7.776149e-01 2.129420e-01 2.974803e-02 -3.348388e-01 5.005671e-01 -3.413648e-01 -6.273098e-01 2.237799e-01 -2.605343e-01 2.449179e-01 4.602712e-01 -1.142071e-02 7.509937e-01 -3.293769e-01 8.360290e-01 -5.581395e-01 9.422560e-01 -7.452703e-01 1.088686e+00 -9.252753e-01 1.182469e+00 
-5.279037e-01 1.529407e-01 2.068679e+00 -5.308301e+00 -1.072622e+02 -4.509761e-02 -3.558183e-01 -2.166095e+00 -1.104694e-01 -1.946838e+00 4.137530e-01 -1.267867e+00 3.720752e-01 4.981092e-01 1.457953e-01 2.363426e+00 -1.492671e+00 -3.767576e+00 1.445635e+00 2.341120e+00 -8.358204e-01 -1.959962e+00 8.473069e-01 4.074598e-01 -4.800091e-01 6.167642e-01 5.242676e-01 -1.575759e+00 4.653685e-01 2.743298e+00 -3.521006e-01 -2.550894e+00 5.428983e-01 2.749404e+00 -9.656135e-01 -2.374213e+00 3.771452e-01 1.312583e+00 -9.196975e-01 -6.097879e-01 4.681537e-01 -5.419472e-01 5.510074e-02 2.322093e+00 -3.212709e-01 -1.260730e+00 3.031387e-01 2.983817e+00 -1.346815e+00 -1.952029e+00 5.482993e-01 -2.863167e-01 7.432444e-01 8.111848e-01 4.653297e-02 9.288525e-01 -3.569599e-01 9.007053e-01 -5.206598e-01 9.642069e-01 -6.205093e-01 1.083151e+00 -7.063502e-01 1.135721e+00 
-1.379599e-01 -1.009224e-01 2.796770e+00 -5.152134e+00 -1.075121e+02 3.125037e-01 -4.404917e-01 -2.226869e+00 -3.713380e-01 -2.379610e+00 3.057019e-01 -2.140644e+00 1.097952e-01 -1.048055e+00 7.805854e-01 -4.495578e+00 8.578435e-01 4.420774e+00 6.497777e+00 8.485280e+00 -2.324145e+00 1.138839e+00 3.813878e+00 5.339386e+00 -2.799205e+00 1.843377e+00 3.905575e+00 -1.213716e+00 -1.314351e-01 3.323520e+00 1.690651e+00 -3.913043e+00 1.540370e+00 4.755918e+00 -9.479381e-01 -3.491606e+00 1.973112e+00 3.915698e+00 -2.509046e+00 -3.098903e-01 2.612191e+00 -1.669089e+00 -1.078742e+00 3.090195e+00 1.736757e+00 -4.803184e+00 1.189180e-01 5.108388e+00 -1.255862e+00 -7.053536e+00 1.728987e-01 -2.883429e+00 1.005401e+00 1.440730e+00 -6.188095e-02 1.123309e+00 -5.619542e-01 8.411965e-01 -5.846768e-01 8.832523e-01 -5.561962e-01 1.013811e+00 -5.234595e-01 1.048628e+00 
2.143195e-01 -2.870731e-01 3.245007e+00 -4.605540e+00 -1.075716e+02 5.430056e-01 -6.409732e-01 -2.059957e+00 -8.060091e-01 -2.557679e+00 -3.167612e-01 -3.676517e+00 -1.239390e-01 -8.724332e+00 8.142855e+00 -3.027611e+01 1.295839e+01 5.217036e+01 3.795692e+01 1.445958e+01 2.690318e+00 2.786330e+01 3.409598e+01 3.398402e+01 2.309994e+00 -3.899518e-01 2.637176e+01 3.783930e+01 1.310553e+01 -9.497283e+00 1.374522e+01 2.769946e+01 2.040682e+01 3.858518e-01 5.945497e+00 2.268962e+01 2.520774e+01 1.651891e+01 1.174049e+00 9.550121e+00 2.593360e+01 2.626479e+01 7.568287e+00 -7.428239e+00 1.730518e+01 1.979092e+01 1.621922e+01 -3.309602e+00 7.937304e+00 1.250523e+01 1.430202e+01 9.993109e+00 2.838405e+00 3.341750e+00 -8.456168e-01 1.074005e+00 -8.636787e-01 7.754318e-01 -5.747838e-01 8.483928e-01 -4.190572e-01 9.719150e-01 -3.038841e-01 9.689729e-01 
5.616079e-01 -4.989692e-01 3.725581e+00 -4.182434e+00 -1.058874e+02 7.675984e-01 -7.101794e-01 -1.835431e+00 -9.971227e-01 -2.534067e+00 1.660693e-02 -5.127932e+00 2.831148e+00 -1.375767e+01 1.508572e+01 -3.837418e+01 3.723988e+01 8.394109e+01 4.606723e+01 -1.257896e+01 2.199956e+01 6.616383e+01 6.038797e+01 3.438425e+01 1.040470e+01 9.545461e+00 6.878637e+01 8.441838e+01 1.740022e+01 -2.953519e+01 4.760173e+01 9.071946e+01 3.181804e+01 -2.482997e+01 2.974767e+01 8.791023e+01 5.163949e+01 9.532389e+00 1.331137e+01 4.704386e+01 7.205910e+01 6.903852e+01 1.317120e+01 -1.741274e+01 5.800705e+01 9.142034e+01 3.276095e+01 -2.875548e+01 3.375746e+01 1.045112e+02 3.656506e+01 3.369214e+01 -3.465484e+00 1.583381e+00 -3.583063e+00 -4.399023e-01 -1.359431e+00 3.026868e-01 -5.486509e-01 7.169920e-01 -2.868772e-01 9.125298e-01 -1.072216e-01 8.869924e-01 
8.680694e-01 -6.362577e-01 3.966035e+00 -3.554626e+00 -1.041006e+02 7.803465e-01 -6.682485e-01 -1.494809e+00 -7.808423e-01 -1.439387e+00 4.914251e-01 -1.498235e+00 2.791963e+00 -1.635089e+00 4.212978e+00 1.062378e+00 -5.351607e+00 -2.278925e+01 1.031269e+00 -1.343368e+01 5.833522e+00 -2.430228e+00 2.539929e+00 -1.039677e+01 6.244890e+00 2.196343e+00 1.275663e+01 6.559273e+00 3.863457e+00 -6.142059e+00 1.748723e+01 2.152773e+01 3.808075e+00 -9.714668e+00 1.546907e+01 3.010917e+01 1.002014e+01 -1.981173e+00 7.532533e+00 2.305000e+01 2.550360e+01 2.367416e+01 -1.822747e+00 -4.603762e-01 3.358547e+01 4.513008e+01 -1.590425e+00 -1.149981e+01 3.266979e+01 6.888028e+01 6.263056e+00 1.915973e+01 -5.047031e+00 1.428910e+00 -2.500844e+00 -3.203686e-02 -8.057251e-01 3.951181e-01 -2.598458e-01 7.016579e-01 -7.304290e-02 8.611422e-01 1.149760e-01 7.942400e-01 
1.151172e+00 -7.484345e-01 4.199271e+00 -3.011402e+00 -1.008177e+02 8.787432e-01 -6.211718e-01 -1.231385e+00 -9.016459e-01 -3.774685e-01 -4.299547e-01 2.884228e+00 -1.591879e+00 1.291855e+01 -1.502538e+01 4.180829e+01 -3.454881e+01 -9.497864e+01 -5.304186e+01 2.455253e+00 -1.940490e+01 -7.276638e+01 -6.219278e+01 -3.837954e+01 -7.719289e+00 -1.500526e+01 -7.257910e+01 -8.631787e+01 -1.136040e+01 2.570790e+01 -5.445688e+01 -9.412849e+01 -2.215186e+01 2.737138e+01 -3.747949e+01 -9.267835e+01 -4.164695e+01 1.850575e+00 -1.780839e+01 -5.382517e+01 -6.900721e+01 -5.476534e+01 -7.784367e+00 9.910369e+00 -6.585498e+01 -8.395522e+01 -1.645447e+01 2.971681e+01 -4.795305e+01 -1.009078e+02 -1.905267e+01 -1.810916e+01 3.026603e+00 2.026610e+00 2.075113e+00 2.121318e+00 5.842006e-01 1.205494e+00 1.329392e-01 9.168306e-01 1.063404e-01 8.839704e-01 2.911689e-01 7.286758e-01 
1.375275e+00 -7.758716e-01 4.254764e+00 -2.484947e+00 -9.747120e+01 9.668756e-01 -7.251543e-01 -1.177270e+00 -1.258556e+00 -8.637643e-01 -1.148643e+00 9.057080e-01 -2.528848e+00 7.799476e+00 -1.312514e+01 2.566643e+01 -9.320065e+00 -2.443067e+01 -3.906090e+01 -9.202259e+00 -6.974906e+00 -2.119488e+01 -3.806101e+01 -3.029555e+01 -9.860818e+00 2.784710e+00 -3.467438e+01 -4.799618e+01 -2.427643e+01 1.613793e+01 -2.073553e+01 -4.716813e+01 -3.419374e+01 4.644694e+00 -1.195835e+01 -4.720737e+01 -4.315695e+01 -2.184229e+01 -6.192708e+00 -2.445392e+01 -4.942192e+01 -5.718671e+01 -1.487532e+01 1.514799e+01 -3.479022e+01 -6.584839e+01 -3.201771e+01 1.495426e+01 -1.942096e+01 -7.794768e+01 -3.348034e+01 -3.527105e+01 6.370877e-01 -2.292963e+00 2.681056e+00 1.441334e+00 9.693693e-01 1.111507e+00 3.538226e-01 8.843322e-01 2.781382e-01 8.344531e-01 4.692098e-01 6.497923e-01 
1.569066e+00 -8.447744e-01 4.340924e+00 -2.070853e+00 -9.299287e+01 1.171073e+00 -7.800051e-01 -8.629758e-01 -1.596680e+00 -7.668333e-01 -1.694552e+00 -6.794442e-01 -1.903792e+00 -2.366515e+00 -1.883200e+00 -1.519354e+00 -2.618897e+00 4.558635e+00 -1.571410e+00 7.179232e-01 -1.034985e+00 1.456336e+00 -1.927219e+00 1.070545e+00 2.455945e+00 -1.160011e+00 -5.415166e+00 4.483534e+00 1.887431e+00 1.065063e-01 -5.548069e+00 3.295115e+00 -9.610225e-01 -1.467082e+00 -1.818593e+00 1.810882e-01 -3.282560e+00 -5.300762e+00 2.938906e+00 -3.022915e+00 -6.165950e+00 -3.763391e+00 3.190002e+00 -4.100311e-01 -7.564129e+00 -2.682698e+00 -7.423713e-01 -5.716199e-01 -3.856757e+00 -3.974837e+00 -4.367408e+00 -4.590818e+00 -4.012288e-01 -2.629849e+00 6.287659e-01 -1.117817e-01 5.833211e-01 6.022466e-01 3.979149e-01 7.427612e-01 3.814198e-01 7.708697e-01 5.940289e-01 5.727530e-01 
1.697270e+00 -8.223512e-01 4.249654e+00 -1.661747e+00 -8.849715e+01 1.167911e+00 -8.022266e-01 -7.951411e-01 -1.647188e+00 -7.437395e-01 -1.680515e+00 -5.116812e-01 -1.650338e+00 -1.929560e+00 -5.642161e-01 -5.202664e+00 2.764546e+00 3.085782e+00 -1.146206e+00 -2.443636e+00 8.222432e-01 1.481970e+00 -8.510323e-01 -5.123812e-01 2.580626e-02 -1.423898e+00 8.035084e-02 2.209785e+00 -1.171963e+00 -4.032216e+00 1.185591e+00 3.770643e+00 -1.140883e+00 -4.254970e+00 1.685205e+00 3.641514e+00 -7.924813e-01 -2.445216e+00 1.429332e+00 1.155602e+00 -7.076158e-01 1.067385e+00 -3.053318e-01 -3.132664e+00 5.461597e-01 3.099326e+00 -8.596679e-01 -5.174966e+00 2.081142e+00 5.205375e+00 -7.201505e-01 9.786567e-01 -7.704483e-01 -1.332529e+00 2.437751e-01 -3.546520e-01 5.039371e-01 3.388872e-01 4.572253e-01 5.930095e-01 4.789578e-01 6.724332e-01 7.097799e-01 4.868585e-01 
1.783519e+00 -8.869844e-01 4.240490e+00 -1.515624e+00 -8.320712e+01 1.322292e+00 -6.658127e-01 -7.655297e-01 -1.561117e+00 -1.027796e+00 -1.400188e+00 -1.081620e+00 -9.200001e-01 -1.500971e+00 -1.339740e-02 -1.507496e+00 3.455316e-01 1.259987e-01 -1.424508e-02 -4.815322e-01 1.464710e-01 2.197679e-01 -4.118796e-01 -4.302047e-01 3.555503e-01 -3.556880e-01 -7.796445e-01 4.697167e-02 2.425382e-01 -1.035721e+00 -4.733464e-01 7.008448e-01 1.471537e-01 -1.170285e+00 1.520329e-01 1.074129e+00 3.554430e-02 -7.474568e-01 5.899715e-01 6.951898e-01 -6.122757e-01 -4.997268e-02 5.727410e-01 -8.822651e-01 -6.429228e-01 6.297636e-01 3.693052e-01 -1.345501e+00 -1.927641e-01 2.535077e+00 -3.580302e-01 6.622509e-01 -1.497136e-01 -4.041728e-01 1.376461e-01 -2.101517e-01 3.231901e-01 2.074129e-01 3.935336e-01 4.660487e-01 4.865203e-01 5.794612e-01 7.540569e-01 3.980238e-01 
1.812247e+00 -8.545016e-01 4.032236e+00 -1.192388e+00 -7.778612e+01 1.228676e+00 -6.331693e-01 -6.810484e-01 -1.457099e+00 -9.274352e-01 -1.276352e+00 -9.703006e-01 -8.278438e-01 -1.284713e+00 -1.816347e-01 -1.062513e+00 1.990937e-01 -5.358001e-01 -7.809191e-02 -9.660489e-02 8.908525e-02 -3.064024e-01 -2.905053e-01 -8.577807e-02 3.695486e-02 -4.336361e-01 -3.290822e-01 -2.084989e-02 -5.259344e-02 -3.026916e-01 -1.183008e-01 -3.178793e-02 9.661268e-03 -1.069141e-01 1.825332e-01 2.723220e-02 5.587996e-03 6.015545e-02 2.991869e-01 -1.397671e-02 -2.602287e-01 1.961928e-01 1.508535e-01 -2.582145e-01 -1.776800e-01 1.089414e-01 1.555030e-01 1.082768e-01 4.589033e-02 9.026793e-01 -2.292180e-01 7.782671e-01 -1.182869e-01 7.089226e-02 9.018973e-02 -2.198512e-02 2.782765e-01 1.942814e-01 3.907926e-01 3.917412e-01 5.149113e-01 4.948736e-01 7.991824e-01 3.162564e-01 
1.799618e+00 -8.994037e-01 3.923886e+00 -1.168131e+00 -7.179968e+01 1.295866e+00 -4.124761e-01 -6.607796e-01 -1.255549e+00 -9.763407e-01 -1.049743e+00 -8.933358e-01 -6.695255e-01 -8.656929e-01 -3.036131e-01 -7.845217e-01 -2.787006e-01 -5.011578e-01 -2.952955e-02 -3.804018e-01 -7.196364e-02 -2.757625e-01 -9.033132e-02 -2.049070e-01 3.781648e-02 -2.810117e-01 -2.704193e-01 -9.048233e-02 7.638580e-02 -2.564097e-01 -2.397345e-01 -1.283190e-02 1.324444e-01 -1.301098e-01 -3.383899e-02 5.319530e-02 1.393233e-01 1.394525e-02 1.280441e-01 3.887176e-02 -1.078136e-01 1.023664e-01 1.756243e-01 -9.866608e-02 -2.734885e-01 1.922521e-01 1.170350e-01 1.394124e-01 -2.835007e-01 5.987967e-01 -3.687565e-02 4.449790e-01 7.572330e-02 1.564079e-01 1.545616e-01 1.194245e-01 2.443317e-01 2.295772e-01 3.389316e-01 3.551698e-01 4.775778e-01 4.315084e-01 7.782093e-01 2.401947e-01 
1.736948e+00 -8.490857e-01 3.621644e+00 -9.161242e-01 -6.558983e+01 1.156318e+00 -3.779449e-01 -6.114327e-01 -1.128471e+00 -9.041120e-01 -9.520917e-01 -7.870511e-01 -6.597550e-01 -6.610367e-01 -3.969193e-01 -6.261810e-01 -2.336723e-01 -5.754677e-01 -1.513199e-01 -4.414910e-01 -4.180038e-02 -3.009234e-01 -1.090950e-01 -2.239239e-01 -2.895552e-02 -1.857801e-01 -1.308317e-01 -1.596001e-01 -2.508250e-02 -1.197285e-01 -6.127219e-02 -1.105635e-01 1.585101e-02 -5.141044e-02 4.259664e-02 -2.112885e-02 3.211126e-02 1.703918e-02 7.406488e-02 5.168106e-02 -5.446608e-02 6.067961e-02 4.811820e-02 8.718434e-02 -9.624679e-02 1.208052e-01 -5.968762e-04 2.179224e-01 -6.123346e-02 2.727895e-01 -3.066473e-02 2.724294e-01 9.606426e-02 2.443758e-01 1.646907e-01 2.340808e-01 2.250937e-01 2.717123e-01 3.145992e-01 3.346356e-01 4.607056e-01 3.763991e-01 7.634070e-01 1.781914e-01 
1.642309e+00 -8.617105e-01 3.414598e+00 -9.327808e-01 -5.895469e+01 1.160384e+00 -1.703070e-01 -5.821501e-01 -9.173271e-01 -8.994962e-01 -7.548179e-01 -6.665500e-01 -5.615206e-01 -3.083149e-01 -4.934095e-01 -3.728137e-01 -4.759520e-01 -5.338911e-01 -1.909995e-01 -6.603259e-01 -5.134992e-02 -2.417886e-01 -4.039901e-02 -3.051561e-01 3.653735e-02 -6.154314e-02 -1.234618e-01 -1.794970e-01 7.150869e-02 -1.104752e-01 -1.181021e-01 -6.848818e-02 7.385494e-02 -1.207661e-01 -5.015019e-02 6.468628e-02 7.058015e-02 -7.683587e-02 3.066479e-02 1.802100e-01 -3.052041e-02 -1.123291e-02 1.033173e-01 2.079014e-01 -2.104223e-01 2.017367e-01 -3.573858e-02 1.094961e-01 -2.491794e-01 1.387232e-01 8.612702e-02 -4.094287e-02 2.790960e-01 2.512726e-01 2.311245e-01 3.444414e-01 1.869599e-01 3.201854e-01 2.440797e-01 3.192801e-01 3.920693e-01 3.288309e-01 6.963861e-01 1.207750e-01 
1.505211e+00 -7.901732e-01 3.037078e+00 -7.364590e-01 -5.208462e+01 9.969523e-01 -1.513204e-01 -5.583599e-01 -7.876531e-01 -8.847117e-01 -6.408820e-01 -6.552638e-01 -4.812926e-01 -3.405100e-02 -5.018236e-01 2.680325e-01 -6.447831e-01 -1.193787e+00 -1.939641e-01 -4.737550e-01 3.387317e-02 -2.743330e-01 -1.023092e-01 -3.659075e-01 9.967711e-02 3.069456e-01 -1.768405e-01 -5.826614e-01 1.763472e-01 4.259081e-01 -1.530362e-01 -5.672990e-01 1.247367e-01 2.814824e-01 -9.931914e-02 -2.617030e-01 3.838634e-02 4.062537e-02 3.377738e-03 2.636112e-01 -8.538849e-02 -2.577373e-01 1.882023e-01 7.181605e-01 -2.710631e-01 -2.420392e-01 4.306994e-02 5.802803e-01 -2.771003e-01 -4.256511e-01 1.340990e-01 -2.076843e-01 3.905322e-01 3.689886e-01 2.288133e-01 4.415968e-01 1.328192e-01 3.491351e-01 1.892930e-01 3.011467e-01 3.437445e-01 2.836116e-01 6.384509e-01 7.707409e-02 
1.350405e+00 -7.654051e-01 2.734722e+00 -7.429769e-01 -4.485959e+01 9.622870e-01 -1.345920e-02 -5.348007e-01 -6.042294e-01 -1.003518e+00 -3.878715e-01 -8.898020e-01 -1.078689e-01 1.805740e-01 -3.127651e-01 1.546776e+00 -1.512654e+00 -2.255437e+00 1.228769e-01 3.580308e-01 3.850977e-01 -1.584239e-01 -3.115040e-01 -4.958347e-01 8.371977e-01 1.426197e+00 -8.702454e-01 -1.790664e+00 1.090898e+00 2.035081e+00 -8.300945e-01 -1.975049e+00 7.172805e-01 1.641951e+00 -4.456272e-01 -1.096421e+00 1.929925e-01 4.800774e-01 2.808656e-01 6.423661e-01 -5.229886e-01 -1.291263e+00 1.185195e+00 2.286294e+00 -1.103218e+00 -1.764555e+00 8.092189e-01 2.486736e+00 -1.117590e+00 -2.082487e+00 3.428077e-01 -8.036589e-01 1.014496e+00 9.387502e-01 1.805166e-01 6.248741e-01 -5.354320e-02 3.186155e-01 6.308547e-02 2.378781e-01 2.566961e-01 2.252155e-01 5.481897e-01 3.385532e-02 
1.160838e+00 -6.687760e-01 2.292173e+00 -5.637421e-01 -3.746211e+01 7.767232e-01 -2.257662e-02 -4.779464e-01 -4.922243e-01 -9.713756e-01 -3.181448e-01 -1.216910e+00 8.554640e-02 -1.730201e+00 1.304816e+00 -1.294791e+00 -2.096558e+00 4.675968e-01 5.796971e+00 6.242506e+00 8.925862e-01 4.546495e-01 3.484000e+00 5.630870e+00 2.567172e+00 -1.215104e-01 1.922354e+00 4.098063e+00 4.376863e+00 1.526921e+00 1.949430e-01 2.060388e+00 4.571935e+00 3.432290e+00 -4.481233e-01 8.673905e-01 4.567716e+00 4.832803e+00 8.129145e-01 -3.484626e-01 3.691323e+00 4.597391e+00 3.713225e+00 2.220307e-01 1.349096e+00 2.955021e+00 4.757111e+00 2.906875e+00 -5.217133e-01 9.357276e-01 3.936817e+00 2.745182e+00 1.491469e+00 1.684621e+00 -7.678486e-02 6.381522e-01 -2.140162e-01 2.591880e-01 -1.101659e-02 1.841703e-01 2.013195e-01 1.736274e-01 4.692039e-01 3.355110e-03 
9.699889e-01 -5.846379e-01 1.889337e+00 -4.647049e-01 -2.974220e+01 7.016975e-01 -2.533199e-03 -3.160885e-01 -4.737423e-01 -9.690910e-01 -3.489482e-01 -2.521016e+00 1.132482e+00 -8.522655e+00 7.233841e+00 -1.103470e+01 -1.397238e+00 1.005089e+01 2.921710e+01 2.788465e+01 6.870615e+00 1.460761e+00 2.168726e+01 3.611039e+01 1.554399e+01 -7.886208e+00 1.359529e+01 3.805751e+01 2.397070e+01 -1.659809e+00 4.632603e+00 2.602302e+01 2.451354e+01 1.001926e+01 1.593688e+00 1.225344e+01 2.668868e+01 2.664252e+01 7.367902e+00 -4.533714e+00 2.215667e+01 4.160104e+01 2.034962e+01 -8.529289e+00 9.781977e+00 3.372370e+01 2.647976e+01 5.330305e+00 1.054480e+00 2.480616e+01 2.349342e+01 2.975278e+01 3.131357e+00 3.520018e+00 -1.669670e+00 -1.938812e-01 -6.861444e-01 -1.097369e-01 -9.975784e-02 6.400621e-02 1.555036e-01 1.197273e-01 3.869363e-01 -1.793739e-02 
7.459183e-01 -4.475472e-01 1.392059e+00 -2.765528e-01 -2.196899e+01 4.825074e-01 -2.234925e-02 -2.232669e-01 -3.274311e-01 -7.516157e-01 -1.401008e-01 -2.128473e+00 1.282833e+00 -7.103347e+00 6.531523e+00 -1.062972e+01 1.127046e+00 1.197255e+01 2.630643e+01 1.964956e+01 5.361437e+00 3.140457e+00 2.316919e+01 3.215528e+01 1.154487e+01 -7.942883e+00 1.817776e+01 3.917681e+01 1.824110e+01 -6.049446e+00 8.500247e+00 3.019889e+01 2.060110e+01 3.606106e+00 2.684716e+00 1.637844e+01 2.572593e+01 2.151933e+01 4.850030e+00 -1.794055e+00 2.521911e+01 4.107544e+01 1.401790e+01 -9.922955e+00 1.444760e+01 3.785647e+01 2.027983e+01 -4.524680e-01 4.029236e+00 3.056058e+01 2.132609e+01 2.762988e+01 9.445509e-01 2.578369e+00 -1.720863e+00 -3.792011e-01 -6.093063e-01 -1.836720e-01 -7.548655e-02 1.644394e-02 1.284059e-01 7.655653e-02 3.033647e-01 -3.058253e-02 
5.274074e-01 -3.035659e-01 9.141310e-01 -1.064426e-01 -1.396953e+01 2.910987e-01 4.030634e-02 9.270200e-03 -1.003363e-01 1.586653e-01 -1.487590e-01 1.236065e+00 -9.581435e-01 5.312701e+00 -5.067378e+00 8.186060e+00 -4.613913e-01 -1.189465e+01 -2.145141e+01 -1.719754e+01 -3.045414e+00 -3.878581e+00 -1.854714e+01 -2.609088e+01 -7.520369e+00 5.687679e+00 -1.472561e+01 -3.119852e+01 -1.275868e+01 5.066187e+00 -6.954921e+00 -2.412619e+01 -1.513949e+01 -1.886659e+00 -2.172648e+00 -1.356593e+01 -1.993029e+01 -1.545200e+01 -3.286315e+00 9.744583e-01 -2.054500e+01 -3.119985e+01 -1.015742e+01 8.518414e+00 -1.231981e+01 -2.936139e+01 -1.546798e+01 1.921851e+00 -3.874869e+00 -2.370965e+01 -1.641134e+01 -1.926317e+01 -5.911279e-01 -1.278892e+00 1.187116e+00 5.457239e-01 4.840048e-01 3.217606e-01 1.882438e-01 1.554440e-01 1.466011e-01 8.874009e-02 2.255495e-01 -2.510164e-02 
2.803315e-01 -1.464264e-01 3.962221e-01 6.355260e-02 -5.989208e+00 7.009189e-02 2.462472e-02 1.021942e-01 2.539740e-02 4.562156e-01 -1.189041e-01 2.136805e+00 -1.683827e+00 8.662930e+00 -8.174258e+00 1.147712e+01 8.197932e-01 -1.120279e+01 -3.196400e+01 -2.902336e+01 -7.451672e+00 -1.936561e+00 -2.468613e+01 -3.929288e+01 -1.651815e+01 8.997098e+00 -1.633877e+01 -4.299411e+01 -2.560466e+01 3.207154e+00 -6.045969e+00 -3.032472e+01 -2.665800e+01 -9.465784e+00 -1.939817e+00 -1.485279e+01 -2.977571e+01 -2.857181e+01 -7.438157e+00 4.500244e+00 -2.561069e+01 -4.677289e+01 -2.100260e+01 1.030303e+01 -1.195883e+01 -3.909116e+01 -2.817038e+01 -4.135537e+00 -1.746695e+00 -2.959660e+01 -2.594095e+01 -3.301864e+01 -2.683155e+00 -3.308919e+00 1.934529e+00 5.711894e-01 8.065245e-01 3.791838e-01 2.585156e-01 1.509117e-01 1.197021e-01 5.889763e-02 1.307754e-01 -2.566454e-02 
4.310636e-02 -2.442914e-02 -7.529858e-02 1.680339e-01 2.074889e+00 -4.576552e-02 3.361617e-03 2.482369e-01 3.570393e-02 4.414782e-01 -1.487626e-01 8.082240e-01 -6.627788e-01 2.012655e+00 -2.414921e+00 2.041733e+00 1.487408e+00 -6.537791e-01 -8.559898e+00 -8.268692e+00 -2.197156e+00 -6.183638e-02 -5.842346e+00 -9.095556e+00 -4.803466e+00 1.274773e+00 -3.366948e+00 -8.015326e+00 -7.541683e+00 -1.494146e+00 -6.976706e-01 -4.676917e+00 -7.550915e+00 -4.976111e+00 2.243904e-01 -1.927771e+00 -7.474043e+00 -8.301085e+00 -1.701931e+00 1.027093e+00 -5.719047e+00 -9.485346e+00 -6.015371e+00 4.628065e-01 -1.914852e+00 -6.572090e+00 -7.640511e+00 -4.114230e+00 7.888637e-01 -3.586107e+00 -6.677555e+00 -6.993640e+00 -1.903097e+00 -2.106245e+00 3.548637e-01 -3.517718e-01 3.850688e-01 -6.578956e-03 1.884457e-01 2.332424e-02 7.576439e-02 2.619327e-03 3.542546e-02 -3.393128e-02 
-2.118311e-01 1.032342e-01 -5.682025e-01 2.799552e-01 1.007573e+01 -2.248571e-01 -1.218565e-02 3.339012e-01 1.183711e-01 5.238035e-01 -1.018891e-01 4.185840e-01 -2.786216e-01 -6.082745e-01 4.618448e-02 -1.855640e+00 1.317005e+00 1.972295e+00 -3.715095e-01 -5.160599e-01 -4.782257e-01 2.642331e-02 9.548827e-02 3.830328e-01 -8.919165e-01 -1.535351e+00 6.585208e-01 1.780256e+00 -1.212200e+00 -2.175859e+00 7.658368e-01 2.018973e+00 -8.697101e-01 -1.824787e+00 5.593449e-01 1.117351e+00 -3.228889e-01 -6.207572e-01 -1.011487e-01 -6.971809e-01 3.580292e-01 1.383234e+00 -1.084223e+00 -2.387449e+00 9.802089e-01 1.991653e+00 -8.435822e-01 -2.529064e+00 1.081653e+00 2.473321e+00 -4.490762e-01 1.143475e+00 -9.696116e-01 -8.917083e-01 -9.429183e-02 -5.096305e-01 1.749830e-01 -1.573117e-01 1.078612e-01 -5.995997e-02 6.676634e-03 -5.128883e-02 -7.639297e-02 -4.266002e-02 