# vtk DataFile Version 2.0
Comment goes here
ASCII

DATASET STRUCTURED_POINTS
FIELD FieldData 1
TIME 1 1 double
0.00200000
DIMENSIONS    64   64   1

ORIGIN    0.000   0.000   0.000
SPACING   0.03125 0.03125   1.000

POINT_DATA   4096
SCALARS uX double
LOOKUP_TABLE default

-5.593410e-02 7.628340e-02 -6.181693e-02 8.139821e-02 -5.511643e-02 7.210191e-02 -5.801023e-02 7.280392e-02 -5.263907e-02 5.314273e-02 -2.965300e-02 2.815142e-02 -9.749076e-03 9.320406e-03 4.169405e-03 -3.491584e-03 1.107636e-02 -9.597074e-03 1.266394e-02 -1.225984e-02 1.305341e-02 -1.550706e-02 1.525965e-02 -1.934713e-02 1.606836e-02 -2.142691e-02 1.618224e-02 -2.324899e-02 1.642043e-02 -2.470717e-02 1.640058e-02 -2.573955e-02 1.623527e-02 -2.651804e-02 1.613125e-02 -2.692690e-02 1.613739e-02 -2.711975e-02 1.610074e-02 -2.697545e-02 1.592054e-02 -2.658108e-02 1.558484e-02 -2.587595e-02 1.493932e-02 -2.511006e-02 1.431166e-02 -2.398284e-02 1.291695e-02 -2.290454e-02 1.164685e-02 -2.194886e-02 8.954927e-03 -1.951965e-02 4.182610e-03 -1.662023e-02 -3.940903e-04 -1.502653e-02 -4.175193e-03 -1.396101e-02 -8.985211e-03 -1.054522e-02 -2.338066e-02 1.623201e-02 
-3.504336e-02 6.415042e-02 -8.053429e-02 7.676212e-02 -9.160064e-02 7.651081e-02 -7.134602e-02 4.835535e-02 -4.543717e-02 2.929627e-02 -2.974753e-02 1.425811e-02 -1.515679e-02 7.941616e-04 -4.258739e-03 -8.079793e-03 3.055018e-03 -1.333086e-02 7.689714e-03 -1.597112e-02 1.039682e-02 -1.767027e-02 1.247256e-02 -1.960841e-02 1.485671e-02 -2.073218e-02 1.622029e-02 -2.134080e-02 1.753373e-02 -2.183217e-02 1.818133e-02 -2.207366e-02 1.890018e-02 -2.232322e-02 1.933666e-02 -2.248874e-02 1.958740e-02 -2.244912e-02 1.960802e-02 -2.230539e-02 1.941057e-02 -2.195233e-02 1.888789e-02 -2.141793e-02 1.839293e-02 -2.076230e-02 1.756202e-02 -1.958194e-02 1.629443e-02 -1.806831e-02 1.515123e-02 -1.619106e-02 1.356447e-02 -1.297563e-02 1.112338e-02 -8.886894e-03 8.534722e-03 -4.739572e-03 5.901419e-03 6.830585e-04 9.978615e-04 1.074774e-02 -6.506074e-03 1.679557e-02 
4.341896e-03 9.829749e-03 -2.433703e-02 1.772283e-02 -3.526555e-02 2.234289e-02 -2.133780e-02 5.150183e-03 -3.165490e-03 1.529059e-03 1.871591e-03 1.875873e-03 7.529682e-03 9.496544e-05 1.285273e-02 -1.483795e-03 1.835977e-02 -3.657242e-03 2.358993e-02 -5.436823e-03 2.758675e-02 -6.160640e-03 2.963696e-02 -6.176925e-03 3.195483e-02 -6.456199e-03 3.372591e-02 -6.549549e-03 3.517737e-02 -6.601719e-03 3.619405e-02 -6.637270e-03 3.706338e-02 -6.622445e-03 3.756316e-02 -6.642803e-03 3.771717e-02 -6.548519e-03 3.762215e-02 -6.481630e-03 3.732225e-02 -6.378233e-03 3.676706e-02 -6.249823e-03 3.611875e-02 -5.933860e-03 3.500577e-02 -5.462122e-03 3.374067e-02 -4.645010e-03 3.203566e-02 -3.412701e-03 3.030844e-02 -2.026072e-03 2.856541e-02 -1.863957e-04 2.596227e-02 2.654892e-03 2.203214e-02 7.086992e-03 1.602493e-02 1.425774e-02 1.162728e-02 9.496285e-03 
-4.766806e-03 -2.214523e-02 -2.511747e-03 -2.597868e-02 -3.825256e-02 -2.599552e-02 -1.142845e-02 -9.845940e-03 -1.122790e-03 -3.349362e-03 1.015439e-02 2.975829e-04 1.688124e-02 3.795721e-03 2.244837e-02 5.134230e-03 2.744582e-02 5.024235e-03 3.212385e-02 4.122602e-03 3.616344e-02 3.482832e-03 3.910778e-02 3.524108e-03 4.088953e-02 3.342424e-03 4.260272e-02 3.062478e-03 4.375712e-02 2.873690e-03 4.484699e-02 2.672542e-03 4.546130e-02 2.604739e-03 4.583998e-02 2.614291e-03 4.593661e-02 2.635319e-03 4.581858e-02 2.693873e-03 4.547549e-02 2.740281e-03 4.498062e-02 2.819839e-03 4.403805e-02 3.013680e-03 4.279067e-02 3.109733e-03 4.126625e-02 3.295341e-03 3.894167e-02 3.598677e-03 3.605177e-02 3.374049e-03 3.264133e-02 3.056085e-03 2.778677e-02 3.415974e-03 2.066426e-02 3.854417e-03 1.177449e-02 2.010990e-03 -9.697961e-04 6.261847e-03 
5.997321e-03 -1.533086e-02 1.273537e-03 -1.886614e-02 -3.277675e-02 -1.889122e-02 -3.518180e-03 -9.362837e-03 8.123902e-03 -4.655228e-03 1.728758e-02 -1.258812e-03 2.275516e-02 1.841666e-03 2.725547e-02 3.314035e-03 3.137039e-02 3.599655e-03 3.526837e-02 3.207419e-03 3.863083e-02 2.903324e-03 4.118777e-02 2.937531e-03 4.290873e-02 2.863788e-03 4.443430e-02 2.721525e-03 4.553016e-02 2.611793e-03 4.646943e-02 2.497636e-03 4.704984e-02 2.449551e-03 4.739586e-02 2.450040e-03 4.749140e-02 2.455813e-03 4.737627e-02 2.481407e-03 4.705192e-02 2.500990e-03 4.655081e-02 2.543089e-03 4.570832e-02 2.644549e-03 4.458965e-02 2.713624e-03 4.317960e-02 2.838905e-03 4.121132e-02 3.018178e-03 3.878666e-02 2.913950e-03 3.587799e-02 2.779495e-03 3.191029e-02 3.029181e-03 2.640420e-02 3.190829e-03 1.976616e-02 1.445505e-03 1.102291e-02 1.720467e-03 
6.147335e-03 -1.200559e-02 1.114074e-03 -1.563958e-02 -1.255719e-02 -1.542531e-02 -6.248153e-04 -9.256101e-03 8.154713e-03 -4.526612e-03 1.586674e-02 -1.175769e-03 2.174286e-02 1.373639e-03 2.656591e-02 2.784012e-03 3.075239e-02 3.260829e-03 3.446425e-02 3.183509e-03 3.762384e-02 3.018970e-03 4.009549e-02 2.977346e-03 4.191141e-02 2.887307e-03 4.337747e-02 2.753683e-03 4.448774e-02 2.632799e-03 4.536210e-02 2.525472e-03 4.594127e-02 2.470678e-03 4.627883e-02 2.458977e-03 4.638412e-02 2.468673e-03 4.627974e-02 2.497268e-03 4.596620e-02 2.531987e-03 4.543741e-02 2.583797e-03 4.460759e-02 2.661184e-03 4.347206e-02 2.714498e-03 4.198458e-02 2.765931e-03 3.997865e-02 2.780192e-03 3.743579e-02 2.598179e-03 3.425736e-02 2.319169e-03 3.009420e-02 2.068068e-03 2.469149e-02 1.504468e-03 1.824157e-02 -6.387047e-05 1.109218e-02 -2.395297e-03 
1.376075e-02 -8.943155e-03 6.575798e-03 -1.170699e-02 -7.371156e-03 -1.162129e-02 5.671141e-03 -7.911781e-03 1.493117e-02 -4.634511e-03 2.195565e-02 -1.946662e-03 2.702420e-02 2.387626e-04 3.106356e-02 1.595818e-03 3.454314e-02 2.220615e-03 3.763108e-02 2.377858e-03 4.027270e-02 2.402791e-03 4.238739e-02 2.447589e-03 4.400029e-02 2.446228e-03 4.529726e-02 2.402476e-03 4.629270e-02 2.351599e-03 4.706226e-02 2.300449e-03 4.758237e-02 2.272379e-03 4.788630e-02 2.266333e-03 4.798231e-02 2.269207e-03 4.788687e-02 2.280802e-03 4.760143e-02 2.293419e-03 4.712001e-02 2.315401e-03 4.639131e-02 2.349544e-03 4.540242e-02 2.374120e-03 4.411579e-02 2.395125e-03 4.243387e-02 2.384863e-03 4.032925e-02 2.254411e-03 3.771680e-02 2.047258e-03 3.436818e-02 1.791529e-03 3.011859e-02 1.192818e-03 2.506089e-02 -3.194089e-04 1.926356e-02 -2.687869e-03 
1.715304e-02 -7.814604e-03 1.334942e-02 -9.946937e-03 8.430590e-03 -9.903019e-03 1.332403e-02 -7.226181e-03 1.849530e-02 -4.321460e-03 2.340760e-02 -1.848464e-03 2.765083e-02 8.676990e-05 3.131375e-02 1.362701e-03 3.452716e-02 2.046250e-03 3.735051e-02 2.326062e-03 3.976587e-02 2.426409e-03 4.173205e-02 2.473054e-03 4.327679e-02 2.469627e-03 4.450150e-02 2.426079e-03 4.544796e-02 2.372167e-03 4.616586e-02 2.319801e-03 4.665648e-02 2.287439e-03 4.694356e-02 2.276067e-03 4.703504e-02 2.276965e-03 4.694377e-02 2.288304e-03 4.666596e-02 2.300424e-03 4.618895e-02 2.316029e-03 4.547674e-02 2.326689e-03 4.449938e-02 2.315180e-03 4.321529e-02 2.268000e-03 4.154681e-02 2.152455e-03 3.945015e-02 1.914402e-03 3.685342e-02 1.550492e-03 3.363707e-02 1.029905e-03 2.976301e-02 1.579124e-04 2.540709e-02 -1.371112e-03 2.095557e-02 -3.774237e-03 
2.320676e-02 -6.048556e-03 1.863608e-02 -7.674247e-03 1.330021e-02 -7.670829e-03 1.864470e-02 -6.029599e-03 2.397462e-02 -4.024657e-03 2.858012e-02 -2.132185e-03 3.232263e-02 -5.358125e-04 3.543152e-02 6.098902e-04 3.810759e-02 1.309175e-03 4.044012e-02 1.680647e-03 4.244150e-02 1.882413e-03 4.408880e-02 2.003828e-03 4.540777e-02 2.071068e-03 4.646173e-02 2.090558e-03 4.728113e-02 2.091674e-03 4.790453e-02 2.080186e-03 4.833106e-02 2.073183e-03 4.858467e-02 2.073706e-03 4.866466e-02 2.073878e-03 4.858748e-02 2.079171e-03 4.834691e-02 2.076471e-03 4.793649e-02 2.075546e-03 4.733449e-02 2.064091e-03 4.651293e-02 2.038170e-03 4.544727e-02 1.982593e-03 4.407911e-02 1.871717e-03 4.237969e-02 1.671534e-03 4.029176e-02 1.363527e-03 3.772695e-02 8.967741e-04 3.464086e-02 1.082591e-04 3.109488e-02 -1.228160e-03 2.720972e-02 -3.207017e-03 
2.815900e-02 -5.532524e-03 2.669617e-02 -6.721551e-03 2.607456e-02 -6.717617e-03 2.699783e-02 -5.424712e-03 2.909591e-02 -3.684710e-03 3.161805e-02 -1.983466e-03 3.413927e-02 -5.408270e-04 3.651119e-02 5.337992e-04 3.869201e-02 1.235453e-03 4.064480e-02 1.648116e-03 4.235710e-02 1.887574e-03 4.379005e-02 2.018856e-03 4.496219e-02 2.092081e-03 4.590378e-02 2.108847e-03 4.663675e-02 2.109993e-03 4.719689e-02 2.094132e-03 4.757524e-02 2.083212e-03 4.780391e-02 2.080889e-03 4.786871e-02 2.074814e-03 4.779433e-02 2.078557e-03 4.756491e-02 2.065371e-03 4.717571e-02 2.053202e-03 4.661104e-02 2.014354e-03 4.583342e-02 1.951518e-03 4.483041e-02 1.838418e-03 4.354313e-02 1.647203e-03 4.196458e-02 1.356449e-03 4.006909e-02 9.384324e-04 3.783758e-02 3.430680e-04 3.531623e-02 -5.316725e-04 3.266795e-02 -1.804270e-03 3.016989e-02 -3.514668e-03 
3.322012e-02 -4.370328e-03 3.146016e-02 -5.305582e-03 3.056936e-02 -5.317373e-03 3.163373e-02 -4.511215e-03 3.374306e-02 -3.302474e-03 3.606796e-02 -2.021688e-03 3.825493e-02 -8.597516e-04 4.023243e-02 7.038900e-05 4.201565e-02 7.255765e-04 4.358036e-02 1.153168e-03 4.496440e-02 1.442408e-03 4.611856e-02 1.614260e-03 4.708029e-02 1.743668e-03 4.786075e-02 1.797024e-03 4.846556e-02 1.844356e-03 4.894365e-02 1.855441e-03 4.925269e-02 1.866464e-03 4.945666e-02 1.881431e-03 4.950416e-02 1.873425e-03 4.945149e-02 1.885533e-03 4.926224e-02 1.857743e-03 4.894454e-02 1.846215e-03 4.849724e-02 1.793098e-03 4.786754e-02 1.731860e-03 4.708125e-02 1.625345e-03 4.605561e-02 1.447860e-03 4.481860e-02 1.196451e-03 4.334356e-02 8.385015e-04 4.160687e-02 3.237461e-04 3.962286e-02 -4.283893e-04 3.746778e-02 -1.494353e-03 3.527355e-02 -2.862944e-03 
3.861621e-02 -4.079564e-03 3.920034e-02 -4.756594e-03 4.109692e-02 -4.759085e-03 3.949793e-02 -4.070387e-03 3.927322e-02 -3.009271e-03 3.982985e-02 -1.859913e-03 4.077727e-02 -8.004375e-04 4.189983e-02 7.787559e-05 4.308498e-02 7.136699e-04 4.417962e-02 1.143396e-03 4.522771e-02 1.456936e-03 4.610888e-02 1.622727e-03 4.687815e-02 1.771005e-03 4.751468e-02 1.807243e-03 4.799839e-02 1.864828e-03 4.840968e-02 1.863527e-03 4.864370e-02 1.870387e-03 4.882813e-02 1.889466e-03 4.884154e-02 1.862844e-03 4.879994e-02 1.885736e-03 4.862364e-02 1.829298e-03 4.833792e-02 1.817045e-03 4.795831e-02 1.726002e-03 4.739284e-02 1.638106e-03 4.672979e-02 1.486939e-03 4.583073e-02 1.241474e-03 4.479591e-02 9.257325e-04 4.362073e-02 5.036867e-04 4.232785e-02 -6.442557e-05 4.099623e-02 -8.233997e-04 3.977838e-02 -1.799543e-03 3.889671e-02 -2.947336e-03 
4.293968e-02 -3.264481e-03 4.341466e-02 -3.818087e-03 4.517485e-02 -3.829176e-03 4.357814e-02 -3.395313e-03 4.329628e-02 -2.652371e-03 4.369401e-02 -1.792388e-03 4.439692e-02 -9.519221e-04 4.522778e-02 -1.941629e-04 4.614230e-02 3.695926e-04 4.690133e-02 7.640482e-04 4.771722e-02 1.119815e-03 4.834077e-02 1.267142e-03 4.893411e-02 1.492332e-03 4.943540e-02 1.509523e-03 4.977674e-02 1.633282e-03 5.015183e-02 1.630769e-03 5.027937e-02 1.655795e-03 5.048514e-02 1.712136e-03 5.044384e-02 1.652854e-03 5.045210e-02 1.731789e-03 5.030600e-02 1.622755e-03 5.008219e-02 1.658460e-03 4.984239e-02 1.530226e-03 4.937873e-02 1.470811e-03 4.895457e-02 1.339060e-03 4.824345e-02 1.097911e-03 4.749549e-02 8.278936e-04 4.665693e-02 4.702636e-04 4.573402e-02 -1.190951e-05 4.477577e-02 -6.511857e-04 4.387964e-02 -1.457842e-03 4.319638e-02 -2.379962e-03 
4.820840e-02 -3.081922e-03 5.039161e-02 -3.483355e-03 5.394766e-02 -3.485975e-03 5.062414e-02 -3.088437e-03 4.866962e-02 -2.422102e-03 4.765118e-02 -1.646512e-03 4.724032e-02 -8.789117e-04 4.722604e-02 -1.356308e-04 4.756837e-02 3.978863e-04 4.776106e-02 7.548331e-04 4.826511e-02 1.173895e-03 4.853959e-02 1.244110e-03 4.892681e-02 1.561766e-03 4.927825e-02 1.484297e-03 4.943245e-02 1.678379e-03 4.979954e-02 1.624715e-03 4.976175e-02 1.645270e-03 5.002317e-02 1.743594e-03 4.986935e-02 1.601348e-03 4.994014e-02 1.772032e-03 4.979170e-02 1.549044e-03 4.959398e-02 1.659477e-03 4.949123e-02 1.434492e-03 4.904986e-02 1.387850e-03 4.886496e-02 1.229668e-03 4.825405e-02 9.060097e-04 4.776755e-02 6.013050e-04 4.729002e-02 2.149919e-04 4.685676e-02 -2.810639e-04 4.656231e-02 -8.979389e-04 4.655244e-02 -1.623108e-03 4.702208e-02 -2.395488e-03 
5.192741e-02 -2.489671e-03 5.408387e-02 -2.831040e-03 5.758519e-02 -2.839385e-03 5.420777e-02 -2.588404e-03 5.217010e-02 -2.119308e-03 5.101507e-02 -1.543592e-03 5.041112e-02 -9.614117e-04 5.013953e-02 -4.444856e-04 5.006484e-02 2.790301e-06 5.016541e-02 3.646461e-04 5.030757e-02 6.195115e-04 5.051298e-02 8.420570e-04 5.069863e-02 9.711540e-04 5.086540e-02 1.107321e-03 5.102514e-02 1.170550e-03 5.111840e-02 1.238233e-03 5.122770e-02 1.270062e-03 5.125837e-02 1.269842e-03 5.130394e-02 1.285372e-03 5.127498e-02 1.244463e-03 5.122920e-02 1.242890e-03 5.114165e-02 1.180632e-03 5.099367e-02 1.140657e-03 5.085027e-02 1.044933e-03 5.064023e-02 9.245327e-04 5.046799e-02 7.768229e-04 5.026294e-02 5.469387e-04 5.005459e-02 2.265630e-04 4.989641e-02 -1.904576e-04 4.986645e-02 -7.065803e-04 5.007850e-02 -1.305827e-03 5.069251e-02 -1.934561e-03 
5.680349e-02 -2.369329e-03 6.020993e-02 -2.617767e-03 6.493764e-02 -2.619542e-03 6.038143e-02 -2.375254e-03 5.713013e-02 -1.944201e-03 5.486513e-02 -1.425138e-03 5.330695e-02 -9.330627e-04 5.219555e-02 -6.672503e-04 5.114505e-02 -2.702992e-04 5.103087e-02 1.603955e-04 5.048971e-02 1.054326e-04 5.062183e-02 6.178066e-04 5.047845e-02 3.439444e-04 5.034420e-02 8.659256e-04 5.056831e-02 6.294157e-04 5.015723e-02 8.994066e-04 5.058023e-02 9.200856e-04 5.015757e-02 6.964783e-04 5.058440e-02 1.001393e-03 5.032389e-02 5.195747e-04 5.042648e-02 9.349467e-04 5.047838e-02 5.033016e-04 5.013535e-02 7.945150e-04 5.045007e-02 5.522252e-04 5.003146e-02 4.394967e-04 5.055261e-02 5.515628e-04 5.073022e-02 3.584751e-04 5.091499e-02 3.603620e-05 5.124677e-02 -3.768767e-04 5.184370e-02 -8.641623e-04 5.284685e-02 -1.399425e-03 5.443060e-02 -1.929556e-03 
5.999352e-02 -1.928653e-03 6.340831e-02 -2.147763e-03 6.812377e-02 -2.153646e-03 6.349757e-02 -1.999566e-03 6.016135e-02 -1.692866e-03 5.778513e-02 -1.301268e-03 5.609305e-02 -9.056142e-04 5.485438e-02 -6.303585e-04 5.380167e-02 -2.838297e-04 5.338785e-02 7.087925e-05 5.282411e-02 1.400498e-04 5.270252e-02 5.105059e-04 5.247657e-02 4.285668e-04 5.229327e-02 7.778570e-04 5.233909e-02 6.919586e-04 5.205414e-02 8.773020e-04 5.225466e-02 9.120299e-04 5.200137e-02 7.999446e-04 5.223767e-02 9.740694e-04 5.210454e-02 7.018281e-04 5.218810e-02 9.236724e-04 5.225867e-02 6.665516e-04 5.212750e-02 8.049970e-04 5.238850e-02 6.363627e-04 5.227334e-02 5.298921e-04 5.272534e-02 5.378772e-04 5.303369e-02 3.564680e-04 5.340202e-02 7.950949e-05 5.393053e-02 -2.698930e-04 5.471501e-02 -6.788310e-04 5.587532e-02 -1.124302e-03 5.756765e-02 -1.562780e-03 
6.436498e-02 -1.848078e-03 6.870705e-02 -2.007668e-03 7.429445e-02 -2.008440e-03 6.883377e-02 -1.848831e-03 6.460440e-02 -1.554326e-03 6.137239e-02 -1.176802e-03 5.892688e-02 -7.609833e-04 5.710459e-02 -2.903599e-04 5.586608e-02 6.957259e-05 5.472828e-02 3.348237e-04 5.409400e-02 7.035070e-04 5.344387e-02 7.782952e-04 5.307028e-02 1.094784e-03 5.281422e-02 1.053088e-03 5.250735e-02 1.260541e-03 5.251101e-02 1.235333e-03 5.224504e-02 1.270901e-03 5.234904e-02 1.369480e-03 5.216043e-02 1.238464e-03 5.226596e-02 1.387828e-03 5.225926e-02 1.168667e-03 5.230260e-02 1.251460e-03 5.253898e-02 1.023007e-03 5.258426e-02 9.594981e-04 5.300475e-02 7.998174e-04 5.319536e-02 5.022952e-04 5.368567e-02 2.450039e-04 5.439289e-02 -5.243793e-05 5.537156e-02 -3.983028e-04 5.671880e-02 -7.823859e-04 5.856058e-02 -1.180843e-03 6.104987e-02 -1.553960e-03 
6.707074e-02 -1.514409e-03 7.143218e-02 -1.659976e-03 7.702517e-02 -1.663852e-03 7.149726e-02 -1.563342e-03 6.719258e-02 -1.351336e-03 6.387110e-02 -1.063034e-03 6.132166e-02 -7.295015e-04 5.938358e-02 -3.378597e-04 5.799979e-02 -2.782987e-05 5.676069e-02 2.123178e-04 5.598426e-02 5.406851e-04 5.524206e-02 6.315468e-04 5.476688e-02 9.169364e-04 5.442425e-02 9.084062e-04 5.407271e-02 1.098734e-03 5.400149e-02 1.096452e-03 5.373580e-02 1.140773e-03 5.379238e-02 1.233380e-03 5.363268e-02 1.135744e-03 5.373389e-02 1.261687e-03 5.376697e-02 1.083878e-03 5.386566e-02 1.146874e-03 5.414806e-02 9.536902e-04 5.430314e-02 8.918476e-04 5.479254e-02 7.485264e-04 5.512663e-02 4.883772e-04 5.574439e-02 2.615643e-04 5.658924e-02 4.912700e-06 5.770863e-02 -2.897771e-04 5.918771e-02 -6.145280e-04 6.114009e-02 -9.497492e-04 6.370923e-02 -1.263593e-03 
7.089953e-02 -1.461341e-03 7.595895e-02 -1.567118e-03 8.218985e-02 -1.567041e-03 7.605469e-02 -1.457317e-03 7.108129e-02 -1.247496e-03 6.709316e-02 -9.667923e-04 6.392367e-02 -6.437480e-04 6.142973e-02 -2.981413e-04 5.949516e-02 7.709261e-06 5.792199e-02 2.708606e-04 5.673607e-02 5.311821e-04 5.576823e-02 6.967839e-04 5.504468e-02 8.867705e-04 5.449544e-02 9.686578e-04 5.405584e-02 1.082646e-03 5.378613e-02 1.123658e-03 5.353958e-02 1.162495e-03 5.344846e-02 1.200829e-03 5.335961e-02 1.171206e-03 5.340491e-02 1.186922e-03 5.349544e-02 1.100060e-03 5.367417e-02 1.059343e-03 5.398218e-02 9.269885e-04 5.434290e-02 8.091777e-04 5.489953e-02 6.428320e-04 5.553808e-02 4.128024e-04 5.642416e-02 1.716936e-04 5.759934e-02 -9.247569e-05 5.912773e-02 -3.814924e-04 6.109930e-02 -6.862112e-04 6.362677e-02 -9.875733e-04 6.684330e-02 -1.257340e-03 
7.314809e-02 -1.205403e-03 7.822466e-02 -1.305076e-03 8.446426e-02 -1.307451e-03 7.827358e-02 -1.238626e-03 7.324053e-02 -1.086126e-03 6.918502e-02 -8.700496e-04 6.593892e-02 -6.114999e-04 6.335835e-02 -3.284472e-04 6.132332e-02 -6.742812e-05 5.967063e-02 1.662063e-04 5.838991e-02 3.950718e-04 5.735169e-02 5.578920e-04 5.655647e-02 7.292464e-04 5.594576e-02 8.235990e-04 5.546707e-02 9.308850e-04 5.515022e-02 9.840932e-04 5.489442e-02 1.029393e-03 5.477973e-02 1.067986e-03 5.470586e-02 1.056194e-03 5.475709e-02 1.066258e-03 5.487761e-02 1.002985e-03 5.509772e-02 9.614194e-04 5.544767e-02 8.534669e-04 5.588323e-02 7.471515e-04 5.650314e-02 6.013058e-04 5.724401e-02 4.055280e-04 5.822801e-02 1.965062e-04 5.950189e-02 -3.163237e-05 6.112702e-02 -2.795819e-04 6.318707e-02 -5.397323e-04 6.578808e-02 -7.965504e-04 6.905845e-02 -1.027411e-03 
7.643096e-02 -1.172802e-03 8.203949e-02 -1.244936e-03 8.875547e-02 -1.244258e-03 8.211370e-02 -1.165927e-03 7.657286e-02 -1.011576e-03 7.199526e-02 -7.991491e-04 6.824493e-02 -5.490891e-04 6.519551e-02 -2.825324e-04 6.273010e-02 -2.783126e-05 6.072843e-02 2.052650e-04 5.912777e-02 4.184191e-04 5.784098e-02 5.908862e-04 5.682826e-02 7.433110e-04 5.603926e-02 8.513996e-04 5.543181e-02 9.432629e-04 5.499347e-02 1.001381e-03 5.467868e-02 1.041468e-03 5.449981e-02 1.064703e-03 5.442189e-02 1.057809e-03 5.446835e-02 1.041010e-03 5.462532e-02 9.852957e-04 5.490788e-02 9.174172e-04 5.533454e-02 8.111486e-04 5.590562e-02 6.857198e-04 5.666905e-02 5.278400e-04 5.763325e-02 3.343897e-04 5.887356e-02 1.214532e-04 6.045254e-02 -1.076507e-04 6.244071e-02 -3.489590e-04 6.492387e-02 -5.933674e-04 6.800389e-02 -8.258699e-04 7.179706e-02 -1.026455e-03 
7.823862e-02 -9.746879e-04 8.385426e-02 -1.045003e-03 9.057324e-02 -1.046330e-03 8.389211e-02 -9.976126e-04 7.831087e-02 -8.845181e-04 7.368949e-02 -7.195640e-04 6.989063e-02 -5.180219e-04 6.678758e-02 -2.970368e-04 6.426453e-02 -7.965458e-05 6.220859e-02 1.248448e-04 6.055305e-02 3.154848e-04 5.921830e-02 4.756976e-04 5.816157e-02 6.185304e-04 5.733523e-02 7.258637e-04 5.669957e-02 8.170854e-04 5.623790e-02 8.796482e-04 5.591194e-02 9.247032e-04 5.572626e-02 9.529729e-04 5.565393e-02 9.547819e-04 5.571101e-02 9.441520e-04 5.588865e-02 9.003852e-04 5.619994e-02 8.423302e-04 5.666163e-02 7.516158e-04 5.727899e-02 6.419696e-04 5.809275e-02 5.040261e-04 5.911826e-02 3.359297e-04 6.042174e-02 1.505760e-04 6.206327e-02 -4.835067e-05 6.411048e-02 -2.571655e-04 6.664550e-02 -4.682443e-04 6.976672e-02 -6.692817e-04 7.358844e-02 -8.440717e-04 
8.098785e-02 -9.584423e-04 8.701273e-02 -1.009144e-03 9.409260e-02 -1.008096e-03 8.707162e-02 -9.505908e-04 8.110111e-02 -8.337620e-04 7.607004e-02 -6.691680e-04 7.186525e-02 -4.709521e-04 6.837726e-02 -2.550950e-04 6.550132e-02 -4.178261e-05 6.313385e-02 1.595970e-04 6.120559e-02 3.463320e-04 5.963969e-02 5.050243e-04 5.838811e-02 6.441787e-04 5.740152e-02 7.503653e-04 5.663867e-02 8.376169e-04 5.607728e-02 8.971378e-04 5.568186e-02 9.372883e-04 5.545021e-02 9.587098e-04 5.535978e-02 9.543127e-04 5.542128e-02 9.340167e-04 5.562960e-02 8.826972e-04 5.599749e-02 8.138829e-04 5.654248e-02 7.144748e-04 5.727600e-02 5.947159e-04 5.823778e-02 4.484314e-04 5.945231e-02 2.754734e-04 6.098428e-02 8.739350e-05 6.289656e-02 -1.106032e-04 6.525871e-02 -3.133027e-04 6.815160e-02 -5.124021e-04 7.166787e-02 -6.960532e-04 7.591014e-02 -8.497743e-04 
8.236379e-02 -8.042418e-04 8.838066e-02 -8.555785e-04 9.545230e-02 -8.562265e-04 8.841057e-02 -8.210095e-04 8.242124e-02 -7.348020e-04 7.737139e-02 -6.056957e-04 7.314648e-02 -4.440133e-04 6.963678e-02 -2.620488e-04 6.673862e-02 -7.901482e-05 6.434614e-02 9.732635e-05 6.239543e-02 2.663146e-04 6.080687e-02 4.108743e-04 5.953629e-02 5.433057e-04 5.853402e-02 6.442367e-04 5.775811e-02 7.319384e-04 5.718985e-02 7.927109e-04 5.678917e-02 8.367944e-04 5.655944e-02 8.644222e-04 5.647260e-02 8.658074e-04 5.654435e-02 8.551847e-04 5.676605e-02 8.120767e-04 5.715174e-02 7.559025e-04 5.771993e-02 6.687032e-04 5.847833e-02 5.650896e-04 5.947059e-02 4.369114e-04 6.071455e-02 2.836009e-04 6.227742e-02 1.182332e-04 6.421898e-02 -5.516247e-05 6.660615e-02 -2.324624e-04 6.951773e-02 -4.067709e-04 7.304492e-02 -5.682305e-04 7.729004e-02 -7.048737e-04 
8.459768e-02 -8.020126e-04 9.093112e-02 -8.390269e-04 9.827859e-02 -8.377932e-04 9.097892e-02 -7.946139e-04 8.468980e-02 -7.037476e-04 7.931848e-02 -5.728404e-04 7.476873e-02 -4.104850e-04 7.094694e-02 -2.251391e-04 6.776404e-02 -4.381971e-05 6.510007e-02 1.285562e-04 6.292105e-02 3.022756e-04 6.112406e-02 4.386900e-04 5.968298e-02 5.780054e-04 5.854003e-02 6.682614e-04 5.764407e-02 7.596955e-04 5.699510e-02 8.122633e-04 5.652128e-02 8.518341e-04 5.625938e-02 8.785360e-04 5.614573e-02 8.667154e-04 5.622741e-02 8.580492e-04 5.647432e-02 7.975964e-04 5.691000e-02 7.409452e-04 5.756187e-02 6.381593e-04 5.841812e-02 5.302433e-04 5.955376e-02 3.957087e-04 6.095394e-02 2.316927e-04 6.271470e-02 6.326670e-05 6.489073e-02 -1.088328e-04 6.754596e-02 -2.812222e-04 7.075598e-02 -4.468562e-04 7.460590e-02 -5.961341e-04 7.918783e-02 -7.181120e-04 
8.554595e-02 -6.817900e-04 9.185244e-02 -7.209787e-04 9.917651e-02 -7.212293e-04 9.187646e-02 -6.954342e-04 8.559203e-02 -6.280198e-04 8.022827e-02 -5.244355e-04 7.568706e-02 -3.903159e-04 7.187441e-02 -2.281572e-04 6.870701e-02 -7.170027e-05 6.604193e-02 7.714155e-05 6.387563e-02 2.415615e-04 6.207745e-02 3.581673e-04 6.064272e-02 4.995728e-04 5.950643e-02 5.758338e-04 5.860898e-02 6.737134e-04 5.797421e-02 7.224620e-04 5.749547e-02 7.653367e-04 5.724972e-02 8.021160e-04 5.713268e-02 7.888396e-04 5.722774e-02 7.987053e-04 5.747947e-02 7.368382e-04 5.792105e-02 7.005025e-04 5.858803e-02 6.022136e-04 5.944382e-02 5.127797e-04 6.059675e-02 3.949426e-04 6.199194e-02 2.433437e-04 6.375442e-02 9.393492e-05 6.592908e-02 -5.804961e-05 6.857743e-02 -2.107263e-04 7.177439e-02 -3.581180e-04 7.560524e-02 -4.919634e-04 8.016310e-02 -6.029158e-04 
8.728402e-02 -6.924305e-04 9.383563e-02 -7.208888e-04 1.013713e-01 -7.195995e-04 9.387551e-02 -6.863624e-04 8.736057e-02 -6.138101e-04 8.174527e-02 -5.079935e-04 7.694419e-02 -3.730378e-04 7.287768e-02 -1.912002e-04 6.950780e-02 -3.693999e-05 6.658131e-02 9.614396e-05 6.425445e-02 2.954896e-04 6.225251e-02 3.694405e-04 6.067969e-02 5.608503e-04 5.943155e-02 5.849754e-04 5.840248e-02 7.206043e-04 5.773774e-02 7.403803e-04 5.714877e-02 7.792303e-04 5.692028e-02 8.368661e-04 5.673633e-02 7.759592e-04 5.686830e-02 8.338390e-04 5.713023e-02 7.086996e-04 5.760634e-02 7.141139e-04 5.837685e-02 5.669836e-04 5.928088e-02 4.923763e-04 6.060516e-02 3.724714e-04 6.209500e-02 1.923366e-04 6.402984e-02 4.283076e-05 6.640571e-02 -1.067509e-04 6.927845e-02 -2.558715e-04 7.272049e-02 -3.976367e-04 7.681199e-02 -5.234812e-04 8.163770e-02 -6.244905e-04 
8.780457e-02 -5.989842e-04 9.430678e-02 -6.307224e-04 1.018004e-01 -6.307756e-04 9.432657e-02 -6.115179e-04 8.784201e-02 -5.574441e-04 8.226253e-02 -4.737433e-04 7.749902e-02 -3.646869e-04 7.346672e-02 -2.158845e-04 7.011844e-02 -8.415281e-05 6.723888e-02 3.392224e-05 6.493380e-02 2.059540e-04 6.297238e-02 2.806313e-04 6.142315e-02 4.483915e-04 6.019371e-02 4.845706e-04 5.919279e-02 6.072035e-04 5.852824e-02 6.367692e-04 5.796876e-02 6.781332e-04 5.773498e-02 7.308325e-04 5.757609e-02 6.874077e-04 5.770402e-02 7.347328e-04 5.797292e-02 6.360526e-04 5.845065e-02 6.380905e-04 5.920385e-02 5.180859e-04 6.011217e-02 4.528550e-04 6.140854e-02 3.506451e-04 6.290201e-02 2.009101e-04 6.481927e-02 7.222995e-05 6.716553e-02 -6.022293e-05 7.000013e-02 -1.942494e-04 7.339721e-02 -3.229815e-04 7.743861e-02 -4.385554e-04 8.221126e-02 -5.329992e-04 
8.906521e-02 -6.222905e-04 9.575627e-02 -6.457205e-04 1.034117e-01 -6.444223e-04 9.579115e-02 -6.174659e-04 8.913157e-02 -5.571738e-04 8.335777e-02 -4.723181e-04 7.838501e-02 -3.824950e-04 7.411169e-02 -3.473246e-04 7.037242e-02 -2.271559e-04 6.746279e-02 -6.180299e-05 6.483303e-02 -5.375355e-05 6.285459e-02 1.826134e-04 6.113201e-02 1.320649e-04 5.973488e-02 3.803075e-04 5.876138e-02 3.395009e-04 5.781193e-02 4.793522e-04 5.741564e-02 5.137038e-04 5.692798e-02 4.428049e-04 5.697465e-02 5.559022e-04 5.697687e-02 3.606455e-04 5.733169e-02 4.890793e-04 5.789418e-02 2.896868e-04 5.855207e-02 3.531091e-04 5.972325e-02 2.124660e-04 6.091583e-02 1.213978e-04 6.279094e-02 1.223583e-04 6.490399e-02 2.248814e-05 6.742385e-02 -1.051077e-04 7.044167e-02 -2.378493e-04 7.403558e-02 -3.643070e-04 7.828395e-02 -4.756293e-04 8.326702e-02 -5.639008e-04 
8.915443e-02 -5.503848e-04 9.576980e-02 -5.780446e-04 1.033612e-01 -5.779938e-04 9.578722e-02 -5.624584e-04 8.918680e-02 -5.165332e-04 8.348074e-02 -4.484395e-04 7.857968e-02 -3.788236e-04 7.437489e-02 -3.768007e-04 7.068022e-02 -2.737724e-04 6.786121e-02 -1.150616e-04 6.527245e-02 -1.413279e-04 6.337008e-02 1.099175e-04 6.169171e-02 2.265825e-05 6.032974e-02 2.982177e-04 5.940948e-02 2.334576e-04 5.845899e-02 3.905789e-04 5.811621e-02 4.273527e-04 5.761320e-02 3.439206e-04 5.770090e-02 4.860370e-04 5.768753e-02 2.641852e-04 5.804746e-02 4.343962e-04 5.860503e-02 2.167134e-04 5.922194e-02 3.178167e-04 6.039237e-02 1.786742e-04 6.152034e-02 1.019876e-04 6.338819e-02 1.374270e-04 6.545514e-02 5.431538e-05 6.791367e-02 -6.079969e-05 7.086037e-02 -1.830397e-04 7.437578e-02 -3.009722e-04 7.854079e-02 -4.062430e-04 8.343886e-02 -4.915034e-04 
8.995365e-02 -5.870702e-04 9.671267e-02 -6.080464e-04 1.044264e-01 -6.066784e-04 9.674562e-02 -5.819457e-04 9.001670e-02 -5.251400e-04 8.416912e-02 -4.416478e-04 7.912633e-02 -3.373421e-04 7.481171e-02 -2.076718e-04 7.116976e-02 -8.069502e-05 6.806459e-02 4.123621e-05 6.551245e-02 1.872840e-04 6.337096e-02 2.828828e-04 6.164332e-02 4.174523e-04 6.026043e-02 4.819445e-04 5.915776e-02 5.789125e-04 5.837004e-02 6.213853e-04 5.777411e-02 6.581441e-04 5.746640e-02 6.887648e-04 5.732105e-02 6.626099e-04 5.743689e-02 6.696337e-04 5.774593e-02 5.975879e-04 5.828625e-02 5.651005e-04 5.909983e-02 4.660967e-04 6.014445e-02 3.858101e-04 6.155041e-02 2.823648e-04 6.324921e-02 1.532416e-04 6.537131e-02 2.989481e-05 6.794406e-02 -9.829390e-05 7.102885e-02 -2.260833e-04 7.469625e-02 -3.460812e-04 7.902128e-02 -4.507932e-04 8.408131e-02 -5.331548e-04 
8.960460e-02 -5.329659e-04 9.625695e-02 -5.591956e-04 1.038803e-01 -5.590342e-04 9.627414e-02 -5.438303e-04 8.963713e-02 -4.978310e-04 8.389383e-02 -4.246987e-04 7.896402e-02 -3.254199e-04 7.477305e-02 -1.764232e-04 7.129191e-02 -5.544235e-05 6.825356e-02 4.680107e-05 6.583797e-02 2.277936e-04 6.375043e-02 2.779147e-04 6.211060e-02 4.640275e-04 6.080828e-02 4.731338e-04 5.973108e-02 6.106045e-04 5.904128e-02 6.260434e-04 5.842420e-02 6.667576e-04 5.819389e-02 7.320060e-04 5.800404e-02 6.709841e-04 5.815259e-02 7.443610e-04 5.843489e-02 6.210075e-04 5.894248e-02 6.454429e-04 5.976208e-02 5.069130e-04 6.071532e-02 4.525972e-04 6.211434e-02 3.532904e-04 6.367557e-02 1.925344e-04 6.569943e-02 6.842988e-05 6.817367e-02 -5.422622e-05 7.115194e-02 -1.761096e-04 7.470481e-02 -2.915928e-04 7.890999e-02 -3.939057e-04 8.384905e-02 -4.763483e-04 
8.995552e-02 -5.847484e-04 9.671445e-02 -6.055638e-04 1.044282e-01 -6.041143e-04 9.674805e-02 -5.785396e-04 9.002036e-02 -5.198311e-04 8.417558e-02 -4.318269e-04 7.913942e-02 -3.175843e-04 7.483895e-02 -1.740409e-04 7.121269e-02 -3.822065e-05 6.811328e-02 9.054144e-05 6.556651e-02 2.451053e-04 6.342491e-02 3.441098e-04 6.170015e-02 4.837996e-04 6.032142e-02 5.461642e-04 5.922161e-02 6.441630e-04 5.844039e-02 6.841974e-04 5.784429e-02 7.217606e-04 5.753849e-02 7.563265e-04 5.738812e-02 7.308895e-04 5.750275e-02 7.420919e-04 5.780893e-02 6.664579e-04 5.834807e-02 6.323179e-04 5.916378e-02 5.253316e-04 6.020423e-02 4.388389e-04 6.160494e-02 3.251737e-04 6.328414e-02 1.783634e-04 6.538803e-02 4.216406e-05 6.795224e-02 -9.185505e-05 7.103347e-02 -2.220807e-04 7.469935e-02 -3.431097e-04 7.902369e-02 -4.482725e-04 8.408337e-02 -5.308171e-04 
8.915808e-02 -5.458940e-04 9.577328e-02 -5.732846e-04 1.033646e-01 -5.730906e-04 9.579179e-02 -5.560392e-04 8.919363e-02 -5.063005e-04 8.349335e-02 -4.271384e-04 7.860945e-02 -3.217563e-04 7.446124e-02 -1.928247e-04 7.097072e-02 -6.388359e-05 6.802295e-02 6.324775e-05 6.559190e-02 2.015435e-04 6.357363e-02 3.097889e-04 6.194485e-02 4.312285e-04 6.064653e-02 5.085753e-04 5.962572e-02 5.947633e-04 5.888417e-02 6.449311e-04 5.834526e-02 6.857529e-04 5.804946e-02 7.166355e-04 5.792789e-02 7.097059e-04 5.803129e-02 7.103602e-04 5.832677e-02 6.596382e-04 5.883957e-02 6.183089e-04 5.959914e-02 5.328558e-04 6.059237e-02 4.482906e-04 6.189912e-02 3.420029e-04 6.350018e-02 2.109964e-04 6.549338e-02 8.111446e-05 6.792967e-02 -4.840175e-05 7.086895e-02 -1.755517e-04 7.438158e-02 -2.953521e-04 7.854538e-02 -4.014033e-04 8.344285e-02 -4.869795e-04 