# vtk DataFile Version 2.0
Comment goes here
ASCII

DATASET STRUCTURED_POINTS
FIELD FieldData 1
TIME 1 1 double
0.00400000
DIMENSIONS    64   64   1

ORIGIN    0.000   0.000   0.000
SPACING   0.03125 0.03125   1.000

POINT_DATA   4096
SCALARS Omega double
LOOKUP_TABLE default

-1.057613e-03 -6.897005e-05 -2.322934e-03 -2.491546e-03 -1.357154e-03 -1.580514e-03 -3.176064e-03 1.357150e-03 -4.717639e-03 3.284121e-03 -2.020427e-03 -1.026099e-03 1.572696e-03 -3.926203e-03 -1.922015e-03 -2.600770e-04 -3.161584e-04 1.015582e-03 3.718247e-03 -1.306247e-02 1.844927e-02 -3.820455e-03 -2.485744e-03 -3.537063e-04 8.620436e-03 4.994465e-03 -8.521394e-03 8.447350e-03 7.931269e-04 3.810566e-03 1.823121e-03 -4.864623e-04 2.068557e-03 6.569532e-03 -4.121285e-03 4.268895e-03 3.264331e-03 1.272595e-03 3.065032e-03 -4.450108e-03 6.204743e-03 4.744262e-03 -2.469195e-03 1.135407e-04 4.041704e-03 -8.231120e-04 1.183233e-03 -1.018215e-03 2.950497e-03 3.944759e-03 -3.432692e-03 6.859502e-04 -9.614835e-04 5.406562e-04 -1.721806e-03 -1.359505e-03 -1.058125e-03 -4.819291e-04 -3.352851e-03 4.770177e-04 -1.470916e-03 -8.468808e-04 -2.111894e-03 -2.976896e-04 
-3.471610e+00 6.048617e-01 1.418861e-01 4.567015e-01 -4.266676e-01 6.389287e-01 -1.171514e+00 1.611412e+00 -2.174150e+00 2.413168e+00 -2.822768e+00 2.421681e+00 -2.429294e+00 1.649727e+00 -1.780533e+00 1.216428e+00 -1.594595e+00 8.598813e-01 -1.333000e+00 4.626994e-01 -1.008153e+00 1.121996e-01 -7.583525e-01 -2.075008e-01 -6.874172e-01 -3.307139e-01 -7.018090e-01 -4.554123e-01 -7.818889e-01 -4.858471e-01 -8.589696e-01 -6.294523e-01 -9.293239e-01 -6.856955e-01 -9.823373e-01 -8.409476e-01 -1.059881e+00 -8.642875e-01 -1.135636e+00 -9.973357e-01 -1.193133e+00 -1.006390e+00 -1.283737e+00 -1.054051e+00 -1.402163e+00 -1.029144e+00 -1.486229e+00 -1.123165e+00 -1.527221e+00 -1.085827e+00 -1.636650e+00 -1.102507e+00 -1.723802e+00 -1.070369e+00 -1.881703e+00 -9.330496e-01 -2.028859e+00 -1.060560e+00 -1.518448e+00 -1.762215e+00 -1.267398e+00 -1.082143e+00 -3.588225e+00 1.661217e+00 
-9.962030e-01 6.645439e+00 -6.118703e+00 4.371766e+00 -2.869043e+00 3.987823e+00 -3.048466e+00 2.637562e+00 -2.804474e+00 1.485994e+00 -2.426119e+00 8.452741e-01 -2.688013e+00 8.021496e-01 -2.928938e+00 3.008747e-01 -2.585088e+00 -1.464763e-01 -2.304638e+00 -5.774683e-01 -2.106094e+00 -9.701966e-01 -1.880618e+00 -1.207417e+00 -1.763899e+00 -1.347302e+00 -1.679115e+00 -1.399434e+00 -1.692919e+00 -1.391383e+00 -1.702914e+00 -1.368134e+00 -1.654629e+00 -1.406268e+00 -1.595530e+00 -1.384811e+00 -1.573056e+00 -1.357539e+00 -1.557352e+00 -1.298245e+00 -1.512981e+00 -1.311894e+00 -1.482173e+00 -1.195796e+00 -1.514694e+00 -1.103627e+00 -1.471225e+00 -1.016908e+00 -1.444075e+00 -9.644202e-01 -1.387727e+00 -8.292959e-01 -1.373631e+00 -6.119322e-01 -1.345531e+00 -5.069103e-01 -1.157057e+00 -2.877098e-01 -1.493163e+00 5.901565e-01 -1.574099e+00 2.207596e-01 1.999834e+00 -3.906992e+00 
1.181407e-01 3.296481e+00 -3.163333e+00 2.236754e+00 -2.044187e-01 1.850665e+00 -1.352987e+00 1.057955e+00 -1.047326e+00 3.256718e-01 -7.364352e-01 -2.451017e-03 -9.403123e-01 1.137043e-01 -1.180592e+00 -6.414606e-02 -1.037538e+00 -2.299239e-01 -9.399784e-01 -3.805372e-01 -8.942391e-01 -5.178440e-01 -8.274271e-01 -5.801550e-01 -7.781488e-01 -6.300935e-01 -7.347866e-01 -6.328302e-01 -7.256764e-01 -6.253052e-01 -7.171429e-01 -5.863826e-01 -6.794336e-01 -5.969795e-01 -6.405321e-01 -5.564371e-01 -6.142949e-01 -5.401610e-01 -5.929768e-01 -4.848513e-01 -5.595285e-01 -4.906390e-01 -5.284964e-01 -4.223935e-01 -5.227288e-01 -3.808372e-01 -4.862270e-01 -3.182682e-01 -4.647211e-01 -2.992567e-01 -4.165046e-01 -2.270443e-01 -3.936960e-01 -1.212820e-01 -3.515194e-01 -9.223844e-02 -2.285868e-01 4.297789e-02 -4.918481e-01 6.181700e-01 -5.790343e-01 3.072992e-01 1.668227e+00 -2.294327e+00 
-7.272969e-04 5.445012e-03 -6.414771e-03 -1.080415e-01 -4.254997e+00 9.913752e-02 -9.903840e-04 4.659551e-04 -1.023338e-03 -1.724075e-05 -1.120837e-03 1.738005e-05 -1.507679e-03 -8.322099e-05 -1.589703e-03 -3.044258e-04 -1.443404e-03 -4.523433e-04 -1.240932e-03 -6.310369e-04 -1.198143e-03 -7.422375e-04 -1.117399e-03 -7.837006e-04 -1.069892e-03 -8.324786e-04 -1.009473e-03 -8.415453e-04 -9.996218e-04 -8.564212e-04 -9.682391e-04 -8.274600e-04 -9.361657e-04 -8.372246e-04 -8.885513e-04 -8.134694e-04 -8.671842e-04 -7.989914e-04 -8.271596e-04 -7.466643e-04 -7.905991e-04 -7.362638e-04 -7.448012e-04 -6.821547e-04 -7.109503e-04 -6.403920e-04 -6.588517e-04 -5.550674e-04 -6.251381e-04 -5.051403e-04 -5.693356e-04 -4.055824e-04 -5.063458e-04 -2.852774e-04 -4.368304e-04 -1.548828e-04 -3.122873e-04 -3.350678e-05 -3.730655e-04 5.850771e-04 -8.623428e-04 7.318224e-04 2.239453e-03 -5.779144e-04 
-6.940430e-05 -1.483999e-03 -1.526782e-03 -3.503834e-03 -3.741937e+00 -1.062099e-02 6.233636e-04 -1.345111e-04 3.344513e-04 -1.736715e-04 1.945594e-04 -9.770164e-05 1.650750e-04 -3.226568e-05 1.297377e-04 -2.009677e-05 7.578443e-05 -1.320397e-05 3.926477e-05 -2.514311e-05 2.726603e-05 -1.885722e-05 1.066493e-05 -1.589128e-05 5.908041e-06 -1.107295e-05 7.983566e-07 -1.025832e-05 2.185295e-06 -6.169675e-06 -2.327426e-07 -3.027514e-06 1.753069e-06 -1.581324e-06 -1.737000e-06 -2.877707e-06 -7.467738e-07 -5.987220e-07 -2.762498e-06 1.196678e-06 2.036849e-07 2.572280e-06 -4.354202e-06 1.921946e-06 -4.762789e-06 4.225717e-06 -9.844223e-06 2.899659e-06 -1.002597e-05 7.801857e-06 -1.851269e-05 1.024284e-05 -2.943298e-05 1.380555e-05 -4.599366e-05 2.488837e-05 -7.016832e-05 2.835952e-05 -1.529415e-04 -1.181560e-05 -2.519408e-04 1.275827e-04 2.246865e-04 1.344379e-03 
-5.396221e-04 -6.951286e-04 -1.336129e-03 2.763506e-02 -5.394230e+00 -4.692765e-02 8.384575e-04 -1.006216e-04 5.011775e-04 -1.260786e-04 2.688333e-04 -7.957004e-05 1.725665e-04 -4.739940e-05 1.123160e-04 -3.706175e-05 6.577212e-05 -2.718898e-05 3.571191e-05 -2.637614e-05 2.350574e-05 -2.173599e-05 1.071162e-05 -1.587037e-05 5.729241e-06 -1.248606e-05 2.005211e-06 -9.004828e-06 1.870309e-06 -6.895083e-06 6.457234e-07 -2.930133e-06 1.029574e-06 -2.382674e-06 -4.265161e-07 -7.987644e-07 -6.262792e-07 -1.552858e-07 -1.193145e-06 2.623446e-06 -5.729879e-07 3.032789e-06 -2.660713e-06 4.730518e-06 -4.426020e-06 5.575782e-06 -7.102688e-06 7.079007e-06 -9.272738e-06 9.439172e-06 -1.487868e-05 1.251768e-05 -2.496923e-05 1.600432e-05 -4.014691e-05 2.235334e-05 -6.179656e-05 3.575786e-05 -1.152043e-04 2.823006e-05 -1.891656e-04 7.715971e-05 3.297595e-05 7.714205e-04 
-1.490363e-04 -2.990777e-04 -4.131757e-04 5.220361e-02 -4.917276e+00 -7.000238e-02 1.400812e-04 -4.318792e-05 2.063976e-04 -1.108265e-04 1.568516e-04 -8.844958e-05 1.275291e-04 -5.452064e-05 9.706540e-05 -3.771477e-05 6.653136e-05 -2.927492e-05 3.936537e-05 -2.569235e-05 2.705628e-05 -2.214047e-05 1.397894e-05 -1.616105e-05 9.328669e-06 -1.377064e-05 4.031181e-06 -9.093177e-06 3.633300e-06 -7.849466e-06 1.430073e-06 -3.174411e-06 1.595675e-06 -3.356785e-06 -3.654585e-08 -2.484650e-07 -2.850021e-07 -5.272590e-07 -1.060664e-06 3.342839e-06 -1.415936e-06 2.984856e-06 -2.973908e-06 6.335255e-06 -5.473308e-06 6.507673e-06 -7.864454e-06 1.019808e-05 -1.226287e-05 1.191749e-05 -1.729017e-05 1.651654e-05 -2.770769e-05 2.323366e-05 -4.281633e-05 3.320514e-05 -6.438381e-05 4.461554e-05 -9.944346e-05 5.928909e-05 -1.091981e-04 1.475752e-04 4.256714e-05 3.262921e-04 
-2.699764e-04 -1.148271e-04 -3.975211e-04 2.733747e-02 -5.876828e+00 -4.786602e-02 2.359178e-04 -6.164408e-05 2.790216e-04 -9.290321e-05 1.977800e-04 -7.803034e-05 1.351819e-04 -5.796199e-05 8.848733e-05 -4.497485e-05 5.964101e-05 -3.909155e-05 3.330544e-05 -2.810149e-05 2.350814e-05 -2.716506e-05 1.098374e-05 -1.591499e-05 8.159539e-06 -1.759696e-05 2.695092e-06 -7.548604e-06 2.923062e-06 -1.121905e-05 5.474837e-07 -1.435732e-06 9.432253e-07 -6.481403e-06 -3.372786e-07 2.426697e-06 -5.853217e-07 -2.944765e-06 -9.220085e-07 6.173348e-06 -1.848277e-06 1.014829e-06 -2.369201e-06 9.838645e-06 -5.377208e-06 5.609633e-06 -6.330422e-06 1.450691e-05 -1.121719e-05 1.147505e-05 -1.249319e-05 1.776704e-05 -2.307356e-05 2.479985e-05 -3.668061e-05 3.431436e-05 -5.535066e-05 4.867832e-05 -8.456013e-05 6.619464e-05 -1.130822e-04 1.177976e-04 -9.112340e-05 2.299415e-04 
-2.287775e-05 -4.646450e-05 2.889923e-05 4.087837e-02 -5.433563e+00 -6.005177e-02 -1.239251e-04 -3.295857e-05 6.015872e-05 -8.248052e-05 7.914170e-05 -7.899913e-05 7.406366e-05 -5.919358e-05 5.736228e-05 -4.636477e-05 5.442714e-05 -4.182539e-05 2.528773e-05 -2.652223e-05 2.705767e-05 -2.926204e-05 7.930143e-06 -1.413785e-05 1.251555e-05 -2.039828e-05 1.164318e-06 -5.552515e-06 5.862702e-06 -1.412925e-05 -4.006626e-07 7.562642e-07 2.429370e-06 -9.395160e-06 -6.137724e-07 5.071256e-06 -2.142116e-07 -5.546000e-06 -5.473390e-07 9.128964e-06 -2.811113e-06 -1.172623e-06 -1.325664e-06 1.338966e-05 -7.406930e-06 4.462696e-06 -4.541771e-06 1.939109e-05 -1.504912e-05 1.258845e-05 -1.020704e-05 2.006733e-05 -2.092369e-05 2.982126e-05 -3.191720e-05 4.100012e-05 -4.353163e-05 5.509840e-05 -5.349733e-05 7.541795e-05 -4.355581e-05 1.138351e-04 6.157253e-06 1.314651e-04 
-7.133495e-05 3.085069e-05 5.781821e-06 1.750372e-02 -6.000749e+00 -3.814403e-02 -6.230735e-05 -6.567403e-05 9.128160e-05 -8.339646e-05 9.963010e-05 -7.626644e-05 7.976225e-05 -5.996058e-05 4.786859e-05 -3.646396e-05 6.256083e-05 -5.077176e-05 1.663289e-05 -1.124677e-05 3.693811e-05 -3.712575e-05 1.831907e-06 4.909827e-06 2.462852e-05 -2.846986e-05 -2.511164e-06 1.550774e-05 1.885785e-05 -2.263694e-05 -2.478762e-06 2.263232e-05 1.557817e-05 -1.818306e-05 -1.299854e-06 2.731624e-05 1.278949e-05 -1.421719e-05 1.926258e-08 3.092430e-05 9.594854e-06 -9.547672e-06 5.430355e-07 3.430211e-05 4.127753e-06 -2.888014e-06 -1.572115e-06 3.969209e-05 -5.394311e-06 7.684573e-06 2.780640e-07 2.201313e-05 -1.799061e-05 3.196628e-05 -2.782367e-05 4.267794e-05 -3.855692e-05 5.705286e-05 -5.114088e-05 7.592983e-05 -5.929424e-05 1.034850e-04 -5.356884e-05 1.212412e-04 
8.283054e-05 3.490107e-05 2.005520e-04 2.789521e-02 -5.577249e+00 -4.723346e-02 -2.552382e-04 -5.288508e-05 -5.065027e-05 -7.735110e-05 4.704155e-06 -7.551125e-05 2.194516e-05 -5.287105e-05 9.194394e-07 4.986594e-03 1.008437e-02 5.028338e-03 -1.022636e-05 6.099758e-03 1.224960e-02 6.134680e-03 -1.110495e-05 6.883965e-03 1.379919e-02 6.920776e-03 -5.993271e-06 7.379221e-03 1.478380e-02 7.417897e-03 1.360500e-06 7.646526e-03 1.531745e-02 7.686166e-03 8.741753e-06 7.722717e-03 1.547044e-02 7.762431e-03 1.563137e-05 7.619382e-03 1.526337e-02 7.658259e-03 2.163444e-05 7.324982e-03 1.467039e-02 7.362665e-03 2.534881e-05 6.834302e-03 1.367240e-02 6.875548e-03 2.220433e-05 2.072152e-05 -1.339243e-05 3.588290e-05 -1.898077e-05 4.663747e-05 -2.051913e-05 5.946508e-05 -1.629288e-05 7.549035e-05 2.196060e-06 9.283546e-05 4.037290e-05 9.093380e-05 
5.602748e-05 7.522467e-05 1.756067e-04 9.484207e-03 -5.893453e+00 -2.951550e-02 -2.053001e-04 -7.912987e-05 -3.512671e-05 -8.449006e-05 1.654436e-05 -7.884302e-05 3.374704e-05 -6.543698e-05 4.852640e-05 8.300964e-02 1.670715e-01 8.411587e-02 1.252539e-04 1.013017e-01 2.037888e-01 1.026444e-01 1.538768e-04 1.143894e-01 2.301125e-01 1.159222e-01 1.811560e-04 1.227222e-01 2.468830e-01 1.243800e-01 2.027957e-04 1.272718e-01 2.560433e-01 1.289987e-01 2.180558e-04 1.286453e-01 2.588103e-01 1.303922e-01 2.272540e-04 1.270323e-01 2.555628e-01 1.287526e-01 2.302667e-04 1.222416e-01 2.459143e-01 1.238875e-01 2.238429e-04 1.141569e-01 2.296126e-01 1.157012e-01 1.454682e-04 3.800064e-05 -2.234070e-05 3.968567e-05 -1.809707e-05 4.811341e-05 -1.881621e-05 6.052808e-05 -1.838456e-05 7.585224e-05 -1.076312e-05 9.193390e-05 1.160503e-05 9.795831e-05 
1.478195e-04 6.757646e-05 2.657404e-04 1.806590e-02 -5.479374e+00 -3.681648e-02 -3.122428e-04 -7.245621e-05 -1.207234e-04 -8.213690e-05 -4.764311e-05 -8.777060e-05 5.255807e-06 -1.129061e-04 1.002274e-04 1.086513e-01 2.187711e-01 1.101084e-01 2.712396e-04 1.326657e-01 2.670520e-01 1.344634e-01 2.961802e-04 1.498933e-01 3.016793e-01 1.519410e-01 3.065682e-04 1.608821e-01 3.237587e-01 1.630917e-01 3.075615e-04 1.669017e-01 3.358417e-01 1.692001e-01 3.013920e-04 1.687503e-01 3.395311e-01 1.710748e-01 2.882526e-04 1.666802e-01 3.353310e-01 1.689713e-01 2.669939e-04 1.604449e-01 3.227424e-01 1.626411e-01 2.344065e-04 1.498919e-01 3.014506e-01 1.519423e-01 1.508321e-04 7.465034e-05 -2.784616e-05 4.912055e-05 -9.287215e-06 5.072513e-05 1.981063e-07 6.009746e-05 1.373448e-05 7.214306e-05 3.899610e-05 8.283657e-05 8.181624e-05 8.360607e-05 
1.286876e-04 8.918241e-05 2.443865e-04 3.917342e-03 -5.621829e+00 -2.284421e-02 -2.675450e-04 -8.817691e-05 -1.109831e-04 -8.708769e-05 -4.382331e-05 -8.647874e-05 -4.005110e-06 -1.008108e-04 3.049383e-05 -4.741859e-02 -9.521112e-02 -4.805009e-02 2.048758e-05 -5.777852e-02 -1.160160e-01 -5.852002e-02 -1.534424e-05 -6.516028e-02 -1.309200e-01 -6.600554e-02 -5.349398e-05 -6.984565e-02 -1.403999e-01 -7.076049e-02 -8.654791e-05 -7.238797e-02 -1.455611e-01 -7.334160e-02 -1.140282e-04 -7.312962e-02 -1.470930e-01 -7.409447e-02 -1.372167e-04 -7.217406e-02 -1.452067e-01 -7.312378e-02 -1.574766e-04 -6.940861e-02 -1.396785e-01 -7.031684e-02 -1.730239e-04 -6.476666e-02 -1.303563e-01 -6.563368e-02 -1.125395e-04 4.517285e-05 -6.513286e-06 4.333376e-05 -3.282988e-06 4.968368e-05 1.434362e-06 6.015444e-05 1.064963e-05 7.260169e-05 2.931961e-05 8.454439e-05 6.478329e-05 9.129963e-05 
1.804390e-04 8.041222e-05 2.834562e-04 1.107407e-02 -5.211347e+00 -2.872518e-02 -3.277531e-04 -8.144717e-05 -1.624037e-04 -7.875939e-05 -9.534966e-05 -6.933199e-05 -6.304169e-05 -4.257456e-05 -9.174206e-05 -1.137467e-01 -2.288215e-01 -1.152812e-01 -2.185723e-04 -1.388170e-01 -2.792411e-01 -1.406909e-01 -2.518772e-04 -1.567820e-01 -3.154067e-01 -1.589144e-01 -2.794240e-04 -1.682317e-01 -3.384613e-01 -1.705324e-01 -2.972801e-04 -1.744929e-01 -3.510703e-01 -1.768863e-01 -3.064069e-04 -1.763976e-01 -3.549073e-01 -1.788181e-01 -3.076301e-04 -1.742060e-01 -3.504973e-01 -1.765918e-01 -3.007519e-04 -1.676573e-01 -3.373162e-01 -1.699448e-01 -2.814644e-04 -1.565917e-01 -3.150258e-01 -1.587371e-01 -1.846591e-04 5.612023e-08 2.071829e-05 3.166659e-05 1.331093e-05 4.545817e-05 2.062349e-05 5.663655e-05 3.744238e-05 6.750598e-05 6.623069e-05 7.681720e-05 1.116313e-04 8.154730e-05 
1.639588e-04 9.088883e-05 2.646831e-04 3.951643e-04 -5.227357e+00 -1.785839e-02 -2.861242e-04 -8.854953e-05 -1.527614e-04 -8.023310e-05 -9.005554e-05 -6.677156e-05 -5.961293e-05 -3.738824e-05 -6.806717e-05 -3.574944e-02 -7.189388e-02 -3.619750e-02 -1.210676e-04 -4.364367e-02 -8.779879e-02 -4.420798e-02 -1.191347e-04 -4.931903e-02 -9.921771e-02 -4.996251e-02 -1.158485e-04 -5.294343e-02 -1.065059e-01 -5.363786e-02 -1.102742e-04 -5.493261e-02 -1.105012e-01 -5.565486e-02 -1.027532e-04 -5.554855e-02 -1.117322e-01 -5.627906e-02 -9.310570e-05 -5.487427e-02 -1.103666e-01 -5.559475e-02 -8.050176e-05 -5.282886e-02 -1.062414e-01 -5.352045e-02 -6.262908e-05 -4.936162e-02 -9.925341e-02 -5.000056e-02 -4.796983e-05 8.267684e-06 1.654446e-05 3.157060e-05 1.361641e-05 4.476502e-05 1.968909e-05 5.619713e-05 3.351590e-05 6.751679e-05 5.799049e-05 7.806894e-05 9.867557e-05 8.614451e-05 
1.904053e-04 8.278356e-05 2.767518e-04 6.396520e-03 -4.817835e+00 -2.258202e-02 -3.180168e-04 -8.272137e-05 -1.789520e-04 -7.502827e-05 -1.176691e-04 -6.424475e-05 -7.843447e-05 -5.019146e-05 -4.943939e-05 -8.548801e-05 -7.018011e-05 -3.222032e-05 -3.769395e-05 -7.851806e-05 -7.240906e-05 -2.438525e-05 -2.344688e-05 -7.908163e-05 -7.974113e-05 -2.063914e-05 -1.486686e-05 -8.001146e-05 -8.716629e-05 -1.862092e-05 -8.630706e-06 -8.044648e-05 -9.264690e-05 -1.727990e-05 -3.430340e-06 -7.974359e-05 -9.582727e-05 -1.594227e-05 1.493179e-06 -7.734599e-05 -9.659030e-05 -1.412253e-05 6.965100e-06 -7.267593e-05 -9.412877e-05 -1.148643e-05 1.434667e-05 -6.463361e-05 -8.886795e-05 -1.016837e-06 4.022673e-06 2.177184e-05 1.724235e-05 3.144804e-05 2.320015e-05 4.210206e-05 3.422152e-05 5.235811e-05 5.319413e-05 6.228320e-05 8.290543e-05 7.125594e-05 1.270469e-04 7.818637e-05 
1.745155e-04 8.632204e-05 2.589510e-04 -1.567834e-03 -4.738591e+00 -1.416343e-02 -2.786149e-04 -8.445831e-05 -1.673418e-04 -7.498800e-05 -1.096844e-04 -6.432174e-05 -7.206806e-05 -5.459955e-05 -4.338141e-05 -6.188364e-05 -1.797542e-05 -3.273951e-05 -2.475242e-05 -4.476667e-05 -5.058158e-06 -1.682849e-05 -1.381514e-05 -3.380397e-05 -3.220142e-07 -5.679092e-06 -8.032889e-06 -2.573293e-05 7.141732e-07 2.466753e-06 -4.428438e-06 -1.949157e-05 4.491578e-07 8.693197e-06 -1.711267e-06 -1.414353e-05 -1.932780e-07 1.395422e-05 7.865762e-07 -8.822907e-06 -7.450287e-07 1.910226e-05 3.675800e-06 -2.687038e-06 -6.528873e-07 2.508602e-05 7.524369e-06 6.015403e-06 -1.004045e-06 3.651965e-05 4.291796e-06 2.610931e-05 1.493209e-05 3.255412e-05 2.136558e-05 4.179634e-05 3.145115e-05 5.160322e-05 4.821566e-05 6.155142e-05 7.472328e-05 7.109833e-05 1.150863e-04 7.948310e-05 
1.848819e-04 7.890685e-05 2.558669e-04 3.432376e-03 -4.329259e+00 -1.788196e-02 -2.925385e-04 -7.901050e-05 -1.772298e-04 -7.057513e-05 -1.232035e-04 -6.160713e-05 -8.433918e-05 -5.380244e-05 -5.492502e-05 -5.260867e-05 -3.172419e-05 -3.635301e-05 -2.726887e-05 -3.672265e-05 -1.326225e-05 -2.216828e-05 -1.365822e-05 -2.570178e-05 -5.170265e-06 -1.207221e-05 -7.025987e-06 -1.765743e-05 -1.939271e-06 -4.640479e-06 -3.507950e-06 -1.151364e-05 -6.900168e-07 1.158917e-06 -1.259855e-06 -6.341687e-06 -1.191398e-07 6.225922e-06 6.782485e-07 -1.297648e-06 5.212109e-07 1.138599e-05 3.079694e-06 4.468754e-06 1.984209e-06 1.762888e-05 6.673754e-06 1.260012e-05 4.175112e-06 2.829325e-05 9.823982e-06 2.666869e-05 1.890918e-05 3.169627e-05 2.825457e-05 3.932310e-05 4.141507e-05 4.780616e-05 6.104532e-05 5.650118e-05 8.962260e-05 6.488599e-05 1.298981e-04 7.242512e-05 
1.687427e-04 7.808189e-05 2.379653e-04 -2.461752e-03 -4.176473e+00 -1.133333e-02 -2.551961e-04 -7.720725e-05 -1.637434e-04 -6.850262e-05 -1.135990e-04 -5.972116e-05 -7.769814e-05 -5.209482e-05 -5.126305e-05 -4.773403e-05 -3.148088e-05 -3.738416e-05 -2.419445e-05 -3.311282e-05 -1.402060e-05 -2.428380e-05 -1.192878e-05 -2.219401e-05 -6.226242e-06 -1.476064e-05 -6.021989e-06 -1.417597e-05 -2.779870e-06 -7.676344e-06 -2.959506e-06 -8.036250e-06 -1.173787e-06 -2.078565e-06 -1.072932e-06 -2.890606e-06 -2.259133e-07 2.881644e-06 5.105937e-07 2.080805e-06 7.524155e-07 8.030905e-06 2.444771e-06 7.764400e-06 2.376615e-06 1.443304e-05 5.317541e-06 1.561637e-05 5.035661e-06 2.395991e-05 9.997126e-06 2.607675e-05 1.718619e-05 3.130697e-05 2.552391e-05 3.842324e-05 3.739232e-05 4.644269e-05 5.503066e-05 5.485691e-05 8.086198e-05 6.322126e-05 1.177342e-04 7.107185e-05 
1.687717e-04 7.108969e-05 2.261003e-04 1.621754e-03 -3.767690e+00 -1.413216e-02 -2.572327e-04 -7.165797e-05 -1.632946e-04 -6.390390e-05 -1.178083e-04 -5.605459e-05 -8.372025e-05 -4.854580e-05 -5.869292e-05 -4.198701e-05 -3.771369e-05 -3.704981e-05 -2.814835e-05 -2.856464e-05 -1.755180e-05 -2.522430e-05 -1.389551e-05 -1.811631e-05 -8.088698e-06 -1.652548e-05 -6.855596e-06 -1.049202e-05 -3.654623e-06 -1.003357e-05 -3.230907e-06 -4.686145e-06 -1.486085e-06 -4.856357e-06 -1.076420e-06 1.615666e-07 -1.641362e-07 -1.997427e-07 6.868926e-07 4.837900e-06 1.175879e-06 4.732417e-06 2.859333e-06 1.021574e-05 3.297389e-06 1.099035e-05 6.292616e-06 1.752217e-05 7.483603e-06 1.933373e-05 1.434177e-05 2.416413e-05 2.069267e-05 2.949147e-05 3.001313e-05 3.567806e-05 4.331665e-05 4.259361e-05 6.204785e-05 4.993651e-05 8.795045e-05 5.735213e-05 1.229168e-04 6.448609e-05 
1.521119e-04 6.752433e-05 2.075640e-04 -2.702839e-03 -3.557138e+00 -8.999499e-03 -2.218841e-04 -6.755036e-05 -1.482631e-04 -6.018155e-05 -1.067653e-04 -5.261054e-05 -7.619314e-05 -4.482146e-05 -5.501361e-05 -3.817961e-05 -3.293313e-05 -3.637066e-05 -2.701797e-05 -2.540072e-05 -1.489680e-05 -2.556729e-05 -1.387392e-05 -1.543982e-05 -6.618937e-06 -1.751928e-05 -7.154697e-06 -8.134496e-06 -2.866683e-06 -1.142039e-05 -3.504146e-06 -2.554171e-06 -1.148225e-06 -6.494868e-06 -1.200932e-06 2.101621e-06 -1.960483e-07 -2.020264e-06 7.217270e-07 6.579817e-06 7.381133e-07 2.761955e-06 2.961764e-06 1.172423e-05 2.280404e-06 8.865539e-06 6.275914e-06 1.864851e-05 5.771774e-06 1.674067e-05 1.458597e-05 2.243408e-05 1.862104e-05 2.817634e-05 2.648193e-05 3.409535e-05 3.831921e-05 4.052319e-05 5.511053e-05 4.737491e-05 7.843993e-05 5.437677e-05 1.101690e-04 6.119548e-05 
1.454284e-04 6.070374e-05 1.905891e-04 5.165735e-04 -3.150009e+00 -1.093415e-02 -2.156666e-04 -6.168398e-05 -1.411588e-04 -5.529132e-05 -1.042562e-04 -4.879139e-05 -7.625395e-05 -4.125086e-05 -6.048292e-05 -2.448116e-05 -2.826579e-05 -3.780191e-05 -3.014027e-05 -1.043367e-05 -8.892488e-06 -2.824699e-05 -1.610790e-05 -8.299106e-08 7.276548e-07 -2.133650e-05 -8.452043e-06 7.172225e-06 5.335608e-06 -1.610279e-05 -4.124455e-06 1.248645e-05 7.467672e-06 -1.185584e-05 -1.322596e-06 1.669873e-05 8.521758e-06 -7.958439e-06 1.043280e-06 2.052478e-05 9.340707e-06 -3.706036e-06 3.768698e-06 2.476530e-05 1.053140e-05 2.021612e-06 7.486344e-06 3.080041e-05 1.330422e-05 9.713561e-06 2.022737e-05 2.095598e-05 1.987892e-05 2.641702e-05 2.832216e-05 3.118010e-05 4.076583e-05 3.654724e-05 5.749545e-05 4.245841e-05 7.969092e-05 4.864284e-05 1.086332e-04 5.481155e-05 
1.282479e-04 5.542731e-05 1.712267e-04 -2.606304e-03 -2.893568e+00 -6.883856e-03 -1.822619e-04 -5.612804e-05 -1.249040e-04 -5.058478e-05 -9.164379e-05 -4.486227e-05 -6.669341e-05 -3.630302e-05 -5.756646e-05 3.223916e-03 6.503790e-03 3.265676e-03 -2.778178e-05 3.950773e-03 7.951522e-03 3.993339e-03 -1.292684e-05 4.468999e-03 8.984266e-03 4.512998e-03 -3.685767e-06 4.798589e-03 9.639758e-03 4.843470e-03 2.340639e-06 4.978592e-03 9.996371e-03 5.023930e-03 6.712199e-06 5.033371e-03 1.010272e-02 5.078842e-03 1.043168e-05 4.970799e-03 9.974113e-03 5.016135e-03 1.422940e-05 4.783957e-03 9.595704e-03 4.829110e-03 1.849514e-05 4.469511e-03 8.958158e-03 4.515511e-03 2.804429e-05 1.905056e-05 1.622342e-05 2.496509e-05 2.377946e-05 2.912621e-05 3.497561e-05 3.381450e-05 4.983208e-05 3.907080e-05 6.951318e-05 4.462030e-05 9.528936e-05 5.016543e-05 
1.171834e-04 4.860005e-05 1.513477e-04 -2.018284e-04 -2.489758e+00 -8.007811e-03 -1.701205e-04 -4.975322e-05 -1.136776e-04 -4.522068e-05 -8.424450e-05 -4.173833e-05 -5.751706e-05 -4.186772e-05 -3.331784e-05 4.297174e-02 8.669363e-02 4.376871e-02 4.771859e-05 5.249301e-02 1.058003e-01 5.338820e-02 7.604169e-05 5.931623e-02 1.194966e-01 6.027719e-02 9.507741e-05 6.366614e-02 1.282226e-01 6.466409e-02 1.070935e-04 6.604466e-02 1.329912e-01 6.706083e-02 1.143354e-04 6.676694e-02 1.344370e-01 6.778774e-02 1.181999e-04 6.593189e-02 1.327587e-01 6.694524e-02 1.194881e-04 6.344118e-02 1.277576e-01 6.443412e-02 1.175647e-04 5.923605e-02 1.193052e-01 6.020461e-02 9.191824e-05 2.880516e-05 9.988698e-06 2.416059e-05 2.307707e-05 2.588115e-05 3.477760e-05 2.954735e-05 4.875957e-05 3.402417e-05 6.654891e-05 3.887062e-05 8.912842e-05 4.380802e-05 
9.960618e-05 4.227592e-05 1.311438e-04 -2.376733e-03 -2.196635e+00 -4.811995e-03 -1.387369e-04 -4.316453e-05 -9.679735e-05 -3.978339e-05 -7.048075e-05 -3.898392e-05 -4.309153e-05 -4.910659e-05 -6.553068e-06 5.269907e-02 1.063497e-01 5.368682e-02 9.492808e-05 6.438581e-02 1.298162e-01 6.550282e-02 1.206208e-04 7.277209e-02 1.466457e-01 7.397143e-02 1.353402e-04 7.812375e-02 1.573747e-01 7.936883e-02 1.423363e-04 8.105502e-02 1.632445e-01 8.232244e-02 1.441440e-04 8.195263e-02 1.650345e-01 8.322571e-02 1.420331e-04 8.093849e-02 1.629895e-01 8.220252e-02 1.364944e-04 7.789245e-02 1.568669e-01 7.913142e-02 1.265898e-04 7.274162e-02 1.465112e-01 7.394621e-02 9.558873e-05 3.554207e-05 2.612141e-06 2.345493e-05 1.791291e-05 2.328767e-05 2.866583e-05 2.611717e-05 4.070427e-05 2.990813e-05 5.592746e-05 3.405132e-05 7.534217e-05 3.824943e-05 
8.568977e-05 3.534318e-05 1.097138e-04 -6.991002e-04 -1.798314e+00 -5.218953e-03 -1.223389e-04 -3.601911e-05 -8.383656e-05 -3.251790e-05 -6.411123e-05 -2.921627e-05 -4.888841e-05 -2.625618e-05 -3.819774e-05 -2.680006e-02 -5.402426e-02 -2.728902e-02 -4.957272e-05 -3.271012e-02 -6.587351e-02 -3.325454e-02 -5.266439e-05 -3.693853e-02 -7.436777e-02 -3.752203e-02 -5.894668e-05 -3.963012e-02 -7.977702e-02 -4.023560e-02 -6.517394e-05 -4.109727e-02 -8.272895e-02 -4.171353e-02 -7.029497e-05 -4.153524e-02 -8.361627e-02 -4.215418e-02 -7.382063e-05 -4.100443e-02 -8.256057e-02 -4.161882e-02 -7.523194e-05 -3.944254e-02 -7.943628e-02 -4.004474e-02 -7.259793e-05 -3.681276e-02 -7.416012e-02 -3.740379e-02 -4.051141e-05 9.837342e-06 1.659458e-05 1.497214e-05 2.016083e-05 1.813093e-05 2.737097e-05 2.128105e-05 3.723979e-05 2.466272e-05 4.998936e-05 2.822123e-05 6.603031e-05 3.183166e-05 
6.789532e-05 2.843001e-05 8.873404e-05 -2.073388e-03 -1.475846e+00 -2.750433e-03 -9.312701e-05 -2.849666e-05 -6.727749e-05 -2.498011e-05 -5.288632e-05 -1.951502e-05 -4.680768e-05 -5.463531e-06 -5.490254e-05 -5.597600e-02 -1.129149e-01 -5.701510e-02 -1.221819e-04 -6.836460e-02 -1.377800e-01 -6.953571e-02 -1.337824e-04 -7.724855e-02 -1.556155e-01 -7.850546e-02 -1.435370e-04 -8.291437e-02 -1.669852e-01 -8.421903e-02 -1.496971e-04 -8.601380e-02 -1.732031e-01 -8.734177e-02 -1.523075e-04 -8.695638e-02 -1.750940e-01 -8.829022e-02 -1.512812e-04 -8.587045e-02 -1.729162e-01 -8.719477e-02 -1.460614e-04 -8.262752e-02 -1.664103e-01 -8.392569e-02 -1.338948e-04 -7.715005e-02 -1.554074e-01 -7.841486e-02 -8.689574e-05 -6.815598e-06 2.158053e-05 8.554548e-06 1.769968e-05 1.380483e-05 2.175664e-05 1.705301e-05 2.913508e-05 1.996668e-05 3.917174e-05 2.285672e-05 5.201453e-05 2.571162e-05 
5.215199e-05 2.137024e-05 6.661111e-05 -9.689730e-04 -1.085669e+00 -2.601094e-03 -7.316768e-05 -2.134622e-05 -5.179957e-05 -1.857772e-05 -4.105463e-05 -1.470142e-05 -3.418009e-05 -7.511937e-06 -2.969540e-05 -1.624464e-02 -3.275787e-02 -1.652657e-02 -4.983442e-05 -1.984208e-02 -3.997785e-02 -2.016241e-02 -4.830571e-05 -2.242519e-02 -4.515982e-02 -2.276919e-02 -4.768357e-05 -2.407400e-02 -4.846571e-02 -2.443118e-02 -4.686935e-05 -2.497742e-02 -5.027592e-02 -2.534103e-02 -4.547386e-05 -2.525434e-02 -5.082967e-02 -2.561960e-02 -4.313863e-05 -2.494221e-02 -5.020207e-02 -2.530493e-02 -3.933335e-05 -2.400393e-02 -4.831780e-02 -2.435971e-02 -3.269534e-05 -2.241709e-02 -4.512804e-02 -2.276199e-02 -2.433727e-05 6.477021e-09 1.353240e-05 6.523151e-06 1.423485e-05 9.966734e-06 1.784807e-05 1.247891e-05 2.350232e-05 1.476054e-05 3.104368e-05 1.700777e-05 4.055921e-05 1.923207e-05 
3.435890e-05 1.420978e-05 4.497213e-05 -1.605785e-03 -7.398225e-01 -8.130299e-04 -4.590897e-05 -1.394875e-05 -3.445543e-05 -1.205718e-05 -2.715229e-05 -9.820611e-06 -2.104907e-05 -8.352128e-06 -1.029929e-05 -3.216391e-05 -3.641621e-05 -5.058246e-06 -9.921484e-06 -3.450659e-05 -3.814543e-05 -5.216336e-06 -5.675163e-06 -3.678404e-05 -4.024783e-05 -5.511344e-06 -3.258801e-06 -3.796028e-05 -4.213879e-05 -5.745932e-06 -1.752707e-06 -3.839449e-05 -4.333441e-05 -5.791106e-06 -6.689877e-07 -3.818788e-05 -4.362098e-05 -5.541298e-06 3.160479e-07 -3.732819e-05 -4.277902e-05 -4.943538e-06 1.554645e-06 -3.577079e-05 -4.025716e-05 -4.152731e-06 3.733331e-06 -3.363691e-05 -3.595193e-05 -1.593342e-06 -2.346660e-06 3.843796e-06 7.117851e-06 4.577521e-06 9.236615e-06 6.516140e-06 1.165086e-05 8.261683e-06 1.527405e-05 9.850816e-06 2.021515e-05 1.137056e-05 2.655354e-05 1.283532e-05 
1.748191e-05 7.056441e-06 2.268215e-05 -1.025066e-03 -3.607965e-01 -1.647400e-04 -2.311034e-05 -6.837946e-06 -1.762218e-05 -5.890786e-06 -1.396244e-05 -4.950041e-06 -1.057239e-05 -4.904720e-06 -5.087647e-06 -1.011293e-05 -4.813588e-06 1.897009e-06 -4.602151e-06 -8.966783e-06 -2.588762e-06 3.769813e-06 -2.586802e-06 -8.568282e-06 -1.160543e-06 5.044042e-06 -1.411334e-06 -8.114914e-06 -4.801983e-07 5.954598e-06 -7.147913e-07 -7.665730e-06 -1.621363e-07 6.618849e-06 -2.398609e-07 -7.209671e-06 2.116839e-08 7.131308e-06 1.898458e-07 -6.708642e-06 2.430597e-07 7.537943e-06 7.592180e-07 -6.142398e-06 7.267974e-07 7.810173e-06 1.646954e-06 -5.328591e-06 1.012325e-06 9.289135e-06 -1.150760e-06 2.722362e-06 3.390980e-06 2.320225e-06 4.928670e-06 3.065496e-06 6.306269e-06 3.928705e-06 8.147819e-06 4.760293e-06 1.059542e-05 5.560239e-06 1.369980e-05 6.330940e-06 
-3.467066e-08 -1.436344e-07 5.487933e-07 -9.822314e-04 3.538767e-03 9.876772e-04 1.955868e-06 4.073207e-07 -2.792071e-07 4.621500e-07 -2.962365e-07 3.457984e-07 1.481237e-07 -5.190604e-07 1.670960e-06 -2.849542e-06 5.308489e-07 2.168509e-06 3.825726e-08 -2.419577e-06 7.029464e-08 2.562030e-06 -4.798558e-08 -2.632211e-06 7.559734e-08 2.689525e-06 -3.777963e-08 -2.743530e-06 6.458267e-08 2.755466e-06 -2.397356e-08 -2.793178e-06 4.821992e-08 2.777053e-06 -1.440054e-09 -2.814879e-06 4.014868e-08 2.758593e-06 3.923345e-08 -2.832471e-06 6.145665e-08 2.679338e-06 1.259291e-07 -2.878639e-06 1.339051e-07 2.525742e-06 1.374291e-07 -2.707429e-06 -4.898932e-07 3.484922e-06 -2.167600e-06 7.529826e-07 -2.706428e-07 -2.691871e-07 3.068094e-07 -4.047753e-07 3.199914e-07 -3.284001e-07 2.179390e-07 -2.445404e-07 1.210131e-07 -1.891586e-07 4.122145e-08 -1.582034e-07 
-1.755742e-05 -7.327860e-06 -2.155486e-05 -9.528225e-04 3.679705e-01 2.153598e-03 2.710713e-05 7.591710e-06 1.709921e-05 6.802803e-06 1.329633e-05 5.853389e-06 1.046691e-05 4.531521e-06 8.667380e-06 2.867125e-06 6.043487e-06 4.416781e-06 4.334815e-06 1.960278e-06 3.051561e-06 3.567175e-06 2.222124e-06 9.008865e-07 1.560833e-06 2.768205e-06 1.119805e-06 7.546614e-08 7.697963e-07 2.122625e-06 5.250766e-07 -5.676838e-07 3.317563e-07 1.575361e-06 1.737549e-07 -1.112912e-06 4.334600e-08 1.054630e-06 -1.015500e-07 -1.642289e-06 -2.379460e-07 4.823299e-07 -4.430652e-07 -2.225032e-06 -6.878741e-07 -1.672935e-07 -1.162597e-06 -2.697412e-06 -1.976535e-06 -2.583298e-07 -3.473562e-06 -1.883181e-06 -3.482605e-06 -3.087869e-06 -4.251061e-06 -3.881123e-06 -5.717722e-06 -4.548459e-06 -7.763047e-06 -5.217420e-06 -1.038532e-05 -5.916003e-06 -1.363435e-05 -6.629964e-06 