# vtk DataFile Version 2.0
Comment goes here
ASCII

DATASET STRUCTURED_POINTS
FIELD FieldData 1
TIME 1 1 double
0.04900000
DIMENSIONS    64   64   1

ORIGIN    0.000   0.000   0.000
SPACING   0.03125 0.03125   1.000

POINT_DATA   4096
SCALARS Omega double
LOOKUP_TABLE default

-2.306295e-01 -1.769566e-01 -5.141363e-02 -1.315816e-01 -1.035700e-01 -2.817719e-01 -6.987398e-02 -1.971612e-01 -5.775431e-02 -1.746416e-01 -1.103758e-02 -1.363858e-01 5.057821e-02 -6.371627e-02 1.252534e-01 7.353261e-03 2.417357e-01 7.116702e-02 3.086583e-01 1.489772e-01 3.420382e-01 1.914324e-01 3.725743e-01 2.311543e-01 3.959147e-01 2.491276e-01 3.867000e-01 3.024736e-01 3.706190e-01 3.148075e-01 3.756427e-01 3.269789e-01 3.643071e-01 3.196631e-01 3.820365e-01 3.186957e-01 3.708004e-01 3.177673e-01 3.436616e-01 3.378505e-01 3.061394e-01 3.577563e-01 2.548986e-01 3.423085e-01 2.064980e-01 3.356250e-01 1.497424e-01 2.857111e-01 8.324189e-02 2.144800e-01 7.381586e-03 1.448756e-01 -8.606839e-02 8.470704e-02 -1.626364e-01 3.480555e-02 -2.054916e-01 -5.366987e-03 -2.397081e-01 -1.299337e-02 -2.687702e-01 -1.535416e-02 -2.826573e-01 -3.251873e-02 
2.363580e+00 -3.344766e+01 -8.321963e+00 -3.108152e+01 -7.670503e+00 -2.992548e+01 -1.019267e+01 -2.736187e+01 -1.594015e+01 -2.350488e+01 -2.204059e+01 -1.865377e+01 -2.822006e+01 -1.375237e+01 -3.389897e+01 -9.460460e+00 -3.834960e+01 -6.572819e+00 -4.112347e+01 -5.157030e+00 -4.275863e+01 -4.154239e+00 -4.441571e+01 -2.751797e+00 -4.653533e+01 -9.284602e-01 -4.877235e+01 1.087074e+00 -5.162088e+01 4.380543e+00 -5.612592e+01 9.444065e+00 -6.196735e+01 1.542130e+01 -6.822425e+01 2.124362e+01 -7.314185e+01 2.453748e+01 -7.457377e+01 2.429125e+01 -7.258167e+01 2.109134e+01 -6.813828e+01 1.592545e+01 -6.230171e+01 1.047174e+01 -5.698766e+01 6.139536e+00 -5.280348e+01 2.637570e+00 -4.875366e+01 -1.077924e+00 -4.421802e+01 -5.076492e+00 -3.941551e+01 -9.289181e+00 -3.427800e+01 -1.374421e+01 -2.870652e+01 -1.854954e+01 -2.258173e+01 -2.377297e+01 -1.650345e+01 -3.183462e+01 
-6.727091e+01 7.311172e+00 -3.193294e+01 5.741190e+00 -9.234640e+00 6.117783e+00 -3.962585e+01 3.476457e+00 -5.102874e+01 1.708926e+00 -5.805725e+01 -4.527413e-01 -6.266246e+01 -2.647706e+00 -6.600275e+01 -4.612894e+00 -6.898178e+01 -5.836891e+00 -7.197672e+01 -6.207406e+00 -7.484760e+01 -6.375343e+00 -7.695681e+01 -6.935706e+00 -7.827556e+01 -7.677438e+00 -7.932113e+01 -8.218303e+00 -7.991211e+01 -9.357860e+00 -7.920170e+01 -1.164590e+01 -7.736761e+01 -1.446116e+01 -7.481000e+01 -1.753222e+01 -7.232648e+01 -1.936752e+01 -7.134890e+01 -1.935102e+01 -7.176679e+01 -1.798621e+01 -7.292757e+01 -1.572500e+01 -7.456888e+01 -1.331937e+01 -7.540018e+01 -1.173723e+01 -7.496909e+01 -1.057867e+01 -7.410787e+01 -9.009740e+00 -7.317364e+01 -7.268604e+00 -7.174353e+01 -5.457196e+00 -6.977924e+01 -3.605953e+00 -6.703554e+01 -1.591084e+00 -6.316481e+01 4.276472e-01 -5.483225e+01 6.417576e+00 
-3.596096e+01 7.929271e+00 -1.690963e+01 9.559879e+00 -2.419040e+01 7.880591e+00 -1.712071e+01 9.153172e+00 -2.331474e+01 6.904575e+00 -2.654820e+01 4.213452e+00 -2.829647e+01 1.547067e+00 -2.928477e+01 -8.355015e-01 -3.016759e+01 -2.415821e+00 -3.126292e+01 -3.162588e+00 -3.240417e+01 -3.577649e+00 -3.302031e+01 -4.110112e+00 -3.312001e+01 -4.636907e+00 -3.309184e+01 -5.042274e+00 -3.264049e+01 -5.974831e+00 -3.131341e+01 -7.824550e+00 -2.917419e+01 -1.018763e+01 -2.666885e+01 -1.274019e+01 -2.452865e+01 -1.436538e+01 -2.385032e+01 -1.445501e+01 -2.450822e+01 -1.334717e+01 -2.595050e+01 -1.142568e+01 -2.782469e+01 -9.268688e+00 -2.912341e+01 -7.720042e+00 -2.958780e+01 -6.440880e+00 -2.979362e+01 -4.863925e+00 -3.004545e+01 -3.119021e+00 -3.017114e+01 -1.323074e+00 -3.014949e+01 5.062869e-01 -2.986034e+01 2.290806e+00 -2.903757e+01 4.159466e+00 -2.627044e+01 9.833218e+00 
-1.575880e+00 1.511689e+00 -2.071079e+00 -2.831777e+00 -4.206925e+01 1.699850e-02 2.430384e+00 -7.724711e-02 2.848052e-01 -4.915063e-02 -4.619173e-01 -1.645305e-02 -7.969166e-01 4.325934e-03 -9.613644e-01 1.015592e-03 -9.804637e-01 -5.388398e-02 -9.731610e-01 -9.423861e-02 -8.996582e-01 -1.450291e-01 -8.291666e-01 -1.788251e-01 -7.325731e-01 -2.222362e-01 -6.825874e-01 -2.524692e-01 -6.394817e-01 -2.798392e-01 -6.422975e-01 -2.546336e-01 -6.297541e-01 -2.092540e-01 -6.500957e-01 -1.473576e-01 -6.637453e-01 -1.258625e-01 -7.069159e-01 -1.263993e-01 -7.137818e-01 -1.601328e-01 -7.091469e-01 -1.921734e-01 -6.495356e-01 -2.353599e-01 -5.857664e-01 -2.822044e-01 -4.894253e-01 -3.407418e-01 -3.995885e-01 -3.677473e-01 -3.292842e-01 -3.221584e-01 -2.713380e-01 -2.143750e-01 -2.396010e-01 -4.216151e-02 -2.577419e-01 1.835480e-01 -3.405236e-01 4.766360e-01 -5.036885e-01 8.645548e-01 
-1.027352e+00 9.194669e-01 -1.700657e+00 -2.554399e+00 -5.365263e+01 -1.135039e+00 2.332981e+00 -5.703308e-01 1.289283e+00 -2.540625e-01 6.453955e-01 -1.413181e-01 3.127352e-01 -7.140191e-02 1.440453e-01 -3.404633e-02 1.326283e-01 -9.526013e-02 5.487127e-02 -6.468619e-02 6.764151e-02 -6.936911e-02 5.811924e-03 -2.989824e-02 2.351889e-02 -4.913168e-02 -2.819149e-02 -1.872853e-02 3.505332e-03 -4.016421e-02 -3.499345e-02 -9.107630e-03 2.515075e-03 -3.031645e-02 -3.199166e-02 -1.942281e-03 6.102932e-03 -1.393333e-02 -2.668436e-02 2.626769e-02 5.693778e-03 2.046954e-02 -3.417970e-02 5.368596e-02 -1.420906e-02 3.339504e-02 -3.985418e-02 4.382894e-02 1.141315e-02 2.905519e-03 -1.868513e-03 1.685666e-02 -3.121087e-02 6.332120e-02 -7.592783e-02 1.138588e-01 -1.397631e-01 1.718979e-01 -2.290902e-01 2.611842e-01 -3.871661e-01 3.922835e-01 -7.215691e-01 3.970187e-01 
-1.125773e+00 6.615365e-01 -1.275610e+00 -3.263650e+00 -6.273754e+01 -8.966915e-01 1.864082e+00 -5.780931e-01 1.295076e+00 -3.271954e-01 7.111498e-01 -1.908129e-01 3.578015e-01 -7.529648e-02 1.372499e-01 -7.673392e-03 1.793513e-01 -1.362519e-01 1.073879e-01 -7.687082e-02 1.366110e-01 -9.841015e-02 5.604088e-02 -2.128242e-02 7.198719e-02 -6.724141e-02 2.462285e-04 -1.224842e-02 2.376037e-02 -6.426806e-02 -3.095867e-02 -5.778180e-03 2.829275e-03 -5.156351e-02 -3.736420e-02 1.146895e-02 3.998955e-03 -2.281857e-02 -2.609817e-02 5.075708e-02 1.045679e-02 2.835308e-02 -2.603744e-02 9.800612e-02 -1.017123e-02 6.242553e-02 -3.976013e-02 9.024119e-02 1.211592e-02 -6.843090e-03 5.238555e-02 1.331391e-03 -9.529578e-03 9.165286e-02 -9.811300e-02 1.562873e-01 -1.983998e-01 2.079893e-01 -3.178342e-01 2.779903e-01 -4.847427e-01 3.867401e-01 -7.473832e-01 4.705730e-01 
-9.784118e-01 6.204023e-01 -8.879800e-01 -2.902103e+00 -6.948119e+01 -1.024193e+00 1.030226e+00 -8.019887e-01 1.068996e+00 -4.528980e-01 6.890746e-01 -2.395420e-01 3.465510e-01 -6.816891e-02 8.080699e-02 2.479465e-02 2.404760e-01 -3.119905e-01 5.785213e-02 -8.509089e-02 1.659814e-01 -2.016746e-01 -8.198670e-03 1.214598e-02 1.016368e-01 -1.431161e-01 -5.087013e-02 4.360508e-02 6.960595e-02 -1.181674e-01 -6.393851e-02 6.145632e-02 5.998040e-02 -9.716603e-02 -6.449444e-02 7.902725e-02 5.623364e-02 -6.810810e-02 -6.509353e-02 1.101489e-01 4.324671e-02 -2.013272e-02 -8.370000e-02 1.516006e-01 -5.758022e-04 1.946191e-02 -1.049627e-01 1.345612e-01 5.318638e-02 -7.525172e-02 5.116781e-02 -1.650242e-03 1.108724e-02 1.280773e-01 -6.968404e-02 2.148745e-01 -1.644884e-01 2.818544e-01 -2.766970e-01 3.629131e-01 -4.382549e-01 4.654385e-01 -6.857908e-01 5.425627e-01 
-8.448618e-01 5.466796e-01 -3.825546e-01 -3.296495e+00 -7.455128e+01 -8.089191e-01 5.897532e-01 -7.935481e-01 8.478496e-01 -4.991025e-01 6.342586e-01 -2.742906e-01 3.345103e-01 8.811977e-03 -7.548599e-02 2.398011e-01 1.910866e-01 -5.974234e-01 1.391675e-01 3.509918e-02 1.845143e-01 -3.780698e-01 6.797107e-02 1.845367e-01 7.570681e-02 -3.152162e-01 1.653431e-02 2.134447e-01 1.656565e-02 -2.989257e-01 -3.828683e-03 2.303635e-01 -1.209436e-02 -2.776297e-01 -5.860030e-03 2.528055e-01 -2.387882e-02 -2.393780e-01 2.375795e-03 2.895895e-01 -3.735585e-02 -1.732905e-01 -4.917838e-03 3.519491e-01 -1.010915e-01 -8.341783e-02 -6.998352e-02 3.625983e-01 -1.272400e-01 -3.016840e-01 2.383893e-01 -7.724878e-02 8.440880e-02 1.798792e-01 -9.139098e-02 2.579003e-01 -2.169837e-01 3.005526e-01 -3.262692e-01 3.671991e-01 -4.601277e-01 4.609167e-01 -6.403794e-01 5.414763e-01 
-6.380365e-01 5.115332e-01 1.549494e-02 -3.080120e+00 -7.817465e+01 -8.104578e-01 1.102554e-01 -9.202389e-01 5.479588e-01 -6.340387e-01 5.016604e-01 -3.426622e-01 2.302906e-01 1.372758e-01 -3.374098e-01 7.211811e-01 3.278433e-01 -1.271104e+00 5.818429e-02 5.250815e-01 2.821732e-01 -7.996973e-01 -7.429645e-02 6.739109e-01 1.581492e-01 -7.305444e-01 -1.066626e-01 6.887035e-01 1.065141e-01 -6.868077e-01 -1.054021e-01 6.956909e-01 8.130284e-02 -6.427745e-01 -9.648719e-02 6.982964e-01 6.351489e-02 -5.843627e-01 -8.894070e-02 7.051822e-01 3.442938e-02 -4.897128e-01 -1.027075e-01 7.456006e-01 -6.707962e-02 -3.364743e-01 -1.994269e-01 7.310220e-01 -6.092741e-02 -5.453509e-01 2.637674e-01 -6.862038e-02 1.466174e-01 2.365694e-01 -6.182239e-02 3.173928e-01 -1.890661e-01 3.551269e-01 -2.788822e-01 4.153712e-01 -3.836413e-01 4.951488e-01 -5.190352e-01 5.667648e-01 
-4.706191e-01 4.452911e-01 4.573803e-01 -3.276897e+00 -8.055214e+01 -6.239163e-01 -1.501061e-01 -9.568101e-01 3.331016e-01 -7.488776e-01 4.527219e-01 -5.318544e-01 3.530082e-01 2.748709e-01 -5.958321e-01 1.655954e+00 1.513788e-01 -2.009048e+00 8.651110e-01 2.207671e+00 -1.593275e-01 -1.897503e+00 6.480774e-01 2.382243e+00 -4.861040e-01 -2.133584e+00 6.698689e-01 2.411719e+00 -6.300171e-01 -2.256094e+00 7.095110e-01 2.441177e+00 -7.235891e-01 -2.306495e+00 7.496976e-01 2.458746e+00 -7.937408e-01 -2.296632e+00 7.940115e-01 2.463648e+00 -8.645329e-01 -2.221020e+00 8.361556e-01 2.514730e+00 -1.024735e+00 -1.971719e+00 7.217588e-01 2.878182e+00 -1.570555e+00 -2.282229e+00 1.238501e+00 1.314055e-01 2.551802e-01 4.705235e-01 -1.977325e-01 3.660768e-01 -2.824476e-01 3.514420e-01 -3.146509e-01 4.032193e-01 -3.682690e-01 4.815768e-01 -4.401940e-01 5.549787e-01 
-2.745339e-01 4.036239e-01 7.862970e-01 -3.088512e+00 -8.194135e+01 -5.755425e-01 -3.791757e-01 -1.035118e+00 1.286685e-01 -9.425705e-01 3.579479e-01 -8.692076e-01 2.174768e-01 8.950948e-03 -1.270619e+00 -2.311783e+00 7.670711e+00 8.762038e+00 1.973479e+00 2.665282e+00 4.965667e+00 4.769734e+00 9.167332e-01 2.262868e+00 4.723871e+00 3.096453e+00 8.365059e-01 2.227425e+00 4.504772e+00 1.838768e+00 7.766787e-01 2.198646e+00 4.306772e+00 8.920465e-01 7.436498e-01 2.172562e+00 4.088690e+00 9.823021e-02 7.282128e-01 2.147698e+00 3.800399e+00 -6.914990e-01 7.146898e-01 2.182999e+00 3.356762e+00 -1.431899e+00 3.457530e-01 2.664731e+00 2.923527e+00 -5.102306e+00 9.422533e-01 -6.109878e-02 3.721564e-01 6.808447e-01 -2.466450e-01 4.445479e-01 -2.936087e-01 3.895846e-01 -2.722035e-01 4.270494e-01 -2.824931e-01 4.931609e-01 -3.089127e-01 5.560493e-01 
-1.217696e-01 3.390551e-01 1.128884e+00 -3.131901e+00 -8.231246e+01 -4.110574e-01 -5.316769e-01 -1.031883e+00 -7.337186e-02 -1.076742e+00 2.311202e-01 -1.680520e+00 6.298585e-01 -2.971615e+00 2.483779e+00 -1.611398e+01 3.456351e+01 5.479331e+01 1.499625e+01 -5.221313e+00 2.968282e+01 4.913726e+01 1.292788e+01 -6.572369e+00 3.092017e+01 5.024451e+01 1.387692e+01 -6.486981e+00 3.120517e+01 5.018495e+01 1.439962e+01 -6.421419e+00 3.105734e+01 4.964796e+01 1.475189e+01 -6.344725e+00 3.059299e+01 4.873658e+01 1.500771e+01 -6.263069e+00 2.966402e+01 4.717700e+01 1.521443e+01 -6.337226e+00 2.799609e+01 4.457057e+01 1.560185e+01 -7.322623e+00 2.685866e+01 4.511576e+01 1.382345e+01 8.155567e+00 -1.408004e+00 5.207738e-01 -9.383664e-01 2.477833e-01 -4.251875e-01 3.248651e-01 -2.734681e-01 4.028163e-01 -2.373511e-01 4.775400e-01 -2.201547e-01 5.406213e-01 
4.556541e-02 2.874286e-01 1.368474e+00 -2.899940e+00 -8.196781e+01 -3.729855e-01 -6.298409e-01 -9.928770e-01 -1.528967e-01 -1.098767e+00 4.087881e-01 -2.058510e+00 1.796737e+00 -4.918240e+00 4.764249e+00 -1.167729e+01 3.579340e+01 4.374631e+01 1.092601e+01 -8.043529e+00 3.776046e+01 4.730670e+01 9.126684e+00 -7.805977e+00 4.263432e+01 5.413496e+01 8.682559e+00 -7.294368e+00 4.563206e+01 5.838585e+01 8.206511e+00 -6.953343e+00 4.741124e+01 6.113357e+01 7.857323e+00 -6.718222e+00 4.837631e+01 6.301503e+01 7.649907e+00 -6.571641e+00 4.861610e+01 6.424128e+01 7.551818e+00 -6.673154e+00 4.814252e+01 6.460404e+01 7.455549e+00 -7.158397e+00 5.214976e+01 7.595867e+01 5.828497e+00 9.040348e+00 -3.307387e+00 5.943681e-01 -1.259849e+00 2.019483e-01 -4.300809e-01 3.095660e-01 -2.052980e-01 3.998809e-01 -1.411263e-01 4.717671e-01 -9.552604e-02 5.259874e-01 
1.719020e-01 2.256827e-01 1.604156e+00 -2.789059e+00 -8.079896e+01 -2.659836e-01 -6.868734e-01 -8.200616e-01 -2.454973e-01 -5.355230e-01 1.575816e-01 -1.296422e-01 5.169542e-01 4.368378e-01 1.579392e+00 6.466445e+00 -3.185523e+01 -4.290077e+01 -7.311737e-01 -2.587418e-01 -2.609348e+01 -3.614487e+01 -4.399824e-01 8.197576e-01 -2.581719e+01 -3.354241e+01 -9.482370e-01 1.201157e+00 -2.496814e+01 -3.094840e+01 -1.370148e+00 1.556607e+00 -2.393676e+01 -2.861233e+01 -1.824503e+00 1.914178e+00 -2.270172e+01 -2.632802e+01 -2.356237e+00 2.327632e+00 -2.102427e+01 -2.362317e+01 -3.022007e+00 2.893084e+00 -1.865304e+01 -1.981531e+01 -3.857261e+00 3.067186e+00 -1.659816e+01 -1.903277e+01 -2.406696e+00 1.852103e-01 -1.002195e-01 7.484565e-01 -1.806423e-02 4.911110e-01 -6.575639e-02 4.048576e-01 -7.706920e-02 4.176392e-01 -6.159471e-02 4.648623e-01 -8.322570e-03 5.090999e-01 
3.055353e-01 1.809806e-01 1.747802e+00 -2.500684e+00 -7.904743e+01 -2.352987e-01 -7.637957e-01 -7.269318e-01 -4.430679e-01 -3.108844e-01 -3.260276e-01 7.624193e-01 -9.550742e-01 3.332626e+00 -4.446616e+00 1.815762e+01 -3.831405e+01 -5.809693e+01 -1.898346e+01 7.324665e+00 -3.690807e+01 -5.708547e+01 -1.530396e+01 8.690295e+00 -4.128145e+01 -6.222380e+01 -1.510345e+01 8.743087e+00 -4.385550e+01 -6.507457e+01 -1.472747e+01 8.813790e+00 -4.532793e+01 -6.667151e+01 -1.441481e+01 8.881701e+00 -4.605127e+01 -6.748160e+01 -1.419485e+01 8.972184e+00 -4.604718e+01 -6.751821e+01 -1.405723e+01 9.315059e+00 -4.520597e+01 -6.652203e+01 -1.415165e+01 1.058142e+01 -4.719862e+01 -7.523888e+01 -1.071568e+01 -8.783885e+00 2.748232e+00 3.603294e-01 9.592741e-01 5.384977e-01 2.207653e-01 4.309908e-01 4.883145e-02 4.194997e-01 3.692171e-02 4.526688e-01 9.852162e-02 4.855755e-01 
3.949409e-01 1.310776e-01 1.891484e+00 -2.395015e+00 -7.671967e+01 -1.162441e-01 -8.129853e-01 -6.918688e-01 -6.012849e-01 -4.034105e-01 -5.444557e-01 6.317005e-02 -9.120493e-01 8.057558e-01 -2.074575e+00 5.667267e+00 -9.374274e+00 -8.782163e+00 -8.101607e+00 1.495634e+00 -9.375447e+00 -1.058121e+01 -6.939782e+00 1.755997e+00 -1.095672e+01 -1.388766e+01 -7.150615e+00 1.588634e+00 -1.213195e+01 -1.625086e+01 -7.242860e+00 1.454537e+00 -1.293348e+01 -1.800337e+01 -7.273338e+00 1.351950e+00 -1.348125e+01 -1.943090e+01 -7.276031e+00 1.280395e+00 -1.383024e+01 -2.075363e+01 -7.262787e+00 1.274476e+00 -1.388179e+01 -2.232064e+01 -7.028930e+00 1.757496e+00 -1.473550e+01 -2.446463e+01 -7.953493e+00 -6.703160e+00 7.694151e-01 -6.100160e-01 5.910652e-01 1.760005e-01 2.198071e-01 3.161723e-01 9.852234e-02 3.749136e-01 9.262702e-02 4.260906e-01 1.631889e-01 4.619569e-01 
4.884117e-01 8.756604e-02 1.957241e+00 -2.142065e+00 -7.390220e+01 -6.978258e-02 -8.465980e-01 -6.011666e-01 -7.181185e-01 -3.498613e-01 -6.819707e-01 -1.292289e-01 -8.179779e-01 -5.264984e-01 -2.082338e-01 -2.871504e+00 8.681004e-01 3.744772e+00 -1.317072e+00 -2.343561e+00 1.723655e-01 3.295756e+00 -8.525128e-01 -2.665333e+00 1.366841e-01 3.277531e+00 -6.513145e-01 -2.782225e+00 -1.314174e-02 3.194318e+00 -5.220267e-01 -2.885912e+00 -1.403150e-01 3.075160e+00 -4.190667e-01 -2.964557e+00 -2.448295e-01 2.912814e+00 -3.287168e-01 -3.023486e+00 -3.405389e-01 2.657445e+00 -2.280781e-01 -3.154797e+00 -3.733578e-01 2.072033e+00 2.077220e-01 -3.641768e+00 -5.119867e-01 3.451672e+00 -8.435991e-01 -7.162656e-01 4.959280e-02 -5.545634e-01 3.134924e-01 9.936020e-03 2.240478e-01 2.391113e-01 1.562218e-01 3.360203e-01 1.615574e-01 3.958939e-01 2.409026e-01 4.284305e-01 
5.381749e-01 4.751342e-02 2.017136e+00 -2.049166e+00 -7.070608e+01 1.231218e-02 -8.290729e-01 -6.098427e-01 -7.336206e-01 -4.225475e-01 -6.224691e-01 -2.804502e-01 -5.496609e-01 -4.796386e-01 -3.205069e-03 -1.681962e+00 9.398873e-01 8.309158e-01 -5.820348e-01 -1.148524e+00 3.518990e-01 8.285074e-01 -4.603588e-01 -1.325331e+00 4.072438e-01 1.012455e+00 -3.716695e-01 -1.370321e+00 3.906186e-01 1.143702e+00 -3.214887e-01 -1.401339e+00 3.616811e-01 1.232677e+00 -2.822552e-01 -1.421261e+00 3.327508e-01 1.294217e+00 -2.449865e-01 -1.439503e+00 3.086275e-01 1.322121e+00 -1.874041e-01 -1.509121e+00 3.461922e-01 1.266630e+00 -2.266927e-02 -1.620970e+00 2.785729e-01 1.970784e+00 -6.179459e-01 2.719523e-02 -4.212177e-02 -2.415993e-01 1.798247e-01 5.461333e-03 1.755961e-01 1.875984e-01 1.573047e-01 2.928516e-01 1.841837e-01 3.627436e-01 2.751677e-01 3.997925e-01 
5.896510e-01 6.201821e-03 2.019969e+00 -1.859891e+00 -6.706400e+01 6.457583e-02 -7.928932e-01 -5.618788e-01 -7.317260e-01 -4.360300e-01 -5.830859e-01 -3.740490e-01 -4.079213e-01 -5.143012e-01 5.406516e-02 -8.152360e-01 2.321533e-01 8.302745e-02 -1.161885e-01 -4.086879e-01 -4.029296e-02 1.547008e-01 -7.827421e-02 -4.593729e-01 -1.693932e-02 2.338019e-01 -1.354849e-02 -4.474091e-01 -2.194590e-02 3.051638e-01 2.302128e-02 -4.359224e-01 -3.711780e-02 3.572419e-01 4.984739e-02 -4.261981e-01 -5.261944e-02 3.961183e-01 7.499298e-02 -4.219617e-01 -6.310310e-02 4.157480e-01 1.180310e-01 -4.477122e-01 -3.480399e-02 4.131309e-01 2.180804e-01 -3.797067e-01 -1.889741e-01 9.065661e-01 -2.315282e-01 2.029579e-01 -5.804998e-03 -4.366892e-02 1.239544e-01 4.947276e-02 1.578141e-01 1.754962e-01 1.732767e-01 2.665796e-01 2.183401e-01 3.313946e-01 3.189722e-01 3.625694e-01 
6.029329e-01 -2.287417e-02 2.003141e+00 -1.754824e+00 -6.315764e+01 9.974497e-02 -7.375051e-01 -5.671388e-01 -6.863698e-01 -4.528772e-01 -5.144430e-01 -3.695548e-01 -3.480739e-01 -3.870830e-01 -8.863763e-02 -5.004497e-01 4.422133e-02 -2.055005e-01 -4.176835e-02 -2.613028e-01 -3.314239e-02 -6.162005e-02 -3.855939e-02 -2.135101e-01 -2.296940e-02 4.266859e-03 -8.040194e-03 -1.787495e-01 -1.948202e-02 5.301970e-02 1.054459e-02 -1.517354e-01 -2.285343e-02 8.969969e-02 2.381169e-02 -1.296119e-01 -2.690168e-02 1.187679e-01 3.758525e-02 -1.116739e-01 -2.688781e-02 1.409925e-01 6.000660e-02 -9.792495e-02 -1.824428e-02 1.759700e-01 7.253799e-02 -1.059430e-02 -1.243543e-01 4.159876e-01 -1.028123e-01 2.047553e-01 2.082458e-02 6.786472e-02 9.592856e-02 9.906007e-02 1.280640e-01 1.748658e-01 1.587749e-01 2.456604e-01 2.172645e-01 3.047821e-01 3.258795e-01 3.342831e-01 
6.165900e-01 -5.693774e-02 1.952195e+00 -1.612085e+00 -5.883380e+01 1.529491e-01 -6.594851e-01 -5.348219e-01 -6.357009e-01 -4.664720e-01 -4.501770e-01 -3.810029e-01 -2.930076e-01 -2.815144e-01 -1.956193e-01 -2.340682e-01 -1.329251e-01 -4.148317e-01 1.545796e-02 -1.707867e-01 -7.042416e-02 -2.184365e-01 2.482893e-02 -5.399508e-02 -7.931704e-02 -1.509362e-01 4.492063e-02 -1.241623e-02 -7.868949e-02 -1.112872e-01 6.399989e-02 1.823118e-02 -7.982643e-02 -7.989894e-02 7.856520e-02 4.219683e-02 -8.134187e-02 -5.270008e-02 9.312539e-02 6.258602e-02 -7.962852e-02 -2.200398e-02 1.102043e-01 9.794386e-02 -9.158734e-02 5.502929e-02 7.157004e-02 1.981597e-01 -2.224896e-01 1.187543e-01 7.964742e-02 1.105519e-01 9.446150e-02 1.446352e-01 8.803098e-02 1.569723e-01 1.077332e-01 1.877537e-01 1.524602e-01 2.319980e-01 2.247318e-01 2.777830e-01 3.399708e-01 2.984130e-01 
5.992237e-01 -7.449149e-02 1.869010e+00 -1.488179e+00 -5.432260e+01 1.523369e-01 -5.945424e-01 -5.346996e-01 -5.724377e-01 -4.733029e-01 -3.923479e-01 -3.689571e-01 -2.794682e-01 -1.613899e-01 -2.979635e-01 9.241479e-02 -2.261540e-01 -7.514889e-01 7.749883e-02 6.102382e-02 -6.883165e-02 -4.360169e-01 5.766000e-02 1.959593e-01 -9.205418e-02 -3.663892e-01 6.591450e-02 2.271586e-01 -9.577989e-02 -3.265381e-01 8.137205e-02 2.498553e-01 -9.908399e-02 -2.935814e-01 9.535413e-02 2.675232e-01 -1.030229e-01 -2.619522e-01 1.105187e-01 2.844217e-01 -1.068303e-01 -2.184618e-01 1.221882e-01 3.268096e-01 -1.436585e-01 -1.164893e-01 5.702393e-02 4.169558e-01 -2.614115e-01 -1.645084e-01 1.930201e-01 6.114838e-02 1.377401e-01 1.888080e-01 7.094041e-02 1.917682e-01 7.688548e-02 1.949122e-01 1.279151e-01 2.201449e-01 2.079550e-01 2.560443e-01 3.261631e-01 2.717243e-01 
5.828426e-01 -9.924474e-02 1.770680e+00 -1.366683e+00 -4.941938e+01 2.040234e-01 -5.043949e-01 -5.013371e-01 -5.108493e-01 -5.132077e-01 -3.084398e-01 -4.629482e-01 -1.448336e-01 -9.368607e-02 -2.699280e-01 8.474101e-01 -7.933212e-01 -1.474682e+00 6.629765e-01 9.026109e-01 -4.578086e-01 -1.094971e+00 5.498945e-01 1.085471e+00 -5.521333e-01 -1.113251e+00 5.665293e-01 1.115174e+00 -5.706551e-01 -1.123415e+00 5.978102e-01 1.141224e+00 -5.836465e-01 -1.124115e+00 6.252087e-01 1.160111e+00 -5.947510e-01 -1.116548e+00 6.524240e-01 1.175864e+00 -6.031014e-01 -1.092268e+00 6.809954e-01 1.233081e+00 -6.511905e-01 -9.561205e-01 5.936934e-01 1.521314e+00 -9.842133e-01 -1.241696e+00 7.690083e-01 1.096358e-01 2.288048e-01 3.576348e-01 -7.609127e-03 2.399269e-01 2.033978e-02 1.932114e-01 1.036599e-01 2.015745e-01 1.990272e-01 2.289790e-01 3.193794e-01 2.378692e-01 
5.420768e-01 -1.068804e-01 1.632191e+00 -1.221020e+00 -4.439772e+01 1.770018e-01 -4.429312e-01 -4.883253e-01 -4.383010e-01 -5.302264e-01 -2.372933e-01 -5.508253e-01 -1.126070e-01 -3.181474e-01 -9.675823e-02 -7.853081e-01 5.404463e-01 2.286928e+00 2.219470e+00 1.298410e+00 6.201891e-01 1.689845e+00 1.653700e+00 1.123552e+00 6.771187e-01 1.455307e+00 1.636194e+00 1.075332e+00 7.618545e-01 1.260199e+00 1.627613e+00 1.042592e+00 8.111866e-01 1.099957e+00 1.635827e+00 1.017045e+00 8.283788e-01 9.578324e-01 1.663132e+00 9.962457e-01 8.162528e-01 8.097734e-01 1.703192e+00 1.013803e+00 7.422445e-01 7.225980e-01 1.606555e+00 1.214378e+00 5.178821e-01 -7.899879e-02 1.629319e+00 5.383814e-01 2.257965e-01 4.660282e-01 -9.535569e-02 2.563879e-01 -3.251414e-02 1.858328e-01 7.309170e-02 1.844524e-01 1.751565e-01 2.058774e-01 2.927592e-01 2.110426e-01 
5.049153e-01 -1.204312e-01 1.489437e+00 -1.081779e+00 -3.901358e+01 2.173113e-01 -3.646696e-01 -4.106551e-01 -4.068119e-01 -5.459143e-01 -2.273149e-01 -9.273299e-01 8.612068e-02 -2.187804e+00 2.406605e+00 -1.002634e+01 8.175211e+00 2.400485e+01 1.431156e+01 -5.392155e-01 8.250522e+00 2.294183e+01 1.235702e+01 -2.092674e+00 9.153650e+00 2.425397e+01 1.275871e+01 -2.344673e+00 9.826170e+00 2.492785e+01 1.280887e+01 -2.533854e+00 1.020185e+01 2.521376e+01 1.280952e+01 -2.643821e+00 1.032744e+01 2.521853e+01 1.284258e+01 -2.686012e+00 1.020624e+01 2.489255e+01 1.289253e+01 -2.752995e+00 9.889550e+00 2.409055e+01 1.296485e+01 -3.358179e+00 9.969407e+00 2.674872e+01 1.099141e+01 7.240027e+00 -5.710301e-01 5.363912e-01 -5.330878e-01 1.170982e-01 -1.167866e-01 1.283465e-01 6.040062e-02 1.541517e-01 1.675396e-01 1.780226e-01 2.759179e-01 1.794558e-01 
4.479617e-01 -1.169276e-01 1.304725e+00 -9.041412e-01 -3.357628e+01 1.675809e-01 -3.159061e-01 -3.584205e-01 -3.371411e-01 -4.944746e-01 -1.251318e-01 -9.753024e-01 4.200374e-01 -2.543937e+00 2.971856e+00 -1.022646e+01 1.067105e+01 2.523000e+01 1.387844e+01 -2.876946e+00 1.146773e+01 2.591597e+01 1.233146e+01 -3.959263e+00 1.294087e+01 2.846689e+01 1.262611e+01 -4.049039e+00 1.400208e+01 3.000894e+01 1.252658e+01 -4.119930e+00 1.462482e+01 3.090704e+01 1.238774e+01 -4.135746e+00 1.487656e+01 3.137735e+01 1.231433e+01 -4.097150e+00 1.478342e+01 3.145552e+01 1.228305e+01 -4.114320e+00 1.448202e+01 3.104357e+01 1.219264e+01 -4.671486e+00 1.557764e+01 3.597859e+01 1.046733e+01 8.117474e+00 -1.248372e+00 5.123782e-01 -6.656745e-01 5.267399e-02 -1.387657e-01 9.119438e-02 4.984441e-02 1.272668e-01 1.481815e-01 1.515813e-01 2.435817e-01 1.519968e-01 
3.957784e-01 -1.169029e-01 1.123100e+00 -7.292068e-01 -2.784285e+01 1.780287e-01 -2.323707e-01 -2.011502e-01 -2.784461e-01 -1.499417e-01 -1.903966e-01 8.976813e-02 -1.459349e-01 8.119408e-01 -1.079446e+00 5.710208e+00 -7.073605e+00 -1.744946e+01 -7.262813e+00 3.667393e-01 -6.777871e+00 -1.629411e+01 -5.946463e+00 1.436431e+00 -7.443775e+00 -1.654239e+01 -5.970785e+00 1.764349e+00 -7.893393e+00 -1.654658e+01 -5.881479e+00 2.011249e+00 -8.136911e+00 -1.642822e+01 -5.843870e+00 2.200338e+00 -8.203660e+00 -1.620907e+01 -5.888126e+00 2.360539e+00 -8.088847e+00 -1.580047e+01 -5.989194e+00 2.565255e+00 -7.835198e+00 -1.500782e+01 -6.053902e+00 2.916450e+00 -8.072329e+00 -1.665109e+01 -4.897177e+00 -2.837943e+00 3.258948e-01 8.477591e-02 2.558121e-01 1.810531e-01 1.247263e-01 1.378349e-01 1.148837e-01 1.259520e-01 1.525938e-01 1.309920e-01 2.207483e-01 1.234682e-01 
3.266748e-01 -1.011795e-01 9.045061e-01 -5.297107e-01 -2.209960e+01 1.172479e-01 -1.933849e-01 -1.212666e-01 -2.382344e-01 1.368291e-02 -2.506983e-01 5.436715e-01 -5.434327e-01 2.289601e+00 -3.479390e+00 1.158431e+01 -1.072482e+01 -2.878359e+01 -1.707716e+01 1.562240e+00 -1.117189e+01 -2.859405e+01 -1.478447e+01 3.394286e+00 -1.259448e+01 -3.091511e+01 -1.514084e+01 3.750677e+00 -1.364309e+01 -3.226059e+01 -1.508471e+01 4.009720e+00 -1.425613e+01 -3.298839e+01 -1.498750e+01 4.163786e+00 -1.450064e+01 -3.328956e+01 -1.495364e+01 4.237887e+00 -1.439546e+01 -3.315728e+01 -1.496791e+01 4.374736e+00 -1.405599e+01 -3.244500e+01 -1.504544e+01 5.234344e+00 -1.468486e+01 -3.706413e+01 -1.266182e+01 -8.744506e+00 1.133615e+00 -2.380224e-01 7.278336e-01 1.856562e-01 2.469587e-01 1.319534e-01 1.340958e-01 1.070816e-01 1.361919e-01 1.055337e-01 1.833892e-01 9.650083e-02 
2.578512e-01 -9.684673e-02 7.065936e-01 -4.001272e-01 -1.617300e+01 1.404166e-01 -1.195651e-01 -3.698967e-02 -2.057517e-01 1.319408e-02 -2.512150e-01 2.016634e-01 -3.851718e-01 5.649791e-01 -1.229129e+00 3.031436e+00 -2.450615e+00 -6.471304e+00 -6.053562e+00 -3.694569e-01 -2.824504e+00 -6.717810e+00 -5.301353e+00 3.738661e-02 -3.138643e+00 -7.616257e+00 -5.465458e+00 6.028413e-02 -3.429658e+00 -8.176360e+00 -5.494646e+00 6.647976e-02 -3.597020e+00 -8.509305e+00 -5.483368e+00 5.073148e-02 -3.653144e+00 -8.691339e+00 -5.470313e+00 1.426515e-02 -3.605758e+00 -8.750792e+00 -5.462943e+00 -2.777005e-02 -3.458547e+00 -8.763950e+00 -5.399932e+00 7.970467e-02 -3.423127e+00 -9.550354e+00 -5.125009e+00 -3.439302e+00 1.092150e-01 -4.324311e-01 3.359127e-01 -2.013391e-02 1.813261e-01 4.885710e-02 1.210282e-01 6.539750e-02 1.170885e-01 7.320209e-02 1.469460e-01 6.626216e-02 
1.779515e-01 -7.966377e-02 4.745550e-01 -2.251630e-01 -1.025961e+01 8.668137e-02 -7.593076e-02 2.083194e-02 -1.538866e-01 4.512608e-02 -2.168279e-01 8.026608e-02 -2.760618e-01 -2.352083e-01 -5.206718e-02 -1.266818e+00 7.598755e-01 1.481710e+00 -9.824019e-01 -1.140032e+00 3.584149e-01 1.224072e+00 -7.958272e-01 -1.325150e+00 4.667952e-01 1.255323e+00 -7.535797e-01 -1.367399e+00 4.811443e-01 1.276082e+00 -7.352307e-01 -1.403191e+00 4.897806e-01 1.290339e+00 -7.203905e-01 -1.430774e+00 5.013689e-01 1.298186e+00 -7.083621e-01 -1.454414e+00 5.158366e-01 1.293882e+00 -6.993790e-01 -1.514993e+00 5.650229e-01 1.179573e+00 -5.782787e-01 -1.784039e+00 7.757221e-01 1.820740e+00 -8.856574e-01 -8.374725e-02 -1.589290e-01 -3.106687e-01 1.375142e-01 -9.422525e-02 1.323993e-01 1.606102e-03 9.819081e-02 3.209286e-02 8.774140e-02 4.291791e-02 1.019438e-01 3.808322e-02 
9.644655e-02 -7.364583e-02 2.694991e-01 -1.318277e-01 -4.272049e+00 1.043253e-01 1.655269e-02 6.892392e-02 -7.029736e-02 3.539434e-02 -1.108707e-01 9.106504e-03 -9.797127e-02 -1.986281e-01 1.068724e-01 -6.978226e-01 4.692211e-01 6.326164e-01 -3.020700e-01 -4.329663e-01 1.875990e-01 5.079633e-01 -2.727936e-01 -5.471881e-01 2.392079e-01 5.279492e-01 -2.555179e-01 -5.685834e-01 2.546425e-01 5.491212e-01 -2.521478e-01 -5.818179e-01 2.612354e-01 5.619263e-01 -2.506551e-01 -5.903445e-01 2.651998e-01 5.675017e-01 -2.494748e-01 -5.983033e-01 2.692928e-01 5.619953e-01 -2.430650e-01 -6.285517e-01 3.018299e-01 5.164409e-01 -1.840726e-01 -6.980077e-01 3.650664e-01 8.415368e-01 -4.500776e-01 1.078973e-01 -1.347929e-01 -1.258260e-01 3.605147e-02 -7.859078e-02 6.432620e-02 -2.692684e-02 5.652934e-02 -8.936355e-04 4.966597e-02 1.069375e-02 5.289515e-02 8.069026e-03 
1.071848e-02 -5.595004e-02 3.468563e-02 2.237159e-02 1.697471e+00 5.584187e-02 7.512158e-02 1.112992e-01 6.041865e-03 5.403284e-02 -3.173832e-02 -5.605773e-03 4.260690e-03 -1.525666e-01 1.679067e-01 -2.658577e-01 1.978643e-01 1.770358e-01 -4.716125e-02 -5.016980e-02 2.621979e-02 1.549855e-01 -6.442282e-02 -1.271966e-01 3.899654e-02 1.428460e-01 -5.108833e-02 -1.434471e-01 4.562840e-02 1.479274e-01 -4.692702e-02 -1.510878e-01 4.729853e-02 1.503101e-01 -4.504769e-02 -1.564526e-01 4.824774e-02 1.480781e-01 -4.327329e-02 -1.632366e-01 5.113460e-02 1.353540e-01 -3.358027e-02 -1.850527e-01 7.807394e-02 1.055879e-01 1.178797e-02 -1.658914e-01 6.062819e-02 3.298349e-01 -2.301703e-01 1.479488e-01 -1.172603e-01 -4.709732e-02 -1.550029e-02 -6.802492e-02 2.138462e-02 -4.412761e-02 2.190414e-02 -2.602817e-02 1.203751e-02 -1.761113e-02 2.615701e-03 -1.946298e-02 
-7.558161e-02 -4.643954e-02 -1.731024e-01 1.103527e-01 7.657151e+00 6.474656e-02 1.703595e-01 1.562917e-01 9.561129e-02 7.914119e-02 5.332963e-02 2.359670e-02 7.196540e-02 -5.942979e-02 1.446363e-01 -9.700558e-02 1.151697e-01 6.635335e-02 2.376264e-02 2.533690e-02 1.592220e-02 7.541406e-02 -7.251796e-03 -1.618065e-02 7.734768e-03 5.714079e-02 -7.354081e-03 -3.252454e-02 8.199575e-03 5.233836e-02 -6.977955e-03 -4.124125e-02 8.470213e-03 4.848867e-02 -6.748353e-03 -4.821774e-02 9.215802e-03 4.267127e-02 -5.748878e-03 -5.639539e-02 1.231676e-02 3.165955e-02 8.693456e-04 -6.922837e-02 2.690592e-02 2.225914e-02 1.298780e-02 -4.377115e-02 -9.892097e-03 1.400212e-01 -1.331790e-01 1.007852e-01 -8.702169e-02 -1.343603e-02 -3.747443e-02 -5.164235e-02 -1.539102e-02 -5.246371e-02 -1.643094e-02 -4.726567e-02 -3.030631e-02 -4.466017e-02 -5.126144e-02 -4.677439e-02 