# vtk DataFile Version 2.0
Comment goes here
ASCII

DATASET STRUCTURED_POINTS
FIELD FieldData 1
TIME 1 1 double
0.09100000
DIMENSIONS    64   64   1

ORIGIN    0.000   0.000   0.000
SPACING   0.03125 0.03125   1.000

POINT_DATA   4096
SCALARS Omega double
LOOKUP_TABLE default

1.590731e+03 9.100263e+02 -7.915019e+02 4.552334e+02 -3.036356e+02 1.303910e+02 -3.119863e+02 1.996917e+02 4.461149e+01 1.618942e+02 -2.542545e+02 1.245724e+02 -3.174221e+02 -2.423984e+02 6.343363e+02 1.831118e+02 -3.473265e+02 5.798219e+02 -3.985275e+02 3.551887e+02 -2.258749e+02 1.597349e+02 -8.589164e+02 -2.199084e+02 -1.598854e+02 1.190372e+02 2.093694e+02 -9.672380e+01 4.770281e+02 -3.006700e+02 1.757435e+02 -2.203304e+02 -6.576390e+01 5.939717e+02 -1.245607e+02 4.046578e+02 -2.050053e+01 -2.922992e+02 -5.133488e+02 -4.631853e+02 3.325342e+02 -4.324615e+02 6.081003e+02 2.390999e+02 -6.328075e+01 -2.726000e+02 2.415658e+02 -6.731644e+02 4.092953e+02 5.330408e+02 1.387381e+02 -2.366043e+02 4.699645e+02 5.416342e+02 1.131327e+02 -1.343817e+02 -7.723285e+02 9.529948e+01 -4.080191e+01 -1.522580e+02 1.510193e+02 5.049274e+02 -7.666202e+02 -3.234655e+03 
7.193274e+02 1.292996e+03 -4.791350e+02 2.960047e+02 -8.108203e+02 2.273113e+03 1.666161e+02 6.714164e+02 -3.365187e+02 -2.002757e+02 1.157212e+03 -2.970629e+02 5.724053e+02 -2.140503e+02 6.340391e+02 -4.342742e+02 4.053244e+02 -1.738734e+02 4.865746e+02 -2.111367e+02 2.977588e+02 1.104253e+02 5.325222e+01 -2.660503e+01 4.047456e+02 2.792087e+02 7.511837e+01 -4.080498e+02 -2.956941e+01 2.950377e+02 -3.151571e+01 -4.125750e+02 -6.013525e+02 -2.988932e+02 -6.280761e+02 -5.397868e+02 -4.539656e+02 -2.703828e+02 -5.097309e+02 -4.418904e+02 -1.326866e+00 -6.223961e+02 2.866444e+01 1.826457e+02 -2.117528e+02 -1.015785e+02 -4.446258e+02 -1.895129e+02 -3.005547e+02 5.065965e+01 1.479613e+01 -3.802389e+01 6.920433e+02 1.032826e+02 -4.907770e+02 5.963820e+02 5.759899e+02 1.206819e+03 1.376735e+02 1.447560e+03 6.970885e+02 5.883501e+02 2.666735e+03 3.107901e+03 
5.774525e+02 3.826015e+02 1.738863e+03 4.889503e+02 5.624264e+02 9.363374e+02 -9.407609e+02 -9.363388e+02 1.364674e+02 4.485731e+02 1.487383e+03 -3.837017e+02 1.248609e+03 3.470298e+02 -1.487759e+01 -6.029966e+02 5.715291e+02 -4.780659e+02 5.678293e+02 -8.120720e+02 3.846591e+02 -1.841037e+02 4.657559e+02 9.441977e+01 4.381079e+02 -5.425345e+01 -2.821252e+02 -9.464521e+01 -5.829346e+01 1.322415e+02 -2.380357e+02 -1.191057e+02 -1.892725e+02 -9.797960e+02 -8.897663e+02 -4.941692e+02 -2.025730e+02 -3.154032e+02 -4.849710e+02 -2.005520e+02 -8.832231e+01 -5.731247e+01 -6.208594e+02 -3.630385e+02 -5.082596e+02 1.828819e+02 -8.188938e+02 7.764713e+01 -1.314338e+03 -5.419231e+02 -3.529926e+02 -8.989206e+02 -8.184723e+02 -1.179749e+03 3.502186e+02 -3.225871e+02 -3.416372e+02 -1.675701e+02 -5.697066e+02 8.330439e+02 4.947085e+03 4.622737e+03 3.241149e+03 3.881209e+03 
7.722649e+02 -3.344840e+03 4.617010e+03 8.885910e+02 -2.494604e+02 -1.291640e+03 -7.256013e+01 -9.681516e+02 1.655132e+03 -5.325663e+02 6.239597e+02 -5.787723e+02 2.533572e+02 -4.668239e+00 -7.728913e+01 -3.455583e+02 1.559535e+02 -2.828323e+02 6.529339e+01 -4.934595e+02 -8.155685e+01 -1.769786e+02 1.420195e+02 -3.188006e+01 3.414377e+02 5.044380e+01 -6.460558e+01 -2.678866e+01 1.038545e+02 -6.733045e+01 6.334111e+01 5.441595e+01 1.060746e+02 -3.575064e+02 -1.745048e+02 -4.092751e+01 -1.175845e+01 -1.175764e+02 -1.508031e+02 -5.033480e+01 -7.496125e+01 8.940851e+01 -2.611432e+02 -1.693648e+02 -2.514809e+02 1.803930e+02 -3.139700e+02 1.188341e+02 -3.946506e+02 -4.612339e+01 8.050348e+01 -4.243155e+01 -1.239840e+03 -7.565732e+02 -1.111277e+03 -1.055051e+03 2.330318e+02 7.599300e+02 1.340213e+03 -3.178764e+03 -2.888696e+03 -3.070430e+03 6.700609e+02 4.245647e+03 
-4.868562e+03 -3.460665e+03 1.482998e+03 2.504531e+03 2.986531e+02 -1.322620e+03 3.237397e+03 3.323922e+03 1.567488e+03 -1.794306e+03 -5.915918e+01 -2.852474e+02 6.230358e+01 -1.152929e+02 -1.609338e+01 -7.082133e+01 -5.932934e+01 -3.980453e+01 -7.990137e+01 2.562370e+02 3.197628e+02 1.218678e+01 7.443571e+01 -1.841485e+02 -1.215598e+02 4.363455e+02 4.187193e+02 1.271789e+02 1.194894e+02 -2.102807e+02 9.207567e+01 8.228408e+01 -1.275097e+01 7.087180e+00 1.943903e+01 1.666702e+01 -6.363547e+01 -3.883379e+02 -5.184059e+02 -1.235848e+01 -2.056132e+00 3.282969e+01 -7.851602e+01 -2.892715e+01 6.609949e+01 -9.746123e+01 -3.522649e+02 -2.906016e+02 7.217333e+02 4.886804e+02 -3.796226e+02 3.218651e+02 1.046829e+03 1.341606e+03 -1.115083e+03 -7.864122e+02 -4.819057e+02 1.584345e+03 3.546084e+03 3.430979e+03 -3.536192e+03 -7.693045e+03 -5.503943e+03 -5.029690e+03 
-6.990966e+03 -8.777941e+03 -6.268609e+03 3.842144e+03 2.745926e+03 4.719653e+02 9.175802e+02 6.180722e+02 8.444871e+02 2.405560e+03 -2.845241e+03 1.762931e+03 5.571998e+02 4.391209e+01 9.834197e+01 5.258965e+01 -1.450701e+01 1.087354e+02 -1.002975e+02 8.088001e+01 8.810921e+01 -3.447563e+02 -4.404116e+02 -2.821475e+02 -8.852135e+02 4.374158e+02 1.613076e+03 8.493639e+01 4.345179e+01 -5.240563e+02 1.549149e+02 4.319118e+02 -2.713806e+00 9.079829e+01 -3.016781e+01 5.714756e+01 4.787883e+02 1.105737e+03 9.755221e+02 -3.138239e+01 -2.452719e+02 4.059574e+01 -1.675866e+02 -3.627715e+02 3.849959e+02 5.798391e+02 7.833020e+01 -8.892825e+02 1.152980e+03 5.768059e+02 4.051142e+02 2.943979e+02 1.126104e+03 3.624910e+02 5.699632e+03 2.543673e+03 1.888493e+03 7.584562e+02 1.013453e+03 -1.141336e+03 9.907074e+02 -3.161925e+03 -1.322414e+04 -4.835813e+03 
2.777914e+03 5.248333e+02 -7.310743e+02 -4.435284e+03 8.511525e+02 -3.021002e+03 -1.564194e+03 -8.683408e+02 -2.782036e+02 3.735107e+03 -6.319370e+03 1.299439e+03 -1.887747e+02 -2.091999e+02 -7.769935e+00 7.763663e+01 6.498439e+01 -8.443028e+01 3.952654e+01 1.776391e+01 -1.672680e+03 -1.537908e+01 5.827156e+02 -1.194877e+03 -2.157329e+03 2.477196e+00 2.700695e+03 3.891373e+02 3.696317e+01 -1.279344e+03 -8.001286e+02 1.093989e+03 5.197289e+02 -8.456534e+01 3.833452e+02 3.153687e+02 -4.865981e+02 1.877564e+02 1.042895e+02 -3.002810e+02 -4.768960e+01 -1.409469e+02 -7.060315e+02 -7.677552e+02 1.168557e+03 -1.808043e+02 -1.823126e+03 -2.359423e+03 1.453952e+03 9.741598e+02 -1.089347e+03 2.723494e+03 8.133237e+02 1.658999e+03 -3.428804e+03 -4.330315e+03 -4.726783e+02 -4.287837e+03 -2.984919e+03 -1.329545e+03 -4.592197e+03 1.465811e+03 4.832809e+03 -4.304219e+02 
7.542699e+03 4.275845e+03 7.124645e+03 -7.780480e+03 1.622056e+03 -5.015067e+03 -7.094763e+03 -2.372718e+03 -4.604728e+03 -1.814454e+03 -2.870193e+03 -2.079946e+03 -6.814173e+02 -3.695553e+02 -1.007758e+02 1.675674e+02 -3.725089e+01 3.037412e+02 -4.982918e+01 5.215220e+02 1.555066e+03 3.352414e+02 -1.188670e+03 -1.423348e+03 -1.098684e+03 -3.525296e+02 1.773909e+03 9.213919e+02 -9.179373e+02 -1.666418e+03 -2.394695e+03 1.499336e+03 1.910160e+03 1.242276e+02 -6.552267e+02 3.510467e+02 1.254037e+03 3.440497e+02 -1.729277e+03 -1.375740e+03 6.519763e+01 -4.023370e+02 -2.939382e+03 -2.807899e+03 -4.295861e+02 -1.152286e+03 2.064304e+02 3.479686e+02 -8.815466e+02 1.021922e+03 1.754460e+02 3.661248e+03 -3.692838e+02 -1.822514e+03 -6.480460e+02 -1.397932e+03 -4.711922e+03 -4.148348e+03 -7.460803e+02 5.016569e+03 -4.640741e+03 6.582792e+03 1.389260e+04 -5.765319e+03 
4.130857e+02 -1.302826e+03 -1.360587e+03 -6.818547e+03 1.661008e+03 -3.411424e+03 -3.500887e+03 -6.292752e+02 -3.819153e+03 -7.396140e+03 -7.635325e+03 -5.450324e+03 -1.370723e+03 -6.693278e+02 -3.650291e+02 2.384871e+02 3.368964e+02 1.811148e+01 -1.753001e+02 6.714064e+02 -7.532024e+02 -1.953825e+03 -1.177635e+03 -1.406655e+02 -1.345917e+03 8.896786e+02 1.956844e+02 -6.678920e+02 -8.465964e+02 -1.300599e+03 -2.636495e+03 5.702301e+02 1.195087e+03 1.303808e+03 -3.344351e+02 8.222740e+02 1.011177e+03 5.493234e+02 2.013439e+03 1.063922e+03 8.472882e+01 -5.622117e+02 -1.242981e+03 -4.276211e+03 -4.934455e+03 2.287233e+03 5.001181e+03 -3.934381e+03 -7.979861e+03 -2.512848e+03 1.717809e+03 -7.698708e+03 3.390003e+02 -4.722402e+03 -2.376625e+03 4.356433e+03 7.029690e+03 3.430813e+03 -1.735347e+03 -9.467316e+03 -2.927686e+03 4.936645e+03 -4.546453e+03 1.747644e+03 
-8.749368e+03 -1.909004e+03 -6.236915e+03 3.539640e+03 3.689097e+03 2.576247e+03 7.744749e+03 1.842858e+03 -2.494232e+03 -4.322825e+03 -6.877064e+03 -5.061597e+03 1.654856e+03 -4.225852e+02 -1.158861e+03 5.078382e+02 -1.103680e+02 -2.597022e+02 1.939832e+02 -1.508690e+01 -2.190123e+03 6.327749e+02 5.571603e+02 -2.051196e+03 -4.096417e+03 3.788986e+02 2.177502e+03 -6.070502e+02 -3.071159e+03 -4.438659e+03 1.152457e+03 1.386360e+03 -1.913734e+02 3.741025e+03 1.615317e+03 -8.427413e+02 -5.595415e+02 7.047506e+02 -5.518617e+01 -6.754489e+01 8.246338e+02 -1.687960e+03 1.223293e+03 6.913967e+02 -2.661226e+02 2.203843e+03 2.311743e+03 -7.634675e+03 -5.811744e+03 -3.651565e+03 -9.585694e+03 -2.941061e+03 -1.595013e+03 1.961191e+03 1.254621e+04 7.800289e+03 -1.612510e+03 1.522635e+03 -2.083694e+03 -1.113182e+04 -1.270916e+04 4.112999e+03 -3.185515e+03 -1.007776e+04 
-1.062871e+04 -7.809064e+02 9.388551e+03 7.776076e+03 -8.972750e+02 9.936458e+02 6.374201e+03 1.828201e+03 -1.171942e+03 -4.898169e+03 1.393755e+03 7.605852e+03 -4.998501e+02 -7.998250e+03 -5.821964e+03 -9.462211e+02 2.358738e+03 1.751471e+01 -9.397721e+02 9.725779e+02 3.300981e+03 3.659992e+02 1.397321e+03 -3.544313e+02 -3.557691e+03 -3.179733e+03 -1.054204e+03 -3.037355e+02 -2.132434e+03 -8.489846e+03 -1.069963e+02 2.923600e+03 1.861994e+02 -2.896335e+02 1.134525e+03 7.692690e+02 -7.535275e+02 -1.980208e+03 -1.707309e+03 -3.166637e+03 -9.960413e+02 -5.255939e+03 -2.526491e+02 5.555787e+03 3.398618e+03 1.669378e+03 2.553290e+03 4.393103e+03 3.824461e+03 3.662565e+03 -4.069725e+03 -1.084671e+03 -5.067654e+03 8.906207e+03 6.261488e+03 -3.871807e+03 -4.451468e+03 5.839261e+03 6.466580e+03 -4.926475e+03 6.351895e+03 -1.173748e+03 2.437929e+03 -6.083965e+03 
3.341730e+03 5.965436e+03 2.179762e+03 7.495000e+03 3.056087e+02 -2.004189e+03 -2.601734e+03 8.320755e+03 6.662918e+03 -1.147375e+04 -1.849402e+03 1.036189e+04 -4.688621e+03 -2.561917e+03 6.755539e+03 7.610223e+02 -3.564087e+03 -6.147537e+02 9.849165e+02 -1.746755e+03 -4.291288e+03 1.486052e+03 1.364764e+03 -2.641237e+03 -3.097279e+03 -8.658750e+02 -2.048225e+03 8.371528e+02 3.470216e+03 -5.527349e+03 -5.214120e+03 2.259276e+03 7.616518e+03 1.866006e+03 -3.964052e+03 -3.689228e+03 1.052450e+03 1.106001e+03 -1.333171e+03 -2.712832e+03 -1.779374e+03 -1.251201e+03 -5.292478e+03 -9.675064e+02 2.637435e+03 5.021213e+03 3.334567e+03 5.585464e+03 -4.432369e+03 -1.759659e+03 7.143325e+03 3.681013e+03 5.027449e+03 4.140348e+02 -5.100493e+03 -1.004216e+04 -5.929033e+03 -1.502454e+03 1.231372e+04 3.235125e+03 -1.865155e+03 1.581683e+04 -2.376921e+03 -1.100028e+04 
-1.095895e+04 1.827146e+04 1.521637e+04 -3.819728e+03 -3.437191e+03 -3.806793e+03 -2.096250e+03 5.480579e+03 7.593632e+02 -2.726604e+03 -5.917229e+02 2.379215e+03 1.933516e+03 -2.628769e+03 -6.274010e+01 -2.856406e+03 -7.699829e+03 5.355622e+03 4.438674e+03 1.029135e+03 4.625293e+02 -2.141601e+03 2.158268e+03 6.863395e+02 -2.216196e+03 2.341895e+03 5.761976e+03 2.219079e+03 7.683395e+02 6.787860e+01 -2.054203e+03 5.183141e+03 5.252902e+03 3.945854e+03 -3.413617e+03 -4.771194e+03 -2.960236e+02 4.458569e+03 3.344668e+03 1.127078e+03 7.216669e+02 2.598892e+03 -2.558116e+03 -5.806345e+03 -3.481500e+03 1.728044e+03 -4.916040e+03 -1.139895e+03 7.866217e+03 1.558366e+03 3.205949e+03 4.762310e+03 -3.494405e+02 -1.496625e+03 -9.005566e+01 2.374535e+03 5.029390e+03 -1.122685e+04 -1.486718e+04 4.337617e+03 -1.191008e+03 4.297857e+03 -5.808689e+03 -1.143791e+04 
-2.771153e+03 4.010987e+03 5.209169e+03 -1.207718e+04 -4.973712e+03 -6.464752e+03 2.160095e+03 6.810020e+03 -7.453278e+02 4.882476e+02 -7.331917e+01 -2.196863e+03 7.525287e+02 -1.630348e+03 1.732396e+03 -5.268421e+03 -8.471389e+03 -4.560264e+03 2.863235e+03 5.871616e+03 3.873949e+03 -2.980309e+03 -1.126391e+03 1.477076e+03 3.522458e+03 -6.245188e+02 -1.500515e+03 -1.461214e+03 -4.321691e+03 2.611315e+03 9.976136e+02 -1.039105e+03 -4.037378e+02 5.333323e+03 -1.840951e+03 -3.982502e+03 2.289492e+03 5.244938e+03 5.201033e+03 1.177384e+03 2.324073e+02 -3.430304e+02 2.581535e+03 -5.975735e+01 -1.602681e+02 -4.331052e+03 2.260560e+03 4.068087e+03 7.726205e+03 -1.362155e+03 -3.704774e+03 1.713208e+03 -5.248352e+03 -1.186527e+03 5.636576e+03 -4.004554e+03 4.828499e+03 -6.962778e+03 3.991654e+03 3.959456e+03 -6.914046e+03 -7.841534e+03 -2.954908e+03 4.045901e+03 
5.504468e+03 -1.542194e+03 -5.998787e+02 -4.208141e+02 -5.409324e+02 -1.602383e+03 -8.675253e+02 4.175821e+03 3.830700e+03 -1.481236e+03 6.670839e+03 8.592083e+03 4.319344e+03 1.808892e+03 -2.454207e+03 5.653607e+03 1.610847e+04 4.857366e+03 -1.424669e+02 -1.614291e+03 -1.613754e+03 4.378477e+02 -7.702964e+03 6.257000e+02 1.144266e+03 -1.866608e+02 -2.208211e+03 -1.233472e+03 -1.390123e+03 -1.226281e+03 -2.642066e+03 -5.799846e+03 -1.479158e+03 6.314271e+02 3.072380e+03 -6.810891e+02 1.474928e+03 5.002210e+03 4.866729e+03 2.780759e+03 -1.104249e+03 -1.569242e+03 2.905536e+03 1.562217e+03 5.603472e+02 -6.755546e+02 -1.586115e+03 -1.359356e+03 -7.989672e+01 2.192234e+03 -3.000472e+03 1.076080e+03 3.140884e+03 -2.901270e+02 2.467462e+03 -8.918240e+03 -9.227870e+03 3.625875e+03 1.153095e+04 4.055764e+02 -1.224671e+04 7.222308e+03 2.224458e+03 -3.874821e+01 
3.180498e+03 1.132977e+04 -1.225312e+03 -2.568968e+02 -4.275653e+03 1.322798e+03 3.448812e+03 4.834821e+03 1.241018e+04 -5.080799e+03 -1.385361e+03 8.246849e+03 2.883496e+03 3.225076e+03 2.143850e+03 9.457146e+02 4.605166e+03 7.914639e+03 1.841841e+03 -2.695275e+03 -1.172812e+03 2.407162e+03 -3.108822e+02 2.220267e+03 1.524821e+03 1.441488e+03 -1.309087e+03 -1.248315e+03 -5.437337e+02 -2.845343e+03 -4.211489e+02 3.486055e+02 -1.249175e+03 -5.181408e+02 1.473362e+03 1.487277e+03 1.070739e+03 3.178862e+03 3.697260e+03 2.511955e+03 -1.733415e+03 -8.275900e+02 7.463110e+01 2.454078e+03 3.632977e+02 1.974800e+03 -4.554417e+03 2.445638e+03 -2.860240e+03 -4.430488e+03 -3.934498e+02 8.692641e+02 6.321079e+03 8.475132e+02 -1.534591e+04 2.864886e+03 6.509145e+02 -1.508139e+03 -8.971348e+03 2.606007e+03 7.204767e+03 -7.496049e+03 -4.119714e+03 -3.077950e+02 
-2.045590e+03 -4.189619e+03 5.294658e+03 7.938033e+03 6.815313e+02 5.466898e+03 -5.978311e+03 2.906099e+03 1.379033e+03 -1.072190e+03 1.067041e+04 1.346035e+04 3.749833e+03 -2.696277e+03 -1.822556e+03 -1.013988e+04 -1.092335e+04 -4.776764e+03 -3.750550e+02 -1.867660e+03 1.185684e+03 6.464545e+02 -1.275302e+03 -1.437380e+03 1.213396e+03 -2.345321e+02 2.120399e+03 -2.036820e+03 -3.973808e+03 -1.673641e+03 -1.148497e+03 -1.380087e+03 1.807659e+03 3.048546e+03 -6.092734e+02 9.469245e+02 1.285476e+03 1.332423e+03 3.636059e+03 -5.871156e+02 -4.350048e+03 8.947810e+02 -2.897806e+02 2.417018e+02 -6.035683e+01 2.154394e+02 5.817164e+02 8.518291e+02 9.477426e+02 8.331329e+02 -3.305922e+03 -2.229183e+03 4.366764e+03 -8.157727e+02 -1.602711e+03 5.202947e+03 1.285583e+04 -5.618957e+03 -5.178991e+03 3.844923e+03 8.743542e+03 -3.732489e+03 -1.923397e+03 1.809180e+03 
8.957756e+03 2.224482e+03 6.032856e+03 2.862742e+03 -5.287332e+03 1.566143e+03 -1.133313e+03 -3.257703e+03 3.432818e+03 1.430666e+04 1.630874e+03 -1.716416e+03 4.451993e+03 3.153058e+03 -3.246975e+03 -5.409631e+03 -4.112893e+03 -4.259914e+03 -1.589780e+03 -5.872617e+01 -2.377252e+03 -6.528116e+01 2.303953e+03 1.810817e+03 -2.209363e+03 -1.909290e+03 3.094436e+03 9.610353e+02 -9.021416e+02 5.780134e+02 3.705384e+03 -3.781832e+01 4.968561e+02 -2.489058e+03 -1.704862e+02 -7.712215e+01 -4.875417e+02 -1.911461e+02 1.090195e+03 -2.450333e+03 -3.170809e+03 1.084436e+03 -5.192485e+01 1.036625e+03 2.187158e+03 -1.247962e+03 2.553106e+03 1.559902e+03 -5.471989e+02 1.529256e+03 4.456340e+03 2.906865e+03 -2.751970e+03 -5.574342e+02 6.654818e+03 7.476571e+03 5.600347e+03 1.512996e+03 5.795371e+03 -1.461380e+03 4.389735e+02 8.207599e+03 7.702725e+02 -1.328409e+03 
-1.281815e+03 -5.768676e+02 3.698697e+03 -2.343984e+03 -2.584115e+03 -5.627470e+03 1.727795e+03 3.696141e+03 4.833213e+03 7.079946e+02 -7.803438e+02 -5.503234e+03 -1.101426e+03 5.344317e+03 -3.282148e+02 -6.691449e+00 -2.369428e+02 3.157978e+02 1.108667e+03 3.161201e+03 -1.766389e+03 2.415690e+03 2.936831e+02 5.500143e+02 3.377211e+03 8.080781e+02 1.418171e+03 2.072070e+03 -2.269975e+03 -2.661925e+03 6.336822e+02 -4.962290e+02 -3.682517e+03 -2.186518e+03 6.867663e+02 -3.331645e+01 3.301415e+02 -4.428481e+02 -1.082583e+03 -1.208603e+03 -6.655774e+02 -3.623852e+02 -2.122186e+02 -1.185628e+03 -2.439201e+01 2.124297e+02 -7.933282e+02 7.211125e+02 -2.124408e+02 -1.211998e+03 1.592715e+03 1.603826e+03 4.047618e+02 1.442151e+03 7.500474e+03 8.289054e+02 -1.535129e+03 2.473772e+03 -1.399241e+03 2.415021e+03 -5.440783e+03 -7.723535e+02 -8.568104e+03 1.120669e+03 
5.841154e+03 3.310330e+03 -3.546647e+03 -2.917782e+03 -1.060742e+03 6.198058e+02 1.626150e+03 5.830216e+02 -4.100503e+02 -5.853536e+03 -4.049843e+03 -8.062661e+02 5.950186e+02 1.775148e+03 2.238473e+03 1.831653e+03 2.229593e+02 1.542568e+02 9.029089e+02 -1.363369e+02 -6.462508e+02 -1.305464e+02 1.073438e+03 -2.591123e+03 3.139909e+03 -8.092607e+02 -4.579969e+03 -1.342566e+03 1.178232e+03 1.632434e+03 -2.376516e+03 -2.209152e+03 -6.925521e+02 1.115020e+03 -1.175865e+03 -1.351768e+03 -2.926192e+02 -6.228364e+02 -8.552240e+02 6.934768e+02 9.520068e+02 -1.564532e+03 -1.712280e+03 -1.198559e+03 -1.614214e+02 4.224792e+01 -2.602538e+03 -9.209735e+02 3.416180e+02 -2.668452e+03 -1.072338e+03 -1.944543e+02 -4.833803e+02 -2.446520e+03 1.694749e+03 1.313890e+03 3.957120e+03 -1.050089e+03 -4.759231e+03 2.815490e+03 -4.303722e+03 -1.255367e+03 -5.113060e+03 -3.359449e+03 
-1.010553e+04 4.601505e+03 -2.168243e+03 -1.487594e+03 1.210358e+02 -4.443565e+02 1.742339e+03 -5.607918e+02 1.216871e+03 -1.550774e+03 -2.320296e+03 4.075848e+02 -9.519346e+01 8.252756e+01 1.321784e+03 5.325248e+02 8.117097e+02 -4.191945e+02 2.474654e+02 -1.117808e+03 2.432366e+03 -1.116194e+03 1.874637e+03 -3.447678e+03 -1.479226e+03 -2.800390e+03 -3.255538e+02 8.923245e+00 -1.731000e+03 -1.635330e+02 -2.764860e+03 -9.193181e+02 -5.948503e+02 -3.581879e+03 -2.385203e+03 -7.271547e+02 -1.202951e+03 -8.884596e+02 3.619171e+01 2.887354e+02 -2.809008e+02 4.987914e+02 1.492565e+03 1.365579e+03 3.921811e+02 -1.147919e+03 1.526075e+02 9.749009e+02 1.744940e+02 1.375947e+03 5.833998e+02 -5.401726e+02 6.397333e+02 5.271502e+02 1.540734e+03 2.403303e+03 1.961253e+03 3.859000e+02 3.636547e+03 -1.838351e+03 4.738635e+03 -6.525435e+02 2.657136e+03 -4.230850e+03 
-6.948581e+03 3.171480e+02 2.132236e+03 -9.614974e+02 -6.716700e+02 -1.803843e+03 -1.513560e+02 1.655265e+03 -2.696273e+03 -4.279722e+03 2.220984e+03 6.946226e+02 -7.790492e+02 6.610238e+01 2.001726e+02 3.031701e+02 -6.720793e+02 6.999690e+02 -1.316558e+03 2.586856e+03 2.311521e+01 -1.141741e+03 3.501139e+03 1.310762e+03 -1.863275e+03 -1.208387e+03 -7.613338e+01 -7.885090e+01 -1.851374e+03 -1.813299e+03 -1.578023e+03 -1.699428e+03 9.010538e+02 2.763749e+03 1.693231e+03 -6.305804e+02 -2.851210e+03 -2.271944e+03 -9.643278e+02 4.061403e+02 1.748526e+02 -6.584918e+02 -8.111478e+02 -3.225153e+02 -7.733897e+02 -1.008914e+03 -2.214496e+03 -1.520985e+03 -6.627221e+02 -7.498732e+01 3.224548e+02 -1.628822e+02 -8.042145e+02 1.561239e+03 6.247598e+03 3.061530e+03 -6.718731e+01 1.003209e+03 -8.305173e+02 -2.151472e+03 -1.669874e+02 -6.243306e+03 -7.607047e+02 -2.145231e+01 
-1.765280e+03 5.723638e+03 -3.168059e+02 -4.975023e+03 9.713867e+02 -3.585792e+03 -3.813486e+03 3.032071e+03 2.815015e+03 -6.738398e+03 -1.733280e+03 -8.034344e+02 -4.786810e+01 -2.722587e+02 5.517451e+00 3.138569e+02 -1.086148e+03 1.498581e+03 -1.351698e+03 3.287950e+02 -3.462654e+02 -8.541896e+01 1.345801e+03 2.385867e+03 -2.338393e+03 -6.131670e+02 -1.649772e+03 -5.076546e+02 1.568054e+03 3.649460e+02 -1.344825e+02 9.832056e+02 3.447101e+03 3.794227e+03 -5.732986e+02 1.849768e+03 -9.954269e+02 -2.677552e+03 -6.272768e+02 -7.915368e+00 9.657135e+02 9.815120e+02 2.624385e+02 -1.535841e+03 -3.953226e+03 -1.329117e+03 -3.018729e+02 -1.949761e+02 3.498725e+02 -2.557438e+02 -3.716602e+02 -1.224070e+03 -2.736057e+03 -4.139401e+02 3.450961e+03 2.335158e+03 -5.532036e+03 4.034602e+03 -2.060237e+03 -1.610765e+03 -7.767176e+03 -6.727710e+03 -6.574967e+02 -4.026083e+03 
-2.836205e+02 -3.747980e+03 4.372496e+03 -4.954634e+03 4.811504e+02 -1.964664e+03 -8.670684e+03 -2.753862e+03 -1.365057e+03 -3.245812e+03 -2.529450e+02 -1.319056e+02 8.256716e+01 -2.009191e+02 9.914405e+02 -1.547300e+03 1.460579e+03 -1.475516e+02 -1.527327e+03 -1.113306e+03 -3.436575e+02 -3.655947e+02 -6.813971e+02 -6.575231e+02 -6.853782e+02 -7.137831e+02 -1.524011e+03 -1.686645e+02 -8.337854e+02 -1.187374e+03 5.324460e+02 1.473989e+03 7.500749e+02 -2.597626e+03 -5.729863e+03 1.121697e+03 1.961656e+03 -3.719952e+03 1.243062e+03 1.920851e+03 3.142974e+02 2.775957e+03 9.204664e+02 -2.343099e+03 -5.728071e+03 -2.124343e+02 5.531260e+03 3.525564e+03 1.319551e+03 -1.441197e+02 -7.879572e+02 9.555571e+02 -4.213997e+03 -6.326792e+03 -5.484978e+03 1.239897e+03 -6.373125e+03 7.032230e+03 -7.032513e+02 -2.365058e+03 -7.880510e+03 -2.547218e+03 4.071701e+03 1.255722e+03 
1.362509e+04 1.245557e+03 -1.405044e+04 1.111758e+03 1.663571e+03 3.774876e+03 3.228034e+03 2.869463e+03 -1.533028e+03 -3.409697e+02 -4.281195e+02 -5.709417e+01 -3.014398e+01 4.221757e+02 -9.787522e+02 1.710199e+03 -2.613807e+02 -2.516593e+03 3.342238e+03 2.265684e+03 -1.361088e+03 -1.300297e+03 1.270656e+03 3.535664e+03 8.959287e+02 -2.905970e+03 -1.708784e+03 1.861203e+02 2.460734e+03 1.470956e+02 -3.820481e+03 -1.922073e+03 5.695554e+02 2.112409e+02 -5.918992e+02 -1.157543e+03 1.137497e+03 -5.029789e+03 1.849037e+02 5.996192e+03 5.977246e+03 -1.485250e+03 -4.441870e+03 -1.931691e+03 -2.515287e+03 -1.457714e+03 4.994120e+03 3.978494e+03 7.151294e+01 -1.059173e+03 -2.298409e+03 -7.900782e+02 -5.476605e+02 -3.535111e+03 -3.333543e+03 -3.425521e+03 -1.780921e+03 -3.051174e+03 -5.675801e+03 -1.247655e+02 6.209855e+03 6.893460e+03 1.564125e+03 -3.960962e+03 
-3.735737e+03 -2.797362e+03 -1.879594e+03 6.784562e+03 -1.728523e+03 4.337994e+03 8.500877e+03 2.993535e+03 5.822176e+02 -1.424412e+03 -3.518122e+02 -3.176982e+02 -1.329923e+01 -1.819994e+02 -6.391166e+02 9.360458e+02 -1.414317e+03 1.352864e+03 1.244252e+03 -2.502920e+03 5.397363e+02 1.502684e+03 8.147859e+02 -1.771529e+02 -3.274406e+02 1.508821e+03 1.607147e+03 6.163385e+02 5.723921e+02 9.136356e+02 7.773413e+02 1.392793e+02 -1.557034e+03 -1.800435e+02 1.705145e+03 -8.286988e+02 -3.753131e+02 -3.242185e+03 -1.255728e+03 5.005646e+03 2.873295e+03 -4.092288e+03 2.185567e+02 1.978643e+03 2.981547e+03 -8.234012e+02 1.948334e+03 4.453554e+03 1.079413e+03 -2.353774e+03 1.214394e+03 -2.276062e+03 4.351987e+03 -2.048835e+03 -6.015369e+03 -4.558215e+03 7.626415e+03 1.397332e+03 6.028764e+03 4.150171e+03 -2.121967e+03 1.006508e+03 3.093507e+03 -2.014360e+03 
-1.250747e+03 2.881806e+03 -2.052914e+02 -2.626916e+03 3.772067e+02 -1.045133e+03 8.016993e+02 -1.969266e+03 -1.790852e+03 -1.257075e+03 -7.939479e+02 4.240791e+02 6.233480e+01 2.441459e+02 3.917254e+02 -8.539645e+02 1.274405e+03 -1.500486e+03 2.610916e+02 1.526313e+02 -1.627185e+03 9.467332e+02 3.503192e+01 -8.608948e+02 2.911442e+02 1.939783e+03 1.672666e+03 2.017914e+03 2.284059e+03 2.836412e+02 -1.630503e+03 -1.700510e+03 -1.105860e+03 2.783149e+02 -1.138100e+03 -3.594485e+02 1.491171e+03 8.977783e+02 -7.324259e+02 3.619870e+03 1.023964e+03 1.962003e+03 -1.550326e+03 1.207281e+02 2.619276e+03 -8.487711e+02 -9.027482e+02 6.981929e+03 4.099855e+03 -1.190103e+03 -3.313466e+02 8.321039e+02 4.576145e+03 3.824769e+03 -1.303415e+02 -2.433637e+03 1.269310e+03 1.879005e+03 5.416116e+03 8.082249e+03 1.794389e+03 -1.213785e+04 -1.258670e+03 2.834338e+03 
5.497042e+02 -2.914749e+03 -1.102441e+02 -2.449317e+03 -1.179915e+03 -1.408761e+03 -3.323073e+03 -1.358617e+03 -2.133195e+03 -9.416178e+01 -8.013185e+01 6.554533e+02 8.754672e+01 4.391553e+02 2.107027e+02 4.774021e+02 5.903543e+02 2.709791e+02 1.282179e+03 -1.327495e+03 -4.020250e+02 1.948001e+03 -6.079888e+02 -1.296424e+03 -3.444451e+02 5.493012e+02 1.293268e+03 8.961637e+02 3.022530e+02 -4.889017e+02 -5.773647e+02 5.737705e+01 1.749066e+03 7.597255e+02 -1.978805e+03 8.310643e+02 3.286816e+03 3.849120e+03 -2.186523e+02 1.678874e+03 3.170496e+03 2.338231e+03 -3.456296e+03 -1.875242e+03 7.994966e+02 -7.057187e+02 -1.344525e+03 2.787966e+03 6.838673e+02 7.267824e+02 -1.057952e+03 2.278788e+03 -3.515783e+02 2.852457e+03 3.441730e+03 -1.117933e+03 -6.903781e+03 -2.024866e+03 4.876051e+02 4.176455e+03 3.624306e+03 -4.080711e+03 6.818404e+03 9.231151e+03 
-3.739012e+03 -1.591633e+03 3.719991e+03 -1.685818e+03 -2.442267e+03 -5.171390e+02 -1.504612e+03 5.664594e+02 8.964582e+02 1.756479e+03 4.624270e+02 3.765319e+02 -1.903857e+02 2.388545e+01 -1.709574e+02 -1.026089e+02 -1.380867e+02 8.017575e+02 -1.374879e+03 4.788411e+02 1.766856e+03 -3.855749e+02 -7.101505e+02 6.354677e+01 2.676499e+02 -8.668103e+02 -4.480275e+02 -2.708261e+02 4.052521e+02 -7.764785e+02 -2.589866e+03 -5.406233e+02 1.988069e+03 1.201790e+03 1.104083e+02 -9.675061e+02 -8.322911e+02 7.400476e+02 1.126306e+03 1.994814e+03 1.105012e+03 -3.015865e+03 4.553769e+02 -5.190630e+03 -1.776136e+03 7.547891e+02 -1.409448e+03 -3.819991e+03 8.180688e+01 -1.527237e+03 -1.346616e+03 -1.368629e+03 -2.063207e+03 -9.140618e+02 1.557638e+03 -9.928491e+02 6.045279e+02 -1.687467e+03 -2.391925e+03 -2.539060e+02 -4.520941e+02 1.325008e+03 6.762819e+03 7.793143e+03 
-8.165293e+01 3.905607e+03 4.383700e+03 -1.240423e+02 -4.623639e+03 8.942295e+02 3.949534e+03 4.016658e+03 2.261152e+03 1.972461e+03 4.639652e+02 2.660367e+02 -2.463381e+01 3.875617e+01 3.030045e+01 -3.432097e+02 2.279294e+02 -9.342322e+01 -8.270846e+02 1.050543e+03 6.817848e+02 -1.300428e+03 5.457223e+02 1.502571e+03 -1.643300e+03 -1.505950e+03 -1.193863e+02 1.811419e+03 1.560362e+03 7.883404e+01 -4.738890e+02 -2.045758e+03 -1.264800e+03 1.542020e+03 1.133991e+03 -8.997134e+02 -1.155840e+03 6.139750e+02 2.508805e+03 3.014169e+02 -4.191016e+02 6.104296e+02 -2.330865e+03 -3.348945e+03 1.341799e+03 2.550593e+02 1.215492e+03 3.916887e+02 2.568397e+02 -7.813932e+02 7.411921e+02 2.023275e+02 4.737351e+02 -1.101641e+02 2.012686e+03 3.447804e+03 1.474711e+03 1.165233e+03 1.613724e+03 5.924323e+02 2.605056e+02 -2.987063e+03 -1.403132e+03 3.363571e+03 
2.045308e+03 2.220653e+03 3.017739e+03 1.561776e+03 -4.619249e+03 2.525377e+03 4.467004e+03 2.296975e+03 2.096842e+03 5.540208e+02 2.831023e+02 -1.580857e+02 -2.519993e+00 -4.631989e+01 6.053314e+01 -1.278416e+02 3.108042e+02 -2.502978e+02 2.398213e+01 4.097435e+02 -4.118122e+02 -6.182030e+02 8.077682e+02 1.322537e+02 -4.578317e+02 -4.572189e+02 -1.664679e+03 -4.841935e+02 5.202851e+02 2.402205e+02 5.372379e+02 -3.562726e+01 -5.740798e+02 -1.309170e+03 -9.785663e+02 1.198376e+03 2.639999e+03 -8.793794e+01 -1.235530e+03 2.414543e+02 -3.772054e+02 2.751726e+03 -2.821307e+03 -1.197311e+03 1.754872e+03 1.115470e+03 3.509712e+02 1.689535e+03 3.740525e+02 1.626562e+02 6.158945e+02 1.324577e+03 -5.832680e+02 -2.506201e+02 -2.495199e+03 2.570326e+03 1.287792e+03 -1.107481e+03 -7.592474e+02 -7.825749e+02 -4.050208e+02 -1.568689e+02 9.270617e+02 1.737288e+03 
3.664984e+03 2.564628e+03 3.124554e+03 1.049381e+03 -4.250680e+03 1.886836e+03 7.917446e+02 1.555647e+03 2.090012e+03 -4.230933e+02 5.064107e+02 -2.043829e+02 9.019232e+01 -5.085105e+01 6.800246e+01 -6.717435e+01 1.092522e+02 -1.100832e+02 -3.350026e+01 3.534953e+02 -2.077330e+02 -5.206573e+02 1.430219e+02 1.710854e+02 1.449485e+01 -1.167453e+03 -6.583335e+02 6.402702e+02 1.808759e+02 -7.867236e+02 2.772187e+02 8.827514e+02 -6.393173e+02 4.494707e+02 1.508561e+03 -2.159939e+03 -2.606631e+03 -6.054791e+02 -1.102449e+02 3.021576e+02 3.533648e+02 9.183717e+02 6.904959e+02 -1.210625e+03 -3.346829e+03 -1.090016e+03 -9.259715e+02 -4.747439e+02 -2.100340e+02 1.902306e+02 -8.236211e+02 -1.484263e+03 -7.258659e+02 -1.179202e+03 -1.035427e+03 -1.652500e+03 -2.787051e+02 -6.660491e+02 8.489211e+01 7.846094e+02 9.303109e+02 1.310961e+03 1.996725e+03 1.206776e+03 
3.100576e+03 3.216925e+03 4.122776e+03 -1.159065e+02 -4.161377e+03 1.846451e+03 -1.728730e+03 1.482301e+03 1.156785e+03 -1.087210e+03 6.805408e+02 -2.711323e+02 1.251992e+02 -7.032601e+01 4.083263e+01 -3.893804e+01 2.594957e+01 -7.118484e+01 1.356509e+01 1.925232e+02 -2.162427e+02 -1.138743e+02 2.763343e+01 3.823641e+01 3.194063e+01 -2.967862e+02 -1.753266e+02 3.299630e+02 5.280615e+02 1.276397e+02 -6.649669e+02 8.767765e+01 8.131573e+02 7.738340e+02 -2.592024e+02 -4.941184e+02 6.659300e+02 6.095439e+02 5.638959e+02 -2.675989e+01 3.646109e+01 1.354475e+02 1.902153e+02 -4.579438e+02 6.476901e+02 3.831146e+02 3.228383e+02 1.127372e+02 1.202991e+02 -5.786526e+01 1.773007e+02 3.293409e+02 6.048700e+02 2.857777e+02 2.338028e+03 2.168142e+03 4.055930e+02 2.480951e+02 1.202670e+02 -5.288664e+01 -1.473317e+02 3.252094e+02 4.295284e+01 1.779959e+03 
1.812503e+03 3.119691e+03 4.346091e+03 -1.391198e+02 -3.903574e+03 2.996601e+03 -2.799165e+03 -2.342697e+02 -6.438879e+01 -7.643758e+02 3.662372e+02 -1.700166e+02 1.105910e+02 -5.159715e+01 2.751898e+01 -2.512262e+01 -6.067607e+00 -3.544693e+01 -1.073838e+01 6.405725e+01 -3.439049e+01 -4.813879e+01 -1.286912e+00 5.637565e+01 3.126219e+01 -5.229595e+01 -2.049713e+02 -1.253537e+02 -7.215569e+01 -5.736116e+01 1.896920e+02 -1.198255e+02 -4.442516e+02 -6.673146e-01 3.508902e+02 5.606775e+01 3.879256e+02 1.107368e+02 -9.205262e+01 -1.918743e+01 1.146013e+01 2.092611e+01 2.396008e+02 -3.454255e+01 -1.062390e+01 2.017742e+02 1.005908e+02 5.939930e+00 -4.599624e+01 6.848081e+01 -1.327808e+02 -1.753371e+02 -3.706671e+02 -2.165896e+02 -1.297332e+03 -3.269560e+02 -7.094659e+01 -3.565086e+02 -5.566875e+02 -4.481982e+02 -4.917469e+02 -2.530126e+02 1.046054e+01 6.859091e+02 