# vtk DataFile Version 2.0
Comment goes here
ASCII

DATASET STRUCTURED_POINTS
FIELD FieldData 1
TIME 1 1 double
0.03700000
DIMENSIONS    64   64   1

ORIGIN    0.000   0.000   0.000
SPACING   0.03125 0.03125   1.000

POINT_DATA   4096
SCALARS P double
LOOKUP_TABLE default

-3.509350e+01 -1.940632e+02 -1.946450e+01 -2.053231e+02 1.833050e+01 1.186115e+02 -2.155249e+01 1.172160e+02 -3.051052e+01 1.096953e+02 -3.020961e+01 9.474394e+01 -2.664656e+01 8.241701e+01 -2.791750e+01 6.995595e+01 -2.374522e+01 5.237784e+01 -1.741324e+01 3.808089e+01 -2.039697e+01 3.528373e+01 -2.804584e+01 2.558545e+01 -2.495856e+01 9.316847e+00 -2.145764e+01 -7.620642e+00 -1.589934e+01 -2.725921e+01 -1.298864e+01 -4.107645e+01 -1.629131e+01 -5.128603e+01 -2.390842e+01 -5.436140e+01 -3.700388e+01 -5.567461e+01 -4.895339e+01 -5.822620e+01 -5.910156e+01 -6.148779e+01 -6.814456e+01 -6.521495e+01 -7.517016e+01 -7.001066e+01 -8.125394e+01 -7.415068e+01 -8.610640e+01 -8.194744e+01 -8.174150e+01 -9.986186e+01 -6.978031e+01 -1.194031e+02 -6.138647e+01 -1.341501e+02 -5.545520e+01 -1.457953e+02 -5.140163e+01 -1.546566e+02 -4.939247e+01 -1.621243e+02 -4.363354e+01 -1.702755e+02 
-1.105223e+01 -1.283828e+02 -2.321729e+00 -1.353940e+02 2.489852e+01 1.059787e+02 -3.722162e+00 1.037830e+02 -8.891652e+00 9.815037e+01 -8.810369e+00 8.834000e+01 -7.124390e+00 8.022676e+01 -8.573507e+00 7.206131e+01 -6.830051e+00 6.062053e+01 -3.468912e+00 5.061847e+01 -5.131875e+00 4.710796e+01 -9.412333e+00 3.958171e+01 -7.654657e+00 2.879464e+01 -6.260106e+00 1.796598e+01 -3.575481e+00 5.317636e+00 -2.050143e+00 -4.307033e+00 -3.563862e+00 -1.253755e+01 -6.748951e+00 -1.726377e+01 -1.260752e+01 -2.141099e+01 -1.753554e+01 -2.644398e+01 -2.140940e+01 -3.189128e+01 -2.480361e+01 -3.754521e+01 -2.725431e+01 -4.372073e+01 -2.951575e+01 -4.911593e+01 -3.187576e+01 -5.587914e+01 -2.970085e+01 -6.780120e+01 -2.380172e+01 -8.016266e+01 -2.034181e+01 -8.966861e+01 -1.809472e+01 -9.761036e+01 -1.671110e+01 -1.039934e+02 -1.658081e+01 -1.092719e+02 -1.437358e+01 -1.141496e+02 
2.771610e+00 -8.757803e+01 4.780015e+00 -9.088012e+01 1.367809e+01 9.509470e+01 4.814377e+00 9.214765e+01 3.744956e+00 8.789455e+01 3.581973e+00 8.240035e+01 3.584158e+00 7.697917e+01 2.774231e+00 7.131318e+01 2.662570e+00 6.463330e+01 3.072243e+00 5.786277e+01 2.607863e+00 5.220417e+01 1.578958e+00 4.564542e+01 1.657056e+00 3.872489e+01 1.386057e+00 3.198810e+01 1.542870e+00 2.471243e+01 1.718466e+00 1.792372e+01 1.530358e+00 1.106757e+01 1.409991e+00 4.612685e+00 9.060272e-01 -1.899569e+00 6.334418e-01 -8.662553e+00 5.692583e-01 -1.554235e+01 5.398237e-01 -2.244579e+01 6.438368e-01 -2.946954e+01 7.790011e-01 -3.622150e+01 6.603303e-01 -4.283709e+01 1.145877e+00 -5.003278e+01 2.115995e+00 -5.692110e+01 2.443470e+00 -6.305546e+01 2.663930e+00 -6.881570e+01 2.805525e+00 -7.401481e+01 2.574404e+00 -7.851408e+01 2.686271e+00 -8.214515e+01 
3.082890e+00 -9.015610e+01 4.951448e+00 -9.398373e+01 6.209391e+00 9.752741e+01 5.047790e+00 9.411920e+01 3.873844e+00 8.955770e+01 3.339779e+00 8.403593e+01 3.072351e+00 7.822349e+01 2.599060e+00 7.208656e+01 2.471382e+00 6.538729e+01 2.582749e+00 5.868380e+01 2.280370e+00 5.245842e+01 1.776888e+00 4.582342e+01 1.802963e+00 3.881012e+01 1.859475e+00 3.166765e+01 2.058349e+00 2.429924e+01 2.145458e+00 1.720505e+01 1.880586e+00 1.032350e+01 1.416408e+00 3.771616e+00 7.263188e-01 -2.719450e+00 1.787450e-01 -9.347519e+00 -1.392968e-01 -1.609173e+01 -3.001013e-01 -2.289511e+01 -3.245327e-01 -2.975305e+01 -3.125201e-01 -3.654083e+01 -2.958865e-01 -4.341946e+01 1.478668e-01 -5.066437e+01 8.955608e-01 -5.774935e+01 1.376250e+00 -6.425157e+01 1.689989e+00 -7.022186e+01 1.883550e+00 -7.562839e+01 1.974281e+00 -8.050857e+01 2.371453e+00 -8.506218e+01 
3.390857e+00 -8.811401e+01 4.594748e+00 -9.172310e+01 5.733490e+00 9.586436e+01 4.786320e+00 9.238061e+01 4.002043e+00 8.794007e+01 3.578617e+00 8.273192e+01 3.285917e+00 7.717267e+01 2.872806e+00 7.127035e+01 2.648165e+00 6.491549e+01 2.568727e+00 5.843635e+01 2.264814e+00 5.213205e+01 1.835476e+00 4.556613e+01 1.668160e+00 3.879456e+01 1.527289e+00 3.196412e+01 1.509326e+00 2.499335e+01 1.508820e+00 1.812749e+01 1.396743e+00 1.130504e+01 1.247253e+00 4.604246e+00 9.973031e-01 -2.101922e+00 8.189768e-01 -8.894345e+00 7.332588e-01 -1.575574e+01 7.145828e-01 -2.264674e+01 7.608924e-01 -2.955775e+01 8.483914e-01 -3.638460e+01 9.469159e-01 -4.316381e+01 1.275265e+00 -5.000872e+01 1.758893e+00 -5.664683e+01 2.087362e+00 -6.287724e+01 2.326036e+00 -6.872407e+01 2.503580e+00 -7.413153e+01 2.621211e+00 -7.906283e+01 2.903795e+00 -8.358883e+01 
3.212304e+00 -9.120907e+01 4.327575e+00 -9.531927e+01 5.207853e+00 9.828962e+01 4.576909e+00 9.442999e+01 3.839503e+00 8.970384e+01 3.318001e+00 8.428629e+01 2.956406e+00 7.844279e+01 2.623671e+00 7.225399e+01 2.406708e+00 6.573897e+01 2.285901e+00 5.911965e+01 2.077780e+00 5.254372e+01 1.855236e+00 4.580425e+01 1.780193e+00 3.887058e+01 1.774768e+00 3.181226e+01 1.792562e+00 2.467896e+01 1.747029e+00 1.763221e+01 1.535020e+00 1.071475e+01 1.202626e+00 3.941329e+00 7.776831e-01 -2.774839e+00 4.110904e-01 -9.525305e+00 1.506987e-01 -1.632515e+01 7.683480e-03 -2.316911e+01 -4.880567e-02 -3.004321e+01 -3.289753e-02 -3.692719e+01 5.665543e-02 -4.385372e+01 3.423636e-01 -5.084720e+01 7.639038e-01 -5.769192e+01 1.135083e+00 -6.419228e+01 1.441499e+00 -7.030044e+01 1.712300e+00 -7.600260e+01 2.009012e+00 -8.132857e+01 2.485853e+00 -8.636645e+01 
3.404307e+00 -8.990371e+01 4.208995e+00 -9.413309e+01 5.006472e+00 9.737684e+01 4.443851e+00 9.332825e+01 3.875767e+00 8.861086e+01 3.454926e+00 8.332721e+01 3.126360e+00 7.764825e+01 2.805043e+00 7.163644e+01 2.532155e+00 6.530730e+01 2.339829e+00 5.883185e+01 2.086356e+00 5.231125e+01 1.841156e+00 4.567137e+01 1.657844e+00 3.890536e+01 1.546800e+00 3.206796e+01 1.465277e+00 2.516593e+01 1.417015e+00 1.828395e+01 1.311376e+00 1.142440e+01 1.200185e+00 4.609126e+00 1.040885e+00 -2.208820e+00 9.319707e-01 -9.055814e+00 8.509719e-01 -1.594100e+01 8.386814e-01 -2.284238e+01 8.494743e-01 -2.974934e+01 9.191159e-01 -3.661786e+01 1.020783e+00 -4.344568e+01 1.257775e+00 -5.020796e+01 1.567174e+00 -5.678761e+01 1.839662e+00 -6.309052e+01 2.073881e+00 -6.909133e+01 2.291583e+00 -7.476559e+01 2.529526e+00 -8.010442e+01 2.880297e+00 -8.513838e+01 
2.964913e+00 -9.311629e+01 3.734965e+00 -9.782642e+01 4.450273e+00 9.994262e+01 4.023727e+00 9.547784e+01 3.538462e+00 9.044374e+01 3.136543e+00 8.489947e+01 2.826479e+00 7.896490e+01 2.556223e+00 7.271639e+01 2.297724e+00 6.618586e+01 2.126013e+00 5.950910e+01 1.931408e+00 5.278405e+01 1.797342e+00 4.595623e+01 1.689751e+00 3.902994e+01 1.656823e+00 3.200811e+01 1.590120e+00 2.495846e+01 1.516030e+00 1.792352e+01 1.325104e+00 1.096745e+01 1.100085e+00 4.067219e+00 8.018476e-01 -2.778649e+00 5.628692e-01 -9.642274e+00 3.505721e-01 -1.651045e+01 2.434755e-01 -2.342345e+01 1.667309e-01 -3.034560e+01 1.771502e-01 -3.730250e+01 2.232419e-01 -4.425499e+01 4.070118e-01 -5.120228e+01 6.876120e-01 -5.799056e+01 9.738922e-01 -6.453321e+01 1.253342e+00 -7.079939e+01 1.544411e+00 -7.678047e+01 1.888400e+00 -8.248702e+01 2.350254e+00 -8.793978e+01 
3.124611e+00 -9.226305e+01 3.695721e+00 -9.720292e+01 4.285241e+00 9.966203e+01 3.932029e+00 9.493620e+01 3.554093e+00 8.980743e+01 3.235380e+00 8.428188e+01 2.969753e+00 7.842466e+01 2.705617e+00 7.228070e+01 2.388498e+00 6.582904e+01 2.201715e+00 5.925758e+01 1.937073e+00 5.260280e+01 1.791647e+00 4.588695e+01 1.593636e+00 3.907952e+01 1.535277e+00 3.222567e+01 1.404251e+00 2.531779e+01 1.382887e+00 1.841411e+01 1.250248e+00 1.150449e+01 1.206526e+00 4.618814e+00 1.058124e+00 -2.278935e+00 1.025507e+00 -9.179479e+00 9.234540e-01 -1.610931e+01 9.475808e-01 -2.304355e+01 9.013358e-01 -2.999363e+01 9.688945e-01 -3.691673e+01 9.866931e-01 -4.381523e+01 1.181424e+00 -5.060212e+01 1.417717e+00 -5.720766e+01 1.639625e+00 -6.360672e+01 1.853770e+00 -6.979168e+01 2.077648e+00 -7.575240e+01 2.337961e+00 -8.148434e+01 2.676623e+00 -8.699247e+01 
2.536423e+00 -9.545177e+01 3.074678e+00 -1.008329e+02 3.589018e+00 1.023066e+02 3.365174e+00 9.716271e+01 3.090990e+00 9.169900e+01 2.847093e+00 8.589752e+01 2.657322e+00 7.979430e+01 2.481863e+00 7.342679e+01 2.174088e+00 6.675715e+01 2.012132e+00 5.993599e+01 1.770054e+00 5.311684e+01 1.707696e+00 4.619590e+01 1.546991e+00 3.926739e+01 1.555436e+00 3.222117e+01 1.414092e+00 2.521022e+01 1.390182e+00 1.813604e+01 1.176712e+00 1.116227e+01 1.069765e+00 4.150609e+00 8.021120e-01 -2.760303e+00 6.913069e-01 -9.742798e+00 4.780325e-01 -1.665416e+01 4.481021e-01 -2.366907e+01 3.213000e-01 -3.063606e+01 3.503589e-01 -3.770568e+01 2.849827e-01 -4.471230e+01 3.881404e-01 -5.173129e+01 5.977252e-01 -5.853167e+01 8.223484e-01 -6.514449e+01 1.068553e+00 -7.158040e+01 1.343629e+00 -7.783374e+01 1.665718e+00 -8.390210e+01 2.060067e+00 -8.978334e+01 
2.685035e+00 -9.487802e+01 3.062009e+00 -1.005203e+02 3.429348e+00 1.025009e+02 3.288568e+00 9.707391e+01 3.104385e+00 9.145388e+01 2.936305e+00 8.559476e+01 2.799682e+00 7.949722e+01 2.644247e+00 7.317412e+01 2.227847e+00 6.644766e+01 2.115918e+00 5.974679e+01 1.737160e+00 5.295221e+01 1.755223e+00 4.618305e+01 1.447771e+00 3.929641e+01 1.555578e+00 3.243056e+01 1.287086e+00 2.546342e+01 1.422254e+00 1.854889e+01 1.152938e+00 1.156104e+01 1.284191e+00 4.643399e+00 1.012776e+00 -2.344873e+00 1.158567e+00 -9.271135e+00 9.205795e-01 -1.627592e+01 1.101073e+00 -2.323061e+01 8.887822e-01 -3.028258e+01 1.054901e+00 -3.726473e+01 8.357186e-01 -4.434776e+01 1.072993e+00 -5.118573e+01 1.269532e+00 -5.781939e+01 1.443879e+00 -6.432127e+01 1.630754e+00 -7.070498e+01 1.836880e+00 -7.695929e+01 2.071821e+00 -8.307594e+01 2.351493e+00 -8.905237e+01 
2.007029e+00 -9.797348e+01 2.341299e+00 -1.040133e+02 2.627855e+00 1.051414e+02 2.616173e+00 9.931917e+01 2.540104e+00 9.337087e+01 2.465680e+00 8.725005e+01 2.443515e+00 8.094148e+01 2.472673e+00 7.439611e+01 2.108757e+00 6.736726e+01 1.881482e+00 6.040112e+01 1.554140e+00 5.348283e+01 1.604882e+00 4.649865e+01 1.349606e+00 3.954073e+01 1.493528e+00 3.245951e+01 1.229765e+00 2.543747e+01 1.350292e+00 1.832009e+01 1.032743e+00 1.130830e+01 1.105442e+00 4.216055e+00 7.575119e-01 -2.756054e+00 8.328150e-01 -9.827783e+00 5.276382e-01 -1.678540e+01 6.628456e-01 -2.387673e+01 4.169002e-01 -3.093002e+01 5.439380e-01 -3.810328e+01 2.974712e-01 -4.535551e+01 2.638706e-01 -5.245856e+01 4.428860e-01 -5.921810e+01 6.375873e-01 -6.590466e+01 8.626140e-01 -7.252408e+01 1.107520e+00 -7.905123e+01 1.376494e+00 -8.547356e+01 1.677345e+00 -9.178506e+01 
2.153865e+00 -9.756432e+01 2.343172e+00 -1.038652e+02 2.474469e+00 1.056726e+02 2.552558e+00 9.957303e+01 2.557944e+00 9.344738e+01 2.550360e+00 8.723430e+01 2.583041e+00 8.088428e+01 2.660346e+00 7.432878e+01 2.136056e+00 6.684765e+01 1.896407e+00 6.036209e+01 1.413884e+00 5.316334e+01 1.685256e+00 4.663578e+01 1.141935e+00 3.936133e+01 1.616760e+00 3.278782e+01 9.980153e-01 2.541266e+01 1.550704e+00 1.882102e+01 8.694883e-01 1.139594e+01 1.466422e+00 4.812640e+00 7.499749e-01 -2.628717e+00 1.394255e+00 -9.203106e+00 6.792805e-01 -1.665368e+01 1.390215e+00 -2.322840e+01 6.500027e-01 -3.081701e+01 1.319919e+00 -3.744275e+01 3.575536e-01 -4.543709e+01 9.435729e-01 -5.193601e+01 1.074673e+00 -5.849820e+01 1.215087e+00 -6.511546e+01 1.389125e+00 -7.172263e+01 1.570076e+00 -7.827833e+01 1.756041e+00 -8.476998e+01 1.951538e+00 -9.119810e+01 
1.424393e+00 -1.005274e+02 1.562384e+00 -1.071824e+02 1.609099e+00 1.082330e+02 1.811492e+00 1.017660e+02 1.913865e+00 9.532260e+01 1.975609e+00 8.887097e+01 2.074067e+00 8.245140e+01 2.376271e+00 7.619617e+01 2.776312e+00 6.700940e+01 9.801282e-01 6.144919e+01 1.692977e+00 5.314345e+01 9.356984e-01 4.740751e+01 1.480827e+00 3.908786e+01 9.598170e-01 3.329026e+01 1.365837e+00 2.486386e+01 8.718194e-01 1.907534e+01 1.184916e+00 1.060650e+01 6.966378e-01 4.860277e+00 9.536971e-01 -3.602127e+00 5.087981e-01 -9.314032e+00 7.636092e-01 -1.775145e+01 4.398908e-01 -2.339587e+01 7.058893e-01 -3.209819e+01 3.409693e-01 -3.762006e+01 5.760470e-01 -4.743400e+01 -3.643322e-01 -5.320722e+01 1.187818e-01 -5.985475e+01 4.116057e-01 -6.669523e+01 6.447080e-01 -7.353810e+01 8.525900e-01 -8.034541e+01 1.051238e+00 -8.711104e+01 1.244922e+00 -9.383734e+01 
1.578099e+00 -1.002023e+02 1.583338e+00 -1.071045e+02 1.480898e+00 1.089763e+02 1.775540e+00 1.022511e+02 1.955824e+00 9.564030e+01 2.076183e+00 8.913048e+01 2.205241e+00 8.280124e+01 2.515011e+00 7.678403e+01 2.892493e+00 6.684208e+01 1.358545e+00 6.182404e+01 2.000416e+00 5.304096e+01 1.284753e+00 4.786380e+01 1.819177e+00 3.911544e+01 1.270849e+00 3.388706e+01 1.750569e+00 2.503721e+01 1.188940e+00 1.981255e+01 1.668014e+00 1.090041e+01 1.091183e+00 5.695865e+00 1.587573e+00 -3.236898e+00 1.020822e+00 -8.424087e+00 1.561735e+00 -1.733852e+01 1.065745e+00 -2.242655e+01 1.665181e+00 -3.165779e+01 1.017596e+00 -3.650406e+01 1.701582e+00 -4.717450e+01 -4.015884e-02 -5.226762e+01 5.943599e-01 -5.898185e+01 9.368200e-01 -6.588937e+01 1.147135e+00 -7.277573e+01 1.297846e+00 -7.963594e+01 1.418009e+00 -8.648349e+01 1.514319e+00 -9.333365e+01 
8.249268e-01 -1.030087e+02 7.755924e-01 -1.102235e+02 5.981450e-01 1.113966e+02 1.006881e+00 1.043309e+02 1.285015e+00 9.739590e+01 1.482095e+00 9.055250e+01 1.640094e+00 8.378354e+01 1.772288e+00 7.700556e+01 1.349129e+00 6.828561e+01 1.496424e+00 6.191516e+01 1.082966e+00 5.392285e+01 1.357241e+00 4.755417e+01 9.691981e-01 3.962351e+01 1.279479e+00 3.322770e+01 8.969454e-01 2.527615e+01 1.146524e+00 1.887447e+01 7.711616e-01 1.092382e+01 9.663981e-01 4.535561e+00 6.187471e-01 -3.394526e+00 7.899349e-01 -9.772151e+00 5.092077e-01 -1.767820e+01 6.920275e-01 -2.404248e+01 4.786274e-01 -3.213194e+01 5.125937e-01 -3.847924e+01 2.454921e-01 -4.726446e+01 -2.941832e-01 -5.368123e+01 4.084672e-02 -6.053651e+01 2.802589e-01 -6.754462e+01 4.630275e-01 -7.459438e+01 6.056741e-01 -8.166071e+01 7.172055e-01 -8.874415e+01 7.953248e-01 -9.585503e+01 
9.940818e-01 -1.027082e+02 8.254657e-01 -1.101502e+02 5.147391e-01 1.122366e+02 1.010842e+00 1.049227e+02 1.370690e+00 9.779260e+01 1.647427e+00 9.078560e+01 1.892083e+00 8.382545e+01 2.116173e+00 7.674308e+01 1.749216e+00 6.910277e+01 1.870654e+00 6.190545e+01 1.479894e+00 5.461245e+01 1.770261e+00 4.757925e+01 1.352357e+00 4.035868e+01 1.725101e+00 3.334730e+01 1.278367e+00 2.611304e+01 1.666067e+00 1.910487e+01 1.197453e+00 1.185909e+01 1.595531e+00 4.855476e+00 1.122069e+00 -2.394889e+00 1.538208e+00 -9.396233e+00 1.076847e+00 -1.665335e+01 1.516011e+00 -2.367052e+01 1.030175e+00 -3.105905e+01 1.375493e+00 -3.815682e+01 7.069573e-01 -4.587517e+01 7.592478e-01 -5.285433e+01 8.196771e-01 -5.978902e+01 8.982288e-01 -6.680397e+01 9.863066e-01 -7.387650e+01 1.051705e+00 -8.099145e+01 1.082828e+00 -8.815533e+01 1.069591e+00 -9.538609e+01 
2.368840e-01 -1.053414e+02 1.191878e-02 -1.130565e+02 -3.724241e-01 1.144667e+02 2.241046e-01 1.068415e+02 6.648041e-01 9.940004e+01 9.916977e-01 9.207371e+01 1.235718e+00 8.478329e+01 1.390204e+00 7.741649e+01 1.245717e+00 6.989480e+01 1.298611e+00 6.241493e+01 1.143538e+00 5.508025e+01 1.262050e+00 4.775423e+01 1.075030e+00 4.050778e+01 1.221485e+00 3.322828e+01 1.002585e+00 2.600248e+01 1.140540e+00 1.874443e+01 8.894786e-01 1.153240e+01 1.018948e+00 4.292357e+00 7.529423e-01 -2.908399e+00 8.892895e-01 -1.014088e+01 6.278712e-01 -1.734722e+01 7.776559e-01 -2.460490e+01 4.975001e-01 -3.189992e+01 5.881717e-01 -3.923418e+01 2.148689e-01 -4.671456e+01 2.114173e-01 -5.406015e+01 2.455595e-01 -6.121748e+01 2.887339e-01 -6.840077e+01 3.446627e-01 -7.564091e+01 3.863500e-01 -8.294149e+01 3.950012e-01 -9.031208e+01 3.530782e-01 -9.777034e+01 
4.274470e-01 -1.050202e+02 9.636569e-02 -1.129387e+02 -4.056968e-01 1.153168e+02 2.701397e-01 1.074632e+02 7.855752e-01 9.983322e+01 1.180581e+00 9.235400e+01 1.479932e+00 8.495111e+01 1.661036e+00 7.756032e+01 1.575102e+00 7.013140e+01 1.609263e+00 6.267199e+01 1.504452e+00 5.535117e+01 1.580464e+00 4.804364e+01 1.454386e+00 4.082720e+01 1.552116e+00 3.359158e+01 1.409486e+00 2.640884e+01 1.511017e+00 1.920146e+01 1.352030e+00 1.202940e+01 1.456517e+00 4.833580e+00 1.289152e+00 -2.339283e+00 1.400164e+00 -9.538110e+00 1.226713e+00 -1.673070e+01 1.333290e+00 -2.396460e+01 1.117673e+00 -3.123465e+01 1.158270e+00 -3.854258e+01 8.430721e-01 -4.592547e+01 8.723430e-01 -5.323892e+01 8.806585e-01 -6.044743e+01 8.687500e-01 -6.766253e+01 8.572230e-01 -7.493353e+01 8.290259e-01 -8.228204e+01 7.630787e-01 -8.972791e+01 6.379390e-01 -9.729643e+01 
-3.199191e-01 -1.074680e+02 -7.074945e-01 -1.156224e+02 -1.283467e+00 1.173336e+02 -5.175878e-01 1.092088e+02 6.908369e-02 1.013092e+02 5.117151e-01 9.356788e+01 8.326919e-01 8.592316e+01 1.025720e+00 7.832868e+01 1.039462e+00 7.075486e+01 1.087547e+00 6.316928e+01 1.066200e+00 5.569854e+01 1.112147e+00 4.825106e+01 1.059872e+00 4.089425e+01 1.096452e+00 3.353172e+01 1.018371e+00 2.623136e+01 1.037981e+00 1.891224e+01 9.351552e-01 1.164140e+01 9.411581e-01 4.345386e+00 8.239541e-01 -2.913508e+00 8.257548e-01 -1.020718e+01 7.015120e-01 -1.748031e+01 6.955922e-01 -2.480796e+01 5.439934e-01 -3.214441e+01 4.967527e-01 -3.954642e+01 3.002866e-01 -4.698067e+01 2.758147e-01 -5.443324e+01 2.774010e-01 -6.180905e+01 2.593741e-01 -6.918493e+01 2.314890e-01 -7.661601e+01 1.820802e-01 -8.413346e+01 9.077771e-02 -9.176194e+01 -6.662931e-02 -9.952873e+01 
-1.039598e-01 -1.070904e+02 -5.852039e-01 -1.154220e+02 -1.266008e+00 1.181334e+02 -4.294629e-01 1.098108e+02 2.224494e-01 1.017503e+02 7.237135e-01 9.388730e+01 1.093972e+00 8.616558e+01 1.323430e+00 7.854446e+01 1.376495e+00 7.097199e+01 1.428837e+00 6.340464e+01 1.426143e+00 5.594178e+01 1.464927e+00 4.852455e+01 1.437108e+00 4.119327e+01 1.467958e+00 3.387783e+01 1.424515e+00 2.661474e+01 1.446146e+00 1.934792e+01 1.388918e+00 1.211473e+01 1.403351e+00 4.866972e+00 1.336933e+00 -2.360471e+00 1.345809e+00 -9.613450e+00 1.267511e+00 -1.686240e+01 1.257673e+00 -2.415527e+01 1.140572e+00 -3.146752e+01 1.077875e+00 -3.883418e+01 9.087562e-01 -4.623300e+01 8.627862e-01 -5.365984e+01 8.412189e-01 -6.104588e+01 7.915542e-01 -6.843951e+01 7.190190e-01 -7.589683e+01 6.155091e-01 -8.345732e+01 4.615476e-01 -9.115293e+01 2.320020e-01 -9.901718e+01 
-8.306450e-01 -1.093451e+02 -1.365751e+00 -1.178769e+02 -2.117563e+00 1.199251e+02 -1.199315e+00 1.113743e+02 -4.815850e-01 1.030890e+02 6.963408e-02 9.501007e+01 4.767063e-01 8.708722e+01 7.395421e-01 7.928179e+01 8.401383e-01 7.154672e+01 9.287959e-01 6.384003e+01 9.552637e-01 5.624236e+01 1.007039e+00 4.869866e+01 9.971589e-01 4.124288e+01 1.024642e+00 3.381189e+01 9.878927e-01 2.643802e+01 9.913641e-01 1.906797e+01 9.310509e-01 1.173680e+01 9.157868e-01 4.395889e+00 8.401810e-01 -2.920173e+00 8.130299e-01 -1.026051e+01 7.255986e-01 -1.759335e+01 6.811881e-01 -2.497221e+01 5.660854e-01 -3.236709e+01 4.822936e-01 -3.982606e+01 3.372394e-01 -4.731420e+01 2.722950e-01 -5.485028e+01 2.428203e-01 -6.236106e+01 1.877059e-01 -6.988803e+01 1.044947e-01 -7.748622e+01 -1.585102e-02 -8.519639e+01 -1.930385e-01 -9.305189e+01 -4.535981e-01 -1.010875e+02 
-5.852199e-01 -1.088825e+02 -1.201807e+00 -1.175637e+02 -2.046930e+00 1.206245e+02 -1.067642e+00 1.119106e+02 -2.949266e-01 1.034969e+02 3.078111e-01 9.532528e+01 7.660811e-01 8.734227e+01 1.079780e+00 7.950263e+01 1.203182e+00 7.177315e+01 1.292785e+00 6.402989e+01 1.323099e+00 5.646940e+01 1.381038e+00 4.892856e+01 1.378937e+00 4.153428e+01 1.421121e+00 3.412105e+01 1.398421e+00 2.681709e+01 1.422480e+00 1.946882e+01 1.382373e+00 1.220854e+01 1.392187e+00 4.887330e+00 1.340086e+00 -2.360838e+00 1.338190e+00 -9.685845e+00 1.272910e+00 -1.695402e+01 1.249676e+00 -2.432251e+01 1.150886e+00 -3.165992e+01 1.073125e+00 -3.911864e+01 9.227432e-01 -4.655722e+01 8.123600e-01 -5.410444e+01 7.625590e-01 -6.160271e+01 6.822710e-01 -6.912554e+01 5.688133e-01 -7.673797e+01 4.093946e-01 -8.448224e+01 1.828453e-01 -9.239399e+01 -1.376128e-01 -1.005119e+02 
-1.281595e+00 -1.109399e+02 -1.946391e+00 -1.197868e+02 -2.855794e+00 1.221799e+02 -1.803457e+00 1.132801e+02 -9.710661e-01 1.046836e+02 -3.191522e-01 9.633505e+01 1.828471e-01 8.818234e+01 5.402277e-01 8.017727e+01 6.798338e-01 7.228110e+01 8.064545e-01 6.440022e+01 8.328927e-01 5.671635e+01 9.268071e-01 4.906627e+01 9.111012e-01 4.155639e+01 9.828327e-01 3.404427e+01 9.341042e-01 2.663141e+01 9.768955e-01 1.919425e+01 9.005122e-01 1.183280e+01 9.207972e-01 4.431356e+00 8.267687e-01 -2.911384e+00 8.317267e-01 -1.031103e+01 7.252744e-01 -1.766998e+01 7.117549e-01 -2.511234e+01 5.791566e-01 -3.254572e+01 5.129307e-01 -4.008870e+01 3.327365e-01 -4.764455e+01 2.294745e-01 -5.528133e+01 1.780316e-01 -6.286592e+01 9.070488e-02 -7.049376e+01 -3.146369e-02 -7.822651e+01 -2.040137e-01 -8.610113e+01 -4.499772e-01 -9.415100e+01 -7.975199e-01 -1.024147e+02 
-1.001447e+00 -1.103697e+02 -1.735174e+00 -1.193367e+02 -2.726011e+00 1.227317e+02 -1.624692e+00 1.137037e+02 -7.510508e-01 1.050123e+02 -5.967040e-02 9.660568e+01 4.920978e-01 8.842724e+01 9.315622e-01 8.038613e+01 1.127571e+00 7.249290e+01 1.164232e+00 6.451321e+01 1.220502e+00 5.691744e+01 1.295316e+00 4.923951e+01 1.308006e+00 4.183849e+01 1.382902e+00 3.431020e+01 1.360077e+00 2.700794e+01 1.410608e+00 1.955786e+01 1.361482e+00 1.230669e+01 1.393233e+00 4.891941e+00 1.327732e+00 -2.341805e+00 1.346397e+00 -9.756273e+00 1.268980e+00 -1.700460e+01 1.273507e+00 -2.446111e+01 1.173565e+00 -3.179866e+01 1.108365e+00 -3.937514e+01 9.497229e-01 -4.688870e+01 7.031648e-01 -5.457131e+01 6.443081e-01 -6.209196e+01 5.499411e-01 -6.969426e+01 4.166764e-01 -7.743234e+01 2.199150e-01 -8.533204e+01 -6.311665e-02 -9.342550e+01 -4.588782e-01 -1.017541e+02 
-1.658545e+00 -1.122291e+02 -2.431999e+00 -1.213281e+02 -3.476463e+00 1.240383e+02 -2.312408e+00 1.148653e+02 -1.388251e+00 1.060318e+02 -6.555176e-01 9.748889e+01 -6.637132e-02 8.917938e+01 4.175736e-01 8.102078e+01 6.724757e-01 7.281897e+01 6.144811e-01 6.486053e+01 7.258793e-01 5.703865e+01 8.014057e-01 4.939428e+01 8.202037e-01 4.175669e+01 9.212082e-01 3.427755e+01 8.669569e-01 2.673303e+01 9.518773e-01 1.934598e+01 8.462201e-01 1.185090e+01 9.189836e-01 4.511460e+00 7.803504e-01 -2.966007e+00 8.487226e-01 -1.029561e+01 6.886494e-01 -1.778756e+01 7.582460e-01 -2.514960e+01 5.717284e-01 -3.274863e+01 5.739416e-01 -4.022864e+01 2.978623e-01 -4.809304e+01 1.180899e-01 -5.572000e+01 6.928311e-02 -6.327660e+01 -2.850140e-02 -7.096815e+01 -1.652898e-01 -7.881379e+01 -3.706986e-01 -8.682743e+01 -6.686568e-01 -9.503834e+01 -1.086202e+00 -1.034880e+02 
-1.337567e+00 -1.115331e+02 -2.166060e+00 -1.207220e+02 -3.276052e+00 1.243991e+02 -2.078976e+00 1.151295e+02 -1.131166e+00 1.062266e+02 -3.834903e-01 9.765483e+01 2.153586e-01 8.939948e+01 7.523630e-01 8.150904e+01 1.553639e+00 7.259670e+01 6.571955e-01 6.514128e+01 1.345157e+00 5.689948e+01 9.113572e-01 4.978648e+01 1.446095e+00 4.171706e+01 1.081862e+00 3.478046e+01 1.524879e+00 2.679307e+01 1.138174e+00 1.995430e+01 1.536745e+00 1.201187e+01 1.133588e+00 5.223888e+00 1.504258e+00 -2.703323e+00 1.096829e+00 -9.479301e+00 1.447661e+00 -1.741719e+01 1.052470e+00 -2.419318e+01 1.411594e+00 -3.228515e+01 8.927619e-01 -3.910545e+01 1.333934e+00 -4.775021e+01 2.949041e-01 -5.497598e+01 4.214952e-01 -6.241546e+01 4.069274e-01 -7.010923e+01 2.849150e-01 -7.796409e+01 6.465431e-02 -8.599306e+01 -2.623719e-01 -9.423176e+01 -7.184688e-01 -1.027263e+02 
-1.947451e+00 -1.131964e+02 -2.804478e+00 -1.224842e+02 -3.952535e+00 1.254443e+02 -2.705267e+00 1.160675e+02 -1.716088e+00 1.070604e+02 -9.342892e-01 9.839618e+01 -3.072935e-01 9.008009e+01 2.594617e-01 8.219265e+01 1.142714e+00 7.287250e+01 2.008691e-01 6.552537e+01 9.727076e-01 5.697903e+01 4.867836e-01 4.999243e+01 1.100427e+00 4.162061e+01 6.610151e-01 3.481605e+01 1.189055e+00 2.652699e+01 6.991726e-01 1.982351e+01 1.193459e+00 1.158332e+01 6.660917e-01 4.933466e+00 1.143865e+00 -3.286595e+00 5.978388e-01 -9.922331e+00 1.070811e+00 -1.814752e+01 5.293530e-01 -2.477177e+01 1.042604e+00 -3.316592e+01 3.456414e-01 -3.980533e+01 1.025203e+00 -4.885951e+01 -3.554773e-01 -5.595947e+01 -1.689912e-01 -6.347844e+01 -1.528331e-01 -7.128302e+01 -2.698321e-01 -7.924054e+01 -4.960647e-01 -8.736739e+01 -8.345492e-01 -9.570231e+01 -1.306771e+00 -1.042928e+02 
-1.580441e+00 -1.123594e+02 -2.477059e+00 -1.217064e+02 -3.668157e+00 1.255811e+02 -2.406659e+00 1.161369e+02 -1.403566e+00 1.070748e+02 -6.078825e-01 9.835432e+01 2.833329e-02 8.993578e+01 5.497331e-01 8.176285e+01 9.138131e-01 7.318548e+01 8.425524e-01 6.533553e+01 1.062035e+00 5.731067e+01 1.085056e+00 4.982300e+01 1.214038e+00 4.201813e+01 1.233343e+00 3.471566e+01 1.308484e+00 2.702408e+01 1.284987e+00 1.982227e+01 1.332029e+00 1.219319e+01 1.277456e+00 5.040040e+00 1.310446e+00 -2.564206e+00 1.235648e+00 -9.711448e+00 1.263016e+00 -1.732491e+01 1.175298e+00 -2.450126e+01 1.203162e+00 -3.223582e+01 1.003767e+00 -3.950928e+01 1.012456e+00 -4.759912e+01 4.541771e-01 -5.511504e+01 4.597542e-01 -6.267180e+01 3.795396e-01 -7.042280e+01 2.189207e-01 -7.834809e+01 -3.558033e-02 -8.646365e+01 -4.014909e-01 -9.480413e+01 -9.045271e-01 -1.034165e+02 
-2.137418e+00 -1.138305e+02 -3.049350e+00 -1.232438e+02 -4.259756e+00 1.263567e+02 -2.963453e+00 1.168389e+02 -1.927875e+00 1.076966e+02 -1.100396e+00 9.888361e+01 -4.301623e-01 9.034088e+01 1.194705e-01 8.195783e+01 3.880178e-01 7.371050e+01 5.363163e-01 6.548525e+01 6.437158e-01 5.763963e+01 7.934933e-01 4.978785e+01 8.117160e-01 4.217954e+01 9.400412e-01 3.451501e+01 8.972910e-01 2.702962e+01 9.868144e-01 1.946801e+01 9.027837e-01 1.204982e+01 9.653605e-01 4.538878e+00 8.568850e-01 -2.852880e+00 9.034432e-01 -1.035666e+01 7.813736e-01 -1.776016e+01 8.172455e-01 -2.530558e+01 6.747329e-01 -3.280961e+01 6.346844e-01 -4.048568e+01 4.085403e-01 -4.821268e+01 1.324155e-01 -5.601530e+01 3.496453e-02 -6.370623e+01 -1.046481e-01 -7.153347e+01 -2.919455e-01 -7.953290e+01 -5.601834e-01 -8.772289e+01 -9.361564e-01 -9.613637e+01 -1.449359e+00 -1.048194e+02 
-1.722081e+00 -1.128393e+02 -2.659412e+00 -1.222805e+02 -3.895725e+00 1.262446e+02 -2.603288e+00 1.166911e+02 -1.571783e+00 1.075196e+02 -7.530334e-01 9.867978e+01 -1.057853e-01 9.011389e+01 3.922663e-01 8.174929e+01 6.752151e-01 7.358811e+01 8.781564e-01 6.545921e+01 1.007819e+00 5.764283e+01 1.149213e+00 4.984880e+01 1.194631e+00 4.227773e+01 1.295676e+00 3.467470e+01 1.289725e+00 2.724017e+01 1.354871e+00 1.974317e+01 1.314472e+00 1.238154e+01 1.355411e+00 4.934940e+00 1.293087e+00 -2.400565e+00 1.317306e+00 -9.842606e+00 1.238032e+00 -1.719553e+01 1.243564e+00 -2.468420e+01 1.133692e+00 -3.212465e+01 1.074446e+00 -3.973131e+01 8.896099e-01 -4.733521e+01 7.033204e-01 -5.508612e+01 5.876191e-01 -6.278686e+01 4.271044e-01 -7.059492e+01 2.145447e-01 -7.856580e+01 -7.660321e-02 -8.673261e+01 -4.743322e-01 -9.513320e+01 -1.010006e+00 -1.038155e+02 
-2.223753e+00 -1.141236e+02 -3.162872e+00 -1.235989e+02 -4.401344e+00 1.267523e+02 -3.089362e+00 1.171603e+02 -2.038923e+00 1.079407e+02 -1.203363e+00 9.904283e+01 -5.442877e-01 9.041255e+01 -4.538758e-02 8.200096e+01 2.536978e-01 7.379597e+01 4.831179e-01 6.564533e+01 6.314560e-01 5.774448e+01 7.723059e-01 4.989969e+01 8.311330e-01 4.223975e+01 9.168233e-01 3.458388e+01 9.201556e-01 2.706275e+01 9.643064e-01 1.951338e+01 9.294481e-01 1.206708e+01 9.455944e-01 4.569052e+00 8.861397e-01 -2.850013e+00 8.833732e-01 -1.034277e+01 8.053549e-01 -1.777991e+01 7.820488e-01 -2.531942e+01 6.718502e-01 -3.283756e+01 5.929661e-01 -4.048722e+01 4.115897e-01 -4.814366e+01 2.546113e-01 -5.593557e+01 1.265413e-01 -6.373064e+01 -4.681603e-02 -7.161662e+01 -2.713714e-01 -7.965271e+01 -5.701701e-01 -8.787760e+01 -9.720623e-01 -9.633060e+01 -1.510023e+00 -1.050595e+02 
-1.760051e+00 -1.129668e+02 -2.711610e+00 -1.224382e+02 -3.961730e+00 1.263798e+02 -2.669012e+00 1.167889e+02 -1.637655e+00 1.075776e+02 -8.232916e-01 9.869590e+01 -1.898416e-01 9.009407e+01 2.836949e-01 8.172808e+01 5.957443e-01 7.356719e+01 8.313513e-01 6.551834e+01 9.939799e-01 5.766420e+01 1.127439e+00 4.990319e+01 1.202710e+00 4.228578e+01 1.276237e+00 3.471287e+01 1.300542e+00 2.723843e+01 1.335406e+00 1.977354e+01 1.326934e+00 1.237597e+01 1.336577e+00 4.962029e+00 1.306273e+00 -2.408911e+00 1.297117e+00 -9.819319e+00 1.247303e+00 -1.721012e+01 1.214945e+00 -2.466701e+01 1.132469e+00 -3.213305e+01 1.052225e+00 -3.969297e+01 9.131504e-01 -4.728882e+01 7.788827e-01 -5.499795e+01 6.496565e-01 -6.275120e+01 4.743996e-01 -7.060126e+01 2.416763e-01 -7.859961e+01 -6.847028e-02 -8.678848e+01 -4.827543e-01 -9.521085e+01 -1.033483e+00 -1.039167e+02 
-2.206344e+00 -1.140712e+02 -3.146073e+00 -1.235447e+02 -4.382355e+00 1.266298e+02 -3.084319e+00 1.170371e+02 -2.047206e+00 1.078136e+02 -1.227831e+00 9.891072e+01 -5.908937e-01 9.028228e+01 -1.142029e-01 8.188789e+01 2.127340e-01 7.368651e+01 4.566124e-01 6.561457e+01 6.296282e-01 5.770432e+01 7.621929e-01 4.989994e+01 8.432792e-01 4.221448e+01 9.077039e-01 3.459117e+01 9.327712e-01 2.704540e+01 9.532860e-01 1.952814e+01 9.418421e-01 1.205861e+01 9.335694e-01 4.592205e+00 8.979718e-01 -2.850286e+00 8.691937e-01 -1.031242e+01 8.135189e-01 -1.777391e+01 7.619523e-01 -2.528034e+01 6.761597e-01 -3.281266e+01 5.837972e-01 -4.041589e+01 4.510289e-01 -4.807100e+01 3.192993e-01 -5.582040e+01 1.837987e-01 -6.363347e+01 6.302204e-03 -7.154271e+01 -2.273656e-01 -7.959207e+01 -5.361156e-01 -8.782301e+01 -9.460088e-01 -9.627845e+01 -1.489487e+00 -1.050079e+02 