# vtk DataFile Version 2.0
Comment goes here
ASCII

DATASET STRUCTURED_POINTS
FIELD FieldData 1
TIME 1 1 double
0.02100000
DIMENSIONS    64   64   1

ORIGIN    0.000   0.000   0.000
SPACING   0.03125 0.03125   1.000

POINT_DATA   4096
SCALARS P double
LOOKUP_TABLE default

-3.183990e+01 -1.987243e+02 -3.717786e+01 -2.008467e+02 -4.529576e+01 1.204061e+02 -4.236305e+01 1.126369e+02 -3.981853e+01 9.990860e+01 -3.343054e+01 8.339135e+01 -2.349947e+01 6.464837e+01 -1.226872e+01 4.584882e+01 -6.000102e+00 3.621704e+01 -1.009810e+01 2.776891e+01 -9.309756e+00 1.651457e+01 -1.428784e+01 1.427695e+01 -2.490323e+01 1.147259e+01 -3.289049e+01 3.100537e+00 -3.323711e+01 -9.412089e+00 -3.580113e+01 -1.902519e+01 -3.837727e+01 -2.916605e+01 -4.282777e+01 -3.673812e+01 -4.868611e+01 -4.348824e+01 -5.417722e+01 -5.412288e+01 -5.340644e+01 -6.931960e+01 -4.916235e+01 -8.379993e+01 -4.765658e+01 -9.838892e+01 -4.265791e+01 -1.143484e+02 -4.198897e+01 -1.190036e+02 -5.592398e+01 -1.083340e+02 -7.694328e+01 -1.048016e+02 -8.197178e+01 -1.131715e+02 -8.216888e+01 -1.218711e+02 -7.908491e+01 -1.362191e+02 -7.096076e+01 -1.557076e+02 -5.656240e+01 -1.804497e+02 
-5.815111e+00 -1.308833e+02 -1.061657e+01 -1.324965e+02 -1.653932e+01 1.062672e+02 -1.455054e+01 1.009629e+02 -1.402987e+01 9.320964e+01 -1.170535e+01 8.346036e+01 -7.673999e+00 7.252558e+01 -2.798432e+00 6.103840e+01 -2.152616e-01 5.445735e+01 -3.245121e+00 4.792886e+01 -2.474987e+00 3.905061e+01 -4.594282e+00 3.519871e+01 -9.525369e+00 3.064898e+01 -1.285220e+01 2.306336e+01 -1.197861e+01 1.333505e+01 -1.261534e+01 5.344528e+00 -1.307221e+01 -3.115193e+00 -1.447616e+01 -1.031403e+01 -1.662258e+01 -1.684622e+01 -1.897409e+01 -2.519652e+01 -1.819901e+01 -3.585366e+01 -1.572288e+01 -4.578877e+01 -1.519163e+01 -5.586927e+01 -1.215468e+01 -6.737274e+01 -1.095955e+01 -7.311766e+01 -1.746606e+01 -7.044448e+01 -2.794808e+01 -7.182970e+01 -2.952394e+01 -7.932797e+01 -2.950840e+01 -8.584993e+01 -2.840791e+01 -9.493182e+01 -2.516274e+01 -1.061989e+02 -1.890624e+01 -1.203726e+02 
5.030661e+00 -8.777715e+01 3.251316e+00 -8.943899e+01 1.333247e+00 9.299552e+01 1.818570e+00 9.034260e+01 1.330033e+00 8.649356e+01 1.010272e+00 8.173618e+01 8.228708e-01 7.645272e+01 8.061916e-01 7.053417e+01 6.350577e-01 6.522854e+01 -4.908940e-01 5.948959e+01 -3.283710e-01 5.278520e+01 -4.810824e-01 4.686945e+01 -8.780764e-01 4.045110e+01 -8.181550e-01 3.342207e+01 6.771655e-03 2.602989e+01 4.193331e-01 1.895774e+01 9.823961e-01 1.164545e+01 1.432165e+00 4.413563e+00 1.787058e+00 -2.575330e+00 1.839654e+00 -9.640032e+00 2.292916e+00 -1.697628e+01 2.922599e+00 -2.392201e+01 2.915252e+00 -3.083198e+01 3.574369e+00 -3.823242e+01 4.087493e+00 -4.474817e+01 3.382220e+00 -4.968794e+01 1.924741e+00 -5.529062e+01 2.126477e+00 -6.157548e+01 2.108212e+00 -6.703409e+01 2.092592e+00 -7.256983e+01 2.228835e+00 -7.796143e+01 2.746594e+00 -8.361302e+01 
3.655663e+00 -8.980257e+01 3.020545e+00 -9.260552e+01 2.442615e+00 9.529800e+01 1.604848e+00 9.203602e+01 1.084283e+00 8.762404e+01 8.994017e-01 8.237391e+01 9.652323e-01 7.661754e+01 1.133922e+00 7.055792e+01 1.068913e+00 6.475210e+01 5.058387e-01 5.876538e+01 3.275099e-01 5.238243e+01 8.287308e-03 4.625924e+01 -4.226284e-01 3.985063e+01 -5.243290e-01 3.295607e+01 -1.545196e-01 2.574237e+01 1.921732e-01 1.857740e+01 5.832409e-01 1.136446e+01 8.911621e-01 4.217093e+00 1.104024e+00 -2.826737e+00 1.234799e+00 -9.972293e+00 1.614787e+00 -1.730330e+01 2.134353e+00 -2.451336e+01 2.446580e+00 -3.167749e+01 2.938308e+00 -3.880189e+01 3.093080e+00 -4.509549e+01 2.353077e+00 -5.036752e+01 1.201202e+00 -5.583392e+01 8.650748e-01 -6.176225e+01 7.779259e-01 -6.755399e+01 9.084467e-01 -7.344799e+01 1.349757e+00 -7.936848e+01 2.254349e+00 -8.516940e+01 
3.443380e+00 -8.759679e+01 3.053952e+00 -9.057635e+01 2.815342e+00 9.381529e+01 2.113386e+00 9.059484e+01 1.615309e+00 8.650792e+01 1.268898e+00 8.172623e+01 1.027230e+00 7.644473e+01 8.417254e-01 7.078570e+01 5.786543e-01 6.506692e+01 1.307269e-01 5.908336e+01 -1.390618e-02 5.274287e+01 -1.408077e-01 4.642115e+01 -2.534134e-01 3.985806e+01 -1.489043e-01 3.298173e+01 2.250437e-01 2.589962e+01 5.853977e-01 1.881670e+01 9.761386e-01 1.166895e+01 1.331938e+00 4.542340e+00 1.627916e+00 -2.516066e+00 1.851386e+00 -9.581509e+00 2.164138e+00 -1.668244e+01 2.505174e+00 -2.365989e+01 2.698864e+00 -3.056929e+01 2.977911e+00 -3.744549e+01 3.107948e+00 -4.388650e+01 2.805720e+00 -4.975867e+01 2.290570e+00 -5.564815e+01 2.183242e+00 -6.163050e+01 2.158946e+00 -6.735391e+01 2.207537e+00 -7.293705e+01 2.385862e+00 -7.831757e+01 2.775027e+00 -8.340043e+01 
2.594462e+00 -8.977966e+01 2.528875e+00 -9.336119e+01 2.340587e+00 9.576730e+01 1.784088e+00 9.213159e+01 1.378770e+00 8.761788e+01 1.160915e+00 8.243803e+01 1.085382e+00 7.680287e+01 1.051565e+00 7.088776e+01 9.207390e-01 6.487897e+01 6.487065e-01 5.872095e+01 4.357022e-01 5.237929e+01 2.157841e-01 4.598685e+01 1.426847e-02 3.941122e+01 -2.475909e-02 3.258074e+01 1.329540e-01 2.555791e+01 3.621959e-01 1.847487e+01 6.212801e-01 1.135812e+01 8.645625e-01 4.252776e+00 1.071838e+00 -2.833233e+00 1.270868e+00 -9.950817e+00 1.538883e+00 -1.710845e+01 1.845521e+00 -2.420894e+01 2.084867e+00 -3.121494e+01 2.285290e+00 -3.804053e+01 2.271064e+00 -4.444153e+01 1.915412e+00 -5.039899e+01 1.418030e+00 -5.627794e+01 1.157643e+00 -6.222956e+01 1.092927e+00 -6.813838e+01 1.212776e+00 -7.400517e+01 1.534309e+00 -7.974096e+01 2.049716e+00 -8.514340e+01 
2.812694e+00 -8.867989e+01 2.750042e+00 -9.254575e+01 2.657074e+00 9.550363e+01 2.163410e+00 9.164430e+01 1.750787e+00 8.718098e+01 1.432082e+00 8.219664e+01 1.182392e+00 7.679920e+01 9.603574e-01 7.108507e+01 7.148748e-01 6.516085e+01 4.546234e-01 5.902721e+01 2.904460e-01 5.268002e+01 1.937094e-01 4.621296e+01 1.576831e-01 3.957191e+01 2.498320e-01 3.274379e+01 4.637498e-01 2.577351e+01 7.295163e-01 1.874451e+01 1.012604e+00 1.167266e+01 1.293437e+00 4.600240e+00 1.542356e+00 -2.453164e+00 1.771959e+00 -9.493076e+00 2.006638e+00 -1.651600e+01 2.237182e+00 -2.346761e+01 2.404250e+00 -3.033756e+01 2.544748e+00 -3.708946e+01 2.574962e+00 -4.359606e+01 2.446872e+00 -4.982172e+01 2.246569e+00 -5.592493e+01 2.156318e+00 -6.195275e+01 2.142369e+00 -6.782183e+01 2.198451e+00 -7.352082e+01 2.337920e+00 -7.899230e+01 2.564738e+00 -8.412300e+01 
2.084331e+00 -9.084068e+01 2.136306e+00 -9.511772e+01 2.080813e+00 9.727626e+01 1.750518e+00 9.306737e+01 1.469312e+00 8.825532e+01 1.281063e+00 8.294381e+01 1.167814e+00 7.725521e+01 1.070121e+00 7.129657e+01 9.198903e-01 6.514248e+01 7.352975e-01 5.885031e+01 5.559741e-01 5.242186e+01 4.086478e-01 4.589365e+01 2.922980e-01 3.922201e+01 2.789851e-01 3.239639e+01 3.564871e-01 2.543776e+01 5.100974e-01 1.841109e+01 6.837135e-01 1.134259e+01 8.759788e-01 4.266773e+00 1.048822e+00 -2.813132e+00 1.234620e+00 -9.895555e+00 1.424577e+00 -1.697461e+01 1.626438e+00 -2.399872e+01 1.772591e+00 -3.092837e+01 1.861281e+00 -3.769882e+01 1.806648e+00 -4.423176e+01 1.625011e+00 -5.051481e+01 1.395086e+00 -5.665975e+01 1.250544e+00 -6.275056e+01 1.222799e+00 -6.877571e+01 1.317451e+00 -7.470689e+01 1.529091e+00 -8.046587e+01 1.820856e+00 -8.591175e+01 
2.450465e+00 -9.045321e+01 2.453645e+00 -9.506957e+01 2.403746e+00 9.784623e+01 2.082010e+00 9.330042e+01 1.780185e+00 8.836920e+01 1.526617e+00 8.307347e+01 1.313001e+00 7.746188e+01 1.107504e+00 7.158260e+01 8.767144e-01 6.545777e+01 6.875583e-01 5.917889e+01 5.358955e-01 5.273551e+01 4.715475e-01 4.617634e+01 4.466561e-01 3.947083e+01 5.276657e-01 3.264635e+01 6.574420e-01 2.570767e+01 8.598050e-01 1.871642e+01 1.058206e+00 1.167781e+01 1.287604e+00 4.637685e+00 1.479685e+00 -2.405583e+00 1.686164e+00 -9.424448e+00 1.856522e+00 -1.642278e+01 2.034034e+00 -2.335791e+01 2.144411e+00 -3.022404e+01 2.230374e+00 -3.698002e+01 2.213917e+00 -4.359120e+01 2.165830e+00 -5.001121e+01 2.093371e+00 -5.628133e+01 2.054490e+00 -6.243744e+01 2.059926e+00 -6.846370e+01 2.111387e+00 -7.433774e+01 2.208511e+00 -8.001412e+01 2.337692e+00 -8.541908e+01 
1.759521e+00 -9.253807e+01 1.816887e+00 -9.748392e+01 1.805491e+00 9.948277e+01 1.621751e+00 9.462713e+01 1.449372e+00 8.939813e+01 1.321625e+00 8.382809e+01 1.233839e+00 7.797417e+01 1.142219e+00 7.188543e+01 9.674571e-01 6.553452e+01 8.157298e-01 5.910831e+01 6.534990e-01 5.256081e+01 5.678300e-01 4.594062e+01 4.762566e-01 3.918467e+01 4.886539e-01 3.234456e+01 5.149339e-01 2.538701e+01 6.369394e-01 1.839152e+01 7.387448e-01 1.133489e+01 9.030608e-01 4.284216e+00 1.020372e+00 -2.793639e+00 1.187921e+00 -9.845769e+00 1.305755e+00 -1.689812e+01 1.460179e+00 -2.388166e+01 1.530833e+00 -3.080098e+01 1.585238e+00 -3.759610e+01 1.489859e+00 -4.428114e+01 1.385832e+00 -5.076972e+01 1.283415e+00 -5.709757e+01 1.224146e+00 -6.334084e+01 1.230088e+00 -6.951135e+01 1.306384e+00 -7.558519e+01 1.444390e+00 -8.150671e+01 1.614492e+00 -8.719092e+01 
2.174054e+00 -9.261350e+01 2.174337e+00 -9.792301e+01 2.129446e+00 1.006119e+02 1.936603e+00 9.538157e+01 1.742499e+00 8.994165e+01 1.573745e+00 8.427668e+01 1.431843e+00 7.839411e+01 1.280565e+00 7.230357e+01 1.020856e+00 6.590778e+01 8.767452e-01 5.948720e+01 7.100643e-01 5.290925e+01 7.021770e-01 4.628180e+01 6.450692e-01 3.948987e+01 7.478922e-01 3.266055e+01 7.940809e-01 2.569580e+01 9.857776e-01 1.873494e+01 1.088019e+00 1.168485e+01 1.309569e+00 4.677075e+00 1.415949e+00 -2.383968e+00 1.626169e+00 -9.377320e+00 1.712111e+00 -1.639480e+01 1.889618e+00 -2.331640e+01 1.924268e+00 -3.022360e+01 2.015977e+00 -3.701954e+01 1.909214e+00 -4.379350e+01 1.910862e+00 -5.034959e+01 1.903405e+00 -5.674833e+01 1.908008e+00 -6.304945e+01 1.933865e+00 -6.925566e+01 1.981802e+00 -7.534922e+01 2.048399e+00 -8.130002e+01 2.121321e+00 -8.706822e+01 
1.502870e+00 -9.459897e+01 1.533171e+00 -1.001909e+02 1.514675e+00 1.021141e+02 1.442650e+00 9.660677e+01 1.365285e+00 9.090899e+01 1.312087e+00 8.501530e+01 1.294575e+00 7.894248e+01 1.284793e+00 7.270180e+01 1.041106e+00 6.599102e+01 8.736785e-01 5.948266e+01 7.094002e-01 5.276966e+01 6.983804e-01 4.612292e+01 5.944498e-01 3.922575e+01 6.492522e-01 3.241331e+01 6.182051e-01 2.536775e+01 7.488010e-01 1.843908e+01 7.722783e-01 1.131282e+01 9.404016e-01 4.334929e+00 9.807987e-01 -2.811191e+00 1.153244e+00 -9.788681e+00 1.188747e+00 -1.690209e+01 1.342101e+00 -2.381778e+01 1.344764e+00 -3.080874e+01 1.428045e+00 -3.760100e+01 1.239254e+00 -4.457122e+01 1.131882e+00 -5.117204e+01 1.117086e+00 -5.761106e+01 1.128924e+00 -6.400049e+01 1.166540e+00 -7.034163e+01 1.233451e+00 -7.661199e+01 1.325268e+00 -8.277556e+01 1.424692e+00 -8.878627e+01 
1.929338e+00 -9.496939e+01 1.904812e+00 -1.009263e+02 1.837975e+00 1.036064e+02 1.753409e+00 9.772315e+01 1.657023e+00 9.177429e+01 1.578485e+00 8.572771e+01 1.541822e+00 7.956392e+01 1.538534e+00 7.323900e+01 1.133158e+00 6.638679e+01 1.010462e+00 5.992142e+01 7.923715e-01 5.313752e+01 9.101083e-01 4.652731e+01 7.526706e-01 3.954000e+01 9.529350e-01 3.279274e+01 8.543199e-01 2.566644e+01 1.129585e+00 1.883096e+01 1.066706e+00 1.163029e+01 1.375188e+00 4.762238e+00 1.314266e+00 -2.454656e+00 1.620086e+00 -9.308596e+00 1.539378e+00 -1.649118e+01 1.820542e+00 -2.328503e+01 1.706844e+00 -3.036501e+01 1.938073e+00 -3.708792e+01 1.571337e+00 -4.430403e+01 1.638020e+00 -5.082385e+01 1.684081e+00 -5.729746e+01 1.736255e+00 -6.374774e+01 1.786423e+00 -7.015343e+01 1.834374e+00 -7.649460e+01 1.879763e+00 -8.275377e+01 1.915991e+00 -8.891502e+01 
1.274796e+00 -9.683873e+01 1.266400e+00 -1.030426e+02 1.213030e+00 1.049588e+02 1.233400e+00 9.882746e+01 1.235788e+00 9.265174e+01 1.251168e+00 8.641648e+01 1.320586e+00 8.014861e+01 1.540147e+00 7.390851e+01 1.284077e+00 6.616295e+01 6.823701e-01 6.009017e+01 8.270918e-01 5.284890e+01 6.827728e-01 4.658105e+01 7.815755e-01 3.910155e+01 6.478482e-01 3.274884e+01 7.934415e-01 2.514018e+01 7.142014e-01 1.872507e+01 8.968304e-01 1.104252e+01 8.493009e-01 4.599695e+00 1.043075e+00 -3.104402e+00 1.000449e+00 -9.544414e+00 1.183691e+00 -1.721519e+01 1.123947e+00 -2.361866e+01 1.298913e+00 -3.111994e+01 1.282038e+00 -3.737979e+01 1.162590e+00 -4.546739e+01 6.519536e-01 -5.164559e+01 8.972823e-01 -5.815251e+01 1.005244e+00 -6.470236e+01 1.073660e+00 -7.123796e+01 1.134227e+00 -7.773755e+01 1.193891e+00 -8.418234e+01 1.245683e+00 -9.055357e+01 
1.701217e+00 -9.738465e+01 1.643052e+00 -1.039397e+02 1.538301e+00 1.066667e+02 1.547109e+00 1.001761e+02 1.531561e+00 9.374068e+01 1.521303e+00 8.734111e+01 1.561730e+00 8.101150e+01 1.786978e+00 7.481347e+01 1.549298e+00 6.660690e+01 8.774914e-01 6.072963e+01 1.093369e+00 5.325372e+01 9.318032e-01 4.715677e+01 1.103203e+00 3.945086e+01 9.444269e-01 3.328304e+01 1.174687e+00 2.547208e+01 1.061590e+00 1.925295e+01 1.330141e+00 1.138600e+01 1.237659e+00 5.142913e+00 1.516279e+00 -2.731914e+00 1.416800e+00 -8.975611e+00 1.683842e+00 -1.680715e+01 1.557741e+00 -2.303540e+01 1.832030e+00 -3.067977e+01 1.786810e+00 -3.677007e+01 1.742243e+00 -4.519023e+01 1.042335e+00 -5.125782e+01 1.407486e+00 -5.784471e+01 1.563506e+00 -6.448341e+01 1.642808e+00 -7.110946e+01 1.689080e+00 -7.771206e+01 1.715574e+00 -8.428904e+01 1.722065e+00 -9.084295e+01 
1.063172e+00 -9.912280e+01 1.011799e+00 -1.058933e+02 9.115135e-01 1.078484e+02 1.009719e+00 1.011335e+02 1.075445e+00 9.448157e+01 1.131608e+00 8.786171e+01 1.199945e+00 8.126468e+01 1.302626e+00 7.465751e+01 1.059942e+00 6.703986e+01 9.029853e-01 6.054049e+01 8.147619e-01 5.332464e+01 8.579214e-01 4.673752e+01 7.716318e-01 3.940372e+01 8.234155e-01 3.274813e+01 7.742134e-01 2.534785e+01 8.604824e-01 1.864114e+01 8.438853e-01 1.120334e+01 9.504350e-01 4.469377e+00 9.488693e-01 -2.973379e+00 1.054117e+00 -9.710636e+00 1.050169e+00 -1.712055e+01 1.134974e+00 -2.383568e+01 1.127109e+00 -3.113425e+01 1.205704e+00 -3.779788e+01 9.426704e-01 -4.543554e+01 6.827132e-01 -5.199921e+01 8.386707e-01 -5.869674e+01 9.309860e-01 -6.542895e+01 9.908485e-01 -7.216952e+01 1.033652e+00 -7.891011e+01 1.063668e+00 -8.564740e+01 1.076684e+00 -9.238204e+01 
1.487438e+00 -9.975586e+01 1.392543e+00 -1.068543e+02 1.245973e+00 1.096565e+02 1.334650e+00 1.026024e+02 1.388194e+00 9.567995e+01 1.429799e+00 8.884175e+01 1.479882e+00 8.204310e+01 1.529970e+00 7.520617e+01 1.266914e+00 6.792330e+01 1.225534e+00 6.106281e+01 1.059751e+00 5.400215e+01 1.166555e+00 4.714399e+01 1.040122e+00 4.001705e+01 1.184633e+00 3.310921e+01 1.091034e+00 2.593412e+01 1.275187e+00 1.898993e+01 1.205610e+00 1.178747e+01 1.410067e+00 4.826778e+00 1.345982e+00 -2.378849e+00 1.548518e+00 -9.335192e+00 1.473119e+00 -1.651833e+01 1.657529e+00 -2.344931e+01 1.563220e+00 -3.057456e+01 1.709370e+00 -3.749889e+01 1.411131e+00 -4.478691e+01 1.392460e+00 -5.163446e+01 1.439829e+00 -5.843363e+01 1.497424e+00 -6.525271e+01 1.540067e+00 -7.209042e+01 1.562828e+00 -7.894787e+01 1.564564e+00 -8.583312e+01 1.541706e+00 -9.276110e+01 
8.658953e-01 -1.013486e+02 7.711719e-01 -1.086325e+02 6.221566e-01 1.106517e+02 7.867800e-01 1.034005e+02 9.072691e-01 9.628586e+01 1.000580e+00 8.925647e+01 1.076226e+00 8.226436e+01 1.119108e+00 7.525248e+01 9.902318e-01 6.806205e+01 9.484529e-01 6.101372e+01 8.612124e-01 5.393570e+01 8.900370e-01 4.692347e+01 8.229562e-01 3.982071e+01 8.727160e-01 3.278653e+01 8.265248e-01 2.565279e+01 9.024710e-01 1.859668e+01 8.756017e-01 1.144163e+01 9.681967e-01 4.375154e+00 9.483639e-01 -2.785035e+00 1.041816e+00 -9.846000e+00 1.013801e+00 -1.699211e+01 1.091737e+00 -2.402955e+01 1.039606e+00 -3.114032e+01 1.072584e+00 -3.816132e+01 9.028730e-01 -4.534311e+01 8.660260e-01 -5.232819e+01 8.783501e-01 -5.923906e+01 9.045309e-01 -6.615745e+01 9.284101e-01 -7.310124e+01 9.424720e-01 -8.007937e+01 9.415785e-01 -8.710199e+01 9.190603e-01 -9.418397e+01 
1.289193e+00 -1.020015e+02 1.157074e+00 -1.095850e+02 9.680445e-01 1.124758e+02 1.124719e+00 1.049140e+02 1.235376e+00 9.754157e+01 1.315891e+00 9.030080e+01 1.372247e+00 8.313667e+01 1.383479e+00 7.599145e+01 1.271766e+00 6.878026e+01 1.235314e+00 6.164174e+01 1.160432e+00 5.452288e+01 1.183673e+00 4.744138e+01 1.144080e+00 4.033207e+01 1.199592e+00 3.324944e+01 1.186714e+00 2.612880e+01 1.269511e+00 1.903719e+01 1.275415e+00 1.190707e+01 1.372292e+00 4.812063e+00 1.382319e+00 -2.318346e+00 1.476721e+00 -9.407205e+00 1.475264e+00 -1.652748e+01 1.550993e+00 -2.360202e+01 1.519956e+00 -3.070800e+01 1.546097e+00 -3.778655e+01 1.425611e+00 -4.493653e+01 1.424511e+00 -5.199315e+01 1.433730e+00 -5.899534e+01 1.447987e+00 -6.600472e+01 1.457442e+00 -7.304990e+01 1.453156e+00 -8.014953e+01 1.428357e+00 -8.732320e+01 1.376361e+00 -9.459599e+01 
6.840332e-01 -1.034360e+02 5.476895e-01 -1.111752e+02 3.514040e-01 1.132738e+02 5.734868e-01 1.055460e+02 7.414018e-01 9.801415e+01 8.677610e-01 9.062163e+01 9.563088e-01 8.331833e+01 9.942387e-01 7.605966e+01 9.507201e-01 6.879502e+01 9.300442e-01 6.157539e+01 8.900173e-01 5.439234e+01 8.923906e-01 4.723903e+01 8.670843e-01 4.008818e+01 8.845737e-01 3.295187e+01 8.739871e-01 2.580535e+01 9.078336e-01 1.867039e+01 9.103106e-01 1.152206e+01 9.542833e-01 4.387436e+00 9.606895e-01 -2.759609e+00 1.003013e+00 -9.889088e+00 1.000394e+00 -1.702882e+01 1.026388e+00 -2.414831e+01 9.976119e-01 -3.127982e+01 9.840620e-01 -3.840274e+01 9.018104e-01 -4.556147e+01 8.797762e-01 -5.268022e+01 8.738692e-01 -5.976348e+01 8.733648e-01 -6.685818e+01 8.708619e-01 -7.399553e+01 8.586063e-01 -8.119798e+01 8.290603e-01 -8.848706e+01 7.740523e-01 -9.588848e+01 
1.108564e+00 -1.040563e+02 9.404275e-01 -1.120638e+02 7.098160e-01 1.150514e+02 9.249582e-01 1.070467e+02 1.084609e+00 9.928143e+01 1.201285e+00 9.169672e+01 1.278197e+00 8.423945e+01 1.303849e+00 7.686111e+01 1.263209e+00 6.951300e+01 1.240232e+00 6.222218e+01 1.206112e+00 5.498205e+01 1.210380e+00 4.778240e+01 1.200606e+00 4.060042e+01 1.227661e+00 3.343785e+01 1.237928e+00 2.627758e+01 1.283592e+00 1.912914e+01 1.307688e+00 1.197745e+01 1.362564e+00 4.835820e+00 1.389172e+00 -2.310677e+00 1.440365e+00 -9.447317e+00 1.456044e+00 -1.659010e+01 1.488928e+00 -2.372537e+01 1.476645e+00 -3.087329e+01 1.469526e+00 -3.802806e+01 1.409917e+00 -4.521260e+01 1.397115e+00 -5.238290e+01 1.394741e+00 -5.953749e+01 1.391428e+00 -6.671525e+01 1.380558e+00 -7.395052e+01 1.354607e+00 -8.127148e+01 1.306008e+00 -8.870624e+01 1.226936e+00 -9.628760e+01 
5.198259e-01 -1.053214e+02 3.450103e-01 -1.134548e+02 1.044512e-01 1.156429e+02 3.767366e-01 1.075049e+02 5.870073e-01 9.961352e+01 7.467576e-01 9.191155e+01 8.595494e-01 8.434905e+01 9.179714e-01 7.688188e+01 9.143229e-01 6.946139e+01 9.123383e-01 6.210789e+01 8.939242e-01 5.481012e+01 8.981653e-01 4.755956e+01 8.875283e-01 4.033396e+01 9.000032e-01 3.313296e+01 8.980654e-01 2.594033e+01 9.198691e-01 1.876160e+01 9.257256e-01 1.158378e+01 9.528328e-01 4.415218e+00 9.599052e-01 -2.755652e+00 9.834939e-01 -9.919689e+00 9.815257e-01 -1.708837e+01 9.897326e-01 -2.425423e+01 9.649586e-01 -3.143157e+01 9.416197e-01 -3.862055e+01 8.820816e-01 -4.583704e+01 8.561676e-01 -5.305346e+01 8.433001e-01 -6.026586e+01 8.310078e-01 -6.751004e+01 8.123791e-01 -7.482000e+01 7.801632e-01 -8.222468e+01 7.265922e-01 -8.975298e+01 6.431096e-01 -9.743815e+01 
9.482241e-01 -1.058680e+02 7.466608e-01 -1.142367e+02 4.767989e-01 1.173241e+02 7.422340e-01 1.089451e+02 9.451610e-01 1.008491e+02 1.098734e+00 9.297815e+01 1.208644e+00 8.527924e+01 1.267368e+00 7.770267e+01 1.252404e+00 7.017820e+01 1.244946e+00 6.275256e+01 1.222114e+00 5.539820e+01 1.235759e+00 4.810814e+01 1.229832e+00 4.084799e+01 1.257614e+00 3.362565e+01 1.264694e+00 2.641346e+01 1.304648e+00 1.922536e+01 1.320911e+00 1.203705e+01 1.366478e+00 4.865058e+00 1.383481e+00 -2.313145e+00 1.424633e+00 -9.480911e+00 1.431748e+00 -1.666004e+01 1.457086e+00 -2.383664e+01 1.441795e+00 -3.103384e+01 1.434900e+00 -3.825000e+01 1.374174e+00 -4.551324e+01 1.347840e+00 -5.277933e+01 1.338591e+00 -6.004642e+01 1.328215e+00 -6.736141e+01 1.306645e+00 -7.476071e+01 1.265636e+00 -8.227550e+01 1.197681e+00 -8.993838e+01 1.094912e+00 -9.778725e+01 
3.762370e-01 -1.069547e+02 1.671278e-01 -1.154190e+02 -1.136149e-01 1.176998e+02 2.019400e-01 1.092204e+02 4.500245e-01 1.010310e+02 6.442257e-01 9.307395e+01 7.915269e-01 8.529752e+01 8.843353e-01 7.765415e+01 8.864966e-01 7.005504e+01 8.981834e-01 6.258272e+01 8.807305e-01 5.517975e+01 9.049954e-01 4.785545e+01 8.913366e-01 4.055460e+01 9.171736e-01 3.330626e+01 9.059836e-01 2.606065e+01 9.359823e-01 1.885260e+01 9.280241e-01 1.163533e+01 9.599134e-01 4.446164e+00 9.508464e-01 -2.759535e+00 9.781207e-01 -9.944572e+00 9.606075e-01 -1.715199e+01 9.749158e-01 -2.434811e+01 9.398369e-01 -3.157570e+01 9.274256e-01 -3.881711e+01 8.461261e-01 -4.612477e+01 8.117429e-01 -5.342334e+01 7.965685e-01 -6.072708e+01 7.807192e-01 -6.808950e+01 7.540869e-01 -7.554535e+01 7.083597e-01 -8.312444e+01 6.359214e-01 -9.085895e+01 5.284979e-01 -9.878692e+01 
8.113866e-01 -1.073952e+02 5.800898e-01 -1.160609e+02 2.745737e-01 1.192427e+02 5.818475e-01 1.105588e+02 8.215591e-01 1.021959e+02 1.010575e+00 9.409759e+01 1.162599e+00 8.621145e+01 1.278787e+00 7.848442e+01 1.261516e+00 7.073242e+01 1.236819e+00 6.321353e+01 1.218918e+00 5.574598e+01 1.252811e+00 4.840784e+01 1.244683e+00 4.105338e+01 1.281785e+00 3.380764e+01 1.279252e+00 2.652029e+01 1.323709e+00 1.932653e+01 1.326103e+00 1.207491e+01 1.373651e+00 4.905700e+00 1.374990e+00 -2.331892e+00 1.417753e+00 -9.497421e+00 1.410258e+00 -1.673881e+01 1.440770e+00 -2.392128e+01 1.419607e+00 -3.118371e+01 1.430960e+00 -3.842514e+01 1.338738e+00 -4.583556e+01 1.267523e+00 -5.316235e+01 1.265149e+00 -6.049655e+01 1.261539e+00 -6.791702e+01 1.238576e+00 -7.545216e+01 1.188493e+00 -8.312994e+01 1.105507e+00 -9.098423e+01 9.827592e-01 -9.905613e+01 
2.567080e-01 -1.082969e+02 1.826353e-02 -1.170275e+02 -2.976236e-01 1.193931e+02 5.312058e-02 1.106422e+02 3.322634e-01 1.022183e+02 5.580026e-01 9.406573e+01 7.477866e-01 8.613200e+01 9.092775e-01 7.836078e+01 8.920285e-01 7.050583e+01 8.625611e-01 6.298765e+01 8.563076e-01 5.546371e+01 9.048595e-01 4.812924e+01 8.880298e-01 4.071350e+01 9.291945e-01 3.347984e+01 9.056624e-01 2.613226e+01 9.495307e-01 1.895736e+01 9.233807e-01 1.164602e+01 9.685344e-01 4.499667e+00 9.378076e-01 -2.798331e+00 9.789094e-01 -9.939450e+00 9.391565e-01 -1.724269e+01 9.714289e-01 -2.440106e+01 9.217491e-01 -3.172391e+01 9.449181e-01 -3.894350e+01 8.046028e-01 -4.646734e+01 7.287364e-01 -5.376945e+01 7.303335e-01 -6.111765e+01 7.261089e-01 -6.856992e+01 7.006374e-01 -7.614525e+01 6.471398e-01 -8.386841e+01 5.603443e-01 -9.177251e+01 4.333315e-01 -9.989868e+01 
7.015220e-01 -1.086060e+02 4.451791e-01 -1.175035e+02 1.091958e-01 1.207627e+02 4.482406e-01 1.118424e+02 7.150991e-01 1.032745e+02 9.300844e-01 9.501034e+01 1.118707e+00 8.701823e+01 1.334561e+00 7.928848e+01 1.425696e+00 7.097714e+01 1.070184e+00 6.367099e+01 1.283691e+00 5.591294e+01 1.171313e+00 4.876503e+01 1.340275e+00 4.109683e+01 1.205401e+00 3.407236e+01 1.375113e+00 2.647926e+01 1.244490e+00 1.952720e+01 1.415453e+00 1.197503e+01 1.286705e+00 5.057211e+00 1.454451e+00 -2.479276e+00 1.321008e+00 -9.394311e+00 1.479298e+00 -1.693448e+01 1.335683e+00 -2.387968e+01 1.490768e+00 -3.141043e+01 1.378637e+00 -3.838694e+01 1.441632e+00 -4.635580e+01 1.038524e+00 -5.348067e+01 1.166743e+00 -6.084704e+01 1.201354e+00 -6.835530e+01 1.184700e+00 -7.600140e+01 1.128494e+00 -8.380994e+01 1.033122e+00 -9.181635e+01 8.936222e-01 -1.000643e+02 
1.647339e-01 -1.093187e+02 -9.726279e-02 -1.182494e+02 -4.415311e-01 1.206791e+02 -6.573972e-02 1.117249e+02 2.341343e-01 1.031273e+02 4.785175e-01 9.484103e+01 6.943701e-01 8.684404e+01 9.477514e-01 7.913765e+01 1.081662e+00 7.064658e+01 6.763282e-01 6.342339e+01 9.461403e-01 5.556623e+01 8.067645e-01 4.848621e+01 1.011582e+00 4.071354e+01 8.331391e-01 3.375883e+01 1.033716e+00 2.606443e+01 8.516290e-01 1.918267e+01 1.050491e+00 1.153208e+01 8.656254e-01 4.683598e+00 1.060907e+00 -2.948621e+00 8.692983e-01 -9.797013e+00 1.057306e+00 -1.742951e+01 8.554256e-01 -2.431325e+01 1.047276e+00 -3.192262e+01 8.914315e-01 -3.882858e+01 9.898237e-01 -4.694452e+01 4.755764e-01 -5.400913e+01 6.389521e-01 -6.139358e+01 6.805078e-01 -6.892746e+01 6.624814e-01 -7.659966e+01 6.030149e-01 -8.443493e+01 5.041594e-01 -9.246910e+01 3.610534e-01 -1.007461e+02 
6.217200e-01 -1.094766e+02 3.460550e-01 -1.185397e+02 -1.259007e-02 1.218475e+02 3.464787e-01 1.127563e+02 6.298999e-01 1.040343e+02 8.571942e-01 9.562917e+01 1.048366e+00 8.749603e+01 1.225068e+00 7.958951e+01 1.255731e+00 7.142643e+01 1.159098e+00 6.388460e+01 1.221882e+00 5.618404e+01 1.233400e+00 4.885225e+01 1.277701e+00 4.128959e+01 1.272762e+00 3.408753e+01 1.315801e+00 2.661958e+01 1.311084e+00 1.949376e+01 1.355026e+00 1.207863e+01 1.349525e+00 4.988395e+00 1.391272e+00 -2.405947e+00 1.379894e+00 -9.494299e+00 1.414730e+00 -1.689445e+01 1.392984e+00 -2.401460e+01 1.422941e+00 -3.143284e+01 1.403053e+00 -3.862189e+01 1.339482e+00 -4.632933e+01 1.138694e+00 -5.364458e+01 1.185378e+00 -6.108822e+01 1.191390e+00 -6.866700e+01 1.160182e+00 -7.639447e+01 1.092076e+00 -8.429800e+01 9.841639e-01 -9.241453e+01 8.303868e-01 -1.007894e+02 
1.030896e-01 -1.099989e+02 -1.757889e-01 -1.190630e+02 -5.389852e-01 1.215247e+02 -1.497394e-01 1.124312e+02 1.614947e-01 1.037042e+02 4.136822e-01 9.528796e+01 6.244853e-01 8.712783e+01 7.998070e-01 7.916230e+01 8.165219e-01 7.117701e+01 8.373383e-01 6.350039e+01 8.399092e-01 5.588369e+01 9.032941e-01 4.844005e+01 8.936445e-01 4.097525e+01 9.412658e-01 3.365904e+01 9.219853e-01 2.628948e+01 9.651584e-01 1.904846e+01 9.414330e-01 1.173134e+01 9.813899e-01 4.526302e+00 9.527592e-01 -2.771124e+00 9.869010e-01 -9.972184e+00 9.507899e-01 -1.727794e+01 9.767067e-01 -2.450579e+01 9.330605e-01 -3.184492e+01 9.470322e-01 -3.915271e+01 8.203322e-01 -4.668385e+01 7.336373e-01 -5.410822e+01 7.177546e-01 -6.157503e+01 6.989680e-01 -6.916386e+01 6.565578e-01 -7.689929e+01 5.824592e-01 -8.480949e+01 4.708348e-01 -9.293121e+01 3.143388e-01 -1.013097e+02 
5.738724e-01 -1.099906e+02 2.851077e-01 -1.191528e+02 -8.788273e-02 1.224749e+02 2.794660e-01 1.132789e+02 5.690296e-01 1.044576e+02 7.979652e-01 9.595370e+01 9.795216e-01 8.771166e+01 1.114742e+00 7.967526e+01 1.149772e+00 7.173255e+01 1.186166e+00 6.399653e+01 1.198780e+00 5.637524e+01 1.247203e+00 4.888112e+01 1.253048e+00 4.143299e+01 1.294288e+00 3.407757e+01 1.296320e+00 2.673421e+01 1.336764e+00 1.945996e+01 1.337770e+00 1.217391e+01 1.377004e+00 4.938803e+00 1.374696e+00 -2.326327e+00 1.408692e+00 -9.556766e+00 1.398519e+00 -1.683313e+01 1.422268e+00 -2.409284e+01 1.398801e+00 -3.141489e+01 1.400926e+00 -3.875588e+01 1.320356e+00 -4.622389e+01 1.269561e+00 -5.369055e+01 1.245183e+00 -6.120722e+01 1.213891e+00 -6.883843e+01 1.161599e+00 -7.661845e+01 1.079330e+00 -8.458068e+01 9.596853e-01 -9.276429e+01 7.945373e-01 -1.012159e+02 
7.303340e-02 -1.103238e+02 -2.159857e-01 -1.194540e+02 -5.897647e-01 1.219140e+02 -1.980954e-01 1.127494e+02 1.138071e-01 1.039538e+02 3.618997e-01 9.546900e+01 5.572219e-01 8.723982e+01 6.982896e-01 7.921308e+01 7.573611e-01 7.131585e+01 8.135274e-01 6.358185e+01 8.373169e-01 5.597319e+01 8.832520e-01 4.847078e+01 8.933935e-01 4.103470e+01 9.269890e-01 3.366716e+01 9.279225e-01 2.633372e+01 9.556661e-01 1.904446e+01 9.517266e-01 1.176695e+01 9.752609e-01 4.515467e+00 9.661944e-01 -2.741494e+00 9.835674e-01 -9.988164e+00 9.665050e-01 -1.725596e+01 9.738975e-01 -2.453060e+01 9.431906e-01 -3.184510e+01 9.283218e-01 -3.919729e+01 8.539332e-01 -4.663147e+01 8.094327e-01 -5.410299e+01 7.729164e-01 -6.162747e+01 7.298938e-01 -6.925745e+01 6.694669e-01 -7.703003e+01 5.823546e-01 -8.497994e+01 4.602000e-01 -9.314649e+01 2.940111e-01 -1.015761e+02 
5.585882e-01 -1.101383e+02 2.630876e-01 -1.193328e+02 -1.166215e-01 1.226360e+02 2.483206e-01 1.134045e+02 5.342705e-01 1.045480e+02 7.565265e-01 9.600890e+01 9.258530e-01 8.773346e+01 1.045067e+00 7.967172e+01 1.107873e+00 7.176888e+01 1.160185e+00 6.402113e+01 1.190578e+00 5.640180e+01 1.229366e+00 4.888715e+01 1.249693e+00 4.144899e+01 1.281806e+00 3.407634e+01 1.298305e+00 2.674710e+01 1.328794e+00 1.945703e+01 1.343966e+00 1.218717e+01 1.372687e+00 4.936917e+00 1.384413e+00 -2.311280e+00 1.407623e+00 -9.556707e+00 1.411113e+00 -1.681702e+01 1.422965e+00 -2.409268e+01 1.410758e+00 -3.140359e+01 1.400036e+00 -3.875718e+01 1.355077e+00 -4.617924e+01 1.322341e+00 -5.365800e+01 1.288579e+00 -6.120601e+01 1.243387e+00 -6.886295e+01 1.178659e+00 -7.666525e+01 1.086399e+00 -8.464954e+01 9.585251e-01 -9.285679e+01 7.861105e-01 -1.013345e+02 
7.468201e-02 -1.102866e+02 -2.176733e-01 -1.194159e+02 -5.942234e-01 1.218431e+02 -2.098746e-01 1.126778e+02 9.401410e-02 1.038792e+02 3.319394e-01 9.538938e+01 5.140739e-01 8.715577e+01 6.445155e-01 7.913009e+01 7.250280e-01 7.126528e+01 7.872346e-01 6.354428e+01 8.273921e-01 5.594447e+01 8.656222e-01 4.844246e+01 8.885316e-01 4.101523e+01 9.142065e-01 3.364806e+01 9.282068e-01 2.632433e+01 9.477522e-01 1.903521e+01 9.569155e-01 1.176773e+01 9.720052e-01 4.516248e+00 9.760296e-01 -2.730519e+00 9.847057e-01 -9.977150e+00 9.803582e-01 -1.723496e+01 9.781095e-01 -2.450971e+01 9.591300e-01 -3.181511e+01 9.369697e-01 -3.916188e+01 8.928787e-01 -4.656702e+01 8.551823e-01 -5.403216e+01 8.145664e-01 -6.156866e+01 7.630250e-01 -6.920887e+01 6.936577e-01 -7.698743e+01 5.989609e-01 -8.494057e+01 4.707412e-01 -9.310879e+01 2.996747e-01 -1.015391e+02 