# vtk DataFile Version 2.0
Comment goes here
ASCII

DATASET STRUCTURED_POINTS
FIELD FieldData 1
TIME 1 1 double
0.02800000
DIMENSIONS    64   64   1

ORIGIN    0.000   0.000   0.000
SPACING   0.03125 0.03125   1.000

POINT_DATA   4096
VECTORS u double

0.453707 0.003530 0.000000 -0.921213 0.000815 0.000000 0.462249 0.002194 0.000000 -0.904578 -0.001104 0.000000 0.381556 -0.002162 0.000000 -0.889451 -0.002085 0.000000 0.428447 0.002373 0.000000 -0.862092 -0.002105 0.000000 0.438341 0.001307 0.000000 -0.813214 -0.002424 0.000000 0.409008 0.000689 0.000000 -0.725341 -0.002737 0.000000 0.316205 0.000101 0.000000 -0.568976 -0.002855 0.000000 0.152680 -0.000370 0.000000 -0.362532 -0.002713 0.000000 -0.044740 -0.000265 0.000000 -0.145572 -0.002297 0.000000 -0.233089 -0.000521 0.000000 0.039038 -0.001761 0.000000 -0.374478 -0.000601 0.000000 0.164114 -0.000791 0.000000 -0.453968 -0.000985 0.000000 0.226926 -0.000241 0.000000 -0.480633 -0.001064 0.000000 0.245919 0.000046 0.000000 -0.480196 -0.000950 0.000000 0.244164 0.000104 0.000000 -0.469493 -0.000809 0.000000 0.236113 0.000275 0.000000 -0.456962 -0.000837 0.000000 0.223872 0.000291 0.000000 -0.435915 -0.000755 0.000000 0.191981 0.000486 0.000000 -0.385115 -0.000785 0.000000 0.119483 0.000556 0.000000 -0.294045 -0.001080 0.000000 0.020883 0.000930 0.000000 -0.202429 -0.000983 0.000000 -0.048511 0.001002 0.000000 -0.173651 -0.000498 0.000000 -0.035783 0.000633 0.000000 -0.228347 -0.000142 0.000000 0.044781 0.000921 0.000000 -0.328716 0.000145 0.000000 0.150177 0.001355 0.000000 -0.444184 0.000214 0.000000 0.254445 0.001808 0.000000 -0.541258 0.000631 0.000000 0.325850 0.002009 0.000000 -0.600375 0.000768 0.000000 0.348254 0.002170 0.000000 -0.599773 0.000632 0.000000 0.298573 0.001998 0.000000 -0.522096 0.000421 0.000000 0.172686 0.001698 0.000000 -0.374440 0.000094 0.000000 -0.025501 0.001389 0.000000 -0.158226 -0.000135 0.000000 -0.292666 0.001095 0.000000 0.108211 -0.000172 0.000000 -0.595358 0.000573 0.000000 0.377938 0.000359 0.000000 -0.866959 -0.002951 0.000000 
-0.202698 0.029140 0.000000 0.236893 -0.007347 0.000000 -0.229245 -0.006812 0.000000 0.245695 0.037773 0.000000 -0.143766 -0.002203 0.000000 0.244182 -0.025210 0.000000 -0.232583 -0.012306 0.000000 0.232155 -0.006496 0.000000 -0.282937 -0.022466 0.000000 0.209000 0.013534 0.000000 -0.304074 -0.041601 0.000000 0.166986 0.045627 0.000000 -0.284552 -0.075612 0.000000 0.086129 0.081349 0.000000 -0.222202 -0.100618 0.000000 -0.022142 0.098460 0.000000 -0.138528 -0.105968 0.000000 -0.136739 0.094102 0.000000 -0.056390 -0.090502 0.000000 -0.234785 0.070963 0.000000 0.003186 -0.061439 0.000000 -0.301881 0.040181 0.000000 0.033420 -0.030828 0.000000 -0.335330 0.014118 0.000000 0.037523 -0.009515 0.000000 -0.345452 0.000555 0.000000 0.030479 0.000856 0.000000 -0.344477 -0.004633 0.000000 0.019833 0.003855 0.000000 -0.339812 -0.005506 0.000000 0.010509 0.005784 0.000000 -0.334188 -0.009690 0.000000 -0.001171 0.015579 0.000000 -0.318420 -0.024577 0.000000 -0.028676 0.035617 0.000000 -0.278623 -0.044492 0.000000 -0.080880 0.048339 0.000000 -0.220916 -0.044889 0.000000 -0.134705 0.034024 0.000000 -0.178247 -0.013721 0.000000 -0.153910 -0.007146 0.000000 -0.179813 0.028067 0.000000 -0.127799 -0.041275 0.000000 -0.214383 0.050626 0.000000 -0.081019 -0.053737 0.000000 -0.257065 0.057994 0.000000 -0.026713 -0.053526 0.000000 -0.298139 0.048545 0.000000 0.019118 -0.037217 0.000000 -0.322026 0.029315 0.000000 0.048686 -0.012998 0.000000 -0.323710 -0.000553 0.000000 0.052308 0.023043 0.000000 -0.290668 -0.038842 0.000000 0.019281 0.061148 0.000000 -0.221200 -0.073456 0.000000 -0.043948 0.097361 0.000000 -0.119118 -0.107478 0.000000 -0.136463 0.132039 0.000000 0.016311 -0.132413 0.000000 -0.247333 0.149950 0.000000 0.165775 -0.134049 0.000000 -0.345350 0.134669 0.000000 0.273828 -0.036650 0.000000 
0.650959 0.040466 0.000000 0.422304 0.027362 0.000000 0.457659 -0.006608 0.000000 0.401766 -0.086583 0.000000 0.340346 -0.000649 0.000000 0.400149 0.086732 0.000000 0.498010 0.014400 0.000000 0.385544 0.048249 0.000000 0.631360 0.024463 0.000000 0.355669 0.018713 0.000000 0.752636 0.042703 0.000000 0.304629 -0.022258 0.000000 0.892022 0.080957 0.000000 0.209631 -0.065205 0.000000 1.064440 0.107901 0.000000 0.084365 -0.086387 0.000000 1.247388 0.114332 0.000000 -0.044273 -0.084436 0.000000 1.413576 0.097525 0.000000 -0.148757 -0.061336 0.000000 1.539271 0.066495 0.000000 -0.213265 -0.031025 0.000000 1.615372 0.032464 0.000000 -0.237327 -0.004344 0.000000 1.649609 0.009058 0.000000 -0.236916 0.007089 0.000000 1.661903 -0.001925 0.000000 -0.228002 0.010750 0.000000 1.664729 -0.005474 0.000000 -0.219992 0.009599 0.000000 1.665177 -0.006461 0.000000 -0.213604 0.011971 0.000000 1.659488 -0.016523 0.000000 -0.195401 0.027992 0.000000 1.630314 -0.040582 0.000000 -0.146498 0.052760 0.000000 1.566947 -0.058787 0.000000 -0.074714 0.054755 0.000000 1.497394 -0.043653 0.000000 -0.021897 0.020207 0.000000 1.468806 0.001068 0.000000 -0.028845 -0.025478 0.000000 1.495784 0.034429 0.000000 -0.082986 -0.045859 0.000000 1.546616 0.042827 0.000000 -0.152519 -0.052951 0.000000 1.602110 0.041288 0.000000 -0.223317 -0.044023 0.000000 1.640484 0.024518 0.000000 -0.274321 -0.027560 0.000000 1.651127 0.002452 0.000000 -0.296904 -0.001451 0.000000 1.620949 -0.032409 0.000000 -0.272882 0.035025 0.000000 1.536595 -0.069047 0.000000 -0.199951 0.064927 0.000000 1.402816 -0.101988 0.000000 -0.081712 0.093904 0.000000 1.214682 -0.135563 0.000000 0.082587 0.111966 0.000000 0.978311 -0.149636 0.000000 0.271323 0.098590 0.000000 0.720695 -0.107694 0.000000 0.434328 -0.145604 0.000000 
1.415681 0.041163 0.000000 -0.067058 0.185954 0.000000 1.069656 0.013726 0.000000 -0.091568 0.155086 0.000000 0.449676 -0.000586 0.000000 -0.094409 -0.182875 0.000000 1.096257 0.002298 0.000000 -0.084391 -0.139846 0.000000 1.498835 0.007410 0.000000 -0.074273 -0.107742 0.000000 1.778955 0.009438 0.000000 -0.059374 -0.093758 0.000000 1.975702 0.019386 0.000000 -0.024549 -0.091069 0.000000 2.108803 0.024648 0.000000 0.022948 -0.084488 0.000000 2.201389 0.022670 0.000000 0.071455 -0.072086 0.000000 2.268626 0.013981 0.000000 0.109309 -0.054732 0.000000 2.326076 0.003069 0.000000 0.131001 -0.035920 0.000000 2.379501 -0.006766 0.000000 0.137130 -0.020119 0.000000 2.430678 -0.009926 0.000000 0.135177 -0.011738 0.000000 2.472119 -0.008058 0.000000 0.132429 -0.007460 0.000000 2.503373 -0.004155 0.000000 0.131876 -0.005954 0.000000 2.522790 -0.000605 0.000000 0.134956 -0.004002 0.000000 2.534486 -0.002624 0.000000 0.134977 0.004598 0.000000 2.548209 -0.013286 0.000000 0.120930 0.018875 0.000000 2.573543 -0.023445 0.000000 0.093354 0.024663 0.000000 2.597488 -0.018793 0.000000 0.071961 0.014867 0.000000 2.598365 -0.000198 0.000000 0.074647 0.001090 0.000000 2.568696 0.012866 0.000000 0.092522 -0.000207 0.000000 2.525434 0.015796 0.000000 0.109795 0.002500 0.000000 2.470981 0.017272 0.000000 0.124387 0.010171 0.000000 2.410916 0.013786 0.000000 0.129094 0.018672 0.000000 2.343418 0.009585 0.000000 0.125966 0.029625 0.000000 2.271838 -0.000980 0.000000 0.110528 0.045512 0.000000 2.201958 -0.011783 0.000000 0.084121 0.060322 0.000000 2.126071 -0.020877 0.000000 0.048490 0.080656 0.000000 2.041845 -0.032260 0.000000 -0.002930 0.103957 0.000000 1.940972 -0.038785 0.000000 -0.066766 0.123567 0.000000 1.802457 -0.028335 0.000000 -0.113187 0.033086 0.000000 
1.514726 -0.005662 0.000000 -0.023555 0.373387 0.000000 1.212385 0.017902 0.000000 -0.036366 0.533398 0.000000 0.688978 0.002193 0.000000 -0.038947 -0.559849 0.000000 1.224296 0.004382 0.000000 -0.030225 -0.354329 0.000000 1.573658 0.014345 0.000000 -0.016868 -0.261407 0.000000 1.825143 0.027804 0.000000 -0.002295 -0.219005 0.000000 2.012225 0.046133 0.000000 0.020124 -0.198306 0.000000 2.151377 0.060404 0.000000 0.046384 -0.178973 0.000000 2.257529 0.065825 0.000000 0.069945 -0.151673 0.000000 2.337835 0.059671 0.000000 0.086733 -0.118785 0.000000 2.402368 0.044803 0.000000 0.095592 -0.084450 0.000000 2.455476 0.026335 0.000000 0.098140 -0.055522 0.000000 2.501170 0.011011 0.000000 0.098369 -0.034351 0.000000 2.536602 0.000823 0.000000 0.099768 -0.020504 0.000000 2.563722 -0.004921 0.000000 0.102819 -0.009818 0.000000 2.581151 -0.009541 0.000000 0.108307 0.000275 0.000000 2.591519 -0.016544 0.000000 0.112457 0.014269 0.000000 2.598594 -0.026536 0.000000 0.109825 0.027425 0.000000 2.608811 -0.031211 0.000000 0.099068 0.030811 0.000000 2.616178 -0.022259 0.000000 0.089606 0.019330 0.000000 2.612105 -0.001618 0.000000 0.089321 0.004190 0.000000 2.592305 0.016553 0.000000 0.093828 -0.002597 0.000000 2.565515 0.025554 0.000000 0.095377 0.001503 0.000000 2.529661 0.026696 0.000000 0.094431 0.016041 0.000000 2.485847 0.019812 0.000000 0.087563 0.039939 0.000000 2.430007 0.005580 0.000000 0.078060 0.070128 0.000000 2.363534 -0.016971 0.000000 0.065038 0.104905 0.000000 2.289299 -0.042640 0.000000 0.050343 0.140814 0.000000 2.202108 -0.066358 0.000000 0.034999 0.178129 0.000000 2.099535 -0.084143 0.000000 0.014845 0.212840 0.000000 1.975671 -0.085800 0.000000 -0.010744 0.237104 0.000000 1.819156 -0.061274 0.000000 -0.035076 0.241173 0.000000 
1.561513 0.029642 0.000000 -0.078186 0.488295 0.000000 1.274361 0.026536 0.000000 -0.084078 0.678493 0.000000 0.903557 0.001995 0.000000 -0.084500 -0.718193 0.000000 1.285799 -0.006424 0.000000 -0.072358 -0.489208 0.000000 1.598059 -0.005947 0.000000 -0.058963 -0.359226 0.000000 1.835285 -0.005136 0.000000 -0.039909 -0.280841 0.000000 2.012498 -0.003032 0.000000 -0.009770 -0.230221 0.000000 2.144022 -0.001612 0.000000 0.028785 -0.190640 0.000000 2.242939 -0.000890 0.000000 0.066676 -0.152392 0.000000 2.314140 -0.002807 0.000000 0.096958 -0.119265 0.000000 2.371805 -0.005790 0.000000 0.116685 -0.089028 0.000000 2.419385 -0.009314 0.000000 0.126630 -0.065813 0.000000 2.462764 -0.010155 0.000000 0.129853 -0.047171 0.000000 2.497335 -0.009458 0.000000 0.130376 -0.034580 0.000000 2.526011 -0.007206 0.000000 0.130237 -0.023383 0.000000 2.545521 -0.006093 0.000000 0.130190 -0.014370 0.000000 2.561333 -0.006774 0.000000 0.127412 -0.002476 0.000000 2.573986 -0.010653 0.000000 0.119059 0.008658 0.000000 2.588859 -0.012688 0.000000 0.106286 0.017296 0.000000 2.597496 -0.009331 0.000000 0.096920 0.018941 0.000000 2.594756 0.000087 0.000000 0.096963 0.020889 0.000000 2.574144 0.008360 0.000000 0.104460 0.026583 0.000000 2.542686 0.014246 0.000000 0.112969 0.038354 0.000000 2.499342 0.018218 0.000000 0.118576 0.053985 0.000000 2.448332 0.020654 0.000000 0.116199 0.074513 0.000000 2.385995 0.019088 0.000000 0.105272 0.096098 0.000000 2.317515 0.012042 0.000000 0.087778 0.119748 0.000000 2.246953 0.002913 0.000000 0.064648 0.147513 0.000000 2.170543 -0.005533 0.000000 0.035595 0.183229 0.000000 2.081951 -0.012107 0.000000 -0.000401 0.227822 0.000000 1.969686 -0.013195 0.000000 -0.039130 0.280082 0.000000 1.811371 -0.004003 0.000000 -0.069893 0.337516 0.000000 
1.674780 0.002631 0.000000 -0.017986 0.660539 0.000000 1.432561 0.023794 0.000000 -0.028300 0.904202 0.000000 1.124026 0.002615 0.000000 -0.029170 -0.942092 0.000000 1.429247 -0.007761 0.000000 -0.021989 -0.666589 0.000000 1.689281 0.000950 0.000000 -0.012189 -0.498634 0.000000 1.895829 0.008750 0.000000 0.001887 -0.396217 0.000000 2.058806 0.015993 0.000000 0.022554 -0.329831 0.000000 2.188817 0.021849 0.000000 0.047651 -0.277890 0.000000 2.294114 0.027934 0.000000 0.069181 -0.222874 0.000000 2.370165 0.029389 0.000000 0.084547 -0.176451 0.000000 2.432055 0.025076 0.000000 0.093224 -0.132029 0.000000 2.478705 0.016390 0.000000 0.098010 -0.098901 0.000000 2.519860 0.007788 0.000000 0.100056 -0.068922 0.000000 2.549433 0.000299 0.000000 0.102341 -0.049180 0.000000 2.574850 -0.004781 0.000000 0.104379 -0.029328 0.000000 2.590129 -0.009494 0.000000 0.107392 -0.015538 0.000000 2.603149 -0.013766 0.000000 0.108562 0.001616 0.000000 2.609597 -0.018183 0.000000 0.107352 0.012552 0.000000 2.617417 -0.018438 0.000000 0.102581 0.022174 0.000000 2.618261 -0.012893 0.000000 0.098939 0.022071 0.000000 2.614573 -0.001661 0.000000 0.097861 0.024802 0.000000 2.598616 0.009057 0.000000 0.099403 0.028861 0.000000 2.577695 0.017044 0.000000 0.099172 0.044847 0.000000 2.545559 0.021089 0.000000 0.096210 0.067051 0.000000 2.506176 0.022189 0.000000 0.085944 0.102276 0.000000 2.451161 0.016508 0.000000 0.070654 0.138608 0.000000 2.387136 0.000522 0.000000 0.055013 0.175467 0.000000 2.317652 -0.019510 0.000000 0.040633 0.217224 0.000000 2.239314 -0.037305 0.000000 0.026956 0.266721 0.000000 2.147010 -0.048147 0.000000 0.012167 0.325105 0.000000 2.033182 -0.047071 0.000000 -0.003938 0.395419 0.000000 1.884666 -0.030511 0.000000 -0.018928 0.491031 0.000000 
1.745375 0.028700 0.000000 -0.055579 0.730514 0.000000 1.547039 0.036850 0.000000 -0.063418 0.987028 0.000000 1.321748 0.002865 0.000000 -0.064530 -1.023414 0.000000 1.539973 -0.013604 0.000000 -0.057745 -0.749242 0.000000 1.750571 -0.015747 0.000000 -0.047244 -0.565775 0.000000 1.928778 -0.019211 0.000000 -0.030336 -0.443817 0.000000 2.073782 -0.023700 0.000000 -0.002968 -0.360233 0.000000 2.193251 -0.026709 0.000000 0.034986 -0.295936 0.000000 2.295269 -0.022421 0.000000 0.069960 -0.228444 0.000000 2.358947 -0.018172 0.000000 0.093448 -0.181154 0.000000 2.415112 -0.014467 0.000000 0.109954 -0.135678 0.000000 2.452438 -0.014100 0.000000 0.118742 -0.106968 0.000000 2.492844 -0.012200 0.000000 0.124164 -0.076744 0.000000 2.517501 -0.011743 0.000000 0.125485 -0.059996 0.000000 2.545903 -0.009244 0.000000 0.126609 -0.038662 0.000000 2.559311 -0.009106 0.000000 0.125316 -0.027390 0.000000 2.578137 -0.007944 0.000000 0.123490 -0.008924 0.000000 2.584734 -0.009443 0.000000 0.117950 0.000838 0.000000 2.598385 -0.007917 0.000000 0.112463 0.016451 0.000000 2.597789 -0.005689 0.000000 0.107584 0.022629 0.000000 2.598031 0.001165 0.000000 0.108336 0.036847 0.000000 2.578882 0.006817 0.000000 0.111474 0.047504 0.000000 2.559170 0.014478 0.000000 0.116868 0.070490 0.000000 2.521789 0.021180 0.000000 0.118019 0.093367 0.000000 2.482955 0.030920 0.000000 0.110683 0.129528 0.000000 2.420734 0.034377 0.000000 0.088627 0.160122 0.000000 2.353641 0.027684 0.000000 0.066191 0.189233 0.000000 2.289163 0.017292 0.000000 0.044948 0.225850 0.000000 2.221840 0.008144 0.000000 0.022724 0.275534 0.000000 2.143866 0.002682 0.000000 -0.001691 0.341650 0.000000 2.046032 0.002909 0.000000 -0.026447 0.428598 0.000000 1.916761 0.010987 0.000000 -0.046906 0.547402 0.000000 
1.867160 0.011304 0.000000 -0.012818 0.858875 0.000000 1.704215 0.031633 0.000000 -0.019021 1.129492 0.000000 1.524117 0.003726 0.000000 -0.020169 -1.160316 0.000000 1.692343 -0.014545 0.000000 -0.016326 -0.877188 0.000000 1.860886 -0.009551 0.000000 -0.010299 -0.676840 0.000000 2.010221 -0.008158 0.000000 0.000674 -0.541222 0.000000 2.138460 -0.011375 0.000000 0.020993 -0.449300 0.000000 2.251779 -0.016105 0.000000 0.052373 -0.379907 0.000000 2.358728 -0.007039 0.000000 0.076912 -0.286552 0.000000 2.416569 0.005901 0.000000 0.089005 -0.232617 0.000000 2.476028 0.008571 0.000000 0.096177 -0.169355 0.000000 2.507396 0.007602 0.000000 0.099859 -0.139307 0.000000 2.549400 0.002366 0.000000 0.102570 -0.093579 0.000000 2.566417 -0.001022 0.000000 0.104243 -0.077581 0.000000 2.595680 -0.005905 0.000000 0.106080 -0.042736 0.000000 2.601542 -0.008201 0.000000 0.107470 -0.034363 0.000000 2.621134 -0.011940 0.000000 0.108239 -0.004981 0.000000 2.619481 -0.012643 0.000000 0.107551 -0.001099 0.000000 2.632799 -0.012952 0.000000 0.105880 0.022769 0.000000 2.624840 -0.008014 0.000000 0.104437 0.021828 0.000000 2.628994 -0.002412 0.000000 0.104366 0.043951 0.000000 2.609902 0.005918 0.000000 0.105317 0.048573 0.000000 2.601200 0.011650 0.000000 0.106066 0.082229 0.000000 2.569128 0.019939 0.000000 0.103842 0.105885 0.000000 2.542262 0.029525 0.000000 0.090541 0.164497 0.000000 2.480459 0.038563 0.000000 0.064009 0.205701 0.000000 2.415920 0.022959 0.000000 0.043312 0.239945 0.000000 2.355043 0.001734 0.000000 0.029372 0.284547 0.000000 2.290830 -0.015082 0.000000 0.018781 0.344695 0.000000 2.216267 -0.023732 0.000000 0.008852 0.422939 0.000000 2.125126 -0.022314 0.000000 -0.001158 0.524690 0.000000 2.010679 -0.010052 0.000000 -0.009818 0.662418 0.000000 
1.952152 0.031700 0.000000 -0.039986 0.893458 0.000000 1.830492 0.043054 0.000000 -0.046365 1.167126 0.000000 1.705398 0.004014 0.000000 -0.047416 -1.191640 0.000000 1.816188 -0.017447 0.000000 -0.045687 -0.917784 0.000000 1.940000 -0.021774 0.000000 -0.040785 -0.715109 0.000000 2.056749 -0.030185 0.000000 -0.030336 -0.572056 0.000000 2.161571 -0.044018 0.000000 -0.006874 -0.473552 0.000000 2.262827 -0.058089 0.000000 0.042113 -0.402885 0.000000 2.384946 -0.046960 0.000000 0.089601 -0.286285 0.000000 2.411150 -0.030266 0.000000 0.094944 -0.240613 0.000000 2.476376 -0.021638 0.000000 0.114278 -0.167047 0.000000 2.482302 -0.017783 0.000000 0.111139 -0.148971 0.000000 2.538122 -0.014911 0.000000 0.125724 -0.093761 0.000000 2.533696 -0.013416 0.000000 0.117523 -0.089259 0.000000 2.580669 -0.011081 0.000000 0.128797 -0.044525 0.000000 2.567647 -0.010497 0.000000 0.117814 -0.046982 0.000000 2.607452 -0.008712 0.000000 0.126858 -0.007271 0.000000 2.588420 -0.008755 0.000000 0.113548 -0.012480 0.000000 2.622473 -0.006247 0.000000 0.121347 0.024410 0.000000 2.596852 -0.004245 0.000000 0.109009 0.018474 0.000000 2.620875 0.001235 0.000000 0.120283 0.055939 0.000000 2.583712 0.005866 0.000000 0.112450 0.056205 0.000000 2.594084 0.013729 0.000000 0.127528 0.102563 0.000000 2.546175 0.023405 0.000000 0.121566 0.120233 0.000000 2.542394 0.044221 0.000000 0.123909 0.191332 0.000000 2.457934 0.060909 0.000000 0.073025 0.224660 0.000000 2.386992 0.048382 0.000000 0.042884 0.250110 0.000000 2.334767 0.031232 0.000000 0.025476 0.290063 0.000000 2.284231 0.018735 0.000000 0.011066 0.350097 0.000000 2.225727 0.012611 0.000000 -0.003942 0.432791 0.000000 2.153299 0.012919 0.000000 -0.019146 0.543045 0.000000 2.062476 0.019647 0.000000 -0.032071 0.690921 0.000000 
2.075219 0.019219 0.000000 -0.007466 0.980535 0.000000 1.981361 0.038012 0.000000 -0.011118 1.254586 0.000000 1.890221 0.004777 0.000000 -0.012115 -1.271106 0.000000 1.965802 -0.016274 0.000000 -0.012627 -1.001000 0.000000 2.056951 -0.014453 0.000000 -0.012489 -0.793590 0.000000 2.147991 -0.018607 0.000000 -0.009252 -0.646044 0.000000 2.234945 -0.034837 0.000000 0.006982 -0.550555 0.000000 2.326811 -0.065092 0.000000 0.059441 -0.502027 0.000000 2.468199 -0.054527 0.000000 0.105227 -0.312756 0.000000 2.463253 0.000557 0.000000 0.093332 -0.297842 0.000000 2.545667 -0.010763 0.000000 0.108513 -0.175282 0.000000 2.527124 0.010742 0.000000 0.096778 -0.195126 0.000000 2.602445 -0.012219 0.000000 0.111995 -0.089153 0.000000 2.572254 0.007179 0.000000 0.099894 -0.124554 0.000000 2.639068 -0.017179 0.000000 0.114191 -0.029715 0.000000 2.599978 0.002781 0.000000 0.102054 -0.074168 0.000000 2.660012 -0.020984 0.000000 0.115366 0.014052 0.000000 2.614819 0.000667 0.000000 0.102578 -0.035153 0.000000 2.669424 -0.020751 0.000000 0.114758 0.048390 0.000000 2.619250 0.004325 0.000000 0.102291 -0.002195 0.000000 2.666904 -0.013686 0.000000 0.115342 0.081114 0.000000 2.610415 0.013751 0.000000 0.105055 0.038202 0.000000 2.649134 -0.003429 0.000000 0.120595 0.130137 0.000000 2.587819 0.025901 0.000000 0.114989 0.109666 0.000000 2.615649 0.027182 0.000000 0.113918 0.248957 0.000000 2.508624 0.089446 0.000000 0.052310 0.276643 0.000000 2.440400 0.053100 0.000000 0.023990 0.292170 0.000000 2.396116 0.019142 0.000000 0.013787 0.335083 0.000000 2.352934 -0.000671 0.000000 0.008985 0.403200 0.000000 2.301846 -0.008724 0.000000 0.004661 0.495367 0.000000 2.239281 -0.007111 0.000000 -0.000162 0.615513 0.000000 2.163486 0.002873 0.000000 -0.004625 0.772742 0.000000 
2.165340 0.034541 0.000000 -0.027471 0.987316 0.000000 2.106038 0.046706 0.000000 -0.031902 1.258266 0.000000 2.055343 0.005010 0.000000 -0.032745 -1.267221 0.000000 2.088911 -0.016935 0.000000 -0.035557 -1.008934 0.000000 2.141757 -0.021913 0.000000 -0.038374 -0.806148 0.000000 2.198647 -0.033422 0.000000 -0.041849 -0.659010 0.000000 2.253595 -0.060252 0.000000 -0.037823 -0.565418 0.000000 2.322699 -0.110549 0.000000 0.031448 -0.544273 0.000000 2.563434 -0.092745 0.000000 0.169840 -0.281338 0.000000 2.423592 -0.018371 0.000000 0.061598 -0.323027 0.000000 2.595106 -0.036819 0.000000 0.157403 -0.148504 0.000000 2.461764 -0.006048 0.000000 0.064196 -0.224292 0.000000 2.643595 -0.030127 0.000000 0.168302 -0.063570 0.000000 2.496512 -0.001315 0.000000 0.068196 -0.156073 0.000000 2.676663 -0.025378 0.000000 0.172743 -0.005435 0.000000 2.520303 0.001640 0.000000 0.068336 -0.107016 0.000000 2.697887 -0.022025 0.000000 0.172835 0.037922 0.000000 2.535444 0.004033 0.000000 0.066120 -0.067086 0.000000 2.709240 -0.018427 0.000000 0.170859 0.074585 0.000000 2.541859 0.008222 0.000000 0.065039 -0.029180 0.000000 2.708506 -0.011815 0.000000 0.171807 0.112429 0.000000 2.535818 0.016153 0.000000 0.069168 0.017486 0.000000 2.691945 -0.001811 0.000000 0.178888 0.163877 0.000000 2.522857 0.029010 0.000000 0.091076 0.092403 0.000000 2.692544 0.045292 0.000000 0.212031 0.298357 0.000000 2.469106 0.122518 0.000000 0.034684 0.292884 0.000000 2.402598 0.076702 0.000000 0.004950 0.294394 0.000000 2.380132 0.041435 0.000000 0.001997 0.333246 0.000000 2.355085 0.023536 0.000000 -0.000750 0.401185 0.000000 2.321132 0.016936 0.000000 -0.006669 0.495355 0.000000 2.277569 0.017742 0.000000 -0.014429 0.618840 0.000000 2.224782 0.024110 0.000000 -0.021874 0.779189 0.000000 
2.284801 0.024816 0.000000 -0.001963 1.039837 0.000000 2.247673 0.042443 0.000000 -0.003625 1.305281 0.000000 2.223044 0.005620 0.000000 -0.004363 -1.304673 0.000000 2.230247 -0.013462 0.000000 -0.008612 -1.053847 0.000000 2.257232 -0.011636 0.000000 -0.015848 -0.850479 0.000000 2.290955 -0.015132 0.000000 -0.029323 -0.700992 0.000000 2.325833 -0.038862 0.000000 -0.046560 -0.619659 0.000000 2.377469 -0.134364 0.000000 -0.000106 -0.742762 0.000000 2.571422 -0.192920 0.000000 0.096456 -0.172914 0.000000 2.431217 0.108800 0.000000 -0.002723 -0.469356 0.000000 2.600905 -0.106569 0.000000 0.080955 -0.041940 0.000000 2.459659 0.103949 0.000000 -0.002399 -0.376958 0.000000 2.647686 -0.116325 0.000000 0.093478 0.057931 0.000000 2.483885 0.107285 0.000000 0.002564 -0.304705 0.000000 2.678349 -0.121726 0.000000 0.102579 0.126645 0.000000 2.499351 0.107189 0.000000 0.006852 -0.251752 0.000000 2.697470 -0.125484 0.000000 0.109646 0.176495 0.000000 2.508149 0.107381 0.000000 0.010719 -0.208949 0.000000 2.707947 -0.125490 0.000000 0.115787 0.215771 0.000000 2.511382 0.110146 0.000000 0.015700 -0.168841 0.000000 2.710882 -0.120455 0.000000 0.124013 0.253802 0.000000 2.508807 0.116391 0.000000 0.024293 -0.117925 0.000000 2.706221 -0.113149 0.000000 0.138585 0.299225 0.000000 2.510977 0.113714 0.000000 0.060578 -0.060022 0.000000 2.742100 -0.093774 0.000000 0.202806 0.472396 0.000000 2.477060 0.266793 0.000000 0.002952 0.343150 0.000000 2.442686 0.082835 0.000000 -0.016521 0.314637 0.000000 2.438067 0.022095 0.000000 -0.008638 0.360130 0.000000 2.423520 0.002076 0.000000 -0.002050 0.437153 0.000000 2.398424 -0.002805 0.000000 0.000520 0.538930 0.000000 2.365205 0.000649 0.000000 0.000424 0.668299 0.000000 2.326154 0.010318 0.000000 -0.000735 0.832185 0.000000 
2.374081 0.035770 0.000000 -0.016524 1.024444 0.000000 2.365347 0.048367 0.000000 -0.018655 1.282896 0.000000 2.372213 0.005749 0.000000 -0.019210 -1.274424 0.000000 2.347750 -0.012686 0.000000 -0.024259 -1.035919 0.000000 2.343374 -0.014676 0.000000 -0.032598 -0.839871 0.000000 2.342878 -0.019947 0.000000 -0.053272 -0.693888 0.000000 2.321733 -0.043015 0.000000 -0.117001 -0.617054 0.000000 2.220714 -0.157002 0.000000 -0.338075 -0.738227 0.000000 1.743876 -0.189307 0.000000 -0.634200 -0.141133 0.000000 2.069608 0.080807 0.000000 -0.480855 -0.492716 0.000000 1.768971 -0.120497 0.000000 -0.639368 -0.007257 0.000000 2.077405 0.077306 0.000000 -0.494147 -0.412320 0.000000 1.758059 -0.126004 0.000000 -0.658673 0.100231 0.000000 2.076603 0.089600 0.000000 -0.505214 -0.350537 0.000000 1.756888 -0.125394 0.000000 -0.668636 0.173563 0.000000 2.079311 0.097367 0.000000 -0.511038 -0.305135 0.000000 1.760753 -0.124819 0.000000 -0.672804 0.227243 0.000000 2.083363 0.102959 0.000000 -0.511961 -0.266883 0.000000 1.768148 -0.123495 0.000000 -0.670118 0.271149 0.000000 2.087286 0.108310 0.000000 -0.505353 -0.228679 0.000000 1.777843 -0.120129 0.000000 -0.656494 0.314503 0.000000 2.090689 0.115873 0.000000 -0.485115 -0.179927 0.000000 1.795038 -0.116103 0.000000 -0.627631 0.359121 0.000000 2.092813 0.107018 0.000000 -0.467003 -0.138720 0.000000 1.796111 -0.096936 0.000000 -0.582184 0.563397 0.000000 2.238631 0.322371 0.000000 -0.186133 0.327258 0.000000 2.395238 0.096175 0.000000 -0.062538 0.299012 0.000000 2.432510 0.033551 0.000000 -0.022391 0.347793 0.000000 2.435363 0.016949 0.000000 -0.009804 0.426281 0.000000 2.425370 0.014365 0.000000 -0.007850 0.528573 0.000000 2.409324 0.017837 0.000000 -0.010140 0.657892 0.000000 2.390848 0.025269 0.000000 -0.013553 0.820541 0.000000 
2.486842 0.027787 0.000000 0.004001 1.048571 0.000000 2.495894 0.044573 0.000000 0.004431 1.298415 0.000000 2.523126 0.006175 0.000000 0.004008 -1.280210 0.000000 2.478528 -0.008413 0.000000 -0.000898 -1.049470 0.000000 2.453400 -0.003297 0.000000 -0.009743 -0.849983 0.000000 2.430604 0.005542 0.000000 -0.031260 -0.679847 0.000000 2.378534 0.024867 0.000000 -0.103201 -0.518639 0.000000 2.214576 0.086710 0.000000 -0.404870 -0.265924 0.000000 1.553643 0.103205 0.000000 -0.816360 -0.498646 0.000000 1.986343 -0.044545 0.000000 -0.608071 -0.168719 0.000000 1.540002 0.051944 0.000000 -0.858397 -0.350373 0.000000 1.982690 -0.041271 0.000000 -0.658388 -0.057613 0.000000 1.489098 0.048201 0.000000 -0.920280 -0.260613 0.000000 1.970707 -0.046174 0.000000 -0.696872 0.015010 0.000000 1.460759 0.041695 0.000000 -0.957674 -0.195778 0.000000 1.965974 -0.050408 0.000000 -0.719722 0.066806 0.000000 1.446066 0.036283 0.000000 -0.979270 -0.146115 0.000000 1.965513 -0.053462 0.000000 -0.731145 0.106265 0.000000 1.441599 0.032666 0.000000 -0.988487 -0.103367 0.000000 1.968564 -0.054619 0.000000 -0.732203 0.140602 0.000000 1.445893 0.030686 0.000000 -0.985157 -0.059044 0.000000 1.976629 -0.054988 0.000000 -0.718537 0.177726 0.000000 1.465985 0.029366 0.000000 -0.967467 0.001449 0.000000 1.983049 -0.046914 0.000000 -0.723258 0.236681 0.000000 1.440313 0.021407 0.000000 -0.944464 0.029875 0.000000 2.214924 -0.129258 0.000000 -0.283729 0.186543 0.000000 2.443980 -0.040760 0.000000 -0.091262 0.277365 0.000000 2.495486 -0.018053 0.000000 -0.030837 0.357277 0.000000 2.505071 -0.010511 0.000000 -0.009279 0.447146 0.000000 2.502218 -0.004759 0.000000 -0.000959 0.554975 0.000000 2.495319 0.002938 0.000000 0.002234 0.686775 0.000000 2.488703 0.013731 0.000000 0.003440 0.848951 0.000000 
2.571559 0.035208 0.000000 -0.006252 1.015392 0.000000 2.603943 0.047937 0.000000 -0.005962 1.255663 0.000000 2.656493 0.006172 0.000000 -0.006213 -1.229826 0.000000 2.589398 -0.007780 0.000000 -0.010370 -1.010791 0.000000 2.544455 -0.005831 0.000000 -0.015906 -0.817076 0.000000 2.510924 0.001570 0.000000 -0.025198 -0.641818 0.000000 2.477013 0.028925 0.000000 -0.041982 -0.453097 0.000000 2.436368 0.144667 0.000000 -0.062002 -0.077293 0.000000 2.427760 0.222182 0.000000 -0.084330 -0.573834 0.000000 2.359341 -0.127481 0.000000 -0.111815 -0.046374 0.000000 2.377738 0.129829 0.000000 -0.127787 -0.449946 0.000000 2.347827 -0.122703 0.000000 -0.139153 0.081272 0.000000 2.360976 0.135887 0.000000 -0.154627 -0.381378 0.000000 2.343459 -0.133808 0.000000 -0.158192 0.159411 0.000000 2.351576 0.135408 0.000000 -0.174345 -0.331652 0.000000 2.343345 -0.140585 0.000000 -0.172456 0.214772 0.000000 2.347066 0.134730 0.000000 -0.189131 -0.292203 0.000000 2.345790 -0.145166 0.000000 -0.182996 0.257031 0.000000 2.345210 0.133847 0.000000 -0.199641 -0.255816 0.000000 2.349604 -0.147973 0.000000 -0.189350 0.293992 0.000000 2.344319 0.132825 0.000000 -0.205142 -0.216232 0.000000 2.355018 -0.150747 0.000000 -0.189906 0.330717 0.000000 2.346120 0.132827 0.000000 -0.203975 -0.157944 0.000000 2.369113 -0.137191 0.000000 -0.175663 0.404016 0.000000 2.362231 0.124270 0.000000 -0.166256 -0.211214 0.000000 2.421631 -0.338363 0.000000 -0.097101 0.098203 0.000000 2.484195 -0.096292 0.000000 -0.044967 0.247506 0.000000 2.512550 -0.026874 0.000000 -0.019150 0.338208 0.000000 2.525927 -0.004609 0.000000 -0.008232 0.429134 0.000000 2.533930 0.006046 0.000000 -0.004744 0.535472 0.000000 2.541588 0.014644 0.000000 -0.004611 0.664508 0.000000 2.552693 0.024064 0.000000 -0.005542 0.822403 0.000000 