# vtk DataFile Version 2.0
Comment goes here
ASCII

DATASET STRUCTURED_POINTS
FIELD FieldData 1
TIME 1 1 double
0.03700000
DIMENSIONS    64   64   1

ORIGIN    0.000   0.000   0.000
SPACING   0.03125 0.03125   1.000

POINT_DATA   4096
SCALARS uX double
LOOKUP_TABLE default

7.358306e-01 -1.203821e+00 5.060413e-01 -1.113259e+00 3.265041e-01 -1.041535e+00 3.625672e-01 -9.557950e-01 3.553334e-01 -8.750929e-01 3.278959e-01 -7.976294e-01 2.887155e-01 -7.202217e-01 2.390254e-01 -6.351853e-01 1.635276e-01 -5.078418e-01 2.178007e-02 -2.996611e-01 -2.081523e-01 -1.989552e-02 -4.840093e-01 2.636679e-01 -7.169629e-01 4.646531e-01 -8.445255e-01 5.427347e-01 -8.533273e-01 5.118662e-01 -7.721350e-01 4.107177e-01 -6.464057e-01 2.824613e-01 -5.200166e-01 1.741066e-01 -4.387225e-01 1.267990e-01 -4.320553e-01 1.539141e-01 -4.982000e-01 2.419961e-01 -6.124016e-01 3.604258e-01 -7.334154e-01 4.569801e-01 -8.094734e-01 4.902551e-01 -8.084647e-01 4.339115e-01 -7.138598e-01 2.775970e-01 -5.254125e-01 4.317046e-02 -2.849208e-01 -2.238815e-01 -3.871395e-02 -4.872236e-01 1.884527e-01 -7.319630e-01 3.853730e-01 -9.530803e-01 5.525353e-01 -1.165291e+00 
-4.241322e-01 2.513839e-01 -1.625985e-01 2.004339e-01 1.467386e-02 1.748198e-01 -1.157484e-01 1.330912e-01 -1.872802e-01 9.889259e-02 -2.306576e-01 6.956904e-02 -2.595840e-01 4.416980e-02 -2.804777e-01 1.992799e-02 -2.890026e-01 -2.254433e-02 -2.621609e-01 -1.066096e-01 -1.835258e-01 -2.318610e-01 -7.646581e-02 -3.602305e-01 1.025697e-02 -4.464091e-01 4.609543e-02 -4.717521e-01 2.744635e-02 -4.456130e-01 -2.842889e-02 -3.901295e-01 -9.844624e-02 -3.243292e-01 -1.633195e-01 -2.717347e-01 -1.986839e-01 -2.536789e-01 -1.927556e-01 -2.749376e-01 -1.468494e-01 -3.275758e-01 -7.427548e-02 -3.977366e-01 5.044346e-03 -4.585451e-01 6.397242e-02 -4.865697e-01 8.578940e-02 -4.701656e-01 6.380399e-02 -4.038196e-01 -4.421836e-03 -2.966808e-01 -9.588154e-02 -1.739489e-01 -1.853109e-01 -5.305659e-02 -2.613062e-01 6.074666e-02 -3.173379e-01 1.627679e-01 -3.501318e-01 2.657422e-01 
6.852569e-01 5.127263e-01 6.745806e-01 4.397234e-01 5.001580e-01 3.915153e-01 8.029665e-01 3.577040e-01 1.020459e+00 3.138864e-01 1.186473e+00 2.719444e-01 1.318194e+00 2.363592e-01 1.427113e+00 2.049233e-01 1.529084e+00 1.532113e-01 1.658655e+00 4.964543e-02 1.840424e+00 -1.048320e-01 2.047899e+00 -2.618197e-01 2.220053e+00 -3.624842e-01 2.314694e+00 -3.829282e-01 2.326776e+00 -3.379973e-01 2.277056e+00 -2.562757e-01 2.197266e+00 -1.653371e-01 2.115098e+00 -9.476986e-02 2.062500e+00 -7.126202e-02 2.058608e+00 -1.007902e-01 2.101480e+00 -1.726307e-01 2.174066e+00 -2.677043e-01 2.249432e+00 -3.501365e-01 2.291242e+00 -3.923028e-01 2.278583e+00 -3.774506e-01 2.199085e+00 -2.974707e-01 2.049044e+00 -1.655902e-01 1.856343e+00 -1.477082e-02 1.649891e+00 1.314271e-01 1.439921e+00 2.652550e-01 1.227367e+00 3.864091e-01 1.001010e+00 5.164770e-01 
2.140237e+00 -7.928857e-02 1.483915e+00 -9.816542e-02 6.822286e-01 -7.534778e-02 1.551873e+00 -5.245006e-02 2.071636e+00 -3.170159e-02 2.428676e+00 -1.139883e-02 2.695971e+00 7.710775e-03 2.909292e+00 2.296897e-02 3.083226e+00 4.192656e-02 3.207991e+00 7.892986e-02 3.277608e+00 1.365510e-01 3.307923e+00 1.946883e-01 3.331591e+00 2.299880e-01 3.365500e+00 2.355723e-01 3.412902e+00 2.192814e-01 3.464778e+00 1.941630e-01 3.513128e+00 1.661420e-01 3.551394e+00 1.453262e-01 3.569758e+00 1.403522e-01 3.562433e+00 1.526908e-01 3.531226e+00 1.772155e-01 3.480214e+00 2.090615e-01 3.416821e+00 2.340248e-01 3.350760e+00 2.415426e-01 3.285908e+00 2.274323e-01 3.221014e+00 1.909128e-01 3.158623e+00 1.395953e-01 3.086184e+00 8.915172e-02 2.987643e+00 4.670677e-02 2.852591e+00 9.241444e-03 2.668242e+00 -2.672712e-02 2.416970e+00 -8.255526e-02 
2.154479e+00 -8.100446e-03 1.644360e+00 -3.802697e-02 9.965848e-01 -2.846206e-02 1.686814e+00 -2.417050e-02 2.148469e+00 -2.962941e-03 2.480700e+00 2.216165e-02 2.734573e+00 4.752499e-02 2.937690e+00 6.969040e-02 3.104254e+00 8.791423e-02 3.230207e+00 1.094326e-01 3.317336e+00 1.356598e-01 3.373512e+00 1.592559e-01 3.417326e+00 1.712155e-01 3.455912e+00 1.719630e-01 3.493361e+00 1.657636e-01 3.525573e+00 1.593006e-01 3.552472e+00 1.525762e-01 3.571392e+00 1.495087e-01 3.580720e+00 1.515952e-01 3.576219e+00 1.593294e-01 3.559941e+00 1.690626e-01 3.530327e+00 1.805367e-01 3.489907e+00 1.865032e-01 3.439303e+00 1.835708e-01 3.378883e+00 1.691379e-01 3.304988e+00 1.450695e-01 3.221358e+00 1.163830e-01 3.124077e+00 9.126084e-02 3.005344e+00 7.200309e-02 2.857776e+00 5.645691e-02 2.669933e+00 4.061182e-02 2.428909e+00 8.678818e-03 
2.220364e+00 -7.309761e-02 1.793650e+00 -7.650489e-02 1.284025e+00 -7.803330e-02 1.791448e+00 -5.415398e-02 2.207947e+00 -3.361347e-02 2.524553e+00 -1.257761e-02 2.770371e+00 1.140732e-02 2.967981e+00 3.885686e-02 3.128097e+00 6.875767e-02 3.241748e+00 1.036296e-01 3.316921e+00 1.430828e-01 3.361212e+00 1.800736e-01 3.395704e+00 2.048864e-01 3.427552e+00 2.142400e-01 3.464757e+00 2.098411e-01 3.500941e+00 1.978724e-01 3.535633e+00 1.828229e-01 3.560604e+00 1.716486e-01 3.574378e+00 1.685946e-01 3.569961e+00 1.758149e-01 3.550386e+00 1.902196e-01 3.514030e+00 2.081617e-01 3.467656e+00 2.214149e-01 3.412092e+00 2.232768e-01 3.351870e+00 2.079662e-01 3.282574e+00 1.755999e-01 3.205894e+00 1.344151e-01 3.120874e+00 9.274261e-02 3.018756e+00 5.439486e-02 2.889172e+00 1.893089e-02 2.720906e+00 -1.533272e-02 2.502121e+00 -5.233387e-02 
2.315409e+00 1.927600e-03 1.977435e+00 -1.600554e-02 1.573841e+00 -1.802224e-02 1.962482e+00 -1.113811e-02 2.305985e+00 1.695452e-03 2.582310e+00 2.080561e-02 2.805046e+00 4.565480e-02 2.989939e+00 7.413853e-02 3.146625e+00 9.935227e-02 3.258446e+00 1.215946e-01 3.343335e+00 1.402921e-01 3.399071e+00 1.562255e-01 3.446395e+00 1.646553e-01 3.480651e+00 1.681651e-01 3.515115e+00 1.660479e-01 3.539437e+00 1.640277e-01 3.563099e+00 1.606345e-01 3.575089e+00 1.607140e-01 3.583690e+00 1.622449e-01 3.577994e+00 1.684163e-01 3.567228e+00 1.747009e-01 3.541977e+00 1.825424e-01 3.511165e+00 1.850014e-01 3.465574e+00 1.808386e-01 3.411606e+00 1.632162e-01 3.337653e+00 1.365679e-01 3.252161e+00 1.090843e-01 3.158583e+00 8.600096e-02 3.051455e+00 6.800113e-02 2.922657e+00 5.289522e-02 2.763293e+00 3.715437e-02 2.564417e+00 1.551224e-02 
2.435827e+00 -4.207863e-02 2.157980e+00 -4.994053e-02 1.839314e+00 -5.215836e-02 2.123895e+00 -4.235130e-02 2.407330e+00 -2.968574e-02 2.650577e+00 -1.283985e-02 2.853746e+00 1.292271e-02 3.027836e+00 5.136327e-02 3.182961e+00 9.208560e-02 3.280300e+00 1.217778e-01 3.355021e+00 1.511523e-01 3.396233e+00 1.732642e-01 3.437538e+00 1.916975e-01 3.463404e+00 1.984463e-01 3.498716e+00 2.001556e-01 3.521764e+00 1.938035e-01 3.551263e+00 1.882803e-01 3.564038e+00 1.817629e-01 3.577304e+00 1.824466e-01 3.569632e+00 1.860533e-01 3.559912e+00 1.967727e-01 3.530248e+00 2.065564e-01 3.500318e+00 2.162756e-01 3.452908e+00 2.142884e-01 3.404047e+00 1.985498e-01 3.331320e+00 1.581701e-01 3.247206e+00 1.158345e-01 3.164464e+00 7.955274e-02 3.074423e+00 4.894743e-02 2.965699e+00 2.171955e-02 2.828734e+00 -3.909039e-03 2.655261e+00 -2.802653e-02 
2.566232e+00 1.082000e-02 2.348819e+00 -3.694047e-04 2.105589e+00 -2.574668e-03 2.315292e+00 -1.099153e-03 2.536197e+00 4.196406e-03 2.736995e+00 1.632686e-02 2.913000e+00 4.063127e-02 3.072214e+00 8.074879e-02 3.230592e+00 1.194226e-01 3.313362e+00 1.371467e-01 3.396110e+00 1.516940e-01 3.433465e+00 1.592751e-01 3.486963e+00 1.661336e-01 3.505668e+00 1.678562e-01 3.545752e+00 1.687832e-01 3.554358e+00 1.675708e-01 3.584179e+00 1.673693e-01 3.582414e+00 1.677051e-01 3.599968e+00 1.703516e-01 3.585327e+00 1.747115e-01 3.588518e+00 1.806430e-01 3.560007e+00 1.868689e-01 3.547452e+00 1.911526e-01 3.501496e+00 1.883933e-01 3.464025e+00 1.689270e-01 3.379747e+00 1.296201e-01 3.289880e+00 9.589081e-02 3.206597e+00 7.317672e-02 3.119843e+00 5.810755e-02 3.019070e+00 4.631392e-02 2.896871e+00 3.450908e-02 2.747707e+00 2.123630e-02 
2.703142e+00 -2.129296e-02 2.533039e+00 -2.766816e-02 2.349446e+00 -2.969643e-02 2.491167e+00 -2.936907e-02 2.657614e+00 -2.666109e-02 2.819025e+00 -2.000859e-02 2.967544e+00 6.682298e-04 3.113119e+00 5.562829e-02 3.293589e+00 1.387684e-01 3.340934e+00 1.355621e-01 3.425307e+00 1.755200e-01 3.431326e+00 1.632778e-01 3.494743e+00 1.986671e-01 3.489419e+00 1.798477e-01 3.545016e+00 2.064799e-01 3.535032e+00 1.803733e-01 3.583797e+00 2.024675e-01 3.565607e+00 1.760402e-01 3.601919e+00 2.012872e-01 3.570316e+00 1.808006e-01 3.590998e+00 2.121011e-01 3.546142e+00 1.964297e-01 3.553386e+00 2.292847e-01 3.496120e+00 2.092793e-01 3.483923e+00 2.232573e-01 3.385342e+00 1.440936e-01 3.285453e+00 8.907926e-02 3.215668e+00 5.816733e-02 3.149262e+00 3.750574e-02 3.070515e+00 2.002888e-02 2.972173e+00 3.575269e-03 2.850417e+00 -1.115221e-02 
2.844725e+00 1.908735e-02 2.720405e+00 1.318599e-02 2.592837e+00 1.131500e-02 2.682254e+00 6.944592e-03 2.799222e+00 2.903581e-03 2.921442e+00 1.488712e-03 3.041501e+00 1.568604e-02 3.168965e+00 7.480701e-02 3.381916e+00 1.823322e-01 3.371658e+00 1.413091e-01 3.489471e+00 1.858067e-01 3.455235e+00 1.468542e-01 3.559697e+00 1.882914e-01 3.511660e+00 1.519202e-01 3.606393e+00 1.887835e-01 3.549360e+00 1.535578e-01 3.636195e+00 1.883265e-01 3.570916e+00 1.558927e-01 3.648561e+00 1.912345e-01 3.574837e+00 1.631843e-01 3.642551e+00 2.001157e-01 3.561662e+00 1.767739e-01 3.620091e+00 2.155824e-01 3.530044e+00 1.948686e-01 3.568475e+00 2.074889e-01 3.418898e+00 1.188915e-01 3.318546e+00 6.919017e-02 3.258540e+00 5.015874e-02 3.202845e+00 4.274984e-02 3.136615e+00 3.777506e-02 3.055373e+00 3.206909e-02 2.957910e+00 2.535102e-02 
2.983227e+00 -4.595477e-03 2.897424e+00 -7.820052e-03 2.815323e+00 -9.417403e-03 2.855322e+00 -1.516093e-02 2.925462e+00 -2.302692e-02 3.004755e+00 -3.673460e-02 3.084513e+00 -5.143444e-02 3.186969e+00 -1.571217e-02 3.526430e+00 3.162813e-01 3.355617e+00 5.012227e-02 3.576187e+00 2.949484e-01 3.401183e+00 4.839044e-02 3.628355e+00 3.085824e-01 3.443098e+00 5.791749e-02 3.667407e+00 3.171507e-01 3.475346e+00 6.031998e-02 3.696062e+00 3.185341e-01 3.496537e+00 6.028457e-02 3.709337e+00 3.203289e-01 3.501349e+00 6.614233e-02 3.704622e+00 3.291731e-01 3.491211e+00 8.118002e-02 3.690796e+00 3.466537e-01 3.478020e+00 1.050802e-01 3.682685e+00 3.952647e-01 3.409534e+00 9.965403e-02 3.293665e+00 3.239365e-02 3.266720e+00 2.375713e-02 3.237652e+00 2.106819e-02 3.194148e+00 1.586043e-02 3.136093e+00 8.540736e-03 3.064891e+00 1.103718e-03 
3.124951e+00 2.746335e-02 3.075357e+00 2.634699e-02 3.036288e+00 2.499019e-02 3.036665e+00 1.743785e-02 3.067124e+00 4.909811e-03 3.110734e+00 -1.978195e-02 3.160187e+00 -6.101455e-02 3.233384e+00 -4.564377e-02 3.461688e+00 1.530481e-01 3.301505e+00 -5.488381e-02 3.525156e+00 1.515619e-01 3.341393e+00 -5.029378e-02 3.588984e+00 1.812571e-01 3.372060e+00 -3.715032e-02 3.633177e+00 2.050544e-01 3.392940e+00 -2.667427e-02 3.663012e+00 2.238351e-01 3.405073e+00 -1.661562e-02 3.680005e+00 2.424840e-01 3.408056e+00 -2.695824e-03 3.687137e+00 2.670284e-01 3.404794e+00 1.967597e-02 3.696555e+00 3.070946e-01 3.412605e+00 7.158630e-02 3.745617e+00 4.317611e-01 3.365851e+00 5.778573e-02 3.307979e+00 3.170131e-03 3.311388e+00 1.211181e-02 3.298297e+00 2.336132e-02 3.268393e+00 2.904628e-02 3.226899e+00 3.033303e-02 3.177709e+00 2.924221e-02 
3.258097e+00 1.024732e-02 3.240311e+00 1.117082e-02 3.237582e+00 1.014066e-02 3.201302e+00 3.978149e-03 3.193695e+00 -5.798129e-03 3.192326e+00 -2.868762e-02 3.160729e+00 -1.001404e-01 3.010726e+00 -3.432642e-01 2.286098e+00 -1.047163e+00 2.739712e+00 -6.517827e-01 2.314944e+00 -1.063863e+00 2.760264e+00 -6.549209e-01 2.329149e+00 -1.057133e+00 2.766281e+00 -6.514076e-01 2.341789e+00 -1.048805e+00 2.772001e+00 -6.477923e-01 2.354256e+00 -1.041428e+00 2.776438e+00 -6.423904e-01 2.365683e+00 -1.028519e+00 2.776115e+00 -6.298747e-01 2.373612e+00 -1.005747e+00 2.770414e+00 -6.079050e-01 2.382008e+00 -9.724399e-01 2.776595e+00 -5.732253e-01 2.432520e+00 -9.199200e-01 2.998108e+00 -3.004205e-01 3.267199e+00 -8.668608e-02 3.333555e+00 -1.700334e-02 3.342396e+00 6.551229e-03 3.330678e+00 1.325331e-02 3.309307e+00 1.340542e-02 3.283467e+00 1.160572e-02 
3.393977e+00 3.640129e-02 3.405289e+00 3.990258e-02 3.436474e+00 3.914636e-02 3.369146e+00 3.388265e-02 3.328640e+00 2.630113e-02 3.290681e+00 1.089239e-02 3.208517e+00 -4.933297e-02 2.969455e+00 -3.458337e-01 2.063753e+00 -1.234448e+00 2.579073e+00 -7.370607e-01 1.990632e+00 -1.347923e+00 2.582028e+00 -8.083623e-01 1.939943e+00 -1.430498e+00 2.578828e+00 -8.581098e-01 1.907591e+00 -1.485681e+00 2.578236e+00 -8.908581e-01 1.886581e+00 -1.522938e+00 2.578281e+00 -9.106597e-01 1.873602e+00 -1.545352e+00 2.577249e+00 -9.203153e-01 1.862591e+00 -1.559407e+00 2.574015e+00 -9.247481e-01 1.847726e+00 -1.575280e+00 2.581019e+00 -9.294575e-01 1.854227e+00 -1.603257e+00 2.932943e+00 -4.908009e-01 3.319294e+00 -1.373871e-01 3.398373e+00 -2.858282e-02 3.412343e+00 9.640696e-03 3.409716e+00 2.480742e-02 3.402236e+00 3.126154e-02 3.395271e+00 3.428653e-02 
3.517952e+00 2.420315e-02 3.555728e+00 2.875514e-02 3.616706e+00 2.828440e-02 3.524637e+00 2.338344e-02 3.462467e+00 1.673190e-02 3.415879e+00 6.463163e-03 3.368770e+00 -1.069371e-02 3.316421e+00 -2.469320e-02 3.355898e+00 -1.665428e-02 3.194132e+00 -1.011217e-01 3.265292e+00 -1.108875e-01 3.175706e+00 -1.531505e-01 3.233190e+00 -1.700345e-01 3.168941e+00 -1.874412e-01 3.213598e+00 -2.122495e-01 3.168381e+00 -2.135812e-01 3.201366e+00 -2.449904e-01 3.170012e+00 -2.340607e-01 3.191141e+00 -2.707975e-01 3.171108e+00 -2.493048e-01 3.179683e+00 -2.921406e-01 3.173302e+00 -2.607022e-01 3.171275e+00 -3.103311e-01 3.193756e+00 -2.506459e-01 3.190400e+00 -2.750393e-01 3.270920e+00 -1.620173e-01 3.388473e+00 -6.296304e-02 3.438230e+00 -1.379517e-02 3.460266e+00 8.106279e-03 3.472314e+00 1.708882e-02 3.482415e+00 2.048516e-02 3.495829e+00 2.212993e-02 
3.644288e+00 4.574774e-02 3.705697e+00 5.193406e-02 3.793816e+00 5.171373e-02 3.680099e+00 4.577358e-02 3.597871e+00 3.573440e-02 3.539019e+00 1.780453e-02 3.502779e+00 -7.447289e-03 3.522468e+00 1.601470e-02 3.848727e+00 3.955043e-01 3.569422e+00 7.518708e-02 3.799390e+00 3.556893e-01 3.535115e+00 4.705408e-02 3.799258e+00 3.473865e-01 3.529028e+00 3.453694e-02 3.804453e+00 3.424633e-01 3.528477e+00 2.597248e-02 3.810378e+00 3.392938e-01 3.530405e+00 2.072840e-02 3.815314e+00 3.379790e-01 3.534052e+00 1.946876e-02 3.821307e+00 3.408036e-01 3.542816e+00 2.484166e-02 3.838446e+00 3.553984e-01 3.569657e+00 5.338715e-02 3.889249e+00 4.500384e-01 3.548176e+00 5.197810e-02 3.482342e+00 -6.683954e-03 3.506245e+00 4.981136e-03 3.529744e+00 1.994758e-02 3.550059e+00 2.998617e-02 3.572516e+00 3.640750e-02 3.602130e+00 4.115878e-02 
3.756852e+00 3.750430e-02 3.840271e+00 4.438106e-02 3.953086e+00 4.443890e-02 3.822322e+00 4.044107e-02 3.725505e+00 3.540667e-02 3.658576e+00 2.997110e-02 3.622938e+00 3.018349e-02 3.636763e+00 6.595946e-02 3.786835e+00 2.249531e-01 3.674078e+00 1.335814e-01 3.753133e+00 2.365116e-01 3.638103e+00 1.318163e-01 3.740427e+00 2.436535e-01 3.623701e+00 1.309756e-01 3.736893e+00 2.481830e-01 3.617860e+00 1.294354e-01 3.738163e+00 2.509979e-01 3.617027e+00 1.280947e-01 3.741736e+00 2.541205e-01 3.619352e+00 1.290177e-01 3.748156e+00 2.609334e-01 3.626452e+00 1.353618e-01 3.761996e+00 2.774822e-01 3.640001e+00 1.510897e-01 3.783215e+00 3.001561e-01 3.614368e+00 1.027473e-01 3.548808e+00 3.730658e-02 3.557439e+00 2.509777e-02 3.581649e+00 2.556934e-02 3.611568e+00 2.795622e-02 3.648174e+00 3.039250e-02 3.694964e+00 3.328606e-02 
3.871331e+00 5.553473e-02 3.973967e+00 6.334447e-02 4.108631e+00 6.363574e-02 3.962080e+00 5.877550e-02 3.850346e+00 5.264884e-02 3.771482e+00 4.836678e-02 3.727092e+00 5.767215e-02 3.726555e+00 1.095611e-01 3.794049e+00 1.822735e-01 3.751395e+00 1.724841e-01 3.769391e+00 1.982889e-01 3.714948e+00 1.735569e-01 3.745884e+00 1.968459e-01 3.694805e+00 1.707697e-01 3.734702e+00 1.948818e-01 3.685231e+00 1.686913e-01 3.731108e+00 1.941997e-01 3.682663e+00 1.684025e-01 3.732852e+00 1.958977e-01 3.685819e+00 1.712998e-01 3.740280e+00 2.020668e-01 3.695645e+00 1.799843e-01 3.754625e+00 2.163863e-01 3.708528e+00 1.948179e-01 3.762794e+00 2.138186e-01 3.674180e+00 1.185652e-01 3.623064e+00 6.184190e-02 3.624531e+00 4.198404e-02 3.649044e+00 3.847816e-02 3.685390e+00 4.064682e-02 3.732437e+00 4.465228e-02 3.792877e+00 4.956827e-02 
3.971026e+00 5.015428e-02 4.091884e+00 5.854369e-02 4.246991e+00 5.910456e-02 4.086861e+00 5.641306e-02 3.962165e+00 5.448676e-02 3.871427e+00 5.703350e-02 3.814204e+00 7.244790e-02 3.792237e+00 1.132122e-01 3.808672e+00 1.591753e-01 3.783813e+00 1.690745e-01 3.774879e+00 1.857173e-01 3.741285e+00 1.807989e-01 3.741122e+00 1.917820e-01 3.713280e+00 1.835435e-01 3.721826e+00 1.935132e-01 3.698497e+00 1.840966e-01 3.713388e+00 1.941448e-01 3.693295e+00 1.844432e-01 3.712893e+00 1.954501e-01 3.695603e+00 1.864149e-01 3.719517e+00 1.993931e-01 3.705037e+00 1.914887e-01 3.732324e+00 2.057606e-01 3.716513e+00 1.916690e-01 3.739253e+00 1.856010e-01 3.696955e+00 1.236196e-01 3.663556e+00 7.670222e-02 3.668223e+00 5.283946e-02 3.697331e+00 4.308968e-02 3.742303e+00 4.038366e-02 3.801257e+00 4.127605e-02 3.876106e+00 4.456785e-02 
4.072168e+00 6.548232e-02 4.208526e+00 7.453342e-02 4.381131e+00 7.531714e-02 4.208177e+00 7.201339e-02 4.070507e+00 6.922897e-02 3.967211e+00 7.158462e-02 3.897534e+00 8.781164e-02 3.861833e+00 1.256337e-01 3.859394e+00 1.612990e-01 3.835770e+00 1.762382e-01 3.817168e+00 1.846540e-01 3.786485e+00 1.841161e-01 3.775034e+00 1.854448e-01 3.751986e+00 1.825529e-01 3.749693e+00 1.831745e-01 3.733059e+00 1.805412e-01 3.737630e+00 1.817506e-01 3.725902e+00 1.800148e-01 3.735890e+00 1.824473e-01 3.728563e+00 1.821864e-01 3.743544e+00 1.865308e-01 3.740275e+00 1.879324e-01 3.758530e+00 1.928332e-01 3.754390e+00 1.878742e-01 3.766581e+00 1.704275e-01 3.740494e+00 1.237673e-01 3.716976e+00 8.371193e-02 3.724473e+00 6.121393e-02 3.757602e+00 5.217605e-02 3.809285e+00 5.079118e-02 3.877421e+00 5.343389e-02 3.963700e+00 5.848379e-02 
4.157971e+00 6.190880e-02 4.309275e+00 7.146749e-02 4.498608e+00 7.250220e-02 4.313793e+00 7.062870e-02 4.164042e+00 6.985602e-02 4.048327e+00 7.423648e-02 3.965110e+00 9.047691e-02 3.913655e+00 1.232939e-01 3.894030e+00 1.576622e-01 3.860529e+00 1.718631e-01 3.833479e+00 1.826713e-01 3.799203e+00 1.834559e-01 3.781343e+00 1.876580e-01 3.756693e+00 1.856203e-01 3.749031e+00 1.883621e-01 3.732558e+00 1.857138e-01 3.732740e+00 1.882124e-01 3.722646e+00 1.856478e-01 3.729014e+00 1.885929e-01 3.724491e+00 1.866800e-01 3.736411e+00 1.905581e-01 3.737042e+00 1.890146e-01 3.753020e+00 1.917788e-01 3.755038e+00 1.828268e-01 3.767489e+00 1.660862e-01 3.754162e+00 1.238235e-01 3.741637e+00 8.701824e-02 3.757243e+00 6.453124e-02 3.798150e+00 5.368455e-02 3.858780e+00 5.015161e-02 3.937460e+00 5.106706e-02 4.035881e+00 5.510520e-02 
4.244815e+00 7.516789e-02 4.408372e+00 8.538895e-02 4.611472e+00 8.663223e-02 4.415617e+00 8.413012e-02 4.254135e+00 8.146706e-02 4.126249e+00 8.211438e-02 4.031316e+00 9.310955e-02 3.971327e+00 1.248323e-01 3.954587e+00 1.777757e-01 3.909664e+00 1.747571e-01 3.879123e+00 1.939789e-01 3.835422e+00 1.779352e-01 3.818364e+00 1.927280e-01 3.786199e+00 1.752857e-01 3.781103e+00 1.897925e-01 3.758090e+00 1.726038e-01 3.762001e+00 1.877334e-01 3.746285e+00 1.712563e-01 3.757348e+00 1.873942e-01 3.748277e+00 1.719778e-01 3.765843e+00 1.894284e-01 3.763394e+00 1.748443e-01 3.786481e+00 1.925226e-01 3.787796e+00 1.739406e-01 3.809042e+00 1.787763e-01 3.794054e+00 1.236863e-01 3.778825e+00 8.403367e-02 3.800558e+00 6.482559e-02 3.848928e+00 5.794734e-02 3.917114e+00 5.765212e-02 4.004029e+00 6.106419e-02 4.111882e+00 6.700686e-02 
4.316002e+00 7.260609e-02 4.491585e+00 8.330509e-02 4.708087e+00 8.477385e-02 4.501682e+00 8.299319e-02 4.329179e+00 8.059802e-02 4.189730e+00 8.007185e-02 4.082673e+00 8.770005e-02 4.011042e+00 1.155725e-01 3.997700e+00 1.914303e-01 3.927801e+00 1.666390e-01 3.900157e+00 2.016536e-01 3.838641e+00 1.697358e-01 3.830145e+00 2.018901e-01 3.781311e+00 1.698647e-01 3.787046e+00 2.009096e-01 3.748100e+00 1.691285e-01 3.764471e+00 1.997707e-01 3.733553e+00 1.683384e-01 3.758269e+00 1.990202e-01 3.734844e+00 1.681373e-01 3.767142e+00 1.992208e-01 3.751743e+00 1.686900e-01 3.791518e+00 1.999612e-01 3.783190e+00 1.671410e-01 3.825484e+00 1.887358e-01 3.800313e+00 1.211632e-01 3.789979e+00 8.042290e-02 3.822464e+00 6.278146e-02 3.880639e+00 5.661296e-02 3.957868e+00 5.608309e-02 4.054071e+00 5.891929e-02 4.172010e+00 6.443443e-02 
4.387913e+00 8.438629e-02 4.572806e+00 9.589466e-02 4.799790e+00 9.755298e-02 4.584074e+00 9.565072e-02 4.400938e+00 9.136800e-02 4.248583e+00 8.422593e-02 4.126473e+00 7.418302e-02 4.045481e+00 7.130150e-02 4.087017e+00 2.804112e-01 3.955359e+00 1.196116e-01 3.962219e+00 2.646386e-01 3.846808e+00 1.085463e-01 3.886413e+00 2.601707e-01 3.782162e+00 1.037663e-01 3.840530e+00 2.570930e-01 3.744605e+00 1.001417e-01 3.816490e+00 2.550250e-01 3.727827e+00 9.782914e-02 3.809839e+00 2.540607e-01 3.728782e+00 9.696970e-02 3.819654e+00 2.547227e-01 3.747853e+00 9.739308e-02 3.848978e+00 2.574378e-01 3.789805e+00 9.923173e-02 3.905460e+00 2.834477e-01 3.826229e+00 1.064658e-01 3.803736e+00 5.986918e-02 3.853030e+00 5.443645e-02 3.922475e+00 5.699725e-02 4.007293e+00 6.152117e-02 4.110331e+00 6.739075e-02 4.235625e+00 7.488050e-02 
4.443964e+00 8.234277e-02 4.638197e+00 9.431955e-02 4.875562e+00 9.617296e-02 4.650702e+00 9.490161e-02 4.457693e+00 9.070993e-02 4.294250e+00 8.161364e-02 4.159183e+00 6.414987e-02 4.061038e+00 5.123612e-02 4.067638e+00 2.181902e-01 3.919089e+00 6.415101e-02 3.926365e+00 2.037504e-01 3.799050e+00 5.706596e-02 3.843581e+00 2.065697e-01 3.725237e+00 5.674185e-02 3.792969e+00 2.094810e-01 3.681542e+00 5.664344e-02 3.766141e+00 2.116697e-01 3.660983e+00 5.651309e-02 3.758450e+00 2.135074e-01 3.660221e+00 5.660802e-02 3.769211e+00 2.160908e-01 3.680015e+00 5.719832e-02 3.803355e+00 2.217153e-01 3.729329e+00 6.391393e-02 3.879819e+00 2.658111e-01 3.789228e+00 8.022113e-02 3.798330e+00 4.585240e-02 3.866379e+00 4.814054e-02 3.946436e+00 5.398922e-02 4.039177e+00 5.947126e-02 4.149760e+00 6.537699e-02 4.283031e+00 7.273653e-02 
4.500488e+00 9.310644e-02 4.701321e+00 1.058813e-01 4.946205e+00 1.078892e-01 4.714869e+00 1.076380e-01 4.513798e+00 1.052223e-01 4.336711e+00 9.973546e-02 4.168851e+00 8.119598e-02 3.970709e+00 1.312926e-02 3.568124e+00 -4.280284e-01 3.593422e+00 -1.838715e-01 3.386316e+00 -4.620457e-01 3.474610e+00 -2.033644e-01 3.275279e+00 -4.785049e-01 3.394323e+00 -2.165868e-01 3.205261e+00 -4.892001e-01 3.345752e+00 -2.248487e-01 3.165999e+00 -4.960860e-01 3.321917e+00 -2.291424e-01 3.152155e+00 -4.991457e-01 3.319264e+00 -2.299077e-01 3.160754e+00 -4.999539e-01 3.336930e+00 -2.286758e-01 3.192422e+00 -5.021441e-01 3.381825e+00 -2.277210e-01 3.264355e+00 -5.214609e-01 3.563578e+00 -1.469154e-01 3.788341e+00 -8.612409e-03 3.894595e+00 3.686922e-02 3.983020e+00 5.503802e-02 4.080243e+00 6.516955e-02 4.195307e+00 7.349033e-02 4.333691e+00 8.240323e-02 
4.541003e+00 9.122085e-02 4.748677e+00 1.042758e-01 5.001151e+00 1.064340e-01 4.762760e+00 1.068535e-01 4.553732e+00 1.057127e-01 4.366171e+00 1.030523e-01 4.180393e+00 8.793247e-02 3.943627e+00 5.991720e-03 3.434560e+00 -5.895446e-01 3.489922e+00 -2.411967e-01 3.219799e+00 -6.428774e-01 3.362422e+00 -2.713582e-01 3.088147e+00 -6.761824e-01 3.276186e+00 -2.929782e-01 3.004842e+00 -6.983037e-01 3.224516e+00 -3.071473e-01 2.957403e+00 -7.136712e-01 3.199595e+00 -3.161781e-01 2.939357e+00 -7.238972e-01 3.197540e+00 -3.215037e-01 2.946424e+00 -7.326072e-01 3.217055e+00 -3.256871e-01 2.977316e+00 -7.464898e-01 3.264185e+00 -3.330972e-01 3.045443e+00 -7.969587e-01 3.492367e+00 -2.270010e-01 3.788689e+00 -2.820139e-02 3.907785e+00 3.180746e-02 4.001261e+00 5.324142e-02 4.103274e+00 6.382428e-02 4.223632e+00 7.191209e-02 4.367850e+00 8.055490e-02 
4.581796e+00 1.011918e-01 4.793586e+00 1.144426e-01 5.050812e+00 1.166776e-01 4.810315e+00 1.165923e-01 4.600497e+00 1.136362e-01 4.417383e+00 1.068822e-01 4.255144e+00 9.241950e-02 4.109578e+00 6.682159e-02 4.004788e+00 6.887386e-02 3.868378e+00 1.850635e-02 3.815696e+00 2.576712e-02 3.729269e+00 -6.571892e-03 3.704895e+00 3.411220e-03 3.642922e+00 -2.181310e-02 3.636454e+00 -1.151593e-02 3.592234e+00 -3.261492e-02 3.598913e+00 -2.209976e-02 3.568638e+00 -4.052757e-02 3.586082e+00 -2.977548e-02 3.568182e+00 -4.650402e-02 3.595833e+00 -3.578005e-02 3.591133e+00 -5.136161e-02 3.631376e+00 -4.037442e-02 3.646222e+00 -4.916065e-02 3.708848e+00 -2.225273e-02 3.754629e+00 -1.047143e-02 3.849185e+00 2.507099e-02 3.938827e+00 4.848126e-02 4.030653e+00 6.238941e-02 4.134684e+00 7.199777e-02 4.257707e+00 8.056690e-02 4.405038e+00 8.992676e-02 
4.606478e+00 9.911253e-02 4.822770e+00 1.121710e-01 5.084935e+00 1.144937e-01 4.840527e+00 1.140008e-01 4.627334e+00 1.099663e-01 4.443433e+00 1.005359e-01 4.289042e+00 8.304943e-02 4.179010e+00 6.846524e-02 4.211769e+00 3.043841e-01 4.033256e+00 1.075375e-01 4.037296e+00 2.799887e-01 3.885418e+00 9.098738e-02 3.934210e+00 2.741380e-01 3.797497e+00 8.459719e-02 3.871747e+00 2.709822e-01 3.745910e+00 7.988047e-02 3.838288e+00 2.683295e-01 3.721915e+00 7.558380e-02 3.827988e+00 2.654311e-01 3.721641e+00 7.121211e-02 3.839955e+00 2.629025e-01 3.746253e+00 6.729226e-02 3.879693e+00 2.641877e-01 3.805155e+00 7.094736e-02 3.963626e+00 3.098370e-01 3.873551e+00 9.617714e-02 3.872748e+00 5.396307e-02 3.948451e+00 5.699349e-02 4.040786e+00 6.487459e-02 4.147736e+00 7.216854e-02 4.274293e+00 7.954893e-02 4.425517e+00 8.821264e-02 
4.631396e+00 1.086116e-01 4.849381e+00 1.217219e-01 5.113677e+00 1.240740e-01 4.870050e+00 1.239480e-01 4.658709e+00 1.212202e-01 4.478706e+00 1.163707e-01 4.330475e+00 1.118540e-01 4.221274e+00 1.190114e-01 4.187889e+00 2.224323e-01 4.071899e+00 1.548496e-01 4.028949e+00 2.182438e-01 3.933747e+00 1.461787e-01 3.924234e+00 2.129478e-01 3.847705e+00 1.400689e-01 3.859940e+00 2.085698e-01 3.796923e+00 1.349958e-01 3.825063e+00 2.047579e-01 3.773081e+00 1.306133e-01 3.813769e+00 2.013354e-01 3.772335e+00 1.268055e-01 3.824637e+00 1.988309e-01 3.795138e+00 1.243269e-01 3.860601e+00 1.999804e-01 3.845351e+00 1.267951e-01 3.925869e+00 2.122692e-01 3.904613e+00 1.151440e-01 3.915282e+00 7.996712e-02 3.978529e+00 7.392602e-02 4.064988e+00 7.644420e-02 4.170317e+00 8.170793e-02 4.296985e+00 8.863984e-02 4.449093e+00 9.744816e-02 
4.640093e+00 1.061456e-01 4.860281e+00 1.188969e-01 5.126966e+00 1.212887e-01 4.881657e+00 1.210453e-01 4.668954e+00 1.187258e-01 4.488458e+00 1.159114e-01 4.340385e+00 1.176002e-01 4.227945e+00 1.370554e-01 4.161313e+00 1.842971e-01 4.071611e+00 1.707799e-01 4.007501e+00 1.900010e-01 3.935627e+00 1.686198e-01 3.899516e+00 1.870301e-01 3.848487e+00 1.654939e-01 3.832782e+00 1.841357e-01 3.796970e+00 1.624313e-01 3.796433e+00 1.811314e-01 3.772778e+00 1.591144e-01 3.784543e+00 1.777728e-01 3.772067e+00 1.555205e-01 3.795474e+00 1.744863e-01 3.795077e+00 1.525783e-01 3.831197e+00 1.735563e-01 3.843681e+00 1.530932e-01 3.890726e+00 1.716179e-01 3.901376e+00 1.224034e-01 3.922263e+00 9.163758e-02 3.982172e+00 8.079026e-02 4.067466e+00 7.943463e-02 4.173507e+00 8.228684e-02 4.301712e+00 8.771391e-02 4.455713e+00 9.556478e-02 
4.649046e+00 1.152765e-01 4.868570e+00 1.281345e-01 5.134827e+00 1.305165e-01 4.891807e+00 1.310391e-01 4.681757e+00 1.302897e-01 4.503864e+00 1.301445e-01 4.357214e+00 1.342840e-01 4.241843e+00 1.487755e-01 4.159228e+00 1.722911e-01 4.077195e+00 1.717250e-01 4.010124e+00 1.792025e-01 3.947733e+00 1.713478e-01 3.904957e+00 1.764144e-01 3.863014e+00 1.675765e-01 3.839159e+00 1.724433e-01 3.812618e+00 1.634584e-01 3.803096e+00 1.684452e-01 3.788771e+00 1.594437e-01 3.790994e+00 1.646008e-01 3.787594e+00 1.556685e-01 3.800853e+00 1.611746e-01 3.808666e+00 1.525184e-01 3.833440e+00 1.587063e-01 3.852717e+00 1.490435e-01 3.887926e+00 1.498138e-01 3.911876e+00 1.219428e-01 3.942741e+00 1.010556e-01 4.000957e+00 9.145559e-02 4.082739e+00 8.922996e-02 4.186174e+00 9.138245e-02 4.312674e+00 9.658903e-02 4.465515e+00 1.045182e-01 
4.641677e+00 1.121517e-01 4.861126e+00 1.246333e-01 5.127254e+00 1.270120e-01 4.884160e+00 1.276234e-01 4.674063e+00 1.275230e-01 4.496116e+00 1.287853e-01 4.348832e+00 1.345337e-01 4.230924e+00 1.477417e-01 4.140930e+00 1.627379e-01 4.060513e+00 1.680844e-01 3.992096e+00 1.723332e-01 3.932511e+00 1.712281e-01 3.886922e+00 1.724010e-01 3.847772e+00 1.699694e-01 3.820676e+00 1.704323e-01 3.797215e+00 1.675588e-01 3.784286e+00 1.676475e-01 3.773272e+00 1.644159e-01 3.772035e+00 1.641799e-01 3.772063e+00 1.606463e-01 3.781818e+00 1.602165e-01 3.792979e+00 1.564821e-01 3.814024e+00 1.557205e-01 3.836393e+00 1.498417e-01 3.867997e+00 1.421605e-01 3.898236e+00 1.222614e-01 3.935599e+00 1.048681e-01 3.994590e+00 9.474238e-02 4.075858e+00 9.081528e-02 4.178938e+00 9.129049e-02 4.305328e+00 9.514267e-02 4.458162e+00 1.020676e-01 
4.634598e+00 1.208658e-01 4.851100e+00 1.334833e-01 5.114258e+00 1.358099e-01 4.874698e+00 1.369847e-01 4.668240e+00 1.376684e-01 4.493476e+00 1.394889e-01 4.348332e+00 1.442742e-01 4.230620e+00 1.529692e-01 4.137573e+00 1.617969e-01 4.058418e+00 1.661694e-01 3.991753e+00 1.684996e-01 3.935447e+00 1.680938e-01 3.890814e+00 1.676187e-01 3.854178e+00 1.657538e-01 3.827057e+00 1.645167e-01 3.805543e+00 1.622637e-01 3.791888e+00 1.608191e-01 3.782339e+00 1.584361e-01 3.779776e+00 1.569075e-01 3.780718e+00 1.544301e-01 3.788479e+00 1.527874e-01 3.799821e+00 1.499966e-01 3.818175e+00 1.475539e-01 3.840351e+00 1.423393e-01 3.869718e+00 1.344837e-01 3.902526e+00 1.209501e-01 3.943501e+00 1.088776e-01 4.002102e+00 1.013517e-01 4.080828e+00 9.841023e-02 4.180826e+00 9.928526e-02 4.304151e+00 1.034053e-01 4.454013e+00 1.105750e-01 