# vtk DataFile Version 2.0
Comment goes here
ASCII

DATASET STRUCTURED_POINTS
FIELD FieldData 1
TIME 1 1 double
0.24000000
DIMENSIONS    128   16   1

ORIGIN    0.000   0.000   0.000
SPACING   0.0078125 0.015625   1.000

POINT_DATA   2048
SCALARS fMag double
LOOKUP_TABLE default

0 0 0 0 0 0 0 0 0 0 0 0 0 0 0 0 0 0 0 0 0 0 0 0 0 0 0 0 0 0 0 0 0 0 0 0 0 0 0 0 0 0 0 0 0 0 0 0 0 0 0 0 0 0 0 0 0 0 0 0 0 0 0 0 0 0 0 0 0 0 0 0 0 0 0 0 0 0 0 0 0 0 0 0 0 0 0 0 0 0 0 0 0 0 0 0 0 0 0 0 0 0 0 0 0 0 0 0 0 0 0 0 0 0 0 0 0 0 0 0 0 0 0 0 0 0 0 0 
0 0 0 0 0 0 0 0 0 0 0 0 0 0 0 0 0 0 0 0 0 0 0 0 0 0 0 0 0 0 0 0 0 0 0 0 0 0 0 0 0 0 0 0 0 0 0 0 0 0 0 0 0 0 0 0 0 0 0 0 0 0 0 0 0 0 0 0 0 0 0 0 0 0 0 0 0 0 0 0 0 0 0 0 0 0 0 0 0 0 0 0 0 0 0 0 0 0 0 0 0 0 0 0 0 0 0 0 0 0 0 0 0 0 0 0 0 0 0 0 0 0 0 0 0 0 0 0 
0 0 0 0 0 1.100195e+00 2.525850e+00 2.014364e+00 1.984593e+00 1.775622e+00 2.351098e+00 2.042605e+00 2.953804e+00 4.018197e+00 5.791240e+00 7.032821e+00 1.103438e+01 1.425837e+01 1.771321e+01 2.147574e+01 2.566736e+01 2.627023e+01 2.573129e+01 2.569492e+01 2.520001e+01 2.518805e+01 2.488847e+01 2.456975e+01 2.409773e+01 2.366741e+01 2.355069e+01 2.354161e+01 2.363107e+01 2.319267e+01 2.268152e+01 2.195496e+01 2.182416e+01 2.174857e+01 2.195975e+01 2.178729e+01 2.153579e+01 2.108931e+01 2.086373e+01 2.066494e+01 2.056400e+01 2.037439e+01 2.008307e+01 1.984998e+01 1.961344e+01 1.951706e+01 1.922599e+01 1.893645e+01 1.839280e+01 1.798263e+01 1.764247e+01 1.769068e+01 1.762151e+01 1.718174e+01 1.597579e+01 1.626179e+01 1.657146e+01 1.495255e+01 1.372704e+01 1.505718e+01 1.533312e+01 1.217726e+01 1.298220e+01 1.521619e+01 1.391722e+01 1.169481e+01 1.482212e+01 1.632398e+01 1.459242e+01 1.387712e+01 1.338539e+01 1.316584e+01 1.283157e+01 1.270951e+01 1.235792e+01 1.228031e+01 1.195640e+01 1.179958e+01 1.131268e+01 1.107968e+01 1.075229e+01 1.061099e+01 1.026389e+01 9.875930e+00 9.398239e+00 9.003779e+00 8.875233e+00 8.721914e+00 8.750187e+00 8.329840e+00 8.079752e+00 7.497977e+00 7.520001e+00 7.270448e+00 7.531761e+00 7.132843e+00 7.080470e+00 6.526025e+00 6.468585e+00 6.049794e+00 6.007658e+00 5.652159e+00 5.361778e+00 4.965042e+00 4.571565e+00 4.342527e+00 3.862214e+00 3.871881e+00 3.388754e+00 3.532162e+00 2.873713e+00 2.943897e+00 2.093453e+00 2.271429e+00 1.713187e+00 2.041668e+00 1.551345e+00 1.887589e+00 1.622217e+00 5.149570e-01 0 0 0 0 
0 0 0 0 0 3.235530e+00 7.430799e+00 5.926385e+00 5.835832e+00 5.219832e+00 6.911898e+00 6.003486e+00 8.684054e+00 1.181857e+01 1.703680e+01 2.068875e+01 3.245974e+01 4.194515e+01 5.211017e+01 6.318214e+01 7.551750e+01 7.729162e+01 7.570547e+01 7.559845e+01 7.414196e+01 7.410681e+01 7.322519e+01 7.228721e+01 7.089810e+01 6.963167e+01 6.928815e+01 6.926144e+01 6.952466e+01 6.823447e+01 6.673022e+01 6.459204e+01 6.420711e+01 6.398467e+01 6.460612e+01 6.409865e+01 6.335855e+01 6.204469e+01 6.138086e+01 6.079590e+01 6.049886e+01 5.994093e+01 5.908364e+01 5.839773e+01 5.770168e+01 5.741807e+01 5.656152e+01 5.570953e+01 5.410979e+01 5.290285e+01 5.190194e+01 5.204379e+01 5.194916e+01 5.146131e+01 5.018329e+01 4.956256e+01 4.826726e+01 4.686482e+01 4.565691e+01 4.550490e+01 4.540262e+01 4.253864e+01 4.293164e+01 4.363699e+01 4.450171e+01 4.308133e+01 4.558153e+01 4.486336e+01 4.260926e+01 4.082300e+01 3.937619e+01 3.873023e+01 3.774671e+01 3.738759e+01 3.635318e+01 3.612484e+01 3.517189e+01 3.471053e+01 3.327809e+01 3.259264e+01 3.162950e+01 3.121380e+01 3.019270e+01 2.905133e+01 2.764604e+01 2.648553e+01 2.610734e+01 2.565625e+01 2.573938e+01 2.450272e+01 2.376698e+01 2.205548e+01 2.212027e+01 2.138617e+01 2.215497e+01 2.098158e+01 2.082765e+01 1.919683e+01 1.902802e+01 1.779629e+01 1.767249e+01 1.662690e+01 1.577272e+01 1.460574e+01 1.344818e+01 1.277437e+01 1.136126e+01 1.138947e+01 9.968092e+00 1.038973e+01 8.452787e+00 8.659297e+00 6.158130e+00 6.682637e+00 5.043673e+00 6.019577e+00 4.610409e+00 5.599591e+00 4.788134e+00 1.514253e+00 0 0 0 0 
0 0 0 0 0 2.234804e+00 5.133768e+00 4.094562e+00 4.030562e+00 3.604387e+00 4.772947e+00 4.144931e+00 5.996831e+00 3.916071e+01 4.913390e+01 4.417920e+01 5.606710e+01 5.247098e+01 6.131162e+01 6.501130e+01 6.494239e+01 5.340250e+01 5.230636e+01 5.223241e+01 5.122590e+01 5.120164e+01 5.059240e+01 4.994421e+01 4.898428e+01 4.810911e+01 4.787171e+01 4.785325e+01 4.803512e+01 4.714353e+01 4.610404e+01 4.462648e+01 4.436047e+01 4.420677e+01 4.463620e+01 4.428554e+01 4.377412e+01 4.286624e+01 4.240752e+01 4.200332e+01 4.179807e+01 4.141254e+01 4.082014e+01 4.034617e+01 3.986519e+01 3.966921e+01 3.907733e+01 3.848862e+01 3.738321e+01 3.654924e+01 3.585763e+01 3.595565e+01 3.602315e+01 3.659128e+01 3.641065e+01 3.465267e+01 3.326372e+01 3.386806e+01 3.414258e+01 3.199051e+01 3.087637e+01 3.278403e+01 3.190506e+01 2.831618e+01 3.141910e+01 3.341805e+01 3.139468e+01 2.844320e+01 2.918682e+01 2.820265e+01 2.720299e+01 2.675667e+01 2.607713e+01 2.582901e+01 2.511432e+01 2.495656e+01 2.429817e+01 2.397942e+01 2.298977e+01 2.251621e+01 2.185080e+01 2.156360e+01 2.085816e+01 2.006960e+01 1.909873e+01 1.829694e+01 1.803564e+01 1.772398e+01 1.778139e+01 1.692699e+01 1.641868e+01 1.523626e+01 1.528101e+01 1.477388e+01 1.530505e+01 1.449446e+01 1.438818e+01 1.326164e+01 1.314510e+01 1.229427e+01 1.220882e+01 1.148656e+01 1.089648e+01 1.009033e+01 9.290603e+00 8.825072e+00 7.848756e+00 7.868134e+00 6.886103e+00 7.177284e+00 5.839163e+00 5.981853e+00 4.254219e+00 4.617034e+00 3.486326e+00 4.165181e+00 3.207761e+00 3.891217e+00 3.315645e+00 1.045824e+00 0 0 0 0 
0 0 0 0 0 9.946888e-02 2.288193e-01 1.825409e-01 1.793227e-01 1.601764e-01 2.121469e-01 1.840499e-01 2.665811e-01 4.423358e+01 4.836806e+01 4.530352e+01 4.764774e+01 4.689560e+01 4.628996e+01 4.858810e+01 4.424602e+01 2.381113e+00 2.332178e+00 2.328879e+00 2.283954e+00 2.282876e+00 2.255686e+00 2.226754e+00 2.183912e+00 2.144845e+00 2.134248e+00 2.133422e+00 2.141536e+00 2.101737e+00 2.055345e+00 1.989402e+00 1.977528e+00 1.970669e+00 1.989834e+00 1.974188e+00 1.951367e+00 1.910858e+00 1.890390e+00 1.872357e+00 1.863199e+00 1.845998e+00 1.819565e+00 1.798418e+00 1.776957e+00 1.768211e+00 1.741803e+00 1.715538e+00 1.666223e+00 1.629020e+00 1.598168e+00 1.602539e+00 1.719541e+00 2.543646e+00 1.840206e+00 6.745495e-01 1.468504e+00 1.517762e+00 1.470680e+00 9.816440e-01 3.209578e-01 1.730820e+00 1.249472e+00 6.128121e-01 4.367611e-01 1.605306e+00 7.791660e-01 8.389116e-01 1.054549e+00 1.256771e+00 1.212193e+00 1.192290e+00 1.161989e+00 1.150925e+00 1.119060e+00 1.112027e+00 1.082676e+00 1.068469e+00 1.024356e+00 1.003248e+00 9.735910e-01 9.607911e-01 9.293513e-01 8.942016e-01 8.509318e-01 8.151888e-01 8.035393e-01 7.896437e-01 7.921968e-01 7.541094e-01 7.314529e-01 6.787546e-01 6.807480e-01 6.581524e-01 6.818330e-01 6.457259e-01 6.410068e-01 5.908331e-01 5.856603e-01 5.477759e-01 5.439867e-01 5.118254e-01 4.855361e-01 4.496274e-01 4.139838e-01 3.932331e-01 3.497086e-01 3.505439e-01 3.067651e-01 3.197127e-01 2.600886e-01 2.664528e-01 1.895425e-01 2.058267e-01 1.558394e-01 1.872716e-01 1.486975e-01 1.792131e-01 1.497278e-01 4.652789e-02 0 0 0 0 
0 0 0 0 0 0 0 0 0 0 0 0 0 4.819259e+01 5.224321e+01 4.937416e+01 5.129856e+01 5.097764e+01 4.966780e+01 5.265201e+01 4.770184e+01 0 0 0 0 0 0 0 0 0 0 0 0 0 0 0 0 0 0 0 0 0 0 0 0 0 0 0 0 0 0 0 0 0 0 0 3.415556e-02 3.109709e-01 4.741688e-01 8.515092e-01 7.079821e-02 5.130613e-01 7.895847e-01 5.062088e-01 5.424383e-01 6.421154e-01 6.973307e-01 6.290674e-01 5.487296e-01 4.826106e-01 8.660983e-01 7.739930e-01 1.288927e-01 0 0 0 0 0 0 0 0 0 0 0 0 0 0 0 0 0 0 0 0 0 0 0 0 0 0 0 0 0 0 0 0 0 0 0 0 0 0 0 0 0 0 0 0 0 0 0 0 0 0 0 0 0 0 0 
0 0 0 0 0 0 0 0 0 0 0 0 0 4.809419e+01 4.992127e+01 4.833196e+01 4.920220e+01 4.896685e+01 4.856277e+01 4.977230e+01 4.821509e+01 0 0 0 0 0 0 0 0 0 0 0 0 0 0 0 0 0 0 0 0 0 0 0 0 0 0 0 0 0 0 0 0 0 0 0 1.559206e-02 1.325785e-01 1.184884e-01 2.061651e-01 7.089116e-02 1.320979e-01 1.704882e-01 8.677160e-02 8.581148e-02 1.172500e-01 2.215848e-02 1.843261e-01 3.060710e-01 2.646471e-01 9.481645e-02 1.436771e-02 3.552396e-03 0 0 0 0 0 0 0 0 0 0 0 0 0 0 0 0 0 0 0 0 0 0 0 0 0 0 0 0 0 0 0 0 0 0 0 0 0 0 0 0 0 0 0 0 0 0 0 0 0 0 0 0 0 0 0 
0 0 0 0 0 0 0 0 0 0 0 0 0 5.056883e+01 5.276406e+01 5.099990e+01 5.189230e+01 5.187962e+01 5.095783e+01 5.286015e+01 5.033327e+01 0 0 0 0 0 0 0 0 0 0 0 0 0 0 0 0 0 0 0 0 0 0 0 0 0 0 0 0 0 0 0 0 0 0 0 5.715578e-03 5.102765e-02 7.803422e-03 3.092484e-02 4.015606e-02 6.148003e-02 1.292365e-01 4.678250e-04 4.559187e-02 1.699806e-01 8.579680e-02 4.233292e-02 1.493783e-01 2.566178e-01 9.836281e-02 4.764676e-02 8.064767e-03 0 0 0 0 0 0 0 0 0 0 0 0 0 0 0 0 0 0 0 0 0 0 0 0 0 0 0 0 0 0 0 0 0 0 0 0 0 0 0 0 0 0 0 0 0 0 0 0 0 0 0 0 0 0 0 
0 0 0 0 0 0 0 0 0 0 0 0 0 4.809854e+01 4.992170e+01 4.832886e+01 4.919011e+01 4.893417e+01 4.852307e+01 4.969298e+01 4.814907e+01 0 0 0 0 0 0 0 0 0 0 0 0 0 0 0 0 0 0 0 0 0 0 0 0 0 0 0 0 0 0 0 0 0 0 0 0 0 0 0 0 0 0 0 0 0 0 0 0 0 0 0 0 0 0 0 0 0 0 0 0 0 0 0 0 0 0 0 0 0 0 0 0 0 0 0 0 0 0 0 0 0 0 0 0 0 0 0 0 0 0 0 0 0 0 0 0 0 0 0 0 0 0 0 0 0 0 0 
0 0 0 0 0 0 0 0 0 0 0 0 0 4.822326e+01 5.223563e+01 4.938951e+01 5.128230e+01 5.092769e+01 4.957375e+01 5.250574e+01 4.756081e+01 0 0 0 0 0 0 0 0 0 0 0 0 0 0 0 0 0 0 0 0 0 0 0 0 0 0 0 0 0 0 0 0 0 0 0 0 0 0 0 0 0 0 0 0 0 0 0 0 0 0 0 0 0 0 0 0 0 0 0 0 0 0 0 0 0 0 0 0 0 0 0 0 0 0 0 0 0 0 0 0 0 0 0 0 0 0 0 0 0 0 0 0 0 0 0 0 0 0 0 0 0 0 0 0 0 0 0 
0 0 0 0 0 1.003974e-01 2.193578e-01 1.645041e-01 1.734006e-01 1.578014e-01 2.219768e-01 1.916311e-01 2.722906e-01 4.426280e+01 4.837150e+01 4.538100e+01 4.765827e+01 4.687046e+01 4.614427e+01 4.833281e+01 4.398236e+01 2.346109e+00 2.285537e+00 2.289963e+00 2.255680e+00 2.254424e+00 2.227278e+00 2.212880e+00 2.186022e+00 2.163772e+00 2.153944e+00 2.134999e+00 2.128231e+00 2.102975e+00 2.097589e+00 2.067955e+00 2.054648e+00 2.021558e+00 2.006469e+00 1.970519e+00 1.953447e+00 1.925803e+00 1.899547e+00 1.858492e+00 1.822074e+00 1.788613e+00 1.759393e+00 1.743738e+00 1.722283e+00 1.693285e+00 1.649177e+00 1.627212e+00 1.615305e+00 1.628126e+00 1.635006e+00 1.636745e+00 1.610992e+00 1.575034e+00 1.535510e+00 1.504242e+00 1.480415e+00 1.464892e+00 1.459865e+00 1.446303e+00 1.427736e+00 1.393283e+00 1.363406e+00 1.331048e+00 1.314642e+00 1.304113e+00 1.296548e+00 1.271123e+00 1.230983e+00 1.187553e+00 1.146842e+00 1.129131e+00 1.114006e+00 1.110716e+00 1.084257e+00 1.066145e+00 1.032798e+00 1.024177e+00 1.003128e+00 9.987164e-01 9.743303e-01 9.637949e-01 9.445431e-01 9.331633e-01 9.131449e-01 8.859643e-01 8.623686e-01 8.295842e-01 8.148813e-01 7.827734e-01 7.787358e-01 7.348906e-01 7.187507e-01 6.603995e-01 6.443652e-01 5.916252e-01 5.958454e-01 5.640918e-01 5.667925e-01 5.245360e-01 5.091149e-01 4.682660e-01 4.462052e-01 4.283837e-01 4.164542e-01 4.178698e-01 3.865846e-01 3.878680e-01 3.330375e-01 3.252647e-01 2.542612e-01 2.719933e-01 2.234846e-01 2.579202e-01 2.128636e-01 2.358558e-01 1.761544e-01 1.926899e-01 1.519326e-01 4.680673e-02 0 0 0 0 
0 0 0 0 0 2.255654e+00 4.921381e+00 3.689797e+00 3.897451e+00 3.550692e+00 4.993415e+00 4.315150e+00 6.125130e+00 3.933024e+01 4.934919e+01 4.434639e+01 5.617994e+01 5.236732e+01 6.089938e+01 6.443632e+01 6.427384e+01 5.261839e+01 5.126154e+01 5.136065e+01 5.059255e+01 5.056429e+01 4.995601e+01 4.963339e+01 4.903156e+01 4.853310e+01 4.831294e+01 4.788856e+01 4.773698e+01 4.717121e+01 4.705060e+01 4.638669e+01 4.608854e+01 4.534710e+01 4.500896e+01 4.420334e+01 4.382075e+01 4.320121e+01 4.261281e+01 4.169263e+01 4.087645e+01 4.012644e+01 3.947156e+01 3.912065e+01 3.863977e+01 3.798977e+01 3.700107e+01 3.650871e+01 3.624179e+01 3.652922e+01 3.668346e+01 3.672244e+01 3.614513e+01 3.533901e+01 3.445292e+01 3.375190e+01 3.321768e+01 3.286966e+01 3.275696e+01 3.245288e+01 3.203656e+01 3.126403e+01 3.059410e+01 2.986849e+01 2.950061e+01 2.926449e+01 2.909485e+01 2.852468e+01 2.762451e+01 2.665047e+01 2.573742e+01 2.534020e+01 2.500097e+01 2.492718e+01 2.433371e+01 2.392744e+01 2.317938e+01 2.298596e+01 2.251369e+01 2.241467e+01 2.186752e+01 2.163113e+01 2.119916e+01 2.094386e+01 2.049473e+01 1.988503e+01 1.935569e+01 1.862029e+01 1.829050e+01 1.757023e+01 1.747972e+01 1.649600e+01 1.613383e+01 1.482433e+01 1.446435e+01 1.328042e+01 1.337474e+01 1.266161e+01 1.272173e+01 1.177275e+01 1.142630e+01 1.050898e+01 1.001377e+01 9.613683e+00 9.346115e+00 9.378251e+00 8.676639e+00 8.706020e+00 7.475969e+00 7.301926e+00 5.708350e+00 6.106351e+00 5.016430e+00 5.786596e+00 4.766581e+00 5.256119e+00 3.826774e+00 4.201473e+00 3.366843e+00 1.052098e+00 0 0 0 0 
0 0 0 0 0 3.265713e+00 7.123355e+00 5.340491e+00 5.643102e+00 5.142009e+00 7.230992e+00 6.249899e+00 8.869810e+00 1.189163e+01 1.704544e+01 2.084461e+01 3.279296e+01 4.227945e+01 5.244642e+01 6.319693e+01 7.501173e+01 7.615698e+01 7.419358e+01 7.433698e+01 7.322547e+01 7.318455e+01 7.230429e+01 7.183742e+01 7.096651e+01 7.024521e+01 6.992663e+01 6.931254e+01 6.909320e+01 6.827450e+01 6.809999e+01 6.713926e+01 6.670781e+01 6.563487e+01 6.514554e+01 6.397970e+01 6.342604e+01 6.252946e+01 6.167795e+01 6.034630e+01 5.916516e+01 5.807975e+01 5.713202e+01 5.662419e+01 5.592827e+01 5.498758e+01 5.355673e+01 5.284419e+01 5.245789e+01 5.287388e+01 5.309711e+01 5.315352e+01 5.231801e+01 5.115136e+01 4.986898e+01 4.885442e+01 4.808128e+01 4.757760e+01 4.741448e+01 4.697441e+01 4.637187e+01 4.525380e+01 4.428422e+01 4.323404e+01 4.270161e+01 4.235988e+01 4.211434e+01 4.128912e+01 3.998629e+01 3.857653e+01 3.725504e+01 3.668011e+01 3.618913e+01 3.608233e+01 3.522336e+01 3.463533e+01 3.355259e+01 3.327262e+01 3.258905e+01 3.244570e+01 3.165373e+01 3.131157e+01 3.068632e+01 3.031679e+01 2.966670e+01 2.878424e+01 2.801806e+01 2.695366e+01 2.647633e+01 2.543381e+01 2.530281e+01 2.387894e+01 2.335470e+01 2.145921e+01 2.093811e+01 1.922427e+01 1.936070e+01 1.832831e+01 1.841521e+01 1.704139e+01 1.653981e+01 1.521184e+01 1.449498e+01 1.391582e+01 1.352856e+01 1.357517e+01 1.255970e+01 1.260238e+01 1.082199e+01 1.057016e+01 8.263427e+00 8.839548e+00 7.261557e+00 8.375705e+00 6.896980e+00 7.598870e+00 5.507172e+00 6.050717e+00 4.862684e+00 1.523339e+00 0 0 0 0 
0 0 0 0 0 1.110457e+00 2.421331e+00 1.815198e+00 1.919051e+00 1.749118e+00 2.459554e+00 2.126381e+00 3.016970e+00 4.043061e+00 5.794187e+00 7.085802e+00 1.114765e+01 1.437200e+01 1.782749e+01 2.148078e+01 2.549552e+01 2.588470e+01 2.521757e+01 2.526629e+01 2.488860e+01 2.487468e+01 2.457556e+01 2.441692e+01 2.412097e+01 2.387588e+01 2.376763e+01 2.355898e+01 2.348445e+01 2.320627e+01 2.314698e+01 2.282053e+01 2.267392e+01 2.230933e+01 2.214305e+01 2.174688e+01 2.155873e+01 2.125405e+01 2.096469e+01 2.051216e+01 2.011078e+01 1.974192e+01 1.941985e+01 1.924728e+01 1.901078e+01 1.869110e+01 1.820484e+01 1.796269e+01 1.783141e+01 1.797279e+01 1.804865e+01 1.806782e+01 1.778387e+01 1.738739e+01 1.695157e+01 1.660677e+01 1.634401e+01 1.617283e+01 1.611739e+01 1.596783e+01 1.576305e+01 1.538305e+01 1.505352e+01 1.469660e+01 1.451564e+01 1.439949e+01 1.431604e+01 1.403557e+01 1.359277e+01 1.311361e+01 1.266446e+01 1.246905e+01 1.230217e+01 1.226587e+01 1.197391e+01 1.177404e+01 1.140601e+01 1.131084e+01 1.107849e+01 1.102975e+01 1.076055e+01 1.064424e+01 1.043170e+01 1.030609e+01 1.008512e+01 9.785170e+00 9.524738e+00 9.162951e+00 9.000708e+00 8.646353e+00 8.601833e+00 8.117833e+00 7.939630e+00 7.295281e+00 7.118119e+00 6.535477e+00 6.581806e+00 6.230793e+00 6.260274e+00 5.793175e+00 5.622624e+00 5.171123e+00 4.927420e+00 4.730524e+00 4.598895e+00 4.614785e+00 4.269650e+00 4.284229e+00 3.679060e+00 3.593502e+00 2.809338e+00 3.005191e+00 2.468611e+00 2.847029e+00 2.343263e+00 2.578607e+00 1.856553e+00 2.041936e+00 1.647774e+00 5.180477e-01 0 0 0 0 
0 0 0 0 0 0 0 0 0 0 0 0 0 0 0 0 0 0 0 0 0 0 0 0 0 0 0 0 0 0 0 0 0 0 0 0 0 0 0 0 0 0 0 0 0 0 0 0 0 0 0 0 0 0 0 0 0 0 0 0 0 0 0 0 0 0 0 0 0 0 0 0 0 0 0 0 0 0 0 0 0 0 0 0 0 0 0 0 0 0 0 0 0 0 0 0 0 0 0 0 0 0 0 0 0 0 0 0 0 0 0 0 0 0 0 0 0 0 0 0 0 0 0 0 0 0 0 0 
