# vtk DataFile Version 2.0
Comment goes here
ASCII

DATASET STRUCTURED_POINTS
FIELD FieldData 1
TIME 1 1 double
0.27000000
DIMENSIONS    128   16   1

ORIGIN    0.000   0.000   0.000
SPACING   0.0078125 0.015625   1.000

POINT_DATA   2048
SCALARS fMag double
LOOKUP_TABLE default

0 0 0 0 0 0 0 0 0 0 0 0 0 0 0 0 0 0 0 0 0 0 0 0 0 0 0 0 0 0 0 0 0 0 0 0 0 0 0 0 0 0 0 0 0 0 0 0 0 0 0 0 0 0 0 0 0 0 0 0 0 0 0 0 0 0 0 0 0 0 0 0 0 0 0 0 0 0 0 0 0 0 0 0 0 0 0 0 0 0 0 0 0 0 0 0 0 0 0 0 0 0 0 0 0 0 0 0 0 0 0 0 0 0 0 0 0 0 0 0 0 0 0 0 0 0 0 0 
0 0 0 0 0 0 0 0 0 0 0 0 0 0 0 0 0 0 0 0 0 0 0 0 0 0 0 0 0 0 0 0 0 0 0 0 0 0 0 0 0 0 0 0 0 0 0 0 0 0 0 0 0 0 0 0 0 0 0 0 0 0 0 0 0 0 0 0 0 0 0 0 0 0 0 0 0 0 0 0 0 0 0 0 0 0 0 0 0 0 0 0 0 0 0 0 0 0 0 0 0 0 0 0 0 0 0 0 0 0 0 0 0 0 0 0 0 0 0 0 0 0 0 0 0 0 0 0 
0 0 0 0 0 1.965326e+00 1.578467e+00 7.233593e-01 1.345722e+00 9.123665e-01 1.647093e+00 1.150439e+00 1.791503e+00 2.417886e+00 3.570467e+00 5.006199e+00 6.369747e+00 8.669360e+00 1.069957e+01 1.196964e+01 1.590109e+01 1.586360e+01 1.556446e+01 1.567163e+01 1.534673e+01 1.542574e+01 1.499485e+01 1.503983e+01 1.459792e+01 1.459532e+01 1.415998e+01 1.415682e+01 1.384489e+01 1.398237e+01 1.387092e+01 1.396419e+01 1.381772e+01 1.381451e+01 1.368268e+01 1.353803e+01 1.329865e+01 1.298799e+01 1.271409e+01 1.243725e+01 1.241593e+01 1.238186e+01 1.251374e+01 1.245950e+01 1.250158e+01 1.225807e+01 1.211608e+01 1.177461e+01 1.162992e+01 1.135742e+01 1.132319e+01 1.118320e+01 1.137319e+01 1.274140e+01 1.468172e+01 1.316404e+01 1.068455e+01 1.456493e+01 1.562305e+01 1.203936e+01 1.124226e+01 1.585115e+01 1.354599e+01 9.235084e+00 1.441649e+01 1.597231e+01 1.192713e+01 6.810654e+00 8.168229e+00 8.079526e+00 7.919640e+00 7.706609e+00 7.444656e+00 7.167961e+00 7.109935e+00 7.085985e+00 7.188935e+00 6.999548e+00 6.873364e+00 6.451440e+00 6.262070e+00 5.874966e+00 5.867222e+00 5.652071e+00 5.715051e+00 5.455605e+00 5.425605e+00 5.125724e+00 5.051696e+00 4.898427e+00 4.888295e+00 4.789904e+00 4.604735e+00 4.476999e+00 4.193670e+00 4.224100e+00 3.999312e+00 4.198026e+00 3.854136e+00 3.960249e+00 3.365493e+00 3.414217e+00 2.880972e+00 3.190327e+00 2.922769e+00 3.276937e+00 2.825338e+00 2.711973e+00 2.022236e+00 1.765133e+00 1.504436e+00 1.571364e+00 1.746961e+00 1.569007e+00 1.596496e+00 1.018094e+00 1.136408e+00 6.254900e-01 2.005645e+00 6.237272e-01 0 0 0 0 
0 0 0 0 0 5.778864e+00 4.626820e+00 2.123711e+00 3.948369e+00 2.681456e+00 4.843811e+00 3.383239e+00 5.268635e+00 7.112037e+00 1.050260e+01 1.472605e+01 1.873706e+01 2.550234e+01 3.147465e+01 3.521142e+01 4.677884e+01 4.666876e+01 4.578863e+01 4.610393e+01 4.514777e+01 4.538010e+01 4.411207e+01 4.424426e+01 4.294388e+01 4.293616e+01 4.165520e+01 4.164589e+01 4.072811e+01 4.113264e+01 4.080475e+01 4.107919e+01 4.064829e+01 4.063886e+01 4.025101e+01 3.982544e+01 3.912114e+01 3.820711e+01 3.740125e+01 3.658673e+01 3.652398e+01 3.642373e+01 3.681170e+01 3.665211e+01 3.677586e+01 3.605941e+01 3.564166e+01 3.463700e+01 3.421133e+01 3.340962e+01 3.330891e+01 3.289709e+01 3.319291e+01 3.534627e+01 3.606049e+01 3.597289e+01 3.279001e+01 3.695026e+01 3.613360e+01 3.381815e+01 3.094694e+01 3.303735e+01 3.331389e+01 2.638501e+01 3.300638e+01 3.171626e+01 3.341114e+01 2.358694e+01 2.432630e+01 2.376641e+01 2.329604e+01 2.266932e+01 2.189872e+01 2.108472e+01 2.091401e+01 2.084354e+01 2.114637e+01 2.058922e+01 2.021801e+01 1.897681e+01 1.841975e+01 1.728103e+01 1.725827e+01 1.662541e+01 1.681072e+01 1.604760e+01 1.595941e+01 1.507735e+01 1.485964e+01 1.440883e+01 1.437906e+01 1.408964e+01 1.354491e+01 1.316914e+01 1.233563e+01 1.242506e+01 1.176375e+01 1.234820e+01 1.133658e+01 1.164872e+01 9.899308e+00 1.004275e+01 8.474448e+00 9.384679e+00 8.598009e+00 9.640203e+00 8.312276e+00 7.979141e+00 5.950785e+00 5.194673e+00 4.427987e+00 4.624816e+00 5.140963e+00 4.617102e+00 4.697500e+00 2.996462e+00 3.351104e+00 1.853476e+00 5.905828e+00 1.835002e+00 0 0 0 0 
0 0 0 0 0 3.991065e+00 3.188389e+00 1.465224e+00 2.722699e+00 1.851280e+00 3.345619e+00 2.336803e+00 3.639112e+00 2.436110e+01 3.716167e+01 2.706644e+01 2.901792e+01 3.245919e+01 3.217611e+01 4.149071e+01 4.270254e+01 3.224219e+01 3.163409e+01 3.185192e+01 3.119119e+01 3.135163e+01 3.047539e+01 3.056665e+01 2.966810e+01 2.966272e+01 2.877763e+01 2.877118e+01 2.813706e+01 2.841657e+01 2.819004e+01 2.837967e+01 2.808197e+01 2.807547e+01 2.780750e+01 2.751346e+01 2.702686e+01 2.639532e+01 2.583854e+01 2.527576e+01 2.523239e+01 2.516312e+01 2.543116e+01 2.532088e+01 2.540638e+01 2.491136e+01 2.462273e+01 2.392859e+01 2.363450e+01 2.308059e+01 2.301102e+01 2.272650e+01 2.243314e+01 2.066372e+01 1.573228e+01 1.991541e+01 2.074042e+01 1.778817e+01 1.404985e+01 1.949133e+01 1.778453e+01 9.258745e+00 1.773247e+01 1.726155e+01 1.542426e+01 1.135572e+01 2.227930e+01 1.945156e+01 1.712547e+01 1.641834e+01 1.609337e+01 1.566038e+01 1.512801e+01 1.456564e+01 1.444770e+01 1.439900e+01 1.460820e+01 1.422328e+01 1.396683e+01 1.310935e+01 1.272450e+01 1.193784e+01 1.192213e+01 1.148494e+01 1.161299e+01 1.108583e+01 1.102493e+01 1.041562e+01 1.026524e+01 9.953834e+00 9.933278e+00 9.733348e+00 9.357018e+00 9.097409e+00 8.521560e+00 8.583303e+00 8.126416e+00 8.530129e+00 7.831259e+00 8.046895e+00 6.838411e+00 6.937557e+00 5.854276e+00 6.483201e+00 5.939930e+00 6.660088e+00 5.742960e+00 5.512986e+00 4.112020e+00 3.589766e+00 3.060205e+00 3.196158e+00 3.552537e+00 3.190449e+00 3.245766e+00 2.070832e+00 2.319030e+00 1.286994e+00 4.082828e+00 1.267789e+00 0 0 0 0 
0 0 0 0 0 1.775270e-01 1.400353e-01 6.487300e-02 1.200518e-01 8.219012e-02 1.489009e-01 1.040024e-01 1.619801e-01 2.635608e+01 2.874489e+01 2.720541e+01 2.735753e+01 2.779305e+01 2.656304e+01 2.843989e+01 2.673488e+01 1.437033e+00 1.409919e+00 1.419628e+00 1.390141e+00 1.397275e+00 1.358172e+00 1.362223e+00 1.322135e+00 1.321884e+00 1.282407e+00 1.282116e+00 1.253840e+00 1.266306e+00 1.256208e+00 1.264668e+00 1.251398e+00 1.251112e+00 1.239166e+00 1.226055e+00 1.204360e+00 1.176198e+00 1.151374e+00 1.126278e+00 1.124341e+00 1.121250e+00 1.133197e+00 1.128277e+00 1.132087e+00 1.110014e+00 1.097144e+00 1.066196e+00 1.053085e+00 1.028392e+00 1.025291e+00 1.012610e+00 5.769777e-01 2.245243e+00 5.226879e+00 3.258610e+00 1.252536e+00 3.874604e+00 6.160198e+00 2.705591e+00 9.325249e-01 6.510715e+00 4.416842e+00 1.341783e+00 2.479256e+00 5.356681e+00 1.800641e+00 3.660604e+00 1.098439e+00 7.314501e-01 7.169653e-01 6.976666e-01 6.739418e-01 6.488781e-01 6.436203e-01 6.414484e-01 6.507682e-01 6.336121e-01 6.221832e-01 5.839721e-01 5.668239e-01 5.317738e-01 5.310765e-01 5.116019e-01 5.173134e-01 4.938339e-01 4.911281e-01 4.639906e-01 4.572962e-01 4.434284e-01 4.425160e-01 4.336101e-01 4.168389e-01 4.052692e-01 3.796043e-01 3.823454e-01 3.619804e-01 3.799565e-01 3.488159e-01 3.584231e-01 3.045959e-01 3.090271e-01 2.607997e-01 2.888489e-01 2.646909e-01 2.968222e-01 2.560224e-01 2.458183e-01 1.834712e-01 1.602257e-01 1.366542e-01 1.427057e-01 1.585357e-01 1.423551e-01 1.447625e-01 9.246359e-02 1.043344e-01 5.900763e-02 1.826446e-01 5.651438e-02 0 0 0 0 
0 0 0 0 0 0 0 0 0 0 0 0 0 2.894892e+01 3.169462e+01 2.965387e+01 2.998204e+01 3.060653e+01 2.897374e+01 3.152983e+01 2.913429e+01 0 0 0 0 0 0 0 0 0 0 0 0 0 0 0 0 0 0 0 0 0 0 0 0 0 0 0 0 0 0 0 0 0 0 0 7.427476e-02 5.113694e-01 8.769107e-02 4.848325e-01 2.770773e-01 5.915749e-01 5.494383e-01 7.814474e-01 1.220555e+00 6.844307e-01 9.883353e-01 1.552842e+00 8.604578e-01 5.922521e-01 1.586964e+00 1.343114e+00 1.840298e-01 0 0 0 0 0 0 0 0 0 0 0 0 0 0 0 0 0 0 0 0 0 0 0 0 0 0 0 0 0 0 0 0 0 0 0 0 0 0 0 0 0 0 0 0 0 0 0 0 0 0 0 0 0 0 0 
0 0 0 0 0 0 0 0 0 0 0 0 0 2.804804e+01 2.886376e+01 2.820915e+01 2.838287e+01 2.853312e+01 2.805025e+01 2.891581e+01 2.799914e+01 0 0 0 0 0 0 0 0 0 0 0 0 0 0 0 0 0 0 0 0 0 0 0 0 0 0 0 0 0 0 0 0 0 0 0 5.955413e-02 4.910312e-01 1.003486e+00 7.069009e-01 2.132281e-01 5.888940e-01 1.159978e+00 4.144208e-01 7.034339e-02 1.073860e+00 7.776098e-01 3.717550e-01 1.971053e-01 8.754587e-01 8.185790e-02 4.153673e-01 5.914282e-02 0 0 0 0 0 0 0 0 0 0 0 0 0 0 0 0 0 0 0 0 0 0 0 0 0 0 0 0 0 0 0 0 0 0 0 0 0 0 0 0 0 0 0 0 0 0 0 0 0 0 0 0 0 0 0 
0 0 0 0 0 0 0 0 0 0 0 0 0 3.006617e+01 3.130451e+01 3.036755e+01 3.059307e+01 3.089697e+01 3.004598e+01 3.144209e+01 2.989966e+01 0 0 0 0 0 0 0 0 0 0 0 0 0 0 0 0 0 0 0 0 0 0 0 0 0 0 0 0 0 0 0 0 0 0 0 2.158540e-02 1.873081e-01 4.100892e-01 3.876860e-01 2.484863e-01 2.863654e-01 3.871256e-01 2.408404e-01 8.467875e-02 2.508869e-01 2.041421e-01 5.607508e-02 5.394402e-02 1.556504e-03 4.910290e-02 5.194013e-02 6.435399e-03 0 0 0 0 0 0 0 0 0 0 0 0 0 0 0 0 0 0 0 0 0 0 0 0 0 0 0 0 0 0 0 0 0 0 0 0 0 0 0 0 0 0 0 0 0 0 0 0 0 0 0 0 0 0 0 
0 0 0 0 0 0 0 0 0 0 0 0 0 2.804401e+01 2.887179e+01 2.819211e+01 2.837844e+01 2.850374e+01 2.803268e+01 2.888050e+01 2.797719e+01 0 0 0 0 0 0 0 0 0 0 0 0 0 0 0 0 0 0 0 0 0 0 0 0 0 0 0 0 0 0 0 0 0 0 0 0 0 0 0 0 0 0 0 0 0 0 0 0 0 0 0 0 0 0 0 0 0 0 0 0 0 0 0 0 0 0 0 0 0 0 0 0 0 0 0 0 0 0 0 0 0 0 0 0 0 0 0 0 0 0 0 0 0 0 0 0 0 0 0 0 0 0 0 0 0 0 0 
0 0 0 0 0 0 0 0 0 0 0 0 0 2.894862e+01 3.171776e+01 2.962473e+01 2.998319e+01 3.056255e+01 2.895977e+01 3.144268e+01 2.910293e+01 0 0 0 0 0 0 0 0 0 0 0 0 0 0 0 0 0 0 0 0 0 0 0 0 0 0 0 0 0 0 0 0 0 0 0 0 0 0 0 0 0 0 0 0 0 0 0 0 0 0 0 0 0 0 0 0 0 0 0 0 0 0 0 0 0 0 0 0 0 0 0 0 0 0 0 0 0 0 0 0 0 0 0 0 0 0 0 0 0 0 0 0 0 0 0 0 0 0 0 0 0 0 0 0 0 0 0 
0 0 0 0 0 1.774766e-01 1.385965e-01 7.296653e-02 1.231052e-01 8.660161e-02 1.509272e-01 1.048578e-01 1.649301e-01 2.636879e+01 2.879296e+01 2.715902e+01 2.734736e+01 2.768591e+01 2.647421e+01 2.823334e+01 2.659462e+01 1.414669e+00 1.399827e+00 1.432753e+00 1.419091e+00 1.424968e+00 1.370523e+00 1.362143e+00 1.322924e+00 1.337645e+00 1.315434e+00 1.323707e+00 1.287924e+00 1.285621e+00 1.268184e+00 1.274729e+00 1.259317e+00 1.247857e+00 1.222621e+00 1.200705e+00 1.189949e+00 1.176804e+00 1.165701e+00 1.134224e+00 1.118974e+00 1.094636e+00 1.096250e+00 1.085067e+00 1.094311e+00 1.078749e+00 1.073458e+00 1.051807e+00 1.047662e+00 1.023252e+00 1.002388e+00 9.726449e-01 9.518498e-01 9.343537e-01 9.313308e-01 9.374611e-01 9.309531e-01 9.198887e-01 8.971363e-01 8.871161e-01 8.674878e-01 8.662494e-01 8.446276e-01 8.274007e-01 7.870523e-01 7.714435e-01 7.511687e-01 7.524883e-01 7.365892e-01 7.260435e-01 6.962828e-01 6.753344e-01 6.633037e-01 6.620831e-01 6.605403e-01 6.442628e-01 6.327038e-01 6.073964e-01 6.063729e-01 5.923141e-01 5.992447e-01 5.702605e-01 5.657288e-01 5.367017e-01 5.413305e-01 5.194312e-01 5.239065e-01 4.979202e-01 4.899524e-01 4.684800e-01 4.658000e-01 4.534531e-01 4.348199e-01 4.194123e-01 3.893238e-01 3.838135e-01 3.548014e-01 3.618105e-01 3.154654e-01 3.149816e-01 2.667338e-01 2.905515e-01 2.595866e-01 2.931796e-01 2.545164e-01 2.657501e-01 2.171385e-01 2.257367e-01 1.986815e-01 2.087163e-01 1.978379e-01 1.960327e-01 1.913109e-01 1.647214e-01 1.655328e-01 1.197914e-01 1.251483e-01 7.192421e-02 1.866059e-01 5.666271e-02 0 0 0 0 
0 0 0 0 0 3.989941e+00 3.156155e+00 1.642463e+00 2.789510e+00 1.949901e+00 3.391073e+00 2.355953e+00 3.705267e+00 2.434622e+01 3.699438e+01 2.693858e+01 2.895096e+01 3.245997e+01 3.204689e+01 4.140063e+01 4.254844e+01 3.174078e+01 3.140778e+01 3.214634e+01 3.184039e+01 3.197261e+01 3.075243e+01 3.056493e+01 2.968582e+01 3.001619e+01 2.951826e+01 2.970383e+01 2.890139e+01 2.884969e+01 2.845856e+01 2.860523e+01 2.825951e+01 2.800245e+01 2.743641e+01 2.694495e+01 2.670372e+01 2.640897e+01 2.615998e+01 2.545414e+01 2.511215e+01 2.456634e+01 2.460261e+01 2.435183e+01 2.455921e+01 2.421016e+01 2.409147e+01 2.360580e+01 2.351278e+01 2.296519e+01 2.249716e+01 2.182989e+01 2.136340e+01 2.097087e+01 2.090306e+01 2.104061e+01 2.089464e+01 2.064644e+01 2.013606e+01 1.991129e+01 1.947097e+01 1.944321e+01 1.895813e+01 1.857162e+01 1.766631e+01 1.731608e+01 1.686111e+01 1.689066e+01 1.653384e+01 1.629716e+01 1.562927e+01 1.515921e+01 1.488921e+01 1.486182e+01 1.482722e+01 1.446202e+01 1.420267e+01 1.363484e+01 1.361194e+01 1.329650e+01 1.345206e+01 1.280161e+01 1.269987e+01 1.204833e+01 1.215209e+01 1.166042e+01 1.176067e+01 1.117720e+01 1.099822e+01 1.051608e+01 1.045583e+01 1.017863e+01 9.760511e+00 9.414741e+00 8.739625e+00 8.616144e+00 7.965187e+00 8.122735e+00 7.082589e+00 7.071755e+00 5.988496e+00 6.522857e+00 5.827156e+00 6.580483e+00 5.711540e+00 5.962717e+00 4.870104e+00 5.062124e+00 4.453733e+00 4.678370e+00 4.433825e+00 4.393481e+00 4.288120e+00 3.692462e+00 3.711958e+00 2.684552e+00 2.786278e+00 1.577437e+00 4.171872e+00 1.271116e+00 0 0 0 0 
0 0 0 0 0 5.777238e+00 4.580177e+00 2.379109e+00 4.044648e+00 2.824115e+00 4.909601e+00 3.410947e+00 5.364382e+00 7.303707e+00 1.048634e+01 1.464031e+01 1.869123e+01 2.544650e+01 3.128740e+01 3.486497e+01 4.610468e+01 4.594309e+01 4.546109e+01 4.653007e+01 4.608737e+01 4.627884e+01 4.451305e+01 4.424178e+01 4.296954e+01 4.344775e+01 4.272713e+01 4.299572e+01 4.183433e+01 4.175949e+01 4.119338e+01 4.140564e+01 4.090524e+01 4.053317e+01 3.971391e+01 3.900261e+01 3.865347e+01 3.822689e+01 3.786652e+01 3.684495e+01 3.634998e+01 3.556003e+01 3.561253e+01 3.524958e+01 3.554973e+01 3.504454e+01 3.487274e+01 3.416979e+01 3.403515e+01 3.324256e+01 3.256513e+01 3.159932e+01 3.092412e+01 3.035597e+01 3.025781e+01 3.045691e+01 3.024564e+01 2.988639e+01 2.914768e+01 2.882235e+01 2.818502e+01 2.814485e+01 2.744274e+01 2.688329e+01 2.557290e+01 2.506596e+01 2.440739e+01 2.445015e+01 2.393365e+01 2.359105e+01 2.262427e+01 2.194387e+01 2.155305e+01 2.151340e+01 2.146333e+01 2.093472e+01 2.055932e+01 1.973743e+01 1.970429e+01 1.924770e+01 1.947288e+01 1.853135e+01 1.838408e+01 1.744095e+01 1.759111e+01 1.687936e+01 1.702442e+01 1.617978e+01 1.592066e+01 1.522270e+01 1.513545e+01 1.473419e+01 1.412896e+01 1.362846e+01 1.265126e+01 1.247257e+01 1.153034e+01 1.175845e+01 1.025282e+01 1.023714e+01 8.668999e+00 9.442449e+00 8.435219e+00 9.525519e+00 8.267399e+00 8.630743e+00 7.048757e+00 7.326467e+00 6.445509e+00 6.770529e+00 6.416444e+00 6.358089e+00 6.205732e+00 5.343784e+00 5.372331e+00 3.884934e+00 4.027484e+00 2.274036e+00 6.034757e+00 1.839818e+00 0 0 0 0 
0 0 0 0 0 1.964774e+00 1.562618e+00 8.096130e-01 1.378243e+00 9.608150e-01 1.669455e+00 1.159852e+00 1.824046e+00 2.483056e+00 3.564947e+00 4.977058e+00 6.354175e+00 8.650388e+00 1.063593e+01 1.185190e+01 1.567198e+01 1.561698e+01 1.545314e+01 1.581648e+01 1.566607e+01 1.573120e+01 1.513114e+01 1.503899e+01 1.460664e+01 1.476920e+01 1.452430e+01 1.461559e+01 1.422087e+01 1.419542e+01 1.400300e+01 1.407513e+01 1.390505e+01 1.377858e+01 1.350012e+01 1.325837e+01 1.313970e+01 1.299472e+01 1.287224e+01 1.252504e+01 1.235681e+01 1.208832e+01 1.210617e+01 1.198281e+01 1.208484e+01 1.191313e+01 1.185473e+01 1.161580e+01 1.157003e+01 1.130063e+01 1.107036e+01 1.074208e+01 1.051257e+01 1.031945e+01 1.028608e+01 1.035376e+01 1.028196e+01 1.015984e+01 9.908755e+00 9.798175e+00 9.581545e+00 9.567891e+00 9.329236e+00 9.139068e+00 8.693639e+00 8.521317e+00 8.297450e+00 8.311978e+00 8.136397e+00 8.019933e+00 7.691287e+00 7.460000e+00 7.327145e+00 7.313664e+00 7.296646e+00 7.116964e+00 6.989359e+00 6.709978e+00 6.698723e+00 6.543518e+00 6.620068e+00 6.300007e+00 6.249940e+00 5.929316e+00 5.980349e+00 5.738372e+00 5.787660e+00 5.500498e+00 5.412394e+00 5.175099e+00 5.145426e+00 5.009007e+00 4.803272e+00 4.633133e+00 4.300960e+00 4.240237e+00 3.919953e+00 3.997528e+00 3.485696e+00 3.480370e+00 2.947236e+00 3.210143e+00 2.867649e+00 3.238216e+00 2.810375e+00 2.933776e+00 2.395791e+00 2.490080e+00 2.190457e+00 2.300875e+00 2.180457e+00 2.160640e+00 2.108923e+00 1.816044e+00 1.825906e+00 1.320174e+00 1.366354e+00 7.685241e-01 2.049491e+00 6.253640e-01 0 0 0 0 
0 0 0 0 0 0 0 0 0 0 0 0 0 0 0 0 0 0 0 0 0 0 0 0 0 0 0 0 0 0 0 0 0 0 0 0 0 0 0 0 0 0 0 0 0 0 0 0 0 0 0 0 0 0 0 0 0 0 0 0 0 0 0 0 0 0 0 0 0 0 0 0 0 0 0 0 0 0 0 0 0 0 0 0 0 0 0 0 0 0 0 0 0 0 0 0 0 0 0 0 0 0 0 0 0 0 0 0 0 0 0 0 0 0 0 0 0 0 0 0 0 0 0 0 0 0 0 0 
