# vtk DataFile Version 2.0
Comment goes here
ASCII

DATASET STRUCTURED_POINTS
FIELD FieldData 1
TIME 1 1 double
0.77000000
DIMENSIONS    128   16   1

ORIGIN    0.000   0.000   0.000
SPACING   0.0078125 0.015625   1.000

POINT_DATA   2048
SCALARS fX double
LOOKUP_TABLE default

0 0 0 0 0 0 0 0 0 0 0 0 0 0 0 0 0 0 0 0 0 0 0 0 0 0 0 0 0 0 0 0 0 0 0 0 0 0 0 0 0 0 0 0 0 0 0 0 0 0 0 0 0 0 0 0 0 0 0 0 0 0 0 0 0 0 0 0 0 0 0 0 0 0 0 0 0 0 0 0 0 0 0 0 0 0 0 0 0 0 0 0 0 0 0 0 0 0 0 0 0 0 0 0 0 0 0 0 0 0 0 0 0 0 0 0 0 0 0 0 0 0 0 0 0 0 0 0 
0 0 0 0 0 0 0 0 0 0 0 0 0 0 0 0 0 0 0 0 0 0 0 0 0 0 0 0 0 0 0 0 0 0 0 0 0 0 0 0 0 0 0 0 0 0 0 0 0 0 0 0 0 0 0 0 0 0 0 0 0 0 0 0 0 0 0 0 0 0 0 0 0 0 0 0 0 0 0 0 0 0 0 0 0 0 0 0 0 0 0 0 0 0 0 0 0 0 0 0 0 0 0 0 0 0 0 0 0 0 0 0 0 0 0 0 0 0 0 0 0 0 0 0 0 0 0 0 
0 0 0 0 0 1.688728e+00 1.376746e+00 -2.828263e-01 5.802101e-01 3.117912e-01 5.442263e-01 3.340932e-01 -5.992006e-02 -2.174086e+00 -3.001312e+00 -2.215276e+00 -2.124097e+00 -2.468603e+00 -1.811498e+00 -2.698018e+00 -2.599688e+00 2.915803e-01 3.801735e-01 4.935460e-01 3.842906e-01 4.905537e-01 3.892675e-01 4.831533e-01 3.930927e-01 4.706214e-01 3.968611e-01 4.553425e-01 4.012006e-01 4.398593e-01 4.061635e-01 4.254205e-01 4.117868e-01 4.138507e-01 4.176864e-01 4.049209e-01 4.232932e-01 3.987117e-01 4.274043e-01 3.939848e-01 4.290341e-01 3.901962e-01 4.261973e-01 3.867076e-01 4.183886e-01 3.818214e-01 4.051388e-01 3.735086e-01 3.851393e-01 3.607215e-01 3.534805e-01 1.020788e-01 -2.036482e+00 -3.634743e+00 -2.803195e-01 1.717951e+00 -1.472213e+00 -3.282868e+00 -3.311394e-01 1.671139e+00 -3.122920e+00 -3.710845e+00 2.728172e+00 2.143353e-01 -5.748975e+00 -8.065262e-01 6.208868e+00 4.324749e+00 6.864473e-01 4.124439e-01 3.580606e-01 3.952638e-01 4.112884e-01 4.246342e-01 4.363868e-01 4.403840e-01 4.512013e-01 4.497222e-01 4.613774e-01 4.559921e-01 4.703462e-01 4.609441e-01 4.792732e-01 4.660736e-01 4.880948e-01 4.713875e-01 4.957347e-01 4.764501e-01 5.011439e-01 4.808463e-01 5.031291e-01 4.846468e-01 5.011822e-01 4.882019e-01 4.951227e-01 4.924428e-01 4.852115e-01 4.980750e-01 4.723716e-01 5.057313e-01 4.577410e-01 5.152768e-01 4.426630e-01 5.258354e-01 4.286572e-01 5.359471e-01 4.171942e-01 5.434695e-01 4.097235e-01 5.461232e-01 4.074019e-01 5.424377e-01 4.099573e-01 5.338854e-01 4.121473e-01 5.410256e-01 2.559025e-01 4.246124e-01 1.546504e+00 3.250931e-01 0 0 0 0 
0 0 0 0 0 4.965568e+00 4.036052e+00 -8.513170e-01 1.697552e+00 9.152754e-01 1.600162e+00 9.822570e-01 -1.768274e-01 -6.395410e+00 -8.828405e+00 -6.516719e+00 -6.248670e+00 -7.262392e+00 -5.329338e+00 -7.937059e+00 -7.647210e+00 8.583774e-01 1.118949e+00 1.452344e+00 1.130804e+00 1.443308e+00 1.145259e+00 1.421396e+00 1.156414e+00 1.384467e+00 1.167471e+00 1.339514e+00 1.180249e+00 1.293989e+00 1.194879e+00 1.251544e+00 1.211449e+00 1.217528e+00 1.228817e+00 1.191262e+00 1.245305e+00 1.172983e+00 1.257379e+00 1.159053e+00 1.262146e+00 1.147880e+00 1.253773e+00 1.137594e+00 1.230782e+00 1.123204e+00 1.191792e+00 1.098741e+00 1.132954e+00 1.061122e+00 1.039819e+00 3.002632e-01 -6.088056e+00 -1.095495e+01 -2.174968e-01 5.743096e+00 -4.524390e+00 -8.619814e+00 1.766046e+00 6.590020e+00 -8.404268e+00 -6.991802e+00 1.263077e+01 2.593428e+00 -1.350841e+01 4.382387e+00 2.266774e+01 1.324363e+01 2.070628e+00 1.213139e+00 1.053210e+00 1.162662e+00 1.209806e+00 1.249065e+00 1.283636e+00 1.295392e+00 1.327210e+00 1.322855e+00 1.357138e+00 1.341293e+00 1.383517e+00 1.355859e+00 1.409778e+00 1.370953e+00 1.435735e+00 1.386597e+00 1.458223e+00 1.401508e+00 1.474154e+00 1.414460e+00 1.480011e+00 1.425653e+00 1.474289e+00 1.436106e+00 1.456449e+00 1.448555e+00 1.427259e+00 1.465077e+00 1.389444e+00 1.487553e+00 1.346376e+00 1.515617e+00 1.302046e+00 1.546733e+00 1.260958e+00 1.576633e+00 1.227453e+00 1.599013e+00 1.205771e+00 1.607117e+00 1.199230e+00 1.596507e+00 1.206883e+00 1.571326e+00 1.213077e+00 1.591873e+00 7.548271e-01 1.253433e+00 4.551569e+00 9.564218e-01 0 0 0 0 
0 0 0 0 0 3.429384e+00 2.781537e+00 -5.974926e-01 1.168260e+00 6.313818e-01 1.105080e+00 6.783222e-01 -1.224318e-01 -2.428271e+01 -3.696916e+01 -2.667798e+01 -2.553588e+01 -2.940564e+01 -2.234498e+01 -3.412735e+01 -2.756398e+01 5.933130e-01 7.733069e-01 1.003576e+00 7.813727e-01 9.972199e-01 7.912681e-01 9.820129e-01 7.989276e-01 9.564706e-01 8.065518e-01 9.254109e-01 8.153866e-01 8.939714e-01 8.255084e-01 8.646622e-01 8.369692e-01 8.411723e-01 8.489736e-01 8.230277e-01 8.603613e-01 8.103928e-01 8.686930e-01 8.007578e-01 8.719728e-01 7.930257e-01 8.661758e-01 7.859079e-01 8.502820e-01 7.759584e-01 8.233399e-01 7.590546e-01 7.826892e-01 7.330635e-01 7.183453e-01 2.074244e-01 -4.223233e+00 -7.114780e+00 1.159863e+00 5.059046e+00 -2.408011e+00 -4.314841e+00 4.054079e+00 6.632980e+00 -4.481077e+00 -1.126643e+00 1.276761e+01 3.608280e+00 -6.446777e+00 8.307488e+00 1.900087e+01 9.551094e+00 1.460117e+00 8.380185e-01 7.275567e-01 8.031766e-01 8.357484e-01 8.628700e-01 8.867524e-01 8.948720e-01 9.168515e-01 9.138413e-01 9.375238e-01 9.265766e-01 9.557455e-01 9.366385e-01 9.738878e-01 9.470682e-01 9.918239e-01 9.578818e-01 1.007367e+00 9.681915e-01 1.018381e+00 9.771488e-01 1.022435e+00 9.848875e-01 1.018485e+00 9.921073e-01 1.006154e+00 1.000694e+00 9.859712e-01 1.012087e+00 9.598249e-01 1.027591e+00 9.300580e-01 1.046972e+00 8.994446e-01 1.068494e+00 8.711142e-01 1.089225e+00 8.480726e-01 1.104809e+00 8.332356e-01 1.110551e+00 8.288567e-01 1.103333e+00 8.342096e-01 1.085926e+00 8.383682e-01 1.099900e+00 5.224556e-01 8.680349e-01 3.145499e+00 6.607845e-01 0 0 0 0 
0 0 0 0 0 1.525446e-01 1.222305e-01 -2.900186e-02 5.091843e-02 2.789764e-02 4.914458e-02 3.015847e-02 -5.524422e-03 -2.657408e+01 -2.897504e+01 -2.713285e+01 -2.743405e+01 -2.790421e+01 -2.655776e+01 -2.853375e+01 -2.678813e+01 2.651584e-02 3.453097e-02 4.477764e-02 3.485884e-02 4.446567e-02 3.527683e-02 4.377053e-02 3.560618e-02 4.262460e-02 3.594233e-02 4.123965e-02 3.633767e-02 3.984148e-02 3.679245e-02 3.853907e-02 3.730656e-02 3.749475e-02 3.784302e-02 3.668657e-02 3.834975e-02 3.612188e-02 3.871859e-02 3.568952e-02 3.886135e-02 3.534158e-02 3.859968e-02 3.502146e-02 3.788891e-02 3.457609e-02 3.668682e-02 3.382181e-02 3.487474e-02 3.266321e-02 3.200710e-02 9.239963e-03 -1.583314e-01 4.493038e-01 1.447419e+00 1.276774e+00 9.697083e-01 1.270105e+00 2.150538e+00 1.929091e+00 8.837459e-01 2.225687e+00 2.933086e+00 1.173598e+00 1.182854e+00 2.969031e+00 2.384880e+00 5.422724e-01 5.446164e-02 3.732336e-02 3.240746e-02 3.577843e-02 3.723040e-02 3.843887e-02 3.950285e-02 3.986425e-02 4.084323e-02 4.070864e-02 4.176353e-02 4.127543e-02 4.257492e-02 4.172358e-02 4.338337e-02 4.218888e-02 4.418346e-02 4.267221e-02 4.487776e-02 4.313384e-02 4.537086e-02 4.353539e-02 4.555354e-02 4.388180e-02 4.537812e-02 4.420297e-02 4.482692e-02 4.458229e-02 4.392338e-02 4.508431e-02 4.275285e-02 4.576935e-02 4.142294e-02 4.663106e-02 4.006185e-02 4.759689e-02 3.881337e-02 4.853962e-02 3.781327e-02 4.926500e-02 3.718829e-02 4.955750e-02 3.702867e-02 4.926433e-02 3.728391e-02 4.848586e-02 3.743863e-02 4.905226e-02 2.353095e-02 3.921413e-02 1.404341e-01 2.945580e-02 0 0 0 0 
0 0 0 0 0 0 0 0 0 0 0 0 0 -2.919456e+01 -3.199061e+01 -2.988554e+01 -3.024654e+01 -3.085734e+01 -2.920018e+01 -3.176068e+01 -2.928898e+01 0 0 0 0 0 0 0 0 0 0 0 0 0 0 0 0 0 0 0 0 0 0 0 0 0 0 0 0 0 0 0 0 0 0 0 5.292031e-03 1.948553e-01 3.092973e-01 2.276144e-01 3.033158e-01 2.338526e-01 1.542699e-01 2.064547e-01 9.910591e-02 2.813430e-02 4.644372e-02 -2.064819e-02 -1.196893e-01 -1.841634e-01 -1.643963e-01 -6.951704e-02 -1.705647e-02 0 0 0 0 0 0 0 0 0 0 0 0 0 0 0 0 0 0 0 0 0 0 0 0 0 0 0 0 0 0 0 0 0 0 0 0 0 0 0 0 0 0 0 0 0 0 0 0 0 0 0 0 0 0 0 
0 0 0 0 0 0 0 0 0 0 0 0 0 -2.829640e+01 -2.912677e+01 -2.844170e+01 -2.862937e+01 -2.876906e+01 -2.828510e+01 -2.916731e+01 -2.822727e+01 0 0 0 0 0 0 0 0 0 0 0 0 0 0 0 0 0 0 0 0 0 0 0 0 0 0 0 0 0 0 0 0 0 0 0 -1.140942e-02 -8.002047e-02 -9.246488e-02 -6.546295e-02 -7.105613e-02 -5.365344e-02 -7.941729e-02 -3.977506e-02 2.861889e-04 -6.448022e-02 -3.654447e-02 4.049286e-02 2.139894e-02 -1.859559e-02 1.106518e-02 2.889520e-02 5.542222e-03 0 0 0 0 0 0 0 0 0 0 0 0 0 0 0 0 0 0 0 0 0 0 0 0 0 0 0 0 0 0 0 0 0 0 0 0 0 0 0 0 0 0 0 0 0 0 0 0 0 0 0 0 0 0 0 
0 0 0 0 0 0 0 0 0 0 0 0 0 -3.033943e+01 -3.157624e+01 -3.064238e+01 -3.085639e+01 -3.118034e+01 -3.029621e+01 -3.173701e+01 -3.013942e+01 0 0 0 0 0 0 0 0 0 0 0 0 0 0 0 0 0 0 0 0 0 0 0 0 0 0 0 0 0 0 0 0 0 0 0 -3.374790e-03 -3.099893e-02 -5.138436e-02 -5.020403e-02 -4.882904e-02 -3.950572e-02 -4.004221e-02 -3.123796e-02 -1.534467e-02 -2.124147e-02 -1.491650e-02 5.551115e-03 1.128533e-02 1.602517e-02 1.833721e-02 8.467233e-03 1.124440e-03 0 0 0 0 0 0 0 0 0 0 0 0 0 0 0 0 0 0 0 0 0 0 0 0 0 0 0 0 0 0 0 0 0 0 0 0 0 0 0 0 0 0 0 0 0 0 0 0 0 0 0 0 0 0 0 
0 0 0 0 0 0 0 0 0 0 0 0 0 -2.829515e+01 -2.912598e+01 -2.844032e+01 -2.862971e+01 -2.876778e+01 -2.828594e+01 -2.916648e+01 -2.822728e+01 0 0 0 0 0 0 0 0 0 0 0 0 0 0 0 0 0 0 0 0 0 0 0 0 0 0 0 0 0 0 0 0 0 0 0 0 0 0 0 0 0 0 0 0 0 0 0 0 0 0 0 0 0 0 0 0 0 0 0 0 0 0 0 0 0 0 0 0 0 0 0 0 0 0 0 0 0 0 0 0 0 0 0 0 0 0 0 0 0 0 0 0 0 0 0 0 0 0 0 0 0 0 0 0 0 0 0 
0 0 0 0 0 0 0 0 0 0 0 0 0 -2.919688e+01 -3.198900e+01 -2.988234e+01 -3.025033e+01 -3.085129e+01 -2.920282e+01 -3.175811e+01 -2.928060e+01 0 0 0 0 0 0 0 0 0 0 0 0 0 0 0 0 0 0 0 0 0 0 0 0 0 0 0 0 0 0 0 0 0 0 0 0 0 0 0 0 0 0 0 0 0 0 0 0 0 0 0 0 0 0 0 0 0 0 0 0 0 0 0 0 0 0 0 0 0 0 0 0 0 0 0 0 0 0 0 0 0 0 0 0 0 0 0 0 0 0 0 0 0 0 0 0 0 0 0 0 0 0 0 0 0 0 0 
0 0 0 0 0 1.525108e-01 1.224445e-01 -2.861524e-02 5.147866e-02 2.837415e-02 4.964940e-02 3.050604e-02 -5.103708e-03 -2.657338e+01 -2.897046e+01 -2.712781e+01 -2.743762e+01 -2.789899e+01 -2.656539e+01 -2.853556e+01 -2.678970e+01 2.576736e-02 3.415794e-02 4.436594e-02 3.445157e-02 4.412169e-02 3.501213e-02 4.365767e-02 3.560766e-02 4.287238e-02 3.627575e-02 4.190198e-02 3.698337e-02 4.083327e-02 3.766506e-02 3.973513e-02 3.825771e-02 3.866955e-02 3.871323e-02 3.770379e-02 3.902660e-02 3.691316e-02 3.923010e-02 3.638531e-02 3.938483e-02 3.619457e-02 3.955181e-02 3.637794e-02 3.975210e-02 3.686673e-02 3.992022e-02 3.743903e-02 3.986526e-02 3.773439e-02 3.928550e-02 3.731656e-02 3.780413e-02 3.581446e-02 3.746379e-02 3.756551e-02 3.715098e-02 3.654936e-02 3.753555e-02 3.824258e-02 3.767017e-02 3.759765e-02 4.012085e-02 4.045969e-02 3.983736e-02 4.277134e-02 4.523476e-02 4.636587e-02 4.528624e-02 4.567450e-02 4.477313e-02 4.505891e-02 4.457088e-02 4.477786e-02 4.461932e-02 4.471725e-02 4.481887e-02 4.473445e-02 4.506112e-02 4.470194e-02 4.526304e-02 4.455944e-02 4.537605e-02 4.430915e-02 4.539259e-02 4.401232e-02 4.533949e-02 4.376857e-02 4.525068e-02 4.368492e-02 4.513792e-02 4.384880e-02 4.497807e-02 4.429797e-02 4.470115e-02 4.501529e-02 4.423264e-02 4.595076e-02 4.352574e-02 4.702542e-02 4.256744e-02 4.812113e-02 4.138910e-02 4.909793e-02 4.009232e-02 4.981940e-02 3.884437e-02 5.014567e-02 3.784369e-02 4.996316e-02 3.728381e-02 4.923362e-02 3.722225e-02 4.815660e-02 3.721962e-02 4.860566e-02 2.335641e-02 3.877069e-02 1.404539e-01 2.953094e-02 0 0 0 0 
0 0 0 0 0 3.428628e+00 2.786364e+00 -5.887756e-01 1.180857e+00 6.420860e-01 1.116417e+00 6.861253e-01 -1.129877e-01 -2.432649e+01 -3.697570e+01 -2.666374e+01 -2.556903e+01 -2.936731e+01 -2.238367e+01 -3.411288e+01 -2.749394e+01 5.765062e-01 7.649299e-01 9.943308e-01 7.722290e-01 9.894971e-01 7.853234e-01 9.794741e-01 7.989533e-01 9.620206e-01 8.140212e-01 9.402582e-01 8.298588e-01 9.162083e-01 8.450701e-01 8.914844e-01 8.582975e-01 8.675240e-01 8.684953e-01 8.458563e-01 8.755569e-01 8.281664e-01 8.801931e-01 8.163999e-01 8.837498e-01 8.122005e-01 8.875731e-01 8.163794e-01 8.921210e-01 8.273863e-01 8.959202e-01 8.402433e-01 8.946933e-01 8.468699e-01 8.816787e-01 8.374860e-01 8.484280e-01 8.037692e-01 8.407911e-01 8.430775e-01 8.337873e-01 8.202914e-01 8.424441e-01 8.583244e-01 8.454998e-01 8.438854e-01 9.005457e-01 9.081644e-01 8.942215e-01 9.600911e-01 1.015413e+00 1.040813e+00 1.016598e+00 1.025320e+00 1.005099e+00 1.011518e+00 1.000570e+00 1.005220e+00 1.001664e+00 1.003866e+00 1.006146e+00 1.004254e+00 1.011581e+00 1.003518e+00 1.016101e+00 1.000300e+00 1.018611e+00 9.946475e-01 1.018942e+00 9.879354e-01 1.017698e+00 9.824038e-01 1.015645e+00 9.804672e-01 1.013067e+00 9.841105e-01 1.009468e+00 9.942073e-01 1.003299e+00 1.010388e+00 9.928908e-01 1.031520e+00 9.771602e-01 1.055776e+00 9.557402e-01 1.080412e+00 9.292302e-01 1.102179e+00 8.998098e-01 1.117934e+00 8.711933e-01 1.124548e+00 8.479126e-01 1.119619e+00 8.345412e-01 1.102598e+00 8.327796e-01 1.078495e+00 8.334172e-01 1.089844e+00 5.185050e-01 8.580501e-01 3.145938e+00 6.624720e-01 0 0 0 0 
0 0 0 0 0 4.964475e+00 4.043046e+00 -8.386890e-01 1.715792e+00 9.307724e-01 1.616574e+00 9.935527e-01 -1.631564e-01 -6.401885e+00 -8.821877e+00 -6.511205e+00 -6.256139e+00 -7.253153e+00 -5.339719e+00 -7.934198e+00 -7.636571e+00 8.340470e-01 1.106822e+00 1.438961e+00 1.117568e+00 1.432128e+00 1.136653e+00 1.417719e+00 1.156449e+00 1.392498e+00 1.178279e+00 1.361001e+00 1.201193e+00 1.326172e+00 1.223190e+00 1.290364e+00 1.242318e+00 1.255669e+00 1.257073e+00 1.224307e+00 1.267302e+00 1.198714e+00 1.274030e+00 1.181702e+00 1.279200e+00 1.175644e+00 1.284754e+00 1.181709e+00 1.291350e+00 1.197651e+00 1.296856e+00 1.216265e+00 1.295082e+00 1.225857e+00 1.276242e+00 1.212272e+00 1.228110e+00 1.163465e+00 1.217056e+00 1.220367e+00 1.206922e+00 1.187388e+00 1.219460e+00 1.242450e+00 1.223892e+00 1.221558e+00 1.303583e+00 1.314615e+00 1.294438e+00 1.389791e+00 1.469879e+00 1.506649e+00 1.471602e+00 1.484229e+00 1.454962e+00 1.464255e+00 1.448409e+00 1.455140e+00 1.449994e+00 1.453182e+00 1.456483e+00 1.453744e+00 1.464349e+00 1.452677e+00 1.470888e+00 1.448014e+00 1.474516e+00 1.439823e+00 1.474985e+00 1.430095e+00 1.473170e+00 1.422072e+00 1.470184e+00 1.419254e+00 1.466439e+00 1.424519e+00 1.461227e+00 1.439138e+00 1.452309e+00 1.462581e+00 1.437270e+00 1.493204e+00 1.414534e+00 1.528350e+00 1.383550e+00 1.564023e+00 1.345160e+00 1.595492e+00 1.302493e+00 1.618186e+00 1.260916e+00 1.627580e+00 1.227008e+00 1.620233e+00 1.207448e+00 1.595431e+00 1.204801e+00 1.560558e+00 1.205901e+00 1.577309e+00 7.491001e-01 1.238972e+00 4.552202e+00 9.588648e-01 0 0 0 0 
0 0 0 0 0 1.688357e+00 1.379126e+00 -2.785286e-01 5.864136e-01 3.170605e-01 5.498063e-01 3.379334e-01 -5.527244e-02 -2.176289e+00 -2.999095e+00 -2.213404e+00 -2.126640e+00 -2.465466e+00 -1.815030e+00 -2.697048e+00 -2.596073e+00 2.833082e-01 3.760504e-01 4.889958e-01 3.797905e-01 4.867529e-01 3.863415e-01 4.819028e-01 3.931037e-01 4.733501e-01 4.005337e-01 4.626448e-01 4.083179e-01 4.507969e-01 4.157846e-01 4.386145e-01 4.222781e-01 4.268147e-01 4.272908e-01 4.161541e-01 4.307716e-01 4.074607e-01 4.330674e-01 4.016875e-01 4.348352e-01 3.996381e-01 4.367324e-01 4.017077e-01 4.389813e-01 4.071317e-01 4.408563e-01 4.134610e-01 4.402539e-01 4.167213e-01 4.338492e-01 4.121023e-01 4.174865e-01 3.955101e-01 4.137289e-01 4.148547e-01 4.102859e-01 4.036463e-01 4.145512e-01 4.223681e-01 4.160620e-01 4.152703e-01 4.431581e-01 4.469100e-01 4.400542e-01 4.724714e-01 4.997009e-01 5.122026e-01 5.002904e-01 5.045841e-01 4.946357e-01 4.977954e-01 4.924093e-01 4.946981e-01 4.929492e-01 4.940332e-01 4.951554e-01 4.942245e-01 4.978293e-01 4.938611e-01 5.000507e-01 4.922737e-01 5.012807e-01 4.894848e-01 5.014353e-01 4.861714e-01 5.008116e-01 4.834367e-01 4.997893e-01 4.824713e-01 4.985106e-01 4.842568e-01 4.967371e-01 4.892286e-01 4.937113e-01 4.972079e-01 4.886121e-01 5.076348e-01 4.808996e-01 5.195994e-01 4.703776e-01 5.317317e-01 4.573193e-01 5.424103e-01 4.427760e-01 5.500715e-01 4.285671e-01 5.531773e-01 4.169389e-01 5.505771e-01 4.101904e-01 5.420664e-01 4.092439e-01 5.302197e-01 4.097036e-01 5.360706e-01 2.539515e-01 4.196923e-01 1.546718e+00 3.259238e-01 0 0 0 0 
0 0 0 0 0 0 0 0 0 0 0 0 0 0 0 0 0 0 0 0 0 0 0 0 0 0 0 0 0 0 0 0 0 0 0 0 0 0 0 0 0 0 0 0 0 0 0 0 0 0 0 0 0 0 0 0 0 0 0 0 0 0 0 0 0 0 0 0 0 0 0 0 0 0 0 0 0 0 0 0 0 0 0 0 0 0 0 0 0 0 0 0 0 0 0 0 0 0 0 0 0 0 0 0 0 0 0 0 0 0 0 0 0 0 0 0 0 0 0 0 0 0 0 0 0 0 0 0 
