# vtk DataFile Version 2.0
Comment goes here
ASCII

DATASET STRUCTURED_POINTS
FIELD FieldData 1
TIME 1 1 double
0.39000000
DIMENSIONS    128   16   1

ORIGIN    0.000   0.000   0.000
SPACING   0.0078125 0.015625   1.000

POINT_DATA   2048
SCALARS fX double
LOOKUP_TABLE default

0 0 0 0 0 0 0 0 0 0 0 0 0 0 0 0 0 0 0 0 0 0 0 0 0 0 0 0 0 0 0 0 0 0 0 0 0 0 0 0 0 0 0 0 0 0 0 0 0 0 0 0 0 0 0 0 0 0 0 0 0 0 0 0 0 0 0 0 0 0 0 0 0 0 0 0 0 0 0 0 0 0 0 0 0 0 0 0 0 0 0 0 0 0 0 0 0 0 0 0 0 0 0 0 0 0 0 0 0 0 0 0 0 0 0 0 0 0 0 0 0 0 0 0 0 0 0 0 
0 0 0 0 0 0 0 0 0 0 0 0 0 0 0 0 0 0 0 0 0 0 0 0 0 0 0 0 0 0 0 0 0 0 0 0 0 0 0 0 0 0 0 0 0 0 0 0 0 0 0 0 0 0 0 0 0 0 0 0 0 0 0 0 0 0 0 0 0 0 0 0 0 0 0 0 0 0 0 0 0 0 0 0 0 0 0 0 0 0 0 0 0 0 0 0 0 0 0 0 0 0 0 0 0 0 0 0 0 0 0 0 0 0 0 0 0 0 0 0 0 0 0 0 0 0 0 0 
0 0 0 0 0 9.534602e-01 -1.947072e+00 -1.574127e+00 -3.463274e-01 -8.925209e-01 -4.798238e-01 -8.128094e-01 1.064315e+00 3.711399e+00 4.808605e+00 4.013875e+00 5.095462e+00 4.380782e+00 4.672607e+00 5.053124e+00 3.595478e+00 8.262084e-01 -5.344232e-01 -4.998064e-01 -5.788246e-01 -5.464286e-01 -6.220247e-01 -5.787524e-01 -6.595258e-01 -6.090046e-01 -6.941999e-01 -6.376864e-01 -7.286507e-01 -6.728214e-01 -7.616243e-01 -6.944373e-01 -7.582389e-01 -6.777475e-01 -7.302978e-01 -6.655070e-01 -7.117836e-01 -6.559783e-01 -6.919822e-01 -6.533247e-01 -6.826763e-01 -6.554678e-01 -6.753057e-01 -6.700477e-01 -6.882228e-01 -7.029362e-01 -7.169727e-01 -7.583830e-01 -7.675654e-01 -8.175094e-01 -7.931149e-01 -7.442636e-01 -2.350610e-01 -3.888361e-01 -7.204462e-01 -6.504988e-02 -7.105148e-01 -2.171427e+00 -7.286508e-01 4.794113e-01 -2.158855e+00 -2.114277e+00 8.452014e-01 -1.027431e+00 -3.269411e+00 -5.155702e-01 1.470665e-01 -3.359944e+00 -2.917447e+00 -8.677931e-01 -7.227809e-01 -6.921775e-01 -7.440457e-01 -7.263663e-01 -7.657765e-01 -7.396285e-01 -7.675231e-01 -7.499965e-01 -7.640924e-01 -7.369642e-01 -7.299974e-01 -7.045227e-01 -6.923731e-01 -6.653191e-01 -6.466054e-01 -6.220098e-01 -6.062703e-01 -5.771003e-01 -5.674118e-01 -5.470554e-01 -5.685107e-01 -5.495152e-01 -5.835087e-01 -5.594453e-01 -6.227321e-01 -5.983073e-01 -6.702902e-01 -6.303045e-01 -7.131660e-01 -6.666262e-01 -7.443964e-01 -6.870496e-01 -7.599145e-01 -7.066667e-01 -7.532827e-01 -6.966655e-01 -7.089541e-01 -6.775839e-01 -6.549576e-01 -6.623432e-01 -6.005038e-01 -6.659529e-01 -5.555382e-01 -6.843457e-01 -5.177709e-01 -7.323289e-01 -4.852243e-01 -1.504344e+00 -1.220221e+00 1.480924e-01 0 0 0 0 
0 0 0 0 0 2.804825e+00 -5.723303e+00 -4.625525e+00 -1.018228e+00 -2.627012e+00 -1.413503e+00 -2.392754e+00 3.128930e+00 1.091432e+01 1.414165e+01 1.180441e+01 1.498523e+01 1.288334e+01 1.374085e+01 1.485933e+01 1.057223e+01 2.429297e+00 -1.571372e+00 -1.469536e+00 -1.701822e+00 -1.606533e+00 -1.828793e+00 -1.701559e+00 -1.939074e+00 -1.790552e+00 -2.041089e+00 -1.874956e+00 -2.142462e+00 -1.978340e+00 -2.239486e+00 -2.041959e+00 -2.229581e+00 -1.992914e+00 -2.147442e+00 -1.956927e+00 -2.092999e+00 -1.928897e+00 -2.034763e+00 -1.921084e+00 -2.007393e+00 -1.927385e+00 -1.985730e+00 -1.970273e+00 -2.023735e+00 -2.067011e+00 -2.108306e+00 -2.230089e+00 -2.257110e+00 -2.403985e+00 -2.332265e+00 -2.188611e+00 -6.788926e-01 -1.042691e+00 -1.694619e+00 6.750853e-01 -1.321506e+00 -5.786287e+00 -1.033133e+00 2.866221e+00 -5.481571e+00 -5.361563e+00 4.163583e+00 -1.688534e+00 -8.811546e+00 -4.184400e-02 2.373705e+00 -8.904413e+00 -8.520411e+00 -2.552104e+00 -2.125616e+00 -2.035601e+00 -2.188124e+00 -2.136126e+00 -2.252022e+00 -2.175122e+00 -2.257160e+00 -2.205619e+00 -2.247081e+00 -2.167305e+00 -2.146823e+00 -2.071908e+00 -2.036182e+00 -1.956624e+00 -1.901594e+00 -1.829271e+00 -1.782990e+00 -1.697215e+00 -1.668728e+00 -1.608872e+00 -1.671975e+00 -1.616117e+00 -1.716088e+00 -1.645318e+00 -1.831430e+00 -1.759582e+00 -1.971253e+00 -1.853619e+00 -2.097266e+00 -1.960340e+00 -2.189012e+00 -2.020297e+00 -2.234560e+00 -2.077918e+00 -2.215016e+00 -2.048500e+00 -2.084694e+00 -1.992481e+00 -1.926038e+00 -1.947851e+00 -1.766092e+00 -1.958655e+00 -1.633923e+00 -2.012480e+00 -1.521434e+00 -2.148409e+00 -1.407089e+00 -4.400774e+00 -3.580670e+00 4.356941e-01 0 0 0 0 
0 0 0 0 0 1.937712e+00 -3.951777e+00 -3.193052e+00 -7.031642e-01 -1.815574e+00 -9.774814e-01 -1.653850e+00 2.160650e+00 3.855860e+01 4.812939e+01 4.348738e+01 5.077849e+01 4.697287e+01 4.678570e+01 5.264751e+01 3.450821e+01 1.677704e+00 -1.085214e+00 -1.014860e+00 -1.175254e+00 -1.109430e+00 -1.262918e+00 -1.175048e+00 -1.339087e+00 -1.236528e+00 -1.409571e+00 -1.294853e+00 -1.479618e+00 -1.366289e+00 -1.546659e+00 -1.410255e+00 -1.539842e+00 -1.376398e+00 -1.483123e+00 -1.351546e+00 -1.445521e+00 -1.332183e+00 -1.405296e+00 -1.326781e+00 -1.386391e+00 -1.331132e+00 -1.371433e+00 -1.360761e+00 -1.397693e+00 -1.427587e+00 -1.456117e+00 -1.540233e+00 -1.558905e+00 -1.660351e+00 -1.610823e+00 -1.511606e+00 -4.749197e-01 -7.481772e-01 -1.071463e+00 8.446989e-01 -6.078283e-01 -3.828723e+00 -2.171289e-01 2.658400e+00 -3.492618e+00 -3.369290e+00 3.689224e+00 -5.983634e-01 -5.789367e+00 7.169249e-01 2.593958e+00 -5.721827e+00 -5.864470e+00 -1.762775e+00 -1.468184e+00 -1.406002e+00 -1.511344e+00 -1.475426e+00 -1.555475e+00 -1.502359e+00 -1.559024e+00 -1.523426e+00 -1.552068e+00 -1.496968e+00 -1.482824e+00 -1.431081e+00 -1.406407e+00 -1.351458e+00 -1.313451e+00 -1.263501e+00 -1.231537e+00 -1.172297e+00 -1.152624e+00 -1.111285e+00 -1.154874e+00 -1.116295e+00 -1.185346e+00 -1.136463e+00 -1.265009e+00 -1.215375e+00 -1.361567e+00 -1.280297e+00 -1.448567e+00 -1.353963e+00 -1.511889e+00 -1.395324e+00 -1.543306e+00 -1.435089e+00 -1.529786e+00 -1.414767e+00 -1.439793e+00 -1.376121e+00 -1.330276e+00 -1.345388e+00 -1.219895e+00 -1.352942e+00 -1.128639e+00 -1.389990e+00 -1.050254e+00 -1.481365e+00 -9.622455e-01 -3.028353e+00 -2.469395e+00 3.010212e-01 0 0 0 0 
0 0 0 0 0 8.634680e-02 -1.755469e-01 -1.416545e-01 -3.126324e-02 -8.108303e-02 -4.380251e-02 -7.390508e-02 9.603527e-02 4.421186e+01 4.828833e+01 4.537110e+01 4.743671e+01 4.684526e+01 4.587172e+01 4.846845e+01 4.389903e+01 7.461457e-02 -4.826521e-02 -4.512986e-02 -5.225697e-02 -4.932526e-02 -5.614967e-02 -5.224153e-02 -5.953924e-02 -5.498105e-02 -6.268170e-02 -5.758377e-02 -6.580653e-02 -6.077030e-02 -6.879691e-02 -6.273326e-02 -6.849982e-02 -6.123098e-02 -6.597918e-02 -6.012603e-02 -6.430619e-02 -5.926343e-02 -6.251544e-02 -5.902184e-02 -6.167378e-02 -5.921530e-02 -6.100952e-02 -6.053535e-02 -6.218059e-02 -6.351179e-02 -6.478361e-02 -6.852752e-02 -6.936071e-02 -7.387549e-02 -7.167357e-02 -6.725895e-02 -3.679130e-02 -1.341054e-01 -1.695435e-01 4.990454e-02 -4.490862e-02 -2.931332e-01 1.344153e-03 2.033534e-01 -2.444012e-01 -2.156969e-01 2.867945e-01 -3.809039e-03 -3.211731e-01 1.550325e-01 2.971425e-01 -2.043697e-01 -2.641720e-01 -7.846393e-02 -6.534877e-02 -6.257932e-02 -6.726623e-02 -6.566686e-02 -6.922924e-02 -6.686493e-02 -6.938740e-02 -6.780327e-02 -6.907907e-02 -6.662715e-02 -6.599851e-02 -6.369574e-02 -6.259811e-02 -6.015289e-02 -5.846186e-02 -5.623973e-02 -5.481786e-02 -5.218246e-02 -5.130749e-02 -4.946872e-02 -5.140950e-02 -4.969313e-02 -5.276655e-02 -5.059046e-02 -5.631110e-02 -5.409976e-02 -6.060402e-02 -5.698173e-02 -6.446658e-02 -6.024867e-02 -6.727287e-02 -6.207664e-02 -6.866032e-02 -6.383782e-02 -6.805344e-02 -6.293255e-02 -6.405316e-02 -6.122445e-02 -5.919601e-02 -5.988004e-02 -5.430720e-02 -6.023955e-02 -5.025402e-02 -6.185575e-02 -4.659038e-02 -6.528485e-02 -4.038109e-02 -1.319224e-01 -1.089460e-01 1.341951e-02 0 0 0 0 
0 0 0 0 0 0 0 0 0 0 0 0 0 4.823076e+01 5.225663e+01 4.941656e+01 5.132522e+01 5.099655e+01 4.964720e+01 5.265393e+01 4.764868e+01 0 0 0 0 0 0 0 0 0 0 0 0 0 0 0 0 0 0 0 0 0 0 0 0 0 0 0 0 0 0 0 0 0 0 0 -1.652525e-03 -1.949189e-02 -4.789989e-02 -3.713891e-02 -2.426389e-02 -5.254203e-02 -6.232791e-02 -4.088144e-02 -4.285573e-02 -6.586746e-02 -5.408287e-02 -3.298700e-02 -4.205521e-02 -5.366909e-02 -3.558223e-02 -9.961034e-03 -1.818595e-03 0 0 0 0 0 0 0 0 0 0 0 0 0 0 0 0 0 0 0 0 0 0 0 0 0 0 0 0 0 0 0 0 0 0 0 0 0 0 0 0 0 0 0 0 0 0 0 0 0 0 0 0 0 0 0 
0 0 0 0 0 0 0 0 0 0 0 0 0 4.814295e+01 4.999574e+01 4.836876e+01 4.924233e+01 4.897369e+01 4.857175e+01 4.974202e+01 4.820821e+01 0 0 0 0 0 0 0 0 0 0 0 0 0 0 0 0 0 0 0 0 0 0 0 0 0 0 0 0 0 0 0 0 0 0 0 5.376141e-03 2.763724e-02 3.615120e-02 2.718692e-02 3.433881e-02 4.149847e-02 3.895768e-02 4.068299e-02 4.706952e-02 4.523364e-02 4.560607e-02 4.675476e-02 4.522313e-02 5.181938e-02 5.011007e-02 2.322513e-02 1.205888e-03 0 0 0 0 0 0 0 0 0 0 0 0 0 0 0 0 0 0 0 0 0 0 0 0 0 0 0 0 0 0 0 0 0 0 0 0 0 0 0 0 0 0 0 0 0 0 0 0 0 0 0 0 0 0 0 
0 0 0 0 0 0 0 0 0 0 0 0 0 5.061457e+01 5.283891e+01 5.104372e+01 5.194907e+01 5.191278e+01 5.100392e+01 5.287149e+01 5.037171e+01 0 0 0 0 0 0 0 0 0 0 0 0 0 0 0 0 0 0 0 0 0 0 0 0 0 0 0 0 0 0 0 0 0 0 0 1.325496e-03 7.345629e-03 1.179708e-02 9.666624e-03 1.053137e-02 1.477035e-02 1.527623e-02 1.332678e-02 1.542568e-02 1.740804e-02 1.564088e-02 1.319312e-02 1.333729e-02 1.732234e-02 1.551502e-02 6.175009e-03 3.588425e-04 0 0 0 0 0 0 0 0 0 0 0 0 0 0 0 0 0 0 0 0 0 0 0 0 0 0 0 0 0 0 0 0 0 0 0 0 0 0 0 0 0 0 0 0 0 0 0 0 0 0 0 0 0 0 0 
0 0 0 0 0 0 0 0 0 0 0 0 0 4.814009e+01 4.998607e+01 4.836299e+01 4.923036e+01 4.896251e+01 4.855746e+01 4.972423e+01 4.819516e+01 0 0 0 0 0 0 0 0 0 0 0 0 0 0 0 0 0 0 0 0 0 0 0 0 0 0 0 0 0 0 0 0 0 0 0 0 0 0 0 0 0 0 0 0 0 0 0 0 0 0 0 0 0 0 0 0 0 0 0 0 0 0 0 0 0 0 0 0 0 0 0 0 0 0 0 0 0 0 0 0 0 0 0 0 0 0 0 0 0 0 0 0 0 0 0 0 0 0 0 0 0 0 0 0 0 0 0 
0 0 0 0 0 0 0 0 0 0 0 0 0 4.825487e+01 5.224911e+01 4.942670e+01 5.130970e+01 5.098596e+01 4.962392e+01 5.261922e+01 4.762424e+01 0 0 0 0 0 0 0 0 0 0 0 0 0 0 0 0 0 0 0 0 0 0 0 0 0 0 0 0 0 0 0 0 0 0 0 0 0 0 0 0 0 0 0 0 0 0 0 0 0 0 0 0 0 0 0 0 0 0 0 0 0 0 0 0 0 0 0 0 0 0 0 0 0 0 0 0 0 0 0 0 0 0 0 0 0 0 0 0 0 0 0 0 0 0 0 0 0 0 0 0 0 0 0 0 0 0 0 
0 0 0 0 0 8.650171e-02 -1.735049e-01 -1.370522e-01 -2.525760e-02 -7.474794e-02 -3.774797e-02 -6.857321e-02 1.005935e-01 4.421663e+01 4.825806e+01 4.536546e+01 4.740183e+01 4.681681e+01 4.581434e+01 4.839515e+01 4.383680e+01 6.437565e-02 -5.980163e-02 -5.626982e-02 -6.182679e-02 -5.631844e-02 -6.088465e-02 -5.482183e-02 -6.050843e-02 -5.398070e-02 -5.988557e-02 -5.287083e-02 -5.951230e-02 -5.337723e-02 -6.099304e-02 -5.585574e-02 -6.356999e-02 -5.913697e-02 -6.641228e-02 -6.331756e-02 -7.071686e-02 -6.941081e-02 -7.571657e-02 -7.437802e-02 -7.793302e-02 -7.640726e-02 -7.826975e-02 -7.779614e-02 -7.820485e-02 -7.796236e-02 -7.611339e-02 -7.568115e-02 -7.209353e-02 -7.246804e-02 -6.877524e-02 -7.036816e-02 -6.623641e-02 -6.804378e-02 -6.445746e-02 -6.729764e-02 -6.569664e-02 -7.012940e-02 -6.840892e-02 -7.098843e-02 -7.077930e-02 -7.319823e-02 -7.132917e-02 -7.387962e-02 -7.441125e-02 -7.404839e-02 -7.218434e-02 -7.208524e-02 -7.023464e-02 -6.714740e-02 -6.480563e-02 -6.078159e-02 -5.870805e-02 -5.542411e-02 -5.403880e-02 -5.131649e-02 -5.000677e-02 -4.800719e-02 -4.704079e-02 -4.616369e-02 -4.620211e-02 -4.704969e-02 -4.822181e-02 -4.959495e-02 -5.099669e-02 -5.257469e-02 -5.479895e-02 -5.552736e-02 -5.704873e-02 -5.564700e-02 -5.735255e-02 -5.488481e-02 -5.777315e-02 -5.425997e-02 -5.764423e-02 -5.145496e-02 -5.403288e-02 -4.609993e-02 -5.022476e-02 -4.322714e-02 -4.901634e-02 -4.272514e-02 -4.869589e-02 -4.350426e-02 -4.896105e-02 -4.625396e-02 -5.072219e-02 -5.126081e-02 -5.266189e-02 -5.652522e-02 -5.419799e-02 -6.334005e-02 -5.657418e-02 -7.046717e-02 -5.607969e-02 -7.405621e-02 -4.793295e-02 -1.369912e-01 -1.109353e-01 1.323824e-02 0 0 0 0 
0 0 0 0 0 1.941192e+00 -3.905906e+00 -3.089671e+00 -5.682770e-01 -1.673308e+00 -8.415336e-01 -1.534127e+00 2.262988e+00 3.875985e+01 4.829551e+01 4.357125e+01 5.076688e+01 4.697087e+01 4.671150e+01 5.248526e+01 3.439880e+01 1.447582e+00 -1.344490e+00 -1.265244e+00 -1.390336e+00 -1.266600e+00 -1.369330e+00 -1.233029e+00 -1.360859e+00 -1.214038e+00 -1.346721e+00 -1.188916e+00 -1.338141e+00 -1.200113e+00 -1.371248e+00 -1.255684e+00 -1.429057e+00 -1.329360e+00 -1.492886e+00 -1.423298e+00 -1.589620e+00 -1.560255e+00 -1.701992e+00 -1.671903e+00 -1.751799e+00 -1.717502e+00 -1.759346e+00 -1.748690e+00 -1.757840e+00 -1.752368e+00 -1.710762e+00 -1.701023e+00 -1.620348e+00 -1.628743e+00 -1.545708e+00 -1.581485e+00 -1.488590e+00 -1.529188e+00 -1.448573e+00 -1.512391e+00 -1.476403e+00 -1.576006e+00 -1.537326e+00 -1.595265e+00 -1.590542e+00 -1.644860e+00 -1.602834e+00 -1.660107e+00 -1.672037e+00 -1.663867e+00 -1.621973e+00 -1.619734e+00 -1.578140e+00 -1.508748e+00 -1.456113e+00 -1.365676e+00 -1.319075e+00 -1.245284e+00 -1.214154e+00 -1.152995e+00 -1.123569e+00 -1.078650e+00 -1.056936e+00 -1.037228e+00 -1.038084e+00 -1.057119e+00 -1.083443e+00 -1.114286e+00 -1.145768e+00 -1.181206e+00 -1.231157e+00 -1.247487e+00 -1.281642e+00 -1.250110e+00 -1.288405e+00 -1.232934e+00 -1.297815e+00 -1.218883e+00 -1.294935e+00 -1.155941e+00 -1.213927e+00 -1.035834e+00 -1.128616e+00 -9.715821e-01 -1.101768e+00 -9.606125e-01 -1.094837e+00 -9.783340e-01 -1.100905e+00 -1.040101e+00 -1.140323e+00 -1.152275e+00 -1.183477e+00 -1.269996e+00 -1.217411e+00 -1.422553e+00 -1.270580e+00 -1.583399e+00 -1.263374e+00 -1.678380e+00 -1.131720e+00 -3.141992e+00 -2.514015e+00 2.969565e-01 0 0 0 0 
0 0 0 0 0 2.809864e+00 -5.656893e+00 -4.475855e+00 -8.229510e-01 -2.421058e+00 -1.216699e+00 -2.219438e+00 3.277075e+00 1.101881e+01 1.420480e+01 1.182073e+01 1.493512e+01 1.280653e+01 1.359024e+01 1.465906e+01 1.033917e+01 2.096109e+00 -1.946771e+00 -1.832066e+00 -2.013235e+00 -1.834095e+00 -1.982862e+00 -1.785506e+00 -1.970593e+00 -1.757986e+00 -1.950089e+00 -1.721568e+00 -1.937618e+00 -1.737733e+00 -1.985509e+00 -1.818160e+00 -2.069181e+00 -1.924815e+00 -2.161585e+00 -2.060822e+00 -2.301640e+00 -2.259121e+00 -2.464343e+00 -2.420776e+00 -2.536455e+00 -2.486795e+00 -2.547377e+00 -2.531945e+00 -2.545184e+00 -2.537256e+00 -2.477003e+00 -2.462896e+00 -2.346078e+00 -2.358227e+00 -2.237993e+00 -2.289787e+00 -2.155278e+00 -2.214053e+00 -2.097329e+00 -2.189726e+00 -2.137618e+00 -2.281825e+00 -2.225819e+00 -2.309697e+00 -2.302853e+00 -2.381487e+00 -2.320634e+00 -2.403546e+00 -2.420815e+00 -2.408981e+00 -2.348324e+00 -2.345080e+00 -2.284856e+00 -2.184384e+00 -2.108174e+00 -1.977233e+00 -1.909760e+00 -1.802924e+00 -1.757854e+00 -1.669309e+00 -1.626706e+00 -1.561674e+00 -1.530235e+00 -1.501703e+00 -1.502941e+00 -1.530497e+00 -1.568605e+00 -1.613258e+00 -1.658835e+00 -1.710137e+00 -1.782451e+00 -1.806084e+00 -1.855526e+00 -1.809864e+00 -1.865303e+00 -1.784985e+00 -1.878916e+00 -1.764638e+00 -1.874750e+00 -1.673532e+00 -1.757501e+00 -1.499695e+00 -1.634051e+00 -1.406745e+00 -1.595257e+00 -1.390942e+00 -1.585290e+00 -1.416654e+00 -1.594104e+00 -1.506076e+00 -1.651134e+00 -1.668400e+00 -1.713504e+00 -1.838695e+00 -1.762487e+00 -2.059425e+00 -1.839409e+00 -2.292479e+00 -1.829967e+00 -2.433632e+00 -1.652404e+00 -4.565237e+00 -3.645252e+00 4.298114e-01 0 0 0 0 
0 0 0 0 0 9.551737e-01 -1.924492e+00 -1.523237e+00 -2.799316e-01 -8.224978e-01 -4.129138e-01 -7.538843e-01 1.114680e+00 3.746920e+00 4.830076e+00 4.019423e+00 5.078424e+00 4.354664e+00 4.621394e+00 4.985019e+00 3.516217e+00 7.129028e-01 -6.620825e-01 -6.230916e-01 -6.847251e-01 -6.238140e-01 -6.744172e-01 -6.072988e-01 -6.702430e-01 -5.979294e-01 -6.632530e-01 -5.855229e-01 -6.589887e-01 -5.909976e-01 -6.752534e-01 -6.183315e-01 -7.036941e-01 -6.545923e-01 -7.351110e-01 -7.008409e-01 -7.827373e-01 -7.682767e-01 -8.380673e-01 -8.232511e-01 -8.625890e-01 -8.457008e-01 -8.663005e-01 -8.610512e-01 -8.655491e-01 -8.628505e-01 -8.423541e-01 -8.375538e-01 -7.978230e-01 -8.019518e-01 -7.610595e-01 -7.786699e-01 -7.329239e-01 -7.529086e-01 -7.132135e-01 -7.446325e-01 -7.269116e-01 -7.759485e-01 -7.569012e-01 -7.854209e-01 -7.830905e-01 -8.098254e-01 -7.891290e-01 -8.173187e-01 -8.231891e-01 -8.191627e-01 -7.985354e-01 -7.974310e-01 -7.769507e-01 -7.427830e-01 -7.168664e-01 -6.723383e-01 -6.493933e-01 -6.130641e-01 -5.977380e-01 -5.676301e-01 -5.531435e-01 -5.310311e-01 -5.203408e-01 -5.106386e-01 -5.110585e-01 -5.204275e-01 -5.333845e-01 -5.485670e-01 -5.640635e-01 -5.815059e-01 -6.060926e-01 -6.141245e-01 -6.309331e-01 -6.154017e-01 -6.342499e-01 -6.069355e-01 -6.388739e-01 -6.000153e-01 -6.374591e-01 -5.690457e-01 -5.976065e-01 -5.099604e-01 -5.556596e-01 -4.783901e-01 -5.425054e-01 -4.730545e-01 -5.391494e-01 -4.818241e-01 -5.421600e-01 -5.122294e-01 -5.615337e-01 -5.673864e-01 -5.826894e-01 -6.252244e-01 -5.992740e-01 -7.002122e-01 -6.254035e-01 -7.795469e-01 -6.226731e-01 -8.293081e-01 -5.686161e-01 -1.560237e+00 -1.242172e+00 1.460931e-01 0 0 0 0 
0 0 0 0 0 0 0 0 0 0 0 0 0 0 0 0 0 0 0 0 0 0 0 0 0 0 0 0 0 0 0 0 0 0 0 0 0 0 0 0 0 0 0 0 0 0 0 0 0 0 0 0 0 0 0 0 0 0 0 0 0 0 0 0 0 0 0 0 0 0 0 0 0 0 0 0 0 0 0 0 0 0 0 0 0 0 0 0 0 0 0 0 0 0 0 0 0 0 0 0 0 0 0 0 0 0 0 0 0 0 0 0 0 0 0 0 0 0 0 0 0 0 0 0 0 0 0 0 
