# vtk DataFile Version 2.0
Comment goes here
ASCII

DATASET STRUCTURED_POINTS
FIELD FieldData 1
TIME 1 1 double
0.94000000
DIMENSIONS    128   16   1

ORIGIN    0.000   0.000   0.000
SPACING   0.0078125 0.015625   1.000

POINT_DATA   2048
SCALARS fX double
LOOKUP_TABLE default

0 0 0 0 0 0 0 0 0 0 0 0 0 0 0 0 0 0 0 0 0 0 0 0 0 0 0 0 0 0 0 0 0 0 0 0 0 0 0 0 0 0 0 0 0 0 0 0 0 0 0 0 0 0 0 0 0 0 0 0 0 0 0 0 0 0 0 0 0 0 0 0 0 0 0 0 0 0 0 0 0 0 0 0 0 0 0 0 0 0 0 0 0 0 0 0 0 0 0 0 0 0 0 0 0 0 0 0 0 0 0 0 0 0 0 0 0 0 0 0 0 0 0 0 0 0 0 0 
0 0 0 0 0 0 0 0 0 0 0 0 0 0 0 0 0 0 0 0 0 0 0 0 0 0 0 0 0 0 0 0 0 0 0 0 0 0 0 0 0 0 0 0 0 0 0 0 0 0 0 0 0 0 0 0 0 0 0 0 0 0 0 0 0 0 0 0 0 0 0 0 0 0 0 0 0 0 0 0 0 0 0 0 0 0 0 0 0 0 0 0 0 0 0 0 0 0 0 0 0 0 0 0 0 0 0 0 0 0 0 0 0 0 0 0 0 0 0 0 0 0 0 0 0 0 0 0 
0 0 0 0 0 -1.007992e+00 1.992503e+00 1.571036e+00 3.262630e-01 8.735097e-01 4.607341e-01 7.913362e-01 -1.066107e+00 -3.732522e+00 -4.885900e+00 -4.021811e+00 -5.103018e+00 -4.372284e+00 -4.632107e+00 -4.994827e+00 -3.523571e+00 -7.438763e-01 6.405010e-01 5.935539e-01 6.617495e-01 6.125854e-01 6.805383e-01 6.224534e-01 6.931165e-01 6.274105e-01 7.002437e-01 6.301514e-01 7.025663e-01 6.315945e-01 7.004039e-01 6.323845e-01 6.943689e-01 6.327275e-01 6.856488e-01 6.329119e-01 6.751491e-01 6.333374e-01 6.639863e-01 6.337300e-01 6.535930e-01 6.340130e-01 6.445038e-01 6.338964e-01 6.364711e-01 6.324871e-01 6.285733e-01 6.263740e-01 6.176547e-01 6.114208e-01 5.935520e-01 5.474965e-01 2.882088e-01 -1.471558e+00 -2.306857e+00 9.640511e-01 1.590440e+00 -3.830693e-01 6.625930e-01 1.212840e+00 1.237029e+00 1.625289e+00 2.865294e-01 1.140345e+00 3.358392e+00 2.061048e+00 -1.264045e-01 1.662106e+00 2.574569e+00 1.105145e+00 6.877367e-01 6.723671e-01 6.991987e-01 6.820944e-01 7.048782e-01 6.871904e-01 7.083544e-01 6.911632e-01 7.100333e-01 6.931922e-01 7.095814e-01 6.931351e-01 7.073889e-01 6.912418e-01 7.039197e-01 6.884968e-01 7.009613e-01 6.856118e-01 6.996928e-01 6.830695e-01 7.008784e-01 6.813364e-01 7.048612e-01 6.800038e-01 7.112361e-01 6.789000e-01 7.186088e-01 6.781568e-01 7.255279e-01 6.776336e-01 7.299543e-01 6.777768e-01 7.298893e-01 6.790933e-01 7.239887e-01 6.828550e-01 7.113003e-01 6.902348e-01 6.923677e-01 7.029536e-01 6.682927e-01 7.224441e-01 6.409576e-01 7.510751e-01 6.128447e-01 8.020607e-01 5.798283e-01 1.451893e+00 1.154165e+00 -2.891069e-02 0 0 0 0 
0 0 0 0 0 -2.964370e+00 5.863046e+00 4.623449e+00 9.588765e-01 2.566872e+00 1.352623e+00 2.325200e+00 -3.137464e+00 -1.098046e+01 -1.437260e+01 -1.183075e+01 -1.501123e+01 -1.286176e+01 -1.362675e+01 -1.469431e+01 -1.036671e+01 -2.188642e+00 1.884503e+00 1.746422e+00 1.947103e+00 1.802475e+00 2.002414e+00 1.831512e+00 2.039399e+00 1.846055e+00 2.060312e+00 1.854055e+00 2.067079e+00 1.858240e+00 2.060662e+00 1.860522e+00 2.042874e+00 1.861512e+00 2.017208e+00 1.862055e+00 1.986322e+00 1.863317e+00 1.953490e+00 1.864481e+00 1.922917e+00 1.865315e+00 1.896171e+00 1.864961e+00 1.872522e+00 1.860794e+00 1.849262e+00 1.842781e+00 1.817110e+00 1.798758e+00 1.746168e+00 1.610662e+00 8.344997e-01 -4.267519e+00 -5.940326e+00 4.214268e+00 5.252784e+00 -1.279462e+00 1.651929e+00 3.145385e+00 3.100929e+00 3.463339e+00 -9.121112e-01 2.308004e+00 8.308515e+00 2.637713e+00 -2.953079e+00 4.487128e+00 7.582114e+00 3.250963e+00 2.023086e+00 1.977882e+00 2.056816e+00 2.006503e+00 2.073524e+00 2.021493e+00 2.083745e+00 2.033172e+00 2.088672e+00 2.039126e+00 2.087325e+00 2.038938e+00 2.080854e+00 2.033346e+00 2.070628e+00 2.025250e+00 2.061907e+00 2.016746e+00 2.058163e+00 2.009259e+00 2.061648e+00 2.004165e+00 2.073376e+00 2.000267e+00 2.092161e+00 1.997067e+00 2.113907e+00 1.994954e+00 2.134341e+00 1.993509e+00 2.147456e+00 1.994026e+00 2.147346e+00 1.997964e+00 2.130020e+00 2.009024e+00 2.092643e+00 2.030629e+00 2.036800e+00 2.067846e+00 1.965764e+00 2.124956e+00 1.885202e+00 2.209212e+00 1.803215e+00 2.362053e+00 1.716164e+00 4.282885e+00 3.398880e+00 -8.501277e-02 0 0 0 0 
0 0 0 0 0 -2.047510e+00 4.051273e+00 3.195018e+00 6.620022e-01 1.771985e+00 9.331340e-01 1.605055e+00 -2.168127e+00 -3.880057e+01 -4.875873e+01 -4.380350e+01 -5.108145e+01 -4.722593e+01 -4.686168e+01 -5.267492e+01 -3.442272e+01 -1.512195e+00 1.302063e+00 1.206682e+00 1.345355e+00 1.245439e+00 1.383586e+00 1.265503e+00 1.409129e+00 1.275530e+00 1.423550e+00 1.281027e+00 1.428194e+00 1.283889e+00 1.423734e+00 1.285445e+00 1.411428e+00 1.286120e+00 1.393690e+00 1.286495e+00 1.372353e+00 1.287372e+00 1.349674e+00 1.288181e+00 1.328553e+00 1.288757e+00 1.310072e+00 1.288508e+00 1.293725e+00 1.285618e+00 1.277642e+00 1.273160e+00 1.255414e+00 1.242730e+00 1.206386e+00 1.112761e+00 5.781253e-01 -2.789593e+00 -2.813438e+00 4.878157e+00 4.541442e+00 -1.934767e-01 2.120081e+00 2.728719e+00 2.710579e+00 2.635057e+00 -7.023448e-01 1.912747e+00 5.786730e+00 7.421483e-01 -2.677080e+00 3.502217e+00 5.403060e+00 2.245887e+00 1.397622e+00 1.366398e+00 1.420931e+00 1.386174e+00 1.432474e+00 1.396529e+00 1.439532e+00 1.404593e+00 1.442930e+00 1.408700e+00 1.441991e+00 1.408560e+00 1.437511e+00 1.404686e+00 1.430436e+00 1.399083e+00 1.424402e+00 1.393200e+00 1.421810e+00 1.388024e+00 1.424216e+00 1.384506e+00 1.432324e+00 1.381824e+00 1.445317e+00 1.379636e+00 1.460368e+00 1.378212e+00 1.474524e+00 1.377259e+00 1.483630e+00 1.377662e+00 1.483592e+00 1.380415e+00 1.471639e+00 1.388053e+00 1.445792e+00 1.402928e+00 1.407141e+00 1.428544e+00 1.357963e+00 1.467888e+00 1.302233e+00 1.526112e+00 1.245939e+00 1.633085e+00 1.190681e+00 2.964550e+00 2.349876e+00 -5.871419e-02 0 0 0 0 
0 0 0 0 0 -9.113202e-02 1.807306e-01 1.426053e-01 2.938870e-02 7.862233e-02 4.124535e-02 7.119113e-02 -9.676976e-02 -4.443044e+01 -4.861927e+01 -4.559297e+01 -4.769884e+01 -4.705440e+01 -4.606310e+01 -4.863047e+01 -4.405543e+01 -6.742928e-02 5.806090e-02 5.381375e-02 6.000147e-02 5.554916e-02 6.171002e-02 5.644417e-02 6.284614e-02 5.688607e-02 6.348217e-02 5.712335e-02 6.368112e-02 5.724349e-02 6.347552e-02 5.730760e-02 6.292281e-02 5.733532e-02 6.213075e-02 5.735209e-02 6.118011e-02 5.739240e-02 6.017017e-02 5.742961e-02 5.922920e-02 5.745542e-02 5.840464e-02 5.744299e-02 5.767387e-02 5.731161e-02 5.695389e-02 5.675286e-02 5.595940e-02 5.539256e-02 5.376997e-02 4.959513e-02 3.140366e-02 -1.375869e-02 9.262094e-01 1.861125e+00 8.926002e-01 8.208399e-01 1.467273e+00 9.805705e-01 1.078596e+00 1.195916e+00 9.153727e-01 1.052277e+00 1.223442e+00 7.729479e-01 6.833349e-01 9.327225e-01 4.526335e-01 1.000698e-01 6.227337e-02 6.088314e-02 6.331352e-02 6.176517e-02 6.382799e-02 6.222642e-02 6.414184e-02 6.258481e-02 6.429181e-02 6.276597e-02 6.424783e-02 6.275732e-02 6.404564e-02 6.258196e-02 6.372774e-02 6.232965e-02 6.345661e-02 6.206547e-02 6.333962e-02 6.183376e-02 6.344652e-02 6.167753e-02 6.380926e-02 6.156077e-02 6.439217e-02 6.146899e-02 6.506982e-02 6.141459e-02 6.571060e-02 6.138367e-02 6.612785e-02 6.141343e-02 6.613612e-02 6.154410e-02 6.560743e-02 6.188380e-02 6.444935e-02 6.253378e-02 6.270870e-02 6.365090e-02 6.049108e-02 6.537626e-02 5.798921e-02 6.797468e-02 5.556857e-02 7.309276e-02 5.434587e-02 1.335571e-01 1.051610e-01 -2.612102e-03 0 0 0 0 
0 0 0 0 0 0 0 0 0 0 0 0 0 -4.848083e+01 -5.257705e+01 -4.967243e+01 -5.159229e+01 -5.124284e+01 -4.985775e+01 -5.287828e+01 -4.782748e+01 0 0 0 0 0 0 0 0 0 0 0 0 0 0 0 0 0 0 0 0 0 0 0 0 0 0 0 0 0 0 0 0 0 0 0 9.174783e-04 -3.777940e-02 8.667784e-03 1.589393e-01 8.416938e-03 2.887332e-02 2.423560e-01 1.366542e-01 1.432493e-01 2.927845e-01 3.392007e-01 2.352168e-01 2.611695e-01 4.610607e-01 4.528066e-01 2.403278e-01 5.929292e-02 0 0 0 0 0 0 0 0 0 0 0 0 0 0 0 0 0 0 0 0 0 0 0 0 0 0 0 0 0 0 0 0 0 0 0 0 0 0 0 0 0 0 0 0 0 0 0 0 0 0 0 0 0 0 0 
0 0 0 0 0 0 0 0 0 0 0 0 0 -4.840221e+01 -5.022485e+01 -4.862852e+01 -4.947623e+01 -4.924242e+01 -4.880104e+01 -5.003289e+01 -4.843886e+01 0 0 0 0 0 0 0 0 0 0 0 0 0 0 0 0 0 0 0 0 0 0 0 0 0 0 0 0 0 0 0 0 0 0 0 2.535495e-03 -5.052749e-03 -9.244760e-02 -6.876107e-02 1.915113e-02 -9.715807e-02 -1.187259e-01 -5.373868e-02 -1.129207e-01 -1.557518e-01 -1.260622e-01 -1.080964e-01 -1.761845e-01 -2.284821e-01 -1.587966e-01 -4.955750e-02 -3.147432e-03 0 0 0 0 0 0 0 0 0 0 0 0 0 0 0 0 0 0 0 0 0 0 0 0 0 0 0 0 0 0 0 0 0 0 0 0 0 0 0 0 0 0 0 0 0 0 0 0 0 0 0 0 0 0 0 
0 0 0 0 0 0 0 0 0 0 0 0 0 -5.087922e+01 -5.307545e+01 -5.131070e+01 -5.218974e+01 -5.218906e+01 -5.123453e+01 -5.317125e+01 -5.059639e+01 0 0 0 0 0 0 0 0 0 0 0 0 0 0 0 0 0 0 0 0 0 0 0 0 0 0 0 0 0 0 0 0 0 0 0 1.187212e-03 1.259985e-02 5.063147e-03 5.484345e-03 2.423600e-02 -8.107732e-03 -2.455351e-02 -5.995937e-03 -2.425225e-02 -4.962727e-02 -4.618602e-02 -3.612500e-02 -5.051786e-02 -8.207866e-02 -7.786290e-02 -3.435757e-02 -5.321794e-03 0 0 0 0 0 0 0 0 0 0 0 0 0 0 0 0 0 0 0 0 0 0 0 0 0 0 0 0 0 0 0 0 0 0 0 0 0 0 0 0 0 0 0 0 0 0 0 0 0 0 0 0 0 0 0 
0 0 0 0 0 0 0 0 0 0 0 0 0 -4.840251e+01 -5.022174e+01 -4.862751e+01 -4.947365e+01 -4.923854e+01 -4.880037e+01 -5.002604e+01 -4.844038e+01 0 0 0 0 0 0 0 0 0 0 0 0 0 0 0 0 0 0 0 0 0 0 0 0 0 0 0 0 0 0 0 0 0 0 0 0 0 0 0 0 0 0 0 0 0 0 0 0 0 0 0 0 0 0 0 0 0 0 0 0 0 0 0 0 0 0 0 0 0 0 0 0 0 0 0 0 0 0 0 0 0 0 0 0 0 0 0 0 0 0 0 0 0 0 0 0 0 0 0 0 0 0 0 0 0 0 0 
0 0 0 0 0 0 0 0 0 0 0 0 0 -4.848525e+01 -5.256415e+01 -4.967663e+01 -5.158075e+01 -5.123550e+01 -4.985848e+01 -5.285258e+01 -4.784230e+01 0 0 0 0 0 0 0 0 0 0 0 0 0 0 0 0 0 0 0 0 0 0 0 0 0 0 0 0 0 0 0 0 0 0 0 0 0 0 0 0 0 0 0 0 0 0 0 0 0 0 0 0 0 0 0 0 0 0 0 0 0 0 0 0 0 0 0 0 0 0 0 0 0 0 0 0 0 0 0 0 0 0 0 0 0 0 0 0 0 0 0 0 0 0 0 0 0 0 0 0 0 0 0 0 0 0 0 
0 0 0 0 0 -9.106691e-02 1.804974e-01 1.420056e-01 2.871936e-02 7.788981e-02 4.058578e-02 7.053908e-02 -9.714457e-02 -4.443483e+01 -4.860572e+01 -4.559622e+01 -4.768568e+01 -4.704317e+01 -4.606003e+01 -4.859585e+01 -4.406347e+01 -6.700967e-02 5.894876e-02 5.475477e-02 6.084692e-02 5.630379e-02 6.224459e-02 5.679171e-02 6.292622e-02 5.675090e-02 6.311679e-02 5.660578e-02 6.304578e-02 5.658052e-02 6.286383e-02 5.677355e-02 6.265250e-02 5.720521e-02 6.244954e-02 5.784357e-02 6.225735e-02 5.861861e-02 6.204907e-02 5.942969e-02 6.178717e-02 6.016950e-02 6.143997e-02 6.075646e-02 6.099855e-02 6.115188e-02 6.048267e-02 6.136003e-02 5.993445e-02 6.140094e-02 5.937229e-02 6.130460e-02 5.885430e-02 6.109448e-02 5.816143e-02 6.207644e-02 6.051225e-02 6.323330e-02 6.149423e-02 6.475803e-02 6.291811e-02 6.604982e-02 6.351544e-02 6.605903e-02 6.549163e-02 6.600058e-02 6.388173e-02 6.472191e-02 6.470814e-02 6.385632e-02 6.387438e-02 6.273332e-02 6.311502e-02 6.191294e-02 6.256802e-02 6.144964e-02 6.226800e-02 6.131933e-02 6.222116e-02 6.147587e-02 6.241201e-02 6.185077e-02 6.279676e-02 6.234407e-02 6.331066e-02 6.283170e-02 6.387620e-02 6.318684e-02 6.441808e-02 6.330716e-02 6.487763e-02 6.313210e-02 6.522238e-02 6.266979e-02 6.544401e-02 6.199908e-02 6.554857e-02 6.125164e-02 6.554493e-02 6.059892e-02 6.542471e-02 6.021969e-02 6.515241e-02 6.026970e-02 6.465679e-02 6.085377e-02 6.384750e-02 6.202251e-02 6.263818e-02 6.376770e-02 6.098001e-02 6.606168e-02 5.890452e-02 6.902751e-02 5.664582e-02 7.420359e-02 5.525506e-02 1.342984e-01 1.053976e-01 -2.551392e-03 0 0 0 0 
0 0 0 0 0 -2.046043e+00 4.046100e+00 3.181666e+00 6.470473e-01 1.755571e+00 9.183473e-01 1.590436e+00 -2.176517e+00 -3.880578e+01 -4.872590e+01 -4.385693e+01 -5.101800e+01 -4.723937e+01 -4.685807e+01 -5.255177e+01 -3.450660e+01 -1.502682e+00 1.322066e+00 1.227860e+00 1.364380e+00 1.262415e+00 1.395618e+00 1.273330e+00 1.410948e+00 1.272513e+00 1.415363e+00 1.269421e+00 1.413944e+00 1.269017e+00 1.410012e+00 1.273463e+00 1.405365e+00 1.283203e+00 1.400849e+00 1.297532e+00 1.396538e+00 1.314904e+00 1.391856e+00 1.333085e+00 1.385980e+00 1.349688e+00 1.378213e+00 1.362888e+00 1.368356e+00 1.371815e+00 1.356849e+00 1.376556e+00 1.344621e+00 1.377546e+00 1.332075e+00 1.375448e+00 1.320507e+00 1.370785e+00 1.305001e+00 1.392856e+00 1.357778e+00 1.418846e+00 1.379840e+00 1.453092e+00 1.411822e+00 1.482117e+00 1.425264e+00 1.482367e+00 1.469651e+00 1.481096e+00 1.433565e+00 1.452441e+00 1.452146e+00 1.433046e+00 1.433464e+00 1.407868e+00 1.416447e+00 1.389477e+00 1.404194e+00 1.379102e+00 1.397487e+00 1.376205e+00 1.396469e+00 1.379755e+00 1.400793e+00 1.388214e+00 1.409474e+00 1.399334e+00 1.421054e+00 1.410325e+00 1.433789e+00 1.418338e+00 1.445985e+00 1.421068e+00 1.456317e+00 1.417143e+00 1.464039e+00 1.406724e+00 1.468944e+00 1.391560e+00 1.471147e+00 1.374591e+00 1.470846e+00 1.359683e+00 1.467886e+00 1.350902e+00 1.461545e+00 1.351838e+00 1.450327e+00 1.364955e+00 1.432303e+00 1.391468e+00 1.405571e+00 1.431180e+00 1.368953e+00 1.483290e+00 1.322799e+00 1.549766e+00 1.270149e+00 1.658072e+00 1.211231e+00 2.981349e+00 2.355241e+00 -5.734949e-02 0 0 0 0 
0 0 0 0 0 -2.962246e+00 5.855573e+00 4.604148e+00 9.372460e-01 2.543120e+00 1.331223e+00 2.304043e+00 -3.149602e+00 -1.099631e+01 -1.436366e+01 -1.185775e+01 -1.498669e+01 -1.286633e+01 -1.362129e+01 -1.464660e+01 -1.037549e+01 -2.174847e+00 1.913477e+00 1.777093e+00 1.974655e+00 1.827058e+00 2.019840e+00 1.842848e+00 2.042038e+00 1.841692e+00 2.048464e+00 1.837258e+00 2.046455e+00 1.836713e+00 2.040801e+00 1.843179e+00 2.034098e+00 1.857291e+00 2.027572e+00 1.878033e+00 2.021333e+00 1.903173e+00 2.014552e+00 1.929486e+00 2.006048e+00 1.953519e+00 1.994811e+00 1.972632e+00 1.980557e+00 1.985567e+00 1.963916e+00 1.992447e+00 1.946236e+00 1.993899e+00 1.928093e+00 1.990879e+00 1.911363e+00 1.984142e+00 1.888929e+00 2.016099e+00 1.965329e+00 2.053726e+00 1.997271e+00 2.103305e+00 2.043572e+00 2.145327e+00 2.063038e+00 2.145700e+00 2.127299e+00 2.143871e+00 2.075075e+00 2.102402e+00 2.101979e+00 2.074335e+00 2.074945e+00 2.037897e+00 2.050319e+00 2.011282e+00 2.032589e+00 1.996268e+00 2.022887e+00 1.992082e+00 2.021420e+00 1.997230e+00 2.027690e+00 2.009486e+00 2.040269e+00 2.025595e+00 2.057042e+00 2.041517e+00 2.075487e+00 2.053127e+00 2.093150e+00 2.057086e+00 2.108110e+00 2.051405e+00 2.119284e+00 2.036313e+00 2.126367e+00 2.014334e+00 2.129518e+00 1.989723e+00 2.129027e+00 1.968077e+00 2.124677e+00 1.955298e+00 2.115438e+00 1.956605e+00 2.099177e+00 1.975595e+00 2.073122e+00 2.014045e+00 2.034531e+00 2.071665e+00 1.981677e+00 2.147255e+00 1.914977e+00 2.243458e+00 1.838267e+00 2.398236e+00 1.745946e+00 4.307245e+00 3.406659e+00 -8.303680e-02 0 0 0 0 
0 0 0 0 0 -1.007270e+00 1.989970e+00 1.564488e+00 3.189181e-01 8.654388e-01 4.534612e-01 7.841461e-01 -1.070230e+00 -3.737908e+00 -4.882858e+00 -4.030983e+00 -5.094670e+00 -4.373825e+00 -4.630239e+00 -4.978594e+00 -3.526546e+00 -7.391747e-01 6.503602e-01 6.039874e-01 6.711221e-01 6.209470e-01 6.864665e-01 6.263104e-01 6.940165e-01 6.259293e-01 6.962178e-01 6.244424e-01 6.955562e-01 6.242772e-01 6.936531e-01 6.264891e-01 6.913860e-01 6.312929e-01 6.891724e-01 6.383444e-01 6.870518e-01 6.468877e-01 6.847457e-01 6.558300e-01 6.818550e-01 6.639997e-01 6.780381e-01 6.705005e-01 6.731986e-01 6.749042e-01 6.675506e-01 6.772515e-01 6.615495e-01 6.777537e-01 6.553907e-01 6.767351e-01 6.497107e-01 6.744513e-01 6.420897e-01 6.853190e-01 6.680633e-01 6.981134e-01 6.789249e-01 7.149706e-01 6.946678e-01 7.292599e-01 7.012896e-01 7.293920e-01 7.231388e-01 7.287754e-01 7.053912e-01 7.146834e-01 7.145412e-01 7.051461e-01 7.053549e-01 6.927622e-01 6.969867e-01 6.837171e-01 6.909622e-01 6.786162e-01 6.876673e-01 6.771967e-01 6.871729e-01 6.789510e-01 6.893092e-01 6.831229e-01 6.935910e-01 6.886053e-01 6.992988e-01 6.940238e-01 7.055741e-01 6.979754e-01 7.115829e-01 6.993250e-01 7.166706e-01 6.973942e-01 7.204674e-01 6.922586e-01 7.228665e-01 6.847731e-01 7.239201e-01 6.763830e-01 7.237262e-01 6.689927e-01 7.222152e-01 6.646153e-01 7.190463e-01 6.650367e-01 7.135066e-01 6.714932e-01 7.046664e-01 6.845988e-01 6.915981e-01 7.042536e-01 6.737040e-01 7.300269e-01 6.510823e-01 7.627199e-01 6.247644e-01 8.143676e-01 5.899706e-01 1.460194e+00 1.156816e+00 -2.823870e-02 0 0 0 0 
0 0 0 0 0 0 0 0 0 0 0 0 0 0 0 0 0 0 0 0 0 0 0 0 0 0 0 0 0 0 0 0 0 0 0 0 0 0 0 0 0 0 0 0 0 0 0 0 0 0 0 0 0 0 0 0 0 0 0 0 0 0 0 0 0 0 0 0 0 0 0 0 0 0 0 0 0 0 0 0 0 0 0 0 0 0 0 0 0 0 0 0 0 0 0 0 0 0 0 0 0 0 0 0 0 0 0 0 0 0 0 0 0 0 0 0 0 0 0 0 0 0 0 0 0 0 0 0 
