# vtk DataFile Version 2.0
Comment goes here
ASCII

DATASET STRUCTURED_POINTS
FIELD FieldData 1
TIME 1 1 double
0.18000000
DIMENSIONS    128   16   1

ORIGIN    0.000   0.000   0.000
SPACING   0.0078125 0.015625   1.000

POINT_DATA   2048
SCALARS fX double
LOOKUP_TABLE default

0 0 0 0 0 0 0 0 0 0 0 0 0 0 0 0 0 0 0 0 0 0 0 0 0 0 0 0 0 0 0 0 0 0 0 0 0 0 0 0 0 0 0 0 0 0 0 0 0 0 0 0 0 0 0 0 0 0 0 0 0 0 0 0 0 0 0 0 0 0 0 0 0 0 0 0 0 0 0 0 0 0 0 0 0 0 0 0 0 0 0 0 0 0 0 0 0 0 0 0 0 0 0 0 0 0 0 0 0 0 0 0 0 0 0 0 0 0 0 0 0 0 0 0 0 0 0 0 
0 0 0 0 0 0 0 0 0 0 0 0 0 0 0 0 0 0 0 0 0 0 0 0 0 0 0 0 0 0 0 0 0 0 0 0 0 0 0 0 0 0 0 0 0 0 0 0 0 0 0 0 0 0 0 0 0 0 0 0 0 0 0 0 0 0 0 0 0 0 0 0 0 0 0 0 0 0 0 0 0 0 0 0 0 0 0 0 0 0 0 0 0 0 0 0 0 0 0 0 0 0 0 0 0 0 0 0 0 0 0 0 0 0 0 0 0 0 0 0 0 0 0 0 0 0 0 0 
0 0 0 0 0 1.657240e+00 -2.297263e-01 -9.775897e-01 1.487999e-01 -4.623346e-01 5.520438e-02 -1.261251e-01 7.438940e-01 9.443307e-01 9.890345e-01 1.004445e+00 1.872025e+00 1.410703e+00 2.199185e+00 1.815936e+00 5.012909e-01 2.255108e-02 -5.838557e-01 5.014464e-01 8.332456e-01 1.769092e-03 -1.184782e+00 -8.591684e-01 1.664994e-01 6.907643e-01 1.586797e-03 -3.692962e-01 -1.506578e-01 1.071433e-01 -5.408509e-01 -9.982231e-01 -5.676588e-01 2.214327e-01 1.608844e-02 -6.100605e-01 -5.072208e-01 2.125958e-01 1.214419e-01 -7.787639e-01 -1.123435e+00 -5.398701e-01 -7.348911e-02 -2.986797e-01 -3.974216e-01 -1.380943e-01 -3.100682e-01 -1.262265e+00 -1.686872e+00 -9.662248e-01 -2.303763e-01 -5.690028e-01 -1.216487e+00 -2.369025e+00 -1.216290e+00 1.133595e+00 -1.879507e+00 -4.860340e+00 -5.652660e-01 1.539603e+00 -4.362893e+00 -3.482416e+00 3.037688e+00 -1.169766e+00 -6.099445e+00 -4.085518e-01 2.232814e+00 -3.050099e+00 -3.158807e+00 -2.571216e-01 6.652213e-02 1.201618e-01 -2.881222e-01 -4.956911e-01 -4.490636e-01 -4.711614e-01 -4.986759e-01 -1.198928e-01 2.120895e-01 2.194161e-01 2.450029e-01 2.568351e-01 4.504035e-02 -1.156881e-01 6.716857e-02 1.864822e-01 1.101897e-01 1.042114e-01 4.285571e-01 7.804834e-01 8.312370e-01 6.740344e-01 6.237279e-01 5.448663e-01 1.144483e-01 -1.777888e-01 1.040909e-01 7.936881e-01 8.305199e-01 3.111292e-01 -2.073740e-01 -5.928208e-02 5.391335e-02 2.986320e-01 4.123324e-01 6.031340e-01 2.539795e-01 -9.149797e-02 -2.344658e-01 2.696642e-01 6.843887e-01 7.871483e-01 5.623126e-01 2.990100e-01 1.029967e-01 2.734770e-02 1.981870e-01 -2.347390e-01 4.385083e-01 3.201585e-01 0 0 0 0 
0 0 0 0 0 4.873928e+00 -6.822850e-01 -2.886827e+00 4.305550e-01 -1.362373e+00 1.612595e-01 -3.714621e-01 2.187900e+00 2.777581e+00 2.909060e+00 2.954355e+00 5.505955e+00 4.149151e+00 6.468120e+00 5.341165e+00 1.474773e+00 6.686436e-02 -1.716615e+00 1.475167e+00 2.450999e+00 5.595960e-03 -3.484269e+00 -2.526713e+00 4.898466e-01 2.031691e+00 4.710234e-03 -1.086096e+00 -4.430695e-01 3.151308e-01 -1.590657e+00 -2.935829e+00 -1.669507e+00 6.513096e-01 4.738465e-02 -1.794199e+00 -1.491730e+00 6.253775e-01 3.573007e-01 -2.290343e+00 -3.304048e+00 -1.587705e+00 -2.160634e-01 -8.783982e-01 -1.168825e+00 -4.061205e-01 -9.119077e-01 -3.712411e+00 -4.961240e+00 -2.841754e+00 -6.775616e-01 -1.673506e+00 -3.575546e+00 -6.777689e+00 -2.264690e+00 5.600856e+00 -3.969350e+00 -1.294328e+01 9.000354e-01 7.246381e+00 -1.134700e+01 -7.979764e+00 1.253594e+01 -1.112937e+00 -1.613534e+01 2.168929e+00 1.008042e+01 -7.529814e+00 -9.202453e+00 -7.564325e-01 1.955372e-01 3.533419e-01 -8.474330e-01 -1.457907e+00 -1.320769e+00 -1.385764e+00 -1.466691e+00 -3.526242e-01 6.237939e-01 6.453421e-01 7.205982e-01 7.553942e-01 1.324655e-01 -3.402484e-01 1.975870e-01 5.485074e-01 3.241096e-01 3.065341e-01 1.260525e+00 2.295596e+00 2.444868e+00 1.982511e+00 1.834530e+00 1.602577e+00 3.366168e-01 -5.229136e-01 3.061651e-01 2.334444e+00 2.442769e+00 9.151428e-01 -6.097955e-01 -1.741489e-01 1.588478e-01 8.787276e-01 1.213212e+00 1.774537e+00 7.477128e-01 -2.684321e-01 -6.889038e-01 7.939095e-01 2.013619e+00 2.315760e+00 1.654335e+00 8.797360e-01 3.033689e-01 8.254883e-02 5.948751e-01 -6.729909e-01 1.297330e+00 9.419627e-01 0 0 0 0 
0 0 0 0 0 3.366554e+00 -4.745018e-01 -1.999702e+00 2.939722e-01 -9.423125e-01 1.108550e-01 -2.568355e-01 1.511297e+00 8.738665e+00 6.457160e+00 1.023172e+01 1.607970e+01 1.186784e+01 1.578369e+01 1.231467e+01 4.543283e+00 4.644762e-02 -1.185470e+00 1.019141e+00 1.693181e+00 4.055781e-03 -2.406599e+00 -1.745224e+00 3.384344e-01 1.403421e+00 3.274558e-03 -7.501951e-01 -3.060334e-01 2.176807e-01 -1.098719e+00 -2.027888e+00 -1.153187e+00 4.499150e-01 3.276316e-02 -1.239310e+00 -1.030378e+00 4.320308e-01 2.468657e-01 -1.582005e+00 -2.282213e+00 -1.096647e+00 -1.492082e-01 -6.067258e-01 -8.073444e-01 -2.805119e-01 -6.298793e-01 -2.564313e+00 -3.426942e+00 -1.962923e+00 -4.680232e-01 -1.155972e+00 -2.469805e+00 -4.573401e+00 -7.641818e-01 5.213272e+00 -1.887666e+00 -8.178570e+00 2.171191e+00 6.542357e+00 -7.101652e+00 -4.148388e+00 1.076467e+01 4.292362e-01 -1.013312e+01 3.540565e+00 8.914303e+00 -4.510483e+00 -6.319420e+00 -5.226050e-01 1.350126e-01 2.440372e-01 -5.853781e-01 -1.007057e+00 -9.123287e-01 -9.572251e-01 -1.013127e+00 -2.435772e-01 4.308911e-01 4.457754e-01 4.977595e-01 5.217929e-01 9.149856e-02 -2.350241e-01 1.365005e-01 3.789004e-01 2.238920e-01 2.117554e-01 8.707484e-01 1.585728e+00 1.688838e+00 1.369463e+00 1.267234e+00 1.107007e+00 2.325227e-01 -3.612092e-01 2.114934e-01 1.612567e+00 1.687392e+00 6.321696e-01 -4.211589e-01 -1.201929e-01 1.098606e-01 6.071808e-01 8.382637e-01 1.226072e+00 5.168345e-01 -1.850923e-01 -4.755257e-01 5.487769e-01 1.391268e+00 1.599928e+00 1.142974e+00 6.078273e-01 2.097664e-01 5.804600e-02 4.167160e-01 -4.564336e-01 8.998233e-01 6.508231e-01 0 0 0 0 
0 0 0 0 0 1.498666e-01 -2.194308e-02 -9.046487e-02 1.221711e-02 -4.227449e-02 4.799959e-03 -1.149850e-02 6.729143e-02 1.116860e+01 1.226012e+01 1.142476e+01 1.266557e+01 1.196021e+01 1.226703e+01 1.231904e+01 1.043203e+01 2.134341e-03 -5.271132e-02 4.541980e-02 7.542725e-02 2.289132e-04 -1.071125e-01 -7.767944e-02 1.508718e-02 6.249472e-02 1.511207e-04 -3.339576e-02 -1.362178e-02 9.693196e-03 -4.891332e-02 -9.028194e-02 -5.133904e-02 2.003815e-02 1.466948e-03 -5.517158e-02 -4.586839e-02 1.924905e-02 1.100691e-02 -7.042564e-02 -1.016002e-01 -4.881271e-02 -6.633907e-03 -2.700722e-02 -3.594139e-02 -1.248568e-02 -2.803989e-02 -1.141663e-01 -1.525749e-01 -8.739392e-02 -2.083796e-02 -5.146866e-02 -1.121700e-01 -1.751667e-01 2.591386e-01 7.241692e-01 1.791035e-01 -1.359313e-01 6.687850e-01 8.007170e-01 -1.628094e-01 3.052991e-01 1.224439e+00 3.282034e-01 -1.389174e-01 9.208429e-01 1.027542e+00 -4.987289e-02 -2.776369e-01 -2.329402e-02 5.997498e-03 1.085713e-02 -2.606729e-02 -4.484077e-02 -4.062302e-02 -4.262230e-02 -4.511176e-02 -1.084570e-02 1.918668e-02 1.984936e-02 2.216418e-02 2.323377e-02 4.073448e-03 -1.046374e-02 6.082020e-03 1.687522e-02 9.972097e-03 9.432657e-03 3.878010e-02 7.061557e-02 7.520645e-02 6.098584e-02 5.643129e-02 4.929588e-02 1.035418e-02 -1.608443e-02 9.419188e-03 7.181191e-02 7.514319e-02 2.815596e-02 -1.873741e-02 -5.326038e-03 4.926168e-03 2.708525e-02 3.738368e-02 5.466942e-02 2.310124e-02 -8.158088e-03 -2.108768e-02 2.453161e-02 6.203728e-02 7.131690e-02 5.095217e-02 2.710133e-02 9.394210e-03 2.844865e-03 2.002786e-02 -1.818180e-02 4.100158e-02 2.901896e-02 0 0 0 0 
0 0 0 0 0 0 0 0 0 0 0 0 0 1.195396e+01 1.279043e+01 1.223075e+01 1.329603e+01 1.264556e+01 1.286763e+01 1.295812e+01 1.145703e+01 0 0 0 0 0 0 0 0 0 0 0 0 0 0 0 0 0 0 0 0 0 0 0 0 0 0 0 0 0 0 0 0 0 0 0 -9.513518e-04 -7.649224e-03 -2.268241e-02 -1.943220e-02 -1.763776e-02 -3.601439e-02 -3.496397e-02 -2.829976e-02 -3.652817e-02 -4.157821e-02 -3.597675e-02 -3.164238e-02 -3.426708e-02 -3.591535e-02 -2.607828e-02 -9.646017e-03 -1.091751e-03 0 0 0 0 0 0 0 0 0 0 0 0 0 0 0 0 0 0 0 0 0 0 0 0 0 0 0 0 0 0 0 0 0 0 0 0 0 0 0 0 0 0 0 0 0 0 0 0 0 0 0 0 0 0 0 
0 0 0 0 0 0 0 0 0 0 0 0 0 1.245977e+01 1.310998e+01 1.248418e+01 1.294065e+01 1.263464e+01 1.270743e+01 1.280951e+01 1.244278e+01 0 0 0 0 0 0 0 0 0 0 0 0 0 0 0 0 0 0 0 0 0 0 0 0 0 0 0 0 0 0 0 0 0 0 0 6.036636e-04 3.594599e-03 3.316279e-03 3.193884e-03 7.155067e-03 6.507692e-03 3.940947e-03 9.024747e-03 1.250574e-02 4.988216e-03 9.342433e-03 1.719833e-02 1.158316e-02 1.130613e-02 1.877891e-02 1.242621e-02 1.013608e-03 0 0 0 0 0 0 0 0 0 0 0 0 0 0 0 0 0 0 0 0 0 0 0 0 0 0 0 0 0 0 0 0 0 0 0 0 0 0 0 0 0 0 0 0 0 0 0 0 0 0 0 0 0 0 0 
0 0 0 0 0 0 0 0 0 0 0 0 0 1.270717e+01 1.335204e+01 1.277886e+01 1.325106e+01 1.298435e+01 1.300844e+01 1.322049e+01 1.269455e+01 0 0 0 0 0 0 0 0 0 0 0 0 0 0 0 0 0 0 0 0 0 0 0 0 0 0 0 0 0 0 0 0 0 0 0 1.313103e-04 8.144192e-04 9.190370e-04 7.845617e-04 1.718999e-03 2.220172e-03 1.800671e-03 2.462489e-03 3.769293e-03 2.905729e-03 3.331031e-03 4.637000e-03 4.158730e-03 4.979992e-03 5.700088e-03 2.967832e-03 2.430365e-04 0 0 0 0 0 0 0 0 0 0 0 0 0 0 0 0 0 0 0 0 0 0 0 0 0 0 0 0 0 0 0 0 0 0 0 0 0 0 0 0 0 0 0 0 0 0 0 0 0 0 0 0 0 0 0 
0 0 0 0 0 0 0 0 0 0 0 0 0 1.242703e+01 1.305650e+01 1.247796e+01 1.291275e+01 1.265576e+01 1.272053e+01 1.288260e+01 1.251303e+01 0 0 0 0 0 0 0 0 0 0 0 0 0 0 0 0 0 0 0 0 0 0 0 0 0 0 0 0 0 0 0 0 0 0 0 0 0 0 0 0 0 0 0 0 0 0 0 0 0 0 0 0 0 0 0 0 0 0 0 0 0 0 0 0 0 0 0 0 0 0 0 0 0 0 0 0 0 0 0 0 0 0 0 0 0 0 0 0 0 0 0 0 0 0 0 0 0 0 0 0 0 0 0 0 0 0 0 
0 0 0 0 0 0 0 0 0 0 0 0 0 1.191365e+01 1.266968e+01 1.223074e+01 1.321197e+01 1.263985e+01 1.287237e+01 1.313564e+01 1.156355e+01 0 0 0 0 0 0 0 0 0 0 0 0 0 0 0 0 0 0 0 0 0 0 0 0 0 0 0 0 0 0 0 0 0 0 0 0 0 0 0 0 0 0 0 0 0 0 0 0 0 0 0 0 0 0 0 0 0 0 0 0 0 0 0 0 0 0 0 0 0 0 0 0 0 0 0 0 0 0 0 0 0 0 0 0 0 0 0 0 0 0 0 0 0 0 0 0 0 0 0 0 0 0 0 0 0 0 0 
0 0 0 0 0 1.485646e-01 -2.942321e-02 -9.225631e-02 3.615917e-02 -5.572932e-03 2.033395e-02 -2.404447e-02 5.233963e-02 1.095723e+01 1.197040e+01 1.140574e+01 1.251999e+01 1.192124e+01 1.223347e+01 1.261894e+01 1.079887e+01 1.028421e-01 -2.235921e-03 -2.552253e-02 -2.166584e-02 3.961239e-02 6.523240e-02 5.647267e-02 8.919948e-03 5.859360e-03 1.196153e-02 2.671843e-02 1.267227e-02 2.092614e-02 2.426554e-02 2.343709e-02 -7.046174e-05 7.685588e-03 3.299599e-02 4.374011e-02 5.840067e-03 -2.953730e-02 -2.477990e-02 -1.216345e-04 2.918105e-03 -1.043498e-02 -7.839857e-03 -2.969044e-03 -1.645560e-02 -3.894038e-02 -2.468829e-02 1.612515e-03 -3.314096e-03 -4.262068e-02 -5.268639e-02 -3.968759e-02 -3.761077e-02 -6.042532e-02 -5.820010e-02 -4.206810e-02 -4.414188e-02 -6.731222e-02 -6.774323e-02 -5.892785e-02 -6.454380e-02 -7.166443e-02 -5.590804e-02 -5.075155e-02 -6.830545e-02 -7.693432e-02 -6.297383e-02 -5.416463e-02 -5.606697e-02 -4.624462e-02 -3.012993e-02 -2.272940e-02 -2.345384e-02 -1.928675e-02 -2.068608e-02 -2.199160e-02 -1.337039e-02 4.774257e-04 5.305883e-03 4.647954e-03 3.192057e-03 -5.626379e-03 -1.173257e-02 -1.214564e-02 -1.231516e-02 -1.824458e-02 -1.804778e-02 -1.373460e-02 -5.513916e-03 3.660335e-03 1.260223e-02 9.769407e-03 -1.368812e-02 -3.841246e-02 -4.422567e-02 -1.913005e-02 7.328472e-03 3.221742e-02 3.490596e-02 3.931427e-02 2.118712e-02 6.487338e-03 -1.997025e-02 -1.585209e-02 -2.012328e-02 -2.861394e-03 3.430212e-03 2.902990e-02 3.182911e-02 3.166003e-02 6.603551e-03 -1.615845e-02 -3.659280e-02 -3.943460e-02 -1.876537e-02 3.350202e-03 2.109072e-02 -2.933770e-02 3.134908e-02 2.800003e-02 0 0 0 0 
0 0 0 0 0 3.337300e+00 -6.423847e-01 -2.039962e+00 8.314016e-01 -1.181842e-01 4.597358e-01 -5.385496e-01 1.175561e+00 8.839475e+00 7.009733e+00 1.046157e+01 1.570814e+01 1.105575e+01 1.555919e+01 1.193475e+01 4.612443e+00 2.308694e+00 -5.148440e-02 -5.744780e-01 -4.877499e-01 8.889325e-01 1.464537e+00 1.267859e+00 1.999629e-01 1.313625e-01 2.685073e-01 6.000446e-01 2.845990e-01 4.700175e-01 5.450313e-01 5.264002e-01 -1.651056e-03 1.725209e-01 7.410143e-01 9.822848e-01 1.309746e-01 -6.636040e-01 -5.567393e-01 -2.936126e-03 6.533776e-02 -2.345309e-01 -1.762153e-01 -6.679425e-02 -3.696836e-01 -8.746743e-01 -5.545338e-01 3.621238e-02 -7.441274e-02 -9.572377e-01 -1.183294e+00 -8.913365e-01 -8.447033e-01 -1.357143e+00 -1.307169e+00 -9.448267e-01 -9.914000e-01 -1.511822e+00 -1.521523e+00 -1.323525e+00 -1.449644e+00 -1.609536e+00 -1.255643e+00 -1.139817e+00 -1.534066e+00 -1.727844e+00 -1.414285e+00 -1.216421e+00 -1.259146e+00 -1.038545e+00 -6.766129e-01 -5.104055e-01 -5.266827e-01 -4.331136e-01 -4.645508e-01 -4.938831e-01 -3.002636e-01 1.072890e-02 1.191622e-01 1.043781e-01 7.166517e-02 -1.263973e-01 -2.635381e-01 -2.728246e-01 -2.766459e-01 -4.098383e-01 -4.054323e-01 -3.085664e-01 -1.239667e-01 8.207723e-02 2.828838e-01 2.192776e-01 -3.074578e-01 -8.626828e-01 -9.932276e-01 -4.296169e-01 1.645660e-01 7.234569e-01 7.837951e-01 8.826775e-01 4.754625e-01 1.452247e-01 -4.492203e-01 -3.569980e-01 -4.531451e-01 -6.579892e-02 7.531537e-02 6.499246e-01 7.126804e-01 7.089706e-01 1.464039e-01 -3.644022e-01 -8.228808e-01 -8.863995e-01 -4.225800e-01 6.941199e-02 4.405419e-01 -7.068214e-01 6.832480e-01 6.279666e-01 0 0 0 0 
0 0 0 0 0 4.831573e+00 -9.252997e-01 -2.945119e+00 1.208517e+00 -1.693233e-01 6.663338e-01 -7.792845e-01 1.701872e+00 2.829923e+00 3.406589e+00 3.475071e+00 5.770294e+00 3.903022e+00 5.833071e+00 5.379665e+00 3.365637e+00 3.342025e+00 -7.485571e-02 -8.319918e-01 -7.064077e-01 1.286721e+00 2.120075e+00 1.835358e+00 2.893916e-01 1.901139e-01 3.886824e-01 8.686764e-01 4.120112e-01 6.804524e-01 7.890531e-01 7.620746e-01 -2.407634e-03 2.497352e-01 1.072753e+00 1.422032e+00 1.895639e-01 -9.607547e-01 -8.060424e-01 -4.302500e-03 9.453849e-02 -3.395732e-01 -2.551418e-01 -9.672639e-02 -5.352170e-01 -1.266292e+00 -8.028120e-01 5.242376e-02 -1.077224e-01 -1.385795e+00 -1.713053e+00 -1.290383e+00 -1.222875e+00 -1.964744e+00 -1.892397e+00 -1.367828e+00 -1.435251e+00 -2.188674e+00 -2.202723e+00 -1.916079e+00 -2.098658e+00 -2.330126e+00 -1.817792e+00 -1.650106e+00 -2.220861e+00 -2.501388e+00 -2.047445e+00 -1.760993e+00 -1.822847e+00 -1.503483e+00 -9.795112e-01 -7.388936e-01 -7.624598e-01 -6.270051e-01 -6.725190e-01 -7.149863e-01 -4.346850e-01 1.553383e-02 1.725101e-01 1.511053e-01 1.037430e-01 -1.829937e-01 -3.815325e-01 -3.949788e-01 -4.005146e-01 -5.933427e-01 -5.869678e-01 -4.467363e-01 -1.794992e-01 1.187899e-01 4.094920e-01 3.174136e-01 -4.451149e-01 -1.248897e+00 -1.437883e+00 -6.219487e-01 2.382356e-01 1.047317e+00 1.134657e+00 1.277778e+00 6.882292e-01 2.101210e-01 -6.505147e-01 -5.170726e-01 -6.563204e-01 -9.564654e-02 1.085962e-01 9.403714e-01 1.031194e+00 1.025846e+00 2.114647e-01 -5.279245e-01 -1.191547e+00 -1.283425e+00 -6.120542e-01 9.900756e-02 6.293565e-01 -1.035435e+00 9.838480e-01 9.088804e-01 0 0 0 0 
0 0 0 0 0 1.642838e+00 -3.123382e-01 -9.974125e-01 4.132749e-01 -5.671206e-02 2.269319e-01 -2.647794e-01 5.786509e-01 9.621306e-01 1.158188e+00 1.181481e+00 1.961901e+00 1.327020e+00 1.983258e+00 1.829021e+00 1.144207e+00 1.136173e+00 -2.560724e-02 -2.830363e-01 -2.403236e-01 4.374012e-01 7.207698e-01 6.239718e-01 9.834866e-02 6.461077e-02 1.321367e-01 2.953502e-01 1.400844e-01 2.313610e-01 2.682874e-01 2.591115e-01 -8.270405e-04 8.489989e-02 3.647349e-01 4.834870e-01 6.442938e-02 -3.266880e-01 -2.740830e-01 -1.488009e-03 3.211884e-02 -1.154773e-01 -8.676641e-02 -3.290118e-02 -1.819890e-01 -4.305577e-01 -2.729664e-01 1.782390e-02 -3.662373e-02 -4.711780e-01 -5.824458e-01 -4.387343e-01 -4.157825e-01 -6.680267e-01 -6.434286e-01 -4.650689e-01 -4.879929e-01 -7.441644e-01 -7.489437e-01 -6.514821e-01 -7.135584e-01 -7.922545e-01 -6.180567e-01 -5.610409e-01 -7.551004e-01 -8.504782e-01 -6.961337e-01 -5.987366e-01 -6.197671e-01 -5.111822e-01 -3.330282e-01 -2.512175e-01 -2.592309e-01 -2.131782e-01 -2.286543e-01 -2.430948e-01 -1.477918e-01 5.282347e-03 5.865378e-02 5.137509e-02 3.526991e-02 -6.222281e-02 -1.297269e-01 -1.342999e-01 -1.361838e-01 -2.017490e-01 -1.995832e-01 -1.519045e-01 -6.104635e-02 4.037298e-02 1.392104e-01 1.079054e-01 -1.513452e-01 -4.246270e-01 -4.888811e-01 -2.114618e-01 8.099802e-02 3.560778e-01 3.857684e-01 4.344146e-01 2.339539e-01 7.138355e-02 -2.212646e-01 -1.759267e-01 -2.232986e-01 -3.270902e-02 3.671105e-02 3.194766e-01 3.503430e-01 3.485353e-01 7.166440e-02 -1.796808e-01 -4.052587e-01 -4.364601e-01 -2.082396e-01 3.294577e-02 2.099053e-01 -3.579514e-01 3.319491e-01 3.089138e-01 0 0 0 0 
0 0 0 0 0 0 0 0 0 0 0 0 0 0 0 0 0 0 0 0 0 0 0 0 0 0 0 0 0 0 0 0 0 0 0 0 0 0 0 0 0 0 0 0 0 0 0 0 0 0 0 0 0 0 0 0 0 0 0 0 0 0 0 0 0 0 0 0 0 0 0 0 0 0 0 0 0 0 0 0 0 0 0 0 0 0 0 0 0 0 0 0 0 0 0 0 0 0 0 0 0 0 0 0 0 0 0 0 0 0 0 0 0 0 0 0 0 0 0 0 0 0 0 0 0 0 0 0 
