# vtk DataFile Version 2.0
Comment goes here
ASCII

DATASET STRUCTURED_POINTS
FIELD FieldData 1
TIME 1 1 double
0.64000000
DIMENSIONS    128   16   1

ORIGIN    0.000   0.000   0.000
SPACING   0.0078125 0.015625   1.000

POINT_DATA   2048
SCALARS fY double
LOOKUP_TABLE default

0 0 0 0 0 0 0 0 0 0 0 0 0 0 0 0 0 0 0 0 0 0 0 0 0 0 0 0 0 0 0 0 0 0 0 0 0 0 0 0 0 0 0 0 0 0 0 0 0 0 0 0 0 0 0 0 0 0 0 0 0 0 0 0 0 0 0 0 0 0 0 0 0 0 0 0 0 0 0 0 0 0 0 0 0 0 0 0 0 0 0 0 0 0 0 0 0 0 0 0 0 0 0 0 0 0 0 0 0 0 0 0 0 0 0 0 0 0 0 0 0 0 0 0 0 0 0 0 
0 0 0 0 0 0 0 0 0 0 0 0 0 0 0 0 0 0 0 0 0 0 0 0 0 0 0 0 0 0 0 0 0 0 0 0 0 0 0 0 0 0 0 0 0 0 0 0 0 0 0 0 0 0 0 0 0 0 0 0 0 0 0 0 0 0 0 0 0 0 0 0 0 0 0 0 0 0 0 0 0 0 0 0 0 0 0 0 0 0 0 0 0 0 0 0 0 0 0 0 0 0 0 0 0 0 0 0 0 0 0 0 0 0 0 0 0 0 0 0 0 0 0 0 0 0 0 0 
0 0 0 0 0 4.814384e-01 1.471355e+00 1.103889e+00 1.913452e+00 1.532849e+00 2.356008e+00 1.905885e+00 2.744413e+00 1.567145e+00 -3.188970e+00 -5.860463e+00 -9.900626e+00 -1.367020e+01 -1.714186e+01 -2.081295e+01 -2.521820e+01 -2.601493e+01 -2.551665e+01 -2.559459e+01 -2.518202e+01 -2.513438e+01 -2.482901e+01 -2.466924e+01 -2.441531e+01 -2.412790e+01 -2.390753e+01 -2.355766e+01 -2.340143e+01 -2.304231e+01 -2.292984e+01 -2.257675e+01 -2.249166e+01 -2.216922e+01 -2.207684e+01 -2.174582e+01 -2.156947e+01 -2.121172e+01 -2.098233e+01 -2.068869e+01 -2.048147e+01 -2.027422e+01 -2.005101e+01 -1.986461e+01 -1.958762e+01 -1.940897e+01 -1.909576e+01 -1.892383e+01 -1.858616e+01 -1.842691e+01 -1.811411e+01 -1.799841e+01 -1.770865e+01 -1.745096e+01 -1.751694e+01 -1.773257e+01 -1.707854e+01 -1.628557e+01 -1.558366e+01 -1.597614e+01 -1.610567e+01 -1.357330e+01 -1.416171e+01 -1.584803e+01 -1.386320e+01 -1.136139e+01 -1.379599e+01 -1.553001e+01 -1.407039e+01 -1.362919e+01 -1.326311e+01 -1.307042e+01 -1.269319e+01 -1.254249e+01 -1.216398e+01 -1.204606e+01 -1.166188e+01 -1.152431e+01 -1.111941e+01 -1.094838e+01 -1.057121e+01 -1.038452e+01 -1.005994e+01 -9.830297e+00 -9.561457e+00 -9.292343e+00 -9.116504e+00 -8.812631e+00 -8.701183e+00 -8.303527e+00 -8.207678e+00 -7.733485e+00 -7.697536e+00 -7.222603e+00 -7.242397e+00 -6.758057e+00 -6.759394e+00 -6.272821e+00 -6.234386e+00 -5.797654e+00 -5.692508e+00 -5.329832e+00 -5.128063e+00 -4.882184e+00 -4.580765e+00 -4.462818e+00 -4.015535e+00 -3.983150e+00 -3.383295e+00 -3.457888e+00 -2.797802e+00 -2.991713e+00 -2.314100e+00 -2.518552e+00 -1.842420e+00 -1.946235e+00 -1.391552e+00 -1.261108e+00 -1.152209e+00 5.238809e-01 0 0 0 0 
0 0 0 0 0 1.415868e+00 4.326791e+00 3.245684e+00 5.626710e+00 4.506754e+00 6.926783e+00 5.601928e+00 8.067184e+00 4.604320e+00 -9.382642e+00 -1.724025e+01 -2.912478e+01 -4.021514e+01 -5.042948e+01 -6.123229e+01 -7.419586e+01 -7.654025e+01 -7.507377e+01 -7.530319e+01 -7.408903e+01 -7.394885e+01 -7.305020e+01 -7.258003e+01 -7.183274e+01 -7.098689e+01 -7.033835e+01 -6.930866e+01 -6.884889e+01 -6.779199e+01 -6.746098e+01 -6.642186e+01 -6.617145e+01 -6.522257e+01 -6.495070e+01 -6.397659e+01 -6.345766e+01 -6.240491e+01 -6.172990e+01 -6.086581e+01 -6.025602e+01 -5.964617e+01 -5.898933e+01 -5.844080e+01 -5.762570e+01 -5.710001e+01 -5.617833e+01 -5.567239e+01 -5.467877e+01 -5.421016e+01 -5.328973e+01 -5.294928e+01 -5.215774e+01 -5.166385e+01 -5.173366e+01 -5.157548e+01 -4.980423e+01 -4.926552e+01 -4.878693e+01 -4.785745e+01 -4.786128e+01 -4.584865e+01 -4.596498e+01 -4.613580e+01 -4.501908e+01 -4.326024e+01 -4.399630e+01 -4.335544e+01 -4.108055e+01 -4.009354e+01 -3.901645e+01 -3.844949e+01 -3.733960e+01 -3.689622e+01 -3.578257e+01 -3.543566e+01 -3.430538e+01 -3.390069e+01 -3.270950e+01 -3.220635e+01 -3.109678e+01 -3.054755e+01 -2.959269e+01 -2.891710e+01 -2.812622e+01 -2.733448e+01 -2.681716e+01 -2.592315e+01 -2.559524e+01 -2.442533e+01 -2.414332e+01 -2.274830e+01 -2.264255e+01 -2.124544e+01 -2.130374e+01 -1.987906e+01 -1.988313e+01 -1.845198e+01 -1.833908e+01 -1.705458e+01 -1.674541e+01 -1.567871e+01 -1.508521e+01 -1.436197e+01 -1.347521e+01 -1.312814e+01 -1.181220e+01 -1.171673e+01 -9.951988e+00 -1.017123e+01 -8.229499e+00 -8.799956e+00 -6.807192e+00 -7.409708e+00 -5.424135e+00 -5.739212e+00 -4.140239e+00 -3.764381e+00 -3.408370e+00 1.540488e+00 0 0 0 0 
0 0 0 0 0 9.779599e-01 2.988413e+00 2.241474e+00 3.886165e+00 3.112288e+00 4.783443e+00 3.867823e+00 5.570232e+00 7.027860e+00 -9.176944e+00 -8.549379e+00 -2.417782e+01 -2.326849e+01 -3.943442e+01 -3.779481e+01 -5.463707e+01 -5.288326e+01 -5.186982e+01 -5.202837e+01 -5.118933e+01 -5.109248e+01 -5.047148e+01 -5.014658e+01 -4.963017e+01 -4.904564e+01 -4.859747e+01 -4.788588e+01 -4.756815e+01 -4.683777e+01 -4.660902e+01 -4.589094e+01 -4.571789e+01 -4.506219e+01 -4.487432e+01 -4.420120e+01 -4.384261e+01 -4.311516e+01 -4.264872e+01 -4.205164e+01 -4.163026e+01 -4.120886e+01 -4.075498e+01 -4.037594e+01 -3.981270e+01 -3.944944e+01 -3.881256e+01 -3.846296e+01 -3.777637e+01 -3.745257e+01 -3.681657e+01 -3.658133e+01 -3.606552e+01 -3.587254e+01 -3.406360e+01 -3.264461e+01 -3.313453e+01 -3.285478e+01 -3.251726e+01 -3.166021e+01 -3.074965e+01 -3.209573e+01 -3.138832e+01 -2.840648e+01 -2.990923e+01 -3.147693e+01 -2.874352e+01 -2.666427e+01 -2.788020e+01 -2.769866e+01 -2.695445e+01 -2.656271e+01 -2.579586e+01 -2.548952e+01 -2.472008e+01 -2.448040e+01 -2.369949e+01 -2.341990e+01 -2.259693e+01 -2.224932e+01 -2.148275e+01 -2.110331e+01 -2.044363e+01 -1.997688e+01 -1.943048e+01 -1.888347e+01 -1.852606e+01 -1.790838e+01 -1.768182e+01 -1.687354e+01 -1.667869e+01 -1.571490e+01 -1.564184e+01 -1.467666e+01 -1.471697e+01 -1.373279e+01 -1.373567e+01 -1.274706e+01 -1.266915e+01 -1.178187e+01 -1.156835e+01 -1.083151e+01 -1.042152e+01 -9.921903e+00 -9.309250e+00 -9.069435e+00 -8.160240e+00 -8.094191e+00 -6.874956e+00 -7.026329e+00 -5.684915e+00 -6.079026e+00 -4.702613e+00 -5.119379e+00 -3.749310e+00 -3.971672e+00 -2.882894e+00 -2.627051e+00 -2.363819e+00 1.063940e+00 0 0 0 0 
0 0 0 0 0 4.353047e-02 1.329775e-01 9.967852e-02 1.729073e-01 1.383826e-01 2.126686e-01 1.717797e-01 2.474605e-01 3.069676e+00 -3.071697e+00 2.313803e+00 -4.886057e+00 3.173796e+00 -5.777462e+00 2.800579e+00 -4.754234e+00 -2.357933e+00 -2.312691e+00 -2.319772e+00 -2.282323e+00 -2.278004e+00 -2.250291e+00 -2.235790e+00 -2.212743e+00 -2.186649e+00 -2.166645e+00 -2.134879e+00 -2.120695e+00 -2.088093e+00 -2.077881e+00 -2.045831e+00 -2.038106e+00 -2.008845e+00 -2.000461e+00 -1.970425e+00 -1.954425e+00 -1.921967e+00 -1.901155e+00 -1.874516e+00 -1.855714e+00 -1.836912e+00 -1.816660e+00 -1.799748e+00 -1.774616e+00 -1.758408e+00 -1.729992e+00 -1.714394e+00 -1.683762e+00 -1.669316e+00 -1.640944e+00 -1.630451e+00 -1.613096e+00 -1.736441e+00 4.592440e-01 1.800893e+00 -1.848274e-01 4.212895e-01 1.221839e+00 7.064085e-01 1.264642e+00 5.304884e-01 1.031753e+00 2.072896e+00 1.196083e+00 2.968679e-01 1.866642e+00 1.945784e+00 -6.648434e-01 -1.234302e+00 -1.201113e+00 -1.183644e+00 -1.149450e+00 -1.135790e+00 -1.101485e+00 -1.090800e+00 -1.055988e+00 -1.043526e+00 -1.006844e+00 -9.913513e-01 -9.571868e-01 -9.402755e-01 -9.108762e-01 -8.900712e-01 -8.657190e-01 -8.413337e-01 -8.254017e-01 -7.978646e-01 -7.877620e-01 -7.517301e-01 -7.430418e-01 -7.000857e-01 -6.968297e-01 -6.538219e-01 -6.556267e-01 -6.117853e-01 -6.119307e-01 -5.679035e-01 -5.644526e-01 -5.249443e-01 -5.154473e-01 -4.826369e-01 -4.643740e-01 -4.421186e-01 -4.148096e-01 -4.041113e-01 -3.635770e-01 -3.606094e-01 -3.062627e-01 -3.129849e-01 -2.532177e-01 -2.707827e-01 -2.095208e-01 -2.282242e-01 -1.675942e-01 -1.786939e-01 -1.342074e-01 -1.237771e-01 -1.076588e-01 4.733300e-02 0 0 0 0 
0 0 0 0 0 0 0 0 0 0 0 0 0 1.447128e+00 -4.412215e-01 1.499814e+00 -1.214850e+00 1.352147e+00 -1.566846e+00 7.294108e-01 -1.476026e+00 0 0 0 0 0 0 0 0 0 0 0 0 0 0 0 0 0 0 0 0 0 0 0 0 0 0 0 0 0 0 0 0 0 0 0 2.707805e-03 3.930343e-02 1.034229e+00 1.334703e+00 4.604513e-01 8.860417e-01 1.099262e+00 7.659232e-01 7.266196e-01 7.629894e-01 8.719524e-01 5.637384e-01 5.110090e-01 3.023595e-01 5.688281e-01 8.409736e-01 2.209732e-01 0 0 0 0 0 0 0 0 0 0 0 0 0 0 0 0 0 0 0 0 0 0 0 0 0 0 0 0 0 0 0 0 0 0 0 0 0 0 0 0 0 0 0 0 0 0 0 0 0 0 0 0 0 0 0 
0 0 0 0 0 0 0 0 0 0 0 0 0 7.028771e-01 -4.249020e-01 8.888883e-01 -8.710686e-01 9.602064e-01 -9.728458e-01 6.454962e-01 -7.267332e-01 0 0 0 0 0 0 0 0 0 0 0 0 0 0 0 0 0 0 0 0 0 0 0 0 0 0 0 0 0 0 0 0 0 0 0 -7.552017e-03 5.166602e-02 7.746878e-01 8.063280e-01 1.817297e-01 7.254270e-01 8.047837e-01 3.745588e-01 6.615941e-01 7.682646e-01 5.354521e-01 5.832654e-01 8.848263e-01 9.394965e-01 5.373871e-01 1.496773e-01 2.577477e-02 0 0 0 0 0 0 0 0 0 0 0 0 0 0 0 0 0 0 0 0 0 0 0 0 0 0 0 0 0 0 0 0 0 0 0 0 0 0 0 0 0 0 0 0 0 0 0 0 0 0 0 0 0 0 0 
0 0 0 0 0 0 0 0 0 0 0 0 0 4.951749e-03 3.150435e-03 4.820021e-03 3.440773e-03 5.829810e-03 6.279564e-03 7.412789e-03 1.110890e-02 0 0 0 0 0 0 0 0 0 0 0 0 0 0 0 0 0 0 0 0 0 0 0 0 0 0 0 0 0 0 0 0 0 0 0 -6.927634e-03 -6.442532e-02 4.657931e-02 7.422385e-02 -5.470156e-02 1.354932e-01 2.413405e-01 9.395252e-02 1.936580e-01 3.561383e-01 2.803036e-01 2.111346e-01 3.232520e-01 5.120769e-01 3.784093e-01 9.332388e-02 1.000437e-02 0 0 0 0 0 0 0 0 0 0 0 0 0 0 0 0 0 0 0 0 0 0 0 0 0 0 0 0 0 0 0 0 0 0 0 0 0 0 0 0 0 0 0 0 0 0 0 0 0 0 0 0 0 0 0 
0 0 0 0 0 0 0 0 0 0 0 0 0 -6.979297e-01 4.243146e-01 -8.810983e-01 8.693454e-01 -9.473371e-01 9.776765e-01 -6.305628e-01 7.480392e-01 0 0 0 0 0 0 0 0 0 0 0 0 0 0 0 0 0 0 0 0 0 0 0 0 0 0 0 0 0 0 0 0 0 0 0 0 0 0 0 0 0 0 0 0 0 0 0 0 0 0 0 0 0 0 0 0 0 0 0 0 0 0 0 0 0 0 0 0 0 0 0 0 0 0 0 0 0 0 0 0 0 0 0 0 0 0 0 0 0 0 0 0 0 0 0 0 0 0 0 0 0 0 0 0 0 0 0 
0 0 0 0 0 0 0 0 0 0 0 0 0 -1.441653e+00 4.405720e-01 -1.494550e+00 1.211538e+00 -1.342782e+00 1.570310e+00 -7.150462e-01 1.499455e+00 0 0 0 0 0 0 0 0 0 0 0 0 0 0 0 0 0 0 0 0 0 0 0 0 0 0 0 0 0 0 0 0 0 0 0 0 0 0 0 0 0 0 0 0 0 0 0 0 0 0 0 0 0 0 0 0 0 0 0 0 0 0 0 0 0 0 0 0 0 0 0 0 0 0 0 0 0 0 0 0 0 0 0 0 0 0 0 0 0 0 0 0 0 0 0 0 0 0 0 0 0 0 0 0 0 0 0 
0 0 0 0 0 -4.346150e-02 -1.333745e-01 -1.009220e-01 -1.753432e-01 -1.411413e-01 -2.148888e-01 -1.730992e-01 -2.483577e-01 -3.093120e+00 3.059941e+00 -2.316335e+00 4.853134e+00 -3.151309e+00 5.738545e+00 -2.774352e+00 4.765045e+00 2.355470e+00 2.310140e+00 2.319626e+00 2.281851e+00 2.276963e+00 2.245256e+00 2.229977e+00 2.207366e+00 2.187007e+00 2.171590e+00 2.144735e+00 2.130909e+00 2.098654e+00 2.086212e+00 2.052796e+00 2.040463e+00 2.006665e+00 1.992658e+00 1.961735e+00 1.948073e+00 1.922227e+00 1.906107e+00 1.881082e+00 1.858750e+00 1.834235e+00 1.808599e+00 1.786626e+00 1.758704e+00 1.737745e+00 1.709102e+00 1.691769e+00 1.667482e+00 1.653944e+00 1.630960e+00 1.613599e+00 1.587230e+00 1.564405e+00 1.537778e+00 1.512424e+00 1.487610e+00 1.460964e+00 1.439462e+00 1.415573e+00 1.399994e+00 1.379013e+00 1.363710e+00 1.338533e+00 1.317207e+00 1.288936e+00 1.265047e+00 1.239743e+00 1.216407e+00 1.196278e+00 1.173224e+00 1.158525e+00 1.134360e+00 1.121058e+00 1.091081e+00 1.075378e+00 1.042064e+00 1.028604e+00 9.989396e-01 9.881529e-01 9.603047e-01 9.453381e-01 9.173049e-01 8.971952e-01 8.732822e-01 8.494054e-01 8.309550e-01 8.016076e-01 7.887252e-01 7.546046e-01 7.473651e-01 7.071482e-01 7.011149e-01 6.544692e-01 6.504999e-01 6.053968e-01 6.058033e-01 5.646260e-01 5.615673e-01 5.216187e-01 5.101341e-01 4.768418e-01 4.587029e-01 4.372787e-01 4.102253e-01 4.000208e-01 3.614067e-01 3.621770e-01 3.125709e-01 3.220057e-01 2.620995e-01 2.763667e-01 2.123556e-01 2.297634e-01 1.705774e-01 1.824887e-01 1.378955e-01 1.254345e-01 1.081090e-01 -4.720337e-02 0 0 0 0 
0 0 0 0 0 -9.764095e-01 -2.997314e+00 -2.269388e+00 -3.940889e+00 -3.174267e+00 -4.833335e+00 -3.897492e+00 -5.590414e+00 -7.079530e+00 9.131533e+00 8.497249e+00 2.411986e+01 2.321787e+01 3.936914e+01 3.774943e+01 5.459576e+01 5.282808e+01 5.181269e+01 5.202513e+01 5.117879e+01 5.106918e+01 5.035872e+01 5.001638e+01 4.950973e+01 4.905364e+01 4.870823e+01 4.810666e+01 4.779695e+01 4.707437e+01 4.679566e+01 4.604699e+01 4.577068e+01 4.501335e+01 4.469947e+01 4.400650e+01 4.370033e+01 4.312106e+01 4.275981e+01 4.219891e+01 4.169843e+01 4.114896e+01 4.057442e+01 4.008192e+01 3.945614e+01 3.898634e+01 3.834435e+01 3.795583e+01 3.741145e+01 3.710799e+01 3.659275e+01 3.620356e+01 3.561243e+01 3.510072e+01 3.450376e+01 3.393535e+01 3.337901e+01 3.278158e+01 3.229947e+01 3.176384e+01 3.141451e+01 3.094406e+01 3.060091e+01 3.003633e+01 2.955810e+01 2.892412e+01 2.838840e+01 2.782092e+01 2.729757e+01 2.684612e+01 2.632911e+01 2.599945e+01 2.545747e+01 2.515911e+01 2.448673e+01 2.413451e+01 2.338720e+01 2.308523e+01 2.241972e+01 2.217768e+01 2.155286e+01 2.121705e+01 2.058806e+01 2.013691e+01 1.960037e+01 1.906475e+01 1.865082e+01 1.799250e+01 1.770354e+01 1.693811e+01 1.677574e+01 1.587340e+01 1.573800e+01 1.469116e+01 1.460191e+01 1.358941e+01 1.359816e+01 1.267354e+01 1.260444e+01 1.170729e+01 1.144918e+01 1.070154e+01 1.029434e+01 9.813394e+00 9.206473e+00 8.977737e+00 8.111619e+00 8.129473e+00 7.016624e+00 7.228871e+00 5.884335e+00 6.204382e+00 4.766226e+00 5.153901e+00 3.816262e+00 4.056889e+00 2.966037e+00 2.664742e+00 2.374100e+00 -1.061023e+00 0 0 0 0 
0 0 0 0 0 -1.413623e+00 -4.339673e+00 -3.286092e+00 -5.705937e+00 -4.596486e+00 -6.999018e+00 -5.644889e+00 -8.096410e+00 -4.638173e+00 9.347188e+00 1.718407e+01 2.911046e+01 4.013621e+01 5.041478e+01 6.114906e+01 7.410043e+01 7.646040e+01 7.499111e+01 7.529850e+01 7.407379e+01 7.391515e+01 7.288703e+01 7.239163e+01 7.165844e+01 7.099846e+01 7.049864e+01 6.962813e+01 6.917997e+01 6.813436e+01 6.773106e+01 6.664767e+01 6.624783e+01 6.515189e+01 6.469767e+01 6.369485e+01 6.325177e+01 6.241348e+01 6.189069e+01 6.107897e+01 6.035470e+01 5.955952e+01 5.872806e+01 5.801533e+01 5.710971e+01 5.642983e+01 5.550074e+01 5.493849e+01 5.415066e+01 5.371148e+01 5.296582e+01 5.240257e+01 5.154708e+01 5.080651e+01 4.994256e+01 4.911993e+01 4.831476e+01 4.745012e+01 4.675237e+01 4.597717e+01 4.547159e+01 4.479072e+01 4.429407e+01 4.347695e+01 4.278480e+01 4.186723e+01 4.109188e+01 4.027054e+01 3.951310e+01 3.885969e+01 3.811141e+01 3.763427e+01 3.684984e+01 3.641801e+01 3.544483e+01 3.493503e+01 3.385339e+01 3.341630e+01 3.245302e+01 3.210269e+01 3.119829e+01 3.071223e+01 2.980178e+01 2.914878e+01 2.837217e+01 2.759692e+01 2.699779e+01 2.604495e+01 2.562671e+01 2.451882e+01 2.428382e+01 2.297772e+01 2.278173e+01 2.126643e+01 2.113719e+01 1.967152e+01 1.968410e+01 1.834556e+01 1.824543e+01 1.694664e+01 1.657294e+01 1.549059e+01 1.490114e+01 1.420493e+01 1.332646e+01 1.299543e+01 1.174184e+01 1.176783e+01 1.015708e+01 1.046444e+01 8.518184e+00 8.981420e+00 6.899271e+00 7.459672e+00 5.521049e+00 5.862578e+00 4.260684e+00 3.819066e+00 3.423295e+00 -1.536264e+00 0 0 0 0 
0 0 0 0 0 -4.806750e-01 -1.475734e+00 -1.117626e+00 -1.940392e+00 -1.563361e+00 -2.380572e+00 -1.920496e+00 -2.754354e+00 -1.578657e+00 3.176917e+00 5.841364e+00 9.895764e+00 1.364339e+01 1.713688e+01 2.078468e+01 2.518578e+01 2.598779e+01 2.548856e+01 2.559300e+01 2.517684e+01 2.512293e+01 2.477357e+01 2.460523e+01 2.435608e+01 2.413183e+01 2.396199e+01 2.366621e+01 2.351393e+01 2.315864e+01 2.302161e+01 2.265348e+01 2.251761e+01 2.214521e+01 2.199086e+01 2.165008e+01 2.149951e+01 2.121464e+01 2.103698e+01 2.076114e+01 2.051501e+01 2.024479e+01 1.996224e+01 1.972003e+01 1.941228e+01 1.918123e+01 1.886550e+01 1.867442e+01 1.840669e+01 1.825744e+01 1.800403e+01 1.781261e+01 1.752188e+01 1.727019e+01 1.697658e+01 1.669700e+01 1.642336e+01 1.612950e+01 1.589237e+01 1.562890e+01 1.545707e+01 1.522567e+01 1.505687e+01 1.477916e+01 1.454391e+01 1.423205e+01 1.396853e+01 1.368937e+01 1.343193e+01 1.320985e+01 1.295552e+01 1.279335e+01 1.252673e+01 1.237996e+01 1.204918e+01 1.187590e+01 1.150825e+01 1.135968e+01 1.103225e+01 1.091316e+01 1.060573e+01 1.044051e+01 1.013103e+01 9.909071e+00 9.645085e+00 9.381573e+00 9.177924e+00 8.854052e+00 8.711895e+00 8.335314e+00 8.255442e+00 7.811474e+00 7.744847e+00 7.229737e+00 7.185782e+00 6.687505e+00 6.691736e+00 6.236651e+00 6.202555e+00 5.760967e+00 5.633887e+00 5.265891e+00 5.065499e+00 4.828813e+00 4.530213e+00 4.417718e+00 3.991629e+00 4.000533e+00 3.453026e+00 3.557572e+00 2.895949e+00 3.053404e+00 2.345401e+00 2.535535e+00 1.875365e+00 1.988178e+00 1.432542e+00 1.279758e+00 1.157305e+00 -5.224441e-01 0 0 0 0 
0 0 0 0 0 0 0 0 0 0 0 0 0 0 0 0 0 0 0 0 0 0 0 0 0 0 0 0 0 0 0 0 0 0 0 0 0 0 0 0 0 0 0 0 0 0 0 0 0 0 0 0 0 0 0 0 0 0 0 0 0 0 0 0 0 0 0 0 0 0 0 0 0 0 0 0 0 0 0 0 0 0 0 0 0 0 0 0 0 0 0 0 0 0 0 0 0 0 0 0 0 0 0 0 0 0 0 0 0 0 0 0 0 0 0 0 0 0 0 0 0 0 0 0 0 0 0 0 
