# vtk DataFile Version 2.0
Comment goes here
ASCII

DATASET STRUCTURED_POINTS
FIELD FieldData 1
TIME 1 1 double
0.80000000
DIMENSIONS    128   16   1

ORIGIN    0.000   0.000   0.000
SPACING   0.0078125 0.015625   1.000

POINT_DATA   2048
SCALARS Omega double
LOOKUP_TABLE default

-3.911515e-06 -1.221687e-05 -2.048437e-05 -2.358233e-05 -1.678138e-05 -1.324949e-05 3.144138e-05 1.256417e-05 2.615433e-05 1.208811e-05 2.952754e-05 2.926419e-05 6.487643e-05 -8.814510e-05 4.064198e-05 4.275528e-05 -3.110941e-05 1.322030e-04 -6.466050e-05 8.418211e-05 1.787006e-04 -2.190792e-04 -1.078824e-04 -3.012562e-05 -3.581825e-05 -3.711219e-05 -6.291544e-05 -5.707382e-05 -8.521434e-05 -8.452499e-05 -1.140650e-04 -1.232762e-04 -1.522956e-04 -1.731514e-04 -2.002994e-04 -2.319768e-04 -2.545036e-04 -2.933809e-04 -3.055691e-04 -3.439615e-04 -3.365079e-04 -3.622218e-04 -3.223671e-04 -3.203882e-04 -2.330574e-04 -1.912797e-04 -4.965168e-05 8.748220e-06 1.232746e-04 -2.003069e-05 -3.840240e-04 -1.697400e-03 -5.056784e-03 -1.387761e-02 -2.749537e-02 -2.268497e-02 3.906744e-02 8.007816e-02 3.340995e-03 -6.376757e-02 -1.088129e-02 4.139542e-02 -2.387124e-02 -7.530929e-02 2.914454e-02 4.674659e-02 -7.284691e-02 -1.533807e-02 1.262975e-01 6.046007e-02 -6.030800e-02 -2.798001e-02 2.947283e-02 3.038809e-02 3.008585e-02 2.359318e-02 1.623396e-02 1.068090e-02 7.243135e-03 4.666123e-03 2.897074e-03 1.570080e-03 7.029760e-04 1.668761e-04 -1.596861e-04 -2.620936e-04 -3.418606e-04 -2.685093e-04 -2.801649e-04 -1.664802e-04 -1.842284e-04 -7.814914e-05 -1.173914e-04 -2.597336e-05 -8.111193e-05 -1.887804e-07 -6.273554e-05 1.147107e-05 -5.197551e-05 1.683562e-05 -4.342032e-05 1.971681e-05 -3.500204e-05 2.123533e-05 -2.666465e-05 2.133461e-05 -1.898370e-05 1.953662e-05 -1.279988e-05 1.537291e-05 -8.645804e-06 8.919122e-06 -6.293616e-06 1.318947e-06 -4.876455e-06 -6.064168e-06 -3.246589e-06 -1.172240e-05 6.633142e-07 -1.208991e-05 9.816269e-06 -2.428110e-05 2.680356e-05 5.363841e-05 2.507189e-05 1.074116e-05 8.472741e-06 3.407702e-06 
-5.214198e-03 -5.689543e-03 2.838698e-03 2.825735e-02 -1.021120e-01 -8.644802e-01 7.744335e-02 2.312223e-01 -2.115231e-01 -1.178800e-02 -1.055276e-01 2.177124e-01 -3.147475e-03 -3.135551e-01 -3.477550e-01 -5.021620e-02 -4.307093e-01 -1.794172e-01 -2.941896e-01 -4.216586e-01 -1.914301e-01 9.020325e-02 1.282910e-01 -5.277726e-02 -6.412425e-02 -8.549080e-02 -5.879183e-02 -8.322449e-02 -5.670758e-02 -8.413289e-02 -5.610668e-02 -8.478615e-02 -5.623926e-02 -8.479709e-02 -5.696114e-02 -8.409957e-02 -5.816859e-02 -8.276316e-02 -5.979491e-02 -8.089414e-02 -6.173402e-02 -7.861500e-02 -6.383113e-02 -7.604699e-02 -6.583169e-02 -7.320758e-02 -6.740813e-02 -6.989303e-02 -6.813060e-02 -6.589330e-02 -6.789957e-02 -6.324653e-02 -7.564700e-02 -8.219490e-02 -6.526285e-02 2.005116e-01 7.039608e-01 6.892071e-01 4.252104e-02 2.394944e-02 4.456748e-01 7.897754e-01 4.243668e-01 -1.160740e-01 9.165697e-01 1.068391e+00 -4.452559e-01 2.868551e-01 1.753012e+00 2.024169e-01 -1.534049e+00 -4.434712e-01 3.324721e-01 -2.316056e-02 -4.078777e-02 -2.747412e-02 -2.109363e-02 -4.570188e-02 -4.387872e-02 -5.941330e-02 -5.524039e-02 -6.501655e-02 -6.166005e-02 -6.706962e-02 -6.540493e-02 -6.751096e-02 -6.750645e-02 -6.749825e-02 -6.851077e-02 -6.765017e-02 -6.863676e-02 -6.827307e-02 -6.799182e-02 -6.947718e-02 -6.664083e-02 -7.126089e-02 -6.469002e-02 -7.351440e-02 -6.230726e-02 -7.605251e-02 -5.975416e-02 -7.854242e-02 -5.739028e-02 -8.057566e-02 -5.564844e-02 -8.166723e-02 -5.499643e-02 -8.130905e-02 -5.587823e-02 -7.899891e-02 -5.862321e-02 -7.426266e-02 -6.328881e-02 -6.656876e-02 -6.945823e-02 -5.512962e-02 -7.592415e-02 -3.811965e-02 -8.037589e-02 -9.448309e-03 -8.371658e-02 1.516102e-01 -9.651928e-02 -3.067156e-01 -5.341683e-02 -2.593982e-02 -1.562096e-02 -7.208944e-03 
-7.205371e-03 -4.388017e-03 6.279803e-02 3.411734e-01 -3.943478e-02 -2.599947e+00 5.152607e-01 9.074100e-01 -3.275388e-01 1.905818e-01 -1.039845e-01 3.137101e-01 -9.641897e-01 -2.691292e-02 -3.206737e-01 -3.985513e-02 -3.084965e-01 9.637262e-03 -3.097534e-01 -1.061178e-02 -2.878904e-01 -7.586221e-01 5.848754e-02 3.270811e-02 -2.571316e-02 -1.379777e-02 -1.472431e-02 -1.690948e-02 -5.495210e-04 -2.525249e-02 1.084510e-02 -3.430618e-02 2.031468e-02 -4.191465e-02 2.783084e-02 -4.700701e-02 3.258784e-02 -4.964160e-02 3.374530e-02 -4.956383e-02 3.142337e-02 -4.663834e-02 2.592868e-02 -4.116520e-02 1.789190e-02 -3.402046e-02 7.259999e-03 -2.669833e-02 -5.980418e-03 -2.055520e-02 -2.157593e-02 -1.889698e-02 -4.696476e-02 -3.127867e-02 8.553490e-03 4.425664e-01 9.565511e-01 6.951793e-01 5.136011e-02 5.420503e-01 3.456951e-01 1.415924e-01 4.994710e-01 9.917876e-02 1.074931e-01 5.352945e-01 -4.946805e-02 -7.567171e-02 4.262825e-01 2.598035e-01 1.312558e-01 9.207514e-01 8.123258e-01 1.806184e-02 -1.129671e-03 -7.649415e-03 5.294868e-02 -7.147226e-03 2.928094e-02 -1.278796e-02 1.418845e-02 -8.069168e-03 2.984355e-03 6.152822e-04 -6.513090e-03 9.667106e-03 -1.456335e-02 1.654931e-02 -2.076330e-02 2.009973e-02 -2.333580e-02 2.044030e-02 -2.095924e-02 1.685763e-02 -1.393881e-02 8.522869e-03 -2.864789e-03 -4.353578e-03 1.154094e-02 -2.054484e-02 2.839447e-02 -3.779729e-02 4.593168e-02 -5.391005e-02 6.126139e-02 -6.664192e-02 7.111972e-02 -7.317050e-02 7.311876e-02 -6.997437e-02 6.520242e-02 -5.492082e-02 4.499836e-02 -2.668214e-02 1.179943e-02 1.669829e-02 -3.360966e-02 8.032197e-02 -8.968798e-02 1.888228e-01 -1.792843e-01 7.718364e-01 -7.210271e-01 -7.493137e-01 7.985465e-01 1.151943e-01 -3.203828e-02 -1.667425e-02 
-5.371934e-03 -7.023951e-03 1.397323e-01 8.794551e-01 8.016204e-01 -1.788901e+00 8.671486e-02 4.278189e-01 1.246593e-02 1.351292e-01 4.484663e-02 4.072332e-03 6.183805e-01 2.706378e-01 3.232635e-01 2.660353e-01 3.455164e-01 2.613775e-01 3.158747e-01 3.151392e-01 2.311770e-01 7.101088e-01 -5.335595e-02 1.875337e-01 5.779855e-04 1.912186e-01 1.042037e-02 1.627408e-01 2.482018e-02 1.352604e-01 4.532851e-02 1.082196e-01 6.834234e-02 8.322107e-02 9.149580e-02 6.195557e-02 1.110431e-01 4.407310e-02 1.236435e-01 3.058529e-02 1.286245e-01 2.240221e-02 1.255804e-01 1.925562e-02 1.143707e-01 1.850753e-02 9.234040e-02 1.394936e-02 5.544008e-02 -2.345369e-03 -2.468486e-03 -4.202065e-02 -8.961963e-02 -1.175573e-01 -2.585164e-01 -4.825749e-01 -9.490223e-01 -7.763880e-01 -4.962190e-01 -6.035397e-01 -7.531091e-01 -6.548032e-01 -8.395424e-01 -3.649491e-01 -7.368519e-01 -9.059368e-01 -2.248542e-01 -3.417817e-01 -9.644604e-01 -5.144802e-01 1.798846e-01 -4.427360e-01 -4.170750e-01 -1.565848e-01 -5.975409e-02 -1.447493e-01 -4.489136e-02 -7.375180e-02 7.908706e-03 -1.157788e-02 3.343103e-02 3.621051e-02 4.196171e-02 7.538258e-02 4.020245e-02 1.069348e-01 3.259198e-02 1.297799e-01 2.277950e-02 1.438225e-01 1.700499e-02 1.511906e-01 1.994759e-02 1.504748e-01 3.141742e-02 1.392011e-01 5.069735e-02 1.171728e-01 7.707142e-02 8.668549e-02 1.099713e-01 5.203491e-02 1.468650e-01 1.690318e-02 1.823543e-01 -1.537225e-02 2.100881e-01 -3.982084e-02 2.260207e-01 -4.922782e-02 2.263351e-01 -3.992869e-02 2.046921e-01 -1.042282e-02 1.570131e-01 4.148159e-02 7.846284e-02 1.185292e-01 -4.496353e-02 2.366245e-01 -2.821092e-01 6.609545e-01 -2.062508e+00 -6.552025e-02 2.774425e+00 4.703961e-01 -2.255968e-02 -1.974040e-02 
1.636499e-03 4.017197e-03 1.299893e-01 7.741390e-01 1.406425e+00 1.682100e+00 -6.440101e-01 -7.051939e-01 4.926450e-01 -2.751362e-02 4.234844e-01 5.982012e-02 2.995306e-01 1.243412e-01 3.871481e-01 1.686363e-01 3.469918e-01 2.070131e-01 3.001582e-01 2.690678e-01 2.376560e-01 1.813552e-01 1.908096e-01 3.887145e-01 1.408488e-01 3.354173e-01 1.277750e-01 3.118190e-01 1.293062e-01 2.913834e-01 1.385372e-01 2.713850e-01 1.527363e-01 2.518383e-01 1.695469e-01 2.334384e-01 1.857271e-01 2.158145e-01 1.984477e-01 1.996280e-01 2.066130e-01 1.855180e-01 2.091501e-01 1.732857e-01 2.047909e-01 1.607077e-01 1.902568e-01 1.422520e-01 1.605678e-01 1.100541e-01 1.070732e-01 4.978026e-02 1.057176e-02 -7.360158e-02 -1.835803e-01 -2.905010e-01 -3.365074e-01 -3.153375e-01 -3.717166e-01 -4.675754e-01 -3.379386e-01 -5.663909e-02 -4.060086e-01 -4.905001e-01 -1.829056e-01 -1.503420e-01 -7.037362e-01 -5.459512e-01 1.011712e-01 -6.014245e-01 -9.606636e-01 -1.002231e+00 -7.257306e-01 -5.193466e-01 -2.742326e-01 -1.337291e-01 -4.172968e-02 7.473696e-03 5.593838e-02 8.961534e-02 1.100692e-01 1.438876e-01 1.393108e-01 1.822684e-01 1.531371e-01 2.104043e-01 1.570420e-01 2.305302e-01 1.549738e-01 2.442622e-01 1.520752e-01 2.540123e-01 1.522833e-01 2.591889e-01 1.560786e-01 2.580840e-01 1.636491e-01 2.501694e-01 1.752810e-01 2.364187e-01 1.915841e-01 2.187587e-01 2.120238e-01 1.985308e-01 2.342033e-01 1.766850e-01 2.550576e-01 1.553375e-01 2.729283e-01 1.383121e-01 2.859571e-01 1.273509e-01 2.899636e-01 1.231371e-01 2.817449e-01 1.274539e-01 2.575691e-01 1.430561e-01 2.117452e-01 1.819295e-01 1.522190e-01 2.173503e-02 -1.118908e+00 1.174737e+00 2.055653e+00 2.030344e-01 -5.921167e-02 -1.817355e-02 
2.443900e-03 -1.646223e-03 -4.489830e-03 1.216925e-01 7.153163e-01 1.981690e+00 -2.413405e-01 -5.034223e-01 3.845306e-01 5.075045e-02 4.263387e-01 3.013050e-01 -2.605177e-01 -9.434572e-02 5.403579e-02 4.475426e-02 5.192711e-02 4.851290e-02 4.720400e-02 5.411215e-02 -9.586714e-02 -1.992703e-01 3.000081e-01 2.698196e-01 1.859412e-01 2.473581e-01 1.961902e-01 2.547880e-01 1.971792e-01 2.543873e-01 1.961461e-01 2.520678e-01 1.960534e-01 2.488521e-01 1.971616e-01 2.448978e-01 1.990337e-01 2.400747e-01 2.010829e-01 2.341708e-01 2.026213e-01 2.268628e-01 2.027412e-01 2.175962e-01 2.001290e-01 2.052929e-01 1.930232e-01 1.881088e-01 1.791864e-01 1.638468e-01 1.560120e-01 1.290362e-01 1.153311e-01 8.586313e-02 2.245908e-01 8.188206e-01 1.705709e+00 1.210062e+00 3.856276e-01 1.060090e+00 7.756259e-01 1.616267e-01 8.802479e-01 6.620459e-01 2.357524e-01 5.675162e-01 6.875152e-01 2.063301e-01 3.349699e-01 5.286402e-01 5.666854e-01 1.390684e+00 1.339973e+00 3.080983e-01 1.912731e-02 8.987500e-02 9.936959e-02 1.336732e-01 1.328978e-01 1.622075e-01 1.625811e-01 1.846281e-01 1.842747e-01 1.995779e-01 1.986115e-01 2.093433e-01 2.073098e-01 2.160359e-01 2.118751e-01 2.211217e-01 2.135049e-01 2.255948e-01 2.131514e-01 2.298876e-01 2.114458e-01 2.340799e-01 2.089513e-01 2.380213e-01 2.062138e-01 2.414685e-01 2.038615e-01 2.439772e-01 2.025474e-01 2.449874e-01 2.028687e-01 2.438500e-01 2.053717e-01 2.400201e-01 2.105745e-01 2.331702e-01 2.188499e-01 2.232163e-01 2.303717e-01 2.106433e-01 2.456838e-01 1.973970e-01 2.671048e-01 1.885862e-01 3.033199e-01 1.948299e-01 3.909359e-01 -2.903133e-02 2.826954e-01 8.510999e-01 2.611543e-01 -3.639025e-02 -3.035861e-02 -4.574449e-03 
4.502984e-04 3.684802e-03 1.322270e-03 -7.856873e-04 4.768698e-02 2.076361e-01 8.416510e-02 1.765331e-02 8.349643e-02 9.455892e-02 2.655709e-01 5.443754e-01 -2.000928e-01 -3.080793e-01 4.406316e-03 4.514648e-03 4.810190e-03 4.663033e-03 4.622417e-03 4.655236e-03 -1.401927e-01 -8.825755e-02 2.852941e-01 5.932883e-02 2.401801e-02 4.925679e-02 5.824043e-02 6.922240e-02 6.713476e-02 7.282638e-02 6.856903e-02 7.270944e-02 6.824289e-02 7.166268e-02 6.761090e-02 7.042906e-02 6.693600e-02 6.904873e-02 6.607112e-02 6.731380e-02 6.470798e-02 6.489775e-02 6.244515e-02 6.141019e-02 5.886839e-02 5.655030e-02 5.384650e-02 5.059769e-02 4.837130e-02 4.586139e-02 4.689369e-02 4.957220e-02 5.988064e-02 9.301692e-02 2.468662e-01 6.221853e-01 8.415655e-01 3.679680e-01 1.834807e-01 6.647533e-01 4.414834e-01 4.599651e-01 7.411839e-01 5.374402e-01 7.456270e-01 6.913884e-01 7.030122e-01 7.734057e-01 9.491968e-01 8.120320e-01 2.279912e-01 1.179615e+00 1.667335e+00 7.215841e-01 2.125975e-01 1.064623e-01 8.098220e-02 6.794297e-02 5.754475e-02 5.449185e-02 5.284449e-02 5.430649e-02 5.554111e-02 5.767550e-02 5.945504e-02 6.113851e-02 6.272480e-02 6.382306e-02 6.500380e-02 6.570873e-02 6.641724e-02 6.700631e-02 6.719278e-02 6.793531e-02 6.753224e-02 6.865845e-02 6.758708e-02 6.927217e-02 6.746615e-02 6.982111e-02 6.725536e-02 7.030663e-02 6.703115e-02 7.070518e-02 6.686919e-02 7.097998e-02 6.685493e-02 7.110686e-02 6.710781e-02 7.112513e-02 6.784486e-02 7.125355e-02 6.953059e-02 7.212172e-02 7.317480e-02 7.516100e-02 8.072772e-02 8.274409e-02 9.436816e-02 9.607226e-02 1.182825e-01 1.150831e-01 1.453428e-01 8.489573e-02 -1.103330e-02 -2.235042e-02 -1.090659e-02 -3.774525e-03 
-1.632664e-03 -6.566423e-05 7.823500e-04 -4.453897e-04 -1.486004e-03 5.104370e-03 8.002670e-03 6.828822e-03 1.592599e-02 3.867594e-02 1.199853e-01 2.800244e-01 -1.124344e-01 -1.530468e-01 1.230815e-03 1.472860e-03 1.473341e-03 1.473305e-03 1.473114e-03 1.377042e-03 -5.807437e-02 -2.868288e-02 1.080770e-01 -2.373427e-02 -3.461926e-02 -1.943202e-02 -9.451983e-03 -4.210743e-03 -1.704925e-03 -1.741517e-04 3.467155e-04 6.905942e-04 5.893813e-04 5.409496e-04 2.887985e-04 9.827666e-05 -1.928647e-04 -4.908983e-04 -8.433414e-04 -1.291187e-03 -1.771912e-03 -2.425397e-03 -3.083761e-03 -3.930951e-03 -4.676434e-03 -5.450347e-03 -5.776301e-03 -5.559073e-03 -3.991670e-03 -4.626928e-04 6.306416e-03 1.709641e-02 3.294680e-02 6.559013e-02 1.751711e-01 3.945743e-01 3.851088e-01 -2.264605e-02 3.972397e-02 2.296178e-01 -1.183771e-01 1.819732e-01 2.638292e-01 -2.350726e-01 1.917980e-01 2.799939e-01 -2.315170e-01 2.561283e-02 3.560896e-01 -1.384563e-03 1.902426e-01 1.092835e+00 1.025690e+00 3.985277e-01 1.742462e-01 1.008961e-01 6.040640e-02 3.286590e-02 1.523061e-02 4.969265e-03 -7.209430e-04 -3.529764e-03 -4.680614e-03 -4.870638e-03 -4.532416e-03 -3.989064e-03 -3.324191e-03 -2.727475e-03 -2.126992e-03 -1.670609e-03 -1.223404e-03 -9.205626e-04 -6.133172e-04 -4.243674e-04 -2.225309e-04 -1.028424e-04 2.195335e-05 1.085674e-04 1.732900e-04 2.536620e-04 2.661750e-04 3.599571e-04 3.230587e-04 4.450863e-04 3.611704e-04 5.242978e-04 4.020170e-04 6.233862e-04 4.902413e-04 8.065887e-04 7.336773e-04 1.232616e-03 1.375405e-03 2.239471e-03 2.874158e-03 4.385053e-03 5.829403e-03 8.106845e-03 1.007807e-02 1.194865e-02 1.281965e-02 1.394800e-02 1.270303e-02 7.847805e-04 -5.522315e-03 -4.650911e-03 -3.566100e-03 -2.714078e-03 
-5.728233e-06 -2.651923e-06 8.438917e-07 3.638503e-06 6.300738e-06 7.207649e-06 7.231183e-06 7.578706e-06 7.693485e-06 6.177515e-06 9.406300e-06 3.685446e-05 6.121682e-05 -2.156554e-04 -3.490553e-07 -5.719247e-10 1.189959e-11 -2.094583e-11 -2.916740e-09 -1.765253e-06 -1.074288e-03 8.892430e-04 -1.150037e-04 1.877750e-04 1.696634e-04 8.187913e-05 8.474370e-06 -4.513717e-05 -9.200626e-05 -1.364127e-04 -1.830715e-04 -2.364905e-04 -2.987710e-04 -3.767473e-04 -4.711788e-04 -5.928220e-04 -7.414507e-04 -9.333649e-04 -1.166231e-03 -1.461478e-03 -1.809423e-03 -2.228818e-03 -2.687087e-03 -3.174948e-03 -3.601952e-03 -3.876036e-03 -3.789804e-03 -3.084156e-03 -1.366389e-03 1.871965e-03 7.172448e-03 1.484651e-02 2.424936e-02 3.692743e-02 7.406799e-02 1.838598e-01 3.291409e-01 2.927913e-01 1.687265e-01 6.275025e-02 -9.296710e-02 -3.515073e-02 2.442081e-02 -9.989102e-02 -3.995131e-02 5.212219e-02 2.139747e-02 5.405056e-02 1.269499e-02 1.921294e-02 3.929109e-01 6.488942e-01 4.319508e-01 1.912154e-01 1.197947e-01 8.260726e-02 5.265926e-02 3.096730e-02 1.665299e-02 7.673856e-03 2.217211e-03 -8.781933e-04 -2.494421e-03 -3.159806e-03 -3.279910e-03 -3.088807e-03 -2.750691e-03 -2.363637e-03 -1.976459e-03 -1.628142e-03 -1.318622e-03 -1.063473e-03 -8.467301e-04 -6.757198e-04 -5.329236e-04 -4.229041e-04 -3.314369e-04 -2.618805e-04 -2.040364e-04 -1.604035e-04 -1.241371e-04 -9.700059e-05 -7.456530e-05 -5.798800e-05 -4.444677e-05 -3.463664e-05 -2.676451e-05 -2.120259e-05 -1.683754e-05 -1.382874e-05 -1.155261e-05 -1.002165e-05 -8.986608e-06 -8.340378e-06 -8.096026e-06 -8.069861e-06 -8.391966e-06 -8.917345e-06 -9.782179e-06 -1.096259e-05 -1.252148e-05 -1.352861e-05 -1.480652e-05 -1.443816e-05 -1.416577e-05 -1.261983e-05 -1.105967e-05 -8.577029e-06 
1.623498e-03 6.333254e-05 -7.762195e-04 4.584658e-04 1.504563e-03 -5.085717e-03 -7.988663e-03 -6.809628e-03 -1.590722e-02 -3.865202e-02 -1.199376e-01 -2.798763e-01 1.126646e-01 1.525427e-01 -1.231624e-03 -1.472861e-03 -1.473340e-03 -1.473306e-03 -1.473122e-03 -1.381500e-03 5.538684e-02 2.963900e-02 -1.087165e-01 2.405822e-02 3.495122e-02 1.957815e-02 9.446573e-03 4.094318e-03 1.494110e-03 -1.315478e-04 -7.498782e-04 -1.212747e-03 -1.246099e-03 -1.375020e-03 -1.331308e-03 -1.420207e-03 -1.462738e-03 -1.609283e-03 -1.789904e-03 -2.036868e-03 -2.378309e-03 -2.750102e-03 -3.250535e-03 -3.726398e-03 -4.304513e-03 -4.732875e-03 -5.117717e-03 -5.093056e-03 -4.715619e-03 -3.530235e-03 -1.596749e-03 1.416342e-03 4.906846e-03 8.126175e-03 1.086714e-02 1.851286e-02 3.462960e-02 3.732687e-02 1.948881e-02 5.129666e-03 1.211265e-02 2.953957e-02 2.497124e-02 2.375942e-02 4.899280e-02 5.285838e-02 4.095240e-02 5.855715e-02 8.071807e-02 8.824473e-02 9.838324e-02 1.015252e-01 8.912242e-02 7.362060e-02 5.693234e-02 3.922805e-02 2.420553e-02 1.309673e-02 5.474932e-03 5.593695e-04 -2.418313e-03 -3.993455e-03 -4.675334e-03 -4.747024e-03 -4.503129e-03 -4.058811e-03 -3.570770e-03 -3.058962e-03 -2.606537e-03 -2.186481e-03 -1.848280e-03 -1.548256e-03 -1.319247e-03 -1.122240e-03 -9.722339e-04 -8.544289e-04 -7.516651e-04 -6.954577e-04 -6.134217e-04 -6.092747e-04 -5.273786e-04 -5.719921e-04 -4.751211e-04 -5.692113e-04 -4.484193e-04 -5.961261e-04 -4.525915e-04 -6.655149e-04 -5.215399e-04 -8.328455e-04 -7.558517e-04 -1.250973e-03 -1.393905e-03 -2.254235e-03 -2.891567e-03 -4.398320e-03 -5.846632e-03 -8.119585e-03 -1.009587e-02 -1.196306e-02 -1.284101e-02 -1.396369e-02 -1.273024e-02 -8.147765e-04 5.496686e-03 4.628551e-03 3.546698e-03 2.699102e-03 
-4.550917e-04 -3.679546e-03 -1.303334e-03 8.141382e-04 -4.765208e-02 -2.075420e-01 -8.420162e-02 -1.762271e-02 -8.348932e-02 -9.451546e-02 -2.655452e-01 -5.442225e-01 2.002444e-01 3.076015e-01 -4.403938e-03 -4.515633e-03 -4.807847e-03 -4.665114e-03 -4.623875e-03 -4.656189e-03 1.388324e-01 8.994667e-02 -2.856847e-01 -5.924125e-02 -2.393906e-02 -4.935226e-02 -5.845691e-02 -6.955902e-02 -6.758134e-02 -7.339051e-02 -6.928900e-02 -7.359020e-02 -6.936155e-02 -7.303736e-02 -6.935431e-02 -7.259405e-02 -6.968067e-02 -7.248528e-02 -7.042558e-02 -7.279183e-02 -7.163183e-02 -7.359970e-02 -7.336737e-02 -7.500896e-02 -7.569115e-02 -7.705937e-02 -7.854410e-02 -7.959392e-02 -8.160776e-02 -8.214892e-02 -8.427719e-02 -8.407191e-02 -8.599785e-02 -8.522521e-02 -8.738827e-02 -8.660169e-02 -8.818230e-02 -8.708301e-02 -9.021536e-02 -8.871022e-02 -8.782411e-02 -8.496312e-02 -8.631306e-02 -8.417535e-02 -8.174062e-02 -7.956612e-02 -7.994259e-02 -7.464480e-02 -6.960014e-02 -6.680891e-02 -6.503620e-02 -6.226290e-02 -6.200956e-02 -6.541592e-02 -6.969454e-02 -7.475624e-02 -7.800642e-02 -8.056904e-02 -8.138302e-02 -8.166029e-02 -8.098277e-02 -8.000778e-02 -7.879292e-02 -7.738185e-02 -7.619893e-02 -7.483648e-02 -7.389524e-02 -7.282588e-02 -7.209816e-02 -7.144076e-02 -7.077366e-02 -7.060443e-02 -6.979904e-02 -7.019233e-02 -6.905043e-02 -7.008594e-02 -6.843785e-02 -7.018729e-02 -6.791229e-02 -7.041487e-02 -6.746097e-02 -7.069596e-02 -6.709963e-02 -7.096229e-02 -6.686691e-02 -7.115166e-02 -6.682434e-02 -7.122352e-02 -6.707460e-02 -7.120645e-02 -6.782275e-02 -7.131085e-02 -6.952496e-02 -7.216122e-02 -7.318416e-02 -7.518375e-02 -8.074585e-02 -8.274722e-02 -9.438568e-02 -9.605244e-02 -1.182893e-01 -1.150180e-01 -1.453888e-01 -8.499256e-02 1.099502e-02 2.232552e-02 1.088958e-02 3.762994e-03 
-2.448402e-03 1.660437e-03 4.522957e-03 -1.216644e-01 -7.152579e-01 -1.980529e+00 2.407051e-01 5.033732e-01 -3.846388e-01 -5.057358e-02 -4.264179e-01 -3.005996e-01 2.612709e-01 9.373075e-02 -5.396392e-02 -4.477940e-02 -5.186874e-02 -4.855996e-02 -4.723977e-02 -5.408184e-02 9.441377e-02 1.994273e-01 -3.012132e-01 -2.700933e-01 -1.862843e-01 -2.475450e-01 -1.968641e-01 -2.550921e-01 -1.982605e-01 -2.549104e-01 -1.977348e-01 -2.530460e-01 -1.982974e-01 -2.506262e-01 -2.003785e-01 -2.479677e-01 -2.038528e-01 -2.452774e-01 -2.085031e-01 -2.427947e-01 -2.142004e-01 -2.409025e-01 -2.209758e-01 -2.400730e-01 -2.289199e-01 -2.407938e-01 -2.381522e-01 -2.434583e-01 -2.486438e-01 -2.481263e-01 -2.599779e-01 -2.542269e-01 -2.708875e-01 -2.599357e-01 -2.785289e-01 -2.611324e-01 -2.777662e-01 -2.588008e-01 -2.856523e-01 -2.678170e-01 -2.834649e-01 -2.661690e-01 -2.861540e-01 -2.778354e-01 -2.879733e-01 -2.770160e-01 -3.039765e-01 -2.932083e-01 -2.963179e-01 -3.051802e-01 -3.248434e-01 -3.150579e-01 -3.099656e-01 -3.079257e-01 -2.996211e-01 -2.956520e-01 -2.854852e-01 -2.806578e-01 -2.708845e-01 -2.659770e-01 -2.579537e-01 -2.535706e-01 -2.475039e-01 -2.441993e-01 -2.393872e-01 -2.378726e-01 -2.330089e-01 -2.342630e-01 -2.277480e-01 -2.329472e-01 -2.230766e-01 -2.334502e-01 -2.186600e-01 -2.353326e-01 -2.143676e-01 -2.380871e-01 -2.101992e-01 -2.411693e-01 -2.063977e-01 -2.440550e-01 -2.033996e-01 -2.461530e-01 -2.017106e-01 -2.468023e-01 -2.018512e-01 -2.453567e-01 -2.043573e-01 -2.412938e-01 -2.096819e-01 -2.342290e-01 -2.181145e-01 -2.240823e-01 -2.298478e-01 -2.113362e-01 -2.453231e-01 -1.978677e-01 -2.668762e-01 -1.888713e-01 -3.032345e-01 -1.949373e-01 -3.909328e-01 2.915236e-02 -2.829848e-01 -8.513184e-01 -2.610745e-01 3.632480e-02 3.031204e-02 4.555685e-03 
-1.655290e-03 -3.999383e-03 -1.299591e-01 -7.743727e-01 -1.407606e+00 -1.679441e+00 6.434571e-01 7.051623e-01 -4.928210e-01 2.738813e-02 -4.237202e-01 -5.959560e-02 -2.993027e-01 -1.245625e-01 -3.872095e-01 -1.688057e-01 -3.467049e-01 -2.074157e-01 -2.999464e-01 -2.692513e-01 -2.368303e-01 -1.816094e-01 -1.935369e-01 -3.867644e-01 -1.435818e-01 -3.326735e-01 -1.307503e-01 -3.092343e-01 -1.329567e-01 -2.899825e-01 -1.424362e-01 -2.715646e-01 -1.562548e-01 -2.539203e-01 -1.721500e-01 -2.379659e-01 -1.885285e-01 -2.249912e-01 -2.038084e-01 -2.154035e-01 -2.169492e-01 -2.103709e-01 -2.285341e-01 -2.107981e-01 -2.389285e-01 -2.168740e-01 -2.492137e-01 -2.288256e-01 -2.606606e-01 -2.465921e-01 -2.753007e-01 -2.705866e-01 -2.944100e-01 -2.983117e-01 -3.148310e-01 -3.220367e-01 -3.273633e-01 -3.351500e-01 -3.424523e-01 -3.516845e-01 -3.500493e-01 -3.547389e-01 -3.642067e-01 -3.699663e-01 -3.797360e-01 -3.721800e-01 -4.077908e-01 -3.902903e-01 -4.113196e-01 -3.996280e-01 -4.478250e-01 -4.058959e-01 -4.297170e-01 -3.805156e-01 -4.001975e-01 -3.442989e-01 -3.596928e-01 -3.092788e-01 -3.188713e-01 -2.824271e-01 -2.823289e-01 -2.657874e-01 -2.514280e-01 -2.586063e-01 -2.258205e-01 -2.578536e-01 -2.040808e-01 -2.603417e-01 -1.863752e-01 -2.640274e-01 -1.732063e-01 -2.666728e-01 -1.654578e-01 -2.672115e-01 -1.640518e-01 -2.638036e-01 -1.680760e-01 -2.548470e-01 -1.773904e-01 -2.409609e-01 -1.921439e-01 -2.232518e-01 -2.111273e-01 -2.024903e-01 -2.317976e-01 -1.800562e-01 -2.521807e-01 -1.589702e-01 -2.703358e-01 -1.417546e-01 -2.834400e-01 -1.305848e-01 -2.882947e-01 -1.260922e-01 -2.801806e-01 -1.288580e-01 -2.559625e-01 -1.436790e-01 -2.114635e-01 -1.822942e-01 -1.533616e-01 -2.054562e-02 1.112287e+00 -1.172314e+00 -2.052110e+00 -2.027708e-01 5.905309e-02 1.810212e-02 
5.346002e-03 7.022021e-03 -1.397099e-01 -8.797626e-01 -8.036673e-01 1.790024e+00 -8.594096e-02 -4.276594e-01 -1.245207e-02 -1.356990e-01 -4.478455e-02 -4.799742e-03 -6.182414e-01 -2.705970e-01 -3.224248e-01 -2.671597e-01 -3.438775e-01 -2.625831e-01 -3.153869e-01 -3.148691e-01 -2.341898e-01 -7.061283e-01 5.127136e-02 -1.839488e-01 -4.362587e-03 -1.868568e-01 -1.428035e-02 -1.587402e-01 -2.919692e-02 -1.330531e-01 -4.943872e-02 -1.080917e-01 -7.112868e-02 -8.528566e-02 -9.184137e-02 -6.655651e-02 -1.099619e-01 -5.372681e-02 -1.237415e-01 -4.697158e-02 -1.320904e-01 -4.732681e-02 -1.361774e-01 -5.526241e-02 -1.367804e-01 -7.009580e-02 -1.356758e-01 -9.126348e-02 -1.350257e-01 -1.181896e-01 -1.386575e-01 -1.520870e-01 -1.508153e-01 -1.923637e-01 -1.725649e-01 -2.361889e-01 -2.022012e-01 -2.723681e-01 -2.152463e-01 -2.812213e-01 -2.339254e-01 -2.908043e-01 -2.526201e-01 -2.845493e-01 -2.702563e-01 -2.898708e-01 -2.740421e-01 -2.708571e-01 -2.940969e-01 -2.501391e-01 -2.702752e-01 -2.209879e-01 -2.696556e-01 -1.919589e-01 -2.464710e-01 -1.633136e-01 -2.154596e-01 -1.410129e-01 -1.814323e-01 -1.282402e-01 -1.478707e-01 -1.253205e-01 -1.168867e-01 -1.306916e-01 -8.953218e-02 -1.402252e-01 -6.552916e-02 -1.497300e-01 -4.666518e-02 -1.566863e-01 -3.481178e-02 -1.583074e-01 -3.193461e-02 -1.536016e-01 -3.959616e-02 -1.406481e-01 -5.622143e-02 -1.181149e-01 -8.085626e-02 -8.819657e-02 -1.124898e-01 -5.410795e-02 -1.477805e-01 -1.880699e-02 -1.812345e-01 1.375202e-02 -2.081837e-01 3.728655e-02 -2.242584e-01 4.649773e-02 -2.243283e-01 3.706525e-02 -2.035130e-01 7.583768e-03 -1.556031e-01 -4.242400e-02 -7.664241e-02 -1.186583e-01 4.514532e-02 -2.366513e-01 2.803925e-01 -6.591222e-01 2.052060e+00 6.958450e-02 -2.768743e+00 -4.696862e-01 2.242499e-02 1.965868e-02 
7.182645e-03 4.357225e-03 -6.283726e-02 -3.413180e-01 3.851269e-02 2.599026e+00 -5.141579e-01 -9.072051e-01 3.277163e-01 -1.909367e-01 1.044052e-01 -3.137757e-01 9.657603e-01 2.525359e-02 3.215529e-01 3.950117e-02 3.083965e-01 -8.138309e-03 3.083381e-01 1.301829e-02 2.860093e-01 7.579371e-01 -6.076515e-02 -3.139291e-02 2.445144e-02 1.560771e-02 1.345495e-02 1.848192e-02 -7.823185e-04 2.611761e-02 -1.189073e-02 3.445154e-02 -2.067168e-02 4.137238e-02 -2.702211e-02 4.572320e-02 -3.079002e-02 4.686912e-02 -3.167155e-02 4.495475e-02 -2.956233e-02 3.994530e-02 -2.512551e-02 3.206859e-02 -1.889864e-02 2.197724e-02 -1.175993e-02 1.025154e-02 -4.755736e-03 -2.702037e-03 2.637272e-04 -1.759262e-02 6.415033e-04 -3.561586e-02 -6.725720e-03 -5.998861e-02 -2.718915e-02 -8.557106e-02 -2.961828e-02 -8.067536e-02 -3.958004e-02 -8.708797e-02 -4.595101e-02 -6.934715e-02 -4.932464e-02 -7.266480e-02 -3.127297e-02 -4.037283e-02 -4.517408e-02 -1.353823e-02 7.153097e-03 2.228277e-02 -3.310593e-03 2.881506e-02 -5.917493e-03 2.688839e-02 -8.428548e-03 2.175964e-02 -7.329929e-03 1.497793e-02 -3.085182e-03 7.106644e-03 3.045189e-03 -1.371933e-03 9.692417e-03 -9.258422e-03 1.595513e-02 -1.527317e-02 2.043117e-02 -1.861641e-02 2.192717e-02 -1.837126e-02 1.943682e-02 -1.429204e-02 1.230371e-02 -5.940924e-03 1.168806e-03 6.748243e-03 -1.328873e-02 2.243376e-02 -3.010364e-02 3.921732e-02 -4.729268e-02 5.511081e-02 -6.198236e-02 6.767000e-02 -7.152360e-02 7.363376e-02 -7.344883e-02 7.014808e-02 -6.529548e-02 5.483946e-02 -4.519736e-02 2.642905e-02 -1.174703e-02 -1.647243e-02 3.395992e-02 -7.997178e-02 8.961259e-02 -1.885502e-01 1.786636e-01 -7.711685e-01 7.167934e-01 7.512859e-01 -7.960987e-01 -1.148724e-01 3.199397e-02 1.664371e-02 
5.201025e-03 5.657706e-03 -2.888057e-03 -2.831256e-02 1.019859e-01 8.639595e-01 -7.704987e-02 -2.311397e-01 2.116357e-01 1.174148e-02 1.057300e-01 -2.176091e-01 3.679909e-03 3.121616e-01 3.470703e-01 5.151631e-02 4.280943e-01 1.814897e-01 2.917817e-01 4.199573e-01 1.971198e-01 -9.070977e-02 -1.291333e-01 5.275597e-02 6.407495e-02 8.559673e-02 5.870889e-02 8.325599e-02 5.662774e-02 8.408216e-02 5.605118e-02 8.466234e-02 5.620798e-02 8.460079e-02 5.697172e-02 8.382883e-02 5.826871e-02 8.243898e-02 6.004052e-02 8.059243e-02 6.222391e-02 7.848439e-02 6.475130e-02 7.632923e-02 6.754913e-02 7.433917e-02 7.052739e-02 7.266817e-02 7.350042e-02 7.122771e-02 7.589490e-02 6.926792e-02 7.620604e-02 6.443131e-02 7.016255e-02 5.209509e-02 6.015989e-02 4.856979e-02 6.428603e-02 5.031523e-02 6.239302e-02 5.427286e-02 6.572221e-02 5.980036e-02 7.018542e-02 6.762670e-02 8.439885e-02 8.465166e-02 9.570874e-02 1.160351e-01 1.359271e-01 1.346047e-01 1.240776e-01 1.186448e-01 1.050705e-01 1.022444e-01 9.090941e-02 9.062046e-02 8.204451e-02 8.257696e-02 7.661113e-02 7.701360e-02 7.361265e-02 7.338279e-02 7.216233e-02 7.115548e-02 7.143859e-02 6.993053e-02 7.083422e-02 6.950007e-02 6.997959e-02 6.979438e-02 6.868432e-02 7.078626e-02 6.688306e-02 7.241954e-02 6.461347e-02 7.456501e-02 6.201392e-02 7.699573e-02 5.933163e-02 7.938405e-02 5.690999e-02 8.131328e-02 5.516562e-02 8.230334e-02 5.455107e-02 8.184868e-02 5.549548e-02 7.945052e-02 5.831123e-02 7.462647e-02 6.305224e-02 6.685312e-02 6.929142e-02 5.533536e-02 7.581622e-02 3.824835e-02 8.031037e-02 9.508909e-03 8.369342e-02 -1.516114e-01 9.632866e-02 3.070674e-01 5.366507e-02 2.597331e-02 1.562472e-02 7.209424e-03 
