# vtk DataFile Version 2.0
Comment goes here
ASCII

DATASET STRUCTURED_POINTS
FIELD FieldData 1
TIME 1 1 double
0.58000000
DIMENSIONS    128   16   1

ORIGIN    0.000   0.000   0.000
SPACING   0.0078125 0.015625   1.000

POINT_DATA   2048
SCALARS P double
LOOKUP_TABLE default

-1.874287e-01 -1.900094e-01 -1.883945e-01 -1.932172e-01 -1.869944e-01 -1.956355e-01 -1.817862e-01 -1.964290e-01 -1.838514e-01 -1.946047e-01 -1.854245e-01 -1.912964e-01 -1.847790e-01 -1.852816e-01 -1.792213e-01 -1.756897e-01 -1.706083e-01 -1.626778e-01 -1.609579e-01 -1.500859e-01 -1.516815e-01 -1.418959e-01 -1.463102e-01 -1.385127e-01 -1.449032e-01 -1.370865e-01 -1.448808e-01 -1.365959e-01 -1.452555e-01 -1.366319e-01 -1.455129e-01 -1.369080e-01 -1.453717e-01 -1.372561e-01 -1.447809e-01 -1.376445e-01 -1.438634e-01 -1.381155e-01 -1.428084e-01 -1.386841e-01 -1.417528e-01 -1.392745e-01 -1.407495e-01 -1.397602e-01 -1.398146e-01 -1.400168e-01 -1.389432e-01 -1.399392e-01 -1.381394e-01 -1.395073e-01 -1.375026e-01 -1.388668e-01 -1.372556e-01 -1.382927e-01 -1.376542e-01 -1.381065e-01 -1.390245e-01 -1.389493e-01 -1.418668e-01 -1.390160e-01 -1.426385e-01 -1.403777e-01 -1.472043e-01 -1.427330e-01 -1.484912e-01 -1.475298e-01 -1.543450e-01 -1.478554e-01 -1.573567e-01 -1.548227e-01 -1.591627e-01 -1.534277e-01 -1.611156e-01 -1.575582e-01 -1.623600e-01 -1.601361e-01 -1.628303e-01 -1.619045e-01 -1.630142e-01 -1.631766e-01 -1.632369e-01 -1.641432e-01 -1.637687e-01 -1.649491e-01 -1.647901e-01 -1.656371e-01 -1.662952e-01 -1.661055e-01 -1.681066e-01 -1.662207e-01 -1.700239e-01 -1.659789e-01 -1.719474e-01 -1.655619e-01 -1.738681e-01 -1.652467e-01 -1.757588e-01 -1.652781e-01 -1.775113e-01 -1.658250e-01 -1.789511e-01 -1.669459e-01 -1.798248e-01 -1.685395e-01 -1.798618e-01 -1.704707e-01 -1.790241e-01 -1.727677e-01 -1.776145e-01 -1.755262e-01 -1.760503e-01 -1.786172e-01 -1.746176e-01 -1.815838e-01 -1.734887e-01 -1.838386e-01 -1.729335e-01 -1.849741e-01 -1.734487e-01 -1.849024e-01 -1.755841e-01 -1.838444e-01 -1.797752e-01 -1.819243e-01 -1.824114e-01 -1.835392e-01 -1.851702e-01 -1.865753e-01 
-1.714527e-01 -1.746531e-01 -1.720496e-01 -1.773796e-01 -1.698483e-01 -1.795303e-01 -1.620165e-01 -1.785840e-01 -1.649154e-01 -1.747997e-01 -1.675581e-01 -1.695471e-01 -1.689219e-01 -1.621819e-01 -1.684806e-01 -1.550114e-01 -1.664876e-01 -1.489054e-01 -1.631117e-01 -1.435408e-01 -1.579658e-01 -1.388241e-01 -1.519624e-01 -1.359844e-01 -1.486265e-01 -1.341723e-01 -1.468520e-01 -1.332560e-01 -1.458580e-01 -1.328140e-01 -1.449649e-01 -1.326702e-01 -1.440502e-01 -1.328382e-01 -1.429796e-01 -1.331092e-01 -1.417008e-01 -1.335724e-01 -1.405201e-01 -1.342843e-01 -1.393897e-01 -1.349107e-01 -1.381984e-01 -1.353485e-01 -1.370121e-01 -1.354112e-01 -1.356459e-01 -1.349091e-01 -1.342754e-01 -1.342258e-01 -1.334063e-01 -1.336797e-01 -1.331417e-01 -1.332798e-01 -1.335056e-01 -1.332515e-01 -1.347611e-01 -1.340998e-01 -1.366675e-01 -1.322705e-01 -1.373101e-01 -1.319291e-01 -1.386183e-01 -1.333286e-01 -1.387249e-01 -1.343542e-01 -1.416254e-01 -1.337284e-01 -1.421985e-01 -1.374580e-01 -1.447224e-01 -1.407973e-01 -1.505391e-01 -1.476786e-01 -1.534731e-01 -1.514310e-01 -1.543868e-01 -1.534204e-01 -1.543647e-01 -1.544962e-01 -1.541652e-01 -1.550753e-01 -1.541454e-01 -1.554564e-01 -1.547743e-01 -1.559950e-01 -1.561250e-01 -1.563422e-01 -1.576106e-01 -1.560942e-01 -1.590647e-01 -1.554907e-01 -1.606030e-01 -1.547688e-01 -1.621640e-01 -1.541925e-01 -1.638043e-01 -1.541026e-01 -1.654038e-01 -1.545436e-01 -1.666745e-01 -1.556226e-01 -1.675479e-01 -1.573855e-01 -1.676487e-01 -1.593622e-01 -1.665818e-01 -1.614858e-01 -1.648413e-01 -1.641398e-01 -1.629448e-01 -1.670666e-01 -1.609931e-01 -1.697927e-01 -1.593471e-01 -1.719157e-01 -1.583181e-01 -1.728300e-01 -1.583087e-01 -1.723897e-01 -1.602237e-01 -1.707360e-01 -1.647221e-01 -1.665545e-01 -1.671401e-01 -1.688320e-01 -1.695410e-01 -1.716821e-01 
-1.897481e-01 -1.902061e-01 -1.929067e-01 -1.945907e-01 -1.944681e-01 -1.987285e-01 -1.671762e-01 -2.016335e-01 -1.851415e-01 -1.980742e-01 -1.908399e-01 -1.981921e-01 -1.962851e-01 -1.930898e-01 -1.848554e-01 -1.824817e-01 -1.725718e-01 -1.616694e-01 -1.602163e-01 -1.409157e-01 -1.445096e-01 -1.343131e-01 -1.396455e-01 -1.351898e-01 -1.419814e-01 -1.348665e-01 -1.435067e-01 -1.348899e-01 -1.446231e-01 -1.349496e-01 -1.449117e-01 -1.351148e-01 -1.448725e-01 -1.357560e-01 -1.444987e-01 -1.364374e-01 -1.436630e-01 -1.374351e-01 -1.430973e-01 -1.389630e-01 -1.425696e-01 -1.402453e-01 -1.417409e-01 -1.411910e-01 -1.407806e-01 -1.414448e-01 -1.391319e-01 -1.405312e-01 -1.371224e-01 -1.393298e-01 -1.357823e-01 -1.382227e-01 -1.347422e-01 -1.363172e-01 -1.329626e-01 -1.326348e-01 -1.313568e-01 -1.405699e-01 -1.479272e-01 -1.304533e-01 -1.237027e-01 -1.345846e-01 -1.594484e-01 -1.324081e-01 -1.289423e-01 -1.680138e-01 -1.671017e-01 -1.216875e-01 -1.642228e-01 -1.928119e-01 -1.598394e-01 -1.313693e-01 -1.651764e-01 -1.650716e-01 -1.669682e-01 -1.649230e-01 -1.655020e-01 -1.651341e-01 -1.642825e-01 -1.653505e-01 -1.634828e-01 -1.654125e-01 -1.630718e-01 -1.654935e-01 -1.638367e-01 -1.663325e-01 -1.658992e-01 -1.670229e-01 -1.678637e-01 -1.665925e-01 -1.695544e-01 -1.656800e-01 -1.714362e-01 -1.646465e-01 -1.733672e-01 -1.638035e-01 -1.755688e-01 -1.637216e-01 -1.778891e-01 -1.642639e-01 -1.797907e-01 -1.656319e-01 -1.814605e-01 -1.680911e-01 -1.822364e-01 -1.705442e-01 -1.810852e-01 -1.728315e-01 -1.789739e-01 -1.759858e-01 -1.767489e-01 -1.795483e-01 -1.741969e-01 -1.828573e-01 -1.719138e-01 -1.856033e-01 -1.701990e-01 -1.866772e-01 -1.692694e-01 -1.858033e-01 -1.703662e-01 -1.845147e-01 -1.820311e-01 -1.743011e-01 -1.816620e-01 -1.802821e-01 -1.858337e-01 -1.854644e-01 
-1.764587e-01 -1.754115e-01 -1.830662e-01 -1.795961e-01 -1.927192e-01 -1.834157e-01 -1.320158e-01 -1.978477e-01 -1.793983e-01 -1.935798e-01 -1.895819e-01 -1.953710e-01 -1.977138e-01 -1.720636e-01 -1.493682e-01 -1.240941e-01 -9.593080e-02 -4.159462e-02 -4.089840e-02 3.828153e-02 2.473577e-02 6.574695e-02 5.226114e-02 6.179080e-02 4.924723e-02 5.810954e-02 4.600955e-02 5.410988e-02 4.259562e-02 4.985778e-02 3.916074e-02 4.534497e-02 3.554970e-02 4.054382e-02 3.184172e-02 3.573926e-02 2.827164e-02 3.101623e-02 2.472788e-02 2.645503e-02 2.141316e-02 2.244709e-02 1.852033e-02 1.903945e-02 1.595142e-02 1.619797e-02 1.375771e-02 1.386361e-02 1.167247e-02 1.156617e-02 9.198353e-03 9.040005e-03 6.384961e-03 6.554441e-03 3.701772e-03 4.346791e-03 -5.202329e-03 -4.287736e-02 -7.882058e-02 -2.848867e-02 -5.345272e-03 -5.832756e-02 -1.214432e-01 -3.808896e-02 -7.026160e-03 -1.566883e-01 -1.100172e-01 2.856627e-02 -9.128600e-02 -1.837859e-01 -2.705177e-02 6.111978e-02 -3.929269e-02 -4.770322e-02 -5.295552e-02 -5.095815e-02 -5.525482e-02 -5.502171e-02 -5.878724e-02 -5.975774e-02 -6.323277e-02 -6.485708e-02 -6.824307e-02 -7.014942e-02 -7.380056e-02 -7.564526e-02 -7.968336e-02 -8.077050e-02 -8.521101e-02 -8.505734e-02 -9.026372e-02 -8.877938e-02 -9.503018e-02 -9.217632e-02 -9.955792e-02 -9.554363e-02 -1.040993e-01 -9.931255e-02 -1.087972e-01 -1.036478e-01 -1.135600e-01 -1.087652e-01 -1.185394e-01 -1.148213e-01 -1.234553e-01 -1.213296e-01 -1.277730e-01 -1.279966e-01 -1.316210e-01 -1.349436e-01 -1.351530e-01 -1.417850e-01 -1.382019e-01 -1.480934e-01 -1.409936e-01 -1.536825e-01 -1.437671e-01 -1.582164e-01 -1.467576e-01 -1.617982e-01 -1.499949e-01 -1.689328e-01 -1.767511e-01 -1.617232e-01 -1.670277e-01 -1.661336e-01 -1.711849e-01 -1.708894e-01 
-1.952152e-01 -1.920478e-01 -2.043531e-01 -1.981549e-01 -2.173586e-01 -2.046808e-01 -1.841310e-01 -2.253767e-01 -2.253545e-01 -2.305031e-01 -2.404513e-01 -2.364611e-01 -2.532415e-01 -2.190519e-01 -1.114908e-01 -1.067265e-01 5.258796e-02 1.408531e-01 2.243735e-01 3.785559e-01 4.060110e-01 4.439974e-01 4.261286e-01 4.338779e-01 4.198734e-01 4.219132e-01 4.116225e-01 4.096998e-01 4.022368e-01 3.969942e-01 3.914968e-01 3.839948e-01 3.800398e-01 3.712984e-01 3.680399e-01 3.587442e-01 3.556621e-01 3.469060e-01 3.438212e-01 3.362447e-01 3.324452e-01 3.261888e-01 3.212787e-01 3.166631e-01 3.103958e-01 3.070779e-01 2.990199e-01 2.966202e-01 2.872229e-01 2.858654e-01 2.757895e-01 2.749481e-01 2.642523e-01 2.629085e-01 2.518013e-01 2.486920e-01 2.324605e-01 1.986478e-01 1.674210e-01 2.039533e-01 2.141431e-01 1.751007e-01 1.339549e-01 1.981413e-01 2.243471e-01 1.104925e-01 1.619600e-01 2.590561e-01 1.709809e-01 1.069453e-01 2.313985e-01 2.826625e-01 1.941269e-01 1.784553e-01 1.614491e-01 1.573697e-01 1.422106e-01 1.392809e-01 1.241955e-01 1.222152e-01 1.068144e-01 1.055106e-01 8.986986e-02 8.924271e-02 7.424155e-02 7.428820e-02 6.030215e-02 6.004123e-02 4.693727e-02 4.568873e-02 3.406251e-02 3.172304e-02 2.208426e-02 1.822953e-02 1.069315e-02 5.109236e-03 -1.834228e-04 -7.551563e-03 -1.099889e-02 -2.030400e-02 -2.242693e-02 -3.322721e-02 -3.438316e-02 -4.615755e-02 -4.740901e-02 -5.997716e-02 -6.225447e-02 -7.444133e-02 -7.771147e-02 -8.810607e-02 -9.280749e-02 -1.009546e-01 -1.076918e-01 -1.131825e-01 -1.219130e-01 -1.248234e-01 -1.355388e-01 -1.369428e-01 -1.488563e-01 -1.500869e-01 -1.606161e-01 -1.674399e-01 -1.866653e-01 -1.782052e-01 -1.821265e-01 -1.811478e-01 -1.879222e-01 -1.862670e-01 
-1.778085e-01 -1.795959e-01 -1.850091e-01 -1.869381e-01 -1.924567e-01 -1.954587e-01 -1.967867e-01 -2.096136e-01 -2.116196e-01 -2.209762e-01 -2.250694e-01 -2.316495e-01 -2.376441e-01 -2.403031e-01 -7.299190e-02 -5.890524e-02 9.748313e-02 1.289635e-01 2.750796e-01 3.097787e-01 4.626684e-01 4.689422e-01 4.534916e-01 4.570108e-01 4.427676e-01 4.439974e-01 4.320942e-01 4.310600e-01 4.213326e-01 4.180041e-01 4.099659e-01 4.049504e-01 3.982823e-01 3.922966e-01 3.863112e-01 3.798887e-01 3.740843e-01 3.680955e-01 3.622353e-01 3.572026e-01 3.506805e-01 3.467241e-01 3.392062e-01 3.365605e-01 3.278821e-01 3.263072e-01 3.162084e-01 3.154511e-01 3.043497e-01 3.045319e-01 2.930548e-01 2.938557e-01 2.822427e-01 2.830819e-01 2.717465e-01 2.722731e-01 2.614846e-01 2.607073e-01 2.540465e-01 2.569702e-01 2.486919e-01 2.479969e-01 2.396631e-01 2.457211e-01 2.390352e-01 2.282888e-01 2.321888e-01 2.302834e-01 2.155135e-01 2.110155e-01 2.136504e-01 2.077020e-01 1.883318e-01 1.837590e-01 1.698536e-01 1.673354e-01 1.535123e-01 1.518013e-01 1.375014e-01 1.364517e-01 1.217073e-01 1.210657e-01 1.061353e-01 1.058262e-01 9.150139e-02 9.140804e-02 7.807762e-02 7.732103e-02 6.500798e-02 6.294083e-02 5.222074e-02 4.867351e-02 4.002634e-02 3.464665e-02 2.822097e-02 2.087237e-02 1.678743e-02 7.505144e-03 5.422614e-03 -5.785192e-03 -6.387183e-03 -1.900891e-02 -1.858838e-02 -3.202385e-02 -3.162701e-02 -4.551164e-02 -4.611612e-02 -5.935159e-02 -6.119725e-02 -7.252022e-02 -7.613561e-02 -8.505546e-02 -9.101847e-02 -9.717865e-02 -1.054718e-01 -1.089691e-01 -1.194767e-01 -1.212103e-01 -1.331956e-01 -1.341987e-01 -1.460273e-01 -1.480510e-01 -1.589693e-01 -1.618101e-01 -1.644325e-01 -1.667968e-01 -1.709314e-01 -1.728993e-01 
-1.952507e-01 -1.949657e-01 -2.037029e-01 -2.039463e-01 -2.119356e-01 -2.140274e-01 -2.185812e-01 -2.261089e-01 -2.322508e-01 -2.376571e-01 -2.464416e-01 -2.499002e-01 -2.609415e-01 -2.637712e-01 -8.744201e-02 -7.778750e-02 9.086314e-02 1.157676e-01 2.753240e-01 3.026975e-01 4.675270e-01 4.690076e-01 4.539544e-01 4.551762e-01 4.418510e-01 4.415372e-01 4.303265e-01 4.281548e-01 4.189356e-01 4.149560e-01 4.073871e-01 4.019460e-01 3.956295e-01 3.892061e-01 3.836712e-01 3.767656e-01 3.715835e-01 3.647233e-01 3.595322e-01 3.531269e-01 3.475552e-01 3.418537e-01 3.356220e-01 3.307712e-01 3.237032e-01 3.196795e-01 3.116924e-01 3.083941e-01 2.996096e-01 2.969349e-01 2.875802e-01 2.853290e-01 2.756101e-01 2.735651e-01 2.637345e-01 2.618814e-01 2.522552e-01 2.512811e-01 2.427945e-01 2.389947e-01 2.325986e-01 2.287215e-01 2.200436e-01 2.180162e-01 2.105369e-01 2.055351e-01 1.990066e-01 1.959297e-01 1.869202e-01 1.841411e-01 1.759159e-01 1.733324e-01 1.658296e-01 1.643582e-01 1.541740e-01 1.523406e-01 1.406627e-01 1.389069e-01 1.263066e-01 1.247890e-01 1.116386e-01 1.103448e-01 9.699768e-02 9.583227e-02 8.270842e-02 8.147472e-02 6.891237e-02 6.723992e-02 5.549200e-02 5.303020e-02 4.239884e-02 3.890513e-02 2.963962e-02 2.491076e-02 1.713184e-02 1.106609e-02 4.774344e-03 -2.618767e-03 -7.607998e-03 -1.621878e-02 -2.022435e-02 -2.977075e-02 -3.319523e-02 -4.329137e-02 -4.666800e-02 -5.687696e-02 -6.071370e-02 -7.043956e-02 -7.508244e-02 -8.372566e-02 -8.948810e-02 -9.666910e-02 -1.037810e-01 -1.093149e-01 -1.177955e-01 -1.217520e-01 -1.314439e-01 -1.341645e-01 -1.446749e-01 -1.465818e-01 -1.573706e-01 -1.587825e-01 -1.697101e-01 -1.694798e-01 -1.784646e-01 -1.782047e-01 -1.868690e-01 -1.865308e-01 
-1.785038e-01 -1.819494e-01 -1.870432e-01 -1.912818e-01 -1.960691e-01 -2.016797e-01 -2.059941e-01 -2.136289e-01 -2.181798e-01 -2.265326e-01 -2.319605e-01 -2.407973e-01 -2.474715e-01 -2.573587e-01 -6.973177e-02 -6.947185e-02 1.088541e-01 1.158151e-01 2.903189e-01 2.978709e-01 4.756514e-01 4.770348e-01 4.603210e-01 4.613494e-01 4.467043e-01 4.467946e-01 4.341243e-01 4.330002e-01 4.221032e-01 4.197198e-01 4.102877e-01 4.068307e-01 3.984995e-01 3.942959e-01 3.866533e-01 3.820881e-01 3.747445e-01 3.702271e-01 3.628441e-01 3.587060e-01 3.509724e-01 3.474240e-01 3.391144e-01 3.362653e-01 3.272545e-01 3.250850e-01 3.153448e-01 3.137538e-01 3.033955e-01 3.022380e-01 2.914437e-01 2.904722e-01 2.793862e-01 2.782444e-01 2.669195e-01 2.651433e-01 2.534089e-01 2.503419e-01 2.379477e-01 2.348144e-01 2.258319e-01 2.223054e-01 2.148306e-01 2.124747e-01 2.048459e-01 2.042285e-01 1.960538e-01 1.953800e-01 1.880434e-01 1.877670e-01 1.791602e-01 1.771809e-01 1.700497e-01 1.683008e-01 1.586583e-01 1.570784e-01 1.459999e-01 1.447023e-01 1.327097e-01 1.316785e-01 1.191590e-01 1.182789e-01 1.056036e-01 1.046910e-01 9.225812e-02 9.104635e-02 7.920557e-02 7.732277e-02 6.637108e-02 6.346251e-02 5.370516e-02 4.950929e-02 4.119929e-02 3.553660e-02 2.881567e-02 2.162482e-02 1.650293e-02 7.847771e-03 4.159102e-03 -5.776063e-03 -8.351925e-03 -1.923486e-02 -2.113793e-02 -3.253371e-02 -3.431572e-02 -4.572323e-02 -4.792808e-02 -5.875427e-02 -6.181424e-02 -7.149652e-02 -7.576678e-02 -8.393757e-02 -8.964450e-02 -9.615933e-02 -1.033004e-01 -1.082731e-01 -1.165962e-01 -1.203901e-01 -1.293578e-01 -1.324645e-01 -1.413172e-01 -1.442316e-01 -1.522113e-01 -1.551281e-01 -1.615055e-01 -1.644375e-01 -1.701103e-01 -1.731719e-01 
-1.953213e-01 -1.960178e-01 -2.043327e-01 -2.058223e-01 -2.135885e-01 -2.164851e-01 -2.235902e-01 -2.282796e-01 -2.359778e-01 -2.410507e-01 -2.501343e-01 -2.554613e-01 -2.661214e-01 -2.726876e-01 -8.487572e-02 -8.153716e-02 9.766773e-02 1.077669e-01 2.836320e-01 2.931411e-01 4.738095e-01 4.738734e-01 4.579001e-01 4.577422e-01 4.440193e-01 4.430088e-01 4.313499e-01 4.291383e-01 4.193250e-01 4.158444e-01 4.075653e-01 4.029594e-01 3.958334e-01 3.903860e-01 3.840087e-01 3.780746e-01 3.720582e-01 3.659982e-01 3.599973e-01 3.541245e-01 3.478540e-01 3.423985e-01 3.356501e-01 3.307456e-01 3.233998e-01 3.190847e-01 3.111137e-01 3.073435e-01 2.988035e-01 2.954733e-01 2.864854e-01 2.834485e-01 2.741584e-01 2.712270e-01 2.617447e-01 2.586653e-01 2.489939e-01 2.453871e-01 2.353383e-01 2.311558e-01 2.217732e-01 2.168270e-01 2.088050e-01 2.039970e-01 1.938886e-01 1.918010e-01 1.822438e-01 1.780510e-01 1.704497e-01 1.685955e-01 1.600566e-01 1.594872e-01 1.532419e-01 1.523995e-01 1.439470e-01 1.428378e-01 1.328674e-01 1.317452e-01 1.207387e-01 1.197049e-01 1.080439e-01 1.070730e-01 9.509717e-02 9.405889e-02 8.208842e-02 8.076949e-02 6.910391e-02 6.724072e-02 5.615476e-02 5.348164e-02 4.322206e-02 3.952132e-02 3.029389e-02 2.543094e-02 1.737135e-02 1.130946e-02 4.449277e-03 -2.746488e-03 -8.500305e-03 -1.666305e-02 -2.152979e-02 -3.040019e-02 -3.470957e-02 -4.395059e-02 -4.809937e-02 -5.731025e-02 -6.170040e-02 -7.044969e-02 -7.544090e-02 -8.333522e-02 -8.921817e-02 -9.597850e-02 -1.029439e-01 -1.084491e-01 -1.165433e-01 -1.208260e-01 -1.299156e-01 -1.331179e-01 -1.429022e-01 -1.452057e-01 -1.552917e-01 -1.568191e-01 -1.668064e-01 -1.675419e-01 -1.769249e-01 -1.773304e-01 -1.862853e-01 -1.866669e-01 
-1.786400e-01 -1.821098e-01 -1.872253e-01 -1.914835e-01 -1.962929e-01 -2.019187e-01 -2.062517e-01 -2.138916e-01 -2.184425e-01 -2.267835e-01 -2.321814e-01 -2.410008e-01 -2.476357e-01 -2.575391e-01 -6.985674e-02 -6.963957e-02 1.087097e-01 1.155907e-01 2.900872e-01 2.975320e-01 4.752792e-01 4.765806e-01 4.599565e-01 4.609716e-01 4.464038e-01 4.465277e-01 4.339082e-01 4.328864e-01 4.220526e-01 4.198744e-01 4.105024e-01 4.072966e-01 3.989503e-01 3.949889e-01 3.872461e-01 3.829010e-01 3.753707e-01 3.710003e-01 3.633377e-01 3.592529e-01 3.512079e-01 3.476301e-01 3.390287e-01 3.360547e-01 3.268236e-01 3.244619e-01 3.146325e-01 3.127844e-01 3.024369e-01 3.009218e-01 2.902241e-01 2.888899e-01 2.781030e-01 2.768111e-01 2.661513e-01 2.647061e-01 2.542849e-01 2.525243e-01 2.423546e-01 2.398123e-01 2.301459e-01 2.268452e-01 2.176567e-01 2.145399e-01 2.052173e-01 2.025519e-01 1.937613e-01 1.911228e-01 1.827159e-01 1.805033e-01 1.721342e-01 1.711400e-01 1.630510e-01 1.618961e-01 1.525376e-01 1.514500e-01 1.410305e-01 1.402029e-01 1.289661e-01 1.284128e-01 1.166316e-01 1.162461e-01 1.042314e-01 1.037831e-01 9.184239e-02 9.100062e-02 7.946050e-02 7.787119e-02 6.705931e-02 6.435586e-02 5.454911e-02 5.042250e-02 4.188329e-02 3.618226e-02 2.912715e-02 2.183747e-02 1.634332e-02 7.576402e-03 3.564973e-03 -6.428431e-03 -9.216104e-03 -2.010193e-02 -2.211960e-02 -3.348209e-02 -3.526555e-02 -4.656957e-02 -4.864444e-02 -5.931258e-02 -6.216576e-02 -7.167774e-02 -7.569788e-02 -8.369670e-02 -8.915948e-02 -9.557183e-02 -1.025734e-01 -1.075659e-01 -1.158605e-01 -1.197455e-01 -1.287465e-01 -1.319797e-01 -1.409153e-01 -1.439688e-01 -1.520372e-01 -1.550509e-01 -1.614877e-01 -1.644779e-01 -1.701868e-01 -1.732834e-01 
-1.955457e-01 -1.953080e-01 -2.040856e-01 -2.043759e-01 -2.124119e-01 -2.145414e-01 -2.191301e-01 -2.266433e-01 -2.327461e-01 -2.380800e-01 -2.467612e-01 -2.501345e-01 -2.610847e-01 -2.639219e-01 -8.750080e-02 -7.790160e-02 9.078900e-02 1.154857e-01 2.750874e-01 3.021526e-01 4.668895e-01 4.683095e-01 4.532884e-01 4.545304e-01 4.412146e-01 4.409825e-01 4.297604e-01 4.278004e-01 4.186425e-01 4.150910e-01 4.076283e-01 4.027230e-01 3.964067e-01 3.905158e-01 3.848494e-01 3.784425e-01 3.729744e-01 3.664613e-01 3.607916e-01 3.545297e-01 3.483951e-01 3.426497e-01 3.358625e-01 3.307493e-01 3.232370e-01 3.188055e-01 3.106236e-01 3.067977e-01 2.980135e-01 2.946074e-01 2.853915e-01 2.823044e-01 2.729791e-01 2.701425e-01 2.609456e-01 2.581412e-01 2.491042e-01 2.460371e-01 2.371112e-01 2.335979e-01 2.248180e-01 2.208271e-01 2.121801e-01 2.080693e-01 1.993791e-01 1.955342e-01 1.869436e-01 1.832763e-01 1.748376e-01 1.717602e-01 1.632487e-01 1.608667e-01 1.521662e-01 1.502776e-01 1.408733e-01 1.394655e-01 1.292669e-01 1.283706e-01 1.174311e-01 1.169830e-01 1.054540e-01 1.053270e-01 9.344330e-02 9.338508e-02 8.137103e-02 8.102080e-02 6.915385e-02 6.816229e-02 5.675173e-02 5.473786e-02 4.402706e-02 4.065781e-02 3.092533e-02 2.607576e-02 1.760847e-02 1.129104e-02 4.233522e-03 -3.431329e-03 -9.073883e-03 -1.782454e-02 -2.223494e-02 -3.177610e-02 -3.538463e-02 -4.537230e-02 -4.868652e-02 -5.862402e-02 -6.212958e-02 -7.147519e-02 -7.565220e-02 -8.391363e-02 -8.915398e-02 -9.597835e-02 -1.026109e-01 -1.079578e-01 -1.161979e-01 -1.202375e-01 -1.299275e-01 -1.328828e-01 -1.435147e-01 -1.457225e-01 -1.567177e-01 -1.584325e-01 -1.695350e-01 -1.694666e-01 -1.785356e-01 -1.783624e-01 -1.870724e-01 -1.867899e-01 
-1.782725e-01 -1.801074e-01 -1.855728e-01 -1.875595e-01 -1.931589e-01 -1.962303e-01 -1.976743e-01 -2.105432e-01 -2.125957e-01 -2.218712e-01 -2.257912e-01 -2.321629e-01 -2.379609e-01 -2.406289e-01 -7.313200e-02 -5.913099e-02 9.732167e-02 1.285217e-01 2.745974e-01 3.087648e-01 4.614022e-01 4.673289e-01 4.521750e-01 4.557398e-01 4.417853e-01 4.430276e-01 4.311218e-01 4.302585e-01 4.207827e-01 4.182961e-01 4.107268e-01 4.066855e-01 4.000116e-01 3.948045e-01 3.885246e-01 3.829665e-01 3.766270e-01 3.711609e-01 3.642182e-01 3.593021e-01 3.516404e-01 3.476473e-01 3.390465e-01 3.359134e-01 3.263353e-01 3.241775e-01 3.139369e-01 3.125534e-01 3.015446e-01 3.002796e-01 2.886330e-01 2.874903e-01 2.761332e-01 2.754702e-01 2.650182e-01 2.645215e-01 2.548351e-01 2.538848e-01 2.446597e-01 2.427393e-01 2.336381e-01 2.305095e-01 2.215137e-01 2.178795e-01 2.093940e-01 2.057292e-01 1.975037e-01 1.938863e-01 1.855966e-01 1.823007e-01 1.739380e-01 1.713640e-01 1.624052e-01 1.603007e-01 1.503894e-01 1.490234e-01 1.382892e-01 1.378761e-01 1.263041e-01 1.266543e-01 1.143681e-01 1.154005e-01 1.028151e-01 1.041546e-01 9.139881e-02 9.234364e-02 7.979283e-02 7.996393e-02 6.818378e-02 6.692171e-02 5.601565e-02 5.256309e-02 4.292882e-02 3.724575e-02 2.954983e-02 2.171441e-02 1.616233e-02 6.279032e-03 2.982438e-03 -8.407441e-03 -9.589908e-03 -2.214367e-02 -2.213068e-02 -3.560233e-02 -3.528304e-02 -4.879471e-02 -4.879064e-02 -6.138273e-02 -6.247407e-02 -7.324389e-02 -7.591183e-02 -8.403107e-02 -8.886678e-02 -9.450869e-02 -1.023577e-01 -1.061176e-01 -1.167370e-01 -1.188873e-01 -1.310223e-01 -1.324959e-01 -1.447475e-01 -1.474078e-01 -1.587336e-01 -1.618515e-01 -1.646270e-01 -1.671029e-01 -1.712986e-01 -1.733227e-01 
-1.958212e-01 -1.927160e-01 -2.050943e-01 -1.990263e-01 -2.183951e-01 -2.059660e-01 -1.857221e-01 -2.269242e-01 -2.267218e-01 -2.315233e-01 -2.409828e-01 -2.364552e-01 -2.527443e-01 -2.182511e-01 -1.111489e-01 -1.060779e-01 5.307868e-02 1.407315e-01 2.248953e-01 3.771655e-01 4.053529e-01 4.429163e-01 4.247365e-01 4.324946e-01 4.183884e-01 4.203307e-01 4.097193e-01 4.079454e-01 4.006797e-01 3.965622e-01 3.917231e-01 3.856159e-01 3.818283e-01 3.742922e-01 3.709388e-01 3.629936e-01 3.595239e-01 3.516399e-01 3.473755e-01 3.400667e-01 3.349036e-01 3.286163e-01 3.222812e-01 3.169140e-01 3.093526e-01 3.051136e-01 2.967552e-01 2.934817e-01 2.841702e-01 2.810930e-01 2.709500e-01 2.681716e-01 2.583551e-01 2.564318e-01 2.476548e-01 2.462007e-01 2.381370e-01 2.363048e-01 2.284160e-01 2.258177e-01 2.178065e-01 2.137190e-01 2.052877e-01 2.007541e-01 1.928820e-01 1.879517e-01 1.800220e-01 1.756573e-01 1.672357e-01 1.628634e-01 1.547664e-01 1.516415e-01 1.425563e-01 1.399345e-01 1.301269e-01 1.284563e-01 1.180584e-01 1.176251e-01 1.065005e-01 1.070740e-01 9.522230e-02 9.674957e-02 8.452757e-02 8.659425e-02 7.395540e-02 7.574908e-02 6.298536e-02 6.416231e-02 5.183416e-02 5.166842e-02 3.974235e-02 3.736195e-02 2.626283e-02 2.173007e-02 1.231504e-02 5.786844e-03 -1.636209e-03 -1.005033e-02 -1.520791e-02 -2.488954e-02 -2.775816e-02 -3.845439e-02 -4.000096e-02 -5.167594e-02 -5.278012e-02 -6.460507e-02 -6.578625e-02 -7.686085e-02 -7.889511e-02 -8.836914e-02 -9.168381e-02 -9.869081e-02 -1.039321e-01 -1.087911e-01 -1.170682e-01 -1.205054e-01 -1.315995e-01 -1.337978e-01 -1.461769e-01 -1.482869e-01 -1.596437e-01 -1.675280e-01 -1.872643e-01 -1.788483e-01 -1.827232e-01 -1.817418e-01 -1.884924e-01 -1.868573e-01 
-1.772382e-01 -1.761858e-01 -1.838570e-01 -1.804769e-01 -1.937069e-01 -1.846223e-01 -1.334181e-01 -1.989222e-01 -1.798977e-01 -1.934933e-01 -1.889688e-01 -1.942747e-01 -1.962730e-01 -1.702097e-01 -1.474657e-01 -1.219106e-01 -9.386425e-02 -3.954872e-02 -3.896462e-02 3.975527e-02 2.601028e-02 6.671185e-02 5.228120e-02 6.128476e-02 4.783735e-02 5.628249e-02 4.367215e-02 5.160175e-02 3.985572e-02 4.703219e-02 3.642143e-02 4.285234e-02 3.371034e-02 3.928523e-02 3.155288e-02 3.597855e-02 2.948002e-02 3.267032e-02 2.726493e-02 2.918282e-02 2.457439e-02 2.527564e-02 2.127823e-02 2.104685e-02 1.746546e-02 1.653618e-02 1.313308e-02 1.191271e-02 8.740707e-03 7.811014e-03 4.828838e-03 4.373364e-03 1.122179e-03 1.058634e-03 -2.847185e-03 -2.409741e-03 -7.112815e-03 -6.059550e-03 -1.167354e-02 -9.448072e-03 -1.552800e-02 -1.276399e-02 -1.981241e-02 -1.653315e-02 -2.409689e-02 -2.147984e-02 -2.982626e-02 -2.648985e-02 -3.542284e-02 -3.310901e-02 -4.121152e-02 -3.874906e-02 -4.678305e-02 -4.502122e-02 -5.178349e-02 -5.068966e-02 -5.627087e-02 -5.584475e-02 -6.033148e-02 -6.039216e-02 -6.403687e-02 -6.452816e-02 -6.780778e-02 -6.857925e-02 -7.185371e-02 -7.259319e-02 -7.630899e-02 -7.684273e-02 -8.148331e-02 -8.149197e-02 -8.720314e-02 -8.627778e-02 -9.318356e-02 -9.123015e-02 -9.942567e-02 -9.642003e-02 -1.056572e-01 -1.016663e-01 -1.115731e-01 -1.069985e-01 -1.170507e-01 -1.123607e-01 -1.216842e-01 -1.174311e-01 -1.251923e-01 -1.223026e-01 -1.278735e-01 -1.273266e-01 -1.301261e-01 -1.327932e-01 -1.325423e-01 -1.390516e-01 -1.355854e-01 -1.457638e-01 -1.390022e-01 -1.521177e-01 -1.427407e-01 -1.578932e-01 -1.472223e-01 -1.630318e-01 -1.518823e-01 -1.712974e-01 -1.791126e-01 -1.635761e-01 -1.684579e-01 -1.672949e-01 -1.721468e-01 -1.717421e-01 
-1.902677e-01 -1.906994e-01 -1.933672e-01 -1.950619e-01 -1.949143e-01 -1.991954e-01 -1.675591e-01 -2.017198e-01 -1.847449e-01 -1.973373e-01 -1.898291e-01 -1.970810e-01 -1.950372e-01 -1.917113e-01 -1.834192e-01 -1.808968e-01 -1.710627e-01 -1.600608e-01 -1.586703e-01 -1.392598e-01 -1.429384e-01 -1.327315e-01 -1.388321e-01 -1.348516e-01 -1.425376e-01 -1.356844e-01 -1.446743e-01 -1.362053e-01 -1.463429e-01 -1.373511e-01 -1.476994e-01 -1.384104e-01 -1.476654e-01 -1.385931e-01 -1.463683e-01 -1.385200e-01 -1.446141e-01 -1.384047e-01 -1.425222e-01 -1.383180e-01 -1.407272e-01 -1.387224e-01 -1.394848e-01 -1.392458e-01 -1.385951e-01 -1.399265e-01 -1.384841e-01 -1.407646e-01 -1.384882e-01 -1.405190e-01 -1.376618e-01 -1.392405e-01 -1.371797e-01 -1.387001e-01 -1.384474e-01 -1.395089e-01 -1.411199e-01 -1.410077e-01 -1.442841e-01 -1.421369e-01 -1.464007e-01 -1.425273e-01 -1.480948e-01 -1.431499e-01 -1.499345e-01 -1.452455e-01 -1.530394e-01 -1.474381e-01 -1.556495e-01 -1.507718e-01 -1.580623e-01 -1.534257e-01 -1.600001e-01 -1.563163e-01 -1.608946e-01 -1.586037e-01 -1.613180e-01 -1.606641e-01 -1.615952e-01 -1.622260e-01 -1.617564e-01 -1.635159e-01 -1.625089e-01 -1.648761e-01 -1.638091e-01 -1.658187e-01 -1.654667e-01 -1.666006e-01 -1.679256e-01 -1.672767e-01 -1.704690e-01 -1.669794e-01 -1.724688e-01 -1.660712e-01 -1.744884e-01 -1.653058e-01 -1.765006e-01 -1.647753e-01 -1.783832e-01 -1.650938e-01 -1.803747e-01 -1.663719e-01 -1.815337e-01 -1.676394e-01 -1.809847e-01 -1.689358e-01 -1.792494e-01 -1.708582e-01 -1.768741e-01 -1.737363e-01 -1.748287e-01 -1.781827e-01 -1.738304e-01 -1.831578e-01 -1.727797e-01 -1.865509e-01 -1.714029e-01 -1.881001e-01 -1.711735e-01 -1.879498e-01 -1.726234e-01 -1.865856e-01 -1.838111e-01 -1.756747e-01 -1.827169e-01 -1.811290e-01 -1.865205e-01 -1.860595e-01 
-1.717737e-01 -1.749510e-01 -1.723255e-01 -1.776438e-01 -1.700884e-01 -1.797385e-01 -1.621544e-01 -1.785868e-01 -1.647380e-01 -1.744672e-01 -1.671140e-01 -1.690217e-01 -1.683365e-01 -1.614943e-01 -1.677531e-01 -1.541975e-01 -1.657155e-01 -1.480633e-01 -1.623733e-01 -1.427218e-01 -1.573050e-01 -1.381659e-01 -1.516502e-01 -1.358741e-01 -1.489031e-01 -1.345807e-01 -1.474324e-01 -1.339322e-01 -1.466998e-01 -1.339445e-01 -1.462189e-01 -1.341438e-01 -1.452836e-01 -1.341129e-01 -1.438103e-01 -1.340338e-01 -1.420983e-01 -1.339942e-01 -1.402630e-01 -1.340297e-01 -1.386028e-01 -1.342826e-01 -1.372465e-01 -1.345654e-01 -1.361340e-01 -1.348315e-01 -1.354162e-01 -1.350277e-01 -1.348515e-01 -1.346949e-01 -1.341457e-01 -1.339305e-01 -1.338344e-01 -1.335062e-01 -1.345116e-01 -1.336998e-01 -1.359939e-01 -1.341616e-01 -1.377124e-01 -1.342564e-01 -1.389577e-01 -1.341416e-01 -1.398595e-01 -1.343584e-01 -1.409343e-01 -1.353015e-01 -1.426660e-01 -1.367519e-01 -1.444469e-01 -1.392250e-01 -1.466168e-01 -1.422529e-01 -1.489980e-01 -1.456050e-01 -1.506456e-01 -1.484020e-01 -1.516326e-01 -1.506408e-01 -1.522084e-01 -1.522791e-01 -1.525875e-01 -1.535084e-01 -1.532187e-01 -1.545565e-01 -1.542213e-01 -1.553025e-01 -1.555631e-01 -1.558275e-01 -1.573459e-01 -1.561120e-01 -1.592186e-01 -1.558510e-01 -1.608949e-01 -1.552702e-01 -1.625595e-01 -1.547881e-01 -1.641779e-01 -1.545723e-01 -1.656420e-01 -1.549376e-01 -1.669370e-01 -1.559525e-01 -1.675834e-01 -1.572200e-01 -1.671397e-01 -1.587029e-01 -1.657991e-01 -1.606363e-01 -1.639310e-01 -1.631755e-01 -1.621157e-01 -1.664580e-01 -1.607857e-01 -1.698586e-01 -1.596670e-01 -1.722981e-01 -1.588397e-01 -1.734572e-01 -1.591438e-01 -1.733235e-01 -1.612056e-01 -1.716341e-01 -1.655238e-01 -1.672309e-01 -1.677114e-01 -1.693150e-01 -1.699530e-01 -1.720436e-01 
