# vtk DataFile Version 2.0
Comment goes here
ASCII

DATASET STRUCTURED_POINTS
FIELD FieldData 1
TIME 1 1 double
0.16000000
DIMENSIONS    128   16   1

ORIGIN    0.000   0.000   0.000
SPACING   0.0078125 0.015625   1.000

POINT_DATA   2048
SCALARS P double
LOOKUP_TABLE default

8.751560e-01 8.559289e-01 8.762436e-01 8.614891e-01 8.755017e-01 8.677210e-01 8.736645e-01 8.812512e-01 8.703608e-01 8.888810e-01 8.645902e-01 8.877696e-01 8.508093e-01 8.704230e-01 8.166502e-01 8.299587e-01 7.748589e-01 7.846099e-01 7.320395e-01 7.429339e-01 6.956908e-01 7.100316e-01 6.818779e-01 6.984204e-01 6.810430e-01 6.966336e-01 6.860860e-01 6.989945e-01 6.941688e-01 7.050465e-01 7.048082e-01 7.110161e-01 7.119929e-01 7.137477e-01 7.184236e-01 7.188696e-01 7.275318e-01 7.265214e-01 7.379185e-01 7.356681e-01 7.485684e-01 7.444263e-01 7.580539e-01 7.539098e-01 7.693262e-01 7.655063e-01 7.808370e-01 7.772186e-01 7.922766e-01 7.878948e-01 8.005097e-01 7.947093e-01 8.070310e-01 8.029945e-01 8.155581e-01 8.120022e-01 8.240624e-01 8.193253e-01 8.275368e-01 8.226173e-01 8.345047e-01 8.271560e-01 8.355254e-01 8.312025e-01 8.422167e-01 8.335519e-01 8.446773e-01 8.418013e-01 8.517659e-01 8.453920e-01 8.598290e-01 8.581548e-01 8.712439e-01 8.638362e-01 8.752203e-01 8.668758e-01 8.806240e-01 8.709052e-01 8.855679e-01 8.744842e-01 8.896180e-01 8.759382e-01 8.938830e-01 8.811577e-01 9.016233e-01 8.867116e-01 9.076109e-01 8.901183e-01 9.095301e-01 8.891952e-01 9.083449e-01 8.876182e-01 9.059580e-01 8.854174e-01 9.024526e-01 8.836874e-01 8.995439e-01 8.831940e-01 8.964400e-01 8.829125e-01 8.938414e-01 8.834578e-01 8.921487e-01 8.851182e-01 8.908504e-01 8.842122e-01 8.861524e-01 8.780883e-01 8.782742e-01 8.696064e-01 8.726060e-01 8.635749e-01 8.714295e-01 8.587203e-01 8.710056e-01 8.512144e-01 8.698398e-01 8.436782e-01 8.708265e-01 8.385196e-01 8.734133e-01 8.367381e-01 8.762777e-01 8.416971e-01 8.745193e-01 8.452880e-01 8.739783e-01 8.502105e-01 
7.310167e-01 7.162824e-01 7.288706e-01 7.169115e-01 7.249272e-01 7.165502e-01 7.186460e-01 7.285803e-01 7.143831e-01 7.345014e-01 7.125354e-01 7.354945e-01 7.132640e-01 7.314738e-01 7.162379e-01 7.331938e-01 7.236462e-01 7.369675e-01 7.335539e-01 7.413130e-01 7.427619e-01 7.438621e-01 7.456597e-01 7.470213e-01 7.493890e-01 7.474235e-01 7.485991e-01 7.446250e-01 7.527505e-01 7.528420e-01 7.656484e-01 7.586774e-01 7.661437e-01 7.539596e-01 7.670731e-01 7.568717e-01 7.732624e-01 7.599188e-01 7.762773e-01 7.630887e-01 7.822727e-01 7.687724e-01 7.881826e-01 7.747472e-01 7.944258e-01 7.802737e-01 7.990905e-01 7.887038e-01 8.095285e-01 7.980105e-01 8.126177e-01 7.982485e-01 8.148940e-01 8.056950e-01 8.215915e-01 8.116992e-01 8.260188e-01 8.123519e-01 8.191406e-01 8.050031e-01 8.185482e-01 8.065986e-01 8.171294e-01 8.065648e-01 8.200400e-01 8.066027e-01 8.184060e-01 8.109916e-01 8.231514e-01 8.135865e-01 8.288868e-01 8.250698e-01 8.409041e-01 8.295423e-01 8.397118e-01 8.281412e-01 8.424974e-01 8.307363e-01 8.447571e-01 8.317545e-01 8.437573e-01 8.258509e-01 8.411227e-01 8.285700e-01 8.487926e-01 8.342841e-01 8.539704e-01 8.372325e-01 8.532753e-01 8.307584e-01 8.453956e-01 8.236079e-01 8.376359e-01 8.164104e-01 8.287469e-01 8.095295e-01 8.207156e-01 8.046851e-01 8.133913e-01 8.015420e-01 8.079045e-01 7.977360e-01 8.004887e-01 7.954211e-01 7.951652e-01 7.906363e-01 7.857149e-01 7.785449e-01 7.701804e-01 7.633553e-01 7.593247e-01 7.555688e-01 7.585750e-01 7.516054e-01 7.565652e-01 7.401643e-01 7.504239e-01 7.285514e-01 7.493199e-01 7.212561e-01 7.489378e-01 7.145655e-01 7.481773e-01 7.149667e-01 7.384787e-01 7.141897e-01 7.334113e-01 7.149497e-01 
8.758930e-01 8.566157e-01 8.800361e-01 8.601547e-01 8.774451e-01 8.523113e-01 8.756964e-01 8.931342e-01 8.751576e-01 9.054085e-01 8.787513e-01 9.183286e-01 8.899193e-01 9.154293e-01 8.300884e-01 8.375358e-01 7.746912e-01 7.754034e-01 7.171134e-01 7.239010e-01 6.498137e-01 6.673326e-01 6.586662e-01 6.842130e-01 6.765802e-01 6.912538e-01 6.741708e-01 6.797450e-01 6.809044e-01 7.079686e-01 7.234746e-01 7.273497e-01 7.142586e-01 7.059327e-01 7.157702e-01 7.227032e-01 7.340461e-01 7.268732e-01 7.365885e-01 7.352923e-01 7.492126e-01 7.398612e-01 7.524679e-01 7.518697e-01 7.713704e-01 7.603146e-01 7.676854e-01 7.686487e-01 7.963096e-01 7.974284e-01 8.008334e-01 7.864355e-01 8.036054e-01 8.095273e-01 8.263211e-01 8.315642e-01 8.572615e-01 8.419545e-01 8.102128e-01 8.112849e-01 8.589298e-01 8.347863e-01 8.205647e-01 8.446367e-01 8.657998e-01 8.130390e-01 8.288287e-01 8.608454e-01 8.453013e-01 8.025917e-01 8.388816e-01 8.772808e-01 8.959844e-01 8.754096e-01 8.725809e-01 8.629669e-01 8.818260e-01 8.706621e-01 8.862602e-01 8.818226e-01 8.907183e-01 8.619812e-01 8.769802e-01 8.760527e-01 9.051227e-01 8.920936e-01 9.196144e-01 9.083954e-01 9.250850e-01 8.959309e-01 9.142670e-01 8.926126e-01 9.115277e-01 8.868662e-01 9.013967e-01 8.792487e-01 8.971728e-01 8.791543e-01 8.918870e-01 8.810470e-01 8.946095e-01 8.804876e-01 8.865032e-01 8.841854e-01 8.912662e-01 8.879419e-01 8.846493e-01 8.728881e-01 8.624717e-01 8.518209e-01 8.506731e-01 8.523084e-01 8.678639e-01 8.669119e-01 8.759553e-01 8.523432e-01 8.653092e-01 8.406052e-01 8.730409e-01 8.387112e-01 8.782367e-01 8.285546e-01 8.905762e-01 8.479190e-01 8.745934e-01 8.443568e-01 8.717578e-01 8.494707e-01 
7.307351e-01 7.195305e-01 7.362390e-01 7.208949e-01 7.341051e-01 7.079130e-01 7.658604e-01 8.013072e-01 7.879551e-01 8.182346e-01 8.039592e-01 8.315287e-01 8.163403e-01 7.765222e-01 5.806046e-01 4.746605e-01 3.374405e-01 2.145640e-01 8.198665e-02 -7.973882e-03 -1.929128e-01 -2.380400e-01 -2.240009e-01 -2.268584e-01 -2.063049e-01 -2.096757e-01 -2.043698e-01 -2.212498e-01 -1.940472e-01 -1.656131e-01 -1.163540e-01 -1.304255e-01 -1.443357e-01 -1.724554e-01 -1.363519e-01 -1.229598e-01 -9.528042e-02 -1.080328e-01 -7.734040e-02 -7.174701e-02 -4.940316e-02 -7.510135e-02 -5.657875e-02 -4.065201e-02 7.835071e-03 -3.744650e-03 2.239891e-03 8.668923e-03 6.949980e-02 8.670501e-02 9.294818e-02 6.913102e-02 9.632999e-02 1.061895e-01 1.272182e-01 1.327797e-01 1.741551e-01 1.161666e-01 -1.685182e-02 8.207341e-03 1.358495e-01 4.235970e-02 -2.211218e-02 7.553620e-02 1.194306e-01 -4.180786e-02 3.647708e-02 1.728660e-01 1.167733e-01 2.370828e-02 1.687819e-01 3.217370e-01 3.759772e-01 3.568620e-01 3.535738e-01 3.572209e-01 3.950313e-01 3.833576e-01 4.085411e-01 4.248419e-01 4.382249e-01 3.933247e-01 4.054303e-01 4.220491e-01 4.520756e-01 4.352196e-01 4.642247e-01 4.660533e-01 4.781282e-01 4.563526e-01 4.837170e-01 4.859900e-01 5.134575e-01 5.033448e-01 5.178398e-01 5.098909e-01 5.374470e-01 5.325711e-01 5.467507e-01 5.482830e-01 5.704301e-01 5.617450e-01 5.709092e-01 5.771840e-01 5.985514e-01 5.998007e-01 6.017210e-01 5.900475e-01 5.868809e-01 5.759339e-01 5.832015e-01 5.919766e-01 6.241916e-01 6.344117e-01 6.457853e-01 6.186112e-01 6.279357e-01 6.149700e-01 6.478284e-01 6.281762e-01 6.673991e-01 6.340842e-01 7.188706e-01 7.160301e-01 7.222510e-01 7.098921e-01 7.241385e-01 7.136598e-01 
8.765747e-01 8.716669e-01 9.106455e-01 9.039366e-01 9.472889e-01 9.401860e-01 1.028694e+00 1.046248e+00 1.099991e+00 1.098538e+00 1.161129e+00 1.144475e+00 1.214329e+00 1.137151e+00 4.786629e-01 1.111724e-01 -3.338722e-01 -7.509657e-01 -1.209486e+00 -1.511562e+00 -2.206759e+00 -2.237093e+00 -2.195440e+00 -2.194775e+00 -2.149802e+00 -2.138917e+00 -2.099183e+00 -2.094699e+00 -2.050951e+00 -2.022450e+00 -1.969976e+00 -1.965179e+00 -1.950376e+00 -1.948349e+00 -1.901288e+00 -1.869261e+00 -1.831700e+00 -1.812508e+00 -1.767344e+00 -1.734757e+00 -1.704948e+00 -1.700337e+00 -1.671830e+00 -1.627385e+00 -1.569741e+00 -1.544454e+00 -1.521619e+00 -1.491175e+00 -1.428887e+00 -1.386900e+00 -1.359821e+00 -1.349740e+00 -1.317569e+00 -1.296264e+00 -1.271675e+00 -1.257377e+00 -1.221512e+00 -1.257601e+00 -1.347355e+00 -1.302590e+00 -1.195878e+00 -1.252233e+00 -1.274038e+00 -1.174661e+00 -1.120633e+00 -1.211054e+00 -1.098754e+00 -9.605613e-01 -9.649167e-01 -9.883460e-01 -8.294147e-01 -6.908780e-01 -6.157886e-01 -5.994412e-01 -5.646208e-01 -5.367812e-01 -4.809365e-01 -4.714734e-01 -4.267848e-01 -3.948357e-01 -3.563257e-01 -3.688653e-01 -3.401840e-01 -3.165440e-01 -2.840032e-01 -2.857028e-01 -2.513611e-01 -2.337469e-01 -2.046658e-01 -1.917553e-01 -1.448729e-01 -1.127857e-01 -6.593941e-02 -4.527514e-02 -8.426626e-03 1.096009e-02 5.904456e-02 7.641058e-02 1.147117e-01 1.297282e-01 1.760750e-01 1.826303e-01 2.229431e-01 2.308490e-01 2.840407e-01 2.854034e-01 3.281421e-01 3.229126e-01 3.698259e-01 3.624712e-01 4.124157e-01 4.112518e-01 4.724624e-01 4.737041e-01 5.211903e-01 5.033657e-01 5.467104e-01 5.446873e-01 5.956259e-01 5.968981e-01 6.514467e-01 6.571501e-01 7.378872e-01 7.733239e-01 8.015836e-01 8.087292e-01 8.416077e-01 8.405920e-01 
7.345315e-01 7.403867e-01 7.735191e-01 7.805518e-01 8.187610e-01 8.318345e-01 8.821917e-01 8.926715e-01 9.439705e-01 9.470325e-01 1.000432e+00 9.965544e-01 1.050857e+00 1.038563e+00 2.534877e-01 1.658986e-01 -5.619794e-01 -6.715121e-01 -1.401071e+00 -1.477197e+00 -2.265280e+00 -2.269549e+00 -2.220853e+00 -2.224184e+00 -2.174148e+00 -2.171793e+00 -2.118595e+00 -2.115284e+00 -2.066166e+00 -2.063455e+00 -2.016811e+00 -2.014388e+00 -1.969892e+00 -1.964047e+00 -1.917013e+00 -1.905540e+00 -1.860988e+00 -1.846962e+00 -1.799261e+00 -1.782689e+00 -1.742141e+00 -1.730750e+00 -1.689614e+00 -1.666611e+00 -1.617701e+00 -1.595470e+00 -1.553030e+00 -1.532762e+00 -1.485345e+00 -1.461313e+00 -1.417340e+00 -1.398706e+00 -1.359203e+00 -1.344330e+00 -1.305949e+00 -1.291618e+00 -1.250402e+00 -1.237673e+00 -1.201204e+00 -1.176525e+00 -1.129825e+00 -1.112605e+00 -1.066528e+00 -1.042242e+00 -9.972806e-01 -9.772261e-01 -9.136873e-01 -8.821339e-01 -8.336628e-01 -8.108141e-01 -7.544565e-01 -7.365452e-01 -6.896714e-01 -6.753675e-01 -6.304836e-01 -6.144698e-01 -5.701110e-01 -5.587086e-01 -5.171337e-01 -5.016557e-01 -4.611526e-01 -4.520016e-01 -4.180085e-01 -4.075031e-01 -3.776018e-01 -3.702319e-01 -3.391348e-01 -3.257940e-01 -2.922093e-01 -2.726064e-01 -2.331061e-01 -2.091875e-01 -1.697176e-01 -1.481705e-01 -1.107096e-01 -9.085025e-02 -5.137043e-02 -3.397688e-02 3.819193e-03 1.713584e-02 5.676196e-02 6.783270e-02 1.081019e-01 1.142235e-01 1.579096e-01 1.608436e-01 2.044404e-01 2.068047e-01 2.547120e-01 2.553064e-01 3.024340e-01 3.003358e-01 3.465622e-01 3.450376e-01 3.900382e-01 3.889760e-01 4.323873e-01 4.362460e-01 4.774193e-01 4.866268e-01 5.292243e-01 5.474952e-01 5.896593e-01 6.173135e-01 6.508685e-01 6.648419e-01 6.956576e-01 7.036126e-01 
8.805374e-01 8.815338e-01 9.302794e-01 9.303010e-01 9.837278e-01 9.841540e-01 1.044657e+00 1.046203e+00 1.107272e+00 1.106127e+00 1.169177e+00 1.164982e+00 1.229751e+00 1.223999e+00 3.677573e-01 2.807122e-01 -5.148129e-01 -6.245139e-01 -1.425781e+00 -1.495257e+00 -2.366819e+00 -2.348559e+00 -2.306077e+00 -2.290159e+00 -2.247244e+00 -2.231394e+00 -2.188590e+00 -2.172840e+00 -2.130257e+00 -2.112902e+00 -2.070993e+00 -2.054701e+00 -2.015985e+00 -1.998621e+00 -1.958373e+00 -1.937098e+00 -1.897395e+00 -1.874913e+00 -1.835215e+00 -1.811047e+00 -1.773221e+00 -1.749667e+00 -1.711653e+00 -1.683865e+00 -1.643247e+00 -1.615376e+00 -1.576442e+00 -1.548041e+00 -1.506783e+00 -1.477989e+00 -1.439338e+00 -1.413666e+00 -1.375698e+00 -1.350345e+00 -1.312304e+00 -1.286844e+00 -1.246520e+00 -1.219000e+00 -1.178951e+00 -1.156285e+00 -1.112355e+00 -1.086197e+00 -1.044507e+00 -1.021997e+00 -9.781530e-01 -9.530585e-01 -9.054944e-01 -8.805275e-01 -8.301340e-01 -8.082666e-01 -7.622371e-01 -7.382819e-01 -6.875343e-01 -6.659151e-01 -6.189466e-01 -5.983699e-01 -5.519504e-01 -5.338803e-01 -4.898606e-01 -4.719922e-01 -4.305066e-01 -4.166377e-01 -3.777655e-01 -3.625469e-01 -3.245587e-01 -3.105730e-01 -2.725019e-01 -2.564907e-01 -2.178531e-01 -2.005041e-01 -1.593558e-01 -1.400796e-01 -9.800309e-02 -7.985484e-02 -3.787630e-02 -2.124540e-02 2.203372e-02 3.666280e-02 8.012796e-02 9.224233e-02 1.371958e-01 1.463993e-01 1.924079e-01 1.990832e-01 2.472637e-01 2.511531e-01 2.998989e-01 3.014276e-01 3.516939e-01 3.517834e-01 4.033311e-01 4.030478e-01 4.556546e-01 4.550697e-01 5.065425e-01 5.050103e-01 5.557971e-01 5.566246e-01 6.079650e-01 6.114949e-01 6.636570e-01 6.703806e-01 7.229447e-01 7.329176e-01 7.796856e-01 7.861402e-01 8.313122e-01 8.345187e-01 
7.377928e-01 7.476339e-01 7.856332e-01 7.955564e-01 8.365377e-01 8.473048e-01 8.920071e-01 9.030810e-01 9.501494e-01 9.617514e-01 1.010188e+00 1.024470e+00 1.073032e+00 1.094478e+00 2.361099e-01 2.273072e-01 -6.049483e-01 -6.242318e-01 -1.456665e+00 -1.463656e+00 -2.322276e+00 -2.299333e+00 -2.251470e+00 -2.237242e+00 -2.188409e+00 -2.178259e+00 -2.128905e+00 -2.120657e+00 -2.071787e+00 -2.064176e+00 -2.016119e+00 -2.008159e+00 -1.960974e+00 -1.951677e+00 -1.905103e+00 -1.893915e+00 -1.848302e+00 -1.835435e+00 -1.790591e+00 -1.776287e+00 -1.732735e+00 -1.717376e+00 -1.674147e+00 -1.656581e+00 -1.612815e+00 -1.594013e+00 -1.550502e+00 -1.531013e+00 -1.487149e+00 -1.467005e+00 -1.423426e+00 -1.403610e+00 -1.360492e+00 -1.341036e+00 -1.297869e+00 -1.278165e+00 -1.234374e+00 -1.213707e+00 -1.170125e+00 -1.152075e+00 -1.107100e+00 -1.089349e+00 -1.045263e+00 -1.026383e+00 -9.814003e-01 -9.630629e-01 -9.154084e-01 -8.973821e-01 -8.488743e-01 -8.307682e-01 -7.836337e-01 -7.650216e-01 -7.165766e-01 -6.995306e-01 -6.536021e-01 -6.376895e-01 -5.935760e-01 -5.786083e-01 -5.363340e-01 -5.215907e-01 -4.811576e-01 -4.670879e-01 -4.288101e-01 -4.147303e-01 -3.780933e-01 -3.638019e-01 -3.277845e-01 -3.122733e-01 -2.761010e-01 -2.592082e-01 -2.223355e-01 -2.046923e-01 -1.674829e-01 -1.503115e-01 -1.129128e-01 -9.693295e-02 -5.896297e-02 -4.473083e-02 -6.122985e-03 5.988233e-03 4.577567e-02 5.575624e-02 9.695802e-02 1.047118e-01 1.476223e-01 1.535487e-01 1.978711e-01 2.025195e-01 2.481322e-01 2.517545e-01 2.976787e-01 3.006203e-01 3.461227e-01 3.492511e-01 3.938044e-01 3.980267e-01 4.413062e-01 4.477684e-01 4.896425e-01 4.989838e-01 5.396433e-01 5.519926e-01 5.911152e-01 6.051813e-01 6.422008e-01 6.547545e-01 6.907108e-01 7.015148e-01 
8.823612e-01 8.843433e-01 9.350203e-01 9.362544e-01 9.901335e-01 9.913113e-01 1.048704e+00 1.050315e+00 1.109801e+00 1.112073e+00 1.173014e+00 1.177666e+00 1.239043e+00 1.250290e+00 3.497483e-01 3.205534e-01 -5.481487e-01 -5.889448e-01 -1.462526e+00 -1.480178e+00 -2.394818e+00 -2.362924e+00 -2.321430e+00 -2.297438e+00 -2.255198e+00 -2.234931e+00 -2.192415e+00 -2.173522e+00 -2.130990e+00 -2.112158e+00 -2.069984e+00 -2.050751e+00 -2.009378e+00 -1.989347e+00 -1.948662e+00 -1.927391e+00 -1.887475e+00 -1.865121e+00 -1.826050e+00 -1.802766e+00 -1.764512e+00 -1.740377e+00 -1.702375e+00 -1.676961e+00 -1.638529e+00 -1.612002e+00 -1.573135e+00 -1.545822e+00 -1.506246e+00 -1.478361e+00 -1.438167e+00 -1.410107e+00 -1.369014e+00 -1.340552e+00 -1.297924e+00 -1.268633e+00 -1.223636e+00 -1.192956e+00 -1.145165e+00 -1.117245e+00 -1.074074e+00 -1.047331e+00 -1.001771e+00 -9.787391e-01 -9.354561e-01 -9.108642e-01 -8.674935e-01 -8.490134e-01 -8.049156e-01 -7.845103e-01 -7.427060e-01 -7.273470e-01 -6.847677e-01 -6.679200e-01 -6.242267e-01 -6.064957e-01 -5.624728e-01 -5.446126e-01 -5.011219e-01 -4.834415e-01 -4.409034e-01 -4.236038e-01 -3.819454e-01 -3.646181e-01 -3.237062e-01 -3.065447e-01 -2.662327e-01 -2.491940e-01 -2.092155e-01 -1.923727e-01 -1.522385e-01 -1.357517e-01 -9.524472e-02 -7.961917e-02 -3.857525e-02 -2.431634e-02 1.752309e-02 3.003602e-02 7.293207e-02 8.357138e-02 1.280090e-01 1.367794e-01 1.830101e-01 1.899947e-01 2.381336e-01 2.434096e-01 2.931954e-01 2.969694e-01 3.481685e-01 3.507731e-01 4.028785e-01 4.045918e-01 4.569351e-01 4.580543e-01 5.100288e-01 5.111003e-01 5.625723e-01 5.644314e-01 6.155012e-01 6.187301e-01 6.694099e-01 6.741401e-01 7.240528e-01 7.297406e-01 7.780279e-01 7.828414e-01 8.305354e-01 8.338465e-01 
7.380174e-01 7.476673e-01 7.854729e-01 7.952273e-01 8.360082e-01 8.465760e-01 8.910365e-01 9.018685e-01 9.486966e-01 9.602124e-01 1.008595e+00 1.022986e+00 1.071616e+00 1.093064e+00 2.352740e-01 2.261889e-01 -6.052807e-01 -6.254086e-01 -1.456682e+00 -1.465107e+00 -2.321746e+00 -2.300377e+00 -2.251360e+00 -2.237951e+00 -2.188473e+00 -2.179213e+00 -2.129676e+00 -2.121541e+00 -2.071608e+00 -2.063045e+00 -2.013330e+00 -2.003792e+00 -1.954963e+00 -1.944421e+00 -1.896914e+00 -1.885162e+00 -1.839253e+00 -1.826583e+00 -1.782503e+00 -1.768933e+00 -1.726254e+00 -1.711540e+00 -1.669656e+00 -1.653640e+00 -1.611852e+00 -1.594286e+00 -1.552134e+00 -1.533297e+00 -1.490434e+00 -1.470246e+00 -1.426359e+00 -1.405235e+00 -1.360538e+00 -1.338925e+00 -1.293281e+00 -1.271087e+00 -1.224249e+00 -1.201653e+00 -1.153660e+00 -1.132493e+00 -1.086580e+00 -1.067214e+00 -1.021000e+00 -1.003201e+00 -9.578074e-01 -9.405605e-01 -8.955856e-01 -8.811016e-01 -8.370820e-01 -8.229649e-01 -7.794901e-01 -7.664920e-01 -7.230542e-01 -7.090623e-01 -6.649362e-01 -6.498798e-01 -6.059093e-01 -5.902563e-01 -5.472744e-01 -5.314677e-01 -4.898478e-01 -4.735941e-01 -4.330904e-01 -4.162407e-01 -3.769547e-01 -3.597727e-01 -3.219333e-01 -3.048980e-01 -2.683220e-01 -2.516131e-01 -2.159134e-01 -1.996561e-01 -1.641196e-01 -1.484435e-01 -1.126342e-01 -9.830910e-02 -6.211657e-02 -4.955264e-02 -1.230002e-02 -1.355801e-03 3.765491e-02 4.692881e-02 8.788692e-02 9.567377e-02 1.389975e-01 1.457164e-01 1.912530e-01 1.971761e-01 2.444117e-01 2.496778e-01 2.973340e-01 3.018426e-01 3.487318e-01 3.528843e-01 3.982899e-01 4.032110e-01 4.468818e-01 4.533918e-01 4.951944e-01 5.041581e-01 5.441447e-01 5.557397e-01 5.940182e-01 6.073946e-01 6.438053e-01 6.558978e-01 6.914692e-01 7.019882e-01 
8.808343e-01 8.814838e-01 9.299185e-01 9.295922e-01 9.826605e-01 9.826120e-01 1.042588e+00 1.043366e+00 1.103796e+00 1.102585e+00 1.165475e+00 1.161938e+00 1.226378e+00 1.221731e+00 3.661473e-01 2.794409e-01 -5.155617e-01 -6.264361e-01 -1.427616e+00 -1.499046e+00 -2.368233e+00 -2.352519e+00 -2.308464e+00 -2.292878e+00 -2.249416e+00 -2.234095e+00 -2.190816e+00 -2.174033e+00 -2.130049e+00 -2.111595e+00 -2.067376e+00 -2.046791e+00 -2.003216e+00 -1.982279e+00 -1.940826e+00 -1.918940e+00 -1.878516e+00 -1.855670e+00 -1.817331e+00 -1.794623e+00 -1.758199e+00 -1.735198e+00 -1.699938e+00 -1.676221e+00 -1.639999e+00 -1.613516e+00 -1.575813e+00 -1.548728e+00 -1.510469e+00 -1.481906e+00 -1.441299e+00 -1.411760e+00 -1.370080e+00 -1.340217e+00 -1.296350e+00 -1.265484e+00 -1.219473e+00 -1.188168e+00 -1.140478e+00 -1.111515e+00 -1.067005e+00 -1.042442e+00 -9.980558e-01 -9.742873e-01 -9.297178e-01 -9.080128e-01 -8.643148e-01 -8.459784e-01 -8.048933e-01 -7.894799e-01 -7.486166e-01 -7.340830e-01 -6.931208e-01 -6.779094e-01 -6.343619e-01 -6.164569e-01 -5.713820e-01 -5.524964e-01 -5.078527e-01 -4.895564e-01 -4.462573e-01 -4.271610e-01 -3.832493e-01 -3.630398e-01 -3.197909e-01 -2.996260e-01 -2.581374e-01 -2.397798e-01 -2.004175e-01 -1.834406e-01 -1.451877e-01 -1.294703e-01 -9.118893e-02 -7.606508e-02 -3.698981e-02 -2.358566e-02 1.576994e-02 2.667741e-02 6.706447e-02 7.620994e-02 1.191253e-01 1.271305e-01 1.731216e-01 1.801080e-01 2.292506e-01 2.350869e-01 2.868455e-01 2.915354e-01 3.456946e-01 3.497034e-01 4.050397e-01 4.075615e-01 4.620669e-01 4.627055e-01 5.157165e-01 5.160508e-01 5.678062e-01 5.683700e-01 6.191174e-01 6.215220e-01 6.722186e-01 6.771286e-01 7.278058e-01 7.365010e-01 7.822046e-01 7.878971e-01 8.324636e-01 8.351972e-01 
7.346107e-01 7.401769e-01 7.729743e-01 7.797133e-01 8.174607e-01 8.299841e-01 8.794431e-01 8.884047e-01 9.382427e-01 9.408922e-01 9.943913e-01 9.920356e-01 1.047141e+00 1.035383e+00 2.512879e-01 1.639611e-01 -5.622253e-01 -6.741824e-01 -1.402047e+00 -1.484269e+00 -2.265791e+00 -2.275907e+00 -2.221514e+00 -2.224000e+00 -2.172214e+00 -2.175916e+00 -2.127530e+00 -2.125726e+00 -2.072264e+00 -2.064939e+00 -2.010899e+00 -1.999897e+00 -1.947681e+00 -1.936716e+00 -1.887171e+00 -1.873689e+00 -1.826561e+00 -1.814014e+00 -1.772406e+00 -1.760549e+00 -1.721174e+00 -1.707733e+00 -1.669990e+00 -1.656511e+00 -1.618543e+00 -1.601105e+00 -1.561697e+00 -1.543825e+00 -1.503217e+00 -1.481328e+00 -1.436273e+00 -1.412052e+00 -1.366330e+00 -1.342930e+00 -1.295791e+00 -1.270392e+00 -1.220919e+00 -1.194784e+00 -1.142076e+00 -1.117921e+00 -1.072443e+00 -1.056002e+00 -1.009602e+00 -9.906979e-01 -9.432470e-01 -9.261665e-01 -8.795127e-01 -8.677153e-01 -8.293401e-01 -8.226350e-01 -7.831561e-01 -7.761777e-01 -7.368109e-01 -7.256086e-01 -6.799069e-01 -6.638350e-01 -6.166753e-01 -5.985657e-01 -5.533823e-01 -5.376852e-01 -4.958616e-01 -4.780189e-01 -4.348839e-01 -4.142089e-01 -3.713589e-01 -3.493706e-01 -3.104426e-01 -2.911626e-01 -2.557325e-01 -2.387053e-01 -2.070331e-01 -1.916425e-01 -1.595228e-01 -1.422616e-01 -1.084847e-01 -9.417314e-02 -6.246625e-02 -5.213632e-02 -1.903079e-02 -9.051284e-03 2.842616e-02 3.625910e-02 7.530149e-02 8.144328e-02 1.257937e-01 1.322141e-01 1.810227e-01 1.876634e-01 2.416378e-01 2.489474e-01 3.030878e-01 3.075559e-01 3.586997e-01 3.593759e-01 4.066387e-01 4.089767e-01 4.535707e-01 4.566703e-01 4.981823e-01 5.060618e-01 5.449195e-01 5.591617e-01 5.971680e-01 6.220983e-01 6.538721e-01 6.666719e-01 6.966839e-01 7.041125e-01 
8.763814e-01 8.712873e-01 9.101185e-01 9.032166e-01 9.463342e-01 9.389385e-01 1.026196e+00 1.038411e+00 1.088846e+00 1.087525e+00 1.152416e+00 1.137601e+00 1.209020e+00 1.131185e+00 4.794436e-01 1.153531e-01 -3.276950e-01 -7.501138e-01 -1.218776e+00 -1.524655e+00 -2.222571e+00 -2.251157e+00 -2.205025e+00 -2.197910e+00 -2.156746e+00 -2.151293e+00 -2.110121e+00 -2.095832e+00 -2.051047e+00 -2.035928e+00 -1.988130e+00 -1.959795e+00 -1.909044e+00 -1.890092e+00 -1.854169e+00 -1.833609e+00 -1.789608e+00 -1.761930e+00 -1.724592e+00 -1.704427e+00 -1.673201e+00 -1.654298e+00 -1.631030e+00 -1.618046e+00 -1.586124e+00 -1.551513e+00 -1.510956e+00 -1.488104e+00 -1.459003e+00 -1.429205e+00 -1.384280e+00 -1.352619e+00 -1.316330e+00 -1.288774e+00 -1.244301e+00 -1.211101e+00 -1.163252e+00 -1.121095e+00 -1.055942e+00 -1.019305e+00 -9.861689e-01 -9.783768e-01 -9.377237e-01 -9.093207e-01 -8.604466e-01 -8.377692e-01 -7.888704e-01 -7.726599e-01 -7.434390e-01 -7.407550e-01 -7.026356e-01 -6.944021e-01 -6.651967e-01 -6.610259e-01 -6.153627e-01 -5.912265e-01 -5.386331e-01 -5.138861e-01 -4.654605e-01 -4.525381e-01 -4.170017e-01 -3.983068e-01 -3.476304e-01 -3.210549e-01 -2.724395e-01 -2.438986e-01 -2.001240e-01 -1.837362e-01 -1.500101e-01 -1.344776e-01 -1.021663e-01 -9.054383e-02 -5.780637e-02 -4.076118e-02 -2.626369e-03 1.203997e-02 4.624780e-02 5.244301e-02 8.398076e-02 8.773635e-02 1.251990e-01 1.317430e-01 1.772986e-01 1.854197e-01 2.364218e-01 2.427329e-01 2.955649e-01 2.988761e-01 3.575354e-01 3.652694e-01 4.294622e-01 4.342295e-01 4.914744e-01 4.860558e-01 5.377263e-01 5.346235e-01 5.843363e-01 5.768663e-01 6.225176e-01 6.203502e-01 6.712866e-01 6.692245e-01 7.417159e-01 7.750910e-01 8.027231e-01 8.092499e-01 8.418577e-01 8.405498e-01 
7.293759e-01 7.187537e-01 7.358357e-01 7.210792e-01 7.346630e-01 7.093800e-01 7.668218e-01 7.972262e-01 7.813557e-01 8.142481e-01 8.031051e-01 8.322592e-01 8.165318e-01 7.784655e-01 5.839344e-01 4.817656e-01 3.442399e-01 2.200609e-01 8.298208e-02 -1.269786e-02 -2.064476e-01 -2.509000e-01 -2.378686e-01 -2.408548e-01 -2.269086e-01 -2.256736e-01 -1.995862e-01 -1.959242e-01 -1.764666e-01 -1.845988e-01 -1.605248e-01 -1.535502e-01 -1.198858e-01 -1.281080e-01 -1.152268e-01 -1.262291e-01 -9.398721e-02 -8.742748e-02 -5.360450e-02 -5.742451e-02 -3.202221e-02 -4.218976e-02 -2.879416e-02 -4.656349e-02 -1.817937e-02 -4.665480e-03 3.533107e-02 2.982811e-02 4.543862e-02 4.252137e-02 7.287934e-02 6.860470e-02 8.220784e-02 7.553600e-02 1.011785e-01 1.021042e-01 1.295531e-01 1.463433e-01 1.946682e-01 2.049357e-01 2.134984e-01 1.913480e-01 2.082316e-01 2.143525e-01 2.425868e-01 2.434681e-01 2.723583e-01 2.745085e-01 2.896247e-01 2.804464e-01 3.058511e-01 3.049464e-01 3.145082e-01 2.961604e-01 3.180743e-01 3.247359e-01 3.560602e-01 3.601356e-01 3.883243e-01 3.787950e-01 3.918047e-01 3.875848e-01 4.226932e-01 4.260879e-01 4.564837e-01 4.592202e-01 4.880943e-01 4.748486e-01 4.912223e-01 4.809658e-01 5.022990e-01 4.891835e-01 5.082106e-01 4.992752e-01 5.219065e-01 5.168671e-01 5.371933e-01 5.275118e-01 5.382185e-01 5.249950e-01 5.348653e-01 5.342639e-01 5.568204e-01 5.652967e-01 5.842809e-01 5.885554e-01 5.989786e-01 5.963542e-01 6.032728e-01 6.055572e-01 6.225791e-01 6.258553e-01 6.386453e-01 6.318404e-01 6.448884e-01 6.346489e-01 6.518728e-01 6.304816e-01 6.511695e-01 6.263560e-01 6.671225e-01 6.288361e-01 7.084189e-01 7.080312e-01 7.166425e-01 7.059086e-01 7.213109e-01 7.117036e-01 
8.747706e-01 8.559178e-01 8.797180e-01 8.601719e-01 8.779046e-01 8.532328e-01 8.770137e-01 8.930855e-01 8.753915e-01 9.071611e-01 8.821903e-01 9.210349e-01 8.920587e-01 9.181473e-01 8.345892e-01 8.424922e-01 7.799686e-01 7.800141e-01 7.217349e-01 7.281977e-01 6.514175e-01 6.661187e-01 6.523770e-01 6.729749e-01 6.619185e-01 6.853658e-01 6.858451e-01 7.034687e-01 6.972159e-01 7.024525e-01 6.999622e-01 7.076332e-01 7.127448e-01 7.120021e-01 7.103688e-01 7.049157e-01 7.159022e-01 7.201900e-01 7.381966e-01 7.375965e-01 7.525810e-01 7.460896e-01 7.564940e-01 7.474984e-01 7.663279e-01 7.702333e-01 7.942733e-01 7.899326e-01 8.010682e-01 7.938023e-01 8.070293e-01 7.970979e-01 8.024287e-01 7.935586e-01 8.048774e-01 7.992051e-01 8.110539e-01 8.128405e-01 8.308320e-01 8.289654e-01 8.339068e-01 8.215079e-01 8.278015e-01 8.245506e-01 8.355796e-01 8.304906e-01 8.420281e-01 8.413886e-01 8.543082e-01 8.515982e-01 8.675318e-01 8.673503e-01 8.761815e-01 8.628207e-01 8.721516e-01 8.668218e-01 8.812597e-01 8.729490e-01 8.884522e-01 8.756462e-01 8.876579e-01 8.748332e-01 8.968854e-01 8.849251e-01 9.051344e-01 8.899185e-01 9.118786e-01 8.891601e-01 9.063929e-01 8.850751e-01 9.072276e-01 8.851196e-01 9.048628e-01 8.820850e-01 9.011198e-01 8.831801e-01 9.026964e-01 8.863865e-01 8.989717e-01 8.814696e-01 8.894498e-01 8.819648e-01 8.962166e-01 8.963134e-01 9.040322e-01 9.013528e-01 9.003754e-01 8.927169e-01 8.852369e-01 8.775875e-01 8.765729e-01 8.701323e-01 8.719861e-01 8.611334e-01 8.690211e-01 8.502073e-01 8.657497e-01 8.372381e-01 8.621855e-01 8.248101e-01 8.673975e-01 8.179134e-01 8.804281e-01 8.408089e-01 8.695543e-01 8.408983e-01 8.693183e-01 8.478038e-01 
7.302684e-01 7.158117e-01 7.285880e-01 7.168347e-01 7.249993e-01 7.167636e-01 7.189878e-01 7.289024e-01 7.149553e-01 7.356406e-01 7.139415e-01 7.368690e-01 7.142436e-01 7.329951e-01 7.177951e-01 7.350172e-01 7.250257e-01 7.383122e-01 7.344024e-01 7.422726e-01 7.423548e-01 7.428326e-01 7.421468e-01 7.420618e-01 7.437716e-01 7.454614e-01 7.519196e-01 7.509585e-01 7.567759e-01 7.515250e-01 7.596818e-01 7.526092e-01 7.634055e-01 7.529400e-01 7.640831e-01 7.514799e-01 7.673388e-01 7.568319e-01 7.763580e-01 7.645187e-01 7.838070e-01 7.696453e-01 7.881694e-01 7.740263e-01 7.949097e-01 7.838066e-01 8.055404e-01 7.934161e-01 8.112662e-01 7.973982e-01 8.130540e-01 7.981335e-01 8.114539e-01 7.980806e-01 8.123646e-01 8.005496e-01 8.147747e-01 8.049798e-01 8.186849e-01 8.077079e-01 8.191113e-01 8.068345e-01 8.174522e-01 8.067442e-01 8.186929e-01 8.085497e-01 8.206983e-01 8.129237e-01 8.269380e-01 8.195150e-01 8.336142e-01 8.263144e-01 8.388032e-01 8.270838e-01 8.383939e-01 8.275218e-01 8.407211e-01 8.286756e-01 8.427184e-01 8.293832e-01 8.435621e-01 8.290937e-01 8.461636e-01 8.314682e-01 8.489943e-01 8.321797e-01 8.500215e-01 8.302549e-01 8.461672e-01 8.254297e-01 8.418900e-01 8.210260e-01 8.359128e-01 8.150467e-01 8.282437e-01 8.102310e-01 8.224266e-01 8.070649e-01 8.155369e-01 8.020390e-01 8.071460e-01 7.989167e-01 8.039559e-01 8.001502e-01 8.010243e-01 7.971979e-01 7.932210e-01 7.877117e-01 7.803851e-01 7.740774e-01 7.693639e-01 7.627246e-01 7.616821e-01 7.519177e-01 7.558268e-01 7.394573e-01 7.497060e-01 7.267653e-01 7.452999e-01 7.159477e-01 7.442637e-01 7.100722e-01 7.441624e-01 7.118875e-01 7.359870e-01 7.123357e-01 7.319761e-01 7.139265e-01 
