# vtk DataFile Version 2.0
Comment goes here
ASCII

DATASET STRUCTURED_POINTS
FIELD FieldData 1
TIME 1 1 double
0.72000000
DIMENSIONS    128   16   1

ORIGIN    0.000   0.000   0.000
SPACING   0.0078125 0.015625   1.000

POINT_DATA   2048
SCALARS P double
LOOKUP_TABLE default

-4.640967e-01 -4.514513e-01 -4.646497e-01 -4.532938e-01 -4.655245e-01 -4.559104e-01 -4.680115e-01 -4.638776e-01 -4.646108e-01 -4.696371e-01 -4.602480e-01 -4.712948e-01 -4.528825e-01 -4.654829e-01 -4.367864e-01 -4.470393e-01 -4.163180e-01 -4.264892e-01 -3.944152e-01 -4.066804e-01 -3.753853e-01 -3.885983e-01 -3.683356e-01 -3.821222e-01 -3.675372e-01 -3.805652e-01 -3.693837e-01 -3.810788e-01 -3.724664e-01 -3.824217e-01 -3.761000e-01 -3.839761e-01 -3.799021e-01 -3.854939e-01 -3.837180e-01 -3.869835e-01 -3.875179e-01 -3.885366e-01 -3.912560e-01 -3.902018e-01 -3.948405e-01 -3.920025e-01 -3.982061e-01 -3.939817e-01 -4.013234e-01 -3.961496e-01 -4.041304e-01 -3.984356e-01 -4.065466e-01 -4.007533e-01 -4.085514e-01 -4.030230e-01 -4.100943e-01 -4.049520e-01 -4.107320e-01 -4.055536e-01 -4.089828e-01 -4.022531e-01 -4.018347e-01 -3.978173e-01 -4.002599e-01 -3.942111e-01 -3.928284e-01 -3.901925e-01 -3.919216e-01 -3.840796e-01 -3.848236e-01 -3.850240e-01 -3.836858e-01 -3.791768e-01 -3.848308e-01 -3.879262e-01 -3.925059e-01 -3.917253e-01 -3.969035e-01 -3.936639e-01 -4.001615e-01 -3.951249e-01 -4.032099e-01 -3.966353e-01 -4.062681e-01 -3.983289e-01 -4.092512e-01 -4.002185e-01 -4.120315e-01 -4.023571e-01 -4.145632e-01 -4.048554e-01 -4.168559e-01 -4.077812e-01 -4.188868e-01 -4.110868e-01 -4.206171e-01 -4.146789e-01 -4.221031e-01 -4.184923e-01 -4.234930e-01 -4.224142e-01 -4.249174e-01 -4.262268e-01 -4.264870e-01 -4.296985e-01 -4.283752e-01 -4.326774e-01 -4.308115e-01 -4.350705e-01 -4.339697e-01 -4.367783e-01 -4.378735e-01 -4.377046e-01 -4.424156e-01 -4.378663e-01 -4.474363e-01 -4.374718e-01 -4.527229e-01 -4.368848e-01 -4.579439e-01 -4.365648e-01 -4.626171e-01 -4.370650e-01 -4.660976e-01 -4.391285e-01 -4.674539e-01 -4.450457e-01 -4.655812e-01 -4.474974e-01 -4.642174e-01 -4.494867e-01 
-3.844683e-01 -3.745840e-01 -3.832621e-01 -3.737569e-01 -3.827520e-01 -3.726029e-01 -3.842165e-01 -3.808968e-01 -3.798216e-01 -3.871165e-01 -3.775662e-01 -3.915542e-01 -3.779788e-01 -3.947878e-01 -3.817100e-01 -4.009682e-01 -3.875805e-01 -4.062531e-01 -3.942319e-01 -4.101479e-01 -4.006825e-01 -4.117530e-01 -4.037226e-01 -4.125931e-01 -4.059692e-01 -4.130532e-01 -4.079191e-01 -4.133935e-01 -4.098194e-01 -4.134912e-01 -4.115589e-01 -4.132289e-01 -4.131203e-01 -4.126855e-01 -4.145737e-01 -4.120817e-01 -4.160923e-01 -4.116896e-01 -4.176905e-01 -4.114489e-01 -4.190416e-01 -4.111603e-01 -4.200111e-01 -4.109856e-01 -4.207823e-01 -4.110825e-01 -4.212791e-01 -4.112411e-01 -4.212657e-01 -4.112736e-01 -4.206510e-01 -4.109688e-01 -4.191988e-01 -4.097880e-01 -4.162439e-01 -4.063239e-01 -4.095984e-01 -3.965130e-01 -3.943915e-01 -3.852711e-01 -3.863685e-01 -3.774072e-01 -3.768098e-01 -3.700051e-01 -3.736436e-01 -3.650034e-01 -3.669676e-01 -3.660734e-01 -3.678539e-01 -3.637655e-01 -3.688928e-01 -3.694614e-01 -3.755217e-01 -3.732399e-01 -3.790511e-01 -3.744187e-01 -3.809385e-01 -3.745742e-01 -3.823196e-01 -3.745600e-01 -3.835898e-01 -3.745383e-01 -3.845636e-01 -3.744542e-01 -3.851364e-01 -3.744790e-01 -3.853758e-01 -3.747851e-01 -3.852981e-01 -3.754682e-01 -3.849527e-01 -3.765738e-01 -3.843289e-01 -3.779554e-01 -3.834049e-01 -3.795467e-01 -3.824211e-01 -3.813361e-01 -3.815097e-01 -3.829979e-01 -3.806724e-01 -3.843014e-01 -3.802130e-01 -3.852298e-01 -3.803913e-01 -3.855603e-01 -3.812071e-01 -3.850692e-01 -3.827097e-01 -3.837543e-01 -3.848966e-01 -3.816447e-01 -3.875937e-01 -3.789296e-01 -3.906344e-01 -3.759920e-01 -3.936683e-01 -3.732037e-01 -3.961961e-01 -3.712300e-01 -3.977569e-01 -3.711069e-01 -3.971796e-01 -3.761682e-01 -3.906452e-01 -3.756329e-01 -3.866488e-01 -3.750796e-01 
-4.626429e-01 -4.515628e-01 -4.639254e-01 -4.516507e-01 -4.622077e-01 -4.453183e-01 -4.799160e-01 -4.682426e-01 -4.666893e-01 -4.781785e-01 -4.669125e-01 -4.876254e-01 -4.719002e-01 -4.909550e-01 -4.447978e-01 -4.507991e-01 -4.186955e-01 -4.244049e-01 -3.883258e-01 -4.024015e-01 -3.517675e-01 -3.671459e-01 -3.569546e-01 -3.727227e-01 -3.622625e-01 -3.763256e-01 -3.667822e-01 -3.793721e-01 -3.712527e-01 -3.818674e-01 -3.754122e-01 -3.836819e-01 -3.792910e-01 -3.850481e-01 -3.830727e-01 -3.864031e-01 -3.871750e-01 -3.882994e-01 -3.916688e-01 -3.904790e-01 -3.957783e-01 -3.923595e-01 -3.992454e-01 -3.943510e-01 -4.026669e-01 -3.969420e-01 -4.060243e-01 -3.998290e-01 -4.090451e-01 -4.030624e-01 -4.121611e-01 -4.072165e-01 -4.162900e-01 -4.135542e-01 -4.235622e-01 -4.248742e-01 -4.343783e-01 -4.095600e-01 -3.802519e-01 -3.951658e-01 -4.260853e-01 -3.961965e-01 -3.656036e-01 -3.971945e-01 -4.172061e-01 -3.510591e-01 -3.569362e-01 -4.092780e-01 -3.704468e-01 -3.133116e-01 -3.546522e-01 -4.065235e-01 -4.056387e-01 -3.995036e-01 -4.023055e-01 -3.960325e-01 -4.015623e-01 -3.951714e-01 -4.032447e-01 -3.960984e-01 -4.063325e-01 -3.978398e-01 -4.095644e-01 -3.996386e-01 -4.124252e-01 -4.016158e-01 -4.149838e-01 -4.039659e-01 -4.171861e-01 -4.067938e-01 -4.191364e-01 -4.102472e-01 -4.207992e-01 -4.140303e-01 -4.219999e-01 -4.180722e-01 -4.231737e-01 -4.225292e-01 -4.244654e-01 -4.268215e-01 -4.256690e-01 -4.306511e-01 -4.273427e-01 -4.342242e-01 -4.298803e-01 -4.371065e-01 -4.330508e-01 -4.388486e-01 -4.369573e-01 -4.395584e-01 -4.417367e-01 -4.392442e-01 -4.471520e-01 -4.380799e-01 -4.530967e-01 -4.365219e-01 -4.591341e-01 -4.347614e-01 -4.646769e-01 -4.333981e-01 -4.698526e-01 -4.308880e-01 -4.736212e-01 -4.518737e-01 -4.643766e-01 -4.482485e-01 -4.616072e-01 -4.493828e-01 
-3.805171e-01 -3.758653e-01 -3.805088e-01 -3.750900e-01 -3.751006e-01 -3.679035e-01 -4.344657e-01 -4.119482e-01 -4.107576e-01 -4.227049e-01 -4.166364e-01 -4.330851e-01 -4.232373e-01 -4.180148e-01 -3.125368e-01 -2.633236e-01 -1.957588e-01 -1.495040e-01 -6.395643e-02 -5.105766e-02 8.030130e-02 8.348679e-02 8.300293e-02 7.832071e-02 7.462164e-02 7.099222e-02 6.541580e-02 6.284776e-02 5.574801e-02 5.434391e-02 4.595672e-02 4.573542e-02 3.615399e-02 3.706344e-02 2.636945e-02 2.828282e-02 1.655139e-02 1.930307e-02 6.745970e-03 1.029532e-02 -2.728709e-03 1.507624e-03 -1.178959e-02 -7.207018e-03 -2.070257e-02 -1.608897e-02 -2.954778e-02 -2.516422e-02 -3.834687e-02 -3.461733e-02 -4.741786e-02 -4.484631e-02 -5.733525e-02 -5.655694e-02 -6.919186e-02 -7.129249e-02 -7.546975e-02 1.519674e-02 1.353182e-01 7.838003e-02 -6.515715e-03 1.043750e-01 1.981459e-01 7.979455e-02 2.372418e-02 2.436072e-01 1.786058e-01 -2.700102e-03 1.203845e-01 2.605374e-01 6.179690e-02 -1.307278e-01 -1.376380e-01 -1.395580e-01 -1.471724e-01 -1.444041e-01 -1.536535e-01 -1.507943e-01 -1.616386e-01 -1.585535e-01 -1.706480e-01 -1.671317e-01 -1.800312e-01 -1.760748e-01 -1.894049e-01 -1.852488e-01 -1.986291e-01 -1.945748e-01 -2.075747e-01 -2.039989e-01 -2.162349e-01 -2.135433e-01 -2.246263e-01 -2.231187e-01 -2.327745e-01 -2.327532e-01 -2.409452e-01 -2.425667e-01 -2.493072e-01 -2.524101e-01 -2.578792e-01 -2.621941e-01 -2.669088e-01 -2.719612e-01 -2.765368e-01 -2.814725e-01 -2.866403e-01 -2.904654e-01 -2.971849e-01 -2.988790e-01 -3.081283e-01 -3.066401e-01 -3.192981e-01 -3.137809e-01 -3.305957e-01 -3.204721e-01 -3.418697e-01 -3.267735e-01 -3.531276e-01 -3.325433e-01 -3.655790e-01 -3.301173e-01 -3.800466e-01 -3.839172e-01 -3.806248e-01 -3.755545e-01 -3.793138e-01 -3.747597e-01 
-4.603035e-01 -4.602535e-01 -4.756733e-01 -4.768121e-01 -4.915340e-01 -4.976863e-01 -5.630398e-01 -5.450622e-01 -5.732399e-01 -5.703741e-01 -6.021297e-01 -5.967080e-01 -6.306380e-01 -6.055519e-01 -2.678763e-01 -3.964608e-02 1.336281e-01 3.457932e-01 5.820784e-01 6.815849e-01 1.106221e+00 1.101288e+00 1.085366e+00 1.076081e+00 1.056604e+00 1.049343e+00 1.027938e+00 1.022407e+00 9.996475e-01 9.948783e-01 9.712702e-01 9.665100e-01 9.427960e-01 9.375498e-01 9.144724e-01 9.085320e-01 8.868386e-01 8.801441e-01 8.600997e-01 8.522856e-01 8.336262e-01 8.245159e-01 8.072406e-01 7.973262e-01 7.815656e-01 7.712522e-01 7.566518e-01 7.460790e-01 7.323806e-01 7.220694e-01 7.094670e-01 7.002900e-01 6.894013e-01 6.830291e-01 6.755303e-01 6.749004e-01 6.802320e-01 7.573375e-01 8.510825e-01 7.958221e-01 7.357202e-01 8.119919e-01 8.598950e-01 7.504061e-01 6.968645e-01 8.420433e-01 7.447788e-01 5.907863e-01 6.604227e-01 7.189428e-01 5.210957e-01 3.667983e-01 3.457686e-01 3.314403e-01 3.119689e-01 3.020445e-01 2.826532e-01 2.728849e-01 2.538397e-01 2.438914e-01 2.253310e-01 2.147209e-01 1.964659e-01 1.850242e-01 1.671594e-01 1.552113e-01 1.377720e-01 1.256924e-01 1.084300e-01 9.670630e-02 7.929473e-02 6.845254e-02 5.026609e-02 4.063655e-02 2.099615e-02 1.312515e-02 -8.332011e-03 -1.400429e-02 -3.782799e-02 -4.135548e-02 -6.789798e-02 -6.919266e-02 -9.814290e-02 -9.722595e-02 -1.282391e-01 -1.257121e-01 -1.583742e-01 -1.548983e-01 -1.883219e-01 -1.845093e-01 -2.177527e-01 -2.144384e-01 -2.466736e-01 -2.445464e-01 -2.749878e-01 -2.745480e-01 -3.029838e-01 -3.044814e-01 -3.313328e-01 -3.337077e-01 -3.610587e-01 -3.561215e-01 -3.939155e-01 -4.155891e-01 -4.252078e-01 -4.304498e-01 -4.440119e-01 -4.451938e-01 
-3.826354e-01 -3.863087e-01 -4.018752e-01 -4.063990e-01 -4.250962e-01 -4.330098e-01 -4.614942e-01 -4.599588e-01 -4.874900e-01 -4.845145e-01 -5.132829e-01 -5.081163e-01 -5.377572e-01 -5.283106e-01 -1.445581e-01 -9.769943e-02 2.579360e-01 3.096825e-01 6.736960e-01 7.040237e-01 1.100510e+00 1.102648e+00 1.079328e+00 1.079388e+00 1.054694e+00 1.054774e+00 1.028962e+00 1.029590e+00 1.002938e+00 1.003701e+00 9.765974e-01 9.770154e-01 9.500856e-01 9.497760e-01 9.236532e-01 9.224149e-01 8.977115e-01 8.954517e-01 8.723899e-01 8.688011e-01 8.471756e-01 8.421145e-01 8.218890e-01 8.157242e-01 7.969356e-01 7.899792e-01 7.722601e-01 7.646224e-01 7.476011e-01 7.396294e-01 7.231621e-01 7.153265e-01 6.993979e-01 6.924186e-01 6.773692e-01 6.722349e-01 6.586073e-01 6.584976e-01 6.397766e-01 6.171791e-01 5.930826e-01 5.846741e-01 5.555892e-01 5.293496e-01 5.047843e-01 4.999821e-01 4.533967e-01 4.365615e-01 4.211849e-01 4.059555e-01 3.615062e-01 3.554704e-01 3.462922e-01 3.455582e-01 3.314477e-01 3.272424e-01 3.109076e-01 3.045325e-01 2.875883e-01 2.797559e-01 2.628983e-01 2.537127e-01 2.370586e-01 2.266645e-01 2.103393e-01 1.991809e-01 1.831743e-01 1.717131e-01 1.557510e-01 1.445296e-01 1.282486e-01 1.178362e-01 1.006440e-01 9.145021e-02 7.273528e-02 6.529715e-02 4.471420e-02 3.944323e-02 1.655688e-02 1.343762e-02 -1.198471e-02 -1.293503e-02 -4.056901e-02 -3.949117e-02 -6.892245e-02 -6.646730e-02 -9.716690e-02 -9.409174e-02 -1.251335e-01 -1.221930e-01 -1.525909e-01 -1.507025e-01 -1.795672e-01 -1.795019e-01 -2.060188e-01 -2.083504e-01 -2.321731e-01 -2.372676e-01 -2.584330e-01 -2.659944e-01 -2.849073e-01 -2.940555e-01 -3.119588e-01 -3.250998e-01 -3.417866e-01 -3.490668e-01 -3.636758e-01 -3.682120e-01 
-4.630382e-01 -4.646888e-01 -4.881233e-01 -4.890108e-01 -5.157321e-01 -5.157917e-01 -5.487504e-01 -5.456754e-01 -5.776205e-01 -5.746103e-01 -6.065792e-01 -6.031617e-01 -6.353144e-01 -6.310349e-01 -2.072275e-01 -1.582555e-01 2.321355e-01 2.874925e-01 6.875845e-01 7.171514e-01 1.157755e+00 1.148579e+00 1.129957e+00 1.120865e+00 1.101034e+00 1.092715e+00 1.071803e+00 1.064330e+00 1.042596e+00 1.035677e+00 1.013473e+00 1.006727e+00 9.844753e-01 9.775557e-01 9.556788e-01 9.483243e-01 9.271843e-01 9.192084e-01 8.990133e-01 8.902641e-01 8.710611e-01 8.614915e-01 8.432742e-01 8.329922e-01 8.157005e-01 8.048581e-01 7.883188e-01 7.770541e-01 7.610542e-01 7.495203e-01 7.338453e-01 7.221233e-01 7.064790e-01 6.943908e-01 6.782140e-01 6.648268e-01 6.466946e-01 6.290532e-01 6.048780e-01 5.889206e-01 5.629916e-01 5.494496e-01 5.264745e-01 5.102890e-01 4.883059e-01 4.778325e-01 4.528362e-01 4.423224e-01 4.217069e-01 4.132674e-01 3.903837e-01 3.806846e-01 3.610408e-01 3.520037e-01 3.322092e-01 3.226505e-01 3.029580e-01 2.930042e-01 2.735635e-01 2.632304e-01 2.440900e-01 2.333541e-01 2.144630e-01 2.033817e-01 1.846593e-01 1.734241e-01 1.547285e-01 1.436142e-01 1.247094e-01 1.140508e-01 9.462937e-02 8.478223e-02 6.446991e-02 5.576114e-02 3.418476e-02 2.692366e-02 3.789645e-03 -1.801858e-03 -2.671981e-02 -3.057388e-02 -5.735675e-02 -5.950762e-02 -8.802037e-02 -8.863882e-02 -1.186016e-01 -1.180429e-01 -1.490505e-01 -1.477726e-01 -1.792848e-01 -1.777892e-01 -2.092261e-01 -2.080319e-01 -2.388618e-01 -2.384093e-01 -2.682146e-01 -2.688008e-01 -2.973882e-01 -2.991132e-01 -3.265286e-01 -3.292279e-01 -3.556977e-01 -3.591453e-01 -3.846946e-01 -3.905414e-01 -4.128095e-01 -4.171655e-01 -4.384701e-01 -4.412670e-01 
-3.840887e-01 -3.892188e-01 -4.080682e-01 -4.128902e-01 -4.335950e-01 -4.381855e-01 -4.612649e-01 -4.648012e-01 -4.888852e-01 -4.926140e-01 -5.168402e-01 -5.224441e-01 -5.457195e-01 -5.559463e-01 -1.347679e-01 -1.299698e-01 2.786437e-01 2.879552e-01 6.972501e-01 7.004611e-01 1.121779e+00 1.112101e+00 1.089682e+00 1.083769e+00 1.060136e+00 1.056528e+00 1.031971e+00 1.029764e+00 1.004600e+00 1.003098e+00 9.776861e-01 9.763274e-01 9.510634e-01 9.494094e-01 9.246750e-01 9.224059e-01 8.985170e-01 8.954117e-01 8.725549e-01 8.684637e-01 8.466897e-01 8.415677e-01 8.208490e-01 8.147734e-01 7.950102e-01 7.881142e-01 7.691118e-01 7.615437e-01 7.430596e-01 7.349880e-01 7.167690e-01 7.083359e-01 6.900963e-01 6.813281e-01 6.626866e-01 6.533062e-01 6.336063e-01 6.228425e-01 6.024353e-01 5.950520e-01 5.724095e-01 5.634757e-01 5.418250e-01 5.320115e-01 5.094279e-01 4.993381e-01 4.768840e-01 4.671248e-01 4.428152e-01 4.332862e-01 4.109240e-01 4.014148e-01 3.758818e-01 3.674065e-01 3.457274e-01 3.378742e-01 3.180074e-01 3.099326e-01 2.911285e-01 2.825179e-01 2.644501e-01 2.552103e-01 2.376683e-01 2.278657e-01 2.106658e-01 2.005095e-01 1.834341e-01 1.732276e-01 1.559914e-01 1.460970e-01 1.283583e-01 1.191576e-01 1.005375e-01 9.239010e-02 7.253247e-02 6.575865e-02 4.438834e-02 3.920889e-02 1.614580e-02 1.262974e-02 -1.215459e-02 -1.407528e-02 -4.041090e-02 -4.096049e-02 -6.851496e-02 -6.809387e-02 -9.639880e-02 -9.552898e-02 -1.240017e-01 -1.232653e-01 -1.512851e-01 -1.512671e-01 -1.782547e-01 -1.794511e-01 -2.049435e-01 -2.076900e-01 -2.314281e-01 -2.358419e-01 -2.577990e-01 -2.637204e-01 -2.840884e-01 -2.911095e-01 -3.102432e-01 -3.178280e-01 -3.360513e-01 -3.428133e-01 -3.604664e-01 -3.662623e-01 
-4.639696e-01 -4.657578e-01 -4.907800e-01 -4.917310e-01 -5.189003e-01 -5.190365e-01 -5.485863e-01 -5.479335e-01 -5.781507e-01 -5.779092e-01 -6.079502e-01 -6.095187e-01 -6.384648e-01 -6.444263e-01 -1.970983e-01 -1.814612e-01 2.493174e-01 2.698988e-01 7.043330e-01 7.124272e-01 1.167792e+00 1.152569e+00 1.134297e+00 1.122430e+00 1.102985e+00 1.093135e+00 1.072733e+00 1.064159e+00 1.043069e+00 1.035243e+00 1.013774e+00 1.006256e+00 9.847320e-01 9.771492e-01 9.558760e-01 9.479339e-01 9.271643e-01 9.186480e-01 8.985500e-01 8.893263e-01 8.699723e-01 8.599904e-01 8.413624e-01 8.306441e-01 8.126397e-01 8.012541e-01 7.836931e-01 7.717255e-01 7.543595e-01 7.418788e-01 7.243880e-01 7.113958e-01 6.933507e-01 6.797079e-01 6.604921e-01 6.458495e-01 6.245641e-01 6.084455e-01 5.851485e-01 5.721141e-01 5.513908e-01 5.375697e-01 5.152473e-01 5.045925e-01 4.843855e-01 4.705274e-01 4.508573e-01 4.425187e-01 4.201076e-01 4.094032e-01 3.903267e-01 3.829820e-01 3.617925e-01 3.530584e-01 3.324356e-01 3.231477e-01 3.029923e-01 2.932431e-01 2.735207e-01 2.633649e-01 2.440242e-01 2.335225e-01 2.144662e-01 2.037236e-01 1.848024e-01 1.739906e-01 1.550024e-01 1.443580e-01 1.250496e-01 1.148532e-01 9.492982e-02 8.548094e-02 6.463601e-02 5.622956e-02 3.418444e-02 2.707971e-02 3.615598e-03 -2.004728e-03 -2.702059e-02 -3.108153e-02 -5.766715e-02 -6.021367e-02 -8.825234e-02 -8.945173e-02 -1.186962e-01 -1.188337e-01 -1.489337e-01 -1.483926e-01 -1.789338e-01 -1.781515e-01 -2.086974e-01 -2.081030e-01 -2.382428e-01 -2.381953e-01 -2.675969e-01 -2.683386e-01 -2.967907e-01 -2.984221e-01 -3.258374e-01 -3.283261e-01 -3.546809e-01 -3.579190e-01 -3.831222e-01 -3.869847e-01 -4.108401e-01 -4.143350e-01 -4.376140e-01 -4.402940e-01 
-3.841317e-01 -3.892833e-01 -4.081429e-01 -4.129857e-01 -4.336966e-01 -4.383078e-01 -4.613862e-01 -4.649404e-01 -4.890091e-01 -4.927509e-01 -5.169438e-01 -5.225617e-01 -5.457962e-01 -5.560552e-01 -1.348180e-01 -1.300323e-01 2.785735e-01 2.879042e-01 6.971179e-01 7.003614e-01 1.121577e+00 1.111884e+00 1.089485e+00 1.083570e+00 1.059953e+00 1.056324e+00 1.031781e+00 1.029541e+00 1.004432e+00 1.002912e+00 9.776135e-01 9.762320e-01 9.511063e-01 9.493864e-01 9.247755e-01 9.223612e-01 8.985393e-01 8.951870e-01 8.723318e-01 8.679189e-01 8.461065e-01 8.406139e-01 8.198014e-01 8.132817e-01 7.933229e-01 7.858946e-01 7.665781e-01 7.584044e-01 7.394709e-01 7.307298e-01 7.119011e-01 7.027636e-01 6.837365e-01 6.742871e-01 6.546778e-01 6.448686e-01 6.242350e-01 6.139556e-01 5.921302e-01 5.829146e-01 5.615445e-01 5.526920e-01 5.308910e-01 5.227856e-01 5.011317e-01 4.925624e-01 4.705455e-01 4.630146e-01 4.402637e-01 4.324077e-01 4.100285e-01 4.021712e-01 3.797692e-01 3.717788e-01 3.502805e-01 3.421168e-01 3.217117e-01 3.131994e-01 2.938454e-01 2.848373e-01 2.664054e-01 2.568508e-01 2.391562e-01 2.291109e-01 2.119066e-01 2.015412e-01 1.845365e-01 1.741366e-01 1.569932e-01 1.469006e-01 1.292180e-01 1.197912e-01 1.011681e-01 9.278605e-02 7.288598e-02 6.589319e-02 4.445638e-02 3.909150e-02 1.596655e-02 1.232431e-02 -1.250023e-02 -1.449612e-02 -4.086109e-02 -4.143880e-02 -6.898768e-02 -6.851521e-02 -9.675394e-02 -9.576293e-02 -1.241473e-01 -1.232777e-01 -1.512343e-01 -1.511041e-01 -1.780675e-01 -1.791829e-01 -2.046892e-01 -2.073804e-01 -2.311476e-01 -2.355168e-01 -2.575117e-01 -2.634213e-01 -2.838544e-01 -2.909064e-01 -3.101078e-01 -3.177307e-01 -3.359974e-01 -3.427906e-01 -3.604692e-01 -3.662899e-01 
-4.631313e-01 -4.648300e-01 -4.882785e-01 -4.892178e-01 -5.159460e-01 -5.160584e-01 -5.490043e-01 -5.459610e-01 -5.778384e-01 -5.748430e-01 -6.066993e-01 -6.033074e-01 -6.353422e-01 -6.311511e-01 -2.071657e-01 -1.582461e-01 2.320999e-01 2.876309e-01 6.873080e-01 7.172513e-01 1.157293e+00 1.148168e+00 1.129502e+00 1.120439e+00 1.100564e+00 1.092212e+00 1.071266e+00 1.063720e+00 1.042049e+00 1.035084e+00 1.013064e+00 1.006260e+00 9.842408e-01 9.771731e-01 9.554956e-01 9.478237e-01 9.267544e-01 9.182302e-01 8.979401e-01 8.884446e-01 8.690125e-01 8.585303e-01 8.399011e-01 8.284702e-01 8.104733e-01 7.982029e-01 7.806132e-01 7.676673e-01 7.502129e-01 7.367768e-01 7.191857e-01 7.054766e-01 6.874865e-01 6.736712e-01 6.549748e-01 6.411617e-01 6.215456e-01 6.079805e-01 5.875800e-01 5.748025e-01 5.540617e-01 5.420248e-01 5.208909e-01 5.097509e-01 4.884811e-01 4.778479e-01 4.563801e-01 4.465879e-01 4.248065e-01 4.153593e-01 3.937716e-01 3.847142e-01 3.632129e-01 3.540801e-01 3.329931e-01 3.236070e-01 3.031319e-01 2.933731e-01 2.735761e-01 2.633572e-01 2.442054e-01 2.335179e-01 2.148942e-01 2.038032e-01 1.854909e-01 1.741550e-01 1.558888e-01 1.445905e-01 1.260580e-01 1.151257e-01 9.592689e-02 8.569576e-02 6.543336e-02 5.629181e-02 3.465323e-02 2.697424e-02 3.710639e-03 -2.237837e-03 -2.728046e-02 -3.136742e-02 -5.822382e-02 -6.049548e-02 -8.905060e-02 -8.968828e-02 -1.196173e-01 -1.189161e-01 -1.497673e-01 -1.482121e-01 -1.795287e-01 -1.777421e-01 -2.090415e-01 -2.076095e-01 -2.383880e-01 -2.377751e-01 -2.676187e-01 -2.681131e-01 -2.967807e-01 -2.984453e-01 -3.259606e-01 -3.286664e-01 -3.552824e-01 -3.588126e-01 -3.844882e-01 -3.904099e-01 -4.127421e-01 -4.171557e-01 -4.384940e-01 -4.413399e-01 
-3.827986e-01 -3.865260e-01 -4.021188e-01 -4.067023e-01 -4.254296e-01 -4.334162e-01 -4.619263e-01 -4.604532e-01 -4.879533e-01 -4.849932e-01 -5.136199e-01 -5.084272e-01 -5.379061e-01 -5.285476e-01 -1.445212e-01 -9.774723e-02 2.578931e-01 3.097703e-01 6.733299e-01 7.040003e-01 1.099833e+00 1.101983e+00 1.078706e+00 1.078876e+00 1.054224e+00 1.054223e+00 1.028284e+00 1.028695e+00 1.002143e+00 1.002928e+00 9.762983e-01 9.768029e-01 9.504453e-01 9.500834e-01 9.244983e-01 9.229138e-01 8.984471e-01 8.953386e-01 8.721801e-01 8.675219e-01 8.458416e-01 8.397695e-01 8.194478e-01 8.120097e-01 7.927003e-01 7.840865e-01 7.654940e-01 7.560028e-01 7.377324e-01 7.276378e-01 7.094133e-01 6.992339e-01 6.809564e-01 6.710200e-01 6.522170e-01 6.424169e-01 6.226213e-01 6.130937e-01 5.923776e-01 5.834912e-01 5.620770e-01 5.539547e-01 5.319523e-01 5.244574e-01 5.018564e-01 4.947538e-01 4.715381e-01 4.644988e-01 4.409050e-01 4.339783e-01 4.105157e-01 4.034915e-01 3.805451e-01 3.732141e-01 3.511426e-01 3.433706e-01 3.225967e-01 3.142369e-01 2.948503e-01 2.856485e-01 2.675915e-01 2.575006e-01 2.406415e-01 2.296735e-01 2.136269e-01 2.019118e-01 1.863296e-01 1.743709e-01 1.589213e-01 1.471982e-01 1.311753e-01 1.200080e-01 1.027272e-01 9.273283e-02 7.382931e-02 6.566277e-02 4.476546e-02 3.883545e-02 1.569542e-02 1.223075e-02 -1.326898e-02 -1.442930e-02 -4.224776e-02 -4.138388e-02 -7.090104e-02 -6.825298e-02 -9.860014e-02 -9.493051e-02 -1.255175e-01 -1.220449e-01 -1.521994e-01 -1.499329e-01 -1.787277e-01 -1.784418e-01 -2.050921e-01 -2.073181e-01 -2.312545e-01 -2.361260e-01 -2.573306e-01 -2.648181e-01 -2.840244e-01 -2.934065e-01 -3.116201e-01 -3.249323e-01 -3.417241e-01 -3.490963e-01 -3.637505e-01 -3.683481e-01 
-4.605181e-01 -4.605465e-01 -4.759971e-01 -4.772505e-01 -4.920375e-01 -4.983810e-01 -5.638472e-01 -5.458946e-01 -5.738756e-01 -5.709107e-01 -6.022962e-01 -5.967336e-01 -6.302437e-01 -6.052808e-01 -2.669941e-01 -3.960755e-02 1.341519e-01 3.467449e-01 5.813687e-01 6.836610e-01 1.105413e+00 1.100832e+00 1.084623e+00 1.075477e+00 1.055825e+00 1.048407e+00 1.026672e+00 1.020812e+00 9.980855e-01 9.933497e-01 9.703132e-01 9.657153e-01 9.427320e-01 9.374927e-01 9.151150e-01 9.087948e-01 8.873801e-01 8.795974e-01 8.593248e-01 8.500397e-01 8.311086e-01 8.204722e-01 8.027460e-01 7.907719e-01 7.738544e-01 7.607339e-01 7.443308e-01 7.303884e-01 7.140916e-01 6.996154e-01 6.831936e-01 6.688217e-01 6.523032e-01 6.384687e-01 6.214036e-01 6.080317e-01 5.900062e-01 5.774354e-01 5.587255e-01 5.468816e-01 5.269664e-01 5.164771e-01 4.961595e-01 4.863919e-01 4.649999e-01 4.564880e-01 4.344440e-01 4.254599e-01 4.030881e-01 3.949329e-01 3.719658e-01 3.632262e-01 3.407503e-01 3.321841e-01 3.104495e-01 3.017702e-01 2.811700e-01 2.721410e-01 2.527340e-01 2.430076e-01 2.247331e-01 2.142220e-01 1.969770e-01 1.856269e-01 1.690083e-01 1.568710e-01 1.405655e-01 1.281576e-01 1.119122e-01 9.969612e-02 8.277839e-02 7.099729e-02 5.270663e-02 4.201827e-02 2.206297e-02 1.320844e-02 -8.761007e-03 -1.531652e-02 -3.955282e-02 -4.350881e-02 -7.017628e-02 -7.167161e-02 -1.008326e-01 -1.000806e-01 -1.311318e-01 -1.282045e-01 -1.603006e-01 -1.558952e-01 -1.886247e-01 -1.840011e-01 -2.168617e-01 -2.129930e-01 -2.451213e-01 -2.427120e-01 -2.733754e-01 -2.728728e-01 -3.015548e-01 -3.028736e-01 -3.298968e-01 -3.323025e-01 -3.601610e-01 -3.556514e-01 -3.937971e-01 -4.156387e-01 -4.252636e-01 -4.305855e-01 -4.441486e-01 -4.453974e-01 
-3.808334e-01 -3.762161e-01 -3.808836e-01 -3.755330e-01 -3.756280e-01 -3.685528e-01 -4.352722e-01 -4.125375e-01 -4.110720e-01 -4.226616e-01 -4.163335e-01 -4.324897e-01 -4.224693e-01 -4.171836e-01 -3.112126e-01 -2.623838e-01 -1.944316e-01 -1.481977e-01 -6.315970e-02 -4.935958e-02 8.076693e-02 8.410066e-02 8.327390e-02 7.824787e-02 7.421457e-02 7.035421e-02 6.464130e-02 6.203634e-02 5.487423e-02 5.350358e-02 4.507200e-02 4.502401e-02 3.551522e-02 3.675464e-02 2.622717e-02 2.858296e-02 1.712395e-02 2.041446e-02 8.149955e-03 1.209748e-02 -8.640506e-04 3.446065e-03 -9.976477e-03 -5.478254e-03 -1.903110e-02 -1.451638e-02 -2.791505e-02 -2.354770e-02 -3.647887e-02 -3.236123e-02 -4.459340e-02 -4.090640e-02 -5.233199e-02 -4.910854e-02 -5.946404e-02 -5.644196e-02 -6.545571e-02 -6.237650e-02 -7.004721e-02 -6.785052e-02 -7.569813e-02 -7.379355e-02 -8.111002e-02 -8.030262e-02 -8.836249e-02 -8.734039e-02 -9.551444e-02 -9.613181e-02 -1.044843e-01 -1.047046e-01 -1.147001e-01 -1.161552e-01 -1.265649e-01 -1.270627e-01 -1.378112e-01 -1.372933e-01 -1.485222e-01 -1.470237e-01 -1.587602e-01 -1.563024e-01 -1.685342e-01 -1.652895e-01 -1.779759e-01 -1.741830e-01 -1.871460e-01 -1.831131e-01 -1.961625e-01 -1.923575e-01 -2.052740e-01 -2.021009e-01 -2.144528e-01 -2.121661e-01 -2.235241e-01 -2.224375e-01 -2.325464e-01 -2.329011e-01 -2.415533e-01 -2.433859e-01 -2.505211e-01 -2.537028e-01 -2.594399e-01 -2.635731e-01 -2.682395e-01 -2.727975e-01 -2.771417e-01 -2.815584e-01 -2.865659e-01 -2.899790e-01 -2.965650e-01 -2.978771e-01 -3.069931e-01 -3.052383e-01 -3.178780e-01 -3.122801e-01 -3.292094e-01 -3.192188e-01 -3.409360e-01 -3.262352e-01 -3.530449e-01 -3.328801e-01 -3.662096e-01 -3.309990e-01 -3.808129e-01 -3.846201e-01 -3.811044e-01 -3.759971e-01 -3.796556e-01 -3.751059e-01 
-4.628536e-01 -4.517828e-01 -4.641365e-01 -4.518782e-01 -4.624436e-01 -4.455575e-01 -4.801615e-01 -4.682958e-01 -4.665355e-01 -4.777953e-01 -4.664052e-01 -4.870100e-01 -4.712221e-01 -4.902561e-01 -4.439350e-01 -4.500824e-01 -4.177938e-01 -4.235823e-01 -3.875023e-01 -4.014050e-01 -3.509678e-01 -3.664979e-01 -3.564578e-01 -3.726602e-01 -3.624407e-01 -3.766432e-01 -3.670387e-01 -3.794823e-01 -3.714597e-01 -3.821286e-01 -3.761051e-01 -3.844155e-01 -3.804545e-01 -3.860513e-01 -3.844261e-01 -3.873092e-01 -3.881076e-01 -3.883252e-01 -3.914577e-01 -3.893829e-01 -3.947774e-01 -3.909323e-01 -3.981601e-01 -3.928581e-01 -4.012214e-01 -3.948856e-01 -4.037997e-01 -3.969171e-01 -4.056940e-01 -3.986362e-01 -4.067886e-01 -4.001906e-01 -4.075152e-01 -4.016511e-01 -4.074363e-01 -4.018607e-01 -4.053961e-01 -3.999464e-01 -4.013978e-01 -3.970119e-01 -3.978430e-01 -3.941338e-01 -3.939992e-01 -3.914895e-01 -3.915359e-01 -3.890980e-01 -3.889281e-01 -3.879361e-01 -3.879886e-01 -3.870097e-01 -3.891428e-01 -3.892631e-01 -3.926166e-01 -3.914774e-01 -3.961110e-01 -3.932287e-01 -3.996143e-01 -3.948892e-01 -4.031426e-01 -3.964436e-01 -4.065083e-01 -3.980360e-01 -4.097511e-01 -3.998019e-01 -4.126339e-01 -4.016594e-01 -4.151002e-01 -4.040342e-01 -4.175734e-01 -4.072492e-01 -4.198404e-01 -4.107792e-01 -4.214127e-01 -4.144428e-01 -4.225906e-01 -4.184792e-01 -4.236738e-01 -4.227378e-01 -4.247884e-01 -4.269982e-01 -4.260292e-01 -4.307207e-01 -4.272144e-01 -4.334778e-01 -4.288537e-01 -4.357790e-01 -4.319044e-01 -4.378360e-01 -4.362348e-01 -4.389110e-01 -4.411801e-01 -4.387129e-01 -4.466595e-01 -4.376335e-01 -4.526214e-01 -4.361804e-01 -4.589677e-01 -4.350893e-01 -4.653726e-01 -4.344891e-01 -4.709203e-01 -4.319252e-01 -4.743528e-01 -4.524709e-01 -4.647867e-01 -4.486005e-01 -4.618692e-01 -4.496320e-01 
-3.846019e-01 -3.747176e-01 -3.833917e-01 -3.738839e-01 -3.828809e-01 -3.727078e-01 -3.843095e-01 -3.809011e-01 -3.797564e-01 -3.869469e-01 -3.773478e-01 -3.912752e-01 -3.776597e-01 -3.944363e-01 -3.812976e-01 -4.005687e-01 -3.871270e-01 -4.058320e-01 -3.937880e-01 -4.097299e-01 -4.002924e-01 -4.114183e-01 -4.034874e-01 -4.125051e-01 -4.059963e-01 -4.131261e-01 -4.079883e-01 -4.133982e-01 -4.098739e-01 -4.135424e-01 -4.117797e-01 -4.134249e-01 -4.134790e-01 -4.129213e-01 -4.149275e-01 -4.121774e-01 -4.161665e-01 -4.113101e-01 -4.171724e-01 -4.104628e-01 -4.180161e-01 -4.098124e-01 -4.186848e-01 -4.093136e-01 -4.189847e-01 -4.088217e-01 -4.187680e-01 -4.081962e-01 -4.178445e-01 -4.071823e-01 -4.160557e-01 -4.056690e-01 -4.134168e-01 -4.034477e-01 -4.095496e-01 -3.997940e-01 -4.038093e-01 -3.942611e-01 -3.963838e-01 -3.879559e-01 -3.894693e-01 -3.821557e-01 -3.832941e-01 -3.772429e-01 -3.787574e-01 -3.736529e-01 -3.752574e-01 -3.716623e-01 -3.737482e-01 -3.706422e-01 -3.739698e-01 -3.714148e-01 -3.758348e-01 -3.724905e-01 -3.778686e-01 -3.731967e-01 -3.797493e-01 -3.736020e-01 -3.814307e-01 -3.737728e-01 -3.828378e-01 -3.738353e-01 -3.839595e-01 -3.739049e-01 -3.846929e-01 -3.740352e-01 -3.850342e-01 -3.744755e-01 -3.851696e-01 -3.754014e-01 -3.850332e-01 -3.766158e-01 -3.844495e-01 -3.780138e-01 -3.835702e-01 -3.796445e-01 -3.825891e-01 -3.813876e-01 -3.816322e-01 -3.830457e-01 -3.808057e-01 -3.842972e-01 -3.801458e-01 -3.849019e-01 -3.799661e-01 -3.849946e-01 -3.807145e-01 -3.846052e-01 -3.823623e-01 -3.834250e-01 -3.846122e-01 -3.813684e-01 -3.873425e-01 -3.787034e-01 -3.904112e-01 -3.758367e-01 -3.935927e-01 -3.733340e-01 -3.964718e-01 -3.716726e-01 -3.981890e-01 -3.715375e-01 -3.975005e-01 -3.764552e-01 -3.908633e-01 -3.758331e-01 -3.868078e-01 -3.752325e-01 
