# vtk DataFile Version 2.0
Comment goes here
ASCII

DATASET STRUCTURED_POINTS
FIELD FieldData 1
TIME 1 1 double
0.15000000
DIMENSIONS    128   16   1

ORIGIN    0.000   0.000   0.000
SPACING   0.0078125 0.015625   1.000

POINT_DATA   2048
SCALARS P double
LOOKUP_TABLE default

1.012715e+00 9.950513e-01 1.014518e+00 1.002747e+00 1.013033e+00 1.010535e+00 1.007776e+00 1.024103e+00 1.004901e+00 1.029757e+00 9.992930e-01 1.025586e+00 9.839166e-01 1.003161e+00 9.449326e-01 9.555183e-01 8.968823e-01 9.011051e-01 8.469612e-01 8.502529e-01 8.030143e-01 8.097939e-01 7.821094e-01 7.911858e-01 7.747011e-01 7.834300e-01 7.765149e-01 7.846422e-01 7.850196e-01 7.905647e-01 7.951095e-01 7.966637e-01 8.034430e-01 8.010478e-01 8.091877e-01 8.040183e-01 8.143686e-01 8.083757e-01 8.200285e-01 8.128246e-01 8.252123e-01 8.180684e-01 8.308023e-01 8.233916e-01 8.354479e-01 8.286363e-01 8.421668e-01 8.376069e-01 8.511032e-01 8.464364e-01 8.585422e-01 8.534516e-01 8.644965e-01 8.594685e-01 8.722875e-01 8.705266e-01 8.850206e-01 8.813428e-01 8.922541e-01 8.868509e-01 9.016204e-01 8.949134e-01 9.088150e-01 9.038122e-01 9.186631e-01 9.100096e-01 9.248768e-01 9.177048e-01 9.319689e-01 9.228025e-01 9.395409e-01 9.343962e-01 9.516432e-01 9.428198e-01 9.582018e-01 9.493001e-01 9.639104e-01 9.526491e-01 9.677567e-01 9.565187e-01 9.716095e-01 9.581548e-01 9.766168e-01 9.652677e-01 9.871106e-01 9.732025e-01 9.951458e-01 9.771553e-01 9.981391e-01 9.768745e-01 9.991962e-01 9.764957e-01 9.999467e-01 9.775371e-01 1.002248e+00 9.803026e-01 1.005364e+00 9.853601e-01 1.008789e+00 9.897031e-01 1.010570e+00 9.939787e-01 1.011955e+00 9.990292e-01 1.014007e+00 1.003292e+00 1.012988e+00 1.002889e+00 1.008459e+00 9.999640e-01 1.005010e+00 9.980413e-01 1.003681e+00 9.946728e-01 1.001967e+00 9.887219e-01 1.001064e+00 9.825482e-01 1.003030e+00 9.777572e-01 1.006736e+00 9.742626e-01 1.010232e+00 9.766086e-01 1.009303e+00 9.805713e-01 1.010168e+00 9.871682e-01 
8.591975e-01 8.467198e-01 8.577077e-01 8.493535e-01 8.527070e-01 8.506428e-01 8.417380e-01 8.621740e-01 8.395479e-01 8.669938e-01 8.405570e-01 8.650512e-01 8.413915e-01 8.553385e-01 8.428309e-01 8.519722e-01 8.491405e-01 8.518226e-01 8.563411e-01 8.521143e-01 8.604086e-01 8.474601e-01 8.510052e-01 8.361153e-01 8.393947e-01 8.261160e-01 8.360931e-01 8.259674e-01 8.401562e-01 8.276029e-01 8.439512e-01 8.305205e-01 8.495972e-01 8.342938e-01 8.533496e-01 8.355185e-01 8.559353e-01 8.390019e-01 8.593318e-01 8.396526e-01 8.592059e-01 8.410446e-01 8.604497e-01 8.418839e-01 8.594356e-01 8.427891e-01 8.629541e-01 8.489325e-01 8.675648e-01 8.546996e-01 8.714112e-01 8.570610e-01 8.700655e-01 8.547645e-01 8.714291e-01 8.646388e-01 8.829800e-01 8.690368e-01 8.761087e-01 8.597498e-01 8.765080e-01 8.617212e-01 8.778766e-01 8.681132e-01 8.850363e-01 8.677337e-01 8.851565e-01 8.763744e-01 8.938218e-01 8.789641e-01 8.993649e-01 8.942328e-01 9.159046e-01 9.049978e-01 9.215287e-01 9.104273e-01 9.241995e-01 9.091451e-01 9.241903e-01 9.134306e-01 9.268985e-01 9.090124e-01 9.227038e-01 9.092828e-01 9.284488e-01 9.126719e-01 9.307018e-01 9.109853e-01 9.262068e-01 9.026033e-01 9.210259e-01 8.989369e-01 9.189886e-01 8.982292e-01 9.193522e-01 8.980270e-01 9.183103e-01 9.005868e-01 9.192497e-01 9.018546e-01 9.179988e-01 9.045708e-01 9.175869e-01 9.088199e-01 9.187438e-01 9.115489e-01 9.131922e-01 9.049273e-01 9.010484e-01 8.954874e-01 8.920376e-01 8.896327e-01 8.862269e-01 8.823778e-01 8.800497e-01 8.720021e-01 8.732713e-01 8.594127e-01 8.705735e-01 8.513134e-01 8.727399e-01 8.442949e-01 8.724220e-01 8.404256e-01 8.637119e-01 8.407009e-01 8.601828e-01 8.433044e-01 
1.013486e+00 9.946097e-01 1.020132e+00 1.001592e+00 1.019468e+00 9.978130e-01 1.002013e+00 1.038774e+00 1.010454e+00 1.052634e+00 1.024967e+00 1.069767e+00 1.038306e+00 1.059992e+00 9.695385e-01 9.769297e-01 9.109016e-01 9.055355e-01 8.490364e-01 8.452553e-01 7.738900e-01 7.819291e-01 7.663894e-01 7.737415e-01 7.516653e-01 7.554096e-01 7.533968e-01 7.688642e-01 7.745694e-01 7.768254e-01 7.806624e-01 7.823853e-01 7.946620e-01 7.939142e-01 8.027059e-01 7.953584e-01 8.122137e-01 8.138997e-01 8.281817e-01 8.137690e-01 8.246162e-01 8.215339e-01 8.393046e-01 8.272609e-01 8.300435e-01 8.206757e-01 8.421866e-01 8.436926e-01 8.581795e-01 8.547649e-01 8.675599e-01 8.624559e-01 8.634510e-01 8.467475e-01 8.634534e-01 8.856637e-01 9.161249e-01 8.977627e-01 8.664232e-01 8.588729e-01 8.977598e-01 8.768985e-01 8.801621e-01 8.974651e-01 9.162546e-01 8.826946e-01 9.016102e-01 9.165746e-01 9.249227e-01 8.901692e-01 9.115879e-01 9.398299e-01 9.773379e-01 9.598359e-01 9.697315e-01 9.674666e-01 9.768174e-01 9.523948e-01 9.698650e-01 9.784369e-01 9.928899e-01 9.617113e-01 9.693039e-01 9.658206e-01 9.924208e-01 9.757888e-01 9.966683e-01 9.770376e-01 9.886119e-01 9.587665e-01 9.834935e-01 9.609746e-01 9.862269e-01 9.669913e-01 9.971165e-01 9.716485e-01 1.000457e+00 9.846655e-01 1.009315e+00 9.853615e-01 1.010761e+00 9.971705e-01 1.018459e+00 1.010837e+00 1.032866e+00 1.026794e+00 1.033476e+00 1.018205e+00 1.012624e+00 1.001747e+00 1.003880e+00 1.002582e+00 1.004791e+00 1.001870e+00 1.005181e+00 9.948588e-01 9.961643e-01 9.753631e-01 9.940588e-01 9.718842e-01 1.008654e+00 9.653390e-01 1.019989e+00 9.736269e-01 1.005712e+00 9.750652e-01 1.006390e+00 9.840308e-01 
8.603741e-01 8.489258e-01 8.706916e-01 8.536511e-01 8.753649e-01 8.445226e-01 8.696495e-01 9.366808e-01 9.057812e-01 9.531201e-01 9.457978e-01 9.826768e-01 9.646994e-01 9.076860e-01 6.977295e-01 5.823405e-01 4.303742e-01 2.786213e-01 1.476512e-01 6.606859e-03 -1.791694e-01 -2.513338e-01 -2.397958e-01 -2.679442e-01 -2.732312e-01 -2.969862e-01 -2.617014e-01 -2.429033e-01 -1.952894e-01 -2.004016e-01 -1.746320e-01 -1.824455e-01 -1.492543e-01 -1.572527e-01 -1.363210e-01 -1.488929e-01 -1.048190e-01 -8.999326e-02 -5.827390e-02 -8.307358e-02 -6.258633e-02 -5.570370e-02 -1.515365e-02 -3.967681e-02 -4.989705e-02 -7.163318e-02 -2.716736e-02 -1.046457e-02 1.952072e-02 1.112224e-02 3.974728e-02 4.042499e-02 4.909706e-02 2.178721e-02 5.997926e-02 1.144591e-01 1.742324e-01 1.179069e-01 1.953849e-02 3.235833e-02 1.442628e-01 8.654113e-02 6.888413e-02 1.361946e-01 1.703942e-01 9.708687e-02 1.442246e-01 1.966499e-01 1.898455e-01 1.174996e-01 1.686201e-01 2.773542e-01 3.752137e-01 3.462527e-01 3.578173e-01 3.716610e-01 3.867312e-01 3.420516e-01 3.736688e-01 4.205902e-01 4.545501e-01 4.080925e-01 4.202148e-01 4.460511e-01 4.912698e-01 4.805287e-01 5.112612e-01 5.092825e-01 5.223315e-01 5.045161e-01 5.391812e-01 5.322193e-01 5.548927e-01 5.529833e-01 5.848742e-01 5.703989e-01 5.987844e-01 5.980313e-01 6.097839e-01 5.848973e-01 6.081548e-01 6.086118e-01 6.301420e-01 6.362991e-01 6.705063e-01 6.839803e-01 7.050238e-01 6.980790e-01 6.958015e-01 6.899465e-01 7.069248e-01 7.198764e-01 7.398820e-01 7.528678e-01 7.734977e-01 7.716498e-01 7.714897e-01 7.513691e-01 7.675220e-01 7.594002e-01 7.987435e-01 7.672709e-01 8.415182e-01 8.308475e-01 8.427735e-01 8.310487e-01 8.494598e-01 8.393735e-01 
1.016055e+00 1.008546e+00 1.054988e+00 1.043390e+00 1.098055e+00 1.081491e+00 1.155319e+00 1.188501e+00 1.234364e+00 1.240034e+00 1.315513e+00 1.301648e+00 1.379089e+00 1.279725e+00 5.623260e-01 1.971929e-01 -3.405899e-01 -8.143201e-01 -1.327791e+00 -1.731155e+00 -2.446170e+00 -2.501998e+00 -2.453391e+00 -2.462980e+00 -2.429188e+00 -2.429193e+00 -2.370130e+00 -2.333189e+00 -2.266073e+00 -2.241566e+00 -2.197666e+00 -2.178581e+00 -2.136946e+00 -2.116881e+00 -2.084504e+00 -2.061930e+00 -2.010812e+00 -1.968084e+00 -1.928415e+00 -1.914161e+00 -1.884039e+00 -1.848469e+00 -1.803937e+00 -1.796509e+00 -1.793822e+00 -1.786603e+00 -1.740139e+00 -1.698981e+00 -1.658523e+00 -1.641541e+00 -1.600146e+00 -1.570644e+00 -1.536753e+00 -1.525582e+00 -1.475490e+00 -1.418468e+00 -1.361988e+00 -1.388250e+00 -1.437183e+00 -1.390701e+00 -1.279959e+00 -1.302256e+00 -1.291064e+00 -1.213940e+00 -1.163608e+00 -1.185423e+00 -1.114697e+00 -1.053307e+00 -1.035603e+00 -1.057175e+00 -9.826709e-01 -8.747253e-01 -7.670435e-01 -7.654356e-01 -7.248053e-01 -6.944804e-01 -6.492904e-01 -6.614670e-01 -6.055387e-01 -5.508255e-01 -4.863228e-01 -4.925263e-01 -4.439530e-01 -4.001108e-01 -3.355562e-01 -3.200895e-01 -2.653892e-01 -2.378723e-01 -1.927298e-01 -1.730436e-01 -1.194417e-01 -9.826616e-02 -6.004655e-02 -3.850606e-02 4.275795e-03 1.759797e-02 5.728475e-02 7.285442e-02 9.704559e-02 9.383895e-02 1.317002e-01 1.468073e-01 1.896604e-01 2.054577e-01 2.638574e-01 2.868425e-01 3.497428e-01 3.590846e-01 4.095797e-01 4.132331e-01 4.780385e-01 4.910921e-01 5.615986e-01 5.745712e-01 6.456492e-01 6.458355e-01 6.959029e-01 6.831774e-01 7.334726e-01 7.337684e-01 7.933023e-01 7.922499e-01 8.724983e-01 9.014251e-01 9.331099e-01 9.394200e-01 9.769131e-01 9.744278e-01 
8.638785e-01 8.704133e-01 9.061483e-01 9.136085e-01 9.540019e-01 9.673297e-01 1.016619e+00 1.032314e+00 1.081013e+00 1.090372e+00 1.146139e+00 1.149157e+00 1.205653e+00 1.196845e+00 3.092774e-01 2.142455e-01 -6.109245e-01 -7.403133e-01 -1.561997e+00 -1.664844e+00 -2.551846e+00 -2.565431e+00 -2.502874e+00 -2.508483e+00 -2.448683e+00 -2.449197e+00 -2.386244e+00 -2.376839e+00 -2.312416e+00 -2.301373e+00 -2.244668e+00 -2.235824e+00 -2.184661e+00 -2.174574e+00 -2.125831e+00 -2.111435e+00 -2.059936e+00 -2.041821e+00 -1.994356e+00 -1.979866e+00 -1.935966e+00 -1.919625e+00 -1.875490e+00 -1.865658e+00 -1.830415e+00 -1.820602e+00 -1.776722e+00 -1.757398e+00 -1.711164e+00 -1.696580e+00 -1.649090e+00 -1.629092e+00 -1.578468e+00 -1.557943e+00 -1.505571e+00 -1.483078e+00 -1.432390e+00 -1.419272e+00 -1.370852e+00 -1.335597e+00 -1.272622e+00 -1.252037e+00 -1.198770e+00 -1.170301e+00 -1.117285e+00 -1.094504e+00 -1.038225e+00 -1.018489e+00 -9.769155e-01 -9.674344e-01 -9.198575e-01 -8.993313e-01 -8.460582e-01 -8.374352e-01 -7.910353e-01 -7.777153e-01 -7.287350e-01 -7.191237e-01 -6.680058e-01 -6.473230e-01 -5.912929e-01 -5.744394e-01 -5.207148e-01 -4.972771e-01 -4.454650e-01 -4.260495e-01 -3.763465e-01 -3.527580e-01 -3.043131e-01 -2.800603e-01 -2.350860e-01 -2.135214e-01 -1.749641e-01 -1.549061e-01 -1.179576e-01 -9.891105e-02 -6.397245e-02 -4.873559e-02 -1.851443e-02 -6.383283e-03 2.838962e-02 4.401503e-02 8.352186e-02 9.894906e-02 1.445596e-01 1.621875e-01 2.151354e-01 2.309403e-01 2.841328e-01 2.958442e-01 3.516257e-01 3.628523e-01 4.215710e-01 4.322714e-01 4.905779e-01 4.970711e-01 5.488447e-01 5.525252e-01 5.990272e-01 6.063912e-01 6.516553e-01 6.671045e-01 7.123733e-01 7.401080e-01 7.741675e-01 7.889718e-01 8.217014e-01 8.304868e-01 
1.019376e+00 1.019487e+00 1.073176e+00 1.072435e+00 1.130041e+00 1.130535e+00 1.192629e+00 1.197307e+00 1.260544e+00 1.262836e+00 1.330892e+00 1.329762e+00 1.400416e+00 1.397292e+00 4.328328e-01 3.406311e-01 -5.591545e-01 -6.844417e-01 -1.586298e+00 -1.673569e+00 -2.650785e+00 -2.633680e+00 -2.582603e+00 -2.567603e+00 -2.517936e+00 -2.501316e+00 -2.449812e+00 -2.428488e+00 -2.376935e+00 -2.354768e+00 -2.306921e+00 -2.284626e+00 -2.239602e+00 -2.216337e+00 -2.173381e+00 -2.148366e+00 -2.105185e+00 -2.078080e+00 -2.036968e+00 -2.011659e+00 -1.972670e+00 -1.946948e+00 -1.908522e+00 -1.885431e+00 -1.849978e+00 -1.826567e+00 -1.786978e+00 -1.760000e+00 -1.718608e+00 -1.692342e+00 -1.649480e+00 -1.621884e+00 -1.577564e+00 -1.549726e+00 -1.502236e+00 -1.470924e+00 -1.421197e+00 -1.392344e+00 -1.342124e+00 -1.308060e+00 -1.253902e+00 -1.222733e+00 -1.172325e+00 -1.142134e+00 -1.091668e+00 -1.066557e+00 -1.016600e+00 -9.939442e-01 -9.478185e-01 -9.348316e-01 -8.894939e-01 -8.672111e-01 -8.167436e-01 -7.988199e-01 -7.494941e-01 -7.306160e-01 -6.802977e-01 -6.633787e-01 -6.111171e-01 -5.893312e-01 -5.356078e-01 -5.164534e-01 -4.636237e-01 -4.410364e-01 -3.878589e-01 -3.665775e-01 -3.150474e-01 -2.931755e-01 -2.436476e-01 -2.224899e-01 -1.741522e-01 -1.537475e-01 -1.080239e-01 -8.877405e-02 -4.417274e-02 -2.695761e-02 1.640290e-02 3.170237e-02 7.386926e-02 8.670252e-02 1.313570e-01 1.449487e-01 1.930523e-01 2.066233e-01 2.591100e-01 2.723563e-01 3.280464e-01 3.388921e-01 3.958988e-01 4.047050e-01 4.645091e-01 4.727544e-01 5.343753e-01 5.412936e-01 6.026981e-01 6.069489e-01 6.656237e-01 6.680287e-01 7.255072e-01 7.292589e-01 7.869474e-01 7.925931e-01 8.499995e-01 8.586649e-01 9.102322e-01 9.157809e-01 9.659314e-01 9.682884e-01 
8.669733e-01 8.787441e-01 9.192137e-01 9.314215e-01 9.743987e-01 9.881542e-01 1.034224e+00 1.049539e+00 1.097855e+00 1.114547e+00 1.165049e+00 1.184945e+00 1.236518e+00 1.263851e+00 2.892224e-01 2.800957e-01 -6.631242e-01 -6.872954e-01 -1.628641e+00 -1.641558e+00 -2.611304e+00 -2.590501e+00 -2.531334e+00 -2.518411e+00 -2.459534e+00 -2.449725e+00 -2.391167e+00 -2.381549e+00 -2.323975e+00 -2.313969e+00 -2.258614e+00 -2.248040e+00 -2.194988e+00 -2.183232e+00 -2.131937e+00 -2.118508e+00 -2.068353e+00 -2.053509e+00 -2.004907e+00 -1.989659e+00 -1.942610e+00 -1.927070e+00 -1.881051e+00 -1.865732e+00 -1.820629e+00 -1.804729e+00 -1.758657e+00 -1.741241e+00 -1.693986e+00 -1.675829e+00 -1.627356e+00 -1.607935e+00 -1.558115e+00 -1.537676e+00 -1.486587e+00 -1.464988e+00 -1.412576e+00 -1.389693e+00 -1.335650e+00 -1.312858e+00 -1.260794e+00 -1.238509e+00 -1.186814e+00 -1.165620e+00 -1.114480e+00 -1.094934e+00 -1.043442e+00 -1.026157e+00 -9.757842e-01 -9.596830e-01 -9.094098e-01 -8.925801e-01 -8.423922e-01 -8.271570e-01 -7.773558e-01 -7.622296e-01 -7.123357e-01 -6.971616e-01 -6.471278e-01 -6.306505e-01 -5.805496e-01 -5.634682e-01 -5.141375e-01 -4.958210e-01 -4.475894e-01 -4.286385e-01 -3.816896e-01 -3.616675e-01 -3.160868e-01 -2.954184e-01 -2.514949e-01 -2.308619e-01 -1.888735e-01 -1.687679e-01 -1.282672e-01 -1.091495e-01 -6.976773e-02 -5.208058e-02 -1.316962e-02 3.245079e-03 4.333960e-02 5.912824e-02 1.013612e-01 1.163653e-01 1.613061e-01 1.755178e-01 2.232415e-01 2.362284e-01 2.859175e-01 2.975034e-01 3.487644e-01 3.593991e-01 4.115645e-01 4.215663e-01 4.734070e-01 4.829184e-01 5.330295e-01 5.428817e-01 5.908147e-01 6.023870e-01 6.482208e-01 6.622151e-01 7.057314e-01 7.214475e-01 7.619879e-01 7.762498e-01 8.153112e-01 8.278880e-01 
1.021271e+00 1.023413e+00 1.079084e+00 1.080847e+00 1.139143e+00 1.141628e+00 1.202737e+00 1.206753e+00 1.270043e+00 1.275077e+00 1.340636e+00 1.348310e+00 1.415444e+00 1.430512e+00 4.131218e-01 3.819289e-01 -5.984232e-01 -6.453647e-01 -1.628808e+00 -1.652227e+00 -2.680136e+00 -2.648023e+00 -2.597202e+00 -2.573041e+00 -2.522808e+00 -2.501859e+00 -2.452334e+00 -2.431798e+00 -2.383237e+00 -2.362101e+00 -2.315069e+00 -2.293012e+00 -2.247683e+00 -2.224508e+00 -2.180572e+00 -2.156012e+00 -2.112951e+00 -2.087098e+00 -2.044902e+00 -2.018567e+00 -1.977371e+00 -1.950868e+00 -1.910181e+00 -1.883605e+00 -1.842977e+00 -1.816056e+00 -1.774572e+00 -1.746978e+00 -1.704266e+00 -1.676169e+00 -1.632158e+00 -1.603647e+00 -1.558207e+00 -1.529182e+00 -1.481818e+00 -1.451603e+00 -1.401514e+00 -1.369669e+00 -1.316622e+00 -1.286678e+00 -1.238479e+00 -1.208580e+00 -1.157011e+00 -1.131144e+00 -1.081141e+00 -1.053638e+00 -1.004289e+00 -9.821192e-01 -9.321469e-01 -9.089663e-01 -8.610327e-01 -8.441081e-01 -7.963312e-01 -7.785345e-01 -7.292294e-01 -7.108721e-01 -6.608555e-01 -6.426183e-01 -5.924278e-01 -5.740981e-01 -5.241062e-01 -5.058218e-01 -4.560020e-01 -4.370437e-01 -3.874658e-01 -3.681441e-01 -3.191581e-01 -2.994796e-01 -2.511546e-01 -2.311535e-01 -1.832049e-01 -1.630350e-01 -1.156196e-01 -9.592107e-02 -4.908530e-02 -3.058894e-02 1.575870e-02 3.272978e-02 7.915883e-02 9.452785e-02 1.419552e-01 1.559468e-01 2.050457e-01 2.176004e-01 2.687392e-01 2.796808e-01 3.328732e-01 3.421090e-01 3.972279e-01 4.050041e-01 4.619577e-01 4.686219e-01 5.269147e-01 5.326662e-01 5.915405e-01 5.965926e-01 6.553446e-01 6.602817e-01 7.186905e-01 7.241990e-01 7.820004e-01 7.881684e-01 8.447180e-01 8.510798e-01 9.054697e-01 9.105560e-01 9.639609e-01 9.673726e-01 
8.677533e-01 8.797867e-01 9.204984e-01 9.330131e-01 9.762268e-01 9.903503e-01 1.036584e+00 1.052266e+00 1.100441e+00 1.117158e+00 1.166860e+00 1.186688e+00 1.237361e+00 1.265223e+00 2.893704e-01 2.804903e-01 -6.626441e-01 -6.867926e-01 -1.626698e+00 -1.639549e+00 -2.606501e+00 -2.585865e+00 -2.527125e+00 -2.514715e+00 -2.456649e+00 -2.448210e+00 -2.391393e+00 -2.383877e+00 -2.328210e+00 -2.319964e+00 -2.265623e+00 -2.255772e+00 -2.203018e+00 -2.191553e+00 -2.140178e+00 -2.126679e+00 -2.076212e+00 -2.060604e+00 -2.010864e+00 -1.994410e+00 -1.946305e+00 -1.929513e+00 -1.882062e+00 -1.864465e+00 -1.817048e+00 -1.798803e+00 -1.751387e+00 -1.732775e+00 -1.684644e+00 -1.665011e+00 -1.616070e+00 -1.596240e+00 -1.546914e+00 -1.527129e+00 -1.477540e+00 -1.457343e+00 -1.406288e+00 -1.384972e+00 -1.332870e+00 -1.312286e+00 -1.261913e+00 -1.241483e+00 -1.189535e+00 -1.169430e+00 -1.116747e+00 -1.095376e+00 -1.042279e+00 -1.022866e+00 -9.700055e-01 -9.508850e-01 -8.990151e-01 -8.825036e-01 -8.313613e-01 -8.149006e-01 -7.636203e-01 -7.473124e-01 -6.966882e-01 -6.809734e-01 -6.317312e-01 -6.166629e-01 -5.691415e-01 -5.543567e-01 -5.081043e-01 -4.925067e-01 -4.471210e-01 -4.303814e-01 -3.858450e-01 -3.676895e-01 -3.238176e-01 -3.040063e-01 -2.600220e-01 -2.383526e-01 -1.947236e-01 -1.727276e-01 -1.301495e-01 -1.091895e-01 -6.795802e-02 -4.845270e-02 -7.469328e-03 1.064343e-02 5.224025e-02 6.882588e-02 1.115068e-01 1.261196e-01 1.700908e-01 1.826150e-01 2.283855e-01 2.392588e-01 2.870179e-01 2.966785e-01 3.460909e-01 3.548594e-01 4.053877e-01 4.141205e-01 4.651163e-01 4.743201e-01 5.245633e-01 5.350707e-01 5.841172e-01 5.970914e-01 6.443651e-01 6.597071e-01 7.041019e-01 7.205003e-01 7.615375e-01 7.761833e-01 8.155642e-01 8.284144e-01 
1.021156e+00 1.021767e+00 1.076007e+00 1.075875e+00 1.134102e+00 1.135336e+00 1.197993e+00 1.203406e+00 1.266395e+00 1.267678e+00 1.333513e+00 1.330967e+00 1.400077e+00 1.397496e+00 4.303024e-01 3.380688e-01 -5.623305e-01 -6.880115e-01 -1.587552e+00 -1.675153e+00 -2.645617e+00 -2.630964e+00 -2.577675e+00 -2.563278e+00 -2.511998e+00 -2.497920e+00 -2.449347e+00 -2.433652e+00 -2.385824e+00 -2.367006e+00 -2.320094e+00 -2.299054e+00 -2.254660e+00 -2.232649e+00 -2.189801e+00 -2.165332e+00 -2.122429e+00 -2.094584e+00 -2.050768e+00 -2.022148e+00 -1.980703e+00 -1.953043e+00 -1.911901e+00 -1.882926e+00 -1.840775e+00 -1.811661e+00 -1.769770e+00 -1.740882e+00 -1.697137e+00 -1.666845e+00 -1.622207e+00 -1.593188e+00 -1.548604e+00 -1.521098e+00 -1.477065e+00 -1.449717e+00 -1.401985e+00 -1.372098e+00 -1.323450e+00 -1.297039e+00 -1.250676e+00 -1.225430e+00 -1.176561e+00 -1.149715e+00 -1.097486e+00 -1.068991e+00 -1.015113e+00 -9.891139e-01 -9.366882e-01 -9.123415e-01 -8.596372e-01 -8.380767e-01 -7.871152e-01 -7.665905e-01 -7.140536e-01 -6.934943e-01 -6.416283e-01 -6.229235e-01 -5.733138e-01 -5.578900e-01 -5.117352e-01 -4.971970e-01 -4.501082e-01 -4.335377e-01 -3.861590e-01 -3.687698e-01 -3.220520e-01 -3.044305e-01 -2.584470e-01 -2.389871e-01 -1.907996e-01 -1.683042e-01 -1.190113e-01 -9.594094e-02 -4.723703e-02 -2.616668e-02 2.088993e-02 3.983970e-02 8.686342e-02 1.038698e-01 1.513768e-01 1.660059e-01 2.146272e-01 2.268705e-01 2.766062e-01 2.856141e-01 3.368168e-01 3.434577e-01 3.970566e-01 4.024126e-01 4.584972e-01 4.627832e-01 5.207786e-01 5.245097e-01 5.836697e-01 5.871855e-01 6.468979e-01 6.516216e-01 7.120176e-01 7.189309e-01 7.794210e-01 7.879752e-01 8.472998e-01 8.572329e-01 9.097481e-01 9.159695e-01 9.667132e-01 9.695593e-01 
8.663080e-01 8.734102e-01 9.098472e-01 9.181614e-01 9.595322e-01 9.742130e-01 1.024922e+00 1.043081e+00 1.092778e+00 1.101208e+00 1.152336e+00 1.152405e+00 1.205433e+00 1.198240e+00 3.056125e-01 2.110862e-01 -6.140083e-01 -7.443953e-01 -1.561753e+00 -1.663304e+00 -2.537003e+00 -2.550053e+00 -2.487326e+00 -2.492428e+00 -2.432881e+00 -2.438002e+00 -2.383325e+00 -2.384528e+00 -2.330069e+00 -2.327070e+00 -2.272699e+00 -2.263619e+00 -2.211986e+00 -2.202486e+00 -2.152927e+00 -2.139661e+00 -2.089596e+00 -2.068170e+00 -2.013666e+00 -1.993978e+00 -1.948736e+00 -1.932554e+00 -1.886161e+00 -1.865656e+00 -1.816050e+00 -1.794343e+00 -1.748442e+00 -1.731249e+00 -1.682630e+00 -1.658227e+00 -1.607108e+00 -1.585899e+00 -1.536587e+00 -1.519285e+00 -1.476008e+00 -1.460044e+00 -1.409039e+00 -1.385889e+00 -1.335530e+00 -1.319800e+00 -1.275299e+00 -1.261657e+00 -1.213340e+00 -1.192531e+00 -1.135685e+00 -1.108792e+00 -1.047866e+00 -1.023822e+00 -9.681733e-01 -9.468067e-01 -8.909564e-01 -8.736244e-01 -8.211809e-01 -8.025850e-01 -7.466488e-01 -7.273980e-01 -6.731402e-01 -6.566719e-01 -6.068658e-01 -5.946587e-01 -5.515234e-01 -5.434203e-01 -5.018554e-01 -4.902937e-01 -4.478239e-01 -4.343905e-01 -3.930058e-01 -3.776765e-01 -3.386212e-01 -3.204761e-01 -2.745608e-01 -2.457288e-01 -1.976767e-01 -1.683392e-01 -1.225014e-01 -9.802423e-02 -5.933739e-02 -3.826210e-02 1.347300e-03 2.169656e-02 6.291268e-02 8.207828e-02 1.243831e-01 1.390672e-01 1.800324e-01 1.891177e-01 2.321788e-01 2.391856e-01 2.863557e-01 2.928081e-01 3.425218e-01 3.459982e-01 3.974843e-01 4.029193e-01 4.579514e-01 4.635183e-01 5.156694e-01 5.221787e-01 5.746428e-01 5.894160e-01 6.425500e-01 6.644879e-01 7.116735e-01 7.399869e-01 7.747190e-01 7.899234e-01 8.231660e-01 8.323724e-01 
1.019407e+00 1.012502e+00 1.059933e+00 1.049463e+00 1.105883e+00 1.091359e+00 1.169226e+00 1.210308e+00 1.259432e+00 1.257361e+00 1.318435e+00 1.293061e+00 1.367869e+00 1.267979e+00 5.512717e-01 1.848033e-01 -3.578595e-01 -8.337173e-01 -1.348453e+00 -1.744606e+00 -2.463121e+00 -2.513386e+00 -2.450875e+00 -2.446080e+00 -2.392762e+00 -2.392283e+00 -2.353417e+00 -2.348808e+00 -2.301813e+00 -2.280733e+00 -2.228312e+00 -2.204773e+00 -2.166438e+00 -2.152330e+00 -2.117921e+00 -2.097860e+00 -2.059068e+00 -2.021993e+00 -1.966507e+00 -1.929712e+00 -1.895183e+00 -1.875736e+00 -1.840064e+00 -1.805405e+00 -1.758578e+00 -1.728416e+00 -1.694706e+00 -1.669796e+00 -1.621529e+00 -1.581042e+00 -1.533922e+00 -1.504786e+00 -1.460823e+00 -1.440913e+00 -1.416416e+00 -1.402662e+00 -1.347848e+00 -1.297488e+00 -1.241171e+00 -1.227896e+00 -1.202676e+00 -1.192450e+00 -1.149572e+00 -1.123155e+00 -1.063744e+00 -1.019728e+00 -9.516622e-01 -9.271979e-01 -8.804896e-01 -8.514587e-01 -7.868133e-01 -7.676912e-01 -7.280391e-01 -7.107741e-01 -6.476988e-01 -6.184578e-01 -5.600172e-01 -5.357576e-01 -4.830751e-01 -4.820156e-01 -4.590149e-01 -4.595304e-01 -4.117446e-01 -3.925714e-01 -3.438984e-01 -3.261427e-01 -2.818422e-01 -2.739878e-01 -2.415207e-01 -2.271887e-01 -1.760097e-01 -1.451201e-01 -8.884885e-02 -5.465264e-02 -1.554219e-03 2.118971e-02 6.358135e-02 8.307035e-02 1.283325e-01 1.474672e-01 1.913705e-01 2.043875e-01 2.510323e-01 2.656952e-01 3.125683e-01 3.164029e-01 3.608518e-01 3.604079e-01 4.100887e-01 4.115788e-01 4.673312e-01 4.686270e-01 5.280884e-01 5.280409e-01 5.862537e-01 5.821864e-01 6.412635e-01 6.432307e-01 7.068120e-01 7.161251e-01 7.817913e-01 7.909267e-01 8.765132e-01 9.047483e-01 9.359401e-01 9.419503e-01 9.795467e-01 9.772629e-01 
8.632353e-01 8.520990e-01 8.745571e-01 8.580686e-01 8.809779e-01 8.509912e-01 8.793450e-01 9.533711e-01 9.232665e-01 9.579877e-01 9.344352e-01 9.589870e-01 9.422749e-01 8.851624e-01 6.771059e-01 5.553996e-01 3.985147e-01 2.385936e-01 1.011167e-01 -4.362433e-02 -2.219360e-01 -2.876612e-01 -2.584999e-01 -2.604477e-01 -2.331481e-01 -2.437169e-01 -2.260606e-01 -2.389184e-01 -2.047707e-01 -1.970440e-01 -1.537323e-01 -1.573265e-01 -1.348527e-01 -1.552703e-01 -1.371278e-01 -1.543146e-01 -1.304076e-01 -1.357654e-01 -9.563641e-02 -9.307670e-02 -6.566877e-02 -8.197838e-02 -5.824729e-02 -5.790027e-02 -2.483199e-02 -3.341316e-02 -1.324940e-02 -1.537567e-02 2.271300e-02 2.935424e-02 5.722720e-02 5.305163e-02 7.810541e-02 6.851880e-02 7.634882e-02 6.270186e-02 1.044975e-01 1.378009e-01 1.842933e-01 1.722132e-01 1.779576e-01 1.657679e-01 1.930812e-01 1.922086e-01 2.277876e-01 2.434120e-01 2.833287e-01 2.720638e-01 2.880071e-01 2.912162e-01 3.359296e-01 3.317318e-01 3.399390e-01 3.285061e-01 3.668961e-01 3.752327e-01 4.078396e-01 4.130657e-01 4.421849e-01 4.149857e-01 4.061305e-01 3.888359e-01 4.285625e-01 4.405554e-01 4.797833e-01 4.862422e-01 5.181500e-01 5.020784e-01 5.172871e-01 5.069495e-01 5.353149e-01 5.272616e-01 5.585977e-01 5.572807e-01 5.874028e-01 5.797171e-01 6.084066e-01 6.036543e-01 6.315404e-01 6.268596e-01 6.451136e-01 6.317970e-01 6.501268e-01 6.517862e-01 6.732801e-01 6.706563e-01 6.809096e-01 6.756928e-01 6.837618e-01 6.839021e-01 6.971119e-01 7.060833e-01 7.222352e-01 7.227812e-01 7.276931e-01 7.206917e-01 7.378954e-01 7.399429e-01 7.674049e-01 7.594702e-01 7.913526e-01 7.636012e-01 8.451210e-01 8.343051e-01 8.455822e-01 8.335735e-01 8.519289e-01 8.419095e-01 
1.014912e+00 9.962578e-01 1.022033e+00 1.003588e+00 1.021557e+00 9.996368e-01 1.003782e+00 1.041123e+00 1.010284e+00 1.046175e+00 1.012696e+00 1.054380e+00 1.023972e+00 1.047229e+00 9.565752e-01 9.611736e-01 8.903208e-01 8.824379e-01 8.209824e-01 8.137041e-01 7.399574e-01 7.502263e-01 7.438565e-01 7.652206e-01 7.608485e-01 7.755769e-01 7.728707e-01 7.815783e-01 7.891282e-01 8.035982e-01 8.165822e-01 8.178016e-01 8.225793e-01 8.138363e-01 8.179245e-01 8.071303e-01 8.146070e-01 8.024855e-01 8.137806e-01 8.087008e-01 8.241823e-01 8.142852e-01 8.260776e-01 8.198359e-01 8.325580e-01 8.216929e-01 8.332752e-01 8.320833e-01 8.500151e-01 8.453629e-01 8.554575e-01 8.484307e-01 8.581779e-01 8.520016e-01 8.613108e-01 8.563068e-01 8.759258e-01 8.862415e-01 9.095814e-01 9.045377e-01 9.141716e-01 9.096427e-01 9.268367e-01 9.208984e-01 9.356259e-01 9.312819e-01 9.446011e-01 9.292371e-01 9.367975e-01 9.294118e-01 9.498365e-01 9.418028e-01 9.479979e-01 9.335750e-01 9.500851e-01 9.436610e-01 9.584475e-01 9.508113e-01 9.656166e-01 9.435341e-01 9.457103e-01 9.326880e-01 9.619837e-01 9.614296e-01 9.916340e-01 9.865410e-01 1.013791e+00 9.942082e-01 1.015411e+00 9.953723e-01 1.016125e+00 9.863357e-01 1.007462e+00 9.811849e-01 1.004126e+00 9.797880e-01 1.009027e+00 9.889130e-01 1.014848e+00 9.943137e-01 1.011955e+00 9.876878e-01 1.002786e+00 9.903698e-01 1.007434e+00 9.984546e-01 1.006532e+00 9.976583e-01 9.999737e-01 9.941704e-01 9.976532e-01 9.992823e-01 1.004112e+00 9.978049e-01 9.955063e-01 9.834766e-01 9.944869e-01 9.842025e-01 1.005033e+00 9.784351e-01 1.005637e+00 9.597840e-01 1.018134e+00 9.730637e-01 1.005692e+00 9.755471e-01 1.007216e+00 9.851663e-01 
8.600421e-01 8.476410e-01 8.587678e-01 8.504109e-01 8.538112e-01 8.515251e-01 8.423114e-01 8.618921e-01 8.378297e-01 8.628556e-01 8.350425e-01 8.579055e-01 8.342093e-01 8.470214e-01 8.342926e-01 8.414506e-01 8.374703e-01 8.385772e-01 8.425370e-01 8.370030e-01 8.461613e-01 8.345243e-01 8.425152e-01 8.323670e-01 8.413867e-01 8.321001e-01 8.438511e-01 8.339761e-01 8.498987e-01 8.408567e-01 8.589745e-01 8.447802e-01 8.613621e-01 8.432815e-01 8.596336e-01 8.397385e-01 8.573312e-01 8.361894e-01 8.541793e-01 8.355099e-01 8.562663e-01 8.379206e-01 8.570289e-01 8.391594e-01 8.572673e-01 8.394244e-01 8.582233e-01 8.449501e-01 8.641265e-01 8.493772e-01 8.653287e-01 8.507438e-01 8.656131e-01 8.522504e-01 8.687756e-01 8.579922e-01 8.761006e-01 8.674407e-01 8.858267e-01 8.746147e-01 8.910944e-01 8.798130e-01 8.974107e-01 8.852530e-01 9.015637e-01 8.884672e-01 9.036980e-01 8.891714e-01 9.041934e-01 8.914763e-01 9.088661e-01 8.973191e-01 9.120439e-01 8.984251e-01 9.137352e-01 9.015148e-01 9.159728e-01 9.026973e-01 9.163881e-01 8.995823e-01 9.114644e-01 8.973794e-01 9.170951e-01 9.064828e-01 9.281937e-01 9.157271e-01 9.365369e-01 9.184476e-01 9.375002e-01 9.172355e-01 9.348510e-01 9.102184e-01 9.280256e-01 9.046503e-01 9.233221e-01 9.020744e-01 9.228364e-01 9.041692e-01 9.221687e-01 9.043923e-01 9.177882e-01 9.009727e-01 9.110607e-01 8.997895e-01 9.079174e-01 9.001720e-01 9.026868e-01 8.963945e-01 8.944776e-01 8.902942e-01 8.875815e-01 8.863772e-01 8.839486e-01 8.794654e-01 8.763093e-01 8.682207e-01 8.722997e-01 8.613047e-01 8.730129e-01 8.527672e-01 8.715336e-01 8.421406e-01 8.712912e-01 8.399980e-01 8.637549e-01 8.410232e-01 8.607301e-01 8.439871e-01 
