# vtk DataFile Version 2.0
Comment goes here
ASCII

DATASET STRUCTURED_POINTS
FIELD FieldData 1
TIME 1 1 double
0.56000000
DIMENSIONS    128   16   1

ORIGIN    0.000   0.000   0.000
SPACING   0.0078125 0.015625   1.000

POINT_DATA   2048
SCALARS uMag double
LOOKUP_TABLE default

6.688102e-03 2.166683e-03 6.066771e-03 8.591606e-04 4.939477e-03 5.810859e-03 8.586396e-03 1.223892e-03 3.926946e-03 2.452044e-03 1.603331e-03 7.627462e-03 1.293766e-02 2.329613e-02 2.984220e-02 2.988932e-02 3.513327e-02 3.201937e-02 3.324743e-02 2.820927e-02 2.525102e-02 1.119396e-02 8.938863e-03 1.545759e-03 2.804778e-03 2.040109e-03 1.955396e-04 3.386567e-03 9.978089e-04 3.766539e-03 1.605911e-03 3.731211e-03 1.981040e-03 3.527194e-03 2.262171e-03 3.269395e-03 2.492570e-03 3.010644e-03 2.674878e-03 2.778717e-03 2.803958e-03 2.594239e-03 2.878235e-03 2.471382e-03 2.896992e-03 2.413426e-03 2.862123e-03 2.415552e-03 2.786492e-03 2.478276e-03 2.709443e-03 2.632392e-03 2.727418e-03 2.994170e-03 3.080225e-03 3.820934e-03 3.568357e-03 3.268949e-03 2.456574e-03 4.992890e-03 4.554536e-03 4.771483e-03 5.065219e-03 5.904996e-03 5.507301e-03 5.816144e-03 5.005705e-03 5.723782e-03 5.679319e-03 4.246238e-03 3.019979e-03 4.329140e-03 4.406038e-03 3.325840e-03 3.042844e-03 2.663752e-03 2.477315e-03 2.509180e-03 2.151028e-03 2.533452e-03 1.929276e-03 2.631274e-03 1.761650e-03 2.730934e-03 1.640030e-03 2.793515e-03 1.580184e-03 2.796573e-03 1.597237e-03 2.722550e-03 1.696415e-03 2.561892e-03 1.875038e-03 2.320044e-03 2.122793e-03 2.017965e-03 2.418896e-03 1.688564e-03 2.729238e-03 1.371848e-03 3.007544e-03 1.112239e-03 3.201648e-03 9.571028e-04 3.262055e-03 9.533829e-04 3.149851e-03 1.140486e-03 2.841039e-03 1.538421e-03 2.328698e-03 2.137476e-03 1.632422e-03 2.896396e-03 8.181309e-04 3.740847e-03 2.701871e-05 4.551912e-03 4.602884e-04 5.146926e-03 3.489848e-05 5.292698e-03 3.139272e-03 1.648755e-03 5.217243e-03 2.917628e-03 6.446376e-03 3.309614e-03 
3.780972e-03 6.384207e-04 4.039147e-03 3.274280e-03 4.996444e-03 1.055895e-02 8.212376e-03 4.908131e-03 2.271808e-03 5.531651e-03 5.566167e-03 1.133147e-02 1.731608e-02 1.689777e-02 7.892827e-03 5.427873e-03 4.096980e-03 2.403924e-03 5.100437e-03 8.015949e-03 1.750403e-02 1.678106e-02 9.917771e-03 6.210219e-03 3.769684e-03 2.669448e-03 1.466461e-03 1.661650e-03 4.237657e-04 1.526375e-03 1.051601e-04 1.458609e-03 4.309384e-04 1.326915e-03 6.909289e-04 1.150760e-03 9.141066e-04 9.555824e-04 1.095839e-03 7.733035e-04 1.234297e-03 6.264981e-04 1.320662e-03 5.293123e-04 1.347454e-03 4.877058e-04 1.309388e-03 4.753831e-04 1.201943e-03 4.593860e-04 1.082192e-03 5.400538e-04 1.234101e-03 1.165927e-03 2.119053e-03 1.532874e-03 1.894977e-03 4.176209e-03 5.661340e-03 4.809553e-03 1.655423e-03 3.062497e-03 2.582411e-03 8.974842e-04 1.039631e-03 1.198540e-03 2.471945e-03 2.608730e-03 4.095235e-03 7.805213e-03 8.104039e-03 9.627958e-03 8.517966e-03 5.987165e-03 4.370893e-03 2.693304e-03 2.074412e-03 1.442894e-03 1.081033e-03 1.010993e-03 5.947439e-04 9.080920e-04 3.139961e-04 9.136457e-04 1.586860e-04 9.399122e-04 9.450489e-05 9.454105e-04 5.377616e-05 8.852217e-04 1.519308e-04 7.427539e-04 3.323434e-04 5.420109e-04 5.721016e-04 3.528383e-04 8.526769e-04 3.680412e-04 1.150855e-03 5.721448e-04 1.424243e-03 7.858095e-04 1.616668e-03 9.267897e-04 1.686860e-03 9.433660e-04 1.602067e-03 8.185521e-04 1.358128e-03 6.213307e-04 1.007358e-03 7.385096e-04 7.770433e-04 1.334699e-03 1.116105e-03 2.136166e-03 1.779664e-03 2.989197e-03 2.337607e-03 3.810409e-03 2.261713e-03 5.221633e-03 3.654287e-03 3.179754e-03 4.106901e-03 1.356208e-03 3.984039e-03 9.520193e-04 
8.502326e-03 6.031952e-03 8.808746e-03 4.670707e-03 1.368772e-02 1.608450e-02 1.674341e-02 1.214164e-02 2.672128e-03 8.842825e-03 2.740002e-03 1.069314e-02 9.844577e-03 1.288244e-02 1.611332e-02 1.539856e-02 1.738375e-02 1.701211e-02 1.593153e-02 1.608816e-02 1.384008e-02 9.859102e-03 6.154611e-03 3.256810e-03 3.882199e-03 1.246434e-03 4.732256e-03 1.984537e-03 5.324727e-03 2.650560e-03 5.570861e-03 3.156386e-03 5.595900e-03 3.571221e-03 5.473316e-03 3.929852e-03 5.293329e-03 4.266149e-03 5.107666e-03 4.563985e-03 4.937214e-03 4.807331e-03 4.815476e-03 4.997689e-03 4.760103e-03 5.131354e-03 4.786596e-03 5.240133e-03 4.935431e-03 5.379706e-03 5.245687e-03 5.629429e-03 5.824928e-03 6.208176e-03 6.991313e-03 7.908296e-03 1.031710e-02 7.611298e-03 9.340792e-03 1.090617e-02 1.112382e-02 8.867116e-03 1.364440e-02 1.181394e-02 1.154434e-02 1.382794e-02 1.335471e-02 1.272564e-02 1.338280e-02 1.632567e-02 1.459296e-02 1.395670e-02 1.529966e-02 1.383955e-02 1.054588e-02 8.943776e-03 7.524013e-03 6.816085e-03 6.478758e-03 5.780204e-03 6.193024e-03 5.217967e-03 6.201156e-03 4.894560e-03 6.289808e-03 4.693724e-03 6.328426e-03 4.586937e-03 6.292656e-03 4.614075e-03 6.202622e-03 4.783041e-03 6.035994e-03 5.057199e-03 5.783794e-03 5.407671e-03 5.461798e-03 5.789041e-03 5.080799e-03 6.145023e-03 4.696957e-03 6.456603e-03 4.384791e-03 6.689563e-03 4.200115e-03 6.799421e-03 4.213213e-03 6.760913e-03 4.463898e-03 6.531406e-03 4.936064e-03 6.114281e-03 5.613310e-03 5.542692e-03 6.466934e-03 4.782593e-03 7.427461e-03 3.784860e-03 8.474339e-03 2.674675e-03 9.638702e-03 5.454310e-03 1.705713e-02 9.929937e-03 8.526085e-03 3.999663e-03 8.147875e-03 6.197464e-03 
6.227008e-03 8.098105e-03 1.073172e-02 1.449288e-02 3.031114e-02 2.773283e-03 2.057602e-02 1.355336e-02 1.332785e-02 1.444064e-02 1.072070e-02 1.486935e-02 8.362624e-03 1.580260e-02 1.010145e-02 1.642683e-02 1.123415e-02 1.629037e-02 1.168235e-02 1.466519e-02 1.153410e-02 1.111396e-02 1.263245e-02 1.192548e-02 1.294530e-02 1.217676e-02 1.334803e-02 1.226447e-02 1.365403e-02 1.228252e-02 1.385459e-02 1.229747e-02 1.395113e-02 1.233047e-02 1.395874e-02 1.238542e-02 1.390770e-02 1.246670e-02 1.381228e-02 1.256096e-02 1.368229e-02 1.264716e-02 1.352944e-02 1.270979e-02 1.334785e-02 1.272371e-02 1.312332e-02 1.265744e-02 1.282893e-02 1.245996e-02 1.239751e-02 1.204244e-02 1.171178e-02 1.130923e-02 1.063143e-02 9.995442e-03 8.641446e-03 6.270499e-03 6.723283e-03 9.356371e-03 8.284046e-03 7.483316e-03 9.980089e-03 1.088976e-02 9.722265e-03 1.165085e-02 1.331231e-02 1.510605e-02 1.411324e-02 1.828661e-02 2.017814e-02 2.224312e-02 2.102294e-02 1.908301e-02 1.754837e-02 1.612773e-02 1.576729e-02 1.478199e-02 1.491483e-02 1.406306e-02 1.447371e-02 1.364354e-02 1.424485e-02 1.338723e-02 1.413223e-02 1.321908e-02 1.406443e-02 1.311145e-02 1.401420e-02 1.306617e-02 1.398046e-02 1.307742e-02 1.394148e-02 1.312862e-02 1.388058e-02 1.320742e-02 1.378754e-02 1.330246e-02 1.365158e-02 1.339737e-02 1.348625e-02 1.349845e-02 1.330602e-02 1.361918e-02 1.312262e-02 1.376626e-02 1.295793e-02 1.394963e-02 1.283020e-02 1.415839e-02 1.274298e-02 1.439034e-02 1.269373e-02 1.463069e-02 1.269626e-02 1.481714e-02 1.275816e-02 1.489796e-02 1.293681e-02 1.478373e-02 1.361154e-02 1.431523e-02 2.032855e-02 3.620897e-02 2.234153e-02 6.913337e-03 6.911119e-03 6.660789e-03 
1.762505e-02 2.177927e-02 1.996602e-02 2.839792e-02 3.170906e-02 4.252412e-02 1.913713e-02 2.459124e-02 1.564283e-02 2.030032e-02 1.378503e-02 1.688943e-02 7.589575e-03 1.131253e-02 9.758869e-03 1.083400e-02 1.060499e-02 1.043856e-02 1.106052e-02 9.746738e-03 1.131627e-02 8.288023e-03 1.664942e-02 1.404487e-02 1.871418e-02 1.663594e-02 1.960682e-02 1.800852e-02 1.995940e-02 1.882397e-02 2.005249e-02 1.938602e-02 2.000680e-02 1.979441e-02 1.986994e-02 2.009844e-02 1.970780e-02 2.033745e-02 1.955270e-02 2.050173e-02 1.940734e-02 2.058050e-02 1.928631e-02 2.057043e-02 1.918570e-02 2.044782e-02 1.908402e-02 2.019975e-02 1.895600e-02 1.979798e-02 1.872586e-02 1.916731e-02 1.829819e-02 1.827036e-02 1.765497e-02 1.698459e-02 1.525451e-02 1.052784e-02 1.139470e-02 1.608637e-02 1.615751e-02 1.366948e-02 1.813490e-02 1.993196e-02 1.933307e-02 1.999322e-02 2.489497e-02 2.568381e-02 2.556121e-02 2.989014e-02 3.340234e-02 3.716451e-02 3.445026e-02 3.094188e-02 2.726110e-02 2.604315e-02 2.400808e-02 2.365257e-02 2.248472e-02 2.232767e-02 2.176224e-02 2.153721e-02 2.143633e-02 2.105313e-02 2.128780e-02 2.073881e-02 2.116328e-02 2.053685e-02 2.102011e-02 2.047120e-02 2.086709e-02 2.054481e-02 2.067642e-02 2.072038e-02 2.043529e-02 2.097225e-02 2.015760e-02 2.125806e-02 1.985223e-02 2.152306e-02 1.956781e-02 2.174435e-02 1.936824e-02 2.188201e-02 1.929122e-02 2.188660e-02 1.938480e-02 2.172946e-02 1.967633e-02 2.136832e-02 2.016678e-02 2.080692e-02 2.087913e-02 2.009679e-02 2.181267e-02 1.926474e-02 2.292288e-02 1.839934e-02 2.421021e-02 1.781286e-02 2.568852e-02 1.858572e-02 2.787789e-02 5.207185e-02 2.762220e-02 2.325949e-02 1.780263e-02 2.049815e-02 
1.851547e-02 2.021633e-02 2.028550e-02 2.297211e-02 2.564827e-02 3.464923e-02 3.541748e-02 3.478754e-02 3.011138e-02 3.277731e-02 2.801066e-02 3.103844e-02 2.489049e-02 2.500204e-02 2.452592e-02 2.488429e-02 2.472911e-02 2.472023e-02 2.491002e-02 2.456051e-02 2.500622e-02 2.532095e-02 3.093814e-02 2.876233e-02 3.199597e-02 3.017005e-02 3.270150e-02 3.087645e-02 3.306683e-02 3.127994e-02 3.322112e-02 3.157691e-02 3.323489e-02 3.182302e-02 3.314379e-02 3.204288e-02 3.300233e-02 3.225246e-02 3.284326e-02 3.242995e-02 3.267328e-02 3.255051e-02 3.250214e-02 3.259187e-02 3.231439e-02 3.250983e-02 3.206683e-02 3.224707e-02 3.168556e-02 3.169904e-02 3.100478e-02 3.066540e-02 2.975410e-02 2.887033e-02 2.761457e-02 2.634165e-02 2.591823e-02 2.190898e-02 2.319889e-02 2.420744e-02 2.416095e-02 2.445133e-02 2.660216e-02 2.605742e-02 2.715147e-02 2.826970e-02 2.919985e-02 2.934004e-02 2.845954e-02 3.198301e-02 2.988851e-02 2.920094e-02 3.117555e-02 3.287571e-02 3.190147e-02 3.212994e-02 3.208135e-02 3.229966e-02 3.258976e-02 3.246800e-02 3.300153e-02 3.252539e-02 3.330684e-02 3.252453e-02 3.351971e-02 3.249361e-02 3.362359e-02 3.246117e-02 3.363671e-02 3.248719e-02 3.359057e-02 3.259521e-02 3.347898e-02 3.276932e-02 3.329983e-02 3.299819e-02 3.306838e-02 3.325551e-02 3.279440e-02 3.350757e-02 3.251525e-02 3.374313e-02 3.228160e-02 3.393449e-02 3.212209e-02 3.404652e-02 3.207056e-02 3.405673e-02 3.214601e-02 3.393256e-02 3.235099e-02 3.367287e-02 3.271307e-02 3.331418e-02 3.324733e-02 3.288476e-02 3.395703e-02 3.246119e-02 3.493062e-02 3.226858e-02 3.640668e-02 3.274525e-02 4.010976e-02 3.471884e-02 2.170525e-02 2.209783e-02 1.870430e-02 1.984865e-02 
2.463293e-02 2.629724e-02 2.551102e-02 2.750180e-02 2.747847e-02 2.961500e-02 3.373293e-02 3.483966e-02 3.245309e-02 3.572842e-02 3.317410e-02 3.721230e-02 3.614612e-02 3.525909e-02 3.473110e-02 3.511879e-02 3.496417e-02 3.492498e-02 3.517420e-02 3.473304e-02 3.528923e-02 3.654095e-02 3.699407e-02 3.406394e-02 3.515062e-02 3.342694e-02 3.479445e-02 3.323524e-02 3.468078e-02 3.321141e-02 3.461505e-02 3.327925e-02 3.453910e-02 3.339672e-02 3.443635e-02 3.353781e-02 3.431146e-02 3.368368e-02 3.417292e-02 3.381323e-02 3.402563e-02 3.390523e-02 3.387166e-02 3.393971e-02 3.370344e-02 3.389411e-02 3.350440e-02 3.374433e-02 3.325194e-02 3.346932e-02 3.292530e-02 3.307283e-02 3.254683e-02 3.263400e-02 3.223015e-02 3.252601e-02 3.332290e-02 3.407092e-02 3.467673e-02 3.344557e-02 3.248206e-02 3.296814e-02 3.263253e-02 3.173649e-02 3.082724e-02 3.218191e-02 2.982047e-02 3.010318e-02 2.972247e-02 2.977028e-02 2.906086e-02 2.830961e-02 2.796581e-02 3.064770e-02 3.148218e-02 3.284591e-02 3.314165e-02 3.376394e-02 3.395952e-02 3.413857e-02 3.438766e-02 3.425701e-02 3.462179e-02 3.426525e-02 3.474784e-02 3.423657e-02 3.479809e-02 3.421296e-02 3.478970e-02 3.422488e-02 3.473461e-02 3.428515e-02 3.463647e-02 3.439135e-02 3.449929e-02 3.453428e-02 3.433214e-02 3.469818e-02 3.414761e-02 3.486430e-02 3.396667e-02 3.501647e-02 3.381422e-02 3.513608e-02 3.371096e-02 3.520399e-02 3.367449e-02 3.520502e-02 3.371497e-02 3.512793e-02 3.383367e-02 3.497372e-02 3.402645e-02 3.475726e-02 3.427361e-02 3.450104e-02 3.453101e-02 3.424043e-02 3.472153e-02 3.400867e-02 3.468682e-02 3.369078e-02 3.439143e-02 2.994479e-02 2.733119e-02 2.706326e-02 2.518463e-02 2.604048e-02 
2.379416e-02 2.466676e-02 2.480621e-02 2.620404e-02 2.696370e-02 2.863014e-02 2.998143e-02 3.159657e-02 3.231433e-02 3.403189e-02 3.576256e-02 3.712615e-02 4.182893e-02 4.184073e-02 4.164246e-02 4.181253e-02 4.173894e-02 4.174233e-02 4.181471e-02 4.165444e-02 4.184217e-02 4.196847e-02 3.658101e-02 3.572387e-02 3.400413e-02 3.319530e-02 3.304072e-02 3.194072e-02 3.257834e-02 3.131064e-02 3.231378e-02 3.101780e-02 3.212382e-02 3.091531e-02 3.195851e-02 3.092111e-02 3.180249e-02 3.098491e-02 3.165383e-02 3.107039e-02 3.151403e-02 3.115040e-02 3.138583e-02 3.120616e-02 3.127162e-02 3.122828e-02 3.117817e-02 3.122507e-02 3.112945e-02 3.123921e-02 3.119188e-02 3.138192e-02 3.152187e-02 3.187551e-02 3.240078e-02 3.317428e-02 3.486555e-02 3.603221e-02 3.569566e-02 3.330506e-02 3.292898e-02 3.223823e-02 3.236352e-02 3.125858e-02 3.017602e-02 3.208062e-02 3.089135e-02 3.040239e-02 3.096862e-02 3.289384e-02 3.278881e-02 3.228779e-02 3.076680e-02 3.072336e-02 3.062231e-02 3.088527e-02 3.099461e-02 3.101323e-02 3.129949e-02 3.109346e-02 3.156038e-02 3.114128e-02 3.177158e-02 3.116906e-02 3.192614e-02 3.119110e-02 3.201830e-02 3.122375e-02 3.204882e-02 3.128430e-02 3.202291e-02 3.138240e-02 3.194544e-02 3.151749e-02 3.182372e-02 3.168192e-02 3.166968e-02 3.186166e-02 3.149937e-02 3.203898e-02 3.133460e-02 3.219579e-02 3.119972e-02 3.231212e-02 3.111601e-02 3.236794e-02 3.110037e-02 3.234675e-02 3.116207e-02 3.223724e-02 3.130058e-02 3.203753e-02 3.150374e-02 3.175312e-02 3.173541e-02 3.138550e-02 3.191624e-02 3.091584e-02 3.188901e-02 3.026494e-02 3.134009e-02 2.921191e-02 2.975662e-02 2.735025e-02 2.616052e-02 2.530582e-02 2.421633e-02 2.434190e-02 
2.670545e-02 2.774681e-02 2.737568e-02 2.880186e-02 2.912191e-02 3.067367e-02 3.190245e-02 3.355826e-02 3.423417e-02 3.606860e-02 3.757356e-02 3.878536e-02 4.329081e-02 4.364591e-02 4.338431e-02 4.358919e-02 4.351129e-02 4.348158e-02 4.362571e-02 4.336608e-02 4.367989e-02 4.326993e-02 3.782376e-02 3.732426e-02 3.574203e-02 3.498799e-02 3.494282e-02 3.391250e-02 3.458349e-02 3.343531e-02 3.439281e-02 3.325772e-02 3.426121e-02 3.323783e-02 3.414765e-02 3.330259e-02 3.404064e-02 3.341139e-02 3.394211e-02 3.354008e-02 3.385946e-02 3.367466e-02 3.380307e-02 3.381124e-02 3.378824e-02 3.396006e-02 3.384077e-02 3.415215e-02 3.400567e-02 3.444907e-02 3.435799e-02 3.495087e-02 3.500504e-02 3.578019e-02 3.604376e-02 3.706996e-02 3.793297e-02 3.991961e-02 3.892148e-02 3.688877e-02 3.748270e-02 3.879410e-02 3.643279e-02 3.641480e-02 3.699237e-02 3.665797e-02 3.459679e-02 3.500387e-02 3.461477e-02 3.334855e-02 3.027764e-02 3.047717e-02 3.096144e-02 3.217658e-02 3.244464e-02 3.312974e-02 3.318310e-02 3.350770e-02 3.357941e-02 3.366333e-02 3.383150e-02 3.372498e-02 3.400384e-02 3.374776e-02 3.411875e-02 3.376139e-02 3.418351e-02 3.378500e-02 3.420114e-02 3.383148e-02 3.417457e-02 3.390761e-02 3.410815e-02 3.401381e-02 3.400848e-02 3.414436e-02 3.388514e-02 3.428866e-02 3.375119e-02 3.443296e-02 3.362269e-02 3.456171e-02 3.351676e-02 3.465872e-02 3.344890e-02 3.470861e-02 3.343048e-02 3.469888e-02 3.346667e-02 3.462229e-02 3.355401e-02 3.447741e-02 3.367573e-02 3.426501e-02 3.379274e-02 3.397686e-02 3.382760e-02 3.357048e-02 3.363683e-02 3.292030e-02 3.297478e-02 3.175692e-02 3.150796e-02 2.976636e-02 2.885687e-02 2.824407e-02 2.719629e-02 2.754890e-02 
2.379205e-02 2.466679e-02 2.480457e-02 2.620430e-02 2.696253e-02 2.863087e-02 2.998153e-02 3.159668e-02 3.231559e-02 3.403243e-02 3.576446e-02 3.712685e-02 4.183000e-02 4.184101e-02 4.164289e-02 4.181262e-02 4.173898e-02 4.174221e-02 4.181441e-02 4.165417e-02 4.184184e-02 4.196666e-02 3.659101e-02 3.572662e-02 3.400979e-02 3.320088e-02 3.304624e-02 3.194852e-02 3.258729e-02 3.132120e-02 3.232875e-02 3.103080e-02 3.214735e-02 3.093187e-02 3.199413e-02 3.094314e-02 3.185439e-02 3.101817e-02 3.173246e-02 3.113032e-02 3.163828e-02 3.126148e-02 3.158154e-02 3.140370e-02 3.157766e-02 3.156632e-02 3.165220e-02 3.177684e-02 3.184031e-02 3.207873e-02 3.218340e-02 3.252035e-02 3.270695e-02 3.311324e-02 3.335307e-02 3.374894e-02 3.401458e-02 3.465940e-02 3.469069e-02 3.426845e-02 3.449660e-02 3.490494e-02 3.406537e-02 3.406227e-02 3.411598e-02 3.394499e-02 3.307525e-02 3.330497e-02 3.321827e-02 3.298436e-02 3.183503e-02 3.183225e-02 3.188467e-02 3.223907e-02 3.217343e-02 3.215570e-02 3.212050e-02 3.190499e-02 3.204281e-02 3.166992e-02 3.201113e-02 3.149025e-02 3.201974e-02 3.136798e-02 3.204403e-02 3.129910e-02 3.206028e-02 3.128104e-02 3.204980e-02 3.131169e-02 3.200152e-02 3.138993e-02 3.191383e-02 3.151254e-02 3.179074e-02 3.166944e-02 3.164056e-02 3.184574e-02 3.147843e-02 3.202397e-02 3.132387e-02 3.218351e-02 3.119812e-02 3.230331e-02 3.112198e-02 3.236258e-02 3.111044e-02 3.234268e-02 3.117241e-02 3.223373e-02 3.131012e-02 3.203507e-02 3.151120e-02 3.175060e-02 3.173924e-02 3.138266e-02 3.191681e-02 3.091312e-02 3.188616e-02 3.026140e-02 3.133376e-02 2.920832e-02 2.974968e-02 2.734845e-02 2.615594e-02 2.530517e-02 2.421334e-02 2.434172e-02 
2.462865e-02 2.629701e-02 2.550754e-02 2.750206e-02 2.747595e-02 2.961787e-02 3.373417e-02 3.483915e-02 3.245861e-02 3.572985e-02 3.318112e-02 3.721395e-02 3.614936e-02 3.525893e-02 3.473190e-02 3.511868e-02 3.496375e-02 3.492485e-02 3.517341e-02 3.473228e-02 3.528940e-02 3.653024e-02 3.700790e-02 3.406787e-02 3.516411e-02 3.344004e-02 3.481230e-02 3.325718e-02 3.471084e-02 3.324436e-02 3.466317e-02 3.332315e-02 3.461103e-02 3.345490e-02 3.453994e-02 3.361500e-02 3.445538e-02 3.379164e-02 3.437769e-02 3.398235e-02 3.432773e-02 3.418297e-02 3.431978e-02 3.439349e-02 3.437267e-02 3.463007e-02 3.451367e-02 3.492164e-02 3.477204e-02 3.530278e-02 3.517296e-02 3.580199e-02 3.571835e-02 3.641150e-02 3.635163e-02 3.704528e-02 3.692595e-02 3.755739e-02 3.726211e-02 3.759074e-02 3.723661e-02 3.765139e-02 3.695574e-02 3.728406e-02 3.664459e-02 3.684375e-02 3.599220e-02 3.622784e-02 3.537356e-02 3.548070e-02 3.453806e-02 3.486092e-02 3.431529e-02 3.465797e-02 3.425865e-02 3.449024e-02 3.423601e-02 3.432979e-02 3.424876e-02 3.419285e-02 3.429821e-02 3.409098e-02 3.437136e-02 3.402594e-02 3.444702e-02 3.399827e-02 3.450604e-02 3.400924e-02 3.453142e-02 3.405812e-02 3.451247e-02 3.414649e-02 3.444978e-02 3.427525e-02 3.434837e-02 3.443634e-02 3.421540e-02 3.461662e-02 3.406578e-02 3.480108e-02 3.391828e-02 3.497029e-02 3.379319e-02 3.510489e-02 3.371154e-02 3.518520e-02 3.368761e-02 3.519203e-02 3.373112e-02 3.511767e-02 3.384940e-02 3.496597e-02 3.403826e-02 3.474892e-02 3.427790e-02 3.449157e-02 3.452884e-02 3.423123e-02 3.471320e-02 3.399857e-02 3.467284e-02 3.368168e-02 3.437815e-02 2.994181e-02 2.732258e-02 2.706227e-02 2.517880e-02 2.604005e-02 
1.851076e-02 2.021718e-02 2.028078e-02 2.297317e-02 2.564371e-02 3.465769e-02 3.541555e-02 3.478306e-02 3.011508e-02 3.277858e-02 2.802038e-02 3.104111e-02 2.489536e-02 2.500252e-02 2.452778e-02 2.488450e-02 2.472895e-02 2.471951e-02 2.490799e-02 2.455781e-02 2.500363e-02 2.531232e-02 3.094902e-02 2.877703e-02 3.200260e-02 3.018481e-02 3.269951e-02 3.089333e-02 3.307747e-02 3.130752e-02 3.324748e-02 3.160419e-02 3.327978e-02 3.185442e-02 3.321750e-02 3.206966e-02 3.309297e-02 3.226460e-02 3.296924e-02 3.246965e-02 3.288931e-02 3.267158e-02 3.284599e-02 3.284522e-02 3.284769e-02 3.300979e-02 3.292699e-02 3.319582e-02 3.309985e-02 3.342507e-02 3.337228e-02 3.371330e-02 3.372244e-02 3.403677e-02 3.409036e-02 3.435497e-02 3.442092e-02 3.462907e-02 3.465082e-02 3.475465e-02 3.470787e-02 3.482989e-02 3.461981e-02 3.474091e-02 3.448680e-02 3.462299e-02 3.423159e-02 3.443328e-02 3.403067e-02 3.421212e-02 3.372570e-02 3.393685e-02 3.358233e-02 3.373130e-02 3.347992e-02 3.348746e-02 3.339540e-02 3.321759e-02 3.334009e-02 3.295443e-02 3.333426e-02 3.273722e-02 3.337391e-02 3.257444e-02 3.342956e-02 3.247393e-02 3.348063e-02 3.244268e-02 3.349342e-02 3.246724e-02 3.343953e-02 3.255310e-02 3.332949e-02 3.271563e-02 3.317093e-02 3.293470e-02 3.295976e-02 3.318574e-02 3.272137e-02 3.345332e-02 3.248525e-02 3.370265e-02 3.228022e-02 3.390775e-02 3.215020e-02 3.403885e-02 3.211190e-02 3.404711e-02 3.217738e-02 3.392014e-02 3.238150e-02 3.367049e-02 3.273980e-02 3.330894e-02 3.325683e-02 3.287650e-02 3.396020e-02 3.245925e-02 3.492413e-02 3.225708e-02 3.637784e-02 3.272667e-02 4.007634e-02 3.471265e-02 2.169505e-02 2.209938e-02 1.869845e-02 1.984984e-02 
1.761913e-02 2.177852e-02 1.995887e-02 2.839454e-02 3.170614e-02 4.252480e-02 1.911527e-02 2.457755e-02 1.561920e-02 2.029132e-02 1.377176e-02 1.688162e-02 7.584486e-03 1.130387e-02 9.752938e-03 1.083060e-02 1.059985e-02 1.043874e-02 1.105469e-02 9.745927e-03 1.132228e-02 8.286585e-03 1.667453e-02 1.408780e-02 1.874925e-02 1.667978e-02 1.962444e-02 1.805115e-02 1.998129e-02 1.887634e-02 2.008234e-02 1.943724e-02 2.005339e-02 1.985650e-02 1.995673e-02 2.016799e-02 1.982908e-02 2.040294e-02 1.974286e-02 2.061399e-02 1.973667e-02 2.079311e-02 1.978186e-02 2.090850e-02 1.987286e-02 2.098161e-02 2.003161e-02 2.104261e-02 2.025465e-02 2.110447e-02 2.052797e-02 2.117424e-02 2.081139e-02 2.122144e-02 2.104135e-02 2.122846e-02 2.120076e-02 2.121936e-02 2.128387e-02 2.113555e-02 2.116943e-02 2.098645e-02 2.092759e-02 2.077235e-02 2.061300e-02 2.052305e-02 2.025336e-02 2.029101e-02 1.987588e-02 2.008634e-02 1.962387e-02 1.993604e-02 1.943096e-02 1.986887e-02 1.943205e-02 1.988461e-02 1.956358e-02 1.990983e-02 1.974667e-02 1.991250e-02 1.995381e-02 1.991311e-02 2.016579e-02 1.991973e-02 2.035036e-02 1.995310e-02 2.049492e-02 2.003331e-02 2.056759e-02 2.015099e-02 2.054023e-02 2.031831e-02 2.043531e-02 2.055766e-02 2.026633e-02 2.084295e-02 2.003068e-02 2.114001e-02 1.976781e-02 2.142893e-02 1.952070e-02 2.166411e-02 1.933465e-02 2.181254e-02 1.927631e-02 2.183970e-02 1.937599e-02 2.168283e-02 1.965547e-02 2.132896e-02 2.015612e-02 2.079746e-02 2.088433e-02 2.009983e-02 2.181623e-02 1.928110e-02 2.293434e-02 1.843274e-02 2.422104e-02 1.783146e-02 2.566802e-02 1.859257e-02 2.783637e-02 5.203926e-02 2.760234e-02 2.326330e-02 1.779668e-02 2.050012e-02 
6.222714e-03 8.097396e-03 1.072522e-02 1.448675e-02 3.031070e-02 2.762199e-03 2.060189e-02 1.355825e-02 1.335672e-02 1.445115e-02 1.074944e-02 1.487534e-02 8.391913e-03 1.579974e-02 1.011953e-02 1.642365e-02 1.123750e-02 1.628199e-02 1.167522e-02 1.464976e-02 1.151522e-02 1.110814e-02 1.263204e-02 1.191469e-02 1.293067e-02 1.216603e-02 1.334588e-02 1.226979e-02 1.368109e-02 1.230891e-02 1.390832e-02 1.234034e-02 1.403283e-02 1.239059e-02 1.406334e-02 1.246115e-02 1.402037e-02 1.255018e-02 1.394325e-02 1.267333e-02 1.385378e-02 1.282652e-02 1.375819e-02 1.299058e-02 1.367675e-02 1.316882e-02 1.363230e-02 1.336982e-02 1.363578e-02 1.359417e-02 1.369177e-02 1.383792e-02 1.379034e-02 1.408040e-02 1.390304e-02 1.429639e-02 1.399459e-02 1.444193e-02 1.402075e-02 1.452725e-02 1.402307e-02 1.449848e-02 1.392141e-02 1.437564e-02 1.374346e-02 1.414603e-02 1.348886e-02 1.383465e-02 1.323997e-02 1.349058e-02 1.297958e-02 1.321948e-02 1.290067e-02 1.303273e-02 1.289198e-02 1.293309e-02 1.297156e-02 1.289382e-02 1.309875e-02 1.288146e-02 1.324241e-02 1.288202e-02 1.338270e-02 1.288260e-02 1.350149e-02 1.288410e-02 1.359520e-02 1.289273e-02 1.365742e-02 1.291121e-02 1.368386e-02 1.294776e-02 1.368781e-02 1.301422e-02 1.366938e-02 1.310835e-02 1.361903e-02 1.321797e-02 1.354092e-02 1.334164e-02 1.343328e-02 1.347506e-02 1.330199e-02 1.362156e-02 1.316112e-02 1.379006e-02 1.301975e-02 1.397108e-02 1.289140e-02 1.417140e-02 1.279072e-02 1.439178e-02 1.272885e-02 1.460497e-02 1.270722e-02 1.477731e-02 1.274932e-02 1.484706e-02 1.292894e-02 1.472112e-02 1.358982e-02 1.427082e-02 2.032244e-02 3.615109e-02 2.232846e-02 6.915095e-03 6.912710e-03 6.664321e-03 
8.499852e-03 6.031573e-03 8.804096e-03 4.665000e-03 1.368054e-02 1.609167e-02 1.674113e-02 1.213248e-02 2.665997e-03 8.851815e-03 2.718531e-03 1.070059e-02 9.823292e-03 1.287468e-02 1.610157e-02 1.539551e-02 1.738786e-02 1.700495e-02 1.595891e-02 1.608586e-02 1.388180e-02 9.849863e-03 6.166753e-03 3.224878e-03 3.909910e-03 1.248242e-03 4.733709e-03 1.988199e-03 5.327319e-03 2.667362e-03 5.577945e-03 3.168459e-03 5.606883e-03 3.581082e-03 5.496282e-03 3.923732e-03 5.300540e-03 4.212583e-03 5.108291e-03 4.491935e-03 4.970661e-03 4.741316e-03 4.868541e-03 4.912116e-03 4.801337e-03 5.011362e-03 4.789400e-03 5.054188e-03 4.820025e-03 5.036400e-03 4.863485e-03 4.950706e-03 4.867889e-03 4.766863e-03 4.776875e-03 4.508011e-03 4.646352e-03 4.332354e-03 4.599237e-03 4.061697e-03 4.268110e-03 3.900204e-03 4.034555e-03 3.788072e-03 3.943628e-03 3.845149e-03 4.032747e-03 4.091626e-03 4.136297e-03 4.448710e-03 4.546351e-03 4.680247e-03 4.621996e-03 4.876877e-03 4.916376e-03 5.028236e-03 5.223315e-03 5.045253e-03 5.477605e-03 4.951493e-03 5.693576e-03 4.821126e-03 5.885022e-03 4.696032e-03 6.035195e-03 4.614264e-03 6.137355e-03 4.606323e-03 6.161141e-03 4.669269e-03 6.078524e-03 4.816774e-03 5.913277e-03 5.069877e-03 5.677928e-03 5.397349e-03 5.367647e-03 5.755621e-03 5.020930e-03 6.118596e-03 4.679839e-03 6.437111e-03 4.394099e-03 6.677314e-03 4.240964e-03 6.805047e-03 4.266714e-03 6.756740e-03 4.499168e-03 6.522535e-03 4.963576e-03 6.118880e-03 5.640480e-03 5.538482e-03 6.477090e-03 4.774889e-03 7.434952e-03 3.778583e-03 8.480232e-03 2.662941e-03 9.613360e-03 5.470919e-03 1.702316e-02 9.908589e-03 8.530100e-03 4.001492e-03 8.148039e-03 6.198454e-03 
3.779228e-03 6.360494e-04 4.036046e-03 3.271381e-03 4.992286e-03 1.055686e-02 8.213804e-03 4.905033e-03 2.279621e-03 5.536991e-03 5.573079e-03 1.133765e-02 1.732302e-02 1.691183e-02 7.894390e-03 5.457747e-03 4.094509e-03 2.371809e-03 5.097038e-03 7.978709e-03 1.747036e-02 1.675684e-02 9.923818e-03 6.183451e-03 3.791408e-03 2.641643e-03 1.497808e-03 1.632478e-03 4.612787e-04 1.501553e-03 8.478528e-05 1.439751e-03 4.008776e-04 1.308671e-03 6.592071e-04 1.137488e-03 8.881238e-04 9.536168e-04 1.071776e-03 7.702543e-04 1.191239e-03 6.185117e-04 1.257816e-03 5.286707e-04 1.280220e-03 5.064875e-04 1.257899e-03 5.518388e-04 1.207273e-03 6.683038e-04 1.161678e-03 8.574816e-04 1.168860e-03 1.121186e-03 1.264361e-03 1.446161e-03 1.406562e-03 1.627714e-03 1.327653e-03 1.839142e-03 1.562958e-03 2.023742e-03 1.843319e-03 2.129110e-03 2.209149e-03 2.531978e-03 2.389077e-03 2.572598e-03 2.993200e-03 2.718811e-03 2.520123e-03 2.385240e-03 2.785461e-03 2.204361e-03 2.316285e-03 1.729242e-03 1.716517e-03 1.383663e-03 1.210936e-03 1.214960e-03 8.153822e-04 1.151135e-03 5.060132e-04 1.130437e-03 2.784018e-04 1.107651e-03 1.463375e-04 1.050051e-03 1.430453e-04 9.457908e-04 2.294952e-04 7.828800e-04 3.845690e-04 5.616952e-04 6.027326e-04 3.455589e-04 8.746761e-04 3.241403e-04 1.166354e-03 5.319162e-04 1.431004e-03 7.560128e-04 1.621566e-03 9.051538e-04 1.686285e-03 9.331534e-04 1.599163e-03 8.106741e-04 1.357154e-03 6.250589e-04 9.937470e-04 7.478286e-04 7.566329e-04 1.332324e-03 1.108183e-03 2.127517e-03 1.783478e-03 2.974262e-03 2.345165e-03 3.807165e-03 2.255882e-03 5.234520e-03 3.641660e-03 3.178302e-03 4.109628e-03 1.358379e-03 3.984393e-03 9.533088e-04 
