# vtk DataFile Version 2.0
Comment goes here
ASCII

DATASET STRUCTURED_POINTS
FIELD FieldData 1
TIME 1 1 double
0.72000000
DIMENSIONS    128   16   1

ORIGIN    0.000   0.000   0.000
SPACING   0.0078125 0.015625   1.000

POINT_DATA   2048
SCALARS uMag double
LOOKUP_TABLE default

7.530674e-03 3.648523e-03 6.360066e-03 7.547216e-04 4.756976e-03 2.207055e-03 1.085759e-02 1.271438e-03 5.199787e-03 4.539218e-03 3.272444e-03 1.373413e-02 2.116948e-02 3.694151e-02 4.579326e-02 4.824101e-02 5.272131e-02 5.087014e-02 4.993196e-02 4.413912e-02 3.810426e-02 1.952162e-02 1.382647e-02 3.970416e-03 3.469103e-03 2.267786e-03 8.759093e-04 4.800514e-03 2.727783e-03 5.738623e-03 3.535741e-03 5.983188e-03 3.923121e-03 5.925324e-03 4.151210e-03 5.737275e-03 4.319973e-03 5.498368e-03 4.460591e-03 5.251370e-03 4.579683e-03 5.025212e-03 4.677330e-03 4.840318e-03 4.752679e-03 4.708947e-03 4.806806e-03 4.636898e-03 4.842528e-03 4.618861e-03 4.846612e-03 4.601228e-03 4.719262e-03 4.354657e-03 4.073154e-03 3.178968e-03 2.027431e-03 1.904951e-03 1.638911e-03 3.652923e-03 2.729171e-03 3.270358e-03 4.504977e-03 5.876093e-03 3.865269e-03 4.906580e-03 7.007306e-03 6.043822e-03 4.429816e-03 6.878595e-03 1.018084e-02 1.012402e-02 7.820756e-03 7.044215e-03 5.487274e-03 5.501613e-03 4.436643e-03 4.841267e-03 3.826910e-03 4.517849e-03 3.472945e-03 4.362400e-03 3.301571e-03 4.264825e-03 3.259212e-03 4.157844e-03 3.312454e-03 4.007316e-03 3.440932e-03 3.802341e-03 3.628418e-03 3.549456e-03 3.856165e-03 3.268680e-03 4.098461e-03 2.989775e-03 4.321246e-03 2.749205e-03 4.485328e-03 2.587722e-03 4.551701e-03 2.545184e-03 4.485815e-03 2.652895e-03 4.262311e-03 2.927384e-03 3.872247e-03 3.367669e-03 3.331004e-03 3.953679e-03 2.683687e-03 4.644670e-03 2.008860e-03 5.379890e-03 1.427184e-03 6.084141e-03 1.125750e-03 6.672314e-03 1.416870e-03 7.028482e-03 2.877520e-03 6.864089e-03 6.833274e-03 9.858630e-04 5.840331e-03 2.818454e-03 7.191203e-03 4.306262e-03 
3.288397e-03 1.179783e-03 3.369658e-03 3.215805e-03 3.359952e-03 9.397083e-03 8.633988e-03 6.208677e-03 5.152923e-03 8.589902e-03 9.193640e-03 1.793121e-02 2.383006e-02 2.462701e-02 1.139179e-02 7.389557e-03 2.733511e-03 4.350657e-03 6.813123e-03 1.201752e-02 2.482774e-02 2.444787e-02 1.570033e-02 1.038727e-02 6.302944e-03 4.477856e-03 2.544647e-03 2.462953e-03 9.213654e-04 2.033177e-03 2.890283e-04 1.946105e-03 3.594318e-04 1.837420e-03 5.524146e-04 1.675768e-03 7.207999e-04 1.481988e-03 8.700027e-04 1.277678e-03 9.964023e-04 1.083369e-03 1.093433e-03 9.141655e-04 1.150968e-03 7.750774e-04 1.154543e-03 6.783968e-04 1.095386e-03 7.394294e-04 1.082397e-03 1.346042e-03 1.795946e-03 3.046610e-03 4.457910e-03 7.892036e-03 1.175509e-02 1.175056e-02 1.352067e-02 6.773818e-03 7.896029e-03 6.646700e-03 1.076593e-02 1.000172e-03 6.031845e-03 1.019391e-02 8.958768e-03 5.145771e-03 4.457197e-03 1.810513e-02 1.382295e-02 1.162963e-02 1.105778e-02 8.500959e-03 5.631043e-03 3.767597e-03 2.255600e-03 1.750106e-03 9.175104e-04 8.960156e-04 5.029028e-04 5.275937e-04 4.605938e-04 3.732387e-04 4.385929e-04 2.836779e-04 3.666445e-04 1.940666e-04 2.608400e-04 1.801221e-04 2.114548e-04 3.465427e-04 3.363686e-04 5.905877e-04 5.441926e-04 8.459421e-04 7.521068e-04 1.071755e-03 9.103250e-04 1.227831e-03 9.826831e-04 1.274770e-03 9.423866e-04 1.188729e-03 7.805656e-04 9.724557e-04 5.645984e-04 6.957688e-04 6.036640e-04 6.644176e-04 1.054654e-03 1.121747e-03 1.641270e-03 1.799284e-03 2.177620e-03 2.527841e-03 2.494207e-03 3.247052e-03 2.341924e-03 3.994154e-03 1.295809e-03 5.204170e-03 6.224805e-03 6.148547e-03 2.667050e-03 1.818617e-03 3.503269e-03 6.964904e-04 
1.077251e-02 8.743827e-03 9.209314e-03 6.777881e-03 9.967262e-03 2.532370e-02 9.716941e-03 1.448684e-02 3.109211e-03 1.035337e-02 1.564582e-03 1.075530e-02 1.149697e-02 1.763567e-02 2.137834e-02 2.169642e-02 2.292586e-02 2.336438e-02 2.124594e-02 2.094054e-02 1.821762e-02 9.842898e-03 5.060290e-03 2.618207e-03 5.422955e-03 4.570124e-03 7.801391e-03 6.239491e-03 9.044618e-03 7.061312e-03 9.645673e-03 7.515541e-03 9.909945e-03 7.828073e-03 9.982554e-03 8.086385e-03 9.937817e-03 8.320722e-03 9.827719e-03 8.539619e-03 9.684896e-03 8.729654e-03 9.518348e-03 8.863907e-03 9.323606e-03 8.910530e-03 9.076340e-03 8.821039e-03 8.723435e-03 8.542054e-03 8.220632e-03 8.116057e-03 7.761821e-03 8.273631e-03 9.253583e-03 1.343415e-02 1.657459e-02 8.323272e-03 1.535809e-02 1.026657e-02 3.649900e-04 6.524667e-03 1.542809e-02 1.023837e-02 3.712924e-03 1.563669e-02 2.065950e-02 1.327469e-02 1.323879e-02 2.763239e-02 3.091397e-02 2.769242e-02 2.637700e-02 2.317841e-02 1.912688e-02 1.612005e-02 1.456450e-02 1.274722e-02 1.262483e-02 1.110689e-02 1.178536e-02 1.029558e-02 1.141251e-02 9.916879e-03 1.121459e-02 9.792117e-03 1.105757e-02 9.838094e-03 1.087850e-02 1.000741e-02 1.065418e-02 1.026819e-02 1.038653e-02 1.058569e-02 1.008815e-02 1.091889e-02 9.790353e-03 1.123207e-02 9.537770e-03 1.148394e-02 9.370325e-03 1.162834e-02 9.330037e-03 1.163666e-02 9.458627e-03 1.149465e-02 9.774992e-03 1.119570e-02 1.027051e-02 1.075012e-02 1.091319e-02 1.018322e-02 1.165170e-02 9.549650e-03 1.244552e-02 8.956659e-03 1.328136e-02 8.590551e-03 1.415852e-02 8.905301e-03 1.508581e-02 1.172076e-02 2.434090e-02 1.378444e-02 9.996201e-03 4.707396e-03 1.029995e-02 8.878865e-03 
9.804509e-03 1.293131e-02 1.771382e-02 2.581334e-02 3.630778e-02 1.524593e-02 2.822234e-02 2.053651e-02 2.346620e-02 2.124587e-02 2.125256e-02 2.170505e-02 1.846379e-02 2.399723e-02 2.175494e-02 2.606319e-02 2.266099e-02 2.656238e-02 2.229394e-02 2.517135e-02 2.042356e-02 2.066603e-02 2.007715e-02 2.118767e-02 2.044751e-02 2.138683e-02 2.100145e-02 2.143698e-02 2.147869e-02 2.137179e-02 2.183603e-02 2.125722e-02 2.208195e-02 2.113755e-02 2.222812e-02 2.103328e-02 2.228387e-02 2.095016e-02 2.225813e-02 2.088520e-02 2.215482e-02 2.082396e-02 2.196996e-02 2.074010e-02 2.169370e-02 2.059491e-02 2.130353e-02 2.032875e-02 2.074951e-02 1.985077e-02 1.993372e-02 1.902044e-02 1.867981e-02 1.762543e-02 1.675186e-02 1.551699e-02 1.338075e-02 7.449711e-03 1.251697e-02 1.347814e-02 1.322044e-02 1.433123e-02 1.798880e-02 1.900572e-02 1.910500e-02 2.197002e-02 2.510394e-02 2.592277e-02 2.535477e-02 3.156918e-02 3.166551e-02 3.302789e-02 3.251571e-02 3.048334e-02 2.820186e-02 2.653261e-02 2.555603e-02 2.446710e-02 2.421663e-02 2.329891e-02 2.351160e-02 2.261021e-02 2.313340e-02 2.219797e-02 2.291683e-02 2.195864e-02 2.277445e-02 2.183784e-02 2.265910e-02 2.180335e-02 2.254595e-02 2.183448e-02 2.242288e-02 2.191422e-02 2.228302e-02 2.202691e-02 2.212712e-02 2.216325e-02 2.196021e-02 2.231693e-02 2.178740e-02 2.248067e-02 2.161871e-02 2.265259e-02 2.146770e-02 2.283072e-02 2.134533e-02 2.300702e-02 2.125855e-02 2.316969e-02 2.121295e-02 2.330421e-02 2.121713e-02 2.340540e-02 2.130099e-02 2.348095e-02 2.154704e-02 2.352757e-02 2.213440e-02 2.346653e-02 2.355985e-02 2.309381e-02 3.058286e-02 3.552357e-02 3.748936e-02 1.676787e-02 1.332508e-02 1.030750e-02 
3.288179e-02 3.685121e-02 3.893792e-02 4.916341e-02 5.929784e-02 5.561837e-02 2.743573e-02 3.907863e-02 2.683422e-02 3.410311e-02 2.500288e-02 2.901374e-02 1.847709e-02 2.257241e-02 2.146244e-02 2.234738e-02 2.243620e-02 2.210762e-02 2.269082e-02 2.167647e-02 2.232387e-02 2.042644e-02 2.762526e-02 2.651193e-02 3.089855e-02 2.953250e-02 3.245919e-02 3.109403e-02 3.318097e-02 3.194782e-02 3.346533e-02 3.246416e-02 3.351598e-02 3.281397e-02 3.343425e-02 3.306393e-02 3.327229e-02 3.323536e-02 3.306467e-02 3.332996e-02 3.282535e-02 3.332622e-02 3.253935e-02 3.318388e-02 3.216745e-02 3.284596e-02 3.163180e-02 3.221178e-02 3.078369e-02 3.109692e-02 2.935365e-02 2.914754e-02 2.681782e-02 2.565293e-02 2.211341e-02 1.885068e-02 1.162155e-02 4.598919e-03 9.497862e-03 1.624048e-02 1.687802e-02 1.661015e-02 2.174742e-02 2.832290e-02 2.739504e-02 2.840278e-02 3.882486e-02 4.086873e-02 3.942257e-02 4.725124e-02 5.545526e-02 5.858990e-02 5.491232e-02 5.019004e-02 4.563281e-02 4.285536e-02 4.057182e-02 3.900369e-02 3.790286e-02 3.688773e-02 3.645089e-02 3.571582e-02 3.563525e-02 3.507780e-02 3.514133e-02 3.475938e-02 3.480175e-02 3.464759e-02 3.452612e-02 3.467523e-02 3.427041e-02 3.479935e-02 3.402040e-02 3.498084e-02 3.377571e-02 3.517807e-02 3.355633e-02 3.535626e-02 3.339653e-02 3.547564e-02 3.332621e-02 3.549208e-02 3.337779e-02 3.537878e-02 3.358571e-02 3.512523e-02 3.396670e-02 3.473204e-02 3.451701e-02 3.422223e-02 3.521499e-02 3.364176e-02 3.602303e-02 3.307405e-02 3.691657e-02 3.266119e-02 3.789800e-02 3.260802e-02 3.896341e-02 3.326746e-02 3.991825e-02 3.553588e-02 4.013148e-02 6.967277e-02 5.108520e-02 4.351870e-02 3.472450e-02 3.552983e-02 
3.703661e-02 3.903161e-02 4.069268e-02 4.586517e-02 5.331235e-02 6.472078e-02 5.961242e-02 6.060138e-02 5.533766e-02 5.763468e-02 5.249028e-02 5.421585e-02 4.653915e-02 4.633185e-02 4.610018e-02 4.627468e-02 4.624146e-02 4.619132e-02 4.632215e-02 4.612187e-02 4.630206e-02 4.662547e-02 5.180783e-02 5.187600e-02 5.477977e-02 5.463428e-02 5.670831e-02 5.613531e-02 5.784045e-02 5.690752e-02 5.845764e-02 5.730981e-02 5.876155e-02 5.754056e-02 5.887263e-02 5.769442e-02 5.886144e-02 5.781347e-02 5.877687e-02 5.791543e-02 5.865119e-02 5.799906e-02 5.850105e-02 5.805643e-02 5.834139e-02 5.808676e-02 5.819174e-02 5.809997e-02 5.808106e-02 5.813250e-02 5.806765e-02 5.827102e-02 5.825759e-02 5.868976e-02 5.892477e-02 6.017073e-02 6.058062e-02 5.652500e-02 5.878268e-02 5.812177e-02 5.733637e-02 5.892858e-02 5.886718e-02 5.888174e-02 5.905360e-02 5.923482e-02 6.058490e-02 5.823958e-02 5.768947e-02 6.017159e-02 5.710604e-02 5.494751e-02 5.799216e-02 6.088583e-02 6.102100e-02 6.094835e-02 6.078680e-02 6.030027e-02 6.044045e-02 5.972262e-02 6.017179e-02 5.930749e-02 5.999193e-02 5.905285e-02 5.986049e-02 5.893432e-02 5.973874e-02 5.892904e-02 5.959918e-02 5.901572e-02 5.942899e-02 5.917623e-02 5.922936e-02 5.938774e-02 5.900793e-02 5.962236e-02 5.878441e-02 5.985538e-02 5.858727e-02 6.005689e-02 5.844005e-02 6.019276e-02 5.836737e-02 6.024057e-02 5.839682e-02 6.018823e-02 5.854546e-02 6.003151e-02 5.881839e-02 5.978253e-02 5.921091e-02 5.947092e-02 5.971096e-02 5.915347e-02 6.032090e-02 5.892868e-02 6.107098e-02 5.893015e-02 6.203269e-02 5.933988e-02 6.338873e-02 6.041575e-02 6.706214e-02 6.349354e-02 4.810910e-02 4.458414e-02 3.896051e-02 3.868357e-02 
4.768335e-02 4.959714e-02 4.931053e-02 5.281989e-02 5.394940e-02 5.982917e-02 6.268587e-02 6.392323e-02 6.212295e-02 6.471852e-02 6.281174e-02 6.654265e-02 6.496530e-02 6.348434e-02 6.319844e-02 6.341214e-02 6.337105e-02 6.330934e-02 6.347396e-02 6.321495e-02 6.346308e-02 6.446051e-02 6.482200e-02 6.316165e-02 6.341416e-02 6.257273e-02 6.317054e-02 6.241805e-02 6.321253e-02 6.238804e-02 6.330270e-02 6.240111e-02 6.336500e-02 6.243474e-02 6.337807e-02 6.248036e-02 6.333988e-02 6.253115e-02 6.325639e-02 6.257977e-02 6.313618e-02 6.261782e-02 6.298870e-02 6.263921e-02 6.282828e-02 6.264654e-02 6.268087e-02 6.266011e-02 6.259589e-02 6.273606e-02 6.267167e-02 6.300099e-02 6.310990e-02 6.372804e-02 6.438050e-02 6.581622e-02 6.857156e-02 7.180855e-02 7.135164e-02 7.068402e-02 6.862347e-02 6.880286e-02 6.979371e-02 6.820560e-02 6.594640e-02 6.902101e-02 6.717781e-02 6.532136e-02 6.580871e-02 6.783745e-02 6.657627e-02 6.443842e-02 6.438904e-02 6.588476e-02 6.634673e-02 6.672078e-02 6.653832e-02 6.626841e-02 6.605697e-02 6.555086e-02 6.550761e-02 6.491881e-02 6.505409e-02 6.445945e-02 6.470771e-02 6.416929e-02 6.443777e-02 6.402054e-02 6.421120e-02 6.398255e-02 6.400473e-02 6.402725e-02 6.380697e-02 6.412817e-02 6.361625e-02 6.425992e-02 6.343932e-02 6.439884e-02 6.328847e-02 6.452197e-02 6.317715e-02 6.460788e-02 6.311887e-02 6.464032e-02 6.312545e-02 6.460906e-02 6.320261e-02 6.451028e-02 6.334727e-02 6.434780e-02 6.354563e-02 6.413289e-02 6.377139e-02 6.388347e-02 6.398413e-02 6.362097e-02 6.412366e-02 6.336094e-02 6.411149e-02 6.310400e-02 6.392800e-02 6.279056e-02 6.427304e-02 5.810881e-02 5.398139e-02 5.201974e-02 4.915363e-02 4.930758e-02 
4.706714e-02 4.818303e-02 4.856264e-02 5.093202e-02 5.225971e-02 5.549599e-02 5.699351e-02 5.928984e-02 6.041163e-02 6.228885e-02 6.512665e-02 6.710036e-02 7.427695e-02 7.403221e-02 7.393598e-02 7.401657e-02 7.398761e-02 7.398326e-02 7.402233e-02 7.394519e-02 7.402780e-02 7.415486e-02 6.810404e-02 6.668479e-02 6.379505e-02 6.277671e-02 6.165154e-02 6.067938e-02 6.058980e-02 5.957546e-02 6.008468e-02 5.901408e-02 5.984471e-02 5.875098e-02 5.971921e-02 5.865573e-02 5.963620e-02 5.865823e-02 5.956653e-02 5.871991e-02 5.950312e-02 5.881872e-02 5.945012e-02 5.894328e-02 5.941890e-02 5.909116e-02 5.942582e-02 5.926725e-02 5.949015e-02 5.948236e-02 5.963386e-02 5.975541e-02 5.989465e-02 6.014650e-02 6.045457e-02 6.117122e-02 6.231822e-02 6.308939e-02 6.321654e-02 6.213403e-02 6.193774e-02 6.246651e-02 6.383569e-02 6.210889e-02 6.190952e-02 6.558414e-02 6.305208e-02 6.310801e-02 6.460938e-02 6.605612e-02 6.426048e-02 6.479050e-02 6.347081e-02 6.192691e-02 6.159293e-02 6.093384e-02 6.095526e-02 6.036507e-02 6.061035e-02 5.999366e-02 6.041690e-02 5.975779e-02 6.029811e-02 5.962529e-02 6.020855e-02 5.957708e-02 6.012052e-02 5.959935e-02 6.001843e-02 5.967952e-02 5.989625e-02 5.980423e-02 5.975594e-02 5.995776e-02 5.960572e-02 6.012211e-02 5.945915e-02 6.027791e-02 5.933286e-02 6.040486e-02 5.924349e-02 6.048334e-02 5.920584e-02 6.049738e-02 5.923064e-02 6.043605e-02 5.932056e-02 6.029347e-02 5.946653e-02 6.006835e-02 5.964444e-02 5.976128e-02 5.981097e-02 5.936955e-02 5.989826e-02 5.887760e-02 5.980320e-02 5.824027e-02 5.936930e-02 5.735738e-02 5.835426e-02 5.602286e-02 5.638191e-02 5.344117e-02 5.150648e-02 4.983195e-02 4.812121e-02 4.783657e-02 
5.186074e-02 5.315621e-02 5.288342e-02 5.521939e-02 5.581980e-02 5.872815e-02 6.014622e-02 6.226799e-02 6.351679e-02 6.526228e-02 6.802739e-02 6.961231e-02 7.711899e-02 7.731604e-02 7.717796e-02 7.728386e-02 7.725219e-02 7.722887e-02 7.730867e-02 7.717474e-02 7.732390e-02 7.713458e-02 7.121730e-02 7.003279e-02 6.735487e-02 6.638116e-02 6.534201e-02 6.442761e-02 6.432622e-02 6.343024e-02 6.384991e-02 6.295413e-02 6.363923e-02 6.275820e-02 6.354635e-02 6.271462e-02 6.349885e-02 6.275714e-02 6.346644e-02 6.285161e-02 6.344166e-02 6.298129e-02 6.343018e-02 6.314146e-02 6.344768e-02 6.333930e-02 6.352087e-02 6.359837e-02 6.369385e-02 6.397090e-02 6.404626e-02 6.456894e-02 6.473818e-02 6.563611e-02 6.612954e-02 6.784915e-02 6.935895e-02 7.160673e-02 6.946430e-02 6.668876e-02 6.734871e-02 6.843379e-02 6.528639e-02 6.389552e-02 6.557211e-02 6.518773e-02 6.033426e-02 6.201136e-02 6.244533e-02 5.907396e-02 5.501569e-02 5.565528e-02 5.674956e-02 5.810602e-02 5.941985e-02 6.049217e-02 6.140358e-02 6.194759e-02 6.257883e-02 6.273971e-02 6.322930e-02 6.315062e-02 6.356881e-02 6.336881e-02 6.372743e-02 6.350416e-02 6.377702e-02 6.361524e-02 6.375666e-02 6.372987e-02 6.368931e-02 6.385747e-02 6.359129e-02 6.399623e-02 6.347716e-02 6.413760e-02 6.336172e-02 6.426907e-02 6.326000e-02 6.437626e-02 6.318605e-02 6.444490e-02 6.315149e-02 6.446275e-02 6.316348e-02 6.442090e-02 6.322202e-02 6.431369e-02 6.331652e-02 6.413727e-02 6.342222e-02 6.388616e-02 6.349602e-02 6.354679e-02 6.347141e-02 6.308661e-02 6.325261e-02 6.243690e-02 6.270749e-02 6.146082e-02 6.164242e-02 5.987747e-02 5.969481e-02 5.711066e-02 5.574888e-02 5.435208e-02 5.287876e-02 5.288372e-02 
4.706673e-02 4.818392e-02 4.856230e-02 5.093265e-02 5.225944e-02 5.549668e-02 5.699311e-02 5.928985e-02 6.041143e-02 6.228851e-02 6.512650e-02 6.709967e-02 7.427672e-02 7.403206e-02 7.393572e-02 7.401672e-02 7.398758e-02 7.398370e-02 7.402269e-02 7.394568e-02 7.402860e-02 7.415508e-02 6.811900e-02 6.668724e-02 6.381031e-02 6.278114e-02 6.167308e-02 6.068744e-02 6.062141e-02 5.958890e-02 6.012851e-02 5.903470e-02 5.990158e-02 5.878129e-02 5.979043e-02 5.870062e-02 5.972512e-02 5.872438e-02 5.967660e-02 5.881215e-02 5.963423e-02 5.893648e-02 5.959558e-02 5.907738e-02 5.956167e-02 5.921982e-02 5.953350e-02 5.935138e-02 5.950982e-02 5.946308e-02 5.949213e-02 5.956210e-02 5.950624e-02 5.970264e-02 5.964349e-02 6.007945e-02 6.030175e-02 6.109105e-02 6.035782e-02 5.969659e-02 5.969459e-02 5.993752e-02 5.889405e-02 5.868204e-02 5.877694e-02 5.875127e-02 5.722457e-02 5.772240e-02 5.758757e-02 5.685681e-02 5.576282e-02 5.567225e-02 5.603218e-02 5.649910e-02 5.723653e-02 5.746267e-02 5.820012e-02 5.814290e-02 5.887756e-02 5.859113e-02 5.933142e-02 5.888574e-02 5.962075e-02 5.909294e-02 5.978729e-02 5.925922e-02 5.985877e-02 5.941463e-02 5.985568e-02 5.957624e-02 5.979505e-02 5.974959e-02 5.969277e-02 5.993111e-02 5.956615e-02 6.011096e-02 5.943441e-02 6.027464e-02 5.931743e-02 6.040487e-02 5.923414e-02 6.048409e-02 5.920059e-02 6.049715e-02 5.922793e-02 6.043393e-02 5.931969e-02 6.028971e-02 5.946730e-02 6.006341e-02 5.964646e-02 5.975583e-02 5.981416e-02 5.936464e-02 5.990238e-02 5.887360e-02 5.980734e-02 5.823724e-02 5.937290e-02 5.735560e-02 5.835695e-02 5.602232e-02 5.638305e-02 5.344247e-02 5.150654e-02 4.983366e-02 4.812087e-02 4.783789e-02 
4.768229e-02 4.959833e-02 4.931005e-02 5.282078e-02 5.394941e-02 5.983140e-02 6.268454e-02 6.392224e-02 6.212259e-02 6.471665e-02 6.281161e-02 6.654059e-02 6.496399e-02 6.348371e-02 6.319767e-02 6.341276e-02 6.337029e-02 6.331094e-02 6.347432e-02 6.321624e-02 6.346650e-02 6.445577e-02 6.485307e-02 6.316912e-02 6.345607e-02 6.259537e-02 6.323587e-02 6.246139e-02 6.331168e-02 6.245930e-02 6.344500e-02 6.250993e-02 6.356008e-02 6.259533e-02 6.364031e-02 6.271609e-02 6.369307e-02 6.287549e-02 6.373228e-02 6.307196e-02 6.377075e-02 6.329981e-02 6.382028e-02 6.355371e-02 6.389330e-02 6.383141e-02 6.400222e-02 6.413298e-02 6.415631e-02 6.445843e-02 6.436011e-02 6.480879e-02 6.461575e-02 6.518338e-02 6.490783e-02 6.553708e-02 6.513859e-02 6.566356e-02 6.487692e-02 6.494670e-02 6.418674e-02 6.429621e-02 6.315813e-02 6.311167e-02 6.215409e-02 6.208219e-02 6.072537e-02 6.081335e-02 5.979541e-02 5.953860e-02 5.859113e-02 5.875798e-02 5.864396e-02 5.911661e-02 5.949679e-02 5.998106e-02 6.057054e-02 6.089325e-02 6.154992e-02 6.165969e-02 6.232259e-02 6.224437e-02 6.287967e-02 6.267751e-02 6.324928e-02 6.300555e-02 6.346684e-02 6.327104e-02 6.356622e-02 6.350567e-02 6.357649e-02 6.372695e-02 6.352203e-02 6.394032e-02 6.342619e-02 6.414304e-02 6.331245e-02 6.432585e-02 6.320351e-02 6.447525e-02 6.312052e-02 6.457648e-02 6.308170e-02 6.461663e-02 6.310128e-02 6.458847e-02 6.318779e-02 6.449134e-02 6.333975e-02 6.433009e-02 6.354343e-02 6.411675e-02 6.377350e-02 6.387019e-02 6.398948e-02 6.361069e-02 6.413003e-02 6.335320e-02 6.411752e-02 6.309866e-02 6.393285e-02 6.278668e-02 6.427486e-02 5.811236e-02 5.398048e-02 5.202324e-02 4.915220e-02 4.930979e-02 
3.703446e-02 3.903342e-02 4.069114e-02 4.586549e-02 5.331210e-02 6.472191e-02 5.961073e-02 6.060023e-02 5.533803e-02 5.763276e-02 5.248969e-02 5.421192e-02 4.653791e-02 4.633091e-02 4.609918e-02 4.627530e-02 4.624080e-02 4.619342e-02 4.632313e-02 4.612400e-02 4.630616e-02 4.662348e-02 5.182614e-02 5.187739e-02 5.480441e-02 5.463969e-02 5.675992e-02 5.615207e-02 5.793160e-02 5.694281e-02 5.859377e-02 5.736818e-02 5.893919e-02 5.762482e-02 5.909205e-02 5.782472e-02 5.914491e-02 5.802985e-02 5.915664e-02 5.825614e-02 5.915233e-02 5.849219e-02 5.914229e-02 5.872352e-02 5.913753e-02 5.894500e-02 5.915320e-02 5.915840e-02 5.919743e-02 5.935750e-02 5.926033e-02 5.952772e-02 5.932628e-02 5.966081e-02 5.938295e-02 5.974646e-02 5.940182e-02 5.973408e-02 5.927567e-02 5.947039e-02 5.896820e-02 5.912172e-02 5.851777e-02 5.863284e-02 5.802737e-02 5.811753e-02 5.746410e-02 5.755344e-02 5.703856e-02 5.703135e-02 5.670826e-02 5.671210e-02 5.675513e-02 5.677932e-02 5.717253e-02 5.710060e-02 5.774231e-02 5.748734e-02 5.829677e-02 5.783405e-02 5.875275e-02 5.811125e-02 5.908423e-02 5.833173e-02 5.929070e-02 5.851981e-02 5.938048e-02 5.870259e-02 5.937268e-02 5.890484e-02 5.928736e-02 5.913282e-02 5.913883e-02 5.937878e-02 5.894887e-02 5.963135e-02 5.874668e-02 5.987097e-02 5.856183e-02 6.007160e-02 5.842406e-02 6.020528e-02 5.835942e-02 6.024640e-02 5.839139e-02 6.018383e-02 5.854264e-02 6.002123e-02 5.882060e-02 5.976788e-02 5.921524e-02 5.945331e-02 5.971932e-02 5.913988e-02 6.033437e-02 5.891877e-02 6.108313e-02 5.892180e-02 6.204207e-02 5.933566e-02 6.339543e-02 6.041428e-02 6.705936e-02 6.350341e-02 4.810573e-02 4.459267e-02 3.895799e-02 3.868783e-02 
3.287807e-02 3.685078e-02 3.893622e-02 4.915944e-02 5.930225e-02 5.561357e-02 2.744245e-02 3.907660e-02 2.684421e-02 3.410302e-02 2.501071e-02 2.901293e-02 1.848545e-02 2.257352e-02 2.146557e-02 2.235059e-02 2.243243e-02 2.211311e-02 2.268509e-02 2.167493e-02 2.233426e-02 2.038023e-02 2.765898e-02 2.648437e-02 3.095470e-02 2.952107e-02 3.255871e-02 3.110921e-02 3.333990e-02 3.200139e-02 3.369245e-02 3.256588e-02 3.380996e-02 3.297300e-02 3.380194e-02 3.331547e-02 3.375622e-02 3.364772e-02 3.373066e-02 3.398268e-02 3.374751e-02 3.430967e-02 3.381656e-02 3.462257e-02 3.395364e-02 3.493425e-02 3.418334e-02 3.527131e-02 3.452174e-02 3.564871e-02 3.495647e-02 3.605760e-02 3.545106e-02 3.646778e-02 3.593849e-02 3.680201e-02 3.628974e-02 3.690940e-02 3.629674e-02 3.655196e-02 3.588271e-02 3.596344e-02 3.518454e-02 3.507417e-02 3.429982e-02 3.413454e-02 3.327970e-02 3.309069e-02 3.239356e-02 3.218734e-02 3.165278e-02 3.160841e-02 3.148324e-02 3.160417e-02 3.179345e-02 3.192475e-02 3.230663e-02 3.234529e-02 3.284455e-02 3.275112e-02 3.331254e-02 3.310244e-02 3.367068e-02 3.340237e-02 3.390642e-02 3.366759e-02 3.401992e-02 3.392147e-02 3.402920e-02 3.418830e-02 3.395631e-02 3.447141e-02 3.381774e-02 3.475738e-02 3.364191e-02 3.502929e-02 3.346780e-02 3.526046e-02 3.333533e-02 3.541658e-02 3.328494e-02 3.546219e-02 3.335137e-02 3.536632e-02 3.356383e-02 3.511917e-02 3.394686e-02 3.473210e-02 3.450072e-02 3.422423e-02 3.519717e-02 3.364307e-02 3.600580e-02 3.308079e-02 3.690302e-02 3.267051e-02 3.788134e-02 3.261731e-02 3.894333e-02 3.328145e-02 3.989698e-02 3.555377e-02 4.010307e-02 6.968717e-02 5.107089e-02 4.352906e-02 3.471927e-02 3.553400e-02 
9.799497e-03 1.293236e-02 1.770892e-02 2.581463e-02 3.630847e-02 1.524146e-02 2.821526e-02 2.053262e-02 2.346075e-02 2.123648e-02 2.125111e-02 2.169189e-02 1.846704e-02 2.398005e-02 2.176295e-02 2.605057e-02 2.266414e-02 2.656711e-02 2.228375e-02 2.519366e-02 2.041905e-02 2.069960e-02 2.004706e-02 2.124038e-02 2.043232e-02 2.145152e-02 2.100728e-02 2.151500e-02 2.151099e-02 2.146818e-02 2.190208e-02 2.137945e-02 2.218915e-02 2.129643e-02 2.239127e-02 2.125088e-02 2.253313e-02 2.126312e-02 2.263260e-02 2.133860e-02 2.269861e-02 2.147127e-02 2.274048e-02 2.165279e-02 2.277238e-02 2.187769e-02 2.281102e-02 2.214111e-02 2.286628e-02 2.242755e-02 2.293168e-02 2.270538e-02 2.298369e-02 2.293003e-02 2.298204e-02 2.304613e-02 2.288121e-02 2.301786e-02 2.271017e-02 2.294916e-02 2.247133e-02 2.264996e-02 2.211637e-02 2.232649e-02 2.169383e-02 2.185551e-02 2.134537e-02 2.147854e-02 2.100649e-02 2.116105e-02 2.092884e-02 2.098228e-02 2.086232e-02 2.083049e-02 2.092066e-02 2.081216e-02 2.111431e-02 2.089646e-02 2.136902e-02 2.102292e-02 2.162200e-02 2.115443e-02 2.183873e-02 2.127789e-02 2.200423e-02 2.139261e-02 2.211435e-02 2.150450e-02 2.217412e-02 2.162197e-02 2.218861e-02 2.174811e-02 2.215885e-02 2.188107e-02 2.208931e-02 2.202019e-02 2.198672e-02 2.216519e-02 2.185876e-02 2.231572e-02 2.171630e-02 2.247182e-02 2.157215e-02 2.263250e-02 2.144026e-02 2.279881e-02 2.133418e-02 2.296832e-02 2.126299e-02 2.312664e-02 2.122939e-02 2.326085e-02 2.124248e-02 2.336620e-02 2.133543e-02 2.344410e-02 2.158558e-02 2.349324e-02 2.217376e-02 2.343569e-02 2.359895e-02 2.306751e-02 3.061170e-02 3.551030e-02 3.748429e-02 1.676460e-02 1.332663e-02 1.030991e-02 
1.077006e-02 8.745283e-03 9.206142e-03 6.781086e-03 9.965340e-03 2.531207e-02 9.706359e-03 1.448373e-02 3.105090e-03 1.034472e-02 1.558124e-03 1.073939e-02 1.149062e-02 1.763712e-02 2.137668e-02 2.168282e-02 2.294344e-02 2.332789e-02 2.127969e-02 2.089580e-02 1.824192e-02 9.832178e-03 5.178364e-03 2.588236e-03 5.452186e-03 4.559986e-03 7.816957e-03 6.237735e-03 9.080016e-03 7.068242e-03 9.706359e-03 7.528494e-03 9.984190e-03 7.838886e-03 1.006080e-02 8.106028e-03 1.003794e-02 8.384863e-03 9.978417e-03 8.682434e-03 9.907565e-03 8.978570e-03 9.839718e-03 9.257729e-03 9.798657e-03 9.527732e-03 9.823256e-03 9.819789e-03 9.955641e-03 1.016963e-02 1.022733e-02 1.061227e-02 1.066722e-02 1.118580e-02 1.128477e-02 1.187454e-02 1.197435e-02 1.246226e-02 1.223952e-02 1.214299e-02 1.193418e-02 1.196581e-02 1.145233e-02 1.117157e-02 1.086428e-02 1.061320e-02 9.827741e-03 9.491820e-03 9.103683e-03 8.387518e-03 7.956831e-03 7.542076e-03 8.007400e-03 7.789845e-03 8.721323e-03 8.323358e-03 9.457388e-03 8.771343e-03 1.003887e-02 9.080483e-03 1.044820e-02 9.288392e-03 1.070540e-02 9.449352e-03 1.082978e-02 9.606089e-03 1.083396e-02 9.791673e-03 1.073859e-02 1.003104e-02 1.056379e-02 1.032274e-02 1.032245e-02 1.064580e-02 1.004037e-02 1.097590e-02 9.756128e-03 1.128025e-02 9.511976e-03 1.151955e-02 9.353754e-03 1.165431e-02 9.323491e-03 1.164970e-02 9.456058e-03 1.149161e-02 9.776480e-03 1.118363e-02 1.027939e-02 1.073053e-02 1.092474e-02 1.015841e-02 1.166716e-02 9.528824e-03 1.246758e-02 8.938459e-03 1.330175e-02 8.573685e-03 1.417514e-02 8.895105e-03 1.509968e-02 1.171696e-02 2.433394e-02 1.378250e-02 9.994736e-03 4.701723e-03 1.029839e-02 8.878964e-03 
3.286688e-03 1.183796e-03 3.367003e-03 3.215959e-03 3.359011e-03 9.389228e-03 8.629148e-03 6.208230e-03 5.153426e-03 8.585137e-03 9.196840e-03 1.792186e-02 2.382864e-02 2.462313e-02 1.137299e-02 7.407320e-03 2.689392e-03 4.312995e-03 6.850472e-03 1.198703e-02 2.482561e-02 2.441012e-02 1.576617e-02 1.033646e-02 6.362390e-03 4.416095e-03 2.596578e-03 2.409156e-03 9.618848e-04 1.996935e-03 2.814121e-04 1.913627e-03 2.835967e-04 1.799246e-03 4.722311e-04 1.619779e-03 6.250949e-04 1.387865e-03 7.341509e-04 1.124692e-03 7.935945e-04 8.510672e-04 7.943976e-04 5.762092e-04 7.168037e-04 3.035092e-04 5.264917e-04 2.544019e-04 2.215642e-04 7.042659e-04 5.322074e-04 1.422842e-03 1.419516e-03 2.413961e-03 2.578342e-03 3.534876e-03 3.680032e-03 4.389364e-03 4.054795e-03 3.786029e-03 3.199935e-03 3.056175e-03 2.395847e-03 1.706688e-03 8.899315e-04 1.934126e-03 2.185438e-03 2.478204e-03 3.276415e-03 4.348578e-03 4.504053e-03 4.813968e-03 4.493854e-03 4.323346e-03 3.524159e-03 3.311194e-03 2.387820e-03 2.396917e-03 1.440850e-03 1.725958e-03 7.523851e-04 1.265456e-03 2.940978e-04 9.380386e-04 4.941576e-05 6.767273e-04 1.482381e-04 4.405196e-04 2.299344e-04 2.448120e-04 3.177455e-04 2.882990e-04 4.544427e-04 5.362841e-04 6.320603e-04 8.092373e-04 8.112741e-04 1.049276e-03 9.488067e-04 1.215063e-03 1.006012e-03 1.269828e-03 9.554612e-04 1.187816e-03 7.909446e-04 9.727757e-04 5.759063e-04 7.002590e-04 6.137451e-04 6.733106e-04 1.059620e-03 1.131634e-03 1.643309e-03 1.806349e-03 2.179842e-03 2.532262e-03 2.494686e-03 3.250460e-03 2.340359e-03 3.994266e-03 1.293677e-03 5.199562e-03 6.221723e-03 6.149138e-03 2.667457e-03 1.813569e-03 3.503394e-03 6.947198e-04 
