# vtk DataFile Version 2.0
Comment goes here
ASCII

DATASET STRUCTURED_POINTS
FIELD FieldData 1
TIME 1 1 double
0.86000000
DIMENSIONS    128   16   1

ORIGIN    0.000   0.000   0.000
SPACING   0.0078125 0.015625   1.000

POINT_DATA   2048
SCALARS uMag double
LOOKUP_TABLE default

6.588876e-03 2.061063e-03 5.973133e-03 9.639910e-04 4.850475e-03 5.920078e-03 8.504893e-03 1.310509e-03 3.856585e-03 2.528749e-03 1.667857e-03 7.708573e-03 1.302005e-02 2.342032e-02 2.999309e-02 3.004016e-02 3.529844e-02 3.218112e-02 3.339974e-02 2.835471e-02 2.536646e-02 1.126386e-02 9.011866e-03 1.590043e-03 2.877431e-03 1.992986e-03 2.793400e-04 3.329525e-03 9.072017e-04 3.702962e-03 1.517100e-03 3.665349e-03 1.899401e-03 3.457528e-03 2.185966e-03 3.190901e-03 2.419376e-03 2.922577e-03 2.606772e-03 2.685703e-03 2.743689e-03 2.500423e-03 2.824067e-03 2.377799e-03 2.845047e-03 2.321184e-03 2.810019e-03 2.328734e-03 2.731927e-03 2.399088e-03 2.642730e-03 2.548716e-03 2.617170e-03 2.857680e-03 2.837344e-03 3.484750e-03 2.883296e-03 2.197173e-03 1.298698e-03 4.861896e-03 4.326687e-03 4.184832e-03 5.174477e-03 6.520548e-03 5.666418e-03 6.138761e-03 5.628415e-03 6.288586e-03 5.860932e-03 4.245282e-03 2.514886e-03 3.502891e-03 3.567516e-03 2.305932e-03 2.205208e-03 2.014283e-03 2.045337e-03 2.157223e-03 1.921973e-03 2.308425e-03 1.779240e-03 2.457525e-03 1.640746e-03 2.583931e-03 1.529339e-03 2.663223e-03 1.468076e-03 2.674893e-03 1.477097e-03 2.605570e-03 1.568962e-03 2.450322e-03 1.744778e-03 2.214579e-03 1.992800e-03 1.916238e-03 2.289201e-03 1.585982e-03 2.598729e-03 1.264903e-03 2.876744e-03 1.000887e-03 3.073484e-03 8.442428e-04 3.139984e-03 8.415211e-04 3.034032e-03 1.028123e-03 2.727046e-03 1.421621e-03 2.212384e-03 2.015696e-03 1.514667e-03 2.773538e-03 7.020365e-04 3.620087e-03 8.714085e-05 4.433274e-03 5.735865e-04 5.030566e-03 1.467969e-04 5.179449e-03 3.027942e-03 1.530883e-03 5.110713e-03 2.810940e-03 6.345697e-03 3.203970e-03 
3.684540e-03 6.630962e-04 3.976210e-03 3.363919e-03 4.989297e-03 1.064644e-02 8.169363e-03 4.919191e-03 2.213582e-03 5.531851e-03 5.597592e-03 1.135408e-02 1.738765e-02 1.697220e-02 7.948260e-03 5.434922e-03 4.148580e-03 2.383332e-03 5.137302e-03 8.053242e-03 1.758124e-02 1.683156e-02 9.947477e-03 6.220651e-03 3.784023e-03 2.659529e-03 1.487412e-03 1.630262e-03 4.626423e-04 1.485541e-03 6.782938e-05 1.419422e-03 3.861839e-04 1.284828e-03 6.479289e-04 1.097907e-03 8.720114e-04 8.911586e-04 1.056263e-03 6.960030e-04 1.194254e-03 5.371259e-04 1.277875e-03 4.330781e-04 1.299543e-03 3.903631e-04 1.251160e-03 3.837700e-04 1.124567e-03 3.525574e-04 9.429905e-04 2.876472e-04 9.465317e-04 7.074299e-04 1.594959e-03 7.595329e-04 3.612677e-03 5.831404e-03 8.410004e-03 7.177526e-03 2.823613e-03 4.634097e-03 5.747142e-03 1.270312e-03 2.490629e-03 1.519915e-03 9.792772e-04 1.608299e-03 5.005092e-03 8.991874e-03 8.866121e-03 1.068783e-02 1.032768e-02 6.763765e-03 4.641485e-03 2.713533e-03 2.238665e-03 1.422334e-03 1.211442e-03 9.569972e-04 6.950299e-04 8.320717e-04 4.078370e-04 8.382509e-04 2.504370e-04 8.677633e-04 1.770852e-04 8.630780e-04 1.313140e-04 7.965616e-04 1.138515e-04 6.626555e-04 2.392587e-04 4.796416e-04 4.702165e-04 3.305289e-04 7.532843e-04 4.050121e-04 1.050870e-03 6.384666e-04 1.319785e-03 8.673416e-04 1.513330e-03 1.012759e-03 1.589428e-03 1.027045e-03 1.513718e-03 8.946990e-04 1.274937e-03 6.795462e-04 9.283752e-04 7.143926e-04 7.611110e-04 1.258113e-03 1.173731e-03 2.049445e-03 1.856757e-03 2.898220e-03 2.422364e-03 3.724410e-03 2.344449e-03 5.162146e-03 3.649863e-03 3.253457e-03 4.029501e-03 1.327226e-03 3.890327e-03 8.545337e-04 
8.467160e-03 5.993215e-03 8.787346e-03 4.643143e-03 1.367296e-02 1.606445e-02 1.679023e-02 1.211064e-02 2.688044e-03 8.830135e-03 2.785653e-03 1.070880e-02 9.910008e-03 1.294316e-02 1.620693e-02 1.547126e-02 1.747989e-02 1.709995e-02 1.601596e-02 1.618754e-02 1.391254e-02 9.928247e-03 6.168567e-03 3.292449e-03 3.872795e-03 1.224094e-03 4.724478e-03 1.945326e-03 5.325473e-03 2.618234e-03 5.560400e-03 3.112497e-03 5.564400e-03 3.521818e-03 5.436696e-03 3.889612e-03 5.250223e-03 4.228706e-03 5.051865e-03 4.528103e-03 4.871078e-03 4.771878e-03 4.732336e-03 4.951281e-03 4.653423e-03 5.067004e-03 4.649181e-03 5.140137e-03 4.740841e-03 5.218484e-03 4.970163e-03 5.398847e-03 5.444003e-03 5.872570e-03 6.439467e-03 7.747922e-03 1.116630e-02 8.025804e-03 8.421238e-03 1.114239e-02 1.098241e-02 7.516065e-03 1.399680e-02 1.248317e-02 1.170077e-02 1.416782e-02 1.470583e-02 1.380159e-02 1.395414e-02 1.805725e-02 1.690257e-02 1.433022e-02 1.513520e-02 1.464354e-02 1.052912e-02 8.714585e-03 7.220615e-03 6.611084e-03 6.240420e-03 5.651892e-03 6.022678e-03 5.128532e-03 6.061712e-03 4.804450e-03 6.159988e-03 4.608288e-03 6.233919e-03 4.527792e-03 6.242817e-03 4.566434e-03 6.164319e-03 4.721439e-03 5.989545e-03 4.979851e-03 5.727980e-03 5.318832e-03 5.399163e-03 5.700038e-03 5.029455e-03 6.078107e-03 4.662717e-03 6.410690e-03 4.353988e-03 6.651751e-03 4.165912e-03 6.761056e-03 4.168023e-03 6.714400e-03 4.408806e-03 6.494923e-03 4.890902e-03 6.094083e-03 5.578414e-03 5.510616e-03 6.419442e-03 4.737063e-03 7.370434e-03 3.739433e-03 8.420081e-03 2.625973e-03 9.579603e-03 5.439493e-03 1.702726e-02 9.886750e-03 8.544499e-03 4.004972e-03 8.129375e-03 6.165923e-03 
6.180133e-03 8.039024e-03 1.065382e-02 1.439284e-02 3.020697e-02 2.834754e-03 2.056023e-02 1.353170e-02 1.330914e-02 1.444026e-02 1.071032e-02 1.488453e-02 8.366958e-03 1.582949e-02 1.011366e-02 1.645204e-02 1.125023e-02 1.631230e-02 1.170052e-02 1.468053e-02 1.155412e-02 1.111837e-02 1.264484e-02 1.192269e-02 1.295495e-02 1.217150e-02 1.336466e-02 1.226368e-02 1.368033e-02 1.228660e-02 1.388362e-02 1.230137e-02 1.398251e-02 1.233338e-02 1.399358e-02 1.238832e-02 1.393697e-02 1.246250e-02 1.382816e-02 1.254406e-02 1.367959e-02 1.261554e-02 1.349976e-02 1.265749e-02 1.328794e-02 1.264287e-02 1.302904e-02 1.253547e-02 1.268158e-02 1.227769e-02 1.216218e-02 1.177235e-02 1.132618e-02 1.087549e-02 9.968909e-03 9.213680e-03 7.567491e-03 4.121375e-03 5.060536e-03 7.203498e-03 5.986473e-03 4.747227e-03 7.698238e-03 7.964569e-03 6.760744e-03 8.872955e-03 1.047618e-02 1.281039e-02 1.203068e-02 1.657597e-02 1.965334e-02 2.219224e-02 2.209130e-02 1.980804e-02 1.789385e-02 1.624908e-02 1.584793e-02 1.481393e-02 1.494608e-02 1.407371e-02 1.449761e-02 1.363659e-02 1.425805e-02 1.335399e-02 1.411998e-02 1.316746e-02 1.403281e-02 1.305174e-02 1.396955e-02 1.299583e-02 1.391299e-02 1.299175e-02 1.385049e-02 1.303116e-02 1.377383e-02 1.310495e-02 1.367553e-02 1.320192e-02 1.354944e-02 1.331162e-02 1.339765e-02 1.343157e-02 1.322696e-02 1.356435e-02 1.305094e-02 1.371636e-02 1.288924e-02 1.389763e-02 1.275968e-02 1.410991e-02 1.267235e-02 1.434121e-02 1.262846e-02 1.456529e-02 1.262632e-02 1.474415e-02 1.267849e-02 1.482681e-02 1.286059e-02 1.471360e-02 1.353859e-02 1.425327e-02 2.027404e-02 3.615116e-02 2.225651e-02 6.858216e-03 6.842418e-03 6.621073e-03 
1.753342e-02 2.168221e-02 1.983928e-02 2.826411e-02 3.153872e-02 4.245699e-02 1.911873e-02 2.452494e-02 1.558019e-02 2.025284e-02 1.373457e-02 1.686400e-02 7.547287e-03 1.128696e-02 9.721341e-03 1.080884e-02 1.057404e-02 1.040944e-02 1.103325e-02 9.705118e-03 1.129116e-02 8.227000e-03 1.662221e-02 1.398436e-02 1.867938e-02 1.656734e-02 1.955995e-02 1.793384e-02 1.990281e-02 1.874228e-02 1.996996e-02 1.928463e-02 1.989184e-02 1.968411e-02 1.974056e-02 1.999354e-02 1.956592e-02 2.023264e-02 1.939532e-02 2.039560e-02 1.923846e-02 2.046783e-02 1.909776e-02 2.043254e-02 1.896282e-02 2.026765e-02 1.880692e-02 1.994302e-02 1.858177e-02 1.940646e-02 1.820140e-02 1.857222e-02 1.754086e-02 1.734081e-02 1.647457e-02 1.541966e-02 1.291602e-02 6.284179e-03 7.121060e-03 1.182108e-02 1.258589e-02 9.213686e-03 1.388407e-02 1.591558e-02 1.554055e-02 1.607059e-02 2.102188e-02 2.301971e-02 2.284021e-02 2.763603e-02 3.201857e-02 3.742095e-02 3.576758e-02 3.147808e-02 2.732618e-02 2.604673e-02 2.393469e-02 2.364139e-02 2.241344e-02 2.233717e-02 2.170082e-02 2.154831e-02 2.136334e-02 2.103653e-02 2.119721e-02 2.070669e-02 2.109464e-02 2.052155e-02 2.099353e-02 2.046505e-02 2.085603e-02 2.052311e-02 2.066257e-02 2.067962e-02 2.041558e-02 2.091371e-02 2.013021e-02 2.119034e-02 1.983004e-02 2.146589e-02 1.955463e-02 2.169701e-02 1.935038e-02 2.183464e-02 1.926282e-02 2.183434e-02 1.934047e-02 2.166734e-02 1.962210e-02 2.131465e-02 2.012492e-02 2.077180e-02 2.084582e-02 2.005599e-02 2.176613e-02 1.921246e-02 2.286715e-02 1.834798e-02 2.415320e-02 1.775538e-02 2.562131e-02 1.851828e-02 2.780959e-02 5.197131e-02 2.747165e-02 2.314254e-02 1.768944e-02 2.041008e-02 
1.842365e-02 2.011631e-02 2.016731e-02 2.283057e-02 2.548713e-02 3.448241e-02 3.530798e-02 3.468045e-02 3.001841e-02 3.270059e-02 2.794862e-02 3.099009e-02 2.485398e-02 2.497284e-02 2.449325e-02 2.485429e-02 2.469768e-02 2.468862e-02 2.488031e-02 2.452656e-02 2.497736e-02 2.527642e-02 3.089577e-02 2.870334e-02 3.194606e-02 3.009329e-02 3.264157e-02 3.078913e-02 3.300127e-02 3.118503e-02 3.314053e-02 3.146725e-02 3.313498e-02 3.170831e-02 3.303587e-02 3.193274e-02 3.288557e-02 3.214067e-02 3.271139e-02 3.231292e-02 3.252482e-02 3.242149e-02 3.232534e-02 3.243209e-02 3.209232e-02 3.229451e-02 3.177357e-02 3.193124e-02 3.126288e-02 3.120653e-02 3.036016e-02 2.988207e-02 2.872759e-02 2.758062e-02 2.593026e-02 2.449797e-02 2.523200e-02 1.890349e-02 1.752002e-02 1.960081e-02 1.897803e-02 1.969547e-02 2.189019e-02 2.142549e-02 2.280787e-02 2.396634e-02 2.551852e-02 2.558478e-02 2.462731e-02 2.919564e-02 2.777134e-02 2.501080e-02 2.718163e-02 3.074172e-02 2.997796e-02 3.042580e-02 3.065036e-02 3.116079e-02 3.164261e-02 3.174513e-02 3.238259e-02 3.205570e-02 3.287883e-02 3.218497e-02 3.319531e-02 3.222994e-02 3.337827e-02 3.226002e-02 3.345309e-02 3.231910e-02 3.343198e-02 3.242868e-02 3.332330e-02 3.259638e-02 3.314182e-02 3.281929e-02 3.290738e-02 3.307946e-02 3.264251e-02 3.335029e-02 3.237905e-02 3.360292e-02 3.215176e-02 3.380232e-02 3.199240e-02 3.391572e-02 3.193406e-02 3.392035e-02 3.200411e-02 3.380014e-02 3.221740e-02 3.355004e-02 3.258063e-02 3.318312e-02 3.309955e-02 3.273951e-02 3.380025e-02 3.231338e-02 3.477328e-02 3.211935e-02 3.624765e-02 3.259369e-02 3.995980e-02 3.454984e-02 2.154603e-02 2.195167e-02 1.858824e-02 1.974826e-02 
2.465313e-02 2.631020e-02 2.550800e-02 2.747444e-02 2.743267e-02 2.954659e-02 3.367901e-02 3.478744e-02 3.240094e-02 3.568286e-02 3.312804e-02 3.717511e-02 3.610971e-02 3.522719e-02 3.469517e-02 3.508602e-02 3.492945e-02 3.489072e-02 3.514145e-02 3.469742e-02 3.525847e-02 3.650233e-02 3.696381e-02 3.402183e-02 3.512322e-02 3.338526e-02 3.477131e-02 3.319580e-02 3.466076e-02 3.317354e-02 3.459360e-02 3.324057e-02 3.451271e-02 3.335792e-02 3.440456e-02 3.349942e-02 3.427218e-02 3.364271e-02 3.412220e-02 3.376520e-02 3.395877e-02 3.384333e-02 3.378034e-02 3.385242e-02 3.357680e-02 3.376517e-02 3.332843e-02 3.355450e-02 3.300979e-02 3.320448e-02 3.261244e-02 3.274881e-02 3.221063e-02 3.235294e-02 3.207609e-02 3.283582e-02 3.494391e-02 3.505479e-02 3.635604e-02 3.505428e-02 3.257871e-02 3.322417e-02 3.340749e-02 3.198717e-02 3.060276e-02 3.212793e-02 3.013432e-02 2.945394e-02 2.906577e-02 2.924207e-02 2.860646e-02 2.725098e-02 2.655356e-02 2.920863e-02 3.029764e-02 3.180575e-02 3.227742e-02 3.303962e-02 3.335844e-02 3.366046e-02 3.398954e-02 3.395058e-02 3.436071e-02 3.406441e-02 3.457084e-02 3.409824e-02 3.467365e-02 3.411232e-02 3.469752e-02 3.414258e-02 3.465751e-02 3.420723e-02 3.456366e-02 3.431204e-02 3.442655e-02 3.445335e-02 3.425938e-02 3.461914e-02 3.407818e-02 3.479191e-02 3.390261e-02 3.495139e-02 3.375373e-02 3.507608e-02 3.365174e-02 3.514648e-02 3.361453e-02 3.514811e-02 3.365433e-02 3.507278e-02 3.377430e-02 3.492053e-02 3.396671e-02 3.470234e-02 3.421036e-02 3.444291e-02 3.446534e-02 3.418122e-02 3.465612e-02 3.395013e-02 3.462403e-02 3.363425e-02 3.433474e-02 2.988084e-02 2.728774e-02 2.703533e-02 2.518223e-02 2.605317e-02 
2.390600e-02 2.477168e-02 2.490213e-02 2.627838e-02 2.702304e-02 2.866457e-02 3.000974e-02 3.160925e-02 3.231848e-02 3.402233e-02 3.574393e-02 3.709705e-02 4.179575e-02 4.181079e-02 4.161145e-02 4.178252e-02 4.170858e-02 4.171232e-02 4.178537e-02 4.162486e-02 4.181398e-02 4.193730e-02 3.655543e-02 3.570234e-02 3.400062e-02 3.319284e-02 3.306138e-02 3.195746e-02 3.261762e-02 3.134119e-02 3.236266e-02 3.105595e-02 3.217543e-02 3.095836e-02 3.200990e-02 3.096817e-02 3.185144e-02 3.103407e-02 3.169784e-02 3.111906e-02 3.155083e-02 3.119538e-02 3.141296e-02 3.124379e-02 3.128790e-02 3.125681e-02 3.118675e-02 3.125015e-02 3.114639e-02 3.128950e-02 3.127073e-02 3.154492e-02 3.180516e-02 3.236425e-02 3.322047e-02 3.457644e-02 3.747488e-02 3.960318e-02 3.887411e-02 3.512756e-02 3.451349e-02 3.305427e-02 3.303486e-02 3.151454e-02 3.009772e-02 3.210139e-02 3.114964e-02 3.015919e-02 3.117197e-02 3.393669e-02 3.386979e-02 3.371399e-02 3.162519e-02 3.073535e-02 3.034141e-02 3.054357e-02 3.064253e-02 3.069597e-02 3.100560e-02 3.085610e-02 3.134892e-02 3.098440e-02 3.163277e-02 3.107322e-02 3.184120e-02 3.113727e-02 3.197234e-02 3.119825e-02 3.202987e-02 3.127526e-02 3.201960e-02 3.138033e-02 3.194951e-02 3.151754e-02 3.183093e-02 3.168303e-02 3.167880e-02 3.186544e-02 3.151140e-02 3.204778e-02 3.135006e-02 3.220977e-02 3.121721e-02 3.232982e-02 3.113402e-02 3.238800e-02 3.111831e-02 3.236898e-02 3.118126e-02 3.226347e-02 3.132358e-02 3.206907e-02 3.153098e-02 3.178891e-02 3.176606e-02 3.142475e-02 3.195066e-02 3.095840e-02 3.192709e-02 3.030916e-02 3.138106e-02 2.925702e-02 2.980342e-02 2.740081e-02 2.622598e-02 2.538335e-02 2.431233e-02 2.444663e-02 
2.687552e-02 2.791100e-02 2.753117e-02 2.893898e-02 2.924315e-02 3.077206e-02 3.198612e-02 3.362271e-02 3.427815e-02 3.609484e-02 3.757444e-02 3.877317e-02 4.325663e-02 4.361363e-02 4.335002e-02 4.355668e-02 4.347778e-02 4.344888e-02 4.359351e-02 4.333376e-02 4.364921e-02 4.323931e-02 3.781325e-02 3.731718e-02 3.576441e-02 3.501361e-02 3.499974e-02 3.396844e-02 3.466717e-02 3.351299e-02 3.449278e-02 3.334877e-02 3.436933e-02 3.333715e-02 3.425938e-02 3.340785e-02 3.415359e-02 3.352106e-02 3.405458e-02 3.365280e-02 3.397065e-02 3.379001e-02 3.391419e-02 3.393079e-02 3.390344e-02 3.408820e-02 3.396822e-02 3.429821e-02 3.416027e-02 3.463123e-02 3.456663e-02 3.520244e-02 3.531511e-02 3.615637e-02 3.652965e-02 3.768693e-02 3.896080e-02 4.157233e-02 4.008418e-02 3.778938e-02 3.899011e-02 4.033667e-02 3.769102e-02 3.793283e-02 3.861301e-02 3.817321e-02 3.612825e-02 3.629636e-02 3.603947e-02 3.447241e-02 3.085627e-02 3.055994e-02 3.099813e-02 3.233092e-02 3.261951e-02 3.336605e-02 3.338487e-02 3.370608e-02 3.373359e-02 3.380939e-02 3.394560e-02 3.383740e-02 3.409617e-02 3.384249e-02 3.420157e-02 3.384765e-02 3.426340e-02 3.386748e-02 3.428101e-02 3.391200e-02 3.425498e-02 3.398653e-02 3.418861e-02 3.409125e-02 3.408852e-02 3.422098e-02 3.396487e-02 3.436558e-02 3.383101e-02 3.451109e-02 3.370274e-02 3.464131e-02 3.359672e-02 3.473954e-02 3.352856e-02 3.479073e-02 3.351055e-02 3.478342e-02 3.354898e-02 3.471117e-02 3.364081e-02 3.457243e-02 3.376877e-02 3.436724e-02 3.389303e-02 3.408649e-02 3.393513e-02 3.368624e-02 3.374997e-02 3.303918e-02 3.309123e-02 3.187677e-02 3.162910e-02 2.989139e-02 2.899261e-02 2.838950e-02 2.735510e-02 2.771436e-02 
2.390494e-02 2.477283e-02 2.490113e-02 2.627949e-02 2.702226e-02 2.866584e-02 3.001005e-02 3.160916e-02 3.231954e-02 3.402176e-02 3.574504e-02 3.709638e-02 4.179637e-02 4.181086e-02 4.161159e-02 4.178263e-02 4.170855e-02 4.171247e-02 4.178522e-02 4.162503e-02 4.181385e-02 4.193686e-02 3.656894e-02 3.570572e-02 3.400636e-02 3.319892e-02 3.306567e-02 3.196428e-02 3.262331e-02 3.134805e-02 3.237316e-02 3.106368e-02 3.219544e-02 3.096993e-02 3.204567e-02 3.098892e-02 3.191116e-02 3.107352e-02 3.179434e-02 3.119490e-02 3.170569e-02 3.133804e-02 3.166095e-02 3.150148e-02 3.168190e-02 3.169945e-02 3.179869e-02 3.196416e-02 3.205187e-02 3.234490e-02 3.248779e-02 3.289396e-02 3.313236e-02 3.361776e-02 3.390648e-02 3.436437e-02 3.466468e-02 3.548676e-02 3.565869e-02 3.553164e-02 3.612408e-02 3.659601e-02 3.578026e-02 3.589598e-02 3.596346e-02 3.573512e-02 3.486545e-02 3.493400e-02 3.489264e-02 3.465093e-02 3.331795e-02 3.303698e-02 3.297209e-02 3.334566e-02 3.318259e-02 3.305722e-02 3.286542e-02 3.253127e-02 3.253611e-02 3.207492e-02 3.232088e-02 3.174278e-02 3.220957e-02 3.152331e-02 3.216058e-02 3.139523e-02 3.213390e-02 3.134218e-02 3.209959e-02 3.135335e-02 3.203910e-02 3.142103e-02 3.194460e-02 3.153721e-02 3.181696e-02 3.169053e-02 3.166413e-02 3.186552e-02 3.150018e-02 3.204318e-02 3.134362e-02 3.220213e-02 3.121531e-02 3.232058e-02 3.113587e-02 3.237846e-02 3.112253e-02 3.235987e-02 3.118633e-02 3.225543e-02 3.132851e-02 3.206263e-02 3.153500e-02 3.178409e-02 3.176851e-02 3.142134e-02 3.195127e-02 3.095619e-02 3.192583e-02 3.030793e-02 3.137830e-02 2.925691e-02 2.980012e-02 2.740171e-02 2.622397e-02 2.538471e-02 2.431104e-02 2.444791e-02 
2.465093e-02 2.631207e-02 2.550596e-02 2.747654e-02 2.743122e-02 2.955060e-02 3.368066e-02 3.478486e-02 3.240496e-02 3.567989e-02 3.313199e-02 3.717268e-02 3.611093e-02 3.522696e-02 3.469579e-02 3.508625e-02 3.492928e-02 3.489145e-02 3.514092e-02 3.469814e-02 3.525853e-02 3.649615e-02 3.698656e-02 3.402974e-02 3.514103e-02 3.340258e-02 3.479173e-02 3.321942e-02 3.468934e-02 3.320311e-02 3.463779e-02 3.327871e-02 3.458301e-02 3.341156e-02 3.451452e-02 3.358025e-02 3.443879e-02 3.377023e-02 3.437085e-02 3.397374e-02 3.433045e-02 3.419040e-02 3.434024e-02 3.442919e-02 3.442642e-02 3.471063e-02 3.461954e-02 3.506694e-02 3.495350e-02 3.553879e-02 3.545966e-02 3.616289e-02 3.614919e-02 3.694535e-02 3.698009e-02 3.781822e-02 3.782198e-02 3.866246e-02 3.847235e-02 3.894241e-02 3.875229e-02 3.927917e-02 3.862738e-02 3.903974e-02 3.842574e-02 3.860924e-02 3.774955e-02 3.790695e-02 3.702182e-02 3.699228e-02 3.591642e-02 3.610955e-02 3.548769e-02 3.572922e-02 3.520153e-02 3.530845e-02 3.490916e-02 3.488697e-02 3.468065e-02 3.453390e-02 3.454600e-02 3.427442e-02 3.449258e-02 3.410499e-02 3.448839e-02 3.401304e-02 3.449973e-02 3.398653e-02 3.449903e-02 3.401645e-02 3.446832e-02 3.409667e-02 3.440006e-02 3.422103e-02 3.429486e-02 3.437981e-02 3.415977e-02 3.455923e-02 3.400796e-02 3.474208e-02 3.385714e-02 3.490876e-02 3.372770e-02 3.503933e-02 3.364031e-02 3.511523e-02 3.361265e-02 3.512179e-02 3.365736e-02 3.505121e-02 3.377914e-02 3.490378e-02 3.397107e-02 3.468980e-02 3.421252e-02 3.443379e-02 3.446456e-02 3.417492e-02 3.465230e-02 3.394603e-02 3.461789e-02 3.363234e-02 3.432818e-02 2.988252e-02 2.728352e-02 2.703766e-02 2.517945e-02 2.605524e-02 
1.842109e-02 2.012003e-02 2.016405e-02 2.283471e-02 2.548356e-02 3.449349e-02 3.530514e-02 3.467818e-02 3.002273e-02 3.269804e-02 2.795339e-02 3.098661e-02 2.485718e-02 2.497269e-02 2.449395e-02 2.485453e-02 2.469739e-02 2.468910e-02 2.487933e-02 2.452661e-02 2.497661e-02 2.527083e-02 3.090528e-02 2.871626e-02 3.194612e-02 3.011310e-02 3.263901e-02 3.080867e-02 3.300180e-02 3.120024e-02 3.315083e-02 3.147731e-02 3.316748e-02 3.171971e-02 3.310633e-02 3.195221e-02 3.300546e-02 3.217675e-02 3.289837e-02 3.239240e-02 3.281581e-02 3.259930e-02 3.278303e-02 3.280333e-02 3.282354e-02 3.302010e-02 3.295813e-02 3.327101e-02 3.320176e-02 3.358099e-02 3.356246e-02 3.396966e-02 3.402806e-02 3.443126e-02 3.455407e-02 3.492758e-02 3.507470e-02 3.541119e-02 3.554047e-02 3.578660e-02 3.586245e-02 3.607884e-02 3.594102e-02 3.612146e-02 3.589405e-02 3.603606e-02 3.565403e-02 3.582418e-02 3.540775e-02 3.554270e-02 3.499730e-02 3.512731e-02 3.468942e-02 3.474754e-02 3.437346e-02 3.426337e-02 3.403331e-02 3.374324e-02 3.374868e-02 3.327243e-02 3.356214e-02 3.289436e-02 3.346876e-02 3.261983e-02 3.343749e-02 3.244596e-02 3.342950e-02 3.236431e-02 3.340630e-02 3.236507e-02 3.334072e-02 3.244398e-02 3.322338e-02 3.259727e-02 3.305448e-02 3.281086e-02 3.284064e-02 3.306329e-02 3.259994e-02 3.332846e-02 3.235810e-02 3.357492e-02 3.214690e-02 3.377147e-02 3.200110e-02 3.388663e-02 3.195039e-02 3.389290e-02 3.202107e-02 3.377600e-02 3.223329e-02 3.353228e-02 3.259378e-02 3.317072e-02 3.310704e-02 3.273101e-02 3.380193e-02 3.230833e-02 3.476850e-02 3.211564e-02 3.623639e-02 3.259241e-02 3.994297e-02 3.455283e-02 2.154260e-02 2.195805e-02 1.858610e-02 1.975271e-02 
1.752963e-02 2.168487e-02 1.983422e-02 2.826612e-02 3.153727e-02 4.246911e-02 1.909750e-02 2.453250e-02 1.557193e-02 2.025874e-02 1.373005e-02 1.686492e-02 7.550456e-03 1.128319e-02 9.721489e-03 1.080804e-02 1.057204e-02 1.041177e-02 1.102981e-02 9.707328e-03 1.129385e-02 8.220005e-03 1.663304e-02 1.400474e-02 1.869359e-02 1.660069e-02 1.957780e-02 1.797315e-02 1.992935e-02 1.878437e-02 2.001314e-02 1.933094e-02 1.996888e-02 1.974522e-02 1.987436e-02 2.007874e-02 1.977329e-02 2.034867e-02 1.969810e-02 2.056555e-02 1.967452e-02 2.073775e-02 1.971871e-02 2.087548e-02 1.984193e-02 2.099479e-02 2.004831e-02 2.111143e-02 2.033208e-02 2.124026e-02 2.068067e-02 2.139154e-02 2.106673e-02 2.155821e-02 2.144471e-02 2.171937e-02 2.176426e-02 2.185251e-02 2.197343e-02 2.184468e-02 2.191768e-02 2.174319e-02 2.168386e-02 2.148971e-02 2.132120e-02 2.117603e-02 2.087702e-02 2.086466e-02 2.042253e-02 2.059464e-02 2.009757e-02 2.039083e-02 1.982436e-02 2.022939e-02 1.970928e-02 2.011704e-02 1.972197e-02 2.003921e-02 1.982980e-02 1.998144e-02 1.999378e-02 1.993937e-02 2.017747e-02 1.991815e-02 2.034839e-02 1.993017e-02 2.047810e-02 1.998692e-02 2.053955e-02 2.009588e-02 2.051675e-02 2.026602e-02 2.041244e-02 2.050119e-02 2.023695e-02 2.078721e-02 2.000573e-02 2.109672e-02 1.974792e-02 2.139475e-02 1.950232e-02 2.163868e-02 1.931692e-02 2.178699e-02 1.924438e-02 2.179910e-02 1.933053e-02 2.164063e-02 1.961395e-02 2.129619e-02 2.011861e-02 2.076395e-02 2.084134e-02 2.005563e-02 2.176042e-02 1.921698e-02 2.285949e-02 1.835574e-02 2.414143e-02 1.776325e-02 2.560297e-02 1.852835e-02 2.778318e-02 5.195535e-02 2.746161e-02 2.314928e-02 1.768697e-02 2.041431e-02 
6.175561e-03 8.040332e-03 1.065007e-02 1.439068e-02 3.021233e-02 2.824593e-03 2.057836e-02 1.351535e-02 1.333388e-02 1.442094e-02 1.073498e-02 1.486318e-02 8.390139e-03 1.580716e-02 1.013168e-02 1.643412e-02 1.126152e-02 1.629841e-02 1.170776e-02 1.467023e-02 1.156492e-02 1.111966e-02 1.264890e-02 1.193548e-02 1.295636e-02 1.219124e-02 1.337040e-02 1.229035e-02 1.369528e-02 1.232016e-02 1.391254e-02 1.234313e-02 1.403337e-02 1.238962e-02 1.407382e-02 1.246920e-02 1.405184e-02 1.258019e-02 1.398941e-02 1.271877e-02 1.390886e-02 1.288084e-02 1.383044e-02 1.306306e-02 1.377272e-02 1.326495e-02 1.375072e-02 1.348703e-02 1.377479e-02 1.373129e-02 1.385067e-02 1.399874e-02 1.397454e-02 1.428014e-02 1.412614e-02 1.454757e-02 1.426319e-02 1.474555e-02 1.434647e-02 1.491370e-02 1.443589e-02 1.494634e-02 1.439418e-02 1.487659e-02 1.423828e-02 1.463531e-02 1.396834e-02 1.427494e-02 1.364532e-02 1.383272e-02 1.327139e-02 1.344174e-02 1.308867e-02 1.316291e-02 1.299025e-02 1.298418e-02 1.299362e-02 1.288455e-02 1.306513e-02 1.283205e-02 1.317145e-02 1.280533e-02 1.328713e-02 1.279329e-02 1.339545e-02 1.279297e-02 1.348666e-02 1.280560e-02 1.355362e-02 1.283439e-02 1.359294e-02 1.288355e-02 1.360573e-02 1.295568e-02 1.359038e-02 1.304819e-02 1.354258e-02 1.315485e-02 1.346051e-02 1.327075e-02 1.334531e-02 1.339388e-02 1.320475e-02 1.352868e-02 1.305258e-02 1.368345e-02 1.290590e-02 1.386532e-02 1.278218e-02 1.407822e-02 1.269420e-02 1.431087e-02 1.264697e-02 1.453478e-02 1.263949e-02 1.471434e-02 1.268652e-02 1.479832e-02 1.286579e-02 1.468789e-02 1.354155e-02 1.423540e-02 2.027875e-02 3.611342e-02 2.224783e-02 6.858214e-03 6.842322e-03 6.623188e-03 
8.464939e-03 5.993569e-03 8.786085e-03 4.639774e-03 1.367326e-02 1.606684e-02 1.677612e-02 1.210497e-02 2.685398e-03 8.826888e-03 2.769105e-03 1.070627e-02 9.888327e-03 1.294707e-02 1.619120e-02 1.547388e-02 1.747581e-02 1.708906e-02 1.603104e-02 1.616770e-02 1.393439e-02 9.916237e-03 6.218629e-03 3.258040e-03 3.895585e-03 1.200336e-03 4.723832e-03 1.946990e-03 5.314176e-03 2.618158e-03 5.544376e-03 3.103483e-03 5.554142e-03 3.507776e-03 5.443644e-03 3.871391e-03 5.274330e-03 4.198113e-03 5.092859e-03 4.483902e-03 4.936285e-03 4.721824e-03 4.828712e-03 4.906166e-03 4.784886e-03 5.037036e-03 4.806924e-03 5.114353e-03 4.880703e-03 5.138100e-03 4.980425e-03 5.107963e-03 5.068429e-03 5.021420e-03 5.111663e-03 4.902904e-03 5.133345e-03 4.853937e-03 5.157570e-03 4.502102e-03 4.697379e-03 4.272755e-03 4.326361e-03 3.952966e-03 4.120290e-03 3.944041e-03 4.138750e-03 4.199649e-03 4.332413e-03 4.708408e-03 4.902026e-03 5.130497e-03 5.050355e-03 5.333427e-03 5.276079e-03 5.366209e-03 5.457886e-03 5.267766e-03 5.621709e-03 5.098805e-03 5.778458e-03 4.909946e-03 5.924858e-03 4.741770e-03 6.047240e-03 4.627480e-03 6.125608e-03 4.589850e-03 6.134674e-03 4.641085e-03 6.057030e-03 4.789663e-03 5.893335e-03 5.035087e-03 5.651356e-03 5.356328e-03 5.343686e-03 5.718610e-03 4.997342e-03 6.081446e-03 4.651133e-03 6.399544e-03 4.358480e-03 6.631594e-03 4.185330e-03 6.739136e-03 4.195196e-03 6.690606e-03 4.434196e-03 6.472149e-03 4.912018e-03 6.076616e-03 5.595442e-03 5.496121e-03 6.430288e-03 4.724206e-03 7.375688e-03 3.728034e-03 8.419142e-03 2.620063e-03 9.571132e-03 5.445627e-03 1.701428e-02 9.872427e-03 8.539304e-03 4.001715e-03 8.126267e-03 6.165425e-03 
3.683611e-03 6.627271e-04 3.976059e-03 3.361621e-03 4.989088e-03 1.064513e-02 8.165809e-03 4.917783e-03 2.214786e-03 5.530775e-03 5.598146e-03 1.135031e-02 1.738757e-02 1.697524e-02 7.942467e-03 5.453665e-03 4.137927e-03 2.351071e-03 5.150806e-03 8.013938e-03 1.756420e-02 1.681822e-02 9.971049e-03 6.188259e-03 3.813128e-03 2.613036e-03 1.523791e-03 1.582884e-03 5.004016e-04 1.452085e-03 1.943944e-05 1.395568e-03 3.525734e-04 1.264672e-03 6.142602e-04 1.081385e-03 8.349194e-04 8.832410e-04 1.014862e-03 6.996208e-04 1.145180e-03 5.520678e-04 1.218808e-03 4.546891e-04 1.233138e-03 4.140675e-04 1.193062e-03 4.325655e-04 1.114294e-03 5.122812e-04 1.025419e-03 6.591223e-04 9.704876e-04 8.757374e-04 9.896216e-04 1.153348e-03 1.059560e-03 1.238928e-03 1.086282e-03 1.721874e-03 1.322440e-03 1.797042e-03 1.706153e-03 2.049342e-03 2.021500e-03 2.448200e-03 2.334428e-03 2.599451e-03 3.011956e-03 2.790300e-03 2.477162e-03 2.087431e-03 2.588450e-03 1.989998e-03 2.223105e-03 1.643827e-03 1.700551e-03 1.349631e-03 1.200693e-03 1.173716e-03 7.832441e-04 1.089888e-03 4.551992e-04 1.053923e-03 2.206271e-04 1.024336e-03 1.151038e-04 9.682824e-04 1.463090e-04 8.646550e-04 2.116595e-04 7.027389e-04 3.324713e-04 4.913919e-04 5.311254e-04 3.043285e-04 7.893149e-04 3.624719e-04 1.070290e-03 6.073090e-04 1.329416e-03 8.442939e-04 1.518590e-03 9.957413e-04 1.591535e-03 1.016330e-03 1.514082e-03 8.889055e-04 1.274589e-03 6.800357e-04 9.249289e-04 7.189700e-04 7.550104e-04 1.258968e-03 1.169996e-03 2.047852e-03 1.854537e-03 2.896054e-03 2.419536e-03 3.724258e-03 2.339336e-03 5.162660e-03 3.649394e-03 3.249036e-03 4.027560e-03 1.324769e-03 3.888871e-03 8.544351e-04 
