# vtk DataFile Version 2.0
Comment goes here
ASCII

DATASET STRUCTURED_POINTS
FIELD FieldData 1
TIME 1 1 double
0.68000000
DIMENSIONS    128   16   1

ORIGIN    0.000   0.000   0.000
SPACING   0.0078125 0.015625   1.000

POINT_DATA   2048
SCALARS uMag double
LOOKUP_TABLE default

5.999624e-03 4.170732e-03 4.829834e-03 2.461234e-03 3.531406e-03 2.453834e-03 9.859180e-03 1.582929e-04 5.570314e-03 3.951137e-03 2.862161e-03 1.393346e-02 2.072851e-02 3.578243e-02 4.361219e-02 4.756038e-02 4.987295e-02 5.004583e-02 4.765429e-02 4.327656e-02 3.668460e-02 2.049565e-02 1.346123e-02 4.796631e-03 2.746966e-03 1.791865e-03 1.700448e-03 4.610923e-03 3.543746e-03 5.812555e-03 4.286833e-03 6.292491e-03 4.580426e-03 6.431018e-03 4.705909e-03 6.395005e-03 4.783241e-03 6.265266e-03 4.860244e-03 6.087329e-03 4.950420e-03 5.890170e-03 5.050716e-03 5.694338e-03 5.153551e-03 5.518030e-03 5.254857e-03 5.376152e-03 5.349393e-03 5.264279e-03 5.403385e-03 5.114929e-03 5.280582e-03 4.674901e-03 4.547372e-03 3.303811e-03 2.764796e-03 3.199321e-03 1.531071e-03 2.492486e-03 1.975670e-03 3.290393e-03 3.786692e-03 4.564987e-03 2.894137e-03 4.161125e-03 5.996189e-03 4.236580e-03 2.789745e-03 6.331423e-03 1.110783e-02 1.087979e-02 7.722830e-03 7.310503e-03 5.025046e-03 5.466468e-03 4.034469e-03 4.871204e-03 3.741877e-03 4.669631e-03 3.712724e-03 4.564664e-03 3.802031e-03 4.447979e-03 3.954101e-03 4.285636e-03 4.144850e-03 4.076767e-03 4.357257e-03 3.837893e-03 4.572583e-03 3.595712e-03 4.767194e-03 3.381922e-03 4.912516e-03 3.230079e-03 4.978759e-03 3.172381e-03 4.938812e-03 3.233773e-03 4.772079e-03 3.427127e-03 4.470690e-03 3.751008e-03 4.045262e-03 4.187199e-03 3.526979e-03 4.697855e-03 2.966556e-03 5.224564e-03 2.431024e-03 5.691454e-03 2.001592e-03 6.014018e-03 1.774096e-03 6.111599e-03 1.867082e-03 5.923480e-03 2.459511e-03 5.436829e-03 3.932895e-03 4.770714e-03 7.529637e-03 1.342103e-03 4.876774e-03 2.709388e-03 5.749148e-03 4.288445e-03 
2.028669e-03 1.311295e-03 1.751392e-03 1.973612e-03 2.843855e-03 6.612161e-03 7.845560e-03 4.759819e-03 6.589159e-03 8.604580e-03 1.021854e-02 1.794986e-02 2.187482e-02 2.287850e-02 1.201129e-02 6.985409e-03 3.638666e-03 4.731025e-03 7.002113e-03 1.152285e-02 2.280472e-02 2.324694e-02 1.571159e-02 1.077352e-02 6.567820e-03 4.711825e-03 2.806837e-03 2.592424e-03 1.233441e-03 2.102065e-03 5.999554e-04 2.038175e-03 4.054814e-04 1.995173e-03 4.045964e-04 1.902199e-03 4.667384e-04 1.759529e-03 5.544415e-04 1.590028e-03 6.639993e-04 1.412820e-03 7.853058e-04 1.237510e-03 9.042082e-04 1.075307e-03 1.011016e-03 9.547802e-04 1.130752e-03 1.055946e-03 1.491157e-03 1.906517e-03 2.814544e-03 4.357077e-03 6.775782e-03 1.113490e-02 1.523680e-02 1.457980e-02 1.441672e-02 8.586296e-03 1.088683e-02 8.769953e-03 1.150222e-02 4.297313e-03 8.258666e-03 1.218980e-02 9.588093e-03 6.950484e-03 6.309074e-03 2.386013e-02 1.458922e-02 1.088543e-02 9.865112e-03 8.163392e-03 5.225746e-03 3.627644e-03 1.835538e-03 1.649519e-03 4.881398e-04 9.074585e-04 9.210912e-05 5.806001e-04 2.095943e-04 3.786993e-04 1.969496e-04 2.852479e-04 1.193960e-04 3.800343e-04 1.482172e-04 5.882061e-04 3.013249e-04 8.234772e-04 4.615620e-04 1.037528e-03 5.861623e-04 1.196993e-03 6.438435e-04 1.268590e-03 6.170593e-04 1.228310e-03 5.008028e-04 1.075131e-03 3.705032e-04 8.279551e-04 5.116999e-04 5.759438e-04 9.263994e-04 5.962544e-04 1.434294e-03 9.433513e-04 1.931913e-03 1.354704e-03 2.335628e-03 1.676249e-03 2.560498e-03 1.830291e-03 2.502736e-03 1.821254e-03 2.024345e-03 1.951803e-03 9.016122e-04 3.612724e-03 4.542179e-03 6.133672e-03 1.365728e-03 1.565192e-03 2.431546e-03 7.497331e-04 
8.686563e-03 7.832564e-03 6.310785e-03 6.450621e-03 8.189135e-03 2.509482e-02 5.185709e-03 1.240436e-02 4.152406e-03 9.080128e-03 7.019241e-04 6.795221e-03 9.130696e-03 1.562347e-02 1.857911e-02 1.972924e-02 1.986106e-02 2.095170e-02 1.878097e-02 1.821281e-02 1.599910e-02 6.725911e-03 2.668948e-03 3.049379e-03 4.937040e-03 6.416250e-03 7.752848e-03 7.993176e-03 9.177298e-03 8.630963e-03 9.942372e-03 8.881838e-03 1.037543e-02 8.991903e-03 1.061432e-02 9.076253e-03 1.073677e-02 9.183312e-03 1.076954e-02 9.298089e-03 1.071145e-02 9.396762e-03 1.057473e-02 9.458089e-03 1.035426e-02 9.439880e-03 1.002930e-02 9.305733e-03 9.584985e-03 9.040505e-03 9.065044e-03 8.827615e-03 9.035025e-03 9.962780e-03 1.232305e-02 1.688917e-02 1.919126e-02 9.169888e-03 1.496180e-02 6.199084e-03 3.703388e-03 8.177715e-03 1.333621e-02 8.902224e-03 9.664015e-04 1.478006e-02 1.955814e-02 9.917516e-03 9.996451e-03 2.501861e-02 3.046248e-02 2.667850e-02 2.463936e-02 2.117434e-02 1.844544e-02 1.521840e-02 1.447603e-02 1.248441e-02 1.286769e-02 1.138636e-02 1.219584e-02 1.099406e-02 1.187000e-02 1.093413e-02 1.165578e-02 1.104694e-02 1.145128e-02 1.125161e-02 1.122918e-02 1.151474e-02 1.099944e-02 1.180191e-02 1.077191e-02 1.207190e-02 1.057485e-02 1.229485e-02 1.044244e-02 1.243141e-02 1.039819e-02 1.244975e-02 1.047670e-02 1.234784e-02 1.070454e-02 1.211930e-02 1.106719e-02 1.176116e-02 1.153538e-02 1.130471e-02 1.206951e-02 1.078806e-02 1.260121e-02 1.027104e-02 1.307160e-02 9.850944e-03 1.342841e-02 9.629152e-03 1.361233e-02 9.747468e-03 1.361223e-02 1.055196e-02 1.349977e-02 1.367367e-02 1.765073e-02 1.743222e-02 9.146790e-03 3.910912e-03 7.719097e-03 7.499165e-03 
9.262754e-03 1.195122e-02 1.710430e-02 2.708776e-02 2.898710e-02 2.373953e-02 2.614657e-02 2.012983e-02 2.509183e-02 1.994536e-02 2.378745e-02 1.993626e-02 2.217309e-02 2.298353e-02 2.519893e-02 2.573887e-02 2.554427e-02 2.680508e-02 2.461700e-02 2.629086e-02 2.187338e-02 2.274605e-02 2.055787e-02 2.290293e-02 2.063397e-02 2.285966e-02 2.089900e-02 2.273556e-02 2.122029e-02 2.254663e-02 2.153334e-02 2.232218e-02 2.181181e-02 2.208770e-02 2.203952e-02 2.186504e-02 2.220934e-02 2.166437e-02 2.230655e-02 2.147574e-02 2.230924e-02 2.128059e-02 2.219685e-02 2.104984e-02 2.193111e-02 2.072731e-02 2.144506e-02 2.021661e-02 2.062230e-02 1.934620e-02 1.924075e-02 1.781220e-02 1.691073e-02 1.516074e-02 1.319486e-02 1.166091e-02 8.898869e-03 1.102996e-03 8.985006e-03 7.101117e-03 6.921717e-03 9.829268e-03 1.308780e-02 1.328274e-02 1.421774e-02 1.795844e-02 2.050531e-02 1.985346e-02 2.006101e-02 2.701376e-02 2.517742e-02 2.413403e-02 2.485862e-02 2.493276e-02 2.411634e-02 2.340851e-02 2.325027e-02 2.275913e-02 2.299120e-02 2.247728e-02 2.289088e-02 2.233305e-02 2.282611e-02 2.226304e-02 2.276759e-02 2.224615e-02 2.270199e-02 2.226838e-02 2.262444e-02 2.232495e-02 2.253364e-02 2.240924e-02 2.242498e-02 2.251029e-02 2.230135e-02 2.262302e-02 2.216802e-02 2.274090e-02 2.203040e-02 2.285857e-02 2.190132e-02 2.297858e-02 2.179464e-02 2.309323e-02 2.171545e-02 2.318802e-02 2.166524e-02 2.325202e-02 2.164929e-02 2.326779e-02 2.166908e-02 2.322693e-02 2.173799e-02 2.313406e-02 2.189109e-02 2.299803e-02 2.218380e-02 2.284045e-02 2.276614e-02 2.268546e-02 2.413961e-02 2.253594e-02 3.014009e-02 2.097235e-02 3.717577e-02 2.135973e-02 1.532393e-02 9.980963e-03 
3.586481e-02 3.801437e-02 4.299280e-02 5.031994e-02 6.045685e-02 4.623739e-02 2.884418e-02 3.946806e-02 2.841003e-02 3.519903e-02 2.670774e-02 2.984729e-02 2.239119e-02 2.522544e-02 2.500422e-02 2.534182e-02 2.572432e-02 2.537648e-02 2.568118e-02 2.538173e-02 2.482129e-02 2.477654e-02 2.880776e-02 2.922384e-02 3.187846e-02 3.134743e-02 3.329497e-02 3.234985e-02 3.399700e-02 3.284922e-02 3.433807e-02 3.312987e-02 3.446948e-02 3.331328e-02 3.446028e-02 3.345546e-02 3.436098e-02 3.357336e-02 3.418461e-02 3.363161e-02 3.391324e-02 3.358464e-02 3.353032e-02 3.337753e-02 3.298105e-02 3.290710e-02 3.214779e-02 3.201091e-02 3.081032e-02 3.038537e-02 2.851971e-02 2.743166e-02 2.441590e-02 2.201097e-02 1.679374e-02 1.152754e-02 2.628912e-03 4.572744e-03 3.368833e-03 6.801499e-03 7.663875e-03 8.950474e-03 1.276944e-02 1.904941e-02 1.823562e-02 2.034122e-02 2.960528e-02 3.180921e-02 3.013153e-02 3.814825e-02 4.575143e-02 4.588188e-02 4.503319e-02 4.251500e-02 4.034465e-02 3.836861e-02 3.768657e-02 3.658010e-02 3.652843e-02 3.581161e-02 3.595811e-02 3.548788e-02 3.562054e-02 3.538738e-02 3.537465e-02 3.541397e-02 3.515217e-02 3.551237e-02 3.493533e-02 3.566007e-02 3.473489e-02 3.582910e-02 3.455738e-02 3.598311e-02 3.442491e-02 3.609549e-02 3.436409e-02 3.612913e-02 3.439022e-02 3.605344e-02 3.453011e-02 3.586723e-02 3.480457e-02 3.556759e-02 3.519724e-02 3.515681e-02 3.568100e-02 3.467326e-02 3.621769e-02 3.416437e-02 3.673926e-02 3.369766e-02 3.718409e-02 3.337617e-02 3.749525e-02 3.330671e-02 3.761280e-02 3.364318e-02 3.752935e-02 3.472963e-02 3.728028e-02 3.755367e-02 3.710478e-02 6.398871e-02 5.801200e-02 4.754800e-02 3.900141e-02 3.720440e-02 
4.169925e-02 4.364277e-02 4.643852e-02 5.233233e-02 6.091388e-02 6.891764e-02 6.149483e-02 6.292894e-02 5.901732e-02 5.935069e-02 5.582839e-02 5.486852e-02 5.033507e-02 4.997388e-02 5.007701e-02 5.000851e-02 5.011205e-02 5.005152e-02 5.006711e-02 5.011110e-02 4.993912e-02 5.054823e-02 5.539230e-02 5.668456e-02 5.852011e-02 5.941354e-02 6.022396e-02 6.070559e-02 6.122709e-02 6.128344e-02 6.183983e-02 6.152096e-02 6.221572e-02 6.160262e-02 6.242947e-02 6.162426e-02 6.253029e-02 6.162905e-02 6.253372e-02 6.160688e-02 6.242970e-02 6.153179e-02 6.220839e-02 6.136743e-02 6.183404e-02 6.104343e-02 6.123395e-02 6.045720e-02 6.029162e-02 5.944923e-02 5.881763e-02 5.781048e-02 5.663456e-02 5.554176e-02 5.423302e-02 5.425591e-02 5.119927e-02 4.390870e-02 4.838172e-02 4.535933e-02 4.549939e-02 4.875790e-02 4.583415e-02 4.721440e-02 4.664494e-02 4.658828e-02 4.670643e-02 4.431354e-02 4.390594e-02 4.449040e-02 4.160772e-02 3.783321e-02 4.150054e-02 4.703146e-02 5.130915e-02 5.395586e-02 5.658422e-02 5.774669e-02 5.954123e-02 5.989322e-02 6.118234e-02 6.113280e-02 6.206919e-02 6.188987e-02 6.252251e-02 6.239673e-02 6.271379e-02 6.277239e-02 6.274644e-02 6.308668e-02 6.269152e-02 6.336549e-02 6.258923e-02 6.360695e-02 6.247603e-02 6.380467e-02 6.238389e-02 6.393842e-02 6.233211e-02 6.398912e-02 6.234774e-02 6.395613e-02 6.245411e-02 6.383537e-02 6.264804e-02 6.362453e-02 6.292028e-02 6.334577e-02 6.325508e-02 6.302741e-02 6.361628e-02 6.271160e-02 6.397577e-02 6.247008e-02 6.431455e-02 6.238635e-02 6.463415e-02 6.258975e-02 6.503999e-02 6.332592e-02 6.586224e-02 6.496972e-02 6.877701e-02 6.886107e-02 5.545479e-02 4.948506e-02 4.402215e-02 4.281408e-02 
5.285457e-02 5.462346e-02 5.500691e-02 5.895063e-02 6.065720e-02 6.773732e-02 6.763555e-02 6.780502e-02 6.737457e-02 6.827236e-02 6.796177e-02 6.939460e-02 6.838710e-02 6.746937e-02 6.754705e-02 6.749902e-02 6.759561e-02 6.753691e-02 6.755375e-02 6.758473e-02 6.742258e-02 6.885987e-02 6.927752e-02 6.862962e-02 6.806280e-02 6.829650e-02 6.788059e-02 6.816099e-02 6.794019e-02 6.804080e-02 6.805646e-02 6.792493e-02 6.816801e-02 6.781819e-02 6.824465e-02 6.772292e-02 6.826932e-02 6.763339e-02 6.822713e-02 6.753220e-02 6.810173e-02 6.739523e-02 6.787684e-02 6.719396e-02 6.753329e-02 6.689728e-02 6.705557e-02 6.648725e-02 6.645958e-02 6.600267e-02 6.586634e-02 6.566017e-02 6.569902e-02 6.615293e-02 6.718461e-02 6.941368e-02 7.233036e-02 7.486729e-02 7.302614e-02 7.245075e-02 7.124676e-02 6.984439e-02 7.052328e-02 6.993718e-02 6.698287e-02 6.928322e-02 6.839951e-02 6.650356e-02 6.647532e-02 6.811100e-02 6.775434e-02 6.597855e-02 6.655013e-02 6.690576e-02 6.719797e-02 6.723009e-02 6.777943e-02 6.772994e-02 6.827566e-02 6.812942e-02 6.860996e-02 6.842285e-02 6.879419e-02 6.864214e-02 6.886361e-02 6.882109e-02 6.885140e-02 6.898235e-02 6.878535e-02 6.913835e-02 6.868897e-02 6.929001e-02 6.858106e-02 6.942962e-02 6.847936e-02 6.954617e-02 6.840010e-02 6.962646e-02 6.835657e-02 6.965924e-02 6.836125e-02 6.963909e-02 6.842236e-02 6.956404e-02 6.853902e-02 6.943705e-02 6.870337e-02 6.926975e-02 6.890092e-02 6.908006e-02 6.910933e-02 6.889234e-02 6.930364e-02 6.873738e-02 6.945736e-02 6.864513e-02 6.954361e-02 6.863545e-02 6.953896e-02 6.867404e-02 6.941715e-02 6.849021e-02 6.934304e-02 6.461623e-02 5.967075e-02 5.722036e-02 5.431231e-02 5.405974e-02 
5.230660e-02 5.363565e-02 5.407676e-02 5.679859e-02 5.801106e-02 6.158187e-02 6.236353e-02 6.471734e-02 6.583172e-02 6.800832e-02 7.069778e-02 7.316368e-02 7.820481e-02 7.795545e-02 7.801952e-02 7.796054e-02 7.800315e-02 7.797836e-02 7.798265e-02 7.800244e-02 7.796427e-02 7.828944e-02 7.191006e-02 7.084337e-02 6.751915e-02 6.734126e-02 6.566131e-02 6.561990e-02 6.484808e-02 6.471133e-02 6.451737e-02 6.420696e-02 6.440679e-02 6.391867e-02 6.438613e-02 6.375589e-02 6.438914e-02 6.367041e-02 6.438067e-02 6.363110e-02 6.434243e-02 6.361660e-02 6.426868e-02 6.361414e-02 6.416499e-02 6.362359e-02 6.405711e-02 6.367523e-02 6.401743e-02 6.386781e-02 6.421883e-02 6.443996e-02 6.502562e-02 6.587170e-02 6.713795e-02 6.902183e-02 7.070458e-02 7.116353e-02 6.929337e-02 7.022258e-02 6.992517e-02 6.953608e-02 7.175618e-02 7.021990e-02 6.988662e-02 7.291972e-02 7.130410e-02 7.074896e-02 7.180295e-02 7.244400e-02 6.999660e-02 7.190413e-02 7.064472e-02 6.710955e-02 6.597959e-02 6.452312e-02 6.454492e-02 6.379924e-02 6.421682e-02 6.374147e-02 6.426463e-02 6.391772e-02 6.439151e-02 6.415600e-02 6.448814e-02 6.439758e-02 6.452586e-02 6.462661e-02 6.450895e-02 6.484030e-02 6.445388e-02 6.503546e-02 6.437995e-02 6.520509e-02 6.430713e-02 6.533968e-02 6.425410e-02 6.542822e-02 6.423654e-02 6.546132e-02 6.426717e-02 6.543424e-02 6.435312e-02 6.534652e-02 6.449271e-02 6.520316e-02 6.467604e-02 6.501655e-02 6.488496e-02 6.480447e-02 6.509224e-02 6.458713e-02 6.526207e-02 6.438013e-02 6.534450e-02 6.417641e-02 6.526005e-02 6.391373e-02 6.486492e-02 6.340937e-02 6.387689e-02 6.226007e-02 6.179780e-02 5.947237e-02 5.688082e-02 5.527039e-02 5.330235e-02 5.308542e-02 
5.718249e-02 5.858520e-02 5.849394e-02 6.114498e-02 6.172834e-02 6.505872e-02 6.594493e-02 6.807886e-02 6.950096e-02 7.141007e-02 7.416986e-02 7.638412e-02 8.154752e-02 8.146311e-02 8.152551e-02 8.147123e-02 8.151431e-02 8.149266e-02 8.148985e-02 8.151905e-02 8.146061e-02 8.152559e-02 7.483790e-02 7.408062e-02 7.086751e-02 7.083423e-02 6.922873e-02 6.931474e-02 6.854721e-02 6.855415e-02 6.829648e-02 6.815188e-02 6.823784e-02 6.793505e-02 6.825921e-02 6.782757e-02 6.830711e-02 6.779503e-02 6.835863e-02 6.782312e-02 6.841084e-02 6.791128e-02 6.847865e-02 6.807474e-02 6.859918e-02 6.835383e-02 6.884456e-02 6.883318e-02 6.934658e-02 6.967323e-02 7.033283e-02 7.114900e-02 7.216008e-02 7.367169e-02 7.533302e-02 7.786012e-02 8.032062e-02 8.182480e-02 7.851333e-02 7.733786e-02 7.708261e-02 7.751829e-02 7.542717e-02 7.327647e-02 7.488795e-02 7.432712e-02 6.986619e-02 7.088218e-02 7.220358e-02 6.905054e-02 6.579749e-02 6.734568e-02 6.860831e-02 6.864062e-02 6.911717e-02 6.887553e-02 6.915316e-02 6.879401e-02 6.904359e-02 6.869575e-02 6.893952e-02 6.865586e-02 6.885145e-02 6.867247e-02 6.876555e-02 6.873200e-02 6.867264e-02 6.882194e-02 6.857129e-02 6.893085e-02 6.846587e-02 6.904694e-02 6.836450e-02 6.915778e-02 6.827752e-02 6.925081e-02 6.821578e-02 6.931434e-02 6.818912e-02 6.933908e-02 6.820495e-02 6.931929e-02 6.826641e-02 6.925362e-02 6.837091e-02 6.914557e-02 6.850930e-02 6.900350e-02 6.866578e-02 6.883938e-02 6.881752e-02 6.866476e-02 6.893263e-02 6.848149e-02 6.896334e-02 6.826249e-02 6.882869e-02 6.791450e-02 6.837737e-02 6.721437e-02 6.732451e-02 6.574245e-02 6.519522e-02 6.291426e-02 6.109725e-02 5.973208e-02 5.810804e-02 5.809970e-02 
5.230595e-02 5.363510e-02 5.407655e-02 5.679782e-02 5.801143e-02 6.158092e-02 6.236410e-02 6.471626e-02 6.583257e-02 6.800760e-02 7.069874e-02 7.316299e-02 7.820517e-02 7.795542e-02 7.801942e-02 7.796065e-02 7.800317e-02 7.797861e-02 7.798289e-02 7.800278e-02 7.796477e-02 7.829259e-02 7.192894e-02 7.085229e-02 6.754066e-02 6.735317e-02 6.569023e-02 6.563614e-02 6.488912e-02 6.473563e-02 6.457619e-02 6.424628e-02 6.449155e-02 6.398489e-02 6.450837e-02 6.386548e-02 6.456356e-02 6.384622e-02 6.463053e-02 6.390954e-02 6.470741e-02 6.405340e-02 6.481081e-02 6.428946e-02 6.497511e-02 6.464568e-02 6.525421e-02 6.517110e-02 6.572734e-02 6.594371e-02 6.650293e-02 6.706690e-02 6.769948e-02 6.863331e-02 6.939503e-02 7.071120e-02 7.166408e-02 7.281880e-02 7.154217e-02 7.126816e-02 7.072558e-02 7.095311e-02 7.023408e-02 6.987703e-02 7.009291e-02 7.021376e-02 6.905769e-02 6.943249e-02 6.983429e-02 6.946622e-02 6.903268e-02 6.905212e-02 6.903609e-02 6.834170e-02 6.819845e-02 6.721617e-02 6.716083e-02 6.621137e-02 6.633896e-02 6.552680e-02 6.577614e-02 6.512860e-02 6.539977e-02 6.493839e-02 6.513435e-02 6.488886e-02 6.492880e-02 6.493131e-02 6.475445e-02 6.502888e-02 6.459846e-02 6.515246e-02 6.446039e-02 6.527849e-02 6.434739e-02 6.538648e-02 6.427001e-02 6.545925e-02 6.423969e-02 6.548379e-02 6.426525e-02 6.545162e-02 6.435035e-02 6.536051e-02 6.449201e-02 6.521490e-02 6.467834e-02 6.502530e-02 6.488910e-02 6.480948e-02 6.509759e-02 6.458884e-02 6.526785e-02 6.437855e-02 6.534951e-02 6.417222e-02 6.526423e-02 6.390834e-02 6.486808e-02 6.340336e-02 6.387837e-02 6.225450e-02 6.179790e-02 5.946986e-02 5.687986e-02 5.526934e-02 5.330140e-02 5.308487e-02 
5.285338e-02 5.462230e-02 5.500666e-02 5.894907e-02 6.065867e-02 6.773547e-02 6.763816e-02 6.780258e-02 6.737880e-02 6.827104e-02 6.796589e-02 6.939303e-02 6.838771e-02 6.746873e-02 6.754647e-02 6.749921e-02 6.759508e-02 6.753753e-02 6.755395e-02 6.758502e-02 6.742470e-02 6.885761e-02 6.931155e-02 6.864777e-02 6.811668e-02 6.833389e-02 6.796201e-02 6.822205e-02 6.806047e-02 6.813631e-02 6.823072e-02 6.807327e-02 6.841828e-02 6.804958e-02 6.860247e-02 6.807918e-02 6.877547e-02 6.817224e-02 6.894283e-02 6.834226e-02 6.912488e-02 6.860766e-02 6.935417e-02 6.899385e-02 6.967557e-02 6.953474e-02 7.014268e-02 7.026985e-02 7.081391e-02 7.124168e-02 7.174307e-02 7.247507e-02 7.293790e-02 7.391542e-02 7.427364e-02 7.533030e-02 7.539425e-02 7.620901e-02 7.553110e-02 7.592296e-02 7.524374e-02 7.547516e-02 7.463750e-02 7.453424e-02 7.394509e-02 7.380719e-02 7.287817e-02 7.283054e-02 7.235644e-02 7.197350e-02 7.141015e-02 7.126994e-02 7.117938e-02 7.083858e-02 7.083856e-02 7.030403e-02 7.039857e-02 6.979367e-02 6.998883e-02 6.940278e-02 6.965707e-02 6.915403e-02 6.939791e-02 6.903171e-02 6.918814e-02 6.900986e-02 6.900836e-02 6.906318e-02 6.884566e-02 6.916536e-02 6.869335e-02 6.929200e-02 6.855394e-02 6.942239e-02 6.843590e-02 6.953727e-02 6.835025e-02 6.962029e-02 6.830931e-02 6.965894e-02 6.832254e-02 6.964406e-02 6.839422e-02 6.957265e-02 6.852302e-02 6.944816e-02 6.869849e-02 6.927937e-02 6.890277e-02 6.908497e-02 6.911541e-02 6.889227e-02 6.931158e-02 6.873147e-02 6.946427e-02 6.863425e-02 6.954934e-02 6.862230e-02 6.954339e-02 6.865963e-02 6.941936e-02 6.847655e-02 6.934376e-02 6.461361e-02 5.966895e-02 5.721923e-02 5.431049e-02 5.405878e-02 
4.169701e-02 4.364252e-02 4.643773e-02 5.233129e-02 6.091672e-02 6.891461e-02 6.149525e-02 6.292540e-02 5.901882e-02 5.935044e-02 5.583171e-02 5.486824e-02 5.033526e-02 4.997342e-02 5.007665e-02 5.000886e-02 5.011171e-02 5.005237e-02 5.006755e-02 5.011179e-02 4.994108e-02 5.054739e-02 5.541734e-02 5.670262e-02 5.856172e-02 5.943526e-02 6.028398e-02 6.072978e-02 6.131788e-02 6.131764e-02 6.197124e-02 6.157716e-02 6.240680e-02 6.171553e-02 6.271276e-02 6.183219e-02 6.292367e-02 6.196560e-02 6.306751e-02 6.214727e-02 6.318568e-02 6.240258e-02 6.332051e-02 6.275612e-02 6.352403e-02 6.323508e-02 6.383780e-02 6.384638e-02 6.428508e-02 6.459543e-02 6.489591e-02 6.549318e-02 6.567778e-02 6.649927e-02 6.655002e-02 6.746995e-02 6.731446e-02 6.814768e-02 6.766418e-02 6.828508e-02 6.771535e-02 6.818053e-02 6.764537e-02 6.796828e-02 6.753698e-02 6.775336e-02 6.738572e-02 6.748119e-02 6.730010e-02 6.719268e-02 6.713538e-02 6.677401e-02 6.679795e-02 6.610118e-02 6.622756e-02 6.529664e-02 6.557456e-02 6.454619e-02 6.497147e-02 6.395633e-02 6.447167e-02 6.355851e-02 6.406837e-02 6.333200e-02 6.372911e-02 6.324876e-02 6.343830e-02 6.328717e-02 6.318140e-02 6.340597e-02 6.293942e-02 6.356482e-02 6.271627e-02 6.373609e-02 6.252593e-02 6.388812e-02 6.238319e-02 6.399478e-02 6.231107e-02 6.403791e-02 6.232602e-02 6.399837e-02 6.243476e-02 6.387081e-02 6.264237e-02 6.366136e-02 6.293136e-02 6.337417e-02 6.326919e-02 6.304057e-02 6.363445e-02 6.271721e-02 6.399700e-02 6.246402e-02 6.432908e-02 6.237036e-02 6.464698e-02 6.257450e-02 6.505169e-02 6.330765e-02 6.586455e-02 6.494868e-02 6.877176e-02 6.885976e-02 5.544738e-02 4.948648e-02 4.401857e-02 4.281466e-02 
3.586090e-02 3.801429e-02 4.298979e-02 5.032196e-02 6.045486e-02 4.623049e-02 2.883529e-02 3.946284e-02 2.839801e-02 3.519637e-02 2.670195e-02 2.984584e-02 2.239194e-02 2.522170e-02 2.500160e-02 2.534306e-02 2.572020e-02 2.537870e-02 2.567610e-02 2.537889e-02 2.482795e-02 2.475824e-02 2.884344e-02 2.924646e-02 3.194899e-02 3.138258e-02 3.339427e-02 3.238994e-02 3.413830e-02 3.290183e-02 3.453374e-02 3.321129e-02 3.474617e-02 3.347249e-02 3.486452e-02 3.374612e-02 3.491930e-02 3.404086e-02 3.493772e-02 3.437133e-02 3.496504e-02 3.475099e-02 3.504357e-02 3.519522e-02 3.522250e-02 3.572346e-02 3.552890e-02 3.632682e-02 3.595993e-02 3.699537e-02 3.652381e-02 3.773762e-02 3.721567e-02 3.852383e-02 3.795754e-02 3.923955e-02 3.858231e-02 3.967714e-02 3.881812e-02 3.954800e-02 3.866057e-02 3.913219e-02 3.822188e-02 3.840825e-02 3.762486e-02 3.763896e-02 3.688619e-02 3.673077e-02 3.627845e-02 3.590660e-02 3.565146e-02 3.522602e-02 3.535065e-02 3.485583e-02 3.524198e-02 3.466954e-02 3.521271e-02 3.459103e-02 3.520557e-02 3.459056e-02 3.519287e-02 3.465978e-02 3.515322e-02 3.478281e-02 3.506861e-02 3.495445e-02 3.495314e-02 3.517907e-02 3.481771e-02 3.542881e-02 3.466036e-02 3.566918e-02 3.450393e-02 3.587731e-02 3.437882e-02 3.602124e-02 3.431313e-02 3.607437e-02 3.434292e-02 3.602097e-02 3.449236e-02 3.584431e-02 3.476931e-02 3.554747e-02 3.517545e-02 3.514925e-02 3.567812e-02 3.466599e-02 3.621831e-02 3.415215e-02 3.674736e-02 3.369317e-02 3.720143e-02 3.337356e-02 3.750858e-02 3.330679e-02 3.762717e-02 3.365544e-02 3.754258e-02 3.474281e-02 3.727795e-02 3.756046e-02 3.708731e-02 6.399569e-02 5.799330e-02 4.754712e-02 3.899486e-02 3.720472e-02 
9.257520e-03 1.195463e-02 1.709916e-02 2.709207e-02 2.898675e-02 2.374443e-02 2.616411e-02 2.012622e-02 2.511315e-02 1.994553e-02 2.381095e-02 1.993468e-02 2.219751e-02 2.297326e-02 2.521837e-02 2.572656e-02 2.555758e-02 2.679214e-02 2.462214e-02 2.627929e-02 2.186996e-02 2.273763e-02 2.055926e-02 2.292149e-02 2.064604e-02 2.289670e-02 2.093149e-02 2.279915e-02 2.128265e-02 2.264431e-02 2.163340e-02 2.246313e-02 2.196315e-02 2.229071e-02 2.226500e-02 2.214986e-02 2.252684e-02 2.205370e-02 2.274563e-02 2.201745e-02 2.293125e-02 2.205394e-02 2.309765e-02 2.217431e-02 2.326518e-02 2.238802e-02 2.344566e-02 2.268722e-02 2.364191e-02 2.305292e-02 2.385732e-02 2.345976e-02 2.407579e-02 2.385242e-02 2.424055e-02 2.413695e-02 2.427333e-02 2.423585e-02 2.419993e-02 2.425200e-02 2.401612e-02 2.399611e-02 2.372369e-02 2.371300e-02 2.337015e-02 2.328866e-02 2.311026e-02 2.299907e-02 2.284065e-02 2.277830e-02 2.284493e-02 2.263851e-02 2.270419e-02 2.238123e-02 2.255490e-02 2.216035e-02 2.247155e-02 2.202874e-02 2.244696e-02 2.197597e-02 2.245339e-02 2.198076e-02 2.246399e-02 2.202124e-02 2.245953e-02 2.208513e-02 2.243787e-02 2.217120e-02 2.239564e-02 2.227304e-02 2.232692e-02 2.238305e-02 2.223664e-02 2.250079e-02 2.213115e-02 2.262423e-02 2.201781e-02 2.275228e-02 2.190824e-02 2.288548e-02 2.181185e-02 2.301735e-02 2.173465e-02 2.314056e-02 2.168302e-02 2.324131e-02 2.165811e-02 2.329636e-02 2.165389e-02 2.329632e-02 2.167717e-02 2.323811e-02 2.174781e-02 2.312257e-02 2.189562e-02 2.296805e-02 2.218696e-02 2.280097e-02 2.277050e-02 2.264345e-02 2.414304e-02 2.249678e-02 3.015112e-02 2.097435e-02 3.716533e-02 2.134987e-02 1.532182e-02 9.982273e-03 
8.684408e-03 7.833886e-03 6.306859e-03 6.446400e-03 8.196972e-03 2.510369e-02 5.191171e-03 1.239591e-02 4.156491e-03 9.077534e-03 7.122086e-04 6.790101e-03 9.115901e-03 1.561930e-02 1.857575e-02 1.971917e-02 1.987313e-02 2.093696e-02 1.880365e-02 1.821016e-02 1.601862e-02 6.735683e-03 2.725404e-03 3.050506e-03 4.967205e-03 6.427505e-03 7.777521e-03 7.995412e-03 9.212463e-03 8.624668e-03 9.991356e-03 8.868644e-03 1.044939e-02 8.998278e-03 1.073660e-02 9.124401e-03 1.089905e-02 9.274008e-03 1.096472e-02 9.466022e-03 1.097613e-02 9.712445e-03 1.097385e-02 1.002465e-02 1.100967e-02 1.041994e-02 1.112057e-02 1.089211e-02 1.132544e-02 1.144533e-02 1.167335e-02 1.212902e-02 1.223215e-02 1.299399e-02 1.302891e-02 1.402628e-02 1.396812e-02 1.497493e-02 1.442959e-02 1.491186e-02 1.446351e-02 1.496362e-02 1.429371e-02 1.438097e-02 1.402979e-02 1.403565e-02 1.324309e-02 1.298075e-02 1.279784e-02 1.183446e-02 1.155675e-02 1.075664e-02 1.142507e-02 1.060391e-02 1.171146e-02 1.070653e-02 1.195936e-02 1.078974e-02 1.206782e-02 1.083855e-02 1.205648e-02 1.089741e-02 1.195393e-02 1.099222e-02 1.177529e-02 1.114164e-02 1.155310e-02 1.136127e-02 1.130687e-02 1.162613e-02 1.103843e-02 1.190013e-02 1.077380e-02 1.215748e-02 1.054660e-02 1.236233e-02 1.038884e-02 1.248405e-02 1.034102e-02 1.250269e-02 1.043090e-02 1.239611e-02 1.066706e-02 1.216096e-02 1.104907e-02 1.180702e-02 1.154088e-02 1.133990e-02 1.207949e-02 1.080512e-02 1.261660e-02 1.028023e-02 1.309336e-02 9.845276e-03 1.344324e-02 9.611593e-03 1.362739e-02 9.733141e-03 1.362722e-02 1.054014e-02 1.350154e-02 1.366408e-02 1.763320e-02 1.742122e-02 9.144084e-03 3.907603e-03 7.719919e-03 7.501027e-03 
2.027315e-03 1.310947e-03 1.750454e-03 1.969549e-03 2.846302e-03 6.618388e-03 7.847465e-03 4.753778e-03 6.594759e-03 8.603111e-03 1.022633e-02 1.795054e-02 2.188446e-02 2.288987e-02 1.200077e-02 7.003323e-03 3.633519e-03 4.711732e-03 7.000666e-03 1.150364e-02 2.278942e-02 2.320077e-02 1.574612e-02 1.073238e-02 6.610306e-03 4.673631e-03 2.851634e-03 2.563781e-03 1.264652e-03 2.085533e-03 5.932255e-04 2.023797e-03 3.416421e-04 1.964431e-03 3.036563e-04 1.839471e-03 3.435621e-04 1.657074e-03 3.956621e-04 1.426575e-03 4.316138e-04 1.153321e-03 4.249035e-04 8.408548e-04 3.378615e-04 5.245037e-04 1.512699e-04 4.935948e-04 3.274256e-04 1.005448e-03 9.497525e-04 1.855235e-03 1.894317e-03 3.014100e-03 3.135329e-03 4.365921e-03 4.389868e-03 5.452569e-03 4.537970e-03 4.747455e-03 3.956901e-03 4.060691e-03 3.038912e-03 2.598883e-03 1.728401e-03 2.230589e-03 1.532799e-03 1.237043e-03 1.854949e-03 3.217720e-03 2.527097e-03 2.839297e-03 2.163485e-03 2.751120e-03 1.662696e-03 2.208622e-03 9.986902e-04 1.656711e-03 4.749619e-04 1.206349e-03 2.111130e-04 8.338700e-04 2.325959e-04 5.063637e-04 2.938583e-04 2.169782e-04 3.355642e-04 2.044849e-04 3.854253e-04 4.868472e-04 4.661225e-04 7.694301e-04 5.678094e-04 1.011154e-03 6.546277e-04 1.183000e-03 6.913101e-04 1.260094e-03 6.468348e-04 1.227065e-03 5.129840e-04 1.078577e-03 3.636734e-04 8.391569e-04 4.946431e-04 6.031532e-04 9.210638e-04 6.223172e-04 1.433747e-03 9.608796e-04 1.934969e-03 1.363060e-03 2.342835e-03 1.679870e-03 2.566579e-03 1.832088e-03 2.509306e-03 1.820511e-03 2.028951e-03 1.959075e-03 8.940150e-04 3.623944e-03 4.531635e-03 6.127323e-03 1.369179e-03 1.563398e-03 2.432891e-03 7.511952e-04 
