# vtk DataFile Version 2.0
Comment goes here
ASCII

DATASET STRUCTURED_POINTS
FIELD FieldData 1
TIME 1 1 double
0.68000000
DIMENSIONS    128   16   1

ORIGIN    0.000   0.000   0.000
SPACING   0.0078125 0.015625   1.000

POINT_DATA   2048
SCALARS uX double
LOOKUP_TABLE default

-5.999624e-03 -4.170732e-03 -4.829834e-03 -2.461233e-03 -3.531405e-03 -2.453831e-03 -9.859180e-03 -1.582583e-04 -5.570313e-03 3.951136e-03 2.862158e-03 1.393346e-02 2.072851e-02 3.578243e-02 4.361219e-02 4.756038e-02 4.987295e-02 5.004583e-02 4.765429e-02 4.327656e-02 3.668460e-02 2.049565e-02 1.346120e-02 4.796630e-03 2.746679e-03 -1.791852e-03 -1.699733e-03 -4.610881e-03 -3.543288e-03 -5.812433e-03 -4.286351e-03 -6.292175e-03 -4.579834e-03 -6.430237e-03 -4.704995e-03 -6.393105e-03 -4.781489e-03 -6.260956e-03 -4.856593e-03 -6.078222e-03 -4.942417e-03 -5.871427e-03 -5.032590e-03 -5.655977e-03 -5.112245e-03 -5.439296e-03 -5.162086e-03 -5.215847e-03 -5.150362e-03 -4.949577e-03 -5.006080e-03 -4.535383e-03 -4.557749e-03 -3.705472e-03 -3.348286e-03 -1.581409e-03 3.270363e-04 3.131844e-03 4.179426e-04 -1.739182e-03 -4.110618e-04 1.575354e-03 -1.047040e-03 -2.837646e-03 3.100025e-04 7.406190e-04 -4.425596e-03 -3.269224e-03 -4.341076e-04 -5.557272e-03 -1.082924e-02 -1.080533e-02 -7.720507e-03 -7.294046e-03 -4.951496e-03 -5.406412e-03 -3.935625e-03 -4.819728e-03 -3.675687e-03 -4.639016e-03 -3.678720e-03 -4.547676e-03 -3.786211e-03 -4.438145e-03 -3.947250e-03 -4.279721e-03 -4.142201e-03 -4.073094e-03 -4.356346e-03 -3.835485e-03 -4.572301e-03 -3.594096e-03 -4.767117e-03 -3.380856e-03 -4.912495e-03 -3.229425e-03 -4.978754e-03 -3.172050e-03 -4.938810e-03 -3.233643e-03 -4.772077e-03 -3.427092e-03 -4.470688e-03 -3.751006e-03 -4.045260e-03 -4.187197e-03 -3.526974e-03 -4.697850e-03 -2.966549e-03 -5.224558e-03 -2.431018e-03 -5.691449e-03 -2.001586e-03 -6.014017e-03 -1.774091e-03 -6.111599e-03 -1.867079e-03 -5.923480e-03 -2.459507e-03 -5.436827e-03 -3.932891e-03 -4.770712e-03 -7.529635e-03 -1.342101e-03 -4.876773e-03 -2.709388e-03 -5.749148e-03 -4.288445e-03 
-2.025217e-03 -5.914043e-04 -3.795976e-04 1.484671e-03 2.843845e-03 1.930541e-03 -7.502871e-03 2.058594e-03 -5.152943e-03 1.709556e-03 -2.201198e-03 1.733044e-03 1.160884e-03 1.502843e-04 -2.327790e-03 -3.121648e-03 -2.652711e-03 -4.172672e-03 -1.787077e-03 -3.502255e-03 8.574961e-04 1.295083e-04 9.629545e-04 -9.195600e-04 7.859861e-05 -1.509064e-03 -2.511838e-04 -1.808668e-03 -3.571403e-04 -1.963260e-03 -3.771777e-04 -2.016853e-03 -3.812866e-04 -1.991926e-03 -4.038204e-04 -1.901698e-03 -4.526396e-04 -1.759472e-03 -5.299749e-04 -1.590015e-03 -6.343778e-04 -1.412173e-03 -7.482930e-04 -1.232121e-03 -8.466196e-04 -1.045245e-03 -8.888475e-04 -8.101874e-04 -7.908074e-04 -4.154665e-04 -3.758364e-04 3.978373e-04 7.590403e-04 2.236756e-03 3.582009e-03 6.691497e-03 1.057567e-02 1.455418e-02 1.054241e-02 8.414570e-03 8.338487e-03 8.607030e-03 6.429212e-03 3.771467e-03 4.392905e-03 4.834318e-03 -9.467091e-04 -1.427715e-03 2.642399e-04 -3.651727e-03 -8.028359e-03 -9.339644e-03 -6.860777e-03 -5.784316e-03 -3.079050e-03 -2.855443e-03 -1.149984e-03 -1.548905e-03 -2.973398e-04 -9.066776e-04 7.919795e-05 -5.304467e-04 2.091619e-04 -2.506963e-04 1.955060e-04 6.590697e-06 8.832739e-05 2.669599e-04 -7.546705e-05 5.358972e-04 -2.609518e-04 7.987478e-04 -4.394393e-04 1.028204e-03 -5.780514e-04 1.195712e-03 -6.436008e-04 1.267694e-03 -6.104305e-04 1.216714e-03 -4.538732e-04 1.033246e-03 -1.600892e-04 7.166732e-04 2.586350e-04 2.794963e-04 7.728506e-04 -2.396540e-04 1.335277e-03 -7.859628e-04 1.875406e-03 -1.288597e-03 2.313734e-03 -1.661647e-03 2.558758e-03 -1.827776e-03 2.495477e-03 -1.722688e-03 1.964026e-03 -1.286663e-03 6.017809e-04 -3.950603e-04 -2.969485e-03 5.529567e-03 -1.982599e-05 1.299544e-03 -1.850024e-03 -7.066559e-04 
-8.683483e-03 -7.106915e-03 -4.752287e-03 1.239179e-04 8.140492e-03 1.420208e-02 5.179489e-03 1.147817e-02 4.092734e-03 6.897819e-03 7.006225e-04 -9.813060e-04 -8.562797e-03 -1.397698e-02 -1.738795e-02 -1.971832e-02 -1.974973e-02 -2.088073e-02 -1.873259e-02 -1.743067e-02 -1.424968e-02 -6.722838e-03 -1.684620e-03 2.482558e-03 4.803791e-03 6.382981e-03 7.733323e-03 7.990859e-03 9.173831e-03 8.630963e-03 9.942280e-03 8.881669e-03 1.037469e-02 8.991734e-03 1.061081e-02 9.076066e-03 1.072879e-02 9.182983e-03 1.075662e-02 9.297262e-03 1.069248e-02 9.393653e-03 1.054536e-02 9.446739e-03 1.030341e-02 9.402041e-03 9.923463e-03 9.184185e-03 9.320756e-03 8.651686e-03 8.293223e-03 7.513101e-03 6.432580e-03 5.202986e-03 2.860619e-03 1.929336e-04 -5.209230e-03 -9.151075e-03 -5.893560e-03 -2.684821e-04 -3.364562e-03 -4.678353e-03 -8.327307e-04 4.555240e-03 -6.072489e-04 4.263358e-04 1.039042e-02 9.913766e-03 6.930691e-03 1.552507e-02 2.713294e-02 2.665726e-02 2.364730e-02 1.958292e-02 1.717998e-02 1.448538e-02 1.404638e-02 1.224928e-02 1.271364e-02 1.131340e-02 1.213122e-02 1.097463e-02 1.183538e-02 1.093083e-02 1.163180e-02 1.104694e-02 1.143173e-02 1.125055e-02 1.121166e-02 1.151234e-02 1.098433e-02 1.179928e-02 1.076094e-02 1.207037e-02 1.056908e-02 1.229467e-02 1.044134e-02 1.243090e-02 1.039773e-02 1.244505e-02 1.047040e-02 1.233311e-02 1.068606e-02 1.209005e-02 1.103294e-02 1.171642e-02 1.148908e-02 1.124927e-02 1.202054e-02 1.073465e-02 1.256147e-02 1.023419e-02 1.305057e-02 9.838959e-03 1.342440e-02 9.628302e-03 1.361066e-02 9.689553e-03 1.358398e-02 1.019551e-02 1.338072e-02 1.166284e-02 1.307652e-02 1.640279e-02 3.484529e-03 -1.379345e-03 -6.595354e-03 -7.491006e-03 
-9.220237e-03 -7.825665e-03 -5.571530e-03 3.174365e-04 6.860558e-03 2.033713e-02 2.595559e-02 2.001808e-02 2.457755e-02 1.987709e-02 2.307464e-02 1.992531e-02 2.178177e-02 2.238111e-02 2.519713e-02 2.569362e-02 2.554373e-02 2.680437e-02 2.461665e-02 2.621377e-02 2.183025e-02 2.266793e-02 2.037597e-02 2.279287e-02 2.059706e-02 2.281703e-02 2.089477e-02 2.271250e-02 2.122006e-02 2.253294e-02 2.153331e-02 2.231489e-02 2.181165e-02 2.208479e-02 2.203867e-02 2.186420e-02 2.220692e-02 2.166433e-02 2.230311e-02 2.147540e-02 2.230585e-02 2.127910e-02 2.219418e-02 2.104662e-02 2.192992e-02 2.072110e-02 2.144501e-02 2.020448e-02 2.062070e-02 1.931579e-02 1.922266e-02 1.771517e-02 1.680252e-02 1.477347e-02 1.248534e-02 9.141305e-03 4.427635e-03 9.807537e-04 4.221384e-03 6.261608e-03 6.678084e-03 9.229458e-03 9.568356e-03 1.304327e-02 1.416141e-02 1.434415e-02 1.820644e-02 1.985312e-02 1.944858e-02 2.113402e-02 2.307031e-02 2.409455e-02 2.383502e-02 2.387830e-02 2.336501e-02 2.305904e-02 2.305046e-02 2.266220e-02 2.294321e-02 2.244510e-02 2.288219e-02 2.231770e-02 2.282589e-02 2.225232e-02 2.276615e-02 2.223559e-02 2.269676e-02 2.225704e-02 2.261507e-02 2.231406e-02 2.252199e-02 2.239989e-02 2.241457e-02 2.250422e-02 2.229467e-02 2.262088e-02 2.216612e-02 2.274086e-02 2.203032e-02 2.285642e-02 2.189699e-02 2.296703e-02 2.177920e-02 2.306662e-02 2.168289e-02 2.314475e-02 2.161699e-02 2.319629e-02 2.159353e-02 2.321246e-02 2.161951e-02 2.318493e-02 2.170966e-02 2.311378e-02 2.188501e-02 2.299637e-02 2.218159e-02 2.283136e-02 2.271651e-02 2.260791e-02 2.386875e-02 2.214121e-02 2.723191e-02 1.290784e-02 4.268835e-03 -3.726621e-03 -6.659464e-03 -8.945595e-03 
-3.577958e-02 -3.650952e-02 -3.782390e-02 -3.938978e-02 -4.449397e-02 -4.279746e-02 -2.884162e-02 -3.942000e-02 -2.839300e-02 -3.507943e-02 -2.670737e-02 -2.955902e-02 -2.232335e-02 -2.522499e-02 -2.500409e-02 -2.534179e-02 -2.572404e-02 -2.537614e-02 -2.568064e-02 -2.538004e-02 -2.482062e-02 -2.462841e-02 -2.875020e-02 -2.919363e-02 -3.185978e-02 -3.134738e-02 -3.328632e-02 -3.234660e-02 -3.399151e-02 -3.284329e-02 -3.433473e-02 -3.312423e-02 -3.446783e-02 -3.330939e-02 -3.445987e-02 -3.345313e-02 -3.436098e-02 -3.357228e-02 -3.418428e-02 -3.363136e-02 -3.391236e-02 -3.358463e-02 -3.352876e-02 -3.337746e-02 -3.297893e-02 -3.290686e-02 -3.214504e-02 -3.201056e-02 -3.080692e-02 -3.038487e-02 -2.851602e-02 -2.743089e-02 -2.441154e-02 -2.201054e-02 -1.677820e-02 -1.150162e-02 -1.513341e-03 4.569410e-03 -1.081754e-03 -6.679995e-03 -6.283216e-03 -8.902364e-03 -1.143535e-02 -1.898726e-02 -1.814155e-02 -1.921175e-02 -2.908005e-02 -3.173224e-02 -2.977182e-02 -3.608513e-02 -4.505949e-02 -4.580850e-02 -4.456326e-02 -4.191564e-02 -4.002408e-02 -3.815563e-02 -3.758922e-02 -3.651406e-02 -3.649549e-02 -3.579266e-02 -3.594423e-02 -3.548376e-02 -3.561210e-02 -3.538707e-02 -3.536745e-02 -3.541374e-02 -3.514496e-02 -3.551095e-02 -3.492747e-02 -3.565759e-02 -3.472683e-02 -3.582610e-02 -3.455040e-02 -3.598052e-02 -3.441998e-02 -3.609404e-02 -3.436186e-02 -3.612878e-02 -3.438996e-02 -3.605336e-02 -3.452982e-02 -3.586535e-02 -3.480192e-02 -3.556168e-02 -3.519000e-02 -3.514547e-02 -3.566889e-02 -3.465671e-02 -3.620235e-02 -3.414587e-02 -3.672411e-02 -3.368131e-02 -3.717359e-02 -3.336569e-02 -3.749102e-02 -3.330347e-02 -3.761262e-02 -3.364318e-02 -3.752689e-02 -3.472715e-02 -3.727046e-02 -3.755141e-02 -3.651105e-02 -4.992597e-02 -4.030303e-02 -4.012152e-02 -3.622632e-02 -3.679990e-02 
-4.167343e-02 -4.336182e-02 -4.525648e-02 -5.049482e-02 -5.705048e-02 -6.622997e-02 -6.138934e-02 -6.285665e-02 -5.890576e-02 -5.913801e-02 -5.557993e-02 -5.426627e-02 -5.013166e-02 -4.997370e-02 -5.007697e-02 -5.000844e-02 -5.011196e-02 -5.005140e-02 -5.006696e-02 -5.011025e-02 -4.993895e-02 -5.019378e-02 -5.502113e-02 -5.654490e-02 -5.843932e-02 -5.939566e-02 -6.020328e-02 -6.070436e-02 -6.122056e-02 -6.128336e-02 -6.183758e-02 -6.152021e-02 -6.221505e-02 -6.160148e-02 -6.242940e-02 -6.162303e-02 -6.253022e-02 -6.162779e-02 -6.253312e-02 -6.160543e-02 -6.242784e-02 -6.152963e-02 -6.220376e-02 -6.136308e-02 -6.182298e-02 -6.103240e-02 -6.120634e-02 -6.042490e-02 -6.021720e-02 -5.934625e-02 -5.859838e-02 -5.746043e-02 -5.592598e-02 -5.426033e-02 -5.158180e-02 -4.900284e-02 -4.499877e-02 -4.390723e-02 -4.613661e-02 -4.480754e-02 -4.506600e-02 -4.826388e-02 -4.443452e-02 -4.593860e-02 -4.661346e-02 -4.525353e-02 -4.402160e-02 -4.428812e-02 -4.374234e-02 -4.231237e-02 -4.054033e-02 -3.783123e-02 -4.149420e-02 -4.699290e-02 -5.128582e-02 -5.394932e-02 -5.658370e-02 -5.774663e-02 -5.954121e-02 -5.989314e-02 -6.118234e-02 -6.113258e-02 -6.206912e-02 -6.188954e-02 -6.252219e-02 -6.239627e-02 -6.271310e-02 -6.277179e-02 -6.274542e-02 -6.308599e-02 -6.269032e-02 -6.336480e-02 -6.258811e-02 -6.360641e-02 -6.247522e-02 -6.380437e-02 -6.238350e-02 -6.393835e-02 -6.233204e-02 -6.398911e-02 -6.234771e-02 -6.395587e-02 -6.245375e-02 -6.383450e-02 -6.264702e-02 -6.362288e-02 -6.291855e-02 -6.334345e-02 -6.325285e-02 -6.302492e-02 -6.361402e-02 -6.270963e-02 -6.397398e-02 -6.246919e-02 -6.431336e-02 -6.238634e-02 -6.463311e-02 -6.258796e-02 -6.503658e-02 -6.331128e-02 -6.583056e-02 -6.491439e-02 -6.775159e-02 -6.450104e-02 -5.268033e-02 -4.777981e-02 -4.343630e-02 -4.266804e-02 
-5.284347e-02 -5.451605e-02 -5.465949e-02 -5.844221e-02 -5.991492e-02 -6.716026e-02 -6.733563e-02 -6.745157e-02 -6.706474e-02 -6.760101e-02 -6.723940e-02 -6.774633e-02 -6.760289e-02 -6.746935e-02 -6.754705e-02 -6.749901e-02 -6.759560e-02 -6.753690e-02 -6.755373e-02 -6.758472e-02 -6.742258e-02 -6.764653e-02 -6.773826e-02 -6.814219e-02 -6.772301e-02 -6.820235e-02 -6.779657e-02 -6.814276e-02 -6.791715e-02 -6.803806e-02 -6.804979e-02 -6.792478e-02 -6.816618e-02 -6.781814e-02 -6.824432e-02 -6.772265e-02 -6.826932e-02 -6.763287e-02 -6.822686e-02 -6.753134e-02 -6.810058e-02 -6.739362e-02 -6.787368e-02 -6.719036e-02 -6.752536e-02 -6.688810e-02 -6.703564e-02 -6.646209e-02 -6.640812e-02 -6.593150e-02 -6.573034e-02 -6.545874e-02 -6.533974e-02 -6.559804e-02 -6.623821e-02 -6.799979e-02 -7.126980e-02 -7.483780e-02 -7.285538e-02 -7.244563e-02 -7.120203e-02 -6.984358e-02 -7.051573e-02 -6.988029e-02 -6.690543e-02 -6.926698e-02 -6.830360e-02 -6.644585e-02 -6.647174e-02 -6.784873e-02 -6.774643e-02 -6.597498e-02 -6.548940e-02 -6.573349e-02 -6.661437e-02 -6.690941e-02 -6.760298e-02 -6.762782e-02 -6.822057e-02 -6.809651e-02 -6.859400e-02 -6.841174e-02 -6.879023e-02 -6.863796e-02 -6.886296e-02 -6.881920e-02 -6.885139e-02 -6.898129e-02 -6.878526e-02 -6.913766e-02 -6.868870e-02 -6.928952e-02 -6.858074e-02 -6.942931e-02 -6.847911e-02 -6.954603e-02 -6.839999e-02 -6.962644e-02 -6.835656e-02 -6.965923e-02 -6.836121e-02 -6.963892e-02 -6.842210e-02 -6.956355e-02 -6.853841e-02 -6.943617e-02 -6.870237e-02 -6.926858e-02 -6.889966e-02 -6.907889e-02 -6.910803e-02 -6.889155e-02 -6.930247e-02 -6.873719e-02 -6.945623e-02 -6.864490e-02 -6.954166e-02 -6.863081e-02 -6.953152e-02 -6.864483e-02 -6.937734e-02 -6.835800e-02 -6.910135e-02 -6.385613e-02 -5.909300e-02 -5.678711e-02 -5.414772e-02 -5.402472e-02 
-5.230436e-02 -5.361960e-02 -5.401620e-02 -5.670640e-02 -5.787900e-02 -6.143730e-02 -6.229047e-02 -6.461951e-02 -6.574754e-02 -6.784774e-02 -7.052283e-02 -7.279050e-02 -7.803999e-02 -7.795545e-02 -7.801952e-02 -7.796054e-02 -7.800315e-02 -7.797835e-02 -7.798265e-02 -7.800244e-02 -7.796427e-02 -7.801016e-02 -7.152902e-02 -7.073339e-02 -6.744354e-02 -6.732214e-02 -6.564510e-02 -6.561689e-02 -6.484447e-02 -6.471111e-02 -6.451667e-02 -6.420692e-02 -6.440674e-02 -6.391829e-02 -6.438605e-02 -6.375498e-02 -6.438857e-02 -6.366860e-02 -6.437891e-02 -6.362753e-02 -6.433797e-02 -6.360922e-02 -6.425811e-02 -6.359811e-02 -6.414046e-02 -6.358760e-02 -6.400058e-02 -6.359320e-02 -6.388882e-02 -6.368316e-02 -6.393610e-02 -6.404392e-02 -6.444744e-02 -6.509822e-02 -6.606665e-02 -6.774262e-02 -6.988307e-02 -7.110792e-02 -6.859932e-02 -7.012255e-02 -6.991712e-02 -6.931419e-02 -7.085867e-02 -7.012335e-02 -6.988493e-02 -7.158882e-02 -7.060433e-02 -7.071589e-02 -7.149967e-02 -7.058659e-02 -6.977091e-02 -7.178562e-02 -7.063437e-02 -6.710866e-02 -6.597468e-02 -6.451310e-02 -6.453385e-02 -6.378895e-02 -6.420935e-02 -6.373585e-02 -6.426141e-02 -6.391530e-02 -6.439050e-02 -6.415506e-02 -6.448794e-02 -6.439721e-02 -6.452585e-02 -6.462645e-02 -6.450893e-02 -6.484022e-02 -6.445383e-02 -6.503541e-02 -6.437988e-02 -6.520506e-02 -6.430708e-02 -6.533967e-02 -6.425407e-02 -6.542821e-02 -6.423654e-02 -6.546131e-02 -6.426717e-02 -6.543422e-02 -6.435309e-02 -6.534645e-02 -6.449263e-02 -6.520303e-02 -6.467590e-02 -6.501638e-02 -6.488478e-02 -6.480431e-02 -6.509204e-02 -6.458704e-02 -6.526185e-02 -6.438012e-02 -6.534417e-02 -6.417626e-02 -6.525917e-02 -6.391212e-02 -6.486121e-02 -6.340062e-02 -6.386000e-02 -6.222367e-02 -6.173304e-02 -5.933110e-02 -5.679170e-02 -5.518955e-02 -5.327732e-02 -5.307737e-02 
-5.718249e-02 -5.858520e-02 -5.849394e-02 -6.114498e-02 -6.172834e-02 -6.505872e-02 -6.594493e-02 -6.807886e-02 -6.950096e-02 -7.141007e-02 -7.416986e-02 -7.638412e-02 -8.154752e-02 -8.146311e-02 -8.152551e-02 -8.147123e-02 -8.151431e-02 -8.149266e-02 -8.148985e-02 -8.151905e-02 -8.146061e-02 -8.152559e-02 -7.483789e-02 -7.408062e-02 -7.086750e-02 -7.083423e-02 -6.922873e-02 -6.931473e-02 -6.854719e-02 -6.855414e-02 -6.829645e-02 -6.815184e-02 -6.823779e-02 -6.793494e-02 -6.825911e-02 -6.782731e-02 -6.830688e-02 -6.779444e-02 -6.835807e-02 -6.782180e-02 -6.840947e-02 -6.790839e-02 -6.847529e-02 -6.806837e-02 -6.859104e-02 -6.833974e-02 -6.882541e-02 -6.880258e-02 -6.930381e-02 -6.960991e-02 -7.024523e-02 -7.102982e-02 -7.200339e-02 -7.347995e-02 -7.509782e-02 -7.760435e-02 -8.012444e-02 -8.182347e-02 -7.845522e-02 -7.731750e-02 -7.707727e-02 -7.750286e-02 -7.538059e-02 -7.327127e-02 -7.488739e-02 -7.426900e-02 -6.984102e-02 -7.087542e-02 -7.220228e-02 -6.900476e-02 -6.578338e-02 -6.733763e-02 -6.856345e-02 -6.856830e-02 -6.902094e-02 -6.877731e-02 -6.906758e-02 -6.872552e-02 -6.899326e-02 -6.865982e-02 -6.891499e-02 -6.863967e-02 -6.884067e-02 -6.866587e-02 -6.876108e-02 -6.872950e-02 -6.867083e-02 -6.882106e-02 -6.857057e-02 -6.893056e-02 -6.846558e-02 -6.904685e-02 -6.836438e-02 -6.915776e-02 -6.827747e-02 -6.925080e-02 -6.821575e-02 -6.931434e-02 -6.818911e-02 -6.933908e-02 -6.820495e-02 -6.931929e-02 -6.826641e-02 -6.925362e-02 -6.837091e-02 -6.914557e-02 -6.850930e-02 -6.900350e-02 -6.866578e-02 -6.883938e-02 -6.881752e-02 -6.866476e-02 -6.893263e-02 -6.848149e-02 -6.896334e-02 -6.826249e-02 -6.882868e-02 -6.791450e-02 -6.837737e-02 -6.721437e-02 -6.732451e-02 -6.574245e-02 -6.519522e-02 -6.291426e-02 -6.109725e-02 -5.973208e-02 -5.810804e-02 -5.809970e-02 
-5.230369e-02 -5.361908e-02 -5.401587e-02 -5.670568e-02 -5.787914e-02 -6.143643e-02 -6.229082e-02 -6.461855e-02 -6.574808e-02 -6.784728e-02 -7.052330e-02 -7.279032e-02 -7.803978e-02 -7.795541e-02 -7.801942e-02 -7.796065e-02 -7.800317e-02 -7.797860e-02 -7.798288e-02 -7.800277e-02 -7.796477e-02 -7.801064e-02 -7.153718e-02 -7.073959e-02 -6.746007e-02 -6.733240e-02 -6.567123e-02 -6.563202e-02 -6.488372e-02 -6.473476e-02 -6.457422e-02 -6.424600e-02 -6.449056e-02 -6.398465e-02 -6.450762e-02 -6.386501e-02 -6.456270e-02 -6.384511e-02 -6.462915e-02 -6.390699e-02 -6.470477e-02 -6.404792e-02 -6.480530e-02 -6.427833e-02 -6.496344e-02 -6.462408e-02 -6.523034e-02 -6.513141e-02 -6.568200e-02 -6.587678e-02 -6.642688e-02 -6.696929e-02 -6.759543e-02 -6.852377e-02 -6.929648e-02 -7.063995e-02 -7.162689e-02 -7.281691e-02 -7.153802e-02 -7.126127e-02 -7.071109e-02 -7.092031e-02 -7.017621e-02 -6.982506e-02 -7.004895e-02 -7.011219e-02 -6.898452e-02 -6.938530e-02 -6.977606e-02 -6.937992e-02 -6.899494e-02 -6.903724e-02 -6.902473e-02 -6.833007e-02 -6.818749e-02 -6.720490e-02 -6.715195e-02 -6.620386e-02 -6.633354e-02 -6.552316e-02 -6.577337e-02 -6.512733e-02 -6.539847e-02 -6.493812e-02 -6.513372e-02 -6.488885e-02 -6.492845e-02 -6.493129e-02 -6.475422e-02 -6.502879e-02 -6.459828e-02 -6.515234e-02 -6.446026e-02 -6.527839e-02 -6.434731e-02 -6.538642e-02 -6.426997e-02 -6.545923e-02 -6.423968e-02 -6.548379e-02 -6.426525e-02 -6.545159e-02 -6.435031e-02 -6.536042e-02 -6.449191e-02 -6.521473e-02 -6.467816e-02 -6.502509e-02 -6.488886e-02 -6.480929e-02 -6.509732e-02 -6.458873e-02 -6.526756e-02 -6.437854e-02 -6.534910e-02 -6.417208e-02 -6.526325e-02 -6.390676e-02 -6.486423e-02 -6.339462e-02 -6.386134e-02 -6.221806e-02 -6.173316e-02 -5.932842e-02 -5.679082e-02 -5.518839e-02 -5.327642e-02 -5.307678e-02 
-5.284223e-02 -5.451487e-02 -5.465904e-02 -5.844052e-02 -5.991599e-02 -6.715834e-02 -6.733789e-02 -6.744909e-02 -6.706840e-02 -6.759977e-02 -6.724263e-02 -6.774523e-02 -6.760254e-02 -6.746872e-02 -6.754647e-02 -6.749920e-02 -6.759507e-02 -6.753752e-02 -6.755393e-02 -6.758501e-02 -6.742470e-02 -6.764683e-02 -6.776218e-02 -6.816104e-02 -6.777194e-02 -6.823954e-02 -6.787516e-02 -6.820329e-02 -6.803568e-02 -6.813307e-02 -6.822290e-02 -6.807284e-02 -6.841565e-02 -6.804953e-02 -6.860156e-02 -6.807914e-02 -6.877513e-02 -6.817208e-02 -6.894266e-02 -6.834173e-02 -6.912472e-02 -6.860635e-02 -6.935383e-02 -6.899111e-02 -6.967462e-02 -6.952950e-02 -7.014003e-02 -7.026045e-02 -7.080761e-02 -7.122630e-02 -7.173085e-02 -7.245322e-02 -7.291938e-02 -7.389075e-02 -7.425381e-02 -7.531233e-02 -7.538378e-02 -7.620629e-02 -7.553104e-02 -7.592286e-02 -7.524340e-02 -7.547366e-02 -7.463609e-02 -7.453168e-02 -7.394454e-02 -7.380274e-02 -7.287695e-02 -7.282803e-02 -7.235521e-02 -7.196721e-02 -7.140694e-02 -7.126144e-02 -7.117139e-02 -7.082321e-02 -7.082481e-02 -7.028569e-02 -7.038390e-02 -6.977898e-02 -6.997723e-02 -6.939404e-02 -6.964920e-02 -6.915006e-02 -6.939283e-02 -6.903042e-02 -6.918475e-02 -6.900964e-02 -6.900590e-02 -6.906318e-02 -6.884378e-02 -6.916527e-02 -6.869190e-02 -6.929181e-02 -6.855289e-02 -6.942219e-02 -6.843525e-02 -6.953716e-02 -6.834996e-02 -6.962028e-02 -6.830926e-02 -6.965891e-02 -6.832253e-02 -6.964381e-02 -6.839401e-02 -6.957200e-02 -6.852242e-02 -6.944707e-02 -6.869743e-02 -6.927800e-02 -6.890137e-02 -6.908363e-02 -6.911394e-02 -6.889138e-02 -6.931024e-02 -6.873126e-02 -6.946298e-02 -6.863404e-02 -6.954725e-02 -6.861768e-02 -6.953576e-02 -6.863034e-02 -6.937936e-02 -6.834412e-02 -6.910245e-02 -6.385292e-02 -5.909172e-02 -5.678581e-02 -5.414610e-02 -5.402375e-02 
-4.167113e-02 -4.336153e-02 -4.525536e-02 -5.049318e-02 -5.705242e-02 -6.622650e-02 -6.138956e-02 -6.285308e-02 -5.890674e-02 -5.913814e-02 -5.558258e-02 -5.426782e-02 -5.013097e-02 -4.997324e-02 -5.007660e-02 -5.000879e-02 -5.011161e-02 -5.005226e-02 -5.006741e-02 -5.011096e-02 -4.994091e-02 -5.019437e-02 -5.503853e-02 -5.656310e-02 -5.847740e-02 -5.941717e-02 -6.026132e-02 -6.072837e-02 -6.131009e-02 -6.131763e-02 -6.196809e-02 -6.157684e-02 -6.240548e-02 -6.171522e-02 -6.271225e-02 -6.183211e-02 -6.292349e-02 -6.196559e-02 -6.306745e-02 -6.214693e-02 -6.318566e-02 -6.240142e-02 -6.332047e-02 -6.275367e-02 -6.352384e-02 -6.323075e-02 -6.383708e-02 -6.383948e-02 -6.428306e-02 -6.458566e-02 -6.489185e-02 -6.548144e-02 -6.567193e-02 -6.648831e-02 -6.654454e-02 -6.746377e-02 -6.731245e-02 -6.814728e-02 -6.766387e-02 -6.828381e-02 -6.771325e-02 -6.817401e-02 -6.763847e-02 -6.795563e-02 -6.752921e-02 -6.773350e-02 -6.737452e-02 -6.746416e-02 -6.729062e-02 -6.717445e-02 -6.712973e-02 -6.676707e-02 -6.679689e-02 -6.609874e-02 -6.622739e-02 -6.529571e-02 -6.557452e-02 -6.454593e-02 -6.497142e-02 -6.395632e-02 -6.447157e-02 -6.355842e-02 -6.406813e-02 -6.333159e-02 -6.372864e-02 -6.324795e-02 -6.343748e-02 -6.328602e-02 -6.318027e-02 -6.340464e-02 -6.293813e-02 -6.356355e-02 -6.271508e-02 -6.373512e-02 -6.252505e-02 -6.388760e-02 -6.238276e-02 -6.399465e-02 -6.231099e-02 -6.403790e-02 -6.232599e-02 -6.399804e-02 -6.243439e-02 -6.386976e-02 -6.264131e-02 -6.365942e-02 -6.292945e-02 -6.337157e-02 -6.326667e-02 -6.303786e-02 -6.363187e-02 -6.271510e-02 -6.399491e-02 -6.246309e-02 -6.432767e-02 -6.237035e-02 -6.464580e-02 -6.257271e-02 -6.504812e-02 -6.329292e-02 -6.583272e-02 -6.489321e-02 -6.775005e-02 -6.449701e-02 -5.267428e-02 -4.778053e-02 -4.343306e-02 -4.266854e-02 
-3.577563e-02 -3.650866e-02 -3.782100e-02 -3.938675e-02 -4.449221e-02 -4.279126e-02 -2.883278e-02 -3.941469e-02 -2.838144e-02 -3.507654e-02 -2.670153e-02 -2.955881e-02 -2.232391e-02 -2.522126e-02 -2.500146e-02 -2.534303e-02 -2.571991e-02 -2.537838e-02 -2.567557e-02 -2.537724e-02 -2.482728e-02 -2.461485e-02 -2.878496e-02 -2.921833e-02 -3.192877e-02 -3.138258e-02 -3.338438e-02 -3.238611e-02 -3.413195e-02 -3.289538e-02 -3.452990e-02 -3.320530e-02 -3.474466e-02 -3.346836e-02 -3.486431e-02 -3.374436e-02 -3.491927e-02 -3.404058e-02 -3.493708e-02 -3.437132e-02 -3.496320e-02 -3.475064e-02 -3.504018e-02 -3.519460e-02 -3.521757e-02 -3.572274e-02 -3.552370e-02 -3.632591e-02 -3.595575e-02 -3.699444e-02 -3.652081e-02 -3.773698e-02 -3.721383e-02 -3.852348e-02 -3.795682e-02 -3.923940e-02 -3.858215e-02 -3.967710e-02 -3.881769e-02 -3.954740e-02 -3.866057e-02 -3.913082e-02 -3.822188e-02 -3.840617e-02 -3.762453e-02 -3.763563e-02 -3.688601e-02 -3.672818e-02 -3.627811e-02 -3.590108e-02 -3.565119e-02 -3.522334e-02 -3.534962e-02 -3.485421e-02 -3.524135e-02 -3.466824e-02 -3.521266e-02 -3.459029e-02 -3.520544e-02 -3.459041e-02 -3.519198e-02 -3.465971e-02 -3.515110e-02 -3.478187e-02 -3.506478e-02 -3.495208e-02 -3.494694e-02 -3.517531e-02 -3.480970e-02 -3.542381e-02 -3.465192e-02 -3.566396e-02 -3.449635e-02 -3.587317e-02 -3.437352e-02 -3.601896e-02 -3.431064e-02 -3.607391e-02 -3.434250e-02 -3.602084e-02 -3.449214e-02 -3.584204e-02 -3.476668e-02 -3.554030e-02 -3.516832e-02 -3.513599e-02 -3.566526e-02 -3.464818e-02 -3.620140e-02 -3.413244e-02 -3.673099e-02 -3.367597e-02 -3.718967e-02 -3.336310e-02 -3.750364e-02 -3.330349e-02 -3.762693e-02 -3.365544e-02 -3.754034e-02 -3.474008e-02 -3.726839e-02 -3.755808e-02 -3.650032e-02 -4.992480e-02 -4.028999e-02 -4.012324e-02 -3.622015e-02 -3.680046e-02 
-9.215112e-03 -7.828038e-03 -5.564448e-03 3.153272e-04 6.873239e-03 2.033501e-02 2.597389e-02 2.001497e-02 2.460207e-02 1.987669e-02 2.310201e-02 1.992374e-02 2.180711e-02 2.237211e-02 2.521643e-02 2.568143e-02 2.555702e-02 2.679143e-02 2.462185e-02 2.620430e-02 2.182543e-02 2.265369e-02 2.037607e-02 2.280455e-02 2.061189e-02 2.285106e-02 2.092848e-02 2.277351e-02 2.128261e-02 2.262891e-02 2.163340e-02 2.245441e-02 2.196282e-02 2.228645e-02 2.226300e-02 2.214884e-02 2.252247e-02 2.205369e-02 2.273826e-02 2.201691e-02 2.292046e-02 2.205278e-02 2.308337e-02 2.217341e-02 2.324769e-02 2.238765e-02 2.342826e-02 2.268709e-02 2.362742e-02 2.305292e-02 2.384523e-02 2.345931e-02 2.406572e-02 2.385079e-02 2.423366e-02 2.413460e-02 2.427074e-02 2.423467e-02 2.419987e-02 2.425179e-02 2.401425e-02 2.399602e-02 2.371878e-02 2.371271e-02 2.336444e-02 2.328809e-02 2.310282e-02 2.299711e-02 2.283462e-02 2.277618e-02 2.283978e-02 2.263565e-02 2.270131e-02 2.237848e-02 2.255378e-02 2.215843e-02 2.247142e-02 2.202809e-02 2.244682e-02 2.197597e-02 2.245196e-02 2.197997e-02 2.246011e-02 2.201759e-02 2.245188e-02 2.207811e-02 2.242473e-02 2.216150e-02 2.237854e-02 2.226118e-02 2.230948e-02 2.237168e-02 2.222202e-02 2.249288e-02 2.212240e-02 2.262098e-02 2.201513e-02 2.275220e-02 2.190824e-02 2.288306e-02 2.180802e-02 2.300505e-02 2.171932e-02 2.311099e-02 2.165127e-02 2.319346e-02 2.160847e-02 2.323816e-02 2.159495e-02 2.323821e-02 2.162620e-02 2.319395e-02 2.171776e-02 2.310227e-02 2.188883e-02 2.296630e-02 2.218474e-02 2.279181e-02 2.272184e-02 2.256280e-02 2.387486e-02 2.209747e-02 2.724124e-02 1.289615e-02 4.273800e-03 -3.732019e-03 -6.654670e-03 -8.948823e-03 
-8.681366e-03 -7.108935e-03 -4.748376e-03 1.206619e-04 8.148485e-03 1.419691e-02 5.184683e-03 1.147342e-02 4.098260e-03 6.896982e-03 7.101409e-04 -9.795277e-04 -8.553381e-03 -1.397889e-02 -1.738752e-02 -1.970867e-02 -1.976216e-02 -2.086440e-02 -1.875585e-02 -1.742071e-02 -1.426700e-02 -6.731479e-03 -1.690948e-03 2.495720e-03 4.812679e-03 6.394058e-03 7.749688e-03 7.992639e-03 9.205068e-03 8.624522e-03 9.989980e-03 8.868600e-03 1.044938e-02 8.997969e-03 1.073549e-02 9.122735e-03 1.089640e-02 9.269336e-03 1.096105e-02 9.457620e-03 1.097239e-02 9.700511e-03 1.097109e-02 1.001025e-02 1.100849e-02 1.040331e-02 1.112057e-02 1.087237e-02 1.132395e-02 1.142402e-02 1.166824e-02 1.211104e-02 1.222517e-02 1.298435e-02 1.302466e-02 1.402508e-02 1.396783e-02 1.497359e-02 1.442883e-02 1.490017e-02 1.445423e-02 1.493540e-02 1.428154e-02 1.433819e-02 1.401281e-02 1.399825e-02 1.323493e-02 1.294429e-02 1.279470e-02 1.181822e-02 1.155586e-02 1.073308e-02 1.142246e-02 1.058508e-02 1.170921e-02 1.069643e-02 1.195771e-02 1.078623e-02 1.206617e-02 1.083816e-02 1.205402e-02 1.089711e-02 1.194989e-02 1.098961e-02 1.176859e-02 1.113605e-02 1.154262e-02 1.135344e-02 1.129359e-02 1.161714e-02 1.102503e-02 1.189216e-02 1.076307e-02 1.215255e-02 1.054088e-02 1.236085e-02 1.038774e-02 1.248401e-02 1.034061e-02 1.249912e-02 1.042445e-02 1.238250e-02 1.064788e-02 1.213122e-02 1.101450e-02 1.176016e-02 1.149328e-02 1.128267e-02 1.202870e-02 1.074923e-02 1.257625e-02 1.024135e-02 1.307173e-02 9.832904e-03 1.343902e-02 9.610807e-03 1.362570e-02 9.674652e-03 1.359953e-02 1.017719e-02 1.338436e-02 1.164105e-02 1.307565e-02 1.639249e-02 3.479359e-03 -1.382399e-03 -6.595026e-03 -7.492911e-03 
-2.023928e-03 -5.928759e-04 -3.776153e-04 1.482625e-03 2.846292e-03 1.927501e-03 -7.503540e-03 2.056139e-03 -5.155654e-03 1.707806e-03 -2.203922e-03 1.732797e-03 1.155530e-03 1.542832e-04 -2.330384e-03 -3.114998e-03 -2.655265e-03 -4.162525e-03 -1.788637e-03 -3.489393e-03 8.586021e-04 1.578079e-04 9.737619e-04 -8.968815e-04 9.566864e-05 -1.491683e-03 -2.282491e-04 -1.795713e-03 -3.237948e-04 -1.951747e-03 -3.300739e-04 -2.002486e-03 -3.124622e-04 -1.959679e-03 -2.996409e-04 -1.836220e-03 -3.088703e-04 -1.651486e-03 -3.398666e-04 -1.415431e-03 -3.728180e-04 -1.131541e-03 -3.787203e-04 -7.947306e-04 -3.173868e-04 -3.886919e-04 -1.471955e-04 1.075892e-04 1.766558e-04 7.385856e-04 7.240578e-04 1.582750e-03 1.576394e-03 2.709591e-03 2.751359e-03 4.081762e-03 4.110011e-03 5.409730e-03 4.537046e-03 4.747185e-03 3.939526e-03 4.039875e-03 2.954416e-03 2.515185e-03 1.720688e-03 1.421468e-03 1.853213e-04 -3.690607e-04 -6.758561e-04 -1.605150e-03 -1.882928e-03 -2.769410e-03 -2.162473e-03 -2.742115e-03 -1.601473e-03 -2.199020e-03 -9.649832e-04 -1.656033e-03 -4.742657e-04 -1.205936e-03 -1.617648e-04 -8.336036e-04 -6.042009e-06 -5.049179e-04 2.183198e-05 -1.900292e-04 -4.203973e-05 1.300372e-04 -1.664090e-04 4.484853e-04 -3.270675e-04 7.457702e-04 -4.909307e-04 9.996686e-04 -6.214734e-04 1.180481e-03 -6.844609e-04 1.259682e-03 -6.459934e-04 1.215909e-03 -4.821269e-04 1.034375e-03 -1.839920e-04 7.168402e-04 2.429694e-04 2.823374e-04 7.666446e-04 -2.383147e-04 1.332293e-03 -7.883486e-04 1.877033e-03 -1.289803e-03 2.320031e-03 -1.663462e-03 2.564600e-03 -1.829874e-03 2.502421e-03 -1.720937e-03 1.970666e-03 -1.284612e-03 6.021237e-04 -3.943017e-04 -2.972940e-03 5.523998e-03 -2.279508e-05 1.297362e-03 -1.849848e-03 -7.082052e-04 
