# vtk DataFile Version 2.0
Comment goes here
ASCII

DATASET STRUCTURED_POINTS
FIELD FieldData 1
TIME 1 1 double
0.30000000
DIMENSIONS    128   16   1

ORIGIN    0.000   0.000   0.000
SPACING   0.0078125 0.015625   1.000

POINT_DATA   2048
SCALARS uY double
LOOKUP_TABLE default

1.066576e-06 -1.548749e-06 1.708091e-06 -2.068360e-06 1.976542e-06 -3.563171e-06 1.633674e-06 -5.194992e-06 -1.358192e-06 -8.403394e-06 -6.008031e-06 -1.125560e-05 -9.845219e-06 -1.145918e-05 -1.616251e-05 -1.168163e-05 -1.933905e-05 -1.501209e-05 -2.025384e-05 -2.239243e-05 -1.825101e-05 -2.303889e-05 -6.849739e-06 -1.497773e-05 1.267207e-05 -1.230132e-05 2.183899e-05 -2.216595e-05 2.663605e-05 -2.959387e-05 3.281876e-05 -3.484816e-05 3.015672e-05 -4.960190e-05 9.001434e-06 -6.852216e-05 -1.871064e-05 -8.835634e-05 -6.232106e-05 -1.143146e-04 -1.145478e-04 -1.405847e-04 -1.763896e-04 -1.757400e-04 -2.554548e-04 -2.373710e-04 -3.631865e-04 -3.249401e-04 -4.733902e-04 -4.157515e-04 -5.788158e-04 -5.408950e-04 -7.329242e-04 -7.819354e-04 -1.035800e-03 -1.204926e-03 -1.233375e-03 -6.768617e-04 1.187877e-04 -2.742862e-04 -1.179206e-03 -5.560210e-04 2.236993e-04 -9.601092e-04 -1.415213e-03 7.825614e-05 -2.917102e-04 -1.643032e-03 -4.154064e-04 8.619589e-04 2.221611e-05 -1.392686e-04 1.281609e-03 1.630951e-03 1.890376e-03 1.845977e-03 1.744446e-03 1.549225e-03 1.266221e-03 1.073084e-03 7.918619e-04 6.788148e-04 4.612686e-04 4.224094e-04 2.674507e-04 2.627407e-04 1.509939e-04 1.597058e-04 9.209553e-05 1.032290e-04 6.915203e-05 6.547921e-05 5.321197e-05 3.026147e-05 3.689278e-05 2.585150e-06 2.940428e-05 -8.376479e-06 2.757938e-05 -1.611535e-05 1.979565e-05 -2.681571e-05 4.948509e-06 -3.582652e-05 -6.665749e-06 -3.308715e-05 -6.939009e-06 -2.099008e-05 -5.325345e-06 -1.175774e-05 -7.130559e-06 -1.820937e-06 -5.001819e-06 5.752261e-06 -1.065844e-05 1.365530e-06 -2.017920e-05 1.746650e-07 -1.534522e-05 7.293219e-06 -7.967499e-06 4.586131e-06 -5.880116e-06 -3.262807e-06 -2.212083e-06 -2.107659e-06 4.669278e-09 -1.590304e-06 
1.002352e-03 -6.614686e-05 1.937220e-03 3.851173e-04 4.888564e-03 2.873147e-04 -5.786255e-03 1.957037e-03 -1.415216e-03 8.390286e-05 -1.249236e-03 1.184817e-04 2.053558e-03 2.614999e-03 -7.255409e-04 1.325062e-03 4.398592e-04 -6.259923e-04 2.655708e-04 -1.294278e-03 -2.956108e-03 -1.799797e-03 2.543681e-04 6.686737e-04 6.556043e-04 2.616712e-04 5.270955e-04 1.081156e-05 4.677000e-04 -1.371245e-04 4.176837e-04 -2.103028e-04 3.707178e-04 -2.378273e-04 3.003511e-04 -2.126586e-04 2.331268e-04 -1.722161e-04 1.036693e-04 -1.493158e-04 -3.004973e-05 -9.768331e-05 -1.520618e-04 -4.287169e-05 -2.714941e-04 -4.204632e-05 -4.593881e-04 -1.513390e-04 -6.857118e-04 -3.570814e-04 -1.053646e-03 -9.278235e-04 -1.906610e-03 -2.290249e-03 -3.873685e-03 -4.915949e-03 -5.408289e-03 -2.286662e-03 3.832068e-03 -2.491837e-04 -7.989841e-03 -5.821202e-04 6.929502e-03 -4.197433e-03 -6.507189e-03 8.130769e-03 4.421568e-03 -8.070999e-03 4.370639e-03 1.416486e-02 5.833170e-05 -6.980638e-03 1.613343e-03 3.312735e-03 2.480737e-03 2.135439e-03 1.521507e-03 1.516654e-03 8.843159e-04 1.053469e-03 4.134251e-04 7.107076e-04 9.436161e-05 4.846460e-04 -4.675845e-05 3.284288e-04 -1.050374e-04 1.941347e-04 -6.504813e-05 8.398571e-05 1.700655e-05 -3.192258e-05 1.291217e-04 -1.545226e-04 2.162782e-04 -2.894933e-04 3.094474e-04 -3.539445e-04 3.926321e-04 -4.029313e-04 4.062373e-04 -4.148398e-04 3.566023e-04 -3.742268e-04 2.486064e-04 -2.519663e-04 1.042780e-04 -5.475749e-05 -9.348318e-05 1.839151e-04 -3.354479e-04 4.467305e-04 -5.941131e-04 6.734251e-04 -8.629499e-04 7.940435e-04 -1.066034e-03 7.260892e-04 -1.074648e-03 2.960516e-04 -6.619543e-04 -8.810406e-04 2.495034e-03 -3.317263e-03 -6.298975e-04 -7.624608e-04 4.063456e-04 -9.451661e-05 
1.638587e-03 -3.103193e-04 3.041997e-03 1.431838e-04 1.299052e-02 4.769618e-04 -1.635849e-02 6.833531e-03 -2.359385e-03 3.992245e-03 -8.607211e-04 6.436910e-03 2.353908e-03 -1.862053e-03 1.353148e-03 -1.255467e-03 9.136912e-04 -1.223305e-03 1.823205e-03 -1.984975e-03 3.429913e-03 -3.462145e-03 -4.597781e-03 -1.091696e-03 -1.964234e-03 -7.369810e-04 -8.975636e-04 -6.754441e-04 -2.497949e-04 -6.668754e-04 8.457455e-05 -6.409488e-04 2.603986e-04 -5.941847e-04 2.936998e-04 -4.611935e-04 2.936492e-04 -3.372351e-04 9.534764e-05 -3.015106e-04 -1.370791e-04 -1.966545e-04 -3.195924e-04 -4.978157e-05 -4.680628e-04 -5.034517e-06 -7.885366e-04 -2.132732e-04 -1.172903e-03 -5.233391e-04 -1.689285e-03 -1.316940e-03 -2.745572e-03 -2.960399e-03 -4.719157e-03 -5.228474e-03 -4.325244e-03 -1.383751e-03 2.011535e-03 2.179678e-03 -9.662350e-04 -1.356528e-04 4.157120e-03 -7.253506e-05 -2.575650e-03 2.908484e-03 2.579051e-03 -4.337541e-03 -2.859200e-05 2.808008e-03 -3.017774e-03 -2.520580e-03 5.339869e-03 5.057292e-03 3.674415e-03 2.741309e-03 1.729749e-03 1.694454e-03 7.625926e-04 1.239792e-03 2.641293e-04 9.543023e-04 -8.490223e-05 7.374582e-04 -1.997516e-04 5.465851e-04 -2.771236e-04 3.260898e-04 -1.587154e-04 1.626346e-04 3.120984e-05 -3.962343e-05 2.481692e-04 -2.921684e-04 4.082038e-04 -5.662368e-04 6.038715e-04 -6.680510e-04 7.971653e-04 -7.668980e-04 8.279511e-04 -8.114838e-04 7.240960e-04 -7.499618e-04 5.156070e-04 -5.114050e-04 2.388498e-04 -1.353178e-04 -1.678660e-04 3.295231e-04 -6.626743e-04 8.693563e-04 -1.192231e-03 1.351388e-03 -1.821203e-03 1.653088e-03 -2.355634e-03 1.767471e-03 -2.511325e-03 1.492102e-03 -1.714369e-03 -3.639650e-05 7.940225e-03 -1.048013e-02 -1.285128e-03 2.088764e-03 1.399835e-03 8.154225e-04 
1.548637e-03 -1.489753e-03 -2.362347e-04 -3.472664e-03 1.282586e-02 4.679197e-03 -8.905401e-03 2.334851e-03 -2.207708e-03 -1.023703e-04 -1.142021e-03 -2.435015e-03 -2.343509e-03 1.676185e-03 -1.575592e-03 1.339221e-03 -1.372798e-03 1.552439e-03 -1.911758e-03 2.058183e-03 -2.633437e-03 2.356898e-03 2.320204e-03 6.432971e-04 1.380926e-03 1.578994e-04 1.237610e-03 -3.030012e-04 1.167904e-03 -6.749441e-04 1.072570e-03 -8.531413e-04 1.035710e-03 -8.514689e-04 9.902584e-04 -6.803054e-04 8.854712e-04 -5.158628e-04 5.745893e-04 -4.322879e-04 1.822979e-04 -2.459531e-04 -3.956154e-05 1.313370e-04 -9.362804e-05 4.978626e-04 -2.154906e-04 6.519914e-04 -3.133718e-04 8.599112e-04 -8.500523e-05 1.278484e-03 5.182846e-04 1.888686e-03 1.565094e-03 2.757292e-03 2.254804e-03 1.191337e-03 -1.875132e-03 -1.042777e-03 2.506333e-03 -3.001361e-04 -3.237021e-03 -1.730520e-04 2.843506e-03 -4.415850e-03 -1.714215e-03 2.840655e-03 -3.182281e-04 -5.234902e-03 8.752827e-04 2.407785e-03 -1.216335e-03 -1.920371e-03 -1.315765e-03 -6.358359e-04 -9.393597e-04 -7.698443e-05 -8.160766e-04 3.555230e-04 -7.547642e-04 5.904968e-04 -7.437368e-04 6.461032e-04 -6.685095e-04 5.564504e-04 -6.692161e-04 3.251993e-04 -4.288477e-04 1.883540e-04 -3.982471e-05 -5.555463e-05 2.344415e-04 -4.863610e-04 5.254919e-04 -8.142803e-04 8.776119e-04 -9.895878e-04 1.189668e-03 -1.159515e-03 1.269174e-03 -1.300643e-03 1.132534e-03 -1.240086e-03 9.068558e-04 -9.029817e-04 5.545233e-04 -4.035014e-04 1.133960e-06 2.973090e-04 -6.221504e-04 1.170853e-03 -1.285131e-03 2.006225e-03 -2.179198e-03 2.641670e-03 -2.920427e-03 3.296552e-03 -3.164576e-03 3.591980e-03 -2.644044e-03 1.743654e-03 3.431317e-03 -2.696849e-02 1.263463e-04 8.201745e-03 4.206772e-03 2.729578e-03 
-8.222046e-04 -2.279655e-03 -5.881394e-03 -5.161540e-03 -1.654088e-03 1.025278e-02 1.317003e-02 -1.813792e-03 6.346986e-04 1.131180e-03 -4.222956e-04 2.417913e-03 2.468853e-06 4.700201e-04 -3.702724e-04 5.597617e-04 -5.582098e-04 5.764630e-04 -5.925876e-04 4.417762e-04 -3.539747e-04 -8.630270e-05 -2.657720e-03 1.344253e-04 -1.168542e-03 1.379956e-06 -4.209260e-04 -3.423131e-04 1.936511e-05 -6.634720e-04 2.842711e-04 -8.387074e-04 4.896661e-04 -8.371079e-04 6.543220e-04 -7.460540e-04 6.268432e-04 -6.561515e-04 4.955120e-04 -5.554029e-04 2.235220e-04 -4.397873e-04 3.312607e-05 -1.872628e-04 -6.856195e-05 8.625473e-05 -1.437285e-04 2.366766e-04 -3.413329e-04 2.034758e-04 -4.355379e-04 3.397287e-04 -3.544643e-04 2.596747e-04 -7.196691e-04 -4.261867e-04 -1.859903e-03 -9.323925e-04 1.514370e-03 6.251468e-04 -2.518084e-03 3.630684e-05 3.963703e-03 -1.653780e-03 -1.499803e-03 3.176218e-03 3.206047e-03 -3.250148e-03 2.185043e-03 5.504443e-03 5.088508e-04 -2.890252e-03 -1.650106e-03 -1.758081e-04 -9.097922e-04 -9.175910e-05 -7.108664e-04 2.094650e-04 -5.588077e-04 3.984010e-04 -5.907926e-04 5.135807e-04 -5.451731e-04 5.410992e-04 -5.232351e-04 4.635242e-04 -5.047918e-04 2.996712e-04 -3.601852e-04 1.918844e-04 -6.391653e-05 3.783683e-06 8.392189e-05 -3.509666e-04 3.457263e-04 -5.333130e-04 6.315619e-04 -7.374524e-04 8.417846e-04 -9.033700e-04 9.339885e-04 -1.059968e-03 8.771144e-04 -1.042523e-03 7.870885e-04 -8.447449e-04 5.648417e-04 -5.591768e-04 2.030740e-04 -9.241150e-05 -1.885266e-04 4.947660e-04 -6.412015e-04 1.048961e-03 -1.286942e-03 1.439262e-03 -1.866159e-03 1.827590e-03 -2.197289e-03 1.991956e-03 -2.151053e-03 1.793334e-03 -5.203832e-03 -1.731082e-02 5.811795e-03 7.756964e-03 3.856930e-03 2.034826e-03 
-6.511709e-04 -1.637612e-03 -4.156728e-03 -4.013449e-03 -7.267320e-03 4.214692e-03 1.227264e-02 -1.610163e-03 9.811351e-04 9.260788e-04 -5.420428e-04 4.699131e-03 2.131851e-03 3.472723e-04 -3.946663e-04 5.342645e-04 -5.622083e-04 5.940463e-04 -5.717929e-04 4.647106e-04 -2.642466e-04 -2.180808e-03 -3.325972e-03 -9.992939e-05 -1.212609e-03 -1.562754e-04 -3.779577e-04 -2.566935e-04 7.868167e-05 -3.809445e-04 3.193636e-04 -4.749477e-04 4.396204e-04 -4.981603e-04 4.985819e-04 -4.995067e-04 4.271007e-04 -4.842165e-04 3.312388e-04 -4.295029e-04 1.548692e-04 -4.028074e-04 -4.559667e-05 -3.808462e-04 -2.806090e-04 -4.152229e-04 -5.571902e-04 -6.101544e-04 -1.092041e-03 -1.234419e-03 -2.026906e-03 -2.374443e-03 -3.647182e-03 -4.669246e-03 -6.677880e-03 -7.469131e-03 -5.678561e-03 1.833406e-04 7.130101e-04 1.025715e-03 1.649128e-03 -1.007065e-03 8.246481e-04 3.202320e-04 -3.742918e-04 -1.182688e-03 3.576710e-04 -1.782888e-03 -1.921117e-03 -1.030902e-03 -3.670055e-03 7.335313e-05 7.827266e-03 8.944227e-03 6.133248e-03 5.037079e-03 3.329319e-03 3.032219e-03 1.810802e-03 1.871169e-03 8.703497e-04 1.222620e-03 3.946286e-04 8.468861e-04 1.170687e-04 5.883318e-04 4.645734e-06 3.896721e-04 -1.961954e-05 2.235215e-04 5.706986e-05 5.582837e-05 1.139156e-04 -1.431563e-04 2.489943e-04 -2.562427e-04 3.782251e-04 -4.101266e-04 4.553610e-04 -5.138382e-04 5.024119e-04 -5.831221e-04 4.868785e-04 -5.631654e-04 4.363542e-04 -4.693675e-04 3.033820e-04 -3.252715e-04 1.124778e-04 -1.033726e-04 -1.060373e-04 1.365414e-04 -3.719077e-04 3.222244e-04 -6.798747e-04 3.694025e-04 -9.493619e-04 2.488144e-04 -1.059877e-03 -3.981939e-05 -7.216586e-04 1.729761e-04 -3.524272e-03 -1.551645e-03 5.323553e-03 2.423131e-03 2.258394e-03 4.412031e-04 
-2.416046e-04 -4.844129e-04 -1.123085e-03 -8.186257e-04 -1.117307e-03 5.180909e-04 2.045678e-03 1.076897e-04 -6.670401e-05 2.104482e-04 -1.053000e-03 3.205521e-03 4.868395e-03 2.216761e-04 -6.450666e-05 2.128692e-04 -1.639371e-04 1.765613e-04 -2.035927e-04 8.118069e-05 -1.974569e-04 -2.292770e-03 -1.516579e-03 8.451126e-04 -8.263891e-04 1.061920e-04 -5.694401e-04 -1.457505e-04 -2.481822e-04 -2.736004e-04 -2.005026e-05 -3.494827e-04 1.199505e-04 -3.826003e-04 1.863210e-04 -3.885474e-04 1.738711e-04 -3.834244e-04 9.894117e-05 -3.758914e-04 -3.385768e-05 -3.797709e-04 -2.039308e-04 -4.093516e-04 -4.251499e-04 -5.205586e-04 -7.477188e-04 -8.070489e-04 -1.275995e-03 -1.402178e-03 -2.130699e-03 -2.434835e-03 -3.445831e-03 -4.038167e-03 -5.199029e-03 -5.388430e-03 -4.156072e-03 -5.804789e-04 -5.078570e-04 -1.693727e-03 -1.382177e-03 -1.473960e-03 -2.669293e-04 -1.573655e-03 -7.022850e-04 -3.998297e-04 1.413955e-05 -7.374561e-04 3.948027e-04 2.428293e-03 -7.703012e-04 -1.797636e-04 6.139076e-03 7.533486e-03 5.822514e-03 4.913100e-03 3.509619e-03 3.145360e-03 2.067358e-03 2.019186e-03 1.144796e-03 1.319488e-03 5.999478e-04 8.847257e-04 2.901265e-04 5.946075e-04 1.308474e-04 3.815865e-04 7.758160e-05 2.155615e-04 9.764944e-05 6.460538e-05 1.424769e-04 -8.460404e-05 2.157415e-04 -2.033396e-04 2.944330e-04 -3.052384e-04 3.525659e-04 -3.802348e-04 3.751894e-04 -4.217094e-04 3.532100e-04 -4.071231e-04 2.932097e-04 -3.326248e-04 1.856194e-04 -2.091091e-04 3.274670e-05 -4.167508e-05 -1.537166e-04 1.378989e-04 -3.733533e-04 2.789723e-04 -6.207531e-04 3.293362e-04 -8.385684e-04 2.650824e-04 -9.261643e-04 5.703227e-05 -7.310670e-04 -2.367939e-04 -2.889985e-05 -5.931380e-04 1.616444e-03 6.634456e-04 8.426369e-04 2.128740e-04 
-1.903498e-04 -3.019287e-04 -6.514963e-04 -3.992894e-04 -5.966534e-04 1.425640e-04 8.840061e-04 -1.460455e-04 -3.601329e-05 -7.317842e-07 -6.475422e-04 1.705098e-03 2.388819e-03 1.095429e-04 -6.268958e-05 1.346946e-04 -1.206932e-04 1.308368e-04 -1.288554e-04 7.577691e-05 -9.336881e-05 -9.266955e-04 -4.471051e-04 5.061465e-04 -3.611081e-04 8.417995e-07 -2.734221e-04 -1.238443e-04 -1.036997e-04 -1.652611e-04 1.337836e-05 -1.923546e-04 6.952644e-05 -2.159980e-04 7.502386e-05 -2.420379e-04 3.204910e-05 -2.750883e-04 -5.125209e-05 -3.225342e-04 -1.808101e-04 -4.027806e-04 -3.626912e-04 -5.375136e-04 -6.178973e-04 -7.666027e-04 -9.863444e-04 -1.152825e-03 -1.539966e-03 -1.775970e-03 -2.335378e-03 -2.646430e-03 -3.306741e-03 -3.550313e-03 -3.935641e-03 -3.151742e-03 -2.227796e-03 -1.112014e-03 1.572607e-03 1.713508e-03 -1.470443e-03 -6.974043e-05 3.015084e-03 -1.228272e-03 -2.380600e-03 1.897377e-03 2.644837e-04 -4.342551e-03 -8.306566e-04 7.372639e-04 -4.273734e-03 -2.737029e-03 3.627583e-03 5.360816e-03 4.789569e-03 4.441253e-03 3.598727e-03 3.266471e-03 2.498909e-03 2.274473e-03 1.643386e-03 1.546345e-03 1.053237e-03 1.043688e-03 6.665501e-04 6.990756e-04 4.258533e-04 4.586286e-04 2.840665e-04 2.851414e-04 2.099416e-04 1.526179e-04 1.740129e-04 4.639992e-05 1.668582e-04 -3.324149e-05 1.712475e-04 -9.784085e-05 1.738431e-04 -1.433118e-04 1.695942e-04 -1.682131e-04 1.533355e-04 -1.675046e-04 1.244277e-04 -1.426071e-04 7.895054e-05 -9.823530e-05 1.880241e-05 -3.941817e-05 -5.276384e-05 1.873043e-05 -1.350345e-04 5.701103e-05 -2.218205e-04 5.932521e-05 -2.928770e-04 2.911966e-05 -3.126122e-04 -2.146257e-06 -2.518826e-04 1.552568e-05 -1.470918e-04 3.292515e-05 5.711936e-04 2.114583e-04 3.250993e-04 -7.008191e-06 
-1.372694e-06 6.325261e-07 -1.307421e-06 -5.106882e-07 -1.201627e-06 -1.630047e-06 -8.658576e-07 -2.446219e-06 -2.987121e-07 -2.552283e-06 6.311830e-07 -2.549109e-06 1.235782e-06 1.909147e-06 1.324491e-06 1.765773e-06 1.661018e-06 2.556598e-06 3.024733e-06 4.102615e-06 4.826970e-06 -2.087862e-05 7.590809e-06 -2.329053e-05 1.151640e-05 -2.326526e-05 1.429440e-05 -2.775106e-05 1.303164e-05 -3.579464e-05 7.016605e-06 -4.722868e-05 -6.483248e-06 -6.385435e-05 -3.093597e-05 -8.846500e-05 -7.045852e-05 -1.247710e-04 -1.300456e-04 -1.796328e-04 -2.173125e-04 -2.628571e-04 -3.424054e-04 -3.905649e-04 -5.240742e-04 -5.883972e-04 -7.896361e-04 -8.904466e-04 -1.173668e-03 -1.330553e-03 -1.694011e-03 -1.895761e-03 -2.280111e-03 -2.429082e-03 -2.636328e-03 -2.316513e-03 -1.778429e-03 -1.000117e-03 1.421403e-05 3.637498e-04 -5.181743e-04 -8.133867e-04 1.257422e-04 -6.129417e-04 -1.035341e-03 -3.314850e-04 -2.907553e-04 -9.973817e-04 -4.348045e-04 -3.482194e-04 -8.590159e-04 7.495656e-04 2.830033e-03 3.310704e-03 3.195320e-03 3.025529e-03 2.642119e-03 2.376606e-03 1.962382e-03 1.718837e-03 1.372660e-03 1.187388e-03 9.309907e-04 7.981260e-04 6.220713e-04 5.253368e-04 4.137002e-04 3.394763e-04 2.777712e-04 2.159579e-04 1.902181e-04 1.326540e-04 1.309923e-04 7.501545e-05 9.037548e-05 3.651758e-05 6.190115e-05 1.076353e-05 4.054452e-05 -6.341908e-06 2.337043e-05 -1.758722e-05 9.292870e-06 -2.297901e-05 -2.586972e-07 -2.193701e-05 -4.506984e-06 -1.571791e-05 -4.929470e-06 -6.989609e-06 -3.463642e-06 1.896354e-06 -1.620353e-06 8.590953e-06 -1.659544e-06 1.108212e-05 -3.001000e-06 1.185660e-05 -2.831833e-06 1.186187e-05 -1.973163e-06 9.770528e-06 -1.779619e-06 6.142341e-06 -1.612574e-06 3.640307e-06 -1.478454e-06 1.919873e-06 
1.874629e-04 3.025642e-04 6.485674e-04 3.972764e-04 5.937914e-04 -1.473397e-04 -8.859525e-04 1.390247e-04 3.606947e-05 -5.677037e-06 6.519170e-04 -1.710584e-03 -2.381507e-03 -1.088382e-04 6.215969e-05 -1.341441e-04 1.214841e-04 -1.275772e-04 1.337513e-04 -6.808453e-05 1.036945e-04 8.934428e-04 4.535587e-04 -5.539054e-04 3.748992e-04 -5.062465e-05 2.921450e-04 6.235300e-05 1.164650e-04 8.280122e-05 -1.813385e-05 8.076946e-05 -1.074919e-04 6.536830e-05 -1.671686e-04 3.398271e-05 -2.126164e-04 -1.711904e-05 -2.596920e-04 -9.516933e-05 -3.223913e-04 -2.033939e-04 -4.124999e-04 -3.501604e-04 -5.462679e-04 -5.437252e-04 -7.339749e-04 -7.886508e-04 -9.805561e-04 -1.079494e-03 -1.265587e-03 -1.368915e-03 -1.500741e-03 -1.523732e-03 -1.505044e-03 -1.344407e-03 -1.053685e-03 -7.022835e-04 -2.362913e-04 -1.578918e-04 -4.148082e-04 -2.464544e-04 4.825584e-05 -3.716416e-04 -5.045241e-04 -1.001864e-04 -3.039616e-04 -7.048704e-04 -3.568341e-04 -6.778319e-06 -2.020726e-04 2.343035e-04 1.051013e-03 1.490243e-03 1.775557e-03 1.822442e-03 1.817996e-03 1.646577e-03 1.553385e-03 1.293417e-03 1.218859e-03 9.380280e-04 9.164468e-04 6.466019e-04 6.724772e-04 4.307454e-04 4.829598e-04 2.865567e-04 3.390723e-04 2.011845e-04 2.247345e-04 1.558047e-04 1.285729e-04 1.371786e-04 4.551316e-05 1.346467e-04 -2.358377e-05 1.407032e-04 -7.658024e-05 1.467170e-04 -1.115724e-04 1.454742e-04 -1.263937e-04 1.317401e-04 -1.184094e-04 1.065798e-04 -8.344181e-05 7.214119e-05 -2.533655e-05 2.974940e-05 4.940532e-05 -1.136173e-05 1.354412e-04 -3.664861e-05 2.224044e-04 -3.467382e-05 2.906199e-04 -3.594688e-06 3.095083e-04 2.632236e-05 2.495528e-04 4.553635e-06 1.444189e-04 -2.029288e-05 -5.739335e-04 -2.040949e-04 -3.279712e-04 1.055574e-05 
2.392730e-04 4.852435e-04 1.120391e-03 8.175776e-04 1.114035e-03 -5.225751e-04 -2.048365e-03 -1.154484e-04 6.463637e-05 -2.156735e-04 1.057250e-03 -3.208060e-03 -4.863351e-03 -2.202241e-04 6.388671e-05 -2.130857e-04 1.631503e-04 -1.744693e-04 2.076905e-04 -7.175214e-05 2.093563e-04 2.254419e-03 1.521903e-03 -8.880084e-04 8.544856e-04 -1.366061e-04 6.129875e-04 1.038436e-04 2.927220e-04 2.150050e-04 6.334938e-05 2.750539e-04 -8.994508e-05 2.858410e-04 -1.892341e-04 2.566718e-04 -2.367929e-04 2.053260e-04 -2.518480e-04 1.255247e-04 -2.556928e-04 2.345672e-05 -2.663286e-04 -1.071622e-04 -3.084282e-04 -2.657383e-04 -3.859528e-04 -4.391586e-04 -4.987943e-04 -6.194818e-04 -6.368548e-04 -7.776463e-04 -7.514543e-04 -8.487858e-04 -7.641821e-04 -7.655785e-04 -6.176090e-04 -5.390940e-04 -4.165257e-04 -3.759958e-04 -4.643321e-04 -4.246353e-04 -4.148039e-04 -3.798154e-04 -4.831399e-04 -2.616899e-04 -3.508110e-04 -2.263256e-04 -1.953665e-04 8.008982e-05 1.345960e-04 5.137743e-04 8.566837e-04 1.044922e-03 1.231372e-03 1.144119e-03 1.253722e-03 9.665762e-04 1.097947e-03 6.957722e-04 9.008934e-04 4.427662e-04 7.212714e-04 2.525770e-04 5.651327e-04 1.232823e-04 4.209370e-04 6.081448e-05 2.956576e-04 6.511267e-05 1.775143e-04 1.046445e-04 5.052354e-05 1.626253e-04 -7.968912e-05 2.286026e-04 -1.965177e-04 2.941828e-04 -2.865647e-04 3.455246e-04 -3.395606e-04 3.641915e-04 -3.519101e-04 3.359941e-04 -3.145269e-04 2.683974e-04 -2.096025e-04 1.679197e-04 -4.994807e-05 2.722901e-05 1.454537e-04 -1.251367e-04 3.778461e-04 -2.448367e-04 6.226937e-04 -3.003504e-04 8.263708e-04 -2.386197e-04 9.171872e-04 -2.567187e-05 7.290524e-04 2.619985e-04 2.542792e-05 6.014007e-04 -1.618751e-03 -6.584603e-04 -8.448180e-04 -2.103172e-04 
6.492086e-04 1.637684e-03 4.153681e-03 4.012102e-03 7.261097e-03 -4.221579e-03 -1.227882e-02 1.591657e-03 -9.902526e-04 -9.321488e-04 5.582780e-04 -4.691356e-03 -2.113321e-03 -3.574360e-04 3.825202e-04 -5.451331e-04 5.518638e-04 -5.976810e-04 5.710289e-04 -4.569857e-04 2.847273e-04 2.185202e-03 3.315622e-03 4.533051e-05 1.237406e-03 1.398955e-04 4.367217e-04 2.301735e-04 -2.166854e-05 3.289153e-04 -2.640354e-04 4.000634e-04 -3.972956e-04 4.168356e-04 -4.592675e-04 3.913464e-04 -4.488929e-04 3.464099e-04 -4.083834e-04 2.464214e-04 -3.619763e-04 1.384144e-04 -3.020547e-04 4.501187e-06 -2.841268e-04 -1.488717e-04 -2.877707e-04 -2.897976e-04 -3.149113e-04 -4.157214e-04 -3.698614e-04 -5.199262e-04 -4.172690e-04 -5.386951e-04 -3.999806e-04 -4.834754e-04 -3.578009e-04 -3.693988e-04 -2.751814e-04 -2.924383e-04 -4.091732e-04 -2.403014e-04 -2.562984e-04 -1.613422e-04 -3.198368e-04 4.069590e-05 -1.666800e-04 -4.816688e-05 -7.977271e-05 2.105123e-04 6.145769e-05 2.183218e-04 4.133446e-04 4.785202e-04 6.737248e-04 5.256547e-04 7.337366e-04 3.839061e-04 6.765567e-04 2.067531e-04 6.142848e-04 6.033071e-05 5.538898e-04 -3.445033e-05 4.827599e-04 -1.020761e-04 3.782302e-04 -1.024578e-04 2.918363e-04 -2.922221e-05 1.781054e-04 6.141783e-05 3.829111e-05 1.700913e-04 -1.268172e-04 2.727484e-04 -2.799980e-04 3.825538e-04 -3.978075e-04 4.680888e-04 -4.732534e-04 5.109098e-04 -4.981288e-04 4.779077e-04 -4.707556e-04 3.934860e-04 -3.407099e-04 2.739593e-04 -1.393266e-04 9.154967e-05 1.007457e-04 -1.125069e-04 3.872122e-04 -2.667279e-04 6.926279e-04 -3.312228e-04 9.387411e-04 -2.152696e-04 1.048767e-03 7.298114e-05 7.218631e-04 -1.410430e-04 3.519678e-03 1.556538e-03 -5.323787e-03 -2.419058e-03 -2.259656e-03 -4.398553e-04 
8.227667e-04 2.281757e-03 5.880036e-03 5.166143e-03 1.645868e-03 -1.025925e-02 -1.317135e-02 1.783482e-03 -6.569724e-04 -1.136140e-03 4.501937e-04 -2.393951e-03 1.182251e-05 -4.829452e-04 3.570215e-04 -5.776440e-04 5.350260e-04 -5.957949e-04 5.847369e-04 -4.196635e-04 4.050606e-04 4.379564e-05 2.542201e-03 -2.035822e-04 1.232316e-03 7.111620e-05 5.270108e-04 3.249922e-04 4.358824e-05 6.047734e-04 -1.721926e-04 8.058826e-04 -3.439398e-04 8.027095e-04 -5.210991e-04 6.751425e-04 -5.199900e-04 6.124263e-04 -4.155442e-04 4.803939e-04 -2.686178e-04 3.701536e-04 -8.713909e-05 2.198832e-04 8.822005e-06 2.635140e-05 8.400828e-05 -8.731803e-05 1.503316e-04 -1.792823e-04 1.407878e-04 -2.317096e-04 1.410346e-04 -1.541984e-04 1.929875e-04 -3.918219e-05 1.478354e-04 3.332177e-05 6.124003e-05 -1.084142e-05 -2.875784e-04 -8.423470e-05 -3.020016e-04 2.114956e-05 -2.889156e-04 3.038866e-04 -1.525684e-04 1.420654e-04 -2.280238e-04 1.822373e-04 -1.727233e-04 6.201675e-05 4.141833e-05 6.047334e-05 1.729557e-04 -7.719119e-05 2.546725e-04 -2.625077e-04 3.244681e-04 -4.032102e-04 4.089356e-04 -4.863413e-04 5.006756e-04 -4.619911e-04 5.343660e-04 -4.779064e-04 4.134663e-04 -4.335934e-04 3.150686e-04 -1.915205e-04 2.178691e-04 3.571332e-05 -1.591008e-05 2.437245e-04 -3.098893e-04 4.525273e-04 -5.744211e-04 6.591121e-04 -7.818826e-04 8.528410e-04 -8.842629e-04 9.509519e-04 -9.325431e-04 8.664731e-04 -9.072888e-04 6.958204e-04 -6.359894e-04 4.994271e-04 -2.311031e-04 7.278348e-05 1.609200e-04 -4.507181e-04 7.153505e-04 -8.949016e-04 1.338806e-03 -1.415157e-03 1.774109e-03 -1.834193e-03 2.168881e-03 -1.905935e-03 2.184022e-03 -1.724629e-03 5.183888e-03 1.725883e-02 -5.805948e-03 -7.753158e-03 -3.852970e-03 -2.033590e-03 
-1.545513e-03 1.491418e-03 2.394159e-04 3.479405e-03 -1.282486e-02 -4.684894e-03 8.918187e-03 -2.354581e-03 2.193919e-03 8.709103e-05 1.146403e-03 2.426650e-03 2.329015e-03 -1.709675e-03 1.553040e-03 -1.349077e-03 1.366810e-03 -1.534029e-03 1.911325e-03 -2.020313e-03 2.500551e-03 -2.523191e-03 -2.451074e-03 -6.848055e-04 -1.269137e-03 -4.969158e-05 -1.121417e-03 2.615223e-04 -1.112362e-03 6.010971e-04 -9.241200e-04 8.564141e-04 -8.144066e-04 8.199813e-04 -8.521702e-04 5.917854e-04 -7.375643e-04 4.673283e-04 -4.991260e-04 3.280742e-04 -2.093897e-04 2.008121e-04 5.210212e-05 2.922401e-05 2.017884e-04 -1.954727e-04 2.894795e-04 -3.144876e-04 3.590040e-04 -3.968425e-04 3.440331e-04 -3.762094e-04 3.609026e-04 -2.167533e-04 3.880658e-04 -7.723761e-06 3.264243e-04 1.478356e-04 1.426005e-04 1.632398e-04 -1.283677e-04 1.356456e-04 -3.528850e-04 3.271245e-04 -1.218100e-04 6.067262e-04 -8.578301e-05 5.618439e-04 -2.443257e-04 2.474413e-04 -2.507818e-04 1.805049e-04 -1.781541e-04 -1.018476e-04 -1.447997e-04 -3.675883e-04 4.867075e-06 -5.148419e-04 2.212196e-04 -6.189947e-04 3.841500e-04 -6.843445e-04 5.343260e-04 -6.124357e-04 5.954511e-04 -5.791616e-04 4.514506e-04 -5.133590e-04 2.723993e-04 -1.935561e-04 1.505440e-04 1.252699e-04 -1.715910e-04 3.895399e-04 -5.398117e-04 6.759701e-04 -8.592370e-04 9.125225e-04 -1.105791e-03 1.133482e-03 -1.183094e-03 1.202148e-03 -1.183855e-03 1.032481e-03 -1.053417e-03 7.288190e-04 -6.157046e-04 3.624355e-04 -4.181623e-06 -3.250419e-04 5.755670e-04 -1.135188e-03 1.373285e-03 -1.834736e-03 2.225432e-03 -2.651368e-03 2.758876e-03 -3.351369e-03 3.119972e-03 -3.476676e-03 2.690231e-03 -1.667517e-03 -3.458752e-03 2.687479e-02 -1.234542e-04 -8.204268e-03 -4.200772e-03 -2.731050e-03 
-1.636015e-03 3.086858e-04 -3.037701e-03 -1.435947e-04 -1.298385e-02 -4.835723e-04 1.637137e-02 -6.837594e-03 2.363016e-03 -4.011731e-03 8.446209e-04 -6.470156e-03 -2.369636e-03 1.838265e-03 -1.392603e-03 1.242160e-03 -9.577164e-04 1.207950e-03 -1.876766e-03 1.924972e-03 -3.516197e-03 3.368681e-03 4.561189e-03 1.089016e-03 2.033263e-03 7.629420e-04 9.591051e-04 6.214127e-04 2.980719e-04 5.994092e-04 1.649791e-05 6.097255e-04 -1.248335e-04 5.137038e-04 -2.473970e-04 3.308252e-04 -2.633427e-04 1.914452e-04 -1.759715e-04 8.800889e-05 -3.419899e-05 -2.205756e-05 7.244620e-05 -1.456711e-04 1.382561e-04 -2.836726e-04 1.567675e-04 -3.701927e-04 1.648096e-04 -4.088958e-04 1.618645e-04 -3.434459e-04 1.932838e-04 -2.144966e-04 1.926992e-04 -6.344007e-05 1.628127e-04 7.709683e-05 5.126765e-05 1.092777e-04 -7.549224e-05 6.520629e-05 -3.492586e-04 7.500753e-05 -3.030329e-04 8.156141e-05 -4.040516e-04 8.830915e-05 -4.422961e-04 -5.113067e-05 -2.392348e-04 2.210216e-04 8.209290e-05 2.691889e-04 2.939050e-04 2.171687e-04 4.520266e-04 1.384005e-04 5.568164e-04 2.790994e-06 5.670249e-04 -1.267034e-04 5.613294e-04 -1.711126e-04 5.187968e-04 -1.798677e-04 3.975369e-04 -1.602871e-04 2.228638e-04 -1.541678e-05 8.960804e-05 1.661532e-04 -1.367939e-04 3.248507e-04 -3.678970e-04 5.056563e-04 -5.674837e-04 6.381226e-04 -7.188508e-04 7.462769e-04 -7.596776e-04 7.519816e-04 -7.271497e-04 6.309440e-04 -5.747798e-04 4.078577e-04 -2.607934e-04 1.046797e-04 1.707791e-04 -3.553828e-04 6.324608e-04 -8.636379e-04 1.212906e-03 -1.292036e-03 1.815007e-03 -1.663003e-03 2.258783e-03 -1.797445e-03 2.474212e-03 -1.434679e-03 1.721366e-03 6.754591e-05 -7.956510e-03 1.043587e-02 1.282389e-03 -2.094135e-03 -1.398022e-03 -8.187382e-04 
-1.000125e-03 6.422803e-05 -1.933805e-03 -3.876250e-04 -4.884024e-03 -2.927401e-04 5.791160e-03 -1.961509e-03 1.415667e-03 -9.667681e-05 1.234960e-03 -1.379411e-04 -2.070342e-03 -2.626222e-03 6.914787e-04 -1.337941e-03 -4.687302e-04 5.887790e-04 -2.913134e-04 1.211596e-03 2.897559e-03 1.765155e-03 -2.677544e-04 -6.777510e-04 -6.208857e-04 -2.712654e-04 -4.738868e-04 -4.540695e-05 -3.988558e-04 9.310982e-05 -3.230192e-04 1.689771e-04 -2.659841e-04 1.696861e-04 -2.384654e-04 1.171569e-04 -2.055107e-04 5.472853e-05 -1.552705e-04 -1.376697e-06 -9.802699e-05 -6.877660e-05 -6.951796e-05 -1.502692e-04 -7.324652e-05 -2.511596e-04 -1.232843e-04 -3.596093e-04 -2.037166e-04 -4.664273e-04 -3.133061e-04 -5.784281e-04 -4.760430e-04 -7.573621e-04 -7.376876e-04 -9.825904e-04 -8.886495e-04 -8.376079e-04 -4.686812e-04 -6.423121e-04 -1.166463e-03 -6.070748e-04 -2.541749e-04 -5.155135e-04 -7.827252e-04 4.765549e-04 1.570633e-04 -1.444707e-04 4.435753e-04 1.297785e-03 4.505603e-04 3.266649e-04 8.952116e-04 1.018089e-03 1.167935e-03 1.039092e-03 1.064547e-03 7.747957e-04 8.173567e-04 4.417959e-04 5.759013e-04 1.841523e-04 4.115573e-04 3.851033e-05 3.025759e-04 -2.524480e-05 2.088143e-04 -3.825164e-05 1.108909e-04 7.102844e-06 2.795363e-05 8.394698e-05 -7.828592e-05 1.601355e-04 -1.881153e-04 2.411247e-04 -2.840489e-04 3.054068e-04 -3.534314e-04 3.484884e-04 -3.780647e-04 3.425380e-04 -3.598932e-04 2.819179e-04 -2.777005e-04 1.699024e-04 -1.265178e-04 8.194710e-06 8.043748e-05 -2.104053e-04 3.169568e-04 -4.484144e-04 5.858060e-04 -6.562299e-04 8.414412e-04 -7.890157e-04 1.018820e-03 -7.260386e-04 1.043150e-03 -2.726700e-04 6.477536e-04 8.937624e-04 -2.506274e-03 3.308113e-03 6.258393e-04 7.583872e-04 -4.060099e-04 9.198369e-05 
