# vtk DataFile Version 2.0
Comment goes here
ASCII

DATASET STRUCTURED_POINTS
FIELD FieldData 1
TIME 1 1 double
0.25000000
DIMENSIONS    128   16   1

ORIGIN    0.000   0.000   0.000
SPACING   0.0078125 0.015625   1.000

POINT_DATA   2048
SCALARS fMag double
LOOKUP_TABLE default

0 0 0 0 0 0 0 0 0 0 0 0 0 0 0 0 0 0 0 0 0 0 0 0 0 0 0 0 0 0 0 0 0 0 0 0 0 0 0 0 0 0 0 0 0 0 0 0 0 0 0 0 0 0 0 0 0 0 0 0 0 0 0 0 0 0 0 0 0 0 0 0 0 0 0 0 0 0 0 0 0 0 0 0 0 0 0 0 0 0 0 0 0 0 0 0 0 0 0 0 0 0 0 0 0 0 0 0 0 0 0 0 0 0 0 0 0 0 0 0 0 0 0 0 0 0 0 0 
0 0 0 0 0 0 0 0 0 0 0 0 0 0 0 0 0 0 0 0 0 0 0 0 0 0 0 0 0 0 0 0 0 0 0 0 0 0 0 0 0 0 0 0 0 0 0 0 0 0 0 0 0 0 0 0 0 0 0 0 0 0 0 0 0 0 0 0 0 0 0 0 0 0 0 0 0 0 0 0 0 0 0 0 0 0 0 0 0 0 0 0 0 0 0 0 0 0 0 0 0 0 0 0 0 0 0 0 0 0 0 0 0 0 0 0 0 0 0 0 0 0 0 0 0 0 0 0 
0 0 0 0 0 1.141385e+00 3.424930e+00 2.052290e+00 2.875271e+00 2.457125e+00 3.535580e+00 2.826981e+00 4.037763e+00 5.625574e+00 8.031261e+00 1.011996e+01 1.501198e+01 1.958488e+01 2.408638e+01 2.835843e+01 3.474866e+01 3.537477e+01 3.509379e+01 3.585217e+01 3.567296e+01 3.570059e+01 3.461268e+01 3.370173e+01 3.247957e+01 3.185009e+01 3.139780e+01 3.146998e+01 3.173942e+01 3.214033e+01 3.252664e+01 3.243119e+01 3.186436e+01 3.072571e+01 2.969219e+01 2.873711e+01 2.846280e+01 2.854225e+01 2.901868e+01 2.923232e+01 2.914113e+01 2.837422e+01 2.738510e+01 2.646581e+01 2.604949e+01 2.607733e+01 2.639690e+01 2.665007e+01 2.655444e+01 2.589902e+01 2.482454e+01 2.376548e+01 2.306004e+01 2.302497e+01 2.452612e+01 2.638786e+01 2.689227e+01 2.568854e+01 2.332464e+01 2.102432e+01 1.983252e+01 1.973903e+01 2.057526e+01 2.192058e+01 2.269721e+01 2.299175e+01 2.282326e+01 2.180323e+01 2.012964e+01 1.876695e+01 1.725322e+01 1.633932e+01 1.567396e+01 1.560088e+01 1.565184e+01 1.606140e+01 1.627958e+01 1.652036e+01 1.651482e+01 1.630365e+01 1.581457e+01 1.513579e+01 1.449583e+01 1.362075e+01 1.284438e+01 1.196153e+01 1.162705e+01 1.126067e+01 1.147590e+01 1.144473e+01 1.172687e+01 1.148487e+01 1.152714e+01 1.097425e+01 1.045935e+01 9.479090e+00 8.823630e+00 8.124187e+00 7.854438e+00 7.946372e+00 8.232836e+00 8.622386e+00 8.356523e+00 7.794712e+00 6.257816e+00 5.339830e+00 4.195223e+00 4.308780e+00 4.082327e+00 4.971061e+00 4.919432e+00 5.396758e+00 4.618624e+00 4.250459e+00 3.103763e+00 2.628774e+00 2.034983e+00 2.176548e+00 2.804524e+00 2.577542e-01 0 0 0 0 
0 0 0 0 0 3.356092e+00 1.007160e+01 6.032133e+00 8.453127e+00 7.224631e+00 1.039498e+01 8.308928e+00 1.187003e+01 1.654700e+01 2.362782e+01 2.977218e+01 4.416339e+01 5.761925e+01 7.086513e+01 8.343851e+01 1.022477e+02 1.040905e+02 1.032633e+02 1.054956e+02 1.049679e+02 1.050492e+02 1.018466e+02 9.916512e+01 9.556769e+01 9.371481e+01 9.238353e+01 9.259603e+01 9.338911e+01 9.456921e+01 9.570627e+01 9.542532e+01 9.375686e+01 9.040525e+01 8.736323e+01 8.455211e+01 8.374472e+01 8.397855e+01 8.538080e+01 8.600959e+01 8.574122e+01 8.348401e+01 8.057283e+01 7.786725e+01 7.664197e+01 7.672391e+01 7.766443e+01 7.840951e+01 7.812809e+01 7.619916e+01 7.303691e+01 6.992017e+01 6.807264e+01 6.876027e+01 7.216981e+01 7.572509e+01 7.747575e+01 7.550775e+01 7.051482e+01 6.478978e+01 6.065461e+01 5.904924e+01 6.009756e+01 6.312157e+01 6.639199e+01 6.797525e+01 6.667157e+01 6.372174e+01 5.917957e+01 5.521076e+01 5.075659e+01 4.806747e+01 4.610974e+01 4.589473e+01 4.604470e+01 4.724985e+01 4.789183e+01 4.860034e+01 4.858403e+01 4.796270e+01 4.652365e+01 4.452640e+01 4.264348e+01 4.006870e+01 3.778451e+01 3.518700e+01 3.420291e+01 3.312498e+01 3.375819e+01 3.366650e+01 3.449663e+01 3.378473e+01 3.390922e+01 3.228274e+01 3.076797e+01 2.788430e+01 2.595602e+01 2.389852e+01 2.310496e+01 2.337538e+01 2.421811e+01 2.536397e+01 2.458168e+01 2.292890e+01 1.840748e+01 1.570699e+01 1.233994e+01 1.267396e+01 1.200800e+01 1.462259e+01 1.447109e+01 1.587583e+01 1.358777e+01 1.250607e+01 9.136023e+00 7.745486e+00 6.016771e+00 6.428246e+00 8.256425e+00 7.580467e-01 0 0 0 0 
0 0 0 0 0 2.317800e+00 6.956207e+00 4.164804e+00 5.837343e+00 4.989400e+00 7.178579e+00 5.736683e+00 8.196533e+00 5.446705e+01 7.202498e+01 6.076893e+01 7.381155e+01 7.210381e+01 8.082007e+01 9.001131e+01 9.032857e+01 7.192408e+01 7.135232e+01 7.289517e+01 7.253039e+01 7.258653e+01 7.037299e+01 6.851963e+01 6.603329e+01 6.475268e+01 6.383261e+01 6.397949e+01 6.452761e+01 6.534323e+01 6.612909e+01 6.593490e+01 6.478177e+01 6.246535e+01 6.036295e+01 5.842014e+01 5.786214e+01 5.802374e+01 5.899284e+01 5.942739e+01 5.924192e+01 5.768197e+01 5.567008e+01 5.380031e+01 5.295355e+01 5.301017e+01 5.366015e+01 5.417505e+01 5.398057e+01 5.264755e+01 5.046223e+01 4.830841e+01 4.701834e+01 4.679439e+01 4.726023e+01 4.787118e+01 4.824714e+01 4.841189e+01 4.774936e+01 4.440647e+01 4.030349e+01 3.759803e+01 3.717376e+01 3.816919e+01 4.011481e+01 4.253899e+01 4.318415e+01 4.277612e+01 4.071486e+01 3.814398e+01 3.506624e+01 3.320814e+01 3.185545e+01 3.170689e+01 3.181052e+01 3.264325e+01 3.308684e+01 3.357641e+01 3.356515e+01 3.313583e+01 3.214153e+01 3.076150e+01 2.946052e+01 2.768149e+01 2.610329e+01 2.430861e+01 2.362868e+01 2.288393e+01 2.332142e+01 2.325807e+01 2.383164e+01 2.333983e+01 2.342589e+01 2.230223e+01 2.125572e+01 1.926353e+01 1.793134e+01 1.650995e+01 1.596171e+01 1.614852e+01 1.673073e+01 1.752230e+01 1.698177e+01 1.583990e+01 1.271614e+01 1.085050e+01 8.524421e+00 8.755159e+00 8.295174e+00 1.010155e+01 9.997066e+00 1.096781e+01 9.387597e+00 8.640947e+00 6.314320e+00 5.356942e+00 4.171411e+00 4.453285e+00 5.706984e+00 5.236005e-01 0 0 0 0 
0 0 0 0 0 1.030924e-01 3.095335e-01 1.849612e-01 2.594861e-01 2.218941e-01 3.191790e-01 2.547363e-01 3.642657e-01 6.064202e+01 6.618677e+01 6.213892e+01 6.455883e+01 6.396942e+01 6.263358e+01 6.601728e+01 6.095747e+01 3.208394e+00 3.182839e+00 3.251758e+00 3.235442e+00 3.237943e+00 3.139034e+00 3.056231e+00 2.945168e+00 2.887965e+00 2.846874e+00 2.853437e+00 2.877919e+00 2.914354e+00 2.949453e+00 2.940776e+00 2.889272e+00 2.785802e+00 2.691909e+00 2.605146e+00 2.580226e+00 2.587442e+00 2.630715e+00 2.650119e+00 2.641838e+00 2.572183e+00 2.482351e+00 2.398874e+00 2.361070e+00 2.363598e+00 2.392616e+00 2.415602e+00 2.406920e+00 2.347414e+00 2.249860e+00 2.153726e+00 1.883212e+00 1.639644e-01 1.909732e+00 2.512683e+00 3.750101e+00 3.145444e+00 1.396746e+00 1.358188e+00 2.207373e+00 3.328131e+00 3.578312e+00 3.856101e+00 4.307283e+00 3.068816e+00 1.729389e+00 3.016384e-01 1.527451e+00 1.700163e+00 1.562869e+00 1.479988e+00 1.419660e+00 1.413036e+00 1.417661e+00 1.454807e+00 1.474594e+00 1.496434e+00 1.495933e+00 1.476783e+00 1.432441e+00 1.370888e+00 1.312872e+00 1.233534e+00 1.163166e+00 1.083143e+00 1.052827e+00 1.019624e+00 1.039127e+00 1.036305e+00 1.061883e+00 1.039968e+00 1.043818e+00 9.937430e-01 9.471013e-01 8.583267e-01 7.989512e-01 7.356213e-01 7.111876e-01 7.195091e-01 7.454571e-01 7.807179e-01 7.566089e-01 7.057154e-01 5.664814e-01 4.833439e-01 3.797009e-01 3.899784e-01 3.695054e-01 4.500209e-01 4.454117e-01 4.887399e-01 4.184478e-01 3.853404e-01 2.820606e-01 2.402296e-01 1.896228e-01 2.015877e-01 2.550828e-01 2.330801e-02 0 0 0 0 
0 0 0 0 0 0 0 0 0 0 0 0 0 6.617595e+01 7.185626e+01 6.774310e+01 6.984376e+01 6.989832e+01 6.757641e+01 7.217771e+01 6.571180e+01 0 0 0 0 0 0 0 0 0 0 0 0 0 0 0 0 0 0 0 0 0 0 0 0 0 0 0 0 0 0 0 0 0 0 0 1.142696e-01 9.792617e-01 1.425086e+00 1.201669e+00 1.436003e+00 1.329827e+00 1.063367e+00 1.001495e+00 9.035806e-01 9.820092e-01 9.233746e-01 7.949153e-01 7.206880e-01 4.782476e-01 5.298159e-01 4.089346e-01 5.873941e-02 0 0 0 0 0 0 0 0 0 0 0 0 0 0 0 0 0 0 0 0 0 0 0 0 0 0 0 0 0 0 0 0 0 0 0 0 0 0 0 0 0 0 0 0 0 0 0 0 0 0 0 0 0 0 0 
0 0 0 0 0 0 0 0 0 0 0 0 0 6.552512e+01 6.788986e+01 6.585140e+01 6.685372e+01 6.667503e+01 6.601227e+01 6.773236e+01 6.567685e+01 0 0 0 0 0 0 0 0 0 0 0 0 0 0 0 0 0 0 0 0 0 0 0 0 0 0 0 0 0 0 0 0 0 0 0 6.076073e-02 6.942854e-01 1.091129e+00 1.036634e+00 1.302256e+00 1.205771e+00 5.906992e-01 3.983080e-01 6.983592e-01 8.714660e-01 8.680338e-01 1.011478e+00 1.340788e+00 1.231615e+00 6.287983e-01 1.539569e-01 2.268991e-02 0 0 0 0 0 0 0 0 0 0 0 0 0 0 0 0 0 0 0 0 0 0 0 0 0 0 0 0 0 0 0 0 0 0 0 0 0 0 0 0 0 0 0 0 0 0 0 0 0 0 0 0 0 0 0 
0 0 0 0 0 0 0 0 0 0 0 0 0 6.922488e+01 7.219034e+01 6.984179e+01 7.086680e+01 7.105629e+01 6.959855e+01 7.239618e+01 6.890907e+01 0 0 0 0 0 0 0 0 0 0 0 0 0 0 0 0 0 0 0 0 0 0 0 0 0 0 0 0 0 0 0 0 0 0 0 8.926421e-02 1.037089e+00 1.567436e+00 1.308865e+00 1.671653e+00 1.769348e+00 1.525942e+00 1.452718e+00 1.581951e+00 1.770149e+00 1.553034e+00 1.465526e+00 1.645770e+00 1.494355e+00 1.333908e+00 8.027528e-01 1.318448e-01 0 0 0 0 0 0 0 0 0 0 0 0 0 0 0 0 0 0 0 0 0 0 0 0 0 0 0 0 0 0 0 0 0 0 0 0 0 0 0 0 0 0 0 0 0 0 0 0 0 0 0 0 0 0 0 
0 0 0 0 0 0 0 0 0 0 0 0 0 6.552095e+01 6.787807e+01 6.586009e+01 6.684494e+01 6.669018e+01 6.599070e+01 6.773620e+01 6.563733e+01 0 0 0 0 0 0 0 0 0 0 0 0 0 0 0 0 0 0 0 0 0 0 0 0 0 0 0 0 0 0 0 0 0 0 0 1.895572e-02 2.209065e-01 3.917537e-01 4.841392e-01 5.674763e-01 4.552422e-01 2.454498e-01 1.053690e-01 1.035983e-01 2.759600e-01 4.229671e-01 5.357432e-01 5.362234e-01 3.625600e-01 2.982578e-01 1.732280e-01 2.846517e-02 0 0 0 0 0 0 0 0 0 0 0 0 0 0 0 0 0 0 0 0 0 0 0 0 0 0 0 0 0 0 0 0 0 0 0 0 0 0 0 0 0 0 0 0 0 0 0 0 0 0 0 0 0 0 0 
0 0 0 0 0 0 0 0 0 0 0 0 0 6.619306e+01 7.187985e+01 6.777337e+01 6.986675e+01 6.991296e+01 6.753128e+01 7.210545e+01 6.567524e+01 0 0 0 0 0 0 0 0 0 0 0 0 0 0 0 0 0 0 0 0 0 0 0 0 0 0 0 0 0 0 0 0 0 0 0 0 0 0 0 0 0 0 0 0 0 0 0 0 0 0 0 0 0 0 0 0 0 0 0 0 0 0 0 0 0 0 0 0 0 0 0 0 0 0 0 0 0 0 0 0 0 0 0 0 0 0 0 0 0 0 0 0 0 0 0 0 0 0 0 0 0 0 0 0 0 0 0 
0 0 0 0 0 1.023344e-01 3.067787e-01 1.715292e-01 2.327604e-01 1.979635e-01 3.075416e-01 2.594162e-01 3.781685e-01 6.061246e+01 6.619806e+01 6.219273e+01 6.459359e+01 6.409705e+01 6.257647e+01 6.597807e+01 6.064666e+01 3.224738e+00 3.181558e+00 3.222142e+00 3.187191e+00 3.192402e+00 3.117875e+00 3.067718e+00 2.984923e+00 2.951637e+00 2.926330e+00 2.930305e+00 2.922651e+00 2.896550e+00 2.856009e+00 2.809506e+00 2.796293e+00 2.788986e+00 2.795372e+00 2.766889e+00 2.728818e+00 2.651190e+00 2.587127e+00 2.529554e+00 2.515460e+00 2.516407e+00 2.528996e+00 2.502558e+00 2.446551e+00 2.381148e+00 2.336970e+00 2.314108e+00 2.307644e+00 2.305590e+00 2.289032e+00 2.257809e+00 2.217357e+00 2.178595e+00 2.136494e+00 2.096818e+00 2.054947e+00 2.007829e+00 1.954146e+00 1.914605e+00 1.895889e+00 1.889102e+00 1.868158e+00 1.831950e+00 1.781105e+00 1.745273e+00 1.723914e+00 1.717649e+00 1.685651e+00 1.651473e+00 1.607926e+00 1.583738e+00 1.563986e+00 1.575347e+00 1.563550e+00 1.530759e+00 1.461731e+00 1.392682e+00 1.328063e+00 1.303071e+00 1.304805e+00 1.292552e+00 1.254613e+00 1.190437e+00 1.148819e+00 1.114615e+00 1.130529e+00 1.123251e+00 1.122700e+00 1.064743e+00 1.025544e+00 9.495120e-01 9.274343e-01 8.962645e-01 9.053543e-01 8.691622e-01 8.290875e-01 7.531486e-01 7.015131e-01 6.774935e-01 6.702151e-01 6.734525e-01 6.343193e-01 6.105370e-01 5.351887e-01 5.182588e-01 4.638266e-01 5.077802e-01 4.891447e-01 5.235177e-01 4.370580e-01 3.957212e-01 2.707261e-01 2.381554e-01 1.877549e-01 2.137977e-01 2.014622e-01 2.262249e-01 2.657035e-01 2.319534e-02 0 0 0 0 
0 0 0 0 0 2.300743e+00 6.893759e+00 3.860679e+00 5.236808e+00 4.451928e+00 6.917207e+00 5.841648e+00 8.509159e+00 5.452209e+01 7.216065e+01 6.096272e+01 7.411161e+01 7.233511e+01 8.054545e+01 8.985449e+01 9.090126e+01 7.228985e+01 7.132375e+01 7.223237e+01 7.145049e+01 7.156731e+01 6.989940e+01 6.877676e+01 6.692329e+01 6.617814e+01 6.561149e+01 6.570040e+01 6.552901e+01 6.494471e+01 6.403702e+01 6.299597e+01 6.270019e+01 6.253664e+01 6.267969e+01 6.204201e+01 6.118957e+01 5.945131e+01 5.801670e+01 5.672732e+01 5.641168e+01 5.643288e+01 5.671480e+01 5.612264e+01 5.486825e+01 5.340324e+01 5.241368e+01 5.190153e+01 5.175674e+01 5.171075e+01 5.133984e+01 5.064034e+01 4.973412e+01 4.886568e+01 4.792244e+01 4.703345e+01 4.609527e+01 4.503944e+01 4.383649e+01 4.295036e+01 4.253093e+01 4.237885e+01 4.190946e+01 4.109794e+01 3.995837e+01 3.915524e+01 3.867649e+01 3.853605e+01 3.781880e+01 3.705263e+01 3.607640e+01 3.553414e+01 3.509128e+01 3.534590e+01 3.508138e+01 3.434620e+01 3.279843e+01 3.125026e+01 2.980114e+01 2.924072e+01 2.927966e+01 2.900492e+01 2.815408e+01 2.671499e+01 2.578161e+01 2.501452e+01 2.537153e+01 2.520833e+01 2.519593e+01 2.389587e+01 2.301649e+01 2.131062e+01 2.081517e+01 2.011556e+01 2.031912e+01 1.950677e+01 1.860753e+01 1.690317e+01 1.574468e+01 1.520566e+01 1.504245e+01 1.511536e+01 1.423768e+01 1.370427e+01 1.201385e+01 1.163418e+01 1.041266e+01 1.139911e+01 1.098051e+01 1.175113e+01 9.809324e+00 8.880110e+00 6.071381e+00 5.336924e+00 4.197481e+00 4.763737e+00 4.437452e+00 5.007116e+00 5.945359e+00 5.210633e-01 0 0 0 0 
0 0 0 0 0 3.331391e+00 9.981052e+00 5.591233e+00 7.583658e+00 6.446531e+00 1.001659e+01 8.460850e+00 1.232271e+01 1.653322e+01 2.337239e+01 2.965980e+01 4.403071e+01 5.759613e+01 7.124435e+01 8.413053e+01 1.029647e+02 1.046196e+02 1.032220e+02 1.045366e+02 1.034055e+02 1.035746e+02 1.011614e+02 9.953715e+01 9.685542e+01 9.577729e+01 9.495738e+01 9.508600e+01 9.483802e+01 9.399261e+01 9.267926e+01 9.117300e+01 9.074504e+01 9.050841e+01 9.071541e+01 8.979276e+01 8.855933e+01 8.604419e+01 8.396837e+01 8.210266e+01 8.164593e+01 8.167661e+01 8.208454e+01 8.122767e+01 7.941258e+01 7.729268e+01 7.586076e+01 7.511966e+01 7.491014e+01 7.484359e+01 7.430687e+01 7.329465e+01 7.198330e+01 7.072660e+01 6.936166e+01 6.807521e+01 6.671757e+01 6.518965e+01 6.344882e+01 6.216647e+01 6.155950e+01 6.133941e+01 6.066014e+01 5.948573e+01 5.783657e+01 5.667429e+01 5.598145e+01 5.577821e+01 5.474019e+01 5.363139e+01 5.221855e+01 5.143376e+01 5.079282e+01 5.116130e+01 5.077847e+01 4.971448e+01 4.747442e+01 4.523380e+01 4.313646e+01 4.232537e+01 4.238174e+01 4.198411e+01 4.075266e+01 3.866986e+01 3.731895e+01 3.620872e+01 3.672546e+01 3.648925e+01 3.647130e+01 3.458961e+01 3.331679e+01 3.084764e+01 3.013048e+01 2.911776e+01 2.941231e+01 2.823639e+01 2.693477e+01 2.446768e+01 2.279083e+01 2.201060e+01 2.177438e+01 2.187999e+01 2.060969e+01 1.983765e+01 1.739090e+01 1.684140e+01 1.507324e+01 1.650116e+01 1.589513e+01 1.701042e+01 1.419926e+01 1.285383e+01 8.787271e+00 7.723251e+00 6.071779e+00 6.886817e+00 6.401954e+00 7.230148e+00 8.601480e+00 7.543719e-01 0 0 0 0 
0 0 0 0 0 1.132983e+00 3.394071e+00 1.902084e+00 2.579611e+00 2.192566e+00 3.406926e+00 2.878618e+00 4.191725e+00 5.620997e+00 7.944434e+00 1.008176e+01 1.496689e+01 1.957700e+01 2.421523e+01 2.859354e+01 3.499221e+01 3.555453e+01 3.507977e+01 3.552641e+01 3.514219e+01 3.519965e+01 3.437990e+01 3.382811e+01 3.291706e+01 3.255078e+01 3.227222e+01 3.231591e+01 3.223166e+01 3.194445e+01 3.149825e+01 3.098653e+01 3.084114e+01 3.076076e+01 3.083109e+01 3.051764e+01 3.009858e+01 2.924407e+01 2.853879e+01 2.790489e+01 2.774971e+01 2.776013e+01 2.789873e+01 2.760759e+01 2.699088e+01 2.627058e+01 2.578405e+01 2.553223e+01 2.546105e+01 2.543843e+01 2.525606e+01 2.491212e+01 2.446654e+01 2.403952e+01 2.357571e+01 2.313857e+01 2.267724e+01 2.215803e+01 2.156648e+01 2.113071e+01 2.092445e+01 2.084967e+01 2.061883e+01 2.021974e+01 1.965931e+01 1.926433e+01 1.902887e+01 1.895980e+01 1.860705e+01 1.823022e+01 1.775007e+01 1.748336e+01 1.726553e+01 1.739075e+01 1.726064e+01 1.689904e+01 1.613772e+01 1.537622e+01 1.466338e+01 1.438772e+01 1.440688e+01 1.427174e+01 1.385319e+01 1.314531e+01 1.268616e+01 1.230881e+01 1.248446e+01 1.240417e+01 1.239807e+01 1.175848e+01 1.132584e+01 1.048654e+01 1.024274e+01 9.898469e+00 9.998544e+00 9.598788e+00 9.156330e+00 8.317652e+00 7.747662e+00 7.482436e+00 7.402153e+00 7.438086e+00 7.006327e+00 6.743919e+00 5.912239e+00 5.725475e+00 5.124415e+00 5.609826e+00 5.403766e+00 5.782800e+00 4.826995e+00 4.369441e+00 2.986616e+00 2.624482e+00 2.062053e+00 2.336877e+00 2.165964e+00 2.449257e+00 2.921825e+00 2.565039e-01 0 0 0 0 
0 0 0 0 0 0 0 0 0 0 0 0 0 0 0 0 0 0 0 0 0 0 0 0 0 0 0 0 0 0 0 0 0 0 0 0 0 0 0 0 0 0 0 0 0 0 0 0 0 0 0 0 0 0 0 0 0 0 0 0 0 0 0 0 0 0 0 0 0 0 0 0 0 0 0 0 0 0 0 0 0 0 0 0 0 0 0 0 0 0 0 0 0 0 0 0 0 0 0 0 0 0 0 0 0 0 0 0 0 0 0 0 0 0 0 0 0 0 0 0 0 0 0 0 0 0 0 0 
