# vtk DataFile Version 2.0
Comment goes here
ASCII

DATASET STRUCTURED_POINTS
FIELD FieldData 1
TIME 1 1 double
0.57000000
DIMENSIONS    128   16   1

ORIGIN    0.000   0.000   0.000
SPACING   0.0078125 0.015625   1.000

POINT_DATA   2048
SCALARS fX double
LOOKUP_TABLE default

0 0 0 0 0 0 0 0 0 0 0 0 0 0 0 0 0 0 0 0 0 0 0 0 0 0 0 0 0 0 0 0 0 0 0 0 0 0 0 0 0 0 0 0 0 0 0 0 0 0 0 0 0 0 0 0 0 0 0 0 0 0 0 0 0 0 0 0 0 0 0 0 0 0 0 0 0 0 0 0 0 0 0 0 0 0 0 0 0 0 0 0 0 0 0 0 0 0 0 0 0 0 0 0 0 0 0 0 0 0 0 0 0 0 0 0 0 0 0 0 0 0 0 0 0 0 0 0 
0 0 0 0 0 0 0 0 0 0 0 0 0 0 0 0 0 0 0 0 0 0 0 0 0 0 0 0 0 0 0 0 0 0 0 0 0 0 0 0 0 0 0 0 0 0 0 0 0 0 0 0 0 0 0 0 0 0 0 0 0 0 0 0 0 0 0 0 0 0 0 0 0 0 0 0 0 0 0 0 0 0 0 0 0 0 0 0 0 0 0 0 0 0 0 0 0 0 0 0 0 0 0 0 0 0 0 0 0 0 0 0 0 0 0 0 0 0 0 0 0 0 0 0 0 0 0 0 
0 0 0 0 0 1.691699e+00 1.381648e+00 -2.623741e-01 6.127747e-01 3.440458e-01 5.794236e-01 3.656011e-01 -2.892062e-02 -2.130722e+00 -2.945514e+00 -2.177742e+00 -2.081798e+00 -2.430032e+00 -1.777745e+00 -2.656651e+00 -2.577179e+00 2.938694e-01 3.862795e-01 5.038045e-01 4.026206e-01 5.164708e-01 4.264248e-01 5.305931e-01 4.525412e-01 5.410525e-01 4.769457e-01 5.445155e-01 4.952807e-01 5.389933e-01 5.053458e-01 5.260339e-01 5.090467e-01 5.108631e-01 5.088055e-01 4.965364e-01 5.044815e-01 4.823760e-01 4.956844e-01 4.687934e-01 4.860533e-01 4.602808e-01 4.809256e-01 4.582649e-01 4.805421e-01 4.605325e-01 4.820091e-01 4.658254e-01 4.837643e-01 4.728827e-01 4.787942e-01 1.300367e-01 -1.606237e+00 -2.335364e+00 -4.834052e-01 -1.451028e+00 -1.647144e+00 3.000781e+00 2.670917e+00 -1.379477e+00 -2.184444e+00 -1.951080e+00 -1.734891e+00 -3.125013e+00 -1.750289e+00 4.883566e+00 5.619693e+00 7.996582e-01 -3.729466e-01 3.191063e-01 3.760404e-01 4.016338e-01 4.159601e-01 4.271283e-01 4.378619e-01 4.417890e-01 4.480470e-01 4.438482e-01 4.478941e-01 4.337983e-01 4.389463e-01 4.144501e-01 4.219275e-01 3.904980e-01 4.004020e-01 3.673608e-01 3.801368e-01 3.494198e-01 3.644464e-01 3.380532e-01 3.532892e-01 3.336324e-01 3.463772e-01 3.371251e-01 3.435255e-01 3.489889e-01 3.445439e-01 3.692690e-01 3.493121e-01 3.952988e-01 3.533183e-01 4.203570e-01 3.515280e-01 4.400211e-01 3.449006e-01 4.543084e-01 3.363922e-01 4.618053e-01 3.268444e-01 4.600735e-01 3.200618e-01 4.529959e-01 3.224611e-01 4.482791e-01 3.335248e-01 4.687833e-01 1.963341e-01 3.792828e-01 1.526084e+00 3.247477e-01 0 0 0 0 
0 0 0 0 0 4.974290e+00 4.050307e+00 -7.914117e-01 1.793218e+00 1.010128e+00 1.703686e+00 1.074936e+00 -8.564040e-02 -6.267848e+00 -8.664271e+00 -6.406301e+00 -6.124230e+00 -7.148904e+00 -5.230010e+00 -7.815313e+00 -7.580927e+00 8.651507e-01 1.136934e+00 1.482536e+00 1.184734e+00 1.519553e+00 1.254569e+00 1.560953e+00 1.331300e+00 1.591664e+00 1.403066e+00 1.601846e+00 1.457017e+00 1.585622e+00 1.486654e+00 1.547528e+00 1.497568e+00 1.502923e+00 1.496874e+00 1.460780e+00 1.484148e+00 1.419100e+00 1.458238e+00 1.379109e+00 1.429869e+00 1.354038e+00 1.414758e+00 1.348086e+00 1.413611e+00 1.354739e+00 1.417911e+00 1.370292e+00 1.423057e+00 1.391036e+00 1.408421e+00 3.824868e-01 -4.787535e+00 -7.127245e+00 -1.291086e+00 -3.284932e+00 -2.091290e+00 1.173188e+01 9.091946e+00 -3.850131e+00 -6.717865e+00 -5.595376e+00 -3.709480e+00 -6.153989e+00 9.729851e-01 2.032115e+01 1.888009e+01 3.053461e+00 -1.049427e+00 9.386328e-01 1.106123e+00 1.181409e+00 1.223550e+00 1.256399e+00 1.287971e+00 1.299521e+00 1.317930e+00 1.305578e+00 1.317480e+00 1.276015e+00 1.291158e+00 1.219099e+00 1.241094e+00 1.148647e+00 1.177786e+00 1.080606e+00 1.118200e+00 1.027860e+00 1.072075e+00 9.944528e-01 1.039275e+00 9.814633e-01 1.018948e+00 9.917324e-01 1.010548e+00 1.026605e+00 1.013510e+00 1.086216e+00 1.027487e+00 1.162736e+00 1.039235e+00 1.236426e+00 1.033986e+00 1.294321e+00 1.014601e+00 1.336507e+00 9.897904e-01 1.358818e+00 9.620035e-01 1.354024e+00 9.423464e-01 1.333440e+00 9.495418e-01 1.319541e+00 9.818314e-01 1.379406e+00 5.796620e-01 1.120164e+00 4.491533e+00 9.554065e-01 0 0 0 0 
0 0 0 0 0 3.435402e+00 2.791305e+00 -5.562329e-01 1.234288e+00 6.968956e-01 1.176591e+00 7.423449e-01 -5.943773e-02 -2.405914e+01 -3.659174e+01 -2.646571e+01 -2.526916e+01 -2.914404e+01 -2.216589e+01 -3.378347e+01 -2.741392e+01 5.980113e-01 7.857423e-01 1.024441e+00 8.186330e-01 1.049895e+00 8.667866e-01 1.078428e+00 9.197496e-01 1.099615e+00 9.693162e-01 1.106648e+00 1.006596e+00 1.095449e+00 1.027085e+00 1.069146e+00 1.034637e+00 1.038343e+00 1.034165e+00 1.009229e+00 1.025370e+00 9.804227e-01 1.007455e+00 9.527784e-01 9.878384e-01 9.354431e-01 9.773858e-01 9.313206e-01 9.765854e-01 9.359088e-01 9.795485e-01 9.466456e-01 9.830950e-01 9.609685e-01 9.729756e-01 2.642183e-01 -3.306916e+00 -4.772928e+00 -3.979593e-01 -1.389592e+00 6.487201e-01 1.031970e+01 7.363185e+00 -2.128993e+00 -4.323152e+00 -3.225690e+00 -1.191411e+00 -1.911239e+00 4.985200e+00 1.811747e+01 1.459350e+01 2.525579e+00 -6.962956e-01 6.484090e-01 7.641217e-01 8.161323e-01 8.452430e-01 8.679348e-01 8.897441e-01 8.977227e-01 9.104401e-01 9.019074e-01 9.101301e-01 8.814844e-01 8.919446e-01 8.421648e-01 8.573590e-01 7.934970e-01 8.136290e-01 7.465009e-01 7.724783e-01 7.100771e-01 7.406286e-01 6.870125e-01 7.179788e-01 6.780462e-01 7.039392e-01 6.851380e-01 6.981303e-01 7.092167e-01 7.001603e-01 7.503760e-01 7.097928e-01 8.032140e-01 7.178905e-01 8.541102e-01 7.142727e-01 8.941309e-01 7.009342e-01 9.233508e-01 6.839000e-01 9.388884e-01 6.648489e-01 9.357230e-01 6.514120e-01 9.216171e-01 6.564494e-01 9.120037e-01 6.786322e-01 9.531415e-01 4.014764e-01 7.760036e-01 3.104040e+00 6.600834e-01 0 0 0 0 
0 0 0 0 0 1.528107e-01 1.226454e-01 -2.719524e-02 5.384464e-02 3.081314e-02 5.232902e-02 3.301030e-02 -2.717952e-03 -2.632148e+01 -2.868398e+01 -2.688297e+01 -2.717554e+01 -2.765803e+01 -2.633939e+01 -2.829385e+01 -2.658934e+01 2.673002e-02 3.508786e-02 4.570919e-02 3.652009e-02 4.681334e-02 3.864247e-02 4.806719e-02 4.099071e-02 4.900416e-02 4.319624e-02 4.931696e-02 4.485927e-02 4.882044e-02 4.577582e-02 4.765186e-02 4.611563e-02 4.628223e-02 4.609653e-02 4.498516e-02 4.570381e-02 4.369857e-02 4.490168e-02 4.246246e-02 4.402297e-02 4.168629e-02 4.355388e-02 4.149991e-02 4.351603e-02 4.170225e-02 4.364615e-02 4.217860e-02 4.380203e-02 4.281478e-02 4.334913e-02 1.176818e-02 -1.121580e-01 1.369847e-01 5.588121e-01 5.136801e-01 1.164923e+00 1.671366e+00 1.008130e+00 4.046812e-01 2.755974e-01 4.685416e-01 8.002031e-01 1.103911e+00 2.219936e+00 2.629097e+00 1.285908e+00 2.415690e-01 -2.526708e-02 2.888250e-02 3.403942e-02 3.635680e-02 3.765353e-02 3.866415e-02 3.963552e-02 3.999081e-02 4.055743e-02 4.017725e-02 4.054369e-02 3.926732e-02 3.973323e-02 3.751537e-02 3.819223e-02 3.534771e-02 3.624526e-02 3.325616e-02 3.441509e-02 3.163701e-02 3.299979e-02 3.061296e-02 3.199310e-02 3.021531e-02 3.136828e-02 3.053066e-02 3.110801e-02 3.160028e-02 3.119432e-02 3.342855e-02 3.161750e-02 3.577656e-02 3.197374e-02 3.804148e-02 3.181467e-02 3.983086e-02 3.123393e-02 4.115220e-02 3.050181e-02 4.187614e-02 2.968981e-02 4.177215e-02 2.912738e-02 4.117266e-02 2.936874e-02 4.074139e-02 3.032564e-02 4.251879e-02 1.814847e-02 3.512270e-02 1.385909e-01 2.942466e-02 0 0 0 0 
0 0 0 0 0 0 0 0 0 0 0 0 0 -2.892982e+01 -3.168606e+01 -2.961888e+01 -2.996714e+01 -3.057940e+01 -2.894535e+01 -3.147020e+01 -2.904393e+01 0 0 0 0 0 0 0 0 0 0 0 0 0 0 0 0 0 0 0 0 0 0 0 0 0 0 0 0 0 0 0 0 0 0 0 1.194491e-02 1.076417e-01 1.376117e-01 6.465728e-02 6.167230e-02 6.689709e-02 4.504259e-02 3.616200e-02 3.794864e-02 2.505761e-02 3.627523e-04 -2.573759e-02 -5.883416e-02 -7.026038e-02 -6.292820e-02 -3.813000e-02 -6.532834e-03 0 0 0 0 0 0 0 0 0 0 0 0 0 0 0 0 0 0 0 0 0 0 0 0 0 0 0 0 0 0 0 0 0 0 0 0 0 0 0 0 0 0 0 0 0 0 0 0 0 0 0 0 0 0 0 
0 0 0 0 0 0 0 0 0 0 0 0 0 -2.803950e+01 -2.885987e+01 -2.818320e+01 -2.836807e+01 -2.850860e+01 -2.803110e+01 -2.890475e+01 -2.797551e+01 0 0 0 0 0 0 0 0 0 0 0 0 0 0 0 0 0 0 0 0 0 0 0 0 0 0 0 0 0 0 0 0 0 0 0 -2.986251e-03 -2.277951e-02 -2.447071e-02 -4.592593e-03 -1.314239e-02 -2.417915e-02 -2.746770e-02 -3.201566e-02 -3.098306e-02 -2.322630e-02 -8.488237e-03 1.824077e-03 2.489735e-03 -1.879965e-03 -4.470352e-03 -3.307220e-03 -6.373513e-04 0 0 0 0 0 0 0 0 0 0 0 0 0 0 0 0 0 0 0 0 0 0 0 0 0 0 0 0 0 0 0 0 0 0 0 0 0 0 0 0 0 0 0 0 0 0 0 0 0 0 0 0 0 0 0 
0 0 0 0 0 0 0 0 0 0 0 0 0 -3.006641e+01 -3.128651e+01 -3.036386e+01 -3.057136e+01 -3.089256e+01 -3.001836e+01 -3.144079e+01 -2.986584e+01 0 0 0 0 0 0 0 0 0 0 0 0 0 0 0 0 0 0 0 0 0 0 0 0 0 0 0 0 0 0 0 0 0 0 0 -1.932030e-03 -1.577248e-02 -1.765583e-02 -3.594764e-03 -8.821740e-03 -1.387078e-02 -6.485490e-03 -4.953339e-03 -6.679576e-03 -3.056551e-03 1.275186e-03 3.535327e-03 3.095037e-03 3.448841e-03 8.655431e-03 6.371423e-03 6.566897e-04 0 0 0 0 0 0 0 0 0 0 0 0 0 0 0 0 0 0 0 0 0 0 0 0 0 0 0 0 0 0 0 0 0 0 0 0 0 0 0 0 0 0 0 0 0 0 0 0 0 0 0 0 0 0 0 
0 0 0 0 0 0 0 0 0 0 0 0 0 -2.803508e+01 -2.885601e+01 -2.817446e+01 -2.835865e+01 -2.849349e+01 -2.801625e+01 -2.888601e+01 -2.796052e+01 0 0 0 0 0 0 0 0 0 0 0 0 0 0 0 0 0 0 0 0 0 0 0 0 0 0 0 0 0 0 0 0 0 0 0 -4.610906e-04 -3.382785e-03 -4.664258e-03 -3.712600e-03 -6.064348e-03 -5.559517e-03 5.111108e-05 2.033074e-04 -3.076508e-03 -4.707692e-03 -6.899116e-03 -1.020002e-02 -1.623903e-02 -1.414648e-02 -2.609055e-03 1.756188e-03 2.127014e-04 0 0 0 0 0 0 0 0 0 0 0 0 0 0 0 0 0 0 0 0 0 0 0 0 0 0 0 0 0 0 0 0 0 0 0 0 0 0 0 0 0 0 0 0 0 0 0 0 0 0 0 0 0 0 0 
0 0 0 0 0 0 0 0 0 0 0 0 0 -2.892852e+01 -3.168496e+01 -2.960702e+01 -2.994971e+01 -3.055039e+01 -2.891353e+01 -3.142303e+01 -2.900351e+01 0 0 0 0 0 0 0 0 0 0 0 0 0 0 0 0 0 0 0 0 0 0 0 0 0 0 0 0 0 0 0 0 0 0 0 0 0 0 0 0 0 0 0 0 0 0 0 0 0 0 0 0 0 0 0 0 0 0 0 0 0 0 0 0 0 0 0 0 0 0 0 0 0 0 0 0 0 0 0 0 0 0 0 0 0 0 0 0 0 0 0 0 0 0 0 0 0 0 0 0 0 0 0 0 0 0 0 
0 0 0 0 0 1.524746e-01 1.208506e-01 -3.089126e-02 4.872978e-02 2.554734e-02 4.690303e-02 2.803949e-02 -7.253408e-03 -2.631932e+01 -2.868326e+01 -2.686538e+01 -2.714723e+01 -2.760211e+01 -2.627402e+01 -2.818767e+01 -2.649927e+01 2.946451e-02 3.847201e-02 4.899187e-02 3.941086e-02 4.897122e-02 3.990282e-02 4.818582e-02 4.007977e-02 4.696583e-02 4.035750e-02 4.574019e-02 4.090123e-02 4.475548e-02 4.182143e-02 4.424842e-02 4.321316e-02 4.434925e-02 4.497873e-02 4.492274e-02 4.677325e-02 4.564411e-02 4.822342e-02 4.622201e-02 4.910395e-02 4.652144e-02 4.944601e-02 4.663727e-02 4.941027e-02 4.651841e-02 4.880403e-02 4.576832e-02 4.730963e-02 4.419041e-02 4.502060e-02 4.203258e-02 4.235581e-02 3.979463e-02 4.076283e-02 3.963317e-02 4.070849e-02 4.169721e-02 4.287676e-02 4.271596e-02 4.394135e-02 4.419071e-02 4.565257e-02 4.634713e-02 4.723383e-02 4.929636e-02 4.946925e-02 4.918119e-02 4.818942e-02 4.749285e-02 4.595410e-02 4.482974e-02 4.308490e-02 4.181716e-02 4.015497e-02 3.910188e-02 3.794240e-02 3.734955e-02 3.691074e-02 3.663341e-02 3.681499e-02 3.654226e-02 3.722128e-02 3.675999e-02 3.787913e-02 3.712232e-02 3.858246e-02 3.748813e-02 3.911827e-02 3.776937e-02 3.928711e-02 3.784953e-02 3.880980e-02 3.756917e-02 3.754375e-02 3.704413e-02 3.573624e-02 3.662218e-02 3.370529e-02 3.648188e-02 3.162987e-02 3.668634e-02 2.979237e-02 3.738938e-02 2.859775e-02 3.869251e-02 2.836977e-02 4.051349e-02 2.924746e-02 4.250662e-02 3.101414e-02 4.409116e-02 3.315628e-02 4.497506e-02 3.488343e-02 4.682198e-02 2.222723e-02 3.772604e-02 1.397641e-01 2.957064e-02 0 0 0 0 
0 0 0 0 0 3.427842e+00 2.750932e+00 -6.393276e-01 1.119383e+00 5.786369e-01 1.054738e+00 6.307147e-01 -1.612974e-01 -2.406988e+01 -3.660814e+01 -2.647593e+01 -2.523667e+01 -2.910228e+01 -2.209634e+01 -3.362195e+01 -2.726530e+01 6.594068e-01 8.617068e-01 1.098134e+00 8.835139e-01 1.098321e+00 8.950707e-01 1.081084e+00 8.993090e-01 1.053882e+00 9.056226e-01 1.026399e+00 9.177869e-01 1.004232e+00 9.383471e-01 9.927621e-01 9.694964e-01 9.949709e-01 1.009087e+00 1.007845e+00 1.049388e+00 1.024088e+00 1.082004e+00 1.037142e+00 1.101856e+00 1.043952e+00 1.109618e+00 1.046624e+00 1.108877e+00 1.044004e+00 1.095309e+00 1.027194e+00 1.061787e+00 9.917863e-01 1.010416e+00 9.433521e-01 9.506038e-01 8.931158e-01 9.148455e-01 8.894899e-01 9.136346e-01 9.358340e-01 9.623284e-01 9.587293e-01 9.862560e-01 9.918648e-01 1.024702e+00 1.040306e+00 1.060239e+00 1.106549e+00 1.110460e+00 1.104009e+00 1.081772e+00 1.066148e+00 1.031624e+00 1.006392e+00 9.672322e-01 9.387776e-01 9.014657e-01 8.778265e-01 8.517940e-01 8.384832e-01 8.286239e-01 8.223941e-01 8.264589e-01 8.203296e-01 8.355550e-01 8.251854e-01 8.502791e-01 8.332671e-01 8.660102e-01 8.414169e-01 8.779850e-01 8.476775e-01 8.817360e-01 8.494457e-01 8.710067e-01 8.431575e-01 8.426163e-01 8.314314e-01 8.021331e-01 8.220758e-01 7.566725e-01 8.190553e-01 7.101689e-01 8.236807e-01 6.688540e-01 8.392925e-01 6.417219e-01 8.681032e-01 6.360021e-01 9.082728e-01 6.548937e-01 9.521777e-01 6.937549e-01 9.871083e-01 7.414680e-01 1.007040e+00 7.809434e-01 1.049762e+00 4.930408e-01 8.344565e-01 3.130394e+00 6.633623e-01 0 0 0 0 
0 0 0 0 0 4.963343e+00 3.991844e+00 -9.117294e-01 1.626863e+00 8.389270e-01 1.527281e+00 9.133313e-01 -2.331017e-01 -6.381093e+00 -8.753336e+00 -6.490403e+00 -6.168352e+00 -7.181187e+00 -5.242283e+00 -7.775401e+00 -7.521410e+00 9.540282e-01 1.246897e+00 1.589212e+00 1.278651e+00 1.589650e+00 1.295510e+00 1.564797e+00 1.301713e+00 1.525467e+00 1.310872e+00 1.485692e+00 1.328471e+00 1.453587e+00 1.358208e+00 1.436961e+00 1.403276e+00 1.440145e+00 1.460575e+00 1.458781e+00 1.518919e+00 1.482306e+00 1.566148e+00 1.501223e+00 1.594907e+00 1.511104e+00 1.606164e+00 1.514990e+00 1.605108e+00 1.511210e+00 1.585477e+00 1.486884e+00 1.536958e+00 1.435632e+00 1.462598e+00 1.365521e+00 1.376017e+00 1.292800e+00 1.324255e+00 1.287551e+00 1.322504e+00 1.354641e+00 1.392997e+00 1.387790e+00 1.427642e+00 1.435763e+00 1.483303e+00 1.505894e+00 1.534756e+00 1.601796e+00 1.607465e+00 1.598130e+00 1.565947e+00 1.543333e+00 1.493362e+00 1.456839e+00 1.400154e+00 1.358965e+00 1.304954e+00 1.270735e+00 1.233049e+00 1.213780e+00 1.199506e+00 1.190487e+00 1.196368e+00 1.187494e+00 1.209529e+00 1.194515e+00 1.230833e+00 1.206200e+00 1.253590e+00 1.217982e+00 1.270911e+00 1.227031e+00 1.276331e+00 1.229583e+00 1.260796e+00 1.220482e+00 1.219706e+00 1.203523e+00 1.161127e+00 1.190009e+00 1.095352e+00 1.185670e+00 1.028057e+00 1.192374e+00 9.682335e-01 1.214930e+00 9.288778e-01 1.256524e+00 9.204452e-01 1.314492e+00 9.475862e-01 1.377835e+00 1.003638e+00 1.428238e+00 1.072611e+00 1.457113e+00 1.129934e+00 1.519276e+00 7.122093e-01 1.204782e+00 4.529686e+00 9.601533e-01 0 0 0 0 
0 0 0 0 0 1.687976e+00 1.361762e+00 -3.032931e-01 5.562098e-01 2.858374e-01 5.194466e-01 3.106561e-01 -7.905776e-02 -2.169226e+00 -2.975795e+00 -2.206334e+00 -2.096797e+00 -2.441006e+00 -1.781916e+00 -2.643084e+00 -2.556945e+00 3.240858e-01 4.236626e-01 5.400708e-01 4.345474e-01 5.402995e-01 4.403422e-01 5.318991e-01 4.424837e-01 5.185508e-01 4.456073e-01 5.050326e-01 4.515849e-01 4.941107e-01 4.616828e-01 4.884477e-01 4.769927e-01 4.895232e-01 4.964671e-01 4.958588e-01 5.163037e-01 5.038625e-01 5.323676e-01 5.103037e-01 5.421551e-01 5.136735e-01 5.459924e-01 5.150036e-01 5.456410e-01 5.137246e-01 5.389723e-01 5.054579e-01 5.224804e-01 4.880357e-01 4.972025e-01 4.642013e-01 4.677692e-01 4.394793e-01 4.501720e-01 4.376947e-01 4.495779e-01 4.605037e-01 4.735454e-01 4.717764e-01 4.853269e-01 4.880894e-01 5.042538e-01 5.119353e-01 5.217506e-01 5.445433e-01 5.464741e-01 5.433022e-01 5.323647e-01 5.246782e-01 5.076923e-01 4.952769e-01 4.760071e-01 4.620048e-01 4.436431e-01 4.320099e-01 4.191978e-01 4.126468e-01 4.077930e-01 4.047263e-01 4.067243e-01 4.037065e-01 4.111956e-01 4.060895e-01 4.184325e-01 4.100557e-01 4.261621e-01 4.140535e-01 4.320441e-01 4.171234e-01 4.338818e-01 4.179870e-01 4.285986e-01 4.148936e-01 4.146334e-01 4.091355e-01 3.947301e-01 4.045558e-01 3.723853e-01 4.030963e-01 3.495178e-01 4.053801e-01 3.291719e-01 4.130273e-01 3.157537e-01 4.271131e-01 3.128128e-01 4.467331e-01 3.219399e-01 4.681643e-01 3.408973e-01 4.852205e-01 3.642996e-01 4.950482e-01 3.838737e-01 5.163365e-01 2.413957e-01 4.080514e-01 1.539056e+00 3.263617e-01 0 0 0 0 
0 0 0 0 0 0 0 0 0 0 0 0 0 0 0 0 0 0 0 0 0 0 0 0 0 0 0 0 0 0 0 0 0 0 0 0 0 0 0 0 0 0 0 0 0 0 0 0 0 0 0 0 0 0 0 0 0 0 0 0 0 0 0 0 0 0 0 0 0 0 0 0 0 0 0 0 0 0 0 0 0 0 0 0 0 0 0 0 0 0 0 0 0 0 0 0 0 0 0 0 0 0 0 0 0 0 0 0 0 0 0 0 0 0 0 0 0 0 0 0 0 0 0 0 0 0 0 0 
