# vtk DataFile Version 2.0
Comment goes here
ASCII

DATASET STRUCTURED_POINTS
FIELD FieldData 1
TIME 1 1 double
0.91000000
DIMENSIONS    128   16   1

ORIGIN    0.000   0.000   0.000
SPACING   0.0078125 0.015625   1.000

POINT_DATA   2048
SCALARS fX double
LOOKUP_TABLE default

0 0 0 0 0 0 0 0 0 0 0 0 0 0 0 0 0 0 0 0 0 0 0 0 0 0 0 0 0 0 0 0 0 0 0 0 0 0 0 0 0 0 0 0 0 0 0 0 0 0 0 0 0 0 0 0 0 0 0 0 0 0 0 0 0 0 0 0 0 0 0 0 0 0 0 0 0 0 0 0 0 0 0 0 0 0 0 0 0 0 0 0 0 0 0 0 0 0 0 0 0 0 0 0 0 0 0 0 0 0 0 0 0 0 0 0 0 0 0 0 0 0 0 0 0 0 0 0 
0 0 0 0 0 0 0 0 0 0 0 0 0 0 0 0 0 0 0 0 0 0 0 0 0 0 0 0 0 0 0 0 0 0 0 0 0 0 0 0 0 0 0 0 0 0 0 0 0 0 0 0 0 0 0 0 0 0 0 0 0 0 0 0 0 0 0 0 0 0 0 0 0 0 0 0 0 0 0 0 0 0 0 0 0 0 0 0 0 0 0 0 0 0 0 0 0 0 0 0 0 0 0 0 0 0 0 0 0 0 0 0 0 0 0 0 0 0 0 0 0 0 0 0 0 0 0 0 
0 0 0 0 0 -1.135220e+00 -2.558367e+00 -6.230650e-01 -7.745225e-01 -8.540818e-01 -8.289493e-01 -8.506859e-01 7.001819e-01 4.407345e+00 5.984416e+00 4.676474e+00 5.241265e+00 5.177819e+00 4.660680e+00 5.797142e+00 4.816885e+00 1.805439e-01 -7.643840e-01 -8.717615e-01 -8.146758e-01 -8.910005e-01 -8.449878e-01 -8.974577e-01 -8.673306e-01 -8.973474e-01 -8.842872e-01 -8.940048e-01 -8.972128e-01 -8.889072e-01 -9.061130e-01 -8.833497e-01 -9.115279e-01 -8.780021e-01 -9.134368e-01 -8.734620e-01 -9.120354e-01 -8.700755e-01 -9.072952e-01 -8.674419e-01 -8.997096e-01 -8.642487e-01 -8.899387e-01 -8.593381e-01 -8.771721e-01 -8.508564e-01 -8.601305e-01 -8.358788e-01 -8.360437e-01 -8.088071e-01 -7.997825e-01 -5.320757e-01 1.465233e+00 2.689179e+00 1.033410e+00 1.392713e+00 1.184278e+00 -3.085208e+00 -3.222048e+00 4.551966e-01 1.959123e+00 1.421259e+00 1.139921e+00 2.528720e+00 1.154612e+00 -4.283437e+00 -5.881324e+00 -3.248515e+00 -1.689906e+00 -1.082088e+00 -8.359150e-01 -8.415823e-01 -8.467075e-01 -8.514627e-01 -8.549293e-01 -8.545262e-01 -8.611564e-01 -8.528833e-01 -8.662258e-01 -8.497463e-01 -8.679235e-01 -8.469487e-01 -8.674518e-01 -8.433646e-01 -8.670231e-01 -8.397143e-01 -8.669568e-01 -8.364715e-01 -8.673149e-01 -8.346102e-01 -8.674666e-01 -8.343841e-01 -8.672211e-01 -8.366396e-01 -8.660240e-01 -8.419730e-01 -8.630052e-01 -8.506582e-01 -8.575778e-01 -8.622286e-01 -8.491955e-01 -8.758036e-01 -8.374104e-01 -8.912105e-01 -8.230782e-01 -9.071708e-01 -8.077390e-01 -9.236584e-01 -7.932308e-01 -9.400466e-01 -7.814673e-01 -9.555897e-01 -7.731028e-01 -9.733797e-01 -7.617960e-01 -1.017800e+00 -5.844878e-01 -1.435295e+00 -2.331981e+00 -1.704900e-01 0 0 0 0 
0 0 0 0 0 -3.340176e+00 -7.532912e+00 -1.842387e+00 -2.281395e+00 -2.512813e+00 -2.439406e+00 -2.503932e+00 2.057229e+00 1.296001e+01 1.759889e+01 1.375183e+01 1.541266e+01 1.522535e+01 1.370417e+01 1.704526e+01 1.416288e+01 5.308911e-01 -2.247370e+00 -2.563191e+00 -2.395423e+00 -2.619845e+00 -2.484553e+00 -2.638795e+00 -2.550184e+00 -2.638402e+00 -2.599969e+00 -2.628512e+00 -2.637921e+00 -2.613489e+00 -2.664071e+00 -2.597149e+00 -2.680008e+00 -2.581455e+00 -2.685661e+00 -2.568154e+00 -2.681594e+00 -2.558251e+00 -2.667711e+00 -2.550560e+00 -2.645456e+00 -2.541214e+00 -2.616765e+00 -2.526806e+00 -2.579253e+00 -2.501887e+00 -2.529162e+00 -2.457862e+00 -2.458353e+00 -2.378277e+00 -2.351752e+00 -1.564588e+00 4.412643e+00 8.334801e+00 3.062445e+00 3.150806e+00 8.403009e-01 -1.169951e+01 -1.012949e+01 1.754890e+00 6.391671e+00 4.229266e+00 2.088166e+00 4.481357e+00 -2.342298e+00 -1.795954e+01 -1.888390e+01 -9.709063e+00 -4.993247e+00 -3.182076e+00 -2.458170e+00 -2.474840e+00 -2.489918e+00 -2.503906e+00 -2.514106e+00 -2.512928e+00 -2.532433e+00 -2.508114e+00 -2.547361e+00 -2.498913e+00 -2.552380e+00 -2.490715e+00 -2.551021e+00 -2.480201e+00 -2.549783e+00 -2.469484e+00 -2.549601e+00 -2.459954e+00 -2.550656e+00 -2.454473e+00 -2.551090e+00 -2.453789e+00 -2.550348e+00 -2.460399e+00 -2.546812e+00 -2.476074e+00 -2.537939e+00 -2.501633e+00 -2.522014e+00 -2.535713e+00 -2.497428e+00 -2.575712e+00 -2.462845e+00 -2.621092e+00 -2.420741e+00 -2.668044e+00 -2.375584e+00 -2.716432e+00 -2.332727e+00 -2.764365e+00 -2.297762e+00 -2.809620e+00 -2.272571e+00 -2.861176e+00 -2.238158e+00 -2.989772e+00 -1.713188e+00 -4.216930e+00 -6.857727e+00 -5.014174e-01 0 0 0 0 
0 0 0 0 0 -2.307880e+00 -5.207442e+00 -1.277414e+00 -1.577533e+00 -1.736137e+00 -1.685678e+00 -1.730539e+00 1.420015e+00 4.784951e+01 6.678740e+01 5.350733e+01 5.671848e+01 5.851877e+01 5.110234e+01 6.654392e+01 4.896219e+01 3.666588e-01 -1.551991e+00 -1.770150e+00 -1.654327e+00 -1.809317e+00 -1.715883e+00 -1.822387e+00 -1.761177e+00 -1.822082e+00 -1.795524e+00 -1.815222e+00 -1.821708e+00 -1.804831e+00 -1.839759e+00 -1.793546e+00 -1.850773e+00 -1.782722e+00 -1.854697e+00 -1.773559e+00 -1.851913e+00 -1.766747e+00 -1.842352e+00 -1.761460e+00 -1.827006e+00 -1.755027e+00 -1.807211e+00 -1.745092e+00 -1.781317e+00 -1.727892e+00 -1.746732e+00 -1.697494e+00 -1.697836e+00 -1.642538e+00 -1.624225e+00 -1.080586e+00 3.057757e+00 5.450613e+00 1.265222e+00 8.462749e-01 -2.036957e+00 -1.069828e+01 -8.164001e+00 6.746836e-01 3.820904e+00 1.786353e+00 -4.458740e-01 1.495488e-01 -6.451383e+00 -1.678742e+01 -1.465910e+01 -7.069351e+00 -3.509929e+00 -2.197785e+00 -1.697804e+00 -1.709320e+00 -1.719737e+00 -1.729401e+00 -1.736449e+00 -1.735638e+00 -1.749113e+00 -1.732322e+00 -1.759434e+00 -1.725979e+00 -1.762914e+00 -1.720330e+00 -1.761988e+00 -1.713081e+00 -1.761144e+00 -1.705687e+00 -1.761025e+00 -1.699108e+00 -1.761754e+00 -1.695319e+00 -1.762048e+00 -1.694837e+00 -1.761526e+00 -1.699392e+00 -1.759076e+00 -1.710213e+00 -1.752949e+00 -1.727876e+00 -1.741968e+00 -1.751440e+00 -1.725018e+00 -1.779105e+00 -1.701168e+00 -1.810484e+00 -1.672108e+00 -1.842921e+00 -1.640896e+00 -1.876294e+00 -1.611202e+00 -1.909275e+00 -1.586872e+00 -1.940312e+00 -1.569185e+00 -1.975553e+00 -1.544853e+00 -2.063388e+00 -1.180542e+00 -2.910684e+00 -4.736524e+00 -3.463464e-01 0 0 0 0 
0 0 0 0 0 -1.029236e-01 -2.328967e-01 -5.809127e-02 -7.066041e-02 -7.740533e-02 -7.522146e-02 -7.729230e-02 6.296771e-02 5.373281e+01 5.870095e+01 5.505426e+01 5.664056e+01 5.677980e+01 5.481606e+01 5.842613e+01 5.387281e+01 1.631161e-02 -6.900569e-02 -7.872037e-02 -7.357926e-02 -8.047284e-02 -7.631732e-02 -8.104968e-02 -7.832393e-02 -8.102766e-02 -7.984256e-02 -8.071500e-02 -8.100056e-02 -8.024867e-02 -8.180105e-02 -7.974679e-02 -8.229276e-02 -7.926908e-02 -8.247224e-02 -7.886745e-02 -8.235500e-02 -7.857119e-02 -8.193652e-02 -7.834252e-02 -8.126004e-02 -7.806167e-02 -8.038435e-02 -7.762364e-02 -7.923593e-02 -7.686115e-02 -7.769978e-02 -7.551086e-02 -7.552685e-02 -7.306834e-02 -7.225515e-02 -4.807393e-02 8.628857e-02 -4.654218e-01 -1.156995e+00 -1.199965e+00 -2.030206e+00 -2.438277e+00 -1.548500e+00 -8.922748e-01 -9.121704e-01 -1.339064e+00 -1.639256e+00 -2.005163e+00 -3.158477e+00 -3.290537e+00 -1.789682e+00 -6.682603e-01 -2.156360e-01 -9.779620e-02 -7.554940e-02 -7.606243e-02 -7.652668e-02 -7.695732e-02 -7.727167e-02 -7.723637e-02 -7.783692e-02 -7.709096e-02 -7.829872e-02 -7.681173e-02 -7.845690e-02 -7.656387e-02 -7.841916e-02 -7.624444e-02 -7.838441e-02 -7.591762e-02 -7.838074e-02 -7.562556e-02 -7.841329e-02 -7.545601e-02 -7.842495e-02 -7.543223e-02 -7.839925e-02 -7.563218e-02 -7.828824e-02 -7.611254e-02 -7.801616e-02 -7.690088e-02 -7.753186e-02 -7.795610e-02 -7.678554e-02 -7.919685e-02 -7.573330e-02 -8.060219e-02 -7.444527e-02 -8.204778e-02 -7.305051e-02 -8.352086e-02 -7.170544e-02 -8.495649e-02 -7.057700e-02 -8.628196e-02 -6.971679e-02 -8.775671e-02 -6.849096e-02 -9.141534e-02 -5.184136e-02 -1.290488e-01 -2.107779e-01 -1.541902e-02 0 0 0 0 
0 0 0 0 0 0 0 0 0 0 0 0 0 5.884675e+01 6.420371e+01 6.030982e+01 6.187586e+01 6.228873e+01 5.980704e+01 6.421482e+01 5.869231e+01 0 0 0 0 0 0 0 0 0 0 0 0 0 0 0 0 0 0 0 0 0 0 0 0 0 0 0 0 0 0 0 0 0 0 0 -1.107483e-02 -2.288968e-01 -3.570886e-01 -2.697681e-01 -2.997900e-01 -3.273999e-01 -3.149939e-01 -2.775988e-01 -2.889257e-01 -3.030762e-01 -2.167143e-01 -1.593539e-01 -1.181221e-01 -9.641161e-02 -1.123350e-01 -7.011831e-02 -1.357917e-02 0 0 0 0 0 0 0 0 0 0 0 0 0 0 0 0 0 0 0 0 0 0 0 0 0 0 0 0 0 0 0 0 0 0 0 0 0 0 0 0 0 0 0 0 0 0 0 0 0 0 0 0 0 0 0 
0 0 0 0 0 0 0 0 0 0 0 0 0 5.791076e+01 5.999208e+01 5.820401e+01 5.901370e+01 5.890981e+01 5.825339e+01 5.977275e+01 5.797798e+01 0 0 0 0 0 0 0 0 0 0 0 0 0 0 0 0 0 0 0 0 0 0 0 0 0 0 0 0 0 0 0 0 0 0 0 2.878578e-02 1.118397e-01 1.156521e-01 6.730328e-02 1.129187e-01 1.073523e-01 3.731066e-02 6.264384e-02 8.252582e-02 6.932882e-02 6.295530e-02 5.488957e-02 9.642148e-02 9.491253e-02 3.505343e-02 -1.689421e-04 -3.522167e-03 0 0 0 0 0 0 0 0 0 0 0 0 0 0 0 0 0 0 0 0 0 0 0 0 0 0 0 0 0 0 0 0 0 0 0 0 0 0 0 0 0 0 0 0 0 0 0 0 0 0 0 0 0 0 0 
0 0 0 0 0 0 0 0 0 0 0 0 0 6.146994e+01 6.419516e+01 6.205657e+01 6.290847e+01 6.314410e+01 6.176361e+01 6.428543e+01 6.122534e+01 0 0 0 0 0 0 0 0 0 0 0 0 0 0 0 0 0 0 0 0 0 0 0 0 0 0 0 0 0 0 0 0 0 0 0 1.857146e-02 8.080496e-02 9.548231e-02 6.555705e-02 9.881893e-02 9.782069e-02 6.233692e-02 7.872023e-02 8.398634e-02 7.355763e-02 6.863199e-02 5.705328e-02 6.989564e-02 6.060017e-02 3.114662e-02 1.579715e-02 1.040938e-03 0 0 0 0 0 0 0 0 0 0 0 0 0 0 0 0 0 0 0 0 0 0 0 0 0 0 0 0 0 0 0 0 0 0 0 0 0 0 0 0 0 0 0 0 0 0 0 0 0 0 0 0 0 0 0 
0 0 0 0 0 0 0 0 0 0 0 0 0 5.791095e+01 5.999339e+01 5.820441e+01 5.901361e+01 5.891111e+01 5.825082e+01 5.977509e+01 5.797319e+01 0 0 0 0 0 0 0 0 0 0 0 0 0 0 0 0 0 0 0 0 0 0 0 0 0 0 0 0 0 0 0 0 0 0 0 2.769732e-03 1.048164e-02 1.592300e-02 1.663321e-02 2.333590e-02 1.736315e-02 1.974722e-03 5.742958e-03 1.306124e-02 1.856277e-02 3.410003e-02 4.488367e-02 5.935658e-02 4.849866e-02 1.691878e-02 5.305506e-03 3.158228e-05 0 0 0 0 0 0 0 0 0 0 0 0 0 0 0 0 0 0 0 0 0 0 0 0 0 0 0 0 0 0 0 0 0 0 0 0 0 0 0 0 0 0 0 0 0 0 0 0 0 0 0 0 0 0 0 
0 0 0 0 0 0 0 0 0 0 0 0 0 5.884285e+01 6.421087e+01 6.030593e+01 6.187917e+01 6.228957e+01 5.979956e+01 6.422434e+01 5.867288e+01 0 0 0 0 0 0 0 0 0 0 0 0 0 0 0 0 0 0 0 0 0 0 0 0 0 0 0 0 0 0 0 0 0 0 0 0 0 0 0 0 0 0 0 0 0 0 0 0 0 0 0 0 0 0 0 0 0 0 0 0 0 0 0 0 0 0 0 0 0 0 0 0 0 0 0 0 0 0 0 0 0 0 0 0 0 0 0 0 0 0 0 0 0 0 0 0 0 0 0 0 0 0 0 0 0 0 0 
0 0 0 0 0 -1.027740e-01 -2.327296e-01 -5.768797e-02 -7.005063e-02 -7.682990e-02 -7.464199e-02 -7.682072e-02 6.339751e-02 5.373118e+01 5.870877e+01 5.505276e+01 5.664455e+01 5.678312e+01 5.480735e+01 5.843751e+01 5.384716e+01 1.601057e-02 -6.908683e-02 -7.890309e-02 -7.367842e-02 -8.064578e-02 -7.635295e-02 -8.110799e-02 -7.824525e-02 -8.092770e-02 -7.965630e-02 -8.050100e-02 -8.076435e-02 -8.004906e-02 -8.166242e-02 -7.969403e-02 -8.239310e-02 -7.950377e-02 -8.298079e-02 -7.950704e-02 -8.343199e-02 -7.969029e-02 -8.372207e-02 -7.999991e-02 -8.382464e-02 -8.036977e-02 -8.374701e-02 -8.075054e-02 -8.352424e-02 -8.110531e-02 -8.316855e-02 -8.134345e-02 -8.259052e-02 -8.125717e-02 -8.157347e-02 -8.054694e-02 -7.987181e-02 -7.883782e-02 -7.854682e-02 -7.874680e-02 -7.812957e-02 -7.966569e-02 -7.907830e-02 -7.951678e-02 -7.795492e-02 -7.907870e-02 -7.837525e-02 -7.905023e-02 -7.887489e-02 -8.079506e-02 -8.105518e-02 -8.158291e-02 -8.072320e-02 -8.054077e-02 -7.964699e-02 -7.936770e-02 -7.878944e-02 -7.838689e-02 -7.815757e-02 -7.759593e-02 -7.775444e-02 -7.701420e-02 -7.756103e-02 -7.664050e-02 -7.754477e-02 -7.642004e-02 -7.766881e-02 -7.629082e-02 -7.788491e-02 -7.621075e-02 -7.813583e-02 -7.615196e-02 -7.835965e-02 -7.611042e-02 -7.849474e-02 -7.610893e-02 -7.849526e-02 -7.620539e-02 -7.832101e-02 -7.645853e-02 -7.792717e-02 -7.691448e-02 -7.729305e-02 -7.762810e-02 -7.643269e-02 -7.865074e-02 -7.539835e-02 -7.998402e-02 -7.425039e-02 -8.155006e-02 -7.304153e-02 -8.320744e-02 -7.186133e-02 -8.480152e-02 -7.083424e-02 -8.627019e-02 -7.000282e-02 -8.785560e-02 -6.877524e-02 -9.158436e-02 -5.206547e-02 -1.291541e-01 -2.108639e-01 -1.545591e-02 0 0 0 0 
0 0 0 0 0 -2.304528e+00 -5.203736e+00 -1.268427e+00 -1.563875e+00 -1.723224e+00 -1.672670e+00 -1.719952e+00 1.429663e+00 4.783438e+01 6.680478e+01 5.348095e+01 5.675175e+01 5.850497e+01 5.109305e+01 6.660562e+01 4.888374e+01 3.599542e-01 -1.553777e+00 -1.774229e+00 -1.656535e+00 -1.813185e+00 -1.716664e+00 -1.823675e+00 -1.759382e+00 -1.819800e+00 -1.791298e+00 -1.810362e+00 -1.816345e+00 -1.800285e+00 -1.836585e+00 -1.792304e+00 -1.852977e+00 -1.787953e+00 -1.866090e+00 -1.787903e+00 -1.876096e+00 -1.791880e+00 -1.882472e+00 -1.798705e+00 -1.884649e+00 -1.806909e+00 -1.882803e+00 -1.815388e+00 -1.877720e+00 -1.823302e+00 -1.869665e+00 -1.828605e+00 -1.856620e+00 -1.826620e+00 -1.833708e+00 -1.810608e+00 -1.795406e+00 -1.772139e+00 -1.765567e+00 -1.770035e+00 -1.756126e+00 -1.790623e+00 -1.777383e+00 -1.787210e+00 -1.752070e+00 -1.777303e+00 -1.761461e+00 -1.776613e+00 -1.772646e+00 -1.815786e+00 -1.821608e+00 -1.833455e+00 -1.814110e+00 -1.809995e+00 -1.789886e+00 -1.783594e+00 -1.770577e+00 -1.761513e+00 -1.756339e+00 -1.743695e+00 -1.747232e+00 -1.730565e+00 -1.742824e+00 -1.722099e+00 -1.742390e+00 -1.717076e+00 -1.745114e+00 -1.714114e+00 -1.749921e+00 -1.712277e+00 -1.755532e+00 -1.710943e+00 -1.760557e+00 -1.710025e+00 -1.763618e+00 -1.710035e+00 -1.763674e+00 -1.712253e+00 -1.759793e+00 -1.717962e+00 -1.750928e+00 -1.728160e+00 -1.736586e+00 -1.744058e+00 -1.717082e+00 -1.766833e+00 -1.693644e+00 -1.796606e+00 -1.667747e+00 -1.831768e+00 -1.640733e+00 -1.869305e+00 -1.614764e+00 -1.905867e+00 -1.592729e+00 -1.940132e+00 -1.575696e+00 -1.977855e+00 -1.551317e+00 -2.067255e+00 -1.185630e+00 -2.913072e+00 -4.738458e+00 -3.471758e-01 0 0 0 0 
0 0 0 0 0 -3.335325e+00 -7.527558e+00 -1.829395e+00 -2.261631e+00 -2.494122e+00 -2.420576e+00 -2.488607e+00 2.071195e+00 1.296591e+01 1.761138e+01 1.374519e+01 1.542816e+01 1.521541e+01 1.370916e+01 1.706436e+01 1.414959e+01 5.211991e-01 -2.249946e+00 -2.569090e+00 -2.398615e+00 -2.625440e+00 -2.485679e+00 -2.640654e+00 -2.547578e+00 -2.635088e+00 -2.593840e+00 -2.621462e+00 -2.630141e+00 -2.606893e+00 -2.659461e+00 -2.595336e+00 -2.683187e+00 -2.589017e+00 -2.702148e+00 -2.588914e+00 -2.716602e+00 -2.594636e+00 -2.725797e+00 -2.604484e+00 -2.728916e+00 -2.616335e+00 -2.726217e+00 -2.628591e+00 -2.718839e+00 -2.640035e+00 -2.707161e+00 -2.647701e+00 -2.688259e+00 -2.644815e+00 -2.655073e+00 -2.621618e+00 -2.599601e+00 -2.565905e+00 -2.556383e+00 -2.562846e+00 -2.542698e+00 -2.592638e+00 -2.573458e+00 -2.587680e+00 -2.536791e+00 -2.573319e+00 -2.550374e+00 -2.572308e+00 -2.566557e+00 -2.629015e+00 -2.637438e+00 -2.654588e+00 -2.626573e+00 -2.620611e+00 -2.591490e+00 -2.582375e+00 -2.563525e+00 -2.550397e+00 -2.542900e+00 -2.524587e+00 -2.529703e+00 -2.505563e+00 -2.523305e+00 -2.493287e+00 -2.522659e+00 -2.485997e+00 -2.526586e+00 -2.481695e+00 -2.533534e+00 -2.479026e+00 -2.541650e+00 -2.477091e+00 -2.548925e+00 -2.475766e+00 -2.553363e+00 -2.475792e+00 -2.553455e+00 -2.479016e+00 -2.547844e+00 -2.487287e+00 -2.535007e+00 -2.502038e+00 -2.514218e+00 -2.525021e+00 -2.485936e+00 -2.557945e+00 -2.451953e+00 -2.601002e+00 -2.414432e+00 -2.651904e+00 -2.375358e+00 -2.706326e+00 -2.337900e+00 -2.759451e+00 -2.306261e+00 -2.809380e+00 -2.282020e+00 -2.864529e+00 -2.247537e+00 -2.995390e+00 -1.720569e+00 -4.220393e+00 -6.860527e+00 -5.026184e-01 0 0 0 0 
0 0 0 0 0 -1.133571e+00 -2.556552e+00 -6.186562e-01 -7.678074e-01 -8.477279e-01 -8.225479e-01 -8.454759e-01 7.049297e-01 4.409350e+00 5.988661e+00 4.674215e+00 5.246534e+00 5.174438e+00 4.662381e+00 5.803650e+00 4.812380e+00 1.772555e-01 -7.652554e-01 -8.737644e-01 -8.157586e-01 -8.929009e-01 -8.453684e-01 -8.980870e-01 -8.664412e-01 -8.962163e-01 -8.821981e-01 -8.916011e-01 -8.945607e-01 -8.866568e-01 -9.045381e-01 -8.827264e-01 -9.126028e-01 -8.805683e-01 -9.190389e-01 -8.805181e-01 -9.239376e-01 -8.824463e-01 -9.270467e-01 -8.857788e-01 -9.280915e-01 -8.897958e-01 -9.271615e-01 -8.939537e-01 -9.246431e-01 -8.978382e-01 -9.206643e-01 -9.004392e-01 -9.142298e-01 -8.994520e-01 -9.029377e-01 -8.915576e-01 -8.840667e-01 -8.726046e-01 -8.693627e-01 -8.715570e-01 -8.647008e-01 -8.816804e-01 -8.751533e-01 -8.799861e-01 -8.626761e-01 -8.750948e-01 -8.672885e-01 -8.747450e-01 -8.727860e-01 -8.940240e-01 -8.968851e-01 -9.027155e-01 -8.931860e-01 -8.911567e-01 -8.812512e-01 -8.781496e-01 -8.717367e-01 -8.672703e-01 -8.647185e-01 -8.584881e-01 -8.602248e-01 -8.520118e-01 -8.580417e-01 -8.478292e-01 -8.578134e-01 -8.453416e-01 -8.591410e-01 -8.438717e-01 -8.614977e-01 -8.429594e-01 -8.642540e-01 -8.422996e-01 -8.667276e-01 -8.418513e-01 -8.682398e-01 -8.418652e-01 -8.682765e-01 -8.429677e-01 -8.663728e-01 -8.457828e-01 -8.620056e-01 -8.507932e-01 -8.549250e-01 -8.585916e-01 -8.452866e-01 -8.697620e-01 -8.337067e-01 -8.843807e-01 -8.209352e-01 -9.016861e-01 -8.076668e-01 -9.202287e-01 -7.949969e-01 -9.383849e-01 -7.843668e-01 -9.555185e-01 -7.763262e-01 -9.745296e-01 -7.649946e-01 -1.019719e+00 -5.870040e-01 -1.436475e+00 -2.332933e+00 -1.708985e-01 0 0 0 0 
0 0 0 0 0 0 0 0 0 0 0 0 0 0 0 0 0 0 0 0 0 0 0 0 0 0 0 0 0 0 0 0 0 0 0 0 0 0 0 0 0 0 0 0 0 0 0 0 0 0 0 0 0 0 0 0 0 0 0 0 0 0 0 0 0 0 0 0 0 0 0 0 0 0 0 0 0 0 0 0 0 0 0 0 0 0 0 0 0 0 0 0 0 0 0 0 0 0 0 0 0 0 0 0 0 0 0 0 0 0 0 0 0 0 0 0 0 0 0 0 0 0 0 0 0 0 0 0 
