# vtk DataFile Version 2.0
Comment goes here
ASCII

DATASET STRUCTURED_POINTS
FIELD FieldData 1
TIME 1 1 double
0.95000000
DIMENSIONS    128   16   1

ORIGIN    0.000   0.000   0.000
SPACING   0.0078125 0.015625   1.000

POINT_DATA   2048
SCALARS fX double
LOOKUP_TABLE default

0 0 0 0 0 0 0 0 0 0 0 0 0 0 0 0 0 0 0 0 0 0 0 0 0 0 0 0 0 0 0 0 0 0 0 0 0 0 0 0 0 0 0 0 0 0 0 0 0 0 0 0 0 0 0 0 0 0 0 0 0 0 0 0 0 0 0 0 0 0 0 0 0 0 0 0 0 0 0 0 0 0 0 0 0 0 0 0 0 0 0 0 0 0 0 0 0 0 0 0 0 0 0 0 0 0 0 0 0 0 0 0 0 0 0 0 0 0 0 0 0 0 0 0 0 0 0 0 
0 0 0 0 0 0 0 0 0 0 0 0 0 0 0 0 0 0 0 0 0 0 0 0 0 0 0 0 0 0 0 0 0 0 0 0 0 0 0 0 0 0 0 0 0 0 0 0 0 0 0 0 0 0 0 0 0 0 0 0 0 0 0 0 0 0 0 0 0 0 0 0 0 0 0 0 0 0 0 0 0 0 0 0 0 0 0 0 0 0 0 0 0 0 0 0 0 0 0 0 0 0 0 0 0 0 0 0 0 0 0 0 0 0 0 0 0 0 0 0 0 0 0 0 0 0 0 0 
0 0 0 0 0 5.781264e-02 2.813712e+00 1.363713e+00 6.714137e-01 1.060854e+00 7.927778e-01 1.009912e+00 -1.096382e+00 -5.099943e+00 -6.743763e+00 -5.404483e+00 -6.432438e+00 -5.917026e+00 -5.771110e+00 -6.682126e+00 -5.160185e+00 -5.696721e-01 8.775629e-01 9.134918e-01 9.207350e-01 9.361973e-01 9.478737e-01 9.418896e-01 9.656064e-01 9.397645e-01 9.769255e-01 9.355897e-01 9.842710e-01 9.321017e-01 9.888327e-01 9.301934e-01 9.906504e-01 9.297238e-01 9.896598e-01 9.293318e-01 9.858202e-01 9.282899e-01 9.790099e-01 9.261461e-01 9.679934e-01 9.226091e-01 9.514611e-01 9.155182e-01 9.273217e-01 9.014564e-01 8.921302e-01 8.751155e-01 8.401447e-01 8.270893e-01 7.610867e-01 6.567624e-01 -1.024909e+00 -2.441064e+00 -1.571716e+00 -8.894518e-01 -1.961057e-01 1.975226e+00 2.624741e+00 5.481162e-01 -1.403055e+00 -3.694831e-01 -1.085094e-01 -2.827742e-01 9.710373e-01 1.458152e+00 3.345743e+00 5.168761e+00 3.873068e+00 1.775249e+00 9.421046e-01 9.311683e-01 9.611130e-01 9.364331e-01 9.679216e-01 9.378969e-01 9.675154e-01 9.406700e-01 9.639568e-01 9.434320e-01 9.618781e-01 9.451561e-01 9.614159e-01 9.466046e-01 9.622225e-01 9.472607e-01 9.643431e-01 9.464134e-01 9.672293e-01 9.446009e-01 9.702518e-01 9.417101e-01 9.727949e-01 9.390100e-01 9.735474e-01 9.368893e-01 9.726995e-01 9.357803e-01 9.700865e-01 9.370049e-01 9.650228e-01 9.421200e-01 9.571642e-01 9.516477e-01 9.460301e-01 9.659842e-01 9.315454e-01 9.848342e-01 9.142032e-01 1.007946e+00 8.950774e-01 1.034861e+00 8.751575e-01 1.067672e+00 8.517079e-01 1.126290e+00 7.239645e-01 1.762583e+00 2.127186e+00 1.405344e-01 0 0 0 0 
0 0 0 0 0 1.700791e-01 8.278759e+00 4.016549e+00 1.977183e+00 3.119107e+00 2.329164e+00 2.967198e+00 -3.227911e+00 -1.500454e+01 -1.983901e+01 -1.589953e+01 -1.892347e+01 -1.740779e+01 -1.697942e+01 -1.966079e+01 -1.518372e+01 -1.676623e+00 2.582021e+00 2.687784e+00 2.709129e+00 2.754671e+00 2.789069e+00 2.771498e+00 2.841311e+00 2.765286e+00 2.874638e+00 2.753000e+00 2.896230e+00 2.742701e+00 2.909605e+00 2.737034e+00 2.914897e+00 2.735599e+00 2.911930e+00 2.734400e+00 2.900591e+00 2.731301e+00 2.880522e+00 2.724971e+00 2.848089e+00 2.714552e+00 2.799436e+00 2.693682e+00 2.728404e+00 2.652301e+00 2.624854e+00 2.574790e+00 2.471888e+00 2.433470e+00 2.239265e+00 1.932312e+00 -3.183993e+00 -7.932252e+00 -5.032297e+00 -1.953685e+00 1.230762e+00 7.305374e+00 7.218175e+00 1.540208e-01 -5.313684e+00 -1.546101e+00 2.540693e-01 8.863757e-01 5.360616e+00 6.231801e+00 9.903438e+00 1.477718e+01 1.143613e+01 5.222642e+00 2.771562e+00 2.739376e+00 2.827459e+00 2.754851e+00 2.847473e+00 2.759140e+00 2.846256e+00 2.767271e+00 2.835756e+00 2.775362e+00 2.829607e+00 2.780399e+00 2.828216e+00 2.784630e+00 2.830564e+00 2.786538e+00 2.836786e+00 2.784035e+00 2.845273e+00 2.778707e+00 2.854176e+00 2.770225e+00 2.861686e+00 2.762322e+00 2.863944e+00 2.756135e+00 2.861497e+00 2.752920e+00 2.853845e+00 2.756545e+00 2.838946e+00 2.771566e+00 2.815768e+00 2.799502e+00 2.782895e+00 2.841530e+00 2.740131e+00 2.896823e+00 2.688991e+00 2.964720e+00 2.632731e+00 3.043999e+00 2.574445e+00 3.141156e+00 2.506912e+00 3.317061e+00 2.139256e+00 5.193274e+00 6.258910e+00 4.133065e-01 0 0 0 0 
0 0 0 0 0 1.175037e-01 5.720137e+00 2.777191e+00 1.366935e+00 2.154039e+00 1.607659e+00 2.048097e+00 -2.231284e+00 -5.410074e+01 -7.174873e+01 -6.045686e+01 -6.702938e+01 -6.562826e+01 -6.087082e+01 -7.393989e+01 -5.180092e+01 -1.158682e+00 1.784013e+00 1.857113e+00 1.871878e+00 1.903368e+00 1.927155e+00 1.915032e+00 1.963284e+00 1.910760e+00 1.986322e+00 1.902270e+00 2.001231e+00 1.895136e+00 2.010449e+00 1.891195e+00 2.014078e+00 1.890178e+00 2.012003e+00 1.889327e+00 2.004148e+00 1.887170e+00 1.990267e+00 1.882786e+00 1.967848e+00 1.875580e+00 1.934227e+00 1.861157e+00 1.885145e+00 1.832563e+00 1.813594e+00 1.779002e+00 1.707899e+00 1.681353e+00 1.547165e+00 1.335079e+00 -2.286080e+00 -5.279680e+00 -2.510354e+00 3.219211e-01 3.469492e+00 7.580358e+00 6.205821e+00 6.449730e-01 -2.629961e+00 8.334480e-01 2.604582e+00 3.974633e+00 7.669838e+00 7.702353e+00 8.768810e+00 1.099628e+01 8.211492e+00 3.608221e+00 1.914801e+00 1.892558e+00 1.953407e+00 1.903243e+00 1.967227e+00 1.906198e+00 1.966375e+00 1.911802e+00 1.959106e+00 1.917375e+00 1.954841e+00 1.920838e+00 1.953865e+00 1.923746e+00 1.955475e+00 1.925054e+00 1.959766e+00 1.923320e+00 1.965627e+00 1.919640e+00 1.971783e+00 1.913791e+00 1.976986e+00 1.908351e+00 1.978567e+00 1.904101e+00 1.976900e+00 1.901904e+00 1.971630e+00 1.904419e+00 1.961336e+00 1.914783e+00 1.945294e+00 1.934039e+00 1.922525e+00 1.963003e+00 1.892908e+00 2.001125e+00 1.857518e+00 2.047988e+00 1.818652e+00 2.102807e+00 1.778537e+00 2.170235e+00 1.732584e+00 2.293440e+00 1.482529e+00 3.591756e+00 4.324592e+00 2.854801e-01 0 0 0 0 
0 0 0 0 0 5.237313e-03 2.550896e-01 1.243544e-01 6.116622e-02 9.578481e-02 7.127317e-02 9.081139e-02 -9.975461e-02 -6.106184e+01 -6.667268e+01 -6.255960e+01 -6.483046e+01 -6.450585e+01 -6.267649e+01 -6.648608e+01 -6.083472e+01 -5.173088e-02 7.955516e-02 8.282112e-02 8.348368e-02 8.489389e-02 8.595983e-02 8.542360e-02 8.757931e-02 8.523818e-02 8.860951e-02 8.485930e-02 8.927191e-02 8.453673e-02 8.967720e-02 8.435447e-02 8.983210e-02 8.430250e-02 8.973313e-02 8.425899e-02 8.937763e-02 8.415864e-02 8.875484e-02 8.396044e-02 8.775269e-02 8.363758e-02 8.625201e-02 8.299351e-02 8.406247e-02 8.171758e-02 8.087078e-02 7.932795e-02 7.615619e-02 7.497175e-02 6.898682e-02 5.952881e-02 -1.157136e-01 6.769918e-01 1.788647e+00 2.104243e+00 2.715354e+00 2.991582e+00 2.353747e+00 1.658654e+00 1.972463e+00 2.767469e+00 2.882535e+00 3.459206e+00 3.897884e+00 3.484583e+00 2.696194e+00 1.654028e+00 7.273066e-01 1.608279e-01 8.534342e-02 8.435048e-02 8.706118e-02 8.482500e-02 8.767523e-02 8.495458e-02 8.763446e-02 8.520097e-02 8.730673e-02 8.544515e-02 8.711247e-02 8.559520e-02 8.706506e-02 8.572109e-02 8.713375e-02 8.577671e-02 8.732306e-02 8.569807e-02 8.758373e-02 8.553458e-02 8.785948e-02 8.527665e-02 8.809491e-02 8.503914e-02 8.817073e-02 8.485610e-02 8.810236e-02 8.476408e-02 8.787172e-02 8.487890e-02 8.741264e-02 8.533746e-02 8.669043e-02 8.618430e-02 8.566109e-02 8.745691e-02 8.432247e-02 8.913622e-02 8.273013e-02 9.121332e-02 8.099856e-02 9.366870e-02 7.924958e-02 9.675132e-02 7.738013e-02 1.026682e-01 6.723772e-02 1.610651e-01 1.928687e-01 1.270804e-02 0 0 0 0 
0 0 0 0 0 0 0 0 0 0 0 0 0 -6.674130e+01 -7.253776e+01 -6.834924e+01 -7.048935e+01 -7.052226e+01 -6.812535e+01 -7.271546e+01 -6.617060e+01 0 0 0 0 0 0 0 0 0 0 0 0 0 0 0 0 0 0 0 0 0 0 0 0 0 0 0 0 0 0 0 0 0 0 0 7.539635e-03 4.689506e-01 8.729102e-01 7.692694e-01 7.061042e-01 7.831225e-01 8.321661e-01 7.020309e-01 7.519293e-01 8.115146e-01 6.678724e-01 6.495620e-01 5.639394e-01 4.954657e-01 4.946765e-01 3.167418e-01 9.951962e-02 0 0 0 0 0 0 0 0 0 0 0 0 0 0 0 0 0 0 0 0 0 0 0 0 0 0 0 0 0 0 0 0 0 0 0 0 0 0 0 0 0 0 0 0 0 0 0 0 0 0 0 0 0 0 0 
0 0 0 0 0 0 0 0 0 0 0 0 0 -6.607439e+01 -6.845131e+01 -6.638961e+01 -6.738482e+01 -6.720117e+01 -6.649519e+01 -6.822483e+01 -6.609898e+01 0 0 0 0 0 0 0 0 0 0 0 0 0 0 0 0 0 0 0 0 0 0 0 0 0 0 0 0 0 0 0 0 0 0 0 -1.483893e-02 -1.001504e-01 -1.089565e-01 -4.229824e-02 -8.996482e-02 -1.045691e-01 -5.302418e-02 -7.227728e-02 -1.052135e-01 -1.140828e-01 -1.077128e-01 -1.274389e-01 -1.813887e-01 -1.784723e-01 -1.251127e-01 -4.124008e-02 5.683077e-03 0 0 0 0 0 0 0 0 0 0 0 0 0 0 0 0 0 0 0 0 0 0 0 0 0 0 0 0 0 0 0 0 0 0 0 0 0 0 0 0 0 0 0 0 0 0 0 0 0 0 0 0 0 0 0 
0 0 0 0 0 0 0 0 0 0 0 0 0 -6.982370e+01 -7.283023e+01 -7.044431e+01 -7.148845e+01 -7.165418e+01 -7.018469e+01 -7.296926e+01 -6.945169e+01 0 0 0 0 0 0 0 0 0 0 0 0 0 0 0 0 0 0 0 0 0 0 0 0 0 0 0 0 0 0 0 0 0 0 0 -1.339919e-02 -1.228760e-01 -1.752649e-01 -1.284452e-01 -1.638564e-01 -1.789232e-01 -1.640372e-01 -1.703527e-01 -1.827633e-01 -1.945997e-01 -1.706617e-01 -1.695768e-01 -1.783375e-01 -1.543903e-01 -1.567130e-01 -1.022695e-01 -1.640031e-02 0 0 0 0 0 0 0 0 0 0 0 0 0 0 0 0 0 0 0 0 0 0 0 0 0 0 0 0 0 0 0 0 0 0 0 0 0 0 0 0 0 0 0 0 0 0 0 0 0 0 0 0 0 0 0 
0 0 0 0 0 0 0 0 0 0 0 0 0 -6.607292e+01 -6.845281e+01 -6.638898e+01 -6.738572e+01 -6.720254e+01 -6.649452e+01 -6.822804e+01 -6.609676e+01 0 0 0 0 0 0 0 0 0 0 0 0 0 0 0 0 0 0 0 0 0 0 0 0 0 0 0 0 0 0 0 0 0 0 0 -2.302507e-03 -1.925913e-02 -3.181816e-02 -3.496583e-02 -4.051651e-02 -3.260373e-02 -2.020744e-02 -1.563042e-02 -1.741502e-02 -2.640548e-02 -3.560891e-02 -4.629900e-02 -5.063429e-02 -3.633040e-02 -2.200294e-02 -1.045538e-02 -1.443589e-03 0 0 0 0 0 0 0 0 0 0 0 0 0 0 0 0 0 0 0 0 0 0 0 0 0 0 0 0 0 0 0 0 0 0 0 0 0 0 0 0 0 0 0 0 0 0 0 0 0 0 0 0 0 0 0 
0 0 0 0 0 0 0 0 0 0 0 0 0 -6.673304e+01 -7.254530e+01 -6.834128e+01 -7.049423e+01 -7.052412e+01 -6.812008e+01 -7.273042e+01 -6.615628e+01 0 0 0 0 0 0 0 0 0 0 0 0 0 0 0 0 0 0 0 0 0 0 0 0 0 0 0 0 0 0 0 0 0 0 0 0 0 0 0 0 0 0 0 0 0 0 0 0 0 0 0 0 0 0 0 0 0 0 0 0 0 0 0 0 0 0 0 0 0 0 0 0 0 0 0 0 0 0 0 0 0 0 0 0 0 0 0 0 0 0 0 0 0 0 0 0 0 0 0 0 0 0 0 0 0 0 0 
0 0 0 0 0 5.137188e-03 2.554360e-01 1.247971e-01 6.190019e-02 9.640145e-02 7.195769e-02 9.136937e-02 -9.926907e-02 -6.105524e+01 -6.668151e+01 -6.255296e+01 -6.483690e+01 -6.451052e+01 -6.267439e+01 -6.650950e+01 -6.083235e+01 -5.168248e-02 7.920216e-02 8.256000e-02 8.325884e-02 8.487867e-02 8.603690e-02 8.578080e-02 8.805498e-02 8.597824e-02 8.944752e-02 8.586008e-02 9.031220e-02 8.563194e-02 9.075002e-02 8.544308e-02 9.088972e-02 8.541173e-02 9.085669e-02 8.560056e-02 9.074607e-02 8.601278e-02 9.061553e-02 8.662947e-02 9.051719e-02 8.745757e-02 9.051843e-02 8.852056e-02 9.068988e-02 8.981104e-02 9.104323e-02 9.123769e-02 9.148979e-02 9.259837e-02 9.180817e-02 9.354958e-02 9.165187e-02 9.343460e-02 9.036138e-02 9.251055e-02 8.973906e-02 9.190345e-02 8.952232e-02 9.127560e-02 8.836079e-02 9.031790e-02 8.841248e-02 8.928071e-02 8.855513e-02 8.857318e-02 8.922488e-02 9.005931e-02 9.001029e-02 8.924781e-02 8.874110e-02 8.806751e-02 8.791663e-02 8.735265e-02 8.747622e-02 8.698349e-02 8.727910e-02 8.678680e-02 8.720938e-02 8.662394e-02 8.718726e-02 8.641787e-02 8.717812e-02 8.614864e-02 8.719209e-02 8.583330e-02 8.725766e-02 8.550531e-02 8.739282e-02 8.519861e-02 8.759247e-02 8.494791e-02 8.783121e-02 8.478753e-02 8.807106e-02 8.474855e-02 8.824543e-02 8.487499e-02 8.825915e-02 8.522140e-02 8.800484e-02 8.582446e-02 8.738538e-02 8.671604e-02 8.633753e-02 8.792148e-02 8.487242e-02 8.946327e-02 8.308963e-02 9.135607e-02 8.114326e-02 9.361495e-02 7.917697e-02 9.652138e-02 7.714375e-02 1.023420e-01 6.692138e-02 1.607682e-01 1.928717e-01 1.275385e-02 0 0 0 0 
0 0 0 0 0 1.152520e-01 5.727858e+00 2.787034e+00 1.383363e+00 2.167877e+00 1.623044e+00 2.060651e+00 -2.220348e+00 -5.408256e+01 -7.177262e+01 -6.040183e+01 -6.706619e+01 -6.561847e+01 -6.085605e+01 -7.404528e+01 -5.175320e+01 -1.157616e+00 1.776069e+00 1.851230e+00 1.866810e+00 1.903008e+00 1.928868e+00 1.923036e+00 1.973949e+00 1.927358e+00 2.005120e+00 1.924718e+00 2.024565e+00 1.919703e+00 2.034513e+00 1.915616e+00 2.037805e+00 1.915065e+00 2.037212e+00 1.919424e+00 2.034844e+00 1.928752e+00 2.031989e+00 1.942630e+00 2.029829e+00 1.961232e+00 2.029896e+00 1.985107e+00 2.033790e+00 2.014099e+00 2.041775e+00 2.046159e+00 2.051860e+00 2.076750e+00 2.059078e+00 2.098167e+00 2.055659e+00 2.095683e+00 2.026810e+00 2.075058e+00 2.012945e+00 2.061535e+00 2.008168e+00 2.047534e+00 1.982187e+00 2.026126e+00 1.983419e+00 2.002931e+00 1.986691e+00 1.987127e+00 2.001785e+00 2.020533e+00 2.019468e+00 2.002383e+00 1.991048e+00 1.975956e+00 1.972607e+00 1.959976e+00 1.962788e+00 1.951759e+00 1.958433e+00 1.947417e+00 1.956938e+00 1.943834e+00 1.956511e+00 1.939281e+00 1.956372e+00 1.933307e+00 1.956747e+00 1.926288e+00 1.958266e+00 1.918964e+00 1.961318e+00 1.912081e+00 1.965780e+00 1.906410e+00 1.971075e+00 1.902720e+00 1.976357e+00 1.901723e+00 1.980156e+00 1.904443e+00 1.980379e+00 1.912161e+00 1.974680e+00 1.925766e+00 1.960939e+00 1.946017e+00 1.937747e+00 1.973463e+00 1.905282e+00 2.008489e+00 1.865605e+00 2.051203e+00 1.821901e+00 2.101596e+00 1.776894e+00 2.165055e+00 1.727260e+00 2.286111e+00 1.475479e+00 3.585166e+00 4.324686e+00 2.865086e-01 0 0 0 0 
0 0 0 0 0 1.668184e-01 8.289924e+00 4.030775e+00 2.000950e+00 3.139138e+00 2.351439e+00 2.985378e+00 -3.212070e+00 -1.498919e+01 -1.984550e+01 -1.587365e+01 -1.893927e+01 -1.740507e+01 -1.697210e+01 -1.969737e+01 -1.518236e+01 -1.675085e+00 2.570517e+00 2.679262e+00 2.701788e+00 2.754145e+00 2.791544e+00 2.783081e+00 2.856746e+00 2.789310e+00 2.901846e+00 2.785491e+00 2.930004e+00 2.778259e+00 2.944434e+00 2.772381e+00 2.949238e+00 2.771623e+00 2.948419e+00 2.777962e+00 2.945020e+00 2.791484e+00 2.940906e+00 2.811582e+00 2.937791e+00 2.838514e+00 2.937899e+00 2.873078e+00 2.943547e+00 2.915052e+00 2.955119e+00 2.961470e+00 2.969733e+00 3.005764e+00 2.980199e+00 3.036784e+00 2.975273e+00 3.033212e+00 2.933542e+00 3.003386e+00 2.913498e+00 2.983837e+00 2.906605e+00 2.963593e+00 2.869020e+00 2.932627e+00 2.870822e+00 2.899073e+00 2.875575e+00 2.876215e+00 2.897440e+00 2.924583e+00 2.923050e+00 2.898327e+00 2.881929e+00 2.860090e+00 2.855251e+00 2.836975e+00 2.841054e+00 2.825098e+00 2.834767e+00 2.818830e+00 2.832622e+00 2.813663e+00 2.832021e+00 2.807091e+00 2.831838e+00 2.798460e+00 2.832395e+00 2.788316e+00 2.834606e+00 2.777722e+00 2.839030e+00 2.767760e+00 2.845483e+00 2.759540e+00 2.853131e+00 2.754175e+00 2.860751e+00 2.752701e+00 2.866221e+00 2.756609e+00 2.866523e+00 2.767765e+00 2.858277e+00 2.787476e+00 2.838426e+00 2.816852e+00 2.804939e+00 2.856680e+00 2.758050e+00 2.907488e+00 2.700702e+00 2.969376e+00 2.637435e+00 3.042245e+00 2.572064e+00 3.133653e+00 2.499200e+00 3.306451e+00 2.129063e+00 5.183755e+00 6.259052e+00 4.147953e-01 0 0 0 0 
0 0 0 0 0 5.670360e-02 2.817501e+00 1.368537e+00 6.794878e-01 1.067663e+00 8.003526e-01 1.016096e+00 -1.090992e+00 -5.094720e+00 -6.745969e+00 -5.395683e+00 -6.437814e+00 -5.916102e+00 -5.768623e+00 -6.694555e+00 -5.159716e+00 -5.691515e-01 8.736494e-01 9.105921e-01 9.182367e-01 9.360160e-01 9.487131e-01 9.458258e-01 9.708520e-01 9.479299e-01 9.861737e-01 9.466332e-01 9.957505e-01 9.441874e-01 1.000671e+00 9.422082e-01 1.002323e+00 9.419691e-01 1.002063e+00 9.441391e-01 1.000922e+00 9.487449e-01 9.995326e-01 9.555819e-01 9.984794e-01 9.647394e-01 9.985206e-01 9.764912e-01 1.000446e+00 9.907636e-01 1.004387e+00 1.006548e+00 1.009363e+00 1.021613e+00 1.012929e+00 1.032166e+00 1.011266e+00 1.030963e+00 9.970934e-01 1.020838e+00 9.902924e-01 1.014206e+00 9.879598e-01 1.007334e+00 9.751936e-01 9.968184e-01 9.758151e-01 9.854221e-01 9.774396e-01 9.776611e-01 9.848802e-01 9.941099e-01 9.935931e-01 9.851920e-01 9.796221e-01 9.722012e-01 9.705607e-01 9.643514e-01 9.657426e-01 9.603222e-01 9.636140e-01 9.582002e-01 9.628932e-01 9.564528e-01 9.626976e-01 9.542274e-01 9.626434e-01 9.513019e-01 9.628405e-01 9.478604e-01 9.635977e-01 9.442638e-01 9.651040e-01 9.408772e-01 9.672954e-01 9.380774e-01 9.698874e-01 9.362423e-01 9.724656e-01 9.357264e-01 9.743109e-01 9.370404e-01 9.744030e-01 9.408260e-01 9.716009e-01 9.475352e-01 9.648728e-01 9.575508e-01 9.535290e-01 9.711384e-01 9.376406e-01 9.884624e-01 9.181866e-01 1.009530e+00 8.966767e-01 1.034264e+00 8.743464e-01 1.065120e+00 8.490840e-01 1.122682e+00 7.205057e-01 1.759356e+00 2.127238e+00 1.410405e-01 0 0 0 0 
0 0 0 0 0 0 0 0 0 0 0 0 0 0 0 0 0 0 0 0 0 0 0 0 0 0 0 0 0 0 0 0 0 0 0 0 0 0 0 0 0 0 0 0 0 0 0 0 0 0 0 0 0 0 0 0 0 0 0 0 0 0 0 0 0 0 0 0 0 0 0 0 0 0 0 0 0 0 0 0 0 0 0 0 0 0 0 0 0 0 0 0 0 0 0 0 0 0 0 0 0 0 0 0 0 0 0 0 0 0 0 0 0 0 0 0 0 0 0 0 0 0 0 0 0 0 0 0 
