# vtk DataFile Version 2.0
Comment goes here
ASCII

DATASET STRUCTURED_POINTS
FIELD FieldData 1
TIME 1 1 double
0.72000000
DIMENSIONS    128   16   1

ORIGIN    0.000   0.000   0.000
SPACING   0.0078125 0.015625   1.000

POINT_DATA   2048
SCALARS fY double
LOOKUP_TABLE default

0 0 0 0 0 0 0 0 0 0 0 0 0 0 0 0 0 0 0 0 0 0 0 0 0 0 0 0 0 0 0 0 0 0 0 0 0 0 0 0 0 0 0 0 0 0 0 0 0 0 0 0 0 0 0 0 0 0 0 0 0 0 0 0 0 0 0 0 0 0 0 0 0 0 0 0 0 0 0 0 0 0 0 0 0 0 0 0 0 0 0 0 0 0 0 0 0 0 0 0 0 0 0 0 0 0 0 0 0 0 0 0 0 0 0 0 0 0 0 0 0 0 0 0 0 0 0 0 
0 0 0 0 0 0 0 0 0 0 0 0 0 0 0 0 0 0 0 0 0 0 0 0 0 0 0 0 0 0 0 0 0 0 0 0 0 0 0 0 0 0 0 0 0 0 0 0 0 0 0 0 0 0 0 0 0 0 0 0 0 0 0 0 0 0 0 0 0 0 0 0 0 0 0 0 0 0 0 0 0 0 0 0 0 0 0 0 0 0 0 0 0 0 0 0 0 0 0 0 0 0 0 0 0 0 0 0 0 0 0 0 0 0 0 0 0 0 0 0 0 0 0 0 0 0 0 0 
0 0 0 0 0 -1.040423e+00 -8.668759e-01 -7.470364e-01 -1.266255e+00 -9.150864e-01 -1.577043e+00 -1.143121e+00 -1.824602e+00 -1.126988e+00 1.873053e+00 4.427570e+00 5.940160e+00 8.247293e+00 1.045272e+01 1.161059e+01 1.564778e+01 1.584311e+01 1.553199e+01 1.561463e+01 1.523718e+01 1.534474e+01 1.496339e+01 1.510254e+01 1.473941e+01 1.486713e+01 1.451225e+01 1.457640e+01 1.422249e+01 1.419669e+01 1.387139e+01 1.379848e+01 1.358588e+01 1.353438e+01 1.345234e+01 1.337527e+01 1.332006e+01 1.313558e+01 1.305454e+01 1.278998e+01 1.271947e+01 1.244152e+01 1.240735e+01 1.215330e+01 1.215639e+01 1.194603e+01 1.197445e+01 1.180676e+01 1.182799e+01 1.168763e+01 1.167915e+01 1.158019e+01 1.169617e+01 1.260012e+01 1.377586e+01 1.452128e+01 1.644154e+01 1.496923e+01 1.007078e+01 9.738554e+00 1.174703e+01 1.349524e+01 1.480960e+01 1.599885e+01 1.816823e+01 1.572905e+01 8.696424e+00 6.997402e+00 8.053481e+00 8.067722e+00 7.816326e+00 7.706911e+00 7.475657e+00 7.319215e+00 7.145724e+00 6.968477e+00 6.868818e+00 6.660929e+00 6.613272e+00 6.373038e+00 6.375666e+00 6.117559e+00 6.138375e+00 5.843146e+00 5.835786e+00 5.517489e+00 5.476443e+00 5.176737e+00 5.103437e+00 4.871905e+00 4.783919e+00 4.668469e+00 4.551878e+00 4.526380e+00 4.301616e+00 4.299200e+00 3.928106e+00 3.968245e+00 3.534452e+00 3.685590e+00 3.245453e+00 3.455169e+00 2.972340e+00 3.154299e+00 2.655483e+00 2.796942e+00 2.366192e+00 2.464759e+00 2.168772e+00 2.181602e+00 2.014250e+00 1.843027e+00 1.772931e+00 1.393094e+00 1.478046e+00 9.600067e-01 1.264610e+00 5.969415e-01 1.286811e+00 4.943825e-01 0 0 0 0 
0 0 0 0 0 -3.061081e+00 -2.558631e+00 -2.210670e+00 -3.730982e+00 -2.693019e+00 -4.639049e+00 -3.362571e+00 -5.367204e+00 -3.315423e+00 5.508636e+00 1.302153e+01 1.746995e+01 2.425437e+01 3.074001e+01 3.414444e+01 4.601460e+01 4.658892e+01 4.567411e+01 4.591714e+01 4.480754e+01 4.512397e+01 4.400295e+01 4.441224e+01 4.334468e+01 4.372030e+01 4.267694e+01 4.286556e+01 4.182494e+01 4.174906e+01 4.079256e+01 4.057815e+01 3.995298e+01 3.980155e+01 3.956030e+01 3.933369e+01 3.917138e+01 3.862898e+01 3.839072e+01 3.761286e+01 3.740555e+01 3.658831e+01 3.648784e+01 3.574087e+01 3.574994e+01 3.513139e+01 3.521496e+01 3.472185e+01 3.478427e+01 3.437153e+01 3.434656e+01 3.405556e+01 3.426568e+01 3.610396e+01 3.732031e+01 3.703447e+01 3.848026e+01 3.710526e+01 3.360929e+01 3.365906e+01 3.447871e+01 3.554278e+01 3.511896e+01 3.499195e+01 3.523072e+01 3.215592e+01 2.667213e+01 2.492717e+01 2.401672e+01 2.372694e+01 2.298766e+01 2.266590e+01 2.198582e+01 2.152577e+01 2.101557e+01 2.049434e+01 2.020127e+01 1.958993e+01 1.944979e+01 1.874333e+01 1.875106e+01 1.799201e+01 1.805321e+01 1.718495e+01 1.716326e+01 1.622713e+01 1.610636e+01 1.522488e+01 1.500926e+01 1.432828e+01 1.406950e+01 1.372995e+01 1.338709e+01 1.331214e+01 1.265120e+01 1.264417e+01 1.155289e+01 1.167100e+01 1.039525e+01 1.083974e+01 9.545212e+00 1.016185e+01 8.741594e+00 9.276454e+00 7.809023e+00 8.224686e+00 6.957379e+00 7.246917e+00 6.376057e+00 6.413609e+00 5.921319e+00 5.417873e+00 5.211961e+00 4.095305e+00 4.345616e+00 2.821860e+00 3.712472e+00 1.744450e+00 3.779135e+00 1.453767e+00 0 0 0 0 
0 0 0 0 0 -2.114955e+00 -1.771754e+00 -1.533582e+00 -2.580453e+00 -1.860993e+00 -3.204792e+00 -2.322939e+00 -3.707790e+00 -3.637298e+00 5.268779e+00 5.171521e+00 1.432074e+01 1.448283e+01 2.332610e+01 2.385844e+01 3.235192e+01 3.217755e+01 3.154576e+01 3.171362e+01 3.094743e+01 3.116605e+01 3.039197e+01 3.067470e+01 2.993752e+01 3.019696e+01 2.947644e+01 2.960671e+01 2.888805e+01 2.883563e+01 2.817504e+01 2.802694e+01 2.759517e+01 2.749059e+01 2.732397e+01 2.716747e+01 2.705538e+01 2.668080e+01 2.651627e+01 2.597908e+01 2.583592e+01 2.527153e+01 2.520215e+01 2.468627e+01 2.469254e+01 2.426535e+01 2.432306e+01 2.398249e+01 2.402559e+01 2.374052e+01 2.372327e+01 2.352229e+01 2.309391e+01 2.042887e+01 1.816451e+01 1.753574e+01 1.409092e+01 1.481168e+01 2.025254e+01 2.006717e+01 1.673268e+01 1.424490e+01 1.208133e+01 1.053178e+01 6.065606e+00 7.720401e+00 1.515242e+01 1.757358e+01 1.639380e+01 1.638877e+01 1.587816e+01 1.565592e+01 1.518620e+01 1.486844e+01 1.451605e+01 1.415605e+01 1.395363e+01 1.353139e+01 1.343461e+01 1.294666e+01 1.295201e+01 1.242773e+01 1.246999e+01 1.187026e+01 1.185527e+01 1.120864e+01 1.112519e+01 1.051630e+01 1.036735e+01 9.896954e+00 9.718202e+00 9.483665e+00 9.246859e+00 9.195110e+00 8.738621e+00 8.733799e+00 7.980069e+00 8.061680e+00 7.180508e+00 7.487524e+00 6.593314e+00 7.019174e+00 6.038041e+00 6.407349e+00 5.393552e+00 5.680484e+00 4.804889e+00 5.004713e+00 4.403009e+00 4.428860e+00 4.088770e+00 3.741083e+00 3.598970e+00 2.827880e+00 3.001003e+00 1.948402e+00 2.561041e+00 1.199535e+00 2.607752e+00 1.004056e+00 0 0 0 0 
0 0 0 0 0 -9.429833e-02 -7.999875e-02 -6.994807e-02 -1.157259e-01 -8.306096e-02 -1.427862e-01 -1.034900e-01 -1.651885e-01 -9.674723e-01 1.907041e+00 -3.759498e+00 3.089169e+00 -1.829242e+00 3.331705e+00 1.124848e+00 1.774452e+00 1.431745e+00 1.403645e+00 1.411115e+00 1.377067e+00 1.386812e+00 1.352415e+00 1.365008e+00 1.332243e+00 1.343791e+00 1.311755e+00 1.317551e+00 1.285588e+00 1.283254e+00 1.253869e+00 1.247279e+00 1.228071e+00 1.223417e+00 1.216005e+00 1.209045e+00 1.204061e+00 1.187405e+00 1.180090e+00 1.156202e+00 1.149838e+00 1.124738e+00 1.121654e+00 1.098710e+00 1.098989e+00 1.079986e+00 1.082552e+00 1.067400e+00 1.069315e+00 1.056631e+00 1.055862e+00 1.046920e+00 4.292981e-01 -3.912625e+00 -6.616470e+00 -6.050695e+00 -8.939033e+00 -7.994900e+00 -3.887977e+00 -4.382331e+00 -6.338594e+00 -8.298603e+00 -8.823472e+00 -8.989282e+00 -1.091323e+01 -7.893182e+00 -1.960619e+00 1.123888e-01 4.916474e-01 7.295481e-01 7.068263e-01 6.969363e-01 6.760315e-01 6.618912e-01 6.462082e-01 6.301884e-01 6.211811e-01 6.023923e-01 5.980865e-01 5.763723e-01 5.766109e-01 5.532766e-01 5.551555e-01 5.284589e-01 5.277861e-01 4.989973e-01 4.952761e-01 4.681643e-01 4.615279e-01 4.405820e-01 4.326228e-01 4.221811e-01 4.116436e-01 4.093449e-01 3.890346e-01 3.888287e-01 3.552879e-01 3.589285e-01 3.197065e-01 3.333727e-01 2.935547e-01 3.124956e-01 2.687873e-01 2.851934e-01 2.400114e-01 2.527396e-01 2.137027e-01 2.225553e-01 1.957248e-01 1.968533e-01 1.817006e-01 1.662373e-01 1.599405e-01 1.256688e-01 1.334331e-01 8.654968e-02 1.131790e-01 5.202645e-02 1.154274e-01 4.467139e-02 0 0 0 0 
0 0 0 0 0 0 0 0 0 0 0 0 0 -1.196979e+00 3.056985e-01 -1.028865e+00 6.563613e-01 -6.866272e-01 7.580682e-01 -1.065648e-01 8.576481e-01 0 0 0 0 0 0 0 0 0 0 0 0 0 0 0 0 0 0 0 0 0 0 0 0 0 0 0 0 0 0 0 0 0 0 0 -1.608007e-01 -1.106848e+00 -1.481425e+00 -1.199590e+00 -1.295762e+00 -9.454104e-01 -3.271837e-01 -2.678013e-01 -4.004172e-01 -5.280252e-01 -6.238647e-01 -6.283621e-01 -4.546281e-01 1.526773e-01 9.183347e-01 8.344912e-01 1.368777e-01 0 0 0 0 0 0 0 0 0 0 0 0 0 0 0 0 0 0 0 0 0 0 0 0 0 0 0 0 0 0 0 0 0 0 0 0 0 0 0 0 0 0 0 0 0 0 0 0 0 0 0 0 0 0 0 
0 0 0 0 0 0 0 0 0 0 0 0 0 -5.933279e-01 3.164720e-01 -7.367227e-01 5.418483e-01 -5.550218e-01 5.359072e-01 -1.460827e-01 4.059634e-01 0 0 0 0 0 0 0 0 0 0 0 0 0 0 0 0 0 0 0 0 0 0 0 0 0 0 0 0 0 0 0 0 0 0 0 -1.927819e-01 -9.209206e-01 -9.520096e-01 -4.395740e-01 -7.914010e-01 -8.728866e-01 -3.065459e-01 -4.279667e-01 -6.824244e-01 -5.369004e-01 -3.683388e-01 -2.380303e-01 -5.839637e-01 -7.491510e-01 -2.701612e-01 9.200085e-02 5.419781e-02 0 0 0 0 0 0 0 0 0 0 0 0 0 0 0 0 0 0 0 0 0 0 0 0 0 0 0 0 0 0 0 0 0 0 0 0 0 0 0 0 0 0 0 0 0 0 0 0 0 0 0 0 0 0 0 
0 0 0 0 0 0 0 0 0 0 0 0 0 -3.037374e-04 1.676635e-04 7.839392e-05 1.751872e-04 -3.659473e-04 1.263159e-04 -1.679300e-03 -4.661072e-04 0 0 0 0 0 0 0 0 0 0 0 0 0 0 0 0 0 0 0 0 0 0 0 0 0 0 0 0 0 0 0 0 0 0 0 -1.874087e-01 -9.345224e-01 -1.130347e+00 -7.438526e-01 -1.101380e+00 -1.110466e+00 -7.425587e-01 -8.980850e-01 -9.619869e-01 -9.342354e-01 -9.124178e-01 -8.044573e-01 -9.544740e-01 -8.270657e-01 -5.644134e-01 -3.264419e-01 -2.414033e-02 0 0 0 0 0 0 0 0 0 0 0 0 0 0 0 0 0 0 0 0 0 0 0 0 0 0 0 0 0 0 0 0 0 0 0 0 0 0 0 0 0 0 0 0 0 0 0 0 0 0 0 0 0 0 0 
0 0 0 0 0 0 0 0 0 0 0 0 0 5.937310e-01 -3.179843e-01 7.389985e-01 -5.443668e-01 5.562281e-01 -5.374782e-01 1.429338e-01 -4.065555e-01 0 0 0 0 0 0 0 0 0 0 0 0 0 0 0 0 0 0 0 0 0 0 0 0 0 0 0 0 0 0 0 0 0 0 0 -6.032190e-02 -2.827918e-01 -4.232292e-01 -4.306225e-01 -6.145093e-01 -5.124423e-01 -1.611969e-01 -2.089266e-01 -3.403947e-01 -4.293968e-01 -5.725010e-01 -6.668260e-01 -9.087889e-01 -7.385300e-01 -2.385808e-01 -5.252739e-02 -2.540858e-03 0 0 0 0 0 0 0 0 0 0 0 0 0 0 0 0 0 0 0 0 0 0 0 0 0 0 0 0 0 0 0 0 0 0 0 0 0 0 0 0 0 0 0 0 0 0 0 0 0 0 0 0 0 0 0 
0 0 0 0 0 0 0 0 0 0 0 0 0 1.198614e+00 -3.045057e-01 1.032489e+00 -6.557850e-01 6.893697e-01 -7.570508e-01 1.025903e-01 -8.566573e-01 0 0 0 0 0 0 0 0 0 0 0 0 0 0 0 0 0 0 0 0 0 0 0 0 0 0 0 0 0 0 0 0 0 0 0 0 0 0 0 0 0 0 0 0 0 0 0 0 0 0 0 0 0 0 0 0 0 0 0 0 0 0 0 0 0 0 0 0 0 0 0 0 0 0 0 0 0 0 0 0 0 0 0 0 0 0 0 0 0 0 0 0 0 0 0 0 0 0 0 0 0 0 0 0 0 0 0 
0 0 0 0 0 9.430788e-02 8.011965e-02 7.046556e-02 1.168446e-01 8.433843e-02 1.436541e-01 1.035316e-01 1.649203e-01 9.726379e-01 -1.908400e+00 3.773589e+00 -3.099069e+00 1.843029e+00 -3.337130e+00 -1.131594e+00 -1.759354e+00 -1.427523e+00 -1.401179e+00 -1.410250e+00 -1.380772e+00 -1.391835e+00 -1.358582e+00 -1.367732e+00 -1.331441e+00 -1.337600e+00 -1.302143e+00 -1.306544e+00 -1.276989e+00 -1.281874e+00 -1.261384e+00 -1.264445e+00 -1.247916e+00 -1.240988e+00 -1.222422e+00 -1.204559e+00 -1.187481e+00 -1.165880e+00 -1.155908e+00 -1.136084e+00 -1.134309e+00 -1.116695e+00 -1.118230e+00 -1.098011e+00 -1.095319e+00 -1.069425e+00 -1.061047e+00 -1.033922e+00 -1.024334e+00 -1.001307e+00 -9.913954e-01 -9.716869e-01 -9.588435e-01 -9.419339e-01 -9.266346e-01 -9.135184e-01 -8.950298e-01 -8.832351e-01 -8.617347e-01 -8.523132e-01 -8.298938e-01 -8.236109e-01 -8.001696e-01 -7.941458e-01 -7.687036e-01 -7.613087e-01 -7.363189e-01 -7.290258e-01 -7.080913e-01 -7.031190e-01 -6.888716e-01 -6.845472e-01 -6.744495e-01 -6.649604e-01 -6.544042e-01 -6.361597e-01 -6.258597e-01 -6.024940e-01 -5.964483e-01 -5.702600e-01 -5.673543e-01 -5.391593e-01 -5.411276e-01 -5.171274e-01 -5.255086e-01 -5.052385e-01 -5.109488e-01 -4.871681e-01 -4.812800e-01 -4.537529e-01 -4.378830e-01 -4.162561e-01 -3.984035e-01 -3.914320e-01 -3.734550e-01 -3.793222e-01 -3.547552e-01 -3.651898e-01 -3.278637e-01 -3.385200e-01 -2.925839e-01 -3.075890e-01 -2.620159e-01 -2.805979e-01 -2.371635e-01 -2.529174e-01 -2.146651e-01 -2.245136e-01 -1.958560e-01 -1.952190e-01 -1.778468e-01 -1.628999e-01 -1.589653e-01 -1.284366e-01 -1.392089e-01 -9.327056e-02 -1.188624e-01 -5.495999e-02 -1.162552e-01 -4.458854e-02 0 0 0 0 
0 0 0 0 0 2.115170e+00 1.774471e+00 1.545200e+00 2.605571e+00 1.889679e+00 3.224277e+00 2.323866e+00 3.701759e+00 3.650223e+00 -5.256416e+00 -5.156575e+00 -1.431433e+01 -1.446772e+01 -2.332158e+01 -2.384104e+01 -3.232275e+01 -3.208258e+01 -3.149033e+01 -3.169423e+01 -3.103084e+01 -3.127912e+01 -3.053075e+01 -3.073606e+01 -2.991957e+01 -3.005779e+01 -2.926033e+01 -2.935921e+01 -2.869465e+01 -2.880454e+01 -2.834392e+01 -2.841285e+01 -2.804132e+01 -2.788560e+01 -2.746824e+01 -2.706657e+01 -2.668262e+01 -2.619688e+01 -2.597264e+01 -2.552683e+01 -2.548685e+01 -2.509075e+01 -2.512521e+01 -2.467060e+01 -2.461005e+01 -2.402791e+01 -2.383959e+01 -2.322984e+01 -2.301434e+01 -2.249678e+01 -2.227400e+01 -2.183104e+01 -2.154236e+01 -2.116231e+01 -2.081840e+01 -2.052358e+01 -2.010797e+01 -1.984285e+01 -1.935954e+01 -1.914776e+01 -1.864382e+01 -1.850259e+01 -1.797573e+01 -1.784035e+01 -1.726859e+01 -1.710243e+01 -1.654089e+01 -1.637704e+01 -1.590668e+01 -1.579500e+01 -1.547490e+01 -1.537776e+01 -1.515089e+01 -1.493765e+01 -1.470044e+01 -1.429041e+01 -1.405892e+01 -1.353380e+01 -1.339789e+01 -1.280937e+01 -1.274405e+01 -1.211053e+01 -1.215478e+01 -1.161563e+01 -1.180406e+01 -1.134881e+01 -1.147729e+01 -1.094323e+01 -1.081111e+01 -1.019289e+01 -9.836419e+00 -9.350660e+00 -8.949517e+00 -8.792815e+00 -8.388763e+00 -8.520340e+00 -7.968197e+00 -8.202396e+00 -7.363763e+00 -7.603138e+00 -6.571461e+00 -6.908872e+00 -5.885834e+00 -6.304004e+00 -5.329444e+00 -5.684357e+00 -4.826384e+00 -5.048599e+00 -4.405903e+00 -4.392121e+00 -4.002232e+00 -3.666174e+00 -3.577100e+00 -2.890090e+00 -3.130740e+00 -2.099319e+00 -2.688510e+00 -1.265130e+00 -2.626212e+00 -1.002192e+00 0 0 0 0 
0 0 0 0 0 3.061390e+00 2.562564e+00 2.227488e+00 3.767343e+00 2.734546e+00 4.667255e+00 3.363910e+00 5.358470e+00 3.308638e+00 -5.493204e+00 -1.302581e+01 -1.745598e+01 -2.427261e+01 -3.073600e+01 -3.409483e+01 -4.595003e+01 -4.645139e+01 -4.559385e+01 -4.588907e+01 -4.492834e+01 -4.528773e+01 -4.420392e+01 -4.450111e+01 -4.331871e+01 -4.351879e+01 -4.236402e+01 -4.250718e+01 -4.154490e+01 -4.170404e+01 -4.103709e+01 -4.113692e+01 -4.059898e+01 -4.037352e+01 -3.976920e+01 -3.918759e+01 -3.863165e+01 -3.792829e+01 -3.760357e+01 -3.695804e+01 -3.690013e+01 -3.632657e+01 -3.637644e+01 -3.571817e+01 -3.563049e+01 -3.478759e+01 -3.451492e+01 -3.363205e+01 -3.332003e+01 -3.257065e+01 -3.224810e+01 -3.160674e+01 -3.118876e+01 -3.063848e+01 -3.014053e+01 -2.971367e+01 -2.911190e+01 -2.872802e+01 -2.802823e+01 -2.772158e+01 -2.699193e+01 -2.678743e+01 -2.602461e+01 -2.582859e+01 -2.500076e+01 -2.476019e+01 -2.394719e+01 -2.370997e+01 -2.302898e+01 -2.286729e+01 -2.240387e+01 -2.226323e+01 -2.193477e+01 -2.162603e+01 -2.128259e+01 -2.068891e+01 -2.035375e+01 -1.959344e+01 -1.939665e+01 -1.854457e+01 -1.844998e+01 -1.753277e+01 -1.759684e+01 -1.681629e+01 -1.708911e+01 -1.643005e+01 -1.661611e+01 -1.584297e+01 -1.565173e+01 -1.475674e+01 -1.424066e+01 -1.353742e+01 -1.295664e+01 -1.272975e+01 -1.214472e+01 -1.233516e+01 -1.153572e+01 -1.187473e+01 -1.066056e+01 -1.100712e+01 -9.513564e+00 -1.000214e+01 -8.521213e+00 -9.126808e+00 -7.716178e+00 -8.230262e+00 -6.988466e+00 -7.310426e+00 -6.380232e+00 -6.360414e+00 -5.796043e+00 -5.309439e+00 -5.180307e+00 -4.185379e+00 -4.533441e+00 -3.040333e+00 -3.896964e+00 -1.839337e+00 -3.805827e+00 -1.451068e+00 0 0 0 0 
0 0 0 0 0 1.040529e+00 8.682131e-01 7.527540e-01 1.278617e+00 9.292050e-01 1.586632e+00 1.143576e+00 1.821631e+00 1.124679e+00 -1.867808e+00 -4.429028e+00 -5.935415e+00 -8.253504e+00 -1.045137e+01 -1.159372e+01 -1.562581e+01 -1.579633e+01 -1.550470e+01 -1.560509e+01 -1.527828e+01 -1.540045e+01 -1.503176e+01 -1.513278e+01 -1.473058e+01 -1.479860e+01 -1.440583e+01 -1.445451e+01 -1.412724e+01 -1.418137e+01 -1.395455e+01 -1.398852e+01 -1.380557e+01 -1.372890e+01 -1.352338e+01 -1.332558e+01 -1.313650e+01 -1.289728e+01 -1.278684e+01 -1.256729e+01 -1.254759e+01 -1.235251e+01 -1.236947e+01 -1.214559e+01 -1.211577e+01 -1.182911e+01 -1.173638e+01 -1.143613e+01 -1.133002e+01 -1.107518e+01 -1.096549e+01 -1.074739e+01 -1.060524e+01 -1.041811e+01 -1.024877e+01 -1.010361e+01 -9.898955e+00 -9.768407e+00 -9.530424e+00 -9.426138e+00 -9.178003e+00 -9.108457e+00 -8.849047e+00 -8.782389e+00 -8.500879e+00 -8.419075e+00 -8.142614e+00 -8.061953e+00 -7.830389e+00 -7.775413e+00 -7.617834e+00 -7.570016e+00 -7.458328e+00 -7.353337e+00 -7.236551e+00 -7.034663e+00 -6.920687e+00 -6.662136e+00 -6.595211e+00 -6.305459e+00 -6.273290e+00 -5.961400e+00 -5.983190e+00 -5.717781e+00 -5.810567e+00 -5.586484e+00 -5.649774e+00 -5.386907e+00 -5.321898e+00 -5.017601e+00 -4.842125e+00 -4.603014e+00 -4.405523e+00 -4.328364e+00 -4.129416e+00 -4.194141e+00 -3.922282e+00 -4.037528e+00 -3.624666e+00 -3.742501e+00 -3.234687e+00 -3.400854e+00 -2.897395e+00 -3.103402e+00 -2.623897e+00 -2.798822e+00 -2.376747e+00 -2.486341e+00 -2.170185e+00 -2.163512e+00 -1.971657e+00 -1.806165e+00 -1.762173e+00 -1.423725e+00 -1.541910e+00 -1.034285e+00 -1.327317e+00 -6.291679e-01 -1.295870e+00 -4.934645e-01 0 0 0 0 
0 0 0 0 0 0 0 0 0 0 0 0 0 0 0 0 0 0 0 0 0 0 0 0 0 0 0 0 0 0 0 0 0 0 0 0 0 0 0 0 0 0 0 0 0 0 0 0 0 0 0 0 0 0 0 0 0 0 0 0 0 0 0 0 0 0 0 0 0 0 0 0 0 0 0 0 0 0 0 0 0 0 0 0 0 0 0 0 0 0 0 0 0 0 0 0 0 0 0 0 0 0 0 0 0 0 0 0 0 0 0 0 0 0 0 0 0 0 0 0 0 0 0 0 0 0 0 0 
