# vtk DataFile Version 2.0
Comment goes here
ASCII

DATASET STRUCTURED_POINTS
FIELD FieldData 1
TIME 1 1 double
0.37000000
DIMENSIONS    128   16   1

ORIGIN    0.000   0.000   0.000
SPACING   0.0078125 0.015625   1.000

POINT_DATA   2048
SCALARS fY double
LOOKUP_TABLE default

0 0 0 0 0 0 0 0 0 0 0 0 0 0 0 0 0 0 0 0 0 0 0 0 0 0 0 0 0 0 0 0 0 0 0 0 0 0 0 0 0 0 0 0 0 0 0 0 0 0 0 0 0 0 0 0 0 0 0 0 0 0 0 0 0 0 0 0 0 0 0 0 0 0 0 0 0 0 0 0 0 0 0 0 0 0 0 0 0 0 0 0 0 0 0 0 0 0 0 0 0 0 0 0 0 0 0 0 0 0 0 0 0 0 0 0 0 0 0 0 0 0 0 0 0 0 0 0 
0 0 0 0 0 0 0 0 0 0 0 0 0 0 0 0 0 0 0 0 0 0 0 0 0 0 0 0 0 0 0 0 0 0 0 0 0 0 0 0 0 0 0 0 0 0 0 0 0 0 0 0 0 0 0 0 0 0 0 0 0 0 0 0 0 0 0 0 0 0 0 0 0 0 0 0 0 0 0 0 0 0 0 0 0 0 0 0 0 0 0 0 0 0 0 0 0 0 0 0 0 0 0 0 0 0 0 0 0 0 0 0 0 0 0 0 0 0 0 0 0 0 0 0 0 0 0 0 
0 0 0 0 0 1.009659e+00 8.164740e-01 7.287871e-01 1.295158e+00 9.253718e-01 1.594516e+00 1.115316e+00 1.786726e+00 1.077903e+00 -1.884046e+00 -4.422833e+00 -5.953593e+00 -8.212592e+00 -1.038293e+01 -1.146434e+01 -1.547665e+01 -1.573604e+01 -1.557887e+01 -1.578219e+01 -1.539713e+01 -1.527628e+01 -1.459575e+01 -1.448079e+01 -1.408125e+01 -1.438613e+01 -1.438486e+01 -1.480920e+01 -1.468286e+01 -1.471074e+01 -1.425941e+01 -1.398437e+01 -1.354746e+01 -1.336950e+01 -1.318915e+01 -1.309290e+01 -1.301709e+01 -1.282495e+01 -1.267064e+01 -1.235271e+01 -1.230843e+01 -1.220987e+01 -1.248952e+01 -1.251979e+01 -1.264113e+01 -1.224717e+01 -1.192028e+01 -1.131859e+01 -1.106366e+01 -1.083061e+01 -1.096071e+01 -1.108106e+01 -1.145657e+01 -1.240166e+01 -1.330290e+01 -1.370522e+01 -1.517392e+01 -1.368510e+01 -9.150671e+00 -9.189352e+00 -1.120360e+01 -1.315930e+01 -1.470741e+01 -1.565511e+01 -1.712441e+01 -1.421077e+01 -7.253183e+00 -5.809950e+00 -7.180633e+00 -7.425469e+00 -7.557411e+00 -7.712474e+00 -7.716783e+00 -7.564047e+00 -7.317814e+00 -6.987464e+00 -6.782407e+00 -6.540038e+00 -6.513248e+00 -6.344160e+00 -6.346347e+00 -6.048073e+00 -5.973914e+00 -5.684109e+00 -5.779459e+00 -5.662991e+00 -5.791484e+00 -5.542332e+00 -5.401189e+00 -5.001280e+00 -4.741947e+00 -4.453605e+00 -4.300448e+00 -4.347142e+00 -4.332953e+00 -4.501685e+00 -4.194798e+00 -4.095405e+00 -3.425715e+00 -3.354426e+00 -2.812654e+00 -3.090825e+00 -2.805797e+00 -3.247195e+00 -2.900390e+00 -3.064176e+00 -2.510563e+00 -2.476924e+00 -2.058474e+00 -2.028341e+00 -1.847864e+00 -1.728128e+00 -1.765115e+00 -1.548978e+00 -1.754598e+00 -1.249394e+00 -1.469317e+00 -7.198259e-01 -1.372768e+00 -5.287479e-01 0 0 0 0 
0 0 0 0 0 2.968803e+00 2.393072e+00 2.130829e+00 3.803060e+00 2.720271e+00 4.689318e+00 3.280035e+00 5.254579e+00 3.169657e+00 -5.542022e+00 -1.300988e+01 -1.751274e+01 -2.415847e+01 -3.054305e+01 -3.372483e+01 -4.553023e+01 -4.629341e+01 -4.583104e+01 -4.642921e+01 -4.529605e+01 -4.494033e+01 -4.293779e+01 -4.259938e+01 -4.142371e+01 -4.232064e+01 -4.231686e+01 -4.356538e+01 -4.319364e+01 -4.327570e+01 -4.194783e+01 -4.113860e+01 -3.985318e+01 -3.932959e+01 -3.879902e+01 -3.851583e+01 -3.829278e+01 -3.772744e+01 -3.727343e+01 -3.633797e+01 -3.620766e+01 -3.591767e+01 -3.674038e+01 -3.682943e+01 -3.718641e+01 -3.602735e+01 -3.506560e+01 -3.329543e+01 -3.254543e+01 -3.185981e+01 -3.224260e+01 -3.259666e+01 -3.340419e+01 -3.496480e+01 -3.539250e+01 -3.454555e+01 -3.498598e+01 -3.353171e+01 -3.014805e+01 -3.094154e+01 -3.243253e+01 -3.427486e+01 -3.447714e+01 -3.402262e+01 -3.297455e+01 -2.891031e+01 -2.275199e+01 -2.109655e+01 -2.142119e+01 -2.184224e+01 -2.223037e+01 -2.268654e+01 -2.269921e+01 -2.224989e+01 -2.152553e+01 -2.055370e+01 -1.995047e+01 -1.923747e+01 -1.915865e+01 -1.866123e+01 -1.866767e+01 -1.779024e+01 -1.757211e+01 -1.671963e+01 -1.700016e+01 -1.665760e+01 -1.703566e+01 -1.630281e+01 -1.588767e+01 -1.471138e+01 -1.394853e+01 -1.310040e+01 -1.264986e+01 -1.278717e+01 -1.274538e+01 -1.324163e+01 -1.233880e+01 -1.204637e+01 -1.007639e+01 -9.866683e+00 -8.273136e+00 -9.091485e+00 -8.253287e+00 -9.551947e+00 -8.532177e+00 -9.014325e+00 -7.386359e+00 -7.287746e+00 -6.057285e+00 -5.968848e+00 -5.438101e+00 -5.085794e+00 -5.194309e+00 -4.558100e+00 -5.162448e+00 -3.676717e+00 -4.329911e+00 -2.130381e+00 -4.044271e+00 -1.555575e+00 0 0 0 0 
0 0 0 0 0 2.050345e+00 1.649000e+00 1.465749e+00 2.623975e+00 1.878365e+00 3.238972e+00 2.265562e+00 3.629401e+00 3.677708e+00 -5.159122e+00 -5.073000e+00 -1.414885e+01 -1.434177e+01 -2.312055e+01 -2.365227e+01 -3.204218e+01 -3.198284e+01 -3.166340e+01 -3.207667e+01 -3.129363e+01 -3.104778e+01 -2.966402e+01 -2.943013e+01 -2.861776e+01 -2.923743e+01 -2.923479e+01 -3.009744e+01 -2.984059e+01 -2.989730e+01 -2.897985e+01 -2.842074e+01 -2.753263e+01 -2.717088e+01 -2.680431e+01 -2.660864e+01 -2.645454e+01 -2.606391e+01 -2.575023e+01 -2.510388e+01 -2.501383e+01 -2.481346e+01 -2.538186e+01 -2.544337e+01 -2.569002e+01 -2.488921e+01 -2.422473e+01 -2.300172e+01 -2.248355e+01 -2.200987e+01 -2.227435e+01 -2.251898e+01 -2.241182e+01 -2.032467e+01 -1.837586e+01 -1.764296e+01 -1.407344e+01 -1.474081e+01 -1.979184e+01 -1.994600e+01 -1.767837e+01 -1.634236e+01 -1.417714e+01 -1.250717e+01 -8.002526e+00 -9.019362e+00 -1.563293e+01 -1.680968e+01 -1.494341e+01 -1.508896e+01 -1.535710e+01 -1.567225e+01 -1.568101e+01 -1.537059e+01 -1.487016e+01 -1.419876e+01 -1.378201e+01 -1.328943e+01 -1.323497e+01 -1.289133e+01 -1.289578e+01 -1.228962e+01 -1.213893e+01 -1.155002e+01 -1.174384e+01 -1.150722e+01 -1.176842e+01 -1.126218e+01 -1.097541e+01 -1.016283e+01 -9.635849e+00 -9.049957e+00 -8.738702e+00 -8.833539e+00 -8.804645e+00 -9.147423e+00 -8.523679e+00 -8.321639e+00 -6.960715e+00 -6.815839e+00 -5.715035e+00 -6.280412e+00 -5.701480e+00 -6.598748e+00 -5.894451e+00 -6.227705e+00 -5.103323e+00 -5.035364e+00 -4.185546e+00 -4.124550e+00 -3.757965e+00 -3.514538e+00 -3.589363e+00 -3.149648e+00 -3.566906e+00 -2.540704e+00 -2.994986e+00 -1.477996e+00 -2.796867e+00 -1.074735e+00 0 0 0 0 
0 0 0 0 0 9.120068e-02 7.240174e-02 6.370771e-02 1.160728e-01 8.346542e-02 1.441700e-01 1.008424e-01 1.615472e-01 9.352455e-01 -1.799511e+00 3.771207e+00 -2.938415e+00 1.861905e+00 -3.221619e+00 -1.053253e+00 -1.686002e+00 -1.425464e+00 -1.411227e+00 -1.429651e+00 -1.394706e+00 -1.383725e+00 -1.321987e+00 -1.311539e+00 -1.275297e+00 -1.302917e+00 -1.302794e+00 -1.341260e+00 -1.329806e+00 -1.332339e+00 -1.291433e+00 -1.266504e+00 -1.226910e+00 -1.210782e+00 -1.194440e+00 -1.185716e+00 -1.178844e+00 -1.161424e+00 -1.147436e+00 -1.118612e+00 -1.114593e+00 -1.105656e+00 -1.130993e+00 -1.133734e+00 -1.144730e+00 -1.109025e+00 -1.079401e+00 -1.024882e+00 -1.001783e+00 -9.806708e-01 -9.924645e-01 -1.003370e+00 -4.185813e-01 2.375082e+00 3.821770e+00 3.268784e+00 5.542837e+00 4.621126e+00 5.638162e-01 9.971539e-01 2.637077e+00 3.886630e+00 4.944827e+00 5.280212e+00 6.747609e+00 4.275381e+00 -1.544642e+00 -2.456148e+00 -8.374915e-01 -6.721970e-01 -6.841451e-01 -6.981904e-01 -6.985805e-01 -6.847455e-01 -6.624452e-01 -6.325232e-01 -6.139517e-01 -5.919998e-01 -5.895717e-01 -5.742580e-01 -5.744560e-01 -5.474471e-01 -5.407345e-01 -5.144989e-01 -5.231400e-01 -5.126034e-01 -5.242502e-01 -5.017034e-01 -4.889323e-01 -4.527387e-01 -4.292614e-01 -4.031642e-01 -3.892949e-01 -3.935148e-01 -3.922211e-01 -4.074818e-01 -3.796808e-01 -3.706728e-01 -3.100371e-01 -3.035818e-01 -2.545533e-01 -2.797525e-01 -2.539892e-01 -2.939952e-01 -2.626645e-01 -2.775559e-01 -2.275277e-01 -2.245416e-01 -1.867351e-01 -1.840426e-01 -1.677277e-01 -1.568711e-01 -1.601694e-01 -1.405269e-01 -1.590553e-01 -1.133809e-01 -1.343917e-01 -6.744115e-02 -1.253643e-01 -4.790873e-02 0 0 0 0 
0 0 0 0 0 0 0 0 0 0 0 0 0 9.561186e-01 -2.666755e-01 1.002430e+00 -6.238885e-01 6.913751e-01 -7.682145e-01 1.240070e-01 -1.077608e+00 0 0 0 0 0 0 0 0 0 0 0 0 0 0 0 0 0 0 0 0 0 0 0 0 0 0 0 0 0 0 0 0 0 0 0 6.827508e-02 3.157006e-01 3.468977e-01 2.538823e-01 1.909437e-01 -6.126485e-02 -6.189831e-01 -7.724751e-01 -5.544955e-01 -4.416546e-01 -2.107994e-01 -7.164780e-02 -1.766681e-01 -4.738850e-01 -1.245784e+00 -1.110452e+00 -1.611828e-01 0 0 0 0 0 0 0 0 0 0 0 0 0 0 0 0 0 0 0 0 0 0 0 0 0 0 0 0 0 0 0 0 0 0 0 0 0 0 0 0 0 0 0 0 0 0 0 0 0 0 0 0 0 0 0 
0 0 0 0 0 0 0 0 0 0 0 0 0 4.479303e-01 -2.902572e-01 7.178630e-01 -5.203914e-01 5.552848e-01 -5.406412e-01 1.570052e-01 -5.490559e-01 0 0 0 0 0 0 0 0 0 0 0 0 0 0 0 0 0 0 0 0 0 0 0 0 0 0 0 0 0 0 0 0 0 0 0 4.604122e-02 3.760421e-01 3.794439e-01 -1.856352e-02 2.464437e-01 4.725118e-01 6.479537e-02 6.677405e-02 3.599858e-01 2.866105e-01 9.752797e-02 8.534042e-03 2.800669e-01 3.886220e-01 -1.565743e-01 -3.040113e-01 -4.121082e-02 0 0 0 0 0 0 0 0 0 0 0 0 0 0 0 0 0 0 0 0 0 0 0 0 0 0 0 0 0 0 0 0 0 0 0 0 0 0 0 0 0 0 0 0 0 0 0 0 0 0 0 0 0 0 0 
0 0 0 0 0 0 0 0 0 0 0 0 0 4.616485e-03 1.128015e-03 1.511583e-03 -7.594775e-03 -5.487265e-03 -2.154081e-02 -1.595456e-02 -3.847627e-02 0 0 0 0 0 0 0 0 0 0 0 0 0 0 0 0 0 0 0 0 0 0 0 0 0 0 0 0 0 0 0 0 0 0 0 4.263313e-02 3.519725e-01 3.754286e-01 2.520352e-02 2.003064e-01 3.347009e-01 -1.099405e-02 -8.028021e-02 6.291110e-02 -1.267600e-03 -7.178311e-02 -7.933205e-02 -7.557149e-03 -1.821454e-02 -2.926975e-01 -2.667261e-01 -3.219097e-02 0 0 0 0 0 0 0 0 0 0 0 0 0 0 0 0 0 0 0 0 0 0 0 0 0 0 0 0 0 0 0 0 0 0 0 0 0 0 0 0 0 0 0 0 0 0 0 0 0 0 0 0 0 0 0 
0 0 0 0 0 0 0 0 0 0 0 0 0 -4.403764e-01 2.972431e-01 -7.096432e-01 5.195312e-01 -5.535264e-01 5.212478e-01 -1.723009e-01 4.994937e-01 0 0 0 0 0 0 0 0 0 0 0 0 0 0 0 0 0 0 0 0 0 0 0 0 0 0 0 0 0 0 0 0 0 0 0 1.925328e-02 1.550215e-01 2.348594e-01 2.262341e-01 3.405882e-01 2.855919e-01 -5.305524e-02 -1.104903e-01 6.190283e-02 1.570426e-01 2.676550e-01 4.206162e-01 6.357078e-01 5.240780e-01 2.861061e-02 -1.401024e-01 -1.753033e-02 0 0 0 0 0 0 0 0 0 0 0 0 0 0 0 0 0 0 0 0 0 0 0 0 0 0 0 0 0 0 0 0 0 0 0 0 0 0 0 0 0 0 0 0 0 0 0 0 0 0 0 0 0 0 0 
0 0 0 0 0 0 0 0 0 0 0 0 0 -9.350053e-01 2.863661e-01 -9.837887e-01 6.295914e-01 -6.884738e-01 7.385800e-01 -1.529811e-01 1.006346e+00 0 0 0 0 0 0 0 0 0 0 0 0 0 0 0 0 0 0 0 0 0 0 0 0 0 0 0 0 0 0 0 0 0 0 0 0 0 0 0 0 0 0 0 0 0 0 0 0 0 0 0 0 0 0 0 0 0 0 0 0 0 0 0 0 0 0 0 0 0 0 0 0 0 0 0 0 0 0 0 0 0 0 0 0 0 0 0 0 0 0 0 0 0 0 0 0 0 0 0 0 0 0 0 0 0 0 0 
0 0 0 0 0 -9.108423e-02 -7.152484e-02 -6.006180e-02 -1.092459e-01 -7.623896e-02 -1.400859e-01 -1.005758e-01 -1.628464e-01 -9.356243e-01 1.855367e+00 -3.733928e+00 2.980186e+00 -1.816478e+00 3.259794e+00 1.124234e+00 1.758609e+00 1.442385e+00 1.412593e+00 1.414675e+00 1.377904e+00 1.386227e+00 1.351184e+00 1.354039e+00 1.307178e+00 1.303189e+00 1.266833e+00 1.284829e+00 1.281517e+00 1.310383e+00 1.297207e+00 1.283603e+00 1.233983e+00 1.194024e+00 1.161228e+00 1.154346e+00 1.165656e+00 1.176299e+00 1.191819e+00 1.185257e+00 1.181928e+00 1.149759e+00 1.127048e+00 1.077950e+00 1.047702e+00 1.002530e+00 9.898306e-01 9.782090e-01 1.006232e+00 1.034790e+00 1.073862e+00 1.079871e+00 1.059009e+00 1.001551e+00 9.294485e-01 8.656813e-01 8.237243e-01 8.225822e-01 8.375078e-01 8.702598e-01 8.741762e-01 8.690816e-01 8.272740e-01 7.975122e-01 7.542728e-01 7.421204e-01 7.292800e-01 7.487537e-01 7.606311e-01 7.812738e-01 7.746241e-01 7.540843e-01 7.113267e-01 6.646747e-01 6.270253e-01 5.982005e-01 5.972035e-01 5.961466e-01 6.165930e-01 6.108713e-01 6.200625e-01 5.947399e-01 5.904400e-01 5.481244e-01 5.272655e-01 4.738076e-01 4.549642e-01 4.251390e-01 4.341418e-01 4.380847e-01 4.622594e-01 4.785543e-01 4.830953e-01 4.736706e-01 4.289076e-01 3.961290e-01 3.373523e-01 3.306541e-01 2.943395e-01 3.173561e-01 2.873172e-01 3.178124e-01 2.853600e-01 3.155854e-01 2.837287e-01 3.077666e-01 2.662231e-01 2.574976e-01 2.010234e-01 1.773294e-01 1.525230e-01 1.470253e-01 1.573992e-01 1.356129e-01 1.462537e-01 9.811702e-02 1.235060e-01 6.332045e-02 1.244824e-01 4.775513e-02 0 0 0 0 
0 0 0 0 0 -2.047725e+00 -1.629279e+00 -1.383794e+00 -2.470603e+00 -1.716080e+00 -3.147251e+00 -2.259570e+00 -3.658589e+00 -3.603766e+00 5.258194e+00 5.165039e+00 1.425520e+01 1.444448e+01 2.328824e+01 2.386410e+01 3.243262e+01 3.236223e+01 3.169412e+01 3.174089e+01 3.091686e+01 3.110399e+01 3.031874e+01 3.038317e+01 2.933275e+01 2.924351e+01 2.842837e+01 2.883202e+01 2.875771e+01 2.940495e+01 2.910937e+01 2.880422e+01 2.769127e+01 2.679512e+01 2.605946e+01 2.590510e+01 2.615882e+01 2.639754e+01 2.674570e+01 2.659863e+01 2.652405e+01 2.580267e+01 2.529332e+01 2.419217e+01 2.351371e+01 2.250044e+01 2.221559e+01 2.195485e+01 2.258340e+01 2.322399e+01 2.410032e+01 2.423510e+01 2.376714e+01 2.247815e+01 2.086079e+01 1.943016e+01 1.848891e+01 1.846333e+01 1.879821e+01 1.953309e+01 1.962100e+01 1.950671e+01 1.856876e+01 1.790102e+01 1.693082e+01 1.665813e+01 1.636995e+01 1.680683e+01 1.707329e+01 1.753637e+01 1.738711e+01 1.692624e+01 1.596673e+01 1.491997e+01 1.407508e+01 1.342831e+01 1.340600e+01 1.338234e+01 1.384128e+01 1.371294e+01 1.391923e+01 1.335097e+01 1.325443e+01 1.230467e+01 1.183643e+01 1.063639e+01 1.021332e+01 9.543632e+00 9.745496e+00 9.833855e+00 1.037627e+01 1.074202e+01 1.084396e+01 1.063250e+01 9.628106e+00 8.892493e+00 7.573491e+00 7.423356e+00 6.608318e+00 7.125039e+00 6.450566e+00 7.134777e+00 6.405695e+00 7.083419e+00 6.367313e+00 6.905830e+00 5.972040e+00 5.775265e+00 4.506254e+00 3.973956e+00 3.416689e+00 3.293503e+00 3.527251e+00 3.039426e+00 3.279506e+00 2.197984e+00 2.750760e+00 1.385726e+00 2.777169e+00 1.071293e+00 0 0 0 0 
0 0 0 0 0 -2.965008e+00 -2.364516e+00 -2.012164e+00 -3.581011e+00 -2.485335e+00 -4.556535e+00 -3.271359e+00 -5.296837e+00 -3.178426e+00 5.561403e+00 1.302017e+01 1.750902e+01 2.420057e+01 3.077997e+01 3.422178e+01 4.619725e+01 4.684251e+01 4.587552e+01 4.594323e+01 4.475075e+01 4.502171e+01 4.388537e+01 4.397871e+01 4.245854e+01 4.232944e+01 4.114971e+01 4.173393e+01 4.162638e+01 4.256311e+01 4.213530e+01 4.169363e+01 4.008278e+01 3.878575e+01 3.772098e+01 3.749757e+01 3.786480e+01 3.821031e+01 3.871424e+01 3.850140e+01 3.839348e+01 3.734942e+01 3.661222e+01 3.501848e+01 3.403651e+01 3.256992e+01 3.215762e+01 3.178022e+01 3.268998e+01 3.361715e+01 3.488550e+01 3.508057e+01 3.440325e+01 3.253757e+01 3.019663e+01 2.812588e+01 2.676351e+01 2.672651e+01 2.721122e+01 2.827493e+01 2.840218e+01 2.823676e+01 2.687915e+01 2.591263e+01 2.450830e+01 2.411359e+01 2.369646e+01 2.432881e+01 2.471448e+01 2.538474e+01 2.516868e+01 2.450159e+01 2.311271e+01 2.159758e+01 2.037460e+01 1.943842e+01 1.940615e+01 1.937192e+01 2.003625e+01 1.985050e+01 2.014911e+01 1.932655e+01 1.918680e+01 1.781199e+01 1.713418e+01 1.539704e+01 1.478460e+01 1.381513e+01 1.410728e+01 1.423515e+01 1.502027e+01 1.554971e+01 1.569727e+01 1.539119e+01 1.393738e+01 1.287258e+01 1.096333e+01 1.074606e+01 9.566269e+00 1.031427e+01 9.337882e+00 1.032824e+01 9.272689e+00 1.025355e+01 9.216681e+00 9.995949e+00 8.643909e+00 8.358834e+00 6.521525e+00 5.750878e+00 4.944089e+00 4.765826e+00 5.104415e+00 4.398567e+00 4.746409e+00 3.180586e+00 3.976411e+00 1.996872e+00 4.015781e+00 1.550593e+00 0 0 0 0 
0 0 0 0 0 -1.008368e+00 -8.067615e-01 -6.884317e-01 -1.219654e+00 -8.454943e-01 -1.549369e+00 -1.112365e+00 -1.801095e+00 -1.080887e+00 1.890634e+00 4.426330e+00 5.952327e+00 8.226897e+00 1.046346e+01 1.163325e+01 1.570334e+01 1.592266e+01 1.559400e+01 1.561702e+01 1.521180e+01 1.530395e+01 1.491781e+01 1.494958e+01 1.443297e+01 1.438912e+01 1.398817e+01 1.418675e+01 1.415019e+01 1.446855e+01 1.432314e+01 1.417301e+01 1.362549e+01 1.318466e+01 1.282275e+01 1.274681e+01 1.287164e+01 1.298907e+01 1.316036e+01 1.308803e+01 1.305136e+01 1.269651e+01 1.244595e+01 1.190426e+01 1.157049e+01 1.107200e+01 1.093186e+01 1.080358e+01 1.111280e+01 1.142795e+01 1.185905e+01 1.192534e+01 1.169513e+01 1.106097e+01 1.026528e+01 9.561408e+00 9.098327e+00 9.085754e+00 9.250519e+00 9.612097e+00 9.655356e+00 9.599130e+00 9.137661e+00 8.809123e+00 8.331760e+00 8.197587e+00 8.055784e+00 8.270726e+00 8.401821e+00 8.629646e+00 8.556196e+00 8.329434e+00 7.857308e+00 7.342280e+00 6.926545e+00 6.608315e+00 6.597354e+00 6.585725e+00 6.811564e+00 6.748429e+00 6.849942e+00 6.570325e+00 6.522813e+00 6.055448e+00 5.825018e+00 5.234454e+00 5.026238e+00 4.696634e+00 4.795927e+00 4.839377e+00 5.106258e+00 5.286241e+00 5.336408e+00 5.232365e+00 4.738178e+00 4.376211e+00 3.727192e+00 3.653355e+00 3.252290e+00 3.506588e+00 3.174633e+00 3.511275e+00 3.152355e+00 3.485714e+00 3.133097e+00 3.397885e+00 2.938092e+00 2.841066e+00 2.216294e+00 1.954252e+00 1.679923e+00 1.619349e+00 1.734563e+00 1.494754e+00 1.613156e+00 1.080719e+00 1.349157e+00 6.744663e-01 1.363094e+00 5.270551e-01 0 0 0 0 
0 0 0 0 0 0 0 0 0 0 0 0 0 0 0 0 0 0 0 0 0 0 0 0 0 0 0 0 0 0 0 0 0 0 0 0 0 0 0 0 0 0 0 0 0 0 0 0 0 0 0 0 0 0 0 0 0 0 0 0 0 0 0 0 0 0 0 0 0 0 0 0 0 0 0 0 0 0 0 0 0 0 0 0 0 0 0 0 0 0 0 0 0 0 0 0 0 0 0 0 0 0 0 0 0 0 0 0 0 0 0 0 0 0 0 0 0 0 0 0 0 0 0 0 0 0 0 0 
