# vtk DataFile Version 2.0
Comment goes here
ASCII

DATASET STRUCTURED_POINTS
FIELD FieldData 1
TIME 1 1 double
0.57000000
DIMENSIONS    128   16   1

ORIGIN    0.000   0.000   0.000
SPACING   0.0078125 0.015625   1.000

POINT_DATA   2048
SCALARS fY double
LOOKUP_TABLE default

0 0 0 0 0 0 0 0 0 0 0 0 0 0 0 0 0 0 0 0 0 0 0 0 0 0 0 0 0 0 0 0 0 0 0 0 0 0 0 0 0 0 0 0 0 0 0 0 0 0 0 0 0 0 0 0 0 0 0 0 0 0 0 0 0 0 0 0 0 0 0 0 0 0 0 0 0 0 0 0 0 0 0 0 0 0 0 0 0 0 0 0 0 0 0 0 0 0 0 0 0 0 0 0 0 0 0 0 0 0 0 0 0 0 0 0 0 0 0 0 0 0 0 0 0 0 0 0 
0 0 0 0 0 0 0 0 0 0 0 0 0 0 0 0 0 0 0 0 0 0 0 0 0 0 0 0 0 0 0 0 0 0 0 0 0 0 0 0 0 0 0 0 0 0 0 0 0 0 0 0 0 0 0 0 0 0 0 0 0 0 0 0 0 0 0 0 0 0 0 0 0 0 0 0 0 0 0 0 0 0 0 0 0 0 0 0 0 0 0 0 0 0 0 0 0 0 0 0 0 0 0 0 0 0 0 0 0 0 0 0 0 0 0 0 0 0 0 0 0 0 0 0 0 0 0 0 
0 0 0 0 0 1.006330e+00 8.123723e-01 7.037461e-01 1.244897e+00 8.641563e-01 1.546588e+00 1.087516e+00 1.772993e+00 1.064030e+00 -1.912512e+00 -4.451877e+00 -5.984797e+00 -8.261541e+00 -1.048207e+01 -1.162838e+01 -1.568489e+01 -1.589462e+01 -1.557959e+01 -1.562067e+01 -1.519679e+01 -1.524137e+01 -1.484679e+01 -1.499309e+01 -1.468531e+01 -1.486375e+01 -1.454780e+01 -1.460537e+01 -1.419481e+01 -1.409993e+01 -1.371137e+01 -1.365788e+01 -1.351189e+01 -1.359939e+01 -1.361002e+01 -1.357656e+01 -1.342568e+01 -1.307652e+01 -1.278596e+01 -1.238153e+01 -1.229061e+01 -1.211932e+01 -1.230262e+01 -1.226649e+01 -1.247153e+01 -1.231256e+01 -1.229373e+01 -1.189812e+01 -1.165706e+01 -1.121696e+01 -1.103356e+01 -1.087119e+01 -1.117212e+01 -1.247640e+01 -1.368256e+01 -1.420313e+01 -1.585368e+01 -1.462376e+01 -1.039791e+01 -1.020809e+01 -1.168773e+01 -1.329318e+01 -1.460061e+01 -1.578615e+01 -1.780338e+01 -1.540795e+01 -8.961586e+00 -7.298826e+00 -8.134086e+00 -8.077704e+00 -7.835365e+00 -7.601123e+00 -7.333795e+00 -7.108347e+00 -6.983053e+00 -6.896803e+00 -6.950142e+00 -6.910496e+00 -6.958863e+00 -6.749936e+00 -6.619811e+00 -6.183408e+00 -5.950982e+00 -5.507483e+00 -5.436594e+00 -5.238868e+00 -5.414229e+00 -5.378817e+00 -5.497831e+00 -5.302014e+00 -5.110050e+00 -4.769824e+00 -4.462745e+00 -4.296972e+00 -4.088727e+00 -4.174192e+00 -3.979896e+00 -4.157023e+00 -3.809581e+00 -3.931137e+00 -3.388085e+00 -3.465982e+00 -2.881060e+00 -3.048065e+00 -2.600212e+00 -2.864099e+00 -2.531543e+00 -2.694051e+00 -2.354557e+00 -2.281325e+00 -1.994952e+00 -1.759569e+00 -1.669970e+00 -1.332940e+00 -1.480074e+00 -1.028575e+00 -1.365005e+00 -7.057957e-01 -1.378235e+00 -5.281699e-01 0 0 0 0 
0 0 0 0 0 2.959017e+00 2.381077e+00 2.057295e+00 3.655294e+00 2.540231e+00 4.548356e+00 3.198266e+00 5.214179e+00 3.128842e+00 -5.625754e+00 -1.309532e+01 -1.760453e+01 -2.430248e+01 -3.083471e+01 -3.420746e+01 -4.614296e+01 -4.676002e+01 -4.583315e+01 -4.595397e+01 -4.470658e+01 -4.483758e+01 -4.367642e+01 -4.410671e+01 -4.320099e+01 -4.372594e+01 -4.279627e+01 -4.296565e+01 -4.175767e+01 -4.147853e+01 -4.033536e+01 -4.017802e+01 -3.974854e+01 -4.000602e+01 -4.003731e+01 -3.993885e+01 -3.949493e+01 -3.846761e+01 -3.761272e+01 -3.642277e+01 -3.615525e+01 -3.565125e+01 -3.619050e+01 -3.608418e+01 -3.668743e+01 -3.621974e+01 -3.616433e+01 -3.500044e+01 -3.429124e+01 -3.299649e+01 -3.245693e+01 -3.197925e+01 -3.250916e+01 -3.477482e+01 -3.624663e+01 -3.624405e+01 -3.746003e+01 -3.625016e+01 -3.272091e+01 -3.250105e+01 -3.248952e+01 -3.322434e+01 -3.286254e+01 -3.305727e+01 -3.338047e+01 -3.067156e+01 -2.588430e+01 -2.451276e+01 -2.414550e+01 -2.376096e+01 -2.304804e+01 -2.235894e+01 -2.157253e+01 -2.090930e+01 -2.054072e+01 -2.028699e+01 -2.044388e+01 -2.032725e+01 -2.046952e+01 -1.985491e+01 -1.947212e+01 -1.818836e+01 -1.750465e+01 -1.620007e+01 -1.599157e+01 -1.540999e+01 -1.592590e+01 -1.582179e+01 -1.617195e+01 -1.559599e+01 -1.503132e+01 -1.403056e+01 -1.312723e+01 -1.263957e+01 -1.202695e+01 -1.227827e+01 -1.170665e+01 -1.222760e+01 -1.120553e+01 -1.156309e+01 -9.965750e+00 -1.019500e+01 -8.474686e+00 -8.966192e+00 -7.649212e+00 -8.425814e+00 -7.448029e+00 -7.926412e+00 -6.928173e+00 -6.712950e+00 -5.870743e+00 -5.178253e+00 -4.914458e+00 -3.922634e+00 -4.354958e+00 -3.027224e+00 -4.023024e+00 -2.089009e+00 -4.060315e+00 -1.553874e+00 0 0 0 0 
0 0 0 0 0 2.043588e+00 1.640747e+00 1.415011e+00 2.521933e+00 1.754003e+00 3.141603e+00 2.209077e+00 3.601489e+00 3.606234e+00 -5.282260e+00 -5.195822e+00 -1.430629e+01 -1.448673e+01 -2.330687e+01 -2.385791e+01 -3.233395e+01 -3.230525e+01 -3.166485e+01 -3.174831e+01 -3.088634e+01 -3.097677e+01 -3.017437e+01 -3.047160e+01 -2.984574e+01 -3.020841e+01 -2.956604e+01 -2.968306e+01 -2.884843e+01 -2.865557e+01 -2.786575e+01 -2.775705e+01 -2.746033e+01 -2.763825e+01 -2.765988e+01 -2.759185e+01 -2.728514e+01 -2.657532e+01 -2.598465e+01 -2.516247e+01 -2.497762e+01 -2.462938e+01 -2.500194e+01 -2.492847e+01 -2.534526e+01 -2.502213e+01 -2.498385e+01 -2.417972e+01 -2.368974e+01 -2.279521e+01 -2.242244e+01 -2.209242e+01 -2.175087e+01 -1.943667e+01 -1.797768e+01 -1.829565e+01 -1.531336e+01 -1.567314e+01 -1.958558e+01 -1.872861e+01 -1.546301e+01 -1.311137e+01 -1.084316e+01 -9.640211e+00 -6.041000e+00 -8.219361e+00 -1.547789e+01 -1.771275e+01 -1.664654e+01 -1.641453e+01 -1.592200e+01 -1.544592e+01 -1.490262e+01 -1.444443e+01 -1.418979e+01 -1.401449e+01 -1.412288e+01 -1.404230e+01 -1.414058e+01 -1.371597e+01 -1.345153e+01 -1.256466e+01 -1.209233e+01 -1.119109e+01 -1.104707e+01 -1.064532e+01 -1.100176e+01 -1.092987e+01 -1.117180e+01 -1.077394e+01 -1.038386e+01 -9.692527e+00 -9.068466e+00 -8.731573e+00 -8.308325e+00 -8.481903e+00 -8.086980e+00 -8.446826e+00 -7.740736e+00 -7.987740e+00 -6.884304e+00 -7.042728e+00 -5.854431e+00 -6.194094e+00 -5.284495e+00 -5.821162e+00 -5.145906e+00 -5.476555e+00 -4.787146e+00 -4.638558e+00 -4.056830e+00 -3.578395e+00 -3.396048e+00 -2.710667e+00 -3.009092e+00 -2.092049e+00 -2.782960e+00 -1.449367e+00 -2.807932e+00 -1.073560e+00 0 0 0 0 
0 0 0 0 0 9.090051e-02 7.204266e-02 6.146273e-02 1.115362e-01 7.792856e-02 1.398346e-01 9.832669e-02 1.603032e-01 9.252334e-01 -1.847246e+00 3.750271e+00 -2.987125e+00 1.853201e+00 -3.267286e+00 -1.085101e+00 -1.807239e+00 -1.439845e+00 -1.411289e+00 -1.415007e+00 -1.376543e+00 -1.380555e+00 -1.344746e+00 -1.357981e+00 -1.330055e+00 -1.346217e+00 -1.317564e+00 -1.322781e+00 -1.285564e+00 -1.276967e+00 -1.241754e+00 -1.236911e+00 -1.223686e+00 -1.231624e+00 -1.232590e+00 -1.229557e+00 -1.215881e+00 -1.184226e+00 -1.157889e+00 -1.121225e+00 -1.112979e+00 -1.097449e+00 -1.114055e+00 -1.110777e+00 -1.129358e+00 -1.114951e+00 -1.113247e+00 -1.077399e+00 -1.055557e+00 -1.015684e+00 -9.990671e-01 -9.843578e-01 -3.523520e-01 3.176337e+00 4.964353e+00 4.069179e+00 6.384185e+00 5.670953e+00 2.260753e+00 2.957924e+00 4.559905e+00 5.998609e+00 6.789710e+00 6.984169e+00 8.295664e+00 5.365865e+00 -3.204939e-01 -1.671220e+00 -8.443890e-01 -7.312691e-01 -7.093183e-01 -6.881010e-01 -6.638901e-01 -6.434704e-01 -6.321228e-01 -6.243102e-01 -6.291389e-01 -6.255469e-01 -6.299259e-01 -6.110038e-01 -5.992203e-01 -5.597029e-01 -5.386585e-01 -4.985072e-01 -4.920941e-01 -4.742014e-01 -4.900906e-01 -4.868941e-01 -4.976820e-01 -4.799630e-01 -4.625849e-01 -4.317897e-01 -4.039820e-01 -3.889706e-01 -3.701064e-01 -3.778298e-01 -3.602255e-01 -3.762474e-01 -3.447845e-01 -3.557880e-01 -3.066389e-01 -3.137106e-01 -2.608043e-01 -2.759671e-01 -2.354941e-01 -2.594473e-01 -2.294194e-01 -2.441940e-01 -2.135296e-01 -2.069336e-01 -1.810392e-01 -1.597123e-01 -1.515600e-01 -1.209728e-01 -1.342088e-01 -9.340045e-02 -1.249400e-01 -6.615329e-02 -1.258525e-01 -4.785628e-02 0 0 0 0 
0 0 0 0 0 0 0 0 0 0 0 0 0 9.463000e-01 -2.814450e-01 9.899033e-01 -6.404939e-01 6.849442e-01 -7.744095e-01 1.296337e-01 -1.087037e+00 0 0 0 0 0 0 0 0 0 0 0 0 0 0 0 0 0 0 0 0 0 0 0 0 0 0 0 0 0 0 0 0 0 0 0 8.991964e-02 5.064125e-01 5.740423e-01 3.757600e-01 3.129508e-01 2.684194e-02 -5.139286e-01 -6.275896e-01 -4.810889e-01 -4.370202e-01 -2.528192e-01 -1.647992e-01 -3.208463e-01 -6.639760e-01 -1.461476e+00 -1.311332e+00 -2.424567e-01 0 0 0 0 0 0 0 0 0 0 0 0 0 0 0 0 0 0 0 0 0 0 0 0 0 0 0 0 0 0 0 0 0 0 0 0 0 0 0 0 0 0 0 0 0 0 0 0 0 0 0 0 0 0 0 
0 0 0 0 0 0 0 0 0 0 0 0 0 4.448746e-01 -2.959937e-01 7.154447e-01 -5.242807e-01 5.576537e-01 -5.365542e-01 1.651226e-01 -5.346521e-01 0 0 0 0 0 0 0 0 0 0 0 0 0 0 0 0 0 0 0 0 0 0 0 0 0 0 0 0 0 0 0 0 0 0 0 6.470191e-02 4.832662e-01 4.730928e-01 -2.865649e-02 2.079753e-01 4.530266e-01 8.307662e-02 6.188717e-02 3.155831e-01 2.341497e-01 3.907813e-02 -2.858006e-02 2.176183e-01 3.795844e-01 -8.860784e-02 -2.897612e-01 -4.760198e-02 0 0 0 0 0 0 0 0 0 0 0 0 0 0 0 0 0 0 0 0 0 0 0 0 0 0 0 0 0 0 0 0 0 0 0 0 0 0 0 0 0 0 0 0 0 0 0 0 0 0 0 0 0 0 0 
0 0 0 0 0 0 0 0 0 0 0 0 0 4.360759e-03 5.946613e-03 6.307114e-03 1.031616e-02 1.101597e-02 1.787452e-02 1.844596e-02 2.768344e-02 0 0 0 0 0 0 0 0 0 0 0 0 0 0 0 0 0 0 0 0 0 0 0 0 0 0 0 0 0 0 0 0 0 0 0 6.476877e-02 4.991712e-01 5.705160e-01 1.670428e-01 3.499756e-01 4.611700e-01 1.392674e-01 8.799210e-02 1.869544e-01 1.084156e-01 3.175535e-02 1.465691e-02 7.310491e-02 1.545048e-02 -2.533577e-01 -2.128265e-01 -2.191209e-02 0 0 0 0 0 0 0 0 0 0 0 0 0 0 0 0 0 0 0 0 0 0 0 0 0 0 0 0 0 0 0 0 0 0 0 0 0 0 0 0 0 0 0 0 0 0 0 0 0 0 0 0 0 0 0 
0 0 0 0 0 0 0 0 0 0 0 0 0 -4.448359e-01 2.989026e-01 -7.148620e-01 5.331209e-01 -5.483538e-01 5.599030e-01 -1.399093e-01 5.828856e-01 0 0 0 0 0 0 0 0 0 0 0 0 0 0 0 0 0 0 0 0 0 0 0 0 0 0 0 0 0 0 0 0 0 0 0 2.849683e-02 2.077385e-01 2.935082e-01 2.475547e-01 3.637564e-01 3.173009e-01 1.893293e-02 4.946266e-03 1.691637e-01 2.584220e-01 3.689094e-01 5.251692e-01 7.750658e-01 6.502757e-01 1.390881e-01 -6.199099e-02 -7.505169e-03 0 0 0 0 0 0 0 0 0 0 0 0 0 0 0 0 0 0 0 0 0 0 0 0 0 0 0 0 0 0 0 0 0 0 0 0 0 0 0 0 0 0 0 0 0 0 0 0 0 0 0 0 0 0 0 
0 0 0 0 0 0 0 0 0 0 0 0 0 -9.434506e-01 2.847039e-01 -9.884093e-01 6.483717e-01 -6.737922e-01 8.029108e-01 -9.300447e-02 1.159950e+00 0 0 0 0 0 0 0 0 0 0 0 0 0 0 0 0 0 0 0 0 0 0 0 0 0 0 0 0 0 0 0 0 0 0 0 0 0 0 0 0 0 0 0 0 0 0 0 0 0 0 0 0 0 0 0 0 0 0 0 0 0 0 0 0 0 0 0 0 0 0 0 0 0 0 0 0 0 0 0 0 0 0 0 0 0 0 0 0 0 0 0 0 0 0 0 0 0 0 0 0 0 0 0 0 0 0 0 
0 0 0 0 0 -9.082288e-02 -7.208142e-02 -6.193531e-02 -1.129375e-01 -7.996222e-02 -1.419816e-01 -1.002624e-01 -1.622404e-01 -9.543727e-01 1.826951e+00 -3.783816e+00 2.960255e+00 -1.874574e+00 3.251569e+00 1.087418e+00 1.853349e+00 1.424363e+00 1.394749e+00 1.404930e+00 1.378813e+00 1.395003e+00 1.366018e+00 1.377391e+00 1.340845e+00 1.344036e+00 1.304370e+00 1.304137e+00 1.271759e+00 1.275465e+00 1.255800e+00 1.260031e+00 1.245072e+00 1.239691e+00 1.223340e+00 1.208334e+00 1.194423e+00 1.175426e+00 1.165790e+00 1.143314e+00 1.135958e+00 1.112266e+00 1.109576e+00 1.088599e+00 1.088504e+00 1.066944e+00 1.063787e+00 1.040782e+00 1.034309e+00 1.011560e+00 1.001092e+00 9.800566e-01 9.682282e-01 9.534758e-01 9.418037e-01 9.308685e-01 9.129366e-01 8.992897e-01 8.749992e-01 8.635547e-01 8.412622e-01 8.377335e-01 8.181566e-01 8.154526e-01 7.917618e-01 7.847872e-01 7.593920e-01 7.504968e-01 7.263651e-01 7.162610e-01 6.967919e-01 6.878019e-01 6.755241e-01 6.653401e-01 6.566053e-01 6.413076e-01 6.353975e-01 6.156118e-01 6.119003e-01 5.855733e-01 5.808399e-01 5.494296e-01 5.482990e-01 5.224451e-01 5.313145e-01 5.131139e-01 5.207316e-01 4.967670e-01 4.886591e-01 4.582171e-01 4.405896e-01 4.189470e-01 4.028362e-01 3.987327e-01 3.839358e-01 3.915085e-01 3.656753e-01 3.717008e-01 3.289313e-01 3.359953e-01 2.902151e-01 3.087722e-01 2.681545e-01 2.906161e-01 2.478476e-01 2.607285e-01 2.173923e-01 2.235424e-01 1.945537e-01 1.978677e-01 1.854949e-01 1.750777e-01 1.725220e-01 1.416963e-01 1.494656e-01 1.005738e-01 1.241496e-01 6.262295e-02 1.238930e-01 4.756498e-02 0 0 0 0 
0 0 0 0 0 -2.041841e+00 -1.641572e+00 -1.425559e+00 -2.553365e+00 -1.799660e+00 -3.189821e+00 -2.252556e+00 -3.645008e+00 -3.680503e+00 5.209856e+00 5.111934e+00 1.420914e+01 1.438302e+01 2.317756e+01 2.372174e+01 3.217283e+01 3.195810e+01 3.129397e+01 3.152242e+01 3.093724e+01 3.130078e+01 3.065136e+01 3.090682e+01 3.008770e+01 3.015948e+01 2.927015e+01 2.926498e+01 2.853887e+01 2.862191e+01 2.818079e+01 2.827557e+01 2.794000e+01 2.781925e+01 2.745247e+01 2.711594e+01 2.680394e+01 2.637797e+01 2.616191e+01 2.565793e+01 2.549301e+01 2.496174e+01 2.490146e+01 2.443102e+01 2.442891e+01 2.394535e+01 2.387454e+01 2.335847e+01 2.321325e+01 2.270289e+01 2.246804e+01 2.199611e+01 2.173075e+01 2.139978e+01 2.113794e+01 2.089263e+01 2.049039e+01 2.018425e+01 1.963937e+01 1.938264e+01 1.888255e+01 1.880341e+01 1.836421e+01 1.830354e+01 1.777198e+01 1.761547e+01 1.704561e+01 1.684597e+01 1.630442e+01 1.607765e+01 1.564071e+01 1.543896e+01 1.516341e+01 1.493490e+01 1.473890e+01 1.439568e+01 1.426310e+01 1.381919e+01 1.373596e+01 1.314522e+01 1.303902e+01 1.233411e+01 1.230870e+01 1.172837e+01 1.192729e+01 1.151863e+01 1.168940e+01 1.115130e+01 1.096916e+01 1.028567e+01 9.889972e+00 9.404093e+00 9.042551e+00 8.950546e+00 8.618618e+00 8.788837e+00 8.209258e+00 8.344721e+00 7.384849e+00 7.543447e+00 6.515616e+00 6.931863e+00 6.019460e+00 6.522928e+00 5.561806e+00 5.849951e+00 4.875838e+00 5.012937e+00 4.361166e+00 4.435009e+00 4.156973e+00 3.923414e+00 3.866741e+00 3.176016e+00 3.351629e+00 2.253184e+00 2.765404e+00 1.370370e+00 2.764082e+00 1.067032e+00 0 0 0 0 
0 0 0 0 0 -2.956487e+00 -2.382260e+00 -2.072548e+00 -3.700789e+00 -2.606325e+00 -4.618162e+00 -3.261211e+00 -5.277184e+00 -3.189867e+00 5.558321e+00 1.304759e+01 1.755886e+01 2.424066e+01 3.074533e+01 3.402248e+01 4.580488e+01 4.625760e+01 4.529639e+01 4.562705e+01 4.478025e+01 4.530652e+01 4.436677e+01 4.473659e+01 4.355118e+01 4.365513e+01 4.236804e+01 4.236057e+01 4.130964e+01 4.142981e+01 4.079135e+01 4.092849e+01 4.044278e+01 4.026801e+01 3.973713e+01 3.925007e+01 3.879850e+01 3.818199e+01 3.786929e+01 3.713988e+01 3.690120e+01 3.613229e+01 3.604507e+01 3.536418e+01 3.536114e+01 3.466126e+01 3.455876e+01 3.381181e+01 3.360162e+01 3.286290e+01 3.252298e+01 3.183989e+01 3.145581e+01 3.097675e+01 3.059777e+01 3.024270e+01 2.966051e+01 2.921740e+01 2.842874e+01 2.805716e+01 2.733333e+01 2.721879e+01 2.658307e+01 2.649526e+01 2.572586e+01 2.549930e+01 2.467444e+01 2.438547e+01 2.360157e+01 2.327332e+01 2.264084e+01 2.234880e+01 2.194994e+01 2.161918e+01 2.133548e+01 2.083869e+01 2.064680e+01 2.000425e+01 1.988380e+01 1.902872e+01 1.887501e+01 1.785464e+01 1.781786e+01 1.697779e+01 1.726571e+01 1.667412e+01 1.692125e+01 1.614229e+01 1.587860e+01 1.488916e+01 1.431635e+01 1.361300e+01 1.308967e+01 1.295651e+01 1.247608e+01 1.272254e+01 1.188364e+01 1.207979e+01 1.069036e+01 1.091995e+01 9.432046e+00 1.003451e+01 8.713586e+00 9.442202e+00 8.050639e+00 8.467496e+00 7.057065e+00 7.255284e+00 6.311535e+00 6.418289e+00 6.015737e+00 5.677716e+00 5.595855e+00 4.596298e+00 4.850817e+00 3.260505e+00 3.997658e+00 1.974720e+00 3.996874e+00 1.544426e+00 0 0 0 0 
0 0 0 0 0 -1.005469e+00 -8.127690e-01 -7.089241e-01 -1.260361e+00 -8.866264e-01 -1.570322e+00 -1.108918e+00 -1.794416e+00 -1.084780e+00 1.889584e+00 4.435649e+00 5.969268e+00 8.240524e+00 1.045168e+01 1.156551e+01 1.556999e+01 1.572386e+01 1.539717e+01 1.550957e+01 1.522182e+01 1.540075e+01 1.508142e+01 1.520716e+01 1.480433e+01 1.483968e+01 1.440225e+01 1.439972e+01 1.404253e+01 1.408337e+01 1.386636e+01 1.391296e+01 1.374786e+01 1.368845e+01 1.350800e+01 1.334246e+01 1.318898e+01 1.297945e+01 1.287317e+01 1.262527e+01 1.254415e+01 1.228282e+01 1.225318e+01 1.202176e+01 1.202073e+01 1.178285e+01 1.174801e+01 1.149412e+01 1.142267e+01 1.117158e+01 1.105603e+01 1.082384e+01 1.069329e+01 1.053045e+01 1.040163e+01 1.028094e+01 1.008305e+01 9.932441e+00 9.664373e+00 9.538072e+00 9.292038e+00 9.253107e+00 9.037019e+00 9.007172e+00 8.745634e+00 8.668620e+00 8.388224e+00 8.289989e+00 8.023512e+00 7.911926e+00 7.696920e+00 7.597643e+00 7.462055e+00 7.349622e+00 7.253183e+00 7.084317e+00 7.019093e+00 6.800680e+00 6.759740e+00 6.469076e+00 6.416829e+00 6.069965e+00 6.057457e+00 5.771869e+00 5.869728e+00 5.668599e+00 5.752585e+00 5.487752e+00 5.398089e+00 5.061704e+00 4.866970e+00 4.627850e+00 4.449952e+00 4.404697e+00 4.241398e+00 4.325214e+00 4.040059e+00 4.106766e+00 3.634439e+00 3.712494e+00 3.206645e+00 3.411421e+00 2.962280e+00 3.209890e+00 2.736681e+00 2.878273e+00 2.398620e+00 2.465889e+00 2.144923e+00 2.181147e+00 2.044259e+00 1.929380e+00 1.901636e+00 1.561979e+00 1.648654e+00 1.107895e+00 1.356404e+00 6.669725e-01 1.356684e+00 5.249595e-01 0 0 0 0 
0 0 0 0 0 0 0 0 0 0 0 0 0 0 0 0 0 0 0 0 0 0 0 0 0 0 0 0 0 0 0 0 0 0 0 0 0 0 0 0 0 0 0 0 0 0 0 0 0 0 0 0 0 0 0 0 0 0 0 0 0 0 0 0 0 0 0 0 0 0 0 0 0 0 0 0 0 0 0 0 0 0 0 0 0 0 0 0 0 0 0 0 0 0 0 0 0 0 0 0 0 0 0 0 0 0 0 0 0 0 0 0 0 0 0 0 0 0 0 0 0 0 0 0 0 0 0 0 
