# vtk DataFile Version 2.0
Comment goes here
ASCII

DATASET STRUCTURED_POINTS
FIELD FieldData 1
TIME 1 1 double
0.22000000
DIMENSIONS    128   16   1

ORIGIN    0.000   0.000   0.000
SPACING   0.0078125 0.015625   1.000

POINT_DATA   2048
SCALARS Omega double
LOOKUP_TABLE default

-5.146545e-07 -7.312207e-06 -1.621087e-05 -2.370002e-05 -1.902801e-05 7.794508e-07 -1.543187e-05 -8.262676e-06 -9.668197e-06 5.919027e-07 1.305657e-06 -2.869895e-05 -8.349410e-05 -5.978609e-05 -5.401274e-05 -3.658856e-05 6.615832e-06 -3.546014e-05 2.362271e-05 3.522041e-06 -7.697526e-05 -8.725952e-05 -1.249153e-04 -1.306804e-04 -7.688984e-05 -2.604112e-05 4.668600e-05 6.138955e-05 7.506067e-05 9.478568e-06 1.533864e-05 3.123636e-06 6.561601e-05 6.174120e-05 1.175711e-04 1.232169e-04 1.704866e-04 1.705965e-04 2.445613e-04 3.366775e-04 4.536771e-04 6.141123e-04 8.482164e-04 1.224495e-03 1.680873e-03 2.355628e-03 3.149495e-03 4.151936e-03 4.786567e-03 4.506990e-03 1.406018e-03 -6.491869e-03 -2.214434e-02 -4.623530e-02 -7.536385e-02 -9.863673e-02 -1.096332e-01 -1.228602e-01 -1.312202e-01 -1.200455e-01 -1.312122e-01 -1.515198e-01 -8.998789e-02 2.932552e-02 8.257350e-02 6.413969e-02 5.111413e-02 6.061192e-02 4.768221e-02 2.735120e-02 8.648513e-02 2.021398e-01 2.406235e-01 1.919525e-01 1.282525e-01 7.671534e-02 3.800981e-02 1.288187e-02 -3.720896e-05 -4.941403e-03 -5.604107e-03 -4.765308e-03 -3.540781e-03 -2.563169e-03 -1.720397e-03 -1.203823e-03 -7.433485e-04 -5.626813e-04 -3.294469e-04 -2.426192e-04 -1.121745e-04 -7.731313e-05 -1.973723e-05 -3.941020e-05 -2.650873e-05 -1.404456e-05 -2.463780e-05 1.222073e-05 -2.636947e-05 4.589877e-05 2.686407e-05 4.636195e-05 -1.059293e-05 8.629118e-06 -4.308637e-05 -5.891793e-06 -3.466865e-05 3.612057e-05 1.091238e-05 2.892536e-05 -3.854492e-06 5.631463e-06 -1.877892e-05 -2.700877e-05 -3.558364e-05 -1.164394e-05 6.606524e-06 2.732249e-05 8.348019e-05 1.149955e-04 1.489787e-04 1.457175e-04 1.577130e-04 1.303216e-04 8.904247e-05 4.331912e-05 1.786486e-05 6.394781e-06 
-7.589845e-03 -5.749443e-03 2.852325e-03 -2.149483e-02 -1.934456e-01 1.477802e-01 1.183107e+00 5.722899e-01 4.023042e-01 4.325279e-01 4.588338e-01 4.326383e-01 -5.727318e-01 -2.386357e+00 -3.183849e+00 -2.727923e+00 -2.970867e+00 -2.912105e+00 -2.787681e+00 -3.142320e+00 -2.457809e+00 -3.091836e-01 4.257806e-01 4.872232e-01 4.242382e-01 4.354144e-01 4.199822e-01 4.419594e-01 4.400588e-01 4.527937e-01 4.479980e-01 4.416276e-01 4.401800e-01 4.328780e-01 4.440053e-01 4.380780e-01 4.581185e-01 4.458573e-01 4.578148e-01 4.341020e-01 4.457689e-01 4.273972e-01 4.476601e-01 4.386603e-01 4.587431e-01 4.439444e-01 4.535969e-01 4.392113e-01 4.474507e-01 4.403319e-01 4.470206e-01 4.331712e-01 4.168560e-01 3.910833e-01 4.041341e-01 4.905893e-01 6.202444e-01 4.063318e-01 7.419388e-03 -1.835227e-01 2.577230e-01 1.456133e+00 1.286065e+00 1.591955e-01 -1.220387e-02 6.109066e-02 6.296799e-02 -2.436625e-02 2.529999e-01 1.470353e+00 1.289121e+00 1.150804e-01 3.222960e-01 6.920039e-01 5.929990e-01 5.164649e-01 4.734168e-01 4.471202e-01 4.310627e-01 4.214599e-01 4.240490e-01 4.313186e-01 4.380820e-01 4.371499e-01 4.360128e-01 4.275150e-01 4.297805e-01 4.288234e-01 4.371652e-01 4.315597e-01 4.354862e-01 4.275834e-01 4.384472e-01 4.294858e-01 4.382947e-01 4.276577e-01 4.355230e-01 4.253177e-01 4.378240e-01 4.308908e-01 4.422187e-01 4.303252e-01 4.339234e-01 4.305445e-01 4.349424e-01 4.408890e-01 4.335967e-01 4.420849e-01 4.237625e-01 4.469073e-01 4.193104e-01 4.555696e-01 4.129059e-01 4.643278e-01 4.091225e-01 4.744116e-01 4.056476e-01 4.865056e-01 4.041213e-01 5.159349e-01 3.972577e-01 8.834468e-01 1.010074e+00 -4.459078e-02 -3.845506e-02 -4.747863e-03 -4.446260e-03 -6.344117e-03 
-2.140421e-02 -3.795424e-04 6.578930e-02 -4.782053e-02 -1.637122e+00 -1.006239e+00 2.991090e+00 9.851280e-01 7.605703e-01 7.069213e-01 7.876608e-01 5.911074e-01 -8.101007e-01 4.538980e-01 1.059133e+00 1.166972e+00 8.448165e-01 1.180696e+00 8.438387e-01 1.272686e+00 1.585805e-01 -3.389358e-01 5.196313e-01 8.271301e-01 6.985092e-01 7.743143e-01 6.771925e-01 7.661482e-01 7.022859e-01 7.816592e-01 7.186407e-01 7.471872e-01 6.831450e-01 7.045157e-01 6.954554e-01 7.338131e-01 7.622088e-01 7.730183e-01 7.751102e-01 7.137927e-01 7.028700e-01 6.566966e-01 7.009133e-01 6.845621e-01 7.599338e-01 7.373901e-01 7.748960e-01 7.111893e-01 7.348042e-01 6.931016e-01 7.319767e-01 7.121603e-01 7.470814e-01 7.314497e-01 8.278155e-01 8.913020e-01 8.027053e-01 5.682420e-01 4.311507e-01 2.073738e-01 6.061956e-01 1.820569e+00 1.602858e+00 4.524594e-01 3.007994e-01 4.449599e-01 3.747898e-01 1.264128e-01 4.086812e-01 1.705882e+00 1.646038e+00 4.217447e-01 3.753431e-01 6.922856e-01 6.898938e-01 6.754952e-01 6.272813e-01 6.317008e-01 6.119566e-01 6.415252e-01 6.568973e-01 7.223000e-01 7.089203e-01 7.128548e-01 6.658252e-01 6.509716e-01 6.321885e-01 6.689127e-01 6.865117e-01 6.839748e-01 6.773399e-01 6.479397e-01 6.704902e-01 6.339580e-01 6.841865e-01 6.496937e-01 7.216162e-01 6.695681e-01 7.497171e-01 6.605644e-01 7.203528e-01 6.079129e-01 6.694020e-01 6.055630e-01 6.939506e-01 6.708712e-01 7.064182e-01 6.851177e-01 6.544341e-01 6.938592e-01 6.243836e-01 7.457376e-01 6.107862e-01 7.984146e-01 5.736974e-01 8.197020e-01 5.185537e-01 8.479459e-01 4.819605e-01 9.472104e-01 4.007322e-01 2.009657e+00 1.353289e+00 -1.793353e+00 -2.659619e-02 1.924787e-01 3.201076e-02 -1.682982e-02 
-3.922559e-02 7.871356e-03 1.721686e-01 4.701098e-02 -3.685616e+00 -4.915951e+00 -1.207925e-01 -1.441750e+00 -1.046790e+00 -1.305019e+00 -1.016669e+00 -8.408611e-01 2.715968e-01 6.614797e-02 -2.986777e-01 -5.750111e-02 -1.184341e-01 -1.630355e-02 -1.836162e-01 -2.020249e-01 1.224715e-02 8.564720e-02 -8.751568e-01 -9.747763e-01 -1.183345e+00 -1.117910e+00 -1.299568e+00 -1.210448e+00 -1.382769e+00 -1.254066e+00 -1.397768e+00 -1.275764e+00 -1.443368e+00 -1.337638e+00 -1.436119e+00 -1.292468e+00 -1.346779e+00 -1.237110e+00 -1.306797e+00 -1.321366e+00 -1.427199e+00 -1.436078e+00 -1.445807e+00 -1.434817e+00 -1.352841e+00 -1.311727e+00 -1.263160e+00 -1.341743e+00 -1.329971e+00 -1.409647e+00 -1.379719e+00 -1.407877e+00 -1.321731e+00 -1.362699e+00 -1.338258e+00 -1.438274e+00 -1.458075e+00 -1.317232e+00 -1.083366e+00 -9.609460e-01 -1.312904e+00 -2.368174e+00 -2.065952e+00 -1.066400e+00 -9.002130e-01 -1.010386e+00 -1.113022e+00 -1.090042e+00 -1.424137e+00 -2.571577e+00 -2.384819e+00 -1.304831e+00 -1.277121e+00 -1.466617e+00 -1.465337e+00 -1.453356e+00 -1.558011e+00 -1.534417e+00 -1.571658e+00 -1.458348e+00 -1.441336e+00 -1.302629e+00 -1.385313e+00 -1.360493e+00 -1.484857e+00 -1.459481e+00 -1.530280e+00 -1.412189e+00 -1.423995e+00 -1.385936e+00 -1.436102e+00 -1.460883e+00 -1.477610e+00 -1.517696e+00 -1.435220e+00 -1.458654e+00 -1.302130e+00 -1.383604e+00 -1.235042e+00 -1.453980e+00 -1.352558e+00 -1.606320e+00 -1.438415e+00 -1.616338e+00 -1.373657e+00 -1.502849e+00 -1.327393e+00 -1.468163e+00 -1.407132e+00 -1.476038e+00 -1.465573e+00 -1.384356e+00 -1.461998e+00 -1.288891e+00 -1.548611e+00 -1.292768e+00 -1.691005e+00 -1.288303e+00 -1.795325e+00 -1.193226e+00 -1.986030e+00 -6.369836e-01 -3.703813e+00 -5.297760e+00 2.111087e-01 6.157665e-01 1.228480e-01 -2.421344e-02 
-5.326376e-02 -8.076162e-03 1.665752e-01 3.334331e-01 -1.913771e+00 -4.476495e+00 -4.245354e+00 -3.055708e+00 -2.295221e+00 -2.465055e+00 -2.191395e+00 -2.278297e+00 -2.366372e+00 -2.326945e+00 -2.150174e+00 -2.308317e+00 -2.209565e+00 -2.319484e+00 -2.206425e+00 -2.265177e+00 -2.302992e+00 -2.357728e+00 -2.166908e+00 -2.206158e+00 -2.289056e+00 -2.335185e+00 -2.428160e+00 -2.440357e+00 -2.560148e+00 -2.513926e+00 -2.600025e+00 -2.493334e+00 -2.603809e+00 -2.507871e+00 -2.611871e+00 -2.497122e+00 -2.599617e+00 -2.487768e+00 -2.570323e+00 -2.504582e+00 -2.610269e+00 -2.559614e+00 -2.628954e+00 -2.596439e+00 -2.601989e+00 -2.525799e+00 -2.518137e+00 -2.523789e+00 -2.540921e+00 -2.579501e+00 -2.601894e+00 -2.617329e+00 -2.575677e+00 -2.592401e+00 -2.603016e+00 -2.598265e+00 -2.495748e+00 -2.644243e+00 -2.877764e+00 -2.978405e+00 -2.642545e+00 -2.139865e+00 -2.203488e+00 -2.788931e+00 -2.926274e+00 -2.971320e+00 -2.973394e+00 -3.074335e+00 -2.857690e+00 -2.332739e+00 -2.463160e+00 -2.974757e+00 -2.884942e+00 -2.601910e+00 -2.597662e+00 -2.606089e+00 -2.668233e+00 -2.652222e+00 -2.669371e+00 -2.577912e+00 -2.577356e+00 -2.502507e+00 -2.579377e+00 -2.551333e+00 -2.632651e+00 -2.577606e+00 -2.637702e+00 -2.545706e+00 -2.588288e+00 -2.534696e+00 -2.588767e+00 -2.571684e+00 -2.626654e+00 -2.619035e+00 -2.595413e+00 -2.573185e+00 -2.490969e+00 -2.514854e+00 -2.450145e+00 -2.585451e+00 -2.544266e+00 -2.691307e+00 -2.571990e+00 -2.700921e+00 -2.529602e+00 -2.659993e+00 -2.492561e+00 -2.639408e+00 -2.513891e+00 -2.659703e+00 -2.541646e+00 -2.623023e+00 -2.521165e+00 -2.581738e+00 -2.573568e+00 -2.610433e+00 -2.664233e+00 -2.631387e+00 -2.723067e+00 -2.607960e+00 -2.752797e+00 -3.209913e+00 -6.118725e+00 -3.876204e+00 2.565275e-01 4.031419e-01 3.730513e-02 -5.581825e-02 
-5.024409e-02 -4.248363e-02 5.778701e-03 1.827652e-01 3.510510e-01 -5.926219e-01 -2.407443e+00 -1.337782e+00 -9.665166e-01 -9.356191e-01 -8.141153e-01 -9.992342e-01 -2.117848e+00 -1.728477e+00 -1.313794e+00 -1.319045e+00 -1.319640e+00 -1.316753e+00 -1.321289e+00 -1.314730e+00 -1.734817e+00 -1.895626e+00 -9.962825e-01 -8.986417e-01 -8.790667e-01 -9.266567e-01 -9.147433e-01 -9.489060e-01 -9.584811e-01 -9.750163e-01 -9.764922e-01 -9.559013e-01 -9.625157e-01 -9.423507e-01 -9.701952e-01 -9.535317e-01 -9.961259e-01 -9.690834e-01 -9.937884e-01 -9.483651e-01 -9.725623e-01 -9.386483e-01 -9.766487e-01 -9.612394e-01 -9.956759e-01 -9.668519e-01 -9.812021e-01 -9.566435e-01 -9.722907e-01 -9.681506e-01 -9.949719e-01 -9.974326e-01 -1.002322e+00 -9.705714e-01 -8.967377e-01 -8.265654e-01 -1.137773e+00 -1.385823e+00 -1.119393e+00 -1.376811e+00 -1.257811e+00 -1.005623e-01 -3.381884e-01 -1.279534e+00 -1.226246e+00 -1.044655e+00 -9.485555e-01 -1.322302e+00 -1.279288e+00 -1.331012e-01 -2.553602e-02 -9.246909e-01 -1.025393e+00 -8.934087e-01 -9.457758e-01 -9.747810e-01 -9.741179e-01 -9.721153e-01 -9.655585e-01 -9.515843e-01 -9.556476e-01 -9.608780e-01 -9.743586e-01 -9.646782e-01 -9.665557e-01 -9.413146e-01 -9.516952e-01 -9.389379e-01 -9.615328e-01 -9.414052e-01 -9.569174e-01 -9.347855e-01 -9.632747e-01 -9.411366e-01 -9.602712e-01 -9.363512e-01 -9.483415e-01 -9.306960e-01 -9.488872e-01 -9.461643e-01 -9.594356e-01 -9.517017e-01 -9.428690e-01 -9.541231e-01 -9.415073e-01 -9.729158e-01 -9.365119e-01 -9.742558e-01 -9.189157e-01 -9.832854e-01 -9.130505e-01 -9.957550e-01 -9.021986e-01 -1.006386e+00 -9.000301e-01 -1.019475e+00 -8.972789e-01 -1.025961e+00 -8.805545e-01 -1.026587e+00 -7.926804e-01 -1.604735e+00 -2.303250e+00 -2.659536e-01 2.160754e-01 3.743484e-02 -5.220427e-02 -5.707514e-02 
-2.728456e-02 -2.619335e-02 -2.511892e-02 -3.896510e-03 6.223063e-02 6.548145e-02 -1.518434e-01 -1.117663e-01 -4.749292e-02 2.026040e-03 1.229560e-01 -1.487498e-02 -1.995019e+00 -1.841143e+00 -8.917298e-01 -8.900291e-01 -8.900452e-01 -8.899305e-01 -8.901064e-01 -8.908057e-01 -1.683321e+00 -1.808236e+00 -2.393836e-01 -3.612244e-02 -5.429876e-02 -5.802537e-02 -5.089075e-02 -4.672857e-02 -4.598559e-02 -4.494520e-02 -4.639992e-02 -4.429855e-02 -4.648630e-02 -4.415948e-02 -4.744942e-02 -4.513993e-02 -4.903044e-02 -4.606748e-02 -4.900844e-02 -4.526463e-02 -4.803022e-02 -4.505040e-02 -4.831314e-02 -4.650267e-02 -4.945177e-02 -4.759643e-02 -4.959719e-02 -4.879634e-02 -5.144264e-02 -5.350736e-02 -5.817030e-02 -6.171068e-02 -6.017678e-02 -3.811900e-02 3.456453e-02 1.073582e-01 -1.542695e-02 -1.019795e-01 5.064743e-02 -8.752413e-03 -4.320737e-02 2.308557e-01 1.895711e-01 4.906881e-02 7.365773e-02 5.293320e-02 1.070181e-01 1.051572e-01 8.397415e-02 2.305637e-01 2.497673e-01 1.718806e-01 2.115220e-01 1.374778e-01 2.135510e-02 -2.792101e-02 -4.273795e-02 -4.816155e-02 -5.024935e-02 -5.042639e-02 -5.067488e-02 -5.044922e-02 -5.052668e-02 -4.929631e-02 -4.901561e-02 -4.721046e-02 -4.767150e-02 -4.647967e-02 -4.776870e-02 -4.614852e-02 -4.730210e-02 -4.542549e-02 -4.741705e-02 -4.530621e-02 -4.721789e-02 -4.493565e-02 -4.684750e-02 -4.470996e-02 -4.697449e-02 -4.525198e-02 -4.723163e-02 -4.518433e-02 -4.618696e-02 -4.536763e-02 -4.605418e-02 -4.656823e-02 -4.554683e-02 -4.694551e-02 -4.421845e-02 -4.767422e-02 -4.327963e-02 -4.869748e-02 -4.194693e-02 -4.943057e-02 -4.043329e-02 -4.944386e-02 -3.716176e-02 -4.601913e-02 -2.790547e-02 -3.485271e-02 -3.611818e-03 -6.551325e-02 -9.692117e-02 2.691957e-02 -5.798085e-03 -3.965583e-02 -4.135009e-02 -3.246197e-02 
-1.009526e-02 -1.052948e-02 -1.260259e-02 -1.457136e-02 -1.156185e-02 -5.750421e-03 -1.652717e-02 -1.760892e-02 -4.822716e-03 2.695383e-02 9.502691e-02 4.098442e-02 -1.008142e+00 -9.294767e-01 -4.463643e-01 -4.453478e-01 -4.453459e-01 -4.453457e-01 -4.453464e-01 -4.457926e-01 -8.300610e-01 -8.908367e-01 -1.117114e-01 -1.950970e-02 -3.048068e-02 -2.841283e-02 -2.154003e-02 -1.688336e-02 -1.476569e-02 -1.367984e-02 -1.355926e-02 -1.334710e-02 -1.358663e-02 -1.347154e-02 -1.371611e-02 -1.358146e-02 -1.377598e-02 -1.361580e-02 -1.377278e-02 -1.363191e-02 -1.377292e-02 -1.365638e-02 -1.376306e-02 -1.367492e-02 -1.377668e-02 -1.380152e-02 -1.404815e-02 -1.446434e-02 -1.534632e-02 -1.686529e-02 -1.894092e-02 -2.069268e-02 -1.836589e-02 -1.825859e-03 4.795943e-02 1.159354e-01 8.881036e-02 -3.724954e-02 -1.582048e-01 -3.974070e-01 -1.262778e-01 8.042352e-01 6.800333e-01 -1.983304e-01 -3.013897e-01 -1.034225e-01 -9.296694e-02 -3.772331e-01 -2.023941e-01 8.053427e-01 8.061676e-01 -4.451510e-02 -1.500969e-01 4.174158e-02 3.001000e-02 5.756905e-03 -4.296358e-03 -9.013870e-03 -1.189957e-02 -1.356766e-02 -1.444090e-02 -1.475236e-02 -1.481847e-02 -1.472688e-02 -1.463406e-02 -1.450465e-02 -1.442665e-02 -1.430704e-02 -1.425151e-02 -1.414378e-02 -1.412363e-02 -1.403464e-02 -1.405296e-02 -1.395788e-02 -1.399744e-02 -1.389095e-02 -1.396226e-02 -1.385570e-02 -1.394908e-02 -1.382551e-02 -1.392295e-02 -1.378708e-02 -1.390228e-02 -1.378588e-02 -1.389814e-02 -1.378814e-02 -1.385976e-02 -1.377818e-02 -1.381016e-02 -1.378572e-02 -1.375374e-02 -1.378522e-02 -1.364679e-02 -1.372694e-02 -1.342471e-02 -1.344460e-02 -1.271690e-02 -1.229715e-02 -1.072211e-02 -9.644745e-03 -7.030436e-03 -7.624627e-03 -7.723836e-03 -1.105964e-02 -1.792166e-02 -1.822954e-02 -1.490692e-02 -1.153527e-02 
2.024239e-07 6.061911e-07 1.069793e-06 1.573671e-06 1.929031e-06 1.669153e-06 1.183599e-06 8.518542e-07 2.434477e-06 5.231186e-06 4.728071e-06 -1.104126e-05 -7.384776e-04 -3.119867e-04 -9.359671e-07 -1.073843e-09 2.280978e-09 1.151668e-09 2.964405e-09 -2.072279e-06 -2.051767e-03 -4.366482e-03 -2.806862e-04 -6.283967e-05 2.373246e-06 1.884671e-05 2.429615e-05 2.133800e-05 1.816959e-05 1.545754e-05 1.617635e-05 2.007688e-05 2.498867e-05 3.018131e-05 3.419589e-05 3.982381e-05 4.763426e-05 5.805573e-05 6.889554e-05 7.786547e-05 8.595039e-05 9.304226e-05 1.015863e-04 1.036048e-04 9.220860e-05 4.011146e-05 -9.194425e-05 -4.020252e-04 -1.037138e-03 -2.197530e-03 -3.930157e-03 -5.648453e-03 -4.593351e-03 6.755769e-03 3.725472e-02 5.363646e-02 -3.904194e-02 -8.296097e-02 -8.039208e-03 -1.781204e-01 -1.305640e-01 3.901617e-01 3.117362e-01 -1.560376e-01 -1.350972e-01 5.918640e-02 9.480000e-02 -1.683949e-01 -1.808047e-01 3.816966e-01 3.788145e-01 -1.134234e-01 -1.324281e-01 1.872784e-02 2.655724e-02 1.794018e-02 1.272104e-02 8.189473e-03 4.482492e-03 2.024477e-03 6.450279e-04 -1.388202e-05 -2.802634e-04 -3.571697e-04 -3.540484e-04 -3.247886e-04 -2.852625e-04 -2.476344e-04 -2.081282e-04 -1.748948e-04 -1.440516e-04 -1.215773e-04 -1.011651e-04 -8.510949e-05 -6.865049e-05 -5.609471e-05 -4.539365e-05 -3.896174e-05 -3.234254e-05 -2.604007e-05 -1.855277e-05 -1.337514e-05 -1.068055e-05 -1.105521e-05 -1.106255e-05 -9.794097e-06 -6.609079e-06 -4.049839e-06 -3.119893e-06 -3.495310e-06 -3.860364e-06 -2.836961e-06 -1.706375e-06 -9.915601e-07 -2.074022e-06 -2.790320e-06 -3.323608e-06 -3.281602e-06 -6.953564e-06 -1.420055e-05 -2.442739e-05 -3.082694e-05 -3.139984e-05 -2.579080e-05 -1.708229e-05 -9.940702e-06 -4.052242e-06 -1.273867e-06 
1.009531e-02 1.053250e-02 1.260805e-02 1.457995e-02 1.157128e-02 5.756739e-03 1.653392e-02 1.761180e-02 4.828713e-03 -2.694186e-02 -9.501837e-02 -4.100844e-02 1.006821e+00 9.290011e-01 4.463632e-01 4.453478e-01 4.453459e-01 4.453457e-01 4.453464e-01 4.457910e-01 8.283782e-01 8.844060e-01 1.110700e-01 1.933247e-02 3.045534e-02 2.843354e-02 2.157981e-02 1.692334e-02 1.479959e-02 1.370951e-02 1.358779e-02 1.338513e-02 1.363185e-02 1.352943e-02 1.377450e-02 1.365201e-02 1.385994e-02 1.373137e-02 1.390603e-02 1.378280e-02 1.392501e-02 1.381980e-02 1.393049e-02 1.384397e-02 1.390311e-02 1.379464e-02 1.371114e-02 1.339294e-02 1.279715e-02 1.160808e-02 9.577659e-03 6.813533e-03 4.596150e-03 7.627482e-03 2.521608e-02 6.862536e-02 1.182230e-01 4.646019e-02 -1.011648e-01 -1.277903e-01 5.349963e-02 3.386115e-01 3.315765e-01 5.747830e-02 -1.453790e-01 -2.567417e-01 -2.486322e-01 -1.754384e-01 8.102290e-03 2.979935e-01 1.958463e-01 -1.067311e-01 -7.464594e-02 3.411117e-02 3.452270e-02 2.867541e-02 2.511458e-02 2.119245e-02 1.769571e-02 1.531638e-02 1.400795e-02 1.339779e-02 1.319520e-02 1.315628e-02 1.321927e-02 1.327482e-02 1.337123e-02 1.341824e-02 1.351397e-02 1.353665e-02 1.362804e-02 1.361949e-02 1.370997e-02 1.367211e-02 1.377150e-02 1.370615e-02 1.381680e-02 1.372522e-02 1.384634e-02 1.373622e-02 1.386589e-02 1.374588e-02 1.387393e-02 1.375031e-02 1.386374e-02 1.375422e-02 1.384042e-02 1.376340e-02 1.380154e-02 1.377387e-02 1.374237e-02 1.377702e-02 1.364483e-02 1.372764e-02 1.342054e-02 1.343397e-02 1.270368e-02 1.228487e-02 1.069866e-02 9.598095e-03 6.949734e-03 7.522241e-03 7.613927e-03 1.096674e-02 1.785687e-02 1.818895e-02 1.488777e-02 1.152880e-02 
2.728264e-02 2.620256e-02 2.513692e-02 3.923222e-03 -6.221337e-02 -6.551450e-02 1.518396e-01 1.117543e-01 4.764716e-02 -1.777926e-03 -1.226375e-01 1.524704e-02 1.992669e+00 1.840190e+00 8.917586e-01 8.900559e-01 8.900753e-01 8.899752e-01 8.901696e-01 8.908733e-01 1.677435e+00 1.797660e+00 2.379944e-01 3.581263e-02 5.484911e-02 5.878770e-02 5.123381e-02 4.643051e-02 4.497218e-02 4.377045e-02 4.575537e-02 4.455213e-02 4.714260e-02 4.471409e-02 4.741964e-02 4.437723e-02 4.756314e-02 4.469516e-02 4.825855e-02 4.515386e-02 4.812981e-02 4.492965e-02 4.767173e-02 4.489573e-02 4.734515e-02 4.506499e-02 4.690450e-02 4.483817e-02 4.561975e-02 4.326875e-02 4.210736e-02 3.841266e-02 3.476351e-02 3.047214e-02 2.878766e-02 3.313824e-02 4.117430e-02 4.391837e-02 3.825147e-02 3.668671e-02 2.923495e-02 1.900027e-02 2.381272e-02 4.522191e-02 5.275149e-02 4.934506e-02 4.885062e-02 5.360716e-02 4.483141e-02 2.968415e-02 3.011006e-02 5.192408e-02 6.760951e-02 6.778183e-02 6.200134e-02 5.720828e-02 5.241118e-02 4.861477e-02 4.594778e-02 4.419472e-02 4.347719e-02 4.280107e-02 4.318308e-02 4.311335e-02 4.424092e-02 4.416163e-02 4.537284e-02 4.457082e-02 4.565668e-02 4.444857e-02 4.587443e-02 4.451987e-02 4.633951e-02 4.466894e-02 4.686338e-02 4.499175e-02 4.721484e-02 4.498153e-02 4.678570e-02 4.448841e-02 4.629040e-02 4.481208e-02 4.658755e-02 4.585188e-02 4.641015e-02 4.631286e-02 4.530801e-02 4.674674e-02 4.430475e-02 4.773677e-02 4.353581e-02 4.901525e-02 4.251743e-02 4.981071e-02 4.061723e-02 4.925495e-02 3.679769e-02 4.568874e-02 2.772685e-02 3.488446e-02 3.478364e-03 6.515010e-02 9.658791e-02 -2.710178e-02 5.675787e-03 3.955658e-02 4.129083e-02 3.243868e-02 
5.022753e-02 4.249601e-02 -5.747074e-03 -1.827244e-01 -3.511687e-01 5.919788e-01 2.406897e+00 1.337597e+00 9.696420e-01 9.409196e-01 8.216782e-01 1.008885e+00 2.124454e+00 1.727773e+00 1.314433e+00 1.319605e+00 1.320274e+00 1.317661e+00 1.322638e+00 1.316334e+00 1.735117e+00 1.878882e+00 9.733757e-01 8.946332e-01 8.947693e-01 9.480097e-01 9.271537e-01 9.454563e-01 9.375371e-01 9.484447e-01 9.616441e-01 9.616427e-01 9.791560e-01 9.571744e-01 9.744824e-01 9.430848e-01 9.715254e-01 9.453174e-01 9.853695e-01 9.549663e-01 9.858042e-01 9.485927e-01 9.787403e-01 9.460264e-01 9.774255e-01 9.518386e-01 9.791981e-01 9.542725e-01 9.723865e-01 9.501226e-01 9.595873e-01 9.433136e-01 9.518966e-01 9.381321e-01 9.337070e-01 9.249308e-01 9.239687e-01 9.245439e-01 9.172636e-01 9.200135e-01 9.096815e-01 9.203882e-01 9.186319e-01 9.363620e-01 9.351082e-01 9.475828e-01 9.345199e-01 9.393480e-01 9.288748e-01 9.477318e-01 9.566322e-01 9.745051e-01 9.715433e-01 9.627763e-01 9.425905e-01 9.329174e-01 9.311935e-01 9.374123e-01 9.452662e-01 9.426494e-01 9.446591e-01 9.335392e-01 9.373771e-01 9.296783e-01 9.461478e-01 9.414672e-01 9.593387e-01 9.445021e-01 9.572704e-01 9.365379e-01 9.519050e-01 9.352821e-01 9.559977e-01 9.388854e-01 9.623696e-01 9.473063e-01 9.643256e-01 9.457871e-01 9.512698e-01 9.359213e-01 9.407814e-01 9.450395e-01 9.512304e-01 9.653277e-01 9.490317e-01 9.688591e-01 9.311192e-01 9.714159e-01 9.216352e-01 9.859099e-01 9.186417e-01 1.003345e+00 9.155816e-01 1.015000e+00 9.045480e-01 1.017041e+00 8.905471e-01 1.017839e+00 8.761268e-01 1.027574e+00 7.917724e-01 1.600345e+00 2.300907e+00 2.664722e-01 -2.158061e-01 -3.751522e-02 5.206833e-02 5.700330e-02 
5.319229e-02 8.062922e-03 -1.665462e-01 -3.333981e-01 1.912941e+00 4.474126e+00 4.247291e+00 3.062494e+00 2.299309e+00 2.466388e+00 2.200098e+00 2.289287e+00 2.373503e+00 2.328832e+00 2.148910e+00 2.307062e+00 2.207049e+00 2.316775e+00 2.203924e+00 2.263489e+00 2.293228e+00 2.313905e+00 2.118428e+00 2.206578e+00 2.348085e+00 2.429889e+00 2.510227e+00 2.465741e+00 2.522053e+00 2.449699e+00 2.542739e+00 2.475180e+00 2.604703e+00 2.514099e+00 2.607904e+00 2.499315e+00 2.594583e+00 2.497634e+00 2.597327e+00 2.525946e+00 2.597733e+00 2.524044e+00 2.580154e+00 2.529229e+00 2.586428e+00 2.577914e+00 2.610291e+00 2.572257e+00 2.566841e+00 2.546291e+00 2.525631e+00 2.533514e+00 2.552484e+00 2.580865e+00 2.563592e+00 2.586102e+00 2.555453e+00 2.561717e+00 2.528658e+00 2.555201e+00 2.512439e+00 2.527967e+00 2.489101e+00 2.514259e+00 2.494003e+00 2.544443e+00 2.537568e+00 2.575418e+00 2.551226e+00 2.552462e+00 2.525958e+00 2.527861e+00 2.518302e+00 2.518907e+00 2.528461e+00 2.498992e+00 2.512315e+00 2.498851e+00 2.558004e+00 2.529945e+00 2.605177e+00 2.559225e+00 2.598482e+00 2.510190e+00 2.573539e+00 2.502577e+00 2.577004e+00 2.543925e+00 2.627467e+00 2.563876e+00 2.590472e+00 2.556889e+00 2.576833e+00 2.570452e+00 2.579683e+00 2.612247e+00 2.547324e+00 2.584056e+00 2.502818e+00 2.595233e+00 2.502161e+00 2.668320e+00 2.567477e+00 2.689867e+00 2.514558e+00 2.646603e+00 2.481624e+00 2.633274e+00 2.523385e+00 2.661146e+00 2.535354e+00 2.629944e+00 2.565095e+00 2.617247e+00 2.602335e+00 2.626981e+00 2.656184e+00 2.586933e+00 2.681273e+00 2.584900e+00 2.744396e+00 3.223746e+00 6.138591e+00 3.890981e+00 -2.519992e-01 -4.024811e-01 -3.747822e-02 5.564283e-02 
3.911620e-02 -7.932794e-03 -1.722046e-01 -4.702565e-02 3.684686e+00 4.913961e+00 1.254800e-01 1.452997e+00 1.044783e+00 1.292816e+00 1.009848e+00 8.316819e-01 -2.831101e-01 -6.294274e-02 3.019462e-01 5.477785e-02 1.158434e-01 1.680362e-02 1.801890e-01 1.803787e-01 -4.070256e-02 -1.190570e-01 8.602044e-01 9.859332e-01 1.233264e+00 1.208313e+00 1.394397e+00 1.259107e+00 1.379242e+00 1.224747e+00 1.347553e+00 1.231034e+00 1.398550e+00 1.306061e+00 1.416535e+00 1.322437e+00 1.403136e+00 1.314901e+00 1.368997e+00 1.333751e+00 1.367136e+00 1.348536e+00 1.357598e+00 1.363978e+00 1.369800e+00 1.424426e+00 1.401093e+00 1.408392e+00 1.349872e+00 1.377372e+00 1.316583e+00 1.370537e+00 1.370859e+00 1.446817e+00 1.423356e+00 1.478100e+00 1.428640e+00 1.436438e+00 1.402502e+00 1.439656e+00 1.401038e+00 1.399652e+00 1.348868e+00 1.351357e+00 1.324651e+00 1.370464e+00 1.391088e+00 1.440973e+00 1.430965e+00 1.387532e+00 1.328122e+00 1.295839e+00 1.288680e+00 1.311099e+00 1.371705e+00 1.346906e+00 1.365943e+00 1.326023e+00 1.396631e+00 1.360223e+00 1.475475e+00 1.433451e+00 1.489313e+00 1.370122e+00 1.430836e+00 1.328399e+00 1.403402e+00 1.386017e+00 1.490125e+00 1.440009e+00 1.448216e+00 1.433323e+00 1.416102e+00 1.445423e+00 1.403017e+00 1.489151e+00 1.346196e+00 1.450361e+00 1.310610e+00 1.496330e+00 1.336419e+00 1.587987e+00 1.408760e+00 1.568405e+00 1.329732e+00 1.492562e+00 1.324899e+00 1.465835e+00 1.414590e+00 1.470826e+00 1.440397e+00 1.374362e+00 1.494732e+00 1.321239e+00 1.581759e+00 1.325424e+00 1.696478e+00 1.240479e+00 1.741755e+00 1.154163e+00 1.974713e+00 6.697860e-01 3.740215e+00 5.319167e+00 -2.048169e-01 -6.148545e-01 -1.230223e-01 2.398878e-02 
2.133540e-02 3.197823e-04 -6.586410e-02 4.777117e-02 1.636937e+00 1.006250e+00 -2.988580e+00 -9.805460e-01 -7.651834e-01 -7.181316e-01 -7.996743e-01 -6.068563e-01 7.941498e-01 -4.590925e-01 -1.055907e+00 -1.162990e+00 -8.397150e-01 -1.183423e+00 -8.510749e-01 -1.287420e+00 -1.625469e-01 3.511177e-01 -4.971892e-01 -8.183546e-01 -6.995022e-01 -7.671732e-01 -6.569524e-01 -7.436904e-01 -6.775453e-01 -7.597990e-01 -7.194173e-01 -7.718621e-01 -7.218151e-01 -7.359198e-01 -7.094650e-01 -7.105172e-01 -7.116753e-01 -7.150103e-01 -7.428865e-01 -7.192956e-01 -7.451934e-01 -7.052425e-01 -7.405392e-01 -6.957385e-01 -7.344883e-01 -6.799138e-01 -7.247716e-01 -6.887102e-01 -7.348483e-01 -6.946242e-01 -7.306756e-01 -6.895354e-01 -7.027921e-01 -6.597364e-01 -6.678800e-01 -6.408665e-01 -6.623239e-01 -6.641495e-01 -6.702075e-01 -6.599058e-01 -6.586703e-01 -6.682438e-01 -6.791927e-01 -6.961199e-01 -7.079751e-01 -7.127772e-01 -6.974087e-01 -6.857655e-01 -6.760952e-01 -7.075675e-01 -7.345774e-01 -7.598377e-01 -7.614963e-01 -7.445965e-01 -7.049128e-01 -7.050180e-01 -6.997117e-01 -7.214233e-01 -7.030321e-01 -7.109461e-01 -6.657916e-01 -6.670834e-01 -6.456388e-01 -6.828476e-01 -6.743192e-01 -7.113291e-01 -6.983902e-01 -6.923174e-01 -6.613368e-01 -6.610118e-01 -6.694436e-01 -6.609673e-01 -6.867100e-01 -6.599466e-01 -7.004546e-01 -6.526453e-01 -7.257592e-01 -6.637984e-01 -7.245651e-01 -6.319582e-01 -7.034517e-01 -6.067029e-01 -6.910596e-01 -6.379220e-01 -7.200755e-01 -6.698942e-01 -7.005362e-01 -6.826602e-01 -6.550651e-01 -6.993570e-01 -6.410311e-01 -7.593643e-01 -6.152008e-01 -7.970817e-01 -5.667429e-01 -8.041888e-01 -5.079951e-01 -8.558727e-01 -4.965129e-01 -9.630790e-01 -4.040131e-01 -1.991880e+00 -1.337168e+00 1.800651e+00 2.886214e-02 -1.921877e-01 -3.214987e-02 1.670012e-02 
7.574646e-03 5.721456e-03 -2.903551e-03 2.143995e-02 1.934688e-01 -1.475071e-01 -1.182784e+00 -5.720142e-01 -4.038414e-01 -4.352535e-01 -4.625879e-01 -4.376001e-01 5.679273e-01 2.383984e+00 3.183993e+00 2.729087e+00 2.973659e+00 2.910258e+00 2.785738e+00 3.141785e+00 2.459257e+00 3.179281e-01 -4.153485e-01 -4.855294e-01 -4.313038e-01 -4.445953e-01 -4.245297e-01 -4.395682e-01 -4.298883e-01 -4.405034e-01 -4.417050e-01 -4.453253e-01 -4.491471e-01 -4.407854e-01 -4.466716e-01 -4.328317e-01 -4.457517e-01 -4.334246e-01 -4.532198e-01 -4.373692e-01 -4.535811e-01 -4.337206e-01 -4.501265e-01 -4.318056e-01 -4.486195e-01 -4.329710e-01 -4.476011e-01 -4.329474e-01 -4.427965e-01 -4.297244e-01 -4.358392e-01 -4.285841e-01 -4.378224e-01 -4.394873e-01 -4.509083e-01 -4.626255e-01 -4.782638e-01 -4.934996e-01 -4.976671e-01 -4.961215e-01 -4.778793e-01 -4.650322e-01 -4.374642e-01 -4.221429e-01 -4.189693e-01 -4.392005e-01 -4.469378e-01 -4.480317e-01 -4.279692e-01 -4.120301e-01 -3.881103e-01 -3.719057e-01 -3.711267e-01 -3.835988e-01 -3.977041e-01 -4.136795e-01 -4.288214e-01 -4.398899e-01 -4.457181e-01 -4.442029e-01 -4.412685e-01 -4.350057e-01 -4.331184e-01 -4.311257e-01 -4.351121e-01 -4.357105e-01 -4.399804e-01 -4.354370e-01 -4.367274e-01 -4.302554e-01 -4.342661e-01 -4.291590e-01 -4.366936e-01 -4.301208e-01 -4.404369e-01 -4.328517e-01 -4.429994e-01 -4.318471e-01 -4.381059e-01 -4.253234e-01 -4.335430e-01 -4.273746e-01 -4.384339e-01 -4.367501e-01 -4.393566e-01 -4.391782e-01 -4.310778e-01 -4.407787e-01 -4.249674e-01 -4.482929e-01 -4.224454e-01 -4.595239e-01 -4.189510e-01 -4.681292e-01 -4.108626e-01 -4.727233e-01 -4.022605e-01 -4.832356e-01 -4.025605e-01 -5.167607e-01 -3.968236e-01 -8.806604e-01 -1.008376e+00 4.483084e-02 3.866893e-02 4.799832e-03 4.430480e-03 6.327158e-03 
