# vtk DataFile Version 2.0
Comment goes here
ASCII

DATASET STRUCTURED_POINTS
FIELD FieldData 1
TIME 1 1 double
0.86000000
DIMENSIONS    128   16   1

ORIGIN    0.000   0.000   0.000
SPACING   0.0078125 0.015625   1.000

POINT_DATA   2048
SCALARS Omega double
LOOKUP_TABLE default

1.854991e-06 -7.831028e-07 -4.574581e-06 -4.943249e-06 8.714917e-07 2.636321e-06 -1.673004e-06 -4.665201e-05 -5.362449e-07 -2.138901e-05 1.052628e-05 5.318380e-06 5.779278e-05 -4.954361e-05 -3.086796e-05 5.735683e-05 -1.034564e-04 8.090681e-05 -6.377397e-05 -3.348211e-05 2.533479e-04 1.179738e-05 -8.202707e-05 -6.084081e-05 -8.621251e-05 -8.968186e-05 -1.258398e-04 -1.285718e-04 -1.724783e-04 -1.780996e-04 -2.357265e-04 -2.482852e-04 -3.230569e-04 -3.467647e-04 -4.417827e-04 -4.801464e-04 -5.988361e-04 -6.541299e-04 -8.002312e-04 -8.733773e-04 -1.051755e-03 -1.143212e-03 -1.359091e-03 -1.468418e-03 -1.719763e-03 -1.839820e-03 -2.104751e-03 -2.228515e-03 -2.515798e-03 -2.794804e-03 -3.510060e-03 -4.744670e-03 -6.718986e-03 -9.616790e-03 -2.042650e-02 -6.072869e-02 -1.311735e-01 -1.566248e-01 -1.149456e-01 -1.102230e-01 -8.212938e-02 2.898138e-02 3.278362e-02 -7.154857e-02 -1.352866e-01 -1.519412e-01 -1.560098e-01 -1.786122e-01 -7.195181e-02 2.134405e-01 3.200032e-01 2.055976e-01 1.100203e-01 6.510802e-02 3.589194e-02 2.063403e-02 1.388817e-02 1.032215e-02 7.178639e-03 4.945251e-03 3.031177e-03 1.799131e-03 8.474811e-04 2.863009e-04 -6.038106e-05 -2.556758e-04 -2.920419e-04 -3.377829e-04 -2.575923e-04 -2.678114e-04 -1.663822e-04 -1.833718e-04 -9.264389e-05 -1.229012e-04 -4.770780e-05 -8.628346e-05 -2.310876e-05 -6.479537e-05 -9.459884e-06 -5.143716e-05 -6.087057e-07 -4.188140e-05 5.782117e-06 -3.357975e-05 9.891073e-06 -2.554422e-05 1.132462e-05 -1.831277e-05 1.000986e-05 -1.257344e-05 5.808614e-06 -8.163723e-06 -9.093414e-07 -4.474664e-06 -8.802591e-06 -6.577476e-07 -1.595386e-05 5.149500e-06 -1.941349e-05 1.820801e-05 -3.783894e-06 7.807878e-05 -1.409264e-05 -3.131891e-05 -4.539953e-06 8.898322e-06 5.861716e-06 3.316977e-06 
-3.368568e-03 -3.683323e-03 -1.352844e-02 -1.798949e-02 1.707514e-01 4.708602e-01 -8.084146e-01 -5.600868e-01 -1.682342e-01 -2.966434e-01 -2.324730e-01 -3.921982e-01 3.754982e-01 1.693956e+00 2.213201e+00 1.740345e+00 2.144866e+00 1.958003e+00 1.963552e+00 2.267251e+00 1.710938e+00 1.849950e-01 -3.227502e-01 -2.609115e-01 -2.231140e-01 -2.203039e-01 -2.279220e-01 -2.245423e-01 -2.361304e-01 -2.252612e-01 -2.417410e-01 -2.250267e-01 -2.456054e-01 -2.246125e-01 -2.479632e-01 -2.244086e-01 -2.490373e-01 -2.246091e-01 -2.490257e-01 -2.252265e-01 -2.480615e-01 -2.261924e-01 -2.461806e-01 -2.273303e-01 -2.432077e-01 -2.282932e-01 -2.387661e-01 -2.282240e-01 -2.321308e-01 -2.259323e-01 -2.225538e-01 -2.201924e-01 -2.090816e-01 -2.218854e-01 -2.963727e-01 -5.676221e-01 -5.052044e-01 -1.771874e-01 -1.281678e-01 -3.288499e-01 -4.771585e-01 -5.856497e-01 -7.111166e-01 -6.815616e-01 -4.760504e-01 -8.378270e-01 -1.039810e+00 -1.179307e+00 -9.260224e-01 5.363903e-01 6.697778e-01 -5.448553e-01 -7.219697e-01 -2.903410e-01 -1.703426e-01 -2.141964e-01 -2.418952e-01 -2.373080e-01 -2.467267e-01 -2.388381e-01 -2.469122e-01 -2.393840e-01 -2.457067e-01 -2.393028e-01 -2.440573e-01 -2.389359e-01 -2.425198e-01 -2.384274e-01 -2.414997e-01 -2.376564e-01 -2.411865e-01 -2.366199e-01 -2.414658e-01 -2.353664e-01 -2.422451e-01 -2.339088e-01 -2.433416e-01 -2.323956e-01 -2.445284e-01 -2.310258e-01 -2.454766e-01 -2.301402e-01 -2.458260e-01 -2.300840e-01 -2.452146e-01 -2.311836e-01 -2.433268e-01 -2.337408e-01 -2.398488e-01 -2.379860e-01 -2.345344e-01 -2.439473e-01 -2.272779e-01 -2.512772e-01 -2.179240e-01 -2.592789e-01 -2.057453e-01 -2.671951e-01 -1.873895e-01 -2.737484e-01 -1.251363e-01 -4.874041e-01 -5.130928e-01 5.802738e-02 -2.246715e-02 -1.861876e-02 -7.172192e-03 -4.711451e-03 
4.500763e-03 -4.746151e-03 -8.550448e-02 -1.991261e-01 1.002133e+00 2.329993e+00 -2.185509e+00 -1.269852e+00 -3.298953e-01 -5.869168e-01 -4.114156e-01 -5.246374e-01 1.096415e+00 -2.815397e-01 -4.620083e-01 -7.100461e-01 -3.380472e-01 -7.598637e-01 -3.558739e-01 -8.107227e-01 7.902779e-02 6.929337e-01 -3.880751e-01 -5.552414e-01 -4.396487e-01 -4.912171e-01 -4.290669e-01 -4.750349e-01 -4.386617e-01 -4.614409e-01 -4.499690e-01 -4.489783e-01 -4.616463e-01 -4.384444e-01 -4.719639e-01 -4.296365e-01 -4.794601e-01 -4.229698e-01 -4.835344e-01 -4.184909e-01 -4.836023e-01 -4.162262e-01 -4.795065e-01 -4.162003e-01 -4.715594e-01 -4.190428e-01 -4.606474e-01 -4.228640e-01 -4.442206e-01 -4.213624e-01 -4.170972e-01 -4.058700e-01 -3.725655e-01 -3.862180e-01 -4.502314e-01 -7.381541e-01 -1.240503e-01 5.474672e-01 1.839383e-01 -9.656504e-02 -1.524725e-01 -6.858721e-01 -8.857003e-01 -4.438705e-01 3.696660e-01 -3.054184e-02 -9.520624e-02 1.997691e-01 -4.385824e-01 -7.280389e-01 -1.473731e+00 -2.145742e+00 -1.482482e+00 -5.101967e-01 -3.102622e-01 -3.698857e-01 -4.376212e-01 -4.277778e-01 -4.486974e-01 -4.404072e-01 -4.431048e-01 -4.457609e-01 -4.336124e-01 -4.496500e-01 -4.273618e-01 -4.538442e-01 -4.251233e-01 -4.557108e-01 -4.253293e-01 -4.523966e-01 -4.274814e-01 -4.445289e-01 -4.332223e-01 -4.349118e-01 -4.433101e-01 -4.238372e-01 -4.557262e-01 -4.114067e-01 -4.683372e-01 -3.982732e-01 -4.788659e-01 -3.868336e-01 -4.864959e-01 -3.804830e-01 -4.896744e-01 -3.811422e-01 -4.860839e-01 -3.900947e-01 -4.731343e-01 -4.077137e-01 -4.493499e-01 -4.351787e-01 -4.158459e-01 -4.726601e-01 -3.732923e-01 -5.187401e-01 -3.200571e-01 -5.724890e-01 -2.415355e-01 -6.438431e-01 -4.834641e-02 -1.472841e+00 -3.622606e-01 1.191502e+00 -5.656914e-01 -2.107901e-01 -1.583565e-02 6.206588e-03 
2.109109e-02 -5.910607e-03 -2.018907e-01 -6.004095e-01 1.651214e+00 4.150260e+00 8.931299e-02 6.552306e-01 6.715859e-01 7.280185e-01 5.970036e-01 4.909579e-01 -5.784902e-01 -2.323671e-01 -3.359708e-02 -1.484172e-01 -1.647066e-01 -1.747356e-01 -1.108566e-01 -1.033072e-01 -1.822052e-01 -5.183048e-01 5.759965e-01 5.030113e-01 7.539891e-01 5.918332e-01 8.071537e-01 6.516347e-01 8.297366e-01 6.921761e-01 8.328206e-01 7.233476e-01 8.230773e-01 7.479931e-01 8.072671e-01 7.693270e-01 7.910119e-01 7.872310e-01 7.771514e-01 8.013466e-01 7.679644e-01 8.108219e-01 7.637458e-01 8.140387e-01 7.618932e-01 8.064525e-01 7.568461e-01 7.872336e-01 7.502277e-01 7.641322e-01 7.457897e-01 7.419575e-01 7.408288e-01 7.319023e-01 8.070523e-01 9.457008e-01 8.409621e-01 4.427930e-01 5.419311e-01 5.744618e-01 8.484903e-01 1.244995e+00 1.374807e+00 1.077669e+00 6.594887e-01 9.412309e-01 9.491169e-01 9.420129e-01 1.141587e+00 1.061978e+00 1.287870e+00 1.922150e+00 1.519237e+00 1.091361e+00 8.839873e-01 9.274026e-01 8.834323e-01 8.700339e-01 8.681915e-01 8.312503e-01 8.767992e-01 8.116698e-01 8.919670e-01 7.966024e-01 8.980796e-01 7.812715e-01 8.948683e-01 7.727816e-01 8.884789e-01 7.776829e-01 8.810832e-01 7.938543e-01 8.667666e-01 8.135474e-01 8.426116e-01 8.362103e-01 8.132833e-01 8.628195e-01 7.834953e-01 8.929886e-01 7.576690e-01 9.221345e-01 7.357356e-01 9.426454e-01 7.198537e-01 9.510010e-01 7.148901e-01 9.453531e-01 7.266576e-01 9.261496e-01 7.584455e-01 8.903845e-01 8.074794e-01 8.360488e-01 8.727748e-01 7.643162e-01 9.561823e-01 6.730115e-01 1.073503e+00 5.317715e-01 1.304542e+00 -1.054879e-01 3.465587e+00 3.329391e+00 -1.632863e+00 -5.630414e-01 -2.028415e-02 3.365438e-02 
2.168805e-02 2.339943e-02 -7.230037e-02 -4.422304e-01 3.738674e-01 1.522033e+00 2.979562e+00 2.365335e+00 1.126126e+00 1.521398e+00 1.053568e+00 1.309679e+00 1.294216e+00 1.383684e+00 1.091633e+00 1.326487e+00 1.153631e+00 1.310730e+00 1.182706e+00 1.239039e+00 1.271528e+00 1.330311e+00 1.276185e+00 1.186547e+00 1.398009e+00 1.294089e+00 1.465581e+00 1.339207e+00 1.498626e+00 1.364894e+00 1.513407e+00 1.382713e+00 1.515031e+00 1.396442e+00 1.508723e+00 1.409108e+00 1.498785e+00 1.420828e+00 1.487548e+00 1.431072e+00 1.476766e+00 1.438826e+00 1.466520e+00 1.442304e+00 1.454265e+00 1.437359e+00 1.435051e+00 1.421061e+00 1.407927e+00 1.394712e+00 1.370930e+00 1.353448e+00 1.310751e+00 1.275001e+00 1.174080e+00 1.034078e+00 6.488290e-01 4.220248e-01 7.843784e-01 9.555900e-01 7.608824e-01 6.685383e-01 7.221739e-01 1.069926e+00 9.972512e-01 1.136305e+00 1.138886e+00 1.135759e+00 1.201650e+00 1.656018e+00 1.701283e+00 1.692116e+00 1.684667e+00 1.663472e+00 1.559278e+00 1.514862e+00 1.507194e+00 1.480972e+00 1.511849e+00 1.463231e+00 1.523549e+00 1.454888e+00 1.535444e+00 1.447849e+00 1.539441e+00 1.439140e+00 1.536506e+00 1.433830e+00 1.531958e+00 1.436083e+00 1.527920e+00 1.444733e+00 1.519989e+00 1.454995e+00 1.505946e+00 1.466863e+00 1.488504e+00 1.481742e+00 1.470280e+00 1.500105e+00 1.453369e+00 1.519856e+00 1.436724e+00 1.536684e+00 1.420919e+00 1.548921e+00 1.408661e+00 1.555919e+00 1.403406e+00 1.558443e+00 1.407241e+00 1.554459e+00 1.418903e+00 1.542042e+00 1.439121e+00 1.521956e+00 1.471015e+00 1.496316e+00 1.526199e+00 1.470040e+00 1.622858e+00 1.955451e+00 4.574489e+00 1.915218e+00 -1.574595e+00 -5.347342e-01 -3.863094e-02 2.193594e-02 
6.694504e-03 1.908224e-02 2.569166e-02 -8.173612e-02 -4.793061e-01 -7.894326e-01 1.564110e+00 9.761047e-01 2.485948e-01 5.044297e-01 2.771054e-01 5.126956e-01 1.468015e+00 1.091820e+00 7.783911e-01 7.875570e-01 7.834226e-01 7.840791e-01 7.878312e-01 7.800035e-01 1.185061e+00 1.332410e+00 3.667693e-01 3.362210e-01 4.146589e-01 4.220737e-01 4.516101e-01 4.305523e-01 4.625003e-01 4.302115e-01 4.680723e-01 4.280752e-01 4.706555e-01 4.262697e-01 4.712770e-01 4.254066e-01 4.703089e-01 4.253837e-01 4.678857e-01 4.257784e-01 4.639772e-01 4.260535e-01 4.582513e-01 4.254543e-01 4.498262e-01 4.228811e-01 4.374688e-01 4.166402e-01 4.198415e-01 4.048978e-01 3.956422e-01 3.873894e-01 3.688419e-01 3.497025e-01 1.665738e-01 -1.745620e-01 8.130486e-01 1.944651e+00 9.195543e-01 5.055879e-01 6.824121e-01 3.193815e-01 -1.017891e-01 1.802162e-01 9.956311e-01 5.561035e-01 2.225962e-01 7.987850e-01 2.435844e-01 -9.796463e-02 -8.150934e-01 -1.910207e+00 -1.221896e+00 1.108786e-01 5.535423e-01 4.541056e-01 4.169037e-01 3.930434e-01 4.117942e-01 4.006433e-01 4.240839e-01 4.123073e-01 4.344373e-01 4.214580e-01 4.412930e-01 4.273407e-01 4.453875e-01 4.307471e-01 4.481144e-01 4.322900e-01 4.504151e-01 4.325763e-01 4.522820e-01 4.320481e-01 4.537376e-01 4.311376e-01 4.547705e-01 4.304423e-01 4.552456e-01 4.304594e-01 4.548055e-01 4.316943e-01 4.529206e-01 4.344528e-01 4.491864e-01 4.390435e-01 4.434412e-01 4.457429e-01 4.356267e-01 4.548185e-01 4.258740e-01 4.662793e-01 4.147739e-01 4.801095e-01 4.039047e-01 4.974917e-01 3.966405e-01 5.239161e-01 4.000840e-01 5.791773e-01 3.858330e-01 1.043239e+00 1.172587e+00 -3.344875e-01 -4.068592e-01 -8.294169e-02 4.997179e-03 6.192963e-03 
-6.678294e-05 6.260788e-03 1.607898e-02 1.808050e-02 -4.075217e-02 -1.686029e-01 -1.107085e-02 -1.665630e-02 -5.948383e-02 -1.177023e-02 -6.169858e-02 -7.106888e-02 1.287243e+00 1.201212e+00 5.478143e-01 5.472751e-01 5.471039e-01 5.471371e-01 5.472810e-01 5.483002e-01 1.275611e+00 1.286232e+00 -2.610436e-01 -2.127352e-01 -9.484145e-02 -5.829499e-02 -4.336694e-02 -4.133094e-02 -3.512013e-02 -3.759688e-02 -3.354581e-02 -3.764670e-02 -3.407774e-02 -3.848661e-02 -3.501143e-02 -3.927727e-02 -3.599866e-02 -3.997720e-02 -3.712319e-02 -4.080251e-02 -3.862268e-02 -4.207644e-02 -4.082769e-02 -4.418488e-02 -4.410221e-02 -4.743271e-02 -4.856138e-02 -5.158496e-02 -5.327742e-02 -5.458996e-02 -5.406553e-02 -4.771038e-02 -3.260039e-02 -7.929007e-03 -3.025884e-02 -1.045751e-01 7.732145e-01 1.729485e+00 8.520470e-01 1.944900e-01 5.311146e-01 5.674691e-01 2.888205e-01 1.172507e-01 3.205180e-01 2.780739e-01 -1.219919e-01 1.900045e-02 1.920695e-01 2.448581e-01 6.135926e-01 3.827627e-01 -1.498416e-01 -1.905689e-01 -2.834136e-02 1.893808e-02 -8.475773e-03 -3.519402e-02 -4.722948e-02 -5.379046e-02 -5.403888e-02 -5.424397e-02 -5.161000e-02 -5.035445e-02 -4.758190e-02 -4.637494e-02 -4.413931e-02 -4.335828e-02 -4.163169e-02 -4.135026e-02 -3.989689e-02 -4.012456e-02 -3.870414e-02 -3.943915e-02 -3.785474e-02 -3.910648e-02 -3.722119e-02 -3.898197e-02 -3.673490e-02 -3.895837e-02 -3.637783e-02 -3.894426e-02 -3.616027e-02 -3.886339e-02 -3.610641e-02 -3.864487e-02 -3.623604e-02 -3.820597e-02 -3.653965e-02 -3.741910e-02 -3.690501e-02 -3.603243e-02 -3.696612e-02 -3.348659e-02 -3.584248e-02 -2.856812e-02 -3.179036e-02 -1.902900e-02 -2.227420e-02 -3.235290e-03 -1.850592e-02 5.548599e-03 -3.115677e-02 -9.285299e-02 -3.855823e-02 -5.231217e-03 -2.886423e-03 -3.046562e-03 
-1.263567e-03 2.838126e-04 2.505896e-03 5.413676e-03 4.479274e-03 -7.441690e-03 -8.202370e-03 -2.810673e-03 6.550017e-03 2.120228e-02 4.746263e-03 -2.626962e-02 6.349035e-01 5.816375e-01 2.747468e-01 2.743289e-01 2.743282e-01 2.743284e-01 2.743297e-01 2.750268e-01 6.437964e-01 6.480922e-01 -1.535469e-01 -1.173616e-01 -5.085939e-02 -2.725290e-02 -1.795396e-02 -1.314447e-02 -9.809401e-03 -8.304864e-03 -7.249926e-03 -7.112282e-03 -6.866918e-03 -7.129471e-03 -7.133568e-03 -7.485871e-03 -7.594131e-03 -7.980112e-03 -8.200445e-03 -8.662018e-03 -9.060579e-03 -9.675735e-03 -1.032365e-02 -1.113807e-02 -1.200469e-02 -1.285676e-02 -1.353755e-02 -1.365256e-02 -1.280068e-02 -1.002216e-02 -4.216142e-03 7.096435e-03 2.609196e-02 4.456335e-02 1.763497e-02 1.331528e-02 7.451272e-01 1.300148e+00 4.823546e-01 2.745046e-01 4.912254e-01 -1.310922e-01 -1.148689e-01 4.892710e-01 6.716668e-01 5.430792e-01 5.063935e-01 7.899587e-01 5.383753e-01 -1.884110e-01 -4.086330e-01 -2.129995e-01 1.561125e-01 3.046225e-01 2.006324e-01 1.232544e-01 6.724844e-02 3.191096e-02 1.098709e-02 -1.065669e-03 -7.640400e-03 -1.094534e-02 -1.231264e-02 -1.258778e-02 -1.231351e-02 -1.174427e-02 -1.112442e-02 -1.046579e-02 -9.907899e-03 -9.376592e-03 -8.965569e-03 -8.592011e-03 -8.307968e-03 -8.069492e-03 -7.868196e-03 -7.735969e-03 -7.576240e-03 -7.528326e-03 -7.379105e-03 -7.400971e-03 -7.241644e-03 -7.322742e-03 -7.141618e-03 -7.271165e-03 -7.063503e-03 -7.225510e-03 -6.989731e-03 -7.155129e-03 -6.883243e-03 -6.994656e-03 -6.650525e-03 -6.593666e-03 -6.074726e-03 -5.637581e-03 -4.735354e-03 -3.599484e-03 -2.055462e-03 8.442346e-06 2.116457e-03 4.438720e-03 4.571457e-03 1.422656e-03 -4.280851e-03 -3.248492e-03 -4.710374e-04 -1.264861e-03 -2.565329e-03 -2.315138e-03 
-5.637983e-06 -3.914945e-06 -2.204859e-06 -1.337250e-06 -1.114585e-06 -2.063645e-06 -2.291370e-06 -1.986880e-06 -2.126139e-06 -2.939159e-06 -3.479440e-06 2.192759e-05 1.589943e-04 -1.156578e-04 -1.545770e-07 -1.081174e-10 -2.315002e-10 1.171903e-10 -5.835288e-09 -3.056910e-06 -1.572465e-03 6.037522e-04 6.142914e-04 1.456519e-04 1.762227e-05 -2.444215e-05 -5.277024e-05 -7.964731e-05 -1.042448e-04 -1.308130e-04 -1.613827e-04 -1.993144e-04 -2.461827e-04 -3.064212e-04 -3.813661e-04 -4.787282e-04 -6.003458e-04 -7.589170e-04 -9.577107e-04 -1.214415e-03 -1.532437e-03 -1.927826e-03 -2.393067e-03 -2.918068e-03 -3.448952e-03 -3.890720e-03 -4.067010e-03 -3.696395e-03 -2.369429e-03 5.062675e-04 5.789978e-03 1.488996e-02 2.846710e-02 3.567485e-02 -6.368580e-03 -8.178534e-03 7.291563e-01 1.097144e+00 1.750697e-01 7.630800e-02 3.524110e-01 3.073541e-02 5.016506e-02 1.982446e-01 2.799492e-01 5.752779e-02 -9.195144e-02 1.236722e-01 3.123140e-02 1.026447e-01 -4.928515e-02 -6.879959e-01 -4.447132e-01 1.352810e-01 1.930105e-01 1.189884e-01 6.832065e-02 3.898244e-02 2.113726e-02 1.012113e-02 3.535680e-03 -2.059251e-04 -2.150359e-03 -3.012727e-03 -3.237343e-03 -3.113175e-03 -2.814781e-03 -2.446797e-03 -2.071906e-03 -1.719892e-03 -1.408792e-03 -1.140674e-03 -9.170970e-04 -7.320032e-04 -5.820809e-04 -4.605381e-04 -3.636063e-04 -2.859097e-04 -2.245452e-04 -1.757218e-04 -1.375074e-04 -1.073216e-04 -8.394751e-05 -6.563382e-05 -5.161005e-05 -4.070912e-05 -3.242042e-05 -2.602887e-05 -2.116170e-05 -1.746905e-05 -1.463202e-05 -1.258262e-05 -1.100716e-05 -1.001212e-05 -9.290744e-06 -8.970983e-06 -8.872157e-06 -8.948973e-06 -9.413163e-06 -9.868506e-06 -1.092906e-05 -1.228932e-05 -1.312405e-05 -1.385522e-05 -1.267055e-05 -1.167042e-05 -9.669188e-06 -7.917716e-06 
1.255037e-03 -2.887074e-04 -2.507194e-03 -5.413234e-03 -4.482354e-03 7.432003e-03 8.192632e-03 2.808967e-03 -6.558166e-03 -2.120825e-02 -4.750076e-03 2.636108e-02 -6.345424e-01 -5.818973e-01 -2.747472e-01 -2.743289e-01 -2.743282e-01 -2.743284e-01 -2.743297e-01 -2.750349e-01 -6.480380e-01 -6.473615e-01 1.550797e-01 1.177665e-01 5.091969e-02 2.720199e-02 1.784244e-02 1.297226e-02 9.585562e-03 8.018421e-03 6.896095e-03 6.668453e-03 6.316540e-03 6.436813e-03 6.267473e-03 6.390503e-03 6.214757e-03 6.227666e-03 5.981482e-03 5.836709e-03 5.481370e-03 5.144705e-03 4.651668e-03 4.121447e-03 3.529813e-03 2.936619e-03 2.500328e-03 2.293536e-03 2.684204e-03 3.794669e-03 6.184739e-03 1.015834e-02 1.636173e-02 2.053462e-02 1.319644e-03 -4.781323e-02 5.394755e-02 1.645848e-01 1.007718e-01 2.516978e-02 -1.286489e-01 -2.177278e-01 -1.788394e-01 -1.305118e-01 8.843948e-03 8.959633e-02 6.253564e-02 -6.097998e-02 -1.784435e-01 6.084414e-02 3.101201e-01 2.638983e-01 2.191383e-01 1.890162e-01 1.210697e-01 7.197925e-02 4.409942e-02 2.719729e-02 1.650130e-02 9.862207e-03 5.994504e-03 3.916082e-03 3.007276e-03 2.771471e-03 2.965390e-03 3.339712e-03 3.834984e-03 4.313927e-03 4.798297e-03 5.206284e-03 5.581914e-03 5.884978e-03 6.139664e-03 6.357215e-03 6.505780e-03 6.670781e-03 6.731110e-03 6.874039e-03 6.859977e-03 7.003706e-03 6.925190e-03 7.083914e-03 6.949270e-03 7.128073e-03 6.945747e-03 7.138785e-03 6.915962e-03 7.100692e-03 6.835065e-03 6.958236e-03 6.617252e-03 6.567012e-03 6.050296e-03 5.616017e-03 4.716391e-03 3.580621e-03 2.040370e-03 -2.542428e-05 -2.128372e-03 -4.454762e-03 -4.583492e-03 -1.450153e-03 4.265921e-03 3.230926e-03 4.512716e-04 1.245714e-03 2.549336e-03 2.302179e-03 
6.626132e-05 -6.255639e-03 -1.606636e-02 -1.806944e-02 4.073204e-02 1.685911e-01 1.097559e-02 1.670445e-02 5.943212e-02 1.179437e-02 6.165515e-02 7.117385e-02 -1.286878e+00 -1.201476e+00 -5.478159e-01 -5.472770e-01 -5.471055e-01 -5.471368e-01 -5.472826e-01 -5.483039e-01 -1.278041e+00 -1.284827e+00 2.618400e-01 2.128113e-01 9.480523e-02 5.814667e-02 4.322040e-02 4.107946e-02 3.487474e-02 3.722814e-02 3.315957e-02 3.709628e-02 3.345562e-02 3.762897e-02 3.399313e-02 3.789995e-02 3.431824e-02 3.772728e-02 3.433727e-02 3.709253e-02 3.399427e-02 3.596003e-02 3.318863e-02 3.425220e-02 3.180621e-02 3.192715e-02 2.985275e-02 2.915913e-02 2.766025e-02 2.651991e-02 2.595050e-02 2.484601e-02 2.559384e-02 2.478719e-02 2.386733e-02 1.147514e-02 -4.039717e-03 -1.193921e-02 1.565089e-03 3.894798e-03 8.432440e-03 2.916961e-02 3.230100e-02 1.201474e-02 7.169891e-03 1.957898e-03 -1.278832e-03 -6.395608e-03 1.680812e-02 7.940951e-02 1.166851e-01 1.103936e-01 9.291904e-02 7.185851e-02 5.389890e-02 4.139128e-02 3.318656e-02 2.828251e-02 2.552023e-02 2.470671e-02 2.469935e-02 2.572587e-02 2.670188e-02 2.829249e-02 2.935273e-02 3.096400e-02 3.172096e-02 3.320238e-02 3.351045e-02 3.490156e-02 3.471532e-02 3.613346e-02 3.543952e-02 3.701906e-02 3.580983e-02 3.766565e-02 3.594210e-02 3.814443e-02 3.593478e-02 3.848839e-02 3.587298e-02 3.869876e-02 3.583292e-02 3.875289e-02 3.588339e-02 3.860934e-02 3.607694e-02 3.820436e-02 3.642216e-02 3.742646e-02 3.681628e-02 3.603637e-02 3.690285e-02 3.347958e-02 3.580675e-02 2.855001e-02 3.178596e-02 1.900600e-02 2.230846e-02 3.214931e-03 1.856740e-02 -5.677354e-03 3.122762e-02 9.290847e-02 3.856014e-02 5.227697e-03 2.881526e-03 3.041171e-03 
-6.684545e-03 -1.906087e-02 -2.565442e-02 8.173368e-02 4.791262e-01 7.901843e-01 -1.564889e+00 -9.758111e-01 -2.490169e-01 -5.041678e-01 -2.773293e-01 -5.122437e-01 -1.467534e+00 -1.092314e+00 -7.784177e-01 -7.876003e-01 -7.834579e-01 -7.840685e-01 -7.878688e-01 -7.799800e-01 -1.187678e+00 -1.330415e+00 -3.662695e-01 -3.364986e-01 -4.147150e-01 -4.225342e-01 -4.518344e-01 -4.311861e-01 -4.628312e-01 -4.309645e-01 -4.685347e-01 -4.290672e-01 -4.715001e-01 -4.278579e-01 -4.727509e-01 -4.279630e-01 -4.726959e-01 -4.294671e-01 -4.717301e-01 -4.323731e-01 -4.703891e-01 -4.367466e-01 -4.692460e-01 -4.426111e-01 -4.688454e-01 -4.501570e-01 -4.699495e-01 -4.598638e-01 -4.734812e-01 -4.722977e-01 -4.802870e-01 -4.878668e-01 -4.908880e-01 -5.065348e-01 -5.052016e-01 -5.280229e-01 -5.228880e-01 -5.457489e-01 -5.259711e-01 -5.461363e-01 -5.267513e-01 -5.410359e-01 -5.265988e-01 -5.493024e-01 -5.365814e-01 -5.565781e-01 -5.416909e-01 -5.468087e-01 -5.270360e-01 -5.121256e-01 -5.016544e-01 -5.088697e-01 -5.058095e-01 -5.044487e-01 -4.985448e-01 -4.942581e-01 -4.885689e-01 -4.817882e-01 -4.777040e-01 -4.697312e-01 -4.683047e-01 -4.595664e-01 -4.613171e-01 -4.516125e-01 -4.567850e-01 -4.455797e-01 -4.542837e-01 -4.409875e-01 -4.533247e-01 -4.374117e-01 -4.533900e-01 -4.345647e-01 -4.540894e-01 -4.323544e-01 -4.550621e-01 -4.307147e-01 -4.558791e-01 -4.297231e-01 -4.561453e-01 -4.295850e-01 -4.554454e-01 -4.306616e-01 -4.534800e-01 -4.333872e-01 -4.498657e-01 -4.380527e-01 -4.442380e-01 -4.449236e-01 -4.364140e-01 -4.541138e-01 -4.265204e-01 -4.656395e-01 -4.152441e-01 -4.796017e-01 -4.041549e-01 -4.971689e-01 -3.967186e-01 -5.237897e-01 -3.999344e-01 -5.791569e-01 -3.854047e-01 -1.043803e+00 -1.171869e+00 3.346888e-01 4.066217e-01 8.291923e-02 -4.963480e-03 -6.180585e-03 
-2.166210e-02 -2.336995e-02 7.233259e-02 4.420058e-01 -3.753628e-01 -1.520264e+00 -2.979785e+00 -2.365147e+00 -1.126440e+00 -1.521304e+00 -1.053831e+00 -1.309751e+00 -1.293758e+00 -1.384088e+00 -1.091340e+00 -1.326780e+00 -1.153311e+00 -1.310866e+00 -1.182465e+00 -1.239053e+00 -1.271097e+00 -1.328249e+00 -1.276376e+00 -1.186357e+00 -1.400178e+00 -1.295973e+00 -1.469085e+00 -1.341674e+00 -1.501106e+00 -1.365619e+00 -1.513636e+00 -1.383042e+00 -1.516481e+00 -1.400407e+00 -1.513582e+00 -1.417388e+00 -1.506508e+00 -1.433208e+00 -1.497863e+00 -1.448370e+00 -1.491459e+00 -1.464375e+00 -1.489351e+00 -1.479691e+00 -1.490177e+00 -1.493278e+00 -1.495121e+00 -1.508123e+00 -1.507440e+00 -1.528463e+00 -1.529463e+00 -1.555642e+00 -1.557976e+00 -1.585885e+00 -1.587769e+00 -1.616897e+00 -1.615063e+00 -1.641210e+00 -1.617609e+00 -1.633804e+00 -1.607344e+00 -1.615895e+00 -1.590167e+00 -1.607395e+00 -1.577081e+00 -1.601366e+00 -1.563036e+00 -1.583889e+00 -1.540544e+00 -1.553785e+00 -1.524390e+00 -1.551415e+00 -1.524567e+00 -1.536995e+00 -1.510457e+00 -1.514116e+00 -1.499746e+00 -1.492284e+00 -1.494976e+00 -1.473814e+00 -1.495436e+00 -1.458187e+00 -1.499128e+00 -1.446253e+00 -1.505129e+00 -1.438437e+00 -1.510860e+00 -1.434470e+00 -1.514390e+00 -1.434283e+00 -1.513668e+00 -1.438014e+00 -1.509103e+00 -1.447395e+00 -1.501160e+00 -1.461147e+00 -1.488870e+00 -1.477655e+00 -1.472740e+00 -1.495004e+00 -1.453833e+00 -1.512568e+00 -1.436224e+00 -1.530330e+00 -1.421986e+00 -1.545147e+00 -1.411966e+00 -1.554802e+00 -1.407422e+00 -1.557210e+00 -1.409376e+00 -1.552025e+00 -1.419521e+00 -1.539171e+00 -1.438777e+00 -1.519948e+00 -1.471428e+00 -1.496355e+00 -1.526497e+00 -1.470510e+00 -1.621541e+00 -1.957339e+00 -4.566894e+00 -1.916443e+00 1.569982e+00 5.335590e-01 3.864480e-02 -2.186698e-02 
-2.105952e-02 5.932105e-03 2.019084e-01 6.001196e-01 -1.653218e+00 -4.149626e+00 -8.773403e-02 -6.556286e-01 -6.710212e-01 -7.285143e-01 -5.968269e-01 -4.917690e-01 5.783841e-01 2.326459e-01 3.457202e-02 1.478763e-01 1.649173e-01 1.751702e-01 1.094419e-01 1.057170e-01 1.826382e-01 5.197103e-01 -5.764241e-01 -5.018927e-01 -7.573262e-01 -5.935959e-01 -8.120864e-01 -6.538015e-01 -8.327199e-01 -6.912558e-01 -8.319094e-01 -7.212023e-01 -8.231440e-01 -7.501192e-01 -8.112672e-01 -7.760562e-01 -7.976716e-01 -7.972081e-01 -7.851922e-01 -8.140570e-01 -7.782805e-01 -8.287029e-01 -7.786794e-01 -8.388072e-01 -7.829486e-01 -8.424492e-01 -7.909688e-01 -8.430842e-01 -8.051045e-01 -8.454834e-01 -8.259923e-01 -8.499475e-01 -8.463433e-01 -8.501183e-01 -8.580195e-01 -8.453649e-01 -8.617104e-01 -8.454544e-01 -8.640391e-01 -8.386586e-01 -8.522370e-01 -8.264282e-01 -8.295452e-01 -8.043633e-01 -7.982271e-01 -7.906295e-01 -7.740820e-01 -7.983857e-01 -7.794635e-01 -8.338919e-01 -8.063106e-01 -8.298768e-01 -7.939164e-01 -8.234549e-01 -7.974936e-01 -8.184776e-01 -8.063486e-01 -8.114374e-01 -8.186876e-01 -8.023418e-01 -8.320933e-01 -7.912871e-01 -8.447727e-01 -7.815738e-01 -8.568279e-01 -7.756406e-01 -8.656191e-01 -7.743972e-01 -8.690439e-01 -7.785276e-01 -8.646766e-01 -7.885927e-01 -8.536214e-01 -8.071653e-01 -8.370977e-01 -8.321164e-01 -8.143984e-01 -8.604733e-01 -7.871723e-01 -8.884900e-01 -7.581015e-01 -9.140455e-01 -7.343731e-01 -9.357759e-01 -7.203246e-01 -9.478007e-01 -7.183801e-01 -9.457844e-01 -7.311911e-01 -9.260766e-01 -7.603446e-01 -8.882722e-01 -8.074097e-01 -8.329236e-01 -8.717050e-01 -7.620741e-01 -9.566449e-01 -6.734513e-01 -1.074194e+00 -5.325434e-01 -1.303354e+00 1.031773e-01 -3.455160e+00 -3.331824e+00 1.626149e+00 5.614584e-01 2.034030e-02 -3.355014e-02 
-4.483581e-03 4.753900e-03 8.552158e-02 1.990909e-01 -1.002742e+00 -2.330735e+00 2.186919e+00 1.269273e+00 3.305878e-01 5.863939e-01 4.118533e-01 5.246600e-01 -1.095777e+00 2.812518e-01 4.611274e-01 7.109930e-01 3.370824e-01 7.601101e-01 3.560123e-01 8.107712e-01 -8.202699e-02 -6.898142e-01 3.878141e-01 5.560306e-01 4.384624e-01 4.912974e-01 4.275778e-01 4.752719e-01 4.381461e-01 4.631088e-01 4.512012e-01 4.515139e-01 4.630811e-01 4.401802e-01 4.727409e-01 4.308133e-01 4.802945e-01 4.246039e-01 4.853582e-01 4.216575e-01 4.870334e-01 4.213635e-01 4.854048e-01 4.245837e-01 4.824479e-01 4.321775e-01 4.792385e-01 4.434448e-01 4.763647e-01 4.575946e-01 4.753277e-01 4.755979e-01 4.803051e-01 5.002873e-01 4.947293e-01 5.307987e-01 5.151836e-01 5.518010e-01 5.161970e-01 5.509954e-01 5.165344e-01 5.445110e-01 5.193355e-01 5.524995e-01 5.311122e-01 5.523089e-01 5.339431e-01 5.243088e-01 5.050486e-01 4.628692e-01 4.635421e-01 4.602744e-01 4.723573e-01 4.544724e-01 4.605482e-01 4.450510e-01 4.495426e-01 4.401797e-01 4.405961e-01 4.397760e-01 4.339853e-01 4.425239e-01 4.293130e-01 4.459780e-01 4.258138e-01 4.483753e-01 4.240257e-01 4.488312e-01 4.245769e-01 4.468124e-01 4.282831e-01 4.420269e-01 4.347459e-01 4.336290e-01 4.434534e-01 4.225307e-01 4.544027e-01 4.101173e-01 4.666170e-01 3.982308e-01 4.785811e-01 3.883150e-01 4.871182e-01 3.816628e-01 4.899470e-01 3.811305e-01 4.854672e-01 3.889682e-01 4.721675e-01 4.069333e-01 4.492382e-01 4.352441e-01 4.162918e-01 4.732528e-01 3.738857e-01 5.192032e-01 3.199304e-01 5.721721e-01 2.411826e-01 6.435726e-01 4.854886e-02 1.472446e+00 3.661184e-01 -1.193018e+00 5.628415e-01 2.102398e-01 1.591218e-02 -6.150348e-03 
3.372896e-03 3.682145e-03 1.352598e-02 1.800815e-02 -1.707205e-01 -4.712144e-01 8.087555e-01 5.598215e-01 1.684271e-01 2.964653e-01 2.326451e-01 3.923104e-01 -3.751867e-01 -1.694091e+00 -2.214569e+00 -1.738696e+00 -2.146612e+00 -1.957703e+00 -1.963442e+00 -2.269900e+00 -1.708676e+00 -1.832404e-01 3.225984e-01 2.609818e-01 2.229822e-01 2.204609e-01 2.278166e-01 2.247460e-01 2.360638e-01 2.255318e-01 2.417354e-01 2.253617e-01 2.456701e-01 2.250467e-01 2.481065e-01 2.250220e-01 2.493045e-01 2.255453e-01 2.495304e-01 2.267496e-01 2.490667e-01 2.286971e-01 2.482236e-01 2.314361e-01 2.473725e-01 2.350854e-01 2.470027e-01 2.399006e-01 2.477615e-01 2.462448e-01 2.502624e-01 2.542057e-01 2.545473e-01 2.634009e-01 2.606935e-01 2.727830e-01 2.642833e-01 2.772184e-01 2.687873e-01 2.830103e-01 2.751343e-01 2.921271e-01 2.804738e-01 2.827463e-01 2.672749e-01 2.744793e-01 2.662492e-01 2.688992e-01 2.712396e-01 2.854475e-01 2.892319e-01 2.831700e-01 2.741665e-01 2.628615e-01 2.562349e-01 2.487438e-01 2.466854e-01 2.412405e-01 2.411650e-01 2.370271e-01 2.381559e-01 2.351109e-01 2.368868e-01 2.345793e-01 2.366919e-01 2.346816e-01 2.370987e-01 2.348787e-01 2.378495e-01 2.348556e-01 2.388372e-01 2.344781e-01 2.400302e-01 2.337239e-01 2.414021e-01 2.326607e-01 2.428727e-01 2.314416e-01 2.442837e-01 2.303050e-01 2.453881e-01 2.295591e-01 2.458729e-01 2.295660e-01 2.453821e-01 2.307067e-01 2.435569e-01 2.333295e-01 2.400852e-01 2.376593e-01 2.347535e-01 2.436928e-01 2.274450e-01 2.511007e-01 2.180008e-01 2.591698e-01 2.057262e-01 2.671334e-01 1.872837e-01 2.737311e-01 1.250168e-01 4.877109e-01 5.132871e-01 -5.834372e-02 2.220172e-02 1.862198e-02 7.204610e-03 4.724803e-03 
