# vtk DataFile Version 2.0
Comment goes here
ASCII

DATASET STRUCTURED_POINTS
FIELD FieldData 1
TIME 1 1 double
0.83000000
DIMENSIONS    128   16   1

ORIGIN    0.000   0.000   0.000
SPACING   0.0078125 0.015625   1.000

POINT_DATA   2048
SCALARS Omega double
LOOKUP_TABLE default

3.001848e-06 2.219376e-07 -4.529531e-06 -1.241037e-05 -1.573080e-05 4.331355e-06 -2.746762e-05 -2.399985e-05 -7.894141e-06 -7.215238e-06 -3.537877e-06 -7.604616e-06 1.281984e-05 2.851553e-05 4.329570e-05 -4.681819e-05 5.845790e-05 3.992671e-06 3.173375e-05 1.368185e-04 -8.995051e-05 -1.074506e-04 -2.721037e-05 -3.775153e-05 -5.812265e-05 -8.290417e-05 -7.544725e-05 -1.098785e-04 -9.642401e-05 -1.407146e-04 -1.303642e-04 -1.807773e-04 -1.809505e-04 -2.330436e-04 -2.498841e-04 -2.982724e-04 -3.359992e-04 -3.742624e-04 -4.339185e-04 -4.554744e-04 -5.351020e-04 -5.349234e-04 -6.309864e-04 -6.072575e-04 -7.103806e-04 -6.581914e-04 -7.439372e-04 -6.522461e-04 -7.137596e-04 -6.776009e-04 -1.059323e-03 -2.086720e-03 -4.783805e-03 -7.984604e-03 -6.715628e-03 -9.388947e-04 -2.061924e-02 -4.324535e-02 -2.907112e-02 -3.182432e-02 -2.187006e-02 3.837308e-02 3.383080e-02 -1.269412e-02 -3.001003e-02 -2.238971e-02 -4.932941e-03 -6.261315e-03 1.696101e-02 7.990830e-02 1.031238e-01 9.648889e-02 7.813178e-02 4.590197e-02 2.744352e-02 2.126852e-02 1.718173e-02 1.272203e-02 9.228441e-03 6.257563e-03 4.247353e-03 2.558206e-03 1.577843e-03 7.278383e-04 3.936264e-04 1.664606e-05 8.380551e-06 -1.607637e-04 -4.923832e-05 -1.510899e-04 -2.107818e-05 -1.050253e-04 4.559474e-06 -6.706560e-05 1.201023e-05 -4.218445e-05 7.883870e-06 -2.541002e-05 -8.274849e-07 -1.156945e-05 -1.006067e-05 1.108093e-06 -1.733119e-05 1.244336e-05 -2.223570e-05 2.175584e-05 -2.524949e-05 2.758444e-05 -2.680261e-05 2.887780e-05 -2.728222e-05 2.535156e-05 -2.631166e-05 1.838589e-05 -2.346550e-05 1.039864e-05 -1.827306e-05 4.265404e-06 -9.099751e-06 7.511137e-06 9.865921e-06 3.123158e-05 1.321196e-05 1.747436e-05 1.718975e-05 4.368053e-06 1.842357e-06 3.265117e-06 
-4.725171e-03 -1.234937e-03 1.228510e-03 -3.792289e-02 -1.197188e-01 7.127692e-01 1.141096e+00 4.246654e-01 5.296189e-01 4.363831e-01 5.153964e-01 2.815369e-01 -6.103449e-01 -2.266342e+00 -3.046281e+00 -2.769905e+00 -2.776518e+00 -2.858170e+00 -2.662546e+00 -2.939956e+00 -2.384580e+00 -4.064208e-01 3.160682e-01 5.104754e-01 4.707033e-01 5.046269e-01 4.730673e-01 5.068865e-01 4.809961e-01 5.064369e-01 4.859293e-01 5.038884e-01 4.893391e-01 5.006263e-01 4.918054e-01 4.972291e-01 4.935164e-01 4.938704e-01 4.944768e-01 4.905605e-01 4.945629e-01 4.871660e-01 4.936340e-01 4.834370e-01 4.914799e-01 4.791181e-01 4.878053e-01 4.739493e-01 4.822424e-01 4.673706e-01 4.733076e-01 4.561131e-01 4.559849e-01 4.457282e-01 4.540056e-01 2.375390e-01 -8.561294e-01 -1.496680e+00 -6.473390e-01 -8.045806e-01 -6.100284e-01 1.663448e+00 1.750982e+00 -2.154155e-01 -1.026958e+00 -7.723097e-01 -5.652858e-01 -1.317286e+00 -6.360667e-01 2.482211e+00 3.525090e+00 2.083135e+00 1.194962e+00 7.789823e-01 5.449314e-01 5.082864e-01 5.060848e-01 5.033865e-01 5.002172e-01 4.972942e-01 4.955485e-01 4.937810e-01 4.935383e-01 4.917804e-01 4.930540e-01 4.904752e-01 4.933830e-01 4.894110e-01 4.940955e-01 4.884041e-01 4.948739e-01 4.875448e-01 4.954060e-01 4.870650e-01 4.954281e-01 4.871345e-01 4.948578e-01 4.878125e-01 4.936098e-01 4.892550e-01 4.915045e-01 4.916298e-01 4.884734e-01 4.949305e-01 4.845952e-01 4.991114e-01 4.800411e-01 5.039899e-01 4.752333e-01 5.092582e-01 4.707968e-01 5.145573e-01 4.676741e-01 5.196881e-01 4.670968e-01 5.252197e-01 4.706112e-01 5.340042e-01 4.794086e-01 5.566634e-01 4.893378e-01 8.515162e-01 1.102008e+00 1.292108e-01 -2.703535e-02 -1.083052e-02 -9.497413e-03 -7.411220e-03 
-1.655492e-03 1.957291e-02 3.604709e-02 -2.607839e-01 -1.623900e+00 6.485889e-01 2.687966e+00 4.111210e-01 9.689173e-01 6.109577e-01 8.797878e-01 4.292874e-01 -2.116862e-01 4.774294e-01 1.282394e+00 1.207375e+00 1.050828e+00 1.200324e+00 1.060788e+00 1.316074e+00 3.643027e-01 1.080783e-01 4.416701e-01 7.829643e-01 7.102650e-01 8.008401e-01 7.010801e-01 7.933559e-01 7.000421e-01 7.888223e-01 7.018604e-01 7.837255e-01 7.053391e-01 7.765890e-01 7.087313e-01 7.664843e-01 7.120684e-01 7.555178e-01 7.177062e-01 7.463968e-01 7.257286e-01 7.381692e-01 7.328264e-01 7.282070e-01 7.371167e-01 7.180011e-01 7.412833e-01 7.121765e-01 7.490225e-01 7.147484e-01 7.631149e-01 7.290868e-01 7.895979e-01 7.831330e-01 8.618271e-01 4.546612e-01 -1.468407e+00 -2.387731e+00 -2.692405e-01 -2.692944e-02 -6.067116e-01 6.896057e-01 8.696418e-01 8.230976e-02 -2.038931e-01 2.748963e-01 7.917287e-01 -1.083754e-02 9.289437e-02 1.544029e+00 2.503718e+00 2.963997e+00 2.338700e+00 1.118817e+00 6.464478e-01 6.405829e-01 6.384514e-01 6.788177e-01 6.594968e-01 6.951476e-01 6.704975e-01 7.042599e-01 6.812266e-01 7.080355e-01 6.916376e-01 7.059647e-01 7.009969e-01 6.988863e-01 7.096367e-01 6.887346e-01 7.180563e-01 6.787769e-01 7.269589e-01 6.718846e-01 7.344468e-01 6.676522e-01 7.374133e-01 6.658347e-01 7.346490e-01 6.681301e-01 7.260838e-01 6.769591e-01 7.127115e-01 6.934058e-01 6.945970e-01 7.156832e-01 6.706702e-01 7.406748e-01 6.422919e-01 7.669357e-01 6.143904e-01 7.932885e-01 5.913609e-01 8.153625e-01 5.757631e-01 8.301928e-01 5.710776e-01 8.420001e-01 5.773514e-01 8.794532e-01 5.598632e-01 1.610059e+00 1.821300e+00 -1.381013e+00 -5.532559e-01 9.424528e-02 3.657083e-02 -1.803866e-03 
8.371456e-03 4.954654e-02 9.922048e-02 -5.328592e-01 -4.313676e+00 -3.854975e+00 -1.292850e-01 -1.709686e+00 -1.043651e+00 -1.371705e+00 -1.020599e+00 -8.146318e-01 -7.825132e-02 -8.011622e-02 -4.757468e-01 -1.931157e-01 -2.996116e-01 -1.514148e-01 -3.383128e-01 -3.599275e-01 -9.322840e-02 -3.059958e-01 -8.364657e-01 -1.112729e+00 -1.219704e+00 -1.260630e+00 -1.335642e+00 -1.313964e+00 -1.402388e+00 -1.331253e+00 -1.437705e+00 -1.333265e+00 -1.455213e+00 -1.334396e+00 -1.464974e+00 -1.342044e+00 -1.468849e+00 -1.351644e+00 -1.460397e+00 -1.355633e+00 -1.438791e+00 -1.356117e+00 -1.412981e+00 -1.359260e+00 -1.387081e+00 -1.358983e+00 -1.350910e+00 -1.339802e+00 -1.290911e+00 -1.287208e+00 -1.193382e+00 -1.184144e+00 -1.037822e+00 -1.004787e+00 -7.721362e-01 -4.463415e-01 8.091374e-01 1.304439e+00 3.211417e-01 2.188220e-01 2.864436e-01 -1.245557e+00 -1.317370e+00 -3.990145e-01 1.377795e-03 -4.455062e-01 -8.050013e-01 -3.910242e-01 -9.494108e-01 -2.997269e+00 -4.030077e+00 -3.779203e+00 -3.107174e+00 -2.213867e+00 -1.900414e+00 -1.733414e+00 -1.737025e+00 -1.612225e+00 -1.656367e+00 -1.540720e+00 -1.607003e+00 -1.499653e+00 -1.569030e+00 -1.478420e+00 -1.537610e+00 -1.475701e+00 -1.512408e+00 -1.488137e+00 -1.491087e+00 -1.510046e+00 -1.470657e+00 -1.532988e+00 -1.446946e+00 -1.550282e+00 -1.423563e+00 -1.564228e+00 -1.409081e+00 -1.575729e+00 -1.406599e+00 -1.580668e+00 -1.415231e+00 -1.572894e+00 -1.431815e+00 -1.548865e+00 -1.456981e+00 -1.513171e+00 -1.495244e+00 -1.473283e+00 -1.545603e+00 -1.430752e+00 -1.597677e+00 -1.385748e+00 -1.644373e+00 -1.348460e+00 -1.685213e+00 -1.329618e+00 -1.718758e+00 -1.335059e+00 -1.755477e+00 -1.360534e+00 -1.866055e+00 -1.132571e+00 -2.491145e+00 -5.261536e+00 -1.492186e+00 3.333005e-01 1.536858e-01 2.342573e-02 
7.627416e-03 4.699058e-02 1.516032e-01 -5.239388e-02 -2.793837e+00 -5.655828e+00 -3.911524e+00 -2.644092e+00 -2.611661e+00 -2.475308e+00 -2.479325e+00 -2.353834e+00 -2.558143e+00 -2.403672e+00 -2.395960e+00 -2.419060e+00 -2.429100e+00 -2.453311e+00 -2.396070e+00 -2.435570e+00 -2.461828e+00 -2.470570e+00 -2.238965e+00 -2.438486e+00 -2.400671e+00 -2.577291e+00 -2.541319e+00 -2.638369e+00 -2.621531e+00 -2.655459e+00 -2.667508e+00 -2.653366e+00 -2.694023e+00 -2.646801e+00 -2.710601e+00 -2.643308e+00 -2.719801e+00 -2.640694e+00 -2.717708e+00 -2.634052e+00 -2.703732e+00 -2.624625e+00 -2.683914e+00 -2.616063e+00 -2.660623e+00 -2.603506e+00 -2.625874e+00 -2.575432e+00 -2.569023e+00 -2.520764e+00 -2.479214e+00 -2.427992e+00 -2.342077e+00 -2.278814e+00 -2.129141e+00 -2.060206e+00 -1.864039e+00 -1.697722e+00 -1.881988e+00 -2.280406e+00 -2.065537e+00 -1.425191e+00 -1.501765e+00 -2.498930e+00 -2.826628e+00 -2.815587e+00 -2.928476e+00 -3.406275e+00 -3.184958e+00 -1.972686e+00 -1.652393e+00 -2.384098e+00 -2.984174e+00 -3.151967e+00 -3.147767e+00 -3.003552e+00 -2.975852e+00 -2.871351e+00 -2.893770e+00 -2.802145e+00 -2.845254e+00 -2.759945e+00 -2.810211e+00 -2.734878e+00 -2.783676e+00 -2.725041e+00 -2.764074e+00 -2.727463e+00 -2.748760e+00 -2.737885e+00 -2.734605e+00 -2.750704e+00 -2.717513e+00 -2.761858e+00 -2.698957e+00 -2.773196e+00 -2.684590e+00 -2.785181e+00 -2.676432e+00 -2.795129e+00 -2.673514e+00 -2.799007e+00 -2.673721e+00 -2.793998e+00 -2.678045e+00 -2.782797e+00 -2.690359e+00 -2.769676e+00 -2.711408e+00 -2.754419e+00 -2.735840e+00 -2.735630e+00 -2.761158e+00 -2.718949e+00 -2.789388e+00 -2.711453e+00 -2.820587e+00 -2.719530e+00 -2.855593e+00 -2.750906e+00 -2.866084e+00 -3.254802e+00 -5.414563e+00 -4.635583e+00 -1.162360e+00 2.113930e-01 1.035117e-01 1.072422e-02 
-1.442117e-04 1.047382e-02 5.753111e-02 1.669096e-01 2.090207e-03 -1.781661e+00 -2.294809e+00 -1.071937e+00 -1.221381e+00 -9.788585e-01 -1.064893e+00 -1.171720e+00 -1.980875e+00 -1.688311e+00 -1.347645e+00 -1.347034e+00 -1.351982e+00 -1.347382e+00 -1.351230e+00 -1.349195e+00 -1.664424e+00 -1.772854e+00 -1.193798e+00 -1.070086e+00 -9.886615e-01 -1.073791e+00 -1.024068e+00 -1.086039e+00 -1.045351e+00 -1.089722e+00 -1.060721e+00 -1.088981e+00 -1.071333e+00 -1.085884e+00 -1.078561e+00 -1.082008e+00 -1.083337e+00 -1.077945e+00 -1.086036e+00 -1.073874e+00 -1.086938e+00 -1.070024e+00 -1.086643e+00 -1.066634e+00 -1.085552e+00 -1.063703e+00 -1.083477e+00 -1.060915e+00 -1.079823e+00 -1.057477e+00 -1.073145e+00 -1.051346e+00 -1.052547e+00 -9.961514e-01 -9.349246e-01 -1.397105e+00 -4.131559e+00 -5.474460e+00 -2.684082e+00 -1.967584e+00 -2.890346e+00 -1.876138e+00 -1.507772e+00 -1.797049e+00 -2.052670e+00 -1.620898e+00 -8.914635e-01 -1.514193e+00 -1.624051e+00 -7.604476e-01 1.252492e-01 1.230853e+00 1.003186e+00 -3.908270e-01 -1.033676e+00 -1.158260e+00 -1.168619e+00 -1.155995e+00 -1.151309e+00 -1.135045e+00 -1.132143e+00 -1.115523e+00 -1.116858e+00 -1.100619e+00 -1.106531e+00 -1.090284e+00 -1.100088e+00 -1.083497e+00 -1.096195e+00 -1.079295e+00 -1.093578e+00 -1.077094e+00 -1.091017e+00 -1.076683e+00 -1.087784e+00 -1.078054e+00 -1.083847e+00 -1.080974e+00 -1.079163e+00 -1.085286e+00 -1.073488e+00 -1.090823e+00 -1.066791e+00 -1.097174e+00 -1.059450e+00 -1.104128e+00 -1.052084e+00 -1.111329e+00 -1.045512e+00 -1.118005e+00 -1.040428e+00 -1.123137e+00 -1.037766e+00 -1.125808e+00 -1.038064e+00 -1.124909e+00 -1.039528e+00 -1.118731e+00 -1.032814e+00 -1.107460e+00 -9.613275e-01 -1.524979e+00 -2.492582e+00 -8.521728e-01 1.756295e-02 7.966469e-02 1.090729e-02 -4.169567e-03 
-9.089802e-04 3.230093e-03 1.058027e-02 3.682985e-02 7.682982e-02 -2.809233e-02 -1.810211e-01 -1.054276e-01 -7.117111e-02 -1.096966e-02 3.979679e-02 -2.439066e-01 -1.927822e+00 -1.721465e+00 -8.945564e-01 -8.928355e-01 -8.930334e-01 -8.928450e-01 -8.930041e-01 -8.936909e-01 -1.544027e+00 -1.732347e+00 -5.254415e-01 -1.312543e-01 -7.820652e-02 -7.765318e-02 -6.679241e-02 -6.469487e-02 -5.945927e-02 -6.062219e-02 -5.911942e-02 -6.037232e-02 -6.042874e-02 -6.087285e-02 -6.182289e-02 -6.143457e-02 -6.304126e-02 -6.205839e-02 -6.422080e-02 -6.296206e-02 -6.563999e-02 -6.445964e-02 -6.767509e-02 -6.692911e-02 -7.073340e-02 -7.068341e-02 -7.496522e-02 -7.546148e-02 -7.939855e-02 -7.903538e-02 -7.984965e-02 -7.378482e-02 -5.871691e-02 -9.164298e-03 8.414650e-02 -3.534440e-02 -1.126306e+00 -1.836001e+00 -8.115231e-01 -2.698037e-01 -5.909997e-01 -2.078922e-01 -9.617798e-03 -3.612376e-01 -5.283353e-01 -5.941526e-01 -5.868939e-01 -5.220579e-01 -5.789733e-01 -2.037089e-01 -7.238419e-02 -7.643635e-01 -6.393215e-01 2.161909e-03 1.085016e-01 1.161219e-02 -4.180415e-02 -6.443016e-02 -7.481352e-02 -7.846616e-02 -7.944576e-02 -7.774242e-02 -7.642669e-02 -7.347877e-02 -7.231587e-02 -6.935191e-02 -6.897039e-02 -6.621120e-02 -6.663762e-02 -6.403778e-02 -6.511109e-02 -6.262243e-02 -6.410996e-02 -6.176587e-02 -6.340005e-02 -6.131529e-02 -6.282456e-02 -6.116522e-02 -6.227633e-02 -6.126206e-02 -6.167858e-02 -6.157570e-02 -6.099277e-02 -6.207030e-02 -6.020881e-02 -6.270403e-02 -5.932862e-02 -6.339979e-02 -5.835368e-02 -6.400514e-02 -5.721427e-02 -6.420023e-02 -5.563042e-02 -6.330863e-02 -5.280958e-02 -6.000007e-02 -4.703264e-02 -5.224308e-02 -3.558186e-02 -3.845594e-02 -1.527768e-02 -7.923645e-02 -1.489181e-01 -2.808289e-03 2.309413e-02 4.356497e-04 -9.094881e-03 -5.229368e-03 
-1.495490e-03 -3.145421e-04 6.688629e-04 2.721672e-03 9.118106e-03 1.176084e-02 9.530244e-04 3.920567e-03 1.748253e-02 4.446606e-02 8.093804e-02 -6.191052e-02 -9.778338e-01 -8.801254e-01 -4.471830e-01 -4.462581e-01 -4.462564e-01 -4.462563e-01 -4.462568e-01 -4.466128e-01 -7.589631e-01 -8.540911e-01 -2.488239e-01 -4.787078e-02 -2.294183e-02 -1.773199e-02 -1.040323e-02 -5.060154e-03 -1.896213e-03 -2.174495e-04 5.052481e-04 9.066863e-04 8.492839e-04 8.820024e-04 5.901210e-04 5.282573e-04 1.529363e-04 3.487354e-05 -4.219120e-04 -6.491677e-04 -1.245238e-03 -1.668709e-03 -2.472181e-03 -3.146585e-03 -4.129296e-03 -4.898023e-03 -5.652716e-03 -5.720666e-03 -4.851665e-03 -1.985332e-03 3.818882e-03 1.462662e-02 3.542680e-02 7.698187e-02 1.169611e-01 -1.395450e-01 -1.019799e+00 -1.087646e+00 1.427468e-01 1.086500e-01 -3.884449e-01 4.932735e-01 5.358261e-01 -3.110530e-01 -2.719064e-01 4.107788e-02 5.445668e-02 -3.044477e-01 -4.124830e-01 5.369089e-01 1.328529e+00 1.016410e+00 4.920598e-01 3.016614e-01 2.068203e-01 1.190849e-01 6.594594e-02 3.484243e-02 1.630314e-02 5.605901e-03 -2.306198e-04 -3.080865e-03 -4.243468e-03 -4.405240e-03 -4.126339e-03 -3.551688e-03 -2.992643e-03 -2.343262e-03 -1.868415e-03 -1.326417e-03 -1.011859e-03 -5.950694e-04 -4.235883e-04 -1.046660e-04 -3.768179e-05 2.135515e-04 2.127671e-04 4.166999e-04 3.786937e-04 5.442477e-04 4.948628e-04 6.218129e-04 5.844618e-04 6.669000e-04 6.649210e-04 6.958347e-04 7.560108e-04 7.359407e-04 8.969577e-04 8.517352e-04 1.184097e-03 1.197968e-03 1.840018e-03 2.101562e-03 3.296394e-03 4.108249e-03 6.138714e-03 7.672066e-03 1.038554e-02 1.196827e-02 1.431134e-02 1.107570e-02 8.044787e-03 7.452865e-03 8.524527e-04 -3.165304e-03 -3.786773e-03 -2.615607e-03 
-5.455750e-06 -4.103854e-06 -2.070157e-06 -1.462504e-06 -7.700781e-07 -1.483927e-06 -2.184604e-06 -2.106696e-06 -1.472837e-06 -1.282723e-06 -5.450680e-06 -2.565829e-05 -3.152633e-05 5.015724e-05 1.008343e-07 9.277368e-11 9.372923e-11 -5.409242e-10 4.203373e-09 3.202949e-06 2.849783e-03 9.686741e-04 -1.401898e-05 -8.073887e-06 1.247345e-05 -2.498816e-05 -5.074440e-05 -7.941824e-05 -9.917109e-05 -1.254069e-04 -1.524948e-04 -1.889149e-04 -2.321807e-04 -2.890504e-04 -3.589320e-04 -4.502066e-04 -5.639888e-04 -7.126234e-04 -8.996199e-04 -1.141747e-03 -1.443861e-03 -1.821170e-03 -2.268976e-03 -2.776914e-03 -3.294132e-03 -3.724556e-03 -3.891063e-03 -3.502520e-03 -2.137649e-03 7.954224e-04 5.994677e-03 1.474420e-02 3.074380e-02 6.095431e-02 7.511646e-02 -2.212758e-01 -1.133010e+00 -1.199904e+00 1.507731e-02 6.134121e-02 -2.367475e-01 4.756247e-01 3.770233e-01 -7.934429e-02 6.008574e-02 1.374916e-01 2.219248e-01 1.450793e-01 2.132091e-01 7.226049e-01 1.032289e+00 1.130097e+00 8.558354e-01 3.803511e-01 1.715553e-01 9.566480e-02 5.831805e-02 3.429454e-02 1.849034e-02 8.629361e-03 2.792545e-03 -4.882339e-04 -2.160124e-03 -2.888392e-03 -3.040342e-03 -2.904172e-03 -2.603261e-03 -2.259976e-03 -1.902582e-03 -1.580212e-03 -1.288608e-03 -1.044977e-03 -8.372778e-04 -6.697586e-04 -5.311477e-04 -4.213805e-04 -3.318429e-04 -2.618422e-04 -2.049543e-04 -1.612210e-04 -1.254672e-04 -9.878697e-05 -7.654978e-05 -6.076796e-05 -4.706035e-05 -3.802962e-05 -2.961060e-05 -2.456631e-05 -1.941500e-05 -1.660359e-05 -1.356230e-05 -1.194894e-05 -1.044425e-05 -9.445857e-06 -9.226244e-06 -8.473842e-06 -9.376741e-06 -8.636038e-06 -1.054475e-05 -9.918769e-06 -1.267377e-05 -1.203885e-05 -1.499777e-05 -1.524782e-05 -1.280251e-05 -1.278888e-05 -9.538389e-06 -8.502371e-06 
1.487038e-03 3.091572e-04 -6.707611e-04 -2.720922e-03 -9.117153e-03 -1.176719e-02 -9.588048e-04 -3.927118e-03 -1.748821e-02 -4.447178e-02 -8.095879e-02 6.185545e-02 9.779509e-01 8.799819e-01 4.471827e-01 4.462581e-01 4.462564e-01 4.462563e-01 4.462568e-01 4.466215e-01 7.665358e-01 8.577212e-01 2.490891e-01 4.787465e-02 2.296128e-02 1.767209e-02 1.028871e-02 4.880123e-03 1.670158e-03 -7.200836e-05 -8.602643e-04 -1.350714e-03 -1.399586e-03 -1.570956e-03 -1.451873e-03 -1.611858e-03 -1.517813e-03 -1.760106e-03 -1.763709e-03 -2.124065e-03 -2.273365e-03 -2.780071e-03 -3.113222e-03 -3.768846e-03 -4.256592e-03 -4.936831e-03 -5.330395e-03 -5.586593e-03 -5.195570e-03 -4.075464e-03 -1.779823e-03 1.877377e-03 8.058219e-03 2.020636e-02 3.424489e-02 -4.079919e-02 -3.133646e-01 -3.895567e-01 -1.091171e-01 -8.239553e-02 4.437977e-02 5.255202e-01 4.019572e-01 -3.540540e-02 -1.399561e-01 -2.310303e-01 -2.531043e-01 -2.662574e-01 1.568446e-02 6.886732e-01 8.459979e-01 5.788265e-01 3.387953e-01 1.576871e-01 8.636607e-02 5.296028e-02 3.157951e-02 1.688489e-02 7.263621e-03 1.363227e-03 -2.033923e-03 -3.841196e-03 -4.592899e-03 -4.782631e-03 -4.550064e-03 -4.216489e-03 -3.712528e-03 -3.306925e-03 -2.806910e-03 -2.488301e-03 -2.073434e-03 -1.875040e-03 -1.548879e-03 -1.456304e-03 -1.199401e-03 -1.185209e-03 -9.784408e-04 -1.014924e-03 -8.472003e-04 -9.093099e-04 -7.784471e-04 -8.434888e-04 -7.548503e-04 -8.021389e-04 -7.674497e-04 -7.801805e-04 -8.187218e-04 -7.909142e-04 -9.367277e-04 -8.899349e-04 -1.210864e-03 -1.226559e-03 -1.859683e-03 -2.124563e-03 -3.312516e-03 -4.127732e-03 -6.153252e-03 -7.688706e-03 -1.039977e-02 -1.198327e-02 -1.432763e-02 -1.109071e-02 -8.068253e-03 -7.480323e-03 -8.734031e-04 3.143290e-03 3.770980e-03 2.601649e-03 
9.085527e-04 -3.225696e-03 -1.056858e-02 -3.680496e-02 -7.681419e-02 2.799204e-02 1.810141e-01 1.054623e-01 7.115731e-02 1.098356e-02 -3.982389e-02 2.438621e-01 1.927785e+00 1.721510e+00 8.945568e-01 8.928362e-01 8.930356e-01 8.928435e-01 8.930072e-01 8.936973e-01 1.548912e+00 1.732823e+00 5.252375e-01 1.311625e-01 7.814512e-02 7.748470e-02 6.661016e-02 6.442125e-02 5.916897e-02 6.023169e-02 5.867326e-02 5.978663e-02 5.972421e-02 5.995065e-02 6.068885e-02 5.994719e-02 6.119614e-02 5.963932e-02 6.119812e-02 5.901069e-02 6.067429e-02 5.800769e-02 5.955479e-02 5.652272e-02 5.775227e-02 5.447957e-02 5.529967e-02 5.203054e-02 5.258186e-02 4.977826e-02 5.043305e-02 4.854770e-02 4.946197e-02 4.903644e-02 5.213885e-02 5.316988e-02 4.909060e-02 4.593478e-02 4.936597e-02 4.851181e-02 5.564636e-02 6.735364e-02 5.893519e-02 5.313449e-02 5.396308e-02 4.953667e-02 5.487487e-02 6.531513e-02 7.400482e-02 8.106940e-02 8.330433e-02 9.353951e-02 9.479240e-02 8.375971e-02 7.174834e-02 6.240208e-02 5.531201e-02 5.108999e-02 4.893169e-02 4.822445e-02 4.877537e-02 4.941091e-02 5.108102e-02 5.186886e-02 5.391060e-02 5.432097e-02 5.643908e-02 5.629839e-02 5.840375e-02 5.772804e-02 5.979818e-02 5.870541e-02 6.070890e-02 5.937442e-02 6.123493e-02 5.987181e-02 6.145427e-02 6.030747e-02 6.141686e-02 6.076128e-02 6.115396e-02 6.128241e-02 6.068996e-02 6.189172e-02 6.005096e-02 6.257976e-02 5.926673e-02 6.329273e-02 5.835275e-02 6.389589e-02 5.725047e-02 6.408319e-02 5.568349e-02 6.318911e-02 5.286611e-02 5.988870e-02 4.708692e-02 5.215369e-02 3.563700e-02 3.840083e-02 1.534275e-02 7.916369e-02 1.489362e-01 2.800742e-03 -2.309894e-02 -4.518568e-04 9.085075e-03 5.222513e-03 
1.478688e-04 -1.045351e-02 -5.748253e-02 -1.668017e-01 -2.134656e-03 1.780663e+00 2.294856e+00 1.072702e+00 1.221362e+00 9.793003e-01 1.064832e+00 1.172100e+00 1.981387e+00 1.687940e+00 1.347654e+00 1.347050e+00 1.352034e+00 1.347343e+00 1.351306e+00 1.349210e+00 1.669557e+00 1.770826e+00 1.193612e+00 1.070036e+00 9.893118e-01 1.074119e+00 1.025146e+00 1.086943e+00 1.047016e+00 1.091426e+00 1.063171e+00 1.091613e+00 1.074882e+00 1.089599e+00 1.083526e+00 1.086887e+00 1.089972e+00 1.084298e+00 1.094822e+00 1.082354e+00 1.098552e+00 1.081320e+00 1.101381e+00 1.081125e+00 1.103306e+00 1.081521e+00 1.104181e+00 1.082091e+00 1.103625e+00 1.082197e+00 1.101024e+00 1.080802e+00 1.095103e+00 1.075898e+00 1.083963e+00 1.065778e+00 1.066377e+00 1.045970e+00 1.045844e+00 1.034549e+00 1.032587e+00 1.034312e+00 1.030935e+00 1.019865e+00 1.007623e+00 1.004599e+00 1.002193e+00 1.000931e+00 1.003848e+00 1.021319e+00 1.030302e+00 1.031178e+00 1.029691e+00 1.027450e+00 1.025831e+00 1.027037e+00 1.030789e+00 1.033760e+00 1.040879e+00 1.042908e+00 1.051985e+00 1.051505e+00 1.061977e+00 1.058396e+00 1.070026e+00 1.063406e+00 1.075945e+00 1.066887e+00 1.079848e+00 1.069418e+00 1.081951e+00 1.071669e+00 1.082518e+00 1.074167e+00 1.081627e+00 1.077143e+00 1.079316e+00 1.080879e+00 1.075773e+00 1.085640e+00 1.071129e+00 1.091372e+00 1.065455e+00 1.097793e+00 1.058975e+00 1.104571e+00 1.052225e+00 1.111302e+00 1.046013e+00 1.117464e+00 1.041309e+00 1.122308e+00 1.038934e+00 1.124773e+00 1.039198e+00 1.123698e+00 1.040468e+00 1.117497e+00 1.033572e+00 1.106355e+00 9.620899e-01 1.523241e+00 2.493263e+00 8.528349e-01 -1.738153e-02 -7.955757e-02 -1.090663e-02 4.163881e-03 
-7.630218e-03 -4.697011e-02 -1.515272e-01 5.263080e-02 2.793939e+00 5.654633e+00 3.911158e+00 2.645222e+00 2.611255e+00 2.476108e+00 2.479285e+00 2.354801e+00 2.557612e+00 2.404385e+00 2.395275e+00 2.419858e+00 2.428545e+00 2.453695e+00 2.395901e+00 2.435800e+00 2.463084e+00 2.467100e+00 2.240788e+00 2.440104e+00 2.404150e+00 2.581089e+00 2.544779e+00 2.644490e+00 2.626098e+00 2.665033e+00 2.674379e+00 2.667300e+00 2.705746e+00 2.666817e+00 2.728746e+00 2.668655e+00 2.744541e+00 2.673046e+00 2.754613e+00 2.681752e+00 2.762617e+00 2.696348e+00 2.770489e+00 2.715822e+00 2.779088e+00 2.739950e+00 2.790628e+00 2.769077e+00 2.806620e+00 2.803319e+00 2.828511e+00 2.842040e+00 2.854145e+00 2.879529e+00 2.876568e+00 2.907376e+00 2.885052e+00 2.906614e+00 2.860027e+00 2.872627e+00 2.820229e+00 2.831019e+00 2.780836e+00 2.779426e+00 2.722002e+00 2.717432e+00 2.671264e+00 2.645026e+00 2.612304e+00 2.589716e+00 2.583072e+00 2.547544e+00 2.566294e+00 2.542418e+00 2.590332e+00 2.565676e+00 2.630904e+00 2.596169e+00 2.667817e+00 2.622859e+00 2.695335e+00 2.645875e+00 2.714348e+00 2.667254e+00 2.725156e+00 2.687080e+00 2.727574e+00 2.705513e+00 2.722578e+00 2.722915e+00 2.712442e+00 2.740945e+00 2.701165e+00 2.759706e+00 2.689156e+00 2.775119e+00 2.676582e+00 2.786588e+00 2.668044e+00 2.795561e+00 2.666246e+00 2.800149e+00 2.670128e+00 2.797164e+00 2.678267e+00 2.786075e+00 2.691307e+00 2.769363e+00 2.710499e+00 2.751006e+00 2.736391e+00 2.733983e+00 2.765329e+00 2.718425e+00 2.793426e+00 2.709511e+00 2.822963e+00 2.716563e+00 2.856454e+00 2.747763e+00 2.866864e+00 3.252438e+00 5.415930e+00 4.636049e+00 1.161811e+00 -2.102562e-01 -1.032832e-01 -1.071251e-02 
-8.370599e-03 -4.954444e-02 -9.917593e-02 5.330752e-01 4.314075e+00 3.855476e+00 1.284540e-01 1.709463e+00 1.043065e+00 1.371775e+00 1.020602e+00 8.150098e-01 7.760940e-02 8.029190e-02 4.754700e-01 1.930489e-01 3.006161e-01 1.494474e-01 3.411893e-01 3.550457e-01 9.188578e-02 3.068349e-01 8.390399e-01 1.114907e+00 1.223206e+00 1.265148e+00 1.337718e+00 1.320428e+00 1.404323e+00 1.340766e+00 1.440678e+00 1.346691e+00 1.462084e+00 1.353652e+00 1.476910e+00 1.365154e+00 1.484740e+00 1.379461e+00 1.486550e+00 1.397967e+00 1.486904e+00 1.422259e+00 1.488156e+00 1.450593e+00 1.491404e+00 1.482861e+00 1.500261e+00 1.520497e+00 1.518186e+00 1.565719e+00 1.549808e+00 1.621291e+00 1.596207e+00 1.684553e+00 1.652754e+00 1.749419e+00 1.708877e+00 1.796180e+00 1.715880e+00 1.764640e+00 1.681248e+00 1.692055e+00 1.617859e+00 1.647945e+00 1.585792e+00 1.585889e+00 1.516153e+00 1.480047e+00 1.416124e+00 1.334098e+00 1.304336e+00 1.257309e+00 1.294835e+00 1.263752e+00 1.342419e+00 1.300635e+00 1.396859e+00 1.337328e+00 1.439007e+00 1.366585e+00 1.466341e+00 1.392240e+00 1.482414e+00 1.418257e+00 1.488359e+00 1.444536e+00 1.484048e+00 1.470535e+00 1.470963e+00 1.495764e+00 1.452572e+00 1.521560e+00 1.434924e+00 1.547109e+00 1.418888e+00 1.565698e+00 1.404996e+00 1.575784e+00 1.400253e+00 1.578956e+00 1.408804e+00 1.572334e+00 1.429001e+00 1.551572e+00 1.458223e+00 1.516634e+00 1.496208e+00 1.472401e+00 1.542848e+00 1.426388e+00 1.596291e+00 1.384933e+00 1.647933e+00 1.349989e+00 1.688670e+00 1.329477e+00 1.720124e+00 1.333522e+00 1.754974e+00 1.358616e+00 1.865356e+00 1.132959e+00 2.490309e+00 5.261186e+00 1.491557e+00 -3.316507e-01 -1.533095e-01 -2.340192e-02 
1.661274e-03 -1.957466e-02 -3.605080e-02 2.608522e-01 1.624290e+00 -6.473426e-01 -2.688598e+00 -4.122077e-01 -9.691303e-01 -6.114983e-01 -8.798821e-01 -4.298356e-01 2.126522e-01 -4.789417e-01 -1.280590e+00 -1.209493e+00 -1.048317e+00 -1.201452e+00 -1.060211e+00 -1.314641e+00 -3.593082e-01 -1.113973e-01 -4.411019e-01 -7.822685e-01 -7.096874e-01 -7.998431e-01 -7.017671e-01 -7.923789e-01 -7.016991e-01 -7.877460e-01 -7.043825e-01 -7.824981e-01 -7.082012e-01 -7.748918e-01 -7.121404e-01 -7.655116e-01 -7.171661e-01 -7.558939e-01 -7.233670e-01 -7.461230e-01 -7.294590e-01 -7.360407e-01 -7.348436e-01 -7.264501e-01 -7.392537e-01 -7.173646e-01 -7.413299e-01 -7.078933e-01 -7.393050e-01 -6.962304e-01 -7.302918e-01 -6.794398e-01 -7.116812e-01 -6.554068e-01 -6.821456e-01 -6.225865e-01 -6.416122e-01 -5.824678e-01 -6.176865e-01 -5.855008e-01 -6.189744e-01 -6.182813e-01 -6.459498e-01 -6.201603e-01 -6.340836e-01 -6.324731e-01 -6.605349e-01 -6.720748e-01 -7.032896e-01 -7.553971e-01 -7.754034e-01 -7.887981e-01 -7.712466e-01 -7.798367e-01 -7.470283e-01 -7.634285e-01 -7.267699e-01 -7.509078e-01 -7.133153e-01 -7.416193e-01 -7.057583e-01 -7.331506e-01 -7.022902e-01 -7.238498e-01 -7.023466e-01 -7.138225e-01 -7.058941e-01 -7.034927e-01 -7.122905e-01 -6.933633e-01 -7.201187e-01 -6.833646e-01 -7.270244e-01 -6.741763e-01 -7.324074e-01 -6.684766e-01 -7.357674e-01 -6.671744e-01 -7.343676e-01 -6.700791e-01 -7.265036e-01 -6.783609e-01 -7.126267e-01 -6.934911e-01 -6.937774e-01 -7.152154e-01 -6.705492e-01 -7.412815e-01 -6.439119e-01 -7.682439e-01 -6.158868e-01 -7.929030e-01 -5.913069e-01 -8.138207e-01 -5.757048e-01 -8.290141e-01 -5.715952e-01 -8.412206e-01 -5.783701e-01 -8.787815e-01 -5.609607e-01 -1.607562e+00 -1.823430e+00 1.380136e+00 5.533129e-01 -9.352497e-02 -3.641340e-02 1.812899e-03 
4.729927e-03 1.233747e-03 -1.244036e-03 3.789988e-02 1.197932e-01 -7.123364e-01 -1.141279e+00 -4.251027e-01 -5.296407e-01 -4.366095e-01 -5.154308e-01 -2.817845e-01 6.108296e-01 2.265243e+00 3.047503e+00 2.768685e+00 2.777067e+00 2.858776e+00 2.660910e+00 2.942239e+00 2.386287e+00 4.040767e-01 -3.163236e-01 -5.105413e-01 -4.709776e-01 -5.049621e-01 -4.736925e-01 -5.075373e-01 -4.820300e-01 -5.075047e-01 -4.875056e-01 -5.054802e-01 -4.916581e-01 -5.028923e-01 -4.951354e-01 -5.004009e-01 -4.981937e-01 -4.983385e-01 -5.009398e-01 -4.968845e-01 -5.034310e-01 -4.961501e-01 -5.057109e-01 -4.961823e-01 -5.077963e-01 -4.969343e-01 -5.096111e-01 -4.982015e-01 -5.109081e-01 -4.995712e-01 -5.113079e-01 -5.006198e-01 -5.108078e-01 -5.015975e-01 -5.093496e-01 -4.991735e-01 -5.001298e-01 -4.876374e-01 -4.896197e-01 -4.815481e-01 -4.804118e-01 -4.820545e-01 -4.854615e-01 -4.796260e-01 -4.773928e-01 -4.784550e-01 -4.775121e-01 -4.694729e-01 -4.633999e-01 -4.657358e-01 -4.675717e-01 -4.655924e-01 -4.669208e-01 -4.719676e-01 -4.741249e-01 -4.784036e-01 -4.797340e-01 -4.837256e-01 -4.844035e-01 -4.874724e-01 -4.877065e-01 -4.895950e-01 -4.898585e-01 -4.903736e-01 -4.912154e-01 -4.902390e-01 -4.921544e-01 -4.896187e-01 -4.929109e-01 -4.888452e-01 -4.935403e-01 -4.881577e-01 -4.939749e-01 -4.877453e-01 -4.940911e-01 -4.877763e-01 -4.937322e-01 -4.884172e-01 -4.927157e-01 -4.898275e-01 -4.908779e-01 -4.921138e-01 -4.881317e-01 -4.953113e-01 -4.845024e-01 -4.993574e-01 -4.801770e-01 -5.040656e-01 -4.755454e-01 -5.091410e-01 -4.712325e-01 -5.142555e-01 -4.681529e-01 -5.192605e-01 -4.675566e-01 -5.247335e-01 -4.710205e-01 -5.335132e-01 -4.797743e-01 -5.561897e-01 -4.897012e-01 -8.505452e-01 -1.102715e+00 -1.294109e-01 2.722544e-02 1.091272e-02 9.505101e-03 7.413637e-03 
