# vtk DataFile Version 2.0
Comment goes here
ASCII

DATASET STRUCTURED_POINTS
FIELD FieldData 1
TIME 1 1 double
0.47000000
DIMENSIONS    128   16   1

ORIGIN    0.000   0.000   0.000
SPACING   0.0078125 0.015625   1.000

POINT_DATA   2048
SCALARS Omega double
LOOKUP_TABLE default

8.178763e-07 -4.375626e-06 -6.157622e-06 -3.311000e-06 1.367038e-06 -1.000755e-05 -4.551854e-06 -2.077876e-05 -1.057940e-05 -1.479826e-05 -8.128755e-06 -5.232213e-07 -2.013484e-06 1.423005e-06 -6.135091e-05 7.286768e-06 -5.744898e-05 -4.031889e-05 -8.932657e-06 -6.631435e-05 4.203864e-05 5.987455e-05 -4.185313e-05 -4.848545e-05 -5.933997e-05 -4.204342e-05 -5.125746e-05 -3.612584e-05 -4.746196e-05 -3.943996e-05 -5.377635e-05 -5.211508e-05 -6.537704e-05 -6.637503e-05 -7.522268e-05 -7.262341e-05 -7.332014e-05 -5.381840e-05 -3.717653e-05 2.391414e-05 8.359668e-05 2.263470e-04 3.695065e-04 6.176000e-04 8.362871e-04 1.087203e-03 1.162450e-03 9.926103e-04 3.144155e-04 -1.080618e-03 -3.328578e-03 -6.511810e-03 -1.016968e-02 -1.495671e-02 -2.588449e-02 -5.320949e-02 -8.513364e-02 -9.971178e-02 -1.031951e-01 -1.028984e-01 -5.069685e-02 3.964999e-02 3.964824e-02 -4.219058e-02 -9.279940e-02 -1.055838e-01 -1.098792e-01 -9.951472e-02 -6.709885e-03 1.604005e-01 1.854285e-01 7.021310e-02 1.647818e-02 3.124892e-02 3.816638e-02 3.202337e-02 2.292532e-02 1.499153e-02 8.317148e-03 3.604407e-03 4.538186e-04 -1.117884e-03 -1.804151e-03 -1.815087e-03 -1.595345e-03 -1.260820e-03 -9.389302e-04 -6.919534e-04 -4.702775e-04 -3.515309e-04 -2.210080e-04 -1.802948e-04 -1.040098e-04 -9.944681e-05 -5.213183e-05 -6.032892e-05 -2.828816e-05 -3.875598e-05 -1.556052e-05 -2.525199e-05 -8.195025e-06 -1.767713e-05 -4.884249e-06 -1.538034e-05 -4.007999e-06 -1.566390e-05 -3.163046e-06 -1.539431e-05 -1.433526e-06 -1.352337e-05 -4.687326e-07 -1.213221e-05 -2.411899e-06 -1.106013e-05 -3.539194e-06 -4.083299e-06 3.331969e-06 1.277707e-05 1.781737e-05 3.377499e-05 3.763276e-05 6.368423e-05 3.440636e-05 1.331997e-05 2.127455e-05 2.704031e-05 1.910657e-05 8.772263e-06 
-5.501663e-03 -7.761466e-03 -1.572685e-02 3.881750e-03 1.713898e-01 -1.428137e-01 -1.215152e+00 -6.433244e-01 -4.561547e-01 -4.706872e-01 -4.726567e-01 -4.155267e-01 6.145551e-01 2.427968e+00 3.218933e+00 2.767008e+00 3.028538e+00 2.964247e+00 2.860633e+00 3.219083e+00 2.536757e+00 3.698205e-01 -3.930746e-01 -4.760251e-01 -4.281704e-01 -4.497975e-01 -4.337836e-01 -4.558231e-01 -4.450128e-01 -4.574030e-01 -4.527123e-01 -4.564751e-01 -4.582546e-01 -4.543984e-01 -4.621833e-01 -4.520427e-01 -4.649202e-01 -4.499697e-01 -4.665052e-01 -4.483629e-01 -4.667206e-01 -4.472079e-01 -4.653309e-01 -4.463166e-01 -4.623019e-01 -4.453896e-01 -4.576720e-01 -4.440594e-01 -4.515639e-01 -4.418765e-01 -4.435900e-01 -4.365376e-01 -4.308081e-01 -4.360097e-01 -4.769139e-01 -4.958910e-01 -2.358384e-02 3.345022e-01 -5.318707e-02 -3.267299e-03 -8.798596e-02 -1.173072e+00 -1.113384e+00 -2.474644e-01 -8.798852e-03 -1.748568e-01 -3.488726e-01 -1.000067e-01 -2.760513e-01 -1.158759e+00 -1.430680e+00 -1.152235e+00 -9.180334e-01 -6.423606e-01 -4.776040e-01 -4.430115e-01 -4.520805e-01 -4.525822e-01 -4.611890e-01 -4.590552e-01 -4.647967e-01 -4.607174e-01 -4.649591e-01 -4.600088e-01 -4.638128e-01 -4.587416e-01 -4.626846e-01 -4.575682e-01 -4.621454e-01 -4.564833e-01 -4.621606e-01 -4.553089e-01 -4.625715e-01 -4.540937e-01 -4.630864e-01 -4.529193e-01 -4.633112e-01 -4.520078e-01 -4.630553e-01 -4.517697e-01 -4.621607e-01 -4.525026e-01 -4.602923e-01 -4.542959e-01 -4.571048e-01 -4.573960e-01 -4.526780e-01 -4.619504e-01 -4.471497e-01 -4.678230e-01 -4.408179e-01 -4.746704e-01 -4.340692e-01 -4.817676e-01 -4.270417e-01 -4.881095e-01 -4.191132e-01 -4.929974e-01 -4.057827e-01 -4.956262e-01 -3.492154e-01 -7.580230e-01 -9.834937e-01 -1.162092e-01 -3.488299e-02 -2.697305e-02 -1.112436e-02 -6.549918e-03 
-1.572694e-03 -1.852799e-02 -7.757129e-02 2.693199e-02 1.618175e+00 1.080529e+00 -3.011573e+00 -1.087611e+00 -8.364633e-01 -7.487562e-01 -7.895107e-01 -5.608160e-01 8.074791e-01 -4.745673e-01 -1.080570e+00 -1.182122e+00 -8.573019e-01 -1.216096e+00 -8.798156e-01 -1.316290e+00 -1.669401e-01 3.491144e-01 -5.438270e-01 -8.480309e-01 -7.228639e-01 -8.077735e-01 -6.986388e-01 -7.859672e-01 -6.999152e-01 -7.768441e-01 -7.148123e-01 -7.740043e-01 -7.313536e-01 -7.633148e-01 -7.359911e-01 -7.407290e-01 -7.342628e-01 -7.234070e-01 -7.440311e-01 -7.241424e-01 -7.621578e-01 -7.267994e-01 -7.637001e-01 -7.135356e-01 -7.482520e-01 -7.019303e-01 -7.410986e-01 -7.079949e-01 -7.433744e-01 -7.170573e-01 -7.362872e-01 -7.104929e-01 -7.130010e-01 -7.102474e-01 -7.679051e-01 -6.541612e-01 4.615916e-01 1.035112e+00 -1.204830e-01 -1.140584e-01 3.172771e-02 -1.205869e+00 -1.124488e+00 -2.871573e-01 3.414149e-03 -2.539450e-01 -4.997714e-01 -5.163962e-02 -5.363236e-01 -1.749545e+00 -2.257406e+00 -2.176911e+00 -1.467957e+00 -7.990593e-01 -6.566643e-01 -6.662176e-01 -6.973218e-01 -7.082339e-01 -7.085197e-01 -7.159939e-01 -7.017707e-01 -7.165841e-01 -6.997677e-01 -7.231545e-01 -7.053096e-01 -7.279181e-01 -7.085523e-01 -7.230903e-01 -7.085291e-01 -7.112311e-01 -7.106187e-01 -6.995820e-01 -7.210116e-01 -6.916478e-01 -7.334220e-01 -6.802017e-01 -7.415747e-01 -6.703900e-01 -7.504683e-01 -6.666487e-01 -7.537221e-01 -6.634337e-01 -7.463863e-01 -6.651502e-01 -7.335603e-01 -6.787075e-01 -7.170381e-01 -7.015386e-01 -6.907770e-01 -7.273859e-01 -6.566714e-01 -7.609237e-01 -6.239257e-01 -8.008608e-01 -5.909090e-01 -8.388919e-01 -5.541991e-01 -8.721386e-01 -4.976303e-01 -9.150945e-01 -3.282242e-01 -1.781570e+00 -1.344741e+00 1.426854e+00 -4.474016e-02 -2.030677e-01 -4.394434e-02 -2.230203e-03 
9.495923e-03 -3.254445e-02 -1.871096e-01 -5.735239e-02 3.672765e+00 4.950949e+00 1.395345e-01 1.493116e+00 1.076818e+00 1.312638e+00 1.005493e+00 8.080270e-01 -3.085117e-01 -9.325732e-02 2.830640e-01 2.859286e-02 8.918202e-02 -1.076323e-02 1.461322e-01 1.603277e-01 -5.015664e-02 -1.209683e-01 8.733266e-01 9.919067e-01 1.219139e+00 1.149493e+00 1.338595e+00 1.235354e+00 1.398841e+00 1.264942e+00 1.402857e+00 1.262359e+00 1.389718e+00 1.276212e+00 1.401752e+00 1.323754e+00 1.425088e+00 1.358183e+00 1.407120e+00 1.343060e+00 1.355349e+00 1.325840e+00 1.341477e+00 1.357762e+00 1.366241e+00 1.384119e+00 1.353473e+00 1.351628e+00 1.295414e+00 1.293613e+00 1.237689e+00 1.244617e+00 1.182773e+00 1.185567e+00 1.121955e+00 1.065327e+00 4.687479e-01 1.236276e-01 5.333686e-01 5.756556e-01 7.014588e-01 1.772074e+00 1.720924e+00 1.010857e+00 7.324568e-01 9.456397e-01 1.092778e+00 9.653586e-01 1.377784e+00 2.508997e+00 2.954196e+00 2.683856e+00 2.264605e+00 1.829962e+00 1.634031e+00 1.550455e+00 1.524060e+00 1.466846e+00 1.499904e+00 1.442536e+00 1.512719e+00 1.432391e+00 1.511327e+00 1.405741e+00 1.489345e+00 1.385959e+00 1.475660e+00 1.394884e+00 1.474297e+00 1.423967e+00 1.469136e+00 1.451060e+00 1.441369e+00 1.466717e+00 1.407751e+00 1.493046e+00 1.384118e+00 1.516628e+00 1.354605e+00 1.527352e+00 1.337026e+00 1.543469e+00 1.343662e+00 1.552360e+00 1.357211e+00 1.535301e+00 1.373374e+00 1.500802e+00 1.411335e+00 1.466268e+00 1.468210e+00 1.415778e+00 1.520571e+00 1.348925e+00 1.575868e+00 1.285139e+00 1.642157e+00 1.230088e+00 1.737443e+00 1.155031e+00 1.926827e+00 5.651699e-01 3.623862e+00 5.354732e+00 3.054513e-02 -5.020513e-01 -8.769066e-02 1.362314e-02 
8.265671e-03 -5.304407e-03 -1.014290e-01 -1.165572e-01 2.053919e+00 4.349337e+00 4.194015e+00 3.127962e+00 2.312956e+00 2.466006e+00 2.168748e+00 2.222958e+00 2.390757e+00 2.345825e+00 2.157241e+00 2.314597e+00 2.216262e+00 2.327837e+00 2.214269e+00 2.274038e+00 2.304078e+00 2.345401e+00 2.214940e+00 2.264000e+00 2.368468e+00 2.414248e+00 2.496491e+00 2.486384e+00 2.564228e+00 2.506301e+00 2.586238e+00 2.498770e+00 2.591369e+00 2.500194e+00 2.609824e+00 2.524636e+00 2.633025e+00 2.541192e+00 2.624555e+00 2.525088e+00 2.588823e+00 2.509043e+00 2.574625e+00 2.527902e+00 2.582285e+00 2.542480e+00 2.558209e+00 2.513005e+00 2.494794e+00 2.458118e+00 2.419779e+00 2.394506e+00 2.325468e+00 2.286058e+00 2.130372e+00 1.980544e+00 1.676380e+00 1.664943e+00 2.012107e+00 2.206315e+00 1.974883e+00 1.706492e+00 1.735442e+00 2.340097e+00 2.477510e+00 2.555423e+00 2.610330e+00 2.751729e+00 2.699451e+00 2.232629e+00 2.165398e+00 2.589623e+00 2.697093e+00 2.723800e+00 2.738104e+00 2.684840e+00 2.687985e+00 2.634164e+00 2.672669e+00 2.615808e+00 2.679948e+00 2.605932e+00 2.678465e+00 2.585833e+00 2.663354e+00 2.570956e+00 2.653845e+00 2.575732e+00 2.653206e+00 2.593970e+00 2.650303e+00 2.610195e+00 2.632025e+00 2.618444e+00 2.609291e+00 2.634456e+00 2.591963e+00 2.649731e+00 2.568659e+00 2.658509e+00 2.551374e+00 2.674122e+00 2.547730e+00 2.687841e+00 2.544948e+00 2.687291e+00 2.540718e+00 2.678574e+00 2.549086e+00 2.673072e+00 2.569470e+00 2.658795e+00 2.587634e+00 2.633867e+00 2.610684e+00 2.610928e+00 2.646342e+00 2.598830e+00 2.706700e+00 2.608623e+00 2.788742e+00 3.240185e+00 6.263966e+00 4.097682e+00 -3.744179e-01 -5.035733e-01 -8.850790e-02 1.994061e-03 
-7.902710e-03 8.905488e-05 -1.209323e-02 -1.272605e-01 -2.385168e-01 6.964945e-01 2.382339e+00 1.171567e+00 8.474556e-01 8.940705e-01 8.446301e-01 1.091632e+00 2.134603e+00 1.693771e+00 1.314217e+00 1.319620e+00 1.320346e+00 1.317790e+00 1.322627e+00 1.316873e+00 1.797232e+00 1.932248e+00 9.259417e-01 8.525318e-01 8.658648e-01 9.284852e-01 9.156204e-01 9.438037e-01 9.334091e-01 9.441617e-01 9.435272e-01 9.399052e-01 9.500177e-01 9.350240e-01 9.551453e-01 9.313562e-01 9.590526e-01 9.281248e-01 9.599720e-01 9.242564e-01 9.575843e-01 9.210170e-01 9.535265e-01 9.194444e-01 9.474354e-01 9.166808e-01 9.359125e-01 9.088368e-01 9.169400e-01 8.944212e-01 8.909723e-01 8.742847e-01 8.584315e-01 8.257123e-01 7.293638e-01 9.648718e-01 2.624766e+00 3.293376e+00 1.474775e+00 1.360885e+00 1.835110e+00 7.175035e-01 6.871871e-01 1.338369e+00 1.421130e+00 1.093893e+00 7.991799e-01 1.227287e+00 9.649095e-01 3.048745e-02 -5.459990e-01 -7.214630e-01 -1.494517e-01 7.143997e-01 9.649535e-01 9.528652e-01 9.460627e-01 9.286954e-01 9.388240e-01 9.269696e-01 9.413450e-01 9.283680e-01 9.448669e-01 9.297525e-01 9.473033e-01 9.307535e-01 9.489072e-01 9.317549e-01 9.502928e-01 9.325984e-01 9.512016e-01 9.327215e-01 9.511518e-01 9.323083e-01 9.503996e-01 9.324050e-01 9.488998e-01 9.330967e-01 9.459930e-01 9.347885e-01 9.420972e-01 9.384306e-01 9.371345e-01 9.435988e-01 9.301654e-01 9.500257e-01 9.215165e-01 9.580712e-01 9.122792e-01 9.678594e-01 9.032364e-01 9.783875e-01 8.950262e-01 9.891087e-01 8.897913e-01 1.001478e+00 8.914964e-01 1.022315e+00 9.068229e-01 1.071866e+00 9.047573e-01 1.626428e+00 2.223023e+00 3.013186e-01 -3.041565e-01 -1.200819e-01 -1.989058e-02 -9.098626e-03 
-1.493636e-02 -8.154023e-03 -1.728681e-04 -9.034195e-03 -6.610646e-02 -8.429128e-02 8.371728e-02 2.109609e-02 -8.490635e-03 1.870766e-02 1.207397e-02 2.684297e-01 1.960478e+00 1.724467e+00 8.908501e-01 8.900500e-01 8.900780e-01 8.899772e-01 8.901727e-01 8.918302e-01 1.831459e+00 1.908425e+00 1.540637e-02 -1.305962e-01 -5.287960e-02 -1.367737e-02 -1.845528e-03 2.726575e-03 5.161233e-03 5.187946e-03 6.467648e-03 4.706377e-03 6.234791e-03 3.699959e-03 5.769976e-03 2.845616e-03 5.342287e-03 2.205743e-03 4.886958e-03 1.659954e-03 4.244487e-03 1.029433e-03 3.192513e-03 2.456150e-05 1.368216e-03 -1.859548e-03 -1.776773e-03 -5.145735e-03 -6.293871e-03 -8.830584e-03 -8.784443e-03 -5.134642e-03 4.835308e-03 1.924301e-02 3.117556e-02 2.090366e-01 1.021727e+00 1.358110e+00 4.522873e-01 1.761464e-01 5.145352e-01 2.594385e-01 8.795656e-02 2.363294e-01 3.040321e-01 3.082176e-01 2.397691e-01 2.206081e-01 3.492294e-01 3.043887e-01 2.782088e-01 4.864079e-01 3.145921e-01 4.645830e-02 3.930988e-02 3.954914e-02 2.091558e-02 5.970929e-03 -5.659444e-05 -3.872863e-03 -3.685982e-03 -4.309832e-03 -2.510820e-03 -2.462680e-03 -5.054128e-04 -5.694673e-04 1.158242e-03 8.047496e-04 2.330011e-03 1.667613e-03 3.122547e-03 2.150895e-03 3.666277e-03 2.396786e-03 4.042975e-03 2.510508e-03 4.282240e-03 2.576618e-03 4.402156e-03 2.676088e-03 4.401746e-03 2.864977e-03 4.250356e-03 3.176673e-03 3.918401e-03 3.661293e-03 3.421528e-03 4.360089e-03 2.790135e-03 5.305032e-03 2.129298e-03 6.616770e-03 1.766787e-03 8.725235e-03 2.576434e-03 1.287394e-02 6.525801e-03 2.177539e-02 1.638789e-02 3.672626e-02 2.066165e-02 6.965720e-02 7.512045e-02 -6.495696e-02 -5.889053e-02 -2.352446e-02 -1.712369e-02 -1.716329e-02 
-1.026420e-02 -8.567618e-03 -5.990482e-03 -4.044574e-03 -7.565367e-03 -1.756752e-02 -1.297647e-02 -8.083803e-03 3.485513e-04 1.180784e-02 1.168386e-02 1.268194e-01 9.737785e-01 8.513891e-01 4.458173e-01 4.453465e-01 4.453458e-01 4.453459e-01 4.453480e-01 4.463548e-01 9.251008e-01 9.610652e-01 -3.621246e-02 -1.034907e-01 -5.478037e-02 -3.177442e-02 -2.278825e-02 -1.882421e-02 -1.627032e-02 -1.515306e-02 -1.438647e-02 -1.432795e-02 -1.413620e-02 -1.436490e-02 -1.429986e-02 -1.456278e-02 -1.451058e-02 -1.475147e-02 -1.471187e-02 -1.494131e-02 -1.495112e-02 -1.521063e-02 -1.533803e-02 -1.571506e-02 -1.608197e-02 -1.670715e-02 -1.740511e-02 -1.818913e-02 -1.870470e-02 -1.829454e-02 -1.580675e-02 -9.091798e-03 3.335945e-03 1.710535e-02 2.451163e-02 1.616856e-01 9.047173e-01 1.209818e+00 3.011801e-01 1.933236e-01 4.659636e-01 -2.937300e-01 -4.134740e-01 3.821304e-01 6.104431e-01 3.028262e-01 2.669371e-01 5.946562e-01 3.873151e-01 -5.516145e-01 -9.041307e-01 -3.848367e-01 3.660141e-02 1.029015e-01 7.685796e-02 4.162715e-02 1.584032e-02 3.267323e-04 -8.333433e-03 -1.310602e-02 -1.552625e-02 -1.666982e-02 -1.701654e-02 -1.699956e-02 -1.675841e-02 -1.647190e-02 -1.615504e-02 -1.588506e-02 -1.562854e-02 -1.543833e-02 -1.525027e-02 -1.513701e-02 -1.499430e-02 -1.494341e-02 -1.482180e-02 -1.482110e-02 -1.470245e-02 -1.474321e-02 -1.461621e-02 -1.469132e-02 -1.455187e-02 -1.465403e-02 -1.450445e-02 -1.462260e-02 -1.446923e-02 -1.458634e-02 -1.443931e-02 -1.453256e-02 -1.440340e-02 -1.443719e-02 -1.432174e-02 -1.422103e-02 -1.405508e-02 -1.364580e-02 -1.322974e-02 -1.217266e-02 -1.116191e-02 -9.079011e-03 -7.390706e-03 -4.920528e-03 -5.292224e-03 -6.428664e-03 -9.998572e-03 -1.314858e-02 -1.025780e-02 -9.548638e-03 -1.082405e-02 -1.101190e-02 
-6.549732e-06 -3.150596e-06 -3.813084e-07 1.205117e-06 2.055249e-06 2.083299e-06 2.169840e-06 2.053485e-06 7.086387e-07 -1.198641e-06 -4.299999e-07 1.477366e-05 -1.715694e-04 -1.176996e-04 -1.105558e-07 1.148706e-09 3.709487e-10 8.216585e-10 -3.626988e-09 -1.780716e-06 -8.533469e-04 -9.058892e-04 1.986465e-04 4.215793e-05 -2.458533e-05 -2.684160e-05 -2.092753e-05 -1.841128e-05 -1.738200e-05 -1.953321e-05 -2.256462e-05 -2.833439e-05 -3.415449e-05 -4.291405e-05 -5.180247e-05 -6.495895e-05 -7.946000e-05 -1.010152e-04 -1.273079e-04 -1.665665e-04 -2.194475e-04 -2.997931e-04 -4.175227e-04 -5.971778e-04 -8.620308e-04 -1.233653e-03 -1.708316e-03 -2.200341e-03 -2.497620e-03 -2.109110e-03 -1.942716e-04 4.528277e-03 1.226778e-02 1.727791e-02 2.015930e-02 2.035801e-01 1.104884e+00 1.346024e+00 1.478814e-01 3.568152e-02 4.763912e-01 -6.174200e-02 -2.405665e-01 1.190278e-01 2.243299e-01 -8.485069e-02 -2.069900e-01 7.062433e-02 1.006083e-02 -2.610367e-01 -5.147532e-01 -7.530223e-01 -4.761260e-01 -4.690581e-02 5.850969e-02 4.249864e-02 2.395835e-02 1.329853e-02 7.094254e-03 3.315025e-03 1.044833e-03 -2.521149e-04 -9.149450e-04 -1.189128e-03 -1.231581e-03 -1.154077e-03 -1.020044e-03 -8.725096e-04 -7.286640e-04 -6.016776e-04 -4.908844e-04 -3.997357e-04 -3.229346e-04 -2.614751e-04 -2.101775e-04 -1.694415e-04 -1.355451e-04 -1.085103e-04 -8.618907e-05 -6.821137e-05 -5.389952e-05 -4.243470e-05 -3.403339e-05 -2.724369e-05 -2.254455e-05 -1.828642e-05 -1.525459e-05 -1.218717e-05 -1.010017e-05 -8.016395e-06 -6.791989e-06 -5.646967e-06 -5.225371e-06 -5.069923e-06 -5.717092e-06 -6.937460e-06 -9.206175e-06 -1.230316e-05 -1.645604e-05 -2.092175e-05 -2.539482e-05 -2.879768e-05 -2.995615e-05 -2.914938e-05 -2.571370e-05 -2.125324e-05 -1.587168e-05 -1.108508e-05 
1.025079e-02 8.561311e-03 5.989896e-03 4.046989e-03 7.567202e-03 1.756901e-02 1.297850e-02 8.089391e-03 -3.483028e-04 -1.181034e-02 -1.168331e-02 -1.267907e-01 -9.740504e-01 -8.513180e-01 -4.458172e-01 -4.453465e-01 -4.453458e-01 -4.453459e-01 -4.453480e-01 -4.463605e-01 -9.278128e-01 -9.637331e-01 3.671347e-02 1.036328e-01 5.474091e-02 3.171125e-02 2.273159e-02 1.876464e-02 1.620873e-02 1.507776e-02 1.429868e-02 1.421601e-02 1.400216e-02 1.419590e-02 1.409672e-02 1.430868e-02 1.420252e-02 1.436447e-02 1.423457e-02 1.433269e-02 1.417988e-02 1.420036e-02 1.400485e-02 1.390258e-02 1.359591e-02 1.327662e-02 1.276015e-02 1.218083e-02 1.157399e-02 1.119959e-02 1.154885e-02 1.327660e-02 1.698305e-02 2.002907e-02 1.601372e-02 4.430943e-02 2.779848e-01 3.906870e-01 1.531900e-01 6.271083e-02 -2.814224e-02 -3.014117e-01 -2.960356e-01 -2.175757e-02 1.957046e-01 2.558699e-01 2.381199e-01 1.583685e-01 -9.336490e-02 -2.760469e-01 -2.217506e-01 -1.132772e-01 -2.492738e-02 3.000136e-02 4.362949e-02 3.540000e-02 2.717045e-02 2.170711e-02 1.810571e-02 1.573551e-02 1.421752e-02 1.335462e-02 1.293000e-02 1.282646e-02 1.288771e-02 1.306517e-02 1.325725e-02 1.347763e-02 1.365076e-02 1.383731e-02 1.395234e-02 1.409944e-02 1.415613e-02 1.427834e-02 1.428451e-02 1.439778e-02 1.436066e-02 1.447664e-02 1.440186e-02 1.452669e-02 1.441990e-02 1.455370e-02 1.442244e-02 1.455963e-02 1.441548e-02 1.454505e-02 1.440306e-02 1.450578e-02 1.437923e-02 1.441999e-02 1.430518e-02 1.420895e-02 1.404246e-02 1.363512e-02 1.321743e-02 1.215902e-02 1.114485e-02 9.056162e-03 7.362028e-03 4.882016e-03 5.246676e-03 6.370933e-03 9.945993e-03 1.309590e-02 1.020888e-02 9.507287e-03 1.079287e-02 1.098967e-02 
1.492609e-02 8.150248e-03 1.746397e-04 9.033048e-03 6.609675e-02 8.434102e-02 -8.375752e-02 -2.117404e-02 8.448217e-03 -1.878521e-02 -1.212096e-02 -2.684574e-01 -1.960810e+00 -1.724582e+00 -8.908434e-01 -8.900414e-01 -8.900720e-01 -8.899709e-01 -8.901653e-01 -8.918261e-01 -1.832497e+00 -1.909486e+00 -1.503738e-02 1.306004e-01 5.281020e-02 1.353106e-02 1.711506e-03 -2.922975e-03 -5.381278e-03 -5.472606e-03 -6.813706e-03 -5.124263e-03 -6.749088e-03 -4.307623e-03 -6.502643e-03 -3.726994e-03 -6.381773e-03 -3.504348e-03 -6.406394e-03 -3.604812e-03 -6.542202e-03 -3.990236e-03 -6.809364e-03 -4.706934e-03 -7.345840e-03 -5.931452e-03 -8.440462e-03 -7.969409e-03 -1.042692e-02 -1.095685e-02 -1.311503e-02 -1.403319e-02 -1.486166e-02 -1.514694e-02 -1.605565e-02 -2.159070e-02 -2.488561e-02 -2.920392e-02 -3.242332e-02 -3.411790e-02 -2.567449e-02 -1.085923e-02 -6.836884e-03 -2.203186e-02 -2.739220e-02 -2.837592e-02 -3.093453e-02 -3.600313e-02 -2.433548e-02 1.157754e-02 3.049666e-02 1.612687e-02 6.013737e-03 4.807429e-03 2.568342e-03 -8.978268e-04 -3.963903e-03 -6.032189e-03 -7.702005e-03 -8.349768e-03 -8.966109e-03 -8.568344e-03 -8.590989e-03 -7.623613e-03 -7.549621e-03 -6.370771e-03 -6.518855e-03 -5.262801e-03 -5.760605e-03 -4.411354e-03 -5.281293e-03 -3.784392e-03 -5.011030e-03 -3.337861e-03 -4.877040e-03 -3.039258e-03 -4.803760e-03 -2.868209e-03 -4.727296e-03 -2.831859e-03 -4.600821e-03 -2.954845e-03 -4.386121e-03 -3.262310e-03 -4.044820e-03 -3.762761e-03 -3.547842e-03 -4.464165e-03 -2.910879e-03 -5.397268e-03 -2.232572e-03 -6.678768e-03 -1.836036e-03 -8.746174e-03 -2.601944e-03 -1.284865e-02 -6.499978e-03 -2.170673e-02 -1.632891e-02 -3.664813e-02 -2.062214e-02 -6.962647e-02 -7.512896e-02 6.493569e-02 5.886118e-02 2.349638e-02 1.710296e-02 1.714695e-02 
7.904494e-03 -8.458158e-05 1.209511e-02 1.272314e-01 2.385508e-01 -6.953642e-01 -2.382743e+00 -1.173468e+00 -8.482478e-01 -8.957239e-01 -8.455309e-01 -1.093030e+00 -2.135141e+00 -1.692800e+00 -1.314078e+00 -1.319438e+00 -1.320222e+00 -1.317653e+00 -1.322458e+00 -1.316730e+00 -1.798157e+00 -1.931559e+00 -9.244974e-01 -8.524165e-01 -8.653904e-01 -9.282794e-01 -9.152501e-01 -9.438795e-01 -9.345370e-01 -9.460481e-01 -9.470963e-01 -9.438495e-01 -9.552573e-01 -9.398490e-01 -9.603150e-01 -9.361226e-01 -9.639243e-01 -9.343447e-01 -9.670840e-01 -9.348555e-01 -9.694932e-01 -9.368097e-01 -9.706412e-01 -9.400526e-01 -9.714288e-01 -9.455017e-01 -9.731657e-01 -9.535888e-01 -9.767882e-01 -9.650834e-01 -9.839947e-01 -9.807039e-01 -9.947433e-01 -9.981388e-01 -1.005912e+00 -1.013878e+00 -1.014529e+00 -1.021617e+00 -1.009368e+00 -1.014727e+00 -9.980979e-01 -1.003889e+00 -9.882911e-01 -9.963429e-01 -9.865883e-01 -9.922377e-01 -9.807863e-01 -9.805522e-01 -9.644484e-01 -9.638698e-01 -9.567887e-01 -9.614859e-01 -9.584009e-01 -9.576704e-01 -9.548962e-01 -9.534145e-01 -9.533602e-01 -9.503954e-01 -9.521951e-01 -9.475942e-01 -9.514717e-01 -9.450814e-01 -9.510324e-01 -9.422674e-01 -9.502205e-01 -9.387836e-01 -9.492863e-01 -9.355202e-01 -9.490263e-01 -9.329252e-01 -9.490528e-01 -9.309485e-01 -9.492440e-01 -9.300912e-01 -9.491617e-01 -9.299297e-01 -9.477417e-01 -9.305162e-01 -9.451932e-01 -9.328595e-01 -9.418467e-01 -9.374338e-01 -9.375655e-01 -9.439960e-01 -9.315207e-01 -9.515198e-01 -9.232112e-01 -9.597053e-01 -9.135841e-01 -9.690334e-01 -9.042558e-01 -9.795246e-01 -8.962586e-01 -9.900067e-01 -8.903814e-01 -1.001121e+00 -8.908249e-01 -1.020590e+00 -9.051751e-01 -1.069345e+00 -9.031897e-01 -1.624247e+00 -2.223195e+00 -3.015550e-01 3.041304e-01 1.200501e-01 1.990184e-02 9.105381e-03 
-8.246122e-03 5.312539e-03 1.014057e-01 1.163614e-01 -2.053970e+00 -4.347759e+00 -4.194108e+00 -3.129872e+00 -2.312685e+00 -2.467519e+00 -2.169621e+00 -2.225057e+00 -2.391600e+00 -2.346436e+00 -2.157808e+00 -2.315104e+00 -2.216549e+00 -2.328026e+00 -2.213654e+00 -2.273825e+00 -2.300134e+00 -2.346258e+00 -2.222590e+00 -2.272424e+00 -2.369736e+00 -2.404484e+00 -2.480320e+00 -2.469116e+00 -2.558051e+00 -2.511923e+00 -2.609754e+00 -2.530416e+00 -2.628726e+00 -2.528582e+00 -2.625861e+00 -2.523980e+00 -2.622246e+00 -2.533547e+00 -2.629533e+00 -2.558069e+00 -2.640937e+00 -2.581274e+00 -2.642062e+00 -2.594668e+00 -2.637998e+00 -2.610010e+00 -2.640283e+00 -2.629254e+00 -2.648688e+00 -2.659696e+00 -2.680415e+00 -2.715154e+00 -2.730810e+00 -2.768400e+00 -2.761169e+00 -2.789781e+00 -2.762297e+00 -2.787814e+00 -2.742492e+00 -2.769845e+00 -2.732812e+00 -2.759593e+00 -2.718746e+00 -2.736390e+00 -2.690028e+00 -2.693352e+00 -2.638337e+00 -2.630625e+00 -2.583073e+00 -2.585048e+00 -2.570778e+00 -2.578184e+00 -2.584904e+00 -2.585715e+00 -2.602844e+00 -2.583883e+00 -2.604486e+00 -2.563691e+00 -2.596681e+00 -2.549940e+00 -2.607112e+00 -2.560428e+00 -2.632257e+00 -2.576371e+00 -2.644958e+00 -2.577689e+00 -2.638917e+00 -2.575480e+00 -2.630524e+00 -2.580258e+00 -2.620606e+00 -2.591515e+00 -2.613871e+00 -2.612904e+00 -2.605625e+00 -2.628142e+00 -2.583138e+00 -2.635349e+00 -2.561136e+00 -2.649410e+00 -2.551547e+00 -2.671866e+00 -2.554442e+00 -2.693088e+00 -2.555898e+00 -2.694578e+00 -2.546936e+00 -2.677167e+00 -2.541355e+00 -2.661179e+00 -2.559828e+00 -2.658580e+00 -2.595725e+00 -2.647052e+00 -2.621184e+00 -2.618432e+00 -2.649494e+00 -2.598364e+00 -2.701016e+00 -2.598510e+00 -2.779791e+00 -3.234308e+00 -6.265459e+00 -4.097618e+00 3.744711e-01 5.030609e-01 8.847961e-02 -1.951860e-03 
-9.474807e-03 3.254820e-02 1.870841e-01 5.712252e-02 -3.673046e+00 -4.951582e+00 -1.386364e-01 -1.490917e+00 -1.074232e+00 -1.310526e+00 -1.004393e+00 -8.074801e-01 3.093896e-01 9.146644e-02 -2.851127e-01 -2.963728e-02 -8.999323e-02 1.236541e-02 -1.430477e-01 -1.585187e-01 5.130771e-02 1.127743e-01 -8.887014e-01 -1.005565e+00 -1.222641e+00 -1.135047e+00 -1.314506e+00 -1.208409e+00 -1.386467e+00 -1.269114e+00 -1.430626e+00 -1.301981e+00 -1.434966e+00 -1.308692e+00 -1.414193e+00 -1.311382e+00 -1.396930e+00 -1.331780e+00 -1.398629e+00 -1.369884e+00 -1.409364e+00 -1.402262e+00 -1.407952e+00 -1.415982e+00 -1.400030e+00 -1.427176e+00 -1.400509e+00 -1.438311e+00 -1.407113e+00 -1.459410e+00 -1.442584e+00 -1.510223e+00 -1.498967e+00 -1.552864e+00 -1.522263e+00 -1.550424e+00 -1.508914e+00 -1.534815e+00 -1.496646e+00 -1.527209e+00 -1.509555e+00 -1.530891e+00 -1.506413e+00 -1.519716e+00 -1.475180e+00 -1.468686e+00 -1.411182e+00 -1.401165e+00 -1.362184e+00 -1.359174e+00 -1.348842e+00 -1.351457e+00 -1.368862e+00 -1.373293e+00 -1.406776e+00 -1.382962e+00 -1.415434e+00 -1.359341e+00 -1.405971e+00 -1.342341e+00 -1.421387e+00 -1.360478e+00 -1.457853e+00 -1.387579e+00 -1.476034e+00 -1.394464e+00 -1.466055e+00 -1.396530e+00 -1.451394e+00 -1.408960e+00 -1.434122e+00 -1.430924e+00 -1.421704e+00 -1.466608e+00 -1.407754e+00 -1.491376e+00 -1.375001e+00 -1.501895e+00 -1.345936e+00 -1.518683e+00 -1.338524e+00 -1.542801e+00 -1.353384e+00 -1.559643e+00 -1.370992e+00 -1.542761e+00 -1.378698e+00 -1.494146e+00 -1.395754e+00 -1.444392e+00 -1.450441e+00 -1.412371e+00 -1.530067e+00 -1.367184e+00 -1.590827e+00 -1.297849e+00 -1.648933e+00 -1.233980e+00 -1.732926e+00 -1.145965e+00 -1.917004e+00 -5.621967e-01 -3.625574e+00 -5.353926e+00 -3.044683e-02 5.013297e-01 8.763437e-02 -1.357316e-02 
1.579984e-03 1.852564e-02 7.757155e-02 -2.696974e-02 -1.618352e+00 -1.082206e+00 3.012335e+00 1.090778e+00 8.384428e-01 7.516167e-01 7.911164e-01 5.628588e-01 -8.077664e-01 4.759513e-01 1.080978e+00 1.181343e+00 8.584289e-01 1.215594e+00 8.799423e-01 1.316937e+00 1.623343e-01 -3.540888e-01 5.369918e-01 8.426766e-01 7.207983e-01 8.128522e-01 7.071669e-01 7.961327e-01 7.058372e-01 7.774462e-01 7.085108e-01 7.636698e-01 7.203863e-01 7.566216e-01 7.371515e-01 7.506834e-01 7.501049e-01 7.400604e-01 7.547473e-01 7.254849e-01 7.545503e-01 7.149725e-01 7.569429e-01 7.133223e-01 7.609469e-01 7.155137e-01 7.624178e-01 7.207976e-01 7.630378e-01 7.257863e-01 7.559468e-01 7.235336e-01 7.443169e-01 7.261179e-01 7.459360e-01 7.436971e-01 7.578177e-01 7.558472e-01 7.540187e-01 7.490653e-01 7.361928e-01 7.391881e-01 7.301068e-01 7.328635e-01 7.360126e-01 7.432314e-01 7.505580e-01 7.513002e-01 7.489176e-01 7.507840e-01 7.502516e-01 7.527568e-01 7.439747e-01 7.391349e-01 7.237642e-01 7.283898e-01 7.163089e-01 7.332796e-01 7.183512e-01 7.387782e-01 7.139044e-01 7.333097e-01 7.028998e-01 7.243110e-01 6.980393e-01 7.211950e-01 7.029050e-01 7.189571e-01 7.097738e-01 7.124941e-01 7.176591e-01 7.021935e-01 7.238290e-01 6.872920e-01 7.303678e-01 6.768274e-01 7.425956e-01 6.723235e-01 7.521688e-01 6.673858e-01 7.524891e-01 6.623843e-01 7.429839e-01 6.628405e-01 7.298647e-01 6.777549e-01 7.170808e-01 7.061623e-01 6.982798e-01 7.371641e-01 6.645903e-01 7.636159e-01 6.217765e-01 7.950754e-01 5.859388e-01 8.336736e-01 5.507935e-01 8.685513e-01 4.973170e-01 9.154014e-01 3.300714e-01 1.779939e+00 1.344683e+00 -1.426381e+00 4.449819e-02 2.027724e-01 4.395230e-02 2.260708e-03 
5.501763e-03 7.753259e-03 1.572161e-02 -3.870949e-03 -1.714220e-01 1.422313e-01 1.215329e+00 6.442226e-01 4.565643e-01 4.714951e-01 4.731317e-01 4.162632e-01 -6.147363e-01 -2.426843e+00 -3.218865e+00 -2.767193e+00 -3.027697e+00 -2.965264e+00 -2.860303e+00 -3.218988e+00 -2.538932e+00 -3.702825e-01 3.924823e-01 4.757028e-01 4.277513e-01 4.498120e-01 4.338387e-01 4.561609e-01 4.455941e-01 4.581149e-01 4.538219e-01 4.575871e-01 4.598304e-01 4.559451e-01 4.641085e-01 4.541027e-01 4.671670e-01 4.527735e-01 4.693698e-01 4.523077e-01 4.708328e-01 4.528056e-01 4.717497e-01 4.545005e-01 4.725584e-01 4.575558e-01 4.735231e-01 4.616976e-01 4.744797e-01 4.661046e-01 4.747627e-01 4.696063e-01 4.737829e-01 4.717702e-01 4.719386e-01 4.717541e-01 4.662038e-01 4.672370e-01 4.609921e-01 4.659535e-01 4.655308e-01 4.826983e-01 4.767729e-01 4.750609e-01 4.678217e-01 4.722245e-01 4.695825e-01 4.725673e-01 4.781616e-01 4.975633e-01 5.003860e-01 4.941626e-01 4.886700e-01 4.854423e-01 4.803608e-01 4.737474e-01 4.684498e-01 4.628672e-01 4.597941e-01 4.566251e-01 4.560289e-01 4.547298e-01 4.556690e-01 4.548262e-01 4.565541e-01 4.551025e-01 4.576650e-01 4.549728e-01 4.588010e-01 4.543514e-01 4.598718e-01 4.533214e-01 4.608610e-01 4.521915e-01 4.617780e-01 4.512669e-01 4.624254e-01 4.507378e-01 4.625229e-01 4.508662e-01 4.618503e-01 4.519736e-01 4.602318e-01 4.543266e-01 4.574697e-01 4.579759e-01 4.533840e-01 4.628340e-01 4.479991e-01 4.687041e-01 4.415439e-01 4.752415e-01 4.344807e-01 4.819106e-01 4.270799e-01 4.877566e-01 4.186918e-01 4.921373e-01 4.050810e-01 4.945796e-01 3.486721e-01 7.571001e-01 9.837793e-01 1.162921e-01 3.477896e-02 2.698245e-02 1.116035e-02 6.567208e-03 
