# vtk DataFile Version 2.0
Comment goes here
ASCII

DATASET STRUCTURED_POINTS
FIELD FieldData 1
TIME 1 1 double
0.55000000
DIMENSIONS    128   16   1

ORIGIN    0.000   0.000   0.000
SPACING   0.0078125 0.015625   1.000

POINT_DATA   2048
SCALARS P double
LOOKUP_TABLE default

1.039029e+00 1.021993e+00 1.041249e+00 1.030120e+00 1.040053e+00 1.038312e+00 1.035066e+00 1.052346e+00 1.032688e+00 1.058476e+00 1.027800e+00 1.055373e+00 1.013810e+00 1.034397e+00 9.761322e-01 9.874856e-01 9.282267e-01 9.328009e-01 8.776619e-01 8.811967e-01 8.334517e-01 8.411596e-01 8.146155e-01 8.255346e-01 8.108319e-01 8.202946e-01 8.133220e-01 8.198241e-01 8.185964e-01 8.218569e-01 8.250726e-01 8.252088e-01 8.316974e-01 8.289461e-01 8.376037e-01 8.324053e-01 8.424840e-01 8.357133e-01 8.469804e-01 8.397191e-01 8.519957e-01 8.448293e-01 8.574498e-01 8.502270e-01 8.623184e-01 8.547984e-01 8.660803e-01 8.585348e-01 8.694825e-01 8.623945e-01 8.735585e-01 8.669060e-01 8.782939e-01 8.713455e-01 8.824997e-01 8.742416e-01 8.846716e-01 8.741418e-01 8.835887e-01 8.728572e-01 8.840342e-01 8.749055e-01 8.893403e-01 8.803420e-01 8.935860e-01 8.828092e-01 8.959183e-01 8.852959e-01 8.984725e-01 8.899815e-01 9.044647e-01 8.977953e-01 9.134475e-01 9.059828e-01 9.205813e-01 9.120461e-01 9.262358e-01 9.164432e-01 9.307769e-01 9.196906e-01 9.350269e-01 9.227908e-01 9.399004e-01 9.264493e-01 9.455788e-01 9.305180e-01 9.513920e-01 9.342978e-01 9.564733e-01 9.373550e-01 9.605858e-01 9.401195e-01 9.643476e-01 9.435871e-01 9.684813e-01 9.482658e-01 9.728418e-01 9.535942e-01 9.765298e-01 9.587045e-01 9.790862e-01 9.635495e-01 9.811301e-01 9.687589e-01 9.835075e-01 9.744379e-01 9.862453e-01 9.797609e-01 9.889296e-01 9.840305e-01 9.918925e-01 9.875221e-01 9.961775e-01 9.906769e-01 1.002172e+00 9.930073e-01 1.009150e+00 9.937752e-01 1.016492e+00 9.935318e-01 1.024299e+00 9.943124e-01 1.032094e+00 9.999957e-01 1.033570e+00 1.005840e+00 1.035760e+00 1.013490e+00 
8.856857e-01 8.736888e-01 8.844638e-01 8.766444e-01 8.795972e-01 8.782056e-01 8.685765e-01 8.897288e-01 8.657233e-01 8.930644e-01 8.655947e-01 8.909917e-01 8.671448e-01 8.825480e-01 8.697964e-01 8.791584e-01 8.747471e-01 8.771098e-01 8.800085e-01 8.751890e-01 8.831857e-01 8.721494e-01 8.798385e-01 8.702335e-01 8.788871e-01 8.685198e-01 8.789485e-01 8.668864e-01 8.795566e-01 8.657121e-01 8.809242e-01 8.656744e-01 8.831491e-01 8.664842e-01 8.851328e-01 8.668988e-01 8.858016e-01 8.665499e-01 8.856497e-01 8.666401e-01 8.862379e-01 8.682688e-01 8.877927e-01 8.703924e-01 8.885898e-01 8.710533e-01 8.874668e-01 8.701541e-01 8.858347e-01 8.699597e-01 8.861966e-01 8.718976e-01 8.883599e-01 8.738945e-01 8.890218e-01 8.720628e-01 8.844749e-01 8.631159e-01 8.730243e-01 8.539664e-01 8.661555e-01 8.497002e-01 8.665841e-01 8.508986e-01 8.662150e-01 8.487683e-01 8.636247e-01 8.470712e-01 8.606346e-01 8.481472e-01 8.651782e-01 8.569784e-01 8.753296e-01 8.660976e-01 8.815736e-01 8.709371e-01 8.847286e-01 8.726010e-01 8.853803e-01 8.717137e-01 8.845032e-01 8.697218e-01 8.839290e-01 8.687256e-01 8.853284e-01 8.696338e-01 8.881449e-01 8.708022e-01 8.897646e-01 8.699094e-01 8.886856e-01 8.673139e-01 8.867168e-01 8.659677e-01 8.864953e-01 8.675147e-01 8.878536e-01 8.702658e-01 8.880911e-01 8.715903e-01 8.857547e-01 8.716557e-01 8.827343e-01 8.727744e-01 8.811410e-01 8.753702e-01 8.803391e-01 8.774004e-01 8.787581e-01 8.775883e-01 8.769659e-01 8.770448e-01 8.770180e-01 8.768273e-01 8.793288e-01 8.757924e-01 8.823284e-01 8.723661e-01 8.852859e-01 8.673726e-01 8.893344e-01 8.633721e-01 8.942958e-01 8.640391e-01 8.884206e-01 8.662977e-01 8.861228e-01 8.698046e-01 
1.041062e+00 1.022707e+00 1.048034e+00 1.030010e+00 1.047565e+00 1.026404e+00 1.029790e+00 1.068301e+00 1.037877e+00 1.077112e+00 1.046145e+00 1.091197e+00 1.061242e+00 1.086275e+00 9.965115e-01 1.003006e+00 9.334370e-01 9.267250e-01 8.649784e-01 8.582066e-01 7.828899e-01 7.926864e-01 7.851648e-01 8.058351e-01 7.996965e-01 8.123505e-01 8.091401e-01 8.155996e-01 8.159868e-01 8.179716e-01 8.227138e-01 8.220872e-01 8.309833e-01 8.280114e-01 8.390232e-01 8.330836e-01 8.444517e-01 8.361534e-01 8.479712e-01 8.395196e-01 8.528557e-01 8.457509e-01 8.598611e-01 8.529801e-01 8.654638e-01 8.571757e-01 8.670735e-01 8.581095e-01 8.676881e-01 8.609832e-01 8.731719e-01 8.696152e-01 8.838578e-01 8.806489e-01 8.942149e-01 8.885404e-01 8.994976e-01 8.781037e-01 8.752884e-01 8.559343e-01 8.611554e-01 8.589590e-01 8.934744e-01 8.926937e-01 9.015235e-01 8.814210e-01 8.927096e-01 8.730169e-01 8.805835e-01 8.746839e-01 8.909245e-01 8.961815e-01 9.214523e-01 9.151059e-01 9.267067e-01 9.188055e-01 9.311761e-01 9.223077e-01 9.342626e-01 9.230640e-01 9.352711e-01 9.221821e-01 9.369872e-01 9.237252e-01 9.432161e-01 9.299841e-01 9.531088e-01 9.372650e-01 9.606884e-01 9.398280e-01 9.622507e-01 9.380990e-01 9.619459e-01 9.387837e-01 9.659912e-01 9.456443e-01 9.740780e-01 9.547755e-01 9.799953e-01 9.601506e-01 9.803829e-01 9.623678e-01 9.796237e-01 9.670221e-01 9.823624e-01 9.751772e-01 9.867074e-01 9.823104e-01 9.887487e-01 9.858521e-01 9.895324e-01 9.886072e-01 9.933566e-01 9.930202e-01 1.000821e+00 9.965024e-01 1.008392e+00 9.953685e-01 1.014785e+00 9.905976e-01 1.023455e+00 9.838171e-01 1.044194e+00 9.992810e-01 1.031872e+00 1.002057e+00 1.033471e+00 1.011700e+00 
8.887445e-01 8.773421e-01 8.990043e-01 8.821755e-01 9.041007e-01 8.735463e-01 8.987456e-01 9.712076e-01 9.398256e-01 9.804862e-01 9.641124e-01 9.985815e-01 9.847069e-01 9.334460e-01 7.244286e-01 6.058385e-01 4.487514e-01 2.904619e-01 1.499074e-01 4.679985e-03 -1.817155e-01 -2.523618e-01 -2.286847e-01 -2.343052e-01 -2.087091e-01 -2.153000e-01 -1.883037e-01 -1.959180e-01 -1.677839e-01 -1.760216e-01 -1.467864e-01 -1.550425e-01 -1.249547e-01 -1.331069e-01 -1.029647e-01 -1.112190e-01 -8.172294e-02 -8.999762e-02 -6.120673e-02 -6.887470e-02 -4.038050e-02 -4.693676e-02 -1.888885e-02 -2.471291e-02 2.099889e-03 -3.544465e-03 2.172954e-02 1.654115e-02 4.116843e-02 3.741317e-02 6.259223e-02 6.046844e-02 8.624632e-02 8.466075e-02 1.103897e-01 1.084335e-01 1.311373e-01 8.664526e-02 6.095269e-02 2.487094e-02 2.877846e-02 5.565177e-02 1.446279e-01 1.569293e-01 1.536581e-01 1.067892e-01 1.209173e-01 9.129191e-02 1.130163e-01 1.389009e-01 1.876478e-01 2.312788e-01 3.027763e-01 3.065654e-01 3.300260e-01 3.249976e-01 3.492818e-01 3.449558e-01 3.691604e-01 3.647651e-01 3.889278e-01 3.843362e-01 4.092786e-01 4.048812e-01 4.313852e-01 4.271283e-01 4.547975e-01 4.496848e-01 4.772808e-01 4.704815e-01 4.974799e-01 4.896653e-01 5.168621e-01 5.096488e-01 5.376481e-01 5.318324e-01 5.597766e-01 5.549217e-01 5.811661e-01 5.768956e-01 6.007346e-01 5.980080e-01 6.200489e-01 6.201458e-01 6.407006e-01 6.435664e-01 6.620081e-01 6.666104e-01 6.826269e-01 6.882597e-01 7.028863e-01 7.093090e-01 7.242536e-01 7.304811e-01 7.470188e-01 7.508411e-01 7.701232e-01 7.690492e-01 7.934775e-01 7.851027e-01 8.196912e-01 7.946797e-01 8.767062e-01 8.637891e-01 8.736444e-01 8.610815e-01 8.785217e-01 8.681791e-01 
1.045569e+00 1.038222e+00 1.084578e+00 1.073425e+00 1.128439e+00 1.112606e+00 1.187081e+00 1.225508e+00 1.272719e+00 1.274856e+00 1.342601e+00 1.326171e+00 1.405821e+00 1.310128e+00 5.911195e-01 2.208385e-01 -3.214458e-01 -7.946598e-01 -1.314414e+00 -1.714298e+00 -2.438326e+00 -2.493591e+00 -2.437174e+00 -2.435617e+00 -2.381810e+00 -2.372995e+00 -2.321398e+00 -2.307484e+00 -2.258228e+00 -2.240809e+00 -2.194782e+00 -2.175446e+00 -2.132827e+00 -2.111524e+00 -2.070704e+00 -2.046549e+00 -2.006169e+00 -1.979657e+00 -1.940101e+00 -1.913342e+00 -1.875756e+00 -1.850126e+00 -1.813818e+00 -1.788233e+00 -1.750975e+00 -1.723941e+00 -1.684873e+00 -1.657256e+00 -1.618520e+00 -1.593565e+00 -1.557918e+00 -1.537262e+00 -1.504233e+00 -1.486447e+00 -1.453867e+00 -1.438182e+00 -1.408631e+00 -1.429069e+00 -1.436869e+00 -1.439414e+00 -1.419617e+00 -1.371058e+00 -1.288122e+00 -1.263068e+00 -1.246562e+00 -1.259444e+00 -1.216232e+00 -1.203871e+00 -1.143126e+00 -1.079674e+00 -9.960578e-01 -9.302874e-01 -8.322507e-01 -8.026790e-01 -7.462076e-01 -7.285020e-01 -6.738709e-01 -6.565407e-01 -6.019792e-01 -5.833947e-01 -5.290621e-01 -5.096707e-01 -4.574024e-01 -4.390113e-01 -3.905413e-01 -3.734712e-01 -3.277265e-01 -3.094535e-01 -2.632798e-01 -2.413307e-01 -1.936036e-01 -1.693626e-01 -1.226121e-01 -9.982501e-02 -5.620347e-02 -3.616664e-02 6.017304e-03 2.551967e-02 7.020634e-02 9.118315e-02 1.397873e-01 1.602944e-01 2.106441e-01 2.273209e-01 2.783313e-01 2.910068e-01 3.447176e-01 3.554903e-01 4.136624e-01 4.229644e-01 4.841922e-01 4.904043e-01 5.522329e-01 5.552606e-01 6.174019e-01 6.200084e-01 6.833656e-01 6.882628e-01 7.518249e-01 7.590706e-01 8.211293e-01 8.261660e-01 9.099812e-01 9.360892e-01 9.654994e-01 9.707698e-01 1.007174e+00 1.004431e+00 
8.915795e-01 8.982682e-01 9.340655e-01 9.418085e-01 9.824024e-01 9.962024e-01 1.045842e+00 1.062810e+00 1.112252e+00 1.121279e+00 1.175159e+00 1.176771e+00 1.233271e+00 1.223937e+00 3.358253e-01 2.393833e-01 -5.849769e-01 -7.167706e-01 -1.536376e+00 -1.639736e+00 -2.519140e+00 -2.534374e+00 -2.471323e+00 -2.477627e+00 -2.415569e+00 -2.416890e+00 -2.356290e+00 -2.353601e+00 -2.295068e+00 -2.289270e+00 -2.233743e+00 -2.225867e+00 -2.173592e+00 -2.163549e+00 -2.113344e+00 -2.100476e+00 -2.051276e+00 -2.035958e+00 -1.987965e+00 -1.971810e+00 -1.925823e+00 -1.909946e+00 -1.865387e+00 -1.849049e+00 -1.804146e+00 -1.786297e+00 -1.740325e+00 -1.721702e+00 -1.676237e+00 -1.659302e+00 -1.616373e+00 -1.602248e+00 -1.561375e+00 -1.548670e+00 -1.507920e+00 -1.495439e+00 -1.454595e+00 -1.444991e+00 -1.400893e+00 -1.381005e+00 -1.334099e+00 -1.309396e+00 -1.260989e+00 -1.245124e+00 -1.198425e+00 -1.180159e+00 -1.124191e+00 -1.100842e+00 -1.038533e+00 -1.010952e+00 -9.526677e-01 -9.357728e-01 -8.818413e-01 -8.698950e-01 -8.186381e-01 -8.067967e-01 -7.551544e-01 -7.417344e-01 -6.895266e-01 -6.739595e-01 -6.219303e-01 -6.048175e-01 -5.547433e-01 -5.375427e-01 -4.909441e-01 -4.739169e-01 -4.300312e-01 -4.112725e-01 -3.676868e-01 -3.453862e-01 -3.012009e-01 -2.765202e-01 -2.335817e-01 -2.095133e-01 -1.693401e-01 -1.470467e-01 -1.081906e-01 -8.618297e-02 -4.548136e-02 -2.242960e-02 2.136549e-02 4.382422e-02 8.923685e-02 1.084429e-01 1.547589e-01 1.705093e-01 2.192904e-01 2.331606e-01 2.856813e-01 2.981067e-01 3.531811e-01 3.631636e-01 4.187097e-01 4.264760e-01 4.819288e-01 4.899288e-01 5.455375e-01 5.562812e-01 6.106923e-01 6.250098e-01 6.754633e-01 6.941527e-01 7.402299e-01 7.678967e-01 8.019749e-01 8.167391e-01 8.493918e-01 8.582252e-01 
1.047522e+00 1.047977e+00 1.101555e+00 1.101228e+00 1.158738e+00 1.159760e+00 1.221706e+00 1.227075e+00 1.289963e+00 1.292050e+00 1.358944e+00 1.357398e+00 1.427558e+00 1.424338e+00 4.596999e-01 3.662126e-01 -5.331392e-01 -6.600054e-01 -1.559926e+00 -1.649479e+00 -2.621199e+00 -2.608696e+00 -2.554250e+00 -2.541052e+00 -2.487892e+00 -2.473165e+00 -2.421652e+00 -2.405045e+00 -2.355446e+00 -2.336933e+00 -2.289455e+00 -2.269176e+00 -2.223759e+00 -2.201745e+00 -2.157973e+00 -2.134243e+00 -2.091695e+00 -2.066569e+00 -2.025077e+00 -1.999158e+00 -1.958641e+00 -1.932388e+00 -1.892473e+00 -1.865934e+00 -1.826045e+00 -1.799198e+00 -1.759065e+00 -1.732278e+00 -1.692157e+00 -1.666088e+00 -1.626269e+00 -1.601148e+00 -1.561266e+00 -1.536525e+00 -1.495636e+00 -1.470219e+00 -1.427191e+00 -1.399177e+00 -1.349380e+00 -1.321733e+00 -1.272792e+00 -1.245553e+00 -1.197012e+00 -1.171694e+00 -1.124097e+00 -1.099446e+00 -1.050763e+00 -1.029287e+00 -9.785300e-01 -9.591041e-01 -9.084117e-01 -8.913605e-01 -8.443562e-01 -8.284847e-01 -7.787920e-01 -7.618588e-01 -7.108178e-01 -6.931378e-01 -6.415222e-01 -6.231224e-01 -5.715837e-01 -5.526508e-01 -5.018863e-01 -4.827157e-01 -4.331711e-01 -4.137409e-01 -3.652279e-01 -3.450779e-01 -2.969962e-01 -2.757951e-01 -2.278472e-01 -2.060061e-01 -1.584334e-01 -1.368272e-01 -8.974146e-02 -6.888401e-02 -2.168007e-02 -1.506633e-03 4.683386e-02 6.635147e-02 1.164307e-01 1.347096e-01 1.865001e-01 2.027573e-01 2.562649e-01 2.702709e-01 3.258554e-01 3.378753e-01 3.957392e-01 4.059608e-01 4.656884e-01 4.741443e-01 5.350120e-01 5.420867e-01 6.035882e-01 6.101778e-01 6.719515e-01 6.789288e-01 7.403659e-01 7.480706e-01 8.084576e-01 8.168388e-01 8.758298e-01 8.855561e-01 9.375772e-01 9.436380e-01 9.938236e-01 9.965305e-01 
8.931853e-01 9.051219e-01 9.456616e-01 9.579798e-01 1.001031e+00 1.014869e+00 1.061043e+00 1.076399e+00 1.124831e+00 1.141297e+00 1.191739e+00 1.211164e+00 1.262766e+00 1.289589e+00 3.161057e-01 3.058519e-01 -6.355389e-01 -6.613206e-01 -1.599921e+00 -1.614704e+00 -2.580353e+00 -2.561950e+00 -2.501748e+00 -2.490713e+00 -2.430992e+00 -2.422959e+00 -2.364336e+00 -2.356941e+00 -2.299898e+00 -2.291911e+00 -2.236766e+00 -2.227577e+00 -2.174382e+00 -2.163642e+00 -2.112174e+00 -2.099749e+00 -2.049748e+00 -2.035823e+00 -1.987150e+00 -1.972143e+00 -1.924674e+00 -1.908924e+00 -1.862319e+00 -1.845909e+00 -1.799703e+00 -1.782682e+00 -1.736631e+00 -1.719303e+00 -1.673523e+00 -1.656361e+00 -1.611007e+00 -1.594223e+00 -1.549087e+00 -1.532460e+00 -1.487054e+00 -1.470239e+00 -1.424158e+00 -1.407032e+00 -1.360066e+00 -1.342474e+00 -1.295553e+00 -1.278444e+00 -1.230496e+00 -1.213662e+00 -1.165047e+00 -1.148444e+00 -1.097697e+00 -1.080816e+00 -1.029435e+00 -1.012045e+00 -9.591904e-01 -9.405962e-01 -8.863473e-01 -8.700247e-01 -8.180179e-01 -8.028699e-01 -7.519184e-01 -7.367459e-01 -6.864844e-01 -6.707010e-01 -6.212695e-01 -6.047133e-01 -5.564808e-01 -5.391659e-01 -4.923785e-01 -4.741855e-01 -4.287031e-01 -4.093271e-01 -3.647612e-01 -3.440582e-01 -3.001792e-01 -2.785038e-01 -2.353554e-01 -2.133760e-01 -1.708774e-01 -1.490780e-01 -1.066840e-01 -8.522021e-02 -4.212387e-02 -2.117599e-02 2.317586e-02 4.308569e-02 8.884093e-02 1.071104e-01 1.543709e-01 1.707855e-01 2.197836e-01 2.345149e-01 2.853015e-01 2.985791e-01 3.507303e-01 3.627859e-01 4.155792e-01 4.269390e-01 4.796889e-01 4.912546e-01 5.432953e-01 5.559677e-01 6.064264e-01 6.206962e-01 6.685976e-01 6.844461e-01 7.291471e-01 7.458434e-01 7.869874e-01 8.017693e-01 8.411137e-01 8.539739e-01 
1.048132e+00 1.050506e+00 1.105918e+00 1.107872e+00 1.165874e+00 1.168543e+00 1.229373e+00 1.233573e+00 1.296668e+00 1.301808e+00 1.367274e+00 1.374874e+00 1.442007e+00 1.456626e+00 4.405622e-01 4.082403e-01 -5.705502e-01 -6.192005e-01 -1.600539e+00 -1.626335e+00 -2.651078e+00 -2.622074e+00 -2.569190e+00 -2.547238e+00 -2.495130e+00 -2.475879e+00 -2.425085e+00 -2.406297e+00 -2.357125e+00 -2.337664e+00 -2.290209e+00 -2.269520e+00 -2.223697e+00 -2.201560e+00 -2.157174e+00 -2.133616e+00 -2.090452e+00 -2.065706e+00 -2.023569e+00 -1.997967e+00 -1.956622e+00 -1.930438e+00 -1.889546e+00 -1.862935e+00 -1.822118e+00 -1.795207e+00 -1.754186e+00 -1.727155e+00 -1.685771e+00 -1.658780e+00 -1.616854e+00 -1.589891e+00 -1.547081e+00 -1.519871e+00 -1.475638e+00 -1.447662e+00 -1.401297e+00 -1.371891e+00 -1.323567e+00 -1.297313e+00 -1.248618e+00 -1.223215e+00 -1.176027e+00 -1.151935e+00 -1.103394e+00 -1.080971e+00 -1.032935e+00 -1.012351e+00 -9.633998e-01 -9.447757e-01 -8.983267e-01 -8.822627e-01 -8.349951e-01 -8.182482e-01 -7.697615e-01 -7.526615e-01 -7.033147e-01 -6.857820e-01 -6.359701e-01 -6.179932e-01 -5.681349e-01 -5.497298e-01 -5.001604e-01 -4.813013e-01 -4.321871e-01 -4.127939e-01 -3.641359e-01 -3.441474e-01 -2.958575e-01 -2.753354e-01 -2.273113e-01 -2.064872e-01 -1.586094e-01 -1.378244e-01 -8.987634e-02 -6.946678e-02 -2.108137e-02 -1.334173e-03 4.793577e-02 6.672306e-02 1.172597e-01 1.347328e-01 1.867862e-01 2.026148e-01 2.563510e-01 2.703647e-01 3.258956e-01 3.381184e-01 3.954181e-01 4.059903e-01 4.648040e-01 4.739463e-01 5.338389e-01 5.419139e-01 6.024038e-01 6.099164e-01 6.705136e-01 6.779378e-01 7.380847e-01 7.456529e-01 8.047220e-01 8.123450e-01 8.696622e-01 8.769172e-01 9.316210e-01 9.372406e-01 9.906564e-01 9.944001e-01 
8.931718e-01 9.051342e-01 9.456820e-01 9.580249e-01 1.001080e+00 1.014948e+00 1.061119e+00 1.076512e+00 1.124928e+00 1.141434e+00 1.191841e+00 1.211324e+00 1.262883e+00 1.289799e+00 3.163235e-01 3.060631e-01 -6.351500e-01 -6.610258e-01 -1.599268e+00 -1.614225e+00 -2.579316e+00 -2.561173e+00 -2.500779e+00 -2.489855e+00 -2.430015e+00 -2.422086e+00 -2.363512e+00 -2.356331e+00 -2.299502e+00 -2.291767e+00 -2.236803e+00 -2.227692e+00 -2.174464e+00 -2.163562e+00 -2.111881e+00 -2.099160e+00 -2.048905e+00 -2.034699e+00 -1.985848e+00 -1.970633e+00 -1.923038e+00 -1.907088e+00 -1.860299e+00 -1.843615e+00 -1.797083e+00 -1.779674e+00 -1.733085e+00 -1.715158e+00 -1.668440e+00 -1.650205e+00 -1.603255e+00 -1.584703e+00 -1.537256e+00 -1.518077e+00 -1.469634e+00 -1.449134e+00 -1.398890e+00 -1.375785e+00 -1.323392e+00 -1.304219e+00 -1.252389e+00 -1.233877e+00 -1.184255e+00 -1.166792e+00 -1.117263e+00 -1.100476e+00 -1.051778e+00 -1.036940e+00 -9.876789e-01 -9.746354e-01 -9.265421e-01 -9.150462e-01 -8.689779e-01 -8.564887e-01 -8.084837e-01 -7.948278e-01 -7.460249e-01 -7.314449e-01 -6.825676e-01 -6.672154e-01 -6.189046e-01 -6.028486e-01 -5.554729e-01 -5.385210e-01 -4.921051e-01 -4.739658e-01 -4.284409e-01 -4.090244e-01 -3.643965e-01 -3.438718e-01 -3.001249e-01 -2.787807e-01 -2.357458e-01 -2.139201e-01 -1.712765e-01 -1.493479e-01 -1.066446e-01 -8.500334e-02 -4.172478e-02 -2.079218e-02 2.352492e-02 4.329497e-02 8.898546e-02 1.071764e-01 1.544516e-01 1.708439e-01 2.198557e-01 2.345295e-01 2.852781e-01 2.984805e-01 3.505986e-01 3.626226e-01 4.154055e-01 4.267520e-01 4.794622e-01 4.909902e-01 5.429543e-01 5.555924e-01 6.059990e-01 6.202973e-01 6.682171e-01 6.841485e-01 7.288980e-01 7.456678e-01 7.868504e-01 8.016830e-01 8.410518e-01 8.539461e-01 
1.047505e+00 1.047994e+00 1.101599e+00 1.101299e+00 1.158835e+00 1.159885e+00 1.221850e+00 1.227248e+00 1.290127e+00 1.292239e+00 1.359094e+00 1.357604e+00 1.427716e+00 1.424651e+00 4.600933e-01 3.664897e-01 -5.324569e-01 -6.596220e-01 -1.558950e+00 -1.648769e+00 -2.619710e+00 -2.607382e+00 -2.552844e+00 -2.539510e+00 -2.486311e+00 -2.471487e+00 -2.420178e+00 -2.403755e+00 -2.354627e+00 -2.336443e+00 -2.289349e+00 -2.269125e+00 -2.223680e+00 -2.201310e+00 -2.157169e+00 -2.132856e+00 -2.089850e+00 -2.064158e+00 -2.022317e+00 -1.995936e+00 -1.955123e+00 -1.928384e+00 -1.888025e+00 -1.860836e+00 -1.820204e+00 -1.792512e+00 -1.751245e+00 -1.723323e+00 -1.681389e+00 -1.653530e+00 -1.610860e+00 -1.583159e+00 -1.539582e+00 -1.511976e+00 -1.467235e+00 -1.439546e+00 -1.393342e+00 -1.365371e+00 -1.317660e+00 -1.291264e+00 -1.243424e+00 -1.219010e+00 -1.171916e+00 -1.148883e+00 -1.101052e+00 -1.078677e+00 -1.030232e+00 -1.009460e+00 -9.612164e-01 -9.429055e-01 -8.952494e-01 -8.782581e-01 -8.307291e-01 -8.139901e-01 -7.655752e-01 -7.486347e-01 -6.994027e-01 -6.820635e-01 -6.323808e-01 -6.147634e-01 -5.652437e-01 -5.474690e-01 -4.984294e-01 -4.802022e-01 -4.315152e-01 -4.124039e-01 -3.639526e-01 -3.438787e-01 -2.957901e-01 -2.750205e-01 -2.273986e-01 -2.062273e-01 -1.589103e-01 -1.376004e-01 -9.025888e-02 -6.914967e-02 -2.137142e-02 -8.602760e-04 4.781052e-02 6.728448e-02 1.172782e-01 1.352674e-01 1.869194e-01 2.030001e-01 2.565178e-01 2.704439e-01 3.260240e-01 3.378880e-01 3.956432e-01 4.056826e-01 4.653230e-01 4.737023e-01 5.345462e-01 5.416012e-01 6.030394e-01 6.095790e-01 6.712304e-01 6.781724e-01 7.395382e-01 7.473269e-01 8.077740e-01 8.163303e-01 8.754193e-01 8.852718e-01 9.373576e-01 9.434980e-01 9.937259e-01 9.964826e-01 
8.915965e-01 8.983331e-01 9.341478e-01 9.419425e-01 9.825548e-01 9.964343e-01 1.046098e+00 1.063189e+00 1.112602e+00 1.121697e+00 1.175428e+00 1.177133e+00 1.233483e+00 1.224441e+00 3.361958e-01 2.396863e-01 -5.841835e-01 -7.162888e-01 -1.534893e+00 -1.638752e+00 -2.516519e+00 -2.532532e+00 -2.468718e+00 -2.474793e+00 -2.411995e+00 -2.413150e+00 -2.352720e+00 -2.350960e+00 -2.293863e+00 -2.289668e+00 -2.235396e+00 -2.228028e+00 -2.175528e+00 -2.164570e+00 -2.113154e+00 -2.098808e+00 -2.048390e+00 -2.031991e+00 -1.983560e+00 -1.967045e+00 -1.921112e+00 -1.904960e+00 -1.860192e+00 -1.843198e+00 -1.797589e+00 -1.778961e+00 -1.732131e+00 -1.712767e+00 -1.665512e+00 -1.646239e+00 -1.598764e+00 -1.579685e+00 -1.531916e+00 -1.512962e+00 -1.464708e+00 -1.445687e+00 -1.396719e+00 -1.377547e+00 -1.327645e+00 -1.308688e+00 -1.258171e+00 -1.239669e+00 -1.189563e+00 -1.172375e+00 -1.123123e+00 -1.107364e+00 -1.058402e+00 -1.043354e+00 -9.937875e-01 -9.791882e-01 -9.297265e-01 -9.163340e-01 -8.678452e-01 -8.553211e-01 -8.068092e-01 -7.936767e-01 -7.441286e-01 -7.295331e-01 -6.794760e-01 -6.642803e-01 -6.156158e-01 -6.008275e-01 -5.542100e-01 -5.387874e-01 -4.930176e-01 -4.752909e-01 -4.296999e-01 -4.095668e-01 -3.649406e-01 -3.434398e-01 -3.005010e-01 -2.781357e-01 -2.364973e-01 -2.133106e-01 -1.723259e-01 -1.487078e-01 -1.077574e-01 -8.425266e-02 -4.264517e-02 -1.991238e-02 2.303055e-02 4.432698e-02 8.910770e-02 1.080984e-01 1.547802e-01 1.708294e-01 2.198545e-01 2.334824e-01 2.856623e-01 2.976174e-01 3.525205e-01 3.625091e-01 4.182330e-01 4.261297e-01 4.814935e-01 4.892696e-01 5.444026e-01 5.548063e-01 6.088780e-01 6.233130e-01 6.739828e-01 6.931772e-01 7.395603e-01 7.675005e-01 8.017109e-01 8.166041e-01 8.493136e-01 8.582154e-01 
1.045615e+00 1.038297e+00 1.084696e+00 1.073572e+00 1.128660e+00 1.112875e+00 1.187454e+00 1.225930e+00 1.273119e+00 1.275173e+00 1.342785e+00 1.326221e+00 1.405842e+00 1.310055e+00 5.917054e-01 2.208548e-01 -3.201080e-01 -7.947715e-01 -1.313381e+00 -1.714002e+00 -2.437965e+00 -2.491983e+00 -2.435439e+00 -2.432419e+00 -2.378003e+00 -2.368227e+00 -2.316965e+00 -2.303795e+00 -2.256481e+00 -2.240915e+00 -2.196595e+00 -2.177809e+00 -2.134973e+00 -2.112486e+00 -2.070226e+00 -2.044268e+00 -2.002463e+00 -1.974644e+00 -1.934602e+00 -1.907341e+00 -1.869822e+00 -1.843679e+00 -1.807048e+00 -1.780370e+00 -1.742087e+00 -1.713797e+00 -1.673494e+00 -1.644798e+00 -1.603634e+00 -1.575630e+00 -1.533920e+00 -1.506757e+00 -1.464450e+00 -1.438113e+00 -1.395042e+00 -1.369360e+00 -1.325295e+00 -1.300080e+00 -1.254674e+00 -1.229928e+00 -1.183229e+00 -1.159281e+00 -1.112409e+00 -1.090308e+00 -1.043917e+00 -1.023741e+00 -9.769905e-01 -9.576760e-01 -9.096905e-01 -8.909838e-01 -8.426534e-01 -8.256100e-01 -7.779802e-01 -7.626523e-01 -7.148688e-01 -6.994567e-01 -6.500690e-01 -6.334418e-01 -5.829376e-01 -5.662506e-01 -5.169600e-01 -5.016044e-01 -4.542569e-01 -4.389098e-01 -3.918184e-01 -3.742966e-01 -3.265255e-01 -3.066912e-01 -2.592928e-01 -2.384794e-01 -1.924723e-01 -1.712386e-01 -1.262197e-01 -1.044717e-01 -5.977653e-02 -3.786606e-02 7.076492e-03 2.863143e-02 7.448531e-02 9.505007e-02 1.424803e-01 1.614083e-01 2.108760e-01 2.271912e-01 2.786229e-01 2.915836e-01 3.455183e-01 3.558353e-01 4.134384e-01 4.220030e-01 4.829228e-01 4.891002e-01 5.511592e-01 5.543968e-01 6.164812e-01 6.188865e-01 6.817127e-01 6.862780e-01 7.495003e-01 7.570238e-01 8.194862e-01 8.252881e-01 9.095107e-01 9.358444e-01 9.653369e-01 9.706979e-01 1.007143e+00 1.004445e+00 
8.889118e-01 8.774819e-01 8.991292e-01 8.822830e-01 9.042142e-01 8.736366e-01 8.988173e-01 9.712014e-01 9.396426e-01 9.802824e-01 9.637808e-01 9.983212e-01 9.843768e-01 9.331627e-01 7.241592e-01 6.054103e-01 4.486259e-01 2.899115e-01 1.495587e-01 4.427008e-03 -1.825849e-01 -2.526606e-01 -2.292714e-01 -2.349364e-01 -2.094148e-01 -2.158992e-01 -1.885269e-01 -1.955755e-01 -1.666184e-01 -1.741429e-01 -1.443353e-01 -1.525231e-01 -1.226791e-01 -1.315462e-01 -1.022365e-01 -1.115500e-01 -8.290884e-02 -9.187686e-02 -6.337213e-02 -7.100952e-02 -4.233516e-02 -4.850164e-02 -2.020032e-02 -2.559460e-02 1.541646e-03 -3.621040e-03 2.232491e-02 1.759086e-02 4.288927e-02 3.874871e-02 6.373477e-02 6.004916e-02 8.497778e-02 8.153867e-02 1.066014e-01 1.031364e-01 1.284648e-01 1.247032e-01 1.502010e-01 1.455583e-01 1.711626e-01 1.660469e-01 1.919972e-01 1.868982e-01 2.133596e-01 2.084268e-01 2.352623e-01 2.303091e-01 2.568786e-01 2.519881e-01 2.783492e-01 2.742092e-01 3.007861e-01 2.971702e-01 3.234675e-01 3.196791e-01 3.452527e-01 3.408847e-01 3.660059e-01 3.614582e-01 3.870665e-01 3.828044e-01 4.092413e-01 4.047812e-01 4.315250e-01 4.261571e-01 4.529536e-01 4.467445e-01 4.739687e-01 4.674914e-01 4.953932e-01 4.889476e-01 5.171860e-01 5.108679e-01 5.389258e-01 5.330055e-01 5.603476e-01 5.551942e-01 5.812777e-01 5.773467e-01 6.016827e-01 5.994068e-01 6.216439e-01 6.214807e-01 6.415917e-01 6.438118e-01 6.617728e-01 6.659610e-01 6.817555e-01 6.871722e-01 7.015813e-01 7.077689e-01 7.225189e-01 7.287193e-01 7.453929e-01 7.495883e-01 7.693343e-01 7.688227e-01 7.937173e-01 7.857277e-01 8.205310e-01 7.956444e-01 8.776122e-01 8.644631e-01 8.741283e-01 8.614417e-01 8.787896e-01 8.683895e-01 
1.041195e+00 1.022793e+00 1.048103e+00 1.030033e+00 1.047575e+00 1.026337e+00 1.029674e+00 1.068048e+00 1.037534e+00 1.076767e+00 1.045862e+00 1.091027e+00 1.061171e+00 1.086280e+00 9.966458e-01 1.003045e+00 9.336177e-01 9.265578e-01 8.649170e-01 8.579251e-01 7.825072e-01 7.919818e-01 7.838865e-01 8.036958e-01 7.968704e-01 8.091612e-01 8.063662e-01 8.140351e-01 8.163993e-01 8.204665e-01 8.268366e-01 8.267890e-01 8.352856e-01 8.309928e-01 8.402884e-01 8.323321e-01 8.420520e-01 8.324824e-01 8.439129e-01 8.355006e-01 8.493804e-01 8.427576e-01 8.573798e-01 8.507791e-01 8.635996e-01 8.557613e-01 8.665247e-01 8.584660e-01 8.685811e-01 8.611977e-01 8.713047e-01 8.644830e-01 8.748423e-01 8.682094e-01 8.788857e-01 8.718686e-01 8.828081e-01 8.748731e-01 8.857694e-01 8.764320e-01 8.874287e-01 8.773875e-01 8.895056e-01 8.798540e-01 8.933663e-01 8.841888e-01 8.983172e-01 8.888479e-01 9.023441e-01 8.926873e-01 9.062990e-01 8.979037e-01 9.127903e-01 9.053516e-01 9.203692e-01 9.119506e-01 9.257471e-01 9.151769e-01 9.284552e-01 9.169056e-01 9.322884e-01 9.211661e-01 9.395937e-01 9.275326e-01 9.474024e-01 9.322075e-01 9.526031e-01 9.342205e-01 9.561332e-01 9.360523e-01 9.603236e-01 9.393270e-01 9.652612e-01 9.435452e-01 9.700644e-01 9.482879e-01 9.742961e-01 9.532853e-01 9.775905e-01 9.583191e-01 9.798393e-01 9.632736e-01 9.813023e-01 9.686172e-01 9.832100e-01 9.751213e-01 9.859943e-01 9.814240e-01 9.879924e-01 9.853188e-01 9.889607e-01 9.877836e-01 9.921589e-01 9.916304e-01 9.995834e-01 9.957629e-01 1.008457e+00 9.962251e-01 1.016332e+00 9.923627e-01 1.025166e+00 9.851605e-01 1.045230e+00 9.999905e-01 1.032375e+00 1.002404e+00 1.033722e+00 1.011874e+00 
8.857718e-01 8.737505e-01 8.845061e-01 8.766651e-01 8.795963e-01 8.781739e-01 8.685033e-01 8.896093e-01 8.655511e-01 8.929000e-01 8.654245e-01 8.908700e-01 8.670179e-01 8.824505e-01 8.696808e-01 8.790497e-01 8.745919e-01 8.769296e-01 8.797551e-01 8.749379e-01 8.828339e-01 8.717332e-01 8.791850e-01 8.692868e-01 8.777011e-01 8.672089e-01 8.778431e-01 8.662467e-01 8.797161e-01 8.666540e-01 8.825131e-01 8.674510e-01 8.847680e-01 8.675355e-01 8.854886e-01 8.664023e-01 8.846168e-01 8.647894e-01 8.836706e-01 8.645839e-01 8.843220e-01 8.664555e-01 8.861167e-01 8.687406e-01 8.869947e-01 8.695136e-01 8.861299e-01 8.689842e-01 8.846740e-01 8.683380e-01 8.835746e-01 8.679329e-01 8.828279e-01 8.673794e-01 8.817928e-01 8.659137e-01 8.797263e-01 8.631173e-01 8.764448e-01 8.595877e-01 8.730956e-01 8.564826e-01 8.708780e-01 8.549191e-01 8.699431e-01 8.546230e-01 8.698307e-01 8.551500e-01 8.700273e-01 8.563803e-01 8.715377e-01 8.594026e-01 8.750064e-01 8.636316e-01 8.787525e-01 8.669265e-01 8.809769e-01 8.679910e-01 8.814537e-01 8.676986e-01 8.819765e-01 8.680339e-01 8.838668e-01 8.692025e-01 8.861447e-01 8.697813e-01 8.873994e-01 8.691638e-01 8.876455e-01 8.681494e-01 8.876812e-01 8.675700e-01 8.878031e-01 8.676674e-01 8.879598e-01 8.684885e-01 8.879156e-01 8.697100e-01 8.871788e-01 8.709029e-01 8.855379e-01 8.719917e-01 8.833570e-01 8.733754e-01 8.814572e-01 8.753435e-01 8.800489e-01 8.770286e-01 8.784146e-01 8.773151e-01 8.766694e-01 8.766546e-01 8.764927e-01 8.762420e-01 8.788165e-01 8.754870e-01 8.823488e-01 8.727060e-01 8.859080e-01 8.680922e-01 8.900450e-01 8.639436e-01 8.947551e-01 8.643833e-01 8.886870e-01 8.664970e-01 8.862753e-01 8.699187e-01 
