# vtk DataFile Version 2.0
Comment goes here
ASCII

DATASET STRUCTURED_POINTS
FIELD FieldData 1
TIME 1 1 double
0.06000000
DIMENSIONS    128   16   1

ORIGIN    0.000   0.000   0.000
SPACING   0.0078125 0.015625   1.000

POINT_DATA   2048
SCALARS P double
LOOKUP_TABLE default

9.080192e-01 8.960129e-01 9.142023e-01 9.052400e-01 9.169658e-01 9.134031e-01 9.173446e-01 9.269062e-01 9.143964e-01 9.333657e-01 9.082076e-01 9.325324e-01 8.970000e-01 9.157528e-01 8.638503e-01 8.766952e-01 8.246353e-01 8.357371e-01 7.908726e-01 8.049870e-01 7.674817e-01 7.825408e-01 7.584675e-01 7.627394e-01 7.393397e-01 7.366957e-01 7.152179e-01 7.094887e-01 6.970358e-01 6.953127e-01 6.899160e-01 6.844974e-01 6.818495e-01 6.744887e-01 6.729449e-01 6.611228e-01 6.639379e-01 6.526137e-01 6.633858e-01 6.592086e-01 6.750929e-01 6.745826e-01 6.879677e-01 6.757890e-01 6.796487e-01 6.566942e-01 6.703072e-01 6.613513e-01 6.797054e-01 6.794571e-01 7.020215e-01 7.006686e-01 7.147630e-01 7.045089e-01 7.185296e-01 7.100159e-01 7.283018e-01 7.274107e-01 7.493927e-01 7.543647e-01 7.662631e-01 7.561262e-01 7.635518e-01 7.472891e-01 7.587356e-01 7.508160e-01 7.688293e-01 7.606243e-01 7.715078e-01 7.589351e-01 7.707759e-01 7.684624e-01 7.949185e-01 8.035578e-01 8.342187e-01 8.342258e-01 8.486304e-01 8.388860e-01 8.529280e-01 8.549892e-01 8.869045e-01 8.929685e-01 9.194784e-01 9.072215e-01 9.141004e-01 8.955971e-01 9.052548e-01 8.940883e-01 9.097797e-01 8.861029e-01 8.965449e-01 8.657471e-01 8.723441e-01 8.526135e-01 8.640856e-01 8.474220e-01 8.529890e-01 8.326519e-01 8.371303e-01 8.235235e-01 8.359163e-01 8.324411e-01 8.403665e-01 8.347859e-01 8.416069e-01 8.347688e-01 8.373603e-01 8.270690e-01 8.302661e-01 8.220719e-01 8.330226e-01 8.271101e-01 8.368796e-01 8.200163e-01 8.329146e-01 8.129892e-01 8.293484e-01 7.997472e-01 8.287805e-01 8.088580e-01 8.554793e-01 8.331272e-01 8.768258e-01 8.551202e-01 8.894619e-01 8.710980e-01 8.994685e-01 8.845665e-01 
7.738012e-01 7.576794e-01 7.778270e-01 7.631462e-01 7.794114e-01 7.666858e-01 7.783422e-01 7.805382e-01 7.749663e-01 7.844237e-01 7.717265e-01 7.886410e-01 7.810625e-01 7.906467e-01 7.862564e-01 7.917991e-01 7.873689e-01 7.886744e-01 7.954988e-01 7.955875e-01 8.093209e-01 8.129182e-01 8.251138e-01 8.249271e-01 8.341405e-01 8.328384e-01 8.206166e-01 7.969627e-01 7.761216e-01 7.511428e-01 7.325332e-01 7.113160e-01 7.129999e-01 7.122117e-01 7.206093e-01 7.113262e-01 7.111265e-01 6.834747e-01 6.828680e-01 6.686392e-01 6.753073e-01 6.819469e-01 7.090973e-01 7.076838e-01 7.002926e-01 6.595920e-01 6.792327e-01 6.698583e-01 6.683637e-01 6.665370e-01 7.081977e-01 7.272946e-01 7.398914e-01 7.235837e-01 7.359795e-01 7.165228e-01 7.233733e-01 7.138921e-01 7.420274e-01 7.679120e-01 7.877563e-01 7.758690e-01 7.659507e-01 7.206943e-01 7.116782e-01 6.952673e-01 7.171589e-01 7.216273e-01 7.526659e-01 7.488532e-01 7.526244e-01 7.439557e-01 7.609271e-01 7.698666e-01 8.129560e-01 8.174283e-01 8.281731e-01 8.071617e-01 8.031400e-01 8.054079e-01 8.482253e-01 8.647736e-01 8.996137e-01 8.750718e-01 8.595548e-01 8.245599e-01 8.229541e-01 8.248020e-01 8.511132e-01 8.256693e-01 8.421859e-01 8.022357e-01 8.057983e-01 7.956187e-01 8.149827e-01 8.004581e-01 7.936135e-01 7.533415e-01 7.355248e-01 7.034320e-01 7.183421e-01 7.256881e-01 7.389090e-01 7.401991e-01 7.502170e-01 7.418038e-01 7.384481e-01 7.216112e-01 7.226259e-01 7.177998e-01 7.456289e-01 7.537730e-01 7.653553e-01 7.421259e-01 7.511633e-01 7.245250e-01 7.270506e-01 6.803188e-01 7.050333e-01 6.867882e-01 7.408256e-01 7.161494e-01 7.599601e-01 7.319640e-01 7.637013e-01 7.417532e-01 7.686152e-01 7.503509e-01 
9.130776e-01 9.010430e-01 9.229663e-01 9.099385e-01 9.266398e-01 9.086894e-01 9.336970e-01 9.497293e-01 9.298272e-01 9.505054e-01 9.174353e-01 9.686727e-01 9.594947e-01 9.891577e-01 9.090967e-01 9.152598e-01 8.334444e-01 8.288661e-01 7.650644e-01 7.757837e-01 6.986156e-01 7.380039e-01 7.385327e-01 7.760641e-01 8.103902e-01 8.552571e-01 8.196306e-01 7.683238e-01 7.150534e-01 6.817426e-01 6.358758e-01 6.000528e-01 6.252523e-01 6.713448e-01 7.044338e-01 7.068957e-01 6.936398e-01 6.180404e-01 5.875191e-01 5.601271e-01 5.768379e-01 6.337289e-01 7.055914e-01 7.415585e-01 7.127587e-01 6.068052e-01 6.258161e-01 6.022385e-01 5.687383e-01 5.837700e-01 6.804913e-01 7.685075e-01 8.021779e-01 7.764853e-01 7.742076e-01 7.070377e-01 6.812550e-01 6.497818e-01 7.222596e-01 8.480653e-01 8.905385e-01 8.791175e-01 8.516584e-01 7.300084e-01 6.706649e-01 6.458065e-01 7.083711e-01 7.607714e-01 8.075797e-01 7.948064e-01 7.690399e-01 7.419395e-01 7.631828e-01 8.115155e-01 9.189990e-01 9.429348e-01 9.226896e-01 8.412905e-01 7.733559e-01 7.898795e-01 8.971440e-01 9.837015e-01 1.066974e+00 1.002238e+00 9.059562e-01 8.131919e-01 7.936956e-01 8.671733e-01 9.520063e-01 9.343548e-01 9.534099e-01 8.516985e-01 8.303550e-01 8.592457e-01 9.251270e-01 9.472495e-01 9.220606e-01 8.261534e-01 7.496954e-01 6.840295e-01 7.323897e-01 7.892559e-01 8.094368e-01 8.237972e-01 8.510537e-01 8.507400e-01 8.342543e-01 8.016674e-01 7.787546e-01 7.733249e-01 8.472617e-01 9.122133e-01 9.209872e-01 8.744926e-01 8.897416e-01 8.889639e-01 8.631777e-01 7.506293e-01 7.473829e-01 7.655170e-01 8.771406e-01 8.524606e-01 8.992128e-01 8.688227e-01 8.951982e-01 8.758002e-01 9.020850e-01 8.882187e-01 
7.811917e-01 7.688106e-01 7.924895e-01 7.771117e-01 7.980544e-01 7.750697e-01 8.417323e-01 8.615657e-01 8.549434e-01 8.572908e-01 8.342781e-01 8.764093e-01 9.094404e-01 8.643900e-01 6.741663e-01 5.363639e-01 3.520625e-01 1.721939e-01 3.405155e-02 -5.596190e-02 -2.063241e-01 -2.244740e-01 -1.906354e-01 -1.568277e-01 -4.946099e-02 8.949475e-03 -4.216684e-02 -1.752491e-01 -2.429489e-01 -2.595000e-01 -2.748649e-01 -2.832808e-01 -1.633253e-01 -1.824112e-02 5.759325e-02 5.432167e-02 -1.570639e-02 -1.964925e-01 -3.167164e-01 -3.705873e-01 -2.968055e-01 -1.326567e-01 -1.111755e-02 9.220135e-02 1.014738e-01 -7.736851e-02 -1.533853e-01 -2.647479e-01 -2.884326e-01 -1.930882e-01 -5.488205e-02 1.577445e-01 3.011124e-01 2.985595e-01 2.154661e-01 -9.636652e-03 -1.435269e-01 -2.539596e-01 -1.452368e-01 1.373636e-01 1.948002e-01 2.034033e-01 1.708439e-01 -8.377483e-02 -2.157248e-01 -2.732761e-01 -1.122754e-01 4.980559e-02 8.277304e-02 8.788566e-02 4.183989e-02 7.599808e-03 1.188129e-01 2.788635e-01 5.026152e-01 5.526942e-01 4.734822e-01 2.815843e-01 1.371363e-01 1.669740e-01 3.582378e-01 5.519305e-01 6.923474e-01 5.756947e-01 3.747635e-01 2.148078e-01 2.070192e-01 4.063978e-01 6.072924e-01 6.516287e-01 6.526950e-01 4.364005e-01 3.663938e-01 4.342866e-01 5.657609e-01 6.703942e-01 6.472627e-01 4.868544e-01 3.494360e-01 2.711060e-01 3.758046e-01 4.920772e-01 5.262873e-01 5.458836e-01 6.250624e-01 6.471649e-01 6.399066e-01 5.780898e-01 5.023404e-01 4.468737e-01 5.501974e-01 6.710810e-01 6.984765e-01 6.372306e-01 7.161274e-01 8.065237e-01 7.831712e-01 5.654336e-01 4.828397e-01 5.458826e-01 7.431280e-01 7.210476e-01 7.574519e-01 7.467542e-01 7.604279e-01 7.480179e-01 7.690469e-01 7.574447e-01 
9.225295e-01 9.217337e-01 9.564530e-01 9.547702e-01 9.927524e-01 9.919308e-01 1.072395e+00 1.081544e+00 1.128984e+00 1.112912e+00 1.156654e+00 1.146438e+00 1.232145e+00 1.142831e+00 4.880395e-01 9.410809e-02 -3.775867e-01 -7.796788e-01 -1.243057e+00 -1.488311e+00 -2.251313e+00 -2.286905e+00 -2.215718e+00 -2.198862e+00 -2.088916e+00 -2.064453e+00 -2.061112e+00 -2.148382e+00 -2.141924e+00 -2.107340e+00 -2.036164e+00 -1.978856e+00 -1.831222e+00 -1.697817e+00 -1.621838e+00 -1.625193e+00 -1.677981e+00 -1.803115e+00 -1.893631e+00 -1.918601e+00 -1.820729e+00 -1.678262e+00 -1.591014e+00 -1.500951e+00 -1.418447e+00 -1.495402e+00 -1.590672e+00 -1.695089e+00 -1.643265e+00 -1.524016e+00 -1.441932e+00 -1.273299e+00 -1.100077e+00 -1.058530e+00 -1.131224e+00 -1.324409e+00 -1.427767e+00 -1.512951e+00 -1.432905e+00 -1.231388e+00 -1.172750e+00 -1.135746e+00 -1.124794e+00 -1.287135e+00 -1.342374e+00 -1.369034e+00 -1.197999e+00 -1.036304e+00 -9.977905e-01 -9.526814e-01 -9.543248e-01 -9.578255e-01 -8.167100e-01 -6.701561e-01 -4.971933e-01 -4.572239e-01 -4.926451e-01 -6.138596e-01 -6.652674e-01 -6.399713e-01 -5.078530e-01 -3.722438e-01 -2.729078e-01 -3.220686e-01 -4.075739e-01 -4.729096e-01 -4.209714e-01 -2.637633e-01 -8.926842e-02 -3.481433e-03 9.161560e-03 -1.221926e-01 -1.476237e-01 -1.046022e-01 -2.670458e-03 9.788040e-02 1.298157e-01 6.000746e-02 2.024130e-02 1.419709e-02 1.088995e-01 1.840317e-01 2.375844e-01 2.543345e-01 3.518392e-01 3.855101e-01 4.303826e-01 3.983633e-01 3.657644e-01 3.049815e-01 3.659405e-01 4.296325e-01 4.942312e-01 4.868302e-01 6.061375e-01 7.135474e-01 7.598292e-01 6.343614e-01 5.800544e-01 6.222165e-01 7.646251e-01 7.665449e-01 8.000528e-01 8.252261e-01 8.504623e-01 8.586791e-01 8.882336e-01 8.902342e-01 
7.917211e-01 7.917926e-01 8.293164e-01 8.304371e-01 8.726108e-01 8.785601e-01 9.314428e-01 9.310900e-01 9.875084e-01 9.799945e-01 1.038319e+00 1.022818e+00 1.086901e+00 1.058623e+00 2.733039e-01 1.693907e-01 -5.676726e-01 -6.885787e-01 -1.428746e+00 -1.491837e+00 -2.287852e+00 -2.270182e+00 -2.233742e+00 -2.215260e+00 -2.172513e+00 -2.167602e+00 -2.135679e+00 -2.139431e+00 -2.098915e+00 -2.066603e+00 -1.997773e+00 -1.947870e+00 -1.874316e+00 -1.830350e+00 -1.790797e+00 -1.788585e+00 -1.787692e+00 -1.806129e+00 -1.811798e+00 -1.805720e+00 -1.753962e+00 -1.709733e+00 -1.674749e+00 -1.643783e+00 -1.576851e+00 -1.560305e+00 -1.575774e+00 -1.596573e+00 -1.534992e+00 -1.476480e+00 -1.443026e+00 -1.389335e+00 -1.303067e+00 -1.264207e+00 -1.258083e+00 -1.293857e+00 -1.285089e+00 -1.276151e+00 -1.219331e+00 -1.170111e+00 -1.106341e+00 -1.072489e+00 -1.042960e+00 -1.055523e+00 -1.025417e+00 -1.001601e+00 -9.107594e-01 -8.462052e-01 -8.058085e-01 -7.962686e-01 -7.880377e-01 -7.964736e-01 -7.448764e-01 -7.115627e-01 -6.633507e-01 -6.556817e-01 -6.337999e-01 -6.446716e-01 -6.098255e-01 -6.012726e-01 -5.615309e-01 -5.375263e-01 -5.010272e-01 -4.882874e-01 -4.531655e-01 -4.346644e-01 -3.772454e-01 -3.391177e-01 -2.719768e-01 -2.275531e-01 -1.941280e-01 -1.999926e-01 -1.693619e-01 -1.642897e-01 -1.251143e-01 -9.652157e-02 -4.993273e-02 -3.905447e-02 2.355398e-03 2.546629e-02 7.166605e-02 8.348734e-02 1.339340e-01 1.439534e-01 2.052217e-01 2.199516e-01 2.746904e-01 2.733242e-01 3.028702e-01 2.822238e-01 3.113638e-01 3.092630e-01 3.709238e-01 3.886093e-01 4.653683e-01 4.959533e-01 5.590306e-01 5.489886e-01 5.711491e-01 5.679203e-01 6.182845e-01 6.232377e-01 6.618716e-01 6.777183e-01 7.142216e-01 7.202233e-01 7.549179e-01 7.564850e-01 
9.332183e-01 9.358748e-01 9.796394e-01 9.812761e-01 1.029578e+00 1.030696e+00 1.085890e+00 1.085607e+00 1.141879e+00 1.137383e+00 1.196119e+00 1.188566e+00 1.252773e+00 1.240722e+00 3.888312e-01 2.978482e-01 -4.988995e-01 -6.055745e-01 -1.409074e+00 -1.471443e+00 -2.345970e+00 -2.329352e+00 -2.282467e+00 -2.266988e+00 -2.217131e+00 -2.205256e+00 -2.163838e+00 -2.158581e+00 -2.115840e+00 -2.096486e+00 -2.043968e+00 -2.015366e+00 -1.957977e+00 -1.926676e+00 -1.883890e+00 -1.871398e+00 -1.849135e+00 -1.850348e+00 -1.831598e+00 -1.819275e+00 -1.779127e+00 -1.745669e+00 -1.701043e+00 -1.671715e+00 -1.628592e+00 -1.616179e+00 -1.589812e+00 -1.578740e+00 -1.536084e+00 -1.497299e+00 -1.447273e+00 -1.402242e+00 -1.346544e+00 -1.320464e+00 -1.290625e+00 -1.290181e+00 -1.260562e+00 -1.239111e+00 -1.183480e+00 -1.142195e+00 -1.083752e+00 -1.061108e+00 -1.033365e+00 -1.035016e+00 -1.002575e+00 -9.740797e-01 -9.059924e-01 -8.631997e-01 -8.190252e-01 -8.133681e-01 -7.901265e-01 -7.843679e-01 -7.380658e-01 -7.112980e-01 -6.568989e-01 -6.397431e-01 -6.039610e-01 -6.012892e-01 -5.674894e-01 -5.519093e-01 -5.032090e-01 -4.766625e-01 -4.300879e-01 -4.159323e-01 -3.816952e-01 -3.658200e-01 -3.182551e-01 -2.831330e-01 -2.241416e-01 -1.952521e-01 -1.507268e-01 -1.430730e-01 -1.043781e-01 -8.634275e-02 -3.980367e-02 -1.616970e-02 2.631390e-02 3.685463e-02 7.567061e-02 9.028882e-02 1.409192e-01 1.616230e-01 2.145453e-01 2.308578e-01 2.866042e-01 2.992241e-01 3.481047e-01 3.511080e-01 3.919989e-01 3.915494e-01 4.401699e-01 4.505682e-01 5.061979e-01 5.169832e-01 5.771247e-01 5.920801e-01 6.428872e-01 6.395901e-01 6.799487e-01 6.856356e-01 7.387669e-01 7.455720e-01 7.910296e-01 8.000772e-01 8.411235e-01 8.478175e-01 8.878159e-01 8.921744e-01 
7.990270e-01 8.013950e-01 8.431996e-01 8.456044e-01 8.906672e-01 8.934891e-01 9.424977e-01 9.448850e-01 9.967040e-01 9.991357e-01 1.052350e+00 1.056969e+00 1.110068e+00 1.121538e+00 2.703174e-01 2.562033e-01 -5.751287e-01 -5.935758e-01 -1.430188e+00 -1.429241e+00 -2.294642e+00 -2.260168e+00 -2.227985e+00 -2.201343e+00 -2.166958e+00 -2.146165e+00 -2.109907e+00 -2.090842e+00 -2.050879e+00 -2.028306e+00 -1.984861e+00 -1.961013e+00 -1.919412e+00 -1.898984e+00 -1.864862e+00 -1.850988e+00 -1.823595e+00 -1.812035e+00 -1.784648e+00 -1.768458e+00 -1.734105e+00 -1.711711e+00 -1.675179e+00 -1.651782e+00 -1.612587e+00 -1.590115e+00 -1.555118e+00 -1.533385e+00 -1.492110e+00 -1.462976e+00 -1.421623e+00 -1.392821e+00 -1.349780e+00 -1.326811e+00 -1.291804e+00 -1.278475e+00 -1.245245e+00 -1.231506e+00 -1.195052e+00 -1.174387e+00 -1.138580e+00 -1.126378e+00 -1.090944e+00 -1.081095e+00 -1.043774e+00 -1.026371e+00 -9.780732e-01 -9.536927e-01 -9.075238e-01 -8.814703e-01 -8.379424e-01 -8.153815e-01 -7.651454e-01 -7.433294e-01 -6.976880e-01 -6.821942e-01 -6.424407e-01 -6.314991e-01 -5.931210e-01 -5.810646e-01 -5.424523e-01 -5.277290e-01 -4.884593e-01 -4.724940e-01 -4.312816e-01 -4.124911e-01 -3.672575e-01 -3.449917e-01 -2.983292e-01 -2.761229e-01 -2.329488e-01 -2.162107e-01 -1.744142e-01 -1.583291e-01 -1.156025e-01 -9.817740e-02 -5.375923e-02 -3.779414e-02 7.703990e-03 2.326227e-02 7.046526e-02 8.358928e-02 1.325859e-01 1.435129e-01 1.941144e-01 2.030184e-01 2.527837e-01 2.579372e-01 3.050101e-01 3.070305e-01 3.544112e-01 3.578929e-01 4.092041e-01 4.156268e-01 4.688444e-01 4.764965e-01 5.267955e-01 5.308740e-01 5.753381e-01 5.789631e-01 6.225096e-01 6.270429e-01 6.680588e-01 6.736152e-01 7.130216e-01 7.173778e-01 7.562691e-01 7.593274e-01 
9.397734e-01 9.431681e-01 9.886847e-01 9.916299e-01 1.040733e+00 1.043578e+00 1.096741e+00 1.099582e+00 1.155544e+00 1.158408e+00 1.216315e+00 1.220584e+00 1.279285e+00 1.288986e+00 3.981566e-01 3.698362e-01 -4.934060e-01 -5.301461e-01 -1.403236e+00 -1.415663e+00 -2.334456e+00 -2.299159e+00 -2.264865e+00 -2.242126e+00 -2.205619e+00 -2.189055e+00 -2.149552e+00 -2.133438e+00 -2.090127e+00 -2.071876e+00 -2.027947e+00 -2.010533e+00 -1.970470e+00 -1.956164e+00 -1.921646e+00 -1.909587e+00 -1.877346e+00 -1.863555e+00 -1.829168e+00 -1.810378e+00 -1.772205e+00 -1.749513e+00 -1.710026e+00 -1.686214e+00 -1.645498e+00 -1.620713e+00 -1.578291e+00 -1.550598e+00 -1.505257e+00 -1.474838e+00 -1.429803e+00 -1.401178e+00 -1.358120e+00 -1.333810e+00 -1.293356e+00 -1.272444e+00 -1.232557e+00 -1.212561e+00 -1.173603e+00 -1.158199e+00 -1.121970e+00 -1.106624e+00 -1.068386e+00 -1.050557e+00 -1.005615e+00 -9.867384e-01 -9.425075e-01 -9.224788e-01 -8.767531e-01 -8.526577e-01 -8.071403e-01 -7.829054e-01 -7.316354e-01 -7.079163e-01 -6.597943e-01 -6.416200e-01 -5.995041e-01 -5.858420e-01 -5.460987e-01 -5.317301e-01 -4.906723e-01 -4.743329e-01 -4.327898e-01 -4.160510e-01 -3.741543e-01 -3.551682e-01 -3.101309e-01 -2.878931e-01 -2.408628e-01 -2.190778e-01 -1.735469e-01 -1.543033e-01 -1.098344e-01 -9.068558e-02 -4.571622e-02 -2.672663e-02 1.904724e-02 3.694300e-02 8.415958e-02 1.017004e-01 1.507629e-01 1.671132e-01 2.170264e-01 2.312054e-01 2.820538e-01 2.942470e-01 3.452475e-01 3.550615e-01 4.054804e-01 4.132335e-01 4.638141e-01 4.708799e-01 5.218041e-01 5.285142e-01 5.798174e-01 5.869470e-01 6.372360e-01 6.432961e-01 6.917979e-01 6.980669e-01 7.455958e-01 7.515233e-01 7.964503e-01 8.024428e-01 8.451674e-01 8.503926e-01 8.924781e-01 8.966957e-01 
8.006708e-01 8.024315e-01 8.438829e-01 8.460443e-01 8.912150e-01 8.942822e-01 9.439659e-01 9.472158e-01 1.000098e+00 1.003883e+00 1.057963e+00 1.063885e+00 1.116719e+00 1.129581e+00 2.901127e-01 2.807942e-01 -5.441325e-01 -5.550304e-01 -1.394050e+00 -1.385593e+00 -2.266581e+00 -2.224210e+00 -2.200025e+00 -2.172937e+00 -2.145534e+00 -2.125326e+00 -2.092043e+00 -2.071112e+00 -2.030801e+00 -2.009031e+00 -1.969677e+00 -1.953105e+00 -1.920913e+00 -1.911483e+00 -1.885793e+00 -1.877219e+00 -1.850223e+00 -1.836440e+00 -1.803882e+00 -1.783886e+00 -1.747794e+00 -1.726420e+00 -1.690267e+00 -1.666739e+00 -1.627830e+00 -1.600171e+00 -1.556620e+00 -1.524923e+00 -1.479159e+00 -1.448467e+00 -1.405652e+00 -1.379737e+00 -1.341035e+00 -1.318739e+00 -1.279880e+00 -1.257595e+00 -1.218459e+00 -1.198588e+00 -1.164357e+00 -1.157121e+00 -1.127747e+00 -1.118309e+00 -1.087213e+00 -1.071093e+00 -1.026056e+00 -1.007238e+00 -9.661550e-01 -9.470540e-01 -9.059385e-01 -8.863112e-01 -8.379061e-01 -8.107649e-01 -7.557991e-01 -7.311820e-01 -6.832198e-01 -6.669595e-01 -6.273707e-01 -6.172839e-01 -5.818153e-01 -5.724754e-01 -5.366893e-01 -5.255324e-01 -4.886306e-01 -4.757690e-01 -4.367788e-01 -4.203110e-01 -3.768902e-01 -3.563512e-01 -3.104990e-01 -2.888630e-01 -2.443897e-01 -2.243050e-01 -1.805756e-01 -1.614522e-01 -1.182131e-01 -1.007570e-01 -5.606469e-02 -3.922707e-02 7.856272e-03 2.397529e-02 7.182893e-02 8.530721e-02 1.336079e-01 1.447431e-01 1.944407e-01 2.044270e-01 2.566489e-01 2.658491e-01 3.184483e-01 3.247574e-01 3.758926e-01 3.790380e-01 4.280961e-01 4.301013e-01 4.790783e-01 4.830066e-01 5.321919e-01 5.379106e-01 5.849976e-01 5.900221e-01 6.331796e-01 6.368420e-01 6.764897e-01 6.806334e-01 7.186525e-01 7.217678e-01 7.595736e-01 7.617035e-01 
9.398465e-01 9.424927e-01 9.851538e-01 9.880084e-01 1.035995e+00 1.040172e+00 1.096356e+00 1.102221e+00 1.161280e+00 1.165940e+00 1.227588e+00 1.227349e+00 1.289388e+00 1.281080e+00 4.492194e-01 3.651540e-01 -4.148450e-01 -5.125807e-01 -1.311833e+00 -1.367961e+00 -2.265372e+00 -2.226787e+00 -2.206219e+00 -2.201492e+00 -2.181438e+00 -2.183058e+00 -2.148705e+00 -2.132083e+00 -2.075435e+00 -2.046397e+00 -1.993117e+00 -1.977807e+00 -1.948352e+00 -1.954492e+00 -1.941309e+00 -1.945594e+00 -1.921063e+00 -1.905341e+00 -1.861885e+00 -1.832232e+00 -1.786142e+00 -1.763095e+00 -1.728410e+00 -1.709529e+00 -1.673120e+00 -1.643697e+00 -1.590082e+00 -1.545035e+00 -1.484110e+00 -1.443981e+00 -1.397251e+00 -1.374958e+00 -1.342045e+00 -1.323187e+00 -1.280297e+00 -1.248837e+00 -1.197176e+00 -1.170132e+00 -1.133198e+00 -1.129723e+00 -1.109118e+00 -1.110502e+00 -1.082557e+00 -1.068211e+00 -1.022159e+00 -1.000328e+00 -9.561786e-01 -9.365977e-01 -8.935061e-01 -8.698659e-01 -8.135283e-01 -7.738957e-01 -7.059658e-01 -6.697864e-01 -6.165550e-01 -6.014543e-01 -5.675216e-01 -5.637372e-01 -5.327953e-01 -5.246936e-01 -4.879599e-01 -4.755426e-01 -4.385038e-01 -4.265729e-01 -3.881639e-01 -3.700837e-01 -3.229861e-01 -2.988142e-01 -2.497764e-01 -2.267428e-01 -1.819521e-01 -1.609067e-01 -1.169116e-01 -9.639242e-02 -5.421147e-02 -3.612733e-02 1.038424e-02 3.268062e-02 8.668569e-02 1.104894e-01 1.619638e-01 1.778851e-01 2.244497e-01 2.357555e-01 2.848392e-01 2.981792e-01 3.542336e-01 3.695864e-01 4.265603e-01 4.370210e-01 4.888320e-01 4.912394e-01 5.373153e-01 5.368508e-01 5.848888e-01 5.901498e-01 6.430124e-01 6.533179e-01 7.067047e-01 7.157607e-01 7.641924e-01 7.676141e-01 8.103933e-01 8.166231e-01 8.548005e-01 8.595277e-01 8.971820e-01 9.005304e-01 
7.938528e-01 7.919307e-01 8.280681e-01 8.279594e-01 8.700323e-01 8.762048e-01 9.318307e-01 9.345707e-01 9.965139e-01 9.952156e-01 1.059876e+00 1.047731e+00 1.110614e+00 1.080489e+00 3.404641e-01 2.535384e-01 -4.504449e-01 -5.375320e-01 -1.267452e+00 -1.309724e+00 -2.160348e+00 -2.125937e+00 -2.124071e+00 -2.129973e+00 -2.120130e+00 -2.130900e+00 -2.105188e+00 -2.082852e+00 -2.010252e+00 -1.965135e+00 -1.905050e+00 -1.887981e+00 -1.867838e+00 -1.894549e+00 -1.908525e+00 -1.929516e+00 -1.919946e+00 -1.907952e+00 -1.862102e+00 -1.818962e+00 -1.767240e+00 -1.749982e+00 -1.724991e+00 -1.709250e+00 -1.678176e+00 -1.644951e+00 -1.583122e+00 -1.521292e+00 -1.450390e+00 -1.403052e+00 -1.354117e+00 -1.335726e+00 -1.318448e+00 -1.311257e+00 -1.269029e+00 -1.228173e+00 -1.165975e+00 -1.135244e+00 -1.105763e+00 -1.118361e+00 -1.116206e+00 -1.136684e+00 -1.119926e+00 -1.115627e+00 -1.078466e+00 -1.067193e+00 -1.031281e+00 -1.008438e+00 -9.564782e-01 -9.180695e-01 -8.455470e-01 -7.860409e-01 -7.026894e-01 -6.576566e-01 -6.018717e-01 -5.935628e-01 -5.711385e-01 -5.836084e-01 -5.687955e-01 -5.724266e-01 -5.426588e-01 -5.346185e-01 -5.039763e-01 -5.018248e-01 -4.744255e-01 -4.621383e-01 -4.125314e-01 -3.818236e-01 -3.215411e-01 -2.898812e-01 -2.466533e-01 -2.255816e-01 -1.809352e-01 -1.559473e-01 -1.199686e-01 -1.066756e-01 -6.545872e-02 -4.734855e-02 7.803100e-03 3.217174e-02 8.196875e-02 9.461081e-02 1.384149e-01 1.449803e-01 1.892652e-01 1.988795e-01 2.621481e-01 2.838115e-01 3.493054e-01 3.609909e-01 4.183361e-01 4.130532e-01 4.518754e-01 4.372090e-01 4.807876e-01 4.815215e-01 5.388179e-01 5.561134e-01 6.131385e-01 6.222375e-01 6.633070e-01 6.587187e-01 6.894009e-01 6.981600e-01 7.292202e-01 7.309365e-01 7.621694e-01 7.609173e-01 
9.292914e-01 9.275621e-01 9.594221e-01 9.577239e-01 9.930120e-01 9.930979e-01 1.072874e+00 1.094442e+00 1.153696e+00 1.175576e+00 1.245955e+00 1.255721e+00 1.313556e+00 1.253025e+00 6.020861e-01 2.261221e-01 -1.753881e-01 -5.441205e-01 -9.443243e-01 -1.248079e+00 -1.871179e+00 -1.937410e+00 -1.918477e+00 -2.041316e+00 -2.103750e+00 -2.222244e+00 -2.223506e+00 -2.183820e+00 -2.018392e+00 -1.876902e+00 -1.732903e+00 -1.689743e+00 -1.703365e+00 -1.819523e+00 -1.934041e+00 -2.026601e+00 -2.038528e+00 -1.993871e+00 -1.876784e+00 -1.760768e+00 -1.653669e+00 -1.635859e+00 -1.656866e+00 -1.705164e+00 -1.737279e+00 -1.725870e+00 -1.624808e+00 -1.485086e+00 -1.322911e+00 -1.221680e+00 -1.179172e+00 -1.224651e+00 -1.294260e+00 -1.341720e+00 -1.293323e+00 -1.187865e+00 -1.035970e+00 -9.403356e-01 -9.022506e-01 -9.731369e-01 -1.062677e+00 -1.159388e+00 -1.162658e+00 -1.124230e+00 -1.025221e+00 -9.690222e-01 -9.270855e-01 -9.422573e-01 -9.516211e-01 -9.561225e-01 -8.751153e-01 -7.474439e-01 -5.700857e-01 -4.526392e-01 -3.767729e-01 -4.043374e-01 -4.441868e-01 -5.105806e-01 -5.196847e-01 -5.151098e-01 -4.603343e-01 -4.340677e-01 -4.067421e-01 -4.248107e-01 -4.157405e-01 -3.964166e-01 -3.214350e-01 -2.700444e-01 -2.017966e-01 -1.803280e-01 -1.491788e-01 -1.314449e-01 -8.690961e-02 -6.230999e-02 -4.725443e-02 -5.668483e-02 -2.170777e-02 1.729274e-02 1.175281e-01 1.845999e-01 2.480215e-01 2.495352e-01 2.599702e-01 2.404603e-01 2.713277e-01 2.874598e-01 3.685691e-01 4.127711e-01 4.974229e-01 5.216536e-01 5.719671e-01 5.487483e-01 5.606071e-01 5.219385e-01 5.554345e-01 5.618547e-01 6.311980e-01 6.654610e-01 7.430772e-01 7.721346e-01 8.267632e-01 7.959221e-01 8.361191e-01 8.555990e-01 8.723084e-01 8.761732e-01 9.006742e-01 9.004829e-01 
7.768531e-01 7.613409e-01 7.811220e-01 7.607918e-01 7.755390e-01 7.439485e-01 8.023292e-01 8.241109e-01 8.262464e-01 8.584781e-01 8.657760e-01 8.927832e-01 8.751801e-01 8.075759e-01 6.217719e-01 5.115150e-01 4.141836e-01 3.239128e-01 2.822465e-01 2.431278e-01 1.498280e-01 1.027559e-01 9.634058e-02 -5.536728e-02 -2.120023e-01 -3.781130e-01 -4.333095e-01 -3.964652e-01 -2.491633e-01 -8.311401e-02 6.507602e-02 1.129566e-01 6.200852e-02 -8.177156e-02 -2.345336e-01 -3.535530e-01 -3.723774e-01 -3.119734e-01 -1.746354e-01 -5.785763e-02 4.895459e-02 5.748777e-02 -2.074454e-03 -1.168732e-01 -2.119503e-01 -2.556772e-01 -1.771786e-01 -5.366961e-02 1.182396e-01 2.084637e-01 2.095588e-01 9.730205e-02 -2.730797e-02 -1.144701e-01 -9.029954e-02 1.117109e-02 1.720892e-01 2.782195e-01 3.120868e-01 2.179834e-01 8.272046e-02 -4.214997e-02 -5.558670e-02 7.920022e-03 1.404586e-01 2.275258e-01 2.643706e-01 1.876899e-01 8.754183e-02 -4.698404e-03 1.861122e-02 1.236106e-01 3.041607e-01 4.314354e-01 4.941986e-01 4.409152e-01 3.659899e-01 2.840248e-01 2.785558e-01 3.000065e-01 3.715514e-01 4.036274e-01 4.267435e-01 3.989665e-01 4.018034e-01 4.151319e-01 4.759064e-01 4.948749e-01 5.121259e-01 4.710404e-01 4.665308e-01 4.457732e-01 4.576133e-01 4.370091e-01 4.244566e-01 3.821154e-01 4.007810e-01 4.401604e-01 5.442120e-01 6.166209e-01 6.662421e-01 6.441137e-01 6.065446e-01 5.548469e-01 5.529135e-01 5.566560e-01 5.965306e-01 6.160222e-01 6.565599e-01 6.612547e-01 6.569160e-01 6.144405e-01 5.912083e-01 5.447713e-01 5.528024e-01 5.482330e-01 5.924806e-01 5.959255e-01 6.634259e-01 6.793547e-01 7.507542e-01 6.945434e-01 7.607641e-01 7.539683e-01 7.650486e-01 7.512473e-01 7.697305e-01 7.559882e-01 
9.124246e-01 8.999010e-01 9.190649e-01 9.047992e-01 9.167965e-01 8.962417e-01 9.139120e-01 9.323178e-01 9.118842e-01 9.452464e-01 9.187484e-01 9.589337e-01 9.208817e-01 9.316850e-01 8.439023e-01 8.464608e-01 7.950028e-01 8.027854e-01 7.759855e-01 8.024199e-01 7.789632e-01 8.149084e-01 8.178120e-01 7.739811e-01 6.881442e-01 6.227171e-01 5.870232e-01 5.985117e-01 6.347850e-01 6.954341e-01 7.477420e-01 7.657045e-01 7.417776e-01 6.910570e-01 6.418477e-01 5.959118e-01 6.004180e-01 6.267683e-01 6.902139e-01 7.231636e-01 7.686642e-01 7.720935e-01 7.551126e-01 6.912050e-01 6.506015e-01 6.115711e-01 6.398346e-01 6.666479e-01 7.389721e-01 7.627018e-01 7.618490e-01 7.022608e-01 6.631702e-01 6.257881e-01 6.387259e-01 6.655109e-01 7.303008e-01 7.669785e-01 7.935388e-01 7.617142e-01 7.206938e-01 6.756383e-01 6.838033e-01 7.151073e-01 7.871467e-01 8.307112e-01 8.590490e-01 8.066364e-01 7.492044e-01 6.785909e-01 6.736674e-01 6.929522e-01 7.659931e-01 8.133412e-01 8.490132e-01 8.295494e-01 8.150111e-01 7.906862e-01 8.137671e-01 8.325903e-01 8.822782e-01 8.971351e-01 9.237722e-01 9.156915e-01 9.361035e-01 9.375351e-01 9.633221e-01 9.468943e-01 9.385690e-01 8.873150e-01 8.835349e-01 8.509029e-01 8.505641e-01 8.142145e-01 8.143921e-01 7.859053e-01 8.029639e-01 8.165887e-01 8.659827e-01 8.908269e-01 9.167786e-01 9.019061e-01 8.841337e-01 8.552110e-01 8.541051e-01 8.495298e-01 8.518552e-01 8.416610e-01 8.423769e-01 8.306720e-01 8.143793e-01 7.905345e-01 7.840611e-01 7.652733e-01 7.744926e-01 7.618670e-01 7.835078e-01 7.594502e-01 8.010780e-01 7.915398e-01 8.551649e-01 8.228800e-01 8.891984e-01 8.652400e-01 8.941860e-01 8.764477e-01 9.026636e-01 8.890457e-01 
7.710130e-01 7.539481e-01 7.728186e-01 7.568035e-01 7.712674e-01 7.570522e-01 7.665825e-01 7.688300e-01 7.632128e-01 7.743452e-01 7.626231e-01 7.759617e-01 7.636160e-01 7.697713e-01 7.676838e-01 7.772328e-01 7.865327e-01 7.967428e-01 8.178688e-01 8.254069e-01 8.511982e-01 8.461997e-01 8.530898e-01 8.228183e-01 7.976864e-01 7.639307e-01 7.502315e-01 7.389869e-01 7.425718e-01 7.469829e-01 7.578169e-01 7.528487e-01 7.452433e-01 7.242810e-01 7.129554e-01 6.916375e-01 6.956881e-01 6.935773e-01 7.154802e-01 7.158822e-01 7.340693e-01 7.298513e-01 7.334821e-01 7.072709e-01 7.017801e-01 6.789286e-01 6.935197e-01 6.901127e-01 7.167159e-01 7.158406e-01 7.261112e-01 7.060226e-01 7.065235e-01 6.910199e-01 7.022987e-01 7.004479e-01 7.238574e-01 7.269671e-01 7.437680e-01 7.337474e-01 7.324030e-01 7.147485e-01 7.218533e-01 7.192228e-01 7.438530e-01 7.474545e-01 7.646353e-01 7.428704e-01 7.366896e-01 7.101017e-01 7.171200e-01 7.157636e-01 7.469362e-01 7.585039e-01 7.852592e-01 7.809882e-01 7.926917e-01 7.841169e-01 8.037017e-01 8.061350e-01 8.350605e-01 8.362406e-01 8.592165e-01 8.515431e-01 8.681862e-01 8.571877e-01 8.695477e-01 8.498433e-01 8.525204e-01 8.190718e-01 8.233411e-01 7.931822e-01 7.956609e-01 7.668889e-01 7.734072e-01 7.529287e-01 7.643739e-01 7.562291e-01 7.743378e-01 7.705800e-01 7.846558e-01 7.748488e-01 7.757400e-01 7.611917e-01 7.638934e-01 7.536334e-01 7.537373e-01 7.394915e-01 7.395390e-01 7.253978e-01 7.239028e-01 7.071770e-01 7.113938e-01 6.929894e-01 7.040167e-01 6.828761e-01 7.014832e-01 6.739977e-01 7.069136e-01 6.852393e-01 7.329383e-01 7.077144e-01 7.556719e-01 7.289619e-01 7.619892e-01 7.402085e-01 7.670406e-01 7.482997e-01 
