# vtk DataFile Version 2.0
Comment goes here
ASCII

DATASET STRUCTURED_POINTS
FIELD FieldData 1
TIME 1 1 double
0.17000000
DIMENSIONS    128   16   1

ORIGIN    0.000   0.000   0.000
SPACING   0.0078125 0.015625   1.000

POINT_DATA   2048
SCALARS uMag double
LOOKUP_TABLE default

8.064930e-03 4.179092e-03 6.929143e-03 1.223953e-03 5.372889e-03 1.780735e-03 1.150652e-02 6.358479e-04 5.832854e-03 4.159055e-03 3.085148e-03 1.395674e-02 2.166353e-02 3.763783e-02 4.653639e-02 4.916562e-02 5.378886e-02 5.201153e-02 5.125025e-02 4.534475e-02 3.930722e-02 2.039872e-02 1.436444e-02 4.200762e-03 3.566136e-03 2.343216e-03 9.189625e-04 4.958196e-03 2.791271e-03 6.004896e-03 3.760086e-03 6.453912e-03 4.234392e-03 6.380656e-03 4.363464e-03 6.095543e-03 4.468855e-03 5.872163e-03 4.708437e-03 5.755073e-03 4.922793e-03 5.511736e-03 4.910169e-03 5.169486e-03 4.910890e-03 5.007579e-03 5.058136e-03 5.058218e-03 5.267651e-03 5.091592e-03 5.325634e-03 5.109998e-03 5.437954e-03 5.226356e-03 5.466898e-03 5.003362e-03 4.515517e-03 3.506919e-03 4.076052e-03 3.922997e-03 4.542274e-03 6.723269e-03 6.482800e-03 4.405784e-03 4.079849e-03 3.729583e-03 3.998252e-03 3.940002e-03 4.419443e-03 6.794093e-03 6.833308e-03 6.170538e-03 5.250355e-03 5.138242e-03 4.023355e-03 4.493703e-03 3.579521e-03 4.473354e-03 3.511095e-03 4.640478e-03 3.526515e-03 4.710625e-03 3.470274e-03 4.681408e-03 3.553151e-03 4.681887e-03 3.745769e-03 4.621138e-03 3.937418e-03 4.316699e-03 4.015479e-03 3.899992e-03 4.148892e-03 3.508648e-03 4.382895e-03 3.214194e-03 4.630623e-03 2.920095e-03 4.738423e-03 2.709625e-03 4.812621e-03 2.726306e-03 4.849305e-03 2.959432e-03 4.716763e-03 3.305480e-03 4.329443e-03 3.735002e-03 3.766043e-03 4.287012e-03 3.131068e-03 5.023364e-03 2.492526e-03 5.749685e-03 1.829497e-03 6.315827e-03 1.407869e-03 6.749365e-03 1.588010e-03 6.968604e-03 2.909258e-03 6.734835e-03 7.005492e-03 2.087237e-03 6.287285e-03 3.501357e-03 7.629393e-03 4.885314e-03 
3.844556e-03 1.303033e-03 3.665683e-03 2.980402e-03 3.270894e-03 9.292791e-03 9.043806e-03 6.063353e-03 5.692967e-03 8.986337e-03 9.820790e-03 1.860552e-02 2.421156e-02 2.481998e-02 1.155016e-02 7.702238e-03 2.863002e-03 4.271260e-03 6.809903e-03 1.225002e-02 2.520300e-02 2.507237e-02 1.616277e-02 1.057210e-02 6.408703e-03 4.580530e-03 2.579240e-03 2.521296e-03 1.050024e-03 2.359665e-03 6.512814e-04 2.500341e-03 6.719812e-04 2.120247e-03 5.556287e-04 1.933039e-03 7.730991e-04 1.851042e-03 1.054411e-03 1.692637e-03 1.169811e-03 1.387108e-03 1.114769e-03 1.214170e-03 1.317642e-03 1.214527e-03 1.451833e-03 1.090230e-03 1.387390e-03 7.096647e-04 8.065617e-04 5.017914e-04 5.071275e-04 1.212213e-03 1.826294e-03 4.086379e-03 6.550865e-03 8.127654e-03 6.198083e-03 6.050331e-03 7.209422e-03 3.827667e-03 5.642348e-03 6.116376e-03 3.142697e-03 2.211460e-03 1.337504e-03 1.573117e-03 6.621612e-03 9.158139e-03 9.656779e-03 9.728633e-03 7.662204e-03 6.293819e-03 4.273932e-03 3.405590e-03 2.009597e-03 1.899176e-03 8.014805e-04 1.180835e-03 2.918765e-04 9.350051e-04 3.007447e-04 8.801652e-04 1.130994e-04 8.201278e-04 1.129260e-04 7.549743e-04 3.016188e-04 5.231950e-04 4.534092e-04 1.428890e-04 7.405635e-04 4.725188e-04 6.946001e-04 7.901314e-04 9.833501e-04 9.474466e-04 1.123758e-03 1.217836e-03 1.078665e-03 1.315448e-03 1.168457e-03 9.709924e-04 1.153308e-03 7.475417e-04 7.859794e-04 5.513132e-04 7.184968e-04 5.966594e-04 9.368079e-04 1.511750e-03 1.083092e-03 2.175158e-03 1.973257e-03 2.455011e-03 2.472772e-03 3.054668e-03 2.313115e-03 3.719482e-03 1.374195e-03 5.194790e-03 5.195229e-03 4.744098e-03 2.853994e-03 1.400794e-03 3.973493e-03 1.328388e-03 
1.107949e-02 9.040982e-03 9.687568e-03 6.938088e-03 1.016259e-02 2.548640e-02 1.019034e-02 1.462435e-02 3.041040e-03 1.078708e-02 1.523784e-03 1.103279e-02 1.209236e-02 1.831391e-02 2.202078e-02 2.241422e-02 2.371311e-02 2.416522e-02 2.222067e-02 2.168937e-02 1.872415e-02 1.072742e-02 5.642687e-03 2.059827e-03 4.891475e-03 4.421525e-03 8.122787e-03 6.713285e-03 9.435984e-03 7.138114e-03 9.513849e-03 7.097372e-03 9.752859e-03 7.706512e-03 1.012534e-02 8.159429e-03 1.016129e-02 8.284474e-03 9.952832e-03 8.600437e-03 1.003646e-02 8.937847e-03 9.909598e-03 9.140213e-03 9.636060e-03 9.051045e-03 9.380951e-03 9.197263e-03 9.304068e-03 9.468828e-03 9.528015e-03 9.739127e-03 9.546464e-03 1.017720e-02 1.017141e-02 1.150376e-02 1.064802e-02 5.980515e-03 8.292132e-03 8.061434e-03 1.263050e-02 1.542583e-02 1.240888e-02 9.271581e-03 7.593982e-03 8.150647e-03 9.962757e-03 1.195379e-02 1.839784e-02 1.977801e-02 1.741768e-02 1.544924e-02 1.539087e-02 1.322900e-02 1.223195e-02 1.089924e-02 1.139904e-02 1.047796e-02 1.154542e-02 1.022399e-02 1.139368e-02 9.812146e-03 1.139195e-02 9.816689e-03 1.131907e-02 9.715399e-03 1.097553e-02 9.437068e-03 1.047826e-02 9.834822e-03 1.075234e-02 1.058464e-02 1.078855e-02 1.098565e-02 1.015080e-02 1.103025e-02 9.711112e-03 1.155851e-02 9.884012e-03 1.207408e-02 9.794871e-03 1.211560e-02 9.413023e-03 1.149729e-02 9.177166e-03 1.134185e-02 9.730926e-03 1.143621e-02 1.058985e-02 1.085128e-02 1.097551e-02 9.882992e-03 1.124038e-02 9.537651e-03 1.243288e-02 9.186997e-03 1.351996e-02 8.642720e-03 1.393984e-02 8.358813e-03 1.446869e-02 1.143251e-02 2.185241e-02 1.417159e-02 8.722130e-03 4.340437e-03 1.009026e-02 8.946971e-03 
9.976022e-03 1.279633e-02 1.797721e-02 2.604948e-02 3.698089e-02 1.508326e-02 2.822606e-02 2.093311e-02 2.383168e-02 2.152411e-02 2.155555e-02 2.158480e-02 1.871398e-02 2.406112e-02 2.199359e-02 2.614079e-02 2.284431e-02 2.666472e-02 2.247982e-02 2.533245e-02 2.080913e-02 2.100448e-02 2.075769e-02 2.178364e-02 2.095597e-02 2.205493e-02 2.166794e-02 2.209265e-02 2.178126e-02 2.168224e-02 2.203128e-02 2.151499e-02 2.209086e-02 2.110788e-02 2.207817e-02 2.115227e-02 2.242948e-02 2.122440e-02 2.254821e-02 2.135433e-02 2.261759e-02 2.125840e-02 2.226888e-02 2.125981e-02 2.225735e-02 2.137312e-02 2.204448e-02 2.133063e-02 2.155020e-02 2.082286e-02 2.054781e-02 2.008904e-02 1.948259e-02 1.900615e-02 1.751657e-02 1.649069e-02 1.364892e-02 1.237726e-02 1.438742e-02 1.556324e-02 1.654865e-02 1.961304e-02 1.922192e-02 2.006724e-02 2.002537e-02 2.112154e-02 2.268115e-02 2.404499e-02 2.679069e-02 2.933857e-02 2.932013e-02 2.985788e-02 2.844771e-02 2.700554e-02 2.622414e-02 2.499486e-02 2.493537e-02 2.400242e-02 2.427435e-02 2.319351e-02 2.357888e-02 2.251668e-02 2.320847e-02 2.247724e-02 2.331076e-02 2.232408e-02 2.279488e-02 2.189974e-02 2.256203e-02 2.208864e-02 2.298600e-02 2.260326e-02 2.285746e-02 2.226094e-02 2.210291e-02 2.208449e-02 2.219177e-02 2.261548e-02 2.246143e-02 2.284607e-02 2.212761e-02 2.270655e-02 2.177427e-02 2.254883e-02 2.143203e-02 2.277577e-02 2.140668e-02 2.322033e-02 2.173822e-02 2.339309e-02 2.192082e-02 2.360520e-02 2.165682e-02 2.371752e-02 2.152877e-02 2.364716e-02 2.208724e-02 2.364653e-02 2.260330e-02 2.345372e-02 2.383862e-02 2.318277e-02 3.152698e-02 3.441557e-02 3.692408e-02 1.760881e-02 1.433969e-02 1.059309e-02 
3.348245e-02 3.742556e-02 3.972696e-02 4.963310e-02 5.857154e-02 5.535194e-02 2.800502e-02 4.012369e-02 2.763741e-02 3.469637e-02 2.523679e-02 2.897408e-02 1.848955e-02 2.254543e-02 2.147764e-02 2.236862e-02 2.247861e-02 2.212532e-02 2.264295e-02 2.166593e-02 2.233018e-02 2.020696e-02 2.773516e-02 2.659880e-02 3.143150e-02 3.018378e-02 3.354340e-02 3.216213e-02 3.436509e-02 3.263242e-02 3.406845e-02 3.269510e-02 3.422010e-02 3.358604e-02 3.462259e-02 3.397486e-02 3.439460e-02 3.395103e-02 3.402412e-02 3.409219e-02 3.397769e-02 3.432156e-02 3.387450e-02 3.423323e-02 3.330980e-02 3.364962e-02 3.272339e-02 3.322468e-02 3.218463e-02 3.274018e-02 3.172458e-02 3.179587e-02 3.000729e-02 2.950693e-02 2.692035e-02 2.522933e-02 2.039000e-02 1.878085e-02 2.189684e-02 2.353835e-02 2.420962e-02 3.078952e-02 3.077691e-02 2.965065e-02 2.988364e-02 3.146046e-02 3.353481e-02 3.558575e-02 3.899784e-02 4.528045e-02 4.762125e-02 4.675391e-02 4.462505e-02 4.172639e-02 3.972528e-02 3.840941e-02 3.771205e-02 3.710863e-02 3.693646e-02 3.634075e-02 3.634497e-02 3.566000e-02 3.602992e-02 3.532352e-02 3.559491e-02 3.504606e-02 3.533571e-02 3.477340e-02 3.481214e-02 3.492842e-02 3.488700e-02 3.534070e-02 3.488778e-02 3.592281e-02 3.465905e-02 3.590749e-02 3.420024e-02 3.612371e-02 3.424665e-02 3.652837e-02 3.435104e-02 3.665575e-02 3.415506e-02 3.602744e-02 3.403284e-02 3.574100e-02 3.462334e-02 3.568161e-02 3.529951e-02 3.494138e-02 3.551406e-02 3.377727e-02 3.595362e-02 3.344697e-02 3.738433e-02 3.346557e-02 3.838407e-02 3.307369e-02 3.887130e-02 3.311344e-02 3.952452e-02 3.527556e-02 4.058407e-02 7.163207e-02 5.362379e-02 4.457379e-02 3.588322e-02 3.609996e-02 
3.700609e-02 3.930914e-02 4.121536e-02 4.676086e-02 5.400174e-02 6.466549e-02 5.953793e-02 6.093897e-02 5.560195e-02 5.755938e-02 5.229645e-02 5.336881e-02 4.650825e-02 4.635367e-02 4.612532e-02 4.629043e-02 4.625656e-02 4.620824e-02 4.631424e-02 4.612079e-02 4.630140e-02 4.680323e-02 5.315542e-02 5.277183e-02 5.595490e-02 5.571843e-02 5.809024e-02 5.739966e-02 5.892186e-02 5.764549e-02 5.911308e-02 5.775656e-02 5.927780e-02 5.801400e-02 5.950594e-02 5.832409e-02 5.965764e-02 5.841279e-02 5.953732e-02 5.862416e-02 5.955218e-02 5.870116e-02 5.926354e-02 5.867767e-02 5.899470e-02 5.851313e-02 5.860620e-02 5.836124e-02 5.811194e-02 5.791644e-02 5.741376e-02 5.723927e-02 5.632588e-02 5.607196e-02 5.467176e-02 5.437402e-02 5.203633e-02 5.122927e-02 5.329588e-02 5.382014e-02 5.376351e-02 5.486885e-02 5.472212e-02 5.698012e-02 5.763317e-02 5.889120e-02 5.892046e-02 5.936855e-02 5.949732e-02 5.815356e-02 5.757221e-02 5.829126e-02 5.909802e-02 5.972939e-02 5.996995e-02 5.985739e-02 6.042443e-02 6.006381e-02 6.074903e-02 5.993118e-02 6.059486e-02 5.956418e-02 6.054906e-02 5.961322e-02 6.059777e-02 5.950070e-02 6.020310e-02 5.915016e-02 5.981813e-02 5.945833e-02 6.012086e-02 6.009527e-02 6.006489e-02 6.017690e-02 5.944557e-02 6.012133e-02 5.923260e-02 6.067142e-02 5.943424e-02 6.106573e-02 5.928389e-02 6.103216e-02 5.891854e-02 6.061135e-02 5.868483e-02 6.054412e-02 5.901529e-02 6.071214e-02 5.958965e-02 6.042492e-02 5.982312e-02 5.988234e-02 6.007781e-02 5.955726e-02 6.085872e-02 5.955562e-02 6.184577e-02 5.954440e-02 6.258451e-02 5.970609e-02 6.388953e-02 6.097242e-02 6.781733e-02 6.452685e-02 4.829404e-02 4.468444e-02 3.883073e-02 3.861783e-02 
4.729547e-02 4.944547e-02 4.922485e-02 5.302706e-02 5.413177e-02 6.007257e-02 6.248472e-02 6.343200e-02 6.171168e-02 6.440414e-02 6.265434e-02 6.608205e-02 6.462447e-02 6.350993e-02 6.323615e-02 6.344157e-02 6.340363e-02 6.334104e-02 6.349258e-02 6.324918e-02 6.349025e-02 6.502515e-02 6.562372e-02 6.344829e-02 6.369700e-02 6.280304e-02 6.345948e-02 6.264827e-02 6.336679e-02 6.244097e-02 6.337357e-02 6.239176e-02 6.333262e-02 6.230041e-02 6.329918e-02 6.239724e-02 6.337339e-02 6.250001e-02 6.333808e-02 6.261508e-02 6.326190e-02 6.262737e-02 6.302884e-02 6.263075e-02 6.288422e-02 6.265314e-02 6.267496e-02 6.262190e-02 6.241310e-02 6.247255e-02 6.207937e-02 6.238154e-02 6.202335e-02 6.262715e-02 6.248676e-02 6.370328e-02 6.457491e-02 6.560007e-02 6.369496e-02 6.447824e-02 6.429880e-02 6.412140e-02 6.393449e-02 6.390553e-02 6.222038e-02 6.275075e-02 6.165633e-02 6.235930e-02 6.211182e-02 6.250967e-02 6.206620e-02 6.168353e-02 6.185809e-02 6.314621e-02 6.365025e-02 6.396968e-02 6.425694e-02 6.413803e-02 6.444223e-02 6.403010e-02 6.436417e-02 6.382505e-02 6.426532e-02 6.377476e-02 6.424351e-02 6.369014e-02 6.397265e-02 6.355539e-02 6.378862e-02 6.369701e-02 6.380684e-02 6.398793e-02 6.366512e-02 6.400234e-02 6.331454e-02 6.408664e-02 6.323176e-02 6.439527e-02 6.324071e-02 6.456014e-02 6.309409e-02 6.453041e-02 6.295021e-02 6.443512e-02 6.289835e-02 6.438552e-02 6.301357e-02 6.435586e-02 6.328049e-02 6.421643e-02 6.352978e-02 6.403268e-02 6.374246e-02 6.376361e-02 6.395193e-02 6.356274e-02 6.427192e-02 6.343772e-02 6.436929e-02 6.326486e-02 6.421048e-02 6.294412e-02 6.401482e-02 5.827952e-02 5.351735e-02 5.170351e-02 4.861784e-02 4.894449e-02 
4.633094e-02 4.770411e-02 4.802315e-02 5.062240e-02 5.182540e-02 5.517632e-02 5.644323e-02 5.899233e-02 6.012220e-02 6.259622e-02 6.544094e-02 6.791594e-02 7.422011e-02 7.405830e-02 7.397512e-02 7.404259e-02 7.402222e-02 7.400920e-02 7.405379e-02 7.397053e-02 7.406286e-02 7.431485e-02 6.713038e-02 6.585129e-02 6.266446e-02 6.195935e-02 6.079551e-02 6.000928e-02 5.988318e-02 5.891872e-02 5.940823e-02 5.833173e-02 5.916995e-02 5.805449e-02 5.905979e-02 5.796586e-02 5.899777e-02 5.796223e-02 5.892292e-02 5.801902e-02 5.884402e-02 5.808602e-02 5.872721e-02 5.815127e-02 5.860312e-02 5.820324e-02 5.845829e-02 5.823483e-02 5.829091e-02 5.821723e-02 5.809913e-02 5.817123e-02 5.792219e-02 5.813778e-02 5.779967e-02 5.811036e-02 5.750463e-02 5.740968e-02 5.818747e-02 5.854938e-02 5.855449e-02 5.984691e-02 5.929062e-02 5.986036e-02 5.973601e-02 6.104811e-02 6.134644e-02 6.145004e-02 6.255393e-02 6.325943e-02 6.266511e-02 6.329746e-02 6.241181e-02 6.105490e-02 6.062748e-02 5.981544e-02 5.993958e-02 5.928029e-02 5.970752e-02 5.902487e-02 5.960314e-02 5.887676e-02 5.954198e-02 5.882244e-02 5.947831e-02 5.879752e-02 5.934917e-02 5.880783e-02 5.922152e-02 5.893877e-02 5.914755e-02 5.914135e-02 5.902576e-02 5.929970e-02 5.883979e-02 5.945248e-02 5.870674e-02 5.964844e-02 5.863374e-02 5.979386e-02 5.855063e-02 5.982998e-02 5.847621e-02 5.976912e-02 5.847238e-02 5.968828e-02 5.859654e-02 5.958361e-02 5.881197e-02 5.938834e-02 5.903231e-02 5.911257e-02 5.924504e-02 5.879442e-02 5.943636e-02 5.843092e-02 5.948552e-02 5.793310e-02 5.915805e-02 5.715351e-02 5.815788e-02 5.578952e-02 5.591319e-02 5.297195e-02 5.064833e-02 4.911755e-02 4.721914e-02 4.717702e-02 
5.117155e-02 5.268852e-02 5.234521e-02 5.489302e-02 5.539368e-02 5.848364e-02 5.974283e-02 6.212696e-02 6.342227e-02 6.577744e-02 6.855704e-02 7.078995e-02 7.718095e-02 7.734888e-02 7.722697e-02 7.731964e-02 7.729815e-02 7.726712e-02 7.735196e-02 7.721330e-02 7.736765e-02 7.716245e-02 6.978762e-02 6.888795e-02 6.586522e-02 6.525177e-02 6.417460e-02 6.348159e-02 6.337898e-02 6.258429e-02 6.301300e-02 6.215573e-02 6.285587e-02 6.197399e-02 6.277922e-02 6.192464e-02 6.273413e-02 6.196261e-02 6.270745e-02 6.206827e-02 6.268928e-02 6.220121e-02 6.266450e-02 6.235935e-02 6.267375e-02 6.257738e-02 6.275761e-02 6.287572e-02 6.294159e-02 6.327661e-02 6.328261e-02 6.387526e-02 6.394398e-02 6.487948e-02 6.516618e-02 6.654934e-02 6.702810e-02 6.815613e-02 6.670404e-02 6.672624e-02 6.637001e-02 6.549626e-02 6.415507e-02 6.538166e-02 6.452812e-02 6.415509e-02 6.305668e-02 6.337291e-02 6.243876e-02 6.070148e-02 5.929614e-02 6.019910e-02 6.078833e-02 6.135914e-02 6.164856e-02 6.189030e-02 6.224015e-02 6.227425e-02 6.265742e-02 6.250409e-02 6.289770e-02 6.262141e-02 6.300547e-02 6.268435e-02 6.302663e-02 6.273400e-02 6.298455e-02 6.280231e-02 6.291252e-02 6.290567e-02 6.282104e-02 6.303826e-02 6.270837e-02 6.317544e-02 6.258438e-02 6.331920e-02 6.247573e-02 6.345544e-02 6.239008e-02 6.356470e-02 6.233176e-02 6.362380e-02 6.230285e-02 6.361673e-02 6.231230e-02 6.355918e-02 6.238842e-02 6.346407e-02 6.252889e-02 6.331905e-02 6.269174e-02 6.312189e-02 6.283728e-02 6.286038e-02 6.290029e-02 6.249668e-02 6.278167e-02 6.195352e-02 6.231573e-02 6.106644e-02 6.123185e-02 5.945923e-02 5.904771e-02 5.655462e-02 5.490347e-02 5.368816e-02 5.205109e-02 5.228116e-02 
4.632706e-02 4.770197e-02 4.802092e-02 5.062341e-02 5.182551e-02 5.518112e-02 5.644480e-02 5.899699e-02 6.011407e-02 6.259260e-02 6.543366e-02 6.792468e-02 7.422160e-02 7.406587e-02 7.398497e-02 7.405270e-02 7.403563e-02 7.402050e-02 7.406840e-02 7.398083e-02 7.407104e-02 7.431179e-02 6.716332e-02 6.589149e-02 6.273146e-02 6.199049e-02 6.080321e-02 5.997350e-02 5.986393e-02 5.890260e-02 5.942162e-02 5.836646e-02 5.924821e-02 5.814420e-02 5.916275e-02 5.805441e-02 5.908197e-02 5.805112e-02 5.901309e-02 5.813291e-02 5.897275e-02 5.827786e-02 5.896516e-02 5.847366e-02 5.899879e-02 5.873932e-02 5.912087e-02 5.907356e-02 5.933587e-02 5.951403e-02 5.971505e-02 6.013822e-02 6.042686e-02 6.121250e-02 6.184714e-02 6.322467e-02 6.463010e-02 6.583866e-02 6.330940e-02 6.313428e-02 6.277740e-02 6.122665e-02 5.994717e-02 6.052666e-02 6.003121e-02 5.954807e-02 5.871185e-02 5.901683e-02 5.818696e-02 5.696393e-02 5.591242e-02 5.554576e-02 5.626295e-02 5.702003e-02 5.790939e-02 5.803184e-02 5.872976e-02 5.846098e-02 5.912454e-02 5.862682e-02 5.931331e-02 5.869939e-02 5.938657e-02 5.872158e-02 5.936024e-02 5.873821e-02 5.928445e-02 5.880723e-02 5.919680e-02 5.892495e-02 5.908006e-02 5.907959e-02 5.895194e-02 5.925812e-02 5.882238e-02 5.944239e-02 5.868146e-02 5.958633e-02 5.856620e-02 5.972266e-02 5.851443e-02 5.981255e-02 5.849827e-02 5.979820e-02 5.850254e-02 5.969568e-02 5.859343e-02 5.955960e-02 5.879170e-02 5.938556e-02 5.904125e-02 5.914662e-02 5.929369e-02 5.884362e-02 5.946940e-02 5.844474e-02 5.946070e-02 5.789821e-02 5.911492e-02 5.712112e-02 5.813105e-02 5.576755e-02 5.590289e-02 5.296002e-02 5.064193e-02 4.911071e-02 4.721423e-02 4.717261e-02 
4.728772e-02 4.944159e-02 4.922185e-02 5.303100e-02 5.413885e-02 6.009202e-02 6.251262e-02 6.347329e-02 6.169997e-02 6.439647e-02 6.264725e-02 6.614775e-02 6.463318e-02 6.352201e-02 6.325267e-02 6.345681e-02 6.342810e-02 6.336436e-02 6.352970e-02 6.326775e-02 6.350744e-02 6.495466e-02 6.560675e-02 6.356323e-02 6.392820e-02 6.295999e-02 6.349191e-02 6.256929e-02 6.330881e-02 6.239395e-02 6.334669e-02 6.245758e-02 6.357904e-02 6.265081e-02 6.365956e-02 6.264116e-02 6.355156e-02 6.269445e-02 6.357475e-02 6.295210e-02 6.367752e-02 6.321468e-02 6.370024e-02 6.338779e-02 6.370292e-02 6.372139e-02 6.398436e-02 6.426955e-02 6.440772e-02 6.487877e-02 6.483722e-02 6.541419e-02 6.529122e-02 6.610871e-02 6.612439e-02 6.731725e-02 6.761185e-02 6.882795e-02 6.759502e-02 6.764361e-02 6.616960e-02 6.549643e-02 6.440143e-02 6.531675e-02 6.504139e-02 6.549349e-02 6.443810e-02 6.397367e-02 6.220920e-02 6.131496e-02 6.052277e-02 6.081355e-02 6.101637e-02 6.153373e-02 6.200889e-02 6.226860e-02 6.272131e-02 6.271099e-02 6.318740e-02 6.299962e-02 6.351623e-02 6.318291e-02 6.363562e-02 6.318823e-02 6.360251e-02 6.324286e-02 6.365510e-02 6.344797e-02 6.365269e-02 6.353513e-02 6.345796e-02 6.360847e-02 6.333442e-02 6.386190e-02 6.332938e-02 6.412109e-02 6.316296e-02 6.416309e-02 6.296425e-02 6.430981e-02 6.298358e-02 6.452140e-02 6.303275e-02 6.454034e-02 6.299087e-02 6.442355e-02 6.303703e-02 6.431247e-02 6.322036e-02 6.416967e-02 6.345874e-02 6.400503e-02 6.380118e-02 6.389556e-02 6.411705e-02 6.366526e-02 6.422003e-02 6.333034e-02 6.422952e-02 6.317534e-02 6.416465e-02 6.291049e-02 6.401314e-02 5.826439e-02 5.350896e-02 5.169338e-02 4.860869e-02 4.893674e-02 
3.699320e-02 3.930098e-02 4.120894e-02 4.676616e-02 5.401446e-02 6.470524e-02 5.957696e-02 6.096664e-02 5.553613e-02 5.748238e-02 5.224797e-02 5.341927e-02 4.651471e-02 4.637904e-02 4.615855e-02 4.632380e-02 4.630310e-02 4.624768e-02 4.638391e-02 4.617923e-02 4.635760e-02 4.676384e-02 5.326214e-02 5.304772e-02 5.640900e-02 5.597131e-02 5.798581e-02 5.697143e-02 5.863935e-02 5.749328e-02 5.907841e-02 5.787119e-02 5.961069e-02 5.838722e-02 5.989497e-02 5.858229e-02 5.985893e-02 5.862407e-02 5.970123e-02 5.875083e-02 5.962169e-02 5.899451e-02 5.972691e-02 5.932899e-02 5.982790e-02 5.983973e-02 6.017681e-02 6.025259e-02 6.043482e-02 6.079580e-02 6.072937e-02 6.107276e-02 6.088349e-02 6.132931e-02 6.110710e-02 6.194298e-02 6.204089e-02 6.296637e-02 6.244786e-02 6.283051e-02 6.198192e-02 6.181256e-02 6.089356e-02 6.091804e-02 6.023605e-02 6.033703e-02 5.974154e-02 5.967557e-02 5.902843e-02 5.884994e-02 5.855663e-02 5.838843e-02 5.854218e-02 5.860494e-02 5.923548e-02 5.913004e-02 5.980958e-02 5.931897e-02 5.999802e-02 5.924098e-02 6.011272e-02 5.937293e-02 6.030881e-02 5.937863e-02 6.019168e-02 5.922657e-02 5.996529e-02 5.930192e-02 5.996615e-02 5.951069e-02 5.982260e-02 5.975387e-02 5.966765e-02 5.997975e-02 5.955142e-02 6.033800e-02 5.927633e-02 6.038313e-02 5.903192e-02 6.066815e-02 5.907767e-02 6.097513e-02 5.914761e-02 6.093644e-02 5.892518e-02 6.059712e-02 5.891926e-02 6.042117e-02 5.934655e-02 6.037212e-02 5.987173e-02 6.014909e-02 6.047724e-02 5.988084e-02 6.103851e-02 5.958960e-02 6.162776e-02 5.927648e-02 6.237206e-02 5.959321e-02 6.379099e-02 6.088424e-02 6.780581e-02 6.450824e-02 4.827780e-02 4.467336e-02 3.881748e-02 3.860647e-02 
3.345712e-02 3.740804e-02 3.971235e-02 4.962981e-02 5.858287e-02 5.533622e-02 2.792102e-02 3.997063e-02 2.753559e-02 3.457964e-02 2.513958e-02 2.889353e-02 1.847303e-02 2.260021e-02 2.147363e-02 2.232301e-02 2.244062e-02 2.215172e-02 2.273527e-02 2.177550e-02 2.238731e-02 2.049689e-02 2.807038e-02 2.685270e-02 3.146835e-02 3.007875e-02 3.326055e-02 3.163535e-02 3.401160e-02 3.252566e-02 3.418454e-02 3.279216e-02 3.409151e-02 3.316901e-02 3.429310e-02 3.398668e-02 3.467254e-02 3.434452e-02 3.424881e-02 3.409844e-02 3.374134e-02 3.423305e-02 3.413292e-02 3.513420e-02 3.483200e-02 3.585480e-02 3.499840e-02 3.558545e-02 3.462320e-02 3.549529e-02 3.466037e-02 3.561532e-02 3.500352e-02 3.580748e-02 3.504176e-02 3.587344e-02 3.548426e-02 3.620292e-02 3.561076e-02 3.615327e-02 3.556999e-02 3.581579e-02 3.525818e-02 3.555807e-02 3.485927e-02 3.493036e-02 3.429038e-02 3.437616e-02 3.391490e-02 3.399348e-02 3.370968e-02 3.362937e-02 3.340178e-02 3.346221e-02 3.385876e-02 3.402249e-02 3.445268e-02 3.416957e-02 3.444835e-02 3.382554e-02 3.432096e-02 3.402012e-02 3.485578e-02 3.455036e-02 3.510785e-02 3.448401e-02 3.454084e-02 3.424390e-02 3.452828e-02 3.488212e-02 3.497024e-02 3.571514e-02 3.497780e-02 3.573931e-02 3.448249e-02 3.592676e-02 3.432731e-02 3.633382e-02 3.445544e-02 3.662814e-02 3.432788e-02 3.647357e-02 3.422090e-02 3.617482e-02 3.411680e-02 3.563998e-02 3.433580e-02 3.529991e-02 3.513549e-02 3.521399e-02 3.608662e-02 3.470979e-02 3.673716e-02 3.372457e-02 3.721099e-02 3.313795e-02 3.819233e-02 3.296568e-02 3.896080e-02 3.321738e-02 3.946421e-02 3.520244e-02 4.049721e-02 7.161538e-02 5.356751e-02 4.455373e-02 3.585335e-02 3.608138e-02 
9.941457e-03 1.276381e-02 1.795700e-02 2.603042e-02 3.699100e-02 1.522413e-02 2.845652e-02 2.116461e-02 2.395431e-02 2.162751e-02 2.164617e-02 2.186449e-02 1.888084e-02 2.426961e-02 2.218081e-02 2.630926e-02 2.301991e-02 2.679362e-02 2.255990e-02 2.537436e-02 2.058356e-02 2.082258e-02 2.066314e-02 2.202515e-02 2.148392e-02 2.242089e-02 2.170058e-02 2.196254e-02 2.172408e-02 2.167470e-02 2.204566e-02 2.180420e-02 2.282427e-02 2.213373e-02 2.309516e-02 2.172743e-02 2.275274e-02 2.148214e-02 2.283713e-02 2.177439e-02 2.310985e-02 2.193622e-02 2.304777e-02 2.171863e-02 2.266405e-02 2.186660e-02 2.293967e-02 2.259959e-02 2.351184e-02 2.333789e-02 2.375519e-02 2.345057e-02 2.344188e-02 2.333215e-02 2.326957e-02 2.367703e-02 2.381878e-02 2.446274e-02 2.424892e-02 2.455427e-02 2.378484e-02 2.375730e-02 2.297136e-02 2.315405e-02 2.273677e-02 2.309592e-02 2.265543e-02 2.262660e-02 2.192660e-02 2.178600e-02 2.148093e-02 2.155449e-02 2.167488e-02 2.183168e-02 2.205034e-02 2.193938e-02 2.221104e-02 2.196171e-02 2.244476e-02 2.211427e-02 2.270517e-02 2.223210e-02 2.266679e-02 2.190504e-02 2.238106e-02 2.181742e-02 2.250894e-02 2.204286e-02 2.260426e-02 2.185227e-02 2.216029e-02 2.156723e-02 2.191597e-02 2.184213e-02 2.216819e-02 2.215490e-02 2.193346e-02 2.187766e-02 2.154575e-02 2.205968e-02 2.171403e-02 2.262621e-02 2.191274e-02 2.284088e-02 2.169130e-02 2.281001e-02 2.143274e-02 2.298742e-02 2.133713e-02 2.313931e-02 2.131992e-02 2.327388e-02 2.165540e-02 2.367300e-02 2.192440e-02 2.377431e-02 2.188906e-02 2.331416e-02 2.218652e-02 2.320365e-02 2.371237e-02 2.309195e-02 3.161614e-02 3.438625e-02 3.688004e-02 1.758428e-02 1.432079e-02 1.057192e-02 
1.105959e-02 9.010395e-03 9.641571e-03 6.879003e-03 1.011281e-02 2.561293e-02 1.036772e-02 1.465843e-02 2.989480e-03 1.075497e-02 1.541832e-03 1.100257e-02 1.196320e-02 1.812424e-02 2.193033e-02 2.242022e-02 2.369588e-02 2.414043e-02 2.214744e-02 2.173832e-02 1.902093e-02 1.056261e-02 5.900581e-03 2.917063e-03 5.475062e-03 4.658113e-03 7.964064e-03 6.231317e-03 9.126856e-03 7.034592e-03 9.655752e-03 7.389151e-03 1.000566e-02 7.861409e-03 1.035710e-02 8.380346e-03 1.046442e-02 8.586991e-03 1.007159e-02 8.534797e-03 9.668896e-03 8.673923e-03 9.890414e-03 9.306020e-03 1.010251e-02 9.910045e-03 1.024222e-02 9.991406e-03 1.000689e-02 1.009206e-02 9.896171e-03 1.000168e-02 9.704713e-03 9.806560e-03 9.302732e-03 9.729316e-03 9.669330e-03 1.031537e-02 1.006792e-02 1.051256e-02 1.012647e-02 1.021176e-02 9.982438e-03 1.044629e-02 1.016948e-02 1.039135e-02 1.011952e-02 1.011858e-02 9.997840e-03 9.851421e-03 1.010492e-02 9.892402e-03 1.029772e-02 9.952816e-03 1.084739e-02 1.028538e-02 1.123638e-02 1.015709e-02 1.115847e-02 9.715529e-03 1.100292e-02 9.742724e-03 1.129994e-02 9.881362e-03 1.122521e-02 9.697324e-03 1.068196e-02 9.514609e-03 1.060507e-02 9.928881e-03 1.067140e-02 1.050559e-02 1.041824e-02 1.073839e-02 1.002726e-02 1.106568e-02 9.743162e-03 1.133010e-02 9.572910e-03 1.173486e-02 9.525751e-03 1.191195e-02 9.541552e-03 1.175673e-02 9.355087e-03 1.126320e-02 9.468073e-03 1.099708e-02 1.016060e-02 1.090723e-02 1.106124e-02 1.037538e-02 1.192226e-02 9.593517e-03 1.245348e-02 9.005733e-03 1.317626e-02 8.349314e-03 1.379484e-02 8.386255e-03 1.434552e-02 1.140682e-02 2.182627e-02 1.414122e-02 8.718640e-03 4.336880e-03 1.008549e-02 8.935508e-03 
3.833560e-03 1.280519e-03 3.633313e-03 2.973874e-03 3.221754e-03 9.332026e-03 9.081632e-03 6.058672e-03 5.729574e-03 8.988591e-03 9.779434e-03 1.860544e-02 2.429110e-02 2.492677e-02 1.162228e-02 7.766221e-03 2.917703e-03 4.216531e-03 6.683153e-03 1.201714e-02 2.506138e-02 2.506889e-02 1.647088e-02 1.103080e-02 6.748273e-03 4.727801e-03 2.682042e-03 2.647788e-03 1.044662e-03 2.294037e-03 5.732839e-04 2.441923e-03 6.861796e-04 2.360488e-03 8.214829e-04 1.884806e-03 6.578967e-04 1.651680e-03 9.267650e-04 1.760233e-03 1.354582e-03 1.600033e-03 1.362637e-03 1.058747e-03 9.978322e-04 5.961053e-04 9.649293e-04 8.377295e-04 1.326418e-03 9.160190e-04 1.427676e-03 9.541633e-04 1.441193e-03 1.061034e-03 1.687836e-03 1.350048e-03 1.875269e-03 1.513367e-03 2.155604e-03 1.659070e-03 1.695669e-03 1.086771e-03 1.427598e-03 9.556986e-04 1.174917e-03 9.462095e-04 1.508920e-03 1.373707e-03 1.246558e-03 8.292840e-04 7.565678e-04 7.350707e-04 4.846641e-04 7.581498e-04 5.292071e-04 9.374571e-04 4.196527e-04 9.137314e-04 2.219613e-04 1.172509e-03 3.244036e-04 1.162318e-03 3.082725e-04 8.543639e-04 1.516203e-04 9.119110e-04 2.720204e-04 9.781667e-04 6.087834e-04 4.987614e-04 6.140840e-04 2.222248e-04 3.934773e-04 5.682587e-04 8.106013e-04 6.134704e-04 1.049841e-03 1.019807e-03 9.696529e-04 1.298496e-03 1.124823e-03 1.175024e-03 1.231995e-03 9.315349e-04 1.197064e-03 6.391313e-04 9.050984e-04 6.708033e-04 4.143223e-04 8.504708e-04 8.848198e-04 1.124501e-03 1.559042e-03 1.948919e-03 1.900555e-03 2.645065e-03 2.367810e-03 3.081617e-03 2.389565e-03 3.747478e-03 1.307743e-03 5.296867e-03 5.170663e-03 4.720307e-03 2.872453e-03 1.406092e-03 3.977761e-03 1.327612e-03 
