# vtk DataFile Version 2.0
Comment goes here
ASCII

DATASET STRUCTURED_POINTS
FIELD FieldData 1
TIME 1 1 double
0.13000000
DIMENSIONS    128   16   1

ORIGIN    0.000   0.000   0.000
SPACING   0.0078125 0.015625   1.000

POINT_DATA   2048
SCALARS uX double
LOOKUP_TABLE default

5.255060e-03 3.334788e-03 3.997875e-03 1.701437e-03 2.606640e-03 1.770519e-03 8.712962e-03 -9.751476e-04 4.566481e-03 -4.688840e-03 -3.171251e-03 -1.373054e-02 -1.984331e-02 -3.462038e-02 -4.195604e-02 -4.585717e-02 -4.781637e-02 -4.805231e-02 -4.543860e-02 -4.126435e-02 -3.486733e-02 -1.924689e-02 -1.271050e-02 -4.677026e-03 -2.899518e-03 1.168043e-03 1.052621e-03 3.752911e-03 2.685635e-03 4.909432e-03 3.408251e-03 5.436431e-03 3.784171e-03 5.639872e-03 3.949471e-03 5.647762e-03 3.953090e-03 5.443691e-03 3.869995e-03 5.120451e-03 3.857000e-03 4.874972e-03 3.996849e-03 4.641441e-03 4.045893e-03 4.337234e-03 4.176206e-03 4.172369e-03 4.220084e-03 3.758609e-03 3.881338e-03 3.092902e-03 3.292620e-03 2.272684e-03 2.368835e-03 1.113318e-03 9.931113e-04 -7.313243e-04 -7.266055e-04 -1.058040e-03 1.190641e-03 5.728043e-03 5.672279e-03 9.782883e-04 -4.181260e-05 -7.075180e-04 -3.173207e-04 7.903234e-04 2.839818e-03 9.311700e-03 9.273725e-03 5.730837e-03 4.990185e-03 6.083182e-03 4.937097e-03 5.580240e-03 4.166630e-03 5.023288e-03 3.703738e-03 4.584371e-03 3.323143e-03 4.190300e-03 3.290875e-03 3.966747e-03 3.446154e-03 3.750617e-03 3.678023e-03 3.410067e-03 3.740936e-03 3.005769e-03 3.978937e-03 2.781916e-03 4.211096e-03 2.665142e-03 4.433815e-03 2.529965e-03 4.488111e-03 2.481743e-03 4.393695e-03 2.477740e-03 4.152953e-03 2.717595e-03 3.760425e-03 3.064056e-03 3.328777e-03 3.519951e-03 2.646467e-03 3.911031e-03 1.962005e-03 4.458082e-03 1.456994e-03 5.140534e-03 1.114900e-03 5.448719e-03 8.228967e-04 5.375724e-03 8.515901e-04 5.298451e-03 1.690187e-03 5.242944e-03 3.503774e-03 4.744459e-03 7.025663e-03 1.751194e-04 4.484815e-03 1.889583e-03 5.194183e-03 3.434034e-03 
1.401299e-03 -1.389957e-05 -1.349993e-04 -1.859245e-03 -3.358755e-03 -2.239596e-03 6.635920e-03 -2.943205e-03 4.309352e-03 -2.367389e-03 1.715209e-03 -2.047288e-03 -1.400293e-03 -6.579667e-04 1.876230e-03 2.491535e-03 2.097528e-03 3.382043e-03 1.164301e-03 2.865674e-03 -1.432069e-03 -4.660133e-04 -1.403821e-03 3.040278e-04 -6.824975e-04 6.948828e-04 -4.022617e-04 1.035185e-03 -6.205001e-04 8.922376e-04 -8.467026e-04 9.780556e-04 -3.881956e-04 1.400737e-03 -2.944489e-05 1.502672e-03 -2.059938e-04 1.037553e-03 -4.649283e-04 6.402351e-04 -4.406901e-04 5.763488e-04 3.747088e-05 5.236880e-04 -4.544922e-05 3.239825e-05 1.411560e-04 1.149071e-04 3.888815e-04 -1.329469e-04 2.905375e-04 -2.669626e-04 6.091142e-04 1.173405e-04 7.846718e-04 -5.764215e-05 -1.657433e-04 -1.337486e-03 4.701741e-04 -3.622218e-04 1.985042e-04 2.504779e-03 1.580554e-03 -2.231209e-03 -2.538962e-03 -2.975899e-03 -2.474363e-03 -2.922223e-03 -2.888480e-03 3.742360e-04 -2.877353e-04 -2.792332e-03 -4.059375e-03 -3.318077e-03 -3.464044e-03 -2.067456e-03 -2.419308e-03 -8.603958e-04 -1.537620e-03 -4.065306e-04 -1.344802e-03 -4.090377e-04 -1.226239e-03 -5.269541e-04 -9.235575e-04 -6.616049e-04 -5.731511e-04 -9.482114e-04 -6.953324e-04 -1.598621e-03 -3.908589e-04 -1.551789e-03 1.303906e-04 -1.382168e-03 4.382338e-04 -1.731795e-03 1.448028e-04 -2.020995e-03 1.572959e-04 -1.725261e-03 2.922868e-04 -1.325456e-03 -3.769253e-04 -1.493499e-03 -1.164179e-03 -1.016699e-03 -1.599805e-03 -3.011846e-04 -1.834657e-03 6.049116e-04 -2.435090e-03 1.024191e-03 -3.191017e-03 1.013954e-03 -3.628917e-03 1.129226e-03 -3.190156e-03 1.477147e-03 -2.195402e-03 1.649396e-03 -8.579865e-04 3.043231e-04 2.317531e-03 -6.997579e-03 -3.299050e-04 -2.135601e-03 1.285067e-03 -9.809526e-05 
8.142326e-03 6.473906e-03 4.160331e-03 -6.024676e-04 -8.586205e-03 -1.450073e-02 -5.380648e-03 -1.154231e-02 -4.285374e-03 -7.140809e-03 -1.290058e-03 2.075146e-04 7.205317e-03 1.254303e-02 1.562090e-02 1.785998e-02 1.776538e-02 1.894562e-02 1.672826e-02 1.554722e-02 1.265049e-02 5.521792e-03 9.039031e-04 -3.056256e-03 -5.430379e-03 -7.032799e-03 -8.417642e-03 -8.678794e-03 -9.778097e-03 -9.083236e-03 -1.047866e-02 -9.376118e-03 -1.099546e-02 -9.404026e-03 -1.079517e-02 -8.835872e-03 -1.065323e-02 -9.224323e-03 -1.079312e-02 -9.387404e-03 -1.088746e-02 -9.649424e-03 -1.075193e-02 -1.000640e-02 -1.108529e-02 -1.056749e-02 -1.081257e-02 -1.022195e-02 -9.806489e-03 -9.220472e-03 -8.519934e-03 -8.416711e-03 -7.589925e-03 -7.276535e-03 -5.750574e-03 -4.648484e-03 -2.293991e-03 -8.793039e-04 3.342327e-04 -1.180521e-03 -3.975347e-03 -1.291743e-02 -1.103745e-02 -4.318290e-03 -2.244155e-03 -1.930924e-03 -3.277639e-03 -5.465074e-03 -9.911369e-03 -1.984342e-02 -2.120186e-02 -1.400679e-02 -1.529634e-02 -1.466319e-02 -1.547836e-02 -1.340632e-02 -1.376174e-02 -1.132327e-02 -1.249363e-02 -1.104614e-02 -1.241731e-02 -1.126299e-02 -1.261719e-02 -1.133983e-02 -1.179919e-02 -1.120820e-02 -1.142703e-02 -1.145734e-02 -1.169487e-02 -1.258945e-02 -1.181208e-02 -1.276861e-02 -1.107019e-02 -1.241069e-02 -1.044325e-02 -1.258007e-02 -1.055671e-02 -1.289727e-02 -1.042950e-02 -1.250443e-02 -1.042915e-02 -1.261963e-02 -1.113601e-02 -1.269086e-02 -1.160361e-02 -1.193082e-02 -1.183890e-02 -1.153937e-02 -1.247605e-02 -1.068540e-02 -1.278679e-02 -1.001991e-02 -1.304737e-02 -9.970623e-03 -1.443690e-02 -1.057771e-02 -1.487303e-02 -1.059375e-02 -1.429190e-02 -1.049154e-02 -1.402850e-02 -1.266265e-02 -1.379275e-02 -1.638114e-02 -2.640658e-03 1.595895e-03 6.554822e-03 7.026340e-03 
8.981262e-03 7.808011e-03 5.843053e-03 2.454247e-04 -6.025972e-03 -2.066630e-02 -2.536191e-02 -1.930542e-02 -2.385076e-02 -1.923160e-02 -2.255860e-02 -1.954132e-02 -2.142747e-02 -2.172778e-02 -2.465879e-02 -2.494748e-02 -2.493599e-02 -2.588457e-02 -2.389379e-02 -2.538547e-02 -2.104015e-02 -2.194303e-02 -1.948988e-02 -2.157425e-02 -1.995011e-02 -2.191287e-02 -2.060760e-02 -2.218844e-02 -2.024820e-02 -2.113135e-02 -1.995181e-02 -2.103825e-02 -2.133105e-02 -2.170611e-02 -2.178822e-02 -2.116336e-02 -2.118481e-02 -2.066502e-02 -2.079269e-02 -2.023225e-02 -2.100051e-02 -2.070203e-02 -2.186670e-02 -2.130713e-02 -2.199646e-02 -2.114293e-02 -2.189767e-02 -2.107434e-02 -2.110550e-02 -1.967192e-02 -1.957990e-02 -1.911452e-02 -1.988497e-02 -1.975893e-02 -1.944781e-02 -1.832258e-02 -1.693517e-02 -1.663010e-02 -1.814534e-02 -1.835215e-02 -1.783750e-02 -2.017066e-02 -1.988128e-02 -1.998209e-02 -2.094414e-02 -2.205383e-02 -2.298232e-02 -2.261603e-02 -2.197491e-02 -2.299533e-02 -2.382896e-02 -2.298749e-02 -2.323006e-02 -2.205546e-02 -2.274926e-02 -2.169121e-02 -2.216477e-02 -2.121897e-02 -2.222510e-02 -2.169674e-02 -2.242824e-02 -2.203601e-02 -2.273593e-02 -2.200006e-02 -2.217365e-02 -2.175883e-02 -2.221753e-02 -2.177995e-02 -2.209122e-02 -2.212558e-02 -2.265894e-02 -2.281148e-02 -2.267428e-02 -2.300995e-02 -2.233247e-02 -2.258216e-02 -2.164158e-02 -2.235273e-02 -2.152440e-02 -2.251947e-02 -2.200533e-02 -2.331045e-02 -2.168725e-02 -2.263978e-02 -2.093554e-02 -2.230386e-02 -2.089764e-02 -2.289773e-02 -2.178999e-02 -2.323297e-02 -2.131195e-02 -2.257851e-02 -2.026804e-02 -2.193858e-02 -2.114481e-02 -2.262488e-02 -2.244116e-02 -2.308371e-02 -2.279731e-02 -2.276560e-02 -2.304299e-02 -2.164374e-02 -2.613986e-02 -1.147120e-02 -4.771553e-03 3.572572e-03 6.136315e-03 8.687514e-03 
3.505677e-02 3.601422e-02 3.747346e-02 3.905281e-02 4.449936e-02 4.241940e-02 2.832523e-02 3.833175e-02 2.755675e-02 3.443229e-02 2.645348e-02 2.965724e-02 2.236316e-02 2.517122e-02 2.502723e-02 2.539720e-02 2.573265e-02 2.536007e-02 2.563694e-02 2.530158e-02 2.463385e-02 2.434815e-02 2.777678e-02 2.864098e-02 3.103942e-02 3.100510e-02 3.267016e-02 3.204031e-02 3.390182e-02 3.289846e-02 3.464343e-02 3.322405e-02 3.429641e-02 3.282617e-02 3.368349e-02 3.243185e-02 3.379765e-02 3.313010e-02 3.413651e-02 3.348493e-02 3.404986e-02 3.339129e-02 3.330858e-02 3.331849e-02 3.355398e-02 3.393554e-02 3.325672e-02 3.346898e-02 3.251348e-02 3.299883e-02 3.183743e-02 3.228908e-02 3.054465e-02 3.056153e-02 2.844655e-02 2.756230e-02 2.357329e-02 2.240693e-02 2.445692e-02 2.610262e-02 2.681908e-02 3.349696e-02 3.135585e-02 2.868819e-02 2.858100e-02 2.934650e-02 3.112081e-02 3.224021e-02 3.415396e-02 4.028776e-02 4.082456e-02 3.737810e-02 3.737417e-02 3.652414e-02 3.650941e-02 3.545772e-02 3.544155e-02 3.403302e-02 3.446722e-02 3.382384e-02 3.451158e-02 3.401727e-02 3.470287e-02 3.416969e-02 3.416766e-02 3.414352e-02 3.378522e-02 3.435844e-02 3.420835e-02 3.537269e-02 3.405061e-02 3.507332e-02 3.320632e-02 3.445495e-02 3.272858e-02 3.486313e-02 3.331081e-02 3.535292e-02 3.324158e-02 3.478731e-02 3.294535e-02 3.450634e-02 3.393403e-02 3.506441e-02 3.487521e-02 3.446566e-02 3.506379e-02 3.373486e-02 3.517613e-02 3.265475e-02 3.576054e-02 3.243525e-02 3.667065e-02 3.292351e-02 3.782007e-02 3.338985e-02 3.770176e-02 3.337556e-02 3.717616e-02 3.389448e-02 3.736916e-02 3.773039e-02 3.605065e-02 4.899808e-02 3.776537e-02 3.848659e-02 3.469444e-02 3.593744e-02 
4.183385e-02 4.335536e-02 4.494912e-02 4.978607e-02 5.625918e-02 6.630422e-02 6.105470e-02 6.253615e-02 5.862283e-02 5.936182e-02 5.580821e-02 5.532766e-02 5.011824e-02 4.994232e-02 5.005781e-02 4.998410e-02 5.010495e-02 4.999379e-02 5.002586e-02 4.997484e-02 4.983138e-02 4.986390e-02 5.324099e-02 5.509426e-02 5.708844e-02 5.840897e-02 5.951243e-02 6.017459e-02 6.051330e-02 6.041080e-02 6.099102e-02 6.077746e-02 6.191548e-02 6.117323e-02 6.197070e-02 6.066884e-02 6.161377e-02 6.071676e-02 6.150005e-02 6.062526e-02 6.156679e-02 6.092428e-02 6.176172e-02 6.132321e-02 6.192024e-02 6.152006e-02 6.168224e-02 6.128428e-02 6.078623e-02 6.015341e-02 5.949877e-02 5.962924e-02 5.943048e-02 5.976494e-02 5.889906e-02 5.846069e-02 5.676628e-02 5.724144e-02 5.853890e-02 5.974440e-02 5.882831e-02 5.936179e-02 5.953980e-02 6.207898e-02 6.293718e-02 6.425104e-02 6.511711e-02 6.575515e-02 6.504813e-02 6.341171e-02 6.416632e-02 6.540202e-02 6.618131e-02 6.498358e-02 6.528109e-02 6.386132e-02 6.409980e-02 6.255660e-02 6.344034e-02 6.255154e-02 6.339720e-02 6.270789e-02 6.354439e-02 6.265149e-02 6.276422e-02 6.241400e-02 6.251058e-02 6.251136e-02 6.253680e-02 6.322699e-02 6.277100e-02 6.353982e-02 6.228863e-02 6.336228e-02 6.176914e-02 6.326337e-02 6.155167e-02 6.334589e-02 6.144407e-02 6.317322e-02 6.167178e-02 6.356842e-02 6.200745e-02 6.333852e-02 6.203889e-02 6.275264e-02 6.218898e-02 6.270798e-02 6.295056e-02 6.231879e-02 6.300158e-02 6.169331e-02 6.281568e-02 6.145622e-02 6.403632e-02 6.215156e-02 6.485996e-02 6.249159e-02 6.477187e-02 6.267124e-02 6.495167e-02 6.417774e-02 6.683124e-02 6.387443e-02 5.266670e-02 4.790074e-02 4.365353e-02 4.294706e-02 
5.327803e-02 5.486723e-02 5.487089e-02 5.848436e-02 5.971373e-02 6.705345e-02 6.751321e-02 6.809044e-02 6.761419e-02 6.815760e-02 6.759470e-02 6.809853e-02 6.760615e-02 6.746534e-02 6.754931e-02 6.750112e-02 6.759746e-02 6.752276e-02 6.753558e-02 6.753922e-02 6.737919e-02 6.754760e-02 6.735935e-02 6.773911e-02 6.754489e-02 6.802367e-02 6.791319e-02 6.822504e-02 6.794184e-02 6.791621e-02 6.794581e-02 6.787158e-02 6.844034e-02 6.804887e-02 6.858787e-02 6.785267e-02 6.837116e-02 6.770440e-02 6.822141e-02 6.762083e-02 6.825464e-02 6.784657e-02 6.849292e-02 6.811792e-02 6.844785e-02 6.810688e-02 6.831838e-02 6.812156e-02 6.796604e-02 6.770557e-02 6.746319e-02 6.770106e-02 6.784076e-02 6.844764e-02 6.859861e-02 6.952520e-02 7.071049e-02 7.190973e-02 7.003273e-02 7.048963e-02 7.058451e-02 7.083200e-02 7.082867e-02 7.013260e-02 6.892813e-02 6.950015e-02 6.885527e-02 6.922809e-02 6.929087e-02 6.968935e-02 6.978058e-02 6.904491e-02 6.901943e-02 6.898833e-02 6.956577e-02 6.917199e-02 6.960163e-02 6.900845e-02 6.959457e-02 6.908542e-02 6.956725e-02 6.916999e-02 6.956464e-02 6.918218e-02 6.926986e-02 6.917004e-02 6.917243e-02 6.928597e-02 6.901318e-02 6.950092e-02 6.906845e-02 6.980918e-02 6.892861e-02 6.992617e-02 6.869698e-02 6.981358e-02 6.839586e-02 6.974655e-02 6.835547e-02 6.978571e-02 6.858978e-02 6.999791e-02 6.863190e-02 6.967942e-02 6.858180e-02 6.941862e-02 6.877060e-02 6.938766e-02 6.925837e-02 6.927344e-02 6.930135e-02 6.887834e-02 6.914908e-02 6.855414e-02 6.952564e-02 6.870107e-02 6.986233e-02 6.878148e-02 6.962596e-02 6.860705e-02 6.904096e-02 6.813516e-02 6.937872e-02 6.415085e-02 5.971650e-02 5.735196e-02 5.473764e-02 5.453851e-02 
5.315038e-02 5.436355e-02 5.469345e-02 5.732606e-02 5.846340e-02 6.208820e-02 6.300003e-02 6.519122e-02 6.624396e-02 6.773122e-02 7.035975e-02 7.176978e-02 7.801289e-02 7.794010e-02 7.800280e-02 7.793942e-02 7.798482e-02 7.794772e-02 7.795477e-02 7.796497e-02 7.792627e-02 7.799281e-02 7.299571e-02 7.169698e-02 6.891569e-02 6.834026e-02 6.689762e-02 6.655550e-02 6.588255e-02 6.552885e-02 6.542159e-02 6.498308e-02 6.529723e-02 6.469285e-02 6.521598e-02 6.447449e-02 6.513230e-02 6.439440e-02 6.510008e-02 6.440207e-02 6.511352e-02 6.450267e-02 6.513552e-02 6.462378e-02 6.509806e-02 6.469609e-02 6.498264e-02 6.470601e-02 6.477703e-02 6.462254e-02 6.456066e-02 6.462308e-02 6.450874e-02 6.470077e-02 6.443537e-02 6.467806e-02 6.450365e-02 6.499454e-02 6.504397e-02 6.522596e-02 6.490638e-02 6.558100e-02 6.539450e-02 6.582127e-02 6.593301e-02 6.674247e-02 6.698645e-02 6.646121e-02 6.640268e-02 6.671204e-02 6.696135e-02 6.684927e-02 6.665089e-02 6.597703e-02 6.647479e-02 6.586486e-02 6.640843e-02 6.569492e-02 6.629525e-02 6.564882e-02 6.622024e-02 6.568315e-02 6.614939e-02 6.573543e-02 6.598443e-02 6.580531e-02 6.585003e-02 6.593994e-02 6.573704e-02 6.613905e-02 6.563554e-02 6.630437e-02 6.546397e-02 6.638850e-02 6.528338e-02 6.641984e-02 6.514893e-02 6.642650e-02 6.509268e-02 6.639851e-02 6.514552e-02 6.638510e-02 6.526279e-02 6.626262e-02 6.540493e-02 6.606625e-02 6.559190e-02 6.586259e-02 6.582256e-02 6.559507e-02 6.595018e-02 6.527982e-02 6.601301e-02 6.500988e-02 6.611280e-02 6.481545e-02 6.599417e-02 6.448319e-02 6.541800e-02 6.383734e-02 6.427433e-02 6.269337e-02 6.238640e-02 6.014993e-02 5.783493e-02 5.620933e-02 5.431019e-02 5.399359e-02 
5.788871e-02 5.920499e-02 5.906179e-02 6.164571e-02 6.218553e-02 6.546636e-02 6.639172e-02 6.834399e-02 6.969047e-02 7.097606e-02 7.373727e-02 7.505642e-02 8.154170e-02 8.147789e-02 8.153108e-02 8.147768e-02 8.151468e-02 8.149050e-02 8.148171e-02 8.151298e-02 8.144596e-02 8.153797e-02 7.667128e-02 7.537343e-02 7.265158e-02 7.207938e-02 7.061819e-02 7.034068e-02 6.963151e-02 6.941766e-02 6.920129e-02 6.891783e-02 6.904413e-02 6.863922e-02 6.898863e-02 6.850105e-02 6.899026e-02 6.848337e-02 6.903214e-02 6.854252e-02 6.908461e-02 6.864053e-02 6.911295e-02 6.874476e-02 6.910647e-02 6.886275e-02 6.912519e-02 6.904468e-02 6.919817e-02 6.928214e-02 6.935632e-02 6.962911e-02 6.967848e-02 7.013550e-02 7.020244e-02 7.090999e-02 7.127652e-02 7.204728e-02 7.062652e-02 7.110468e-02 7.090004e-02 6.981432e-02 6.932681e-02 7.013113e-02 6.906971e-02 6.855718e-02 6.795838e-02 6.864410e-02 6.882914e-02 6.750072e-02 6.704800e-02 6.743352e-02 6.810605e-02 6.830465e-02 6.888507e-02 6.877552e-02 6.928575e-02 6.901254e-02 6.948608e-02 6.916936e-02 6.957481e-02 6.931142e-02 6.962071e-02 6.946530e-02 6.961664e-02 6.962265e-02 6.957140e-02 6.976840e-02 6.947681e-02 6.990545e-02 6.936977e-02 7.004328e-02 6.925955e-02 7.016561e-02 6.916490e-02 7.024095e-02 6.907661e-02 7.025122e-02 6.900691e-02 7.020823e-02 6.900319e-02 7.017196e-02 6.909501e-02 7.012245e-02 6.925590e-02 7.002200e-02 6.941097e-02 6.984058e-02 6.954382e-02 6.961600e-02 6.964063e-02 6.937602e-02 6.968840e-02 6.911384e-02 6.964728e-02 6.881470e-02 6.942515e-02 6.840068e-02 6.888975e-02 6.768051e-02 6.784503e-02 6.629164e-02 6.593994e-02 6.367978e-02 6.201812e-02 6.057629e-02 5.896855e-02 5.885006e-02 
5.315232e-02 5.436257e-02 5.468449e-02 5.731561e-02 5.844633e-02 6.207076e-02 6.298049e-02 6.517502e-02 6.625237e-02 6.775194e-02 7.040745e-02 7.182049e-02 7.803897e-02 7.796500e-02 7.802762e-02 7.795634e-02 7.800220e-02 7.796203e-02 7.796905e-02 7.798185e-02 7.794385e-02 7.800977e-02 7.305722e-02 7.178783e-02 6.897332e-02 6.840622e-02 6.691472e-02 6.657606e-02 6.592925e-02 6.559079e-02 6.547196e-02 6.499300e-02 6.523121e-02 6.460512e-02 6.512771e-02 6.445667e-02 6.518373e-02 6.450740e-02 6.531866e-02 6.466182e-02 6.541808e-02 6.477116e-02 6.539122e-02 6.482621e-02 6.530870e-02 6.492607e-02 6.532179e-02 6.518322e-02 6.549229e-02 6.559059e-02 6.579470e-02 6.605575e-02 6.616586e-02 6.660565e-02 6.678490e-02 6.757152e-02 6.823050e-02 6.902559e-02 6.726859e-02 6.741022e-02 6.687182e-02 6.538674e-02 6.499175e-02 6.595236e-02 6.570464e-02 6.561555e-02 6.488227e-02 6.499367e-02 6.456933e-02 6.275789e-02 6.246972e-02 6.261919e-02 6.360256e-02 6.376699e-02 6.460046e-02 6.439596e-02 6.518140e-02 6.478214e-02 6.549353e-02 6.499894e-02 6.563628e-02 6.519938e-02 6.572432e-02 6.542299e-02 6.578313e-02 6.565953e-02 6.574727e-02 6.584222e-02 6.562331e-02 6.596850e-02 6.544094e-02 6.610641e-02 6.531881e-02 6.628702e-02 6.525674e-02 6.643400e-02 6.518241e-02 6.643856e-02 6.506206e-02 6.633610e-02 6.500494e-02 6.624558e-02 6.514721e-02 6.623874e-02 6.543719e-02 6.617631e-02 6.568583e-02 6.593064e-02 6.583832e-02 6.561883e-02 6.597394e-02 6.529846e-02 6.607243e-02 6.498762e-02 6.602403e-02 6.467027e-02 6.582332e-02 6.433407e-02 6.533218e-02 6.382385e-02 6.432778e-02 6.275663e-02 6.245613e-02 6.020377e-02 5.787616e-02 5.623943e-02 5.432792e-02 5.400529e-02 
5.326976e-02 5.486210e-02 5.484576e-02 5.846641e-02 5.967129e-02 6.701844e-02 6.744312e-02 6.801555e-02 6.761108e-02 6.820831e-02 6.774558e-02 6.826721e-02 6.770122e-02 6.751411e-02 6.758985e-02 6.751099e-02 6.760713e-02 6.752857e-02 6.754793e-02 6.756382e-02 6.741004e-02 6.760038e-02 6.756018e-02 6.805904e-02 6.769146e-02 6.810956e-02 6.777339e-02 6.808735e-02 6.809185e-02 6.824692e-02 6.838292e-02 6.809634e-02 6.825076e-02 6.767946e-02 6.816387e-02 6.767492e-02 6.844772e-02 6.796210e-02 6.880045e-02 6.831585e-02 6.901028e-02 6.841523e-02 6.887194e-02 6.832376e-02 6.866699e-02 6.837129e-02 6.871916e-02 6.875462e-02 6.909486e-02 6.942198e-02 6.957064e-02 6.986100e-02 6.967194e-02 7.005259e-02 6.981076e-02 7.033648e-02 6.997342e-02 7.058094e-02 6.984377e-02 7.003431e-02 6.879893e-02 6.780423e-02 6.735653e-02 6.892874e-02 6.931338e-02 6.994323e-02 6.948858e-02 6.919155e-02 6.828330e-02 6.666864e-02 6.651788e-02 6.717274e-02 6.771970e-02 6.754265e-02 6.810661e-02 6.790446e-02 6.857307e-02 6.826370e-02 6.879634e-02 6.829979e-02 6.874422e-02 6.840002e-02 6.887104e-02 6.873334e-02 6.912468e-02 6.912195e-02 6.916397e-02 6.928672e-02 6.898685e-02 6.930950e-02 6.868133e-02 6.934280e-02 6.852411e-02 6.959592e-02 6.860373e-02 6.993326e-02 6.867926e-02 6.997281e-02 6.839044e-02 6.960743e-02 6.803183e-02 6.940261e-02 6.828072e-02 6.977061e-02 6.895269e-02 6.994930e-02 6.914247e-02 6.946469e-02 6.897944e-02 6.901583e-02 6.918411e-02 6.895531e-02 6.959482e-02 6.881333e-02 6.950865e-02 6.837910e-02 6.926350e-02 6.824298e-02 6.924064e-02 6.849139e-02 6.930311e-02 6.845685e-02 6.961668e-02 6.429417e-02 5.980062e-02 5.740396e-02 5.475795e-02 5.455171e-02 
4.181991e-02 4.333944e-02 4.491109e-02 4.974432e-02 5.618429e-02 6.621362e-02 6.089221e-02 6.238628e-02 5.861767e-02 5.944833e-02 5.614671e-02 5.565395e-02 5.032430e-02 5.003086e-02 5.015168e-02 5.001003e-02 5.013903e-02 5.001598e-02 5.004429e-02 5.004132e-02 4.992980e-02 5.007468e-02 5.356264e-02 5.564492e-02 5.737390e-02 5.869914e-02 5.942432e-02 6.002552e-02 6.071901e-02 6.080356e-02 6.135431e-02 6.084321e-02 6.140210e-02 6.039267e-02 6.122870e-02 6.044607e-02 6.165122e-02 6.094808e-02 6.235443e-02 6.180509e-02 6.288138e-02 6.199396e-02 6.258739e-02 6.165277e-02 6.189098e-02 6.134540e-02 6.178852e-02 6.185939e-02 6.237123e-02 6.300411e-02 6.334552e-02 6.381379e-02 6.357542e-02 6.397106e-02 6.362596e-02 6.420257e-02 6.352523e-02 6.384595e-02 6.309351e-02 6.354862e-02 6.280360e-02 6.303839e-02 6.253044e-02 6.276046e-02 6.223046e-02 6.227998e-02 6.186399e-02 6.162063e-02 6.141508e-02 6.091574e-02 6.088161e-02 6.022265e-02 6.061702e-02 6.033940e-02 6.132548e-02 6.089584e-02 6.192685e-02 6.136663e-02 6.214898e-02 6.124569e-02 6.213264e-02 6.149820e-02 6.223411e-02 6.185755e-02 6.266985e-02 6.244755e-02 6.267872e-02 6.271547e-02 6.244920e-02 6.251879e-02 6.174371e-02 6.255837e-02 6.170493e-02 6.312911e-02 6.200358e-02 6.374247e-02 6.202624e-02 6.354958e-02 6.147821e-02 6.303865e-02 6.094794e-02 6.265909e-02 6.127948e-02 6.309733e-02 6.226575e-02 6.356149e-02 6.289200e-02 6.296389e-02 6.288486e-02 6.246413e-02 6.308401e-02 6.187046e-02 6.348439e-02 6.149239e-02 6.341221e-02 6.128394e-02 6.388665e-02 6.166561e-02 6.445417e-02 6.294814e-02 6.546017e-02 6.455055e-02 6.717217e-02 6.409792e-02 5.277525e-02 4.797135e-02 4.367583e-02 4.295919e-02 
3.499296e-02 3.598162e-02 3.742422e-02 3.903194e-02 4.444591e-02 4.239919e-02 2.823909e-02 3.841087e-02 2.754935e-02 3.451368e-02 2.651145e-02 2.974472e-02 2.236951e-02 2.526064e-02 2.489954e-02 2.521313e-02 2.560775e-02 2.528598e-02 2.563852e-02 2.544543e-02 2.494420e-02 2.458021e-02 2.783560e-02 2.854595e-02 3.118827e-02 3.135472e-02 3.314194e-02 3.232204e-02 3.351879e-02 3.207574e-02 3.318635e-02 3.209733e-02 3.373968e-02 3.264289e-02 3.387947e-02 3.281088e-02 3.379338e-02 3.297120e-02 3.407074e-02 3.372867e-02 3.452886e-02 3.423874e-02 3.462644e-02 3.441125e-02 3.408911e-02 3.412781e-02 3.376192e-02 3.430418e-02 3.375940e-02 3.482827e-02 3.438513e-02 3.575749e-02 3.520229e-02 3.630101e-02 3.529395e-02 3.617859e-02 3.496226e-02 3.564770e-02 3.477753e-02 3.553796e-02 3.466669e-02 3.539395e-02 3.500076e-02 3.555560e-02 3.491951e-02 3.512354e-02 3.456196e-02 3.417013e-02 3.365257e-02 3.324461e-02 3.342279e-02 3.331870e-02 3.364632e-02 3.347706e-02 3.395781e-02 3.333628e-02 3.377936e-02 3.325542e-02 3.383278e-02 3.340657e-02 3.438596e-02 3.401318e-02 3.426080e-02 3.389206e-02 3.407497e-02 3.397509e-02 3.378255e-02 3.431963e-02 3.376059e-02 3.433242e-02 3.334116e-02 3.479108e-02 3.366305e-02 3.535232e-02 3.371826e-02 3.544826e-02 3.325539e-02 3.495913e-02 3.327304e-02 3.531613e-02 3.383751e-02 3.516725e-02 3.386802e-02 3.417911e-02 3.373242e-02 3.395570e-02 3.506574e-02 3.427831e-02 3.655366e-02 3.437131e-02 3.664126e-02 3.255221e-02 3.600676e-02 3.165766e-02 3.635567e-02 3.267978e-02 3.802955e-02 3.381982e-02 3.809756e-02 3.488809e-02 3.729921e-02 3.715257e-02 3.572891e-02 4.881804e-02 3.758623e-02 3.838557e-02 3.459366e-02 3.588106e-02 
8.902058e-03 7.767712e-03 5.825314e-03 2.628630e-04 -5.980016e-03 -2.057070e-02 -2.520209e-02 -1.906120e-02 -2.385399e-02 -1.934669e-02 -2.299472e-02 -2.003344e-02 -2.168590e-02 -2.195055e-02 -2.468547e-02 -2.494525e-02 -2.473060e-02 -2.578810e-02 -2.364914e-02 -2.514020e-02 -2.108413e-02 -2.207450e-02 -1.999010e-02 -2.245788e-02 -2.034663e-02 -2.215863e-02 -2.029741e-02 -2.191670e-02 -2.103348e-02 -2.246005e-02 -2.174129e-02 -2.210894e-02 -2.119153e-02 -2.083971e-02 -2.070788e-02 -2.062550e-02 -2.129687e-02 -2.109927e-02 -2.206040e-02 -2.166811e-02 -2.243721e-02 -2.144149e-02 -2.188894e-02 -2.069643e-02 -2.120936e-02 -2.031868e-02 -2.121988e-02 -2.077634e-02 -2.193003e-02 -2.183251e-02 -2.266855e-02 -2.205256e-02 -2.213012e-02 -2.156852e-02 -2.182993e-02 -2.172872e-02 -2.177783e-02 -2.159625e-02 -2.157366e-02 -2.168159e-02 -2.150163e-02 -2.145779e-02 -2.123835e-02 -2.124420e-02 -2.124454e-02 -2.139983e-02 -2.157103e-02 -2.173837e-02 -2.196775e-02 -2.180261e-02 -2.161703e-02 -2.088423e-02 -2.109963e-02 -2.092831e-02 -2.178903e-02 -2.166802e-02 -2.255014e-02 -2.216391e-02 -2.257956e-02 -2.164189e-02 -2.195969e-02 -2.137163e-02 -2.204349e-02 -2.180664e-02 -2.271514e-02 -2.246223e-02 -2.288488e-02 -2.248296e-02 -2.253899e-02 -2.206268e-02 -2.178563e-02 -2.167445e-02 -2.148369e-02 -2.200309e-02 -2.186705e-02 -2.276332e-02 -2.221824e-02 -2.280158e-02 -2.139109e-02 -2.182626e-02 -2.019109e-02 -2.144088e-02 -2.059434e-02 -2.285487e-02 -2.201325e-02 -2.377416e-02 -2.183513e-02 -2.277730e-02 -2.062408e-02 -2.211474e-02 -2.073439e-02 -2.267712e-02 -2.168279e-02 -2.286756e-02 -2.127701e-02 -2.186483e-02 -2.077137e-02 -2.152500e-02 -2.162957e-02 -2.241686e-02 -2.380444e-02 -2.258768e-02 -2.690879e-02 -1.198112e-02 -5.131917e-03 3.333379e-03 5.962449e-03 8.575553e-03 
8.112378e-03 6.461882e-03 4.161687e-03 -5.794580e-04 -8.540253e-03 -1.442589e-02 -5.248682e-03 -1.147440e-02 -4.306937e-03 -7.257556e-03 -1.585162e-03 -1.003550e-04 7.052259e-03 1.238890e-02 1.573414e-02 1.809780e-02 1.798733e-02 1.911956e-02 1.686567e-02 1.555484e-02 1.239960e-02 5.311511e-03 5.994080e-04 -3.424485e-03 -5.789718e-03 -7.506925e-03 -8.755840e-03 -8.888805e-03 -9.997347e-03 -9.180456e-03 -1.029339e-02 -9.066718e-03 -1.056402e-02 -8.871719e-03 -1.046164e-02 -8.882519e-03 -1.070403e-02 -9.269807e-03 -1.134212e-02 -1.022511e-02 -1.190178e-02 -1.055717e-02 -1.166174e-02 -1.035048e-02 -1.082900e-02 -9.973272e-03 -1.054899e-02 -1.044371e-02 -1.094953e-02 -1.157421e-02 -1.197811e-02 -1.271320e-02 -1.264481e-02 -1.329367e-02 -1.297456e-02 -1.377666e-02 -1.319909e-02 -1.378122e-02 -1.334910e-02 -1.382989e-02 -1.298853e-02 -1.295134e-02 -1.250745e-02 -1.289551e-02 -1.252975e-02 -1.263142e-02 -1.239403e-02 -1.159858e-02 -1.114229e-02 -9.658619e-03 -9.669670e-03 -8.871287e-03 -9.563513e-03 -9.056084e-03 -1.048740e-02 -9.619151e-03 -1.109025e-02 -1.007241e-02 -1.139110e-02 -1.012246e-02 -1.169365e-02 -1.063845e-02 -1.169774e-02 -1.086876e-02 -1.190476e-02 -1.137493e-02 -1.173055e-02 -1.177115e-02 -1.149583e-02 -1.163656e-02 -1.068217e-02 -1.187223e-02 -1.072654e-02 -1.254867e-02 -1.090701e-02 -1.304833e-02 -1.065334e-02 -1.266635e-02 -1.023564e-02 -1.247738e-02 -1.013545e-02 -1.214331e-02 -1.043809e-02 -1.198845e-02 -1.112718e-02 -1.219968e-02 -1.226513e-02 -1.187702e-02 -1.300137e-02 -1.150327e-02 -1.320209e-02 -1.011702e-02 -1.318124e-02 -9.339849e-03 -1.324730e-02 -9.561777e-03 -1.426485e-02 -1.012448e-02 -1.443235e-02 -1.111218e-02 -1.433672e-02 -1.264769e-02 -1.395179e-02 -1.653417e-02 -2.734992e-03 1.510886e-03 6.494756e-03 6.981576e-03 
1.390697e-03 -2.228792e-05 -1.397463e-04 -1.860655e-03 -3.356691e-03 -2.239760e-03 6.632422e-03 -3.018388e-03 4.290338e-03 -2.387183e-03 1.747760e-03 -1.989376e-03 -1.348965e-03 -5.815464e-04 1.859890e-03 2.471762e-03 1.969833e-03 3.331557e-03 1.016423e-03 2.657462e-03 -1.443169e-03 -4.971677e-04 -1.340992e-03 4.645748e-04 -7.403362e-04 4.824869e-04 -8.100552e-04 6.987330e-04 -5.101757e-04 1.325613e-03 -6.730516e-05 1.532845e-03 -3.034799e-04 1.241673e-03 -3.857776e-04 1.200570e-03 -2.615756e-04 1.120550e-03 -3.234164e-04 7.263385e-04 -4.695899e-04 3.355500e-04 -5.259059e-04 1.435676e-05 -3.349327e-04 -9.794633e-05 -1.670322e-04 -3.366720e-04 -1.483685e-04 -7.728271e-04 -6.099686e-04 -1.727356e-03 -1.642753e-03 -2.871860e-03 -2.620448e-03 -3.843443e-03 -3.515155e-03 -4.583234e-03 -4.064387e-03 -4.572784e-03 -3.637719e-03 -3.283797e-03 -2.285650e-03 -2.195124e-03 -1.445883e-03 -1.499025e-03 -1.190351e-03 -5.935741e-04 2.769762e-05 1.586782e-03 1.886492e-03 2.531373e-03 1.969047e-03 2.195302e-03 9.522893e-04 1.369145e-03 1.495111e-04 8.034364e-04 -4.040529e-04 2.606232e-04 -1.021861e-03 -3.114994e-04 -1.014770e-03 -3.733520e-04 -7.575215e-04 -4.832865e-04 -4.792705e-04 -8.374161e-04 -3.890291e-04 -1.105991e-03 -1.239977e-04 -1.510791e-03 -1.169900e-04 -1.811247e-03 8.019824e-05 -1.821953e-03 4.375424e-04 -1.624770e-03 3.129450e-04 -1.915028e-03 -2.342762e-04 -1.820955e-03 -4.066487e-04 -9.886117e-04 -4.020205e-04 -5.015038e-04 -1.394369e-03 -5.284286e-04 -2.615801e-03 -2.935710e-04 -2.896525e-03 1.049843e-03 -2.611891e-03 1.806539e-03 -2.902859e-03 1.399710e-03 -3.529649e-03 1.117556e-03 -2.722156e-03 1.212949e-03 -6.767500e-04 7.092530e-04 2.516954e-03 -6.915698e-03 -2.878939e-04 -2.130744e-03 1.280470e-03 -1.096447e-04 
