# vtk DataFile Version 2.0
Comment goes here
ASCII

DATASET STRUCTURED_POINTS
FIELD FieldData 1
TIME 1 1 double
0.63000000
DIMENSIONS    128   16   1

ORIGIN    0.000   0.000   0.000
SPACING   0.0078125 0.015625   1.000

POINT_DATA   2048
SCALARS uX double
LOOKUP_TABLE default

5.645442e-03 3.834964e-03 4.408412e-03 2.136010e-03 3.002275e-03 2.192488e-03 9.206997e-03 -5.952594e-04 4.805731e-03 -4.645215e-03 -3.450729e-03 -1.442924e-02 -2.110041e-02 -3.627677e-02 -4.395040e-02 -4.790358e-02 -4.996460e-02 -5.011289e-02 -4.748468e-02 -4.314542e-02 -3.648513e-02 -2.047939e-02 -1.350372e-02 -4.925008e-03 -2.879353e-03 1.596732e-03 1.511274e-03 4.369550e-03 3.298831e-03 5.542186e-03 3.990030e-03 6.013654e-03 4.239803e-03 6.156748e-03 4.328098e-03 6.127039e-03 4.375256e-03 5.997094e-03 4.430642e-03 5.805051e-03 4.506827e-03 5.574006e-03 4.600000e-03 5.323886e-03 4.700875e-03 5.069832e-03 4.790454e-03 4.810242e-03 4.828709e-03 4.514332e-03 4.738395e-03 4.093885e-03 4.352647e-03 3.312745e-03 3.255180e-03 1.455473e-03 1.378343e-04 -2.270897e-03 -6.991933e-04 -9.297390e-04 1.062940e-03 5.726232e-03 5.812354e-03 9.054015e-04 -4.933949e-04 -1.606603e-03 -8.433207e-04 -2.239843e-04 2.338065e-03 9.611293e-03 1.109346e-02 8.304741e-03 6.424762e-03 6.138998e-03 4.581588e-03 5.095185e-03 3.794034e-03 4.729025e-03 3.501883e-03 4.567414e-03 3.420289e-03 4.430352e-03 3.453240e-03 4.258442e-03 3.567478e-03 4.042136e-03 3.746571e-03 3.792173e-03 3.969287e-03 3.523523e-03 4.201727e-03 3.253186e-03 4.405108e-03 3.009059e-03 4.549071e-03 2.832090e-03 4.612773e-03 2.763061e-03 4.575883e-03 2.827288e-03 4.416289e-03 3.029899e-03 4.118621e-03 3.359637e-03 3.687470e-03 3.795015e-03 3.157048e-03 4.305739e-03 2.589608e-03 4.846048e-03 2.063272e-03 5.348417e-03 1.664453e-03 5.734149e-03 1.497550e-03 5.939205e-03 1.705004e-03 5.934372e-03 2.495533e-03 5.719676e-03 4.217478e-03 5.234945e-03 7.587911e-03 4.697430e-04 4.424741e-03 2.036743e-03 5.363104e-03 3.856684e-03 
1.746885e-03 4.385308e-04 2.092861e-04 -1.508882e-03 -3.086104e-03 -1.897136e-03 7.113771e-03 -2.545881e-03 4.649062e-03 -2.057358e-03 1.916581e-03 -1.866962e-03 -1.392550e-03 -4.235330e-04 2.064388e-03 2.823455e-03 2.365992e-03 3.809531e-03 1.472751e-03 3.098200e-03 -1.154842e-03 -5.446226e-04 -1.420518e-03 4.814883e-04 -4.642318e-04 1.147732e-03 -7.106308e-05 1.495580e-03 4.815068e-05 1.681386e-03 6.356820e-05 1.775410e-03 6.170067e-05 1.790999e-03 7.040779e-05 1.728137e-03 1.057230e-04 1.601405e-03 1.758425e-04 1.424357e-03 2.732293e-04 1.210928e-03 3.882103e-04 9.801535e-04 5.098058e-04 7.466103e-04 6.167567e-04 4.983709e-04 6.413613e-04 1.542523e-04 4.230734e-04 -4.843040e-04 -3.685189e-04 -1.876362e-03 -2.523721e-03 -5.319393e-03 -8.125640e-03 -1.104235e-02 -7.040850e-03 -7.089865e-03 -6.166519e-03 -2.736125e-03 -2.167949e-03 -4.118630e-03 -3.407283e-03 -3.268492e-03 -1.383096e-03 -1.389447e-03 4.298838e-04 5.181104e-03 7.093498e-03 7.294620e-03 5.335674e-03 3.580836e-03 1.506552e-03 1.308303e-03 -1.366682e-04 4.643452e-04 -7.489325e-04 1.561306e-04 -9.265305e-04 -7.888733e-06 -9.118034e-04 -1.706056e-04 -7.864423e-04 -3.662051e-04 -5.853783e-04 -5.952590e-04 -3.383316e-04 -8.466668e-04 -8.377631e-05 -1.107865e-03 1.358431e-04 -1.349781e-03 2.935546e-04 -1.527095e-03 3.703726e-04 -1.597815e-03 3.469645e-04 -1.533465e-03 2.037381e-04 -1.325750e-03 -7.688686e-05 -9.896070e-04 -4.993977e-04 -5.491393e-04 -1.027796e-03 -2.219941e-05 -1.589650e-03 5.524744e-04 -2.109691e-03 1.103567e-03 -2.506419e-03 1.552109e-03 -2.679032e-03 1.833564e-03 -2.494442e-03 1.907249e-03 -1.773595e-03 1.701616e-03 -2.315403e-04 8.553089e-04 2.946131e-03 -6.671479e-03 -5.362960e-04 -2.078345e-03 1.389365e-03 2.832141e-04 
8.865913e-03 7.261436e-03 4.744023e-03 -1.491437e-04 -8.424392e-03 -1.429454e-02 -5.124617e-03 -1.125476e-02 -3.974143e-03 -6.753362e-03 -7.257789e-04 9.461507e-04 8.362198e-03 1.385718e-02 1.722238e-02 1.949776e-02 1.949106e-02 2.052406e-02 1.835834e-02 1.698718e-02 1.383607e-02 6.383458e-03 1.379127e-03 -2.755590e-03 -5.053300e-03 -6.601472e-03 -7.995565e-03 -8.196818e-03 -9.486598e-03 -8.821621e-03 -1.027406e-02 -9.016718e-03 -1.068497e-02 -9.069052e-03 -1.089991e-02 -9.123457e-03 -1.099044e-02 -9.214181e-03 -1.098067e-02 -9.346687e-03 -1.089610e-02 -9.505795e-03 -1.073948e-02 -9.645478e-03 -1.048833e-02 -9.692275e-03 -1.008686e-02 -9.550448e-03 -9.463159e-03 -9.113395e-03 -8.486337e-03 -8.146648e-03 -6.784711e-03 -6.077853e-03 -3.503148e-03 -1.597943e-03 3.376321e-03 5.678405e-03 4.225326e-03 2.314783e-03 5.742711e-04 -9.445940e-03 -8.371428e-03 -2.476434e-03 8.490373e-05 2.069263e-04 -1.759508e-03 -3.860908e-03 -9.615228e-03 -2.238553e-02 -2.700434e-02 -2.221793e-02 -2.057136e-02 -1.706851e-02 -1.638835e-02 -1.391268e-02 -1.429843e-02 -1.230773e-02 -1.322352e-02 -1.149222e-02 -1.264067e-02 -1.116133e-02 -1.229702e-02 -1.111818e-02 -1.202158e-02 -1.122769e-02 -1.173594e-02 -1.142268e-02 -1.142503e-02 -1.166739e-02 -1.111636e-02 -1.195108e-02 -1.085437e-02 -1.224226e-02 -1.065524e-02 -1.248263e-02 -1.052907e-02 -1.262157e-02 -1.049248e-02 -1.262313e-02 -1.056587e-02 -1.247692e-02 -1.077889e-02 -1.220977e-02 -1.115952e-02 -1.185368e-02 -1.167353e-02 -1.140431e-02 -1.223682e-02 -1.089006e-02 -1.279569e-02 -1.040317e-02 -1.331198e-02 -1.005489e-02 -1.374553e-02 -9.957783e-03 -1.405680e-02 -1.022349e-02 -1.423357e-02 -1.102202e-02 -1.427130e-02 -1.269016e-02 -1.366968e-02 -1.613556e-02 -2.868589e-03 1.914303e-03 7.008557e-03 7.804791e-03 
9.425934e-03 8.279977e-03 6.145561e-03 4.342582e-04 -6.222415e-03 -2.092364e-02 -2.597744e-02 -1.976939e-02 -2.444037e-02 -1.981670e-02 -2.314647e-02 -2.016483e-02 -2.175796e-02 -2.233405e-02 -2.513481e-02 -2.561876e-02 -2.544508e-02 -2.666120e-02 -2.447712e-02 -2.602784e-02 -2.169740e-02 -2.247310e-02 -1.995689e-02 -2.244720e-02 -2.031294e-02 -2.254180e-02 -2.077966e-02 -2.251484e-02 -2.122206e-02 -2.238729e-02 -2.158329e-02 -2.219560e-02 -2.185563e-02 -2.198907e-02 -2.205331e-02 -2.180126e-02 -2.217954e-02 -2.163646e-02 -2.223083e-02 -2.148976e-02 -2.220688e-02 -2.134637e-02 -2.209741e-02 -2.117597e-02 -2.187815e-02 -2.092958e-02 -2.150343e-02 -2.053619e-02 -2.089891e-02 -1.989756e-02 -1.992466e-02 -1.881926e-02 -1.827192e-02 -1.686296e-02 -1.525010e-02 -1.291530e-02 -9.160048e-03 -7.145475e-03 -1.066553e-02 -1.197179e-02 -1.155491e-02 -1.485447e-02 -1.559035e-02 -1.754685e-02 -1.935887e-02 -2.131905e-02 -2.345764e-02 -2.413554e-02 -2.509546e-02 -2.696389e-02 -2.902156e-02 -3.076601e-02 -3.065900e-02 -2.831018e-02 -2.736941e-02 -2.565708e-02 -2.535556e-02 -2.412807e-02 -2.420765e-02 -2.325767e-02 -2.354734e-02 -2.277741e-02 -2.315835e-02 -2.252030e-02 -2.290450e-02 -2.238648e-02 -2.271253e-02 -2.232749e-02 -2.254767e-02 -2.232118e-02 -2.239936e-02 -2.236316e-02 -2.226683e-02 -2.244626e-02 -2.214189e-02 -2.255380e-02 -2.201826e-02 -2.267011e-02 -2.189582e-02 -2.278202e-02 -2.177924e-02 -2.288270e-02 -2.168023e-02 -2.297521e-02 -2.161505e-02 -2.305996e-02 -2.158465e-02 -2.311882e-02 -2.158080e-02 -2.314014e-02 -2.161510e-02 -2.313192e-02 -2.171435e-02 -2.310954e-02 -2.191573e-02 -2.309033e-02 -2.227515e-02 -2.308067e-02 -2.290795e-02 -2.302475e-02 -2.410790e-02 -2.251008e-02 -2.709001e-02 -1.180374e-02 -4.820655e-03 3.929577e-03 6.549590e-03 9.204925e-03 
3.561300e-02 3.657320e-02 3.816227e-02 3.989162e-02 4.539907e-02 4.327884e-02 2.886365e-02 3.895077e-02 2.805567e-02 3.490639e-02 2.673811e-02 2.985990e-02 2.236565e-02 2.520104e-02 2.499606e-02 2.533928e-02 2.569948e-02 2.536690e-02 2.565413e-02 2.535741e-02 2.482220e-02 2.455963e-02 2.831382e-02 2.893692e-02 3.152375e-02 3.118301e-02 3.312606e-02 3.228456e-02 3.397626e-02 3.282197e-02 3.438850e-02 3.306282e-02 3.453261e-02 3.318343e-02 3.453267e-02 3.328173e-02 3.443886e-02 3.337136e-02 3.426241e-02 3.344532e-02 3.401290e-02 3.347648e-02 3.367097e-02 3.340239e-02 3.318209e-02 3.312328e-02 3.244202e-02 3.249641e-02 3.130280e-02 3.132650e-02 2.950429e-02 2.921179e-02 2.642929e-02 2.524230e-02 2.066321e-02 1.720988e-02 8.757452e-03 5.283079e-03 1.069937e-02 1.358533e-02 1.394245e-02 2.328542e-02 2.388820e-02 2.400927e-02 2.515705e-02 2.800983e-02 3.198135e-02 3.404717e-02 3.823018e-02 4.733922e-02 5.224373e-02 5.306053e-02 5.132291e-02 4.683189e-02 4.443359e-02 4.146594e-02 4.048880e-02 3.850781e-02 3.831357e-02 3.687796e-02 3.708380e-02 3.604177e-02 3.635928e-02 3.566683e-02 3.586409e-02 3.554325e-02 3.546187e-02 3.556156e-02 3.510328e-02 3.566075e-02 3.479215e-02 3.581390e-02 3.455618e-02 3.598133e-02 3.440104e-02 3.610421e-02 3.432914e-02 3.613526e-02 3.434988e-02 3.604261e-02 3.447666e-02 3.581853e-02 3.473298e-02 3.549098e-02 3.514286e-02 3.509379e-02 3.567261e-02 3.462776e-02 3.624192e-02 3.412808e-02 3.680092e-02 3.369522e-02 3.731609e-02 3.345527e-02 3.775590e-02 3.355200e-02 3.809287e-02 3.416056e-02 3.830689e-02 3.558004e-02 3.825750e-02 3.847098e-02 3.657538e-02 4.979160e-02 3.923106e-02 3.958805e-02 3.559320e-02 3.652716e-02 
4.149561e-02 4.298524e-02 4.480774e-02 4.983401e-02 5.667078e-02 6.675105e-02 6.161458e-02 6.304777e-02 5.920707e-02 5.991228e-02 5.628945e-02 5.567525e-02 5.013611e-02 4.995279e-02 5.006432e-02 4.998768e-02 5.009066e-02 5.002609e-02 5.004199e-02 5.007679e-02 4.991655e-02 5.014295e-02 5.352951e-02 5.562564e-02 5.729165e-02 5.865899e-02 5.955195e-02 6.021627e-02 6.091726e-02 6.094278e-02 6.170766e-02 6.121934e-02 6.213744e-02 6.129655e-02 6.235722e-02 6.131653e-02 6.243919e-02 6.132669e-02 6.241327e-02 6.134132e-02 6.230308e-02 6.135261e-02 6.211221e-02 6.132940e-02 6.182847e-02 6.122724e-02 6.142879e-02 6.100643e-02 6.090867e-02 6.066613e-02 6.028260e-02 6.020111e-02 5.950515e-02 5.950012e-02 5.833424e-02 5.802812e-02 5.568490e-02 5.535643e-02 5.675650e-02 5.868869e-02 5.770797e-02 5.841891e-02 5.905665e-02 6.163259e-02 6.232038e-02 6.341985e-02 6.340518e-02 6.439205e-02 6.350920e-02 6.137031e-02 6.179448e-02 6.267019e-02 6.457562e-02 6.521234e-02 6.587055e-02 6.504699e-02 6.540360e-02 6.427422e-02 6.475321e-02 6.362612e-02 6.423025e-02 6.323485e-02 6.385117e-02 6.305726e-02 6.354472e-02 6.301818e-02 6.326113e-02 6.307000e-02 6.298373e-02 6.318322e-02 6.272416e-02 6.334640e-02 6.250620e-02 6.353453e-02 6.233469e-02 6.370407e-02 6.221248e-02 6.381707e-02 6.214902e-02 6.384561e-02 6.215807e-02 6.377980e-02 6.226169e-02 6.363626e-02 6.248280e-02 6.343480e-02 6.280183e-02 6.316865e-02 6.316655e-02 6.285558e-02 6.355054e-02 6.256255e-02 6.394372e-02 6.237714e-02 6.434142e-02 6.239839e-02 6.475059e-02 6.273541e-02 6.522644e-02 6.353633e-02 6.595026e-02 6.500600e-02 6.760838e-02 6.441771e-02 5.337798e-02 4.803609e-02 4.358524e-02 4.257429e-02 
5.263365e-02 5.414366e-02 5.425941e-02 5.788817e-02 5.934337e-02 6.670539e-02 6.736576e-02 6.793299e-02 6.756158e-02 6.813881e-02 6.762966e-02 6.815357e-02 6.758796e-02 6.744813e-02 6.752627e-02 6.747871e-02 6.756986e-02 6.751370e-02 6.752624e-02 6.755582e-02 6.739726e-02 6.761015e-02 6.732143e-02 6.776650e-02 6.732937e-02 6.781361e-02 6.752425e-02 6.781873e-02 6.776394e-02 6.777514e-02 6.797801e-02 6.770137e-02 6.813870e-02 6.762360e-02 6.823963e-02 6.756087e-02 6.827852e-02 6.751745e-02 6.825415e-02 6.748869e-02 6.816839e-02 6.746374e-02 6.802365e-02 6.742890e-02 6.782656e-02 6.737716e-02 6.759948e-02 6.732752e-02 6.740495e-02 6.735952e-02 6.738653e-02 6.766441e-02 6.785125e-02 6.866614e-02 6.951358e-02 7.150268e-02 7.441812e-02 7.725535e-02 7.465502e-02 7.484523e-02 7.499833e-02 7.455917e-02 7.387671e-02 7.272485e-02 7.172381e-02 7.178452e-02 7.033822e-02 7.113106e-02 7.103887e-02 7.163049e-02 7.119146e-02 6.927417e-02 6.915182e-02 7.028867e-02 7.108988e-02 7.103427e-02 7.130911e-02 7.070148e-02 7.089196e-02 7.016622e-02 7.038168e-02 6.971967e-02 6.993266e-02 6.942384e-02 6.956172e-02 6.926345e-02 6.925098e-02 6.920729e-02 6.898398e-02 6.922579e-02 6.875490e-02 6.929452e-02 6.856506e-02 6.938841e-02 6.841586e-02 6.948002e-02 6.831017e-02 6.954487e-02 6.825340e-02 6.956496e-02 6.825245e-02 6.953192e-02 6.831400e-02 6.944766e-02 6.843960e-02 6.931860e-02 6.861649e-02 6.915038e-02 6.881993e-02 6.895655e-02 6.902426e-02 6.876202e-02 6.920208e-02 6.859368e-02 6.931867e-02 6.846807e-02 6.932875e-02 6.837690e-02 6.918989e-02 6.827006e-02 6.894592e-02 6.799900e-02 6.927834e-02 6.381135e-02 5.934356e-02 5.671244e-02 5.412658e-02 5.380723e-02 
5.232417e-02 5.342069e-02 5.382831e-02 5.636545e-02 5.762698e-02 6.119496e-02 6.223672e-02 6.439391e-02 6.557001e-02 6.708972e-02 6.992489e-02 7.148659e-02 7.799810e-02 7.793709e-02 7.799050e-02 7.794152e-02 7.797578e-02 7.795912e-02 7.795551e-02 7.798456e-02 7.793698e-02 7.800475e-02 7.284497e-02 7.146181e-02 6.848135e-02 6.784909e-02 6.629550e-02 6.591084e-02 6.525497e-02 6.486472e-02 6.480894e-02 6.429304e-02 6.464623e-02 6.398046e-02 6.460311e-02 6.381971e-02 6.459589e-02 6.375408e-02 6.458376e-02 6.375114e-02 6.455018e-02 6.378916e-02 6.449039e-02 6.385039e-02 6.440564e-02 6.391998e-02 6.430114e-02 6.398695e-02 6.418457e-02 6.404128e-02 6.405649e-02 6.405817e-02 6.389248e-02 6.398154e-02 6.365452e-02 6.384329e-02 6.379946e-02 6.494655e-02 6.551048e-02 6.573001e-02 6.555556e-02 6.673861e-02 6.626353e-02 6.709780e-02 6.773476e-02 6.870675e-02 6.927546e-02 6.915458e-02 6.944845e-02 7.005147e-02 7.016233e-02 7.118213e-02 7.017200e-02 6.801829e-02 6.752946e-02 6.639265e-02 6.653251e-02 6.566117e-02 6.602060e-02 6.526470e-02 6.569867e-02 6.505643e-02 6.546389e-02 6.497384e-02 6.526767e-02 6.497877e-02 6.508594e-02 6.504413e-02 6.491078e-02 6.514912e-02 6.474593e-02 6.527619e-02 6.460092e-02 6.540600e-02 6.448493e-02 6.551650e-02 6.440633e-02 6.558729e-02 6.437375e-02 6.560367e-02 6.439545e-02 6.555921e-02 6.447707e-02 6.545559e-02 6.461676e-02 6.529848e-02 6.479894e-02 6.509415e-02 6.499498e-02 6.485273e-02 6.516881e-02 6.458735e-02 6.527546e-02 6.430325e-02 6.525422e-02 6.398163e-02 6.502033e-02 6.356039e-02 6.445584e-02 6.290842e-02 6.338940e-02 6.177044e-02 6.153469e-02 5.917991e-02 5.697570e-02 5.523574e-02 5.347030e-02 5.306141e-02 
5.717266e-02 5.838169e-02 5.830069e-02 6.077552e-02 6.139964e-02 6.459988e-02 6.561958e-02 6.751065e-02 6.894149e-02 7.023624e-02 7.319946e-02 7.468742e-02 8.150168e-02 8.144476e-02 8.149513e-02 8.145194e-02 8.148572e-02 8.147295e-02 8.146129e-02 8.150084e-02 8.143151e-02 8.152248e-02 7.650239e-02 7.513539e-02 7.227526e-02 7.167279e-02 7.014143e-02 6.982664e-02 6.911354e-02 6.885084e-02 6.867698e-02 6.834085e-02 6.853186e-02 6.808224e-02 6.851557e-02 6.796723e-02 6.854522e-02 6.794263e-02 6.858287e-02 6.798276e-02 6.861698e-02 6.807673e-02 6.865269e-02 6.822354e-02 6.870825e-02 6.843326e-02 6.881682e-02 6.873271e-02 6.903231e-02 6.917486e-02 6.944078e-02 6.985673e-02 7.018621e-02 7.095986e-02 7.154016e-02 7.289781e-02 7.402099e-02 7.499960e-02 7.269636e-02 7.288665e-02 7.279652e-02 7.145969e-02 7.041050e-02 7.078250e-02 6.922894e-02 6.828777e-02 6.714442e-02 6.744304e-02 6.719539e-02 6.574672e-02 6.423651e-02 6.407318e-02 6.472230e-02 6.522384e-02 6.610348e-02 6.651077e-02 6.732416e-02 6.744156e-02 6.810155e-02 6.801268e-02 6.852970e-02 6.835698e-02 6.873185e-02 6.858287e-02 6.879615e-02 6.875550e-02 6.877731e-02 6.890754e-02 6.871012e-02 6.905225e-02 6.861990e-02 6.919152e-02 6.852659e-02 6.931921e-02 6.844539e-02 6.942377e-02 6.838790e-02 6.949259e-02 6.836381e-02 6.951636e-02 6.838113e-02 6.949104e-02 6.844394e-02 6.941736e-02 6.854918e-02 6.929910e-02 6.868414e-02 6.914148e-02 6.882591e-02 6.894988e-02 6.894220e-02 6.872649e-02 6.899032e-02 6.846146e-02 6.891271e-02 6.811821e-02 6.863113e-02 6.761504e-02 6.804008e-02 6.679740e-02 6.697825e-02 6.537647e-02 6.510165e-02 6.276758e-02 6.121419e-02 5.970586e-02 5.822677e-02 5.803790e-02 
5.232448e-02 5.342185e-02 5.382859e-02 5.636622e-02 5.762718e-02 6.119520e-02 6.223670e-02 6.439437e-02 6.556971e-02 6.708985e-02 6.992429e-02 7.148633e-02 7.799768e-02 7.793693e-02 7.799032e-02 7.794156e-02 7.797585e-02 7.795946e-02 7.795573e-02 7.798544e-02 7.793736e-02 7.800653e-02 7.285080e-02 7.147392e-02 6.849259e-02 6.787071e-02 6.630998e-02 6.594003e-02 6.527245e-02 6.490296e-02 6.483556e-02 6.434740e-02 6.469313e-02 6.406011e-02 6.468182e-02 6.393342e-02 6.471760e-02 6.391178e-02 6.476079e-02 6.396597e-02 6.479871e-02 6.408133e-02 6.483455e-02 6.424981e-02 6.487994e-02 6.446923e-02 6.495650e-02 6.474922e-02 6.510071e-02 6.511949e-02 6.537833e-02 6.565960e-02 6.593798e-02 6.658867e-02 6.716976e-02 6.855230e-02 6.998458e-02 7.090269e-02 6.803530e-02 6.770790e-02 6.699513e-02 6.503251e-02 6.445716e-02 6.523709e-02 6.434484e-02 6.413438e-02 6.303284e-02 6.269128e-02 6.171152e-02 5.980462e-02 5.894647e-02 5.845050e-02 5.944864e-02 6.039155e-02 6.166836e-02 6.200909e-02 6.305002e-02 6.298725e-02 6.387622e-02 6.360294e-02 6.435907e-02 6.401541e-02 6.462065e-02 6.431982e-02 6.473590e-02 6.456932e-02 6.475095e-02 6.478951e-02 6.469916e-02 6.499259e-02 6.461129e-02 6.518275e-02 6.451508e-02 6.535452e-02 6.443084e-02 6.549231e-02 6.437140e-02 6.557801e-02 6.434866e-02 6.560067e-02 6.437580e-02 6.555847e-02 6.446199e-02 6.545495e-02 6.460561e-02 6.529620e-02 6.479185e-02 6.509058e-02 6.499265e-02 6.484788e-02 6.516942e-02 6.458007e-02 6.527698e-02 6.429454e-02 6.525681e-02 6.397434e-02 6.502477e-02 6.355659e-02 6.446134e-02 6.290750e-02 6.339363e-02 6.177078e-02 6.153664e-02 5.918123e-02 5.697661e-02 5.523748e-02 5.347078e-02 5.306293e-02 
5.263355e-02 5.414635e-02 5.425942e-02 5.789012e-02 5.934311e-02 6.670537e-02 6.736498e-02 6.793474e-02 6.755958e-02 6.813960e-02 6.762726e-02 6.815355e-02 6.758723e-02 6.744839e-02 6.752651e-02 6.747872e-02 6.757063e-02 6.751368e-02 6.752671e-02 6.755726e-02 6.739637e-02 6.761410e-02 6.733601e-02 6.780009e-02 6.736247e-02 6.787426e-02 6.757320e-02 6.790402e-02 6.783054e-02 6.789089e-02 6.807766e-02 6.786569e-02 6.829819e-02 6.786045e-02 6.848885e-02 6.789634e-02 6.865035e-02 6.798389e-02 6.878768e-02 6.812868e-02 6.891374e-02 6.833693e-02 6.904787e-02 6.861294e-02 6.921009e-02 6.896041e-02 6.942439e-02 6.938784e-02 6.971713e-02 6.990366e-02 7.010972e-02 7.051592e-02 7.062706e-02 7.125264e-02 7.133147e-02 7.223039e-02 7.242092e-02 7.321405e-02 7.181716e-02 7.162761e-02 7.010782e-02 6.871574e-02 6.794525e-02 6.900536e-02 6.856512e-02 6.880639e-02 6.773390e-02 6.694222e-02 6.521607e-02 6.293182e-02 6.211990e-02 6.235581e-02 6.306200e-02 6.355864e-02 6.449109e-02 6.480967e-02 6.574855e-02 6.585830e-02 6.673314e-02 6.668145e-02 6.744364e-02 6.730946e-02 6.791701e-02 6.779265e-02 6.820273e-02 6.817636e-02 6.834428e-02 6.849093e-02 6.838061e-02 6.875886e-02 6.835208e-02 6.899593e-02 6.829565e-02 6.920530e-02 6.823682e-02 6.937433e-02 6.818938e-02 6.948522e-02 6.816696e-02 6.952942e-02 6.818752e-02 6.950916e-02 6.826577e-02 6.943097e-02 6.840437e-02 6.930260e-02 6.859295e-02 6.913472e-02 6.880872e-02 6.894070e-02 6.902117e-02 6.874336e-02 6.920262e-02 6.857390e-02 6.932247e-02 6.845222e-02 6.933668e-02 6.836850e-02 6.920001e-02 6.826733e-02 6.895348e-02 6.799809e-02 6.928109e-02 6.381464e-02 5.934432e-02 5.671627e-02 5.412657e-02 5.381049e-02 
4.149577e-02 4.298856e-02 4.480846e-02 4.983636e-02 5.667176e-02 6.675126e-02 6.161481e-02 6.305117e-02 5.920710e-02 5.991349e-02 5.628679e-02 5.567334e-02 5.013349e-02 4.995216e-02 5.006358e-02 4.998736e-02 5.009109e-02 5.002605e-02 5.004243e-02 5.007781e-02 4.991528e-02 5.014592e-02 5.354892e-02 5.566593e-02 5.733570e-02 5.873490e-02 5.959928e-02 6.030247e-02 6.094976e-02 6.103576e-02 6.175018e-02 6.135557e-02 6.224373e-02 6.151554e-02 6.256676e-02 6.164141e-02 6.278312e-02 6.178355e-02 6.292266e-02 6.196080e-02 6.301878e-02 6.219579e-02 6.311102e-02 6.249302e-02 6.321635e-02 6.284486e-02 6.336455e-02 6.327102e-02 6.360202e-02 6.378579e-02 6.393974e-02 6.435876e-02 6.434029e-02 6.493225e-02 6.474880e-02 6.543613e-02 6.504683e-02 6.562341e-02 6.469788e-02 6.496518e-02 6.404393e-02 6.400452e-02 6.311885e-02 6.315990e-02 6.227988e-02 6.215722e-02 6.137690e-02 6.102343e-02 6.048946e-02 5.993716e-02 5.980048e-02 5.932709e-02 5.972705e-02 5.946933e-02 6.028808e-02 5.999783e-02 6.101826e-02 6.060718e-02 6.169064e-02 6.116839e-02 6.219942e-02 6.163230e-02 6.252074e-02 6.202039e-02 6.268791e-02 6.236307e-02 6.272022e-02 6.266114e-02 6.263889e-02 6.292914e-02 6.249780e-02 6.319423e-02 6.235780e-02 6.346321e-02 6.224876e-02 6.369418e-02 6.216153e-02 6.383077e-02 6.210193e-02 6.385667e-02 6.210925e-02 6.378881e-02 6.222308e-02 6.364361e-02 6.245118e-02 6.342912e-02 6.277869e-02 6.316080e-02 6.316668e-02 6.284887e-02 6.355929e-02 6.253976e-02 6.394588e-02 6.234221e-02 6.434372e-02 6.237000e-02 6.476452e-02 6.272728e-02 6.524966e-02 6.353969e-02 6.596415e-02 6.500756e-02 6.760780e-02 6.442345e-02 5.337764e-02 4.804341e-02 4.358522e-02 4.257903e-02 
3.561157e-02 3.657855e-02 3.816262e-02 3.989822e-02 4.540159e-02 4.328893e-02 2.886675e-02 3.896080e-02 2.806309e-02 3.491513e-02 2.674184e-02 2.986331e-02 2.236533e-02 2.520127e-02 2.499606e-02 2.533550e-02 2.569980e-02 2.535831e-02 2.565303e-02 2.535147e-02 2.480675e-02 2.458642e-02 2.832869e-02 2.900431e-02 3.157218e-02 3.129464e-02 3.318107e-02 3.240911e-02 3.401464e-02 3.295582e-02 3.444207e-02 3.325495e-02 3.466973e-02 3.348633e-02 3.480118e-02 3.372528e-02 3.487607e-02 3.398940e-02 3.490883e-02 3.427973e-02 3.492955e-02 3.461683e-02 3.498155e-02 3.500432e-02 3.507940e-02 3.543311e-02 3.525525e-02 3.593270e-02 3.556297e-02 3.652426e-02 3.600605e-02 3.716347e-02 3.651695e-02 3.776306e-02 3.700907e-02 3.824027e-02 3.737597e-02 3.843643e-02 3.733639e-02 3.802627e-02 3.687513e-02 3.719026e-02 3.613910e-02 3.646119e-02 3.552141e-02 3.554722e-02 3.467510e-02 3.433382e-02 3.363978e-02 3.301158e-02 3.274350e-02 3.235415e-02 3.262877e-02 3.230583e-02 3.294735e-02 3.258007e-02 3.343530e-02 3.300236e-02 3.393808e-02 3.346208e-02 3.433993e-02 3.388451e-02 3.459274e-02 3.427066e-02 3.471798e-02 3.463429e-02 3.472151e-02 3.495536e-02 3.461678e-02 3.523877e-02 3.446493e-02 3.551171e-02 3.433948e-02 3.577956e-02 3.427559e-02 3.598737e-02 3.425789e-02 3.606285e-02 3.429037e-02 3.598665e-02 3.441992e-02 3.578301e-02 3.469239e-02 3.547607e-02 3.511021e-02 3.508125e-02 3.564542e-02 3.462768e-02 3.623689e-02 3.413942e-02 3.679708e-02 3.368872e-02 3.729413e-02 3.343100e-02 3.772796e-02 3.353179e-02 3.807842e-02 3.416205e-02 3.830666e-02 3.559293e-02 3.824936e-02 3.848042e-02 3.655533e-02 4.979877e-02 3.922257e-02 3.959694e-02 3.558971e-02 3.653321e-02 
9.424161e-03 8.283060e-03 6.146370e-03 4.387462e-04 -6.218255e-03 -2.091509e-02 -2.596995e-02 -1.976729e-02 -2.442638e-02 -1.981508e-02 -2.312724e-02 -2.016650e-02 -2.173507e-02 -2.234465e-02 -2.511145e-02 -2.563625e-02 -2.542690e-02 -2.667750e-02 -2.447149e-02 -2.603844e-02 -2.169842e-02 -2.248790e-02 -1.997862e-02 -2.247347e-02 -2.035602e-02 -2.258222e-02 -2.083422e-02 -2.256035e-02 -2.128039e-02 -2.243947e-02 -2.165966e-02 -2.227560e-02 -2.198003e-02 -2.212106e-02 -2.225210e-02 -2.200553e-02 -2.247963e-02 -2.194069e-02 -2.266379e-02 -2.193040e-02 -2.281402e-02 -2.198270e-02 -2.294567e-02 -2.209669e-02 -2.306413e-02 -2.226387e-02 -2.318085e-02 -2.248623e-02 -2.331376e-02 -2.275843e-02 -2.345849e-02 -2.304490e-02 -2.357797e-02 -2.328669e-02 -2.362419e-02 -2.342748e-02 -2.355801e-02 -2.341969e-02 -2.336250e-02 -2.326703e-02 -2.308613e-02 -2.301337e-02 -2.272646e-02 -2.255489e-02 -2.221279e-02 -2.204706e-02 -2.176002e-02 -2.159568e-02 -2.143309e-02 -2.129279e-02 -2.128527e-02 -2.102936e-02 -2.117933e-02 -2.094613e-02 -2.125785e-02 -2.101324e-02 -2.145019e-02 -2.116622e-02 -2.168130e-02 -2.134794e-02 -2.189041e-02 -2.152078e-02 -2.204753e-02 -2.168092e-02 -2.215204e-02 -2.183350e-02 -2.220000e-02 -2.197398e-02 -2.219129e-02 -2.210827e-02 -2.214370e-02 -2.225131e-02 -2.207983e-02 -2.240994e-02 -2.200822e-02 -2.256806e-02 -2.191951e-02 -2.270273e-02 -2.181324e-02 -2.280995e-02 -2.170749e-02 -2.289999e-02 -2.162360e-02 -2.297945e-02 -2.157184e-02 -2.304594e-02 -2.155673e-02 -2.309454e-02 -2.157667e-02 -2.311134e-02 -2.162788e-02 -2.309478e-02 -2.173514e-02 -2.306940e-02 -2.194439e-02 -2.305746e-02 -2.231285e-02 -2.306114e-02 -2.294976e-02 -2.301276e-02 -2.414225e-02 -2.249737e-02 -2.711195e-02 -1.179979e-02 -4.831128e-03 3.931785e-03 6.544452e-03 9.207490e-03 
8.864129e-03 7.261898e-03 4.743061e-03 -1.487754e-04 -8.424751e-03 -1.429460e-02 -5.123180e-03 -1.125819e-02 -3.973092e-03 -6.755837e-03 -7.199118e-04 9.470954e-04 8.370278e-03 1.385775e-02 1.722789e-02 1.950343e-02 1.948796e-02 2.054506e-02 1.834486e-02 1.701720e-02 1.383488e-02 6.384901e-03 1.362161e-03 -2.780865e-03 -5.090476e-03 -6.651820e-03 -8.021808e-03 -8.234045e-03 -9.471252e-03 -8.833469e-03 -1.023928e-02 -9.040869e-03 -1.068602e-02 -9.141998e-03 -1.096619e-02 -9.253271e-03 -1.113393e-02 -9.405882e-03 -1.120600e-02 -9.601791e-03 -1.121239e-02 -9.857161e-03 -1.119735e-02 -1.016875e-02 -1.117902e-02 -1.052302e-02 -1.120165e-02 -1.095521e-02 -1.134582e-02 -1.150798e-02 -1.165952e-02 -1.217782e-02 -1.213880e-02 -1.293713e-02 -1.276962e-02 -1.375680e-02 -1.346770e-02 -1.441426e-02 -1.369052e-02 -1.417437e-02 -1.331757e-02 -1.330880e-02 -1.266078e-02 -1.323038e-02 -1.274794e-02 -1.285430e-02 -1.223026e-02 -1.163066e-02 -1.100322e-02 -9.703844e-03 -9.584308e-03 -9.022888e-03 -9.701302e-03 -9.097607e-03 -1.021871e-02 -9.401470e-03 -1.076162e-02 -9.751052e-03 -1.121675e-02 -1.009382e-02 -1.151847e-02 -1.039966e-02 -1.164986e-02 -1.069537e-02 -1.164866e-02 -1.100554e-02 -1.152667e-02 -1.131042e-02 -1.129913e-02 -1.161080e-02 -1.102943e-02 -1.192793e-02 -1.079379e-02 -1.225885e-02 -1.062863e-02 -1.253741e-02 -1.051826e-02 -1.268053e-02 -1.046793e-02 -1.266241e-02 -1.052820e-02 -1.250489e-02 -1.074891e-02 -1.223116e-02 -1.113427e-02 -1.185491e-02 -1.165521e-02 -1.140170e-02 -1.224625e-02 -1.088886e-02 -1.281331e-02 -1.037930e-02 -1.331781e-02 -1.001281e-02 -1.374981e-02 -9.921956e-03 -1.407615e-02 -1.021218e-02 -1.426558e-02 -1.102368e-02 -1.429078e-02 -1.268799e-02 -1.367012e-02 -1.613636e-02 -2.871942e-03 1.911151e-03 7.005420e-03 7.804285e-03 
1.746116e-03 4.383357e-04 2.087997e-04 -1.509917e-03 -3.086807e-03 -1.900369e-03 7.113946e-03 -2.548419e-03 4.646921e-03 -2.059969e-03 1.914842e-03 -1.866972e-03 -1.396671e-03 -4.204964e-04 2.056272e-03 2.829678e-03 2.355730e-03 3.814687e-03 1.463330e-03 3.099733e-03 -1.172379e-03 -5.382895e-04 -1.435042e-03 4.681266e-04 -4.849604e-04 1.118853e-03 -8.863401e-05 1.466239e-03 4.298711e-05 1.655397e-03 6.018362e-05 1.736670e-03 3.656209e-05 1.722717e-03 9.229885e-06 1.623833e-03 7.744737e-07 1.455882e-03 2.142872e-05 1.232818e-03 6.005604e-05 9.555014e-04 8.982616e-05 6.261353e-04 8.520925e-05 2.417749e-04 -3.155370e-07 -2.333371e-04 -2.415292e-04 -8.547143e-04 -7.139619e-04 -1.672932e-03 -1.474359e-03 -2.720330e-03 -2.526181e-03 -3.941420e-03 -3.688942e-03 -4.965324e-03 -3.948168e-03 -4.506851e-03 -3.511896e-03 -3.334347e-03 -2.428293e-03 -2.650766e-03 -1.717794e-03 -1.527357e-03 -5.064927e-04 1.155624e-04 9.231607e-04 2.168254e-03 2.492702e-03 3.127078e-03 2.562478e-03 2.840211e-03 1.747372e-03 2.171689e-03 9.211690e-04 1.556364e-03 2.803430e-04 1.043584e-03 -1.399997e-04 6.233291e-04 -3.556361e-04 2.567467e-04 -4.100825e-04 -8.691013e-05 -3.372036e-04 -4.118142e-04 -1.721442e-04 -7.217186e-04 3.079073e-05 -1.020995e-03 2.139357e-04 -1.296044e-03 3.404746e-04 -1.501866e-03 3.987934e-04 -1.586246e-03 3.718717e-04 -1.524949e-03 2.275654e-04 -1.321613e-03 -5.998262e-05 -9.899144e-04 -4.869268e-04 -5.473110e-04 -1.019000e-03 -2.238173e-05 -1.590616e-03 5.501986e-04 -2.112270e-03 1.109651e-03 -2.502994e-03 1.565929e-03 -2.673888e-03 1.846106e-03 -2.494647e-03 1.911131e-03 -1.778842e-03 1.700186e-03 -2.326146e-04 8.535973e-04 2.951432e-03 -6.671054e-03 -5.367282e-04 -2.079501e-03 1.388192e-03 2.829581e-04 
