# vtk DataFile Version 2.0
Comment goes here
ASCII

DATASET STRUCTURED_POINTS
FIELD FieldData 1
TIME 1 1 double
0.01000000
DIMENSIONS    128   16   1

ORIGIN    0.000   0.000   0.000
SPACING   0.0078125 0.015625   1.000

POINT_DATA   2048
SCALARS uY double
LOOKUP_TABLE default

2.995373e-04 2.749639e-04 2.617569e-04 2.560363e-04 2.623064e-04 2.698673e-04 2.887907e-04 2.825618e-04 2.338451e-04 1.463945e-04 4.519378e-05 -4.879595e-05 -1.161250e-04 -1.516172e-04 -1.462168e-04 -1.153993e-04 -5.358025e-05 -5.233457e-06 6.073685e-05 7.816556e-05 9.256043e-05 2.023559e-05 -2.889033e-05 -9.779200e-05 -1.433918e-04 -1.746391e-04 -1.112871e-04 8.869191e-05 4.099469e-04 7.900641e-04 1.098409e-03 1.242584e-03 1.115021e-03 7.517925e-04 1.601837e-04 -4.905273e-04 -9.145112e-04 -6.062521e-04 1.257099e-04 7.067138e-04 1.464180e-03 2.966959e-03 3.087774e-03 1.361516e-03 3.360013e-04 1.794518e-04 1.498274e-04 2.044522e-03 3.314084e-03 5.320948e-03 7.059039e-03 4.843695e-03 6.639514e-03 5.726075e-03 6.905400e-03 7.170496e-03 6.686502e-03 2.823447e-03 -1.553385e-03 -4.830840e-03 -1.121386e-02 -1.669065e-02 -1.459329e-02 -1.434447e-02 -8.195430e-03 -7.920742e-03 -8.738548e-03 -8.139842e-03 -1.373493e-02 -1.373762e-02 -1.281100e-02 -3.112349e-03 6.219678e-03 7.893063e-03 8.327570e-03 8.568107e-03 5.627459e-03 5.589599e-03 4.317171e-03 4.242275e-03 2.886075e-03 5.456012e-03 3.864955e-03 2.098512e-03 8.811302e-04 -1.072893e-03 -3.897095e-04 2.552961e-05 1.551085e-03 3.189344e-03 2.557385e-03 8.864843e-04 3.004173e-04 -3.858431e-04 -1.079727e-03 -1.186629e-03 -5.960649e-04 1.292480e-05 5.076884e-04 7.294603e-04 7.335797e-04 4.811032e-04 1.351130e-04 -2.417939e-04 -5.219372e-04 -6.998449e-04 -7.425132e-04 -7.033010e-04 -6.019807e-04 -4.981778e-04 -4.063762e-04 -3.535531e-04 -3.267671e-04 -3.213579e-04 -3.098729e-04 -2.785341e-04 -2.079782e-04 -9.597320e-05 5.351427e-05 2.225034e-04 3.815053e-04 5.044473e-04 5.514516e-04 5.230247e-04 4.807931e-04 4.262253e-04 3.769031e-04 3.331440e-04 
6.775044e-06 1.579640e-04 8.893311e-04 4.092589e-04 7.289886e-04 -1.467551e-03 -8.441875e-04 2.535885e-03 2.739357e-03 3.701577e-03 5.426120e-03 8.063498e-03 1.146803e-02 1.051332e-02 5.632308e-03 3.904370e-03 9.774413e-04 7.940563e-05 -3.195180e-03 -4.704014e-03 -1.070232e-02 -1.194860e-02 -9.100020e-03 -5.838266e-03 -4.678225e-03 -3.480957e-03 -2.147508e-03 -2.085538e-03 -1.575815e-04 3.473734e-04 2.009340e-03 1.791251e-03 2.009963e-03 7.830264e-04 -5.311011e-04 -2.518024e-03 -3.724012e-03 -3.204530e-03 -1.076814e-03 6.847037e-04 3.277478e-03 7.378964e-03 7.133300e-03 1.087884e-03 -3.533012e-03 -5.567442e-03 -5.812307e-03 2.665299e-04 4.680287e-03 1.052797e-02 1.269143e-02 6.465793e-03 1.018870e-02 1.145571e-02 1.957078e-02 3.147545e-02 4.136036e-02 3.377309e-02 2.158378e-02 5.281718e-03 -5.700754e-02 -1.041432e-01 -8.778898e-02 -4.103663e-02 3.139293e-02 5.287933e-02 4.338717e-02 1.842575e-02 -5.644803e-02 -1.071044e-01 -1.035164e-01 -2.353218e-02 5.653269e-02 5.304865e-02 3.721752e-02 2.935894e-02 1.251133e-02 1.058025e-02 8.056058e-03 3.750243e-03 1.603810e-03 1.103168e-02 1.016514e-02 4.126738e-03 -1.566880e-03 -8.254782e-03 -6.125129e-03 -2.823502e-03 3.129775e-03 8.701219e-03 7.097282e-03 2.207216e-03 -3.473608e-05 -2.037133e-03 -3.852065e-03 -3.777458e-03 -1.914045e-03 -2.665418e-05 1.322028e-03 1.900339e-03 1.816482e-03 1.137605e-03 2.569553e-04 -6.021237e-04 -1.180218e-03 -1.439557e-03 -1.371857e-03 -1.165961e-03 -8.109524e-04 -4.384620e-04 -1.480151e-04 1.486714e-05 8.023371e-05 6.327829e-05 1.961863e-07 -2.581636e-04 9.838044e-06 -2.087939e-04 -7.261264e-04 4.994554e-04 -8.331486e-04 -5.180434e-04 2.277631e-03 5.048506e-04 -5.553974e-04 -1.021366e-03 -8.466152e-04 -6.394559e-04 
-2.754254e-04 5.642659e-04 1.846565e-03 1.879785e-03 2.547026e-03 -5.064701e-03 -6.084969e-03 3.920285e-03 1.656606e-03 3.098863e-03 2.140333e-03 4.427226e-03 1.763733e-03 -7.172173e-03 -7.427905e-04 3.653899e-04 -1.795532e-03 3.048033e-03 6.184079e-04 2.697812e-03 8.561462e-03 -1.052025e-03 -6.226308e-03 -2.099626e-03 -5.381360e-03 -3.333902e-03 -3.234374e-03 -3.296692e-03 -3.677460e-04 1.127301e-03 4.137931e-03 3.989427e-03 4.043663e-03 2.193636e-03 -9.743856e-04 -6.141597e-03 -9.980532e-03 -5.962988e-03 5.642614e-04 -1.113574e-03 2.463850e-03 2.112963e-02 2.232109e-02 -7.912361e-04 -1.121591e-02 -1.263344e-02 -1.306267e-02 -7.682373e-04 4.862339e-03 2.612636e-02 2.990916e-02 3.724373e-03 9.605281e-03 9.450749e-03 1.593658e-02 3.685730e-02 4.195052e-02 1.212902e-02 -1.087934e-02 -7.953300e-03 -3.962211e-02 -5.100240e-02 -3.216441e-02 -3.929987e-02 -6.100873e-03 -9.486676e-03 -1.791185e-02 -8.716481e-03 -3.881822e-02 -4.627203e-02 -5.993843e-02 -1.644547e-02 5.078118e-02 4.292305e-02 3.512784e-02 3.212338e-02 6.315323e-03 4.805858e-03 8.807297e-03 -3.002270e-03 -4.222623e-03 2.874292e-02 2.447107e-02 4.347701e-03 -4.135458e-03 -1.921260e-02 -1.469805e-02 -1.004077e-02 4.961677e-03 2.711150e-02 1.834344e-02 -1.092293e-03 -1.174265e-03 -9.888188e-04 -8.520821e-03 -1.010598e-02 -4.206934e-03 9.318492e-04 3.352791e-03 4.318309e-03 4.099558e-03 2.601929e-03 6.140482e-04 -1.235352e-03 -2.449591e-03 -2.808812e-03 -2.514350e-03 -2.094318e-03 -1.286313e-03 -3.012660e-04 2.953737e-04 4.759527e-04 4.966499e-04 8.533751e-04 3.802044e-04 -6.907668e-04 6.482541e-04 -6.303788e-04 -1.706787e-03 2.032308e-03 -2.741503e-03 1.652733e-04 7.422075e-03 -8.788779e-04 -3.818693e-03 -2.894382e-03 -2.480558e-03 -1.357298e-03 
-6.373420e-04 2.153776e-03 6.327248e-03 9.149600e-03 1.414673e-02 1.267089e-03 -4.556184e-03 7.847632e-04 -6.309463e-04 -1.459368e-03 -2.197491e-04 -4.303193e-03 -1.851912e-03 1.770934e-03 -1.733186e-03 1.770072e-03 -2.311610e-03 1.764806e-03 -2.677603e-03 3.099937e-03 -3.433257e-03 2.647076e-03 2.414786e-03 1.300874e-03 1.318412e-03 -6.915268e-04 1.430037e-03 -1.870819e-03 1.944886e-03 -4.112176e-04 3.106316e-03 7.805523e-04 1.970399e-03 1.607745e-03 9.096290e-04 -4.205896e-03 -8.004412e-03 2.487983e-03 1.097290e-02 -1.005418e-02 -1.838742e-02 1.965077e-02 2.669016e-02 -1.442833e-02 -1.525490e-02 -1.388737e-03 -4.681299e-03 -1.464518e-03 -1.907365e-02 1.625075e-02 2.697584e-02 -2.772053e-02 -1.118585e-02 -1.767071e-02 -2.726422e-02 -1.061045e-02 -1.642668e-02 -2.748147e-03 1.878180e-03 -2.508917e-03 1.747819e-02 4.236939e-02 5.160109e-02 1.857452e-02 6.988680e-04 -1.458384e-02 -8.842774e-03 9.374534e-03 2.489476e-02 5.923263e-02 4.413325e-02 -1.058165e-03 -3.192344e-02 -2.533161e-02 -1.380791e-02 -5.427678e-03 -5.265017e-03 -1.799151e-02 -7.470597e-03 -1.337458e-02 -1.883550e-02 3.370638e-02 9.715445e-03 -1.712966e-02 2.460191e-03 -6.966182e-03 -1.932317e-03 -1.654355e-02 -8.199098e-03 3.286446e-02 1.196107e-02 -2.285761e-02 -3.298808e-03 1.257743e-02 -1.751207e-03 -9.010129e-03 -1.789909e-03 2.513097e-03 1.801915e-03 1.396146e-03 1.729794e-03 1.402760e-03 6.882995e-04 -1.078272e-04 -7.007597e-04 -7.026595e-04 -5.016916e-04 -8.744965e-04 -6.374376e-04 1.342367e-04 2.200211e-04 -3.074152e-04 -4.777021e-04 9.735727e-04 4.837666e-04 -1.987813e-03 1.676512e-03 -8.569076e-04 -8.975629e-04 4.187448e-03 -4.418253e-03 3.582235e-03 3.702813e-03 -1.776440e-02 -1.743241e-02 -1.170709e-02 -7.816459e-03 -4.183526e-03 
-5.129795e-04 3.220233e-03 7.546730e-03 1.220807e-02 1.756370e-02 1.327677e-02 5.749899e-03 7.308386e-04 -9.551952e-05 1.500399e-03 1.300139e-03 1.671406e-03 1.087404e-03 9.300940e-05 -5.114350e-04 6.158700e-04 -7.765284e-04 4.368031e-04 -1.074305e-03 2.087364e-04 -1.070160e-03 -1.153732e-03 -3.128284e-03 2.631241e-04 1.549789e-03 1.725808e-03 2.563866e-03 1.232763e-03 1.259005e-03 -2.559229e-03 -2.524038e-03 -4.640109e-03 -3.265717e-03 -8.131514e-04 2.646222e-03 3.884956e-03 4.546654e-03 1.211819e-02 1.351668e-02 -9.789761e-03 -2.501454e-02 -3.388455e-03 4.126848e-03 -1.413986e-02 3.876044e-04 2.098017e-02 1.777618e-02 7.940145e-03 -2.012433e-02 -2.443477e-03 1.148869e-02 -1.560008e-02 8.059783e-03 1.134590e-02 9.102315e-03 2.604242e-02 1.221277e-02 1.295767e-02 1.281892e-02 -2.403168e-03 -1.062190e-02 -4.889365e-02 -5.423082e-02 -1.669915e-02 1.577707e-02 3.236015e-02 2.815418e-02 4.902299e-03 -2.417064e-02 -5.828866e-02 -4.789297e-02 3.539900e-03 1.225998e-02 2.256309e-02 1.440177e-02 9.001468e-03 2.726906e-02 3.040879e-03 8.075154e-04 6.359367e-03 -5.530138e-03 1.308925e-02 -1.463595e-02 -2.130572e-02 1.406512e-02 2.102485e-02 2.153890e-02 -4.194277e-03 -1.542729e-02 4.400908e-03 -9.617629e-03 -2.584406e-02 -1.566933e-03 1.756784e-02 1.041180e-02 3.645688e-03 4.250788e-03 2.325878e-03 -1.889319e-03 -3.760935e-03 -3.076982e-03 -1.456945e-03 3.898053e-04 1.907335e-03 2.804672e-03 3.206020e-03 2.980206e-03 1.831439e-03 9.346836e-04 4.217929e-04 -3.711162e-04 -1.356019e-03 -1.632203e-03 -4.629111e-04 -3.500151e-04 -2.134139e-03 5.559407e-04 -8.550601e-04 1.225292e-04 1.481938e-03 -3.573806e-03 2.184065e-03 -8.552004e-03 -2.445204e-02 -1.978552e-02 -1.387368e-02 -8.691746e-03 -4.576891e-03 
-4.215844e-04 1.329329e-03 3.821973e-03 5.695980e-03 8.119725e-03 9.358393e-03 6.961456e-03 1.592937e-03 1.749784e-03 3.181057e-03 2.985842e-03 5.844073e-03 4.175295e-03 1.899070e-04 -5.287054e-04 5.992459e-04 -8.321104e-04 5.864575e-04 -1.009602e-03 3.312520e-04 -9.080891e-04 -4.240097e-03 -5.964084e-03 -1.973759e-03 -5.412635e-04 4.334906e-04 1.109124e-03 8.606001e-04 5.147086e-04 -1.827320e-03 -2.145733e-03 -3.329819e-03 -2.176702e-03 -9.816986e-04 1.872950e-03 4.203302e-03 6.228613e-03 6.898927e-03 4.832873e-03 -2.337747e-03 -8.757724e-03 -8.585989e-03 -6.066195e-03 -2.895444e-03 6.726632e-03 1.509589e-02 1.398917e-02 8.309521e-03 -2.792168e-03 -3.190103e-03 3.438004e-03 6.209380e-03 1.855378e-02 2.557037e-02 3.194655e-02 4.346275e-02 2.536711e-02 -1.703603e-02 -3.317028e-02 -1.480985e-02 3.054810e-03 -2.977404e-02 -3.692575e-02 -2.392581e-02 -3.058227e-02 -2.147162e-02 -3.173944e-02 -3.657914e-02 -9.982492e-03 -3.649977e-02 -4.216525e-02 1.797631e-02 3.120028e-02 3.225173e-02 2.256064e-02 1.337774e-02 2.405693e-02 1.192236e-02 5.972744e-03 1.145376e-02 4.298264e-03 -1.249430e-03 -1.114118e-02 -6.046053e-03 9.173833e-03 1.555681e-02 1.488700e-02 3.609387e-03 -6.383473e-03 -8.442475e-03 -1.007185e-02 -8.027905e-03 3.016900e-04 6.602504e-03 7.390741e-03 5.864459e-03 3.685898e-03 9.100625e-04 -1.474673e-03 -2.548404e-03 -2.279829e-03 -1.187397e-03 2.265468e-04 1.455180e-03 2.243565e-03 2.474764e-03 2.258851e-03 1.614932e-03 9.370104e-04 2.568119e-04 -3.135010e-04 -8.312126e-04 -9.583687e-04 -8.811129e-04 -5.809268e-04 -1.027722e-03 -6.080119e-04 -7.399066e-04 -4.302694e-04 -1.346595e-03 -2.144597e-03 -1.720292e-03 -8.944777e-03 -1.203872e-02 -8.939682e-03 -7.488530e-03 -4.659390e-03 -2.973293e-03 
-2.878605e-04 9.670808e-04 2.390104e-03 3.456474e-03 4.403409e-03 4.620983e-03 3.983520e-03 3.904841e-03 3.582476e-03 5.459308e-03 5.354191e-03 9.278069e-03 8.287831e-03 1.434226e-04 -1.911677e-04 1.375596e-04 -3.063193e-04 6.077816e-05 -3.773144e-04 -8.755559e-05 -3.682961e-04 -7.298861e-03 -8.506915e-03 -4.122458e-03 -3.760094e-03 -1.743102e-03 -1.448490e-03 -8.682967e-04 -6.878263e-04 -9.859061e-04 -7.323370e-04 -9.186626e-04 -3.520775e-04 5.412823e-05 8.485867e-04 1.329431e-03 1.667163e-03 1.867379e-03 1.484866e-03 -4.841031e-04 -1.941883e-03 -7.491360e-04 3.734755e-04 2.826783e-04 2.523044e-03 4.931426e-03 4.614392e-03 4.694789e-03 2.433396e-03 3.553213e-03 6.233253e-03 4.781218e-03 9.297569e-03 1.029950e-02 1.187107e-02 1.418291e-02 1.008004e-02 3.079839e-03 -7.979669e-04 -3.738814e-03 -1.587186e-02 -3.997910e-02 -3.299353e-02 -1.239659e-02 -1.893319e-03 1.019690e-02 7.173934e-03 -5.101698e-03 -1.401101e-02 -3.474111e-02 -3.439292e-02 -5.051957e-03 5.743644e-03 9.862475e-03 1.053293e-02 9.376880e-03 1.121854e-02 8.005530e-03 6.428964e-03 6.746160e-03 3.366140e-03 4.671982e-03 1.070979e-03 1.256184e-03 4.120411e-03 4.154260e-03 4.378356e-03 1.467452e-03 -6.050056e-04 -2.187633e-04 -1.521760e-03 -2.042455e-03 1.544716e-04 1.930634e-03 2.007973e-03 1.747041e-03 1.459982e-03 9.048046e-04 2.722920e-04 -8.586906e-05 -1.306760e-04 5.281607e-05 3.544361e-04 6.501393e-04 8.652366e-04 9.428956e-04 9.066908e-04 7.015573e-04 4.873795e-04 2.343310e-04 1.333357e-05 -2.391855e-04 -3.391174e-04 -4.436791e-04 -3.977850e-04 -7.234865e-04 -5.649081e-04 -8.111089e-04 -1.098034e-03 -1.130101e-03 -2.272226e-03 -2.257419e-03 -4.028014e-03 -5.428629e-03 -4.849862e-03 -4.306305e-03 -2.943084e-03 -1.810453e-03 
-2.362544e-04 2.290033e-04 8.601312e-04 1.298062e-03 1.721606e-03 1.982587e-03 1.902760e-03 1.852628e-03 1.806992e-03 2.744719e-03 2.655195e-03 4.868220e-03 4.118248e-03 5.312341e-05 -1.421164e-04 9.193547e-05 -2.310799e-04 6.562874e-05 -2.700631e-04 -3.917491e-05 -2.356083e-04 -3.580846e-03 -4.248114e-03 -1.954892e-03 -1.718839e-03 -6.752394e-04 -5.001399e-04 -2.159256e-04 -1.536295e-04 -3.169166e-04 -1.973197e-04 -2.821857e-04 9.926155e-05 3.369978e-04 9.220357e-04 1.257303e-03 1.613160e-03 1.567488e-03 1.335815e-03 6.711223e-04 2.383629e-04 3.993555e-04 1.142381e-03 2.137936e-03 3.727099e-03 5.176216e-03 5.846353e-03 6.244590e-03 6.418378e-03 7.262953e-03 9.594254e-03 1.130168e-02 1.502597e-02 1.766371e-02 2.125053e-02 2.452219e-02 2.405852e-02 9.773953e-03 2.209624e-03 -5.413866e-03 -3.743358e-02 -6.096915e-02 -5.768244e-02 -3.405541e-02 1.007235e-03 1.854095e-03 2.355476e-04 -3.667084e-03 -4.868875e-02 -7.491920e-02 -6.263513e-02 -1.472601e-02 3.093591e-02 3.421342e-02 2.669478e-02 2.255068e-02 1.884464e-02 1.536818e-02 1.185353e-02 1.050932e-02 7.340435e-03 6.230804e-03 3.972225e-03 4.032259e-03 4.319559e-03 4.378313e-03 3.752071e-03 2.325267e-03 8.212840e-04 1.135195e-04 -3.826904e-04 -1.740148e-04 5.508872e-04 1.253029e-03 1.487209e-03 1.445014e-03 1.138692e-03 7.359171e-04 3.305541e-04 9.298967e-05 2.037236e-05 1.113291e-04 2.794311e-04 4.644200e-04 6.009335e-04 6.546970e-04 6.303816e-04 5.188783e-04 3.832500e-04 2.120835e-04 7.457419e-05 -7.610196e-05 -1.421474e-04 -2.353292e-04 -2.361644e-04 -3.590796e-04 -3.700640e-04 -5.019812e-04 -6.285224e-04 -8.207404e-04 -1.210235e-03 -1.348754e-03 -2.070441e-03 -2.334288e-03 -2.092594e-03 -1.908793e-03 -1.311841e-03 -9.182588e-04 
-1.522660e-04 -1.317969e-04 -1.133246e-04 -8.940745e-05 -6.872113e-05 -3.850091e-05 -1.482608e-05 2.301008e-05 4.202401e-05 7.403901e-05 7.762889e-05 1.067871e-04 9.946553e-05 -5.246133e-05 -4.240800e-05 -3.827478e-05 -3.080600e-05 -4.265698e-05 -3.323886e-05 -5.931813e-05 -3.709011e-05 1.618878e-04 2.404198e-04 2.329952e-04 3.016402e-04 2.948176e-04 3.151031e-04 2.760267e-04 2.547517e-04 2.052242e-04 1.947915e-04 1.979311e-04 2.684192e-04 3.674238e-04 5.145827e-04 6.330195e-04 7.398018e-04 7.820909e-04 7.905177e-04 6.904471e-04 6.909439e-04 8.895459e-04 1.261259e-03 1.588049e-03 2.224485e-03 2.854059e-03 3.425526e-03 3.992761e-03 4.708487e-03 5.396371e-03 7.018179e-03 7.862019e-03 1.036030e-02 1.213774e-02 1.545893e-02 1.892195e-02 1.983582e-02 8.356266e-03 1.605980e-03 -3.866589e-03 -2.939807e-02 -4.587264e-02 -4.304372e-02 -2.530120e-02 5.074753e-03 6.254577e-03 4.252669e-03 6.452514e-04 -3.586180e-02 -5.673527e-02 -5.020169e-02 -1.363533e-02 2.504742e-02 2.591095e-02 1.910256e-02 1.616883e-02 1.244542e-02 1.060875e-02 8.085045e-03 7.253808e-03 5.248731e-03 4.957069e-03 3.511228e-03 3.286293e-03 2.741259e-03 2.428794e-03 1.954135e-03 1.451666e-03 9.029783e-04 7.374837e-04 4.264113e-04 3.936683e-04 4.870059e-04 6.503012e-04 6.379526e-04 6.255755e-04 5.179187e-04 4.184424e-04 2.808976e-04 2.093777e-04 1.564977e-04 1.678847e-04 1.852767e-04 2.272013e-04 2.456768e-04 2.570739e-04 2.357743e-04 2.046709e-04 1.550271e-04 1.094752e-04 6.376880e-05 3.230848e-05 7.821699e-06 -4.771744e-06 -1.535923e-05 -2.380704e-05 -3.812575e-05 -5.751888e-05 -8.488554e-05 -1.164932e-04 -1.503673e-04 -1.800810e-04 -2.018941e-04 -2.082510e-04 -2.080897e-04 -1.983057e-04 -1.861778e-04 -1.689782e-04 
-1.347967e-04 -5.587851e-04 -1.162347e-03 -1.562036e-03 -1.966592e-03 -2.180491e-03 -2.083307e-03 -1.952846e-03 -1.892948e-03 -2.740758e-03 -2.691590e-03 -4.792695e-03 -4.156990e-03 -9.008265e-05 1.105183e-04 -1.235134e-04 1.700919e-04 -1.412387e-04 1.578800e-04 -1.025863e-04 7.727534e-05 3.889627e-03 4.805926e-03 2.527803e-03 2.525305e-03 1.498228e-03 1.380612e-03 9.485390e-04 7.385831e-04 6.512745e-04 3.916376e-04 4.285831e-04 2.696877e-04 4.485217e-04 4.938483e-04 7.480388e-04 8.695004e-04 1.063617e-03 1.124355e-03 1.189010e-03 1.234709e-03 1.345536e-03 1.624269e-03 1.961204e-03 2.575743e-03 3.131135e-03 3.900439e-03 4.400423e-03 5.228653e-03 5.634495e-03 6.724428e-03 7.099066e-03 8.393791e-03 8.586601e-03 9.690328e-03 9.229299e-03 1.055217e-02 1.029295e-02 6.707669e-03 -4.272266e-03 -2.639084e-02 -4.035294e-02 -3.815850e-02 -2.292577e-02 8.680637e-04 8.851633e-03 7.205967e-03 -2.921477e-03 -2.907525e-02 -4.187742e-02 -3.662201e-02 -1.424291e-02 9.825230e-03 1.319844e-02 1.197622e-02 1.173426e-02 1.015605e-02 9.481467e-03 7.850618e-03 7.265171e-03 5.784107e-03 5.367645e-03 4.224913e-03 3.956199e-03 3.147895e-03 2.798616e-03 2.056107e-03 1.658661e-03 1.109621e-03 9.725881e-04 7.624360e-04 8.300670e-04 7.959316e-04 8.465586e-04 7.220142e-04 6.264669e-04 4.261482e-04 2.943238e-04 1.428073e-04 8.961555e-05 4.482673e-05 7.259042e-05 8.391185e-05 1.257917e-04 1.267950e-04 1.387410e-04 1.075836e-04 1.059039e-04 7.489271e-05 9.240758e-05 9.465986e-05 1.632487e-04 1.833036e-04 2.684767e-04 2.683739e-04 3.871122e-04 3.664629e-04 4.370496e-04 4.681185e-04 5.430041e-04 8.090942e-04 8.398127e-04 1.500682e-03 1.770220e-03 1.551369e-03 1.410859e-03 8.559633e-04 5.093262e-04 
-3.678951e-05 -1.251507e-03 -2.639400e-03 -3.669357e-03 -4.578014e-03 -4.740395e-03 -4.024985e-03 -3.816890e-03 -3.413440e-03 -5.238100e-03 -5.145175e-03 -9.056573e-03 -8.101549e-03 -1.835372e-04 1.612368e-04 -1.383292e-04 3.008516e-04 -9.697247e-05 3.180461e-04 -4.095415e-05 2.611525e-04 7.304008e-03 8.759656e-03 4.603001e-03 4.553594e-03 2.655171e-03 2.373947e-03 1.628397e-03 1.195763e-03 1.142318e-03 5.875987e-04 6.073813e-04 1.987963e-04 2.963166e-04 2.643510e-04 4.026952e-04 5.103982e-04 6.595669e-04 6.971505e-04 7.019359e-04 6.442669e-04 5.305380e-04 5.771694e-04 6.233744e-04 9.745331e-04 1.285320e-03 1.907927e-03 2.229310e-03 2.874696e-03 2.987873e-03 3.670035e-03 3.699353e-03 4.433004e-03 4.379604e-03 4.833236e-03 4.146822e-03 3.571387e-03 1.098946e-03 -1.174980e-03 -3.871945e-03 -7.590140e-03 -1.011007e-02 -1.001789e-02 -8.774447e-03 -5.505719e-03 -4.969126e-03 -5.328977e-03 -5.930207e-03 -9.530094e-03 -1.022106e-02 -8.889725e-03 -4.206955e-03 9.019288e-04 3.081835e-03 4.135751e-03 4.728312e-03 4.398303e-03 4.377923e-03 3.631931e-03 3.524735e-03 2.731911e-03 2.736801e-03 2.078912e-03 2.062614e-03 1.430583e-03 1.181953e-03 5.865007e-04 3.841914e-04 1.124740e-04 2.122130e-04 2.258544e-04 4.279319e-04 4.582380e-04 4.955501e-04 3.519663e-04 2.338132e-04 4.386109e-05 -6.019128e-05 -1.610107e-04 -1.656941e-04 -1.690616e-04 -1.202860e-04 -1.103539e-04 -7.794114e-05 -9.264853e-05 -9.962498e-05 -1.517482e-04 -1.210391e-04 -1.352841e-04 -8.750622e-05 -2.705451e-05 1.434429e-04 2.236873e-04 3.619511e-04 3.654116e-04 7.345851e-04 5.846407e-04 7.971337e-04 1.003164e-03 9.155813e-04 1.915679e-03 1.755586e-03 3.442887e-03 4.859649e-03 4.321248e-03 3.832165e-03 2.522729e-03 1.441081e-03 
1.144972e-04 -1.605738e-03 -4.077771e-03 -5.961013e-03 -8.393594e-03 -9.682997e-03 -7.263023e-03 -1.719430e-03 -1.655734e-03 -3.046701e-03 -2.815995e-03 -5.864797e-03 -4.253657e-03 1.345138e-04 6.468776e-04 -4.329571e-04 8.583285e-04 -5.736003e-04 8.806673e-04 -4.921005e-04 5.465405e-04 3.316598e-03 5.545145e-03 2.532702e-03 2.042797e-03 1.750650e-03 1.249343e-03 1.104317e-03 4.520766e-04 1.322289e-03 8.077381e-05 1.689611e-04 -9.437514e-04 -5.575706e-04 -5.398839e-04 1.744692e-04 6.086375e-04 1.320148e-03 1.490939e-03 1.583010e-03 1.115417e-03 4.566181e-04 -1.401879e-04 -4.319843e-04 -6.868939e-05 6.879457e-04 1.939876e-03 2.697010e-03 3.369465e-03 3.083972e-03 3.160107e-03 2.801200e-03 3.265617e-03 3.291229e-03 3.757653e-03 3.211968e-03 2.724866e-03 8.899240e-04 -1.057434e-03 -3.831098e-03 -6.769081e-03 -8.941954e-03 -9.079031e-03 -7.926791e-03 -5.470190e-03 -4.245949e-03 -4.517667e-03 -5.636049e-03 -7.914298e-03 -8.507539e-03 -7.606588e-03 -4.346128e-03 -8.706221e-04 1.259509e-03 2.493570e-03 3.522454e-03 3.376838e-03 3.443927e-03 2.890213e-03 2.746121e-03 2.198675e-03 2.562489e-03 2.550661e-03 2.865962e-03 2.034976e-03 1.147466e-03 -2.218054e-04 -8.232517e-04 -9.980765e-04 -3.409512e-04 3.862449e-04 1.198898e-03 1.470725e-03 1.385991e-03 8.439831e-04 2.555614e-04 -3.367918e-04 -6.569936e-04 -7.861137e-04 -6.641110e-04 -4.786225e-04 -2.468224e-04 -1.267350e-04 -5.191902e-05 -9.913635e-05 -1.942342e-04 -3.613640e-04 -3.843477e-04 -4.430805e-04 -3.643710e-04 -1.605391e-04 2.652893e-04 5.234846e-04 7.192791e-04 7.211414e-04 1.407605e-03 1.088707e-03 1.154535e-03 6.056127e-04 1.142357e-03 1.454653e-03 5.064106e-04 7.585967e-03 1.098952e-02 8.171203e-03 6.899131e-03 4.205596e-03 2.603763e-03 
2.496215e-04 -3.471894e-03 -7.816038e-03 -1.254288e-02 -1.800412e-02 -1.384291e-02 -6.001535e-03 -2.117843e-04 1.056172e-03 -6.967546e-04 -8.350190e-04 -1.618159e-03 -1.306992e-03 -1.012822e-04 6.945821e-04 -2.869784e-04 1.095670e-03 -2.388766e-04 9.616978e-04 -4.583928e-04 5.403680e-04 -9.639975e-04 1.576370e-03 3.639451e-04 8.232159e-04 1.370428e-03 2.493635e-04 9.780419e-04 -1.188905e-04 2.067420e-03 -2.533509e-05 2.881918e-04 -1.316086e-03 -1.050716e-03 -4.382276e-04 -3.358294e-04 4.277827e-04 1.140019e-03 1.197971e-03 1.202474e-03 4.284705e-04 -8.471329e-04 -1.638704e-03 -2.119280e-03 -1.963707e-03 -1.216042e-03 1.021587e-04 8.105577e-04 1.331516e-03 5.789238e-04 5.274547e-04 -1.727962e-04 5.392679e-05 1.681760e-04 6.835222e-04 6.518080e-04 9.223232e-04 7.350044e-05 2.131490e-04 -3.000288e-04 1.989195e-05 -3.679843e-04 -6.486313e-04 -8.937046e-04 -1.031922e-03 -7.521811e-04 -8.752883e-04 -9.759120e-04 -6.117978e-04 -3.530750e-04 -2.920738e-04 4.443163e-04 3.880275e-04 9.137382e-04 5.645434e-04 8.961926e-04 2.340773e-04 7.304306e-05 -3.054448e-04 -3.276415e-04 -5.486339e-04 1.725985e-04 3.946146e-04 1.191672e-03 4.869756e-04 -4.647054e-04 -1.910586e-03 -2.594773e-03 -2.477570e-03 -1.586247e-03 -5.251932e-04 7.085082e-04 1.343169e-03 1.294247e-03 6.957464e-04 2.322796e-07 -6.574063e-04 -1.039445e-03 -1.154045e-03 -9.828563e-04 -6.922590e-04 -4.050709e-04 -2.963095e-04 -1.923528e-04 -1.721955e-04 -4.720290e-04 -8.143260e-04 -5.972048e-04 -6.926624e-04 -9.783076e-04 -6.477546e-04 2.514287e-04 7.563670e-04 9.391103e-06 3.629257e-04 2.529917e-03 5.017724e-05 1.479352e-03 3.322418e-04 -1.363364e-03 3.155417e-03 -3.369416e-03 6.991096e-03 2.321845e-02 1.894693e-02 1.328231e-02 8.273639e-03 4.255401e-03 
7.759013e-04 -2.049851e-03 -6.259308e-03 -9.123164e-03 -1.417445e-02 -1.274142e-03 5.198037e-03 7.725865e-04 2.424764e-03 2.699835e-03 7.495752e-04 4.218787e-03 1.504765e-03 -2.220684e-03 5.796439e-04 -2.553474e-03 1.603334e-03 -2.564352e-03 2.011353e-03 -3.690729e-03 3.254867e-03 -3.682929e-03 -3.579622e-03 -1.178503e-03 -5.111925e-04 9.940052e-04 -2.010359e-03 1.354309e-03 -1.502770e-03 2.149642e-03 -5.025443e-04 1.874394e-03 3.676537e-04 1.196716e-03 1.107510e-03 2.076877e-04 -3.086656e-04 -3.957547e-04 -1.127343e-03 -8.704563e-04 -9.623521e-04 -9.103267e-04 -3.106105e-04 1.030376e-04 1.318560e-06 -3.581205e-04 -5.849894e-04 -1.063606e-03 -7.374409e-04 -1.023311e-03 8.514908e-05 -2.739794e-04 -8.859960e-05 -6.492944e-04 -8.344371e-04 -1.029155e-03 -6.827797e-04 -4.360616e-04 9.107107e-05 1.553774e-06 1.485457e-04 -1.022141e-05 -3.264913e-05 -7.300961e-05 -2.585110e-04 -3.663127e-04 -4.180089e-04 -3.937171e-04 -4.751943e-04 -4.622786e-04 -5.025706e-04 -5.902609e-04 -8.884484e-04 -8.446250e-04 -1.180569e-03 -1.155289e-03 -1.268307e-03 -8.440044e-04 -7.454111e-04 -1.041377e-04 -3.422247e-04 -5.931770e-05 -1.200632e-03 -8.275678e-04 -1.089419e-03 -4.554124e-04 -1.475532e-04 1.670384e-04 1.501350e-04 -2.354550e-04 -8.961272e-04 -1.042059e-03 -9.669005e-04 -7.969832e-04 -5.110334e-04 -8.640496e-05 2.570344e-04 4.439035e-04 4.503721e-04 3.551321e-04 2.088602e-04 1.891949e-05 -2.428164e-04 -3.066688e-04 -2.500795e-04 -5.219596e-04 -7.620187e-04 -2.883128e-04 -3.616944e-04 -9.956301e-04 -9.952116e-04 -4.444787e-04 -2.829290e-04 -1.753083e-03 -1.254482e-03 1.279804e-03 -2.228356e-03 5.893065e-04 1.052335e-03 -3.536794e-03 5.484592e-03 -2.415510e-03 -2.848605e-03 1.825528e-02 1.778602e-02 1.198741e-02 8.036789e-03 4.360431e-03 
7.161593e-04 -1.713551e-04 -1.476384e-03 -1.498756e-03 -2.125901e-03 5.611248e-03 6.992557e-03 -2.756315e-03 -6.526906e-04 -2.569907e-03 -2.160213e-03 -4.895720e-03 -2.522179e-03 6.311147e-03 -4.268091e-05 -8.944175e-04 1.598770e-03 -2.954887e-03 -1.700545e-04 -1.977076e-03 -7.762969e-03 1.334024e-03 6.145818e-03 1.747962e-03 4.517049e-03 1.630306e-03 1.056206e-03 1.715541e-03 5.045807e-04 1.428672e-03 7.263282e-04 2.255387e-03 2.072868e-03 2.335458e-03 1.810484e-03 6.965649e-04 -2.785814e-04 -9.676155e-04 -1.553055e-03 -1.346175e-03 -7.656150e-04 2.174116e-04 1.384543e-03 1.930522e-03 1.762582e-03 8.689783e-04 -1.115620e-04 -9.632280e-04 -7.053488e-04 -4.863304e-04 9.694743e-04 6.385945e-04 1.031657e-03 -1.198683e-04 -4.300232e-04 -1.141518e-03 -9.934957e-04 -9.074650e-04 -6.284699e-04 -8.668749e-04 -9.871968e-04 -1.528213e-03 -1.298375e-03 -1.963074e-03 -2.005455e-03 -2.593413e-03 -2.482571e-03 -1.686073e-03 -1.842675e-03 -9.151563e-04 -7.824104e-04 -3.207826e-04 -2.932904e-04 -1.118483e-04 -3.868200e-04 -2.901049e-04 -4.307077e-04 3.233422e-04 2.099429e-04 1.101569e-03 5.722982e-04 7.044387e-04 -9.244609e-04 -1.142013e-03 -1.173518e-03 -4.144228e-05 1.210346e-03 2.008407e-03 1.978710e-03 1.126451e-03 -2.590129e-04 -1.360677e-03 -1.807967e-03 -1.695569e-03 -1.076889e-03 -2.264980e-04 5.789522e-04 1.056926e-03 1.185047e-03 9.939064e-04 6.482473e-04 2.390449e-04 -1.253915e-04 -3.165382e-04 -3.416421e-04 -4.047859e-04 -4.074497e-04 -1.384859e-04 -1.316148e-04 -4.498132e-04 -6.442313e-04 -7.363634e-04 -9.043863e-04 -1.544636e-03 -1.345991e-03 -4.304391e-04 -1.706441e-03 -1.075287e-04 1.547169e-03 -1.440340e-03 4.140099e-03 1.903454e-03 -5.351371e-03 2.388268e-03 4.913344e-03 3.731971e-03 3.128280e-03 1.883985e-03 
5.328009e-04 3.443093e-04 -3.992640e-04 9.331883e-05 -1.828941e-04 2.089641e-03 1.573765e-03 -1.789141e-03 -2.131426e-03 -3.305693e-03 -5.312315e-03 -8.169719e-03 -1.181056e-02 -1.093647e-02 -6.215931e-03 -4.409576e-03 -1.435965e-03 -4.178495e-04 3.020270e-03 4.624658e-03 1.077559e-02 1.195170e-02 8.955458e-03 5.474748e-03 4.023820e-03 2.596893e-03 1.253025e-03 1.659338e-03 6.142117e-04 1.301589e-03 7.217104e-04 1.591035e-03 1.169316e-03 1.301760e-03 5.966278e-04 1.162125e-04 -5.523415e-04 -7.040167e-04 -7.456074e-04 -3.018026e-04 2.365603e-04 1.031630e-03 1.437524e-03 1.229085e-03 8.145419e-04 3.969161e-04 2.096863e-04 6.576742e-04 1.690010e-03 2.526201e-03 4.148264e-03 3.849181e-03 5.305488e-03 5.067531e-03 6.249010e-03 6.312911e-03 6.324092e-03 4.104269e-03 3.205249e-04 -4.141951e-03 -1.117336e-02 -1.632290e-02 -1.439566e-02 -1.068424e-02 -3.221444e-03 -9.260603e-04 -1.811916e-03 -4.313912e-03 -1.187344e-02 -1.491016e-02 -1.404539e-02 -6.146914e-03 2.400252e-03 5.166698e-03 6.275224e-03 6.570458e-03 4.910312e-03 5.044454e-03 3.695345e-03 3.778903e-03 2.504498e-03 3.082249e-03 1.641914e-03 9.455296e-04 8.266738e-05 -1.965215e-04 3.597057e-04 8.812923e-04 1.381608e-03 1.440337e-03 8.109646e-04 -8.583042e-05 -6.258530e-04 -9.455283e-04 -8.977741e-04 -5.831276e-04 -6.871248e-05 3.435792e-04 6.098779e-04 6.357379e-04 5.090830e-04 2.532226e-04 -1.771589e-05 -2.552408e-04 -4.028769e-04 -4.885124e-04 -5.074431e-04 -4.432966e-04 -4.128672e-04 -4.467593e-04 -4.963516e-04 -5.664978e-04 -6.440678e-04 -7.078733e-04 -7.125032e-04 -4.586452e-04 -6.134910e-04 -1.541143e-04 7.251401e-04 -6.591231e-05 1.712746e-03 1.778788e-03 -9.297453e-04 6.394326e-04 1.511741e-03 1.828366e-03 1.535954e-03 1.241012e-03 
