# vtk DataFile Version 2.0
Comment goes here
ASCII

DATASET STRUCTURED_POINTS
FIELD FieldData 1
TIME 1 1 double
0.96000000
DIMENSIONS    128   16   1

ORIGIN    0.000   0.000   0.000
SPACING   0.0078125 0.015625   1.000

POINT_DATA   2048
SCALARS uY double
LOOKUP_TABLE default

1.198146e-06 -1.094551e-06 1.076575e-06 -2.201612e-06 9.661205e-07 -3.408700e-06 2.570275e-07 -1.570483e-06 -1.206883e-06 2.783722e-07 -2.195551e-06 2.144527e-06 -2.164019e-06 4.558421e-06 -3.313622e-06 3.271994e-06 -9.807630e-07 -3.765238e-07 1.991288e-06 -4.544637e-06 3.873604e-06 -8.499469e-06 9.476079e-06 -1.551861e-05 1.189592e-05 -2.242748e-05 1.210573e-05 -2.983087e-05 1.085315e-05 -3.614072e-05 9.493834e-06 -4.004430e-05 7.716074e-06 -4.325305e-05 1.941191e-06 -4.989686e-05 -1.128969e-05 -6.208897e-05 -3.161878e-05 -7.833780e-05 -5.595214e-05 -9.570469e-05 -8.200626e-05 -1.126606e-04 -1.103364e-04 -1.285052e-04 -1.396273e-04 -1.345973e-04 -1.550600e-04 -1.031794e-04 -1.225093e-04 9.923503e-06 -5.303135e-06 2.496542e-04 2.203918e-04 5.569379e-04 -5.561718e-05 5.730435e-05 2.329533e-05 3.899535e-04 1.378825e-04 4.295329e-04 9.348651e-04 1.147185e-03 8.097182e-04 1.200284e-03 3.105396e-04 3.580853e-04 -1.077983e-03 -1.217051e-03 6.997588e-04 8.253999e-04 5.061378e-04 -1.273461e-04 -1.772526e-05 -4.349368e-04 -2.025042e-04 -5.028777e-04 -1.876600e-04 -4.487185e-04 -1.370885e-04 -3.709392e-04 -1.014478e-04 -2.923404e-04 -8.451233e-05 -2.175833e-04 -7.994337e-05 -1.499593e-04 -8.085391e-05 -9.261413e-05 -8.200692e-05 -4.742399e-05 -8.074367e-05 -1.561450e-05 -7.680024e-05 3.062943e-06 -7.024742e-05 1.155715e-05 -6.091702e-05 1.352261e-05 -4.956346e-05 1.218935e-05 -3.702500e-05 9.973339e-06 -2.453125e-05 7.164782e-06 -1.386523e-05 3.269920e-06 -6.123300e-06 -1.862362e-06 -1.298777e-06 -7.330526e-06 2.162196e-06 -1.113460e-05 5.960539e-06 -1.208608e-05 9.823427e-06 -1.113259e-05 1.169396e-05 -9.194228e-06 1.099741e-05 -4.681779e-06 9.227660e-06 3.091256e-06 4.611910e-06 8.644800e-07 2.000056e-06 -1.873741e-07 
-1.143307e-03 -6.166667e-04 -3.025195e-03 -1.127477e-03 -4.955580e-03 3.641226e-03 4.615934e-03 -4.653927e-03 -1.218732e-03 -5.528941e-03 -5.185240e-03 -1.135957e-02 -1.572136e-02 -1.695738e-02 -6.645014e-03 -5.295722e-03 -2.141568e-03 1.883711e-03 3.846841e-03 8.001672e-03 1.708390e-02 1.638589e-02 9.679871e-03 6.144573e-03 3.590969e-03 2.597277e-03 1.347378e-03 1.167632e-03 3.885369e-04 5.823455e-04 -1.480412e-05 3.468142e-04 -1.746539e-04 2.448395e-04 -2.261527e-04 1.822313e-04 -2.290115e-04 1.224020e-04 -2.071075e-04 5.781899e-05 -1.691466e-04 -7.271429e-06 -1.221473e-04 -6.677193e-05 -7.515901e-05 -1.127947e-04 -2.881535e-05 -1.207530e-04 4.837669e-05 -2.591157e-05 2.481257e-04 3.009169e-04 7.622496e-04 1.113127e-03 1.802333e-03 1.275210e-03 -1.400162e-03 -4.753485e-04 2.101460e-03 4.123708e-03 4.313369e-03 4.281941e-03 2.403960e-03 2.519987e-04 1.122966e-03 2.462733e-03 -1.701206e-03 -3.945964e-03 -1.168702e-02 -1.143175e-02 8.667262e-04 2.971974e-03 -9.281134e-04 -1.978104e-03 -2.077347e-04 -5.479172e-05 5.459384e-04 -5.503305e-06 5.720670e-04 -7.722117e-05 4.863556e-04 -1.229252e-04 3.599532e-04 -1.156609e-04 2.198350e-04 -5.856873e-05 7.666835e-05 3.055164e-05 -6.059529e-05 1.319401e-04 -1.829433e-04 2.291356e-04 -2.820294e-04 3.062975e-04 -3.502588e-04 3.500612e-04 -3.794931e-04 3.524746e-04 -3.618420e-04 3.086479e-04 -2.936580e-04 2.161883e-04 -1.759215e-04 7.708174e-05 -1.333434e-05 -1.015184e-04 1.837668e-04 -3.057001e-04 3.974254e-04 -5.159578e-04 6.010745e-04 -7.044161e-04 7.640320e-04 -8.256409e-04 8.524676e-04 -8.042693e-04 8.224554e-04 -4.987608e-04 6.099152e-04 4.184586e-04 1.606271e-04 3.172000e-03 -3.635686e-03 2.099441e-03 1.283196e-03 1.239143e-03 3.930969e-04 2.440992e-04 
-2.131781e-03 -1.844734e-03 -5.847570e-03 -4.020726e-03 -1.366715e-02 1.229620e-02 1.679843e-02 -9.800731e-03 2.667399e-03 -7.955030e-03 5.709294e-04 -1.066624e-02 -3.296819e-04 6.139899e-03 2.721582e-03 1.719321e-03 3.626114e-04 2.422686e-04 -2.707203e-03 -1.266394e-03 -8.053224e-03 3.455300e-03 6.039170e-03 2.213007e-03 2.727657e-03 1.131070e-03 1.297200e-03 7.550912e-04 5.016779e-04 5.948246e-04 5.028219e-05 5.231124e-04 -1.899064e-04 4.711200e-04 -3.020616e-04 3.960968e-04 -3.392326e-04 2.855149e-04 -3.240553e-04 1.518682e-04 -2.652629e-04 1.407830e-05 -1.785964e-04 -1.190707e-04 -9.797934e-05 -2.555618e-04 -6.345023e-05 -3.998730e-04 -9.067554e-05 -5.346730e-04 -1.607609e-04 -6.313982e-04 -2.155068e-04 -6.424190e-04 -4.173995e-04 -2.808474e-03 -7.206079e-03 -1.727710e-03 3.572992e-03 3.459823e-03 4.373450e-03 4.155724e-03 -1.778279e-04 -5.006762e-03 -2.486749e-03 3.903362e-03 1.221686e-03 7.752156e-03 9.585657e-03 9.533662e-03 1.132628e-02 1.163894e-03 -8.413365e-03 -9.906975e-03 -5.604610e-03 -4.028537e-03 -2.093934e-03 -2.217969e-03 -7.936300e-04 -1.407751e-03 -2.341349e-04 -9.610156e-04 -3.689840e-05 -6.427163e-04 -2.893065e-05 -3.603747e-04 -1.275919e-04 -9.485298e-05 -2.803949e-04 1.502564e-04 -4.461345e-04 3.674166e-04 -5.941659e-04 5.374673e-04 -7.031793e-04 6.382356e-04 -7.507729e-04 6.587555e-04 -7.133739e-04 5.898162e-04 -5.810103e-04 4.226791e-04 -3.533954e-04 1.590430e-04 -3.575443e-05 -1.875797e-04 3.576833e-04 -5.871139e-04 7.972298e-04 -1.003838e-03 1.229961e-03 -1.392998e-03 1.599618e-03 -1.677852e-03 1.856958e-03 -1.739753e-03 1.936503e-03 -1.371688e-03 1.703892e-03 8.441284e-06 7.585854e-04 4.841492e-03 -1.311828e-02 7.518189e-03 5.957430e-03 9.843005e-05 6.667395e-04 -7.364842e-04 
-1.985701e-03 -3.879351e-03 -9.766061e-03 -1.294660e-02 -3.023728e-02 2.001509e-03 1.095548e-02 -3.636254e-03 5.345965e-03 -7.866397e-04 4.748084e-03 3.009767e-03 4.907309e-03 -4.844941e-03 1.319321e-03 -2.285732e-03 1.278126e-03 -1.440897e-03 1.871037e-03 -8.107922e-04 3.424887e-03 -3.641100e-03 -4.124410e-03 -2.081417e-03 -2.093555e-03 -9.489474e-04 -1.392988e-03 -3.418228e-04 -1.135488e-03 5.148901e-05 -1.042599e-03 3.187894e-04 -9.797687e-04 4.801859e-04 -9.109041e-04 5.191448e-04 -8.361174e-04 4.457777e-04 -7.376706e-04 3.078782e-04 -5.937803e-04 1.564528e-04 -4.085491e-04 1.294464e-05 -2.335890e-04 -1.441292e-04 -1.468656e-04 -3.375168e-04 -1.969945e-04 -5.630355e-04 -4.124343e-04 -8.474665e-04 -8.817246e-04 -1.316117e-03 -1.618797e-03 -1.033747e-03 5.730066e-04 2.102274e-04 -1.657207e-03 -1.812877e-03 -3.819625e-03 -1.728122e-03 6.185798e-04 4.404267e-03 1.426655e-03 2.248961e-04 2.155844e-04 -1.454561e-03 -1.467221e-03 -1.490663e-03 -3.594077e-03 -5.435061e-04 4.266515e-03 3.144313e-03 2.779390e-03 4.818167e-04 1.668577e-03 -2.149358e-04 1.222181e-03 -5.073003e-04 9.072594e-04 -5.527229e-04 6.246911e-04 -4.285068e-04 3.376797e-04 -1.925883e-04 3.050895e-05 9.478091e-05 -2.914899e-04 3.936794e-04 -5.966437e-04 6.787259e-04 -8.538850e-04 9.114235e-04 -1.047018e-03 1.050778e-03 -1.148746e-03 1.082362e-03 -1.121433e-03 9.921279e-04 -9.538879e-04 7.599055e-04 -6.474711e-04 3.847507e-04 -2.103608e-04 -1.138241e-04 3.410724e-04 -6.904043e-04 9.684792e-04 -1.304348e-03 1.589236e-03 -1.914702e-03 2.122404e-03 -2.437602e-03 2.514713e-03 -2.760862e-03 2.679055e-03 -2.771245e-03 2.339080e-03 -2.176896e-03 4.863479e-04 6.037855e-04 -1.165320e-02 3.607250e-02 2.222727e-02 5.180497e-03 4.617916e-03 4.276814e-04 
-1.278258e-03 -5.033267e-03 -7.393669e-03 -1.400046e-02 -2.229567e-02 -2.099078e-02 -1.317442e-02 6.229922e-04 -8.314260e-05 -2.785943e-03 2.691449e-04 -5.020566e-03 -1.299178e-03 -3.827352e-04 3.049696e-04 -5.953604e-04 4.672635e-04 -5.143819e-04 4.888876e-04 -2.571535e-04 2.634116e-04 1.596289e-03 3.568086e-03 5.733022e-04 1.942181e-03 1.220707e-04 1.057569e-03 6.969623e-05 4.595963e-04 1.650929e-04 4.709799e-05 3.083127e-04 -2.193378e-04 4.351940e-04 -3.790664e-04 4.966131e-04 -4.650331e-04 4.845407e-04 -4.818449e-04 4.314272e-04 -4.228832e-04 3.793717e-04 -2.915298e-04 3.546821e-04 -1.147360e-04 3.635621e-04 7.899183e-05 4.329414e-04 3.155153e-04 6.516883e-04 6.948963e-04 1.159398e-03 1.368976e-03 2.116095e-03 2.442046e-03 3.312681e-03 2.804413e-03 1.135434e-03 -5.682482e-04 1.558412e-03 1.710016e-03 1.333073e-03 -2.743531e-03 -2.616853e-03 -2.334498e-03 -1.691339e-03 -1.889025e-03 -1.928661e-03 -3.285463e-03 -3.653765e-03 -4.334854e-04 -1.319228e-03 -5.114159e-04 -9.119107e-04 7.086516e-04 -5.786861e-04 7.173919e-04 -7.055143e-04 6.925818e-04 -6.678928e-04 6.036234e-04 -5.543732e-04 4.433327e-04 -3.788401e-04 2.393759e-04 -1.585643e-04 7.865746e-06 8.041330e-05 -2.404259e-04 3.207762e-04 -4.788841e-04 5.471765e-04 -6.825742e-04 7.341761e-04 -8.403295e-04 8.540603e-04 -9.328762e-04 8.970457e-04 -9.332245e-04 8.531306e-04 -8.331631e-04 7.068926e-04 -6.322900e-04 4.572711e-04 -3.370207e-04 1.191202e-04 4.155087e-05 -2.762293e-04 4.780567e-04 -7.031595e-04 9.165064e-04 -1.136257e-03 1.302596e-03 -1.520927e-03 1.604820e-03 -1.786738e-03 1.782030e-03 -1.885290e-03 1.743119e-03 -1.743645e-03 1.384580e-03 -1.268401e-03 8.567092e-03 4.265867e-02 2.166450e-02 8.194857e-03 4.914379e-03 8.907674e-04 
-5.916811e-04 -2.034560e-03 -2.859901e-03 -5.088868e-03 -5.446757e-03 -1.493409e-02 -1.384545e-02 -1.405046e-04 -3.566974e-03 -4.491194e-03 -3.168998e-03 -9.618702e-03 -4.740213e-03 -2.668667e-04 3.388555e-04 -5.938425e-04 4.953412e-04 -5.355021e-04 4.983438e-04 -2.868616e-04 1.901355e-04 6.235996e-03 7.736705e-03 2.559332e-03 3.123316e-03 9.214455e-04 1.357296e-03 3.775981e-04 4.888270e-04 2.067493e-04 3.026988e-05 1.845533e-04 -2.242268e-04 2.033216e-04 -3.698668e-04 2.090467e-04 -4.551185e-04 1.791888e-04 -5.058369e-04 1.103683e-04 -5.415448e-04 2.849050e-06 -5.869296e-04 -1.530533e-04 -6.798878e-04 -3.836875e-04 -8.715181e-04 -7.317946e-04 -1.221176e-03 -1.260316e-03 -1.802190e-03 -2.069325e-03 -2.687078e-03 -3.234325e-03 -4.176509e-03 -7.693960e-03 -1.471306e-02 -3.549957e-03 5.979818e-03 3.253101e-03 4.003344e-03 5.641362e-03 4.227666e-03 -9.924100e-04 1.063102e-03 8.370676e-03 4.925020e-03 9.417429e-03 1.366186e-02 1.233719e-02 1.525434e-02 4.043417e-03 -9.465350e-03 -1.276304e-02 -7.589934e-03 -5.100511e-03 -2.755402e-03 -2.561220e-03 -1.132410e-03 -1.511482e-03 -4.800406e-04 -9.673618e-04 -2.379766e-04 -6.201928e-04 -1.825862e-04 -3.556297e-04 -2.169645e-04 -1.324057e-04 -2.962966e-04 6.289804e-05 -3.909503e-04 2.294125e-04 -4.791481e-04 3.600608e-04 -5.463274e-04 4.460748e-04 -5.790420e-04 4.815367e-04 -5.651130e-04 4.619470e-04 -4.985113e-04 3.840168e-04 -3.781172e-04 2.507111e-04 -2.091664e-04 7.315177e-05 -1.916025e-06 -1.306606e-04 2.265186e-04 -3.383944e-04 4.509656e-04 -5.185288e-04 6.464911e-04 -6.194137e-04 7.996021e-04 -5.561690e-04 9.262405e-04 -1.803205e-04 1.157663e-03 8.063493e-04 2.081090e-03 2.351627e-03 1.088429e-02 1.684118e-02 5.994044e-03 5.406875e-03 2.127909e-03 1.425963e-03 
-6.426691e-04 -1.943852e-03 -2.912348e-03 -4.146345e-03 -4.612741e-03 -5.819297e-03 -5.975509e-03 -4.698871e-03 -4.660226e-03 -6.842384e-03 -5.582074e-03 -1.174821e-02 -1.029257e-02 -1.933991e-04 5.656642e-05 -1.935745e-04 1.399448e-04 -1.527789e-04 1.743432e-04 -5.696559e-05 1.919139e-04 1.145559e-02 1.177756e-02 4.291725e-03 4.926713e-03 1.734353e-03 2.467039e-03 8.278409e-04 1.242286e-03 4.575388e-04 5.832451e-04 3.112664e-04 2.055811e-04 2.491966e-04 -2.211754e-05 2.062136e-04 -1.667294e-04 1.517031e-04 -2.667430e-04 7.126327e-05 -3.519999e-04 -4.815710e-05 -4.579643e-04 -2.316725e-04 -6.369450e-04 -5.274652e-04 -9.661012e-04 -1.016291e-03 -1.556809e-03 -1.827774e-03 -2.574709e-03 -3.163975e-03 -4.232789e-03 -5.201788e-03 -6.712770e-03 -9.297969e-03 -1.392299e-02 -3.875918e-03 6.613690e-03 4.169028e-03 2.482041e-03 4.798090e-03 5.035052e-03 3.157511e-03 1.767384e-03 4.269466e-03 2.816022e-03 -5.032286e-04 8.785891e-05 -1.123298e-03 1.145142e-03 4.999563e-03 5.272695e-03 2.209853e-03 1.504052e-03 9.632179e-04 1.716918e-03 9.383380e-04 1.431972e-03 5.742527e-04 9.929145e-04 2.731363e-04 6.151294e-04 1.106284e-04 3.246594e-04 6.344319e-05 1.028510e-04 9.054050e-05 -7.078390e-05 1.566554e-04 -2.072976e-04 2.350313e-04 -3.104073e-04 3.051471e-04 -3.801017e-04 3.518228e-04 -4.130816e-04 3.656230e-04 -4.047640e-04 3.406993e-04 -3.530921e-04 2.740351e-04 -2.590977e-04 1.674499e-04 -1.272578e-04 2.846279e-05 3.436385e-05 -1.297470e-04 2.133463e-04 -2.890117e-04 3.938740e-04 -4.218579e-04 5.647896e-04 -4.804561e-04 7.323164e-04 -3.786214e-04 9.408874e-04 4.683454e-05 1.321619e-03 1.117866e-03 2.171281e-03 3.243446e-03 3.894090e-03 7.108904e-03 3.881756e-03 3.753916e-03 1.770692e-03 7.935727e-04 
-1.952082e-04 -6.517359e-04 -1.022744e-03 -1.704517e-03 -1.826099e-03 -2.736769e-03 -2.843461e-03 -2.290124e-03 -2.464115e-03 -3.297974e-03 -2.670512e-03 -5.687286e-03 -4.833870e-03 -9.341022e-05 5.670252e-05 -1.274647e-04 1.072265e-04 -1.152362e-04 1.144996e-04 -5.550672e-05 9.415634e-05 5.801344e-03 5.927404e-03 2.017831e-03 2.308469e-03 7.279269e-04 1.046304e-03 2.870938e-04 4.505907e-04 1.170438e-04 1.497901e-04 4.990513e-05 -1.909407e-05 1.306437e-05 -1.295325e-04 -2.623166e-05 -2.190674e-04 -8.637195e-05 -3.127911e-04 -1.826516e-04 -4.353552e-04 -3.353123e-04 -6.193213e-04 -5.769508e-04 -9.120159e-04 -9.586639e-04 -1.380110e-03 -1.553054e-03 -2.109932e-03 -2.450936e-03 -3.199642e-03 -3.741635e-03 -4.716042e-03 -5.427340e-03 -6.808037e-03 -8.737276e-03 -1.122611e-02 -1.373541e-03 5.352403e-03 1.422403e-03 4.149649e-03 4.596182e-03 -1.463746e-03 -1.932213e-03 8.035468e-04 3.771040e-03 3.845011e-03 6.248790e-03 1.143737e-02 1.033227e-02 6.302624e-03 4.578992e-04 -2.075040e-03 -1.110152e-03 3.061709e-04 4.021141e-04 1.056966e-03 6.400178e-04 9.381767e-04 4.210580e-04 6.231688e-04 1.805602e-04 3.397627e-04 2.839269e-05 1.331016e-04 -3.514761e-05 -7.051039e-06 -3.747088e-05 -1.004017e-04 -5.977716e-06 -1.620661e-04 3.837007e-05 -2.009853e-04 8.111940e-05 -2.216165e-04 1.130413e-04 -2.253912e-04 1.289339e-04 -2.122813e-04 1.263482e-04 -1.823809e-04 1.048871e-04 -1.366872e-04 6.632921e-05 -7.763445e-05 1.476682e-05 -9.119951e-06 -4.333634e-05 6.374361e-05 -9.867571e-05 1.358745e-04 -1.370578e-04 2.060238e-04 -1.351126e-04 2.843462e-04 -5.304575e-05 4.063153e-04 1.759908e-04 6.545732e-04 6.522195e-04 1.169050e-03 1.457744e-03 1.988128e-03 2.632340e-03 1.501406e-03 1.633138e-03 6.737902e-04 4.782888e-04 
2.191516e-06 -2.258694e-07 1.533709e-06 -4.767807e-07 1.400837e-06 -1.039411e-06 1.697413e-06 -1.632353e-06 2.026273e-06 -2.021966e-06 2.212474e-06 -2.254631e-06 2.720176e-06 2.560463e-08 -6.645583e-08 -2.814202e-08 -1.572404e-07 -1.552753e-07 -2.262705e-07 -3.590859e-07 -3.594403e-07 -2.817749e-05 1.169444e-05 -2.058349e-05 1.329706e-05 -2.481056e-05 1.043224e-05 -3.172998e-05 4.560524e-06 -4.097207e-05 -5.245108e-06 -5.349513e-05 -2.153769e-05 -7.236408e-05 -4.913813e-05 -1.030493e-04 -9.521264e-05 -1.535774e-04 -1.699632e-04 -2.361805e-04 -2.892663e-04 -3.710212e-04 -4.789396e-04 -5.908773e-04 -7.789121e-04 -9.442028e-04 -1.243878e-03 -1.492487e-03 -1.935856e-03 -2.297079e-03 -2.903193e-03 -3.386637e-03 -4.123668e-03 -4.678930e-03 -5.644777e-03 -7.298668e-03 -8.751930e-03 5.563607e-04 4.872699e-03 9.130699e-04 3.217442e-03 3.515479e-03 1.751337e-03 2.228333e-03 2.897880e-03 4.483658e-03 2.483850e-03 2.255817e-03 3.326704e-03 2.279906e-03 5.388044e-03 3.314256e-03 -2.187418e-03 -2.068262e-03 2.391466e-05 7.341479e-04 1.424986e-03 1.249494e-03 1.429730e-03 1.042166e-03 1.077636e-03 7.042535e-04 7.086909e-04 4.235847e-04 4.213685e-04 2.358041e-04 2.237936e-04 1.256419e-04 9.771864e-05 6.787125e-05 2.223028e-05 4.089804e-05 -1.959656e-05 2.960014e-05 -3.998346e-05 2.478558e-05 -4.707758e-05 2.181380e-05 -4.604596e-05 1.881757e-05 -4.026350e-05 1.532518e-05 -3.199681e-05 1.141900e-05 -2.296579e-05 7.160388e-06 -1.452351e-05 2.597452e-06 -7.476939e-06 -2.024296e-06 -2.011297e-06 -6.115334e-06 2.214722e-06 -8.899997e-06 5.602984e-06 -9.919807e-06 8.088162e-06 -9.314116e-06 9.218102e-06 -7.440718e-06 8.821658e-06 -4.593818e-06 7.164991e-06 -1.602625e-06 5.238823e-06 -5.414306e-07 3.434154e-06 -2.209654e-07 
1.988340e-04 6.509548e-04 1.024941e-03 1.703520e-03 1.827898e-03 2.734640e-03 2.846261e-03 2.286088e-03 2.467535e-03 3.292649e-03 2.674180e-03 5.681377e-03 4.839407e-03 9.352313e-05 -5.708737e-05 1.276344e-04 -1.079208e-04 1.151165e-04 -1.152714e-04 5.473181e-05 -9.508372e-05 -5.877018e-03 -5.912922e-03 -2.074297e-03 -2.290878e-03 -7.932239e-04 -1.037366e-03 -3.677968e-04 -4.571835e-04 -2.188795e-04 -1.804435e-04 -1.804545e-04 -4.888966e-05 -1.854861e-04 2.162118e-06 -2.109158e-04 -2.499014e-06 -2.520331e-04 -5.530679e-05 -3.136907e-04 -1.579942e-04 -4.083089e-04 -3.198153e-04 -5.557038e-04 -5.568094e-04 -7.805634e-04 -8.867196e-04 -1.102238e-03 -1.313791e-03 -1.511985e-03 -1.799582e-03 -1.934940e-03 -2.213169e-03 -2.163660e-03 -2.329482e-03 -2.364444e-03 -2.985155e-03 -5.879947e-04 1.443357e-03 2.351981e-03 2.943935e-03 1.488635e-03 -3.805044e-05 -7.142728e-04 -8.496672e-04 4.743199e-04 1.219303e-03 1.690409e-03 6.691640e-04 -1.321673e-03 -5.041983e-04 4.595870e-04 1.175128e-03 1.917087e-03 2.229281e-03 2.074540e-03 1.908378e-03 1.572266e-03 1.346153e-03 1.035622e-03 8.423166e-04 6.083691e-04 4.742823e-04 3.131249e-04 2.396972e-04 1.255846e-04 1.090128e-04 1.197275e-05 4.976916e-05 -5.586506e-05 3.484436e-05 -9.678915e-05 4.365257e-05 -1.213422e-04 6.111653e-05 -1.339486e-04 7.662610e-05 -1.351275e-04 8.315736e-05 -1.237386e-04 7.655836e-05 -9.873770e-05 5.519691e-05 -6.059339e-05 1.938649e-05 -1.235482e-05 -2.876566e-05 4.030427e-05 -8.512700e-05 8.902634e-05 -1.446082e-04 1.210879e-04 -2.051001e-04 1.148359e-04 -2.758306e-04 3.152370e-05 -3.922751e-04 -1.958411e-04 -6.378661e-04 -6.680639e-04 -1.152811e-03 -1.467740e-03 -1.975233e-03 -2.636193e-03 -1.491999e-03 -1.635000e-03 -6.677502e-04 -4.793195e-04 
6.449200e-04 1.944561e-03 2.913442e-03 4.146670e-03 4.613736e-03 5.817230e-03 5.978782e-03 4.694835e-03 4.664827e-03 6.837646e-03 5.586957e-03 1.174306e-02 1.029890e-02 1.935665e-04 -5.676089e-05 1.938262e-04 -1.403462e-04 1.527746e-04 -1.747482e-04 5.627538e-05 -1.924495e-04 -1.149894e-02 -1.174899e-02 -4.327191e-03 -4.895262e-03 -1.779222e-03 -2.438886e-03 -8.863652e-04 -1.221703e-03 -5.310603e-04 -5.733585e-04 -3.997388e-04 -2.120895e-04 -3.576221e-04 -1.625458e-05 -3.507294e-04 6.833074e-05 -3.592649e-04 6.890654e-05 -3.794352e-04 6.677935e-07 -4.174645e-04 -1.294845e-04 -4.885273e-04 -3.235255e-04 -6.150361e-04 -5.885089e-04 -8.154958e-04 -9.211000e-04 -1.082153e-03 -1.284571e-03 -1.355509e-03 -1.585657e-03 -1.495468e-03 -1.648306e-03 -1.297959e-03 -1.362671e-03 -4.246709e-04 8.359192e-05 2.182645e-04 6.366379e-04 7.946129e-04 1.007224e-03 1.207579e-03 1.170688e-03 1.311517e-03 9.894101e-04 7.379793e-04 4.764218e-04 2.242553e-04 7.803453e-04 9.550513e-04 7.386035e-04 9.022888e-04 8.500681e-04 9.682670e-04 8.148942e-04 8.661138e-04 6.343370e-04 6.666682e-04 4.209281e-04 4.559118e-04 2.494235e-04 2.736579e-04 1.457828e-04 1.262588e-04 1.072261e-04 6.450548e-06 1.185663e-04 -9.381470e-05 1.612915e-04 -1.782437e-04 2.169020e-04 -2.460185e-04 2.679614e-04 -2.927029e-04 2.999504e-04 -3.111314e-04 3.021912e-04 -2.943579e-04 2.679040e-04 -2.376058e-04 1.952536e-04 -1.407197e-04 8.559196e-05 -1.145946e-05 -5.671084e-05 1.360284e-04 -2.213324e-04 2.833300e-04 -3.925700e-04 4.046811e-04 -5.568004e-04 4.557547e-04 -7.173774e-04 3.523701e-04 -9.192181e-04 -7.049362e-05 -1.297067e-03 -1.136683e-03 -2.148720e-03 -3.253336e-03 -3.878773e-03 -7.104368e-03 -3.871648e-03 -3.751883e-03 -1.765881e-03 -7.925062e-04 
5.918135e-04 2.036051e-03 2.858280e-03 5.091347e-03 5.442158e-03 1.493447e-02 1.385031e-02 1.341887e-04 3.571710e-03 4.483487e-03 3.173245e-03 9.610017e-03 4.748106e-03 2.672726e-04 -3.396290e-04 5.954266e-04 -4.969635e-04 5.368449e-04 -4.993629e-04 2.856271e-04 -1.904686e-04 -6.283801e-03 -7.703709e-03 -2.603473e-03 -3.092095e-03 -9.742991e-04 -1.330739e-03 -4.443781e-04 -4.702699e-04 -2.883057e-04 -1.989796e-05 -2.774901e-04 2.254011e-04 -3.086277e-04 3.506095e-04 -3.398449e-04 3.919860e-04 -3.556705e-04 3.705113e-04 -3.521088e-04 3.037194e-04 -3.314539e-04 2.074750e-04 -3.019871e-04 9.196341e-05 -2.788544e-04 -3.835280e-05 -2.753727e-04 -1.730335e-04 -2.867075e-04 -2.846126e-04 -2.848151e-04 -3.349387e-04 -2.321474e-04 -2.956860e-04 -1.098448e-04 -1.784356e-04 1.479521e-04 2.886809e-04 4.855908e-04 5.009222e-04 4.111598e-04 2.628871e-04 1.539434e-04 4.023713e-05 8.363561e-05 -3.884130e-05 -5.695147e-05 -2.643290e-04 -3.381798e-04 -1.766177e-04 5.498769e-05 9.786135e-05 3.657510e-04 2.716519e-04 4.975366e-04 2.495604e-04 4.667753e-04 1.425858e-04 3.717119e-04 3.811323e-05 2.628818e-04 -2.341701e-05 1.566439e-04 -3.069162e-05 5.365383e-05 1.132337e-05 -4.983164e-05 8.958209e-05 -1.543250e-04 1.881094e-04 -2.550004e-04 2.895357e-04 -3.434749e-04 3.755269e-04 -4.091408e-04 4.299900e-04 -4.392502e-04 4.409144e-04 -4.228748e-04 4.005855e-04 -3.526409e-04 3.082261e-04 -2.276933e-04 1.666891e-04 -5.895438e-05 -1.810918e-05 1.342211e-04 -2.311584e-04 3.286464e-04 -4.470130e-04 4.951493e-04 -6.369124e-04 5.873199e-04 -7.825585e-04 5.233414e-04 -9.005218e-04 1.514842e-04 -1.128223e-03 -8.294763e-04 -2.054097e-03 -2.362965e-03 -1.087007e-02 -1.682870e-02 -5.985269e-03 -5.403935e-03 -2.125371e-03 -1.424265e-03 
1.273471e-03 5.036189e-03 7.389038e-03 1.400785e-02 2.228382e-02 2.098109e-02 1.318508e-02 -6.295865e-04 9.098750e-05 2.779990e-03 -2.626198e-04 5.015181e-03 1.305814e-03 3.837759e-04 -3.056613e-04 5.972415e-04 -4.684812e-04 5.163179e-04 -4.890513e-04 2.563583e-04 -2.645774e-04 -1.604267e-03 -3.537438e-03 -5.903100e-04 -1.897443e-03 -1.533527e-04 -1.012478e-03 -1.247636e-04 -4.229428e-04 -2.397564e-04 -6.395097e-06 -3.741982e-04 2.901225e-04 -4.702667e-04 4.768818e-04 -5.184672e-04 5.543737e-04 -5.209413e-04 5.384205e-04 -4.789492e-04 4.598270e-04 -3.908930e-04 3.591520e-04 -2.603575e-04 2.613381e-04 -1.191777e-04 1.593706e-04 -1.299723e-05 5.063820e-05 4.943422e-05 -3.093226e-05 9.626256e-05 -5.156322e-05 1.412342e-04 -2.200626e-05 1.561611e-04 -5.791147e-06 8.148999e-05 -1.437713e-05 5.292812e-05 7.609400e-05 1.418787e-04 2.969815e-04 2.898003e-04 4.187441e-04 3.492388e-04 3.412675e-04 2.645689e-04 1.893282e-04 2.338806e-04 2.282557e-04 3.293404e-04 2.587900e-05 2.176618e-04 -1.851097e-04 1.960199e-04 -3.027030e-04 2.192170e-04 -3.519450e-04 2.411974e-04 -3.492020e-04 2.308483e-04 -2.985400e-04 1.771828e-04 -1.957997e-04 8.012619e-05 -4.586177e-05 -5.912327e-05 1.373517e-04 -2.294183e-04 3.379572e-04 -4.092963e-04 5.351152e-04 -5.768371e-04 6.978236e-04 -7.112717e-04 7.990774e-04 -7.831844e-04 8.198996e-04 -7.700943e-04 7.437458e-04 -6.529006e-04 5.745037e-04 -4.188052e-04 3.158942e-04 -9.071354e-05 -3.519523e-05 2.915378e-04 -4.581751e-04 6.961398e-04 -8.997434e-04 1.100078e-03 -1.292758e-03 1.467236e-03 -1.585900e-03 1.739553e-03 -1.739744e-03 1.850181e-03 -1.692632e-03 1.706228e-03 -1.343283e-03 1.236131e-03 -8.547115e-03 -4.258254e-02 -2.165808e-02 -8.196359e-03 -4.922822e-03 -8.904095e-04 
1.980359e-03 3.880455e-03 9.764230e-03 1.295055e-02 3.023242e-02 -2.027235e-03 -1.094786e-02 3.631890e-03 -5.341281e-03 7.866919e-04 -4.746234e-03 -3.007239e-03 -4.911400e-03 4.844428e-03 -1.319473e-03 2.292710e-03 -1.284405e-03 1.450656e-03 -1.873476e-03 8.032781e-04 -3.406749e-03 3.634646e-03 4.151379e-03 2.072125e-03 2.140522e-03 9.221234e-04 1.439493e-03 2.840947e-04 1.170048e-03 -1.343294e-04 1.082203e-03 -3.880497e-04 1.060524e-03 -5.060142e-04 1.027963e-03 -5.271452e-04 9.394423e-04 -4.790449e-04 7.917249e-04 -3.745697e-04 6.110432e-04 -2.154201e-04 4.412872e-04 -6.807896e-06 3.070296e-04 2.077864e-04 1.887971e-04 3.636135e-04 7.132316e-05 4.427544e-04 -1.254166e-05 4.749854e-04 -2.796032e-05 4.758633e-04 1.345400e-05 4.288364e-04 6.658563e-05 3.172341e-04 5.369641e-05 9.935528e-05 -2.147281e-05 -1.605663e-04 -1.441796e-04 -3.903916e-04 -2.059647e-04 -4.883703e-04 -2.018743e-04 -4.358106e-04 -1.924737e-04 -3.217223e-04 -3.048556e-04 -2.378317e-04 -2.871253e-04 2.731399e-05 -2.211196e-04 2.719103e-04 -1.853616e-04 4.311950e-04 -1.846815e-04 4.900806e-04 -1.852996e-04 4.584144e-04 -1.522717e-04 3.540324e-04 -5.876195e-05 1.934948e-04 9.701506e-05 -1.476057e-05 2.988066e-04 -2.540448e-04 5.258916e-04 -4.958894e-04 7.500980e-04 -7.120103e-04 9.288024e-04 -8.757224e-04 1.024783e-03 -9.479860e-04 1.011539e-03 -8.990948e-04 8.654079e-04 -7.034975e-04 5.911762e-04 -3.435804e-04 1.943623e-04 1.480164e-04 -3.272236e-04 7.133245e-04 -9.416598e-04 1.303190e-03 -1.571026e-03 1.878453e-03 -2.116947e-03 2.379997e-03 -2.499365e-03 2.712602e-03 -2.633373e-03 2.737539e-03 -2.282549e-03 2.135335e-03 -4.406454e-04 -6.473131e-04 1.167464e-02 -3.596905e-02 -2.222610e-02 -5.186042e-03 -4.631451e-03 -4.291586e-04 
2.131193e-03 1.842901e-03 5.849385e-03 4.017125e-03 1.367208e-02 -1.231511e-02 -1.679818e-02 9.797611e-03 -2.669931e-03 7.956333e-03 -5.774932e-04 1.067168e-02 3.259165e-04 -6.121920e-03 -2.734332e-03 -1.708368e-03 -3.650012e-04 -2.384646e-04 2.707875e-03 1.278875e-03 8.047683e-03 -3.483921e-03 -6.011870e-03 -2.244839e-03 -2.697303e-03 -1.177058e-03 -1.270202e-03 -8.227900e-04 -4.834423e-04 -6.816650e-04 -3.510581e-05 -6.128367e-04 2.135658e-04 -5.533626e-04 3.249875e-04 -4.865892e-04 3.304662e-04 -4.106351e-04 2.577075e-04 -3.262617e-04 1.360725e-04 -2.343574e-04 -4.926076e-06 -1.410170e-04 -1.488231e-04 -6.931980e-05 -2.987519e-04 -4.756401e-05 -4.525785e-04 -7.578161e-05 -5.798262e-04 -1.209197e-04 -6.368492e-04 -1.413342e-04 -5.880056e-04 -1.032370e-04 -4.154607e-04 7.421345e-06 -1.233843e-04 1.061323e-04 1.241401e-04 2.131776e-04 3.636547e-04 4.059665e-04 6.199591e-04 5.983035e-04 8.642115e-04 7.522869e-04 9.350259e-04 6.939725e-04 6.879741e-04 5.190833e-04 4.697988e-04 4.209626e-04 2.453225e-04 3.009122e-04 3.838223e-05 2.081834e-04 -1.063308e-04 1.408010e-04 -1.794132e-04 8.223553e-05 -1.838838e-04 1.769948e-05 -1.256682e-04 -6.219916e-05 -1.764070e-05 -1.631255e-04 1.227191e-04 -2.814453e-04 2.775318e-04 -4.037163e-04 4.261297e-04 -5.127232e-04 5.419484e-04 -5.892719e-04 6.009527e-04 -6.082548e-04 5.846343e-04 -5.487615e-04 4.780602e-04 -3.942351e-04 2.803403e-04 -1.363791e-04 -5.276001e-06 2.064350e-04 -3.731215e-04 5.985716e-04 -7.973548e-04 1.001190e-03 -1.226800e-03 1.371215e-03 -1.596439e-03 1.643586e-03 -1.845111e-03 1.707405e-03 -1.908571e-03 1.345210e-03 -1.669352e-03 -3.594067e-05 -7.281515e-04 -4.864536e-03 1.314060e-02 -7.471685e-03 -5.953502e-03 -1.006112e-04 -6.703431e-04 7.352720e-04 
1.145151e-03 6.152954e-04 3.027320e-03 1.123380e-03 4.959297e-03 -3.649549e-03 -4.615327e-03 4.651782e-03 1.216726e-03 5.530939e-03 5.180610e-03 1.136623e-02 1.571781e-02 1.697313e-02 6.636547e-03 5.295439e-03 2.159308e-03 -1.911254e-03 -3.817413e-03 -8.035268e-03 -1.708981e-02 -1.638617e-02 -9.652400e-03 -6.158287e-03 -3.557720e-03 -2.624974e-03 -1.310193e-03 -1.209541e-03 -3.491451e-04 -6.340421e-04 5.854405e-05 -3.997211e-04 2.250795e-04 -2.938998e-04 2.772021e-04 -2.320092e-04 2.667394e-04 -1.816238e-04 2.199196e-04 -1.299671e-04 1.552944e-04 -7.211161e-05 8.771873e-05 -8.589119e-06 2.684107e-05 5.553157e-05 -2.050367e-05 1.193391e-04 -3.951334e-05 1.978996e-04 -3.186286e-06 3.159331e-04 1.034636e-04 4.688723e-04 2.253334e-04 5.554766e-04 1.530922e-04 5.497068e-04 5.667519e-04 9.524648e-04 8.453856e-04 8.890277e-04 6.188255e-04 3.361761e-04 -1.572175e-06 -2.350507e-04 -9.923770e-04 -1.428743e-03 -2.079879e-03 -2.124174e-03 -9.158033e-04 -5.730995e-04 -3.232116e-04 -2.447970e-04 1.637827e-05 8.138886e-05 1.898505e-04 2.030678e-04 2.230398e-04 2.143601e-04 1.943511e-04 1.751538e-04 1.542829e-04 1.163998e-04 1.297117e-04 5.111933e-05 1.302146e-04 -1.712601e-05 1.545382e-04 -8.665302e-05 1.954758e-04 -1.535586e-04 2.418452e-04 -2.115813e-04 2.797460e-04 -2.520494e-04 2.958896e-04 -2.636626e-04 2.794740e-04 -2.357628e-04 2.226711e-04 -1.604445e-04 1.227591e-04 -3.552129e-05 -1.930147e-05 1.307989e-04 -1.981752e-04 3.221658e-04 -3.991017e-04 5.179391e-04 -5.959165e-04 6.918450e-04 -7.541488e-04 8.031574e-04 -8.358100e-04 7.792008e-04 -7.979254e-04 4.754876e-04 -5.820806e-04 -4.385136e-04 -1.359742e-04 -3.183122e-03 3.656647e-03 -2.087519e-03 -1.274452e-03 -1.236552e-03 -3.900053e-04 -2.434985e-04 
