# vtk DataFile Version 2.0
Comment goes here
ASCII

DATASET STRUCTURED_POINTS
FIELD FieldData 1
TIME 1 1 double
0.99000000
DIMENSIONS    128   16   1

ORIGIN    0.000   0.000   0.000
SPACING   0.0078125 0.015625   1.000

POINT_DATA   2048
SCALARS fMag double
LOOKUP_TABLE default

0 0 0 0 0 0 0 0 0 0 0 0 0 0 0 0 0 0 0 0 0 0 0 0 0 0 0 0 0 0 0 0 0 0 0 0 0 0 0 0 0 0 0 0 0 0 0 0 0 0 0 0 0 0 0 0 0 0 0 0 0 0 0 0 0 0 0 0 0 0 0 0 0 0 0 0 0 0 0 0 0 0 0 0 0 0 0 0 0 0 0 0 0 0 0 0 0 0 0 0 0 0 0 0 0 0 0 0 0 0 0 0 0 0 0 0 0 0 0 0 0 0 0 0 0 0 0 0 
0 0 0 0 0 0 0 0 0 0 0 0 0 0 0 0 0 0 0 0 0 0 0 0 0 0 0 0 0 0 0 0 0 0 0 0 0 0 0 0 0 0 0 0 0 0 0 0 0 0 0 0 0 0 0 0 0 0 0 0 0 0 0 0 0 0 0 0 0 0 0 0 0 0 0 0 0 0 0 0 0 0 0 0 0 0 0 0 0 0 0 0 0 0 0 0 0 0 0 0 0 0 0 0 0 0 0 0 0 0 0 0 0 0 0 0 0 0 0 0 0 0 0 0 0 0 0 0 
0 0 0 0 0 1.094146e+00 2.457699e+00 1.917959e+00 1.985400e+00 1.787131e+00 2.448906e+00 2.086759e+00 2.986759e+00 4.047829e+00 5.760435e+00 7.047661e+00 1.109870e+01 1.428867e+01 1.772516e+01 2.136854e+01 2.545560e+01 2.600858e+01 2.550831e+01 2.559246e+01 2.517676e+01 2.511823e+01 2.478589e+01 2.461554e+01 2.436241e+01 2.410805e+01 2.392156e+01 2.360912e+01 2.346763e+01 2.311834e+01 2.299642e+01 2.263174e+01 2.250786e+01 2.214865e+01 2.200666e+01 2.167113e+01 2.150058e+01 2.119902e+01 2.099175e+01 2.072652e+01 2.048271e+01 2.025417e+01 1.998099e+01 1.978229e+01 1.948677e+01 1.930327e+01 1.899131e+01 1.880653e+01 1.848911e+01 1.829675e+01 1.799447e+01 1.779170e+01 1.764846e+01 1.784783e+01 1.753928e+01 1.676435e+01 1.579963e+01 1.549855e+01 1.600432e+01 1.687165e+01 1.718386e+01 1.593532e+01 1.496091e+01 1.444304e+01 1.441995e+01 1.490830e+01 1.597093e+01 1.544559e+01 1.386737e+01 1.345360e+01 1.314866e+01 1.293181e+01 1.260289e+01 1.243022e+01 1.209082e+01 1.195241e+01 1.160401e+01 1.147106e+01 1.111363e+01 1.096113e+01 1.061045e+01 1.042941e+01 1.011489e+01 9.901500e+00 9.642463e+00 9.381187e+00 9.179172e+00 8.854730e+00 8.708758e+00 8.319907e+00 8.229802e+00 7.788448e+00 7.747633e+00 7.269992e+00 7.257664e+00 6.762808e+00 6.752189e+00 6.269736e+00 6.233339e+00 5.797020e+00 5.703487e+00 5.343478e+00 5.159262e+00 4.897320e+00 4.594742e+00 4.449122e+00 4.021138e+00 4.004698e+00 3.461111e+00 3.565275e+00 2.926463e+00 3.115207e+00 2.415586e+00 2.630571e+00 1.931840e+00 2.104949e+00 1.515356e+00 2.012405e+00 1.682709e+00 5.758343e-01 0 0 0 0 
0 0 0 0 0 3.218665e+00 7.226755e+00 5.638674e+00 5.840784e+00 5.258779e+00 7.205985e+00 6.141901e+00 8.788789e+00 1.190598e+01 1.693982e+01 2.072565e+01 3.263938e+01 4.201913e+01 5.212330e+01 6.283423e+01 7.484879e+01 7.647442e+01 7.500390e+01 7.525125e+01 7.402929e+01 7.385720e+01 7.288023e+01 7.237946e+01 7.163536e+01 7.088765e+01 7.033948e+01 6.942103e+01 6.900516e+01 6.797839e+01 6.762003e+01 6.654800e+01 6.618384e+01 6.512785e+01 6.471043e+01 6.372405e+01 6.322267e+01 6.233613e+01 6.172679e+01 6.094705e+01 6.023031e+01 5.955841e+01 5.875532e+01 5.817119e+01 5.730239e+01 5.676294e+01 5.584581e+01 5.530256e+01 5.436937e+01 5.380384e+01 5.291514e+01 5.231901e+01 5.159703e+01 5.127411e+01 5.056377e+01 4.959165e+01 4.902281e+01 4.825167e+01 4.746482e+01 4.723959e+01 4.708604e+01 4.570265e+01 4.486904e+01 4.420361e+01 4.326823e+01 4.249808e+01 4.255748e+01 4.211330e+01 4.057441e+01 3.956422e+01 3.866759e+01 3.803000e+01 3.706284e+01 3.655512e+01 3.555716e+01 3.515015e+01 3.412568e+01 3.373475e+01 3.268370e+01 3.223525e+01 3.120402e+01 3.067162e+01 2.974673e+01 2.911923e+01 2.835749e+01 2.758921e+01 2.699517e+01 2.604116e+01 2.561194e+01 2.446851e+01 2.420358e+01 2.290571e+01 2.278569e+01 2.138104e+01 2.134473e+01 1.988935e+01 1.985800e+01 1.843901e+01 1.833181e+01 1.704845e+01 1.677325e+01 1.571434e+01 1.517254e+01 1.440216e+01 1.351239e+01 1.308423e+01 1.182576e+01 1.177761e+01 1.017917e+01 1.048569e+01 8.607029e+00 9.162063e+00 7.104015e+00 7.735084e+00 5.676434e+00 6.174423e+00 4.402295e+00 5.862794e+00 4.928957e+00 1.694126e+00 0 0 0 0 
0 0 0 0 0 2.223603e+00 4.991079e+00 3.893804e+00 4.035231e+00 3.633760e+00 4.979199e+00 4.244685e+00 6.072962e+00 3.942638e+01 4.912552e+01 4.433222e+01 5.622744e+01 5.236376e+01 6.109501e+01 6.470978e+01 6.453592e+01 5.281493e+01 5.179958e+01 5.197036e+01 5.112661e+01 5.100777e+01 5.033317e+01 4.998738e+01 4.947357e+01 4.895730e+01 4.857879e+01 4.794462e+01 4.765747e+01 4.694849e+01 4.670105e+01 4.596081e+01 4.570937e+01 4.498018e+01 4.469195e+01 4.401082e+01 4.366460e+01 4.305242e+01 4.263165e+01 4.209320e+01 4.159827e+01 4.113430e+01 4.057974e+01 4.017638e+01 3.957644e+01 3.920392e+01 3.857060e+01 3.819546e+01 3.755105e+01 3.716051e+01 3.654681e+01 3.613514e+01 3.537063e+01 3.434796e+01 3.403385e+01 3.411675e+01 3.383086e+01 3.339653e+01 3.275226e+01 3.079077e+01 2.985908e+01 3.066379e+01 3.044966e+01 2.969432e+01 2.958227e+01 2.855107e+01 2.669755e+01 2.702528e+01 2.788733e+01 2.732678e+01 2.670755e+01 2.626721e+01 2.559927e+01 2.524863e+01 2.455941e+01 2.427831e+01 2.357076e+01 2.330076e+01 2.257484e+01 2.226511e+01 2.155287e+01 2.118515e+01 2.054636e+01 2.011297e+01 1.958685e+01 1.905624e+01 1.864596e+01 1.798708e+01 1.769065e+01 1.690094e+01 1.671797e+01 1.582158e+01 1.573868e+01 1.476849e+01 1.474338e+01 1.373811e+01 1.371640e+01 1.273621e+01 1.266209e+01 1.177557e+01 1.158542e+01 1.085395e+01 1.047970e+01 9.947563e+00 9.333037e+00 9.037345e+00 8.168200e+00 8.135037e+00 7.031065e+00 7.242872e+00 5.945269e+00 6.328615e+00 4.906838e+00 5.342153e+00 3.918401e+00 4.256984e+00 3.014443e+00 4.022682e+00 3.394942e+00 1.170471e+00 0 0 0 0 
0 0 0 0 0 9.908400e-02 2.220230e-01 1.730894e-01 1.798477e-01 1.621116e-01 2.221202e-01 1.895437e-01 2.709318e-01 4.435428e+01 4.838657e+01 4.543616e+01 4.768364e+01 4.693789e+01 4.621415e+01 4.851361e+01 4.412769e+01 2.349088e+00 2.303984e+00 2.311569e+00 2.274082e+00 2.268798e+00 2.238822e+00 2.223458e+00 2.200626e+00 2.177690e+00 2.160873e+00 2.132699e+00 2.119943e+00 2.088444e+00 2.077452e+00 2.044560e+00 2.033388e+00 2.000984e+00 1.988174e+00 1.957903e+00 1.942515e+00 1.915305e+00 1.896604e+00 1.872672e+00 1.850675e+00 1.830052e+00 1.805405e+00 1.787477e+00 1.760812e+00 1.744254e+00 1.716103e+00 1.699428e+00 1.670782e+00 1.653421e+00 1.626138e+00 1.607836e+00 1.420800e+00 9.212155e-01 1.011536e+00 1.331360e+00 1.034514e+00 1.147720e+00 1.405667e+00 3.388150e-01 1.716724e-01 8.596029e-01 8.501637e-01 5.554356e-01 1.032751e+00 8.946753e-01 2.647449e-01 2.600663e-01 1.179684e+00 1.216155e+00 1.188615e+00 1.169030e+00 1.139322e+00 1.123725e+00 1.093068e+00 1.080563e+00 1.049087e+00 1.037074e+00 1.004776e+00 9.909944e-01 9.593027e-01 9.429409e-01 9.145159e-01 8.952338e-01 8.718234e-01 8.482180e-01 8.299644e-01 8.006540e-01 7.874680e-01 7.523358e-01 7.441980e-01 7.043131e-01 7.006243e-01 6.574458e-01 6.563213e-01 6.115689e-01 6.105875e-01 5.669409e-01 5.636227e-01 5.241398e-01 5.156598e-01 4.830824e-01 4.664195e-01 4.427279e-01 4.153860e-01 4.022360e-01 3.635732e-01 3.621213e-01 3.130061e-01 3.224566e-01 2.647019e-01 2.817593e-01 2.184095e-01 2.376404e-01 1.738066e-01 1.875101e-01 1.275049e-01 1.722959e-01 1.486948e-01 5.217920e-02 0 0 0 0 
0 0 0 0 0 0 0 0 0 0 0 0 0 4.831512e+01 5.228217e+01 4.947303e+01 5.135420e+01 5.103055e+01 4.967561e+01 5.266822e+01 4.767573e+01 0 0 0 0 0 0 0 0 0 0 0 0 0 0 0 0 0 0 0 0 0 0 0 0 0 0 0 0 0 0 0 0 0 0 0 1.653822e-02 6.862870e-02 5.936476e-02 5.571841e-02 2.691771e-01 2.460306e-01 2.412768e-02 9.147514e-02 1.612137e-01 6.772316e-02 2.405233e-01 3.483021e-01 1.034970e-01 1.036855e-02 6.667797e-02 7.776072e-02 1.169439e-02 0 0 0 0 0 0 0 0 0 0 0 0 0 0 0 0 0 0 0 0 0 0 0 0 0 0 0 0 0 0 0 0 0 0 0 0 0 0 0 0 0 0 0 0 0 0 0 0 0 0 0 0 0 0 0 
0 0 0 0 0 0 0 0 0 0 0 0 0 4.817807e+01 5.001737e+01 4.840145e+01 4.926798e+01 4.900582e+01 4.860028e+01 4.977312e+01 4.823973e+01 0 0 0 0 0 0 0 0 0 0 0 0 0 0 0 0 0 0 0 0 0 0 0 0 0 0 0 0 0 0 0 0 0 0 0 1.188338e-02 8.248598e-02 8.809819e-02 2.785054e-02 2.397681e-01 3.322922e-01 9.970398e-02 2.139522e-02 2.514774e-02 2.163046e-02 8.198105e-02 2.512087e-01 1.713061e-01 3.390585e-02 1.036082e-01 7.268868e-02 2.874294e-03 0 0 0 0 0 0 0 0 0 0 0 0 0 0 0 0 0 0 0 0 0 0 0 0 0 0 0 0 0 0 0 0 0 0 0 0 0 0 0 0 0 0 0 0 0 0 0 0 0 0 0 0 0 0 0 
0 0 0 0 0 0 0 0 0 0 0 0 0 5.065381e+01 5.286556e+01 5.107864e+01 5.197426e+01 5.194651e+01 5.102980e+01 5.291017e+01 5.040337e+01 0 0 0 0 0 0 0 0 0 0 0 0 0 0 0 0 0 0 0 0 0 0 0 0 0 0 0 0 0 0 0 0 0 0 0 1.661157e-02 9.489216e-02 9.468940e-02 3.320608e-02 2.521124e-01 3.410396e-01 1.061499e-01 3.956776e-02 6.004540e-02 2.189558e-02 9.419724e-02 2.526836e-01 1.641525e-01 3.032601e-02 7.937058e-02 5.492830e-02 2.468485e-03 0 0 0 0 0 0 0 0 0 0 0 0 0 0 0 0 0 0 0 0 0 0 0 0 0 0 0 0 0 0 0 0 0 0 0 0 0 0 0 0 0 0 0 0 0 0 0 0 0 0 0 0 0 0 0 
0 0 0 0 0 0 0 0 0 0 0 0 0 4.817758e+01 5.001661e+01 4.840074e+01 4.926723e+01 4.900451e+01 4.860006e+01 4.977088e+01 4.824031e+01 0 0 0 0 0 0 0 0 0 0 0 0 0 0 0 0 0 0 0 0 0 0 0 0 0 0 0 0 0 0 0 0 0 0 0 3.310557e-02 2.377699e-01 2.549136e-01 5.656079e-02 1.940822e-01 2.651837e-01 8.095793e-02 1.061320e-01 2.159487e-01 1.067609e-01 6.113508e-02 1.600312e-01 1.012699e-01 3.488602e-02 1.369054e-01 1.137446e-01 1.087976e-02 0 0 0 0 0 0 0 0 0 0 0 0 0 0 0 0 0 0 0 0 0 0 0 0 0 0 0 0 0 0 0 0 0 0 0 0 0 0 0 0 0 0 0 0 0 0 0 0 0 0 0 0 0 0 0 
0 0 0 0 0 0 0 0 0 0 0 0 0 4.831505e+01 5.227928e+01 4.947361e+01 5.135080e+01 5.103003e+01 4.967489e+01 5.266260e+01 4.768152e+01 0 0 0 0 0 0 0 0 0 0 0 0 0 0 0 0 0 0 0 0 0 0 0 0 0 0 0 0 0 0 0 0 0 0 0 1.820791e-02 4.331416e-02 4.157911e-02 1.943556e-02 8.491790e-02 8.372222e-02 1.362329e-02 4.694478e-02 6.632305e-02 2.089595e-02 2.875851e-02 4.977055e-02 2.117901e-02 4.836275e-03 7.225099e-03 4.252887e-03 6.534913e-04 0 0 0 0 0 0 0 0 0 0 0 0 0 0 0 0 0 0 0 0 0 0 0 0 0 0 0 0 0 0 0 0 0 0 0 0 0 0 0 0 0 0 0 0 0 0 0 0 0 0 0 0 0 0 0 
0 0 0 0 0 9.913180e-02 2.220354e-01 1.731658e-01 1.798723e-01 1.621107e-01 2.220809e-01 1.894904e-01 2.709020e-01 4.435332e+01 4.838374e+01 4.543564e+01 4.767930e+01 4.693508e+01 4.621134e+01 4.850344e+01 4.413246e+01 2.348941e+00 2.303455e+00 2.311097e+00 2.273259e+00 2.268463e+00 2.238462e+00 2.224024e+00 2.201286e+00 2.179083e+00 2.161774e+00 2.133546e+00 2.119827e+00 2.087994e+00 2.076358e+00 2.043356e+00 2.032247e+00 2.000074e+00 1.987961e+00 1.957892e+00 1.943346e+00 1.916055e+00 1.898190e+00 1.873854e+00 1.852234e+00 1.830590e+00 1.805641e+00 1.786607e+00 1.759647e+00 1.742981e+00 1.715419e+00 1.700296e+00 1.673027e+00 1.657829e+00 1.631079e+00 1.614276e+00 1.515133e+00 1.208801e+00 1.211194e+00 1.386260e+00 7.987212e-01 7.021973e-01 1.249689e+00 7.681976e-01 4.545623e-01 1.063052e+00 7.563866e-01 2.528341e-01 7.624007e-01 9.444972e-01 2.563138e-01 5.668801e-01 1.207522e+00 1.212669e+00 1.187469e+00 1.169556e+00 1.141621e+00 1.125912e+00 1.095224e+00 1.081040e+00 1.048769e+00 1.035350e+00 1.002961e+00 9.891593e-01 9.582912e-01 9.427892e-01 9.148944e-01 8.961456e-01 8.723439e-01 8.489956e-01 8.299761e-01 8.009597e-01 7.869424e-01 7.521517e-01 7.433139e-01 7.037848e-01 6.997135e-01 6.570661e-01 6.562545e-01 6.122220e-01 6.117722e-01 5.681400e-01 5.647297e-01 5.242759e-01 5.152620e-01 4.814828e-01 4.647773e-01 4.408436e-01 4.146056e-01 4.021345e-01 3.646764e-01 3.635346e-01 3.146115e-01 3.235436e-01 2.650606e-01 2.813891e-01 2.174155e-01 2.367214e-01 1.729656e-01 1.872903e-01 1.273501e-01 1.723988e-01 1.486847e-01 5.222228e-02 0 0 0 0 
0 0 0 0 0 2.224676e+00 4.991359e+00 3.895520e+00 4.035781e+00 3.633733e+00 4.978311e+00 4.243479e+00 6.072277e+00 3.942508e+01 4.912052e+01 4.434068e+01 5.621073e+01 5.237815e+01 6.107904e+01 6.469212e+01 6.454562e+01 5.281163e+01 5.178767e+01 5.195972e+01 5.110810e+01 5.100021e+01 5.032506e+01 5.000013e+01 4.948842e+01 4.898867e+01 4.859909e+01 4.796370e+01 4.765487e+01 4.693837e+01 4.667645e+01 4.593373e+01 4.568370e+01 4.495972e+01 4.468714e+01 4.401058e+01 4.368329e+01 4.306928e+01 4.266731e+01 4.211982e+01 4.163336e+01 4.114641e+01 4.058506e+01 4.015684e+01 3.955025e+01 3.917530e+01 3.855521e+01 3.821499e+01 3.760155e+01 3.725967e+01 3.665794e+01 3.627998e+01 3.578374e+01 3.555221e+01 3.496113e+01 3.423227e+01 3.359933e+01 3.303740e+01 3.275860e+01 3.215151e+01 3.172990e+01 3.124096e+01 3.048811e+01 2.950361e+01 2.950708e+01 2.895292e+01 2.796807e+01 2.775513e+01 2.773998e+01 2.724837e+01 2.668177e+01 2.627904e+01 2.565096e+01 2.529779e+01 2.460788e+01 2.428903e+01 2.356360e+01 2.326200e+01 2.253399e+01 2.222382e+01 2.153009e+01 2.118170e+01 2.055481e+01 2.013342e+01 1.959851e+01 1.907368e+01 1.864620e+01 1.799394e+01 1.767883e+01 1.689681e+01 1.669811e+01 1.580971e+01 1.571821e+01 1.475995e+01 1.474186e+01 1.375275e+01 1.374297e+01 1.276310e+01 1.268691e+01 1.177858e+01 1.157643e+01 1.081797e+01 1.044278e+01 9.905216e+00 9.315515e+00 9.035082e+00 8.193015e+00 8.166819e+00 7.067155e+00 7.267312e+00 5.953334e+00 6.320297e+00 4.884497e+00 5.321484e+00 3.899475e+00 4.252015e+00 3.011001e+00 4.025148e+00 3.394745e+00 1.171436e+00 0 0 0 0 
0 0 0 0 0 3.220218e+00 7.227160e+00 5.641157e+00 5.841579e+00 5.258740e+00 7.204698e+00 6.140153e+00 8.787795e+00 1.190108e+01 1.693779e+01 2.072741e+01 3.263942e+01 4.201113e+01 5.212980e+01 6.281277e+01 7.484587e+01 7.646964e+01 7.498665e+01 7.523584e+01 7.400248e+01 7.384624e+01 7.286849e+01 7.239792e+01 7.165686e+01 7.093310e+01 7.036889e+01 6.944867e+01 6.900140e+01 6.796373e+01 6.758441e+01 6.650877e+01 6.614668e+01 6.509821e+01 6.470347e+01 6.372370e+01 6.324973e+01 6.236055e+01 6.177844e+01 6.098559e+01 6.028112e+01 5.957595e+01 5.876304e+01 5.814290e+01 5.726448e+01 5.672149e+01 5.582352e+01 5.533084e+01 5.444250e+01 5.394743e+01 5.307606e+01 5.252875e+01 5.170949e+01 5.113712e+01 5.036544e+01 4.959682e+01 4.918608e+01 4.849575e+01 4.761416e+01 4.694499e+01 4.653689e+01 4.544763e+01 4.504871e+01 4.448715e+01 4.358587e+01 4.248310e+01 4.214735e+01 4.132199e+01 4.021268e+01 3.945069e+01 3.863026e+01 3.804713e+01 3.713768e+01 3.662630e+01 3.562735e+01 3.516568e+01 3.411531e+01 3.367862e+01 3.262455e+01 3.217546e+01 3.117102e+01 3.066660e+01 2.975897e+01 2.914883e+01 2.837436e+01 2.761445e+01 2.699551e+01 2.605108e+01 2.559482e+01 2.446252e+01 2.417481e+01 2.288852e+01 2.275605e+01 2.136866e+01 2.134252e+01 1.991053e+01 1.989647e+01 1.847793e+01 1.836773e+01 1.705279e+01 1.676022e+01 1.566225e+01 1.511908e+01 1.434084e+01 1.348703e+01 1.308096e+01 1.186170e+01 1.182364e+01 1.023143e+01 1.052108e+01 8.618708e+00 9.150020e+00 7.071667e+00 7.705154e+00 5.649026e+00 6.167222e+00 4.397319e+00 5.866403e+00 4.928679e+00 1.695522e+00 0 0 0 0 
0 0 0 0 0 1.094674e+00 2.457837e+00 1.918804e+00 1.985670e+00 1.787117e+00 2.448468e+00 2.086164e+00 2.986419e+00 4.046161e+00 5.759746e+00 7.048259e+00 1.109871e+01 1.428595e+01 1.772737e+01 2.136123e+01 2.545460e+01 2.600695e+01 2.550244e+01 2.558721e+01 2.516764e+01 2.511450e+01 2.478189e+01 2.462181e+01 2.436972e+01 2.412351e+01 2.393157e+01 2.361852e+01 2.346636e+01 2.311335e+01 2.298431e+01 2.261840e+01 2.249522e+01 2.213857e+01 2.200429e+01 2.167101e+01 2.150978e+01 2.120733e+01 2.100932e+01 2.073963e+01 2.050000e+01 2.026013e+01 1.998361e+01 1.977267e+01 1.947387e+01 1.928917e+01 1.898373e+01 1.881615e+01 1.851398e+01 1.834559e+01 1.804920e+01 1.786304e+01 1.740586e+01 1.663889e+01 1.647987e+01 1.672391e+01 1.626366e+01 1.600170e+01 1.607824e+01 1.560364e+01 1.530812e+01 1.528059e+01 1.531065e+01 1.511264e+01 1.481433e+01 1.450956e+01 1.452215e+01 1.418442e+01 1.368057e+01 1.341499e+01 1.313596e+01 1.293764e+01 1.262834e+01 1.245443e+01 1.211469e+01 1.195769e+01 1.160048e+01 1.145197e+01 1.109352e+01 1.094080e+01 1.059923e+01 1.042769e+01 1.011905e+01 9.911559e+00 9.648193e+00 9.389766e+00 9.179283e+00 8.858102e+00 8.702938e+00 8.317871e+00 8.220022e+00 7.782603e+00 7.737553e+00 7.265781e+00 7.256911e+00 6.770007e+00 6.765264e+00 6.282965e+00 6.245547e+00 5.798489e+00 5.699050e+00 5.325758e+00 5.141079e+00 4.876471e+00 4.586119e+00 4.448011e+00 4.033360e+00 4.020351e+00 3.478883e+00 3.577310e+00 2.930435e+00 3.111112e+00 2.404586e+00 2.620391e+00 1.922516e+00 2.102497e+00 1.513668e+00 2.013651e+00 1.682619e+00 5.763088e-01 0 0 0 0 
0 0 0 0 0 0 0 0 0 0 0 0 0 0 0 0 0 0 0 0 0 0 0 0 0 0 0 0 0 0 0 0 0 0 0 0 0 0 0 0 0 0 0 0 0 0 0 0 0 0 0 0 0 0 0 0 1.038897e-02 4.083840e-02 3.380643e-02 8.976558e-03 3.946921e-02 4.243275e-02 9.468546e-03 1.655954e-02 2.317618e-02 7.502602e-03 9.608157e-03 1.894692e-02 9.339710e-03 4.363105e-03 1.311687e-02 9.199594e-03 4.458311e-04 0 0 0 0 0 0 0 0 0 0 0 0 0 0 0 0 0 0 0 0 0 0 0 0 0 0 0 0 0 0 0 0 0 0 0 0 0 0 0 0 0 0 0 0 0 0 0 0 0 0 0 0 0 0 0 
