# vtk DataFile Version 2.0
Comment goes here
ASCII

DATASET STRUCTURED_POINTS
FIELD FieldData 1
TIME 1 1 double
0.29000000
DIMENSIONS    128   16   1

ORIGIN    0.000   0.000   0.000
SPACING   0.0078125 0.015625   1.000

POINT_DATA   2048
SCALARS fX double
LOOKUP_TABLE default

0 0 0 0 0 0 0 0 0 0 0 0 0 0 0 0 0 0 0 0 0 0 0 0 0 0 0 0 0 0 0 0 0 0 0 0 0 0 0 0 0 0 0 0 0 0 0 0 0 0 0 0 0 0 0 0 0 0 0 0 0 0 0 0 0 0 0 0 0 0 0 0 0 0 0 0 0 0 0 0 0 0 0 0 0 0 0 0 0 0 0 0 0 0 0 0 0 0 0 0 0 0 0 0 0 0 0 0 0 0 0 0 0 0 0 0 0 0 0 0 0 0 0 0 0 0 0 0 
0 0 0 0 0 0 0 0 0 0 0 0 0 0 0 0 0 0 0 0 0 0 0 0 0 0 0 0 0 0 0 0 0 0 0 0 0 0 0 0 0 0 0 0 0 0 0 0 0 0 0 0 0 0 0 0 0 0 0 0 0 0 0 0 0 0 0 0 0 0 0 0 0 0 0 0 0 0 0 0 0 0 0 0 0 0 0 0 0 0 0 0 0 0 0 0 0 0 0 0 0 0 0 0 0 0 0 0 0 0 0 0 0 0 0 0 0 0 0 0 0 0 0 0 0 0 0 0 
0 0 0 0 0 9.452512e-01 -1.946422e+00 -1.564099e+00 -3.408395e-01 -8.719024e-01 -4.562302e-01 -7.997161e-01 1.066528e+00 3.734897e+00 4.816942e+00 3.990458e+00 5.056397e+00 4.333900e+00 4.641548e+00 5.040529e+00 3.551866e+00 6.926513e-01 -6.987755e-01 -6.388880e-01 -6.703097e-01 -5.841950e-01 -6.186133e-01 -5.763327e-01 -6.861905e-01 -6.116205e-01 -6.342400e-01 -5.067429e-01 -5.441996e-01 -4.447495e-01 -5.325643e-01 -4.802930e-01 -5.632820e-01 -4.902799e-01 -5.526510e-01 -4.917930e-01 -5.420471e-01 -4.770511e-01 -5.047685e-01 -4.797455e-01 -5.394039e-01 -5.656739e-01 -6.157676e-01 -5.948618e-01 -5.283103e-01 -4.874000e-01 -4.832491e-01 -5.388621e-01 -5.375713e-01 -5.634727e-01 -5.201055e-01 -4.571140e-01 -7.175740e-02 -2.923595e-01 -1.016978e+00 -1.130955e+00 -9.782725e-01 -8.003453e-01 2.185656e-01 3.311333e-01 -1.337744e+00 -1.816187e+00 -9.297519e-01 -9.167456e-01 -6.352642e-01 3.485748e-01 -5.571588e-01 -2.327990e+00 -1.771491e+00 -8.843806e-01 -8.161667e-01 -7.565931e-01 -7.494949e-01 -7.662549e-01 -8.253914e-01 -8.177248e-01 -7.903652e-01 -7.542254e-01 -7.632987e-01 -7.752547e-01 -7.751064e-01 -7.454035e-01 -7.220514e-01 -7.321908e-01 -7.886649e-01 -8.402493e-01 -8.458129e-01 -7.861874e-01 -7.602322e-01 -7.609557e-01 -7.977714e-01 -7.694257e-01 -8.097593e-01 -8.009457e-01 -8.434577e-01 -7.791655e-01 -8.094324e-01 -6.877175e-01 -6.668766e-01 -5.785166e-01 -6.813042e-01 -6.590431e-01 -7.580322e-01 -7.021921e-01 -6.982995e-01 -5.883254e-01 -6.064373e-01 -6.349428e-01 -6.988959e-01 -7.843497e-01 -7.530450e-01 -7.934801e-01 -6.589833e-01 -8.048305e-01 -6.732337e-01 -8.958095e-01 -6.084312e-01 -1.572097e+00 -1.249102e+00 1.504821e-01 0 0 0 0 
0 0 0 0 0 2.780670e+00 -5.721521e+00 -4.596252e+00 -1.002220e+00 -2.566418e+00 -1.344142e+00 -2.354274e+00 3.135406e+00 1.098339e+01 1.416613e+01 1.173551e+01 1.487032e+01 1.274545e+01 1.364949e+01 1.482228e+01 1.044399e+01 2.036550e+00 -2.054683e+00 -1.878516e+00 -1.970858e+00 -1.717605e+00 -1.818780e+00 -1.694471e+00 -2.017501e+00 -1.798268e+00 -1.864801e+00 -1.489943e+00 -1.600109e+00 -1.307716e+00 -1.565954e+00 -1.412277e+00 -1.656315e+00 -1.441663e+00 -1.625064e+00 -1.446109e+00 -1.593873e+00 -1.402748e+00 -1.484254e+00 -1.410671e+00 -1.586108e+00 -1.663358e+00 -1.810667e+00 -1.749195e+00 -1.553505e+00 -1.433211e+00 -1.421018e+00 -1.584561e+00 -1.580780e+00 -1.656953e+00 -1.529440e+00 -1.344207e+00 -2.143882e-01 -8.731408e-01 -3.001758e+00 -3.199958e+00 -2.069674e+00 -1.517715e+00 8.095420e-01 1.240047e+00 -3.544202e+00 -5.206316e+00 -2.502034e+00 -2.241274e+00 -1.645613e+00 1.308706e+00 -6.923922e-01 -6.135489e+00 -5.161420e+00 -2.600802e+00 -2.400199e+00 -2.225003e+00 -2.204131e+00 -2.253427e+00 -2.427346e+00 -2.404804e+00 -2.324347e+00 -2.218058e+00 -2.244740e+00 -2.279897e+00 -2.279468e+00 -2.192130e+00 -2.123468e+00 -2.153303e+00 -2.319400e+00 -2.471107e+00 -2.487466e+00 -2.312115e+00 -2.235783e+00 -2.237928e+00 -2.346213e+00 -2.262872e+00 -2.381500e+00 -2.355585e+00 -2.480594e+00 -2.291493e+00 -2.380469e+00 -2.022468e+00 -1.961136e+00 -1.701217e+00 -2.003475e+00 -1.937955e+00 -2.229057e+00 -2.064790e+00 -2.053341e+00 -1.729891e+00 -1.783193e+00 -1.867089e+00 -2.055272e+00 -2.306689e+00 -2.214758e+00 -2.333743e+00 -1.938174e+00 -2.366845e+00 -1.978631e+00 -2.629074e+00 -1.769054e+00 -4.599579e+00 -3.665431e+00 4.427237e-01 0 0 0 0 
0 0 0 0 0 1.921021e+00 -3.950609e+00 -3.172939e+00 -6.921706e-01 -1.773742e+00 -9.295855e-01 -1.627283e+00 2.165108e+00 3.881417e+01 4.833440e+01 4.350037e+01 5.070041e+01 4.678531e+01 4.657238e+01 5.245950e+01 3.439594e+01 1.406443e+00 -1.419027e+00 -1.297325e+00 -1.361075e+00 -1.186151e+00 -1.256011e+00 -1.170166e+00 -1.393262e+00 -1.241869e+00 -1.287830e+00 -1.028958e+00 -1.105056e+00 -9.031358e-01 -1.081495e+00 -9.753717e-01 -1.143921e+00 -9.956764e-01 -1.122341e+00 -9.987453e-01 -1.100795e+00 -9.687927e-01 -1.025085e+00 -9.742643e-01 -1.095435e+00 -1.148789e+00 -1.250532e+00 -1.208077e+00 -1.072927e+00 -9.898472e-01 -9.814324e-01 -1.094390e+00 -1.091785e+00 -1.144398e+00 -1.056336e+00 -9.284026e-01 -1.575216e-01 -6.417228e-01 -2.105957e+00 -2.158633e+00 -1.081502e+00 -6.885646e-01 6.324897e-01 1.015350e+00 -2.215394e+00 -3.515635e+00 -1.624829e+00 -1.344543e+00 -1.036427e+00 1.070105e+00 7.618860e-02 -3.821272e+00 -3.536721e+00 -1.796371e+00 -1.657815e+00 -1.536807e+00 -1.522392e+00 -1.556444e+00 -1.676574e+00 -1.661007e+00 -1.605436e+00 -1.532018e+00 -1.550447e+00 -1.574729e+00 -1.574436e+00 -1.514118e+00 -1.466699e+00 -1.487314e+00 -1.602046e+00 -1.706832e+00 -1.718131e+00 -1.597014e+00 -1.544291e+00 -1.545780e+00 -1.620581e+00 -1.563026e+00 -1.644969e+00 -1.627072e+00 -1.713411e+00 -1.582784e+00 -1.644223e+00 -1.396923e+00 -1.354541e+00 -1.174982e+00 -1.383741e+00 -1.338460e+00 -1.539520e+00 -1.426037e+00 -1.418128e+00 -1.194704e+00 -1.231539e+00 -1.289517e+00 -1.419548e+00 -1.593255e+00 -1.529823e+00 -1.612040e+00 -1.338802e+00 -1.634769e+00 -1.366043e+00 -1.813310e+00 -1.212078e+00 -3.165451e+00 -2.527856e+00 3.058775e-01 0 0 0 0 
0 0 0 0 0 8.560226e-02 -1.755108e-01 -1.407860e-01 -3.079003e-02 -7.922637e-02 -4.167379e-02 -7.272569e-02 9.622975e-02 4.422483e+01 4.825897e+01 4.537698e+01 4.739523e+01 4.681077e+01 4.578827e+01 4.841122e+01 4.383992e+01 6.254432e-02 -6.311955e-02 -5.769710e-02 -6.052651e-02 -5.274075e-02 -5.584464e-02 -5.202767e-02 -6.195171e-02 -5.522162e-02 -5.726880e-02 -4.575832e-02 -4.914658e-02 -4.016887e-02 -4.810572e-02 -4.338790e-02 -5.088723e-02 -4.429357e-02 -4.992831e-02 -4.442968e-02 -4.896862e-02 -4.309572e-02 -4.560029e-02 -4.333910e-02 -4.873101e-02 -5.110491e-02 -5.563218e-02 -5.374368e-02 -4.773189e-02 -4.403628e-02 -4.366352e-02 -4.869025e-02 -4.857616e-02 -5.091791e-02 -4.700136e-02 -4.130927e-02 -1.949408e-02 -8.093767e-02 -1.386380e-01 -9.289812e-02 1.671189e-02 4.240941e-02 4.663959e-02 9.595685e-02 -2.410460e-02 -1.306755e-01 -7.171359e-02 -5.555625e-02 -4.244611e-02 1.154878e-01 2.276053e-01 -2.587085e-03 -1.462954e-01 -7.994897e-02 -7.378263e-02 -6.839700e-02 -6.775575e-02 -6.927218e-02 -7.461982e-02 -7.392750e-02 -7.145456e-02 -6.818597e-02 -6.900605e-02 -7.008639e-02 -7.007428e-02 -6.739124e-02 -6.528233e-02 -6.620186e-02 -7.131025e-02 -7.597469e-02 -7.647727e-02 -7.108639e-02 -6.873964e-02 -6.880793e-02 -7.213918e-02 -6.957996e-02 -7.322861e-02 -7.243265e-02 -7.627388e-02 -7.045649e-02 -7.318679e-02 -6.217316e-02 -6.028169e-02 -5.228189e-02 -6.157025e-02 -5.954831e-02 -6.849570e-02 -6.343884e-02 -6.308652e-02 -5.313853e-02 -5.478254e-02 -5.737101e-02 -6.317163e-02 -7.091642e-02 -6.810940e-02 -7.177746e-02 -5.961205e-02 -7.275487e-02 -6.064589e-02 -8.004583e-02 -5.145535e-02 -1.379693e-01 -1.115268e-01 1.363589e-02 0 0 0 0 
0 0 0 0 0 0 0 0 0 0 0 0 0 4.827926e+01 5.225637e+01 4.943947e+01 5.131309e+01 5.099509e+01 4.962997e+01 5.266157e+01 4.766331e+01 0 0 0 0 0 0 0 0 0 0 0 0 0 0 0 0 0 0 0 0 0 0 0 0 0 0 0 0 0 0 0 0 0 0 0 -2.576952e-03 -8.565380e-03 -6.205470e-03 4.719930e-03 6.726813e-02 8.630199e-02 2.361633e-02 -5.454732e-03 -7.167501e-03 -2.081446e-03 -3.040487e-04 7.038791e-03 7.511100e-03 8.280919e-03 2.404539e-02 1.671433e-02 7.674258e-04 0 0 0 0 0 0 0 0 0 0 0 0 0 0 0 0 0 0 0 0 0 0 0 0 0 0 0 0 0 0 0 0 0 0 0 0 0 0 0 0 0 0 0 0 0 0 0 0 0 0 0 0 0 0 0 
0 0 0 0 0 0 0 0 0 0 0 0 0 4.816113e+01 5.000091e+01 4.838911e+01 4.925055e+01 4.899954e+01 4.858959e+01 4.978688e+01 4.825463e+01 0 0 0 0 0 0 0 0 0 0 0 0 0 0 0 0 0 0 0 0 0 0 0 0 0 0 0 0 0 0 0 0 0 0 0 8.485764e-03 4.748996e-02 4.667175e-02 1.857492e-02 1.190310e-01 1.473547e-01 3.947621e-02 1.086312e-02 1.732096e-02 6.702961e-03 4.266462e-02 9.888994e-02 5.675515e-02 5.824197e-04 -5.956120e-04 -7.979112e-04 -1.497605e-04 0 0 0 0 0 0 0 0 0 0 0 0 0 0 0 0 0 0 0 0 0 0 0 0 0 0 0 0 0 0 0 0 0 0 0 0 0 0 0 0 0 0 0 0 0 0 0 0 0 0 0 0 0 0 0 
0 0 0 0 0 0 0 0 0 0 0 0 0 5.065229e+01 5.285847e+01 5.107833e+01 5.196850e+01 5.194939e+01 5.102714e+01 5.292066e+01 5.040709e+01 0 0 0 0 0 0 0 0 0 0 0 0 0 0 0 0 0 0 0 0 0 0 0 0 0 0 0 0 0 0 0 0 0 0 0 1.218632e-02 6.841756e-02 6.735857e-02 2.084726e-02 1.198275e-01 1.528707e-01 4.300264e-02 1.116457e-02 1.796266e-02 7.037588e-03 4.781745e-02 1.130327e-01 6.594742e-02 -4.707020e-03 -1.794572e-02 -1.338600e-02 -8.794587e-04 0 0 0 0 0 0 0 0 0 0 0 0 0 0 0 0 0 0 0 0 0 0 0 0 0 0 0 0 0 0 0 0 0 0 0 0 0 0 0 0 0 0 0 0 0 0 0 0 0 0 0 0 0 0 0 
0 0 0 0 0 0 0 0 0 0 0 0 0 4.816267e+01 5.001348e+01 4.838511e+01 4.926178e+01 4.899385e+01 4.859953e+01 4.977502e+01 4.825095e+01 0 0 0 0 0 0 0 0 0 0 0 0 0 0 0 0 0 0 0 0 0 0 0 0 0 0 0 0 0 0 0 0 0 0 0 8.016452e-03 4.577623e-02 4.536025e-02 1.541175e-02 9.617679e-02 1.225946e-01 3.448177e-02 1.041080e-02 1.651382e-02 6.355732e-03 3.542120e-02 8.323090e-02 4.830679e-02 -3.168979e-03 -1.211559e-02 -9.045757e-03 -5.962314e-04 0 0 0 0 0 0 0 0 0 0 0 0 0 0 0 0 0 0 0 0 0 0 0 0 0 0 0 0 0 0 0 0 0 0 0 0 0 0 0 0 0 0 0 0 0 0 0 0 0 0 0 0 0 0 0 
0 0 0 0 0 0 0 0 0 0 0 0 0 4.829463e+01 5.228352e+01 4.945255e+01 5.134498e+01 5.101846e+01 4.965407e+01 5.264758e+01 4.763867e+01 0 0 0 0 0 0 0 0 0 0 0 0 0 0 0 0 0 0 0 0 0 0 0 0 0 0 0 0 0 0 0 0 0 0 0 -6.442786e-03 -2.709730e-02 -2.313837e-02 -6.569593e-03 -2.298327e-02 -2.162761e-02 -2.777190e-03 1.321052e-03 2.599078e-03 1.229676e-03 -7.435112e-03 -1.088628e-02 -3.313919e-03 7.312941e-05 -4.572544e-04 -4.512801e-04 -5.938042e-05 0 0 0 0 0 0 0 0 0 0 0 0 0 0 0 0 0 0 0 0 0 0 0 0 0 0 0 0 0 0 0 0 0 0 0 0 0 0 0 0 0 0 0 0 0 0 0 0 0 0 0 0 0 0 0 
0 0 0 0 0 8.545768e-02 -1.767911e-01 -1.423084e-01 -3.065226e-02 -7.841814e-02 -4.123421e-02 -7.339931e-02 9.352145e-02 4.422510e+01 4.828558e+01 4.534897e+01 4.742848e+01 4.681162e+01 4.586755e+01 4.837138e+01 4.385870e+01 6.443060e-02 -6.147976e-02 -5.860743e-02 -6.256039e-02 -5.587378e-02 -6.110036e-02 -5.643919e-02 -6.228430e-02 -5.467011e-02 -6.031341e-02 -5.375452e-02 -6.228404e-02 -5.637411e-02 -6.194554e-02 -5.181349e-02 -5.659595e-02 -5.067842e-02 -5.856679e-02 -5.429147e-02 -5.790487e-02 -4.960596e-02 -5.169830e-02 -5.114430e-02 -5.814149e-02 -5.751526e-02 -5.526822e-02 -4.949165e-02 -4.815566e-02 -5.326924e-02 -5.842112e-02 -6.215490e-02 -5.680440e-02 -5.531213e-02 -5.333057e-02 -5.853561e-02 -5.479509e-02 -8.841072e-02 -9.974049e-02 -5.046265e-02 -1.162737e-01 -2.071921e-01 -1.011524e-01 -3.458326e-02 -9.844534e-02 -8.362160e-02 -4.811344e-02 -1.573471e-01 -1.627886e-01 -1.980789e-02 -1.824955e-02 -1.267036e-01 -1.223396e-01 -7.782326e-02 -7.265795e-02 -6.846795e-02 -7.166730e-02 -7.614003e-02 -8.083603e-02 -7.853025e-02 -7.485303e-02 -7.049443e-02 -6.972132e-02 -7.116075e-02 -7.401009e-02 -7.425857e-02 -7.036508e-02 -6.452175e-02 -6.094597e-02 -6.046981e-02 -6.299259e-02 -6.427922e-02 -6.472906e-02 -5.975012e-02 -5.766967e-02 -5.477165e-02 -6.036087e-02 -6.030291e-02 -6.519435e-02 -6.037543e-02 -6.546476e-02 -6.089734e-02 -6.635100e-02 -5.957720e-02 -6.494720e-02 -5.985970e-02 -6.890068e-02 -6.598208e-02 -6.690423e-02 -5.588959e-02 -5.607437e-02 -5.835646e-02 -6.194576e-02 -6.518276e-02 -5.921383e-02 -6.242057e-02 -4.957516e-02 -6.002047e-02 -4.458814e-02 -6.433049e-02 -4.293864e-02 -1.377128e-01 -1.130477e-01 1.345982e-02 0 0 0 0 
0 0 0 0 0 1.917775e+00 -3.979347e+00 -3.207134e+00 -6.890688e-01 -1.755563e+00 -9.197154e-01 -1.642411e+00 2.104307e+00 3.877638e+01 4.824185e+01 4.347457e+01 5.081443e+01 4.701623e+01 4.676451e+01 5.246566e+01 3.427302e+01 1.448870e+00 -1.382183e+00 -1.317763e+00 -1.406784e+00 -1.256591e+00 -1.374158e+00 -1.269373e+00 -1.400782e+00 -1.229469e+00 -1.356276e+00 -1.208700e+00 -1.400358e+00 -1.267440e+00 -1.392634e+00 -1.164802e+00 -1.272278e+00 -1.139207e+00 -1.316514e+00 -1.220412e+00 -1.301664e+00 -1.115138e+00 -1.162188e+00 -1.149738e+00 -1.306986e+00 -1.292902e+00 -1.242347e+00 -1.112502e+00 -1.082444e+00 -1.197353e+00 -1.313108e+00 -1.397004e+00 -1.276707e+00 -1.243148e+00 -1.198584e+00 -1.315555e+00 -1.047712e+00 -1.144231e+00 -1.485663e+00 -7.754529e-01 -4.415588e-01 -2.184233e+00 -1.701607e+00 -5.759689e-01 -1.923884e+00 -1.782443e+00 -9.028273e-02 -1.577919e+00 -2.691089e+00 -6.120234e-01 -8.862670e-01 -3.169181e+00 -2.761672e+00 -1.748635e+00 -1.632555e+00 -1.538383e+00 -1.610255e+00 -1.710751e+00 -1.816259e+00 -1.764458e+00 -1.681820e+00 -1.583868e+00 -1.566467e+00 -1.598785e+00 -1.662779e+00 -1.668366e+00 -1.580896e+00 -1.449618e+00 -1.369283e+00 -1.358572e+00 -1.415228e+00 -1.444095e+00 -1.454174e+00 -1.342273e+00 -1.295520e+00 -1.230391e+00 -1.355951e+00 -1.354637e+00 -1.464544e+00 -1.356321e+00 -1.470704e+00 -1.368194e+00 -1.490823e+00 -1.338812e+00 -1.459585e+00 -1.345459e+00 -1.548659e+00 -1.483194e+00 -1.503921e+00 -1.256544e+00 -1.260572e+00 -1.311676e+00 -1.392004e+00 -1.464474e+00 -1.330052e+00 -1.401902e+00 -1.113404e+00 -1.348798e+00 -1.005432e+00 -1.460319e+00 -1.020836e+00 -3.159745e+00 -2.561974e+00 3.019263e-01 0 0 0 0 
0 0 0 0 0 2.775970e+00 -5.763121e+00 -4.645757e+00 -9.977278e-01 -2.540094e+00 -1.329854e+00 -2.376174e+00 3.047390e+00 1.083315e+01 1.402922e+01 1.166785e+01 1.487261e+01 1.280320e+01 1.366987e+01 1.479976e+01 1.045694e+01 2.097988e+00 -2.001340e+00 -1.908101e+00 -2.037039e+00 -1.819600e+00 -1.989849e+00 -1.838126e+00 -2.028401e+00 -1.780313e+00 -1.963907e+00 -1.750194e+00 -2.027680e+00 -1.835208e+00 -2.016467e+00 -1.686566e+00 -1.842174e+00 -1.649486e+00 -1.906208e+00 -1.767061e+00 -1.884714e+00 -1.614646e+00 -1.682774e+00 -1.664749e+00 -1.892421e+00 -1.872026e+00 -1.798816e+00 -1.610811e+00 -1.567283e+00 -1.733652e+00 -1.901244e+00 -2.022710e+00 -1.848523e+00 -1.799929e+00 -1.735397e+00 -1.904754e+00 -1.526938e+00 -1.701088e+00 -2.190308e+00 -1.123870e+00 -6.070443e-01 -3.125286e+00 -2.454681e+00 -8.255463e-01 -2.773279e+00 -2.576495e+00 -9.179044e-02 -2.207979e+00 -3.858585e+00 -9.046947e-01 -1.336773e+00 -4.624955e+00 -3.999914e+00 -2.531696e+00 -2.363630e+00 -2.227280e+00 -2.331333e+00 -2.476831e+00 -2.629585e+00 -2.554590e+00 -2.434943e+00 -2.293122e+00 -2.267921e+00 -2.314705e+00 -2.407348e+00 -2.415438e+00 -2.288803e+00 -2.098740e+00 -1.982433e+00 -1.966923e+00 -2.048942e+00 -2.090725e+00 -2.105311e+00 -1.943291e+00 -1.875600e+00 -1.781303e+00 -1.963084e+00 -1.961178e+00 -2.120303e+00 -1.963631e+00 -2.129244e+00 -1.980858e+00 -2.158424e+00 -1.938389e+00 -2.113273e+00 -1.948089e+00 -2.242298e+00 -2.147546e+00 -2.177556e+00 -1.819429e+00 -1.825229e+00 -1.899175e+00 -2.015394e+00 -2.120249e+00 -1.925555e+00 -2.029529e+00 -1.611870e+00 -1.952854e+00 -1.456583e+00 -2.118039e+00 -1.492202e+00 -4.591332e+00 -3.714814e+00 4.370043e-01 0 0 0 0 
0 0 0 0 0 9.436535e-01 -1.960565e+00 -1.580932e+00 -3.393112e-01 -8.629492e-01 -4.513724e-01 -8.071623e-01 1.036605e+00 3.683816e+00 4.770393e+00 3.967451e+00 5.057174e+00 4.353538e+00 4.648478e+00 5.032875e+00 3.556278e+00 7.135484e-01 -6.806367e-01 -6.489460e-01 -6.928150e-01 -6.188828e-01 -6.767905e-01 -6.251920e-01 -6.899025e-01 -6.055142e-01 -6.679445e-01 -5.952483e-01 -6.896061e-01 -6.241420e-01 -6.857786e-01 -5.735770e-01 -6.264926e-01 -5.609569e-01 -6.482611e-01 -6.009404e-01 -6.409548e-01 -5.491135e-01 -5.722845e-01 -5.661549e-01 -6.435762e-01 -6.366395e-01 -6.117369e-01 -5.478012e-01 -5.329947e-01 -5.895688e-01 -6.465566e-01 -6.878604e-01 -6.286201e-01 -6.120924e-01 -5.901439e-01 -6.477347e-01 -5.256311e-01 -6.061590e-01 -7.690218e-01 -3.873938e-01 -2.246289e-01 -1.083086e+00 -8.391637e-01 -2.804285e-01 -9.426145e-01 -8.759851e-01 -3.077872e-02 -7.500094e-01 -1.311733e+00 -3.134167e-01 -4.715907e-01 -1.584483e+00 -1.360684e+00 -8.608850e-01 -8.037330e-01 -7.573649e-01 -7.927455e-01 -8.422207e-01 -8.941627e-01 -8.686620e-01 -8.279753e-01 -7.797482e-01 -7.711752e-01 -7.870805e-01 -8.185795e-01 -8.213311e-01 -7.782713e-01 -7.136439e-01 -6.740961e-01 -6.688203e-01 -6.967066e-01 -7.109095e-01 -7.158658e-01 -6.607687e-01 -6.377501e-01 -6.056837e-01 -6.674937e-01 -6.668439e-01 -7.209533e-01 -6.676848e-01 -7.240039e-01 -6.735608e-01 -7.339516e-01 -6.591541e-01 -7.186360e-01 -6.624891e-01 -7.625396e-01 -7.303339e-01 -7.405395e-01 -6.187752e-01 -6.207322e-01 -6.458555e-01 -6.853355e-01 -7.209584e-01 -6.547166e-01 -6.900473e-01 -5.480412e-01 -6.640758e-01 -4.957391e-01 -7.220506e-01 -5.143047e-01 -1.569300e+00 -1.265887e+00 1.485379e-01 0 0 0 0 
0 0 0 0 0 0 0 0 0 0 0 0 0 0 0 0 0 0 0 0 0 0 0 0 0 0 0 0 0 0 0 0 0 0 0 0 0 0 0 0 0 0 0 0 0 0 0 0 0 0 0 0 0 0 0 0 -3.423885e-04 -1.406633e-03 -1.192769e-03 -2.341172e-04 -7.774904e-04 -8.501547e-04 -1.797759e-04 -3.187719e-05 -4.559265e-05 -1.523427e-05 1.704966e-06 3.420260e-06 1.715302e-06 -2.176402e-04 -6.651819e-04 -4.718244e-04 -2.428267e-05 0 0 0 0 0 0 0 0 0 0 0 0 0 0 0 0 0 0 0 0 0 0 0 0 0 0 0 0 0 0 0 0 0 0 0 0 0 0 0 0 0 0 0 0 0 0 0 0 0 0 0 0 0 0 0 
