# vtk DataFile Version 2.0
Comment goes here
ASCII

DATASET STRUCTURED_POINTS
FIELD FieldData 1
TIME 1 1 double
0.01000000
DIMENSIONS    128   16   1

ORIGIN    0.000   0.000   0.000
SPACING   0.0078125 0.015625   1.000

POINT_DATA   2048
SCALARS fY double
LOOKUP_TABLE default

0 0 0 0 0 0 0 0 0 0 0 0 0 0 0 0 0 0 0 0 0 0 0 0 0 0 0 0 0 0 0 0 0 0 0 0 0 0 0 0 0 0 0 0 0 0 0 0 0 0 0 0 0 0 0 0 0 0 0 0 0 0 0 0 0 0 0 0 0 0 0 0 0 0 0 0 0 0 0 0 0 0 0 0 0 0 0 0 0 0 0 0 0 0 0 0 0 0 0 0 0 0 0 0 0 0 0 0 0 0 0 0 0 0 0 0 0 0 0 0 0 0 0 0 0 0 0 0 
0 0 0 0 0 0 0 0 0 0 0 0 0 0 0 0 0 0 0 0 0 0 0 0 0 0 0 0 0 0 0 0 0 0 0 0 0 0 0 0 0 0 0 0 0 0 0 0 0 0 0 0 0 0 0 0 0 0 0 0 0 0 0 0 0 0 0 0 0 0 0 0 0 0 0 0 0 0 0 0 0 0 0 0 0 0 0 0 0 0 0 0 0 0 0 0 0 0 0 0 0 0 0 0 0 0 0 0 0 0 0 0 0 0 0 0 0 0 0 0 0 0 0 0 0 0 0 0 
0 0 0 0 0 -7.567995e-01 -2.445166e-01 -6.684992e-02 -1.000338e+00 -7.036326e-02 -1.375696e+00 -9.290006e-01 -2.487617e+00 -6.760390e-01 8.335154e+00 1.347258e+01 1.903543e+01 2.568121e+01 3.116505e+01 3.739307e+01 4.520171e+01 4.660307e+01 4.597998e+01 4.629505e+01 4.534591e+01 4.569653e+01 4.485080e+01 4.481685e+01 4.451314e+01 4.457116e+01 4.485296e+01 4.446191e+01 4.379456e+01 4.343739e+01 4.610757e+01 4.697707e+01 4.092043e+01 3.886267e+01 5.091017e+01 5.585839e+01 3.868437e+01 3.193727e+01 4.667102e+01 5.063881e+01 4.685160e+01 4.659518e+01 4.068650e+01 3.489154e+01 2.804289e+01 3.339201e+01 5.351062e+01 5.109725e+01 3.497923e+01 3.145150e+01 3.119925e+01 3.381022e+01 4.308592e+01 5.092964e+01 4.753921e+01 3.746678e+01 3.633928e+01 3.604262e+01 3.329739e+01 4.126380e+01 4.560500e+01 3.850963e+01 3.984174e+01 4.462429e+01 3.569662e+01 2.761342e+01 2.645646e+01 2.652531e+01 2.798784e+01 2.947893e+01 3.187620e+01 2.815139e+01 2.175125e+01 1.802042e+01 1.701022e+01 2.289297e+01 3.802130e+01 3.470445e+01 1.412278e+01 1.214151e+01 1.665885e+01 2.231302e+01 2.674422e+01 2.564314e+01 2.991215e+01 2.116608e+01 6.421741e+00 1.764288e+01 3.148940e+01 2.161157e+01 1.080263e+01 1.407112e+01 1.787060e+01 1.549210e+01 1.279071e+01 1.231125e+01 1.210350e+01 1.134316e+01 1.063350e+01 1.014246e+01 9.551747e+00 9.050022e+00 8.960027e+00 8.708588e+00 8.054479e+00 7.848403e+00 8.225477e+00 8.114609e+00 7.038571e+00 7.010500e+00 7.993941e+00 6.764751e+00 6.329781e+00 6.302839e+00 4.483572e+00 6.288795e+00 4.791810e+00 3.291099e+00 3.446827e+00 5.417101e-01 0 0 0 0 
0 0 0 0 0 -2.226446e+00 -7.244600e-01 -2.047605e-01 -2.946431e+00 -2.082664e-01 -4.047646e+00 -2.734444e+00 -7.320014e+00 -1.992714e+00 2.451134e+01 3.961959e+01 5.597464e+01 7.551144e+01 9.163027e+01 1.099327e+02 1.328770e+02 1.369949e+02 1.351644e+02 1.360904e+02 1.333022e+02 1.343325e+02 1.318478e+02 1.317481e+02 1.308557e+02 1.310261e+02 1.318541e+02 1.307052e+02 1.287444e+02 1.276949e+02 1.355400e+02 1.380944e+02 1.202977e+02 1.142502e+02 1.496436e+02 1.641790e+02 1.137162e+02 9.389235e+01 1.371878e+02 1.488497e+02 1.377249e+02 1.369717e+02 1.196099e+02 1.025810e+02 8.244973e+01 9.816269e+01 1.572769e+02 1.501885e+02 1.028355e+02 9.247228e+01 9.173089e+01 9.940315e+01 1.232239e+02 1.344990e+02 1.263390e+02 1.065104e+02 9.156784e+01 8.906824e+01 9.369730e+01 1.078494e+02 1.143988e+02 1.064385e+02 1.053342e+02 1.073212e+02 9.287734e+01 7.722302e+01 6.564770e+01 6.937033e+01 8.184547e+01 8.667452e+01 9.372016e+01 8.277137e+01 6.395890e+01 5.299098e+01 5.002105e+01 6.731099e+01 1.117685e+02 1.020142e+02 4.152068e+01 3.570317e+01 4.898631e+01 6.560709e+01 7.863444e+01 7.539822e+01 8.794459e+01 6.222729e+01 1.887835e+01 5.186806e+01 9.257821e+01 6.354190e+01 3.176736e+01 4.137873e+01 5.255063e+01 4.555762e+01 3.761505e+01 3.620531e+01 3.559441e+01 3.335867e+01 3.127196e+01 2.982801e+01 2.809098e+01 2.661561e+01 2.635097e+01 2.561157e+01 2.368805e+01 2.308204e+01 2.419090e+01 2.386486e+01 2.070050e+01 2.061792e+01 2.350991e+01 1.989506e+01 1.861594e+01 1.853655e+01 1.318594e+01 1.849416e+01 1.409007e+01 9.675136e+00 1.013453e+01 1.592902e+00 0 0 0 0 
0 0 0 0 0 -1.538208e+00 -5.029918e-01 -1.453861e-01 -2.037335e+00 -1.444993e-01 -2.796661e+00 -1.889851e+00 -5.058050e+00 -2.513571e+00 2.224315e+01 2.188716e+01 4.649361e+01 4.730275e+01 7.214951e+01 7.171540e+01 9.865623e+01 9.459492e+01 9.333159e+01 9.397089e+01 9.204648e+01 9.275780e+01 9.104273e+01 9.097391e+01 9.035790e+01 9.047555e+01 9.104709e+01 9.025408e+01 8.890057e+01 8.817612e+01 9.359121e+01 9.535424e+01 8.306925e+01 7.889416e+01 1.033228e+02 1.133544e+02 7.852057e+01 6.483710e+01 9.472480e+01 1.027764e+02 9.509875e+01 9.457890e+01 8.259422e+01 7.083864e+01 5.693856e+01 6.778286e+01 1.085883e+02 1.036966e+02 7.101283e+01 6.386037e+01 6.334851e+01 6.864476e+01 7.796018e+01 6.121108e+01 5.928119e+01 7.043724e+01 6.637396e+01 6.527824e+01 6.470929e+01 5.192399e+01 4.596667e+01 6.208496e+01 5.604834e+01 4.017500e+01 4.689143e+01 5.777496e+01 5.926748e+01 5.795341e+01 5.708517e+01 5.985742e+01 6.472175e+01 5.716197e+01 4.417265e+01 3.659897e+01 3.454807e+01 4.648527e+01 7.717641e+01 7.043918e+01 2.867254e+01 2.465878e+01 3.383268e+01 4.530918e+01 5.430523e+01 5.207087e+01 6.073275e+01 4.297144e+01 1.303594e+01 3.581723e+01 6.393087e+01 4.388163e+01 2.194110e+01 2.857932e+01 3.629493e+01 3.146570e+01 2.598061e+01 2.500703e+01 2.458513e+01 2.304104e+01 2.159986e+01 2.060260e+01 1.940290e+01 1.838392e+01 1.820114e+01 1.769046e+01 1.636193e+01 1.594337e+01 1.670924e+01 1.648404e+01 1.429846e+01 1.424141e+01 1.623884e+01 1.374205e+01 1.285858e+01 1.280368e+01 9.107791e+00 1.277387e+01 9.731140e+00 6.680962e+00 6.998961e+00 1.100133e+00 0 0 0 0 
0 0 0 0 0 -6.856213e-02 -2.304829e-02 -7.475511e-03 -9.124176e-02 -6.596108e-03 -1.247108e-01 -8.440754e-02 -2.256526e-01 -1.151881e+00 5.975727e+00 -4.476023e+00 9.544710e+00 -3.923536e+00 1.135168e+01 -1.167003e+00 9.276064e+00 4.203109e+00 4.147124e+00 4.175505e+00 4.090224e+00 4.121792e+00 4.045754e+00 4.042704e+00 4.015382e+00 4.020597e+00 4.045946e+00 4.010785e+00 3.950759e+00 3.918625e+00 4.158727e+00 4.236866e+00 3.691930e+00 3.506602e+00 4.589376e+00 5.033824e+00 3.488782e+00 2.882021e+00 4.208038e+00 4.565569e+00 4.225428e+00 4.202397e+00 3.670801e+00 3.149205e+00 2.531723e+00 3.012170e+00 4.821986e+00 4.605373e+00 3.156547e+00 2.839594e+00 2.816868e+00 3.051827e+00 -1.236034e+00 -1.773081e+01 -1.522982e+01 3.074090e+00 1.977966e+01 2.197125e+01 6.603475e+00 -1.121522e+01 -1.771252e+01 -4.043410e+00 -6.097705e+00 -1.557969e+01 -6.691229e+00 1.228963e+01 3.288346e+01 2.429362e+01 3.727612e+00 2.661835e+00 2.877795e+00 2.541983e+00 1.965009e+00 1.628403e+00 1.537235e+00 2.067258e+00 3.429238e+00 3.129394e+00 1.274638e+00 1.097115e+00 1.505219e+00 2.015116e+00 2.415002e+00 2.315787e+00 2.700306e+00 1.910231e+00 5.793358e-01 1.592053e+00 2.842054e+00 1.951294e+00 9.763595e-01 1.271715e+00 1.614901e+00 1.400182e+00 1.156275e+00 1.112979e+00 1.094211e+00 1.025524e+00 9.614129e-01 9.170461e-01 8.636697e-01 8.183323e-01 8.102000e-01 7.874759e-01 7.283598e-01 7.097354e-01 7.438154e-01 7.337926e-01 6.365296e-01 6.339875e-01 7.228688e-01 6.117443e-01 5.724299e-01 5.699674e-01 4.054204e-01 5.685071e-01 4.328753e-01 2.969249e-01 3.112538e-01 4.894159e-02 0 0 0 0 
0 0 0 0 0 0 0 0 0 0 0 0 0 -1.599146e+00 1.566342e+00 -1.654719e+00 2.512160e+00 -1.288857e+00 2.744511e+00 -3.878928e-01 2.191811e+00 0 0 0 0 0 0 0 0 0 0 0 0 0 0 0 0 0 0 0 0 0 0 0 0 0 0 0 0 0 0 0 0 0 0 0 1.560212e+00 7.503042e+00 6.886442e+00 2.210939e+00 1.029250e+01 1.163769e+01 2.929259e+00 8.150517e+00 1.207292e+01 4.239148e+00 6.006023e+00 1.244085e+01 6.438533e+00 3.946377e+00 1.227314e+01 8.813188e+00 4.827162e-01 0 0 0 0 0 0 0 0 0 0 0 0 0 0 0 0 0 0 0 0 0 0 0 0 0 0 0 0 0 0 0 0 0 0 0 0 0 0 0 0 0 0 0 0 0 0 0 0 0 0 0 0 0 0 0 
0 0 0 0 0 0 0 0 0 0 0 0 0 -6.766256e-01 1.185218e+00 -1.135967e+00 1.842598e+00 -1.135828e+00 1.870846e+00 -4.966886e-01 1.139155e+00 0 0 0 0 0 0 0 0 0 0 0 0 0 0 0 0 0 0 0 0 0 0 0 0 0 0 0 0 0 0 0 0 0 0 0 -3.669605e-01 -1.792625e+00 -1.657795e+00 8.289616e-01 9.234941e+00 1.067703e+01 2.718527e+00 5.497753e+00 8.133323e+00 2.850912e+00 3.128105e+00 6.465213e+00 3.338827e+00 3.043191e+00 9.113726e+00 6.377570e+00 3.053174e-01 0 0 0 0 0 0 0 0 0 0 0 0 0 0 0 0 0 0 0 0 0 0 0 0 0 0 0 0 0 0 0 0 0 0 0 0 0 0 0 0 0 0 0 0 0 0 0 0 0 0 0 0 0 0 0 
0 0 0 0 0 0 0 0 0 0 0 0 0 2.051667e-01 1.695718e-01 1.496053e-01 8.259280e-02 1.312982e-01 2.733026e-03 1.114533e-01 -1.296631e-01 0 0 0 0 0 0 0 0 0 0 0 0 0 0 0 0 0 0 0 0 0 0 0 0 0 0 0 0 0 0 0 0 0 0 0 -1.186422e+00 -5.621303e+00 -5.124655e+00 1.868982e-01 7.633582e+00 8.826922e+00 2.092046e+00 5.638517e-01 8.344691e-01 2.926521e-01 3.994018e-01 8.239446e-01 4.247376e-01 3.689842e+00 1.104946e+01 7.728975e+00 3.691620e-01 0 0 0 0 0 0 0 0 0 0 0 0 0 0 0 0 0 0 0 0 0 0 0 0 0 0 0 0 0 0 0 0 0 0 0 0 0 0 0 0 0 0 0 0 0 0 0 0 0 0 0 0 0 0 0 
0 0 0 0 0 0 0 0 0 0 0 0 0 8.180383e-01 -1.036702e+00 1.270102e+00 -1.623713e+00 1.415579e+00 -1.568110e+00 9.446181e-01 -9.321953e-01 0 0 0 0 0 0 0 0 0 0 0 0 0 0 0 0 0 0 0 0 0 0 0 0 0 0 0 0 0 0 0 0 0 0 0 -8.301326e-01 -3.939579e+00 -3.594314e+00 -4.095157e-01 6.565973e-01 7.594143e-01 1.110396e-01 -1.728481e+00 -2.560631e+00 -8.992794e-01 -1.217502e+00 -2.512347e+00 -1.295450e+00 8.486679e-01 2.549040e+00 1.785790e+00 8.602291e-02 0 0 0 0 0 0 0 0 0 0 0 0 0 0 0 0 0 0 0 0 0 0 0 0 0 0 0 0 0 0 0 0 0 0 0 0 0 0 0 0 0 0 0 0 0 0 0 0 0 0 0 0 0 0 0 
0 0 0 0 0 0 0 0 0 0 0 0 0 1.810055e+00 -1.320371e+00 1.798259e+00 -2.375467e+00 1.557593e+00 -2.538753e+00 8.575252e-01 -2.166181e+00 0 0 0 0 0 0 0 0 0 0 0 0 0 0 0 0 0 0 0 0 0 0 0 0 0 0 0 0 0 0 0 0 0 0 0 -1.212916e+00 -5.755308e+00 -5.250538e+00 -6.639593e-01 3.925359e-01 4.566814e-01 1.405606e-02 -2.424427e+00 -3.590905e+00 -1.260754e+00 -1.949389e+00 -4.021139e+00 -2.072696e+00 1.704990e-01 5.277338e-01 3.760704e-01 1.978258e-02 0 0 0 0 0 0 0 0 0 0 0 0 0 0 0 0 0 0 0 0 0 0 0 0 0 0 0 0 0 0 0 0 0 0 0 0 0 0 0 0 0 0 0 0 0 0 0 0 0 0 0 0 0 0 0 
0 0 0 0 0 7.102834e-02 4.014515e-02 2.611960e-02 7.210190e-02 -6.372925e-02 1.513888e-02 -5.038466e-02 7.890348e-02 -6.640542e-03 -6.467825e+00 3.934005e+00 -9.428077e+00 4.053581e+00 -1.043226e+01 2.067044e+00 -6.891174e+00 -4.200697e+00 -4.093432e+00 -4.113757e+00 -4.094667e+00 -4.206777e+00 -4.155536e+00 -4.125880e+00 -4.070193e+00 -4.065515e+00 -4.081833e+00 -4.050142e+00 -4.039526e+00 -3.994431e+00 -4.012470e+00 -4.011344e+00 -3.973812e+00 -3.971602e+00 -3.956612e+00 -3.931911e+00 -3.944130e+00 -3.953846e+00 -3.931768e+00 -3.903211e+00 -3.877527e+00 -3.834412e+00 -3.787849e+00 -3.754850e+00 -3.712942e+00 -3.672688e+00 -3.606920e+00 -3.529618e+00 -3.476191e+00 -3.424667e+00 -3.412049e+00 -3.373875e+00 -3.644385e+00 -4.684161e+00 -4.568465e+00 -4.321895e+00 -1.064818e+01 -1.162428e+01 -5.044838e+00 -4.198786e+00 -4.678834e+00 -3.491388e+00 -3.971684e+00 -5.148795e+00 -3.964678e+00 -6.227803e+00 -1.315164e+01 -9.923356e+00 -2.938874e+00 -2.560565e+00 -2.496623e+00 -2.454992e+00 -2.372209e+00 -2.325724e+00 -2.259811e+00 -2.226348e+00 -2.206655e+00 -2.202311e+00 -2.184815e+00 -2.145256e+00 -2.103559e+00 -2.054176e+00 -2.017060e+00 -1.975058e+00 -1.925179e+00 -1.867564e+00 -1.790550e+00 -1.706125e+00 -1.636681e+00 -1.574097e+00 -1.507622e+00 -1.441341e+00 -1.379935e+00 -1.320199e+00 -1.260329e+00 -1.200488e+00 -1.138665e+00 -1.076395e+00 -1.024163e+00 -9.772734e-01 -9.170791e-01 -8.662950e-01 -8.526773e-01 -8.232513e-01 -7.562634e-01 -7.291291e-01 -7.544673e-01 -7.355150e-01 -6.290253e-01 -6.179823e-01 -7.016143e-01 -5.907732e-01 -5.569486e-01 -5.619232e-01 -4.031042e-01 -5.681696e-01 -4.308330e-01 -2.931411e-01 -3.090797e-01 -4.873276e-02 0 0 0 0 
0 0 0 0 0 1.593509e+00 8.868159e-01 5.642034e-01 1.607554e+00 -1.434890e+00 3.364685e-01 -1.137000e+00 1.763321e+00 8.505902e-02 -2.462159e+01 -2.391793e+01 -4.803097e+01 -4.854608e+01 -7.241222e+01 -7.157893e+01 -9.649246e+01 -9.454074e+01 -9.212053e+01 -9.257805e+01 -9.214687e+01 -9.467463e+01 -9.351855e+01 -9.284966e+01 -9.159396e+01 -9.148850e+01 -9.185643e+01 -9.114160e+01 -9.090215e+01 -8.988517e+01 -9.029190e+01 -9.026651e+01 -8.942017e+01 -8.937033e+01 -8.903231e+01 -8.847533e+01 -8.875084e+01 -8.896992e+01 -8.847211e+01 -8.782820e+01 -8.724909e+01 -8.627700e+01 -8.522721e+01 -8.448325e+01 -8.353850e+01 -8.263106e+01 -8.114861e+01 -7.940619e+01 -7.820203e+01 -7.704084e+01 -7.675651e+01 -7.589630e+01 -7.536094e+01 -7.278725e+01 -7.253549e+01 -7.359829e+01 -7.872627e+01 -7.830481e+01 -7.068820e+01 -6.763746e+01 -6.563451e+01 -6.466607e+01 -6.332498e+01 -6.237470e+01 -6.172780e+01 -6.380504e+01 -6.927646e+01 -6.561599e+01 -5.878882e+01 -5.757635e+01 -5.613639e+01 -5.519918e+01 -5.333543e+01 -5.228900e+01 -5.080531e+01 -5.005206e+01 -4.960884e+01 -4.951108e+01 -4.911729e+01 -4.822694e+01 -4.728853e+01 -4.617718e+01 -4.534195e+01 -4.439680e+01 -4.327445e+01 -4.197811e+01 -4.024544e+01 -3.834614e+01 -3.678399e+01 -3.537627e+01 -3.388113e+01 -3.239047e+01 -3.100952e+01 -2.966622e+01 -2.831998e+01 -2.697449e+01 -2.558452e+01 -2.418462e+01 -2.301040e+01 -2.195638e+01 -2.060336e+01 -1.946190e+01 -1.915582e+01 -1.849449e+01 -1.698901e+01 -1.637920e+01 -1.694862e+01 -1.652276e+01 -1.412985e+01 -1.388176e+01 -1.576119e+01 -1.327083e+01 -1.251076e+01 -1.262292e+01 -9.055744e+00 -1.276630e+01 -9.685279e+00 -6.595938e+00 -6.950077e+00 -1.095435e+00 0 0 0 0 
0 0 0 0 0 2.306482e+00 1.280082e+00 8.111038e-01 2.324259e+00 -2.078197e+00 4.862067e-01 -1.647405e+00 2.550527e+00 -2.394154e+00 -2.775571e+01 -4.168231e+01 -5.755052e+01 -7.745095e+01 -9.412582e+01 -1.122333e+02 -1.342247e+02 -1.369164e+02 -1.334099e+02 -1.340725e+02 -1.334477e+02 -1.371096e+02 -1.354346e+02 -1.344655e+02 -1.326464e+02 -1.324936e+02 -1.330266e+02 -1.319910e+02 -1.316441e+02 -1.301707e+02 -1.307600e+02 -1.307232e+02 -1.294971e+02 -1.294249e+02 -1.289352e+02 -1.281283e+02 -1.285274e+02 -1.288448e+02 -1.281236e+02 -1.271908e+02 -1.263518e+02 -1.249436e+02 -1.234228e+02 -1.223450e+02 -1.209764e+02 -1.196618e+02 -1.175143e+02 -1.149903e+02 -1.132459e+02 -1.115638e+02 -1.111520e+02 -1.099059e+02 -1.098944e+02 -1.088944e+02 -1.081659e+02 -1.053043e+02 -1.001011e+02 -9.755593e+01 -9.875463e+01 -9.790640e+01 -9.497690e+01 -9.361131e+01 -9.141972e+01 -8.973969e+01 -8.907961e+01 -8.613336e+01 -8.173587e+01 -8.209612e+01 -8.453003e+01 -8.337052e+01 -8.128492e+01 -7.992756e+01 -7.722826e+01 -7.571273e+01 -7.356394e+01 -7.247304e+01 -7.183115e+01 -7.168956e+01 -7.111927e+01 -6.982984e+01 -6.847081e+01 -6.686134e+01 -6.565175e+01 -6.428300e+01 -6.265764e+01 -6.078034e+01 -5.827119e+01 -5.552076e+01 -5.325861e+01 -5.122011e+01 -4.905505e+01 -4.689650e+01 -4.489684e+01 -4.295172e+01 -4.100237e+01 -3.905412e+01 -3.704149e+01 -3.501449e+01 -3.331430e+01 -3.178816e+01 -2.982912e+01 -2.817639e+01 -2.773323e+01 -2.677571e+01 -2.459597e+01 -2.371305e+01 -2.453749e+01 -2.392091e+01 -2.045638e+01 -2.009721e+01 -2.281835e+01 -1.921282e+01 -1.811235e+01 -1.827485e+01 -1.311059e+01 -1.848319e+01 -1.402368e+01 -9.552037e+00 -1.006375e+01 -1.586098e+00 0 0 0 0 
0 0 0 0 0 7.840013e-01 4.334112e-01 2.730200e-01 7.888070e-01 -7.070371e-01 1.648771e-01 -5.607896e-01 8.661095e-01 -8.154072e-01 -9.438402e+00 -1.417411e+01 -1.957146e+01 -2.634105e+01 -3.201416e+01 -3.817591e+01 -4.566036e+01 -4.657640e+01 -4.538278e+01 -4.560820e+01 -4.539545e+01 -4.664175e+01 -4.607159e+01 -4.574176e+01 -4.512262e+01 -4.507063e+01 -4.525203e+01 -4.489953e+01 -4.478145e+01 -4.427999e+01 -4.448053e+01 -4.446801e+01 -4.405071e+01 -4.402613e+01 -4.385947e+01 -4.358484e+01 -4.372068e+01 -4.382870e+01 -4.358326e+01 -4.326578e+01 -4.298025e+01 -4.250098e+01 -4.198340e+01 -4.161661e+01 -4.115084e+01 -4.070347e+01 -3.997266e+01 -3.911368e+01 -3.852008e+01 -3.794767e+01 -3.780752e+01 -3.738351e+01 -3.759523e+01 -3.802784e+01 -3.767821e+01 -3.566592e+01 -3.184316e+01 -3.067221e+01 -3.303109e+01 -3.357259e+01 -3.269461e+01 -3.197047e+01 -3.128828e+01 -3.090785e+01 -3.048832e+01 -2.835733e+01 -2.502267e+01 -2.599473e+01 -2.866129e+01 -2.835474e+01 -2.764515e+01 -2.718337e+01 -2.626504e+01 -2.574945e+01 -2.501844e+01 -2.464733e+01 -2.442896e+01 -2.438080e+01 -2.418679e+01 -2.374815e+01 -2.328583e+01 -2.273833e+01 -2.232686e+01 -2.186126e+01 -2.130837e+01 -2.066979e+01 -1.981630e+01 -1.888075e+01 -1.811130e+01 -1.741794e+01 -1.668154e+01 -1.594737e+01 -1.526726e+01 -1.460570e+01 -1.394271e+01 -1.328012e+01 -1.259563e+01 -1.190627e+01 -1.132806e+01 -1.080905e+01 -1.014283e+01 -9.580790e+00 -9.430084e+00 -9.104468e+00 -8.363226e+00 -8.062978e+00 -8.343335e+00 -8.133672e+00 -6.955563e+00 -6.833434e+00 -7.758772e+00 -6.532757e+00 -6.158544e+00 -6.213848e+00 -4.457948e+00 -6.285065e+00 -4.769237e+00 -3.249240e+00 -3.422754e+00 -5.393956e-01 0 0 0 0 
0 0 0 0 0 0 0 0 0 0 0 0 0 0 0 0 0 0 0 0 0 0 0 0 0 0 0 0 0 0 0 0 0 0 0 0 0 0 0 0 0 0 0 0 0 0 0 0 0 0 0 0 0 0 0 0 -1.211946e-03 -5.392659e-03 -4.766435e-03 -4.051652e-03 -2.733190e-02 -3.060078e-02 -8.122318e-03 -3.061928e-02 -4.419029e-02 -1.495865e-02 -2.283234e-02 -4.551752e-02 -2.268530e-02 -1.063049e-02 -3.127546e-02 -2.160827e-02 -9.633089e-04 0 0 0 0 0 0 0 0 0 0 0 0 0 0 0 0 0 0 0 0 0 0 0 0 0 0 0 0 0 0 0 0 0 0 0 0 0 0 0 0 0 0 0 0 0 0 0 0 0 0 0 0 0 0 0 
