# vtk DataFile Version 2.0
Comment goes here
ASCII

DATASET STRUCTURED_POINTS
FIELD FieldData 1
TIME 1 1 double
0.44000000
DIMENSIONS    128   16   1

ORIGIN    0.000   0.000   0.000
SPACING   0.0078125 0.015625   1.000

POINT_DATA   2048
SCALARS fY double
LOOKUP_TABLE default

0 0 0 0 0 0 0 0 0 0 0 0 0 0 0 0 0 0 0 0 0 0 0 0 0 0 0 0 0 0 0 0 0 0 0 0 0 0 0 0 0 0 0 0 0 0 0 0 0 0 0 0 0 0 0 0 0 0 0 0 0 0 0 0 0 0 0 0 0 0 0 0 0 0 0 0 0 0 0 0 0 0 0 0 0 0 0 0 0 0 0 0 0 0 0 0 0 0 0 0 0 0 0 0 0 0 0 0 0 0 0 0 0 0 0 0 0 0 0 0 0 0 0 0 0 0 0 0 
0 0 0 0 0 0 0 0 0 0 0 0 0 0 0 0 0 0 0 0 0 0 0 0 0 0 0 0 0 0 0 0 0 0 0 0 0 0 0 0 0 0 0 0 0 0 0 0 0 0 0 0 0 0 0 0 0 0 0 0 0 0 0 0 0 0 0 0 0 0 0 0 0 0 0 0 0 0 0 0 0 0 0 0 0 0 0 0 0 0 0 0 0 0 0 0 0 0 0 0 0 0 0 0 0 0 0 0 0 0 0 0 0 0 0 0 0 0 0 0 0 0 0 0 0 0 0 0 
0 0 0 0 0 4.727567e-01 1.484978e+00 1.124634e+00 1.952497e+00 1.566792e+00 2.376498e+00 1.909986e+00 2.740474e+00 1.575203e+00 -3.177269e+00 -5.831785e+00 -9.861868e+00 -1.360985e+01 -1.706422e+01 -2.068184e+01 -2.505163e+01 -2.581433e+01 -2.532402e+01 -2.545356e+01 -2.511699e+01 -2.514538e+01 -2.487157e+01 -2.470964e+01 -2.440816e+01 -2.407027e+01 -2.378614e+01 -2.339537e+01 -2.319673e+01 -2.282120e+01 -2.269526e+01 -2.235742e+01 -2.228783e+01 -2.200962e+01 -2.196565e+01 -2.171031e+01 -2.159231e+01 -2.128373e+01 -2.103968e+01 -2.069056e+01 -2.037992e+01 -2.008256e+01 -1.979510e+01 -1.959193e+01 -1.933140e+01 -1.915800e+01 -1.884454e+01 -1.862079e+01 -1.826654e+01 -1.806180e+01 -1.779164e+01 -1.767234e+01 -1.737772e+01 -1.680488e+01 -1.653467e+01 -1.639308e+01 -1.474956e+01 -1.438697e+01 -1.559735e+01 -1.580016e+01 -1.562514e+01 -1.527954e+01 -1.425523e+01 -1.300546e+01 -1.362215e+01 -1.456590e+01 -1.503463e+01 -1.463421e+01 -1.381546e+01 -1.358898e+01 -1.332833e+01 -1.304351e+01 -1.265724e+01 -1.237082e+01 -1.201427e+01 -1.184261e+01 -1.154335e+01 -1.140868e+01 -1.108215e+01 -1.092579e+01 -1.060138e+01 -1.044748e+01 -1.016625e+01 -9.982795e+00 -9.717175e+00 -9.455934e+00 -9.224048e+00 -8.899699e+00 -8.728726e+00 -8.335248e+00 -8.205945e+00 -7.737535e+00 -7.657911e+00 -7.167772e+00 -7.156207e+00 -6.690621e+00 -6.724027e+00 -6.296448e+00 -6.305271e+00 -5.898530e+00 -5.800359e+00 -5.418181e+00 -5.178850e+00 -4.867926e+00 -4.501816e+00 -4.328856e+00 -3.881043e+00 -3.899056e+00 -3.395962e+00 -3.560325e+00 -2.959917e+00 -3.152939e+00 -2.430767e+00 -2.566613e+00 -1.831199e+00 -1.896376e+00 -1.334242e+00 -1.223323e+00 -1.141009e+00 5.257450e-01 0 0 0 0 
0 0 0 0 0 1.390339e+00 4.366901e+00 3.306741e+00 5.741519e+00 4.606516e+00 6.986959e+00 5.613889e+00 8.055495e+00 4.627925e+00 -9.348281e+00 -1.715593e+01 -2.901078e+01 -4.003757e+01 -5.020104e+01 -6.084648e+01 -7.370562e+01 -7.594988e+01 -7.450685e+01 -7.488812e+01 -7.389765e+01 -7.398123e+01 -7.317545e+01 -7.269893e+01 -7.181172e+01 -7.081728e+01 -6.998113e+01 -6.883108e+01 -6.824648e+01 -6.714130e+01 -6.677065e+01 -6.577640e+01 -6.557160e+01 -6.475288e+01 -6.462349e+01 -6.387210e+01 -6.352486e+01 -6.261680e+01 -6.189864e+01 -6.087130e+01 -5.995716e+01 -5.908213e+01 -5.823622e+01 -5.763839e+01 -5.687173e+01 -5.636147e+01 -5.543907e+01 -5.478066e+01 -5.373827e+01 -5.313581e+01 -5.234087e+01 -5.198984e+01 -5.126308e+01 -5.015383e+01 -4.932000e+01 -4.882684e+01 -4.719003e+01 -4.652800e+01 -4.676209e+01 -4.585214e+01 -4.507337e+01 -4.465864e+01 -4.385087e+01 -4.246181e+01 -4.237173e+01 -4.206872e+01 -4.143789e+01 -4.088336e+01 -4.047354e+01 -3.997516e+01 -3.920826e+01 -3.837028e+01 -3.723381e+01 -3.639112e+01 -3.534212e+01 -3.483709e+01 -3.395666e+01 -3.356045e+01 -3.259983e+01 -3.213983e+01 -3.118545e+01 -3.073268e+01 -2.990535e+01 -2.936564e+01 -2.858422e+01 -2.781566e+01 -2.713347e+01 -2.617923e+01 -2.567622e+01 -2.451862e+01 -2.413821e+01 -2.276021e+01 -2.252598e+01 -2.108413e+01 -2.105018e+01 -1.968066e+01 -1.977906e+01 -1.852144e+01 -1.854756e+01 -1.735127e+01 -1.706261e+01 -1.593854e+01 -1.523455e+01 -1.431998e+01 -1.324292e+01 -1.273405e+01 -1.141656e+01 -1.146934e+01 -9.989237e+00 -1.047254e+01 -8.706345e+00 -9.274199e+00 -7.150367e+00 -7.551088e+00 -5.391162e+00 -5.592620e+00 -3.971848e+00 -3.653443e+00 -3.375490e+00 1.545968e+00 0 0 0 0 
0 0 0 0 0 9.603288e-01 3.016140e+00 2.283669e+00 3.965455e+00 3.181165e+00 4.824968e+00 3.876037e+00 5.562107e+00 7.043287e+00 -9.089350e+00 -8.458761e+00 -2.402911e+01 -2.311317e+01 -3.919767e+01 -3.756360e+01 -5.427488e+01 -5.247527e+01 -5.147804e+01 -5.174153e+01 -5.105707e+01 -5.111485e+01 -5.055803e+01 -5.022874e+01 -4.961565e+01 -4.892843e+01 -4.835061e+01 -4.755586e+01 -4.715187e+01 -4.638813e+01 -4.613198e+01 -4.544491e+01 -4.530338e+01 -4.473762e+01 -4.464821e+01 -4.412899e+01 -4.388904e+01 -4.326156e+01 -4.276531e+01 -4.205541e+01 -4.142374e+01 -4.081909e+01 -4.023456e+01 -3.982146e+01 -3.929170e+01 -3.893910e+01 -3.830173e+01 -3.784677e+01 -3.712650e+01 -3.671021e+01 -3.616092e+01 -3.591837e+01 -3.571435e+01 -3.627652e+01 -3.565665e+01 -3.434664e+01 -3.516351e+01 -3.490036e+01 -3.284939e+01 -3.233427e+01 -3.245111e+01 -3.149729e+01 -3.166188e+01 -3.225581e+01 -3.082501e+01 -2.884891e+01 -2.817372e+01 -2.804577e+01 -2.800334e+01 -2.761682e+01 -2.708695e+01 -2.650797e+01 -2.572276e+01 -2.514053e+01 -2.441577e+01 -2.406684e+01 -2.345855e+01 -2.318481e+01 -2.252114e+01 -2.220333e+01 -2.154397e+01 -2.123116e+01 -2.065959e+01 -2.028672e+01 -1.974686e+01 -1.921586e+01 -1.874455e+01 -1.808527e+01 -1.773775e+01 -1.693797e+01 -1.667515e+01 -1.572313e+01 -1.556130e+01 -1.456522e+01 -1.454179e+01 -1.359572e+01 -1.366376e+01 -1.279502e+01 -1.281315e+01 -1.198680e+01 -1.178746e+01 -1.101099e+01 -1.052466e+01 -9.892874e+00 -9.148759e+00 -8.797168e+00 -7.886913e+00 -7.923274e+00 -6.900683e+00 -7.234468e+00 -6.014318e+00 -6.406637e+00 -4.939681e+00 -5.217052e+00 -3.726548e+00 -3.870437e+00 -2.766659e+00 -2.550512e+00 -2.341138e+00 1.067724e+00 0 0 0 0 
0 0 0 0 0 4.274613e-02 1.342175e-01 1.015623e-01 1.764341e-01 1.414408e-01 2.145069e-01 1.721333e-01 2.470860e-01 3.057031e+00 -3.026336e+00 2.332845e+00 -4.848695e+00 3.179747e+00 -5.731259e+00 2.780932e+00 -4.704164e+00 -2.339720e+00 -2.295202e+00 -2.306967e+00 -2.276418e+00 -2.279002e+00 -2.254153e+00 -2.239457e+00 -2.212095e+00 -2.181418e+00 -2.155628e+00 -2.120151e+00 -2.102118e+00 -2.068027e+00 -2.056592e+00 -2.025926e+00 -2.019609e+00 -1.994360e+00 -1.990370e+00 -1.967201e+00 -1.956495e+00 -1.928497e+00 -1.906353e+00 -1.874680e+00 -1.846494e+00 -1.819517e+00 -1.793436e+00 -1.775005e+00 -1.751368e+00 -1.735637e+00 -1.707200e+00 -1.686903e+00 -1.654770e+00 -1.636199e+00 -1.611697e+00 -1.600877e+00 -1.800360e+00 -2.638236e+00 -2.526330e+00 -1.815146e+00 -2.688362e+00 -2.765261e+00 -1.713020e+00 -1.924476e+00 -2.242012e+00 -1.716509e+00 -2.004928e+00 -2.671602e+00 -2.011836e+00 -1.201080e+00 -1.094411e+00 -1.190929e+00 -1.267806e+00 -1.230641e+00 -1.207014e+00 -1.181199e+00 -1.146188e+00 -1.120229e+00 -1.087917e+00 -1.072361e+00 -1.045244e+00 -1.033042e+00 -1.003459e+00 -9.892931e-01 -9.599050e-01 -9.459631e-01 -9.204890e-01 -9.038692e-01 -8.798083e-01 -8.561379e-01 -8.351308e-01 -8.057412e-01 -7.902494e-01 -7.545986e-01 -7.428821e-01 -7.004513e-01 -6.932401e-01 -6.488554e-01 -6.478189e-01 -6.056749e-01 -6.087230e-01 -5.700353e-01 -5.708637e-01 -5.340690e-01 -5.252031e-01 -4.906268e-01 -4.689619e-01 -4.408193e-01 -4.076531e-01 -3.919770e-01 -3.513972e-01 -3.529918e-01 -3.074075e-01 -3.222554e-01 -2.678898e-01 -2.853765e-01 -2.200813e-01 -2.325764e-01 -1.665844e-01 -1.741924e-01 -1.290525e-01 -1.203927e-01 -1.066565e-01 4.750119e-02 0 0 0 0 
0 0 0 0 0 0 0 0 0 0 0 0 0 1.446040e+00 -4.307562e-01 1.501839e+00 -1.203056e+00 1.351363e+00 -1.563389e+00 7.183957e-01 -1.496159e+00 0 0 0 0 0 0 0 0 0 0 0 0 0 0 0 0 0 0 0 0 0 0 0 0 0 0 0 0 0 0 0 0 0 0 0 8.259349e-03 5.411787e-02 5.173706e-02 1.870628e-02 1.156164e-01 1.403565e-01 3.634639e-02 1.802335e-01 3.409924e-01 1.580037e-01 7.513521e-02 1.969972e-01 1.239174e-01 8.059318e-02 3.110331e-01 2.600214e-01 2.599222e-02 0 0 0 0 0 0 0 0 0 0 0 0 0 0 0 0 0 0 0 0 0 0 0 0 0 0 0 0 0 0 0 0 0 0 0 0 0 0 0 0 0 0 0 0 0 0 0 0 0 0 0 0 0 0 0 
0 0 0 0 0 0 0 0 0 0 0 0 0 7.005612e-01 -4.200039e-01 8.874369e-01 -8.658028e-01 9.560827e-01 -9.716395e-01 6.381859e-01 -7.364331e-01 0 0 0 0 0 0 0 0 0 0 0 0 0 0 0 0 0 0 0 0 0 0 0 0 0 0 0 0 0 0 0 0 0 0 0 -1.675779e-02 -1.675537e-01 -2.003338e-01 -5.059167e-02 4.011198e-03 1.057194e-02 5.512173e-03 -1.130136e-01 -2.564201e-01 -1.432904e-01 -9.806801e-03 -2.329016e-02 -1.328143e-02 -3.875980e-02 -1.921616e-01 -1.784063e-01 -2.509552e-02 0 0 0 0 0 0 0 0 0 0 0 0 0 0 0 0 0 0 0 0 0 0 0 0 0 0 0 0 0 0 0 0 0 0 0 0 0 0 0 0 0 0 0 0 0 0 0 0 0 0 0 0 0 0 0 
0 0 0 0 0 0 0 0 0 0 0 0 0 1.370024e-03 -9.325126e-04 4.765986e-04 -3.530652e-03 -5.990462e-04 -6.394582e-03 -1.415835e-03 -9.512912e-03 0 0 0 0 0 0 0 0 0 0 0 0 0 0 0 0 0 0 0 0 0 0 0 0 0 0 0 0 0 0 0 0 0 0 0 -5.415337e-04 2.298467e-02 3.794940e-02 1.509170e-02 7.616746e-03 7.227802e-03 2.795567e-04 1.451863e-02 4.642299e-02 3.276135e-02 -5.761419e-04 -1.335174e-02 -1.420341e-02 -9.078485e-04 1.631229e-02 1.930875e-02 4.373405e-03 0 0 0 0 0 0 0 0 0 0 0 0 0 0 0 0 0 0 0 0 0 0 0 0 0 0 0 0 0 0 0 0 0 0 0 0 0 0 0 0 0 0 0 0 0 0 0 0 0 0 0 0 0 0 0 
0 0 0 0 0 0 0 0 0 0 0 0 0 -6.996720e-01 4.181877e-01 -8.862747e-01 8.637320e-01 -9.540062e-01 9.705368e-01 -6.354683e-01 7.317835e-01 0 0 0 0 0 0 0 0 0 0 0 0 0 0 0 0 0 0 0 0 0 0 0 0 0 0 0 0 0 0 0 0 0 0 0 -6.635472e-03 -8.812947e-02 -1.138949e-01 -3.421051e-02 6.045567e-03 2.724225e-02 1.938705e-02 -2.781319e-02 -6.618664e-02 -3.892987e-02 2.525286e-03 2.989086e-02 3.153224e-02 -6.005367e-03 -5.647976e-02 -5.410684e-02 -8.355511e-03 0 0 0 0 0 0 0 0 0 0 0 0 0 0 0 0 0 0 0 0 0 0 0 0 0 0 0 0 0 0 0 0 0 0 0 0 0 0 0 0 0 0 0 0 0 0 0 0 0 0 0 0 0 0 0 
0 0 0 0 0 0 0 0 0 0 0 0 0 -1.441270e+00 4.316969e-01 -1.500128e+00 1.197058e+00 -1.353597e+00 1.551353e+00 -7.175869e-01 1.473996e+00 0 0 0 0 0 0 0 0 0 0 0 0 0 0 0 0 0 0 0 0 0 0 0 0 0 0 0 0 0 0 0 0 0 0 0 4.982462e-03 2.378471e-02 1.982207e-02 3.313671e-03 -6.262525e-02 -1.191388e-01 -5.391769e-02 -7.552909e-02 -1.600498e-01 -8.407378e-02 -6.020320e-02 -2.144879e-01 -1.651280e-01 -4.410316e-02 -1.622095e-01 -1.494616e-01 -2.036704e-02 0 0 0 0 0 0 0 0 0 0 0 0 0 0 0 0 0 0 0 0 0 0 0 0 0 0 0 0 0 0 0 0 0 0 0 0 0 0 0 0 0 0 0 0 0 0 0 0 0 0 0 0 0 0 0 
0 0 0 0 0 -4.269848e-02 -1.338437e-01 -1.003626e-01 -1.745279e-01 -1.396267e-01 -2.136771e-01 -1.726681e-01 -2.485626e-01 -3.057804e+00 3.020977e+00 -2.334700e+00 4.842363e+00 -3.174947e+00 5.749354e+00 -2.758641e+00 4.726228e+00 2.333682e+00 2.291397e+00 2.310191e+00 2.286924e+00 2.290519e+00 2.258740e+00 2.231512e+00 2.192711e+00 2.157119e+00 2.136478e+00 2.114443e+00 2.113910e+00 2.096238e+00 2.094718e+00 2.064507e+00 2.047478e+00 2.003973e+00 1.977812e+00 1.937099e+00 1.916946e+00 1.891461e+00 1.879771e+00 1.863938e+00 1.850111e+00 1.833704e+00 1.812085e+00 1.793371e+00 1.767309e+00 1.748712e+00 1.719852e+00 1.698223e+00 1.664105e+00 1.637609e+00 1.604158e+00 1.583605e+00 1.741381e+00 2.614157e+00 2.621529e+00 1.803007e+00 2.482041e+00 2.736942e+00 1.831555e+00 2.320179e+00 2.852206e+00 1.947516e+00 1.863362e+00 2.534825e+00 2.028320e+00 1.616960e+00 2.260152e+00 1.971879e+00 1.277249e+00 1.214714e+00 1.189671e+00 1.170150e+00 1.142118e+00 1.123113e+00 1.091699e+00 1.077361e+00 1.049631e+00 1.041551e+00 1.014887e+00 1.003482e+00 9.709410e-01 9.510375e-01 9.171538e-01 8.944120e-01 8.678754e-01 8.452157e-01 8.276814e-01 8.015477e-01 7.898421e-01 7.573593e-01 7.498352e-01 7.102857e-01 7.053019e-01 6.604930e-01 6.570043e-01 6.095151e-01 6.054030e-01 5.592687e-01 5.552160e-01 5.191550e-01 5.165857e-01 4.918219e-01 4.786616e-01 4.553836e-01 4.218286e-01 4.025733e-01 3.567655e-01 3.530694e-01 3.018410e-01 3.109862e-01 2.519566e-01 2.681691e-01 2.078030e-01 2.304698e-01 1.762989e-01 1.911944e-01 1.461659e-01 1.306428e-01 1.097933e-01 -4.725911e-02 0 0 0 0 
0 0 0 0 0 -9.592577e-01 -3.007745e+00 -2.256725e+00 -3.922641e+00 -3.140426e+00 -4.806340e+00 -3.888046e+00 -5.595278e+00 -7.051348e+00 9.084762e+00 8.452877e+00 2.403491e+01 2.311819e+01 3.924015e+01 3.759027e+01 5.434576e+01 5.234002e+01 5.139280e+01 5.181375e+01 5.129243e+01 5.137285e+01 5.066078e+01 5.005077e+01 4.918137e+01 4.838402e+01 4.792157e+01 4.742797e+01 4.741612e+01 4.702026e+01 4.698627e+01 4.630943e+01 4.592788e+01 4.495302e+01 4.436680e+01 4.345440e+01 4.300277e+01 4.243159e+01 4.216958e+01 4.181471e+01 4.150483e+01 4.113709e+01 4.065258e+01 4.023314e+01 3.964904e+01 3.923220e+01 3.858534e+01 3.810053e+01 3.733576e+01 3.674180e+01 3.599192e+01 3.553117e+01 3.550747e+01 3.685698e+01 3.648838e+01 3.486280e+01 3.572559e+01 3.543460e+01 3.327351e+01 3.357344e+01 3.394106e+01 3.180884e+01 3.149926e+01 3.215860e+01 3.097561e+01 2.992837e+01 3.066504e+01 2.963363e+01 2.787213e+01 2.725959e+01 2.669798e+01 2.626016e+01 2.563146e+01 2.520520e+01 2.450060e+01 2.417899e+01 2.355696e+01 2.337568e+01 2.277751e+01 2.252161e+01 2.179151e+01 2.134497e+01 2.058472e+01 2.007451e+01 1.947910e+01 1.897077e+01 1.857738e+01 1.799115e+01 1.772859e+01 1.699990e+01 1.683115e+01 1.594380e+01 1.583196e+01 1.482637e+01 1.474791e+01 1.368189e+01 1.358926e+01 1.255338e+01 1.246199e+01 1.165210e+01 1.159403e+01 1.103785e+01 1.074236e+01 1.021979e+01 9.466976e+00 9.035038e+00 8.007464e+00 7.925045e+00 6.775760e+00 6.981510e+00 5.656630e+00 6.020356e+00 4.664011e+00 5.169737e+00 3.944663e+00 4.252104e+00 3.151053e+00 2.780892e+00 2.411601e+00 -1.062277e+00 0 0 0 0 
0 0 0 0 0 -1.388789e+00 -4.354746e+00 -3.267735e+00 -5.679536e+00 -4.547540e+00 -6.959993e+00 -5.631273e+00 -8.103518e+00 -4.680874e+00 9.312824e+00 1.713915e+01 2.903120e+01 4.009046e+01 5.025598e+01 6.086059e+01 7.359652e+01 7.575417e+01 7.438350e+01 7.499262e+01 7.423823e+01 7.435457e+01 7.332412e+01 7.244140e+01 7.118328e+01 7.002947e+01 6.936027e+01 6.864601e+01 6.862889e+01 6.805606e+01 6.800689e+01 6.702745e+01 6.647531e+01 6.506459e+01 6.421626e+01 6.289588e+01 6.224231e+01 6.141571e+01 6.103653e+01 6.052298e+01 6.007452e+01 5.954233e+01 5.884118e+01 5.823417e+01 5.738888e+01 5.678564e+01 5.584951e+01 5.514789e+01 5.404112e+01 5.318153e+01 5.209628e+01 5.142947e+01 5.061489e+01 4.967489e+01 4.944220e+01 4.959956e+01 4.838208e+01 4.738014e+01 4.709687e+01 4.551134e+01 4.433209e+01 4.422822e+01 4.383056e+01 4.268094e+01 4.270210e+01 4.226333e+01 4.103702e+01 4.040938e+01 4.018134e+01 3.945813e+01 3.864528e+01 3.801161e+01 3.710167e+01 3.648471e+01 3.546490e+01 3.499942e+01 3.409910e+01 3.383670e+01 3.297090e+01 3.260050e+01 3.154374e+01 3.089739e+01 2.979696e+01 2.905848e+01 2.819665e+01 2.746089e+01 2.689149e+01 2.604298e+01 2.566296e+01 2.460825e+01 2.436402e+01 2.307963e+01 2.291774e+01 2.146214e+01 2.134853e+01 1.980539e+01 1.967122e+01 1.817165e+01 1.803925e+01 1.686677e+01 1.678263e+01 1.597743e+01 1.554968e+01 1.479322e+01 1.370357e+01 1.307838e+01 1.159108e+01 1.147191e+01 9.808411e+00 1.010637e+01 8.188562e+00 8.715027e+00 6.751302e+00 7.482590e+00 5.706910e+00 6.145112e+00 4.528345e+00 3.987007e+00 3.477503e+00 -1.538080e+00 0 0 0 0 
0 0 0 0 0 -4.722293e-01 -1.480845e+00 -1.111372e+00 -1.931423e+00 -1.546740e+00 -2.367330e+00 -1.915896e+00 -2.756803e+00 -1.593206e+00 3.165215e+00 5.826080e+00 9.868810e+00 1.362782e+01 1.708289e+01 2.068664e+01 2.501456e+01 2.574783e+01 2.528210e+01 2.548906e+01 2.523272e+01 2.527224e+01 2.492208e+01 2.462214e+01 2.419462e+01 2.380257e+01 2.357518e+01 2.333249e+01 2.332668e+01 2.313204e+01 2.311534e+01 2.278253e+01 2.259492e+01 2.211554e+01 2.182727e+01 2.137858e+01 2.115648e+01 2.087558e+01 2.074672e+01 2.057220e+01 2.041981e+01 2.023895e+01 2.000068e+01 1.979440e+01 1.950715e+01 1.930215e+01 1.898402e+01 1.874559e+01 1.836946e+01 1.807734e+01 1.770852e+01 1.748191e+01 1.681645e+01 1.526997e+01 1.541942e+01 1.649415e+01 1.502834e+01 1.458671e+01 1.564576e+01 1.429156e+01 1.336618e+01 1.445207e+01 1.418459e+01 1.312854e+01 1.384782e+01 1.399752e+01 1.283959e+01 1.295368e+01 1.361895e+01 1.341325e+01 1.313698e+01 1.292160e+01 1.261233e+01 1.240263e+01 1.205600e+01 1.189779e+01 1.159177e+01 1.150257e+01 1.120828e+01 1.108237e+01 1.072316e+01 1.050346e+01 1.012940e+01 9.878382e+00 9.585426e+00 9.335337e+00 9.141791e+00 8.853382e+00 8.724214e+00 8.365714e+00 8.282702e+00 7.846113e+00 7.791081e+00 7.296269e+00 7.257628e+00 6.733019e+00 6.687368e+00 6.177539e+00 6.132475e+00 5.733830e+00 5.705176e+00 5.431403e+00 5.285978e+00 5.028806e+00 4.658419e+00 4.445917e+00 3.940378e+00 3.899933e+00 3.334492e+00 3.435842e+00 2.783888e+00 2.962840e+00 2.295095e+00 2.543324e+00 1.938546e+00 2.084203e+00 1.523459e+00 1.336758e+00 1.175695e+00 -5.230619e-01 0 0 0 0 
0 0 0 0 0 0 0 0 0 0 0 0 0 0 0 0 0 0 0 0 0 0 0 0 0 0 0 0 0 0 0 0 0 0 0 0 0 0 0 0 0 0 0 0 0 0 0 0 0 0 0 0 0 0 0 0 -2.488104e-02 -9.485135e-02 -7.717921e-02 -2.144991e-02 -9.431637e-02 -9.921431e-02 -2.298362e-02 -6.428681e-02 -8.795149e-02 -2.759011e-02 -4.975266e-02 -9.391691e-02 -4.424500e-02 -1.907505e-02 -5.482078e-02 -3.725256e-02 -1.506828e-03 0 0 0 0 0 0 0 0 0 0 0 0 0 0 0 0 0 0 0 0 0 0 0 0 0 0 0 0 0 0 0 0 0 0 0 0 0 0 0 0 0 0 0 0 0 0 0 0 0 0 0 0 0 0 0 
