# vtk DataFile Version 2.0
Comment goes here
ASCII

DATASET STRUCTURED_POINTS
FIELD FieldData 1
TIME 1 1 double
0.64000000
DIMENSIONS    128   16   1

ORIGIN    0.000   0.000   0.000
SPACING   0.0078125 0.015625   1.000

POINT_DATA   2048
SCALARS fY double
LOOKUP_TABLE default

0 0 0 0 0 0 0 0 0 0 0 0 0 0 0 0 0 0 0 0 0 0 0 0 0 0 0 0 0 0 0 0 0 0 0 0 0 0 0 0 0 0 0 0 0 0 0 0 0 0 0 0 0 0 0 0 0 0 0 0 0 0 0 0 0 0 0 0 0 0 0 0 0 0 0 0 0 0 0 0 0 0 0 0 0 0 0 0 0 0 0 0 0 0 0 0 0 0 0 0 0 0 0 0 0 0 0 0 0 0 0 0 0 0 0 0 0 0 0 0 0 0 0 0 0 0 0 0 
0 0 0 0 0 0 0 0 0 0 0 0 0 0 0 0 0 0 0 0 0 0 0 0 0 0 0 0 0 0 0 0 0 0 0 0 0 0 0 0 0 0 0 0 0 0 0 0 0 0 0 0 0 0 0 0 0 0 0 0 0 0 0 0 0 0 0 0 0 0 0 0 0 0 0 0 0 0 0 0 0 0 0 0 0 0 0 0 0 0 0 0 0 0 0 0 0 0 0 0 0 0 0 0 0 0 0 0 0 0 0 0 0 0 0 0 0 0 0 0 0 0 0 0 0 0 0 0 
0 0 0 0 0 4.713632e-01 1.479720e+00 1.110054e+00 1.933046e+00 1.551781e+00 2.374929e+00 1.920028e+00 2.755506e+00 1.587315e+00 -3.170983e+00 -5.828175e+00 -9.861125e+00 -1.361304e+01 -1.708103e+01 -2.072076e+01 -2.512090e+01 -2.590504e+01 -2.540698e+01 -2.548620e+01 -2.506544e+01 -2.500690e+01 -2.468033e+01 -2.452254e+01 -2.428210e+01 -2.404309e+01 -2.386504e+01 -2.356041e+01 -2.341374e+01 -2.305447e+01 -2.290833e+01 -2.251678e+01 -2.236427e+01 -2.198581e+01 -2.184498e+01 -2.152755e+01 -2.140059e+01 -2.113573e+01 -2.096853e+01 -2.070382e+01 -2.045513e+01 -2.018169e+01 -1.987849e+01 -1.963295e+01 -1.932537e+01 -1.912940e+01 -1.883704e+01 -1.867345e+01 -1.839119e+01 -1.823116e+01 -1.794748e+01 -1.775073e+01 -1.734759e+01 -1.669054e+01 -1.639446e+01 -1.628240e+01 -1.469256e+01 -1.439109e+01 -1.565179e+01 -1.587806e+01 -1.571575e+01 -1.535972e+01 -1.434957e+01 -1.313777e+01 -1.373344e+01 -1.461410e+01 -1.501654e+01 -1.452688e+01 -1.363392e+01 -1.338806e+01 -1.318866e+01 -1.302085e+01 -1.276128e+01 -1.255532e+01 -1.220360e+01 -1.196907e+01 -1.158050e+01 -1.137921e+01 -1.102734e+01 -1.088253e+01 -1.058320e+01 -1.045229e+01 -1.018005e+01 -9.998730e+00 -9.728744e+00 -9.455797e+00 -9.202220e+00 -8.853807e+00 -8.667400e+00 -8.281523e+00 -8.188993e+00 -7.776657e+00 -7.752873e+00 -7.298522e+00 -7.291372e+00 -6.795913e+00 -6.772706e+00 -6.275115e+00 -6.219429e+00 -5.771195e+00 -5.665527e+00 -5.310337e+00 -5.123043e+00 -4.874568e+00 -4.564546e+00 -4.429740e+00 -3.990744e+00 -3.986660e+00 -3.438911e+00 -3.553604e+00 -2.910610e+00 -3.084288e+00 -2.369776e+00 -2.535460e+00 -1.836742e+00 -1.932064e+00 -1.378377e+00 -1.253467e+00 -1.150544e+00 5.258060e-01 0 0 0 0 
0 0 0 0 0 1.386242e+00 4.351440e+00 3.263857e+00 5.684304e+00 4.562364e+00 6.982336e+00 5.643417e+00 8.099695e+00 4.663541e+00 -9.329797e+00 -1.714532e+01 -2.900859e+01 -4.004698e+01 -5.025051e+01 -6.096102e+01 -7.390950e+01 -7.621685e+01 -7.475103e+01 -7.498418e+01 -7.374594e+01 -7.357368e+01 -7.261264e+01 -7.214829e+01 -7.144070e+01 -7.073729e+01 -7.021332e+01 -6.931676e+01 -6.888512e+01 -6.782778e+01 -6.739768e+01 -6.624539e+01 -6.579655e+01 -6.468284e+01 -6.426839e+01 -6.333427e+01 -6.296068e+01 -6.218126e+01 -6.168926e+01 -6.091031e+01 -6.017847e+01 -5.937386e+01 -5.848163e+01 -5.775908e+01 -5.685398e+01 -5.627732e+01 -5.541700e+01 -5.493561e+01 -5.410504e+01 -5.363414e+01 -5.279942e+01 -5.222048e+01 -5.117226e+01 -4.979589e+01 -4.888232e+01 -4.850767e+01 -4.707046e+01 -4.657609e+01 -4.692131e+01 -4.604037e+01 -4.526912e+01 -4.486369e+01 -4.410052e+01 -4.275500e+01 -4.262894e+01 -4.220021e+01 -4.136468e+01 -4.055571e+01 -3.993926e+01 -3.938401e+01 -3.879734e+01 -3.830362e+01 -3.753992e+01 -3.693395e+01 -3.589915e+01 -3.520915e+01 -3.406596e+01 -3.347375e+01 -3.243857e+01 -3.201254e+01 -3.113194e+01 -3.074683e+01 -2.994595e+01 -2.941252e+01 -2.861826e+01 -2.781525e+01 -2.706925e+01 -2.604422e+01 -2.549581e+01 -2.436057e+01 -2.408834e+01 -2.287530e+01 -2.280533e+01 -2.146877e+01 -2.144780e+01 -1.999041e+01 -1.992227e+01 -1.845869e+01 -1.829504e+01 -1.697670e+01 -1.666599e+01 -1.562131e+01 -1.507040e+01 -1.433952e+01 -1.342746e+01 -1.303081e+01 -1.173925e+01 -1.172704e+01 -1.011557e+01 -1.045277e+01 -8.561313e+00 -9.072265e+00 -6.970966e+00 -7.459454e+00 -5.407471e+00 -5.697618e+00 -4.101749e+00 -3.742214e+00 -3.403582e+00 1.546147e+00 0 0 0 0 
0 0 0 0 0 9.574986e-01 3.005462e+00 2.254047e+00 3.925932e+00 3.150665e+00 4.821771e+00 3.896429e+00 5.592633e+00 7.044339e+00 -9.096726e+00 -8.469680e+00 -2.405596e+01 -2.314251e+01 -3.925732e+01 -3.763109e+01 -5.439809e+01 -5.265977e+01 -5.164678e+01 -5.180791e+01 -5.095224e+01 -5.083321e+01 -5.016910e+01 -4.984822e+01 -4.935925e+01 -4.887316e+01 -4.851107e+01 -4.789148e+01 -4.759319e+01 -4.686250e+01 -4.656528e+01 -4.576899e+01 -4.545883e+01 -4.468922e+01 -4.440283e+01 -4.375734e+01 -4.349918e+01 -4.296060e+01 -4.262062e+01 -4.208237e+01 -4.157666e+01 -4.102067e+01 -4.040414e+01 -3.990486e+01 -3.927943e+01 -3.888096e+01 -3.828648e+01 -3.795384e+01 -3.737993e+01 -3.705455e+01 -3.647777e+01 -3.607774e+01 -3.566568e+01 -3.605958e+01 -3.536390e+01 -3.412546e+01 -3.512151e+01 -3.498111e+01 -3.297489e+01 -3.246601e+01 -3.254461e+01 -3.159816e+01 -3.181070e+01 -3.240105e+01 -3.097070e+01 -2.895082e+01 -2.812053e+01 -2.779632e+01 -2.762315e+01 -2.720838e+01 -2.680304e+01 -2.646191e+01 -2.593426e+01 -2.551558e+01 -2.480062e+01 -2.432390e+01 -2.353407e+01 -2.312492e+01 -2.240972e+01 -2.211538e+01 -2.150700e+01 -2.124094e+01 -2.068764e+01 -2.031910e+01 -1.977037e+01 -1.921558e+01 -1.870018e+01 -1.799199e+01 -1.761311e+01 -1.682878e+01 -1.664069e+01 -1.580264e+01 -1.575430e+01 -1.483095e+01 -1.481649e+01 -1.380971e+01 -1.376269e+01 -1.275168e+01 -1.263870e+01 -1.172804e+01 -1.151346e+01 -1.079184e+01 -1.041126e+01 -9.906372e+00 -9.276243e+00 -9.002180e+00 -8.109835e+00 -8.101299e+00 -6.987956e+00 -7.220815e+00 -5.914129e+00 -6.267139e+00 -4.815751e+00 -5.153751e+00 -3.737816e+00 -3.942980e+00 -2.856432e+00 -2.611886e+00 -2.360565e+00 1.067848e+00 0 0 0 0 
0 0 0 0 0 4.262022e-02 1.337425e-01 1.002433e-01 1.746738e-01 1.400823e-01 2.143635e-01 1.730401e-01 2.484438e-01 3.057670e+00 -3.032332e+00 2.330522e+00 -4.855116e+00 3.176067e+00 -5.740395e+00 2.773391e+00 -4.720068e+00 -2.347956e+00 -2.302734e+00 -2.309930e+00 -2.271739e+00 -2.266430e+00 -2.236793e+00 -2.222472e+00 -2.200650e+00 -2.178951e+00 -2.162789e+00 -2.135130e+00 -2.121814e+00 -2.089198e+00 -2.075930e+00 -2.040389e+00 -2.026546e+00 -1.992200e+00 -1.979420e+00 -1.950617e+00 -1.939098e+00 -1.915067e+00 -1.899898e+00 -1.875882e+00 -1.853317e+00 -1.828511e+00 -1.801001e+00 -1.778726e+00 -1.750820e+00 -1.733043e+00 -1.706519e+00 -1.691680e+00 -1.666076e+00 -1.651560e+00 -1.625831e+00 -1.607986e+00 -1.809850e+00 -2.672551e+00 -2.550606e+00 -1.812599e+00 -2.738526e+00 -2.842545e+00 -1.745803e+00 -1.952097e+00 -2.278477e+00 -1.734823e+00 -2.018667e+00 -2.720155e+00 -2.057219e+00 -1.225741e+00 -1.146554e+00 -1.219918e+00 -1.252695e+00 -1.212429e+00 -1.194355e+00 -1.179145e+00 -1.155618e+00 -1.136951e+00 -1.105075e+00 -1.083821e+00 -1.048611e+00 -1.030371e+00 -9.984913e-01 -9.853722e-01 -9.582564e-01 -9.463985e-01 -9.217391e-01 -9.053124e-01 -8.808559e-01 -8.561250e-01 -8.331531e-01 -8.015835e-01 -7.846939e-01 -7.497321e-01 -7.413462e-01 -7.039945e-01 -7.018412e-01 -6.606971e-01 -6.600608e-01 -6.152111e-01 -6.131318e-01 -5.681051e-01 -5.630907e-01 -5.225403e-01 -5.129956e-01 -4.808628e-01 -4.639110e-01 -4.414209e-01 -4.133339e-01 -4.011110e-01 -3.613286e-01 -3.609235e-01 -3.112953e-01 -3.216476e-01 -2.634271e-01 -2.791623e-01 -2.145612e-01 -2.297570e-01 -1.670866e-01 -1.774265e-01 -1.330610e-01 -1.231394e-01 -1.075273e-01 4.750669e-02 0 0 0 0 
0 0 0 0 0 0 0 0 0 0 0 0 0 1.440557e+00 -4.360267e-01 1.496484e+00 -1.207746e+00 1.347372e+00 -1.563370e+00 7.195623e-01 -1.485633e+00 0 0 0 0 0 0 0 0 0 0 0 0 0 0 0 0 0 0 0 0 0 0 0 0 0 0 0 0 0 0 0 0 0 0 0 1.341672e-02 5.921368e-02 4.382551e-02 8.514621e-03 8.127710e-02 1.005020e-01 2.821896e-02 1.763698e-01 2.824103e-01 1.030248e-01 4.906247e-02 1.240861e-01 7.649525e-02 7.819538e-02 2.564042e-01 1.907818e-01 9.577592e-03 0 0 0 0 0 0 0 0 0 0 0 0 0 0 0 0 0 0 0 0 0 0 0 0 0 0 0 0 0 0 0 0 0 0 0 0 0 0 0 0 0 0 0 0 0 0 0 0 0 0 0 0 0 0 0 
0 0 0 0 0 0 0 0 0 0 0 0 0 6.984007e-01 -4.212631e-01 8.854667e-01 -8.678704e-01 9.534296e-01 -9.744256e-01 6.347280e-01 -7.394195e-01 0 0 0 0 0 0 0 0 0 0 0 0 0 0 0 0 0 0 0 0 0 0 0 0 0 0 0 0 0 0 0 0 0 0 0 -1.572784e-02 -1.551329e-01 -1.829428e-01 -4.535402e-02 -4.379625e-03 -5.946975e-03 -3.267523e-03 -1.303061e-01 -2.975487e-01 -1.660546e-01 -2.157310e-02 -6.648171e-02 -4.683812e-02 -4.985798e-02 -2.347689e-01 -2.185556e-01 -3.064329e-02 0 0 0 0 0 0 0 0 0 0 0 0 0 0 0 0 0 0 0 0 0 0 0 0 0 0 0 0 0 0 0 0 0 0 0 0 0 0 0 0 0 0 0 0 0 0 0 0 0 0 0 0 0 0 0 
0 0 0 0 0 0 0 0 0 0 0 0 0 -2.997019e-04 -8.762060e-04 -5.168408e-04 -1.593586e-03 -1.046680e-03 -2.873230e-03 -1.997810e-03 -5.231922e-03 0 0 0 0 0 0 0 0 0 0 0 0 0 0 0 0 0 0 0 0 0 0 0 0 0 0 0 0 0 0 0 0 0 0 0 -3.076804e-03 1.015686e-02 2.749949e-02 1.523653e-02 -3.425052e-03 -1.715611e-02 -1.276036e-02 -2.535001e-03 1.701025e-02 2.096467e-02 -5.796417e-03 -4.182448e-02 -4.027449e-02 -1.096044e-02 -9.994089e-03 -2.135966e-03 2.563521e-03 0 0 0 0 0 0 0 0 0 0 0 0 0 0 0 0 0 0 0 0 0 0 0 0 0 0 0 0 0 0 0 0 0 0 0 0 0 0 0 0 0 0 0 0 0 0 0 0 0 0 0 0 0 0 0 
0 0 0 0 0 0 0 0 0 0 0 0 0 -6.989240e-01 4.198115e-01 -8.863743e-01 8.657202e-01 -9.554340e-01 9.713586e-01 -6.383030e-01 7.327576e-01 0 0 0 0 0 0 0 0 0 0 0 0 0 0 0 0 0 0 0 0 0 0 0 0 0 0 0 0 0 0 0 0 0 0 0 -6.925332e-03 -1.059796e-01 -1.408399e-01 -4.411314e-02 8.953569e-03 3.952860e-02 2.824744e-02 -1.498296e-02 -4.353704e-02 -2.956576e-02 8.559563e-03 6.109893e-02 5.956394e-02 4.419239e-03 -2.839500e-02 -3.124998e-02 -6.471931e-03 0 0 0 0 0 0 0 0 0 0 0 0 0 0 0 0 0 0 0 0 0 0 0 0 0 0 0 0 0 0 0 0 0 0 0 0 0 0 0 0 0 0 0 0 0 0 0 0 0 0 0 0 0 0 0 
0 0 0 0 0 0 0 0 0 0 0 0 0 -1.440455e+00 4.354861e-01 -1.496237e+00 1.206808e+00 -1.347780e+00 1.561844e+00 -7.208829e-01 1.479742e+00 0 0 0 0 0 0 0 0 0 0 0 0 0 0 0 0 0 0 0 0 0 0 0 0 0 0 0 0 0 0 0 0 0 0 0 4.449812e-03 1.113409e-02 1.593616e-03 -3.777420e-03 -6.777724e-02 -1.197237e-01 -5.034987e-02 -7.658034e-02 -1.530383e-01 -7.604694e-02 -6.276028e-02 -2.076983e-01 -1.528540e-01 -3.985213e-02 -1.455273e-01 -1.298151e-01 -1.609616e-02 0 0 0 0 0 0 0 0 0 0 0 0 0 0 0 0 0 0 0 0 0 0 0 0 0 0 0 0 0 0 0 0 0 0 0 0 0 0 0 0 0 0 0 0 0 0 0 0 0 0 0 0 0 0 0 
0 0 0 0 0 -4.259586e-02 -1.336720e-01 -1.000235e-01 -1.743860e-01 -1.398487e-01 -2.142825e-01 -1.731051e-01 -2.485759e-01 -3.056238e+00 3.030530e+00 -2.328562e+00 4.853929e+00 -3.176052e+00 5.747591e+00 -2.778092e+00 4.728478e+00 2.347081e+00 2.303305e+00 2.312991e+00 2.277563e+00 2.273078e+00 2.242132e+00 2.223892e+00 2.197469e+00 2.171226e+00 2.152477e+00 2.124511e+00 2.113556e+00 2.085272e+00 2.076841e+00 2.046016e+00 2.034987e+00 2.002277e+00 1.988012e+00 1.956389e+00 1.939351e+00 1.910595e+00 1.890901e+00 1.865727e+00 1.843866e+00 1.822753e+00 1.799904e+00 1.782474e+00 1.758351e+00 1.741596e+00 1.714638e+00 1.696070e+00 1.667061e+00 1.647159e+00 1.619260e+00 1.600119e+00 1.761819e+00 2.666454e+00 2.664830e+00 1.805598e+00 2.518046e+00 2.777406e+00 1.834948e+00 2.348045e+00 2.905003e+00 1.977259e+00 1.898235e+00 2.578665e+00 2.040253e+00 1.618895e+00 2.276990e+00 1.982361e+00 1.273584e+00 1.212564e+00 1.190744e+00 1.173459e+00 1.146652e+00 1.127844e+00 1.095253e+00 1.078156e+00 1.046788e+00 1.035598e+00 1.007618e+00 9.975655e-01 9.683938e-01 9.522295e-01 9.204800e-01 8.975552e-01 8.689086e-01 8.433485e-01 8.234216e-01 7.964193e-01 7.854000e-01 7.545136e-01 7.489981e-01 7.112358e-01 7.072246e-01 6.623383e-01 6.581763e-01 6.101113e-01 6.062493e-01 5.612056e-01 5.579298e-01 5.207614e-01 5.146389e-01 4.856289e-01 4.700333e-01 4.477835e-01 4.179546e-01 4.029919e-01 3.593024e-01 3.553704e-01 3.032821e-01 3.132995e-01 2.570045e-01 2.762791e-01 2.159492e-01 2.342092e-01 1.728178e-01 1.819321e-01 1.356005e-01 1.237433e-01 1.076371e-01 -4.744685e-02 0 0 0 0 
0 0 0 0 0 -9.569511e-01 -3.003876e+00 -2.249110e+00 -3.919469e+00 -3.145423e+00 -4.819958e+00 -3.897893e+00 -5.595603e+00 -7.042896e+00 9.097916e+00 8.473224e+00 2.406030e+01 2.314730e+01 3.927062e+01 3.763866e+01 5.442344e+01 5.264016e+01 5.165957e+01 5.187648e+01 5.108271e+01 5.098215e+01 5.028873e+01 4.988004e+01 4.928799e+01 4.870010e+01 4.828003e+01 4.765355e+01 4.740817e+01 4.677455e+01 4.658571e+01 4.589508e+01 4.564799e+01 4.491504e+01 4.459538e+01 4.388671e+01 4.350487e+01 4.286039e+01 4.241902e+01 4.185481e+01 4.136486e+01 4.089165e+01 4.037957e+01 3.998890e+01 3.944825e+01 3.907269e+01 3.846848e+01 3.805227e+01 3.740201e+01 3.695588e+01 3.633048e+01 3.590139e+01 3.580355e+01 3.702659e+01 3.642766e+01 3.457522e+01 3.545011e+01 3.523655e+01 3.315609e+01 3.367538e+01 3.421528e+01 3.207064e+01 3.175479e+01 3.237394e+01 3.103275e+01 2.985380e+01 3.056247e+01 2.950615e+01 2.775644e+01 2.721138e+01 2.672202e+01 2.633436e+01 2.573316e+01 2.531132e+01 2.458031e+01 2.419682e+01 2.349320e+01 2.324215e+01 2.261445e+01 2.238889e+01 2.173439e+01 2.137172e+01 2.065935e+01 2.014504e+01 1.950228e+01 1.892889e+01 1.848182e+01 1.787610e+01 1.762893e+01 1.693605e+01 1.681238e+01 1.596512e+01 1.587510e+01 1.486777e+01 1.477420e+01 1.369525e+01 1.360823e+01 1.259683e+01 1.252286e+01 1.168811e+01 1.155032e+01 1.089881e+01 1.054868e+01 1.004919e+01 9.379986e+00 9.044421e+00 8.064394e+00 7.976677e+00 6.808101e+00 7.033438e+00 5.769950e+00 6.202413e+00 4.846906e+00 5.253680e+00 3.866481e+00 4.044139e+00 2.913579e+00 2.625666e+00 2.363117e+00 -1.066501e+00 0 0 0 0 
0 0 0 0 0 -1.385449e+00 -4.349143e+00 -3.256710e+00 -5.674948e+00 -4.554776e+00 -6.979713e+00 -5.645538e+00 -8.103996e+00 -4.668013e+00 9.329433e+00 1.714416e+01 2.901153e+01 4.005100e+01 5.024495e+01 6.095855e+01 7.388245e+01 7.618849e+01 7.476954e+01 7.508339e+01 7.393474e+01 7.378920e+01 7.278574e+01 7.219434e+01 7.133757e+01 7.048686e+01 6.987900e+01 6.897245e+01 6.861737e+01 6.770049e+01 6.742724e+01 6.642784e+01 6.607028e+01 6.500963e+01 6.454704e+01 6.352149e+01 6.296892e+01 6.203624e+01 6.139751e+01 6.058101e+01 5.987196e+01 5.918714e+01 5.844608e+01 5.788072e+01 5.709830e+01 5.655480e+01 5.568039e+01 5.507806e+01 5.413700e+01 5.349135e+01 5.258626e+01 5.196526e+01 5.100923e+01 4.975603e+01 4.919960e+01 4.913718e+01 4.781433e+01 4.690674e+01 4.688181e+01 4.552400e+01 4.452680e+01 4.453378e+01 4.411727e+01 4.284006e+01 4.271776e+01 4.212099e+01 4.078418e+01 4.015562e+01 4.001196e+01 3.938834e+01 3.868008e+01 3.811901e+01 3.724886e+01 3.663832e+01 3.558028e+01 3.502522e+01 3.400682e+01 3.364344e+01 3.273490e+01 3.240841e+01 3.146106e+01 3.093612e+01 2.990499e+01 2.916057e+01 2.823021e+01 2.740028e+01 2.675317e+01 2.587645e+01 2.551872e+01 2.451584e+01 2.433684e+01 2.311049e+01 2.298018e+01 2.152207e+01 2.138658e+01 1.982473e+01 1.969868e+01 1.823454e+01 1.812736e+01 1.691890e+01 1.671935e+01 1.577615e+01 1.526931e+01 1.454626e+01 1.357763e+01 1.309196e+01 1.167348e+01 1.154664e+01 9.855225e+00 1.018154e+01 8.352601e+00 8.978569e+00 7.016063e+00 7.604104e+00 5.593726e+00 5.844057e+00 4.184508e+00 3.762219e+00 3.407298e+00 -1.544197e+00 0 0 0 0 
0 0 0 0 0 -4.710936e-01 -1.478939e+00 -1.107624e+00 -1.929865e+00 -1.549202e+00 -2.374038e+00 -1.920750e+00 -2.756969e+00 -1.588836e+00 3.170859e+00 5.827781e+00 9.862123e+00 1.361441e+01 1.707914e+01 2.071992e+01 2.511171e+01 2.589540e+01 2.541327e+01 2.551991e+01 2.512959e+01 2.508013e+01 2.473915e+01 2.453819e+01 2.424705e+01 2.395799e+01 2.375144e+01 2.344341e+01 2.332276e+01 2.301122e+01 2.291838e+01 2.257878e+01 2.245728e+01 2.209686e+01 2.193967e+01 2.159117e+01 2.140339e+01 2.108645e+01 2.086939e+01 2.059192e+01 2.035097e+01 2.011825e+01 1.986642e+01 1.967429e+01 1.940840e+01 1.922370e+01 1.892655e+01 1.872186e+01 1.840205e+01 1.818263e+01 1.787504e+01 1.766399e+01 1.693585e+01 1.524044e+01 1.528832e+01 1.632440e+01 1.478848e+01 1.437340e+01 1.555741e+01 1.423998e+01 1.335244e+01 1.452843e+01 1.425907e+01 1.313607e+01 1.382928e+01 1.393295e+01 1.270539e+01 1.283345e+01 1.355959e+01 1.338953e+01 1.314880e+01 1.295810e+01 1.266236e+01 1.245484e+01 1.209522e+01 1.190656e+01 1.156040e+01 1.143689e+01 1.112806e+01 1.101708e+01 1.069506e+01 1.051662e+01 1.016612e+01 9.913085e+00 9.596837e+00 9.314736e+00 9.094775e+00 8.796777e+00 8.675185e+00 8.334302e+00 8.273465e+00 7.856604e+00 7.812307e+00 7.316640e+00 7.270561e+00 6.739591e+00 6.696700e+00 6.198915e+00 6.162424e+00 5.751546e+00 5.683663e+00 5.362976e+00 5.190662e+00 4.944850e+00 4.615603e+00 4.450532e+00 3.968391e+00 3.925338e+00 3.350406e+00 3.461397e+00 2.839656e+00 3.052435e+00 2.385107e+00 2.584634e+00 1.900063e+00 1.981850e+00 1.406529e+00 1.260296e+00 1.151818e+00 -5.251428e-01 0 0 0 0 
0 0 0 0 0 0 0 0 0 0 0 0 0 0 0 0 0 0 0 0 0 0 0 0 0 0 0 0 0 0 0 0 0 0 0 0 0 0 0 0 0 0 0 0 0 0 0 0 0 0 0 0 0 0 0 0 -2.537428e-02 -9.552295e-02 -7.717001e-02 -2.130947e-02 -9.337248e-02 -9.772315e-02 -2.269181e-02 -6.574157e-02 -8.936679e-02 -2.777238e-02 -4.921264e-02 -9.243093e-02 -4.331245e-02 -1.927856e-02 -5.511555e-02 -3.731211e-02 -1.475123e-03 0 0 0 0 0 0 0 0 0 0 0 0 0 0 0 0 0 0 0 0 0 0 0 0 0 0 0 0 0 0 0 0 0 0 0 0 0 0 0 0 0 0 0 0 0 0 0 0 0 0 0 0 0 0 0 
