# vtk DataFile Version 2.0
Comment goes here
ASCII

DATASET STRUCTURED_POINTS
FIELD FieldData 1
TIME 1 1 double
0.01000000
DIMENSIONS    128   16   1

ORIGIN    0.000   0.000   0.000
SPACING   0.0078125 0.015625   1.000

POINT_DATA   2048
SCALARS P double
LOOKUP_TABLE default

-1.223534e+00 -1.213993e+00 -1.236248e+00 -1.234700e+00 -1.255564e+00 -1.264643e+00 -1.282451e+00 -1.309528e+00 -1.316365e+00 -1.352018e+00 -1.351173e+00 -1.386396e+00 -1.375778e+00 -1.404911e+00 -1.373765e+00 -1.391736e+00 -1.355341e+00 -1.369543e+00 -1.331828e+00 -1.345337e+00 -1.309048e+00 -1.325182e+00 -1.302809e+00 -1.318877e+00 -1.301915e+00 -1.315707e+00 -1.305615e+00 -1.317417e+00 -1.322108e+00 -1.335645e+00 -1.353572e+00 -1.367132e+00 -1.390619e+00 -1.397007e+00 -1.414038e+00 -1.408308e+00 -1.416919e+00 -1.410854e+00 -1.436002e+00 -1.450359e+00 -1.488819e+00 -1.512123e+00 -1.559627e+00 -1.565382e+00 -1.572790e+00 -1.546391e+00 -1.536798e+00 -1.518624e+00 -1.540465e+00 -1.543806e+00 -1.576818e+00 -1.562016e+00 -1.576730e+00 -1.570176e+00 -1.583399e+00 -1.545504e+00 -1.553884e+00 -1.552547e+00 -1.563437e+00 -1.570553e+00 -1.591979e+00 -1.557303e+00 -1.551513e+00 -1.534411e+00 -1.555720e+00 -1.511490e+00 -1.519202e+00 -1.522691e+00 -1.511885e+00 -1.497802e+00 -1.523245e+00 -1.508188e+00 -1.500810e+00 -1.466555e+00 -1.472706e+00 -1.419666e+00 -1.434610e+00 -1.432530e+00 -1.438839e+00 -1.412357e+00 -1.421305e+00 -1.405185e+00 -1.395534e+00 -1.368338e+00 -1.371169e+00 -1.366233e+00 -1.401732e+00 -1.399543e+00 -1.417630e+00 -1.379805e+00 -1.357214e+00 -1.307084e+00 -1.294166e+00 -1.252467e+00 -1.255172e+00 -1.236858e+00 -1.255500e+00 -1.238731e+00 -1.251487e+00 -1.226795e+00 -1.233109e+00 -1.205478e+00 -1.214278e+00 -1.193794e+00 -1.212685e+00 -1.202825e+00 -1.231153e+00 -1.227688e+00 -1.258109e+00 -1.253851e+00 -1.281003e+00 -1.271613e+00 -1.291694e+00 -1.275969e+00 -1.290547e+00 -1.270036e+00 -1.278105e+00 -1.257882e+00 -1.261020e+00 -1.239152e+00 -1.248531e+00 -1.218150e+00 -1.236903e+00 -1.205233e+00 -1.223573e+00 -1.198348e+00 -1.218736e+00 -1.201529e+00 
-1.043557e+00 -1.030032e+00 -1.050652e+00 -1.044030e+00 -1.065289e+00 -1.066936e+00 -1.087971e+00 -1.108105e+00 -1.115444e+00 -1.142143e+00 -1.148309e+00 -1.172726e+00 -1.185704e+00 -1.208774e+00 -1.234101e+00 -1.256695e+00 -1.281401e+00 -1.307017e+00 -1.330200e+00 -1.350183e+00 -1.370423e+00 -1.376889e+00 -1.381353e+00 -1.379371e+00 -1.369481e+00 -1.362674e+00 -1.351910e+00 -1.347667e+00 -1.357052e+00 -1.365914e+00 -1.397325e+00 -1.414133e+00 -1.450530e+00 -1.455044e+00 -1.473664e+00 -1.449547e+00 -1.430153e+00 -1.395363e+00 -1.426967e+00 -1.446222e+00 -1.473647e+00 -1.508203e+00 -1.609518e+00 -1.629051e+00 -1.620248e+00 -1.562261e+00 -1.506714e+00 -1.462399e+00 -1.483819e+00 -1.508459e+00 -1.588505e+00 -1.559867e+00 -1.550266e+00 -1.548163e+00 -1.558688e+00 -1.484159e+00 -1.496256e+00 -1.521915e+00 -1.528180e+00 -1.552401e+00 -1.586218e+00 -1.522155e+00 -1.492912e+00 -1.494114e+00 -1.541121e+00 -1.449597e+00 -1.461904e+00 -1.505214e+00 -1.458766e+00 -1.434159e+00 -1.485993e+00 -1.483169e+00 -1.460309e+00 -1.413027e+00 -1.419821e+00 -1.317994e+00 -1.336448e+00 -1.360478e+00 -1.362339e+00 -1.328150e+00 -1.358894e+00 -1.340761e+00 -1.280566e+00 -1.234859e+00 -1.233541e+00 -1.254306e+00 -1.333790e+00 -1.353494e+00 -1.388120e+00 -1.319338e+00 -1.241802e+00 -1.182004e+00 -1.174624e+00 -1.115082e+00 -1.113846e+00 -1.119022e+00 -1.161175e+00 -1.151627e+00 -1.161325e+00 -1.127049e+00 -1.118981e+00 -1.075148e+00 -1.070442e+00 -1.041430e+00 -1.056769e+00 -1.047772e+00 -1.079782e+00 -1.080415e+00 -1.112874e+00 -1.109497e+00 -1.135588e+00 -1.123046e+00 -1.137276e+00 -1.117010e+00 -1.129666e+00 -1.105110e+00 -1.112012e+00 -1.094562e+00 -1.096281e+00 -1.082444e+00 -1.093167e+00 -1.062592e+00 -1.083613e+00 -1.043800e+00 -1.058385e+00 -1.028798e+00 -1.045393e+00 -1.024561e+00 
-1.229639e+00 -1.219068e+00 -1.244286e+00 -1.238724e+00 -1.263979e+00 -1.261120e+00 -1.295949e+00 -1.336892e+00 -1.325204e+00 -1.366859e+00 -1.357521e+00 -1.394531e+00 -1.399017e+00 -1.434893e+00 -1.378064e+00 -1.383199e+00 -1.347736e+00 -1.358694e+00 -1.325654e+00 -1.338041e+00 -1.289996e+00 -1.317811e+00 -1.317230e+00 -1.330109e+00 -1.295668e+00 -1.287336e+00 -1.242460e+00 -1.233404e+00 -1.239012e+00 -1.266430e+00 -1.324392e+00 -1.386097e+00 -1.467731e+00 -1.508198e+00 -1.535444e+00 -1.480542e+00 -1.375805e+00 -1.263747e+00 -1.279439e+00 -1.322920e+00 -1.367010e+00 -1.504511e+00 -1.776933e+00 -1.864338e+00 -1.787281e+00 -1.592702e+00 -1.367132e+00 -1.277356e+00 -1.375931e+00 -1.542329e+00 -1.708276e+00 -1.585933e+00 -1.534070e+00 -1.700796e+00 -1.734545e+00 -1.405546e+00 -1.370460e+00 -1.500653e+00 -1.490149e+00 -1.706557e+00 -1.845902e+00 -1.558611e+00 -1.366820e+00 -1.548670e+00 -1.742897e+00 -1.386014e+00 -1.413198e+00 -1.692383e+00 -1.452111e+00 -1.350031e+00 -1.622718e+00 -1.704002e+00 -1.546428e+00 -1.501690e+00 -1.517267e+00 -1.164798e+00 -1.266985e+00 -1.578092e+00 -1.531322e+00 -1.352315e+00 -1.444106e+00 -1.513454e+00 -1.361861e+00 -1.200303e+00 -1.125158e+00 -1.220275e+00 -1.477579e+00 -1.635646e+00 -1.739758e+00 -1.585103e+00 -1.336338e+00 -1.199279e+00 -1.174380e+00 -1.092141e+00 -1.119414e+00 -1.214477e+00 -1.336025e+00 -1.358256e+00 -1.362402e+00 -1.300087e+00 -1.251518e+00 -1.167570e+00 -1.135219e+00 -1.095895e+00 -1.117224e+00 -1.125786e+00 -1.182429e+00 -1.205812e+00 -1.254986e+00 -1.261597e+00 -1.293130e+00 -1.279289e+00 -1.288142e+00 -1.262481e+00 -1.275385e+00 -1.245507e+00 -1.256048e+00 -1.250046e+00 -1.244818e+00 -1.253011e+00 -1.272665e+00 -1.242765e+00 -1.285744e+00 -1.232921e+00 -1.240470e+00 -1.207849e+00 -1.225429e+00 -1.206761e+00 
-1.034076e+00 -1.021415e+00 -1.045897e+00 -1.034123e+00 -1.059538e+00 -1.044037e+00 -1.102068e+00 -1.159449e+00 -1.137983e+00 -1.161324e+00 -1.166912e+00 -1.165731e+00 -1.199393e+00 -1.159431e+00 -9.552701e-01 -8.051785e-01 -6.639302e-01 -5.203809e-01 -3.841258e-01 -2.464488e-01 -8.138356e-02 -2.704080e-02 -4.704862e-02 -1.451404e-02 3.039765e-02 9.182803e-02 1.718560e-01 2.235872e-01 2.110904e-01 1.737671e-01 6.571478e-02 -6.592793e-02 -2.336503e-01 -3.268408e-01 -3.439149e-01 -2.036008e-01 2.161978e-02 2.865715e-01 4.116357e-01 3.827638e-01 1.391219e-01 -2.557232e-01 -7.050943e-01 -8.781085e-01 -7.143046e-01 -2.607254e-01 1.680325e-01 2.821412e-01 -3.039205e-02 -4.112768e-01 -5.140037e-01 -2.298373e-01 -2.620193e-01 -7.829504e-01 -8.734829e-01 2.039225e-02 2.755112e-01 5.289518e-02 6.757372e-02 -6.302033e-01 -1.071144e+00 -3.904698e-01 1.399585e-01 -2.730599e-01 -6.629050e-01 1.779455e-01 1.022079e-01 -6.571803e-01 -2.129206e-01 -8.736054e-02 -8.906952e-01 -1.130486e+00 -6.460288e-01 -6.057320e-01 -6.077251e-01 1.588473e-01 -1.849984e-01 -1.102772e+00 -9.511295e-01 -4.248227e-01 -4.845879e-01 -7.471564e-01 -6.708895e-01 -2.901512e-01 -5.422341e-02 -2.084409e-01 -7.152425e-01 -1.155821e+00 -1.348761e+00 -1.125398e+00 -7.096008e-01 -3.172174e-01 -1.380766e-01 -1.163209e-01 -3.109740e-01 -5.708655e-01 -8.337935e-01 -9.523746e-01 -9.844280e-01 -8.897925e-01 -7.814746e-01 -6.398655e-01 -5.711853e-01 -5.252613e-01 -5.693885e-01 -6.208288e-01 -7.272891e-01 -7.974978e-01 -8.828960e-01 -9.085809e-01 -9.435991e-01 -9.251237e-01 -9.273670e-01 -8.905962e-01 -8.878638e-01 -8.579476e-01 -8.816119e-01 -8.879773e-01 -9.012865e-01 -9.255972e-01 -9.904725e-01 -9.870509e-01 -1.075599e+00 -1.048589e+00 -1.044444e+00 -1.017993e+00 -1.030512e+00 -1.013406e+00 
-1.194041e+00 -1.194786e+00 -1.232218e+00 -1.231958e+00 -1.271370e+00 -1.270406e+00 -1.336203e+00 -1.372061e+00 -1.402996e+00 -1.397864e+00 -1.463486e+00 -1.432480e+00 -1.526740e+00 -1.451167e+00 -5.999466e-01 -1.369043e-01 4.165245e-01 1.015188e+00 1.532349e+00 2.056952e+00 2.815570e+00 2.888250e+00 2.827722e+00 2.870810e+00 2.859696e+00 2.914540e+00 2.934725e+00 2.971463e+00 2.935372e+00 2.900346e+00 2.804289e+00 2.694128e+00 2.557220e+00 2.478149e+00 2.470843e+00 2.570633e+00 2.692843e+00 2.867187e+00 3.013371e+00 3.006911e+00 2.696473e+00 2.341946e+00 2.093496e+00 1.969233e+00 2.031726e+00 2.327294e+00 2.525522e+00 2.538509e+00 2.246467e+00 1.982853e+00 2.029858e+00 2.183081e+00 2.017429e+00 1.595295e+00 1.487376e+00 2.128826e+00 2.349457e+00 2.186417e+00 2.134515e+00 1.546251e+00 1.105947e+00 1.527898e+00 1.908353e+00 1.643741e+00 1.373278e+00 1.950444e+00 1.837488e+00 1.222528e+00 1.418970e+00 1.411399e+00 7.296575e-01 5.538239e-01 9.468971e-01 9.686273e-01 9.791359e-01 1.460411e+00 1.142281e+00 4.318009e-01 5.246294e-01 9.193886e-01 9.526540e-01 7.325676e-01 5.937859e-01 8.414567e-01 9.893151e-01 9.094430e-01 5.766622e-01 2.235248e-01 8.382457e-02 1.562481e-01 3.180019e-01 6.485032e-01 8.254760e-01 7.448251e-01 4.914711e-01 2.755892e-01 5.045423e-02 -9.191049e-02 -1.805506e-01 -1.549880e-01 -1.238541e-01 -5.834471e-02 -5.256348e-02 -5.089962e-02 -1.236379e-01 -1.902814e-01 -3.032486e-01 -3.792594e-01 -4.778353e-01 -5.178839e-01 -5.713089e-01 -5.761222e-01 -6.122539e-01 -6.040525e-01 -6.244197e-01 -6.290391e-01 -6.863925e-01 -7.045230e-01 -7.754309e-01 -7.968531e-01 -9.022090e-01 -9.403863e-01 -1.042682e+00 -1.080759e+00 -1.112039e+00 -1.121663e+00 -1.155237e+00 -1.158473e+00 
-9.919420e-01 -9.944268e-01 -1.034402e+00 -1.036202e+00 -1.078601e+00 -1.082633e+00 -1.131112e+00 -1.133120e+00 -1.188535e+00 -1.174176e+00 -1.244453e+00 -1.216716e+00 -1.299492e+00 -1.252753e+00 -2.724437e-01 -1.340927e-01 7.821975e-01 9.493728e-01 1.875890e+00 2.002485e+00 3.018546e+00 3.025418e+00 2.979164e+00 2.993044e+00 2.957292e+00 2.974598e+00 2.944741e+00 2.951790e+00 2.911644e+00 2.897346e+00 2.845025e+00 2.812784e+00 2.757204e+00 2.738511e+00 2.722938e+00 2.747081e+00 2.736693e+00 2.763062e+00 2.788552e+00 2.782863e+00 2.631459e+00 2.521177e+00 2.475497e+00 2.443279e+00 2.399786e+00 2.429899e+00 2.386025e+00 2.353427e+00 2.250902e+00 2.203982e+00 2.226474e+00 2.198799e+00 2.068574e+00 1.972043e+00 1.900927e+00 1.956018e+00 1.959420e+00 1.843653e+00 1.788397e+00 1.702408e+00 1.568574e+00 1.588099e+00 1.580394e+00 1.505976e+00 1.382889e+00 1.499029e+00 1.413605e+00 1.267242e+00 1.279675e+00 1.282083e+00 1.160544e+00 1.139075e+00 1.170426e+00 1.183289e+00 1.158402e+00 1.197767e+00 1.084211e+00 9.591253e-01 9.345920e-01 9.885779e-01 1.007970e+00 9.692576e-01 8.374426e-01 8.584796e-01 8.361350e-01 8.262105e-01 7.525363e-01 6.690559e-01 6.160158e-01 5.874620e-01 5.332396e-01 6.175444e-01 6.499020e-01 5.921233e-01 4.654535e-01 3.999104e-01 3.020291e-01 2.335723e-01 1.499151e-01 1.251100e-01 7.957826e-02 7.144238e-02 2.590028e-02 7.798363e-03 -5.443039e-02 -8.898193e-02 -1.610645e-01 -1.983103e-01 -2.688482e-01 -2.962031e-01 -3.515240e-01 -3.666835e-01 -4.176103e-01 -4.271050e-01 -4.684204e-01 -4.828497e-01 -5.394074e-01 -5.512248e-01 -6.231594e-01 -6.321039e-01 -7.101321e-01 -7.383686e-01 -8.049803e-01 -8.392859e-01 -8.895272e-01 -9.041384e-01 -9.462571e-01 -9.523152e-01 
-1.161388e+00 -1.167558e+00 -1.216866e+00 -1.220955e+00 -1.272864e+00 -1.275851e+00 -1.332656e+00 -1.335093e+00 -1.394362e+00 -1.388453e+00 -1.455696e+00 -1.441034e+00 -1.515731e+00 -1.494166e+00 -4.160084e-01 -2.846167e-01 7.144960e-01 8.873140e-01 1.891143e+00 2.017634e+00 3.119752e+00 3.114589e+00 3.064683e+00 3.069134e+00 3.028490e+00 3.035386e+00 2.999109e+00 2.999061e+00 2.955820e+00 2.941206e+00 2.889644e+00 2.864326e+00 2.813350e+00 2.795676e+00 2.765003e+00 2.769503e+00 2.753625e+00 2.760301e+00 2.734867e+00 2.709120e+00 2.627512e+00 2.560739e+00 2.484939e+00 2.444832e+00 2.402061e+00 2.404059e+00 2.372486e+00 2.350279e+00 2.281161e+00 2.231720e+00 2.181645e+00 2.150708e+00 2.081948e+00 2.025751e+00 1.969677e+00 1.976260e+00 1.943574e+00 1.861250e+00 1.822229e+00 1.774863e+00 1.712550e+00 1.705358e+00 1.642060e+00 1.567678e+00 1.453285e+00 1.504000e+00 1.434905e+00 1.352864e+00 1.356091e+00 1.360398e+00 1.310882e+00 1.266358e+00 1.207676e+00 1.188990e+00 1.126347e+00 1.134384e+00 1.049971e+00 9.777621e-01 9.301957e-01 9.296165e-01 8.879586e-01 8.618989e-01 8.008274e-01 7.994848e-01 7.521589e-01 7.198278e-01 6.369748e-01 5.799805e-01 5.155731e-01 5.017198e-01 4.703880e-01 4.869549e-01 4.568854e-01 4.269983e-01 3.433061e-01 2.860025e-01 1.939079e-01 1.406509e-01 6.499871e-02 3.541272e-02 -2.025203e-02 -3.853133e-02 -9.291612e-02 -1.169421e-01 -1.816517e-01 -2.157033e-01 -2.877945e-01 -3.240196e-01 -3.944223e-01 -4.241365e-01 -4.864226e-01 -5.074398e-01 -5.638236e-01 -5.795074e-01 -6.332834e-01 -6.486487e-01 -7.077444e-01 -7.243634e-01 -7.891759e-01 -8.072087e-01 -8.764295e-01 -8.973658e-01 -9.632962e-01 -9.833778e-01 -1.038826e+00 -1.052861e+00 -1.103273e+00 -1.112670e+00 
-9.628626e-01 -9.689448e-01 -1.016165e+00 -1.019951e+00 -1.069024e+00 -1.070982e+00 -1.123648e+00 -1.123178e+00 -1.180518e+00 -1.176741e+00 -1.239181e+00 -1.234353e+00 -1.299879e+00 -1.299256e+00 -2.242336e-01 -1.872485e-01 8.616738e-01 9.097387e-01 1.966405e+00 1.995292e+00 3.093252e+00 3.077578e+00 3.030364e+00 3.024153e+00 2.980254e+00 2.977883e+00 2.936205e+00 2.932581e+00 2.890870e+00 2.883162e+00 2.841127e+00 2.830317e+00 2.789941e+00 2.780485e+00 2.745100e+00 2.739226e+00 2.704676e+00 2.696216e+00 2.658067e+00 2.639941e+00 2.583877e+00 2.553226e+00 2.501033e+00 2.475501e+00 2.424597e+00 2.404959e+00 2.353016e+00 2.327699e+00 2.272429e+00 2.243392e+00 2.195861e+00 2.167294e+00 2.110986e+00 2.082591e+00 2.034433e+00 2.022878e+00 1.988201e+00 1.980035e+00 1.929996e+00 1.874565e+00 1.816141e+00 1.789331e+00 1.730122e+00 1.719763e+00 1.665712e+00 1.636138e+00 1.576528e+00 1.548442e+00 1.476179e+00 1.430426e+00 1.365732e+00 1.332194e+00 1.275269e+00 1.250960e+00 1.194009e+00 1.173746e+00 1.112020e+00 1.082579e+00 1.029772e+00 1.013848e+00 9.647786e-01 9.463516e-01 8.859311e-01 8.704956e-01 8.155715e-01 7.951421e-01 7.378492e-01 7.101134e-01 6.545008e-01 6.324884e-01 5.785428e-01 5.645233e-01 5.133440e-01 4.852080e-01 4.176358e-01 3.821915e-01 3.113933e-01 2.745566e-01 2.057651e-01 1.742291e-01 1.107047e-01 8.315298e-02 2.133325e-02 -5.899125e-03 -6.892986e-02 -9.720175e-02 -1.610463e-01 -1.884890e-01 -2.509977e-01 -2.751491e-01 -3.342778e-01 -3.542058e-01 -4.106762e-01 -4.272863e-01 -4.822235e-01 -4.971552e-01 -5.540327e-01 -5.677477e-01 -6.272594e-01 -6.411004e-01 -7.011786e-01 -7.174907e-01 -7.747219e-01 -7.914515e-01 -8.441868e-01 -8.573226e-01 -9.064145e-01 -9.156493e-01 
-1.139360e+00 -1.146368e+00 -1.199521e+00 -1.204051e+00 -1.259313e+00 -1.261864e+00 -1.320737e+00 -1.321416e+00 -1.384408e+00 -1.382000e+00 -1.449341e+00 -1.444866e+00 -1.514564e+00 -1.512641e+00 -3.787521e-01 -3.199001e-01 7.741513e-01 8.534022e-01 1.954160e+00 2.006312e+00 3.161578e+00 3.148063e+00 3.096418e+00 3.089958e+00 3.042152e+00 3.037690e+00 2.992683e+00 2.986449e+00 2.942342e+00 2.932522e+00 2.889025e+00 2.876256e+00 2.834217e+00 2.820817e+00 2.781301e+00 2.768061e+00 2.728534e+00 2.711735e+00 2.667325e+00 2.642786e+00 2.590286e+00 2.559480e+00 2.506055e+00 2.477135e+00 2.426999e+00 2.401450e+00 2.351772e+00 2.322785e+00 2.269387e+00 2.236071e+00 2.183385e+00 2.150256e+00 2.098145e+00 2.065136e+00 2.017680e+00 1.990595e+00 1.949953e+00 1.921813e+00 1.884169e+00 1.856843e+00 1.825329e+00 1.808488e+00 1.736051e+00 1.718871e+00 1.658747e+00 1.622385e+00 1.562131e+00 1.536458e+00 1.473297e+00 1.436534e+00 1.385141e+00 1.342945e+00 1.267497e+00 1.234148e+00 1.163838e+00 1.136490e+00 1.069043e+00 1.038561e+00 9.774226e-01 9.533243e-01 8.955729e-01 8.722281e-01 8.141321e-01 7.920596e-01 7.339566e-01 7.079179e-01 6.465757e-01 6.176890e-01 5.581034e-01 5.335280e-01 4.778632e-01 4.562574e-01 3.996563e-01 3.722769e-01 3.078760e-01 2.740889e-01 2.049386e-01 1.690126e-01 9.979002e-02 6.585712e-02 -1.197604e-03 -3.290915e-02 -9.903739e-02 -1.302499e-01 -1.970335e-01 -2.284830e-01 -2.957221e-01 -3.261860e-01 -3.922788e-01 -4.198194e-01 -4.831739e-01 -5.066286e-01 -5.670491e-01 -5.864804e-01 -6.447308e-01 -6.610827e-01 -7.191048e-01 -7.334932e-01 -7.923014e-01 -8.060859e-01 -8.657321e-01 -8.802173e-01 -9.391184e-01 -9.538596e-01 -1.010095e+00 -1.022871e+00 -1.076737e+00 -1.086637e+00 
-9.463713e-01 -9.526275e-01 -9.997228e-01 -1.003628e+00 -1.052428e+00 -1.054718e+00 -1.107235e+00 -1.107792e+00 -1.165357e+00 -1.163154e+00 -1.225862e+00 -1.222970e+00 -1.288389e+00 -1.289516e+00 -2.170723e-01 -1.803211e-01 8.658538e-01 9.158393e-01 1.968463e+00 2.001168e+00 3.092095e+00 3.081732e+00 3.030325e+00 3.026544e+00 2.978942e+00 2.977277e+00 2.932806e+00 2.929837e+00 2.887724e+00 2.882683e+00 2.843001e+00 2.835791e+00 2.797296e+00 2.788169e+00 2.749595e+00 2.738369e+00 2.697392e+00 2.682431e+00 2.637902e+00 2.618759e+00 2.570893e+00 2.549310e+00 2.500925e+00 2.478972e+00 2.429976e+00 2.406885e+00 2.356025e+00 2.330143e+00 2.277855e+00 2.249943e+00 2.198460e+00 2.170199e+00 2.120085e+00 2.093115e+00 2.046617e+00 2.022298e+00 1.979484e+00 1.956809e+00 1.917084e+00 1.895930e+00 1.861714e+00 1.843680e+00 1.775103e+00 1.754717e+00 1.696488e+00 1.666144e+00 1.609103e+00 1.588077e+00 1.527804e+00 1.500127e+00 1.454224e+00 1.414284e+00 1.334828e+00 1.302391e+00 1.232405e+00 1.205465e+00 1.140856e+00 1.116127e+00 1.055804e+00 1.034151e+00 9.770088e-01 9.568716e-01 9.004234e-01 8.804893e-01 8.244628e-01 8.027783e-01 7.456603e-01 7.215305e-01 6.634038e-01 6.388626e-01 5.807927e-01 5.568920e-01 4.988198e-01 4.730948e-01 4.119534e-01 3.829447e-01 3.182965e-01 2.863060e-01 2.193396e-01 1.863404e-01 1.190745e-01 8.676764e-02 2.033341e-02 -1.059414e-02 -7.601592e-02 -1.054832e-01 -1.696884e-01 -1.971768e-01 -2.598337e-01 -2.845103e-01 -3.445595e-01 -3.656339e-01 -4.231477e-01 -4.403147e-01 -4.949804e-01 -5.085676e-01 -5.629890e-01 -5.732336e-01 -6.285917e-01 -6.379546e-01 -6.937405e-01 -7.063515e-01 -7.608349e-01 -7.760400e-01 -8.278409e-01 -8.407201e-01 -8.897100e-01 -8.991184e-01 
-1.127196e+00 -1.133375e+00 -1.183666e+00 -1.186651e+00 -1.239268e+00 -1.240957e+00 -1.299861e+00 -1.303641e+00 -1.369444e+00 -1.366481e+00 -1.441901e+00 -1.429234e+00 -1.510331e+00 -1.487002e+00 -4.098617e-01 -2.774277e-01 7.253849e-01 9.010584e-01 1.907542e+00 2.039628e+00 3.136461e+00 3.141389e+00 3.084423e+00 3.087368e+00 3.036588e+00 3.035857e+00 2.989734e+00 2.984577e+00 2.940766e+00 2.933189e+00 2.894363e+00 2.884877e+00 2.847518e+00 2.835220e+00 2.797000e+00 2.780901e+00 2.737209e+00 2.713663e+00 2.663105e+00 2.633881e+00 2.581826e+00 2.554379e+00 2.506473e+00 2.482788e+00 2.436606e+00 2.410754e+00 2.359692e+00 2.327487e+00 2.272075e+00 2.236814e+00 2.182065e+00 2.147007e+00 2.095220e+00 2.062164e+00 2.014681e+00 1.981865e+00 1.934078e+00 1.899911e+00 1.857921e+00 1.834109e+00 1.792171e+00 1.767276e+00 1.700948e+00 1.671594e+00 1.607303e+00 1.581517e+00 1.522605e+00 1.495522e+00 1.442920e+00 1.419287e+00 1.372959e+00 1.337512e+00 1.265035e+00 1.234781e+00 1.165813e+00 1.139653e+00 1.075377e+00 1.048568e+00 9.855556e-01 9.604623e-01 9.015470e-01 8.788427e-01 8.223724e-01 8.005254e-01 7.445723e-01 7.203529e-01 6.605385e-01 6.311250e-01 5.677062e-01 5.377766e-01 4.772048e-01 4.523966e-01 3.967176e-01 3.743828e-01 3.170721e-01 2.897272e-01 2.248140e-01 1.896918e-01 1.179382e-01 7.874528e-02 5.265735e-03 -3.298924e-02 -1.045340e-01 -1.399888e-01 -2.096456e-01 -2.433839e-01 -3.121775e-01 -3.446308e-01 -4.127819e-01 -4.427987e-01 -5.080039e-01 -5.336466e-01 -5.950481e-01 -6.144507e-01 -6.694080e-01 -6.822839e-01 -7.351747e-01 -7.418941e-01 -7.944917e-01 -7.988095e-01 -8.552169e-01 -8.650316e-01 -9.246015e-01 -9.429022e-01 -9.987354e-01 -1.013888e+00 -1.066295e+00 -1.076765e+00 
-9.431255e-01 -9.463526e-01 -9.858836e-01 -9.869717e-01 -1.027465e+00 -1.030563e+00 -1.077603e+00 -1.083285e+00 -1.140691e+00 -1.131787e+00 -1.204545e+00 -1.184818e+00 -1.268817e+00 -1.232237e+00 -2.563482e-01 -1.212550e-01 7.913009e-01 9.652660e-01 1.886430e+00 2.026105e+00 3.022910e+00 3.048240e+00 2.988612e+00 3.005166e+00 2.956604e+00 2.969334e+00 2.925184e+00 2.925946e+00 2.883144e+00 2.881156e+00 2.848806e+00 2.844185e+00 2.812634e+00 2.804567e+00 2.772104e+00 2.762061e+00 2.719250e+00 2.699581e+00 2.647815e+00 2.620683e+00 2.569742e+00 2.548956e+00 2.504747e+00 2.489433e+00 2.447357e+00 2.427427e+00 2.375905e+00 2.346418e+00 2.288179e+00 2.254662e+00 2.196968e+00 2.162451e+00 2.109542e+00 2.078553e+00 2.033429e+00 2.000428e+00 1.951270e+00 1.911161e+00 1.872025e+00 1.856438e+00 1.806275e+00 1.782980e+00 1.722605e+00 1.694435e+00 1.624148e+00 1.605753e+00 1.543920e+00 1.515871e+00 1.469805e+00 1.449059e+00 1.396273e+00 1.373209e+00 1.317396e+00 1.294032e+00 1.227291e+00 1.206814e+00 1.143677e+00 1.120206e+00 1.056789e+00 1.035652e+00 9.803889e-01 9.637945e-01 9.124076e-01 8.957940e-01 8.447177e-01 8.245586e-01 7.672844e-01 7.386237e-01 6.737217e-01 6.424452e-01 5.804881e-01 5.565669e-01 5.038698e-01 4.863931e-01 4.334334e-01 4.096529e-01 3.463995e-01 3.113620e-01 2.381460e-01 1.968802e-01 1.213477e-01 8.153783e-02 9.766267e-03 -2.518017e-02 -9.380936e-02 -1.265465e-01 -1.924390e-01 -2.233049e-01 -2.903483e-01 -3.187116e-01 -3.793918e-01 -4.028336e-01 -4.626412e-01 -4.790550e-01 -5.230355e-01 -5.343289e-01 -5.815699e-01 -5.785026e-01 -6.317420e-01 -6.201138e-01 -6.785316e-01 -6.900668e-01 -7.473590e-01 -7.807253e-01 -8.320886e-01 -8.492807e-01 -8.938551e-01 -9.021535e-01 
-1.132833e+00 -1.133791e+00 -1.171374e+00 -1.165231e+00 -1.199388e+00 -1.184411e+00 -1.241775e+00 -1.284428e+00 -1.340770e+00 -1.353348e+00 -1.450240e+00 -1.435240e+00 -1.565193e+00 -1.497046e+00 -6.067521e-01 -1.506312e-01 4.337156e-01 1.034039e+00 1.583557e+00 2.112512e+00 2.917356e+00 2.990737e+00 2.927594e+00 2.946029e+00 2.899091e+00 2.901601e+00 2.865362e+00 2.854186e+00 2.801732e+00 2.794497e+00 2.773906e+00 2.772308e+00 2.749268e+00 2.743442e+00 2.724406e+00 2.720070e+00 2.678956e+00 2.641656e+00 2.563943e+00 2.500977e+00 2.426404e+00 2.394073e+00 2.362072e+00 2.368238e+00 2.353224e+00 2.345159e+00 2.292055e+00 2.244476e+00 2.168298e+00 2.119309e+00 2.055361e+00 2.013591e+00 1.958421e+00 1.933962e+00 1.905277e+00 1.874605e+00 1.813931e+00 1.791131e+00 1.757913e+00 1.688761e+00 1.504105e+00 1.457046e+00 1.518045e+00 1.524953e+00 1.454110e+00 1.443650e+00 1.376468e+00 1.333140e+00 1.289153e+00 1.197952e+00 1.020001e+00 1.055882e+00 1.137630e+00 1.125155e+00 1.054588e+00 1.049896e+00 1.005082e+00 9.739490e-01 8.998041e-01 8.720728e-01 8.192182e-01 8.034207e-01 7.568364e-01 7.493717e-01 7.143824e-01 7.048095e-01 6.466539e-01 5.993171e-01 5.078221e-01 4.517932e-01 3.805397e-01 3.657585e-01 3.392665e-01 3.538637e-01 3.296015e-01 3.218381e-01 2.600336e-01 2.127561e-01 1.198860e-01 5.727082e-02 -3.534342e-02 -8.564468e-02 -1.607867e-01 -1.946839e-01 -2.612347e-01 -2.939505e-01 -3.629901e-01 -4.011191e-01 -4.784488e-01 -5.178440e-01 -5.891220e-01 -6.238229e-01 -6.934405e-01 -7.136172e-01 -7.503813e-01 -7.548376e-01 -7.944486e-01 -7.786343e-01 -8.036457e-01 -7.720652e-01 -8.235351e-01 -8.124257e-01 -9.008791e-01 -9.612229e-01 -1.013825e+00 -1.037455e+00 -1.082579e+00 -1.092042e+00 
-9.660814e-01 -9.545564e-01 -9.769678e-01 -9.587258e-01 -9.736887e-01 -9.411409e-01 -9.822760e-01 -1.054400e+00 -1.067447e+00 -1.128094e+00 -1.169639e+00 -1.199064e+00 -1.255086e+00 -1.225253e+00 -1.023788e+00 -8.679399e-01 -7.124664e-01 -5.508231e-01 -3.852746e-01 -2.201583e-01 -1.518190e-02 6.009014e-02 5.211811e-02 5.984046e-02 5.092810e-02 3.516275e-02 3.415960e-02 2.448673e-02 -7.740581e-03 -3.771747e-03 -7.387019e-03 1.302642e-02 3.234021e-03 2.157122e-02 1.575079e-02 3.195661e-02 4.694981e-03 -2.409155e-02 -1.027337e-01 -1.638720e-01 -2.405217e-01 -2.610578e-01 -2.727582e-01 -2.323738e-01 -2.147059e-01 -1.872559e-01 -2.150468e-01 -2.389077e-01 -2.950751e-01 -3.153602e-01 -3.509366e-01 -3.542512e-01 -3.815737e-01 -3.629495e-01 -3.612494e-01 -3.522686e-01 -3.952851e-01 -3.687469e-01 -3.666553e-01 -4.158774e-01 -6.109935e-01 -6.240531e-01 -4.862981e-01 -4.280151e-01 -4.623968e-01 -4.354162e-01 -4.665051e-01 -4.776678e-01 -4.862409e-01 -5.703629e-01 -7.593172e-01 -6.762906e-01 -5.222421e-01 -5.045842e-01 -5.498603e-01 -5.184016e-01 -5.184601e-01 -5.237734e-01 -5.683263e-01 -5.722662e-01 -5.966433e-01 -5.881134e-01 -6.064031e-01 -5.805017e-01 -5.786964e-01 -5.503363e-01 -5.775055e-01 -5.980499e-01 -6.653568e-01 -6.920552e-01 -7.244625e-01 -6.889660e-01 -6.590524e-01 -5.848687e-01 -5.521844e-01 -5.088664e-01 -5.279561e-01 -5.390391e-01 -6.000289e-01 -6.317955e-01 -6.922643e-01 -7.081682e-01 -7.473491e-01 -7.454006e-01 -7.759865e-01 -7.764731e-01 -8.187898e-01 -8.334249e-01 -8.858859e-01 -9.066049e-01 -9.616347e-01 -9.796756e-01 -1.023619e+00 -1.022716e+00 -1.041073e+00 -1.012085e+00 -1.014642e+00 -9.796461e-01 -9.355308e-01 -8.929667e-01 -8.882742e-01 -8.211017e-01 -8.938900e-01 -9.009911e-01 -9.272222e-01 -9.209028e-01 -9.482148e-01 -9.400456e-01 
-1.185761e+00 -1.175934e+00 -1.201807e+00 -1.193734e+00 -1.216873e+00 -1.208461e+00 -1.240878e+00 -1.291732e+00 -1.303987e+00 -1.369704e+00 -1.385824e+00 -1.442185e+00 -1.459578e+00 -1.501606e+00 -1.434728e+00 -1.436004e+00 -1.382931e+00 -1.388022e+00 -1.334676e+00 -1.335895e+00 -1.261743e+00 -1.277735e+00 -1.267552e+00 -1.295343e+00 -1.289871e+00 -1.324611e+00 -1.317600e+00 -1.335374e+00 -1.345308e+00 -1.351825e+00 -1.360416e+00 -1.354617e+00 -1.368026e+00 -1.360121e+00 -1.374803e+00 -1.371117e+00 -1.393238e+00 -1.410132e+00 -1.457629e+00 -1.488763e+00 -1.538679e+00 -1.553802e+00 -1.572982e+00 -1.555493e+00 -1.554967e+00 -1.535245e+00 -1.547882e+00 -1.548130e+00 -1.574292e+00 -1.573240e+00 -1.591187e+00 -1.578309e+00 -1.592460e+00 -1.571178e+00 -1.577092e+00 -1.558708e+00 -1.581953e+00 -1.560744e+00 -1.561420e+00 -1.559766e+00 -1.620343e+00 -1.602571e+00 -1.558541e+00 -1.520166e+00 -1.530417e+00 -1.500580e+00 -1.508431e+00 -1.496318e+00 -1.496423e+00 -1.507146e+00 -1.567426e+00 -1.525667e+00 -1.478802e+00 -1.454037e+00 -1.469637e+00 -1.437070e+00 -1.433172e+00 -1.419158e+00 -1.433568e+00 -1.420531e+00 -1.431502e+00 -1.415647e+00 -1.423610e+00 -1.397450e+00 -1.397571e+00 -1.370623e+00 -1.384592e+00 -1.375666e+00 -1.400787e+00 -1.386486e+00 -1.388673e+00 -1.342501e+00 -1.317755e+00 -1.256785e+00 -1.233670e+00 -1.189326e+00 -1.192344e+00 -1.174447e+00 -1.198032e+00 -1.191031e+00 -1.216518e+00 -1.204856e+00 -1.224391e+00 -1.208834e+00 -1.227908e+00 -1.216542e+00 -1.245926e+00 -1.244366e+00 -1.277482e+00 -1.279711e+00 -1.317685e+00 -1.317560e+00 -1.342596e+00 -1.330614e+00 -1.350893e+00 -1.319446e+00 -1.318735e+00 -1.292033e+00 -1.258840e+00 -1.234380e+00 -1.220978e+00 -1.161198e+00 -1.194875e+00 -1.153454e+00 -1.172725e+00 -1.148603e+00 -1.173514e+00 -1.159166e+00 
-1.017338e+00 -1.004551e+00 -1.025259e+00 -1.018322e+00 -1.038911e+00 -1.040569e+00 -1.062286e+00 -1.087242e+00 -1.102614e+00 -1.139007e+00 -1.154692e+00 -1.187200e+00 -1.205947e+00 -1.231743e+00 -1.256795e+00 -1.277279e+00 -1.297816e+00 -1.319478e+00 -1.336323e+00 -1.351101e+00 -1.363925e+00 -1.367410e+00 -1.370335e+00 -1.374387e+00 -1.375138e+00 -1.382400e+00 -1.383230e+00 -1.385347e+00 -1.393567e+00 -1.392814e+00 -1.406969e+00 -1.402153e+00 -1.419147e+00 -1.411519e+00 -1.429218e+00 -1.422335e+00 -1.441907e+00 -1.442507e+00 -1.475034e+00 -1.485113e+00 -1.520604e+00 -1.527252e+00 -1.556375e+00 -1.548300e+00 -1.559273e+00 -1.540124e+00 -1.547282e+00 -1.532588e+00 -1.550500e+00 -1.540901e+00 -1.562765e+00 -1.545726e+00 -1.559271e+00 -1.539322e+00 -1.551537e+00 -1.528348e+00 -1.544217e+00 -1.530392e+00 -1.542433e+00 -1.527902e+00 -1.543770e+00 -1.518743e+00 -1.519052e+00 -1.492942e+00 -1.501149e+00 -1.470823e+00 -1.477578e+00 -1.463106e+00 -1.466265e+00 -1.449796e+00 -1.463637e+00 -1.438651e+00 -1.436118e+00 -1.404318e+00 -1.407421e+00 -1.371262e+00 -1.374067e+00 -1.352383e+00 -1.358834e+00 -1.337470e+00 -1.344896e+00 -1.323630e+00 -1.323671e+00 -1.298913e+00 -1.303578e+00 -1.284280e+00 -1.300294e+00 -1.282986e+00 -1.294910e+00 -1.264513e+00 -1.257144e+00 -1.213965e+00 -1.201563e+00 -1.155144e+00 -1.146847e+00 -1.112830e+00 -1.118725e+00 -1.095374e+00 -1.108412e+00 -1.088836e+00 -1.103042e+00 -1.083254e+00 -1.097977e+00 -1.080450e+00 -1.098948e+00 -1.086715e+00 -1.111962e+00 -1.105425e+00 -1.132642e+00 -1.127262e+00 -1.154617e+00 -1.145713e+00 -1.164413e+00 -1.147796e+00 -1.161850e+00 -1.135459e+00 -1.136916e+00 -1.110513e+00 -1.100662e+00 -1.073738e+00 -1.071951e+00 -1.030887e+00 -1.046615e+00 -1.007133e+00 -1.023471e+00 -9.965840e-01 -1.015681e+00 -9.969123e-01 
