# vtk DataFile Version 2.0
Comment goes here
ASCII

DATASET STRUCTURED_POINTS
FIELD FieldData 1
TIME 1 1 double
0.13000000
DIMENSIONS    128   16   1

ORIGIN    0.000   0.000   0.000
SPACING   0.0078125 0.015625   1.000

POINT_DATA   2048
SCALARS uMag double
LOOKUP_TABLE default

5.194864e-03 3.278655e-03 3.932237e-03 1.636435e-03 2.519177e-03 1.674289e-03 8.566403e-03 1.128318e-03 4.410349e-03 4.881834e-03 3.464251e-03 1.407686e-02 2.034742e-02 3.520446e-02 4.264080e-02 4.647121e-02 4.840524e-02 4.861124e-02 4.603689e-02 4.190032e-02 3.546820e-02 1.989546e-02 1.324573e-02 5.027317e-03 3.010243e-03 1.089779e-03 9.259315e-04 3.454804e-03 2.551949e-03 4.829436e-03 3.578414e-03 5.459226e-03 3.669749e-03 5.291745e-03 3.673490e-03 5.405439e-03 3.892462e-03 5.282388e-03 3.750541e-03 5.045614e-03 3.991093e-03 5.003553e-03 4.011580e-03 4.507433e-03 3.802940e-03 4.246780e-03 4.173389e-03 4.151170e-03 4.039131e-03 3.692888e-03 4.011467e-03 3.550505e-03 3.931786e-03 3.283787e-03 3.565813e-03 2.813833e-03 2.845048e-03 1.916048e-03 2.613580e-03 6.711377e-04 1.269185e-03 3.423321e-03 5.482385e-03 4.858959e-03 3.641644e-03 2.605762e-03 2.640347e-03 4.701408e-03 7.447520e-03 9.546583e-03 7.674697e-03 5.091551e-03 3.670551e-03 5.145859e-03 4.265284e-03 5.203799e-03 3.800184e-03 4.696576e-03 3.380952e-03 4.288768e-03 3.092741e-03 3.977549e-03 3.163463e-03 3.782107e-03 3.327441e-03 3.535838e-03 3.503018e-03 3.187407e-03 3.655275e-03 2.881996e-03 3.810782e-03 2.551287e-03 4.061404e-03 2.435996e-03 4.213910e-03 2.343623e-03 4.512334e-03 2.476101e-03 4.154344e-03 2.184016e-03 3.874512e-03 2.500271e-03 3.463808e-03 2.934180e-03 3.247490e-03 3.312968e-03 2.512614e-03 3.874304e-03 1.801754e-03 4.152921e-03 1.220755e-03 5.085320e-03 9.674593e-04 5.421410e-03 8.374424e-04 5.370760e-03 7.086466e-04 5.362536e-03 1.703812e-03 5.179968e-03 3.490410e-03 4.686729e-03 6.903411e-03 9.083283e-05 4.398810e-03 1.818997e-03 5.126791e-03 3.374792e-03 
1.308160e-03 1.273088e-03 1.658532e-03 2.417843e-03 3.481570e-03 6.502081e-03 7.022751e-03 5.165564e-03 5.627030e-03 8.263433e-03 9.346062e-03 1.701699e-02 2.129470e-02 2.235197e-02 1.136906e-02 6.195773e-03 2.968622e-03 4.189555e-03 6.814906e-03 1.086379e-02 2.190901e-02 2.206577e-02 1.491324e-02 1.045813e-02 6.314565e-03 3.905315e-03 2.118084e-03 1.268687e-03 1.596578e-03 1.433290e-03 9.554868e-04 1.407849e-03 5.472527e-04 7.881207e-04 7.409353e-04 1.241254e-03 1.477411e-04 1.068192e-03 8.467604e-04 5.023637e-04 4.337503e-04 8.334512e-04 4.699941e-04 5.918944e-04 6.794570e-04 4.578695e-04 3.191041e-04 6.271819e-04 1.187866e-03 8.358869e-04 1.032072e-03 1.101732e-03 2.056391e-03 2.265153e-03 2.439595e-03 1.895573e-03 3.028674e-03 3.747328e-03 5.115988e-03 3.659466e-03 4.721575e-03 1.089168e-02 7.362487e-03 1.700907e-03 4.634301e-03 1.127431e-03 6.029911e-03 1.065453e-02 1.136295e-02 3.707800e-03 7.885691e-03 8.538393e-03 5.034502e-03 3.788173e-03 4.052651e-03 2.772913e-03 3.173768e-03 1.554154e-03 2.069985e-03 1.013743e-03 1.862406e-03 8.446691e-04 1.573532e-03 8.633023e-04 1.186628e-03 9.464446e-04 9.169348e-04 1.282838e-03 7.862022e-04 1.602955e-03 5.672182e-04 1.861967e-03 5.767987e-05 1.693063e-03 3.678446e-04 2.122495e-03 4.366051e-04 1.796524e-03 4.281587e-04 2.267514e-03 5.168636e-04 1.790916e-03 8.933326e-04 1.479223e-03 8.694101e-04 1.432645e-03 1.868073e-03 6.360722e-04 2.284933e-03 7.519956e-04 3.138537e-03 1.231812e-03 3.242864e-03 1.115364e-03 3.305104e-03 1.202131e-03 3.581027e-03 1.864092e-03 2.374633e-03 2.207258e-03 8.667583e-04 3.458442e-03 5.111441e-03 7.500336e-03 1.775936e-03 2.343985e-03 1.951074e-03 2.046132e-04 
8.093719e-03 7.129979e-03 5.543411e-03 6.525686e-03 8.660179e-03 2.463435e-02 5.534714e-03 1.237147e-02 4.509896e-03 8.812089e-03 1.473827e-03 6.253068e-03 7.749822e-03 1.428838e-02 1.723473e-02 1.815306e-02 1.803828e-02 1.923411e-02 1.698658e-02 1.678199e-02 1.484450e-02 5.612362e-03 2.016155e-03 4.262728e-03 5.614612e-03 7.021402e-03 8.385715e-03 8.650538e-03 9.807654e-03 9.361108e-03 1.049741e-02 9.466909e-03 1.098656e-02 9.504840e-03 1.100386e-02 9.368036e-03 1.093342e-02 9.544250e-03 1.124943e-02 9.788834e-03 1.132429e-02 9.923912e-03 1.089194e-02 9.983800e-03 1.101040e-02 1.059078e-02 1.097272e-02 1.047741e-02 1.043851e-02 9.931222e-03 9.650203e-03 9.747674e-03 9.300183e-03 9.396899e-03 8.269939e-03 8.091625e-03 6.993915e-03 6.695155e-03 5.787611e-03 5.712721e-03 4.671145e-03 1.027569e-02 1.128333e-02 1.244354e-02 9.677459e-03 8.504990e-03 8.916728e-03 1.246773e-02 1.728458e-02 1.877074e-02 1.836509e-02 1.315963e-02 1.278596e-02 1.227329e-02 1.357265e-02 1.193683e-02 1.279348e-02 1.096704e-02 1.204029e-02 1.074118e-02 1.215134e-02 1.105328e-02 1.231176e-02 1.128319e-02 1.189347e-02 1.145294e-02 1.161740e-02 1.179624e-02 1.169001e-02 1.252953e-02 1.161599e-02 1.261200e-02 1.093546e-02 1.239272e-02 1.051848e-02 1.269566e-02 1.072286e-02 1.297664e-02 1.052820e-02 1.263669e-02 1.050776e-02 1.259985e-02 1.108253e-02 1.255937e-02 1.145775e-02 1.211147e-02 1.193041e-02 1.163689e-02 1.274164e-02 1.131587e-02 1.357507e-02 1.032705e-02 1.341641e-02 9.964605e-03 1.426837e-02 1.035780e-02 1.468643e-02 1.064730e-02 1.435654e-02 1.119823e-02 1.438969e-02 1.412928e-02 2.050351e-02 1.738622e-02 1.005482e-02 3.545643e-03 7.657150e-03 6.965461e-03 
8.970114e-03 1.201934e-02 1.679982e-02 2.690529e-02 2.842419e-02 2.420395e-02 2.538763e-02 1.929653e-02 2.448897e-02 1.942432e-02 2.340006e-02 1.986250e-02 2.189178e-02 2.236150e-02 2.470746e-02 2.514070e-02 2.512893e-02 2.615161e-02 2.408225e-02 2.561345e-02 2.119604e-02 2.184092e-02 1.919977e-02 2.189225e-02 2.050656e-02 2.253008e-02 2.033482e-02 2.117758e-02 1.967715e-02 2.148319e-02 2.130869e-02 2.240704e-02 2.134264e-02 2.096413e-02 2.105244e-02 2.135736e-02 2.208471e-02 2.126153e-02 2.117608e-02 2.045620e-02 2.189073e-02 2.153848e-02 2.226862e-02 2.082253e-02 2.112373e-02 2.088510e-02 2.255177e-02 2.171638e-02 2.147185e-02 2.018615e-02 2.094578e-02 2.087674e-02 2.171402e-02 2.116599e-02 2.087701e-02 2.081056e-02 2.127742e-02 2.157357e-02 2.189386e-02 2.177174e-02 2.148176e-02 2.305121e-02 2.206132e-02 2.141553e-02 2.229693e-02 2.265128e-02 2.172576e-02 2.134022e-02 2.114921e-02 2.101766e-02 2.195968e-02 2.098068e-02 2.097405e-02 2.049048e-02 2.165925e-02 2.101182e-02 2.147307e-02 2.093197e-02 2.184068e-02 2.134299e-02 2.194492e-02 2.147960e-02 2.225176e-02 2.166038e-02 2.218692e-02 2.189550e-02 2.225530e-02 2.188904e-02 2.228024e-02 2.244763e-02 2.235932e-02 2.238564e-02 2.235492e-02 2.255689e-02 2.167002e-02 2.207208e-02 2.230332e-02 2.313973e-02 2.118603e-02 2.172160e-02 2.119079e-02 2.272605e-02 2.074387e-02 2.274813e-02 2.170070e-02 2.242256e-02 2.081978e-02 2.293061e-02 2.141193e-02 2.229749e-02 2.129395e-02 2.342683e-02 2.095037e-02 2.245532e-02 2.192519e-02 2.267750e-02 2.157411e-02 2.291042e-02 2.269595e-02 2.251045e-02 2.416586e-02 2.270285e-02 2.919307e-02 2.319861e-02 3.814685e-02 1.944825e-02 1.383470e-02 9.167005e-03 
3.504990e-02 3.716801e-02 4.189057e-02 4.932014e-02 6.160285e-02 4.631598e-02 2.841494e-02 3.846282e-02 2.758102e-02 3.451271e-02 2.644873e-02 2.981670e-02 2.237696e-02 2.516737e-02 2.497643e-02 2.539281e-02 2.578905e-02 2.541482e-02 2.565271e-02 2.526910e-02 2.463854e-02 2.487240e-02 2.834155e-02 2.884578e-02 3.080902e-02 3.073734e-02 3.283765e-02 3.256044e-02 3.422148e-02 3.290025e-02 3.377684e-02 3.250138e-02 3.420876e-02 3.330898e-02 3.428203e-02 3.283938e-02 3.358999e-02 3.308417e-02 3.437358e-02 3.384550e-02 3.408597e-02 3.331468e-02 3.332306e-02 3.366570e-02 3.414981e-02 3.426896e-02 3.334755e-02 3.377373e-02 3.331708e-02 3.402830e-02 3.299436e-02 3.362144e-02 3.244428e-02 3.335434e-02 3.221971e-02 3.256171e-02 3.056077e-02 3.122120e-02 3.250859e-02 3.244769e-02 3.004540e-02 3.372087e-02 3.510307e-02 3.509040e-02 3.436520e-02 3.361869e-02 3.244810e-02 3.402168e-02 3.620548e-02 3.642793e-02 3.563807e-02 3.465784e-02 3.446218e-02 3.392099e-02 3.445490e-02 3.384320e-02 3.449873e-02 3.356943e-02 3.403405e-02 3.358168e-02 3.443250e-02 3.404927e-02 3.460287e-02 3.425863e-02 3.424882e-02 3.428951e-02 3.394732e-02 3.462762e-02 3.412597e-02 3.506292e-02 3.397349e-02 3.511329e-02 3.323651e-02 3.474656e-02 3.317460e-02 3.529861e-02 3.315979e-02 3.501772e-02 3.357856e-02 3.542515e-02 3.348474e-02 3.480603e-02 3.443682e-02 3.492761e-02 3.430565e-02 3.449829e-02 3.515314e-02 3.397043e-02 3.576277e-02 3.390746e-02 3.643995e-02 3.229536e-02 3.670782e-02 3.268677e-02 3.712768e-02 3.308774e-02 3.792845e-02 3.322921e-02 3.729538e-02 3.437257e-02 3.722816e-02 3.738700e-02 3.642152e-02 6.177698e-02 5.499645e-02 4.594018e-02 3.751796e-02 3.639716e-02 
4.177549e-02 4.351757e-02 4.589374e-02 5.133592e-02 5.994029e-02 6.911476e-02 6.105574e-02 6.252868e-02 5.868409e-02 5.950054e-02 5.599207e-02 5.601725e-02 5.037480e-02 4.996425e-02 5.007707e-02 4.999395e-02 5.010805e-02 5.001172e-02 5.005326e-02 5.003038e-02 4.988248e-02 5.025211e-02 5.338421e-02 5.544588e-02 5.733063e-02 5.865579e-02 5.932175e-02 5.962500e-02 6.014946e-02 6.055790e-02 6.138389e-02 6.128151e-02 6.174430e-02 6.079909e-02 6.162185e-02 6.092772e-02 6.203929e-02 6.103199e-02 6.175695e-02 6.088789e-02 6.211416e-02 6.140200e-02 6.197785e-02 6.109449e-02 6.148075e-02 6.143497e-02 6.209827e-02 6.174756e-02 6.123454e-02 6.074349e-02 6.061083e-02 6.091569e-02 6.069396e-02 6.069695e-02 5.961115e-02 5.956535e-02 5.886979e-02 5.974822e-02 6.005678e-02 6.112934e-02 6.019059e-02 6.098177e-02 5.949869e-02 5.974891e-02 6.120246e-02 6.255298e-02 6.122654e-02 6.055088e-02 6.043344e-02 6.018592e-02 6.105846e-02 6.131763e-02 6.168220e-02 6.088382e-02 6.207161e-02 6.130930e-02 6.212734e-02 6.127071e-02 6.227986e-02 6.162070e-02 6.253537e-02 6.196520e-02 6.282875e-02 6.219276e-02 6.257530e-02 6.238450e-02 6.241196e-02 6.256470e-02 6.242755e-02 6.317876e-02 6.240956e-02 6.310999e-02 6.199785e-02 6.310796e-02 6.144431e-02 6.306528e-02 6.189090e-02 6.369486e-02 6.132908e-02 6.289254e-02 6.134487e-02 6.321836e-02 6.155951e-02 6.328760e-02 6.220772e-02 6.276639e-02 6.208990e-02 6.272868e-02 6.291027e-02 6.218855e-02 6.312529e-02 6.215656e-02 6.320949e-02 6.153411e-02 6.414505e-02 6.193586e-02 6.426461e-02 6.216371e-02 6.465506e-02 6.258779e-02 6.527969e-02 6.439596e-02 6.778311e-02 6.811096e-02 5.526021e-02 4.964494e-02 4.422000e-02 4.309711e-02 
5.325700e-02 5.494320e-02 5.514984e-02 5.894628e-02 6.041105e-02 6.763161e-02 6.768920e-02 6.833648e-02 6.779660e-02 6.866684e-02 6.809100e-02 6.988539e-02 6.871597e-02 6.746538e-02 6.755206e-02 6.750129e-02 6.759939e-02 6.752617e-02 6.755321e-02 6.756137e-02 6.741205e-02 6.831058e-02 6.833266e-02 6.835008e-02 6.802418e-02 6.835554e-02 6.786213e-02 6.789948e-02 6.770101e-02 6.803341e-02 6.833210e-02 6.833330e-02 6.839276e-02 6.783290e-02 6.831981e-02 6.797789e-02 6.869482e-02 6.797994e-02 6.838337e-02 6.777771e-02 6.861802e-02 6.820630e-02 6.870669e-02 6.804654e-02 6.823819e-02 6.813879e-02 6.867283e-02 6.847096e-02 6.821978e-02 6.798154e-02 6.796219e-02 6.821946e-02 6.811852e-02 6.820775e-02 6.764664e-02 6.791421e-02 6.806421e-02 6.823025e-02 6.604335e-02 6.719738e-02 6.833929e-02 6.822274e-02 6.742247e-02 6.887338e-02 6.751691e-02 6.752936e-02 6.863853e-02 6.895526e-02 6.793599e-02 6.862999e-02 6.959527e-02 6.791531e-02 6.754096e-02 6.752094e-02 6.825731e-02 6.804339e-02 6.857020e-02 6.823638e-02 6.888447e-02 6.850866e-02 6.898273e-02 6.868389e-02 6.911480e-02 6.887626e-02 6.907116e-02 6.909407e-02 6.902614e-02 6.923610e-02 6.894071e-02 6.954415e-02 6.887649e-02 6.959386e-02 6.876222e-02 6.974819e-02 6.843556e-02 6.963983e-02 6.861481e-02 7.002904e-02 6.825375e-02 6.953493e-02 6.833515e-02 6.979119e-02 6.831837e-02 6.972135e-02 6.882171e-02 6.945265e-02 6.873832e-02 6.942502e-02 6.916926e-02 6.899370e-02 6.927648e-02 6.919745e-02 6.938831e-02 6.869429e-02 6.977375e-02 6.867508e-02 6.954337e-02 6.867528e-02 6.956728e-02 6.849221e-02 6.928257e-02 6.843983e-02 6.964772e-02 6.487673e-02 6.025476e-02 5.781252e-02 5.490708e-02 5.459139e-02 
5.310059e-02 5.434409e-02 5.468857e-02 5.737436e-02 5.852338e-02 6.219492e-02 6.299916e-02 6.524155e-02 6.626334e-02 6.784679e-02 7.047107e-02 7.221672e-02 7.828648e-02 7.794960e-02 7.801359e-02 7.795203e-02 7.799784e-02 7.796530e-02 7.797423e-02 7.798811e-02 7.794948e-02 7.816532e-02 7.323393e-02 7.185801e-02 6.897933e-02 6.840002e-02 6.683874e-02 6.650125e-02 6.579422e-02 6.555616e-02 6.542674e-02 6.507297e-02 6.525635e-02 6.470655e-02 6.517792e-02 6.455758e-02 6.521122e-02 6.450389e-02 6.519255e-02 6.449932e-02 6.523677e-02 6.460477e-02 6.521867e-02 6.466047e-02 6.515045e-02 6.480561e-02 6.520798e-02 6.498757e-02 6.516119e-02 6.511456e-02 6.525888e-02 6.551794e-02 6.565133e-02 6.613729e-02 6.620788e-02 6.683493e-02 6.684566e-02 6.724928e-02 6.643850e-02 6.710165e-02 6.694078e-02 6.627076e-02 6.580385e-02 6.647016e-02 6.588684e-02 6.626936e-02 6.710521e-02 6.691679e-02 6.601305e-02 6.594691e-02 6.653360e-02 6.641169e-02 6.680962e-02 6.630823e-02 6.671111e-02 6.593067e-02 6.635418e-02 6.560731e-02 6.613649e-02 6.550045e-02 6.602234e-02 6.552210e-02 6.595544e-02 6.561096e-02 6.584496e-02 6.574178e-02 6.573265e-02 6.590007e-02 6.562794e-02 6.608997e-02 6.550055e-02 6.619798e-02 6.533314e-02 6.628349e-02 6.516016e-02 6.633446e-02 6.510734e-02 6.640795e-02 6.500522e-02 6.631126e-02 6.502536e-02 6.628611e-02 6.513712e-02 6.619907e-02 6.535760e-02 6.600896e-02 6.552916e-02 6.581983e-02 6.577937e-02 6.555241e-02 6.595882e-02 6.533058e-02 6.606930e-02 6.502775e-02 6.613370e-02 6.477289e-02 6.591364e-02 6.441651e-02 6.538712e-02 6.380033e-02 6.431621e-02 6.273440e-02 6.244647e-02 6.028355e-02 5.789663e-02 5.628080e-02 5.429821e-02 5.398063e-02 
5.787619e-02 5.920942e-02 5.904257e-02 6.164454e-02 6.215923e-02 6.546031e-02 6.636045e-02 6.833296e-02 6.966934e-02 7.097068e-02 7.372166e-02 7.505446e-02 8.153931e-02 8.147431e-02 8.153168e-02 8.147994e-02 8.152174e-02 8.149813e-02 8.149452e-02 8.152313e-02 8.145987e-02 8.154707e-02 7.664314e-02 7.539830e-02 7.262547e-02 7.210078e-02 7.055696e-02 7.032395e-02 6.957280e-02 6.944840e-02 6.920001e-02 6.898699e-02 6.903229e-02 6.868607e-02 6.898843e-02 6.857562e-02 6.903875e-02 6.855797e-02 6.907741e-02 6.859962e-02 6.914213e-02 6.869122e-02 6.914809e-02 6.876400e-02 6.913848e-02 6.892228e-02 6.922682e-02 6.914755e-02 6.931204e-02 6.942095e-02 6.956656e-02 6.995251e-02 7.014124e-02 7.085109e-02 7.115242e-02 7.212361e-02 7.221808e-02 7.280920e-02 7.203679e-02 7.232276e-02 7.161250e-02 7.179475e-02 7.135460e-02 7.120328e-02 7.053537e-02 7.090562e-02 7.083766e-02 7.110269e-02 7.101928e-02 7.039045e-02 6.944214e-02 6.937229e-02 7.042397e-02 7.029002e-02 7.051068e-02 6.985896e-02 7.002529e-02 6.947455e-02 6.975996e-02 6.933409e-02 6.963521e-02 6.935041e-02 6.959206e-02 6.945448e-02 6.954727e-02 6.959670e-02 6.949154e-02 6.975709e-02 6.942202e-02 6.991285e-02 6.931772e-02 7.002842e-02 6.920782e-02 7.013553e-02 6.910412e-02 7.020909e-02 6.905164e-02 7.025176e-02 6.897093e-02 7.019371e-02 6.897362e-02 7.016309e-02 6.905932e-02 7.010527e-02 6.922712e-02 6.997194e-02 6.936499e-02 6.980607e-02 6.951596e-02 6.958802e-02 6.965116e-02 6.941424e-02 6.973787e-02 6.916467e-02 6.970821e-02 6.884828e-02 6.944422e-02 6.842371e-02 6.892456e-02 6.769198e-02 6.788292e-02 6.631059e-02 6.595285e-02 6.369708e-02 6.201863e-02 6.059011e-02 5.896202e-02 5.885962e-02 
5.311101e-02 5.435236e-02 5.469602e-02 5.737851e-02 5.852908e-02 6.219574e-02 6.300558e-02 6.524112e-02 6.627004e-02 6.785538e-02 7.049228e-02 7.222418e-02 7.829708e-02 7.796191e-02 7.802710e-02 7.796469e-02 7.801397e-02 7.798243e-02 7.799107e-02 7.800566e-02 7.796525e-02 7.817301e-02 7.330906e-02 7.191103e-02 6.901199e-02 6.841637e-02 6.685060e-02 6.655043e-02 6.584718e-02 6.557293e-02 6.540388e-02 6.499235e-02 6.519161e-02 6.465473e-02 6.514107e-02 6.452153e-02 6.518022e-02 6.451418e-02 6.526070e-02 6.460076e-02 6.531982e-02 6.466427e-02 6.528207e-02 6.473654e-02 6.527734e-02 6.491541e-02 6.532531e-02 6.513205e-02 6.538333e-02 6.540520e-02 6.556188e-02 6.581091e-02 6.591320e-02 6.643923e-02 6.662498e-02 6.741231e-02 6.748807e-02 6.793208e-02 6.702706e-02 6.747114e-02 6.731408e-02 6.723161e-02 6.668151e-02 6.664806e-02 6.596707e-02 6.631072e-02 6.663085e-02 6.652708e-02 6.628204e-02 6.574417e-02 6.517180e-02 6.497692e-02 6.628747e-02 6.615740e-02 6.671161e-02 6.600881e-02 6.647011e-02 6.574500e-02 6.623441e-02 6.556429e-02 6.604708e-02 6.553194e-02 6.593462e-02 6.559046e-02 6.582081e-02 6.570402e-02 6.571600e-02 6.588376e-02 6.562562e-02 6.603866e-02 6.546130e-02 6.616553e-02 6.531956e-02 6.629410e-02 6.519659e-02 6.638258e-02 6.510283e-02 6.639161e-02 6.502776e-02 6.635967e-02 6.504749e-02 6.629419e-02 6.516866e-02 6.621746e-02 6.535707e-02 6.604551e-02 6.555606e-02 6.581516e-02 6.574548e-02 6.554809e-02 6.595217e-02 6.528923e-02 6.608661e-02 6.501759e-02 6.606862e-02 6.469046e-02 6.585054e-02 6.434687e-02 6.535534e-02 6.382061e-02 6.433019e-02 6.275331e-02 6.247038e-02 6.030413e-02 5.791536e-02 5.629778e-02 5.431239e-02 5.399327e-02 
5.327840e-02 5.496879e-02 5.516737e-02 5.896872e-02 6.043013e-02 6.765535e-02 6.771990e-02 6.834095e-02 6.779998e-02 6.870463e-02 6.816033e-02 6.989767e-02 6.875878e-02 6.749685e-02 6.757458e-02 6.751726e-02 6.762215e-02 6.755187e-02 6.757456e-02 6.757619e-02 6.742881e-02 6.829986e-02 6.865882e-02 6.855811e-02 6.799073e-02 6.822211e-02 6.776208e-02 6.810240e-02 6.805501e-02 6.824247e-02 6.828938e-02 6.802486e-02 6.819928e-02 6.779455e-02 6.828989e-02 6.781578e-02 6.843614e-02 6.791250e-02 6.867316e-02 6.823430e-02 6.890658e-02 6.826467e-02 6.865995e-02 6.815436e-02 6.865729e-02 6.845365e-02 6.880914e-02 6.865255e-02 6.874651e-02 6.883440e-02 6.883984e-02 6.895561e-02 6.855431e-02 6.863225e-02 6.815279e-02 6.845167e-02 6.806899e-02 6.859291e-02 6.749277e-02 6.839092e-02 6.886692e-02 6.871163e-02 6.752417e-02 6.806694e-02 6.747110e-02 6.786528e-02 6.808349e-02 6.804230e-02 6.754624e-02 6.769092e-02 6.756459e-02 6.677338e-02 6.745479e-02 6.755323e-02 6.827846e-02 6.815752e-02 6.886993e-02 6.855266e-02 6.903553e-02 6.853020e-02 6.896201e-02 6.866943e-02 6.907699e-02 6.888471e-02 6.906945e-02 6.903327e-02 6.901620e-02 6.930360e-02 6.904544e-02 6.945086e-02 6.878443e-02 6.950669e-02 6.863032e-02 6.966702e-02 6.856960e-02 6.991062e-02 6.860241e-02 6.988745e-02 6.835688e-02 6.975073e-02 6.828264e-02 6.965384e-02 6.847570e-02 6.979961e-02 6.875963e-02 6.962985e-02 6.894856e-02 6.940126e-02 6.894195e-02 6.900805e-02 6.923635e-02 6.893434e-02 6.957463e-02 6.889789e-02 6.960635e-02 6.845523e-02 6.940261e-02 6.842052e-02 6.944451e-02 6.862433e-02 6.932539e-02 6.844630e-02 6.970317e-02 6.491732e-02 6.029195e-02 5.784949e-02 5.493514e-02 5.462256e-02 
4.179888e-02 4.353767e-02 4.590709e-02 5.134400e-02 5.994764e-02 6.910870e-02 6.106364e-02 6.249554e-02 5.866833e-02 5.956487e-02 5.613576e-02 5.606850e-02 5.047476e-02 4.998913e-02 5.010930e-02 5.001324e-02 5.015591e-02 5.006999e-02 5.010703e-02 5.009123e-02 4.995191e-02 5.029135e-02 5.387391e-02 5.582253e-02 5.742562e-02 5.858977e-02 5.920549e-02 5.992269e-02 6.054723e-02 6.071138e-02 6.120938e-02 6.069523e-02 6.130732e-02 6.059412e-02 6.151851e-02 6.076167e-02 6.174840e-02 6.095304e-02 6.213006e-02 6.147722e-02 6.238505e-02 6.140747e-02 6.197329e-02 6.123186e-02 6.192750e-02 6.161001e-02 6.206281e-02 6.181572e-02 6.186957e-02 6.192344e-02 6.180974e-02 6.181560e-02 6.106244e-02 6.091020e-02 6.011185e-02 6.023280e-02 5.933996e-02 5.949879e-02 5.881751e-02 5.953765e-02 5.931964e-02 6.045581e-02 5.972791e-02 6.011104e-02 6.062085e-02 6.119101e-02 6.065812e-02 6.105654e-02 6.179156e-02 6.153966e-02 6.272567e-02 6.284966e-02 6.293884e-02 6.198119e-02 6.255264e-02 6.189911e-02 6.286060e-02 6.217060e-02 6.288162e-02 6.187303e-02 6.261834e-02 6.200123e-02 6.267802e-02 6.211528e-02 6.249836e-02 6.219137e-02 6.239138e-02 6.272161e-02 6.259744e-02 6.286579e-02 6.208016e-02 6.294212e-02 6.199197e-02 6.328809e-02 6.185551e-02 6.345949e-02 6.165607e-02 6.327689e-02 6.142804e-02 6.333780e-02 6.148589e-02 6.317859e-02 6.171098e-02 6.328311e-02 6.206769e-02 6.300408e-02 6.238194e-02 6.260452e-02 6.258335e-02 6.227038e-02 6.314873e-02 6.194975e-02 6.354570e-02 6.172431e-02 6.369278e-02 6.139139e-02 6.395736e-02 6.175889e-02 6.455047e-02 6.292754e-02 6.546217e-02 6.448748e-02 6.790487e-02 6.820485e-02 5.531651e-02 4.970007e-02 4.425673e-02 4.313226e-02 
3.507313e-02 3.720041e-02 4.189096e-02 4.933634e-02 6.157707e-02 4.632719e-02 2.837868e-02 3.856178e-02 2.763877e-02 3.473804e-02 2.659433e-02 3.009414e-02 2.253221e-02 2.532703e-02 2.501184e-02 2.528166e-02 2.566356e-02 2.534086e-02 2.562404e-02 2.533336e-02 2.485385e-02 2.485922e-02 2.806367e-02 2.874952e-02 3.124162e-02 3.123955e-02 3.304018e-02 3.227448e-02 3.338918e-02 3.211867e-02 3.338537e-02 3.239879e-02 3.392619e-02 3.291440e-02 3.410722e-02 3.318103e-02 3.416030e-02 3.336356e-02 3.411467e-02 3.335503e-02 3.376054e-02 3.350676e-02 3.406240e-02 3.409789e-02 3.407198e-02 3.418739e-02 3.383573e-02 3.443948e-02 3.391498e-02 3.462304e-02 3.372620e-02 3.471953e-02 3.394088e-02 3.512998e-02 3.435943e-02 3.547107e-02 3.433863e-02 3.521018e-02 3.573401e-02 3.620706e-02 3.395709e-02 3.514359e-02 3.423444e-02 3.424156e-02 3.476894e-02 3.589229e-02 3.484769e-02 3.487842e-02 3.502158e-02 3.404840e-02 3.463657e-02 3.547955e-02 3.515340e-02 3.413260e-02 3.437768e-02 3.373205e-02 3.433898e-02 3.385593e-02 3.462638e-02 3.411843e-02 3.480097e-02 3.429348e-02 3.452035e-02 3.410060e-02 3.412215e-02 3.415222e-02 3.400814e-02 3.463421e-02 3.405434e-02 3.490454e-02 3.387405e-02 3.529968e-02 3.403234e-02 3.566754e-02 3.368379e-02 3.518118e-02 3.294055e-02 3.497782e-02 3.348784e-02 3.559583e-02 3.413586e-02 3.548117e-02 3.418846e-02 3.466954e-02 3.430397e-02 3.424919e-02 3.487960e-02 3.376357e-02 3.608844e-02 3.403543e-02 3.667702e-02 3.296371e-02 3.650558e-02 3.202943e-02 3.681220e-02 3.279599e-02 3.781913e-02 3.343366e-02 3.765362e-02 3.454264e-02 3.749162e-02 3.767472e-02 3.657520e-02 6.197227e-02 5.508546e-02 4.603544e-02 3.756707e-02 3.645441e-02 
8.972735e-03 1.201475e-02 1.677942e-02 2.687995e-02 2.839487e-02 2.419281e-02 2.540126e-02 1.921548e-02 2.435936e-02 1.944462e-02 2.346144e-02 1.986996e-02 2.197868e-02 2.249341e-02 2.477013e-02 2.521917e-02 2.507315e-02 2.618423e-02 2.401242e-02 2.547233e-02 2.118485e-02 2.207810e-02 2.016145e-02 2.260092e-02 2.040136e-02 2.216725e-02 2.011107e-02 2.189561e-02 2.097125e-02 2.235811e-02 2.146616e-02 2.174026e-02 2.099204e-02 2.099157e-02 2.104317e-02 2.088819e-02 2.128904e-02 2.094893e-02 2.188449e-02 2.162686e-02 2.247845e-02 2.135068e-02 2.170893e-02 2.062359e-02 2.166264e-02 2.107147e-02 2.208652e-02 2.123976e-02 2.191210e-02 2.145915e-02 2.227908e-02 2.172158e-02 2.179345e-02 2.117797e-02 2.147012e-02 2.140587e-02 2.134049e-02 2.122593e-02 2.130131e-02 2.153670e-02 2.117366e-02 2.120281e-02 2.089046e-02 2.088029e-02 2.133801e-02 2.185651e-02 2.163753e-02 2.188597e-02 2.259506e-02 2.226961e-02 2.248330e-02 2.221399e-02 2.239186e-02 2.166086e-02 2.221427e-02 2.186092e-02 2.268033e-02 2.218074e-02 2.250025e-02 2.155310e-02 2.199143e-02 2.157518e-02 2.226570e-02 2.184762e-02 2.231247e-02 2.184994e-02 2.232901e-02 2.219056e-02 2.254443e-02 2.215286e-02 2.194594e-02 2.187116e-02 2.174248e-02 2.208048e-02 2.178755e-02 2.267552e-02 2.203583e-02 2.250391e-02 2.132631e-02 2.219182e-02 2.088865e-02 2.207020e-02 2.114597e-02 2.288921e-02 2.148351e-02 2.294326e-02 2.142686e-02 2.289020e-02 2.066173e-02 2.230664e-02 2.108183e-02 2.262478e-02 2.163756e-02 2.304456e-02 2.146251e-02 2.209033e-02 2.115943e-02 2.206454e-02 2.230166e-02 2.276973e-02 2.414868e-02 2.257161e-02 2.918190e-02 2.331431e-02 3.826458e-02 1.950621e-02 1.388591e-02 9.200082e-03 
8.101123e-03 7.139914e-03 5.542472e-03 6.502297e-03 8.636579e-03 2.462082e-02 5.542702e-03 1.242480e-02 4.491082e-03 8.889472e-03 1.596751e-03 6.243481e-03 7.806946e-03 1.423901e-02 1.715045e-02 1.830059e-02 1.823237e-02 1.937375e-02 1.713265e-02 1.677733e-02 1.439132e-02 5.392961e-03 2.194070e-03 3.814942e-03 5.745213e-03 7.331155e-03 8.535634e-03 8.865697e-03 9.896172e-03 9.158728e-03 1.024937e-02 9.134406e-03 1.061397e-02 9.196162e-03 1.084203e-02 9.358131e-03 1.103665e-02 9.568454e-03 1.132008e-02 9.965899e-03 1.135022e-02 9.989397e-03 1.127221e-02 1.019529e-02 1.120411e-02 1.058955e-02 1.122981e-02 1.098533e-02 1.129891e-02 1.147947e-02 1.147849e-02 1.191703e-02 1.169598e-02 1.247196e-02 1.244197e-02 1.354699e-02 1.289041e-02 1.392684e-02 1.503569e-02 1.524315e-02 1.335933e-02 1.400801e-02 1.278096e-02 1.215885e-02 1.243683e-02 1.294126e-02 1.233223e-02 1.180095e-02 1.170729e-02 1.034365e-02 1.036012e-02 9.536146e-03 9.994604e-03 8.857965e-03 1.031445e-02 9.450404e-03 1.120120e-02 1.021483e-02 1.174941e-02 1.044791e-02 1.188425e-02 1.085193e-02 1.190195e-02 1.096718e-02 1.164172e-02 1.113589e-02 1.153232e-02 1.182353e-02 1.169304e-02 1.208128e-02 1.121259e-02 1.237817e-02 1.115261e-02 1.285917e-02 1.086646e-02 1.280025e-02 1.030712e-02 1.256253e-02 1.045571e-02 1.295768e-02 1.079843e-02 1.274602e-02 1.112370e-02 1.241260e-02 1.137435e-02 1.206186e-02 1.191361e-02 1.163410e-02 1.263820e-02 1.132434e-02 1.350200e-02 1.043740e-02 1.366523e-02 9.743021e-03 1.373411e-02 9.782190e-03 1.430865e-02 1.023695e-02 1.434228e-02 1.143934e-02 1.459151e-02 1.423355e-02 2.050939e-02 1.743597e-02 1.011476e-02 3.562158e-03 7.673867e-03 6.974980e-03 
1.310466e-03 1.261017e-03 1.658256e-03 2.404454e-03 3.465560e-03 6.487535e-03 7.084166e-03 5.254896e-03 5.613260e-03 8.261812e-03 9.314924e-03 1.702196e-02 2.107237e-02 2.226315e-02 1.142134e-02 6.333834e-03 2.953474e-03 4.155219e-03 6.776025e-03 1.094462e-02 2.222212e-02 2.241420e-02 1.504437e-02 1.001438e-02 6.004871e-03 4.035021e-03 2.841411e-03 2.160520e-03 1.609919e-03 1.489245e-03 3.957813e-04 1.255679e-03 4.999379e-04 9.758602e-04 5.815207e-04 9.026693e-04 5.576872e-04 7.831481e-04 4.652764e-04 8.068475e-04 3.810858e-04 6.516693e-04 6.805289e-04 9.371255e-05 4.489607e-04 3.235149e-04 2.222708e-04 4.771581e-04 3.557966e-04 9.686496e-04 5.212344e-04 1.157179e-03 8.933747e-04 1.957762e-03 1.676396e-03 2.454898e-03 2.235846e-03 4.405922e-03 2.797797e-03 3.016306e-03 2.659851e-03 2.932799e-03 3.175296e-03 1.615288e-03 1.163419e-03 1.328988e-03 1.809955e-03 1.649180e-03 2.132588e-03 2.728357e-03 1.357130e-03 1.970511e-03 9.178788e-04 1.255409e-03 1.050461e-03 1.186432e-03 1.069081e-03 4.927036e-04 1.146299e-03 4.011204e-04 1.448646e-03 7.346479e-04 1.237342e-03 6.886349e-04 9.578820e-04 8.159153e-04 8.174742e-04 1.160470e-03 7.269415e-04 1.456960e-03 6.742867e-04 1.861983e-03 4.672032e-04 2.125031e-03 1.947602e-04 1.899203e-03 4.280024e-04 1.836119e-03 1.716023e-04 2.225033e-03 5.153366e-04 2.048741e-03 9.981262e-04 1.358245e-03 1.025709e-03 1.064749e-03 1.566705e-03 1.031067e-03 2.540535e-03 5.315893e-04 3.139647e-03 7.460026e-04 3.105519e-03 1.595872e-03 3.190733e-03 1.309162e-03 3.521937e-03 1.569719e-03 2.509816e-03 2.229492e-03 1.056073e-03 3.416282e-03 5.110950e-03 7.535668e-03 1.783550e-03 2.357850e-03 1.961550e-03 2.087170e-04 
