# vtk DataFile Version 2.0
Comment goes here
ASCII

DATASET STRUCTURED_POINTS
FIELD FieldData 1
TIME 1 1 double
0.46000000
DIMENSIONS    128   16   1

ORIGIN    0.000   0.000   0.000
SPACING   0.0078125 0.015625   1.000

POINT_DATA   2048
SCALARS uMag double
LOOKUP_TABLE default

6.857851e-03 2.338159e-03 6.249195e-03 6.555517e-04 5.154481e-03 5.537071e-03 8.833487e-03 9.505549e-04 4.189335e-03 2.141216e-03 1.289997e-03 7.230491e-03 1.250102e-02 2.274417e-02 2.925493e-02 2.926209e-02 3.450359e-02 3.137508e-02 3.262130e-02 2.760703e-02 2.468668e-02 1.075365e-02 8.534965e-03 1.241412e-03 2.484812e-03 2.277248e-03 8.678975e-05 3.590919e-03 1.261206e-03 3.963821e-03 1.870907e-03 3.941383e-03 2.252668e-03 3.753469e-03 2.527482e-03 3.502195e-03 2.736062e-03 3.246402e-03 2.896402e-03 3.027288e-03 3.013538e-03 2.862447e-03 3.077888e-03 2.753169e-03 3.086604e-03 2.705376e-03 3.055745e-03 2.726427e-03 3.005081e-03 2.813341e-03 2.961045e-03 2.978922e-03 2.997140e-03 3.320034e-03 3.330798e-03 4.109384e-03 3.923883e-03 4.097386e-03 4.066283e-03 4.424850e-03 3.255817e-03 3.441122e-03 2.393414e-03 2.182236e-03 2.446398e-03 3.503992e-03 2.821958e-03 2.292074e-03 1.849505e-03 1.203244e-03 1.615503e-03 2.975361e-03 3.113769e-03 3.020310e-03 2.743406e-03 2.837220e-03 2.516199e-03 2.833331e-03 2.347305e-03 2.878633e-03 2.188149e-03 2.934183e-03 2.046977e-03 2.983434e-03 1.944124e-03 3.007961e-03 1.893767e-03 2.984119e-03 1.905145e-03 2.895516e-03 1.988557e-03 2.737386e-03 2.148551e-03 2.512351e-03 2.376349e-03 2.232648e-03 2.651593e-03 1.923753e-03 2.942315e-03 1.620371e-03 3.203389e-03 1.364806e-03 3.385283e-03 1.208237e-03 3.443258e-03 1.201535e-03 3.336321e-03 1.381550e-03 3.032993e-03 1.767396e-03 2.526278e-03 2.357736e-03 1.841900e-03 3.117926e-03 1.043627e-03 3.966536e-03 2.607794e-04 4.774884e-03 2.285678e-04 5.362832e-03 1.931189e-04 5.502949e-03 3.367995e-03 1.857402e-03 5.416144e-03 3.089664e-03 6.619305e-03 3.470739e-03 
3.972352e-03 6.115457e-04 4.162464e-03 3.044830e-03 4.966039e-03 1.029685e-02 8.432589e-03 4.817123e-03 2.490289e-03 5.481401e-03 5.391300e-03 1.121571e-02 1.704223e-02 1.675189e-02 7.676797e-03 5.474525e-03 3.854510e-03 2.569559e-03 4.890873e-03 7.947306e-03 1.726752e-02 1.653850e-02 9.722393e-03 6.071549e-03 3.623428e-03 2.663980e-03 1.346231e-03 1.787136e-03 3.678925e-04 1.705938e-03 3.529753e-04 1.677669e-03 6.832142e-04 1.568440e-03 9.516226e-04 1.383813e-03 1.148671e-03 1.180184e-03 1.305152e-03 1.014437e-03 1.432703e-03 8.923550e-04 1.497075e-03 8.047263e-04 1.489019e-03 7.650087e-04 1.431205e-03 7.709439e-04 1.318726e-03 7.789993e-04 1.135318e-03 7.610075e-04 9.269257e-04 7.796013e-04 9.242626e-04 1.117824e-03 1.044448e-03 1.485328e-03 1.551465e-03 2.758661e-04 1.751516e-03 3.006831e-03 2.868348e-03 1.986907e-03 3.542842e-03 1.243235e-03 2.304513e-03 3.007050e-03 3.842599e-03 2.383461e-03 4.626404e-03 3.503397e-03 1.550342e-03 1.883921e-03 1.682422e-03 1.389818e-03 1.079030e-03 1.097681e-03 7.664456e-04 1.029990e-03 5.540422e-04 1.039705e-03 3.981364e-04 1.079895e-03 3.052880e-04 1.116864e-03 2.771970e-04 1.105466e-03 3.086129e-04 1.023171e-03 4.006114e-04 8.846125e-04 5.673162e-04 7.004268e-04 8.040581e-04 4.769052e-04 1.078650e-03 2.907449e-04 1.359040e-03 3.425810e-04 1.615111e-03 5.230512e-04 1.803904e-03 6.540730e-04 1.877974e-03 6.782840e-04 1.795429e-03 5.932616e-04 1.541824e-03 5.250571e-04 1.161440e-03 8.351884e-04 8.268317e-04 1.510702e-03 9.771789e-04 2.346369e-03 1.567527e-03 3.204800e-03 2.112190e-03 4.023888e-03 2.027500e-03 5.401949e-03 3.664993e-03 2.992259e-03 4.310934e-03 1.429531e-03 4.184457e-03 1.137322e-03 
8.630049e-03 6.143690e-03 8.870768e-03 4.664019e-03 1.357489e-02 1.606626e-02 1.669413e-02 1.209320e-02 2.674054e-03 8.805981e-03 2.681138e-03 1.061529e-02 9.681089e-03 1.273446e-02 1.591093e-02 1.522763e-02 1.718368e-02 1.681629e-02 1.575748e-02 1.589529e-02 1.369469e-02 9.748341e-03 6.087945e-03 3.227144e-03 3.778992e-03 1.188041e-03 4.646625e-03 1.987190e-03 5.288312e-03 2.681307e-03 5.497966e-03 3.114492e-03 5.451004e-03 3.455949e-03 5.335965e-03 3.820428e-03 5.217236e-03 4.174096e-03 5.056883e-03 4.435472e-03 4.877061e-03 4.631823e-03 4.770493e-03 4.815942e-03 4.750000e-03 4.946994e-03 4.771119e-03 5.006579e-03 4.852560e-03 5.068926e-03 5.044835e-03 5.185911e-03 5.341131e-03 5.368196e-03 5.767643e-03 5.786001e-03 6.525581e-03 6.178514e-03 7.168053e-03 6.970744e-03 7.375312e-03 8.049590e-03 6.328072e-03 6.058705e-03 6.366376e-03 7.260226e-03 6.243451e-03 7.516449e-03 5.969217e-03 5.373451e-03 5.643430e-03 7.052473e-03 7.247739e-03 6.784233e-03 6.372374e-03 5.898219e-03 5.964624e-03 5.410655e-03 5.856332e-03 5.116875e-03 5.894943e-03 4.925312e-03 5.980519e-03 4.772857e-03 6.038352e-03 4.655608e-03 6.063887e-03 4.627455e-03 6.073963e-03 4.708301e-03 6.021670e-03 4.859919e-03 5.858934e-03 5.067744e-03 5.608350e-03 5.345823e-03 5.315174e-03 5.688018e-03 4.996078e-03 6.041968e-03 4.663287e-03 6.346286e-03 4.368584e-03 6.566202e-03 4.187081e-03 6.678029e-03 4.196846e-03 6.658638e-03 4.445277e-03 6.461856e-03 4.919390e-03 6.056256e-03 5.579235e-03 5.459311e-03 6.392529e-03 4.695411e-03 7.342205e-03 3.720438e-03 8.410305e-03 2.610608e-03 9.577105e-03 5.442683e-03 1.699415e-02 9.857548e-03 8.562101e-03 4.094740e-03 8.269243e-03 6.317157e-03 
6.339797e-03 8.180709e-03 1.076250e-02 1.448094e-02 3.036204e-02 2.571343e-03 2.062974e-02 1.359211e-02 1.338348e-02 1.445531e-02 1.076410e-02 1.485550e-02 8.390796e-03 1.576510e-02 1.011270e-02 1.640130e-02 1.122295e-02 1.626632e-02 1.166621e-02 1.465026e-02 1.152381e-02 1.111120e-02 1.261352e-02 1.194192e-02 1.296295e-02 1.222225e-02 1.340545e-02 1.233847e-02 1.373611e-02 1.236740e-02 1.392973e-02 1.236811e-02 1.402344e-02 1.238558e-02 1.406181e-02 1.245518e-02 1.404671e-02 1.256321e-02 1.396711e-02 1.267645e-02 1.385550e-02 1.279907e-02 1.374970e-02 1.294803e-02 1.364980e-02 1.309873e-02 1.354722e-02 1.323511e-02 1.345308e-02 1.336953e-02 1.337722e-02 1.348909e-02 1.329730e-02 1.355676e-02 1.318958e-02 1.353140e-02 1.279807e-02 1.283403e-02 1.287787e-02 1.304972e-02 1.260944e-02 1.504028e-02 1.488724e-02 1.420689e-02 1.363210e-02 1.435193e-02 1.314654e-02 1.465044e-02 1.580545e-02 1.571633e-02 1.464254e-02 1.514697e-02 1.431829e-02 1.410032e-02 1.388934e-02 1.369213e-02 1.374204e-02 1.346914e-02 1.369179e-02 1.333452e-02 1.369786e-02 1.324776e-02 1.373010e-02 1.317972e-02 1.376065e-02 1.312450e-02 1.378891e-02 1.309664e-02 1.382220e-02 1.309842e-02 1.383867e-02 1.311983e-02 1.382251e-02 1.315966e-02 1.378123e-02 1.322000e-02 1.372093e-02 1.330565e-02 1.363281e-02 1.341043e-02 1.350833e-02 1.352198e-02 1.335546e-02 1.364522e-02 1.319155e-02 1.379497e-02 1.303609e-02 1.398186e-02 1.290682e-02 1.419316e-02 1.281544e-02 1.441024e-02 1.275989e-02 1.462284e-02 1.273943e-02 1.480741e-02 1.278205e-02 1.489799e-02 1.297500e-02 1.477915e-02 1.366272e-02 1.431318e-02 2.038281e-02 3.626846e-02 2.236445e-02 6.961765e-03 7.013376e-03 6.772749e-03 
1.771209e-02 2.186603e-02 2.005517e-02 2.845691e-02 3.184835e-02 4.260285e-02 1.906119e-02 2.460018e-02 1.567692e-02 2.031414e-02 1.384932e-02 1.689940e-02 7.696274e-03 1.136687e-02 9.843900e-03 1.089594e-02 1.067585e-02 1.051097e-02 1.112287e-02 9.829607e-03 1.136703e-02 8.379696e-03 1.664632e-02 1.408562e-02 1.868408e-02 1.668286e-02 1.960844e-02 1.810880e-02 2.000799e-02 1.893902e-02 2.007257e-02 1.944072e-02 1.996882e-02 1.980493e-02 1.985529e-02 2.014218e-02 1.978189e-02 2.042992e-02 1.970056e-02 2.060630e-02 1.961801e-02 2.070832e-02 1.961547e-02 2.079406e-02 1.969832e-02 2.083113e-02 1.981406e-02 2.079974e-02 1.997068e-02 2.076049e-02 2.019677e-02 2.074361e-02 2.044846e-02 2.072249e-02 2.068981e-02 2.073132e-02 2.060966e-02 1.982108e-02 2.114301e-02 2.040946e-02 2.014224e-02 2.334977e-02 2.330337e-02 2.145566e-02 2.169438e-02 2.234890e-02 2.073532e-02 2.226488e-02 2.427209e-02 2.347471e-02 2.262975e-02 2.357150e-02 2.261107e-02 2.227881e-02 2.143248e-02 2.144653e-02 2.092793e-02 2.098343e-02 2.072240e-02 2.070954e-02 2.068290e-02 2.054379e-02 2.071091e-02 2.042188e-02 2.073018e-02 2.033248e-02 2.073125e-02 2.032003e-02 2.072929e-02 2.039921e-02 2.068139e-02 2.052883e-02 2.054040e-02 2.069490e-02 2.032745e-02 2.091763e-02 2.008885e-02 2.119381e-02 1.984302e-02 2.147325e-02 1.960088e-02 2.169733e-02 1.940800e-02 2.182930e-02 1.932591e-02 2.184179e-02 1.941594e-02 2.170937e-02 1.971376e-02 2.138834e-02 2.021516e-02 2.085187e-02 2.091598e-02 2.013124e-02 2.181950e-02 1.929986e-02 2.292912e-02 1.846231e-02 2.423758e-02 1.788198e-02 2.571570e-02 1.864234e-02 2.789098e-02 5.222879e-02 2.773867e-02 2.337456e-02 1.790372e-02 2.059977e-02 
1.862618e-02 2.035310e-02 2.040762e-02 2.314222e-02 2.579293e-02 3.490383e-02 3.555753e-02 3.493840e-02 3.027978e-02 3.290780e-02 2.815398e-02 3.112687e-02 2.498373e-02 2.507873e-02 2.461476e-02 2.496263e-02 2.481279e-02 2.480121e-02 2.498882e-02 2.464282e-02 2.508157e-02 2.540027e-02 3.100847e-02 2.886842e-02 3.208825e-02 3.032378e-02 3.284497e-02 3.109483e-02 3.326104e-02 3.151818e-02 3.340368e-02 3.176766e-02 3.337986e-02 3.197729e-02 3.330615e-02 3.221659e-02 3.322647e-02 3.245212e-02 3.311420e-02 3.263030e-02 3.298235e-02 3.277478e-02 3.289860e-02 3.291839e-02 3.287283e-02 3.302982e-02 3.286957e-02 3.309208e-02 3.289686e-02 3.314247e-02 3.297152e-02 3.318772e-02 3.304975e-02 3.319539e-02 3.309382e-02 3.317657e-02 3.301440e-02 3.304660e-02 3.379725e-02 3.389838e-02 3.410061e-02 3.487439e-02 3.443736e-02 3.388307e-02 3.434522e-02 3.521883e-02 3.469454e-02 3.561214e-02 3.508418e-02 3.510319e-02 3.459338e-02 3.554774e-02 3.513096e-02 3.485838e-02 3.441012e-02 3.412934e-02 3.401738e-02 3.367312e-02 3.382438e-02 3.335718e-02 3.375291e-02 3.313489e-02 3.374411e-02 3.296600e-02 3.374346e-02 3.283957e-02 3.374060e-02 3.278683e-02 3.373817e-02 3.281526e-02 3.369690e-02 3.289193e-02 3.357995e-02 3.300944e-02 3.339939e-02 3.318390e-02 3.318676e-02 3.341382e-02 3.295762e-02 3.366390e-02 3.271900e-02 3.389258e-02 3.249960e-02 3.407484e-02 3.234321e-02 3.418982e-02 3.229279e-02 3.421471e-02 3.237173e-02 3.411475e-02 3.257831e-02 3.386799e-02 3.292024e-02 3.349574e-02 3.342476e-02 3.305832e-02 3.413305e-02 3.265014e-02 3.512365e-02 3.246490e-02 3.660579e-02 3.293559e-02 4.030599e-02 3.494251e-02 2.187549e-02 2.227963e-02 1.883910e-02 1.998918e-02 
2.465684e-02 2.634359e-02 2.554996e-02 2.758364e-02 2.755360e-02 2.975953e-02 3.384590e-02 3.495093e-02 3.258149e-02 3.583286e-02 3.329761e-02 3.729838e-02 3.623714e-02 3.534164e-02 3.482522e-02 3.520396e-02 3.505395e-02 3.501383e-02 3.525961e-02 3.482458e-02 3.537151e-02 3.662226e-02 3.706955e-02 3.417777e-02 3.524486e-02 3.356232e-02 3.490663e-02 3.338917e-02 3.481023e-02 3.337112e-02 3.475060e-02 3.343031e-02 3.467954e-02 3.354380e-02 3.459949e-02 3.369835e-02 3.451605e-02 3.386969e-02 3.442917e-02 3.403647e-02 3.435011e-02 3.419622e-02 3.429950e-02 3.435224e-02 3.428753e-02 3.450152e-02 3.431644e-02 3.464821e-02 3.439524e-02 3.480885e-02 3.453475e-02 3.499965e-02 3.474258e-02 3.524320e-02 3.504578e-02 3.561725e-02 3.574851e-02 3.652608e-02 3.490891e-02 3.551354e-02 3.532952e-02 3.405483e-02 3.394469e-02 3.563959e-02 3.435372e-02 3.411755e-02 3.434069e-02 3.413068e-02 3.256727e-02 3.393508e-02 3.362447e-02 3.317777e-02 3.312450e-02 3.405889e-02 3.399472e-02 3.439782e-02 3.431763e-02 3.447361e-02 3.448248e-02 3.445166e-02 3.458305e-02 3.439895e-02 3.465620e-02 3.434607e-02 3.470754e-02 3.430897e-02 3.473702e-02 3.430314e-02 3.474146e-02 3.433507e-02 3.470979e-02 3.440138e-02 3.463476e-02 3.450069e-02 3.452101e-02 3.463188e-02 3.438061e-02 3.478779e-02 3.422688e-02 3.495182e-02 3.407349e-02 3.510294e-02 3.393894e-02 3.522274e-02 3.384598e-02 3.529469e-02 3.381470e-02 3.530316e-02 3.385637e-02 3.523462e-02 3.397190e-02 3.508470e-02 3.415496e-02 3.486600e-02 3.439075e-02 3.460797e-02 3.464350e-02 3.434989e-02 3.483573e-02 3.412051e-02 3.480329e-02 3.380322e-02 3.451081e-02 3.006829e-02 2.741626e-02 2.714628e-02 2.522984e-02 2.608806e-02 
2.379975e-02 2.469520e-02 2.481660e-02 2.624892e-02 2.699237e-02 2.869828e-02 3.003480e-02 3.166568e-02 3.238466e-02 3.410834e-02 3.584696e-02 3.721139e-02 4.191620e-02 4.192189e-02 4.172799e-02 4.189428e-02 4.182325e-02 4.182514e-02 4.189764e-02 4.173823e-02 4.192432e-02 4.205304e-02 3.666772e-02 3.581902e-02 3.408576e-02 3.329509e-02 3.312010e-02 3.204438e-02 3.265832e-02 3.141212e-02 3.239142e-02 3.110913e-02 3.220026e-02 3.099808e-02 3.204453e-02 3.100400e-02 3.190870e-02 3.107314e-02 3.178380e-02 3.116677e-02 3.167071e-02 3.126477e-02 3.157784e-02 3.135614e-02 3.150793e-02 3.142952e-02 3.145729e-02 3.147948e-02 3.142565e-02 3.151193e-02 3.141561e-02 3.153437e-02 3.141839e-02 3.153200e-02 3.138378e-02 3.144923e-02 3.134137e-02 3.148265e-02 3.101140e-02 3.126467e-02 3.137245e-02 3.107361e-02 3.094068e-02 3.162177e-02 3.098263e-02 3.096776e-02 3.108493e-02 3.139568e-02 3.083959e-02 3.133023e-02 3.109270e-02 3.075964e-02 3.082920e-02 3.122810e-02 3.146958e-02 3.156045e-02 3.177399e-02 3.162388e-02 3.191827e-02 3.159304e-02 3.201142e-02 3.154042e-02 3.208136e-02 3.149035e-02 3.212814e-02 3.145680e-02 3.214902e-02 3.145339e-02 3.214056e-02 3.148761e-02 3.209582e-02 3.155908e-02 3.201042e-02 3.166559e-02 3.188875e-02 3.180328e-02 3.174211e-02 3.196248e-02 3.158454e-02 3.212622e-02 3.143247e-02 3.227381e-02 3.130578e-02 3.238454e-02 3.122560e-02 3.243892e-02 3.121007e-02 3.241995e-02 3.126949e-02 3.231427e-02 3.140265e-02 3.211570e-02 3.159579e-02 3.182760e-02 3.181563e-02 3.145538e-02 3.198854e-02 3.098393e-02 3.195825e-02 3.033310e-02 3.140798e-02 2.928092e-02 2.982103e-02 2.741722e-02 2.620444e-02 2.535387e-02 2.423603e-02 2.437180e-02 
2.667067e-02 2.772955e-02 2.734657e-02 2.879822e-02 2.911005e-02 3.068878e-02 3.191459e-02 3.358189e-02 3.427204e-02 3.611139e-02 3.764147e-02 3.885460e-02 4.338134e-02 4.373119e-02 4.347505e-02 4.367596e-02 4.360068e-02 4.357044e-02 4.371329e-02 4.345669e-02 4.376626e-02 4.336102e-02 3.789691e-02 3.741160e-02 3.579874e-02 3.506321e-02 3.498309e-02 3.397477e-02 3.461214e-02 3.348524e-02 3.441397e-02 3.329527e-02 3.427884e-02 3.326444e-02 3.416689e-02 3.332112e-02 3.406523e-02 3.342270e-02 3.397096e-02 3.354190e-02 3.388699e-02 3.366315e-02 3.381939e-02 3.377860e-02 3.377352e-02 3.388529e-02 3.375439e-02 3.398801e-02 3.377227e-02 3.410387e-02 3.384475e-02 3.425538e-02 3.397512e-02 3.442354e-02 3.407734e-02 3.448564e-02 3.410415e-02 3.478751e-02 3.374581e-02 3.410506e-02 3.383679e-02 3.323602e-02 3.251821e-02 3.367781e-02 3.318536e-02 3.312663e-02 3.309302e-02 3.329343e-02 3.183615e-02 3.278185e-02 3.275535e-02 3.259140e-02 3.245246e-02 3.310366e-02 3.309715e-02 3.349194e-02 3.346514e-02 3.366108e-02 3.370245e-02 3.374373e-02 3.388369e-02 3.378893e-02 3.402180e-02 3.381275e-02 3.411713e-02 3.383009e-02 3.417159e-02 3.385617e-02 3.418693e-02 3.390214e-02 3.416393e-02 3.397359e-02 3.410440e-02 3.407125e-02 3.401335e-02 3.419119e-02 3.389941e-02 3.432496e-02 3.377465e-02 3.446041e-02 3.365406e-02 3.458288e-02 3.355366e-02 3.467609e-02 3.348811e-02 3.472401e-02 3.346898e-02 3.471395e-02 3.350243e-02 3.463776e-02 3.358498e-02 3.449184e-02 3.369937e-02 3.427580e-02 3.380781e-02 3.398271e-02 3.383533e-02 3.357240e-02 3.364047e-02 3.292120e-02 3.297761e-02 3.175971e-02 3.150945e-02 2.976943e-02 2.884606e-02 2.823630e-02 2.716970e-02 2.753071e-02 
2.379960e-02 2.469535e-02 2.481673e-02 2.624915e-02 2.699274e-02 2.869857e-02 3.003537e-02 3.166587e-02 3.238478e-02 3.410779e-02 3.584648e-02 3.721077e-02 4.191606e-02 4.192233e-02 4.172813e-02 4.189503e-02 4.182363e-02 4.182624e-02 4.189832e-02 4.173981e-02 4.192537e-02 4.205469e-02 3.666983e-02 3.582316e-02 3.408699e-02 3.329752e-02 3.311653e-02 3.204277e-02 3.265138e-02 3.141005e-02 3.238725e-02 3.111044e-02 3.220097e-02 3.100001e-02 3.204596e-02 3.100044e-02 3.190671e-02 3.106134e-02 3.177753e-02 3.114594e-02 3.165728e-02 3.123028e-02 3.154922e-02 3.130068e-02 3.145495e-02 3.134644e-02 3.137083e-02 3.136215e-02 3.129712e-02 3.135580e-02 3.124178e-02 3.134169e-02 3.120366e-02 3.130957e-02 3.113563e-02 3.121100e-02 3.106750e-02 3.131336e-02 3.079165e-02 3.097733e-02 3.111537e-02 3.078155e-02 3.062131e-02 3.137570e-02 3.091627e-02 3.068716e-02 3.086558e-02 3.096240e-02 3.036798e-02 3.112873e-02 3.116703e-02 3.078461e-02 3.073248e-02 3.104292e-02 3.119104e-02 3.126586e-02 3.145684e-02 3.134574e-02 3.164682e-02 3.137530e-02 3.180705e-02 3.138348e-02 3.193759e-02 3.138082e-02 3.203160e-02 3.138015e-02 3.208510e-02 3.139619e-02 3.209587e-02 3.144101e-02 3.206317e-02 3.152183e-02 3.198857e-02 3.163935e-02 3.187634e-02 3.178639e-02 3.173416e-02 3.195003e-02 3.157639e-02 3.211622e-02 3.142519e-02 3.226886e-02 3.130271e-02 3.238540e-02 3.122577e-02 3.244119e-02 3.120916e-02 3.241945e-02 3.126645e-02 3.231185e-02 3.140010e-02 3.211367e-02 3.159488e-02 3.182629e-02 3.181565e-02 3.145430e-02 3.198839e-02 3.098287e-02 3.195745e-02 3.033251e-02 3.140671e-02 2.928098e-02 2.981943e-02 2.741750e-02 2.620349e-02 2.535401e-02 2.423552e-02 2.437192e-02 
2.465626e-02 2.634383e-02 2.554987e-02 2.758402e-02 2.755388e-02 2.976000e-02 3.384694e-02 3.495145e-02 3.258174e-02 3.583175e-02 3.329671e-02 3.729724e-02 3.623754e-02 3.534165e-02 3.482538e-02 3.520464e-02 3.505452e-02 3.501505e-02 3.526078e-02 3.482691e-02 3.537356e-02 3.662581e-02 3.707240e-02 3.418555e-02 3.524655e-02 3.356588e-02 3.489739e-02 3.338223e-02 3.479118e-02 3.336048e-02 3.473394e-02 3.342292e-02 3.466786e-02 3.353243e-02 3.458300e-02 3.367012e-02 3.448553e-02 3.381746e-02 3.437986e-02 3.395460e-02 3.427131e-02 3.407040e-02 3.416963e-02 3.416138e-02 3.407988e-02 3.422196e-02 3.399965e-02 3.425215e-02 3.393558e-02 3.427034e-02 3.391024e-02 3.431313e-02 3.396749e-02 3.445066e-02 3.421001e-02 3.484020e-02 3.482963e-02 3.506906e-02 3.339778e-02 3.473199e-02 3.495519e-02 3.350831e-02 3.335223e-02 3.518973e-02 3.348905e-02 3.357887e-02 3.442741e-02 3.425140e-02 3.253232e-02 3.405073e-02 3.379827e-02 3.324705e-02 3.317390e-02 3.390135e-02 3.370489e-02 3.408729e-02 3.397455e-02 3.418521e-02 3.419532e-02 3.423456e-02 3.437320e-02 3.424724e-02 3.451313e-02 3.424215e-02 3.461666e-02 3.423652e-02 3.468073e-02 3.424533e-02 3.470191e-02 3.428215e-02 3.467983e-02 3.435609e-02 3.461568e-02 3.446861e-02 3.451260e-02 3.461233e-02 3.437614e-02 3.477335e-02 3.421882e-02 3.493905e-02 3.406449e-02 3.509757e-02 3.393639e-02 3.522720e-02 3.384854e-02 3.530063e-02 3.381426e-02 3.530310e-02 3.385186e-02 3.523096e-02 3.396812e-02 3.508121e-02 3.415360e-02 3.486369e-02 3.439148e-02 3.460670e-02 3.464409e-02 3.434838e-02 3.483432e-02 3.411971e-02 3.480103e-02 3.380412e-02 3.450754e-02 3.006846e-02 2.741421e-02 2.714617e-02 2.522858e-02 2.608811e-02 
1.862553e-02 2.035310e-02 2.040776e-02 2.314277e-02 2.579418e-02 3.490629e-02 3.556150e-02 3.494151e-02 3.028044e-02 3.290329e-02 2.814833e-02 3.112155e-02 2.498154e-02 2.508002e-02 2.461495e-02 2.496464e-02 2.481353e-02 2.480396e-02 2.499056e-02 2.464851e-02 2.508591e-02 2.541203e-02 3.102382e-02 2.889795e-02 3.210643e-02 3.034015e-02 3.282861e-02 3.107577e-02 3.321640e-02 3.149671e-02 3.338330e-02 3.178282e-02 3.339985e-02 3.200956e-02 3.332976e-02 3.222133e-02 3.322846e-02 3.242797e-02 3.311606e-02 3.260210e-02 3.299224e-02 3.272931e-02 3.288220e-02 3.282766e-02 3.280739e-02 3.288767e-02 3.273821e-02 3.288031e-02 3.265934e-02 3.282129e-02 3.258450e-02 3.272556e-02 3.248557e-02 3.255630e-02 3.231027e-02 3.232528e-02 3.211446e-02 3.258579e-02 3.245332e-02 3.250807e-02 3.226432e-02 3.290635e-02 3.285182e-02 3.242149e-02 3.317173e-02 3.339316e-02 3.282544e-02 3.349257e-02 3.351615e-02 3.346004e-02 3.308477e-02 3.399055e-02 3.363773e-02 3.342842e-02 3.311767e-02 3.305975e-02 3.304722e-02 3.293040e-02 3.313040e-02 3.284638e-02 3.326059e-02 3.277948e-02 3.340692e-02 3.272612e-02 3.353502e-02 3.268465e-02 3.361997e-02 3.266869e-02 3.364769e-02 3.269554e-02 3.361552e-02 3.278486e-02 3.352922e-02 3.294600e-02 3.338959e-02 3.315923e-02 3.318697e-02 3.338879e-02 3.293262e-02 3.362633e-02 3.268690e-02 3.387673e-02 3.249666e-02 3.409636e-02 3.236248e-02 3.421452e-02 3.229548e-02 3.421057e-02 3.235260e-02 3.409862e-02 3.256615e-02 3.386120e-02 3.292080e-02 3.349442e-02 3.342909e-02 3.305575e-02 3.413438e-02 3.264523e-02 3.512116e-02 3.246298e-02 3.660243e-02 3.293761e-02 4.029916e-02 3.494407e-02 2.187391e-02 2.227950e-02 1.883760e-02 1.998885e-02 
1.771098e-02 2.186619e-02 2.005493e-02 2.845819e-02 3.185055e-02 4.260738e-02 1.906222e-02 2.460084e-02 1.567124e-02 2.030147e-02 1.383492e-02 1.688731e-02 7.688363e-03 1.136079e-02 9.840684e-03 1.089551e-02 1.067442e-02 1.051008e-02 1.112235e-02 9.832600e-03 1.137449e-02 8.399463e-03 1.666576e-02 1.412894e-02 1.871011e-02 1.670269e-02 1.958727e-02 1.808077e-02 1.994536e-02 1.890417e-02 2.003556e-02 1.944913e-02 1.998006e-02 1.983673e-02 1.986194e-02 2.013479e-02 1.974542e-02 2.037684e-02 1.965216e-02 2.054420e-02 1.956866e-02 2.061992e-02 1.951479e-02 2.063446e-02 1.951412e-02 2.058680e-02 1.951961e-02 2.043369e-02 1.949205e-02 2.018792e-02 1.943034e-02 1.986486e-02 1.926870e-02 1.938777e-02 1.886643e-02 1.860247e-02 1.781108e-02 1.758767e-02 2.039942e-02 1.943464e-02 1.829303e-02 2.110493e-02 2.086327e-02 1.855134e-02 2.032415e-02 2.145177e-02 1.934750e-02 2.032845e-02 2.200822e-02 2.054763e-02 1.974892e-02 2.226086e-02 2.142098e-02 2.125426e-02 2.072469e-02 2.093965e-02 2.057195e-02 2.075108e-02 2.052238e-02 2.058820e-02 2.054534e-02 2.046983e-02 2.062106e-02 2.038787e-02 2.069550e-02 2.033060e-02 2.073320e-02 2.031246e-02 2.071641e-02 2.034844e-02 2.064079e-02 2.046042e-02 2.051803e-02 2.066071e-02 2.034697e-02 2.091867e-02 2.010844e-02 2.118152e-02 1.982112e-02 2.143374e-02 1.957030e-02 2.167928e-02 1.941462e-02 2.185812e-02 1.935715e-02 2.187537e-02 1.942360e-02 2.170321e-02 1.968925e-02 2.136618e-02 2.019739e-02 2.084538e-02 2.091575e-02 2.012991e-02 2.182105e-02 1.929044e-02 2.292483e-02 1.844938e-02 2.423127e-02 1.787451e-02 2.570947e-02 1.863825e-02 2.788115e-02 5.222081e-02 2.774057e-02 2.337423e-02 1.790214e-02 2.059925e-02 
6.338311e-03 8.179202e-03 1.076247e-02 1.448088e-02 3.036531e-02 2.565833e-03 2.063843e-02 1.359647e-02 1.340077e-02 1.446223e-02 1.077144e-02 1.486380e-02 8.383877e-03 1.578498e-02 1.011066e-02 1.641707e-02 1.122136e-02 1.627836e-02 1.166559e-02 1.465735e-02 1.150924e-02 1.112508e-02 1.262889e-02 1.194525e-02 1.295663e-02 1.221215e-02 1.337896e-02 1.231443e-02 1.370508e-02 1.234038e-02 1.391756e-02 1.234980e-02 1.402201e-02 1.236958e-02 1.404637e-02 1.241993e-02 1.401644e-02 1.250133e-02 1.393472e-02 1.259508e-02 1.381119e-02 1.269052e-02 1.367151e-02 1.279194e-02 1.352174e-02 1.288301e-02 1.334406e-02 1.293587e-02 1.313160e-02 1.294018e-02 1.287397e-02 1.286215e-02 1.251803e-02 1.261204e-02 1.195069e-02 1.205414e-02 1.107765e-02 1.192378e-02 1.272276e-02 1.310621e-02 1.198859e-02 1.406136e-02 1.329541e-02 1.278133e-02 1.321141e-02 1.461776e-02 1.307304e-02 1.394621e-02 1.452456e-02 1.395202e-02 1.345718e-02 1.492322e-02 1.468612e-02 1.420723e-02 1.403094e-02 1.379934e-02 1.381593e-02 1.356910e-02 1.374043e-02 1.341356e-02 1.373069e-02 1.330293e-02 1.375764e-02 1.321927e-02 1.379778e-02 1.315448e-02 1.383230e-02 1.310947e-02 1.385181e-02 1.309137e-02 1.385632e-02 1.310565e-02 1.384567e-02 1.315367e-02 1.381227e-02 1.323147e-02 1.374204e-02 1.332177e-02 1.363488e-02 1.341204e-02 1.350909e-02 1.352334e-02 1.336749e-02 1.366393e-02 1.320670e-02 1.381345e-02 1.304408e-02 1.398192e-02 1.290676e-02 1.419299e-02 1.281265e-02 1.441660e-02 1.276309e-02 1.462845e-02 1.275114e-02 1.481265e-02 1.279243e-02 1.490308e-02 1.297768e-02 1.478580e-02 1.366633e-02 1.432315e-02 2.038907e-02 3.625312e-02 2.236754e-02 6.959119e-03 7.011971e-03 6.770176e-03 
8.628572e-03 6.141679e-03 8.868832e-03 4.661875e-03 1.357367e-02 1.607192e-02 1.670137e-02 1.208918e-02 2.688962e-03 8.796187e-03 2.690642e-03 1.062113e-02 9.686080e-03 1.272735e-02 1.591091e-02 1.522161e-02 1.718455e-02 1.681504e-02 1.576048e-02 1.589691e-02 1.370167e-02 9.725474e-03 6.060846e-03 3.207591e-03 3.815279e-03 1.241310e-03 4.639559e-03 1.971259e-03 5.232845e-03 2.639265e-03 5.473579e-03 3.117012e-03 5.483189e-03 3.494259e-03 5.372378e-03 3.832668e-03 5.227592e-03 4.154872e-03 5.081346e-03 4.430066e-03 4.934435e-03 4.636378e-03 4.825161e-03 4.804637e-03 4.788743e-03 4.932966e-03 4.790170e-03 4.990674e-03 4.817967e-03 5.029964e-03 4.926371e-03 5.136515e-03 5.154538e-03 5.371584e-03 5.576978e-03 5.933992e-03 5.713179e-03 5.651872e-03 5.976486e-03 5.305279e-03 4.512964e-03 5.778418e-03 6.006382e-03 4.402302e-03 4.883036e-03 4.244774e-03 3.858797e-03 4.651802e-03 4.506991e-03 4.768197e-03 3.878710e-03 4.350752e-03 3.994951e-03 4.103460e-03 4.416696e-03 4.477718e-03 4.897423e-03 4.642132e-03 5.209842e-03 4.651206e-03 5.460660e-03 4.617009e-03 5.691578e-03 4.576323e-03 5.875482e-03 4.542640e-03 5.987052e-03 4.545042e-03 6.013671e-03 4.609845e-03 5.955402e-03 4.763189e-03 5.825352e-03 5.017428e-03 5.623387e-03 5.342270e-03 5.332443e-03 5.679229e-03 4.973737e-03 6.006444e-03 4.634451e-03 6.332249e-03 4.376897e-03 6.600429e-03 4.219570e-03 6.714725e-03 4.208998e-03 6.653063e-03 4.427366e-03 6.443902e-03 4.904734e-03 6.055916e-03 5.583180e-03 5.462182e-03 6.402999e-03 4.691995e-03 7.345885e-03 3.716408e-03 8.409188e-03 2.611770e-03 9.576562e-03 5.448468e-03 1.699916e-02 9.856314e-03 8.559748e-03 4.091338e-03 8.267666e-03 6.315005e-03 
3.971718e-03 6.115053e-04 4.161448e-03 3.045900e-03 4.963866e-03 1.030029e-02 8.434451e-03 4.812525e-03 2.488497e-03 5.477944e-03 5.386694e-03 1.121780e-02 1.704293e-02 1.675835e-02 7.679820e-03 5.480434e-03 3.859894e-03 2.570573e-03 4.879672e-03 7.943267e-03 1.725944e-02 1.653774e-02 9.721581e-03 6.086069e-03 3.642632e-03 2.687127e-03 1.368297e-03 1.806662e-03 3.824256e-04 1.716095e-03 3.669687e-04 1.670471e-03 6.764324e-04 1.555953e-03 9.374050e-04 1.388966e-03 1.147867e-03 1.201657e-03 1.310500e-03 1.037269e-03 1.436219e-03 9.231062e-04 1.517738e-03 8.582090e-04 1.542979e-03 8.505183e-04 1.533320e-03 9.148831e-04 1.504643e-03 1.023903e-03 1.441891e-03 1.123757e-03 1.367387e-03 1.257641e-03 1.461063e-03 1.079748e-03 1.047544e-03 1.383976e-03 2.207056e-03 2.403055e-03 1.036213e-03 2.535205e-03 2.117335e-03 1.714719e-03 1.806607e-03 2.276197e-03 1.182567e-03 1.425809e-03 2.185905e-03 1.157134e-03 1.088855e-03 1.752756e-03 1.790863e-03 1.303995e-03 1.398082e-03 9.862134e-04 9.730658e-04 8.625382e-04 7.454693e-04 9.264434e-04 5.905788e-04 1.016920e-03 4.527160e-04 1.087256e-03 3.409266e-04 1.127478e-03 2.747223e-04 1.121208e-03 2.835394e-04 1.055754e-03 3.854860e-04 9.204707e-04 5.623319e-04 7.173334e-04 7.917524e-04 4.857678e-04 1.065954e-03 3.154050e-04 1.364309e-03 3.424982e-04 1.628327e-03 5.173340e-04 1.802950e-03 6.670968e-04 1.864884e-03 6.907917e-04 1.792512e-03 5.834877e-04 1.553161e-03 5.173075e-04 1.166795e-03 8.368902e-04 8.264672e-04 1.508390e-03 9.806975e-04 2.346580e-03 1.566893e-03 3.206995e-03 2.110792e-03 4.024741e-03 2.026699e-03 5.402469e-03 3.671885e-03 2.993061e-03 4.309016e-03 1.427054e-03 4.183382e-03 1.135587e-03 
