# vtk DataFile Version 2.0
Comment goes here
ASCII

DATASET STRUCTURED_POINTS
FIELD FieldData 1
TIME 1 1 double
0.55000000
DIMENSIONS    128   16   1

ORIGIN    0.000   0.000   0.000
SPACING   0.0078125 0.015625   1.000

POINT_DATA   2048
SCALARS uMag double
LOOKUP_TABLE default

3.352186e-03 5.402250e-05 3.493804e-03 1.989502e-03 3.241931e-03 6.883065e-03 3.078792e-03 6.759297e-04 1.094378e-03 6.445580e-04 7.420417e-04 1.609583e-03 4.383099e-04 5.052792e-04 2.351515e-03 9.587272e-05 3.833076e-03 6.316090e-04 3.397142e-03 1.077169e-03 2.180288e-03 1.892857e-03 1.546593e-04 1.846212e-03 6.475812e-04 1.345359e-03 7.909566e-04 9.427891e-04 7.324044e-04 5.853989e-04 5.649225e-04 2.647739e-04 3.533047e-04 1.989755e-05 1.436327e-04 2.486215e-04 3.786629e-05 4.149258e-04 1.665782e-04 5.119206e-04 2.322550e-04 5.443565e-04 2.319713e-04 5.172943e-04 1.875927e-04 4.352714e-04 1.614579e-04 3.148836e-04 2.098718e-04 2.335091e-04 2.705729e-04 4.461864e-04 3.967678e-04 1.135568e-03 1.200081e-03 2.872049e-03 3.451345e-03 4.373796e-03 1.631952e-03 3.504594e-03 3.324658e-03 7.162664e-04 2.267903e-03 4.179146e-04 4.291399e-04 9.305543e-04 2.041663e-03 6.728288e-04 3.377440e-03 2.876325e-03 1.287023e-03 5.070045e-04 5.124616e-04 4.752123e-04 4.919458e-04 2.368491e-04 3.759906e-04 1.103476e-04 2.489015e-04 3.943716e-05 9.774207e-05 1.425716e-04 1.079277e-04 3.006024e-04 2.880015e-04 4.700906e-04 4.596226e-04 6.194101e-04 5.921809e-04 7.163974e-04 6.576099e-04 7.353880e-04 6.300897e-04 6.608547e-04 4.950162e-04 4.853132e-04 2.557563e-04 2.126956e-04 6.792513e-05 1.357716e-04 4.431578e-04 5.183318e-04 8.264118e-04 8.800838e-04 1.162679e-03 1.159359e-03 1.388260e-03 1.295893e-03 1.439624e-03 1.236737e-03 1.263646e-03 9.452791e-04 8.288463e-04 4.104142e-04 1.411908e-04 3.400030e-04 7.371144e-04 1.214090e-03 1.646323e-03 2.028245e-03 2.208451e-03 2.512039e-03 1.185389e-03 1.396202e-03 2.650675e-03 1.714013e-03 3.283173e-03 1.036805e-03 
2.886743e-03 2.809273e-04 3.353517e-03 1.910869e-03 5.640518e-03 8.358808e-03 6.758531e-03 2.004430e-03 1.522071e-03 1.399664e-03 3.118303e-03 1.625667e-03 6.536259e-03 2.837823e-03 5.337221e-03 1.484598e-03 4.687806e-03 7.226001e-04 3.987329e-03 1.918989e-03 4.207382e-03 3.811605e-03 1.147780e-03 1.035629e-03 8.020344e-04 1.548685e-04 5.016589e-04 4.482374e-04 3.600837e-04 6.065117e-04 4.630115e-04 6.031810e-04 6.849488e-04 5.126864e-04 9.052990e-04 4.007939e-04 1.097228e-03 3.099067e-04 1.246813e-03 2.612551e-04 1.331317e-03 2.743989e-04 1.338920e-03 3.476253e-04 1.289733e-03 4.708615e-04 1.222704e-03 6.521547e-04 1.171050e-03 8.972717e-04 1.169520e-03 1.224363e-03 1.320600e-03 1.773140e-03 2.002401e-03 3.193291e-03 3.647451e-03 3.802954e-03 3.257378e-03 3.020762e-03 7.098143e-03 9.667526e-03 1.797492e-03 6.138187e-03 6.150397e-03 3.864935e-03 3.663924e-03 9.731667e-03 6.070042e-03 3.553776e-03 8.169007e-03 4.892192e-03 9.689096e-04 1.825397e-03 1.776334e-03 1.164410e-03 1.299753e-03 8.377494e-04 1.107149e-03 7.869671e-04 9.636124e-04 8.812774e-04 8.244766e-04 1.053525e-03 6.843345e-04 1.252536e-03 5.442548e-04 1.426638e-03 4.161667e-04 1.532518e-03 3.391119e-04 1.554455e-03 3.668734e-04 1.497255e-03 5.225090e-04 1.357784e-03 7.893725e-04 1.123814e-03 1.127637e-03 8.110921e-04 1.497665e-03 4.949352e-04 1.869541e-03 3.352461e-04 2.203132e-03 4.092956e-04 2.434657e-03 4.980889e-04 2.500735e-03 4.860904e-04 2.357780e-03 4.642424e-04 1.986378e-03 7.750220e-04 1.426605e-03 1.447901e-03 9.161895e-04 2.314474e-03 1.132613e-03 3.214237e-03 1.756438e-03 4.184743e-03 1.730852e-03 4.180489e-03 4.396643e-03 1.984247e-03 3.295832e-03 8.437713e-04 
3.719552e-03 1.511088e-03 5.097908e-03 2.662606e-03 1.428100e-02 1.292752e-03 1.755381e-02 6.866186e-03 3.599702e-03 4.447504e-03 3.247098e-03 6.468441e-03 5.135890e-03 3.352161e-03 5.442586e-03 3.553056e-03 5.433114e-03 4.532672e-03 4.723544e-03 5.851917e-03 4.441996e-03 6.440326e-03 4.681933e-03 4.290518e-03 1.927724e-03 3.789341e-03 9.885407e-04 3.397924e-03 7.249072e-04 3.045777e-03 9.107395e-04 2.691278e-03 1.195429e-03 2.328987e-03 1.458180e-03 2.005800e-03 1.700988e-03 1.761017e-03 1.920154e-03 1.591040e-03 2.067011e-03 1.472953e-03 2.103246e-03 1.400365e-03 2.057339e-03 1.386910e-03 1.990388e-03 1.441954e-03 1.920666e-03 1.525210e-03 1.816707e-03 1.561535e-03 1.725179e-03 1.625449e-03 2.130348e-03 2.217797e-03 1.954289e-03 2.779458e-03 2.728044e-03 3.181828e-03 3.237287e-03 2.578449e-03 3.148051e-03 2.160942e-03 3.195486e-03 1.187139e-03 1.894235e-03 1.533116e-03 4.724768e-03 4.643641e-03 2.470052e-03 1.442462e-03 5.455733e-04 2.028141e-04 8.729591e-04 6.597676e-04 1.387451e-03 1.103925e-03 1.579062e-03 1.426047e-03 1.597955e-03 1.719503e-03 1.532740e-03 2.020649e-03 1.420477e-03 2.316719e-03 1.266514e-03 2.557382e-03 1.085322e-03 2.691929e-03 9.409806e-04 2.724139e-03 9.241231e-04 2.696535e-03 1.085770e-03 2.609707e-03 1.400135e-03 2.410309e-03 1.785580e-03 2.083971e-03 2.172756e-03 1.690650e-03 2.546059e-03 1.289961e-03 2.900127e-03 8.847107e-04 3.181610e-03 5.255565e-04 3.334525e-03 5.547967e-04 3.337893e-03 1.059887e-03 3.184304e-03 1.764056e-03 2.899130e-03 2.610988e-03 2.530278e-03 3.578114e-03 2.137591e-03 4.520216e-03 1.973037e-03 5.330103e-03 5.353682e-03 1.202210e-02 8.326373e-03 3.950759e-03 4.628972e-03 1.971300e-03 
1.363712e-03 2.873329e-03 7.995015e-04 7.464531e-03 1.315395e-02 1.588027e-02 9.069857e-03 2.423382e-03 3.576942e-03 2.193179e-03 4.717316e-03 3.435430e-03 6.971084e-03 2.048953e-03 5.654886e-03 1.429971e-03 4.702981e-03 1.571667e-03 4.024882e-03 2.447094e-03 3.459493e-03 4.078320e-03 2.360602e-03 2.258106e-03 1.379871e-03 1.813071e-03 1.286563e-03 1.673155e-03 1.231622e-03 1.649458e-03 1.188829e-03 1.577749e-03 1.125021e-03 1.433119e-03 9.550264e-04 1.260444e-03 6.826705e-04 1.055294e-03 4.212099e-04 7.920010e-04 2.830648e-04 5.408328e-04 2.413136e-04 4.320429e-04 2.472980e-04 4.078849e-04 3.523648e-04 4.192568e-04 4.070702e-04 5.549099e-04 2.471875e-04 8.662046e-04 1.729340e-04 1.383386e-03 9.570346e-04 2.310676e-03 1.631787e-03 1.864359e-03 4.675450e-04 5.567408e-04 2.465546e-03 3.727056e-03 1.957213e-03 2.116144e-03 4.164122e-04 3.489303e-05 5.373748e-04 3.608995e-03 1.560321e-03 2.127763e-03 1.798274e-03 2.287336e-04 6.887726e-04 3.213539e-04 5.799618e-04 3.151489e-04 5.195111e-04 4.570656e-04 5.084510e-04 5.981489e-04 5.755429e-04 6.956681e-04 6.783055e-04 7.680760e-04 7.140842e-04 8.354589e-04 5.996819e-04 8.895810e-04 3.435735e-04 8.832764e-04 6.161118e-05 8.429252e-04 1.746665e-04 9.417376e-04 4.184087e-04 1.159699e-03 7.491472e-04 1.313926e-03 1.091517e-03 1.379641e-03 1.276296e-03 1.395181e-03 1.228063e-03 1.305777e-03 1.015865e-03 1.009613e-03 7.268508e-04 5.267750e-04 5.666223e-04 3.279205e-04 9.747823e-04 1.019649e-03 1.689543e-03 1.813669e-03 2.489357e-03 2.543247e-03 3.220384e-03 3.119977e-03 3.618060e-03 3.307680e-03 2.993308e-03 2.165753e-03 4.131638e-03 2.561721e-02 3.961252e-03 8.051450e-03 3.959605e-03 2.446128e-03 
4.451229e-03 1.735887e-03 6.908380e-03 5.232221e-03 6.793425e-03 1.420777e-02 1.402612e-02 1.844056e-03 1.912945e-03 1.803750e-03 2.740343e-03 3.314664e-03 6.249800e-03 4.259833e-03 5.644662e-03 4.818910e-03 5.260869e-03 5.224564e-03 4.788612e-03 5.882746e-03 4.000490e-03 7.008887e-03 2.670710e-03 3.940828e-03 1.565610e-03 2.719340e-03 1.141457e-03 2.026273e-03 1.138785e-03 1.635813e-03 1.345612e-03 1.370135e-03 1.570632e-03 1.153467e-03 1.722862e-03 1.000013e-03 1.810370e-03 8.802972e-04 1.861177e-03 7.364483e-04 1.849090e-03 5.924271e-04 1.733023e-03 5.273212e-04 1.531157e-03 5.336880e-04 1.306468e-03 5.633131e-04 1.065483e-03 5.425274e-04 7.228092e-04 3.348823e-04 4.758326e-04 2.759629e-04 1.494102e-03 1.768287e-03 3.643768e-03 2.565108e-03 2.162850e-03 1.847734e-03 4.571032e-03 3.698877e-03 1.640193e-03 2.715284e-03 1.373431e-03 1.118968e-03 2.315231e-03 3.570122e-03 1.979827e-03 1.722764e-03 2.471461e-03 1.545135e-03 7.871264e-04 1.922760e-04 1.064607e-03 4.736681e-04 1.265868e-03 6.635244e-04 1.330660e-03 8.317640e-04 1.331220e-03 1.002883e-03 1.304654e-03 1.193438e-03 1.240417e-03 1.393525e-03 1.109907e-03 1.556442e-03 9.270500e-04 1.624214e-03 7.827866e-04 1.602104e-03 7.719419e-04 1.566927e-03 9.358397e-04 1.532546e-03 1.257734e-03 1.422231e-03 1.650699e-03 1.233025e-03 2.012650e-03 1.061925e-03 2.316427e-03 9.396474e-04 2.574652e-03 7.677567e-04 2.744670e-03 5.029434e-04 2.767798e-03 1.983805e-04 2.629260e-03 5.103104e-04 2.342748e-03 1.224789e-03 2.003490e-03 2.161528e-03 1.831195e-03 3.330472e-03 2.077166e-03 4.588459e-03 2.870997e-03 5.257487e-03 5.965918e-03 1.909386e-02 8.391485e-03 8.397028e-03 6.652818e-03 3.513091e-03 
7.130055e-03 6.526210e-03 8.342417e-03 8.996410e-03 1.260114e-02 1.019025e-02 1.220995e-02 4.504147e-03 6.666105e-03 4.601323e-03 6.682672e-03 6.316348e-03 6.679306e-03 5.818393e-03 6.353891e-03 5.975429e-03 6.189742e-03 6.167190e-03 5.985583e-03 6.343808e-03 5.789086e-03 7.020016e-03 5.142213e-03 5.902932e-03 3.968126e-03 6.218716e-03 4.245564e-03 6.367378e-03 4.579157e-03 6.375796e-03 4.889293e-03 6.276795e-03 5.157776e-03 6.106167e-03 5.387129e-03 5.921074e-03 5.594244e-03 5.767460e-03 5.775363e-03 5.650923e-03 5.896712e-03 5.552057e-03 5.929260e-03 5.466968e-03 5.885895e-03 5.414073e-03 5.801862e-03 5.400082e-03 5.688907e-03 5.390061e-03 5.520927e-03 5.322129e-03 5.276994e-03 5.193080e-03 5.099823e-03 5.180541e-03 4.202596e-03 4.843567e-03 4.038580e-03 4.944797e-03 4.175550e-03 2.779185e-03 3.039180e-03 4.329010e-03 4.453205e-03 3.424392e-03 3.877223e-03 2.925010e-03 2.443802e-03 2.709556e-03 3.559067e-03 3.454126e-03 3.783503e-03 3.682910e-03 4.473003e-03 4.408450e-03 5.045021e-03 4.905174e-03 5.335633e-03 5.255539e-03 5.450105e-03 5.550589e-03 5.466445e-03 5.827392e-03 5.427671e-03 6.083064e-03 5.353945e-03 6.287677e-03 5.256688e-03 6.411260e-03 5.167808e-03 6.458484e-03 5.144822e-03 6.454141e-03 5.228366e-03 6.397974e-03 5.407025e-03 6.257834e-03 5.639000e-03 6.021542e-03 5.898624e-03 5.727096e-03 6.181574e-03 5.431033e-03 6.468723e-03 5.170340e-03 6.710292e-03 4.974098e-03 6.859258e-03 4.888038e-03 6.885203e-03 4.955705e-03 6.760984e-03 5.203741e-03 6.469276e-03 5.641378e-03 5.994046e-03 6.237034e-03 5.296260e-03 6.896756e-03 4.358567e-03 7.540726e-03 5.091976e-03 9.711512e-03 1.284000e-02 8.628466e-03 8.606622e-03 6.543360e-03 
7.891641e-03 7.274278e-03 8.263308e-03 8.688385e-03 9.698765e-03 1.222508e-02 8.589512e-03 7.269334e-03 9.424863e-03 6.936522e-03 8.867641e-03 6.939548e-03 7.649185e-03 6.363231e-03 6.928556e-03 6.519117e-03 6.728401e-03 6.731601e-03 6.495961e-03 6.947105e-03 6.303622e-03 8.351626e-03 7.332360e-03 8.151547e-03 6.834489e-03 8.550392e-03 6.989406e-03 8.652981e-03 7.142020e-03 8.620843e-03 7.302278e-03 8.508920e-03 7.468048e-03 8.352788e-03 7.631654e-03 8.183959e-03 7.784932e-03 8.025380e-03 7.915554e-03 7.886217e-03 8.006706e-03 7.766664e-03 8.046066e-03 7.666839e-03 8.034811e-03 7.589224e-03 7.984405e-03 7.534031e-03 7.907958e-03 7.497556e-03 7.823567e-03 7.488358e-03 7.783167e-03 7.576801e-03 7.954271e-03 7.970601e-03 8.330668e-03 7.667764e-03 7.574492e-03 7.813408e-03 8.547842e-03 9.160517e-03 9.036793e-03 8.402967e-03 8.270736e-03 7.851122e-03 8.298245e-03 8.387141e-03 9.193085e-03 8.234968e-03 9.113607e-03 8.109185e-03 8.114866e-03 7.639778e-03 8.030686e-03 7.594235e-03 8.001110e-03 7.658310e-03 7.999842e-03 7.775681e-03 7.980205e-03 7.915270e-03 7.934965e-03 8.062252e-03 7.871389e-03 8.202433e-03 7.799831e-03 8.318668e-03 7.732250e-03 8.395915e-03 7.685994e-03 8.428924e-03 7.682151e-03 8.419064e-03 7.734285e-03 8.364784e-03 7.840169e-03 8.260435e-03 7.986150e-03 8.108749e-03 8.157176e-03 7.928099e-03 8.339255e-03 7.744444e-03 8.513945e-03 7.582465e-03 8.656374e-03 7.465487e-03 8.742326e-03 7.416554e-03 8.753676e-03 7.453115e-03 8.680019e-03 7.579842e-03 8.522496e-03 7.780331e-03 8.299957e-03 8.007863e-03 8.071260e-03 8.209326e-03 8.019077e-03 8.522600e-03 8.481494e-03 1.042139e-02 9.559709e-03 8.237855e-03 8.309558e-03 7.236214e-03 
8.453119e-03 8.334939e-03 8.461130e-03 8.710774e-03 8.706003e-03 9.324288e-03 8.591643e-03 8.284288e-03 8.273422e-03 7.751322e-03 7.610050e-03 7.785271e-03 6.690506e-03 6.259107e-03 6.492081e-03 6.290225e-03 6.387400e-03 6.370039e-03 6.299831e-03 6.470504e-03 6.260478e-03 6.985247e-03 8.681458e-03 8.239305e-03 8.029130e-03 8.499293e-03 7.662675e-03 8.591275e-03 7.525412e-03 8.606616e-03 7.542569e-03 8.569251e-03 7.646852e-03 8.493123e-03 7.790646e-03 8.397497e-03 7.944240e-03 8.302181e-03 8.087008e-03 8.220822e-03 8.203408e-03 8.161463e-03 8.286445e-03 8.132009e-03 8.341812e-03 8.142361e-03 8.385438e-03 8.201828e-03 8.438608e-03 8.320211e-03 8.532994e-03 8.525605e-03 8.737322e-03 8.903850e-03 9.195991e-03 9.599110e-03 9.833601e-03 1.002208e-02 9.869840e-03 9.886485e-03 1.002666e-02 1.012937e-02 9.412440e-03 9.154476e-03 9.650169e-03 9.726592e-03 9.650279e-03 9.481266e-03 9.538172e-03 8.797007e-03 9.279363e-03 9.638664e-03 9.634193e-03 8.945099e-03 8.919134e-03 8.449176e-03 8.519866e-03 8.263081e-03 8.320978e-03 8.255009e-03 8.199959e-03 8.329831e-03 8.101294e-03 8.440774e-03 8.010374e-03 8.559655e-03 7.928035e-03 8.663439e-03 7.861663e-03 8.734094e-03 7.823977e-03 8.761707e-03 7.830030e-03 8.742572e-03 7.889298e-03 8.674409e-03 7.999807e-03 8.556428e-03 8.150307e-03 8.395712e-03 8.326188e-03 8.210785e-03 8.510832e-03 8.027081e-03 8.682583e-03 7.870187e-03 8.814650e-03 7.763393e-03 8.880606e-03 7.727009e-03 8.859429e-03 7.774452e-03 8.739053e-03 7.908127e-03 8.522588e-03 8.117129e-03 8.239087e-03 8.379203e-03 7.967601e-03 8.678800e-03 7.889924e-03 9.047574e-03 8.298786e-03 9.324949e-03 8.969244e-03 8.802926e-03 8.707432e-03 8.385335e-03 
8.533240e-03 8.307246e-03 8.606511e-03 8.776241e-03 8.800939e-03 9.289292e-03 8.628564e-03 8.236138e-03 8.415611e-03 7.577754e-03 7.818258e-03 7.723176e-03 7.018034e-03 6.618597e-03 6.913747e-03 6.678773e-03 6.780844e-03 6.797548e-03 6.652065e-03 6.927531e-03 6.580006e-03 7.028823e-03 8.943644e-03 8.723503e-03 8.427629e-03 8.939594e-03 8.022877e-03 8.951410e-03 7.834086e-03 8.880148e-03 7.801938e-03 8.771435e-03 7.863848e-03 8.643376e-03 7.972000e-03 8.510043e-03 8.094848e-03 8.384788e-03 8.212158e-03 8.278543e-03 8.311740e-03 8.199680e-03 8.389444e-03 8.155609e-03 8.450139e-03 8.154320e-03 8.507974e-03 8.206292e-03 8.587917e-03 8.331274e-03 8.736732e-03 8.581229e-03 9.055980e-03 9.085516e-03 9.743337e-03 1.004936e-02 1.086067e-02 1.073576e-02 1.053048e-02 1.036128e-02 1.074763e-02 1.069186e-02 1.076467e-02 1.054149e-02 1.031571e-02 9.713046e-03 1.007001e-02 9.838997e-03 1.016108e-02 9.601036e-03 9.827367e-03 9.067533e-03 9.234897e-03 8.723769e-03 8.984871e-03 8.501414e-03 8.768260e-03 8.402350e-03 8.626675e-03 8.397219e-03 8.510064e-03 8.437295e-03 8.398563e-03 8.500586e-03 8.294185e-03 8.572229e-03 8.204009e-03 8.637365e-03 8.136087e-03 8.682382e-03 8.098798e-03 8.696840e-03 8.099352e-03 8.674176e-03 8.141504e-03 8.611881e-03 8.223872e-03 8.512014e-03 8.339733e-03 8.382304e-03 8.477908e-03 8.236267e-03 8.623485e-03 8.091346e-03 8.758447e-03 7.966317e-03 8.863322e-03 7.878680e-03 8.919666e-03 7.841691e-03 8.913087e-03 7.861506e-03 8.837339e-03 7.935217e-03 8.699755e-03 8.051201e-03 8.529676e-03 8.197092e-03 8.392539e-03 8.381558e-03 8.398826e-03 8.657611e-03 8.636751e-03 8.988240e-03 8.841080e-03 8.582897e-03 8.657939e-03 8.254280e-03 
8.453739e-03 8.335059e-03 8.461519e-03 8.710880e-03 8.706274e-03 9.324483e-03 8.591681e-03 8.284476e-03 8.273488e-03 7.751572e-03 7.610111e-03 7.785420e-03 6.690562e-03 6.258893e-03 6.492066e-03 6.289869e-03 6.387272e-03 6.369483e-03 6.299524e-03 6.469678e-03 6.259801e-03 6.983371e-03 8.679229e-03 8.237553e-03 8.029048e-03 8.498494e-03 7.664772e-03 8.590573e-03 7.528003e-03 8.604306e-03 7.544877e-03 8.566258e-03 7.650242e-03 8.491591e-03 7.795687e-03 8.398163e-03 7.950122e-03 8.305871e-03 8.094607e-03 8.231770e-03 8.218445e-03 8.188972e-03 8.319536e-03 8.188086e-03 8.404424e-03 8.237393e-03 8.486824e-03 8.343474e-03 8.587317e-03 8.515474e-03 8.738211e-03 8.778114e-03 9.000653e-03 9.202069e-03 9.495769e-03 9.904867e-03 1.022667e-02 1.042258e-02 1.021090e-02 1.013502e-02 1.007385e-02 1.012316e-02 9.698507e-03 9.420954e-03 9.582688e-03 9.749366e-03 9.675981e-03 9.542778e-03 9.748603e-03 9.055524e-03 9.204871e-03 9.358447e-03 9.560447e-03 9.040824e-03 9.137615e-03 8.717396e-03 8.833210e-03 8.557134e-03 8.614726e-03 8.507858e-03 8.433013e-03 8.526058e-03 8.269963e-03 8.584240e-03 8.123886e-03 8.659802e-03 8.000674e-03 8.732975e-03 7.910014e-03 8.786154e-03 7.861292e-03 8.803762e-03 7.860968e-03 8.774301e-03 7.911900e-03 8.693292e-03 8.013072e-03 8.564649e-03 8.158035e-03 8.399525e-03 8.333129e-03 8.214468e-03 8.517863e-03 8.030455e-03 8.687684e-03 7.872263e-03 8.817389e-03 7.765179e-03 8.882248e-03 7.729272e-03 8.860134e-03 7.776286e-03 8.738215e-03 7.908669e-03 8.520618e-03 8.116807e-03 8.237502e-03 8.379131e-03 7.967729e-03 8.679582e-03 7.891844e-03 9.048666e-03 8.301253e-03 9.325543e-03 8.970950e-03 8.803300e-03 8.708498e-03 8.385552e-03 
7.892771e-03 7.274339e-03 8.264043e-03 8.688424e-03 9.699380e-03 1.222553e-02 8.589566e-03 7.269434e-03 9.425021e-03 6.936795e-03 8.867795e-03 6.939865e-03 7.649975e-03 6.363101e-03 6.928718e-03 6.518803e-03 6.728500e-03 6.731175e-03 6.495542e-03 6.946070e-03 6.301833e-03 8.349826e-03 7.331106e-03 8.148375e-03 6.837571e-03 8.550713e-03 6.997960e-03 8.655872e-03 7.153220e-03 8.623172e-03 7.315491e-03 8.513521e-03 7.487051e-03 8.365060e-03 7.658940e-03 8.206732e-03 7.820953e-03 8.062430e-03 7.964184e-03 7.948122e-03 8.081475e-03 7.873722e-03 8.170940e-03 7.844882e-03 8.235646e-03 7.861178e-03 8.281759e-03 7.916524e-03 8.317310e-03 8.000743e-03 8.350655e-03 8.100828e-03 8.389020e-03 8.210710e-03 8.461201e-03 8.354147e-03 8.576521e-03 8.841856e-03 9.358943e-03 8.540577e-03 8.602178e-03 9.071346e-03 8.783367e-03 8.330934e-03 8.852765e-03 8.344087e-03 8.317849e-03 8.236621e-03 8.640135e-03 7.930770e-03 8.269678e-03 7.810165e-03 8.136162e-03 7.770189e-03 8.422137e-03 8.019699e-03 8.524876e-03 8.110452e-03 8.459412e-03 8.150230e-03 8.327294e-03 8.198978e-03 8.176010e-03 8.266510e-03 8.026351e-03 8.342761e-03 7.893452e-03 8.414515e-03 7.792211e-03 8.468714e-03 7.734195e-03 8.490563e-03 7.724865e-03 8.466661e-03 7.766082e-03 8.391812e-03 7.858067e-03 8.270295e-03 7.995872e-03 8.112544e-03 8.166559e-03 7.932776e-03 8.349729e-03 7.748832e-03 8.521310e-03 7.584595e-03 8.659576e-03 7.467501e-03 8.744027e-03 7.420001e-03 8.754149e-03 7.456183e-03 8.677921e-03 7.580815e-03 8.518693e-03 7.779661e-03 8.297237e-03 8.007353e-03 8.071825e-03 8.210501e-03 8.022939e-03 8.524637e-03 8.486158e-03 1.042237e-02 9.562722e-03 8.238498e-03 8.311462e-03 7.236517e-03 
7.131322e-03 6.526382e-03 8.343370e-03 8.996573e-03 1.260280e-02 1.019103e-02 1.221022e-02 4.504546e-03 6.666093e-03 4.602680e-03 6.683180e-03 6.317362e-03 6.679713e-03 5.818193e-03 6.354071e-03 5.974593e-03 6.189580e-03 6.165896e-03 5.985324e-03 6.341729e-03 5.787419e-03 7.011908e-03 5.130624e-03 5.891296e-03 3.965802e-03 6.220154e-03 4.258931e-03 6.372312e-03 4.590895e-03 6.365740e-03 4.891651e-03 6.260282e-03 5.165611e-03 6.099306e-03 5.404342e-03 5.918894e-03 5.605081e-03 5.757869e-03 5.767259e-03 5.637940e-03 5.882392e-03 5.568114e-03 5.950151e-03 5.555868e-03 5.979122e-03 5.598038e-03 5.976189e-03 5.678474e-03 5.950363e-03 5.783380e-03 5.925409e-03 5.906052e-03 5.922274e-03 6.029276e-03 5.962388e-03 6.167925e-03 6.091835e-03 5.968804e-03 5.053319e-03 5.677087e-03 5.493827e-03 4.971941e-03 5.168683e-03 5.575182e-03 4.870699e-03 4.729513e-03 5.237780e-03 4.869513e-03 4.624971e-03 5.122267e-03 5.476299e-03 4.435979e-03 5.044004e-03 5.112195e-03 5.877474e-03 5.562428e-03 6.132786e-03 5.762746e-03 6.137029e-03 5.897963e-03 6.029986e-03 6.034107e-03 5.866428e-03 6.171939e-03 5.670633e-03 6.300932e-03 5.478050e-03 6.419288e-03 5.328962e-03 6.518162e-03 5.246113e-03 6.571128e-03 5.234149e-03 6.548276e-03 5.292554e-03 6.437390e-03 5.426427e-03 6.251499e-03 5.638789e-03 6.012411e-03 5.912162e-03 5.736731e-03 6.208272e-03 5.443100e-03 6.484507e-03 5.171068e-03 6.712729e-03 4.975698e-03 6.863100e-03 4.897959e-03 6.889398e-03 4.964387e-03 6.756344e-03 5.203316e-03 6.456618e-03 5.635109e-03 5.983319e-03 6.233151e-03 5.295552e-03 6.900059e-03 4.367697e-03 7.545887e-03 5.097733e-03 9.710910e-03 1.284388e-02 8.629676e-03 8.609077e-03 6.543982e-03 
4.452333e-03 1.735043e-03 6.909211e-03 5.232651e-03 6.794977e-03 1.421201e-02 1.402630e-02 1.844924e-03 1.913111e-03 1.804163e-03 2.740856e-03 3.315724e-03 6.249118e-03 4.258898e-03 5.643609e-03 4.817811e-03 5.261928e-03 5.225724e-03 4.790776e-03 5.883340e-03 3.992540e-03 6.996469e-03 2.655906e-03 3.926481e-03 1.588232e-03 2.730869e-03 1.168815e-03 2.045672e-03 1.165948e-03 1.633669e-03 1.367728e-03 1.377515e-03 1.594675e-03 1.176581e-03 1.768587e-03 9.999247e-04 1.866034e-03 8.505378e-04 1.903140e-03 7.273627e-04 1.887574e-03 6.667221e-04 1.828767e-03 7.026627e-04 1.744332e-03 8.178053e-04 1.633432e-03 9.591370e-04 1.488238e-03 1.076360e-03 1.327177e-03 1.144918e-03 1.177238e-03 1.165886e-03 1.211281e-03 1.222330e-03 8.825586e-04 2.299545e-03 1.748190e-03 3.774190e-04 1.068257e-03 7.583245e-04 3.664376e-04 7.654853e-04 2.124032e-03 1.502101e-03 1.453159e-03 1.425319e-03 1.722881e-03 1.846983e-03 2.856854e-03 2.710857e-03 3.647390e-03 2.672280e-03 2.817765e-03 1.672717e-03 2.221477e-03 1.264778e-03 1.910719e-03 1.190554e-03 1.713135e-03 1.276117e-03 1.528005e-03 1.404821e-03 1.319664e-03 1.509425e-03 1.114000e-03 1.584685e-03 9.413202e-04 1.646194e-03 8.233809e-04 1.675490e-03 8.276705e-04 1.636840e-03 1.002263e-03 1.525178e-03 1.287810e-03 1.384842e-03 1.626037e-03 1.249509e-03 1.989192e-03 1.101683e-03 2.332896e-03 9.260180e-04 2.595995e-03 7.425286e-04 2.747050e-03 5.052523e-04 2.773839e-03 1.860919e-04 2.637143e-03 5.309252e-04 2.331629e-03 1.236387e-03 1.981530e-03 2.147064e-03 1.831419e-03 3.306830e-03 2.093665e-03 4.575641e-03 2.868773e-03 5.258106e-03 5.952475e-03 1.907985e-02 8.392706e-03 8.400001e-03 6.654822e-03 3.514920e-03 
1.364733e-03 2.873242e-03 7.996206e-04 7.465552e-03 1.315544e-02 1.588320e-02 9.072687e-03 2.423046e-03 3.578281e-03 2.193556e-03 4.717457e-03 3.433604e-03 6.971214e-03 2.051931e-03 5.658822e-03 1.429073e-03 4.710635e-03 1.568976e-03 4.030113e-03 2.459876e-03 3.443401e-03 4.086909e-03 2.365144e-03 2.240929e-03 1.331604e-03 1.810341e-03 1.264664e-03 1.674538e-03 1.259503e-03 1.635016e-03 1.197281e-03 1.581757e-03 1.087170e-03 1.450026e-03 9.272068e-04 1.258137e-03 6.959872e-04 1.040307e-03 4.397894e-04 8.150196e-04 2.410885e-04 6.286159e-04 2.505628e-04 5.268573e-04 4.071876e-04 5.263961e-04 5.343411e-04 6.067544e-04 6.120191e-04 7.010496e-04 6.709960e-04 8.125762e-04 7.668924e-04 1.094293e-03 1.138629e-03 1.461066e-03 9.543909e-04 1.430197e-03 1.453861e-03 5.370055e-04 5.490538e-04 1.445290e-03 3.940847e-04 1.275196e-03 1.703022e-03 8.975897e-04 5.911841e-04 1.472774e-03 3.157028e-04 1.790721e-04 1.105423e-03 1.217415e-03 1.151726e-03 1.227446e-03 1.052150e-03 8.168363e-04 5.962228e-04 6.987904e-04 5.120902e-04 7.260268e-04 5.973426e-04 8.241758e-04 6.367691e-04 9.268732e-04 6.045028e-04 9.527634e-04 5.380493e-04 8.979474e-04 4.136643e-04 8.499582e-04 1.805442e-04 8.731535e-04 1.608356e-04 9.633589e-04 5.423942e-04 1.107201e-03 8.667125e-04 1.291095e-03 1.084449e-03 1.438293e-03 1.200888e-03 1.451676e-03 1.203284e-03 1.291471e-03 1.038087e-03 9.812592e-04 7.169045e-04 5.300093e-04 5.609160e-04 3.304112e-04 9.702318e-04 1.050074e-03 1.662094e-03 1.841810e-03 2.471629e-03 2.537982e-03 3.229533e-03 3.084750e-03 3.640788e-03 3.269640e-03 3.002530e-03 2.151317e-03 4.144395e-03 2.560278e-02 3.964109e-03 8.053946e-03 3.961095e-03 2.448083e-03 
3.720627e-03 1.511223e-03 5.098708e-03 2.662776e-03 1.428258e-02 1.293214e-03 1.755683e-02 6.867077e-03 3.601052e-03 4.448612e-03 3.247840e-03 6.471067e-03 5.134765e-03 3.347773e-03 5.441885e-03 3.548298e-03 5.437150e-03 4.530523e-03 4.731817e-03 5.850042e-03 4.450987e-03 6.426472e-03 4.675858e-03 4.279288e-03 1.944902e-03 3.796243e-03 1.003047e-03 3.405405e-03 7.281764e-04 3.030724e-03 9.061660e-04 2.669214e-03 1.194774e-03 2.316821e-03 1.467656e-03 1.988888e-03 1.695626e-03 1.719544e-03 1.872715e-03 1.526110e-03 1.982638e-03 1.411592e-03 2.018047e-03 1.372527e-03 1.982690e-03 1.386197e-03 1.870213e-03 1.402159e-03 1.667148e-03 1.349751e-03 1.369562e-03 1.139136e-03 1.025145e-03 7.323289e-04 1.411177e-03 1.450423e-03 2.993134e-03 1.418566e-03 1.493965e-03 1.645568e-03 3.526976e-04 2.597399e-03 1.747663e-03 1.317744e-03 3.704903e-03 4.455917e-03 3.133218e-03 3.554673e-03 4.486388e-03 3.175632e-03 4.338080e-03 5.366558e-03 5.591004e-03 4.241840e-03 4.125403e-03 2.950204e-03 3.156610e-03 2.354037e-03 2.608711e-03 2.178295e-03 2.238524e-03 2.221864e-03 1.923884e-03 2.354045e-03 1.618363e-03 2.502431e-03 1.339543e-03 2.643782e-03 1.122685e-03 2.762618e-03 9.972933e-04 2.822097e-03 1.002301e-03 2.782078e-03 1.155054e-03 2.627798e-03 1.422821e-03 2.383085e-03 1.769891e-03 2.076104e-03 2.168226e-03 1.712764e-03 2.569196e-03 1.300837e-03 2.916481e-03 8.782670e-04 3.181045e-03 5.260814e-04 3.338706e-03 5.667822e-04 3.342919e-03 1.079843e-03 3.174204e-03 1.775600e-03 2.880395e-03 2.604012e-03 2.524670e-03 3.563955e-03 2.148210e-03 4.515980e-03 1.972900e-03 5.336813e-03 5.352028e-03 1.202111e-02 8.330231e-03 3.950831e-03 4.630932e-03 1.971710e-03 
2.887444e-03 2.809589e-04 3.354139e-03 1.911163e-03 5.641259e-03 8.359781e-03 6.760006e-03 2.005421e-03 1.522371e-03 1.400160e-03 3.117308e-03 1.625813e-03 6.535058e-03 2.841012e-03 5.337828e-03 1.488252e-03 4.688778e-03 7.190595e-04 3.988847e-03 1.920626e-03 4.206145e-03 3.816851e-03 1.154329e-03 1.033354e-03 7.958110e-04 1.369697e-04 4.890611e-04 4.557600e-04 3.562057e-04 6.086433e-04 4.607275e-04 6.044750e-04 6.860769e-04 5.193716e-04 9.143707e-04 4.077380e-04 1.105496e-03 3.136653e-04 1.246379e-03 2.660231e-04 1.328864e-03 2.842804e-04 1.356168e-03 3.762968e-04 1.346600e-03 5.391989e-04 1.325839e-03 7.689426e-04 1.332439e-03 1.079769e-03 1.447747e-03 1.549775e-03 1.864309e-03 2.448130e-03 3.082593e-03 3.916381e-03 2.502479e-03 6.637974e-03 5.365948e-03 3.345272e-03 2.822713e-03 3.183969e-03 2.810105e-03 2.833678e-03 5.134157e-03 1.616066e-03 2.048281e-03 1.589316e-03 8.758686e-04 1.124464e-03 3.390253e-03 2.138521e-03 1.548018e-03 2.020124e-03 1.759001e-03 1.106758e-03 1.330897e-03 6.895311e-04 1.193436e-03 7.081259e-04 1.086094e-03 8.883088e-04 9.433133e-04 1.091228e-03 7.663084e-04 1.278912e-03 5.862999e-04 1.437679e-03 4.382866e-04 1.549402e-03 3.547460e-04 1.587573e-03 3.834146e-04 1.529261e-03 5.389369e-04 1.366275e-03 7.906627e-04 1.115495e-03 1.117361e-03 8.129389e-04 1.494583e-03 5.135143e-04 1.877314e-03 3.439154e-04 2.209206e-03 4.095519e-04 2.436100e-03 4.970588e-04 2.503936e-03 4.832350e-04 2.360710e-03 4.710499e-04 1.982838e-03 7.803999e-04 1.418109e-03 1.443039e-03 9.153279e-04 2.307512e-03 1.137954e-03 3.212646e-03 1.755288e-03 4.188640e-03 1.728190e-03 4.183951e-03 4.398047e-03 1.984738e-03 3.296806e-03 8.437783e-04 
