# vtk DataFile Version 2.0
Comment goes here
ASCII

DATASET STRUCTURED_POINTS
FIELD FieldData 1
TIME 1 1 double
0.97000000
DIMENSIONS    128   16   1

ORIGIN    0.000   0.000   0.000
SPACING   0.0078125 0.015625   1.000

POINT_DATA   2048
SCALARS uMag double
LOOKUP_TABLE default

7.658010e-03 3.742012e-03 6.549324e-03 8.357971e-04 5.050911e-03 2.189921e-03 1.120610e-02 8.362504e-04 5.733227e-03 4.059970e-03 2.771609e-03 1.325561e-02 2.061167e-02 3.619182e-02 4.490203e-02 4.738890e-02 5.196014e-02 5.015231e-02 4.943221e-02 4.365311e-02 3.784387e-02 1.934895e-02 1.370102e-02 3.910942e-03 3.442203e-03 2.265532e-03 8.397095e-04 4.785589e-03 2.672433e-03 5.741394e-03 3.483941e-03 6.013195e-03 3.881907e-03 5.978054e-03 4.119392e-03 5.803967e-03 4.296115e-03 5.572392e-03 4.444981e-03 5.327505e-03 4.570647e-03 5.095838e-03 4.667933e-03 4.893943e-03 4.731054e-03 4.730748e-03 4.756888e-03 4.607152e-03 4.743304e-03 4.513092e-03 4.682830e-03 4.421092e-03 4.550643e-03 4.277831e-03 4.285365e-03 3.888519e-03 3.215857e-03 2.705353e-03 4.990800e-03 3.719136e-03 2.416102e-03 5.793269e-03 5.829020e-03 3.493909e-03 4.287757e-03 4.530889e-03 2.723427e-03 4.040128e-03 6.012633e-03 5.100849e-03 4.142779e-03 5.186524e-03 4.598977e-03 4.949980e-03 4.015267e-03 4.607626e-03 3.655993e-03 4.500985e-03 3.455620e-03 4.465282e-03 3.338021e-03 4.430150e-03 3.286742e-03 4.362068e-03 3.300565e-03 4.243099e-03 3.380176e-03 4.065989e-03 3.522337e-03 3.833902e-03 3.717266e-03 3.560820e-03 3.947285e-03 3.270085e-03 4.185918e-03 2.991562e-03 4.398826e-03 2.759312e-03 4.547816e-03 2.610174e-03 4.596300e-03 2.580227e-03 4.513732e-03 2.698149e-03 4.278820e-03 2.978419e-03 3.884263e-03 3.416927e-03 3.342737e-03 3.988572e-03 2.692110e-03 4.645182e-03 1.998892e-03 5.315109e-03 1.365425e-03 5.905497e-03 9.526207e-04 6.307065e-03 1.047012e-03 6.400167e-03 2.261971e-03 6.102830e-03 6.436828e-03 1.587540e-03 6.036607e-03 3.249495e-03 7.349063e-03 4.500690e-03 
3.486531e-03 1.130638e-03 3.437096e-03 3.203838e-03 3.341781e-03 9.576625e-03 8.848547e-03 5.954094e-03 5.372863e-03 8.601644e-03 9.196097e-03 1.787354e-02 2.353740e-02 2.429283e-02 1.127124e-02 7.519231e-03 2.829145e-03 4.200746e-03 6.587673e-03 1.178473e-02 2.449900e-02 2.427608e-02 1.557593e-02 1.026032e-02 6.231325e-03 4.433805e-03 2.532015e-03 2.519510e-03 9.497994e-04 2.137254e-03 3.329821e-04 2.062816e-03 3.651918e-04 1.956140e-03 5.477945e-04 1.786698e-03 7.097390e-04 1.577166e-03 8.492729e-04 1.353405e-03 9.630501e-04 1.135012e-03 1.040677e-03 9.338747e-04 1.070788e-03 7.543778e-04 1.044797e-03 5.915680e-04 9.547707e-04 4.270471e-04 7.868657e-04 2.262557e-04 5.160107e-04 1.004935e-04 1.385262e-04 5.626266e-04 7.158427e-04 1.457148e-03 1.229161e-03 2.345539e-03 3.869449e-03 4.649769e-03 2.478813e-03 2.433761e-03 1.562373e-03 1.903935e-03 9.825361e-04 4.530516e-03 3.671814e-03 3.077106e-03 2.818465e-03 1.743729e-03 9.289757e-04 1.023875e-03 6.110416e-04 9.558512e-04 2.368159e-04 8.088932e-04 6.367292e-05 7.373475e-04 1.906897e-04 6.755750e-04 2.751625e-04 5.944608e-04 2.991066e-04 4.778461e-04 2.779431e-04 3.264659e-04 2.568849e-04 2.085490e-04 3.141339e-04 3.209855e-04 4.677504e-04 5.655989e-04 6.662870e-04 8.208699e-04 8.565186e-04 1.041239e-03 9.931907e-04 1.189694e-03 1.041777e-03 1.230639e-03 9.802198e-04 1.141315e-03 8.043326e-04 9.292030e-04 5.763641e-04 6.766402e-04 5.973895e-04 6.801884e-04 1.043747e-03 1.116043e-03 1.645878e-03 1.722329e-03 2.231500e-03 2.324243e-03 2.653147e-03 2.834800e-03 2.685733e-03 3.336372e-03 1.829690e-03 5.016945e-03 4.882955e-03 5.115770e-03 2.848531e-03 1.440616e-03 3.711194e-03 9.569996e-04 
1.047131e-02 8.462543e-03 9.222762e-03 6.628469e-03 1.021906e-02 2.547367e-02 1.054106e-02 1.468305e-02 3.249511e-03 1.090059e-02 1.049537e-03 1.073775e-02 1.109031e-02 1.719655e-02 2.081042e-02 2.119814e-02 2.244117e-02 2.288441e-02 2.090105e-02 2.053537e-02 1.794342e-02 9.652337e-03 5.207261e-03 2.489506e-03 5.446896e-03 4.590084e-03 7.839139e-03 6.274501e-03 9.104485e-03 7.091050e-03 9.723242e-03 7.536971e-03 1.000390e-02 7.849856e-03 1.009837e-02 8.127292e-03 1.008396e-02 8.398437e-03 1.000566e-02 8.663488e-03 9.897601e-03 8.915588e-03 9.789788e-03 9.148100e-03 9.704129e-03 9.352867e-03 9.649739e-03 9.520322e-03 9.624351e-03 9.643229e-03 9.618040e-03 9.717288e-03 9.612968e-03 9.734478e-03 9.590925e-03 9.729905e-03 9.482401e-03 9.269691e-03 9.317944e-03 8.630670e-03 9.491690e-03 1.391913e-02 1.262632e-02 1.160818e-02 1.038836e-02 1.007385e-02 8.765661e-03 1.243869e-02 1.380418e-02 1.322170e-02 1.238264e-02 1.062635e-02 1.093482e-02 1.050468e-02 1.086883e-02 1.003819e-02 1.082109e-02 9.793520e-03 1.090357e-02 9.673833e-03 1.099768e-02 9.631559e-03 1.105353e-02 9.658014e-03 1.104757e-02 9.756606e-03 1.097243e-02 9.931431e-03 1.083011e-02 1.017776e-02 1.062585e-02 1.047635e-02 1.036896e-02 1.079858e-02 1.008237e-02 1.111668e-02 9.804864e-03 1.140378e-02 9.580259e-03 1.162619e-02 9.446790e-03 1.174380e-02 9.437435e-03 1.172528e-02 9.582434e-03 1.155831e-02 9.899729e-03 1.124325e-02 1.038057e-02 1.078584e-02 1.098655e-02 1.020495e-02 1.166484e-02 9.544044e-03 1.236560e-02 8.872391e-03 1.305301e-02 8.316038e-03 1.372247e-02 8.322068e-03 1.443013e-02 1.158221e-02 2.174584e-02 1.429858e-02 9.158153e-03 4.052050e-03 9.543362e-03 8.371922e-03 
9.537673e-03 1.225657e-02 1.722566e-02 2.523861e-02 3.657819e-02 1.466692e-02 2.808851e-02 2.072406e-02 2.357904e-02 2.120698e-02 2.122093e-02 2.136203e-02 1.849495e-02 2.378983e-02 2.169933e-02 2.585565e-02 2.258028e-02 2.642571e-02 2.223576e-02 2.509702e-02 2.039762e-02 2.067984e-02 2.032604e-02 2.142394e-02 2.066340e-02 2.160047e-02 2.111848e-02 2.160571e-02 2.153909e-02 2.151794e-02 2.188294e-02 2.140198e-02 2.214639e-02 2.129903e-02 2.233375e-02 2.123105e-02 2.245046e-02 2.120623e-02 2.250327e-02 2.122432e-02 2.250174e-02 2.128130e-02 2.245757e-02 2.137035e-02 2.238179e-02 2.147976e-02 2.228147e-02 2.159181e-02 2.215715e-02 2.168170e-02 2.199817e-02 2.171292e-02 2.177230e-02 2.162395e-02 2.140799e-02 2.127313e-02 2.064950e-02 2.060905e-02 2.123541e-02 2.131066e-02 2.089999e-02 2.318408e-02 2.239784e-02 2.199946e-02 2.218602e-02 2.279774e-02 2.184785e-02 2.326386e-02 2.364423e-02 2.335352e-02 2.294965e-02 2.314696e-02 2.266095e-02 2.240689e-02 2.238599e-02 2.204829e-02 2.228950e-02 2.185311e-02 2.227301e-02 2.174580e-02 2.229049e-02 2.169193e-02 2.231305e-02 2.167551e-02 2.232547e-02 2.168916e-02 2.232229e-02 2.172887e-02 2.230186e-02 2.179147e-02 2.226098e-02 2.187286e-02 2.219549e-02 2.196791e-02 2.210505e-02 2.207416e-02 2.199398e-02 2.219226e-02 2.186831e-02 2.232263e-02 2.173385e-02 2.246295e-02 2.159848e-02 2.261082e-02 2.147258e-02 2.276523e-02 2.136632e-02 2.292047e-02 2.128577e-02 2.306156e-02 2.123371e-02 2.316889e-02 2.121593e-02 2.322722e-02 2.125600e-02 2.322627e-02 2.141944e-02 2.315648e-02 2.187971e-02 2.299281e-02 2.322538e-02 2.270406e-02 3.099832e-02 3.426316e-02 3.684443e-02 1.697832e-02 1.350852e-02 1.008238e-02 
3.294591e-02 3.680693e-02 3.876521e-02 4.849959e-02 5.739246e-02 5.478788e-02 2.745726e-02 3.954585e-02 2.717301e-02 3.431443e-02 2.506350e-02 2.887093e-02 1.857485e-02 2.261911e-02 2.154421e-02 2.238928e-02 2.249488e-02 2.217622e-02 2.273730e-02 2.176566e-02 2.236933e-02 2.050128e-02 2.801719e-02 2.678561e-02 3.124503e-02 2.969872e-02 3.269502e-02 3.116581e-02 3.336709e-02 3.197429e-02 3.364841e-02 3.248489e-02 3.372519e-02 3.286412e-02 3.369534e-02 3.318213e-02 3.361399e-02 3.346029e-02 3.351492e-02 3.369935e-02 3.342338e-02 3.389607e-02 3.335985e-02 3.404832e-02 3.333473e-02 3.415182e-02 3.334249e-02 3.419715e-02 3.336027e-02 3.416785e-02 3.334519e-02 3.403071e-02 3.322026e-02 3.371217e-02 3.284571e-02 3.302574e-02 3.176438e-02 3.193363e-02 3.263201e-02 3.212074e-02 3.149659e-02 3.603297e-02 3.608934e-02 3.478579e-02 3.459011e-02 3.490342e-02 3.343073e-02 3.570323e-02 3.790765e-02 3.766876e-02 3.642874e-02 3.582083e-02 3.545853e-02 3.508587e-02 3.482512e-02 3.451057e-02 3.454452e-02 3.421779e-02 3.448011e-02 3.408166e-02 3.449401e-02 3.403764e-02 3.451439e-02 3.406076e-02 3.450343e-02 3.414483e-02 3.444496e-02 3.428988e-02 3.433603e-02 3.449069e-02 3.417981e-02 3.472954e-02 3.398480e-02 3.498068e-02 3.377250e-02 3.521905e-02 3.357867e-02 3.541993e-02 3.344231e-02 3.555152e-02 3.339533e-02 3.557571e-02 3.346382e-02 3.546338e-02 3.367302e-02 3.520513e-02 3.404007e-02 3.480668e-02 3.456056e-02 3.428382e-02 3.520397e-02 3.367167e-02 3.592618e-02 3.303740e-02 3.668466e-02 3.248555e-02 3.745031e-02 3.218757e-02 3.822385e-02 3.253593e-02 3.900713e-02 3.477985e-02 4.006905e-02 7.083355e-02 5.253868e-02 4.347514e-02 3.495631e-02 3.551057e-02 
3.718084e-02 3.941302e-02 4.110269e-02 4.639439e-02 5.337118e-02 6.403094e-02 5.908924e-02 6.047413e-02 5.511893e-02 5.708048e-02 5.196838e-02 5.316676e-02 4.650854e-02 4.638761e-02 4.616424e-02 4.633482e-02 4.630681e-02 4.626205e-02 4.638712e-02 4.620369e-02 4.636796e-02 4.684287e-02 5.312511e-02 5.275697e-02 5.585327e-02 5.534948e-02 5.740256e-02 5.660994e-02 5.828793e-02 5.722664e-02 5.878591e-02 5.755322e-02 5.905176e-02 5.776402e-02 5.917299e-02 5.793912e-02 5.920169e-02 5.810864e-02 5.917198e-02 5.827908e-02 5.911085e-02 5.844937e-02 5.904212e-02 5.861645e-02 5.898380e-02 5.877458e-02 5.894422e-02 5.891547e-02 5.892187e-02 5.902924e-02 5.890434e-02 5.909965e-02 5.885884e-02 5.908676e-02 5.870778e-02 5.887220e-02 5.820658e-02 5.845486e-02 5.870001e-02 5.956421e-02 5.832792e-02 5.809672e-02 5.791571e-02 5.886209e-02 5.892981e-02 5.969048e-02 5.946466e-02 5.882096e-02 5.789967e-02 5.874997e-02 5.911235e-02 5.936451e-02 5.939991e-02 5.935406e-02 5.958938e-02 5.923485e-02 5.966090e-02 5.909171e-02 5.971244e-02 5.898138e-02 5.975611e-02 5.892038e-02 5.977948e-02 5.891337e-02 5.976775e-02 5.896246e-02 5.971297e-02 5.906850e-02 5.961395e-02 5.922737e-02 5.947232e-02 5.942648e-02 5.929289e-02 5.964794e-02 5.908982e-02 5.987483e-02 5.888814e-02 6.008965e-02 5.871595e-02 6.026854e-02 5.859586e-02 6.038225e-02 5.854643e-02 6.040698e-02 5.858734e-02 6.033206e-02 5.873532e-02 6.015713e-02 5.899372e-02 5.988909e-02 5.935127e-02 5.954847e-02 5.979312e-02 5.918219e-02 6.031550e-02 5.887279e-02 6.094759e-02 5.876080e-02 6.180591e-02 5.911348e-02 6.321389e-02 6.039504e-02 6.715962e-02 6.379121e-02 4.771281e-02 4.430763e-02 3.876542e-02 3.873545e-02 
4.791076e-02 5.002944e-02 4.973133e-02 5.339568e-02 5.437136e-02 6.016437e-02 6.262194e-02 6.351302e-02 6.173848e-02 6.433171e-02 6.256356e-02 6.593525e-02 6.457803e-02 6.354443e-02 6.327415e-02 6.347663e-02 6.344456e-02 6.338299e-02 6.354459e-02 6.329637e-02 6.353317e-02 6.498777e-02 6.550765e-02 6.348475e-02 6.377961e-02 6.289472e-02 6.347689e-02 6.270340e-02 6.347131e-02 6.262782e-02 6.353243e-02 6.261407e-02 6.359147e-02 6.264689e-02 6.362610e-02 6.271860e-02 6.363186e-02 6.282180e-02 6.361306e-02 6.294889e-02 6.357924e-02 6.309349e-02 6.354284e-02 6.325114e-02 6.351721e-02 6.341949e-02 6.351511e-02 6.359924e-02 6.354911e-02 6.379567e-02 6.363317e-02 6.401981e-02 6.378452e-02 6.428858e-02 6.403257e-02 6.466448e-02 6.453075e-02 6.475769e-02 6.325512e-02 6.422426e-02 6.356585e-02 6.297965e-02 6.284882e-02 6.448428e-02 6.284001e-02 6.283520e-02 6.289024e-02 6.274466e-02 6.189950e-02 6.304107e-02 6.295378e-02 6.230773e-02 6.215919e-02 6.281942e-02 6.305937e-02 6.326053e-02 6.350306e-02 6.342262e-02 6.373380e-02 6.348226e-02 6.386156e-02 6.351615e-02 6.392789e-02 6.355904e-02 6.394694e-02 6.362612e-02 6.392425e-02 6.372285e-02 6.386405e-02 6.384844e-02 6.377134e-02 6.399690e-02 6.365343e-02 6.415844e-02 6.352170e-02 6.432126e-02 6.339155e-02 6.447184e-02 6.327998e-02 6.459473e-02 6.320259e-02 6.467403e-02 6.317265e-02 6.469681e-02 6.320079e-02 6.465600e-02 6.329296e-02 6.455099e-02 6.344679e-02 6.438763e-02 6.365056e-02 6.417932e-02 6.388395e-02 6.394935e-02 6.411811e-02 6.373002e-02 6.431250e-02 6.355492e-02 6.440434e-02 6.341978e-02 6.428625e-02 6.310311e-02 6.411706e-02 5.841873e-02 5.381876e-02 5.213585e-02 4.916798e-02 4.954961e-02 
4.725078e-02 4.861596e-02 4.892458e-02 5.148161e-02 5.264522e-02 5.592781e-02 5.717832e-02 5.966375e-02 6.072443e-02 6.308576e-02 6.577587e-02 6.808429e-02 7.423477e-02 7.409091e-02 7.401092e-02 7.407691e-02 7.405953e-02 7.404533e-02 7.409268e-02 7.400675e-02 7.409790e-02 7.433266e-02 6.724067e-02 6.606741e-02 6.298197e-02 6.234309e-02 6.122247e-02 6.050042e-02 6.043183e-02 5.955054e-02 6.007230e-02 5.906154e-02 5.990199e-02 5.882787e-02 5.980893e-02 5.874513e-02 5.974184e-02 5.875540e-02 5.967964e-02 5.882351e-02 5.961719e-02 5.892684e-02 5.955763e-02 5.905056e-02 5.950782e-02 5.918540e-02 5.947585e-02 5.932755e-02 5.947147e-02 5.948094e-02 5.950993e-02 5.966318e-02 5.962128e-02 5.991629e-02 5.986837e-02 6.035308e-02 6.046529e-02 6.100870e-02 6.031854e-02 6.067810e-02 6.107310e-02 6.123194e-02 6.003351e-02 6.031810e-02 6.005380e-02 6.035249e-02 6.028036e-02 6.084886e-02 6.022463e-02 5.963496e-02 5.958931e-02 5.971893e-02 5.975351e-02 5.953696e-02 5.980465e-02 5.950033e-02 5.990907e-02 5.947774e-02 5.999793e-02 5.946273e-02 6.005889e-02 5.946334e-02 6.008654e-02 5.948885e-02 6.007873e-02 5.954605e-02 6.003534e-02 5.963741e-02 5.995834e-02 5.976050e-02 5.985226e-02 5.990813e-02 5.972486e-02 6.006932e-02 5.958794e-02 6.023066e-02 5.945692e-02 6.037691e-02 5.934872e-02 6.049147e-02 5.927925e-02 6.055793e-02 5.926182e-02 6.056296e-02 5.930605e-02 6.049887e-02 5.941566e-02 6.036428e-02 5.958526e-02 6.016364e-02 5.979771e-02 5.990580e-02 6.002101e-02 5.959921e-02 6.020060e-02 5.923815e-02 6.023959e-02 5.877204e-02 5.995472e-02 5.804263e-02 5.898959e-02 5.668294e-02 5.675430e-02 5.385200e-02 5.154215e-02 5.003775e-02 4.814351e-02 4.810027e-02 
5.205205e-02 5.356649e-02 5.323577e-02 5.576205e-02 5.626310e-02 5.930345e-02 6.056520e-02 6.289691e-02 6.414193e-02 6.638913e-02 6.899720e-02 7.104664e-02 7.721441e-02 7.737771e-02 7.725847e-02 7.734832e-02 7.732877e-02 7.729630e-02 7.738262e-02 7.724239e-02 7.739698e-02 7.718708e-02 6.988455e-02 6.908430e-02 6.614114e-02 6.562420e-02 6.460034e-02 6.400094e-02 6.393864e-02 6.322274e-02 6.365985e-02 6.285546e-02 6.354209e-02 6.270170e-02 6.348594e-02 6.266759e-02 6.344730e-02 6.270493e-02 6.340875e-02 6.278673e-02 6.336682e-02 6.289700e-02 6.332601e-02 6.302718e-02 6.329651e-02 6.317611e-02 6.329476e-02 6.335322e-02 6.334795e-02 6.358641e-02 6.350508e-02 6.393814e-02 6.385816e-02 6.453080e-02 6.457212e-02 6.561224e-02 6.604775e-02 6.735623e-02 6.568656e-02 6.592356e-02 6.627387e-02 6.596413e-02 6.451726e-02 6.542037e-02 6.471218e-02 6.442423e-02 6.418531e-02 6.467148e-02 6.333790e-02 6.331410e-02 6.317288e-02 6.302028e-02 6.274270e-02 6.284697e-02 6.291579e-02 6.298687e-02 6.317925e-02 6.313898e-02 6.340828e-02 6.325930e-02 6.356909e-02 6.334917e-02 6.366200e-02 6.342583e-02 6.369758e-02 6.350607e-02 6.368649e-02 6.360032e-02 6.363768e-02 6.371216e-02 6.355948e-02 6.383944e-02 6.346108e-02 6.397559e-02 6.335339e-02 6.411085e-02 6.324913e-02 6.423346e-02 6.316187e-02 6.433064e-02 6.310442e-02 6.439010e-02 6.308735e-02 6.440181e-02 6.311752e-02 6.435974e-02 6.319631e-02 6.426258e-02 6.331747e-02 6.411324e-02 6.346441e-02 6.391610e-02 6.360581e-02 6.366962e-02 6.368653e-02 6.334897e-02 6.360839e-02 6.286981e-02 6.319355e-02 6.202413e-02 6.212890e-02 6.040528e-02 5.993619e-02 5.746679e-02 5.580054e-02 5.459032e-02 5.293970e-02 5.316189e-02 
4.725085e-02 4.861575e-02 4.892462e-02 5.148147e-02 5.264519e-02 5.592777e-02 5.717819e-02 5.966392e-02 6.072428e-02 6.308599e-02 6.577574e-02 6.808454e-02 7.423470e-02 7.409094e-02 7.401096e-02 7.407695e-02 7.405955e-02 7.404541e-02 7.409267e-02 7.400686e-02 7.409783e-02 7.433162e-02 6.724083e-02 6.606725e-02 6.298178e-02 6.234324e-02 6.122249e-02 6.050013e-02 6.043270e-02 5.954950e-02 6.007466e-02 5.905962e-02 5.990591e-02 5.882453e-02 5.981341e-02 5.873928e-02 5.974488e-02 5.874570e-02 5.967849e-02 5.880826e-02 5.960795e-02 5.890293e-02 5.953437e-02 5.901235e-02 5.946223e-02 5.912459e-02 5.939830e-02 5.923444e-02 5.935321e-02 5.934730e-02 5.934706e-02 5.948754e-02 5.942114e-02 5.971260e-02 5.965666e-02 6.015230e-02 6.024033e-02 6.092337e-02 6.020233e-02 6.029035e-02 6.050896e-02 6.066128e-02 5.974653e-02 6.016849e-02 5.997286e-02 6.008795e-02 5.987396e-02 6.016444e-02 5.981652e-02 5.969485e-02 5.977621e-02 5.977800e-02 5.973581e-02 5.948533e-02 5.971898e-02 5.940600e-02 5.981083e-02 5.939513e-02 5.991893e-02 5.940823e-02 6.000427e-02 5.943435e-02 6.005199e-02 5.947732e-02 6.005855e-02 5.954411e-02 6.002481e-02 5.963912e-02 5.995409e-02 5.976223e-02 5.985219e-02 5.990844e-02 5.972780e-02 6.006822e-02 5.959287e-02 6.022855e-02 5.946257e-02 6.037420e-02 5.935392e-02 6.048876e-02 5.928346e-02 6.055605e-02 5.926509e-02 6.056241e-02 5.930831e-02 6.049935e-02 5.941650e-02 6.036508e-02 5.958464e-02 6.016449e-02 5.979639e-02 5.990701e-02 6.001992e-02 5.960087e-02 6.020002e-02 5.923975e-02 6.023920e-02 5.877296e-02 5.995428e-02 5.804277e-02 5.898924e-02 5.668258e-02 5.675420e-02 5.385146e-02 5.154222e-02 5.003733e-02 4.814359e-02 4.809997e-02 
4.791085e-02 5.002909e-02 4.973137e-02 5.339538e-02 5.437114e-02 6.016428e-02 6.262137e-02 6.351378e-02 6.173786e-02 6.433259e-02 6.256311e-02 6.593612e-02 6.457808e-02 6.354438e-02 6.327433e-02 6.347658e-02 6.344471e-02 6.338311e-02 6.354451e-02 6.329677e-02 6.353283e-02 6.498636e-02 6.550792e-02 6.348399e-02 6.377809e-02 6.289311e-02 6.347439e-02 6.269929e-02 6.346864e-02 6.262022e-02 6.353027e-02 6.260212e-02 6.358918e-02 6.262869e-02 6.362071e-02 6.269072e-02 6.361809e-02 6.277985e-02 6.358342e-02 6.288715e-02 6.352296e-02 6.300250e-02 6.344377e-02 6.311501e-02 6.335250e-02 6.321491e-02 6.325637e-02 6.329722e-02 6.316618e-02 6.336736e-02 6.310326e-02 6.345056e-02 6.311472e-02 6.361125e-02 6.330663e-02 6.397850e-02 6.376828e-02 6.413637e-02 6.276312e-02 6.396702e-02 6.363188e-02 6.246738e-02 6.218761e-02 6.422014e-02 6.251700e-02 6.259090e-02 6.335467e-02 6.294761e-02 6.139097e-02 6.283340e-02 6.282525e-02 6.210692e-02 6.224682e-02 6.299000e-02 6.325773e-02 6.343563e-02 6.368037e-02 6.358403e-02 6.388080e-02 6.362772e-02 6.397891e-02 6.364305e-02 6.401937e-02 6.366542e-02 6.401774e-02 6.371116e-02 6.397938e-02 6.378695e-02 6.390757e-02 6.389334e-02 6.380671e-02 6.402590e-02 6.368353e-02 6.417580e-02 6.354801e-02 6.433071e-02 6.341395e-02 6.447609e-02 6.329779e-02 6.459623e-02 6.321593e-02 6.467518e-02 6.318248e-02 6.469905e-02 6.320759e-02 6.465919e-02 6.329629e-02 6.455414e-02 6.344684e-02 6.439035e-02 6.364896e-02 6.418236e-02 6.388255e-02 6.395300e-02 6.411752e-02 6.373335e-02 6.431217e-02 6.355691e-02 6.440383e-02 6.342024e-02 6.428589e-02 6.310253e-02 6.411707e-02 5.841787e-02 5.381895e-02 5.213524e-02 4.916811e-02 4.954917e-02 
3.718117e-02 3.941238e-02 4.110301e-02 4.639369e-02 5.337143e-02 6.403061e-02 5.908902e-02 6.047480e-02 5.511852e-02 5.708111e-02 5.196809e-02 5.316757e-02 4.650823e-02 4.638769e-02 4.616442e-02 4.633485e-02 4.630697e-02 4.626228e-02 4.638709e-02 4.620433e-02 4.636774e-02 4.684220e-02 5.312333e-02 5.276003e-02 5.585073e-02 5.535248e-02 5.739959e-02 5.660951e-02 5.828668e-02 5.722286e-02 5.879060e-02 5.754794e-02 5.906457e-02 5.775635e-02 5.919069e-02 5.792496e-02 5.921789e-02 5.808544e-02 5.918155e-02 5.824812e-02 5.910914e-02 5.841057e-02 5.901911e-02 5.856180e-02 5.892168e-02 5.868766e-02 5.882163e-02 5.877509e-02 5.871876e-02 5.881252e-02 5.860544e-02 5.878426e-02 5.846093e-02 5.866268e-02 5.825614e-02 5.843964e-02 5.802869e-02 5.804496e-02 5.720535e-02 5.785060e-02 5.718601e-02 5.723241e-02 5.727813e-02 5.802391e-02 5.783696e-02 5.795973e-02 5.799051e-02 5.818523e-02 5.796678e-02 5.855842e-02 5.876338e-02 5.886712e-02 5.901053e-02 5.905996e-02 5.936312e-02 5.906424e-02 5.954738e-02 5.903431e-02 5.966283e-02 5.898878e-02 5.973444e-02 5.895891e-02 5.977017e-02 5.896338e-02 5.976658e-02 5.901149e-02 5.971830e-02 5.910742e-02 5.962354e-02 5.925096e-02 5.948533e-02 5.943584e-02 5.931100e-02 5.964862e-02 5.911300e-02 5.987064e-02 5.891197e-02 6.008143e-02 5.873505e-02 6.025827e-02 5.860937e-02 6.037511e-02 5.855738e-02 6.040667e-02 5.859626e-02 6.033623e-02 5.873845e-02 6.016044e-02 5.898916e-02 5.989026e-02 5.934371e-02 5.955166e-02 5.978885e-02 5.918929e-02 6.031517e-02 5.888014e-02 6.094757e-02 5.876429e-02 6.180430e-02 5.911320e-02 6.321283e-02 6.039338e-02 6.716035e-02 6.378878e-02 4.771369e-02 4.430654e-02 3.876580e-02 3.873469e-02 
3.294635e-02 3.680616e-02 3.876601e-02 4.849844e-02 5.739430e-02 5.478636e-02 2.745890e-02 3.954326e-02 2.717406e-02 3.431153e-02 2.506421e-02 2.886857e-02 1.857443e-02 2.261887e-02 2.154451e-02 2.238894e-02 2.249553e-02 2.217621e-02 2.273733e-02 2.176752e-02 2.236819e-02 2.050476e-02 2.801431e-02 2.679087e-02 3.123945e-02 2.970228e-02 3.268550e-02 3.116419e-02 3.335489e-02 3.196794e-02 3.363793e-02 3.247563e-02 3.371848e-02 3.284987e-02 3.368699e-02 3.315644e-02 3.359472e-02 3.341799e-02 3.347824e-02 3.363929e-02 3.336401e-02 3.381486e-02 3.326485e-02 3.393128e-02 3.317864e-02 3.397080e-02 3.308833e-02 3.391066e-02 3.295721e-02 3.371305e-02 3.271319e-02 3.330092e-02 3.221494e-02 3.251382e-02 3.118576e-02 3.098504e-02 2.900944e-02 2.929015e-02 3.223537e-02 3.239120e-02 3.042155e-02 3.407135e-02 3.348728e-02 3.124808e-02 3.344743e-02 3.586511e-02 3.334718e-02 3.453153e-02 3.662036e-02 3.493809e-02 3.463940e-02 3.782770e-02 3.764964e-02 3.646600e-02 3.601088e-02 3.538404e-02 3.531561e-02 3.481932e-02 3.498450e-02 3.450250e-02 3.482164e-02 3.433729e-02 3.472696e-02 3.427866e-02 3.464397e-02 3.430485e-02 3.454050e-02 3.440398e-02 3.440202e-02 3.456571e-02 3.422708e-02 3.477461e-02 3.402397e-02 3.500681e-02 3.380975e-02 3.523285e-02 3.361240e-02 3.542307e-02 3.346852e-02 3.554664e-02 3.341455e-02 3.557049e-02 3.348019e-02 3.546410e-02 3.368698e-02 3.520944e-02 3.404705e-02 3.480807e-02 3.455759e-02 3.428215e-02 3.519638e-02 3.367350e-02 3.592224e-02 3.304514e-02 3.668552e-02 3.249424e-02 3.745108e-02 3.219185e-02 3.822189e-02 3.253623e-02 3.900535e-02 3.477923e-02 4.006980e-02 7.083061e-02 5.253758e-02 4.347464e-02 3.495639e-02 3.550985e-02 
9.538115e-03 1.225610e-02 1.722630e-02 2.523882e-02 3.657851e-02 1.466935e-02 2.808555e-02 2.072934e-02 2.357520e-02 2.121308e-02 2.121633e-02 2.136851e-02 1.848924e-02 2.379626e-02 2.169544e-02 2.585905e-02 2.257973e-02 2.642553e-02 2.223718e-02 2.509667e-02 2.039802e-02 2.068052e-02 2.032494e-02 2.142388e-02 2.066183e-02 2.159686e-02 2.111765e-02 2.159693e-02 2.154022e-02 2.150341e-02 2.188734e-02 2.138180e-02 2.215379e-02 2.127214e-02 2.234124e-02 2.119488e-02 2.245360e-02 2.115869e-02 2.249740e-02 2.116496e-02 2.248070e-02 2.120872e-02 2.241087e-02 2.127818e-02 2.229376e-02 2.135462e-02 2.213214e-02 2.141231e-02 2.192013e-02 2.141487e-02 2.163367e-02 2.130376e-02 2.121427e-02 2.097609e-02 2.054544e-02 2.029023e-02 1.957659e-02 1.977097e-02 2.078384e-02 2.102195e-02 1.991441e-02 2.203232e-02 2.136196e-02 2.061244e-02 2.154317e-02 2.292750e-02 2.161774e-02 2.245428e-02 2.331555e-02 2.250495e-02 2.235964e-02 2.408075e-02 2.387594e-02 2.324841e-02 2.311785e-02 2.257949e-02 2.275791e-02 2.222445e-02 2.258179e-02 2.201518e-02 2.249518e-02 2.189061e-02 2.245026e-02 2.182205e-02 2.242042e-02 2.179493e-02 2.239074e-02 2.180146e-02 2.235280e-02 2.183697e-02 2.230078e-02 2.189782e-02 2.222933e-02 2.198018e-02 2.213480e-02 2.207998e-02 2.201850e-02 2.219465e-02 2.188610e-02 2.232358e-02 2.174542e-02 2.246520e-02 2.160585e-02 2.261595e-02 2.147708e-02 2.277150e-02 2.136750e-02 2.292523e-02 2.128312e-02 2.306525e-02 2.122868e-02 2.317422e-02 2.121212e-02 2.323364e-02 2.125549e-02 2.323084e-02 2.142048e-02 2.315822e-02 2.187981e-02 2.299262e-02 2.322540e-02 2.270211e-02 3.099773e-02 3.426070e-02 3.684146e-02 1.697882e-02 1.350761e-02 1.008193e-02 
1.047118e-02 8.462549e-03 9.222714e-03 6.629801e-03 1.021818e-02 2.547355e-02 1.054415e-02 1.468498e-02 3.249379e-03 1.090293e-02 1.051472e-03 1.073968e-02 1.109233e-02 1.719543e-02 2.080903e-02 2.119725e-02 2.243923e-02 2.288369e-02 2.090115e-02 2.053152e-02 1.794699e-02 9.644636e-03 5.209858e-03 2.483930e-03 5.446891e-03 4.592913e-03 7.837722e-03 6.272621e-03 9.104172e-03 7.084905e-03 9.729917e-03 7.529820e-03 1.002108e-02 7.841646e-03 1.012262e-02 8.113935e-03 1.010875e-02 8.378236e-03 1.002794e-02 8.640996e-03 9.916514e-03 8.895764e-03 9.798552e-03 9.127709e-03 9.686523e-03 9.319617e-03 9.583303e-03 9.456009e-03 9.481330e-03 9.522225e-03 9.357626e-03 9.497542e-03 9.166307e-03 9.356461e-03 8.856184e-03 8.985061e-03 7.274614e-03 7.881620e-03 1.096718e-02 1.018061e-02 8.062344e-03 1.165250e-02 1.091299e-02 8.288991e-03 1.129204e-02 1.130720e-02 9.323464e-03 1.058492e-02 1.163493e-02 1.036862e-02 1.053503e-02 1.217862e-02 1.205311e-02 1.091757e-02 1.126701e-02 1.024095e-02 1.105086e-02 9.930344e-03 1.101975e-02 9.764857e-03 1.104384e-02 9.694442e-03 1.106285e-02 9.704326e-03 1.104342e-02 9.791081e-03 1.096692e-02 9.952915e-03 1.082681e-02 1.018409e-02 1.062640e-02 1.047042e-02 1.037696e-02 1.078751e-02 1.009850e-02 1.110447e-02 9.823557e-03 1.138985e-02 9.594867e-03 1.161125e-02 9.456297e-03 1.173366e-02 9.445349e-03 1.172429e-02 9.589265e-03 1.156255e-02 9.901007e-03 1.124520e-02 1.037309e-02 1.078502e-02 1.097537e-02 1.020788e-02 1.165841e-02 9.552482e-03 1.236532e-02 8.880938e-03 1.305368e-02 8.319873e-03 1.372076e-02 8.321435e-03 1.442879e-02 1.157918e-02 2.174499e-02 1.429612e-02 9.157237e-03 4.052019e-03 9.542779e-03 8.371902e-03 
3.486455e-03 1.131427e-03 3.436851e-03 3.204654e-03 3.341155e-03 9.576492e-03 8.848808e-03 5.954409e-03 5.372160e-03 8.602096e-03 9.195567e-03 1.787399e-02 2.353780e-02 2.429064e-02 1.127402e-02 7.516791e-03 2.831446e-03 4.198737e-03 6.590098e-03 1.177667e-02 2.450098e-02 2.427643e-02 1.558001e-02 1.025764e-02 6.239112e-03 4.429258e-03 2.542870e-03 2.515490e-03 9.618282e-04 2.136853e-03 3.427199e-04 2.065386e-03 3.626140e-04 1.961544e-03 5.425654e-04 1.796591e-03 7.080300e-04 1.592666e-03 8.543462e-04 1.373752e-03 9.761593e-04 1.159711e-03 1.064504e-03 9.655200e-04 1.111207e-03 7.979667e-04 1.107526e-03 6.512913e-04 1.037989e-03 5.038700e-04 8.706795e-04 3.442863e-04 5.570574e-04 4.926865e-04 7.153536e-04 2.305955e-03 2.635889e-03 4.201685e-03 3.205528e-03 3.368729e-03 9.546322e-04 2.544374e-03 3.461893e-03 1.043845e-03 3.628151e-03 2.310109e-03 2.023773e-03 2.328761e-03 2.434725e-03 2.375295e-03 2.626977e-03 3.486907e-03 2.549098e-03 1.995369e-03 9.852595e-04 1.117389e-03 3.123652e-04 8.176427e-04 3.939993e-05 6.933298e-04 2.157916e-04 6.248975e-04 2.986904e-04 5.512539e-04 3.110849e-04 4.441871e-04 2.729713e-04 3.020547e-04 2.305430e-04 1.947825e-04 2.814525e-04 3.163548e-04 4.428811e-04 5.627455e-04 6.472124e-04 8.190495e-04 8.418787e-04 1.038963e-03 9.834483e-04 1.186172e-03 1.035529e-03 1.227703e-03 9.741339e-04 1.140222e-03 7.973045e-04 9.269756e-04 5.700910e-04 6.687974e-04 5.909580e-04 6.730893e-04 1.036667e-03 1.113635e-03 1.641686e-03 1.719332e-03 2.230875e-03 2.320671e-03 2.653447e-03 2.833016e-03 2.685038e-03 3.336080e-03 1.828610e-03 5.015859e-03 4.881264e-03 5.115299e-03 2.848406e-03 1.439554e-03 3.711023e-03 9.565765e-04 
