# vtk DataFile Version 2.0
Comment goes here
ASCII

DATASET STRUCTURED_POINTS
FIELD FieldData 1
TIME 1 1 double
0.63000000
DIMENSIONS    128   16   1

ORIGIN    0.000   0.000   0.000
SPACING   0.0078125 0.015625   1.000

POINT_DATA   2048
SCALARS uMag double
LOOKUP_TABLE default

5.435223e-03 3.631701e-03 4.186571e-03 1.920169e-03 2.751186e-03 1.945357e-03 8.904166e-03 8.910902e-04 4.489708e-03 4.963357e-03 3.790652e-03 1.476686e-02 2.145052e-02 3.658168e-02 4.421664e-02 4.815589e-02 5.021459e-02 5.034475e-02 4.774138e-02 4.340033e-02 3.676771e-02 2.081137e-02 1.382342e-02 5.268085e-03 3.179389e-03 1.261930e-03 1.236604e-03 4.040990e-03 3.045101e-03 5.215676e-03 3.748220e-03 5.684756e-03 3.999991e-03 5.824834e-03 4.084389e-03 5.796940e-03 4.125826e-03 5.675661e-03 4.174841e-03 5.497314e-03 4.243807e-03 5.281205e-03 4.328364e-03 5.043162e-03 4.420039e-03 4.799509e-03 4.508262e-03 4.562764e-03 4.576274e-03 4.336491e-03 4.598084e-03 4.109531e-03 4.532900e-03 3.842667e-03 4.286703e-03 3.304696e-03 3.234166e-03 2.286534e-03 4.435322e-03 2.397578e-03 2.478295e-03 6.128500e-03 7.430571e-03 4.868479e-03 4.369771e-03 3.220401e-03 2.411430e-03 4.405393e-03 6.503683e-03 6.447380e-03 4.282340e-03 3.198303e-03 2.533226e-03 3.853015e-03 2.955468e-03 4.184285e-03 3.032281e-03 4.277105e-03 3.055387e-03 4.251471e-03 3.102578e-03 4.145424e-03 3.198206e-03 3.971890e-03 3.340746e-03 3.740105e-03 3.521585e-03 3.468599e-03 3.730254e-03 3.183154e-03 3.948509e-03 2.910528e-03 4.147026e-03 2.677903e-03 4.291386e-03 2.514546e-03 4.350057e-03 2.450795e-03 4.298297e-03 2.512786e-03 4.120274e-03 2.714739e-03 3.810322e-03 3.052384e-03 3.376249e-03 3.501776e-03 2.846659e-03 4.023843e-03 2.276289e-03 4.566512e-03 1.741841e-03 5.064090e-03 1.335798e-03 5.444839e-03 1.169436e-03 5.648717e-03 1.385596e-03 5.643664e-03 2.187615e-03 5.425827e-03 3.920815e-03 4.938610e-03 7.302549e-03 1.981371e-04 4.178483e-03 1.801467e-03 5.143819e-03 3.646792e-03 
1.584049e-03 1.279824e-03 1.712133e-03 2.211275e-03 3.295412e-03 6.505444e-03 7.418595e-03 5.229352e-03 5.991032e-03 8.599993e-03 9.942528e-03 1.778886e-02 2.187734e-02 2.277604e-02 1.171041e-02 6.511586e-03 3.002458e-03 4.302895e-03 7.047723e-03 1.132206e-02 2.264088e-02 2.295759e-02 1.564146e-02 1.064392e-02 6.576770e-03 4.496126e-03 2.802236e-03 2.169562e-03 1.188973e-03 1.553970e-03 4.893879e-04 1.486424e-03 2.133819e-04 1.458169e-03 1.798529e-04 1.376342e-03 2.016162e-04 1.243897e-03 2.099241e-04 1.067014e-03 2.226388e-04 8.485316e-04 2.457708e-04 6.023465e-04 2.708023e-04 3.544832e-04 2.990031e-04 1.356782e-04 3.250535e-04 1.376078e-04 3.204887e-04 3.346209e-04 2.502164e-04 5.561070e-04 9.761324e-05 8.446755e-04 1.378381e-03 3.516754e-03 3.990023e-03 2.187032e-03 7.427576e-03 8.864282e-03 1.620129e-03 6.703000e-03 7.017002e-03 2.983103e-03 4.221483e-03 8.200904e-03 4.906201e-03 3.497913e-03 8.171559e-03 4.462114e-03 2.600308e-03 1.876868e-03 1.636285e-03 6.127381e-04 1.244549e-03 2.873290e-04 1.169949e-03 1.922469e-04 1.116398e-03 2.356904e-04 1.022334e-03 3.764651e-04 8.897192e-04 5.888321e-04 7.333713e-04 8.535134e-04 5.617241e-04 1.140207e-03 3.838191e-04 1.411940e-03 2.338379e-04 1.636192e-03 1.771174e-04 1.792712e-03 1.725789e-04 1.861546e-03 1.343923e-04 1.815614e-03 2.031618e-04 1.637803e-03 4.811332e-04 1.338792e-03 8.924474e-04 9.627479e-04 1.397640e-03 6.208642e-04 1.938369e-03 6.134950e-04 2.440801e-03 9.493012e-04 2.822043e-03 1.310486e-03 2.978458e-03 1.593840e-03 2.777755e-03 1.837427e-03 2.056359e-03 2.252935e-03 6.917849e-04 3.429777e-03 5.446932e-03 7.591340e-03 1.767604e-03 2.468094e-03 2.210140e-03 3.138374e-04 
8.714260e-03 7.754963e-03 6.023786e-03 6.669859e-03 8.690891e-03 2.495893e-02 5.517350e-03 1.247071e-02 4.295898e-03 8.836081e-03 9.959481e-04 6.678860e-03 8.648066e-03 1.529940e-02 1.819314e-02 1.930260e-02 1.935512e-02 2.039169e-02 1.818238e-02 1.758746e-02 1.543630e-02 6.191345e-03 2.345954e-03 3.565307e-03 5.411391e-03 6.922949e-03 8.209614e-03 8.470047e-03 9.636467e-03 9.076454e-03 1.040436e-02 9.292796e-03 1.085188e-02 9.387213e-03 1.112041e-02 9.466742e-03 1.125550e-02 9.564182e-03 1.128678e-02 9.702531e-03 1.125876e-02 9.898652e-03 1.120438e-02 1.013981e-02 1.112647e-02 1.038497e-02 1.101656e-02 1.059978e-02 1.088956e-02 1.078426e-02 1.078587e-02 1.096210e-02 1.075261e-02 1.116329e-02 1.083018e-02 1.141372e-02 1.081540e-02 1.041042e-02 8.603935e-03 7.913062e-03 8.848142e-03 1.478256e-02 1.487497e-02 1.400123e-02 1.016202e-02 8.497328e-03 8.265423e-03 1.199581e-02 1.500910e-02 1.492000e-02 1.299968e-02 8.303290e-03 9.242891e-03 9.224768e-03 1.084311e-02 9.963308e-03 1.151813e-02 1.034127e-02 1.187183e-02 1.059588e-02 1.200544e-02 1.080310e-02 1.198561e-02 1.101984e-02 1.187319e-02 1.128483e-02 1.171182e-02 1.160409e-02 1.151684e-02 1.194759e-02 1.128917e-02 1.226987e-02 1.104269e-02 1.253743e-02 1.082300e-02 1.274268e-02 1.069065e-02 1.287450e-02 1.068044e-02 1.289602e-02 1.079992e-02 1.277417e-02 1.105348e-02 1.251105e-02 1.144606e-02 1.213268e-02 1.195616e-02 1.166120e-02 1.252573e-02 1.113590e-02 1.309461e-02 1.063859e-02 1.361683e-02 1.027831e-02 1.404387e-02 1.018332e-02 1.433500e-02 1.053922e-02 1.450531e-02 1.166320e-02 1.463339e-02 1.441388e-02 2.047071e-02 1.778172e-02 9.789445e-03 4.278983e-03 8.346501e-03 7.682511e-03 
9.430156e-03 1.258097e-02 1.765069e-02 2.787750e-02 2.906467e-02 2.456046e-02 2.616884e-02 1.986664e-02 2.493827e-02 1.986695e-02 2.381627e-02 2.013743e-02 2.209806e-02 2.286101e-02 2.508584e-02 2.561594e-02 2.538203e-02 2.662071e-02 2.441629e-02 2.606979e-02 2.167955e-02 2.255228e-02 2.011886e-02 2.258102e-02 2.033168e-02 2.262509e-02 2.076550e-02 2.258007e-02 2.119824e-02 2.244129e-02 2.156956e-02 2.225696e-02 2.187843e-02 2.207211e-02 2.212944e-02 2.191123e-02 2.231936e-02 2.178466e-02 2.245008e-02 2.170008e-02 2.253357e-02 2.166041e-02 2.257831e-02 2.165786e-02 2.258149e-02 2.167294e-02 2.253725e-02 2.168490e-02 2.244191e-02 2.168012e-02 2.228680e-02 2.163930e-02 2.204581e-02 2.151972e-02 2.165182e-02 2.119896e-02 2.083514e-02 2.086782e-02 2.168012e-02 2.164972e-02 2.135074e-02 2.226439e-02 2.149237e-02 2.146519e-02 2.198091e-02 2.233423e-02 2.187795e-02 2.232829e-02 2.201733e-02 2.161475e-02 2.214112e-02 2.176113e-02 2.215135e-02 2.166292e-02 2.212008e-02 2.173856e-02 2.222868e-02 2.182098e-02 2.232120e-02 2.188335e-02 2.237788e-02 2.193463e-02 2.240021e-02 2.198733e-02 2.239826e-02 2.205431e-02 2.237824e-02 2.214278e-02 2.233622e-02 2.224723e-02 2.226674e-02 2.235614e-02 2.217073e-02 2.246401e-02 2.205897e-02 2.257509e-02 2.194724e-02 2.269469e-02 2.184465e-02 2.281601e-02 2.175575e-02 2.292744e-02 2.168533e-02 2.302648e-02 2.164073e-02 2.311039e-02 2.162592e-02 2.316432e-02 2.163723e-02 2.317794e-02 2.167697e-02 2.315669e-02 2.176979e-02 2.311402e-02 2.196100e-02 2.307245e-02 2.232537e-02 2.306053e-02 2.302411e-02 2.306003e-02 2.445655e-02 2.295661e-02 2.952748e-02 2.204700e-02 3.817707e-02 2.114952e-02 1.515018e-02 9.991346e-03 
3.563583e-02 3.782147e-02 4.291449e-02 5.077949e-02 6.298369e-02 4.736272e-02 2.898487e-02 3.909636e-02 2.815678e-02 3.511358e-02 2.681085e-02 3.017026e-02 2.246423e-02 2.522933e-02 2.503650e-02 2.536663e-02 2.573560e-02 2.539484e-02 2.568604e-02 2.539424e-02 2.483619e-02 2.481373e-02 2.845338e-02 2.908549e-02 3.164994e-02 3.135074e-02 3.324591e-02 3.246727e-02 3.407029e-02 3.301371e-02 3.448680e-02 3.330319e-02 3.468893e-02 3.350213e-02 3.476937e-02 3.367556e-02 3.476014e-02 3.384060e-02 3.468620e-02 3.401485e-02 3.458739e-02 3.421411e-02 3.449030e-02 3.442648e-02 3.438894e-02 3.461203e-02 3.426142e-02 3.473287e-02 3.410261e-02 3.477242e-02 3.391847e-02 3.471703e-02 3.369404e-02 3.452740e-02 3.335443e-02 3.402561e-02 3.240349e-02 3.281255e-02 3.281121e-02 3.261292e-02 3.154890e-02 3.573041e-02 3.572569e-02 3.488221e-02 3.383135e-02 3.386637e-02 3.282214e-02 3.459779e-02 3.633527e-02 3.597275e-02 3.445101e-02 3.322058e-02 3.350318e-02 3.337700e-02 3.431125e-02 3.384690e-02 3.480643e-02 3.416513e-02 3.509247e-02 3.440442e-02 3.521025e-02 3.460320e-02 3.520263e-02 3.480137e-02 3.511969e-02 3.503106e-02 3.500203e-02 3.529746e-02 3.486471e-02 3.557414e-02 3.470639e-02 3.582062e-02 3.453684e-02 3.600678e-02 3.439645e-02 3.612828e-02 3.433955e-02 3.617788e-02 3.439505e-02 3.612330e-02 3.456588e-02 3.593625e-02 3.485484e-02 3.562180e-02 3.526743e-02 3.520999e-02 3.578537e-02 3.473096e-02 3.635641e-02 3.423391e-02 3.692583e-02 3.381045e-02 3.745138e-02 3.357836e-02 3.789055e-02 3.367027e-02 3.821166e-02 3.427441e-02 3.841545e-02 3.570878e-02 3.837055e-02 3.861309e-02 3.721501e-02 6.250794e-02 5.660133e-02 4.775520e-02 3.875313e-02 3.710003e-02 
4.152692e-02 4.323270e-02 4.591341e-02 5.160814e-02 6.066187e-02 6.982461e-02 6.188226e-02 6.320252e-02 5.933695e-02 6.011289e-02 5.651392e-02 5.632064e-02 5.046451e-02 4.998752e-02 5.010279e-02 5.002304e-02 5.012858e-02 5.006291e-02 5.007839e-02 5.011601e-02 4.994921e-02 5.044412e-02 5.391514e-02 5.586475e-02 5.744030e-02 5.879372e-02 5.961804e-02 6.033129e-02 6.093837e-02 6.105663e-02 6.172463e-02 6.136559e-02 6.219923e-02 6.149640e-02 6.248485e-02 6.156526e-02 6.263590e-02 6.162056e-02 6.268753e-02 6.169245e-02 6.267841e-02 6.179732e-02 6.263356e-02 6.192299e-02 6.255040e-02 6.203064e-02 6.240990e-02 6.207858e-02 6.219584e-02 6.203406e-02 6.188407e-02 6.184417e-02 6.140413e-02 6.139572e-02 6.060095e-02 6.049034e-02 5.924809e-02 5.982140e-02 6.048528e-02 6.124889e-02 5.911448e-02 5.953438e-02 5.916705e-02 5.995516e-02 6.057966e-02 6.172556e-02 6.085425e-02 6.014537e-02 5.998817e-02 6.022159e-02 6.082502e-02 6.120629e-02 6.193106e-02 6.134304e-02 6.222473e-02 6.164021e-02 6.262230e-02 6.192453e-02 6.289714e-02 6.214172e-02 6.303283e-02 6.231621e-02 6.305624e-02 6.248492e-02 6.300539e-02 6.267927e-02 6.291178e-02 6.290892e-02 6.278822e-02 6.315580e-02 6.263639e-02 6.338994e-02 6.246432e-02 6.359079e-02 6.230137e-02 6.375447e-02 6.218973e-02 6.387289e-02 6.215323e-02 6.391932e-02 6.219579e-02 6.386863e-02 6.232215e-02 6.372058e-02 6.254280e-02 6.349368e-02 6.285170e-02 6.320589e-02 6.321937e-02 6.288752e-02 6.361773e-02 6.259968e-02 6.402884e-02 6.242260e-02 6.443572e-02 6.244449e-02 6.483983e-02 6.278264e-02 6.531198e-02 6.360010e-02 6.605230e-02 6.507307e-02 6.854786e-02 6.875416e-02 5.614873e-02 4.993003e-02 4.424933e-02 4.279568e-02 
5.264417e-02 5.423850e-02 5.458737e-02 5.840013e-02 6.014231e-02 6.736305e-02 6.767074e-02 6.826392e-02 6.779151e-02 6.869915e-02 6.822392e-02 7.005250e-02 6.884859e-02 6.748597e-02 6.756852e-02 6.751720e-02 6.761111e-02 6.755334e-02 6.756535e-02 6.759737e-02 6.743321e-02 6.841612e-02 6.859097e-02 6.837968e-02 6.772183e-02 6.802046e-02 6.763782e-02 6.792697e-02 6.779824e-02 6.787110e-02 6.800331e-02 6.781726e-02 6.819098e-02 6.777464e-02 6.834024e-02 6.775495e-02 6.844260e-02 6.776409e-02 6.849835e-02 6.780495e-02 6.851504e-02 6.787590e-02 6.850103e-02 6.796795e-02 6.846093e-02 6.806647e-02 6.839818e-02 6.815866e-02 6.831966e-02 6.823930e-02 6.823595e-02 6.830671e-02 6.815810e-02 6.836187e-02 6.811862e-02 6.849902e-02 6.837172e-02 6.859431e-02 6.711360e-02 6.805302e-02 6.811087e-02 6.807120e-02 6.760377e-02 6.905647e-02 6.762493e-02 6.740345e-02 6.768809e-02 6.790829e-02 6.739208e-02 6.815577e-02 6.858653e-02 6.729029e-02 6.737630e-02 6.737467e-02 6.786893e-02 6.769059e-02 6.824648e-02 6.794010e-02 6.850254e-02 6.814103e-02 6.865340e-02 6.831268e-02 6.871856e-02 6.847422e-02 6.871921e-02 6.864038e-02 6.867410e-02 6.881665e-02 6.859688e-02 6.899712e-02 6.849863e-02 6.916963e-02 6.839200e-02 6.932287e-02 6.829422e-02 6.944772e-02 6.822515e-02 6.953443e-02 6.819954e-02 6.957101e-02 6.822515e-02 6.954792e-02 6.830557e-02 6.946460e-02 6.844099e-02 6.932893e-02 6.862298e-02 6.915330e-02 6.883287e-02 6.895591e-02 6.904608e-02 6.876172e-02 6.923293e-02 6.859561e-02 6.935517e-02 6.847273e-02 6.936700e-02 6.838962e-02 6.923181e-02 6.830837e-02 6.900739e-02 6.810763e-02 6.948254e-02 6.448943e-02 5.987949e-02 5.716648e-02 5.430922e-02 5.387007e-02 
5.235146e-02 5.346408e-02 5.390926e-02 5.648443e-02 5.778637e-02 6.138039e-02 6.233800e-02 6.451657e-02 6.566371e-02 6.726141e-02 7.010564e-02 7.200413e-02 7.832852e-02 7.797300e-02 7.802776e-02 7.797775e-02 7.801274e-02 7.799586e-02 7.799188e-02 7.802183e-02 7.797273e-02 7.819927e-02 7.315554e-02 7.163980e-02 6.859263e-02 6.794490e-02 6.633516e-02 6.598643e-02 6.526817e-02 6.493885e-02 6.481716e-02 6.437466e-02 6.466453e-02 6.407358e-02 6.464090e-02 6.392428e-02 6.465849e-02 6.386988e-02 6.467591e-02 6.388131e-02 6.467860e-02 6.394213e-02 6.466510e-02 6.403960e-02 6.463944e-02 6.416320e-02 6.461102e-02 6.430988e-02 6.460006e-02 6.449342e-02 6.464789e-02 6.475885e-02 6.483527e-02 6.520346e-02 6.530550e-02 6.601306e-02 6.630178e-02 6.692585e-02 6.597297e-02 6.668409e-02 6.711445e-02 6.668875e-02 6.554253e-02 6.615995e-02 6.581434e-02 6.608240e-02 6.631540e-02 6.634053e-02 6.556247e-02 6.516525e-02 6.567193e-02 6.560786e-02 6.575736e-02 6.516933e-02 6.547171e-02 6.481837e-02 6.528325e-02 6.464674e-02 6.519847e-02 6.460575e-02 6.514972e-02 6.464009e-02 6.509434e-02 6.472273e-02 6.501865e-02 6.484241e-02 6.492275e-02 6.498953e-02 6.481097e-02 6.515076e-02 6.469034e-02 6.531056e-02 6.457193e-02 6.545423e-02 6.447114e-02 6.556881e-02 6.440464e-02 6.564161e-02 6.438532e-02 6.566011e-02 6.442031e-02 6.561568e-02 6.451184e-02 6.550739e-02 6.465636e-02 6.534169e-02 6.484078e-02 6.512925e-02 6.504031e-02 6.488342e-02 6.521959e-02 6.461717e-02 6.533166e-02 6.433383e-02 6.531314e-02 6.401306e-02 6.507866e-02 6.359440e-02 6.451345e-02 6.295110e-02 6.345275e-02 6.183723e-02 6.163057e-02 5.935158e-02 5.709224e-02 5.535552e-02 5.352494e-02 5.310554e-02 
5.717639e-02 5.838954e-02 5.830576e-02 6.078420e-02 6.140738e-02 6.461074e-02 6.562964e-02 6.752023e-02 6.895994e-02 7.025015e-02 7.322836e-02 7.471054e-02 8.154213e-02 8.148305e-02 8.153572e-02 8.149066e-02 8.152571e-02 8.151221e-02 8.150029e-02 8.154049e-02 8.146957e-02 8.156202e-02 7.651759e-02 7.517075e-02 7.227112e-02 7.170377e-02 7.012142e-02 6.985348e-02 6.908199e-02 6.887370e-02 6.863869e-02 6.835936e-02 6.849105e-02 6.809463e-02 6.847452e-02 6.796989e-02 6.850344e-02 6.793037e-02 6.853674e-02 6.794870e-02 6.855890e-02 6.801091e-02 6.856903e-02 6.810993e-02 6.857532e-02 6.824451e-02 6.859455e-02 6.842307e-02 6.865729e-02 6.867477e-02 6.882373e-02 6.907340e-02 6.921357e-02 6.976781e-02 7.002648e-02 7.098665e-02 7.147495e-02 7.234818e-02 7.106738e-02 7.146478e-02 7.177747e-02 7.181805e-02 7.083765e-02 7.124296e-02 7.060368e-02 7.068703e-02 7.062188e-02 7.097719e-02 7.052150e-02 7.009106e-02 7.001873e-02 6.984045e-02 6.988385e-02 6.941739e-02 6.945777e-02 6.897864e-02 6.918084e-02 6.875710e-02 6.905848e-02 6.868786e-02 6.899851e-02 6.870053e-02 6.894616e-02 6.876151e-02 6.888186e-02 6.885632e-02 6.880167e-02 6.897450e-02 6.870799e-02 6.910503e-02 6.860752e-02 6.923649e-02 6.851046e-02 6.935734e-02 6.842874e-02 6.945574e-02 6.837394e-02 6.952018e-02 6.835554e-02 6.954109e-02 6.837965e-02 6.951267e-02 6.844803e-02 6.943429e-02 6.855675e-02 6.931017e-02 6.869404e-02 6.914731e-02 6.883849e-02 6.895252e-02 6.895811e-02 6.872783e-02 6.900899e-02 6.846214e-02 6.893203e-02 6.811813e-02 6.864873e-02 6.761465e-02 6.805442e-02 6.679820e-02 6.698865e-02 6.538052e-02 6.510797e-02 6.277716e-02 6.121920e-02 5.971595e-02 5.823068e-02 5.804662e-02 
5.235158e-02 5.346443e-02 5.390943e-02 5.648456e-02 5.778656e-02 6.138041e-02 6.233822e-02 6.451641e-02 6.566392e-02 6.726120e-02 7.010575e-02 7.200386e-02 7.832846e-02 7.797291e-02 7.802764e-02 7.797768e-02 7.801267e-02 7.799578e-02 7.799188e-02 7.802179e-02 7.797285e-02 7.819958e-02 7.315484e-02 7.164009e-02 6.859205e-02 6.794569e-02 6.633455e-02 6.598800e-02 6.526708e-02 6.494026e-02 6.481453e-02 6.437459e-02 6.466049e-02 6.407256e-02 6.463825e-02 6.392512e-02 6.466153e-02 6.387589e-02 6.468807e-02 6.389484e-02 6.470206e-02 6.396613e-02 6.470360e-02 6.408121e-02 6.470193e-02 6.423655e-02 6.471309e-02 6.443513e-02 6.476148e-02 6.469173e-02 6.488720e-02 6.504553e-02 6.516233e-02 6.557734e-02 6.570429e-02 6.641542e-02 6.664067e-02 6.730706e-02 6.617638e-02 6.665413e-02 6.701532e-02 6.667748e-02 6.573569e-02 6.626786e-02 6.574751e-02 6.584067e-02 6.615804e-02 6.623810e-02 6.560230e-02 6.538583e-02 6.566605e-02 6.540727e-02 6.579056e-02 6.534641e-02 6.571428e-02 6.510854e-02 6.556089e-02 6.492520e-02 6.543731e-02 6.482790e-02 6.533212e-02 6.480285e-02 6.522794e-02 6.483857e-02 6.511664e-02 6.492428e-02 6.499413e-02 6.504513e-02 6.485988e-02 6.518517e-02 6.472087e-02 6.533081e-02 6.459100e-02 6.546863e-02 6.448517e-02 6.558192e-02 6.441555e-02 6.565316e-02 6.439242e-02 6.566869e-02 6.442360e-02 6.562090e-02 6.451241e-02 6.550968e-02 6.465580e-02 6.534220e-02 6.484120e-02 6.512981e-02 6.504330e-02 6.488462e-02 6.522416e-02 6.461744e-02 6.533524e-02 6.433191e-02 6.531471e-02 6.401024e-02 6.507940e-02 6.359290e-02 6.451405e-02 6.295133e-02 6.345255e-02 6.183842e-02 6.162961e-02 5.935295e-02 5.709198e-02 5.535661e-02 5.352497e-02 5.310623e-02 
5.264452e-02 5.423920e-02 5.458774e-02 5.840050e-02 6.014272e-02 6.736366e-02 6.767147e-02 6.826343e-02 6.779235e-02 6.869867e-02 6.822453e-02 7.005201e-02 6.884855e-02 6.748595e-02 6.756828e-02 6.751722e-02 6.761091e-02 6.755314e-02 6.756540e-02 6.759701e-02 6.743349e-02 6.841652e-02 6.858931e-02 6.837923e-02 6.772006e-02 6.802059e-02 6.763569e-02 6.792825e-02 6.779478e-02 6.787158e-02 6.799610e-02 6.781381e-02 6.817943e-02 6.776721e-02 6.832839e-02 6.774724e-02 6.843675e-02 6.776002e-02 6.850214e-02 6.780538e-02 6.852823e-02 6.788104e-02 6.852376e-02 6.798284e-02 6.849902e-02 6.810477e-02 6.846358e-02 6.823880e-02 6.842286e-02 6.837169e-02 6.837207e-02 6.847926e-02 6.829235e-02 6.852789e-02 6.817367e-02 6.852574e-02 6.810684e-02 6.871462e-02 6.783642e-02 6.864629e-02 6.830806e-02 6.778212e-02 6.739668e-02 6.876984e-02 6.774230e-02 6.788144e-02 6.848465e-02 6.816909e-02 6.721904e-02 6.805207e-02 6.824714e-02 6.737488e-02 6.796267e-02 6.819455e-02 6.878528e-02 6.860503e-02 6.909324e-02 6.871546e-02 6.916841e-02 6.872808e-02 6.914172e-02 6.873433e-02 6.906904e-02 6.877226e-02 6.897200e-02 6.885067e-02 6.885576e-02 6.896088e-02 6.872187e-02 6.908956e-02 6.857903e-02 6.922715e-02 6.844371e-02 6.936357e-02 6.833146e-02 6.948188e-02 6.825291e-02 6.956270e-02 6.821771e-02 6.959160e-02 6.823469e-02 6.956100e-02 6.830933e-02 6.947140e-02 6.844207e-02 6.933165e-02 6.862536e-02 6.915550e-02 6.883973e-02 6.895890e-02 6.905569e-02 6.876261e-02 6.924038e-02 6.859211e-02 6.935854e-02 6.846745e-02 6.936858e-02 6.838686e-02 6.923288e-02 6.830893e-02 6.900666e-02 6.811027e-02 6.948031e-02 6.449167e-02 5.987917e-02 5.716838e-02 5.430946e-02 5.387133e-02 
4.152750e-02 4.323346e-02 4.591396e-02 5.160827e-02 6.066300e-02 6.982510e-02 6.188289e-02 6.320133e-02 5.933777e-02 6.011218e-02 5.651456e-02 5.631988e-02 5.046414e-02 4.998728e-02 5.010243e-02 5.002294e-02 5.012827e-02 5.006242e-02 5.007814e-02 5.011510e-02 4.994916e-02 5.044427e-02 5.391485e-02 5.586395e-02 5.743954e-02 5.879632e-02 5.961858e-02 6.034132e-02 6.093994e-02 6.106808e-02 6.171693e-02 6.136526e-02 6.217668e-02 6.148398e-02 6.246008e-02 6.155569e-02 6.263030e-02 6.162837e-02 6.271103e-02 6.171590e-02 6.272276e-02 6.182588e-02 6.268904e-02 6.195871e-02 6.262786e-02 6.210753e-02 6.255333e-02 6.226340e-02 6.247426e-02 6.241037e-02 6.238198e-02 6.250850e-02 6.222969e-02 6.247768e-02 6.194532e-02 6.225911e-02 6.152731e-02 6.170280e-02 6.082244e-02 6.149421e-02 6.038689e-02 6.072916e-02 6.065909e-02 6.147913e-02 6.129194e-02 6.161334e-02 6.130182e-02 6.128548e-02 6.162732e-02 6.196176e-02 6.270733e-02 6.260968e-02 6.319249e-02 6.268097e-02 6.332548e-02 6.266076e-02 6.342014e-02 6.264921e-02 6.344881e-02 6.263966e-02 6.341257e-02 6.265619e-02 6.332931e-02 6.272700e-02 6.321948e-02 6.286114e-02 6.308038e-02 6.303286e-02 6.289772e-02 6.321446e-02 6.268505e-02 6.340527e-02 6.248524e-02 6.360680e-02 6.232848e-02 6.378837e-02 6.222026e-02 6.390859e-02 6.217130e-02 6.394334e-02 6.219907e-02 6.388034e-02 6.231596e-02 6.372116e-02 6.253139e-02 6.348686e-02 6.284560e-02 6.320464e-02 6.323129e-02 6.289702e-02 6.364096e-02 6.260536e-02 6.404310e-02 6.241163e-02 6.443517e-02 6.242692e-02 6.483871e-02 6.277603e-02 6.531595e-02 6.360292e-02 6.605096e-02 6.507779e-02 6.853859e-02 6.875799e-02 5.614925e-02 4.993325e-02 4.425005e-02 4.279743e-02 
3.563682e-02 3.782200e-02 4.291491e-02 5.077935e-02 6.298518e-02 4.736118e-02 2.898492e-02 3.909631e-02 2.815644e-02 3.511431e-02 2.681137e-02 3.017074e-02 2.246576e-02 2.522902e-02 2.503602e-02 2.536695e-02 2.573433e-02 2.539384e-02 2.568543e-02 2.539157e-02 2.483589e-02 2.481395e-02 2.844927e-02 2.908924e-02 3.164392e-02 3.136000e-02 3.324078e-02 3.248589e-02 3.406666e-02 3.303262e-02 3.447113e-02 3.330481e-02 3.465280e-02 3.348644e-02 3.472781e-02 3.366104e-02 3.473852e-02 3.384228e-02 3.469231e-02 3.402344e-02 3.460070e-02 3.420273e-02 3.448250e-02 3.437580e-02 3.434988e-02 3.453069e-02 3.420964e-02 3.465184e-02 3.406137e-02 3.471296e-02 3.388206e-02 3.465455e-02 3.359175e-02 3.435167e-02 3.300839e-02 3.353316e-02 3.173587e-02 3.279048e-02 3.416634e-02 3.502341e-02 3.296341e-02 3.562820e-02 3.454844e-02 3.393401e-02 3.541309e-02 3.687663e-02 3.500563e-02 3.565383e-02 3.677145e-02 3.557500e-02 3.612702e-02 3.789999e-02 3.786534e-02 3.654346e-02 3.667660e-02 3.564797e-02 3.617163e-02 3.524942e-02 3.590997e-02 3.508052e-02 3.572151e-02 3.504239e-02 3.554713e-02 3.510789e-02 3.538052e-02 3.526072e-02 3.520390e-02 3.545546e-02 3.499105e-02 3.565026e-02 3.475763e-02 3.584028e-02 3.455919e-02 3.602707e-02 3.443250e-02 3.617196e-02 3.438251e-02 3.622301e-02 3.442264e-02 3.615258e-02 3.457419e-02 3.594914e-02 3.484902e-02 3.562014e-02 3.525200e-02 3.519964e-02 3.577359e-02 3.472987e-02 3.636592e-02 3.424754e-02 3.695040e-02 3.381868e-02 3.746557e-02 3.356508e-02 3.788633e-02 3.364869e-02 3.820918e-02 3.426636e-02 3.842308e-02 3.571155e-02 3.837283e-02 3.861601e-02 3.720570e-02 6.250119e-02 5.660454e-02 4.775878e-02 3.875570e-02 3.710196e-02 
9.430403e-03 1.258035e-02 1.764908e-02 2.787788e-02 2.906367e-02 2.456269e-02 2.616984e-02 1.986527e-02 2.493950e-02 1.986591e-02 2.381723e-02 2.013687e-02 2.209802e-02 2.286064e-02 2.508284e-02 2.561808e-02 2.537809e-02 2.662108e-02 2.441591e-02 2.606371e-02 2.168330e-02 2.254152e-02 2.012655e-02 2.256808e-02 2.033967e-02 2.261412e-02 2.077415e-02 2.257306e-02 2.120731e-02 2.243466e-02 2.157439e-02 2.224513e-02 2.187503e-02 2.205497e-02 2.212237e-02 2.189364e-02 2.231753e-02 2.177078e-02 2.245558e-02 2.168786e-02 2.253899e-02 2.164421e-02 2.257535e-02 2.163493e-02 2.257032e-02 2.165138e-02 2.252816e-02 2.168428e-02 2.245003e-02 2.172221e-02 2.232743e-02 2.174364e-02 2.213363e-02 2.169921e-02 2.181567e-02 2.151392e-02 2.134396e-02 2.132143e-02 2.165691e-02 2.162703e-02 2.129215e-02 2.190332e-02 2.173662e-02 2.151508e-02 2.208344e-02 2.257186e-02 2.202227e-02 2.235631e-02 2.276829e-02 2.239601e-02 2.280417e-02 2.350000e-02 2.377201e-02 2.298784e-02 2.312168e-02 2.256685e-02 2.284171e-02 2.235767e-02 2.271442e-02 2.223779e-02 2.264284e-02 2.217072e-02 2.259043e-02 2.214931e-02 2.254458e-02 2.217186e-02 2.248895e-02 2.222520e-02 2.240832e-02 2.229340e-02 2.230548e-02 2.237500e-02 2.219454e-02 2.247782e-02 2.208108e-02 2.259618e-02 2.196495e-02 2.271587e-02 2.185402e-02 2.283033e-02 2.175870e-02 2.293593e-02 2.168613e-02 2.303038e-02 2.164070e-02 2.311267e-02 2.162696e-02 2.317154e-02 2.164607e-02 2.318777e-02 2.169400e-02 2.315941e-02 2.178296e-02 2.310779e-02 2.196321e-02 2.306501e-02 2.232578e-02 2.305819e-02 2.302654e-02 2.306392e-02 2.445402e-02 2.296587e-02 2.952502e-02 2.202586e-02 3.818106e-02 2.115122e-02 1.515429e-02 9.991336e-03 
8.714453e-03 7.754454e-03 6.023095e-03 6.669500e-03 8.691137e-03 2.495985e-02 5.518789e-03 1.246961e-02 4.295910e-03 8.836028e-03 9.962103e-04 6.678696e-03 8.648150e-03 1.529706e-02 1.819708e-02 1.930050e-02 1.935925e-02 2.039193e-02 1.818267e-02 1.759384e-02 1.543348e-02 6.201179e-03 2.331805e-03 3.562065e-03 5.411731e-03 6.921568e-03 8.214220e-03 8.478902e-03 9.644559e-03 9.087697e-03 1.040101e-02 9.288229e-03 1.082759e-02 9.365699e-03 1.108984e-02 9.446214e-03 1.124337e-02 9.559949e-03 1.129933e-02 9.705407e-03 1.127335e-02 9.881032e-03 1.118968e-02 1.007950e-02 1.106635e-02 1.028468e-02 1.091683e-02 1.047791e-02 1.074783e-02 1.063203e-02 1.054321e-02 1.069028e-02 1.023476e-02 1.054486e-02 9.676584e-03 9.902474e-03 8.107001e-03 9.671144e-03 1.246261e-02 1.268774e-02 1.064001e-02 1.341651e-02 1.222704e-02 1.125314e-02 1.319440e-02 1.387202e-02 1.228741e-02 1.256854e-02 1.322887e-02 1.196572e-02 1.267458e-02 1.296675e-02 1.342523e-02 1.197581e-02 1.273028e-02 1.132586e-02 1.249933e-02 1.107722e-02 1.240005e-02 1.100817e-02 1.230914e-02 1.104743e-02 1.218568e-02 1.118361e-02 1.203369e-02 1.141057e-02 1.184250e-02 1.168649e-02 1.159169e-02 1.196808e-02 1.130257e-02 1.224872e-02 1.103662e-02 1.252871e-02 1.083698e-02 1.276641e-02 1.071593e-02 1.290574e-02 1.069435e-02 1.291548e-02 1.079886e-02 1.278087e-02 1.104297e-02 1.250627e-02 1.142940e-02 1.212165e-02 1.194481e-02 1.166117e-02 1.253711e-02 1.115076e-02 1.312228e-02 1.064716e-02 1.363353e-02 1.026527e-02 1.404025e-02 1.016206e-02 1.433149e-02 1.053124e-02 1.451075e-02 1.166881e-02 1.463266e-02 1.442307e-02 2.046906e-02 1.779097e-02 9.789889e-03 4.278978e-03 8.347263e-03 7.681377e-03 
1.584142e-03 1.279150e-03 1.711674e-03 2.210671e-03 3.295603e-03 6.506028e-03 7.419605e-03 5.228891e-03 5.992245e-03 8.599944e-03 9.943559e-03 1.778903e-02 2.187793e-02 2.277856e-02 1.170659e-02 6.514044e-03 3.002387e-03 4.310372e-03 7.034327e-03 1.133731e-02 2.263228e-02 2.295862e-02 1.563131e-02 1.064826e-02 6.565191e-03 4.500936e-03 2.792039e-03 2.172833e-03 1.185263e-03 1.554516e-03 4.914742e-04 1.490119e-03 2.056682e-04 1.467629e-03 1.649688e-04 1.385690e-03 2.012185e-04 1.247183e-03 2.162270e-04 1.068223e-03 2.190029e-04 8.585787e-04 2.364873e-04 6.256065e-04 2.752894e-04 3.760380e-04 3.182842e-04 1.109134e-04 3.430006e-04 1.943747e-04 3.550926e-04 5.665079e-04 4.826089e-04 1.131932e-03 1.205491e-03 2.579507e-03 1.591773e-03 5.999003e-03 4.230671e-03 2.778038e-03 7.899211e-04 1.123078e-03 2.567856e-03 1.315698e-03 3.725962e-03 1.055416e-03 1.783674e-03 2.645144e-05 8.202964e-04 1.169439e-03 1.705817e-03 1.343441e-03 9.624885e-04 1.066244e-03 8.205667e-04 4.647375e-04 1.053205e-03 2.338881e-04 1.169981e-03 1.347942e-04 1.177106e-03 2.270109e-04 1.102480e-03 4.045309e-04 9.741596e-04 6.341425e-04 8.045317e-04 8.958950e-04 6.010097e-04 1.161452e-03 3.968669e-04 1.413844e-03 2.517761e-04 1.639537e-03 1.925773e-04 1.806976e-03 1.638150e-04 1.877531e-03 1.264958e-04 1.825535e-03 2.133478e-04 1.641224e-03 4.876712e-04 1.338143e-03 8.914515e-04 9.650678e-04 1.394328e-03 6.365783e-04 1.942338e-03 6.226558e-04 2.451418e-03 9.469595e-04 2.828777e-03 1.314539e-03 2.977217e-03 1.602137e-03 2.776736e-03 1.840085e-03 2.059844e-03 2.254898e-03 6.973428e-04 3.434084e-03 5.454827e-03 7.593985e-03 1.765810e-03 2.469740e-03 2.210020e-03 3.143646e-04 
