# vtk DataFile Version 2.0
Comment goes here
ASCII

DATASET STRUCTURED_POINTS
FIELD FieldData 1
TIME 1 1 double
0.42000000
DIMENSIONS    128   16   1

ORIGIN    0.000   0.000   0.000
SPACING   0.0078125 0.015625   1.000

POINT_DATA   2048
SCALARS uX double
LOOKUP_TABLE default

7.284047e-03 3.391600e-03 6.107589e-03 4.952416e-04 4.481167e-03 -2.488798e-03 1.052420e-02 -1.594170e-03 4.875145e-03 -4.857993e-03 -3.592264e-03 -1.405341e-02 -2.147820e-02 -3.723223e-02 -4.599733e-02 -4.849263e-02 -5.290153e-02 -5.108988e-02 -5.013413e-02 -4.435263e-02 -3.835315e-02 -1.983077e-02 -1.409669e-02 -4.294606e-03 -3.741610e-03 1.931812e-03 5.850720e-04 4.455809e-03 2.422487e-03 5.397877e-03 3.219111e-03 5.652419e-03 3.593436e-03 5.604369e-03 3.806477e-03 5.425890e-03 3.962821e-03 5.198522e-03 4.096354e-03 4.960424e-03 4.203743e-03 4.723734e-03 4.273922e-03 4.506269e-03 4.316632e-03 4.333006e-03 4.343994e-03 4.209875e-03 4.359056e-03 4.139270e-03 4.384056e-03 4.148360e-03 4.475420e-03 4.307220e-03 4.739608e-03 4.688503e-03 4.975993e-03 4.665019e-03 5.069343e-03 4.158343e-03 4.183503e-03 5.643835e-03 5.763726e-03 4.853093e-03 4.229883e-03 3.813466e-03 3.598791e-03 4.533404e-03 4.825331e-03 5.106139e-03 4.050178e-03 3.453857e-03 3.164441e-03 4.090612e-03 3.266454e-03 4.072905e-03 3.122179e-03 4.037082e-03 3.006452e-03 4.018036e-03 2.937740e-03 3.994604e-03 2.911195e-03 3.934042e-03 2.926177e-03 3.820684e-03 2.996124e-03 3.653767e-03 3.125427e-03 3.431009e-03 3.304384e-03 3.161861e-03 3.523558e-03 2.873298e-03 3.762726e-03 2.594349e-03 3.983848e-03 2.356635e-03 4.144941e-03 2.199795e-03 4.205351e-03 2.161629e-03 4.129979e-03 2.275820e-03 3.899873e-03 2.563954e-03 3.506961e-03 3.016862e-03 2.958334e-03 3.609017e-03 2.302551e-03 4.303849e-03 1.622599e-03 5.037133e-03 1.033574e-03 5.729968e-03 7.277664e-04 6.308488e-03 1.029117e-03 6.664887e-03 2.514531e-03 6.507816e-03 6.499998e-03 6.527187e-04 5.555783e-03 2.530881e-03 6.939017e-03 4.042833e-03 
3.016589e-03 -4.905803e-05 1.527438e-03 -2.982274e-03 -1.786039e-03 -7.361612e-03 8.313637e-03 -2.817837e-03 3.739389e-03 -1.658295e-03 -3.053520e-04 -1.278266e-03 -5.615886e-03 -5.185173e-04 -1.601449e-03 2.321142e-03 -8.934144e-04 3.032354e-03 -1.392378e-03 1.764680e-03 -3.434423e-03 -2.947203e-03 -2.586061e-03 -5.412871e-04 -1.296092e-03 6.917765e-04 -6.644518e-04 1.311327e-03 -3.108522e-04 1.590207e-03 -9.051711e-05 1.645826e-03 6.348178e-05 1.561828e-03 2.033980e-04 1.411143e-03 3.559374e-04 1.231998e-03 5.025832e-04 1.028195e-03 6.125560e-04 8.115759e-04 6.880646e-04 6.244882e-04 7.522561e-04 4.916247e-04 8.041422e-04 4.052541e-04 8.454387e-04 3.873441e-04 9.316976e-04 4.892089e-04 1.115735e-03 7.374948e-04 1.429018e-03 1.146710e-03 1.727525e-03 9.994028e-04 7.666733e-04 1.434101e-05 9.053579e-04 1.939597e-03 2.820906e-03 1.896995e-03 7.592064e-04 -3.009625e-04 -6.914506e-05 6.555712e-04 1.362074e-03 1.567963e-03 3.364294e-04 -9.425809e-04 -1.326346e-03 -6.404687e-04 -9.807944e-04 -2.769061e-04 -8.282036e-04 -5.429857e-05 -7.367403e-04 1.052379e-04 -6.710788e-04 1.867450e-04 -6.388104e-04 1.659457e-04 -6.164347e-04 6.495139e-05 -5.461369e-04 -8.404463e-05 -4.069525e-04 -2.893589e-04 -2.250366e-04 -5.572773e-04 -1.093104e-05 -8.515479e-04 2.315804e-04 -1.130300e-03 4.674616e-04 -1.368829e-03 6.423950e-04 -1.536427e-03 7.116505e-04 -1.587925e-03 6.502942e-04 -1.477614e-03 4.400532e-04 -1.185960e-03 6.476471e-05 -7.233989e-04 -4.680783e-04 -1.037395e-04 -1.104891e-03 6.422218e-04 -1.770828e-03 1.449842e-03 -2.368750e-03 2.245593e-03 -2.734942e-03 2.959106e-03 -2.617093e-03 3.436871e-03 -1.570759e-03 3.093753e-03 1.771899e-03 -6.340432e-03 1.725418e-03 -1.441170e-03 2.969997e-03 3.874008e-04 
1.055564e-02 8.031972e-03 6.917684e-03 1.328854e-03 -4.969930e-03 -1.526516e-02 -3.352983e-03 -1.134964e-02 -2.258410e-03 -6.560698e-03 1.178546e-03 1.204267e-03 1.117611e-02 1.550943e-02 2.035591e-02 2.144636e-02 2.264220e-02 2.309887e-02 2.088746e-02 2.026213e-02 1.538010e-02 9.471542e-03 1.550218e-03 -4.296431e-04 -4.966225e-03 -4.585265e-03 -7.866214e-03 -6.400731e-03 -9.195552e-03 -7.217349e-03 -9.812110e-03 -7.668266e-03 -1.011129e-02 -8.000180e-03 -1.021974e-02 -8.264056e-03 -1.017973e-02 -8.488311e-03 -1.007658e-02 -8.736114e-03 -9.993716e-03 -9.016990e-03 -9.922759e-03 -9.257695e-03 -9.824952e-03 -9.434539e-03 -9.739127e-03 -9.596458e-03 -9.713840e-03 -9.742663e-03 -9.714288e-03 -9.847075e-03 -9.771145e-03 -1.003133e-02 -1.009497e-02 -1.056193e-02 -1.086637e-02 -1.065095e-02 -9.315314e-03 -9.001347e-03 -9.465885e-03 -1.234815e-02 -1.264161e-02 -1.211982e-02 -9.924319e-03 -9.077961e-03 -9.423432e-03 -1.109197e-02 -1.247432e-02 -1.240406e-02 -1.151269e-02 -8.825980e-03 -9.861846e-03 -9.836623e-03 -1.059508e-02 -9.908383e-03 -1.081210e-02 -9.863147e-03 -1.091560e-02 -9.758120e-03 -1.094202e-02 -9.679114e-03 -1.098029e-02 -9.719636e-03 -1.103396e-02 -9.840661e-03 -1.100272e-02 -9.977399e-03 -1.085647e-02 -1.017393e-02 -1.067119e-02 -1.047472e-02 -1.045544e-02 -1.081469e-02 -1.017517e-02 -1.113049e-02 -9.872542e-03 -1.142382e-02 -9.631261e-03 -1.167852e-02 -9.497672e-03 -1.183223e-02 -9.477029e-03 -1.181921e-02 -9.594194e-03 -1.163582e-02 -9.894183e-03 -1.130221e-02 -1.037602e-02 -1.081384e-02 -1.099001e-02 -1.020735e-02 -1.171315e-02 -9.584805e-03 -1.253281e-02 -9.050908e-03 -1.340585e-02 -8.720386e-03 -1.432707e-02 -8.805479e-03 -1.526754e-02 -9.806916e-03 -1.552848e-02 -1.396974e-02 2.269710e-03 3.850903e-03 9.484298e-03 8.689421e-03 
9.478147e-03 9.618048e-03 6.628465e-03 4.346068e-03 -4.180587e-03 -1.206558e-02 -2.678168e-02 -2.021097e-02 -2.259254e-02 -2.114755e-02 -2.030571e-02 -2.156744e-02 -1.768113e-02 -2.313301e-02 -2.176255e-02 -2.590216e-02 -2.266030e-02 -2.650373e-02 -2.227425e-02 -2.513626e-02 -2.021877e-02 -2.040164e-02 -1.962076e-02 -2.105250e-02 -2.035690e-02 -2.137948e-02 -2.099519e-02 -2.146508e-02 -2.149278e-02 -2.141346e-02 -2.185942e-02 -2.131909e-02 -2.212858e-02 -2.123614e-02 -2.231131e-02 -2.117728e-02 -2.240874e-02 -2.114787e-02 -2.244313e-02 -2.116853e-02 -2.244419e-02 -2.124207e-02 -2.241371e-02 -2.134094e-02 -2.234597e-02 -2.144938e-02 -2.226046e-02 -2.157030e-02 -2.218499e-02 -2.170491e-02 -2.213075e-02 -2.184567e-02 -2.210835e-02 -2.201862e-02 -2.214761e-02 -2.223504e-02 -2.204304e-02 -2.215808e-02 -2.173287e-02 -2.202922e-02 -2.195425e-02 -2.266138e-02 -2.262965e-02 -2.283222e-02 -2.192241e-02 -2.214248e-02 -2.191638e-02 -2.235458e-02 -2.218260e-02 -2.263059e-02 -2.202343e-02 -2.145277e-02 -2.138097e-02 -2.135028e-02 -2.155570e-02 -2.148301e-02 -2.176093e-02 -2.154287e-02 -2.191454e-02 -2.154509e-02 -2.201850e-02 -2.152785e-02 -2.210405e-02 -2.153683e-02 -2.218093e-02 -2.156130e-02 -2.221842e-02 -2.158252e-02 -2.220723e-02 -2.162617e-02 -2.217914e-02 -2.171559e-02 -2.213040e-02 -2.182509e-02 -2.203576e-02 -2.193821e-02 -2.190843e-02 -2.207376e-02 -2.177541e-02 -2.223554e-02 -2.163883e-02 -2.240310e-02 -2.148879e-02 -2.255884e-02 -2.133973e-02 -2.271512e-02 -2.121902e-02 -2.287016e-02 -2.112763e-02 -2.300167e-02 -2.106862e-02 -2.311043e-02 -2.107933e-02 -2.321457e-02 -2.120508e-02 -2.331249e-02 -2.150646e-02 -2.339389e-02 -2.213852e-02 -2.337830e-02 -2.347292e-02 -2.275547e-02 -2.711279e-02 -8.640877e-03 -2.440958e-03 5.377175e-03 7.084892e-03 9.869973e-03 
3.270914e-02 3.565123e-02 3.511961e-02 4.001951e-02 4.223999e-02 4.963671e-02 2.647429e-02 3.909244e-02 2.688023e-02 3.396743e-02 2.507686e-02 2.857373e-02 1.850455e-02 2.262253e-02 2.154150e-02 2.240075e-02 2.250041e-02 2.217304e-02 2.274484e-02 2.175747e-02 2.237018e-02 2.029977e-02 2.744264e-02 2.654743e-02 3.087781e-02 2.959221e-02 3.249989e-02 3.114825e-02 3.324469e-02 3.197664e-02 3.355413e-02 3.250180e-02 3.367126e-02 3.289666e-02 3.366722e-02 3.319032e-02 3.356548e-02 3.341034e-02 3.344283e-02 3.362221e-02 3.337346e-02 3.383973e-02 3.334215e-02 3.399937e-02 3.330658e-02 3.409158e-02 3.330408e-02 3.418197e-02 3.338070e-02 3.427997e-02 3.349589e-02 3.436754e-02 3.367497e-02 3.455560e-02 3.408502e-02 3.497829e-02 3.456186e-02 3.458065e-02 3.359842e-02 3.370093e-02 3.365857e-02 3.643989e-02 3.654895e-02 3.611079e-02 3.425443e-02 3.385576e-02 3.373652e-02 3.510671e-02 3.593009e-02 3.617572e-02 3.487104e-02 3.299199e-02 3.305048e-02 3.332698e-02 3.366103e-02 3.363491e-02 3.399025e-02 3.379814e-02 3.416902e-02 3.385520e-02 3.424503e-02 3.388863e-02 3.430955e-02 3.398978e-02 3.437649e-02 3.413208e-02 3.436182e-02 3.426138e-02 3.424544e-02 3.442212e-02 3.410208e-02 3.465999e-02 3.394408e-02 3.492129e-02 3.374223e-02 3.514909e-02 3.353094e-02 3.534304e-02 3.338422e-02 3.549148e-02 3.334681e-02 3.554217e-02 3.342335e-02 3.543580e-02 3.363044e-02 3.516644e-02 3.400508e-02 3.476088e-02 3.455165e-02 3.422765e-02 3.522634e-02 3.361203e-02 3.600935e-02 3.303140e-02 3.690437e-02 3.263110e-02 3.789188e-02 3.259526e-02 3.895891e-02 3.327486e-02 3.991749e-02 3.556037e-02 3.900542e-02 4.938982e-02 3.417772e-02 3.764758e-02 3.215361e-02 3.505255e-02 
3.697382e-02 3.880902e-02 3.988018e-02 4.436862e-02 5.041671e-02 6.070986e-02 5.820475e-02 6.048499e-02 5.516702e-02 5.737936e-02 5.232962e-02 5.311591e-02 4.616695e-02 4.639611e-02 4.617386e-02 4.634031e-02 4.631189e-02 4.626286e-02 4.639047e-02 4.619983e-02 4.637167e-02 4.621732e-02 5.119569e-02 5.174982e-02 5.464353e-02 5.462514e-02 5.667737e-02 5.612840e-02 5.782836e-02 5.687392e-02 5.845293e-02 5.727244e-02 5.879187e-02 5.752771e-02 5.894629e-02 5.770497e-02 5.896087e-02 5.784154e-02 5.890631e-02 5.799221e-02 5.884806e-02 5.816701e-02 5.878165e-02 5.831285e-02 5.867961e-02 5.840915e-02 5.856716e-02 5.848246e-02 5.847438e-02 5.852618e-02 5.836933e-02 5.850176e-02 5.822414e-02 5.840428e-02 5.799588e-02 5.810874e-02 5.734542e-02 5.781136e-02 5.834586e-02 5.892672e-02 5.767771e-02 5.779663e-02 5.755801e-02 5.810107e-02 5.846017e-02 5.937320e-02 5.872655e-02 5.818917e-02 5.783795e-02 5.823074e-02 5.857142e-02 5.900086e-02 5.916794e-02 5.876759e-02 5.908045e-02 5.867944e-02 5.914097e-02 5.863082e-02 5.922193e-02 5.858027e-02 5.928262e-02 5.854768e-02 5.934873e-02 5.858712e-02 5.941607e-02 5.867116e-02 5.941482e-02 5.875828e-02 5.932545e-02 5.888712e-02 5.920607e-02 5.909477e-02 5.906126e-02 5.933383e-02 5.886150e-02 5.956013e-02 5.863700e-02 5.978109e-02 5.844856e-02 5.998766e-02 5.832547e-02 6.013350e-02 5.826806e-02 6.017159e-02 5.829822e-02 6.010422e-02 5.845466e-02 5.994276e-02 5.873841e-02 5.967931e-02 5.912460e-02 5.934494e-02 5.961929e-02 5.902349e-02 6.023891e-02 5.880486e-02 6.098983e-02 5.880224e-02 6.193976e-02 5.919651e-02 6.326576e-02 6.027746e-02 6.559762e-02 5.828668e-02 4.585679e-02 4.289228e-02 3.839467e-02 3.846647e-02 
4.780289e-02 4.963935e-02 4.911434e-02 5.240173e-02 5.324103e-02 5.913143e-02 6.222085e-02 6.356666e-02 6.188154e-02 6.407070e-02 6.226103e-02 6.415834e-02 6.326336e-02 6.355289e-02 6.327691e-02 6.348428e-02 6.344661e-02 6.338645e-02 6.354608e-02 6.329670e-02 6.353325e-02 6.330140e-02 6.320777e-02 6.271467e-02 6.301628e-02 6.251023e-02 6.311256e-02 6.246316e-02 6.326979e-02 6.246716e-02 6.341068e-02 6.250219e-02 6.351376e-02 6.256549e-02 6.357102e-02 6.265041e-02 6.358184e-02 6.275223e-02 6.355910e-02 6.287312e-02 6.351979e-02 6.300822e-02 6.346946e-02 6.314177e-02 6.340935e-02 6.326329e-02 6.334821e-02 6.337078e-02 6.329623e-02 6.346303e-02 6.325550e-02 6.353213e-02 6.321306e-02 6.355061e-02 6.311072e-02 6.346419e-02 6.300092e-02 6.352957e-02 6.265331e-02 6.322059e-02 6.266342e-02 6.297347e-02 6.260661e-02 6.365549e-02 6.288712e-02 6.311909e-02 6.262606e-02 6.303447e-02 6.273872e-02 6.339379e-02 6.333879e-02 6.326362e-02 6.315400e-02 6.328402e-02 6.329498e-02 6.329597e-02 6.343159e-02 6.332270e-02 6.357373e-02 6.335877e-02 6.369195e-02 6.339760e-02 6.377841e-02 6.345289e-02 6.383080e-02 6.352661e-02 6.383716e-02 6.361701e-02 6.379505e-02 6.373450e-02 6.371899e-02 6.388490e-02 6.361516e-02 6.405260e-02 6.348519e-02 6.422040e-02 6.334709e-02 6.438085e-02 6.322677e-02 6.452049e-02 6.314143e-02 6.461680e-02 6.310111e-02 6.465060e-02 6.311979e-02 6.461835e-02 6.320951e-02 6.451884e-02 6.336435e-02 6.435195e-02 6.356761e-02 6.413235e-02 6.379887e-02 6.388461e-02 6.401837e-02 6.362516e-02 6.415780e-02 6.336053e-02 6.413336e-02 6.307632e-02 6.391169e-02 6.266619e-02 6.407519e-02 5.731156e-02 5.355202e-02 5.166588e-02 4.909742e-02 4.939109e-02 
4.735269e-02 4.846898e-02 4.878503e-02 5.111454e-02 5.237056e-02 5.556400e-02 5.708319e-02 5.939015e-02 6.050518e-02 6.227229e-02 6.509976e-02 6.657514e-02 7.394774e-02 7.410042e-02 7.400731e-02 7.408595e-02 7.405832e-02 7.405453e-02 7.409244e-02 7.401847e-02 7.409797e-02 7.397756e-02 6.782833e-02 6.668816e-02 6.382720e-02 6.290571e-02 6.180149e-02 6.086762e-02 6.079587e-02 5.979063e-02 6.031987e-02 5.924256e-02 6.009923e-02 5.898809e-02 5.998735e-02 5.889752e-02 5.991117e-02 5.890096e-02 5.984307e-02 5.896269e-02 5.977726e-02 5.905913e-02 5.971130e-02 5.916858e-02 5.964373e-02 5.927654e-02 5.957896e-02 5.937706e-02 5.952191e-02 5.946353e-02 5.946842e-02 5.952668e-02 5.941851e-02 5.958742e-02 5.943477e-02 5.979175e-02 5.979765e-02 6.027388e-02 5.969576e-02 6.016196e-02 6.037474e-02 6.019429e-02 5.952607e-02 6.002572e-02 5.972430e-02 5.998456e-02 6.002160e-02 6.024759e-02 5.964965e-02 5.950057e-02 5.957807e-02 5.963134e-02 5.973961e-02 5.955183e-02 5.984100e-02 5.956624e-02 5.998792e-02 5.959857e-02 6.010419e-02 5.960672e-02 6.017178e-02 5.960840e-02 6.020541e-02 5.963049e-02 6.021127e-02 5.968230e-02 6.018285e-02 5.976411e-02 6.011746e-02 5.987872e-02 6.002196e-02 6.002468e-02 5.990239e-02 6.018871e-02 5.976550e-02 6.035438e-02 5.962733e-02 6.050805e-02 5.950946e-02 6.063344e-02 5.942993e-02 6.071017e-02 5.940129e-02 6.072008e-02 5.943377e-02 6.065392e-02 5.953218e-02 6.050798e-02 5.968753e-02 6.028057e-02 5.987469e-02 5.997397e-02 6.005241e-02 5.958865e-02 6.015319e-02 5.910686e-02 6.006814e-02 5.847656e-02 5.963320e-02 5.758984e-02 5.859706e-02 5.622990e-02 5.656354e-02 5.354055e-02 5.167938e-02 5.001807e-02 4.837147e-02 4.812293e-02 
5.218664e-02 5.348672e-02 5.319504e-02 5.552822e-02 5.610183e-02 5.900643e-02 6.039577e-02 6.249910e-02 6.372152e-02 6.542682e-02 6.816284e-02 6.970484e-02 7.719467e-02 7.738747e-02 7.725364e-02 7.735680e-02 7.732647e-02 7.730402e-02 7.738100e-02 7.725198e-02 7.739513e-02 7.721313e-02 7.130314e-02 7.015484e-02 6.749353e-02 6.655856e-02 6.553467e-02 6.464908e-02 6.455825e-02 6.367827e-02 6.410562e-02 6.321526e-02 6.390806e-02 6.302455e-02 6.382149e-02 6.298058e-02 6.377359e-02 6.301655e-02 6.373318e-02 6.309761e-02 6.369114e-02 6.320428e-02 6.364726e-02 6.332275e-02 6.360312e-02 6.344141e-02 6.355972e-02 6.355017e-02 6.351545e-02 6.363688e-02 6.345925e-02 6.368375e-02 6.338338e-02 6.371574e-02 6.338456e-02 6.395779e-02 6.382309e-02 6.457888e-02 6.377819e-02 6.432704e-02 6.419486e-02 6.438592e-02 6.344369e-02 6.388037e-02 6.345173e-02 6.401774e-02 6.367067e-02 6.418121e-02 6.365025e-02 6.344206e-02 6.318425e-02 6.375941e-02 6.369554e-02 6.370996e-02 6.371303e-02 6.371601e-02 6.385337e-02 6.376986e-02 6.397052e-02 6.378545e-02 6.403068e-02 6.378490e-02 6.405535e-02 6.379867e-02 6.405513e-02 6.383920e-02 6.402953e-02 6.390924e-02 6.397696e-02 6.400756e-02 6.389892e-02 6.412919e-02 6.380016e-02 6.426506e-02 6.368901e-02 6.440368e-02 6.357816e-02 6.453270e-02 6.348266e-02 6.463822e-02 6.341609e-02 6.470516e-02 6.338894e-02 6.472077e-02 6.340861e-02 6.467719e-02 6.347594e-02 6.456964e-02 6.358044e-02 6.439489e-02 6.369785e-02 6.414911e-02 6.378608e-02 6.381979e-02 6.377790e-02 6.337268e-02 6.357343e-02 6.273386e-02 6.303387e-02 6.176056e-02 6.196139e-02 6.017218e-02 5.999895e-02 5.740457e-02 5.605000e-02 5.466217e-02 5.319591e-02 5.321380e-02 
4.735225e-02 4.846894e-02 4.878493e-02 5.111462e-02 5.237066e-02 5.556419e-02 5.708353e-02 5.939049e-02 6.050546e-02 6.227243e-02 6.509974e-02 6.657487e-02 7.394725e-02 7.409971e-02 7.400663e-02 7.408494e-02 7.405735e-02 7.405300e-02 7.409095e-02 7.401615e-02 7.409586e-02 7.397528e-02 6.782777e-02 6.668604e-02 6.382832e-02 6.290406e-02 6.180383e-02 6.086743e-02 6.079986e-02 5.979177e-02 6.032292e-02 5.924176e-02 6.009824e-02 5.898517e-02 5.998516e-02 5.889732e-02 5.991273e-02 5.890597e-02 5.984879e-02 5.897120e-02 5.978796e-02 5.907533e-02 5.973729e-02 5.920504e-02 5.969738e-02 5.934040e-02 5.966165e-02 5.946589e-02 5.963078e-02 5.957818e-02 5.960552e-02 5.966794e-02 5.957541e-02 5.973499e-02 5.957694e-02 5.989022e-02 5.983014e-02 6.027422e-02 5.957627e-02 6.001848e-02 6.023872e-02 6.022134e-02 5.957683e-02 5.991854e-02 5.952376e-02 5.980125e-02 5.988326e-02 6.015901e-02 5.973384e-02 5.963650e-02 5.958464e-02 5.960722e-02 5.983118e-02 5.969294e-02 6.000268e-02 5.974620e-02 6.015867e-02 5.976258e-02 6.024719e-02 5.973227e-02 6.027862e-02 5.969604e-02 6.027904e-02 5.968590e-02 6.025741e-02 5.971544e-02 6.021239e-02 5.978807e-02 6.014058e-02 5.989993e-02 6.003984e-02 6.004126e-02 5.991313e-02 6.020002e-02 5.977149e-02 6.036324e-02 5.963201e-02 6.051564e-02 5.951324e-02 6.063844e-02 5.943201e-02 6.071206e-02 5.940255e-02 6.072019e-02 5.943516e-02 6.065254e-02 5.953343e-02 6.050570e-02 5.968984e-02 6.027994e-02 5.987982e-02 5.997598e-02 6.005905e-02 5.959165e-02 6.015943e-02 5.911038e-02 6.007343e-02 5.847972e-02 5.963526e-02 5.759032e-02 5.859492e-02 5.622871e-02 5.656035e-02 5.353976e-02 5.167755e-02 5.001765e-02 4.837051e-02 4.812272e-02 
4.780224e-02 4.963918e-02 4.911409e-02 5.240162e-02 5.324089e-02 5.913142e-02 6.222114e-02 6.356693e-02 6.188148e-02 6.407031e-02 6.226054e-02 6.415742e-02 6.326299e-02 6.355259e-02 6.327631e-02 6.348354e-02 6.344534e-02 6.338452e-02 6.354345e-02 6.329215e-02 6.352943e-02 6.329570e-02 6.320434e-02 6.270830e-02 6.301443e-02 6.250342e-02 6.311246e-02 6.245864e-02 6.327232e-02 6.246351e-02 6.340938e-02 6.249194e-02 6.350175e-02 6.254794e-02 6.355287e-02 6.263261e-02 6.356298e-02 6.273481e-02 6.353669e-02 6.284949e-02 6.349062e-02 6.297959e-02 6.344473e-02 6.312407e-02 6.340501e-02 6.326275e-02 6.335670e-02 6.337168e-02 6.329841e-02 6.345633e-02 6.324375e-02 6.351585e-02 6.317027e-02 6.350550e-02 6.301146e-02 6.336177e-02 6.269649e-02 6.315667e-02 6.260221e-02 6.353266e-02 6.293673e-02 6.287270e-02 6.245347e-02 6.342700e-02 6.269961e-02 6.335955e-02 6.336595e-02 6.349793e-02 6.273732e-02 6.345014e-02 6.332428e-02 6.340919e-02 6.352802e-02 6.380642e-02 6.387869e-02 6.388742e-02 6.399028e-02 6.382664e-02 6.402149e-02 6.374132e-02 6.402742e-02 6.367463e-02 6.401851e-02 6.364103e-02 6.399142e-02 6.364944e-02 6.394574e-02 6.370695e-02 6.387764e-02 6.380696e-02 6.377877e-02 6.393691e-02 6.365156e-02 6.408783e-02 6.350826e-02 6.424754e-02 6.336422e-02 6.440177e-02 6.323925e-02 6.453452e-02 6.314979e-02 6.462398e-02 6.310703e-02 6.465364e-02 6.312578e-02 6.461867e-02 6.321520e-02 6.451680e-02 6.337057e-02 6.435174e-02 6.357849e-02 6.413716e-02 6.381210e-02 6.389007e-02 6.402907e-02 6.363063e-02 6.416701e-02 6.336663e-02 6.413741e-02 6.307721e-02 6.390674e-02 6.266341e-02 6.406890e-02 5.731025e-02 5.354923e-02 5.166537e-02 4.909606e-02 4.939083e-02 
3.697379e-02 3.880939e-02 3.988063e-02 4.436911e-02 5.041727e-02 6.071094e-02 5.820696e-02 6.048667e-02 5.516924e-02 5.738060e-02 5.233077e-02 5.311540e-02 4.616575e-02 4.639425e-02 4.617204e-02 4.633801e-02 4.630973e-02 4.625914e-02 4.638639e-02 4.618951e-02 4.636018e-02 4.619559e-02 5.119379e-02 5.174286e-02 5.465007e-02 5.461740e-02 5.668334e-02 5.612895e-02 5.785044e-02 5.689098e-02 5.847380e-02 5.727107e-02 5.877568e-02 5.749819e-02 5.891542e-02 5.769066e-02 5.895714e-02 5.785677e-02 5.890856e-02 5.798705e-02 5.881777e-02 5.813959e-02 5.877444e-02 5.834932e-02 5.877497e-02 5.853617e-02 5.873191e-02 5.863468e-02 5.866333e-02 5.873081e-02 5.867943e-02 5.890196e-02 5.878207e-02 5.908293e-02 5.884563e-02 5.914564e-02 5.873658e-02 5.896234e-02 5.825445e-02 5.872385e-02 5.790757e-02 5.793017e-02 5.788711e-02 5.861962e-02 5.832333e-02 5.874774e-02 5.841027e-02 5.844125e-02 5.856092e-02 5.901739e-02 5.934231e-02 5.958840e-02 5.970850e-02 5.938553e-02 5.956569e-02 5.914520e-02 5.950610e-02 5.897122e-02 5.951482e-02 5.884983e-02 5.953112e-02 5.875557e-02 5.952815e-02 5.870259e-02 5.950222e-02 5.871080e-02 5.945463e-02 5.879558e-02 5.938095e-02 5.894931e-02 5.926030e-02 5.914105e-02 5.907928e-02 5.935148e-02 5.886128e-02 5.957746e-02 5.864592e-02 5.980642e-02 5.846061e-02 6.000237e-02 5.832543e-02 6.013177e-02 5.826564e-02 6.016913e-02 5.830118e-02 6.009583e-02 5.845108e-02 5.992413e-02 5.873679e-02 5.967278e-02 5.914427e-02 5.935656e-02 5.964592e-02 5.903401e-02 6.026026e-02 5.881932e-02 6.101516e-02 5.882043e-02 6.194931e-02 5.919329e-02 6.324702e-02 6.026523e-02 6.557804e-02 5.828398e-02 4.585312e-02 4.289186e-02 3.839357e-02 3.846663e-02 
3.270997e-02 3.565182e-02 3.512083e-02 4.002014e-02 4.224202e-02 4.963810e-02 2.647878e-02 3.909405e-02 2.688653e-02 3.396999e-02 2.508246e-02 2.857422e-02 1.850566e-02 2.261864e-02 2.153938e-02 2.239929e-02 2.249880e-02 2.217138e-02 2.273608e-02 2.174025e-02 2.235190e-02 2.027803e-02 2.744253e-02 2.654913e-02 3.088992e-02 2.959232e-02 3.250401e-02 3.115292e-02 3.326245e-02 3.200106e-02 3.356660e-02 3.249902e-02 3.362757e-02 3.284694e-02 3.359299e-02 3.315234e-02 3.352331e-02 3.340678e-02 3.339875e-02 3.357334e-02 3.326130e-02 3.373350e-02 3.322626e-02 3.393513e-02 3.326328e-02 3.406676e-02 3.324695e-02 3.406591e-02 3.320092e-02 3.405023e-02 3.324582e-02 3.411395e-02 3.337906e-02 3.419505e-02 3.348284e-02 3.413647e-02 3.332781e-02 3.417234e-02 3.496818e-02 3.513794e-02 3.396778e-02 3.539456e-02 3.458616e-02 3.440397e-02 3.516213e-02 3.574635e-02 3.465617e-02 3.506882e-02 3.530281e-02 3.492569e-02 3.503765e-02 3.574391e-02 3.536021e-02 3.487595e-02 3.479830e-02 3.448104e-02 3.466035e-02 3.435124e-02 3.465358e-02 3.428568e-02 3.463711e-02 3.421763e-02 3.458757e-02 3.418521e-02 3.452253e-02 3.422031e-02 3.443861e-02 3.433068e-02 3.433244e-02 3.451586e-02 3.419259e-02 3.473802e-02 3.399235e-02 3.495799e-02 3.375803e-02 3.517752e-02 3.355336e-02 3.538204e-02 3.340625e-02 3.551134e-02 3.334153e-02 3.553400e-02 3.340768e-02 3.542374e-02 3.361532e-02 3.514133e-02 3.397599e-02 3.472193e-02 3.452984e-02 3.421044e-02 3.523792e-02 3.362016e-02 3.603534e-02 3.304445e-02 3.693525e-02 3.265620e-02 3.793249e-02 3.262231e-02 3.897824e-02 3.327441e-02 3.990544e-02 3.555080e-02 3.898979e-02 4.939012e-02 3.417737e-02 3.764843e-02 3.215404e-02 3.505327e-02 
9.481760e-03 9.620055e-03 6.631985e-03 4.348214e-03 -4.175922e-03 -1.206303e-02 -2.677648e-02 -2.020828e-02 -2.258466e-02 -2.114216e-02 -2.029513e-02 -2.155879e-02 -1.766821e-02 -2.312233e-02 -2.174772e-02 -2.589147e-02 -2.264179e-02 -2.649501e-02 -2.225416e-02 -2.512613e-02 -2.019703e-02 -2.037530e-02 -1.960473e-02 -2.103256e-02 -2.034715e-02 -2.135922e-02 -2.099182e-02 -2.145242e-02 -2.150422e-02 -2.140925e-02 -2.187398e-02 -2.130553e-02 -2.212914e-02 -2.121053e-02 -2.230766e-02 -2.115542e-02 -2.241019e-02 -2.112755e-02 -2.243424e-02 -2.112433e-02 -2.240256e-02 -2.116402e-02 -2.235285e-02 -2.125894e-02 -2.229634e-02 -2.137007e-02 -2.219351e-02 -2.144362e-02 -2.205034e-02 -2.151253e-02 -2.193368e-02 -2.161299e-02 -2.184688e-02 -2.170698e-02 -2.171801e-02 -2.173032e-02 -2.150988e-02 -2.199786e-02 -2.182188e-02 -2.218545e-02 -2.179275e-02 -2.216085e-02 -2.174764e-02 -2.220028e-02 -2.210809e-02 -2.267412e-02 -2.211403e-02 -2.242027e-02 -2.219625e-02 -2.241581e-02 -2.243415e-02 -2.283398e-02 -2.277243e-02 -2.246226e-02 -2.240946e-02 -2.217042e-02 -2.230516e-02 -2.198837e-02 -2.228863e-02 -2.185335e-02 -2.229488e-02 -2.174951e-02 -2.230022e-02 -2.167276e-02 -2.229395e-02 -2.162975e-02 -2.228326e-02 -2.163534e-02 -2.226502e-02 -2.167865e-02 -2.221712e-02 -2.174375e-02 -2.213672e-02 -2.183400e-02 -2.203370e-02 -2.194884e-02 -2.191262e-02 -2.208734e-02 -2.178412e-02 -2.224807e-02 -2.165037e-02 -2.241357e-02 -2.150566e-02 -2.257296e-02 -2.136478e-02 -2.273082e-02 -2.124377e-02 -2.288005e-02 -2.114751e-02 -2.301103e-02 -2.109158e-02 -2.312425e-02 -2.109783e-02 -2.321967e-02 -2.120924e-02 -2.331220e-02 -2.150789e-02 -2.339653e-02 -2.213236e-02 -2.336968e-02 -2.344938e-02 -2.274100e-02 -2.709149e-02 -8.633910e-03 -2.432525e-03 5.380908e-03 7.089875e-03 9.872449e-03 
1.055847e-02 8.033408e-03 6.919859e-03 1.329952e-03 -4.967956e-03 -1.526485e-02 -3.353002e-03 -1.135010e-02 -2.258992e-03 -6.561295e-03 1.179020e-03 1.205863e-03 1.117990e-02 1.551395e-02 2.036271e-02 2.144689e-02 2.265074e-02 2.309686e-02 2.090425e-02 2.027721e-02 1.540220e-02 9.496472e-03 1.555092e-03 -4.248451e-04 -4.975099e-03 -4.578012e-03 -7.873411e-03 -6.401866e-03 -9.225401e-03 -7.241897e-03 -9.844381e-03 -7.669090e-03 -1.009551e-02 -7.960506e-03 -1.018329e-02 -8.242816e-03 -1.018126e-02 -8.505645e-03 -1.008129e-02 -8.714812e-03 -9.937300e-03 -8.946795e-03 -9.871981e-03 -9.246388e-03 -9.869981e-03 -9.498986e-03 -9.811492e-03 -9.628657e-03 -9.727891e-03 -9.757788e-03 -9.760948e-03 -9.989241e-03 -9.915986e-03 -1.027312e-02 -1.011020e-02 -1.049980e-02 -9.910758e-03 -1.050691e-02 -1.174530e-02 -1.155088e-02 -1.052995e-02 -1.183694e-02 -1.115197e-02 -1.068562e-02 -1.115155e-02 -1.130873e-02 -1.062170e-02 -1.080531e-02 -1.110117e-02 -1.056420e-02 -1.068446e-02 -1.027073e-02 -1.048181e-02 -9.732044e-03 -1.040836e-02 -9.654599e-03 -1.062688e-02 -9.717253e-03 -1.087016e-02 -9.761058e-03 -1.101888e-02 -9.753608e-03 -1.107127e-02 -9.756715e-03 -1.105956e-02 -9.822376e-03 -1.099724e-02 -9.976353e-03 -1.088746e-02 -1.021880e-02 -1.071551e-02 -1.051087e-02 -1.046239e-02 -1.081810e-02 -1.016125e-02 -1.113683e-02 -9.876034e-03 -1.144794e-02 -9.643804e-03 -1.169206e-02 -9.494290e-03 -1.182623e-02 -9.472030e-03 -1.181589e-02 -9.596585e-03 -1.162483e-02 -9.885460e-03 -1.127746e-02 -1.037013e-02 -1.080658e-02 -1.101173e-02 -1.022204e-02 -1.174216e-02 -9.597375e-03 -1.255668e-02 -9.069571e-03 -1.343550e-02 -8.741417e-03 -1.433481e-02 -8.797494e-03 -1.524070e-02 -9.788586e-03 -1.550073e-02 -1.396402e-02 2.277199e-03 3.854058e-03 9.488665e-03 8.691475e-03 
3.018436e-03 -4.803830e-05 1.528819e-03 -2.981572e-03 -1.785172e-03 -7.361442e-03 8.313568e-03 -2.817880e-03 3.738390e-03 -1.659335e-03 -3.062213e-04 -1.279496e-03 -5.614980e-03 -5.193118e-04 -1.600640e-03 2.320611e-03 -8.943118e-04 3.034185e-03 -1.391991e-03 1.771082e-03 -3.427980e-03 -2.944281e-03 -2.586551e-03 -5.432011e-04 -1.301494e-03 6.919512e-04 -6.670964e-04 1.311094e-03 -3.192049e-04 1.582535e-03 -9.812379e-05 1.648288e-03 7.669663e-05 1.583007e-03 2.288335e-04 1.428414e-03 3.685583e-04 1.235517e-03 5.155402e-04 1.048838e-03 6.506191e-04 8.507844e-04 7.212962e-04 6.369370e-04 7.418358e-04 4.628916e-04 7.576206e-04 3.459103e-04 7.469646e-04 2.287236e-04 6.575013e-04 6.844622e-05 4.868408e-04 -1.241864e-04 2.308499e-04 -4.203656e-04 -2.369233e-04 -4.679301e-04 5.632270e-04 6.664519e-05 2.903841e-04 4.375263e-04 6.558331e-04 1.678999e-04 8.872268e-04 9.081544e-04 7.053390e-04 7.795851e-04 8.818972e-04 7.905815e-04 6.921868e-04 1.098836e-03 6.799966e-04 7.524533e-04 1.036052e-04 4.905918e-04 -2.518858e-04 3.196790e-04 -5.007396e-04 2.214484e-04 -6.321932e-04 1.802563e-04 -6.707703e-04 1.348712e-04 -6.481781e-04 4.373461e-05 -5.693919e-04 -1.067970e-04 -4.377773e-04 -3.235701e-04 -2.594075e-04 -5.877980e-04 -3.053193e-05 -8.660712e-04 2.255777e-04 -1.140532e-03 4.587911e-04 -1.383951e-03 6.327295e-04 -1.544540e-03 7.121871e-04 -1.585564e-03 6.540896e-04 -1.474256e-03 4.436044e-04 -1.177288e-03 7.415179e-05 -7.096181e-04 -4.618682e-04 -9.881481e-05 -1.110805e-03 6.383382e-04 -1.781211e-03 1.443929e-03 -2.381237e-03 2.235012e-03 -2.749791e-03 2.949682e-03 -2.622087e-03 3.438477e-03 -1.564213e-03 3.098746e-03 1.780317e-03 -6.338416e-03 1.728696e-03 -1.439447e-03 2.972488e-03 3.887541e-04 
