# vtk DataFile Version 2.0
Comment goes here
ASCII

DATASET STRUCTURED_POINTS
FIELD FieldData 1
TIME 1 1 double
0.26000000
DIMENSIONS    128   16   1

ORIGIN    0.000   0.000   0.000
SPACING   0.0078125 0.015625   1.000

POINT_DATA   2048
SCALARS uX double
LOOKUP_TABLE default

-6.984130e-03 -2.490310e-03 -6.376083e-03 5.124738e-04 -5.270976e-03 5.378803e-03 -8.958024e-03 8.384165e-04 -4.257612e-03 2.112169e-03 1.336746e-03 7.336030e-03 1.267765e-02 2.293916e-02 2.947832e-02 2.948461e-02 3.473878e-02 3.160632e-02 3.285581e-02 2.783406e-02 2.489412e-02 1.091619e-02 8.624136e-03 1.262354e-03 2.455833e-03 -2.345599e-03 -1.917564e-04 -3.716607e-03 -1.390813e-03 -4.099158e-03 -2.015960e-03 -4.100917e-03 -2.424899e-03 -3.932996e-03 -2.694803e-03 -3.658005e-03 -2.884726e-03 -3.405801e-03 -3.059197e-03 -3.214338e-03 -3.210323e-03 -3.071168e-03 -3.269032e-03 -2.947082e-03 -3.259879e-03 -2.889197e-03 -3.235418e-03 -2.935753e-03 -3.208894e-03 -3.035930e-03 -3.166505e-03 -3.186034e-03 -3.172083e-03 -3.461794e-03 -3.388572e-03 -4.045807e-03 -3.781657e-03 -3.923393e-03 -3.867897e-03 -4.447352e-03 -3.678278e-03 -4.020233e-03 -2.737358e-03 -2.233309e-03 -2.485903e-03 -3.501012e-03 -2.685729e-03 -2.068540e-03 -1.501643e-03 -5.939375e-04 -9.071715e-04 -2.542171e-03 -2.948618e-03 -2.942374e-03 -2.758592e-03 -2.852817e-03 -2.558730e-03 -2.860416e-03 -2.405184e-03 -2.930368e-03 -2.272751e-03 -3.031245e-03 -2.185749e-03 -3.127269e-03 -2.099043e-03 -3.154566e-03 -2.038747e-03 -3.120048e-03 -2.036514e-03 -3.011774e-03 -2.086014e-03 -2.845610e-03 -2.269646e-03 -2.661092e-03 -2.527182e-03 -2.389633e-03 -2.779554e-03 -2.048473e-03 -3.057638e-03 -1.757056e-03 -3.348467e-03 -1.531230e-03 -3.547133e-03 -1.367393e-03 -3.596110e-03 -1.356346e-03 -3.488756e-03 -1.515475e-03 -3.164824e-03 -1.885200e-03 -2.666685e-03 -2.500262e-03 -2.027236e-03 -3.289113e-03 -1.243695e-03 -4.138896e-03 -4.686326e-04 -4.941077e-03 3.003246e-05 -5.529049e-03 -4.072028e-04 -5.683985e-03 -3.558055e-03 -2.064080e-03 -5.532543e-03 -3.197844e-03 -6.704429e-03 -3.595551e-03 
-3.977329e-03 -2.430541e-04 -3.038140e-03 2.697524e-03 -1.009551e-03 9.467993e-03 -7.206867e-03 1.140881e-03 -2.305616e-03 -1.791499e-04 1.676719e-03 -4.449022e-04 6.984231e-03 -2.863508e-04 3.981937e-03 -1.649654e-03 3.157809e-03 -1.823032e-03 3.052604e-03 -4.697298e-04 3.708035e-03 3.499524e-03 1.926231e-03 4.627024e-04 7.897226e-04 -8.539587e-04 2.228964e-04 -1.489594e-03 -1.441769e-04 -1.709495e-03 -4.910180e-04 -1.797754e-03 -8.401635e-04 -1.735358e-03 -1.069109e-03 -1.468533e-03 -1.177889e-03 -1.233611e-03 -1.351844e-03 -1.120415e-03 -1.571537e-03 -1.066541e-03 -1.642989e-03 -9.372978e-04 -1.573725e-03 -8.254155e-04 -1.472128e-03 -8.361447e-04 -1.370146e-03 -8.188486e-04 -1.078680e-03 -5.883399e-04 -5.097163e-04 -1.578077e-04 1.430784e-04 2.623532e-04 8.017157e-04 1.207914e-03 1.310219e-03 1.460459e-03 1.570065e-03 -8.564233e-04 -1.350164e-03 -5.060320e-04 -5.082217e-04 -6.600038e-04 -3.784143e-04 -1.496416e-03 -3.727798e-03 -3.233136e-03 -2.990970e-03 -2.838073e-03 -2.732932e-03 -2.311335e-03 -2.244392e-03 -1.853871e-03 -1.619186e-03 -1.439433e-03 -1.118063e-03 -1.243987e-03 -7.780317e-04 -1.209016e-03 -6.171529e-04 -1.286313e-03 -5.238019e-04 -1.315597e-03 -4.402463e-04 -1.246123e-03 -3.821402e-04 -1.092900e-03 -3.956467e-04 -9.536235e-04 -6.287318e-04 -8.245819e-04 -9.278234e-04 -5.774344e-04 -1.170119e-03 -1.998782e-04 -1.411376e-03 1.355705e-04 -1.698447e-03 3.575917e-04 -1.929645e-03 5.237296e-04 -2.002707e-03 5.260286e-04 -1.932325e-03 3.942522e-04 -1.580602e-03 6.940969e-05 -1.075340e-03 -5.732634e-04 -4.928365e-04 -1.458368e-03 2.705803e-04 -2.394814e-03 1.146973e-03 -3.274930e-03 1.926271e-03 -4.062117e-03 1.877866e-03 -4.510312e-03 -5.834832e-04 1.975250e-03 -4.251513e-03 -9.070298e-04 -4.293016e-03 -1.280002e-03 
-8.578790e-03 -6.055677e-03 -6.830284e-03 -2.504835e-03 -7.024328e-04 1.031195e-02 1.790875e-04 7.103614e-03 -3.246463e-04 3.806959e-03 -2.691844e-03 -1.156228e-03 -9.820405e-03 -1.138254e-02 -1.584012e-02 -1.529959e-02 -1.735936e-02 -1.698853e-02 -1.571427e-02 -1.600552e-02 -1.131014e-02 -9.207190e-03 -1.426438e-03 -2.434940e-03 2.618841e-03 3.847040e-04 4.432522e-03 1.814328e-03 5.265038e-03 2.626980e-03 5.514661e-03 3.044856e-03 5.403868e-03 3.360864e-03 5.308316e-03 3.882542e-03 5.379431e-03 4.388236e-03 5.268051e-03 4.567676e-03 4.922475e-03 4.609309e-03 4.742839e-03 4.820996e-03 4.814955e-03 5.045093e-03 4.881341e-03 5.056730e-03 4.852070e-03 5.047994e-03 5.079203e-03 5.355102e-03 5.700652e-03 5.919540e-03 6.474684e-03 6.556501e-03 7.276968e-03 6.928513e-03 7.886495e-03 7.809381e-03 7.902996e-03 8.082990e-03 6.843145e-03 5.632842e-03 6.287647e-03 7.118090e-03 6.178046e-03 5.832845e-03 5.318720e-03 4.122030e-03 4.389624e-03 6.104883e-03 6.391863e-03 6.084446e-03 5.824513e-03 5.457080e-03 5.696297e-03 5.297726e-03 5.860283e-03 5.169357e-03 5.949652e-03 4.949327e-03 5.970012e-03 4.737664e-03 6.008769e-03 4.626420e-03 6.058081e-03 4.659805e-03 6.180593e-03 4.855712e-03 6.205696e-03 4.965346e-03 5.878170e-03 4.959734e-03 5.477627e-03 5.207776e-03 5.260860e-03 5.665154e-03 5.020485e-03 6.043729e-03 4.679797e-03 6.364216e-03 4.411516e-03 6.575667e-03 4.208725e-03 6.651164e-03 4.169013e-03 6.646071e-03 4.470723e-03 6.518265e-03 4.925073e-03 6.015582e-03 5.360530e-03 5.131081e-03 5.962357e-03 4.246381e-03 7.040503e-03 3.541367e-03 8.395018e-03 2.819353e-03 9.671322e-03 2.524225e-03 1.082584e-02 6.498716e-03 -6.196665e-03 -4.174701e-03 -8.388277e-03 -6.477552e-03 
-6.226721e-03 -7.331837e-03 -4.507278e-03 -6.314421e-03 7.741790e-04 -1.628522e-03 1.758600e-02 1.319416e-02 1.239316e-02 1.456210e-02 9.786577e-03 1.466776e-02 6.901977e-03 1.511292e-02 1.009614e-02 1.633100e-02 1.121132e-02 1.627285e-02 1.155992e-02 1.467367e-02 1.102434e-02 1.057646e-02 1.205763e-02 1.189678e-02 1.285738e-02 1.221747e-02 1.336639e-02 1.241146e-02 1.374975e-02 1.246668e-02 1.402764e-02 1.252279e-02 1.414514e-02 1.253943e-02 1.415946e-02 1.259671e-02 1.419609e-02 1.281027e-02 1.420167e-02 1.292459e-02 1.407178e-02 1.300135e-02 1.389920e-02 1.311587e-02 1.380623e-02 1.326008e-02 1.370632e-02 1.339253e-02 1.357745e-02 1.346968e-02 1.346052e-02 1.353558e-02 1.331674e-02 1.352218e-02 1.308442e-02 1.329909e-02 1.245940e-02 1.238849e-02 1.238226e-02 1.260339e-02 1.211919e-02 1.448696e-02 1.433289e-02 1.361719e-02 1.304538e-02 1.386721e-02 1.296686e-02 1.459365e-02 1.584115e-02 1.574147e-02 1.458040e-02 1.499011e-02 1.420642e-02 1.410850e-02 1.397041e-02 1.379401e-02 1.385733e-02 1.361286e-02 1.387984e-02 1.348328e-02 1.380953e-02 1.331290e-02 1.382566e-02 1.327161e-02 1.388858e-02 1.322762e-02 1.389270e-02 1.317427e-02 1.395100e-02 1.319459e-02 1.395408e-02 1.320091e-02 1.388625e-02 1.314024e-02 1.378533e-02 1.320568e-02 1.374610e-02 1.329830e-02 1.364790e-02 1.337148e-02 1.352903e-02 1.356805e-02 1.345516e-02 1.367874e-02 1.325692e-02 1.383633e-02 1.310957e-02 1.399815e-02 1.295946e-02 1.420246e-02 1.284817e-02 1.440290e-02 1.270881e-02 1.447350e-02 1.249736e-02 1.454518e-02 1.258346e-02 1.470439e-02 1.287860e-02 1.473611e-02 1.382325e-02 1.445028e-02 1.684200e-02 3.744939e-03 -9.107569e-04 -4.534031e-03 -5.303553e-03 -6.917504e-03 
-1.787691e-02 -2.145335e-02 -1.881108e-02 -2.489086e-02 -2.271935e-02 -3.717044e-02 -1.412810e-02 -2.475615e-02 -1.581689e-02 -2.022896e-02 -1.391000e-02 -1.620737e-02 -7.597407e-03 -1.136347e-02 -9.844227e-03 -1.088403e-02 -1.066321e-02 -1.049869e-02 -1.110593e-02 -9.842180e-03 -1.139342e-02 -8.284880e-03 -1.630299e-02 -1.409549e-02 -1.864857e-02 -1.677653e-02 -1.969511e-02 -1.822578e-02 -2.016764e-02 -1.911176e-02 -2.022429e-02 -1.953738e-02 -2.003870e-02 -1.984970e-02 -1.996659e-02 -2.036248e-02 -2.009015e-02 -2.076049e-02 -2.002246e-02 -2.083469e-02 -1.975593e-02 -2.077721e-02 -1.969889e-02 -2.090549e-02 -1.987625e-02 -2.103625e-02 -2.002357e-02 -2.091147e-02 -2.001796e-02 -2.073425e-02 -2.018595e-02 -2.078883e-02 -2.060511e-02 -2.091872e-02 -2.088983e-02 -2.079603e-02 -2.054604e-02 -1.953713e-02 -2.075409e-02 -2.018682e-02 -2.016797e-02 -2.333442e-02 -2.294978e-02 -2.079635e-02 -2.091403e-02 -2.175482e-02 -2.040548e-02 -2.223125e-02 -2.419215e-02 -2.314138e-02 -2.208691e-02 -2.308112e-02 -2.219097e-02 -2.197569e-02 -2.121468e-02 -2.135389e-02 -2.094282e-02 -2.112906e-02 -2.091057e-02 -2.095338e-02 -2.092016e-02 -2.076750e-02 -2.086781e-02 -2.055595e-02 -2.084534e-02 -2.046841e-02 -2.089023e-02 -2.054663e-02 -2.100861e-02 -2.075438e-02 -2.106036e-02 -2.084834e-02 -2.076036e-02 -2.082791e-02 -2.041079e-02 -2.101548e-02 -2.025193e-02 -2.142181e-02 -2.010678e-02 -2.174790e-02 -1.985442e-02 -2.194268e-02 -1.964417e-02 -2.207184e-02 -1.955510e-02 -2.204366e-02 -1.959880e-02 -2.195500e-02 -2.000879e-02 -2.174111e-02 -2.054636e-02 -2.113816e-02 -2.106173e-02 -2.020884e-02 -2.181764e-02 -1.932597e-02 -2.301193e-02 -1.867073e-02 -2.454842e-02 -1.822174e-02 -2.598365e-02 -1.885377e-02 -2.674077e-02 -3.002790e-02 -1.725157e-02 -2.201964e-02 -1.740081e-02 -2.077245e-02 
-1.860322e-02 -2.024158e-02 -2.025225e-02 -2.267313e-02 -2.539623e-02 -3.172440e-02 -3.301584e-02 -3.517950e-02 -3.029184e-02 -3.279947e-02 -2.811448e-02 -2.970466e-02 -2.453202e-02 -2.508835e-02 -2.462601e-02 -2.497103e-02 -2.482203e-02 -2.480994e-02 -2.499352e-02 -2.465318e-02 -2.508950e-02 -2.462349e-02 -3.011462e-02 -2.884944e-02 -3.203277e-02 -3.040337e-02 -3.293918e-02 -3.124191e-02 -3.342744e-02 -3.171666e-02 -3.362013e-02 -3.198087e-02 -3.357724e-02 -3.217170e-02 -3.351987e-02 -3.249145e-02 -3.357691e-02 -3.285890e-02 -3.352119e-02 -3.298655e-02 -3.327756e-02 -3.301247e-02 -3.311463e-02 -3.314648e-02 -3.313160e-02 -3.329322e-02 -3.313400e-02 -3.329547e-02 -3.303999e-02 -3.321812e-02 -3.302298e-02 -3.321151e-02 -3.304515e-02 -3.307598e-02 -3.274299e-02 -3.242505e-02 -3.179113e-02 -3.158576e-02 -3.249662e-02 -3.262097e-02 -3.221243e-02 -3.282392e-02 -3.274423e-02 -3.228143e-02 -3.256092e-02 -3.359972e-02 -3.327237e-02 -3.378397e-02 -3.369485e-02 -3.373991e-02 -3.321474e-02 -3.401751e-02 -3.373520e-02 -3.391844e-02 -3.391678e-02 -3.391596e-02 -3.400079e-02 -3.379776e-02 -3.404154e-02 -3.359356e-02 -3.397475e-02 -3.332999e-02 -3.393555e-02 -3.314997e-02 -3.394954e-02 -3.304198e-02 -3.396065e-02 -3.302487e-02 -3.404614e-02 -3.313608e-02 -3.405232e-02 -3.319275e-02 -3.382693e-02 -3.315765e-02 -3.354579e-02 -3.332528e-02 -3.339840e-02 -3.362933e-02 -3.321758e-02 -3.388323e-02 -3.297318e-02 -3.415181e-02 -3.278909e-02 -3.431161e-02 -3.259383e-02 -3.440725e-02 -3.252624e-02 -3.444968e-02 -3.266507e-02 -3.442821e-02 -3.292348e-02 -3.418222e-02 -3.318079e-02 -3.366713e-02 -3.353355e-02 -3.318725e-02 -3.433380e-02 -3.294234e-02 -3.545255e-02 -3.284333e-02 -3.690995e-02 -3.317644e-02 -3.908890e-02 -3.089016e-02 -2.126085e-02 -2.174557e-02 -1.878146e-02 -1.993982e-02 
-2.440022e-02 -2.603394e-02 -2.518055e-02 -2.711542e-02 -2.706946e-02 -2.913816e-02 -3.329352e-02 -3.462244e-02 -3.225294e-02 -3.518856e-02 -3.284384e-02 -3.541529e-02 -3.474953e-02 -3.535024e-02 -3.483569e-02 -3.521373e-02 -3.506423e-02 -3.502391e-02 -3.526989e-02 -3.483484e-02 -3.538348e-02 -3.478214e-02 -3.517317e-02 -3.391396e-02 -3.487535e-02 -3.346706e-02 -3.476282e-02 -3.332572e-02 -3.472506e-02 -3.331464e-02 -3.470208e-02 -3.339802e-02 -3.464866e-02 -3.352196e-02 -3.457711e-02 -3.368521e-02 -3.452355e-02 -3.390185e-02 -3.446573e-02 -3.406826e-02 -3.437424e-02 -3.420426e-02 -3.429473e-02 -3.434316e-02 -3.428186e-02 -3.448855e-02 -3.430995e-02 -3.463353e-02 -3.437761e-02 -3.477927e-02 -3.450723e-02 -3.495677e-02 -3.468123e-02 -3.512592e-02 -3.481459e-02 -3.519823e-02 -3.509946e-02 -3.579023e-02 -3.438101e-02 -3.487882e-02 -3.432157e-02 -3.311586e-02 -3.307913e-02 -3.468773e-02 -3.339085e-02 -3.331753e-02 -3.330232e-02 -3.296145e-02 -3.158516e-02 -3.299018e-02 -3.242123e-02 -3.196691e-02 -3.215413e-02 -3.339247e-02 -3.360934e-02 -3.417771e-02 -3.419949e-02 -3.440810e-02 -3.445761e-02 -3.442493e-02 -3.455113e-02 -3.435382e-02 -3.462434e-02 -3.431027e-02 -3.468836e-02 -3.427855e-02 -3.471673e-02 -3.427111e-02 -3.473963e-02 -3.431299e-02 -3.470560e-02 -3.437080e-02 -3.460849e-02 -3.443082e-02 -3.447052e-02 -3.456043e-02 -3.434003e-02 -3.472268e-02 -3.419048e-02 -3.488406e-02 -3.404246e-02 -3.506482e-02 -3.393053e-02 -3.517667e-02 -3.382133e-02 -3.525157e-02 -3.379420e-02 -3.526069e-02 -3.383631e-02 -3.520166e-02 -3.395743e-02 -3.505569e-02 -3.412411e-02 -3.480058e-02 -3.430369e-02 -3.452180e-02 -3.457032e-02 -3.429556e-02 -3.476433e-02 -3.406957e-02 -3.471596e-02 -3.362776e-02 -3.425747e-02 -2.921424e-02 -2.705713e-02 -2.674487e-02 -2.496230e-02 -2.583989e-02 
-2.348460e-02 -2.437598e-02 -2.449331e-02 -2.590194e-02 -2.665849e-02 -2.830676e-02 -2.965256e-02 -3.134756e-02 -3.208440e-02 -3.377616e-02 -3.563631e-02 -3.671135e-02 -4.163940e-02 -4.193050e-02 -4.173655e-02 -4.190312e-02 -4.183158e-02 -4.183344e-02 -4.190495e-02 -4.174550e-02 -4.193085e-02 -4.164753e-02 -3.615453e-02 -3.569424e-02 -3.389274e-02 -3.313710e-02 -3.292414e-02 -3.184799e-02 -3.244526e-02 -3.119815e-02 -3.217136e-02 -3.088967e-02 -3.197763e-02 -3.077993e-02 -3.182978e-02 -3.080064e-02 -3.171586e-02 -3.089044e-02 -3.160382e-02 -3.098369e-02 -3.148392e-02 -3.107154e-02 -3.138610e-02 -3.116496e-02 -3.132763e-02 -3.125068e-02 -3.129142e-02 -3.131221e-02 -3.127186e-02 -3.136285e-02 -3.129752e-02 -3.145245e-02 -3.142544e-02 -3.167418e-02 -3.176489e-02 -3.214325e-02 -3.239741e-02 -3.272378e-02 -3.215150e-02 -3.236780e-02 -3.260198e-02 -3.238840e-02 -3.216088e-02 -3.263536e-02 -3.208162e-02 -3.212130e-02 -3.210899e-02 -3.240467e-02 -3.200367e-02 -3.235482e-02 -3.204983e-02 -3.185760e-02 -3.178386e-02 -3.182333e-02 -3.174898e-02 -3.161560e-02 -3.170852e-02 -3.149013e-02 -3.175639e-02 -3.140348e-02 -3.181045e-02 -3.131798e-02 -3.185835e-02 -3.125051e-02 -3.189712e-02 -3.121097e-02 -3.191906e-02 -3.121044e-02 -3.192284e-02 -3.125254e-02 -3.188282e-02 -3.131754e-02 -3.178362e-02 -3.140357e-02 -3.164845e-02 -3.153633e-02 -3.150738e-02 -3.170344e-02 -3.135832e-02 -3.187240e-02 -3.120964e-02 -3.202631e-02 -3.108674e-02 -3.213672e-02 -3.100312e-02 -3.219189e-02 -3.098658e-02 -3.217663e-02 -3.104840e-02 -3.207544e-02 -3.117677e-02 -3.186688e-02 -3.134466e-02 -3.154949e-02 -3.152891e-02 -3.115634e-02 -3.168992e-02 -3.068716e-02 -3.165646e-02 -3.003773e-02 -3.109464e-02 -2.896437e-02 -2.946715e-02 -2.702643e-02 -2.587145e-02 -2.500770e-02 -2.391491e-02 -2.405584e-02 
-2.635407e-02 -2.741517e-02 -2.702854e-02 -2.848049e-02 -2.879400e-02 -3.037569e-02 -3.160532e-02 -3.328127e-02 -3.400226e-02 -3.588329e-02 -3.749236e-02 -3.877277e-02 -4.339008e-02 -4.373964e-02 -4.348412e-02 -4.368440e-02 -4.360960e-02 -4.357836e-02 -4.372159e-02 -4.346378e-02 -4.377401e-02 -4.336789e-02 -3.786512e-02 -3.734152e-02 -3.567626e-02 -3.490502e-02 -3.478921e-02 -3.376305e-02 -3.437852e-02 -3.324527e-02 -3.416142e-02 -3.304261e-02 -3.401794e-02 -3.300602e-02 -3.390236e-02 -3.306075e-02 -3.380352e-02 -3.316675e-02 -3.371371e-02 -3.328750e-02 -3.363156e-02 -3.340909e-02 -3.356722e-02 -3.353053e-02 -3.353347e-02 -3.365214e-02 -3.353566e-02 -3.378122e-02 -3.358863e-02 -3.394515e-02 -3.373610e-02 -3.422394e-02 -3.410027e-02 -3.482316e-02 -3.495091e-02 -3.603145e-02 -3.641659e-02 -3.754239e-02 -3.625094e-02 -3.655986e-02 -3.671870e-02 -3.620282e-02 -3.523130e-02 -3.631272e-02 -3.593090e-02 -3.585015e-02 -3.570237e-02 -3.598954e-02 -3.456013e-02 -3.531366e-02 -3.552997e-02 -3.565858e-02 -3.497953e-02 -3.478785e-02 -3.407712e-02 -3.398448e-02 -3.368053e-02 -3.371544e-02 -3.367283e-02 -3.365119e-02 -3.375602e-02 -3.362322e-02 -3.384046e-02 -3.360178e-02 -3.390011e-02 -3.358659e-02 -3.393129e-02 -3.359361e-02 -3.393790e-02 -3.363093e-02 -3.390863e-02 -3.369319e-02 -3.384170e-02 -3.378164e-02 -3.374498e-02 -3.389723e-02 -3.363032e-02 -3.403071e-02 -3.350725e-02 -3.416740e-02 -3.338701e-02 -3.429066e-02 -3.328590e-02 -3.438339e-02 -3.321900e-02 -3.443316e-02 -3.319881e-02 -3.442242e-02 -3.322690e-02 -3.434215e-02 -3.330037e-02 -3.418772e-02 -3.339885e-02 -3.395399e-02 -3.348193e-02 -3.363891e-02 -3.348658e-02 -3.321233e-02 -3.327480e-02 -3.255621e-02 -3.261112e-02 -3.140913e-02 -3.115739e-02 -2.944849e-02 -2.851199e-02 -2.791931e-02 -2.684496e-02 -2.721778e-02 
-2.348607e-02 -2.437784e-02 -2.449610e-02 -2.590485e-02 -2.666264e-02 -2.831045e-02 -2.965727e-02 -3.135000e-02 -3.208487e-02 -3.377231e-02 -3.563236e-02 -3.670587e-02 -4.163781e-02 -4.192881e-02 -4.173461e-02 -4.190074e-02 -4.182932e-02 -4.183039e-02 -4.190228e-02 -4.174162e-02 -4.192692e-02 -4.164383e-02 -3.615135e-02 -3.569280e-02 -3.389563e-02 -3.314614e-02 -3.293138e-02 -3.185840e-02 -3.245263e-02 -3.121064e-02 -3.218128e-02 -3.090436e-02 -3.198840e-02 -3.078620e-02 -3.182419e-02 -3.077904e-02 -3.168311e-02 -3.084046e-02 -3.155449e-02 -3.092539e-02 -3.143751e-02 -3.101603e-02 -3.134433e-02 -3.110686e-02 -3.127612e-02 -3.117870e-02 -3.122066e-02 -3.122512e-02 -3.118604e-02 -3.126879e-02 -3.120082e-02 -3.135517e-02 -3.132481e-02 -3.159773e-02 -3.171643e-02 -3.218800e-02 -3.251900e-02 -3.302953e-02 -3.229083e-02 -3.249107e-02 -3.293856e-02 -3.260651e-02 -3.219469e-02 -3.296551e-02 -3.253486e-02 -3.226266e-02 -3.239926e-02 -3.258487e-02 -3.192986e-02 -3.260444e-02 -3.281720e-02 -3.252799e-02 -3.213053e-02 -3.189725e-02 -3.161516e-02 -3.140852e-02 -3.144838e-02 -3.125384e-02 -3.151269e-02 -3.120764e-02 -3.162607e-02 -3.118401e-02 -3.173824e-02 -3.116267e-02 -3.181480e-02 -3.113954e-02 -3.185202e-02 -3.114526e-02 -3.186682e-02 -3.119658e-02 -3.184326e-02 -3.127850e-02 -3.176677e-02 -3.138947e-02 -3.165114e-02 -3.153634e-02 -3.151571e-02 -3.170760e-02 -3.136360e-02 -3.187228e-02 -3.120340e-02 -3.201375e-02 -3.107244e-02 -3.213043e-02 -3.100026e-02 -3.219532e-02 -3.098799e-02 -3.217640e-02 -3.103983e-02 -3.206338e-02 -3.116295e-02 -3.185792e-02 -3.134523e-02 -3.156029e-02 -3.154874e-02 -3.117474e-02 -3.170286e-02 -3.069074e-02 -3.165302e-02 -3.002833e-02 -3.108349e-02 -2.895644e-02 -2.946124e-02 -2.702352e-02 -2.586939e-02 -2.500721e-02 -2.391498e-02 -2.405669e-02 
-2.440289e-02 -2.603757e-02 -2.518543e-02 -2.712104e-02 -2.707703e-02 -2.914612e-02 -3.330445e-02 -3.463050e-02 -3.225337e-02 -3.517843e-02 -3.283079e-02 -3.540336e-02 -3.474623e-02 -3.534940e-02 -3.483442e-02 -3.521269e-02 -3.506340e-02 -3.502142e-02 -3.526596e-02 -3.482803e-02 -3.537291e-02 -3.477231e-02 -3.516185e-02 -3.389706e-02 -3.487290e-02 -3.348980e-02 -3.477686e-02 -3.334250e-02 -3.473619e-02 -3.333329e-02 -3.470274e-02 -3.340502e-02 -3.464925e-02 -3.351393e-02 -3.454516e-02 -3.362806e-02 -3.443927e-02 -3.377293e-02 -3.432697e-02 -3.390435e-02 -3.421536e-02 -3.401444e-02 -3.411534e-02 -3.411484e-02 -3.403837e-02 -3.418169e-02 -3.395951e-02 -3.420240e-02 -3.387678e-02 -3.419434e-02 -3.382075e-02 -3.419364e-02 -3.380514e-02 -3.419777e-02 -3.379810e-02 -3.419071e-02 -3.387216e-02 -3.389264e-02 -3.249414e-02 -3.389316e-02 -3.375931e-02 -3.227677e-02 -3.238363e-02 -3.434022e-02 -3.267690e-02 -3.289292e-02 -3.373317e-02 -3.347276e-02 -3.191972e-02 -3.355287e-02 -3.336910e-02 -3.285685e-02 -3.280829e-02 -3.364563e-02 -3.359347e-02 -3.410056e-02 -3.405641e-02 -3.428510e-02 -3.427860e-02 -3.429042e-02 -3.441840e-02 -3.428927e-02 -3.456442e-02 -3.427197e-02 -3.462856e-02 -3.420751e-02 -3.464630e-02 -3.419617e-02 -3.468156e-02 -3.425025e-02 -3.466364e-02 -3.431203e-02 -3.459478e-02 -3.442527e-02 -3.449091e-02 -3.456448e-02 -3.435279e-02 -3.472856e-02 -3.420969e-02 -3.490766e-02 -3.405027e-02 -3.504265e-02 -3.389802e-02 -3.516649e-02 -3.382178e-02 -3.526135e-02 -3.380069e-02 -3.526593e-02 -3.382477e-02 -3.518084e-02 -3.393054e-02 -3.503414e-02 -3.411915e-02 -3.481929e-02 -3.434479e-02 -3.455577e-02 -3.458829e-02 -3.430169e-02 -3.476611e-02 -3.405771e-02 -3.469198e-02 -3.360792e-02 -3.424327e-02 -2.920757e-02 -2.705264e-02 -2.674386e-02 -2.496244e-02 -2.584172e-02 
-1.860753e-02 -2.024683e-02 -2.026042e-02 -2.268288e-02 -2.541200e-02 -3.174393e-02 -3.304725e-02 -3.520440e-02 -3.029401e-02 -3.277236e-02 -2.807877e-02 -2.966802e-02 -2.452655e-02 -2.508620e-02 -2.461986e-02 -2.496366e-02 -2.481545e-02 -2.480134e-02 -2.498908e-02 -2.463796e-02 -2.507421e-02 -2.458029e-02 -3.008615e-02 -2.882354e-02 -3.205150e-02 -3.045944e-02 -3.297600e-02 -3.127338e-02 -3.343885e-02 -3.175357e-02 -3.366654e-02 -3.207915e-02 -3.368816e-02 -3.228005e-02 -3.355725e-02 -3.243451e-02 -3.344606e-02 -3.264905e-02 -3.331845e-02 -3.279567e-02 -3.316862e-02 -3.291399e-02 -3.309685e-02 -3.308088e-02 -3.308747e-02 -3.316730e-02 -3.300321e-02 -3.312312e-02 -3.289773e-02 -3.306183e-02 -3.283256e-02 -3.292332e-02 -3.257757e-02 -3.245413e-02 -3.193055e-02 -3.158261e-02 -3.104746e-02 -3.105667e-02 -3.127933e-02 -3.130561e-02 -3.059580e-02 -3.081289e-02 -3.093596e-02 -3.099229e-02 -3.117874e-02 -3.172160e-02 -3.120062e-02 -3.144655e-02 -3.160220e-02 -3.161205e-02 -3.117884e-02 -3.177787e-02 -3.170444e-02 -3.209034e-02 -3.235118e-02 -3.271958e-02 -3.296906e-02 -3.297366e-02 -3.320444e-02 -3.292178e-02 -3.336522e-02 -3.293594e-02 -3.362651e-02 -3.296456e-02 -3.376890e-02 -3.285965e-02 -3.376629e-02 -3.280692e-02 -3.384290e-02 -3.292380e-02 -3.390085e-02 -3.304858e-02 -3.378794e-02 -3.314959e-02 -3.360196e-02 -3.336664e-02 -3.346495e-02 -3.368128e-02 -3.326308e-02 -3.389671e-02 -3.292531e-02 -3.404057e-02 -3.267537e-02 -3.427649e-02 -3.260756e-02 -3.446839e-02 -3.258505e-02 -3.447667e-02 -3.261592e-02 -3.432955e-02 -3.280212e-02 -3.409101e-02 -3.316748e-02 -3.374786e-02 -3.369163e-02 -3.333174e-02 -3.441774e-02 -3.294680e-02 -3.539849e-02 -3.275054e-02 -3.682724e-02 -3.314205e-02 -3.907755e-02 -3.089042e-02 -2.125984e-02 -2.174665e-02 -1.878312e-02 -1.994278e-02 
-1.788229e-02 -2.145926e-02 -1.881836e-02 -2.490011e-02 -2.273242e-02 -3.718854e-02 -1.415313e-02 -2.477612e-02 -1.581753e-02 -2.021236e-02 -1.388401e-02 -1.617541e-02 -7.588639e-03 -1.135988e-02 -9.844647e-03 -1.088566e-02 -1.067402e-02 -1.050324e-02 -1.111267e-02 -9.830029e-03 -1.135430e-02 -8.230124e-03 -1.626821e-02 -1.412669e-02 -1.869206e-02 -1.682429e-02 -1.971960e-02 -1.826373e-02 -2.016438e-02 -1.915825e-02 -2.033233e-02 -1.973083e-02 -2.023038e-02 -2.003811e-02 -2.003868e-02 -2.028071e-02 -1.989673e-02 -2.051009e-02 -1.976967e-02 -2.062057e-02 -1.963327e-02 -2.069195e-02 -1.964640e-02 -2.079769e-02 -1.971518e-02 -2.075352e-02 -1.965071e-02 -2.050701e-02 -1.956446e-02 -2.024437e-02 -1.948195e-02 -1.978976e-02 -1.900146e-02 -1.884303e-02 -1.807952e-02 -1.761316e-02 -1.681848e-02 -1.675533e-02 -1.940378e-02 -1.841213e-02 -1.755087e-02 -2.032074e-02 -2.006884e-02 -1.807964e-02 -1.984213e-02 -2.073634e-02 -1.886460e-02 -2.000375e-02 -2.145027e-02 -2.028765e-02 -1.963350e-02 -2.184169e-02 -2.112687e-02 -2.121153e-02 -2.078169e-02 -2.109218e-02 -2.072297e-02 -2.092072e-02 -2.064151e-02 -2.069941e-02 -2.062189e-02 -2.056092e-02 -2.071233e-02 -2.052887e-02 -2.085644e-02 -2.048615e-02 -2.084269e-02 -2.042028e-02 -2.083330e-02 -2.053802e-02 -2.090949e-02 -2.075682e-02 -2.074467e-02 -2.082167e-02 -2.047600e-02 -2.109486e-02 -2.036909e-02 -2.150012e-02 -2.010988e-02 -2.163034e-02 -1.966606e-02 -2.173936e-02 -1.947231e-02 -2.197181e-02 -1.950720e-02 -2.206679e-02 -1.962258e-02 -2.192692e-02 -1.988919e-02 -2.156930e-02 -2.036237e-02 -2.101479e-02 -2.105224e-02 -2.031046e-02 -2.200081e-02 -1.951143e-02 -2.314011e-02 -1.866830e-02 -2.443188e-02 -1.806845e-02 -2.589237e-02 -1.884210e-02 -2.675491e-02 -3.004539e-02 -1.726236e-02 -2.202779e-02 -1.740686e-02 -2.077803e-02 
-6.226744e-03 -7.330066e-03 -4.504329e-03 -6.309049e-03 7.828182e-04 -1.615346e-03 1.760765e-02 1.321429e-02 1.238840e-02 1.453403e-02 9.743593e-03 1.463670e-02 6.884475e-03 1.510880e-02 1.006921e-02 1.632049e-02 1.118078e-02 1.626164e-02 1.153853e-02 1.466395e-02 1.102270e-02 1.057370e-02 1.203060e-02 1.183836e-02 1.283633e-02 1.224747e-02 1.337549e-02 1.239824e-02 1.373043e-02 1.243913e-02 1.396857e-02 1.246863e-02 1.411262e-02 1.249983e-02 1.410602e-02 1.251150e-02 1.408731e-02 1.262070e-02 1.402001e-02 1.271815e-02 1.390580e-02 1.280455e-02 1.377472e-02 1.293743e-02 1.366605e-02 1.305289e-02 1.350446e-02 1.309541e-02 1.326578e-02 1.306286e-02 1.298291e-02 1.294632e-02 1.257429e-02 1.259561e-02 1.184386e-02 1.183818e-02 1.078588e-02 1.166235e-02 1.244744e-02 1.280558e-02 1.177125e-02 1.368583e-02 1.286343e-02 1.246674e-02 1.288801e-02 1.410184e-02 1.267764e-02 1.358014e-02 1.402633e-02 1.354000e-02 1.309725e-02 1.434036e-02 1.415929e-02 1.390904e-02 1.391982e-02 1.384178e-02 1.395811e-02 1.371015e-02 1.385312e-02 1.347228e-02 1.381593e-02 1.342269e-02 1.395405e-02 1.339330e-02 1.394613e-02 1.321682e-02 1.388099e-02 1.314561e-02 1.395668e-02 1.319037e-02 1.397363e-02 1.317105e-02 1.393735e-02 1.321512e-02 1.389007e-02 1.327327e-02 1.381851e-02 1.337755e-02 1.377118e-02 1.353531e-02 1.365688e-02 1.361541e-02 1.347683e-02 1.375699e-02 1.336673e-02 1.395847e-02 1.322720e-02 1.410186e-02 1.301672e-02 1.422032e-02 1.283714e-02 1.438556e-02 1.271534e-02 1.453073e-02 1.260199e-02 1.462814e-02 1.261854e-02 1.472001e-02 1.289017e-02 1.472073e-02 1.377848e-02 1.441897e-02 1.682268e-02 3.737602e-03 -9.177001e-04 -4.537002e-03 -5.306228e-03 -6.917885e-03 
-8.574433e-03 -6.050399e-03 -6.823410e-03 -2.495400e-03 -6.880648e-04 1.033250e-02 2.097189e-04 7.128767e-03 -3.284820e-04 3.776793e-03 -2.737638e-03 -1.201289e-03 -9.839088e-03 -1.138967e-02 -1.584883e-02 -1.530020e-02 -1.735870e-02 -1.698786e-02 -1.571923e-02 -1.602537e-02 -1.135960e-02 -9.267334e-03 -1.480094e-03 -2.448384e-03 2.636725e-03 4.279097e-04 4.449102e-03 1.827382e-03 5.243819e-03 2.639695e-03 5.570420e-03 3.174236e-03 5.552229e-03 3.506168e-03 5.362661e-03 3.796999e-03 5.204783e-03 4.133999e-03 5.035960e-03 4.366362e-03 4.844477e-03 4.563118e-03 4.795031e-03 4.822117e-03 4.836319e-03 4.960571e-03 4.779736e-03 4.918972e-03 4.728525e-03 4.889647e-03 4.765541e-03 4.788187e-03 4.610911e-03 4.455168e-03 4.393099e-03 4.323212e-03 4.203685e-03 3.516929e-03 4.211626e-03 3.573073e-03 3.239957e-03 4.192167e-03 4.553165e-03 3.821452e-03 3.899337e-03 3.938988e-03 3.461892e-03 3.898749e-03 4.836629e-03 4.761961e-03 4.504516e-03 4.846751e-03 4.762801e-03 4.875410e-03 5.156641e-03 5.108872e-03 5.410917e-03 5.025422e-03 5.452287e-03 4.784665e-03 5.536975e-03 4.680963e-03 5.771361e-03 4.662762e-03 5.955358e-03 4.559672e-03 5.954165e-03 4.492358e-03 6.003195e-03 4.646955e-03 6.074310e-03 4.865764e-03 5.887743e-03 4.992996e-03 5.589016e-03 5.318661e-03 5.409118e-03 5.791513e-03 5.107505e-03 6.054998e-03 4.615158e-03 6.251509e-03 4.312817e-03 6.566254e-03 4.258052e-03 6.766030e-03 4.281093e-03 6.704687e-03 4.426329e-03 6.406316e-03 4.784948e-03 5.919493e-03 5.369055e-03 5.255517e-03 6.176465e-03 4.450714e-03 7.171625e-03 3.552643e-03 8.306758e-03 2.687698e-03 9.577230e-03 2.504755e-03 1.083228e-02 6.513263e-03 -6.188848e-03 -4.167663e-03 -8.383662e-03 -6.472718e-03 
-3.975108e-03 -2.404395e-04 -3.035494e-03 2.701111e-03 -1.005402e-03 9.473783e-03 -7.201172e-03 1.144505e-03 -2.308149e-03 -1.843111e-04 1.667715e-03 -4.572817e-04 6.977771e-03 -2.891359e-04 3.982416e-03 -1.650935e-03 3.161158e-03 -1.823982e-03 3.051451e-03 -4.772529e-04 3.679074e-03 3.457822e-03 1.904881e-03 4.745529e-04 8.018952e-04 -8.525566e-04 2.186109e-04 -1.486055e-03 -1.591437e-04 -1.704936e-03 -4.531976e-04 -1.727255e-03 -7.734872e-04 -1.673648e-03 -1.052596e-03 -1.521670e-03 -1.270892e-03 -1.346142e-03 -1.459207e-03 -1.218643e-03 -1.625744e-03 -1.112962e-03 -1.676337e-03 -1.004455e-03 -1.663053e-03 -9.852915e-04 -1.676682e-03 -1.083504e-03 -1.664784e-03 -1.189729e-03 -1.598190e-03 -1.338737e-03 -1.595664e-03 -1.545582e-03 -1.503826e-03 -1.448340e-03 -8.793121e-04 -1.250655e-03 -2.508959e-03 -2.471609e-03 -1.699055e-03 -3.072279e-03 -2.397715e-03 -1.090936e-03 -1.656345e-03 -1.991397e-03 -8.721544e-04 -8.449512e-04 -1.496423e-03 -1.247528e-04 -1.338497e-05 -6.990625e-04 -8.660626e-04 -3.644777e-04 -6.010611e-04 -5.098955e-04 -6.568125e-04 -7.558231e-04 -6.871430e-04 -9.727314e-04 -6.582602e-04 -1.146286e-03 -5.912253e-04 -1.238533e-03 -4.678613e-04 -1.264332e-03 -4.227315e-04 -1.273893e-03 -4.341457e-04 -1.170701e-03 -4.401281e-04 -9.685844e-04 -6.169221e-04 -8.181201e-04 -8.875590e-04 -5.245589e-04 -1.095365e-03 -1.419587e-04 -1.392442e-03 9.463237e-05 -1.763248e-03 3.037423e-04 -1.966024e-03 5.081577e-04 -2.003489e-03 5.543902e-04 -1.905894e-03 3.974813e-04 -1.613686e-03 1.674981e-05 -1.131967e-03 -6.047990e-04 -4.804674e-04 -1.408710e-03 3.455802e-04 -2.316072e-03 1.208032e-03 -3.270062e-03 1.878154e-03 -4.122431e-03 1.848412e-03 -4.507265e-03 -5.736834e-04 1.985110e-03 -4.245816e-03 -9.024456e-04 -4.290054e-03 -1.277110e-03 
