# vtk DataFile Version 2.0
Comment goes here
ASCII

DATASET STRUCTURED_POINTS
FIELD FieldData 1
TIME 1 1 double
0.32000000
DIMENSIONS    128   16   1

ORIGIN    0.000   0.000   0.000
SPACING   0.0078125 0.015625   1.000

POINT_DATA   2048
SCALARS uX double
LOOKUP_TABLE default

7.222920e-03 3.321275e-03 6.045961e-03 4.281176e-04 4.422363e-03 -2.562491e-03 1.046521e-02 -1.645700e-03 4.848211e-03 -4.862755e-03 -3.564874e-03 -1.400540e-02 -2.140725e-02 -3.715686e-02 -4.591399e-02 -4.841342e-02 -5.281537e-02 -5.100857e-02 -5.004818e-02 -4.427385e-02 -3.827679e-02 -1.976910e-02 -1.404942e-02 -4.267742e-03 -3.728420e-03 1.923770e-03 5.611566e-04 4.411112e-03 2.371527e-03 5.338175e-03 3.167080e-03 5.598461e-03 3.546842e-03 5.551707e-03 3.759560e-03 5.371303e-03 3.913654e-03 5.140315e-03 4.040298e-03 4.897350e-03 4.149724e-03 4.667697e-03 4.223597e-03 4.449273e-03 4.261457e-03 4.272880e-03 4.287660e-03 4.150472e-03 4.299767e-03 4.071272e-03 4.310371e-03 4.067263e-03 4.394204e-03 4.228482e-03 4.673386e-03 4.632516e-03 4.951959e-03 4.654666e-03 4.944638e-03 3.986971e-03 3.920222e-03 5.279859e-03 5.572917e-03 4.883656e-03 4.193520e-03 3.775333e-03 3.662186e-03 4.603116e-03 4.965681e-03 5.494963e-03 4.449320e-03 3.659202e-03 3.266335e-03 4.161373e-03 3.273537e-03 4.071384e-03 3.101740e-03 4.022721e-03 2.985922e-03 3.996406e-03 2.906416e-03 3.950923e-03 2.855488e-03 3.867082e-03 2.859654e-03 3.747572e-03 2.918133e-03 3.557790e-03 3.025029e-03 3.327299e-03 3.215238e-03 3.079956e-03 3.453456e-03 2.801733e-03 3.692604e-03 2.519877e-03 3.908109e-03 2.274670e-03 4.057013e-03 2.109263e-03 4.112227e-03 2.071867e-03 4.039529e-03 2.190349e-03 3.804752e-03 2.466854e-03 3.399610e-03 2.918972e-03 2.858509e-03 3.523403e-03 2.208016e-03 4.214984e-03 1.521309e-03 4.950218e-03 9.388237e-04 5.650299e-03 6.348663e-04 6.224380e-03 9.238094e-04 6.567517e-03 2.405039e-03 6.412411e-03 6.406885e-03 5.471121e-04 5.488299e-03 2.468949e-03 6.890416e-03 3.981850e-03 
2.938883e-03 -1.303197e-04 1.460827e-03 -3.045842e-03 -1.834914e-03 -7.428196e-03 8.255409e-03 -2.875525e-03 3.694270e-03 -1.696668e-03 -3.298929e-04 -1.304779e-03 -5.635832e-03 -5.509727e-04 -1.631599e-03 2.281597e-03 -9.237286e-04 2.998013e-03 -1.415704e-03 1.739097e-03 -3.450649e-03 -2.971772e-03 -2.614579e-03 -5.753320e-04 -1.318069e-03 6.741016e-04 -6.777121e-04 1.285411e-03 -3.465426e-04 1.535983e-03 -1.442517e-04 1.592198e-03 2.832374e-05 1.537294e-03 1.967865e-04 1.399078e-03 3.391891e-04 1.190476e-03 4.491274e-04 9.665239e-04 5.722595e-04 7.879572e-04 6.824541e-04 6.162355e-04 7.419733e-04 4.716362e-04 7.918328e-04 4.071981e-04 8.741543e-04 4.412405e-04 1.018882e-03 6.140515e-04 1.290154e-03 9.786121e-04 1.756451e-03 1.571845e-03 2.230391e-03 1.574702e-03 1.359590e-03 5.731857e-04 1.370218e-03 2.343174e-03 3.190883e-03 2.217234e-03 9.453673e-04 -2.391363e-04 -1.500288e-04 4.271031e-04 1.010510e-03 1.176549e-03 -1.253997e-04 -1.457902e-03 -1.876081e-03 -1.158912e-03 -1.448744e-03 -6.451157e-04 -1.111461e-03 -2.559041e-04 -8.943507e-04 -2.755187e-05 -7.975968e-04 6.494723e-05 -7.500353e-04 7.136040e-05 -6.822589e-04 1.259744e-05 -6.002372e-04 -1.689534e-04 -5.099733e-04 -3.953679e-04 -3.047528e-04 -6.161345e-04 -5.263351e-05 -9.020978e-04 1.669152e-04 -1.209938e-03 3.856458e-04 -1.449875e-03 5.643904e-04 -1.608906e-03 6.386194e-04 -1.660755e-03 5.745717e-04 -1.542299e-03 3.756551e-04 -1.247816e-03 -1.107614e-05 -8.017377e-04 -5.642535e-04 -1.956686e-04 -1.206974e-03 5.519820e-04 -1.859245e-03 1.392504e-03 -2.420686e-03 2.213510e-03 -2.786590e-03 2.905865e-03 -2.702137e-03 3.355082e-03 -1.665852e-03 3.018578e-03 1.697078e-03 -6.433939e-03 1.665140e-03 -1.507578e-03 2.908101e-03 3.102189e-04 
1.046887e-02 7.954607e-03 6.869724e-03 1.310554e-03 -4.952453e-03 -1.524872e-02 -3.344860e-03 -1.134388e-02 -2.257831e-03 -6.562452e-03 1.162610e-03 1.174282e-03 1.112762e-02 1.545704e-02 2.029134e-02 2.138234e-02 2.256895e-02 2.302624e-02 2.080785e-02 2.019533e-02 1.532433e-02 9.420792e-03 1.491013e-03 -4.799791e-04 -4.988122e-03 -4.570790e-03 -7.825168e-03 -6.359727e-03 -9.184586e-03 -7.249561e-03 -9.865409e-03 -7.715792e-03 -1.011914e-02 -7.960932e-03 -1.014166e-02 -8.188499e-03 -1.013495e-02 -8.499341e-03 -1.012498e-02 -8.795330e-03 -1.002059e-02 -8.999876e-03 -9.864643e-03 -9.191296e-03 -9.773879e-03 -9.418890e-03 -9.740132e-03 -9.588119e-03 -9.668242e-03 -9.656734e-03 -9.596595e-03 -9.719764e-03 -9.641610e-03 -9.895937e-03 -9.924370e-03 -1.034835e-02 -1.060578e-02 -1.038619e-02 -9.042525e-03 -8.643616e-03 -8.950858e-03 -1.180607e-02 -1.234191e-02 -1.203074e-02 -9.835693e-03 -8.959940e-03 -9.386539e-03 -1.107059e-02 -1.263239e-02 -1.284862e-02 -1.207520e-02 -9.218933e-03 -1.017196e-02 -1.010539e-02 -1.080705e-02 -1.003708e-02 -1.085570e-02 -9.847106e-03 -1.087962e-02 -9.750797e-03 -1.097150e-02 -9.739211e-03 -1.101712e-02 -9.715719e-03 -1.096457e-02 -9.755830e-03 -1.092409e-02 -9.962466e-03 -1.087687e-02 -1.020781e-02 -1.065266e-02 -1.041411e-02 -1.035154e-02 -1.073188e-02 -1.012597e-02 -1.113197e-02 -9.879110e-03 -1.142539e-02 -9.604417e-03 -1.164374e-02 -9.456927e-03 -1.180412e-02 -9.449648e-03 -1.178639e-02 -9.541582e-03 -1.157982e-02 -9.844399e-03 -1.127663e-02 -1.038449e-02 -1.084685e-02 -1.102900e-02 -1.022780e-02 -1.169225e-02 -9.510562e-03 -1.242203e-02 -8.922091e-03 -1.330042e-02 -8.644617e-03 -1.429428e-02 -8.789196e-03 -1.526294e-02 -9.783389e-03 -1.551334e-02 -1.394191e-02 2.283386e-03 3.830091e-03 9.428718e-03 8.608777e-03 
9.396475e-03 9.554038e-03 6.581592e-03 4.341337e-03 -4.157255e-03 -1.200211e-02 -2.673475e-02 -2.015659e-02 -2.255190e-02 -2.110287e-02 -2.028096e-02 -2.153877e-02 -1.767101e-02 -2.310872e-02 -2.174298e-02 -2.586966e-02 -2.264029e-02 -2.647900e-02 -2.226581e-02 -2.512522e-02 -2.021631e-02 -2.038394e-02 -1.961742e-02 -2.104549e-02 -2.036330e-02 -2.137520e-02 -2.098979e-02 -2.145129e-02 -2.150362e-02 -2.144267e-02 -2.191230e-02 -2.136579e-02 -2.216373e-02 -2.124093e-02 -2.230564e-02 -2.116637e-02 -2.241937e-02 -2.117260e-02 -2.248088e-02 -2.120101e-02 -2.247615e-02 -2.125432e-02 -2.240638e-02 -2.131163e-02 -2.231858e-02 -2.143235e-02 -2.226526e-02 -2.158008e-02 -2.219017e-02 -2.169227e-02 -2.211927e-02 -2.185182e-02 -2.215183e-02 -2.210538e-02 -2.228491e-02 -2.242633e-02 -2.227663e-02 -2.242991e-02 -2.201662e-02 -2.229364e-02 -2.220427e-02 -2.293602e-02 -2.290176e-02 -2.308760e-02 -2.216889e-02 -2.234036e-02 -2.203942e-02 -2.243858e-02 -2.225980e-02 -2.270182e-02 -2.212318e-02 -2.158080e-02 -2.148202e-02 -2.140447e-02 -2.157129e-02 -2.146787e-02 -2.171069e-02 -2.147639e-02 -2.183642e-02 -2.148812e-02 -2.197600e-02 -2.150742e-02 -2.205897e-02 -2.147477e-02 -2.208844e-02 -2.148238e-02 -2.213148e-02 -2.151249e-02 -2.212650e-02 -2.155791e-02 -2.208462e-02 -2.161486e-02 -2.199534e-02 -2.169818e-02 -2.190547e-02 -2.184359e-02 -2.181013e-02 -2.198308e-02 -2.165667e-02 -2.212731e-02 -2.151856e-02 -2.230083e-02 -2.137796e-02 -2.246865e-02 -2.123077e-02 -2.261272e-02 -2.109728e-02 -2.276805e-02 -2.102598e-02 -2.293004e-02 -2.098494e-02 -2.302522e-02 -2.095626e-02 -2.308709e-02 -2.105356e-02 -2.317252e-02 -2.136417e-02 -2.327657e-02 -2.202261e-02 -2.328238e-02 -2.337694e-02 -2.266594e-02 -2.703874e-02 -8.505116e-03 -2.387663e-03 5.395368e-03 7.036576e-03 9.805669e-03 
3.261436e-02 3.556256e-02 3.501424e-02 3.991795e-02 4.212467e-02 4.955564e-02 2.639648e-02 3.902631e-02 2.681442e-02 3.391085e-02 2.502995e-02 2.854777e-02 1.849306e-02 2.261661e-02 2.154159e-02 2.240566e-02 2.250906e-02 2.218406e-02 2.275805e-02 2.176083e-02 2.236412e-02 2.029643e-02 2.744146e-02 2.653622e-02 3.082230e-02 2.949723e-02 3.236896e-02 3.101883e-02 3.313145e-02 3.190163e-02 3.348718e-02 3.243106e-02 3.355845e-02 3.274581e-02 3.347521e-02 3.300444e-02 3.340234e-02 3.330512e-02 3.337320e-02 3.356934e-02 3.328309e-02 3.371104e-02 3.317718e-02 3.383996e-02 3.316574e-02 3.399131e-02 3.321605e-02 3.409048e-02 3.326127e-02 3.414564e-02 3.335482e-02 3.425329e-02 3.360338e-02 3.454392e-02 3.411540e-02 3.505273e-02 3.466429e-02 3.473521e-02 3.378821e-02 3.382413e-02 3.367938e-02 3.647672e-02 3.672385e-02 3.637787e-02 3.454697e-02 3.408017e-02 3.390490e-02 3.522395e-02 3.614342e-02 3.652458e-02 3.532357e-02 3.340552e-02 3.340295e-02 3.359674e-02 3.384126e-02 3.370766e-02 3.398318e-02 3.373905e-02 3.410702e-02 3.382209e-02 3.425283e-02 3.391713e-02 3.432444e-02 3.395933e-02 3.428578e-02 3.400795e-02 3.424972e-02 3.420719e-02 3.424113e-02 3.442203e-02 3.406106e-02 3.457052e-02 3.382953e-02 3.482358e-02 3.369073e-02 3.513244e-02 3.352591e-02 3.532263e-02 3.334880e-02 3.543553e-02 3.329281e-02 3.548806e-02 3.337699e-02 3.536733e-02 3.355122e-02 3.507623e-02 3.393545e-02 3.470694e-02 3.454027e-02 3.422714e-02 3.524141e-02 3.360476e-02 3.597555e-02 3.293648e-02 3.677997e-02 3.247829e-02 3.776621e-02 3.248961e-02 3.889977e-02 3.322411e-02 3.987614e-02 3.549496e-02 3.893460e-02 4.933960e-02 3.407835e-02 3.755673e-02 3.204839e-02 3.496367e-02 
3.696997e-02 3.879783e-02 3.983748e-02 4.429297e-02 5.030287e-02 6.058582e-02 5.808953e-02 6.037486e-02 5.506736e-02 5.729289e-02 5.227057e-02 5.308211e-02 4.616357e-02 4.639649e-02 4.617317e-02 4.634029e-02 4.631160e-02 4.626373e-02 4.639282e-02 4.620222e-02 4.637143e-02 4.621117e-02 5.118737e-02 5.173004e-02 5.460016e-02 5.455222e-02 5.657802e-02 5.602312e-02 5.774229e-02 5.682001e-02 5.841459e-02 5.722917e-02 5.871536e-02 5.741327e-02 5.880071e-02 5.756201e-02 5.884174e-02 5.776490e-02 5.885426e-02 5.794899e-02 5.878432e-02 5.807514e-02 5.865709e-02 5.818084e-02 5.855859e-02 5.832230e-02 5.850503e-02 5.843221e-02 5.841566e-02 5.846418e-02 5.832569e-02 5.851972e-02 5.834631e-02 5.867681e-02 5.846098e-02 5.879877e-02 5.824456e-02 5.880460e-02 5.928812e-02 5.986720e-02 5.875246e-02 5.892864e-02 5.856714e-02 5.904368e-02 5.950169e-02 6.039683e-02 5.969711e-02 5.924462e-02 5.892284e-02 5.920516e-02 5.963179e-02 6.015909e-02 6.014793e-02 5.945261e-02 5.950757e-02 5.889545e-02 5.921002e-02 5.861419e-02 5.916704e-02 5.853781e-02 5.925714e-02 5.854013e-02 5.930847e-02 5.850876e-02 5.928099e-02 5.852826e-02 5.926858e-02 5.865292e-02 5.923472e-02 5.880902e-02 5.908833e-02 5.895113e-02 5.888045e-02 5.916905e-02 5.871642e-02 5.945895e-02 5.853851e-02 5.968140e-02 5.832087e-02 5.985735e-02 5.818654e-02 6.000659e-02 5.813801e-02 6.004473e-02 5.815273e-02 5.995761e-02 5.830508e-02 5.981455e-02 5.863234e-02 5.959901e-02 5.904378e-02 5.924991e-02 5.948385e-02 5.885194e-02 6.003524e-02 5.859255e-02 6.078891e-02 5.862680e-02 6.178812e-02 5.906208e-02 6.313493e-02 6.013992e-02 6.546601e-02 5.812542e-02 4.572652e-02 4.280227e-02 3.834896e-02 3.845301e-02 
4.791491e-02 4.974354e-02 4.919755e-02 5.245769e-02 5.326819e-02 5.913702e-02 6.222226e-02 6.356173e-02 6.187461e-02 6.406057e-02 6.225398e-02 6.415168e-02 6.326326e-02 6.355257e-02 6.327719e-02 6.348457e-02 6.344718e-02 6.338702e-02 6.354646e-02 6.329690e-02 6.353182e-02 6.330109e-02 6.321006e-02 6.272171e-02 6.302955e-02 6.252646e-02 6.313007e-02 6.248326e-02 6.329790e-02 6.250511e-02 6.345401e-02 6.254556e-02 6.354870e-02 6.259198e-02 6.358969e-02 6.267070e-02 6.360645e-02 6.278611e-02 6.359433e-02 6.291015e-02 6.355223e-02 6.303604e-02 6.348533e-02 6.315173e-02 6.341520e-02 6.327450e-02 6.336324e-02 6.339018e-02 6.331279e-02 6.347868e-02 6.327665e-02 6.357466e-02 6.329548e-02 6.369865e-02 6.336112e-02 6.384381e-02 6.351565e-02 6.406879e-02 6.310799e-02 6.374779e-02 6.333284e-02 6.358889e-02 6.316790e-02 6.423723e-02 6.343769e-02 6.367087e-02 6.328100e-02 6.371736e-02 6.336012e-02 6.399676e-02 6.402916e-02 6.397540e-02 6.374592e-02 6.370824e-02 6.357446e-02 6.347520e-02 6.354226e-02 6.339860e-02 6.362572e-02 6.341037e-02 6.373715e-02 6.344830e-02 6.381048e-02 6.347971e-02 6.383772e-02 6.354116e-02 6.384053e-02 6.363074e-02 6.379735e-02 6.374678e-02 6.371542e-02 6.388528e-02 6.359747e-02 6.404381e-02 6.346982e-02 6.422360e-02 6.334493e-02 6.438707e-02 6.321889e-02 6.451975e-02 6.313138e-02 6.461502e-02 6.309190e-02 6.465080e-02 6.311102e-02 6.461464e-02 6.319840e-02 6.451734e-02 6.336283e-02 6.436184e-02 6.357194e-02 6.413427e-02 6.378518e-02 6.386632e-02 6.399077e-02 6.359973e-02 6.413372e-02 6.334529e-02 6.412272e-02 6.307270e-02 6.391099e-02 6.266656e-02 6.408155e-02 5.729817e-02 5.357503e-02 5.171641e-02 4.918366e-02 4.949601e-02 
4.750458e-02 4.861843e-02 4.892937e-02 5.125116e-02 5.249791e-02 5.568384e-02 5.719778e-02 5.949655e-02 6.059770e-02 6.234578e-02 6.514700e-02 6.660015e-02 7.394930e-02 7.410222e-02 7.400892e-02 7.408786e-02 7.406008e-02 7.405660e-02 7.409436e-02 7.402051e-02 7.409937e-02 7.397886e-02 6.784898e-02 6.672453e-02 6.388462e-02 6.297808e-02 6.188829e-02 6.096616e-02 6.090549e-02 5.991036e-02 6.044476e-02 5.937082e-02 6.022460e-02 5.911233e-02 6.010765e-02 5.902044e-02 6.003468e-02 5.903049e-02 5.997242e-02 5.909412e-02 5.990315e-02 5.918219e-02 5.982593e-02 5.928041e-02 5.974974e-02 5.938197e-02 5.967865e-02 5.947218e-02 5.960547e-02 5.953515e-02 5.951940e-02 5.954812e-02 5.938277e-02 5.945711e-02 5.915381e-02 5.932010e-02 5.913100e-02 5.951044e-02 5.898256e-02 5.945954e-02 5.956710e-02 5.933603e-02 5.875610e-02 5.930302e-02 5.894138e-02 5.921074e-02 5.929622e-02 5.946015e-02 5.885178e-02 5.879609e-02 5.884968e-02 5.884802e-02 5.910074e-02 5.913020e-02 5.960782e-02 5.947013e-02 5.997010e-02 5.963105e-02 6.015897e-02 5.968586e-02 6.025749e-02 5.971030e-02 6.030188e-02 5.973567e-02 6.030503e-02 5.978666e-02 6.027790e-02 5.987296e-02 6.021648e-02 5.998840e-02 6.011605e-02 6.012546e-02 5.998747e-02 6.028426e-02 5.985162e-02 6.045477e-02 5.971901e-02 6.061043e-02 5.960072e-02 6.073366e-02 5.952026e-02 6.080946e-02 5.949185e-02 6.081886e-02 5.952390e-02 6.075162e-02 5.962350e-02 6.060809e-02 5.978396e-02 6.038490e-02 5.997358e-02 6.007595e-02 6.014663e-02 5.968433e-02 6.024501e-02 5.920391e-02 6.016909e-02 5.858633e-02 5.975013e-02 5.771177e-02 5.872341e-02 5.635250e-02 5.668914e-02 5.365616e-02 5.180766e-02 5.015111e-02 4.851699e-02 4.827156e-02 
5.234347e-02 5.364270e-02 5.335248e-02 5.568423e-02 5.625703e-02 5.915875e-02 6.054596e-02 6.264139e-02 6.384805e-02 6.552944e-02 6.823005e-02 6.974085e-02 7.719639e-02 7.738874e-02 7.725519e-02 7.735828e-02 7.732819e-02 7.730593e-02 7.738302e-02 7.725419e-02 7.739702e-02 7.721512e-02 7.132678e-02 7.019754e-02 6.756163e-02 6.664564e-02 6.563982e-02 6.476718e-02 6.468750e-02 6.381595e-02 6.424890e-02 6.336298e-02 6.405723e-02 6.317622e-02 6.397330e-02 6.313505e-02 6.392754e-02 6.317241e-02 6.388703e-02 6.325226e-02 6.384271e-02 6.335523e-02 6.379283e-02 6.346481e-02 6.373729e-02 6.356922e-02 6.367638e-02 6.365508e-02 6.360117e-02 6.369728e-02 6.347673e-02 6.363177e-02 6.320653e-02 6.333512e-02 6.268830e-02 6.286173e-02 6.232222e-02 6.292404e-02 6.230557e-02 6.283528e-02 6.250581e-02 6.274432e-02 6.190565e-02 6.233126e-02 6.191423e-02 6.251963e-02 6.215868e-02 6.265453e-02 6.216936e-02 6.199066e-02 6.162069e-02 6.216384e-02 6.237810e-02 6.280261e-02 6.317569e-02 6.344114e-02 6.373481e-02 6.374183e-02 6.398653e-02 6.383455e-02 6.409277e-02 6.386718e-02 6.414053e-02 6.390034e-02 6.415553e-02 6.395527e-02 6.414075e-02 6.403366e-02 6.409301e-02 6.413479e-02 6.401522e-02 6.425480e-02 6.391351e-02 6.438757e-02 6.380095e-02 6.452673e-02 6.369271e-02 6.465832e-02 6.359977e-02 6.476510e-02 6.353429e-02 6.483208e-02 6.350786e-02 6.484800e-02 6.352822e-02 6.480384e-02 6.359531e-02 6.469541e-02 6.369996e-02 6.452027e-02 6.381785e-02 6.427459e-02 6.390861e-02 6.394939e-02 6.390809e-02 6.351079e-02 6.371519e-02 6.288320e-02 6.318819e-02 6.191870e-02 6.212323e-02 6.032976e-02 6.015861e-02 5.755237e-02 5.620478e-02 5.481249e-02 5.335224e-02 5.336752e-02 
4.750372e-02 4.861791e-02 4.892862e-02 5.125053e-02 5.249721e-02 5.568320e-02 5.719743e-02 5.949636e-02 6.059847e-02 6.234696e-02 6.514915e-02 6.660172e-02 7.395151e-02 7.410346e-02 7.401040e-02 7.408875e-02 7.406135e-02 7.405742e-02 7.409564e-02 7.402114e-02 7.410077e-02 7.397915e-02 6.784699e-02 6.672046e-02 6.388208e-02 6.297589e-02 6.189194e-02 6.096963e-02 6.091057e-02 5.990886e-02 6.044030e-02 5.936150e-02 6.021794e-02 5.910990e-02 6.011154e-02 5.902865e-02 6.004159e-02 5.903496e-02 5.997311e-02 5.909676e-02 5.991136e-02 5.920167e-02 5.986012e-02 5.932592e-02 5.980968e-02 5.944607e-02 5.975637e-02 5.955201e-02 5.970317e-02 5.963419e-02 5.963279e-02 5.965031e-02 5.948072e-02 5.952038e-02 5.918417e-02 5.928029e-02 5.901534e-02 5.938413e-02 5.875395e-02 5.917651e-02 5.929787e-02 5.927098e-02 5.868414e-02 5.902472e-02 5.858208e-02 5.886462e-02 5.896551e-02 5.921292e-02 5.877929e-02 5.869262e-02 5.854520e-02 5.853775e-02 5.896841e-02 5.911420e-02 5.967034e-02 5.958645e-02 6.009631e-02 5.975663e-02 6.026319e-02 5.976813e-02 6.031774e-02 5.975122e-02 6.033557e-02 5.976180e-02 6.033491e-02 5.981289e-02 6.030654e-02 5.989731e-02 6.024060e-02 6.001086e-02 6.013680e-02 6.014552e-02 6.000068e-02 6.029370e-02 5.985114e-02 6.045392e-02 5.971493e-02 6.061342e-02 5.960530e-02 6.074247e-02 5.952656e-02 6.081470e-02 5.949604e-02 6.082288e-02 5.953172e-02 6.075780e-02 5.963042e-02 6.060609e-02 5.977902e-02 6.037079e-02 5.996321e-02 6.006591e-02 6.014895e-02 5.969102e-02 6.025967e-02 5.921585e-02 6.017881e-02 5.858889e-02 5.974820e-02 5.770768e-02 5.871839e-02 5.635034e-02 5.668604e-02 5.365570e-02 5.180604e-02 5.015082e-02 4.851589e-02 4.827114e-02 
4.791302e-02 4.974230e-02 4.919579e-02 5.245628e-02 5.326621e-02 5.913543e-02 6.222036e-02 6.356067e-02 6.187536e-02 6.406384e-02 6.225806e-02 6.415414e-02 6.326600e-02 6.355416e-02 6.327802e-02 6.348531e-02 6.344776e-02 6.338827e-02 6.354878e-02 6.329853e-02 6.353625e-02 6.330091e-02 6.320621e-02 6.271213e-02 6.302291e-02 6.251785e-02 6.313350e-02 6.248604e-02 6.330361e-02 6.249572e-02 6.343785e-02 6.251762e-02 6.352508e-02 6.257553e-02 6.358593e-02 6.267362e-02 6.360276e-02 6.277154e-02 6.356693e-02 6.288150e-02 6.352668e-02 6.302605e-02 6.349468e-02 6.317540e-02 6.345182e-02 6.330783e-02 6.340127e-02 6.342175e-02 6.335588e-02 6.352183e-02 6.331700e-02 6.359915e-02 6.327748e-02 6.366089e-02 6.325541e-02 6.373049e-02 6.320079e-02 6.373006e-02 6.314720e-02 6.403097e-02 6.352227e-02 6.356347e-02 6.299334e-02 6.379943e-02 6.315847e-02 6.382584e-02 6.371935e-02 6.392153e-02 6.319578e-02 6.374201e-02 6.358303e-02 6.378810e-02 6.388080e-02 6.404422e-02 6.402069e-02 6.394845e-02 6.399789e-02 6.380436e-02 6.397802e-02 6.369223e-02 6.396607e-02 6.361633e-02 6.395500e-02 6.359726e-02 6.395801e-02 6.364358e-02 6.393991e-02 6.371456e-02 6.387600e-02 6.381687e-02 6.377773e-02 6.394354e-02 6.363970e-02 6.407673e-02 6.348115e-02 6.423194e-02 6.334542e-02 6.440150e-02 6.323682e-02 6.454330e-02 6.314722e-02 6.462778e-02 6.310345e-02 6.466045e-02 6.312642e-02 6.462550e-02 6.321217e-02 6.451613e-02 6.335768e-02 6.433737e-02 6.355160e-02 6.411281e-02 6.378840e-02 6.387967e-02 6.401932e-02 6.362216e-02 6.415127e-02 6.334932e-02 6.411813e-02 6.306576e-02 6.390353e-02 6.266458e-02 6.407652e-02 5.729762e-02 5.357216e-02 5.171560e-02 4.918141e-02 4.949492e-02 
3.696850e-02 3.879651e-02 3.983559e-02 4.429082e-02 5.029983e-02 6.058263e-02 5.808584e-02 6.037045e-02 5.506867e-02 5.729903e-02 5.228178e-02 5.308973e-02 4.617252e-02 4.639806e-02 4.617548e-02 4.634174e-02 4.631433e-02 4.626617e-02 4.639566e-02 4.620420e-02 4.637669e-02 4.621731e-02 5.116996e-02 5.169235e-02 5.456623e-02 5.453208e-02 5.660882e-02 5.607607e-02 5.780080e-02 5.682736e-02 5.837118e-02 5.714275e-02 5.864238e-02 5.738862e-02 5.883548e-02 5.763638e-02 5.888863e-02 5.776064e-02 5.878592e-02 5.786328e-02 5.870905e-02 5.806526e-02 5.871657e-02 5.829281e-02 5.870033e-02 5.844340e-02 5.862960e-02 5.854545e-02 5.859791e-02 5.869469e-02 5.866758e-02 5.891036e-02 5.883235e-02 5.921786e-02 5.912364e-02 5.960759e-02 5.937083e-02 5.966556e-02 5.896280e-02 5.950512e-02 5.886550e-02 5.899776e-02 5.882485e-02 5.942265e-02 5.916995e-02 5.959951e-02 5.921567e-02 5.931491e-02 5.946260e-02 5.981841e-02 6.024097e-02 6.062476e-02 6.060584e-02 6.004122e-02 6.000102e-02 5.940018e-02 5.963062e-02 5.900138e-02 5.946445e-02 5.874101e-02 5.937046e-02 5.857869e-02 5.934448e-02 5.854966e-02 5.937546e-02 5.862716e-02 5.937703e-02 5.873147e-02 5.930461e-02 5.887887e-02 5.916779e-02 5.904329e-02 5.894354e-02 5.919350e-02 5.867184e-02 5.939743e-02 5.847541e-02 5.967937e-02 5.835792e-02 5.991847e-02 5.821911e-02 6.001077e-02 5.812350e-02 6.004089e-02 5.819348e-02 6.001857e-02 5.836936e-02 5.982245e-02 5.858815e-02 5.949002e-02 5.894050e-02 5.917066e-02 5.949231e-02 5.891656e-02 6.014734e-02 5.868647e-02 6.084496e-02 5.862337e-02 6.174824e-02 5.901441e-02 6.309862e-02 6.013303e-02 6.545844e-02 5.813066e-02 4.572637e-02 4.280367e-02 3.834786e-02 3.845256e-02 
3.261271e-02 3.556104e-02 3.501271e-02 3.991609e-02 4.212299e-02 4.955344e-02 2.639516e-02 3.902226e-02 2.681458e-02 3.391230e-02 2.503760e-02 2.855802e-02 1.850219e-02 2.261998e-02 2.153763e-02 2.239909e-02 2.249677e-02 2.217618e-02 2.274936e-02 2.176262e-02 2.237519e-02 2.029805e-02 2.742209e-02 2.648497e-02 3.078045e-02 2.948346e-02 3.241837e-02 3.110549e-02 3.321761e-02 3.193665e-02 3.344120e-02 3.234314e-02 3.346896e-02 3.272888e-02 3.350846e-02 3.309741e-02 3.344125e-02 3.329328e-02 3.325425e-02 3.343025e-02 3.312908e-02 3.363981e-02 3.315153e-02 3.387084e-02 3.318411e-02 3.397179e-02 3.314202e-02 3.398143e-02 3.314953e-02 3.404963e-02 3.329256e-02 3.420256e-02 3.351615e-02 3.439675e-02 3.375873e-02 3.448437e-02 3.375310e-02 3.458791e-02 3.523063e-02 3.552037e-02 3.443929e-02 3.562779e-02 3.484386e-02 3.474299e-02 3.523161e-02 3.573759e-02 3.481158e-02 3.509704e-02 3.521458e-02 3.495857e-02 3.505855e-02 3.557065e-02 3.521158e-02 3.476806e-02 3.471548e-02 3.441384e-02 3.459906e-02 3.426492e-02 3.452739e-02 3.411267e-02 3.444222e-02 3.403344e-02 3.444163e-02 3.408040e-02 3.445191e-02 3.417917e-02 3.442121e-02 3.432922e-02 3.433717e-02 3.451092e-02 3.416319e-02 3.467923e-02 3.390183e-02 3.483250e-02 3.361083e-02 3.502237e-02 3.341735e-02 3.528326e-02 3.335750e-02 3.547950e-02 3.330502e-02 3.546285e-02 3.331768e-02 3.533464e-02 3.358348e-02 3.515277e-02 3.400582e-02 3.470175e-02 3.445069e-02 3.406662e-02 3.509520e-02 3.350513e-02 3.598327e-02 3.301448e-02 3.691716e-02 3.259494e-02 3.783369e-02 3.247537e-02 3.884117e-02 3.314613e-02 3.981547e-02 3.547090e-02 3.892040e-02 4.934092e-02 3.407644e-02 3.755616e-02 3.204650e-02 3.496243e-02 
9.396295e-03 9.553141e-03 6.582968e-03 4.341938e-03 -4.153386e-03 -1.199973e-02 -2.672859e-02 -2.015348e-02 -2.255054e-02 -2.111057e-02 -2.028691e-02 -2.154223e-02 -1.767081e-02 -2.310943e-02 -2.174711e-02 -2.588182e-02 -2.264892e-02 -2.649119e-02 -2.226191e-02 -2.512011e-02 -2.020191e-02 -2.037233e-02 -1.959447e-02 -2.101267e-02 -2.033219e-02 -2.134041e-02 -2.098578e-02 -2.144862e-02 -2.151325e-02 -2.140972e-02 -2.186937e-02 -2.128267e-02 -2.210779e-02 -2.119135e-02 -2.231315e-02 -2.117330e-02 -2.243219e-02 -2.112892e-02 -2.242521e-02 -2.110999e-02 -2.240761e-02 -2.118875e-02 -2.239353e-02 -2.129271e-02 -2.232116e-02 -2.137995e-02 -2.220498e-02 -2.146190e-02 -2.209103e-02 -2.156541e-02 -2.200168e-02 -2.168026e-02 -2.193091e-02 -2.181018e-02 -2.187131e-02 -2.192238e-02 -2.173721e-02 -2.218871e-02 -2.193843e-02 -2.234581e-02 -2.199476e-02 -2.227646e-02 -2.188134e-02 -2.237663e-02 -2.217699e-02 -2.273080e-02 -2.225250e-02 -2.251158e-02 -2.223998e-02 -2.253250e-02 -2.257356e-02 -2.292345e-02 -2.284115e-02 -2.252912e-02 -2.243504e-02 -2.217129e-02 -2.226932e-02 -2.194654e-02 -2.222480e-02 -2.178509e-02 -2.219571e-02 -2.163870e-02 -2.216502e-02 -2.155869e-02 -2.219795e-02 -2.157536e-02 -2.222402e-02 -2.158431e-02 -2.219606e-02 -2.162552e-02 -2.215423e-02 -2.169536e-02 -2.206132e-02 -2.175246e-02 -2.192603e-02 -2.185953e-02 -2.182468e-02 -2.203338e-02 -2.172984e-02 -2.220649e-02 -2.157922e-02 -2.234352e-02 -2.141718e-02 -2.250203e-02 -2.128233e-02 -2.266181e-02 -2.115571e-02 -2.279998e-02 -2.104215e-02 -2.290428e-02 -2.095432e-02 -2.299539e-02 -2.097070e-02 -2.313104e-02 -2.111896e-02 -2.322729e-02 -2.139717e-02 -2.328497e-02 -2.200980e-02 -2.327477e-02 -2.337284e-02 -2.267915e-02 -2.704246e-02 -8.516198e-03 -2.391865e-03 5.389888e-03 7.034851e-03 9.803108e-03 
1.046928e-02 7.954345e-03 6.871093e-03 1.311452e-03 -4.949448e-03 -1.524668e-02 -3.341028e-03 -1.134040e-02 -2.257848e-03 -6.569415e-03 1.152172e-03 1.161038e-03 1.111827e-02 1.545014e-02 2.029258e-02 2.138055e-02 2.257701e-02 2.302325e-02 2.081421e-02 2.018783e-02 1.530761e-02 9.419080e-03 1.511343e-03 -4.224719e-04 -4.940757e-03 -4.541239e-03 -7.867173e-03 -6.429803e-03 -9.265454e-03 -7.261297e-03 -9.811273e-03 -7.600643e-03 -1.002656e-02 -7.926824e-03 -1.019093e-02 -8.281651e-03 -1.019949e-02 -8.487054e-03 -1.003149e-02 -8.663151e-03 -9.903379e-03 -8.953630e-03 -9.900954e-03 -9.278347e-03 -9.882190e-03 -9.486269e-03 -9.786937e-03 -9.618895e-03 -9.752632e-03 -9.825233e-03 -9.871982e-03 -1.012656e-02 -1.009205e-02 -1.048548e-02 -1.036843e-02 -1.077491e-02 -1.024267e-02 -1.083211e-02 -1.192216e-02 -1.181952e-02 -1.088941e-02 -1.199261e-02 -1.130607e-02 -1.085932e-02 -1.108724e-02 -1.116712e-02 -1.059160e-02 -1.066456e-02 -1.085701e-02 -1.037654e-02 -1.042957e-02 -9.861396e-03 -1.015417e-02 -9.493480e-03 -1.023452e-02 -9.538203e-03 -1.054370e-02 -9.641988e-03 -1.077143e-02 -9.635147e-03 -1.086641e-02 -9.611720e-03 -1.095088e-02 -9.686022e-03 -1.102448e-02 -9.836488e-03 -1.102662e-02 -1.002832e-02 -1.093327e-02 -1.026850e-02 -1.073566e-02 -1.051684e-02 -1.042441e-02 -1.075167e-02 -1.006057e-02 -1.104260e-02 -9.795781e-03 -1.141968e-02 -9.654827e-03 -1.172632e-02 -9.506467e-03 -1.181117e-02 -9.428211e-03 -1.178280e-02 -9.603979e-03 -1.167764e-02 -9.942821e-03 -1.129755e-02 -1.032589e-02 -1.070741e-02 -1.089746e-02 -1.013637e-02 -1.171052e-02 -9.603616e-03 -1.257255e-02 -9.051741e-03 -1.337497e-02 -8.640181e-03 -1.423995e-02 -8.723351e-03 -1.521191e-02 -9.773408e-03 -1.550569e-02 -1.395151e-02 2.281110e-03 3.825959e-03 9.428218e-03 8.607203e-03 
2.939461e-03 -1.303703e-04 1.461441e-03 -3.045752e-03 -1.834380e-03 -7.428288e-03 8.255227e-03 -2.875448e-03 3.693852e-03 -1.697395e-03 -3.328666e-04 -1.310773e-03 -5.641359e-03 -5.539505e-04 -1.628389e-03 2.288407e-03 -9.165370e-04 3.005426e-03 -1.417175e-03 1.735327e-03 -3.461507e-03 -2.981288e-03 -2.608940e-03 -5.567122e-04 -1.301640e-03 6.803981e-04 -6.958936e-04 1.256689e-03 -3.778621e-04 1.526987e-03 -1.270218e-04 1.629180e-03 6.080846e-05 1.548021e-03 1.844906e-04 1.370269e-03 3.236320e-04 1.197213e-03 4.891460e-04 1.018493e-03 6.215095e-04 8.080247e-04 6.756271e-04 5.852921e-04 6.973198e-04 4.240905e-04 7.266499e-04 3.101124e-04 7.027249e-04 1.654009e-04 5.745058e-04 -3.332695e-05 3.683262e-04 -2.580427e-04 9.506803e-05 -5.527047e-04 -3.603854e-04 -6.436496e-04 2.259142e-04 -2.649452e-04 -3.622279e-05 1.307268e-05 3.778648e-04 1.300918e-04 8.233100e-04 9.157566e-04 8.853256e-04 9.676145e-04 1.090652e-03 1.222657e-03 1.172390e-03 1.469692e-03 9.942305e-04 1.031438e-03 2.862092e-04 6.092273e-04 -1.976866e-04 3.527582e-04 -4.802032e-04 2.451271e-04 -6.156274e-04 1.779968e-04 -6.984870e-04 8.337094e-05 -7.098592e-04 -3.266702e-05 -6.564252e-04 -2.117333e-04 -5.459822e-04 -4.311842e-04 -3.474959e-04 -6.618771e-04 -8.496446e-05 -9.106052e-04 1.914359e-04 -1.174849e-03 4.191888e-04 -1.441124e-03 5.551864e-04 -1.632073e-03 6.245722e-04 -1.659254e-03 5.890484e-04 -1.537218e-03 3.535005e-04 -1.286083e-03 -4.640747e-05 -8.042447e-04 -5.332109e-04 -1.375630e-04 -1.156954e-03 5.833628e-04 -1.867649e-03 1.358946e-03 -2.476169e-03 2.164685e-03 -2.815952e-03 2.907448e-03 -2.682255e-03 3.383299e-03 -1.641823e-03 3.027890e-03 1.702380e-03 -6.435530e-03 1.665675e-03 -1.508386e-03 2.908667e-03 3.099036e-04 
