# vtk DataFile Version 2.0
Comment goes here
ASCII

DATASET STRUCTURED_POINTS
FIELD FieldData 1
TIME 1 1 double
0.06000000
DIMENSIONS    128   16   1

ORIGIN    0.000   0.000   0.000
SPACING   0.0078125 0.015625   1.000

POINT_DATA   2048
SCALARS uY double
LOOKUP_TABLE default

1.462193e-04 1.385864e-04 1.310252e-04 1.241025e-04 1.103566e-04 6.507125e-05 2.209671e-05 -1.968948e-04 -2.956408e-04 -1.629003e-04 -1.471511e-04 -1.407941e-04 -8.593023e-05 -3.766448e-05 2.571505e-04 3.956807e-04 3.724323e-04 4.320823e-04 2.405859e-04 2.954322e-04 1.641545e-04 -1.500721e-04 -2.622674e-04 -2.912582e-04 2.329538e-05 -3.500854e-04 7.818225e-05 3.128265e-04 3.310821e-04 -2.890628e-04 -1.379109e-04 -2.019619e-04 -8.220672e-04 -6.792411e-04 -3.191212e-05 5.140816e-06 -3.364354e-04 4.663413e-04 2.767392e-04 2.163571e-04 1.396160e-04 -1.205703e-04 -1.882566e-05 2.278298e-04 7.935823e-04 8.468819e-04 8.637967e-04 1.018087e-03 6.567079e-04 7.207857e-04 4.377307e-04 6.431381e-04 1.216624e-03 1.348533e-03 2.132731e-03 2.133793e-03 1.744785e-03 1.139700e-03 6.735381e-04 -3.911473e-04 -2.653855e-03 -4.695249e-03 -4.681305e-03 -1.743502e-03 2.615200e-04 2.388604e-04 -9.678874e-04 -1.969821e-03 -3.492421e-03 -4.417471e-03 -2.486527e-03 -3.279088e-04 1.363416e-03 1.839221e-03 2.004459e-03 1.560423e-03 1.053726e-03 9.346015e-04 2.124020e-04 2.995885e-04 -9.868650e-05 -1.504122e-04 3.389861e-04 1.990868e-04 5.825055e-04 4.193958e-04 3.731240e-04 5.335993e-04 3.001698e-05 2.655725e-04 1.022357e-04 -9.549995e-06 -2.382182e-04 -1.327664e-05 2.415895e-04 -5.553262e-04 -3.216215e-06 -5.518114e-05 -5.987332e-04 -6.317706e-04 2.457471e-04 -1.065323e-04 -5.201234e-04 -8.242904e-05 1.138712e-04 2.066025e-04 1.804032e-04 3.837002e-04 -8.370966e-05 -1.514649e-04 6.153755e-05 4.910500e-04 2.659416e-04 1.123006e-04 -1.657844e-04 -2.797412e-05 6.994856e-05 4.371647e-04 4.817761e-04 1.518705e-04 -9.103118e-05 -1.087345e-04 2.385000e-04 1.379950e-04 2.209297e-04 1.628828e-04 1.767047e-04 1.504392e-04 
-8.006319e-04 -7.354479e-04 -2.851111e-03 -1.417330e-03 -4.092051e-03 3.830546e-03 3.260791e-03 -5.052458e-03 -2.258406e-03 -5.684306e-03 -5.717390e-03 -1.254560e-02 -1.771753e-02 -1.851756e-02 -7.260950e-03 -5.207910e-03 -2.058843e-03 2.194264e-03 4.178534e-03 8.963003e-03 1.869564e-02 1.765001e-02 1.020091e-02 6.915035e-03 4.824924e-03 1.944593e-03 1.678304e-03 2.789307e-03 1.120235e-03 -1.549440e-03 -1.650233e-04 4.418842e-04 -3.128769e-03 -1.474834e-03 2.277063e-03 8.506807e-04 -1.739515e-03 1.634710e-03 4.517833e-04 -8.728789e-05 -2.583283e-04 -4.374404e-04 -3.636412e-04 5.983829e-04 1.892406e-03 1.993696e-03 1.168823e-03 1.187566e-03 -1.168802e-04 7.782015e-04 5.195820e-04 1.221071e-03 3.816902e-03 4.194129e-03 6.559788e-03 6.133866e-03 4.094234e-03 3.091418e-03 4.671092e-04 -1.811809e-03 2.374850e-03 -5.257456e-03 -1.803067e-02 -8.441394e-03 3.173481e-03 -2.306502e-03 -6.193326e-03 -4.127760e-03 -1.305865e-02 -1.586039e-02 1.285432e-04 7.712418e-03 3.000857e-03 2.483181e-03 4.034107e-03 3.492935e-03 3.343901e-03 2.643991e-03 8.800884e-04 1.289075e-03 -8.873193e-06 -7.134835e-04 8.678567e-04 1.230483e-04 8.553260e-04 -6.926724e-05 2.596368e-04 1.147987e-03 -2.576373e-04 7.853184e-04 9.937053e-04 1.083817e-04 -1.301252e-03 8.325933e-04 1.523640e-03 -1.535777e-03 7.231168e-05 1.900418e-03 -2.899113e-03 -2.262143e-03 2.045403e-03 7.328449e-04 -2.604839e-03 -6.490186e-04 1.257843e-03 4.595435e-04 8.025428e-04 9.904692e-04 -5.010341e-04 -2.236215e-03 6.852383e-04 1.595876e-03 1.852958e-03 -1.214761e-03 -3.843816e-04 -9.787799e-04 1.001557e-03 8.300113e-04 1.627817e-03 3.215237e-04 -1.491094e-03 2.544214e-03 -3.961516e-03 1.740640e-03 2.665297e-03 1.870996e-03 1.139699e-03 4.179707e-04 
-1.639859e-03 -2.082689e-03 -5.394070e-03 -4.821607e-03 -1.162363e-02 1.314178e-02 1.405317e-02 -1.066708e-02 4.171984e-04 -7.588561e-03 5.397314e-04 -1.086524e-02 -1.530694e-03 6.281742e-03 4.399353e-03 3.037468e-03 6.459932e-04 4.462368e-04 -3.930696e-03 -1.189089e-03 -8.104739e-03 2.392020e-03 5.012412e-03 3.323245e-03 5.577672e-03 -7.953797e-04 1.800214e-03 5.139230e-03 2.524311e-03 -4.557860e-03 -1.005442e-04 1.344220e-03 -6.964071e-03 -3.401553e-03 6.770514e-03 2.440441e-03 -4.235420e-03 3.348399e-03 1.154475e-03 -6.672636e-04 -1.588939e-04 -1.371944e-03 -2.061781e-03 9.870804e-04 4.762905e-03 3.442119e-03 6.513201e-04 1.257378e-03 -1.774262e-03 -1.034002e-03 -2.953491e-03 -2.141873e-03 2.417836e-03 -2.713594e-04 2.486761e-03 3.675541e-04 -3.213142e-03 -2.556954e-03 -4.638312e-03 -2.123411e-03 1.356260e-02 1.070647e-02 -8.458706e-03 -4.708020e-03 4.089393e-03 -4.098597e-03 -2.428691e-03 9.065482e-03 -3.138229e-04 -8.391328e-03 2.051098e-03 6.771259e-03 -3.536998e-04 -4.730270e-03 -2.947188e-03 -1.507188e-03 8.873163e-04 1.490001e-03 -1.178151e-03 2.555677e-04 -1.925744e-03 -2.974951e-03 7.926987e-04 -1.618486e-06 1.211844e-03 -1.343203e-03 -2.536377e-04 1.823410e-03 -8.983541e-04 1.577903e-03 2.641231e-03 1.242166e-04 -3.683163e-03 2.138820e-03 3.770492e-03 -3.956853e-03 5.957147e-04 5.459744e-03 -7.227227e-03 -5.564548e-03 5.783254e-03 2.134309e-03 -6.639753e-03 -1.522177e-03 3.377319e-03 1.026168e-03 1.893520e-03 2.491620e-03 -1.845974e-03 -5.902605e-03 1.650734e-03 4.178650e-03 4.239241e-03 -2.964814e-03 -1.223809e-03 -2.800186e-03 1.957732e-03 1.651575e-03 4.199857e-03 -6.988069e-04 -4.003353e-03 3.269825e-03 -1.397872e-02 6.099782e-03 9.268003e-03 1.735513e-03 1.709816e-03 -6.517225e-04 
-2.314603e-03 -4.675975e-03 -1.077475e-02 -1.583462e-02 -3.191891e-02 3.430644e-03 1.150278e-02 -4.145560e-03 4.201001e-03 4.674007e-05 4.895967e-03 3.671483e-03 4.939069e-03 -6.562099e-03 1.194937e-03 -2.890100e-03 6.764079e-04 -4.883776e-04 3.298796e-03 1.170911e-03 3.808415e-03 -3.235809e-03 -4.652907e-03 -2.107784e-03 -1.776388e-03 -3.748382e-03 -2.214086e-03 3.897845e-04 -8.848694e-05 -1.905436e-03 -2.014283e-03 -4.145140e-04 -3.302986e-03 -1.133495e-03 3.826290e-04 1.507011e-03 -3.075307e-03 4.598099e-05 -6.897142e-04 9.596603e-04 2.344763e-03 1.237948e-03 -3.485187e-03 2.085764e-03 5.068107e-03 6.827043e-04 -2.917258e-03 1.446191e-03 1.205313e-03 -2.007653e-03 -4.505922e-03 -3.023223e-03 8.673204e-04 -3.763387e-03 -1.856479e-05 2.241548e-03 1.399150e-03 -1.318482e-03 -2.010749e-03 1.562491e-03 -3.232135e-03 -3.042661e-03 7.144756e-03 5.156611e-03 2.179341e-05 3.455082e-03 4.421056e-03 -5.181095e-03 -1.155839e-03 8.770397e-03 -1.510880e-03 -2.856636e-03 -6.715539e-04 -3.804177e-03 -2.919288e-03 -1.682337e-04 1.226196e-03 1.300085e-03 8.746368e-04 -2.905754e-03 -1.348057e-03 -1.727664e-03 -1.098133e-03 1.689790e-03 4.589564e-04 -1.167864e-03 -4.954570e-04 -9.054146e-05 1.400677e-03 2.075999e-03 2.649511e-03 2.156258e-03 -1.620126e-03 1.448795e-03 5.492735e-04 -1.498250e-03 -5.885712e-05 2.097604e-03 -3.729787e-03 -2.875288e-03 7.616636e-04 -3.725596e-05 -3.589206e-03 -1.654387e-04 1.124987e-03 6.860667e-04 1.292494e-03 1.287307e-03 -3.255479e-04 -2.036886e-03 3.356351e-03 1.010931e-03 2.805874e-03 -1.903928e-03 1.134512e-03 -4.365155e-03 1.705275e-04 -1.914951e-03 2.691183e-03 -2.571529e-03 -1.723389e-03 9.851921e-04 -1.087365e-02 3.491537e-02 2.771226e-02 8.242694e-03 5.102874e-03 7.258790e-05 
-2.243416e-03 -5.527857e-03 -9.228210e-03 -1.686280e-02 -2.802713e-02 -2.094981e-02 -9.469361e-03 4.034689e-04 7.338900e-04 -3.401740e-03 -1.188233e-03 -5.923768e-03 -9.109252e-04 -1.143170e-04 3.786634e-04 -7.652755e-04 1.982306e-04 -6.701348e-04 5.088936e-04 6.339286e-05 7.230670e-04 4.633301e-03 7.167976e-03 9.397638e-06 -3.055111e-04 -5.492013e-04 -8.065563e-05 -5.274382e-03 -8.635058e-04 4.746356e-03 -9.702718e-04 -1.979236e-03 6.095034e-03 3.663729e-03 -9.018784e-03 -1.259152e-03 1.967975e-03 -4.189104e-03 -2.426277e-03 2.800984e-03 3.364810e-03 4.346682e-03 -1.074743e-03 2.113578e-03 1.434718e-04 -3.112608e-03 -3.820256e-03 9.597556e-04 4.945475e-03 1.162492e-04 2.363948e-04 1.205915e-03 8.262510e-04 -7.648469e-04 -4.125125e-05 1.712621e-03 -6.487403e-05 6.437782e-05 1.726636e-03 1.627785e-03 3.773860e-03 -9.963295e-04 -8.772134e-03 -5.963828e-03 1.336807e-03 -9.941287e-04 6.779058e-04 3.014101e-05 -6.324735e-03 -4.802419e-03 -2.012970e-03 3.361979e-03 2.629423e-03 1.690582e-03 1.641063e-03 3.055750e-03 1.410326e-03 -1.441711e-04 3.128004e-03 -4.269444e-03 1.039356e-03 1.751452e-03 -2.609263e-03 2.073420e-03 -1.192387e-03 5.478136e-04 -9.726469e-05 -2.438747e-03 3.376413e-03 7.580935e-04 -1.068510e-04 2.992475e-03 3.207424e-03 -9.064985e-04 -4.835450e-03 3.794476e-03 -1.370000e-03 -5.174643e-03 5.002543e-03 4.023308e-03 -7.779828e-03 -3.152055e-03 4.429897e-03 1.945903e-03 -3.480849e-03 -3.986875e-04 -8.315976e-04 -1.744913e-03 2.778887e-03 5.792481e-03 2.750325e-03 -4.758781e-03 -1.413337e-03 1.393916e-03 4.133575e-03 -1.912937e-03 -1.401431e-03 -4.639213e-03 -1.235690e-03 -8.749572e-04 5.342774e-03 1.044729e-03 1.006919e-02 4.289343e-02 2.458566e-02 9.657185e-03 4.079122e-03 2.377305e-04 
-1.192922e-03 -1.940524e-03 -3.414960e-03 -5.469633e-03 -8.431289e-03 -1.572210e-02 -1.210109e-02 -4.633230e-04 -2.823299e-03 -5.386438e-03 -4.574792e-03 -1.134726e-02 -5.602385e-03 -1.476958e-04 3.282043e-04 -6.825393e-04 2.896166e-04 -5.332839e-04 5.219414e-04 -1.033340e-04 1.931333e-04 8.476534e-03 1.119377e-02 2.489338e-03 2.050854e-03 1.359844e-03 9.981249e-04 -3.329541e-03 -6.890213e-04 3.498267e-03 -3.689840e-04 -1.053603e-03 4.288425e-03 2.582181e-03 -6.304803e-03 -1.257698e-03 1.635317e-03 -2.500483e-03 -1.532581e-03 1.692538e-03 1.104094e-03 2.724905e-03 4.937135e-04 9.882436e-04 -1.712970e-03 -1.908805e-03 -1.363570e-03 1.477955e-04 2.598892e-03 6.109485e-04 1.659790e-03 1.395070e-03 -1.254215e-05 1.653531e-04 -9.755682e-04 -2.009964e-03 -3.080685e-03 2.146786e-03 4.643207e-03 2.661117e-03 1.104678e-02 3.343055e-03 -1.656630e-02 -7.964811e-03 8.753742e-03 1.205121e-03 3.625546e-03 1.303040e-02 -3.310696e-03 -1.507096e-02 -4.380847e-03 3.407743e-03 -5.361615e-05 -4.366489e-04 -6.953643e-04 -3.321981e-04 -1.037915e-03 -1.880375e-03 9.364425e-04 -2.456110e-03 6.538626e-04 1.249006e-03 -1.562486e-03 5.848338e-04 -1.052144e-03 7.186021e-04 1.970919e-04 -1.406151e-03 1.830151e-03 1.660541e-05 -7.359123e-04 1.445223e-03 2.556443e-03 -7.335359e-04 -3.334553e-03 2.963332e-03 -1.026414e-03 -3.909694e-03 3.999477e-03 3.396296e-03 -5.351362e-03 -1.996294e-03 3.679928e-03 1.257945e-03 -2.631333e-03 -4.495863e-04 -8.146455e-04 -1.435461e-03 2.202591e-03 4.224470e-03 1.087388e-03 -3.395301e-03 -1.197009e-03 1.262298e-03 2.730299e-03 6.676000e-05 -3.049420e-04 -1.985660e-03 -7.930990e-04 1.567080e-03 5.213743e-03 3.514679e-03 1.192943e-02 1.780032e-02 6.141911e-03 4.771281e-03 1.018424e-03 8.064655e-04 
-9.447830e-04 -1.927352e-03 -3.140906e-03 -4.157276e-03 -5.244552e-03 -6.105428e-03 -5.696388e-03 -4.989843e-03 -4.460279e-03 -7.315671e-03 -6.319332e-03 -1.359651e-02 -1.164106e-02 -2.139547e-04 4.412294e-05 -2.484154e-04 7.282848e-05 -2.111004e-04 1.147751e-04 -7.931918e-05 1.276216e-04 1.284157e-02 1.347830e-02 4.872813e-03 5.218723e-03 1.781160e-03 2.459402e-03 2.980535e-04 1.106997e-03 9.282967e-04 5.184236e-04 2.362162e-04 7.361529e-04 5.286213e-04 -1.093914e-03 -1.082940e-04 -1.603003e-04 -3.612440e-04 -2.701689e-04 6.364287e-04 3.205208e-04 1.081518e-03 1.275040e-04 7.758703e-04 6.262353e-05 2.013318e-04 1.668948e-04 6.749264e-04 1.365982e-03 1.072271e-03 1.625783e-03 1.827863e-03 2.297271e-03 2.831309e-03 3.485264e-03 3.994293e-03 3.009009e-03 7.446769e-04 8.923261e-05 3.411206e-03 7.212299e-03 3.862972e-04 -9.180614e-03 -5.920440e-03 1.911861e-03 5.104935e-04 6.078197e-04 1.714302e-03 -6.284313e-03 -7.833336e-03 8.906609e-04 2.698928e-03 -2.742340e-03 -3.645688e-03 -2.813148e-03 -1.853123e-03 -1.042112e-03 -1.164750e-03 -4.486712e-05 -9.421561e-04 -5.538951e-05 2.127573e-05 -4.527752e-04 2.543339e-04 -2.681151e-04 1.364018e-04 1.359791e-04 -1.827370e-04 5.742285e-04 2.291340e-04 2.424305e-04 5.359557e-04 3.473038e-04 2.174782e-04 -6.897662e-04 4.612921e-04 -3.202738e-04 -5.114642e-04 2.479593e-04 3.823803e-04 -9.634941e-04 -2.979042e-04 1.946398e-04 2.120977e-04 -4.874706e-04 -8.119161e-06 -5.809627e-05 -1.891719e-05 6.190229e-04 6.832429e-04 6.810482e-04 -4.441057e-04 3.815883e-04 6.093504e-05 9.813822e-04 -1.585823e-04 6.399379e-04 -3.799779e-05 1.169715e-03 1.417695e-03 2.801379e-03 3.508245e-03 4.354447e-03 7.154770e-03 3.825849e-03 3.435197e-03 1.339606e-03 5.713160e-04 
-3.654609e-04 -6.666395e-04 -1.171282e-03 -1.711092e-03 -2.045004e-03 -2.831740e-03 -2.682956e-03 -2.343281e-03 -2.248174e-03 -3.491469e-03 -3.015288e-03 -6.741472e-03 -5.661155e-03 -1.330208e-04 2.061109e-05 -1.737912e-04 4.310425e-05 -1.577569e-04 5.839917e-05 -9.582341e-05 3.541685e-05 6.537540e-03 6.817833e-03 2.281994e-03 2.504043e-03 7.727854e-04 1.102401e-03 4.531452e-05 3.814011e-04 3.400218e-04 1.836073e-04 6.505786e-05 2.574179e-04 1.886827e-04 -5.951696e-04 -1.790929e-04 -1.658192e-04 -2.509220e-04 -1.946571e-04 2.825310e-04 1.142109e-04 5.984577e-04 1.805265e-04 4.934900e-04 1.038002e-04 2.788840e-04 3.682191e-04 5.706101e-04 1.024320e-03 9.953326e-04 1.388113e-03 1.596500e-03 1.820059e-03 2.376370e-03 2.721313e-03 3.198843e-03 2.324673e-03 -1.033266e-04 -1.721681e-03 1.928958e-03 8.057182e-03 1.930513e-03 -8.381299e-03 -5.205928e-03 1.591931e-03 -1.722316e-03 -1.125521e-03 5.356923e-03 -7.926346e-04 -6.923800e-03 -1.686818e-03 5.831322e-04 -2.586130e-03 -3.104124e-03 -2.293549e-03 -1.530317e-03 -8.603485e-04 -8.328348e-04 -1.573012e-04 -4.942631e-04 -3.945414e-05 1.318801e-05 -2.323433e-04 1.040421e-04 -1.873067e-04 6.519797e-05 4.709994e-05 -9.631991e-05 2.615416e-04 5.361556e-05 1.191680e-04 2.027037e-04 1.818171e-04 8.136977e-05 -3.255748e-04 2.134810e-04 -1.608236e-04 -2.399800e-04 1.822495e-04 2.014786e-04 -4.046007e-04 -8.483321e-05 1.260287e-04 9.744159e-05 -2.299521e-04 -3.040699e-07 -7.157890e-05 -3.891706e-06 2.661096e-04 3.586517e-04 2.401455e-04 -1.439075e-04 1.320252e-04 1.419290e-04 4.681521e-04 1.652558e-04 4.039803e-04 2.116277e-04 6.780699e-04 8.845664e-04 1.616133e-03 1.708922e-03 2.231207e-03 2.721819e-03 1.450131e-03 1.506026e-03 4.716692e-04 3.704142e-04 
7.836246e-06 -1.387956e-05 -4.898377e-06 -1.187500e-05 2.936661e-06 1.152032e-05 3.021407e-05 5.289048e-05 5.838608e-05 6.405199e-05 5.262971e-05 5.236978e-05 5.336708e-05 -1.079740e-05 -2.536308e-05 -4.010350e-05 -5.130802e-05 -6.287911e-05 -6.634574e-05 -7.511633e-05 -6.894281e-05 3.019997e-04 3.801058e-04 1.834621e-04 2.403700e-04 2.753550e-05 9.009177e-05 -1.260028e-04 -3.843751e-05 -1.297832e-04 -7.882730e-05 -1.664791e-04 -8.543619e-05 -1.479340e-04 -2.330382e-04 -2.096595e-04 -1.945355e-04 -2.000741e-04 -1.341480e-04 9.950791e-06 5.903882e-05 2.399025e-04 2.072855e-04 3.531228e-04 3.210056e-04 3.657873e-04 4.247763e-04 4.542496e-04 5.973084e-04 5.806641e-04 6.814824e-04 7.126618e-04 7.054973e-04 7.487665e-04 6.582919e-04 8.031832e-04 7.517733e-04 1.540436e-04 -4.509697e-04 5.309305e-04 2.335667e-03 -5.772453e-05 -4.195466e-03 -2.442443e-03 1.082471e-03 -2.195046e-04 -1.282989e-03 6.643260e-05 -1.517056e-03 -3.492885e-03 -1.607667e-03 1.013453e-03 8.315687e-04 1.424879e-04 1.100904e-04 9.052908e-05 2.169646e-04 1.029703e-04 2.240422e-04 8.245752e-05 1.332809e-04 1.278223e-04 1.681573e-05 1.127106e-04 -1.114418e-05 5.177265e-05 6.262445e-05 3.343106e-05 1.452099e-04 8.259598e-05 1.248085e-04 8.232938e-05 6.364356e-05 -7.523224e-06 -6.971022e-05 -6.341644e-05 -6.599240e-05 -1.316945e-04 -8.104018e-07 -5.504871e-05 -7.177738e-05 -4.600027e-05 4.060117e-06 2.989731e-05 -2.868068e-05 4.725284e-05 -2.844227e-05 3.535526e-05 -9.339759e-06 7.235624e-05 -1.987548e-05 1.083866e-05 -2.555283e-05 8.162331e-05 6.538697e-05 1.209525e-04 9.129197e-05 1.195492e-04 1.454643e-04 1.790126e-04 2.554441e-04 2.023186e-04 1.966058e-04 1.190533e-04 1.074748e-04 4.800691e-05 4.357441e-05 4.988172e-06 
3.251961e-04 5.706356e-04 1.095196e-03 1.602461e-03 1.969549e-03 2.766101e-03 2.680620e-03 2.453638e-03 2.404695e-03 3.580826e-03 3.062987e-03 6.786535e-03 5.747633e-03 7.485707e-05 -9.926439e-05 7.724003e-05 -1.746336e-04 3.429242e-05 -2.019668e-04 -4.893885e-05 -1.632769e-04 -5.826430e-03 -5.871894e-03 -1.869948e-03 -2.051374e-03 -7.083033e-04 -9.894908e-04 -5.930193e-04 -6.680040e-04 -5.557764e-04 -3.369780e-04 -4.251197e-04 -8.998822e-05 -2.244959e-04 -1.079503e-05 -3.021801e-04 -1.224303e-04 -4.145125e-04 -2.226689e-04 -2.588333e-04 1.014369e-04 1.611097e-04 4.377685e-04 4.381199e-04 5.595749e-04 4.399764e-04 5.387828e-04 4.579045e-04 6.167784e-04 6.639908e-04 7.845418e-04 8.324426e-04 6.547517e-04 3.853222e-04 -3.605012e-04 -1.136567e-03 -2.089403e-03 -2.971776e-03 -2.938361e-03 -3.402175e-03 -3.438806e-03 2.259101e-04 1.438105e-03 -1.028275e-03 -1.944109e-03 -5.976369e-04 -9.884930e-04 -1.653077e-03 5.888034e-04 -4.301720e-04 -4.537795e-03 -1.464073e-03 3.833115e-03 4.008913e-03 3.202535e-03 2.412889e-03 1.814713e-03 1.327357e-03 9.801285e-04 7.603386e-04 5.187727e-04 4.395628e-04 1.503079e-04 1.508815e-04 -7.966102e-05 -9.020371e-05 -3.058506e-05 -2.618761e-05 1.294030e-04 8.869052e-05 1.565404e-04 4.969691e-05 8.788060e-05 -1.316508e-04 8.202214e-06 -1.799582e-04 -3.646680e-05 -1.447031e-04 1.119360e-04 -9.753973e-05 5.650857e-05 -2.520382e-05 1.185647e-04 3.795362e-05 1.190768e-04 8.886658e-05 -4.867793e-05 -4.722167e-05 -2.149917e-04 -4.674106e-05 -2.773770e-04 -4.086054e-05 -3.119113e-04 5.582337e-05 -2.013355e-04 1.775249e-04 -2.179721e-04 -1.104522e-04 -5.444418e-04 -5.009276e-04 -8.826531e-04 -1.137428e-03 -1.840004e-03 -2.508533e-03 -1.293657e-03 -1.468391e-03 -4.419086e-04 -4.211270e-04 
8.684595e-04 1.816086e-03 3.048841e-03 4.047943e-03 5.172656e-03 6.056524e-03 5.753259e-03 5.216529e-03 4.712845e-03 7.535168e-03 6.390860e-03 1.376227e-02 1.186722e-02 2.015258e-04 -9.991094e-05 1.423662e-04 -2.190734e-04 4.319504e-05 -2.940500e-04 -1.026889e-04 -2.787428e-04 -1.179563e-02 -1.215587e-02 -4.338375e-03 -4.698550e-03 -1.738342e-03 -2.366937e-03 -1.149429e-03 -1.536602e-03 -1.056005e-03 -8.111417e-04 -7.903485e-04 -3.427311e-04 -5.030671e-04 -1.170000e-04 -5.962398e-04 -3.158200e-04 -8.408359e-04 -5.293646e-04 -6.959927e-04 -2.272888e-05 -1.345283e-04 4.252125e-04 3.328104e-04 6.191082e-04 2.268594e-04 4.074068e-04 8.083537e-05 1.805968e-04 6.159325e-05 -3.772253e-05 -6.429134e-05 -6.685174e-04 -1.296936e-03 -2.617479e-03 -3.317056e-03 -3.377520e-03 -1.787436e-03 -9.023071e-04 -2.943507e-03 -4.564008e-03 -3.347841e-04 2.569986e-03 9.080916e-04 -7.072181e-04 1.145574e-03 6.449498e-04 -1.966951e-03 9.779992e-04 1.476585e-03 -3.023055e-03 -8.716192e-04 4.535121e-03 4.467794e-03 3.446572e-03 2.494858e-03 1.678797e-03 1.331293e-03 8.178644e-04 8.231289e-04 4.177092e-04 4.731888e-04 1.309170e-04 1.538315e-04 -1.609960e-04 -2.031572e-04 -4.570896e-05 -2.024503e-05 1.283669e-04 1.342300e-04 1.706135e-04 -1.269548e-05 6.884518e-05 -3.681014e-04 2.283799e-06 -5.385789e-04 -5.730566e-05 -3.313807e-04 2.949634e-04 -2.219787e-04 2.328519e-04 -6.139051e-05 2.477680e-04 8.202545e-05 2.982335e-04 2.195663e-04 -7.421480e-05 -1.060519e-04 -5.191258e-04 -1.444491e-04 -7.401500e-04 -6.345813e-05 -8.192520e-04 2.281959e-04 -5.903637e-04 5.635151e-04 -5.705614e-04 3.350047e-05 -1.101925e-03 -9.149968e-04 -1.614972e-03 -2.677442e-03 -3.840376e-03 -6.965364e-03 -3.711800e-03 -3.451297e-03 -1.365069e-03 -6.579659e-04 
1.015821e-03 1.713824e-03 3.193058e-03 5.138482e-03 8.065702e-03 1.512324e-02 1.175459e-02 1.364117e-03 4.054535e-03 5.567757e-03 4.004076e-03 1.129932e-02 6.049873e-03 1.581226e-04 -3.758538e-04 5.408876e-04 -5.844806e-04 3.873885e-04 -7.689841e-04 4.926375e-05 -6.228325e-04 -6.785504e-03 -7.904162e-03 -1.832118e-03 -2.228738e-03 -2.499407e-04 -6.322314e-04 -9.869633e-04 -1.749326e-03 -1.812795e-03 -5.109819e-04 -1.187417e-03 2.361163e-04 4.769684e-04 1.342835e-03 -2.844481e-04 -1.239513e-04 -1.647004e-03 -1.947015e-03 -1.856067e-03 3.884451e-05 2.947895e-04 1.553499e-03 1.482333e-03 1.586241e-03 5.383844e-04 3.126896e-04 -4.090784e-04 -1.538138e-04 4.746370e-04 1.355616e-03 2.485307e-03 2.946531e-03 2.982682e-03 2.080145e-03 2.310639e-03 -5.426154e-04 -7.859373e-03 -5.846343e-03 7.015737e-04 -6.451850e-03 -3.036034e-03 7.076989e-03 -1.652672e-03 -7.942650e-03 1.734109e-03 1.372091e-03 -4.995499e-03 1.518883e-03 2.760754e-03 -6.132314e-03 -3.788236e-03 3.995583e-03 3.376500e-03 2.875786e-03 2.348238e-03 1.391107e-03 1.072300e-03 5.228886e-04 1.002217e-03 6.969722e-04 7.327713e-04 -2.211730e-05 8.423994e-06 -1.088744e-03 -1.463747e-03 -5.504133e-04 -1.597266e-04 5.309614e-04 7.396211e-04 5.781816e-04 4.675348e-04 3.627624e-05 -8.755692e-04 2.057360e-04 -9.096681e-04 -6.833258e-04 -9.458631e-05 8.556442e-04 -5.002090e-04 5.148869e-05 7.103414e-05 3.564261e-04 2.612725e-05 1.142580e-03 9.271282e-04 -3.155329e-05 -6.354518e-04 -1.113037e-03 -4.749495e-04 -9.075486e-04 -2.970940e-04 -1.336544e-03 -1.270248e-04 -3.646491e-04 1.833057e-03 3.987293e-04 -1.289615e-05 -1.705191e-03 -8.121802e-04 -6.993455e-04 -7.469584e-04 -1.196969e-02 -1.832214e-02 -6.418452e-03 -5.083256e-03 -1.215510e-03 -1.029510e-03 
1.934447e-03 5.226722e-03 8.910094e-03 1.643283e-02 2.749518e-02 2.034466e-02 9.620579e-03 6.060011e-04 4.434176e-04 3.987861e-03 3.178114e-04 6.112301e-03 1.972507e-03 2.478013e-04 -3.786124e-04 5.194220e-04 -5.762173e-04 3.123974e-04 -9.597631e-04 -2.791992e-04 -1.021794e-03 -1.448675e-03 -2.552632e-03 1.034329e-03 3.467936e-05 7.276963e-04 9.340598e-05 3.967505e-05 -1.869501e-03 -2.197183e-03 -4.529227e-04 -1.131861e-03 4.284394e-04 4.335156e-05 1.121122e-03 -4.966022e-04 -4.427330e-04 -2.735177e-03 -2.912022e-03 -2.466971e-03 5.541525e-05 -4.536296e-04 1.200833e-03 2.094115e-03 2.267126e-03 2.339518e-04 6.804726e-04 -3.177217e-04 2.381568e-04 9.264449e-05 6.884352e-04 3.112603e-03 2.843873e-03 2.208794e-03 3.178505e-04 3.095672e-04 -1.869597e-03 -3.154101e-03 -2.044187e-03 -2.994312e-05 -1.491283e-03 -1.991132e-03 -1.167521e-03 -1.398482e-04 -1.096124e-04 1.995807e-03 2.583768e-03 2.055611e-03 1.995567e-03 6.728918e-04 -4.007241e-04 -2.498366e-03 -7.837590e-04 -1.149226e-03 5.416472e-05 2.737174e-04 -9.125684e-04 -1.211151e-04 -3.798021e-04 7.945585e-04 -6.454782e-05 5.040636e-04 2.690719e-04 2.842025e-04 -1.560196e-03 -1.908829e-03 -1.504560e-04 -1.224967e-06 3.995983e-04 1.106264e-03 6.361744e-04 4.563638e-04 1.757764e-05 -1.131523e-03 -1.482044e-04 -2.512212e-03 -1.173430e-03 -3.727180e-04 1.781608e-03 -4.103530e-04 5.804752e-04 -1.696879e-04 3.784256e-04 3.569469e-04 1.914545e-03 1.804903e-03 1.925222e-04 -9.945060e-04 -1.670424e-03 -8.193220e-04 -2.249298e-03 -9.223595e-04 -2.628342e-03 7.001893e-04 -5.396159e-04 3.785181e-03 2.704007e-04 2.052323e-03 -1.761455e-03 2.005448e-03 1.616300e-03 3.155208e-03 -9.724732e-03 -4.390708e-02 -2.557366e-02 -1.032825e-02 -4.572295e-03 -6.051248e-04 
2.259318e-03 4.721374e-03 1.080167e-02 1.596071e-02 3.203272e-02 -2.788075e-03 -1.021067e-02 3.308251e-03 -5.824829e-03 4.169569e-04 -5.044656e-03 -3.598404e-03 -4.966721e-03 5.035119e-03 -1.382344e-03 2.415121e-03 -1.378184e-03 9.028608e-04 -2.439859e-03 8.883778e-04 -2.295249e-03 4.347857e-03 4.520728e-03 2.154327e-03 2.682726e-03 3.287107e-04 1.309663e-03 2.075068e-03 2.225725e-03 6.618657e-04 1.521979e-03 6.161304e-04 9.186270e-04 -2.296910e-03 -1.351257e-03 -1.216418e-03 -1.079067e-04 -1.262143e-03 8.110948e-04 1.123434e-04 6.170578e-04 -1.939599e-03 -1.273355e-03 -1.674168e-04 1.018165e-03 -1.720926e-04 2.218739e-03 2.054831e-03 2.799912e-03 7.041547e-04 -8.808841e-04 6.384777e-04 -1.633841e-03 -1.939460e-03 -2.999924e-03 -2.508397e-03 -3.877807e-03 -8.513006e-04 -3.136883e-04 -3.097417e-03 2.297089e-03 4.571884e-03 -1.683847e-03 9.188881e-04 2.440762e-03 9.210753e-04 9.220598e-04 3.928398e-03 2.691843e-03 -4.238879e-04 4.985939e-03 2.561868e-03 4.000367e-04 -1.998027e-03 -2.250651e-03 -2.062359e-03 -3.108590e-03 -1.083549e-03 -1.179164e-03 -1.980986e-04 -1.702133e-03 -3.855319e-04 8.105948e-04 1.016416e-03 6.486439e-04 1.181349e-03 1.590384e-03 6.650034e-04 -6.080066e-04 -1.578774e-04 -3.820916e-04 -9.190141e-04 3.562501e-05 -3.636045e-04 -7.798768e-04 -2.991517e-03 2.083277e-04 -1.373925e-03 1.318541e-03 1.843176e-04 1.604814e-03 -6.248351e-04 2.254529e-04 8.282843e-04 3.571759e-04 9.334871e-04 1.302609e-04 4.324598e-04 -8.232529e-04 2.446749e-04 -3.082452e-03 -1.529867e-04 -2.629792e-03 2.768411e-03 -1.513119e-03 2.659060e-03 -2.110549e-03 3.961966e-03 3.302703e-04 3.390529e-03 2.317674e-03 -6.020940e-04 1.280304e-02 -3.460357e-02 -2.815803e-02 -8.372436e-03 -5.291697e-03 -9.823304e-05 
1.871131e-03 2.370411e-03 5.678093e-03 5.248093e-03 1.211738e-02 -1.218648e-02 -1.308071e-02 9.062999e-03 -2.914857e-03 7.319352e-03 -4.275754e-04 1.027979e-02 1.949149e-04 -7.720592e-03 -2.988942e-03 -6.227366e-04 1.108152e-03 1.125045e-03 4.208185e-03 2.950358e-03 9.807925e-03 -3.838374e-03 -8.392477e-03 -4.291007e-03 -4.532050e-03 -2.730577e-03 -2.599557e-03 4.688590e-04 1.240010e-03 1.250947e-03 4.326201e-04 5.992994e-04 -3.322215e-04 -2.785876e-03 -2.574461e-03 -1.352051e-03 -2.084946e-04 3.157022e-04 2.565895e-03 1.451922e-03 4.581627e-04 -1.628569e-03 -1.826491e-03 -1.599572e-03 -2.668954e-04 4.264200e-05 2.164618e-03 2.712144e-03 3.170781e-03 1.622278e-03 -5.390579e-05 1.560939e-04 -1.274276e-03 7.614176e-05 1.458767e-03 3.892669e-03 2.978368e-03 -2.904925e-03 -2.392182e-03 9.241637e-04 -7.903674e-03 -7.704011e-03 3.912896e-03 2.357862e-03 -3.354400e-03 4.255970e-03 2.216491e-03 -6.265084e-03 -5.245438e-04 1.359442e-03 -4.337793e-03 -3.239863e-03 4.093482e-03 2.865779e-03 8.353790e-04 2.517239e-04 -6.648070e-04 3.524509e-04 -1.809116e-04 -9.854092e-05 -1.218743e-03 -3.455019e-04 6.916817e-04 9.465710e-04 1.854465e-03 2.597191e-03 1.648317e-03 7.169455e-04 -7.634086e-04 -9.176700e-04 -7.919809e-04 -1.302907e-03 -2.315139e-05 1.156368e-04 -5.857157e-04 -1.373672e-03 1.085976e-03 -1.395306e-03 5.038983e-05 1.248878e-04 1.226855e-03 -5.731660e-04 6.251463e-05 4.965717e-04 -9.893135e-04 -3.358635e-04 -1.486475e-04 1.216101e-03 4.246984e-05 9.048807e-04 -1.774960e-03 7.856001e-04 -1.184384e-03 2.390864e-03 -1.681207e-03 1.656939e-04 -2.720379e-03 2.307894e-03 9.432014e-04 9.445085e-04 4.393820e-05 -5.620527e-03 1.588780e-02 -4.886218e-03 -8.714282e-03 -1.260322e-03 -1.411336e-03 9.503934e-04 
1.073342e-03 1.012815e-03 3.122237e-03 1.730585e-03 4.422574e-03 -3.432085e-03 -2.971223e-03 4.370279e-03 1.191911e-03 5.391284e-03 5.608865e-03 1.215317e-02 1.709970e-02 1.799310e-02 7.767793e-03 6.078078e-03 2.772175e-03 -1.575796e-03 -3.932604e-03 -8.410476e-03 -1.791865e-02 -1.826756e-02 -1.159340e-02 -7.488228e-03 -4.395825e-03 -3.279170e-03 -1.727370e-03 -6.337269e-04 4.158664e-04 7.608962e-05 1.523807e-04 -5.629594e-05 -3.973569e-04 -1.322640e-03 -8.366460e-04 -6.053852e-04 -1.289377e-04 3.001980e-04 1.145550e-03 5.454808e-04 2.655870e-04 -5.662672e-04 -4.464085e-04 -5.181557e-04 3.131062e-04 5.192795e-04 1.331139e-03 1.508516e-03 1.533956e-03 1.111588e-03 3.916427e-04 3.808018e-04 -3.357830e-05 5.729582e-04 1.132144e-03 2.248530e-03 2.470523e-03 -8.744581e-05 -8.429864e-04 6.679624e-04 -2.504130e-03 -4.742397e-03 -1.743193e-03 -8.510875e-05 -1.682198e-03 4.229078e-04 9.004321e-05 -3.732652e-03 -2.898377e-03 -1.100167e-03 -1.279220e-03 -1.129168e-03 1.318698e-03 1.066085e-03 6.008139e-04 5.038880e-04 1.668133e-04 5.438594e-04 2.494530e-05 1.936587e-04 -3.243284e-04 -1.939600e-06 4.567584e-04 5.418633e-04 1.087150e-03 1.294577e-03 8.171908e-04 5.780794e-04 -1.423339e-04 -2.151880e-04 -2.210396e-04 -5.110907e-04 -9.206248e-05 -9.992088e-05 -4.141800e-05 -6.942259e-04 4.804125e-04 -6.544383e-04 -2.011814e-04 -3.161977e-04 5.574611e-04 -2.332169e-04 -9.559468e-05 1.435474e-04 -3.678309e-04 -2.686811e-05 -7.147133e-05 7.254124e-04 -1.225476e-04 4.498972e-04 -6.898771e-04 7.592917e-04 -4.417082e-04 1.081925e-03 -8.372231e-04 2.327681e-04 -9.469214e-04 1.005988e-03 6.174779e-04 -2.140250e-05 5.531666e-05 -3.454336e-03 4.888840e-03 -1.095075e-03 -2.089189e-03 -1.467940e-03 -7.833451e-04 -1.184761e-04 
