# vtk DataFile Version 2.0
Comment goes here
ASCII

DATASET STRUCTURED_POINTS
FIELD FieldData 1
TIME 1 1 double
0.70000000
DIMENSIONS    128   16   1

ORIGIN    0.000   0.000   0.000
SPACING   0.0078125 0.015625   1.000

POINT_DATA   2048
SCALARS uY double
LOOKUP_TABLE default

6.841588e-07 -6.227806e-09 6.439988e-07 -1.271336e-07 8.899384e-07 -3.377265e-07 1.769458e-06 -6.121805e-07 1.086253e-06 -7.456243e-07 3.472933e-07 -7.423170e-07 -3.326242e-07 -3.754019e-07 -8.442600e-07 -5.902720e-07 -2.296588e-07 -1.943570e-06 1.396957e-06 -3.575323e-06 2.584796e-06 -4.038090e-06 2.562187e-06 -5.909583e-06 2.934066e-06 -7.349888e-06 3.087560e-06 -8.095162e-06 2.679563e-06 -8.179332e-06 1.173759e-06 -7.724305e-06 -1.242246e-06 -6.439026e-06 -4.399465e-06 -5.293270e-06 -9.242051e-06 -5.790721e-06 -1.529313e-05 -6.955189e-06 -1.921687e-05 -5.965555e-06 -1.778853e-05 -1.599689e-06 -1.028115e-05 6.082299e-06 3.898428e-06 1.790347e-05 2.489115e-05 3.234106e-05 4.856714e-05 4.451206e-05 7.156786e-05 6.721496e-05 1.467045e-04 1.693431e-04 3.350743e-05 -4.954064e-04 -6.570967e-04 -2.974696e-04 1.811510e-04 4.174741e-04 1.263704e-04 -5.501300e-04 -9.533098e-04 -5.063931e-04 -5.925519e-05 2.351146e-04 2.172026e-04 -2.090821e-04 -7.687540e-04 -4.450648e-04 2.368320e-04 3.974589e-04 3.734834e-04 3.377685e-04 3.204339e-04 2.844232e-04 2.501040e-04 2.102475e-04 1.736948e-04 1.384190e-04 1.090242e-04 8.081531e-05 6.356541e-05 4.244603e-05 3.801067e-05 2.158901e-05 2.696926e-05 1.194672e-05 2.221063e-05 6.143619e-06 1.704868e-05 4.708192e-07 1.025354e-05 -3.845484e-06 4.509934e-06 -4.114018e-06 2.036799e-06 -5.247213e-07 1.247425e-06 3.178714e-06 -6.917435e-07 4.662714e-06 -3.500940e-06 4.895719e-06 -5.243624e-06 4.851570e-06 -5.597739e-06 3.906443e-06 -5.242170e-06 2.267406e-06 -3.552592e-06 1.129695e-06 -7.136645e-07 1.402256e-07 1.652871e-06 -1.262288e-06 2.771275e-06 -2.502535e-06 3.014115e-06 -2.316901e-06 2.886037e-06 -4.014739e-07 1.609684e-06 -1.288736e-07 9.507208e-07 1.158384e-08 
9.809096e-04 -7.955659e-05 1.920630e-03 3.614857e-04 4.828357e-03 2.668859e-04 -5.715042e-03 2.075639e-03 -1.251488e-03 3.140863e-04 -9.647849e-04 4.370141e-04 2.389218e-03 2.913042e-03 -5.750519e-04 1.403677e-03 4.815455e-04 -6.529934e-04 2.099732e-04 -1.428305e-03 -3.222598e-03 -2.124423e-03 -2.505057e-05 3.869016e-04 4.336922e-04 8.257595e-05 3.897823e-04 -7.652911e-05 3.777809e-04 -1.661438e-04 3.525564e-04 -2.055549e-04 3.139697e-04 -2.008232e-04 2.611043e-04 -1.642311e-04 1.917694e-04 -1.090658e-04 1.121522e-04 -4.050663e-05 3.773196e-05 3.935908e-05 -1.888922e-05 1.218408e-04 -5.425624e-05 1.951166e-04 -6.719865e-05 2.518372e-04 -5.918323e-05 2.794096e-04 -5.100659e-05 2.394342e-04 -1.027285e-04 4.291055e-05 -3.631705e-04 -6.549122e-04 -1.924296e-03 -3.986892e-03 -4.130576e-03 -7.375315e-04 6.099525e-03 8.642860e-03 2.495190e-03 -6.744772e-03 -8.627795e-03 -2.872590e-03 3.935850e-03 7.529105e-03 5.929478e-03 -2.589862e-03 -9.776721e-03 -6.059866e-03 1.696697e-03 2.931176e-03 2.244631e-03 1.613754e-03 1.037843e-03 9.156799e-04 4.572086e-04 5.882127e-04 1.426689e-04 4.156970e-04 -2.479676e-05 3.090296e-04 -9.665891e-05 2.259969e-04 -1.007812e-04 1.444430e-04 -5.696406e-05 5.424690e-05 1.873625e-05 -4.644459e-05 1.115234e-04 -1.525576e-04 2.075345e-04 -2.535362e-04 2.929179e-04 -3.348032e-04 3.545176e-04 -3.808144e-04 3.784357e-04 -3.796973e-04 3.511418e-04 -3.232464e-04 2.643106e-04 -2.065279e-04 1.163903e-04 -3.217561e-05 -8.840764e-05 1.857286e-04 -3.384512e-04 4.224112e-04 -6.096021e-04 6.396877e-04 -8.652026e-04 7.734828e-04 -1.050345e-03 7.162049e-04 -1.060390e-03 2.892428e-04 -6.370157e-04 -8.543747e-04 2.521201e-03 -3.199094e-03 -5.117616e-04 -7.030058e-04 4.191265e-04 -1.141322e-04 
1.610199e-03 -2.987732e-04 3.052097e-03 1.046411e-04 1.281508e-02 3.477995e-04 -1.634647e-02 6.861730e-03 -2.352071e-03 4.032487e-03 -8.612982e-04 6.408960e-03 2.228825e-03 -1.940825e-03 1.297164e-03 -1.279022e-03 9.251484e-04 -1.227174e-03 1.888854e-03 -1.903860e-03 3.597206e-03 -3.322858e-03 -4.489173e-03 -1.118625e-03 -1.998936e-03 -8.157740e-04 -9.433807e-04 -7.228361e-04 -3.078450e-04 -6.760489e-04 3.832287e-05 -6.256733e-04 2.034393e-04 -5.366272e-04 2.481232e-04 -4.180934e-04 1.934902e-04 -2.942849e-04 7.036992e-05 -1.644927e-04 -6.899756e-05 -2.236142e-05 -1.922837e-04 1.069955e-04 -3.045449e-04 1.852710e-04 -4.083007e-04 2.036949e-04 -4.864452e-04 1.674477e-04 -5.356601e-04 5.975972e-05 -5.875816e-04 -1.767119e-04 -7.161652e-04 -5.639173e-04 -4.687681e-04 -2.075424e-04 1.028178e-04 -7.023123e-04 -1.874336e-03 -4.013470e-05 2.380476e-03 -3.428053e-04 -4.158866e-04 7.049330e-04 -7.606699e-04 -2.346680e-03 6.619958e-04 2.506950e-04 -1.125873e-03 -1.472770e-04 1.680651e-03 1.339031e-03 1.183836e-03 8.381654e-04 4.238812e-04 5.924150e-04 2.553109e-05 5.087868e-04 -2.033318e-04 4.723265e-04 -3.208251e-04 4.323894e-04 -3.442058e-04 3.645078e-04 -2.890953e-04 2.533058e-04 -1.712367e-04 9.868668e-05 -4.608553e-06 -9.002907e-05 1.919166e-04 -2.961767e-04 3.949205e-04 -4.985747e-04 5.748105e-04 -6.688738e-04 7.064352e-04 -7.717255e-04 7.641289e-04 -7.813687e-04 7.188476e-04 -6.807423e-04 5.524357e-04 -4.571863e-04 2.612319e-04 -1.130776e-04 -1.502327e-04 3.227692e-04 -6.669140e-04 8.052682e-04 -1.244585e-03 1.277944e-03 -1.817937e-03 1.649464e-03 -2.299634e-03 1.779324e-03 -2.495112e-03 1.455954e-03 -1.713879e-03 -3.857388e-05 7.910595e-03 -1.026100e-02 -1.107689e-03 2.121384e-03 1.367324e-03 7.516186e-04 
1.529366e-03 -1.383440e-03 -4.408410e-05 -3.353919e-03 1.281910e-02 4.655601e-03 -8.943548e-03 2.329212e-03 -2.237462e-03 -1.178642e-04 -1.162995e-03 -2.429668e-03 -2.298356e-03 1.724883e-03 -1.534330e-03 1.346011e-03 -1.372233e-03 1.524426e-03 -1.937962e-03 1.997649e-03 -2.568879e-03 2.427594e-03 2.448538e-03 6.942420e-04 1.366320e-03 6.776120e-05 1.181677e-03 -3.520831e-04 1.110826e-03 -6.461968e-04 1.053022e-03 -7.901351e-04 9.882596e-04 -7.736490e-04 8.924714e-04 -6.561477e-04 7.121945e-04 -5.089163e-04 4.554223e-04 -3.290857e-04 2.048176e-04 -9.263422e-05 9.986968e-06 1.521340e-04 -1.578924e-04 3.275338e-04 -3.064606e-04 4.323772e-04 -3.793821e-04 5.092662e-04 -3.364240e-04 5.677769e-04 -1.941891e-04 5.898780e-04 3.703812e-05 6.531422e-04 5.420634e-04 8.998440e-04 6.306040e-04 -8.837064e-05 -6.849082e-04 -2.432346e-03 -1.215373e-03 9.600021e-04 2.272781e-03 -1.976989e-04 -7.138989e-05 -1.243461e-03 -1.222105e-03 -2.190281e-05 2.938960e-03 1.343128e-03 -4.656467e-04 -1.333716e-03 -1.014938e-03 -5.396935e-04 -7.293684e-04 2.126687e-05 -6.670162e-04 3.433365e-04 -6.954537e-04 5.095137e-04 -7.170416e-04 5.683060e-04 -6.721969e-04 5.356487e-04 -5.493021e-04 4.074016e-04 -3.529673e-04 1.953949e-04 -8.998522e-05 -7.955420e-05 2.187303e-04 -3.893910e-04 5.411900e-04 -7.042037e-04 8.316757e-04 -9.832785e-04 1.057658e-03 -1.168112e-03 1.185629e-03 -1.219697e-03 1.168469e-03 -1.112128e-03 9.779812e-04 -8.195377e-04 6.115760e-04 -3.357764e-04 7.340295e-05 3.023558e-04 -6.211600e-04 1.047000e-03 -1.399632e-03 1.862028e-03 -2.156502e-03 2.676177e-03 -2.783602e-03 3.349683e-03 -3.112762e-03 3.532660e-03 -2.663885e-03 1.705480e-03 3.395895e-03 -2.676504e-02 1.164565e-04 7.987815e-03 3.973206e-03 2.554323e-03 
-8.254654e-04 -2.095279e-03 -5.528082e-03 -4.823748e-03 -1.322736e-03 1.049175e-02 1.315798e-02 -1.789628e-03 6.501415e-04 1.142583e-03 -4.153541e-04 2.432896e-03 3.640675e-05 4.731848e-04 -3.588546e-04 5.696301e-04 -5.402813e-04 5.850610e-04 -5.851746e-04 4.265663e-04 -3.707651e-04 -7.202912e-05 -2.551863e-03 1.869823e-04 -1.186314e-03 -7.632153e-05 -4.905784e-04 -3.731145e-04 -1.702719e-05 -6.069737e-04 2.900242e-04 -7.442495e-04 4.793690e-04 -7.657647e-04 5.685155e-04 -7.082460e-04 5.392817e-04 -6.202587e-04 4.107532e-04 -4.993679e-04 2.525039e-04 -3.295527e-04 1.079678e-04 -1.485277e-04 -3.821640e-05 -1.701036e-05 -1.876457e-04 5.754694e-05 -2.986397e-04 9.762021e-05 -3.475055e-04 1.010487e-04 -3.566004e-04 5.141008e-05 -3.820723e-04 -1.581955e-04 -9.663424e-04 -1.113591e-03 -1.071111e-03 2.570492e-04 2.409794e-03 2.910043e-03 1.139109e-03 -2.079763e-03 -2.188448e-03 -1.159282e-03 1.656716e-03 2.096061e-03 2.336131e-03 -9.057396e-04 -3.070115e-03 -2.624532e-03 -1.639367e-05 1.002829e-03 5.625276e-04 7.165754e-04 1.039216e-04 5.866128e-04 -1.968921e-04 5.637107e-04 -3.941323e-04 5.568235e-04 -5.012990e-04 5.387481e-04 -5.177133e-04 4.874979e-04 -4.551542e-04 3.820180e-04 -3.252931e-04 2.204029e-04 -1.369399e-04 1.198086e-05 9.301289e-05 -2.259645e-04 3.403963e-04 -4.734793e-04 5.722250e-04 -7.027136e-04 7.653332e-04 -8.721552e-04 8.956656e-04 -9.531966e-04 9.280331e-04 -9.255100e-04 8.397641e-04 -7.689237e-04 6.259069e-04 -4.771650e-04 2.848614e-04 -7.490896e-05 -1.778520e-04 4.044102e-04 -7.172526e-04 9.331637e-04 -1.267008e-03 1.453224e-03 -1.766017e-03 1.859721e-03 -2.131100e-03 1.980736e-03 -2.130376e-03 1.793335e-03 -5.164756e-03 -1.735244e-02 5.478828e-03 7.311536e-03 3.468380e-03 1.800590e-03 
-6.469246e-04 -1.502408e-03 -3.895977e-03 -3.719514e-03 -6.950828e-03 4.449910e-03 1.233460e-02 -1.528349e-03 1.073805e-03 1.016706e-03 -4.731442e-04 4.714751e-03 2.099214e-03 3.497991e-04 -3.844464e-04 5.375605e-04 -5.541924e-04 5.913762e-04 -5.694649e-04 4.550920e-04 -2.661156e-04 -2.142867e-03 -3.272066e-03 -1.079778e-04 -1.263550e-03 -2.216819e-04 -4.541341e-04 -2.854248e-04 3.890405e-05 -3.526163e-04 3.073328e-04 -4.106078e-04 4.372202e-04 -4.353372e-04 4.768683e-04 -4.226985e-04 4.493550e-04 -3.793298e-04 3.758623e-04 -3.079822e-04 2.832567e-04 -2.119252e-04 1.910816e-04 -1.063831e-04 1.047500e-04 -1.296186e-05 2.723350e-05 5.335948e-05 -3.818283e-05 7.824580e-05 -1.052696e-04 2.878806e-05 -2.310758e-04 -1.858456e-04 -5.432624e-04 -5.127341e-04 -4.292767e-04 3.133341e-04 2.356456e-05 -1.829864e-03 -3.759706e-03 -9.827321e-04 1.745277e-03 -3.090757e-05 2.940556e-04 5.205276e-04 -1.633297e-03 -3.194580e-03 -2.615823e-04 -7.679414e-05 2.072379e-04 1.665609e-03 1.999771e-03 1.871392e-03 1.129033e-03 9.521334e-04 4.300628e-04 6.076102e-04 8.636413e-05 4.769548e-04 -1.032206e-04 4.132619e-04 -2.048418e-04 3.665003e-04 -2.408097e-04 3.125562e-04 -2.232123e-04 2.377821e-04 -1.610001e-04 1.377763e-04 -6.308183e-05 1.545400e-05 5.909781e-05 -1.206980e-04 1.911299e-04 -2.585272e-04 3.165618e-04 -3.826272e-04 4.201784e-04 -4.746891e-04 4.869331e-04 -5.192528e-04 5.009720e-04 -5.049618e-04 4.508742e-04 -4.257210e-04 3.320155e-04 -2.848848e-04 1.448412e-04 -1.000345e-04 -1.030895e-04 9.824233e-05 -3.913912e-04 2.651306e-04 -6.871092e-04 3.340403e-04 -9.376250e-04 2.317352e-04 -1.026438e-03 -2.460284e-05 -6.802694e-04 1.980230e-04 -3.492890e-03 -1.692734e-03 5.025049e-03 2.098499e-03 1.990863e-03 2.913073e-04 
-2.355791e-04 -4.308862e-04 -1.017765e-03 -6.914909e-04 -9.806711e-04 6.551153e-04 2.158161e-03 2.605597e-04 1.193936e-04 4.458425e-04 -8.157126e-04 3.414316e-03 4.971868e-03 2.206007e-04 -6.288595e-05 2.130642e-04 -1.610114e-04 1.759725e-04 -2.022598e-04 7.771068e-05 -1.985358e-04 -2.354465e-03 -1.648855e-03 6.967134e-04 -9.967358e-04 -3.069542e-05 -7.029560e-04 -2.197106e-04 -3.295865e-04 -2.867153e-04 -6.227435e-05 -3.208567e-04 1.006082e-04 -3.298487e-04 1.816803e-04 -3.149152e-04 1.998928e-04 -2.799648e-04 1.745313e-04 -2.267715e-04 1.272268e-04 -1.580417e-04 7.409488e-05 -8.392062e-05 2.151327e-05 -1.892561e-05 -2.786519e-05 2.589832e-05 -7.228590e-05 4.144124e-05 -1.195237e-04 5.100210e-06 -2.185373e-04 -1.827237e-04 -5.429972e-04 -6.310182e-04 -6.640724e-04 -8.113880e-05 -6.756704e-04 -7.372592e-04 1.865789e-03 2.562407e-03 5.682173e-05 -1.347875e-03 -8.227131e-04 -9.057992e-04 1.342592e-03 2.412166e-03 6.300930e-04 -1.955143e-03 -1.855741e-03 -4.153391e-04 3.053553e-04 4.162988e-04 2.059563e-04 2.245077e-04 -5.207852e-06 2.302386e-04 -7.277189e-05 2.658888e-04 -1.214668e-04 2.764970e-04 -1.561087e-04 2.627488e-04 -1.655706e-04 2.275559e-04 -1.453902e-04 1.709776e-04 -9.680900e-05 9.438804e-05 -2.446762e-05 1.936733e-06 6.385563e-05 -9.932088e-05 1.578584e-04 -1.999181e-04 2.456053e-04 -2.881037e-04 3.154962e-04 -3.507633e-04 3.559302e-04 -3.769224e-04 3.553717e-04 -3.589166e-04 3.053977e-04 -2.932503e-04 2.021159e-04 -1.835950e-04 4.554205e-05 -4.370601e-05 -1.590531e-04 1.033497e-04 -3.970994e-04 2.258811e-04 -6.420687e-04 2.833293e-04 -8.457639e-04 2.358489e-04 -9.139550e-04 5.474656e-05 -6.980363e-04 -2.182489e-04 -5.588571e-06 -6.294825e-04 1.524871e-03 5.505627e-04 7.521522e-04 1.597895e-04 
-1.899229e-04 -2.921868e-04 -6.238744e-04 -3.636184e-04 -5.526142e-04 1.935311e-04 9.348683e-04 -6.477056e-05 6.998250e-05 1.399924e-04 -5.064665e-04 1.830456e-03 2.440429e-03 1.089193e-04 -6.186375e-05 1.338469e-04 -1.201966e-04 1.285247e-04 -1.300618e-04 7.172273e-05 -9.652060e-05 -9.460876e-04 -5.106582e-04 4.398460e-04 -4.476094e-04 -5.810857e-05 -3.410362e-04 -1.484129e-04 -1.424222e-04 -1.544679e-04 8.308951e-07 -1.507898e-04 8.220459e-05 -1.462216e-04 1.174606e-04 -1.376011e-04 1.221871e-04 -1.219632e-04 1.091782e-04 -9.758233e-05 8.939636e-05 -6.414785e-05 7.125751e-05 -2.362493e-05 5.977509e-05 2.019651e-05 5.739118e-05 6.383670e-05 6.600547e-05 1.071440e-04 8.859586e-05 1.512399e-04 1.137738e-04 1.542623e-04 3.309519e-05 -2.844295e-06 -6.020792e-05 7.583578e-05 1.427438e-05 3.988251e-04 -2.657060e-04 -1.106757e-03 -4.878534e-04 -1.524072e-04 -4.822399e-05 1.436995e-04 1.289520e-04 -1.285281e-03 -1.209193e-03 -4.589945e-04 -7.596335e-05 9.395448e-05 2.069238e-04 5.292303e-04 4.073082e-04 3.672168e-04 2.052394e-04 2.756791e-04 1.156013e-04 2.367636e-04 5.563016e-05 2.034897e-04 1.250327e-05 1.702677e-04 -1.255185e-05 1.357926e-04 -1.969585e-05 9.854566e-05 -1.101063e-05 5.771202e-05 1.014951e-05 1.375857e-05 3.952295e-05 -3.135642e-05 7.236055e-05 -7.431651e-05 1.037534e-04 -1.108920e-04 1.288688e-04 -1.366587e-04 1.429042e-04 -1.480001e-04 1.413779e-04 -1.426422e-04 1.210343e-04 -1.202882e-04 8.031941e-05 -8.372953e-05 1.937869e-05 -3.980468e-05 -5.939615e-05 8.326392e-07 -1.498997e-04 2.543744e-05 -2.398613e-04 2.425942e-05 -3.059454e-04 2.524242e-06 -3.105201e-04 -8.841716e-06 -2.318232e-04 2.405862e-05 -1.252547e-04 2.541555e-05 5.550935e-04 1.823294e-04 3.046137e-04 -2.354419e-05 
3.976865e-07 -1.844982e-07 7.293861e-08 -2.564150e-07 -1.480981e-07 -3.311278e-07 -2.753612e-07 -3.563213e-07 -1.552197e-07 -3.590611e-07 -1.419266e-10 -3.611183e-07 4.476074e-08 -7.273367e-08 -2.964451e-08 -1.558994e-08 -4.313290e-09 2.577102e-08 5.656073e-08 5.214352e-08 1.601374e-07 -5.790016e-06 4.494741e-06 -6.907338e-06 4.308083e-06 -7.739873e-06 4.286261e-06 -8.191093e-06 4.030922e-06 -8.067494e-06 3.392671e-06 -7.175963e-06 2.489811e-06 -5.293789e-06 1.663444e-06 -2.307745e-06 1.453374e-06 2.110354e-06 3.117569e-06 9.087345e-06 8.760766e-06 2.021623e-05 2.025236e-05 3.621288e-05 3.754996e-05 5.542314e-05 5.708366e-05 7.218042e-05 6.991757e-05 7.524402e-05 6.113462e-05 4.846386e-05 1.189988e-05 -2.695430e-05 -1.026199e-04 -1.902249e-04 -3.031846e-04 -3.907555e-04 -5.245568e-04 -3.762098e-04 5.782553e-04 1.031784e-03 1.334128e-04 -5.461008e-04 -6.545449e-04 -6.531497e-04 1.785810e-04 1.086474e-03 5.676258e-04 -4.849537e-04 -6.833957e-04 -5.453707e-04 -2.338953e-04 9.932649e-05 1.317131e-04 1.310901e-04 1.128914e-04 1.177616e-04 1.026534e-04 1.046778e-04 8.974519e-05 8.758559e-05 7.493091e-05 6.844618e-05 6.020406e-05 5.019426e-05 4.761113e-05 3.513659e-05 3.783815e-05 2.378448e-05 3.000810e-05 1.530663e-05 2.286821e-05 8.950412e-06 1.609286e-05 4.760034e-06 1.027332e-05 2.987102e-06 5.942815e-06 3.158086e-06 2.816076e-06 4.011372e-06 2.671772e-07 4.556763e-06 -1.759435e-06 4.607215e-06 -2.916711e-06 4.256126e-06 -3.128246e-06 3.481395e-06 -2.578559e-06 2.434346e-06 -1.378693e-06 1.420487e-06 1.625408e-07 4.884762e-07 1.481182e-06 -3.591976e-07 2.209498e-06 -9.003729e-07 2.333316e-06 -8.679255e-07 2.010033e-06 -3.876271e-07 1.414959e-06 -1.861064e-07 8.432608e-07 -1.445978e-07 
1.909041e-04 2.916873e-04 6.242500e-04 3.628791e-04 5.525120e-04 -1.945542e-04 -9.355147e-04 6.359841e-05 -6.992846e-05 -1.412987e-04 5.072305e-04 -1.831879e-03 -2.439288e-03 -1.090529e-04 6.173049e-05 -1.338362e-04 1.199561e-04 -1.284217e-04 1.298975e-04 -7.164728e-05 9.666395e-05 9.329901e-04 5.161461e-04 -4.560379e-04 4.527330e-04 3.953363e-05 3.456476e-04 1.277972e-04 1.455586e-04 1.323723e-04 -5.722137e-07 1.279344e-04 -8.622074e-05 1.234869e-04 -1.267617e-04 1.157200e-04 -1.371390e-04 1.018222e-04 -1.282017e-04 8.173706e-05 -1.072025e-04 5.791494e-05 -7.886349e-05 3.397900e-05 -4.726189e-05 1.212128e-05 -1.886066e-05 -1.096648e-05 -6.769981e-06 -4.844761e-05 -3.157059e-05 -1.171442e-04 -9.867787e-05 -1.929514e-04 -1.767730e-04 -4.120711e-04 -4.589112e-04 6.354303e-04 4.617808e-04 -1.018822e-03 -7.648507e-05 1.179283e-03 1.228514e-04 5.054632e-05 2.623894e-04 -7.103202e-04 -7.602603e-04 3.477947e-04 3.833314e-04 -2.116712e-04 -2.503619e-04 -4.145234e-04 -4.078802e-04 1.188826e-04 2.953363e-04 2.537514e-04 2.868394e-04 1.594201e-04 2.372565e-04 7.959501e-05 2.032076e-04 2.663298e-05 1.785158e-04 -6.606670e-06 1.536054e-04 -2.310929e-05 1.249726e-04 -2.296460e-05 9.143050e-05 -7.956285e-06 5.202350e-05 1.785234e-05 7.214903e-06 4.998677e-05 -3.959972e-05 8.462071e-05 -8.278569e-05 1.176510e-04 -1.166702e-04 1.435954e-04 -1.370385e-04 1.563815e-04 -1.406237e-04 1.518745e-04 -1.242552e-04 1.294601e-04 -8.570941e-05 9.212210e-05 -2.507542e-05 4.661631e-05 5.480769e-05 3.882707e-06 1.476103e-04 -2.271361e-05 2.404861e-04 -2.335754e-05 3.090233e-04 -3.283748e-06 3.149084e-04 7.041053e-06 2.363651e-04 -2.573451e-05 1.291013e-04 -2.599759e-05 -5.523005e-04 -1.826384e-04 -3.028373e-04 2.321645e-05 
2.361148e-04 4.308885e-04 1.017748e-03 6.912311e-04 9.802242e-04 -6.558021e-04 -2.159601e-03 -2.613427e-04 -1.199305e-04 -4.467773e-04 8.158295e-04 -3.415200e-03 -4.971423e-03 -2.207685e-04 6.278669e-05 -2.130314e-04 1.608606e-04 -1.758610e-04 2.021625e-04 -7.760870e-05 1.989081e-04 2.345453e-03 1.658082e-03 -7.094550e-04 1.006512e-03 1.491822e-05 7.135387e-04 2.021350e-04 3.403846e-04 2.689256e-04 7.185655e-05 3.047265e-04 -9.317450e-05 3.183100e-04 -1.765065e-04 3.098496e-04 -1.981382e-04 2.813477e-04 -1.759391e-04 2.369598e-04 -1.251564e-04 1.844977e-04 -5.647205e-05 1.349824e-04 2.265022e-05 9.910618e-05 1.051072e-04 8.279914e-05 1.796808e-04 8.107134e-05 2.287085e-04 8.215882e-05 2.498818e-04 1.174798e-04 3.204076e-04 1.866671e-04 -8.508908e-05 -7.805515e-04 -9.260988e-04 -8.972298e-04 -7.596369e-04 1.654460e-04 3.778499e-04 -1.218056e-04 -9.090170e-04 -6.349894e-04 -5.274792e-04 1.110616e-04 4.056338e-04 3.802689e-04 -2.824332e-04 -3.638951e-04 2.490682e-05 3.335820e-04 4.626757e-04 3.269511e-04 4.469973e-04 1.688789e-04 3.954699e-04 3.289620e-05 3.580654e-04 -6.159193e-05 3.246440e-04 -1.183233e-04 2.839511e-04 -1.357618e-04 2.324380e-04 -1.128548e-04 1.671443e-04 -5.607586e-05 8.371417e-05 2.190965e-05 -1.815291e-05 1.097084e-04 -1.285916e-04 2.004676e-04 -2.304785e-04 2.867075e-04 -3.081186e-04 3.545752e-04 -3.524446e-04 3.862880e-04 -3.568514e-04 3.700529e-04 -3.123683e-04 3.040822e-04 -2.117257e-04 1.938038e-04 -5.484304e-05 5.175364e-05 1.512836e-04 -9.863757e-05 3.929349e-04 -2.234309e-04 6.431950e-04 -2.828033e-04 8.509530e-04 -2.379416e-04 9.206392e-04 -5.899426e-05 7.043406e-04 2.145739e-04 1.055979e-05 6.297401e-04 -1.522151e-03 -5.502322e-04 -7.508389e-04 -1.595698e-04 
6.475031e-04 1.502618e-03 3.896344e-03 3.719484e-03 6.951471e-03 -4.451061e-03 -1.234000e-02 1.527126e-03 -1.074016e-03 -1.018688e-03 4.746860e-04 -4.717197e-03 -2.095575e-03 -3.496863e-04 3.841992e-04 -5.373349e-04 5.532179e-04 -5.907941e-04 5.682884e-04 -4.546829e-04 2.666550e-04 2.136427e-03 3.278408e-03 9.451240e-05 1.272353e-03 2.038681e-04 4.645608e-04 2.646272e-04 -2.785040e-05 3.304131e-04 -2.980167e-04 3.886781e-04 -4.315054e-04 4.169511e-04 -4.755305e-04 4.087322e-04 -4.566089e-04 3.657558e-04 -3.966719e-04 2.921321e-04 -3.155945e-04 1.962697e-04 -2.278191e-04 9.089494e-05 -1.440328e-04 -1.108854e-05 -7.309667e-05 -9.849034e-05 -2.342430e-05 -1.659707e-04 -1.823471e-06 -2.128596e-04 -5.949974e-06 -2.449193e-04 -1.047687e-04 -4.493374e-04 3.963794e-04 2.131247e-03 2.115849e-04 -1.810738e-03 1.805198e-03 2.013135e-03 -1.441178e-03 8.255068e-04 1.168177e-03 -1.880035e-03 -6.922103e-04 2.105486e-03 -5.898655e-05 -8.376808e-04 2.467918e-04 -3.714388e-04 -1.290203e-03 -5.928997e-04 -7.913251e-05 -1.775382e-04 1.363482e-04 -1.594300e-04 2.536928e-04 -1.875220e-04 3.187617e-04 -2.287117e-04 3.402116e-04 -2.586491e-04 3.267493e-04 -2.549758e-04 2.852993e-04 -2.062088e-04 2.165460e-04 -1.169642e-04 1.157471e-04 -3.022069e-06 -1.699460e-05 1.215386e-04 -1.665165e-04 2.500165e-04 -3.075043e-04 3.745203e-04 -4.177446e-04 4.764562e-04 -4.860749e-04 5.298532e-04 -5.049341e-04 5.176703e-04 -4.614978e-04 4.376232e-04 -3.450079e-04 2.963803e-04 -1.563120e-04 1.088356e-04 9.364640e-05 -9.401684e-05 3.865397e-04 -2.631927e-04 6.894348e-04 -3.339402e-04 9.450960e-04 -2.351584e-04 1.035281e-03 1.795700e-05 6.879984e-04 -2.038704e-04 3.497768e-03 1.695018e-03 -5.022630e-03 -2.097654e-03 -1.989840e-03 -2.907729e-04 
8.249307e-04 2.096151e-03 5.527974e-03 4.824913e-03 1.323126e-03 -1.049285e-02 -1.316441e-02 1.788629e-03 -6.507353e-04 -1.145118e-03 4.158636e-04 -2.434374e-03 -3.436199e-05 -4.733168e-04 3.589742e-04 -5.690139e-04 5.396128e-04 -5.846031e-04 5.832222e-04 -4.275925e-04 3.701419e-04 7.556675e-05 2.561134e-03 -1.966634e-04 1.198801e-03 5.661008e-05 5.067126e-04 3.495273e-04 3.788900e-05 5.826564e-04 -2.711573e-04 7.192822e-04 -4.637850e-04 7.538823e-04 -5.473520e-04 7.164436e-04 -5.235903e-04 6.309986e-04 -4.209859e-04 5.031801e-04 -2.790705e-04 3.473163e-04 -1.195829e-04 1.923395e-04 4.414338e-05 6.604506e-05 2.053100e-04 9.491897e-07 3.678482e-04 2.649924e-05 5.428023e-04 1.707031e-04 7.686000e-04 5.092054e-04 1.163229e-03 8.857093e-04 2.300133e-04 -1.512590e-03 -1.454616e-03 -2.400512e-04 -3.878558e-04 -4.958625e-04 -2.632209e-04 -4.694789e-04 -1.592431e-03 -1.090642e-04 3.040779e-05 1.889928e-04 -3.886107e-04 3.308974e-04 -3.733708e-04 -7.119244e-06 1.675925e-04 3.298096e-04 4.538760e-04 1.083242e-04 4.449908e-04 -1.166089e-04 5.096898e-04 -2.756359e-04 5.676139e-04 -4.055824e-04 5.717154e-04 -4.946318e-04 5.300460e-04 -5.000074e-04 4.605736e-04 -4.009470e-04 3.601421e-04 -2.175512e-04 2.007275e-04 -2.132384e-06 -3.897885e-05 2.117028e-04 -3.256909e-04 4.310843e-04 -5.898549e-04 6.632872e-04 -7.790056e-04 8.704446e-04 -8.907575e-04 9.777811e-04 -9.299000e-04 9.460131e-04 -8.618891e-04 7.820452e-04 -6.514286e-04 4.948643e-04 -3.024936e-04 8.859389e-05 1.587734e-04 -4.041034e-04 7.045976e-04 -9.323925e-04 1.273560e-03 -1.450244e-03 1.783528e-03 -1.864719e-03 2.147527e-03 -1.997967e-03 2.141850e-03 -1.812056e-03 5.174440e-03 1.736695e-02 -5.480622e-03 -7.309893e-03 -3.470039e-03 -1.799509e-03 
-1.530544e-03 1.384354e-03 4.333233e-05 3.355095e-03 -1.282019e-02 -4.656422e-03 8.948007e-03 -2.330303e-03 2.238263e-03 1.152738e-04 1.161992e-03 2.428219e-03 2.296531e-03 -1.728075e-03 1.534948e-03 -1.346117e-03 1.369304e-03 -1.522869e-03 1.930360e-03 -1.997050e-03 2.571171e-03 -2.431361e-03 -2.435891e-03 -7.045769e-04 -1.352523e-03 -8.804987e-05 -1.164721e-03 3.295186e-04 -1.088458e-03 6.244950e-04 -1.034116e-03 7.675281e-04 -9.735230e-04 7.679065e-04 -8.686247e-04 6.762169e-04 -6.940816e-04 5.294723e-04 -4.715652e-04 3.352414e-04 -2.443343e-04 1.098817e-04 -3.649458e-05 -1.147031e-04 1.334520e-04 -3.147916e-04 2.488769e-04 -4.710773e-04 2.957989e-04 -5.862855e-04 2.400899e-04 -7.018676e-04 1.431340e-05 -9.204134e-04 -4.693124e-04 -1.041851e-03 -8.721219e-05 4.341662e-04 1.176493e-03 9.297562e-04 -2.594245e-04 3.847505e-04 3.820807e-04 8.271088e-04 3.771346e-04 1.406427e-03 -4.601526e-04 -2.634591e-05 -1.365761e-04 6.425858e-04 -3.140562e-04 4.398083e-04 6.868033e-05 -1.313364e-04 -2.576865e-04 -3.898250e-04 4.470837e-05 -4.589734e-04 3.356311e-04 -5.271680e-04 5.325039e-04 -6.092518e-04 6.018127e-04 -6.666023e-04 5.745354e-04 -6.305944e-04 4.914313e-04 -4.686108e-04 3.597994e-04 -2.050788e-04 1.498052e-04 9.002169e-05 -1.635308e-04 3.713297e-04 -5.327596e-04 6.482952e-04 -8.611155e-04 9.302124e-04 -1.076022e-03 1.164688e-03 -1.174779e-03 1.249991e-03 -1.164869e-03 1.134959e-03 -1.001235e-03 8.320093e-04 -6.401323e-04 3.553861e-04 -9.299141e-05 -2.869253e-04 5.967986e-04 -1.048470e-03 1.381432e-03 -1.861482e-03 2.162508e-03 -2.671171e-03 2.803162e-03 -3.354105e-03 3.130433e-03 -3.553444e-03 2.675705e-03 -1.729669e-03 -3.382165e-03 2.678335e-02 -1.200924e-04 -7.986586e-03 -3.976030e-03 -2.553389e-03 
-1.610055e-03 2.989907e-04 -3.052064e-03 -1.046365e-04 -1.281557e-02 -3.483978e-04 1.635610e-02 -6.863234e-03 2.354451e-03 -4.034637e-03 8.615534e-04 -6.411770e-03 -2.229995e-03 1.942896e-03 -1.303433e-03 1.281248e-03 -9.287086e-04 1.223354e-03 -1.884605e-03 1.896573e-03 -3.589898e-03 3.317347e-03 4.494907e-03 1.105785e-03 2.005766e-03 7.985438e-04 9.520486e-04 7.044004e-04 3.179345e-04 6.580347e-04 -3.174352e-05 6.077272e-04 -2.017728e-04 5.258989e-04 -2.477953e-04 4.172468e-04 -2.025048e-04 2.914118e-04 -1.011402e-04 1.522211e-04 2.183955e-05 1.058039e-05 1.458148e-04 -1.142297e-04 2.580341e-04 -2.043293e-04 3.526044e-04 -2.422786e-04 4.320621e-04 -2.149198e-04 5.008236e-04 -1.105469e-04 5.759726e-04 9.379637e-05 6.463753e-04 1.107443e-04 5.904831e-04 1.081333e-03 -4.345401e-04 -1.628021e-03 8.013991e-04 1.073939e-03 -1.742714e-03 3.615678e-04 1.094702e-04 -1.595492e-03 -7.740061e-04 1.660706e-03 -6.453954e-04 -5.738845e-04 4.024530e-04 -1.998365e-05 -9.632087e-04 -8.169885e-05 8.936845e-05 3.123456e-05 2.301007e-04 -1.104754e-04 3.397198e-04 -2.210410e-04 4.156049e-04 -3.093058e-04 4.318322e-04 -3.583654e-04 3.946415e-04 -3.399176e-04 3.200403e-04 -2.424443e-04 2.112962e-04 -8.139414e-05 5.738922e-05 1.064466e-04 -1.480566e-04 2.937511e-04 -3.773523e-04 4.755022e-04 -5.784928e-04 6.455260e-04 -7.090509e-04 7.703507e-04 -7.571010e-04 7.966577e-04 -7.168593e-04 6.950620e-04 -5.638231e-04 4.680151e-04 -2.773804e-04 1.262746e-04 1.361063e-04 -3.123013e-04 6.510300e-04 -8.028339e-04 1.232875e-03 -1.276283e-03 1.818505e-03 -1.647409e-03 2.308185e-03 -1.782234e-03 2.504515e-03 -1.466331e-03 1.721753e-03 2.709601e-05 -7.900505e-03 1.026663e-02 1.108311e-03 -2.121397e-03 -1.367413e-03 -7.513830e-04 
-9.800661e-04 7.983308e-05 -1.920040e-03 -3.614561e-04 -4.827746e-03 -2.671015e-04 5.719774e-03 -2.076458e-03 1.253007e-03 -3.149245e-04 9.647175e-04 -4.378726e-04 -2.390658e-03 -2.911016e-03 5.713256e-04 -1.403976e-03 -4.805852e-04 6.430076e-04 -2.000998e-04 1.409123e-03 3.226800e-03 2.122458e-03 3.120968e-05 -3.948304e-04 -4.249415e-04 -9.354539e-05 -3.788332e-04 6.476677e-05 -3.656232e-04 1.559474e-04 -3.410974e-04 1.992542e-04 -3.040132e-04 2.022058e-04 -2.524400e-04 1.753432e-04 -1.861757e-04 1.288326e-04 -1.095170e-04 7.154795e-05 -2.828367e-05 1.456026e-05 5.475841e-05 -2.775893e-05 1.412634e-04 -3.777070e-05 2.406259e-04 8.907448e-06 3.763495e-04 1.518925e-04 6.002087e-04 4.733323e-04 1.045122e-03 1.209802e-03 2.058890e-03 2.106512e-03 2.692681e-04 -4.063906e-03 -3.958110e-03 -2.639679e-04 7.208039e-05 -2.073442e-04 2.938535e-04 -1.085111e-03 -3.080493e-03 -1.003273e-03 8.056924e-04 1.202902e-03 1.341719e-04 -4.973141e-05 -9.070321e-04 -9.268766e-04 -1.427561e-04 6.765005e-04 7.645975e-04 5.900189e-04 6.122881e-04 3.447830e-04 4.969199e-04 1.492620e-04 4.081767e-04 5.858451e-06 3.327264e-04 -8.225894e-05 2.626046e-04 -1.124772e-04 1.938764e-04 -8.867401e-05 1.198142e-04 -2.433753e-05 3.158702e-05 6.118737e-05 -7.417845e-05 1.526681e-04 -1.869295e-04 2.425106e-04 -2.859153e-04 3.230897e-04 -3.523894e-04 3.782709e-04 -3.769567e-04 3.863723e-04 -3.535837e-04 3.332852e-04 -2.731164e-04 2.169913e-04 -1.289913e-04 4.269232e-05 7.530825e-05 -1.773156e-04 3.262314e-04 -4.178026e-04 6.014238e-04 -6.374952e-04 8.638864e-04 -7.733053e-04 1.054569e-03 -7.192178e-04 1.066928e-03 -2.953055e-04 6.437750e-04 8.487894e-04 -2.514421e-03 3.198507e-03 5.147400e-04 7.028952e-04 -4.176909e-04 1.144032e-04 
