# vtk DataFile Version 2.0
Comment goes here
ASCII

DATASET STRUCTURED_POINTS
FIELD FieldData 1
TIME 1 1 double
0.26000000
DIMENSIONS    128   16   1

ORIGIN    0.000   0.000   0.000
SPACING   0.0078125 0.015625   1.000

POINT_DATA   2048
SCALARS uY double
LOOKUP_TABLE default

2.141077e-08 -5.902615e-07 -1.332748e-06 -1.993511e-06 -3.217016e-06 -4.170862e-06 -6.256216e-06 -7.012590e-06 -8.111894e-06 -5.942922e-06 -5.740094e-06 -1.659864e-06 -8.538972e-08 6.120260e-07 -6.272890e-08 1.043502e-07 6.157279e-07 -1.658754e-06 1.327600e-06 -1.483291e-06 5.028668e-06 1.220899e-05 2.507079e-05 2.193452e-05 1.873837e-05 1.590238e-05 1.812672e-05 1.787808e-05 1.636692e-05 2.530744e-05 1.396111e-05 6.263002e-06 -2.122362e-05 -2.726812e-05 -5.216985e-05 -3.525863e-05 -2.509789e-05 1.171454e-05 3.214737e-05 6.731791e-05 8.396271e-05 9.858027e-05 1.135121e-04 1.249223e-04 1.609163e-04 1.901781e-04 2.696295e-04 3.313219e-04 4.403379e-04 5.268183e-04 6.523795e-04 7.490567e-04 8.518934e-04 8.793827e-04 8.002871e-04 6.372570e-04 5.044832e-04 4.477335e-04 3.972499e-04 5.239568e-05 -7.441931e-04 -1.312669e-03 -1.365084e-03 -8.702882e-04 -6.035198e-04 -7.684403e-04 -1.302834e-03 -1.676864e-03 -1.657813e-03 -1.096510e-03 -2.204658e-04 -3.857201e-05 -3.308633e-05 1.167429e-04 4.199592e-04 5.417491e-04 5.719504e-04 4.995035e-04 4.019373e-04 2.989096e-04 2.081720e-04 1.596088e-04 1.018371e-04 8.543104e-05 3.148384e-05 2.400299e-05 -1.816974e-05 -1.337900e-06 -1.599405e-05 1.634889e-05 1.687813e-05 3.464066e-05 2.172310e-05 2.681541e-05 1.707079e-05 5.717871e-06 -1.017333e-05 -3.218720e-05 -3.938351e-05 -4.195376e-05 -1.907164e-05 -9.565911e-06 7.955626e-06 8.656283e-06 1.583566e-05 9.047226e-06 1.577127e-06 -4.147593e-06 6.131266e-08 1.246302e-05 2.639980e-05 4.084087e-05 4.214859e-05 3.453817e-05 1.729016e-05 -2.858505e-06 -2.208963e-05 -3.352421e-05 -2.440277e-05 -8.912151e-06 6.640527e-06 6.982857e-06 6.714022e-06 3.613352e-06 3.130293e-06 1.768775e-06 1.394322e-06 5.199933e-07 
-1.104821e-03 -6.084021e-04 -3.003789e-03 -1.107295e-03 -4.869816e-03 3.681057e-03 4.532231e-03 -4.708584e-03 -1.280692e-03 -5.600312e-03 -5.230994e-03 -1.134542e-02 -1.560322e-02 -1.679998e-02 -6.546458e-03 -5.259253e-03 -2.120757e-03 1.881400e-03 3.773150e-03 7.954630e-03 1.691563e-02 1.628322e-02 9.690684e-03 6.192863e-03 3.616802e-03 2.656556e-03 1.389615e-03 1.213466e-03 3.939307e-04 6.540864e-04 1.699446e-05 4.055508e-04 -2.082339e-04 2.183208e-04 -3.644803e-04 1.171261e-04 -3.088461e-04 1.574149e-04 -1.931729e-04 1.842095e-04 -1.006954e-04 9.955667e-05 -8.504711e-05 2.143141e-05 -1.399504e-05 2.138847e-05 1.512878e-04 1.025531e-04 2.935430e-04 1.748392e-04 4.142536e-04 2.835779e-04 5.758874e-04 5.210514e-04 8.338930e-04 9.069791e-04 8.913415e-04 1.399977e-03 1.892913e-03 6.775805e-04 -8.772103e-04 -2.878656e-03 -3.569592e-03 3.415048e-04 2.981544e-03 5.249145e-04 -2.891969e-03 -3.680178e-03 -4.081551e-03 -1.152334e-03 4.136793e-03 3.925583e-03 4.651281e-04 -9.454729e-04 -7.183189e-04 -5.568645e-04 -1.466202e-04 -2.164636e-04 3.934506e-05 -1.773715e-04 4.437198e-05 -1.244948e-04 5.990986e-05 -9.722786e-05 -1.549376e-05 -1.034701e-04 -1.172772e-04 -5.661920e-05 -1.663324e-04 4.203471e-05 -1.557800e-04 2.117915e-04 -1.757810e-04 2.778812e-04 -2.510004e-04 2.605050e-04 -3.551828e-04 2.282611e-04 -3.560387e-04 2.307040e-04 -2.414123e-04 1.976100e-04 -1.546632e-04 5.442444e-05 7.281084e-06 -9.616210e-05 1.564748e-04 -3.344541e-04 3.658988e-04 -4.849383e-04 6.474226e-04 -5.878080e-04 8.394204e-04 -7.453639e-04 8.700848e-04 -7.754799e-04 7.720866e-04 -5.500250e-04 5.530080e-04 4.321521e-04 1.700237e-04 3.160688e-03 -3.613462e-03 1.977679e-03 1.136907e-03 1.173917e-03 3.994666e-04 2.805493e-04 
-2.073875e-03 -1.878968e-03 -5.882489e-03 -4.059173e-03 -1.354416e-02 1.239046e-02 1.664797e-02 -9.809514e-03 2.631949e-03 -7.970613e-03 5.257646e-04 -1.061668e-02 -3.171883e-04 6.005199e-03 2.726544e-03 1.648362e-03 3.473713e-04 2.087513e-04 -2.705277e-03 -1.312347e-03 -7.933480e-03 3.575818e-03 6.098715e-03 2.294951e-03 2.652061e-03 1.149555e-03 1.289396e-03 7.520246e-04 4.561700e-04 7.189897e-04 1.904799e-04 7.045540e-04 -1.460172e-04 4.306226e-04 -5.858195e-04 1.823025e-04 -4.949410e-04 3.596242e-04 -1.942447e-04 5.067041e-04 -2.378577e-05 2.414827e-04 -1.449744e-04 -1.360482e-05 -6.284836e-05 -1.301679e-05 2.910880e-04 1.273587e-04 4.057457e-04 -5.611285e-05 1.913620e-04 -3.888715e-04 -9.170936e-06 -4.262067e-04 -4.003477e-05 -6.800176e-04 -1.386639e-03 -5.692739e-04 -1.078386e-04 -4.672958e-04 3.889571e-03 4.527790e-03 -2.065866e-03 -2.554174e-03 -2.955762e-04 -1.028055e-03 3.699905e-04 5.021902e-03 1.815626e-03 -2.570167e-03 -1.010591e-03 -5.546461e-04 -1.086563e-03 -8.603375e-04 -4.949681e-04 -7.086627e-04 -2.569256e-04 -5.027441e-04 1.104542e-05 -3.811521e-04 1.382291e-04 -1.621486e-04 2.564311e-04 -1.012710e-04 9.005273e-05 -1.431083e-04 -1.571181e-04 -1.175499e-04 -3.224407e-04 4.336174e-05 -2.616742e-04 5.008109e-04 -2.363601e-04 6.249987e-04 -4.772243e-04 4.903082e-04 -7.652858e-04 4.503271e-04 -7.102809e-04 5.321884e-04 -4.631141e-04 4.528305e-04 -3.243202e-04 1.547795e-04 1.123781e-05 -1.317164e-04 2.651299e-04 -7.075939e-04 6.497463e-04 -9.980604e-04 1.311746e-03 -1.124166e-03 1.812357e-03 -1.492295e-03 1.890183e-03 -1.755644e-03 1.738143e-03 -1.592120e-03 1.549970e-03 8.789841e-05 9.030300e-04 4.929680e-03 -1.296441e-02 7.339672e-03 5.767689e-03 8.477656e-05 7.473392e-04 -6.308539e-04 
-1.948571e-03 -4.105413e-03 -1.010547e-02 -1.336300e-02 -3.050339e-02 1.918016e-03 1.094891e-02 -3.701116e-03 5.312617e-03 -8.659170e-04 4.695380e-03 2.911707e-03 4.849405e-03 -4.760557e-03 1.287633e-03 -2.220763e-03 1.257142e-03 -1.408787e-03 1.807118e-03 -8.536190e-04 3.318977e-03 -3.484192e-03 -3.853817e-03 -1.897695e-03 -2.022485e-03 -9.708056e-04 -1.469633e-03 -4.515662e-04 -1.231375e-03 1.548412e-04 -8.187558e-04 6.271367e-04 -8.402509e-04 4.094247e-04 -1.407836e-03 -2.510472e-05 -1.320234e-03 3.801751e-04 -5.520536e-04 8.753614e-04 -1.839608e-04 4.588298e-04 -5.084218e-04 -1.228022e-04 -4.621888e-04 -1.113827e-04 1.280135e-04 1.610948e-04 3.110163e-04 -2.794271e-04 -1.999626e-04 -9.593203e-04 -5.529893e-04 -1.027012e-03 -4.400282e-04 -6.975893e-04 1.473163e-04 1.809231e-04 1.311790e-04 6.445791e-04 -1.424429e-03 -7.589529e-04 1.330703e-03 1.452499e-03 1.104938e-05 7.441164e-04 -3.214792e-04 -1.961525e-03 -6.599221e-04 7.058580e-04 1.710881e-04 -7.889462e-05 5.060021e-04 1.892269e-04 5.364123e-04 -3.004330e-04 1.720894e-04 -5.444343e-04 2.960829e-04 -3.561096e-04 4.844316e-04 -1.652151e-04 4.832360e-04 -1.747415e-04 2.069942e-04 -2.020944e-04 -1.840471e-04 -3.016440e-04 -5.581474e-04 -8.172018e-06 -3.750468e-04 8.668450e-04 -1.645586e-04 1.078967e-03 -7.470827e-04 6.940395e-04 -1.269939e-03 7.090096e-04 -1.113190e-03 9.120806e-04 -8.823856e-04 7.341713e-04 -5.775662e-04 4.600069e-04 -1.437132e-04 -1.673856e-05 1.666622e-04 -9.378739e-04 6.215101e-04 -1.393637e-03 1.652788e-03 -1.458723e-03 2.608423e-03 -1.949017e-03 2.639485e-03 -2.931772e-03 2.182115e-03 -3.259056e-03 1.997035e-03 -2.120455e-03 7.602801e-04 8.516437e-04 -1.156244e-02 3.602270e-02 2.248374e-02 5.557139e-03 5.005168e-03 6.615753e-04 
-1.245210e-03 -5.317856e-03 -7.917321e-03 -1.462209e-02 -2.291595e-02 -2.123318e-02 -1.299740e-02 5.761678e-04 -1.039179e-04 -2.757452e-03 3.144410e-04 -4.847483e-03 -1.207503e-03 -3.831310e-04 2.903712e-04 -5.820004e-04 4.636835e-04 -4.884429e-04 4.930766e-04 -2.411799e-04 2.609399e-04 1.509223e-03 3.458078e-03 6.954526e-04 2.010679e-03 1.315466e-04 9.014225e-04 -1.469540e-05 3.457252e-04 1.632065e-04 7.825328e-05 4.695456e-04 -1.792890e-04 4.019856e-04 -7.003765e-04 1.090434e-04 -9.220749e-04 3.484755e-04 -4.228766e-04 7.664832e-04 -1.773104e-04 5.866302e-04 -3.740090e-04 1.723393e-04 -3.512728e-04 1.868040e-04 2.619065e-05 3.851059e-04 2.514412e-04 1.777391e-04 5.957315e-05 -1.013071e-04 1.761878e-05 3.842042e-05 4.061544e-04 5.700266e-04 4.345568e-04 -4.149814e-04 -5.376430e-04 5.884464e-05 1.224239e-04 1.003910e-04 -3.263182e-04 2.083072e-05 -7.956143e-04 -8.709994e-04 -1.082896e-03 -7.266847e-04 -4.800184e-04 -4.867257e-05 4.921395e-04 1.933081e-04 6.766538e-04 -3.883048e-04 1.340177e-04 -4.824977e-04 1.053637e-04 -5.477673e-04 2.702182e-04 -2.405343e-04 4.789885e-04 -1.944170e-04 3.389986e-04 -2.271089e-04 1.780341e-04 -1.513454e-04 -5.041301e-05 -2.341413e-04 -3.630857e-04 3.719464e-05 -2.743164e-04 6.364616e-04 -1.150068e-04 8.268386e-04 -6.081140e-04 5.687732e-04 -9.505230e-04 6.467254e-04 -8.566467e-04 7.699418e-04 -8.562577e-04 6.005578e-04 -5.456939e-04 5.512630e-04 -3.039328e-04 1.629930e-04 -5.852500e-05 -4.073852e-04 2.411255e-04 -7.754831e-04 9.108663e-04 -8.454412e-04 1.671176e-03 -1.069392e-03 1.746813e-03 -1.927841e-03 1.419716e-03 -2.182414e-03 1.486544e-03 -1.801394e-03 1.474685e-03 -1.107826e-03 8.446272e-03 4.284519e-02 2.232563e-02 8.870368e-03 5.514284e-03 1.215484e-03 
-5.867598e-04 -2.237086e-03 -3.230452e-03 -5.546454e-03 -5.944243e-03 -1.526448e-02 -1.387967e-02 -3.235442e-04 -3.741760e-03 -4.679685e-03 -3.347802e-03 -9.713482e-03 -4.838405e-03 -2.669167e-04 3.287621e-04 -5.827956e-04 4.864609e-04 -5.233476e-04 4.940998e-04 -2.786390e-04 2.043773e-04 6.334940e-03 7.767395e-03 2.793476e-03 3.339598e-03 1.122266e-03 1.428866e-03 4.934932e-04 5.405823e-04 2.681466e-04 3.248629e-05 2.559500e-04 -2.156012e-04 2.652212e-04 -3.822750e-04 2.220065e-04 -5.242232e-04 2.447965e-04 -4.036561e-04 3.423064e-04 -2.989130e-04 3.447423e-04 -2.518677e-04 2.319258e-04 -2.006617e-04 1.832427e-04 -1.215489e-04 1.498862e-04 -4.341455e-05 5.653931e-05 -9.081966e-05 -1.209988e-04 -2.931928e-04 -4.575654e-04 -6.854072e-04 -1.385167e-03 -2.370483e-03 5.970272e-04 1.430556e-03 -5.276754e-04 4.870757e-03 4.804682e-03 -3.745433e-03 -2.619009e-03 1.927987e-03 -2.729738e-04 6.313778e-04 5.611815e-03 1.160341e-03 -3.504625e-03 5.056869e-05 1.292147e-04 -1.704851e-03 -1.763351e-03 -7.071976e-04 -8.441590e-04 -2.775572e-04 -6.089341e-04 -5.527953e-05 -3.369193e-04 1.126607e-04 -2.699248e-04 6.014089e-05 -2.196765e-04 3.191695e-05 -1.123061e-04 -2.761531e-05 -6.488054e-05 -1.426434e-04 9.532412e-05 -1.871252e-04 2.668383e-04 -2.054071e-04 3.798246e-04 -3.719448e-04 3.763251e-04 -4.572923e-04 4.187139e-04 -4.610109e-04 4.073642e-04 -4.928173e-04 3.136700e-04 -3.192447e-04 2.818577e-04 -2.000736e-04 7.066132e-05 -1.066084e-05 -1.178856e-04 1.937311e-04 -3.185026e-04 4.468811e-04 -4.279779e-04 7.497891e-04 -4.372124e-04 8.737430e-04 -5.431928e-04 8.716430e-04 -1.860684e-04 1.099041e-03 7.500078e-04 2.024355e-03 2.365878e-03 1.078580e-02 1.704429e-02 6.467231e-03 5.855626e-03 2.510780e-03 1.613781e-03 
-6.416776e-04 -2.019797e-03 -3.054236e-03 -4.334125e-03 -4.813399e-03 -5.993956e-03 -6.087207e-03 -4.871821e-03 -4.863981e-03 -7.112182e-03 -5.875167e-03 -1.201240e-02 -1.044012e-02 -1.951554e-04 5.572066e-05 -1.899523e-04 1.415149e-04 -1.454753e-04 1.795529e-04 -4.921736e-05 2.015619e-04 1.155947e-02 1.190997e-02 4.531752e-03 5.118543e-03 1.944355e-03 2.578511e-03 9.618349e-04 1.295213e-03 5.485819e-04 6.066750e-04 3.837695e-04 2.023861e-04 2.872516e-04 -6.089403e-05 2.231144e-04 -1.871722e-04 2.370297e-04 -1.675645e-04 2.792363e-04 -1.254810e-04 2.607703e-04 -1.059924e-04 2.062643e-04 -5.779465e-05 1.916082e-04 3.069901e-05 1.970890e-04 9.674708e-05 1.437174e-04 4.635094e-05 -5.695836e-05 -2.534430e-04 -5.659122e-04 -8.957093e-04 -1.333678e-03 -1.244020e-03 9.959843e-04 1.532776e-03 -5.095310e-04 5.283318e-04 1.164000e-03 -1.411297e-03 -3.457921e-04 1.840964e-03 5.519013e-04 -7.144069e-04 1.182753e-04 -5.681278e-04 -1.008894e-03 1.047338e-03 1.234232e-03 4.785178e-04 -2.516212e-05 1.290408e-04 -3.144588e-04 -1.310194e-04 -4.662664e-04 -1.381855e-04 -3.741250e-04 -4.815910e-05 -2.728080e-04 -2.103653e-05 -1.991341e-04 -3.794295e-05 -1.291210e-04 -8.463576e-05 -6.315951e-05 -1.406741e-04 4.955530e-05 -1.609655e-04 1.856636e-04 -1.852091e-04 2.645665e-04 -2.728598e-04 2.740027e-04 -3.424279e-04 2.850704e-04 -3.488329e-04 2.811569e-04 -3.191075e-04 2.323631e-04 -2.260897e-04 1.607429e-04 -1.126457e-04 2.781720e-05 2.632798e-05 -1.297306e-04 1.981891e-04 -2.586500e-04 4.188902e-04 -3.308227e-04 6.409789e-04 -3.638698e-04 7.870666e-04 -3.273546e-04 9.298927e-04 5.509929e-05 1.288519e-03 1.113391e-03 2.140916e-03 3.250075e-03 3.873704e-03 7.189104e-03 4.036449e-03 3.911591e-03 1.902781e-03 8.589895e-04 
-1.986602e-04 -6.764299e-04 -1.067488e-03 -1.768637e-03 -1.898769e-03 -2.816365e-03 -2.911101e-03 -2.404687e-03 -2.609513e-03 -3.497893e-03 -2.894352e-03 -5.902097e-03 -4.968497e-03 -9.459819e-05 5.575037e-05 -1.257177e-04 1.068093e-04 -1.120231e-04 1.159668e-04 -5.146941e-05 9.898264e-05 5.914335e-03 6.031030e-03 2.197835e-03 2.445790e-03 8.971990e-04 1.146194e-03 4.179688e-04 5.184131e-04 2.221886e-04 1.992527e-04 1.491180e-04 3.227896e-05 1.221216e-04 -5.578124e-05 1.148847e-04 -9.094521e-05 1.291463e-04 -7.082313e-05 1.593336e-04 -2.692736e-05 1.857119e-04 2.594334e-05 2.062020e-04 9.012449e-05 2.394228e-04 1.684076e-04 2.852001e-04 2.480613e-04 3.157810e-04 2.641863e-04 2.269995e-04 4.510196e-05 -1.908546e-04 -5.407845e-04 -8.154130e-04 -1.186483e-03 -8.398874e-04 -3.922782e-04 -6.465532e-04 1.344839e-03 2.319809e-03 -6.016820e-04 -1.995561e-03 -8.124235e-04 -4.500476e-04 -8.077074e-05 2.177490e-03 1.217803e-03 -1.832484e-03 -1.995973e-03 -4.049748e-04 1.146257e-03 1.147059e-03 8.632919e-04 3.361515e-04 1.832194e-04 -9.269091e-05 -2.161178e-05 -1.498787e-04 -2.956408e-05 -1.235111e-04 -2.695966e-05 -9.162918e-05 -3.152844e-05 -5.558268e-05 -4.249712e-05 -1.907039e-05 -5.888399e-05 2.727124e-05 -7.150803e-05 7.260221e-05 -8.535167e-05 1.038858e-04 -1.127347e-04 1.153559e-04 -1.327789e-04 1.196132e-04 -1.382689e-04 1.113196e-04 -1.312828e-04 8.981268e-05 -9.554685e-05 6.344739e-05 -5.028523e-05 1.640526e-05 7.584124e-06 -3.365584e-05 7.566812e-05 -7.626099e-05 1.549451e-04 -9.463093e-05 2.395664e-04 -7.804224e-05 3.161923e-04 -9.932751e-06 4.191561e-04 2.019559e-04 6.470727e-04 6.532519e-04 1.140735e-03 1.448912e-03 1.958754e-03 2.643606e-03 1.528496e-03 1.665972e-03 7.008087e-04 4.896198e-04 
-1.395337e-06 -2.371970e-06 -2.321671e-06 -3.758760e-06 -3.764712e-06 -5.818077e-06 -5.592501e-06 -8.152714e-06 -6.788555e-06 -8.348325e-06 -4.787339e-06 -6.232712e-06 -1.835182e-06 -8.533655e-07 9.637847e-07 1.194656e-07 2.154836e-06 1.250199e-06 3.680625e-06 2.582589e-06 5.618821e-06 6.847896e-06 3.395846e-06 8.157208e-06 4.260963e-06 7.164204e-06 2.824147e-07 4.062863e-06 -4.464272e-06 7.960424e-07 -1.028700e-05 -3.701861e-06 -1.709791e-05 -8.444530e-06 -1.946939e-05 -4.728993e-06 -7.576216e-06 1.295160e-05 1.894565e-05 3.943646e-05 5.021759e-05 6.512691e-05 8.084585e-05 8.933177e-05 1.136379e-04 1.191918e-04 1.537594e-04 1.579568e-04 1.980252e-04 1.950479e-04 2.255548e-04 1.988701e-04 1.900204e-04 1.129960e-04 4.242567e-05 -6.863637e-05 -8.296021e-05 5.041623e-04 8.208147e-04 3.914207e-04 5.695303e-04 2.818043e-04 -9.173763e-04 -5.043071e-04 8.128587e-04 6.066422e-04 -1.476709e-04 -9.237444e-05 -6.678314e-04 -9.165672e-04 5.289867e-05 7.023009e-04 4.099758e-04 -9.493248e-05 -2.864097e-04 -3.953697e-04 -3.819629e-04 -3.705299e-04 -3.114835e-04 -2.660170e-04 -2.191758e-04 -1.770058e-04 -1.559675e-04 -1.215824e-04 -1.170138e-04 -8.524237e-05 -8.570448e-05 -5.560513e-05 -5.648324e-05 -3.047346e-05 -3.095001e-05 -1.274347e-05 -1.315783e-05 -5.769111e-06 -7.336041e-06 -8.146427e-06 -8.214735e-06 -1.305027e-05 -1.091295e-05 -1.620725e-05 -1.127666e-05 -1.342829e-05 -5.267350e-06 -6.506794e-06 -2.319339e-06 -5.257329e-06 -4.191513e-06 -6.094635e-06 -4.184674e-06 -1.895029e-06 1.774357e-06 4.953458e-06 6.198882e-06 4.623903e-06 7.598857e-07 -5.324022e-06 -8.475173e-06 -1.183739e-05 -1.033212e-05 -1.022946e-05 -5.810479e-06 -4.914062e-06 -2.168295e-06 -2.294633e-06 -1.016910e-06 -1.500006e-06 -9.300516e-07 -1.624457e-06 
1.961291e-04 6.725012e-04 1.063136e-03 1.762288e-03 1.891637e-03 2.806272e-03 2.900065e-03 2.389199e-03 2.594522e-03 3.482304e-03 2.884614e-03 5.893344e-03 4.965238e-03 9.347710e-05 -5.473602e-05 1.252370e-04 -1.052733e-04 1.119570e-04 -1.131856e-04 5.336764e-05 -9.279671e-05 -5.903447e-03 -6.021705e-03 -2.179883e-03 -2.427215e-03 -8.768987e-04 -1.137737e-03 -4.034177e-04 -5.171535e-04 -2.120094e-04 -2.060626e-04 -1.378290e-04 -4.090756e-05 -1.090426e-04 5.368260e-05 -8.279089e-05 1.210591e-04 -5.047439e-05 1.706758e-04 -4.973160e-06 2.162376e-04 5.703407e-05 2.688299e-04 1.386966e-04 3.333361e-04 2.438002e-04 4.265852e-04 3.911397e-04 5.759117e-04 6.107230e-04 8.217636e-04 9.553469e-04 1.243540e-03 1.510425e-03 1.875797e-03 2.115942e-03 1.835409e-03 -1.171185e-03 -2.357341e-03 2.889639e-04 6.307583e-04 -6.549836e-04 -3.818823e-04 -5.963647e-04 -1.737575e-03 -9.071131e-04 1.980108e-04 -1.069757e-04 -1.339542e-04 1.071804e-04 -1.306138e-03 -1.505843e-03 -5.951986e-04 -6.577622e-04 -7.434425e-04 -4.570382e-04 -3.548641e-04 -1.080741e-04 -1.501102e-04 1.649306e-05 -8.551007e-05 4.537655e-05 -6.982344e-05 2.766977e-05 -6.190924e-05 6.768040e-06 -2.846941e-05 -5.849308e-06 1.576585e-05 -3.126862e-05 5.300410e-05 -6.124883e-05 9.154491e-05 -8.956415e-05 1.184522e-04 -1.139680e-04 1.341764e-04 -1.265237e-04 1.351112e-04 -1.291590e-04 1.152473e-04 -1.124118e-04 8.991265e-05 -7.034369e-05 4.925259e-05 -2.396895e-05 -1.389652e-05 2.251150e-05 -8.487049e-05 7.067712e-05 -1.539150e-04 1.023336e-04 -2.278946e-04 8.812101e-05 -3.139679e-04 -6.299590e-07 -4.340112e-04 -2.216056e-04 -6.651653e-04 -6.741076e-04 -1.153433e-03 -1.458562e-03 -1.962513e-03 -2.647187e-03 -1.529874e-03 -1.668086e-03 -7.022480e-04 -4.921505e-04 
6.409018e-04 2.017697e-03 3.051706e-03 4.329325e-03 4.807433e-03 5.983442e-03 6.073516e-03 4.847033e-03 4.837827e-03 7.086630e-03 5.862333e-03 1.200467e-02 1.044404e-02 1.927446e-04 -5.518432e-05 1.895501e-04 -1.385442e-04 1.471690e-04 -1.738492e-04 5.185220e-05 -1.899702e-04 -1.154428e-02 -1.189865e-02 -4.503278e-03 -5.089055e-03 -1.921347e-03 -2.575204e-03 -9.534251e-04 -1.299995e-03 -5.419104e-04 -6.228386e-04 -3.894709e-04 -2.534137e-04 -3.368536e-04 -3.379794e-05 -2.868965e-04 1.152739e-04 -2.442911e-04 1.887909e-04 -1.945149e-04 2.314988e-04 -1.212346e-04 2.625050e-04 -4.708777e-05 2.573280e-04 8.264425e-06 2.466039e-04 8.872511e-05 2.853601e-04 2.246050e-04 3.983091e-04 4.468448e-04 6.751500e-04 8.962378e-04 1.222956e-03 1.536498e-03 1.600097e-03 4.782902e-05 -2.560892e-04 1.686893e-03 8.004024e-04 -1.205950e-03 -1.993696e-04 1.760310e-04 -5.928544e-04 3.354548e-04 4.967614e-04 -1.031190e-03 -6.287070e-04 8.581218e-04 -9.999903e-05 -6.710371e-04 -8.514992e-04 -1.125681e-03 -1.263869e-03 -7.289154e-04 -6.913307e-04 -2.419151e-04 -4.038673e-04 -3.926450e-05 -2.664393e-04 4.734509e-05 -1.986605e-04 3.154043e-05 -1.632602e-04 -1.081045e-05 -7.426998e-05 -2.600569e-05 4.615671e-05 -7.759698e-05 1.328991e-04 -1.657150e-04 2.087783e-04 -2.370408e-04 2.863983e-04 -2.789909e-04 3.343078e-04 -3.172728e-04 3.184494e-04 -3.366237e-04 2.716495e-04 -2.753381e-04 2.281080e-04 -1.508603e-04 1.274593e-04 -2.979646e-05 -4.202710e-05 9.757260e-05 -2.302389e-04 2.443484e-04 -4.091330e-04 3.695132e-04 -5.890591e-04 4.116355e-04 -7.703501e-04 3.029308e-04 -9.764710e-04 -1.115239e-04 -1.335157e-03 -1.149291e-03 -2.149592e-03 -3.249421e-03 -3.868008e-03 -7.185976e-03 -4.033641e-03 -3.910338e-03 -1.901968e-03 -8.594423e-04 
5.878350e-04 2.237592e-03 3.230080e-03 5.545489e-03 5.941801e-03 1.526110e-02 1.386882e-02 2.870524e-04 3.690371e-03 4.637136e-03 3.334477e-03 9.724216e-03 4.857317e-03 2.698688e-04 -3.281499e-04 5.831973e-04 -4.878184e-04 5.170830e-04 -4.999641e-04 2.672654e-04 -2.042354e-04 -6.325573e-03 -7.772212e-03 -2.757793e-03 -3.241730e-03 -1.068960e-03 -1.432342e-03 -4.847631e-04 -5.355650e-04 -2.789214e-04 -6.260837e-05 -2.447966e-04 1.769083e-04 -3.172319e-04 2.819605e-04 -2.945757e-04 4.107998e-04 -2.750565e-04 4.335145e-04 -2.282109e-04 4.364070e-04 -1.429954e-04 4.696326e-04 -1.525158e-05 4.670345e-04 8.608800e-05 4.680032e-04 2.256749e-04 5.598026e-04 4.986642e-04 8.203580e-04 9.241387e-04 1.251789e-03 1.496334e-03 1.861696e-03 2.264061e-03 1.239265e-03 -3.927225e-03 -2.356317e-03 2.819301e-03 -2.602019e-03 -3.406341e-03 3.745033e-03 -9.812579e-06 -4.632192e-03 1.205423e-03 1.357692e-03 -3.733874e-03 2.626735e-05 3.005936e-03 -2.698170e-03 -2.627475e-03 9.823541e-04 9.126148e-04 1.664257e-04 4.688368e-04 1.420513e-05 3.362971e-04 -1.394593e-04 2.961034e-04 -8.780340e-05 3.374119e-04 -1.044369e-04 1.559495e-04 -1.908265e-04 4.223943e-05 -5.114526e-05 6.468215e-05 1.239288e-04 -6.711611e-05 1.765669e-04 -1.989636e-04 3.180201e-04 -2.972982e-04 3.968778e-04 -3.902162e-04 4.623184e-04 -4.127146e-04 4.933289e-04 -4.480023e-04 3.852244e-04 -4.169166e-04 3.375885e-04 -2.228298e-04 2.389700e-04 -6.613236e-05 -4.729880e-06 7.065382e-05 -2.550532e-04 2.822189e-04 -4.473236e-04 4.795679e-04 -6.575830e-04 5.393902e-04 -8.410096e-04 4.863823e-04 -9.421714e-04 1.340265e-04 -1.153125e-03 -8.223664e-04 -2.053026e-03 -2.355993e-03 -1.076321e-02 -1.702845e-02 -6.457282e-03 -5.848485e-03 -2.506538e-03 -1.611246e-03 
1.248999e-03 5.323466e-03 7.923801e-03 1.463249e-02 2.292953e-02 2.125394e-02 1.299446e-02 -6.594552e-04 -2.625687e-05 2.656169e-03 -3.463374e-04 4.900216e-03 1.280400e-03 3.793701e-04 -3.002766e-04 5.807353e-04 -4.631779e-04 4.944281e-04 -5.006060e-04 2.221007e-04 -3.053154e-04 -1.520391e-03 -3.412141e-03 -5.725736e-04 -1.817270e-03 -7.234559e-05 -9.473253e-04 -2.774145e-05 -3.396133e-04 -8.652017e-05 2.832171e-05 -3.462250e-04 1.483946e-04 -5.986827e-04 2.751144e-04 -5.092764e-04 5.443571e-04 -4.995147e-04 4.820427e-04 -4.941788e-04 4.681370e-04 -2.647634e-04 5.962826e-04 -6.584917e-05 4.301695e-04 -1.602549e-04 1.582394e-04 -1.222372e-04 1.627786e-04 9.425633e-05 1.212915e-04 -6.312358e-05 -2.632239e-04 -3.977999e-04 -5.200873e-04 -2.296786e-04 5.482077e-04 5.115533e-04 2.417896e-04 3.198328e-04 -1.850300e-04 -5.256218e-04 1.594337e-04 6.615960e-04 8.657496e-04 3.792006e-04 -5.333834e-05 -2.280142e-04 -2.976945e-04 1.139952e-05 2.316281e-04 3.801496e-04 -2.265599e-04 1.678157e-04 -5.386230e-06 5.068346e-04 -1.831645e-04 2.288564e-04 -5.076294e-04 2.822885e-04 -2.381062e-04 5.699141e-04 -1.414366e-04 3.163289e-04 -3.730807e-04 -1.602136e-05 -1.797199e-04 1.272136e-04 2.799213e-04 3.829611e-05 3.824602e-04 -3.915251e-04 4.107935e-04 -6.090182e-04 7.204881e-04 -5.530028e-04 9.635924e-04 -7.210119e-04 7.493162e-04 -1.012167e-03 5.593562e-04 -7.752078e-04 6.999531e-04 -2.864810e-04 5.112563e-04 -7.482049e-05 -2.546167e-05 1.593105e-04 -5.244790e-04 6.167398e-04 -8.862204e-04 1.100237e-03 -1.275346e-03 1.459948e-03 -1.602596e-03 1.755140e-03 -1.746348e-03 1.849979e-03 -1.727687e-03 1.708216e-03 -1.366555e-03 1.251200e-03 -8.371271e-03 -4.282141e-02 -2.232119e-02 -8.863762e-03 -5.509699e-03 -1.210621e-03 
1.950298e-03 4.109740e-03 1.011178e-02 1.337361e-02 3.051865e-02 -1.897472e-03 -1.095601e-02 3.615839e-03 -5.437136e-03 7.700927e-04 -4.739435e-03 -2.866517e-03 -4.773730e-03 4.781885e-03 -1.276608e-03 2.241945e-03 -1.252656e-03 1.394387e-03 -1.846378e-03 7.505166e-04 -3.404047e-03 3.502254e-03 4.020913e-03 2.089894e-03 2.153482e-03 9.861322e-04 1.446544e-03 4.047856e-04 1.253456e-03 5.699487e-05 1.082558e-03 -4.487097e-04 7.914700e-04 -7.006235e-04 7.671668e-04 -5.784742e-04 8.695610e-04 -5.291741e-04 6.544774e-04 -5.010077e-04 5.791576e-04 -1.167527e-04 6.811228e-04 1.223119e-04 3.786829e-04 -4.285477e-05 -2.502134e-05 5.318020e-05 3.453805e-05 3.336469e-04 -8.887461e-05 -3.683663e-05 -6.416690e-04 -3.475503e-04 -5.980461e-04 -2.580192e-04 -4.763976e-04 1.243379e-03 9.572851e-04 -8.865192e-04 1.215215e-03 1.629600e-03 -7.371738e-04 -4.632399e-04 6.812092e-04 -7.496282e-04 -1.075015e-04 1.437467e-03 5.940770e-04 -6.276157e-04 4.099058e-04 3.592597e-04 -2.779576e-04 2.222593e-04 -7.228073e-05 3.514108e-04 -3.287205e-04 1.733686e-04 -5.820730e-04 2.568708e-04 -3.647855e-04 5.182796e-04 -1.685406e-04 4.441792e-04 -2.762664e-04 1.473679e-05 -1.828693e-04 4.590595e-05 3.594082e-04 8.526439e-05 6.141676e-04 -5.286069e-04 4.477180e-04 -8.346437e-04 9.432472e-04 -6.040351e-04 1.272842e-03 -9.311333e-04 7.537666e-04 -1.335649e-03 6.032600e-04 -8.044029e-04 8.025007e-04 -1.530603e-04 4.289282e-04 1.646279e-04 -2.844698e-04 6.038829e-04 -9.702939e-04 1.228578e-03 -1.556345e-03 1.859302e-03 -2.066235e-03 2.436539e-03 -2.439087e-03 2.764966e-03 -2.628417e-03 2.717571e-03 -2.352826e-03 2.098626e-03 -5.057348e-04 -6.309190e-04 1.164336e-02 -3.601355e-02 -2.249247e-02 -5.559484e-03 -5.006058e-03 -6.603966e-04 
2.073361e-03 1.878637e-03 5.881767e-03 4.058191e-03 1.354213e-02 -1.239571e-02 -1.666481e-02 9.779034e-03 -2.665744e-03 7.945783e-03 -5.516813e-04 1.061845e-02 3.362061e-04 -5.990097e-03 -2.723660e-03 -1.642412e-03 -3.454784e-04 -2.210723e-04 2.694785e-03 1.253762e-03 7.875178e-03 -3.536177e-03 -5.941467e-03 -2.184036e-03 -2.635481e-03 -1.150666e-03 -1.248869e-03 -7.376311e-04 -4.213955e-04 -5.628002e-04 -3.067828e-05 -6.343163e-04 8.599156e-05 -5.854855e-04 2.517852e-04 -4.718499e-04 3.259591e-04 -3.649160e-04 2.871444e-04 -2.657564e-04 2.953264e-04 -2.606447e-06 3.305243e-04 1.514902e-04 1.992442e-04 1.629205e-04 7.320432e-05 3.551180e-04 2.278880e-04 6.600065e-04 3.543641e-04 7.541092e-04 4.382020e-04 1.063058e-03 9.947712e-04 1.886285e-03 8.998550e-04 -2.811561e-03 -2.044658e-03 1.672204e-03 -1.945533e-03 -2.709989e-03 2.597602e-03 6.124516e-04 -2.404443e-03 7.999416e-04 9.900585e-04 -2.925402e-03 -2.174165e-04 1.869566e-03 -1.369085e-03 -1.743927e-03 6.360833e-04 6.467460e-04 1.291236e-04 4.302464e-04 8.009520e-05 4.388426e-04 -3.187926e-05 3.566751e-04 -1.389371e-04 2.936786e-04 -8.265751e-05 3.321591e-04 -2.011363e-05 1.142626e-04 -3.729150e-05 -2.416627e-05 1.903895e-04 4.384131e-06 4.211115e-04 -3.189475e-04 3.226518e-04 -5.144584e-04 6.041932e-04 -4.098948e-04 7.550270e-04 -6.263410e-04 4.337986e-04 -7.835660e-04 3.991483e-04 -4.151174e-04 4.167865e-04 -6.627301e-05 1.083006e-04 2.042357e-04 -3.122406e-04 5.802692e-04 -7.614018e-04 9.759016e-04 -1.216698e-03 1.343840e-03 -1.565673e-03 1.686633e-03 -1.797434e-03 1.722044e-03 -1.930069e-03 1.306720e-03 -1.729142e-03 -6.839553e-05 -7.630264e-04 -4.837208e-03 1.299146e-02 -7.340651e-03 -5.771981e-03 -8.670707e-05 -7.479335e-04 6.304110e-04 
1.105661e-03 6.076921e-04 3.001779e-03 1.102918e-03 4.862842e-03 -3.693040e-03 -4.548542e-03 4.692240e-03 1.266812e-03 5.588405e-03 5.216728e-03 1.133638e-02 1.560304e-02 1.680137e-02 6.544456e-03 5.261680e-03 2.122654e-03 -1.884546e-03 -3.771363e-03 -7.968750e-03 -1.692011e-02 -1.625675e-02 -9.616987e-03 -6.143743e-03 -3.599105e-03 -2.638623e-03 -1.352401e-03 -1.184647e-03 -3.711703e-04 -5.962087e-04 1.347604e-05 -4.123262e-04 1.276070e-04 -3.214874e-04 1.855031e-04 -2.627201e-04 1.955620e-04 -1.915263e-04 1.897517e-04 -1.180425e-04 1.856456e-04 -1.786096e-05 1.631238e-04 3.973589e-05 1.017762e-04 7.031112e-05 5.817577e-05 1.556017e-04 9.318800e-05 2.596157e-04 1.140460e-04 2.724226e-04 2.436806e-05 8.807400e-05 -3.341341e-04 1.208089e-04 1.136170e-03 1.227497e-03 8.449954e-04 1.056818e-03 -2.297236e-05 -9.968164e-04 4.257027e-06 8.444158e-04 4.461370e-04 1.252631e-04 -2.702369e-05 -1.312007e-03 -1.132347e-03 3.660948e-05 2.403254e-04 -1.573102e-04 -3.352761e-04 -5.654211e-04 -5.392048e-04 -1.571397e-04 -1.618194e-04 9.062876e-05 -1.005586e-04 8.749354e-05 -1.573819e-04 4.950889e-05 -1.321388e-04 7.618435e-05 -7.008765e-05 1.712280e-05 -4.824034e-05 -5.215330e-05 5.021470e-05 -5.696549e-05 1.765482e-04 -1.554729e-04 1.932549e-04 -2.371904e-04 2.919175e-04 -2.442392e-04 3.271366e-04 -3.279064e-04 2.267967e-04 -3.509548e-04 2.102391e-04 -1.997218e-04 1.730102e-04 -4.352980e-05 2.937626e-05 1.185451e-04 -1.617839e-04 3.134115e-04 -3.735519e-04 5.113397e-04 -5.826996e-04 6.910891e-04 -7.382833e-04 8.217180e-04 -8.294798e-04 7.746453e-04 -8.322756e-04 4.473052e-04 -6.229354e-04 -4.423184e-04 -1.398484e-04 -3.141018e-03 3.626347e-03 -1.971295e-03 -1.130621e-03 -1.169856e-03 -3.959474e-04 -2.788530e-04 
