# vtk DataFile Version 2.0
Comment goes here
ASCII

DATASET STRUCTURED_POINTS
FIELD FieldData 1
TIME 1 1 double
0.73000000
DIMENSIONS    128   16   1

ORIGIN    0.000   0.000   0.000
SPACING   0.0078125 0.015625   1.000

POINT_DATA   2048
SCALARS uY double
LOOKUP_TABLE default

-8.307384e-08 3.032746e-07 6.111063e-09 3.084791e-07 -1.440887e-07 5.042391e-07 -5.947790e-07 5.390760e-07 -3.727306e-07 4.842288e-07 -1.416060e-07 2.434177e-07 -1.656605e-07 -1.792670e-07 -3.758982e-07 4.905182e-07 -1.812404e-06 2.022670e-06 -3.860318e-06 2.923432e-06 -4.961610e-06 2.394791e-06 -5.208113e-06 2.698793e-06 -4.979337e-06 3.562456e-06 -3.299698e-06 3.908330e-06 -2.166224e-06 1.491350e-06 -2.953108e-06 -3.198143e-06 -4.320814e-06 -7.643906e-06 -4.746440e-06 -1.025070e-05 -4.395414e-06 -1.126780e-05 -4.785870e-06 -1.153534e-05 -6.748351e-06 -1.119381e-05 -1.001368e-05 -9.766886e-06 -1.299280e-05 -6.342671e-06 -1.440560e-05 -1.478477e-06 -1.485008e-05 2.972504e-06 -1.350113e-05 1.249221e-05 7.263225e-06 6.482942e-05 7.899538e-05 1.059314e-04 6.655512e-05 2.873821e-04 2.191536e-04 -6.895098e-05 -1.564651e-05 5.594056e-05 1.431605e-04 2.515719e-04 3.188118e-04 -6.169747e-05 1.631419e-05 1.983451e-04 2.293473e-04 2.396490e-04 4.119252e-04 9.723678e-05 -2.839344e-04 -1.545938e-04 -2.099967e-04 -1.902501e-04 -2.235038e-04 -1.843677e-04 -1.756228e-04 -1.447479e-04 -1.268509e-04 -1.114080e-04 -9.165752e-05 -8.671777e-05 -6.679973e-05 -6.604343e-05 -4.773421e-05 -4.690273e-05 -3.293866e-05 -3.110948e-05 -2.305753e-05 -2.059644e-05 -1.766522e-05 -1.440214e-05 -1.424750e-05 -1.010909e-05 -1.018512e-05 -6.362698e-06 -5.622476e-06 -4.018031e-06 -1.914616e-06 -3.423194e-06 5.533185e-07 -3.859271e-06 2.022030e-06 -4.369985e-06 2.814726e-06 -4.357599e-06 2.938857e-06 -3.734179e-06 2.462285e-06 -2.454300e-06 1.557576e-06 -7.220106e-07 4.473619e-07 1.026452e-06 -9.964246e-07 1.863869e-06 -2.784855e-06 1.780893e-06 -3.697771e-06 1.265306e-06 -3.251347e-06 -1.895409e-07 -1.485765e-06 1.687455e-07 -5.106335e-07 2.899179e-07 
1.551529e-05 1.250205e-03 1.712108e-03 1.435826e-03 -2.684627e-05 -6.152238e-03 2.839080e-03 4.418902e-03 4.076168e-03 8.285024e-03 9.807052e-03 1.766335e-02 2.181673e-02 2.276701e-02 1.157755e-02 5.997843e-03 2.188395e-03 -2.468852e-03 -6.950039e-03 -1.096519e-02 -2.259239e-02 -2.294354e-02 -1.554869e-02 -1.064451e-02 -6.540185e-03 -4.419032e-03 -2.788813e-03 -1.808497e-03 -1.177973e-03 -6.995257e-04 -4.683007e-04 -2.509206e-04 -1.404687e-04 -8.932732e-05 2.686789e-05 -4.842734e-05 1.231637e-04 -5.472999e-05 1.819415e-04 -7.490353e-05 2.168545e-04 -9.245328e-05 2.332134e-04 -1.012416e-04 2.326529e-04 -1.016178e-04 2.138155e-04 -9.801869e-05 1.728808e-04 -1.007657e-04 1.046813e-04 -1.246036e-04 5.329400e-06 -1.795454e-04 -1.055894e-04 1.353312e-06 1.246929e-03 3.359863e-03 4.106813e-03 1.257520e-03 -7.241102e-03 -8.752284e-03 -2.233564e-04 6.795367e-03 7.296163e-03 2.833716e-03 -4.160269e-03 -7.992513e-03 -4.811437e-03 3.197619e-03 8.443348e-03 4.618835e-03 -2.363658e-03 -1.964385e-03 -1.217766e-03 -6.672706e-04 -5.032579e-04 -3.270354e-04 -1.817802e-04 -2.009909e-04 9.248837e-06 -1.745518e-04 1.279706e-04 -1.911592e-04 2.050649e-04 -2.159888e-04 2.547113e-04 -2.291555e-04 2.788605e-04 -2.245042e-04 2.720165e-04 -1.991309e-04 2.298160e-04 -1.469978e-04 1.554183e-04 -6.360276e-05 5.588396e-05 4.918041e-05 -6.393904e-05 1.802511e-04 -1.968142e-04 3.145726e-04 -3.295019e-04 4.357307e-04 -4.438331e-04 5.250530e-04 -5.204993e-04 5.624691e-04 -5.418528e-04 5.281418e-04 -4.951440e-04 4.034578e-04 -3.773211e-04 1.672711e-04 -2.005696e-04 -2.126063e-04 6.635856e-06 -7.984156e-04 2.157056e-04 -1.731128e-03 4.830894e-04 -3.379824e-03 4.736436e-03 3.128812e-03 -1.600875e-03 -9.628055e-04 -1.845167e-03 -2.907138e-04 
-3.232569e-04 3.102185e-03 3.927515e-03 6.668014e-03 8.617391e-04 -2.030256e-02 1.382372e-03 4.926733e-03 -9.564194e-04 5.475518e-03 -3.639816e-04 6.637207e-03 -2.850802e-03 -6.853240e-03 -6.501264e-03 -5.747460e-04 -1.976768e-03 1.789152e-03 1.411222e-03 5.267315e-03 7.230954e-03 4.825068e-04 -2.011129e-03 -1.941547e-03 -1.314839e-03 -8.423371e-04 -7.066533e-04 -2.944777e-04 -3.698296e-04 -4.369024e-05 -1.524638e-04 3.122622e-05 1.126352e-05 1.772911e-05 1.522856e-04 -3.215662e-05 2.730003e-04 -9.358566e-05 3.651675e-04 -1.497067e-04 4.301692e-04 -1.836654e-04 4.697935e-04 -1.900715e-04 4.837674e-04 -1.691857e-04 4.735166e-04 -1.169448e-04 4.488838e-04 -2.510315e-05 4.299328e-04 1.107158e-04 4.331704e-04 3.013697e-04 5.539005e-04 1.005625e-03 1.384729e-03 4.716642e-04 7.670529e-04 1.103188e-03 -3.937073e-03 -5.108373e-03 4.025338e-04 3.463017e-03 2.146277e-03 1.555932e-03 -1.470293e-03 -3.521759e-03 -2.154921e-03 2.921014e-03 4.232202e-03 2.376635e-03 -8.490662e-04 -6.009930e-04 -9.238642e-04 -3.336679e-04 -4.553350e-04 -2.393371e-04 -1.514448e-04 -2.420896e-04 8.109147e-05 -2.941454e-04 2.582455e-04 -3.700197e-04 3.896926e-04 -4.377718e-04 4.857685e-04 -4.695114e-04 5.418336e-04 -4.630437e-04 5.365400e-04 -4.188228e-04 4.565186e-04 -3.222890e-04 3.104546e-04 -1.589866e-04 1.158082e-04 6.894810e-05 -1.221433e-04 3.343513e-04 -3.933913e-04 6.063210e-04 -6.701273e-04 8.535071e-04 -9.145818e-04 1.038185e-03 -1.087768e-03 1.118287e-03 -1.155276e-03 1.052674e-03 -1.090311e-03 8.071262e-04 -8.837263e-04 3.464957e-04 -5.540236e-04 -3.775397e-04 -1.356002e-04 -1.454718e-03 4.232996e-04 -3.104530e-03 1.701728e-03 -6.371154e-03 1.500225e-02 6.871644e-03 -9.292506e-03 -3.918171e-03 -4.783475e-03 -7.379662e-04 
1.090890e-03 9.535038e-03 1.658651e-02 2.789638e-02 2.838736e-02 -1.276773e-02 -3.287867e-03 2.103289e-03 -4.966656e-03 1.757761e-03 -5.631931e-03 -5.216277e-04 -3.986542e-03 5.110723e-03 3.454929e-04 1.472417e-03 1.475374e-04 -2.191328e-04 1.108333e-04 -1.991757e-03 -1.364290e-03 1.967019e-03 2.797898e-03 2.257671e-03 1.210381e-03 1.418047e-03 3.800431e-04 1.090487e-03 5.852164e-05 8.676669e-04 -2.338003e-05 6.450736e-04 3.352192e-05 4.263701e-04 1.746927e-04 2.250895e-04 3.434659e-04 3.943773e-05 4.905423e-04 -1.209081e-04 6.040118e-04 -2.324974e-04 6.795230e-04 -2.936663e-04 7.053646e-04 -3.138244e-04 6.779888e-04 -2.962397e-04 6.133699e-04 -2.304662e-04 5.405197e-04 -1.141778e-04 4.770154e-04 4.772308e-05 4.110649e-04 8.592170e-07 -5.665962e-04 -1.249364e-03 -1.300502e-03 -8.969163e-05 4.494499e-03 5.177985e-03 -2.561969e-04 -3.081663e-03 -3.731575e-03 -8.093645e-04 1.819676e-03 4.969842e-03 1.760146e-03 -1.491869e-03 -5.135814e-03 -2.021376e-03 3.017489e-04 1.513362e-03 4.294014e-04 7.986000e-04 2.786297e-04 3.927217e-04 3.368740e-04 9.521011e-05 4.726283e-04 -1.552342e-04 6.179624e-04 -3.835234e-04 7.436242e-04 -5.654030e-04 8.550181e-04 -6.648033e-04 9.332351e-04 -6.914571e-04 9.233006e-04 -6.611537e-04 7.989828e-04 -5.525001e-04 5.796248e-04 -3.304454e-04 2.970402e-04 4.995825e-06 -4.743668e-05 4.031169e-04 -4.489344e-04 8.163558e-04 -8.636192e-04 1.202599e-03 -1.231973e-03 1.511725e-03 -1.491077e-03 1.687820e-03 -1.584376e-03 1.682163e-03 -1.455242e-03 1.470913e-03 -1.060964e-03 1.045961e-03 -3.881441e-04 4.089623e-04 5.555311e-04 -4.512510e-04 1.830855e-03 -1.680170e-03 3.839893e-03 -4.612306e-03 1.167986e-02 -1.857272e-02 -3.787330e-02 -2.081086e-02 -1.370798e-02 -4.031823e-03 
1.524017e-03 9.670958e-03 1.964303e-02 3.143368e-02 4.361424e-02 1.906829e-02 -1.081976e-03 1.874355e-03 -8.941033e-04 2.873492e-03 3.137439e-04 3.821150e-03 1.450894e-03 -1.564527e-04 8.113941e-05 2.180010e-05 1.159969e-04 -1.424491e-04 1.561121e-04 -2.976590e-04 1.731415e-04 -2.934820e-03 -2.006788e-03 -1.202441e-03 -1.096563e-03 8.570905e-05 -7.617135e-04 5.796606e-04 -6.208778e-04 7.065983e-04 -5.028610e-04 6.489797e-04 -3.538320e-04 5.109724e-04 -1.672676e-04 3.466100e-04 3.020856e-05 1.751447e-04 2.056117e-04 1.576500e-05 3.483223e-04 -1.080653e-04 4.536951e-04 -1.922439e-04 5.101667e-04 -2.448107e-04 5.139275e-04 -2.774393e-04 4.723018e-04 -2.968134e-04 3.899431e-04 -3.229958e-04 2.524631e-04 -3.987926e-04 4.078690e-05 -4.546712e-04 7.880160e-04 1.913162e-03 2.222361e-03 -3.568127e-04 -4.147110e-03 -4.064763e-03 -1.703269e-04 3.841420e-03 3.985590e-03 1.784566e-03 -2.744226e-03 -3.562149e-03 -2.501374e-03 2.314380e-03 4.305526e-03 3.395435e-03 -8.273775e-04 -5.175847e-04 -6.105334e-04 -5.174453e-05 -2.302464e-04 -2.843898e-05 5.336767e-06 -1.050422e-04 2.115782e-04 -2.237411e-04 3.858829e-04 -3.642876e-04 5.267386e-04 -4.917460e-04 6.479833e-04 -5.711020e-04 7.383099e-04 -6.012540e-04 7.568545e-04 -5.910739e-04 6.876906e-04 -5.255267e-04 5.455650e-04 -3.752420e-04 3.516343e-04 -1.390268e-04 1.072142e-04 1.468761e-04 -1.858109e-04 4.487168e-04 -4.967984e-04 7.360704e-04 -7.853288e-04 9.739806e-04 -1.008211e-03 1.123137e-03 -1.128564e-03 1.148840e-03 -1.110222e-03 1.032576e-03 -9.305170e-04 7.654768e-04 -5.967174e-04 3.492657e-04 -1.569270e-04 -1.879814e-04 3.086955e-04 -7.167218e-04 6.758388e-04 -4.413747e-04 -6.254929e-03 -3.762385e-02 -4.078706e-02 -2.668654e-02 -1.535994e-02 -6.505041e-03 
1.010077e-03 4.402725e-03 9.917610e-03 1.331678e-02 2.151042e-02 2.025911e-02 5.336852e-03 3.758036e-03 3.154048e-03 4.434635e-03 4.513002e-03 8.269559e-03 5.411489e-03 -1.276034e-04 7.004008e-05 7.516110e-05 9.367099e-05 -1.169834e-04 1.163609e-04 -2.944361e-04 1.322234e-04 -5.149032e-03 -6.068324e-03 -4.252470e-03 -3.363953e-03 -1.781759e-03 -1.834795e-03 -5.692042e-04 -1.047752e-03 9.429240e-06 -6.174566e-04 2.369605e-04 -3.557147e-04 2.798251e-04 -1.686643e-04 2.332428e-04 -1.873128e-05 1.492092e-04 1.049510e-04 5.977362e-05 2.057591e-04 -1.376470e-05 2.860981e-04 -5.925464e-05 3.479572e-04 -6.946884e-05 4.000637e-04 -3.770441e-05 4.609711e-04 5.242422e-05 5.596535e-04 2.325120e-04 7.406512e-04 5.657315e-04 1.178944e-03 1.574110e-03 1.778257e-03 -1.483431e-03 -6.864360e-04 2.610445e-03 -9.207419e-04 -3.356769e-03 9.820008e-04 1.305555e-03 -1.374825e-03 9.021987e-04 7.292474e-04 -1.418882e-03 -1.169465e-03 2.335276e-03 9.766917e-04 -2.695170e-04 -6.361484e-04 -4.724243e-04 -7.357217e-04 -3.207222e-04 -4.181224e-04 -2.100878e-04 -1.712173e-04 -1.799779e-04 1.718793e-05 -2.044852e-04 1.610364e-04 -2.559806e-04 2.718064e-04 -3.101614e-04 3.566304e-04 -3.489724e-04 4.118011e-04 -3.630829e-04 4.259773e-04 -3.491565e-04 3.952755e-04 -3.019825e-04 3.232122e-04 -2.137218e-04 2.159257e-04 -8.655747e-05 7.935193e-05 6.595908e-05 -7.904887e-05 2.266104e-04 -2.438635e-04 3.761057e-04 -3.962100e-04 4.933931e-04 -5.167280e-04 5.553165e-04 -5.914216e-04 5.379252e-04 -6.151741e-04 4.164710e-04 -6.013121e-04 1.613181e-04 -5.941980e-04 -2.631163e-04 -6.840919e-04 -8.771326e-04 -1.029358e-03 -1.566758e-03 -1.961122e-03 -1.244718e-03 -1.094135e-02 -2.377144e-02 -1.730169e-02 -1.346245e-02 -7.520933e-03 -4.058216e-03 
7.141680e-04 3.021574e-03 5.911932e-03 7.629323e-03 9.694614e-03 9.241278e-03 6.408997e-03 6.691993e-03 5.408481e-03 8.732657e-03 8.809792e-03 1.615804e-02 1.290757e-02 -1.471928e-05 9.644452e-06 -2.988631e-05 3.630709e-05 -4.164070e-05 5.196138e-05 -3.814226e-05 4.120368e-05 -1.019845e-02 -1.307311e-02 -8.754924e-03 -7.228267e-03 -4.407583e-03 -3.885687e-03 -2.108745e-03 -2.094633e-03 -8.972303e-04 -1.132913e-03 -3.064039e-04 -6.067066e-04 -4.975759e-05 -2.995028e-04 3.676422e-05 -1.027059e-04 4.321029e-05 3.512110e-05 2.038440e-05 1.397119e-04 -1.106388e-06 2.259177e-04 -2.450519e-06 3.051028e-04 3.034178e-05 3.925100e-04 1.145040e-04 5.154359e-04 2.823179e-04 7.227339e-04 5.907545e-04 1.086708e-03 1.122283e-03 1.739556e-03 2.082568e-03 1.928085e-03 -6.631089e-04 -4.335104e-04 2.538032e-03 -5.347989e-04 -4.145923e-03 -1.274252e-03 9.169410e-04 4.680606e-04 1.376089e-03 5.359290e-04 -1.825455e-03 -2.585720e-03 5.206948e-04 2.074895e-03 1.208933e-03 -9.207207e-04 -9.155562e-04 -1.061565e-03 -7.339906e-04 -7.196099e-04 -5.221675e-04 -4.027409e-04 -3.741682e-04 -1.600940e-04 -3.043908e-04 1.217396e-05 -2.855310e-04 1.337716e-04 -2.883750e-04 2.185165e-04 -2.921738e-04 2.702427e-04 -2.858167e-04 2.862466e-04 -2.632721e-04 2.656585e-04 -2.185707e-04 2.120872e-04 -1.467433e-04 1.312065e-04 -4.932219e-05 2.808102e-05 6.435954e-05 -9.082840e-05 1.813441e-04 -2.146802e-04 2.867124e-04 -3.303328e-04 3.634293e-04 -4.254848e-04 3.922073e-04 -4.928557e-04 3.516849e-04 -5.346110e-04 2.174171e-04 -5.699714e-04 -4.232158e-05 -6.448579e-04 -4.719452e-04 -8.424135e-04 -1.136145e-03 -1.301024e-03 -2.143096e-03 -2.270433e-03 -3.724851e-03 -5.175584e-03 -9.140340e-03 -7.915093e-03 -7.039482e-03 -4.375366e-03 -2.305675e-03 
3.429793e-04 1.134236e-03 2.402919e-03 3.112665e-03 3.838523e-03 4.234623e-03 2.921688e-03 3.344007e-03 2.743707e-03 4.283968e-03 4.473534e-03 8.326390e-03 6.777948e-03 -6.309172e-06 7.660659e-06 -9.962922e-06 2.163259e-05 -2.536942e-05 2.838639e-05 -3.056940e-05 2.160605e-05 -4.955727e-03 -6.404758e-03 -4.256959e-03 -3.484082e-03 -2.161334e-03 -1.866110e-03 -1.048652e-03 -9.916450e-04 -4.496763e-04 -5.227389e-04 -1.529516e-04 -2.713993e-04 -2.215664e-05 -1.304503e-04 2.341832e-05 -4.399942e-05 2.945571e-05 1.561254e-05 2.206965e-05 6.247268e-05 1.704198e-05 1.050751e-04 2.463487e-05 1.502483e-04 5.257654e-05 2.061983e-04 1.096649e-04 2.868054e-04 2.124835e-04 4.174423e-04 3.889759e-04 6.286650e-04 6.575095e-04 9.421808e-04 1.114483e-03 1.518843e-03 7.655431e-04 3.953131e-04 7.958929e-04 -8.569841e-04 -2.505191e-03 -1.156938e-03 1.152569e-03 1.753157e-03 8.522712e-04 -2.821228e-04 -9.402435e-04 -1.712851e-03 -6.807845e-05 2.544941e-03 2.038468e-03 -5.882791e-04 -1.161986e-03 -1.161528e-03 -9.423831e-04 -8.349956e-04 -6.733074e-04 -5.475500e-04 -4.710632e-04 -3.276391e-04 -3.416299e-04 -1.723072e-04 -2.646568e-04 -6.450553e-05 -2.187114e-04 9.120691e-06 -1.885170e-04 5.615580e-05 -1.642658e-04 8.040118e-05 -1.398346e-04 8.474838e-05 -1.110385e-04 7.228274e-05 -7.520586e-05 4.618972e-05 -3.227737e-05 9.590450e-06 1.502462e-05 -3.407236e-05 6.213829e-05 -8.042572e-05 1.032343e-04 -1.248008e-04 1.313570e-04 -1.634799e-04 1.382411e-04 -1.956702e-04 1.139823e-04 -2.259237e-04 4.636719e-05 -2.675265e-04 -8.011228e-05 -3.464609e-04 -2.849625e-04 -5.062018e-04 -5.945116e-04 -8.188642e-04 -1.064941e-03 -1.419691e-03 -1.880537e-03 -2.606578e-03 -3.892618e-03 -3.068532e-03 -2.995509e-03 -1.676243e-03 -1.057666e-03 
-5.407315e-07 2.456760e-08 -4.432727e-07 2.629925e-08 -3.940260e-07 9.176677e-08 -3.414715e-07 2.368808e-07 -3.541009e-07 3.664562e-07 -4.262324e-07 3.830769e-07 -5.108649e-07 5.113863e-08 3.410720e-08 3.219347e-08 6.052207e-08 4.418060e-08 1.012254e-07 1.062539e-07 1.826575e-07 1.423719e-06 -4.354912e-06 1.652076e-06 -3.950625e-06 1.859450e-06 -3.313821e-06 1.726680e-06 -2.711921e-06 7.952518e-07 -2.374473e-06 -5.744246e-07 -1.822221e-06 -1.245409e-06 -2.670608e-07 8.443415e-08 3.000668e-06 4.610629e-06 8.822039e-06 1.375616e-05 1.874733e-05 2.949836e-05 3.520353e-05 5.412564e-05 6.091862e-05 8.925300e-05 9.749777e-05 1.343125e-04 1.439945e-04 1.861636e-04 1.970067e-04 2.399362e-04 2.500351e-04 2.839482e-04 2.790698e-04 2.923887e-04 2.404729e-04 -1.021382e-05 -3.313239e-05 1.766417e-04 -4.674351e-04 -9.860521e-04 -2.367946e-04 4.780250e-04 5.935864e-04 2.555716e-04 3.647642e-05 -2.504587e-04 -2.560312e-04 4.087559e-04 1.282876e-03 8.739234e-04 -2.322072e-04 -4.965400e-04 -4.998618e-04 -4.464526e-04 -4.205832e-04 -3.688816e-04 -3.267919e-04 -2.799713e-04 -2.357136e-04 -2.019145e-04 -1.630572e-04 -1.416387e-04 -1.104840e-04 -9.767056e-05 -7.427766e-05 -6.625083e-05 -4.997890e-05 -4.416851e-05 -3.409176e-05 -2.914109e-05 -2.379944e-05 -1.923647e-05 -1.672723e-05 -1.271119e-05 -1.122322e-05 -8.403136e-06 -6.665112e-06 -5.804891e-06 -3.078937e-06 -4.523917e-06 -5.118017e-07 -4.042715e-06 1.097242e-06 -3.815235e-06 1.886039e-06 -3.445734e-06 1.969916e-06 -2.762214e-06 1.506816e-06 -1.753801e-06 7.042797e-07 -5.631071e-07 -2.261410e-07 5.349502e-07 -1.131440e-06 1.198717e-06 -1.822449e-06 1.322205e-06 -1.996662e-06 1.011336e-06 -1.615526e-06 4.435437e-07 -1.115217e-06 2.048907e-07 -7.462929e-07 8.236287e-08 
-3.440631e-04 -1.134124e-03 -2.403831e-03 -3.112529e-03 -3.839296e-03 -4.234369e-03 -2.922095e-03 -3.343338e-03 -2.744244e-03 -4.282889e-03 -4.474302e-03 -8.325168e-03 -6.778888e-03 6.390038e-06 -7.560769e-06 9.986484e-06 -2.141990e-05 2.539228e-05 -2.811371e-05 3.073459e-05 -2.131371e-05 4.957728e-03 6.396278e-03 4.259027e-03 3.475720e-03 2.163597e-03 1.858242e-03 1.050196e-03 9.839578e-04 4.485943e-04 5.143291e-04 1.478459e-04 2.620123e-04 1.347050e-05 1.209149e-04 -3.323344e-05 3.585283e-05 -3.642668e-05 -2.017449e-05 -2.065330e-05 -5.977105e-05 2.135571e-07 -8.913679e-05 1.722150e-05 -1.137192e-04 2.063911e-05 -1.447543e-04 -7.978939e-06 -2.078839e-04 -1.049505e-04 -3.504705e-04 -3.283861e-04 -6.384002e-04 -7.551179e-04 -1.175008e-03 -1.411904e-03 -9.314470e-04 1.602286e-03 2.047354e-03 -7.692461e-04 -1.805336e-03 -7.276736e-04 1.909553e-04 1.715305e-03 2.729607e-03 7.772826e-04 -9.003953e-04 -9.310885e-04 4.348529e-05 1.112815e-03 3.040170e-03 2.134097e-03 5.487612e-05 -5.532871e-04 -4.861996e-04 -5.018635e-04 -4.377159e-04 -4.317368e-04 -3.986466e-04 -3.370654e-04 -3.443413e-04 -2.316670e-04 -2.932389e-04 -1.358532e-04 -2.547373e-04 -5.861643e-05 -2.274558e-04 -1.791412e-06 -2.057140e-04 3.503840e-05 -1.838112e-04 5.267645e-05 -1.572534e-04 5.218669e-05 -1.232240e-04 3.538966e-05 -8.088888e-05 5.250770e-06 -3.152971e-05 -3.393666e-05 2.181703e-05 -7.639215e-05 7.506270e-05 -1.149971e-04 1.238781e-04 -1.415452e-04 1.649976e-04 -1.468863e-04 1.979444e-04 -1.207144e-04 2.276656e-04 -5.074212e-05 2.679387e-04 7.832768e-05 3.452364e-04 2.855292e-04 5.033807e-04 5.965330e-04 8.148869e-04 1.067328e-03 1.415618e-03 1.882393e-03 2.603589e-03 3.893343e-03 3.066473e-03 2.995878e-03 1.674814e-03 1.057853e-03 
-7.146154e-04 -3.021538e-03 -5.912385e-03 -7.629291e-03 -9.695203e-03 -9.241238e-03 -6.409296e-03 -6.691430e-03 -5.409031e-03 -8.731616e-03 -8.810694e-03 -1.615706e-02 -1.290893e-02 1.475521e-05 -9.657517e-06 2.982209e-05 -3.624321e-05 4.152871e-05 -5.191700e-05 3.813793e-05 -4.124541e-05 1.020065e-02 1.306379e-02 8.758733e-03 7.219903e-03 4.413738e-03 3.880303e-03 2.116511e-03 2.091477e-03 9.019891e-04 1.129031e-03 3.046267e-04 6.017788e-04 4.269898e-05 2.963878e-04 -4.413607e-05 1.047862e-04 -4.511181e-05 -2.568028e-05 -1.067582e-05 -1.203895e-04 3.021856e-05 -1.917152e-04 6.126142e-05 -2.466806e-04 7.129297e-05 -2.959675e-04 4.302750e-05 -3.647033e-04 -5.704854e-05 -4.984534e-04 -2.810614e-04 -7.555113e-04 -6.884414e-04 -1.224569e-03 -1.413633e-03 -1.432749e-03 9.441849e-04 1.201549e-03 -1.578976e-03 -6.502165e-04 1.512462e-03 7.564293e-04 6.000235e-04 1.348356e-03 -6.955412e-04 -8.033184e-04 7.908427e-04 1.497396e-03 4.985288e-04 1.297182e-03 4.060747e-04 -3.038265e-04 -4.744158e-04 -1.267727e-04 -1.928978e-04 -7.342535e-05 -1.197201e-04 -1.271166e-04 -6.428676e-05 -1.858711e-04 4.715524e-06 -2.378797e-04 7.917205e-05 -2.825801e-04 1.472755e-04 -3.166614e-04 1.992905e-04 -3.345205e-04 2.275900e-04 -3.303446e-04 2.269795e-04 -2.991254e-04 1.946348e-04 -2.384733e-04 1.308048e-04 -1.494105e-04 3.969862e-05 -3.727581e-05 -7.052219e-05 8.886708e-05 -1.871159e-04 2.175324e-04 -2.937649e-04 3.358114e-04 -3.716360e-04 4.320668e-04 -4.003686e-04 4.989727e-04 -3.585249e-04 5.389655e-04 -2.216838e-04 5.718523e-04 4.150407e-05 6.442276e-04 4.746493e-04 8.391779e-04 1.140572e-03 1.295177e-03 2.147341e-03 2.264074e-03 3.727763e-03 5.171719e-03 9.139820e-03 7.913349e-03 7.039456e-03 4.374633e-03 2.305734e-03 
-1.010153e-03 -4.402610e-03 -9.917934e-03 -1.331661e-02 -2.151173e-02 -2.025959e-02 -5.334816e-03 -3.757285e-03 -3.154437e-03 -4.432863e-03 -4.514066e-03 -8.267311e-03 -5.413419e-03 1.275596e-04 -7.018129e-05 -7.537227e-05 -9.324713e-05 1.164341e-04 -1.159204e-04 2.942664e-04 -1.329780e-04 5.149350e-03 6.060321e-03 4.256482e-03 3.355410e-03 1.789708e-03 1.830154e-03 5.804470e-04 1.045937e-03 -2.184437e-06 6.134499e-04 -2.394854e-04 3.485732e-04 -2.911870e-04 1.619828e-04 -2.476940e-04 1.558553e-05 -1.618526e-04 -1.051889e-04 -6.728088e-05 -2.058790e-04 1.431453e-05 -2.886058e-04 7.123551e-05 -3.535911e-04 9.822482e-05 -4.051302e-04 8.600621e-05 -4.608571e-04 1.348744e-05 -5.550862e-04 -1.625640e-04 -7.503806e-04 -5.486341e-04 -1.221373e-03 -1.352494e-03 -1.477178e-03 1.902107e-03 2.202245e-03 -1.515688e-03 -9.737312e-05 9.586650e-04 -1.792295e-03 9.403820e-04 4.348051e-03 -6.434934e-04 -1.389690e-03 1.501953e-03 2.247144e-04 -8.973131e-04 4.287649e-03 2.590664e-03 -1.455818e-03 -1.992947e-03 -1.136424e-03 -9.953855e-04 -5.812669e-04 -5.333104e-04 -3.976016e-04 -2.693049e-04 -3.524153e-04 -8.479713e-05 -3.688939e-04 6.049088e-05 -4.080206e-04 1.771803e-04 -4.468618e-04 2.625817e-04 -4.701170e-04 3.110082e-04 -4.672034e-04 3.181601e-04 -4.295122e-04 2.808602e-04 -3.524566e-04 1.990972e-04 -2.366350e-04 7.818626e-05 -8.910117e-05 -7.120365e-05 7.777432e-05 -2.323964e-04 2.480993e-04 -3.844093e-04 4.030886e-04 -5.036363e-04 5.248206e-04 -5.655791e-04 5.987360e-04 -5.465308e-04 6.200191e-04 -4.218637e-04 6.028610e-04 -1.622529e-04 5.926904e-04 2.671270e-04 6.793624e-04 8.833516e-04 1.020998e-03 1.572572e-03 1.952175e-03 1.248710e-03 1.093852e-02 2.376868e-02 1.730056e-02 1.346203e-02 7.520740e-03 4.058183e-03 
-1.522592e-03 -9.670787e-03 -1.964238e-02 -3.143407e-02 -4.361546e-02 -1.906898e-02 1.084654e-03 -1.873304e-03 8.936262e-04 -2.870935e-03 -3.147196e-04 -3.818905e-03 -1.454035e-03 1.559191e-04 -8.147110e-05 -2.221977e-05 -1.156469e-04 1.415811e-04 -1.560133e-04 2.969407e-04 -1.748289e-04 2.933057e-03 1.993891e-03 1.202246e-03 1.079016e-03 -7.308275e-05 7.615551e-04 -5.478028e-04 6.331986e-04 -6.825024e-04 5.037681e-04 -6.526534e-04 3.412934e-04 -5.354469e-04 1.571766e-04 -3.724767e-04 -2.520781e-05 -1.928554e-04 -1.903079e-04 -2.581622e-05 -3.339571e-04 1.022600e-04 -4.575550e-04 1.800332e-04 -5.511830e-04 2.174295e-04 -6.060128e-04 2.153408e-04 -6.360019e-04 1.633673e-04 -6.624295e-04 4.725196e-05 -7.075048e-04 -1.722272e-04 -8.943627e-04 -7.443377e-04 -4.068272e-04 2.421146e-03 1.660003e-03 -7.671103e-04 8.742283e-04 9.501315e-04 -8.951988e-04 -4.688139e-04 1.099065e-03 -9.821828e-04 -1.314722e-04 4.597245e-05 6.914352e-05 -1.403662e-03 3.641540e-05 -8.220529e-04 -3.716389e-04 -5.843497e-04 9.304790e-06 -2.905415e-04 1.175749e-05 -1.276445e-04 -8.250881e-05 1.675955e-05 -2.290837e-04 1.566250e-04 -3.883838e-04 3.049189e-04 -5.318122e-04 4.472805e-04 -6.469692e-04 5.583874e-04 -7.222592e-04 6.162807e-04 -7.443366e-04 6.095183e-04 -6.966217e-04 5.294680e-04 -5.724079e-04 3.722871e-04 -3.713391e-04 1.456732e-04 -1.071883e-04 -1.368897e-04 1.961653e-04 -4.456222e-04 5.109262e-04 -7.432908e-04 7.991992e-04 -9.879866e-04 1.023087e-03 -1.137950e-03 1.141530e-03 -1.162216e-03 1.118540e-03 -1.041240e-03 9.330455e-04 -7.663702e-04 5.964980e-04 -3.378810e-04 1.531826e-04 2.019804e-04 -3.245848e-04 7.270812e-04 -6.952967e-04 4.532322e-04 6.248940e-03 3.760574e-02 4.078994e-02 2.668728e-02 1.536279e-02 6.505399e-03 
-1.088625e-03 -9.534720e-03 -1.658491e-02 -2.789695e-02 -2.838669e-02 1.276807e-02 3.285147e-03 -2.101859e-03 4.966058e-03 -1.755392e-03 5.632375e-03 5.228328e-04 3.986602e-03 -5.108063e-03 -3.479120e-04 -1.472432e-03 -1.457832e-04 2.166659e-04 -1.069938e-04 1.991761e-03 1.358126e-03 -1.961498e-03 -2.818373e-03 -2.257963e-03 -1.234749e-03 -1.403245e-03 -3.792372e-04 -1.049912e-03 -3.985897e-05 -8.367758e-04 2.683304e-05 -6.498491e-04 -4.746506e-05 -4.555605e-04 -1.836413e-04 -2.518772e-04 -3.283015e-04 -4.992227e-05 -4.549694e-04 1.276928e-04 -5.574244e-04 2.568456e-04 -6.368439e-04 3.307344e-04 -6.752169e-04 3.720086e-04 -6.503992e-04 3.953693e-04 -5.605718e-04 4.116050e-04 -3.981197e-04 4.550242e-04 -1.295697e-04 6.181728e-04 3.979858e-04 1.153268e-03 2.394902e-04 -2.781994e-03 -2.501874e-03 7.155262e-04 -1.171051e-03 -2.088037e-03 1.504344e-03 -7.862320e-04 -1.491964e-03 1.410998e-05 1.034836e-03 -1.789537e-03 5.675267e-04 3.546787e-04 -3.642587e-04 -8.584485e-04 1.143861e-03 2.370414e-04 5.310458e-04 -5.378624e-05 1.835987e-04 -1.184415e-05 -6.087269e-05 1.004173e-04 -2.987973e-04 2.414277e-04 -5.127909e-04 4.061993e-04 -6.848033e-04 5.660202e-04 -8.116794e-04 6.856533e-04 -8.846573e-04 7.347667e-04 -8.865089e-04 6.970168e-04 -7.956953e-04 5.623295e-04 -6.055201e-04 3.276665e-04 -3.168524e-04 4.919342e-06 5.053966e-05 -3.879312e-04 4.626658e-04 -8.097568e-04 8.795930e-04 -1.208815e-03 1.246505e-03 -1.526334e-03 1.506741e-03 -1.703550e-03 1.598468e-03 -1.696994e-03 1.465009e-03 -1.480812e-03 1.065170e-03 -1.047190e-03 3.908464e-04 -3.953766e-04 -5.557919e-04 4.671780e-04 -1.847510e-03 1.690821e-03 -3.862806e-03 4.626730e-03 -1.169414e-02 1.854886e-02 3.787850e-02 2.081292e-02 1.371204e-02 4.032696e-03 
3.241398e-04 -3.101732e-03 -3.926569e-03 -6.667859e-03 -8.604838e-04 2.030387e-02 -1.387022e-03 -4.925197e-03 9.559276e-04 -5.473825e-03 3.648135e-04 -6.635971e-03 2.851941e-03 6.847925e-03 6.504505e-03 5.731613e-04 1.973899e-03 -1.781693e-03 -1.422218e-03 -5.257940e-03 -7.240460e-03 -4.798234e-04 1.996623e-03 1.944645e-03 1.299430e-03 8.518223e-04 7.026067e-04 3.136855e-04 3.736849e-04 5.626515e-05 1.496589e-04 -3.769202e-05 -2.229404e-05 -3.861116e-05 -1.622934e-04 8.696380e-06 -2.740282e-04 7.429139e-05 -3.601830e-04 1.343440e-04 -4.263823e-04 1.698256e-04 -4.788622e-04 1.706205e-04 -5.161365e-04 1.370167e-04 -5.389224e-04 6.007408e-05 -5.648730e-04 -8.486956e-05 -6.288266e-04 -3.373532e-04 -7.969825e-04 -7.911318e-04 -1.263524e-03 -1.623982e-03 -1.110888e-03 2.661942e-03 2.599607e-03 -1.195422e-03 1.195995e-03 1.732938e-03 -1.424972e-03 2.255223e-04 3.167431e-03 -9.947568e-04 -6.956976e-04 1.481809e-03 2.762349e-04 -1.291445e-03 2.191454e-03 1.029018e-03 -1.333824e-03 -1.789057e-03 -7.904118e-04 -8.124858e-04 -3.951371e-04 -3.765613e-04 -3.189741e-04 -1.216947e-04 -3.536036e-04 5.861980e-05 -4.255138e-04 2.043614e-04 -4.972512e-04 3.213294e-04 -5.521979e-04 4.012232e-04 -5.774827e-04 4.306639e-04 -5.582634e-04 3.996767e-04 -4.807729e-04 3.032118e-04 -3.401916e-04 1.417384e-04 -1.376667e-04 -7.586433e-05 1.145246e-04 -3.353811e-04 3.946128e-04 -6.091080e-04 6.752594e-04 -8.610115e-04 9.212980e-04 -1.049109e-03 1.095984e-03 -1.129528e-03 1.163427e-03 -1.062829e-03 1.096807e-03 -8.138550e-04 8.875682e-04 -3.479259e-04 5.562591e-04 3.834437e-04 1.351271e-04 1.462460e-03 -4.320925e-04 3.110207e-03 -1.714412e-03 6.377607e-03 -1.501391e-02 -6.879819e-03 9.292497e-03 3.919265e-03 4.784354e-03 7.386324e-04 
-1.540678e-05 -1.249812e-03 -1.711849e-03 -1.435477e-03 2.704604e-05 6.153199e-03 -2.841257e-03 -4.417900e-03 -4.076925e-03 -8.284122e-03 -9.807269e-03 -1.766279e-02 -2.181684e-02 -2.276896e-02 -1.157381e-02 -5.999000e-03 -2.190740e-03 2.477228e-03 6.937776e-03 1.098071e-02 2.258487e-02 2.294537e-02 1.553960e-02 1.064987e-02 6.531465e-03 4.427911e-03 2.784655e-03 1.819893e-03 1.177374e-03 7.066248e-04 4.666774e-04 2.482809e-04 1.369801e-04 7.820632e-05 -2.896957e-05 3.399195e-05 -1.209497e-04 4.125128e-05 -1.767720e-04 6.359444e-05 -2.132106e-04 8.225577e-05 -2.377313e-04 8.807692e-05 -2.527926e-04 7.605045e-05 -2.630983e-04 3.560559e-05 -2.842874e-04 -5.790322e-05 -3.497909e-04 -2.486974e-04 -5.200776e-04 -6.526625e-04 -1.152062e-03 -2.064588e-03 -8.331133e-04 5.677813e-03 4.375815e-03 -2.585107e-03 7.970328e-05 1.028483e-03 -2.611544e-03 6.183609e-04 3.840802e-03 -9.545666e-04 -1.778813e-03 -8.767922e-05 -7.219198e-04 -1.136615e-03 1.724898e-03 9.420176e-04 -9.268605e-04 -9.301619e-04 -4.364494e-04 -4.186920e-04 -2.491884e-04 -2.208826e-04 -1.993154e-04 -8.425904e-05 -1.997969e-04 1.509629e-05 -2.259798e-04 9.159115e-05 -2.576265e-04 1.511282e-04 -2.821273e-04 1.919203e-04 -2.912488e-04 2.075053e-04 -2.780492e-04 1.918999e-04 -2.369006e-04 1.425744e-04 -1.650133e-04 6.062279e-05 -6.310457e-05 -4.919974e-05 6.252627e-05 -1.788967e-04 2.005766e-04 -3.149742e-04 3.363597e-04 -4.394575e-04 4.522582e-04 -5.315869e-04 5.294733e-04 -5.700556e-04 5.502767e-04 -5.350393e-04 5.019295e-04 -4.078568e-04 3.816970e-04 -1.679158e-04 2.022700e-04 2.158754e-04 -8.325986e-06 8.033878e-04 -2.218010e-04 1.735554e-03 -4.914280e-04 3.382887e-03 -4.744481e-03 -3.129685e-03 1.598109e-03 9.629770e-04 1.844451e-03 2.911067e-04 
