# vtk DataFile Version 2.0
Comment goes here
ASCII

DATASET STRUCTURED_POINTS
FIELD FieldData 1
TIME 1 1 double
0.40000000
DIMENSIONS    128   16   1

ORIGIN    0.000   0.000   0.000
SPACING   0.0078125 0.015625   1.000

POINT_DATA   2048
SCALARS uY double
LOOKUP_TABLE default

7.334665e-07 9.913379e-08 6.698210e-07 -8.864134e-08 8.172960e-07 -5.050400e-07 1.411046e-06 -1.346241e-06 1.247075e-07 -2.150450e-06 -8.451861e-07 -2.476431e-06 -1.699327e-06 -2.741006e-06 -2.574145e-06 -2.766823e-06 -1.044118e-06 -3.068296e-06 2.130024e-06 -3.410875e-06 4.933100e-06 -2.210217e-06 7.601096e-06 4.472347e-07 1.202215e-05 -9.574905e-08 7.020334e-06 -1.141326e-05 -6.096263e-06 -2.106501e-05 -1.132214e-05 -1.837890e-05 -9.055648e-06 -1.239093e-05 -1.083164e-05 -1.184281e-05 -1.720379e-05 -1.037506e-05 -1.824830e-05 -3.265431e-06 -1.652128e-05 -1.498723e-06 -2.215997e-05 -7.246372e-06 -2.292512e-05 3.076839e-06 1.022010e-05 5.425096e-05 8.862732e-05 1.393298e-04 1.852747e-04 2.142830e-04 2.428086e-04 2.285082e-04 2.563780e-04 2.417336e-04 1.176484e-04 -2.731067e-04 -4.634585e-04 -2.904452e-04 1.501892e-04 2.803629e-04 -2.022489e-04 -7.785020e-04 -1.054618e-03 -7.577027e-04 -3.637754e-04 -1.726715e-05 -1.014303e-04 -4.852974e-04 -7.876832e-04 -3.587627e-04 2.707076e-04 4.387859e-04 4.550877e-04 4.607895e-04 4.632084e-04 4.240453e-04 3.679550e-04 2.931598e-04 2.231283e-04 1.552451e-04 1.056720e-04 5.983339e-05 3.793235e-05 1.190674e-05 1.411113e-05 4.534094e-10 1.525057e-05 1.445732e-06 1.839166e-05 1.309762e-06 1.786915e-05 1.453562e-06 1.647060e-05 5.873134e-07 7.961428e-06 -8.526295e-06 -8.934673e-06 -1.977553e-05 -2.049639e-05 -1.843517e-05 -1.674843e-05 -5.474294e-06 -7.152974e-06 4.392658e-06 -3.724608e-06 6.727373e-06 -1.401475e-06 1.096961e-05 6.354970e-06 1.604595e-05 1.025594e-05 9.893663e-06 1.868906e-06 -4.914308e-06 -7.983960e-06 -1.382927e-05 -8.539077e-06 -1.224903e-05 -3.116915e-06 -6.357890e-06 8.012971e-07 -2.074913e-06 8.801940e-07 -5.340335e-07 8.569450e-07 5.173779e-08 
9.833844e-04 -8.508622e-05 1.917889e-03 3.589216e-04 4.840112e-03 2.672085e-04 -5.738845e-03 2.048802e-03 -1.285260e-03 2.780239e-04 -9.974691e-04 4.127699e-04 2.382653e-03 2.913531e-03 -5.757673e-04 1.404742e-03 4.791164e-04 -6.514136e-04 2.088038e-04 -1.425655e-03 -3.220471e-03 -2.117635e-03 -6.971900e-06 4.172523e-04 4.746885e-04 1.245710e-04 4.255660e-04 -5.398158e-05 3.896509e-04 -1.622925e-04 3.529397e-04 -2.085993e-04 3.089584e-04 -2.079981e-04 2.513854e-04 -1.749449e-04 1.804331e-04 -1.150177e-04 1.124464e-04 -2.940169e-05 4.870048e-05 4.836777e-05 -2.451526e-05 1.100876e-04 -7.618814e-05 1.810453e-04 -7.467801e-05 2.673699e-04 -3.040927e-05 3.271490e-04 -7.589418e-06 2.723423e-04 -1.158714e-04 -3.239126e-05 -5.331924e-04 -8.528570e-04 -1.933976e-03 -3.601704e-03 -3.793304e-03 -7.253859e-04 6.036599e-03 8.457414e-03 2.221043e-03 -6.534545e-03 -8.265428e-03 -3.096786e-03 3.591272e-03 7.453479e-03 5.777778e-03 -2.667912e-03 -9.449376e-03 -5.744492e-03 1.690006e-03 2.781721e-03 2.125555e-03 1.571722e-03 1.045560e-03 9.473359e-04 5.001242e-04 6.214304e-04 1.691153e-04 4.225660e-04 -2.574079e-05 2.903034e-04 -1.161763e-04 1.973309e-04 -1.198793e-04 1.263840e-04 -5.980457e-05 5.343393e-05 2.875457e-05 -3.868940e-05 1.221227e-04 -1.477662e-04 2.118534e-04 -2.528743e-04 2.913112e-04 -3.405054e-04 3.418661e-04 -3.987224e-04 3.553457e-04 -4.000689e-04 3.340755e-04 -3.299378e-04 2.643349e-04 -1.977727e-04 1.258208e-04 -2.164451e-05 -8.139367e-05 1.939786e-04 -3.287245e-04 4.378421e-04 -5.918319e-04 6.570881e-04 -8.534819e-04 7.777489e-04 -1.054159e-03 7.064312e-04 -1.073036e-03 2.738755e-04 -6.507723e-04 -8.709202e-04 2.519864e-03 -3.222369e-03 -5.377745e-04 -7.186877e-04 4.164793e-04 -1.121178e-04 
1.610056e-03 -3.348834e-04 3.011553e-03 6.065310e-05 1.282595e-02 3.628673e-04 -1.637233e-02 6.839471e-03 -2.376737e-03 4.004050e-03 -8.862622e-04 6.384524e-03 2.221955e-03 -1.946420e-03 1.290881e-03 -1.283103e-03 9.230587e-04 -1.224802e-03 1.894765e-03 -1.894901e-03 3.602167e-03 -3.316833e-03 -4.486431e-03 -1.096540e-03 -1.959645e-03 -7.641906e-04 -9.022883e-04 -7.017904e-04 -3.057010e-04 -6.785909e-04 3.685019e-05 -6.260278e-04 2.009894e-04 -5.455774e-04 2.272775e-04 -4.477887e-04 1.608908e-04 -3.138629e-04 7.611818e-05 -1.275598e-04 -2.423600e-05 1.110859e-05 -1.954767e-04 7.357771e-05 -3.654846e-04 1.277896e-04 -4.549580e-04 1.832449e-04 -5.039287e-04 1.392284e-04 -6.173011e-04 -8.502671e-05 -8.251738e-04 -5.000837e-04 -1.138837e-03 -9.683907e-04 -6.609272e-04 -3.692815e-05 3.052564e-04 -5.187729e-04 -1.602104e-03 9.135316e-05 2.388835e-03 -9.995282e-05 -4.443274e-05 9.047074e-04 -4.977271e-04 -2.001255e-03 8.502148e-04 3.322684e-04 -9.912869e-04 4.358864e-05 1.689158e-03 1.156997e-03 9.880699e-04 6.862681e-04 3.150416e-04 5.089380e-04 -1.917567e-05 4.761031e-04 -2.153699e-04 4.514359e-04 -3.397761e-04 3.914142e-04 -3.871244e-04 3.061051e-04 -3.307155e-04 2.215820e-04 -1.703473e-04 1.118016e-04 2.659806e-05 -6.611318e-05 2.099310e-04 -2.933084e-04 3.927456e-04 -5.016856e-04 5.718059e-04 -6.723580e-04 6.892413e-04 -8.000041e-04 7.210071e-04 -8.201129e-04 6.873478e-04 -6.857611e-04 5.662926e-04 -4.238535e-04 2.896147e-04 -9.360682e-05 -1.502585e-04 3.175660e-04 -6.688904e-04 8.230853e-04 -1.214594e-03 1.310733e-03 -1.798136e-03 1.650868e-03 -2.318559e-03 1.753382e-03 -2.518258e-03 1.440148e-03 -1.719436e-03 -4.337445e-05 7.935874e-03 -1.028100e-02 -1.116045e-03 2.142613e-03 1.399939e-03 7.741293e-04 
1.528255e-03 -1.476879e-03 -1.814366e-04 -3.508066e-03 1.275003e-02 4.676117e-03 -8.939644e-03 2.335750e-03 -2.236784e-03 -1.140265e-04 -1.165456e-03 -2.430819e-03 -2.308118e-03 1.719608e-03 -1.541507e-03 1.336272e-03 -1.381108e-03 1.519711e-03 -1.932865e-03 2.011469e-03 -2.561789e-03 2.409090e-03 2.427529e-03 6.914079e-04 1.396443e-03 1.147890e-04 1.222728e-03 -3.416184e-04 1.096258e-03 -6.664819e-04 1.045445e-03 -7.875707e-04 9.948492e-04 -7.864335e-04 8.483300e-04 -7.256306e-04 6.449098e-04 -5.414304e-04 4.852786e-04 -2.384353e-04 3.142015e-04 -6.985838e-06 2.748016e-05 1.014574e-04 -2.603650e-04 2.363742e-04 -3.541382e-04 4.605499e-04 -3.091797e-04 5.964280e-04 -2.901476e-04 5.846102e-04 -2.004363e-04 6.328419e-04 1.422559e-04 8.425023e-04 6.286437e-04 7.710680e-04 4.779392e-04 -1.310134e-04 -7.661068e-04 -2.410732e-03 -1.039896e-03 8.969936e-04 2.028011e-03 -2.944684e-04 -2.423715e-04 -1.606890e-03 -1.466344e-03 -1.146688e-04 2.786765e-03 1.244689e-03 -3.404806e-04 -1.078867e-03 -8.319445e-04 -4.508030e-04 -6.762046e-04 6.199180e-05 -5.915545e-04 4.260126e-04 -5.931670e-04 5.745278e-04 -6.709597e-04 5.558162e-04 -7.108274e-04 4.571648e-04 -6.046089e-04 3.737092e-04 -3.246128e-04 2.544659e-04 -5.257542e-06 -1.879511e-05 2.557778e-04 -3.816517e-04 5.387343e-04 -7.043644e-04 8.337955e-04 -9.814912e-04 1.033679e-03 -1.214433e-03 1.108564e-03 -1.292263e-03 1.112718e-03 -1.111132e-03 1.022853e-03 -7.397916e-04 6.727841e-04 -3.063768e-04 5.591086e-05 2.689857e-04 -6.457003e-04 1.066046e-03 -1.353477e-03 1.912815e-03 -2.131612e-03 2.662837e-03 -2.836961e-03 3.290739e-03 -3.152808e-03 3.523159e-03 -2.649173e-03 1.729253e-03 3.408562e-03 -2.677374e-02 2.039158e-04 8.126773e-03 4.107918e-03 2.631925e-03 
-8.271680e-04 -2.215577e-03 -5.725969e-03 -5.041751e-03 -1.481692e-03 1.046235e-02 1.316624e-02 -1.786707e-03 6.519243e-04 1.148677e-03 -4.047845e-04 2.443944e-03 4.465579e-05 4.705725e-04 -3.602636e-04 5.664752e-04 -5.446953e-04 5.791699e-04 -5.883108e-04 4.296268e-04 -3.557893e-04 -9.277233e-05 -2.583032e-03 1.790390e-04 -1.178140e-03 -5.358293e-05 -4.698657e-04 -3.658159e-04 -2.622892e-05 -6.224433e-04 2.813484e-04 -7.449811e-04 4.825567e-04 -7.791708e-04 5.304667e-04 -7.641560e-04 4.915251e-04 -6.368692e-04 4.393627e-04 -4.328159e-04 3.283970e-04 -2.681411e-04 1.242682e-04 -1.789042e-04 -1.065775e-04 -7.487590e-05 -2.135750e-04 9.287935e-05 -2.292211e-04 1.861956e-04 -2.857671e-04 1.387476e-04 -3.491648e-04 4.784674e-05 -4.193795e-04 -2.398396e-04 -1.025892e-03 -1.021451e-03 -9.713093e-04 2.338763e-04 2.457808e-03 2.959330e-03 1.063646e-03 -1.950822e-03 -1.926652e-03 -1.166607e-03 1.575485e-03 2.188684e-03 2.329041e-03 -9.545861e-04 -2.902868e-03 -2.421247e-03 -3.764200e-05 8.334268e-04 3.688408e-04 5.218143e-04 -4.805323e-05 4.805891e-04 -2.381052e-04 5.558067e-04 -3.661029e-04 5.635447e-04 -4.976258e-04 5.008372e-04 -5.673726e-04 4.095056e-04 -5.082619e-04 3.447099e-04 -3.115028e-04 2.577589e-04 -7.926461e-05 4.863286e-05 1.146354e-04 -2.232432e-04 3.386624e-04 -4.745703e-04 5.712631e-04 -7.067529e-04 7.433248e-04 -9.076597e-04 8.394255e-04 -1.005244e-03 8.885351e-04 -9.219384e-04 8.744616e-04 -7.103342e-04 6.674211e-04 -4.592798e-04 2.687911e-04 -1.001268e-04 -1.973588e-04 4.158640e-04 -6.898163e-04 9.637332e-04 -1.255096e-03 1.440107e-03 -1.807524e-03 1.816578e-03 -2.160810e-03 1.975207e-03 -2.122275e-03 1.814831e-03 -5.180365e-03 -1.730556e-02 5.663118e-03 7.532869e-03 3.669852e-03 1.911734e-03 
-6.496803e-04 -1.592999e-03 -4.050830e-03 -3.896064e-03 -7.113694e-03 4.359486e-03 1.228211e-02 -1.588238e-03 1.007855e-03 9.459198e-04 -5.350636e-04 4.663217e-03 2.081546e-03 3.490515e-04 -3.859037e-04 5.360562e-04 -5.556837e-04 5.904979e-04 -5.696108e-04 4.561518e-04 -2.648697e-04 -2.123564e-03 -3.235516e-03 -5.601076e-05 -1.207790e-03 -1.687778e-04 -4.068805e-04 -2.477950e-04 6.606081e-05 -3.375356e-04 3.159219e-04 -4.073353e-04 4.374547e-04 -4.429743e-04 4.623642e-04 -4.408809e-04 4.353761e-04 -3.841699e-04 3.781214e-04 -3.014475e-04 2.857340e-04 -2.125182e-04 1.771844e-04 -1.301045e-04 6.539109e-05 -5.229694e-05 -1.742264e-05 1.465335e-05 -9.244204e-05 1.610723e-06 -2.413457e-04 -1.838205e-04 -5.538094e-04 -6.277964e-04 -1.082923e-03 -9.676144e-04 -5.053252e-04 5.035626e-04 2.805315e-04 -1.431586e-03 -3.532488e-03 -9.766957e-04 1.897817e-03 1.657476e-04 4.193066e-04 7.665930e-04 -1.426388e-03 -3.118635e-03 -1.468237e-04 2.844670e-05 1.922574e-04 1.750285e-03 2.133335e-03 1.866599e-03 1.149985e-03 1.004837e-03 4.789008e-04 6.400389e-04 1.077161e-04 4.834289e-04 -9.638737e-05 4.010612e-04 -2.158012e-04 3.370467e-04 -2.663118e-04 2.752599e-04 -2.461085e-04 2.140822e-04 -1.652911e-04 1.360994e-04 -5.409120e-05 1.720850e-05 6.259893e-05 -1.221398e-04 1.904552e-04 -2.621669e-04 3.105367e-04 -3.919858e-04 4.058111e-04 -4.896176e-04 4.678680e-04 -5.338793e-04 4.889120e-04 -5.039457e-04 4.571910e-04 -4.115604e-04 3.410642e-04 -2.768615e-04 1.459775e-04 -9.652885e-05 -9.963258e-05 1.093006e-04 -3.797405e-04 2.790118e-04 -6.780451e-04 3.394211e-04 -9.406159e-04 2.262978e-04 -1.035218e-03 -3.175778e-05 -6.891285e-04 1.980621e-04 -3.499431e-03 -1.629286e-03 5.174874e-03 2.267992e-03 2.143553e-03 3.736571e-04 
-2.389266e-04 -4.770214e-04 -1.095493e-03 -7.839353e-04 -1.072864e-03 5.786023e-04 2.083881e-03 1.732837e-04 1.598166e-05 3.270028e-04 -9.296528e-04 3.316670e-03 4.925678e-03 2.199433e-04 -6.338572e-05 2.123795e-04 -1.615280e-04 1.755398e-04 -2.021095e-04 7.863411e-05 -1.969984e-04 -2.314603e-03 -1.571624e-03 7.835360e-04 -9.022320e-04 5.446586e-05 -6.285703e-04 -1.628582e-04 -2.871714e-04 -2.584091e-04 -4.299945e-05 -3.096138e-04 1.063759e-04 -3.300816e-04 1.767072e-04 -3.221542e-04 1.930820e-04 -2.821726e-04 1.757746e-04 -2.206220e-04 1.307361e-04 -1.561203e-04 6.524714e-05 -9.797221e-05 -3.733906e-06 -4.400394e-05 -6.060696e-05 -9.881444e-06 -1.337962e-04 -6.076146e-05 -3.011239e-04 -2.781889e-04 -6.160079e-04 -6.565560e-04 -9.867473e-04 -8.854576e-04 -6.506480e-04 -9.230060e-05 -6.838237e-04 -7.832035e-04 1.524159e-03 2.637204e-03 5.599640e-04 -1.230348e-03 -9.675977e-04 -9.502840e-04 1.019828e-03 2.314397e-03 9.691758e-04 -1.809257e-03 -1.939224e-03 -4.514034e-04 5.885736e-04 8.300666e-04 6.497406e-04 6.444900e-04 3.145760e-04 4.502426e-04 6.473900e-05 3.437021e-04 -7.607866e-05 2.915800e-04 -1.508180e-04 2.490242e-04 -1.795212e-04 2.023709e-04 -1.620870e-04 1.513826e-04 -1.034619e-04 8.745744e-05 -2.240310e-05 -1.462545e-07 6.472648e-05 -1.030029e-04 1.550266e-04 -2.054894e-04 2.391933e-04 -2.966616e-04 3.037920e-04 -3.634590e-04 3.407294e-04 -3.887258e-04 3.454688e-04 -3.603177e-04 3.075713e-04 -2.845383e-04 2.093812e-04 -1.747534e-04 5.116073e-05 -3.522039e-05 -1.497266e-04 1.190814e-04 -3.795073e-04 2.464916e-04 -6.244671e-04 2.983360e-04 -8.382725e-04 2.388553e-04 -9.184363e-04 4.707304e-05 -7.112754e-04 -2.273446e-04 -9.030183e-06 -6.018867e-04 1.590286e-03 6.275496e-04 8.219287e-04 1.965389e-04 
-1.920938e-04 -3.085292e-04 -6.517492e-04 -3.983779e-04 -5.915304e-04 1.535085e-04 8.885881e-04 -1.256530e-04 -4.755068e-06 5.115963e-05 -5.925296e-04 1.755243e-03 2.405118e-03 1.085601e-04 -6.210190e-05 1.335585e-04 -1.203270e-04 1.284393e-04 -1.299511e-04 7.187386e-05 -9.636098e-05 -9.141877e-04 -4.540559e-04 5.027402e-04 -3.819228e-04 6.928207e-07 -2.905682e-04 -1.089674e-04 -1.127686e-04 -1.338589e-04 1.436055e-05 -1.427547e-04 8.566549e-05 -1.459469e-04 1.143587e-04 -1.417813e-04 1.158827e-04 -1.274801e-04 1.009953e-04 -1.055637e-04 7.570006e-05 -7.970313e-05 4.634395e-05 -5.248431e-05 1.882959e-05 -2.625499e-05 -5.438193e-06 -1.403657e-05 -4.765237e-05 -5.628161e-05 -1.578869e-04 -2.008880e-04 -3.525064e-04 -3.926507e-04 -4.870263e-04 -3.736817e-04 -1.369037e-04 2.786477e-04 2.349761e-04 3.866186e-04 -2.954626e-04 -7.972960e-04 -2.428270e-04 -4.433722e-05 2.236411e-04 3.298635e-04 7.440143e-05 -1.065006e-03 -9.250076e-04 -4.465902e-04 2.673834e-05 3.100767e-04 3.982876e-04 6.902771e-04 6.297455e-04 6.007202e-04 3.826969e-04 3.827677e-04 1.664226e-04 2.472548e-04 4.792972e-05 1.802712e-04 -1.155680e-05 1.388308e-04 -3.933419e-05 1.047691e-04 -4.328554e-05 7.315361e-05 -2.801829e-05 3.990443e-05 -7.601621e-07 1.328791e-06 3.167843e-05 -4.079766e-05 6.572779e-05 -8.244905e-05 9.669816e-05 -1.193464e-04 1.203575e-04 -1.455683e-04 1.341583e-04 -1.553091e-04 1.353344e-04 -1.456172e-04 1.196271e-04 -1.188313e-04 8.236420e-05 -7.957371e-05 2.397499e-05 -3.276335e-05 -5.116466e-05 1.184604e-05 -1.378444e-04 3.895399e-05 -2.270708e-04 3.599760e-05 -2.975811e-04 7.436289e-06 -3.109340e-04 -1.335460e-05 -2.412164e-04 1.480270e-05 -1.331128e-04 2.883165e-05 5.713532e-04 2.032922e-04 3.248709e-04 -1.340344e-05 
2.044486e-08 -8.189422e-07 -3.570744e-07 -9.779343e-07 -6.812606e-07 -1.219847e-06 -9.251574e-07 -1.427841e-06 -8.420880e-07 -1.406930e-06 -3.992120e-07 -1.142968e-06 6.436883e-08 6.952675e-08 2.432732e-07 3.125814e-07 5.732504e-07 6.289475e-07 9.718677e-07 9.099772e-07 1.151455e-06 -1.721512e-06 1.072712e-05 -2.743011e-06 9.529760e-06 -4.720590e-06 6.631365e-06 -8.283937e-06 2.753405e-06 -1.071525e-05 3.478932e-07 -1.005151e-05 -3.092100e-07 -7.149167e-06 -6.059946e-07 -3.291882e-06 -5.491620e-07 2.150512e-06 1.514158e-06 9.845176e-06 6.002679e-06 1.878796e-05 1.267195e-05 2.943154e-05 2.427023e-05 4.545940e-05 4.343116e-05 6.491787e-05 5.960061e-05 6.739660e-05 4.126718e-05 1.519197e-05 -4.963734e-05 -1.149046e-04 -2.069182e-04 -2.697687e-04 -3.306833e-04 -4.145430e-04 -4.386856e-04 -1.382899e-04 6.242614e-04 9.504937e-04 1.445355e-04 -5.977546e-04 -6.999291e-04 -4.565045e-04 3.165709e-04 9.747476e-04 4.949368e-04 -4.809749e-04 -7.639633e-04 -4.904947e-04 -2.786428e-05 2.174303e-04 1.928834e-04 1.555256e-04 1.142840e-04 1.047366e-04 8.510743e-05 8.358524e-05 7.029883e-05 6.514170e-05 5.477798e-05 4.470698e-05 3.977267e-05 2.705317e-05 2.949641e-05 1.581120e-05 2.451131e-05 9.833239e-06 2.142609e-05 5.772601e-06 1.756450e-05 2.653245e-06 1.288894e-05 2.636444e-08 6.538004e-06 -3.509860e-06 -1.222378e-06 -6.391112e-06 -6.539998e-06 -5.336296e-06 -7.055221e-06 -1.060602e-06 -5.022189e-06 2.870822e-06 -3.034780e-06 5.154937e-06 -8.815758e-07 6.616818e-06 1.661131e-06 6.767978e-06 2.811432e-06 3.929558e-06 1.124392e-06 -1.050851e-06 -1.214190e-06 -4.357798e-06 -1.167265e-06 -4.193175e-06 3.858325e-07 -2.719596e-06 1.070772e-06 -1.528810e-06 8.879468e-07 -9.704669e-07 4.542303e-07 -7.906390e-07 
1.922337e-04 3.066562e-04 6.511494e-04 3.960960e-04 5.902592e-04 -1.563625e-04 -8.905702e-04 1.223606e-04 3.487136e-06 -5.428929e-05 5.928307e-04 -1.757664e-03 -2.403352e-03 -1.089998e-04 6.197278e-05 -1.336605e-04 1.206527e-04 -1.278480e-04 1.312472e-04 -7.047502e-05 9.865459e-05 9.073325e-04 4.663832e-04 -5.120201e-04 3.930710e-04 -1.481407e-05 2.961975e-04 8.692604e-05 1.110694e-04 1.057888e-04 -2.206129e-05 1.127278e-04 -9.800674e-05 1.166731e-04 -1.321428e-04 1.135391e-04 -1.404687e-04 1.006871e-04 -1.316243e-04 8.115099e-05 -1.109460e-04 5.676123e-05 -8.522782e-05 3.027706e-05 -5.534797e-05 1.216613e-05 -1.456496e-05 1.557720e-05 4.249767e-05 4.710476e-05 1.122428e-04 9.156093e-05 1.469718e-04 4.945048e-05 -4.490813e-05 -4.180323e-04 -4.919096e-04 7.219645e-04 6.118401e-04 -8.057171e-04 2.153646e-04 1.225128e-03 1.682214e-05 1.370978e-04 4.330390e-04 -5.344681e-04 -5.022854e-04 5.637372e-04 4.726201e-04 -7.617159e-05 -1.044541e-04 -3.861125e-04 -5.797477e-04 -2.527363e-04 -1.817076e-04 -2.261125e-04 -1.125065e-04 -1.461270e-04 2.019560e-05 -7.627178e-05 9.160883e-05 -6.003416e-05 1.110624e-04 -6.415812e-05 1.067664e-04 -6.521780e-05 9.064328e-05 -5.425777e-05 6.713083e-05 -2.992335e-05 3.607321e-05 3.056624e-06 -2.695656e-06 4.077972e-05 -4.438915e-05 7.956948e-05 -8.582522e-05 1.114001e-04 -1.235626e-04 1.329833e-04 -1.468516e-04 1.456489e-04 -1.483403e-04 1.444063e-04 -1.289639e-04 1.244819e-04 -8.839233e-05 8.912003e-05 -2.602947e-05 4.473977e-05 5.374633e-05 2.438029e-07 1.428787e-04 -3.187934e-05 2.292758e-04 -3.833662e-05 2.952622e-04 -1.586275e-05 3.094336e-04 6.298244e-06 2.432831e-04 -1.914315e-05 1.357113e-04 -3.134494e-05 -5.694121e-04 -2.050866e-04 -3.238624e-04 1.173043e-05 
2.390910e-04 4.761600e-04 1.094745e-03 7.824406e-04 1.071296e-03 -5.810750e-04 -2.086928e-03 -1.769057e-04 -1.895078e-05 -3.307214e-04 9.285841e-04 -3.318901e-03 -4.924861e-03 -2.201854e-04 6.349518e-05 -2.120471e-04 1.624000e-04 -1.741406e-04 2.049065e-04 -7.520244e-05 2.030910e-04 2.312107e-03 1.594217e-03 -7.816267e-04 9.303965e-04 -5.644091e-05 6.463325e-04 1.421812e-04 2.872517e-04 2.252701e-04 3.766420e-05 2.818611e-04 -1.067575e-04 3.140410e-04 -1.768065e-04 3.122587e-04 -1.985912e-04 2.817411e-04 -1.774266e-04 2.410995e-04 -1.210384e-04 1.934749e-04 -5.404312e-05 1.374383e-04 1.614631e-05 9.976032e-05 1.112425e-04 1.189275e-04 2.488966e-04 2.147370e-04 4.333860e-04 3.855385e-04 6.293659e-04 5.395362e-04 6.665837e-04 3.751607e-04 -4.705071e-05 -7.489208e-04 -7.634419e-04 -6.854097e-04 -6.971834e-04 1.218811e-04 3.995532e-04 -1.286011e-04 -8.322433e-04 -3.840720e-04 -4.299630e-04 -3.320272e-07 4.622896e-04 5.696129e-04 -2.707344e-04 -4.396887e-04 -1.932198e-04 -1.073144e-04 -8.415165e-05 -1.928480e-04 4.107275e-05 -1.171320e-04 2.059317e-04 -9.555909e-05 2.656009e-04 -1.334124e-04 2.664463e-04 -1.662716e-04 2.443587e-04 -1.691073e-04 2.050929e-04 -1.356646e-04 1.496666e-04 -7.120745e-05 7.201113e-05 1.099644e-05 -2.380252e-05 1.084294e-04 -1.208253e-04 2.106101e-04 -2.192775e-04 2.880401e-04 -3.151423e-04 3.356562e-04 -3.724281e-04 3.656301e-04 -3.694212e-04 3.598391e-04 -3.172178e-04 2.970537e-04 -2.159453e-04 1.885001e-04 -5.435445e-05 5.380026e-05 1.587005e-04 -9.352627e-05 3.965126e-04 -2.300735e-04 6.292494e-04 -3.072936e-04 8.260323e-04 -2.618349e-04 9.096295e-04 -6.114228e-05 7.151644e-04 2.228453e-04 1.464341e-05 6.015638e-04 -1.587159e-03 -6.275298e-04 -8.205485e-04 -1.968607e-04 
6.501592e-04 1.592629e-03 4.050464e-03 3.894844e-03 7.112906e-03 -4.362594e-03 -1.228957e-02 1.582821e-03 -1.012228e-03 -9.511141e-04 5.357235e-04 -4.664272e-03 -2.074978e-03 -3.502828e-04 3.841844e-04 -5.375683e-04 5.539467e-04 -5.903636e-04 5.707288e-04 -4.533186e-04 2.734306e-04 2.121317e-03 3.249717e-03 6.536229e-05 1.240495e-03 1.691265e-04 4.210773e-04 2.192997e-04 -7.176726e-05 2.949921e-04 -3.265392e-04 3.698629e-04 -4.422389e-04 4.180326e-04 -4.680344e-04 4.191328e-04 -4.531127e-04 3.656277e-04 -4.000913e-04 2.977505e-04 -3.051496e-04 2.143168e-04 -2.183948e-04 9.515930e-05 -1.560793e-04 -1.977971e-05 -7.853204e-05 -7.604838e-05 2.301916e-05 -7.341562e-05 1.324277e-04 -1.968357e-05 2.299238e-04 1.487968e-05 1.126674e-04 -3.862328e-04 2.963130e-04 2.105904e-03 2.662308e-04 -1.957180e-03 1.706350e-03 2.167483e-03 -1.423959e-03 7.816460e-04 1.340982e-03 -1.756340e-03 -6.787746e-04 2.292081e-03 1.169185e-04 -8.132377e-04 2.915611e-04 -3.685690e-04 -1.510279e-03 -9.610096e-04 -4.426807e-04 -4.672214e-04 -5.374183e-05 -2.718901e-04 1.832877e-04 -2.423040e-04 2.645408e-04 -2.807530e-04 2.915213e-04 -2.972734e-04 2.949148e-04 -2.822069e-04 2.583164e-04 -2.303386e-04 1.973181e-04 -1.301641e-04 1.072943e-04 -1.127198e-05 -2.321876e-05 1.200238e-04 -1.545129e-04 2.707520e-04 -2.829817e-04 3.841640e-04 -4.257917e-04 4.480675e-04 -5.162201e-04 5.028949e-04 -5.172959e-04 5.094843e-04 -4.647976e-04 4.293461e-04 -3.495199e-04 2.925137e-04 -1.504983e-04 1.179498e-04 1.110625e-04 -7.659113e-05 4.059389e-04 -2.543688e-04 6.868682e-04 -3.553923e-04 9.163818e-04 -2.653204e-04 1.021813e-03 1.840378e-05 7.026162e-04 -1.992710e-04 3.506640e-03 1.631306e-03 -5.171392e-03 -2.266625e-03 -2.141844e-03 -3.730779e-04 
8.273225e-04 2.216930e-03 5.725820e-03 5.042890e-03 1.481610e-03 -1.046336e-02 -1.317341e-02 1.778588e-03 -6.631694e-04 -1.159351e-03 4.027295e-04 -2.442385e-03 -3.906982e-05 -4.733127e-04 3.583700e-04 -5.683071e-04 5.407433e-04 -5.814902e-04 5.865911e-04 -4.228404e-04 3.727168e-04 7.305560e-05 2.589290e-03 -1.316940e-04 1.282210e-03 1.227191e-04 5.265047e-04 3.190413e-04 -2.827839e-05 5.060702e-04 -3.327455e-04 6.894365e-04 -4.570009e-04 7.935967e-04 -4.965581e-04 7.502883e-04 -5.247541e-04 6.050764e-04 -4.512615e-04 5.035824e-04 -2.419906e-04 4.105159e-04 -7.493880e-05 1.978964e-04 -1.375931e-05 -2.337336e-05 1.012535e-04 -8.073884e-05 2.919987e-04 -4.233808e-05 4.532151e-04 7.934704e-05 6.742988e-04 4.157972e-04 1.039800e-03 7.118764e-04 2.054434e-04 -1.194901e-03 -1.314910e-03 -4.932187e-04 -3.510537e-04 -3.364279e-04 -3.810222e-04 -2.330831e-04 -1.094461e-03 -6.102499e-05 2.181103e-05 4.309059e-04 -3.981797e-04 2.277810e-04 -1.809543e-04 5.984396e-05 -1.334134e-04 7.642768e-08 2.813099e-04 1.087273e-04 5.696605e-04 4.653135e-05 6.239736e-04 -2.395032e-04 5.314631e-04 -4.669198e-04 5.116546e-04 -5.305780e-04 5.065122e-04 -5.133620e-04 4.489949e-04 -4.009855e-04 3.664949e-04 -2.137118e-04 1.866973e-04 -3.530586e-05 -7.144250e-05 2.131467e-04 -2.623583e-04 5.386922e-04 -4.778849e-04 7.172006e-04 -8.055925e-04 7.707689e-04 -1.000740e-03 8.968106e-04 -9.505614e-04 9.591156e-04 -8.389598e-04 7.775684e-04 -6.746127e-04 4.615661e-04 -3.100347e-04 1.150642e-04 2.294254e-04 -3.120114e-04 7.995355e-04 -8.750532e-04 1.279347e-03 -1.501283e-03 1.706027e-03 -1.942398e-03 2.108032e-03 -2.001647e-03 2.168248e-03 -1.797386e-03 5.207906e-03 1.732208e-02 -5.662727e-03 -7.528337e-03 -3.669628e-03 -1.909111e-03 
-1.528306e-03 1.479120e-03 1.814910e-04 3.510638e-03 -1.274988e-02 -4.674344e-03 8.945628e-03 -2.342042e-03 2.226832e-03 1.016165e-04 1.160042e-03 2.428457e-03 2.305229e-03 -1.728720e-03 1.534893e-03 -1.345114e-03 1.368905e-03 -1.522289e-03 1.922461e-03 -2.012887e-03 2.542450e-03 -2.445960e-03 -2.413052e-03 -6.358693e-04 -1.255636e-03 -5.042752e-06 -1.132214e-03 2.934992e-04 -1.181435e-03 5.065650e-04 -1.129483e-03 7.231794e-04 -9.591164e-04 8.254380e-04 -8.023165e-04 7.131868e-04 -7.007318e-04 4.968438e-04 -5.034384e-04 3.446039e-04 -1.844772e-04 2.067093e-04 4.446770e-05 -7.799215e-05 9.818690e-05 -3.887105e-04 1.620639e-04 -5.252999e-04 2.648625e-04 -5.897984e-04 2.443387e-04 -6.465039e-04 1.484411e-04 -6.642369e-04 -1.157432e-04 -6.571557e-04 3.432441e-05 -3.282872e-05 6.602827e-04 8.022083e-04 -5.808286e-04 7.371697e-05 6.062934e-04 8.432223e-04 1.138697e-04 1.530653e-03 -2.988712e-04 -1.786542e-04 -6.023322e-05 7.708722e-04 -6.480196e-04 4.883291e-05 -4.180366e-05 -1.309312e-04 -1.846999e-04 -1.913228e-04 3.160281e-04 -1.811969e-04 5.187338e-04 -4.536061e-04 5.040375e-04 -6.710930e-04 5.353135e-04 -7.086790e-04 5.413097e-04 -6.456094e-04 4.887971e-04 -4.476994e-04 3.865465e-04 -1.940960e-04 1.234873e-04 3.485921e-05 -2.091970e-04 3.807915e-04 -4.369938e-04 7.963615e-04 -7.151043e-04 9.960601e-04 -1.112722e-03 1.033679e-03 -1.320283e-03 1.138352e-03 -1.197839e-03 1.150276e-03 -9.673781e-04 8.293257e-04 -6.747574e-04 2.995190e-04 -1.163376e-04 -2.577854e-04 6.924163e-04 -9.215986e-04 1.505060e-03 -1.794920e-03 2.158476e-03 -2.741081e-03 2.706959e-03 -3.446479e-03 3.077430e-03 -3.569723e-03 2.690192e-03 -1.711975e-03 -3.371332e-03 2.679533e-02 -2.054597e-04 -8.121825e-03 -4.108640e-03 -2.628746e-03 
-1.609387e-03 3.357883e-04 -3.011122e-03 -5.991238e-05 -1.282576e-02 -3.622376e-04 1.638256e-02 -6.842239e-03 2.375332e-03 -4.010984e-03 8.829205e-04 -6.390975e-03 -2.226268e-03 1.942524e-03 -1.302486e-03 1.278614e-03 -9.302861e-04 1.217242e-03 -1.890247e-03 1.884715e-03 -3.596492e-03 3.303218e-03 4.497575e-03 1.112015e-03 2.022263e-03 8.077650e-04 9.492174e-04 6.727452e-04 2.621812e-04 5.874307e-04 -8.910306e-05 5.767100e-04 -2.018943e-04 5.440902e-04 -2.281930e-04 4.236204e-04 -2.118160e-04 2.771054e-04 -1.139802e-04 1.559615e-04 4.042224e-05 4.309047e-05 1.681670e-04 -1.075326e-04 2.334286e-04 -2.439406e-04 3.029126e-04 -2.762888e-04 4.109458e-04 -2.129844e-04 5.150367e-04 -6.987334e-05 6.363380e-04 1.599797e-04 6.655001e-04 2.274567e-05 4.579130e-04 1.298983e-03 -2.405207e-04 -1.915125e-03 8.460036e-04 1.382002e-03 -1.809255e-03 5.213547e-04 5.970450e-04 -1.515594e-03 -7.717458e-04 1.993947e-03 -5.040744e-04 -6.299904e-04 6.221434e-04 6.709937e-05 -1.267734e-03 -4.773799e-04 -2.437977e-04 -1.652063e-04 1.413641e-04 -1.300543e-04 3.278610e-04 -2.444258e-04 3.661709e-04 -3.643575e-04 3.744510e-04 -4.073012e-04 3.488888e-04 -3.714780e-04 3.036434e-04 -2.416714e-04 2.173750e-04 -8.525112e-05 3.715566e-05 7.600580e-05 -1.649041e-04 3.041732e-04 -3.286613e-04 5.378831e-04 -5.209219e-04 6.650709e-04 -7.276208e-04 7.109142e-04 -8.227847e-04 7.372106e-04 -7.441170e-04 6.872914e-04 -5.559808e-04 4.628031e-04 -2.926480e-04 9.943398e-05 1.257093e-04 -2.990393e-04 6.969721e-04 -7.461725e-04 1.284255e-03 -1.256289e-03 1.807977e-03 -1.683886e-03 2.266095e-03 -1.822053e-03 2.478607e-03 -1.480487e-03 1.720454e-03 3.751700e-05 -7.919471e-03 1.028695e-02 1.117082e-03 -2.141280e-03 -1.399164e-03 -7.728475e-04 
-9.821826e-04 8.578379e-05 -1.917160e-03 -3.587397e-04 -4.839647e-03 -2.677780e-04 5.742683e-03 -2.051130e-03 1.284474e-03 -2.822621e-04 9.939761e-04 -4.181561e-04 -2.388474e-03 -2.918116e-03 5.649897e-04 -1.409413e-03 -4.832290e-04 6.399648e-04 -2.004113e-04 1.407773e-03 3.228347e-03 2.119967e-03 2.403974e-05 -4.100034e-04 -4.425830e-04 -1.142665e-04 -4.005488e-04 3.676773e-05 -3.979359e-04 1.206916e-04 -3.700708e-04 1.797898e-04 -3.121436e-04 2.009755e-04 -2.519235e-04 1.748340e-04 -1.890693e-04 1.284404e-04 -1.090657e-04 7.857621e-05 -2.094230e-05 2.578776e-05 5.803793e-05 -2.728190e-05 1.297566e-04 -4.858421e-05 2.276018e-04 1.132826e-05 3.907769e-04 1.884435e-04 6.437810e-04 5.133227e-04 1.042060e-03 1.110651e-03 1.799210e-03 1.696530e-03 1.580377e-04 -3.210603e-03 -3.287723e-03 -5.601107e-04 3.058803e-04 1.565516e-04 -1.869703e-04 -8.822270e-04 -2.273635e-03 -1.141424e-03 5.654678e-04 1.535203e-03 2.462340e-06 -3.362328e-04 -4.422396e-04 -6.302985e-04 -5.542827e-04 1.568288e-04 3.818744e-04 3.599317e-04 5.013755e-04 3.077102e-04 4.910868e-04 1.488637e-04 3.974669e-04 -1.530501e-05 3.024872e-04 -1.167481e-04 2.280051e-04 -1.423067e-04 1.732885e-04 -1.020658e-04 1.128034e-04 -3.282280e-05 2.395113e-05 5.281531e-05 -7.314426e-05 1.607794e-04 -1.672242e-04 2.611593e-04 -2.697953e-04 3.242669e-04 -3.616509e-04 3.537913e-04 -4.041390e-04 3.566000e-04 -3.737624e-04 3.183846e-04 -2.784655e-04 2.110325e-04 -1.324785e-04 3.735316e-05 7.755360e-05 -1.686013e-04 3.455397e-04 -3.975762e-04 6.188585e-04 -6.329343e-04 8.578388e-04 -7.898980e-04 1.035676e-03 -7.385019e-04 1.052695e-03 -3.038942e-04 6.424903e-04 8.572059e-04 -2.515717e-03 3.219775e-03 5.402495e-04 7.185802e-04 -4.146849e-04 1.129174e-04 
