# vtk DataFile Version 2.0
Comment goes here
ASCII

DATASET STRUCTURED_POINTS
FIELD FieldData 1
TIME 1 1 double
0.06900000
DIMENSIONS    64   64   1

ORIGIN    0.000   0.000   0.000
SPACING   0.03125 0.03125   1.000

POINT_DATA   4096
SCALARS Omega double
LOOKUP_TABLE default

1.482632e-01 3.281323e-01 -5.235314e-01 -1.072785e-01 -4.775041e-01 1.500125e-01 -3.093579e-01 7.576284e-03 -3.162152e-01 5.410986e-02 -2.954154e-01 1.240523e-01 -2.392019e-01 1.878144e-01 -1.426743e-01 2.388989e-01 -3.318659e-02 2.984578e-01 1.098491e-01 4.033793e-01 2.218530e-01 4.459895e-01 2.282539e-01 3.637039e-01 3.304846e-01 3.782784e-01 4.286705e-01 3.836112e-01 4.111443e-01 3.205550e-01 4.095422e-01 3.518954e-01 4.197671e-01 3.902994e-01 3.648811e-01 3.784507e-01 3.635245e-01 3.192913e-01 3.726296e-01 3.290260e-01 4.228067e-01 2.876297e-01 4.285189e-01 1.551068e-01 4.422908e-01 1.981933e-01 3.348419e-01 1.296060e-01 2.731178e-01 2.112111e-02 2.314414e-01 -6.404922e-02 1.900251e-01 -1.677150e-01 1.684075e-01 -2.454948e-01 1.408338e-01 -2.907765e-01 1.159214e-01 -3.350207e-01 1.219777e-01 -4.052511e-01 2.398326e-01 -7.490446e-01 
-2.077409e+01 -3.581586e+01 -1.688264e+01 -3.303932e+01 -2.138449e+01 -2.989914e+01 -2.543009e+01 -2.821282e+01 -3.035848e+01 -2.805690e+01 -3.325483e+01 -2.746594e+01 -3.605476e+01 -2.566409e+01 -3.974656e+01 -2.263794e+01 -4.429169e+01 -1.860883e+01 -4.964574e+01 -1.374812e+01 -5.548924e+01 -8.543208e+00 -6.129778e+01 -2.924207e+00 -6.758677e+01 3.085473e+00 -7.413820e+01 9.069176e+00 -8.010088e+01 1.409672e+01 -8.448844e+01 1.732155e+01 -8.726991e+01 1.902604e+01 -8.879615e+01 2.016905e+01 -9.015965e+01 2.140776e+01 -9.164082e+01 2.250875e+01 -9.243584e+01 2.250052e+01 -9.159067e+01 2.067430e+01 -8.871440e+01 1.716312e+01 -8.445504e+01 1.254813e+01 -7.850831e+01 6.382890e+00 -7.095272e+01 -1.039703e+00 -6.241027e+01 -8.836224e+00 -5.347328e+01 -1.664132e+01 -4.454050e+01 -2.403624e+01 -3.582135e+01 -3.107225e+01 -2.694349e+01 -3.825926e+01 -1.607055e+01 -4.562917e+01 
-6.189272e+01 9.391876e-01 -5.148910e+01 6.286750e+00 -8.274904e+00 5.105082e+00 -5.710258e+01 -1.060402e+00 -7.407620e+01 -1.493183e+00 -8.572064e+01 -1.618192e+00 -9.401431e+01 -2.381407e+00 -9.977111e+01 -3.788408e+00 -1.037872e+02 -5.686710e+00 -1.064070e+02 -8.039264e+00 -1.079306e+02 -1.045490e+01 -1.088789e+02 -1.283947e+01 -1.089000e+02 -1.564254e+01 -1.081736e+02 -1.861318e+01 -1.071671e+02 -2.105238e+01 -1.065763e+02 -2.263990e+01 -1.066050e+02 -2.342992e+01 -1.070086e+02 -2.396570e+01 -1.070811e+02 -2.474506e+01 -1.065204e+02 -2.565800e+01 -1.059459e+02 -2.596720e+01 -1.058217e+02 -2.516257e+01 -1.062182e+02 -2.379928e+01 -1.064150e+02 -2.191734e+01 -1.067808e+02 -1.920523e+01 -1.072048e+02 -1.574105e+01 -1.072321e+02 -1.208912e+01 -1.064785e+02 -8.338151e+00 -1.046075e+02 -4.729778e+00 -1.013042e+02 -8.972564e-01 -9.663498e+01 3.860820e+00 -9.482065e+01 1.038022e+01 
-2.949222e+01 2.662907e+00 -2.814975e+01 9.927111e+00 -3.806476e+01 4.864524e+00 -2.066136e+01 1.079176e+01 -3.193333e+01 9.286978e+00 -3.912865e+01 7.726925e+00 -4.391855e+01 5.752130e+00 -4.682221e+01 3.344404e+00 -4.848239e+01 7.286517e-01 -4.906971e+01 -2.064931e+00 -4.886351e+01 -4.747261e+00 -4.831553e+01 -7.736280e+00 -4.728288e+01 -1.055885e+01 -4.554766e+01 -1.327837e+01 -4.380133e+01 -1.568161e+01 -4.256235e+01 -1.706206e+01 -4.166169e+01 -1.746563e+01 -4.126023e+01 -1.771599e+01 -4.079665e+01 -1.801581e+01 -3.986953e+01 -1.838526e+01 -3.912489e+01 -1.818665e+01 -3.900971e+01 -1.723476e+01 -3.952309e+01 -1.565962e+01 -4.017225e+01 -1.368708e+01 -4.144283e+01 -1.115046e+01 -4.304745e+01 -8.146125e+00 -4.465926e+01 -5.090346e+00 -4.609725e+01 -2.114771e+00 -4.703289e+01 6.978486e-01 -4.708997e+01 3.292172e+00 -4.636879e+01 7.244355e+00 -4.881280e+01 1.155542e+01 
-3.526089e+00 2.328719e+00 -3.548574e+00 -7.882546e+00 -5.999840e+01 -2.006983e+00 8.296411e+00 9.080460e-01 1.711240e+00 5.762818e-01 -4.881769e-01 3.042394e-01 -1.324343e+00 1.153930e-01 -1.693558e+00 -2.911904e-02 -1.862054e+00 -1.262374e-01 -1.959654e+00 -1.989982e-01 -2.014350e+00 -2.360389e-01 -2.079967e+00 -2.663282e-01 -2.062424e+00 -2.377931e-01 -2.048458e+00 -2.374244e-01 -2.003049e+00 -2.773259e-01 -1.894155e+00 -3.301962e-01 -1.741994e+00 -3.791988e-01 -1.560738e+00 -4.396511e-01 -1.379090e+00 -5.366779e-01 -1.225485e+00 -6.818621e-01 -1.086393e+00 -8.358363e-01 -9.364163e-01 -9.618861e-01 -7.938052e-01 -9.997556e-01 -6.324961e-01 -9.704207e-01 -4.966362e-01 -8.652702e-01 -4.185754e-01 -7.016428e-01 -4.012864e-01 -4.638531e-01 -4.399324e-01 -1.622676e-01 -5.455731e-01 2.032783e-01 -7.448483e-01 6.187149e-01 -1.043184e+00 1.202662e+00 -1.663954e+00 2.706634e+00 
-2.916282e+00 2.225410e+00 -3.260477e+00 -7.310754e+00 -7.925964e+01 -3.919269e+00 6.763176e+00 -1.269914e+00 3.893981e+00 -1.880955e-01 1.924729e+00 -8.355335e-02 9.359192e-01 -9.784948e-02 4.574388e-01 -9.707136e-02 2.305677e-01 -9.224515e-02 1.155264e-01 -1.305886e-01 6.562928e-02 -1.485467e-01 2.985506e-02 -9.875009e-02 7.130001e-03 -8.910898e-02 -1.022138e-02 -7.746364e-02 7.161328e-03 -3.577109e-02 -2.514408e-02 -6.658984e-03 -3.516865e-02 -2.383559e-03 -4.447937e-02 9.645542e-03 -5.569958e-02 1.446327e-02 -4.904313e-02 3.479725e-02 -6.319475e-02 3.757256e-02 -4.995882e-02 4.114963e-02 -6.564742e-02 4.685087e-02 -5.363444e-02 4.775986e-02 -7.219114e-02 7.631744e-02 -8.782538e-02 1.247347e-01 -1.472291e-01 2.158417e-01 -2.389522e-01 3.752432e-01 -3.833495e-01 6.029927e-01 -6.257679e-01 9.491031e-01 -1.071153e+00 1.317363e+00 -1.681345e+00 1.772213e+00 
-2.842740e+00 1.414985e+00 -1.791040e+00 -8.400546e+00 -8.944805e+01 -2.614716e+00 5.112641e+00 -1.651325e+00 3.757306e+00 -5.578111e-01 2.072692e+00 -2.659705e-01 1.051364e+00 -1.898151e-01 5.401412e-01 -1.770278e-01 3.283166e-01 -1.668785e-01 2.009304e-01 -2.060746e-01 1.567219e-01 -1.904758e-01 9.636771e-02 -1.417913e-01 1.281004e-01 -1.004018e-01 1.047559e-01 -5.352131e-02 1.081976e-01 -1.441135e-02 8.502783e-02 2.249476e-02 4.824719e-02 4.103373e-02 3.679212e-02 5.749018e-02 -1.026313e-02 6.714798e-02 -4.502236e-03 7.371316e-02 -5.122753e-02 8.437376e-02 -5.169092e-02 7.957603e-02 -7.548138e-02 8.093482e-02 -7.526742e-02 8.336263e-02 -6.884284e-02 1.096672e-01 -1.386431e-01 1.878831e-01 -2.308256e-01 3.251780e-01 -3.460394e-01 5.060255e-01 -5.265229e-01 7.227355e-01 -8.183801e-01 9.950355e-01 -1.264046e+00 1.317418e+00 -1.903932e+00 1.604467e+00 
-2.585833e+00 1.102916e+00 -1.300222e+00 -7.338440e+00 -1.009374e+02 -2.238440e+00 2.685237e+00 -2.469941e+00 2.915062e+00 -1.110666e+00 2.029679e+00 -5.047145e-01 1.142322e+00 -2.938410e-01 5.930559e-01 -2.503405e-01 3.447264e-01 -2.021743e-01 2.281063e-01 -3.066589e-01 1.698011e-01 -2.706041e-01 9.026590e-02 -2.219183e-01 1.244275e-01 -1.633807e-01 6.195799e-02 -1.133807e-01 8.659923e-02 -8.807328e-02 2.297135e-02 -2.043521e-02 1.575254e-02 -9.693053e-03 -1.445892e-02 5.517236e-02 -4.242107e-02 5.994006e-02 -2.902818e-02 9.984404e-02 -7.607067e-02 1.094725e-01 -4.322945e-02 1.124785e-01 -9.161338e-02 1.313037e-01 -4.311937e-02 1.178474e-01 -6.159027e-02 1.829316e-01 -4.715890e-02 2.430110e-01 -1.423475e-01 3.851650e-01 -2.708322e-01 6.134232e-01 -4.597292e-01 8.838500e-01 -7.535338e-01 1.189443e+00 -1.187224e+00 1.507573e+00 -1.771376e+00 1.822211e+00 
-2.062567e+00 6.850824e-01 1.133698e-01 -7.663813e+00 -1.061925e+02 -1.274397e+00 1.685623e+00 -2.306033e+00 2.017490e+00 -1.297087e+00 1.659070e+00 -6.335260e-01 9.709268e-01 -3.354094e-01 5.023057e-01 -3.342169e-01 3.442414e-01 -3.086094e-01 2.157281e-01 -4.566323e-01 2.202403e-01 -3.613556e-01 9.139498e-02 -2.337693e-01 1.965493e-01 -1.785297e-01 1.111903e-01 -9.178291e-02 1.275034e-01 -7.775379e-02 9.126463e-02 -1.442044e-03 2.049532e-02 1.522824e-02 4.406211e-02 7.340823e-02 -7.075757e-02 1.050628e-01 2.992805e-03 1.140949e-01 -1.084180e-01 1.519860e-01 -6.620473e-02 1.249797e-01 -1.075384e-01 1.364921e-01 -8.178597e-02 1.017067e-01 3.607819e-03 1.121104e-01 -1.076474e-01 2.209838e-01 -2.139510e-01 4.248838e-01 -3.263677e-01 6.671001e-01 -5.131199e-01 9.217927e-01 -7.965774e-01 1.195525e+00 -1.178684e+00 1.481653e+00 -1.651124e+00 1.698482e+00 
-1.609842e+00 4.040725e-01 8.751984e-01 -6.994633e+00 -1.130747e+02 -8.213244e-01 6.483607e-01 -2.569248e+00 1.098969e+00 -1.678406e+00 1.265020e+00 -8.085013e-01 8.106727e-01 -3.156912e-01 3.677648e-01 -3.634465e-01 1.996956e-01 -3.462272e-01 2.189157e-01 -6.852716e-01 2.220978e-01 -4.455515e-01 8.289700e-02 -3.138681e-01 2.141896e-01 -2.464029e-01 6.070368e-02 -1.234519e-01 1.460644e-01 -1.858605e-01 1.506465e-02 1.312695e-02 2.777856e-02 -6.428940e-02 -2.475372e-02 1.302620e-01 -7.999534e-02 7.617600e-02 -2.320017e-02 1.565990e-01 -1.338499e-01 1.875898e-01 -3.824957e-02 1.436578e-01 -1.752929e-01 2.297821e-01 -4.265583e-02 5.269801e-02 -8.069350e-02 1.799875e-01 5.768800e-02 1.761485e-01 -5.454082e-02 4.173135e-01 -1.919820e-01 7.520267e-01 -4.011230e-01 1.033033e+00 -6.833410e-01 1.286713e+00 -1.024257e+00 1.532195e+00 -1.411171e+00 1.667822e+00 
-1.019126e+00 4.840318e-02 2.026450e+00 -6.832133e+00 -1.152012e+02 -1.717226e-01 2.936902e-01 -2.421839e+00 3.413088e-01 -1.775352e+00 7.495495e-01 -8.024590e-01 4.805654e-01 -1.512781e-02 1.387708e-01 -1.665746e-01 7.213978e-02 -7.677453e-01 1.577729e-01 -9.614020e-01 3.513130e-01 -5.926738e-01 4.616278e-02 -2.007918e-01 3.069133e-01 -2.823869e-01 1.069304e-01 -8.368467e-02 1.491424e-01 -1.633056e-01 1.359636e-01 -1.098437e-02 -4.908998e-02 2.497734e-03 1.012731e-01 6.964334e-02 -2.024857e-01 1.894293e-01 6.684071e-02 1.159206e-01 -2.131133e-01 2.817361e-01 -6.729313e-02 1.863511e-01 -1.790333e-01 2.277006e-01 -1.449182e-01 7.119058e-02 1.551196e-01 -7.392617e-02 -3.271539e-02 1.324346e-01 -1.017443e-01 4.825274e-01 -1.795949e-01 8.042476e-01 -3.857344e-01 1.050251e+00 -6.495121e-01 1.265941e+00 -9.213061e-01 1.475841e+00 -1.167101e+00 1.538441e+00 
-5.392171e-01 -2.475019e-01 2.777680e+00 -6.334808e+00 -1.187674e+02 3.232620e-01 -1.721003e-02 -2.557346e+00 -2.111525e-01 -2.188055e+00 4.275283e-01 -1.001384e+00 3.119800e-01 4.838978e-01 -1.302535e-01 7.017766e-01 -6.680726e-01 -1.574963e+00 2.852023e-01 -1.258106e+00 3.500251e-01 -6.796495e-01 1.304780e-01 -1.277826e-01 2.561568e-01 -4.040582e-01 9.256202e-02 -6.772437e-02 1.846016e-01 -3.536049e-01 3.558602e-02 6.097223e-02 3.760904e-02 -8.474075e-02 -6.176283e-02 1.531158e-01 -1.090372e-01 2.055541e-01 -7.476781e-02 6.827280e-02 -1.460242e-01 4.111770e-01 -5.339982e-02 7.813975e-02 -2.719689e-01 5.787806e-01 -1.124773e-01 -1.224240e-01 -2.330549e-01 -5.235551e-02 2.728312e-01 -2.656018e-01 2.671729e-01 5.010634e-01 3.594895e-02 9.830819e-01 -2.958985e-01 1.157104e+00 -5.682906e-01 1.293185e+00 -7.740528e-01 1.446861e+00 -9.127361e-01 1.428577e+00 
7.932068e-03 -5.783721e-01 3.632762e+00 -5.933994e+00 -1.185529e+02 7.654982e-01 -9.662515e-02 -2.576635e+00 -6.895648e-01 -2.575489e+00 -2.171171e-02 -1.442002e+00 3.843563e-02 8.743066e-01 -1.599078e-02 2.893953e+00 -1.996549e+00 -3.931979e+00 7.951082e-01 -2.860887e-01 6.623636e-01 -9.141283e-01 6.595386e-02 5.455277e-01 3.702652e-01 -1.128414e-01 9.409972e-02 -6.297471e-01 2.381634e-01 5.730033e-01 1.680219e-01 -9.048780e-01 -3.661773e-02 9.550334e-01 9.478253e-02 -6.262461e-01 -3.192130e-01 8.494088e-01 1.394637e-01 -1.411965e-02 -3.531871e-01 2.579903e-01 5.077126e-02 7.913182e-01 -3.894285e-01 -1.008861e-02 -2.420167e-01 6.057641e-01 1.833148e-01 -1.220656e+00 2.454244e-01 -8.758291e-02 2.577279e-01 6.668765e-01 1.190183e-01 1.097568e+00 -2.780697e-01 1.184707e+00 -5.428828e-01 1.255197e+00 -6.634872e-01 1.371577e+00 -6.590956e-01 1.287053e+00 
4.609052e-01 -8.770084e-01 4.235391e+00 -5.443618e+00 -1.193872e+02 1.240062e+00 -1.738078e-01 -2.629368e+00 -9.892382e-01 -3.351080e+00 -9.441565e-02 -2.885399e+00 4.300812e-01 -8.149001e-01 1.369875e+00 2.226146e+00 -5.426438e+00 -1.023911e+00 3.714982e+00 3.620819e+00 4.185194e-01 -1.687536e-01 1.048111e+00 2.849910e+00 2.606260e-02 1.655817e-01 5.170092e-01 -5.700676e-01 4.492187e-01 1.851043e+00 -2.533147e-01 -2.494203e+00 6.419564e-01 3.202368e+00 -9.947745e-01 -2.638481e+00 6.900433e-01 2.837302e+00 -9.773910e-01 -1.639961e+00 6.782422e-01 9.015985e-01 -3.986828e-01 7.922292e-01 -5.089775e-02 -4.208598e-01 -1.424137e-01 3.685484e+00 -1.945270e+00 -2.956257e+00 8.876809e-01 -5.439541e-01 1.621083e+00 1.692418e+00 2.124611e-01 1.480730e+00 -4.858011e-01 1.184701e+00 -6.034018e-01 1.182346e+00 -5.617122e-01 1.284242e+00 -4.227373e-01 1.138084e+00 
9.394901e-01 -1.184149e+00 4.781630e+00 -4.817781e+00 -1.172585e+02 1.459284e+00 -1.745226e-01 -2.478943e+00 -1.204376e+00 -3.628946e+00 -6.238190e-01 -4.547584e+00 -3.952235e-01 -8.838480e+00 6.399535e+00 -1.722859e+01 -3.096668e+00 2.730709e+01 2.534608e+01 1.662741e+01 6.094520e+00 1.732560e+01 2.727169e+00 4.233764e+00 9.660946e+00 1.343265e+01 1.020878e+00 4.856918e+00 8.679160e+00 7.461457e+00 1.682655e+00 3.031361e+00 5.048166e+00 2.965319e+00 3.818303e+00 4.104782e+00 1.756750e+00 1.180719e+00 6.851909e+00 3.679617e+00 -1.948554e-01 1.582850e+00 5.670695e+00 4.749630e-01 5.423467e-01 2.957922e-01 1.115251e+00 -2.451976e+00 5.072946e+00 -8.645561e+00 -1.796238e+00 -8.309506e+00 3.558830e-01 1.894597e+00 2.867658e-01 1.931362e+00 -6.558534e-01 1.161110e+00 -6.586980e-01 1.066249e+00 -4.625377e-01 1.169328e+00 -1.826999e-01 9.707524e-01 
1.358598e+00 -1.412753e+00 5.117648e+00 -4.044760e+00 -1.157186e+02 1.811115e+00 -3.528311e-01 -1.898837e+00 -1.707201e+00 -3.517967e+00 -1.086752e+00 -7.388158e+00 2.220226e+00 -2.251766e+01 1.960846e+01 -4.429998e+01 1.506636e+01 8.015948e+01 7.407119e+01 1.851722e+01 2.869793e+01 6.450280e+01 2.742080e+01 9.464492e-01 4.679947e+01 6.211726e+01 2.339878e+01 3.422771e+01 6.022217e+01 4.128347e+01 1.750695e+01 5.242600e+01 5.060958e+01 9.638535e+00 2.020629e+01 5.763061e+01 3.843647e+01 -1.459640e+00 3.370822e+01 5.662054e+01 2.821454e+01 1.403961e+01 5.011911e+01 4.637991e+01 1.956369e+01 2.802180e+01 5.018325e+01 1.972474e+01 1.473439e+01 4.011404e+01 3.157580e+01 3.193621e+01 5.194836e+00 6.281639e+00 -2.396724e+00 6.560363e-01 -1.628237e+00 5.951896e-01 -7.405363e-01 8.974288e-01 -3.084146e-01 1.071142e+00 7.056363e-02 8.088180e-01 
1.757762e+00 -1.574552e+00 5.335029e+00 -3.267383e+00 -1.119609e+02 1.753529e+00 -3.010206e-01 -1.620815e+00 -1.339543e+00 -2.809074e+00 3.727283e-01 -5.580702e+00 5.120958e+00 -1.327787e+01 1.527204e+01 -2.884336e+01 2.531243e+01 4.600417e+01 3.697290e+01 -1.409449e+01 4.039656e+01 4.069284e+01 1.896233e+01 2.449633e+00 5.844049e+01 3.622749e+01 2.663248e+01 5.495453e+01 6.287539e+01 1.601278e+01 3.624591e+01 8.842830e+01 4.331531e+01 -1.224579e+01 4.679557e+01 8.890001e+01 2.485478e+01 -7.917991e+00 6.332695e+01 7.082279e+01 2.194567e+01 3.899816e+01 7.612815e+01 4.531615e+01 3.196743e+01 8.629760e+01 6.538837e+01 3.805251e+00 4.785297e+01 1.423240e+02 3.575330e+01 4.913442e+01 -7.121923e+00 2.133764e+00 -5.878128e+00 -1.823969e+00 -2.145021e+00 -2.775504e-01 -6.194209e-01 6.281566e-01 -1.007621e-01 9.506823e-01 3.263854e-01 6.548609e-01 
2.098631e+00 -1.644904e+00 5.400723e+00 -2.516593e+00 -1.085902e+02 1.740759e+00 -9.381260e-02 -1.110214e+00 -9.592616e-01 -5.858782e-01 -5.039324e-02 2.924210e+00 -2.465697e-01 1.311632e+01 -9.991362e+00 3.155776e+01 -2.473700e+01 -8.979500e+01 -4.226912e+01 -1.257387e+01 -3.038990e+01 -5.947469e+01 -4.100375e+00 -1.133248e+01 -3.984916e+01 -3.882213e+01 -1.245347e+01 -4.303214e+01 -3.438288e+01 -1.494414e+01 -1.971923e+01 -5.095325e+01 -1.691633e+01 4.274973e+00 -2.295400e+01 -3.754345e+01 -7.885884e+00 1.307780e+00 -2.522455e+01 -1.873762e+01 -1.020134e+01 -1.576396e+01 -2.286021e+01 -3.188466e+00 -1.385636e+01 -1.928020e+01 -1.291099e+01 7.351223e+00 -9.821446e+00 -7.664770e+00 -2.691836e+00 7.127427e+00 -2.168853e+00 2.575933e+00 -6.957552e-01 1.061770e+00 -1.586674e-01 8.082165e-01 3.874010e-02 8.816079e-01 2.033631e-01 9.391742e-01 5.877675e-01 5.152309e-01 
2.357908e+00 -1.580789e+00 5.332627e+00 -1.805002e+00 -1.033530e+02 1.679306e+00 -1.444748e-01 -1.088378e+00 -1.235165e+00 -5.032406e-01 -1.296410e+00 4.369168e+00 -5.184339e+00 2.167290e+01 -2.474154e+01 3.882762e+01 -8.257491e+00 -5.989111e+01 -7.982415e+01 -1.690573e+01 -3.277723e+01 -6.169537e+01 -3.516382e+01 -2.383935e+00 -5.942098e+01 -6.382676e+01 -2.940105e+01 -4.838924e+01 -7.612211e+01 -3.722236e+01 -2.761840e+01 -8.214881e+01 -6.016080e+01 2.120403e+00 -3.752473e+01 -8.998376e+01 -4.008534e+01 8.187527e+00 -5.859379e+01 -7.844430e+01 -2.979802e+01 -3.140542e+01 -7.816325e+01 -5.166154e+01 -3.143637e+01 -7.512093e+01 -7.084549e+01 -5.975614e+00 -4.381406e+01 -1.290517e+02 -3.697388e+01 -4.433925e+01 4.712201e+00 1.233394e+00 4.439254e+00 3.854419e+00 1.488453e+00 2.006774e+00 4.597534e-01 1.203012e+00 3.769843e-01 9.623934e-01 7.746216e-01 4.229940e-01 
2.572225e+00 -1.531489e+00 5.248246e+00 -1.259445e+00 -9.850485e+01 1.928158e+00 -3.003899e-01 -6.745714e-01 -1.729616e+00 -9.579282e-01 -2.075714e+00 -4.589571e-02 -3.482749e+00 3.774807e+00 -9.783751e+00 1.053192e+01 -3.413367e+00 -2.201498e+00 -1.892140e+01 -1.837466e+00 -1.101742e+01 -7.489475e+00 -1.177704e+01 2.070214e+00 -1.579577e+01 -1.593946e+01 -9.837867e+00 -4.491882e+00 -2.196526e+01 -1.618931e+01 -7.385374e+00 -1.220427e+01 -2.243171e+01 -7.184919e+00 -8.802104e+00 -2.298177e+01 -1.896364e+01 -6.069350e-01 -1.679615e+01 -3.193864e+01 -1.333192e+01 -6.804636e+00 -2.779473e+01 -3.291613e+01 -8.487297e+00 -1.876645e+01 -3.214455e+01 -1.857683e+01 -9.003357e+00 -3.957391e+01 -2.592815e+01 -3.312606e+01 -3.115702e+00 -6.448683e+00 2.144580e+00 8.742892e-01 1.377041e+00 1.323376e+00 7.025868e-01 1.071601e+00 5.977129e-01 8.935651e-01 9.790068e-01 3.204023e-01 
2.698463e+00 -1.390932e+00 5.021927e+00 -6.793555e-01 -9.220683e+01 1.922156e+00 -4.650273e-01 -3.653711e-01 -2.058205e+00 -5.668166e-01 -2.574395e+00 -6.753647e-01 -2.796425e+00 -3.858522e+00 -1.581112e+00 -6.490367e+00 2.579723e+00 3.028954e+00 -1.313541e+00 5.257437e-01 -1.316394e+00 2.538419e+00 -4.880437e-01 -1.568638e+00 -9.194761e-01 1.669683e+00 8.266959e-02 1.131594e+00 -7.852524e-01 -7.370298e-01 3.106677e-01 3.074481e+00 -4.984332e-01 -2.793868e+00 1.258237e-01 2.106983e+00 1.011818e-01 -2.567091e+00 -1.229823e+00 -2.302323e-01 9.177998e-01 -1.259570e+00 -1.715430e+00 -3.005821e+00 1.640835e+00 -3.326357e-01 -1.007379e+00 -4.147550e+00 -4.453723e-03 4.572088e+00 -5.343521e-01 1.980427e-01 -6.010113e-01 -3.312959e+00 4.756531e-01 -6.980565e-01 8.732049e-01 6.007104e-01 7.152503e-01 8.517304e-01 6.973056e-01 7.964957e-01 1.104921e+00 2.370825e-01 
2.757813e+00 -1.331143e+00 4.857148e+00 -5.249677e-01 -8.641816e+01 2.015873e+00 -3.543836e-01 -3.903122e-01 -1.886180e+00 -9.990754e-01 -2.097021e+00 -1.119772e+00 -1.700222e+00 -2.444237e+00 -2.972006e-01 -3.716102e+00 1.367554e+00 1.152580e+00 1.468748e-01 -6.316418e-01 -3.815115e-01 4.848453e-01 -5.448364e-01 -1.571739e+00 1.632672e-01 2.613334e-02 -4.940888e-01 7.853718e-02 3.696264e-02 -8.763810e-01 -2.954218e-01 1.143307e+00 -6.118753e-02 -1.822804e+00 2.658272e-01 1.508154e+00 -9.030122e-02 -1.795757e+00 5.158928e-01 1.031919e+00 -2.670307e-01 -4.988416e-01 3.704441e-01 -4.928190e-01 -5.012727e-02 6.970546e-01 1.593364e-01 -1.542694e+00 9.650777e-02 3.591289e+00 -1.599638e-01 1.659604e+00 -6.520475e-01 -1.238215e+00 5.640616e-02 -7.173677e-01 5.551052e-01 1.726669e-01 6.504397e-01 5.683104e-01 7.457680e-01 6.298933e-01 1.189067e+00 1.252453e-01 
2.741833e+00 -1.243853e+00 4.563725e+00 -2.489325e-01 -7.943065e+01 1.935890e+00 -3.479022e-01 -3.286134e-01 -1.761281e+00 -1.113025e+00 -1.787348e+00 -1.502312e+00 -1.129350e+00 -2.022694e+00 -1.822292e-01 -1.340487e+00 7.410325e-01 -8.146645e-01 -1.147876e-01 1.585502e-01 -2.098919e-01 -1.235842e-01 -1.761830e-01 -5.283313e-01 -2.842814e-01 -1.296709e-01 -5.772689e-02 -1.922963e-01 -2.530258e-01 -9.850173e-02 -3.234198e-02 1.682985e-02 -5.050321e-02 -3.312147e-01 1.405606e-02 9.920588e-02 1.934038e-01 -4.256364e-01 -6.767057e-02 1.391313e-01 2.392087e-01 -1.798524e-01 -6.485802e-02 -1.587230e-01 3.100121e-01 1.708334e-01 -4.691388e-03 2.293000e-01 -2.935615e-01 1.957891e+00 -4.202417e-01 8.840380e-01 -1.828649e-01 -3.542401e-01 7.746468e-02 -4.131801e-01 3.913056e-01 5.614287e-02 5.669129e-01 4.051775e-01 7.344035e-01 5.019901e-01 1.210808e+00 3.234660e-02 
2.658454e+00 -1.194801e+00 4.297644e+00 -2.223044e-01 -7.283099e+01 1.851451e+00 -1.589167e-01 -2.912853e-01 -1.454200e+00 -1.050963e+00 -1.448596e+00 -1.236137e+00 -9.230731e-01 -1.426870e+00 -3.757002e-01 -1.065642e+00 -7.427271e-02 -8.863385e-01 -3.092406e-03 -1.505312e-01 -2.149976e-01 -2.674452e-01 -7.296417e-02 -3.911094e-01 -2.108825e-01 -1.491968e-01 -1.095326e-01 -2.917594e-01 -1.153997e-01 2.610703e-02 -1.158782e-01 -2.233442e-01 3.011548e-02 -3.187599e-03 -4.528572e-02 -1.483067e-01 1.553195e-01 -1.071831e-01 -1.918878e-02 4.430919e-02 1.207066e-01 -1.468646e-01 2.016144e-02 1.797100e-01 8.791574e-02 -3.370055e-02 -9.383728e-03 6.222738e-01 -2.084115e-01 6.998954e-01 -1.587565e-01 8.024745e-01 -3.118321e-02 1.557936e-01 9.697100e-02 -9.694890e-02 3.099402e-01 7.851127e-02 4.941219e-01 3.060858e-01 6.968449e-01 3.830530e-01 1.187962e+00 -5.986235e-02 
2.514996e+00 -1.125712e+00 3.941752e+00 -1.236849e-01 -6.526890e+01 1.704706e+00 -7.936130e-02 -2.857040e-01 -1.247656e+00 -1.035467e+00 -1.227564e+00 -1.134176e+00 -7.984668e-01 -1.091526e+00 -3.976424e-01 -8.514058e-01 -1.033394e-01 -8.202552e-01 -1.858774e-01 -3.302525e-01 -1.626691e-01 -3.099366e-01 -7.038014e-02 -2.813481e-01 -2.005140e-01 -1.742237e-01 -4.982705e-02 -1.983088e-01 -1.296108e-01 -4.265826e-02 -3.159474e-02 -1.457649e-01 6.478909e-03 -3.670342e-02 -1.799661e-02 -1.088562e-01 1.206620e-01 -6.783047e-02 -4.985861e-02 1.225504e-03 1.319003e-01 -5.132687e-02 -2.718050e-02 1.247743e-01 9.148509e-02 1.141641e-01 -5.755873e-02 4.615058e-01 -2.157671e-01 5.568164e-01 -1.257560e-01 4.959251e-01 3.466699e-02 1.943836e-01 1.329275e-01 5.021454e-02 2.748847e-01 1.288673e-01 4.320232e-01 2.694256e-01 6.365493e-01 3.101818e-01 1.123560e+00 -1.221152e-01 
2.312628e+00 -1.057769e+00 3.574799e+00 -1.321669e-01 -5.791538e+01 1.530093e+00 5.921932e-02 -2.387418e-01 -9.876949e-01 -8.886618e-01 -1.016902e+00 -8.950416e-01 -7.321375e-01 -8.241503e-01 -4.777599e-01 -7.068419e-01 -3.483110e-01 -5.750808e-01 -1.945077e-01 -4.464481e-01 -1.712582e-01 -3.444835e-01 -4.991521e-02 -3.077561e-01 -1.358727e-01 -1.812296e-01 -4.457934e-02 -1.819081e-01 -7.100886e-02 -9.555037e-02 -2.972886e-02 -1.009927e-01 1.948470e-02 -6.317662e-02 -1.096435e-02 -4.194881e-02 7.447624e-02 -3.984674e-02 -2.621264e-02 3.451995e-02 6.377657e-02 2.191904e-02 -3.545475e-02 1.438367e-01 4.833456e-03 1.473088e-01 -7.427588e-02 2.773824e-01 -1.145105e-01 2.984111e-01 -2.567486e-02 3.098029e-01 1.075648e-01 2.282175e-01 1.793776e-01 1.884173e-01 2.586235e-01 2.121591e-01 3.716933e-01 2.646055e-01 5.599706e-01 2.519549e-01 1.025167e+00 -1.696490e-01 
2.066673e+00 -9.751152e-01 3.157335e+00 -1.245438e-01 -4.985155e+01 1.346934e+00 1.375274e-01 -2.293940e-01 -7.901406e-01 -8.048430e-01 -8.430279e-01 -7.232844e-01 -6.464996e-01 -5.772421e-01 -4.468491e-01 -5.691835e-01 -3.504775e-01 -4.474844e-01 -2.359207e-01 -5.440824e-01 -1.533426e-01 -3.580636e-01 -4.825416e-02 -2.610957e-01 -9.369159e-02 -1.717925e-01 -2.743377e-02 -1.171536e-01 -3.840846e-02 -1.227049e-01 -6.948593e-03 -4.023934e-02 2.565079e-02 -9.045671e-02 3.564826e-03 7.653704e-03 4.221093e-02 -3.195285e-02 -1.500621e-02 3.929393e-02 2.423628e-02 7.418507e-02 -4.048124e-02 1.220846e-01 -4.510451e-02 2.069061e-01 -8.421262e-02 1.337069e-01 -8.546228e-02 1.956599e-01 2.444887e-02 1.386792e-01 1.287702e-01 1.816645e-01 1.906221e-01 2.409805e-01 2.275866e-01 2.569884e-01 3.024191e-01 2.618333e-01 4.677583e-01 2.140060e-01 8.987000e-01 -1.925024e-01 
1.772900e+00 -8.846916e-01 2.709122e+00 -1.679627e-01 -4.184425e+01 1.132171e+00 2.189558e-01 -2.335978e-01 -5.519787e-01 -7.269643e-01 -6.124857e-01 -5.240254e-01 -5.362143e-01 -2.181827e-01 -4.778602e-01 -3.521282e-01 -4.770126e-01 -1.668172e-01 -3.863702e-01 -7.729042e-01 -1.079882e-01 -3.696014e-01 4.629142e-02 -2.475191e-01 -1.234620e-01 -1.794367e-01 7.536199e-02 -5.973897e-02 -8.444116e-02 -2.290133e-01 8.563290e-02 6.291766e-02 1.442927e-03 -1.756041e-01 2.396598e-02 1.222909e-01 3.454415e-02 -3.023809e-02 -8.205236e-02 6.014391e-02 6.918551e-02 1.476678e-01 -1.517514e-01 8.633285e-02 2.600453e-03 3.597567e-01 -2.115473e-01 -9.157559e-02 -3.074192e-02 2.709632e-02 5.556400e-02 -1.651207e-01 2.861181e-01 1.834014e-01 2.683065e-01 3.919578e-01 1.870004e-01 3.415023e-01 2.055635e-01 2.608614e-01 3.535400e-01 1.711434e-01 7.465653e-01 -2.063615e-01 
1.454422e+00 -7.889415e-01 2.238426e+00 -2.148232e-01 -3.337805e+01 9.285848e-01 2.753689e-01 -2.383869e-01 -3.509995e-01 -6.844117e-01 -4.004605e-01 -4.188778e-01 -3.819015e-01 1.668154e-01 -4.814575e-01 9.855032e-02 -5.348794e-01 -3.994545e-01 -4.687068e-01 -7.975341e-01 -2.781041e-02 -5.500230e-01 1.542365e-01 8.886031e-02 -1.639481e-01 -3.285059e-01 1.546072e-01 6.910091e-02 -1.087514e-01 -2.138765e-01 1.279267e-01 -8.328825e-03 5.884650e-03 1.217471e-02 1.127219e-02 -9.590020e-02 6.075638e-02 2.660057e-01 -1.396198e-01 -1.964179e-01 1.146462e-01 3.657359e-01 -2.315625e-01 1.180503e-02 1.450568e-02 4.507126e-01 -2.966088e-01 -2.574734e-02 -2.560491e-03 -4.129366e-01 1.028165e-01 -3.719539e-01 3.811652e-01 2.959787e-01 2.730551e-01 5.080125e-01 1.073977e-01 3.727438e-01 9.867722e-02 2.377903e-01 2.345176e-01 1.311165e-01 5.809260e-01 -2.064461e-01 
1.104580e+00 -6.666508e-01 1.715398e+00 -2.486140e-01 -2.482459e+01 7.071844e-01 2.680103e-01 -2.934859e-01 -1.531322e-01 -8.481395e-01 -4.833053e-02 -6.611068e-01 7.991460e-02 7.605656e-01 -5.140410e-01 1.488045e+00 -6.774984e-01 -1.006818e+00 -1.174068e+00 -8.729105e-01 4.456463e-01 -1.200627e+00 6.961726e-01 1.288055e+00 -8.193529e-01 -1.085648e+00 9.287034e-01 5.968672e-01 -8.165403e-01 -4.017131e-01 8.187330e-01 -2.265710e-01 -2.986172e-01 6.797843e-01 1.073822e-01 -9.493506e-01 3.315375e-01 1.460610e+00 -7.272316e-01 -1.265557e+00 8.853257e-01 1.250417e+00 -1.027753e+00 -5.576724e-01 9.559316e-01 9.798853e-01 -1.055425e+00 5.420084e-01 2.173002e-01 -1.527783e+00 -2.665936e-01 -1.308835e+00 1.164697e+00 1.040172e+00 3.330178e-01 8.617467e-01 -1.329180e-01 3.509244e-01 -9.100811e-02 1.473742e-01 9.609960e-02 6.220015e-02 4.077090e-01 -2.010804e-01 
7.473077e-01 -5.419991e-01 1.193209e+00 -2.931211e-01 -1.606896e+01 4.971764e-01 2.734747e-01 -2.745976e-01 1.321170e-02 -8.454289e-01 1.697396e-01 -9.702243e-01 5.534750e-01 -3.722722e-01 5.351330e-01 1.168588e+00 -1.499738e+00 -1.567791e+00 2.073187e+00 1.423303e+00 1.205279e+00 2.506873e-01 2.040162e+00 1.508174e+00 2.240912e-01 8.891212e-01 1.629452e+00 8.199553e-01 9.709071e-01 1.398806e+00 9.760734e-01 2.174027e-01 1.673601e+00 1.829910e+00 2.848969e-01 2.422396e-01 2.264611e+00 1.707891e+00 3.679042e-01 1.105485e+00 2.285045e+00 1.265428e+00 1.121525e+00 2.268862e+00 1.746775e+00 1.233954e+00 1.753957e+00 2.632490e+00 8.435218e-01 -5.596716e-01 1.717989e+00 4.410539e-01 1.597974e+00 2.023770e+00 1.282913e-01 9.834653e-01 -3.665918e-01 2.329308e-01 -2.323835e-01 4.244513e-02 -1.812301e-02 -1.191003e-03 2.369323e-01 -1.862247e-01 
3.779609e-01 -3.374153e-01 5.811236e-01 -1.727020e-01 -7.098041e+00 2.718293e-01 1.072092e-01 -1.162889e-01 -6.676963e-02 -8.613391e-01 1.534987e-01 -3.188069e+00 2.361389e+00 -9.275009e+00 5.863797e+00 -4.823742e+00 -1.674119e+00 -7.500974e+00 2.402890e+01 2.775107e+01 1.417487e+01 1.654247e+01 1.984461e+01 4.681402e+00 8.558617e+00 2.499116e+01 2.009707e+01 5.928393e+00 1.616774e+01 3.093217e+01 1.637641e+01 8.777303e+00 2.177373e+01 2.153932e+01 8.499058e+00 1.429604e+01 2.388817e+01 8.227012e+00 8.187733e+00 2.464345e+01 2.257306e+01 3.746458e+00 1.472598e+01 3.302908e+01 2.051695e+01 5.551449e+00 2.215011e+01 3.046770e+01 1.114576e+01 1.898514e+01 1.870055e+01 3.606329e+01 7.931651e+00 7.271620e+00 -1.735929e+00 -1.203684e-01 -1.170673e+00 -4.201936e-01 -3.948121e-01 -1.599319e-01 -8.452204e-02 -6.052170e-02 9.410688e-02 -1.434761e-01 
9.617521e-03 -1.487996e-01 8.779876e-03 -1.433668e-01 1.801431e+00 5.209819e-02 4.828678e-02 -2.852917e-02 7.373242e-03 -8.114085e-01 2.767512e-01 -3.941636e+00 3.095363e+00 -1.238334e+01 8.445500e+00 -8.809590e+00 -1.318730e+00 -2.422531e+00 3.597661e+01 3.453189e+01 2.037339e+01 3.098321e+01 2.474375e+01 1.257670e+00 1.717150e+01 3.934568e+01 2.300801e+01 8.159327e+00 2.713832e+01 4.130424e+01 2.004321e+01 1.811468e+01 3.115379e+01 2.339661e+01 1.297536e+01 2.753218e+01 2.914369e+01 4.657570e+00 1.570080e+01 3.787057e+01 2.378992e+01 2.072174e+00 2.456365e+01 4.240952e+01 2.136678e+01 1.019490e+01 3.167462e+01 3.265555e+01 1.374232e+01 3.306187e+01 2.487058e+01 4.480244e+01 5.910020e+00 5.866251e+00 -2.667027e+00 -1.031001e+00 -1.301547e+00 -7.287796e-01 -3.957237e-01 -2.590897e-01 -1.288858e-01 -9.949507e-02 -5.163832e-02 -9.827553e-02 
-3.684240e-01 1.267640e-01 -6.502491e-01 3.813509e-02 1.089750e+01 -3.373232e-01 1.041917e-02 1.280928e-01 2.721660e-01 4.226370e-01 1.135842e-01 1.105080e+00 -7.076432e-01 3.132733e+00 -2.307836e+00 2.911522e+00 4.167569e-02 -6.408988e-01 -9.651252e+00 -5.773830e+00 -4.613810e+00 -7.678486e+00 -6.213786e+00 1.335518e+00 -6.209552e+00 -1.116685e+01 -5.796660e+00 -1.917224e+00 -9.667259e+00 -1.194280e+01 -5.477669e+00 -6.375390e+00 -1.085426e+01 -6.296137e+00 -4.427022e+00 -1.073924e+01 -9.960294e+00 -2.643846e-01 -6.735427e+00 -1.519429e+01 -8.009227e+00 -2.571778e-01 -1.119040e+01 -1.765025e+01 -7.642746e+00 -4.769746e+00 -1.445734e+01 -1.380957e+01 -5.627830e+00 -1.639602e+01 -1.193156e+01 -2.058874e+01 -1.808510e+00 -2.431133e+00 1.254209e+00 4.214190e-01 5.110587e-01 2.853668e-01 7.149172e-02 5.793864e-02 -8.237938e-02 -2.911323e-02 -1.752734e-01 -1.344936e-02 