# vtk DataFile Version 2.0
Comment goes here
ASCII

DATASET STRUCTURED_POINTS
FIELD FieldData 1
TIME 1 1 double
0.02600000
DIMENSIONS    64   64   1

ORIGIN    0.000   0.000   0.000
SPACING   0.03125 0.03125   1.000

POINT_DATA   4096
SCALARS Omega double
LOOKUP_TABLE default

1.453746e-01 -1.462548e-01 -1.329075e-01 -2.177319e-01 -1.650757e-01 2.718465e-01 -1.227019e-01 1.941464e-02 -9.337511e-02 8.906506e-03 -4.634666e-02 -9.570112e-03 1.276307e-02 -2.154400e-02 7.792865e-02 -4.741024e-02 1.656888e-01 -9.956581e-02 2.580528e-01 -1.294545e-01 2.799128e-01 -9.464380e-02 2.852032e-01 -8.851684e-02 2.807128e-01 -7.565176e-02 2.625864e-01 -3.167203e-02 2.263045e-01 1.128571e-02 1.848628e-01 3.770752e-02 1.636971e-01 6.251181e-02 1.475236e-01 9.532320e-02 1.015431e-01 1.389273e-01 4.534335e-02 1.952770e-01 -9.585345e-03 2.356457e-01 -2.690498e-02 1.997293e-01 -8.933220e-03 1.323718e-01 3.291711e-02 9.358344e-02 1.411255e-02 7.417863e-02 -1.860171e-02 6.783090e-02 -6.628535e-02 7.987273e-02 -1.195884e-01 8.429496e-02 -1.479598e-01 7.716008e-02 -1.671989e-01 7.088208e-02 -1.785191e-01 7.554129e-02 -2.516549e-01 1.527487e-01 
-2.417030e+00 -2.307191e+01 2.765804e+00 -2.240334e+01 2.213267e+00 -2.265308e+01 1.699491e+00 -2.177133e+01 -5.977412e-01 -1.950172e+01 -4.256437e+00 -1.600643e+01 -8.693433e+00 -1.166698e+01 -1.409323e+01 -6.031252e+00 -2.074600e+01 2.904486e-01 -2.691898e+01 5.197100e+00 -3.113997e+01 8.098616e+00 -3.290654e+01 8.408261e+00 -3.236889e+01 7.185785e+00 -3.108513e+01 6.074509e+00 -3.050874e+01 6.031975e+00 -3.075424e+01 6.241707e+00 -3.079992e+01 6.185611e+00 -3.052055e+01 5.652460e+00 -2.949807e+01 4.132122e+00 -2.740407e+01 1.740719e+00 -2.494296e+01 -9.414583e-02 -2.407604e+01 5.604795e-01 -2.575365e+01 3.086986e+00 -2.845522e+01 6.011410e+00 -3.090729e+01 8.368630e+00 -3.257470e+01 9.603653e+00 -3.281455e+01 9.481700e+00 -3.152918e+01 7.529611e+00 -2.787670e+01 2.873154e+00 -2.163905e+01 -3.899712e+00 -1.379489e+01 -1.168362e+01 -4.224114e+00 -1.955986e+01 
-1.897620e+01 2.874984e+00 -2.016399e+01 4.781556e+00 -5.943381e+00 5.027957e+00 -1.973605e+01 5.020878e+00 -2.657228e+01 4.283751e+00 -3.048041e+01 3.053803e+00 -3.298934e+01 1.693583e+00 -3.433258e+01 -4.594371e-01 -3.404823e+01 -3.376753e+00 -3.344877e+01 -5.446501e+00 -3.335714e+01 -6.653734e+00 -3.412772e+01 -6.462207e+00 -3.575659e+01 -5.593119e+00 -3.733962e+01 -4.985229e+00 -3.802379e+01 -5.297385e+00 -3.788461e+01 -5.650103e+00 -3.798949e+01 -5.718981e+00 -3.810044e+01 -5.686107e+00 -3.840688e+01 -5.088005e+00 -3.931704e+01 -3.783757e+00 -4.063664e+01 -2.563380e+00 -4.093302e+01 -2.828623e+00 -3.952062e+01 -4.070905e+00 -3.754625e+01 -5.406745e+00 -3.551442e+01 -6.474770e+00 -3.357671e+01 -6.986303e+00 -3.210929e+01 -7.045929e+00 -3.079756e+01 -6.458801e+00 -3.027924e+01 -4.436870e+00 -3.065793e+01 -1.417230e+00 -3.107183e+01 2.206436e+00 -3.393861e+01 5.841586e+00 
-9.255788e+00 6.204515e+00 -1.163097e+01 6.600625e+00 -9.579901e+00 7.183574e+00 -1.033389e+01 6.841062e+00 -1.370698e+01 5.752859e+00 -1.522876e+01 4.262105e+00 -1.582096e+01 2.657237e+00 -1.554113e+01 4.962811e-01 -1.413487e+01 -2.078325e+00 -1.262785e+01 -3.903955e+00 -1.170411e+01 -4.921761e+00 -1.169915e+01 -4.796447e+00 -1.259385e+01 -4.094283e+00 -1.363712e+01 -3.577293e+00 -1.410820e+01 -3.758158e+00 -1.403186e+01 -4.024451e+00 -1.410814e+01 -4.088203e+00 -1.421934e+01 -3.990313e+00 -1.455509e+01 -3.396408e+00 -1.538697e+01 -2.261804e+00 -1.649827e+01 -1.277555e+00 -1.681473e+01 -1.541917e+00 -1.579928e+01 -2.663226e+00 -1.431602e+01 -3.935460e+00 -1.285713e+01 -4.963351e+00 -1.157142e+01 -5.498036e+00 -1.075904e+01 -5.507712e+00 -1.027910e+01 -4.825110e+00 -1.061697e+01 -2.905453e+00 -1.190130e+01 -1.050387e-01 -1.352160e+01 3.128606e+00 -1.668676e+01 6.773503e+00 
-1.737606e-01 4.902708e-01 -6.079495e-01 -9.112528e-02 -2.330652e+01 -3.222494e-01 1.882525e-01 -2.549685e-02 -9.733063e-02 -2.418513e-02 -1.894004e-01 -1.427096e-02 -2.073052e-01 -8.601985e-03 -1.960751e-01 -1.228468e-02 -1.766003e-01 -2.325147e-02 -1.586333e-01 -3.914496e-02 -1.488100e-01 -5.520519e-02 -1.443205e-01 -6.490731e-02 -1.455045e-01 -6.131169e-02 -1.519221e-01 -5.016999e-02 -1.619904e-01 -3.790633e-02 -1.714300e-01 -3.036223e-02 -1.778275e-01 -2.794508e-02 -1.766726e-01 -3.062258e-02 -1.667403e-01 -4.524179e-02 -1.576517e-01 -5.815884e-02 -1.522467e-01 -6.105191e-02 -1.552760e-01 -5.082288e-02 -1.674015e-01 -3.372104e-02 -1.812198e-01 -1.536988e-02 -1.857035e-01 -7.589543e-03 -1.773607e-01 -1.146421e-02 -1.580360e-01 -2.840844e-02 -1.324261e-01 -5.068095e-02 -1.049673e-01 -6.474802e-02 -7.940698e-02 -6.290803e-02 -6.448850e-02 -5.907143e-02 -5.451635e-02 1.452008e-01 
-1.200489e-01 -1.488028e-01 -3.970136e-01 -3.516867e-01 -2.694418e+01 -3.350637e-01 3.052511e-01 -9.895774e-02 1.849937e-01 -4.921588e-02 1.021178e-01 -2.711620e-02 5.655366e-02 -1.672447e-02 3.095885e-02 -1.227916e-02 1.755864e-02 -1.139780e-02 9.334864e-03 -1.091317e-02 5.156910e-03 -1.122007e-02 1.117063e-03 -1.058257e-02 -1.071780e-03 -9.589937e-03 -2.420080e-03 -7.509141e-03 -1.035359e-03 -3.377324e-03 3.215892e-04 -6.195069e-04 1.942741e-03 2.834981e-03 2.869828e-03 4.598531e-03 2.256242e-03 3.141856e-03 -2.050353e-03 -4.791976e-04 -6.959724e-03 -2.835514e-03 -7.949293e-03 -2.046383e-03 -7.158654e-03 1.919586e-04 -2.245443e-03 5.084529e-03 1.389451e-03 6.379755e-03 2.632789e-03 9.383164e-03 -7.233790e-04 1.270568e-02 -7.720684e-03 1.545929e-02 -1.887294e-02 1.755146e-02 -3.645352e-02 1.960464e-02 -6.649127e-02 3.271439e-02 -9.657842e-02 2.382110e-01 
-1.926157e-01 -3.823302e-02 -3.918028e-01 -4.533096e-01 -3.390393e+01 -5.396805e-01 2.757395e-01 -7.174153e-02 2.006576e-01 -4.798239e-02 1.181250e-01 -3.028560e-02 7.235702e-02 -1.873218e-02 4.579668e-02 -1.384638e-02 3.045347e-02 -1.466016e-02 1.775510e-02 -1.509628e-02 8.911329e-03 -1.645345e-02 6.732582e-04 -1.614294e-02 -3.030113e-03 -1.462308e-02 -4.898702e-03 -1.134947e-02 -2.575554e-03 -5.615745e-03 5.375536e-04 -1.266280e-03 3.453173e-03 3.393439e-03 5.232087e-03 4.375465e-03 3.151630e-03 3.172715e-03 -1.381962e-03 -7.318846e-04 -7.490836e-03 -2.617464e-03 -8.712313e-03 -1.164994e-03 -7.148898e-03 2.748728e-03 -6.147947e-04 9.043203e-03 6.570548e-03 1.239895e-02 9.979678e-03 1.707256e-02 6.395746e-03 2.122271e-02 -3.524707e-03 2.356122e-02 -1.930052e-02 2.522934e-02 -4.186971e-02 2.969426e-02 -7.541758e-02 4.896244e-02 -1.235150e-01 1.350806e-01 
-1.176080e-01 2.623277e-02 -1.981623e-01 -5.323083e-01 -3.561303e+01 -4.051040e-01 1.391048e-01 -9.470844e-02 1.512220e-01 -6.732453e-02 9.895447e-02 -4.541792e-02 5.857037e-02 -2.991724e-02 3.288770e-02 -2.130660e-02 2.226289e-02 -2.328114e-02 1.393644e-02 -1.844340e-02 1.161627e-02 -1.735282e-02 5.112990e-03 -1.302769e-02 4.925658e-03 -1.117428e-02 5.355736e-04 -9.041256e-03 1.653563e-03 -4.451732e-03 1.040348e-03 -3.419512e-03 1.648834e-03 2.273510e-03 3.297383e-03 1.477433e-03 5.104357e-04 4.183045e-03 4.382799e-04 1.699573e-03 -5.419664e-03 2.259866e-03 -4.678084e-03 3.736382e-03 -6.828576e-03 4.839798e-03 -3.174055e-03 8.577345e-03 1.479598e-03 4.569174e-03 3.590501e-03 9.037345e-03 -1.434759e-03 1.688977e-02 -1.016801e-02 2.440639e-02 -2.195604e-02 3.222915e-02 -3.835797e-02 4.382245e-02 -6.154178e-02 6.799119e-02 -8.768936e-02 1.113368e-01 
-1.354839e-01 5.249628e-02 -1.766910e-01 -5.114517e-01 -3.995663e+01 -5.944200e-01 8.746655e-02 -8.283378e-02 1.392129e-01 -5.986028e-02 9.667767e-02 -4.157460e-02 6.050099e-02 -2.737275e-02 3.688257e-02 -2.115721e-02 3.090811e-02 -2.747799e-02 1.820677e-02 -2.148891e-02 1.567332e-02 -2.061558e-02 3.990553e-03 -1.679363e-02 4.378654e-03 -1.406709e-02 -2.405344e-03 -1.273798e-02 -2.047382e-04 -5.818032e-03 -3.488571e-04 -5.478417e-03 6.529342e-04 2.527662e-03 4.017259e-03 5.382757e-04 -6.015608e-04 4.384232e-03 9.448093e-04 1.481075e-03 -7.325705e-03 2.411975e-03 -5.129321e-03 5.180842e-03 -8.336804e-03 6.772800e-03 -2.584842e-03 1.289175e-02 4.651156e-03 7.823699e-03 9.456674e-03 1.320584e-02 3.656745e-03 2.162463e-02 -7.466869e-03 2.855282e-02 -2.220946e-02 3.516116e-02 -4.166343e-02 4.486033e-02 -6.807396e-02 6.185268e-02 -1.013984e-01 8.220937e-02 
-6.785827e-02 7.026240e-02 -4.878989e-02 -5.754916e-01 -4.034744e+01 -4.721624e-01 -7.337522e-04 -9.247843e-02 8.020771e-02 -7.262292e-02 6.448594e-02 -5.232632e-02 3.847846e-02 -3.221123e-02 1.607150e-02 -1.852173e-02 2.254467e-02 -4.226794e-02 1.268502e-02 -2.301626e-02 2.115315e-02 -2.618319e-02 1.988850e-03 -1.426588e-02 1.367178e-02 -1.242516e-02 -3.728447e-03 -1.438420e-02 5.138217e-03 -1.677479e-03 -1.722132e-03 -1.149925e-02 -2.574017e-04 7.799587e-03 5.925680e-03 -5.063887e-03 -4.752235e-03 9.454408e-03 6.935977e-03 1.244854e-03 -1.157325e-02 5.130190e-03 4.680850e-04 1.043865e-02 -1.401530e-02 6.190829e-03 -5.397897e-03 2.026778e-02 1.331346e-03 -6.582594e-03 1.196971e-02 4.643092e-03 2.099903e-03 2.035196e-02 -9.608354e-03 3.180908e-02 -2.049408e-02 4.206894e-02 -3.233796e-02 5.478584e-02 -4.613156e-02 7.181439e-02 -5.918753e-02 8.577168e-02 
-6.958605e-02 7.588450e-02 -3.162588e-02 -5.396793e-01 -4.297617e+01 -6.113495e-01 -4.110753e-02 -9.312516e-02 6.561888e-02 -6.755771e-02 5.609420e-02 -4.502445e-02 3.100600e-02 -2.292655e-02 6.809438e-03 -1.439327e-02 3.688077e-02 -5.403646e-02 1.043800e-02 -2.493908e-02 3.204834e-02 -2.651330e-02 -4.203706e-03 -1.851635e-02 1.920707e-02 -1.020178e-02 -9.443079e-03 -2.124669e-02 5.398479e-03 1.664570e-03 -3.658934e-03 -1.777897e-02 -3.100045e-03 1.130923e-02 9.598471e-03 -8.415956e-03 -9.459513e-03 1.114153e-02 1.243521e-02 1.322991e-03 -1.761279e-02 4.366711e-03 4.212946e-03 1.413452e-02 -1.960139e-02 5.916506e-03 -4.748341e-03 2.866910e-02 2.153202e-03 -8.069892e-03 2.202135e-02 5.097296e-03 8.419082e-03 2.265988e-02 -7.250718e-03 3.383369e-02 -2.068942e-02 4.255669e-02 -3.428376e-02 5.264852e-02 -4.942337e-02 6.526732e-02 -6.369752e-02 7.620176e-02 
-1.516552e-02 8.106637e-02 5.105672e-02 -5.876853e-01 -4.240502e+01 -4.970007e-01 -9.168540e-02 -9.749766e-02 1.825711e-02 -7.729098e-02 2.627893e-02 -5.435736e-02 8.215774e-03 -1.949264e-02 -3.363031e-02 2.445730e-02 3.261342e-02 -1.066462e-01 -2.635934e-04 -8.381989e-03 5.622161e-02 -4.592491e-02 -3.001609e-02 -1.142612e-02 5.118448e-02 -3.943245e-03 -3.636081e-02 -3.953823e-02 2.733481e-02 2.778208e-02 -1.760391e-02 -5.074863e-02 -1.802380e-03 4.520057e-02 2.077159e-02 -3.715142e-02 -2.825389e-02 3.344413e-02 4.143773e-02 -6.556022e-03 -4.812259e-02 1.490055e-03 3.365469e-02 3.205357e-02 -4.811910e-02 -1.349139e-02 -8.953689e-04 7.637474e-02 -1.059684e-02 -6.019253e-02 4.713615e-02 -4.083003e-03 1.063628e-02 2.764116e-02 -9.222331e-03 4.026259e-02 -1.783184e-02 4.922961e-02 -2.304472e-02 5.973313e-02 -2.668363e-02 7.182246e-02 -2.599599e-02 8.114902e-02 
-1.316026e-02 8.369587e-02 6.210853e-02 -5.546738e-01 -4.378343e+01 -5.930385e-01 -1.168480e-01 -1.045982e-01 1.067660e-02 -7.777404e-02 2.147079e-02 -4.691226e-02 -4.841546e-03 6.623587e-03 -8.580713e-02 5.091329e-02 8.836867e-02 -1.497107e-01 -3.431196e-02 -4.053694e-03 1.056079e-01 -3.480313e-02 -6.851393e-02 -3.233039e-02 8.771765e-02 2.458303e-02 -6.461613e-02 -7.040212e-02 3.901759e-02 6.071094e-02 -2.623995e-02 -7.974747e-02 -1.141936e-02 6.828749e-02 4.107022e-02 -5.373356e-02 -5.172192e-02 3.834500e-02 7.491032e-02 -4.353659e-03 -7.950477e-02 -8.145284e-03 6.162595e-02 5.066427e-02 -7.804733e-02 -2.764257e-02 8.058877e-03 1.102691e-01 -2.852981e-02 -7.509627e-02 7.852776e-02 -8.480755e-03 1.827676e-02 2.993922e-02 -1.015104e-02 4.232349e-02 -2.013429e-02 4.929697e-02 -2.516318e-02 5.740149e-02 -2.842600e-02 6.732685e-02 -2.694741e-02 7.713575e-02 
2.689805e-02 8.401530e-02 1.177259e-01 -5.962663e-01 -4.247779e+01 -4.785863e-01 -1.419829e-01 -1.077767e-01 -2.110001e-02 -9.146512e-02 6.334381e-03 -7.047738e-02 -3.209424e-03 4.682389e-03 -1.924565e-01 3.223200e-01 1.347479e-01 -3.575444e-01 -6.082403e-02 1.885981e-01 2.248738e-01 -1.117639e-01 -2.055609e-01 3.028712e-02 2.588662e-01 8.312217e-02 -2.183488e-01 -1.690971e-01 1.718288e-01 2.405499e-01 -1.106845e-01 -2.664959e-01 1.703499e-02 2.784846e-01 9.097439e-02 -2.174556e-01 -1.389720e-01 1.575904e-01 2.295861e-01 -4.023626e-02 -2.420260e-01 -4.774773e-02 2.366821e-01 1.639273e-01 -2.239042e-01 -1.874396e-01 8.378184e-02 3.893013e-01 -1.281916e-01 -3.404580e-01 2.024260e-01 1.913183e-02 2.383770e-03 5.367521e-02 -2.311373e-02 5.281348e-02 -1.992719e-02 5.509882e-02 -1.462746e-02 6.193512e-02 -8.216587e-03 7.105825e-02 3.445905e-03 7.968030e-02 
2.821267e-02 8.531654e-02 1.236827e-01 -5.718384e-01 -4.288381e+01 -5.365690e-01 -1.526830e-01 -1.189379e-01 -1.688129e-02 -1.050120e-01 2.144914e-02 -8.528055e-02 1.376921e-02 6.099173e-02 -4.454684e-01 1.152975e+00 2.069673e+00 9.919345e-01 -1.226829e-01 1.459224e+00 1.297921e+00 3.733274e-01 7.577019e-02 1.338702e+00 9.346110e-01 2.801620e-01 5.900899e-01 8.744601e-01 4.326786e-01 6.045517e-01 9.524084e-01 4.254083e-01 5.125528e-02 1.065819e+00 1.114629e+00 1.188058e-01 2.233724e-02 1.129507e+00 9.721417e-01 4.119559e-02 3.288282e-01 7.860067e-01 6.460774e-01 2.606951e-01 6.304728e-01 2.942975e-01 2.374799e-01 8.765904e-01 8.007624e-01 -3.514603e-01 3.464798e-01 3.226590e-02 -9.066717e-03 6.638952e-02 -3.786146e-02 5.850470e-02 -2.708710e-02 5.607180e-02 -1.765856e-02 6.008553e-02 -9.485905e-03 6.779894e-02 3.227967e-03 7.720494e-02 
5.603597e-02 8.254039e-02 1.619290e-01 -6.100346e-01 -4.100412e+01 -4.171259e-01 -1.616427e-01 -1.176211e-01 -3.934304e-02 -1.235350e-01 2.174495e-02 -1.733276e-01 1.433485e-01 -2.446696e-01 -3.905485e-01 5.354181e+00 2.140708e+01 1.609978e+01 1.907899e+00 1.148446e+01 1.618255e+01 5.986451e+00 5.395630e+00 1.639560e+01 1.250688e+01 1.651273e+00 1.150807e+01 1.775697e+01 5.934027e+00 3.013390e+00 1.581569e+01 1.536069e+01 1.894917e+00 8.833577e+00 1.781257e+01 9.213657e+00 3.373653e+00 1.439301e+01 1.525588e+01 3.012290e+00 8.709137e+00 1.754918e+01 9.184745e+00 1.471974e+00 1.347921e+01 1.628319e+01 3.461137e+00 6.236139e+00 2.073408e+01 1.595637e+01 1.270947e+00 4.643060e-01 -2.504046e-01 1.017263e-01 -7.664751e-02 6.306692e-02 -2.607124e-02 5.728759e-02 -6.156177e-03 6.121195e-02 8.187416e-03 6.862280e-02 2.658429e-02 7.704913e-02 
5.542468e-02 8.148928e-02 1.636361e-01 -5.902393e-01 -4.062384e+01 -4.443446e-01 -1.637107e-01 -1.248094e-01 -2.932859e-02 -1.489170e-01 6.925816e-02 -2.896213e-01 3.500644e-01 -8.042133e-01 6.301702e-01 7.033793e+00 2.691212e+01 1.852555e+01 3.148385e+00 1.499498e+01 2.075169e+01 6.487927e+00 8.442939e+00 2.190346e+01 1.587663e+01 1.677689e+00 1.674773e+01 2.360092e+01 7.207575e+00 4.396315e+00 2.234269e+01 2.019674e+01 2.340083e+00 1.285660e+01 2.438912e+01 1.181937e+01 5.260192e+00 2.068357e+01 2.029702e+01 3.818125e+00 1.326407e+01 2.484583e+01 1.155031e+01 2.540680e+00 2.007317e+01 2.283286e+01 3.847490e+00 1.035882e+01 3.087117e+01 2.303315e+01 2.294250e-01 7.662427e-01 -4.180609e-01 1.582323e-01 -1.142656e-01 7.187021e-02 -3.287864e-02 5.683568e-02 -6.959567e-03 5.828844e-02 8.123861e-03 6.502003e-02 2.630620e-02 7.412682e-02 
7.369230e-02 7.619405e-02 1.888787e-01 -6.141383e-01 -3.830713e+01 -3.287436e-01 -1.650447e-01 -1.019440e-01 -5.914081e-02 -9.855888e-02 -2.875166e-03 -1.224448e-01 7.289097e-02 -1.996165e-01 5.245747e-01 -3.982136e+00 -1.270578e+01 -9.204549e+00 -2.938742e-01 -7.226387e+00 -8.661729e+00 -3.434884e+00 -3.050503e+00 -9.250827e+00 -6.016943e+00 -1.171910e+00 -6.510264e+00 -9.286974e+00 -2.390940e+00 -2.037365e+00 -8.490217e+00 -7.555189e+00 -6.912799e-01 -4.993499e+00 -8.912410e+00 -4.181860e+00 -1.984054e+00 -7.539944e+00 -7.134795e+00 -1.178680e+00 -4.881024e+00 -8.573222e+00 -3.978229e+00 -6.708212e-01 -6.979681e+00 -7.299725e+00 -1.604806e+00 -3.249983e+00 -9.904894e+00 -6.905061e+00 -3.355397e-01 2.306712e-02 -3.250811e-04 6.533375e-02 -6.755806e-04 5.338703e-02 3.445093e-03 5.157872e-02 1.181885e-02 5.598545e-02 2.441219e-02 6.317295e-02 4.373208e-02 7.156563e-02 
7.108106e-02 7.250513e-02 1.862349e-01 -5.853585e-01 -3.728494e+01 -3.392062e-01 -1.700558e-01 -8.441999e-02 -8.187572e-02 -4.356533e-02 -8.934249e-02 6.664083e-02 -2.745208e-01 3.807179e-01 -1.021107e-01 -7.154267e+00 -2.901137e+01 -2.100708e+01 -2.983857e+00 -1.569793e+01 -2.217336e+01 -7.714010e+00 -8.226338e+00 -2.291173e+01 -1.704714e+01 -2.078078e+00 -1.694795e+01 -2.489912e+01 -7.874692e+00 -4.399667e+00 -2.294425e+01 -2.149334e+01 -2.533275e+00 -1.294889e+01 -2.536593e+01 -1.272921e+01 -5.219741e+00 -2.106349e+01 -2.135835e+01 -4.084256e+00 -1.328062e+01 -2.556794e+01 -1.245577e+01 -2.293453e+00 -2.025835e+01 -2.367729e+01 -4.439888e+00 -9.828758e+00 -3.109003e+01 -2.375025e+01 -7.790598e-01 -5.696594e-01 3.914219e-01 -3.944677e-02 9.281942e-02 2.401842e-02 2.894239e-02 4.048455e-02 1.950885e-02 4.954341e-02 2.636833e-02 5.812218e-02 4.307845e-02 6.737725e-02 
8.192292e-02 6.590667e-02 1.997635e-01 -5.877466e-01 -3.467046e+01 -2.464845e-01 -1.660011e-01 -7.054796e-02 -9.939183e-02 -3.466724e-02 -1.036462e-01 4.718898e-02 -2.013289e-01 2.592129e-01 -4.317737e-02 -2.028896e+00 -9.237795e+00 -6.183014e+00 -1.392919e+00 -4.872696e+00 -7.523720e+00 -2.322191e+00 -2.570333e+00 -7.417416e+00 -6.173178e+00 -6.142731e-01 -5.424413e+00 -8.231052e+00 -3.152570e+00 -1.473361e+00 -7.666423e+00 -7.238152e+00 -1.023231e+00 -4.494574e+00 -8.901746e+00 -4.459155e+00 -1.553583e+00 -7.323096e+00 -7.818341e+00 -1.580205e+00 -4.224889e+00 -8.972114e+00 -4.804709e+00 -9.677697e-01 -6.851044e+00 -8.536922e+00 -1.625625e+00 -3.714223e+00 -1.098469e+01 -8.451293e+00 -7.289091e-01 -4.336267e-01 1.832704e-01 -6.415104e-02 6.859636e-02 6.626676e-03 3.436285e-02 3.155415e-02 2.935209e-02 4.444987e-02 3.724839e-02 5.415100e-02 5.445461e-02 6.301932e-02 
7.715039e-02 6.098504e-02 1.924710e-01 -5.553690e-01 -3.314717e+01 -2.484385e-01 -1.631206e-01 -6.269019e-02 -1.021072e-01 -3.036293e-02 -1.017248e-01 1.034982e-02 -1.194177e-01 3.048655e-02 3.382793e-02 -4.878103e-01 2.030432e-02 6.597416e-01 -1.526806e-01 -2.913799e-01 -2.031762e-01 3.054458e-01 1.453260e-01 -1.083748e-01 -3.161446e-01 -2.629645e-02 1.737289e-01 2.175503e-01 -2.532937e-01 -3.268717e-01 3.023657e-02 3.869169e-01 -3.793173e-02 -4.806305e-01 -1.931717e-01 3.051180e-01 1.641269e-01 -3.480004e-01 -3.237068e-01 3.402586e-02 2.077806e-01 -3.073812e-02 -2.836185e-01 -2.879898e-01 8.232655e-02 1.878031e-01 7.804565e-03 -6.952807e-01 -1.097213e-01 5.502977e-01 -1.783869e-01 -8.177496e-02 5.413541e-02 -4.206969e-02 5.319855e-02 1.492932e-03 3.619228e-02 2.479453e-02 3.124470e-02 3.853929e-02 3.704012e-02 4.886124e-02 5.205608e-02 5.815116e-02 
8.210021e-02 5.426363e-02 1.953239e-01 -5.353085e-01 -3.033016e+01 -1.830120e-01 -1.526960e-01 -5.566399e-02 -1.030401e-01 -3.179728e-02 -9.317148e-02 -9.040703e-03 -8.519389e-02 -2.154619e-02 2.456488e-02 -2.867290e-01 1.220016e-01 1.655056e-01 -5.976425e-02 -1.584645e-01 -9.614646e-02 9.691841e-02 1.006043e-01 -6.581270e-02 -1.602453e-01 -2.936826e-02 1.556940e-01 7.785588e-02 -1.231493e-01 -1.441396e-01 9.262220e-02 1.586172e-01 -1.790702e-02 -1.719649e-01 -5.313227e-02 1.357584e-01 9.379433e-02 -8.576897e-02 -1.512190e-01 1.718432e-02 1.612240e-01 5.579949e-02 -1.398644e-01 -1.199137e-01 1.361076e-01 1.445824e-01 -4.712872e-03 -2.247860e-01 -7.563409e-03 2.793555e-01 -1.032435e-01 -7.100585e-04 2.618236e-02 -1.676854e-02 3.783105e-02 4.452316e-03 3.377016e-02 2.222691e-02 3.447468e-02 3.487085e-02 4.242615e-02 4.469851e-02 5.791602e-02 5.314695e-02 
7.525046e-02 4.933728e-02 1.833024e-01 -4.981010e-01 -2.840613e+01 -1.820228e-01 -1.426950e-01 -5.318008e-02 -9.369449e-02 -3.508305e-02 -7.748506e-02 -2.594627e-02 -5.289118e-02 -4.619170e-02 2.151065e-02 -1.470689e-01 4.991583e-02 4.617313e-02 -2.365444e-02 -6.941859e-02 -5.445559e-02 2.958075e-02 3.858191e-02 -3.638506e-02 -6.961187e-02 -1.305129e-02 5.974640e-02 2.356787e-02 -4.604090e-02 -5.261144e-02 3.144487e-02 5.583093e-02 -4.099547e-04 -6.517429e-02 -2.938671e-02 4.703418e-02 4.350992e-02 -3.388361e-02 -6.449561e-02 6.095644e-03 6.808390e-02 2.200493e-02 -5.032130e-02 -4.224525e-02 5.769798e-02 5.403640e-02 1.361035e-02 -7.071854e-02 -2.726647e-02 1.336373e-01 -5.377208e-02 2.743676e-02 6.284342e-03 9.884285e-04 2.576141e-02 8.224375e-03 2.895814e-02 2.035412e-02 3.176604e-02 3.104905e-02 3.932480e-02 4.017958e-02 5.330888e-02 4.837018e-02 
7.551178e-02 4.318307e-02 1.772579e-01 -4.608793e-01 -2.544488e+01 -1.374686e-01 -1.291107e-01 -4.870297e-02 -8.792242e-02 -3.549255e-02 -6.963091e-02 -3.038915e-02 -4.598452e-02 -4.439263e-02 1.394015e-03 -9.039920e-02 1.573482e-02 3.703781e-03 -1.389288e-02 -4.345732e-02 -3.008903e-02 6.073386e-03 1.235653e-02 -2.455332e-02 -3.289066e-02 -9.352404e-03 2.341499e-02 6.538733e-03 -2.034171e-02 -2.539127e-02 1.244089e-02 2.377046e-02 -1.490941e-04 -3.234012e-02 -1.291157e-02 2.196557e-02 1.857212e-02 -1.891317e-02 -2.695902e-02 5.832104e-03 3.013331e-02 8.427848e-03 -1.956922e-02 -1.449235e-02 2.742323e-02 2.698848e-02 6.279995e-03 -2.433774e-02 -1.462555e-02 7.554037e-02 -2.726072e-02 2.885149e-02 5.849431e-03 9.900395e-03 2.057509e-02 1.227031e-02 2.624665e-02 2.039125e-02 3.165376e-02 2.881493e-02 4.058483e-02 3.649618e-02 5.469183e-02 4.342275e-02 
6.694139e-02 3.866247e-02 1.610868e-01 -4.186568e-01 -2.319094e+01 -1.342150e-01 -1.155715e-01 -4.680641e-02 -7.555063e-02 -3.614684e-02 -5.685776e-02 -3.283548e-02 -3.500614e-02 -4.022107e-02 -5.041580e-03 -5.619023e-02 3.270445e-03 -1.654683e-02 -8.911609e-03 -2.702799e-02 -1.704638e-02 -6.091011e-03 8.736213e-04 -1.622689e-02 -1.507277e-02 -7.826079e-03 7.036037e-03 -2.114010e-03 -7.476955e-03 -1.119807e-02 3.627203e-03 5.673781e-03 8.011655e-04 -1.286281e-02 -6.303971e-03 6.177514e-03 7.501832e-03 -7.108666e-03 -1.039661e-02 2.376837e-03 1.240060e-02 4.346561e-03 -4.588727e-03 -2.654215e-03 1.224541e-02 1.340155e-02 5.212760e-03 6.478353e-04 -1.204144e-02 4.121809e-02 -1.381460e-02 2.494152e-02 3.229333e-03 1.396525e-02 1.463307e-02 1.433872e-02 2.100138e-02 1.963094e-02 2.693718e-02 2.613915e-02 3.544762e-02 3.267838e-02 4.824272e-02 3.895563e-02 
6.353033e-02 3.312450e-02 1.484860e-01 -3.722248e-01 -2.012773e+01 -1.012879e-01 -1.004453e-01 -4.282047e-02 -6.720439e-02 -3.457860e-02 -5.026608e-02 -3.073176e-02 -3.435532e-02 -3.090718e-02 -1.823029e-02 -3.355783e-02 -6.871860e-03 -2.608137e-02 -8.487533e-03 -2.058458e-02 -7.139982e-03 -1.287006e-02 -5.065875e-03 -1.170669e-02 -4.707359e-03 -7.624116e-03 -1.669215e-03 -5.917245e-03 -2.007583e-03 -5.164040e-03 -6.036123e-04 -2.499307e-03 -1.250195e-04 -3.486219e-03 -1.206041e-03 -6.374888e-04 1.067384e-03 -7.482196e-04 -7.214307e-04 9.242976e-04 2.228057e-03 3.354184e-03 1.465182e-03 3.375995e-03 2.081097e-03 8.710020e-03 1.529221e-03 1.107731e-02 -5.267694e-03 1.944295e-02 -3.775820e-04 1.724066e-02 6.567384e-03 1.522689e-02 1.262690e-02 1.636467e-02 1.824669e-02 1.979942e-02 2.485847e-02 2.433704e-02 3.380944e-02 2.926138e-02 4.623127e-02 3.416866e-02 
5.373874e-02 2.882376e-02 1.293198e-01 -3.270713e-01 -1.760058e+01 -9.392245e-02 -8.495843e-02 -4.008054e-02 -5.437501e-02 -3.289453e-02 -3.966071e-02 -2.802441e-02 -2.892077e-02 -2.277585e-02 -2.275039e-02 -1.813479e-02 -7.289304e-03 -3.068694e-02 -7.682004e-03 -1.509158e-02 9.403734e-04 -1.475057e-02 -8.378196e-03 -8.772463e-03 2.585559e-03 -5.924617e-03 -6.420974e-03 -8.453874e-03 1.654311e-03 -6.527965e-04 -2.808475e-03 -7.720508e-03 -7.056763e-04 2.603430e-03 1.878225e-03 -5.026844e-03 -2.934170e-03 3.349398e-03 5.098822e-03 -2.407313e-04 -4.108999e-03 2.804764e-03 5.504284e-03 6.524712e-03 -4.544558e-03 5.300294e-03 2.563281e-06 1.718851e-02 -3.727469e-03 5.589567e-03 6.946714e-03 1.103304e-02 6.850276e-03 1.473738e-02 8.774050e-03 1.654215e-02 1.314421e-02 1.875348e-02 1.931547e-02 2.187902e-02 2.753735e-02 2.567945e-02 3.858023e-02 2.980849e-02 
4.754053e-02 2.356404e-02 1.126182e-01 -2.790701e-01 -1.447281e+01 -6.435041e-02 -6.818736e-02 -3.613896e-02 -4.396651e-02 -3.154193e-02 -3.066348e-02 -2.645082e-02 -2.515053e-02 -1.263136e-02 -3.721177e-02 1.590032e-02 -1.552426e-02 -5.482082e-02 -5.928055e-03 -1.589797e-04 1.601829e-02 -2.610977e-02 -2.126479e-02 -1.468555e-03 2.102626e-02 -3.928072e-03 -2.319105e-02 -1.727634e-02 1.433452e-02 1.309469e-02 -1.207930e-02 -2.527212e-02 7.682554e-04 2.200486e-02 7.658606e-03 -2.080293e-02 -1.303761e-02 1.643437e-02 2.097976e-02 -5.360759e-03 -2.214085e-02 1.247723e-03 2.086845e-02 1.576149e-02 -2.196324e-02 -6.275883e-03 1.821247e-03 4.187317e-02 -6.311400e-03 -2.807170e-02 2.631937e-02 3.758814e-03 8.998353e-03 1.694439e-02 5.101618e-03 1.847978e-02 9.028674e-03 1.859337e-02 1.569331e-02 1.981855e-02 2.392329e-02 2.210632e-02 3.414681e-02 2.497746e-02 
3.707710e-02 1.905997e-02 9.187165e-02 -2.338649e-01 -1.172246e+01 -5.039352e-02 -5.099403e-02 -3.246211e-02 -3.066640e-02 -2.960324e-02 -1.906680e-02 -2.439049e-02 -1.822413e-02 -4.364970e-03 -4.742718e-02 4.179315e-02 -1.351446e-02 -7.280131e-02 -7.261302e-03 1.179242e-02 3.307180e-02 -2.926984e-02 -3.435566e-02 -2.919868e-04 3.954794e-02 3.459544e-03 -3.821958e-02 -2.714935e-02 2.555248e-02 2.759473e-02 -1.982083e-02 -3.948472e-02 8.133444e-04 3.656215e-02 1.427985e-02 -3.147574e-02 -2.330256e-02 2.294052e-02 3.689379e-02 -6.311840e-03 -3.908308e-02 -3.457569e-03 3.582982e-02 2.547374e-02 -3.836758e-02 -1.797819e-02 4.561934e-03 6.047126e-02 -1.198712e-02 -5.080162e-02 4.122272e-02 4.198173e-04 8.130935e-03 1.773101e-02 -2.942889e-05 1.845988e-02 3.356110e-03 1.709827e-02 9.807158e-03 1.703227e-02 1.725582e-02 1.829611e-02 2.596983e-02 2.038714e-02 
2.888375e-02 1.366137e-02 7.321663e-02 -1.896609e-01 -8.566940e+00 -1.810762e-02 -3.256139e-02 -2.794419e-02 -1.878968e-02 -3.083139e-02 -4.131861e-03 -3.348689e-02 2.715587e-03 -9.093148e-03 -7.519161e-02 1.770011e-01 -3.819638e-02 -2.071035e-01 1.095563e-02 1.053677e-01 8.608317e-02 -8.343956e-02 -1.024342e-01 2.990143e-02 1.325075e-01 2.467582e-02 -1.265281e-01 -7.982244e-02 1.048264e-01 1.148507e-01 -7.311206e-02 -1.364448e-01 2.375257e-02 1.438462e-01 3.375144e-02 -1.159344e-01 -6.643261e-02 8.722322e-02 1.165512e-01 -2.593661e-02 -1.256279e-01 -1.983823e-02 1.308718e-01 8.354736e-02 -1.163754e-01 -9.806772e-02 4.707101e-02 2.066224e-01 -5.764714e-02 -1.909348e-01 1.124593e-01 1.814106e-02 -4.438831e-03 3.042203e-02 -1.163299e-02 2.149555e-02 -2.994547e-03 1.597769e-02 5.371914e-03 1.405227e-02 1.265882e-02 1.414663e-02 2.004163e-02 1.525843e-02 
1.830403e-02 8.582303e-03 5.224472e-02 -1.466303e-01 -5.639776e+00 4.608435e-03 -1.416319e-02 -2.266914e-02 -5.723796e-03 -2.960739e-02 1.069800e-02 -3.920120e-02 2.390826e-02 -1.830546e-02 -1.034445e-01 3.330557e-01 5.541145e-01 1.476563e-01 6.677261e-02 4.465661e-01 5.233038e-01 5.616087e-02 4.399386e-03 4.723272e-01 4.865613e-01 7.710833e-02 1.634808e-01 3.584409e-01 2.931826e-01 2.271113e-01 3.618233e-01 2.212552e-01 7.852617e-02 4.366082e-01 5.382461e-01 1.044460e-01 -3.991930e-03 5.249915e-01 5.605749e-01 5.817867e-02 9.245212e-02 4.658500e-01 4.197742e-01 1.464714e-01 2.735992e-01 3.261993e-01 1.516827e-01 4.468332e-01 5.328666e-01 1.523368e-01 1.834736e-01 5.143996e-02 -2.069517e-02 3.747575e-02 -2.181170e-02 2.128438e-02 -9.180976e-03 1.335273e-02 -2.019252e-05 1.037209e-02 6.420282e-03 9.726052e-03 1.202382e-02 1.017406e-02 
8.833816e-03 2.823671e-03 3.304584e-02 -1.071261e-01 -2.497014e+00 4.185792e-02 4.281089e-03 -1.424022e-02 3.025596e-03 -2.937857e-02 2.625297e-02 -7.510658e-02 1.042526e-01 -1.771149e-01 -7.977462e-02 1.445302e+00 9.718074e+00 8.305489e+00 1.171586e+00 4.793565e+00 8.013325e+00 3.359038e+00 2.291443e+00 7.548852e+00 6.616802e+00 9.262722e-01 5.158985e+00 8.793219e+00 3.445232e+00 1.167701e+00 7.503711e+00 7.992794e+00 1.166779e+00 3.791834e+00 8.900597e+00 5.189499e+00 1.451041e+00 6.763047e+00 7.991936e+00 1.900988e+00 3.866823e+00 8.742330e+00 5.145762e+00 6.894147e-01 6.444406e+00 8.597204e+00 2.036650e+00 2.606506e+00 1.048640e+01 9.129325e+00 8.315566e-01 3.409841e-01 -1.560308e-01 5.386275e-02 -4.601283e-02 1.836713e-02 -1.359926e-02 8.753469e-03 -2.742582e-03 5.703512e-03 2.170621e-03 4.757526e-03 5.477689e-03 4.649104e-03 
-1.340137e-03 -2.874542e-03 1.285675e-02 -6.667947e-02 5.608540e-01 7.406078e-02 2.227859e-02 -4.866179e-03 1.149148e-02 -2.275374e-02 3.497714e-02 -8.098882e-02 1.378314e-01 -2.506356e-01 -4.814171e-03 2.218822e+00 1.367639e+01 1.148047e+01 1.507682e+00 6.856626e+00 1.107675e+01 4.557524e+00 3.412400e+00 1.066370e+01 8.936645e+00 1.240649e+00 7.490709e+00 1.224844e+01 4.475681e+00 1.696851e+00 1.064520e+01 1.099139e+01 1.478344e+00 5.401061e+00 1.231173e+01 7.009530e+00 2.136239e+00 9.505293e+00 1.080941e+01 2.494401e+00 5.642219e+00 1.211787e+01 6.756294e+00 9.496658e-01 9.174072e+00 1.173561e+01 2.583474e+00 3.754360e+00 1.468993e+01 1.252486e+01 7.797630e-01 4.038110e-01 -2.036724e-01 4.962711e-02 -5.487280e-02 1.140514e-02 -1.604434e-02 3.178917e-03 -5.775734e-03 6.975639e-04 -2.746794e-03 -3.499383e-04 -1.785306e-03 -9.158890e-04 
-1.149613e-02 -8.802168e-03 -6.502828e-03 -2.792243e-02 3.638094e+00 1.122242e-01 3.869829e-02 1.381389e-02 8.860734e-03 1.570893e-02 -3.951149e-03 3.895267e-02 -4.731802e-02 1.207220e-01 -3.174200e-02 -8.019405e-01 -4.734377e+00 -3.854240e+00 -5.456642e-01 -2.411037e+00 -3.847768e+00 -1.501722e+00 -1.262806e+00 -3.771658e+00 -3.105657e+00 -3.943186e-01 -2.724172e+00 -4.330161e+00 -1.549076e+00 -6.201676e-01 -3.853955e+00 -3.882738e+00 -5.141163e-01 -1.997479e+00 -4.442870e+00 -2.469078e+00 -7.965397e-01 -3.503685e+00 -3.888842e+00 -8.774579e-01 -2.113720e+00 -4.454950e+00 -2.410623e+00 -3.699323e-01 -3.434070e+00 -4.309733e+00 -8.963769e-01 -1.484153e+00 -5.515346e+00 -4.612401e+00 -2.301629e-01 -1.693248e-01 7.057880e-02 -2.515812e-02 1.674244e-02 -7.807110e-03 1.542457e-03 -5.052752e-03 -3.316634e-03 -5.103040e-03 -5.967741e-03 -5.778748e-03 -8.522223e-03 -6.624819e-03 