# vtk DataFile Version 2.0
Comment goes here
ASCII

DATASET STRUCTURED_POINTS
FIELD FieldData 1
TIME 1 1 double
0.03100000
DIMENSIONS    64   64   1

ORIGIN    0.000   0.000   0.000
SPACING   0.03125 0.03125   1.000

POINT_DATA   4096
SCALARS Omega double
LOOKUP_TABLE default

1.696777e-01 -9.609163e-01 7.677312e-01 -9.408008e-01 8.161209e-01 -6.750208e-01 6.179244e-01 -7.081354e-01 5.359001e-01 -5.872739e-01 4.448296e-01 -4.466687e-01 3.586454e-01 -3.018632e-01 2.884367e-01 -1.610285e-01 2.207167e-01 -2.814058e-02 1.387361e-01 1.063134e-01 1.310577e-01 1.695882e-01 4.057467e-02 2.714002e-01 -2.235146e-02 3.191918e-01 -4.425949e-02 3.090480e-01 -1.561329e-02 3.070245e-01 5.725216e-04 3.439086e-01 -7.844035e-02 4.078517e-01 -1.538710e-01 4.482366e-01 -1.089907e-01 4.024107e-01 -1.180152e-01 4.142168e-01 -1.169460e-01 4.030533e-01 -1.312094e-01 3.839306e-01 -1.692368e-01 4.378041e-01 -2.596743e-01 4.088680e-01 -2.493904e-01 3.541839e-01 -2.577972e-01 2.867718e-01 -2.490888e-01 2.231037e-01 -2.442008e-01 1.648211e-01 -2.269025e-01 1.126417e-01 -2.047690e-01 5.414570e-02 -1.740300e-01 1.325978e-02 -2.047067e-01 1.071158e-01 
-2.443816e+00 -2.057125e+01 -2.022186e+00 -2.032039e+01 -2.677703e+00 -2.005981e+01 -3.064258e+00 -1.963674e+01 -5.089883e+00 -1.841194e+01 -7.783809e+00 -1.625056e+01 -1.115814e+01 -1.317023e+01 -1.535401e+01 -9.230788e+00 -2.016429e+01 -5.019996e+00 -2.486181e+01 -9.706335e-01 -2.942365e+01 3.234429e+00 -3.412354e+01 7.270718e+00 -3.797082e+01 1.021405e+01 -4.061983e+01 1.189405e+01 -4.188235e+01 1.197152e+01 -4.085625e+01 9.305516e+00 -3.705664e+01 4.592941e+00 -3.248502e+01 5.932799e-01 -2.951334e+01 -1.436196e+00 -2.856931e+01 -1.536427e+00 -2.964450e+01 6.287925e-01 -3.246255e+01 4.153913e+00 -3.622497e+01 8.026686e+00 -3.983556e+01 1.131357e+01 -4.201999e+01 1.269243e+01 -4.210450e+01 1.186620e+01 -3.993329e+01 8.808887e+00 -3.536472e+01 3.600164e+00 -2.883960e+01 -3.222714e+00 -2.113382e+01 -1.065064e+01 -1.321452e+01 -1.762871e+01 -5.570528e+00 -2.461740e+01 
-3.155924e+01 4.531853e+00 -2.454742e+01 6.095288e+00 -7.620812e+00 5.553044e+00 -2.480468e+01 5.130070e+00 -3.268236e+01 4.410766e+00 -3.758850e+01 3.283198e+00 -4.070804e+01 1.724029e+00 -4.243643e+01 -3.470437e-01 -4.308499e+01 -2.467915e+00 -4.338993e+01 -4.412936e+00 -4.342859e+01 -6.512113e+00 -4.260294e+01 -8.817713e+00 -4.186704e+01 -1.035473e+01 -4.150960e+01 -1.128770e+01 -4.145317e+01 -1.161392e+01 -4.227749e+01 -1.032230e+01 -4.466381e+01 -7.678864e+00 -4.735054e+01 -5.623982e+00 -4.893022e+01 -4.528558e+00 -4.939526e+01 -4.304186e+00 -4.883199e+01 -5.159245e+00 -4.725118e+01 -6.494099e+00 -4.517266e+01 -8.016052e+00 -4.282363e+01 -9.223762e+00 -4.110226e+01 -9.405822e+00 -4.009212e+01 -8.642866e+00 -3.967287e+01 -7.013186e+00 -3.995786e+01 -4.500420e+00 -4.066015e+01 -1.311482e+00 -4.126851e+01 2.183244e+00 -4.117085e+01 5.500994e+00 -4.077192e+01 9.243907e+00 
-1.595255e+01 6.574407e+00 -1.296629e+01 6.981476e+00 -1.290644e+01 6.785877e+00 -1.183423e+01 6.730771e+00 -1.597817e+01 5.780162e+00 -1.829394e+01 4.492053e+00 -1.948164e+01 2.907605e+00 -1.968433e+01 9.859908e-01 -1.913918e+01 -8.495055e-01 -1.838435e+01 -2.452055e+00 -1.743197e+01 -4.135111e+00 -1.605379e+01 -5.876080e+00 -1.489831e+01 -7.069517e+00 -1.418811e+01 -7.803019e+00 -1.390284e+01 -8.002929e+00 -1.452702e+01 -6.907184e+00 -1.646637e+01 -4.723489e+00 -1.867461e+01 -2.949855e+00 -2.001623e+01 -2.047751e+00 -2.043669e+01 -1.928133e+00 -1.997255e+01 -2.787349e+00 -1.868682e+01 -4.160705e+00 -1.696811e+01 -5.674741e+00 -1.513712e+01 -6.946244e+00 -1.385310e+01 -7.331122e+00 -1.329279e+01 -6.817654e+00 -1.341259e+01 -5.395736e+00 -1.431055e+01 -3.105183e+00 -1.578738e+01 -1.603806e-01 -1.748891e+01 3.008059e+00 -1.890328e+01 5.964927e+00 -2.018277e+01 9.169710e+00 
-3.103554e-01 6.145045e-01 -8.867061e-01 -8.569862e-01 -2.716628e+01 1.871674e-01 4.066243e-01 -4.509086e-02 -9.307553e-02 -3.869275e-02 -2.726397e-01 -2.539450e-02 -3.355230e-01 -1.487862e-02 -3.407708e-01 -1.311739e-02 -3.145237e-01 -2.345638e-02 -2.793063e-01 -4.625826e-02 -2.515979e-01 -6.948105e-02 -2.321302e-01 -8.810947e-02 -2.226710e-01 -9.120964e-02 -2.216706e-01 -8.118393e-02 -2.249645e-01 -6.983428e-02 -2.267747e-01 -6.844809e-02 -2.251498e-01 -7.591316e-02 -2.193119e-01 -8.297127e-02 -2.150841e-01 -8.124137e-02 -2.237654e-01 -7.186951e-02 -2.417504e-01 -5.637583e-02 -2.594864e-01 -4.034599e-02 -2.704775e-01 -2.922004e-02 -2.715078e-01 -2.748039e-02 -2.579315e-01 -3.750305e-02 -2.325225e-01 -5.662193e-02 -1.983994e-01 -8.106986e-02 -1.609704e-01 -9.877834e-02 -1.250251e-01 -9.297409e-02 -9.645666e-02 -5.615843e-02 -8.878355e-02 -1.073709e-02 -1.482800e-01 2.745154e-01 
-1.935024e-01 -7.048940e-02 -6.072393e-01 -8.292273e-01 -3.290737e+01 -2.178398e-01 5.445221e-01 -1.647306e-01 3.160639e-01 -8.558226e-02 1.698344e-01 -4.839490e-02 9.454910e-02 -2.724445e-02 5.440760e-02 -1.712055e-02 3.204112e-02 -1.635300e-02 1.642022e-02 -1.694468e-02 8.506879e-03 -1.706739e-02 2.383366e-03 -1.624418e-02 -1.155909e-03 -1.570337e-02 -3.156814e-03 -1.165283e-02 2.084187e-04 -4.828031e-03 2.505154e-03 -1.183944e-03 1.453522e-03 5.806213e-04 -2.193193e-03 -2.298387e-03 -7.038401e-03 -2.332449e-03 -8.086098e-03 -1.692698e-03 -7.646645e-03 2.225120e-03 -4.625340e-03 5.664594e-03 -4.227772e-03 6.852306e-03 -1.243603e-03 9.626501e-03 1.415879e-03 9.732438e-03 8.923989e-04 1.383192e-02 -5.130911e-03 1.999074e-02 -1.616555e-02 2.606290e-02 -3.422131e-02 3.097024e-02 -6.334125e-02 3.437056e-02 -1.145478e-01 4.324555e-02 -1.943795e-01 3.202342e-01 
-2.799863e-01 2.584567e-02 -5.655425e-01 -9.804168e-01 -4.007120e+01 -4.425392e-01 4.671336e-01 -1.310088e-01 3.287441e-01 -8.750407e-02 1.889848e-01 -5.545755e-02 1.148302e-01 -3.187080e-02 7.529198e-02 -1.977184e-02 5.432985e-02 -1.984667e-02 3.492112e-02 -2.016023e-02 2.147075e-02 -2.220966e-02 7.704466e-03 -2.209899e-02 4.979403e-04 -2.136410e-02 -4.653064e-03 -1.737837e-02 -3.078057e-03 -1.012381e-02 -1.033100e-03 -6.212269e-03 -1.412505e-03 -2.841956e-03 -2.788891e-03 -4.407114e-03 -7.036367e-03 -2.550237e-03 -6.758868e-03 -9.760972e-04 -6.775825e-03 4.658148e-03 -2.034998e-03 1.055501e-02 1.026917e-03 1.518069e-02 6.376387e-03 2.006497e-02 1.169773e-02 2.060328e-02 1.054071e-02 2.449437e-02 6.273163e-04 2.968692e-02 -1.740991e-02 3.384615e-02 -4.371014e-02 3.822945e-02 -7.993244e-02 4.799558e-02 -1.322062e-01 8.001404e-02 -2.151334e-01 1.947626e-01 
-2.044676e-01 9.186129e-02 -3.125310e-01 -9.262724e-01 -4.318836e+01 -4.407790e-01 2.545423e-01 -1.725512e-01 2.635504e-01 -1.172882e-01 1.715725e-01 -7.758163e-02 1.016376e-01 -4.950403e-02 5.763620e-02 -3.371562e-02 4.005907e-02 -3.758031e-02 2.415593e-02 -3.012952e-02 2.036636e-02 -2.876553e-02 8.840320e-03 -2.106617e-02 9.150562e-03 -1.890442e-02 1.458147e-03 -1.479550e-02 3.317709e-03 -7.849219e-03 1.741920e-03 -6.648548e-03 4.074446e-04 1.048635e-03 1.572819e-03 -2.280034e-03 -4.446662e-03 3.864580e-03 -1.196655e-03 2.278358e-03 -7.580303e-03 7.313349e-03 -3.625595e-03 1.051296e-02 -7.389039e-03 1.215848e-02 -3.430531e-03 1.622662e-02 3.210657e-03 8.720306e-03 4.875470e-03 1.531902e-02 -4.138263e-03 2.899023e-02 -1.891281e-02 4.249859e-02 -3.911377e-02 5.589118e-02 -6.806547e-02 7.351176e-02 -1.114545e-01 1.069038e-01 -1.684202e-01 1.720542e-01 
-2.136050e-01 1.160150e-01 -2.442284e-01 -9.890787e-01 -4.749132e+01 -5.797252e-01 1.485497e-01 -1.555955e-01 2.271400e-01 -1.084994e-01 1.577120e-01 -7.419571e-02 9.788773e-02 -4.699774e-02 5.989344e-02 -3.355411e-02 5.416915e-02 -4.475612e-02 3.288418e-02 -3.345117e-02 3.100349e-02 -3.217227e-02 1.059144e-02 -2.499200e-02 1.156601e-02 -2.196610e-02 -1.611892e-03 -2.056550e-02 -1.273065e-04 -1.084140e-02 -2.292165e-03 -1.235497e-02 -4.312252e-03 -5.978451e-04 6.117272e-04 -5.401500e-03 -7.537229e-03 4.035751e-03 -4.823565e-05 2.647117e-03 -9.444036e-03 9.163734e-03 -2.225776e-03 1.528023e-02 -7.083623e-03 1.744848e-02 -7.441641e-04 2.486310e-02 9.137961e-03 1.354032e-02 1.211579e-02 2.004581e-02 1.094031e-04 3.346424e-02 -1.955060e-02 4.564487e-02 -4.440955e-02 5.808695e-02 -7.605611e-02 7.591107e-02 -1.182665e-01 1.046503e-01 -1.719901e-01 1.371188e-01 
-1.275429e-01 1.334557e-01 -6.660906e-02 -9.727444e-01 -4.881617e+01 -5.290494e-01 1.188191e-02 -1.742881e-01 1.411158e-01 -1.293043e-01 1.144793e-01 -9.030960e-02 6.834781e-02 -5.408562e-02 2.736509e-02 -2.982650e-02 4.046373e-02 -7.122875e-02 2.047609e-02 -3.889180e-02 3.721127e-02 -4.506906e-02 2.789652e-03 -2.296984e-02 2.474164e-02 -2.221266e-02 -6.084468e-03 -2.369362e-02 8.776372e-03 -4.151051e-03 -3.281532e-03 -1.995807e-02 -3.077865e-03 1.170375e-02 8.202769e-03 -1.144092e-02 -1.147145e-02 1.536669e-02 1.176954e-02 9.617781e-04 -1.919163e-02 1.148755e-02 3.282470e-03 1.880784e-02 -2.164828e-02 1.355947e-02 -9.040358e-03 3.495453e-02 3.523898e-03 -9.271247e-03 1.984095e-02 8.070458e-03 3.414826e-03 3.553161e-02 -1.688074e-02 5.545399e-02 -3.653355e-02 7.244272e-02 -5.871889e-02 9.234355e-02 -8.608578e-02 1.184099e-01 -1.143811e-01 1.432966e-01 
-1.143749e-01 1.367314e-01 -1.121708e-02 -9.804422e-01 -5.123896e+01 -6.393543e-01 -6.775993e-02 -1.748038e-01 1.031526e-01 -1.226519e-01 9.094044e-02 -8.030032e-02 4.933951e-02 -3.915237e-02 6.908599e-03 -2.054122e-02 6.451535e-02 -9.490350e-02 1.640037e-02 -4.082460e-02 5.861721e-02 -4.461909e-02 -6.095552e-03 -2.871143e-02 3.688932e-02 -1.644170e-02 -1.422787e-02 -3.596255e-02 8.834391e-03 2.296704e-03 -6.749932e-03 -3.285953e-02 -1.051934e-02 1.744283e-02 1.373797e-02 -1.859807e-02 -2.092791e-02 1.830231e-02 2.161454e-02 2.119762e-03 -2.821834e-02 1.064576e-02 1.058036e-02 2.751003e-02 -2.856963e-02 1.335517e-02 -8.514046e-03 4.966904e-02 6.694227e-03 -1.378593e-02 3.343166e-02 7.140238e-03 1.118681e-02 3.746835e-02 -1.584605e-02 5.695070e-02 -3.913369e-02 7.237854e-02 -6.175486e-02 9.025965e-02 -8.616801e-02 1.122833e-01 -1.086466e-01 1.324060e-01 
-3.941600e-02 1.411548e-01 1.092928e-01 -9.794215e-01 -5.125415e+01 -5.600942e-01 -1.440330e-01 -1.838318e-01 3.338998e-02 -1.392072e-01 4.956370e-02 -9.442263e-02 1.818591e-02 -3.076914e-02 -6.046543e-02 4.429362e-02 5.512462e-02 -1.850820e-01 -2.772035e-03 -1.519608e-02 9.806905e-02 -7.938200e-02 -5.289217e-02 -1.772230e-02 9.121596e-02 -8.612429e-03 -6.306557e-02 -6.686217e-02 4.835348e-02 4.580191e-02 -3.205644e-02 -8.676433e-02 -4.876098e-03 7.747325e-02 3.322111e-02 -6.651322e-02 -5.057985e-02 5.859621e-02 7.221200e-02 -1.340307e-02 -8.243861e-02 5.736658e-03 6.075449e-02 5.325308e-02 -8.123167e-02 -1.940112e-02 -2.673514e-03 1.275803e-01 -1.903845e-02 -1.006260e-01 8.003311e-02 -7.291201e-03 2.047471e-02 4.917865e-02 -1.547472e-02 7.047000e-02 -3.237011e-02 8.476134e-02 -4.345807e-02 1.014116e-01 -5.271947e-02 1.210799e-01 -5.548523e-02 1.387287e-01 
-2.377654e-02 1.423994e-01 1.479194e-01 -9.685747e-01 -5.230681e+01 -6.374800e-01 -1.938469e-01 -1.952456e-01 1.077435e-02 -1.417039e-01 3.400585e-02 -8.428561e-02 -8.466944e-03 1.481897e-02 -1.542263e-01 1.082054e-01 1.468271e-01 -2.735887e-01 -6.171532e-02 -8.008053e-04 1.858985e-01 -5.747288e-02 -1.206907e-01 -5.691673e-02 1.589679e-01 4.921551e-02 -1.108434e-01 -1.289304e-01 6.861205e-02 1.115085e-01 -4.610977e-02 -1.439132e-01 -2.512031e-02 1.223097e-01 6.848494e-02 -9.617285e-02 -9.356476e-02 6.506932e-02 1.312364e-01 -3.340388e-03 -1.342915e-01 -1.797847e-02 1.083782e-01 9.417527e-02 -1.273253e-01 -4.878000e-02 7.207635e-03 1.894210e-01 -4.262955e-02 -1.305387e-01 1.254022e-01 -1.450798e-02 3.293463e-02 5.291740e-02 -1.817133e-02 7.328311e-02 -3.703328e-02 8.468418e-02 -4.574631e-02 9.867149e-02 -5.071869e-02 1.161369e-01 -4.763384e-02 1.340320e-01 
3.361356e-02 1.409277e-01 2.317512e-01 -9.791782e-01 -5.131730e+01 -5.351909e-01 -2.296078e-01 -2.020512e-01 -3.608429e-02 -1.670834e-01 1.516047e-02 -1.255475e-01 4.786511e-03 2.283661e-02 -3.230595e-01 5.596226e-01 2.003002e-01 -6.048675e-01 -8.397961e-02 3.375134e-01 3.734586e-01 -1.786571e-01 -3.497990e-01 4.845855e-02 4.538541e-01 1.565445e-01 -3.878880e-01 -3.076338e-01 3.168656e-01 4.276832e-01 -2.183947e-01 -4.709424e-01 5.054206e-02 4.912391e-01 1.264361e-01 -3.826287e-01 -2.242670e-01 2.688939e-01 3.868882e-01 -6.322844e-02 -4.166670e-01 -9.602562e-02 4.197442e-01 2.913476e-01 -3.990407e-01 -3.275990e-01 1.626428e-01 6.698188e-01 -2.568170e-01 -5.841615e-01 3.550057e-01 3.955765e-02 1.311958e-02 9.710566e-02 -4.062328e-02 9.184180e-02 -3.768803e-02 9.430546e-02 -2.987042e-02 1.053298e-01 -2.085801e-02 1.207823e-01 -3.734287e-03 1.366863e-01 
4.498993e-02 1.406443e-01 2.561313e-01 -9.642382e-01 -5.130426e+01 -5.795822e-01 -2.527771e-01 -2.207635e-01 -3.609626e-02 -1.931471e-01 3.470643e-02 -1.603986e-01 3.007909e-02 1.082407e-01 -7.472078e-01 1.401496e+00 3.100409e+00 1.706561e+00 -2.170426e-01 2.211435e+00 2.104171e+00 7.367295e-01 -4.022971e-02 2.023422e+00 1.541628e+00 4.876704e-01 7.422357e-01 1.264002e+00 7.322391e-01 8.936002e-01 1.337799e+00 5.657972e-01 7.880564e-02 1.550813e+00 1.654812e+00 1.385567e-01 -7.002787e-02 1.615376e+00 1.467497e+00 6.016368e-02 3.240533e-01 1.012506e+00 1.002347e+00 3.784222e-01 7.668757e-01 2.325327e-01 3.580733e-01 1.237699e+00 9.190807e-01 -9.855270e-01 5.517973e-01 6.826107e-02 1.428861e-03 1.214197e-01 -6.651338e-02 1.009719e-01 -5.026460e-02 9.557640e-02 -3.348531e-02 1.027528e-01 -1.888714e-02 1.165102e-01 2.846777e-03 1.331896e-01 
8.592188e-02 1.344992e-01 3.144758e-01 -9.771988e-01 -4.952304e+01 -4.597564e-01 -2.636521e-01 -2.182551e-01 -7.126933e-02 -2.289089e-01 3.227229e-02 -3.320829e-01 2.305086e-01 -4.509463e-01 -4.785926e-01 3.683978e+00 2.637568e+01 2.291704e+01 2.770972e+00 1.408781e+01 2.282901e+01 1.012753e+01 6.487885e+00 2.179541e+01 1.859499e+01 2.776968e+00 1.453188e+01 2.492490e+01 9.513181e+00 2.930963e+00 2.069110e+01 2.253066e+01 3.269193e+00 9.993733e+00 2.444775e+01 1.480491e+01 4.102455e+00 1.827944e+01 2.184181e+01 5.412808e+00 1.059922e+01 2.373611e+01 1.412545e+01 1.543166e+00 1.711673e+01 2.296547e+01 5.844724e+00 5.395811e+00 2.443015e+01 2.176489e+01 2.504281e+00 9.702310e-01 -4.444630e-01 1.623255e-01 -1.466106e-01 1.027969e-01 -5.175288e-02 9.619686e-02 -1.583476e-02 1.038975e-01 7.931987e-03 1.169466e-01 3.742804e-02 1.319568e-01 
9.175325e-02 1.306618e-01 3.268029e-01 -9.541786e-01 -4.864585e+01 -4.778546e-01 -2.714100e-01 -2.275242e-01 -5.944008e-02 -2.675416e-01 1.065365e-01 -5.232894e-01 5.730053e-01 -1.386422e+00 1.076381e+00 5.111503e+00 3.196226e+01 2.466557e+01 4.261990e+00 1.782986e+01 2.845194e+01 1.042687e+01 1.048231e+01 2.872183e+01 2.295729e+01 2.490432e+00 2.148925e+01 3.277771e+01 1.112904e+01 4.278936e+00 2.951468e+01 2.930288e+01 3.684981e+00 1.489317e+01 3.354704e+01 1.875156e+01 6.404463e+00 2.675190e+01 2.894227e+01 6.671309e+00 1.668809e+01 3.415000e+01 1.758342e+01 2.693424e+00 2.631372e+01 3.274737e+01 6.267026e+00 1.003200e+01 3.776344e+01 3.237269e+01 7.025482e-01 1.445030e+00 -7.592346e-01 2.483699e-01 -2.154192e-01 1.131700e-01 -6.317775e-02 9.415464e-02 -1.524251e-02 9.901498e-02 1.137514e-02 1.113795e-01 4.224179e-02 1.271525e-01 
1.192317e-01 1.205763e-01 3.643176e-01 -9.467765e-01 -4.625342e+01 -3.592731e-01 -2.694471e-01 -1.820562e-01 -1.018519e-01 -1.642221e-01 -4.660343e-03 -1.835584e-01 1.154110e-01 -2.796269e-01 8.745382e-01 -3.823999e+00 -1.675285e+01 -1.372802e+01 -1.333813e-01 -9.681208e+00 -1.280682e+01 -5.956994e+00 -3.810652e+00 -1.300124e+01 -9.110040e+00 -1.904205e+00 -8.674724e+00 -1.344093e+01 -3.753242e+00 -2.285599e+00 -1.153027e+01 -1.117119e+01 -1.063936e+00 -6.006488e+00 -1.240014e+01 -6.614054e+00 -2.461702e+00 -9.833603e+00 -1.010665e+01 -1.988444e+00 -6.209831e+00 -1.160537e+01 -5.900843e+00 -5.191439e-01 -8.986606e+00 -9.982423e+00 -2.491502e+00 -2.890929e+00 -1.150082e+01 -8.958747e+00 -6.152066e-01 5.444110e-02 -4.042700e-03 1.257241e-01 -1.409778e-04 9.644835e-02 4.963611e-03 8.997724e-02 1.757532e-02 9.633857e-02 3.745954e-02 1.082198e-01 6.875542e-02 1.224292e-01 
1.200417e-01 1.133072e-01 3.650574e-01 -8.993819e-01 -4.466927e+01 -3.655954e-01 -2.815363e-01 -1.508689e-01 -1.416956e-01 -6.800206e-02 -1.487111e-01 1.467066e-01 -4.431450e-01 6.753237e-01 -2.840974e-01 -4.815271e+00 -3.490179e+01 -2.889165e+01 -4.202895e+00 -1.877356e+01 -3.066590e+01 -1.268478e+01 -1.001571e+01 -3.010149e+01 -2.491094e+01 -3.289543e+00 -2.153727e+01 -3.469813e+01 -1.235919e+01 -4.232449e+00 -3.015258e+01 -3.133631e+01 -4.160651e+00 -1.480243e+01 -3.483974e+01 -2.030244e+01 -6.368777e+00 -2.704105e+01 -3.049081e+01 -7.203822e+00 -1.654662e+01 -3.497081e+01 -1.902994e+01 -2.322046e+00 -2.631792e+01 -3.380993e+01 -7.345927e+00 -9.005025e+00 -3.753215e+01 -3.314943e+01 -1.682680e+00 -1.141781e+00 7.036051e-01 -3.768490e-02 1.740127e-01 5.306847e-02 5.253658e-02 7.337869e-02 3.308210e-02 8.631834e-02 4.371609e-02 1.001532e-01 7.165664e-02 1.154299e-01 
1.362719e-01 1.017570e-01 3.832939e-01 -8.754463e-01 -4.184799e+01 -2.666986e-01 -2.731672e-01 -1.277403e-01 -1.703363e-01 -6.130575e-02 -1.764618e-01 7.993295e-02 -3.345609e-01 3.930050e-01 -1.639199e-01 -1.026569e+00 -1.070797e+01 -7.946997e+00 -2.100435e+00 -5.537159e+00 -1.012943e+01 -3.689353e+00 -3.010045e+00 -9.380067e+00 -8.943224e+00 -1.010321e+00 -6.643802e+00 -1.115646e+01 -4.994723e+00 -1.448366e+00 -9.870583e+00 -1.040025e+01 -1.755713e+00 -5.139941e+00 -1.218112e+01 -7.132459e+00 -1.822733e+00 -9.348908e+00 -1.126087e+01 -2.879928e+00 -5.072607e+00 -1.224188e+01 -7.490639e+00 -1.193437e+00 -8.803752e+00 -1.231768e+01 -2.822382e+00 -3.625923e+00 -1.333786e+01 -1.187497e+01 -1.455053e+00 -8.955312e-01 3.201554e-01 -1.115746e-01 1.256341e-01 1.448627e-02 6.063480e-02 5.602502e-02 4.910081e-02 7.706285e-02 6.080575e-02 9.306813e-02 8.890692e-02 1.078013e-01 
1.319213e-01 9.292827e-02 3.733735e-01 -8.246652e-01 -3.972206e+01 -2.640686e-01 -2.719839e-01 -1.136769e-01 -1.781743e-01 -5.460301e-02 -1.785250e-01 1.135776e-02 -2.125608e-01 1.747190e-02 4.225602e-02 -8.200950e-01 6.597505e-02 1.147719e+00 -2.570364e-01 -4.969493e-01 -3.280581e-01 5.265840e-01 2.570162e-01 -1.628172e-01 -5.264113e-01 -5.135521e-02 3.195900e-01 4.139889e-01 -4.298828e-01 -5.650950e-01 8.031339e-02 6.938106e-01 -6.409896e-02 -8.204484e-01 -3.082743e-01 5.438391e-01 2.919396e-01 -5.777091e-01 -5.413810e-01 5.362251e-02 3.859736e-01 -1.911774e-02 -4.851940e-01 -4.931791e-01 1.806358e-01 3.326881e-01 9.443698e-03 -1.150338e+00 -1.673067e-01 9.747957e-01 -3.042245e-01 -1.643129e-01 8.304967e-02 -8.294766e-02 9.171808e-02 1.238788e-03 6.290946e-02 4.313814e-02 5.340902e-02 6.669705e-02 6.253110e-02 8.406998e-02 8.775528e-02 9.948571e-02 
1.387568e-01 8.162329e-02 3.737523e-01 -7.813575e-01 -3.659805e+01 -1.936554e-01 -2.527280e-01 -1.017905e-01 -1.775201e-01 -5.904955e-02 -1.612532e-01 -2.215249e-02 -1.485760e-01 -5.154115e-02 3.698289e-02 -4.940166e-01 2.249662e-01 2.837874e-01 -1.057991e-01 -2.691115e-01 -1.564742e-01 1.534935e-01 1.671566e-01 -1.059464e-01 -2.766679e-01 -6.137245e-02 2.670360e-01 1.460063e-01 -2.188590e-01 -2.583045e-01 1.684228e-01 2.791574e-01 -3.666884e-02 -3.052981e-01 -7.881666e-02 2.351281e-01 1.564932e-01 -1.461010e-01 -2.598710e-01 2.223045e-02 2.770207e-01 1.070494e-01 -2.502810e-01 -2.162732e-01 2.408628e-01 2.548958e-01 -1.669597e-02 -3.936004e-01 7.200469e-03 4.905105e-01 -1.838048e-01 -5.391211e-03 3.834175e-02 -3.458608e-02 6.390710e-02 5.582148e-03 5.743295e-02 3.773094e-02 5.778095e-02 5.978787e-02 7.040474e-02 7.657336e-02 9.617458e-02 9.076228e-02 
1.296183e-01 7.314551e-02 3.538777e-01 -7.277151e-01 -3.404643e+01 -1.878967e-01 -2.382095e-01 -9.725933e-02 -1.633686e-01 -6.475640e-02 -1.359998e-01 -5.097823e-02 -9.360539e-02 -8.821009e-02 3.837584e-02 -2.515199e-01 8.298317e-02 8.021803e-02 -3.416453e-02 -1.168772e-01 -9.398322e-02 4.629944e-02 6.626365e-02 -6.206019e-02 -1.206476e-01 -2.499412e-02 9.958403e-02 4.342331e-02 -7.793322e-02 -9.284750e-02 5.186632e-02 9.741903e-02 3.312530e-03 -1.155227e-01 -5.127522e-02 8.176669e-02 7.736409e-02 -5.880373e-02 -1.137304e-01 8.922977e-03 1.161722e-01 4.028317e-02 -8.853006e-02 -7.482940e-02 9.695545e-02 9.433490e-02 2.798658e-02 -1.204373e-01 -4.827460e-02 2.344534e-01 -8.995611e-02 4.653390e-02 7.536500e-03 -2.219137e-03 4.251451e-02 1.177083e-02 4.900437e-02 3.402369e-02 5.386905e-02 5.296977e-02 6.657168e-02 6.873286e-02 9.037955e-02 8.250865e-02 
1.287939e-01 6.317948e-02 3.391012e-01 -6.675423e-01 -3.069524e+01 -1.406439e-01 -2.135412e-01 -8.904260e-02 -1.512671e-01 -6.519001e-02 -1.200512e-01 -5.690745e-02 -7.927990e-02 -8.083761e-02 3.520093e-03 -1.545971e-01 2.548426e-02 4.820540e-03 -2.039023e-02 -7.377352e-02 -5.180585e-02 8.561468e-03 2.163239e-02 -4.394133e-02 -5.742923e-02 -1.592093e-02 3.907484e-02 1.025901e-02 -3.469597e-02 -4.297812e-02 2.062976e-02 3.977968e-02 1.738254e-03 -5.638601e-02 -2.264984e-02 3.811442e-02 3.327256e-02 -3.357981e-02 -4.805155e-02 1.084944e-02 5.156378e-02 1.353169e-02 -3.494067e-02 -2.343019e-02 4.643894e-02 4.558016e-02 1.264210e-02 -3.895563e-02 -2.601609e-02 1.300846e-01 -4.666526e-02 5.050321e-02 7.842372e-03 1.545069e-02 3.369737e-02 1.962497e-02 4.378497e-02 3.417529e-02 5.282731e-02 4.897145e-02 6.769216e-02 6.223088e-02 9.156161e-02 7.393163e-02 
1.157675e-01 5.579372e-02 3.106238e-01 -6.089842e-01 -2.779738e+01 -1.331043e-01 -1.920359e-01 -8.544869e-02 -1.311646e-01 -6.585987e-02 -9.892721e-02 -6.020611e-02 -6.089258e-02 -7.214448e-02 -8.416187e-03 -9.699415e-02 2.805509e-03 -2.964625e-02 -1.290209e-02 -4.658219e-02 -2.983084e-02 -1.143919e-02 2.043626e-03 -2.912937e-02 -2.646573e-02 -1.341397e-02 1.110137e-02 -4.191692e-03 -1.215131e-02 -1.907999e-02 5.117020e-03 9.203106e-03 3.256833e-03 -2.284321e-02 -1.183356e-02 1.074461e-02 1.411402e-02 -1.300722e-02 -1.912585e-02 4.591832e-03 2.092373e-02 6.984528e-03 -8.283196e-03 -3.740463e-03 2.003675e-02 2.305216e-02 1.074483e-02 2.457665e-03 -2.277977e-02 7.145721e-02 -2.291276e-02 4.326823e-02 4.883383e-03 2.301218e-02 2.417811e-02 2.349309e-02 3.524812e-02 3.290554e-02 4.544952e-02 4.433381e-02 5.998071e-02 5.563579e-02 8.196470e-02 6.621416e-02 
1.088874e-01 4.722255e-02 2.844737e-01 -5.393716e-01 -2.427300e+01 -9.889323e-02 -1.651265e-01 -7.787936e-02 -1.152632e-01 -6.254759e-02 -8.598221e-02 -5.542759e-02 -5.851265e-02 -5.502939e-02 -3.109351e-02 -5.883153e-02 -1.322031e-02 -4.565739e-02 -1.380369e-02 -3.627103e-02 -1.252868e-02 -2.325200e-02 -8.246483e-03 -2.072231e-02 -8.190794e-03 -1.383557e-02 -3.035843e-03 -1.017060e-02 -3.027746e-03 -9.354464e-03 -1.407348e-03 -4.419876e-03 5.520509e-04 -6.542214e-03 -2.728140e-03 -1.273383e-03 2.323383e-03 -1.414625e-03 -1.813278e-03 1.505001e-03 3.804259e-03 6.101422e-03 2.371037e-03 5.881908e-03 3.217379e-03 1.549306e-02 2.800021e-03 1.908277e-02 -1.053663e-02 3.382016e-02 -9.416655e-04 2.973476e-02 1.085656e-02 2.591926e-02 2.091135e-02 2.767447e-02 3.024693e-02 3.352334e-02 4.130454e-02 4.130988e-02 5.642082e-02 4.973892e-02 7.765666e-02 5.798073e-02 
9.307677e-02 4.058672e-02 2.495799e-01 -4.770678e-01 -2.109267e+01 -8.775825e-02 -1.398093e-01 -7.274563e-02 -9.400450e-02 -5.918193e-02 -6.831290e-02 -5.009929e-02 -4.957990e-02 -4.033351e-02 -3.956519e-02 -3.218146e-02 -1.423669e-02 -5.384578e-02 -1.349291e-02 -2.697846e-02 1.157510e-03 -2.654989e-02 -1.422148e-02 -1.492943e-02 4.642991e-03 -1.116632e-02 -1.091247e-02 -1.405584e-02 3.240198e-03 -1.814360e-03 -4.949727e-03 -1.321957e-02 -1.053469e-03 4.166722e-03 2.635649e-03 -9.173547e-03 -4.988437e-03 6.136373e-03 8.548967e-03 -9.020682e-04 -6.912210e-03 5.713943e-03 9.480907e-03 1.088820e-02 -7.785958e-03 9.928418e-03 -5.913359e-04 2.895183e-02 -7.243452e-03 9.737826e-03 1.139589e-02 1.866704e-02 1.202456e-02 2.536517e-02 1.496452e-02 2.831329e-02 2.202809e-02 3.189777e-02 3.240064e-02 3.714788e-02 4.645761e-02 4.360118e-02 6.551912e-02 5.048768e-02 
8.161840e-02 3.272340e-02 2.161483e-01 -4.061590e-01 -1.744262e+01 -5.715351e-02 -1.107529e-01 -6.528988e-02 -7.520338e-02 -5.644849e-02 -5.173041e-02 -4.645666e-02 -4.156616e-02 -2.141931e-02 -6.299199e-02 2.493071e-02 -3.096473e-02 -9.404553e-02 -9.257348e-03 -2.191936e-03 2.534382e-02 -4.650519e-02 -3.476019e-02 -8.268147e-04 3.610305e-02 -9.690540e-03 -3.926062e-02 -2.724767e-02 2.604632e-02 1.996229e-02 -2.207692e-02 -4.193480e-02 2.745640e-03 3.717895e-02 1.027985e-02 -3.671929e-02 -2.096954e-02 2.980590e-02 3.512729e-02 -1.131141e-02 -3.706113e-02 5.059499e-03 3.651587e-02 2.452561e-02 -3.794927e-02 -7.916040e-03 2.948240e-03 6.879796e-02 -1.451042e-02 -4.717088e-02 4.518627e-02 5.613819e-03 1.689406e-02 2.986777e-02 8.820524e-03 3.217424e-02 1.460839e-02 3.184500e-02 2.568711e-02 3.367490e-02 3.971605e-02 3.748229e-02 5.732289e-02 4.223018e-02 
6.416368e-02 2.600419e-02 1.774415e-01 -3.428289e-01 -1.403721e+01 -3.966969e-02 -8.238222e-02 -5.846300e-02 -5.289179e-02 -5.285000e-02 -3.217330e-02 -4.252092e-02 -2.961895e-02 -5.958851e-03 -7.958100e-02 7.275960e-02 -3.064893e-02 -1.287511e-01 -1.068756e-02 1.978544e-02 5.295057e-02 -5.170379e-02 -5.667526e-02 1.134940e-03 6.801395e-02 4.277330e-03 -6.465788e-02 -4.616509e-02 4.605701e-02 4.706599e-02 -3.603114e-02 -6.844524e-02 3.282009e-03 6.458854e-02 1.995032e-02 -5.629805e-02 -3.804957e-02 4.178103e-02 6.204787e-02 -1.236550e-02 -6.535060e-02 -4.451453e-03 6.266729e-02 4.308054e-02 -6.569298e-02 -2.973935e-02 7.599044e-03 1.029503e-01 -2.485895e-02 -8.953133e-02 7.038635e-02 4.878114e-04 1.635756e-02 3.213887e-02 4.367977e-04 3.255567e-02 5.174668e-03 2.940948e-02 1.598464e-02 2.892963e-02 2.881291e-02 3.096142e-02 4.392853e-02 3.437870e-02 
4.953893e-02 1.800350e-02 1.403210e-01 -2.756680e-01 -1.030763e+01 -6.053893e-03 -5.146438e-02 -5.008411e-02 -3.239438e-02 -5.533011e-02 -6.461275e-03 -5.837133e-02 8.082668e-03 -8.981253e-03 -1.122351e-01 3.015603e-01 -1.023586e-01 -3.619704e-01 4.317455e-02 1.812676e-01 1.241888e-01 -1.450190e-01 -1.596901e-01 5.351939e-02 2.211835e-01 3.942622e-02 -2.182661e-01 -1.378405e-01 1.924830e-01 1.973074e-01 -1.445147e-01 -2.371373e-01 6.171315e-02 2.517181e-01 3.005968e-02 -2.056748e-01 -9.497739e-02 1.549407e-01 1.865292e-01 -4.870209e-02 -2.094041e-01 -3.251335e-02 2.292316e-01 1.413399e-01 -2.087321e-01 -1.665823e-01 9.771474e-02 3.530800e-01 -1.302681e-01 -3.356233e-01 2.039036e-01 3.435689e-02 -1.842077e-03 5.578611e-02 -2.066755e-02 3.769927e-02 -6.729486e-03 2.723723e-02 7.840846e-03 2.371361e-02 2.059264e-02 2.384672e-02 3.344383e-02 2.565737e-02 
3.156726e-02 1.046951e-02 1.002688e-01 -2.130459e-01 -6.731234e+00 2.014158e-02 -2.116897e-02 -4.037569e-02 -1.036770e-02 -5.337287e-02 1.838885e-02 -6.893582e-02 4.337741e-02 -2.174904e-02 -1.486136e-01 3.911083e-01 6.552312e-01 1.412518e-01 1.348858e-01 5.953052e-01 7.395063e-01 1.010793e-01 -5.931572e-02 6.306586e-01 7.540579e-01 1.377098e-01 1.202151e-01 4.635402e-01 5.080974e-01 3.226085e-01 4.252799e-01 2.844357e-01 1.662734e-01 5.968930e-01 7.430379e-01 1.607056e-01 -3.497832e-02 7.245219e-01 8.503545e-01 1.177234e-01 3.432332e-02 6.335964e-01 6.966358e-01 2.253847e-01 2.879607e-01 4.527394e-01 2.922801e-01 6.081224e-01 6.221945e-01 1.250702e-01 3.377334e-01 1.062925e-01 -2.863792e-02 6.971934e-02 -3.880365e-02 3.722681e-02 -1.746818e-02 2.252149e-02 -1.196273e-03 1.731015e-02 1.024602e-02 1.626232e-02 2.007969e-02 1.699767e-02 
1.513247e-02 1.905796e-03 6.180690e-02 -1.480604e-01 -2.971965e+00 5.834473e-02 8.685646e-03 -2.481287e-02 3.839722e-03 -5.408831e-02 4.090771e-02 -1.380620e-01 1.604647e-01 -2.971810e-01 6.409453e-03 -6.333864e-02 1.119837e+01 1.167581e+01 2.019838e+00 5.023554e+00 1.101917e+01 6.080196e+00 2.466180e+00 9.348845e+00 9.952314e+00 1.983713e+00 5.854834e+00 1.199790e+01 5.948241e+00 9.469867e-01 9.329211e+00 1.178771e+01 2.348476e+00 3.668328e+00 1.195555e+01 8.729318e+00 1.724745e+00 8.034671e+00 1.159634e+01 3.813911e+00 4.271916e+00 1.151261e+01 8.275725e+00 9.473564e-01 7.739174e+00 1.227120e+01 3.857644e+00 1.853841e+00 1.219378e+01 1.292095e+01 1.782430e+00 7.397793e-01 -2.773815e-01 8.823478e-02 -8.871236e-02 2.827085e-02 -2.660205e-02 1.367525e-02 -6.010902e-03 9.198414e-03 3.023847e-03 7.840266e-03 8.891457e-03 7.685527e-03 
-2.319446e-03 -6.553473e-03 2.228678e-02 -8.527723e-02 7.206917e-01 9.384951e-02 3.813028e-02 -7.789393e-03 1.816144e-02 -4.333123e-02 5.445562e-02 -1.526358e-01 2.135386e-01 -4.280784e-01 1.177675e-01 2.806266e-01 1.595206e+01 1.618189e+01 2.474538e+00 7.285434e+00 1.535328e+01 8.285479e+00 3.739053e+00 1.336647e+01 1.346812e+01 2.613821e+00 8.691756e+00 1.683413e+01 7.714758e+00 1.369134e+00 1.341576e+01 1.625046e+01 2.914231e+00 5.305449e+00 1.662182e+01 1.177208e+01 2.490678e+00 1.138651e+01 1.566007e+01 4.965822e+00 6.358725e+00 1.601527e+01 1.080466e+01 1.206275e+00 1.115331e+01 1.673398e+01 4.827509e+00 2.752464e+00 1.722686e+01 1.771966e+01 1.759626e+00 8.491735e-01 -3.641050e-01 7.500324e-02 -1.050002e-01 1.408946e-02 -3.062278e-02 3.546080e-03 -1.086890e-02 5.286511e-04 -5.112186e-03 -8.664155e-04 -3.336009e-03 -1.730637e-03 
-1.951690e-02 -1.535375e-02 -1.659777e-02 -1.653541e-02 4.444388e+00 1.313079e-01 6.477473e-02 2.701708e-02 1.667184e-02 2.848339e-02 -4.464807e-03 7.028668e-02 -7.316625e-02 1.997187e-01 -8.406009e-02 -1.514771e-01 -5.436843e+00 -5.286370e+00 -8.530417e-01 -2.535686e+00 -5.250065e+00 -2.659619e+00 -1.393646e+00 -4.698317e+00 -4.605488e+00 -8.016694e-01 -3.181663e+00 -5.916100e+00 -2.625041e+00 -4.895793e-01 -4.881884e+00 -5.708483e+00 -9.840551e-01 -2.001187e+00 -6.025645e+00 -4.127745e+00 -9.201249e-01 -4.261775e+00 -5.655693e+00 -1.733733e+00 -2.426253e+00 -5.969453e+00 -3.870725e+00 -4.562358e-01 -4.265762e+00 -6.231589e+00 -1.677188e+00 -1.168320e+00 -6.613786e+00 -6.620192e+00 -5.439277e-01 -3.438236e-01 1.292799e-01 -4.032377e-02 3.336200e-02 -1.145425e-02 4.018137e-03 -7.946601e-03 -5.218386e-03 -8.482577e-03 -1.001137e-02 -9.772498e-03 -1.449470e-02 -1.125794e-02 