# vtk DataFile Version 2.0
Comment goes here
ASCII

DATASET STRUCTURED_POINTS
FIELD FieldData 1
TIME 1 1 double
0.01100000
DIMENSIONS    64   64   1

ORIGIN    0.000   0.000   0.000
SPACING   0.03125 0.03125   1.000

POINT_DATA   4096
SCALARS Omega double
LOOKUP_TABLE default

-1.753987e-01 2.945480e-01 -3.237814e-01 2.006871e-01 -4.011770e-01 3.347370e-01 -3.172817e-01 2.618264e-01 -2.863482e-01 2.227841e-01 -2.269216e-01 1.876993e-01 -1.947849e-01 1.746039e-01 -1.701157e-01 1.689182e-01 -1.440382e-01 1.539457e-01 -1.182645e-01 1.511424e-01 -1.258950e-01 1.622880e-01 -1.015712e-01 1.444687e-01 -6.935117e-02 1.113049e-01 -3.811184e-02 8.566687e-02 -3.664183e-02 1.257791e-01 -6.330335e-02 8.039955e-02 1.235284e-02 2.287908e-02 1.052162e-01 -4.450471e-02 1.007939e-01 -4.943637e-02 1.989834e-01 -1.855991e-01 2.789671e-01 -2.576626e-01 3.112748e-01 -2.479885e-01 3.372509e-01 -4.433816e-01 5.013537e-01 -4.276715e-01 4.103645e-01 -3.436522e-01 3.108709e-01 -2.750210e-01 2.319237e-01 -2.075569e-01 1.523962e-01 -1.363305e-01 7.024548e-02 -7.621553e-02 7.494196e-03 -2.530780e-02 -3.604201e-02 2.738863e-03 -4.297285e-02 -9.227255e-03 
-3.082811e+00 -1.823233e+01 9.253933e+00 -1.446994e+01 5.193487e+00 -1.137436e+01 1.555487e+00 -7.490635e+00 -2.408414e+00 -3.626124e+00 -6.235323e+00 -2.513906e-01 -9.286427e+00 1.956524e+00 -1.091221e+01 2.851774e+00 -1.142260e+01 2.937874e+00 -1.143942e+01 2.744553e+00 -1.119143e+01 2.344587e+00 -1.084047e+01 2.032695e+00 -1.078429e+01 2.289130e+00 -1.132711e+01 2.821079e+00 -1.163247e+01 2.755285e+00 -1.129643e+01 2.487515e+00 -1.113263e+01 2.452519e+00 -1.099031e+01 2.287744e+00 -1.074525e+01 2.069109e+00 -1.030159e+01 1.733284e+00 -9.963273e+00 1.348135e+00 -9.452944e+00 1.072657e+00 -9.378872e+00 1.354436e+00 -9.527162e+00 1.298584e+00 -8.590517e+00 -2.739319e-01 -6.488422e+00 -2.314831e+00 -4.452818e+00 -3.744391e+00 -3.316978e+00 -4.063480e+00 -3.867413e+00 -2.420982e+00 -5.925290e+00 2.346416e-01 -8.506090e+00 2.827045e+00 -1.133760e+01 6.203300e+00 
-2.491854e+00 1.755168e+01 -1.701044e+01 8.856313e+00 -5.964188e+00 6.669502e+00 -7.588631e+00 4.435776e+00 -8.744240e+00 2.522724e+00 -9.164900e+00 8.213854e-01 -9.348413e+00 -2.758308e-01 -9.952317e+00 -6.335142e-01 -1.087262e+01 -5.569822e-01 -1.177604e+01 -4.035090e-01 -1.260974e+01 -1.007944e-01 -1.343757e+01 2.321826e-01 -1.400687e+01 9.568189e-02 -1.385541e+01 -3.507716e-01 -1.380397e+01 -4.127217e-01 -1.403248e+01 -3.938310e-01 -1.404286e+01 -6.032988e-01 -1.396622e+01 -7.690754e-01 -1.366123e+01 -1.097390e+00 -1.363255e+01 -1.164871e+00 -1.327978e+01 -1.302339e+00 -1.306951e+01 -1.649154e+00 -1.229308e+01 -2.264308e+00 -1.144588e+01 -3.029314e+00 -1.074298e+01 -2.848006e+00 -1.072222e+01 -2.442987e+00 -1.056271e+01 -2.431943e+00 -9.861569e+00 -2.792734e+00 -8.156504e+00 -4.258848e+00 -5.472161e+00 -6.276106e+00 -2.162692e+00 -8.687505e+00 4.797641e+00 -1.767661e+01 
-7.050337e-01 1.222353e+01 -1.063298e+01 7.460998e+00 -1.281507e+00 5.298759e+00 -4.227249e+00 3.633681e+00 -4.120434e+00 1.930968e+00 -3.643958e+00 4.523291e-01 -3.178051e+00 -4.895695e-01 -3.180391e+00 -8.169855e-01 -3.550023e+00 -7.891787e-01 -4.004059e+00 -6.702209e-01 -4.477641e+00 -4.438156e-01 -4.964418e+00 -2.259339e-01 -5.258683e+00 -3.475743e-01 -5.082858e+00 -6.725005e-01 -4.999198e+00 -6.878195e-01 -5.180881e+00 -6.364713e-01 -5.204136e+00 -7.454354e-01 -5.177808e+00 -8.115557e-01 -5.069069e+00 -9.397516e-01 -5.120285e+00 -9.337187e-01 -4.992597e+00 -9.440941e-01 -4.972022e+00 -1.069359e+00 -4.588891e+00 -1.463975e+00 -4.102959e+00 -1.846458e+00 -3.925958e+00 -1.456590e+00 -4.307076e+00 -8.704554e-01 -4.604355e+00 -5.982313e-01 -4.463229e+00 -7.190083e-01 -3.502315e+00 -1.765919e+00 -1.762270e+00 -3.291200e+00 3.977528e-01 -5.042272e+00 4.609451e+00 -9.951216e+00 
-4.147503e-02 9.788635e-02 -9.046856e-02 -1.282052e-02 -1.205124e+01 -5.184507e-02 3.896377e-03 2.720224e-03 -1.304503e-02 1.006128e-03 -1.530927e-02 -1.398817e-04 -1.604402e-02 -1.881005e-03 -1.796257e-02 -2.864834e-03 -1.994879e-02 -2.894850e-03 -2.139256e-02 -3.330341e-03 -2.375884e-02 -1.745214e-03 -2.424184e-02 -2.589620e-03 -2.398320e-02 -3.437462e-03 -2.362395e-02 -4.207377e-03 -2.364230e-02 -4.684365e-03 -2.308252e-02 -5.709482e-03 -2.321968e-02 -5.802713e-03 -2.353197e-02 -4.904523e-03 -2.273454e-02 -6.614308e-03 -2.259557e-02 -6.221707e-03 -2.183443e-02 -6.397164e-03 -2.104949e-02 -6.919139e-03 -2.023981e-02 -6.792188e-03 -1.861606e-02 -6.693697e-03 -1.650174e-02 -8.720549e-03 -1.536999e-02 -9.615948e-03 -1.595779e-02 -7.131813e-03 -1.733316e-02 -2.868865e-03 -1.750479e-02 6.629094e-04 -1.316882e-02 -5.571314e-04 -4.810041e-03 -1.705239e-02 4.249108e-02 -2.884758e-02 
-1.362603e-02 -6.692669e-02 -4.298786e-02 9.565050e-02 -1.071871e+01 -2.105402e-01 1.705269e-02 -6.668856e-03 1.154000e-02 -3.634236e-03 6.580615e-03 -2.384838e-03 3.722325e-03 -1.738965e-03 2.161165e-03 -1.196899e-03 1.236008e-03 -8.380978e-04 6.795425e-04 -9.420962e-04 4.320030e-04 -2.651001e-04 7.091956e-04 -8.835488e-05 3.589883e-04 -1.443743e-04 1.242862e-05 -3.239352e-04 2.533555e-04 -6.176717e-05 -8.044008e-05 -3.156775e-04 -1.464091e-04 -2.319148e-04 1.685123e-05 3.210298e-04 3.257594e-04 -4.389930e-05 -1.253095e-04 1.738865e-04 -1.530140e-05 2.228640e-04 9.916284e-05 1.384683e-04 -1.662927e-04 2.370286e-04 3.133986e-04 6.260617e-04 -3.200521e-06 2.463844e-04 -5.232783e-04 -2.202773e-04 -1.103495e-03 -2.698015e-04 -1.515974e-03 8.506717e-05 -1.846738e-03 8.045526e-04 -3.029649e-03 1.638089e-03 -5.465519e-03 7.776962e-03 8.644845e-03 5.282109e-02 
-2.528309e-02 -2.920128e-02 -4.057730e-02 3.953662e-01 -1.599150e+01 -5.709475e-01 2.004324e-02 -4.031745e-03 1.542151e-02 -3.019043e-03 8.788912e-03 -2.316370e-03 4.849202e-03 -1.924197e-03 2.543310e-03 -1.657284e-03 1.228406e-03 -1.451640e-03 5.363362e-04 -1.269693e-03 3.755351e-04 -7.191758e-04 5.260512e-04 -4.108778e-04 4.048874e-04 -2.877712e-04 1.895100e-04 -3.051669e-04 2.412782e-04 -1.863904e-04 2.285332e-05 -2.715903e-04 -4.013118e-05 -1.467044e-04 8.481686e-05 1.315512e-04 2.241487e-04 7.839675e-05 3.525549e-05 1.968984e-04 4.677539e-05 2.743504e-04 1.400383e-04 3.189753e-04 5.762284e-05 4.089655e-04 2.341740e-04 5.312392e-04 -7.297616e-05 2.238565e-04 -6.080718e-04 -3.461438e-05 -1.065486e-03 1.708365e-04 -1.134904e-03 8.779750e-04 -9.582723e-04 1.791454e-03 -1.432260e-03 2.397985e-03 -3.356937e-03 5.152993e-03 8.386748e-04 2.782692e-02 
-8.872274e-03 -1.090442e-02 -1.753427e-02 2.844529e-01 -1.459622e+01 -4.429929e-01 5.119754e-03 -4.276755e-03 8.595968e-03 -4.166988e-03 5.857109e-03 -3.232150e-03 3.719077e-03 -2.366451e-03 2.343396e-03 -1.703993e-03 1.558423e-03 -1.384978e-03 1.039233e-03 -1.054436e-03 8.218753e-04 -7.103733e-04 6.406215e-04 -4.644407e-04 4.913676e-04 -3.714465e-04 2.150587e-04 -3.793766e-04 2.262886e-04 -2.094305e-04 6.561837e-05 -2.660456e-04 3.935304e-05 -5.983817e-05 1.155014e-04 7.199355e-05 1.285594e-04 1.439864e-04 7.318463e-05 2.034845e-04 -3.002805e-05 2.671366e-04 3.831625e-05 3.372200e-04 -9.056908e-05 3.680848e-04 3.639180e-05 5.486210e-04 -7.930497e-05 3.375814e-04 -3.544210e-04 2.969301e-04 -8.463243e-04 4.681393e-04 -1.415671e-03 8.481522e-04 -2.084592e-03 1.579465e-03 -2.865236e-03 3.238924e-03 -2.747044e-03 7.850179e-03 1.220155e-03 1.363517e-02 
-1.211800e-02 -3.534692e-03 -1.727018e-02 3.088176e-01 -1.791677e+01 -5.007912e-01 5.171920e-03 -3.477407e-03 1.020063e-02 -3.320838e-03 7.000824e-03 -2.738580e-03 4.324262e-03 -2.206497e-03 2.521136e-03 -1.862902e-03 1.576790e-03 -1.735961e-03 8.796004e-04 -1.356454e-03 7.201434e-04 -1.003187e-03 4.605390e-04 -7.101920e-04 4.571269e-04 -4.945622e-04 1.817292e-04 -4.747895e-04 1.986993e-04 -2.622609e-04 5.135913e-05 -3.132687e-04 2.958336e-05 -5.008704e-05 1.214114e-04 5.070974e-06 6.035318e-05 1.716456e-04 1.168225e-04 2.223623e-04 -5.802308e-05 3.051704e-04 6.223164e-05 4.293471e-04 -8.851905e-05 4.395125e-04 1.268701e-05 5.853177e-04 -1.137565e-04 3.585936e-04 -2.888264e-04 4.366679e-04 -6.491628e-04 8.007220e-04 -9.631322e-04 1.390082e-03 -1.303859e-03 2.141257e-03 -1.988620e-03 3.188606e-03 -3.061956e-03 5.480846e-03 -3.858798e-03 8.903171e-03 
-3.213423e-03 3.795167e-04 -4.451498e-03 2.168993e-01 -1.652825e+01 -3.949542e-01 -3.465707e-03 -3.406067e-03 4.180546e-03 -3.905945e-03 3.636427e-03 -3.351029e-03 2.566691e-03 -2.499395e-03 1.647821e-03 -1.784864e-03 1.437554e-03 -1.979413e-03 9.489956e-04 -1.228480e-03 1.041814e-03 -1.100757e-03 4.287153e-04 -7.057101e-04 6.766252e-04 -5.007298e-04 5.824682e-05 -6.350243e-04 2.999416e-04 -1.404596e-04 1.399722e-06 -5.020292e-04 5.289268e-05 1.639812e-04 2.077823e-04 -1.365955e-04 -7.215340e-05 3.196655e-04 2.560100e-04 2.050224e-04 -2.807536e-04 2.898950e-04 1.134260e-04 5.544750e-04 -3.372368e-04 3.543769e-04 -3.798334e-05 8.321106e-04 -9.313580e-05 1.695588e-04 -3.853547e-05 4.894052e-04 -5.575560e-04 9.468806e-04 -1.115271e-03 1.473097e-03 -1.613712e-03 2.279747e-03 -1.917038e-03 3.710650e-03 -1.587177e-03 5.919658e-03 -6.455016e-04 6.634402e-03 
-4.709189e-03 2.511757e-03 -5.052392e-03 2.188224e-01 -1.867945e+01 -4.173403e-01 -3.820674e-03 -3.751535e-03 4.822687e-03 -3.499688e-03 4.148512e-03 -2.852436e-03 2.739021e-03 -2.123274e-03 1.502597e-03 -1.786349e-03 1.704084e-03 -2.307767e-03 6.836597e-04 -1.455715e-03 1.187799e-03 -1.229279e-03 1.368191e-04 -9.484434e-04 7.960725e-04 -4.866541e-04 -1.142374e-04 -8.473672e-04 3.262071e-04 -6.547937e-05 -4.942231e-05 -6.722387e-04 -8.909937e-06 2.528095e-04 3.098540e-04 -2.356632e-04 -2.141040e-04 3.797008e-04 4.290011e-04 2.082048e-04 -4.599820e-04 3.072558e-04 2.587160e-04 6.526334e-04 -5.108557e-04 3.700687e-04 3.639957e-05 1.028517e-03 -1.492299e-04 1.521341e-04 2.571349e-04 5.409124e-04 -2.609530e-04 1.147480e-03 -7.395029e-04 1.776710e-03 -1.140962e-03 2.497200e-03 -1.619095e-03 3.441482e-03 -2.198197e-03 4.703184e-03 -2.882537e-03 5.394781e-03 
8.526286e-04 3.311434e-03 1.954052e-03 1.537882e-01 -1.729025e+01 -3.380773e-01 -8.732184e-03 -3.675033e-03 3.733698e-04 -3.833123e-03 1.200883e-03 -3.284077e-03 8.629373e-04 -2.180488e-03 -9.194214e-05 -8.133666e-04 1.514378e-03 -3.566343e-03 2.312281e-04 -8.276144e-04 1.975139e-03 -1.760680e-03 -6.751997e-04 -7.975660e-04 1.753327e-03 -2.556585e-04 -9.789127e-04 -1.542011e-03 9.343184e-04 8.106082e-04 -4.369295e-04 -1.775750e-03 -1.690572e-05 1.355079e-03 7.266078e-04 -1.109070e-03 -8.659272e-04 1.058711e-03 1.311614e-03 5.364295e-06 -1.475272e-03 1.383351e-04 1.056729e-03 1.255185e-03 -1.382875e-03 -3.168226e-04 2.628738e-04 2.296054e-03 -2.861583e-04 -1.055176e-03 9.488619e-04 4.564693e-04 -1.679738e-04 1.352102e-03 -7.594760e-04 1.957273e-03 -1.002400e-03 2.681270e-03 -9.560357e-04 3.700152e-03 -4.909864e-04 4.825852e-03 3.046003e-04 5.040488e-03 
-4.332772e-05 4.223053e-03 1.269528e-03 1.501392e-01 -1.864820e+01 -3.468311e-01 -8.851416e-03 -4.329367e-03 7.718391e-04 -3.805314e-03 1.521355e-03 -2.886042e-03 7.131497e-04 -1.362366e-03 -1.361021e-03 -6.405314e-04 3.110654e-03 -4.327385e-03 -1.026793e-03 -1.043581e-03 3.325562e-03 -1.500589e-03 -1.892481e-03 -1.465742e-03 2.740085e-03 4.245225e-04 -1.807990e-03 -2.351792e-03 1.255056e-03 1.596909e-03 -6.416315e-04 -2.546736e-03 -2.908972e-04 1.956654e-03 1.350616e-03 -1.628513e-03 -1.579642e-03 1.327281e-03 2.303125e-03 -1.181532e-04 -2.479454e-03 1.165060e-04 1.954134e-03 1.530931e-03 -2.390981e-03 -5.356179e-04 8.273488e-04 3.071720e-03 -9.285922e-04 -1.387833e-03 1.953253e-03 2.905114e-04 1.404708e-04 1.461326e-03 -5.878329e-04 2.138415e-03 -8.290505e-04 2.758779e-03 -9.429737e-04 3.485339e-03 -9.625160e-04 4.265524e-03 -7.608675e-04 4.683482e-03 
3.503346e-03 4.248359e-03 5.362620e-03 1.021618e-01 -1.724310e+01 -2.844730e-01 -1.152489e-02 -4.262543e-03 -2.204194e-03 -4.124123e-03 -5.209066e-04 -3.556783e-03 -4.992295e-04 -1.741131e-03 -5.040024e-03 6.130764e-03 5.299535e-03 -9.779119e-03 -3.280870e-03 4.799031e-03 8.063557e-03 -4.073142e-03 -6.478234e-03 9.064706e-04 8.455931e-03 2.142980e-03 -6.158566e-03 -4.970743e-03 4.983854e-03 7.373587e-03 -2.105861e-03 -8.138290e-03 -2.448020e-04 8.931630e-03 4.246539e-03 -6.629325e-03 -5.006246e-03 5.724694e-03 7.879754e-03 -1.373487e-03 -7.483640e-03 -3.774348e-04 7.209408e-03 4.953430e-03 -6.103981e-03 -4.882997e-03 2.851651e-03 1.020219e-02 -1.927998e-03 -7.570992e-03 4.714686e-03 9.062565e-04 -2.727398e-04 2.088729e-03 -7.391230e-04 2.439396e-03 -5.426482e-04 2.920343e-03 -1.260738e-04 3.601416e-03 6.047978e-04 4.294037e-03 1.754333e-03 4.582581e-03 
2.853759e-03 4.725686e-03 4.746281e-03 9.581486e-02 -1.801845e+01 -2.847801e-01 -1.126450e-02 -4.937384e-03 -1.652594e-03 -4.524111e-03 2.370183e-04 -3.706740e-03 -1.543406e-05 4.284619e-04 -1.149152e-02 1.543421e-01 2.995877e-01 1.530697e-01 2.115051e-02 2.431397e-01 2.557198e-01 5.564739e-02 9.687723e-02 2.865684e-01 1.818221e-01 2.994536e-02 2.069046e-01 2.654884e-01 7.742752e-02 9.767641e-02 2.734495e-01 1.936838e-01 2.004181e-02 2.053263e-01 2.807317e-01 8.830378e-02 5.822425e-02 2.692953e-01 2.271793e-01 2.456365e-02 1.568537e-01 2.772401e-01 1.268734e-01 4.996529e-02 2.360635e-01 2.211770e-01 4.276871e-02 1.438901e-01 2.781375e-01 1.343623e-01 9.922500e-03 5.320456e-04 -6.544793e-04 2.424005e-03 -1.040260e-03 2.688038e-03 -6.486327e-04 2.988411e-03 -2.529580e-04 3.470050e-03 2.537632e-04 4.028818e-03 1.139387e-03 4.476280e-03 
5.083625e-03 4.524414e-03 7.249710e-03 5.628557e-02 -1.658977e+01 -2.306605e-01 -1.255105e-02 -4.775522e-03 -3.562807e-03 -4.832662e-03 -6.720784e-04 -5.409884e-03 3.179511e-03 -7.118792e-03 -1.251444e-02 2.627795e+00 5.719330e+00 3.100689e+00 6.162337e-01 4.497752e+00 5.026381e+00 1.129698e+00 2.178349e+00 5.686788e+00 3.624037e+00 4.818951e-01 4.411135e+00 5.620814e+00 1.551794e+00 1.745668e+00 5.760274e+00 4.331554e+00 4.594512e-01 3.967354e+00 5.874107e+00 2.085648e+00 1.361109e+00 5.508522e+00 4.722469e+00 5.781675e-01 3.495295e+00 6.029135e+00 2.579965e+00 9.568001e-01 5.221065e+00 5.122015e+00 8.251683e-01 2.902617e+00 6.244116e+00 3.394877e+00 3.374934e-02 8.985134e-03 -5.546522e-03 3.886229e-03 -1.552202e-03 2.945056e-03 -2.624213e-04 3.023259e-03 5.687255e-04 3.452364e-03 1.549509e-03 3.959168e-03 2.958384e-03 4.335561e-03 
4.524585e-03 4.731908e-03 6.683859e-03 4.763873e-02 -1.691618e+01 -2.242237e-01 -1.201829e-02 -5.266552e-03 -2.902004e-03 -5.745741e-03 1.123880e-03 -8.981548e-03 1.012932e-02 -2.322234e-02 1.645098e-02 3.598010e+00 7.855044e+00 4.225603e+00 8.904682e-01 6.204136e+00 6.938941e+00 1.529043e+00 3.062520e+00 7.884200e+00 5.016850e+00 6.555375e-01 6.170356e+00 7.808449e+00 2.151185e+00 2.437757e+00 8.049238e+00 6.021384e+00 6.474361e-01 5.553250e+00 8.199003e+00 2.895445e+00 1.926824e+00 7.717986e+00 6.585800e+00 8.052492e-01 4.926317e+00 8.453241e+00 3.588003e+00 1.359516e+00 7.354550e+00 7.193608e+00 1.136309e+00 4.114963e+00 8.808539e+00 4.785205e+00 2.165375e-02 1.875958e-02 -1.005868e-02 5.887541e-03 -2.516957e-03 3.361858e-03 -4.534225e-04 3.041164e-03 4.456407e-04 3.319084e-03 1.288504e-03 3.775596e-03 2.519209e-03 4.253765e-03 
5.868354e-03 4.429472e-03 8.211045e-03 1.406722e-02 -1.546783e+01 -1.758117e-01 -1.255211e-02 -4.712069e-03 -4.673527e-03 -4.851588e-03 -1.812939e-03 -6.207640e-03 1.741107e-03 -1.104238e-02 1.640929e-02 -1.392859e+00 -2.991399e+00 -1.628288e+00 -3.009823e-01 -2.348080e+00 -2.587369e+00 -5.970230e-01 -1.119326e+00 -2.928820e+00 -1.838556e+00 -2.625169e-01 -2.261806e+00 -2.867569e+00 -7.720330e-01 -9.059802e-01 -2.935183e+00 -2.194622e+00 -2.268809e-01 -2.026228e+00 -2.971229e+00 -1.048355e+00 -6.973028e-01 -2.791490e+00 -2.371956e+00 -2.876062e-01 -1.776940e+00 -3.032588e+00 -1.286787e+00 -4.809383e-01 -2.631372e+00 -2.554739e+00 -4.158264e-01 -1.453104e+00 -3.118329e+00 -1.680357e+00 -1.653640e-02 2.262639e-03 -1.215266e-04 2.615205e-03 1.004294e-04 2.513441e-03 6.092979e-04 2.735232e-03 1.310966e-03 3.138950e-03 2.310215e-03 3.601069e-03 3.761951e-03 4.033382e-03 
5.324125e-03 4.415463e-03 7.642106e-03 5.096989e-03 -1.544000e+01 -1.654543e-01 -1.207954e-02 -4.356620e-03 -5.079566e-03 -3.394131e-03 -4.266306e-03 -9.875903e-04 -8.874877e-03 8.392987e-03 -2.538719e-03 -3.736385e+00 -8.159661e+00 -4.409604e+00 -9.036420e-01 -6.430612e+00 -7.193875e+00 -1.606367e+00 -3.152144e+00 -8.162089e+00 -5.196033e+00 -6.884761e-01 -6.369510e+00 -8.082824e+00 -2.225907e+00 -2.518355e+00 -8.314491e+00 -6.234753e+00 -6.652948e-01 -5.730534e+00 -8.472890e+00 -3.001101e+00 -1.981418e+00 -7.964211e+00 -6.808293e+00 -8.326948e-01 -5.075704e+00 -8.724480e+00 -3.713855e+00 -1.392427e+00 -7.579623e+00 -7.423105e+00 -1.181957e+00 -4.225523e+00 -9.072207e+00 -4.933503e+00 -3.121460e-02 -1.142346e-02 9.032017e-03 -9.155806e-04 2.332493e-03 1.474440e-03 1.200329e-03 2.322778e-03 1.390306e-03 2.877188e-03 2.130770e-03 3.387214e-03 3.386622e-03 3.891888e-03 
6.062056e-03 4.052469e-03 8.476714e-03 -1.720638e-02 -1.398662e+01 -1.283236e-01 -1.205139e-02 -3.780045e-03 -6.035865e-03 -2.720332e-03 -5.104662e-03 -2.485901e-04 -7.329287e-03 7.816498e-03 -3.986436e-03 -1.248946e+00 -2.739931e+00 -1.464997e+00 -3.146286e-01 -2.163554e+00 -2.439361e+00 -5.321481e-01 -1.065410e+00 -2.763252e+00 -1.778344e+00 -2.274806e-01 -2.159637e+00 -2.745286e+00 -7.716674e-01 -8.559375e-01 -2.831921e+00 -2.121299e+00 -2.306944e-01 -1.959233e+00 -2.900740e+00 -1.023443e+00 -6.702028e-01 -2.728012e+00 -2.341948e+00 -2.859179e-01 -1.728595e+00 -2.993639e+00 -1.284280e+00 -4.821098e-01 -2.596418e+00 -2.553894e+00 -4.064602e-01 -1.464198e+00 -3.123993e+00 -1.700183e+00 -1.566298e-02 -7.487122e-03 4.919819e-03 -9.262129e-04 2.144671e-03 1.125263e-03 1.630538e-03 2.041067e-03 1.973967e-03 2.643555e-03 2.826148e-03 3.151251e-03 4.160252e-03 3.612900e-03 
5.493334e-03 3.906590e-03 7.844734e-03 -2.251299e-02 -1.367752e+01 -1.189465e-01 -1.131155e-02 -3.545043e-03 -5.782977e-03 -2.469399e-03 -4.746118e-03 -9.101132e-04 -4.498404e-03 8.905305e-04 -3.780515e-04 -1.354253e-02 -3.351287e-03 1.362147e-02 -4.323021e-03 -1.180209e-02 -1.116392e-02 8.760228e-03 2.863277e-03 -8.149119e-03 -1.427451e-02 -3.299761e-04 2.415639e-03 1.454198e-03 -1.037308e-02 -1.101317e-02 -3.510354e-03 8.226331e-03 -2.144474e-03 -1.800617e-02 -1.139747e-02 8.067849e-03 4.029544e-03 -1.584059e-02 -1.497827e-02 1.431889e-03 3.973073e-03 -6.743763e-03 -1.143622e-02 -9.182245e-03 -1.287292e-03 1.462529e-03 -1.612600e-03 -1.971534e-02 -8.650543e-03 8.499714e-03 -3.688414e-03 -1.043111e-03 2.118806e-03 -1.968629e-04 1.905434e-03 9.960067e-04 1.657862e-03 1.808370e-03 1.900343e-03 2.410325e-03 2.597202e-03 2.930080e-03 3.765654e-03 3.421047e-03 
5.801545e-03 3.527166e-03 8.143711e-03 -3.355436e-02 -1.223067e+01 -9.324957e-02 -1.086861e-02 -3.166994e-03 -6.043375e-03 -2.303436e-03 -4.825165e-03 -1.335141e-03 -3.945814e-03 -1.156207e-03 -6.094251e-04 -8.372631e-03 2.088920e-03 3.535067e-03 -1.491738e-03 -5.982978e-03 -3.137396e-03 3.043235e-03 3.143020e-03 -3.008403e-03 -5.143484e-03 -5.619067e-04 4.930652e-03 1.765250e-03 -3.989054e-03 -4.284107e-03 2.763180e-03 4.812402e-03 -6.127655e-04 -5.433996e-03 -1.832144e-03 4.434055e-03 3.107022e-03 -3.049833e-03 -4.673719e-03 1.067345e-03 5.161422e-03 1.401515e-03 -4.092912e-03 -3.012359e-03 3.929346e-03 4.662903e-03 -4.353619e-04 -5.028158e-03 -8.470094e-04 7.381011e-03 -1.902227e-03 5.577127e-04 1.369573e-03 3.355136e-04 1.665563e-03 1.022488e-03 1.786585e-03 1.668107e-03 2.202876e-03 2.208590e-03 2.982205e-03 2.684064e-03 4.162551e-03 3.120004e-03 
5.190341e-03 3.315633e-03 7.413644e-03 -3.444913e-02 -1.169374e+01 -8.618419e-02 -9.920965e-03 -3.025653e-03 -5.435360e-03 -2.306247e-03 -4.124298e-03 -1.744228e-03 -2.874600e-03 -1.982334e-03 -6.384841e-04 -4.761715e-03 7.921194e-04 2.797476e-04 -9.750425e-04 -3.037361e-03 -1.629089e-03 6.259892e-04 1.046077e-03 -1.687704e-03 -2.253868e-03 -4.546525e-04 1.948217e-03 3.728497e-04 -1.658033e-03 -1.671046e-03 1.117003e-03 1.628799e-03 -2.582224e-04 -2.092263e-03 -7.859179e-04 1.524880e-03 1.284104e-03 -1.158330e-03 -1.872494e-03 4.146565e-04 2.214858e-03 6.715911e-04 -1.508041e-03 -9.317627e-04 1.792763e-03 2.008715e-03 -3.611559e-06 -1.326811e-03 -6.887299e-04 3.769202e-03 -1.052246e-03 1.223350e-03 7.152324e-04 7.416239e-04 1.302508e-03 1.072343e-03 1.575405e-03 1.554274e-03 1.979656e-03 2.026229e-03 2.666704e-03 2.472810e-03 3.713512e-03 2.902047e-03 
5.184098e-03 2.943227e-03 7.300153e-03 -3.740088e-02 -1.026129e+01 -6.878878e-02 -9.226460e-03 -2.736975e-03 -5.315271e-03 -2.182403e-03 -4.025617e-03 -1.812398e-03 -2.807860e-03 -2.000684e-03 -1.145708e-03 -3.204928e-03 -2.513008e-04 -7.010330e-04 -8.054859e-04 -2.009255e-03 -1.072219e-03 -2.233518e-04 2.082697e-04 -1.105964e-03 -1.131082e-03 -5.195851e-04 7.116605e-04 2.609458e-05 -7.600380e-04 -9.412515e-04 4.150340e-04 6.885215e-04 -1.271498e-04 -1.067802e-03 -3.559468e-04 6.850979e-04 5.508252e-04 -5.652287e-04 -7.671855e-04 2.555947e-04 9.958334e-04 4.062772e-04 -5.615937e-04 -2.536413e-04 8.668418e-04 1.191365e-03 5.910370e-05 -2.307500e-04 -2.655796e-04 2.340289e-03 -3.668837e-04 1.201222e-03 6.812202e-04 8.820930e-04 1.212939e-03 1.091024e-03 1.590563e-03 1.458413e-03 2.080133e-03 1.850017e-03 2.800710e-03 2.232694e-03 3.817965e-03 2.599522e-03 
4.529486e-03 2.695670e-03 6.473609e-03 -3.508875e-02 -9.536093e+00 -6.320469e-02 -8.176703e-03 -2.579651e-03 -4.603008e-03 -2.113630e-03 -3.391946e-03 -1.826589e-03 -2.291756e-03 -1.876937e-03 -1.122133e-03 -2.247808e-03 -4.452349e-04 -1.148069e-03 -6.470748e-04 -1.396572e-03 -6.638293e-04 -5.847639e-04 -1.291259e-04 -8.190233e-04 -5.554169e-04 -4.700394e-04 1.940097e-04 -2.402573e-04 -3.290502e-04 -4.786966e-04 1.376959e-04 1.053190e-04 -6.781368e-05 -4.439051e-04 -1.496298e-04 1.876251e-04 2.070499e-04 -1.875803e-04 -2.648262e-04 1.432632e-04 4.311236e-04 2.668733e-04 -1.207116e-04 1.010490e-04 4.159995e-04 7.014337e-04 9.553912e-05 3.743371e-04 -1.571816e-04 1.444505e-03 -1.114305e-04 1.092678e-03 4.977512e-04 9.383133e-04 9.509004e-04 1.080240e-03 1.323418e-03 1.360313e-03 1.776808e-03 1.686639e-03 2.417134e-03 2.025597e-03 3.315584e-03 2.365705e-03 
4.290698e-03 2.333320e-03 6.060091e-03 -3.358290e-02 -8.124987e+00 -5.050436e-02 -7.316485e-03 -2.305696e-03 -4.260037e-03 -1.939169e-03 -3.178929e-03 -1.686119e-03 -2.268371e-03 -1.571897e-03 -1.445413e-03 -1.562761e-03 -7.789760e-04 -1.278996e-03 -6.765651e-04 -1.068946e-03 -4.543000e-04 -7.318663e-04 -3.364042e-04 -6.477870e-04 -2.567365e-04 -4.324933e-04 -1.185764e-04 -3.510066e-04 -1.332496e-04 -2.651468e-04 -3.686899e-05 -1.529052e-04 -5.165833e-05 -1.418792e-04 -2.435026e-05 -1.779654e-05 2.295896e-05 7.110690e-06 6.990986e-06 1.037065e-04 9.311652e-05 2.083448e-04 7.491433e-05 2.701003e-04 1.175900e-04 4.783017e-04 1.219080e-04 6.002075e-04 5.180930e-05 8.523629e-04 2.552671e-04 8.592454e-04 5.686477e-04 9.002565e-04 8.955198e-04 1.043013e-03 1.263180e-03 1.258966e-03 1.732947e-03 1.514179e-03 2.362266e-03 1.787297e-03 3.200490e-03 2.065080e-03 
3.603573e-03 2.057582e-03 5.165108e-03 -2.972589e-02 -7.242280e+00 -4.501857e-02 -6.207719e-03 -2.100267e-03 -3.518210e-03 -1.786095e-03 -2.589678e-03 -1.530342e-03 -1.890338e-03 -1.288930e-03 -1.374646e-03 -1.094426e-03 -6.649227e-04 -1.292428e-03 -5.898682e-04 -8.269009e-04 -1.844257e-04 -7.349244e-04 -4.035873e-04 -5.434669e-04 -1.516645e-05 -3.525965e-04 -2.577204e-04 -4.266044e-04 3.408219e-06 -1.089011e-04 -1.066883e-04 -3.133616e-04 -4.034019e-05 4.779586e-05 6.431061e-05 -1.453892e-04 -8.992920e-05 1.246106e-04 1.712063e-04 6.700792e-05 -1.162837e-04 1.685614e-04 1.930477e-04 3.437598e-04 -9.187210e-05 3.220551e-04 1.264611e-04 7.107453e-04 6.468561e-05 4.671035e-04 3.909429e-04 6.635732e-04 4.799842e-04 8.276631e-04 6.768167e-04 9.730320e-04 9.818010e-04 1.143245e-03 1.393005e-03 1.345532e-03 1.939282e-03 1.572503e-03 2.662027e-03 1.814361e-03 
3.193916e-03 1.699049e-03 4.552859e-03 -2.691214e-02 -5.860400e+00 -3.390972e-02 -5.205888e-03 -1.821469e-03 -3.007240e-03 -1.604431e-03 -2.210004e-03 -1.387389e-03 -1.723692e-03 -9.538560e-04 -1.725907e-03 -1.081524e-04 -7.542140e-04 -1.805466e-03 -6.711923e-04 -2.646007e-04 2.905229e-04 -1.000301e-03 -8.570413e-04 -3.258640e-04 5.731954e-04 -2.087483e-04 -7.998841e-04 -7.405605e-04 3.898886e-04 3.909345e-04 -3.733479e-04 -9.007993e-04 -2.196019e-05 6.773334e-04 2.909661e-04 -6.257520e-04 -4.525428e-04 5.142188e-04 6.837781e-04 -5.489254e-05 -7.155935e-04 5.551262e-05 6.557321e-04 6.591177e-04 -6.038742e-04 -1.457850e-04 2.527586e-04 1.320156e-03 1.095064e-04 -4.471498e-04 8.449316e-04 4.369898e-04 4.758394e-04 8.081255e-04 5.425544e-04 9.319148e-04 8.364593e-04 1.031295e-03 1.240739e-03 1.163177e-03 1.748220e-03 1.326963e-03 2.387651e-03 1.510634e-03 
2.491839e-03 1.394053e-03 3.630012e-03 -2.306359e-02 -4.845331e+00 -2.719472e-02 -4.044976e-03 -1.572586e-03 -2.244726e-03 -1.422607e-03 -1.587792e-03 -1.226612e-03 -1.314086e-03 -6.591548e-04 -1.833278e-03 5.698261e-04 -4.492898e-04 -2.100240e-03 -7.364251e-04 1.375726e-04 8.708384e-04 -1.066009e-03 -1.235447e-03 -2.246892e-04 1.155268e-03 -1.435657e-05 -1.239832e-03 -9.639804e-04 7.343329e-04 7.821180e-04 -5.743494e-04 -1.287530e-03 -1.901976e-05 1.092889e-03 5.256200e-04 -9.516977e-04 -7.820962e-04 7.434356e-04 1.162822e-03 -1.521954e-04 -1.260950e-03 -2.218392e-05 1.086690e-03 8.367920e-04 -1.108190e-03 -4.718434e-04 3.904491e-04 1.695379e-03 -2.573666e-05 -1.022371e-03 1.156494e-03 2.714231e-04 3.503255e-04 7.466575e-04 2.920183e-04 8.484694e-04 5.392996e-04 8.968844e-04 8.896058e-04 9.768578e-04 1.313727e-03 1.094118e-03 1.836240e-03 1.237881e-03 
1.958882e-03 1.032050e-03 2.903711e-03 -2.147938e-02 -3.502450e+00 -1.520094e-02 -2.916556e-03 -1.270996e-03 -1.606878e-03 -1.281227e-03 -9.520811e-04 -1.338411e-03 -6.424486e-04 -8.268022e-04 -2.883817e-03 4.297009e-03 1.428809e-04 -5.343199e-03 -1.236365e-03 3.203368e-03 3.328373e-03 -2.715658e-03 -3.680076e-03 1.014105e-03 4.406813e-03 6.656712e-04 -3.793386e-03 -2.362962e-03 3.007190e-03 3.637644e-03 -1.551758e-03 -4.231662e-03 1.659798e-04 4.665908e-03 1.991363e-03 -3.563926e-03 -2.622284e-03 3.048366e-03 4.187388e-03 -8.068434e-04 -4.018973e-03 -2.653173e-04 3.990757e-03 2.651773e-03 -3.093351e-03 -2.771379e-03 1.368948e-03 5.515701e-03 -2.293396e-04 -4.373578e-03 2.552359e-03 5.914397e-04 -9.351041e-05 9.853933e-04 -4.434319e-05 8.467288e-04 3.128179e-04 7.647221e-04 6.692219e-04 7.698491e-04 1.035270e-03 8.312097e-04 1.452977e-03 9.244829e-04 
1.262556e-03 6.954625e-04 1.995145e-03 -1.894482e-02 -2.376521e+00 -6.134201e-03 -1.719967e-03 -9.664493e-04 -8.534548e-04 -1.093862e-03 -2.354659e-04 -1.352239e-03 1.569808e-04 -1.065520e-03 -3.537796e-03 6.558393e-02 1.331392e-01 6.611780e-02 1.273153e-02 1.087677e-01 1.212341e-01 2.346056e-02 4.568279e-02 1.341387e-01 9.058534e-02 1.208074e-02 9.844476e-02 1.284796e-01 4.077350e-02 4.531999e-02 1.333034e-01 9.609432e-02 1.112720e-02 9.936432e-02 1.405871e-01 4.476553e-02 2.830629e-02 1.338769e-01 1.165113e-01 1.276199e-02 7.717726e-02 1.418509e-01 6.644432e-02 2.559206e-02 1.196963e-01 1.171930e-01 2.158237e-02 7.507209e-02 1.468302e-01 7.477609e-02 4.167779e-03 9.882626e-04 -6.035712e-04 1.075941e-03 -3.984454e-04 7.654106e-04 1.652034e-05 5.994810e-04 3.398302e-04 5.529986e-04 6.201604e-04 5.720460e-04 9.145019e-04 6.256706e-04 
6.437170e-04 3.271405e-04 1.213459e-03 -2.014009e-02 -1.085446e+00 8.219109e-03 -5.282688e-04 -5.649994e-04 -2.402691e-04 -8.628110e-04 5.834466e-04 -1.908610e-03 3.133340e-03 -5.613278e-03 -4.059576e-03 1.254613e+00 2.823863e+00 1.565657e+00 3.016954e-01 2.204411e+00 2.509114e+00 5.760136e-01 1.064180e+00 2.818757e+00 1.827809e+00 2.343759e-01 2.180553e+00 2.811137e+00 7.928087e-01 8.510607e-01 2.866331e+00 2.181096e+00 2.327175e-01 1.960407e+00 2.942027e+00 1.061059e+00 6.672927e-01 2.742963e+00 2.378465e+00 2.961206e-01 1.728595e+00 3.023436e+00 1.313193e+00 4.672705e-01 2.604874e+00 2.587222e+00 4.237132e-01 1.432078e+00 3.136806e+00 1.739182e+00 1.822480e-02 5.986937e-03 -3.554943e-03 1.692205e-03 -9.217354e-04 6.719142e-04 -1.695043e-04 3.805137e-04 1.249324e-04 2.968690e-04 3.036953e-04 2.838989e-04 4.642444e-04 3.000530e-04 
-2.477893e-05 -3.677118e-05 3.535580e-04 -1.969693e-02 1.318894e-01 2.025854e-02 6.495734e-04 -1.417919e-04 3.665206e-04 -4.899832e-04 1.145078e-03 -1.786859e-03 4.450279e-03 -7.166049e-03 -2.446246e-03 1.757549e+00 3.954819e+00 2.193547e+00 4.244148e-01 3.088520e+00 3.509217e+00 8.062247e-01 1.495979e+00 3.946940e+00 2.551814e+00 3.288024e-01 3.058279e+00 3.933498e+00 1.103690e+00 1.192821e+00 4.013674e+00 3.049925e+00 3.249935e-01 2.744115e+00 4.112436e+00 1.481985e+00 9.383991e-01 3.837089e+00 3.319359e+00 4.131561e-01 2.424171e+00 4.226550e+00 1.828771e+00 6.540229e-01 3.646728e+00 3.614645e+00 5.891055e-01 2.002519e+00 4.386472e+00 2.430679e+00 2.110548e-02 7.695722e-03 -4.802980e-03 1.674669e-03 -1.203787e-03 4.489128e-04 -3.535620e-04 1.345907e-04 -1.286845e-04 3.604037e-05 -5.997861e-05 -2.865670e-06 -3.610174e-05 -2.177076e-05 
-6.978995e-04 -4.044468e-04 -4.618382e-04 -2.297574e-02 1.353525e+00 3.612852e-02 1.796301e-03 4.691355e-04 5.695232e-04 5.444823e-04 8.382742e-05 1.077867e-03 -1.370602e-03 3.561008e-03 -1.071246e-03 -6.345217e-01 -1.422076e+00 -7.845410e-01 -1.547045e-01 -1.113952e+00 -1.261886e+00 -2.873062e-01 -5.427419e-01 -1.423552e+00 -9.174508e-01 -1.181042e-01 -1.107112e+00 -1.417906e+00 -3.965203e-01 -4.328480e-01 -1.451631e+00 -1.098620e+00 -1.175197e-01 -9.951673e-01 -1.485987e+00 -5.330875e-01 -3.416966e-01 -1.390626e+00 -1.198429e+00 -1.488819e-01 -8.811735e-01 -1.530641e+00 -6.592283e-01 -2.390699e-01 -1.324520e+00 -1.308322e+00 -2.118177e-01 -7.305571e-01 -1.592427e+00 -8.789718e-01 -5.611250e-03 -3.392868e-03 1.602186e-03 -8.317613e-04 2.588046e-04 -3.459960e-04 -1.089305e-04 -2.617983e-04 -2.632278e-04 -2.722130e-04 -3.864719e-04 -3.077746e-04 -5.262052e-04 -3.514296e-04 