# vtk DataFile Version 2.0
Comment goes here
ASCII

DATASET STRUCTURED_POINTS
FIELD FieldData 1
TIME 1 1 double
0.06700000
DIMENSIONS    64   64   1

ORIGIN    0.000   0.000   0.000
SPACING   0.03125 0.03125   1.000

POINT_DATA   4096
SCALARS Omega double
LOOKUP_TABLE default

2.073628e-01 -7.893986e-02 -1.911674e-01 -2.576102e-01 -1.914332e-01 -8.670878e-02 -1.552328e-01 -9.119258e-02 -2.096298e-01 -4.956278e-03 -2.305501e-01 1.054402e-01 -2.326506e-01 2.313475e-01 -2.023261e-01 3.403226e-01 -1.570516e-01 4.379570e-01 -4.246605e-02 5.349489e-01 1.192583e-01 5.166906e-01 1.358636e-01 4.371250e-01 2.268025e-01 4.642061e-01 3.067149e-01 4.590104e-01 3.171361e-01 3.651653e-01 3.426333e-01 3.605343e-01 3.761453e-01 3.718096e-01 3.451332e-01 3.594129e-01 3.364940e-01 3.247812e-01 3.338632e-01 3.436892e-01 3.409758e-01 3.441469e-01 3.138090e-01 2.610123e-01 3.080289e-01 2.906797e-01 2.282080e-01 1.812269e-01 2.172787e-01 4.164244e-02 2.133102e-01 -7.086526e-02 1.951405e-01 -1.877208e-01 1.919268e-01 -2.905990e-01 1.979203e-01 -3.642740e-01 1.974411e-01 -4.258912e-01 2.075563e-01 -4.758209e-01 2.723084e-01 -6.618781e-01 
-1.887879e+01 -3.760511e+01 -1.532130e+01 -3.301020e+01 -2.110710e+01 -2.835774e+01 -2.661845e+01 -2.513853e+01 -3.236443e+01 -2.451991e+01 -3.496257e+01 -2.469605e+01 -3.643017e+01 -2.433406e+01 -3.877363e+01 -2.220130e+01 -4.278411e+01 -1.838105e+01 -4.803544e+01 -1.360075e+01 -5.359716e+01 -8.710115e+00 -5.898337e+01 -3.577639e+00 -6.456012e+01 1.590224e+00 -7.033225e+01 7.170714e+00 -7.623986e+01 1.262759e+01 -8.140242e+01 1.682778e+01 -8.524188e+01 1.962091e+01 -8.768421e+01 2.132148e+01 -8.912614e+01 2.210959e+01 -8.984143e+01 2.245516e+01 -9.004167e+01 2.206367e+01 -8.911391e+01 2.043834e+01 -8.656238e+01 1.713386e+01 -8.226485e+01 1.227362e+01 -7.607675e+01 5.900898e+00 -6.833537e+01 -1.848538e+00 -5.940934e+01 -1.005030e+01 -5.044875e+01 -1.748392e+01 -4.232992e+01 -2.405420e+01 -3.433556e+01 -3.065789e+01 -2.601781e+01 -3.706018e+01 -1.671400e+01 -4.299653e+01 
-6.165284e+01 4.562823e+00 -5.220861e+01 7.550542e+00 -9.341608e+00 5.598533e+00 -5.511221e+01 -9.992575e-01 -7.100091e+01 -1.678507e+00 -8.240471e+01 -1.512581e+00 -9.116017e+01 -1.582364e+00 -9.736782e+01 -2.771512e+00 -1.012068e+02 -4.929970e+00 -1.033975e+02 -7.494297e+00 -1.048584e+02 -9.852076e+00 -1.056929e+02 -1.222862e+01 -1.058201e+02 -1.465960e+01 -1.054166e+02 -1.737702e+01 -1.043747e+02 -2.000599e+01 -1.033572e+02 -2.199246e+01 -1.028459e+02 -2.332063e+01 -1.027096e+02 -2.416262e+01 -1.027387e+02 -2.465588e+01 -1.026363e+02 -2.518785e+01 -1.022151e+02 -2.543020e+01 -1.019159e+02 -2.497287e+01 -1.019231e+02 -2.379795e+01 -1.022046e+02 -2.159921e+01 -1.028834e+02 -1.868788e+01 -1.035466e+02 -1.493173e+01 -1.040868e+02 -1.081824e+01 -1.036869e+02 -7.271452e+00 -1.015115e+02 -4.213845e+00 -9.811011e+01 -5.305044e-01 -9.352611e+01 3.556393e+00 -8.990691e+01 7.701848e+00 
-2.952748e+01 4.907334e+00 -2.840311e+01 1.083662e+01 -3.662074e+01 5.078912e+00 -1.975356e+01 9.721334e+00 -3.007399e+01 8.055458e+00 -3.707015e+01 6.887859e+00 -4.226474e+01 5.651941e+00 -4.559826e+01 3.629252e+00 -4.723573e+01 1.015283e+00 -4.760455e+01 -1.804985e+00 -4.739096e+01 -4.365825e+00 -4.687117e+01 -7.226532e+00 -4.600248e+01 -9.627601e+00 -4.457568e+01 -1.211333e+01 -4.284231e+01 -1.468827e+01 -4.126133e+01 -1.645282e+01 -3.992822e+01 -1.736684e+01 -3.909989e+01 -1.785802e+01 -3.857896e+01 -1.788320e+01 -3.805248e+01 -1.794313e+01 -3.752744e+01 -1.769500e+01 -3.735750e+01 -1.697309e+01 -3.764885e+01 -1.557738e+01 -3.838585e+01 -1.346919e+01 -3.986991e+01 -1.082634e+01 -4.163442e+01 -7.629931e+00 -4.357734e+01 -4.247206e+00 -4.518286e+01 -1.386855e+00 -4.578914e+01 1.055732e+00 -4.565416e+01 3.547775e+00 -4.481726e+01 6.878465e+00 -4.596561e+01 1.067174e+01 
-3.317646e+00 2.326252e+00 -3.372484e+00 -7.482995e+00 -5.841011e+01 -1.326633e+00 7.479211e+00 7.057615e-01 1.469465e+00 4.508089e-01 -5.153501e-01 2.412230e-01 -1.261263e+00 8.076721e-02 -1.579770e+00 -5.237553e-02 -1.716680e+00 -1.450681e-01 -1.799949e+00 -2.094065e-01 -1.846999e+00 -2.418954e-01 -1.908318e+00 -2.640104e-01 -1.892952e+00 -2.407979e-01 -1.889339e+00 -2.380250e-01 -1.859944e+00 -2.547831e-01 -1.772796e+00 -2.808933e-01 -1.641257e+00 -3.112559e-01 -1.473537e+00 -3.676270e-01 -1.304386e+00 -4.799837e-01 -1.162350e+00 -6.263594e-01 -1.036376e+00 -7.673167e-01 -9.006179e-01 -8.808956e-01 -7.713826e-01 -9.128655e-01 -6.258205e-01 -8.806020e-01 -5.027243e-01 -7.854654e-01 -4.353533e-01 -6.408739e-01 -4.204846e-01 -4.352969e-01 -4.503516e-01 -1.704230e-01 -5.382665e-01 1.685283e-01 -7.143080e-01 5.689082e-01 -9.797521e-01 1.125383e+00 -1.439847e+00 2.402894e+00 
-2.760503e+00 2.116867e+00 -3.091995e+00 -6.766694e+00 -7.672363e+01 -3.362807e+00 6.188368e+00 -1.186606e+00 3.546911e+00 -2.266309e-01 1.757318e+00 -1.157713e-01 8.572270e-01 -1.137469e-01 4.188838e-01 -1.041588e-01 2.125809e-01 -9.716749e-02 1.021525e-01 -1.244830e-01 6.219124e-02 -1.377918e-01 3.058396e-02 -8.983633e-02 8.284656e-03 -8.516181e-02 -1.034585e-02 -7.323458e-02 5.770603e-03 -3.432400e-02 -2.168113e-02 -4.917861e-03 -2.963105e-02 1.310431e-03 -3.692335e-02 1.008595e-02 -5.053838e-02 1.011635e-02 -4.456848e-02 2.684645e-02 -5.880919e-02 3.485756e-02 -4.386359e-02 3.761725e-02 -5.986767e-02 4.283530e-02 -4.915324e-02 4.455137e-02 -6.409806e-02 7.037237e-02 -7.727862e-02 1.154001e-01 -1.307295e-01 1.986149e-01 -2.166408e-01 3.394190e-01 -3.510029e-01 5.424922e-01 -5.693702e-01 8.598857e-01 -9.743586e-01 1.222896e+00 -1.539341e+00 1.476325e+00 
-2.708674e+00 1.361692e+00 -1.782109e+00 -7.759811e+00 -8.692913e+01 -2.315526e+00 4.712864e+00 -1.492386e+00 3.439992e+00 -5.404481e-01 1.894685e+00 -2.790652e-01 9.650604e-01 -1.988376e-01 4.963232e-01 -1.776411e-01 3.063854e-01 -1.699161e-01 1.787997e-01 -1.942335e-01 1.446631e-01 -1.770305e-01 8.892522e-02 -1.287116e-01 1.188933e-01 -9.531720e-02 9.539150e-02 -5.181698e-02 9.771401e-02 -1.402939e-02 7.937017e-02 2.199985e-02 4.444248e-02 4.129328e-02 3.694323e-02 5.172019e-02 -1.122117e-02 5.831606e-02 -5.628816e-03 5.951130e-02 -4.977735e-02 7.175691e-02 -4.919313e-02 6.833699e-02 -7.042783e-02 7.105867e-02 -6.978986e-02 7.649346e-02 -5.781401e-02 1.003544e-01 -1.184203e-01 1.735373e-01 -2.007991e-01 2.985781e-01 -3.081593e-01 4.603114e-01 -4.765118e-01 6.544663e-01 -7.452297e-01 9.005745e-01 -1.155505e+00 1.191925e+00 -1.741618e+00 1.413619e+00 
-2.431520e+00 1.083594e+00 -1.293861e+00 -6.766125e+00 -9.781559e+01 -2.060433e+00 2.466503e+00 -2.235699e+00 2.687828e+00 -1.026801e+00 1.853664e+00 -4.927130e-01 1.040845e+00 -2.937128e-01 5.377846e-01 -2.420888e-01 3.244001e-01 -2.034690e-01 1.987422e-01 -2.833863e-01 1.602756e-01 -2.507986e-01 8.154552e-02 -1.989173e-01 1.193030e-01 -1.558970e-01 5.631325e-02 -1.048217e-01 7.831932e-02 -8.375918e-02 2.170577e-02 -1.825298e-02 9.698593e-03 -7.277107e-03 -8.781875e-03 4.838146e-02 -4.322587e-02 5.506738e-02 -2.019063e-02 8.379738e-02 -6.999584e-02 1.005669e-01 -3.503772e-02 9.884993e-02 -8.358431e-02 1.220250e-01 -4.116664e-02 1.066184e-01 -4.949765e-02 1.639251e-01 -3.912882e-02 2.161673e-01 -1.268421e-01 3.499225e-01 -2.445128e-01 5.567864e-01 -4.186098e-01 7.991059e-01 -6.865277e-01 1.076149e+00 -1.083299e+00 1.365408e+00 -1.621543e+00 1.627191e+00 
-1.957117e+00 7.227133e-01 4.508439e-03 -7.131206e+00 -1.031300e+02 -1.206917e+00 1.519145e+00 -2.104899e+00 1.886763e+00 -1.179666e+00 1.527033e+00 -6.008270e-01 8.885980e-01 -3.283141e-01 4.538102e-01 -3.112615e-01 3.355420e-01 -3.113959e-01 1.826762e-01 -4.121840e-01 2.096033e-01 -3.329687e-01 8.255408e-02 -2.087428e-01 1.865644e-01 -1.696363e-01 1.049337e-01 -8.791328e-02 1.144585e-01 -7.117986e-02 8.575473e-02 -3.978931e-03 9.785530e-03 1.961140e-02 4.512163e-02 6.125333e-02 -7.193246e-02 9.803716e-02 7.822197e-03 9.525713e-02 -9.886492e-02 1.355221e-01 -5.988252e-02 1.112545e-01 -9.799690e-02 1.231701e-01 -8.075112e-02 9.687323e-02 1.133547e-02 9.861873e-02 -9.159756e-02 1.997951e-01 -1.859746e-01 3.866780e-01 -2.911838e-01 6.060003e-01 -4.657137e-01 8.344077e-01 -7.269046e-01 1.080778e+00 -1.078448e+00 1.338858e+00 -1.518033e+00 1.537511e+00 
-1.521869e+00 4.807510e-01 7.377750e-01 -6.522247e+00 -1.095835e+02 -8.289149e-01 5.198071e-01 -2.360313e+00 1.045807e+00 -1.521796e+00 1.171302e+00 -7.603173e-01 7.407641e-01 -3.147282e-01 3.203734e-01 -3.322798e-01 2.170074e-01 -3.515641e-01 1.719230e-01 -6.070023e-01 2.218584e-01 -4.114915e-01 6.496385e-02 -2.738034e-01 2.138243e-01 -2.414511e-01 5.462025e-02 -1.137750e-01 1.342659e-01 -1.724462e-01 1.576668e-02 8.939959e-03 7.855387e-03 -5.099742e-02 -1.076233e-02 1.084178e-01 -9.150020e-02 8.081526e-02 -1.538351e-03 1.249192e-01 -1.274957e-01 1.778372e-01 -2.194573e-02 1.224358e-01 -1.632077e-01 2.182026e-01 -4.776937e-02 5.163446e-02 -6.000168e-02 1.551744e-01 5.906827e-02 1.488891e-01 -4.493960e-02 3.848912e-01 -1.734740e-01 6.865259e-01 -3.678481e-01 9.357172e-01 -6.241197e-01 1.164597e+00 -9.335401e-01 1.388151e+00 -1.290770e+00 1.522284e+00 
-9.901331e-01 1.736778e-01 1.808918e+00 -6.424898e+00 -1.117980e+02 -2.478469e-01 1.564401e-01 -2.250085e+00 3.548389e-01 -1.599395e+00 7.115874e-01 -7.493485e-01 4.424675e-01 -5.355346e-02 1.023482e-01 -1.427167e-01 1.333458e-01 -7.609652e-01 1.027003e-01 -8.191882e-01 3.474223e-01 -5.436029e-01 2.379871e-02 -1.823471e-01 3.054634e-01 -2.602488e-01 1.009715e-01 -9.906839e-02 1.341877e-01 -1.303120e-01 1.297694e-01 -3.240556e-02 -7.354879e-02 2.665647e-02 1.101911e-01 4.166540e-02 -2.120732e-01 1.855816e-01 8.455788e-02 9.388258e-02 -1.962772e-01 2.478162e-01 -5.279072e-02 1.763213e-01 -1.609134e-01 2.009952e-01 -1.554003e-01 8.391101e-02 1.624647e-01 -7.957399e-02 -2.684141e-02 1.165087e-01 -7.880282e-02 4.412969e-01 -1.597833e-01 7.327805e-01 -3.549793e-01 9.513619e-01 -5.950589e-01 1.146082e+00 -8.417080e-01 1.338999e+00 -1.072336e+00 1.418436e+00 
-5.430964e-01 -8.192823e-02 2.525777e+00 -5.980986e+00 -1.150617e+02 1.923045e-01 -1.665825e-01 -2.381243e+00 -1.695438e-01 -1.959799e+00 4.166363e-01 -9.204173e-01 2.860100e-01 3.835508e-01 -1.662148e-01 6.234816e-01 -5.011043e-01 -1.478760e+00 1.971410e-01 -1.042565e+00 3.644790e-01 -6.360182e-01 6.650915e-02 -1.188473e-01 3.021420e-01 -3.747176e-01 5.723378e-02 -1.070650e-01 1.991276e-01 -2.693795e-01 1.329868e-02 -3.122597e-03 7.669910e-03 -1.217664e-02 -3.615434e-02 8.035634e-02 -1.479873e-01 2.357636e-01 -1.066998e-02 2.443520e-02 -1.657250e-01 3.724615e-01 8.029929e-03 8.543440e-02 -2.832285e-01 5.049081e-01 -1.048476e-01 -4.753661e-02 -2.113471e-01 -1.131559e-01 2.787809e-01 -2.413810e-01 2.566191e-01 4.833696e-01 2.195116e-02 8.954477e-01 -2.811548e-01 1.045039e+00 -5.195480e-01 1.171756e+00 -7.006920e-01 1.317445e+00 -8.310489e-01 1.331503e+00 
-5.504033e-02 -3.697836e-01 3.329490e+00 -5.655863e+00 -1.149706e+02 5.894656e-01 -2.600530e-01 -2.417623e+00 -6.097116e-01 -2.283294e+00 1.722135e-02 -1.259650e+00 1.101670e-02 7.921852e-01 -1.234514e-01 2.618533e+00 -1.568615e+00 -3.670115e+00 6.021747e-01 -1.019059e-01 6.613150e-01 -8.237693e-01 -6.418899e-02 3.420041e-01 4.854747e-01 2.320934e-02 2.054408e-02 -7.549550e-01 2.779559e-01 6.795796e-01 1.212667e-01 -9.450108e-01 -9.006976e-02 9.664228e-01 1.401924e-01 -6.077075e-01 -4.032939e-01 7.601684e-01 2.423138e-01 3.918912e-02 -3.862110e-01 1.293949e-01 1.274813e-01 8.068890e-01 -3.848199e-01 -7.823735e-02 -2.736624e-01 6.407399e-01 2.165759e-01 -1.137110e+00 2.108006e-01 -8.756435e-02 2.724372e-01 6.295430e-01 9.764662e-02 9.963827e-01 -2.701970e-01 1.067441e+00 -4.971974e-01 1.138331e+00 -5.998675e-01 1.253555e+00 -6.028347e-01 1.217038e+00 
3.586564e-01 -6.326796e-01 3.908271e+00 -5.228991e+00 -1.156217e+02 1.022116e+00 -3.437554e-01 -2.480627e+00 -9.065508e-01 -2.968569e+00 -5.376478e-02 -2.483090e+00 3.479373e-01 -4.130155e-01 1.005077e+00 2.053012e+00 -4.365754e+00 -1.275896e+00 3.073386e+00 3.470761e+00 4.377101e-01 -2.994899e-01 7.150412e-01 2.388032e+00 3.526152e-01 3.619514e-01 1.797196e-01 -1.021521e+00 7.222473e-01 2.220086e+00 -5.543049e-01 -2.740033e+00 7.452862e-01 3.336819e+00 -1.004407e+00 -2.661065e+00 5.752266e-01 2.695083e+00 -7.060519e-01 -1.410277e+00 4.006078e-01 5.031272e-01 8.988468e-03 1.156472e+00 -4.429174e-01 -8.612819e-01 1.904589e-01 3.841816e+00 -2.111653e+00 -3.092646e+00 1.066386e+00 -3.805446e-01 1.448448e+00 1.549095e+00 1.185113e-01 1.309577e+00 -4.596793e-01 1.063672e+00 -5.396526e-01 1.077807e+00 -4.965847e-01 1.181392e+00 -3.803434e-01 1.095685e+00 
7.809696e-01 -9.057083e-01 4.431786e+00 -4.699119e+00 -1.136547e+02 1.221246e+00 -3.440389e-01 -2.395309e+00 -1.096002e+00 -3.269955e+00 -4.774684e-01 -3.904129e+00 -4.654197e-01 -6.936075e+00 5.167006e+00 -1.650025e+01 -4.878075e-01 2.647009e+01 2.048816e+01 1.302260e+01 6.410550e+00 1.600292e+01 1.579962e+00 4.427305e+00 9.679404e+00 1.190817e+01 6.266816e-01 4.540078e+00 7.690434e+00 6.385318e+00 1.812315e+00 2.656326e+00 4.102540e+00 2.700869e+00 4.260005e+00 3.655252e+00 8.878990e-01 1.554407e+00 6.940998e+00 3.025508e+00 -4.985204e-01 1.640820e+00 5.199275e+00 5.010526e-01 6.997012e-01 -1.245410e-01 6.969597e-01 -1.356174e+00 5.056224e+00 -9.062755e+00 -1.716738e+00 -6.800291e+00 6.288603e-01 1.930440e+00 1.654812e-01 1.673207e+00 -6.203100e-01 1.036611e+00 -5.833823e-01 9.809555e-01 -4.043760e-01 1.086107e+00 -1.664353e-01 9.598665e-01 
1.157981e+00 -1.119803e+00 4.770052e+00 -4.027874e+00 -1.120488e+02 1.546429e+00 -4.888413e-01 -1.911408e+00 -1.552402e+00 -3.233387e+00 -9.400346e-01 -6.477052e+00 1.638753e+00 -1.940557e+01 1.773545e+01 -4.369565e+01 1.807882e+01 8.129083e+01 6.436800e+01 1.173703e+01 2.968929e+01 6.281036e+01 2.419661e+01 3.581714e+00 4.823595e+01 5.807267e+01 2.104037e+01 3.627653e+01 5.610883e+01 3.285900e+01 1.701192e+01 5.235827e+01 4.496593e+01 4.711753e+00 2.111671e+01 5.628735e+01 3.329491e+01 -1.930469e+00 3.524890e+01 5.426848e+01 2.476492e+01 1.629228e+01 4.986499e+01 4.091404e+01 1.763124e+01 3.075338e+01 4.810684e+01 1.487573e+01 1.466122e+01 4.126198e+01 2.971213e+01 2.897387e+01 3.795803e+00 4.982339e+00 -2.331994e+00 5.222673e-01 -1.417613e+00 5.721540e-01 -6.300926e-01 8.435136e-01 -2.570020e-01 1.004617e+00 6.459640e-02 8.262633e-01 
1.508715e+00 -1.281184e+00 4.992029e+00 -3.332058e+00 -1.084813e+02 1.501575e+00 -4.516223e-01 -1.655448e+00 -1.263452e+00 -2.642832e+00 3.223331e-01 -5.251943e+00 4.621462e+00 -1.254242e+01 1.434804e+01 -2.855410e+01 2.717065e+01 4.829112e+01 3.379143e+01 -1.341996e+01 4.110474e+01 4.013614e+01 1.775465e+01 6.823871e+00 5.839628e+01 3.416009e+01 2.667809e+01 5.701257e+01 5.747400e+01 1.054751e+01 3.675647e+01 8.527515e+01 3.669522e+01 -1.364319e+01 4.729674e+01 8.305148e+01 2.030448e+01 -4.574071e+00 6.306086e+01 6.538803e+01 2.097854e+01 4.304630e+01 7.249422e+01 3.830604e+01 3.253734e+01 8.670940e+01 5.906715e+01 -5.550146e-01 4.876622e+01 1.355570e+02 2.994629e+01 4.154004e+01 -6.981675e+00 1.501136e+00 -5.164445e+00 -1.443423e+00 -1.812563e+00 -1.142080e-01 -5.198896e-01 6.261174e-01 -7.738795e-02 9.028371e-01 2.863970e-01 6.974694e-01 
1.817110e+00 -1.366884e+00 5.075876e+00 -2.636851e+00 -1.051210e+02 1.514954e+00 -2.757890e-01 -1.148360e+00 -9.549291e-01 -6.339233e-01 -3.319560e-02 2.252095e+00 1.786047e-01 1.055354e+01 -7.933971e+00 2.969685e+01 -2.775809e+01 -8.605770e+01 -3.253926e+01 -8.630919e+00 -3.089462e+01 -5.484552e+01 -3.028790e+00 -1.385523e+01 -3.871722e+01 -3.513432e+01 -1.243534e+01 -4.231583e+01 -2.973833e+01 -1.087350e+01 -1.966688e+01 -4.728248e+01 -1.327530e+01 4.716656e+00 -2.258501e+01 -3.405060e+01 -6.226740e+00 -2.420006e-01 -2.458213e+01 -1.706259e+01 -9.876807e+00 -1.668243e+01 -2.154132e+01 -2.290051e+00 -1.363195e+01 -1.920912e+01 -1.215310e+01 6.912780e+00 -1.003309e+01 -8.970889e+00 -3.133232e+00 5.543570e+00 -1.806766e+00 2.274184e+00 -5.235288e-01 1.028129e+00 -1.064911e-01 7.872981e-01 4.794132e-02 8.357573e-01 1.933553e-01 8.927309e-01 5.200548e-01 5.787730e-01 
2.050514e+00 -1.334648e+00 5.029012e+00 -1.969724e+00 -1.001165e+02 1.457149e+00 -3.241267e-01 -1.106389e+00 -1.207910e+00 -4.732517e-01 -1.147908e+00 3.753959e+00 -4.254813e+00 1.896964e+01 -2.288431e+01 3.993981e+01 -1.259061e+01 -6.534315e+01 -7.151203e+01 -1.021506e+01 -3.451466e+01 -6.177190e+01 -3.125682e+01 -5.586755e+00 -6.126777e+01 -5.973088e+01 -2.738203e+01 -5.156394e+01 -7.055845e+01 -2.816317e+01 -2.806441e+01 -8.117882e+01 -5.239311e+01 6.244030e+00 -3.884192e+01 -8.579679e+01 -3.390560e+01 6.158104e+00 -5.939821e+01 -7.328623e+01 -2.720085e+01 -3.575544e+01 -7.531125e+01 -4.398619e+01 -3.103683e+01 -7.679186e+01 -6.521711e+01 -1.159921e+00 -4.372489e+01 -1.233635e+02 -3.207370e+01 -3.775050e+01 4.689742e+00 1.415611e+00 3.936529e+00 3.284050e+00 1.268531e+00 1.720488e+00 4.056413e-01 1.080625e+00 3.485030e-01 9.051992e-01 6.841895e-01 4.969947e-01 
2.245630e+00 -1.315709e+00 4.965967e+00 -1.472883e+00 -9.535464e+01 1.681227e+00 -4.399982e-01 -7.525341e-01 -1.639402e+00 -8.794805e-01 -1.869901e+00 1.695587e-02 -3.066895e+00 3.495698e+00 -9.182318e+00 1.136451e+01 -4.165809e+00 -3.816132e+00 -1.830235e+01 -1.353081e+00 -1.115038e+01 -8.581986e+00 -1.077797e+01 1.504982e+00 -1.672671e+01 -1.570528e+01 -8.835689e+00 -5.564632e+00 -2.151150e+01 -1.386203e+01 -7.075120e+00 -1.328950e+01 -2.067149e+01 -4.879015e+00 -9.481402e+00 -2.325684e+01 -1.647517e+01 -9.366690e-02 -1.792698e+01 -3.072894e+01 -1.142075e+01 -7.961239e+00 -2.780254e+01 -2.919140e+01 -7.572705e+00 -2.034128e+01 -3.025802e+01 -1.459532e+01 -9.361956e+00 -3.836912e+01 -2.317699e+01 -2.895029e+01 -2.228481e+00 -5.141456e+00 2.005420e+00 8.018552e-01 1.190543e+00 1.137079e+00 6.168635e-01 9.554278e-01 5.411906e-01 8.376913e-01 8.630724e-01 4.022972e-01 
2.360953e+00 -1.218963e+00 4.767325e+00 -9.313696e-01 -8.931580e+01 1.669018e+00 -5.779852e-01 -4.814589e-01 -1.923889e+00 -5.525751e-01 -2.315928e+00 -5.474591e-01 -2.552384e+00 -3.338372e+00 -1.518751e+00 -6.105661e+00 2.427755e+00 3.604964e+00 -1.298840e+00 -2.485469e-01 -1.291682e+00 2.708231e+00 -2.365639e-01 -1.469355e+00 -1.129190e+00 1.431053e+00 2.756573e-01 1.532055e+00 -9.306061e-01 -1.294274e+00 3.772358e-01 3.367689e+00 -4.825277e-01 -3.051177e+00 -1.488762e-01 2.213037e+00 3.918781e-01 -2.601903e+00 -1.593073e+00 -1.425317e-01 1.170725e+00 -9.544153e-01 -1.849825e+00 -3.051882e+00 1.651640e+00 7.531892e-02 -8.383179e-01 -4.254096e+00 -2.084971e-01 4.804980e+00 -5.376186e-01 -2.018635e-01 -5.627635e-01 -2.894335e+00 5.109139e-01 -5.330477e-01 7.928547e-01 5.484153e-01 6.391512e-01 7.688555e-01 6.287523e-01 7.496317e-01 9.702425e-01 3.229005e-01 
2.418381e+00 -1.183235e+00 4.615671e+00 -7.675805e-01 -8.364291e+01 1.760432e+00 -4.691596e-01 -4.824606e-01 -1.780411e+00 -9.156848e-01 -1.908255e+00 -9.613534e-01 -1.571084e+00 -2.163408e+00 -2.878332e-01 -3.626886e+00 1.444959e+00 1.328899e+00 1.127178e-02 -8.274188e-01 -3.115591e-01 4.851772e-01 -4.444300e-01 -1.364441e+00 2.397948e-02 -1.180972e-01 -3.343352e-01 3.451447e-01 -1.412023e-01 -1.105738e+00 -9.614977e-02 1.330717e+00 -1.276389e-01 -1.925814e+00 3.077658e-01 1.524682e+00 -2.576076e-02 -1.669477e+00 3.435079e-01 8.433974e-01 -1.181759e-01 -1.892117e-01 1.095173e-01 -7.882367e-01 1.748659e-01 9.774494e-01 3.648376e-02 -1.780020e+00 1.815520e-01 3.609806e+00 -2.528482e-01 1.295490e+00 -5.949211e-01 -1.131344e+00 1.238223e-01 -5.725718e-01 5.259154e-01 1.912794e-01 5.908869e-01 5.306137e-01 6.738053e-01 6.048743e-01 1.043856e+00 2.190860e-01 
2.406586e+00 -1.121274e+00 4.344979e+00 -4.959663e-01 -7.691812e+01 1.689555e+00 -4.528362e-01 -4.237659e-01 -1.669030e+00 -1.015946e+00 -1.636468e+00 -1.313581e+00 -1.040506e+00 -1.838200e+00 -1.158565e-01 -1.297720e+00 6.754440e-01 -6.088828e-01 -6.131193e-02 4.749792e-02 -2.472735e-01 -1.020779e-01 -1.004980e-01 -4.982007e-01 -3.304084e-01 -1.270711e-01 -2.159558e-02 -1.054045e-01 -2.583635e-01 -1.691761e-01 -2.099393e-02 9.638530e-02 5.541643e-03 -3.814530e-01 -3.482422e-02 1.448244e-01 2.665356e-01 -4.057516e-01 -1.577841e-01 1.136847e-01 2.741615e-01 -8.702683e-02 -1.302962e-01 -2.346839e-01 3.173134e-01 2.366258e-01 4.577284e-02 1.112478e-01 -3.230957e-01 1.859052e+00 -3.792882e-01 7.701067e-01 -1.702314e-01 -3.323320e-01 9.865436e-02 -3.344811e-01 3.749557e-01 8.669275e-02 5.205772e-01 3.914018e-01 6.642790e-01 4.937964e-01 1.060182e+00 1.325774e-01 
2.336803e+00 -1.084680e+00 4.092430e+00 -4.437706e-01 -7.046971e+01 1.625241e+00 -2.732097e-01 -3.783369e-01 -1.395589e+00 -9.677176e-01 -1.331452e+00 -1.097572e+00 -8.457078e-01 -1.297164e+00 -3.096728e-01 -1.000697e+00 -5.678149e-02 -7.505798e-01 2.399551e-02 -1.726850e-01 -2.156391e-01 -2.319227e-01 -5.217063e-02 -3.777412e-01 -2.160983e-01 -1.229433e-01 -9.556357e-02 -2.472762e-01 -1.127746e-01 1.404653e-03 -1.010548e-01 -1.702516e-01 5.198612e-02 -4.237102e-02 -5.589402e-02 -9.585942e-02 1.740454e-01 -1.273650e-01 -5.290576e-02 6.273041e-02 1.231295e-01 -1.263911e-01 -6.109284e-03 1.425542e-01 9.625341e-02 -1.011445e-02 1.813619e-02 5.245272e-01 -2.194156e-01 6.929208e-01 -1.461251e-01 7.247143e-01 -3.360131e-02 1.221751e-01 1.055285e-01 -7.026666e-02 2.998757e-01 1.005294e-01 4.583395e-01 3.045817e-01 6.329331e-01 3.891407e-01 1.040837e+00 4.594027e-02 
2.211084e+00 -1.028630e+00 3.757059e+00 -3.303400e-01 -6.317736e+01 1.499128e+00 -1.888955e-01 -3.651150e-01 -1.205482e+00 -9.549686e-01 -1.127251e+00 -1.015299e+00 -7.216143e-01 -9.934258e-01 -3.370990e-01 -7.816354e-01 -1.026248e-01 -7.250934e-01 -1.343689e-01 -3.098901e-01 -1.644631e-01 -2.766349e-01 -5.135986e-02 -2.682670e-01 -1.976625e-01 -1.473766e-01 -4.640743e-02 -1.755639e-01 -1.138714e-01 -4.405860e-02 -3.499396e-02 -1.233341e-01 2.981002e-02 -4.653955e-02 -3.259793e-02 -8.409379e-02 1.330972e-01 -7.259804e-02 -6.754894e-02 1.393612e-02 1.239160e-01 -4.468042e-02 -3.089272e-02 1.069255e-01 8.324374e-02 1.074226e-01 -2.599985e-02 4.061824e-01 -2.208372e-01 5.257355e-01 -1.087033e-01 4.547431e-01 3.226819e-02 1.743602e-01 1.292173e-01 5.841814e-02 2.606506e-01 1.389443e-01 3.999747e-01 2.689521e-01 5.777086e-01 3.228086e-01 9.819381e-01 -1.462303e-02 
2.035080e+00 -9.687933e-01 3.407780e+00 -3.105501e-01 -5.601830e+01 1.351973e+00 -4.964547e-02 -3.123376e-01 -9.655476e-01 -8.285274e-01 -9.337755e-01 -8.060381e-01 -6.626103e-01 -7.424918e-01 -4.253434e-01 -6.479824e-01 -3.124914e-01 -5.141147e-01 -1.579493e-01 -4.161828e-01 -1.571423e-01 -3.047099e-01 -4.462671e-02 -2.802784e-01 -1.261368e-01 -1.621259e-01 -4.375765e-02 -1.605579e-01 -5.870537e-02 -9.252792e-02 -3.039658e-02 -8.420059e-02 2.770129e-02 -6.367716e-02 -1.648186e-02 -3.100566e-02 7.346746e-02 -3.995430e-02 -3.130801e-02 3.518662e-02 5.683273e-02 2.066474e-02 -2.868126e-02 1.246050e-01 3.715486e-03 1.408334e-01 -5.572022e-02 2.475963e-01 -1.174898e-01 2.854370e-01 -1.398721e-02 2.842497e-01 1.001866e-01 2.113374e-01 1.668226e-01 1.805335e-01 2.408255e-01 2.071575e-01 3.440258e-01 2.599912e-01 5.096067e-01 2.673846e-01 8.964070e-01 -6.425852e-02 
1.818054e+00 -8.947689e-01 3.011133e+00 -2.789329e-01 -4.823570e+01 1.193969e+00 3.613193e-02 -2.939641e-01 -7.790460e-01 -7.543690e-01 -7.714771e-01 -6.562703e-01 -5.822123e-01 -5.139091e-01 -4.063663e-01 -5.157059e-01 -3.174393e-01 -4.154286e-01 -1.978298e-01 -4.937103e-01 -1.341719e-01 -3.169908e-01 -4.691983e-02 -2.290414e-01 -8.206197e-02 -1.589254e-01 -2.888240e-02 -1.029332e-01 -2.731023e-02 -1.162045e-01 -9.086028e-03 -3.405656e-02 2.616017e-02 -8.061908e-02 1.521886e-03 4.225428e-03 3.495220e-02 -2.226851e-02 -1.354980e-02 2.998729e-02 1.782778e-02 7.242122e-02 -2.894457e-02 1.028552e-01 -4.256652e-02 1.961553e-01 -7.342640e-02 1.238916e-01 -8.032478e-02 1.795192e-01 3.177019e-02 1.269043e-01 1.214807e-01 1.772724e-01 1.737871e-01 2.288878e-01 2.074053e-01 2.429983e-01 2.782759e-01 2.528482e-01 4.252472e-01 2.291382e-01 7.837273e-01 -9.242639e-02 
1.560715e+00 -8.108633e-01 2.584254e+00 -2.894439e-01 -4.046424e+01 1.008125e+00 1.255050e-01 -2.829853e-01 -5.558533e-01 -6.856823e-01 -5.589573e-01 -4.856591e-01 -4.777158e-01 -1.795215e-01 -4.472429e-01 -3.068152e-01 -4.507826e-01 -1.925793e-01 -3.123767e-01 -6.914966e-01 -9.814479e-02 -3.245295e-01 4.116746e-02 -1.995961e-01 -1.106544e-01 -1.824892e-01 6.667223e-02 -4.596934e-02 -5.771391e-02 -2.167269e-01 6.166374e-02 5.633530e-02 1.255012e-02 -1.425342e-01 4.208637e-03 8.915042e-02 3.358961e-02 8.923344e-04 -7.981037e-02 2.785329e-02 6.277514e-02 1.494723e-01 -1.188735e-01 5.879709e-02 -7.683240e-03 3.422258e-01 -1.836346e-01 -6.479753e-02 -5.125659e-02 7.353318e-03 8.772832e-02 -1.514651e-01 2.674359e-01 1.958397e-01 2.331389e-01 3.615686e-01 1.625688e-01 3.103024e-01 1.892951e-01 2.462562e-01 3.237388e-01 1.856913e-01 6.516438e-01 -1.143898e-01 
1.279479e+00 -7.212496e-01 2.135617e+00 -3.059718e-01 -3.229022e+01 8.312045e-01 1.929453e-01 -2.735644e-01 -3.645881e-01 -6.440386e-01 -3.649115e-01 -3.965989e-01 -3.359138e-01 1.600541e-01 -4.456837e-01 1.508352e-01 -5.415489e-01 -4.998806e-01 -3.438943e-01 -6.416186e-01 -3.537141e-02 -4.956109e-01 1.306833e-01 9.456746e-02 -1.365977e-01 -2.906171e-01 1.252860e-01 2.812092e-02 -6.051412e-02 -1.567496e-01 8.309845e-02 -5.428955e-02 2.717035e-02 6.847655e-02 -1.486150e-02 -1.387164e-01 5.489979e-02 2.820058e-01 -1.250597e-01 -1.930204e-01 9.123369e-02 3.163201e-01 -1.725109e-01 3.521455e-02 -1.606969e-02 3.735922e-01 -2.503616e-01 5.028669e-02 -3.388068e-02 -4.426117e-01 1.470632e-01 -3.145103e-01 3.514187e-01 3.028777e-01 2.282605e-01 4.582090e-01 8.595710e-02 3.318565e-01 9.207368e-02 2.217136e-01 2.167284e-01 1.451117e-01 5.058633e-01 -1.241148e-01 
9.725883e-01 -6.078973e-01 1.638788e+00 -3.068023e-01 -2.401140e+01 6.351098e-01 2.041523e-01 -3.016757e-01 -1.777639e-01 -7.782424e-01 -5.176471e-02 -6.279460e-01 1.014207e-01 6.572226e-01 -4.185334e-01 1.585285e+00 -9.029623e-01 -1.351716e+00 -7.127662e-01 -4.520915e-01 2.229672e-01 -1.182872e+00 7.233707e-01 1.207418e+00 -8.031268e-01 -9.438834e-01 8.404360e-01 3.873019e-01 -6.125685e-01 -1.572914e-01 5.631769e-01 -4.500229e-01 -6.904020e-02 8.867858e-01 -1.256855e-01 -1.084851e+00 4.617003e-01 1.482037e+00 -7.773572e-01 -1.192485e+00 8.439244e-01 1.062251e+00 -8.567734e-01 -3.575126e-01 7.419281e-01 6.552217e-01 -7.738883e-01 8.319462e-01 -6.521336e-02 -1.713733e+00 -7.126522e-03 -1.020462e+00 1.045226e+00 9.882221e-01 2.297348e-01 7.348402e-01 -1.347184e-01 3.029670e-01 -7.203788e-02 1.414358e-01 9.593612e-02 8.039849e-02 3.557943e-01 -1.305962e-01 
6.575467e-01 -4.921592e-01 1.141671e+00 -3.210059e-01 -1.555657e+01 4.505701e-01 2.276033e-01 -2.702696e-01 -1.381478e-02 -7.692375e-01 1.449210e-01 -8.784090e-01 4.922857e-01 -3.489725e-01 6.319681e-01 1.013293e+00 -1.652578e+00 -1.234734e+00 2.295937e+00 1.390911e+00 9.716174e-01 3.250232e-01 1.832380e+00 1.339698e+00 4.577201e-01 9.406274e-01 1.337534e+00 6.778558e-01 1.187415e+00 1.386491e+00 6.703329e-01 1.428204e-01 1.753085e+00 1.762623e+00 1.838147e-01 2.778362e-01 2.084048e+00 1.538561e+00 5.606927e-01 1.167373e+00 1.910901e+00 1.094693e+00 1.398767e+00 2.202896e+00 1.310287e+00 1.077434e+00 1.886315e+00 2.556366e+00 5.434575e-01 -6.528708e-01 1.805821e+00 5.289656e-01 1.336582e+00 1.809799e+00 2.581726e-02 8.126684e-01 -3.383213e-01 1.988340e-01 -1.942100e-01 5.014794e-02 -5.950540e-03 2.007383e-02 2.060526e-01 -1.291836e-01 
3.342662e-01 -3.104299e-01 5.646215e-01 -1.870073e-01 -6.895834e+00 2.439596e-01 1.033769e-01 -1.177223e-01 -6.073399e-02 -7.589204e-01 9.868963e-02 -2.697215e+00 1.962917e+00 -8.528327e+00 6.183909e+00 -5.999536e+00 -2.259883e+00 -2.648425e+00 2.532315e+01 2.352013e+01 1.134058e+01 1.744182e+01 1.879972e+01 2.732216e+00 9.930180e+00 2.638145e+01 1.818708e+01 5.424485e+00 1.759539e+01 2.882120e+01 1.296592e+01 9.474368e+00 2.184015e+01 1.716603e+01 6.833964e+00 1.640751e+01 2.220155e+01 4.603945e+00 8.974274e+00 2.621332e+01 2.021766e+01 2.486834e+00 1.644739e+01 3.245922e+01 1.724098e+01 5.797388e+00 2.324369e+01 2.693244e+01 8.785914e+00 2.018328e+01 1.887634e+01 3.189586e+01 5.593310e+00 5.533214e+00 -1.689026e+00 -1.804650e-01 -9.888433e-01 -3.283037e-01 -3.227945e-01 -1.159439e-01 -6.608144e-02 -3.744117e-02 8.084868e-02 -1.071323e-01 
1.104179e-02 -1.414943e-01 2.184725e-02 -1.341805e-01 1.700554e+00 4.966246e-02 6.969910e-02 -2.175872e-02 2.235957e-02 -6.988566e-01 2.029451e-01 -3.311632e+00 2.556323e+00 -1.127013e+01 8.618903e+00 -1.028622e+01 -1.228637e+00 3.968143e+00 3.623783e+01 2.829263e+01 1.729576e+01 3.134496e+01 2.267778e+01 -3.378255e-01 1.904946e+01 3.987380e+01 2.075985e+01 8.616142e+00 2.818089e+01 3.747885e+01 1.639390e+01 1.928982e+01 3.005312e+01 1.754725e+01 1.162182e+01 2.950367e+01 2.612313e+01 8.605051e-01 1.695422e+01 3.854759e+01 2.091075e+01 1.773371e+00 2.618048e+01 4.066427e+01 1.834278e+01 1.136735e+01 3.193018e+01 2.816516e+01 1.213617e+01 3.461437e+01 2.404326e+01 3.892242e+01 3.601842e+00 4.259923e+00 -2.433780e+00 -9.270386e-01 -1.087111e+00 -5.841268e-01 -3.263656e-01 -2.051186e-01 -1.102007e-01 -8.053206e-02 -4.758297e-02 -8.347487e-02 
-3.170264e-01 1.013091e-01 -5.997151e-01 6.813993e-02 1.047602e+01 -2.924547e-01 4.314188e-02 1.534607e-01 2.642203e-01 3.840068e-01 1.114928e-01 9.695973e-01 -6.056412e-01 2.912229e+00 -2.354259e+00 3.328069e+00 -1.167217e-01 -2.205378e+00 -9.531641e+00 -4.479621e+00 -4.389892e+00 -8.138533e+00 -5.715530e+00 1.396533e+00 -6.826930e+00 -1.126536e+01 -5.290598e+00 -2.411849e+00 -9.857524e+00 -1.065033e+01 -4.658677e+00 -7.026862e+00 -1.027255e+01 -4.412149e+00 -4.277507e+00 -1.139257e+01 -8.701062e+00 8.246111e-01 -7.333560e+00 -1.518953e+01 -6.881035e+00 -4.678258e-01 -1.169873e+01 -1.653297e+01 -6.502206e+00 -5.471887e+00 -1.422233e+01 -1.156671e+01 -5.122953e+00 -1.694148e+01 -1.109648e+01 -1.740363e+01 -8.878243e-01 -1.786822e+00 1.100400e+00 3.657324e-01 4.121473e-01 2.167997e-01 4.787015e-02 3.363213e-02 -7.838409e-02 -3.659502e-02 -1.553301e-01 -2.886502e-02 