# vtk DataFile Version 2.0
Comment goes here
ASCII

DATASET STRUCTURED_POINTS
FIELD FieldData 1
TIME 1 1 double
0.00300000
DIMENSIONS    64   64   1

ORIGIN    0.000   0.000   0.000
SPACING   0.03125 0.03125   1.000

POINT_DATA   4096
SCALARS P double
LOOKUP_TABLE default

3.647801e+00 -9.689806e+00 2.440823e+01 -2.814165e+01 4.386349e+01 9.509872e+01 4.147641e+01 8.884451e+01 4.715891e+01 8.312728e+01 4.663684e+01 8.352473e+01 4.140768e+01 7.872611e+01 4.123825e+01 7.306922e+01 3.867389e+01 6.652214e+01 3.629055e+01 6.090456e+01 3.240844e+01 5.406225e+01 2.910486e+01 4.775626e+01 2.564369e+01 4.129613e+01 2.189742e+01 3.503547e+01 1.884561e+01 2.849613e+01 1.575875e+01 2.227689e+01 1.275995e+01 1.626643e+01 1.027092e+01 1.035612e+01 8.031655e+00 5.175209e+00 6.418398e+00 2.076241e-01 5.393459e+00 -3.655432e+00 4.870051e+00 -7.450967e+00 5.091112e+00 -1.005165e+01 5.405267e+00 -1.272310e+01 6.724760e+00 -1.497211e+01 7.723495e+00 -1.662770e+01 9.131445e+00 -1.829533e+01 1.031974e+01 -1.965400e+01 1.216705e+01 -1.985915e+01 1.298173e+01 -2.220680e+01 2.085254e+01 -2.729162e+01 2.295895e+01 -1.211118e+01 
-4.807190e+00 -2.534446e+01 7.508073e+00 -3.556161e+01 1.908304e+01 5.931689e+01 1.529715e+01 5.686978e+01 1.824360e+01 5.383929e+01 1.803870e+01 5.396172e+01 1.545098e+01 5.055564e+01 1.616691e+01 4.660449e+01 1.540715e+01 4.220947e+01 1.464640e+01 3.852647e+01 1.288388e+01 3.406620e+01 1.148686e+01 2.999070e+01 9.868340e+00 2.585452e+01 8.100879e+00 2.153312e+01 6.941758e+00 1.691372e+01 5.668052e+00 1.259620e+01 4.310316e+00 8.309219e+00 3.244963e+00 3.906161e+00 2.316938e+00 -6.885175e-02 1.484592e+00 -4.042545e+00 1.037837e+00 -7.546694e+00 7.318524e-01 -1.110918e+01 6.724360e-01 -1.395169e+01 5.817182e-01 -1.699627e+01 1.160273e+00 -1.982078e+01 1.455838e+00 -2.226079e+01 1.867866e+00 -2.458598e+01 2.053626e+00 -2.672973e+01 2.667111e+00 -2.810158e+01 2.492230e+00 -3.063915e+01 6.680420e+00 -3.501862e+01 7.768483e+00 -2.662700e+01 
-5.333444e+00 -4.338510e+01 -2.031664e+00 -4.698550e+01 1.031568e+00 4.663879e+01 -5.981798e-01 4.509246e+01 1.913290e-01 4.288930e+01 5.121808e-01 4.098728e+01 4.680891e-01 3.791390e+01 1.294318e+00 3.459655e+01 1.675665e+00 3.120241e+01 1.848080e+00 2.809720e+01 1.588720e+00 2.484539e+01 1.306703e+00 2.173048e+01 8.580467e-01 1.857976e+01 4.202868e-01 1.512680e+01 3.126333e-01 1.145648e+01 1.259216e-01 7.994462e+00 -1.787917e-01 4.467104e+00 -3.940862e-01 7.883194e-01 -5.306549e-01 -2.744777e+00 -8.458131e-01 -6.329277e+00 -9.748321e-01 -9.929163e+00 -1.152372e+00 -1.354925e+01 -1.410997e+00 -1.693684e+01 -1.680190e+00 -2.045135e+01 -1.678169e+00 -2.392848e+01 -1.773545e+00 -2.720281e+01 -1.964346e+00 -3.028820e+01 -2.258517e+00 -3.328413e+01 -2.385507e+00 -3.604827e+01 -2.723291e+00 -3.892999e+01 -2.025724e+00 -4.216011e+01 -1.908922e+00 -4.201450e+01 
-3.486583e+00 -4.025664e+01 -1.851023e+00 -4.177724e+01 -6.146338e-01 4.276162e+01 1.285425e-01 4.209875e+01 8.122159e-01 4.063212e+01 1.135135e+00 3.888388e+01 1.233184e+00 3.637027e+01 1.645808e+00 3.345247e+01 1.896690e+00 3.037379e+01 1.940585e+00 2.734023e+01 1.722474e+00 2.422131e+01 1.418753e+00 2.111733e+01 1.015119e+00 1.796170e+01 6.219513e-01 1.461098e+01 3.842374e-01 1.112437e+01 1.318414e-01 7.697710e+00 -1.669097e-01 4.233271e+00 -4.232706e-01 7.028405e-01 -6.328357e-01 -2.766489e+00 -9.019041e-01 -6.235838e+00 -1.079149e+00 -9.697552e+00 -1.257874e+00 -1.312436e+01 -1.463788e+00 -1.642381e+01 -1.645227e+00 -1.972828e+01 -1.698481e+00 -2.296417e+01 -1.780441e+00 -2.604113e+01 -1.921319e+00 -2.894313e+01 -2.101001e+00 -3.169937e+01 -2.201894e+00 -3.427034e+01 -2.269610e+00 -3.675183e+01 -1.962354e+00 -3.888108e+01 -2.172395e+00 -3.933644e+01 
-2.865978e+00 -4.499072e+01 -1.919013e+00 -4.659683e+01 -1.163996e+00 4.653153e+01 -6.517749e-01 4.536865e+01 -1.394803e-01 4.342791e+01 2.095366e-01 4.112758e+01 4.521031e-01 3.827958e+01 8.525886e-01 3.514047e+01 1.122195e+00 3.187767e+01 1.229529e+00 2.862906e+01 1.134664e+00 2.533526e+01 9.428270e-01 2.204221e+01 6.711665e-01 1.869513e+01 3.997207e-01 1.521708e+01 2.134836e-01 1.164171e+01 2.198192e-02 8.081603e+00 -1.965884e-01 4.492800e+00 -3.935517e-01 8.604790e-01 -5.716673e-01 -2.747289e+00 -7.804436e-01 -6.360664e+00 -9.489775e-01 -9.971849e+00 -1.123312e+00 -1.356272e+01 -1.315252e+00 -1.707717e+01 -1.491927e+00 -2.058063e+01 -1.593119e+00 -2.402696e+01 -1.706498e+00 -2.735213e+01 -1.852646e+00 -3.054207e+01 -2.019158e+00 -3.360821e+01 -2.135779e+00 -3.652142e+01 -2.228326e+00 -3.931849e+01 -2.100119e+00 -4.185545e+01 -2.209833e+00 -4.338895e+01 
-2.115022e+00 -4.243195e+01 -1.489452e+00 -4.366323e+01 -8.134403e-01 4.446038e+01 -1.340797e-01 4.336132e+01 3.952631e-01 4.166496e+01 7.446242e-01 3.955254e+01 9.775661e-01 3.698952e+01 1.226638e+00 3.410983e+01 1.388198e+00 3.105327e+01 1.416927e+00 2.792327e+01 1.300596e+00 2.472625e+01 1.093079e+00 2.148809e+01 8.236993e-01 1.818927e+01 5.463753e-01 1.479342e+01 3.076849e-01 1.132379e+01 7.344491e-02 7.838778e+00 -1.675845e-01 4.330861e+00 -3.936423e-01 8.017850e-01 -6.022199e-01 -2.713300e+00 -8.121294e-01 -6.217219e+00 -9.929056e-01 -9.701985e+00 -1.162535e+00 -1.314910e+01 -1.327393e+00 -1.653209e+01 -1.469120e+00 -1.986909e+01 -1.566021e+00 -2.313194e+01 -1.658463e+00 -2.628018e+01 -1.762330e+00 -2.929320e+01 -1.865493e+00 -3.216287e+01 -1.929788e+00 -3.486372e+01 -1.946693e+00 -3.736499e+01 -1.882038e+00 -3.951013e+01 -1.950714e+00 -4.103629e+01 
-2.012329e+00 -4.659589e+01 -1.613204e+00 -4.814185e+01 -1.162178e+00 4.791349e+01 -7.073060e-01 4.642234e+01 -3.077880e-01 4.432597e+01 1.336859e-02 4.181562e+01 2.782491e-01 3.893631e+01 5.417147e-01 3.580800e+01 7.309815e-01 3.253867e+01 8.131206e-01 2.920607e+01 7.776359e-01 2.582437e+01 6.587806e-01 2.240794e+01 4.841112e-01 1.894146e+01 2.939717e-01 1.540470e+01 1.196301e-01 1.181168e+01 -5.487861e-02 8.197431e+00 -2.359700e-01 4.562024e+00 -4.118426e-01 9.080838e-01 -5.820039e-01 -2.744192e+00 -7.552977e-01 -6.394244e+00 -9.173081e-01 -1.003485e+01 -1.076613e+00 -1.365258e+01 -1.234747e+00 -1.722852e+01 -1.379145e+00 -2.076704e+01 -1.495852e+00 -2.424660e+01 -1.606638e+00 -2.763670e+01 -1.720543e+00 -3.091978e+01 -1.829658e+00 -3.408525e+01 -1.910091e+00 -3.711079e+01 -1.954231e+00 -3.996720e+01 -1.936443e+00 -4.255404e+01 -1.963356e+00 -4.469625e+01 
-1.538297e+00 -4.477281e+01 -1.178134e+00 -4.644931e+01 -7.172254e-01 4.692851e+01 -2.480223e-01 4.522098e+01 1.576099e-01 4.311368e+01 4.703989e-01 4.067176e+01 7.057268e-01 3.792534e+01 8.949241e-01 3.494400e+01 1.012513e+00 3.180612e+01 1.038303e+00 2.857330e+01 9.699392e-01 2.527231e+01 8.292843e-01 2.191951e+01 6.402537e-01 1.851387e+01 4.321908e-01 1.504963e+01 2.267061e-01 1.153860e+01 2.185459e-02 8.002745e+00 -1.832107e-01 4.449612e+00 -3.814741e-01 8.867384e-01 -5.702549e-01 -2.671275e+00 -7.514704e-01 -6.217755e+00 -9.177903e-01 -9.744064e+00 -1.071945e+00 -1.323797e+01 -1.214105e+00 -1.668635e+01 -1.337831e+00 -2.008407e+01 -1.437996e+00 -2.341432e+01 -1.525032e+00 -2.665447e+01 -1.604022e+00 -2.978662e+01 -1.668838e+00 -3.279523e+01 -1.705062e+00 -3.565674e+01 -1.705412e+00 -3.833436e+01 -1.668499e+00 -4.075782e+01 -1.632701e+00 -4.286764e+01 
-1.608835e+00 -4.855499e+01 -1.359730e+00 -5.056544e+01 -1.036812e+00 5.012161e+01 -7.087705e-01 4.808155e+01 -3.983279e-01 4.563821e+01 -1.266759e-01 4.287275e+01 1.057765e-01 3.984208e+01 3.050212e-01 3.661655e+01 4.468863e-01 3.326293e+01 5.143262e-01 2.983216e+01 5.040039e-01 2.634822e+01 4.305672e-01 2.282372e+01 3.125529e-01 1.925809e+01 1.724484e-01 1.564858e+01 2.596606e-02 1.200287e+01 -1.251398e-01 8.334421e+00 -2.805523e-01 4.649781e+00 -4.358271e-01 9.540253e-01 -5.891923e-01 -2.743320e+00 -7.414184e-01 -6.437268e+00 -8.883272e-01 -1.012073e+01 -1.031063e+00 -1.378425e+01 -1.167956e+00 -1.741728e+01 -1.294039e+00 -2.101243e+01 -1.404483e+00 -2.455571e+01 -1.503625e+00 -2.802828e+01 -1.593199e+00 -3.141511e+01 -1.668809e+00 -3.470222e+01 -1.720678e+00 -3.786926e+01 -1.742088e+00 -4.088540e+01 -1.728043e+00 -4.369688e+01 -1.694858e+00 -4.624626e+01 
-1.228634e+00 -4.734204e+01 -9.680402e-01 -4.963797e+01 -6.359247e-01 4.983322e+01 -2.993020e-01 4.748089e+01 1.230116e-02 4.489720e+01 2.734301e-01 4.209559e+01 4.799167e-01 3.909611e+01 6.347663e-01 3.593471e+01 7.286017e-01 3.265388e+01 7.538247e-01 2.929152e+01 7.115890e-01 2.587018e+01 6.138833e-01 2.240378e+01 4.758621e-01 1.889707e+01 3.154486e-01 1.535264e+01 1.451131e-01 1.177824e+01 -2.950518e-02 8.183989e+00 -2.056220e-01 4.578105e+00 -3.787723e-01 9.668322e-01 -5.458396e-01 -2.640785e+00 -7.056912e-01 -6.238463e+00 -8.548235e-01 -9.818542e+00 -9.933312e-01 -1.337238e+01 -1.119235e+00 -1.689126e+01 -1.230085e+00 -2.036652e+01 -1.323080e+00 -2.378681e+01 -1.399627e+00 -2.713676e+01 -1.459869e+00 -3.040356e+01 -1.500760e+00 -3.357468e+01 -1.516209e+00 -3.663363e+01 -1.501437e+00 -3.955781e+01 -1.453925e+00 -4.231897e+01 -1.373430e+00 -4.490366e+01 
-1.369193e+00 -5.081194e+01 -1.180656e+00 -5.341449e+01 -9.385336e-01 5.278690e+01 -6.934292e-01 5.014458e+01 -4.505231e-01 4.727288e+01 -2.277135e-01 4.419529e+01 -3.356473e-02 4.094282e+01 1.256751e-01 3.755325e+01 2.372043e-01 3.406437e+01 2.932925e-01 3.051145e+01 2.934995e-01 2.691263e+01 2.469477e-01 2.328064e+01 1.631037e-01 1.961859e+01 5.732152e-02 1.592868e+01 -6.305753e-02 1.221678e+01 -1.910791e-01 8.487608e+00 -3.252580e-01 4.748654e+00 -4.617066e-01 1.001557e+00 -5.975063e-01 -2.745845e+00 -7.328420e-01 -6.490775e+00 -8.635041e-01 -1.022655e+01 -9.913408e-01 -1.394640e+01 -1.111958e+00 -1.764393e+01 -1.224556e+00 -2.130969e+01 -1.324395e+00 -2.493551e+01 -1.410158e+00 -2.850557e+01 -1.479798e+00 -3.201015e+01 -1.531687e+00 -3.543922e+01 -1.561718e+00 -3.877855e+01 -1.565430e+00 -4.200810e+01 -1.538854e+00 -4.510157e+01 -1.479435e+00 -4.803671e+01 
-1.035363e+00 -5.005316e+01 -8.300053e-01 -5.298278e+01 -5.797626e-01 5.295280e+01 -3.261746e-01 4.997278e+01 -8.291743e-02 4.689896e+01 1.308972e-01 4.371746e+01 3.056332e-01 4.042891e+01 4.355654e-01 3.704490e+01 5.132762e-01 3.358321e+01 5.367959e-01 3.006872e+01 5.087142e-01 2.651310e+01 4.388094e-01 2.292837e+01 3.338769e-01 1.931798e+01 2.086437e-01 1.568563e+01 6.781682e-02 1.203772e+01 -7.935256e-02 8.376866e+00 -2.309875e-01 4.711987e+00 -3.821402e-01 1.043271e+00 -5.286279e-01 -2.620235e+00 -6.706184e-01 -6.276770e+00 -8.024682e-01 -9.919260e+00 -9.273068e-01 -1.354175e+01 -1.039406e+00 -1.713979e+01 -1.140179e+00 -2.070394e+01 -1.224596e+00 -2.422963e+01 -1.290512e+00 -2.770219e+01 -1.335055e+00 -3.111616e+01 -1.358120e+00 -3.446628e+01 -1.357590e+00 -3.774520e+01 -1.330252e+00 -4.094416e+01 -1.272447e+00 -4.405638e+01 -1.178703e+00 -4.708569e+01 
-1.208285e+00 -5.324110e+01 -1.055672e+00 -5.644231e+01 -8.673068e-01 5.567230e+01 -6.764254e-01 5.243754e+01 -4.829667e-01 4.911382e+01 -3.002795e-01 4.569293e+01 -1.380929e-01 4.218082e+01 -6.006833e-03 3.858934e+01 8.294393e-02 3.492991e+01 1.281328e-01 3.123665e+01 1.297581e-01 2.751022e+01 1.006297e-01 2.376764e+01 3.560416e-02 2.000696e+01 -4.319482e-02 1.623078e+01 -1.444279e-01 1.244798e+01 -2.508482e-01 8.650575e+00 -3.676849e-01 4.855671e+00 -4.882231e-01 1.049394e+00 -6.062752e-01 -2.750843e+00 -7.289277e-01 -6.553432e+00 -8.414954e-01 -1.034832e+01 -9.588263e-01 -1.413085e+01 -1.063965e+00 -1.790236e+01 -1.167819e+00 -2.164687e+01 -1.258367e+00 -2.537107e+01 -1.332802e+00 -2.904834e+01 -1.384136e+00 -3.268065e+01 -1.416418e+00 -3.626587e+01 -1.429093e+00 -3.979754e+01 -1.419105e+00 -4.326669e+01 -1.382616e+00 -4.666433e+01 -1.315066e+00 -4.998675e+01 
-9.045016e-01 -5.280159e+01 -7.373348e-01 -5.632987e+01 -5.418120e-01 5.612670e+01 -3.431812e-01 5.255902e+01 -1.490111e-01 4.900879e+01 2.724586e-02 4.544662e+01 1.760368e-01 4.185730e+01 2.885215e-01 3.823284e+01 3.521088e-01 3.456539e+01 3.713508e-01 3.088708e+01 3.476573e-01 2.718517e+01 2.987676e-01 2.347860e+01 2.121975e-01 1.976088e+01 1.174437e-01 1.603417e+01 -3.130633e-03 1.231017e+01 -1.247228e-01 8.573764e+00 -2.568291e-01 4.849704e+00 -3.901624e-01 1.114499e+00 -5.159067e-01 -2.606659e+00 -6.456760e-01 -6.329118e+00 -7.571154e-01 -1.003998e+01 -8.740129e-01 -1.373557e+01 -9.708917e-01 -1.742220e+01 -1.066624e+00 -2.107982e+01 -1.144599e+00 -2.472558e+01 -1.202764e+00 -2.832620e+01 -1.231720e+00 -3.189255e+01 -1.239083e+00 -3.542902e+01 -1.225808e+00 -3.893664e+01 -1.189601e+00 -4.241712e+01 -1.127035e+00 -4.587645e+01 -1.033805e+00 -4.932923e+01 
-1.093538e+00 -5.572301e+01 -9.668677e-01 -5.948851e+01 -8.159706e-01 5.861071e+01 -6.624179e-01 5.481991e+01 -5.049282e-01 5.105223e+01 -3.525265e-01 4.728205e+01 -2.126284e-01 4.349833e+01 -9.461291e-02 3.969348e+01 -2.757754e-02 3.582935e+01 6.514901e-03 3.199504e+01 -3.232888e-03 2.812401e+01 -9.790396e-03 2.427275e+01 -7.812053e-02 2.041083e+01 -1.212645e-01 1.653949e+01 -2.206129e-01 1.269378e+01 -3.001846e-01 8.811044e+00 -4.064146e-01 4.974056e+00 -5.172102e-01 1.091197e+00 -6.104446e-01 -2.753497e+00 -7.350869e-01 -6.623781e+00 -8.147170e-01 -1.048244e+01 -9.385001e-01 -1.432630e+01 -1.017243e+00 -1.818779e+01 -1.124391e+00 -2.200436e+01 -1.208432e+00 -2.585355e+01 -1.278545e+00 -2.963602e+01 -1.307531e+00 -3.339818e+01 -1.320770e+00 -3.714602e+01 -1.319161e+00 -4.087892e+01 -1.299345e+00 -4.459664e+01 -1.257555e+00 -4.830210e+01 -1.190137e+00 -5.200456e+01 
-8.118255e-01 -5.549366e+01 -6.734466e-01 -5.956892e+01 -5.164270e-01 5.923303e+01 -3.561240e-01 5.512826e+01 -1.974763e-01 5.113086e+01 -4.913251e-02 4.720317e+01 8.261983e-02 4.332097e+01 1.903054e-01 3.946382e+01 2.352514e-01 3.555849e+01 2.488091e-01 3.172906e+01 2.117778e-01 2.786195e+01 1.964085e-01 2.403999e+01 9.868871e-02 2.021277e+01 5.208112e-02 1.638002e+01 -7.307295e-02 1.259501e+01 -1.595593e-01 8.758321e+00 -2.814554e-01 4.998556e+00 -4.057563e-01 1.171692e+00 -4.991667e-01 -2.591796e+00 -6.390519e-01 -6.393048e+00 -7.063032e-01 -1.017599e+01 -8.407346e-01 -1.393832e+01 -9.035162e-01 -1.773366e+01 -1.010833e+00 -2.146753e+01 -1.084398e+00 -2.526666e+01 -1.144227e+00 -2.898443e+01 -1.149991e+00 -3.269880e+01 -1.140710e+00 -3.642054e+01 -1.117002e+00 -4.015511e+01 -1.075386e+00 -4.391110e+01 -1.012419e+00 -4.770285e+01 -9.251954e-01 -5.155288e+01 
-1.009148e+00 -5.815757e+01 -9.026733e-01 -6.243747e+01 -7.792119e-01 6.147786e+01 -6.527157e-01 5.717949e+01 -5.220660e-01 5.299340e+01 -3.924504e-01 4.888490e+01 -2.654027e-01 4.483712e+01 -1.323241e-01 4.085693e+01 -1.051535e-01 3.669908e+01 -7.132797e-02 3.279014e+01 -1.394101e-01 2.871812e+01 -5.845056e-02 2.478848e+01 -2.170480e-01 2.082420e+01 -1.430974e-01 1.682254e+01 -3.166207e-01 1.297664e+01 -3.228047e-01 8.925759e+00 -4.406367e-01 5.138295e+00 -5.637026e-01 1.094868e+00 -5.832462e-01 -2.730611e+00 -7.862310e-01 -6.705695e+00 -7.437863e-01 -1.063143e+01 -9.632293e-01 -1.450406e+01 -9.420833e-01 -1.851817e+01 -1.104118e+00 -2.232920e+01 -1.172368e+00 -2.640276e+01 -1.265444e+00 -3.024398e+01 -1.246692e+00 -3.412997e+01 -1.239998e+00 -3.804103e+01 -1.227481e+00 -4.197538e+01 -1.201634e+00 -4.593871e+01 -1.158248e+00 -4.994267e+01 -1.094582e+00 -5.400614e+01 
-7.444526e-01 -5.805098e+01 -6.285930e-01 -6.261531e+01 -5.000003e-01 6.217689e+01 -3.677787e-01 5.759044e+01 -2.359082e-01 5.318346e+01 -1.091149e-01 4.891441e+01 1.311617e-02 4.475977e+01 1.476476e-01 4.072912e+01 1.497361e-01 3.648796e+01 1.714564e-01 3.259737e+01 6.401237e-02 2.850049e+01 1.632160e-01 2.460335e+01 -5.150013e-02 2.066726e+01 5.125135e-02 1.668665e+01 -1.716263e-01 1.291923e+01 -1.652819e-01 8.881041e+00 -3.038280e-01 5.199180e+00 -4.458168e-01 1.177985e+00 -4.464950e-01 -2.548211e+00 -6.905645e-01 -6.472325e+00 -6.036662e-01 -1.032932e+01 -8.652225e-01 -1.411580e+01 -8.023349e-01 -1.809399e+01 -9.831691e-01 -2.180405e+01 -1.037921e+00 -2.587300e+01 -1.131784e+00 -2.964600e+01 -1.083342e+00 -3.349763e+01 -1.056802e+00 -3.739915e+01 -1.026161e+00 -4.135210e+01 -9.826133e-01 -4.536917e+01 -9.222005e-01 -4.947082e+01 -8.429399e-01 -5.368553e+01 
-9.460669e-01 -6.046347e+01 -8.558264e-01 -6.520134e+01 -7.534008e-01 6.417876e+01 -6.475145e-01 5.942697e+01 -5.384248e-01 5.485717e+01 -4.299895e-01 5.042718e+01 -3.243443e-01 4.610846e+01 -2.204710e-01 4.188471e+01 -1.907417e-01 3.759360e+01 -1.659246e-01 3.349303e+01 -2.076521e-01 2.932320e+01 -1.614642e-01 2.526594e+01 -2.661797e-01 2.120740e+01 -2.318789e-01 1.714263e+01 -3.537737e-01 1.318724e+01 -3.766774e-01 9.116305e+00 -4.714534e-01 5.214734e+00 -5.714040e-01 1.159877e+00 -6.083006e-01 -2.759586e+00 -7.580157e-01 -6.772212e+00 -7.564632e-01 -1.075765e+01 -9.157923e-01 -1.471556e+01 -9.267189e-01 -1.876853e+01 -1.049613e+00 -2.270794e+01 -1.112940e+00 -2.682279e+01 -1.182835e+00 -3.080714e+01 -1.173818e+00 -3.483666e+01 -1.165084e+00 -3.891270e+01 -1.149187e+00 -4.304279e+01 -1.121552e+00 -4.724006e+01 -1.079354e+00 -5.152358e+01 -1.020986e+00 -5.591963e+01 
-6.947356e-01 -6.040925e+01 -5.968486e-01 -6.540236e+01 -4.901329e-01 6.488385e+01 -3.794361e-01 5.987331e+01 -2.695256e-01 5.509830e+01 -1.647203e-01 5.051133e+01 -6.879540e-02 4.607458e+01 1.151768e-02 4.175139e+01 4.261156e-02 3.746286e+01 5.159577e-02 3.330245e+01 2.334758e-02 2.916116e+01 1.871179e-02 2.510016e+01 -5.284889e-02 2.106837e+01 -7.896439e-02 1.705929e+01 -1.721021e-01 1.311282e+01 -2.329766e-01 9.138553e+00 -3.254316e-01 5.241516e+00 -4.212272e-01 1.293544e+00 -4.916589e-01 -2.598299e+00 -6.028654e-01 -6.525081e+00 -6.528459e-01 -1.044321e+01 -7.613203e-01 -1.435533e+01 -8.093433e-01 -1.831255e+01 -8.962280e-01 -2.223986e+01 -9.544743e-01 -2.625194e+01 -9.989296e-01 -3.022899e+01 -9.947922e-01 -3.424654e+01 -9.770346e-01 -3.832631e+01 -9.482952e-01 -4.248488e+01 -9.068062e-01 -4.674258e+01 -8.509762e-01 -5.112561e+01 -7.801185e-01 -5.566731e+01 
-8.985721e-01 -6.257527e+01 -8.215158e-01 -6.771173e+01 -7.356204e-01 6.664020e+01 -6.458566e-01 6.149254e+01 -5.543811e-01 5.658122e+01 -4.649163e-01 5.185824e+01 -3.816196e-01 4.728483e+01 -3.111922e-01 4.282569e+01 -2.720701e-01 3.843217e+01 -2.523893e-01 3.413959e+01 -2.572871e-01 2.989116e+01 -2.580710e-01 2.570878e+01 -2.959578e-01 2.156360e+01 -3.190667e-01 1.744822e+01 -3.787689e-01 1.337694e+01 -4.289433e-01 9.304454e+00 -4.980956e-01 5.275272e+00 -5.721008e-01 1.226959e+00 -6.366151e-01 -2.794568e+00 -7.211869e-01 -6.834047e+00 -7.784013e-01 -1.087403e+01 -8.627940e-01 -1.491827e+01 -9.190714e-01 -1.899309e+01 -9.917080e-01 -2.306703e+01 -1.047619e+00 -2.719539e+01 -1.089773e+00 -3.132516e+01 -1.100675e+00 -3.549680e+01 -1.097378e+00 -3.973027e+01 -1.082698e+00 -4.404297e+01 -1.056133e+00 -4.845509e+01 -1.016770e+00 -5.299188e+01 -9.641360e-01 -5.768524e+01 
-6.578040e-01 -6.251630e+01 -5.743002e-01 -6.787695e+01 -4.846400e-01 6.729584e+01 -3.906572e-01 6.192070e+01 -2.983032e-01 5.682518e+01 -2.116423e-01 5.195810e+01 -1.352405e-01 4.727587e+01 -7.552338e-02 4.273900e+01 -4.238793e-02 3.830970e+01 -3.116445e-02 3.398837e+01 -4.093234e-02 2.974162e+01 -5.892482e-02 2.556769e+01 -9.968044e-02 2.144685e+01 -1.421371e-01 1.736926e+01 -2.049251e-01 1.333425e+01 -2.690235e-01 9.318829e+00 -3.437972e-01 5.334769e+00 -4.219338e-01 1.353017e+00 -4.961213e-01 -2.613510e+00 -5.763679e-01 -6.586411e+00 -6.435451e-01 -1.056319e+01 -7.179128e-01 -1.454968e+01 -7.774526e-01 -1.856107e+01 -8.380209e-01 -2.259087e+01 -8.847454e-01 -2.666593e+01 -9.147330e-01 -3.077144e+01 -9.199058e-01 -3.493322e+01 -9.083048e-01 -3.917463e+01 -8.832578e-01 -4.351850e+01 -8.454517e-01 -4.799060e+01 -7.949345e-01 -5.262167e+01 -7.320328e-01 -5.744876e+01 
-8.628360e-01 -6.444065e+01 -7.963928e-01 -6.991498e+01 -7.234462e-01 6.880559e+01 -6.462500e-01 6.332179e+01 -5.685844e-01 5.811693e+01 -4.938687e-01 5.313976e+01 -4.261742e-01 4.834698e+01 -3.707512e-01 4.370110e+01 -3.339891e-01 3.916980e+01 -3.143738e-01 3.474200e+01 -3.110375e-01 3.039309e+01 -3.176374e-01 2.611439e+01 -3.405235e-01 2.189003e+01 -3.696762e-01 1.770968e+01 -4.133296e-01 1.356787e+01 -4.622110e-01 9.449286e+00 -5.199369e-01 5.354935e+00 -5.822614e-01 1.267271e+00 -6.449108e-01 -2.811628e+00 -7.117122e-01 -6.895345e+00 -7.731676e-01 -1.098619e+01 -8.379450e-01 -1.509035e+01 -8.950459e-01 -1.921853e+01 -9.505861e-01 -2.337172e+01 -9.960329e-01 -2.756657e+01 -1.028028e+00 -3.180129e+01 -1.041779e+00 -3.609510e+01 -1.041113e+00 -4.046860e+01 -1.028173e+00 -4.494370e+01 -1.003620e+00 -4.954542e+01 -9.676072e-01 -5.430358e+01 -9.204165e-01 -5.925418e+01 
-6.304292e-01 -6.433028e+01 -5.582716e-01 -6.999697e+01 -4.817589e-01 6.936761e+01 -4.005997e-01 6.368846e+01 -3.216591e-01 5.832360e+01 -2.485135e-01 5.322005e+01 -1.851633e-01 4.833184e+01 -1.361170e-01 4.361907e+01 -1.055445e-01 3.904857e+01 -9.301472e-02 3.459972e+01 -9.702045e-02 3.024927e+01 -1.138488e-01 2.598213e+01 -1.448333e-01 2.178211e+01 -1.850007e-01 1.763664e+01 -2.364641e-01 1.353609e+01 -2.943989e-01 9.467740e+00 -3.588290e-01 5.425711e+00 -4.265881e-01 1.397271e+00 -4.945474e-01 -2.622360e+00 -5.629469e-01 -6.643855e+00 -6.270647e-01 -1.067345e+01 -6.893565e-01 -1.471914e+01 -7.445381e-01 -1.879117e+01 -7.936933e-01 -2.289664e+01 -8.317628e-01 -2.704945e+01 -8.554021e-01 -3.125761e+01 -8.618486e-01 -3.554027e+01 -8.530898e-01 -3.992048e+01 -8.310705e-01 -4.442387e+01 -7.969300e-01 -4.907963e+01 -7.514400e-01 -5.392168e+01 -6.954899e-01 -5.898976e+01 
-8.362327e-01 -6.601827e+01 -7.781210e-01 -7.176917e+01 -7.150851e-01 7.063111e+01 -6.474548e-01 6.487201e+01 -5.801029e-01 5.942494e+01 -5.160038e-01 5.423689e+01 -4.586153e-01 4.926223e+01 -4.117733e-01 4.446194e+01 -3.788402e-01 3.980393e+01 -3.601520e-01 3.526552e+01 -3.548943e-01 3.082482e+01 -3.609616e-01 2.646565e+01 -3.788504e-01 2.217248e+01 -4.058083e-01 1.793260e+01 -4.426863e-01 1.373557e+01 -4.866453e-01 9.569880e+00 -5.372020e-01 5.427908e+00 -5.921042e-01 1.298819e+00 -6.490729e-01 -2.823875e+00 -7.075943e-01 -6.949509e+00 -7.646253e-01 -1.108505e+01 -8.207923e-01 -1.523842e+01 -8.725941e-01 -1.941897e+01 -9.195876e-01 -2.363474e+01 -9.579190e-01 -2.789786e+01 -9.845732e-01 -3.221834e+01 -9.973548e-01 -3.661368e+01 -9.971917e-01 -4.110533e+01 -9.853531e-01 -4.571780e+01 -9.626863e-01 -5.047931e+01 -9.297799e-01 -5.542285e+01 -8.872941e-01 -6.058728e+01 
-6.104357e-01 -6.581818e+01 -5.469599e-01 -7.172943e+01 -4.802867e-01 7.106398e+01 -4.086760e-01 6.514183e+01 -3.394968e-01 5.956068e+01 -2.758054e-01 5.426662e+01 -2.209503e-01 4.921236e+01 -1.783670e-01 4.435686e+01 -1.507514e-01 3.966578e+01 -1.384056e-01 3.511267e+01 -1.403397e-01 3.067360e+01 -1.546626e-01 2.632945e+01 -1.808369e-01 2.206282e+01 -2.165957e-01 1.785909e+01 -2.615565e-01 1.370573e+01 -3.132964e-01 9.590328e+00 -3.705518e-01 5.503060e+00 -4.310555e-01 1.432717e+00 -4.925503e-01 -2.629351e+00 -5.538220e-01 -6.693193e+00 -6.124263e-01 -1.076764e+01 -6.679304e-01 -1.486226e+01 -7.176698e-01 -1.898784e+01 -7.604807e-01 -2.315507e+01 -7.932409e-01 -2.737761e+01 -8.133115e-01 -3.166927e+01 -8.190572e-01 -3.604978e+01 -8.112125e-01 -4.054314e+01 -7.911041e-01 -4.517688e+01 -7.598882e-01 -4.998237e+01 -7.185758e-01 -5.499570e+01 -6.682784e-01 -6.025839e+01 
-8.169540e-01 -6.727613e+01 -7.651227e-01 -7.324213e+01 -7.093689e-01 7.208320e+01 -6.487263e-01 6.611007e+01 -5.886392e-01 6.047383e+01 -5.316395e-01 5.512056e+01 -4.806741e-01 5.000309e+01 -4.390131e-01 4.508050e+01 -4.095399e-01 4.031842e+01 -3.925740e-01 3.569133e+01 -3.874818e-01 3.117501e+01 -3.925095e-01 2.675091e+01 -4.081434e-01 2.240162e+01 -4.320485e-01 1.811266e+01 -4.649869e-01 1.387194e+01 -5.045011e-01 9.666751e+00 -5.501413e-01 5.487997e+00 -5.998959e-01 1.323970e+00 -6.516995e-01 -2.833186e+00 -7.049826e-01 -6.993768e+00 -7.569645e-01 -1.116607e+01 -8.080252e-01 -1.535933e+01 -8.549728e-01 -1.958418e+01 -8.972804e-01 -2.385044e+01 -9.315157e-01 -2.817178e+01 -9.550381e-01 -3.256054e+01 -9.659361e-01 -3.703597e+01 -9.650226e-01 -4.162126e+01 -9.534599e-01 -4.634289e+01 -9.321196e-01 -5.123121e+01 -9.016971e-01 -5.632130e+01 -8.629607e-01 -6.165390e+01 
-5.963621e-01 -6.695475e+01 -5.392067e-01 -7.304928e+01 -4.795312e-01 7.235818e+01 -4.146752e-01 6.625408e+01 -3.521277e-01 6.051057e+01 -2.944824e-01 5.507334e+01 -2.446391e-01 4.989410e+01 -2.057837e-01 4.493019e+01 -1.807907e-01 4.014502e+01 -1.695972e-01 3.551155e+01 -1.713322e-01 3.100302e+01 -1.836749e-01 2.659922e+01 -2.072954e-01 2.228064e+01 -2.390205e-01 1.803117e+01 -2.798967e-01 1.383740e+01 -3.267004e-01 9.684784e+00 -3.790473e-01 5.563481e+00 -4.345496e-01 1.459885e+00 -4.907949e-01 -2.634572e+00 -5.473825e-01 -6.731932e+00 -6.009077e-01 -1.084164e+01 -6.522914e-01 -1.497444e+01 -6.977550e-01 -1.914286e+01 -7.373505e-01 -2.335819e+01 -7.674463e-01 -2.763666e+01 -7.855967e-01 -3.199210e+01 -7.899216e-01 -3.644644e+01 -7.816822e-01 -4.102546e+01 -7.623517e-01 -4.575815e+01 -7.330801e-01 -5.067733e+01 -6.948728e-01 -5.582040e+01 -6.488378e-01 -6.123003e+01 
-8.037779e-01 -6.819040e+01 -7.563974e-01 -7.431007e+01 -7.056541e-01 7.313692e+01 -6.497901e-01 6.701107e+01 -5.943637e-01 6.123965e+01 -5.414578e-01 5.576834e+01 -4.935985e-01 5.054901e+01 -4.541969e-01 4.553849e+01 -4.278322e-01 4.069792e+01 -4.132026e-01 3.600634e+01 -4.100107e-01 3.143297e+01 -4.135011e-01 2.696136e+01 -4.292046e-01 2.257041e+01 -4.492872e-01 1.824449e+01 -4.807396e-01 1.397279e+01 -5.162531e-01 9.737178e+00 -5.589882e-01 5.533356e+00 -6.056566e-01 1.342247e+00 -6.528660e-01 -2.839074e+00 -7.036904e-01 -7.026311e+00 -7.502452e-01 -1.122613e+01 -7.993945e-01 -1.544864e+01 -8.420169e-01 -1.970799e+01 -8.830784e-01 -2.401105e+01 -9.158628e-01 -2.837829e+01 -9.381784e-01 -3.281609e+01 -9.463939e-01 -3.734840e+01 -9.435850e-01 -4.200087e+01 -9.314490e-01 -4.680134e+01 -9.107689e-01 -5.178140e+01 -8.820995e-01 -5.697734e+01 -8.461161e-01 -6.243101e+01 
-5.872573e-01 -6.772169e+01 -5.343351e-01 -7.393841e+01 -4.792104e-01 7.323074e+01 -4.187218e-01 6.700554e+01 -3.601411e-01 6.115407e+01 -3.055833e-01 5.562196e+01 -2.575185e-01 5.036044e+01 -2.194776e-01 4.532473e+01 -1.971368e-01 4.047251e+01 -1.879468e-01 3.578549e+01 -1.917836e-01 3.122771e+01 -2.014630e-01 2.678374e+01 -2.256927e-01 2.242935e+01 -2.523282e-01 1.814755e+01 -2.923402e-01 1.392790e+01 -3.345850e-01 9.747925e+00 -3.844116e-01 5.606193e+00 -4.373201e-01 1.477912e+00 -4.887182e-01 -2.636893e+00 -5.440249e-01 -6.758327e+00 -5.915524e-01 -1.089255e+01 -6.425976e-01 -1.505098e+01 -6.837361e-01 -1.925099e+01 -7.237556e-01 -2.349818e+01 -7.536377e-01 -2.781874e+01 -7.717620e-01 -3.221605e+01 -7.734201e-01 -3.671844e+01 -7.633311e-01 -4.135412e+01 -7.436522e-01 -4.615298e+01 -7.153499e-01 -5.114847e+01 -6.791783e-01 -5.637863e+01 -6.360671e-01 -6.188673e+01 
-7.959248e-01 -6.874459e+01 -7.513869e-01 -7.495661e+01 -7.037160e-01 7.377483e+01 -6.507659e-01 6.755745e+01 -5.978464e-01 6.170519e+01 -5.464507e-01 5.616403e+01 -4.982405e-01 5.088607e+01 -4.564819e-01 4.582646e+01 -4.344884e-01 4.092838e+01 -4.224820e-01 3.620311e+01 -4.259201e-01 3.158914e+01 -4.223342e-01 2.709114e+01 -4.459296e-01 2.267417e+01 -4.551883e-01 1.832208e+01 -4.924648e-01 1.403753e+01 -5.208031e-01 9.775814e+00 -5.639306e-01 5.566000e+00 -6.108919e-01 1.350738e+00 -6.504420e-01 -2.839054e+00 -7.066860e-01 -7.046266e+00 -7.409537e-01 -1.126352e+01 -7.973177e-01 -1.550110e+01 -8.306471e-01 -1.978810e+01 -8.771931e-01 -2.410750e+01 -9.107139e-01 -2.851424e+01 -9.354751e-01 -3.297714e+01 -9.379458e-01 -3.754072e+01 -9.315610e-01 -4.223250e+01 -9.180910e-01 -4.708027e+01 -8.975457e-01 -5.211577e+01 -8.699912e-01 -5.737575e+01 -8.358489e-01 -6.290256e+01 
-5.825554e-01 -6.810708e+01 -5.320277e-01 -7.438510e+01 -4.793602e-01 7.366877e+01 -4.212173e-01 6.738307e+01 -3.644184e-01 6.147803e+01 -3.104204e-01 5.589991e+01 -2.605575e-01 5.060089e+01 -2.176175e-01 4.553572e+01 -2.004332e-01 4.063478e+01 -1.933656e-01 3.593014e+01 -2.064577e-01 3.133856e+01 -2.047595e-01 2.687867e+01 -2.417304e-01 2.250548e+01 -2.522921e-01 1.820174e+01 -3.025890e-01 1.397873e+01 -3.349061e-01 9.772820e+00 -3.867271e-01 5.635449e+00 -4.416148e-01 1.482466e+00 -4.827610e-01 -2.632594e+00 -5.484648e-01 -6.771924e+00 -5.787032e-01 -1.091928e+01 -6.428399e-01 -1.508593e+01 -6.708613e-01 -1.931197e+01 -7.203429e-01 -2.356479e+01 -7.516209e-01 -2.792408e+01 -7.744545e-01 -3.233494e+01 -7.687399e-01 -3.685718e+01 -7.546613e-01 -4.151964e+01 -7.336911e-01 -4.635124e+01 -7.056341e-01 -5.138503e+01 -6.706073e-01 -5.665904e+01 -6.292269e-01 -6.221670e+01 
-7.929677e-01 -6.892903e+01 -7.498621e-01 -7.517217e+01 -7.036352e-01 7.398653e+01 -6.520618e-01 6.773848e+01 -6.000857e-01 6.185948e+01 -5.484813e-01 5.629642e+01 -4.966103e-01 5.100470e+01 -4.391573e-01 4.595285e+01 -4.312305e-01 4.098599e+01 -4.164334e-01 3.628852e+01 -4.489008e-01 3.162935e+01 -4.040529e-01 2.713984e+01 -4.770364e-01 2.271308e+01 -4.330945e-01 1.833208e+01 -5.131834e-01 1.407947e+01 -5.105597e-01 9.762535e+00 -5.650975e-01 5.604080e+00 -6.235296e-01 1.333775e+00 -6.313698e-01 -2.821642e+00 -7.316666e-01 -7.056152e+00 -7.095891e-01 -1.128060e+01 -8.183147e-01 -1.550414e+01 -8.060688e-01 -1.983584e+01 -8.844008e-01 -2.411662e+01 -9.143315e-01 -2.859405e+01 -9.551362e-01 -3.303753e+01 -9.384262e-01 -3.760486e+01 -9.267104e-01 -4.230817e+01 -9.119195e-01 -4.717153e+01 -8.914721e-01 -5.222576e+01 -8.646486e-01 -5.750746e+01 -8.315882e-01 -6.305906e+01 