# vtk DataFile Version 2.0
Comment goes here
ASCII

DATASET STRUCTURED_POINTS
FIELD FieldData 1
TIME 1 1 double
0.07700000
DIMENSIONS    64   64   1

ORIGIN    0.000   0.000   0.000
SPACING   0.03125 0.03125   1.000

POINT_DATA   4096
SCALARS P double
LOOKUP_TABLE default

-1.764429e+01 -1.792886e+02 -2.157746e+00 -1.881409e+02 3.006250e+01 1.380290e+02 6.931436e+00 1.262086e+02 -1.278952e+00 1.132665e+02 -4.459356e+00 9.631398e+01 -3.953676e+00 8.042856e+01 -4.371460e+00 6.705333e+01 -7.164808e+00 5.867658e+01 -1.416294e+01 5.436200e+01 -2.183253e+01 4.867828e+01 -2.683892e+01 4.088103e+01 -3.010113e+01 3.094772e+01 -3.038134e+01 1.914022e+01 -3.053531e+01 9.429616e+00 -3.257628e+01 -7.526253e-01 -3.354093e+01 -9.738380e+00 -3.844797e+01 -1.499581e+01 -4.327924e+01 -2.369816e+01 -4.318734e+01 -3.594117e+01 -4.095184e+01 -4.989281e+01 -3.823603e+01 -6.397165e+01 -3.600440e+01 -7.696247e+01 -3.565546e+01 -8.815289e+01 -3.696921e+01 -9.941255e+01 -3.582877e+01 -1.127122e+02 -3.562734e+01 -1.231981e+02 -3.711609e+01 -1.326944e+02 -3.724744e+01 -1.428598e+02 -3.636783e+01 -1.506451e+02 -3.579136e+01 -1.574132e+02 -3.305626e+01 -1.640970e+02 
2.837292e+00 -1.224859e+02 1.212075e+01 -1.282626e+02 3.432704e+01 1.166475e+02 1.595128e+01 1.089234e+02 9.377655e+00 1.007686e+02 6.120084e+00 9.012664e+01 5.251660e+00 7.993195e+01 4.193724e+00 7.061098e+01 2.372791e+00 6.356739e+01 -1.385031e+00 5.846126e+01 -5.250689e+00 5.235806e+01 -7.547732e+00 4.511867e+01 -9.078848e+00 3.686606e+01 -9.072692e+00 2.769778e+01 -9.056096e+00 1.984978e+01 -1.021953e+01 1.151630e+01 -1.046332e+01 3.814561e+00 -1.296147e+01 -1.666025e+00 -1.547001e+01 -9.190813e+00 -1.536472e+01 -1.843038e+01 -1.429001e+01 -2.830985e+01 -1.300004e+01 -3.830928e+01 -1.188813e+01 -4.784364e+01 -1.162242e+01 -5.620912e+01 -1.223673e+01 -6.461176e+01 -1.132368e+01 -7.416117e+01 -1.093668e+01 -8.197973e+01 -1.148055e+01 -8.917098e+01 -1.105546e+01 -9.682514e+01 -9.907938e+00 -1.029026e+02 -8.998789e+00 -1.080640e+02 -7.243857e+00 -1.125039e+02 
1.392221e+01 -9.267720e+01 1.768739e+01 -9.636215e+01 2.581997e+01 1.053257e+02 1.865579e+01 1.001770e+02 1.524276e+01 9.459105e+01 1.268172e+01 8.819950e+01 1.080048e+01 8.169692e+01 9.155046e+00 7.498536e+01 7.721646e+00 6.834608e+01 6.191277e+00 6.180083e+01 4.881845e+00 5.487128e+01 4.054234e+00 4.770925e+01 3.361439e+00 4.046836e+01 2.939718e+00 3.313246e+01 2.481989e+00 2.611202e+01 1.790798e+00 1.890609e+01 1.524218e+00 1.179455e+01 8.287855e-01 5.107144e+00 1.591265e-01 -2.049598e+00 9.610174e-02 -9.383243e+00 1.780274e-01 -1.671249e+01 3.649149e-01 -2.412218e+01 7.192415e-01 -3.146623e+01 1.067356e+00 -3.851059e+01 1.343706e+00 -4.547028e+01 2.144966e+00 -5.255985e+01 3.020362e+00 -5.913130e+01 3.878227e+00 -6.545904e+01 5.173730e+00 -7.178989e+01 6.828512e+00 -7.750664e+01 8.539930e+00 -8.257093e+01 1.033086e+01 -8.696224e+01 
1.409613e+01 -9.200695e+01 1.884806e+01 -9.584594e+01 2.430929e+01 1.042966e+02 1.956163e+01 9.958671e+01 1.529632e+01 9.388349e+01 1.223639e+01 8.752784e+01 1.004511e+01 8.094439e+01 8.298846e+00 7.426271e+01 6.806333e+00 6.766076e+01 5.398419e+00 6.110027e+01 4.220301e+00 5.430949e+01 3.379698e+00 4.727244e+01 2.763269e+00 4.007097e+01 2.367054e+00 3.279125e+01 2.009615e+00 2.564432e+01 1.568067e+00 1.848939e+01 1.210531e+00 1.142864e+01 6.188319e-01 4.545737e+00 7.959019e-02 -2.572576e+00 -8.045249e-02 -9.911045e+00 -5.359043e-02 -1.734021e+01 7.976026e-02 -2.477515e+01 3.526198e-01 -3.211101e+01 6.632981e-01 -3.924201e+01 9.807292e-01 -4.624078e+01 1.528348e+00 -5.314426e+01 2.147580e+00 -5.967860e+01 2.844003e+00 -6.590375e+01 3.870761e+00 -7.190285e+01 5.277443e+00 -7.739935e+01 7.031502e+00 -8.235067e+01 9.403592e+00 -8.689075e+01 
1.381201e+01 -9.320987e+01 1.757611e+01 -9.753296e+01 2.211328e+01 1.042719e+02 1.836951e+01 9.983629e+01 1.494217e+01 9.440198e+01 1.230685e+01 8.832070e+01 1.027776e+01 8.193141e+01 8.606258e+00 7.534703e+01 7.164634e+00 6.868429e+01 5.839025e+00 6.192796e+01 4.731948e+00 5.496901e+01 3.891333e+00 4.784930e+01 3.222701e+00 4.064699e+01 2.712814e+00 3.341456e+01 2.248115e+00 2.626220e+01 1.766809e+00 1.908731e+01 1.381905e+00 1.193857e+01 9.314084e-01 4.879505e+00 5.344810e-01 -2.312938e+00 3.849097e-01 -9.600616e+00 3.854684e-01 -1.692079e+01 5.051964e-01 -2.424278e+01 7.442878e-01 -3.150723e+01 1.068303e+00 -3.864037e+01 1.474735e+00 -4.567717e+01 2.105586e+00 -5.264114e+01 2.892709e+00 -5.935950e+01 3.828138e+00 -6.584494e+01 5.037239e+00 -7.210619e+01 6.542497e+00 -7.795747e+01 8.312328e+00 -8.337386e+01 1.046362e+01 -8.827927e+01 
1.314150e+01 -9.418879e+01 1.716419e+01 -9.883951e+01 2.088580e+01 1.029874e+02 1.803939e+01 9.888344e+01 1.458262e+01 9.364777e+01 1.171903e+01 8.766300e+01 9.523086e+00 8.129348e+01 7.781322e+00 7.473705e+01 6.330563e+00 6.810576e+01 5.052876e+00 6.136567e+01 4.019355e+00 5.445990e+01 3.226213e+00 4.738654e+01 2.619881e+00 4.021014e+01 2.165721e+00 3.299558e+01 1.775992e+00 2.581044e+01 1.401984e+00 1.863523e+01 1.039919e+00 1.148368e+01 6.393925e-01 4.360287e+00 2.907159e-01 -2.855563e+00 1.077350e-01 -1.016382e+01 6.691217e-02 -1.752323e+01 1.317679e-01 -2.487983e+01 3.093549e-01 -3.217094e+01 5.687931e-01 -3.934975e+01 9.255376e-01 -4.640429e+01 1.436071e+00 -5.331584e+01 2.071913e+00 -5.998854e+01 2.849519e+00 -6.641006e+01 3.879867e+00 -7.257531e+01 5.252930e+00 -7.840248e+01 7.067080e+00 -8.388732e+01 9.533767e+00 -8.912272e+01 
1.258863e+01 -9.601580e+01 1.574337e+01 -1.011337e+02 1.895151e+01 1.036230e+02 1.661225e+01 9.930627e+01 1.389250e+01 9.418140e+01 1.148784e+01 8.838322e+01 9.549195e+00 8.215896e+01 7.965196e+00 7.567437e+01 6.617274e+00 6.902520e+01 5.393651e+00 6.218511e+01 4.416336e+00 5.517250e+01 3.637401e+00 4.802164e+01 3.018920e+00 4.082116e+01 2.518776e+00 3.360553e+01 2.091694e+00 2.641289e+01 1.706185e+00 1.920733e+01 1.349668e+00 1.198898e+01 1.012901e+00 4.772900e+00 7.148099e-01 -2.500474e+00 5.586191e-01 -9.808129e+00 5.127289e-01 -1.713243e+01 5.868957e-01 -2.443648e+01 7.689200e-01 -3.170356e+01 1.052592e+00 -3.889577e+01 1.455704e+00 -4.600703e+01 2.001153e+00 -5.302238e+01 2.717712e+00 -5.988220e+01 3.614051e+00 -6.655162e+01 4.725029e+00 -7.299846e+01 6.087003e+00 -7.915893e+01 7.747117e+00 -8.501703e+01 9.828393e+00 -9.059168e+01 
1.149418e+01 -9.762037e+01 1.460804e+01 -1.030669e+02 1.747112e+01 1.033880e+02 1.551316e+01 9.877839e+01 1.306300e+01 9.362251e+01 1.070366e+01 8.785725e+01 8.735937e+00 8.165377e+01 7.138299e+00 7.519309e+01 5.818079e+00 6.857697e+01 4.607665e+00 6.173861e+01 3.690699e+00 5.472111e+01 2.973679e+00 4.756113e+01 2.404907e+00 4.036099e+01 1.966070e+00 3.314957e+01 1.588790e+00 2.594313e+01 1.272436e+00 1.873173e+01 9.506976e-01 1.149298e+01 6.436772e-01 4.246381e+00 3.683287e-01 -3.056418e+00 1.893974e-01 -1.038387e+01 1.211215e-01 -1.773444e+01 1.321703e-01 -2.507650e+01 2.580299e-01 -3.238215e+01 4.561038e-01 -3.963471e+01 7.961009e-01 -4.677704e+01 1.292238e+00 -5.379504e+01 1.930431e+00 -6.063122e+01 2.692370e+00 -6.727899e+01 3.653388e+00 -7.373373e+01 4.903529e+00 -7.997468e+01 6.542565e+00 -8.601333e+01 8.697919e+00 -9.189507e+01 
1.066669e+01 -9.953257e+01 1.307616e+01 -1.053879e+02 1.549316e+01 1.047742e+02 1.392335e+01 9.975015e+01 1.207675e+01 9.442674e+01 1.022089e+01 8.866290e+01 8.585620e+00 8.250237e+01 7.206326e+00 7.607577e+01 6.035565e+00 6.945664e+01 4.848716e+00 6.255282e+01 4.016040e+00 5.544885e+01 3.315645e+00 4.820395e+01 2.773485e+00 4.097311e+01 2.315973e+00 3.374854e+01 1.954115e+00 2.655400e+01 1.663628e+00 1.931453e+01 1.350865e+00 1.202617e+01 1.086578e+00 4.706033e+00 8.012899e-01 -2.658945e+00 6.559597e-01 -1.001298e+01 5.661980e-01 -1.737126e+01 6.171514e-01 -2.468610e+01 7.591209e-01 -3.199850e+01 9.950324e-01 -3.926348e+01 1.365303e+00 -4.647952e+01 1.818859e+00 -5.361017e+01 2.454616e+00 -6.064864e+01 3.268786e+00 -6.755150e+01 4.239053e+00 -7.428101e+01 5.395424e+00 -8.081846e+01 6.799425e+00 -8.717939e+01 8.532324e+00 -9.340666e+01 
9.288472e+00 -1.013196e+02 1.152446e+01 -1.074975e+02 1.359300e+01 1.053228e+02 1.236015e+01 9.987660e+01 1.084329e+01 9.429688e+01 9.209940e+00 8.841292e+01 7.677970e+00 8.218759e+01 6.348389e+00 7.575182e+01 5.275490e+00 6.916856e+01 4.049352e+00 6.223596e+01 3.291793e+00 5.505970e+01 2.656979e+00 4.773966e+01 2.129435e+00 4.049613e+01 1.749888e+00 3.327290e+01 1.401034e+00 2.606400e+01 1.187977e+00 1.882647e+01 8.922110e-01 1.150102e+01 6.448515e-01 4.169156e+00 3.777284e-01 -3.233159e+00 1.946020e-01 -1.059395e+01 1.225889e-01 -1.797564e+01 7.670501e-02 -2.533933e+01 1.892063e-01 -3.269686e+01 2.902404e-01 -4.007732e+01 5.991324e-01 -4.733580e+01 1.079568e+00 -5.450989e+01 1.717780e+00 -6.151760e+01 2.402492e+00 -6.839775e+01 3.220294e+00 -7.516539e+01 4.252456e+00 -8.181975e+01 5.573983e+00 -8.838215e+01 7.249281e+00 -9.488629e+01 
8.240947e+00 -1.030933e+02 9.857174e+00 -1.096136e+02 1.140796e+01 1.071978e+02 1.061175e+01 1.013628e+02 9.639514e+00 9.549083e+01 8.528098e+00 8.944019e+01 7.389674e+00 8.311606e+01 6.323409e+00 7.665700e+01 5.460821e+00 7.005975e+01 4.170564e+00 6.306112e+01 3.597646e+00 5.577398e+01 2.930977e+00 4.834034e+01 2.484407e+00 4.108623e+01 2.064920e+00 3.384030e+01 1.800682e+00 2.672239e+01 1.673998e+00 1.943760e+01 1.369274e+00 1.209156e+01 1.188070e+00 4.661106e+00 8.074457e-01 -2.811500e+00 7.079959e-01 -1.022228e+01 5.305157e-01 -1.765065e+01 5.992452e-01 -2.496121e+01 7.136744e-01 -3.237508e+01 8.854178e-01 -3.971872e+01 1.238542e+00 -4.709690e+01 1.551677e+00 -5.434810e+01 2.100228e+00 -6.159283e+01 2.821480e+00 -6.875299e+01 3.601583e+00 -7.577129e+01 4.477754e+00 -8.266963e+01 5.519918e+00 -8.950089e+01 6.772748e+00 -9.631264e+01 
6.687261e+00 -1.048465e+02 8.041558e+00 -1.116735e+02 9.151631e+00 1.082771e+02 8.720306e+00 1.020347e+02 8.092365e+00 9.583423e+01 7.307753e+00 8.955312e+01 6.400233e+00 8.303344e+01 5.427289e+00 7.650212e+01 4.791756e+00 6.998981e+01 3.348697e+00 6.287641e+01 2.894449e+00 5.543614e+01 2.287671e+00 4.782804e+01 1.743008e+00 4.060231e+01 1.510346e+00 3.335822e+01 1.150902e+00 2.620565e+01 1.202898e+00 1.896079e+01 8.458446e-01 1.152057e+01 6.706683e-01 4.135981e+00 3.287874e-01 -3.422613e+00 1.183786e-01 -1.078699e+01 9.497643e-02 -1.824701e+01 -6.331480e-02 -2.563398e+01 1.485831e-01 -3.306523e+01 3.450522e-02 -4.068344e+01 3.268709e-01 -4.807315e+01 7.786988e-01 -5.543925e+01 1.457939e+00 -6.256479e+01 2.013767e+00 -6.963520e+01 2.622211e+00 -7.667741e+01 3.357241e+00 -8.369401e+01 4.273958e+00 -9.071986e+01 5.394955e+00 -9.778322e+01 
5.483480e+00 -1.063803e+02 6.250534e+00 -1.134856e+02 6.723575e+00 1.104205e+02 6.812761e+00 1.038696e+02 6.690033e+00 9.740235e+01 6.429343e+00 9.089316e+01 6.013978e+00 8.412692e+01 5.396779e+00 7.747217e+01 5.022840e+00 7.093169e+01 3.291101e+00 6.366388e+01 3.299347e+00 5.608327e+01 2.420752e+00 4.831938e+01 2.100276e+00 4.118242e+01 1.709705e+00 3.381136e+01 1.557014e+00 2.701949e+01 1.861490e+00 1.958732e+01 1.379751e+00 1.222725e+01 1.411205e+00 4.642814e+00 6.641441e-01 -2.983049e+00 7.538957e-01 -1.040626e+01 3.551840e-01 -1.801914e+01 5.224507e-01 -2.516257e+01 6.892278e-01 -3.285419e+01 6.876525e-01 -4.022326e+01 1.131183e+00 -4.792213e+01 1.169058e+00 -5.519982e+01 1.683525e+00 -6.267735e+01 2.317887e+00 -7.006117e+01 2.835496e+00 -7.728605e+01 3.362506e+00 -8.447405e+01 3.984396e+00 -9.171396e+01 4.704331e+00 -9.903531e+01 
3.842418e+00 -1.079926e+02 4.293747e+00 -1.153818e+02 4.267814e+00 1.118580e+02 4.723329e+00 1.049163e+02 4.866127e+00 9.811544e+01 4.903553e+00 9.138468e+01 4.870936e+00 8.437605e+01 4.531226e+00 7.745098e+01 4.575288e+00 7.113926e+01 2.509680e+00 6.332590e+01 2.570548e+00 5.580244e+01 1.799505e+00 4.773137e+01 1.038952e+00 4.068509e+01 1.303512e+00 3.340717e+01 6.718906e-01 2.637439e+01 1.532424e+00 1.922309e+01 7.765330e-01 1.150601e+01 7.665089e-01 4.196175e+00 2.048432e-01 -3.660855e+00 -1.243051e-01 -1.094609e+01 1.167417e-01 -1.851807e+01 -4.137940e-01 -2.592590e+01 3.317555e-01 -3.336096e+01 -4.173410e-01 -4.149855e+01 8.396398e-03 -4.912866e+01 3.105729e-01 -5.666452e+01 1.210395e+00 -6.367503e+01 1.587944e+00 -7.083261e+01 1.902905e+00 -7.806520e+01 2.270269e+00 -8.538511e+01 2.740041e+00 -9.282849e+01 3.286981e+00 -1.003910e+02 
2.557141e+00 -1.092553e+02 2.453829e+00 -1.168707e+02 1.770238e+00 1.140648e+02 2.794127e+00 1.068779e+02 3.336352e+00 9.990938e+01 3.699996e+00 9.306129e+01 4.076984e+00 8.593530e+01 4.655768e+00 7.881416e+01 4.942758e+00 7.158978e+01 2.008503e+00 6.364733e+01 3.344606e+00 5.628497e+01 1.387944e+00 4.818117e+01 1.471992e+00 4.127426e+01 1.195236e+00 3.355139e+01 9.928610e-01 2.749670e+01 2.624130e+00 1.990512e+01 1.297228e+00 1.232466e+01 1.915175e+00 4.775139e+00 1.892889e-01 -3.255010e+00 7.636257e-01 -1.049724e+01 -5.433815e-03 -1.856995e+01 2.237965e-01 -2.515848e+01 9.593494e-01 -3.327928e+01 3.051385e-01 -4.089459e+01 1.011736e+00 -4.909520e+01 6.071142e-01 -5.633068e+01 1.346655e+00 -6.392693e+01 1.771527e+00 -7.128359e+01 1.914197e+00 -7.856872e+01 2.067457e+00 -8.601716e+01 2.272091e+00 -9.365062e+01 2.461464e+00 -1.014314e+02 
9.063726e-01 -1.106868e+02 4.788689e-01 -1.185659e+02 -5.688172e-01 1.157844e+02 7.805012e-01 1.081771e+02 1.497313e+00 1.007578e+02 1.864126e+00 9.357746e+01 2.341060e+00 8.684904e+01 3.729035e+00 7.984568e+01 4.004295e+00 7.132883e+01 2.322944e+00 6.209984e+01 2.064200e+00 5.580376e+01 4.196616e-01 4.847376e+01 -4.069107e-01 3.990015e+01 9.948916e-01 3.372745e+01 -4.083032e-01 2.643025e+01 2.602525e+00 1.930513e+01 6.770398e-01 1.188372e+01 9.223617e-01 3.387591e+00 -1.511768e-01 -3.005689e+00 -8.813645e-01 -1.202400e+01 1.860083e-01 -1.814156e+01 -1.499845e+00 -2.642672e+01 1.258765e+00 -3.336944e+01 -1.410300e+00 -4.187115e+01 -8.685493e-02 -5.211043e+01 -7.838966e-01 -5.826357e+01 1.136142e+00 -6.450732e+01 1.193647e+00 -7.165724e+01 1.021699e+00 -7.904292e+01 1.010495e+00 -8.673302e+01 1.064405e+00 -9.462128e+01 1.060998e+00 -1.026389e+02 
-3.732654e-01 -1.116870e+02 -1.284207e+00 -1.197689e+02 -2.863737e+00 1.179482e+02 -9.812873e-01 1.100581e+02 2.151733e-01 1.024551e+02 1.035589e+00 9.542532e+01 1.936231e+00 8.941093e+01 3.338073e+00 8.383565e+01 4.295708e+00 7.257848e+01 3.630372e+00 6.345616e+01 3.371537e+00 5.563070e+01 -2.341249e-01 4.991116e+01 4.664169e-01 3.919112e+01 2.331413e-01 3.413984e+01 7.542464e-01 2.727172e+01 3.731350e+00 2.114109e+01 2.104974e+00 1.250980e+01 1.207973e+00 4.021719e+00 -7.512976e-01 -2.004954e+00 -4.272405e-01 -1.275172e+01 -8.012392e-01 -1.760607e+01 -7.132090e-01 -2.695282e+01 1.564376e+00 -3.157689e+01 3.186499e-01 -4.239579e+01 -1.255907e+00 -5.061118e+01 -5.385509e-01 -5.957445e+01 1.268565e+00 -6.498706e+01 9.844178e-01 -7.174238e+01 7.138299e-01 -7.932576e+01 6.229777e-01 -8.723692e+01 4.875356e-01 -9.530065e+01 1.817262e-01 -1.034792e+02 
-1.966214e+00 -1.129385e+02 -3.200623e+00 -1.212643e+02 -5.181546e+00 1.198422e+02 -2.803330e+00 1.117075e+02 -1.120486e+00 1.039800e+02 1.462231e-01 9.687363e+01 1.113915e+00 9.046013e+01 1.544788e+00 8.358648e+01 9.469132e-01 7.475541e+01 1.678135e+00 6.307704e+01 2.864130e+00 5.593096e+01 7.088996e-02 4.997709e+01 3.398266e-01 3.912043e+01 2.390860e-01 3.397010e+01 7.143713e-01 2.773272e+01 3.882102e+00 1.967623e+01 2.236348e+00 1.368297e+01 1.365758e+00 1.635461e+00 -8.104215e-01 -4.375069e-01 -5.273870e-03 -1.456273e+01 -1.131890e+00 -1.693535e+01 -4.304818e-01 -2.668205e+01 1.668909e+00 -3.229441e+01 9.158754e-01 -3.970823e+01 -4.085221e-01 -5.800184e+01 4.921359e-02 -6.058983e+01 -4.647302e-01 -6.254670e+01 -3.524090e-01 -7.089665e+01 -2.169548e-01 -7.952907e+01 -3.040730e-01 -8.789865e+01 -6.121381e-01 -9.619825e+01 -1.145491e+00 -1.045550e+02 
-3.169149e+00 -1.137047e+02 -4.839130e+00 -1.222065e+02 -7.351519e+00 1.220708e+02 -4.444496e+00 1.137671e+02 -2.281062e+00 1.058632e+02 -6.022598e-01 9.830700e+01 5.142749e-01 9.079935e+01 8.239944e-01 8.269841e+01 7.348032e-01 7.470706e+01 -9.695834e-01 6.431121e+01 1.858658e+00 5.655315e+01 1.428511e+00 5.008639e+01 -5.044507e-02 4.077493e+01 1.640001e+00 3.475600e+01 3.692514e-01 2.695169e+01 3.318120e+00 2.027537e+01 1.663731e+00 1.201540e+01 1.344960e+00 3.905099e+00 4.938506e-02 -2.727340e+00 -3.710658e-01 -1.239607e+01 -3.257540e-02 -1.794449e+01 -3.881480e-01 -2.692300e+01 1.715403e+00 -3.229422e+01 5.892134e-01 -4.222078e+01 2.034464e-01 -5.063427e+01 -5.296103e-01 -5.959113e+01 -6.803741e-01 -6.496836e+01 -5.409376e-01 -7.226199e+01 -4.963727e-01 -8.028608e+01 -6.903753e-01 -8.848420e+01 -1.182306e+00 -9.678867e+01 -1.991048e+00 -1.052145e+02 
-4.667882e+00 -1.147758e+02 -6.646591e+00 -1.235017e+02 -9.535125e+00 1.239398e+02 -6.286309e+00 1.153520e+02 -3.874576e+00 1.071341e+02 -2.009248e+00 9.909669e+01 -7.321168e-01 9.078536e+01 1.536621e-02 8.290838e+01 1.654234e+00 7.501268e+01 -4.807099e-01 6.663377e+01 1.716646e+00 5.810690e+01 4.783614e-01 4.952052e+01 8.674751e-01 4.206912e+01 9.681614e-01 3.425494e+01 5.098609e-01 2.764124e+01 2.839716e+00 1.994910e+01 9.590077e-01 1.211351e+01 2.028276e+00 4.193875e+00 1.787700e-02 -3.433948e+00 4.076115e-01 -1.150386e+01 8.824738e-02 -1.886304e+01 -5.041187e-01 -2.644693e+01 1.197521e+00 -3.398663e+01 -9.019409e-01 -4.260439e+01 -6.817999e-02 -5.253436e+01 -1.038506e+00 -5.895616e+01 -2.294782e-01 -6.548562e+01 -7.585155e-01 -7.297466e+01 -1.167208e+00 -8.089968e+01 -1.598626e+00 -8.914329e+01 -2.257467e+00 -9.756840e+01 -3.252926e+00 -1.061302e+02 
-5.742446e+00 -1.153326e+02 -8.103746e+00 -1.242131e+02 -1.137943e+01 1.258638e+02 -7.822846e+00 1.169886e+02 -5.129698e+00 1.083974e+02 -3.101684e+00 9.995684e+01 -1.672624e+00 9.149366e+01 -6.572511e-01 8.335838e+01 4.280434e-01 7.538951e+01 -2.912819e-01 6.686244e+01 6.822973e-01 5.852189e+01 8.708463e-01 5.026025e+01 8.514500e-01 4.263328e+01 1.244282e+00 3.487983e+01 1.069504e+00 2.778596e+01 2.008154e+00 2.006598e+01 1.338823e+00 1.227299e+01 1.494092e+00 4.536665e+00 6.830954e-01 -3.559442e+00 6.919809e-01 -1.100911e+01 5.149156e-01 -1.900914e+01 3.322871e-01 -2.603346e+01 9.370154e-01 -3.406187e+01 8.074618e-02 -4.200316e+01 4.187761e-01 -5.012989e+01 -3.951823e-01 -5.790543e+01 -8.662238e-02 -6.582290e+01 -4.689029e-01 -7.365460e+01 -1.104288e+00 -8.155350e+01 -1.813974e+00 -8.968924e+01 -2.731952e+00 -9.805859e+01 -4.003736e+00 -1.066235e+02 
-7.091379e+00 -1.162401e+02 -9.735087e+00 -1.253251e+02 -1.338520e+01 1.274578e+02 -9.539477e+00 1.182966e+02 -6.585356e+00 1.093779e+02 -4.313882e+00 1.006137e+02 -2.616125e+00 9.202763e+01 -1.187843e+00 8.386561e+01 1.264519e-01 7.562999e+01 -4.807104e-01 6.764732e+01 4.060638e-01 5.923055e+01 3.430567e-01 5.069655e+01 7.630916e-01 4.292748e+01 8.681840e-01 3.504254e+01 8.933638e-01 2.771880e+01 1.629960e+00 2.000954e+01 1.088544e+00 1.213695e+01 1.347554e+00 4.408943e+00 5.613949e-01 -3.651637e+00 5.212143e-01 -1.123436e+01 2.900453e-01 -1.916272e+01 -5.248676e-02 -2.667094e+01 3.096122e-01 -3.459314e+01 -6.278040e-01 -4.282554e+01 -5.216870e-01 -5.090597e+01 -8.574414e-01 -5.872145e+01 -5.568052e-01 -6.635306e+01 -1.001831e+00 -7.414895e+01 -1.729971e+00 -8.212001e+01 -2.598338e+00 -9.031934e+01 -3.688124e+00 -9.875459e+01 -5.139743e+00 -1.074040e+02 
-8.006302e+00 -1.166055e+02 -1.102300e+01 -1.258094e+02 -1.513181e+01 1.289891e+02 -1.097242e+01 1.196247e+02 -7.763580e+00 1.105056e+02 -5.268249e+00 1.015906e+02 -3.350011e+00 9.289138e+01 -1.881311e+00 8.446761e+01 -7.963253e-01 7.614008e+01 -5.400849e-01 6.785820e+01 4.337879e-02 5.952564e+01 4.383492e-01 5.128950e+01 7.532775e-01 4.333945e+01 9.864313e-01 3.551617e+01 1.130605e+00 2.794397e+01 1.407135e+00 2.016667e+01 1.268769e+00 1.239625e+01 1.256365e+00 4.514253e+00 8.904882e-01 -3.376775e+00 8.205635e-01 -1.110793e+01 5.943505e-01 -1.890726e+01 4.954998e-01 -2.643774e+01 4.529859e-01 -3.433097e+01 8.139619e-02 -4.216323e+01 -1.586707e-02 -5.017086e+01 -4.322058e-01 -5.807590e+01 -5.656262e-01 -6.614843e+01 -9.666776e-01 -7.427726e+01 -1.713863e+00 -8.241322e+01 -2.734016e+00 -9.065379e+01 -4.044438e+00 -9.908096e+01 -5.753362e+00 -1.077268e+02 
-9.182975e+00 -1.173699e+02 -1.245628e+01 -1.267440e+02 -1.690051e+01 1.303082e+02 -1.246385e+01 1.207232e+02 -9.009156e+00 1.113957e+02 -6.288709e+00 1.023127e+02 -4.142981e+00 9.349709e+01 -2.435918e+00 8.495354e+01 -1.189555e+00 7.655796e+01 -8.697946e-01 6.830675e+01 -2.631624e-01 5.997627e+01 7.162867e-02 5.161342e+01 4.848758e-01 4.355555e+01 7.084110e-01 3.561502e+01 8.684897e-01 2.788850e+01 1.147018e+00 2.010731e+01 1.028133e+00 1.224127e+01 1.046180e+00 4.400723e+00 7.002508e-01 -3.545481e+00 5.516942e-01 -1.132448e+01 3.118063e-01 -1.917993e+01 6.056355e-02 -2.692035e+01 -5.481327e-02 -3.481609e+01 -5.346670e-01 -4.284103e+01 -7.047932e-01 -5.082333e+01 -9.690608e-01 -5.880710e+01 -1.091314e+00 -6.676327e+01 -1.561185e+00 -7.479934e+01 -2.364199e+00 -8.293591e+01 -3.464778e+00 -9.121409e+01 -4.891404e+00 -9.968590e+01 -6.745120e+00 -1.083899e+02 
-9.931521e+00 -1.175473e+02 -1.355452e+01 -1.270082e+02 -1.846342e+01 1.315388e+02 -1.370266e+01 1.218351e+02 -9.999479e+00 1.124033e+02 -7.076720e+00 1.032191e+02 -4.780142e+00 9.428258e+01 -3.016517e+00 8.557592e+01 -1.737481e+00 7.704827e+01 -1.001584e+00 6.865106e+01 -3.919821e-01 6.030662e+01 1.170987e-01 5.203420e+01 5.299120e-01 4.391031e+01 8.056006e-01 3.595976e+01 1.019100e+00 2.814262e+01 1.167550e+00 2.032687e+01 1.186447e+00 1.248367e+01 1.145049e+00 4.592035e+00 9.654851e-01 -3.298405e+00 8.410833e-01 -1.113036e+01 6.381871e-01 -1.892583e+01 4.908873e-01 -2.666107e+01 2.900838e-01 -3.448936e+01 1.943633e-02 -4.237552e+01 -2.436374e-01 -5.034847e+01 -6.198148e-01 -5.836373e+01 -9.998530e-01 -6.649028e+01 -1.538277e+00 -7.471273e+01 -2.380868e+00 -8.298526e+01 -3.578347e+00 -9.133255e+01 -5.165122e+00 -9.982489e+01 -7.228768e+00 -1.085348e+02 
-1.092993e+01 -1.181841e+02 -1.476752e+01 -1.277799e+02 -1.996109e+01 1.326109e+02 -1.494607e+01 1.227456e+02 -1.102852e+01 1.131721e+02 -7.919707e+00 1.038617e+02 -5.449405e+00 9.481436e+01 -3.519355e+00 8.601432e+01 -2.128223e+00 7.741512e+01 -1.357409e+00 6.898824e+01 -7.098515e-01 6.059247e+01 -2.043953e-01 5.222850e+01 2.504762e-01 4.402625e+01 5.334165e-01 3.597910e+01 7.525850e-01 2.808505e+01 9.246669e-01 2.023050e+01 9.431924e-01 1.234588e+01 9.176940e-01 4.446977e+00 7.190692e-01 -3.485057e+00 5.511522e-01 -1.135925e+01 3.082951e-01 -1.922888e+01 7.322041e-02 -2.706238e+01 -1.788082e-01 -3.495739e+01 -5.284136e-01 -4.293675e+01 -8.190103e-01 -5.094242e+01 -1.152196e+00 -5.898989e+01 -1.517006e+00 -6.708054e+01 -2.094380e+00 -7.524387e+01 -2.989907e+00 -8.348574e+01 -4.247815e+00 -9.183312e+01 -5.913284e+00 -1.003447e+02 -8.081248e+00 -1.090932e+02 
-1.150485e+01 -1.181860e+02 -1.564123e+01 -1.278423e+02 -2.123862e+01 1.335721e+02 -1.593389e+01 1.236349e+02 -1.180161e+01 1.139980e+02 -8.534115e+00 1.046142e+02 -5.946990e+00 9.548099e+01 -3.925400e+00 8.656831e+01 -2.434884e+00 7.784633e+01 -1.402055e+00 6.938591e+01 -7.420281e-01 6.094594e+01 -1.329609e-01 5.257945e+01 3.471462e-01 4.429126e+01 6.329645e-01 3.624044e+01 9.122706e-01 2.832443e+01 1.033453e+00 2.047493e+01 1.157292e+00 1.261705e+01 1.105483e+00 4.666952e+00 9.880639e-01 -3.230633e+00 8.436653e-01 -1.115547e+01 6.217369e-01 -1.898294e+01 4.743018e-01 -2.680416e+01 1.988903e-01 -3.463373e+01 -1.422003e-02 -4.253727e+01 -3.872066e-01 -5.055679e+01 -7.934662e-01 -5.860429e+01 -1.366579e+00 -6.677953e+01 -2.020190e+00 -7.506840e+01 -2.971381e+00 -8.339832e+01 -4.317946e+00 -9.178926e+01 -6.108841e+00 -1.003168e+02 -8.440188e+00 -1.090718e+02 
-1.231348e+01 -1.187133e+02 -1.660755e+01 -1.284727e+02 -2.242708e+01 1.343859e+02 -1.690965e+01 1.243328e+02 -1.260495e+01 1.145937e+02 -9.194117e+00 1.051091e+02 -6.483702e+00 9.588975e+01 -4.340103e+00 8.691629e+01 -2.769554e+00 7.809773e+01 -1.751820e+00 6.962034e+01 -1.041801e+00 6.109301e+01 -4.281481e-01 5.263769e+01 9.131859e-02 4.430416e+01 3.549647e-01 3.617042e+01 6.387044e-01 2.823241e+01 7.918887e-01 2.034677e+01 9.020173e-01 1.247570e+01 8.829552e-01 4.507350e+00 7.013369e-01 -3.432451e+00 5.530352e-01 -1.138345e+01 2.641687e-01 -1.929394e+01 7.111534e-02 -2.715832e+01 -2.461281e-01 -3.507433e+01 -5.288663e-01 -4.303446e+01 -8.939983e-01 -5.110236e+01 -1.317418e+00 -5.917220e+01 -1.852511e+00 -6.734064e+01 -2.508823e+00 -7.558176e+01 -3.504968e+00 -8.386227e+01 -4.903409e+00 -9.222785e+01 -6.749114e+00 -1.007575e+02 -9.148421e+00 -1.095389e+02 
-1.269591e+01 -1.185682e+02 -1.722286e+01 -1.283616e+02 -2.337495e+01 1.350490e+02 -1.761361e+01 1.249700e+02 -1.314015e+01 1.152096e+02 -9.612232e+00 1.056788e+02 -6.818189e+00 9.641362e+01 -4.570314e+00 8.738857e+01 -2.895934e+00 7.841036e+01 -1.620606e+00 7.007550e+01 -9.954458e-01 6.142125e+01 -2.803452e-01 5.294955e+01 2.364549e-01 4.443538e+01 4.277756e-01 3.635272e+01 8.389714e-01 2.844002e+01 9.178729e-01 2.059818e+01 1.228542e+00 1.283010e+01 1.124653e+00 4.699244e+00 9.964892e-01 -3.125355e+00 8.442005e-01 -1.122218e+01 5.286915e-01 -1.904281e+01 4.791470e-01 -2.691771e+01 8.962506e-02 -3.475775e+01 4.342031e-02 -4.261030e+01 -4.678678e-01 -5.079302e+01 -8.832519e-01 -5.877939e+01 -1.676138e+00 -6.701619e+01 -2.368060e+00 -7.536988e+01 -3.428767e+00 -8.367941e+01 -4.914990e+00 -9.205051e+01 -6.855019e+00 -1.005888e+02 -9.370553e+00 -1.093788e+02 
-1.329496e+01 -1.190080e+02 -1.791383e+01 -1.288749e+02 -2.421355e+01 1.355676e+02 -1.829811e+01 1.254178e+02 -1.370855e+01 1.156011e+02 -1.008176e+01 1.060022e+02 -7.211652e+00 9.666249e+01 -4.887371e+00 8.765104e+01 -3.111465e+00 7.853393e+01 -1.981283e+00 7.017812e+01 -1.225586e+00 6.140023e+01 -5.547614e-01 5.281914e+01 9.861026e-03 4.438743e+01 1.354523e-01 3.615393e+01 5.247310e-01 2.830512e+01 6.977899e-01 2.044173e+01 9.363454e-01 1.266479e+01 9.580756e-01 4.566966e+00 6.505906e-01 -3.378302e+00 5.771404e-01 -1.139296e+01 1.483030e-01 -1.939824e+01 7.012792e-02 -2.719583e+01 -3.131677e-01 -3.517798e+01 -4.888380e-01 -4.307524e+01 -8.876309e-01 -5.131864e+01 -1.436998e+00 -5.934946e+01 -2.112525e+00 -6.759200e+01 -2.772401e+00 -7.584072e+01 -3.886788e+00 -8.406459e+01 -5.410860e+00 -9.240466e+01 -7.374679e+00 -1.009517e+02 -9.918689e+00 -1.097705e+02 
-1.345350e+01 -1.187542e+02 -1.822972e+01 -1.286268e+02 -2.478329e+01 1.358745e+02 -1.868975e+01 1.257484e+02 -1.399503e+01 1.159830e+02 -1.028803e+01 1.064063e+02 -7.375916e+00 9.702692e+01 -4.992751e+00 8.810278e+01 -3.087665e+00 7.873310e+01 -1.652708e+00 7.074063e+01 -9.967047e-01 6.156100e+01 -2.573207e-01 5.306529e+01 1.324654e-01 4.436654e+01 1.211916e-01 3.621162e+01 7.292323e-01 2.847732e+01 8.204024e-01 2.069571e+01 1.446556e+00 1.319753e+01 1.276800e+00 4.671877e+00 9.758435e-01 -2.995012e+00 8.166123e-01 -1.128486e+01 3.392169e-01 -1.917239e+01 4.556823e-01 -2.693374e+01 -3.022324e-02 -3.486486e+01 2.266436e-01 -4.251238e+01 -4.051144e-01 -5.117626e+01 -8.965880e-01 -5.892307e+01 -1.896199e+00 -6.733750e+01 -2.587026e+00 -7.557800e+01 -3.800763e+00 -8.373526e+01 -5.370442e+00 -9.208851e+01 -7.368551e+00 -1.006712e+02 -9.975102e+00 -1.095104e+02 
-1.381626e+01 -1.191287e+02 -1.861235e+01 -1.290466e+02 -2.521763e+01 1.360517e+02 -1.905190e+01 1.258909e+02 -1.431789e+01 1.161145e+02 -1.057906e+01 1.065462e+02 -7.615122e+00 9.716791e+01 -5.225454e+00 8.825483e+01 -3.249468e+00 7.912412e+01 -2.104971e+00 7.018035e+01 -1.182803e+00 6.127012e+01 -5.034729e-01 5.283101e+01 -1.163515e-01 4.419369e+01 -1.947412e-01 3.600976e+01 3.389313e-01 2.803708e+01 5.775711e-01 2.073714e+01 1.139857e+00 1.282846e+01 1.145830e+00 4.712287e+00 5.757409e-01 -3.355999e+00 5.395149e-01 -1.144516e+01 -2.821056e-02 -1.947585e+01 -2.288918e-02 -2.735809e+01 -3.841614e-01 -3.494014e+01 -3.834590e-01 -4.314833e+01 -7.009729e-01 -5.164133e+01 -1.559258e+00 -5.984981e+01 -2.329421e+00 -6.792703e+01 -2.964357e+00 -7.587420e+01 -4.221742e+00 -8.396016e+01 -5.770296e+00 -9.234162e+01 -7.742714e+00 -1.009695e+02 -1.033660e+01 -1.098476e+02 
-1.371660e+01 -1.187978e+02 -1.857781e+01 -1.286982e+02 -2.526817e+01 1.359889e+02 -1.908586e+01 1.258253e+02 -1.435775e+01 1.160756e+02 -1.060664e+01 1.067033e+02 -7.541228e+00 9.759831e+01 -5.274820e+00 8.847218e+01 -3.391953e+00 8.056630e+01 -1.523042e+00 6.966419e+01 -3.574456e-01 6.100509e+01 2.362754e-01 5.336949e+01 -6.995092e-01 4.373016e+01 -5.314228e-02 3.635722e+01 1.415891e-01 2.744167e+01 7.670571e-01 2.170999e+01 2.088300e+00 1.313151e+01 1.380674e+00 5.022110e+00 1.360265e+00 -3.032985e+00 9.112264e-02 -1.153400e+01 5.345489e-01 -1.896573e+01 -2.368787e-01 -2.771512e+01 2.437693e-02 -3.370140e+01 5.700066e-01 -4.279469e+01 -4.857894e-02 -5.132136e+01 -9.769559e-01 -6.028815e+01 -1.824053e+00 -6.781041e+01 -3.179355e+00 -7.504889e+01 -4.218649e+00 -8.338442e+01 -5.620453e+00 -9.195566e+01 -7.568026e+00 -1.006455e+02 -1.018925e+01 -1.095303e+02 
-1.382335e+01 -1.191186e+02 -1.862552e+01 -1.290387e+02 -2.524711e+01 1.358134e+02 -1.910343e+01 1.256266e+02 -1.441538e+01 1.158756e+02 -1.067458e+01 1.065901e+02 -7.556411e+00 9.761521e+01 -5.310725e+00 8.844906e+01 -3.457018e+00 8.118880e+01 -9.859162e-01 6.915272e+01 -1.265409e-01 6.036318e+01 3.331624e-01 5.374784e+01 -1.389090e+00 4.285122e+01 -3.609556e-01 3.654905e+01 -2.594990e-01 2.657764e+01 5.297529e-01 2.204219e+01 2.201520e+00 1.291986e+01 1.087574e+00 4.697440e+00 1.238659e+00 -3.039307e+00 -5.391965e-01 -1.217287e+01 2.872274e-01 -1.882447e+01 -7.543309e-01 -2.846316e+01 -2.864011e-01 -3.334326e+01 4.303610e-01 -4.323703e+01 -3.274897e-01 -5.183561e+01 -1.257896e+00 -6.147064e+01 -1.981866e+00 -6.795598e+01 -3.547275e+00 -7.497968e+01 -4.512726e+00 -8.349618e+01 -5.849812e+00 -9.217544e+01 -7.758897e+00 -1.009146e+02 -1.034273e+01 -1.098284e+02 