# vtk DataFile Version 2.0
Comment goes here
ASCII

DATASET STRUCTURED_POINTS
FIELD FieldData 1
TIME 1 1 double
0.06600000
DIMENSIONS    64   64   1

ORIGIN    0.000   0.000   0.000
SPACING   0.03125 0.03125   1.000

POINT_DATA   4096
SCALARS P double
LOOKUP_TABLE default

-3.050055e+01 -2.145539e+02 -4.103527e+01 -2.118520e+02 8.472023e+01 1.350263e+02 -3.762830e+01 1.252310e+02 -4.109568e+01 1.097624e+02 -3.644334e+01 8.872616e+01 -2.831661e+01 6.802053e+01 -2.110008e+01 5.063753e+01 -1.905978e+01 3.841161e+01 -2.108517e+01 2.963292e+01 -2.588624e+01 2.107008e+01 -2.991104e+01 1.141054e+01 -3.403065e+01 1.754192e+00 -3.878487e+01 -6.616121e+00 -4.679798e+01 -9.910766e+00 -5.912523e+01 -1.385791e+01 -6.683659e+01 -2.367603e+01 -6.736977e+01 -4.046447e+01 -6.229787e+01 -5.889014e+01 -5.882345e+01 -7.469319e+01 -5.926794e+01 -8.500026e+01 -6.354586e+01 -9.413667e+01 -6.758669e+01 -1.038809e+02 -6.986983e+01 -1.156864e+02 -7.216268e+01 -1.246555e+02 -7.745177e+01 -1.317968e+02 -8.272198e+01 -1.411486e+02 -8.125303e+01 -1.553810e+02 -7.934205e+01 -1.651932e+02 -8.036133e+01 -1.746951e+02 -7.605951e+01 -1.901096e+02 -6.116300e+01 -2.205290e+02 
1.088475e+00 -1.384799e+02 -5.475478e+00 -1.389632e+02 8.805745e+01 1.186487e+02 -3.858649e+00 1.116731e+02 -7.670514e+00 1.021406e+02 -6.996303e+00 8.968822e+01 -4.412325e+00 7.742429e+01 -2.122301e+00 6.665591e+01 -2.135340e+00 5.812600e+01 -3.743596e+00 5.107057e+01 -6.458361e+00 4.378641e+01 -8.309628e+00 3.563630e+01 -9.950077e+00 2.729910e+01 -1.163633e+01 1.947636e+01 -1.493544e+01 1.448344e+01 -2.066964e+01 9.123649e+00 -2.396392e+01 8.777699e-01 -2.373974e+01 -1.082443e+01 -2.081903e+01 -2.323545e+01 -1.904271e+01 -3.420771e+01 -1.929557e+01 -4.211028e+01 -2.145358e+01 -4.969338e+01 -2.337203e+01 -5.758369e+01 -2.429500e+01 -6.660734e+01 -2.511811e+01 -7.405744e+01 -2.757684e+01 -8.039487e+01 -3.012362e+01 -8.779648e+01 -2.873368e+01 -9.796498e+01 -2.720685e+01 -1.052694e+02 -2.759528e+01 -1.120354e+02 -2.530456e+01 -1.216360e+02 -1.744472e+01 -1.411562e+02 
1.444730e+01 -9.123219e+01 1.393849e+01 -9.337170e+01 4.556343e+01 1.018100e+02 1.434565e+01 9.801326e+01 1.178663e+01 9.317301e+01 1.013680e+01 8.734545e+01 8.956538e+00 8.124551e+01 7.899267e+00 7.503851e+01 6.724725e+00 6.874974e+01 5.621482e+00 6.238816e+01 4.560865e+00 5.572719e+01 3.913868e+00 4.870376e+01 3.424107e+00 4.152178e+01 3.110162e+00 3.426266e+01 2.622355e+00 2.743957e+01 1.692667e+00 2.047756e+01 1.259915e+00 1.312477e+01 1.309855e+00 5.293267e+00 1.684434e+00 -2.499649e+00 1.787064e+00 -9.960342e+00 1.596238e+00 -1.682496e+01 1.158233e+00 -2.375228e+01 8.827761e-01 -3.058429e+01 8.668064e-01 -3.756193e+01 1.086956e+00 -4.424833e+01 1.231602e+00 -5.066412e+01 1.446363e+00 -5.713828e+01 2.627690e+00 -6.409956e+01 3.941717e+00 -7.020517e+01 4.934995e+00 -7.583979e+01 6.473417e+00 -8.146070e+01 9.006313e+00 -8.945221e+01 
1.259744e+01 -9.483093e+01 1.457531e+01 -9.772458e+01 1.797963e+01 1.053208e+02 1.451537e+01 1.009622e+02 1.155317e+01 9.544764e+01 9.600862e+00 8.915081e+01 8.270663e+00 8.255965e+01 7.176512e+00 7.592219e+01 6.109875e+00 6.929669e+01 5.086596e+00 6.265007e+01 4.138696e+00 5.581027e+01 3.459299e+00 4.871312e+01 2.962845e+00 4.148038e+01 2.541004e+00 3.427218e+01 1.968407e+00 2.728991e+01 1.238549e+00 2.018697e+01 8.354369e-01 1.268138e+01 8.642218e-01 4.761495e+00 1.171515e+00 -3.196040e+00 1.334887e+00 -1.086923e+01 1.212513e+00 -1.809932e+01 8.743464e-01 -2.519335e+01 5.627103e-01 -3.221910e+01 3.631366e-01 -3.924933e+01 2.434687e-01 -4.606334e+01 1.169620e-01 -5.266572e+01 1.971412e-01 -5.929091e+01 9.383201e-01 -6.605790e+01 1.981808e+00 -7.238971e+01 3.159493e+00 -7.845283e+01 5.014716e+00 -8.464587e+01 8.012518e+00 -9.120997e+01 
1.212856e+01 -9.192976e+01 1.409786e+01 -9.518600e+01 1.715275e+01 1.017111e+02 1.426302e+01 9.791598e+01 1.179289e+01 9.308324e+01 9.976885e+00 8.750809e+01 8.601371e+00 8.153473e+01 7.448354e+00 7.533622e+01 6.379973e+00 6.897504e+01 5.408179e+00 6.244671e+01 4.557334e+00 5.570131e+01 3.910777e+00 4.874542e+01 3.398635e+00 4.164567e+01 2.974950e+00 3.448692e+01 2.509833e+00 2.739868e+01 1.980223e+00 2.022413e+01 1.637787e+00 1.285573e+01 1.524382e+00 5.306484e+00 1.550903e+00 -2.236289e+00 1.517407e+00 -9.605501e+00 1.372557e+00 -1.672932e+01 1.156550e+00 -2.376882e+01 1.014619e+00 -3.074341e+01 1.016602e+00 -3.769164e+01 1.165441e+00 -4.450463e+01 1.414346e+00 -5.118172e+01 1.863171e+00 -5.780982e+01 2.726956e+00 -6.442427e+01 3.816046e+00 -7.068177e+01 5.043202e+00 -7.661817e+01 6.687122e+00 -8.240054e+01 8.955153e+00 -8.814106e+01 
1.072437e+01 -9.605271e+01 1.332255e+01 -1.000443e+02 1.594504e+01 1.042282e+02 1.363709e+01 1.002515e+02 1.121459e+01 9.511260e+01 9.310723e+00 8.919175e+01 7.878043e+00 8.284936e+01 6.719056e+00 7.630111e+01 5.697877e+00 6.963670e+01 4.782379e+00 6.285125e+01 3.990484e+00 5.591758e+01 3.363635e+00 4.883027e+01 2.849896e+00 4.164032e+01 2.395809e+00 3.441720e+01 1.918085e+00 2.720378e+01 1.447216e+00 1.989374e+01 1.131125e+00 1.238673e+01 1.016999e+00 4.703858e+00 1.035610e+00 -2.998790e+00 1.017031e+00 -1.056360e+01 8.957667e-01 -1.792164e+01 6.835119e-01 -2.515263e+01 4.780397e-01 -3.230394e+01 3.341344e-01 -3.939327e+01 2.768429e-01 -4.636029e+01 3.381995e-01 -5.319890e+01 6.186242e-01 -5.996541e+01 1.257617e+00 -6.666491e+01 2.205717e+00 -7.314647e+01 3.467901e+00 -7.942173e+01 5.245618e+00 -8.554668e+01 7.696298e+00 -9.137035e+01 
1.053014e+01 -9.421398e+01 1.267164e+01 -9.862872e+01 1.498437e+01 1.019977e+02 1.311678e+01 9.800959e+01 1.112285e+01 9.323876e+01 9.454575e+00 8.779468e+01 8.127556e+00 8.190020e+01 7.022883e+00 7.570851e+01 6.042201e+00 6.929786e+01 5.161893e+00 6.266812e+01 4.428030e+00 5.585731e+01 3.843210e+00 4.888862e+01 3.354556e+00 4.180369e+01 2.934049e+00 3.463604e+01 2.515286e+00 2.742667e+01 2.120375e+00 2.014313e+01 1.810019e+00 1.275622e+01 1.621507e+00 5.300605e+00 1.506625e+00 -2.146926e+00 1.397047e+00 -9.496304e+00 1.265100e+00 -1.672584e+01 1.123368e+00 -2.387161e+01 1.044833e+00 -3.095719e+01 1.057210e+00 -3.798724e+01 1.198837e+00 -4.492604e+01 1.468946e+00 -5.177195e+01 1.945837e+00 -5.852950e+01 2.685047e+00 -6.517089e+01 3.644669e+00 -7.158844e+01 4.823956e+00 -7.776463e+01 6.325985e+00 -8.371439e+01 8.232353e+00 -8.934290e+01 
9.092810e+00 -9.843868e+01 1.133710e+01 -1.034083e+02 1.345417e+01 1.046960e+02 1.194783e+01 1.002656e+02 1.020189e+01 9.517071e+01 8.621426e+00 8.942425e+01 7.325346e+00 8.322041e+01 6.243331e+00 7.672698e+01 5.296721e+00 7.004587e+01 4.456424e+00 6.316175e+01 3.768678e+00 5.614813e+01 3.227111e+00 4.902381e+01 2.745875e+00 4.181569e+01 2.330260e+00 3.453896e+01 1.911382e+00 2.720013e+01 1.535084e+00 1.977973e+01 1.244525e+00 1.225193e+01 1.056518e+00 4.653179e+00 9.533499e-01 -2.950232e+00 8.359880e-01 -1.047629e+01 7.054979e-01 -1.789542e+01 5.236695e-01 -2.522969e+01 3.674471e-01 -3.249648e+01 2.577057e-01 -3.970441e+01 2.474844e-01 -4.682204e+01 4.037186e-01 -5.383487e+01 7.554071e-01 -6.074544e+01 1.350163e+00 -6.754931e+01 2.205978e+00 -7.420080e+01 3.358239e+00 -8.068440e+01 4.887943e+00 -8.697999e+01 6.833990e+00 -9.297757e+01 
8.846792e+00 -9.719877e+01 1.061599e+01 -1.025448e+02 1.240330e+01 1.036379e+02 1.123537e+01 9.893679e+01 9.884608e+00 9.389518e+01 8.604710e+00 8.838376e+01 7.507904e+00 8.246274e+01 6.557094e+00 7.623150e+01 5.690588e+00 6.977546e+01 4.863095e+00 6.302664e+01 4.234224e+00 5.613377e+01 3.742532e+00 4.911620e+01 3.309856e+00 4.201924e+01 2.940146e+00 3.480822e+01 2.546723e+00 2.751495e+01 2.208356e+00 2.015006e+01 1.887641e+00 1.271942e+01 1.667203e+00 5.278350e+00 1.481691e+00 -2.157085e+00 1.335410e+00 -9.512320e+00 1.204774e+00 -1.681743e+01 1.075471e+00 -2.405451e+01 1.024769e+00 -3.125445e+01 1.018720e+00 -3.839969e+01 1.156355e+00 -4.547098e+01 1.385571e+00 -5.247626e+01 1.832358e+00 -5.939422e+01 2.485262e+00 -6.618315e+01 3.315754e+00 -7.280139e+01 4.337452e+00 -7.924061e+01 5.595716e+00 -8.549624e+01 7.114398e+00 -9.151735e+01 
7.306736e+00 -1.012893e+02 9.004308e+00 -1.070762e+02 1.058685e+01 1.065237e+02 9.738668e+00 1.013390e+02 8.681895e+00 9.589686e+01 7.598405e+00 9.005215e+01 6.613332e+00 8.382204e+01 5.715862e+00 7.729713e+01 4.888278e+00 7.060289e+01 4.083654e+00 6.356594e+01 3.496959e+00 5.645822e+01 3.084213e+00 4.927457e+01 2.645333e+00 4.204002e+01 2.311688e+00 3.470477e+01 1.908070e+00 2.726627e+01 1.568471e+00 1.976181e+01 1.269731e+00 1.218255e+01 1.033966e+00 4.600314e+00 8.899463e-01 -2.987032e+00 7.046754e-01 -1.050911e+01 5.885989e-01 -1.798029e+01 3.811091e-01 -2.541027e+01 2.465076e-01 -3.279299e+01 1.265002e-01 -4.014651e+01 1.192822e-01 -4.742003e+01 3.258813e-01 -5.459837e+01 6.999452e-01 -6.165710e+01 1.241011e+00 -6.861102e+01 1.976772e+00 -7.545054e+01 2.939094e+00 -8.217067e+01 4.162487e+00 -8.875629e+01 5.644435e+00 -9.515581e+01 
6.953188e+00 -1.003595e+02 8.200571e+00 -1.064785e+02 9.396152e+00 1.062854e+02 8.886093e+00 1.007836e+02 8.210719e+00 9.522630e+01 7.468652e+00 8.943231e+01 6.755621e+00 8.333205e+01 6.055746e+00 7.696525e+01 5.354556e+00 7.047659e+01 4.480766e+00 6.349101e+01 3.987631e+00 5.649076e+01 3.626569e+00 4.939662e+01 3.267829e+00 4.232008e+01 3.001045e+00 3.504161e+01 2.580277e+00 2.766217e+01 2.293553e+00 2.021076e+01 1.894193e+00 1.269940e+01 1.687802e+00 5.245845e+00 1.435152e+00 -2.238375e+00 1.291318e+00 -9.587522e+00 1.170194e+00 -1.698701e+01 1.008114e+00 -2.429959e+01 9.878630e-01 -3.163965e+01 8.975896e-01 -3.891277e+01 1.056245e+00 -4.612254e+01 1.158552e+00 -5.329752e+01 1.565808e+00 -6.040592e+01 2.141696e+00 -6.737179e+01 2.824287e+00 -7.419239e+01 3.637767e+00 -8.089831e+01 4.607664e+00 -8.750617e+01 5.729115e+00 -9.400380e+01 
5.339180e+00 -1.041998e+02 6.432472e+00 -1.106872e+02 7.367193e+00 1.092797e+02 7.174150e+00 1.033298e+02 6.798520e+00 9.735428e+01 6.311196e+00 9.120145e+01 5.786568e+00 8.476782e+01 5.172580e+00 7.806525e+01 4.524639e+00 7.141629e+01 3.631802e+00 6.399998e+01 3.148886e+00 5.680325e+01 2.965274e+00 4.956184e+01 2.524035e+00 4.233905e+01 2.375465e+00 3.495686e+01 1.895864e+00 2.738447e+01 1.583614e+00 1.981221e+01 1.232057e+00 1.212485e+01 9.503217e-01 4.550732e+00 8.371589e-01 -3.082841e+00 5.634949e-01 -1.060602e+01 5.540189e-01 -1.813013e+01 2.290316e-01 -2.567851e+01 1.376387e-01 -3.317259e+01 -7.496363e-02 -4.071318e+01 -1.285415e-01 -4.815067e+01 1.089320e-01 -5.550454e+01 4.975604e-01 -6.268558e+01 9.683262e-01 -6.977182e+01 1.556348e+00 -7.678064e+01 2.291697e+00 -8.373563e+01 3.189903e+00 -9.064108e+01 4.228295e+00 -9.747550e+01 
4.889248e+00 -1.034083e+02 5.551180e+00 -1.101846e+02 6.029635e+00 1.095795e+02 6.206368e+00 1.033387e+02 6.201162e+00 9.720722e+01 6.079466e+00 9.101962e+01 5.907633e+00 8.459822e+01 5.599620e+00 7.792824e+01 5.181845e+00 7.152324e+01 3.935509e+00 6.391835e+01 3.657323e+00 5.686960e+01 3.495511e+00 4.968146e+01 3.214942e+00 4.275795e+01 3.194280e+00 3.538074e+01 2.589817e+00 2.784107e+01 2.441373e+00 2.033735e+01 1.773923e+00 1.264084e+01 1.712162e+00 5.240733e+00 1.306749e+00 -2.409283e+00 1.244779e+00 -9.649905e+00 1.183378e+00 -1.722070e+01 8.997870e-01 -2.458052e+01 9.983679e-01 -3.210410e+01 6.459597e-01 -3.953991e+01 9.689955e-01 -4.686985e+01 7.467241e-01 -5.425235e+01 1.171067e+00 -6.156576e+01 1.676033e+00 -6.865369e+01 2.186695e+00 -7.562278e+01 2.770839e+00 -8.256972e+01 3.440041e+00 -8.952288e+01 4.164783e+00 -9.647698e+01 
3.246126e+00 -1.069502e+02 3.707060e+00 -1.140402e+02 3.869720e+00 1.126126e+02 4.363890e+00 1.059682e+02 4.623522e+00 9.943439e+01 4.748133e+00 9.290200e+01 4.835550e+00 8.617693e+01 4.736775e+00 7.906665e+01 4.465242e+00 7.259733e+01 3.015085e+00 6.417750e+01 2.570020e+00 5.709714e+01 2.908360e+00 4.993162e+01 2.313893e+00 4.270679e+01 2.658730e+00 3.540409e+01 1.853925e+00 2.746868e+01 1.611271e+00 1.995839e+01 1.109800e+00 1.201937e+01 7.585273e-01 4.515520e+00 8.082836e-01 -3.201213e+00 3.173744e-01 -1.076236e+01 7.078572e-01 -1.824656e+01 -3.413753e-03 -2.606019e+01 1.288245e-01 -3.358045e+01 -3.958805e-01 -4.141567e+01 -4.982767e-01 -4.908083e+01 -2.931608e-01 -5.662138e+01 1.968417e-01 -6.380505e+01 5.754035e-01 -7.092777e+01 9.825999e-01 -7.805174e+01 1.476962e+00 -8.522960e+01 2.054260e+00 -9.245670e+01 2.667753e+00 -9.970856e+01 
2.736296e+00 -1.061982e+02 2.787005e+00 -1.135351e+02 2.458720e+00 1.132140e+02 3.342199e+00 1.063153e+02 3.919062e+00 9.965318e+01 4.344997e+00 9.312999e+01 4.772654e+00 8.644055e+01 5.254114e+00 7.939290e+01 5.710686e+00 7.268700e+01 2.771387e+00 6.389267e+01 3.092722e+00 5.712042e+01 3.256533e+00 5.006176e+01 3.144360e+00 4.329560e+01 3.719724e+00 3.605514e+01 2.539623e+00 2.779806e+01 2.747439e+00 2.070130e+01 1.347077e+00 1.239505e+01 1.783896e+00 5.345789e+00 9.616477e-01 -2.691723e+00 1.167374e+00 -9.713565e+00 1.320574e+00 -1.738266e+01 7.376130e-01 -2.503516e+01 1.136106e+00 -3.244269e+01 1.960656e-01 -4.040207e+01 9.860832e-01 -4.770849e+01 6.774569e-02 -5.555650e+01 6.732194e-01 -6.286430e+01 1.076697e+00 -6.986339e+01 1.407585e+00 -7.691758e+01 1.780208e+00 -8.410595e+01 2.164219e+00 -9.139970e+01 2.504418e+00 -9.877345e+01 
1.111181e+00 -1.094333e+02 9.421728e-01 -1.170390e+02 3.172878e-01 1.162347e+02 1.512341e+00 1.089689e+02 2.296415e+00 1.019034e+02 2.813689e+00 9.497088e+01 3.263602e+00 8.816473e+01 4.223845e+00 8.160949e+01 5.057597e+00 7.229111e+01 1.316748e+00 6.399409e+01 1.309318e+00 5.676615e+01 2.544342e+00 5.102915e+01 1.992391e+00 4.282067e+01 3.420745e+00 3.608087e+01 1.747796e+00 2.755754e+01 1.700933e+00 1.968008e+01 5.846682e-01 1.239433e+01 2.860641e-01 3.800135e+00 5.228912e-01 -2.710559e+00 -3.546555e-01 -1.145249e+01 1.244219e+00 -1.807822e+01 -5.309206e-01 -2.658872e+01 4.861043e-01 -3.427286e+01 -9.726661e-01 -4.167673e+01 -1.019041e+00 -5.112557e+01 -1.167281e+00 -5.807434e+01 -8.164867e-02 -6.486695e+01 5.741748e-02 -7.183651e+01 2.559477e-01 -7.908744e+01 5.470949e-01 -8.654183e+01 8.343541e-01 -9.410650e+01 1.046375e+00 -1.017465e+02 
5.907852e-01 -1.086655e+02 5.207434e-02 -1.164857e+02 -1.000146e+00 1.169813e+02 5.565380e-01 1.094393e+02 1.632619e+00 1.021828e+02 2.401340e+00 9.530297e+01 3.173158e+00 8.921465e+01 4.786583e+00 8.458335e+01 7.909342e+00 7.223508e+01 9.552054e-01 6.359774e+01 1.878987e+00 5.550978e+01 2.422564e+00 5.243776e+01 4.059436e+00 4.264490e+01 4.314357e+00 3.791871e+01 3.162989e+00 2.727213e+01 2.504508e+00 2.040045e+01 -1.043613e-01 1.331708e+01 1.544300e+00 3.429980e+00 -5.917747e-01 -1.246664e+00 1.189278e+00 -1.180550e+01 1.131360e+00 -1.611129e+01 1.239716e+00 -2.668428e+01 6.262796e-01 -3.255276e+01 -3.865954e-01 -4.028208e+01 -4.922817e-01 -4.990731e+01 -1.338028e+00 -5.829745e+01 -7.366887e-02 -6.374172e+01 2.211011e-01 -7.059314e+01 4.981983e-01 -7.793271e+01 7.347699e-01 -8.545319e+01 8.631495e-01 -9.308661e+01 8.350561e-01 -1.008290e+02 
-9.708935e-01 -1.116065e+02 -1.728684e+00 -1.196613e+02 -3.052749e+00 1.199250e+02 -1.143149e+00 1.121008e+02 2.566384e-01 1.046144e+02 1.330473e+00 9.759481e+01 2.268865e+00 9.135010e+01 3.386888e+00 8.593124e+01 4.621799e+00 7.386240e+01 7.430840e-01 6.495657e+01 1.371823e+00 5.627000e+01 2.444806e+00 5.320545e+01 3.635735e+00 4.311772e+01 4.203310e+00 3.779678e+01 2.986083e+00 2.778812e+01 2.413890e+00 1.913205e+01 -4.063555e-01 1.406749e+01 1.762714e+00 1.825996e+00 -1.114607e+00 -7.939367e-01 1.432007e+00 -1.286319e+01 7.153548e-01 -1.671490e+01 1.218148e+00 -2.698998e+01 3.191144e-01 -3.486498e+01 -7.831744e-01 -3.921221e+01 9.630331e-01 -5.533305e+01 -2.588113e+00 -5.955462e+01 -1.787339e+00 -6.430095e+01 -1.024800e+00 -7.200269e+01 -5.729613e-01 -7.987843e+01 -3.821779e-01 -8.771648e+01 -3.728090e-01 -9.559183e+01 -5.489801e-01 -1.035551e+02 
-1.455499e+00 -1.107916e+02 -2.544065e+00 -1.190358e+02 -4.253222e+00 1.207775e+02 -2.009999e+00 1.127337e+02 -2.981384e-01 1.050721e+02 1.056477e+00 9.779136e+01 2.102501e+00 9.078766e+01 2.690739e+00 8.344243e+01 1.594850e+00 7.356191e+01 1.538401e+00 6.540801e+01 1.386884e+00 5.730746e+01 3.419395e+00 5.200747e+01 2.519657e+00 4.305798e+01 4.192957e+00 3.690742e+01 2.696038e+00 2.764967e+01 2.289521e+00 2.025644e+01 9.192764e-01 1.290601e+01 9.426730e-01 3.891850e+00 4.383654e-01 -1.882867e+00 7.669349e-01 -1.151301e+01 1.560520e+00 -1.692021e+01 1.023489e+00 -2.657886e+01 1.004052e+00 -3.305771e+01 -2.827647e-01 -4.055804e+01 3.959995e-01 -4.990214e+01 -2.038987e+00 -5.843090e+01 -1.207021e+00 -6.425691e+01 -6.409380e-01 -7.140795e+01 -3.028124e-01 -7.898347e+01 -2.161106e-01 -8.672503e+01 -3.623850e-01 -9.460175e+01 -7.567865e-01 -1.026260e+02 
-2.920384e+00 -1.134571e+02 -4.216430e+00 -1.219115e+02 -6.190730e+00 1.235418e+02 -3.659412e+00 1.152324e+02 -1.704979e+00 1.072810e+02 -1.293792e-01 9.960591e+01 1.134173e+00 9.184581e+01 1.933516e+00 8.373772e+01 2.931326e+00 7.644575e+01 8.015285e-01 6.675737e+01 1.932474e+00 5.926736e+01 2.529570e+00 5.181184e+01 2.343817e+00 4.429285e+01 3.457991e+00 3.678281e+01 1.952479e+00 2.807739e+01 2.496547e+00 2.054177e+01 9.124635e-01 1.233194e+01 1.288152e+00 4.534571e+00 6.718309e-01 -3.089770e+00 4.660660e-01 -1.107919e+01 1.238608e+00 -1.843030e+01 -8.321681e-02 -2.683552e+01 7.582438e-01 -3.449969e+01 -8.869655e-01 -4.240157e+01 -4.788470e-01 -5.146231e+01 -1.603975e+00 -5.873899e+01 -1.125719e+00 -6.584080e+01 -1.154771e+00 -7.323191e+01 -1.153041e+00 -8.093504e+01 -1.241208e+00 -8.884740e+01 -1.520462e+00 -9.690682e+01 -2.055485e+00 -1.051109e+02 
-3.330697e+00 -1.125761e+02 -4.924157e+00 -1.211952e+02 -7.231352e+00 1.242657e+02 -4.469441e+00 1.156942e+02 -2.329371e+00 1.074469e+02 -6.704792e-01 9.942256e+01 5.548668e-01 9.139458e+01 1.303584e+00 8.322933e+01 1.975314e+00 7.541364e+01 1.420906e+00 6.692203e+01 1.906916e+00 5.920019e+01 2.642114e+00 5.157742e+01 2.555615e+00 4.414737e+01 3.087729e+00 3.648358e+01 2.384447e+00 2.838297e+01 2.352849e+00 2.074259e+01 1.649193e+00 1.257763e+01 1.602532e+00 5.118329e+00 1.351534e+00 -2.860974e+00 1.166320e+00 -1.022728e+01 1.429405e+00 -1.794269e+01 7.653904e-01 -2.576473e+01 9.521208e-01 -3.332540e+01 1.147777e-01 -4.145629e+01 3.023278e-01 -4.902457e+01 -6.651625e-01 -5.730073e+01 -4.371638e-01 -6.492680e+01 -5.391345e-01 -7.240783e+01 -7.269094e-01 -8.003871e+01 -1.002138e+00 -8.787853e+01 -1.468079e+00 -9.591425e+01 -2.214921e+00 -1.041465e+02 
-4.669838e+00 -1.149924e+02 -6.450531e+00 -1.237979e+02 -8.996867e+00 1.267199e+02 -5.996352e+00 1.178896e+02 -3.632972e+00 1.093375e+02 -1.768375e+00 1.009685e+02 -3.479059e-01 9.267095e+01 6.948406e-01 8.452124e+01 1.620080e+00 7.670890e+01 9.799118e-01 6.817929e+01 1.591825e+00 6.022669e+01 2.012469e+00 5.225111e+01 2.109269e+00 4.460097e+01 2.482961e+00 3.669127e+01 1.956053e+00 2.855458e+01 2.005293e+00 2.066813e+01 1.384718e+00 1.251926e+01 1.281999e+00 4.784453e+00 1.011649e+00 -3.212916e+00 7.006397e-01 -1.088494e+01 8.305458e-01 -1.874008e+01 1.623196e-01 -2.670045e+01 2.361671e-01 -3.455219e+01 -5.182695e-01 -4.269564e+01 -7.096739e-01 -5.063058e+01 -1.046916e+00 -5.859486e+01 -9.659268e-01 -6.632969e+01 -1.173973e+00 -7.404187e+01 -1.497362e+00 -8.186520e+01 -1.918746e+00 -8.986115e+01 -2.520889e+00 -9.804072e+01 -3.403278e+00 -1.064139e+02 
-4.982258e+00 -1.140286e+02 -7.041035e+00 -1.229694e+02 -9.932586e+00 1.272364e+02 -6.728368e+00 1.181939e+02 -4.214356e+00 1.094327e+02 -2.247537e+00 1.008869e+02 -7.558271e-01 9.248697e+01 3.132284e-01 8.422967e+01 1.080148e+00 7.613174e+01 1.217377e+00 6.798718e+01 1.661216e+00 6.001818e+01 2.118912e+00 5.214084e+01 2.291192e+00 4.445875e+01 2.490855e+00 3.660200e+01 2.260828e+00 2.872373e+01 2.169054e+00 2.081992e+01 1.824966e+00 1.289450e+01 1.691788e+00 5.144926e+00 1.474704e+00 -2.689790e+00 1.290038e+00 -1.027403e+01 1.210177e+00 -1.804901e+01 8.389382e-01 -2.574767e+01 7.199385e-01 -3.356992e+01 2.406029e-01 -4.145098e+01 6.782987e-02 -4.927289e+01 -3.808201e-01 -5.725369e+01 -4.702812e-01 -6.516718e+01 -6.897555e-01 -7.299274e+01 -1.086390e+00 -8.084492e+01 -1.641779e+00 -8.882841e+01 -2.411144e+00 -9.699789e+01 -3.487817e+00 -1.053881e+02 
-6.185334e+00 -1.162232e+02 -8.408734e+00 -1.253200e+02 -1.150938e+01 1.293703e+02 -8.093008e+00 1.201195e+02 -5.383177e+00 1.111356e+02 -3.236086e+00 1.023789e+02 -1.568795e+00 9.382195e+01 -3.115292e-01 8.546017e+01 5.681973e-01 7.727708e+01 7.611717e-01 6.897846e+01 1.216611e+00 6.084492e+01 1.605037e+00 5.276621e+01 1.811188e+00 4.484485e+01 1.994865e+00 3.684520e+01 1.842443e+00 2.880013e+01 1.772423e+00 2.078499e+01 1.482486e+00 1.273972e+01 1.293391e+00 4.833539e+00 1.065837e+00 -3.109883e+00 7.942573e-01 -1.092106e+01 6.509243e-01 -1.880763e+01 2.554074e-01 -2.670975e+01 5.555365e-02 -3.464934e+01 -3.966523e-01 -4.267993e+01 -6.895359e-01 -5.065687e+01 -9.480732e-01 -5.866327e+01 -1.093577e+00 -6.661682e+01 -1.387694e+00 -7.455936e+01 -1.855220e+00 -8.255392e+01 -2.499750e+00 -9.066955e+01 -3.371892e+00 -9.895818e+01 -4.561448e+00 -1.074616e+02 
-6.387067e+00 -1.151608e+02 -8.862243e+00 -1.243637e+02 -1.229080e+01 1.296913e+02 -8.683800e+00 1.202919e+02 -5.833412e+00 1.111773e+02 -3.579581e+00 1.023127e+02 -1.834457e+00 9.366892e+01 -5.317109e-01 8.521511e+01 3.864617e-01 7.692753e+01 8.860387e-01 6.873423e+01 1.360181e+00 6.063586e+01 1.774865e+00 5.263513e+01 2.038057e+00 4.475511e+01 2.189903e+00 3.684035e+01 2.149210e+00 2.893068e+01 2.065811e+00 2.098552e+01 1.875743e+00 1.306964e+01 1.719906e+00 5.225367e+00 1.523717e+00 -2.590177e+00 1.333160e+00 -1.030584e+01 1.145263e+00 -1.807149e+01 8.725812e-01 -2.582409e+01 6.380789e-01 -3.366959e+01 2.908729e-01 -4.155066e+01 9.259884e-03 -4.946373e+01 -3.475010e-01 -5.743620e+01 -6.120350e-01 -6.543239e+01 -9.525162e-01 -7.342154e+01 -1.474098e+00 -8.143716e+01 -2.211485e+00 -8.955235e+01 -3.213399e+00 -9.783774e+01 -4.565071e+00 -1.063532e+02 
-7.450477e+00 -1.171588e+02 -1.006022e+01 -1.264857e+02 -1.366390e+01 1.315214e+02 -9.870421e+00 1.219681e+02 -6.854286e+00 1.126959e+02 -4.450378e+00 1.036789e+02 -2.567137e+00 9.489886e+01 -1.138749e+00 8.632908e+01 -1.353643e-01 7.793144e+01 3.954805e-01 6.957961e+01 8.901981e-01 6.132191e+01 1.295201e+00 5.314826e+01 1.568538e+00 4.509465e+01 1.736867e+00 3.703834e+01 1.722037e+00 2.898306e+01 1.657236e+00 2.092099e+01 1.474180e+00 1.287559e+01 1.290104e+00 4.900537e+00 1.067888e+00 -3.051318e+00 8.235993e-01 -1.092835e+01 5.997678e-01 -1.883045e+01 2.905951e-01 -2.674052e+01 1.685807e-02 -3.471005e+01 -3.457899e-01 -4.272810e+01 -6.639272e-01 -5.076020e+01 -9.694154e-01 -5.881532e+01 -1.253910e+00 -6.687654e+01 -1.645886e+00 -7.494549e+01 -2.221118e+00 -8.305617e+01 -3.018911e+00 -9.126936e+01 -4.092030e+00 -9.964893e+01 -5.527179e+00 -1.082550e+02 
-7.527843e+00 -1.159885e+02 -1.035073e+01 -1.253936e+02 -1.423682e+01 1.316386e+02 -1.027712e+01 1.219865e+02 -7.139033e+00 1.126339e+02 -4.641853e+00 1.035459e+02 -2.686608e+00 9.470491e+01 -1.190203e+00 8.608691e+01 -9.337375e-02 7.764234e+01 5.533019e-01 6.935839e+01 1.091577e+00 6.110832e+01 1.522362e+00 5.299485e+01 1.870419e+00 4.503485e+01 2.035919e+00 3.706252e+01 2.085668e+00 2.913651e+01 2.019526e+00 2.112828e+01 1.873439e+00 1.319369e+01 1.729459e+00 5.293175e+00 1.521281e+00 -2.546271e+00 1.356618e+00 -1.030082e+01 1.129242e+00 -1.809447e+01 9.058652e-01 -2.586103e+01 6.268460e-01 -3.376168e+01 3.131220e-01 -4.164972e+01 -8.725440e-04 -4.963346e+01 -3.973807e-01 -5.763074e+01 -7.802338e-01 -6.570238e+01 -1.216990e+00 -7.377717e+01 -1.841616e+00 -8.187577e+01 -2.710703e+00 -9.007236e+01 -3.881149e+00 -9.844233e+01 -5.442775e+00 -1.070535e+02 
-8.444866e+00 -1.178151e+02 -1.136476e+01 -1.273125e+02 -1.538443e+01 1.331655e+02 -1.127189e+01 1.234065e+02 -8.002269e+00 1.139438e+02 -5.386376e+00 1.047403e+02 -3.327111e+00 9.578238e+01 -1.745957e+00 8.706370e+01 -5.769176e-01 7.851525e+01 5.311542e-02 7.006660e+01 6.230948e-01 6.166303e+01 1.061785e+00 5.338938e+01 1.407467e+00 4.530957e+01 1.608618e+00 3.720830e+01 1.648847e+00 2.915635e+01 1.607923e+00 2.103197e+01 1.435452e+00 1.296429e+01 1.277190e+00 4.952589e+00 1.035733e+00 -3.035382e+00 8.264945e-01 -1.091131e+01 5.896606e-01 -1.884889e+01 3.165755e-01 -2.674579e+01 3.302284e-02 -3.477258e+01 -3.276385e-01 -4.279186e+01 -6.447658e-01 -5.087690e+01 -1.035980e+00 -5.897791e+01 -1.414325e+00 -6.712291e+01 -1.882955e+00 -7.525332e+01 -2.549040e+00 -8.341176e+01 -3.459843e+00 -9.167788e+01 -4.675451e+00 -1.001216e+02 -6.290857e+00 -1.088053e+02 
-8.379061e+00 -1.165354e+02 -1.146589e+01 -1.260825e+02 -1.571571e+01 1.330417e+02 -1.146923e+01 1.232304e+02 -8.106448e+00 1.137360e+02 -5.416456e+00 1.045017e+02 -3.296626e+00 9.550935e+01 -1.644137e+00 8.679981e+01 -3.338667e-01 7.821791e+01 3.041421e-01 6.988419e+01 8.823557e-01 6.139598e+01 1.321786e+00 5.318056e+01 1.802291e+00 4.528286e+01 1.982063e+00 3.723248e+01 2.104286e+00 2.937928e+01 2.015746e+00 2.121235e+01 1.849479e+00 1.328427e+01 1.727017e+00 5.328465e+00 1.460874e+00 -2.559745e+00 1.376099e+00 -1.025573e+01 1.114679e+00 -1.813078e+01 9.707029e-01 -2.581269e+01 6.508920e-01 -3.387936e+01 3.323546e-01 -4.170813e+01 2.809644e-02 -4.980269e+01 -4.668105e-01 -5.780023e+01 -9.625075e-01 -6.597765e+01 -1.454663e+00 -7.406999e+01 -2.159899e+00 -8.217040e+01 -3.118502e+00 -9.039866e+01 -4.398038e+00 -9.882561e+01 -6.103028e+00 -1.075083e+02 
-9.138685e+00 -1.182157e+02 -1.227965e+01 -1.278243e+02 -1.661376e+01 1.342522e+02 -1.225726e+01 1.243778e+02 -8.805394e+00 1.148195e+02 -6.030936e+00 1.055133e+02 -3.831216e+00 9.642400e+01 -2.126869e+00 8.762596e+01 -7.385844e-01 7.901988e+01 -1.876408e-01 7.040269e+01 4.219371e-01 6.180594e+01 8.797369e-01 5.344078e+01 1.318091e+00 4.548501e+01 1.597646e+00 3.734325e+01 1.646169e+00 2.934215e+01 1.620521e+00 2.110740e+01 1.380761e+00 1.299242e+01 1.254890e+00 4.999409e+00 9.587473e-01 -3.092592e+00 7.997825e-01 -1.085141e+01 5.978861e-01 -1.887220e+01 3.464840e-01 -2.668961e+01 1.002920e-01 -3.483831e+01 -3.367119e-01 -4.286178e+01 -5.951087e-01 -5.099397e+01 -1.118018e+00 -5.916246e+01 -1.572610e+00 -6.738502e+01 -2.092313e+00 -7.548135e+01 -2.826827e+00 -8.361220e+01 -3.803585e+00 -9.189676e+01 -5.100051e+00 -1.003884e+02 -6.828245e+00 -1.091322e+02 
-8.906112e+00 -1.168297e+02 -1.216258e+01 -1.264593e+02 -1.666838e+01 1.338367e+02 -1.222522e+01 1.239504e+02 -8.726197e+00 1.144157e+02 -5.907005e+00 1.051583e+02 -3.656711e+00 9.607773e+01 -1.908695e+00 8.733028e+01 -2.961602e-01 7.878661e+01 2.974037e-01 7.017699e+01 6.721271e-01 6.137782e+01 1.130859e+00 5.311286e+01 1.798345e+00 4.553572e+01 2.048719e+00 3.735581e+01 2.275215e+00 2.968448e+01 2.010036e+00 2.124265e+01 1.859357e+00 1.326719e+01 1.638192e+00 5.405208e+00 1.359452e+00 -2.723317e+00 1.336890e+00 -1.010452e+01 1.103764e+00 -1.819846e+01 1.095154e+00 -2.562009e+01 7.095351e-01 -3.400287e+01 3.903448e-01 -4.176062e+01 7.966746e-02 -4.995260e+01 -4.584101e-01 -5.804656e+01 -1.199465e+00 -6.631234e+01 -1.708223e+00 -7.423810e+01 -2.439199e+00 -8.227291e+01 -3.412758e+00 -9.052484e+01 -4.732224e+00 -9.900424e+01 -6.513777e+00 -1.077430e+02 
-9.494620e+00 -1.183876e+02 -1.275806e+01 -1.280491e+02 -1.728770e+01 1.347129e+02 -1.278889e+01 1.248002e+02 -9.253345e+00 1.152415e+02 -6.402243e+00 1.059697e+02 -4.104892e+00 9.688775e+01 -2.275646e+00 8.807595e+01 -6.534520e-01 7.958334e+01 -1.059587e-01 7.031347e+01 1.552875e-01 6.148346e+01 6.543390e-01 5.341496e+01 1.246616e+00 4.549354e+01 1.685548e+00 3.760206e+01 1.800385e+00 2.947691e+01 1.594198e+00 2.116343e+01 1.395410e+00 1.291095e+01 1.114058e+00 5.000159e+00 8.530468e-01 -3.172179e+00 6.439617e-01 -1.088590e+01 5.844541e-01 -1.872180e+01 3.798383e-01 -2.669165e+01 1.642392e-01 -3.474779e+01 -3.242570e-01 -4.299271e+01 -5.250729e-01 -5.115338e+01 -1.120055e+00 -5.960378e+01 -1.849850e+00 -6.766423e+01 -2.357333e+00 -7.552077e+01 -3.071647e+00 -8.359939e+01 -4.021694e+00 -9.192394e+01 -5.327288e+00 -1.004699e+02 -7.102815e+00 -1.092614e+02 
-9.072119e+00 -1.168957e+02 -1.239224e+01 -1.265530e+02 -1.699832e+01 1.339794e+02 -1.249808e+01 1.240599e+02 -8.984141e+00 1.145070e+02 -6.166485e+00 1.053256e+02 -3.846854e+00 9.660373e+01 -1.883590e+00 8.804557e+01 -5.403825e-01 7.974270e+01 1.790766e+00 6.954348e+01 -3.759074e-01 6.032147e+01 9.334868e-01 5.363358e+01 1.650520e+00 4.501483e+01 2.135368e+00 3.816047e+01 3.113780e+00 2.959778e+01 1.320127e+00 2.137556e+01 2.623796e+00 1.309463e+01 6.870803e-01 5.228593e+00 1.622602e+00 -2.524678e+00 7.864557e-01 -1.064875e+01 1.026303e+00 -1.746953e+01 1.486510e+00 -2.605559e+01 3.241564e-01 -3.349413e+01 1.131178e+00 -4.192659e+01 -4.980631e-01 -5.004918e+01 4.148881e-01 -5.930680e+01 -2.085511e+00 -6.637383e+01 -2.166143e+00 -7.400174e+01 -2.648603e+00 -8.214165e+01 -3.526669e+00 -9.048156e+01 -4.832909e+00 -9.901192e+01 -6.636886e+00 -1.077839e+02 
-9.479217e+00 -1.183496e+02 -1.275470e+01 -1.280123e+02 -1.730996e+01 1.345223e+02 -1.282319e+01 1.245998e+02 -9.326258e+00 1.150351e+02 -6.522141e+00 1.058693e+02 -4.178916e+00 9.727268e+01 -2.124978e+00 8.885032e+01 -7.985909e-01 8.049881e+01 2.283463e+00 6.978935e+01 -1.334513e+00 5.990302e+01 4.576969e-01 5.425413e+01 1.330850e+00 4.477225e+01 1.767279e+00 3.852680e+01 3.117317e+00 2.947684e+01 5.049662e-01 2.108265e+01 2.464697e+00 1.287259e+01 -1.870602e-01 4.575982e+00 1.247221e+00 -2.790333e+00 1.776879e-01 -1.159238e+01 5.085895e-01 -1.782359e+01 1.166783e+00 -2.704571e+01 -3.743951e-01 -3.426583e+01 8.184971e-01 -4.283279e+01 -1.274068e+00 -5.146863e+01 1.686170e-01 -6.090687e+01 -2.853595e+00 -6.741527e+01 -2.785841e+00 -7.511183e+01 -3.182948e+00 -8.338947e+01 -4.023457e+00 -9.181775e+01 -5.304608e+00 -1.004051e+02 -7.079993e+00 -1.092155e+02 