# vtk DataFile Version 2.0
Comment goes here
ASCII

DATASET STRUCTURED_POINTS
FIELD FieldData 1
TIME 1 1 double
0.09200000
DIMENSIONS    64   64   1

ORIGIN    0.000   0.000   0.000
SPACING   0.03125 0.03125   1.000

POINT_DATA   4096
SCALARS P double
LOOKUP_TABLE default

-2.674454e+02 -1.233184e+03 6.628864e+03 1.834319e+04 3.905748e+03 -7.787014e+03 -3.820476e+03 2.294488e+03 -8.802233e+02 1.549625e+03 1.782526e+03 9.310282e+03 8.775160e+03 8.828631e+03 1.048628e+04 1.420760e+04 1.150771e+04 1.604336e+04 1.714103e+04 1.622737e+04 1.597982e+04 2.091082e+04 2.153569e+04 1.978342e+04 1.988101e+04 1.656733e+04 1.150905e+04 1.142225e+04 1.178440e+04 3.338615e+03 -1.691101e+03 -2.194658e+03 1.949628e+02 -1.269041e+03 -4.010310e+01 -2.320697e+02 7.794469e+01 1.957298e+03 8.341794e+03 4.564533e+03 5.583120e+03 9.798795e+03 1.353353e+04 6.003375e+03 6.903025e+03 5.133379e+03 1.133166e+03 -7.538432e+03 -2.245167e+03 1.525602e+03 7.937924e+02 -1.024805e+04 -8.416604e+03 -5.252151e+03 -3.753502e+03 -1.215770e+04 -6.847391e+03 -2.641898e+02 2.337834e+02 -4.969462e+03 -1.462883e+03 3.489526e+01 1.693901e+03 -7.430610e+01 
2.804591e+03 1.607112e+03 4.717308e+03 1.638015e+04 8.904604e+00 -1.046547e+04 -8.594555e+03 -4.765133e+03 -6.767608e+03 -5.927723e+03 -4.449305e+03 3.134733e+02 1.765737e+03 2.812374e+03 5.557234e+03 6.660690e+03 3.259710e+03 5.150743e+03 6.015333e+03 5.816600e+03 7.054032e+03 9.651443e+03 1.095194e+04 9.782895e+03 1.151958e+04 8.897332e+03 5.785455e+03 6.421886e+03 6.899889e+03 9.304502e+02 -1.088966e+03 -2.427781e+03 -9.331150e+02 -2.958054e+03 -9.507335e+02 -2.317639e+02 -1.436101e+03 9.503012e+02 7.162726e+03 4.229316e+03 6.001460e+03 1.115849e+04 1.396557e+04 5.923530e+03 7.147959e+03 4.940596e+03 2.951116e+03 -1.348086e+03 1.428788e+03 3.928577e+03 4.503719e+03 -2.049459e+03 -1.103076e+03 1.552652e+03 4.913019e+03 -1.417728e+03 -4.336965e+02 2.421685e+03 1.559368e+03 -2.329593e+03 -6.853744e+02 2.715602e+03 4.207170e+03 3.526494e+03 
4.491220e+03 5.123645e+03 5.929136e+03 1.259779e+04 2.431597e+03 -3.026032e+03 -3.889753e+03 -1.457358e+03 -4.968660e+03 -2.403856e+03 -2.793218e+03 2.414615e+02 8.244369e+01 3.649582e+03 4.124770e+03 6.527719e+03 2.865707e+03 3.072979e+03 2.648053e+03 3.405133e+03 4.387836e+03 6.485063e+03 5.692704e+03 4.917831e+03 5.377168e+03 4.369031e+03 2.513714e+03 1.925848e+03 3.282616e+03 1.275438e+03 2.946917e+03 7.973565e+02 1.078850e+03 -1.790153e+03 -5.409260e+02 7.278179e+02 3.187984e+03 3.234050e+03 7.549312e+03 6.128650e+03 8.059093e+03 7.928736e+03 1.005163e+04 4.779594e+03 7.710231e+03 4.691817e+03 6.457133e+03 2.851646e+03 6.218253e+03 5.541236e+03 8.433126e+03 5.240422e+03 7.390558e+03 5.586986e+03 9.374395e+03 4.025891e+03 5.158856e+03 3.209639e+03 4.307638e+03 2.943409e+03 4.205420e+03 4.414789e+03 5.389323e+03 4.230449e+03 
3.574303e+03 3.946931e+03 1.122513e+03 7.507483e+03 -1.063370e+03 -6.043485e+03 -6.177695e+03 -4.466039e+03 -6.667028e+03 -4.658376e+03 -4.689999e+03 -3.038199e+03 -2.522540e+03 -6.243159e+02 1.967539e+02 1.290491e+03 1.256967e+02 2.421814e+02 6.420910e+02 1.158517e+03 2.209009e+03 3.309485e+03 3.510710e+03 3.092027e+03 3.668011e+03 2.887935e+03 2.366429e+03 1.474090e+03 2.601175e+03 1.033160e+03 2.444548e+03 5.979533e+02 1.201014e+03 -7.680442e+02 3.474093e+02 6.647882e+02 2.731168e+03 2.796573e+03 5.662415e+03 4.964452e+03 6.864070e+03 6.066725e+03 7.869897e+03 4.653180e+03 6.794780e+03 4.083873e+03 5.689113e+03 3.153792e+03 5.391417e+03 4.208953e+03 6.438680e+03 4.367606e+03 6.025984e+03 4.305284e+03 6.531808e+03 3.567004e+03 4.254872e+03 2.762331e+03 3.430806e+03 2.538328e+03 2.972683e+03 2.411612e+03 2.480418e+03 1.692978e+03 
2.350781e+03 -2.961045e+03 -1.532093e+03 -1.394115e+02 -1.041794e+04 -2.265741e+02 -6.085578e+03 8.362689e+02 -3.895277e+03 5.200622e+02 -1.703924e+03 1.467836e+03 2.323276e+02 3.021549e+03 2.066623e+03 4.207939e+03 2.455977e+03 3.707170e+03 2.786846e+03 3.870763e+03 3.539787e+03 4.521385e+03 4.046684e+03 4.145276e+03 3.918654e+03 3.485651e+03 3.133163e+03 2.425177e+03 3.207869e+03 1.820195e+03 3.060784e+03 1.448581e+03 2.461841e+03 8.362790e+02 2.353101e+03 1.783781e+03 4.039977e+03 3.149913e+03 6.106924e+03 4.618444e+03 7.271175e+03 5.370225e+03 8.148653e+03 4.665103e+03 7.747579e+03 4.333232e+03 7.366806e+03 3.902530e+03 7.411849e+03 4.583257e+03 7.964574e+03 4.703663e+03 7.932685e+03 4.727976e+03 8.161833e+03 4.328930e+03 6.782137e+03 4.006031e+03 5.135227e+03 3.959367e+03 4.516749e+03 2.908732e+03 3.623245e+03 -4.656205e+02 
1.757970e+02 -4.143905e+03 -2.814629e+03 -4.076272e+03 -1.625637e+04 -3.278353e+03 -9.839695e+03 -3.177693e+03 -6.315785e+03 -3.245858e+03 -4.296905e+03 -2.915506e+03 -3.042838e+03 -1.962658e+03 -1.687787e+03 -8.431149e+02 -8.689758e+02 -2.242817e+02 7.227627e+01 7.329655e+02 1.152693e+03 1.742659e+03 1.898211e+03 2.100679e+03 2.308731e+03 2.032788e+03 2.350627e+03 1.662524e+03 2.743868e+03 1.511020e+03 2.957802e+03 1.477722e+03 2.444645e+03 1.099683e+03 2.331641e+03 1.701479e+03 3.452772e+03 2.784260e+03 5.000481e+03 3.934852e+03 6.059744e+03 4.468605e+03 6.650131e+03 4.115041e+03 6.504579e+03 3.761240e+03 6.203944e+03 3.451650e+03 6.152734e+03 3.693890e+03 6.370167e+03 3.793461e+03 6.181112e+03 3.802774e+03 5.965820e+03 3.585881e+03 4.967389e+03 3.151854e+03 3.870263e+03 2.635739e+03 2.274810e+03 9.187626e+02 6.092198e+02 -1.784182e+03 
-5.188424e+02 -2.105336e+03 -1.349348e+03 -5.435078e+03 -9.866337e+03 2.017073e+03 -5.329302e+03 3.655526e+03 -2.773961e+03 2.035419e+03 -5.456720e+02 2.113307e+03 4.292905e+02 2.786015e+03 1.428258e+03 3.490657e+03 2.051028e+03 3.651005e+03 2.479667e+03 3.692371e+03 2.873698e+03 3.608619e+03 2.952585e+03 3.493995e+03 2.992393e+03 2.861627e+03 2.779569e+03 2.163841e+03 2.964006e+03 1.943860e+03 3.318938e+03 2.136477e+03 3.229475e+03 1.827685e+03 3.420127e+03 2.336474e+03 4.473007e+03 2.946262e+03 5.581903e+03 3.825015e+03 6.736140e+03 4.301711e+03 7.513059e+03 4.173946e+03 7.734732e+03 3.948532e+03 7.811137e+03 3.813775e+03 8.005530e+03 4.042031e+03 8.065783e+03 4.228802e+03 8.128704e+03 4.257391e+03 8.332458e+03 4.222975e+03 7.934739e+03 4.324624e+03 5.511196e+03 5.099894e+03 4.420063e+03 3.056016e+03 3.585464e+03 -1.616709e+03 
-1.968341e+03 2.327204e+03 -5.753836e+03 1.167908e+03 -7.558326e+03 -1.137627e+03 -9.543603e+03 -1.823148e+03 -5.095553e+03 -2.733691e+03 -3.841149e+03 -3.386656e+03 -3.736019e+03 -3.452473e+03 -3.097242e+03 -2.517317e+03 -2.065010e+03 -1.116609e+03 -7.938056e+02 1.466273e+02 4.190268e+02 7.772284e+02 5.602342e+02 1.406205e+03 1.202876e+03 1.401088e+03 1.800240e+03 1.361623e+03 2.442385e+03 1.314045e+03 3.759969e+03 2.271491e+03 3.016242e+03 1.873976e+03 2.987869e+03 2.228486e+03 3.720178e+03 2.660934e+03 4.822197e+03 3.505188e+03 5.705644e+03 3.745043e+03 6.169143e+03 3.572222e+03 6.362085e+03 3.359041e+03 6.443365e+03 3.204577e+03 6.656588e+03 3.278076e+03 6.656316e+03 3.394466e+03 6.439732e+03 3.540583e+03 6.127985e+03 3.439518e+03 5.551567e+03 3.829068e+03 3.938031e+03 3.084428e+03 2.836702e+03 1.756439e+03 4.455752e+02 -1.080664e+03 
2.589104e+03 4.721203e+01 -6.442646e+03 -2.758185e+03 -4.159129e+03 2.148342e+03 -3.834221e+03 1.322301e+03 -2.334477e+03 1.621351e+03 7.274477e+02 2.293258e+03 5.486900e+02 2.496152e+03 1.133105e+03 3.253709e+03 1.768151e+03 3.618024e+03 2.051274e+03 3.414315e+03 2.388396e+03 2.998562e+03 1.716002e+03 2.856966e+03 1.994467e+03 1.924785e+03 1.544953e+03 6.239728e+02 1.788691e+03 2.147757e+02 2.934881e+03 1.189268e+03 2.749103e+03 1.787877e+03 3.619332e+03 2.656609e+03 4.659241e+03 2.479501e+03 5.146681e+03 3.483040e+03 6.535013e+03 3.834216e+03 7.429583e+03 3.779780e+03 7.861843e+03 3.449759e+03 8.120998e+03 3.312896e+03 8.552642e+03 3.369943e+03 8.148180e+03 3.739318e+03 8.275987e+03 3.881558e+03 9.079460e+03 3.385682e+03 9.782754e+03 3.225671e+03 3.807036e+03 8.668164e+03 2.528109e+03 7.094082e+03 6.154548e+03 3.766708e+03 
-9.305446e+03 -8.620889e+02 -1.372528e+04 6.946276e+02 6.495921e+02 -1.468465e+03 -5.924131e+03 -2.027542e+03 -1.275126e+04 -1.573693e+03 -4.305361e+03 -4.619547e+03 -5.213761e+03 -6.017495e+03 -5.004530e+03 -4.711152e+03 -3.548987e+03 -1.900951e+03 -1.746011e+03 -2.073746e+02 -3.273530e+02 5.141110e+02 -1.236447e+03 6.258936e+02 2.603497e+02 1.050810e+03 1.641175e+03 -9.359136e+01 2.259271e+03 -1.999504e+03 3.146537e+03 -1.699151e+03 4.096721e+01 1.432648e+03 2.719536e+03 2.667400e+03 3.341789e+03 2.088468e+03 4.740077e+03 3.340384e+03 5.636593e+03 3.418756e+03 5.955060e+03 3.078951e+03 6.353164e+03 2.874541e+03 6.561382e+03 2.700185e+03 7.262351e+03 2.622079e+03 7.055814e+03 3.013581e+03 6.936217e+03 3.083584e+03 7.342869e+03 3.016785e+03 6.849689e+03 4.036721e+03 2.428484e+02 5.124978e+03 1.041345e+03 1.025961e+03 -4.817260e+03 -7.890705e+03 
-3.500761e+01 -2.985432e+04 -2.559213e+04 -3.516384e+04 -4.872400e+02 -2.405675e+03 -5.269801e+03 -1.244657e+03 -4.234608e+03 -2.103008e+03 -2.655467e+02 -1.174871e+03 -5.300414e+02 1.111103e+03 6.451971e+02 3.168913e+03 1.533330e+03 3.717596e+03 1.545902e+03 3.185100e+03 2.022525e+03 3.368551e+03 9.992985e+02 -3.938971e+00 1.668157e+02 4.662064e+02 -1.059974e+03 -1.846225e+03 2.045691e+03 1.244986e+02 9.944343e+02 -3.534057e+01 3.396302e+03 1.781279e+03 3.460447e+03 1.875198e+03 3.868305e+03 2.283093e+03 5.013624e+03 3.407386e+03 6.608897e+03 3.744080e+03 7.785047e+03 3.658002e+03 8.185498e+03 2.773897e+03 8.213065e+03 2.349304e+03 9.112635e+03 2.141312e+03 7.880350e+03 3.309538e+03 8.333966e+03 3.556163e+03 1.052084e+04 3.952614e+03 1.273014e+04 5.909064e+03 6.935043e+03 4.075778e+03 -5.509796e+03 4.684722e+03 1.507467e+04 1.488779e+04 
-3.176146e+04 -2.227526e+04 -3.080006e+04 -1.909337e+04 -9.147158e+03 -4.942605e+03 -6.718611e+03 5.057662e+03 -1.916088e+04 -2.611059e+03 -1.216652e+04 -1.822902e+04 -8.285677e+03 -1.171555e+04 -8.737610e+03 -8.458040e+03 -5.239380e+03 -2.165286e+03 -2.088726e+03 -2.084686e+02 2.392546e+02 -7.618392e+02 -1.346255e+03 -7.197268e+02 -6.230034e+02 6.439353e+02 8.704508e+02 -7.387265e+02 9.966524e+02 -1.281308e+03 2.020479e+03 -6.014279e+02 2.987891e+03 4.222867e+03 3.712098e+03 4.071448e+03 4.748560e+03 3.733435e+03 4.536702e+03 2.380311e+03 5.194081e+03 3.448680e+03 5.564033e+03 2.581672e+03 6.633715e+03 2.082883e+03 6.364008e+03 1.892457e+03 7.717878e+03 1.137795e+03 7.901593e+03 2.215835e+03 7.655143e+03 1.630163e+03 8.034041e+03 2.241840e+03 7.133285e+03 2.283159e+03 3.701648e+03 1.446241e+03 -1.298569e+03 -2.795715e+03 -9.290878e+03 -3.233684e+04 
-1.216843e+04 2.723406e+03 -1.964658e+04 -4.226513e+03 5.239465e+03 1.257318e+04 8.502826e+02 1.673308e+04 1.864787e+03 -6.123143e+03 -8.480997e+03 -1.593277e+04 -3.762084e+03 -3.996233e+02 4.988879e+02 3.749738e+03 2.238429e+03 3.492829e+03 7.060274e+02 1.690108e+03 2.579580e+03 4.432247e+03 2.582348e+03 -3.048846e+03 -5.744342e+03 -1.802422e+03 -5.557777e+03 -7.483934e+03 -7.535034e+03 -8.271676e+03 -9.506888e+02 -8.016522e+02 9.229261e+02 1.401183e+03 1.879488e+03 3.448438e+03 4.941230e+03 -3.004030e+02 1.355649e+03 3.125359e+03 6.913364e+03 3.913369e+03 8.234791e+03 4.204081e+03 8.776227e+03 1.565883e+03 7.102052e+03 -7.715690e+02 6.916255e+03 1.145470e+03 7.683911e+03 2.915833e+03 8.537025e+03 2.940484e+03 1.102497e+04 1.579472e+03 1.310771e+04 5.284496e+03 1.879769e+03 1.078660e+04 -3.609751e+02 4.197726e+03 -3.364666e+03 2.893612e+03 
-1.371375e+04 -1.292006e+04 -3.746460e+04 -1.280679e+04 -2.090735e+03 5.987190e+03 -1.278973e+04 1.050710e+04 -1.436204e+04 -1.061862e+04 -1.700278e+04 -2.478527e+04 -6.856925e+03 -1.500089e+04 -1.581042e+04 -1.575440e+04 -8.836278e+03 3.144462e+03 -2.043682e+02 6.144578e+02 -8.620691e+02 -3.106382e+03 -5.666422e+03 1.523520e+03 2.769805e+03 1.656318e+03 2.188297e+03 3.924730e+02 -2.062937e+03 -2.099548e+03 -6.860597e+02 4.105650e+02 3.475376e+03 1.364265e+03 3.846524e+03 3.044694e+03 5.990201e+03 2.795206e+03 5.454835e+03 5.603607e+03 6.978469e+03 3.509550e+03 3.888707e+03 2.902825e+03 7.166222e+03 9.035787e+02 6.392241e+03 8.935756e+02 4.915545e+03 3.310516e+03 9.816405e+03 3.627984e+01 9.229194e+03 -1.603157e+02 4.791334e+03 -3.234053e+03 1.066993e+04 -1.479346e+04 8.296035e+03 3.075279e+03 -1.618027e+04 -1.247227e+04 -2.548240e+04 -2.643973e+04 
-5.894168e+03 -2.755941e+03 -3.115260e+03 1.669561e+04 1.469902e+04 2.931166e+03 1.182141e+04 3.201278e+04 3.049938e+04 6.212570e+03 -4.268551e+04 -2.500128e+04 -9.666925e+03 3.048172e+03 -2.216804e+03 7.929978e+03 -1.390908e+03 6.445147e+03 -4.558129e+01 3.780424e+03 -2.059139e+02 -3.397225e+03 -5.202624e+03 -3.290910e+03 -1.526571e+03 3.590224e+03 -6.420815e+03 -1.609881e+04 -5.570168e+03 -5.137558e+03 2.000280e+03 1.785083e+03 5.815803e+03 2.630345e+03 1.483702e+03 9.304919e+02 1.964507e+03 2.903991e+03 1.005825e+03 1.294144e+03 4.402439e+03 1.303916e+03 3.218788e+03 -1.955216e+03 1.705918e+03 -7.390212e+02 5.805406e+03 6.785187e+02 8.205496e+03 -4.060941e+03 4.667575e+03 2.930490e+03 7.347003e+03 2.869555e+03 1.256241e+04 7.113394e+02 4.664697e+03 -1.723256e+04 -2.506052e+03 1.858747e+02 8.873358e+03 1.410924e+04 -5.612852e+03 -1.751030e+04 
-2.667675e+04 7.747464e+03 -1.076242e+04 1.003270e+04 -7.067320e+03 1.108048e+04 -4.122447e+03 3.610516e+03 -3.575856e+04 -8.834457e+04 -1.942653e+04 -2.021091e+04 -7.058054e+03 -3.738617e+03 -3.305352e+04 -2.000817e+04 -4.810368e+03 7.003497e+03 2.632863e+03 -2.209170e+02 9.101782e+02 -1.608180e+03 1.194525e+03 -4.078900e+03 -3.456275e+03 2.029038e+03 -4.227138e+03 -2.371696e+03 -6.081575e+03 -4.820918e+03 -1.582842e+03 3.899846e+03 -1.210885e+02 1.906799e+03 4.251859e+03 2.338903e+03 5.131812e+03 6.942998e+03 6.278541e+03 6.172203e+03 3.857899e+03 7.976448e+02 3.016454e+03 -3.769679e+03 3.073076e+03 5.133779e+02 3.025301e+03 -1.311035e+03 9.768165e+03 -2.528031e+03 5.846201e+03 2.136671e+03 8.902824e+03 8.904900e+02 1.598130e+04 -7.395646e+02 2.496505e+04 -1.254114e+03 -2.518327e+04 7.766196e+03 -1.409740e+04 -4.649734e+03 -3.195955e+03 3.504338e+03 
-7.284102e+04 1.552390e+04 -6.331314e+03 1.520739e+04 -3.390281e+03 -1.038388e+04 -5.424714e+03 -3.405585e+04 -4.039259e+04 -1.499120e+04 5.864864e+03 -2.483252e+04 1.149519e+04 9.790888e+03 -1.750106e+03 -2.040165e+04 -5.244879e+03 3.667013e+03 -2.812305e+03 6.885359e+03 -3.011354e+03 3.023697e+03 -3.042663e+03 -2.491764e+03 -7.041432e+03 7.648506e+03 -1.461213e+04 -1.979948e+04 -5.281992e+03 -6.857416e+02 -3.579795e+02 7.219855e+03 5.530199e+02 -2.022828e+03 -2.713070e+03 1.419585e+03 4.789473e+03 3.726733e+03 2.922413e+03 2.123182e+02 4.600160e+03 -2.997206e+03 2.972691e+03 -2.912081e+03 2.631006e+03 3.332215e+02 2.934623e+03 -8.171373e+02 7.960853e+03 -2.028442e+03 1.197737e+04 2.982579e+02 6.626278e+03 9.401915e+02 6.106431e+03 5.895869e+02 1.257615e+04 -2.561065e+04 -2.568395e+04 9.352784e+03 -6.724800e+03 -2.131179e+04 9.230455e+03 -2.568648e+04 
-4.091612e+03 1.462758e+04 -2.432299e+03 1.708919e+04 -2.685018e+03 4.055240e+03 1.055502e+04 1.443238e+04 -3.817323e+04 -1.798365e+04 1.775920e+04 3.977626e+02 2.771943e+04 2.011420e+03 -4.823064e+04 -4.069102e+04 -7.841003e+03 2.313846e+03 -3.569084e+03 2.325504e+03 -1.216109e+03 4.418152e+02 -1.053614e+04 -4.951306e+03 -1.366630e+04 -4.413528e+03 -2.632790e+03 -1.548123e+04 -2.224417e+03 1.164075e+04 -3.076599e+03 -4.889959e+03 -3.469924e+03 -3.013208e+03 4.158695e+03 -5.346568e+03 5.506448e+02 7.413157e+03 7.748801e+03 1.033267e+04 3.152478e+03 -4.681463e+03 2.555031e+03 -5.296098e+03 2.188148e+03 -2.393219e+03 2.081538e+03 -3.297038e+03 4.102477e+03 -3.161122e+03 5.599427e+03 -5.734490e+03 3.374122e+03 -2.433633e+03 9.263804e+02 -8.546083e+03 -1.372366e+04 -6.362317e+03 2.497347e+01 -1.965159e+04 7.438007e+02 -1.244079e+04 9.731837e+03 -2.709435e+04 
-2.366279e+04 -1.691933e+03 -7.966266e+03 1.169562e+04 7.277519e+02 -9.762421e+03 -2.971165e+03 1.639289e+04 -3.072877e+04 -2.923071e+04 1.060630e+04 -3.531038e+03 1.301709e+04 -1.931568e+03 -3.528335e+04 -2.099674e+04 -7.266074e+03 -1.133676e+04 -1.330388e+04 7.917632e+01 3.828170e+02 4.851942e+02 2.743993e+03 5.657812e+03 2.511102e+03 -1.510793e+03 -1.761489e+03 -8.524003e+03 -5.546690e+00 1.111686e+04 -3.039874e+03 -3.012010e+03 5.726859e+02 -1.581918e+03 5.973975e+03 -4.393571e+03 -3.274945e+03 8.714391e+02 -1.273553e+04 -3.482844e+03 -2.389862e+03 -9.334293e+03 3.934125e+03 -2.601266e+03 1.081643e+03 -4.091092e+03 -2.146422e+03 -3.866256e+03 1.405514e+03 -1.537355e+03 4.571453e+01 -2.151263e+03 8.530001e+03 3.541172e+02 7.040983e+03 -1.866604e+03 -6.007800e+03 -9.042802e+03 -2.499331e+04 -1.675686e+03 -1.422879e+04 -3.715642e+03 -7.983802e+03 2.818204e+03 
-3.748561e+04 1.460491e+04 -9.809436e+03 2.055206e+04 1.881173e+04 -1.999717e+03 8.076001e+02 1.243625e+04 -5.763350e+03 -1.834384e+03 -1.714304e+04 -8.048122e+03 5.749250e+02 -8.051654e+02 -2.059709e+04 -1.644264e+04 -9.230623e+03 -5.988123e+03 -6.897758e+03 3.365065e+03 7.538821e+02 4.312634e+03 4.756372e+02 -1.227419e+03 -1.774197e+03 -1.799096e+03 -6.652924e+03 -2.879846e+03 2.527817e+03 -3.593133e+03 -4.654821e+02 -2.523799e+02 -4.693990e+03 -3.474981e+03 8.173065e+02 -6.862490e+03 2.500541e+02 -1.053127e+03 -4.880357e+03 -1.177459e+04 6.812307e+03 -4.080945e+03 7.551146e+03 -3.487417e+03 1.506742e+03 -3.435316e+03 6.044953e+02 -5.544634e+03 2.007023e+03 -3.014474e+03 3.008348e+03 -5.307392e+03 8.641928e+03 -3.247469e+03 1.140641e+04 -1.892804e+02 4.921964e+03 -3.897510e+04 -1.251788e+04 1.797521e+04 -3.756037e+03 1.335693e+04 7.617125e+03 3.820968e+03 
-3.548320e+04 -3.378432e+04 -2.382575e+04 -2.063395e+04 8.725735e+02 2.559380e+03 -1.688062e+04 7.434320e+03 -9.863699e+03 -1.130991e+04 -2.250693e+04 -1.642302e+04 9.446504e+03 -4.037012e+03 -1.298675e+04 -9.149689e+03 -6.843731e+03 -4.912240e+03 -4.935170e+03 -8.504359e+02 -3.242324e+03 -3.490962e+03 1.928773e+03 8.393603e+03 7.250988e+03 1.216561e+03 -2.066753e+03 1.257216e+03 4.229496e+03 4.257841e+03 7.361621e+03 -2.467425e+03 5.047212e+03 -3.738575e+03 -4.469239e+03 -3.811949e+03 -9.901350e+02 7.398442e+02 3.725964e+03 6.314976e+02 4.541175e+03 -3.858020e+03 -2.348409e+03 -1.145708e+04 -4.433025e+03 -5.367576e+03 -6.439790e+02 -2.299177e+02 5.456603e+03 1.192102e+03 1.216104e+04 2.870279e+03 7.927769e+03 5.622173e+03 1.503369e+04 1.011975e+04 1.381117e+04 -1.818807e+04 -1.094140e+04 -1.290465e+02 -8.441699e+03 9.195835e+03 -8.458798e+03 -1.257746e+04 
-3.322111e+04 -7.433354e+03 -2.558877e+04 -5.922164e+01 2.024363e+04 6.116650e+03 8.327444e+03 4.266062e+03 -8.589543e+03 1.049875e+03 -1.896655e+04 -2.435759e+04 -9.028888e+03 -1.346968e+03 -5.449052e+03 -3.734216e+03 -3.985266e+03 -9.492724e+02 -3.332387e+03 3.986793e+03 3.014507e+02 3.802323e+03 2.941204e+03 2.362540e+03 7.725052e+01 -2.500515e+01 -1.598763e+03 3.699885e+02 2.442535e+03 2.103995e+03 3.460380e+03 -2.428520e+03 -9.010793e+03 1.166094e+03 -1.714930e+03 -4.954650e+03 -2.476776e+03 -7.261560e+02 -4.704014e+02 5.602296e+03 1.228796e+04 -1.417137e+02 -6.413469e+02 -1.651244e+04 -1.992357e+03 -4.683966e+03 2.964557e+03 -4.608236e+03 3.197375e+02 2.869985e+03 1.021302e+04 -4.444614e+03 9.207567e+03 -4.344063e+03 1.181439e+04 -2.800910e+04 2.288732e+03 -3.196088e+04 -2.426116e+04 2.471003e+04 -7.782872e+03 -1.673308e+03 -2.125792e+04 -3.268228e+04 
-1.698049e+04 8.788916e+03 -8.238317e+03 1.054599e+04 2.932891e+03 5.752517e+02 1.089845e+02 -2.067347e+04 -2.953790e+04 1.869147e+03 -5.127817e+03 -1.148498e+04 -1.536819e+04 -4.624178e+03 -7.203002e+03 -4.289719e+03 -6.123536e+03 -3.868206e+03 -4.552492e+03 -1.352022e+03 -1.569036e+03 -2.045349e+03 -2.339006e+01 1.491388e+03 9.793228e+02 -5.195273e+02 -3.195690e+03 -5.073023e+01 1.162788e+03 8.059469e+02 8.713491e+02 -2.403246e+02 -2.415298e+02 8.611382e+02 -7.899579e+03 -6.178124e+03 -3.785424e+02 1.538332e+03 6.154037e+02 -1.127961e+03 1.152069e+04 8.005396e+03 3.813876e+03 -1.138218e+04 -1.933806e+03 -5.137237e+03 3.356537e+03 -8.433895e+02 2.563279e+03 3.488859e+03 1.015747e+04 1.305590e+03 1.480811e+04 -5.305244e+01 1.539436e+04 -2.132637e+03 -1.904225e+04 -2.745652e+04 -2.477014e+04 1.867276e+04 -8.524123e+03 -5.337650e+03 -2.805911e+04 -1.523817e+04 
-1.932454e+04 -4.720372e+03 -7.713850e+03 -1.483231e+03 -1.321415e+04 -5.340530e+02 -1.390852e+04 -8.968962e+03 3.720837e+03 1.099372e+04 -3.639300e+03 -3.302885e+02 -2.278978e+03 1.170078e+03 -2.061822e+03 7.818835e+02 -1.685665e+03 2.180210e+03 -3.405055e+02 3.366719e+03 1.436356e+03 4.076553e+03 3.160839e+03 5.946609e+03 -1.095326e+03 -6.156780e+03 -2.174048e+03 1.533836e+03 -1.685668e+03 1.867556e+03 7.137060e+02 -4.463011e+02 -4.513438e+03 -3.009876e+02 -3.669407e+03 -3.302167e+03 1.133368e+03 -3.053468e+01 6.103776e+03 1.276542e+04 2.089844e+03 -8.368768e+03 -1.128348e+03 -7.179291e+03 1.760398e+03 -1.456306e+03 4.748135e+03 -1.665380e+03 4.304853e+03 1.438287e+03 9.003896e+03 5.103548e+02 7.343039e+03 5.300811e+02 3.974554e+03 4.005355e+03 -4.431456e+03 -2.387975e+04 -1.677944e+04 -1.657842e+04 -1.061917e+04 -1.351292e+04 4.665899e+03 9.420533e+03 
5.458477e+03 7.603688e+03 -1.023078e+04 1.881451e+03 -2.012335e+04 -1.038967e+03 -3.176209e+03 2.580571e+03 -1.038408e+04 -3.010535e+03 -1.036310e+04 -7.249139e+03 -6.706896e+03 -2.494687e+03 -5.230751e+03 -2.567404e+03 -4.466216e+03 -2.132504e+03 -3.044754e+03 -1.081363e+03 -1.513548e+03 -3.307495e+02 -4.156953e+02 3.700351e+02 -3.326235e+03 -6.066966e+03 -3.455822e+03 -8.780116e+03 -6.722368e+02 -5.882955e+03 -4.434233e+03 -2.548443e+03 -1.807069e+03 5.939067e+02 3.628484e+02 2.754857e+03 2.430267e+03 5.411095e+03 5.418565e+03 2.510911e+04 5.400292e+03 -2.183445e+04 -4.502421e+03 -6.024316e+03 -3.074131e+03 -1.166298e+03 3.496657e+03 -2.259084e+03 1.403675e+03 9.170609e+02 6.997809e+03 5.385547e+01 7.287518e+03 9.453445e+02 6.103480e+03 -1.298409e+04 -7.447876e+02 -1.588008e+04 -4.365444e+04 1.613297e+03 -2.476838e+04 -1.164496e+04 4.344097e+03 -4.229590e+03 
-6.528409e+03 2.461154e+03 -1.983821e+03 -2.299525e+03 -1.646373e+04 3.542495e+03 -3.724058e+03 2.176397e+03 1.349169e+03 3.566260e+03 -5.970956e+03 -1.415308e+03 -1.426147e+03 2.448642e+03 -1.511018e+03 2.016981e+03 -9.009882e+02 2.404465e+03 1.671052e+02 3.051515e+03 8.050014e+02 2.286634e+03 4.652646e+02 1.659166e+03 -4.857398e+02 -2.784809e+03 -4.466442e+02 5.954776e+02 -6.113035e+03 -7.076812e+03 -2.610882e+03 -1.259475e+03 -1.945933e+03 4.194792e+02 -8.795996e+02 1.355148e+03 -1.014289e+02 2.427191e+03 -3.776396e+03 5.517169e+03 -1.810895e+04 -2.723321e+04 -1.204062e+04 -6.736141e+03 -2.846406e+03 -1.926712e+03 2.332603e+03 -3.153877e+02 3.846508e+03 1.236241e+03 6.118363e+03 2.289299e+03 8.134646e+03 4.976236e+03 7.796036e+03 6.146381e+03 1.272867e+04 1.342518e+04 4.293773e+03 3.402857e+03 -1.263410e+04 -2.627454e+04 2.533462e+03 -2.230493e+03 
-1.179431e+04 1.216402e+04 -4.935479e+03 1.231164e+04 -7.654166e+03 -3.469521e+03 -7.337191e+03 -2.684721e+03 -4.287589e+03 -8.251174e+02 -6.489402e+03 -2.277029e+03 -5.212400e+03 -1.521825e+03 -4.203816e+03 -1.409361e+03 -3.346014e+03 -1.037897e+03 -2.425880e+03 -2.684108e+02 -1.642546e+03 -3.915559e+02 -9.507684e+02 2.997490e+02 -3.019247e+02 -2.554411e+03 -3.341485e+03 -4.302849e+03 -5.572692e+02 -4.762136e+03 -2.481340e+03 -4.486427e+02 -8.760568e+02 1.690704e+03 1.199675e+03 4.870873e+03 7.759476e+02 -1.497591e+03 -1.390815e+04 -2.384693e+04 -3.485558e+04 -1.252816e+04 -2.211646e+04 -6.391770e+03 -7.611734e+03 -2.538620e+03 -2.904603e+02 -1.871633e+03 1.169551e+03 -6.331178e+02 3.473547e+03 -7.014726e+02 3.111409e+03 -1.403831e+03 -3.281796e+01 -8.502776e+03 -2.740877e+03 -3.564059e+03 -2.598909e+04 -8.915841e+03 -1.215535e+04 -1.508436e+04 -1.420511e+04 -7.610590e+03 
-6.144738e+03 1.605324e+04 9.375798e+03 1.692391e+04 2.390654e+03 3.831907e+02 -5.095836e+03 3.792253e+03 -1.138080e+01 4.049041e+03 -3.639485e+03 1.960679e+03 -1.444997e+03 2.403183e+03 -1.114230e+03 2.249018e+03 -7.390957e+02 2.140941e+03 -2.240285e+02 2.026495e+03 -4.938967e+02 1.530266e+03 6.550217e+02 1.333355e+03 -5.005543e+02 -1.141467e+02 -1.529076e+03 -1.447712e+03 -2.261784e+03 -2.337165e+03 -9.112778e+02 -1.425272e+03 -9.384174e+02 8.716220e+02 4.068275e+02 2.466531e+03 -8.681347e+02 -5.030280e+03 -1.244872e+04 -2.450053e+04 -1.831067e+04 -4.630206e+03 -1.140783e+04 -2.128720e+03 -3.008673e+03 -1.147831e+03 1.391440e+03 7.231199e+02 3.137395e+03 1.260558e+03 5.112972e+03 2.233969e+03 6.734823e+03 3.851263e+03 6.404172e+03 1.100354e+03 4.545328e+03 2.436562e+03 -3.205224e+03 -2.473538e+03 -2.395100e+04 -2.581814e+04 -6.688819e+03 -1.124177e+04 
-5.024425e+03 4.431162e+02 -1.256330e+03 7.540750e+03 -1.149388e+03 -3.832308e+03 -7.811193e+03 -1.839650e+03 -3.984217e+03 4.133063e+02 -3.600784e+03 -5.031193e+02 -3.611821e+03 -6.671093e+02 -3.178643e+03 -6.251568e+02 -2.402461e+03 -4.499116e+02 -1.725597e+03 -4.113765e+02 -1.800662e+03 -1.719686e+03 -1.501031e+03 5.469387e+01 -6.548430e+02 -2.557758e+03 -3.367008e+02 -1.920419e+03 -3.720662e+02 -1.200794e+03 -1.022222e+01 -5.787508e+02 5.437901e+02 1.346503e+03 1.811038e+03 3.383649e+03 2.353842e+03 -5.518692e+02 -3.322398e+02 -6.644857e+03 3.254635e+03 -1.142788e+03 2.651474e+03 -2.166838e+03 -6.782572e+02 -1.196983e+03 7.616294e+02 -1.339518e+03 1.617753e+03 -8.876235e+02 1.247814e+03 -2.545037e+03 1.730842e+03 5.018976e+01 -1.097042e+03 -4.385335e+03 3.480703e+03 -1.244243e+03 -7.570732e+03 -1.451919e+04 -3.177894e+04 -2.777580e+04 -2.300628e+04 -9.266547e+03 
1.889817e+03 9.086873e+03 1.464858e+04 8.615152e+03 2.092809e+03 7.178720e+03 -3.281542e+02 4.271840e+02 8.452362e+01 3.115645e+03 -5.830123e+02 2.758848e+03 -5.676720e+02 2.588394e+03 -6.743448e+02 2.364579e+03 -7.606422e+02 1.817465e+03 1.944593e+02 2.478772e+03 6.724847e+02 1.957465e+03 -9.313080e+02 6.911435e+02 -1.441076e+03 1.263583e+02 -1.496601e+02 -5.343878e+02 -8.730620e+02 -2.135564e+03 -2.675513e+01 -8.321866e+02 1.564973e+02 6.867989e+02 1.598372e+03 6.652301e+01 -1.191186e+03 -1.770741e+03 3.522601e+02 -4.232024e+03 3.473953e+03 -2.753764e+03 1.017703e+03 -6.107086e+02 1.565587e+03 4.638546e+02 2.430580e+03 1.661094e+03 2.866768e+03 1.143836e+03 3.318550e+03 8.297516e+02 3.862882e+03 4.470891e+03 2.642221e+03 -2.620147e+03 8.510045e+03 -2.282365e+02 -1.513237e+03 -5.115300e+03 -1.128027e+04 -1.309911e+04 -4.095831e+03 -3.467648e+03 
-6.915187e+03 -1.014053e+04 4.657915e+03 -1.846145e+03 4.656229e+03 -2.931805e+03 -9.120762e+03 -5.820427e+03 -2.440255e+03 1.217953e+03 -1.889342e+03 5.508040e+02 -2.413161e+03 -2.138297e+01 -2.538716e+03 -2.980605e+01 -2.302229e+03 -5.053413e+02 -2.558481e+03 -1.126047e+02 -1.123107e+02 3.581596e+02 -1.083238e+02 -1.291076e+03 -2.420044e+01 -5.418749e+02 5.992082e+02 -8.637108e+02 1.396645e+03 -5.121151e+02 1.203314e+03 -1.171326e+03 6.993882e+02 -8.468383e+02 -6.286288e+02 -1.385731e+03 -5.481180e+02 1.205967e+03 3.624436e+03 8.163065e+02 4.914742e+03 -1.011210e+04 -2.230217e+03 -1.564164e+03 5.866430e+02 -8.677878e+02 1.360465e+03 -2.477611e+03 -1.381633e+03 3.675812e+01 1.554144e+03 -9.111155e+02 -5.802133e+02 -3.321762e+03 -5.706862e+03 -4.199376e+03 -5.964424e+02 -1.544347e+03 -1.242536e+04 -6.984445e+03 -1.813008e+04 -1.538406e+04 -2.162044e+04 -7.704053e+03 
-4.390148e+03 -2.973564e+03 -2.368942e+03 4.041393e+03 8.800365e+03 -2.832797e+03 2.178571e+01 2.156088e+03 8.922876e+02 3.615259e+03 4.847072e+02 3.220377e+03 1.176201e+02 2.880203e+03 -6.914060e+01 2.592097e+03 -3.308211e+02 2.148938e+03 2.740163e+02 1.059892e+03 4.811277e+02 8.256286e+01 -2.324375e+02 1.268559e+03 -1.680984e+02 -7.621614e+02 -1.027100e+03 1.335266e+02 5.423460e+02 -8.175469e+02 9.773772e+02 3.568206e+02 1.193216e+03 -2.454652e+02 1.428602e+03 9.921593e+02 5.822665e+02 -1.357496e+02 4.402765e+03 -3.106186e+02 3.103692e+03 -4.457988e+03 1.320371e+03 1.283377e+03 2.608479e+03 4.089370e+02 1.824542e+03 -1.687561e+03 1.857405e+03 2.628947e+03 3.573290e+03 2.794741e+03 2.712514e+03 -3.163428e+03 1.843608e+02 -3.331670e+03 -1.489482e+03 -7.971216e+03 -1.293201e+04 6.177239e+02 -1.170961e+04 -1.344334e+04 -1.085206e+04 -1.158770e+04 
-6.078438e+03 -9.696889e+02 -1.503405e+03 5.268067e+03 2.768893e+03 -2.872909e+03 -6.370410e+03 -3.197079e+03 -3.410903e+03 -1.782554e+02 -1.616876e+03 3.375763e+02 -1.868784e+03 2.916178e+02 -1.931671e+03 2.767830e+02 -1.973386e+03 2.599269e+02 -2.322951e+03 7.671063e+02 -3.127255e+03 -1.721357e+03 -2.207196e+03 1.878604e+02 -3.030185e+02 -2.230959e+03 -1.452247e+03 -5.254501e+02 -4.356825e+02 -6.694699e+02 1.956238e+02 -3.321900e+02 1.803606e+03 -6.104892e+02 6.053304e+02 9.425914e+02 -2.437216e+02 2.098574e+02 4.337486e+03 2.987094e+02 4.574710e+03 9.186437e+02 5.026698e+03 -2.160215e+03 3.796021e+03 -1.309443e+03 2.011274e+03 -1.056369e+03 1.689194e+02 1.146180e+03 2.541511e+03 -3.074594e+03 -1.335618e+03 -5.675258e+03 -5.254274e+03 -1.063650e+04 -9.461771e+03 -1.301626e+04 -1.263831e+04 -7.909992e+03 -1.440329e+04 -5.104919e+03 -1.009370e+04 -5.524171e+03 
-1.141256e+04 -4.702489e+03 -1.069964e+04 -4.922469e+03 -1.155403e+04 2.720221e+03 6.118673e+02 4.647694e+03 1.308850e+03 2.960867e+03 6.590521e+02 2.981837e+03 2.158521e+02 2.885162e+03 7.352580e+01 2.724947e+03 2.472470e+02 2.436825e+03 6.485334e+01 1.431314e+03 -8.370199e+02 2.156809e+02 -6.351138e+02 -2.131196e+02 2.812124e+02 1.454752e+02 9.483502e+02 1.380267e+03 1.664086e+03 1.707090e+03 2.114233e+03 1.063588e+03 1.869694e+03 8.735838e+02 2.845743e+03 3.060464e+03 5.233156e+03 2.488574e+03 4.604980e+02 -3.096607e+03 2.123523e+03 -4.996511e+00 1.135606e+03 -1.758699e+03 1.762885e+03 3.070097e+02 2.978813e+03 7.204713e+02 4.802730e+01 -3.497881e+02 2.989672e+03 -1.250575e+02 7.158837e+02 -1.277516e+03 -2.761860e+02 -4.233939e+03 -2.516689e+03 3.518118e+03 -1.012336e+03 -8.015387e+03 -1.261380e+04 -2.756177e+03 -5.736186e+03 -4.848055e+03 