# vtk DataFile Version 2.0
Comment goes here
ASCII

DATASET STRUCTURED_POINTS
FIELD FieldData 1
TIME 1 1 double
0.03100000
DIMENSIONS    64   64   1

ORIGIN    0.000   0.000   0.000
SPACING   0.03125 0.03125   1.000

POINT_DATA   4096
SCALARS P double
LOOKUP_TABLE default

-3.624555e+01 -2.070200e+02 -3.343961e+01 -2.011427e+02 -8.728405e+00 1.151662e+02 -2.544708e+01 1.077297e+02 -2.545460e+01 1.005439e+02 -2.997266e+01 9.857803e+01 -3.662792e+01 9.209702e+01 -3.417460e+01 7.945317e+01 -2.726269e+01 6.188171e+01 -1.459647e+01 3.906879e+01 -1.628859e+00 2.008468e+01 4.721584e+00 5.784364e+00 5.890665e+00 -3.096631e+00 -1.147996e+00 -2.809968e+00 -1.701675e+01 3.804404e+00 -3.385722e+01 3.088213e+00 -3.837317e+01 -1.127295e+01 -2.984279e+01 -3.246542e+01 -2.340250e+01 -4.714850e+01 -2.277055e+01 -5.772219e+01 -2.840679e+01 -6.210456e+01 -3.653609e+01 -6.770302e+01 -4.434844e+01 -7.141002e+01 -5.464612e+01 -7.497732e+01 -6.262495e+01 -7.885353e+01 -7.223160e+01 -8.346346e+01 -7.663707e+01 -9.346727e+01 -7.511997e+01 -1.089619e+02 -6.688257e+01 -1.292147e+02 -5.647712e+01 -1.506570e+02 -4.302067e+01 -1.723994e+02 -3.631201e+01 -1.760085e+02 
-1.111862e+01 -1.354627e+02 -9.765897e+00 -1.318744e+02 7.006703e+00 1.043879e+02 -6.452348e+00 9.896138e+01 -6.739994e+00 9.328051e+01 -9.341520e+00 9.043872e+01 -1.324936e+01 8.501272e+01 -1.233323e+01 7.647618e+01 -9.603344e+00 6.555535e+01 -3.903883e+00 5.162533e+01 2.075709e+00 3.969040e+01 4.813712e+00 2.966359e+01 5.619227e+00 2.171276e+01 2.739852e+00 1.834823e+01 -4.653510e+00 1.838273e+01 -1.275177e+01 1.469770e+01 -1.459026e+01 4.069320e+00 -9.766599e+00 -9.889484e+00 -6.541824e+00 -1.998808e+01 -6.206543e+00 -2.834260e+01 -8.866019e+00 -3.342972e+01 -1.242996e+01 -3.982562e+01 -1.525149e+01 -4.526022e+01 -1.944929e+01 -5.071104e+01 -2.217910e+01 -5.605546e+01 -2.641435e+01 -6.128576e+01 -2.823408e+01 -6.873699e+01 -2.766709e+01 -7.848065e+01 -2.392474e+01 -9.030692e+01 -1.948965e+01 -1.023255e+02 -1.329470e+01 -1.147149e+02 -1.066573e+01 -1.159289e+02 
2.864541e+00 -8.915066e+01 3.156530e+00 -8.968015e+01 8.035080e+00 9.490236e+01 3.097559e+00 9.172509e+01 2.881585e+00 8.752990e+01 2.335214e+00 8.329980e+01 1.504707e+00 7.812992e+01 1.446713e+00 7.226481e+01 1.349972e+00 6.592392e+01 1.726178e+00 5.878859e+01 2.218901e+00 5.187298e+01 2.282679e+00 4.487546e+01 2.469757e+00 3.774650e+01 2.418178e+00 3.117190e+01 1.722419e+00 2.517625e+01 8.437376e-01 1.866240e+01 8.377009e-01 1.125865e+01 1.700924e+00 3.479593e+00 1.959738e+00 -3.442555e+00 1.806376e+00 -1.029588e+01 1.287588e+00 -1.663351e+01 8.602644e-01 -2.355469e+01 8.970830e-01 -3.036763e+01 7.392975e-01 -3.719255e+01 1.042894e+00 -4.384371e+01 8.377608e-01 -5.007485e+01 8.830178e-01 -5.622282e+01 9.849911e-01 -6.225733e+01 1.453162e+00 -6.824832e+01 1.847413e+00 -7.379297e+01 2.611856e+00 -7.924380e+01 2.842303e+00 -8.176085e+01 
2.654546e+00 -9.060883e+01 3.139764e+00 -9.301730e+01 3.651576e+00 9.648250e+01 3.193634e+00 9.311287e+01 2.660695e+00 8.886382e+01 1.951316e+00 8.425699e+01 1.235242e+00 7.892233e+01 1.053647e+00 7.284349e+01 1.227047e+00 6.612643e+01 1.816306e+00 5.884440e+01 2.499699e+00 5.158457e+01 2.893464e+00 4.443701e+01 3.035627e+00 3.749980e+01 2.713865e+00 3.108777e+01 1.842365e+00 2.500122e+01 9.185612e-01 1.845848e+01 6.778934e-01 1.112309e+01 1.134662e+00 3.422771e+00 1.461927e+00 -3.864948e+00 1.431465e+00 -1.084724e+01 1.056756e+00 -1.746393e+01 6.402784e-01 -2.421138e+01 4.117492e-01 -3.089407e+01 1.621778e-01 -3.751598e+01 6.411682e-02 -4.399569e+01 -2.031357e-01 -5.029041e+01 -2.972126e-01 -5.658263e+01 -1.695113e-01 -6.291625e+01 3.120428e-01 -6.923563e+01 9.565892e-01 -7.523734e+01 1.751702e+00 -8.075617e+01 2.244662e+00 -8.504070e+01 
2.838893e+00 -8.820297e+01 3.258058e+00 -9.100155e+01 3.821136e+00 9.535348e+01 3.266491e+00 9.199734e+01 2.847470e+00 8.779773e+01 2.409867e+00 8.310666e+01 1.978796e+00 7.780458e+01 1.803860e+00 7.195605e+01 1.752011e+00 6.565350e+01 1.882119e+00 5.893624e+01 2.064507e+00 5.211262e+01 2.134539e+00 4.521939e+01 2.156382e+00 3.831387e+01 2.030984e+00 3.159332e+01 1.682366e+00 2.502067e+01 1.309641e+00 1.824387e+01 1.243614e+00 1.112033e+01 1.460827e+00 3.861306e+00 1.544787e+00 -3.164500e+00 1.434962e+00 -1.005608e+01 1.176281e+00 -1.678859e+01 9.403699e-01 -2.361808e+01 8.470889e-01 -3.042026e+01 7.826678e-01 -3.716543e+01 8.379413e-01 -4.377058e+01 8.259054e-01 -5.015753e+01 9.004886e-01 -5.639039e+01 1.066919e+00 -6.246881e+01 1.382208e+00 -6.836641e+01 1.751256e+00 -7.393822e+01 2.205464e+00 -7.910772e+01 2.532523e+00 -8.343951e+01 
2.436547e+00 -9.075290e+01 2.954642e+00 -9.429544e+01 3.496272e+00 9.714019e+01 3.051361e+00 9.351352e+01 2.582615e+00 8.911252e+01 2.103353e+00 8.416384e+01 1.705287e+00 7.864462e+01 1.552524e+00 7.257018e+01 1.630805e+00 6.601380e+01 1.907083e+00 5.909958e+01 2.229706e+00 5.207205e+01 2.431728e+00 4.506610e+01 2.448426e+00 3.817446e+01 2.212430e+00 3.148029e+01 1.746965e+00 2.486989e+01 1.271770e+00 1.805934e+01 1.051568e+00 1.092256e+01 1.094148e+00 3.622816e+00 1.142684e+00 -3.561992e+00 1.055235e+00 -1.057853e+01 8.251940e-01 -1.742646e+01 5.563946e-01 -2.423417e+01 3.379302e-01 -3.098020e+01 1.504594e-01 -3.765108e+01 2.483700e-02 -4.421789e+01 -8.370829e-02 -5.067035e+01 -8.129679e-02 -5.705378e+01 7.930061e-02 -6.337432e+01 4.290884e-01 -6.957354e+01 9.075312e-01 -7.550683e+01 1.456702e+00 -8.103571e+01 1.950991e+00 -8.600539e+01 
2.665624e+00 -8.941187e+01 3.103761e+00 -9.324306e+01 3.618453e+00 9.678439e+01 3.195897e+00 9.294099e+01 2.822035e+00 8.845990e+01 2.492009e+00 8.346994e+01 2.219505e+00 7.799468e+01 2.061780e+00 7.207854e+01 1.992430e+00 6.578188e+01 2.006421e+00 5.918329e+01 2.044559e+00 5.241882e+01 2.047064e+00 4.556893e+01 1.999453e+00 3.869325e+01 1.875568e+00 3.186404e+01 1.668535e+00 2.505693e+01 1.463110e+00 1.815714e+01 1.367206e+00 1.111591e+01 1.367428e+00 4.014699e+00 1.338385e+00 -3.016246e+00 1.227462e+00 -9.969384e+00 1.056894e+00 -1.684690e+01 8.894321e-01 -2.371316e+01 7.786185e-01 -3.053793e+01 7.129309e-01 -3.729064e+01 7.090552e-01 -4.392559e+01 7.383941e-01 -5.040345e+01 8.356753e-01 -5.672281e+01 1.010265e+00 -6.287418e+01 1.270156e+00 -6.882753e+01 1.586490e+00 -7.451305e+01 1.944209e+00 -7.986050e+01 2.292193e+00 -8.477576e+01 
2.145447e+00 -9.219390e+01 2.622882e+00 -9.651965e+01 3.097996e+00 9.878712e+01 2.802828e+00 9.459703e+01 2.481724e+00 8.984540e+01 2.180875e+00 8.460377e+01 1.950772e+00 7.889962e+01 1.844193e+00 7.276235e+01 1.859452e+00 6.624742e+01 1.972283e+00 5.946032e+01 2.099724e+00 5.253143e+01 2.167045e+00 4.557067e+01 2.120340e+00 3.864086e+01 1.942179e+00 3.177642e+01 1.657652e+00 2.492252e+01 1.364186e+00 1.797382e+01 1.164549e+00 1.088484e+01 1.062316e+00 3.716847e+00 9.792555e-01 -3.415733e+00 8.433090e-01 -1.046687e+01 6.523162e-01 -1.742357e+01 4.376388e-01 -2.431968e+01 2.432177e-01 -3.115021e+01 8.114362e-02 -3.790544e+01 -2.899886e-02 -4.457091e+01 -7.292069e-02 -5.113531e+01 -2.055556e-02 -5.760350e+01 1.460079e-01 -6.396888e+01 4.311612e-01 -7.019249e+01 8.084530e-01 -7.619833e+01 1.241486e+00 -8.190362e+01 1.686674e+00 -8.723820e+01 
2.394704e+00 -9.145090e+01 2.788659e+00 -9.606634e+01 3.207353e+00 9.900878e+01 2.964555e+00 9.451513e+01 2.725136e+00 8.960453e+01 2.519741e+00 8.429588e+01 2.359342e+00 7.860797e+01 2.248738e+00 7.256544e+01 2.169309e+00 6.620010e+01 2.124900e+00 5.958762e+01 2.078054e+00 5.280556e+01 2.021763e+00 4.593885e+01 1.929244e+00 3.902302e+01 1.810608e+00 3.210862e+01 1.657370e+00 2.517961e+01 1.508890e+00 1.820555e+01 1.398467e+00 1.116955e+01 1.312992e+00 4.099838e+00 1.224272e+00 -2.943686e+00 1.092447e+00 -9.955153e+00 9.458836e-01 -1.691676e+01 7.934407e-01 -2.385242e+01 6.754426e-01 -3.073428e+01 5.912541e-01 -3.754317e+01 5.584855e-01 -4.424639e+01 5.936767e-01 -5.081461e+01 7.024065e-01 -5.722901e+01 8.773622e-01 -6.348376e+01 1.112324e+00 -6.956443e+01 1.392810e+00 -7.543806e+01 1.705775e+00 -8.106505e+01 2.036676e+00 -8.640622e+01 
1.806497e+00 -9.424241e+01 2.208007e+00 -9.927561e+01 2.592920e+00 1.011470e+02 2.472757e+00 9.628519e+01 2.322194e+00 9.107215e+01 2.183306e+00 8.550115e+01 2.083128e+00 7.957977e+01 2.030517e+00 7.332088e+01 2.011905e+00 6.674494e+01 2.039959e+00 5.995436e+01 2.045935e+00 5.301696e+01 2.025911e+00 4.603600e+01 1.931096e+00 3.903474e+01 1.781256e+00 3.205319e+01 1.577496e+00 2.506107e+01 1.363123e+00 1.802237e+01 1.182986e+00 1.092455e+01 1.022169e+00 3.779898e+00 8.812168e-01 -3.345657e+00 7.030267e-01 -1.044291e+01 5.172901e-01 -1.747889e+01 3.118029e-01 -2.447207e+01 1.258033e-01 -3.140313e+01 -3.327190e-02 -3.826214e+01 -1.420214e-01 -4.503784e+01 -1.539176e-01 -5.170702e+01 -7.085145e-02 -5.826389e+01 9.968406e-02 -6.471066e+01 3.511348e-01 -7.103243e+01 6.675463e-01 -7.719173e+01 1.027614e+00 -8.314170e+01 1.410302e+00 -8.883815e+01 
2.057006e+00 -9.386386e+01 2.375488e+00 -9.919031e+01 2.687288e+00 1.017710e+02 2.630234e+00 9.658885e+01 2.554414e+00 9.118007e+01 2.492469e+00 8.551289e+01 2.452164e+00 7.957648e+01 2.413597e+00 7.336446e+01 2.331991e+00 6.685683e+01 2.259475e+00 6.015155e+01 2.137942e+00 5.327433e+01 2.040197e+00 4.635179e+01 1.896698e+00 3.935143e+01 1.785702e+00 3.236391e+01 1.646207e+00 2.534529e+01 1.520789e+00 1.831265e+01 1.406469e+00 1.125433e+01 1.271780e+00 4.160390e+00 1.157881e+00 -2.904372e+00 9.854388e-01 -9.986970e+00 8.478165e-01 -1.701476e+01 6.747881e-01 -2.404578e+01 5.476495e-01 -3.101073e+01 4.280807e-01 -3.791155e+01 3.553874e-01 -4.471221e+01 3.854152e-01 -5.138326e+01 5.073054e-01 -5.789439e+01 6.888931e-01 -6.426515e+01 9.151893e-01 -7.050504e+01 1.173540e+00 -7.660428e+01 1.453752e+00 -8.254373e+01 1.748521e+00 -8.830296e+01 
1.432051e+00 -9.658738e+01 1.740325e+00 -1.022893e+02 2.017715e+00 1.039690e+02 2.080442e+00 9.842608e+01 2.106833e+00 9.270900e+01 2.131281e+00 8.677568e+01 2.166838e+00 8.060656e+01 2.190598e+00 7.418499e+01 2.144493e+00 6.745254e+01 2.138573e+00 6.058323e+01 2.033769e+00 5.354556e+01 1.962832e+00 4.651184e+01 1.805637e+00 3.940835e+01 1.677210e+00 3.233359e+01 1.508534e+00 2.524265e+01 1.331975e+00 1.812677e+01 1.180451e+00 1.100737e+01 9.744089e-01 3.827902e+00 8.239038e-01 -3.304989e+00 5.865702e-01 -1.047290e+01 4.095690e-01 -1.757870e+01 1.786712e-01 -2.468537e+01 -1.004778e-02 -3.173682e+01 -1.916950e-01 -3.871622e+01 -3.381608e-01 -4.562534e+01 -3.247137e-01 -5.239691e+01 -2.094402e-01 -5.903337e+01 -2.678570e-02 -6.557232e+01 2.106029e-01 -7.202599e+01 4.893275e-01 -7.838004e+01 7.946167e-01 -8.460872e+01 1.112582e+00 -9.068573e+01 
1.674630e+00 -9.642739e+01 1.901364e+00 -1.024144e+02 2.095219e+00 1.048524e+02 2.224357e+00 9.900127e+01 2.321261e+00 9.308106e+01 2.420215e+00 8.704000e+01 2.532244e+00 8.084244e+01 2.616794e+00 7.444517e+01 2.524484e+00 6.770223e+01 2.441083e+00 6.087034e+01 2.198083e+00 5.379632e+01 2.096573e+00 4.682770e+01 1.849757e+00 3.968045e+01 1.790065e+00 3.263930e+01 1.623412e+00 2.553253e+01 1.530710e+00 1.843955e+01 1.423882e+00 1.137133e+01 1.231355e+00 4.196217e+00 1.137586e+00 -2.857019e+00 8.681145e-01 -1.005976e+01 7.801806e-01 -1.712194e+01 5.258347e-01 -2.429339e+01 4.184915e-01 -3.136555e+01 2.223874e-01 -3.839036e+01 7.958050e-02 -4.533125e+01 9.263793e-02 -5.211025e+01 2.461135e-01 -5.868912e+01 4.525520e-01 -6.516471e+01 6.865882e-01 -7.157205e+01 9.331987e-01 -7.791103e+01 1.183655e+00 -8.417197e+01 1.432388e+00 -9.034588e+01 
1.034173e+00 -9.904429e+01 1.238959e+00 -1.053719e+02 1.392688e+00 1.070458e+02 1.638895e+00 1.008558e+02 1.841645e+00 9.463961e+01 2.038079e+00 8.834074e+01 2.244220e+00 8.191799e+01 2.409936e+00 7.532632e+01 2.304153e+00 6.829663e+01 2.312355e+00 6.135019e+01 2.014260e+00 5.409188e+01 1.970647e+00 4.702841e+01 1.664484e+00 3.977610e+01 1.617519e+00 3.261183e+01 1.437915e+00 2.545897e+01 1.294018e+00 1.822851e+01 1.207721e+00 1.114106e+01 9.033252e-01 3.840116e+00 8.314053e-01 -3.248070e+00 4.400385e-01 -1.054112e+01 3.483030e-01 -1.769724e+01 1.691151e-02 -2.493409e+01 -1.455966e-01 -3.216207e+01 -3.890332e-01 -3.925542e+01 -6.592628e-01 -4.638473e+01 -5.956003e-01 -5.322064e+01 -4.285212e-01 -5.988506e+01 -2.156624e-01 -6.650210e+01 2.675086e-02 -7.310027e+01 2.837848e-01 -7.966891e+01 5.441003e-01 -8.619046e+01 7.977989e-01 -9.265120e+01 
1.267710e+00 -9.900068e+01 1.392539e+00 -1.055959e+02 1.455708e+00 1.080679e+02 1.765260e+00 1.015929e+02 2.029450e+00 9.518267e+01 2.295469e+00 8.878756e+01 2.604993e+00 8.236697e+01 2.945657e+00 7.583562e+01 2.846659e+00 6.859591e+01 2.699230e+00 6.179276e+01 2.187801e+00 5.426445e+01 2.234989e+00 4.741191e+01 1.657769e+00 3.998616e+01 1.895490e+00 3.290606e+01 1.503581e+00 2.577209e+01 1.603123e+00 1.849278e+01 1.449138e+00 1.160467e+01 1.183658e+00 4.117783e+00 1.205544e+00 -2.705857e+00 6.500156e-01 -1.020509e+01 8.298429e-01 -1.719819e+01 2.570865e-01 -2.455483e+01 3.848183e-01 -3.183977e+01 -7.283732e-02 -3.892116e+01 -2.543919e-01 -4.622217e+01 -3.556311e-01 -5.300910e+01 -1.016669e-01 -5.955313e+01 1.759710e-01 -6.610809e+01 4.411739e-01 -7.268595e+01 6.844529e-01 -7.926993e+01 9.049721e-01 -8.584977e+01 1.101206e+00 -9.242425e+01 
6.271254e-01 -1.014864e+02 7.218039e-01 -1.083887e+02 7.379318e-01 1.101983e+02 1.159043e+00 1.034155e+02 1.523576e+00 9.673679e+01 1.885520e+00 9.011193e+01 2.304729e+00 8.349032e+01 2.792381e+00 7.676696e+01 2.597769e+00 6.901423e+01 2.594935e+00 6.231115e+01 1.840819e+00 5.455986e+01 2.163985e+00 4.757278e+01 1.255219e+00 4.020654e+01 1.705858e+00 3.274664e+01 1.213325e+00 2.584534e+01 1.290078e+00 1.810643e+01 1.294343e+00 1.145853e+01 7.436112e-01 3.655504e+00 1.028731e+00 -3.100035e+00 8.263335e-02 -1.062768e+01 4.591877e-01 -1.787408e+01 -3.318897e-01 -2.505212e+01 -2.013687e-01 -3.284277e+01 -6.460970e-01 -3.972905e+01 -1.214124e+00 -4.763048e+01 -1.012218e+00 -5.417447e+01 -7.426066e-01 -6.073781e+01 -4.531892e-01 -6.742175e+01 -1.787468e-01 -7.418089e+01 6.861315e-02 -8.097766e+01 2.883332e-01 -8.779466e+01 4.774110e-01 -9.462833e+01 
8.559873e-01 -1.014840e+02 8.732785e-01 -1.086301e+02 7.969139e-01 1.112556e+02 1.271143e+00 1.042102e+02 1.676747e+00 9.734223e+01 2.073521e+00 9.063157e+01 2.557975e+00 8.413154e+01 3.357476e+00 7.803132e+01 3.857073e+00 6.866798e+01 2.756578e+00 6.342288e+01 2.041704e+00 5.423077e+01 2.660688e+00 4.820567e+01 7.670845e-01 4.039840e+01 2.625124e+00 3.270687e+01 5.961052e-01 2.659464e+01 2.249898e+00 1.771732e+01 1.060718e+00 1.258482e+01 1.360225e+00 3.279271e+00 1.364528e+00 -2.082639e+00 2.898291e-02 -1.052977e+01 1.393232e+00 -1.739157e+01 -7.636964e-01 -2.437917e+01 1.005716e+00 -3.304448e+01 -1.027113e+00 -3.884251e+01 -2.725667e-01 -4.833484e+01 -1.392072e+00 -5.393030e+01 -5.623093e-01 -6.033279e+01 -1.013393e-01 -6.700306e+01 2.131276e-01 -7.377559e+01 4.501591e-01 -8.060972e+01 6.343126e-01 -8.749861e+01 7.713401e-01 -9.445035e+01 
2.272463e-01 -1.038210e+02 2.098803e-01 -1.112411e+02 8.411443e-02 1.132653e+02 6.606057e-01 1.059451e+02 1.154086e+00 9.884335e+01 1.625035e+00 9.196420e+01 2.174772e+00 8.541929e+01 3.080880e+00 7.945388e+01 3.680055e+00 6.908378e+01 2.675319e+00 6.430631e+01 1.871331e+00 5.445636e+01 2.696808e+00 4.856124e+01 4.350510e-01 4.063049e+01 2.780105e+00 3.253652e+01 2.126192e-01 2.686886e+01 2.342249e+00 1.725465e+01 7.477202e-01 1.280054e+01 1.190653e+00 2.724837e+00 1.196320e+00 -2.185081e+00 -5.009026e-01 -1.099512e+01 1.413033e+00 -1.797116e+01 -1.491536e+00 -2.473143e+01 1.067415e+00 -3.409429e+01 -1.793515e+00 -3.931010e+01 -5.183571e-01 -4.974183e+01 -2.362464e+00 -5.484370e+01 -1.239930e+00 -6.138658e+01 -6.929795e-01 -6.824685e+01 -3.614577e-01 -7.521111e+01 -1.278657e-01 -8.224636e+01 4.565963e-02 -8.935098e+01 1.664697e-01 -9.653547e+01 
4.583397e-01 -1.038030e+02 3.686205e-01 -1.114392e+02 1.590944e-01 1.142749e+02 7.736722e-01 1.067098e+02 1.292245e+00 9.939474e+01 1.764450e+00 9.230064e+01 2.244835e+00 8.542351e+01 2.790245e+00 7.871069e+01 2.803044e+00 6.985038e+01 2.844782e+00 6.360649e+01 2.091517e+00 5.510993e+01 2.471423e+00 4.842112e+01 1.259704e+00 4.079088e+01 2.154603e+00 3.312600e+01 1.114578e+00 2.652962e+01 1.813560e+00 1.820683e+01 1.345686e+00 1.221080e+01 1.186445e+00 3.680995e+00 1.347249e+00 -2.460713e+00 2.286860e-01 -1.044343e+01 1.093343e+00 -1.755268e+01 -3.963901e-01 -2.468729e+01 6.333505e-01 -3.297792e+01 -7.066051e-01 -3.941724e+01 -5.068815e-01 -4.812940e+01 -1.241779e+00 -5.432844e+01 -6.192119e-01 -6.097157e+01 -2.158505e-01 -6.782899e+01 6.207414e-02 -7.480661e+01 2.577387e-01 -8.188223e+01 3.892319e-01 -8.905968e+01 4.589693e-01 -9.635683e+01 
-1.494373e-01 -1.059781e+02 -2.740908e-01 -1.138554e+02 -5.276059e-01 1.161095e+02 1.758222e-01 1.082908e+02 7.750677e-01 1.007337e+02 1.319938e+00 9.338960e+01 1.860269e+00 8.619473e+01 2.397113e+00 7.898336e+01 2.308288e+00 7.094204e+01 2.471607e+00 6.374651e+01 1.870748e+00 5.573970e+01 2.088117e+00 4.855143e+01 1.362247e+00 4.088361e+01 1.691676e+00 3.342194e+01 1.268487e+00 2.621065e+01 1.328289e+00 1.854537e+01 1.264921e+00 1.163759e+01 8.071447e-01 3.840087e+00 9.744575e-01 -3.072995e+00 1.576415e-01 -1.074946e+01 4.659209e-01 -1.801295e+01 -2.862671e-01 -2.546299e+01 -1.378893e-01 -3.320381e+01 -6.636638e-01 -4.040361e+01 -1.102191e+00 -4.823741e+01 -1.156688e+00 -5.514540e+01 -9.149940e-01 -6.202277e+01 -6.565093e-01 -6.904187e+01 -4.383850e-01 -7.618520e+01 -2.746671e-01 -8.343860e+01 -1.670354e-01 -9.080718e+01 -1.209742e-01 -9.830999e+01 
9.025637e-02 -1.059001e+02 -1.010883e-01 -1.139639e+02 -4.319662e-01 1.170120e+02 2.956346e-01 1.089735e+02 9.032386e-01 1.012122e+02 1.428091e+00 9.366473e+01 1.895736e+00 8.625081e+01 2.285931e+00 7.884028e+01 2.322196e+00 7.115219e+01 2.387004e+00 6.370787e+01 2.079980e+00 5.598198e+01 2.107403e+00 4.866021e+01 1.701645e+00 4.107325e+01 1.792811e+00 3.371492e+01 1.536673e+00 2.636107e+01 1.522271e+00 1.894990e+01 1.419646e+00 1.179689e+01 1.142571e+00 4.283571e+00 1.116648e+00 -2.812836e+00 6.523846e-01 -1.034728e+01 6.881701e-01 -1.757977e+01 2.443593e-01 -2.506034e+01 2.113847e-01 -3.252907e+01 -1.524635e-01 -3.984560e+01 -4.340472e-01 -4.736332e+01 -4.918862e-01 -5.449964e+01 -3.401814e-01 -6.149786e+01 -1.609863e-01 -6.856865e+01 -5.694234e-04 -7.574765e+01 1.170389e-01 -8.304731e+01 1.797463e-01 -9.048578e+01 1.761339e-01 -9.809066e+01 
-4.913892e-01 -1.079032e+02 -7.160566e-01 -1.161750e+02 -1.086369e+00 1.186401e+02 -2.834535e-01 1.103770e+02 3.912086e-01 1.023963e+02 9.699921e-01 9.463012e+01 1.467659e+00 8.699921e+01 1.844702e+00 7.940581e+01 1.922780e+00 7.169904e+01 2.002559e+00 6.407307e+01 1.808829e+00 5.634326e+01 1.790041e+00 4.883305e+01 1.521743e+00 4.121970e+01 1.500206e+00 3.376030e+01 1.334105e+00 2.630640e+01 1.229273e+00 1.887127e+01 1.131219e+00 1.154281e+01 8.589245e-01 4.071548e+00 7.612002e-01 -3.226138e+00 3.927354e-01 -1.072679e+01 2.853819e-01 -1.809946e+01 -4.087909e-02 -2.560839e+01 -2.150577e-01 -3.309805e+01 -4.770851e-01 -4.052750e+01 -7.714793e-01 -4.801003e+01 -7.752557e-01 -5.529685e+01 -6.895924e-01 -6.248557e+01 -5.751088e-01 -6.971933e+01 -4.634805e-01 -7.705308e+01 -3.810884e-01 -8.451150e+01 -3.466013e-01 -9.211766e+01 -3.767979e-01 -9.990154e+01 
-2.379495e-01 -1.077303e+02 -5.226287e-01 -1.161578e+02 -9.631041e-01 1.194013e+02 -1.449652e-01 1.109547e+02 5.315331e-01 1.028067e+02 1.093162e+00 9.488924e+01 1.550578e+00 8.712979e+01 1.880290e+00 7.945369e+01 2.002066e+00 7.177778e+01 2.067047e+00 6.413745e+01 1.969106e+00 5.648346e+01 1.924353e+00 4.895990e+01 1.747393e+00 4.140575e+01 1.687652e+00 3.396644e+01 1.554987e+00 2.653173e+01 1.456547e+00 1.914652e+01 1.346534e+00 1.180574e+01 1.150152e+00 4.412735e+00 1.021272e+00 -2.900287e+00 7.600810e-01 -1.032392e+01 6.196394e-01 -1.767708e+01 3.712022e-01 -2.512441e+01 2.019231e-01 -3.253987e+01 -1.228947e-02 -3.994309e+01 -2.115167e-01 -4.735243e+01 -2.425017e-01 -5.467259e+01 -1.870700e-01 -6.191892e+01 -1.084600e-01 -6.919650e+01 -3.478933e-02 -7.656736e+01 9.405879e-03 -8.406994e+01 3.601585e-03 -9.173804e+01 -7.158509e-02 -9.960945e+01 
-7.909463e-01 -1.095536e+02 -1.105870e+00 -1.181559e+02 -1.581751e+00 1.208080e+02 -6.998982e-01 1.121730e+02 3.212808e-02 1.038428e+02 6.375872e-01 9.575132e+01 1.123250e+00 8.783171e+01 1.467878e+00 8.001736e+01 1.630156e+00 7.223479e+01 1.714774e+00 6.449095e+01 1.669883e+00 5.676337e+01 1.626305e+00 4.913070e+01 1.495494e+00 4.151378e+01 1.414223e+00 3.398210e+01 1.294755e+00 2.647834e+01 1.176151e+00 1.901772e+01 1.049079e+00 1.159154e+01 8.557348e-01 4.145842e+00 6.932310e-01 -3.262340e+00 4.510256e-01 -1.072742e+01 2.672664e-01 -1.816744e+01 3.305543e-02 -2.565793e+01 -1.668609e-01 -3.313702e+01 -3.689885e-01 -4.060669e+01 -5.537175e-01 -4.807720e+01 -5.948203e-01 -5.549302e+01 -5.699586e-01 -6.287218e+01 -5.244156e-01 -7.028601e+01 -4.824240e-01 -7.779236e+01 -4.663881e-01 -8.543331e+01 -4.976964e-01 -9.324587e+01 -5.978742e-01 -1.012700e+02 
-5.191198e-01 -1.092584e+02 -8.859452e-01 -1.179849e+02 -1.422540e+00 1.214033e+02 -5.311804e-01 1.126250e+02 2.015003e-01 1.041687e+02 7.980945e-01 9.597096e+01 1.267458e+00 8.796916e+01 1.599493e+00 8.010289e+01 1.777018e+00 7.230963e+01 1.864920e+00 6.456795e+01 1.850816e+00 5.686906e+01 1.811534e+00 4.925261e+01 1.710315e+00 4.167204e+01 1.630690e+00 3.416755e+01 1.525472e+00 2.669553e+01 1.420931e+00 1.926989e+01 1.302824e+00 1.187033e+01 1.144545e+00 4.469890e+00 9.932002e-01 -2.910666e+00 7.942397e-01 -1.032580e+01 6.244805e-01 -1.772927e+01 4.247108e-01 -2.517033e+01 2.488202e-01 -3.260357e+01 7.361140e-02 -4.004036e+01 -7.319560e-02 -4.747621e+01 -1.243519e-01 -5.489013e+01 -1.149028e-01 -6.228608e+01 -8.786876e-02 -6.972058e+01 -6.886785e-02 -7.725104e+01 -8.021171e-02 -8.492519e+01 -1.436602e-01 -9.278635e+01 -2.816285e-01 -1.008799e+02 
-1.041910e+00 -1.108963e+02 -1.434304e+00 -1.197644e+02 -2.001058e+00 1.225787e+02 -1.055987e+00 1.136501e+02 -2.762675e-01 1.050496e+02 3.593054e-01 9.671578e+01 8.589679e-01 8.858800e+01 1.215504e+00 8.060634e+01 1.422286e+00 7.270890e+01 1.533304e+00 6.487523e+01 1.545266e+00 5.709451e+01 1.516749e+00 4.939420e+01 1.431948e+00 4.174187e+01 1.350156e+00 3.416101e+01 1.245915e+00 2.662031e+01 1.133450e+00 1.912362e+01 1.005296e+00 1.165452e+01 8.412223e-01 4.190484e+00 6.742500e-01 -3.259445e+00 4.704297e-01 -1.073295e+01 2.822594e-01 -1.820370e+01 7.568686e-02 -2.570258e+01 -1.136037e-01 -3.320133e+01 -2.933538e-01 -4.070590e+01 -4.413070e-01 -4.821404e+01 -5.047503e-01 -5.571142e+01 -5.138917e-01 -6.320728e+01 -5.067398e-01 -7.074967e+01 -5.081504e-01 -7.839220e+01 -5.397228e-01 -8.618238e+01 -6.232428e-01 -9.416435e+01 -7.819122e-01 -1.023845e+02 
-7.470450e-01 -1.104576e+02 -1.182233e+00 -1.194178e+02 -1.798878e+00 1.229851e+02 -8.492460e-01 1.139531e+02 -6.930192e-02 1.052666e+02 5.643234e-01 9.686530e+01 1.063264e+00 8.868983e+01 1.423400e+00 8.068118e+01 1.634025e+00 7.277553e+01 1.746772e+00 6.494175e+01 1.761583e+00 5.717243e+01 1.737563e+00 4.949855e+01 1.655502e+00 4.187147e+01 1.585337e+00 3.432916e+01 1.488681e+00 2.681976e+01 1.394681e+00 1.936442e+01 1.281925e+00 1.193296e+01 1.139285e+00 4.510657e+00 9.934196e-01 -2.895258e+00 8.093499e-01 -1.032945e+01 6.463910e-01 -1.775328e+01 4.572243e-01 -2.521700e+01 2.926326e-01 -3.267501e+01 1.243752e-01 -4.015287e+01 -1.274946e-02 -4.763271e+01 -8.188260e-02 -5.511673e+01 -9.541896e-02 -6.260195e+01 -9.504058e-02 -7.013992e+01 -1.076576e-01 -7.778749e+01 -1.561418e-01 -8.559459e+01 -2.627868e-01 -9.360794e+01 -4.509780e-01 -1.018768e+02 
-1.238229e+00 -1.119070e+02 -1.692901e+00 -1.209756e+02 -2.332865e+00 1.239206e+02 -1.338842e+00 1.147762e+02 -5.189569e-01 1.059823e+02 1.503450e-01 9.747926e+01 6.810612e-01 8.920768e+01 1.068456e+00 8.110696e+01 1.297708e+00 7.310822e+01 1.433539e+00 6.519283e+01 1.458096e+00 5.734314e+01 1.444703e+00 4.960122e+01 1.363297e+00 4.190300e+01 1.296241e+00 3.429630e+01 1.197684e+00 2.672120e+01 1.100157e+00 1.920116e+01 9.839915e-01 1.170915e+01 8.308510e-01 4.223128e+00 6.782960e-01 -3.239112e+00 4.782845e-01 -1.073589e+01 3.058692e-01 -1.821738e+01 1.014753e-01 -2.574535e+01 -7.361730e-02 -3.326869e+01 -2.544992e-01 -4.081572e+01 -4.052912e-01 -4.836949e+01 -4.822651e-01 -5.592569e+01 -5.047809e-01 -6.348553e+01 -5.152338e-01 -7.110535e+01 -5.398520e-01 -7.884150e+01 -6.013275e-01 -8.674211e+01 -7.219270e-01 -9.485269e+01 -9.252660e-01 -1.032221e+02 
-9.155754e-01 -1.113086e+02 -1.403725e+00 -1.204366e+02 -2.082812e+00 1.241149e+02 -1.090304e+00 1.149066e+02 -2.729129e-01 1.060659e+02 3.977238e-01 9.753429e+01 9.399721e-01 8.925106e+01 1.350333e+00 8.115113e+01 1.579257e+00 7.315334e+01 1.705238e+00 6.523726e+01 1.709855e+00 5.737876e+01 1.697686e+00 4.968738e+01 1.589484e+00 4.199341e+01 1.551018e+00 3.445106e+01 1.442674e+00 2.689646e+01 1.380722e+00 1.943158e+01 1.275542e+00 1.198568e+01 1.141230e+00 4.536212e+00 1.013749e+00 -2.857917e+00 8.113499e-01 -1.033624e+01 6.801624e-01 -1.774560e+01 4.681684e-01 -2.526313e+01 3.333138e-01 -3.273763e+01 1.381065e-01 -4.027279e+01 -1.109392e-02 -4.779931e+01 -1.072884e-01 -5.533655e+01 -1.217093e-01 -6.285441e+01 -1.246518e-01 -7.044259e+01 -1.475972e-01 -7.816335e+01 -2.154756e-01 -8.606293e+01 -3.503752e-01 -9.418586e+01 -5.750219e-01 -1.025817e+02 
-1.373797e+00 -1.125688e+02 -1.874325e+00 -1.217720e+02 -2.568646e+00 1.248022e+02 -1.541256e+00 1.155193e+02 -6.913461e-01 1.066079e+02 1.121755e-02 9.800994e+01 5.870012e-01 8.966329e+01 1.030745e+00 8.149759e+01 1.264995e+00 7.340462e+01 1.416431e+00 6.542878e+01 1.409377e+00 5.748416e+01 1.412310e+00 4.975052e+01 1.281406e+00 4.198310e+01 1.257839e+00 3.438960e+01 1.139550e+00 2.677623e+01 1.081471e+00 1.924508e+01 9.800173e-01 1.175720e+01 8.275469e-01 4.233312e+00 7.071502e-01 -3.193231e+00 4.690506e-01 -1.074435e+01 3.443436e-01 -1.819656e+01 1.008565e-01 -2.578277e+01 -3.517680e-02 -3.332627e+01 -2.547648e-01 -4.092684e+01 -4.313318e-01 -4.854158e+01 -5.285035e-01 -5.612994e+01 -5.411324e-01 -6.369250e+01 -5.453543e-01 -7.133813e+01 -5.720715e-01 -7.912643e+01 -6.460817e-01 -8.709862e+01 -7.888696e-01 -9.529610e+01 -1.022715e+00 -1.037669e+02 
-1.018630e+00 -1.117986e+02 -1.543584e+00 -1.210282e+02 -2.266908e+00 1.247618e+02 -1.249777e+00 1.154532e+02 -4.100388e-01 1.065334e+02 2.894642e-01 9.794969e+01 8.834926e-01 8.964397e+01 1.390735e+00 8.152720e+01 1.661254e+00 7.339243e+01 1.728936e+00 6.546647e+01 1.702299e+00 5.742333e+01 1.693542e+00 4.984909e+01 1.477872e+00 4.200026e+01 1.557048e+00 3.454490e+01 1.341383e+00 2.692353e+01 1.416263e+00 1.944817e+01 1.255050e+00 1.205840e+01 1.173915e+00 4.500428e+00 1.052670e+00 -2.752127e+00 7.830349e-01 -1.038392e+01 7.532568e-01 -1.766792e+01 4.171027e-01 -2.530924e+01 4.230431e-01 -3.278049e+01 8.188740e-02 -4.038123e+01 -2.062633e-02 -4.801553e+01 -2.374062e-01 -5.555546e+01 -2.048129e-01 -6.301833e+01 -1.716551e-01 -7.060634e+01 -1.793611e-01 -7.836309e+01 -2.498985e-01 -8.631790e+01 -3.997324e-01 -9.450844e+01 -6.478314e-01 -1.029825e+02 
-1.442773e+00 -1.128717e+02 -1.972227e+00 -1.221432e+02 -2.701577e+00 1.251939e+02 -1.660063e+00 1.158479e+02 -7.969575e-01 1.068938e+02 -7.219690e-02 9.828237e+01 5.550335e-01 8.995904e+01 1.112003e+00 8.183133e+01 1.381918e+00 7.349232e+01 1.463278e+00 6.562307e+01 1.400160e+00 5.742625e+01 1.433293e+00 4.987951e+01 1.120843e+00 4.195223e+01 1.281832e+00 3.443256e+01 9.913057e-01 2.681507e+01 1.126300e+00 1.919031e+01 9.516254e-01 1.186212e+01 8.559283e-01 4.134467e+00 7.706238e-01 -3.057792e+00 4.041971e-01 -1.080406e+01 4.471596e-01 -1.810998e+01 -2.916732e-04 -2.578873e+01 7.683560e-02 -3.339480e+01 -3.495419e-01 -4.098847e+01 -4.736680e-01 -4.883795e+01 -7.040523e-01 -5.632668e+01 -6.393040e-01 -6.379469e+01 -5.907008e-01 -7.142297e+01 -5.929651e-01 -7.923209e+01 -6.638184e-01 -8.724162e+01 -8.164187e-01 -9.548537e+01 -1.068086e+00 -1.040095e+02 
-1.050834e+00 -1.119212e+02 -1.595722e+00 -1.211856e+02 -2.343139e+00 1.248989e+02 -1.324303e+00 1.155613e+02 -4.847222e-01 1.066281e+02 2.185233e-01 9.806541e+01 8.370645e-01 8.986810e+01 1.465077e+00 8.209109e+01 2.205142e+00 7.308027e+01 1.564211e+00 6.590956e+01 1.885514e+00 5.700146e+01 1.665207e+00 5.015066e+01 1.193972e+00 4.182524e+01 1.787459e+00 3.453385e+01 8.682043e-01 2.707758e+01 1.800753e+00 1.912142e+01 9.138658e-01 1.245820e+01 1.489222e+00 4.058487e+00 9.724845e-01 -2.313933e+00 7.195314e-01 -1.064652e+01 9.777560e-01 -1.746085e+01 4.976016e-02 -2.525413e+01 8.771604e-01 -3.297475e+01 -4.026624e-01 -4.019565e+01 3.237665e-01 -4.868655e+01 -7.594321e-01 -5.571169e+01 -3.664623e-01 -6.302435e+01 -2.093690e-01 -7.060233e+01 -1.800038e-01 -7.837498e+01 -2.451500e-01 -8.635281e+01 -4.021353e-01 -9.456990e+01 -6.633118e-01 -1.030732e+02 
-1.440495e+00 -1.128117e+02 -1.981214e+00 -1.220846e+02 -2.723746e+00 1.250723e+02 -1.692565e+00 1.157318e+02 -8.404949e-01 1.067943e+02 -1.230869e-01 9.823356e+01 5.180657e-01 9.006915e+01 1.212165e+00 8.242779e+01 2.162994e+00 7.300821e+01 1.193339e+00 6.614585e+01 1.673559e+00 5.683271e+01 1.374398e+00 5.023630e+01 7.975989e-01 4.168712e+01 1.624278e+00 3.439430e+01 3.994583e-01 2.699434e+01 1.687829e+00 1.877177e+01 4.781063e-01 1.238569e+01 1.307309e+00 3.585473e+00 6.157055e-01 -2.482397e+00 3.556068e-01 -1.113581e+01 7.297331e-01 -1.783759e+01 -4.466656e-01 -2.570764e+01 7.035295e-01 -3.359732e+01 -9.570080e-01 -4.067449e+01 9.631699e-02 -4.956190e+01 -1.325162e+00 -5.639487e+01 -8.019702e-01 -6.371128e+01 -6.099520e-01 -7.133430e+01 -5.737469e-01 -7.915105e+01 -6.386711e-01 -8.716776e+01 -7.957897e-01 -9.541749e+01 -1.055778e+00 -1.039463e+02 