# vtk DataFile Version 2.0
Comment goes here
ASCII

DATASET STRUCTURED_POINTS
FIELD FieldData 1
TIME 1 1 double
0.06700000
DIMENSIONS    64   64   1

ORIGIN    0.000   0.000   0.000
SPACING   0.03125 0.03125   1.000

POINT_DATA   4096
SCALARS P double
LOOKUP_TABLE default

-2.920479e+01 -2.144544e+02 -4.113535e+01 -2.104281e+02 7.761349e+01 1.380754e+02 -3.840588e+01 1.266725e+02 -3.886171e+01 1.064364e+02 -3.221244e+01 8.427967e+01 -2.541554e+01 6.492090e+01 -2.268783e+01 5.105432e+01 -2.371759e+01 3.997954e+01 -2.618171e+01 2.921759e+01 -2.871209e+01 1.941094e+01 -3.247412e+01 1.024578e+01 -3.616537e+01 7.463729e-01 -4.041824e+01 -5.449802e+00 -4.981497e+01 -7.661347e+00 -5.960721e+01 -1.202278e+01 -6.535222e+01 -2.281103e+01 -6.404192e+01 -3.815267e+01 -5.914436e+01 -5.681854e+01 -5.463197e+01 -7.080560e+01 -5.756070e+01 -7.950240e+01 -6.192030e+01 -8.946648e+01 -6.427783e+01 -1.019269e+02 -6.559962e+01 -1.137799e+02 -6.687623e+01 -1.254031e+02 -7.128490e+01 -1.328963e+02 -7.678110e+01 -1.417679e+02 -7.886313e+01 -1.530353e+02 -7.798973e+01 -1.640368e+02 -7.808866e+01 -1.742354e+02 -7.347781e+01 -1.895439e+02 -6.046290e+01 -2.172229e+02 
1.896232e+00 -1.391618e+02 -5.408273e+00 -1.386210e+02 8.314883e+01 1.205400e+02 -4.421555e+00 1.129861e+02 -6.717890e+00 1.009796e+02 -5.043100e+00 8.813219e+01 -3.139323e+00 7.656476e+01 -3.107236e+00 6.763312e+01 -4.585225e+00 5.968221e+01 -6.328004e+00 5.140957e+01 -7.673443e+00 4.343167e+01 -9.509524e+00 3.556539e+01 -1.098968e+01 2.713583e+01 -1.233463e+01 2.024545e+01 -1.638618e+01 1.548906e+01 -2.069819e+01 9.785326e+00 -2.324925e+01 9.457244e-01 -2.225284e+01 -9.926241e+00 -1.974002e+01 -2.256592e+01 -1.735386e+01 -3.265586e+01 -1.896706e+01 -3.982052e+01 -2.103431e+01 -4.794526e+01 -2.198267e+01 -5.739879e+01 -2.234723e+01 -6.636035e+01 -2.258656e+01 -7.531293e+01 -2.449527e+01 -8.178057e+01 -2.709099e+01 -8.890182e+01 -2.775178e+01 -9.724341e+01 -2.675537e+01 -1.052176e+02 -2.658685e+01 -1.123171e+02 -2.400502e+01 -1.219541e+02 -1.717214e+01 -1.396531e+02 
1.486309e+01 -9.210561e+01 1.423679e+01 -9.385209e+01 4.432457e+01 1.027603e+02 1.435009e+01 9.902463e+01 1.191364e+01 9.378798e+01 1.033495e+01 8.800428e+01 8.958224e+00 8.203533e+01 7.505357e+00 7.610623e+01 6.119991e+00 6.988405e+01 5.018498e+00 6.321225e+01 4.259280e+00 5.641047e+01 3.547207e+00 4.940610e+01 3.098109e+00 4.203169e+01 2.957279e+00 3.468519e+01 2.416671e+00 2.759480e+01 1.844410e+00 2.044273e+01 1.422179e+00 1.295369e+01 1.469937e+00 5.336894e+00 1.573161e+00 -2.555351e+00 1.801018e+00 -9.960442e+00 1.372773e+00 -1.683255e+01 1.088171e+00 -2.400282e+01 1.141007e+00 -3.130364e+01 1.379339e+00 -3.836338e+01 1.805959e+00 -4.542527e+01 2.081555e+00 -5.183139e+01 2.302646e+00 -5.820610e+01 3.012251e+00 -6.467893e+01 4.191368e+00 -7.086417e+01 5.271731e+00 -7.648802e+01 6.927360e+00 -8.212903e+01 9.270915e+00 -8.963367e+01 
1.295194e+01 -9.541238e+01 1.486055e+01 -9.817068e+01 1.821565e+01 1.062337e+02 1.461337e+01 1.018160e+02 1.168869e+01 9.604423e+01 9.748310e+00 8.971377e+01 8.233521e+00 8.324283e+01 6.823137e+00 7.680817e+01 5.539799e+00 7.023597e+01 4.499433e+00 6.340081e+01 3.717248e+00 5.641384e+01 3.072587e+00 4.926022e+01 2.626794e+00 4.192445e+01 2.311620e+00 3.463359e+01 1.817442e+00 2.748306e+01 1.299839e+00 2.023041e+01 9.542841e-01 1.262944e+01 9.739066e-01 4.772502e+00 1.161991e+00 -3.196352e+00 1.348796e+00 -1.083933e+01 1.159656e+00 -1.810806e+01 9.159932e-01 -2.541337e+01 8.302886e-01 -3.277112e+01 8.570035e-01 -4.000403e+01 9.378712e-01 -4.706942e+01 9.332676e-01 -5.371291e+01 9.524500e-01 -6.021700e+01 1.378627e+00 -6.669764e+01 2.283635e+00 -7.299101e+01 3.477215e+00 -7.903321e+01 5.356015e+00 -8.517337e+01 8.257631e+00 -9.152564e+01 
1.246895e+01 -9.252210e+01 1.441228e+01 -9.572223e+01 1.743993e+01 1.025410e+02 1.442724e+01 9.874355e+01 1.191383e+01 9.379703e+01 1.005195e+01 8.821834e+01 8.544364e+00 8.230631e+01 7.203275e+00 7.620391e+01 6.011673e+00 6.985127e+01 5.022052e+00 6.320540e+01 4.251434e+00 5.635678e+01 3.625011e+00 4.933004e+01 3.156562e+00 4.211092e+01 2.813861e+00 3.483888e+01 2.404257e+00 2.759460e+01 2.001822e+00 2.028354e+01 1.697750e+00 1.282656e+01 1.575533e+00 5.285244e+00 1.529960e+00 -2.300726e+00 1.506285e+00 -9.695371e+00 1.334384e+00 -1.689039e+01 1.205738e+00 -2.409919e+01 1.233199e+00 -3.130796e+01 1.398995e+00 -3.840765e+01 1.679968e+00 -4.538235e+01 2.001708e+00 -5.209067e+01 2.426301e+00 -5.866011e+01 3.126597e+00 -6.511277e+01 4.133835e+00 -7.132915e+01 5.364821e+00 -7.723717e+01 7.024371e+00 -8.298310e+01 9.244834e+00 -8.860529e+01 
1.102512e+01 -9.655827e+01 1.363085e+01 -1.005354e+02 1.627321e+01 1.049718e+02 1.384092e+01 1.009729e+02 1.134520e+01 9.575338e+01 9.369466e+00 8.981344e+01 7.806670e+00 8.351835e+01 6.481164e+00 7.704145e+01 5.337159e+00 7.038666e+01 4.387788e+00 6.351933e+01 3.640084e+00 5.649031e+01 3.051101e+00 4.932432e+01 2.586905e+00 4.204723e+01 2.205041e+00 3.473536e+01 1.805727e+00 2.740983e+01 1.433749e+00 1.999255e+01 1.165757e+00 1.240868e+01 1.057798e+00 4.700972e+00 1.050953e+00 -3.030606e+00 1.040554e+00 -1.062470e+01 9.327083e-01 -1.805552e+01 7.937246e-01 -2.543420e+01 7.183125e-01 -3.277873e+01 7.146431e-01 -4.003079e+01 7.770418e-01 -4.713314e+01 9.012592e-01 -5.401378e+01 1.148534e+00 -6.073290e+01 1.665469e+00 -6.732476e+01 2.531342e+00 -7.374976e+01 3.767686e+00 -7.998806e+01 5.533072e+00 -8.606980e+01 7.959604e+00 -9.183505e+01 
1.081741e+01 -9.477740e+01 1.296639e+01 -9.918951e+01 1.528963e+01 1.027083e+02 1.331907e+01 9.872487e+01 1.124592e+01 9.392953e+01 9.500655e+00 8.848686e+01 8.075108e+00 8.261856e+01 6.862121e+00 7.645740e+01 5.803921e+00 7.003754e+01 4.894976e+00 6.334339e+01 4.179937e+00 5.645337e+01 3.617124e+00 4.940410e+01 3.164936e+00 4.222420e+01 2.795979e+00 3.495608e+01 2.430275e+00 2.763441e+01 2.097478e+00 2.024541e+01 1.818020e+00 1.277649e+01 1.633724e+00 5.271428e+00 1.503692e+00 -2.230547e+00 1.401750e+00 -9.636560e+00 1.287561e+00 -1.694898e+01 1.209071e+00 -2.421836e+01 1.230409e+00 -3.145030e+01 1.346292e+00 -3.860251e+01 1.571998e+00 -4.563869e+01 1.886192e+00 -5.252149e+01 2.352644e+00 -5.926130e+01 3.031000e+00 -6.584416e+01 3.946334e+00 -7.222382e+01 5.111072e+00 -7.837174e+01 6.607117e+00 -8.429247e+01 8.501104e+00 -8.988606e+01 
9.351613e+00 -9.896373e+01 1.161472e+01 -1.039372e+02 1.375087e+01 1.053396e+02 1.215245e+01 1.008993e+02 1.032467e+01 9.578364e+01 8.659788e+00 9.003399e+01 7.265001e+00 8.384944e+01 6.080294e+00 7.737941e+01 5.056471e+00 7.069322e+01 4.177498e+00 6.375758e+01 3.497413e+00 5.667291e+01 2.980030e+00 4.947419e+01 2.537622e+00 4.218952e+01 2.173959e+00 3.483297e+01 1.812332e+00 2.740646e+01 1.494081e+00 1.990005e+01 1.239165e+00 1.229886e+01 1.066972e+00 4.646742e+00 9.679115e-01 -3.007346e+00 8.672912e-01 -1.058776e+01 7.674625e-01 -1.808462e+01 6.437886e-01 -2.552928e+01 5.713684e-01 -3.292505e+01 5.495263e-01 -4.025115e+01 6.129287e-01 -4.745882e+01 8.071838e-01 -5.451298e+01 1.147684e+00 -6.141484e+01 1.691470e+00 -6.817824e+01 2.500569e+00 -7.479418e+01 3.625301e+00 -8.124969e+01 5.138607e+00 -8.751975e+01 7.076351e+00 -9.349713e+01 
9.080801e+00 -9.777762e+01 1.086002e+01 -1.031275e+02 1.265884e+01 1.042732e+02 1.141461e+01 9.957466e+01 9.995235e+00 9.453333e+01 8.645048e+00 8.902932e+01 7.473719e+00 8.312098e+01 6.451538e+00 7.689814e+01 5.533013e+00 7.042918e+01 4.670773e+00 6.363132e+01 4.042983e+00 5.667092e+01 3.564000e+00 4.957770e+01 3.159945e+00 4.240125e+01 2.825715e+00 3.510555e+01 2.472171e+00 2.772330e+01 2.171846e+00 2.026937e+01 1.873063e+00 1.275815e+01 1.663182e+00 5.248723e+00 1.478625e+00 -2.254631e+00 1.347001e+00 -9.678622e+00 1.240337e+00 -1.706449e+01 1.160518e+00 -2.439659e+01 1.174796e+00 -3.170091e+01 1.236670e+00 -3.893834e+01 1.429732e+00 -4.608133e+01 1.687463e+00 -5.312461e+01 2.134140e+00 -6.004862e+01 2.765040e+00 -6.682080e+01 3.572882e+00 -7.341978e+01 4.580049e+00 -7.984141e+01 5.828802e+00 -8.608117e+01 7.341636e+00 -9.209115e+01 
7.515443e+00 -1.018419e+02 9.225741e+00 -1.076357e+02 1.082051e+01 1.071112e+02 9.903327e+00 1.019177e+02 8.781907e+00 9.646938e+01 7.630099e+00 9.062716e+01 6.572473e+00 8.440565e+01 5.605804e+00 7.788885e+01 4.729242e+00 7.118884e+01 3.878857e+00 6.410751e+01 3.290612e+00 5.693722e+01 2.889832e+00 4.968403e+01 2.480186e+00 4.238390e+01 2.185088e+00 3.497955e+01 1.821131e+00 2.746749e+01 1.521753e+00 1.988829e+01 1.246611e+00 1.223598e+01 1.029037e+00 4.589943e+00 8.951449e-01 -3.062530e+00 7.314315e-01 -1.064798e+01 6.468185e-01 -1.819401e+01 4.852144e-01 -2.571089e+01 4.105431e-01 -3.318773e+01 3.466891e-01 -4.063124e+01 3.875866e-01 -4.797247e+01 6.193815e-01 -5.519282e+01 9.943647e-01 -6.226164e+01 1.513596e+00 -6.920515e+01 2.222870e+00 -7.602909e+01 3.163684e+00 -8.273461e+01 4.372094e+00 -8.930872e+01 5.847342e+00 -9.570316e+01 
7.126052e+00 -1.009533e+02 8.376518e+00 -1.070759e+02 9.575587e+00 1.068739e+02 9.013598e+00 1.013721e+02 8.291767e+00 9.581703e+01 7.501262e+00 9.002952e+01 6.737122e+00 8.393469e+01 5.988514e+00 7.757115e+01 5.256434e+00 7.107407e+01 4.334964e+00 6.404266e+01 3.843083e+00 5.697532e+01 3.482057e+00 4.980938e+01 3.149607e+00 4.266843e+01 2.907627e+00 3.531850e+01 2.519145e+00 2.786821e+01 2.260292e+00 2.033576e+01 1.871779e+00 1.274540e+01 1.677814e+00 5.215466e+00 1.422156e+00 -2.346043e+00 1.299152e+00 -9.768240e+00 1.194323e+00 -1.724400e+01 1.076087e+00 -2.462933e+01 1.100894e+00 -3.205284e+01 1.058912e+00 -3.939572e+01 1.256987e+00 -4.666682e+01 1.375633e+00 -5.387928e+01 1.786663e+00 -6.100705e+01 2.357705e+00 -6.797709e+01 3.029117e+00 -7.479325e+01 3.830372e+00 -8.149202e+01 4.789592e+00 -8.809422e+01 5.903584e+00 -9.459125e+01 
5.487654e+00 -1.047697e+02 6.582208e+00 -1.112641e+02 7.514941e+00 1.098351e+02 7.276859e+00 1.038765e+02 6.860371e+00 9.789556e+01 6.331465e+00 9.174344e+01 5.761935e+00 8.530994e+01 5.101336e+00 7.861304e+01 4.434258e+00 7.197099e+01 3.471838e+00 6.450332e+01 2.994129e+00 5.724155e+01 2.807363e+00 4.992899e+01 2.390950e+00 4.265633e+01 2.277395e+00 3.521404e+01 1.823022e+00 2.757899e+01 1.547590e+00 1.993927e+01 1.200550e+00 1.217729e+01 9.379515e-01 4.537468e+00 8.250401e-01 -3.174138e+00 5.754406e-01 -1.076049e+01 5.933661e-01 -1.835657e+01 3.040566e-01 -2.597412e+01 2.650346e-01 -3.354081e+01 8.518539e-02 -4.115795e+01 6.732108e-02 -4.864944e+01 3.183500e-01 -5.604923e+01 7.159260e-01 -6.324729e+01 1.177785e+00 -7.033697e+01 1.750068e+00 -7.734289e+01 2.468365e+00 -8.429356e+01 3.351917e+00 -9.119731e+01 4.380465e+00 -9.803561e+01 
4.993793e+00 -1.040068e+02 5.647290e+00 -1.107855e+02 6.111512e+00 1.101386e+02 6.263054e+00 1.038975e+02 6.235572e+00 9.776660e+01 6.092978e+00 9.158141e+01 5.898255e+00 8.515548e+01 5.562130e+00 7.849039e+01 5.141660e+00 7.209015e+01 3.812257e+00 6.443288e+01 3.555162e+00 5.730411e+01 3.363167e+00 5.004352e+01 3.119817e+00 4.307979e+01 3.119442e+00 3.563563e+01 2.548606e+00 2.804911e+01 2.428954e+00 2.046289e+01 1.748571e+00 1.269164e+01 1.706704e+00 5.209969e+00 1.268835e+00 -2.526788e+00 1.243976e+00 -9.840619e+00 1.175776e+00 -1.748893e+01 9.439274e-01 -2.489084e+01 1.076281e+00 -3.249780e+01 7.602292e-01 -3.997839e+01 1.117898e+00 -4.737435e+01 8.948615e-01 -5.478973e+01 1.324341e+00 -6.213199e+01 1.834692e+00 -6.923489e+01 2.338533e+00 -7.620628e+01 2.910444e+00 -8.315198e+01 3.566812e+00 -9.010617e+01 4.279644e+00 -9.706608e+01 
3.327133e+00 -1.075234e+02 3.775177e+00 -1.146197e+02 3.914564e+00 1.131500e+02 4.389827e+00 1.064979e+02 4.630064e+00 9.995763e+01 4.739948e+00 9.342409e+01 4.816816e+00 8.668913e+01 4.699847e+00 7.958113e+01 4.454810e+00 7.315487e+01 2.875897e+00 6.464006e+01 2.457775e+00 5.749875e+01 2.759336e+00 5.025187e+01 2.195496e+00 4.300337e+01 2.596308e+00 3.564748e+01 1.794978e+00 2.765268e+01 1.610870e+00 2.008799e+01 1.068141e+00 1.206508e+01 7.477099e-01 4.505902e+00 7.642609e-01 -3.310200e+00 3.057616e-01 -1.092753e+01 7.185080e-01 -1.848239e+01 2.978949e-02 -2.635105e+01 2.346572e-01 -3.392320e+01 -2.921055e-01 -4.183733e+01 -3.514600e-01 -4.954937e+01 -1.604502e-01 -5.714511e+01 3.531436e-01 -6.433978e+01 7.297571e-01 -7.146930e+01 1.124932e+00 -7.859473e+01 1.602841e+00 -8.577401e+01 2.163835e+00 -9.300639e+01 2.762377e+00 -1.002686e+02 
2.768632e+00 -1.067896e+02 2.797163e+00 -1.141277e+02 2.432809e+00 1.137534e+02 3.318690e+00 1.068549e+02 3.891207e+00 1.001944e+02 4.315393e+00 9.367505e+01 4.747298e+00 8.697522e+01 5.252720e+00 7.994106e+01 5.741764e+00 7.322282e+01 2.642251e+00 6.436340e+01 3.042109e+00 5.750086e+01 3.079443e+00 5.037072e+01 3.055721e+00 4.360349e+01 3.663225e+00 3.628731e+01 2.535343e+00 2.800375e+01 2.784973e+00 2.083701e+01 1.312257e+00 1.244116e+01 1.803003e+00 5.329205e+00 8.648804e-01 -2.825185e+00 1.157605e+00 -9.912317e+00 1.254237e+00 -1.767636e+01 7.533657e-01 -2.531792e+01 1.191529e+00 -3.282406e+01 2.677222e-01 -4.080731e+01 1.098739e+00 -4.818955e+01 1.523551e-01 -5.607474e+01 7.699534e-01 -6.341620e+01 1.184005e+00 -7.042537e+01 1.505853e+00 -7.747846e+01 1.864497e+00 -8.466856e+01 2.233257e+00 -9.196897e+01 2.556301e+00 -9.935356e+01 
1.121683e+00 -1.099973e+02 9.251009e-01 -1.176081e+02 2.592571e-01 1.167640e+02 1.461217e+00 1.094894e+02 2.240459e+00 1.024136e+02 2.750481e+00 9.547558e+01 3.207357e+00 8.868417e+01 4.241348e+00 8.213529e+01 5.116578e+00 7.283490e+01 1.254425e+00 6.434123e+01 1.215175e+00 5.712144e+01 2.309593e+00 5.135816e+01 1.855114e+00 4.305851e+01 3.392942e+00 3.634967e+01 1.724546e+00 2.768317e+01 1.781186e+00 1.980988e+01 5.329109e-01 1.243912e+01 2.991011e-01 3.765648e+00 4.043359e-01 -2.791936e+00 -4.026494e-01 -1.167806e+01 1.195044e+00 -1.827980e+01 -5.725676e-01 -2.691010e+01 6.133754e-01 -3.457065e+01 -9.360242e-01 -4.206958e+01 -8.598941e-01 -5.163396e+01 -1.144634e+00 -5.860544e+01 2.810271e-02 -6.538294e+01 1.663185e-01 -7.234997e+01 3.459997e-01 -7.960020e+01 6.198233e-01 -8.706266e+01 8.892545e-01 -9.464025e+01 1.080716e+00 -1.022958e+02 
5.512530e-01 -1.092401e+02 -2.267485e-02 -1.170611e+02 -1.124063e+00 1.175104e+02 4.589428e-01 1.099634e+02 1.548520e+00 1.027026e+02 2.328900e+00 9.583424e+01 3.129111e+00 8.979741e+01 4.804194e+00 8.520016e+01 7.929555e+00 7.292814e+01 1.095242e+00 6.392373e+01 1.818690e+00 5.581728e+01 2.089750e+00 5.276653e+01 3.933361e+00 4.284581e+01 4.241485e+00 3.826177e+01 3.401186e+00 2.730545e+01 2.529356e+00 2.070166e+01 -7.488778e-02 1.327800e+01 1.527882e+00 3.471854e+00 -8.088727e-01 -1.358929e+00 1.119004e+00 -1.211830e+01 9.325033e-01 -1.634073e+01 1.254584e+00 -2.709789e+01 6.656322e-01 -3.275645e+01 -2.817981e-01 -4.077612e+01 -4.809761e-01 -5.025497e+01 -1.326268e+00 -5.893945e+01 -2.211606e-02 -6.429289e+01 2.717154e-01 -7.111383e+01 5.367790e-01 -7.845587e+01 7.623732e-01 -8.598813e+01 8.749394e-01 -9.363536e+01 8.244257e-01 -1.013922e+02 
-1.029463e+00 -1.121519e+02 -1.828680e+00 -1.202115e+02 -3.209693e+00 1.204542e+02 -1.263562e+00 1.126220e+02 1.607208e-01 1.051316e+02 1.256845e+00 9.812280e+01 2.219201e+00 9.190453e+01 3.344946e+00 8.643718e+01 4.507284e+00 7.461727e+01 7.889168e-01 6.524356e+01 1.343557e+00 5.657957e+01 2.146022e+00 5.352174e+01 3.503454e+00 4.330330e+01 4.132802e+00 3.815569e+01 3.230828e+00 2.781958e+01 2.442035e+00 1.940328e+01 -3.541455e-01 1.407148e+01 1.764519e+00 1.800746e+00 -1.330312e+00 -8.188791e-01 1.409287e+00 -1.324625e+01 4.942242e-01 -1.686106e+01 1.293313e+00 -2.737745e+01 3.375498e-01 -3.502513e+01 -6.175443e-01 -3.956450e+01 1.001522e+00 -5.588877e+01 -2.507761e+00 -6.021978e+01 -1.797822e+00 -6.471083e+01 -1.005198e+00 -7.243451e+01 -5.432523e-01 -8.034780e+01 -3.600408e-01 -8.821146e+01 -3.699538e-01 -9.610628e+01 -5.733977e-01 -1.040871e+02 
-1.563031e+00 -1.113426e+02 -2.700261e+00 -1.195881e+02 -4.476829e+00 1.213104e+02 -2.177637e+00 1.132649e+02 -4.232471e-01 1.056042e+02 9.696599e-01 9.832723e+01 2.045586e+00 9.131538e+01 2.645243e+00 8.391039e+01 1.594680e+00 7.411141e+01 1.380460e+00 6.574812e+01 1.378593e+00 5.764294e+01 3.270414e+00 5.232021e+01 2.382959e+00 4.327976e+01 4.193265e+00 3.716805e+01 2.726933e+00 2.771816e+01 2.390096e+00 2.042380e+01 9.105132e-01 1.288866e+01 9.370960e-01 3.882625e+00 2.701125e-01 -1.992823e+00 6.771716e-01 -1.178822e+01 1.414021e+00 -1.713766e+01 1.008376e+00 -2.695000e+01 1.052033e+00 -3.327848e+01 -1.888834e-01 -4.098386e+01 4.715923e-01 -5.024956e+01 -2.058528e+00 -5.903055e+01 -1.254017e+00 -6.475150e+01 -6.623538e-01 -7.188995e+01 -3.156773e-01 -7.947982e+01 -2.354105e-01 -8.723777e+01 -4.010723e-01 -9.512961e+01 -8.252920e-01 -1.031677e+02 
-3.043794e+00 -1.139777e+02 -4.395272e+00 -1.224371e+02 -6.445603e+00 1.240805e+02 -3.853013e+00 1.157654e+02 -1.854483e+00 1.078093e+02 -2.421897e-01 1.001255e+02 1.044758e+00 9.233395e+01 1.853649e+00 8.423145e+01 2.944990e+00 7.695318e+01 6.716512e-01 6.718400e+01 1.923111e+00 5.960392e+01 2.380613e+00 5.207807e+01 2.292972e+00 4.456304e+01 3.431339e+00 3.699857e+01 1.949959e+00 2.823816e+01 2.583176e+00 2.066655e+01 8.704484e-01 1.236916e+01 1.333263e+00 4.516558e+00 5.539943e-01 -3.191393e+00 4.447473e-01 -1.127253e+01 1.156610e+00 -1.865364e+01 -1.166148e-01 -2.710732e+01 8.201093e-01 -3.478454e+01 -8.773273e-01 -4.275256e+01 -4.043327e-01 -5.193212e+01 -1.631049e+00 -5.921262e+01 -1.109978e+00 -6.629009e+01 -1.150793e+00 -7.368129e+01 -1.160567e+00 -8.139464e+01 -1.263452e+00 -8.932360e+01 -1.566222e+00 -9.740033e+01 -2.134997e+00 -1.056203e+02 
-3.500369e+00 -1.130997e+02 -5.155866e+00 -1.217210e+02 -7.545185e+00 1.248021e+02 -4.710673e+00 1.162249e+02 -2.515969e+00 1.079689e+02 -8.141470e-01 9.992963e+01 4.416164e-01 9.187569e+01 1.212830e+00 8.370361e+01 1.923240e+00 7.587111e+01 1.305024e+00 6.733482e+01 1.834598e+00 5.953570e+01 2.550289e+00 5.185167e+01 2.500567e+00 4.439383e+01 3.063113e+00 3.667606e+01 2.372763e+00 2.854442e+01 2.373503e+00 2.084055e+01 1.618780e+00 1.260743e+01 1.590615e+00 5.086421e+00 1.271880e+00 -2.989281e+00 1.127391e+00 -1.040914e+01 1.367404e+00 -1.819553e+01 7.406473e-01 -2.601477e+01 9.686977e-01 -3.363695e+01 1.195554e-01 -4.179604e+01 3.434403e-01 -4.940445e+01 -6.891383e-01 -5.773961e+01 -4.489118e-01 -6.539288e+01 -5.567988e-01 -7.288608e+01 -7.618574e-01 -8.052412e+01 -1.057827e+00 -8.837363e+01 -1.551363e+00 -9.642059e+01 -2.335803e+00 -1.046635e+02 
-4.850862e+00 -1.154851e+02 -6.700265e+00 -1.242963e+02 -9.338042e+00 1.272607e+02 -6.261144e+00 1.184201e+02 -3.840394e+00 1.098530e+02 -1.930744e+00 1.014634e+02 -4.763746e-01 9.314399e+01 6.015452e-01 8.499061e+01 1.574625e+00 7.715200e+01 8.799200e-01 6.858972e+01 1.532637e+00 6.056778e+01 1.927222e+00 5.252730e+01 2.069442e+00 4.485246e+01 2.454531e+00 3.689207e+01 1.942124e+00 2.871913e+01 2.024140e+00 2.077593e+01 1.363904e+00 1.255938e+01 1.283527e+00 4.765980e+00 9.611175e-01 -3.316060e+00 6.774573e-01 -1.103916e+01 7.938795e-01 -1.895560e+01 1.414188e-01 -2.694174e+01 2.533742e-01 -3.483944e+01 -5.220835e-01 -4.302988e+01 -6.908804e-01 -5.100865e+01 -1.059971e+00 -5.900956e+01 -9.638058e-01 -6.675871e+01 -1.181207e+00 -7.448283e+01 -1.525218e+00 -8.231610e+01 -1.972399e+00 -9.032288e+01 -2.606784e+00 -9.851423e+01 -3.530901e+00 -1.068987e+02 
-5.206008e+00 -1.145233e+02 -7.340927e+00 -1.234672e+02 -1.033372e+01 1.277674e+02 -7.041701e+00 1.187158e+02 -4.460956e+00 1.099404e+02 -2.440729e+00 1.013758e+02 -9.065405e-01 9.295557e+01 1.970121e-01 8.468210e+01 9.904471e-01 7.655553e+01 1.118772e+00 6.837653e+01 1.579460e+00 6.034848e+01 2.044419e+00 5.241785e+01 2.244010e+00 4.469274e+01 2.455747e+00 3.679110e+01 2.240044e+00 2.887365e+01 2.156537e+00 2.091029e+01 1.799680e+00 1.292524e+01 1.668190e+00 5.107266e+00 1.427818e+00 -2.799047e+00 1.257282e+00 -1.044105e+01 1.168984e+00 -1.826912e+01 8.166360e-01 -2.599359e+01 7.099064e-01 -3.386294e+01 2.324409e-01 -4.177313e+01 6.753202e-02 -4.963317e+01 -4.046066e-01 -5.765179e+01 -4.983727e-01 -6.559626e+01 -7.254246e-01 -7.344536e+01 -1.141372e+00 -8.131187e+01 -1.724873e+00 -8.930503e+01 -2.530277e+00 -9.748237e+01 -3.652960e+00 -1.058790e+02 
-6.415567e+00 -1.166876e+02 -8.721532e+00 -1.257904e+02 -1.193195e+01 1.299049e+02 -8.423725e+00 1.206421e+02 -5.643927e+00 1.116415e+02 -3.440383e+00 1.028650e+02 -1.726377e+00 9.428811e+01 -4.282599e-01 8.590773e+01 4.845647e-01 7.769805e+01 6.702740e-01 6.936353e+01 1.145070e+00 6.117899e+01 1.538690e+00 5.304645e+01 1.770078e+00 4.508459e+01 1.964555e+00 3.704122e+01 1.823522e+00 2.895354e+01 1.765914e+00 2.088612e+01 1.467000e+00 1.277981e+01 1.282548e+00 4.813076e+00 1.038236e+00 -3.199038e+00 7.739665e-01 -1.106390e+01 6.263576e-01 -1.900229e+01 2.382289e-01 -2.694110e+01 4.981642e-02 -3.492152e+01 -4.074493e-01 -4.299205e+01 -6.954438e-01 -5.100339e+01 -9.655750e-01 -5.904318e+01 -1.112301e+00 -6.702019e+01 -1.416476e+00 -7.498129e+01 -1.904679e+00 -8.298940e+01 -2.579170e+00 -9.111493e+01 -3.490104e+00 -9.941141e+01 -4.728923e+00 -1.079212e+02 
-6.656567e+00 -1.156268e+02 -9.222035e+00 -1.248334e+02 -1.277166e+01 1.302133e+02 -9.060869e+00 1.208046e+02 -6.131324e+00 1.116759e+02 -3.813608e+00 1.027933e+02 -2.016593e+00 9.412904e+01 -6.727949e-01 8.565221e+01 2.754042e-01 7.733549e+01 7.880278e-01 6.910695e+01 1.276365e+00 6.095935e+01 1.705693e+00 5.290822e+01 1.989394e+00 4.498164e+01 2.151744e+00 3.702455e+01 2.122881e+00 2.907159e+01 2.042880e+00 2.107362e+01 1.851547e+00 1.309955e+01 1.694024e+00 5.190849e+00 1.489995e+00 -2.688824e+00 1.303164e+00 -1.046110e+01 1.111957e+00 -1.827414e+01 8.477559e-01 -2.606278e+01 6.159866e-01 -3.394561e+01 2.716040e-01 -4.185933e+01 -1.165292e-02 -4.980577e+01 -3.800942e-01 -5.781064e+01 -6.559366e-01 -6.583662e+01 -1.008731e+00 -7.385077e+01 -1.550849e+00 -8.188361e+01 -2.319165e+00 -9.000898e+01 -3.362352e+00 -9.829985e+01 -4.766855e+00 -1.068180e+02 
-7.721741e+00 -1.175959e+02 -1.042733e+01 -1.269286e+02 -1.415945e+01 1.320480e+02 -1.025815e+01 1.224834e+02 -7.159828e+00 1.131961e+02 -4.689409e+00 1.041602e+02 -2.751136e+00 9.535908e+01 -1.277281e+00 8.676583e+01 -2.399717e-01 7.833932e+01 3.034534e-01 6.995308e+01 8.146942e-01 6.164829e+01 1.233376e+00 5.342432e+01 1.526543e+00 4.532623e+01 1.705100e+00 3.722801e+01 1.701210e+00 2.913025e+01 1.642870e+00 2.101861e+01 1.460100e+00 1.291718e+01 1.277157e+00 4.881701e+00 1.048448e+00 -3.131855e+00 8.058480e-01 -1.106316e+01 5.783321e-01 -1.901326e+01 2.725540e-01 -2.696216e+01 3.362473e-04 -3.496875e+01 -3.632570e-01 -4.302243e+01 -6.828345e-01 -5.108701e+01 -9.960100e-01 -5.917214e+01 -1.289410e+00 -6.725972e+01 -1.694392e+00 -7.534990e+01 -2.291330e+00 -8.347542e+01 -3.121250e+00 -9.169751e+01 -4.237254e+00 -1.000818e+02 -5.727429e+00 -1.086900e+02 
-7.834957e+00 -1.164276e+02 -1.076066e+01 -1.258364e+02 -1.478555e+01 1.321524e+02 -1.070706e+01 1.224916e+02 -7.478623e+00 1.131262e+02 -4.909067e+00 1.040207e+02 -2.894810e+00 9.515897e+01 -1.350174e+00 8.651631e+01 -2.176739e-01 7.803996e+01 4.543261e-01 6.972842e+01 1.004873e+00 6.142594e+01 1.453448e+00 5.326120e+01 1.820945e+00 4.525165e+01 1.994958e+00 3.724086e+01 2.059798e+00 2.927478e+01 1.994181e+00 2.121568e+01 1.852852e+00 1.322839e+01 1.704487e+00 5.260753e+00 1.492551e+00 -2.637954e+00 1.327972e+00 -1.045109e+01 1.095110e+00 -1.828913e+01 8.784712e-01 -2.609260e+01 5.956712e-01 -3.402634e+01 2.878841e-01 -4.194412e+01 -3.368368e-02 -4.996261e+01 -4.374328e-01 -5.798659e+01 -8.386779e-01 -6.608899e+01 -1.290535e+00 -7.418996e+01 -1.937509e+00 -8.230545e+01 -2.839978e+00 -9.051048e+01 -4.055273e+00 -9.888309e+01 -5.674688e+00 -1.074934e+02 
-8.748895e+00 -1.182274e+02 -1.177577e+01 -1.277304e+02 -1.594016e+01 1.336849e+02 -1.170549e+01 1.239159e+02 -8.343196e+00 1.144396e+02 -5.653105e+00 1.052175e+02 -3.533103e+00 9.623843e+01 -1.900548e+00 8.749668e+01 -6.925192e-01 7.891412e+01 -4.086834e-02 7.044106e+01 5.451889e-01 6.198329e+01 9.997804e-01 5.365687e+01 1.366563e+00 4.553090e+01 1.574274e+00 3.739093e+01 1.630091e+00 2.930234e+01 1.592580e+00 2.112873e+01 1.424715e+00 1.301191e+01 1.266398e+00 4.935000e+00 1.018682e+00 -3.111017e+00 8.108613e-01 -1.104308e+01 5.647456e-01 -1.902736e+01 2.967012e-01 -2.695996e+01 8.296759e-03 -3.502156e+01 -3.488574e-01 -4.307069e+01 -6.706950e-01 -5.119069e+01 -1.069711e+00 -5.931735e+01 -1.463937e+00 -6.749226e+01 -1.946756e+00 -7.564589e+01 -2.636049e+00 -8.381797e+01 -3.581350e+00 -9.209027e+01 -4.842895e+00 -1.005354e+02 -6.517435e+00 -1.092178e+02 
-8.715102e+00 -1.169513e+02 -1.191453e+01 -1.265023e+02 -1.631805e+01 1.335479e+02 -1.193975e+01 1.237291e+02 -8.477438e+00 1.142235e+02 -5.708579e+00 1.049714e+02 -3.525095e+00 9.595876e+01 -1.816638e+00 8.722889e+01 -4.654589e-01 7.860374e+01 2.093780e-01 7.027290e+01 7.926023e-01 6.170615e+01 1.251725e+00 5.343647e+01 1.752715e+00 4.548302e+01 1.934593e+00 3.740424e+01 2.085890e+00 2.952343e+01 1.992208e+00 2.129844e+01 1.838868e+00 1.333514e+01 1.703463e+00 5.291947e+00 1.434035e+00 -2.645314e+00 1.347277e+00 -1.041027e+01 1.070901e+00 -1.832500e+01 9.419524e-01 -2.603940e+01 6.089648e-01 -3.413846e+01 3.083622e-01 -4.198373e+01 -1.223888e-02 -5.012769e+01 -5.073477e-01 -5.813729e+01 -1.035467e+00 -6.635450e+01 -1.541229e+00 -7.447523e+01 -2.270830e+00 -8.258853e+01 -3.265616e+00 -9.082102e+01 -4.592519e+00 -9.924751e+01 -6.358495e+00 -1.079267e+02 
-9.466283e+00 -1.186080e+02 -1.272235e+01 -1.282221e+02 -1.721428e+01 1.347641e+02 -1.272399e+01 1.248813e+02 -9.171599e+00 1.153115e+02 -6.317365e+00 1.059867e+02 -4.053704e+00 9.687555e+01 -2.292473e+00 8.806342e+01 -8.564946e-01 7.940927e+01 -2.807010e-01 7.079801e+01 3.454870e-01 6.211796e+01 8.159035e-01 5.369074e+01 1.278738e+00 4.569267e+01 1.556084e+00 3.751617e+01 1.634047e+00 2.949545e+01 1.609964e+00 2.120315e+01 1.377336e+00 1.305685e+01 1.249835e+00 4.979306e+00 9.410230e-01 -3.167103e+00 7.866014e-01 -1.098478e+01 5.610277e-01 -1.905679e+01 3.243488e-01 -2.689682e+01 6.687980e-02 -3.508336e+01 -3.582880e-01 -4.312175e+01 -6.216984e-01 -5.130340e+01 -1.153579e+00 -5.948607e+01 -1.635345e+00 -6.775088e+01 -2.166351e+00 -7.587003e+01 -2.926559e+00 -8.400878e+01 -3.940339e+00 -9.229516e+01 -5.284503e+00 -1.007857e+02 -7.074138e+00 -1.095262e+02 
-9.260948e+00 -1.172285e+02 -1.263642e+01 -1.268619e+02 -1.730726e+01 1.343338e+02 -1.272262e+01 1.244418e+02 -9.117990e+00 1.148993e+02 -6.214919e+00 1.056248e+02 -3.898929e+00 9.651966e+01 -2.091233e+00 8.776930e+01 -4.279873e-01 7.915337e+01 2.119884e-01 7.062651e+01 5.905233e-01 6.166772e+01 1.060849e+00 5.334155e+01 1.737822e+00 4.571488e+01 1.988991e+00 3.751387e+01 2.266867e+00 2.985562e+01 2.003074e+00 2.131634e+01 1.866714e+00 1.335989e+01 1.612836e+00 5.352783e+00 1.339213e+00 -2.807195e+00 1.299538e+00 -1.026751e+01 1.042583e+00 -1.840953e+01 1.057766e+00 -2.583530e+01 6.634444e-01 -3.426905e+01 3.694421e-01 -4.200097e+01 3.847512e-02 -5.029127e+01 -4.865279e-01 -5.835571e+01 -1.288666e+00 -6.669991e+01 -1.804448e+00 -7.464460e+01 -2.563706e+00 -8.268096e+01 -3.574375e+00 -9.093298e+01 -4.941230e+00 -9.941084e+01 -6.784926e+00 -1.081452e+02 
-9.834827e+00 -1.187669e+02 -1.321798e+01 -1.284338e+02 -1.791425e+01 1.352146e+02 -1.327428e+01 1.252953e+02 -9.634251e+00 1.157287e+02 -6.700242e+00 1.064406e+02 -4.336538e+00 9.733460e+01 -2.450556e+00 8.851960e+01 -7.740821e-01 7.998840e+01 -1.993519e-01 7.074241e+01 8.960761e-02 6.177734e+01 5.943564e-01 5.362431e+01 1.196923e+00 4.568290e+01 1.629706e+00 3.776746e+01 1.794799e+00 2.964350e+01 1.598098e+00 2.126407e+01 1.406154e+00 1.300678e+01 1.109715e+00 4.976461e+00 8.498701e-01 -3.260124e+00 6.275825e-01 -1.102294e+01 5.318052e-01 -1.892738e+01 3.440898e-01 -2.689821e+01 1.266201e-01 -3.497949e+01 -3.534944e-01 -4.323138e+01 -5.431331e-01 -5.146154e+01 -1.147184e+00 -5.991978e+01 -1.932184e+00 -6.804979e+01 -2.440689e+00 -7.590905e+01 -3.184123e+00 -8.398426e+01 -4.169996e+00 -9.230900e+01 -5.521944e+00 -1.008546e+02 -7.359226e+00 -1.096429e+02 
-9.433698e+00 -1.172856e+02 -1.287515e+01 -1.269468e+02 -1.765011e+01 1.344648e+02 -1.300635e+01 1.245391e+02 -9.386431e+00 1.149796e+02 -6.483641e+00 1.057901e+02 -4.089013e+00 9.705411e+01 -2.076862e+00 8.844302e+01 -6.881426e-01 8.021024e+01 1.719393e+00 7.001209e+01 -4.076919e-01 6.059594e+01 8.962073e-01 5.377880e+01 1.483848e+00 4.517868e+01 2.103072e+00 3.831762e+01 3.058734e+00 2.978800e+01 1.395779e+00 2.146649e+01 2.670579e+00 1.321838e+01 6.015278e-01 5.200891e+00 1.714272e+00 -2.668898e+00 6.471535e-01 -1.078864e+01 1.008236e+00 -1.772710e+01 1.341434e+00 -2.627764e+01 3.515097e-01 -3.372071e+01 1.071816e+00 -4.216601e+01 -5.309437e-01 -5.035942e+01 4.437898e-01 -5.963360e+01 -2.206132e+00 -6.681498e+01 -2.291046e+00 -7.439238e+01 -2.789865e+00 -8.253324e+01 -3.696586e+00 -9.087834e+01 -5.047534e+00 -9.940941e+01 -6.913629e+00 -1.081775e+02 
-9.819336e+00 -1.187245e+02 -1.321496e+01 -1.283927e+02 -1.793742e+01 1.350111e+02 -1.331076e+01 1.250806e+02 -9.711320e+00 1.155079e+02 -6.824050e+00 1.063363e+02 -4.403397e+00 9.772910e+01 -2.302722e+00 8.923243e+01 -9.394255e-01 8.101194e+01 2.269888e+00 7.028997e+01 -1.350451e+00 6.015750e+01 4.349323e-01 5.438569e+01 1.114418e+00 4.491649e+01 1.756595e+00 3.870649e+01 3.059021e+00 2.966637e+01 6.232920e-01 2.118181e+01 2.537073e+00 1.301523e+01 -3.091567e-01 4.555949e+00 1.380825e+00 -2.936432e+00 -4.283199e-03 -1.172905e+01 5.132465e-01 -1.807105e+01 1.000012e+00 -2.727211e+01 -3.054614e-01 -3.445745e+01 7.688132e-01 -4.306686e+01 -1.294755e+00 -5.175374e+01 2.287702e-01 -6.125348e+01 -2.958946e+00 -6.784316e+01 -2.897762e+00 -7.547330e+01 -3.307165e+00 -8.375710e+01 -4.173964e+00 -9.219426e+01 -5.499031e+00 -1.007844e+02 -7.336018e+00 -1.095925e+02 