# vtk DataFile Version 2.0
Comment goes here
ASCII

DATASET STRUCTURED_POINTS
FIELD FieldData 1
TIME 1 1 double
0.03600000
DIMENSIONS    64   64   1

ORIGIN    0.000   0.000   0.000
SPACING   0.03125 0.03125   1.000

POINT_DATA   4096
SCALARS P double
LOOKUP_TABLE default

-3.478314e+01 -1.942350e+02 -1.761169e+01 -2.056766e+02 1.217524e+01 1.222467e+02 -1.906002e+01 1.201976e+02 -2.641641e+01 1.128001e+02 -2.646238e+01 9.948381e+01 -2.473807e+01 8.776810e+01 -2.451863e+01 7.605384e+01 -2.138039e+01 5.847863e+01 -1.426505e+01 4.296149e+01 -1.307082e+01 3.352711e+01 -1.783074e+01 2.705239e+01 -2.116855e+01 1.465307e+01 -1.880382e+01 -1.498170e+00 -1.429697e+01 -2.009347e+01 -1.017363e+01 -3.556797e+01 -1.235589e+01 -4.349106e+01 -2.067993e+01 -4.793187e+01 -3.198904e+01 -5.041072e+01 -4.299860e+01 -5.369590e+01 -5.194667e+01 -5.884409e+01 -5.942212e+01 -6.492713e+01 -6.717964e+01 -6.721542e+01 -7.703569e+01 -7.155772e+01 -8.103020e+01 -8.081582e+01 -7.950606e+01 -9.561845e+01 -7.097303e+01 -1.153697e+02 -6.076271e+01 -1.319507e+02 -5.462271e+01 -1.444150e+02 -5.101212e+01 -1.535329e+02 -4.667425e+01 -1.637593e+02 -4.224314e+01 -1.680238e+02 
-1.141309e+01 -1.291958e+02 -1.909455e+00 -1.362219e+02 1.946066e+01 1.079085e+02 -3.198787e+00 1.052648e+02 -7.488243e+00 9.954566e+01 -7.583224e+00 9.055970e+01 -7.070560e+00 8.271958e+01 -7.637361e+00 7.497727e+01 -6.653399e+00 6.363335e+01 -3.080412e+00 5.319090e+01 -2.635099e+00 4.588120e+01 -5.196179e+00 4.009519e+01 -6.866388e+00 3.100873e+01 -5.546152e+00 2.018131e+01 -3.286094e+00 7.997667e+00 -1.100019e+00 -2.750708e+00 -2.000049e+00 -9.637051e+00 -5.775194e+00 -1.514201e+01 -1.071879e+01 -1.989620e+01 -1.523211e+01 -2.523107e+01 -1.853584e+01 -3.167622e+01 -2.104332e+01 -3.861066e+01 -2.393421e+01 -4.309964e+01 -2.836622e+01 -4.858762e+01 -2.988934e+01 -5.626702e+01 -2.903266e+01 -6.643658e+01 -2.490780e+01 -7.885533e+01 -2.027570e+01 -8.925428e+01 -1.805675e+01 -9.741861e+01 -1.704681e+01 -1.038627e+02 -1.550973e+01 -1.108720e+02 -1.408481e+01 -1.134728e+02 
2.333846e+00 -8.783795e+01 4.396725e+00 -9.094049e+01 1.140510e+01 9.524799e+01 4.415768e+00 9.234208e+01 3.517542e+00 8.809410e+01 3.334121e+00 8.279181e+01 3.032873e+00 7.748729e+01 2.410593e+00 7.198148e+01 2.062777e+00 6.542271e+01 2.391799e+00 5.874814e+01 2.193008e+00 5.234636e+01 1.570747e+00 4.602201e+01 1.231475e+00 3.904395e+01 1.374357e+00 3.198075e+01 1.579197e+00 2.467590e+01 1.894203e+00 1.752147e+01 1.864902e+00 1.092685e+01 1.546150e+00 4.293901e+00 1.188265e+00 -2.338505e+00 9.568112e-01 -9.169852e+00 9.670802e-01 -1.626368e+01 1.081065e+00 -2.342368e+01 1.040092e+00 -2.995379e+01 6.536393e-01 -3.665671e+01 7.563225e-01 -4.344776e+01 1.040584e+00 -5.030964e+01 1.729492e+00 -5.718978e+01 2.338694e+00 -6.337838e+01 2.425128e+00 -6.899919e+01 2.365645e+00 -7.413843e+01 2.480681e+00 -7.911969e+01 2.464049e+00 -8.222474e+01 
2.671079e+00 -9.080031e+01 4.488186e+00 -9.464987e+01 5.640206e+00 9.814034e+01 4.610507e+00 9.466854e+01 3.558560e+00 9.007803e+01 3.007503e+00 8.464153e+01 2.577442e+00 7.891428e+01 2.121145e+00 7.285907e+01 1.913037e+00 6.617845e+01 2.054260e+00 5.935752e+01 1.967533e+00 5.270729e+01 1.671006e+00 4.607608e+01 1.542153e+00 3.903534e+01 1.710688e+00 3.173810e+01 1.975549e+00 2.427832e+01 2.157313e+00 1.699633e+01 1.988518e+00 1.015339e+01 1.485825e+00 3.482103e+00 8.922962e-01 -3.156714e+00 4.377262e-01 -9.928531e+00 2.184106e-01 -1.687563e+01 1.303840e-01 -2.381280e+01 -3.779983e-02 -3.044763e+01 -3.338022e-01 -3.716222e+01 -3.280262e-01 -4.405313e+01 -2.630457e-02 -5.111694e+01 5.547536e-01 -5.814969e+01 1.105761e+00 -6.468397e+01 1.371404e+00 -7.063505e+01 1.509366e+00 -7.609269e+01 1.743057e+00 -8.118818e+01 2.079107e+00 -8.560242e+01 
3.047378e+00 -8.835023e+01 4.208237e+00 -9.191129e+01 5.268455e+00 9.609138e+01 4.411336e+00 9.261916e+01 3.703332e+00 8.821528e+01 3.277235e+00 8.309908e+01 2.906828e+00 7.762478e+01 2.512080e+00 7.180982e+01 2.243323e+00 6.551325e+01 2.164560e+00 5.900843e+01 1.977355e+00 5.247845e+01 1.685362e+00 4.587469e+01 1.492288e+00 3.901714e+01 1.482365e+00 3.202973e+01 1.551676e+00 2.495235e+01 1.634418e+00 1.793988e+01 1.590819e+00 1.110998e+01 1.419800e+00 4.319635e+00 1.216427e+00 -2.478741e+00 1.066726e+00 -9.359747e+00 1.015079e+00 -1.632910e+01 1.011857e+00 -2.328783e+01 9.692328e-01 -3.007115e+01 8.719156e-01 -3.684356e+01 9.443428e-01 -4.361434e+01 1.169239e+00 -5.034924e+01 1.545036e+00 -5.694955e+01 1.897932e+00 -6.317261e+01 2.090193e+00 -6.898009e+01 2.216964e+00 -7.438626e+01 2.399530e+00 -7.941173e+01 2.638648e+00 -8.382001e+01 
2.865369e+00 -9.177289e+01 3.930960e+00 -9.589475e+01 4.766279e+00 9.884656e+01 4.190927e+00 9.496229e+01 3.503781e+00 9.023126e+01 2.975686e+00 8.484466e+01 2.560223e+00 7.903537e+01 2.215801e+00 7.286805e+01 2.001477e+00 6.634003e+01 1.920031e+00 5.963306e+01 1.813521e+00 5.288316e+01 1.674111e+00 4.606026e+01 1.602934e+00 3.904766e+01 1.642633e+00 3.188296e+01 1.719163e+00 2.464782e+01 1.729753e+00 1.749047e+01 1.574936e+00 1.051002e+01 1.258382e+00 3.641590e+00 8.841142e-01 -3.189485e+00 5.599589e-01 -1.005718e+01 3.407864e-01 -1.697458e+01 1.956712e-01 -2.387900e+01 6.223014e-02 -3.070215e+01 -5.433390e-02 -3.753658e+01 -2.446690e-02 -4.442243e+01 1.802255e-01 -5.132850e+01 5.226122e-01 -5.812884e+01 8.800730e-01 -6.462874e+01 1.163918e+00 -7.074520e+01 1.419475e+00 -7.648454e+01 1.741653e+00 -8.187665e+01 2.191986e+00 -8.690303e+01 
3.102577e+00 -9.014399e+01 3.872232e+00 -9.434799e+01 4.633653e+00 9.763672e+01 4.114100e+00 9.359798e+01 3.585643e+00 8.891003e+01 3.171997e+00 8.367698e+01 2.826737e+00 7.804956e+01 2.515778e+00 7.208490e+01 2.266552e+00 6.579517e+01 2.089746e+00 5.929572e+01 1.904593e+00 5.267973e+01 1.713888e+00 4.596125e+01 1.572413e+00 3.910476e+01 1.516541e+00 3.215524e+01 1.509421e+00 2.515447e+01 1.506930e+00 1.817387e+01 1.454436e+00 1.125509e+01 1.342905e+00 4.363194e+00 1.213170e+00 -2.530364e+00 1.100956e+00 -9.456197e+00 1.034277e+00 -1.640695e+01 9.935839e-01 -2.334352e+01 9.584370e-01 -3.021335e+01 9.346144e-01 -3.704512e+01 9.937745e-01 -4.383360e+01 1.152661e+00 -5.054243e+01 1.391707e+00 -5.709639e+01 1.639396e+00 -6.339076e+01 1.847216e+00 -6.938034e+01 2.044244e+00 -7.505370e+01 2.286637e+00 -8.040409e+01 2.615301e+00 -8.539974e+01 
2.670965e+00 -9.360821e+01 3.411641e+00 -9.830587e+01 4.100113e+00 1.004435e+02 3.704346e+00 9.597870e+01 3.241222e+00 9.094377e+01 2.832052e+00 8.540569e+01 2.492062e+00 7.947400e+01 2.210622e+00 7.321500e+01 1.996212e+00 6.667383e+01 1.854998e+00 5.995375e+01 1.729725e+00 5.312690e+01 1.623675e+00 4.621370e+01 1.552379e+00 3.918729e+01 1.531669e+00 3.207439e+01 1.521894e+00 2.492219e+01 1.469835e+00 1.780205e+01 1.334957e+00 1.075935e+01 1.111183e+00 3.778143e+00 8.539716e-01 -3.170177e+00 6.067343e-01 -1.012326e+01 4.132458e-01 -1.708366e+01 2.640892e-01 -2.403701e+01 1.511142e-01 -3.096235e+01 8.369772e-02 -3.788070e+01 1.076863e-01 -4.479599e+01 2.497378e-01 -5.166949e+01 4.818302e-01 -5.842421e+01 7.475041e-01 -6.496790e+01 1.012608e+00 -7.124740e+01 1.294161e+00 -7.725006e+01 1.636833e+00 -8.297950e+01 2.082972e+00 -8.843258e+01 
2.859932e+00 -9.250844e+01 3.415239e+00 -9.741969e+01 3.990350e+00 9.992255e+01 3.663605e+00 9.521262e+01 3.308692e+00 9.010594e+01 2.996947e+00 8.461004e+01 2.727650e+00 7.878177e+01 2.480575e+00 7.266143e+01 2.248134e+00 6.627263e+01 2.055253e+00 5.969115e+01 1.866334e+00 5.297622e+01 1.708656e+00 4.617347e+01 1.577952e+00 3.927573e+01 1.508950e+00 3.232355e+01 1.468319e+00 2.533155e+01 1.436764e+00 1.834488e+01 1.386372e+00 1.137433e+01 1.298762e+00 4.413350e+00 1.207472e+00 -2.546483e+00 1.108149e+00 -9.524493e+00 1.042391e+00 -1.650143e+01 9.839692e-01 -2.347399e+01 9.474643e-01 -3.040546e+01 9.282037e-01 -3.730365e+01 9.588805e-01 -4.414617e+01 1.067770e+00 -5.090170e+01 1.240061e+00 -5.750920e+01 1.435019e+00 -6.391854e+01 1.632804e+00 -7.010553e+01 1.845192e+00 -7.606187e+01 2.100370e+00 -8.178377e+01 2.427790e+00 -8.726544e+01 
2.296961e+00 -9.588350e+01 2.827217e+00 -1.012336e+02 3.337869e+00 1.027542e+02 3.131527e+00 9.762441e+01 2.866577e+00 9.215843e+01 2.608141e+00 8.634584e+01 2.375755e+00 8.022395e+01 2.160364e+00 7.382801e+01 1.952587e+00 6.717889e+01 1.805112e+00 6.037398e+01 1.655193e+00 5.345088e+01 1.551385e+00 4.646654e+01 1.458564e+00 3.939984e+01 1.410232e+00 3.229111e+01 1.367316e+00 2.515458e+01 1.297480e+00 1.803270e+01 1.192100e+00 1.094801e+01 1.015004e+00 3.889572e+00 8.312891e-01 -3.139358e+00 6.223423e-01 -1.017463e+01 4.581543e-01 -1.719983e+01 3.111552e-01 -2.422957e+01 2.036977e-01 -3.124338e+01 1.380167e-01 -3.824696e+01 1.310594e-01 -4.522962e+01 2.352941e-01 -5.214384e+01 4.136856e-01 -5.893882e+01 6.275534e-01 -6.557448e+01 8.628397e-01 -7.202810e+01 1.128024e+00 -7.829133e+01 1.443766e+00 -8.436194e+01 1.830115e+00 -9.023349e+01 
2.458532e+00 -9.513055e+01 2.840839e+00 -1.007380e+02 3.221554e+00 1.027430e+02 3.096918e+00 9.733597e+01 2.928124e+00 9.173142e+01 2.762306e+00 8.588726e+01 2.608470e+00 7.980441e+01 2.442292e+00 7.349081e+01 2.221359e+00 6.693093e+01 2.039137e+00 6.020583e+01 1.824229e+00 5.335545e+01 1.685624e+00 4.646966e+01 1.537963e+00 3.949885e+01 1.477937e+00 3.252585e+01 1.426114e+00 2.550248e+01 1.392330e+00 1.849921e+01 1.360182e+00 1.148302e+01 1.273404e+00 4.466090e+00 1.216027e+00 -2.545812e+00 1.101460e+00 -9.589313e+00 1.051091e+00 -1.660456e+01 9.692728e-01 -2.364830e+01 9.296477e-01 -3.064278e+01 8.856539e-01 -3.763327e+01 8.654160e-01 -4.456101e+01 9.327909e-01 -5.141554e+01 1.070795e+00 -5.811932e+01 1.233809e+00 -6.466419e+01 1.412914e+00 -7.105588e+01 1.612819e+00 -7.729800e+01 1.845443e+00 -8.339218e+01 2.124184e+00 -8.933822e+01 
1.822179e+00 -9.835871e+01 2.170590e+00 -1.043564e+02 2.485584e+00 1.055484e+02 2.484689e+00 9.974590e+01 2.419511e+00 9.378824e+01 2.332693e+00 8.762845e+01 2.238423e+00 8.125869e+01 2.111297e+00 7.467852e+01 1.891479e+00 6.783375e+01 1.773064e+00 6.089594e+01 1.562551e+00 5.383551e+01 1.470588e+00 4.678714e+01 1.333619e+00 3.965233e+01 1.284626e+00 3.252633e+01 1.241723e+00 2.536861e+01 1.168176e+00 1.822510e+01 1.120326e+00 1.110676e+01 9.451193e-01 3.978436e+00 8.371762e-01 -3.104536e+00 6.168064e-01 -1.022738e+01 4.930231e-01 -1.731560e+01 3.349469e-01 -2.443955e+01 2.236853e-01 -3.154873e+01 1.413613e-01 -3.865596e+01 6.188604e-02 -4.575077e+01 1.542320e-01 -5.274620e+01 3.098977e-01 -5.961057e+01 4.890477e-01 -6.635403e+01 6.912477e-01 -7.298550e+01 9.209760e-01 -7.950576e+01 1.184498e+00 -8.591271e+01 1.486265e+00 -9.220134e+01 
1.964398e+00 -9.782685e+01 2.180182e+00 -1.040889e+02 2.357407e+00 1.058918e+02 2.445620e+00 9.981040e+01 2.473008e+00 9.368657e+01 2.480752e+00 8.745771e+01 2.485256e+00 8.108845e+01 2.449381e+00 7.454964e+01 2.212551e+00 6.773796e+01 2.054897e+00 6.082002e+01 1.746328e+00 5.377672e+01 1.655193e+00 4.683021e+01 1.441256e+00 3.974059e+01 1.432587e+00 3.276433e+01 1.375225e+00 2.566536e+01 1.355076e+00 1.866068e+01 1.376859e+00 1.159104e+01 1.249269e+00 4.519071e+00 1.262370e+00 -2.525408e+00 1.069005e+00 -9.665593e+00 1.077978e+00 -1.669553e+01 9.401856e-01 -2.385740e+01 9.193234e-01 -3.090596e+01 8.295651e-01 -3.803995e+01 7.199993e-01 -4.508441e+01 7.405460e-01 -5.208104e+01 8.664761e-01 -5.887329e+01 1.010750e+00 -6.554439e+01 1.172511e+00 -7.213554e+01 1.348503e+00 -7.865655e+01 1.538874e+00 -8.511020e+01 1.745215e+00 -9.149955e+01 
1.289709e+00 -1.008779e+02 1.462000e+00 -1.074864e+02 1.567617e+00 1.086224e+02 1.781737e+00 1.021799e+02 1.918555e+00 9.572521e+01 2.019646e+00 8.919483e+01 2.105847e+00 8.254892e+01 2.131916e+00 7.575526e+01 1.836320e+00 6.857182e+01 1.795303e+00 6.149729e+01 1.402405e+00 5.423454e+01 1.402144e+00 4.715405e+01 1.147916e+00 3.992670e+01 1.151278e+00 3.276903e+01 1.137986e+00 2.558366e+01 1.038058e+00 1.838689e+01 1.140848e+00 1.126490e+01 8.580062e-01 4.036554e+00 9.185167e-01 -3.056325e+00 5.627022e-01 -1.028452e+01 5.443701e-01 -1.742227e+01 3.351063e-01 -2.464007e+01 2.216079e-01 -3.188410e+01 1.384044e-01 -3.910083e+01 -1.327599e-01 -4.641635e+01 1.342908e-02 -5.348214e+01 1.644474e-01 -6.038189e+01 3.169779e-01 -6.721994e+01 4.902599e-01 -7.402678e+01 6.800172e-01 -8.079976e+01 8.810580e-01 -8.753365e+01 1.088129e+00 -9.422655e+01 
1.420753e+00 -1.004760e+02 1.469145e+00 -1.073387e+02 1.432901e+00 1.091866e+02 1.736081e+00 1.024781e+02 1.955754e+00 9.585459e+01 2.144330e+00 8.925470e+01 2.351385e+00 8.262490e+01 2.575606e+00 7.585855e+01 2.325405e+00 6.855861e+01 2.102246e+00 6.151719e+01 1.570889e+00 5.414984e+01 1.635924e+00 4.724895e+01 1.222024e+00 3.997646e+01 1.400478e+00 3.302309e+01 1.279465e+00 2.583489e+01 1.322252e+00 1.880953e+01 1.447781e+00 1.173528e+01 1.209300e+00 4.533360e+00 1.386400e+00 -2.455174e+00 9.628076e-01 -9.773966e+00 1.159202e+00 -1.675445e+01 8.579936e-01 -2.406123e+01 9.642758e-01 -3.119541e+01 7.670194e-01 -3.847399e+01 5.546404e-01 -4.582506e+01 4.384233e-01 -5.291870e+01 5.924387e-01 -5.969815e+01 7.498047e-01 -6.646794e+01 9.112704e-01 -7.325494e+01 1.063451e+00 -8.004789e+01 1.202298e+00 -8.684394e+01 1.324588e+00 -9.364936e+01 
7.324420e-01 -1.033336e+02 7.303782e-01 -1.105021e+02 6.168009e-01 1.117950e+02 1.044401e+00 1.047671e+02 1.369459e+00 9.785138e+01 1.649183e+00 9.098702e+01 1.947137e+00 8.410627e+01 2.277406e+00 7.710064e+01 1.901707e+00 6.905569e+01 1.838374e+00 6.214570e+01 1.046094e+00 5.458560e+01 1.439355e+00 4.744268e+01 7.291761e-01 4.034594e+01 1.035273e+00 3.284278e+01 9.568657e-01 2.596431e+01 8.204158e-01 1.834757e+01 1.305638e+00 1.151626e+01 6.383050e-01 3.958248e+00 1.215283e+00 -3.024283e+00 3.208233e-01 -1.028061e+01 6.791640e-01 -1.764367e+01 2.261070e-01 -2.461329e+01 1.698674e-01 -3.242811e+01 2.031995e-01 -3.938462e+01 -6.367558e-01 -4.760085e+01 -1.890662e-01 -5.434105e+01 -5.424195e-02 -6.114623e+01 9.579399e-02 -6.807292e+01 2.636789e-01 -7.506863e+01 4.201799e-01 -8.209619e+01 5.564655e-01 -8.914541e+01 6.654463e-01 -9.622056e+01 
8.626833e-01 -1.029937e+02 7.455832e-01 -1.103968e+02 4.945447e-01 1.124643e+02 1.001964e+00 1.051851e+02 1.387892e+00 9.809592e+01 1.712503e+00 9.116750e+01 2.067100e+00 8.443816e+01 2.660097e+00 7.806420e+01 3.292480e+00 6.835116e+01 1.627852e+00 6.267277e+01 1.505147e+00 5.414569e+01 1.525521e+00 4.762816e+01 6.918516e-01 4.049718e+01 1.555397e+00 3.275190e+01 6.840539e-01 2.655250e+01 1.558282e+00 1.825758e+01 1.173651e+00 1.238699e+01 1.453600e+00 4.014425e+00 1.405345e+00 -2.203118e+00 7.762343e-01 -9.862119e+00 1.325184e+00 -1.712931e+01 3.789336e-01 -2.368022e+01 1.296537e+00 -3.220771e+01 2.547487e-01 -3.811109e+01 6.796659e-01 -4.797995e+01 -4.040166e-01 -5.375934e+01 1.673484e-01 -6.041208e+01 4.631692e-01 -6.733486e+01 6.530667e-01 -7.434375e+01 7.806201e-01 -8.140605e+01 8.604230e-01 -8.852391e+01 8.920231e-01 -9.571224e+01 
1.801432e-01 -1.056496e+02 1.045432e-02 -1.133198e+02 -3.150488e-01 1.148992e+02 3.109653e-01 1.073426e+02 7.953283e-01 1.000099e+02 1.198565e+00 9.290313e+01 1.611113e+00 8.612520e+01 2.264632e+00 7.986574e+01 2.910567e+00 6.902304e+01 1.461006e+00 6.371259e+01 1.322334e+00 5.461888e+01 1.395548e+00 4.802469e+01 4.983464e-01 4.091009e+01 1.508799e+00 3.262934e+01 4.668833e-01 2.684704e+01 1.516682e+00 1.789707e+01 9.239282e-01 1.247412e+01 1.298802e+00 3.582888e+00 1.134798e+00 -2.525132e+00 3.792600e-01 -1.027638e+01 1.132198e+00 -1.793111e+01 -1.509900e-01 -2.405563e+01 1.251278e+00 -3.335460e+01 -3.499753e-01 -3.859555e+01 5.972566e-01 -4.960800e+01 -1.383844e+00 -5.476326e+01 -5.614504e-01 -6.164921e+01 -1.684197e-01 -6.882655e+01 4.467379e-02 -7.606221e+01 1.698339e-01 -8.334582e+01 2.363905e-01 -9.069104e+01 2.451076e-01 -9.811723e+01 
3.205857e-01 -1.053186e+02 4.786744e-02 -1.131994e+02 -3.947243e-01 1.155817e+02 2.955817e-01 1.077871e+02 8.327899e-01 1.002539e+02 1.269910e+00 9.294922e+01 1.657543e+00 8.585643e+01 2.028239e+00 7.888596e+01 1.806839e+00 6.965116e+01 1.998694e+00 6.313857e+01 1.372311e+00 5.496055e+01 1.637596e+00 4.804061e+01 9.775763e-01 4.082482e+01 1.329616e+00 3.317089e+01 1.060949e+00 2.655535e+01 1.255437e+00 1.859301e+01 1.447763e+00 1.217100e+01 1.230023e+00 4.208909e+00 1.532204e+00 -2.440638e+00 8.153195e-01 -9.909600e+00 1.261100e+00 -1.724998e+01 5.488071e-01 -2.406337e+01 1.075383e+00 -3.226028e+01 4.145521e-01 -3.877410e+01 3.921531e-01 -4.779932e+01 -3.845257e-01 -5.418408e+01 4.766320e-02 -6.106936e+01 3.050279e-01 -6.817447e+01 4.565790e-01 -7.538892e+01 5.306130e-01 -8.269475e+01 5.376868e-01 -9.010180e+01 4.734538e-01 -9.763252e+01 
-3.411931e-01 -1.077690e+02 -6.632425e-01 -1.158803e+02 -1.168796e+00 1.177914e+02 -3.731731e-01 1.097444e+02 2.604779e-01 1.019610e+02 7.891204e-01 9.438815e+01 1.269820e+00 8.694668e+01 1.712498e+00 7.943742e+01 1.456266e+00 7.121950e+01 1.678009e+00 6.371500e+01 1.081217e+00 5.582217e+01 1.399062e+00 4.850843e+01 8.688980e-01 4.100263e+01 1.117512e+00 3.359529e+01 1.042936e+00 2.633483e+01 9.710749e-01 1.887154e+01 1.300400e+00 1.174124e+01 8.046850e-01 4.202829e+00 1.215829e+00 -2.942564e+00 5.001275e-01 -1.040679e+01 8.209551e-01 -1.773440e+01 3.801333e-01 -2.506207e+01 4.235468e-01 -3.273138e+01 2.594708e-01 -4.007395e+01 -3.510051e-01 -4.809488e+01 -3.514475e-01 -5.523820e+01 -2.629143e-01 -6.237122e+01 -1.616135e-01 -6.964401e+01 -7.537030e-02 -7.703440e+01 -3.587019e-02 -8.452700e+01 -5.619223e-02 -9.213013e+01 -1.504094e-01 -9.986643e+01 
-1.818778e-01 -1.074039e+02 -5.957223e-01 -1.156993e+02 -1.205825e+00 1.184124e+02 -3.625621e-01 1.101463e+02 3.038089e-01 1.021635e+02 8.378196e-01 9.439659e+01 1.272702e+00 8.675615e+01 1.599390e+00 7.909997e+01 1.560696e+00 7.128028e+01 1.657683e+00 6.362783e+01 1.384095e+00 5.595154e+01 1.497744e+00 4.858681e+01 1.227209e+00 4.109316e+01 1.337344e+00 3.382283e+01 1.294133e+00 2.645702e+01 1.291172e+00 1.920970e+01 1.431317e+00 1.195908e+01 1.213975e+00 4.620488e+00 1.361789e+00 -2.563871e+00 1.013413e+00 -9.982210e+00 1.110966e+00 -1.718922e+01 8.738410e-01 -2.462781e+01 8.430359e-01 -3.199928e+01 6.752615e-01 -3.945629e+01 3.264369e-01 -4.706379e+01 2.550263e-01 -5.445532e+01 2.886305e-01 -6.167296e+01 3.249881e-01 -6.896029e+01 3.494687e-01 -7.635773e+01 3.317049e-01 -8.387691e+01 2.512325e-01 -9.153667e+01 8.854274e-02 -9.936601e+01 
-8.138558e-01 -1.096478e+02 -1.272103e+00 -1.181380e+02 -1.935809e+00 1.203685e+02 -1.001840e+00 1.118817e+02 -2.526840e-01 1.036741e+02 3.524705e-01 9.567635e+01 8.382343e-01 8.780823e+01 1.176422e+00 7.998603e+01 1.194611e+00 7.212708e+01 1.287741e+00 6.431892e+01 1.114315e+00 5.654353e+01 1.194398e+00 4.898212e+01 1.012763e+00 4.138614e+01 1.074109e+00 3.395932e+01 1.049057e+00 2.649375e+01 1.018400e+00 1.911925e+01 1.097635e+00 1.174778e+01 9.025569e-01 4.334072e+00 9.652325e-01 -3.000154e+00 6.807983e-01 -1.046504e+01 6.811134e-01 -1.782664e+01 4.779327e-01 -2.532891e+01 3.594992e-01 -3.280928e+01 2.146507e-01 -4.035202e+01 -1.194815e-01 -4.797427e+01 -1.188237e-01 -5.547857e+01 -1.170405e-01 -6.289295e+01 -1.278390e-01 -7.035248e+01 -1.477461e-01 -7.791162e+01 -2.009305e-01 -8.559374e+01 -3.122800e-01 -9.342173e+01 -5.067004e-01 -1.014262e+02 
-6.296364e-01 -1.092132e+02 -1.168850e+00 -1.178595e+02 -1.926354e+00 1.208848e+02 -9.560496e-01 1.122123e+02 -1.838664e-01 1.038404e+02 4.259254e-01 9.570225e+01 8.948071e-01 8.772817e+01 1.212941e+00 7.985697e+01 1.314679e+00 7.204543e+01 1.399626e+00 6.427412e+01 1.339855e+00 5.657865e+01 1.380071e+00 4.902921e+01 1.285955e+00 4.149659e+01 1.317952e+00 3.409900e+01 1.301626e+00 2.668372e+01 1.301324e+00 1.936079e+01 1.332573e+00 1.202384e+01 1.238142e+00 4.688521e+00 1.244288e+00 -2.620568e+00 1.080212e+00 -1.000608e+01 1.045118e+00 -1.733297e+01 8.984499e-01 -2.477038e+01 7.964808e-01 -3.217607e+01 6.537137e-01 -3.966751e+01 4.410193e-01 -4.718806e+01 3.845167e-01 -5.470088e+01 3.637965e-01 -6.214841e+01 3.258480e-01 -6.962834e+01 2.667316e-01 -7.720409e+01 1.671175e-01 -8.491419e+01 2.949361e-03 -9.279234e+01 -2.521922e-01 -1.008766e+02 
-1.226885e+00 -1.112508e+02 -1.804620e+00 -1.200573e+02 -2.608515e+00 1.225798e+02 -1.560576e+00 1.137260e+02 -7.194300e-01 1.051716e+02 -5.265253e-02 9.685497e+01 4.575456e-01 8.871692e+01 8.021753e-01 8.070667e+01 9.517731e-01 7.276731e+01 1.052215e+00 6.488481e+01 1.042287e+00 5.707210e+01 1.076986e+00 4.938397e+01 1.023114e+00 4.174478e+01 1.037505e+00 3.421135e+01 1.022605e+00 2.670245e+01 1.006644e+00 1.925428e+01 1.003353e+00 1.182094e+01 9.114377e-01 4.384345e+00 8.710808e-01 -3.031570e+00 7.207811e-01 -1.049614e+01 6.387532e-01 -1.793942e+01 4.896117e-01 -2.544841e+01 3.563910e-01 -3.296331e+01 2.079661e-01 -4.052844e+01 1.789790e-02 -4.813691e+01 -3.986970e-02 -5.573812e+01 -7.713371e-02 -6.332104e+01 -1.342894e-01 -7.094362e+01 -2.177403e-01 -7.865984e+01 -3.430840e-01 -8.651023e+01 -5.335113e-01 -9.453103e+01 -8.169511e-01 -1.027619e+02 
-1.012758e+00 -1.107177e+02 -1.659846e+00 -1.196514e+02 -2.544799e+00 1.229602e+02 -1.468603e+00 1.139588e+02 -6.086098e-01 1.052798e+02 6.756252e-02 9.686501e+01 5.803084e-01 8.865980e+01 9.324574e-01 8.061679e+01 1.119972e+00 7.268514e+01 1.234414e+00 6.483030e+01 1.266009e+00 5.706443e+01 1.302577e+00 4.941076e+01 1.280378e+00 4.182409e+01 1.296102e+00 3.433374e+01 1.290697e+00 2.687907e+01 1.291424e+00 1.948393e+01 1.288124e+00 1.210257e+01 1.236294e+00 4.729507e+00 1.199572e+00 -2.637457e+00 1.096787e+00 -1.003589e+01 1.024992e+00 -1.742883e+01 9.051420e-01 -2.487465e+01 7.938655e-01 -3.233147e+01 6.587135e-01 -3.984456e+01 5.088317e-01 -4.739599e+01 4.261920e-01 -5.497547e+01 3.694024e-01 -6.255720e+01 2.932631e-01 -7.018370e+01 1.834435e-01 -7.790902e+01 2.358815e-02 -8.578029e+01 -2.092009e-01 -9.384066e+01 -5.432391e-01 -1.021356e+02 
-1.571849e+00 -1.125509e+02 -2.250176e+00 -1.216107e+02 -3.173596e+00 1.243920e+02 -2.031777e+00 1.152499e+02 -1.114178e+00 1.064297e+02 -3.898151e-01 9.787703e+01 1.608330e-01 8.954085e+01 5.425736e-01 8.137345e+01 7.616855e-01 7.332035e+01 8.990604e-01 6.535494e+01 9.544536e-01 5.747882e+01 9.979775e-01 4.971243e+01 9.896652e-01 4.202124e+01 1.000299e+00 3.442093e+01 9.916089e-01 2.686834e+01 9.801820e-01 1.936860e+01 9.600507e-01 1.189197e+01 8.977330e-01 4.423392e+00 8.387754e-01 -3.037720e+00 7.269255e-01 -1.052307e+01 6.309242e-01 -1.801079e+01 4.981961e-01 -2.554030e+01 3.688309e-01 -3.309078e+01 2.251141e-01 -4.068893e+01 7.698025e-02 -4.833010e+01 -1.162729e-02 -5.599889e+01 -7.944026e-02 -6.368555e+01 -1.672463e-01 -7.142512e+01 -2.914718e-01 -7.926610e+01 -4.682933e-01 -8.725412e+01 -7.203046e-01 -9.543238e+01 -1.076366e+00 -1.038468e+02 
-1.322743e+00 -1.118957e+02 -2.057966e+00 -1.210532e+02 -3.048149e+00 1.246066e+02 -1.885747e+00 1.153550e+02 -9.530136e-01 1.064478e+02 -2.162999e-01 9.783125e+01 3.475726e-01 8.945459e+01 7.468377e-01 8.127133e+01 9.833441e-01 7.322975e+01 1.130521e+00 6.527705e+01 1.197044e+00 5.743441e+01 1.249869e+00 4.971013e+01 1.247081e+00 4.206595e+01 1.271109e+00 3.452471e+01 1.269060e+00 2.702449e+01 1.275847e+00 1.959133e+01 1.269765e+00 1.217061e+01 1.229422e+00 4.768546e+00 1.191659e+00 -2.634014e+00 1.100487e+00 -1.005908e+01 1.029849e+00 -1.748362e+01 9.133153e-01 -2.495895e+01 8.085091e-01 -3.244720e+01 6.727011e-01 -4.000262e+01 5.328341e-01 -4.759267e+01 4.255912e-01 -5.523772e+01 3.447868e-01 -6.290330e+01 2.429603e-01 -7.062671e+01 1.008706e-01 -7.846170e+01 -9.999307e-02 -8.645771e+01 -3.835325e-01 -9.466126e+01 -7.792036e-01 -1.031216e+02 
-1.840486e+00 -1.135282e+02 -2.598171e+00 -1.227785e+02 -3.617153e+00 1.257729e+02 -2.401006e+00 1.164201e+02 -1.420873e+00 1.074102e+02 -6.429531e-01 9.869071e+01 -4.401634e-02 9.021096e+01 3.828544e-01 8.192260e+01 6.346538e-01 7.377152e+01 8.063093e-01 6.571556e+01 8.788586e-01 5.777040e+01 9.435663e-01 4.995301e+01 9.379829e-01 4.221195e+01 9.624081e-01 3.457906e+01 9.552954e-01 2.698580e+01 9.518168e-01 1.946065e+01 9.406068e-01 1.195114e+01 8.829724e-01 4.458277e+00 8.381573e-01 -3.028080e+00 7.257285e-01 -1.054091e+01 6.432104e-01 -1.804760e+01 5.077969e-01 -2.560926e+01 3.891068e-01 -3.318331e+01 2.417954e-01 -4.082668e+01 8.852986e-02 -4.850687e+01 -1.984080e-02 -5.623541e+01 -1.044282e-01 -6.398294e+01 -2.128890e-01 -7.179334e+01 -3.629816e-01 -7.972007e+01 -5.735087e-01 -8.781001e+01 -8.688562e-01 -9.610769e+01 -1.279014e+00 -1.046615e+02 
-1.551012e+00 -1.127320e+02 -2.352836e+00 -1.220496e+02 -3.424218e+00 1.257910e+02 -2.196612e+00 1.163668e+02 -1.207741e+00 1.073072e+02 -4.185022e-01 9.855923e+01 2.008890e-01 9.006817e+01 6.589605e-01 8.178114e+01 9.182609e-01 7.366261e+01 1.082856e+00 6.559503e+01 1.143436e+00 5.767899e+01 1.217927e+00 4.991603e+01 1.192512e+00 4.221246e+01 1.245565e+00 3.466691e+01 1.234647e+00 2.711229e+01 1.259462e+00 1.968258e+01 1.267369e+00 1.222110e+01 1.223933e+00 4.808377e+00 1.211261e+00 -2.614945e+00 1.097681e+00 -1.007509e+01 1.056370e+00 -1.749728e+01 9.197053e-01 -2.502280e+01 8.404137e-01 -3.251156e+01 6.880638e-01 -4.013812e+01 5.333927e-01 -4.775614e+01 3.869283e-01 -5.547374e+01 2.970611e-01 -6.317634e+01 1.825930e-01 -7.094673e+01 2.520493e-02 -7.885014e+01 -1.983010e-01 -8.693315e+01 -5.143534e-01 -9.523990e+01 -9.531586e-01 -1.038199e+02 
-2.024259e+00 -1.141695e+02 -2.838460e+00 -1.235470e+02 -3.927296e+00 1.266892e+02 -2.658410e+00 1.172026e+02 -1.632897e+00 1.080782e+02 -8.098902e-01 9.926320e+01 -1.577086e-01 9.070066e+01 3.297190e-01 8.232967e+01 5.826672e-01 7.409798e+01 7.777004e-01 6.594492e+01 8.169036e-01 5.792829e+01 9.165617e-01 5.009961e+01 8.640533e-01 4.230592e+01 9.274903e-01 3.468505e+01 9.090318e-01 2.704840e+01 9.207147e-01 1.953021e+01 9.431320e-01 1.199582e+01 8.652019e-01 4.486381e+00 8.718711e-01 -3.001773e+00 7.133516e-01 -1.055458e+01 6.791737e-01 -1.804405e+01 5.114227e-01 -2.565346e+01 4.229101e-01 -3.322655e+01 2.582016e-01 -4.093690e+01 6.805291e-02 -4.866375e+01 -6.631884e-02 -5.644652e+01 -1.521857e-01 -6.420105e+01 -2.675761e-01 -7.203441e+01 -4.260438e-01 -8.000927e+01 -6.518981e-01 -8.816604e+01 -9.722260e-01 -9.654485e+01 -1.417449e+00 -1.051932e+02 
-1.688875e+00 -1.132174e+02 -2.534364e+00 -1.226309e+02 -3.661433e+00 1.264806e+02 -2.393207e+00 1.169596e+02 -1.370761e+00 1.078231e+02 -5.458897e-01 9.902245e+01 1.271405e-01 9.049899e+01 6.789305e-01 8.215292e+01 9.778666e-01 7.395001e+01 1.078090e+00 6.576348e+01 1.117039e+00 5.775490e+01 1.194360e+00 5.003688e+01 1.107457e+00 4.223867e+01 1.223885e+00 3.476894e+01 1.172517e+00 2.713206e+01 1.249624e+00 1.975733e+01 1.270956e+00 1.225952e+01 1.230996e+00 4.834699e+00 1.254150e+00 -2.564488e+00 1.087494e+00 -1.010606e+01 1.105795e+00 -1.744992e+01 9.089941e-01 -2.506803e+01 9.101225e-01 -3.249874e+01 6.953476e-01 -4.024084e+01 5.634122e-01 -4.791613e+01 2.762717e-01 -5.570062e+01 2.078331e-01 -6.335266e+01 1.111261e-01 -7.112181e+01 -3.557870e-02 -7.906058e+01 -2.619240e-01 -8.719697e+01 -5.930373e-01 -9.556791e+01 -1.056918e+00 -1.042215e+02 
-2.114779e+00 -1.144675e+02 -2.961314e+00 -1.239083e+02 -4.092593e+00 1.271085e+02 -2.796865e+00 1.175628e+02 -1.750319e+00 1.083990e+02 -9.021852e-01 9.957182e+01 -2.021091e-01 9.102492e+01 3.861262e-01 8.265435e+01 6.599820e-01 7.418887e+01 7.823215e-01 6.604980e+01 7.714330e-01 5.788055e+01 9.143627e-01 5.015630e+01 7.379796e-01 4.229770e+01 9.071194e-01 3.471424e+01 8.143682e-01 2.709082e+01 8.847598e-01 1.952938e+01 9.503845e-01 1.206925e+01 8.428018e-01 4.452607e+00 9.485695e-01 -2.936624e+00 6.727902e-01 -1.058810e+01 7.543682e-01 -1.800521e+01 4.709854e-01 -2.563283e+01 4.954192e-01 -3.323788e+01 2.499884e-01 -4.095376e+01 5.231900e-02 -4.892043e+01 -2.099857e-01 -5.664319e+01 -2.503283e-01 -6.430500e+01 -3.337377e-01 -7.212328e+01 -4.713132e-01 -8.012111e+01 -6.926659e-01 -8.831498e+01 -1.021072e+00 -9.673765e+01 -1.483399e+00 -1.054355e+02 
-1.728462e+00 -1.133475e+02 -2.592810e+00 -1.227924e+02 -3.745664e+00 1.266462e+02 -2.466978e+00 1.170989e+02 -1.440491e+00 1.079510e+02 -6.142536e-01 9.917164e+01 6.692690e-02 9.075287e+01 6.912327e-01 8.274042e+01 1.518960e+00 7.360353e+01 7.854895e-01 6.601835e+01 1.345734e+00 5.740014e+01 9.755820e-01 5.015701e+01 1.056075e+00 4.216072e+01 1.197349e+00 3.468157e+01 9.505914e-01 2.730100e+01 1.371633e+00 1.952911e+01 1.050947e+00 1.255685e+01 1.473013e+00 4.569424e+00 1.110421e+00 -2.319665e+00 1.216458e+00 -1.025144e+01 1.096454e+00 -1.738902e+01 8.163592e-01 -2.492959e+01 1.135035e+00 -3.261831e+01 4.385119e-01 -3.993253e+01 9.872574e-01 -4.856844e+01 -2.011844e-01 -5.585609e+01 1.630294e-02 -6.335051e+01 4.363802e-02 -7.112483e+01 -5.962898e-02 -7.908634e+01 -2.752571e-01 -8.724682e+01 -6.090641e-01 -9.564272e+01 -1.082381e+00 -1.043228e+02 
-2.105179e+00 -1.144197e+02 -2.957802e+00 -1.238597e+02 -4.098683e+00 1.270053e+02 -2.808246e+00 1.174675e+02 -1.771136e+00 1.083222e+02 -9.344364e-01 9.954678e+01 -2.379165e-01 9.115838e+01 4.366467e-01 8.327902e+01 1.520102e+00 7.368925e+01 3.633688e-01 6.634766e+01 1.160545e+00 5.741060e+01 5.881574e-01 5.029707e+01 7.443897e-01 4.217698e+01 9.118727e-01 3.458581e+01 5.752395e-01 2.728660e+01 1.145005e+00 1.924679e+01 6.519197e-01 1.245920e+01 1.246768e+00 4.158230e+00 6.973891e-01 -2.592934e+00 8.963372e-01 -1.073955e+01 7.173310e-01 -1.790282e+01 3.971170e-01 -2.544317e+01 8.434057e-01 -3.334171e+01 -4.829041e-02 -4.049788e+01 7.734117e-01 -4.960365e+01 -7.620414e-01 -5.668905e+01 -4.454655e-01 -6.420286e+01 -3.801211e-01 -7.204045e+01 -4.700920e-01 -8.005564e+01 -6.785370e-01 -8.825856e+01 -1.005100e+00 -9.668619e+01 -1.469597e+00 -1.053868e+02 