# vtk DataFile Version 2.0
Comment goes here
ASCII

DATASET STRUCTURED_POINTS
FIELD FieldData 1
TIME 1 1 double
0.03800000
DIMENSIONS    64   64   1

ORIGIN    0.000   0.000   0.000
SPACING   0.03125 0.03125   1.000

POINT_DATA   4096
SCALARS P double
LOOKUP_TABLE default

-3.262774e+01 -1.898977e+02 -2.021774e+01 -2.010452e+02 3.408394e+01 1.221107e+02 -2.234309e+01 1.169743e+02 -2.732303e+01 1.087407e+02 -2.986898e+01 9.684940e+01 -2.729862e+01 7.902630e+01 -2.071264e+01 6.045847e+01 -1.643890e+01 4.786585e+01 -2.107694e+01 4.555458e+01 -3.037878e+01 4.004527e+01 -3.331283e+01 3.013051e+01 -3.004250e+01 1.147074e+01 -1.848239e+01 -1.123601e+01 -9.224450e+00 -2.882542e+01 -4.552086e+00 -4.323031e+01 -5.366031e+00 -5.029411e+01 -1.456362e+01 -5.085215e+01 -2.798389e+01 -4.920276e+01 -4.264380e+01 -4.764112e+01 -5.578093e+01 -4.777502e+01 -6.694334e+01 -5.179757e+01 -7.301719e+01 -5.843097e+01 -7.766057e+01 -6.512703e+01 -7.974688e+01 -7.724262e+01 -7.354929e+01 -9.644504e+01 -6.274154e+01 -1.164135e+02 -5.446123e+01 -1.314415e+02 -5.107697e+01 -1.424306e+02 -5.075104e+01 -1.501451e+02 -4.994325e+01 -1.595117e+02 -4.406887e+01 -1.700123e+02 
-9.276654e+00 -1.263137e+02 -2.632937e+00 -1.333860e+02 3.690457e+01 1.070471e+02 -4.187203e+00 1.028427e+02 -7.067667e+00 9.688108e+01 -8.713840e+00 8.903928e+01 -7.688402e+00 7.778977e+01 -4.408901e+00 6.599886e+01 -2.263376e+00 5.711088e+01 -4.783808e+00 5.380666e+01 -9.818830e+00 4.842773e+01 -1.132385e+01 4.093227e+01 -1.003709e+01 2.896899e+01 -4.497105e+00 1.497937e+01 -3.607997e-01 3.864731e+00 1.510778e+00 -6.124318e+00 1.159307e+00 -1.269971e+01 -3.114070e+00 -1.629596e+01 -9.024782e+00 -1.918818e+01 -1.532538e+01 -2.223199e+01 -2.068912e+01 -2.614655e+01 -2.517655e+01 -3.196679e+01 -2.712930e+01 -3.884043e+01 -2.895688e+01 -4.497286e+01 -3.018279e+01 -5.359035e+01 -2.727405e+01 -6.576352e+01 -2.212986e+01 -7.811926e+01 -1.843950e+01 -8.777123e+01 -1.727630e+01 -9.536528e+01 -1.752536e+01 -1.012395e+02 -1.754753e+01 -1.077606e+02 -1.488774e+01 -1.144787e+02 
3.625419e+00 -8.738886e+01 5.065842e+00 -9.084308e+01 1.804928e+01 9.496883e+01 4.942679e+00 9.160646e+01 4.338110e+00 8.719362e+01 3.882111e+00 8.203365e+01 3.813321e+00 7.587034e+01 4.177402e+00 6.931898e+01 4.408309e+00 6.296708e+01 3.825821e+00 5.748651e+01 2.730943e+00 5.135424e+01 2.263031e+00 4.493419e+01 1.984728e+00 3.790356e+01 2.359622e+00 3.061294e+01 2.474308e+00 2.390357e+01 2.322290e+00 1.715593e+01 2.126398e+00 1.072271e+01 1.552625e+00 4.489345e+00 1.010898e+00 -1.872073e+00 4.934699e-01 -8.342080e+00 1.939341e-01 -1.500758e+01 -2.206445e-02 -2.191054e+01 8.958100e-02 -2.879244e+01 -5.310911e-02 -3.515852e+01 -3.556727e-01 -4.167462e+01 -6.551405e-03 -4.862243e+01 7.236404e-01 -5.543086e+01 1.256949e+00 -6.165600e+01 1.480643e+00 -6.745141e+01 1.626002e+00 -7.280732e+01 1.856436e+00 -7.792426e+01 2.533455e+00 -8.244204e+01 
3.430341e+00 -8.967471e+01 5.187969e+00 -9.347065e+01 6.510917e+00 9.689990e+01 5.268772e+00 9.328982e+01 4.274873e+00 8.861791e+01 3.655491e+00 8.310594e+01 3.496327e+00 7.679223e+01 3.656392e+00 7.017224e+01 3.652169e+00 6.377481e+01 3.114543e+00 5.785461e+01 2.312895e+00 5.165035e+01 1.918693e+00 4.501295e+01 1.948131e+00 3.781095e+01 2.409900e+00 3.036586e+01 2.754622e+00 2.321776e+01 2.773497e+00 1.629812e+01 2.474452e+00 9.754679e+00 1.761061e+00 3.507945e+00 8.936297e-01 -2.692585e+00 5.976057e-02 -8.966143e+00 -5.529597e-01 -1.543743e+01 -9.278101e-01 -2.212944e+01 -1.024586e+00 -2.888090e+01 -1.126294e+00 -3.550135e+01 -1.187208e+00 -4.231989e+01 -8.332749e-01 -4.943449e+01 -1.769767e-01 -5.643248e+01 3.871108e-01 -6.293663e+01 7.009139e-01 -6.892279e+01 9.253810e-01 -7.447713e+01 1.310715e+00 -7.975991e+01 2.159372e+00 -8.476732e+01 
3.650845e+00 -8.790455e+01 4.863547e+00 -9.154780e+01 6.070711e+00 9.546072e+01 5.079820e+00 9.183852e+01 4.406799e+00 8.729374e+01 3.969498e+00 8.204551e+01 3.774828e+00 7.618020e+01 3.750847e+00 6.998055e+01 3.655674e+00 6.374936e+01 3.281052e+00 5.766691e+01 2.742615e+00 5.136545e+01 2.372440e+00 4.482767e+01 2.167678e+00 3.801252e+01 2.181309e+00 3.108009e+01 2.155720e+00 2.428802e+01 2.020012e+00 1.756822e+01 1.797140e+00 1.098181e+01 1.434475e+00 4.480537e+00 1.046294e+00 -2.049433e+00 6.864320e-01 -8.647063e+00 4.281345e-01 -1.534091e+01 2.619012e-01 -2.212222e+01 2.138511e-01 -2.888338e+01 1.492413e-01 -3.550384e+01 1.163237e-01 -4.214574e+01 3.287788e-01 -4.886203e+01 7.232218e-01 -5.544980e+01 1.102722e+00 -6.172132e+01 1.401244e+00 -6.765545e+01 1.698073e+00 -7.324276e+01 2.106337e+00 -7.851119e+01 2.764893e+00 -8.338678e+01 
3.293507e+00 -9.070333e+01 4.505818e+00 -9.480334e+01 5.474662e+00 9.750761e+01 4.845050e+00 9.358073e+01 4.161097e+00 8.877105e+01 3.657511e+00 8.325966e+01 3.388072e+00 7.719893e+01 3.261978e+00 7.084790e+01 3.084745e+00 6.446165e+01 2.739930e+00 5.813734e+01 2.326699e+00 5.166693e+01 2.070724e+00 4.494718e+01 2.025541e+00 3.795560e+01 2.151952e+00 3.083812e+01 2.245884e+00 2.380563e+01 2.177174e+00 1.692103e+01 1.906465e+00 1.023394e+01 1.424205e+00 3.705665e+00 8.378673e-01 -2.767072e+00 2.610094e-01 -9.268501e+00 -2.012707e-01 -1.586028e+01 -5.127572e-01 -2.255645e+01 -6.687310e-01 -2.930530e+01 -7.394004e-01 -3.606141e+01 -7.060294e-01 -4.289550e+01 -4.728057e-01 -4.979322e+01 -8.398813e-02 -5.657957e+01 3.194804e-01 -6.308069e+01 6.720465e-01 -6.923901e+01 1.036517e+00 -7.506846e+01 1.536791e+00 -8.060952e+01 2.291671e+00 -8.584628e+01 
3.470837e+00 -8.963973e+01 4.388142e+00 -9.389982e+01 5.278652e+00 9.682476e+01 4.735097e+00 9.272786e+01 4.214742e+00 8.794236e+01 3.830935e+00 8.258116e+01 3.587596e+00 7.675992e+01 3.424015e+00 7.064007e+01 3.231904e+00 6.437705e+01 2.947684e+00 5.805471e+01 2.609837e+00 5.159572e+01 2.333902e+00 4.498371e+01 2.144861e+00 3.822381e+01 2.048638e+00 3.139642e+01 1.954241e+00 2.459754e+01 1.814813e+00 1.784649e+01 1.617863e+00 1.115647e+01 1.354572e+00 4.504431e+00 1.071475e+00 -2.154317e+00 8.023419e-01 -8.849493e+00 5.923256e-01 -1.558903e+01 4.448457e-01 -2.236505e+01 3.675309e-01 -2.913096e+01 3.280748e-01 -3.585249e+01 3.510496e-01 -4.255747e+01 5.011018e-01 -4.923615e+01 7.588475e-01 -5.579398e+01 1.052209e+00 -6.213818e+01 1.352050e+00 -6.822927e+01 1.690897e+00 -7.404856e+01 2.128017e+00 -7.958631e+01 2.720441e+00 -8.480385e+01 
2.962704e+00 -9.260928e+01 3.855642e+00 -9.733115e+01 4.675279e+00 9.910358e+01 4.272225e+00 9.461042e+01 3.813547e+00 8.951764e+01 3.431397e+00 8.389276e+01 3.160229e+00 7.785046e+01 2.954507e+00 7.153748e+01 2.735515e+00 6.508353e+01 2.480395e+00 5.855944e+01 2.213501e+00 5.191862e+01 2.026625e+00 4.513377e+01 1.936679e+00 3.820416e+01 1.925473e+00 3.120649e+01 1.900674e+00 2.423348e+01 1.789411e+00 1.734130e+01 1.561292e+00 1.055563e+01 1.209731e+00 3.856095e+00 7.967586e-01 -2.800689e+00 3.771116e-01 -9.468156e+00 2.536316e-02 -1.617567e+01 -2.349678e-01 -2.293937e+01 -3.898095e-01 -2.974242e+01 -4.549787e-01 -3.657157e+01 -4.222275e-01 -4.343037e+01 -2.570454e-01 -5.027868e+01 1.185094e-02 -5.702558e+01 3.256889e-01 -6.358264e+01 6.593669e-01 -6.990531e+01 1.041606e+00 -7.598388e+01 1.529894e+00 -8.181871e+01 2.172089e+00 -8.738457e+01 
3.110285e+00 -9.198271e+01 3.801137e+00 -9.695378e+01 4.493740e+00 9.903497e+01 4.177900e+00 9.428921e+01 3.836710e+00 8.911743e+01 3.553122e+00 8.353384e+01 3.337782e+00 7.760458e+01 3.151478e+00 7.141865e+01 2.937913e+00 6.505103e+01 2.702512e+00 5.856546e+01 2.442376e+00 5.196655e+01 2.225860e+00 4.527501e+01 2.044834e+00 3.849342e+01 1.923602e+00 3.167751e+01 1.807349e+00 2.485677e+01 1.676354e+00 1.806335e+01 1.514203e+00 1.129315e+01 1.307620e+00 4.537662e+00 1.096273e+00 -2.220874e+00 8.787063e-01 -9.004364e+00 7.104302e-01 -1.580307e+01 5.749987e-01 -2.262498e+01 4.974206e-01 -2.943616e+01 4.582463e-01 -3.623518e+01 4.746435e-01 -4.300889e+01 5.835491e-01 -4.973845e+01 7.752602e-01 -5.635730e+01 1.012150e+00 -6.281500e+01 1.283157e+00 -6.908677e+01 1.604488e+00 -7.515902e+01 2.004366e+00 -8.101935e+01 2.506095e+00 -8.664268e+01 
2.502304e+00 -9.497412e+01 3.152073e+00 -1.003765e+02 3.767876e+00 1.014718e+02 3.577196e+00 9.630701e+01 3.323727e+00 9.079545e+01 3.083466e+00 8.492769e+01 2.879707e+00 7.875544e+01 2.686303e+00 7.235144e+01 2.463750e+00 6.576762e+01 2.266021e+00 5.908693e+01 2.048664e+00 5.230464e+01 1.898834e+00 4.545067e+01 1.779813e+00 3.850864e+01 1.716393e+00 3.153877e+01 1.646394e+00 2.457271e+01 1.525699e+00 1.765201e+01 1.347633e+00 1.078996e+01 1.073041e+00 3.968692e+00 7.777224e-01 -2.819309e+00 4.480847e-01 -9.621286e+00 1.778207e-01 -1.643520e+01 -4.603860e-02 -2.328954e+01 -1.900621e-01 -3.016885e+01 -2.605990e-01 -3.707389e+01 -2.594853e-01 -4.399364e+01 -1.336005e-01 -5.087752e+01 7.448367e-02 -5.766850e+01 3.270712e-01 -6.432329e+01 6.171592e-01 -7.081966e+01 9.607176e-01 -7.714829e+01 1.382851e+00 -8.330130e+01 1.899951e+00 -8.925791e+01 
2.623955e+00 -9.461289e+01 3.107135e+00 -1.002838e+02 3.575272e+00 1.018447e+02 3.479993e+00 9.640349e+01 3.332368e+00 9.075007e+01 3.188591e+00 8.484582e+01 3.061694e+00 7.870449e+01 2.919233e+00 7.236235e+01 2.701618e+00 6.583018e+01 2.506807e+00 5.917196e+01 2.260900e+00 5.242257e+01 2.092069e+00 4.564432e+01 1.904735e+00 3.879542e+01 1.799509e+00 3.195857e+01 1.685802e+00 2.508892e+01 1.576491e+00 1.825707e+01 1.459693e+00 1.141338e+01 1.280537e+00 4.576727e+00 1.132446e+00 -2.265031e+00 9.271898e-01 -9.139675e+00 8.036612e-01 -1.599823e+01 6.669583e-01 -2.289824e+01 6.002119e-01 -2.976636e+01 5.482695e-01 -3.666068e+01 5.273639e-01 -4.352072e+01 6.006955e-01 -5.035725e+01 7.545381e-01 -5.708009e+01 9.455000e-01 -6.367306e+01 1.173846e+00 -7.013859e+01 1.448735e+00 -7.647566e+01 1.780427e+00 -8.267797e+01 2.174366e+00 -8.873180e+01 
1.953349e+00 -9.754229e+01 2.381838e+00 -1.036075e+02 2.765185e+00 1.043570e+02 2.793053e+00 9.850873e+01 2.745288e+00 9.250704e+01 2.670460e+00 8.630476e+01 2.584681e+00 7.990487e+01 2.457151e+00 7.332854e+01 2.217135e+00 6.654152e+01 2.087704e+00 5.969611e+01 1.847525e+00 5.276046e+01 1.741455e+00 4.584014e+01 1.584224e+00 3.883984e+01 1.516246e+00 3.185958e+01 1.447445e+00 2.486375e+01 1.328383e+00 1.790394e+01 1.229084e+00 1.097814e+01 9.776862e-01 4.053910e+00 7.939312e-01 -2.828482e+00 4.850117e-01 -9.754461e+00 2.899580e-01 -1.665878e+01 8.125355e-02 -2.361681e+01 -5.415482e-02 -3.058434e+01 -1.291225e-01 -3.758593e+01 -1.994490e-01 -4.461213e+01 -8.133865e-02 -5.157772e+01 9.497075e-02 -5.844439e+01 2.952506e-01 -6.521230e+01 5.302037e-01 -7.188721e+01 8.107882e-01 -7.846762e+01 1.144170e+00 -8.494686e+01 1.529959e+00 -9.131215e+01 
2.054209e+00 -9.733131e+01 2.332159e+00 -1.036584e+02 2.558291e+00 1.050237e+02 2.687915e+00 9.890356e+01 2.742364e+00 9.273516e+01 2.767630e+00 8.645645e+01 2.783009e+00 8.004041e+01 2.751032e+00 7.347905e+01 2.506442e+00 6.671561e+01 2.362235e+00 5.984047e+01 2.048401e+00 5.291234e+01 1.956499e+00 4.606304e+01 1.719527e+00 3.910226e+01 1.674484e+00 3.225906e+01 1.573589e+00 2.529622e+01 1.490987e+00 1.845746e+01 1.456083e+00 1.152513e+01 1.254384e+00 4.625075e+00 1.203425e+00 -2.288862e+00 9.373969e-01 -9.274844e+00 8.926941e-01 -1.616795e+01 7.225293e-01 -2.318841e+01 6.885209e-01 -3.009308e+01 6.211582e-01 -3.713610e+01 5.231255e-01 -4.409563e+01 5.560267e-01 -5.109169e+01 6.868710e-01 -5.791580e+01 8.352325e-01 -6.463744e+01 1.018007e+00 -7.129635e+01 1.236235e+00 -7.789929e+01 1.486835e+00 -8.444328e+01 1.763952e+00 -9.092300e+01 
1.348907e+00 -1.001477e+02 1.562102e+00 -1.068317e+02 1.694697e+00 1.075399e+02 1.948185e+00 1.010415e+02 2.107527e+00 9.453749e+01 2.216885e+00 8.796226e+01 2.299264e+00 8.128171e+01 2.311882e+00 7.447840e+01 1.985900e+00 6.735792e+01 1.975203e+00 6.034826e+01 1.573002e+00 5.322750e+01 1.593705e+00 4.626766e+01 1.334086e+00 3.918366e+01 1.312691e+00 3.217228e+01 1.292228e+00 2.513520e+01 1.137989e+00 1.811783e+01 1.223467e+00 1.115277e+01 8.703772e-01 4.111812e+00 8.911253e-01 -2.823523e+00 4.629424e-01 -9.879171e+00 3.925412e-01 -1.685582e+01 1.628645e-01 -2.390999e+01 2.694270e-02 -3.099398e+01 -4.917710e-03 -3.810059e+01 -2.760476e-01 -4.533873e+01 -8.096039e-02 -5.238151e+01 7.295066e-02 -5.929531e+01 2.175305e-01 -6.616514e+01 3.954281e-01 -7.301859e+01 6.073792e-01 -7.985085e+01 8.457182e-01 -8.665352e+01 1.099407e+00 -9.342057e+01 
1.437782e+00 -1.000069e+02 1.510618e+00 -1.069344e+02 1.481669e+00 1.083747e+02 1.836973e+00 1.016217e+02 2.088183e+00 9.495130e+01 2.289815e+00 8.830023e+01 2.493501e+00 8.161426e+01 2.700837e+00 7.478639e+01 2.436739e+00 6.759198e+01 2.256273e+00 6.052440e+01 1.750121e+00 5.336367e+01 1.835500e+00 4.651162e+01 1.442853e+00 3.940077e+01 1.554628e+00 3.257310e+01 1.447793e+00 2.548911e+01 1.395598e+00 1.866541e+01 1.524751e+00 1.164935e+01 1.208025e+00 4.663983e+00 1.349038e+00 -2.280415e+00 8.724195e-01 -9.429624e+00 9.962136e-01 -1.630985e+01 7.243066e-01 -2.346884e+01 7.812293e-01 -3.040199e+01 7.094459e-01 -3.762003e+01 4.967182e-01 -4.482855e+01 4.202771e-01 -5.196714e+01 5.438996e-01 -5.879653e+01 6.669247e-01 -6.562219e+01 8.189539e-01 -7.247562e+01 9.838130e-01 -7.934363e+01 1.150447e+00 -8.621968e+01 1.307778e+00 -9.310522e+01 
7.202954e-01 -1.026790e+02 7.226815e-01 -1.099259e+02 5.945168e-01 1.108300e+02 1.072783e+00 1.037384e+02 1.424750e+00 9.676598e+01 1.707637e+00 8.984699e+01 1.983588e+00 8.290809e+01 2.265201e+00 7.585167e+01 1.868996e+00 6.785589e+01 1.858060e+00 6.097949e+01 1.113025e+00 5.366538e+01 1.545616e+00 4.658087e+01 8.914207e-01 3.968673e+01 1.104649e+00 3.229471e+01 1.095421e+00 2.556380e+01 8.295113e-01 1.813875e+01 1.384905e+00 1.140390e+01 6.198481e-01 4.053484e+00 1.209409e+00 -2.855622e+00 2.577622e-01 -9.927116e+00 5.336766e-01 -1.718396e+01 1.449218e-01 -2.395385e+01 -2.366255e-02 -3.157707e+01 2.287531e-01 -3.840686e+01 -7.138546e-01 -4.655680e+01 -9.798638e-02 -5.327540e+01 -1.880647e-02 -6.011166e+01 7.423579e-02 -6.708301e+01 2.163185e-01 -7.413331e+01 3.689315e-01 -8.122300e+01 5.147225e-01 -8.834061e+01 6.392605e-01 -9.548905e+01 
8.090765e-01 -1.025507e+02 6.822714e-01 -1.100171e+02 3.993583e-01 1.117256e+02 9.703722e-01 1.043965e+02 1.391958e+00 9.725544e+01 1.722493e+00 9.026876e+01 2.046245e+00 8.346505e+01 2.551507e+00 7.697950e+01 3.238665e+00 6.736931e+01 1.562771e+00 6.154345e+01 1.660763e+00 5.351887e+01 1.544583e+00 4.683730e+01 1.016002e+00 4.004681e+01 1.493288e+00 3.230619e+01 9.471802e-01 2.623538e+01 1.449180e+00 1.819067e+01 1.296158e+00 1.224455e+01 1.437521e+00 4.222391e+00 1.350304e+00 -2.148143e+00 8.181098e-01 -9.523731e+00 1.023710e+00 -1.684102e+01 4.513818e-01 -2.313971e+01 9.309067e-01 -3.141481e+01 4.702804e-01 -3.723345e+01 6.709777e-01 -4.699019e+01 -1.771863e-01 -5.280998e+01 2.263115e-01 -5.953605e+01 4.437252e-01 -6.653237e+01 5.999199e-01 -7.361260e+01 7.169821e-01 -8.074695e+01 7.986360e-01 -8.793807e+01 8.362020e-01 -9.519929e+01 
9.867563e-02 -1.050591e+02 -9.830052e-02 -1.128079e+02 -4.744459e-01 1.140540e+02 2.154435e-01 1.064286e+02 7.343549e-01 9.903412e+01 1.140738e+00 9.186894e+01 1.515337e+00 8.502434e+01 2.055814e+00 7.865360e+01 2.694850e+00 6.791351e+01 1.334271e+00 6.243081e+01 1.416378e+00 5.391759e+01 1.331728e+00 4.710689e+01 8.254421e-01 4.040440e+01 1.353921e+00 3.209418e+01 7.679197e-01 2.647295e+01 1.353171e+00 1.780571e+01 1.083577e+00 1.228157e+01 1.300563e+00 3.825129e+00 1.084600e+00 -2.506523e+00 4.922949e-01 -9.882856e+00 7.893105e-01 -1.766159e+01 3.500154e-02 -2.344845e+01 8.549934e-01 -3.247568e+01 2.444624e-02 -3.758649e+01 7.139549e-01 -4.850819e+01 -1.044223e+00 -5.363321e+01 -4.522775e-01 -6.062261e+01 -1.472618e-01 -6.788558e+01 2.300390e-02 -7.519056e+01 1.254422e-01 -8.253985e+01 1.793987e-01 -8.995287e+01 1.782047e-01 -9.745080e+01 
1.999151e-01 -1.048996e+02 -1.112706e-01 -1.128415e+02 -6.167801e-01 1.149273e+02 1.503914e-01 1.070807e+02 7.356333e-01 9.949778e+01 1.191922e+00 9.214385e+01 1.565506e+00 8.499791e+01 1.874927e+00 7.796278e+01 1.562617e+00 6.874013e+01 1.960886e+00 6.219476e+01 1.398639e+00 5.430034e+01 1.684682e+00 4.736323e+01 1.171549e+00 4.036488e+01 1.307994e+00 3.277595e+01 1.233246e+00 2.626728e+01 1.181102e+00 1.850267e+01 1.536570e+00 1.206918e+01 1.210023e+00 4.349374e+00 1.516025e+00 -2.360632e+00 8.380155e-01 -9.628478e+00 1.076906e+00 -1.695790e+01 5.976768e-01 -2.357195e+01 8.539642e-01 -3.154793e+01 5.909547e-01 -3.797346e+01 4.421185e-01 -4.689535e+01 -1.990730e-01 -5.330942e+01 1.152257e-01 -6.025847e+01 3.061213e-01 -6.742959e+01 4.187928e-01 -7.470854e+01 4.685141e-01 -8.207918e+01 4.581934e-01 -8.955198e+01 3.767666e-01 -9.714873e+01 
-4.877909e-01 -1.072323e+02 -8.629423e-01 -1.154209e+02 -1.446957e+00 1.170646e+02 -5.736871e-01 1.089464e+02 1.095026e-01 1.011010e+02 6.612353e-01 9.347301e+01 1.139850e+00 8.597718e+01 1.558411e+00 7.840580e+01 1.275359e+00 7.028168e+01 1.590506e+00 6.274747e+01 1.045666e+00 5.506123e+01 1.424568e+00 4.779286e+01 9.451482e-01 4.044834e+01 1.143188e+00 3.315711e+01 1.127474e+00 2.599763e+01 9.713449e-01 1.872453e+01 1.361149e+00 1.164232e+01 8.049074e-01 4.302566e+00 1.231491e+00 -2.812142e+00 4.861553e-01 -1.011575e+01 7.550283e-01 -1.735602e+01 3.824080e-01 -2.451971e+01 3.623288e-01 -3.198914e+01 3.845914e-01 -3.924250e+01 -2.724015e-01 -4.715384e+01 -1.881107e-01 -5.429564e+01 -1.634068e-01 -6.146932e+01 -1.307389e-01 -6.879075e+01 -9.144365e-02 -7.623517e+01 -8.595792e-02 -8.378614e+01 -1.350377e-01 -9.145227e+01 -2.592132e-01 -9.925659e+01 
-3.642586e-01 -1.070066e+02 -8.400133e-01 -1.153607e+02 -1.538445e+00 1.178433e+02 -6.056062e-01 1.095229e+02 1.224589e-01 1.014897e+02 6.924661e-01 9.367556e+01 1.140429e+00 8.599014e+01 1.463881e+00 7.829223e+01 1.432819e+00 7.052466e+01 1.591108e+00 6.287290e+01 1.366052e+00 5.532742e+01 1.526328e+00 4.802005e+01 1.287576e+00 4.064404e+01 1.378020e+00 3.347443e+01 1.357539e+00 2.619496e+01 1.310906e+00 1.908885e+01 1.471783e+00 1.189473e+01 1.217543e+00 4.702025e+00 1.364235e+00 -2.436256e+00 9.915414e-01 -9.735846e+00 1.060379e+00 -1.685651e+01 8.577723e-01 -2.417719e+01 8.076362e-01 -3.138914e+01 7.451251e-01 -3.878180e+01 3.886746e-01 -4.628464e+01 3.550546e-01 -5.370145e+01 3.495495e-01 -6.095441e+01 3.330337e-01 -6.828410e+01 3.148979e-01 -7.573075e+01 2.624171e-01 -8.330391e+01 1.496584e-01 -9.102080e+01 -4.863530e-02 -9.890910e+01 
-1.019669e+00 -1.091560e+02 -1.551732e+00 -1.177215e+02 -2.316357e+00 1.197499e+02 -1.291839e+00 1.111894e+02 -4.787565e-01 1.029174e+02 1.665310e-01 9.486436e+01 6.728998e-01 8.695154e+01 1.020173e+00 7.910709e+01 1.051407e+00 7.129543e+01 1.186630e+00 6.351592e+01 1.055723e+00 5.584074e+01 1.185746e+00 4.835857e+01 1.027612e+00 4.087216e+01 1.098568e+00 3.355511e+01 1.082819e+00 2.619509e+01 1.040223e+00 1.895139e+01 1.127413e+00 1.167714e+01 9.123173e-01 4.392896e+00 9.766664e-01 -2.849783e+00 6.705039e-01 -1.019832e+01 6.669310e-01 -1.744953e+01 4.755148e-01 -2.482813e+01 3.661067e-01 -3.217146e+01 2.773873e-01 -3.962464e+01 -5.499094e-02 -4.716831e+01 -2.779201e-02 -5.465979e+01 -4.884587e-02 -6.209082e+01 -1.047363e-01 -6.958121e+01 -1.692369e-01 -7.718161e+01 -2.635870e-01 -8.491323e+01 -4.159477e-01 -9.279777e+01 -6.561387e-01 -1.008652e+02 
-8.671511e-01 -1.088353e+02 -1.487302e+00 -1.175379e+02 -2.354412e+00 1.203949e+02 -1.282467e+00 1.116658e+02 -4.355234e-01 1.032421e+02 2.255299e-01 9.505843e+01 7.271697e-01 8.704852e+01 1.067677e+00 7.916071e+01 1.193446e+00 7.137543e+01 1.315912e+00 6.363398e+01 1.295513e+00 5.601074e+01 1.375720e+00 4.852875e+01 1.302314e+00 4.108397e+01 1.345274e+00 3.377544e+01 1.332075e+00 2.644952e+01 1.325372e+00 1.922886e+01 1.354627e+00 1.197658e+01 1.246284e+00 4.743598e+00 1.247233e+00 -2.485940e+00 1.067591e+00 -9.776382e+00 1.029627e+00 -1.701224e+01 8.889658e-01 -2.434961e+01 7.996345e-01 -3.164887e+01 6.895230e-01 -3.906757e+01 4.855091e-01 -4.652651e+01 4.376670e-01 -5.403482e+01 4.001074e-01 -6.150101e+01 3.259422e-01 -6.901102e+01 2.261803e-01 -7.662524e+01 8.540456e-02 -8.438007e+01 -1.222891e-01 -9.230746e+01 -4.275236e-01 -1.004440e+02 
-1.485000e+00 -1.107966e+02 -2.153267e+00 -1.196758e+02 -3.077094e+00 1.220561e+02 -1.926451e+00 1.131270e+02 -1.008681e+00 1.045071e+02 -2.877721e-01 9.613694e+01 2.593224e-01 8.796210e+01 6.309259e-01 7.994088e+01 8.053089e-01 7.202577e+01 9.392535e-01 6.418206e+01 9.659063e-01 5.643632e+01 1.040152e+00 4.882365e+01 1.010105e+00 4.127453e+01 1.042874e+00 3.383771e+01 1.035871e+00 2.642963e+01 1.022185e+00 1.908910e+01 1.020213e+00 1.175876e+01 9.214618e-01 4.429864e+00 8.798086e-01 -2.885803e+00 7.202883e-01 -1.024637e+01 6.406209e-01 -1.758512e+01 4.967664e-01 -2.498714e+01 3.772749e-01 -3.239742e+01 2.501692e-01 -3.988006e+01 6.681392e-02 -4.742962e+01 1.510526e-02 -5.500895e+01 -3.650871e-02 -6.259650e+01 -1.265880e-01 -7.024022e+01 -2.514205e-01 -7.798946e+01 -4.221512e-01 -8.588235e+01 -6.625714e-01 -9.395377e+01 -1.004006e+00 -1.022426e+02 
-1.298052e+00 -1.103573e+02 -2.041374e+00 -1.193451e+02 -3.053714e+00 1.225411e+02 -1.864628e+00 1.134815e+02 -9.185359e-01 1.047500e+02 -1.790945e-01 9.629104e+01 3.794323e-01 8.805491e+01 7.666953e-01 8.000146e+01 9.853568e-01 7.208600e+01 1.133705e+00 6.426294e+01 1.201033e+00 5.655020e+01 1.272740e+00 4.895827e+01 1.273047e+00 4.144548e+01 1.305191e+00 3.403429e+01 1.305468e+00 2.666318e+01 1.307824e+00 1.935595e+01 1.302301e+00 1.206010e+01 1.244238e+00 4.775416e+00 1.203179e+00 -2.508746e+00 1.092891e+00 -9.821256e+00 1.022065e+00 -1.712862e+01 9.060568e-01 -2.448647e+01 8.070920e-01 -3.185844e+01 6.864321e-01 -3.930395e+01 5.431243e-01 -4.680800e+01 4.593758e-01 -5.437371e+01 3.881026e-01 -6.196459e+01 2.817984e-01 -6.961368e+01 1.322446e-01 -7.737049e+01 -7.322067e-02 -8.527979e+01 -3.578338e-01 -9.338316e+01 -7.530490e-01 -1.017249e+02 
-1.874588e+00 -1.121281e+02 -2.656701e+00 -1.212582e+02 -3.715851e+00 1.239492e+02 -2.460313e+00 1.147311e+02 -1.455518e+00 1.058448e+02 -6.664618e-01 9.723902e+01 -6.840622e-02 8.886766e+01 3.496115e-01 8.068899e+01 5.997326e-01 7.265161e+01 7.707881e-01 6.472069e+01 8.615482e-01 5.689923e+01 9.414796e-01 4.919981e+01 9.589325e-01 4.158784e+01 9.901666e-01 3.407437e+01 9.921073e-01 2.661473e+01 9.869669e-01 1.921220e+01 9.692498e-01 1.183330e+01 9.051962e-01 4.463367e+00 8.460488e-01 -2.901621e+00 7.309737e-01 -1.029036e+01 6.386064e-01 -1.768181e+01 5.109449e-01 -2.511537e+01 3.929915e-01 -3.257566e+01 2.608720e-01 -4.009914e+01 1.173428e-01 -4.768797e+01 2.697195e-02 -5.533305e+01 -5.557315e-02 -6.301956e+01 -1.735526e-01 -7.077530e+01 -3.390035e-01 -7.864436e+01 -5.647824e-01 -8.667009e+01 -8.734986e-01 -9.489442e+01 -1.296756e+00 -1.033626e+02 
-1.647692e+00 -1.115516e+02 -2.490970e+00 -1.207612e+02 -3.622849e+00 1.242485e+02 -2.337657e+00 1.149377e+02 -1.309766e+00 1.059769e+02 -5.013458e-01 9.731543e+01 1.158912e-01 8.890707e+01 5.563116e-01 8.071190e+01 8.281438e-01 7.268460e+01 1.010332e+00 6.475838e+01 1.113595e+00 5.696311e+01 1.202496e+00 4.929249e+01 1.224330e+00 4.171548e+01 1.267499e+00 3.424549e+01 1.273395e+00 2.682272e+01 1.284876e+00 1.947085e+01 1.278655e+00 1.213011e+01 1.235451e+00 4.810990e+00 1.195471e+00 -2.514774e+00 1.100012e+00 -9.859220e+00 1.031817e+00 -1.720591e+01 9.191449e-01 -2.460021e+01 8.260199e-01 -3.201179e+01 7.010965e-01 -3.950347e+01 5.662596e-01 -4.704730e+01 4.532724e-01 -5.467792e+01 3.560183e-01 -6.235048e+01 2.228060e-01 -7.009316e+01 3.863024e-02 -7.795565e+01 -2.120980e-01 -8.598536e+01 -5.537197e-01 -9.422756e+01 -1.018719e+00 -1.027307e+02 
-2.179325e+00 -1.131319e+02 -3.050694e+00 -1.224503e+02 -4.217755e+00 1.253965e+02 -2.878579e+00 1.159674e+02 -1.803165e+00 1.068901e+02 -9.535234e-01 9.811559e+01 -3.015043e-01 8.959722e+01 1.655637e-01 8.129263e+01 4.510884e-01 7.315558e+01 6.595679e-01 6.512695e+01 7.693626e-01 5.723305e+01 8.741138e-01 4.947450e+01 8.955496e-01 4.180741e+01 9.427804e-01 3.425385e+01 9.471515e-01 2.674722e+01 9.511584e-01 1.931364e+01 9.443299e-01 1.189472e+01 8.863639e-01 4.495792e+00 8.439502e-01 -2.902920e+00 7.293022e-01 -1.032469e+01 6.518795e-01 -1.774364e+01 5.211878e-01 -2.521514e+01 4.140193e-01 -3.270414e+01 2.779659e-01 -4.027580e+01 1.282333e-01 -4.790271e+01 1.527591e-02 -5.560977e+01 -8.645999e-02 -6.335815e+01 -2.282286e-01 -7.118364e+01 -4.228475e-01 -7.913628e+01 -6.862728e-01 -8.726125e+01 -1.043446e+00 -9.560208e+01 -1.527369e+00 -1.042066e+02 
-1.906586e+00 -1.124038e+02 -2.824768e+00 -1.217719e+02 -4.048511e+00 1.254829e+02 -2.690014e+00 1.159987e+02 -1.599492e+00 1.068841e+02 -7.335864e-01 9.808820e+01 -5.788991e-02 8.955959e+01 4.418061e-01 8.125235e+01 7.376769e-01 7.315654e+01 9.413689e-01 6.510212e+01 1.042159e+00 5.724152e+01 1.160152e+00 4.951917e+01 1.161185e+00 4.188511e+01 1.235122e+00 3.440223e+01 1.233075e+00 2.692104e+01 1.261682e+00 1.957163e+01 1.273215e+00 1.218009e+01 1.226191e+00 4.853198e+00 1.214929e+00 -2.508771e+00 1.095867e+00 -9.887815e+00 1.057544e+00 -1.724473e+01 9.252653e-01 -2.468924e+01 8.586165e-01 -3.210139e+01 7.247222e-01 -3.966425e+01 5.754731e-01 -4.722484e+01 4.217052e-01 -5.493552e+01 3.112069e-01 -6.264971e+01 1.581070e-01 -7.043973e+01 -4.680370e-02 -7.836934e+01 -3.244612e-01 -8.648404e+01 -7.030722e-01 -9.482699e+01 -1.216609e+00 -1.034472e+02 
-2.389718e+00 -1.137959e+02 -3.323994e+00 -1.232398e+02 -4.569515e+00 1.263639e+02 -3.170353e+00 1.168007e+02 -2.044195e+00 1.076075e+02 -1.145931e+00 9.873382e+01 -4.394970e-01 9.012497e+01 8.646635e-02 8.172551e+01 3.711532e-01 7.351704e+01 6.107800e-01 6.537623e+01 6.889437e-01 5.742241e+01 8.411868e-01 4.963967e+01 8.164359e-01 4.192393e+01 9.036484e-01 3.437415e+01 8.976567e-01 2.682031e+01 9.116805e-01 1.939403e+01 9.449052e-01 1.193912e+01 8.614732e-01 4.527152e+00 8.771677e-01 -2.890641e+00 7.120758e-01 -1.035233e+01 6.839553e-01 -1.776717e+01 5.217637e-01 -2.528509e+01 4.441333e-01 -3.277079e+01 3.040985e-01 -4.040745e+01 1.144985e-01 -4.806960e+01 -2.069015e-02 -5.583994e+01 -1.290364e-01 -6.360165e+01 -2.871125e-01 -7.145223e+01 -4.962752e-01 -7.945349e+01 -7.789382e-01 -8.764483e+01 -1.164524e+00 -9.606558e+01 -1.687459e+00 -1.047631e+02 
-2.065040e+00 -1.129054e+02 -3.031382e+00 -1.223682e+02 -4.317384e+00 1.262102e+02 -2.912270e+00 1.166289e+02 -1.784421e+00 1.074359e+02 -8.813914e-01 9.858383e+01 -1.537235e-01 9.001374e+01 4.325460e-01 8.162220e+01 7.616912e-01 7.347637e+01 9.184821e-01 6.525934e+01 9.947744e-01 5.735437e+01 1.133432e+00 4.963825e+01 1.080814e+00 4.193647e+01 1.205352e+00 3.450940e+01 1.178935e+00 2.694668e+01 1.234158e+00 1.966274e+01 1.284596e+00 1.220952e+01 1.221562e+00 4.898249e+00 1.260435e+00 -2.483754e+00 1.082748e+00 -9.922372e+00 1.093272e+00 -1.723455e+01 9.164792e-01 -2.475514e+01 9.098695e-01 -3.210355e+01 7.624279e-01 -3.977878e+01 6.197119e-01 -4.736300e+01 3.393573e-01 -5.516661e+01 2.343843e-01 -6.283983e+01 8.376010e-02 -7.063210e+01 -1.171318e-01 -7.859891e+01 -4.006715e-01 -8.676738e+01 -7.965621e-01 -9.517385e+01 -1.337675e+00 -1.038664e+02 
-2.496392e+00 -1.141142e+02 -3.465487e+00 -1.236202e+02 -4.757716e+00 1.268182e+02 -3.326760e+00 1.171960e+02 -2.176954e+00 1.079622e+02 -1.253518e+00 9.907276e+01 -5.033165e-01 9.046985e+01 1.114944e-01 8.204563e+01 4.023376e-01 7.362350e+01 5.950980e-01 6.546331e+01 6.160380e-01 5.740687e+01 8.407626e-01 4.968979e+01 7.022835e-01 4.194148e+01 8.758690e-01 3.440270e+01 8.182490e-01 2.687195e+01 8.493623e-01 1.940731e+01 9.633044e-01 1.200828e+01 8.179842e-01 4.510966e+00 9.569671e-01 -2.850666e+00 6.665816e-01 -1.039117e+01 7.408731e-01 -1.777203e+01 4.860418e-01 -2.528117e+01 4.854261e-01 -3.280131e+01 3.347527e-01 -4.041998e+01 9.972941e-02 -4.830825e+01 -1.290189e-01 -5.603524e+01 -2.131266e-01 -6.371486e+01 -3.571004e-01 -7.155671e+01 -5.518236e-01 -7.958494e+01 -8.321759e-01 -8.781516e+01 -1.226906e+00 -9.628007e+01 -1.768004e+00 -1.050265e+02 
-2.114236e+00 -1.130528e+02 -3.099564e+00 -1.225463e+02 -4.412655e+00 1.264010e+02 -2.993571e+00 1.167932e+02 -1.860277e+00 1.075871e+02 -9.575650e-01 9.875222e+01 -2.300570e-01 9.027693e+01 4.062100e-01 8.219857e+01 1.225598e+00 7.312069e+01 6.257647e-01 6.545470e+01 1.186555e+00 5.705824e+01 9.022791e-01 4.971334e+01 1.097893e+00 4.191541e+01 1.115175e+00 3.438440e+01 1.042381e+00 2.714419e+01 1.258123e+00 1.943790e+01 1.127700e+00 1.250416e+01 1.411204e+00 4.669158e+00 1.122558e+00 -2.285753e+00 1.238513e+00 -1.004757e+01 1.003798e+00 -1.726197e+01 8.923576e-01 -2.460473e+01 1.001418e+00 -3.227093e+01 6.341913e-01 -3.941616e+01 1.018153e+00 -4.798766e+01 -5.245759e-02 -5.530389e+01 4.685824e-02 -6.283397e+01 6.652309e-03 -7.064516e+01 -1.526275e-01 -7.864078e+01 -4.253189e-01 -8.683530e+01 -8.232766e-01 -9.526700e+01 -1.373160e+00 -1.039857e+02 
-2.491667e+00 -1.140847e+02 -3.464784e+00 -1.235894e+02 -4.765156e+00 1.267339e+02 -3.337263e+00 1.171195e+02 -2.196213e+00 1.079030e+02 -1.286108e+00 9.906153e+01 -5.473611e-01 9.060746e+01 1.318877e-01 8.265223e+01 1.202320e+00 7.312088e+01 1.970125e-01 6.568326e+01 9.819032e-01 5.702178e+01 4.963428e-01 4.976847e+01 8.045643e-01 4.190106e+01 7.923098e-01 3.422186e+01 6.970739e-01 2.710595e+01 9.919566e-01 1.912726e+01 7.571261e-01 1.239265e+01 1.170881e+00 4.270477e+00 7.152084e-01 -2.563851e+00 9.333277e-01 -1.049914e+01 5.958908e-01 -1.777245e+01 5.055874e-01 -2.506148e+01 6.661817e-01 -3.295732e+01 2.068731e-01 -3.989408e+01 8.076716e-01 -4.895113e+01 -5.707790e-01 -5.604845e+01 -4.073819e-01 -6.360243e+01 -4.153410e-01 -7.148213e+01 -5.628008e-01 -7.953518e+01 -8.290412e-01 -8.777684e+01 -1.220128e+00 -9.624726e+01 -1.761280e+00 -1.049963e+02 