# vtk DataFile Version 2.0
Comment goes here
ASCII

DATASET STRUCTURED_POINTS
FIELD FieldData 1
TIME 1 1 double
0.01100000
DIMENSIONS    64   64   1

ORIGIN    0.000   0.000   0.000
SPACING   0.03125 0.03125   1.000

POINT_DATA   4096
VECTORS u double

0.145523 -0.005600 0.000000 -0.540561 0.002362 0.000000 0.382971 0.000721 0.000000 -0.514866 0.000572 0.000000 0.309198 -0.001259 0.000000 -0.410838 -0.002551 0.000000 0.183215 0.001952 0.000000 -0.273097 -0.002207 0.000000 0.050559 0.001996 0.000000 -0.131362 -0.002318 0.000000 -0.073473 0.001919 0.000000 -0.007396 -0.002030 0.000000 -0.170374 0.001602 0.000000 0.078079 -0.001782 0.000000 -0.223551 0.001348 0.000000 0.120240 -0.001573 0.000000 -0.240279 0.001209 0.000000 0.132439 -0.001322 0.000000 -0.237872 0.000891 0.000000 0.130762 -0.000845 0.000000 -0.226316 0.000633 0.000000 0.121905 -0.000971 0.000000 -0.213028 0.000791 0.000000 0.115641 -0.000950 0.000000 -0.208767 0.000937 0.000000 0.122869 -0.000846 0.000000 -0.218252 0.000662 0.000000 0.134914 -0.000267 0.000000 -0.221280 -0.000150 0.000000 0.131775 0.000061 0.000000 -0.208182 0.000588 0.000000 0.120445 -0.000915 0.000000 -0.194789 0.000834 0.000000 0.110885 -0.001238 0.000000 -0.180573 0.001105 0.000000 0.097218 -0.000623 0.000000 -0.162409 0.000859 0.000000 0.079859 -0.001702 0.000000 -0.138714 0.002266 0.000000 0.058207 -0.001797 0.000000 -0.115644 0.001824 0.000000 0.034553 -0.001283 0.000000 -0.090025 0.001195 0.000000 0.013740 -0.001396 0.000000 -0.073571 0.002881 0.000000 0.001977 -0.002274 0.000000 -0.057121 0.000697 0.000000 -0.024365 0.000334 0.000000 -0.010183 -0.000558 0.000000 -0.090997 0.001163 0.000000 0.068212 -0.001083 0.000000 -0.172567 0.001725 0.000000 0.143993 -0.001878 0.000000 -0.234782 0.002572 0.000000 0.186371 -0.002793 0.000000 -0.254916 0.003428 0.000000 0.171880 -0.003451 0.000000 -0.214057 0.003888 0.000000 0.105894 -0.003852 0.000000 -0.137745 0.004012 0.000000 0.020888 -0.003816 0.000000 -0.066575 0.003859 0.000000 -0.033469 -0.003645 0.000000 -0.061480 0.004677 0.000000 
0.037452 0.236412 0.000000 0.292788 -0.120514 0.000000 -0.325958 -0.011726 0.000000 0.319315 0.034327 0.000000 -0.302877 -0.048679 0.000000 0.272652 0.062625 0.000000 -0.239017 -0.067995 0.000000 0.202633 0.065523 0.000000 -0.178593 -0.069796 0.000000 0.129887 0.061041 0.000000 -0.122963 -0.060686 0.000000 0.064528 0.047214 0.000000 -0.079198 -0.041342 0.000000 0.018303 0.025402 0.000000 -0.057508 -0.019792 0.000000 -0.004315 0.007354 0.000000 -0.055097 -0.005081 0.000000 -0.009583 -0.002044 0.000000 -0.062889 0.001738 0.000000 -0.006671 -0.006532 0.000000 -0.075210 0.005170 0.000000 0.001001 -0.007164 0.000000 -0.088954 0.003579 0.000000 0.007741 -0.002445 0.000000 -0.096227 -0.003180 0.000000 0.004201 0.004317 0.000000 -0.090337 -0.005685 0.000000 -0.006632 0.001401 0.000000 -0.083862 0.001655 0.000000 -0.013561 -0.006561 0.000000 -0.081460 0.005474 0.000000 -0.018676 -0.006264 0.000000 -0.076921 0.004403 0.000000 -0.027770 -0.006763 0.000000 -0.069613 0.006717 0.000000 -0.038106 -0.009226 0.000000 -0.058072 0.008880 0.000000 -0.051358 -0.011939 0.000000 -0.049846 0.010990 0.000000 -0.060868 -0.012005 0.000000 -0.036852 0.012287 0.000000 -0.073170 -0.013280 0.000000 -0.022175 0.011037 0.000000 -0.092084 -0.008972 0.000000 0.001938 0.006193 0.000000 -0.115511 -0.008483 0.000000 0.026104 0.013879 0.000000 -0.139345 -0.024524 0.000000 0.044667 0.034216 0.000000 -0.145579 -0.040093 0.000000 0.049097 0.041155 0.000000 -0.145464 -0.037944 0.000000 0.054998 0.030539 0.000000 -0.154997 -0.020230 0.000000 0.076459 0.008449 0.000000 -0.180980 0.009233 0.000000 0.123107 -0.023003 0.000000 -0.232488 0.035876 0.000000 0.189678 -0.041438 0.000000 -0.294062 0.045896 0.000000 0.256352 -0.039243 0.000000 -0.340682 0.030735 0.000000 0.291662 -0.006191 0.000000 -0.320480 -0.086312 0.000000 
0.303997 -0.618868 0.000000 0.350822 0.365773 0.000000 -0.040559 -0.025806 0.000000 0.352553 -0.022509 0.000000 0.012903 0.045404 0.000000 0.280743 -0.066412 0.000000 0.088895 0.071972 0.000000 0.193267 -0.062631 0.000000 0.196603 0.074741 0.000000 0.104381 -0.057948 0.000000 0.302408 0.067278 0.000000 0.027660 -0.045794 0.000000 0.388216 0.047827 0.000000 -0.022653 -0.023472 0.000000 0.440414 0.023966 0.000000 -0.043285 -0.003984 0.000000 0.464236 0.006477 0.000000 -0.044359 0.006469 0.000000 0.472603 -0.002021 0.000000 -0.037340 0.011476 0.000000 0.472517 -0.007039 0.000000 -0.026223 0.012773 0.000000 0.469220 -0.005949 0.000000 -0.018161 0.006323 0.000000 0.472013 0.004476 0.000000 -0.022707 -0.006736 0.000000 0.486776 0.011495 0.000000 -0.034064 -0.006741 0.000000 0.497788 0.006779 0.000000 -0.036611 -0.002341 0.000000 0.498141 0.005703 0.000000 -0.036096 -0.005454 0.000000 0.500502 0.009928 0.000000 -0.040083 -0.008546 0.000000 0.503859 0.011442 0.000000 -0.043603 -0.012163 0.000000 0.506456 0.014111 0.000000 -0.047350 -0.009929 0.000000 0.505069 0.011775 0.000000 -0.048825 -0.014790 0.000000 0.505785 0.014126 0.000000 -0.050956 -0.015960 0.000000 0.505092 0.020109 0.000000 -0.058145 -0.025510 0.000000 0.513098 0.026308 0.000000 -0.074989 -0.026439 0.000000 0.522286 0.024531 0.000000 -0.085191 -0.018229 0.000000 0.511154 0.005675 0.000000 -0.066937 -0.003266 0.000000 0.475887 -0.001198 0.000000 -0.038505 -0.004176 0.000000 0.440008 0.007655 0.000000 -0.022848 -0.018889 0.000000 0.423145 0.023189 0.000000 -0.032400 -0.043219 0.000000 0.440237 0.048057 0.000000 -0.081181 -0.062684 0.000000 0.486246 0.057722 0.000000 -0.150215 -0.062661 0.000000 0.537357 0.042804 0.000000 -0.210213 -0.031451 0.000000 0.558085 -0.023847 0.000000 -0.206583 0.258887 0.000000 
0.300080 -0.320992 0.000000 -0.211130 0.224041 0.000000 0.348912 -0.013457 0.000000 -0.162994 -0.019135 0.000000 0.025982 0.023130 0.000000 -0.117624 -0.013366 0.000000 0.239052 0.019481 0.000000 -0.071834 -0.042186 0.000000 0.372606 0.019089 0.000000 -0.035246 -0.044765 0.000000 0.461997 0.016035 0.000000 -0.006260 -0.038594 0.000000 0.527399 0.008971 0.000000 0.011682 -0.026796 0.000000 0.584001 0.000839 0.000000 0.017790 -0.016469 0.000000 0.634894 -0.004008 0.000000 0.016730 -0.010410 0.000000 0.678120 -0.005281 0.000000 0.013529 -0.006447 0.000000 0.714195 -0.005947 0.000000 0.008391 -0.003866 0.000000 0.744445 -0.004483 0.000000 0.003655 -0.005238 0.000000 0.766144 0.001366 0.000000 0.005240 -0.010446 0.000000 0.775621 0.005672 0.000000 0.010575 -0.009610 0.000000 0.783287 0.004202 0.000000 0.011159 -0.006914 0.000000 0.792458 0.004959 0.000000 0.010164 -0.008625 0.000000 0.797666 0.008390 0.000000 0.011450 -0.010120 0.000000 0.799659 0.010237 0.000000 0.012631 -0.011823 0.000000 0.797989 0.012627 0.000000 0.014892 -0.010552 0.000000 0.797327 0.012464 0.000000 0.014288 -0.012721 0.000000 0.791964 0.014419 0.000000 0.014209 -0.012587 0.000000 0.785120 0.018226 0.000000 0.017188 -0.016978 0.000000 0.769326 0.023038 0.000000 0.024231 -0.017671 0.000000 0.749681 0.024080 0.000000 0.031131 -0.013392 0.000000 0.731067 0.015962 0.000000 0.025549 -0.004826 0.000000 0.718326 0.012723 0.000000 0.016075 -0.002064 0.000000 0.700453 0.014882 0.000000 0.012534 -0.003368 0.000000 0.668478 0.018001 0.000000 0.018434 -0.007859 0.000000 0.613423 0.025777 0.000000 0.043354 -0.010134 0.000000 0.531711 0.027596 0.000000 0.083277 -0.005216 0.000000 0.422730 0.020754 0.000000 0.135637 0.010007 0.000000 0.282148 -0.009821 0.000000 0.189287 0.167776 0.000000 
0.404327 -0.218451 0.000000 -0.105614 0.316941 0.000000 0.380827 -0.073942 0.000000 -0.077173 0.300421 0.000000 0.098766 0.000033 0.000000 -0.054078 -0.279482 0.000000 0.324278 0.026182 0.000000 -0.034231 -0.196185 0.000000 0.451550 0.038153 0.000000 -0.019358 -0.147339 0.000000 0.536327 0.038292 0.000000 -0.007675 -0.111197 0.000000 0.598642 0.029885 0.000000 -0.000187 -0.080074 0.000000 0.649515 0.017858 0.000000 0.002929 -0.054877 0.000000 0.692171 0.007538 0.000000 0.003692 -0.036757 0.000000 0.726820 0.001180 0.000000 0.003882 -0.024598 0.000000 0.754950 -0.001901 0.000000 0.002980 -0.017477 0.000000 0.778124 -0.001212 0.000000 0.001809 -0.015377 0.000000 0.795472 0.002891 0.000000 0.003322 -0.016212 0.000000 0.805291 0.006161 0.000000 0.006498 -0.014408 0.000000 0.812933 0.006195 0.000000 0.007135 -0.011512 0.000000 0.820235 0.006698 0.000000 0.007114 -0.010661 0.000000 0.824266 0.008642 0.000000 0.008353 -0.010540 0.000000 0.825769 0.010261 0.000000 0.009510 -0.010493 0.000000 0.824544 0.011850 0.000000 0.011221 -0.009266 0.000000 0.822918 0.012380 0.000000 0.011487 -0.009428 0.000000 0.817957 0.014205 0.000000 0.011857 -0.009115 0.000000 0.811453 0.017130 0.000000 0.013502 -0.009716 0.000000 0.799210 0.019264 0.000000 0.017551 -0.006795 0.000000 0.783000 0.017631 0.000000 0.022095 0.000385 0.000000 0.765093 0.011258 0.000000 0.020861 0.009474 0.000000 0.747842 0.008276 0.000000 0.018057 0.013698 0.000000 0.726476 0.011196 0.000000 0.017659 0.013085 0.000000 0.697605 0.017289 0.000000 0.020315 0.011837 0.000000 0.656857 0.023138 0.000000 0.031008 0.019028 0.000000 0.601305 0.017798 0.000000 0.048643 0.046320 0.000000 0.527721 -0.009555 0.000000 0.074355 0.109131 0.000000 0.427763 -0.077497 0.000000 0.104196 0.240955 0.000000 
0.378658 -0.111182 0.000000 -0.072740 0.247541 0.000000 0.338046 -0.041898 0.000000 -0.088217 0.262926 0.000000 0.199281 0.000035 0.000000 -0.088235 -0.238878 0.000000 0.322106 -0.000365 0.000000 -0.060032 -0.169458 0.000000 0.422267 0.004216 0.000000 -0.035170 -0.129542 0.000000 0.499096 0.004352 0.000000 -0.014658 -0.100908 0.000000 0.559525 0.001484 0.000000 -0.000227 -0.077670 0.000000 0.610321 -0.002277 0.000000 0.007649 -0.059124 0.000000 0.654261 -0.004771 0.000000 0.010554 -0.045059 0.000000 0.691617 -0.005470 0.000000 0.010656 -0.034577 0.000000 0.722800 -0.005046 0.000000 0.009190 -0.027041 0.000000 0.748060 -0.003312 0.000000 0.007920 -0.022586 0.000000 0.766808 -0.000146 0.000000 0.008725 -0.020265 0.000000 0.778902 0.002496 0.000000 0.010872 -0.017253 0.000000 0.787660 0.003565 0.000000 0.011954 -0.014216 0.000000 0.794751 0.004980 0.000000 0.012465 -0.012656 0.000000 0.799238 0.007152 0.000000 0.013431 -0.011622 0.000000 0.801176 0.009080 0.000000 0.014527 -0.010598 0.000000 0.800637 0.010916 0.000000 0.015835 -0.008927 0.000000 0.798578 0.012198 0.000000 0.016502 -0.007759 0.000000 0.793642 0.014048 0.000000 0.017535 -0.006082 0.000000 0.785834 0.016581 0.000000 0.019754 -0.004735 0.000000 0.773512 0.018989 0.000000 0.023023 -0.001461 0.000000 0.758024 0.019537 0.000000 0.025176 0.004515 0.000000 0.741187 0.017196 0.000000 0.023111 0.012425 0.000000 0.723510 0.015527 0.000000 0.019596 0.019301 0.000000 0.700838 0.015280 0.000000 0.019073 0.025503 0.000000 0.668313 0.015345 0.000000 0.024462 0.032889 0.000000 0.621709 0.015084 0.000000 0.037973 0.045418 0.000000 0.559826 0.009961 0.000000 0.055959 0.068368 0.000000 0.485841 -0.004957 0.000000 0.068760 0.109966 0.000000 0.411317 -0.039663 0.000000 0.050136 0.191212 0.000000 
0.461508 -0.095574 0.000000 -0.032147 0.357553 0.000000 0.398898 -0.058465 0.000000 -0.041218 0.439185 0.000000 0.266882 0.000051 0.000000 -0.041319 -0.402306 0.000000 0.392632 -0.002022 0.000000 -0.029232 -0.296347 0.000000 0.490745 0.013291 0.000000 -0.018995 -0.224168 0.000000 0.564550 0.017780 0.000000 -0.010394 -0.171625 0.000000 0.621647 0.015454 0.000000 -0.003839 -0.130870 0.000000 0.667926 0.009982 0.000000 0.000509 -0.098817 0.000000 0.706159 0.004633 0.000000 0.003046 -0.074113 0.000000 0.737258 0.001078 0.000000 0.004365 -0.055781 0.000000 0.762460 -0.000436 0.000000 0.004730 -0.042737 0.000000 0.782535 0.000058 0.000000 0.004981 -0.034126 0.000000 0.797771 0.002086 0.000000 0.005973 -0.028305 0.000000 0.808302 0.004013 0.000000 0.007588 -0.023167 0.000000 0.815954 0.005113 0.000000 0.008554 -0.018602 0.000000 0.821800 0.006186 0.000000 0.009306 -0.015149 0.000000 0.825310 0.007676 0.000000 0.010296 -0.012477 0.000000 0.826792 0.009165 0.000000 0.011325 -0.009954 0.000000 0.826194 0.010542 0.000000 0.012506 -0.007207 0.000000 0.824094 0.011713 0.000000 0.013326 -0.004492 0.000000 0.819635 0.013172 0.000000 0.014375 -0.001308 0.000000 0.812794 0.014911 0.000000 0.015902 0.002606 0.000000 0.802493 0.015995 0.000000 0.018085 0.008693 0.000000 0.788956 0.015478 0.000000 0.019715 0.017222 0.000000 0.773003 0.013323 0.000000 0.019176 0.027151 0.000000 0.754750 0.011791 0.000000 0.017825 0.036370 0.000000 0.732748 0.011719 0.000000 0.017742 0.045610 0.000000 0.705086 0.011899 0.000000 0.020048 0.058441 0.000000 0.669501 0.009628 0.000000 0.025834 0.080912 0.000000 0.624445 -0.000189 0.000000 0.033623 0.120305 0.000000 0.569660 -0.022356 0.000000 0.039163 0.183655 0.000000 0.508468 -0.058873 0.000000 0.029376 0.273614 0.000000 
0.464177 -0.049659 0.000000 -0.033806 0.310151 0.000000 0.422214 -0.032827 0.000000 -0.054411 0.394942 0.000000 0.357258 0.000136 0.000000 -0.054624 -0.364628 0.000000 0.426812 -0.012452 0.000000 -0.044468 -0.267571 0.000000 0.493483 -0.006020 0.000000 -0.030492 -0.203347 0.000000 0.551089 -0.004249 0.000000 -0.016840 -0.158005 0.000000 0.599977 -0.005072 0.000000 -0.005578 -0.123949 0.000000 0.642215 -0.006624 0.000000 0.002403 -0.097358 0.000000 0.678888 -0.007309 0.000000 0.007090 -0.076158 0.000000 0.709915 -0.006788 0.000000 0.009221 -0.059779 0.000000 0.735821 -0.005412 0.000000 0.009729 -0.047115 0.000000 0.756638 -0.003563 0.000000 0.009973 -0.037823 0.000000 0.772604 -0.001138 0.000000 0.010669 -0.030795 0.000000 0.784028 0.000881 0.000000 0.011992 -0.024905 0.000000 0.792210 0.002599 0.000000 0.013039 -0.020062 0.000000 0.798203 0.004228 0.000000 0.013972 -0.016166 0.000000 0.801913 0.006161 0.000000 0.014929 -0.013105 0.000000 0.803694 0.008051 0.000000 0.015896 -0.010000 0.000000 0.803369 0.009736 0.000000 0.017002 -0.006826 0.000000 0.801290 0.011378 0.000000 0.017947 -0.003300 0.000000 0.796822 0.012999 0.000000 0.019257 0.000759 0.000000 0.789740 0.015054 0.000000 0.020819 0.005566 0.000000 0.779595 0.016806 0.000000 0.022480 0.012076 0.000000 0.766538 0.017907 0.000000 0.022988 0.020468 0.000000 0.751121 0.017736 0.000000 0.021566 0.030678 0.000000 0.732767 0.016878 0.000000 0.019526 0.041304 0.000000 0.710145 0.015363 0.000000 0.019242 0.053165 0.000000 0.681214 0.013039 0.000000 0.022136 0.068474 0.000000 0.644240 0.009299 0.000000 0.028044 0.090474 0.000000 0.599308 0.002172 0.000000 0.033642 0.123153 0.000000 0.549401 -0.010498 0.000000 0.031921 0.171158 0.000000 0.501224 -0.029875 0.000000 0.011696 0.238172 0.000000 
0.534041 -0.050072 0.000000 -0.014634 0.399516 0.000000 0.484784 -0.037860 0.000000 -0.026034 0.504141 0.000000 0.419576 0.000265 0.000000 -0.026220 -0.471860 0.000000 0.489369 -0.012178 0.000000 -0.022533 -0.363018 0.000000 0.554432 -0.000685 0.000000 -0.016964 -0.281774 0.000000 0.609527 0.004129 0.000000 -0.011014 -0.220512 0.000000 0.655470 0.004191 0.000000 -0.005243 -0.173108 0.000000 0.694370 0.002001 0.000000 -0.000069 -0.135490 0.000000 0.727262 -0.000055 0.000000 0.003654 -0.105140 0.000000 0.753572 -0.001053 0.000000 0.005807 -0.081688 0.000000 0.775073 -0.000943 0.000000 0.006624 -0.063553 0.000000 0.791787 -0.000187 0.000000 0.007435 -0.050092 0.000000 0.804769 0.001390 0.000000 0.008015 -0.039730 0.000000 0.814178 0.002691 0.000000 0.009330 -0.031348 0.000000 0.820783 0.004066 0.000000 0.010196 -0.024595 0.000000 0.825693 0.005253 0.000000 0.011255 -0.018859 0.000000 0.828368 0.006720 0.000000 0.012190 -0.014259 0.000000 0.829890 0.008197 0.000000 0.013006 -0.009629 0.000000 0.829359 0.009436 0.000000 0.014139 -0.005128 0.000000 0.827615 0.010768 0.000000 0.014934 -0.000024 0.000000 0.823696 0.011862 0.000000 0.016414 0.005774 0.000000 0.817599 0.013349 0.000000 0.017633 0.012751 0.000000 0.809008 0.014334 0.000000 0.019162 0.021751 0.000000 0.797346 0.014970 0.000000 0.019510 0.032638 0.000000 0.783218 0.014744 0.000000 0.018297 0.045506 0.000000 0.765399 0.013831 0.000000 0.016292 0.058991 0.000000 0.744662 0.012004 0.000000 0.015388 0.074541 0.000000 0.720483 0.009005 0.000000 0.016255 0.095415 0.000000 0.691631 0.003720 0.000000 0.018608 0.125844 0.000000 0.657304 -0.005787 0.000000 0.020750 0.170212 0.000000 0.617836 -0.020635 0.000000 0.019296 0.231832 0.000000 0.575407 -0.038648 0.000000 0.008739 0.310661 0.000000 
0.553790 -0.026286 0.000000 -0.021373 0.359409 0.000000 0.527917 -0.021428 0.000000 -0.035588 0.460149 0.000000 0.501056 0.000322 0.000000 -0.035768 -0.434421 0.000000 0.535330 -0.016139 0.000000 -0.032757 -0.332635 0.000000 0.574090 -0.011589 0.000000 -0.025471 -0.258442 0.000000 0.611914 -0.010199 0.000000 -0.016607 -0.203948 0.000000 0.647111 -0.010843 0.000000 -0.007631 -0.162849 0.000000 0.679675 -0.011798 0.000000 0.000464 -0.130249 0.000000 0.709140 -0.011031 0.000000 0.006201 -0.102468 0.000000 0.733311 -0.008942 0.000000 0.009416 -0.081279 0.000000 0.753911 -0.006228 0.000000 0.010547 -0.063829 0.000000 0.770071 -0.004374 0.000000 0.011595 -0.050805 0.000000 0.782937 -0.001718 0.000000 0.012001 -0.040204 0.000000 0.792399 -0.000434 0.000000 0.013397 -0.031511 0.000000 0.798950 0.001733 0.000000 0.014241 -0.024972 0.000000 0.803935 0.003169 0.000000 0.015458 -0.018841 0.000000 0.806511 0.005227 0.000000 0.016409 -0.014626 0.000000 0.808317 0.007235 0.000000 0.017134 -0.009469 0.000000 0.807867 0.008603 0.000000 0.018324 -0.005082 0.000000 0.806388 0.010583 0.000000 0.019027 0.000619 0.000000 0.802623 0.011519 0.000000 0.020725 0.006856 0.000000 0.796714 0.013835 0.000000 0.021777 0.014157 0.000000 0.788600 0.015277 0.000000 0.023089 0.023739 0.000000 0.777424 0.017559 0.000000 0.022725 0.034595 0.000000 0.763997 0.018949 0.000000 0.020631 0.048497 0.000000 0.746270 0.018883 0.000000 0.017671 0.062040 0.000000 0.725736 0.016267 0.000000 0.016194 0.077344 0.000000 0.702148 0.012171 0.000000 0.016764 0.097327 0.000000 0.674750 0.006946 0.000000 0.018404 0.124801 0.000000 0.643800 0.000030 0.000000 0.018595 0.162621 0.000000 0.611213 -0.009043 0.000000 0.013565 0.213588 0.000000 0.580293 -0.019318 0.000000 -0.000284 0.279538 0.000000 
0.614114 -0.028983 0.000000 -0.009799 0.425389 0.000000 0.585802 -0.023644 0.000000 -0.017840 0.531002 0.000000 0.558022 0.000444 0.000000 -0.017997 -0.506134 0.000000 0.591371 -0.015189 0.000000 -0.017770 -0.401778 0.000000 0.628364 -0.007971 0.000000 -0.015330 -0.319597 0.000000 0.663793 -0.004735 0.000000 -0.011449 -0.255709 0.000000 0.696410 -0.004785 0.000000 -0.006042 -0.205672 0.000000 0.726866 -0.006094 0.000000 0.000809 -0.164956 0.000000 0.754954 -0.005791 0.000000 0.005867 -0.129311 0.000000 0.774701 -0.004268 0.000000 0.008598 -0.102289 0.000000 0.792458 -0.002075 0.000000 0.008547 -0.079713 0.000000 0.804784 -0.001234 0.000000 0.010135 -0.062958 0.000000 0.815327 0.000984 0.000000 0.009329 -0.049193 0.000000 0.822867 0.001294 0.000000 0.011536 -0.037899 0.000000 0.827304 0.003222 0.000000 0.011642 -0.029580 0.000000 0.831823 0.004036 0.000000 0.013343 -0.021435 0.000000 0.832580 0.005769 0.000000 0.014188 -0.016065 0.000000 0.835034 0.007473 0.000000 0.014382 -0.009179 0.000000 0.833751 0.008246 0.000000 0.016099 -0.003649 0.000000 0.833301 0.010064 0.000000 0.015857 0.003741 0.000000 0.829950 0.010165 0.000000 0.018712 0.011683 0.000000 0.824894 0.012297 0.000000 0.019041 0.020865 0.000000 0.818611 0.013023 0.000000 0.021422 0.032927 0.000000 0.808205 0.015334 0.000000 0.020847 0.046066 0.000000 0.797126 0.016838 0.000000 0.018220 0.063233 0.000000 0.778945 0.016791 0.000000 0.013645 0.079525 0.000000 0.760001 0.013481 0.000000 0.011233 0.098129 0.000000 0.740535 0.008435 0.000000 0.010938 0.122814 0.000000 0.719206 0.002080 0.000000 0.011550 0.156794 0.000000 0.695243 -0.005978 0.000000 0.011446 0.202799 0.000000 0.668902 -0.015605 0.000000 0.008650 0.262752 0.000000 0.641397 -0.024800 0.000000 0.001356 0.337164 0.000000 
0.642309 -0.015131 0.000000 -0.016190 0.387721 0.000000 0.633847 -0.013386 0.000000 -0.025177 0.487929 0.000000 0.631385 0.000478 0.000000 -0.025316 -0.467770 0.000000 0.639926 -0.016366 0.000000 -0.025305 -0.369627 0.000000 0.655969 -0.014029 0.000000 -0.022016 -0.293871 0.000000 0.675543 -0.014079 0.000000 -0.016478 -0.236565 0.000000 0.696976 -0.016251 0.000000 -0.008807 -0.193305 0.000000 0.720297 -0.018649 0.000000 0.000879 -0.158337 0.000000 0.744678 -0.016089 0.000000 0.007868 -0.122216 0.000000 0.760290 -0.011673 0.000000 0.011700 -0.099036 0.000000 0.776413 -0.006177 0.000000 0.011465 -0.076156 0.000000 0.786817 -0.005961 0.000000 0.013872 -0.061348 0.000000 0.796652 -0.000912 0.000000 0.012341 -0.047744 0.000000 0.803700 -0.002641 0.000000 0.015378 -0.035948 0.000000 0.807249 0.001627 0.000000 0.015059 -0.029491 0.000000 0.812084 0.001468 0.000000 0.017233 -0.019598 0.000000 0.811881 0.004382 0.000000 0.018097 -0.017081 0.000000 0.815183 0.007041 0.000000 0.017922 -0.008186 0.000000 0.813409 0.006885 0.000000 0.020118 -0.004632 0.000000 0.813751 0.010824 0.000000 0.019115 0.003969 0.000000 0.810595 0.008665 0.000000 0.022837 0.011912 0.000000 0.805879 0.013505 0.000000 0.022462 0.020441 0.000000 0.800694 0.012897 0.000000 0.025377 0.034145 0.000000 0.790561 0.018134 0.000000 0.024164 0.045674 0.000000 0.781173 0.021576 0.000000 0.020574 0.066678 0.000000 0.762546 0.023458 0.000000 0.014328 0.080984 0.000000 0.744356 0.018679 0.000000 0.011075 0.096810 0.000000 0.726880 0.012467 0.000000 0.010298 0.118656 0.000000 0.708801 0.006333 0.000000 0.010190 0.148763 0.000000 0.689907 0.000135 0.000000 0.008753 0.188962 0.000000 0.671303 -0.006248 0.000000 0.004076 0.241093 0.000000 0.654886 -0.012025 0.000000 -0.004805 0.306821 0.000000 
0.694961 -0.017598 0.000000 -0.008260 0.433851 0.000000 0.685888 -0.014657 0.000000 -0.013588 0.533463 0.000000 0.682964 0.000583 0.000000 -0.013711 -0.514674 0.000000 0.690060 -0.015200 0.000000 -0.015203 -0.417821 0.000000 0.704096 -0.011260 0.000000 -0.015140 -0.339171 0.000000 0.721024 -0.010273 0.000000 -0.013415 -0.277143 0.000000 0.739615 -0.012456 0.000000 -0.008304 -0.228992 0.000000 0.761841 -0.015781 0.000000 0.003420 -0.189337 0.000000 0.790980 -0.012780 0.000000 0.010505 -0.144923 0.000000 0.797867 -0.008100 0.000000 0.014146 -0.118412 0.000000 0.815214 -0.001840 0.000000 0.008873 -0.090116 0.000000 0.819634 -0.003642 0.000000 0.015234 -0.072793 0.000000 0.828822 0.002516 0.000000 0.007616 -0.056240 0.000000 0.834725 -0.001743 0.000000 0.015901 -0.041447 0.000000 0.833702 0.003542 0.000000 0.011432 -0.034416 0.000000 0.841744 0.001861 0.000000 0.016369 -0.021232 0.000000 0.835098 0.004905 0.000000 0.016761 -0.019367 0.000000 0.843884 0.007648 0.000000 0.014296 -0.007405 0.000000 0.837359 0.006050 0.000000 0.019972 -0.003990 0.000000 0.841820 0.011068 0.000000 0.013697 0.006897 0.000000 0.837985 0.006443 0.000000 0.023543 0.016399 0.000000 0.833357 0.012672 0.000000 0.018355 0.026050 0.000000 0.832401 0.010108 0.000000 0.026679 0.043060 0.000000 0.819717 0.016547 0.000000 0.024146 0.055454 0.000000 0.818148 0.020429 0.000000 0.020169 0.081861 0.000000 0.793191 0.023036 0.000000 0.008837 0.097715 0.000000 0.775837 0.016734 0.000000 0.004936 0.115604 0.000000 0.762428 0.009213 0.000000 0.004682 0.140892 0.000000 0.749376 0.002188 0.000000 0.005184 0.175688 0.000000 0.735502 -0.004541 0.000000 0.004832 0.221403 0.000000 0.721064 -0.010928 0.000000 0.002571 0.279168 0.000000 0.707105 -0.015919 0.000000 -0.002065 0.349741 0.000000 
0.726422 -0.008937 0.000000 -0.013514 0.396794 0.000000 0.733380 -0.008058 0.000000 -0.019319 0.490853 0.000000 0.748760 0.000601 0.000000 -0.019423 -0.474866 0.000000 0.737332 -0.014874 0.000000 -0.021094 -0.383663 0.000000 0.734570 -0.014093 0.000000 -0.020792 -0.310800 0.000000 0.737477 -0.015804 0.000000 -0.018481 -0.255156 0.000000 0.745082 -0.021363 0.000000 -0.012047 -0.215530 0.000000 0.760037 -0.030373 0.000000 0.003920 -0.187476 0.000000 0.788898 -0.023173 0.000000 0.012819 -0.129103 0.000000 0.786865 -0.015315 0.000000 0.018025 -0.116382 0.000000 0.804501 -0.000904 0.000000 0.009757 -0.080576 0.000000 0.804259 -0.012322 0.000000 0.020121 -0.070537 0.000000 0.813033 0.006705 0.000000 0.008057 -0.053646 0.000000 0.818606 -0.010926 0.000000 0.020809 -0.034924 0.000000 0.814202 0.006096 0.000000 0.013279 -0.037533 0.000000 0.825308 -0.003470 0.000000 0.020436 -0.012951 0.000000 0.813765 0.003990 0.000000 0.020718 -0.025867 0.000000 0.827061 0.009506 0.000000 0.016426 -0.001661 0.000000 0.816923 0.001210 0.000000 0.025053 -0.009094 0.000000 0.824493 0.017099 0.000000 0.014497 0.007804 0.000000 0.820252 -0.001182 0.000000 0.029059 0.016540 0.000000 0.815408 0.018694 0.000000 0.019803 0.021396 0.000000 0.817854 0.004573 0.000000 0.031850 0.046829 0.000000 0.802904 0.020666 0.000000 0.027854 0.047243 0.000000 0.807637 0.025553 0.000000 0.023267 0.091635 0.000000 0.778278 0.034790 0.000000 0.008008 0.098339 0.000000 0.762236 0.022579 0.000000 0.003463 0.110219 0.000000 0.752204 0.012722 0.000000 0.003139 0.131708 0.000000 0.743650 0.005831 0.000000 0.003289 0.162637 0.000000 0.735681 0.000486 0.000000 0.002148 0.203400 0.000000 0.729127 -0.003987 0.000000 -0.001181 0.255052 0.000000 0.725506 -0.007388 0.000000 -0.006777 0.318965 0.000000 
0.772572 -0.010861 0.000000 -0.007647 0.426893 0.000000 0.779611 -0.008852 0.000000 -0.011314 0.518083 0.000000 0.794939 0.000687 0.000000 -0.011406 -0.503247 0.000000 0.781983 -0.013530 0.000000 -0.014156 -0.415060 0.000000 0.777097 -0.011561 0.000000 -0.016593 -0.342078 0.000000 0.776701 -0.012584 0.000000 -0.018752 -0.284748 0.000000 0.779272 -0.018889 0.000000 -0.017205 -0.243948 0.000000 0.790210 -0.031747 0.000000 0.010237 -0.218198 0.000000 0.849021 -0.021680 0.000000 0.018975 -0.142890 0.000000 0.810793 -0.013306 0.000000 0.028257 -0.136048 0.000000 0.850516 0.006429 0.000000 -0.002291 -0.089874 0.000000 0.830079 -0.014006 0.000000 0.034204 -0.081567 0.000000 0.845184 0.014580 0.000000 -0.010148 -0.061814 0.000000 0.853832 -0.014495 0.000000 0.033234 -0.037044 0.000000 0.830781 0.011072 0.000000 0.001405 -0.045521 0.000000 0.866458 -0.005297 0.000000 0.024337 -0.009689 0.000000 0.822198 0.004623 0.000000 0.021719 -0.032663 0.000000 0.867824 0.011940 0.000000 0.006415 0.002734 0.000000 0.830239 -0.002578 0.000000 0.035502 -0.011561 0.000000 0.858226 0.021625 0.000000 -0.004497 0.011138 0.000000 0.847188 -0.008119 0.000000 0.043442 0.021242 0.000000 0.837762 0.021928 0.000000 0.003924 0.023603 0.000000 0.858215 -0.001940 0.000000 0.043077 0.058010 0.000000 0.819953 0.020543 0.000000 0.028396 0.050721 0.000000 0.862661 0.025016 0.000000 0.029879 0.111220 0.000000 0.799600 0.038295 0.000000 -0.003430 0.113756 0.000000 0.787734 0.021279 0.000000 -0.005052 0.125637 0.000000 0.783964 0.009537 0.000000 -0.002362 0.149446 0.000000 0.780339 0.002038 0.000000 -0.000343 0.183657 0.000000 0.776272 -0.003401 0.000000 0.000134 0.227957 0.000000 0.772678 -0.007600 0.000000 -0.001098 0.282789 0.000000 0.770909 -0.010322 0.000000 -0.003900 0.348826 0.000000 
0.804310 -0.005190 0.000000 -0.011800 0.389755 0.000000 0.824273 -0.004390 0.000000 -0.015769 0.475526 0.000000 0.853583 0.000693 0.000000 -0.015841 -0.461910 0.000000 0.826223 -0.012125 0.000000 -0.018817 -0.378778 0.000000 0.807656 -0.011656 0.000000 -0.021532 -0.310403 0.000000 0.794791 -0.013645 0.000000 -0.024554 -0.257727 0.000000 0.785884 -0.022910 0.000000 -0.024932 -0.226469 0.000000 0.786506 -0.057815 0.000000 0.004341 -0.246286 0.000000 0.845481 -0.031911 0.000000 0.011626 -0.090875 0.000000 0.792385 -0.024596 0.000000 0.022563 -0.156106 0.000000 0.834692 0.029643 0.000000 -0.014156 -0.060139 0.000000 0.806512 -0.048817 0.000000 0.030796 -0.085642 0.000000 0.821422 0.051057 0.000000 -0.022890 -0.062294 0.000000 0.830444 -0.054308 0.000000 0.029783 -0.011874 0.000000 0.800885 0.037926 0.000000 -0.009195 -0.073210 0.000000 0.844050 -0.026402 0.000000 0.018251 0.031309 0.000000 0.789537 0.006609 0.000000 0.015202 -0.071493 0.000000 0.844913 0.024809 0.000000 -0.003611 0.035924 0.000000 0.798989 -0.027877 0.000000 0.032425 -0.037080 0.000000 0.832994 0.057098 0.000000 -0.016782 0.018842 0.000000 0.820552 -0.049121 0.000000 0.041778 0.025967 0.000000 0.809840 0.058212 0.000000 -0.007188 0.000943 0.000000 0.837507 -0.034580 0.000000 0.040509 0.085091 0.000000 0.792942 0.035347 0.000000 0.023335 0.004535 0.000000 0.850753 0.024070 0.000000 0.028148 0.154696 0.000000 0.780194 0.068099 0.000000 -0.009041 0.110205 0.000000 0.774159 0.024201 0.000000 -0.008431 0.113989 0.000000 0.776077 0.010032 0.000000 -0.004528 0.135334 0.000000 0.777902 0.003812 0.000000 -0.002337 0.166703 0.000000 0.779997 0.000009 0.000000 -0.002268 0.206994 0.000000 0.783944 -0.002755 0.000000 -0.004155 0.256821 0.000000 0.791472 -0.004586 0.000000 -0.007595 0.317302 0.000000 