# vtk DataFile Version 2.0
Comment goes here
ASCII

DATASET STRUCTURED_POINTS
FIELD FieldData 1
TIME 1 1 double
0.01400000
DIMENSIONS    64   64   1

ORIGIN    0.000   0.000   0.000
SPACING   0.03125 0.03125   1.000

POINT_DATA   4096
VECTORS u double

0.149372 -0.016428 0.000000 -0.616880 0.004057 0.000000 0.470694 -0.000311 0.000000 -0.656428 0.001015 0.000000 0.440209 -0.001472 0.000000 -0.566258 -0.002307 0.000000 0.309659 0.001593 0.000000 -0.415344 -0.001951 0.000000 0.155329 0.001382 0.000000 -0.246863 -0.001783 0.000000 0.004329 0.001248 0.000000 -0.093688 -0.001682 0.000000 -0.124350 0.001092 0.000000 0.029426 -0.001505 0.000000 -0.216630 0.000879 0.000000 0.112044 -0.001252 0.000000 -0.267085 0.000778 0.000000 0.147976 -0.001352 0.000000 -0.274009 0.001251 0.000000 0.142792 -0.002048 0.000000 -0.252224 0.001681 0.000000 0.121420 -0.001595 0.000000 -0.225583 0.001257 0.000000 0.097831 -0.001486 0.000000 -0.201152 0.001482 0.000000 0.077801 -0.001643 0.000000 -0.182747 0.001827 0.000000 0.064951 -0.001859 0.000000 -0.175791 0.001461 0.000000 0.068106 -0.001316 0.000000 -0.183302 0.001543 0.000000 0.074953 -0.001557 0.000000 -0.184516 0.001284 0.000000 0.069974 -0.001278 0.000000 -0.174460 0.000949 0.000000 0.056236 -0.000478 0.000000 -0.157909 0.000507 0.000000 0.038872 -0.000758 0.000000 -0.143293 0.001098 0.000000 0.029679 -0.000911 0.000000 -0.145153 0.001096 0.000000 0.039060 -0.000928 0.000000 -0.157154 0.000903 0.000000 0.041861 -0.000686 0.000000 -0.143788 0.001282 0.000000 0.007967 -0.000655 0.000000 -0.097338 0.000512 0.000000 -0.049025 0.000163 0.000000 -0.032796 0.000010 0.000000 -0.118601 0.000555 0.000000 0.028457 -0.000079 0.000000 -0.165310 0.000659 0.000000 0.051803 -0.000323 0.000000 -0.164740 0.000972 0.000000 0.020444 -0.000725 0.000000 -0.112971 0.001291 0.000000 -0.052257 -0.001219 0.000000 -0.038928 0.001691 0.000000 -0.127937 -0.001656 0.000000 0.016215 0.002026 0.000000 -0.159793 -0.002216 0.000000 -0.001110 0.002760 0.000000 -0.093664 -0.003958 0.000000 -0.133663 0.011527 0.000000 
0.016055 0.233872 0.000000 0.311811 -0.160810 0.000000 -0.384740 0.020112 0.000000 0.368553 0.013311 0.000000 -0.383226 -0.042085 0.000000 0.324048 0.064964 0.000000 -0.312284 -0.074416 0.000000 0.245791 0.076200 0.000000 -0.241112 -0.082906 0.000000 0.158973 0.074338 0.000000 -0.174162 -0.075115 0.000000 0.079133 0.063065 0.000000 -0.115611 -0.059985 0.000000 0.010428 0.044849 0.000000 -0.070823 -0.039764 0.000000 -0.041230 0.023924 0.000000 -0.042423 -0.016446 0.000000 -0.071119 0.002072 0.000000 -0.034384 0.004170 0.000000 -0.078939 -0.012264 0.000000 -0.042127 0.012145 0.000000 -0.077339 -0.014792 0.000000 -0.049525 0.013370 0.000000 -0.076364 -0.013672 0.000000 -0.054683 0.011415 0.000000 -0.075784 -0.010528 0.000000 -0.057475 0.007700 0.000000 -0.077039 -0.004926 0.000000 -0.054326 -0.000089 0.000000 -0.089286 0.002384 0.000000 -0.040890 -0.002314 0.000000 -0.102447 -0.000168 0.000000 -0.032849 0.003087 0.000000 -0.108067 -0.005408 0.000000 -0.030245 0.007060 0.000000 -0.110229 -0.008482 0.000000 -0.028814 0.008679 0.000000 -0.110870 -0.007045 0.000000 -0.027979 0.004160 0.000000 -0.114421 0.001318 0.000000 -0.015612 -0.005179 0.000000 -0.131539 0.006277 0.000000 0.006813 -0.001831 0.000000 -0.148546 -0.006258 0.000000 0.015856 0.016092 0.000000 -0.143171 -0.022019 0.000000 0.006869 0.026979 0.000000 -0.128472 -0.030860 0.000000 -0.008085 0.033069 0.000000 -0.106981 -0.029215 0.000000 -0.020465 0.021775 0.000000 -0.098495 -0.010357 0.000000 -0.011583 -0.001774 0.000000 -0.115955 0.016996 0.000000 0.028441 -0.027411 0.000000 -0.162103 0.037799 0.000000 0.092200 -0.038710 0.000000 -0.218531 0.039517 0.000000 0.156310 -0.029533 0.000000 -0.264513 0.017889 0.000000 0.197626 0.006477 0.000000 -0.271598 -0.030769 0.000000 0.184825 0.063807 0.000000 -0.207612 -0.120166 0.000000 
0.424450 -0.535850 0.000000 0.383514 0.404852 0.000000 0.022823 -0.057054 0.000000 0.425357 -0.000499 0.000000 0.063027 0.043033 0.000000 0.360803 -0.073249 0.000000 0.139959 0.079851 0.000000 0.260943 -0.073123 0.000000 0.268137 0.088200 0.000000 0.153396 -0.068733 0.000000 0.397790 0.081088 0.000000 0.058872 -0.060232 0.000000 0.511079 0.069797 0.000000 -0.016544 -0.046294 0.000000 0.598236 0.052537 0.000000 -0.067223 -0.029652 0.000000 0.655831 0.030667 0.000000 -0.088981 -0.009391 0.000000 0.681060 0.009071 0.000000 -0.084263 0.005695 0.000000 0.683630 0.000081 0.000000 -0.071173 0.005803 0.000000 0.682149 0.000282 0.000000 -0.059263 0.003672 0.000000 0.680680 0.000902 0.000000 -0.050426 0.001149 0.000000 0.680941 0.003082 0.000000 -0.046202 -0.005008 0.000000 0.687337 0.013709 0.000000 -0.054884 -0.014751 0.000000 0.703959 0.014703 0.000000 -0.066255 -0.009598 0.000000 0.713845 0.006905 0.000000 -0.068684 -0.003882 0.000000 0.714608 0.003110 0.000000 -0.066018 -0.001909 0.000000 0.710267 0.001148 0.000000 -0.060953 -0.001593 0.000000 0.705753 0.004649 0.000000 -0.062328 -0.013278 0.000000 0.714133 0.018214 0.000000 -0.080703 -0.023352 0.000000 0.731914 0.017911 0.000000 -0.097054 -0.009730 0.000000 0.729894 -0.004094 0.000000 -0.086160 0.008333 0.000000 0.702845 -0.014187 0.000000 -0.061391 0.015116 0.000000 0.662209 -0.021482 0.000000 -0.026918 0.012935 0.000000 0.620667 -0.008564 0.000000 -0.008482 -0.008222 0.000000 0.603138 0.017137 0.000000 -0.023266 -0.039053 0.000000 0.622182 0.045423 0.000000 -0.074954 -0.062468 0.000000 0.668393 0.055210 0.000000 -0.141891 -0.062420 0.000000 0.713326 0.044326 0.000000 -0.196770 -0.039290 0.000000 0.725759 0.004870 0.000000 -0.200752 0.015562 0.000000 0.666153 -0.067945 0.000000 -0.111990 0.180297 0.000000 
0.442633 -0.261631 0.000000 -0.198393 0.240817 0.000000 0.475628 -0.021731 0.000000 -0.181161 -0.026893 0.000000 0.096315 0.022469 0.000000 -0.138433 -0.011968 0.000000 0.378533 0.025445 0.000000 -0.089530 -0.051978 0.000000 0.555099 0.024641 0.000000 -0.048015 -0.055315 0.000000 0.675788 0.019409 0.000000 -0.016147 -0.050224 0.000000 0.763373 0.015430 0.000000 0.009188 -0.042307 0.000000 0.831550 0.010915 0.000000 0.027024 -0.033671 0.000000 0.887690 0.005312 0.000000 0.035363 -0.023158 0.000000 0.938885 -0.000548 0.000000 0.033665 -0.014834 0.000000 0.985848 -0.000945 0.000000 0.029492 -0.013311 0.000000 1.021672 0.001459 0.000000 0.027350 -0.012203 0.000000 1.048686 0.002578 0.000000 0.025647 -0.010789 0.000000 1.069298 0.003477 0.000000 0.024346 -0.011322 0.000000 1.082399 0.008593 0.000000 0.029957 -0.014238 0.000000 1.085351 0.009057 0.000000 0.035780 -0.010054 0.000000 1.089280 0.005516 0.000000 0.036123 -0.006171 0.000000 1.094070 0.004394 0.000000 0.034382 -0.004141 0.000000 1.097321 0.003613 0.000000 0.030968 -0.002531 0.000000 1.099036 0.005535 0.000000 0.029044 -0.007062 0.000000 1.090253 0.013195 0.000000 0.036718 -0.011504 0.000000 1.070567 0.014520 0.000000 0.045077 -0.004238 0.000000 1.055717 0.005198 0.000000 0.038963 0.005030 0.000000 1.047482 0.002210 0.000000 0.027820 0.009776 0.000000 1.038240 -0.001404 0.000000 0.010582 0.012327 0.000000 1.024362 0.003339 0.000000 -0.000453 0.007172 0.000000 0.993910 0.013010 0.000000 0.002419 -0.002048 0.000000 0.939163 0.024277 0.000000 0.022982 -0.008412 0.000000 0.860089 0.028227 0.000000 0.052988 -0.005416 0.000000 0.763337 0.025346 0.000000 0.086865 0.005455 0.000000 0.649684 0.010459 0.000000 0.116571 0.028837 0.000000 0.521084 -0.024955 0.000000 0.137243 0.121537 0.000000 
0.590409 -0.200213 0.000000 -0.098955 0.371857 0.000000 0.542936 -0.074286 0.000000 -0.084459 0.378814 0.000000 0.195029 0.000305 0.000000 -0.062527 -0.355467 0.000000 0.489630 0.030948 0.000000 -0.039864 -0.249688 0.000000 0.655780 0.046684 0.000000 -0.022433 -0.189422 0.000000 0.768219 0.049221 0.000000 -0.009926 -0.147817 0.000000 0.851118 0.044462 0.000000 0.000546 -0.114471 0.000000 0.915407 0.034701 0.000000 0.009118 -0.085792 0.000000 0.966579 0.022328 0.000000 0.014728 -0.060586 0.000000 1.009538 0.010770 0.000000 0.016383 -0.041268 0.000000 1.045917 0.004253 0.000000 0.017445 -0.030021 0.000000 1.073363 0.002425 0.000000 0.019433 -0.023342 0.000000 1.094080 0.002604 0.000000 0.021022 -0.019463 0.000000 1.110068 0.004383 0.000000 0.021974 -0.018109 0.000000 1.121126 0.008098 0.000000 0.025754 -0.017703 0.000000 1.125936 0.008879 0.000000 0.029192 -0.013527 0.000000 1.130219 0.006562 0.000000 0.029672 -0.008672 0.000000 1.133789 0.004851 0.000000 0.029192 -0.005160 0.000000 1.135488 0.004562 0.000000 0.027525 -0.003307 0.000000 1.135664 0.006573 0.000000 0.026120 -0.004495 0.000000 1.129637 0.010540 0.000000 0.029478 -0.003667 0.000000 1.116520 0.009552 0.000000 0.033328 0.005120 0.000000 1.103814 0.002020 0.000000 0.030113 0.016568 0.000000 1.091782 -0.003044 0.000000 0.024937 0.024357 0.000000 1.076768 -0.004243 0.000000 0.016179 0.026813 0.000000 1.057880 0.002471 0.000000 0.009480 0.022230 0.000000 1.029943 0.014265 0.000000 0.008305 0.015694 0.000000 0.989218 0.024860 0.000000 0.014971 0.016606 0.000000 0.934551 0.025204 0.000000 0.026410 0.034332 0.000000 0.866871 0.010450 0.000000 0.041947 0.074363 0.000000 0.782634 -0.024837 0.000000 0.059169 0.144161 0.000000 0.677272 -0.088617 0.000000 0.072220 0.258748 0.000000 
0.560327 -0.090457 0.000000 -0.083656 0.288290 0.000000 0.492613 -0.036227 0.000000 -0.103744 0.321014 0.000000 0.319533 0.000537 0.000000 -0.104055 -0.306569 0.000000 0.483430 0.002782 0.000000 -0.073809 -0.218128 0.000000 0.616881 0.007210 0.000000 -0.045453 -0.167754 0.000000 0.719296 0.006902 0.000000 -0.020849 -0.133124 0.000000 0.798623 0.004959 0.000000 -0.000350 -0.106596 0.000000 0.862187 0.002343 0.000000 0.015061 -0.084843 0.000000 0.914979 -0.000298 0.000000 0.024313 -0.066117 0.000000 0.960431 -0.002203 0.000000 0.027676 -0.051212 0.000000 0.999561 -0.002007 0.000000 0.028024 -0.040758 0.000000 1.030944 -0.000528 0.000000 0.027883 -0.032920 0.000000 1.055239 0.000988 0.000000 0.027781 -0.026777 0.000000 1.073364 0.002525 0.000000 0.028441 -0.022380 0.000000 1.085526 0.004813 0.000000 0.031185 -0.019047 0.000000 1.092199 0.005619 0.000000 0.034053 -0.014338 0.000000 1.096830 0.005037 0.000000 0.034997 -0.009741 0.000000 1.100305 0.004874 0.000000 0.034587 -0.005840 0.000000 1.101838 0.005281 0.000000 0.033661 -0.002706 0.000000 1.100558 0.006940 0.000000 0.033615 -0.001036 0.000000 1.093787 0.009838 0.000000 0.036206 0.001614 0.000000 1.081950 0.010669 0.000000 0.038086 0.008468 0.000000 1.069589 0.008413 0.000000 0.034650 0.017061 0.000000 1.057538 0.007387 0.000000 0.027415 0.024790 0.000000 1.042863 0.007354 0.000000 0.018149 0.031215 0.000000 1.021995 0.010038 0.000000 0.012081 0.035108 0.000000 0.989760 0.014185 0.000000 0.013422 0.038677 0.000000 0.942511 0.017611 0.000000 0.023362 0.046255 0.000000 0.879906 0.016787 0.000000 0.038109 0.062264 0.000000 0.804632 0.009809 0.000000 0.051856 0.089692 0.000000 0.719896 -0.006763 0.000000 0.054915 0.134199 0.000000 0.632121 -0.038005 0.000000 0.027721 0.208400 0.000000 
0.672097 -0.088837 0.000000 -0.037101 0.439570 0.000000 0.581123 -0.054198 0.000000 -0.048077 0.551894 0.000000 0.410749 0.000615 0.000000 -0.048291 -0.519364 0.000000 0.575715 0.000702 0.000000 -0.034485 -0.383139 0.000000 0.704573 0.018329 0.000000 -0.022254 -0.291837 0.000000 0.801951 0.024616 0.000000 -0.011571 -0.227145 0.000000 0.877144 0.023963 0.000000 -0.001863 -0.178035 0.000000 0.936879 0.019290 0.000000 0.006634 -0.138584 0.000000 0.985157 0.013076 0.000000 0.012957 -0.106038 0.000000 1.024373 0.007407 0.000000 0.016708 -0.080398 0.000000 1.056328 0.003906 0.000000 0.018992 -0.061403 0.000000 1.081143 0.002566 0.000000 0.020989 -0.047637 0.000000 1.100189 0.002706 0.000000 0.022585 -0.037588 0.000000 1.114449 0.003723 0.000000 0.024282 -0.030271 0.000000 1.124416 0.005354 0.000000 0.026558 -0.024376 0.000000 1.130654 0.006011 0.000000 0.028656 -0.018158 0.000000 1.134845 0.005617 0.000000 0.029540 -0.012148 0.000000 1.137692 0.005262 0.000000 0.029570 -0.006693 0.000000 1.138605 0.005488 0.000000 0.029208 -0.002027 0.000000 1.137383 0.006619 0.000000 0.029025 0.002276 0.000000 1.132297 0.007949 0.000000 0.030248 0.008171 0.000000 1.123315 0.007672 0.000000 0.030990 0.017481 0.000000 1.112407 0.005457 0.000000 0.029069 0.028619 0.000000 1.099512 0.004190 0.000000 0.024879 0.039032 0.000000 1.083245 0.005023 0.000000 0.018887 0.047682 0.000000 1.061852 0.008539 0.000000 0.013655 0.054465 0.000000 1.033597 0.012924 0.000000 0.011686 0.062943 0.000000 0.996885 0.014920 0.000000 0.014013 0.079212 0.000000 0.950712 0.010458 0.000000 0.019252 0.109605 0.000000 0.894658 -0.003297 0.000000 0.025130 0.159100 0.000000 0.827797 -0.027896 0.000000 0.026896 0.231935 0.000000 0.750697 -0.061423 0.000000 0.014065 0.330542 0.000000 
0.672608 -0.039291 0.000000 -0.045766 0.379264 0.000000 0.610234 -0.025250 0.000000 -0.067270 0.491388 0.000000 0.523893 0.000750 0.000000 -0.067514 -0.471534 0.000000 0.616997 -0.011024 0.000000 -0.055590 -0.346986 0.000000 0.706123 -0.005021 0.000000 -0.038746 -0.265132 0.000000 0.782802 -0.003782 0.000000 -0.021198 -0.208316 0.000000 0.847063 -0.004749 0.000000 -0.004780 -0.166332 0.000000 0.901281 -0.006154 0.000000 0.009064 -0.133121 0.000000 0.947354 -0.006622 0.000000 0.018854 -0.105333 0.000000 0.986011 -0.005954 0.000000 0.024364 -0.083167 0.000000 1.018528 -0.004292 0.000000 0.026817 -0.065572 0.000000 1.044677 -0.002524 0.000000 0.028111 -0.051966 0.000000 1.065253 -0.000608 0.000000 0.028849 -0.041037 0.000000 1.080651 0.000828 0.000000 0.030106 -0.032346 0.000000 1.091378 0.002537 0.000000 0.031859 -0.025286 0.000000 1.098408 0.003521 0.000000 0.033694 -0.018528 0.000000 1.102849 0.004153 0.000000 0.034663 -0.012587 0.000000 1.105756 0.004844 0.000000 0.034807 -0.006754 0.000000 1.106494 0.005642 0.000000 0.034794 -0.001484 0.000000 1.104875 0.007122 0.000000 0.034927 0.004050 0.000000 1.099673 0.008616 0.000000 0.035865 0.010596 0.000000 1.091208 0.009927 0.000000 0.035791 0.019375 0.000000 1.080712 0.010335 0.000000 0.033343 0.029956 0.000000 1.067965 0.011576 0.000000 0.028229 0.041058 0.000000 1.051575 0.013346 0.000000 0.021681 0.052608 0.000000 1.028862 0.015270 0.000000 0.016461 0.063362 0.000000 0.998309 0.016154 0.000000 0.015318 0.075389 0.000000 0.958810 0.015284 0.000000 0.018675 0.092429 0.000000 0.910320 0.011548 0.000000 0.024036 0.118318 0.000000 0.854274 0.003931 0.000000 0.026888 0.156553 0.000000 0.793193 -0.008528 0.000000 0.020688 0.211299 0.000000 0.730965 -0.025175 0.000000 -0.002739 0.287001 0.000000 
0.765569 -0.045810 0.000000 -0.021874 0.501944 0.000000 0.695617 -0.032693 0.000000 -0.032825 0.638236 0.000000 0.607576 0.000859 0.000000 -0.033021 -0.612468 0.000000 0.699496 -0.011222 0.000000 -0.027812 -0.472265 0.000000 0.785224 0.001485 0.000000 -0.020424 -0.368516 0.000000 0.857957 0.007068 0.000000 -0.012100 -0.291406 0.000000 0.918627 0.007544 0.000000 -0.002956 -0.232253 0.000000 0.969790 0.005446 0.000000 0.006395 -0.184657 0.000000 1.012750 0.003286 0.000000 0.013832 -0.144695 0.000000 1.046414 0.001897 0.000000 0.018526 -0.112916 0.000000 1.073818 0.001453 0.000000 0.020880 -0.087553 0.000000 1.094677 0.001271 0.000000 0.022985 -0.068213 0.000000 1.111054 0.001968 0.000000 0.024079 -0.052986 0.000000 1.123109 0.002466 0.000000 0.026041 -0.040998 0.000000 1.131440 0.003601 0.000000 0.027567 -0.031407 0.000000 1.137404 0.004177 0.000000 0.029330 -0.022598 0.000000 1.140785 0.004648 0.000000 0.030238 -0.015055 0.000000 1.143514 0.005118 0.000000 0.030367 -0.007430 0.000000 1.143871 0.005501 0.000000 0.030673 -0.000409 0.000000 1.142917 0.006486 0.000000 0.030498 0.007478 0.000000 1.138854 0.007011 0.000000 0.031508 0.016636 0.000000 1.132076 0.007747 0.000000 0.031329 0.027977 0.000000 1.122999 0.007905 0.000000 0.030263 0.041367 0.000000 1.110621 0.009304 0.000000 0.026594 0.055421 0.000000 1.094817 0.011572 0.000000 0.020798 0.070394 0.000000 1.072641 0.013759 0.000000 0.014502 0.085017 0.000000 1.045702 0.014066 0.000000 0.010716 0.102443 0.000000 1.014063 0.011563 0.000000 0.010099 0.127702 0.000000 0.976827 0.005096 0.000000 0.011363 0.165651 0.000000 0.933238 -0.006149 0.000000 0.012197 0.220180 0.000000 0.882914 -0.021696 0.000000 0.009233 0.294163 0.000000 0.826424 -0.037996 0.000000 -0.001670 0.388900 0.000000 
0.787288 -0.019087 0.000000 -0.032355 0.449216 0.000000 0.748891 -0.014300 0.000000 -0.046627 0.579429 0.000000 0.710313 0.000946 0.000000 -0.046829 -0.563454 0.000000 0.756500 -0.016233 0.000000 -0.042339 -0.432715 0.000000 0.808487 -0.012408 0.000000 -0.032685 -0.337864 0.000000 0.858963 -0.012106 0.000000 -0.020347 -0.268987 0.000000 0.905633 -0.013893 0.000000 -0.006587 -0.217495 0.000000 0.948541 -0.015505 0.000000 0.007153 -0.176081 0.000000 0.987101 -0.014058 0.000000 0.017723 -0.138996 0.000000 1.017677 -0.010648 0.000000 0.024122 -0.110571 0.000000 1.043795 -0.006646 0.000000 0.026798 -0.086431 0.000000 1.063973 -0.004629 0.000000 0.028926 -0.068343 0.000000 1.080421 -0.001703 0.000000 0.029426 -0.053093 0.000000 1.092620 -0.001134 0.000000 0.031313 -0.040677 0.000000 1.100939 0.001011 0.000000 0.032468 -0.031249 0.000000 1.107211 0.001758 0.000000 0.034214 -0.021910 0.000000 1.110391 0.003245 0.000000 0.035137 -0.015317 0.000000 1.113368 0.004715 0.000000 0.035197 -0.007110 0.000000 1.113520 0.005336 0.000000 0.035754 -0.000531 0.000000 1.112749 0.007297 0.000000 0.035421 0.008113 0.000000 1.108848 0.007606 0.000000 0.036547 0.017374 0.000000 1.102533 0.010105 0.000000 0.035875 0.028453 0.000000 1.094125 0.011401 0.000000 0.034688 0.042334 0.000000 1.082036 0.015245 0.000000 0.030432 0.056862 0.000000 1.066575 0.019142 0.000000 0.023847 0.074784 0.000000 1.043503 0.021566 0.000000 0.016707 0.090301 0.000000 1.015775 0.019940 0.000000 0.012666 0.107029 0.000000 0.984138 0.015901 0.000000 0.011960 0.129664 0.000000 0.948393 0.010285 0.000000 0.012447 0.161907 0.000000 0.909050 0.003096 0.000000 0.010876 0.206878 0.000000 0.867619 -0.005564 0.000000 0.003664 0.267788 0.000000 0.826350 -0.014272 0.000000 -0.011627 0.347856 0.000000 
0.867404 -0.025083 0.000000 -0.017257 0.540342 0.000000 0.826494 -0.018421 0.000000 -0.024589 0.676814 0.000000 0.786536 0.001062 0.000000 -0.024760 -0.658656 0.000000 0.830649 -0.015713 0.000000 -0.023431 -0.524252 0.000000 0.879475 -0.008169 0.000000 -0.019550 -0.418993 0.000000 0.926330 -0.005270 0.000000 -0.013420 -0.338076 0.000000 0.969784 -0.006215 0.000000 -0.004238 -0.275160 0.000000 1.011014 -0.008293 0.000000 0.008065 -0.223218 0.000000 1.049649 -0.007284 0.000000 0.017554 -0.175270 0.000000 1.074720 -0.004502 0.000000 0.022706 -0.139034 0.000000 1.097801 -0.001223 0.000000 0.023078 -0.107731 0.000000 1.112721 -0.000856 0.000000 0.026019 -0.084661 0.000000 1.126194 0.001469 0.000000 0.024724 -0.065185 0.000000 1.135531 0.000578 0.000000 0.028288 -0.049316 0.000000 1.140817 0.002447 0.000000 0.028324 -0.037679 0.000000 1.146752 0.002431 0.000000 0.030909 -0.025778 0.000000 1.147375 0.003725 0.000000 0.031670 -0.018032 0.000000 1.151688 0.005058 0.000000 0.031024 -0.007582 0.000000 1.150477 0.004944 0.000000 0.032578 0.000362 0.000000 1.151518 0.006819 0.000000 0.030780 0.011379 0.000000 1.148177 0.005885 0.000000 0.033959 0.022951 0.000000 1.143128 0.008419 0.000000 0.032527 0.036385 0.000000 1.136948 0.009091 0.000000 0.034064 0.053456 0.000000 1.125159 0.013560 0.000000 0.030365 0.070882 0.000000 1.112747 0.018157 0.000000 0.023245 0.093466 0.000000 1.088129 0.020899 0.000000 0.012827 0.112745 0.000000 1.062475 0.018108 0.000000 0.006528 0.134080 0.000000 1.036824 0.012269 0.000000 0.004242 0.163447 0.000000 1.009265 0.004608 0.000000 0.003819 0.204994 0.000000 0.978455 -0.004578 0.000000 0.003001 0.261611 0.000000 0.944058 -0.014483 0.000000 -0.000276 0.335432 0.000000 0.906659 -0.022705 0.000000 -0.007361 0.427961 0.000000 
0.900345 -0.009191 0.000000 -0.026115 0.490126 0.000000 0.886104 -0.006968 0.000000 -0.034980 0.619387 0.000000 0.879518 0.001116 0.000000 -0.035142 -0.607567 0.000000 0.891418 -0.017562 0.000000 -0.034206 -0.481541 0.000000 0.913079 -0.016289 0.000000 -0.029276 -0.384719 0.000000 0.939318 -0.018236 0.000000 -0.020899 -0.312441 0.000000 0.968201 -0.023075 0.000000 -0.008400 -0.258725 0.000000 1.000325 -0.027808 0.000000 0.008380 -0.214716 0.000000 1.034799 -0.023547 0.000000 0.020877 -0.164067 0.000000 1.053834 -0.015800 0.000000 0.027614 -0.133653 0.000000 1.074899 -0.007018 0.000000 0.027363 -0.101351 0.000000 1.087051 -0.007571 0.000000 0.031398 -0.081817 0.000000 1.099758 -0.000408 0.000000 0.028605 -0.062429 0.000000 1.108532 -0.004698 0.000000 0.033325 -0.045963 0.000000 1.112517 0.000975 0.000000 0.032445 -0.037184 0.000000 1.119132 -0.000827 0.000000 0.035631 -0.022533 0.000000 1.118143 0.002484 0.000000 0.036411 -0.019630 0.000000 1.123763 0.005361 0.000000 0.035138 -0.005899 0.000000 1.121516 0.003782 0.000000 0.037557 -0.001571 0.000000 1.123687 0.009096 0.000000 0.034460 0.011454 0.000000 1.120519 0.004428 0.000000 0.039032 0.022423 0.000000 1.115915 0.011537 0.000000 0.036435 0.034633 0.000000 1.111307 0.009864 0.000000 0.039115 0.054123 0.000000 1.099462 0.018944 0.000000 0.034862 0.069274 0.000000 1.089177 0.026262 0.000000 0.026619 0.099402 0.000000 1.062691 0.031984 0.000000 0.013859 0.115955 0.000000 1.037102 0.026239 0.000000 0.006649 0.132680 0.000000 1.013575 0.018186 0.000000 0.004016 0.157223 0.000000 0.990075 0.010708 0.000000 0.002881 0.192717 0.000000 0.965886 0.003914 0.000000 0.000475 0.241274 0.000000 0.941768 -0.002287 0.000000 -0.005203 0.305188 0.000000 0.919330 -0.007186 0.000000 -0.014729 0.387111 0.000000 
0.970349 -0.013697 0.000000 -0.015560 0.554583 0.000000 0.955529 -0.009555 0.000000 -0.020334 0.683400 0.000000 0.948373 0.001223 0.000000 -0.020470 -0.670556 0.000000 0.957826 -0.016649 0.000000 -0.021566 -0.545912 0.000000 0.976217 -0.013099 0.000000 -0.020925 -0.445233 0.000000 0.998436 -0.013647 0.000000 -0.017793 -0.366958 0.000000 1.023412 -0.018715 0.000000 -0.008708 -0.307284 0.000000 1.055137 -0.025073 0.000000 0.012324 -0.257692 0.000000 1.100066 -0.019781 0.000000 0.025944 -0.194306 0.000000 1.105132 -0.011240 0.000000 0.031568 -0.160099 0.000000 1.129736 -0.000972 0.000000 0.022837 -0.119884 0.000000 1.132423 -0.004891 0.000000 0.033288 -0.097368 0.000000 1.145241 0.004261 0.000000 0.020460 -0.073958 0.000000 1.152217 -0.004142 0.000000 0.034241 -0.053302 0.000000 1.149409 0.003327 0.000000 0.026339 -0.044294 0.000000 1.161508 -0.000755 0.000000 0.034569 -0.024788 0.000000 1.150282 0.002946 0.000000 0.034261 -0.023653 0.000000 1.165281 0.006330 0.000000 0.029683 -0.005335 0.000000 1.154987 0.002525 0.000000 0.037677 -0.001809 0.000000 1.164279 0.009916 0.000000 0.026131 0.014547 0.000000 1.159455 0.001313 0.000000 0.041052 0.027555 0.000000 1.155116 0.011016 0.000000 0.030617 0.040993 0.000000 1.156729 0.006410 0.000000 0.043242 0.065301 0.000000 1.140258 0.017813 0.000000 0.037238 0.081167 0.000000 1.142923 0.026400 0.000000 0.029267 0.119952 0.000000 1.104447 0.033660 0.000000 0.007057 0.138334 0.000000 1.079190 0.025317 0.000000 -0.001733 0.157607 0.000000 1.061464 0.014902 0.000000 -0.003542 0.186948 0.000000 1.044897 0.005743 0.000000 -0.003381 0.229183 0.000000 1.027148 -0.002172 0.000000 -0.003739 0.285729 0.000000 1.008062 -0.008806 0.000000 -0.005857 0.357870 0.000000 0.988587 -0.013179 0.000000 -0.010078 0.446946 0.000000 
1.008033 -0.003709 0.000000 -0.022605 0.504946 0.000000 1.014778 -0.002194 0.000000 -0.028300 0.626543 0.000000 1.032088 0.001252 0.000000 -0.028419 -0.617021 0.000000 1.017263 -0.016466 0.000000 -0.029981 -0.499932 0.000000 1.013629 -0.016930 0.000000 -0.029256 -0.406939 0.000000 1.017379 -0.021368 0.000000 -0.025569 -0.337417 0.000000 1.027827 -0.032160 0.000000 -0.014651 -0.290450 0.000000 1.050294 -0.048840 0.000000 0.013617 -0.259644 0.000000 1.097632 -0.037167 0.000000 0.030233 -0.169133 0.000000 1.088273 -0.021423 0.000000 0.037985 -0.158257 0.000000 1.114461 0.001713 0.000000 0.023712 -0.104038 0.000000 1.109977 -0.018022 0.000000 0.040778 -0.094635 0.000000 1.122614 0.012421 0.000000 0.020092 -0.069405 0.000000 1.129590 -0.018479 0.000000 0.041229 -0.043154 0.000000 1.121260 0.008876 0.000000 0.028015 -0.049284 0.000000 1.138800 -0.009057 0.000000 0.039838 -0.011306 0.000000 1.119326 0.002792 0.000000 0.039381 -0.034629 0.000000 1.141820 0.009938 0.000000 0.031679 0.004395 0.000000 1.125364 -0.004211 0.000000 0.044680 -0.010864 0.000000 1.139570 0.020642 0.000000 0.025900 0.016278 0.000000 1.134046 -0.010493 0.000000 0.048726 0.026762 0.000000 1.128947 0.021972 0.000000 0.031531 0.033020 0.000000 1.136125 -0.002762 0.000000 0.050666 0.070594 0.000000 1.115172 0.024948 0.000000 0.042841 0.066609 0.000000 1.128143 0.034233 0.000000 0.034251 0.137878 0.000000 1.080633 0.054194 0.000000 0.005523 0.141212 0.000000 1.056311 0.035029 0.000000 -0.003991 0.150406 0.000000 1.042995 0.019995 0.000000 -0.005475 0.173790 0.000000 1.032432 0.010548 0.000000 -0.005449 0.210466 0.000000 1.022577 0.004272 0.000000 -0.006666 0.260360 0.000000 1.014069 -0.000169 0.000000 -0.010180 0.324663 0.000000 1.008553 -0.002965 0.000000 -0.015910 0.405348 0.000000 
1.069512 -0.007003 0.000000 -0.014685 0.547839 0.000000 1.076399 -0.003859 0.000000 -0.018000 0.666090 0.000000 1.093656 0.001342 0.000000 -0.018095 -0.655731 0.000000 1.076459 -0.015086 0.000000 -0.021354 -0.542278 0.000000 1.069471 -0.013825 0.000000 -0.024726 -0.448983 0.000000 1.067994 -0.017334 0.000000 -0.028050 -0.377406 0.000000 1.070461 -0.029633 0.000000 -0.025209 -0.329751 0.000000 1.087018 -0.053342 0.000000 0.022464 -0.305030 0.000000 1.189586 -0.036397 0.000000 0.043706 -0.184946 0.000000 1.116637 -0.018991 0.000000 0.053593 -0.186287 0.000000 1.182365 0.013301 0.000000 0.003935 -0.115400 0.000000 1.143165 -0.021957 0.000000 0.063488 -0.110005 0.000000 1.168763 0.024948 0.000000 -0.010885 -0.080934 0.000000 1.179797 -0.025279 0.000000 0.062598 -0.044972 0.000000 1.142240 0.016540 0.000000 0.006884 -0.061834 0.000000 1.200017 -0.012578 0.000000 0.048109 -0.005314 0.000000 1.126968 0.003402 0.000000 0.039580 -0.046146 0.000000 1.203515 0.014032 0.000000 0.016945 0.011121 0.000000 1.140728 -0.010476 0.000000 0.061389 -0.016015 0.000000 1.189845 0.028696 0.000000 -0.004685 0.020071 0.000000 1.171503 -0.021513 0.000000 0.073650 0.032655 0.000000 1.159893 0.028211 0.000000 0.004872 0.033814 0.000000 1.195632 -0.012725 0.000000 0.072050 0.086254 0.000000 1.135698 0.025638 0.000000 0.044377 0.068196 0.000000 1.214674 0.034990 0.000000 0.050994 0.167462 0.000000 1.106741 0.062388 0.000000 -0.012235 0.162657 0.000000 1.088427 0.034832 0.000000 -0.017119 0.170923 0.000000 1.084989 0.016385 0.000000 -0.013378 0.197510 0.000000 1.081674 0.005718 0.000000 -0.010102 0.239038 0.000000 1.077083 -0.000955 0.000000 -0.008711 0.294236 0.000000 1.072309 -0.005292 0.000000 -0.009275 0.363386 0.000000 1.069070 -0.007448 0.000000 -0.011488 0.447466 0.000000 
1.108059 -0.000512 0.000000 -0.020158 0.498059 0.000000 1.132376 0.001121 0.000000 -0.024068 0.609287 0.000000 1.168487 0.001347 0.000000 -0.024139 -0.599824 0.000000 1.132240 -0.013207 0.000000 -0.027944 -0.492944 0.000000 1.107096 -0.013558 0.000000 -0.032055 -0.405462 0.000000 1.088852 -0.018045 0.000000 -0.037291 -0.339883 0.000000 1.075463 -0.035001 0.000000 -0.038580 -0.307007 0.000000 1.077447 -0.096513 0.000000 0.010632 -0.362212 0.000000 1.180614 -0.058410 0.000000 0.028955 -0.096184 0.000000 1.085378 -0.031311 0.000000 0.041117 -0.223985 0.000000 1.155756 0.051371 0.000000 -0.018150 -0.064838 0.000000 1.105713 -0.077575 0.000000 0.055288 -0.120233 0.000000 1.130980 0.086794 0.000000 -0.033935 -0.080439 0.000000 1.143688 -0.091963 0.000000 0.054658 -0.005597 0.000000 1.095473 0.064590 0.000000 -0.012595 -0.107061 0.000000 1.166040 -0.050281 0.000000 0.036002 0.061743 0.000000 1.076373 0.011321 0.000000 0.026687 -0.111176 0.000000 1.168760 0.032574 0.000000 -0.001579 0.067182 0.000000 1.092653 -0.048655 0.000000 0.054331 -0.059981 0.000000 1.150907 0.086715 0.000000 -0.026779 0.034619 0.000000 1.130620 -0.088828 0.000000 0.069320 0.038373 0.000000 1.115771 0.090750 0.000000 -0.015077 -0.002719 0.000000 1.163821 -0.069939 0.000000 0.066799 0.130527 0.000000 1.091983 0.052621 0.000000 0.035451 -0.012366 0.000000 1.197499 0.027616 0.000000 0.048677 0.245810 0.000000 1.073730 0.117422 0.000000 -0.022125 0.159527 0.000000 1.064711 0.039913 0.000000 -0.022859 0.153844 0.000000 1.069795 0.016254 0.000000 -0.016577 0.177105 0.000000 1.074093 0.007272 0.000000 -0.012579 0.215057 0.000000 1.077841 0.002881 0.000000 -0.011513 0.265135 0.000000 1.083217 0.000395 0.000000 -0.012919 0.327902 0.000000 1.092516 -0.000752 0.000000 -0.016111 0.404906 0.000000 