# vtk DataFile Version 2.0
Comment goes here
ASCII

DATASET STRUCTURED_POINTS
FIELD FieldData 1
TIME 1 1 double
0.05400000
DIMENSIONS    64   64   1

ORIGIN    0.000   0.000   0.000
SPACING   0.03125 0.03125   1.000

POINT_DATA   4096
VECTORS u double

0.688849 0.013956 0.000000 -1.492597 -0.007992 0.000000 0.446100 0.006987 0.000000 -1.387625 -0.003124 0.000000 0.203127 -0.004859 0.000000 -1.270389 -0.002939 0.000000 0.240311 0.005561 0.000000 -1.086669 -0.002731 0.000000 0.175528 0.003892 0.000000 -0.899390 -0.003105 0.000000 0.068628 0.003253 0.000000 -0.729696 -0.003295 0.000000 -0.030155 0.002814 0.000000 -0.602741 -0.003036 0.000000 -0.093013 0.002200 0.000000 -0.525022 -0.002396 0.000000 -0.115868 0.001211 0.000000 -0.492594 -0.001798 0.000000 -0.103836 0.000521 0.000000 -0.492479 -0.000747 0.000000 -0.076467 0.001618 0.000000 -0.490624 0.001701 0.000000 -0.075617 0.001675 0.000000 -0.447019 0.001636 0.000000 -0.135115 0.000161 0.000000 -0.335283 0.001905 0.000000 -0.267822 0.000852 0.000000 -0.145192 0.002394 0.000000 -0.477526 0.002395 0.000000 0.110705 0.002299 0.000000 -0.739099 0.001642 0.000000 0.388335 0.002463 0.000000 -0.994423 0.000669 0.000000 0.629788 0.003361 0.000000 -1.189390 -0.000411 0.000000 0.790638 0.003865 0.000000 -1.298585 0.000287 0.000000 0.865114 0.003878 0.000000 -1.335154 -0.000066 0.000000 0.876115 0.003528 0.000000 -1.313415 0.000349 0.000000 0.821557 0.003219 0.000000 -1.227556 0.001564 0.000000 0.690663 0.003006 0.000000 -1.061684 0.001585 0.000000 0.476536 0.004041 0.000000 -0.826382 0.001936 0.000000 0.210366 0.003626 0.000000 -0.568114 0.001854 0.000000 -0.053224 0.002787 0.000000 -0.337556 0.001898 0.000000 -0.278300 0.002474 0.000000 -0.161248 0.001604 0.000000 -0.447970 0.001832 0.000000 -0.048820 0.001223 0.000000 -0.569711 0.001227 0.000000 0.031389 0.000930 0.000000 -0.694567 0.000598 0.000000 0.131731 0.000877 0.000000 -0.866968 -0.000071 0.000000 0.272641 0.001059 0.000000 -1.086266 -0.000961 0.000000 0.439422 0.001785 0.000000 -1.341109 -0.001666 0.000000 
-0.601144 0.086957 0.000000 0.449548 0.116741 0.000000 -0.306332 -0.050213 0.000000 0.377439 0.116811 0.000000 -0.049499 -0.047245 0.000000 0.311679 -0.023623 0.000000 -0.223974 -0.089407 0.000000 0.186883 0.027381 0.000000 -0.278747 -0.090208 0.000000 0.072803 0.048963 0.000000 -0.277464 -0.081438 0.000000 -0.028599 0.045513 0.000000 -0.262765 -0.060592 0.000000 -0.106187 0.028309 0.000000 -0.256252 -0.036911 0.000000 -0.158481 0.009338 0.000000 -0.262916 -0.015317 0.000000 -0.187703 -0.006868 0.000000 -0.284567 -0.000175 0.000000 -0.198079 -0.014143 0.000000 -0.314831 -0.002666 0.000000 -0.205088 -0.001902 0.000000 -0.329812 -0.024694 0.000000 -0.229529 0.029778 0.000000 -0.315550 -0.058143 0.000000 -0.287390 0.065950 0.000000 -0.264634 -0.097328 0.000000 -0.382477 0.102564 0.000000 -0.172308 -0.130168 0.000000 -0.510840 0.128695 0.000000 -0.051474 -0.140741 0.000000 -0.650880 0.126512 0.000000 0.066782 -0.123536 0.000000 -0.771523 0.097057 0.000000 0.154550 -0.084173 0.000000 -0.848312 0.054775 0.000000 0.198517 -0.041107 0.000000 -0.879850 0.018044 0.000000 0.210901 -0.009418 0.000000 -0.881635 -0.010389 0.000000 0.197044 0.023548 0.000000 -0.850344 -0.042873 0.000000 0.154338 0.062018 0.000000 -0.780674 -0.084113 0.000000 0.074866 0.104397 0.000000 -0.668368 -0.118939 0.000000 -0.038066 0.129694 0.000000 -0.525253 -0.130485 0.000000 -0.162326 0.128946 0.000000 -0.383115 -0.116760 0.000000 -0.269544 0.110909 0.000000 -0.258961 -0.090144 0.000000 -0.345948 0.083927 0.000000 -0.162160 -0.057775 0.000000 -0.384042 0.060176 0.000000 -0.091775 -0.040920 0.000000 -0.397662 0.061763 0.000000 -0.020580 -0.050451 0.000000 -0.414182 0.085683 0.000000 0.075420 -0.070582 0.000000 -0.440178 0.109429 0.000000 0.193036 -0.083450 0.000000 -0.464517 0.127675 0.000000 0.334271 -0.127212 0.000000 
1.159024 -0.101321 0.000000 0.697665 -0.302804 0.000000 1.041324 0.079097 0.000000 0.633773 -0.259956 0.000000 0.798873 0.060901 0.000000 0.555512 0.171536 0.000000 1.300792 0.130357 0.000000 0.497252 0.052042 0.000000 1.671086 0.117972 0.000000 0.382666 -0.004388 0.000000 1.970631 0.104654 0.000000 0.260997 -0.017994 0.000000 2.204988 0.080403 0.000000 0.165112 -0.009549 0.000000 2.377876 0.054494 0.000000 0.104358 0.004267 0.000000 2.499204 0.030433 0.000000 0.080137 0.019852 0.000000 2.577883 0.010897 0.000000 0.085556 0.029518 0.000000 2.627453 0.008627 0.000000 0.095097 0.016682 0.000000 2.675665 0.026116 0.000000 0.079164 -0.012626 0.000000 2.752621 0.058021 0.000000 0.028607 -0.049011 0.000000 2.867002 0.095939 0.000000 -0.072031 -0.089932 0.000000 3.022200 0.130757 0.000000 -0.218434 -0.118536 0.000000 3.207243 0.141683 0.000000 -0.377645 -0.115792 0.000000 3.384197 0.121311 0.000000 -0.513186 -0.084408 0.000000 3.514500 0.076378 0.000000 -0.595673 -0.040102 0.000000 3.581633 0.031825 0.000000 -0.626019 -0.008506 0.000000 3.597966 0.001718 0.000000 -0.625279 0.017385 0.000000 3.576327 -0.030942 0.000000 -0.589751 0.045925 0.000000 3.511054 -0.068105 0.000000 -0.511859 0.082478 0.000000 3.386309 -0.110722 0.000000 -0.382352 0.116973 0.000000 3.207558 -0.141179 0.000000 -0.220757 0.127886 0.000000 3.003795 -0.140284 0.000000 -0.063177 0.110004 0.000000 2.809562 -0.122256 0.000000 0.066979 0.078878 0.000000 2.638345 -0.095196 0.000000 0.158141 0.039925 0.000000 2.495312 -0.069162 0.000000 0.213600 0.014847 0.000000 2.356349 -0.070265 0.000000 0.270540 0.017118 0.000000 2.178342 -0.095123 0.000000 0.358912 0.025924 0.000000 1.940080 -0.116557 0.000000 0.481787 0.023379 0.000000 1.634315 -0.139450 0.000000 0.647890 0.134961 0.000000 
3.189196 0.037183 0.000000 -0.075074 0.234441 0.000000 2.298724 0.013679 0.000000 -0.166955 0.359262 0.000000 1.137275 0.031017 0.000000 -0.111543 -0.525542 0.000000 2.484571 -0.031148 0.000000 -0.037633 -0.342913 0.000000 3.218370 0.024378 0.000000 0.021742 -0.250582 0.000000 3.695805 0.040231 0.000000 0.076058 -0.188844 0.000000 4.044809 0.035293 0.000000 0.120570 -0.144579 0.000000 4.320842 0.023844 0.000000 0.154879 -0.111990 0.000000 4.547875 0.008904 0.000000 0.178472 -0.085547 0.000000 4.739431 -0.005594 0.000000 0.190319 -0.063713 0.000000 4.903119 -0.012207 0.000000 0.197028 -0.050114 0.000000 5.032487 -0.008761 0.000000 0.207617 -0.047179 0.000000 5.125742 -0.007585 0.000000 0.228518 -0.048431 0.000000 5.183695 0.003310 0.000000 0.263463 -0.052635 0.000000 5.206149 0.016235 0.000000 0.314151 -0.056348 0.000000 5.200321 0.018469 0.000000 0.370610 -0.050441 0.000000 5.184124 0.012005 0.000000 0.418343 -0.033247 0.000000 5.172250 -0.001686 0.000000 0.444928 -0.012358 0.000000 5.168938 -0.010761 0.000000 0.453366 0.001711 0.000000 5.162612 -0.010157 0.000000 0.455335 0.011250 0.000000 5.148001 -0.011981 0.000000 0.448947 0.022401 0.000000 5.126966 -0.015873 0.000000 0.430607 0.040631 0.000000 5.105171 -0.025110 0.000000 0.394029 0.059813 0.000000 5.082947 -0.031901 0.000000 0.342639 0.073277 0.000000 5.046351 -0.028634 0.000000 0.293742 0.077473 0.000000 4.977699 -0.019247 0.000000 0.255099 0.081073 0.000000 4.870286 -0.007235 0.000000 0.231654 0.085259 0.000000 4.715720 0.004718 0.000000 0.224098 0.098042 0.000000 4.515194 0.004823 0.000000 0.214558 0.127556 0.000000 4.274452 -0.002690 0.000000 0.185655 0.167680 0.000000 3.979113 -0.013446 0.000000 0.135249 0.222314 0.000000 3.594614 -0.038429 0.000000 0.043786 0.348080 0.000000 
3.244134 0.017539 0.000000 0.083143 0.587668 0.000000 2.537981 0.170978 0.000000 -0.055277 0.901493 0.000000 1.586413 0.005488 0.000000 -0.031266 -1.175761 0.000000 2.635224 0.056447 0.000000 -0.038817 -0.681757 0.000000 3.315393 0.058598 0.000000 0.003868 -0.481823 0.000000 3.787710 0.050339 0.000000 0.055214 -0.366998 0.000000 4.140250 0.035890 0.000000 0.104454 -0.285582 0.000000 4.416105 0.020185 0.000000 0.149868 -0.222767 0.000000 4.637349 0.006839 0.000000 0.188221 -0.171703 0.000000 4.815929 -0.000950 0.000000 0.217420 -0.134170 0.000000 4.961164 0.001918 0.000000 0.239942 -0.112686 0.000000 5.075902 0.015528 0.000000 0.261164 -0.105881 0.000000 5.162176 0.037120 0.000000 0.276460 -0.106964 0.000000 5.223281 0.060994 0.000000 0.293739 -0.112386 0.000000 5.262940 0.080070 0.000000 0.315718 -0.112708 0.000000 5.283166 0.085223 0.000000 0.337115 -0.099595 0.000000 5.292215 0.073578 0.000000 0.354122 -0.072533 0.000000 5.297697 0.049794 0.000000 0.362529 -0.036790 0.000000 5.300864 0.023386 0.000000 0.365625 -0.002179 0.000000 5.296322 -0.000250 0.000000 0.369241 0.031996 0.000000 5.278510 -0.024555 0.000000 0.370557 0.066961 0.000000 5.248174 -0.049765 0.000000 0.367328 0.104273 0.000000 5.207763 -0.074144 0.000000 0.355272 0.139197 0.000000 5.157546 -0.089789 0.000000 0.334699 0.164482 0.000000 5.091439 -0.091387 0.000000 0.311861 0.178657 0.000000 5.000182 -0.083614 0.000000 0.290800 0.186290 0.000000 4.879841 -0.071751 0.000000 0.274329 0.194492 0.000000 4.725496 -0.061605 0.000000 0.263909 0.215373 0.000000 4.533595 -0.060725 0.000000 0.251661 0.257860 0.000000 4.301026 -0.066220 0.000000 0.231748 0.321263 0.000000 4.013125 -0.066151 0.000000 0.197233 0.407878 0.000000 3.651297 -0.047987 0.000000 0.121498 0.540379 0.000000 
3.366261 0.075538 0.000000 -0.034923 0.940595 0.000000 2.763154 0.152098 0.000000 -0.069888 1.310830 0.000000 2.016920 0.007006 0.000000 -0.074069 -1.574354 0.000000 2.763932 -0.023596 0.000000 -0.035121 -1.023083 0.000000 3.388778 -0.018307 0.000000 0.012966 -0.722898 0.000000 3.843827 -0.011115 0.000000 0.060285 -0.541384 0.000000 4.184791 -0.013947 0.000000 0.104436 -0.420434 0.000000 4.452763 -0.021571 0.000000 0.143685 -0.333234 0.000000 4.670329 -0.029449 0.000000 0.176328 -0.264127 0.000000 4.847249 -0.034793 0.000000 0.202386 -0.208948 0.000000 4.991448 -0.034728 0.000000 0.223809 -0.164851 0.000000 5.102808 -0.029983 0.000000 0.244703 -0.133452 0.000000 5.184715 -0.022881 0.000000 0.268360 -0.109536 0.000000 5.237649 -0.013969 0.000000 0.298092 -0.092294 0.000000 5.265139 -0.005743 0.000000 0.334210 -0.076573 0.000000 5.272343 -0.002928 0.000000 0.372034 -0.059490 0.000000 5.268391 -0.005002 0.000000 0.405087 -0.038730 0.000000 5.262228 -0.010093 0.000000 0.428021 -0.015525 0.000000 5.255665 -0.013858 0.000000 0.441562 0.006253 0.000000 5.247154 -0.013773 0.000000 0.447209 0.029061 0.000000 5.231680 -0.013297 0.000000 0.444371 0.052738 0.000000 5.209864 -0.012645 0.000000 0.430344 0.081042 0.000000 5.181137 -0.013054 0.000000 0.403511 0.110030 0.000000 5.144066 -0.011328 0.000000 0.366814 0.139384 0.000000 5.091372 -0.005796 0.000000 0.327405 0.168730 0.000000 5.012595 0.001814 0.000000 0.291577 0.201414 0.000000 4.903127 0.009236 0.000000 0.262028 0.239604 0.000000 4.759288 0.015138 0.000000 0.237159 0.289943 0.000000 4.579426 0.017071 0.000000 0.209076 0.360125 0.000000 4.361339 0.017224 0.000000 0.169595 0.455581 0.000000 4.095200 0.021068 0.000000 0.114292 0.584142 0.000000 3.765287 0.037306 0.000000 0.040197 0.755242 0.000000 
3.520312 0.092660 0.000000 0.076151 1.190775 0.000000 3.037317 0.205942 0.000000 0.026575 1.647727 0.000000 2.431995 0.009669 0.000000 0.021771 -1.922773 0.000000 2.988622 0.017499 0.000000 0.010900 -1.306603 0.000000 3.504552 0.010511 0.000000 0.028945 -0.936873 0.000000 3.913268 0.003019 0.000000 0.063332 -0.707961 0.000000 4.232826 -0.008260 0.000000 0.104464 -0.553554 0.000000 4.488549 -0.019064 0.000000 0.147370 -0.440333 0.000000 4.698087 -0.025804 0.000000 0.187630 -0.348623 0.000000 4.867001 -0.027007 0.000000 0.221906 -0.278370 0.000000 5.002431 -0.019505 0.000000 0.249515 -0.224045 0.000000 5.106320 -0.005367 0.000000 0.271706 -0.187788 0.000000 5.186130 0.013464 0.000000 0.288690 -0.159899 0.000000 5.241190 0.031262 0.000000 0.304380 -0.139876 0.000000 5.279012 0.043952 0.000000 0.320205 -0.119912 0.000000 5.301102 0.047400 0.000000 0.335849 -0.095643 0.000000 5.314050 0.040524 0.000000 0.349391 -0.066371 0.000000 5.321743 0.026860 0.000000 0.359160 -0.030227 0.000000 5.323762 0.009846 0.000000 0.365676 0.006331 0.000000 5.319778 -0.005897 0.000000 0.369287 0.047470 0.000000 5.303517 -0.021717 0.000000 0.369875 0.088777 0.000000 5.277470 -0.035738 0.000000 0.365321 0.133001 0.000000 5.238524 -0.047311 0.000000 0.354883 0.176268 0.000000 5.188560 -0.053091 0.000000 0.337790 0.217176 0.000000 5.122358 -0.051979 0.000000 0.316616 0.257434 0.000000 5.034982 -0.047785 0.000000 0.294364 0.295758 0.000000 4.921924 -0.042203 0.000000 0.273969 0.338331 0.000000 4.782503 -0.036736 0.000000 0.255724 0.395235 0.000000 4.615018 -0.032642 0.000000 0.236420 0.475947 0.000000 4.415036 -0.026740 0.000000 0.211819 0.587402 0.000000 4.173729 -0.010847 0.000000 0.177616 0.737792 0.000000 3.879992 0.026107 0.000000 0.131400 0.939405 0.000000 
3.714166 0.130787 0.000000 0.021560 1.423590 0.000000 3.312095 0.201673 0.000000 0.004542 1.916152 0.000000 2.829726 0.011810 0.000000 -0.000475 -2.130982 0.000000 3.224612 -0.012725 0.000000 0.004974 -1.539012 0.000000 3.648678 -0.036352 0.000000 0.029748 -1.131614 0.000000 4.012353 -0.045502 0.000000 0.064358 -0.860942 0.000000 4.306887 -0.055079 0.000000 0.103730 -0.676157 0.000000 4.547950 -0.064477 0.000000 0.144159 -0.542772 0.000000 4.749316 -0.069709 0.000000 0.182176 -0.433041 0.000000 4.909798 -0.069070 0.000000 0.216106 -0.344378 0.000000 5.039303 -0.062337 0.000000 0.243767 -0.268740 0.000000 5.135341 -0.052175 0.000000 0.267714 -0.213263 0.000000 5.208978 -0.039865 0.000000 0.289841 -0.164596 0.000000 5.255462 -0.029659 0.000000 0.313312 -0.130116 0.000000 5.283405 -0.021569 0.000000 0.339292 -0.098663 0.000000 5.295528 -0.018572 0.000000 0.365946 -0.072439 0.000000 5.297805 -0.018544 0.000000 0.391244 -0.046423 0.000000 5.298064 -0.019862 0.000000 0.410828 -0.017544 0.000000 5.293189 -0.020374 0.000000 0.424805 0.010237 0.000000 5.288406 -0.017383 0.000000 0.430358 0.045322 0.000000 5.274190 -0.013885 0.000000 0.428241 0.078785 0.000000 5.255113 -0.008090 0.000000 0.416173 0.119988 0.000000 5.225761 -0.002617 0.000000 0.394418 0.159994 0.000000 5.186097 0.005765 0.000000 0.363863 0.205585 0.000000 5.131698 0.015378 0.000000 0.327199 0.256106 0.000000 5.052670 0.024065 0.000000 0.291035 0.314472 0.000000 4.950441 0.029631 0.000000 0.258118 0.379025 0.000000 4.825236 0.033383 0.000000 0.227794 0.457428 0.000000 4.675634 0.036375 0.000000 0.196703 0.560108 0.000000 4.497955 0.041825 0.000000 0.160798 0.696888 0.000000 4.285124 0.055271 0.000000 0.117805 0.877879 0.000000 4.027573 0.083522 0.000000 0.069373 1.114923 0.000000 
3.912871 0.140472 0.000000 0.097481 1.592847 0.000000 3.595260 0.222961 0.000000 0.075551 2.130096 0.000000 3.211706 0.014686 0.000000 0.070598 -2.317658 0.000000 3.496701 0.012050 0.000000 0.054463 -1.730669 0.000000 3.821900 -0.014263 0.000000 0.055926 -1.300547 0.000000 4.124708 -0.031590 0.000000 0.075288 -1.002496 0.000000 4.384174 -0.047632 0.000000 0.108725 -0.794617 0.000000 4.604470 -0.059494 0.000000 0.151755 -0.641698 0.000000 4.795408 -0.063821 0.000000 0.198138 -0.509105 0.000000 4.949197 -0.060937 0.000000 0.238075 -0.407876 0.000000 5.071439 -0.047166 0.000000 0.268757 -0.320083 0.000000 5.158990 -0.029314 0.000000 0.290083 -0.261425 0.000000 5.230796 -0.008664 0.000000 0.304672 -0.206383 0.000000 5.274494 0.007791 0.000000 0.316011 -0.167819 0.000000 5.309015 0.017972 0.000000 0.326230 -0.132034 0.000000 5.327106 0.020746 0.000000 0.337207 -0.097920 0.000000 5.340861 0.015226 0.000000 0.348228 -0.066630 0.000000 5.350260 0.007276 0.000000 0.358375 -0.025352 0.000000 5.352992 -0.004131 0.000000 0.366833 0.011115 0.000000 5.354090 -0.011450 0.000000 0.371344 0.061685 0.000000 5.338672 -0.019601 0.000000 0.372312 0.107854 0.000000 5.319160 -0.023670 0.000000 0.367745 0.162353 0.000000 5.281045 -0.025556 0.000000 0.358786 0.215931 0.000000 5.236044 -0.022536 0.000000 0.343040 0.271575 0.000000 5.173292 -0.015315 0.000000 0.320722 0.336461 0.000000 5.093833 -0.011621 0.000000 0.294022 0.397987 0.000000 4.989777 -0.009286 0.000000 0.266987 0.463536 0.000000 4.868243 -0.006413 0.000000 0.241878 0.544837 0.000000 4.730987 -0.001550 0.000000 0.218397 0.653626 0.000000 4.573943 0.009165 0.000000 0.193988 0.800233 0.000000 4.390404 0.032145 0.000000 0.165918 0.995343 0.000000 4.172931 0.074540 0.000000 0.133445 1.252812 0.000000 
4.125190 0.166751 0.000000 0.062568 1.741201 0.000000 3.873198 0.223603 0.000000 0.057205 2.299706 0.000000 3.577297 0.016764 0.000000 0.052644 -2.415977 0.000000 3.765500 0.003409 0.000000 0.043731 -1.864211 0.000000 4.010865 -0.037815 0.000000 0.050488 -1.434422 0.000000 4.260170 -0.064864 0.000000 0.071694 -1.120408 0.000000 4.485738 -0.088516 0.000000 0.106041 -0.896454 0.000000 4.686052 -0.107506 0.000000 0.150192 -0.733710 0.000000 4.867374 -0.116092 0.000000 0.199296 -0.586830 0.000000 5.004536 -0.109006 0.000000 0.241772 -0.466621 0.000000 5.117661 -0.093019 0.000000 0.272662 -0.356290 0.000000 5.190425 -0.073500 0.000000 0.294717 -0.285069 0.000000 5.257504 -0.054455 0.000000 0.312274 -0.208295 0.000000 5.291275 -0.040998 0.000000 0.327473 -0.164637 0.000000 5.317033 -0.031788 0.000000 0.344776 -0.116754 0.000000 5.328107 -0.029549 0.000000 0.362420 -0.086194 0.000000 5.330795 -0.029565 0.000000 0.382633 -0.055821 0.000000 5.338034 -0.030009 0.000000 0.399474 -0.020276 0.000000 5.332557 -0.028832 0.000000 0.414528 0.009138 0.000000 5.337824 -0.021894 0.000000 0.420360 0.060740 0.000000 5.322918 -0.014854 0.000000 0.420090 0.098298 0.000000 5.310877 -0.003523 0.000000 0.410228 0.158102 0.000000 5.282111 0.006342 0.000000 0.392782 0.204996 0.000000 5.244575 0.021511 0.000000 0.365856 0.268337 0.000000 5.194962 0.037697 0.000000 0.327571 0.335565 0.000000 5.114991 0.050766 0.000000 0.287433 0.418529 0.000000 5.019924 0.056666 0.000000 0.249257 0.500559 0.000000 4.915033 0.058492 0.000000 0.214652 0.594683 0.000000 4.799623 0.059856 0.000000 0.183177 0.717152 0.000000 4.668859 0.066234 0.000000 0.152487 0.880426 0.000000 4.516615 0.083341 0.000000 0.120913 1.095352 0.000000 4.337102 0.115996 0.000000 0.089615 1.374983 0.000000 
4.333102 0.167519 0.000000 0.117942 1.844839 0.000000 4.146427 0.228324 0.000000 0.112478 2.425997 0.000000 3.926858 0.019246 0.000000 0.108246 -2.505861 0.000000 4.041237 0.020964 0.000000 0.087233 -1.976034 0.000000 4.209386 -0.021021 0.000000 0.075855 -1.549853 0.000000 4.398997 -0.052795 0.000000 0.079746 -1.228064 0.000000 4.584388 -0.081980 0.000000 0.104392 -0.994930 0.000000 4.759401 -0.103645 0.000000 0.152843 -0.823020 0.000000 4.930233 -0.112925 0.000000 0.223725 -0.646266 0.000000 5.065868 -0.103413 0.000000 0.269871 -0.521001 0.000000 5.170393 -0.078056 0.000000 0.303609 -0.392847 0.000000 5.229102 -0.051369 0.000000 0.316237 -0.328505 0.000000 5.298480 -0.026221 0.000000 0.327046 -0.240154 0.000000 5.318002 -0.007408 0.000000 0.329710 -0.193578 0.000000 5.353587 0.000670 0.000000 0.332995 -0.143108 0.000000 5.357775 0.003101 0.000000 0.339531 -0.100608 0.000000 5.373623 -0.004987 0.000000 0.346758 -0.073868 0.000000 5.384046 -0.009564 0.000000 0.360014 -0.019875 0.000000 5.386987 -0.019185 0.000000 0.368917 0.005847 0.000000 5.401917 -0.017282 0.000000 0.377531 0.076591 0.000000 5.380926 -0.019331 0.000000 0.377411 0.119895 0.000000 5.377840 -0.013807 0.000000 0.373673 0.191120 0.000000 5.333970 -0.008110 0.000000 0.366845 0.253466 0.000000 5.303095 0.004390 0.000000 0.353604 0.321189 0.000000 5.240434 0.022970 0.000000 0.331900 0.416433 0.000000 5.173148 0.028517 0.000000 0.296962 0.493053 0.000000 5.071843 0.028890 0.000000 0.256075 0.568427 0.000000 4.967809 0.028192 0.000000 0.221938 0.660247 0.000000 4.865679 0.029925 0.000000 0.196690 0.784390 0.000000 4.757474 0.039855 0.000000 0.176233 0.952478 0.000000 4.635590 0.063720 0.000000 0.156709 1.174855 0.000000 4.495139 0.105838 0.000000 0.136862 1.464723 0.000000 
4.544147 0.185671 0.000000 0.092946 1.927876 0.000000 4.411534 0.229067 0.000000 0.097135 2.519275 0.000000 4.260693 0.020996 0.000000 0.093446 -2.530356 0.000000 4.309547 0.024422 0.000000 0.075789 -2.032359 0.000000 4.415698 -0.026437 0.000000 0.066276 -1.624033 0.000000 4.555267 -0.068755 0.000000 0.069282 -1.305799 0.000000 4.704440 -0.113162 0.000000 0.092921 -1.071467 0.000000 4.859256 -0.155958 0.000000 0.143786 -0.904542 0.000000 5.028882 -0.186974 0.000000 0.242016 -0.722465 0.000000 5.129837 -0.155153 0.000000 0.284859 -0.571145 0.000000 5.227915 -0.126757 0.000000 0.317155 -0.415000 0.000000 5.256071 -0.086128 0.000000 0.326848 -0.354448 0.000000 5.332159 -0.065265 0.000000 0.337600 -0.227816 0.000000 5.337068 -0.043661 0.000000 0.343196 -0.200223 0.000000 5.364127 -0.035073 0.000000 0.347955 -0.120942 0.000000 5.368083 -0.036084 0.000000 0.360925 -0.102041 0.000000 5.363688 -0.036793 0.000000 0.373191 -0.066244 0.000000 5.386450 -0.043264 0.000000 0.393298 -0.023217 0.000000 5.367483 -0.037734 0.000000 0.409246 -0.005791 0.000000 5.401594 -0.030509 0.000000 0.416703 0.081731 0.000000 5.373005 -0.014733 0.000000 0.419675 0.101384 0.000000 5.381382 0.000214 0.000000 0.408217 0.201972 0.000000 5.350577 0.013170 0.000000 0.400151 0.235871 0.000000 5.319866 0.034752 0.000000 0.375481 0.330998 0.000000 5.284150 0.059400 0.000000 0.337375 0.402851 0.000000 5.189037 0.085704 0.000000 0.285558 0.519834 0.000000 5.094606 0.097553 0.000000 0.234790 0.604593 0.000000 5.011865 0.092629 0.000000 0.194108 0.696813 0.000000 4.936225 0.085104 0.000000 0.164756 0.825357 0.000000 4.856974 0.086691 0.000000 0.141976 1.002311 0.000000 4.766799 0.102865 0.000000 0.122133 1.235803 0.000000 4.662630 0.135843 0.000000 0.104948 1.537019 0.000000 
4.746896 0.179520 0.000000 0.135840 1.977452 0.000000 4.666997 0.224135 0.000000 0.142690 2.576838 0.000000 4.578306 0.022936 0.000000 0.139516 -2.554715 0.000000 4.570429 0.038621 0.000000 0.115218 -2.082185 0.000000 4.615050 -0.011508 0.000000 0.089449 -1.689421 0.000000 4.699891 -0.055801 0.000000 0.066251 -1.377238 0.000000 4.809420 -0.105618 0.000000 0.060363 -1.149746 0.000000 4.943697 -0.154510 0.000000 0.103092 -0.992647 0.000000 5.108699 -0.211154 0.000000 0.312493 -0.747221 0.000000 5.219429 -0.146256 0.000000 0.314915 -0.619079 0.000000 5.301681 -0.110353 0.000000 0.370163 -0.421003 0.000000 5.297983 -0.061062 0.000000 0.341879 -0.404593 0.000000 5.401300 -0.036973 0.000000 0.356881 -0.245063 0.000000 5.355432 -0.013004 0.000000 0.351094 -0.220636 0.000000 5.420535 -0.004089 0.000000 0.328412 -0.147065 0.000000 5.382723 -0.009869 0.000000 0.353564 -0.096212 0.000000 5.412108 -0.017254 0.000000 0.325730 -0.096631 0.000000 5.423500 -0.029671 0.000000 0.377499 -0.000907 0.000000 5.416457 -0.035133 0.000000 0.360015 -0.028264 0.000000 5.475262 -0.024739 0.000000 0.397782 0.105180 0.000000 5.415642 -0.022303 0.000000 0.383798 0.111518 0.000000 5.466097 -0.002349 0.000000 0.376934 0.221925 0.000000 5.386501 -0.000045 0.000000 0.382422 0.284177 0.000000 5.401803 0.029060 0.000000 0.358888 0.356904 0.000000 5.320769 0.061076 0.000000 0.377359 0.511546 0.000000 5.272395 0.080334 0.000000 0.315109 0.587485 0.000000 5.146602 0.079658 0.000000 0.232948 0.651168 0.000000 5.061970 0.068874 0.000000 0.187109 0.735888 0.000000 5.004987 0.059277 0.000000 0.166847 0.863640 0.000000 4.951077 0.062635 0.000000 0.156371 1.042653 0.000000 4.890631 0.083563 0.000000 0.148255 1.279024 0.000000 4.822057 0.123023 0.000000 0.140889 1.583207 0.000000 
4.947962 0.190720 0.000000 0.117336 2.007775 0.000000 4.912937 0.222217 0.000000 0.131037 2.607966 0.000000 4.880634 0.024170 0.000000 0.128525 -2.522479 0.000000 4.823472 0.048720 0.000000 0.108493 -2.076981 0.000000 4.819570 -0.000668 0.000000 0.083394 -1.708873 0.000000 4.860594 -0.045556 0.000000 0.052681 -1.415328 0.000000 4.933557 -0.107274 0.000000 0.024594 -1.205745 0.000000 5.051839 -0.198687 0.000000 0.011130 -1.069543 0.000000 5.272277 -0.396375 0.000000 0.425783 -0.833195 0.000000 5.266311 -0.157575 0.000000 0.313296 -0.653397 0.000000 5.379635 -0.182005 0.000000 0.388545 -0.411301 0.000000 5.299007 -0.057843 0.000000 0.365697 -0.457765 0.000000 5.447391 -0.080266 0.000000 0.340417 -0.181948 0.000000 5.381240 -0.037874 0.000000 0.398760 -0.265326 0.000000 5.418782 -0.012392 0.000000 0.301081 -0.083130 0.000000 5.424317 -0.061236 0.000000 0.400231 -0.131426 0.000000 5.374847 -0.008959 0.000000 0.317491 -0.077637 0.000000 5.466768 -0.095033 0.000000 0.414182 -0.016174 0.000000 5.369007 -0.020251 0.000000 0.399241 -0.064597 0.000000 5.503380 -0.068275 0.000000 0.411777 0.141352 0.000000 5.406516 -0.000749 0.000000 0.450023 0.050929 0.000000 5.470450 0.007078 0.000000 0.372926 0.281567 0.000000 5.436717 0.007683 0.000000 0.444360 0.220569 0.000000 5.405169 0.058287 0.000000 0.362737 0.412032 0.000000 5.435011 0.040929 0.000000 0.398692 0.451225 0.000000 5.249334 0.147953 0.000000 0.289811 0.645628 0.000000 5.143670 0.179715 0.000000 0.202299 0.689224 0.000000 5.097375 0.138468 0.000000 0.155013 0.753795 0.000000 5.075399 0.105366 0.000000 0.136343 0.879268 0.000000 5.052205 0.097166 0.000000 0.127592 1.062757 0.000000 5.021620 0.110981 0.000000 0.121331 1.304377 0.000000 4.985489 0.143209 0.000000 0.117066 1.612181 0.000000 
5.138654 0.179250 0.000000 0.152568 2.012477 0.000000 5.146727 0.210435 0.000000 0.171251 2.609141 0.000000 5.166648 0.025447 0.000000 0.169421 -2.497553 0.000000 5.062964 0.058652 0.000000 0.152321 -2.078283 0.000000 5.006395 0.013591 0.000000 0.122163 -1.730445 0.000000 4.989225 -0.025089 0.000000 0.062717 -1.450201 0.000000 5.009276 -0.077531 0.000000 -0.055894 -1.268028 0.000000 5.119608 -0.141047 0.000000 -0.219904 -1.213084 0.000000 5.377372 -0.625807 0.000000 0.677460 -0.741256 0.000000 5.361777 -0.033768 0.000000 0.158121 -0.732403 0.000000 5.484477 -0.185602 0.000000 0.532294 -0.340375 0.000000 5.292891 -0.038213 0.000000 0.287286 -0.552977 0.000000 5.585558 -0.011693 0.000000 0.342049 -0.178912 0.000000 5.347725 -0.071347 0.000000 0.477555 -0.258177 0.000000 5.515241 0.093590 0.000000 0.139646 -0.152600 0.000000 5.408916 -0.109018 0.000000 0.554240 -0.046743 0.000000 5.421117 0.065486 0.000000 0.078761 -0.188551 0.000000 5.512757 -0.126363 0.000000 0.572803 0.096853 0.000000 5.378275 -0.020191 0.000000 0.221587 -0.162637 0.000000 5.635626 -0.037275 0.000000 0.487374 0.202043 0.000000 5.384274 -0.060549 0.000000 0.427707 0.047584 0.000000 5.610796 0.074749 0.000000 0.275612 0.255658 0.000000 5.423435 -0.071479 0.000000 0.532099 0.315725 0.000000 5.534382 0.110684 0.000000 0.141175 0.327063 0.000000 5.481059 0.025121 0.000000 0.646555 0.697223 0.000000 5.376888 0.189215 0.000000 0.339476 0.693149 0.000000 5.157393 0.167169 0.000000 0.146543 0.697463 0.000000 5.134728 0.116160 0.000000 0.118352 0.757863 0.000000 5.146443 0.077947 0.000000 0.126231 0.886834 0.000000 5.149618 0.071385 0.000000 0.135249 1.073238 0.000000 5.145318 0.089825 0.000000 0.141055 1.315156 0.000000 5.139692 0.127288 0.000000 0.145633 1.620733 0.000000 
5.325203 0.183785 0.000000 0.139251 1.999702 0.000000 5.370390 0.203534 0.000000 0.163387 2.588044 0.000000 5.437647 0.026000 0.000000 0.162296 -2.418795 0.000000 5.292989 0.065820 0.000000 0.154530 -2.020411 0.000000 5.195630 0.029489 0.000000 0.136207 -1.691704 0.000000 5.139463 0.013890 0.000000 0.091084 -1.435378 0.000000 5.122784 0.011337 0.000000 -0.000590 -1.316077 0.000000 5.144921 -0.034676 0.000000 -0.075974 -1.327307 0.000000 5.263393 -1.293739 0.000000 0.146455 -0.817600 0.000000 5.081600 0.361764 0.000000 -0.189924 -0.776097 0.000000 5.301199 -0.556178 0.000000 0.041647 -0.219716 0.000000 5.162459 0.187165 0.000000 0.071499 -0.750431 0.000000 5.386699 -0.135029 0.000000 -0.004844 0.055884 0.000000 5.287395 -0.173380 0.000000 0.366914 -0.432842 0.000000 5.291211 0.325517 0.000000 -0.082012 0.023196 0.000000 5.369514 -0.475830 0.000000 0.483581 -0.143627 0.000000 5.176981 0.466519 0.000000 -0.058248 -0.169277 0.000000 5.447756 -0.589076 0.000000 0.454164 0.118308 0.000000 5.174656 0.330966 0.000000 0.169107 -0.321947 0.000000 5.543378 -0.334062 0.000000 0.350575 0.392703 0.000000 5.287549 0.058918 0.000000 0.499148 -0.175593 0.000000 5.487312 0.159173 0.000000 0.164201 0.468928 0.000000 5.429309 -0.248805 0.000000 0.711338 0.109623 0.000000 5.393350 0.449211 0.000000 0.115474 0.465354 0.000000 5.608793 -0.464452 0.000000 1.067955 0.555397 0.000000 5.240228 0.455032 0.000000 0.333369 0.865123 0.000000 5.105102 0.372648 0.000000 0.085279 0.711889 0.000000 5.171122 0.166659 0.000000 0.076029 0.742081 0.000000 5.225425 0.097487 0.000000 0.097900 0.876093 0.000000 5.254246 0.088149 0.000000 0.112639 1.067057 0.000000 5.273652 0.105175 0.000000 0.121009 1.310003 0.000000 5.294765 0.138631 0.000000 0.128171 1.613219 0.000000 