# vtk DataFile Version 2.0
Comment goes here
ASCII

DATASET STRUCTURED_POINTS
FIELD FieldData 1
TIME 1 1 double
0.10000000
DIMENSIONS    64   64   1

ORIGIN    0.000   0.000   0.000
SPACING   0.03125 0.03125   1.000

POINT_DATA   4096
VECTORS u double

53.336434 -2.959760 0.000000 37.765023 -9.936230 0.000000 18.937745 18.110885 0.000000 72.581704 -11.024124 0.000000 -10.532666 -3.637615 0.000000 52.233000 5.467769 0.000000 26.789668 5.850437 0.000000 11.366121 17.589712 0.000000 38.332785 34.958772 0.000000 9.563240 -9.952806 0.000000 22.574223 -26.363079 0.000000 16.701433 16.860100 0.000000 30.973423 24.007625 0.000000 22.774686 -3.738637 0.000000 18.796764 29.661305 0.000000 39.695216 -23.960122 0.000000 16.438058 -6.580305 0.000000 35.420272 3.687684 0.000000 10.626667 -15.962233 0.000000 -3.912236 -15.149378 0.000000 19.241128 -24.853211 0.000000 17.854073 -8.683799 0.000000 0.653749 -8.958655 0.000000 16.400022 -6.850158 0.000000 -2.557671 4.462355 0.000000 -4.152067 19.340436 0.000000 -25.757360 16.769722 0.000000 8.676736 9.373586 0.000000 -21.318189 21.441321 0.000000 6.828328 -28.920510 0.000000 -11.475571 -36.729056 0.000000 8.739899 0.671618 0.000000 -3.438989 -27.617209 0.000000 21.611155 34.178287 0.000000 8.635974 23.157043 0.000000 8.895817 18.469455 0.000000 33.509225 34.511159 0.000000 -5.421982 -15.655898 0.000000 25.475802 -8.654112 0.000000 12.646547 2.635422 0.000000 -25.274604 -17.081217 0.000000 30.626025 -6.537061 0.000000 -20.719846 -16.950770 0.000000 -0.931525 -6.538058 0.000000 -14.909767 1.180991 0.000000 -3.546153 -18.958856 0.000000 -0.282828 3.815202 0.000000 -11.800787 2.390781 0.000000 18.612476 -27.784474 0.000000 -15.215061 21.517842 0.000000 21.507477 -22.666086 0.000000 -5.503058 -9.072327 0.000000 9.007374 1.953494 0.000000 31.765438 -13.123466 0.000000 -16.776367 -11.427567 0.000000 -3.713097 23.880296 0.000000 -2.623202 0.429989 0.000000 -5.715237 14.479011 0.000000 -17.717443 12.565271 0.000000 -11.800975 18.016673 0.000000 6.937252 11.195243 0.000000 -28.487819 21.260883 0.000000 -6.173933 22.912105 0.000000 -22.631046 -16.513859 0.000000 
-10.715729 -4.710395 0.000000 -56.410004 18.249017 0.000000 -34.304454 -36.136242 0.000000 -35.516591 40.536332 0.000000 11.875020 17.139343 0.000000 -29.599736 -28.230385 0.000000 -0.283470 30.023370 0.000000 10.232107 -32.589639 0.000000 7.404576 -16.932777 0.000000 6.477741 11.435540 0.000000 7.986665 15.526326 0.000000 -11.472460 -14.183769 0.000000 -14.244198 -41.237814 0.000000 -22.095644 0.798825 0.000000 -23.556616 -14.505738 0.000000 -10.130100 7.134427 0.000000 -27.673012 8.558080 0.000000 10.797556 15.904749 0.000000 7.776134 32.749912 0.000000 16.041580 9.819035 0.000000 4.532193 -0.849440 0.000000 2.463874 22.783410 0.000000 34.101538 4.540939 0.000000 22.898701 -0.417459 0.000000 10.529622 2.015023 0.000000 21.624868 1.672316 0.000000 29.424557 -23.780721 0.000000 39.601383 -25.779971 0.000000 -0.058376 -4.893211 0.000000 49.793005 20.970131 0.000000 -23.036775 24.803189 0.000000 32.963138 3.618547 0.000000 -25.563330 25.778681 0.000000 -20.314650 -45.723398 0.000000 -0.783242 -23.920011 0.000000 -52.595674 -38.629644 0.000000 10.972302 -11.284939 0.000000 -34.722381 12.731843 0.000000 -7.697356 -4.970395 0.000000 -3.889201 42.610962 0.000000 14.247291 -1.396560 0.000000 -0.037219 10.384384 0.000000 8.474826 23.142199 0.000000 -13.284762 11.063375 0.000000 17.302769 4.681233 0.000000 -6.476017 -5.598159 0.000000 -0.500992 5.619271 0.000000 9.403057 2.774993 0.000000 2.643045 -3.479071 0.000000 -14.269628 11.846483 0.000000 35.326234 0.883517 0.000000 -18.728215 25.552387 0.000000 25.580086 -22.677584 0.000000 -1.496382 26.150364 0.000000 4.490221 33.131004 0.000000 33.219894 -17.598683 0.000000 17.619606 -18.749125 0.000000 19.026774 6.247866 0.000000 33.016243 -14.081529 0.000000 17.583216 -16.053896 0.000000 24.354583 -14.283072 0.000000 11.581479 -34.590444 0.000000 62.654643 -10.467897 0.000000 -44.094044 -45.508324 0.000000 
67.591657 9.356200 0.000000 155.876827 13.652496 0.000000 47.291117 -2.782528 0.000000 20.231681 -57.203598 0.000000 2.249574 -9.554470 0.000000 36.829784 17.626259 0.000000 -17.150484 -33.981406 0.000000 -47.870472 9.901666 0.000000 0.679468 38.713138 0.000000 -75.642092 -10.534896 0.000000 -17.134550 -8.412878 0.000000 33.115356 39.090962 0.000000 -12.909089 34.630809 0.000000 61.071425 5.573781 0.000000 15.570902 17.695760 0.000000 53.497271 -19.843726 0.000000 0.662029 -27.507961 0.000000 -3.440230 -31.761462 0.000000 -5.755550 -21.206257 0.000000 -1.671637 -11.905437 0.000000 -14.504979 -11.275504 0.000000 -25.122073 -38.253144 0.000000 -28.758205 -29.393482 0.000000 -45.347395 16.721758 0.000000 -30.552708 5.736189 0.000000 -61.554153 0.445501 0.000000 -17.429937 -1.206794 0.000000 -97.644962 38.856519 0.000000 -17.190656 11.249700 0.000000 -51.498464 -5.942111 0.000000 27.795471 -19.899189 0.000000 2.056566 3.198173 0.000000 45.838741 25.660579 0.000000 67.637445 9.398199 0.000000 52.280837 55.438066 0.000000 56.842408 6.713911 0.000000 59.498817 16.637867 0.000000 61.906299 3.013759 0.000000 27.571482 -39.487292 0.000000 25.342097 -19.309224 0.000000 28.347138 -20.933200 0.000000 -2.099484 -0.764596 0.000000 8.032628 -3.703227 0.000000 2.576213 -15.366002 0.000000 8.437184 -5.627754 0.000000 -2.637844 -1.155094 0.000000 -7.669035 -12.063872 0.000000 0.952006 -0.753256 0.000000 -12.710047 -4.111789 0.000000 -10.583235 -11.165346 0.000000 -15.084099 -18.207500 0.000000 -23.913158 0.673820 0.000000 -19.967112 -15.278338 0.000000 -39.432273 7.966399 0.000000 -57.011183 -46.143844 0.000000 1.999103 10.750911 0.000000 -66.907223 14.623109 0.000000 -31.505186 -0.917627 0.000000 -67.220878 14.008829 0.000000 -38.543398 26.678333 0.000000 -81.367085 17.196979 0.000000 -49.172589 -17.039177 0.000000 -27.940905 78.587628 0.000000 64.021676 56.856513 0.000000 
-12.291931 -96.565546 0.000000 92.597267 38.549557 0.000000 77.610709 99.508904 0.000000 40.519113 85.577876 0.000000 -0.859829 0.541240 0.000000 27.677592 -8.830327 0.000000 96.862935 114.723627 0.000000 -31.183986 -50.419590 0.000000 56.972131 10.838843 0.000000 -14.640980 29.249559 0.000000 -41.464845 -93.231122 0.000000 -40.562975 -18.409231 0.000000 66.141863 -69.193883 0.000000 14.713758 -27.681167 0.000000 116.793638 -6.931584 0.000000 -40.740213 22.043300 0.000000 16.462904 65.495580 0.000000 -38.321006 22.322327 0.000000 -49.100472 30.981320 0.000000 -30.326611 18.568464 0.000000 -31.436649 22.600995 0.000000 -87.477323 37.036636 0.000000 -92.211015 24.766261 0.000000 -151.310401 1.377044 0.000000 -95.930815 18.221780 0.000000 -123.437635 -11.450455 0.000000 -88.211662 12.310087 0.000000 -103.507475 -26.019252 0.000000 -26.514377 -51.039709 0.000000 -43.144751 -24.015996 0.000000 -4.809899 -28.751841 0.000000 69.713630 -14.424724 0.000000 -9.522641 -39.802198 0.000000 26.204998 -52.165494 0.000000 65.203355 -13.124974 0.000000 84.964308 -45.847624 0.000000 112.813039 -16.348831 0.000000 112.182938 44.659179 0.000000 77.214677 31.593806 0.000000 23.763319 41.835305 0.000000 28.966201 26.045021 0.000000 12.905917 30.698893 0.000000 15.459932 18.466503 0.000000 8.527995 10.658819 0.000000 -1.555598 9.895290 0.000000 0.621217 10.508060 0.000000 -6.026020 2.029421 0.000000 -6.456322 7.816005 0.000000 -9.227195 8.056170 0.000000 -4.402440 14.220535 0.000000 -19.789490 14.213440 0.000000 -0.209028 30.435400 0.000000 25.938425 -7.158469 0.000000 -0.357550 63.194436 0.000000 -16.358872 -8.300372 0.000000 -133.776269 -7.702643 0.000000 -81.590128 14.755163 0.000000 -20.592792 6.561521 0.000000 -140.833779 -7.043317 0.000000 -46.491420 -1.907689 0.000000 -100.960245 -3.653881 0.000000 -42.934635 -88.016624 0.000000 -4.770281 -123.662162 0.000000 -14.966271 -141.040886 0.000000 
-159.636577 -98.207338 0.000000 -96.609371 -76.250144 0.000000 -22.784729 49.295626 0.000000 -53.890786 21.266940 0.000000 30.714339 3.287050 0.000000 -45.281891 -80.096505 0.000000 132.161843 24.880171 0.000000 -52.736241 49.792470 0.000000 19.923838 22.170133 0.000000 103.481277 87.902081 0.000000 101.541723 17.509116 0.000000 -32.829506 -68.515746 0.000000 38.557720 -20.645924 0.000000 9.073663 -45.077994 0.000000 -6.248801 73.149732 0.000000 17.587454 80.487007 0.000000 -32.115746 -29.927168 0.000000 0.820840 33.801914 0.000000 6.154480 -29.200653 0.000000 -21.986793 -29.569260 0.000000 -43.438425 45.875208 0.000000 -49.236630 22.521222 0.000000 -54.267291 34.439597 0.000000 -57.916830 20.441558 0.000000 -80.187909 -22.136578 0.000000 -63.522529 -7.273652 0.000000 -75.905883 -21.136954 0.000000 -60.612292 -22.840766 0.000000 -111.626536 -49.113024 0.000000 -97.885644 -27.646589 0.000000 -114.869402 -132.757570 0.000000 -66.330056 7.910915 0.000000 -82.028311 69.169211 0.000000 -38.717736 -65.327796 0.000000 -31.246968 -3.321244 0.000000 -9.921808 -40.895774 0.000000 -31.166638 -10.580763 0.000000 -4.748216 38.612122 0.000000 -16.284897 48.932326 0.000000 -4.020632 28.939252 0.000000 -10.275340 -10.075797 0.000000 -12.739396 12.741673 0.000000 -4.054811 0.674694 0.000000 -7.313753 1.649528 0.000000 -8.334916 2.279025 0.000000 -6.127553 3.315327 0.000000 -8.801617 -4.986334 0.000000 -4.249644 2.447919 0.000000 -7.610853 -6.165670 0.000000 -4.536873 -0.603052 0.000000 2.867435 -22.400912 0.000000 -20.351575 -45.054094 0.000000 -55.979754 -15.129816 0.000000 -31.762105 50.263696 0.000000 -35.136013 87.274876 0.000000 -9.756940 75.982167 0.000000 -2.022844 -98.560368 0.000000 -87.446912 58.326024 0.000000 -105.273927 39.907457 0.000000 -0.361395 -13.195201 0.000000 -119.242136 13.640194 0.000000 124.301825 -113.229141 0.000000 -143.910525 50.619264 0.000000 20.350062 64.378163 0.000000 
-135.743157 20.393887 0.000000 2.086281 -98.302291 0.000000 -147.725128 56.790319 0.000000 45.210741 32.078808 0.000000 18.338295 -8.067655 0.000000 44.566961 -110.277832 0.000000 -92.401145 122.177977 0.000000 78.403125 61.818415 0.000000 45.008479 -145.378676 0.000000 155.635181 -52.368326 0.000000 127.129417 43.079661 0.000000 1.726444 44.574772 0.000000 51.952505 -111.097052 0.000000 13.394365 17.125354 0.000000 13.770306 -15.445374 0.000000 72.752546 47.910245 0.000000 53.192212 82.262193 0.000000 2.771100 -15.947898 0.000000 0.514739 53.788953 0.000000 -24.702369 68.161369 0.000000 33.929688 49.850832 0.000000 -0.581120 47.865502 0.000000 -4.937343 33.446461 0.000000 -1.401461 27.297662 0.000000 -36.207069 23.827479 0.000000 -2.952051 -15.732481 0.000000 -7.513750 9.399851 0.000000 -19.665634 9.701401 0.000000 -32.038693 -13.766357 0.000000 -45.627584 -20.773130 0.000000 -9.014107 -60.307428 0.000000 -146.818648 -47.265815 0.000000 -83.203398 -67.414518 0.000000 -2.708686 -102.946837 0.000000 -46.160628 -41.920901 0.000000 -3.008112 -45.927954 0.000000 -38.839053 -21.522423 0.000000 -23.782489 29.777438 0.000000 17.337970 30.866222 0.000000 12.567656 35.825749 0.000000 3.425559 34.763786 0.000000 -0.644533 24.478364 0.000000 -0.188923 13.040860 0.000000 -0.268437 14.938924 0.000000 1.474620 8.709090 0.000000 -3.183695 10.974762 0.000000 -3.117783 0.151512 0.000000 -8.651085 6.625241 0.000000 1.650715 8.343398 0.000000 -17.515885 3.742247 0.000000 -26.730932 30.028141 0.000000 -50.519480 89.282589 0.000000 -72.524890 4.252061 0.000000 -31.793245 42.350695 0.000000 13.039565 -30.305536 0.000000 0.387991 -40.815812 0.000000 -77.985829 92.445135 0.000000 -195.409533 109.812603 0.000000 -88.983187 -94.128833 0.000000 -11.048175 12.060520 0.000000 -87.209903 -128.317101 0.000000 184.505318 -63.348235 0.000000 -44.396638 -19.710399 0.000000 132.065199 -125.314834 0.000000 
-70.614065 31.771580 0.000000 -4.539833 -64.268173 0.000000 29.025775 6.171167 0.000000 11.521496 -144.796483 0.000000 -16.444881 3.930830 0.000000 -15.326308 30.642935 0.000000 -163.610834 -8.955993 0.000000 4.550796 -87.617154 0.000000 -6.505971 -55.061923 0.000000 -167.512913 5.781142 0.000000 47.768077 171.417854 0.000000 -56.290384 6.661167 0.000000 54.549241 -32.313845 0.000000 -80.688879 -6.895795 0.000000 22.515619 13.791550 0.000000 -133.249682 41.065102 0.000000 29.660488 40.054278 0.000000 -23.122480 86.479386 0.000000 -45.026860 -1.727184 0.000000 53.600494 -62.984208 0.000000 -56.711598 21.753959 0.000000 9.577008 61.388252 0.000000 42.960170 35.259938 0.000000 -49.615848 51.711285 0.000000 17.860040 -20.585988 0.000000 32.886961 -35.966971 0.000000 72.554433 -4.423372 0.000000 -38.253958 1.684177 0.000000 -5.195545 -23.151073 0.000000 -45.538352 -50.671175 0.000000 112.907207 -31.566506 0.000000 113.527596 82.100206 0.000000 154.160369 -74.940751 0.000000 22.270985 -102.370566 0.000000 -26.468052 -3.021818 0.000000 -3.077432 -48.217349 0.000000 -44.172330 10.193614 0.000000 -38.362229 -17.564901 0.000000 -37.710476 12.582181 0.000000 -43.141607 42.851662 0.000000 -10.741010 3.136392 0.000000 -10.126882 16.356155 0.000000 -4.999541 0.298598 0.000000 2.834626 -0.014015 0.000000 -6.174740 5.194283 0.000000 -19.932003 7.907730 0.000000 -11.574980 0.481056 0.000000 -5.817754 -2.320580 0.000000 -38.436387 2.699130 0.000000 -35.196602 27.778596 0.000000 -19.299068 10.602684 0.000000 -20.372840 0.739864 0.000000 39.862646 -33.856052 0.000000 -58.444489 -35.300759 0.000000 139.233028 55.093640 0.000000 -93.786780 167.007561 0.000000 -25.607304 97.237155 0.000000 49.859870 69.323382 0.000000 49.116701 -144.453902 0.000000 -61.817435 -14.968486 0.000000 61.342184 -181.913299 0.000000 -38.782319 -156.042406 0.000000 -56.814243 103.059384 0.000000 -163.683122 155.724682 0.000000 
-51.049370 -138.749402 0.000000 142.364563 -197.942131 0.000000 160.438108 40.728990 0.000000 172.719018 77.549464 0.000000 3.498583 18.780148 0.000000 169.662135 36.888121 0.000000 12.450450 102.300874 0.000000 114.623861 -95.286447 0.000000 -86.732510 26.685033 0.000000 79.278736 -106.642374 0.000000 -63.793899 -68.142868 0.000000 162.374627 37.793607 0.000000 -77.013864 -86.698557 0.000000 23.274974 49.158977 0.000000 -47.399197 37.115429 0.000000 3.756777 40.765376 0.000000 -59.210254 -27.865008 0.000000 -17.331106 58.739450 0.000000 19.894311 -22.934022 0.000000 -80.204587 79.846107 0.000000 -31.947062 93.874318 0.000000 -44.045255 -51.806266 0.000000 -32.888327 92.639317 0.000000 62.008205 52.397792 0.000000 -41.046741 -58.675330 0.000000 13.848253 -70.426875 0.000000 59.803607 80.540770 0.000000 82.123946 87.451380 0.000000 46.476750 -6.481963 0.000000 -15.247847 -138.875883 0.000000 40.097329 -219.373376 0.000000 37.717590 -88.518977 0.000000 60.460552 23.842093 0.000000 -29.395400 77.681584 0.000000 5.315806 -16.572484 0.000000 -4.881238 -28.223676 0.000000 1.083059 13.762374 0.000000 -20.849469 23.315584 0.000000 4.742421 35.645600 0.000000 30.980356 8.856283 0.000000 -16.733433 1.749062 0.000000 -9.580255 18.736894 0.000000 -6.584883 0.079351 0.000000 -11.047220 16.114123 0.000000 0.232240 31.475720 0.000000 -6.898870 16.375002 0.000000 -9.473789 -13.962738 0.000000 -11.536708 33.486648 0.000000 -6.943174 37.722247 0.000000 -12.570225 -15.395072 0.000000 39.454958 15.204379 0.000000 16.081473 30.120875 0.000000 11.493947 42.323711 0.000000 25.679723 -57.019687 0.000000 -13.639680 5.036754 0.000000 -9.496794 124.024520 0.000000 -7.420278 -51.201515 0.000000 117.277300 35.088598 0.000000 -56.252503 17.548472 0.000000 -33.598579 -0.164964 0.000000 -109.396182 -151.352217 0.000000 -159.141155 54.808193 0.000000 -161.459572 105.190404 0.000000 -20.840195 -111.515013 0.000000 
-6.199015 -131.433179 0.000000 3.262177 -275.755650 0.000000 -30.748761 -24.183288 0.000000 41.939741 12.143041 0.000000 -8.828029 6.987713 0.000000 44.772708 21.691068 0.000000 140.048531 46.082281 0.000000 98.984797 11.565806 0.000000 134.528406 -19.716798 0.000000 163.247088 -17.157469 0.000000 -17.360572 88.321963 0.000000 -13.369566 19.881133 0.000000 8.708538 106.785808 0.000000 52.264075 -36.510462 0.000000 -60.904647 33.309747 0.000000 82.625333 52.876159 0.000000 -34.833883 61.142162 0.000000 24.975063 7.374821 0.000000 -40.831037 61.146296 0.000000 -98.031578 -11.142835 0.000000 59.213612 -14.405372 0.000000 -92.585297 62.329517 0.000000 151.732106 -70.793522 0.000000 152.915788 59.869699 0.000000 73.152380 27.573964 0.000000 54.333033 -136.817319 0.000000 71.575479 -72.699065 0.000000 192.256481 15.011034 0.000000 207.198833 74.220720 0.000000 140.679429 -44.291754 0.000000 63.519395 -84.531944 0.000000 15.973320 61.736984 0.000000 47.161760 -7.827761 0.000000 19.558207 -47.225821 0.000000 41.538451 -27.535980 0.000000 -53.629525 -43.984602 0.000000 -53.374399 26.161846 0.000000 -9.829072 -21.224263 0.000000 -40.563064 -39.247644 0.000000 -1.799949 64.327516 0.000000 9.969964 43.697003 0.000000 5.823332 6.207605 0.000000 -10.200338 1.765564 0.000000 6.894681 -6.831138 0.000000 25.411835 1.045933 0.000000 0.489618 17.613759 0.000000 -18.983466 5.118895 0.000000 14.680239 -4.851195 0.000000 -7.277557 3.732646 0.000000 33.201701 -18.619536 0.000000 -3.551486 -18.049014 0.000000 -14.609456 28.700875 0.000000 -1.618509 -43.454302 0.000000 -32.935158 -10.167132 0.000000 -116.730337 90.270157 0.000000 -47.775123 160.788158 0.000000 10.592940 -29.536939 0.000000 -116.225387 118.155608 0.000000 118.536838 6.421978 0.000000 61.253186 38.175193 0.000000 62.385954 -56.370723 0.000000 127.991072 -103.979017 0.000000 -23.931082 -35.241576 0.000000 34.137143 45.314480 0.000000 
296.342976 -107.874436 0.000000 36.810390 -173.392386 0.000000 140.744016 2.051426 0.000000 -60.410316 55.628732 0.000000 2.957437 15.947181 0.000000 -45.463619 -111.988439 0.000000 123.165601 48.088785 0.000000 -16.376582 -89.766323 0.000000 189.289244 -37.577257 0.000000 49.327642 45.246605 0.000000 36.009254 108.473786 0.000000 -108.719275 11.724497 0.000000 117.620052 -152.332198 0.000000 27.613142 118.772162 0.000000 -41.767843 6.754170 0.000000 -24.302716 14.694612 0.000000 11.783352 29.785262 0.000000 74.880923 64.736603 0.000000 25.949903 100.072619 0.000000 57.179034 -20.198542 0.000000 -72.491757 88.428038 0.000000 26.996114 -144.324760 0.000000 69.693145 -152.861768 0.000000 36.230635 130.977517 0.000000 98.061049 39.907425 0.000000 102.257963 -68.849974 0.000000 39.200958 -57.382678 0.000000 77.404088 -48.171975 0.000000 53.947000 45.095088 0.000000 160.739901 4.803556 0.000000 50.679412 -94.667267 0.000000 101.409770 -72.161343 0.000000 90.513369 20.257206 0.000000 34.789808 83.304894 0.000000 181.832128 56.615248 0.000000 48.714533 66.689174 0.000000 95.980000 -30.038079 0.000000 21.030819 10.504249 0.000000 -17.508889 27.616476 0.000000 -44.528474 -41.676745 0.000000 -30.819544 -5.874220 0.000000 -37.743096 38.907196 0.000000 -4.510320 -0.991998 0.000000 -54.119060 -19.498050 0.000000 -29.881999 37.880783 0.000000 -90.211132 60.770303 0.000000 -13.791858 -28.153359 0.000000 -38.527575 21.780739 0.000000 -17.833064 19.200784 0.000000 8.943689 -19.121143 0.000000 -10.900288 63.015537 0.000000 -40.139501 28.187898 0.000000 26.327104 60.649413 0.000000 -56.785624 58.092141 0.000000 -23.580507 19.876720 0.000000 26.980906 -3.298757 0.000000 100.941255 17.248749 0.000000 -20.539429 -72.855300 0.000000 72.303208 -159.930101 0.000000 -53.843241 55.985921 0.000000 103.420606 -218.090103 0.000000 22.346732 141.125229 0.000000 110.022006 199.044333 0.000000 4.842216 -129.247080 0.000000 
34.368829 -163.401352 0.000000 21.633429 -120.156690 0.000000 -19.581629 73.037418 0.000000 -21.121170 149.929620 0.000000 2.430063 -7.958983 0.000000 9.234209 -98.517096 0.000000 -69.484811 16.995243 0.000000 74.985243 -54.557837 0.000000 96.923930 -85.421021 0.000000 -7.119255 136.122521 0.000000 3.732217 246.368879 0.000000 151.486718 -61.729665 0.000000 -179.189896 -29.546609 0.000000 -188.059334 122.877433 0.000000 -21.094914 85.225605 0.000000 -188.357974 -0.675036 0.000000 95.603288 -38.041478 0.000000 -82.994678 -6.791730 0.000000 17.023312 78.848185 0.000000 -20.831456 87.298825 0.000000 25.923349 15.777548 0.000000 32.972049 -79.855385 0.000000 -16.982223 -80.028043 0.000000 -62.076905 31.501795 0.000000 109.995977 -38.453364 0.000000 69.716869 -77.957228 0.000000 124.447516 -47.845189 0.000000 25.185403 0.264992 0.000000 81.342133 -9.115094 0.000000 116.359621 -41.024166 0.000000 86.490266 -25.201812 0.000000 -21.657369 21.903026 0.000000 -21.672697 58.792201 0.000000 107.755372 -138.544580 0.000000 68.970779 -41.460705 0.000000 162.361556 41.867526 0.000000 41.056200 53.845560 0.000000 118.104052 92.264627 0.000000 13.662983 26.311648 0.000000 29.897849 77.638171 0.000000 17.442003 36.911625 0.000000 -24.555257 -20.101619 0.000000 -0.788006 18.141528 0.000000 -7.784362 18.540541 0.000000 52.114174 37.138005 0.000000 22.156195 1.523618 0.000000 -49.100666 -46.564663 0.000000 4.947236 -0.809989 0.000000 16.067651 -43.738618 0.000000 -27.711941 -25.552313 0.000000 -118.832711 31.034176 0.000000 -104.956136 -8.526516 0.000000 -144.673656 -26.808179 0.000000 -37.737883 39.740479 0.000000 -103.580014 6.503628 0.000000 218.449115 36.266396 0.000000 -135.262530 17.983396 0.000000 141.993048 146.793655 0.000000 -213.122000 39.725789 0.000000 -77.913146 7.057796 0.000000 -75.381134 -132.560695 0.000000 -141.694527 -110.580417 0.000000 81.224476 -17.737060 0.000000 88.328257 -141.006490 0.000000 
-29.044910 -41.179608 0.000000 -68.918353 -119.441927 0.000000 -174.908988 44.806025 0.000000 -102.413232 33.617040 0.000000 -0.665524 -14.408198 0.000000 -104.487088 -40.073565 0.000000 -105.942128 -17.662249 0.000000 85.260841 -256.175063 0.000000 -12.065530 44.527240 0.000000 -88.534258 138.438317 0.000000 -16.517223 -50.132187 0.000000 128.032000 194.646611 0.000000 -82.529363 187.213853 0.000000 -6.152429 -39.322820 0.000000 -53.106730 7.052811 0.000000 110.796808 -102.003590 0.000000 -113.478117 -75.578034 0.000000 18.608384 143.316579 0.000000 54.746115 37.909397 0.000000 10.203785 -29.098579 0.000000 5.047320 34.624533 0.000000 24.493960 -101.419188 0.000000 21.938585 -57.812815 0.000000 -13.868477 3.999318 0.000000 21.244789 -91.886348 0.000000 80.311734 -83.301514 0.000000 57.550662 -12.851212 0.000000 -24.481725 -5.066591 0.000000 7.932391 -46.079130 0.000000 -4.939901 -0.344577 0.000000 17.341581 43.349722 0.000000 -43.889126 36.001621 0.000000 -23.912509 -109.155535 0.000000 15.520317 -7.338583 0.000000 -40.132251 2.009064 0.000000 -15.003786 94.603754 0.000000 -99.429417 14.219425 0.000000 -18.641719 37.897466 0.000000 -4.002268 115.822679 0.000000 -79.830655 -45.455765 0.000000 54.807994 48.578887 0.000000 -3.007538 57.137204 0.000000 55.013111 -17.762893 0.000000 41.898096 -72.400230 0.000000 29.435394 7.940226 0.000000 83.234790 161.985143 0.000000 -61.462236 -10.944400 0.000000 78.684723 -43.387578 0.000000 -38.163094 51.859961 0.000000 2.077139 115.779218 0.000000 40.429502 140.259731 0.000000 82.632169 54.028843 0.000000 27.522150 -6.568840 0.000000 -0.753750 16.998500 0.000000 -3.049743 -236.310279 0.000000 -77.269781 28.383759 0.000000 101.558342 93.704815 0.000000 -108.208427 5.004170 0.000000 -12.389240 59.976093 0.000000 -12.145111 -81.754945 0.000000 64.346473 -154.308722 0.000000 -155.189072 -15.480381 0.000000 135.522297 -30.978452 0.000000 130.503841 -82.391433 0.000000 
141.426363 36.020842 0.000000 57.868807 25.707388 0.000000 -79.341189 106.532297 0.000000 111.622802 -24.313843 0.000000 12.771434 -5.885128 0.000000 110.037836 6.759508 0.000000 89.417955 -172.752685 0.000000 90.594514 -148.434434 0.000000 -210.756138 88.374078 0.000000 58.223820 140.574213 0.000000 -51.854938 29.802621 0.000000 -100.384011 4.282476 0.000000 70.653950 104.637820 0.000000 -5.555038 93.454800 0.000000 123.868630 -31.723632 0.000000 46.578944 59.696350 0.000000 -44.799991 54.146947 0.000000 -13.737907 -175.015962 0.000000 45.259804 87.252784 0.000000 -34.229857 136.997620 0.000000 27.587255 1.487372 0.000000 49.034611 -96.746650 0.000000 17.131044 -41.665607 0.000000 24.098577 32.195591 0.000000 -46.403850 -132.633575 0.000000 23.038091 -114.263101 0.000000 -92.050698 56.948271 0.000000 29.688095 49.883263 0.000000 -48.350241 -28.656917 0.000000 -12.767092 -50.433356 0.000000 -111.687053 13.747412 0.000000 22.282634 63.157116 0.000000 -87.526180 -0.617242 0.000000 -61.724293 -122.324838 0.000000 -93.630927 -10.936602 0.000000 -120.173000 101.164692 0.000000 24.029020 57.483493 0.000000 -186.743116 -3.162522 0.000000 43.296224 87.500584 0.000000 -75.083089 18.827909 0.000000 -0.125494 -39.911492 0.000000 -107.251909 -20.306735 0.000000 44.290710 -26.764106 0.000000 35.541948 44.118257 0.000000 -83.319243 -4.198690 0.000000 -46.594016 92.421249 0.000000 60.455472 -42.014596 0.000000 -61.539235 -24.109131 0.000000 3.526255 32.868966 0.000000 0.641336 -104.144909 0.000000 74.919352 -49.520854 0.000000 -43.724299 4.380836 0.000000 216.258754 56.577740 0.000000 -26.043828 70.312372 0.000000 33.623098 83.019660 0.000000 -148.434304 -68.341689 0.000000 26.326942 48.922041 0.000000 13.403318 260.741237 0.000000 -55.010473 -56.337527 0.000000 -3.190896 -69.677917 0.000000 7.426196 10.483266 0.000000 2.842326 -181.756241 0.000000 -42.704975 -303.429974 0.000000 -43.831276 23.560717 0.000000 
-50.947243 -142.879691 0.000000 92.197790 101.325625 0.000000 -159.415345 -8.947970 0.000000 78.973547 -58.495583 0.000000 -19.720827 -12.823232 0.000000 68.852652 -116.720087 0.000000 -20.067540 1.781073 0.000000 -61.906418 43.999030 0.000000 -147.915339 76.897935 0.000000 -6.497190 -20.462883 0.000000 -72.146327 108.475644 0.000000 -32.379694 72.137722 0.000000 -150.953351 92.384879 0.000000 54.749076 -92.537500 0.000000 -76.476391 -45.081172 0.000000 -137.434885 66.665032 0.000000 0.365325 -15.261183 0.000000 -2.795816 53.256785 0.000000 -128.217063 58.401347 0.000000 -12.268392 -11.426030 0.000000 -0.689067 -48.639935 0.000000 -34.785657 -90.962976 0.000000 -151.143079 -32.876781 0.000000 -72.891434 67.534212 0.000000 -67.145540 -90.825863 0.000000 -64.822611 -37.654665 0.000000 -102.200603 -19.501216 0.000000 -1.317158 -48.767049 0.000000 -82.664158 -3.623943 0.000000 -42.721143 62.992235 0.000000 -97.054768 8.299996 0.000000 -38.788321 11.840748 0.000000 -18.205652 -25.148607 0.000000 -20.194889 -1.233836 0.000000 -83.690329 60.457771 0.000000 -121.751825 -23.056193 0.000000 -46.755956 80.789541 0.000000 -48.965946 18.630261 0.000000 -120.419638 4.162652 0.000000 -41.643572 -2.034047 0.000000 -41.816798 80.747707 0.000000 -135.146504 12.721001 0.000000 5.643759 -160.556751 0.000000 23.970111 55.209723 0.000000 66.692239 90.076191 0.000000 9.155248 18.210428 0.000000 68.666161 4.000819 0.000000 -92.268434 13.541638 0.000000 119.371950 -10.320609 0.000000 10.548385 44.386121 0.000000 -32.676348 184.625366 0.000000 -47.927963 -87.310558 0.000000 -69.734792 -24.249311 0.000000 -75.792532 199.634156 0.000000 28.576694 -113.919803 0.000000 -29.760568 35.679914 0.000000 -89.023512 -68.132807 0.000000 57.436569 86.341585 0.000000 13.549939 76.570307 0.000000 -89.054549 -144.191614 0.000000 20.979215 -160.341943 0.000000 98.431477 34.650789 0.000000 -57.701615 15.695150 0.000000 -66.650939 -266.522771 0.000000 
-81.608076 -122.827887 0.000000 -46.071529 134.175489 0.000000 28.940528 119.756540 0.000000 -31.564672 -164.008361 0.000000 -9.072757 4.235767 0.000000 -52.551434 7.106220 0.000000 -124.038398 -41.993615 0.000000 42.575422 -20.586635 0.000000 -78.965059 32.964851 0.000000 -58.271810 64.805200 0.000000 -70.632132 55.685124 0.000000 78.309192 83.089501 0.000000 -15.277011 17.509050 0.000000 92.391714 18.977840 0.000000 -84.403885 160.460329 0.000000 104.792249 -17.145366 0.000000 -38.815681 -80.492122 0.000000 37.918282 -46.433574 0.000000 18.874841 96.725360 0.000000 13.340199 9.469624 0.000000 20.898224 24.004637 0.000000 5.870453 53.707362 0.000000 -112.599572 -3.559830 0.000000 -101.822507 -51.801948 0.000000 -117.535361 -140.702398 0.000000 -110.133837 -79.208038 0.000000 -66.245594 -6.557182 0.000000 -143.645344 30.346818 0.000000 -186.535254 12.747067 0.000000 -138.037635 -36.042745 0.000000 -95.049483 9.814591 0.000000 -125.134102 -15.692000 0.000000 -34.105592 -19.210675 0.000000 -44.630128 -56.840161 0.000000 20.678994 90.620334 0.000000 -77.295941 64.230319 0.000000 -60.327307 -15.302386 0.000000 -31.081027 70.501160 0.000000 -93.429574 80.178211 0.000000 6.902103 -59.774932 0.000000 -75.524921 53.591439 0.000000 -26.934604 -67.767292 0.000000 -7.761452 -185.880721 0.000000 -25.698773 -16.930223 0.000000 -9.410796 10.616174 0.000000 -159.729955 90.447327 0.000000 36.961615 59.409086 0.000000 -27.135687 -74.814920 0.000000 18.568604 -69.947853 0.000000 -70.439639 47.903389 0.000000 -2.662521 8.955495 0.000000 -50.634378 41.439280 0.000000 -14.721497 84.442309 0.000000 -55.825702 -27.999113 0.000000 75.923908 36.987695 0.000000 1.689207 49.258517 0.000000 -86.609050 -38.275096 0.000000 -88.385983 158.167786 0.000000 198.031547 90.153592 0.000000 47.300532 -77.107193 0.000000 -52.325385 -177.002761 0.000000 -12.387275 -103.075412 0.000000 66.127518 -138.347557 0.000000 -26.166015 16.806346 0.000000 