# vtk DataFile Version 2.0
Comment goes here
ASCII

DATASET STRUCTURED_POINTS
FIELD FieldData 1
TIME 1 1 double
0.04500000
DIMENSIONS    64   64   1

ORIGIN    0.000   0.000   0.000
SPACING   0.03125 0.03125   1.000

POINT_DATA   4096
SCALARS uX double
LOOKUP_TABLE default

7.269664e-01 -1.264673e+00 4.045699e-01 -1.163853e+00 1.987417e-01 -1.098628e+00 2.986227e-01 -1.045763e+00 3.440453e-01 -9.778717e-01 3.174294e-01 -8.626794e-01 2.256749e-01 -7.100415e-01 9.601080e-02 -5.442363e-01 -4.341542e-02 -3.846710e-01 -1.717943e-01 -2.493102e-01 -2.705547e-01 -1.458954e-01 -3.412246e-01 -6.790803e-02 -3.930958e-01 -6.064348e-03 -4.371468e-01 6.101397e-02 -5.036531e-01 1.590409e-01 -6.053403e-01 2.782315e-01 -7.174500e-01 3.972495e-01 -8.314456e-01 5.109990e-01 -9.353638e-01 5.950514e-01 -9.961274e-01 6.224626e-01 -9.948962e-01 5.853279e-01 -9.387542e-01 4.960971e-01 -8.354984e-01 3.716172e-01 -7.145246e-01 2.445175e-01 -6.022958e-01 1.287126e-01 -5.019665e-01 1.618068e-02 -4.004470e-01 -1.160073e-01 -2.651594e-01 -3.026927e-01 -7.785094e-02 -5.391255e-01 1.320374e-01 -7.883159e-01 3.278945e-01 -1.019745e+00 4.878629e-01 -1.236776e+00 
-6.123250e-01 3.406010e-01 -2.134286e-01 2.609545e-01 1.832932e-02 2.253876e-01 -1.673325e-01 1.882312e-01 -2.801544e-01 1.538348e-01 -3.281477e-01 9.639322e-02 -3.256183e-01 2.023345e-02 -2.945255e-01 -6.239062e-02 -2.511574e-01 -1.442088e-01 -2.074229e-01 -2.162607e-01 -1.753383e-01 -2.724455e-01 -1.525449e-01 -3.180702e-01 -1.371993e-01 -3.542281e-01 -1.285911e-01 -3.897341e-01 -1.064909e-01 -4.407071e-01 -6.443111e-02 -5.013602e-01 -1.707384e-02 -5.585007e-01 3.317543e-02 -6.131554e-01 8.315303e-02 -6.525601e-01 1.136506e-01 -6.598677e-01 1.103985e-01 -6.328791e-01 8.049793e-02 -5.791684e-01 2.754999e-02 -5.088454e-01 -3.104534e-02 -4.382463e-01 -8.320388e-02 -3.747063e-01 -1.258217e-01 -3.139319e-01 -1.633348e-01 -2.448178e-01 -2.128999e-01 -1.465428e-01 -2.848913e-01 -2.287196e-02 -3.600250e-01 1.062531e-01 -4.178153e-01 2.253274e-01 -4.483646e-01 3.488849e-01 
8.184017e-01 5.847568e-01 8.606600e-01 5.050467e-01 6.359558e-01 4.415698e-01 1.007989e+00 4.532092e-01 1.247980e+00 4.232592e-01 1.453081e+00 3.487390e-01 1.651880e+00 2.463977e-01 1.842913e+00 1.374465e-01 2.017615e+00 3.764278e-02 2.169460e+00 -4.048562e-02 2.288201e+00 -9.350257e-02 2.376339e+00 -1.272629e-01 2.444864e+00 -1.430115e-01 2.497837e+00 -1.603011e-01 2.558275e+00 -2.015442e-01 2.637917e+00 -2.592267e-01 2.717242e+00 -3.205093e-01 2.792201e+00 -3.872126e-01 2.857355e+00 -4.442102e-01 2.888789e+00 -4.670564e-01 2.875050e+00 -4.483681e-01 2.823437e+00 -3.969245e-01 2.736676e+00 -3.205899e-01 2.636224e+00 -2.442547e-01 2.538451e+00 -1.774458e-01 2.443230e+00 -1.164448e-01 2.339245e+00 -4.629206e-02 2.199079e+00 6.012596e-02 2.004666e+00 1.987177e-01 1.774796e+00 3.414618e-01 1.529050e+00 4.727740e-01 1.267241e+00 6.146425e-01 
2.712460e+00 -5.894258e-02 1.861844e+00 -9.593517e-02 8.970600e-01 -5.849591e-02 1.993887e+00 -4.295162e-02 2.640448e+00 -2.796789e-02 3.068546e+00 2.057219e-03 3.368429e+00 4.220866e-02 3.590102e+00 8.405809e-02 3.760488e+00 1.239430e-01 3.894285e+00 1.564921e-01 4.005874e+00 1.780525e-01 4.098356e+00 1.927127e-01 4.173558e+00 1.998470e-01 4.236632e+00 2.051618e-01 4.278052e+00 2.209430e-01 4.295620e+00 2.435088e-01 4.301536e+00 2.656695e-01 4.295649e+00 2.912533e-01 4.276653e+00 3.138389e-01 4.255737e+00 3.219219e-01 4.240574e+00 3.146233e-01 4.225409e+00 2.959940e-01 4.209231e+00 2.691064e-01 4.180772e+00 2.440082e-01 4.130701e+00 2.248458e-01 4.055465e+00 2.104240e-01 3.955192e+00 1.963432e-01 3.837525e+00 1.686654e-01 3.704870e+00 1.284652e-01 3.536105e+00 8.453924e-02 3.306350e+00 3.934117e-02 2.988697e+00 -3.666547e-02 
2.701130e+00 4.021031e-02 2.049988e+00 -2.645860e-02 1.272134e+00 -1.015536e-02 2.123366e+00 -2.312084e-02 2.697714e+00 -3.776198e-03 3.103140e+00 2.880084e-02 3.403052e+00 6.670539e-02 3.633604e+00 1.046049e-01 3.814792e+00 1.383897e-01 3.956335e+00 1.654879e-01 4.068300e+00 1.845095e-01 4.156201e+00 1.983372e-01 4.223296e+00 2.036513e-01 4.276294e+00 2.062615e-01 4.314178e+00 2.123712e-01 4.336597e+00 2.199535e-01 4.351120e+00 2.272974e-01 4.358020e+00 2.379861e-01 4.355517e+00 2.508270e-01 4.348238e+00 2.581252e-01 4.336282e+00 2.588781e-01 4.315721e+00 2.544829e-01 4.286054e+00 2.437471e-01 4.242081e+00 2.311953e-01 4.179620e+00 2.179111e-01 4.096208e+00 2.052427e-01 3.990429e+00 1.931176e-01 3.865135e+00 1.756938e-01 3.719375e+00 1.537858e-01 3.539036e+00 1.323231e-01 3.306374e+00 1.079059e-01 3.004163e+00 5.599649e-02 
2.788864e+00 -4.487217e-02 2.256809e+00 -5.661075e-02 1.629314e+00 -6.074020e-02 2.259463e+00 -3.856917e-02 2.783459e+00 -1.546079e-02 3.171015e+00 1.405508e-02 3.458681e+00 4.991271e-02 3.677611e+00 8.812736e-02 3.847652e+00 1.246345e-01 3.979476e+00 1.563802e-01 4.083861e+00 1.808192e-01 4.165507e+00 1.992403e-01 4.229841e+00 2.125470e-01 4.279011e+00 2.245945e-01 4.312769e+00 2.396526e-01 4.331616e+00 2.567247e-01 4.339783e+00 2.736814e-01 4.339711e+00 2.896940e-01 4.331914e+00 3.023861e-01 4.320910e+00 3.071469e-01 4.307411e+00 3.034295e-01 4.289901e+00 2.922476e-01 4.264973e+00 2.758059e-01 4.227762e+00 2.575850e-01 4.173243e+00 2.387313e-01 4.097980e+00 2.192949e-01 4.002543e+00 1.968996e-01 3.889277e+00 1.670809e-01 3.756242e+00 1.297331e-01 3.592436e+00 8.775234e-02 3.383309e+00 4.220443e-02 3.116004e+00 -9.689762e-03 
2.890858e+00 4.245525e-02 2.472768e+00 1.327737e-02 1.976232e+00 9.344283e-03 2.446852e+00 6.738145e-03 2.874841e+00 1.816715e-02 3.215540e+00 4.180551e-02 3.482344e+00 7.309548e-02 3.694326e+00 1.074500e-01 3.865198e+00 1.396653e-01 3.999441e+00 1.665269e-01 4.105075e+00 1.859564e-01 4.185576e+00 1.994939e-01 4.248312e+00 2.071197e-01 4.294621e+00 2.126493e-01 4.328760e+00 2.186139e-01 4.351094e+00 2.255847e-01 4.365564e+00 2.333601e-01 4.373448e+00 2.416725e-01 4.373435e+00 2.499341e-01 4.368475e+00 2.544318e-01 4.355637e+00 2.552822e-01 4.335859e+00 2.517951e-01 4.305425e+00 2.445547e-01 4.263211e+00 2.337983e-01 4.205277e+00 2.194566e-01 4.128676e+00 2.030570e-01 4.032533e+00 1.859137e-01 3.918973e+00 1.671884e-01 3.786367e+00 1.470220e-01 3.626791e+00 1.258524e-01 3.430009e+00 1.014640e-01 3.186956e+00 6.955386e-02 
3.050041e+00 -5.295715e-03 2.705872e+00 -1.682019e-02 2.305829e+00 -2.038343e-02 2.653724e+00 -1.310444e-02 3.011016e+00 3.433956e-03 3.314118e+00 2.819693e-02 3.557782e+00 6.033092e-02 3.753523e+00 9.658113e-02 3.912250e+00 1.316671e-01 4.034062e+00 1.628287e-01 4.130452e+00 1.864191e-01 4.202572e+00 2.044848e-01 4.260300e+00 2.178103e-01 4.301732e+00 2.298705e-01 4.331396e+00 2.428890e-01 4.349670e+00 2.566129e-01 4.358761e+00 2.709550e-01 4.362375e+00 2.828968e-01 4.358100e+00 2.922649e-01 4.351520e+00 2.950874e-01 4.338330e+00 2.927050e-01 4.321265e+00 2.845494e-01 4.295418e+00 2.720924e-01 4.259117e+00 2.556456e-01 4.208830e+00 2.339620e-01 4.139299e+00 2.097143e-01 4.053009e+00 1.835037e-01 3.952647e+00 1.545635e-01 3.836423e+00 1.229181e-01 3.697389e+00 8.935279e-02 3.526356e+00 5.453960e-02 3.314215e+00 2.021398e-02 
3.200886e+00 5.559358e-02 2.932911e+00 3.898346e-02 2.625260e+00 3.555402e-02 2.875392e+00 3.116936e-02 3.149604e+00 3.619750e-02 3.399839e+00 5.256574e-02 3.613546e+00 7.979263e-02 3.794670e+00 1.148746e-01 3.950003e+00 1.498509e-01 4.069866e+00 1.779662e-01 4.164806e+00 1.961750e-01 4.231785e+00 2.081445e-01 4.287754e+00 2.141584e-01 4.324274e+00 2.194036e-01 4.354230e+00 2.242445e-01 4.372803e+00 2.304974e-01 4.386184e+00 2.381023e-01 4.395691e+00 2.449002e-01 4.396327e+00 2.517228e-01 4.395769e+00 2.541120e-01 4.382470e+00 2.552905e-01 4.366749e+00 2.524193e-01 4.337239e+00 2.479191e-01 4.300329e+00 2.388188e-01 4.248755e+00 2.225218e-01 4.179434e+00 2.005796e-01 4.091369e+00 1.777049e-01 3.991990e+00 1.562524e-01 3.881262e+00 1.365315e-01 3.753529e+00 1.175509e-01 3.601854e+00 9.761042e-02 3.419967e+00 7.590770e-02 
3.378093e+00 2.256818e-02 3.165650e+00 1.509000e-02 2.927862e+00 1.193771e-02 3.101643e+00 1.117151e-02 3.314197e+00 1.983632e-02 3.521838e+00 3.863422e-02 3.706580e+00 6.880866e-02 3.868405e+00 1.080103e-01 4.012951e+00 1.474992e-01 4.115062e+00 1.801991e-01 4.200006e+00 2.008698e-01 4.254637e+00 2.160949e-01 4.305732e+00 2.256426e-01 4.336097e+00 2.350753e-01 4.360851e+00 2.453298e-01 4.376118e+00 2.560704e-01 4.383135e+00 2.693271e-01 4.391504e+00 2.783835e-01 4.387092e+00 2.874060e-01 4.387982e+00 2.880711e-01 4.374515e+00 2.873231e-01 4.362286e+00 2.809086e-01 4.338140e+00 2.722456e-01 4.305991e+00 2.582743e-01 4.263130e+00 2.325930e-01 4.196381e+00 2.021940e-01 4.116575e+00 1.712355e-01 4.031216e+00 1.418279e-01 3.938965e+00 1.142070e-01 3.833648e+00 8.782207e-02 3.708581e+00 6.255291e-02 3.558251e+00 3.980908e-02 
3.543444e+00 6.805833e-02 3.388718e+00 6.023945e-02 3.220302e+00 5.735771e-02 3.326671e+00 4.911620e-02 3.473701e+00 4.724391e-02 3.631284e+00 5.544409e-02 3.782962e+00 7.917843e-02 3.926721e+00 1.216539e-01 4.070168e+00 1.730242e-01 4.166853e+00 2.019452e-01 4.249306e+00 2.165709e-01 4.290423e+00 2.233349e-01 4.343545e+00 2.234872e-01 4.361643e+00 2.277267e-01 4.389903e+00 2.283664e-01 4.399957e+00 2.354399e-01 4.411385e+00 2.417854e-01 4.425354e+00 2.492775e-01 4.422204e+00 2.557635e-01 4.433575e+00 2.555959e-01 4.414176e+00 2.581103e-01 4.410500e+00 2.538340e-01 4.379195e+00 2.551245e-01 4.353390e+00 2.488569e-01 4.309602e+00 2.338503e-01 4.245992e+00 2.006103e-01 4.159454e+00 1.666643e-01 4.075394e+00 1.409129e-01 3.992577e+00 1.224176e-01 3.902974e+00 1.076175e-01 3.800351e+00 9.387261e-02 3.681094e+00 8.039772e-02 
3.720195e+00 4.351672e-02 3.610302e+00 4.079759e-02 3.496307e+00 3.828379e-02 3.549646e+00 3.092708e-02 3.647394e+00 3.005796e-02 3.765176e+00 3.901765e-02 3.886772e+00 6.568814e-02 4.010718e+00 1.149463e-01 4.154342e+00 1.814403e-01 4.217431e+00 2.118654e-01 4.294387e+00 2.246356e-01 4.314100e+00 2.344555e-01 4.367251e+00 2.332589e-01 4.378197e+00 2.423878e-01 4.398514e+00 2.448352e-01 4.410445e+00 2.562711e-01 4.407999e+00 2.681172e-01 4.430144e+00 2.761833e-01 4.414131e+00 2.881899e-01 4.434720e+00 2.827045e-01 4.413056e+00 2.873583e-01 4.413757e+00 2.773539e-01 4.392380e+00 2.784628e-01 4.366179e+00 2.690894e-01 4.339945e+00 2.408454e-01 4.263199e+00 1.974616e-01 4.182641e+00 1.560630e-01 4.114862e+00 1.246705e-01 4.053050e+00 1.015706e-01 3.987035e+00 8.292714e-02 3.910718e+00 6.674708e-02 3.821662e+00 5.321133e-02 
3.885514e+00 7.912586e-02 3.821725e+00 7.823801e-02 3.762107e+00 7.609216e-02 3.764171e+00 6.345716e-02 3.809171e+00 5.169380e-02 3.881045e+00 4.384302e-02 3.968880e+00 5.287681e-02 4.076001e+00 1.036689e-01 4.237898e+00 2.417895e-01 4.282639e+00 2.374537e-01 4.364275e+00 2.520352e-01 4.345998e+00 2.443103e-01 4.422518e+00 2.267759e-01 4.398245e+00 2.469444e-01 4.436578e+00 2.179299e-01 4.430665e+00 2.518742e-01 4.434191e+00 2.329596e-01 4.468940e+00 2.640920e-01 4.439903e+00 2.587123e-01 4.492316e+00 2.573057e-01 4.440367e+00 2.679365e-01 4.472259e+00 2.440368e-01 4.426375e+00 2.742684e-01 4.423357e+00 2.539819e-01 4.395702e+00 2.792764e-01 4.324755e+00 2.053895e-01 4.219991e+00 1.442142e-01 4.156423e+00 1.150627e-01 4.109979e+00 1.024728e-01 4.063073e+00 9.543632e-02 4.009891e+00 8.953752e-02 3.949959e+00 8.390531e-02 
4.054061e+00 6.032560e-02 4.027356e+00 6.297517e-02 4.011789e+00 6.126532e-02 3.973459e+00 4.916083e-02 3.978655e+00 3.609941e-02 4.015381e+00 2.348549e-02 4.074196e+00 2.595528e-02 4.161365e+00 6.621086e-02 4.370695e+00 2.954971e-01 4.318158e+00 2.492866e-01 4.422783e+00 2.538016e-01 4.361019e+00 2.714157e-01 4.447776e+00 2.136266e-01 4.427941e+00 2.794045e-01 4.433437e+00 2.098731e-01 4.465372e+00 2.799434e-01 4.412105e+00 2.477101e-01 4.497506e+00 2.843350e-01 4.418669e+00 2.990782e-01 4.503851e+00 2.644858e-01 4.446905e+00 3.119215e-01 4.470819e+00 2.452740e-01 4.467452e+00 3.090586e-01 4.426633e+00 2.732574e-01 4.472916e+00 2.870043e-01 4.320991e+00 1.948179e-01 4.228754e+00 1.265544e-01 4.191466e+00 9.537708e-02 4.170865e+00 8.224863e-02 4.148135e+00 7.447375e-02 4.119623e+00 6.805369e-02 4.086947e+00 6.297468e-02 
4.212084e+00 8.959071e-02 4.222855e+00 9.564722e-02 4.251223e+00 9.439061e-02 4.171791e+00 8.139394e-02 4.132193e+00 6.117621e-02 4.121712e+00 2.570178e-02 4.135296e+00 -3.165257e-02 4.205364e+00 -9.109643e-02 4.518849e+00 5.184397e-01 4.357556e+00 1.716460e-01 4.541378e+00 3.235181e-01 4.347747e+00 2.626139e-01 4.542254e+00 1.503603e-01 4.429795e+00 3.715717e-01 4.472754e+00 6.096774e-02 4.496866e+00 4.022674e-01 4.401944e+00 8.735517e-02 4.580132e+00 3.791492e-01 4.391537e+00 2.185239e-01 4.612553e+00 2.516733e-01 4.433310e+00 3.420303e-01 4.548284e+00 1.224657e-01 4.494220e+00 4.108141e-01 4.475390e+00 1.034717e-01 4.590976e+00 5.154087e-01 4.384425e+00 1.867258e-01 4.233531e+00 7.721974e-02 4.225379e+00 6.836767e-02 4.230142e+00 7.579535e-02 4.227762e+00 8.199704e-02 4.220665e+00 8.538527e-02 4.213631e+00 8.734874e-02 
4.368535e+00 7.533703e-02 4.410040e+00 8.458071e-02 4.474786e+00 8.381546e-02 4.361816e+00 7.400169e-02 4.287825e+00 5.603216e-02 4.244162e+00 1.756171e-02 4.228356e+00 -5.532097e-02 4.257291e+00 -9.049000e-02 4.429859e+00 1.868943e-01 4.240878e+00 -3.952518e-02 4.434098e+00 5.135750e-02 4.298604e+00 1.331442e-01 4.427212e+00 -3.384249e-02 4.399890e+00 2.952925e-01 4.334056e+00 -5.923189e-02 4.464515e+00 3.358422e-01 4.259095e+00 1.009591e-02 4.528364e+00 2.898199e-01 4.285698e+00 1.907996e-01 4.538658e+00 1.574942e-01 4.387864e+00 3.727894e-01 4.443574e+00 5.187540e-02 4.499192e+00 4.822863e-01 4.364241e+00 1.019567e-01 4.691518e+00 7.293025e-01 4.282283e+00 1.649230e-01 4.212205e+00 4.022032e-02 4.260944e+00 4.248452e-02 4.295098e+00 5.646853e-02 4.313712e+00 6.476301e-02 4.327298e+00 6.865760e-02 4.343396e+00 7.131866e-02 
4.514971e+00 1.003197e-01 4.587144e+00 1.133676e-01 4.688065e+00 1.130793e-01 4.544238e+00 1.084573e-01 4.435081e+00 1.010660e-01 4.341696e+00 8.755012e-02 4.222693e+00 4.104466e-02 3.963908e+00 -1.248052e-01 3.069831e+00 -1.419323e+00 3.472501e+00 -9.687658e-01 2.993550e+00 -1.208930e+00 3.436865e+00 -1.162573e+00 3.072801e+00 -8.850578e-01 3.299363e+00 -1.268992e+00 3.306621e+00 -7.111177e-01 3.231717e+00 -1.243981e+00 3.483604e+00 -7.627265e-01 3.105564e+00 -1.160355e+00 3.473607e+00 -9.686707e-01 3.063165e+00 -9.060215e-01 3.382885e+00 -1.083191e+00 3.235712e+00 -6.443344e-01 3.341394e+00 -1.067592e+00 3.460389e+00 -5.672561e-01 3.326522e+00 -1.049016e+00 3.817526e+00 -3.875165e-01 4.191537e+00 -9.546446e-02 4.314000e+00 9.147057e-03 4.363588e+00 5.198528e-02 4.395289e+00 7.237428e-02 4.425956e+00 8.377558e-02 4.463635e+00 9.197123e-02 
4.656821e+00 8.955613e-02 4.754472e+00 1.048942e-01 4.885681e+00 1.050800e-01 4.713602e+00 1.046865e-01 4.572244e+00 1.065917e-01 4.435866e+00 1.160939e-01 4.245767e+00 1.097592e-01 3.862962e+00 -7.300302e-02 2.801742e+00 -1.608661e+00 3.203675e+00 -1.083759e+00 2.554332e+00 -1.420422e+00 3.095947e+00 -1.515413e+00 2.574242e+00 -1.073220e+00 2.835177e+00 -1.811340e+00 2.891955e+00 -9.032177e-01 2.674429e+00 -1.859882e+00 3.159318e+00 -1.073052e+00 2.443240e+00 -1.764801e+00 3.113099e+00 -1.513941e+00 2.365712e+00 -1.381976e+00 2.882693e+00 -1.837022e+00 2.665695e+00 -1.009499e+00 2.701612e+00 -1.960104e+00 3.054538e+00 -1.012980e+00 2.487666e+00 -2.192779e+00 3.708190e+00 -7.152420e-01 4.265415e+00 -1.727892e-01 4.391999e+00 -1.291649e-02 4.440814e+00 4.000111e-02 4.481197e+00 6.116508e-02 4.526666e+00 7.197967e-02 4.583206e+00 8.011064e-02 
4.788818e+00 1.110079e-01 4.911872e+00 1.277895e-01 5.072949e+00 1.283418e-01 4.881547e+00 1.256470e-01 4.724255e+00 1.192096e-01 4.588034e+00 1.091407e-01 4.455970e+00 9.233345e-02 4.323587e+00 7.468585e-02 4.350869e+00 9.128640e-02 4.061539e+00 -5.264396e-02 4.113280e+00 -1.203624e-01 4.045090e+00 -1.343076e-01 3.991395e+00 -2.188985e-01 4.042576e+00 -2.107269e-01 3.934132e+00 -2.567891e-01 4.016344e+00 -2.997535e-01 3.937707e+00 -2.941922e-01 3.948533e+00 -3.921580e-01 3.959023e+00 -3.437559e-01 3.882297e+00 -4.183659e-01 3.980702e+00 -3.878902e-01 3.884224e+00 -3.895478e-01 3.991565e+00 -4.513969e-01 3.962499e+00 -3.551332e-01 3.988355e+00 -4.698408e-01 4.116482e+00 -2.734559e-01 4.333903e+00 -8.640550e-02 4.436188e+00 5.186102e-03 4.499413e+00 4.922184e-02 4.555645e+00 7.240191e-02 4.617693e+00 8.689755e-02 4.693157e+00 9.858961e-02 
4.914219e+00 1.021815e-01 5.058637e+00 1.189186e-01 5.244770e+00 1.198697e-01 5.035288e+00 1.157024e-01 4.862066e+00 1.025700e-01 4.720595e+00 7.126050e-02 4.616674e+00 7.267912e-03 4.603099e+00 -6.707651e-02 4.904642e+00 6.242675e-01 4.617611e+00 2.240051e-01 4.800110e+00 3.956081e-01 4.518230e+00 3.399396e-01 4.705180e+00 1.664493e-01 4.565900e+00 4.684191e-01 4.546931e+00 4.075426e-02 4.613075e+00 4.830820e-01 4.427120e+00 6.501403e-02 4.686175e+00 4.100025e-01 4.423679e+00 2.281044e-01 4.704479e+00 2.132506e-01 4.511294e+00 3.866062e-01 4.617144e+00 3.518084e-02 4.629509e+00 4.647915e-01 4.553637e+00 3.061150e-02 4.815787e+00 6.626064e-01 4.496014e+00 1.212128e-01 4.426580e+00 1.276844e-02 4.494639e+00 2.869126e-02 4.564185e+00 5.213085e-02 4.632071e+00 6.821563e-02 4.708047e+00 7.962224e-02 4.799794e+00 8.999283e-02 
5.030252e+00 1.212216e-01 5.195475e+00 1.385728e-01 5.406190e+00 1.398542e-01 5.185890e+00 1.368203e-01 5.005233e+00 1.275966e-01 4.863716e+00 1.105510e-01 4.768033e+00 8.571574e-02 4.746838e+00 6.922357e-02 4.876109e+00 3.609258e-01 4.731883e+00 2.564225e-01 4.776810e+00 3.127786e-01 4.624994e+00 2.944256e-01 4.703418e+00 2.244491e-01 4.613187e+00 3.306180e-01 4.613408e+00 1.654244e-01 4.616214e+00 3.364857e-01 4.540151e+00 1.751910e-01 4.654508e+00 3.262173e-01 4.526786e+00 2.495339e-01 4.678199e+00 2.528710e-01 4.567124e+00 3.135702e-01 4.651719e+00 1.715608e-01 4.633787e+00 3.605497e-01 4.628186e+00 1.721143e-01 4.743319e+00 4.339189e-01 4.606859e+00 1.864064e-01 4.528351e+00 7.961291e-02 4.565237e+00 6.482606e-02 4.628663e+00 7.291582e-02 4.702950e+00 8.425217e-02 4.790802e+00 9.550458e-02 4.897775e+00 1.073330e-01 
5.138126e+00 1.140344e-01 5.321041e+00 1.303016e-01 5.552328e+00 1.319181e-01 5.320266e+00 1.280561e-01 5.128885e+00 1.185628e-01 4.979811e+00 1.064574e-01 4.877540e+00 1.059058e-01 4.831165e+00 1.541899e-01 4.859106e+00 2.765855e-01 4.792844e+00 2.829068e-01 4.785163e+00 2.861980e-01 4.686199e+00 2.939189e-01 4.707083e+00 2.558101e-01 4.637609e+00 2.884037e-01 4.630746e+00 2.402829e-01 4.612886e+00 2.812510e-01 4.577112e+00 2.545360e-01 4.626792e+00 2.820427e-01 4.570342e+00 2.833709e-01 4.647257e+00 2.623179e-01 4.596386e+00 2.900499e-01 4.645461e+00 2.419468e-01 4.639467e+00 2.971627e-01 4.647143e+00 2.644582e-01 4.704766e+00 3.013623e-01 4.631266e+00 1.944906e-01 4.593651e+00 1.155933e-01 4.625111e+00 8.599672e-02 4.689114e+00 8.083410e-02 4.770753e+00 8.446681e-02 4.869646e+00 9.155946e-02 4.990094e+00 1.012230e-01 
5.237248e+00 1.313488e-01 5.436819e+00 1.482023e-01 5.687986e+00 1.501286e-01 5.447748e+00 1.489070e-01 5.249015e+00 1.445480e-01 5.092462e+00 1.412350e-01 4.979157e+00 1.494325e-01 4.909735e+00 1.874875e-01 4.883497e+00 2.520152e-01 4.835075e+00 2.720041e-01 4.802098e+00 2.785974e-01 4.732688e+00 2.799923e-01 4.724818e+00 2.648358e-01 4.669327e+00 2.698475e-01 4.659820e+00 2.513535e-01 4.632137e+00 2.627119e-01 4.616960e+00 2.539770e-01 4.632563e+00 2.665516e-01 4.609973e+00 2.644743e-01 4.650775e+00 2.602078e-01 4.625401e+00 2.637402e-01 4.661014e+00 2.500871e-01 4.653130e+00 2.666965e-01 4.674078e+00 2.531942e-01 4.700953e+00 2.569170e-01 4.682294e+00 1.953617e-01 4.660571e+00 1.378991e-01 4.687996e+00 1.087256e-01 4.749818e+00 9.939435e-02 4.835273e+00 1.004471e-01 4.942651e+00 1.070236e-01 5.074877e+00 1.173952e-01 
5.326954e+00 1.255586e-01 5.540761e+00 1.413865e-01 5.808492e+00 1.436132e-01 5.558837e+00 1.430030e-01 5.350216e+00 1.409366e-01 5.183145e+00 1.432951e-01 5.056728e+00 1.598628e-01 4.969033e+00 1.986344e-01 4.919549e+00 2.410404e-01 4.868013e+00 2.678362e-01 4.825903e+00 2.741789e-01 4.763852e+00 2.799687e-01 4.737401e+00 2.708092e-01 4.689364e+00 2.709312e-01 4.668106e+00 2.643748e-01 4.643402e+00 2.657036e-01 4.627167e+00 2.683155e-01 4.633499e+00 2.694097e-01 4.621248e+00 2.737415e-01 4.645117e+00 2.671772e-01 4.636431e+00 2.681120e-01 4.659072e+00 2.613624e-01 4.663293e+00 2.628114e-01 4.679931e+00 2.555856e-01 4.704961e+00 2.324714e-01 4.698780e+00 1.893504e-01 4.699346e+00 1.459768e-01 4.734168e+00 1.175032e-01 4.800540e+00 1.040018e-01 4.892575e+00 1.008031e-01 5.008904e+00 1.042924e-01 5.152025e+00 1.127216e-01 
5.408416e+00 1.411651e-01 5.635176e+00 1.576261e-01 5.918436e+00 1.601252e-01 5.661248e+00 1.613796e-01 5.445007e+00 1.617624e-01 5.269144e+00 1.663255e-01 5.131810e+00 1.818454e-01 5.030131e+00 2.114943e-01 4.961662e+00 2.421659e-01 4.904206e+00 2.643734e-01 4.853121e+00 2.719612e-01 4.795460e+00 2.753428e-01 4.760090e+00 2.693444e-01 4.715237e+00 2.659413e-01 4.690917e+00 2.603795e-01 4.664877e+00 2.586614e-01 4.651148e+00 2.593233e-01 4.649698e+00 2.595165e-01 4.644232e+00 2.610372e-01 4.658819e+00 2.574521e-01 4.657019e+00 2.560699e-01 4.675338e+00 2.518073e-01 4.681737e+00 2.497758e-01 4.701587e+00 2.417056e-01 4.722979e+00 2.219874e-01 4.733860e+00 1.884753e-01 4.744717e+00 1.538739e-01 4.782387e+00 1.291578e-01 4.850721e+00 1.165188e-01 4.946944e+00 1.136276e-01 5.070112e+00 1.177583e-01 5.222380e+00 1.271947e-01 
5.479517e+00 1.362061e-01 5.717273e+00 1.520121e-01 6.013336e+00 1.547702e-01 5.747975e+00 1.568625e-01 5.522895e+00 1.588718e-01 5.337462e+00 1.660089e-01 5.189718e+00 1.837611e-01 5.077409e+00 2.125571e-01 4.998492e+00 2.408523e-01 4.932755e+00 2.627575e-01 4.875612e+00 2.718830e-01 4.815383e+00 2.764078e-01 4.773267e+00 2.728034e-01 4.727626e+00 2.701367e-01 4.698391e+00 2.665955e-01 4.672114e+00 2.649666e-01 4.656116e+00 2.663951e-01 4.652390e+00 2.658955e-01 4.647669e+00 2.674315e-01 4.658835e+00 2.636741e-01 4.660795e+00 2.615422e-01 4.677178e+00 2.565694e-01 4.688051e+00 2.512749e-01 4.708283e+00 2.405102e-01 4.732146e+00 2.167009e-01 4.748302e+00 1.854056e-01 4.769247e+00 1.542860e-01 4.814524e+00 1.305833e-01 4.889120e+00 1.169193e-01 4.991954e+00 1.122835e-01 5.122719e+00 1.147690e-01 5.283686e+00 1.229842e-01 
5.542739e+00 1.500405e-01 5.790087e+00 1.665678e-01 6.097612e+00 1.695481e-01 5.825283e+00 1.721871e-01 5.593094e+00 1.737522e-01 5.400023e+00 1.787701e-01 5.244278e+00 1.928469e-01 5.123635e+00 2.185592e-01 5.036449e+00 2.477707e-01 4.967929e+00 2.665546e-01 4.904264e+00 2.750891e-01 4.840098e+00 2.758084e-01 4.796284e+00 2.713954e-01 4.746527e+00 2.667202e-01 4.718601e+00 2.609360e-01 4.688273e+00 2.586150e-01 4.674085e+00 2.571882e-01 4.667766e+00 2.575798e-01 4.664062e+00 2.569619e-01 4.675291e+00 2.544476e-01 4.676072e+00 2.514716e-01 4.695383e+00 2.465152e-01 4.704385e+00 2.429611e-01 4.729880e+00 2.343393e-01 4.753100e+00 2.180921e-01 4.777565e+00 1.879988e-01 4.800128e+00 1.570907e-01 4.847805e+00 1.349731e-01 4.926251e+00 1.235797e-01 5.033966e+00 1.211626e-01 5.170632e+00 1.255889e-01 5.338645e+00 1.354610e-01 
5.594957e+00 1.453773e-01 5.850217e+00 1.616367e-01 6.166930e+00 1.648232e-01 5.887652e+00 1.679318e-01 5.648090e+00 1.697708e-01 5.447469e+00 1.748190e-01 5.284556e+00 1.889181e-01 5.158154e+00 2.158674e-01 5.067545e+00 2.497411e-01 4.990757e+00 2.681597e-01 4.922971e+00 2.772656e-01 4.851397e+00 2.780898e-01 4.806683e+00 2.741166e-01 4.752412e+00 2.708859e-01 4.723246e+00 2.648686e-01 4.691406e+00 2.640665e-01 4.674658e+00 2.621583e-01 4.669448e+00 2.636014e-01 4.662414e+00 2.627271e-01 4.676479e+00 2.599111e-01 4.675374e+00 2.568419e-01 4.697860e+00 2.499900e-01 4.708077e+00 2.465548e-01 4.736040e+00 2.360211e-01 4.763410e+00 2.197750e-01 4.787491e+00 1.868641e-01 4.812803e+00 1.541964e-01 4.866629e+00 1.318308e-01 4.951819e+00 1.204903e-01 5.065987e+00 1.178315e-01 5.209026e+00 1.217640e-01 5.383689e+00 1.311283e-01 
5.639551e+00 1.576993e-01 5.901211e+00 1.749396e-01 6.225586e+00 1.782955e-01 5.940076e+00 1.812990e-01 5.693989e+00 1.806956e-01 5.486474e+00 1.793381e-01 5.317667e+00 1.837891e-01 5.188515e+00 2.079410e-01 5.098045e+00 2.700366e-01 5.026062e+00 2.745970e-01 4.951029e+00 2.906504e-01 4.866924e+00 2.769614e-01 4.831451e+00 2.743348e-01 4.760753e+00 2.696363e-01 4.743735e+00 2.547362e-01 4.698914e+00 2.624352e-01 4.688578e+00 2.466118e-01 4.682391e+00 2.623656e-01 4.672107e+00 2.488566e-01 4.696984e+00 2.551145e-01 4.682301e+00 2.472226e-01 4.720404e+00 2.379641e-01 4.717529e+00 2.431186e-01 4.760458e+00 2.290178e-01 4.783994e+00 2.418658e-01 4.814800e+00 1.944554e-01 4.827849e+00 1.502021e-01 4.884011e+00 1.283469e-01 4.975431e+00 1.214991e-01 5.095132e+00 1.231015e-01 5.243060e+00 1.302046e-01 5.422718e+00 1.418310e-01 
5.672733e+00 1.530441e-01 5.939284e+00 1.703632e-01 6.269342e+00 1.738674e-01 5.978162e+00 1.771722e-01 5.726010e+00 1.759665e-01 5.512287e+00 1.723140e-01 5.338202e+00 1.723351e-01 5.208116e+00 1.915077e-01 5.130354e+00 2.885645e-01 5.037619e+00 2.743959e-01 4.967950e+00 2.964760e-01 4.865016e+00 2.805350e-01 4.839893e+00 2.725663e-01 4.759660e+00 2.795868e-01 4.743150e+00 2.494616e-01 4.701158e+00 2.741251e-01 4.680045e+00 2.430584e-01 4.687771e+00 2.726719e-01 4.660245e+00 2.523873e-01 4.701949e+00 2.591547e-01 4.674650e+00 2.569249e-01 4.722140e+00 2.341744e-01 4.720309e+00 2.554067e-01 4.762336e+00 2.249926e-01 4.803132e+00 2.592711e-01 4.814833e+00 1.925623e-01 4.825203e+00 1.413573e-01 4.889535e+00 1.202983e-01 4.988865e+00 1.154313e-01 5.114504e+00 1.181877e-01 5.267232e+00 1.256321e-01 5.451349e+00 1.372205e-01 
5.698437e+00 1.643342e-01 5.968264e+00 1.829859e-01 6.302423e+00 1.866085e-01 6.006336e+00 1.908272e-01 5.748102e+00 1.885266e-01 5.525471e+00 1.768773e-01 5.340844e+00 1.488140e-01 5.212938e+00 1.051375e-01 5.173597e+00 4.043952e-01 5.063577e+00 2.335940e-01 5.006018e+00 3.586703e-01 4.850662e+00 2.532258e-01 4.880927e+00 2.721376e-01 4.745740e+00 3.034542e-01 4.767022e+00 1.917858e-01 4.701898e+00 3.288100e-01 4.678226e+00 1.606796e-01 4.713478e+00 3.319611e-01 4.643300e+00 1.934651e-01 4.746061e+00 2.800679e-01 4.655176e+00 2.503208e-01 4.756920e+00 1.924827e-01 4.715709e+00 2.926889e-01 4.784725e+00 1.418567e-01 4.843206e+00 3.861144e-01 4.837048e+00 1.925761e-01 4.810950e+00 1.128135e-01 4.890943e+00 1.049164e-01 5.001195e+00 1.118290e-01 5.131841e+00 1.214401e-01 5.287498e+00 1.328044e-01 5.474207e+00 1.468228e-01 
5.712487e+00 1.595163e-01 5.984218e+00 1.784284e-01 6.320636e+00 1.821365e-01 6.020536e+00 1.871204e-01 5.757362e+00 1.852593e-01 5.528004e+00 1.724708e-01 5.334353e+00 1.385762e-01 5.195914e+00 8.454732e-02 5.170327e+00 4.098035e-01 5.011239e+00 1.837249e-01 4.983307e+00 3.332174e-01 4.801275e+00 2.205152e-01 4.848267e+00 2.277063e-01 4.708594e+00 2.907654e-01 4.717360e+00 1.392892e-01 4.672110e+00 3.195012e-01 4.614904e+00 1.100814e-01 4.682331e+00 3.091446e-01 4.579921e+00 1.535239e-01 4.706744e+00 2.378444e-01 4.605150e+00 2.263086e-01 4.705674e+00 1.380748e-01 4.681530e+00 2.763340e-01 4.727709e+00 9.178463e-02 4.832498e+00 3.978252e-01 4.786129e+00 1.536407e-01 4.786156e+00 8.642806e-02 4.886297e+00 9.139162e-02 5.005115e+00 1.044212e-01 5.139659e+00 1.162298e-01 5.297709e+00 1.281032e-01 5.486381e+00 1.420620e-01 
5.719052e+00 1.700144e-01 5.991103e+00 1.900438e-01 6.328174e+00 1.937915e-01 6.026610e+00 2.012361e-01 5.760375e+00 2.057092e-01 5.520504e+00 2.103224e-01 5.290917e+00 2.135078e-01 5.030486e+00 1.912484e-01 4.668950e+00 -3.593419e-01 4.504059e+00 -1.700264e-01 4.308753e+00 -4.027592e-01 4.370326e+00 -2.837792e-01 4.134090e+00 -3.155509e-01 4.243595e+00 -3.977938e-01 4.102593e+00 -2.207022e-01 4.139214e+00 -4.603280e-01 4.133549e+00 -2.104580e-01 4.021064e+00 -4.958955e-01 4.139924e+00 -3.041079e-01 3.943435e+00 -4.360041e-01 4.144641e+00 -4.145194e-01 4.007223e+00 -3.053629e-01 4.165040e+00 -4.885356e-01 4.156778e+00 -2.401132e-01 4.187800e+00 -6.214734e-01 4.427147e+00 -2.163249e-01 4.738191e+00 -2.409438e-03 4.889692e+00 7.257067e-02 5.012387e+00 1.033619e-01 5.146364e+00 1.210113e-01 5.304084e+00 1.356622e-01 5.492747e+00 1.513320e-01 
5.713880e+00 1.646783e-01 5.984944e+00 1.846422e-01 6.320851e+00 1.883943e-01 6.018332e+00 1.967264e-01 5.750070e+00 2.038751e-01 5.504494e+00 2.159496e-01 5.256558e+00 2.335574e-01 4.934507e+00 2.169764e-01 4.391029e+00 -7.663166e-01 4.250891e+00 -3.596747e-01 3.957138e+00 -7.758119e-01 4.153692e+00 -5.435342e-01 3.774459e+00 -5.786412e-01 4.004845e+00 -7.357193e-01 3.802274e+00 -3.871203e-01 3.866905e+00 -8.273172e-01 3.904322e+00 -3.555613e-01 3.695212e+00 -8.589384e-01 3.932219e+00 -5.103582e-01 3.582508e+00 -7.267350e-01 3.924408e+00 -6.994724e-01 3.686877e+00 -4.886228e-01 3.918447e+00 -8.213320e-01 3.901862e+00 -3.775563e-01 3.889114e+00 -1.058717e+00 4.277973e+00 -3.607404e-01 4.717216e+00 -3.425760e-02 4.886652e+00 6.500420e-02 5.009769e+00 9.991022e-02 5.143064e+00 1.176125e-01 5.300256e+00 1.315659e-01 5.488336e+00 1.465079e-01 
5.701128e+00 1.743364e-01 5.969803e+00 1.940220e-01 6.302848e+00 1.976831e-01 6.004163e+00 2.034824e-01 5.741749e+00 2.039395e-01 5.509642e+00 1.983970e-01 5.300694e+00 1.815091e-01 5.101575e+00 1.449018e-01 4.904479e+00 -6.202308e-03 4.729290e+00 -1.319895e-02 4.627780e+00 -6.857040e-02 4.571300e+00 -4.265880e-02 4.478309e+00 -6.702384e-02 4.474071e+00 -5.634150e-02 4.402562e+00 -5.286452e-02 4.414223e+00 -6.653940e-02 4.370980e+00 -5.158651e-02 4.369388e+00 -8.437860e-02 4.362616e+00 -6.269044e-02 4.348826e+00 -8.803835e-02 4.388119e+00 -6.506733e-02 4.378874e+00 -7.192133e-02 4.449424e+00 -6.059042e-02 4.460165e+00 -5.266384e-02 4.555486e+00 -3.885767e-02 4.609761e+00 -9.648440e-03 4.753549e+00 4.901000e-02 4.880513e+00 8.706987e-02 5.002000e+00 1.099860e-01 5.135511e+00 1.260297e-01 5.291603e+00 1.403454e-01 5.477813e+00 1.558725e-01 