# vtk DataFile Version 2.0
Comment goes here
ASCII

DATASET STRUCTURED_POINTS
FIELD FieldData 1
TIME 1 1 double
0.08900000
DIMENSIONS    64   64   1

ORIGIN    0.000   0.000   0.000
SPACING   0.03125 0.03125   1.000

POINT_DATA   4096
SCALARS uX double
LOOKUP_TABLE default

-1.483356e+01 1.008175e+01 -3.594508e+00 1.414395e+00 4.834292e+00 -1.068555e+01 3.077040e+00 -8.041859e+00 -8.014892e-02 -1.032687e+01 7.940996e+00 -1.074713e+01 6.499705e-01 -3.529481e+00 1.164042e+01 -4.810992e+00 1.638441e+01 4.108457e+00 2.846420e+00 3.370910e+00 5.000104e+00 6.455871e+00 7.791318e+00 5.489983e+00 8.135424e-01 4.334271e+00 1.000990e-01 4.217589e+00 1.379360e+00 7.339485e+00 4.947917e+00 6.570264e+00 1.045963e+00 7.546517e+00 5.054707e+00 7.756034e+00 9.272621e+00 1.425197e+01 6.822553e+00 1.190421e+01 6.703397e+00 1.954286e+01 1.190045e+01 1.566589e+01 7.124708e+00 1.555754e+01 8.610437e+00 1.244546e+00 2.003032e+00 9.699901e+00 5.661690e+00 1.151837e+00 2.652289e+00 1.995118e+00 -5.333555e+00 3.219873e+00 -1.409213e+01 -2.019078e+00 -1.838187e+01 -1.189317e+01 -1.143937e+01 -2.043996e+01 -2.265336e+01 -2.463703e+01 
-6.874806e+00 7.124232e+00 6.270921e+00 -4.762067e-01 1.091049e+01 7.149616e+00 8.148386e+00 -8.207322e-01 1.407190e+01 -1.537762e+01 2.292405e+01 -1.893154e+01 1.096806e+01 -1.678723e+01 1.311904e+01 -6.181624e+00 6.179207e+00 7.892890e+00 2.296115e+00 8.243565e+00 2.451271e+00 3.191471e+00 -2.068503e+00 -9.504242e-01 -7.874001e+00 3.551163e+00 -3.762963e+00 1.939865e+00 9.255028e-01 -3.638360e-01 -4.300021e+00 -5.721504e+00 -1.899249e+00 -5.140322e+00 -5.926208e+00 -4.290959e+00 -1.424565e+00 -3.753292e+00 -2.570236e+00 3.611549e+00 4.393537e-01 8.191519e-01 -8.439984e+00 2.333205e+00 -3.096988e+00 -2.186066e+00 -7.305881e-01 -7.728802e+00 -1.338986e+01 -1.387812e+01 -1.505628e+01 6.973921e+00 -1.486784e+01 7.827165e+00 -1.534923e+01 1.813789e+01 9.025427e-01 1.707570e+01 2.238517e+01 1.543939e+01 1.429749e+01 1.656099e+01 1.896683e+01 2.115184e+01 
-1.009960e+01 -1.531506e+01 1.937406e+00 -6.678611e+00 5.197063e+00 -4.667998e+00 6.491614e+00 -3.278431e+00 1.167521e+01 -4.067519e+00 7.714694e+00 -1.101546e+00 5.083308e+00 -4.189448e+00 -7.967382e-01 2.049989e+00 -8.757496e+00 5.558589e-01 -6.341895e+00 -2.243114e+00 -6.457833e+00 -8.548345e+00 -1.308710e+01 -8.932744e+00 -1.033051e+01 -8.317612e+00 -6.134941e+00 -4.884203e+00 -4.181851e+00 -3.956424e+00 4.860602e-01 -2.112015e+00 3.984181e+00 3.198570e+00 4.781589e+00 3.903555e+00 5.872528e+00 5.723014e+00 8.472150e+00 8.037399e+00 1.187175e+01 4.529004e+00 2.887996e+00 6.308392e+00 8.523543e+00 4.593260e+00 1.026834e+01 8.056306e+00 6.488074e+00 -3.077358e+00 -2.397943e+00 5.987055e+00 -3.951146e+00 3.870334e+00 -3.459217e+00 1.921533e+00 -2.628686e+00 1.162425e+00 5.686240e-01 2.835297e+00 -1.061787e+01 8.702290e+00 -7.651073e+00 1.678205e+01 
-2.047876e+01 -2.742597e+01 -1.048612e+01 -1.111164e+01 6.471392e-01 -1.600868e+01 8.703162e+00 -2.193632e+00 1.056516e+01 5.801409e+00 7.362014e+00 1.021979e+01 9.406719e+00 9.930068e+00 4.904269e+00 1.040666e+01 -1.412123e+00 4.706507e+00 1.044718e-01 1.707796e+00 -6.562731e-01 -2.816418e+00 -2.195756e+00 -2.041532e+00 6.248391e-01 2.436798e-01 5.052435e+00 6.862023e-01 6.011574e+00 7.130925e+00 1.349042e+01 1.023284e+01 1.676802e+01 1.747032e+01 1.908493e+01 1.625762e+01 1.716894e+01 1.851027e+01 1.843754e+01 1.247636e+01 1.795896e+01 1.576453e+01 1.924261e+01 1.342656e+01 2.023200e+01 1.574984e+01 1.875206e+01 1.719116e+01 2.030561e+01 1.028894e+01 8.648011e+00 2.600199e+00 1.996744e+00 -2.157000e+00 -3.420690e+00 -1.719640e+01 -1.814849e+01 -2.434820e+01 -3.380946e+01 -3.048023e+01 -3.934039e+01 -2.944311e+01 -4.343685e+01 -2.023682e+01 
-2.804008e+01 -1.793050e+01 -1.137341e+01 -6.378676e+00 6.282027e+00 -8.742957e+00 1.023505e+01 2.176159e+00 1.017508e+01 8.593328e+00 6.907650e+00 1.051624e+01 4.822522e+00 8.590280e+00 -6.702204e-01 5.809913e+00 -6.551846e+00 2.225291e-01 -6.897599e+00 -3.337591e+00 -8.306283e+00 -7.688057e+00 -9.369456e+00 -9.160750e+00 -8.221935e+00 -7.098076e+00 -3.549731e+00 -4.772928e+00 1.356635e+00 2.143789e+00 9.607998e+00 7.250520e+00 1.451481e+01 1.326137e+01 1.676624e+01 1.434578e+01 1.668970e+01 1.603012e+01 1.821722e+01 1.423040e+01 1.821481e+01 1.584514e+01 1.907391e+01 1.454502e+01 1.918629e+01 1.489727e+01 1.765326e+01 1.451076e+01 1.723147e+01 9.788658e+00 9.822331e+00 4.927999e+00 4.355724e+00 1.216072e+00 -1.405694e+00 -8.450615e+00 -1.346058e+01 -1.689064e+01 -2.815227e+01 -2.570497e+01 -3.882104e+01 -2.883749e+01 -4.045337e+01 -2.148336e+01 
-2.935970e+01 -2.359023e+01 -1.309425e+01 -1.107245e+01 6.028118e+00 -1.030073e+01 8.138762e+00 6.676298e-01 1.018048e+01 7.936526e+00 9.665729e+00 1.166308e+01 9.118078e+00 1.216516e+01 6.285817e+00 1.072907e+01 2.559806e+00 6.547912e+00 1.606231e-01 2.001605e+00 -2.469392e+00 -2.552005e+00 -4.393529e+00 -4.299839e+00 -3.302587e+00 -2.602150e+00 1.085327e+00 1.567168e+00 7.157552e+00 8.138318e+00 1.584163e+01 1.348066e+01 1.882977e+01 1.731556e+01 1.985471e+01 1.701892e+01 1.841936e+01 1.651354e+01 1.757731e+01 1.468925e+01 1.775437e+01 1.610433e+01 1.920016e+01 1.672866e+01 2.059024e+01 1.798291e+01 2.021369e+01 1.744603e+01 1.828596e+01 1.310373e+01 1.169133e+01 6.103386e+00 4.107561e+00 -2.949889e+00 -5.495963e+00 -1.598788e+01 -1.959208e+01 -2.693049e+01 -3.431408e+01 -3.572761e+01 -4.432525e+01 -3.883498e+01 -4.580107e+01 -3.289250e+01 
-3.793073e+01 -1.617265e+01 -1.591758e+01 -3.877148e+00 1.108983e+01 -3.752694e+00 1.220812e+01 7.281241e+00 1.161553e+01 1.287860e+01 8.955119e+00 1.323194e+01 4.900509e+00 9.602068e+00 -8.188343e-01 4.588963e+00 -5.992443e+00 -5.042528e-01 -8.643665e+00 -4.788457e+00 -1.117706e+01 -9.709548e+00 -1.381879e+01 -1.372734e+01 -1.490443e+01 -1.269684e+01 -9.641962e+00 -6.280416e+00 1.371141e-01 3.117710e+00 1.361805e+01 1.051293e+01 1.747956e+01 1.451299e+01 1.842383e+01 1.500796e+01 1.810323e+01 1.583390e+01 1.889824e+01 1.648031e+01 1.934748e+01 1.783455e+01 1.980002e+01 1.786058e+01 1.961084e+01 1.718592e+01 1.819579e+01 1.547740e+01 1.600647e+01 1.213218e+01 1.193519e+01 7.508994e+00 7.518597e+00 2.457326e+00 1.966404e+00 -5.525507e+00 -9.702562e+00 -1.988779e+01 -2.788676e+01 -3.505038e+01 -4.688701e+01 -4.308291e+01 -5.339704e+01 -3.068703e+01 
-4.003507e+01 -2.570723e+01 -1.654063e+01 -7.857000e+00 1.181096e+01 -6.040240e+00 1.122116e+01 6.615444e+00 1.224344e+01 1.279930e+01 1.197395e+01 1.564004e+01 1.107071e+01 1.556732e+01 8.612799e+00 1.319900e+01 5.355051e+00 9.084195e+00 1.500080e+00 3.269813e+00 -3.630154e+00 -4.294708e+00 -9.253274e+00 -9.645945e+00 -1.091607e+01 -8.224505e+00 -4.758264e+00 -3.038819e-01 6.161192e+00 1.073513e+01 2.254713e+01 1.875894e+01 2.300429e+01 2.108119e+01 2.307913e+01 1.852845e+01 1.912648e+01 1.519343e+01 1.579920e+01 1.382885e+01 1.614716e+01 1.671751e+01 1.924495e+01 1.953750e+01 2.217437e+01 2.207094e+01 2.282297e+01 2.209974e+01 2.066110e+01 1.860828e+01 1.605449e+01 1.202249e+01 8.704933e+00 -5.520356e-02 -3.551913e+00 -1.834684e+01 -2.119125e+01 -3.335595e+01 -3.824017e+01 -4.856652e+01 -5.803947e+01 -5.922905e+01 -6.446978e+01 -4.235265e+01 
-5.498268e+01 -1.150178e+01 -2.318572e+01 -1.676368e+00 1.630551e+01 1.161094e+00 1.619395e+01 1.703623e+01 1.523361e+01 2.207151e+01 1.255368e+01 1.959929e+01 6.584424e+00 1.182804e+01 -1.652129e+00 3.201345e+00 -8.387565e+00 -2.697854e+00 -1.173935e+01 -8.205137e+00 -1.675885e+01 -1.356798e+01 -2.031618e+01 -2.296050e+01 -2.780177e+01 -2.261896e+01 -1.828359e+01 -1.006258e+01 -1.703119e+00 7.920196e+00 2.514490e+01 1.675510e+01 2.332204e+01 1.905696e+01 2.094239e+01 1.501342e+01 1.838667e+01 1.602244e+01 1.967445e+01 1.805269e+01 2.054253e+01 2.110344e+01 2.115743e+01 2.191868e+01 2.117539e+01 2.036460e+01 1.937368e+01 1.797984e+01 1.655065e+01 1.578271e+01 1.410713e+01 1.116918e+01 1.087606e+01 6.657258e+00 9.259058e+00 2.545575e+00 2.135900e+00 -2.160713e+01 -2.640124e+01 -5.146977e+01 -6.756088e+01 -7.821953e+01 -8.453349e+01 -4.211812e+01 
-5.497912e+01 -2.536648e+01 -1.993801e+01 -7.034755e+00 1.975927e+01 3.056946e+00 1.652011e+01 1.663550e+01 1.467913e+01 2.071801e+01 1.456403e+01 2.272895e+01 1.439350e+01 2.118362e+01 1.150595e+01 1.676659e+01 8.240041e+00 1.352432e+01 5.679493e+00 9.245218e+00 1.927867e+00 -6.847238e+00 -1.597614e+01 -2.018696e+01 -2.629732e+01 -1.873410e+01 -1.076505e+01 -3.683853e+00 1.306159e+01 1.880892e+01 3.757097e+01 2.937911e+01 2.778718e+01 2.930444e+01 3.093826e+01 2.242385e+01 1.932377e+01 1.147570e+01 1.019141e+01 8.939763e+00 1.218834e+01 1.763871e+01 1.940079e+01 2.271960e+01 2.582799e+01 2.858841e+01 2.815903e+01 3.052411e+01 2.528619e+01 2.745854e+01 2.320012e+01 2.328141e+01 1.946044e+01 1.055261e+01 1.017173e+01 -1.401651e+01 -1.370503e+01 -3.755096e+01 -4.075042e+01 -6.702693e+01 -8.504570e+01 -9.750383e+01 -8.761022e+01 -5.448603e+01 
-9.089090e+01 1.578980e+01 -2.454972e+01 -1.195216e+01 2.115652e+01 1.267724e+01 2.058210e+01 3.544543e+01 2.041289e+01 3.795789e+01 2.017149e+01 3.084228e+01 1.051742e+01 1.487020e+01 -4.035858e+00 -2.275426e-01 -1.377328e+01 -5.813936e+00 -1.574580e+01 -1.051644e+01 -1.767835e+01 -9.896442e+00 -2.330239e+01 -3.703334e+01 -4.309901e+01 -3.375079e+01 -1.854774e+01 -1.954876e+01 2.729327e+01 2.579724e+01 4.506463e+01 2.998844e+01 3.125438e+01 2.838730e+01 1.916634e+01 7.749263e+00 1.498654e+01 1.526646e+01 1.930315e+01 1.845663e+01 2.187908e+01 2.639292e+01 2.323265e+01 2.812687e+01 2.390026e+01 2.413651e+01 2.082392e+01 1.920960e+01 1.745301e+01 2.165680e+01 1.648800e+01 1.762285e+01 1.439812e+01 1.225885e+01 2.300986e+00 -6.421844e+00 -7.841525e+00 -2.505112e+01 -1.250035e+01 -6.669023e+01 -8.273938e+01 -6.999193e+01 -6.324857e+01 -5.638113e+01 
-7.179098e+01 -1.279129e+01 -8.257355e-01 -1.180989e+01 3.178982e+01 3.402565e+01 2.250246e+01 3.071760e+01 1.144856e+01 3.176723e+01 1.747655e+01 3.429591e+01 2.075006e+01 2.948987e+01 1.497155e+01 1.768150e+01 6.295391e+00 1.701593e+01 1.403867e+01 1.430195e+01 -1.047795e+01 -1.522625e+01 -2.815583e+01 -2.695637e+01 -2.480725e+01 -1.808092e+01 9.344895e+00 -1.604735e+01 5.148331e+01 4.740585e+01 2.606203e+01 9.599071e+00 2.173953e+01 4.317017e+01 5.534967e+01 4.247195e+01 1.845312e+01 -3.435324e+00 -5.436602e+00 -3.999250e+00 5.898934e+00 2.260363e+01 2.029178e+01 2.547413e+01 3.312790e+01 3.885442e+01 3.861720e+01 4.641300e+01 2.879888e+01 3.796005e+01 3.098438e+01 4.034767e+01 2.597663e+01 3.135321e+01 3.959061e+01 3.846488e+01 5.333504e+01 -3.102027e+00 -1.386530e+01 -6.150098e+01 -7.041135e+01 -1.241876e+01 -6.869694e+01 -4.090357e+01 
-2.106640e+01 9.901388e+01 4.246441e+01 2.127011e+01 2.355660e+01 6.936940e+01 1.560155e+01 6.669019e+01 2.493526e+01 6.044451e+01 3.873411e+01 4.933947e+01 1.752546e+01 1.632024e+01 -1.086925e+01 -9.665493e+00 -2.142628e+01 -3.074665e+00 -1.403445e+01 -1.250305e+01 -1.908379e+01 -3.804071e+00 -6.889161e+00 -1.814627e+01 -1.966125e+01 -5.117058e+00 1.424748e+01 1.854289e+01 4.957535e-01 2.683185e+01 -1.154246e+01 5.777162e+01 9.504007e+01 4.725728e+01 3.145072e+01 4.321273e+00 1.308257e+01 1.083598e+01 9.123834e+00 1.168206e+01 2.320544e+01 3.505151e+01 2.645688e+01 3.887919e+01 2.653938e+01 2.817830e+01 1.933422e+01 1.298832e+01 1.999947e+01 3.394073e+01 2.123900e+01 3.135684e+01 4.268526e+01 3.942950e+01 5.734499e+01 3.203638e+01 6.071670e+01 -1.720340e+00 3.188725e+01 -9.130679e+01 4.557177e+01 5.375306e+01 1.501432e+01 7.049958e+01 
5.237156e+02 1.014097e+02 2.058574e+02 2.752615e+02 1.103066e+02 1.549985e+02 1.304242e+01 4.575503e+01 -9.470352e+00 5.108655e+01 2.841170e+01 5.504801e+01 3.933807e+01 4.637432e+01 2.365169e+01 1.137208e+01 -1.248035e+01 4.935444e+00 -3.134706e-01 2.538204e+01 6.807815e+01 8.807452e+01 5.410903e+01 3.475790e+01 3.228919e+01 5.347468e+01 2.414920e+01 1.013579e+02 -2.852651e+01 4.087206e+01 -9.067282e+01 3.538947e+01 6.580129e+01 9.111639e+01 -3.423350e+01 -2.428853e+01 -3.486381e+01 -5.405932e+01 -4.714054e+01 -2.838175e+01 -1.187846e+00 4.131010e+01 2.155694e+01 1.882229e+01 4.467633e+01 5.407545e+01 5.888966e+01 6.017104e+01 1.593604e+01 3.308646e+01 2.985598e+01 4.505445e+01 9.597356e-01 2.005063e+01 -8.604365e+00 -7.775173e+00 -3.497906e+01 -5.289998e+01 8.833496e+00 -6.213563e+01 -2.757990e+00 2.459147e+02 1.110109e+02 4.094161e+02 
4.102436e+02 4.701101e+02 4.326605e+02 4.281900e+02 1.392702e+02 2.535208e+02 -2.660680e+00 7.380928e+01 3.149580e+01 8.396895e+01 9.447779e+01 8.787443e+01 2.186429e+01 1.970975e-01 -3.530813e+01 -4.929814e+01 -5.118236e+01 3.259782e+00 2.314196e+01 5.342625e+01 5.093613e+01 2.348094e+01 -1.474775e+01 3.027582e+00 -1.834971e+00 5.022120e+01 -1.444332e+01 4.833878e+01 -7.409069e+01 -1.142674e+01 -4.659628e+01 1.387308e+02 -5.575810e+00 1.173890e+02 8.059961e+01 1.157956e+02 3.421469e+01 -6.986244e+00 -1.877632e+01 2.592802e+00 2.332990e+01 1.274066e+01 3.176009e+01 3.808616e+01 4.634878e+01 4.520612e+01 3.811672e+01 7.145512e+01 3.179392e+01 7.293307e+01 6.588841e+01 9.228560e+01 4.425076e+01 1.057010e+02 6.569584e+01 9.719062e+01 5.875368e+01 1.335648e+02 1.518613e+02 9.001075e+01 -1.201329e+01 6.282410e+01 1.888920e+02 3.537533e+02 
4.587516e+02 -7.396564e+00 2.954197e+02 -2.217907e+01 3.030705e+01 3.331354e+01 -6.058458e+01 1.466909e+01 8.964738e+00 8.103033e+01 8.259735e+01 1.507013e+02 1.088343e+02 1.005183e+02 4.935054e+01 -7.215730e+00 -5.514974e+01 -1.998493e+01 -2.560967e+01 2.145495e+01 3.301781e+01 4.526399e+01 3.569193e+01 1.012397e+02 5.528629e+01 5.010069e+01 3.768725e+01 -4.078208e+01 -1.655873e+01 1.372168e+01 5.339778e+00 -1.515225e+01 9.633330e+00 -4.803631e+01 5.688771e+01 3.057027e+01 -3.029376e+01 -2.465759e+01 -1.255318e+01 7.543458e+00 9.036106e+00 3.376768e+01 -5.981141e+01 -4.902178e+01 -4.957337e+01 -1.523878e+01 -4.605422e+01 -5.588383e+01 -4.566414e+01 -2.287888e+01 -2.531979e+01 -9.234611e+00 -2.344431e+01 3.573761e+01 2.374537e+00 1.079469e+02 5.640334e+01 1.844013e+02 2.918815e+02 2.797502e+02 3.077298e+02 5.025136e+01 3.502949e+02 2.534691e+01 
1.679063e+02 -3.065515e+02 1.142581e+02 -2.515432e+02 4.533239e+01 -1.378595e+02 1.131706e+02 1.594306e+02 2.028407e+02 1.232251e+02 2.148847e+01 -5.092918e+01 -7.564410e+01 -6.488386e+01 -5.497553e+01 -4.089296e+01 -2.221625e+01 1.359423e+01 6.018747e+01 7.550119e+01 4.215804e+01 5.435853e+01 5.494213e+01 1.126754e+02 1.145024e+02 6.310167e+01 9.225077e+01 8.012620e+01 8.256228e+01 6.997579e+01 1.155693e+02 -9.646323e+01 2.895199e+01 4.578533e+01 5.976610e+01 6.899170e+01 7.147925e+00 1.677690e+01 6.741883e+01 1.368920e+02 3.040201e+01 1.012198e+02 4.184439e+01 6.527888e+01 9.535473e+01 1.533882e+02 1.938826e+02 1.653105e+02 1.058755e+02 1.203174e+02 1.346677e+02 1.706760e+02 1.392695e+02 2.154401e+02 1.156048e+02 1.467450e+02 1.210766e+02 1.962856e+02 1.353346e+02 3.382353e+02 4.727730e+02 3.285040e+02 5.224012e+02 -4.265112e+01 
-4.684554e+02 3.443430e+02 -4.220373e+00 4.701174e+00 -7.081794e+00 4.800791e+01 2.213832e+02 1.997652e+02 2.162294e+02 1.522506e+02 1.404418e+02 1.632753e+01 1.256028e+01 8.673688e+01 2.299729e+02 4.893554e+02 6.098885e+02 4.903930e+02 3.680864e+02 2.488737e+02 1.481260e+02 1.251292e+02 1.127832e+02 8.257100e+01 2.720578e+01 1.643702e+01 -8.666568e+00 7.436608e+01 5.440473e+01 -2.527384e+01 6.282948e+01 7.319484e+01 2.445446e+00 1.638441e+02 4.173648e+01 8.956581e+01 1.093533e+01 7.057564e+01 -2.626360e+01 -1.347845e+01 -6.307040e+01 -5.485100e+01 2.495564e+01 5.766144e+01 1.125363e+01 5.219555e+01 5.302732e+01 1.308677e+02 9.694694e+01 1.336787e+02 9.683842e+01 1.604481e+02 1.597506e+02 2.563972e+02 1.543694e+02 2.320658e+02 2.011264e+02 2.885034e+02 4.764450e+01 3.526703e+02 2.257114e+02 2.817580e+02 -1.372399e+02 3.169695e+01 
2.858649e+02 3.633337e+02 1.029970e+01 2.133698e+02 6.853733e+01 2.397916e+02 1.434796e+02 7.776165e+01 -2.203669e+01 -3.878678e+01 -9.664222e-01 6.839432e+01 1.150741e+02 1.281800e+02 1.352007e+02 1.871819e+02 2.055597e+02 1.195994e+02 3.690482e+01 2.484135e+01 2.417827e+01 6.105310e+01 9.701407e+01 1.061294e+02 6.922005e+01 4.526780e+01 -2.176302e+01 -1.540174e+01 4.060830e+01 3.607414e+01 -3.157401e+01 1.870900e+01 -3.879802e+01 1.454426e+01 2.156645e+01 6.441086e+01 2.191287e+01 5.201891e+01 -9.152995e+01 -7.710755e+01 -6.740785e+01 -6.327901e+01 -2.696475e+01 -1.009007e+01 -3.716149e+01 -2.168212e+01 -5.526767e+01 2.701447e+01 4.340735e+01 4.915736e+01 1.232635e+01 4.164362e+01 9.342367e+01 9.147831e+01 1.653532e+02 1.785779e+02 2.063690e+02 1.106678e+02 1.591225e+02 1.009431e+02 2.447959e+02 1.317984e+02 8.700241e+00 3.637078e+02 
2.576403e+02 4.019791e+02 1.321851e+02 4.845482e+02 1.367350e+02 3.273803e+02 6.745005e+01 1.094057e+02 2.582187e-01 -3.697189e+01 -6.646773e+01 2.195246e+01 2.768272e+01 3.428698e+01 -2.737942e+01 -1.055610e+02 -1.496250e+02 -8.871219e+01 -3.240444e+01 5.279642e+00 7.458184e+00 1.619311e+01 1.253446e+01 4.396252e+01 1.197673e+02 1.084318e+02 5.253210e+01 -7.062840e+00 -5.005245e+00 2.563512e+01 1.564596e+01 -1.846943e+01 1.677128e+01 -6.530009e+01 3.694809e+01 1.260045e+02 1.887215e+02 2.098067e+02 1.629737e+02 8.804346e+01 -7.018172e+00 -9.682893e+00 6.351914e-01 3.324791e+01 -1.147777e+01 -3.853394e+01 -5.581832e+01 -5.190466e+01 -3.529440e+01 -3.245780e+01 -3.503733e+01 -2.471796e+01 -3.179047e+01 -2.186106e+01 3.624283e+01 3.431037e+01 3.456167e+01 5.272111e+01 3.477210e+01 7.985591e+01 -6.347404e+00 1.771828e+02 2.156359e+02 2.526547e+02 
2.422977e+02 3.351862e+02 2.672302e+02 2.882992e+02 1.098274e+01 2.475811e+02 -2.882398e+01 2.353283e+01 -1.255771e+01 3.495383e+01 1.978664e+01 4.715754e+01 6.510751e+01 9.252150e+01 1.025790e+02 8.757163e+01 4.428474e+01 4.186737e+01 3.944761e+01 3.658673e+01 4.726934e+01 3.948195e+01 1.272346e+01 -4.938032e-01 3.113501e+01 8.146193e+01 7.565591e+01 4.648286e+01 6.429107e+01 8.078354e+01 8.376959e+01 8.382953e+01 9.511376e+01 8.692661e+01 7.638464e+01 1.633189e+02 2.676914e+02 3.013927e+02 2.299521e+02 1.112160e+02 1.235664e+02 1.459689e+02 1.328494e+02 1.450225e+02 1.223280e+02 1.006209e+02 7.347611e+01 4.526170e+01 8.091617e+01 7.540843e+01 6.620148e+01 5.720303e+01 6.988794e+00 -5.116377e+01 -4.291948e+01 -3.115280e+01 -5.835415e+01 1.697562e+01 -4.800954e+01 9.729901e+01 -1.252517e+02 1.181325e+02 6.036097e+01 8.419018e+01 
-6.455113e+01 -4.443706e+01 -8.014036e+01 -3.079800e+02 -5.417819e+01 -1.375242e+02 -2.065676e+01 -5.825519e+01 1.223002e+01 1.702000e+01 2.284335e+01 1.346729e+01 2.385240e+01 9.925136e+00 -1.602333e+01 -5.418868e+01 -8.100492e+01 -5.082973e+01 -3.343892e+01 -5.154588e+00 1.435899e+00 1.784490e+01 2.706773e+01 5.687810e+00 -3.997010e+01 -2.536876e+01 -2.657841e+01 3.068183e+00 5.126578e+01 1.204238e+02 1.621530e+02 1.856854e+02 1.042494e+02 1.182591e+02 7.788434e+01 1.036133e+02 1.588026e+02 1.432927e+02 1.085432e+02 1.433602e+02 1.575364e+02 1.055757e+02 5.714168e+01 3.793045e+01 3.342043e+01 4.165390e+01 2.255287e+01 2.549334e+01 2.686941e+01 3.722614e+01 1.718238e+01 2.601769e+01 2.844403e+01 -1.133279e+01 -1.339862e+01 -1.662742e+01 -2.776267e+01 -1.555142e+00 2.317958e+00 7.681315e+00 6.280197e+01 -5.243806e+01 8.273022e+01 -2.157798e+01 
-3.201253e+02 -2.411425e+02 -3.447143e+02 -2.748585e+02 -1.320586e+01 -2.352554e+02 1.792059e+01 -4.675356e+01 2.387490e+00 1.733932e+01 2.048054e+01 3.612523e+01 3.706097e+01 5.229185e+01 4.831955e+01 5.220893e+01 3.792883e+01 4.781407e+01 4.134372e+01 4.382302e+01 4.237051e+01 4.431770e+01 5.190785e+01 5.359177e+01 5.094521e+01 3.450566e+01 -1.985143e+01 5.577882e+01 7.877529e+01 1.188106e+02 1.813220e+02 2.148044e+02 1.726929e+02 1.034054e+02 7.940858e+01 3.976723e+01 4.538450e+01 4.347666e+01 9.433097e+01 1.298587e+02 8.620717e+01 3.453618e+01 1.326834e+01 6.555099e-01 -8.376636e+00 -1.524605e+00 -4.803162e+00 5.049836e+00 -3.111333e+00 -5.582508e+00 -5.996336e+00 -2.201533e+01 -1.583529e+01 -1.277766e+01 -2.673908e+01 -9.262960e+00 -2.807423e+01 1.211096e+01 -8.380915e+00 5.527459e+01 2.418596e+00 3.148497e+01 -8.284107e+01 -4.792275e+01 
-6.744308e+01 -1.935408e+02 -3.109030e+02 -9.481639e+01 -4.578255e+01 -1.139993e+02 -3.887695e+00 -9.047108e+00 1.184720e+00 1.713317e+01 1.275334e+01 1.524753e+01 1.110718e+01 6.992550e+00 -1.001582e+01 -1.957173e+01 -3.618807e+01 -2.235769e+01 -1.821687e+01 -4.250749e+00 3.110187e+00 8.271051e+00 1.895207e+01 1.381270e+01 3.064768e+01 2.343381e+01 3.029833e+01 1.154957e+02 1.293368e+02 1.249981e+02 1.249000e+02 1.204772e+02 7.682803e+01 3.216694e+01 2.234927e+01 -1.946123e+01 -2.175903e+01 3.911166e+00 6.291990e+01 8.718439e+01 7.887817e+01 8.147661e+01 7.541199e+01 7.162713e+01 6.093477e+01 5.606394e+01 4.915937e+01 4.556022e+01 4.587693e+01 4.257054e+01 3.769743e+01 2.987687e+01 1.737393e+01 7.101721e+00 -2.884847e+00 -8.149518e+00 -2.454973e+01 -2.316419e+01 -4.069804e+01 -1.805077e+01 -1.914348e+01 9.611318e+00 2.886830e+01 3.966660e+01 
-1.300652e+02 -1.250611e+02 -1.565071e+02 -5.594714e+00 -4.423923e+01 -2.407432e+01 -1.788660e+01 -4.954531e+00 -5.675253e-01 1.819329e+01 1.553769e+01 3.239949e+01 2.739349e+01 4.129937e+01 3.448106e+01 4.356781e+01 3.467263e+01 4.368113e+01 3.660622e+01 4.219966e+01 3.389749e+01 4.009604e+01 3.794308e+01 8.653379e+00 5.312168e+01 -3.294352e+01 8.680065e+01 8.032022e+01 7.151105e+01 3.144825e+01 1.474320e+00 -3.695220e+01 -4.527153e+01 -3.912141e+01 -3.201338e+01 -4.579857e+01 -5.230557e+01 -2.647355e+01 3.173654e+00 2.297340e+01 3.242373e+01 3.016747e+01 1.973947e+01 1.150205e+01 1.926654e+00 2.395317e+00 -2.958167e+00 2.635731e+00 -1.284930e+00 -1.416311e+00 -4.077970e+00 -5.958061e+00 -1.093556e+01 -9.067651e+00 -2.399800e+01 -1.977213e+01 -4.746584e+01 -4.642884e+01 -7.988913e+01 -8.161478e+00 -4.071202e+01 -3.169407e+01 -8.465990e+01 -9.610288e+01 
-7.790861e+01 -4.296082e+01 6.945841e+01 7.045415e+01 -7.500929e-01 4.627292e+01 2.176942e+00 2.747535e+01 6.716197e+00 2.417133e+01 9.719063e+00 1.820788e+01 6.954840e+00 1.003456e+01 -3.497572e+00 -1.822740e+00 -1.358275e+01 -3.274071e+00 -7.492811e+00 6.144345e+00 8.510816e+00 1.387926e+01 3.240229e+01 1.168623e+01 7.450526e+01 -1.729841e+00 6.277094e+01 -5.853146e+01 -1.094041e+02 -1.302039e+02 -1.340293e+02 -1.076984e+02 -7.844313e+01 -4.487349e+01 -3.240517e+01 -3.364318e+01 -3.932616e+01 -1.586341e+01 3.962718e+00 2.440602e+01 3.642320e+01 4.470272e+01 4.575760e+01 4.456692e+01 4.255075e+01 4.005755e+01 3.926912e+01 3.797251e+01 3.764925e+01 3.543193e+01 3.445199e+01 2.831815e+01 2.507366e+01 1.906291e+01 1.123960e+01 -3.752666e+00 -2.435049e+01 -6.131535e+01 -6.557863e+01 -2.292987e+01 -8.544026e+00 -2.092191e+01 -2.742033e+01 -6.096405e+01 
-3.037954e+01 -5.983900e+01 6.537090e+01 5.911051e+01 1.353148e+01 3.866194e+01 8.425452e+00 2.332234e+01 1.151470e+01 2.601098e+01 1.818370e+01 3.226218e+01 2.481653e+01 3.720973e+01 2.980987e+01 3.947985e+01 3.267566e+01 4.004285e+01 3.429274e+01 3.995868e+01 2.426830e+01 4.648761e+01 1.015834e+00 6.709801e+01 -1.639586e+01 3.851855e+01 -1.904729e+01 -8.968274e+01 -7.601667e+01 -7.490324e+01 -9.582533e+01 -7.218509e+01 -5.515736e+01 -4.912444e+01 -3.744735e+01 -3.221446e+01 -2.937663e+01 -2.037672e+01 -1.458006e+01 -1.491805e+00 9.227413e+00 1.476497e+01 1.147683e+01 1.017079e+01 7.138573e+00 4.532395e+00 1.801888e+00 6.676648e+00 4.425104e+00 7.567704e+00 5.785986e+00 5.335266e+00 1.125353e+00 1.974815e+00 -8.818175e+00 -1.241112e+01 -2.863124e+01 -3.971904e+01 -3.782571e+01 -3.389666e+01 -1.295955e+01 1.027471e+01 -6.445192e+00 -2.338877e+01 
-8.603959e+00 -4.787318e+00 5.885291e+01 5.881522e+01 2.490369e+01 5.145203e+01 1.414176e+01 3.550079e+01 1.197584e+01 2.758782e+01 1.091550e+01 2.090537e+01 8.165350e+00 1.439830e+01 2.996245e+00 8.668846e+00 -2.180146e+00 1.011493e+01 -5.573671e+00 1.995682e+01 -6.997896e+00 4.269478e+01 -5.607000e+01 8.737410e+01 -5.018615e+01 5.854959e+01 -5.991043e+01 2.433295e+01 1.943745e+01 -2.637750e+01 -6.076510e+01 -6.731147e+01 -4.355267e+01 -4.688756e+01 -3.255302e+01 -1.893802e+01 -1.390144e+01 7.833337e+00 1.434198e+01 2.624632e+01 3.324233e+01 3.635681e+01 3.851319e+01 3.383887e+01 3.421873e+01 2.622390e+01 2.907673e+01 3.162078e+01 3.243504e+01 3.316739e+01 3.967795e+01 3.494232e+01 3.811026e+01 3.764115e+01 4.021282e+01 2.716094e+01 2.764137e+01 -5.421791e+00 -2.277370e+01 -1.063196e+02 -4.126333e+01 -2.298136e+01 -1.511924e+01 -2.224381e+01 
1.153322e+01 3.202802e+00 2.643010e+01 3.495792e+01 2.323012e+01 3.455598e+01 1.861929e+01 2.985138e+01 1.848882e+01 2.949243e+01 2.089983e+01 3.194851e+01 2.431395e+01 3.472318e+01 2.812775e+01 3.618138e+01 3.325124e+01 3.465660e+01 4.270671e+01 2.460319e+01 5.252124e+01 2.982625e+01 4.040859e+01 8.859857e+01 1.053831e+01 4.970062e+01 2.186030e+01 7.677226e+01 -3.194750e+00 -3.403220e+01 -5.927849e+01 -4.863389e+01 -3.004765e+01 -3.641421e+01 -2.594798e+01 -5.984314e+00 6.310444e+00 -6.788025e+00 -1.923024e+01 -5.061726e+00 4.916042e+00 7.458150e+00 2.010913e+00 3.863772e+00 8.325935e+00 -2.219091e+00 1.787041e-01 1.307146e+01 1.089902e+01 2.076008e+01 2.226047e+01 1.864615e+01 2.316056e+01 2.861608e+01 2.910799e+01 2.856835e+01 4.150853e+01 2.446614e+01 -1.278606e+01 -7.479235e+01 -7.883604e+01 -3.710677e+01 4.672023e+00 4.930562e-01 
2.793627e+01 2.925618e+01 4.109646e+01 4.273068e+01 3.104749e+01 4.298906e+01 2.032599e+01 3.432131e+01 1.554022e+01 2.740104e+01 1.305971e+01 2.187104e+01 1.103133e+01 1.738989e+01 9.505120e+00 1.398821e+01 1.121784e+01 1.299764e+01 1.661096e+01 5.980533e+00 4.805699e+01 -2.469545e+01 7.101905e+01 1.624756e+01 4.011403e+01 1.947306e+01 6.984509e+01 5.606413e+01 1.181101e+01 4.511682e+00 -2.233438e+01 -2.810694e+01 -2.343257e+00 -8.465304e+00 5.779432e-01 1.831649e+01 6.046194e+00 3.670569e+01 1.545920e+01 2.938810e+01 5.458333e+01 6.010716e+01 4.743948e+01 3.525869e+01 3.443854e+01 6.995446e-02 1.509180e+01 3.533984e+01 3.563620e+01 3.374432e+01 5.523529e+01 4.490146e+01 4.744221e+01 6.858999e+01 7.928130e+01 6.301730e+01 1.208178e+02 1.305946e+02 1.168986e+02 7.313384e+01 -9.048641e+00 -6.662020e+01 -7.186439e+00 4.738852e+00 
4.360522e+01 3.860493e+01 3.858963e+01 3.589978e+01 2.667395e+01 3.595266e+01 2.273550e+01 3.117547e+01 2.137236e+01 2.954202e+01 2.193575e+01 3.067082e+01 2.317488e+01 3.363632e+01 2.354749e+01 4.123001e+01 1.383886e+01 7.018386e+01 -9.872904e+00 8.238316e+01 5.885968e+01 1.968349e+01 8.067630e+01 4.039660e+01 5.139369e+01 4.489341e+01 7.036402e+01 4.926331e+01 5.665823e+01 4.528989e+01 3.494739e+01 1.846216e+01 2.084904e+01 4.426501e+01 5.995981e+00 9.293281e+01 8.061332e+01 5.256601e+00 -1.890999e+01 1.487658e+01 2.040267e+01 -5.033969e+00 -9.064873e+00 7.540824e+00 6.618397e+00 -1.080931e+01 1.673712e+01 3.423197e+01 5.782922e+01 7.096350e+01 5.599876e+01 2.920226e+01 6.766266e+01 6.536909e+01 4.806623e+01 5.991297e+01 1.365446e+02 1.793789e+02 1.842521e+02 2.387566e+02 2.528365e+02 1.473313e+02 7.493626e+01 4.228310e+01 
1.206803e+02 7.988449e+01 5.956888e+01 4.395060e+01 3.148325e+01 4.061189e+01 2.256733e+01 3.080592e+01 1.719653e+01 2.463931e+01 1.462428e+01 2.039336e+01 1.335959e+01 1.694458e+01 1.561195e+01 9.124374e+00 3.502367e+01 -5.495203e+00 4.119543e+01 7.867484e+01 -1.249963e+01 5.216575e+01 6.266359e+01 3.894583e+01 2.897468e+01 6.575415e+01 3.709028e+01 1.453277e+01 3.439233e+01 4.632180e+01 6.816566e+01 7.049396e+01 2.213353e+01 5.877406e+01 4.143386e+01 8.187865e+01 1.203348e+02 5.424240e+00 2.561783e+01 1.113676e+01 4.250322e+01 6.260454e+01 4.071233e+01 4.609951e+01 1.093324e+02 5.457773e+01 6.244030e+01 9.764584e+01 1.476990e+02 1.250539e+02 1.656733e+02 9.765974e+01 1.344629e+02 1.286996e+02 1.206182e+02 1.153214e+02 1.814380e+02 1.997703e+02 1.870601e+02 2.272057e+02 2.865764e+02 1.682162e+02 1.209358e+02 1.343408e+02 
1.720206e+02 1.069367e+02 6.479889e+01 4.553223e+01 2.637436e+01 3.896943e+01 2.279321e+01 2.906953e+01 2.160186e+01 2.641702e+01 2.204060e+01 2.713911e+01 2.267577e+01 3.067618e+01 2.281968e+01 3.587808e+01 3.384809e+01 1.522659e+01 7.441677e+01 2.359271e+00 3.245225e+01 9.239890e+01 1.303090e+01 1.489321e+01 3.775328e+01 3.887295e+01 2.955504e+01 3.860542e+01 2.032222e+01 2.850156e+01 3.713868e+01 3.162132e+01 -3.526966e+00 1.493110e+01 5.701478e+01 -1.173590e+00 3.012622e+01 7.796706e+01 1.083132e+02 9.797858e+01 1.681378e+02 1.569895e+02 9.090610e+01 1.167409e+02 1.180266e+02 1.317814e+02 1.497394e+02 1.583722e+02 1.440901e+02 1.503890e+02 2.196626e+02 2.455298e+02 2.201775e+02 2.644521e+02 2.870090e+02 2.813213e+02 2.612390e+02 3.146290e+02 3.021335e+02 2.430828e+02 2.781383e+02 3.445152e+02 3.373774e+02 2.593528e+02 
4.311097e+01 4.315105e+01 3.162110e+01 3.077696e+01 2.448650e+01 3.049100e+01 2.001855e+01 2.357495e+01 1.659821e+01 2.015847e+01 1.465914e+01 1.759127e+01 1.333624e+01 1.559455e+01 1.052147e+01 1.928730e+01 -6.238018e+00 3.579726e+01 -2.027266e+01 -7.228367e+00 8.271441e+00 6.352863e+00 8.898764e+00 1.233372e+01 1.938294e+01 -1.114258e-01 3.553096e+01 5.510132e+01 3.092445e+01 4.379898e+01 1.550293e+01 -9.048067e+00 1.156130e+01 1.276988e+01 1.316132e+01 -2.861149e+01 -8.154299e+00 5.019227e-01 3.757199e+01 1.777528e+01 5.442984e+00 7.158506e+00 7.091295e+01 8.365895e+01 3.288599e+01 1.233122e+02 1.026463e+02 7.754753e+01 4.236706e+01 7.687780e+01 3.545126e+01 1.056914e+02 8.257953e+01 1.152564e+02 1.479403e+02 2.319839e+02 1.896218e+02 2.393186e+02 3.194124e+02 2.709221e+02 2.057936e+02 2.807846e+02 2.099418e+02 1.051919e+02 