# vtk DataFile Version 2.0
Comment goes here
ASCII

DATASET STRUCTURED_POINTS
FIELD FieldData 1
TIME 1 1 double
0.02500000
DIMENSIONS    64   64   1

ORIGIN    0.000   0.000   0.000
SPACING   0.03125 0.03125   1.000

POINT_DATA   4096
SCALARS P double
LOOKUP_TABLE default

-3.933583e+01 -2.150388e+02 -3.624759e+01 -2.167061e+02 -5.013345e+01 1.144748e+02 -3.785285e+01 1.121722e+02 -3.689460e+01 1.025877e+02 -3.337736e+01 9.374901e+01 -3.037754e+01 7.998146e+01 -1.840730e+01 5.864523e+01 -4.860276e+00 3.955875e+01 9.351981e-01 2.954388e+01 -4.885506e-01 2.036276e+01 -2.784881e+00 1.286690e+01 -7.566604e+00 4.272709e+00 -1.068306e+01 -3.841838e+00 -1.732719e+01 -7.408961e+00 -2.819952e+01 -9.893474e+00 -3.945608e+01 -1.151544e+01 -4.809703e+01 -2.036413e+01 -4.925091e+01 -3.365984e+01 -4.786259e+01 -5.195983e+01 -3.912008e+01 -7.560470e+01 -3.051454e+01 -9.367113e+01 -3.374635e+01 -9.657132e+01 -5.045975e+01 -9.313632e+01 -6.700700e+01 -9.320667e+01 -7.803976e+01 -9.810735e+01 -8.623228e+01 -1.064018e+02 -8.703119e+01 -1.179142e+02 -8.880219e+01 -1.292775e+02 -8.444657e+01 -1.491780e+02 -7.161323e+01 -1.717494e+02 -6.018018e+01 -1.959278e+02 
-9.941494e+00 -1.380489e+02 -9.952725e+00 -1.397810e+02 -2.124596e+01 1.046588e+02 -1.209914e+01 1.014573e+02 -1.208473e+01 9.418420e+01 -1.083792e+01 8.785131e+01 -1.044881e+01 7.902927e+01 -5.032455e+00 6.591139e+01 1.351796e+00 5.388977e+01 3.721528e+00 4.669420e+01 2.572736e+00 3.932680e+01 1.686693e+00 3.261634e+01 -4.274871e-01 2.514154e+01 -1.301489e+00 1.772034e+01 -3.896766e+00 1.271928e+01 -8.747001e+00 8.226600e+00 -1.379022e+01 4.550530e+00 -1.785254e+01 -2.789831e+00 -1.815088e+01 -1.192536e+01 -1.783584e+01 -2.336792e+01 -1.342207e+01 -3.798473e+01 -8.674697e+00 -5.009235e+01 -9.710244e+00 -5.430646e+01 -1.754881e+01 -5.570743e+01 -2.469080e+01 -5.927608e+01 -2.884924e+01 -6.520212e+01 -3.216932e+01 -7.240410e+01 -3.173665e+01 -8.093450e+01 -3.279301e+01 -8.841309e+01 -3.117796e+01 -1.001881e+02 -2.523529e+01 -1.129465e+02 -2.070443e+01 -1.267846e+02 
4.169351e+00 -8.628227e+01 3.321143e+00 -8.799040e+01 -7.167457e-01 9.129005e+01 2.464837e+00 8.855297e+01 2.304599e+00 8.415684e+01 2.260098e+00 7.960648e+01 1.744517e+00 7.432299e+01 2.164321e+00 6.792906e+01 2.788379e+00 6.146517e+01 2.795238e+00 5.565154e+01 2.418619e+00 4.937598e+01 2.533877e+00 4.303512e+01 2.439887e+00 3.653515e+01 2.605273e+00 2.994864e+01 2.525396e+00 2.371031e+01 2.024528e+00 1.753608e+01 1.435090e+00 1.168976e+01 7.567022e-01 5.325886e+00 5.954386e-01 -1.041867e+00 1.589426e-01 -7.611502e+00 5.729612e-01 -1.490680e+01 1.296748e+00 -2.206013e+01 1.365263e+00 -2.803855e+01 5.380616e-01 -3.386659e+01 1.854887e-01 -4.017378e+01 3.650706e-01 -4.668739e+01 3.614333e-01 -5.306811e+01 9.848005e-01 -5.939643e+01 9.512311e-01 -6.488242e+01 1.075317e+00 -7.073062e+01 1.914583e+00 -7.632099e+01 2.261776e+00 -8.186580e+01 
3.119248e+00 -9.057028e+01 3.167642e+00 -9.369097e+01 3.171332e+00 9.550123e+01 2.444263e+00 9.199841e+01 2.029025e+00 8.727991e+01 1.848347e+00 8.203001e+01 1.742164e+00 7.609904e+01 2.230768e+00 6.943295e+01 2.903313e+00 6.269463e+01 3.181572e+00 5.633223e+01 3.088220e+00 4.990517e+01 3.018011e+00 4.341912e+01 2.830138e+00 3.685439e+01 2.674637e+00 3.031076e+01 2.319748e+00 2.401087e+01 1.662629e+00 1.785588e+01 9.318599e-01 1.177001e+01 2.936936e-01 5.313238e+00 6.231144e-02 -1.426927e+00 2.026668e-02 -8.512746e+00 4.908966e-01 -1.597772e+01 1.036393e+00 -2.315409e+01 9.945356e-01 -2.944926e+01 2.741014e-01 -3.539763e+01 -3.564329e-01 -4.154472e+01 -6.328825e-01 -4.792573e+01 -7.479299e-01 -5.437281e+01 -5.161078e-01 -6.081550e+01 -4.111441e-01 -6.698021e+01 -8.163541e-02 -7.331915e+01 7.438301e-01 -7.960110e+01 1.648312e+00 -8.560959e+01 
3.104841e+00 -8.618514e+01 3.176796e+00 -8.928669e+01 3.377016e+00 9.218535e+01 2.772448e+00 8.880329e+01 2.446204e+00 8.447245e+01 2.257576e+00 7.961001e+01 2.082029e+00 7.418828e+01 2.197221e+00 6.821025e+01 2.405026e+00 6.203891e+01 2.440000e+00 5.592326e+01 2.344199e+00 4.965373e+01 2.327678e+00 4.328697e+01 2.280040e+00 3.683753e+01 2.257381e+00 3.036928e+01 2.121714e+00 2.400649e+01 1.814652e+00 1.770930e+01 1.434456e+00 1.147202e+01 1.054607e+00 5.079258e+00 8.369835e-01 -1.407391e+00 6.792614e-01 -8.043785e+00 7.992630e-01 -1.489663e+01 1.018385e+00 -2.165799e+01 1.017860e+00 -2.802693e+01 7.488829e-01 -3.426475e+01 5.849380e-01 -4.060479e+01 6.163265e-01 -4.700023e+01 7.109130e-01 -5.332409e+01 9.724494e-01 -5.950877e+01 1.138066e+00 -6.537833e+01 1.391072e+00 -7.115495e+01 1.869427e+00 -7.668743e+01 2.346078e+00 -8.184657e+01 
2.333811e+00 -9.054126e+01 2.667953e+00 -9.443236e+01 2.853394e+00 9.600983e+01 2.448422e+00 9.211541e+01 2.138464e+00 8.735404e+01 1.977430e+00 8.198960e+01 1.961755e+00 7.609642e+01 2.181288e+00 6.977036e+01 2.484691e+00 6.328353e+01 2.659031e+00 5.682645e+01 2.669353e+00 5.033703e+01 2.605930e+00 4.380708e+01 2.464242e+00 3.724823e+01 2.268885e+00 3.071252e+01 1.961948e+00 2.426620e+01 1.528281e+00 1.787932e+01 1.059695e+00 1.147613e+01 6.620674e-01 4.907107e+00 4.489289e-01 -1.847489e+00 4.017449e-01 -8.788330e+00 5.459238e-01 -1.584379e+01 6.997452e-01 -2.274829e+01 6.276333e-01 -2.930205e+01 3.064551e-01 -3.565388e+01 -2.354044e-02 -4.201363e+01 -2.172653e-01 -4.843944e+01 -2.725670e-01 -5.488732e+01 -1.637832e-01 -6.130192e+01 1.487948e-02 -6.760415e+01 3.497289e-01 -7.385025e+01 9.061916e-01 -7.992139e+01 1.577301e+00 -8.560779e+01 
2.643571e+00 -8.741556e+01 2.882857e+00 -9.142809e+01 3.099743e+00 9.389753e+01 2.729573e+00 8.988946e+01 2.445448e+00 8.526036e+01 2.257118e+00 8.014205e+01 2.144289e+00 7.459094e+01 2.152184e+00 6.867555e+01 2.210596e+00 6.255314e+01 2.224994e+00 5.633861e+01 2.190682e+00 5.001908e+01 2.155621e+00 4.361763e+01 2.103233e+00 3.716001e+01 2.031836e+00 3.068649e+01 1.898906e+00 2.424221e+01 1.687953e+00 1.782351e+01 1.436569e+00 1.140720e+01 1.193854e+00 4.925365e+00 1.020594e+00 -1.628521e+00 9.186869e-01 -8.266993e+00 9.263600e-01 -1.497556e+01 9.746784e-01 -2.163475e+01 9.559935e-01 -2.814415e+01 8.582365e-01 -3.456817e+01 7.923429e-01 -4.098622e+01 8.113501e-01 -4.739141e+01 8.989273e-01 -5.372980e+01 1.062498e+00 -5.994703e+01 1.245648e+00 -6.597998e+01 1.490686e+00 -7.184358e+01 1.830740e+00 -7.746241e+01 2.213013e+00 -8.272000e+01 
1.917663e+00 -9.160816e+01 2.254042e+00 -9.617529e+01 2.487482e+00 9.749116e+01 2.270113e+00 9.303914e+01 2.077089e+00 8.799383e+01 1.967497e+00 8.245742e+01 1.959865e+00 7.651410e+01 2.062216e+00 7.026069e+01 2.207446e+00 6.383506e+01 2.306034e+00 5.734017e+01 2.323325e+00 5.079666e+01 2.272411e+00 4.421689e+01 2.157170e+00 3.761821e+01 1.983363e+00 3.102765e+01 1.740877e+00 2.446693e+01 1.438038e+00 1.792112e+01 1.121086e+00 1.134667e+01 8.482128e-01 4.683725e+00 6.698792e-01 -2.086888e+00 5.911386e-01 -8.952926e+00 5.958476e-01 -1.585587e+01 6.037711e-01 -2.268106e+01 5.264319e-01 -2.935040e+01 3.564429e-01 -3.590430e+01 1.775866e-01 -4.242237e+01 6.285197e-02 -4.894076e+01 3.968811e-02 -5.544894e+01 1.201397e-01 -6.191569e+01 2.891674e-01 -6.829943e+01 5.681984e-01 -7.457310e+01 9.666126e-01 -8.065016e+01 1.438111e+00 -8.639076e+01 
2.334005e+00 -8.933960e+01 2.561641e+00 -9.410835e+01 2.749614e+00 9.627067e+01 2.531558e+00 9.159019e+01 2.332355e+00 8.652140e+01 2.185326e+00 8.109363e+01 2.095952e+00 7.534816e+01 2.068109e+00 6.934161e+01 2.071458e+00 6.315501e+01 2.067117e+00 5.685340e+01 2.043135e+00 5.046158e+01 2.006418e+00 4.400231e+01 1.952401e+00 3.749866e+01 1.875336e+00 3.097578e+01 1.761512e+00 2.445441e+01 1.608378e+00 1.793599e+01 1.434290e+00 1.140705e+01 1.267000e+00 4.842257e+00 1.135225e+00 -1.767507e+00 1.049909e+00 -8.422241e+00 1.016350e+00 -1.510227e+01 1.006599e+00 -2.175651e+01 9.830632e-01 -2.834502e+01 9.422810e-01 -3.487972e+01 9.206037e-01 -4.138390e+01 9.444881e-01 -4.785381e+01 1.017854e+00 -5.426267e+01 1.140479e+00 -6.057623e+01 1.299592e+00 -6.675874e+01 1.503952e+00 -7.278713e+01 1.758487e+00 -7.861155e+01 2.042973e+00 -8.415938e+01 
1.617908e+00 -9.330995e+01 1.887537e+00 -9.852287e+01 2.092182e+00 9.965939e+01 2.003449e+00 9.457834e+01 1.909772e+00 8.912617e+01 1.854476e+00 8.332939e+01 1.855397e+00 7.723854e+01 1.909883e+00 7.091980e+01 1.985485e+00 6.445122e+01 2.039884e+00 5.789583e+01 2.048371e+00 5.128592e+01 2.006126e+00 4.464135e+01 1.913311e+00 3.797881e+01 1.772751e+00 3.131382e+01 1.587004e+00 2.465456e+01 1.368094e+00 1.799252e+01 1.142656e+00 1.130521e+01 9.426152e-01 4.566577e+00 7.931971e-01 -2.232785e+00 6.994124e-01 -9.081262e+00 6.476864e-01 -1.594294e+01 6.021250e-01 -2.276461e+01 5.279462e-01 -2.951103e+01 4.228501e-01 -3.619111e+01 3.197198e-01 -4.283429e+01 2.550996e-01 -4.945821e+01 2.511997e-01 -5.605975e+01 3.186985e-01 -6.262056e+01 4.581471e-01 -6.911200e+01 6.736987e-01 -7.549832e+01 9.601625e-01 -8.171854e+01 1.289589e+00 -8.768768e+01 
2.061005e+00 -9.163742e+01 2.228024e+00 -9.709636e+01 2.354852e+00 9.908346e+01 2.254658e+00 9.372628e+01 2.143501e+00 8.815923e+01 2.051254e+00 8.236844e+01 1.989746e+00 7.636729e+01 1.959700e+00 7.018698e+01 1.947617e+00 6.387045e+01 1.935671e+00 5.745632e+01 1.914014e+00 5.096968e+01 1.880066e+00 4.443053e+01 1.830481e+00 3.785673e+01 1.761530e+00 3.126435e+01 1.669092e+00 2.466460e+01 1.554769e+00 1.805941e+01 1.429123e+00 1.144246e+01 1.307791e+00 4.803418e+00 1.206061e+00 -1.862533e+00 1.131990e+00 -8.552775e+00 1.086346e+00 -1.525389e+01 1.058116e+00 -2.194210e+01 1.033991e+00 -2.859867e+01 1.013180e+00 -3.522226e+01 1.008993e+00 -4.181724e+01 1.034133e+00 -4.837918e+01 1.093764e+00 -5.489318e+01 1.188418e+00 -6.133860e+01 1.314668e+00 -6.769285e+01 1.472590e+00 -7.393379e+01 1.659196e+00 -8.003056e+01 1.861777e+00 -8.594454e+01 
1.353541e+00 -9.537223e+01 1.538120e+00 -1.012076e+02 1.672339e+00 1.022635e+02 1.687760e+00 9.654549e+01 1.679399e+00 9.063075e+01 1.677965e+00 8.450857e+01 1.698723e+00 7.819690e+01 1.741215e+00 7.173089e+01 1.790020e+00 6.515365e+01 1.823973e+00 5.850356e+01 1.827456e+00 5.180688e+01 1.793630e+00 4.508157e+01 1.721049e+00 3.834091e+01 1.611851e+00 3.159441e+01 1.471055e+00 2.484562e+01 1.309055e+00 1.808960e+01 1.142331e+00 1.131488e+01 9.891540e-01 4.509557e+00 8.633473e-01 -2.330184e+00 7.685619e-01 -9.196254e+00 6.977239e-01 -1.606852e+01 6.351266e-01 -2.292104e+01 5.669284e-01 -2.973639e+01 4.929478e-01 -3.651490e+01 4.277570e-01 -4.326714e+01 3.900805e-01 -5.000086e+01 3.942078e-01 -5.671453e+01 4.481578e-01 -6.339717e+01 5.541227e-01 -7.002968e+01 7.110917e-01 -7.658515e+01 9.109437e-01 -8.302529e+01 1.134417e+00 -8.930296e+01 
1.793664e+00 -9.411474e+01 1.885297e+00 -1.002142e+02 1.932228e+00 1.021435e+02 1.935268e+00 9.613519e+01 1.908096e+00 9.005595e+01 1.875123e+00 8.387212e+01 1.849675e+00 7.757500e+01 1.835368e+00 7.117323e+01 1.827592e+00 6.468558e+01 1.818382e+00 5.813239e+01 1.801580e+00 5.153041e+01 1.773764e+00 4.489359e+01 1.732410e+00 3.823385e+01 1.675639e+00 3.156088e+01 1.602735e+00 2.488083e+01 1.516219e+00 1.819486e+01 1.422797e+00 1.149990e+01 1.331684e+00 4.791187e+00 1.251706e+00 -1.933640e+00 1.188224e+00 -8.672526e+00 1.142136e+00 -1.541793e+01 1.109620e+00 -2.215840e+01 1.086196e+00 -2.888454e+01 1.072039e+00 -3.559314e+01 1.072598e+00 -4.228358e+01 1.093898e+00 -4.895240e+01 1.139241e+00 -5.559167e+01 1.209081e+00 -6.219030e+01 1.301563e+00 -6.873584e+01 1.414082e+00 -7.521540e+01 1.541288e+00 -8.161415e+01 1.672814e+00 -8.791705e+01 
1.098683e+00 -9.761139e+01 1.194051e+00 -1.040364e+02 1.238838e+00 1.051033e+02 1.346538e+00 9.877259e+01 1.414633e+00 9.238132e+01 1.466551e+00 8.589973e+01 1.516106e+00 7.932232e+01 1.566328e+00 7.265994e+01 1.611251e+00 6.593193e+01 1.640766e+00 5.915850e+01 1.646063e+00 5.235597e+01 1.622236e+00 4.553643e+01 1.568097e+00 3.870847e+01 1.485584e+00 3.187732e+01 1.379469e+00 2.504411e+01 1.257725e+00 1.820551e+01 1.131062e+00 1.135509e+01 1.010599e+00 4.486740e+00 9.046875e-01 -2.401388e+00 8.163105e-01 -9.304764e+00 7.427838e-01 -1.621297e+01 6.777268e-01 -2.311344e+01 6.159202e-01 -2.999762e+01 5.580734e-01 -3.686468e+01 5.113831e-01 -4.371886e+01 4.856483e-01 -5.056411e+01 4.891874e-01 -5.740032e+01 5.268848e-01 -6.422212e+01 5.996617e-01 -7.101908e+01 7.045549e-01 -7.777606e+01 8.333199e-01 -8.447349e+01 9.712908e-01 -9.109041e+01 
1.526778e+00 -9.663588e+01 1.539215e+00 -1.033254e+02 1.498082e+00 1.052927e+02 1.596021e+00 9.867537e+01 1.647960e+00 9.209672e+01 1.674916e+00 8.551335e+01 1.690730e+00 7.890176e+01 1.701931e+00 7.225374e+01 1.709248e+00 6.557104e+01 1.710344e+00 5.885991e+01 1.702486e+00 5.212750e+01 1.683680e+00 4.538056e+01 1.652621e+00 3.862494e+01 1.608777e+00 3.186512e+01 1.552772e+00 2.510342e+01 1.487117e+00 1.833956e+01 1.416408e+00 1.157113e+01 1.346449e+00 4.794987e+00 1.282756e+00 -1.990785e+00 1.229057e+00 -8.785698e+00 1.186665e+00 -1.558653e+01 1.154749e+00 -2.238840e+01 1.132110e+00 -2.918726e+01 1.119200e+00 -3.598143e+01 1.118403e+00 -4.277058e+01 1.132405e+00 -4.955369e+01 1.162643e+00 -5.632820e+01 1.208763e+00 -6.309049e+01 1.268602e+00 -6.983680e+01 1.338330e+00 -7.656411e+01 1.411645e+00 -8.327074e+01 1.478857e+00 -8.995832e+01 
8.476804e-01 -9.989396e+01 8.551372e-01 -1.068660e+02 8.042798e-01 1.080190e+02 9.970032e-01 1.011168e+02 1.135569e+00 9.426108e+01 1.239934e+00 8.741198e+01 1.323567e+00 8.054852e+01 1.392403e+00 7.366407e+01 1.446223e+00 6.676091e+01 1.481454e+00 5.984514e+01 1.494173e+00 5.292314e+01 1.482014e+00 4.600007e+01 1.444789e+00 3.907936e+01 1.384508e+00 3.216238e+01 1.305260e+00 2.524813e+01 1.213059e+00 1.833330e+01 1.115219e+00 1.141321e+01 1.019016e+00 4.483634e+00 9.300372e-01 -2.457327e+00 8.509561e-01 -9.408194e+00 7.814595e-01 -1.636461e+01 7.194548e-01 -2.332138e+01 6.633565e-01 -3.027529e+01 6.141306e-01 -3.722675e+01 5.755814e-01 -4.417894e+01 5.527836e-01 -5.113545e+01 5.500681e-01 -5.809840e+01 5.696181e-01 -6.506754e+01 6.107150e-01 -7.204027e+01 6.692880e-01 -7.901229e+01 7.372523e-01 -8.597888e+01 8.021386e-01 -9.293777e+01 
1.263696e+00 -9.909873e+01 1.197999e+00 -1.063243e+02 1.067566e+00 1.084012e+02 1.253685e+00 1.012267e+02 1.379652e+00 9.417808e+01 1.464982e+00 8.720708e+01 1.524029e+00 8.028070e+01 1.565548e+00 7.337890e+01 1.593750e+00 6.649109e+01 1.609970e+00 5.961252e+01 1.614285e+00 5.274148e+01 1.606530e+00 4.587769e+01 1.586736e+00 3.902125e+01 1.555416e+00 3.217193e+01 1.513861e+00 2.532863e+01 1.464428e+00 1.848911e+01 1.410520e+00 1.165016e+01 1.356105e+00 4.808432e+00 1.304927e+00 -2.038775e+00 1.259750e+00 -8.892836e+00 1.222016e+00 -1.575377e+01 1.192045e+00 -2.262090e+01 1.169794e+00 -2.949394e+01 1.155659e+00 -3.637375e+01 1.150585e+00 -4.326215e+01 1.155430e+00 -5.016127e+01 1.170192e+00 -5.707328e+01 1.193537e+00 -6.400075e+01 1.222546e+00 -7.094734e+01 1.252501e+00 -7.791876e+01 1.276403e+00 -8.492384e+01 1.284441e+00 -9.197651e+01 
6.029387e-01 -1.021185e+02 5.268921e-01 -1.095874e+02 3.816403e-01 1.108815e+02 6.532041e-01 1.034587e+02 8.571474e-01 9.616739e+01 1.012152e+00 8.896191e+01 1.132053e+00 8.181136e+01 1.225045e+00 7.469698e+01 1.294681e+00 6.760867e+01 1.341599e+00 6.054157e+01 1.365383e+00 5.349330e+01 1.365941e+00 4.646233e+01 1.344234e+00 3.944699e+01 1.302534e+00 3.244495e+01 1.244423e+00 2.545285e+01 1.174588e+00 1.846639e+01 1.098344e+00 1.148082e+01 1.020837e+00 4.491886e+00 9.461704e-01 -2.503316e+00 8.768054e-01 -9.505894e+00 8.135549e-01 -1.651554e+01 7.562347e-01 -2.353167e+01 7.047424e-01 -3.055479e+01 6.599615e-01 -3.758737e+01 6.238844e-01 -4.463363e+01 5.988951e-01 -5.169859e+01 5.867066e-01 -5.878720e+01 5.874259e-01 -6.590399e+01 5.988752e-01 -7.305324e+01 6.160897e-01 -8.023979e+01 6.308676e-01 -8.747053e+01 6.315145e-01 -9.475690e+01 
1.010658e+00 -1.014236e+02 8.708831e-01 -1.091277e+02 6.545608e-01 1.113623e+02 9.218740e-01 1.036883e+02 1.116210e+00 9.621007e+01 1.256725e+00 8.887674e+01 1.358439e+00 8.164933e+01 1.431804e+00 7.449965e+01 1.483454e+00 6.740819e+01 1.517304e+00 6.036163e+01 1.535657e+00 5.335082e+01 1.540033e+00 4.636916e+01 1.531711e+00 3.941152e+01 1.512077e+00 3.247342e+01 1.482880e+00 2.555053e+01 1.446390e+00 1.863832e+01 1.405360e+00 1.173212e+01 1.362752e+00 4.827413e+00 1.321325e+00 -2.079848e+00 1.283237e+00 -8.992959e+00 1.249857e+00 -1.591456e+01 1.221843e+00 -2.284703e+01 1.199463e+00 -2.979312e+01 1.182893e+00 -3.675640e+01 1.172236e+00 -4.374137e+01 1.167222e+00 -5.075345e+01 1.166772e+00 -5.779903e+01 1.168631e+00 -6.488596e+01 1.169062e+00 -7.202413e+01 1.162542e+00 -7.922651e+01 1.141364e+00 -8.651033e+01 1.095195e+00 -9.389882e+01 
3.700472e-01 -1.042059e+02 2.171164e-01 -1.121164e+02 -1.667933e-02 1.135858e+02 3.270950e-01 1.056996e+02 5.910461e-01 9.801239e+01 7.937147e-01 9.047536e+01 9.496608e-01 8.305118e+01 1.068871e+00 7.571275e+01 1.157516e+00 6.844105e+01 1.219120e+00 6.122277e+01 1.255814e+00 5.404829e+01 1.269349e+00 4.691014e+01 1.261757e+00 3.980197e+01 1.235680e+00 3.271790e+01 1.194444e+00 2.565207e+01 1.141941e+00 1.859862e+01 1.082314e+00 1.155179e+01 1.019500e+00 4.506392e+00 9.567529e-01 -2.541899e+00 8.963321e-01 -9.596402e+00 8.395023e-01 -1.665975e+01 7.868551e-01 -2.373458e+01 7.388083e-01 -3.082428e+01 6.959963e-01 -3.793354e+01 6.592926e-01 -4.506844e+01 6.294218e-01 -5.223613e+01 6.063438e-01 -5.944464e+01 5.886210e-01 -6.670286e+01 5.728707e-01 -7.402093e+01 5.533045e-01 -8.141118e+01 5.213310e-01 -8.888954e+01 4.652513e-01 -9.647769e+01 
7.746464e-01 -1.035475e+02 5.670308e-01 -1.116699e+02 2.714845e-01 1.140882e+02 6.120477e-01 1.059762e+02 8.682093e-01 9.811601e+01 1.059346e+00 9.045522e+01 1.201237e+00 8.295110e+01 1.305677e+00 7.556991e+01 1.381068e+00 6.828567e+01 1.433219e+00 6.107857e+01 1.466164e+00 5.393338e+01 1.482842e+00 4.683817e+01 1.485609e+00 3.978325e+01 1.476593e+00 3.276036e+01 1.457938e+00 2.576214e+01 1.431926e+00 1.878176e+01 1.400978e+00 1.181274e+01 1.367506e+00 4.849029e+00 1.333700e+00 -2.114989e+00 1.301315e+00 -9.084459e+00 1.271552e+00 -1.606422e+01 1.245073e+00 -2.305913e+01 1.222108e+00 -3.007448e+01 1.202550e+00 -3.711637e+01 1.185914e+00 -4.419199e+01 1.171148e+00 -5.130985e+01 1.156351e+00 -5.848009e+01 1.138467e+00 -6.571495e+01 1.112996e+00 -7.302954e+01 1.073657e+00 -8.044273e+01 1.012017e+00 -8.797839e+01 9.170495e-01 -9.566698e+01 
1.555690e-01 -1.060942e+02 -6.593139e-02 -1.143875e+02 -3.794226e-01 1.160465e+02 2.891795e-02 1.077580e+02 3.466952e-01 9.972218e+01 5.928213e-01 9.188813e+01 7.827074e-01 8.421448e+01 9.277777e-01 7.666843e+01 1.036103e+00 6.922454e+01 1.113265e+00 6.186314e+01 1.163260e+00 5.456879e+01 1.189283e+00 4.732904e+01 1.194288e+00 4.013346e+01 1.181323e+00 3.297291e+01 1.153656e+00 2.583907e+01 1.114745e+00 1.872426e+01 1.068065e+00 1.162133e+01 1.016853e+00 4.523771e+00 9.638416e-01 -2.574257e+00 9.110961e-01 -9.677987e+00 8.599946e-01 -1.679233e+01 8.113719e-01 -2.392235e+01 7.657334e-01 -3.107378e+01 7.234022e-01 -3.825342e+01 6.844796e-01 -4.546940e+01 6.485902e-01 -5.273119e+01 6.144804e-01 -6.004977e+01 5.795650e-01 -6.743786e+01 5.394841e-01 -7.491051e+01 4.876877e-01 -8.248604e+01 4.150463e-01 -9.018741e+01 3.094791e-01 -9.804404e+01 
5.624311e-01 -1.054201e+02 2.949035e-01 -1.138990e+02 -7.084949e-02 1.165069e+02 3.338914e-01 1.080213e+02 6.443473e-01 9.983169e+01 8.803535e-01 9.188515e+01 1.058451e+00 8.413648e+01 1.191514e+00 7.654817e+01 1.289278e+00 6.908962e+01 1.358969e+00 6.173612e+01 1.405954e+00 5.446771e+01 1.434313e+00 4.726809e+01 1.447293e+00 4.012374e+01 1.447651e+00 3.302316e+01 1.437883e+00 2.595627e+01 1.420360e+00 1.891404e+01 1.397353e+00 1.188819e+01 1.370979e+00 4.871046e+00 1.343093e+00 -2.144582e+00 1.315167e+00 -9.165536e+00 1.288217e+00 -1.619853e+01 1.262779e+00 -2.325047e+01 1.238921e+00 -3.032879e+01 1.216243e+00 -3.744184e+01 1.193806e+00 -4.459925e+01 1.169976e+00 -5.181224e+01 1.142205e+00 -5.909413e+01 1.106774e+00 -6.646086e+01 1.058503e+00 -7.393173e+01 9.904264e-01 -8.153036e+01 8.934108e-01 -8.928585e+01 7.557093e-01 -9.723422e+01 
-3.404284e-02 -1.077344e+02 -3.144785e-01 -1.163496e+02 -6.967743e-01 1.181946e+02 -2.326472e-01 1.095679e+02 1.317961e-01 1.012356e+02 4.160151e-01 9.314601e+01 6.362503e-01 8.525489e+01 8.050774e-01 7.752564e+01 9.319754e-01 6.992824e+01 1.024017e+00 6.243830e+01 1.086577e+00 5.503587e+01 1.123957e+00 4.770451e+01 1.139868e+00 4.043034e+01 1.137747e+00 3.320140e+01 1.120925e+00 2.600713e+01 1.092651e+00 1.883803e+01 1.056033e+00 1.168549e+01 1.013895e+00 4.541604e+00 9.686418e-01 -2.600913e+00 9.221582e-01 -9.748918e+00 8.757829e-01 -1.690914e+01 8.303559e-01 -2.408854e+01 7.862891e-01 -3.129478e+01 7.435937e-01 -3.853654e+01 7.018031e-01 -4.582387e+01 6.597742e-01 -5.316841e+01 6.153902e-01 -6.058377e+01 5.652087e-01 -6.808592e+01 5.040868e-01 -7.569390e+01 4.247987e-01 -8.343075e+01 3.176418e-01 -9.132479e+01 1.700182e-01 -9.941130e+01 
3.801082e-01 -1.070019e+02 6.191696e-02 -1.157740e+02 -3.632946e-01 1.185607e+02 9.548295e-02 1.097673e+02 4.517551e-01 1.013044e+02 7.258638e-01 9.311872e+01 9.350388e-01 8.516344e+01 1.093021e+00 7.739850e+01 1.210553e+00 6.979005e+01 1.295921e+00 6.230978e+01 1.355506e+00 5.493413e+01 1.394272e+00 4.764339e+01 1.416178e+00 4.042095e+01 1.424493e+00 3.325260e+01 1.422029e+00 2.612599e+01 1.411271e+00 1.903012e+01 1.394451e+00 1.195507e+01 1.373530e+00 4.891652e+00 1.350162e+00 -2.168746e+00 1.325621e+00 -9.234450e+00 1.300753e+00 -1.631375e+01 1.275937e+00 -2.341521e+01 1.251051e+00 -3.054805e+01 1.225429e+00 -3.772252e+01 1.197770e+00 -4.495029e+01 1.165993e+00 -5.224488e+01 1.127047e+00 -5.962221e+01 1.076669e+00 -6.710117e+01 1.009112e+00 -7.470440e+01 9.168139e-01 -8.245925e+01 7.900200e-01 -9.039882e+01 6.163208e-01 -9.856339e+01 
-1.930036e-01 -1.090888e+02 -5.217198e-01 -1.179628e+02 -9.604990e-01 1.199755e+02 -4.504174e-01 1.110763e+02 -4.741208e-02 1.025035e+02 2.685233e-01 9.420453e+01 5.143510e-01 8.613366e+01 7.035459e-01 7.825159e+01 8.466255e-01 7.052513e+01 9.517432e-01 6.292645e+01 1.025277e+00 5.543227e+01 1.072356e+00 4.802302e+01 1.097286e+00 4.068212e+01 1.103847e+00 3.339528e+01 1.095479e+00 2.615002e+01 1.075360e+00 1.893525e+01 1.046397e+00 1.174098e+01 1.011179e+00 4.558053e+00 9.718939e-01 -2.622083e+00 9.302759e-01 -9.807622e+00 8.875697e-01 -1.700672e+01 8.445285e-01 -2.422785e+01 8.014134e-01 -3.148018e+01 7.579589e-01 -3.877396e+01 7.132751e-01 -4.612089e+01 6.656714e-01 -5.353450e+01 6.124120e-01 -6.103055e+01 5.494187e-01 -6.862764e+01 4.709380e-01 -7.634791e+01 3.691776e-01 -8.421801e+01 2.339090e-01 -9.227031e+01 5.202082e-02 -1.005444e+02 
2.328511e-01 -1.082622e+02 -1.257397e-01 -1.172630e+02 -5.983889e-01 1.202036e+02 -9.662903e-02 1.111699e+02 2.961573e-01 1.024923e+02 6.007651e-01 9.411743e+01 8.349938e-01 8.599765e+01 1.013252e+00 7.809110e+01 1.147025e+00 7.036171e+01 1.245377e+00 6.277861e+01 1.315432e+00 5.531561e+01 1.362813e+00 4.795045e+01 1.392018e+00 4.066416e+01 1.406718e+00 3.344044e+01 1.409979e+00 2.626508e+01 1.404411e+00 1.912552e+01 1.392250e+00 1.201042e+01 1.375384e+00 4.909355e+00 1.355345e+00 -2.187495e+00 1.333271e+00 -9.289662e+00 1.309872e+00 -1.640668e+01 1.285379e+00 -2.354845e+01 1.259500e+00 -3.072557e+01 1.231347e+00 -3.794980e+01 1.199341e+00 -4.523443e+01 1.161062e+00 -5.259479e+01 1.113076e+00 -6.004881e+01 1.050698e+00 -6.761767e+01 9.677306e-01 -7.532653e+01 8.561314e-01 -8.320550e+01 7.056318e-01 -9.129072e+01 5.032725e-01 -9.962557e+01 
-3.164905e-01 -1.101283e+02 -6.820623e-01 -1.191975e+02 -1.163997e+00 1.213468e+02 -6.186733e-01 1.122424e+02 -1.860185e-01 1.034872e+02 1.544291e-01 9.502864e+01 4.201993e-01 8.681980e+01 6.254306e-01 7.881965e+01 7.813786e-01 7.099288e+01 8.969522e-01 6.330929e+01 9.792332e-01 5.574322e+01 1.033942e+00 4.827288e+01 1.065821e+00 4.087964e+01 1.078924e+00 3.354745e+01 1.076807e+00 2.626234e+01 1.062635e+00 1.901193e+01 1.039222e+00 1.178511e+01 1.009016e+00 4.571702e+00 9.740696e-01 -2.637850e+00 9.359998e-01 -9.852771e+00 8.959535e-01 -1.708229e+01 8.545803e-01 -2.433599e+01 8.119947e-01 -3.162421e+01 7.677113e-01 -3.895839e+01 7.205337e-01 -4.635153e+01 6.683894e-01 -5.381860e+01 6.081101e-01 -6.137704e+01 5.351639e-01 -6.904742e+01 4.433453e-01 -7.685415e+01 3.244238e-01 -8.482652e+01 1.677436e-01 -9.299976e+01 -4.023760e-02 -1.014165e+02 
1.247748e-01 -1.091780e+02 -2.631979e-01 -1.183428e+02 -7.703501e-01 1.214013e+02 -2.373821e-01 1.121952e+02 1.819564e-01 1.033632e+02 5.088077e-01 9.485170e+01 7.613938e-01 8.661248e+01 9.545965e-01 7.860262e+01 1.100419e+00 7.078458e+01 1.208455e+00 6.312581e+01 1.286339e+00 5.559833e+01 1.340149e+00 4.817812e+01 1.374762e+00 4.084455e+01 1.394134e+00 3.357982e+01 1.401524e+00 2.636839e+01 1.399641e+00 1.919652e+01 1.390745e+00 1.205183e+01 1.376692e+00 4.922966e+00 1.358942e+00 -2.200813e+00 1.338547e+00 -9.329920e+00 1.316113e+00 -1.647481e+01 1.291763e+00 -2.364632e+01 1.265070e+00 -3.085608e+01 1.234985e+00 -3.811691e+01 1.199724e+00 -4.544329e+01 1.156632e+00 -5.285184e+01 1.102001e+00 -6.036194e+01 1.030848e+00 -6.799635e+01 9.366456e-01 -7.578204e+01 8.110009e-01 -8.375103e+01 6.432653e-01 -9.194154e+01 4.200706e-01 -1.003991e+02 
-4.007993e-01 -1.108324e+02 -7.912491e-01 -1.200320e+02 -1.302323e+00 1.222779e+02 -7.331394e-01 1.130361e+02 -2.803740e-01 1.041585e+02 7.675591e-02 9.559239e+01 3.561681e-01 8.729011e+01 5.724393e-01 7.920967e+01 7.373006e-01 7.131439e+01 8.601424e-01 6.357263e+01 9.484949e-01 5.595720e+01 1.008459e+00 4.844486e+01 1.045066e+00 4.101562e+01 1.062557e+00 3.365227e+01 1.064579e+00 2.633979e+01 1.054311e+00 1.906494e+01 1.034521e+00 1.181580e+01 1.007585e+00 4.581493e+00 9.754716e-01 -2.648246e+00 9.397197e-01 -9.883338e+00 9.014005e-01 -1.713373e+01 8.610797e-01 -2.440976e+01 8.187613e-01 -3.172253e+01 7.738079e-01 -3.908430e+01 7.248229e-01 -4.650897e+01 6.694894e-01 -5.401246e+01 6.043624e-01 -6.161338e+01 5.246167e-01 -6.933358e+01 4.237480e-01 -7.719900e+01 2.932276e-01 -8.524061e+01 1.221015e-01 -9.349550e+01 -1.034774e-01 -1.020082e+02 
5.885956e-02 -1.097335e+02 -3.469579e-01 -1.189968e+02 -8.750618e-01 1.221295e+02 -3.231753e-01 1.128199e+02 1.122756e-01 1.038947e+02 4.526494e-01 9.530064e+01 7.164270e-01 8.698900e+01 9.187742e-01 7.891631e+01 1.071998e+00 7.104419e+01 1.186004e+00 6.333915e+01 1.268723e+00 5.577216e+01 1.326502e+00 4.831816e+01 1.364441e+00 4.095556e+01 1.386669e+00 3.366564e+01 1.396560e+00 2.643206e+01 1.396891e+00 1.924036e+01 1.389941e+00 1.207753e+01 1.377554e+00 4.931612e+00 1.361153e+00 -2.208681e+00 1.341740e+00 -9.354308e+00 1.319861e+00 -1.651628e+01 1.295567e+00 -2.370601e+01 1.268349e+00 -3.093575e+01 1.237057e+00 -3.821896e+01 1.199787e+00 -4.557084e+01 1.153741e+00 -5.300878e+01 1.095048e+00 -6.055303e+01 1.018544e+00 -6.822731e+01 9.175047e-01 -7.605962e+01 7.833216e-01 -8.408316e+01 6.051141e-01 -9.233734e+01 3.692635e-01 -1.008689e+02 
-4.434265e-01 -1.111875e+02 -8.464192e-01 -1.204524e+02 -1.372183e+00 1.227485e+02 -7.909722e-01 1.134379e+02 -3.280588e-01 1.044989e+02 3.750506e-02 9.587862e+01 3.238336e-01 8.752920e+01 5.457219e-01 7.940813e+01 7.151344e-01 7.147813e+01 8.416961e-01 6.370682e+01 9.331561e-01 5.606629e+01 9.958015e-01 4.853255e+01 1.034807e+00 4.108499e+01 1.054508e+00 3.370578e+01 1.058604e+00 2.637939e+01 1.050282e+00 1.909211e+01 1.032295e+00 1.183165e+01 1.006985e+00 4.586715e+00 9.762837e-01 -2.653282e+00 9.416880e-01 -9.898626e+00 9.042290e-01 -1.715963e+01 8.644258e-01 -2.444699e+01 8.222236e-01 -3.177222e+01 7.769072e-01 -3.914798e+01 7.269803e-01 -4.658861e+01 6.700062e-01 -5.411056e+01 6.024051e-01 -6.173297e+01 5.192069e-01 -6.947836e+01 4.137587e-01 -7.737343e+01 2.773816e-01 -8.544996e+01 9.896915e-02 -9.374598e+01 -1.354823e-01 -1.023070e+02 
3.690793e-02 -1.099194e+02 -3.749128e-01 -1.192156e+02 -9.100611e-01 1.223740e+02 -3.518542e-01 1.130298e+02 8.898097e-02 1.040735e+02 4.338771e-01 9.545178e+01 7.014024e-01 8.711587e+01 9.068180e-01 7.902209e+01 1.062532e+00 7.113181e+01 1.178552e+00 6.341120e+01 1.262906e+00 5.583090e+01 1.322032e+00 4.836553e+01 1.361101e+00 4.099315e+01 1.384301e+00 3.369475e+01 1.395044e+00 2.645371e+01 1.396129e+00 1.925534e+01 1.389845e+00 1.208641e+01 1.378029e+00 4.934755e+00 1.362094e+00 -2.211087e+00 1.343023e+00 -9.362268e+00 1.321342e+00 -1.652998e+01 1.297078e+00 -2.372584e+01 1.269692e+00 -3.096229e+01 1.238000e+00 -3.825302e+01 1.200057e+00 -4.561346e+01 1.153017e+00 -5.306127e+01 1.092956e+00 -6.061698e+01 1.014649e+00 -6.830463e+01 9.113048e-01 -7.615257e+01 7.742445e-01 -8.419438e+01 5.925094e-01 -9.246986e+01 3.523971e-01 -1.010262e+02 
-4.431113e-01 -1.111870e+02 -8.461369e-01 -1.204520e+02 -1.371934e+00 1.227488e+02 -7.907531e-01 1.134381e+02 -3.278675e-01 1.044991e+02 3.767226e-02 9.587880e+01 3.239812e-01 8.752936e+01 5.458551e-01 7.940828e+01 7.152587e-01 7.147828e+01 8.418171e-01 6.370697e+01 9.332795e-01 5.606644e+01 9.959330e-01 4.853272e+01 1.034952e+00 4.108518e+01 1.054672e+00 3.370599e+01 1.058790e+00 2.637962e+01 1.050496e+00 1.909236e+01 1.032539e+00 1.183192e+01 1.007262e+00 4.587011e+00 9.765933e-01 -2.652963e+00 9.420301e-01 -9.898284e+00 9.046015e-01 -1.715926e+01 8.648252e-01 -2.444661e+01 8.226455e-01 -3.177181e+01 7.773458e-01 -3.914755e+01 7.274295e-01 -4.658816e+01 6.704591e-01 -5.411009e+01 6.028549e-01 -6.173249e+01 5.196469e-01 -6.947787e+01 4.141828e-01 -7.737294e+01 2.777843e-01 -8.544947e+01 9.934580e-02 -9.374550e+01 -1.351352e-01 -1.023065e+02 