# vtk DataFile Version 2.0
Comment goes here
ASCII

DATASET STRUCTURED_POINTS
FIELD FieldData 1
TIME 1 1 double
0.02600000
DIMENSIONS    64   64   1

ORIGIN    0.000   0.000   0.000
SPACING   0.03125 0.03125   1.000

POINT_DATA   4096
SCALARS P double
LOOKUP_TABLE default

-4.183749e+01 -2.165880e+02 -3.740324e+01 -2.223805e+02 -5.433836e+01 1.039097e+02 -4.553483e+01 9.735861e+01 -4.621787e+01 8.941739e+01 -4.796804e+01 8.133043e+01 -4.376447e+01 6.507160e+01 -3.195972e+01 4.344698e+01 -2.163722e+01 2.988204e+01 -1.857097e+01 1.752175e+01 -1.359938e+01 3.953240e+00 -1.234395e+01 -5.726068e+00 -1.578198e+01 -1.098268e+01 -2.231672e+01 -1.649684e+01 -2.969380e+01 -1.986792e+01 -4.267103e+01 -1.794966e+01 -5.437654e+01 -2.362124e+01 -5.959099e+01 -3.078169e+01 -6.388411e+01 -4.398407e+01 -5.724708e+01 -6.700183e+01 -4.384073e+01 -9.201518e+01 -3.732733e+01 -1.017589e+02 -4.896227e+01 -9.887849e+01 -6.296613e+01 -9.733402e+01 -7.428466e+01 -9.780724e+01 -8.677932e+01 -9.896518e+01 -9.148660e+01 -1.077439e+02 -9.225869e+01 -1.195359e+02 -8.966296e+01 -1.344916e+02 -8.474987e+01 -1.516526e+02 -7.466718e+01 -1.735377e+02 -5.828612e+01 -1.979354e+02 
-1.114723e+01 -1.370839e+02 -9.466307e+00 -1.412337e+02 -2.154174e+01 1.000329e+02 -1.402107e+01 9.456159e+01 -1.435692e+01 8.851872e+01 -1.579587e+01 8.277086e+01 -1.437163e+01 7.260700e+01 -8.901867e+00 5.934669e+01 -4.288831e+00 5.064660e+01 -3.648264e+00 4.222561e+01 -1.348423e+00 3.266719e+01 -8.249009e-01 2.502830e+01 -2.517391e+00 1.960392e+01 -5.516807e+00 1.357244e+01 -8.377466e+00 8.435482e+00 -1.436837e+01 6.550943e+00 -1.976446e+01 3.708284e-01 -2.173740e+01 -5.992363e+00 -2.415870e+01 -1.498868e+01 -2.100504e+01 -2.913814e+01 -1.412706e+01 -4.473201e+01 -1.051452e+01 -5.233179e+01 -1.637217e+01 -5.373148e+01 -2.261521e+01 -5.654667e+01 -2.701232e+01 -6.049010e+01 -3.253438e+01 -6.426050e+01 -3.405693e+01 -7.178115e+01 -3.408225e+01 -8.034086e+01 -3.278020e+01 -9.000287e+01 -3.085558e+01 -1.003016e+02 -2.655281e+01 -1.126621e+02 -1.905593e+01 -1.263125e+02 
3.771332e+00 -8.509297e+01 4.024504e+00 -8.773096e+01 5.575730e-01 9.075667e+01 3.676263e+00 8.738873e+01 3.792492e+00 8.323082e+01 3.403914e+00 7.879515e+01 3.228650e+00 7.330834e+01 3.631630e+00 6.691376e+01 3.889084e+00 6.118098e+01 3.426315e+00 5.521555e+01 3.539557e+00 4.878047e+01 3.442448e+00 4.259292e+01 3.094258e+00 3.669599e+01 2.659747e+00 3.046032e+01 2.509144e+00 2.419489e+01 1.735483e+00 1.866504e+01 1.017687e+00 1.224216e+01 9.101954e-01 6.015093e+00 2.627949e-01 -3.152255e-01 3.728853e-01 -7.399471e+00 1.168555e+00 -1.491078e+01 1.658797e+00 -2.121977e+01 7.331517e-01 -2.682719e+01 2.053250e-01 -3.300830e+01 2.280471e-01 -3.938060e+01 -1.333209e-01 -4.539028e+01 1.410282e-01 -5.179838e+01 4.527290e-01 -5.807688e+01 9.075823e-01 -6.417487e+01 1.256494e+00 -6.990663e+01 1.832968e+00 -7.543770e+01 2.781839e+00 -8.072051e+01 
3.305331e+00 -8.930395e+01 3.845919e+00 -9.283305e+01 4.069461e+00 9.438611e+01 3.469130e+00 9.065828e+01 3.124122e+00 8.607081e+01 2.791881e+00 8.093317e+01 2.776399e+00 7.497518e+01 3.200979e+00 6.843119e+01 3.609303e+00 6.209939e+01 3.669649e+00 5.573655e+01 3.810942e+00 4.921221e+01 3.732262e+00 4.285388e+01 3.351210e+00 3.670617e+01 2.796406e+00 3.050890e+01 2.227742e+00 2.438979e+01 1.357323e+00 1.854698e+01 5.492148e-01 1.227599e+01 1.309315e-01 5.811470e+00 -1.913773e-01 -1.003260e+00 8.546640e-02 -8.395947e+00 7.903700e-01 -1.589712e+01 1.130838e+00 -2.252645e+01 5.476980e-01 -2.846641e+01 -1.202739e-01 -3.446774e+01 -5.619167e-01 -4.059161e+01 -9.847385e-01 -4.670881e+01 -9.922831e-01 -5.310939e+01 -7.782870e-01 -5.959873e+01 -3.851966e-01 -6.604446e+01 1.158264e-01 -7.234923e+01 9.310959e-01 -7.851671e+01 2.080802e+00 -8.433929e+01 
3.303835e+00 -8.532374e+01 3.746179e+00 -8.869605e+01 4.204129e+00 9.156561e+01 3.779017e+00 8.801745e+01 3.579460e+00 8.371146e+01 3.362535e+00 7.888322e+01 3.259254e+00 7.344111e+01 3.338416e+00 6.753537e+01 3.382794e+00 6.160908e+01 3.244920e+00 5.554406e+01 3.183075e+00 4.930610e+01 3.047843e+00 4.309165e+01 2.800925e+00 3.693449e+01 2.497747e+00 3.070227e+01 2.207093e+00 2.447540e+01 1.758069e+00 1.837785e+01 1.329419e+00 1.205280e+01 1.072967e+00 5.669055e+00 8.070109e-01 -8.444788e-01 8.132775e-01 -7.627834e+00 1.043563e+00 -1.449277e+01 1.142425e+00 -2.096612e+01 8.389076e-01 -2.715092e+01 5.747496e-01 -3.341510e+01 4.754144e-01 -3.972809e+01 3.906004e-01 -4.596729e+01 5.232018e-01 -5.226159e+01 7.665265e-01 -5.847566e+01 1.103358e+00 -6.452646e+01 1.482203e+00 -7.032117e+01 1.983325e+00 -7.583039e+01 2.620685e+00 -8.093209e+01 
2.709391e+00 -8.958371e+01 3.249101e+00 -9.364309e+01 3.594029e+00 9.512171e+01 3.287331e+00 9.113247e+01 3.019077e+00 8.638842e+01 2.828837e+00 8.107067e+01 2.808954e+00 7.521632e+01 2.969660e+00 6.899115e+01 3.151672e+00 6.267545e+01 3.228532e+00 5.629313e+01 3.250202e+00 4.985144e+01 3.137322e+00 4.345292e+01 2.857044e+00 3.712688e+01 2.452840e+00 3.081891e+01 1.978627e+00 2.454577e+01 1.414743e+00 1.830529e+01 8.938083e-01 1.190082e+01 5.424255e-01 5.323839e+00 3.483087e-01 -1.470812e+00 4.101906e-01 -8.488491e+00 6.204434e-01 -1.550200e+01 6.846899e-01 -2.217913e+01 4.311963e-01 -2.853926e+01 7.973187e-02 -3.481967e+01 -2.131081e-01 -4.111279e+01 -4.202865e-01 -4.743131e+01 -4.300010e-01 -5.384022e+01 -2.662344e-01 -6.027964e+01 4.898548e-02 -6.666835e+01 5.007562e-01 -7.292293e+01 1.131076e+00 -7.895836e+01 1.913436e+00 -8.460417e+01 
2.990399e+00 -8.667909e+01 3.419624e+00 -9.079287e+01 3.818690e+00 9.334268e+01 3.578177e+00 8.928200e+01 3.380165e+00 8.464940e+01 3.218945e+00 7.954780e+01 3.124864e+00 7.401945e+01 3.101472e+00 6.817117e+01 3.075147e+00 6.216749e+01 2.994845e+00 5.603563e+01 2.903407e+00 4.979915e+01 2.767623e+00 4.352859e+01 2.572513e+00 3.725027e+01 2.335093e+00 3.094383e+01 2.073839e+00 2.462877e+01 1.766665e+00 1.831732e+01 1.472885e+00 1.191975e+01 1.248290e+00 5.449790e+00 1.079058e+00 -1.111321e+00 1.026837e+00 -7.778138e+00 1.057991e+00 -1.445668e+01 1.046042e+00 -2.099216e+01 9.157178e-01 -2.739724e+01 7.827246e-01 -3.377965e+01 7.135917e-01 -4.015486e+01 7.039117e-01 -4.649613e+01 8.035847e-01 -5.281294e+01 9.949392e-01 -5.905070e+01 1.263887e+00 -6.514879e+01 1.595572e+00 -7.104168e+01 2.004428e+00 -7.666874e+01 2.483588e+00 -8.193298e+01 
2.315147e+00 -9.084388e+01 2.775727e+00 -9.551796e+01 3.126369e+00 9.681689e+01 2.974025e+00 9.229689e+01 2.813023e+00 8.723804e+01 2.700882e+00 8.172082e+01 2.677135e+00 7.581677e+01 2.735956e+00 6.963581e+01 2.813106e+00 6.330892e+01 2.848042e+00 5.689611e+01 2.824341e+00 5.043455e+01 2.710205e+00 4.397179e+01 2.492574e+00 3.752913e+01 2.189237e+00 3.109761e+01 1.829152e+00 2.467171e+01 1.436126e+00 1.822750e+01 1.072581e+00 1.169569e+01 7.982585e-01 5.050062e+00 6.321351e-01 -1.719889e+00 5.882736e-01 -8.584534e+00 6.069032e-01 -1.543353e+01 5.732427e-01 -2.213867e+01 4.260193e-01 -2.868904e+01 2.281927e-01 -3.516246e+01 5.433909e-02 -4.161537e+01 -5.043588e-02 -4.807345e+01 -3.856731e-02 -5.455352e+01 9.712953e-02 -6.102746e+01 3.513187e-01 -6.744279e+01 7.175171e-01 -7.373264e+01 1.195085e+00 -7.981425e+01 1.753256e+00 -8.556932e+01 
2.713928e+00 -8.868076e+01 3.068123e+00 -9.350628e+01 3.386973e+00 9.581772e+01 3.260770e+00 9.111118e+01 3.126405e+00 8.603801e+01 3.011702e+00 8.062386e+01 2.931428e+00 7.490806e+01 2.881640e+00 6.895657e+01 2.833704e+00 6.284843e+01 2.764466e+00 5.662612e+01 2.674450e+00 5.032157e+01 2.552747e+00 4.397109e+01 2.394062e+00 3.759487e+01 2.204765e+00 3.119592e+01 1.994164e+00 2.477964e+01 1.767634e+00 1.834266e+01 1.551346e+00 1.185779e+01 1.371391e+00 5.319683e+00 1.236196e+00 -1.275136e+00 1.159327e+00 -7.917192e+00 1.121904e+00 -1.455995e+01 1.077824e+00 -2.114483e+01 1.003603e+00 -2.766607e+01 9.330942e-01 -3.415390e+01 8.987537e-01 -4.061896e+01 9.151634e-01 -4.705379e+01 1.000638e+00 -5.344870e+01 1.154359e+00 -5.977264e+01 1.370176e+00 -6.598479e+01 1.641106e+00 -7.203869e+01 1.965158e+00 -7.788412e+01 2.331597e+00 -8.345741e+01 
1.994497e+00 -9.268892e+01 2.351725e+00 -9.799137e+01 2.639624e+00 9.916849e+01 2.600255e+00 9.402449e+01 2.533764e+00 8.854708e+01 2.483189e+00 8.275457e+01 2.471690e+00 7.669145e+01 2.495788e+00 7.042375e+01 2.526756e+00 6.402355e+01 2.532436e+00 5.754111e+01 2.492521e+00 5.101209e+01 2.389928e+00 4.446608e+01 2.218935e+00 3.791893e+01 1.989086e+00 3.137140e+01 1.719342e+00 2.481674e+01 1.433411e+00 1.823714e+01 1.165882e+00 1.160318e+01 9.485095e-01 4.898885e+00 7.960737e-01 -1.875557e+00 7.077786e-01 -8.694998e+00 6.532484e-01 -1.550450e+01 5.856000e-01 -2.224831e+01 4.807822e-01 -2.891400e+01 3.594618e-01 -3.552740e+01 2.575989e-01 -4.211695e+01 2.066175e-01 -4.869979e+01 2.326740e-01 -5.528058e+01 3.461208e-01 -6.184225e+01 5.471657e-01 -6.835013e+01 8.306625e-01 -7.475610e+01 1.186565e+00 -8.099948e+01 1.589404e+00 -8.700492e+01 
2.437571e+00 -9.104065e+01 2.696163e+00 -9.654425e+01 2.915414e+00 9.873633e+01 2.886585e+00 9.335800e+01 2.827499e+00 8.778658e+01 2.764948e+00 8.200742e+01 2.711918e+00 7.603361e+01 2.668047e+00 6.989817e+01 2.621962e+00 6.364192e+01 2.562168e+00 5.729670e+01 2.483532e+00 5.088807e+01 2.380920e+00 4.443851e+01 2.252597e+00 3.796251e+01 2.102158e+00 3.146618e+01 1.936236e+00 2.495175e+01 1.763155e+00 1.841579e+01 1.597294e+00 1.184840e+01 1.452872e+00 5.245298e+00 1.337812e+00 -1.392665e+00 1.255671e+00 -8.055451e+00 1.197494e+00 -1.471954e+01 1.146230e+00 -2.135945e+01 1.094243e+00 -2.796783e+01 1.053271e+00 -3.455167e+01 1.039229e+00 -4.111475e+01 1.063866e+00 -4.765324e+01 1.136463e+00 -5.415755e+01 1.258828e+00 -6.060852e+01 1.428181e+00 -6.698035e+01 1.639543e+00 -7.324321e+01 1.886938e+00 -7.936461e+01 2.159288e+00 -8.530877e+01 
1.697201e+00 -9.486344e+01 1.945412e+00 -1.007810e+02 2.137541e+00 1.019267e+02 2.194922e+00 9.614721e+01 2.211774e+00 9.020110e+01 2.218642e+00 8.407326e+01 2.232660e+00 7.777773e+01 2.254646e+00 7.134703e+01 2.271909e+00 6.482017e+01 2.267412e+00 5.823043e+01 2.227236e+00 5.160364e+01 2.141671e+00 4.495920e+01 2.008334e+00 3.830804e+01 1.833561e+00 3.165217e+01 1.630416e+00 2.498679e+01 1.416367e+00 1.830092e+01 1.212315e+00 1.158042e+01 1.036609e+00 4.817171e+00 8.987582e-01 -1.986448e+00 7.973908e-01 -8.814431e+00 7.182610e-01 -1.563898e+01 6.418494e-01 -2.243380e+01 5.585574e-01 -2.919021e+01 4.766864e-01 -3.591685e+01 4.142968e-01 -4.262731e+01 3.902248e-01 -4.933118e+01 4.198501e-01 -5.602991e+01 5.109653e-01 -6.271306e+01 6.643439e-01 -6.935899e+01 8.750562e-01 -7.593687e+01 1.132169e+00 -8.240859e+01 1.415822e+00 -8.873116e+01 
2.152752e+00 -9.357048e+01 2.310812e+00 -9.971060e+01 2.421439e+00 1.018961e+02 2.484549e+00 9.586629e+01 2.502055e+00 8.978101e+01 2.496450e+00 8.360571e+01 2.480882e+00 7.733116e+01 2.459162e+00 7.096576e+01 2.428332e+00 6.452668e+01 2.383556e+00 5.803147e+01 2.321406e+00 5.149573e+01 2.239592e+00 4.493260e+01 2.138073e+00 3.835097e+01 2.019732e+00 3.175510e+01 1.889769e+00 2.514574e+01 1.755168e+00 1.852038e+01 1.624953e+00 1.187442e+01 1.507752e+00 5.205341e+00 1.409168e+00 -1.485689e+00 1.331058e+00 -8.192232e+00 1.269974e+00 -1.490252e+01 1.219878e+00 -2.160469e+01 1.178615e+00 -2.829356e+01 1.151247e+00 -3.497004e+01 1.145834e+00 -4.163512e+01 1.169575e+00 -4.828671e+01 1.227550e+00 -5.491898e+01 1.321032e+00 -6.152143e+01 1.447942e+00 -6.808011e+01 1.603646e+00 -7.457923e+01 1.781098e+00 -8.100280e+01 1.969419e+00 -8.733622e+01 
1.406449e+00 -9.719159e+01 1.546741e+00 -1.036933e+02 1.629397e+00 1.048959e+02 1.776436e+00 9.850512e+01 1.869887e+00 9.207870e+01 1.933243e+00 8.558418e+01 1.981390e+00 7.901325e+01 2.018710e+00 7.237413e+01 2.041135e+00 6.568320e+01 2.040719e+00 5.895772e+01 2.009902e+00 5.221243e+01 1.943802e+00 4.545831e+01 1.842058e+00 3.870135e+01 1.709542e+00 3.194225e+01 1.555523e+00 2.517721e+01 1.392193e+00 1.839913e+01 1.232936e+00 1.160011e+01 1.089210e+00 4.775580e+00 9.674766e-01 -2.072901e+00 8.678522e-01 -8.936654e+00 7.844359e-01 -1.580199e+01 7.093904e-01 -2.265649e+01 6.392435e-01 -2.949547e+01 5.782026e-01 -3.632250e+01 5.357565e-01 -4.314478e+01 5.226063e-01 -4.996829e+01 5.475490e-01 -5.679461e+01 6.151483e-01 -6.361888e+01 7.251189e-01 -7.042988e+01 8.723542e-01 -7.721134e+01 1.046616e+00 -8.394396e+01 1.231789e+00 -9.060856e+01 
1.862423e+00 -9.613574e+01 1.921264e+00 -1.028638e+02 1.921318e+00 1.051360e+02 2.073597e+00 9.849567e+01 2.166491e+00 9.190836e+01 2.219959e+00 8.532967e+01 2.247700e+00 7.873530e+01 2.256707e+00 7.211620e+01 2.248977e+00 6.547282e+01 2.224128e+00 5.880968e+01 2.181469e+00 5.213244e+01 2.120854e+00 4.544626e+01 2.043421e+00 3.875447e+01 1.951969e+00 3.205810e+01 1.850795e+00 2.535608e+01 1.745356e+00 1.864567e+01 1.641860e+00 1.192348e+01 1.546080e+00 5.187175e+00 1.462094e+00 -1.563278e+00 1.391663e+00 -8.325088e+00 1.334088e+00 -1.509317e+01 1.287663e+00 -2.186256e+01 1.252226e+00 -2.863102e+01 1.230417e+00 -3.539908e+01 1.226389e+00 -4.216796e+01 1.244023e+00 -4.893787e+01 1.285741e+00 -5.570735e+01 1.351598e+00 -6.247311e+01 1.439096e+00 -6.923075e+01 1.543263e+00 -7.597605e+01 1.656486e+00 -8.270653e+01 1.767835e+00 -8.942357e+01 
1.119904e+00 -9.954452e+01 1.156745e+00 -1.065880e+02 1.127167e+00 1.079206e+02 1.359432e+00 1.009599e+02 1.524951e+00 9.406659e+01 1.644027e+00 8.719907e+01 1.731054e+00 8.033430e+01 1.793164e+00 7.346351e+01 1.831580e+00 6.658671e+01 1.844222e+00 5.970779e+01 1.828359e+00 5.283131e+01 1.782539e+00 4.596066e+01 1.707893e+00 3.909687e+01 1.608627e+00 3.223824e+01 1.491650e+00 2.538058e+01 1.365620e+00 1.851813e+01 1.239617e+00 1.164513e+01 1.121397e+00 4.757848e+00 1.015812e+00 -2.143975e+00 9.241434e-01 -9.056884e+00 8.446416e-01 -1.597518e+01 7.746344e-01 -2.289396e+01 7.133071e-01 -2.981205e+01 6.631945e-01 -3.673244e+01 6.294077e-01 -4.366050e+01 6.177229e-01 -5.060156e+01 6.326806e-01 -5.755897e+01 6.760958e-01 -6.453309e+01 7.462776e-01 -7.152129e+01 8.376645e-01 -7.851909e+01 9.405198e-01 -8.552205e+01 1.040688e+00 -9.252864e+01 
1.573725e+00 -9.863496e+01 1.537922e+00 -1.058972e+02 1.430410e+00 1.083253e+02 1.668584e+00 1.011262e+02 1.834238e+00 9.406614e+01 1.946486e+00 8.709578e+01 2.019825e+00 8.018133e+01 2.063598e+00 7.330181e+01 2.083086e+00 6.644545e+01 2.081100e+00 5.960611e+01 2.059402e+00 5.278066e+01 2.019633e+00 4.596714e+01 1.963939e+00 3.916359e+01 1.895294e+00 3.236740e+01 1.817492e+00 2.557518e+01 1.734943e+00 1.878293e+01 1.652293e+00 1.198666e+01 1.573790e+00 5.183127e+00 1.502645e+00 -1.629497e+00 1.440695e+00 -8.451513e+00 1.388490e+00 -1.528216e+01 1.346024e+00 -2.212081e+01 1.313786e+00 -2.896813e+01 1.293268e+00 -3.582627e+01 1.286495e+00 -4.269819e+01 1.295153e+00 -4.958696e+01 1.319794e+00 -5.649547e+01 1.359208e+00 -6.342653e+01 1.410087e+00 -7.038358e+01 1.466810e+00 -7.737176e+01 1.521148e+00 -8.439939e+01 1.561773e+00 -9.147998e+01 
8.415063e-01 -1.018242e+02 7.816955e-01 -1.093596e+02 6.436885e-01 1.108747e+02 9.566089e-01 1.033952e+02 1.189981e+00 9.606474e+01 1.363099e+00 8.883660e+01 1.490749e+00 8.167848e+01 1.582245e+00 7.456997e+01 1.642364e+00 6.749916e+01 1.672995e+00 6.045938e+01 1.674894e+00 5.344651e+01 1.649116e+00 4.645719e+01 1.597980e+00 3.948771e+01 1.525484e+00 3.253342e+01 1.437158e+00 2.558873e+01 1.339489e+00 1.864760e+01 1.239065e+00 1.170433e+01 1.141576e+00 4.754602e+00 1.050979e+00 -2.203894e+00 9.691762e-01 -9.171484e+00 8.963912e-01 -1.614745e+01 8.322338e-01 -2.313162e+01 7.769757e-01 -3.012575e+01 7.322399e-01 -3.713399e+01 7.007003e-01 -4.416213e+01 6.851199e-01 -5.121655e+01 6.872205e-01 -5.830324e+01 7.066919e-01 -6.542731e+01 7.405041e-01 -7.259333e+01 7.824572e-01 -7.980628e+01 8.228518e-01 -8.707327e+01 8.482626e-01 -9.440602e+01 
1.295044e+00 -1.009892e+02 1.171415e+00 -1.087283e+02 9.629303e-01 1.113572e+02 1.282117e+00 1.036573e+02 1.516428e+00 9.616492e+01 1.685119e+00 8.882837e+01 1.803643e+00 8.160798e+01 1.883154e+00 7.447468e+01 1.931281e+00 6.740788e+01 1.953200e+00 6.039307e+01 1.952660e+00 5.341975e+01 1.932788e+00 4.647983e+01 1.896631e+00 3.956649e+01 1.847472e+00 3.267346e+01 1.788905e+00 2.579472e+01 1.724733e+00 1.892443e+01 1.658737e+00 1.205717e+01 1.594328e+00 5.188197e+00 1.534212e+00 -1.686274e+00 1.480229e+00 -8.569157e+00 1.433420e+00 -1.546285e+01 1.394381e+00 -2.236991e+01 1.363702e+00 -2.929367e+01 1.342150e+00 -3.623853e+01 1.330456e+00 -4.320981e+01 1.328831e+00 -5.021361e+01 1.336448e+00 -5.725685e+01 1.350969e+00 -6.434757e+01 1.368188e+00 -7.149563e+01 1.381708e+00 -7.871372e+01 1.382587e+00 -8.601871e+01 1.358870e+00 -9.343349e+01 
5.777287e-01 -1.039545e+02 4.299048e-01 -1.119270e+02 1.914279e-01 1.136557e+02 5.792135e-01 1.057145e+02 8.755031e-01 9.798715e+01 1.099672e+00 9.042419e+01 1.267319e+00 8.298741e+01 1.389533e+00 7.564850e+01 1.473630e+00 6.838699e+01 1.524290e+00 6.118806e+01 1.544783e+00 5.404048e+01 1.538023e+00 4.693516e+01 1.507313e+00 3.986399e+01 1.456703e+00 3.281926e+01 1.390988e+00 2.579341e+01 1.315388e+00 1.877917e+01 1.235050e+00 1.176992e+01 1.154475e+00 4.760070e+00 1.077069e+00 -2.254691e+00 1.004976e+00 -9.277568e+00 9.392851e-01 -1.631127e+01 8.805579e-01 -2.335892e+01 8.294142e-01 -3.042481e+01 7.868376e-01 -3.751483e+01 7.540114e-01 -4.463622e+01 7.317808e-01 -5.179720e+01 7.199537e-01 -5.900663e+01 7.166184e-01 -6.627398e+01 7.175797e-01 -7.360975e+01 7.159149e-01 -8.102649e+01 7.016096e-01 -8.854029e+01 6.612476e-01 -9.617291e+01 
1.034744e+00 -1.031363e+02 8.318572e-01 -1.112922e+02 5.316543e-01 1.141440e+02 9.251268e-01 1.060052e+02 1.222461e+00 9.812833e+01 1.443510e+00 9.046086e+01 1.604729e+00 8.295941e+01 1.718730e+00 7.558946e+01 1.794902e+00 6.832410e+01 1.840203e+00 6.114241e+01 1.859954e+00 5.402800e+01 1.858495e+00 4.696761e+01 1.839675e+00 3.995013e+01 1.807145e+00 3.296589e+01 1.764493e+00 2.600619e+01 1.715228e+00 1.906312e+01 1.662665e+00 1.212948e+01 1.609745e+00 5.198826e+00 1.558868e+00 -1.734571e+00 1.511800e+00 -8.675855e+00 1.469715e+00 -1.562992e+01 1.433342e+00 -2.260187e+01 1.403138e+00 -2.959744e+01 1.379333e+00 -3.662332e+01 1.361779e+00 -4.368730e+01 1.349650e+00 -5.079839e+01 1.341072e+00 -5.796711e+01 1.332751e+00 -6.520591e+01 1.319624e+00 -7.252991e+01 1.294509e+00 -7.995783e+01 1.247707e+00 -8.751334e+01 1.166533e+00 -9.522661e+01 
3.357432e-01 -1.058757e+02 1.100286e-01 -1.142270e+02 -2.181898e-01 1.161799e+02 2.371347e-01 1.078381e+02 5.902539e-01 9.976131e+01 8.610965e-01 9.189880e+01 1.066209e+00 8.420855e+01 1.218145e+00 7.665689e+01 1.326100e+00 6.921723e+01 1.396769e+00 6.186861e+01 1.435255e+00 5.459422e+01 1.445873e+00 4.738015e+01 1.432737e+00 4.021446e+01 1.400091e+00 3.308649e+01 1.352389e+00 2.598655e+01 1.294149e+00 1.890574e+01 1.229692e+00 1.183605e+01 1.162817e+00 4.770399e+00 1.096559e+00 -2.297375e+00 1.033092e+00 -9.372757e+00 9.738245e-01 -1.646099e+01 9.196460e-01 -2.356769e+01 8.711824e-01 -3.069932e+01 8.289071e-01 -3.786362e+01 7.930117e-01 -4.506960e+01 7.630624e-01 -5.232759e+01 7.375319e-01 -5.964926e+01 7.133033e-01 -6.704785e+01 6.852040e-01 -7.453875e+01 6.455858e-01 -8.214051e+01 5.839333e-01 -8.987619e+01 4.864737e-01 -9.777521e+01 
8.005711e-01 -1.050270e+02 5.284132e-01 -1.135379e+02 1.477534e-01 1.166142e+02 6.070484e-01 1.081007e+02 9.603134e-01 9.989240e+01 1.228140e+00 9.193620e+01 1.427943e+00 8.418648e+01 1.573521e+00 7.660507e+01 1.675610e+00 6.916054e+01 1.742531e+00 6.182724e+01 1.780826e+00 5.458412e+01 1.795819e+00 4.741375e+01 1.792041e+00 4.030138e+01 1.773524e+00 3.323431e+01 1.743960e+00 2.620137e+01 1.706751e+00 1.919258e+01 1.664979e+00 1.219893e+01 1.621324e+00 5.212270e+00 1.577982e+00 -1.774902e+00 1.536620e+00 -8.769647e+00 1.498378e+00 -1.577890e+01 1.463928e+00 -2.280986e+01 1.433514e+00 -2.987037e+01 1.406932e+00 -3.696921e+01 1.383396e+00 -4.411646e+01 1.361319e+00 -5.132376e+01 1.338020e+00 -5.860471e+01 1.309417e+00 -6.597542e+01 1.269690e+00 -7.345524e+01 1.210921e+00 -8.106772e+01 1.122686e+00 -8.884183e+01 9.915689e-01 -9.681342e+01 
1.224669e-01 -1.075407e+02 -1.698252e-01 -1.162105e+02 -5.751335e-01 1.183796e+02 -6.109725e-02 1.097008e+02 3.415287e-01 1.013271e+02 6.533656e-01 9.320709e+01 8.918797e-01 8.529625e+01 1.070818e+00 7.755731e+01 1.200790e+00 6.995938e+01 1.289965e+00 6.247695e+01 1.344794e+00 5.508892e+01 1.370645e+00 4.777754e+01 1.372297e+00 4.052762e+01 1.354242e+00 3.332590e+01 1.320820e+00 2.616060e+01 1.276186e+00 1.902116e+01 1.224193e+00 1.189808e+01 1.168219e+00 4.782806e+00 1.111038e+00 -2.332473e+00 1.054756e+00 -9.455065e+00 1.000842e+00 -1.659217e+01 9.502313e-01 -2.375135e+01 9.034118e-01 -3.094090e+01 8.604366e-01 -3.817027e+01 8.207990e-01 -4.545024e+01 7.831788e-01 -5.279317e+01 7.450975e-01 -6.021321e+01 7.025301e-01 -6.772680e+01 6.495057e-01 -7.535329e+01 5.777085e-01 -8.311590e+01 4.760682e-01 -9.104304e+01 3.303159e-01 -9.916996e+01 
5.993412e-01 -1.066224e+02 2.690385e-01 -1.154252e+02 -1.792902e-01 1.187097e+02 3.358655e-01 1.098878e+02 7.366782e-01 1.014046e+02 1.044454e+00 9.320677e+01 1.277450e+00 8.524738e+01 1.450419e+00 7.748580e+01 1.575131e+00 6.988745e+01 1.660939e+00 6.242318e+01 1.715325e+00 5.506847e+01 1.744383e+00 4.780257e+01 1.753211e+00 4.060782e+01 1.746189e+00 3.346896e+01 1.727161e+00 2.637264e+01 1.699527e+00 1.930704e+01 1.666263e+00 1.226150e+01 1.629905e+00 5.226315e+00 1.592516e+00 -1.807570e+00 1.555657e+00 -8.848813e+00 1.520379e+00 -1.590602e+01 1.487229e+00 -2.298809e+01 1.456230e+00 -3.010461e+01 1.426825e+00 -3.726621e+01 1.397753e+00 -4.448491e+01 1.366855e+00 -5.177456e+01 1.330834e+00 -5.915132e+01 1.284973e+00 -6.663422e+01 1.222816e+00 -7.424598e+01 1.135810e+00 -8.201389e+01 1.012883e+00 -8.997101e+01 8.399560e-01 -9.815753e+01 
-5.594633e-02 -1.089132e+02 -4.025626e-01 -1.178392e+02 -8.709412e-01 1.202009e+02 -3.083356e-01 1.112506e+02 1.353373e-01 1.026361e+02 4.813573e-01 9.430525e+01 7.479890e-01 8.621226e+01 9.499210e-01 7.831739e+01 1.098815e+00 7.058670e+01 1.203916e+00 6.299147e+01 1.272656e+00 5.550737e+01 1.311186e+00 4.811371e+01 1.324810e+00 4.079270e+01 1.318268e+00 3.352892e+01 1.295903e+00 2.630877e+01 1.261698e+00 1.912017e+01 1.219248e+00 1.195227e+01 1.171679e+00 4.795174e+00 1.121577e+00 -2.360283e+00 1.070950e+00 -9.522860e+00 1.021223e+00 -1.670127e+01 9.732581e-01 -2.390458e+01 9.273677e-01 -3.114258e+01 8.832658e-01 -3.842618e+01 8.399431e-01 -4.576771e+01 7.954554e-01 -5.318127e+01 7.466437e-01 -6.068314e+01 6.888074e-01 -6.829228e+01 6.153459e-01 -7.603111e+01 5.173743e-01 -8.392645e+01 3.833036e-01 -9.201072e+01 1.983657e-01 -1.003235e+02 
4.367648e-01 -1.078925e+02 6.034219e-02 -1.169232e+02 -4.417169e-01 1.203851e+02 1.181191e-01 1.113222e+02 5.570246e-01 1.026229e+02 8.969078e-01 9.423413e+01 1.156709e+00 8.610788e+01 1.351918e+00 7.820195e+01 1.495076e+00 7.047964e+01 1.596298e+00 6.290933e+01 1.663760e+00 5.546394e+01 1.704142e+00 4.812030e+01 1.722981e+00 4.085845e+01 1.724952e+00 3.366116e+01 1.714053e+00 2.651332e+01 1.693725e+00 1.940155e+01 1.666910e+00 1.231383e+01 1.636066e+00 5.239158e+00 1.603167e+00 -1.832778e+00 1.569684e+00 -8.911914e+00 1.536571e+00 -1.600816e+01 1.504243e+00 -2.313176e+01 1.472530e+00 -3.029367e+01 1.440603e+00 -3.750599e+01 1.406844e+00 -4.478232e+01 1.368678e+00 -5.213826e+01 1.322345e+00 -5.959194e+01 1.262642e+00 -6.716465e+01 1.182610e+00 -7.488165e+01 1.073183e+00 -8.277304e+01 9.227580e-01 -9.087492e+01 7.167049e-01 -9.923069e+01 
-1.943834e-01 -1.099655e+02 -5.823500e-01 -1.190846e+02 -1.098803e+00 1.216020e+02 -4.988392e-01 1.124472e+02 -2.353079e-02 1.036501e+02 3.489387e-01 9.515868e+01 6.374602e-01 8.692599e+01 8.574211e-01 7.891076e+01 1.021237e+00 7.107708e+01 1.138907e+00 6.339397e+01 1.218551e+00 5.583485e+01 1.266880e+00 4.837687e+01 1.289587e+00 4.100034e+01 1.291625e+00 3.368814e+01 1.277385e+00 2.642528e+01 1.250781e+00 1.919842e+01 1.215270e+00 1.199560e+01 1.173828e+00 4.805870e+00 1.128914e+00 -2.380994e+00 1.082443e+00 -9.574844e+00 1.035762e+00 -1.678551e+01 9.896377e-01 -2.402317e+01 9.442172e-01 -3.129877e+01 8.989586e-01 -3.862434e+01 8.524989e-01 -4.601345e+01 8.024636e-01 -5.348157e+01 7.452206e-01 -6.104659e+01 6.755864e-01 -6.872939e+01 5.864921e-01 -7.655465e+01 4.686085e-01 -8.455176e+01 3.099214e-01 -9.275603e+01 9.523984e-02 -1.012101e+02 
3.173507e-01 -1.088151e+02 -9.248863e-02 -1.180090e+02 -6.334984e-01 1.216057e+02 -4.109572e-02 1.123702e+02 4.256120e-01 1.035156e+02 7.889806e-01 9.498877e+01 1.068451e+00 8.674141e+01 1.280036e+00 7.873023e+01 1.436815e+00 7.091714e+01 1.549427e+00 6.326889e+01 1.626530e+00 5.575669e+01 1.675210e+00 4.835565e+01 1.701323e+00 4.104425e+01 1.709761e+00 3.380380e+01 1.704649e+00 2.661791e+01 1.689481e+00 1.947207e+01 1.667194e+00 1.235321e+01 1.640208e+00 5.249375e+00 1.610440e+00 -1.850678e+00 1.579294e+00 -8.957814e+00 1.547642e+00 -1.608288e+01 1.515793e+00 -2.323710e+01 1.483430e+00 -3.043243e+01 1.449528e+00 -3.768201e+01 1.412224e+00 -4.500060e+01 1.368651e+00 -5.240506e+01 1.314729e+00 -5.991494e+01 1.244910e+00 -6.755314e+01 1.151873e+00 -7.534665e+01 1.026175e+00 -8.332756e+01 8.558228e-01 -9.153408e+01 6.257760e-01 -1.000118e+02 
-2.889227e-01 -1.106777e+02 -7.047425e-01 -1.199259e+02 -1.253601e+00 1.225526e+02 -6.282898e-01 1.132610e+02 -1.314846e-01 1.043414e+02 2.590051e-01 9.574173e+01 5.624977e-01 8.741450e+01 7.948440e-01 7.931749e+01 9.689464e-01 7.141357e+01 1.095287e+00 6.367034e+01 1.182422e+00 5.605979e+01 1.237426e+00 4.855770e+01 1.266249e+00 4.114308e+01 1.273996e+00 3.379771e+01 1.265110e+00 2.650558e+01 1.243484e+00 1.925252e+01 1.212507e+00 1.202578e+01 1.175069e+00 4.813680e+00 1.133553e+00 -2.394736e+00 1.089802e+00 -9.610048e+00 1.045097e+00 -1.684282e+01 1.000122e+00 -2.410400e+01 9.549051e-01 -3.140526e+01 9.087305e-01 -3.875945e+01 8.600085e-01 -4.618096e+01 8.060926e-01 -5.368620e+01 7.430494e-01 -6.129416e+01 6.653832e-01 -6.902700e+01 5.657146e-01 -7.691086e+01 4.344110e-01 -8.497684e+01 2.591595e-01 -9.326209e+01 2.446806e-02 -1.018112e+02 
2.443494e-01 -1.093747e+02 -1.857298e-01 -1.186667e+02 -7.503356e-01 1.223476e+02 -1.381358e-01 1.130082e+02 3.454890e-01 1.040600e+02 7.231689e-01 9.544982e+01 1.014649e+00 8.712905e+01 1.236255e+00 7.905390e+01 1.401385e+00 7.118547e+01 1.520985e+00 6.348960e+01 1.603997e+00 5.593650e+01 1.657746e+00 4.850029e+01 1.688279e+00 4.115851e+01 1.700623e+00 3.389158e+01 1.698985e+00 2.668235e+01 1.686898e+00 1.951561e+01 1.667302e+00 1.237766e+01 1.642602e+00 5.255929e+00 1.614683e+00 -1.861378e+00 1.584906e+00 -8.985695e+00 1.554095e+00 -1.612844e+01 1.522486e+00 -2.330141e+01 1.489675e+00 -3.051719e+01 1.454517e+00 -3.778954e+01 1.415004e+00 -4.513393e+01 1.368099e+00 -5.256798e+01 1.309531e+00 -6.011208e+01 1.233546e+00 -6.779007e+01 1.132605e+00 -7.563003e+01 9.970367e-01 -8.366517e+01 8.146077e-01 -9.193493e+01 5.700270e-01 -1.004862e+02 
-3.369166e-01 -1.110370e+02 -7.667512e-01 -1.203498e+02 -1.331918e+00 1.230327e+02 -6.938039e-01 1.136726e+02 -1.861290e-01 1.046916e+02 2.134877e-01 9.603743e+01 5.245806e-01 8.766254e+01 7.632313e-01 7.952420e+01 9.425817e-01 7.158469e+01 1.073348e+00 6.381096e+01 1.164302e+00 5.617429e+01 1.222693e+00 4.864977e+01 1.254601e+00 4.121579e+01 1.265209e+00 3.385354e+01 1.258990e+00 2.654655e+01 1.239834e+00 1.928017e+01 1.211101e+00 1.204127e+01 1.175647e+00 4.817790e+00 1.135811e+00 -2.401594e+00 1.093403e+00 -9.627827e+00 1.049668e+00 -1.687185e+01 1.005241e+00 -2.414497e+01 9.600887e-01 -3.145926e+01 9.134093e-01 -3.882795e+01 8.635016e-01 -4.626586e+01 8.075867e-01 -5.378989e+01 7.415848e-01 -6.141957e+01 6.598469e-01 -6.917770e+01 5.548388e-01 -7.709115e+01 4.167744e-01 -8.519185e+01 2.331876e-01 -9.351787e+01 -1.156933e-02 -1.021148e+02 
2.197212e-01 -1.095623e+02 -2.171411e-01 -1.188870e+02 -7.896529e-01 1.225963e+02 -1.708148e-01 1.132224e+02 3.184871e-01 1.042429e+02 7.009750e-01 9.560484e+01 9.964960e-01 8.725950e+01 1.221481e+00 7.916289e+01 1.389432e+00 7.127588e+01 1.511396e+00 6.356401e+01 1.596408e+00 5.599715e+01 1.651874e+00 4.854910e+01 1.683902e+00 4.119708e+01 1.697563e+00 3.392124e+01 1.697094e+00 2.670414e+01 1.686039e+00 1.953035e+01 1.667344e+00 1.238595e+01 1.643406e+00 5.258187e+00 1.616100e+00 -1.864946e+00 1.586775e+00 -8.995064e+00 1.556235e+00 -1.614378e+01 1.524696e+00 -2.332308e+01 1.491720e+00 -3.054574e+01 1.456125e+00 -3.782576e+01 1.415854e+00 -4.517883e+01 1.367815e+00 -5.262282e+01 1.307674e+00 -6.017841e+01 1.229608e+00 -6.786975e+01 1.126007e+00 -7.572526e+01 9.871212e-01 -8.377855e+01 8.006384e-01 -9.206947e+01 5.511826e-01 -1.006453e+02 
-3.370332e-01 -1.110370e+02 -7.668760e-01 -1.203498e+02 -1.332049e+00 1.230326e+02 -6.939397e-01 1.136725e+02 -1.862667e-01 1.046915e+02 2.133518e-01 9.603736e+01 5.244504e-01 8.766249e+01 7.631106e-01 7.952418e+01 9.424740e-01 7.158469e+01 1.073257e+00 6.381098e+01 1.164229e+00 5.617432e+01 1.222639e+00 4.864980e+01 1.254565e+00 4.121583e+01 1.265190e+00 3.385359e+01 1.258988e+00 2.654658e+01 1.239845e+00 1.928020e+01 1.211123e+00 1.204129e+01 1.175676e+00 4.817790e+00 1.135844e+00 -2.401611e+00 1.093437e+00 -9.627861e+00 1.049698e+00 -1.687190e+01 1.005266e+00 -2.414504e+01 9.601047e-01 -3.145934e+01 9.134142e-01 -3.882804e+01 8.634937e-01 -4.626596e+01 8.075646e-01 -5.379000e+01 7.415478e-01 -6.141967e+01 6.597948e-01 -6.917779e+01 5.547718e-01 -7.709124e+01 4.166932e-01 -8.519193e+01 2.330931e-01 -9.351793e+01 -1.167569e-02 -1.021148e+02 