# vtk DataFile Version 2.0
Comment goes here
ASCII

DATASET STRUCTURED_POINTS
FIELD FieldData 1
TIME 1 1 double
0.07400000
DIMENSIONS    64   64   1

ORIGIN    0.000   0.000   0.000
SPACING   0.03125 0.03125   1.000

POINT_DATA   4096
VECTORS u double

0.566284 -0.000291 0.000000 -1.737746 0.000189 0.000000 0.364777 0.000087 0.000000 -1.686690 -0.000106 0.000000 0.102730 0.000231 0.000000 -1.639958 -0.000191 0.000000 0.363862 0.000132 0.000000 -1.529398 -0.000161 0.000000 0.479370 0.000129 0.000000 -1.449890 -0.000091 0.000000 0.504433 0.000059 0.000000 -1.354970 0.000016 0.000000 0.456111 -0.000039 0.000000 -1.227704 0.000132 0.000000 0.354862 0.000063 0.000000 -1.078409 0.000059 0.000000 0.222296 -0.000258 0.000000 -0.907614 -0.000219 0.000000 0.055726 -0.000197 0.000000 -0.700204 0.000121 0.000000 -0.159281 -0.000033 0.000000 -0.450074 0.000140 0.000000 -0.412176 -0.000043 0.000000 -0.175742 0.000066 0.000000 -0.673112 0.000042 0.000000 0.086714 -0.000039 0.000000 -0.900165 0.000035 0.000000 0.298540 0.000026 0.000000 -1.070478 -0.000047 0.000000 0.456177 0.000038 0.000000 -1.193388 -0.000009 0.000000 0.579793 0.000003 0.000000 -1.291503 0.000003 0.000000 0.685897 -0.000011 0.000000 -1.373434 -0.000001 0.000000 0.771303 0.000027 0.000000 -1.431962 -0.000050 0.000000 0.829568 0.000026 0.000000 -1.462584 0.000041 0.000000 0.857941 -0.000094 0.000000 -1.463522 0.000094 0.000000 0.852048 -0.000079 0.000000 -1.427422 0.000065 0.000000 0.795272 -0.000011 0.000000 -1.337192 -0.000050 0.000000 0.678116 0.000068 0.000000 -1.193088 -0.000059 0.000000 0.505449 -0.000011 0.000000 -1.003446 0.000094 0.000000 0.281592 -0.000152 0.000000 -0.776895 0.000165 0.000000 0.015686 -0.000135 0.000000 -0.525735 0.000077 0.000000 -0.283024 -0.000031 0.000000 -0.249363 0.000015 0.000000 -0.623007 -0.000031 0.000000 0.050379 0.000046 0.000000 -0.989667 0.000006 0.000000 0.345209 -0.000089 0.000000 -1.349848 0.000167 0.000000 0.596644 -0.000181 0.000000 -1.669887 0.000154 0.000000 0.770344 -0.000132 0.000000 -1.916293 -0.000008 0.000000 
-0.201286 -0.089481 0.000000 0.140781 0.100561 0.000000 0.051469 -0.025410 0.000000 0.114453 0.130920 0.000000 0.375491 -0.023390 0.000000 0.096250 -0.130585 0.000000 -0.043511 -0.055192 0.000000 -0.013148 -0.057810 0.000000 -0.264553 -0.039703 0.000000 -0.058823 -0.012547 0.000000 -0.384921 -0.047512 0.000000 -0.090637 0.024225 0.000000 -0.439993 -0.063776 0.000000 -0.129781 0.050703 0.000000 -0.453973 -0.074881 0.000000 -0.173000 0.066416 0.000000 -0.447087 -0.085419 0.000000 -0.222931 0.083639 0.000000 -0.418837 -0.103663 0.000000 -0.291847 0.107471 0.000000 -0.358895 -0.125103 0.000000 -0.385651 0.126355 0.000000 -0.274233 -0.137103 0.000000 -0.496008 0.130346 0.000000 -0.181361 -0.131184 0.000000 -0.603084 0.113517 0.000000 -0.105203 -0.105955 0.000000 -0.684607 0.085185 0.000000 -0.057296 -0.078822 0.000000 -0.740089 0.061417 0.000000 -0.031220 -0.061738 0.000000 -0.782554 0.048958 0.000000 -0.013495 -0.052960 0.000000 -0.821966 0.040921 0.000000 0.001409 -0.042745 0.000000 -0.854444 0.029349 0.000000 0.008527 -0.029233 0.000000 -0.875786 0.015391 0.000000 0.005418 -0.014250 0.000000 -0.884508 0.000499 0.000000 -0.008106 0.002934 0.000000 -0.879419 -0.018027 0.000000 -0.034614 0.028352 0.000000 -0.850067 -0.045078 0.000000 -0.083754 0.058575 0.000000 -0.791390 -0.072099 0.000000 -0.152354 0.086411 0.000000 -0.707618 -0.094911 0.000000 -0.234406 0.112016 0.000000 -0.599507 -0.113338 0.000000 -0.326045 0.132985 0.000000 -0.469744 -0.125594 0.000000 -0.419678 0.149380 0.000000 -0.323376 -0.138267 0.000000 -0.517051 0.170117 0.000000 -0.151228 -0.150026 0.000000 -0.618596 0.183477 0.000000 0.038535 -0.147527 0.000000 -0.706016 0.180154 0.000000 0.226127 -0.125717 0.000000 -0.751170 0.159958 0.000000 0.384615 -0.086721 0.000000 -0.719621 0.123052 0.000000 0.475694 0.102242 0.000000 
1.983012 0.334622 0.000000 0.593273 -0.252566 0.000000 1.608822 0.026414 0.000000 0.577507 -0.324127 0.000000 1.154651 0.018434 0.000000 0.542874 0.418811 0.000000 1.879084 0.109531 0.000000 0.675111 0.220880 0.000000 2.285294 0.045804 0.000000 0.684029 0.120278 0.000000 2.563326 0.031872 0.000000 0.624879 0.055088 0.000000 2.790931 0.039106 0.000000 0.524925 0.014111 0.000000 2.992991 0.043281 0.000000 0.411111 -0.006827 0.000000 3.171350 0.049673 0.000000 0.291988 -0.028469 0.000000 3.343567 0.068719 0.000000 0.155666 -0.059821 0.000000 3.530463 0.093771 0.000000 -0.005340 -0.084522 0.000000 3.731248 0.110314 0.000000 -0.175197 -0.092806 0.000000 3.927929 0.107117 0.000000 -0.329174 -0.076196 0.000000 4.094620 0.081558 0.000000 -0.440734 -0.047882 0.000000 4.216757 0.055434 0.000000 -0.508412 -0.026037 0.000000 4.304409 0.042457 0.000000 -0.550284 -0.017723 0.000000 4.374875 0.039415 0.000000 -0.579875 -0.014915 0.000000 4.433929 0.032477 0.000000 -0.596487 -0.007091 0.000000 4.475971 0.021292 0.000000 -0.596120 0.003135 0.000000 4.496757 0.008763 0.000000 -0.579031 0.013430 0.000000 4.495023 -0.004995 0.000000 -0.543910 0.026429 0.000000 4.465664 -0.029287 0.000000 -0.481129 0.049129 0.000000 4.394883 -0.058728 0.000000 -0.385542 0.068667 0.000000 4.280280 -0.083831 0.000000 -0.264998 0.082041 0.000000 4.124738 -0.108018 0.000000 -0.123516 0.091487 0.000000 3.931714 -0.129597 0.000000 0.028630 0.093498 0.000000 3.706098 -0.146291 0.000000 0.188725 0.097342 0.000000 3.438823 -0.172133 0.000000 0.366404 0.101514 0.000000 3.122610 -0.189718 0.000000 0.553511 0.087425 0.000000 2.771623 -0.187680 0.000000 0.728240 0.045322 0.000000 2.398059 -0.158669 0.000000 0.878044 -0.031395 0.000000 2.006662 -0.091211 0.000000 0.920123 -0.518343 0.000000 
4.156584 0.237368 0.000000 0.293692 0.474752 0.000000 3.172816 -0.009643 0.000000 -0.052457 0.585091 0.000000 1.657517 0.011243 0.000000 -0.043456 -0.855018 0.000000 3.693232 -0.187429 0.000000 0.137942 -0.464020 0.000000 4.686640 -0.048622 0.000000 0.189847 -0.290580 0.000000 5.305191 0.011639 0.000000 0.209468 -0.203380 0.000000 5.738307 0.036177 0.000000 0.228230 -0.151357 0.000000 6.060121 0.038933 0.000000 0.246256 -0.111943 0.000000 6.312040 0.033704 0.000000 0.265074 -0.088578 0.000000 6.509039 0.032659 0.000000 0.292949 -0.079426 0.000000 6.653617 0.035903 0.000000 0.334055 -0.074430 0.000000 6.756355 0.032754 0.000000 0.384307 -0.066334 0.000000 6.830254 0.022794 0.000000 0.432807 -0.053175 0.000000 6.892925 0.005604 0.000000 0.465689 -0.036952 0.000000 6.952860 -0.011144 0.000000 0.484875 -0.026235 0.000000 7.006689 -0.019865 0.000000 0.500619 -0.021507 0.000000 7.046715 -0.023369 0.000000 0.520168 -0.018134 0.000000 7.070496 -0.026133 0.000000 0.540162 -0.012693 0.000000 7.081982 -0.029600 0.000000 0.557634 -0.005395 0.000000 7.081830 -0.031339 0.000000 0.572839 0.002233 0.000000 7.068639 -0.032187 0.000000 0.587773 0.011332 0.000000 7.042510 -0.034429 0.000000 0.598043 0.025703 0.000000 7.008700 -0.037012 0.000000 0.602725 0.042503 0.000000 6.962254 -0.034132 0.000000 0.606081 0.060631 0.000000 6.896003 -0.029466 0.000000 0.607177 0.079686 0.000000 6.803978 -0.019161 0.000000 0.604386 0.100022 0.000000 6.676388 -0.010716 0.000000 0.598086 0.129008 0.000000 6.509306 -0.007561 0.000000 0.574944 0.166187 0.000000 6.297212 -0.003631 0.000000 0.531277 0.203460 0.000000 6.020321 0.005425 0.000000 0.465322 0.247847 0.000000 5.651255 0.010153 0.000000 0.374154 0.304677 0.000000 5.155341 0.080974 0.000000 0.246529 0.125891 0.000000 
4.320044 0.287459 0.000000 0.449679 0.731202 0.000000 3.507580 0.372563 0.000000 0.090654 1.191173 0.000000 2.276185 0.009433 0.000000 0.087718 -1.616905 0.000000 3.733382 -0.071867 0.000000 0.045750 -0.772527 0.000000 4.673046 -0.006100 0.000000 0.101366 -0.498273 0.000000 5.308208 0.012251 0.000000 0.160522 -0.378028 0.000000 5.764807 0.020344 0.000000 0.213859 -0.307702 0.000000 6.107640 0.025255 0.000000 0.258596 -0.258747 0.000000 6.375943 0.030856 0.000000 0.295168 -0.225467 0.000000 6.587242 0.040844 0.000000 0.329685 -0.204399 0.000000 6.750086 0.052666 0.000000 0.366897 -0.187261 0.000000 6.873836 0.060062 0.000000 0.403032 -0.166705 0.000000 6.968546 0.058617 0.000000 0.434879 -0.138867 0.000000 7.043128 0.048677 0.000000 0.458835 -0.107816 0.000000 7.103763 0.036248 0.000000 0.475076 -0.079866 0.000000 7.149908 0.026713 0.000000 0.488679 -0.057748 0.000000 7.180151 0.019866 0.000000 0.502244 -0.038696 0.000000 7.195472 0.012483 0.000000 0.515554 -0.018578 0.000000 7.198024 0.003819 0.000000 0.527648 0.003287 0.000000 7.188698 -0.006441 0.000000 0.539617 0.026621 0.000000 7.166260 -0.019929 0.000000 0.551745 0.052558 0.000000 7.129442 -0.039557 0.000000 0.562342 0.082939 0.000000 7.078956 -0.063410 0.000000 0.570173 0.115114 0.000000 7.012545 -0.087187 0.000000 0.578390 0.148291 0.000000 6.926352 -0.109113 0.000000 0.586661 0.183513 0.000000 6.814887 -0.126806 0.000000 0.598318 0.221088 0.000000 6.670168 -0.139992 0.000000 0.610084 0.264425 0.000000 6.487230 -0.148990 0.000000 0.615967 0.313608 0.000000 6.258017 -0.146051 0.000000 0.612273 0.364316 0.000000 5.964773 -0.121725 0.000000 0.594374 0.414388 0.000000 5.591616 -0.067501 0.000000 0.539734 0.464519 0.000000 5.126930 0.036414 0.000000 0.481415 0.480414 0.000000 
4.659870 0.269105 0.000000 0.245264 1.287215 0.000000 3.876748 0.349381 0.000000 0.144099 1.816486 0.000000 2.865075 0.014180 0.000000 0.134140 -2.312214 0.000000 3.897862 -0.145462 0.000000 0.103547 -1.403684 0.000000 4.812169 -0.104237 0.000000 0.144942 -0.925742 0.000000 5.450922 -0.047518 0.000000 0.185534 -0.659979 0.000000 5.900660 -0.017160 0.000000 0.220501 -0.494190 0.000000 6.231115 -0.005803 0.000000 0.252454 -0.380246 0.000000 6.482600 -0.002868 0.000000 0.283701 -0.299877 0.000000 6.675787 -0.001858 0.000000 0.317818 -0.242270 0.000000 6.821567 -0.001309 0.000000 0.356542 -0.198179 0.000000 6.929506 -0.003381 0.000000 0.397894 -0.161044 0.000000 7.009522 -0.009053 0.000000 0.437530 -0.127757 0.000000 7.071453 -0.018352 0.000000 0.471402 -0.097587 0.000000 7.120993 -0.027386 0.000000 0.499136 -0.072380 0.000000 7.159034 -0.033468 0.000000 0.523462 -0.051750 0.000000 7.184180 -0.036934 0.000000 0.546587 -0.033455 0.000000 7.196245 -0.039444 0.000000 0.568618 -0.015245 0.000000 7.196861 -0.041694 0.000000 0.589735 0.003931 0.000000 7.186871 -0.043309 0.000000 0.610230 0.024671 0.000000 7.165914 -0.044314 0.000000 0.629318 0.048151 0.000000 7.133665 -0.045027 0.000000 0.643869 0.076189 0.000000 7.090568 -0.044843 0.000000 0.651795 0.108914 0.000000 7.034314 -0.042349 0.000000 0.653278 0.146824 0.000000 6.961056 -0.037737 0.000000 0.648290 0.191151 0.000000 6.866207 -0.030817 0.000000 0.637020 0.244741 0.000000 6.743250 -0.022481 0.000000 0.617902 0.311946 0.000000 6.585832 -0.013445 0.000000 0.586251 0.395400 0.000000 6.384880 0.000064 0.000000 0.539179 0.496704 0.000000 6.124389 0.023325 0.000000 0.475134 0.621004 0.000000 5.781080 0.064793 0.000000 0.390369 0.769363 0.000000 5.321968 0.139292 0.000000 0.286504 0.932777 0.000000 
4.881057 0.328699 0.000000 0.379145 1.514324 0.000000 4.259102 0.473727 0.000000 0.294020 2.202846 0.000000 3.438095 0.019392 0.000000 0.283808 -2.649692 0.000000 4.141193 -0.041274 0.000000 0.177335 -1.686834 0.000000 4.854330 -0.047495 0.000000 0.161947 -1.137027 0.000000 5.425379 -0.028341 0.000000 0.191383 -0.827766 0.000000 5.855913 -0.014623 0.000000 0.230922 -0.638158 0.000000 6.183029 -0.006697 0.000000 0.269412 -0.510231 0.000000 6.436869 -0.000391 0.000000 0.304828 -0.418654 0.000000 6.635487 0.006727 0.000000 0.338329 -0.350179 0.000000 6.790164 0.013942 0.000000 0.371074 -0.295199 0.000000 6.909953 0.018709 0.000000 0.402192 -0.246721 0.000000 7.002768 0.018982 0.000000 0.430117 -0.200798 0.000000 7.075036 0.014805 0.000000 0.452949 -0.157356 0.000000 7.131353 0.008514 0.000000 0.471144 -0.117907 0.000000 7.173309 0.002387 0.000000 0.486611 -0.082894 0.000000 7.201456 -0.003259 0.000000 0.500813 -0.050761 0.000000 7.216632 -0.009549 0.000000 0.514076 -0.019194 0.000000 7.219931 -0.017297 0.000000 0.526336 0.013278 0.000000 7.211887 -0.026937 0.000000 0.537871 0.047578 0.000000 7.192217 -0.039016 0.000000 0.548810 0.084807 0.000000 7.160270 -0.054108 0.000000 0.558823 0.126035 0.000000 7.115452 -0.071336 0.000000 0.567749 0.171367 0.000000 7.055879 -0.088670 0.000000 0.576252 0.221549 0.000000 6.978434 -0.104125 0.000000 0.584470 0.278362 0.000000 6.878756 -0.115536 0.000000 0.592244 0.344045 0.000000 6.751713 -0.120873 0.000000 0.597870 0.421842 0.000000 6.591948 -0.117339 0.000000 0.597480 0.514561 0.000000 6.392073 -0.098980 0.000000 0.587128 0.624807 0.000000 6.140952 -0.057680 0.000000 0.562000 0.757696 0.000000 5.825113 0.017264 0.000000 0.517178 0.923631 0.000000 5.422124 0.140279 0.000000 0.452569 1.142512 0.000000 
5.228035 0.342529 0.000000 0.301360 1.909169 0.000000 4.671005 0.434507 0.000000 0.311977 2.637494 0.000000 3.981928 0.024392 0.000000 0.302010 -3.015312 0.000000 4.487100 -0.038990 0.000000 0.227655 -2.116822 0.000000 5.077909 -0.088849 0.000000 0.204296 -1.496790 0.000000 5.598932 -0.076953 0.000000 0.218024 -1.090513 0.000000 6.004334 -0.056698 0.000000 0.244052 -0.821306 0.000000 6.312215 -0.044294 0.000000 0.273270 -0.634085 0.000000 6.547483 -0.038284 0.000000 0.303706 -0.498496 0.000000 6.728036 -0.035359 0.000000 0.335773 -0.396947 0.000000 6.865793 -0.034053 0.000000 0.369688 -0.317968 0.000000 6.969991 -0.034499 0.000000 0.404328 -0.253859 0.000000 7.048706 -0.036978 0.000000 0.437565 -0.200025 0.000000 7.108901 -0.041184 0.000000 0.467448 -0.153904 0.000000 7.155198 -0.045580 0.000000 0.493552 -0.114337 0.000000 7.189634 -0.048936 0.000000 0.516841 -0.079896 0.000000 7.212743 -0.051136 0.000000 0.538383 -0.048632 0.000000 7.224973 -0.052706 0.000000 0.558506 -0.018545 0.000000 7.227149 -0.053954 0.000000 0.577166 0.011976 0.000000 7.219870 -0.054843 0.000000 0.594156 0.044341 0.000000 7.203220 -0.055253 0.000000 0.608852 0.080098 0.000000 7.176963 -0.055040 0.000000 0.619944 0.121007 0.000000 7.140523 -0.053769 0.000000 0.626231 0.168487 0.000000 7.092104 -0.050852 0.000000 0.627108 0.224270 0.000000 7.028872 -0.045956 0.000000 0.622120 0.290829 0.000000 6.947232 -0.038591 0.000000 0.610757 0.371783 0.000000 6.842574 -0.028107 0.000000 0.591846 0.471711 0.000000 6.709444 -0.013055 0.000000 0.563355 0.595275 0.000000 6.540408 0.010416 0.000000 0.523765 0.747825 0.000000 6.324602 0.048452 0.000000 0.472441 0.936843 0.000000 6.047345 0.109614 0.000000 0.410588 1.172352 0.000000 5.689900 0.203901 0.000000 0.345102 1.473845 0.000000 
5.500101 0.372442 0.000000 0.408956 2.071355 0.000000 5.064887 0.463111 0.000000 0.419126 2.891923 0.000000 4.510047 0.029359 0.000000 0.409375 -3.154864 0.000000 4.845904 0.033081 0.000000 0.321037 -2.277643 0.000000 5.260331 -0.024136 0.000000 0.262974 -1.658050 0.000000 5.675505 -0.042069 0.000000 0.254190 -1.233168 0.000000 6.029830 -0.040652 0.000000 0.271250 -0.946039 0.000000 6.314437 -0.035915 0.000000 0.297715 -0.745500 0.000000 6.539807 -0.030826 0.000000 0.326539 -0.599207 0.000000 6.717649 -0.025341 0.000000 0.355386 -0.487936 0.000000 6.857406 -0.019973 0.000000 0.383457 -0.399397 0.000000 6.966725 -0.015930 0.000000 0.409957 -0.325436 0.000000 7.051975 -0.014255 0.000000 0.433935 -0.260994 0.000000 7.118206 -0.015078 0.000000 0.454569 -0.203653 0.000000 7.169076 -0.017590 0.000000 0.471988 -0.152343 0.000000 7.206685 -0.020903 0.000000 0.487006 -0.106004 0.000000 7.232247 -0.024801 0.000000 0.500404 -0.062991 0.000000 7.246692 -0.029672 0.000000 0.512554 -0.021369 0.000000 7.250810 -0.035957 0.000000 0.523608 0.020556 0.000000 7.245039 -0.043927 0.000000 0.533705 0.064228 0.000000 7.229367 -0.053712 0.000000 0.542940 0.111064 0.000000 7.203408 -0.065200 0.000000 0.551289 0.162475 0.000000 7.166474 -0.077623 0.000000 0.558744 0.219786 0.000000 7.117153 -0.089547 0.000000 0.565356 0.284781 0.000000 7.053246 -0.099137 0.000000 0.570869 0.360003 0.000000 6.971841 -0.104173 0.000000 0.574579 0.448703 0.000000 6.869538 -0.101963 0.000000 0.574987 0.554972 0.000000 6.742507 -0.088848 0.000000 0.569632 0.683596 0.000000 6.585820 -0.059389 0.000000 0.555839 0.840613 0.000000 6.392892 -0.006356 0.000000 0.531247 1.034953 0.000000 6.155417 0.079117 0.000000 0.494830 1.281076 0.000000 5.862221 0.205765 0.000000 0.448443 1.604377 0.000000 
5.836732 0.382015 0.000000 0.370355 2.344383 0.000000 5.463789 0.424338 0.000000 0.422981 3.192334 0.000000 5.009673 0.034143 0.000000 0.413949 -3.351170 0.000000 5.238599 0.049348 0.000000 0.347709 -2.531249 0.000000 5.551988 -0.030785 0.000000 0.296872 -1.911964 0.000000 5.895740 -0.068170 0.000000 0.282089 -1.444839 0.000000 6.205809 -0.073758 0.000000 0.290260 -1.105913 0.000000 6.460419 -0.070759 0.000000 0.309502 -0.859455 0.000000 6.662184 -0.067108 0.000000 0.333824 -0.676338 0.000000 6.819763 -0.064206 0.000000 0.360773 -0.536704 0.000000 6.941606 -0.062124 0.000000 0.389136 -0.427286 0.000000 7.035021 -0.060999 0.000000 0.417754 -0.339110 0.000000 7.106301 -0.060956 0.000000 0.445319 -0.266255 0.000000 7.160667 -0.061819 0.000000 0.470752 -0.204774 0.000000 7.201863 -0.062999 0.000000 0.493673 -0.151946 0.000000 7.232111 -0.063954 0.000000 0.514343 -0.105458 0.000000 7.252604 -0.064533 0.000000 0.533184 -0.063077 0.000000 7.264135 -0.064857 0.000000 0.550380 -0.022663 0.000000 7.267401 -0.065008 0.000000 0.565858 0.017747 0.000000 7.262897 -0.064940 0.000000 0.579356 0.060013 0.000000 7.250789 -0.064488 0.000000 0.590381 0.106056 0.000000 7.230908 -0.063389 0.000000 0.598182 0.157941 0.000000 7.202666 -0.061225 0.000000 0.601972 0.217808 0.000000 7.164805 -0.057463 0.000000 0.601112 0.288176 0.000000 7.115425 -0.051469 0.000000 0.595051 0.372234 0.000000 7.052082 -0.042301 0.000000 0.583219 0.474086 0.000000 6.971739 -0.028516 0.000000 0.564886 0.598742 0.000000 6.870684 -0.007699 0.000000 0.539241 0.751963 0.000000 6.744107 0.024209 0.000000 0.506001 0.940753 0.000000 6.585643 0.073044 0.000000 0.466087 1.174318 0.000000 6.387402 0.146031 0.000000 0.422779 1.465548 0.000000 6.140676 0.250288 0.000000 0.383762 1.835965 0.000000 
6.117913 0.385848 0.000000 0.453964 2.444298 0.000000 5.839768 0.410485 0.000000 0.506088 3.346039 0.000000 5.493683 0.038391 0.000000 0.497779 -3.383791 0.000000 5.616036 0.099320 0.000000 0.431276 -2.591032 0.000000 5.806952 0.026701 0.000000 0.366254 -2.001801 0.000000 6.049685 -0.027286 0.000000 0.334639 -1.543237 0.000000 6.294253 -0.048822 0.000000 0.330629 -1.200649 0.000000 6.510648 -0.055157 0.000000 0.342159 -0.947265 0.000000 6.691118 -0.055149 0.000000 0.360895 -0.756786 0.000000 6.837564 -0.052290 0.000000 0.382399 -0.609778 0.000000 6.954641 -0.048335 0.000000 0.404427 -0.492813 0.000000 7.047307 -0.044549 0.000000 0.425671 -0.396716 0.000000 7.120084 -0.041820 0.000000 0.445232 -0.315361 0.000000 7.176720 -0.040512 0.000000 0.462558 -0.244849 0.000000 7.220071 -0.040510 0.000000 0.477591 -0.182591 0.000000 7.252091 -0.041573 0.000000 0.490651 -0.126497 0.000000 7.274091 -0.043642 0.000000 0.502130 -0.074522 0.000000 7.287012 -0.046868 0.000000 0.512305 -0.024635 0.000000 7.291550 -0.051435 0.000000 0.521344 0.025060 0.000000 7.288132 -0.057425 0.000000 0.529354 0.076336 0.000000 7.276886 -0.064738 0.000000 0.536400 0.130945 0.000000 7.257658 -0.073000 0.000000 0.542479 0.190718 0.000000 7.230012 -0.081413 0.000000 0.547534 0.257647 0.000000 7.193103 -0.088687 0.000000 0.551408 0.334162 0.000000 7.145661 -0.093076 0.000000 0.553705 0.423346 0.000000 7.086052 -0.092341 0.000000 0.553721 0.529046 0.000000 7.012409 -0.083629 0.000000 0.550356 0.656026 0.000000 6.922646 -0.063203 0.000000 0.542223 0.810174 0.000000 6.814214 -0.026149 0.000000 0.528145 0.999077 0.000000 6.683891 0.033558 0.000000 0.507842 1.233195 0.000000 6.527749 0.122424 0.000000 0.482845 1.527801 0.000000 6.341175 0.244782 0.000000 0.458434 1.908321 0.000000 
6.433152 0.386485 0.000000 0.430765 2.622528 0.000000 6.211033 0.372214 0.000000 0.501309 3.538418 0.000000 5.949710 0.042451 0.000000 0.493992 -3.473522 0.000000 6.002367 0.115852 0.000000 0.442092 -2.722165 0.000000 6.122524 0.034236 0.000000 0.388231 -2.154697 0.000000 6.300224 -0.036555 0.000000 0.358804 -1.689406 0.000000 6.494555 -0.069748 0.000000 0.351660 -1.322308 0.000000 6.673844 -0.082289 0.000000 0.358867 -1.039926 0.000000 6.825831 -0.085844 0.000000 0.374162 -0.822784 0.000000 6.949201 -0.085711 0.000000 0.393755 -0.653782 0.000000 7.046872 -0.084153 0.000000 0.415439 -0.519952 0.000000 7.122955 -0.082242 0.000000 0.437735 -0.411887 0.000000 7.181582 -0.080516 0.000000 0.459514 -0.322891 0.000000 7.226394 -0.079145 0.000000 0.479971 -0.248125 0.000000 7.260212 -0.078032 0.000000 0.498712 -0.183966 0.000000 7.284982 -0.077014 0.000000 0.515691 -0.127458 0.000000 7.301968 -0.076013 0.000000 0.530996 -0.075998 0.000000 7.312043 -0.075032 0.000000 0.544653 -0.027201 0.000000 7.315868 -0.074046 0.000000 0.556553 0.021165 0.000000 7.313905 -0.072951 0.000000 0.566444 0.071259 0.000000 7.306378 -0.071534 0.000000 0.573936 0.125285 0.000000 7.293253 -0.069467 0.000000 0.578508 0.185587 0.000000 7.274195 -0.066280 0.000000 0.579601 0.254717 0.000000 7.248499 -0.061336 0.000000 0.576697 0.335618 0.000000 7.215108 -0.053767 0.000000 0.569344 0.431843 0.000000 7.172671 -0.042316 0.000000 0.557159 0.547730 0.000000 7.119547 -0.025151 0.000000 0.539862 0.688504 0.000000 7.053769 0.000434 0.000000 0.517460 0.860395 0.000000 6.972905 0.038287 0.000000 0.490693 1.071075 0.000000 6.873963 0.093347 0.000000 0.461644 1.330460 0.000000 6.753536 0.171029 0.000000 0.434571 1.652122 0.000000 6.608249 0.274699 0.000000 0.417558 2.059227 0.000000 
6.704159 0.372642 0.000000 0.496584 2.666417 0.000000 6.559319 0.339940 0.000000 0.565516 3.607362 0.000000 6.390114 0.045708 0.000000 0.559230 -3.436448 0.000000 6.365984 0.151221 0.000000 0.511243 -2.711188 0.000000 6.401105 0.080562 0.000000 0.453844 -2.179501 0.000000 6.497573 0.002141 0.000000 0.415352 -1.737568 0.000000 6.628038 -0.041678 0.000000 0.398393 -1.379938 0.000000 6.763013 -0.062364 0.000000 0.397126 -1.099252 0.000000 6.886240 -0.070444 0.000000 0.405233 -0.880155 0.000000 6.991737 -0.071884 0.000000 0.418164 -0.707449 0.000000 7.078871 -0.070019 0.000000 0.433088 -0.568896 0.000000 7.149257 -0.066845 0.000000 0.448294 -0.455343 0.000000 7.205224 -0.063599 0.000000 0.462738 -0.360172 0.000000 7.249064 -0.060968 0.000000 0.475834 -0.278667 0.000000 7.282723 -0.059251 0.000000 0.487370 -0.207361 0.000000 7.307696 -0.058552 0.000000 0.497398 -0.143483 0.000000 7.325087 -0.058948 0.000000 0.506081 -0.084597 0.000000 7.335718 -0.060525 0.000000 0.513573 -0.028461 0.000000 7.340205 -0.063335 0.000000 0.519988 0.027024 0.000000 7.338971 -0.067317 0.000000 0.525399 0.083862 0.000000 7.332257 -0.072229 0.000000 0.529832 0.144071 0.000000 7.320127 -0.077573 0.000000 0.533256 0.209776 0.000000 7.302482 -0.082505 0.000000 0.535575 0.283343 0.000000 7.279032 -0.085783 0.000000 0.536590 0.367552 0.000000 7.249318 -0.085724 0.000000 0.535954 0.465783 0.000000 7.212774 -0.080157 0.000000 0.533173 0.582170 0.000000 7.168811 -0.066332 0.000000 0.527660 0.721805 0.000000 7.116846 -0.040801 0.000000 0.518931 0.891037 0.000000 7.056218 0.000619 0.000000 0.507037 1.098019 0.000000 6.986106 0.062607 0.000000 0.493140 1.353622 0.000000 6.905519 0.149497 0.000000 0.480242 1.673088 0.000000 6.813121 0.261795 0.000000 0.475074 2.083418 0.000000 
6.992406 0.364975 0.000000 0.480259 2.767367 0.000000 6.898285 0.303281 0.000000 0.554923 3.707624 0.000000 6.802937 0.048738 0.000000 0.549802 -3.449392 0.000000 6.728146 0.163839 0.000000 0.513066 -2.757286 0.000000 6.712796 0.091635 0.000000 0.466595 -2.251165 0.000000 6.757331 0.001937 0.000000 0.434008 -1.819870 0.000000 6.841272 -0.052789 0.000000 0.418260 -1.457284 0.000000 6.937993 -0.081022 0.000000 0.415687 -1.163153 0.000000 7.030487 -0.093951 0.000000 0.421895 -0.928281 0.000000 7.111046 -0.098641 0.000000 0.433383 -0.740916 0.000000 7.177581 -0.099076 0.000000 0.447731 -0.590338 0.000000 7.230755 -0.097448 0.000000 0.463302 -0.467854 0.000000 7.272340 -0.094961 0.000000 0.478970 -0.366731 0.000000 7.304344 -0.092241 0.000000 0.493978 -0.281785 0.000000 7.328555 -0.089568 0.000000 0.507888 -0.208939 0.000000 7.346371 -0.087042 0.000000 0.520493 -0.144849 0.000000 7.358814 -0.084696 0.000000 0.531702 -0.086630 0.000000 7.366646 -0.082524 0.000000 0.541426 -0.031687 0.000000 7.370446 -0.080462 0.000000 0.549513 0.022398 0.000000 7.370649 -0.078362 0.000000 0.555731 0.077973 0.000000 7.367535 -0.075966 0.000000 0.559760 0.137415 0.000000 7.361231 -0.072892 0.000000 0.561220 0.203232 0.000000 7.351704 -0.068600 0.000000 0.559711 0.278166 0.000000 7.338755 -0.062351 0.000000 0.554875 0.365333 0.000000 7.322049 -0.053131 0.000000 0.546446 0.468388 0.000000 7.301169 -0.039536 0.000000 0.534307 0.591693 0.000000 7.275646 -0.019637 0.000000 0.518601 0.740469 0.000000 7.244979 0.009162 0.000000 0.499945 0.921023 0.000000 7.208615 0.050181 0.000000 0.479777 1.141187 0.000000 7.165969 0.107244 0.000000 0.460809 1.411047 0.000000 7.116554 0.183927 0.000000 0.447557 1.744521 0.000000 7.059938 0.279866 0.000000 0.447918 2.168189 0.000000 
7.243597 0.340301 0.000000 0.532348 2.760538 0.000000 7.215043 0.265276 0.000000 0.603561 3.702711 0.000000 7.200070 0.050829 0.000000 0.599640 -3.361657 0.000000 7.066100 0.187957 0.000000 0.568342 -2.695839 0.000000 6.988976 0.127033 0.000000 0.523563 -2.224036 0.000000 6.971133 0.034728 0.000000 0.487559 -1.821509 0.000000 6.999972 -0.025930 0.000000 0.465618 -1.476659 0.000000 7.053368 -0.059792 0.000000 0.456025 -1.191747 0.000000 7.114318 -0.076652 0.000000 0.455258 -0.960714 0.000000 7.173009 -0.083371 0.000000 0.459939 -0.773984 0.000000 7.224924 -0.084366 0.000000 0.467517 -0.622070 0.000000 7.268645 -0.082417 0.000000 0.476263 -0.496928 0.000000 7.304310 -0.079267 0.000000 0.485073 -0.392176 0.000000 7.332693 -0.075977 0.000000 0.493293 -0.302879 0.000000 7.354724 -0.073160 0.000000 0.500593 -0.225177 0.000000 7.371260 -0.071158 0.000000 0.506867 -0.155926 0.000000 7.383027 -0.070157 0.000000 0.512125 -0.092429 0.000000 7.390619 -0.070248 0.000000 0.516418 -0.032261 0.000000 7.394522 -0.071422 0.000000 0.519793 0.026821 0.000000 7.395131 -0.073534 0.000000 0.522278 0.086977 0.000000 7.392763 -0.076259 0.000000 0.523867 0.150374 0.000000 7.387673 -0.079032 0.000000 0.524517 0.219303 0.000000 7.380071 -0.080996 0.000000 0.524134 0.296292 0.000000 7.370146 -0.080947 0.000000 0.522568 0.384258 0.000000 7.358095 -0.077295 0.000000 0.519618 0.486663 0.000000 7.344193 -0.068018 0.000000 0.515078 0.607692 0.000000 7.328854 -0.050626 0.000000 0.508843 0.752472 0.000000 7.312669 -0.022145 0.000000 0.501131 0.927401 0.000000 7.296396 0.020787 0.000000 0.492818 1.140665 0.000000 7.280932 0.081575 0.000000 0.485859 1.403037 0.000000 7.267280 0.162750 0.000000 0.483815 1.729705 0.000000 7.256084 0.261433 0.000000 0.493652 2.150949 0.000000 
7.502230 0.326280 0.000000 0.519098 2.795922 0.000000 7.519930 0.232069 0.000000 0.589047 3.722596 0.000000 7.569961 0.052658 0.000000 0.586375 -3.315422 0.000000 7.396941 0.195137 0.000000 0.564678 -2.680162 0.000000 7.282373 0.136414 0.000000 0.530139 -2.233322 0.000000 7.224376 0.037941 0.000000 0.501218 -1.848710 0.000000 7.213879 -0.030847 0.000000 0.482860 -1.510680 0.000000 7.232016 -0.071429 0.000000 0.474227 -1.224103 0.000000 7.262905 -0.093184 0.000000 0.473081 -0.986972 0.000000 7.296474 -0.103322 0.000000 0.477049 -0.792830 0.000000 7.327481 -0.106654 0.000000 0.484159 -0.634059 0.000000 7.353810 -0.106195 0.000000 0.492937 -0.503519 0.000000 7.375080 -0.103771 0.000000 0.502333 -0.395114 0.000000 7.391724 -0.100460 0.000000 0.511625 -0.303815 0.000000 7.404447 -0.096868 0.000000 0.520343 -0.225475 0.000000 7.413957 -0.093316 0.000000 0.528198 -0.156616 0.000000 7.420864 -0.089954 0.000000 0.534999 -0.094221 0.000000 7.425684 -0.086817 0.000000 0.540585 -0.035590 0.000000 7.428851 -0.083838 0.000000 0.544775 0.021789 0.000000 7.430740 -0.080846 0.000000 0.547350 0.080341 0.000000 7.431669 -0.077555 0.000000 0.548054 0.142506 0.000000 7.431907 -0.073541 0.000000 0.546610 0.210834 0.000000 7.431690 -0.068217 0.000000 0.542756 0.288092 0.000000 7.431240 -0.060785 0.000000 0.536301 0.377383 0.000000 7.430809 -0.050181 0.000000 0.527184 0.482290 0.000000 7.430728 -0.034996 0.000000 0.515555 0.607032 0.000000 7.431463 -0.013403 0.000000 0.501908 0.756653 0.000000 7.433660 0.016874 0.000000 0.487268 0.937296 0.000000 7.438186 0.058494 0.000000 0.473457 1.156651 0.000000 7.446194 0.114203 0.000000 0.463378 1.424699 0.000000 7.459204 0.185970 0.000000 0.461364 1.755716 0.000000 7.478711 0.270029 0.000000 0.474780 2.180676 0.000000 