# vtk DataFile Version 2.0
Comment goes here
ASCII

DATASET STRUCTURED_POINTS
FIELD FieldData 1
TIME 1 1 double
0.03600000
DIMENSIONS    64   64   1

ORIGIN    0.000   0.000   0.000
SPACING   0.03125 0.03125   1.000

POINT_DATA   4096
VECTORS u double

0.687276 0.000115 0.000000 -1.143779 -0.000104 0.000000 0.493177 0.000047 0.000000 -1.088290 -0.000036 0.000000 0.348515 -0.000060 0.000000 -1.039825 -0.000040 0.000000 0.394889 0.000087 0.000000 -0.960987 -0.000006 0.000000 0.374311 0.000027 0.000000 -0.861783 0.000012 0.000000 0.324735 -0.000056 0.000000 -0.773699 0.000067 0.000000 0.279542 -0.000060 0.000000 -0.698660 0.000064 0.000000 0.225257 -0.000026 0.000000 -0.606922 0.000060 0.000000 0.136439 -0.000090 0.000000 -0.476402 0.000071 0.000000 0.002753 -0.000075 0.000000 -0.293805 0.000020 0.000000 -0.199750 -0.000002 0.000000 -0.034886 -0.000019 0.000000 -0.468877 0.000067 0.000000 0.254023 -0.000117 0.000000 -0.717232 0.000134 0.000000 0.470864 -0.000133 0.000000 -0.858503 0.000105 0.000000 0.557461 -0.000078 0.000000 -0.871322 0.000071 0.000000 0.521229 -0.000041 0.000000 -0.775568 0.000011 0.000000 0.398156 0.000000 0.000000 -0.624579 0.000041 0.000000 0.247739 -0.000068 0.000000 -0.480934 0.000038 0.000000 0.128600 -0.000020 0.000000 -0.391106 0.000004 0.000000 0.079589 0.000062 0.000000 -0.384806 -0.000116 0.000000 0.111395 0.000101 0.000000 -0.452668 -0.000096 0.000000 0.203120 0.000089 0.000000 -0.563751 -0.000075 0.000000 0.318262 0.000047 0.000000 -0.677136 -0.000072 0.000000 0.415526 0.000086 0.000000 -0.755150 -0.000083 0.000000 0.461935 0.000041 0.000000 -0.770026 0.000005 0.000000 0.432058 -0.000039 0.000000 -0.700185 0.000084 0.000000 0.305565 -0.000092 0.000000 -0.532670 0.000070 0.000000 0.089136 -0.000050 0.000000 -0.298269 0.000038 0.000000 -0.171906 0.000017 0.000000 -0.050305 -0.000029 0.000000 -0.434010 0.000028 0.000000 0.178675 -0.000024 0.000000 -0.672446 0.000022 0.000000 0.369992 -0.000038 0.000000 -0.885666 0.000064 0.000000 0.531931 -0.000067 0.000000 -1.085027 0.000003 0.000000 
-0.416754 0.029298 0.000000 0.220020 0.097111 0.000000 -0.158586 -0.027777 0.000000 0.181295 0.072337 0.000000 0.000273 -0.024091 0.000000 0.164883 -0.023274 0.000000 -0.128633 -0.039333 0.000000 0.129691 0.010141 0.000000 -0.191036 -0.049477 0.000000 0.089899 0.024672 0.000000 -0.222908 -0.043952 0.000000 0.062200 0.022509 0.000000 -0.250553 -0.037477 0.000000 0.045659 0.027149 0.000000 -0.267868 -0.045944 0.000000 0.021077 0.044489 0.000000 -0.264129 -0.065398 0.000000 -0.022459 0.066991 0.000000 -0.237644 -0.091381 0.000000 -0.089852 0.101335 0.000000 -0.173316 -0.129500 0.000000 -0.201007 0.134560 0.000000 -0.067886 -0.144441 0.000000 -0.332777 0.124147 0.000000 0.030990 -0.108418 0.000000 -0.427930 0.070646 0.000000 0.076063 -0.043305 0.000000 -0.457586 0.006390 0.000000 0.061342 0.018166 0.000000 -0.428929 -0.047944 0.000000 -0.001075 0.061625 0.000000 -0.360985 -0.075591 0.000000 -0.084469 0.075289 0.000000 -0.283750 -0.071905 0.000000 -0.157408 0.059651 0.000000 -0.225919 -0.044951 0.000000 -0.197575 0.024517 0.000000 -0.207966 -0.003165 0.000000 -0.189682 -0.015886 0.000000 -0.235296 0.033937 0.000000 -0.139719 -0.045919 0.000000 -0.295198 0.055623 0.000000 -0.064827 -0.057664 0.000000 -0.368565 0.056793 0.000000 0.011442 -0.048724 0.000000 -0.432654 0.039062 0.000000 0.070583 -0.023240 0.000000 -0.470928 0.007455 0.000000 0.098695 0.014939 0.000000 -0.469453 -0.034916 0.000000 0.082166 0.063228 0.000000 -0.415362 -0.083719 0.000000 0.013446 0.108157 0.000000 -0.310897 -0.117149 0.000000 -0.088312 0.130499 0.000000 -0.183145 -0.123976 0.000000 -0.191513 0.131054 0.000000 -0.055771 -0.114464 0.000000 -0.277949 0.119184 0.000000 0.058343 -0.095645 0.000000 -0.336230 0.106612 0.000000 0.159237 -0.080983 0.000000 -0.371831 0.099697 0.000000 0.256491 -0.077652 0.000000 
0.687130 0.036586 0.000000 0.514732 -0.258272 0.000000 0.668149 0.038773 0.000000 0.460433 -0.158895 0.000000 0.487547 0.016351 0.000000 0.428419 0.128865 0.000000 0.761419 0.035279 0.000000 0.395159 0.062397 0.000000 0.974497 0.039819 0.000000 0.333375 0.031884 0.000000 1.143258 0.027644 0.000000 0.280122 0.027713 0.000000 1.263741 0.016480 0.000000 0.241735 0.017379 0.000000 1.361625 0.024556 0.000000 0.196638 -0.003679 0.000000 1.462861 0.043447 0.000000 0.132875 -0.026414 0.000000 1.577917 0.067318 0.000000 0.041708 -0.064307 0.000000 1.731454 0.111152 0.000000 -0.101894 -0.105449 0.000000 1.930040 0.131838 0.000000 -0.269161 -0.098993 0.000000 2.111519 0.095287 0.000000 -0.387050 -0.045206 0.000000 2.214490 0.029762 0.000000 -0.418405 0.014643 0.000000 2.228346 -0.028586 0.000000 -0.373662 0.062376 0.000000 2.168009 -0.067934 0.000000 -0.278875 0.083395 0.000000 2.070002 -0.077193 0.000000 -0.174211 0.072871 0.000000 1.977244 -0.057792 0.000000 -0.097082 0.040148 0.000000 1.920223 -0.017950 0.000000 -0.072256 -0.007831 0.000000 1.919752 0.027214 0.000000 -0.105155 -0.049862 0.000000 1.968406 0.059806 0.000000 -0.179362 -0.074804 0.000000 2.044649 0.073292 0.000000 -0.269927 -0.076221 0.000000 2.119722 0.064016 0.000000 -0.348028 -0.059056 0.000000 2.169064 0.038191 0.000000 -0.392097 -0.028071 0.000000 2.174530 -0.001469 0.000000 -0.385207 0.016491 0.000000 2.118840 -0.054008 0.000000 -0.312153 0.068628 0.000000 1.988655 -0.104395 0.000000 -0.177359 0.101707 0.000000 1.803048 -0.127714 0.000000 -0.015971 0.103217 0.000000 1.596950 -0.127403 0.000000 0.141383 0.086465 0.000000 1.387616 -0.114137 0.000000 0.278395 0.058303 0.000000 1.182630 -0.100932 0.000000 0.399061 0.035665 0.000000 0.963434 -0.097322 0.000000 0.519620 0.044927 0.000000 
2.073329 0.034186 0.000000 -0.005101 0.116092 0.000000 1.433024 0.026522 0.000000 -0.028699 0.252939 0.000000 0.659424 0.007922 0.000000 -0.014844 -0.297145 0.000000 1.501873 -0.006072 0.000000 0.001815 -0.202937 0.000000 1.998172 0.012307 0.000000 0.021522 -0.144089 0.000000 2.331741 0.009301 0.000000 0.031164 -0.097974 0.000000 2.582358 0.000910 0.000000 0.030275 -0.070734 0.000000 2.774878 -0.000847 0.000000 0.030641 -0.056746 0.000000 2.919729 -0.001635 0.000000 0.036934 -0.048066 0.000000 3.028391 -0.000214 0.000000 0.050550 -0.052201 0.000000 3.096010 0.014102 0.000000 0.089445 -0.064026 0.000000 3.119638 0.022826 0.000000 0.143848 -0.057331 0.000000 3.129613 0.009471 0.000000 0.180687 -0.032325 0.000000 3.154658 -0.011950 0.000000 0.186117 -0.007465 0.000000 3.196364 -0.026577 0.000000 0.167366 0.012393 0.000000 3.249884 -0.033162 0.000000 0.133732 0.022416 0.000000 3.304018 -0.029375 0.000000 0.099019 0.020853 0.000000 3.345221 -0.017478 0.000000 0.074997 0.012070 0.000000 3.365546 -0.000309 0.000000 0.069876 -0.002694 0.000000 3.357942 0.017013 0.000000 0.085286 -0.014717 0.000000 3.326528 0.028288 0.000000 0.114295 -0.020620 0.000000 3.278897 0.032901 0.000000 0.148872 -0.018281 0.000000 3.224686 0.029376 0.000000 0.179435 -0.010280 0.000000 3.168852 0.020829 0.000000 0.200857 0.001989 0.000000 3.113455 0.008048 0.000000 0.208508 0.020774 0.000000 3.062504 -0.009826 0.000000 0.195295 0.046465 0.000000 3.019167 -0.026636 0.000000 0.161042 0.068458 0.000000 2.969810 -0.030889 0.000000 0.120701 0.082122 0.000000 2.892674 -0.026300 0.000000 0.084243 0.094869 0.000000 2.774120 -0.017828 0.000000 0.053873 0.109341 0.000000 2.599844 -0.014054 0.000000 0.022404 0.138213 0.000000 2.361759 -0.020862 0.000000 -0.027748 0.198652 0.000000 
2.096083 0.013939 0.000000 0.056258 0.382033 0.000000 1.598374 0.062371 0.000000 0.027744 0.614705 0.000000 0.966788 0.002495 0.000000 0.032793 -0.713584 0.000000 1.636056 0.018620 0.000000 0.033284 -0.433902 0.000000 2.076234 0.020113 0.000000 0.049893 -0.301685 0.000000 2.387450 0.018001 0.000000 0.063034 -0.222904 0.000000 2.623350 0.017370 0.000000 0.069505 -0.175141 0.000000 2.804843 0.024191 0.000000 0.074573 -0.148529 0.000000 2.944366 0.037154 0.000000 0.078089 -0.135077 0.000000 3.053530 0.053702 0.000000 0.080557 -0.131926 0.000000 3.132882 0.072257 0.000000 0.091902 -0.129076 0.000000 3.181931 0.077436 0.000000 0.109683 -0.108968 0.000000 3.216375 0.058447 0.000000 0.119959 -0.070252 0.000000 3.250024 0.024332 0.000000 0.118712 -0.027062 0.000000 3.283514 -0.009834 0.000000 0.110784 0.008855 0.000000 3.316042 -0.034300 0.000000 0.099695 0.029260 0.000000 3.344406 -0.042480 0.000000 0.090091 0.031668 0.000000 3.364214 -0.033770 0.000000 0.085174 0.019823 0.000000 3.373532 -0.012829 0.000000 0.087207 -0.000227 0.000000 3.369356 0.011804 0.000000 0.096219 -0.018449 0.000000 3.353284 0.030798 0.000000 0.109046 -0.027172 0.000000 3.327496 0.038715 0.000000 0.123266 -0.022009 0.000000 3.294731 0.033453 0.000000 0.135517 -0.003222 0.000000 3.255176 0.016769 0.000000 0.144551 0.027326 0.000000 3.207598 -0.009120 0.000000 0.149003 0.067441 0.000000 3.152338 -0.040794 0.000000 0.145517 0.111966 0.000000 3.090375 -0.070142 0.000000 0.133593 0.151064 0.000000 3.014757 -0.087374 0.000000 0.120181 0.180353 0.000000 2.914203 -0.090945 0.000000 0.108824 0.205019 0.000000 2.780521 -0.083767 0.000000 0.100111 0.232580 0.000000 2.602494 -0.069463 0.000000 0.088564 0.273750 0.000000 2.373023 -0.047170 0.000000 0.062050 0.333357 0.000000 
2.156887 0.039978 0.000000 -0.005145 0.613801 0.000000 1.739614 0.055037 0.000000 -0.010112 0.884525 0.000000 1.245450 0.002872 0.000000 -0.011631 -0.966413 0.000000 1.735564 -0.006564 0.000000 0.006850 -0.643115 0.000000 2.133255 -0.004301 0.000000 0.022226 -0.455305 0.000000 2.430902 -0.003841 0.000000 0.032612 -0.333875 0.000000 2.657290 -0.005561 0.000000 0.038897 -0.252227 0.000000 2.830756 -0.005915 0.000000 0.045499 -0.196269 0.000000 2.962050 -0.005152 0.000000 0.055760 -0.157229 0.000000 3.058903 -0.002682 0.000000 0.072171 -0.131553 0.000000 3.124323 0.002758 0.000000 0.098502 -0.113074 0.000000 3.163124 0.005045 0.000000 0.129253 -0.091776 0.000000 3.189417 -0.000806 0.000000 0.151775 -0.065975 0.000000 3.216937 -0.010702 0.000000 0.158978 -0.040955 0.000000 3.250114 -0.018650 0.000000 0.151873 -0.020135 0.000000 3.287380 -0.022072 0.000000 0.135204 -0.005948 0.000000 3.323148 -0.019771 0.000000 0.116390 0.001045 0.000000 3.350529 -0.012561 0.000000 0.102778 0.002752 0.000000 3.364239 -0.002342 0.000000 0.099501 0.001482 0.000000 3.360809 0.008001 0.000000 0.107802 0.001355 0.000000 3.341049 0.015462 0.000000 0.124701 0.005167 0.000000 3.308434 0.018681 0.000000 0.145392 0.014484 0.000000 3.267642 0.017125 0.000000 0.164533 0.029276 0.000000 3.222141 0.011795 0.000000 0.178006 0.049567 0.000000 3.174004 0.003596 0.000000 0.182205 0.076034 0.000000 3.124531 -0.006340 0.000000 0.173993 0.108428 0.000000 3.072495 -0.014712 0.000000 0.153697 0.144077 0.000000 3.010142 -0.017476 0.000000 0.126669 0.182676 0.000000 2.925851 -0.014944 0.000000 0.097844 0.228551 0.000000 2.809058 -0.009114 0.000000 0.069431 0.287369 0.000000 2.649431 -0.002508 0.000000 0.040486 0.367684 0.000000 2.437352 0.005652 0.000000 0.008890 0.475592 0.000000 
2.254236 0.027974 0.000000 0.065214 0.799306 0.000000 1.922857 0.067339 0.000000 0.048602 1.108869 0.000000 1.528380 0.004015 0.000000 0.046644 -1.203698 0.000000 1.904829 0.000139 0.000000 0.050678 -0.831593 0.000000 2.232920 0.004737 0.000000 0.058370 -0.599332 0.000000 2.492359 0.007615 0.000000 0.066376 -0.449292 0.000000 2.695927 0.011085 0.000000 0.072553 -0.348607 0.000000 2.855620 0.017588 0.000000 0.077706 -0.279824 0.000000 2.980516 0.026893 0.000000 0.082285 -0.231929 0.000000 3.077657 0.037290 0.000000 0.087255 -0.197346 0.000000 3.150600 0.045926 0.000000 0.095148 -0.167877 0.000000 3.202818 0.046685 0.000000 0.104583 -0.135261 0.000000 3.241968 0.035925 0.000000 0.110752 -0.097772 0.000000 3.275030 0.017129 0.000000 0.111517 -0.060239 0.000000 3.304495 -0.002729 0.000000 0.108164 -0.028410 0.000000 3.330608 -0.017631 0.000000 0.102828 -0.006508 0.000000 3.351993 -0.023666 0.000000 0.098069 0.004287 0.000000 3.366557 -0.020158 0.000000 0.095950 0.006112 0.000000 3.372789 -0.009553 0.000000 0.097744 0.003203 0.000000 3.369526 0.003503 0.000000 0.103470 0.001312 0.000000 3.357182 0.013899 0.000000 0.111783 0.005443 0.000000 3.336807 0.018023 0.000000 0.120994 0.018782 0.000000 3.309503 0.014313 0.000000 0.129216 0.042280 0.000000 3.275493 0.003296 0.000000 0.135141 0.075462 0.000000 3.234311 -0.013319 0.000000 0.137608 0.116915 0.000000 3.185385 -0.032582 0.000000 0.135426 0.164002 0.000000 3.127324 -0.049847 0.000000 0.128846 0.213416 0.000000 3.055694 -0.060345 0.000000 0.120319 0.264644 0.000000 2.963947 -0.062120 0.000000 0.111545 0.321811 0.000000 2.845585 -0.055354 0.000000 0.102593 0.392207 0.000000 2.693479 -0.040519 0.000000 0.091176 0.485828 0.000000 2.500459 -0.015573 0.000000 0.073760 0.613823 0.000000 
2.368757 0.048523 0.000000 0.025356 0.945180 0.000000 2.096291 0.071649 0.000000 0.018268 1.279002 0.000000 1.785994 0.004831 0.000000 0.016158 -1.342862 0.000000 2.062053 -0.010598 0.000000 0.024488 -0.971206 0.000000 2.333709 -0.011992 0.000000 0.033913 -0.714744 0.000000 2.562752 -0.011847 0.000000 0.042224 -0.537443 0.000000 2.747082 -0.011738 0.000000 0.049523 -0.411920 0.000000 2.892562 -0.011068 0.000000 0.057524 -0.321165 0.000000 3.005223 -0.009731 0.000000 0.067968 -0.254371 0.000000 3.090200 -0.007653 0.000000 0.082095 -0.204496 0.000000 3.151523 -0.005136 0.000000 0.100269 -0.165292 0.000000 3.194237 -0.004390 0.000000 0.119379 -0.130925 0.000000 3.226078 -0.006974 0.000000 0.133938 -0.099038 0.000000 3.254307 -0.011467 0.000000 0.140313 -0.070419 0.000000 3.282387 -0.015297 0.000000 0.138400 -0.046249 0.000000 3.310202 -0.016736 0.000000 0.130688 -0.027333 0.000000 3.335098 -0.015012 0.000000 0.121259 -0.013518 0.000000 3.353415 -0.010442 0.000000 0.114322 -0.003480 0.000000 3.362029 -0.004136 0.000000 0.112890 0.004745 0.000000 3.359102 0.002275 0.000000 0.117854 0.013699 0.000000 3.344852 0.007148 0.000000 0.127863 0.025543 0.000000 3.321067 0.009470 0.000000 0.140177 0.041788 0.000000 3.290225 0.008904 0.000000 0.151564 0.063286 0.000000 3.254431 0.005870 0.000000 0.159135 0.090749 0.000000 3.214938 0.001129 0.000000 0.160520 0.124960 0.000000 3.171855 -0.004158 0.000000 0.154223 0.166489 0.000000 3.123300 -0.008133 0.000000 0.140581 0.215707 0.000000 3.064379 -0.008949 0.000000 0.121946 0.274423 0.000000 2.988163 -0.006170 0.000000 0.100913 0.346914 0.000000 2.887530 -0.000163 0.000000 0.079134 0.439474 0.000000 2.755594 0.008910 0.000000 0.057177 0.560704 0.000000 2.585652 0.023068 0.000000 0.036317 0.721815 0.000000 
2.498776 0.038935 0.000000 0.076231 1.071773 0.000000 2.284277 0.074426 0.000000 0.066905 1.419166 0.000000 2.045675 0.006125 0.000000 0.064812 -1.479757 0.000000 2.250512 -0.008191 0.000000 0.066668 -1.103249 0.000000 2.463193 -0.004688 0.000000 0.070199 -0.828375 0.000000 2.652351 -0.000695 0.000000 0.074663 -0.633622 0.000000 2.810723 0.003786 0.000000 0.079105 -0.494087 0.000000 2.939788 0.009587 0.000000 0.083379 -0.392485 0.000000 3.043293 0.016449 0.000000 0.087626 -0.316906 0.000000 3.125098 0.023163 0.000000 0.092258 -0.258670 0.000000 3.188334 0.027752 0.000000 0.097815 -0.210591 0.000000 3.236281 0.027575 0.000000 0.103506 -0.167101 0.000000 3.273302 0.021366 0.000000 0.107484 -0.126001 0.000000 3.303349 0.010754 0.000000 0.108733 -0.088319 0.000000 3.328563 -0.000816 0.000000 0.107633 -0.056226 0.000000 3.349593 -0.009919 0.000000 0.105319 -0.031404 0.000000 3.366000 -0.014237 0.000000 0.103225 -0.014030 0.000000 3.376824 -0.013221 0.000000 0.102592 -0.002501 0.000000 3.381196 -0.008121 0.000000 0.104175 0.006130 0.000000 3.378561 -0.001461 0.000000 0.108019 0.015562 0.000000 3.369005 0.003890 0.000000 0.113461 0.029227 0.000000 3.352985 0.005709 0.000000 0.119465 0.049624 0.000000 3.330965 0.002926 0.000000 0.124871 0.078074 0.000000 3.303041 -0.004275 0.000000 0.128703 0.114955 0.000000 3.268878 -0.014705 0.000000 0.130171 0.159997 0.000000 3.227728 -0.026285 0.000000 0.128760 0.212557 0.000000 3.178072 -0.036206 0.000000 0.124668 0.272337 0.000000 3.117041 -0.041709 0.000000 0.118845 0.340860 0.000000 3.040736 -0.041087 0.000000 0.112055 0.422445 0.000000 2.945034 -0.033575 0.000000 0.104347 0.524143 0.000000 2.825748 -0.018562 0.000000 0.095033 0.655770 0.000000 2.678673 0.005287 0.000000 0.084072 0.830718 0.000000 
2.630331 0.056364 0.000000 0.048061 1.159679 0.000000 2.462176 0.080975 0.000000 0.043162 1.517605 0.000000 2.282461 0.006924 0.000000 0.041238 -1.547699 0.000000 2.423418 -0.012454 0.000000 0.044162 -1.183887 0.000000 2.586715 -0.015524 0.000000 0.049330 -0.903902 0.000000 2.741744 -0.016311 0.000000 0.055227 -0.695815 0.000000 2.876105 -0.016179 0.000000 0.061589 -0.540985 0.000000 2.987164 -0.015342 0.000000 0.068964 -0.424670 0.000000 3.076053 -0.013977 0.000000 0.078050 -0.336175 0.000000 3.145170 -0.012285 0.000000 0.089217 -0.267732 0.000000 3.197372 -0.010693 0.000000 0.102070 -0.213240 0.000000 3.236272 -0.010081 0.000000 0.114800 -0.167946 0.000000 3.266356 -0.010953 0.000000 0.124778 -0.129084 0.000000 3.291712 -0.012715 0.000000 0.130137 -0.095634 0.000000 3.314661 -0.014197 0.000000 0.130659 -0.067279 0.000000 3.335536 -0.014423 0.000000 0.127633 -0.043740 0.000000 3.353141 -0.012918 0.000000 0.123304 -0.024342 0.000000 3.365576 -0.009809 0.000000 0.120070 -0.007852 0.000000 3.371094 -0.005719 0.000000 0.119697 0.007380 0.000000 3.368677 -0.001569 0.000000 0.122798 0.023254 0.000000 3.358368 0.001706 0.000000 0.128723 0.041563 0.000000 3.341102 0.003466 0.000000 0.135917 0.063808 0.000000 3.318233 0.003497 0.000000 0.142420 0.091211 0.000000 3.290981 0.002038 0.000000 0.146356 0.124911 0.000000 3.260012 -0.000338 0.000000 0.146224 0.166111 0.000000 3.225109 -0.002748 0.000000 0.141199 0.216144 0.000000 3.184772 -0.004041 0.000000 0.131465 0.276739 0.000000 3.135995 -0.003126 0.000000 0.118174 0.350727 0.000000 3.074752 0.000621 0.000000 0.102797 0.442616 0.000000 2.996871 0.007545 0.000000 0.086605 0.558761 0.000000 2.898616 0.018224 0.000000 0.070700 0.707779 0.000000 2.777031 0.034029 0.000000 0.056843 0.901711 0.000000 
2.770358 0.047717 0.000000 0.087549 1.239928 0.000000 2.645930 0.079326 0.000000 0.083443 1.598881 0.000000 2.519656 0.008048 0.000000 0.081669 -1.620714 0.000000 2.611642 -0.011115 0.000000 0.081554 -1.266547 0.000000 2.729150 -0.009856 0.000000 0.082798 -0.983404 0.000000 2.848338 -0.006593 0.000000 0.084952 -0.767983 0.000000 2.956893 -0.002577 0.000000 0.087632 -0.605146 0.000000 3.050320 0.002213 0.000000 0.090614 -0.481374 0.000000 3.128056 0.007363 0.000000 0.093836 -0.386023 0.000000 3.191177 0.011996 0.000000 0.097354 -0.310871 0.000000 3.241345 0.014899 0.000000 0.101159 -0.249491 0.000000 3.280652 0.014845 0.000000 0.104777 -0.197185 0.000000 3.311598 0.011388 0.000000 0.107417 -0.151356 0.000000 3.336476 0.005395 0.000000 0.108604 -0.111268 0.000000 3.356772 -0.001337 0.000000 0.108480 -0.077101 0.000000 3.373116 -0.006893 0.000000 0.107643 -0.049009 0.000000 3.385468 -0.009909 0.000000 0.106890 -0.026465 0.000000 3.393420 -0.009987 0.000000 0.106948 -0.008019 0.000000 3.396527 -0.007748 0.000000 0.108267 0.008548 0.000000 3.394504 -0.004561 0.000000 0.110891 0.025871 0.000000 3.387355 -0.002035 0.000000 0.114461 0.046493 0.000000 3.375278 -0.001485 0.000000 0.118354 0.072493 0.000000 3.358482 -0.003577 0.000000 0.121845 0.105327 0.000000 3.336999 -0.008210 0.000000 0.124275 0.145924 0.000000 3.310595 -0.014573 0.000000 0.125128 0.194900 0.000000 3.278692 -0.021259 0.000000 0.124130 0.252894 0.000000 3.240230 -0.026472 0.000000 0.121369 0.321114 0.000000 3.193535 -0.028418 0.000000 0.117249 0.402104 0.000000 3.136520 -0.025710 0.000000 0.112156 0.500325 0.000000 3.067088 -0.017383 0.000000 0.106254 0.622398 0.000000 2.983451 -0.002656 0.000000 0.099615 0.777354 0.000000 2.884462 0.019143 0.000000 0.092851 0.977418 0.000000 
2.904015 0.061666 0.000000 0.066809 1.284107 0.000000 2.817283 0.085081 0.000000 0.064757 1.643879 0.000000 2.735773 0.008698 0.000000 0.063224 -1.639686 0.000000 2.782784 -0.012339 0.000000 0.063310 -1.301395 0.000000 2.860303 -0.016768 0.000000 0.065690 -1.023090 0.000000 2.947553 -0.018465 0.000000 0.069411 -0.804370 0.000000 3.031364 -0.018859 0.000000 0.074178 -0.634412 0.000000 3.105398 -0.018324 0.000000 0.080064 -0.502406 0.000000 3.167458 -0.017200 0.000000 0.087228 -0.399297 0.000000 3.217540 -0.015803 0.000000 0.095628 -0.317900 0.000000 3.256828 -0.014497 0.000000 0.104770 -0.252546 0.000000 3.287308 -0.013699 0.000000 0.113561 -0.198892 0.000000 3.311440 -0.013592 0.000000 0.120632 -0.153962 0.000000 3.331485 -0.013903 0.000000 0.124993 -0.115930 0.000000 3.348853 -0.014073 0.000000 0.126478 -0.083624 0.000000 3.363891 -0.013585 0.000000 0.125760 -0.056092 0.000000 3.376066 -0.012165 0.000000 0.124074 -0.032294 0.000000 3.384397 -0.009868 0.000000 0.122778 -0.010958 0.000000 3.387932 -0.007037 0.000000 0.122905 0.009402 0.000000 3.386109 -0.004193 0.000000 0.124849 0.030403 0.000000 3.378940 -0.001865 0.000000 0.128289 0.053640 0.000000 3.366943 -0.000427 0.000000 0.132335 0.080604 0.000000 3.350901 0.000006 0.000000 0.135805 0.112693 0.000000 3.331544 -0.000392 0.000000 0.137524 0.151316 0.000000 3.309272 -0.001191 0.000000 0.136560 0.198014 0.000000 3.283922 -0.001750 0.000000 0.132422 0.254606 0.000000 3.254597 -0.001281 0.000000 0.125207 0.323433 0.000000 3.219668 0.000995 0.000000 0.115554 0.407742 0.000000 3.177085 0.005715 0.000000 0.104394 0.512047 0.000000 3.124899 0.013446 0.000000 0.092735 0.642398 0.000000 3.061780 0.024863 0.000000 0.081678 0.806767 0.000000 2.987537 0.040793 0.000000 0.072596 1.015816 0.000000 
3.043535 0.053504 0.000000 0.098310 1.326659 0.000000 2.991404 0.081378 0.000000 0.098036 1.680391 0.000000 2.951003 0.009581 0.000000 0.096716 -1.667724 0.000000 2.962148 -0.011201 0.000000 0.095362 -1.344066 0.000000 3.004537 -0.012236 0.000000 0.095193 -1.070654 0.000000 3.061669 -0.010313 0.000000 0.095796 -0.851794 0.000000 3.121875 -0.007343 0.000000 0.097003 -0.679180 0.000000 3.178510 -0.003674 0.000000 0.098662 -0.543434 0.000000 3.228476 0.000198 0.000000 0.100664 -0.436105 0.000000 3.270764 0.003596 0.000000 0.102924 -0.350160 0.000000 3.305515 0.005758 0.000000 0.105308 -0.279971 0.000000 3.333546 0.006054 0.000000 0.107516 -0.221317 0.000000 3.356052 0.004317 0.000000 0.109169 -0.171401 0.000000 3.374227 0.001033 0.000000 0.110039 -0.128636 0.000000 3.388933 -0.002823 0.000000 0.110192 -0.092138 0.000000 3.400599 -0.006175 0.000000 0.109947 -0.061184 0.000000 3.409279 -0.008223 0.000000 0.109748 -0.034796 0.000000 3.414801 -0.008691 0.000000 0.110012 -0.011555 0.000000 3.416942 -0.007875 0.000000 0.111001 0.010371 0.000000 3.415559 -0.006506 0.000000 0.112745 0.033040 0.000000 3.410651 -0.005475 0.000000 0.115039 0.058490 0.000000 3.402329 -0.005530 0.000000 0.117504 0.088535 0.000000 3.390728 -0.007048 0.000000 0.119688 0.124684 0.000000 3.375909 -0.009930 0.000000 0.121163 0.168196 0.000000 3.357789 -0.013608 0.000000 0.121600 0.220251 0.000000 3.336098 -0.017121 0.000000 0.120833 0.282219 0.000000 3.310334 -0.019257 0.000000 0.118901 0.356043 0.000000 3.279776 -0.018766 0.000000 0.116012 0.444687 0.000000 3.243649 -0.014550 0.000000 0.112427 0.552511 0.000000 3.201397 -0.005724 0.000000 0.108401 0.685518 0.000000 3.153010 0.008400 0.000000 0.104270 0.851597 0.000000 3.099461 0.028225 0.000000 0.100644 1.060940 0.000000 
3.172185 0.064001 0.000000 0.082507 1.336237 0.000000 3.151276 0.085355 0.000000 0.083272 1.684280 0.000000 3.146568 0.010017 0.000000 0.082227 -1.650831 0.000000 3.123878 -0.010985 0.000000 0.080909 -1.343784 0.000000 3.134122 -0.016598 0.000000 0.081521 -1.080222 0.000000 3.163333 -0.019068 0.000000 0.083495 -0.864576 0.000000 3.200313 -0.020066 0.000000 0.086613 -0.691047 0.000000 3.237905 -0.019983 0.000000 0.090799 -0.552372 0.000000 3.272213 -0.019202 0.000000 0.095990 -0.441585 0.000000 3.301549 -0.018064 0.000000 0.101995 -0.352651 0.000000 3.325620 -0.016881 0.000000 0.108386 -0.280577 0.000000 3.345013 -0.015907 0.000000 0.114475 -0.221399 0.000000 3.360777 -0.015245 0.000000 0.119493 -0.172137 0.000000 3.373976 -0.014773 0.000000 0.122887 -0.130635 0.000000 3.385316 -0.014227 0.000000 0.124542 -0.095290 0.000000 3.394975 -0.013340 0.000000 0.124806 -0.064772 0.000000 3.402669 -0.011966 0.000000 0.124357 -0.037815 0.000000 3.407861 -0.010132 0.000000 0.123959 -0.013100 0.000000 3.410027 -0.008025 0.000000 0.124210 0.010785 0.000000 3.408859 -0.005937 0.000000 0.125355 0.035311 0.000000 3.404383 -0.004159 0.000000 0.127226 0.061962 0.000000 3.396930 -0.002892 0.000000 0.129311 0.092205 0.000000 3.387009 -0.002178 0.000000 0.130905 0.127513 0.000000 3.375131 -0.001866 0.000000 0.131288 0.169435 0.000000 3.361640 -0.001628 0.000000 0.129894 0.219705 0.000000 3.346582 -0.000983 0.000000 0.126435 0.280371 0.000000 3.329645 0.000651 0.000000 0.120984 0.353991 0.000000 3.310225 0.003884 0.000000 0.113954 0.443869 0.000000 3.287654 0.009300 0.000000 0.106001 0.554299 0.000000 3.261557 0.017472 0.000000 0.097934 0.690785 0.000000 3.232270 0.028994 0.000000 0.090681 0.860315 0.000000 3.201326 0.044419 0.000000 0.085258 1.071743 0.000000 
3.305508 0.056254 0.000000 0.108016 1.347568 0.000000 3.312502 0.080613 0.000000 0.110744 1.685099 0.000000 3.340211 0.010627 0.000000 0.109940 -1.645035 0.000000 3.290280 -0.009883 0.000000 0.107985 -1.354310 0.000000 3.273338 -0.012848 0.000000 0.106923 -1.099865 0.000000 3.277928 -0.012287 0.000000 0.106450 -0.888775 0.000000 3.294349 -0.010462 0.000000 0.106491 -0.716772 0.000000 3.315786 -0.007859 0.000000 0.106969 -0.577742 0.000000 3.338026 -0.004993 0.000000 0.107794 -0.465441 0.000000 3.358754 -0.002410 0.000000 0.108865 -0.374231 0.000000 3.376920 -0.000633 0.000000 0.110047 -0.299364 0.000000 3.392272 -0.000035 0.000000 0.111146 -0.237080 0.000000 3.405021 -0.000701 0.000000 0.111960 -0.184601 0.000000 3.415549 -0.002361 0.000000 0.112373 -0.139976 0.000000 3.424181 -0.004477 0.000000 0.112418 -0.101797 0.000000 3.431078 -0.006439 0.000000 0.112265 -0.068878 0.000000 3.436234 -0.007774 0.000000 0.112161 -0.039989 0.000000 3.439536 -0.008293 0.000000 0.112339 -0.013720 0.000000 3.440857 -0.008126 0.000000 0.112948 0.011539 0.000000 3.440121 -0.007651 0.000000 0.114002 0.037516 0.000000 3.437349 -0.007347 0.000000 0.115379 0.065943 0.000000 3.432646 -0.007615 0.000000 0.116846 0.098456 0.000000 3.426162 -0.008641 0.000000 0.118122 0.136562 0.000000 3.418044 -0.010313 0.000000 0.118938 0.181687 0.000000 3.408403 -0.012214 0.000000 0.119091 0.235309 0.000000 3.397296 -0.013663 0.000000 0.118486 0.299156 0.000000 3.384734 -0.013806 0.000000 0.117154 0.375463 0.000000 3.370745 -0.011736 0.000000 0.115246 0.467258 0.000000 3.355509 -0.006597 0.000000 0.112991 0.578608 0.000000 3.339578 0.002343 0.000000 0.110684 0.714805 0.000000 3.324157 0.015653 0.000000 0.108722 0.882541 0.000000 3.311500 0.033649 0.000000 0.107641 1.090081 0.000000 
3.425314 0.063626 0.000000 0.095682 1.329243 0.000000 3.458398 0.082627 0.000000 0.099001 1.656572 0.000000 3.515313 0.010821 0.000000 0.098484 -1.600900 0.000000 3.438879 -0.009030 0.000000 0.096593 -1.326842 0.000000 3.395897 -0.015536 0.000000 0.096110 -1.084812 0.000000 3.376730 -0.018596 0.000000 0.096762 -0.880996 0.000000 3.372398 -0.020107 0.000000 0.098427 -0.712485 0.000000 3.376161 -0.020461 0.000000 0.101015 -0.574611 0.000000 3.383534 -0.020027 0.000000 0.104409 -0.462314 0.000000 3.391849 -0.019135 0.000000 0.108403 -0.370817 0.000000 3.399750 -0.018062 0.000000 0.112662 -0.295929 0.000000 3.406760 -0.017006 0.000000 0.116738 -0.234148 0.000000 3.412915 -0.016059 0.000000 0.120171 -0.182665 0.000000 3.418435 -0.015186 0.000000 0.122630 -0.139267 0.000000 3.423471 -0.014272 0.000000 0.124028 -0.102187 0.000000 3.427971 -0.013188 0.000000 0.124540 -0.069927 0.000000 3.431687 -0.011862 0.000000 0.124532 -0.041118 0.000000 3.434266 -0.010310 0.000000 0.124430 -0.014420 0.000000 3.435389 -0.008634 0.000000 0.124573 0.011521 0.000000 3.434888 -0.006991 0.000000 0.125108 0.038083 0.000000 3.432811 -0.005535 0.000000 0.125943 0.066665 0.000000 3.429415 -0.004359 0.000000 0.126784 0.098689 0.000000 3.425100 -0.003454 0.000000 0.127214 0.135631 0.000000 3.420314 -0.002683 0.000000 0.126806 0.179076 0.000000 3.415460 -0.001781 0.000000 0.125230 0.230812 0.000000 3.410837 -0.000377 0.000000 0.122334 0.292932 0.000000 3.406630 0.001983 0.000000 0.118200 0.367980 0.000000 3.402995 0.005792 0.000000 0.113141 0.459106 0.000000 3.400231 0.011555 0.000000 0.107663 0.570231 0.000000 3.399045 0.019779 0.000000 0.102420 0.706205 0.000000 3.400866 0.030956 0.000000 0.098167 0.872973 0.000000 3.408237 0.045500 0.000000 0.095694 1.077735 0.000000 