# vtk DataFile Version 2.0
Comment goes here
ASCII

DATASET STRUCTURED_POINTS
FIELD FieldData 1
TIME 1 1 double
0.06100000
DIMENSIONS    64   64   1

ORIGIN    0.000   0.000   0.000
SPACING   0.03125 0.03125   1.000

POINT_DATA   4096
VECTORS u double

0.697399 0.000246 0.000000 -1.659307 -0.000052 0.000000 0.462040 -0.000126 0.000000 -1.480182 0.000144 0.000000 0.117128 -0.000127 0.000000 -1.303805 0.000212 0.000000 0.150662 -0.000195 0.000000 -1.084069 0.000163 0.000000 0.100741 -0.000115 0.000000 -0.912114 0.000121 0.000000 0.037148 -0.000050 0.000000 -0.790761 0.000056 0.000000 -0.003591 0.000047 0.000000 -0.722474 -0.000013 0.000000 -0.013027 0.000214 0.000000 -0.688794 -0.000034 0.000000 -0.013943 -0.000247 0.000000 -0.655302 -0.000261 0.000000 -0.032904 -0.000049 0.000000 -0.597489 -0.000049 0.000000 -0.092234 0.000150 0.000000 -0.491863 -0.000048 0.000000 -0.209759 0.000110 0.000000 -0.330536 -0.000006 0.000000 -0.379319 0.000028 0.000000 -0.127351 0.000002 0.000000 -0.580249 0.000011 0.000000 0.094687 -0.000036 0.000000 -0.787954 0.000066 0.000000 0.312025 -0.000056 0.000000 -0.983683 0.000013 0.000000 0.515068 0.000014 0.000000 -1.163737 -0.000033 0.000000 0.698268 0.000063 0.000000 -1.320247 -0.000062 0.000000 0.849385 0.000026 0.000000 -1.436341 0.000009 0.000000 0.946754 -0.000008 0.000000 -1.486846 -0.000022 0.000000 0.964238 0.000045 0.000000 -1.445241 -0.000013 0.000000 0.874725 0.000024 0.000000 -1.304541 -0.000050 0.000000 0.700316 0.000055 0.000000 -1.110453 -0.000037 0.000000 0.494833 0.000046 0.000000 -0.902013 -0.000052 0.000000 0.272027 0.000059 0.000000 -0.679391 -0.000079 0.000000 0.025536 0.000086 0.000000 -0.434330 -0.000055 0.000000 -0.253304 -0.000010 0.000000 -0.164944 0.000040 0.000000 -0.552577 -0.000050 0.000000 0.102056 0.000039 0.000000 -0.838368 -0.000031 0.000000 0.325362 0.000011 0.000000 -1.073344 -0.000022 0.000000 0.481580 0.000073 0.000000 -1.254931 -0.000121 0.000000 0.581012 0.000140 0.000000 -1.407991 -0.000136 0.000000 0.643686 0.000129 0.000000 -1.547513 -0.000181 0.000000 
-0.410211 0.055963 0.000000 0.377946 0.117832 0.000000 -0.228741 -0.089679 0.000000 0.295754 0.172588 0.000000 0.086986 -0.088350 0.000000 0.220232 -0.016690 0.000000 -0.136886 -0.109950 0.000000 0.080091 0.025016 0.000000 -0.231947 -0.086017 0.000000 -0.009820 0.031798 0.000000 -0.281419 -0.060671 0.000000 -0.062095 0.020332 0.000000 -0.323847 -0.034142 0.000000 -0.080258 0.004657 0.000000 -0.371943 -0.016915 0.000000 -0.078012 0.000463 0.000000 -0.416401 -0.016683 0.000000 -0.077216 0.009701 0.000000 -0.445688 -0.028829 0.000000 -0.089362 0.029572 0.000000 -0.448732 -0.052801 0.000000 -0.128658 0.058695 0.000000 -0.415374 -0.080679 0.000000 -0.201436 0.084800 0.000000 -0.349255 -0.101651 0.000000 -0.300005 0.100511 0.000000 -0.261474 -0.111070 0.000000 -0.412666 0.103875 0.000000 -0.165980 -0.108684 0.000000 -0.526401 0.097840 0.000000 -0.073697 -0.101462 0.000000 -0.635998 0.089948 0.000000 0.014250 -0.091516 0.000000 -0.738121 0.078151 0.000000 0.093831 -0.075427 0.000000 -0.827270 0.057906 0.000000 0.157278 -0.048567 0.000000 -0.892143 0.025164 0.000000 0.192354 -0.008696 0.000000 -0.919141 -0.020771 0.000000 0.185295 0.044673 0.000000 -0.891129 -0.070243 0.000000 0.128864 0.087089 0.000000 -0.819624 -0.096918 0.000000 0.050891 0.102629 0.000000 -0.735715 -0.104135 0.000000 -0.027425 0.111348 0.000000 -0.644008 -0.111273 0.000000 -0.107875 0.123227 0.000000 -0.539392 -0.122531 0.000000 -0.197009 0.139434 0.000000 -0.414018 -0.134702 0.000000 -0.298470 0.149623 0.000000 -0.272549 -0.133471 0.000000 -0.396827 0.142838 0.000000 -0.133649 -0.111591 0.000000 -0.467662 0.117446 0.000000 -0.019130 -0.078109 0.000000 -0.495242 0.090852 0.000000 0.069988 -0.049821 0.000000 -0.484262 0.076688 0.000000 0.147468 -0.031538 0.000000 -0.440711 0.069984 0.000000 0.222193 -0.027055 0.000000 
1.478397 -0.155508 0.000000 0.751057 -0.181522 0.000000 1.205522 0.082065 0.000000 0.667516 -0.315583 0.000000 0.937682 0.075395 0.000000 0.540258 0.224084 0.000000 1.557562 0.139946 0.000000 0.502217 0.095224 0.000000 1.962958 0.089796 0.000000 0.414449 0.049592 0.000000 2.246469 0.052225 0.000000 0.332035 0.042484 0.000000 2.438989 0.018210 0.000000 0.279870 0.048084 0.000000 2.562951 -0.002031 0.000000 0.253047 0.044423 0.000000 2.649702 -0.001043 0.000000 0.231346 0.029027 0.000000 2.727343 0.012097 0.000000 0.198333 0.002995 0.000000 2.815258 0.039446 0.000000 0.135563 -0.033406 0.000000 2.932745 0.072889 0.000000 0.037559 -0.066125 0.000000 3.075944 0.098597 0.000000 -0.084025 -0.087779 0.000000 3.234270 0.112672 0.000000 -0.216209 -0.095530 0.000000 3.392769 0.113801 0.000000 -0.340768 -0.092339 0.000000 3.539523 0.109610 0.000000 -0.453337 -0.087933 0.000000 3.674161 0.102090 0.000000 -0.553103 -0.079518 0.000000 3.792293 0.089086 0.000000 -0.634971 -0.063422 0.000000 3.883530 0.064882 0.000000 -0.686496 -0.035083 0.000000 3.930762 0.026975 0.000000 -0.691360 0.007104 0.000000 3.914390 -0.028025 0.000000 -0.629458 0.056455 0.000000 3.825978 -0.071554 0.000000 -0.516806 0.078028 0.000000 3.699264 -0.083946 0.000000 -0.395123 0.078361 0.000000 3.560697 -0.091759 0.000000 -0.271467 0.080510 0.000000 3.404919 -0.104695 0.000000 -0.137228 0.089219 0.000000 3.221040 -0.125429 0.000000 0.015390 0.101452 0.000000 3.002862 -0.141429 0.000000 0.182876 0.098306 0.000000 2.762962 -0.138861 0.000000 0.341246 0.070805 0.000000 2.526804 -0.114508 0.000000 0.463613 0.027558 0.000000 2.306256 -0.089044 0.000000 0.547287 -0.011102 0.000000 2.082047 -0.077340 0.000000 0.620477 -0.043688 0.000000 1.815251 -0.074596 0.000000 0.702089 -0.030681 0.000000 
3.500613 0.006996 0.000000 0.048585 0.390707 0.000000 2.641621 -0.006138 0.000000 -0.088691 0.440428 0.000000 1.315422 0.038909 0.000000 -0.019829 -0.636570 0.000000 2.863233 -0.071908 0.000000 0.086616 -0.380380 0.000000 3.672019 0.001750 0.000000 0.137998 -0.251713 0.000000 4.197593 0.021742 0.000000 0.164977 -0.172188 0.000000 4.584246 0.018024 0.000000 0.172943 -0.119304 0.000000 4.889248 0.009908 0.000000 0.169702 -0.086288 0.000000 5.133061 0.005018 0.000000 0.166935 -0.067939 0.000000 5.326054 0.004184 0.000000 0.168310 -0.058344 0.000000 5.474254 0.009968 0.000000 0.180975 -0.058792 0.000000 5.579116 0.017325 0.000000 0.208096 -0.058399 0.000000 5.648641 0.019933 0.000000 0.244587 -0.057814 0.000000 5.692464 0.021115 0.000000 0.284272 -0.054623 0.000000 5.720426 0.015875 0.000000 0.321300 -0.048914 0.000000 5.739146 0.011107 0.000000 0.355938 -0.044691 0.000000 5.747264 0.008249 0.000000 0.389592 -0.039981 0.000000 5.744929 0.006441 0.000000 0.421774 -0.033332 0.000000 5.733881 0.002958 0.000000 0.448050 -0.022068 0.000000 5.719049 -0.003832 0.000000 0.462856 -0.004398 0.000000 5.708021 -0.017229 0.000000 0.456082 0.018168 0.000000 5.706881 -0.025563 0.000000 0.435881 0.029796 0.000000 5.696767 -0.019055 0.000000 0.422815 0.034433 0.000000 5.663732 -0.012308 0.000000 0.416215 0.044505 0.000000 5.608959 -0.011012 0.000000 0.409580 0.061348 0.000000 5.534840 -0.013184 0.000000 0.394099 0.083476 0.000000 5.441936 -0.017863 0.000000 0.369281 0.106430 0.000000 5.316670 -0.015532 0.000000 0.343132 0.124567 0.000000 5.137129 -0.004920 0.000000 0.326113 0.142438 0.000000 4.882430 0.007178 0.000000 0.313658 0.174389 0.000000 4.539063 0.003498 0.000000 0.290434 0.235258 0.000000 4.082160 -0.011628 0.000000 0.239696 0.309799 0.000000 
3.599057 0.035603 0.000000 0.233507 0.677471 0.000000 2.897087 0.219341 0.000000 0.036726 1.010616 0.000000 1.833683 0.006534 0.000000 0.066492 -1.323727 0.000000 3.006082 0.033501 0.000000 0.048800 -0.713562 0.000000 3.764795 0.038414 0.000000 0.089553 -0.475982 0.000000 4.288275 0.025246 0.000000 0.131114 -0.344168 0.000000 4.674258 0.010245 0.000000 0.162520 -0.256919 0.000000 4.970841 0.001210 0.000000 0.185418 -0.199390 0.000000 5.202401 0.001723 0.000000 0.203505 -0.163965 0.000000 5.383693 0.010722 0.000000 0.219371 -0.145205 0.000000 5.525788 0.026780 0.000000 0.237311 -0.138269 0.000000 5.633009 0.045768 0.000000 0.258107 -0.135649 0.000000 5.713953 0.062106 0.000000 0.278514 -0.131602 0.000000 5.773740 0.072987 0.000000 0.298939 -0.123492 0.000000 5.817136 0.076774 0.000000 0.315286 -0.111058 0.000000 5.848050 0.074972 0.000000 0.328743 -0.096051 0.000000 5.866550 0.068435 0.000000 0.341129 -0.077182 0.000000 5.873493 0.056904 0.000000 0.353685 -0.052374 0.000000 5.869736 0.038607 0.000000 0.365966 -0.020251 0.000000 5.857194 0.012168 0.000000 0.376422 0.018132 0.000000 5.838810 -0.021251 0.000000 0.379938 0.057596 0.000000 5.817213 -0.051352 0.000000 0.378890 0.088142 0.000000 5.783140 -0.070881 0.000000 0.382907 0.111396 0.000000 5.729774 -0.085159 0.000000 0.390995 0.135283 0.000000 5.657769 -0.098061 0.000000 0.398949 0.163338 0.000000 5.566613 -0.109948 0.000000 0.404414 0.194356 0.000000 5.452992 -0.116611 0.000000 0.404154 0.223573 0.000000 5.308921 -0.112712 0.000000 0.401465 0.250346 0.000000 5.119507 -0.097488 0.000000 0.399812 0.282257 0.000000 4.868246 -0.076589 0.000000 0.397594 0.332265 0.000000 4.541672 -0.054116 0.000000 0.376757 0.413216 0.000000 4.130061 -0.023858 0.000000 0.314422 0.550866 0.000000 
3.799840 0.087911 0.000000 0.101500 1.092677 0.000000 3.152824 0.190643 0.000000 0.049770 1.503831 0.000000 2.310849 0.009143 0.000000 0.043588 -1.808969 0.000000 3.145447 -0.054216 0.000000 0.072955 -1.139094 0.000000 3.855399 -0.039003 0.000000 0.113663 -0.775192 0.000000 4.365942 -0.019818 0.000000 0.143492 -0.558172 0.000000 4.742183 -0.013383 0.000000 0.162754 -0.415887 0.000000 5.030669 -0.012990 0.000000 0.175495 -0.317848 0.000000 5.255991 -0.013069 0.000000 0.186573 -0.249232 0.000000 5.432127 -0.011682 0.000000 0.199459 -0.200438 0.000000 5.567652 -0.007971 0.000000 0.217258 -0.166013 0.000000 5.668110 -0.003471 0.000000 0.241252 -0.139344 0.000000 5.739524 -0.000474 0.000000 0.269982 -0.117601 0.000000 5.788131 0.000690 0.000000 0.301271 -0.098019 0.000000 5.819405 -0.000472 0.000000 0.332488 -0.079829 0.000000 5.837458 -0.002349 0.000000 0.362460 -0.063191 0.000000 5.844034 -0.004137 0.000000 0.390750 -0.046924 0.000000 5.840996 -0.006115 0.000000 0.416928 -0.029574 0.000000 5.830906 -0.009323 0.000000 0.439347 -0.009526 0.000000 5.816927 -0.014288 0.000000 0.454859 0.013985 0.000000 5.801830 -0.020744 0.000000 0.459605 0.039766 0.000000 5.785586 -0.024515 0.000000 0.455590 0.063869 0.000000 5.761139 -0.023072 0.000000 0.448938 0.087798 0.000000 5.722170 -0.020396 0.000000 0.441113 0.116509 0.000000 5.666676 -0.018965 0.000000 0.430571 0.152505 0.000000 5.593239 -0.018649 0.000000 0.414893 0.197097 0.000000 5.497831 -0.017603 0.000000 0.393656 0.250501 0.000000 5.370793 -0.012843 0.000000 0.369176 0.313981 0.000000 5.198543 -0.003267 0.000000 0.343442 0.393699 0.000000 4.967396 0.009395 0.000000 0.313060 0.500963 0.000000 4.665098 0.024335 0.000000 0.268364 0.646868 0.000000 4.278097 0.050706 0.000000 0.197643 0.840804 0.000000 
3.986149 0.131746 0.000000 0.225347 1.324488 0.000000 3.467210 0.271072 0.000000 0.162146 1.852590 0.000000 2.789355 0.012715 0.000000 0.155565 -2.158325 0.000000 3.391173 0.004134 0.000000 0.121562 -1.423514 0.000000 3.967248 -0.002295 0.000000 0.127165 -0.986526 0.000000 4.423671 -0.004583 0.000000 0.149262 -0.720408 0.000000 4.774234 -0.009016 0.000000 0.172796 -0.545405 0.000000 5.046182 -0.011531 0.000000 0.193710 -0.424712 0.000000 5.259393 -0.009355 0.000000 0.212246 -0.340101 0.000000 5.426955 -0.002164 0.000000 0.229435 -0.280731 0.000000 5.558227 0.008981 0.000000 0.246777 -0.238726 0.000000 5.659376 0.021774 0.000000 0.264767 -0.207064 0.000000 5.736487 0.033375 0.000000 0.282575 -0.180209 0.000000 5.794110 0.041698 0.000000 0.299515 -0.154767 0.000000 5.836273 0.045557 0.000000 0.314530 -0.129111 0.000000 5.865797 0.045000 0.000000 0.327760 -0.102628 0.000000 5.884022 0.040146 0.000000 0.339843 -0.074144 0.000000 5.892010 0.030726 0.000000 0.351196 -0.042284 0.000000 5.890775 0.016187 0.000000 0.361486 -0.006272 0.000000 5.881574 -0.003343 0.000000 0.369842 0.033229 0.000000 5.865575 -0.025996 0.000000 0.375044 0.073839 0.000000 5.842696 -0.047338 0.000000 0.378401 0.112589 0.000000 5.809248 -0.064229 0.000000 0.382903 0.150365 0.000000 5.761589 -0.077334 0.000000 0.388610 0.190777 0.000000 5.698031 -0.087519 0.000000 0.393947 0.236775 0.000000 5.616554 -0.094269 0.000000 0.397238 0.289764 0.000000 5.513731 -0.095374 0.000000 0.397359 0.350611 0.000000 5.383449 -0.088232 0.000000 0.394441 0.422596 0.000000 5.216650 -0.071754 0.000000 0.388190 0.513404 0.000000 5.003321 -0.046208 0.000000 0.375143 0.634564 0.000000 4.734566 -0.009420 0.000000 0.347835 0.800217 0.000000 4.400682 0.046863 0.000000 0.301461 1.029122 0.000000 
4.232335 0.164024 0.000000 0.168382 1.611616 0.000000 3.783372 0.253844 0.000000 0.154927 2.181686 0.000000 3.231035 0.015724 0.000000 0.148353 -2.410786 0.000000 3.657626 -0.020214 0.000000 0.133715 -1.715169 0.000000 4.132799 -0.044605 0.000000 0.142505 -1.231615 0.000000 4.542545 -0.041914 0.000000 0.159272 -0.908735 0.000000 4.867810 -0.036917 0.000000 0.175546 -0.687836 0.000000 5.123230 -0.033904 0.000000 0.189946 -0.531059 0.000000 5.324213 -0.031605 0.000000 0.203775 -0.416794 0.000000 5.481873 -0.028871 0.000000 0.218776 -0.331710 0.000000 5.603898 -0.025313 0.000000 0.236454 -0.267162 0.000000 5.695948 -0.021461 0.000000 0.257448 -0.216455 0.000000 5.763139 -0.018282 0.000000 0.281241 -0.175224 0.000000 5.810372 -0.016250 0.000000 0.306657 -0.140181 0.000000 5.841942 -0.015488 0.000000 0.332279 -0.109353 0.000000 5.861189 -0.015579 0.000000 0.357125 -0.081416 0.000000 5.870338 -0.016220 0.000000 0.380501 -0.054911 0.000000 5.871271 -0.017469 0.000000 0.401588 -0.028339 0.000000 5.865921 -0.019612 0.000000 0.419046 -0.000326 0.000000 5.856164 -0.022645 0.000000 0.431140 0.029984 0.000000 5.843117 -0.025946 0.000000 0.436561 0.062645 0.000000 5.826058 -0.027872 0.000000 0.436154 0.097316 0.000000 5.801668 -0.027574 0.000000 0.432091 0.135458 0.000000 5.766341 -0.026103 0.000000 0.425289 0.180067 0.000000 5.717535 -0.024303 0.000000 0.415425 0.233981 0.000000 5.652791 -0.021940 0.000000 0.401797 0.299920 0.000000 5.568241 -0.017724 0.000000 0.384322 0.380783 0.000000 5.457571 -0.009926 0.000000 0.363638 0.480780 0.000000 5.312642 0.002984 0.000000 0.339802 0.607029 0.000000 5.125093 0.022442 0.000000 0.310690 0.769717 0.000000 4.887231 0.051644 0.000000 0.272681 0.980752 0.000000 4.591715 0.097080 0.000000 0.224414 1.255337 0.000000 
4.462210 0.187779 0.000000 0.256234 1.773451 0.000000 4.110084 0.284526 0.000000 0.238505 2.404927 0.000000 3.671127 0.019289 0.000000 0.232070 -2.584916 0.000000 3.969847 0.018773 0.000000 0.196838 -1.898686 0.000000 4.324064 -0.011085 0.000000 0.181526 -1.396272 0.000000 4.659587 -0.021350 0.000000 0.185333 -1.045674 0.000000 4.942442 -0.025290 0.000000 0.197886 -0.800825 0.000000 5.171656 -0.025931 0.000000 0.213075 -0.625694 0.000000 5.355182 -0.023184 0.000000 0.228611 -0.497761 0.000000 5.501182 -0.017164 0.000000 0.243967 -0.402756 0.000000 5.616464 -0.008697 0.000000 0.259291 -0.330776 0.000000 5.706356 0.000779 0.000000 0.274641 -0.274255 0.000000 5.775513 0.009582 0.000000 0.289663 -0.227441 0.000000 5.827703 0.016283 0.000000 0.303910 -0.186337 0.000000 5.866093 0.019935 0.000000 0.316972 -0.148359 0.000000 5.893025 0.020153 0.000000 0.328798 -0.111777 0.000000 5.910030 0.016771 0.000000 0.339552 -0.075076 0.000000 5.918238 0.009639 0.000000 0.349325 -0.036935 0.000000 5.918584 -0.001271 0.000000 0.357920 0.003486 0.000000 5.911878 -0.015437 0.000000 0.364968 0.046276 0.000000 5.898572 -0.031418 0.000000 0.370229 0.090899 0.000000 5.878235 -0.046931 0.000000 0.374333 0.136979 0.000000 5.849080 -0.060166 0.000000 0.378297 0.185692 0.000000 5.808985 -0.070532 0.000000 0.382196 0.239583 0.000000 5.756182 -0.077655 0.000000 0.385306 0.301519 0.000000 5.688683 -0.080642 0.000000 0.386650 0.374313 0.000000 5.603754 -0.077898 0.000000 0.385427 0.461281 0.000000 5.497418 -0.067549 0.000000 0.381001 0.567524 0.000000 5.364510 -0.047918 0.000000 0.372335 0.700953 0.000000 5.199574 -0.017096 0.000000 0.357295 0.872426 0.000000 4.997649 0.028589 0.000000 0.333230 1.095732 0.000000 4.753680 0.095129 0.000000 0.299188 1.388502 0.000000 
4.716228 0.206978 0.000000 0.222357 1.963742 0.000000 4.426649 0.271573 0.000000 0.230049 2.620642 0.000000 4.077596 0.022158 0.000000 0.224114 -2.709506 0.000000 4.274445 0.015018 0.000000 0.199866 -2.069386 0.000000 4.541458 -0.029294 0.000000 0.190374 -1.567138 0.000000 4.818271 -0.045721 0.000000 0.193470 -1.191590 0.000000 5.063848 -0.049470 0.000000 0.202441 -0.917050 0.000000 5.268138 -0.049093 0.000000 0.213724 -0.714585 0.000000 5.433583 -0.047142 0.000000 0.226290 -0.562793 0.000000 5.565408 -0.044227 0.000000 0.240278 -0.446993 0.000000 5.668621 -0.040637 0.000000 0.256103 -0.357053 0.000000 5.747576 -0.036810 0.000000 0.273930 -0.285611 0.000000 5.806247 -0.033304 0.000000 0.293451 -0.227415 0.000000 5.848359 -0.030497 0.000000 0.313980 -0.178572 0.000000 5.877206 -0.028550 0.000000 0.334667 -0.136284 0.000000 5.895473 -0.027404 0.000000 0.354736 -0.098421 0.000000 5.905213 -0.026974 0.000000 0.373479 -0.063120 0.000000 5.908108 -0.027242 0.000000 0.390115 -0.028685 0.000000 5.905624 -0.028207 0.000000 0.403680 0.006381 0.000000 5.898925 -0.029693 0.000000 0.413188 0.043290 0.000000 5.888510 -0.031207 0.000000 0.418054 0.082982 0.000000 5.873793 -0.031975 0.000000 0.418574 0.126471 0.000000 5.853015 -0.031538 0.000000 0.415571 0.175553 0.000000 5.824008 -0.030002 0.000000 0.409555 0.232870 0.000000 5.784733 -0.027413 0.000000 0.400573 0.301480 0.000000 5.733031 -0.023284 0.000000 0.388494 0.384850 0.000000 5.666068 -0.016500 0.000000 0.373343 0.487119 0.000000 5.580004 -0.005500 0.000000 0.355292 0.613687 0.000000 5.470316 0.011650 0.000000 0.334222 0.771965 0.000000 5.332543 0.037483 0.000000 0.309457 0.971642 0.000000 5.162849 0.075708 0.000000 0.280616 1.224722 0.000000 4.958175 0.131123 0.000000 0.249447 1.546807 0.000000 
4.954471 0.214869 0.000000 0.288382 2.063029 0.000000 4.740688 0.276835 0.000000 0.296239 2.753981 0.000000 4.480234 0.025224 0.000000 0.290782 -2.781765 0.000000 4.595196 0.043021 0.000000 0.259748 -2.165700 0.000000 4.772636 -0.001594 0.000000 0.237731 -1.673084 0.000000 4.978100 -0.024446 0.000000 0.230199 -1.291251 0.000000 5.174581 -0.034261 0.000000 0.232864 -1.005115 0.000000 5.345994 -0.037214 0.000000 0.241007 -0.791140 0.000000 5.489158 -0.035750 0.000000 0.251674 -0.629585 0.000000 5.605943 -0.031151 0.000000 0.263409 -0.505970 0.000000 5.699651 -0.024522 0.000000 0.275578 -0.409730 0.000000 5.773667 -0.017048 0.000000 0.287843 -0.332927 0.000000 5.831175 -0.009938 0.000000 0.299874 -0.269553 0.000000 5.874946 -0.004247 0.000000 0.311358 -0.215184 0.000000 5.907331 -0.000752 0.000000 0.322046 -0.166626 0.000000 5.930180 0.000085 0.000000 0.331832 -0.121517 0.000000 5.944855 -0.001973 0.000000 0.340704 -0.077970 0.000000 5.952381 -0.006997 0.000000 0.348634 -0.034451 0.000000 5.953549 -0.014836 0.000000 0.355509 0.010185 0.000000 5.948929 -0.024945 0.000000 0.361184 0.056691 0.000000 5.938754 -0.036284 0.000000 0.365635 0.105616 0.000000 5.922719 -0.047450 0.000000 0.369138 0.157757 0.000000 5.899900 -0.057164 0.000000 0.372039 0.214699 0.000000 5.869080 -0.064515 0.000000 0.374327 0.278858 0.000000 5.829017 -0.068673 0.000000 0.375600 0.353221 0.000000 5.778331 -0.068563 0.000000 0.375261 0.441277 0.000000 5.715321 -0.062747 0.000000 0.372709 0.547345 0.000000 5.637837 -0.049498 0.000000 0.367347 0.677213 0.000000 5.543395 -0.026848 0.000000 0.358480 0.838725 0.000000 5.429599 0.007669 0.000000 0.345354 1.042121 0.000000 5.294506 0.057431 0.000000 0.327751 1.300406 0.000000 5.136571 0.126298 0.000000 0.307023 1.630450 0.000000 
5.200137 0.225620 0.000000 0.265457 2.177525 0.000000 5.039806 0.263716 0.000000 0.286765 2.881097 0.000000 4.851674 0.027615 0.000000 0.281999 -2.824469 0.000000 4.898870 0.046053 0.000000 0.258124 -2.246825 0.000000 5.010522 -0.007278 0.000000 0.241830 -1.772602 0.000000 5.161247 -0.038189 0.000000 0.236248 -1.388071 0.000000 5.316829 -0.052135 0.000000 0.238113 -1.088463 0.000000 5.458410 -0.057236 0.000000 0.244453 -0.857749 0.000000 5.579263 -0.057809 0.000000 0.253528 -0.679579 0.000000 5.678608 -0.055961 0.000000 0.264580 -0.540701 0.000000 5.757971 -0.052806 0.000000 0.277327 -0.431069 0.000000 5.819635 -0.049075 0.000000 0.291568 -0.343119 0.000000 5.866118 -0.045336 0.000000 0.306973 -0.271185 0.000000 5.899946 -0.041981 0.000000 0.323053 -0.210957 0.000000 5.923466 -0.039238 0.000000 0.339213 -0.159133 0.000000 5.938696 -0.037190 0.000000 0.354841 -0.113096 0.000000 5.947289 -0.035845 0.000000 0.369322 -0.070646 0.000000 5.950605 -0.035172 0.000000 0.382007 -0.029853 0.000000 5.949749 -0.035083 0.000000 0.392209 0.011001 0.000000 5.945507 -0.035368 0.000000 0.399310 0.053465 0.000000 5.938181 -0.035658 0.000000 0.402959 0.099017 0.000000 5.927442 -0.035478 0.000000 0.403213 0.149290 0.000000 5.912353 -0.034439 0.000000 0.400393 0.206374 0.000000 5.891668 -0.032291 0.000000 0.394783 0.272934 0.000000 5.864070 -0.028686 0.000000 0.386524 0.352166 0.000000 5.828145 -0.022945 0.000000 0.375696 0.447859 0.000000 5.782231 -0.013948 0.000000 0.362435 0.564602 0.000000 5.724365 -0.000138 0.000000 0.346949 0.708130 0.000000 5.652489 0.020516 0.000000 0.329469 0.885760 0.000000 5.564845 0.050609 0.000000 0.310383 1.106736 0.000000 5.460319 0.093311 0.000000 0.290848 1.382656 0.000000 5.338642 0.151851 0.000000 0.273659 1.728907 0.000000 
5.431275 0.223071 0.000000 0.317243 2.223360 0.000000 5.332354 0.255527 0.000000 0.339691 2.942112 0.000000 5.217508 0.029990 0.000000 0.335594 -2.828961 0.000000 5.206025 0.066895 0.000000 0.310405 -2.277352 0.000000 5.252607 0.014700 0.000000 0.288552 -1.823809 0.000000 5.343716 -0.018864 0.000000 0.276148 -1.446833 0.000000 5.452054 -0.036126 0.000000 0.272168 -1.146696 0.000000 5.558748 -0.043553 0.000000 0.274058 -0.911993 0.000000 5.654565 -0.044825 0.000000 0.279475 -0.728930 0.000000 5.736308 -0.042204 0.000000 0.286830 -0.585332 0.000000 5.803798 -0.037269 0.000000 0.295175 -0.471394 0.000000 5.858139 -0.031289 0.000000 0.303936 -0.379410 0.000000 5.900918 -0.025344 0.000000 0.312717 -0.303382 0.000000 5.933781 -0.020326 0.000000 0.321218 -0.238703 0.000000 5.958248 -0.016912 0.000000 0.329222 -0.181855 0.000000 5.975612 -0.015543 0.000000 0.336593 -0.130111 0.000000 5.986908 -0.016454 0.000000 0.343250 -0.081286 0.000000 5.992948 -0.019682 0.000000 0.349123 -0.033595 0.000000 5.994358 -0.025037 0.000000 0.354132 0.014427 0.000000 5.991575 -0.032047 0.000000 0.358206 0.064016 0.000000 5.984798 -0.039932 0.000000 0.361347 0.116355 0.000000 5.973922 -0.047704 0.000000 0.363656 0.172846 0.000000 5.958541 -0.054344 0.000000 0.365237 0.235383 0.000000 5.938079 -0.058905 0.000000 0.366037 0.306456 0.000000 5.911919 -0.060413 0.000000 0.365816 0.389146 0.000000 5.879420 -0.057735 0.000000 0.364226 0.487191 0.000000 5.839895 -0.049486 0.000000 0.360916 0.605211 0.000000 5.792625 -0.034012 0.000000 0.355596 0.749089 0.000000 5.736973 -0.009368 0.000000 0.348124 0.926369 0.000000 5.672605 0.026755 0.000000 0.338708 1.146646 0.000000 5.599687 0.076966 0.000000 0.328321 1.422083 0.000000 5.518943 0.143486 0.000000 0.319248 1.768955 0.000000 
5.660757 0.227625 0.000000 0.300362 2.276446 0.000000 5.607787 0.241268 0.000000 0.329550 2.995943 0.000000 5.554037 0.031712 0.000000 0.326250 -2.812986 0.000000 5.493333 0.071242 0.000000 0.306772 -2.293406 0.000000 5.490423 0.014575 0.000000 0.289878 -1.863712 0.000000 5.535556 -0.025785 0.000000 0.280423 -1.496409 0.000000 5.605275 -0.048155 0.000000 0.277347 -1.195157 0.000000 5.681212 -0.059127 0.000000 0.278980 -0.953565 0.000000 5.752823 -0.063226 0.000000 0.283894 -0.761322 0.000000 5.815263 -0.063316 0.000000 0.291139 -0.608190 0.000000 5.866962 -0.061151 0.000000 0.300136 -0.485411 0.000000 5.908036 -0.057836 0.000000 0.310480 -0.385898 0.000000 5.939430 -0.054116 0.000000 0.321787 -0.304047 0.000000 5.962458 -0.050482 0.000000 0.333634 -0.235424 0.000000 5.978532 -0.047242 0.000000 0.345552 -0.176497 0.000000 5.988981 -0.044562 0.000000 0.357042 -0.124392 0.000000 5.994977 -0.042502 0.000000 0.367596 -0.076686 0.000000 5.997514 -0.041045 0.000000 0.376695 -0.031263 0.000000 5.997396 -0.040091 0.000000 0.383833 0.013784 0.000000 5.995188 -0.039442 0.000000 0.388583 0.060242 0.000000 5.991150 -0.038799 0.000000 0.390691 0.109893 0.000000 5.985183 -0.037787 0.000000 0.390121 0.164671 0.000000 5.976877 -0.036020 0.000000 0.387002 0.226835 0.000000 5.965648 -0.033091 0.000000 0.381510 0.299093 0.000000 5.950868 -0.028465 0.000000 0.373819 0.384665 0.000000 5.931915 -0.021355 0.000000 0.364122 0.487384 0.000000 5.908173 -0.010638 0.000000 0.352690 0.611872 0.000000 5.879084 0.005182 0.000000 0.339921 0.763782 0.000000 5.844301 0.027989 0.000000 0.326424 0.950128 0.000000 5.803921 0.060024 0.000000 0.313205 1.179654 0.000000 5.758716 0.103698 0.000000 0.302016 1.463401 0.000000 5.710298 0.160924 0.000000 0.295764 1.816575 0.000000 
5.877036 0.218473 0.000000 0.341918 2.276331 0.000000 5.875082 0.226339 0.000000 0.371846 2.995862 0.000000 5.883530 0.033290 0.000000 0.369316 -2.768258 0.000000 5.778115 0.086374 0.000000 0.350992 -2.274442 0.000000 5.726812 0.031594 0.000000 0.332310 -1.868942 0.000000 5.724441 -0.009409 0.000000 0.319082 -1.516552 0.000000 5.752800 -0.033049 0.000000 0.311611 -1.222633 0.000000 5.795512 -0.045187 0.000000 0.308948 -0.983604 0.000000 5.841710 -0.049739 0.000000 0.309729 -0.791369 0.000000 5.885358 -0.049449 0.000000 0.312740 -0.637032 0.000000 5.923659 -0.046267 0.000000 0.317086 -0.512469 0.000000 5.955680 -0.041632 0.000000 0.322154 -0.410803 0.000000 5.981473 -0.036651 0.000000 0.327519 -0.326411 0.000000 6.001551 -0.032174 0.000000 0.332875 -0.254777 0.000000 6.016602 -0.028829 0.000000 0.338003 -0.192304 0.000000 6.027323 -0.027034 0.000000 0.342748 -0.136107 0.000000 6.034348 -0.027009 0.000000 0.346998 -0.083823 0.000000 6.038218 -0.028781 0.000000 0.350666 -0.033477 0.000000 6.039382 -0.032175 0.000000 0.353676 0.016634 0.000000 6.038182 -0.036797 0.000000 0.355977 0.068054 0.000000 6.034835 -0.042040 0.000000 0.357555 0.122322 0.000000 6.029417 -0.047134 0.000000 0.358434 0.181152 0.000000 6.021887 -0.051225 0.000000 0.358634 0.246613 0.000000 6.012158 -0.053413 0.000000 0.358108 0.321236 0.000000 6.000179 -0.052723 0.000000 0.356737 0.408099 0.000000 5.985987 -0.048039 0.000000 0.354375 0.510932 0.000000 5.969752 -0.038053 0.000000 0.350923 0.634300 0.000000 5.951836 -0.021244 0.000000 0.346426 0.783872 0.000000 5.932894 0.004129 0.000000 0.341191 0.966749 0.000000 5.914015 0.039974 0.000000 0.335985 1.191851 0.000000 5.896852 0.088154 0.000000 0.332262 1.470500 0.000000 5.883696 0.149739 0.000000 0.332469 1.818496 0.000000 
6.086315 0.218176 0.000000 0.328684 2.278399 0.000000 6.124197 0.211340 0.000000 0.361357 2.987495 0.000000 6.185223 0.034241 0.000000 0.359672 -2.707571 0.000000 6.042127 0.089567 0.000000 0.346440 -2.242104 0.000000 5.952828 0.033257 0.000000 0.332157 -1.861341 0.000000 5.913082 -0.012557 0.000000 0.322077 -1.524768 0.000000 5.907581 -0.040684 0.000000 0.316350 -1.237869 0.000000 5.921363 -0.056464 0.000000 0.314408 -0.999763 0.000000 5.943586 -0.064007 0.000000 0.315469 -0.804971 0.000000 5.967531 -0.066327 0.000000 0.318820 -0.646491 0.000000 5.989553 -0.065497 0.000000 0.323902 -0.517431 0.000000 6.007982 -0.062905 0.000000 0.330276 -0.411691 0.000000 6.022330 -0.059481 0.000000 0.337555 -0.324126 0.000000 6.032778 -0.055838 0.000000 0.345357 -0.250475 0.000000 6.039843 -0.052370 0.000000 0.353281 -0.187219 0.000000 6.044178 -0.049306 0.000000 0.360918 -0.131416 0.000000 6.046453 -0.046753 0.000000 0.367846 -0.080556 0.000000 6.047288 -0.044713 0.000000 0.373651 -0.032427 0.000000 6.047221 -0.043102 0.000000 0.377947 0.014983 0.000000 6.046663 -0.041743 0.000000 0.380419 0.063589 0.000000 6.045867 -0.040376 0.000000 0.380867 0.115312 0.000000 6.044919 -0.038667 0.000000 0.379232 0.172201 0.000000 6.043779 -0.036220 0.000000 0.375575 0.236564 0.000000 6.042358 -0.032565 0.000000 0.370040 0.311073 0.000000 6.040613 -0.027094 0.000000 0.362829 0.398857 0.000000 6.038609 -0.018992 0.000000 0.354224 0.503619 0.000000 6.036582 -0.007186 0.000000 0.344624 0.629788 0.000000 6.035017 0.009680 0.000000 0.334617 0.782724 0.000000 6.034778 0.033223 0.000000 0.325066 0.969007 0.000000 6.037272 0.065230 0.000000 0.317261 1.196817 0.000000 6.044623 0.107421 0.000000 0.313082 1.476556 0.000000 6.059820 0.160717 0.000000 0.315199 1.823235 0.000000 