# vtk DataFile Version 2.0
Comment goes here
ASCII

DATASET STRUCTURED_POINTS
FIELD FieldData 1
TIME 1 1 double
0.01500000
DIMENSIONS    64   64   1

ORIGIN    0.000   0.000   0.000
SPACING   0.03125 0.03125   1.000

POINT_DATA   4096
SCALARS uX double
LOOKUP_TABLE default

1.175646e-01 -6.009461e-01 4.448151e-01 -6.643807e-01 4.380057e-01 -5.906303e-01 3.196425e-01 -4.515666e-01 1.734642e-01 -2.877258e-01 2.049790e-02 -1.304439e-01 -1.124968e-01 -2.887320e-03 -2.119190e-01 8.667780e-02 -2.701228e-01 1.312525e-01 -2.871714e-01 1.351873e-01 -2.690343e-01 1.113366e-01 -2.342661e-01 8.177802e-02 -2.037835e-01 5.947822e-02 -1.830147e-01 4.764652e-02 -1.729261e-01 4.448923e-02 -1.696251e-01 4.691974e-02 -1.721559e-01 4.972585e-02 -1.637918e-01 2.921852e-02 -1.346937e-01 7.595908e-03 -1.267894e-01 1.598575e-02 -1.428068e-01 3.247719e-02 -1.509140e-01 2.660989e-02 -1.277658e-01 -1.183079e-02 -7.455512e-02 -7.393428e-02 -1.003112e-02 -1.333676e-01 3.454829e-02 -1.559560e-01 2.965356e-02 -1.229418e-01 -3.306589e-02 -4.442227e-02 -1.251307e-01 4.354991e-02 -2.046279e-01 8.829941e-02 -2.132171e-01 3.535939e-02 -1.089271e-01 -1.265756e-01 
-1.290115e-02 3.244856e-01 -4.115108e-01 3.967052e-01 -4.235447e-01 3.569233e-01 -3.510925e-01 2.773867e-01 -2.762992e-01 1.853502e-01 -1.994839e-01 9.561006e-02 -1.317802e-01 1.960441e-02 -7.858416e-02 -3.825689e-02 -4.359865e-02 -7.423009e-02 -2.692674e-02 -9.016455e-02 -2.761446e-02 -9.065501e-02 -3.716558e-02 -8.730958e-02 -4.404735e-02 -8.655872e-02 -4.658120e-02 -9.068695e-02 -4.249026e-02 -1.010502e-01 -3.300652e-02 -1.155361e-01 -1.814359e-02 -1.317223e-01 -9.193700e-03 -1.317825e-01 -1.626167e-02 -1.290280e-01 -9.642360e-03 -1.461308e-01 1.259420e-02 -1.672657e-01 2.962679e-02 -1.751567e-01 2.901527e-02 -1.654578e-01 1.313096e-02 -1.426792e-01 -9.221084e-03 -1.201347e-01 -2.150509e-02 -1.158385e-01 -8.763238e-03 -1.385193e-01 3.245877e-02 -1.820612e-01 8.884854e-02 -2.316252e-01 1.433311e-01 -2.629496e-01 1.643739e-01 -2.427336e-01 1.248601e-01 -1.613379e-01 
4.654092e-01 4.009229e-01 6.205094e-02 4.580955e-01 8.870522e-02 4.002525e-01 1.600411e-01 3.017964e-01 2.882028e-01 1.901207e-01 4.256182e-01 8.501232e-02 5.462857e-01 6.864815e-04 6.408945e-01 -5.922928e-02 7.048387e-01 -9.072081e-02 7.387662e-01 -9.678052e-02 7.460601e-01 -8.507535e-02 7.394667e-01 -7.092744e-02 7.346567e-01 -6.245913e-02 7.345263e-01 -6.143571e-02 7.407398e-01 -6.735591e-02 7.510165e-01 -7.795995e-02 7.656861e-01 -9.009766e-02 7.709374e-01 -8.246814e-02 7.561460e-01 -7.265254e-02 7.575809e-01 -8.801609e-02 7.777778e-01 -1.098456e-01 7.907856e-01 -1.148668e-01 7.793971e-01 -9.639625e-02 7.451414e-01 -6.024873e-02 6.998650e-01 -2.441251e-02 6.649715e-01 -1.319243e-02 6.607335e-01 -3.977165e-02 6.929046e-01 -9.742600e-02 7.421203e-01 -1.639729e-01 7.824122e-01 -2.048021e-01 7.719567e-01 -1.773652e-01 6.780831e-01 -6.647234e-02 
5.028823e-01 -1.673967e-01 5.198910e-01 -1.661230e-01 1.298189e-01 -1.264627e-01 4.332126e-01 -8.015316e-02 6.218388e-01 -4.004711e-02 7.459301e-01 -7.415118e-03 8.349907e-01 1.581555e-02 9.030279e-01 3.076406e-02 9.587632e-01 3.666541e-02 1.006822e+00 3.499188e-02 1.051063e+00 2.745657e-02 1.089836e+00 2.038192e-02 1.118598e+00 1.612483e-02 1.139534e+00 1.479424e-02 1.152695e+00 1.695414e-02 1.159778e+00 2.149332e-02 1.160078e+00 2.815319e-02 1.161359e+00 2.339428e-02 1.172224e+00 1.653822e-02 1.170728e+00 2.442357e-02 1.155441e+00 3.575735e-02 1.140161e+00 3.977578e-02 1.131742e+00 3.460997e-02 1.127883e+00 2.220547e-02 1.124044e+00 9.164667e-03 1.110653e+00 5.635012e-03 1.077989e+00 1.693844e-02 1.021286e+00 4.084358e-02 9.439511e-01 7.260842e-02 8.469767e-01 1.035406e-01 7.390009e-01 1.195405e-01 6.222539e-01 1.305317e-01 
6.623844e-01 -7.432589e-02 6.026540e-01 -6.732337e-02 2.383560e-01 -4.694867e-02 5.521803e-01 -2.560875e-02 7.279711e-01 -9.616418e-03 8.437894e-01 1.810068e-03 9.281833e-01 8.977098e-03 9.924603e-01 1.347198e-02 1.043162e+00 1.528691e-02 1.084101e+00 1.499197e-02 1.118592e+00 1.287932e-02 1.147129e+00 1.141227e-02 1.168404e+00 1.107590e-02 1.184350e+00 1.161022e-02 1.195293e+00 1.333798e-02 1.202209e+00 1.596367e-02 1.204480e+00 1.990603e-02 1.206042e+00 1.793874e-02 1.211841e+00 1.462901e-02 1.210553e+00 1.869714e-02 1.201460e+00 2.446852e-02 1.191075e+00 2.703762e-02 1.182085e+00 2.591711e-02 1.173058e+00 2.170283e-02 1.162332e+00 1.671994e-02 1.145964e+00 1.507915e-02 1.119534e+00 1.897677e-02 1.080051e+00 2.781160e-02 1.027521e+00 4.091001e-02 9.592564e-01 5.618743e-02 8.760432e-01 6.758094e-02 7.744820e-01 7.584934e-02 
6.320826e-01 -6.620063e-02 5.521877e-01 -8.887961e-02 3.690915e-01 -8.951777e-02 5.445842e-01 -6.144389e-02 6.862376e-01 -3.480248e-02 7.924519e-01 -1.169779e-02 8.729459e-01 6.212985e-03 9.359020e-01 1.845059e-02 9.872017e-01 2.478734e-02 1.030570e+00 2.601317e-02 1.068224e+00 2.369473e-02 1.100116e+00 2.060054e-02 1.125174e+00 1.845710e-02 1.143849e+00 1.791499e-02 1.156605e+00 1.915960e-02 1.164397e+00 2.158346e-02 1.168214e+00 2.402074e-02 1.170914e+00 2.334348e-02 1.174031e+00 2.242983e-02 1.171904e+00 2.574469e-02 1.163766e+00 3.033854e-02 1.153914e+00 3.208878e-02 1.145214e+00 2.959645e-02 1.136954e+00 2.401199e-02 1.126123e+00 1.882209e-02 1.107633e+00 1.855261e-02 1.076395e+00 2.565032e-02 1.029628e+00 3.906906e-02 9.678872e-01 5.511632e-02 8.929365e-01 6.727568e-02 8.090047e-01 6.581814e-02 7.195732e-01 3.696489e-02 
7.522219e-01 -1.801218e-02 6.509493e-01 -3.027084e-02 4.693107e-01 -3.067165e-02 6.443579e-01 -1.825078e-02 7.801330e-01 -7.766093e-03 8.808655e-01 5.287955e-04 9.569467e-01 6.473845e-03 1.015722e+00 1.040953e-02 1.062141e+00 1.251151e-02 1.099481e+00 1.313437e-02 1.130012e+00 1.276310e-02 1.154722e+00 1.237140e-02 1.173880e+00 1.243446e-02 1.188321e+00 1.305722e-02 1.198621e+00 1.430446e-02 1.205423e+00 1.597902e-02 1.209224e+00 1.765295e-02 1.211524e+00 1.767776e-02 1.213279e+00 1.748052e-02 1.211583e+00 1.939513e-02 1.205964e+00 2.201432e-02 1.198363e+00 2.345305e-02 1.189919e+00 2.313163e-02 1.180136e+00 2.142743e-02 1.167668e+00 1.962878e-02 1.150204e+00 1.954812e-02 1.125220e+00 2.224805e-02 1.090815e+00 2.754036e-02 1.046080e+00 3.437713e-02 9.899505e-01 4.031424e-02 9.221739e-01 4.052082e-02 8.420816e-01 2.747929e-02 
7.527314e-01 -2.858250e-02 6.823430e-01 -5.067318e-02 5.885574e-01 -5.098394e-02 6.876300e-01 -4.055608e-02 7.816408e-01 -2.554684e-02 8.608148e-01 -1.047202e-02 9.252021e-01 2.350642e-03 9.775752e-01 1.185267e-02 1.020868e+00 1.768285e-02 1.057319e+00 2.020567e-02 1.088311e+00 2.037113e-02 1.114236e+00 1.956345e-02 1.135015e+00 1.887030e-02 1.150888e+00 1.886859e-02 1.162269e+00 1.971111e-02 1.169809e+00 2.110032e-02 1.174320e+00 2.241199e-02 1.176926e+00 2.287884e-02 1.177961e+00 2.338579e-02 1.175947e+00 2.510865e-02 1.170658e+00 2.713256e-02 1.163480e+00 2.790241e-02 1.155434e+00 2.678504e-02 1.146032e+00 2.443374e-02 1.133423e+00 2.259305e-02 1.114812e+00 2.328556e-02 1.087514e+00 2.748622e-02 1.050042e+00 3.434719e-02 1.002597e+00 4.121793e-02 9.465948e-01 4.372916e-02 8.845375e-01 3.610172e-02 8.189577e-01 1.232770e-02 
8.529234e-01 -2.322635e-03 7.758691e-01 -1.331687e-02 6.804551e-01 -1.356712e-02 7.777379e-01 -9.278318e-03 8.677870e-01 -3.576547e-03 9.426800e-01 1.792266e-03 1.002992e+00 6.139387e-03 1.051287e+00 9.298646e-03 1.090137e+00 1.129494e-02 1.121605e+00 1.232095e-02 1.147200e+00 1.270606e-02 1.167833e+00 1.291627e-02 1.184049e+00 1.327168e-02 1.196418e+00 1.391206e-02 1.205443e+00 1.486290e-02 1.211621e+00 1.599845e-02 1.215442e+00 1.705183e-02 1.217539e+00 1.763333e-02 1.218148e+00 1.819524e-02 1.216510e+00 1.937166e-02 1.212443e+00 2.075654e-02 1.206521e+00 2.163816e-02 1.199111e+00 2.171378e-02 1.189893e+00 2.119273e-02 1.177962e+00 2.072909e-02 1.161939e+00 2.113612e-02 1.140346e+00 2.286045e-02 1.111990e+00 2.567395e-02 1.076136e+00 2.863022e-02 1.032283e+00 2.989645e-02 9.803071e-01 2.669824e-02 9.202749e-01 1.614252e-02 
8.756933e-01 -1.317133e-02 8.323053e-01 -2.760381e-02 7.890243e-01 -2.784747e-02 8.380858e-01 -2.428930e-02 8.926867e-01 -1.626480e-02 9.442270e-01 -6.876921e-03 9.895424e-01 1.908883e-03 1.028322e+00 8.995425e-03 1.061326e+00 1.392495e-02 1.089467e+00 1.677614e-02 1.113413e+00 1.803917e-02 1.133472e+00 1.843861e-02 1.149750e+00 1.862513e-02 1.162424e+00 1.901006e-02 1.171786e+00 1.973897e-02 1.178254e+00 2.070558e-02 1.182325e+00 2.165195e-02 1.184504e+00 2.236947e-02 1.184935e+00 2.311331e-02 1.183262e+00 2.416811e-02 1.179453e+00 2.519582e-02 1.173953e+00 2.561344e-02 1.167037e+00 2.519028e-02 1.158309e+00 2.428721e-02 1.146678e+00 2.374004e-02 1.130636e+00 2.441691e-02 1.108808e+00 2.660319e-02 1.080506e+00 2.959469e-02 1.046004e+00 3.165090e-02 1.006433e+00 3.020732e-02 9.635710e-01 2.249523e-02 9.193828e-01 7.042660e-03 
9.624676e-01 4.327013e-03 9.170341e-01 -2.723254e-03 8.727058e-01 -2.929181e-03 9.197757e-01 -1.859791e-03 9.713417e-01 9.338927e-04 1.019435e+00 4.141347e-03 1.061214e+00 7.073654e-03 1.096364e+00 9.424456e-03 1.125537e+00 1.110827e-02 1.149603e+00 1.219449e-02 1.169348e+00 1.286185e-02 1.185359e+00 1.335027e-02 1.198066e+00 1.385448e-02 1.207864e+00 1.448135e-02 1.215117e+00 1.525355e-02 1.220178e+00 1.610874e-02 1.223382e+00 1.692676e-02 1.225041e+00 1.760688e-02 1.225263e+00 1.828735e-02 1.223862e+00 1.913393e-02 1.220784e+00 2.000423e-02 1.216183e+00 2.062781e-02 1.210126e+00 2.087735e-02 1.202365e+00 2.086518e-02 1.192334e+00 2.090397e-02 1.179232e+00 2.134265e-02 1.162228e+00 2.232123e-02 1.140659e+00 2.359625e-02 1.114152e+00 2.448298e-02 1.082621e+00 2.387306e-02 1.046323e+00 2.047473e-02 1.005897e+00 1.356863e-02 
9.972051e-01 -4.352661e-03 9.801306e-01 -1.308823e-02 9.711665e-01 -1.327837e-02 9.844627e-01 -1.244138e-02 1.007677e+00 -8.294526e-03 1.034319e+00 -2.614702e-03 1.060637e+00 3.228427e-03 1.084939e+00 8.344067e-03 1.106679e+00 1.227934e-02 1.125805e+00 1.495804e-02 1.142391e+00 1.659037e-02 1.156478e+00 1.754751e-02 1.168084e+00 1.820380e-02 1.177276e+00 1.882836e-02 1.184204e+00 1.954497e-02 1.189096e+00 2.034043e-02 1.192223e+00 2.112466e-02 1.193830e+00 2.183263e-02 1.194012e+00 2.252566e-02 1.192713e+00 2.325282e-02 1.189949e+00 2.387120e-02 1.185855e+00 2.416220e-02 1.180459e+00 2.405723e-02 1.173482e+00 2.374660e-02 1.164322e+00 2.360958e-02 1.152222e+00 2.398410e-02 1.136566e+00 2.487270e-02 1.117179e+00 2.574735e-02 1.094490e+00 2.555158e-02 1.069520e+00 2.292538e-02 1.043772e+00 1.672496e-02 1.019031e+00 6.921222e-03 
1.073352e+00 8.389932e-03 1.055960e+00 4.207057e-03 1.046742e+00 4.053089e-03 1.058215e+00 3.849659e-03 1.079033e+00 5.017439e-03 1.102917e+00 6.779583e-03 1.126303e+00 8.622280e-03 1.147552e+00 1.025612e-02 1.166114e+00 1.155657e-02 1.181960e+00 1.251997e-02 1.195253e+00 1.322553e-02 1.206201e+00 1.379422e-02 1.215002e+00 1.433687e-02 1.221863e+00 1.492326e-02 1.226990e+00 1.557399e-02 1.230593e+00 1.626391e-02 1.232869e+00 1.694329e-02 1.233981e+00 1.757992e-02 1.233999e+00 1.821005e-02 1.232893e+00 1.886896e-02 1.230651e+00 1.949601e-02 1.227308e+00 1.998559e-02 1.222848e+00 2.028869e-02 1.217105e+00 2.046164e-02 1.209763e+00 2.064310e-02 1.200407e+00 2.096621e-02 1.188642e+00 2.143945e-02 1.174214e+00 2.185918e-02 1.157101e+00 2.179229e-02 1.137575e+00 2.064948e-02 1.116274e+00 1.790896e-02 1.094296e+00 1.353128e-02 
1.113198e+00 1.706606e-03 1.118722e+00 -3.451599e-03 1.135522e+00 -3.577654e-03 1.121771e+00 -3.842657e-03 1.119946e+00 -1.824181e-03 1.125191e+00 1.517935e-03 1.134018e+00 5.309164e-03 1.144268e+00 8.902285e-03 1.154722e+00 1.191309e-02 1.164720e+00 1.420381e-02 1.173884e+00 1.583164e-02 1.181975e+00 1.697172e-02 1.188838e+00 1.782859e-02 1.194398e+00 1.856780e-02 1.198664e+00 1.928255e-02 1.201708e+00 1.999334e-02 1.203644e+00 2.067700e-02 1.204579e+00 2.131112e-02 1.204572e+00 2.190242e-02 1.203631e+00 2.244479e-02 1.201780e+00 2.287207e-02 1.199063e+00 2.310094e-02 1.195462e+00 2.311558e-02 1.190829e+00 2.300830e-02 1.184887e+00 2.293655e-02 1.177339e+00 2.300568e-02 1.168032e+00 2.313016e-02 1.157125e+00 2.295141e-02 1.145197e+00 2.187079e-02 1.133265e+00 1.922574e-02 1.122741e+00 1.461979e-02 1.115368e+00 8.353494e-03 
1.180228e+00 1.138434e-02 1.186071e+00 9.041549e-03 1.203081e+00 8.951597e-03 1.187828e+00 8.233029e-03 1.184152e+00 8.501937e-03 1.187261e+00 9.332857e-03 1.193769e+00 1.038584e-02 1.201579e+00 1.143529e-02 1.209505e+00 1.235981e-02 1.216927e+00 1.312193e-02 1.223541e+00 1.374400e-02 1.229212e+00 1.428072e-02 1.233895e+00 1.479003e-02 1.237605e+00 1.531272e-02 1.240394e+00 1.586403e-02 1.242339e+00 1.643530e-02 1.243522e+00 1.700554e-02 1.244017e+00 1.755999e-02 1.243861e+00 1.810265e-02 1.243060e+00 1.863360e-02 1.241619e+00 1.912222e-02 1.239552e+00 1.952431e-02 1.236848e+00 1.982001e-02 1.233436e+00 2.003355e-02 1.229188e+00 2.021885e-02 1.223963e+00 2.041416e-02 1.217676e+00 2.058511e-02 1.210383e+00 2.058696e-02 1.202356e+00 2.017154e-02 1.194154e+00 1.905604e-02 1.186700e+00 1.706652e-02 1.181389e+00 1.432897e-02 
1.221002e+00 6.225925e-03 1.245391e+00 3.287228e-03 1.282517e+00 3.232712e-03 1.247616e+00 2.504184e-03 1.225637e+00 3.333689e-03 1.212854e+00 5.210944e-03 1.206228e+00 7.599033e-03 1.203553e+00 1.005395e-02 1.203321e+00 1.227677e-02 1.204524e+00 1.412082e-02 1.206481e+00 1.556826e-02 1.208718e+00 1.668674e-02 1.210905e+00 1.757870e-02 1.212824e+00 1.833892e-02 1.214351e+00 1.903002e-02 1.215432e+00 1.967755e-02 1.216067e+00 2.028123e-02 1.216272e+00 2.083316e-02 1.216065e+00 2.132777e-02 1.215460e+00 2.175086e-02 1.214478e+00 2.206938e-02 1.213153e+00 2.224933e-02 1.211495e+00 2.228709e-02 1.209474e+00 2.222130e-02 1.207042e+00 2.210692e-02 1.204191e+00 2.195702e-02 1.201062e+00 2.168030e-02 1.198040e+00 2.105349e-02 1.195825e+00 1.976026e-02 1.195463e+00 1.750915e-02 1.198337e+00 1.421761e-02 1.206160e+00 1.020043e-02 
1.279815e+00 1.376009e-02 1.304654e+00 1.260638e-02 1.342125e+00 1.258671e-02 1.306121e+00 1.165063e-02 1.282810e+00 1.141254e-02 1.268477e+00 1.164695e-02 1.260135e+00 1.214154e-02 1.255631e+00 1.273540e-02 1.253496e+00 1.332713e-02 1.252765e+00 1.386912e-02 1.252814e+00 1.435475e-02 1.253239e+00 1.480212e-02 1.253781e+00 1.523698e-02 1.254282e+00 1.567976e-02 1.254652e+00 1.613898e-02 1.254851e+00 1.661103e-02 1.254867e+00 1.708546e-02 1.254705e+00 1.755248e-02 1.254369e+00 1.800659e-02 1.253866e+00 1.843956e-02 1.253212e+00 1.883325e-02 1.252431e+00 1.916632e-02 1.251551e+00 1.942822e-02 1.250590e+00 1.962583e-02 1.249571e+00 1.977464e-02 1.248550e+00 1.987606e-02 1.247669e+00 1.989185e-02 1.247216e+00 1.973125e-02 1.247687e+00 1.926524e-02 1.249849e+00 1.837533e-02 1.254812e+00 1.703324e-02 1.264111e+00 1.538239e-02 
1.318957e+00 9.723957e-03 1.358969e+00 8.200732e-03 1.412489e+00 8.219964e-03 1.360744e+00 7.285919e-03 1.322441e+00 7.429915e-03 1.294628e+00 8.380702e-03 1.274689e+00 9.813507e-03 1.260535e+00 1.143244e-02 1.250577e+00 1.301603e-02 1.243634e+00 1.443269e-02 1.238835e+00 1.563329e-02 1.235535e+00 1.662888e-02 1.233255e+00 1.746207e-02 1.231653e+00 1.818115e-02 1.230489e+00 1.882306e-02 1.229609e+00 1.940720e-02 1.228922e+00 1.993825e-02 1.228379e+00 2.041306e-02 1.227959e+00 2.082484e-02 1.227664e+00 2.116146e-02 1.227520e+00 2.140474e-02 1.227573e+00 2.153836e-02 1.227883e+00 2.155908e-02 1.228521e+00 2.147861e-02 1.229596e+00 2.130871e-02 1.231295e+00 2.103345e-02 1.233948e+00 2.058352e-02 1.238092e+00 1.983207e-02 1.244518e+00 1.862731e-02 1.254299e+00 1.686480e-02 1.268801e+00 1.458336e-02 1.289690e+00 1.204326e-02 
1.370114e+00 1.569523e-02 1.410435e+00 1.533858e-02 1.464195e+00 1.539004e-02 1.411791e+00 1.435617e-02 1.372673e+00 1.382179e-02 1.343876e+00 1.367004e-02 1.322812e+00 1.377233e-02 1.307426e+00 1.401919e-02 1.296164e+00 1.433238e-02 1.287882e+00 1.466590e-02 1.281752e+00 1.500056e-02 1.277176e+00 1.533511e-02 1.273727e+00 1.567639e-02 1.271102e+00 1.603132e-02 1.269091e+00 1.640212e-02 1.267551e+00 1.678527e-02 1.266394e+00 1.717342e-02 1.265567e+00 1.755829e-02 1.265045e+00 1.793198e-02 1.264825e+00 1.828512e-02 1.264929e+00 1.860524e-02 1.265406e+00 1.887964e-02 1.266327e+00 1.910049e-02 1.267791e+00 1.926652e-02 1.269936e+00 1.937793e-02 1.272967e+00 1.942581e-02 1.277191e+00 1.938173e-02 1.283066e+00 1.919596e-02 1.291248e+00 1.881073e-02 1.302643e+00 1.819093e-02 1.318463e+00 1.736530e-02 1.340285e+00 1.645966e-02 
1.406015e+00 1.247614e-02 1.458881e+00 1.188820e-02 1.525709e+00 1.197903e-02 1.460454e+00 1.094732e-02 1.408921e+00 1.068108e-02 1.368693e+00 1.103595e-02 1.337504e+00 1.181591e-02 1.313429e+00 1.282613e-02 1.294895e+00 1.390680e-02 1.280654e+00 1.494888e-02 1.269727e+00 1.589459e-02 1.261353e+00 1.672716e-02 1.254944e+00 1.745533e-02 1.250053e+00 1.809788e-02 1.246350e+00 1.867229e-02 1.243598e+00 1.918909e-02 1.241636e+00 1.965122e-02 1.240363e+00 2.005615e-02 1.239727e+00 2.039771e-02 1.239718e+00 2.066657e-02 1.240364e+00 2.085133e-02 1.241734e+00 2.094215e-02 1.243936e+00 2.093453e-02 1.247122e+00 2.082857e-02 1.251511e+00 2.062110e-02 1.257422e+00 2.029348e-02 1.265311e+00 1.980278e-02 1.275814e+00 1.908592e-02 1.289787e+00 1.808336e-02 1.308319e+00 1.678098e-02 1.332754e+00 1.525818e-02 1.364694e+00 1.371853e-02 
1.449872e+00 1.727969e-02 1.502746e+00 1.747718e-02 1.569543e+00 1.759647e-02 1.504108e+00 1.651476e-02 1.452283e+00 1.579991e-02 1.411631e+00 1.539371e-02 1.379897e+00 1.521983e-02 1.355172e+00 1.520584e-02 1.335910e+00 1.529394e-02 1.320891e+00 1.544444e-02 1.309165e+00 1.563431e-02 1.300008e+00 1.585286e-02 1.292865e+00 1.609635e-02 1.287320e+00 1.636311e-02 1.283064e+00 1.665037e-02 1.279874e+00 1.695301e-02 1.277595e+00 1.726397e-02 1.276128e+00 1.757531e-02 1.275419e+00 1.787874e-02 1.275458e+00 1.816536e-02 1.276272e+00 1.842549e-02 1.277933e+00 1.865002e-02 1.280554e+00 1.883224e-02 1.284301e+00 1.896806e-02 1.289401e+00 1.905347e-02 1.296168e+00 1.908005e-02 1.305031e+00 1.903181e-02 1.316567e+00 1.888717e-02 1.331542e+00 1.862913e-02 1.350947e+00 1.826330e-02 1.376041e+00 1.783838e-02 1.408384e+00 1.745902e-02 
1.481487e+00 1.464823e-02 1.544816e+00 1.469760e-02 1.622396e+00 1.485458e-02 1.546334e+00 1.377232e-02 1.484147e+00 1.325143e-02 1.433795e+00 1.321590e-02 1.393283e+00 1.354686e-02 1.360846e+00 1.411614e-02 1.334970e+00 1.480963e-02 1.314396e+00 1.554043e-02 1.298092e+00 1.625257e-02 1.285224e+00 1.691720e-02 1.275126e+00 1.752471e-02 1.267274e+00 1.807582e-02 1.261266e+00 1.857432e-02 1.256801e+00 1.902255e-02 1.253663e+00 1.941979e-02 1.251713e+00 1.976236e-02 1.250870e+00 2.004432e-02 1.251116e+00 2.025814e-02 1.252483e+00 2.039561e-02 1.255061e+00 2.044961e-02 1.258999e+00 2.041536e-02 1.264510e+00 2.028952e-02 1.271893e+00 2.006660e-02 1.281554e+00 1.973436e-02 1.294033e+00 1.927227e-02 1.310035e+00 1.865745e-02 1.330452e+00 1.788050e-02 1.356381e+00 1.696899e-02 1.389137e+00 1.601078e-02 1.430252e+00 1.516488e-02 
1.518279e+00 1.856592e-02 1.581211e+00 1.915844e-02 1.658374e+00 1.933921e-02 1.582640e+00 1.823159e-02 1.520700e+00 1.740247e-02 1.470486e+00 1.682568e-02 1.430003e+00 1.645681e-02 1.397489e+00 1.624876e-02 1.371445e+00 1.615982e-02 1.350630e+00 1.615759e-02 1.334031e+00 1.621937e-02 1.320841e+00 1.633055e-02 1.310416e+00 1.648176e-02 1.302257e+00 1.666619e-02 1.295977e+00 1.687748e-02 1.291289e+00 1.710869e-02 1.287986e+00 1.735218e-02 1.285931e+00 1.759989e-02 1.285047e+00 1.784358e-02 1.285314e+00 1.807500e-02 1.286767e+00 1.828603e-02 1.289496e+00 1.846940e-02 1.293652e+00 1.861942e-02 1.299450e+00 1.873200e-02 1.307188e+00 1.880365e-02 1.317260e+00 1.883010e-02 1.330178e+00 1.880610e-02 1.346606e+00 1.872835e-02 1.367379e+00 1.860248e-02 1.393537e+00 1.845326e-02 1.426349e+00 1.833455e-02 1.467337e+00 1.833372e-02 
1.544905e+00 1.634637e-02 1.616593e+00 1.683844e-02 1.702724e+00 1.705366e-02 1.618137e+00 1.594276e-02 1.547506e+00 1.525905e-02 1.489059e+00 1.496411e-02 1.441010e+00 1.498524e-02 1.401727e+00 1.523742e-02 1.369768e+00 1.563889e-02 1.343889e+00 1.612143e-02 1.323037e+00 1.663472e-02 1.306337e+00 1.714598e-02 1.293069e+00 1.763627e-02 1.282657e+00 1.809570e-02 1.274643e+00 1.851893e-02 1.268678e+00 1.890192e-02 1.264506e+00 1.924023e-02 1.261955e+00 1.952850e-02 1.260926e+00 1.976052e-02 1.261391e+00 1.992957e-02 1.263390e+00 2.002911e-02 1.267028e+00 2.005358e-02 1.272485e+00 1.999893e-02 1.280021e+00 1.986228e-02 1.289991e+00 1.964068e-02 1.302859e+00 1.933006e-02 1.319221e+00 1.892647e-02 1.339825e+00 1.843149e-02 1.365585e+00 1.786222e-02 1.397598e+00 1.726422e-02 1.437145e+00 1.672237e-02 1.485697e+00 1.636356e-02 
1.574796e+00 1.958680e-02 1.645605e+00 2.046306e-02 1.730850e+00 2.069672e-02 1.647128e+00 1.957363e-02 1.577302e+00 1.867015e-02 1.519567e+00 1.797789e-02 1.472123e+00 1.747182e-02 1.433333e+00 1.712157e-02 1.401757e+00 1.689731e-02 1.376158e+00 1.677316e-02 1.355497e+00 1.672845e-02 1.338914e+00 1.674741e-02 1.325707e+00 1.681801e-02 1.315317e+00 1.693047e-02 1.307301e+00 1.707607e-02 1.301321e+00 1.724639e-02 1.297131e+00 1.743306e-02 1.294564e+00 1.762775e-02 1.293524e+00 1.782233e-02 1.293984e+00 1.800907e-02 1.295985e+00 1.818085e-02 1.299632e+00 1.833163e-02 1.305104e+00 1.845685e-02 1.312657e+00 1.855364e-02 1.322638e+00 1.862071e-02 1.335498e+00 1.865833e-02 1.351812e+00 1.866938e-02 1.372295e+00 1.866191e-02 1.397830e+00 1.865385e-02 1.429480e+00 1.867859e-02 1.468508e+00 1.878968e-02 1.516387e+00 1.906192e-02 
1.595951e+00 1.764057e-02 1.674104e+00 1.844055e-02 1.766831e+00 1.870426e-02 1.675708e+00 1.757587e-02 1.598583e+00 1.678648e-02 1.533873e+00 1.631877e-02 1.479945e+00 1.612760e-02 1.435275e+00 1.615544e-02 1.398485e+00 1.634269e-02 1.368356e+00 1.663544e-02 1.343834e+00 1.698967e-02 1.324019e+00 1.737240e-02 1.308161e+00 1.776042e-02 1.295643e+00 1.813788e-02 1.285972e+00 1.849364e-02 1.278762e+00 1.881912e-02 1.273729e+00 1.910688e-02 1.270675e+00 1.934990e-02 1.269488e+00 1.954142e-02 1.270135e+00 1.967506e-02 1.272656e+00 1.974520e-02 1.277174e+00 1.974745e-02 1.283891e+00 1.967907e-02 1.293099e+00 1.953904e-02 1.305190e+00 1.932815e-02 1.320668e+00 1.904950e-02 1.340166e+00 1.871051e-02 1.364459e+00 1.832711e-02 1.394472e+00 1.793007e-02 1.431296e+00 1.757180e-02 1.476181e+00 1.733121e-02 1.530544e+00 1.731312e-02 
1.619059e+00 2.036358e-02 1.695793e+00 2.144032e-02 1.787096e+00 2.171661e-02 1.697409e+00 2.058371e-02 1.621674e+00 1.963155e-02 1.558269e+00 1.886180e-02 1.505534e+00 1.826101e-02 1.461931e+00 1.780961e-02 1.426071e+00 1.748604e-02 1.396737e+00 1.726957e-02 1.372878e+00 1.714183e-02 1.353606e+00 1.708721e-02 1.338182e+00 1.709255e-02 1.326003e+00 1.714652e-02 1.316588e+00 1.723896e-02 1.309564e+00 1.736039e-02 1.304654e+00 1.750181e-02 1.301669e+00 1.765465e-02 1.300500e+00 1.781086e-02 1.301115e+00 1.796309e-02 1.303557e+00 1.810491e-02 1.307944e+00 1.823122e-02 1.314476e+00 1.833861e-02 1.323438e+00 1.842569e-02 1.335211e+00 1.849353e-02 1.350288e+00 1.854623e-02 1.369282e+00 1.859224e-02 1.392947e+00 1.864649e-02 1.422189e+00 1.873339e-02 1.458083e+00 1.888996e-02 1.501879e+00 1.916792e-02 1.555005e+00 1.963341e-02 
1.634402e+00 1.857730e-02 1.717283e+00 1.958560e-02 1.814822e+00 1.988673e-02 1.718950e+00 1.874733e-02 1.637097e+00 1.789020e-02 1.567810e+00 1.730988e-02 1.509560e+00 1.697753e-02 1.460905e+00 1.685261e-02 1.420517e+00 1.689005e-02 1.387204e+00 1.704609e-02 1.359914e+00 1.728207e-02 1.337739e+00 1.756619e-02 1.319908e+00 1.787358e-02 1.305781e+00 1.818520e-02 1.294838e+00 1.848647e-02 1.286671e+00 1.876581e-02 1.280971e+00 1.901359e-02 1.277528e+00 1.922150e-02 1.276218e+00 1.938221e-02 1.277003e+00 1.948944e-02 1.279928e+00 1.953814e-02 1.285123e+00 1.952484e-02 1.292808e+00 1.944813e-02 1.303296e+00 1.930905e-02 1.317005e+00 1.911175e-02 1.334464e+00 1.886465e-02 1.356328e+00 1.858242e-02 1.383389e+00 1.828920e-02 1.416577e+00 1.802247e-02 1.456974e+00 1.783671e-02 1.505807e+00 1.780516e-02 1.564449e+00 1.801817e-02 
1.650828e+00 2.091001e-02 1.731691e+00 2.212060e-02 1.827206e+00 2.242812e-02 1.733382e+00 2.128900e-02 1.653540e+00 2.030608e-02 1.586177e+00 1.948662e-02 1.529729e+00 1.882391e-02 1.482726e+00 1.830496e-02 1.443822e+00 1.791358e-02 1.411817e+00 1.763270e-02 1.385657e+00 1.744585e-02 1.364439e+00 1.733798e-02 1.347403e+00 1.729560e-02 1.333920e+00 1.730660e-02 1.323481e+00 1.736001e-02 1.315691e+00 1.744570e-02 1.310251e+00 1.755423e-02 1.306958e+00 1.767685e-02 1.305693e+00 1.780556e-02 1.306420e+00 1.793325e-02 1.309185e+00 1.805400e-02 1.314114e+00 1.816341e-02 1.321421e+00 1.825898e-02 1.331411e+00 1.834064e-02 1.344489e+00 1.841135e-02 1.361172e+00 1.847792e-02 1.382100e+00 1.855236e-02 1.408048e+00 1.865354e-02 1.439938e+00 1.880919e-02 1.478846e+00 1.905769e-02 1.526010e+00 1.944892e-02 1.582823e+00 2.004347e-02 
1.660111e+00 1.918674e-02 1.746087e+00 2.032449e-02 1.846774e+00 2.065106e-02 1.747806e+00 1.950503e-02 1.662866e+00 1.860739e-02 1.590581e+00 1.795908e-02 1.529491e+00 1.754033e-02 1.478206e+00 1.732040e-02 1.435434e+00 1.726296e-02 1.400001e+00 1.733066e-02 1.370861e+00 1.748860e-02 1.347102e+00 1.770631e-02 1.327943e+00 1.795840e-02 1.312730e+00 1.822430e-02 1.300926e+00 1.848752e-02 1.292109e+00 1.873470e-02 1.285957e+00 1.895486e-02 1.282248e+00 1.913877e-02 1.280853e+00 1.927871e-02 1.281731e+00 1.936839e-02 1.284930e+00 1.940310e-02 1.290585e+00 1.938005e-02 1.298926e+00 1.929886e-02 1.310280e+00 1.916216e-02 1.325078e+00 1.897648e-02 1.343867e+00 1.875363e-02 1.367315e+00 1.851254e-02 1.396220e+00 1.828170e-02 1.431517e+00 1.810172e-02 1.474279e+00 1.802730e-02 1.525717e+00 1.812763e-02 1.587174e+00 1.848434e-02 
1.669946e+00 2.123467e-02 1.753247e+00 2.252220e-02 1.851247e+00 2.284876e-02 1.754987e+00 2.170615e-02 1.672724e+00 2.070617e-02 1.603022e+00 1.985892e-02 1.544373e+00 1.916115e-02 1.495346e+00 1.860346e-02 1.454622e+00 1.817265e-02 1.421013e+00 1.785377e-02 1.393467e+00 1.763161e-02 1.371074e+00 1.749160e-02 1.353061e+00 1.742020e-02 1.338784e+00 1.740499e-02 1.327722e+00 1.743459e-02 1.319463e+00 1.749851e-02 1.313700e+00 1.758708e-02 1.310217e+00 1.769144e-02 1.308893e+00 1.780360e-02 1.309689e+00 1.791663e-02 1.312650e+00 1.802488e-02 1.317910e+00 1.812439e-02 1.325690e+00 1.821328e-02 1.336305e+00 1.829232e-02 1.350175e+00 1.836564e-02 1.367830e+00 1.844168e-02 1.389925e+00 1.853437e-02 1.417247e+00 1.866460e-02 1.450724e+00 1.886164e-02 1.491433e+00 1.916433e-02 1.540602e+00 1.962127e-02 1.599604e+00 2.028999e-02 
1.672987e+00 1.948708e-02 1.760495e+00 2.068696e-02 1.862738e+00 2.102639e-02 1.762242e+00 1.987725e-02 1.675776e+00 1.896062e-02 1.602009e+00 1.828028e-02 1.539512e+00 1.782049e-02 1.486920e+00 1.755502e-02 1.442960e+00 1.745160e-02 1.406468e+00 1.747599e-02 1.376402e+00 1.759522e-02 1.351848e+00 1.777959e-02 1.332022e+00 1.800362e-02 1.316262e+00 1.824616e-02 1.304024e+00 1.848986e-02 1.294877e+00 1.872056e-02 1.288497e+00 1.892660e-02 1.284654e+00 1.909834e-02 1.283216e+00 1.922783e-02 1.284141e+00 1.930875e-02 1.287478e+00 1.933658e-02 1.293365e+00 1.930886e-02 1.302037e+00 1.922577e-02 1.313827e+00 1.909077e-02 1.329173e+00 1.891163e-02 1.348630e+00 1.870179e-02 1.372871e+00 1.848211e-02 1.402698e+00 1.828297e-02 1.439047e+00 1.814620e-02 1.482987e+00 1.812632e-02 1.535719e+00 1.829045e-02 1.598573e+00 1.871611e-02 
1.676328e+00 2.134225e-02 1.760435e+00 2.265491e-02 1.859256e+00 2.298786e-02 1.762192e+00 2.184416e-02 1.679129e+00 2.083873e-02 1.608654e+00 1.998256e-02 1.549274e+00 1.927348e-02 1.499576e+00 1.870319e-02 1.458247e+00 1.825945e-02 1.424103e+00 1.792802e-02 1.396094e+00 1.769413e-02 1.373308e+00 1.754338e-02 1.354967e+00 1.746224e-02 1.340425e+00 1.743822e-02 1.329153e+00 1.745981e-02 1.320737e+00 1.751643e-02 1.314864e+00 1.759832e-02 1.311318e+00 1.769657e-02 1.309974e+00 1.780322e-02 1.310792e+00 1.791138e-02 1.313820e+00 1.801550e-02 1.319191e+00 1.811176e-02 1.327129e+00 1.819848e-02 1.337954e+00 1.827674e-02 1.352089e+00 1.835106e-02 1.370070e+00 1.843040e-02 1.392556e+00 1.852932e-02 1.420336e+00 1.866933e-02 1.454342e+00 1.888015e-02 1.495650e+00 1.920070e-02 1.545485e+00 1.967917e-02 1.605213e+00 2.037210e-02 
1.672987e+00 1.948687e-02 1.760495e+00 2.068677e-02 1.862738e+00 2.102619e-02 1.762242e+00 1.987710e-02 1.675777e+00 1.896052e-02 1.602009e+00 1.828022e-02 1.539512e+00 1.782048e-02 1.486920e+00 1.755506e-02 1.442960e+00 1.745167e-02 1.406468e+00 1.747608e-02 1.376402e+00 1.759531e-02 1.351848e+00 1.777968e-02 1.332022e+00 1.800371e-02 1.316261e+00 1.824623e-02 1.304024e+00 1.848992e-02 1.294877e+00 1.872062e-02 1.288496e+00 1.892668e-02 1.284654e+00 1.909843e-02 1.283216e+00 1.922794e-02 1.284141e+00 1.930888e-02 1.287477e+00 1.933672e-02 1.293365e+00 1.930901e-02 1.302037e+00 1.922591e-02 1.313826e+00 1.909089e-02 1.329173e+00 1.891171e-02 1.348630e+00 1.870181e-02 1.372871e+00 1.848208e-02 1.402698e+00 1.828288e-02 1.439047e+00 1.814606e-02 1.482987e+00 1.812614e-02 1.535720e+00 1.829025e-02 1.598573e+00 1.871590e-02 
1.669946e+00 2.123425e-02 1.753247e+00 2.252183e-02 1.851247e+00 2.284838e-02 1.754987e+00 2.170586e-02 1.672724e+00 2.070598e-02 1.603022e+00 1.985883e-02 1.544373e+00 1.916117e-02 1.495345e+00 1.860356e-02 1.454622e+00 1.817281e-02 1.421013e+00 1.785396e-02 1.393467e+00 1.763181e-02 1.371074e+00 1.749179e-02 1.353060e+00 1.742037e-02 1.338784e+00 1.740514e-02 1.327722e+00 1.743472e-02 1.319463e+00 1.749864e-02 1.313699e+00 1.758723e-02 1.310217e+00 1.769162e-02 1.308893e+00 1.780381e-02 1.309688e+00 1.791687e-02 1.312650e+00 1.802515e-02 1.317910e+00 1.812467e-02 1.325689e+00 1.821354e-02 1.336304e+00 1.829253e-02 1.350174e+00 1.836577e-02 1.367830e+00 1.844171e-02 1.389925e+00 1.853429e-02 1.417247e+00 1.866440e-02 1.450724e+00 1.886135e-02 1.491434e+00 1.916395e-02 1.540603e+00 1.962085e-02 1.599605e+00 2.028955e-02 