# vtk DataFile Version 2.0
Comment goes here
ASCII

DATASET STRUCTURED_POINTS
FIELD FieldData 1
TIME 1 1 double
0.07000000
DIMENSIONS    64   64   1

ORIGIN    0.000   0.000   0.000
SPACING   0.03125 0.03125   1.000

POINT_DATA   4096
SCALARS Omega double
LOOKUP_TABLE default

-1.094829e-01 9.869215e-02 -7.939945e-01 -6.967165e-01 -8.630158e-01 1.971146e-01 -6.360340e-01 -4.480466e-01 -6.944484e-01 -5.491274e-01 -5.853768e-01 -5.763618e-01 -3.738568e-01 -3.853493e-01 -7.012610e-02 9.379541e-02 2.830748e-01 5.084965e-01 9.692985e-01 8.101012e-01 1.084918e+00 8.098365e-01 1.144522e+00 7.781862e-01 9.693363e-01 7.489911e-01 8.806613e-01 9.963957e-01 9.598475e-01 9.823377e-01 9.872700e-01 8.303246e-01 8.976320e-01 7.391131e-01 9.124327e-01 9.959160e-01 1.004892e+00 9.964552e-01 1.035475e+00 8.664879e-01 9.407774e-01 8.249011e-01 9.083354e-01 1.076419e+00 9.244468e-01 9.818988e-01 8.187521e-01 6.997830e-01 5.116522e-01 2.874434e-01 1.957504e-01 -6.506830e-02 -1.263517e-01 -2.786291e-01 -3.223256e-01 -4.409510e-01 -3.845865e-01 -5.595528e-01 -3.500421e-01 -6.317856e-01 -2.883881e-01 -6.644938e-01 -1.509892e-01 -8.989534e-01 
-2.112773e+01 -3.451130e+01 -1.762947e+01 -3.241166e+01 -2.107848e+01 -3.069209e+01 -2.432520e+01 -2.923576e+01 -2.890907e+01 -2.870645e+01 -3.252731e+01 -2.716147e+01 -3.640992e+01 -2.492761e+01 -4.087647e+01 -2.222457e+01 -4.606882e+01 -1.872460e+01 -5.200286e+01 -1.444769e+01 -5.778577e+01 -9.178630e+00 -6.410138e+01 -2.936585e+00 -7.079748e+01 3.751239e+00 -7.744961e+01 9.427945e+00 -8.313863e+01 1.383503e+01 -8.706218e+01 1.685575e+01 -8.932950e+01 1.843595e+01 -9.083403e+01 1.930338e+01 -9.247437e+01 2.052114e+01 -9.398684e+01 2.159990e+01 -9.443310e+01 2.137870e+01 -9.359711e+01 1.956875e+01 -9.128596e+01 1.624703e+01 -8.658354e+01 1.165719e+01 -8.013126e+01 6.093430e+00 -7.251707e+01 -3.513804e-01 -6.397294e+01 -7.618393e+00 -5.482303e+01 -1.537904e+01 -4.540687e+01 -2.332085e+01 -3.592153e+01 -3.118091e+01 -2.645637e+01 -3.866066e+01 -1.560166e+01 -4.614508e+01 
-6.172393e+01 1.117421e+00 -5.000001e+01 7.864499e+00 -7.463244e+00 7.370313e+00 -5.757446e+01 2.130148e+00 -7.475380e+01 2.345367e+00 -8.627333e+01 2.237821e+00 -9.475352e+01 1.034107e+00 -1.014715e+02 -1.710052e+00 -1.065097e+02 -6.227953e+00 -1.116292e+02 -9.979434e+00 -1.139969e+02 -1.269109e+01 -1.142734e+02 -1.577158e+01 -1.129409e+02 -1.909293e+01 -1.114266e+02 -2.176103e+01 -1.113481e+02 -2.356515e+01 -1.113365e+02 -2.483547e+01 -1.113142e+02 -2.541134e+01 -1.115728e+02 -2.606864e+01 -1.121983e+02 -2.699838e+01 -1.118790e+02 -2.805433e+01 -1.110096e+02 -2.855002e+01 -1.104655e+02 -2.860112e+01 -1.109136e+02 -2.728354e+01 -1.113657e+02 -2.481739e+01 -1.109779e+02 -2.134407e+01 -1.095545e+02 -1.704360e+01 -1.075312e+02 -1.231871e+01 -1.055189e+02 -7.524784e+00 -1.033819e+02 -2.982452e+00 -1.006158e+02 1.563897e+00 -9.658984e+01 6.348549e+00 -9.516624e+01 1.365665e+01 
-2.955162e+01 2.417287e+00 -2.728448e+01 1.003674e+01 -3.862604e+01 6.236555e+00 -2.083246e+01 1.252632e+01 -3.263741e+01 1.122880e+01 -3.959759e+01 9.688089e+00 -4.423901e+01 7.995829e+00 -4.762245e+01 5.311340e+00 -4.970281e+01 9.487186e-01 -5.099547e+01 -2.612973e+00 -5.122485e+01 -5.910969e+00 -5.029832e+01 -9.269232e+00 -4.850773e+01 -1.253617e+01 -4.674613e+01 -1.474794e+01 -4.540650e+01 -1.662773e+01 -4.422009e+01 -1.813916e+01 -4.360030e+01 -1.858815e+01 -4.326096e+01 -1.830423e+01 -4.288605e+01 -1.863316e+01 -4.186510e+01 -1.941922e+01 -4.124706e+01 -1.936261e+01 -4.106698e+01 -1.828056e+01 -4.155150e+01 -1.688631e+01 -4.230708e+01 -1.527570e+01 -4.324465e+01 -1.316539e+01 -4.417651e+01 -9.969863e+00 -4.475930e+01 -5.935213e+00 -4.554822e+01 -2.004403e+00 -4.641740e+01 1.539672e+00 -4.686406e+01 4.655176e+00 -4.656390e+01 8.702748e+00 -4.915712e+01 1.294151e+01 
-3.662740e+00 2.472788e+00 -3.668441e+00 -8.348275e+00 -6.035898e+01 -2.073920e+00 8.753515e+00 6.667797e-01 1.800505e+00 2.436479e-01 -2.913021e-01 2.227027e-01 -1.112205e+00 1.067443e+00 -1.856686e+00 1.972337e+00 -2.817599e+00 -1.219908e+00 -1.931947e+00 -1.105209e+00 -1.873558e+00 -4.084992e-02 -1.762749e+00 -7.549218e-02 -2.157577e+00 -3.870213e-01 -2.441590e+00 -3.719341e-01 -2.138025e+00 -2.530219e-02 -1.721465e+00 -2.930917e-01 -1.792666e+00 -6.579039e-01 -1.883031e+00 -6.090080e-01 -1.454344e+00 -2.710598e-01 -1.023896e+00 -6.297547e-01 -1.120235e+00 -9.674168e-01 -1.313502e+00 -7.821591e-01 -1.117038e+00 -5.511925e-01 -7.783524e-01 -1.350842e+00 -6.727308e-01 -1.968035e+00 -2.971509e-01 -1.266628e+00 -1.817782e-01 -3.043716e-01 -3.152115e-01 1.326046e-01 -5.838637e-01 3.829504e-01 -8.319515e-01 7.312218e-01 -1.124592e+00 1.316293e+00 -1.796720e+00 2.938107e+00 
-2.966479e+00 2.429049e+00 -3.327671e+00 -8.019573e+00 -7.970536e+01 -3.782909e+00 7.162168e+00 -1.703690e+00 3.995320e+00 -8.194686e-01 2.195231e+00 -6.200428e-01 1.470749e+00 8.536539e-01 1.035246e+00 4.268333e+00 -2.877737e+00 -2.482990e+00 6.373714e-01 -1.584773e+00 9.620828e-01 1.009631e+00 5.224341e-01 3.698977e-01 4.731946e-02 -3.702192e-01 -3.245493e-01 -4.263101e-01 1.240348e-01 8.784702e-01 2.287379e-01 2.155392e-01 1.030291e-02 -4.861498e-01 -3.663274e-01 -4.219765e-01 5.314994e-02 9.308558e-01 1.624577e-01 2.591706e-01 -6.074755e-02 -2.511308e-01 -5.129227e-01 1.328354e-01 -3.924213e-01 1.408620e+00 -3.407909e-01 -2.975461e-03 1.576871e-01 -1.563013e+00 3.212354e-01 -2.698751e-01 5.424679e-01 8.500958e-01 -5.576430e-02 8.877390e-01 -5.364890e-01 8.087602e-01 -8.205210e-01 1.025483e+00 -1.224218e+00 1.372840e+00 -1.809893e+00 1.943032e+00 
-2.918441e+00 1.517925e+00 -1.675750e+00 -9.284627e+00 -8.969430e+01 -2.274357e+00 5.489391e+00 -2.239476e+00 3.894691e+00 -1.727427e+00 2.492714e+00 -1.878759e+00 1.702964e+00 -1.263218e+00 2.622825e+00 -1.658651e+00 -1.231189e+00 4.755449e+00 4.061310e+00 3.661996e+00 1.886051e+00 4.002204e+00 2.325397e+00 2.330465e+00 8.991908e-01 1.101468e+00 -5.085126e-01 1.432740e+00 7.605156e-01 2.511161e+00 1.845305e+00 8.500398e-01 8.430048e-01 -1.896420e-01 -4.973171e-01 6.103534e-01 6.589679e-01 1.941154e+00 1.798552e+00 6.494354e-02 9.079258e-01 -7.858057e-01 -4.243714e-01 6.665914e-01 1.280889e-01 2.874481e+00 5.554402e-01 -1.003307e+00 2.666070e-01 -6.283988e+00 -3.953539e-02 -2.322862e+00 7.577293e-01 1.898740e+00 -3.260506e-01 1.255883e+00 -9.963039e-01 8.283615e-01 -1.191610e+00 9.817140e-01 -1.495925e+00 1.343085e+00 -2.067295e+00 1.709443e+00 
-2.685670e+00 1.172695e+00 -1.186376e+00 -8.085074e+00 -1.009834e+02 -1.892900e+00 2.937584e+00 -2.963816e+00 2.845420e+00 -2.372374e+00 1.893624e+00 -3.450553e+00 1.176023e+00 -1.007041e+01 1.000322e+01 -3.111643e+01 1.161900e+01 4.029610e+01 3.290536e+01 3.459547e+01 2.616198e+01 1.757659e+01 2.088470e+01 2.394474e+01 1.604142e+01 2.496822e+01 1.200706e+01 1.980722e+01 2.383107e+01 1.491306e+01 1.998081e+01 2.040819e+01 1.549653e+01 2.113253e+01 1.152570e+01 1.694948e+01 2.272247e+01 1.245897e+01 1.939278e+01 1.724913e+01 1.543699e+01 1.774986e+01 1.135251e+01 1.434990e+01 2.072616e+01 1.146877e+01 1.701203e+01 1.233076e+01 1.398310e+01 6.732038e+00 1.004753e+01 8.769959e+00 2.860622e+00 4.410593e+00 -1.009951e+00 1.351350e+00 -1.380838e+00 9.239920e-01 -1.256157e+00 1.174465e+00 -1.444325e+00 1.546449e+00 -1.931721e+00 1.939134e+00 
-2.124778e+00 6.442031e-01 3.438965e-01 -8.279980e+00 -1.059172e+02 -9.097721e-01 1.900161e+00 -2.528689e+00 1.901322e+00 -2.423002e+00 1.754977e+00 -5.091270e+00 3.579672e+00 -1.696067e+01 1.815318e+01 -4.714964e+01 3.746034e+01 6.208494e+01 5.968021e+01 5.903604e+01 5.395654e+01 2.514335e+01 5.641909e+01 4.502478e+01 4.674027e+01 5.780983e+01 3.760014e+01 5.756774e+01 6.350835e+01 3.434944e+01 5.861737e+01 5.087914e+01 4.724629e+01 6.128441e+01 3.736128e+01 5.945711e+01 6.502042e+01 3.527099e+01 5.790648e+01 5.122073e+01 4.668702e+01 6.088370e+01 3.631724e+01 5.773943e+01 6.604256e+01 3.361867e+01 5.866384e+01 5.115678e+01 3.944355e+01 1.020498e+02 3.257057e+01 3.841705e+01 -3.677592e+00 1.757804e+00 -4.654286e+00 -9.997584e-01 -2.162255e+00 2.757911e-01 -1.346627e+00 1.056380e+00 -1.405973e+00 1.513112e+00 -1.786115e+00 1.792318e+00 
-1.647402e+00 3.242404e-01 1.042526e+00 -7.248614e+00 -1.125168e+02 -7.109315e-01 8.869018e-01 -2.530284e+00 1.412144e+00 -1.804767e+00 2.314886e+00 -1.801041e+00 4.167268e+00 -3.166809e+00 6.768521e+00 -6.392556e+00 5.282497e+00 -9.945904e+00 8.666216e+00 -4.718644e+00 1.231261e+01 -4.498468e+00 1.872686e+01 1.596850e+00 1.875093e+01 1.074888e+01 1.612986e+01 1.704380e+01 2.182123e+01 9.926289e+00 2.543418e+01 1.520597e+01 2.129200e+01 2.293984e+01 1.672992e+01 2.713256e+01 2.459991e+01 1.684592e+01 2.728992e+01 2.264333e+01 2.142786e+01 3.075789e+01 1.580607e+01 3.471702e+01 2.660607e+01 2.218082e+01 3.062077e+01 3.135322e+01 3.162339e+01 8.413854e+01 6.856304e+00 2.439031e+01 -6.332117e+00 1.169444e+00 -3.693677e+00 -4.816118e-01 -1.543496e+00 4.991108e-01 -1.014379e+00 1.163579e+00 -1.151147e+00 1.566432e+00 -1.495037e+00 1.752700e+00 
-9.867256e-01 -1.125078e-01 2.246880e+00 -6.855937e+00 -1.142197e+02 -1.340766e-01 6.458896e-01 -2.199364e+00 9.376300e-01 -8.844169e-01 1.596945e+00 3.149893e+00 -5.239891e-03 1.565579e+01 -1.481746e+01 4.587753e+01 -3.513825e+01 -6.890171e+01 -5.788395e+01 -6.548662e+01 -5.075675e+01 -3.183676e+01 -5.502450e+01 -4.882730e+01 -4.457812e+01 -5.890762e+01 -3.601009e+01 -6.108320e+01 -5.773291e+01 -3.571961e+01 -5.707479e+01 -4.820055e+01 -4.503368e+01 -5.711186e+01 -3.633654e+01 -5.987564e+01 -5.805247e+01 -3.314509e+01 -5.678214e+01 -4.426286e+01 -4.506622e+01 -5.248546e+01 -3.640583e+01 -5.528391e+01 -5.790658e+01 -2.916585e+01 -5.536053e+01 -3.853463e+01 -4.771938e+01 -1.045768e+02 -1.849823e+01 -2.127233e+01 3.443451e+00 2.873409e+00 2.507337e+00 3.134042e+00 3.900659e-01 1.880776e+00 -5.242887e-01 1.544247e+00 -9.334653e-01 1.617197e+00 -1.199876e+00 1.621059e+00 
-4.683325e-01 -3.606395e-01 2.869374e+00 -5.969546e+00 -1.174394e+02 1.815529e-01 1.015803e-01 -2.277759e+00 2.217490e-02 -1.591263e+00 4.186851e-01 1.254739e+00 -1.583625e+00 1.198150e+01 -1.615340e+01 3.494729e+01 -1.429575e+01 -2.915089e+01 -4.096594e+01 -3.145989e+01 -4.180363e+01 -1.292065e+01 -3.752892e+01 -2.888676e+01 -3.299144e+01 -3.889554e+01 -2.776303e+01 -3.478889e+01 -4.979298e+01 -2.344691e+01 -4.239847e+01 -3.849484e+01 -3.516930e+01 -4.650118e+01 -2.826496e+01 -4.095944e+01 -5.224033e+01 -2.715105e+01 -4.292647e+01 -4.215522e+01 -3.535643e+01 -5.006845e+01 -2.775352e+01 -4.420324e+01 -5.408532e+01 -2.957123e+01 -4.427714e+01 -4.860589e+01 -3.041165e+01 -8.269626e+01 -2.919279e+01 -3.997034e+01 1.089998e+00 -2.289673e+00 3.285474e+00 2.664864e+00 9.111209e-01 2.008318e+00 -2.274529e-01 1.633074e+00 -6.733763e-01 1.619161e+00 -8.788351e-01 1.516114e+00 
1.592886e-01 -7.359623e-01 3.765330e+00 -5.410590e+00 -1.167644e+02 7.906601e-01 -1.024729e-01 -1.823403e+00 -8.280728e-01 -1.480278e+00 -7.890389e-01 -6.122814e-01 -1.545183e+00 -9.118048e-01 -3.456426e+00 1.051502e+00 -3.060469e+00 3.630842e-01 -4.874607e+00 1.191343e+00 -1.680259e+00 1.195892e+00 -5.163045e+00 1.752940e+00 -3.699917e+00 2.907080e-01 -1.152116e+00 -2.111402e+00 -2.491695e+00 -1.057313e+00 -5.999823e+00 -1.253147e+00 -3.900251e+00 -2.625450e+00 -8.584159e-01 -4.618358e+00 -3.019901e+00 -3.322935e+00 -6.137129e+00 -3.785184e+00 -3.558394e+00 -5.513740e+00 -2.076550e-01 -7.637908e+00 -3.256802e+00 -6.456720e+00 -6.053307e+00 -5.440112e+00 -5.182240e+00 -2.377023e+00 -3.125900e+00 -5.396072e+00 -5.614125e-01 -3.311730e+00 5.073533e-01 3.501461e-01 3.260016e-01 1.331078e+00 -1.784490e-01 1.477590e+00 -4.863494e-01 1.538818e+00 -5.657361e-01 1.355760e+00 
6.408626e-01 -9.248221e-01 4.214979e+00 -4.626546e+00 -1.174790e+02 1.063740e+00 -3.520752e-01 -1.812944e+00 -1.337634e+00 -1.742326e+00 -1.266244e+00 -8.499819e-01 -1.581079e+00 -1.618038e+00 -8.562449e-01 -5.825169e+00 3.592018e+00 1.716198e+00 1.422272e-01 9.614531e-01 -1.197645e+00 -1.912079e+00 -1.720439e-01 -6.453976e-01 1.982982e-01 6.172768e-01 1.479632e-01 5.590051e-01 -7.235759e-01 -1.453574e+00 -1.640902e-01 -3.123370e-01 1.513521e-01 7.462344e-01 3.427954e-01 6.136112e-01 -5.967604e-01 -1.487751e+00 -2.130288e-01 -3.433166e-01 1.908964e-01 4.664637e-01 5.498888e-01 7.050799e-02 -3.142630e-01 -2.193626e+00 -7.535694e-02 1.360861e-01 -1.697284e-01 3.857955e+00 -2.799635e-01 4.011338e-01 -5.863580e-01 -1.720970e+00 2.648849e-01 -7.777114e-03 2.835930e-01 1.006918e+00 -5.814268e-02 1.320456e+00 -2.792311e-01 1.427708e+00 -2.670498e-01 1.197532e+00 
1.170192e+00 -1.252512e+00 4.840471e+00 -4.182800e+00 -1.150757e+02 1.566570e+00 -3.155726e-01 -1.741986e+00 -1.572494e+00 -2.433290e+00 -1.141927e+00 -2.348445e+00 -3.916555e-01 -1.716440e+00 4.737222e-01 1.566873e-01 -3.172055e-01 -8.821312e-01 4.551995e-01 8.406258e-02 6.566265e-01 9.963137e-01 -3.469948e-01 -3.365415e-01 2.729736e-01 -1.532136e-01 6.539624e-01 6.613723e-01 -6.117257e-02 6.050455e-01 -6.266926e-01 -7.247691e-01 2.294878e-01 -3.907662e-01 8.001746e-01 6.916590e-01 1.508304e-03 5.777397e-01 -6.793036e-01 -8.143484e-01 3.410262e-01 -5.194680e-01 1.060460e+00 7.676911e-01 1.078753e-01 1.205000e+00 -1.206942e+00 2.737697e-01 -7.095697e-01 5.138547e-01 -1.109898e-01 -2.719445e-02 9.123237e-01 3.450333e-01 1.322105e-01 4.104902e-01 -1.726793e-01 7.462505e-01 -2.243929e-01 1.063501e+00 -2.071691e-01 1.250263e+00 -1.686875e-02 9.917067e-01 
1.575515e+00 -1.421281e+00 5.084306e+00 -3.448232e+00 -1.137907e+02 1.700334e+00 -3.817364e-01 -1.551564e+00 -1.675333e+00 -2.489758e+00 -1.272792e+00 -3.143168e+00 -3.405203e-01 -4.661737e+00 1.712748e+00 -2.590377e+00 -1.993025e+00 6.236381e-01 5.020488e+00 8.173759e+00 4.345431e+00 6.184377e+00 2.763966e+00 5.254984e+00 2.244048e+00 4.227866e+00 1.868240e+00 2.834285e+00 2.238063e+00 3.394802e+00 2.584627e+00 2.891597e+00 2.212310e+00 2.345354e+00 1.884714e+00 1.668052e+00 2.266614e+00 2.127560e+00 2.574784e+00 1.435069e+00 2.457177e+00 1.024385e+00 2.244173e+00 8.570116e-01 2.511020e+00 1.842157e+00 2.473471e+00 8.444588e-01 2.063823e+00 -8.824155e-01 1.170655e+00 -5.852158e-01 1.130930e+00 1.309922e+00 4.008922e-02 8.668582e-01 -3.410423e-01 7.234362e-01 -2.280444e-01 9.190160e-01 -6.886635e-02 1.092682e+00 2.338058e-01 7.903572e-01 
1.997078e+00 -1.649649e+00 5.417023e+00 -2.945888e+00 -1.099163e+02 1.992745e+00 -2.889828e-01 -1.269532e+00 -1.823710e+00 -2.466901e+00 -1.494033e+00 -4.415724e+00 6.106352e-01 -1.168222e+01 7.077021e+00 -1.374411e+01 2.940823e-02 1.056434e+00 2.481068e+01 2.790360e+01 2.497228e+01 1.878616e+01 2.132345e+01 2.588891e+01 1.754330e+01 2.360686e+01 1.689192e+01 1.348605e+01 2.102022e+01 1.917816e+01 2.364857e+01 2.630119e+01 1.826976e+01 2.329565e+01 1.710697e+01 1.253836e+01 2.138140e+01 1.841532e+01 2.375430e+01 2.474956e+01 1.817046e+01 2.153804e+01 1.761922e+01 1.076741e+01 2.189588e+01 1.711228e+01 2.377822e+01 2.580064e+01 1.422008e+01 2.499243e+01 1.735354e+01 2.780580e+01 5.426479e+00 4.778974e+00 -1.678389e+00 1.276240e-01 -1.025940e+00 2.944290e-01 -3.229543e-01 7.225593e-01 2.782935e-02 9.498717e-01 4.527410e-01 5.908026e-01 
2.301911e+00 -1.726893e+00 5.441332e+00 -2.265530e+00 -1.069126e+02 1.978391e+00 -2.950079e-01 -1.045463e+00 -1.670056e+00 -2.059554e+00 -1.019719e+00 -3.488124e+00 1.566920e+00 -8.776643e+00 7.214243e+00 -1.265312e+01 4.712116e+00 -1.679260e+00 2.204652e+01 1.518351e+01 2.365002e+01 9.344293e+00 2.436127e+01 2.061829e+01 2.050500e+01 2.114266e+01 1.895852e+01 1.284997e+01 2.415144e+01 1.824241e+01 2.950310e+01 2.876467e+01 2.178595e+01 2.695579e+01 1.901783e+01 1.581087e+01 2.492159e+01 2.167373e+01 3.061610e+01 3.192642e+01 2.123731e+01 2.934153e+01 1.867973e+01 1.696207e+01 2.501823e+01 2.371404e+01 3.181850e+01 3.656466e+01 1.673560e+01 4.588210e+01 2.160325e+01 4.205669e+01 2.870949e+00 5.528130e+00 -3.176782e+00 -4.100554e-01 -1.293982e+00 -2.365757e-02 -2.379540e-01 5.536849e-01 1.928925e-01 8.069426e-01 6.734600e-01 4.031167e-01 
2.591828e+00 -1.804124e+00 5.505484e+00 -1.814364e+00 -1.018033e+02 1.988864e+00 -3.216426e-02 -9.056647e-01 -1.274338e+00 -1.330810e+00 -7.227396e-01 3.891037e-01 -7.892811e-01 6.148990e+00 -4.389380e+00 7.251549e+00 1.942494e+00 -5.574042e+00 -1.837426e+01 -2.697706e+01 -1.550900e+01 -1.776782e+01 -1.531990e+01 -2.213037e+01 -1.086878e+01 -1.893143e+01 -9.249132e+00 -1.149620e+01 -1.261253e+01 -1.378397e+01 -1.585408e+01 -1.753385e+01 -1.074851e+01 -1.476025e+01 -9.163443e+00 -8.099180e+00 -1.258326e+01 -1.018149e+01 -1.535555e+01 -1.338069e+01 -1.073235e+01 -1.075524e+01 -9.812657e+00 -4.606122e+00 -1.311168e+01 -6.418627e+00 -1.543179e+01 -9.464072e+00 -9.283885e+00 -1.270317e+01 -9.393481e+00 -8.205961e+00 -2.154812e+00 9.349720e-01 1.345749e-01 1.140636e+00 1.926124e-01 7.888542e-01 2.212577e-01 7.555621e-01 3.830096e-01 7.797784e-01 8.619235e-01 2.537389e-01 
2.757435e+00 -1.745765e+00 5.338507e+00 -1.275284e+00 -9.729103e+01 1.932178e+00 -3.869761e-02 -8.135033e-01 -1.275218e+00 -1.213960e+00 -1.208556e+00 1.026926e+00 -2.864363e+00 8.914765e+00 -8.886795e+00 1.081003e+01 -1.384185e+00 1.127148e-01 -2.668827e+01 -2.592136e+01 -2.930556e+01 -1.811933e+01 -2.613426e+01 -2.748099e+01 -2.235527e+01 -2.690465e+01 -2.118010e+01 -1.603224e+01 -2.676434e+01 -2.239917e+01 -3.104429e+01 -3.236301e+01 -2.366773e+01 -2.983794e+01 -2.121525e+01 -1.679110e+01 -2.753265e+01 -2.358123e+01 -3.217505e+01 -3.324730e+01 -2.332511e+01 -2.997371e+01 -2.125783e+01 -1.582747e+01 -2.815444e+01 -2.305756e+01 -3.373463e+01 -3.622961e+01 -1.881256e+01 -4.181437e+01 -2.343038e+01 -4.065068e+01 -4.675926e+00 -3.724586e+00 2.572090e+00 1.882587e+00 1.218314e+00 1.340448e+00 5.388896e-01 9.070340e-01 5.333858e-01 7.438617e-01 1.015705e+00 1.317938e-01 
2.900059e+00 -1.708596e+00 5.208592e+00 -8.816008e-01 -9.106896e+01 1.997624e+00 -2.719386e-02 -5.370632e-01 -1.454440e+00 -1.168374e+00 -1.667752e+00 -7.030503e-01 -2.222679e+00 4.617783e-01 -3.529257e+00 5.611695e-01 -1.284789e+00 1.622821e+00 -7.338656e+00 -2.508090e+00 -8.899745e+00 -3.048963e+00 -7.551704e+00 -5.103634e+00 -7.079982e+00 -5.582203e+00 -6.946091e+00 -3.649848e+00 -8.388699e+00 -6.533633e+00 -9.050260e+00 -8.778781e+00 -7.610340e+00 -8.370412e+00 -7.053081e+00 -5.334975e+00 -8.684248e+00 -8.644165e+00 -9.481767e+00 -1.084887e+01 -7.395424e+00 -1.009369e+01 -6.838830e+00 -6.506342e+00 -8.582721e+00 -1.060302e+01 -9.483980e+00 -1.387670e+01 -5.812599e+00 -1.148985e+01 -8.518591e+00 -1.597821e+01 -3.524065e+00 -3.948410e+00 8.839860e-01 3.129225e-01 8.360520e-01 8.263918e-01 5.734505e-01 7.743428e-01 6.256138e-01 6.654785e-01 1.134234e+00 2.170833e-02 
2.932117e+00 -1.576465e+00 4.909221e+00 -4.712227e-01 -8.533601e+01 1.940368e+00 -1.037334e-01 -3.516262e-01 -1.520906e+00 -9.624890e-01 -1.798493e+00 -9.932975e-01 -1.686126e+00 -2.224040e+00 -7.239498e-01 -3.339067e+00 1.779581e-01 3.157987e-02 -9.970097e-03 9.397257e-01 -9.551067e-01 -9.116415e-01 -5.907012e-01 4.706339e-01 -7.181762e-01 6.924149e-01 -5.272745e-01 -3.478096e-01 -1.781438e-01 -1.109220e+00 -1.675456e-01 5.132078e-01 -4.375056e-01 6.088361e-01 -2.683756e-01 -5.645510e-01 2.671472e-02 -1.372269e+00 2.599009e-02 2.585816e-01 -2.659073e-01 2.246751e-01 -1.427718e-02 -1.151147e+00 3.879567e-01 -2.269081e+00 3.944579e-01 2.404183e-01 -2.037203e-01 2.181260e+00 -2.161780e-01 7.695477e-01 -9.011236e-01 -1.390525e+00 1.379284e-01 -3.248126e-01 5.760990e-01 4.208386e-01 6.000474e-01 6.152677e-01 7.030570e-01 5.634727e-01 1.220605e+00 -7.025468e-02 
2.918830e+00 -1.498200e+00 4.658454e+00 -2.946819e-01 -7.831402e+01 1.911010e+00 -2.440407e-02 -3.234520e-01 -1.395953e+00 -1.115053e+00 -1.553891e+00 -1.216300e+00 -1.206182e+00 -1.605789e+00 -4.410383e-01 -1.812885e+00 1.889629e-01 -7.675090e-01 2.575996e-01 -1.630567e-01 -1.687002e-01 -7.643068e-01 -1.119716e-01 -1.312066e-01 -2.714978e-01 7.832601e-02 -2.099100e-01 -3.654907e-01 6.806567e-02 -6.898603e-01 8.096362e-02 1.729931e-01 -1.602453e-01 3.264007e-01 -1.118526e-01 -2.243126e-01 1.563754e-01 -5.866317e-01 1.301529e-01 3.025014e-01 -1.267553e-01 3.637595e-01 -1.374997e-02 -2.908644e-01 3.089993e-01 -6.312457e-01 1.563677e-01 8.928869e-01 -4.230375e-01 1.601632e+00 -1.903174e-01 1.005468e+00 -5.067277e-01 -3.328766e-01 1.590259e-02 -1.868003e-01 3.653588e-01 2.360641e-01 5.084213e-01 4.524129e-01 6.876143e-01 4.460214e-01 1.240200e+00 -1.605092e-01 
2.817624e+00 -1.368316e+00 4.279423e+00 -7.359974e-02 -7.164883e+01 1.789534e+00 -3.676810e-02 -2.408406e-01 -1.259384e+00 -1.064021e+00 -1.351091e+00 -1.275905e+00 -9.347405e-01 -1.411150e+00 -4.129852e-01 -1.114207e+00 -2.163719e-03 -1.039232e+00 6.925064e-02 -4.510175e-01 -5.117282e-02 -3.270620e-01 -1.607394e-01 -1.574398e-01 -2.242955e-01 -1.354426e-01 -9.076691e-02 -3.193346e-01 3.884680e-02 -2.914454e-01 -4.500519e-02 2.498043e-02 -1.206211e-01 6.090373e-02 -2.757377e-04 -1.754840e-01 1.103419e-01 -1.773597e-01 3.438109e-03 1.310925e-01 -7.030175e-02 1.169959e-01 1.008741e-01 -1.434222e-01 2.248115e-01 -7.344705e-03 -2.355195e-02 7.242949e-01 -2.664396e-01 9.401661e-01 -2.514895e-01 7.807329e-01 -2.211668e-01 1.403338e-01 1.238611e-02 -1.634046e-02 2.708431e-01 1.695577e-01 4.615716e-01 3.410554e-01 6.791204e-01 3.407382e-01 1.235777e+00 -2.303756e-01 
2.668217e+00 -1.269393e+00 3.926433e+00 -6.776238e-03 -6.398106e+01 1.658413e+00 5.774862e-02 -2.097698e-01 -1.067122e+00 -1.000880e+00 -1.148571e+00 -1.129194e+00 -8.042924e-01 -1.124169e+00 -4.358435e-01 -9.393689e-01 -1.538917e-01 -8.772653e-01 -5.494883e-02 -5.325013e-01 -4.641331e-02 -3.199637e-01 -1.202409e-01 -1.973528e-01 -1.440501e-01 -1.795462e-01 -4.882303e-02 -2.425360e-01 1.421595e-02 -1.724502e-01 -4.705715e-02 -2.709932e-02 -7.175643e-02 -1.810629e-02 1.830692e-02 -1.168416e-01 7.286561e-02 -6.135834e-02 -2.331411e-03 7.342498e-02 -2.935145e-02 6.222348e-02 7.788626e-02 -1.913476e-02 1.134734e-01 1.607158e-01 -7.680508e-02 5.108730e-01 -2.258707e-01 5.673446e-01 -1.780359e-01 6.033504e-01 -1.146560e-01 3.027122e-01 2.903051e-02 1.302770e-01 2.107263e-01 1.795182e-01 3.903660e-01 2.783736e-01 6.200188e-01 2.606249e-01 1.175121e+00 -2.822536e-01 
2.452024e+00 -1.136917e+00 3.484723e+00 9.042706e-02 -5.656103e+01 1.485777e+00 6.751630e-02 -1.577827e-01 -8.971335e-01 -8.933128e-01 -9.765595e-01 -1.011099e+00 -6.951559e-01 -9.501498e-01 -4.089477e-01 -8.142702e-01 -1.629080e-01 -7.736868e-01 -1.075201e-01 -5.304556e-01 -8.043898e-02 -2.973724e-01 -1.139766e-01 -2.057153e-01 -1.114504e-01 -1.909226e-01 -3.577448e-02 -1.938458e-01 -1.287967e-02 -1.249849e-01 -5.644425e-02 -5.625532e-02 -4.976250e-02 -5.164462e-02 2.505575e-02 -7.817220e-02 4.051899e-02 -2.269696e-02 -1.207216e-02 3.794037e-02 -4.857173e-03 3.927132e-02 7.672077e-02 4.520860e-02 6.348705e-02 2.007369e-01 -7.942870e-02 3.932091e-01 -1.611299e-01 4.440083e-01 -1.548848e-01 4.635946e-01 -5.948912e-02 3.260892e-01 4.749086e-02 1.947001e-01 1.841903e-01 1.851704e-01 3.472224e-01 2.323857e-01 5.707673e-01 1.938394e-01 1.096903e+00 -3.117729e-01 
2.194173e+00 -1.010165e+00 3.046800e+00 1.096440e-01 -4.836578e+01 1.297025e+00 1.202896e-01 -1.222363e-01 -7.277524e-01 -7.729000e-01 -8.192573e-01 -8.599687e-01 -6.021465e-01 -7.949302e-01 -3.774829e-01 -6.930674e-01 -1.910089e-01 -6.278327e-01 -1.224128e-01 -4.651776e-01 -8.188091e-02 -2.936740e-01 -8.395018e-02 -2.070305e-01 -7.021544e-02 -1.741667e-01 -2.282893e-02 -1.524468e-01 -1.242574e-02 -9.966097e-02 -3.562039e-02 -5.893593e-02 -2.563935e-02 -4.950511e-02 2.061598e-02 -4.854206e-02 2.646914e-02 -6.343756e-03 -3.714765e-03 3.027432e-02 1.706764e-03 4.518265e-02 4.172645e-02 7.642038e-02 1.628865e-02 1.828892e-01 -7.892132e-02 2.891266e-01 -1.325837e-01 3.333540e-01 -1.194278e-01 3.612923e-01 -4.030464e-02 3.043692e-01 4.571364e-02 2.187801e-01 1.517146e-01 1.913688e-01 2.895844e-01 2.050928e-01 4.936230e-01 1.492891e-01 9.798096e-01 -3.173682e-01 
1.888943e+00 -8.654061e-01 2.556285e+00 1.329784e-01 -4.034520e+01 1.095050e+00 1.227306e-01 -7.400215e-02 -5.669026e-01 -6.337324e-01 -6.629483e-01 -7.183208e-01 -4.972275e-01 -6.632993e-01 -3.141738e-01 -5.884829e-01 -1.653014e-01 -5.267868e-01 -1.155708e-01 -4.049670e-01 -8.432628e-02 -2.686304e-01 -7.341844e-02 -1.905369e-01 -5.450740e-02 -1.528511e-01 -2.092686e-02 -1.245099e-01 -1.785205e-02 -8.531019e-02 -3.146486e-02 -5.740217e-02 -1.813355e-02 -4.524287e-02 1.495410e-02 -3.430281e-02 1.513892e-02 -3.449543e-03 -3.417242e-03 2.390119e-02 5.743243e-03 4.585262e-02 2.997864e-02 8.431331e-02 1.503278e-03 1.612412e-01 -6.737751e-02 2.345061e-01 -1.038781e-01 2.745666e-01 -9.518409e-02 2.928450e-01 -2.922590e-02 2.636901e-01 4.243607e-02 2.083151e-01 1.279925e-01 1.781512e-01 2.433313e-01 1.733190e-01 4.210854e-01 1.084460e-01 8.484573e-01 -3.064834e-01 
1.550976e+00 -7.151329e-01 2.057089e+00 1.218248e-01 -3.176456e+01 8.736476e-01 1.343564e-01 -4.660840e-02 -4.176439e-01 -5.033335e-01 -5.119651e-01 -5.751384e-01 -3.917093e-01 -5.305278e-01 -2.527364e-01 -4.696463e-01 -1.423567e-01 -4.114704e-01 -9.388404e-02 -3.242630e-01 -6.432014e-02 -2.288002e-01 -4.860729e-02 -1.646469e-01 -3.116617e-02 -1.261914e-01 -1.020047e-02 -9.699503e-02 -8.753173e-03 -6.715209e-02 -1.567431e-02 -4.630852e-02 -6.731140e-03 -3.335431e-02 1.200368e-02 -1.997152e-02 1.073306e-02 2.773972e-03 -8.859539e-04 2.407139e-02 1.720732e-03 4.609495e-02 8.945294e-03 7.925000e-02 -1.652724e-02 1.304491e-01 -6.327245e-02 1.783571e-01 -8.900480e-02 2.121682e-01 -8.024125e-02 2.298326e-01 -3.098756e-02 2.185920e-01 2.615329e-02 1.845791e-01 9.338188e-02 1.586988e-01 1.849820e-01 1.456609e-01 3.314744e-01 7.990210e-02 6.915453e-01 -2.755807e-01 
1.184574e+00 -5.617244e-01 1.534551e+00 9.791713e-02 -2.330547e+01 6.542233e-01 1.274919e-01 -2.795511e-03 -2.637064e-01 -3.555998e-01 -3.536641e-01 -4.300707e-01 -2.748954e-01 -4.043506e-01 -1.726245e-01 -3.625050e-01 -9.437454e-02 -3.185355e-01 -6.275198e-02 -2.548464e-01 -4.470345e-02 -1.840574e-01 -3.254936e-02 -1.317902e-01 -1.897371e-02 -9.779548e-02 -5.526865e-03 -7.311092e-02 -6.176103e-03 -5.144668e-02 -1.101406e-02 -3.570331e-02 -4.016442e-03 -2.435014e-02 8.344716e-03 -1.277748e-02 6.507298e-03 3.917182e-03 -1.496196e-03 2.181528e-02 7.394642e-05 4.231974e-02 1.754893e-03 6.992295e-02 -2.039953e-02 1.069757e-01 -5.586235e-02 1.428772e-01 -7.558346e-02 1.693513e-01 -6.911085e-02 1.821495e-01 -3.288637e-02 1.743915e-01 1.073945e-02 1.504684e-01 6.164475e-02 1.279545e-01 1.304697e-01 1.111383e-01 2.425114e-01 5.056028e-02 5.238795e-01 -2.363138e-01 
7.956192e-01 -3.980479e-01 9.975038e-01 6.734914e-02 -1.449889e+01 4.128908e-01 1.121309e-01 1.729641e-02 -1.236846e-01 -2.209401e-01 -1.990179e-01 -2.866471e-01 -1.576227e-01 -2.745147e-01 -9.365097e-02 -2.467577e-01 -4.517229e-02 -2.156351e-01 -2.480307e-02 -1.741603e-01 -1.461036e-02 -1.284946e-01 -7.911680e-03 -9.203715e-02 -5.638280e-04 -6.625616e-02 5.576003e-03 -4.741178e-02 3.379494e-03 -3.233944e-02 -7.366736e-04 -2.142815e-02 2.067609e-03 -1.282085e-02 7.518026e-03 -3.944684e-03 4.607488e-03 7.603563e-03 -2.153354e-03 2.058386e-02 -4.712691e-03 3.617499e-02 -9.004568e-03 5.595241e-02 -2.774570e-02 8.031631e-02 -5.357931e-02 1.044393e-01 -6.900691e-02 1.240811e-01 -6.548585e-02 1.340181e-01 -4.150925e-02 1.296459e-01 -1.124629e-02 1.127694e-01 2.329140e-02 9.398027e-02 6.898810e-02 7.693302e-02 1.447757e-01 2.687034e-02 3.418921e-01 -1.835857e-01 
3.969221e-01 -2.421438e-01 4.601913e-01 1.707295e-02 -5.768662e+00 1.845930e-01 1.014276e-01 5.699076e-02 2.746333e-02 -7.223851e-02 -3.708937e-02 -1.405041e-01 -3.286932e-02 -1.483810e-01 -3.893359e-03 -1.393907e-01 1.619048e-02 -1.252437e-01 1.830171e-02 -1.021177e-01 1.538800e-02 -7.424658e-02 1.312343e-02 -5.052110e-02 1.339726e-02 -3.350414e-02 1.358705e-02 -2.192340e-02 8.875864e-03 -1.356886e-02 3.770414e-03 -7.681736e-03 4.075762e-03 -3.041849e-03 6.222265e-03 1.825381e-03 2.790403e-03 8.751586e-03 -3.296693e-03 1.771429e-02 -6.953646e-03 2.891873e-02 -1.290116e-02 4.256050e-02 -2.929082e-02 5.882431e-02 -5.060819e-02 7.525000e-02 -6.434375e-02 8.809007e-02 -6.421264e-02 9.323444e-02 -5.036621e-02 8.735100e-02 -3.284571e-02 7.233501e-02 -1.440922e-02 5.497243e-02 8.193438e-03 3.837644e-02 4.621397e-02 1.515113e-03 1.542692e-01 -1.296645e-01 
-1.303316e-02 -7.242310e-02 -9.377565e-02 -1.791145e-02 3.097699e+00 -6.611693e-02 7.108224e-02 7.542700e-02 1.640142e-01 6.680516e-02 1.202344e-01 4.887289e-03 9.004531e-02 -1.941041e-02 8.363443e-02 -2.694189e-02 7.674637e-02 -2.864273e-02 6.272590e-02 -2.376356e-02 4.835618e-02 -1.450236e-02 3.719037e-02 -5.673985e-03 2.987901e-02 5.674865e-04 2.406367e-02 4.140831e-03 1.671511e-02 5.941467e-03 1.019744e-02 6.624002e-03 7.429130e-03 7.054382e-03 5.985031e-03 7.997182e-03 1.470214e-03 1.041394e-02 -4.771936e-03 1.447288e-02 -1.033155e-02 2.019895e-02 -1.809121e-02 2.733777e-02 -3.235021e-02 3.583948e-02 -4.952499e-02 4.456560e-02 -6.203018e-02 5.115880e-02 -6.560733e-02 5.216170e-02 -6.102683e-02 4.503117e-02 -5.553478e-02 3.085752e-02 -5.284640e-02 1.426474e-02 -5.300456e-02 -1.350281e-03 -5.288044e-02 -2.285791e-02 -3.664747e-02 -6.876980e-02 
-4.145263e-01 8.240681e-02 -6.288580e-01 -7.355573e-02 1.193093e+01 -2.938237e-01 6.260954e-02 1.147651e-01 3.137406e-01 2.135261e-01 2.820097e-01 1.494470e-01 2.167429e-01 1.051705e-01 1.767760e-01 7.876212e-02 1.433294e-01 5.993857e-02 1.103679e-01 4.858271e-02 8.208711e-02 4.296704e-02 6.060467e-02 3.951038e-02 4.549130e-02 3.592669e-02 3.402909e-02 3.146112e-02 2.345680e-02 2.652679e-02 1.484943e-02 2.162226e-02 9.785236e-03 1.713738e-02 6.191328e-03 1.344851e-02 8.303284e-04 1.125601e-02 -5.722230e-03 1.071807e-02 -1.209620e-02 1.147365e-02 -2.050211e-02 1.304037e-02 -3.382561e-02 1.538360e-02 -4.961340e-02 1.778766e-02 -6.257135e-02 1.827601e-02 -7.003886e-02 1.427547e-02 -7.369224e-02 3.971650e-03 -7.966847e-02 -1.150317e-02 -9.247723e-02 -2.853273e-02 -1.151658e-01 -4.307699e-02 -1.527692e-01 -4.880011e-02 -2.268775e-01 -1.261719e-02 