# vtk DataFile Version 2.0
Comment goes here
ASCII

DATASET STRUCTURED_POINTS
FIELD FieldData 1
TIME 1 1 double
0.03100000
DIMENSIONS    64   64   1

ORIGIN    0.000   0.000   0.000
SPACING   0.03125 0.03125   1.000

POINT_DATA   4096
SCALARS P double
LOOKUP_TABLE default

-3.672442e+01 -2.081003e+02 -3.460243e+01 -2.008913e+02 -8.340723e+00 1.157440e+02 -2.495664e+01 1.088128e+02 -2.390101e+01 1.015824e+02 -2.718632e+01 1.001927e+02 -3.372160e+01 9.522153e+01 -3.172996e+01 8.347523e+01 -2.409891e+01 6.504171e+01 -1.010914e+01 4.198310e+01 1.606463e+00 2.452524e+01 7.905077e+00 9.563808e+00 9.938628e+00 3.855547e-01 2.602167e+00 1.233429e+00 -1.397420e+01 8.304541e+00 -3.008016e+01 6.312433e+00 -3.343432e+01 -9.147739e+00 -2.600871e+01 -2.872637e+01 -2.074272e+01 -4.428365e+01 -2.048921e+01 -5.509514e+01 -2.666548e+01 -6.033500e+01 -3.460427e+01 -6.685918e+01 -4.320487e+01 -7.058726e+01 -5.533209e+01 -7.442744e+01 -6.374837e+01 -7.981529e+01 -7.360347e+01 -8.513792e+01 -7.861547e+01 -9.533905e+01 -7.675572e+01 -1.121067e+02 -6.792561e+01 -1.320459e+02 -5.773191e+01 -1.526423e+02 -4.583378e+01 -1.726689e+02 -3.911665e+01 -1.774877e+02 
-1.126616e+01 -1.360931e+02 -1.046933e+01 -1.318826e+02 7.139981e+00 1.047524e+02 -6.531111e+00 9.954219e+01 -6.354033e+00 9.360794e+01 -8.350716e+00 9.099266e+01 -1.226578e+01 8.616960e+01 -1.161845e+01 7.806105e+01 -8.671290e+00 6.649729e+01 -2.279135e+00 5.240694e+01 2.744517e+00 4.137448e+01 5.468805e+00 3.079593e+01 6.872851e+00 2.277975e+01 3.814740e+00 1.982812e+01 -3.930074e+00 2.016223e+01 -1.158456e+01 1.588524e+01 -1.278403e+01 4.650872e+00 -8.374026e+00 -8.335580e+00 -5.516672e+00 -1.893409e+01 -5.193955e+00 -2.732819e+01 -7.951722e+00 -3.285672e+01 -1.119546e+01 -3.958490e+01 -1.440452e+01 -4.484434e+01 -1.959598e+01 -5.031822e+01 -2.254492e+01 -5.648889e+01 -2.679664e+01 -6.201859e+01 -2.903361e+01 -6.946225e+01 -2.821989e+01 -7.996678e+01 -2.410119e+01 -9.163875e+01 -1.974386e+01 -1.032752e+02 -1.446099e+01 -1.147682e+02 -1.186646e+01 -1.167111e+02 
2.805856e+00 -8.929244e+01 2.813675e+00 -8.973616e+01 7.846259e+00 9.492213e+01 2.736537e+00 9.174149e+01 2.545880e+00 8.737392e+01 2.100636e+00 8.312272e+01 1.233334e+00 7.796356e+01 1.122757e+00 7.210635e+01 9.685590e-01 6.553220e+01 1.378861e+00 5.836607e+01 1.488357e+00 5.162257e+01 1.564143e+00 4.443925e+01 1.944151e+00 3.740684e+01 1.848335e+00 3.104116e+01 1.176621e+00 2.511554e+01 4.729951e-01 1.857312e+01 6.226956e-01 1.107380e+01 1.577841e+00 3.549434e+00 2.017596e+00 -3.477395e+00 2.059568e+00 -1.032174e+01 1.699749e+00 -1.671667e+01 1.458536e+00 -2.357396e+01 1.401817e+00 -3.020150e+01 1.015117e+00 -3.702441e+01 1.232570e+00 -4.384169e+01 1.026583e+00 -5.012867e+01 9.466361e-01 -5.624503e+01 1.112681e+00 -6.247574e+01 1.673875e+00 -6.844212e+01 2.053741e+00 -7.395610e+01 2.608479e+00 -7.925765e+01 2.755771e+00 -8.191366e+01 
2.503655e+00 -9.082281e+01 2.854326e+00 -9.323127e+01 3.336039e+00 9.665210e+01 2.889299e+00 9.322019e+01 2.412687e+00 8.886066e+01 1.787518e+00 8.423317e+01 1.085170e+00 7.890154e+01 8.800967e-01 7.280618e+01 9.664970e-01 6.592229e+01 1.501192e+00 5.857680e+01 1.962592e+00 5.137133e+01 2.317416e+00 4.413844e+01 2.558760e+00 3.726375e+01 2.276194e+00 3.099997e+01 1.467187e+00 2.498516e+01 6.675981e-01 1.843542e+01 5.626859e-01 1.108126e+01 1.154930e+00 3.508018e+00 1.632500e+00 -3.786026e+00 1.728965e+00 -1.077840e+01 1.493621e+00 -1.741870e+01 1.211084e+00 -2.411588e+01 9.120660e-01 -3.072054e+01 4.504298e-01 -3.739167e+01 2.147887e-01 -4.401935e+01 -8.187077e-02 -5.040426e+01 -2.377569e-01 -5.672468e+01 -7.992528e-02 -6.315730e+01 4.501007e-01 -6.947541e+01 1.059255e+00 -7.543746e+01 1.715843e+00 -8.089529e+01 2.135214e+00 -8.523864e+01 
2.706968e+00 -8.832718e+01 3.003620e+00 -9.116125e+01 3.515162e+00 9.539258e+01 2.939397e+00 9.196297e+01 2.534293e+00 8.767908e+01 2.140388e+00 8.295305e+01 1.724947e+00 7.763872e+01 1.533838e+00 7.176047e+01 1.375610e+00 6.529823e+01 1.425233e+00 5.850827e+01 1.445023e+00 5.170283e+01 1.459389e+00 4.477121e+01 1.550638e+00 3.793475e+01 1.499584e+00 3.134494e+01 1.231822e+00 2.485735e+01 9.525260e-01 1.809755e+01 1.019890e+00 1.099609e+01 1.398303e+00 3.847629e+00 1.647843e+00 -3.149920e+00 1.665539e+00 -1.002713e+01 1.541944e+00 -1.673443e+01 1.433250e+00 -2.349617e+01 1.312928e+00 -3.024140e+01 1.075773e+00 -3.704855e+01 1.005612e+00 -4.377033e+01 9.716309e-01 -5.022409e+01 1.016732e+00 -5.645936e+01 1.193458e+00 -6.257447e+01 1.523558e+00 -6.846431e+01 1.859241e+00 -7.401771e+01 2.215788e+00 -7.915829e+01 2.463213e+00 -8.353430e+01 
2.280236e+00 -9.093131e+01 2.722260e+00 -9.452481e+01 3.228828e+00 9.728046e+01 2.775491e+00 9.358251e+01 2.339723e+00 8.912431e+01 1.922259e+00 8.415942e+01 1.583530e+00 7.864220e+01 1.454698e+00 7.254618e+01 1.379603e+00 6.578926e+01 1.551272e+00 5.876575e+01 1.728516e+00 5.172761e+01 1.838547e+00 4.469687e+01 1.910213e+00 3.786765e+01 1.798019e+00 3.129337e+01 1.434842e+00 2.477703e+01 1.013004e+00 1.798683e+01 9.172012e-01 1.088491e+01 1.150753e+00 3.677087e+00 1.358107e+00 -3.448308e+00 1.343148e+00 -1.045226e+01 1.233102e+00 -1.726596e+01 1.105570e+00 -2.401139e+01 8.699996e-01 -3.073951e+01 4.526723e-01 -3.754578e+01 1.394633e-01 -4.428072e+01 8.585739e-03 -5.080941e+01 -5.572242e-03 -5.718522e+01 1.587843e-01 -6.350893e+01 5.130733e-01 -6.970023e+01 9.584542e-01 -7.562109e+01 1.433549e+00 -8.114444e+01 1.858517e+00 -8.614632e+01 
2.526005e+00 -8.950831e+01 2.877457e+00 -9.340868e+01 3.331135e+00 9.680198e+01 2.876904e+00 9.287765e+01 2.503634e+00 8.833970e+01 2.206950e+00 8.332949e+01 1.991775e+00 7.786045e+01 1.892670e+00 7.194446e+01 1.653669e+00 6.535510e+01 1.526940e+00 5.863818e+01 1.403403e+00 5.188258e+01 1.303207e+00 4.502267e+01 1.331069e+00 3.822481e+01 1.365225e+00 3.152663e+01 1.272117e+00 2.484337e+01 1.090432e+00 1.797023e+01 1.128822e+00 1.097668e+01 1.349203e+00 3.981424e+00 1.495759e+00 -2.949427e+00 1.441511e+00 -9.872036e+00 1.406768e+00 -1.668758e+01 1.418801e+00 -2.346513e+01 1.330423e+00 -3.024632e+01 1.003959e+00 -3.718054e+01 8.017237e-01 -4.402875e+01 8.223871e-01 -5.053509e+01 9.300210e-01 -5.678499e+01 1.113892e+00 -6.289849e+01 1.373766e+00 -6.883386e+01 1.659341e+00 -7.451529e+01 1.952960e+00 -7.987114e+01 2.228188e+00 -8.482341e+01 
2.000713e+00 -9.232129e+01 2.408822e+00 -9.671458e+01 2.829617e+00 9.887927e+01 2.520381e+00 9.462427e+01 2.216701e+00 8.984397e+01 1.974579e+00 8.462202e+01 1.859936e+00 7.897478e+01 1.919526e+00 7.286622e+01 1.681094e+00 6.588104e+01 1.617608e+00 5.893032e+01 1.528174e+00 5.203071e+01 1.422863e+00 4.508512e+01 1.494739e+00 3.822824e+01 1.557004e+00 3.148106e+01 1.403932e+00 2.479593e+01 1.042698e+00 1.788225e+01 9.876071e-01 1.081354e+01 1.168240e+00 3.733790e+00 1.271719e+00 -3.244871e+00 1.093544e+00 -1.025492e+01 1.052720e+00 -1.715777e+01 1.103084e+00 -2.397060e+01 9.735372e-01 -3.071347e+01 3.900715e-01 -3.778110e+01 -2.340430e-02 -4.487905e+01 -7.497295e-02 -5.135026e+01 1.306234e-03 -5.768171e+01 1.972958e-01 -6.399206e+01 4.943934e-01 -7.020391e+01 8.490489e-01 -7.621660e+01 1.229227e+00 -8.194207e+01 1.610042e+00 -8.731494e+01 
2.261856e+00 -9.150000e+01 2.569265e+00 -9.619490e+01 2.905368e+00 9.898096e+01 2.625579e+00 9.441139e+01 2.370079e+00 8.946243e+01 2.185511e+00 8.416819e+01 2.116831e+00 7.856291e+01 2.232479e+00 7.268391e+01 2.067100e+00 6.545045e+01 1.620164e+00 5.876181e+01 1.249970e+00 5.209522e+01 1.045093e+00 4.529051e+01 1.194552e+00 3.843690e+01 1.341862e+00 3.161847e+01 1.304994e+00 2.495873e+01 1.031530e+00 1.804665e+01 1.138852e+00 1.097250e+01 1.350871e+00 3.974331e+00 1.455382e+00 -2.798520e+00 1.235089e+00 -9.725818e+00 1.311488e+00 -1.666485e+01 1.477558e+00 -2.351867e+01 1.502523e+00 -3.013463e+01 8.531563e-01 -3.733485e+01 5.306307e-01 -4.495194e+01 4.534330e-01 -5.101928e+01 7.097375e-01 -5.721075e+01 9.526602e-01 -6.339122e+01 1.207518e+00 -6.946000e+01 1.465724e+00 -7.534861e+01 1.724596e+00 -8.100628e+01 1.984265e+00 -8.639447e+01 
1.676645e+00 -9.430492e+01 1.998861e+00 -9.941214e+01 2.303354e+00 1.011631e+02 2.157860e+00 9.624259e+01 1.999201e+00 9.102161e+01 1.890188e+00 8.553456e+01 1.913902e+00 7.988628e+01 2.267608e+00 7.424983e+01 2.434654e+00 6.585672e+01 1.682238e+00 5.901800e+01 1.098791e+00 5.238312e+01 1.001280e+00 4.545006e+01 1.350035e+00 3.846802e+01 1.500701e+00 3.152743e+01 1.293986e+00 2.501631e+01 8.962674e-01 1.799628e+01 1.096513e+00 1.075999e+01 1.226390e+00 3.629788e+00 1.161989e+00 -3.013223e+00 8.372677e-01 -1.007300e+01 1.059639e+00 -1.712214e+01 1.248346e+00 -2.406617e+01 1.228792e+00 -3.035779e+01 2.623314e-01 -3.785719e+01 1.941048e-01 -4.640788e+01 -7.828041e-01 -5.180616e+01 -2.053816e-01 -5.814622e+01 1.376711e-01 -6.456946e+01 4.334677e-01 -7.091006e+01 7.321714e-01 -7.710209e+01 1.040992e+00 -8.309322e+01 1.355945e+00 -8.884022e+01 
1.937713e+00 -9.385189e+01 2.158330e+00 -9.926093e+01 2.363019e+00 1.016667e+02 2.256467e+00 9.641349e+01 2.135894e+00 9.097836e+01 2.050235e+00 8.536848e+01 2.047400e+00 7.965658e+01 2.239131e+00 7.394401e+01 2.275002e+00 6.586305e+01 1.711222e+00 5.909777e+01 1.192358e+00 5.251831e+01 1.027089e+00 4.561169e+01 1.257830e+00 3.864714e+01 1.400801e+00 3.175286e+01 1.307552e+00 2.516640e+01 1.034177e+00 1.814855e+01 1.253073e+00 1.100245e+01 1.399303e+00 3.996870e+00 1.377555e+00 -2.654891e+00 1.126776e+00 -9.670366e+00 1.371753e+00 -1.666495e+01 1.588718e+00 -2.356415e+01 1.613523e+00 -3.000461e+01 8.223852e-01 -3.743349e+01 7.756980e-01 -4.565505e+01 -1.018076e-01 -5.133144e+01 4.532508e-01 -5.764813e+01 7.936194e-01 -6.400219e+01 1.053838e+00 -7.026986e+01 1.284148e+00 -7.641202e+01 1.503191e+00 -8.240268e+01 1.718880e+00 -8.822159e+01 
1.320501e+00 -9.657802e+01 1.534547e+00 -1.023562e+02 1.709455e+00 1.038667e+02 1.726001e+00 9.825972e+01 1.711555e+00 9.251310e+01 1.717146e+00 8.660036e+01 1.784545e+00 8.050991e+01 1.910262e+00 7.416253e+01 1.555761e+00 6.674262e+01 1.542324e+00 5.970910e+01 1.394008e+00 5.281933e+01 1.137872e+00 4.586026e+01 1.147767e+00 3.883120e+01 1.315229e+00 3.185297e+01 1.336266e+00 2.500575e+01 1.011287e+00 1.802157e+01 9.648845e-01 1.089511e+01 1.128942e+00 3.812615e+00 1.189054e+00 -3.110590e+00 8.887445e-01 -1.009677e+01 8.628347e-01 -1.713536e+01 1.023389e+00 -2.413725e+01 9.924652e-01 -3.100415e+01 3.103161e-01 -3.823279e+01 -1.778093e-01 -4.569103e+01 -1.359090e-01 -5.220721e+01 -5.920325e-03 -5.874429e+01 1.781503e-01 -6.528268e+01 3.910684e-01 -7.177648e+01 6.184160e-01 -7.818363e+01 8.533206e-01 -8.447004e+01 1.089571e+00 -9.060886e+01 
1.575628e+00 -9.634848e+01 1.691358e+00 -1.024183e+02 1.761708e+00 1.046266e+02 1.819541e+00 9.869234e+01 1.839922e+00 9.270385e+01 1.866868e+00 8.661431e+01 1.932287e+00 8.038226e+01 2.028265e+00 7.392488e+01 1.795150e+00 6.687855e+01 1.604390e+00 5.989761e+01 1.372758e+00 5.297796e+01 1.178454e+00 4.596948e+01 1.196070e+00 3.903387e+01 1.299604e+00 3.214221e+01 1.301001e+00 2.523932e+01 1.158554e+00 1.818583e+01 1.187757e+00 1.117446e+01 1.310938e+00 4.224992e+00 1.345329e+00 -2.707957e+00 1.215192e+00 -9.751361e+00 1.246600e+00 -1.670207e+01 1.359030e+00 -2.360122e+01 1.308342e+00 -3.052927e+01 8.919430e-01 -3.776046e+01 6.027827e-01 -4.493852e+01 5.400853e-01 -5.168785e+01 6.381974e-01 -5.823746e+01 7.876275e-01 -6.474744e+01 9.561017e-01 -7.121433e+01 1.124097e+00 -7.761912e+01 1.285227e+00 -8.394767e+01 1.436879e+00 -9.019183e+01 
9.447856e-01 -9.896235e+01 1.040260e+00 -1.053660e+02 1.075326e+00 1.067778e+02 1.244584e+00 1.005053e+02 1.361625e+00 9.420755e+01 1.464930e+00 8.782582e+01 1.573574e+00 8.130745e+01 1.647898e+00 7.458669e+01 1.475119e+00 6.751928e+01 1.394205e+00 6.041756e+01 1.281023e+00 5.333694e+01 1.132664e+00 4.623929e+01 1.113534e+00 3.919633e+01 1.184011e+00 3.219384e+01 1.178689e+00 2.518089e+01 1.034646e+00 1.808878e+01 9.869438e-01 1.100845e+01 1.046475e+00 3.962946e+00 1.049207e+00 -3.076750e+00 9.064895e-01 -1.016451e+01 8.470418e-01 -1.720554e+01 8.670187e-01 -2.421580e+01 7.575030e-01 -3.126626e+01 3.791851e-01 -3.847091e+01 6.700987e-02 -4.564091e+01 7.877485e-02 -5.257653e+01 1.230349e-01 -5.933737e+01 2.165612e-01 -6.604535e+01 3.506778e-01 -7.272673e+01 5.044489e-01 -7.937182e+01 6.625759e-01 -8.596556e+01 8.133685e-01 -9.249708e+01 
1.193808e+00 -9.885500e+01 1.196353e+00 -1.055315e+02 1.128171e+00 1.076844e+02 1.338256e+00 1.011068e+02 1.487945e+00 9.457155e+01 1.613163e+00 8.801448e+01 1.731196e+00 8.138029e+01 1.805295e+00 7.462106e+01 1.647091e+00 6.761040e+01 1.506632e+00 6.055194e+01 1.344189e+00 5.348439e+01 1.195986e+00 4.639562e+01 1.182505e+00 3.938750e+01 1.246345e+00 3.241916e+01 1.253299e+00 2.541117e+01 1.174697e+00 1.832854e+01 1.182557e+00 1.129708e+01 1.260055e+00 4.309322e+00 1.281342e+00 -2.702870e+00 1.203708e+00 -9.771199e+00 1.198921e+00 -1.677138e+01 1.241490e+00 -2.374130e+01 1.164510e+00 -3.078516e+01 8.855341e-01 -3.797930e+01 6.570401e-01 -4.510387e+01 6.375640e-01 -5.206369e+01 6.860502e-01 -5.882761e+01 7.648010e-01 -6.552937e+01 8.662234e-01 -7.221382e+01 9.719167e-01 -7.888661e+01 1.068358e+00 -8.554740e+01 1.145808e+00 -9.220000e+01 
5.616875e-01 -1.013351e+02 5.346525e-01 -1.083122e+02 4.233339e-01 1.097392e+02 7.340375e-01 1.028520e+02 9.692901e-01 9.603476e+01 1.163902e+00 8.922639e+01 1.340561e+00 8.237583e+01 1.487213e+00 7.543160e+01 1.429831e+00 6.822656e+01 1.284139e+00 6.103397e+01 1.138891e+00 5.384162e+01 1.041331e+00 4.663578e+01 1.048743e+00 3.953365e+01 1.095464e+00 3.248014e+01 1.081316e+00 2.539252e+01 9.911226e-01 1.821736e+01 9.715412e-01 1.110707e+01 9.943860e-01 4.045259e+00 9.717328e-01 -3.039953e+00 8.668246e-01 -1.020043e+01 8.261203e-01 -1.727795e+01 8.179192e-01 -2.431752e+01 7.115108e-01 -3.142295e+01 4.237430e-01 -3.874093e+01 1.879639e-01 -4.598568e+01 7.912318e-02 -5.305432e+01 1.224197e-01 -5.994400e+01 1.963603e-01 -6.681649e+01 2.877657e-01 -7.369928e+01 3.823073e-01 -8.059170e+01 4.680096e-01 -8.749164e+01 5.327393e-01 -9.440232e+01 
8.078338e-01 -1.012752e+02 6.946666e-01 -1.085006e+02 4.847876e-01 1.107080e+02 8.341297e-01 1.035471e+02 1.098186e+00 9.651434e+01 1.312256e+00 8.954819e+01 1.503967e+00 8.259365e+01 1.677526e+00 7.559461e+01 1.649122e+00 6.832781e+01 1.421597e+00 6.116023e+01 1.230573e+00 5.398326e+01 1.120860e+00 4.680764e+01 1.150384e+00 3.971735e+01 1.219237e+00 3.267920e+01 1.219950e+00 2.562948e+01 1.143106e+00 1.848694e+01 1.167862e+00 1.139026e+01 1.234481e+00 4.360450e+00 1.245159e+00 -2.666822e+00 1.157947e+00 -9.788842e+00 1.162551e+00 -1.685490e+01 1.213476e+00 -2.386754e+01 1.161870e+00 -3.091194e+01 8.850954e-01 -3.824483e+01 6.473006e-01 -4.559240e+01 5.756573e-01 -5.256783e+01 6.227256e-01 -5.942841e+01 6.905440e-01 -6.630381e+01 7.610590e-01 -7.320873e+01 8.185472e-01 -8.014674e+01 8.529090e-01 -8.712597e+01 8.538992e-01 -9.416119e+01 
1.838555e-01 -1.036058e+02 3.595868e-02 -1.110989e+02 -2.214961e-01 1.126278e+02 2.178090e-01 1.051891e+02 5.562515e-01 9.790376e+01 8.283075e-01 9.072276e+01 1.068805e+00 8.362603e+01 1.339059e+00 7.664999e+01 1.698191e+00 6.879307e+01 1.140393e+00 6.159531e+01 8.599523e-01 5.434193e+01 9.058341e-01 4.701785e+01 1.017571e+00 3.982326e+01 1.030165e+00 3.272140e+01 9.680447e-01 2.567108e+01 9.315619e-01 1.837246e+01 9.892087e-01 1.115595e+01 9.486787e-01 4.070984e+00 8.834732e-01 -2.944418e+00 8.185986e-01 -1.022319e+01 8.469312e-01 -1.738787e+01 8.266619e-01 -2.444076e+01 7.602070e-01 -3.137632e+01 4.709486e-01 -3.898390e+01 3.738048e-01 -4.680152e+01 -2.165339e-01 -5.356631e+01 1.323675e-02 -6.051284e+01 1.344296e-01 -6.755603e+01 2.090137e-01 -7.464731e+01 2.555519e-01 -8.178522e+01 2.741503e-01 -8.897890e+01 2.555553e-01 -9.624429e+01 
4.325994e-01 -1.035366e+02 2.067714e-01 -1.112500e+02 -1.409029e-01 1.135868e+02 3.331189e-01 1.059088e+02 6.955381e-01 9.843595e+01 9.800803e-01 9.112812e+01 1.220446e+00 8.398470e+01 1.487670e+00 7.706395e+01 1.892045e+00 6.893544e+01 1.313277e+00 6.174192e+01 1.014889e+00 5.452599e+01 1.081773e+00 4.718879e+01 1.197895e+00 3.998777e+01 1.210361e+00 3.290992e+01 1.153511e+00 2.592991e+01 1.144272e+00 1.863644e+01 1.243929e+00 1.142871e+01 1.216637e+00 4.376331e+00 1.164898e+00 -2.562758e+00 1.137964e+00 -9.828056e+00 1.229094e+00 -1.696986e+01 1.245202e+00 -2.399590e+01 1.210791e+00 -3.082964e+01 9.409320e-01 -3.847075e+01 9.453326e-01 -4.639099e+01 1.102598e-01 -5.300000e+01 4.365481e-01 -5.995625e+01 5.872770e-01 -6.702997e+01 6.535242e-01 -7.415821e+01 6.706966e-01 -8.134982e+01 6.454890e-01 -8.862490e+01 5.711352e-01 -9.600933e+01 
-1.756068e-01 -1.057054e+02 -4.371693e-01 -1.136538e+02 -8.299038e-01 1.153385e+02 -2.770367e-01 1.074130e+02 1.537370e-01 9.970652e+01 4.953773e-01 9.217148e+01 7.765963e-01 8.477560e+01 1.024269e+00 7.748316e+01 1.160084e+00 6.963180e+01 1.030681e+00 6.222549e+01 9.148105e-01 5.486584e+01 9.027933e-01 4.746864e+01 9.547563e-01 4.017490e+01 9.984951e-01 3.298379e+01 9.836038e-01 2.582610e+01 9.236479e-01 1.852444e+01 9.415920e-01 1.127999e+01 9.381508e-01 4.131363e+00 8.963485e-01 -2.988191e+00 8.084149e-01 -1.025630e+01 8.118140e-01 -1.745551e+01 8.102472e-01 -2.459549e+01 7.367236e-01 -3.171357e+01 4.777285e-01 -3.923414e+01 3.283053e-01 -4.683923e+01 -6.959612e-02 -5.391048e+01 4.748259e-02 -6.104321e+01 1.161040e-01 -6.825884e+01 1.447243e-01 -7.554497e+01 1.371619e-01 -8.291059e+01 8.977438e-02 -9.037395e+01 -8.488641e-03 -9.796070e+01 
8.214777e-02 -1.055830e+02 -2.478071e-01 -1.137216e+02 -7.188507e-01 1.162247e+02 -1.372969e-01 1.080904e+02 3.151405e-01 1.002101e+02 6.725054e-01 9.252978e+01 9.650033e-01 8.499502e+01 1.210184e+00 7.752481e+01 1.252033e+00 6.989720e+01 1.210230e+00 6.242538e+01 1.136364e+00 5.502726e+01 1.091517e+00 4.765311e+01 1.127162e+00 4.039524e+01 1.187820e+00 3.321029e+01 1.198573e+00 2.602764e+01 1.149200e+00 1.878085e+01 1.167180e+00 1.160085e+01 1.207030e+00 4.476327e+00 1.203899e+00 -2.656938e+00 1.135802e+00 -9.866090e+00 1.138592e+00 -1.701564e+01 1.166275e+00 -2.414114e+01 1.114532e+00 -3.132074e+01 9.066601e-01 -3.873083e+01 7.228462e-01 -4.611721e+01 5.743860e-01 -5.334048e+01 5.779326e-01 -6.050220e+01 5.916045e-01 -6.773223e+01 5.856852e-01 -7.504703e+01 5.439544e-01 -8.246143e+01 4.558037e-01 -8.999931e+01 3.080764e-01 -9.769280e+01 
-5.046665e-01 -1.075803e+02 -8.689875e-01 -1.159211e+02 -1.382152e+00 1.177814e+02 -7.328404e-01 1.094313e+02 -2.223192e-01 1.013430e+02 1.805599e-01 9.345955e+01 5.000781e-01 8.572372e+01 7.445416e-01 7.806963e+01 8.440877e-01 7.041861e+01 8.771552e-01 6.284859e+01 8.745678e-01 5.534634e+01 8.680284e-01 4.789540e+01 9.015843e-01 4.054503e+01 9.439143e-01 3.325549e+01 9.480569e-01 2.597213e+01 9.098919e-01 1.866813e+01 9.023074e-01 1.141975e+01 9.053286e-01 4.206911e+00 8.776670e-01 -3.019935e+00 8.075512e-01 -1.028776e+01 7.697736e-01 -1.751588e+01 7.425556e-01 -2.473848e+01 6.609828e-01 -3.202106e+01 4.852691e-01 -3.943811e+01 3.214031e-01 -4.684466e+01 2.110890e-01 -5.420846e+01 1.728536e-01 -6.152753e+01 1.442488e-01 -6.890203e+01 1.043507e-01 -7.636268e+01 3.550175e-02 -8.393116e+01 -7.708032e-02 -9.163336e+01 -2.500256e-01 -9.950231e+01 
-2.321680e-01 -1.073703e+02 -6.550957e-01 -1.158698e+02 -1.234916e+00 1.185463e+02 -5.638337e-01 1.100205e+02 -3.737873e-02 1.017835e+02 3.749708e-01 9.377680e+01 6.952415e-01 8.594304e+01 9.261078e-01 7.822749e+01 1.022065e+00 7.057966e+01 1.070743e+00 6.300520e+01 1.082154e+00 5.550360e+01 1.079796e+00 4.807092e+01 1.110158e+00 4.073262e+01 1.153879e+00 3.345395e+01 1.169568e+00 2.619062e+01 1.152905e+00 1.893003e+01 1.159763e+00 1.171528e+01 1.180330e+00 4.528180e+00 1.174979e+00 -2.669523e+00 1.134233e+00 -9.889708e+00 1.113680e+00 -1.708834e+01 1.100327e+00 -2.429271e+01 1.037976e+00 -3.155495e+01 9.028069e-01 -3.890480e+01 7.710709e-01 -4.626237e+01 6.997708e-01 -5.361699e+01 6.522007e-01 -6.095551e+01 6.022956e-01 -6.834815e+01 5.363328e-01 -7.583484e+01 4.373639e-01 -8.344512e+01 2.889443e-01 -9.121073e+01 7.311273e-02 -9.917002e+01 
-7.935934e-01 -1.091887e+02 -1.247641e+00 -1.178577e+02 -1.865479e+00 1.198904e+02 -1.136416e+00 1.111839e+02 -5.604017e-01 1.027733e+02 -1.082601e-01 9.460141e+01 2.414271e-01 8.661514e+01 4.966364e-01 7.876856e+01 6.444403e-01 7.102487e+01 7.381231e-01 6.336359e+01 7.916926e-01 5.577939e+01 8.224802e-01 4.826983e+01 8.602643e-01 4.084432e+01 8.958585e-01 3.347624e+01 9.064663e-01 2.613338e+01 8.918211e-01 1.880721e+01 8.833311e-01 1.151846e+01 8.766744e-01 4.251493e+00 8.496413e-01 -3.020986e+00 7.982705e-01 -1.030611e+01 7.524325e-01 -1.758196e+01 7.048952e-01 -2.486966e+01 6.241974e-01 -3.220588e+01 5.006958e-01 -3.960609e+01 3.805067e-01 -4.702975e+01 2.984518e-01 -5.447644e+01 2.317608e-01 -6.193509e+01 1.593702e-01 -6.945367e+01 6.984527e-02 -7.706960e+01 -5.184791e-02 -8.481434e+01 -2.225955e-01 -9.272126e+01 -4.618979e-01 -1.008299e+02 
-5.014816e-01 -1.088637e+02 -1.004373e+00 -1.176591e+02 -1.677787e+00 1.204976e+02 -9.341158e-01 1.116512e+02 -3.485165e-01 1.031231e+02 1.078545e-01 9.485715e+01 4.559802e-01 8.680164e+01 7.053607e-01 7.891208e+01 8.561944e-01 7.114874e+01 9.537025e-01 6.348511e+01 1.012523e+00 5.590987e+01 1.048882e+00 4.841764e+01 1.087778e+00 4.100851e+01 1.125341e+00 3.366024e+01 1.145119e+00 2.634652e+01 1.147264e+00 1.905811e+01 1.153449e+00 1.180314e+01 1.161207e+00 4.568678e+00 1.153031e+00 -2.666436e+00 1.125754e+00 -9.909470e+00 1.098870e+00 -1.715181e+01 1.066918e+00 -2.441003e+01 1.006353e+00 -3.171135e+01 9.122992e-01 -3.906610e+01 8.175277e-01 -4.645557e+01 7.476438e-01 -5.387867e+01 6.802903e-01 -6.133557e+01 5.986386e-01 -6.886225e+01 4.922321e-01 -7.649593e+01 3.473440e-01 -8.427197e+01 1.473245e-01 -9.222806e+01 -1.275852e-01 -1.004078e+02 
-1.034450e+00 -1.104980e+02 -1.563418e+00 -1.194302e+02 -2.268745e+00 1.216164e+02 -1.476022e+00 1.126256e+02 -8.480104e-01 1.039590e+02 -3.558536e-01 9.556231e+01 2.278040e-02 8.738609e+01 3.021927e-01 7.938810e+01 4.921507e-01 7.153110e+01 6.237254e-01 6.378549e+01 7.124247e-01 5.613501e+01 7.723746e-01 4.857024e+01 8.204780e-01 4.108482e+01 8.566939e-01 3.365999e+01 8.734897e-01 2.627506e+01 8.727151e-01 1.892041e+01 8.670666e-01 1.159604e+01 8.559017e-01 4.290227e+00 8.301889e-01 -3.013287e+00 7.890778e-01 -1.032188e+01 7.431415e-01 -1.763475e+01 6.894017e-01 -2.496580e+01 6.155655e-01 -3.233528e+01 5.209518e-01 -3.975257e+01 4.251551e-01 -4.721158e+01 3.421534e-01 -5.471570e+01 2.589209e-01 -6.226952e+01 1.608977e-01 -6.990151e+01 3.726195e-02 -7.764516e+01 -1.253719e-01 -8.553515e+01 -3.437439e-01 -9.360958e+01 -6.383532e-01 -1.019128e+02 
-7.184245e-01 -1.100365e+02 -1.286454e+00 -1.190622e+02 -2.036311e+00 1.220369e+02 -1.236494e+00 1.129427e+02 -6.052561e-01 1.041909e+02 -1.134513e-01 9.572803e+01 2.618925e-01 8.750499e+01 5.372497e-01 7.947836e+01 7.271872e-01 7.160886e+01 8.590343e-01 6.386579e+01 9.492564e-01 5.622899e+01 1.012056e+00 4.868502e+01 1.062043e+00 4.122320e+01 1.101454e+00 3.382597e+01 1.126164e+00 2.647471e+01 1.138025e+00 1.915823e+01 1.145548e+00 1.187176e+01 1.148305e+00 4.604279e+00 1.139580e+00 -2.658260e+00 1.118286e+00 -9.924475e+00 1.090538e+00 -1.719827e+01 1.053682e+00 -2.449194e+01 9.988843e-01 -3.182205e+01 9.260087e-01 -3.919835e+01 8.481409e-01 -4.662195e+01 7.738057e-01 -5.409797e+01 6.917770e-01 -6.163671e+01 5.889945e-01 -6.926419e+01 4.544103e-01 -7.701345e+01 2.749091e-01 -8.492100e+01 3.400981e-02 -9.302768e+01 -2.886966e-01 -1.013808e+02 
-1.220476e+00 -1.114840e+02 -1.807980e+00 -1.206138e+02 -2.581744e+00 1.229205e+02 -1.741621e+00 1.137179e+02 -1.074870e+00 1.048617e+02 -5.518504e-01 9.629923e+01 -1.482025e-01 8.798242e+01 1.551141e-01 7.986868e+01 3.750620e-01 7.191990e+01 5.336279e-01 6.410484e+01 6.464505e-01 5.640088e+01 7.263960e-01 4.879165e+01 7.848871e-01 4.126353e+01 8.256296e-01 3.379994e+01 8.483080e-01 2.638440e+01 8.555948e-01 1.900537e+01 8.532175e-01 1.165526e+01 8.417909e-01 4.323337e+00 8.184096e-01 -3.002601e+00 7.831933e-01 -1.033146e+01 7.397521e-01 -1.766977e+01 6.868999e-01 -2.502894e+01 6.203770e-01 -3.242302e+01 5.409918e-01 -3.986213e+01 4.562694e-01 -4.735184e+01 3.701000e-01 -5.490034e+01 2.746657e-01 -6.252001e+01 1.586641e-01 -7.023453e+01 1.090209e-02 -7.807452e+01 -1.819515e-01 -8.607529e+01 -4.366530e-01 -9.427733e+01 -7.741488e-01 -1.027281e+02 
-8.767205e-01 -1.108692e+02 -1.493513e+00 -1.200592e+02 -2.300615e+00 1.231307e+02 -1.461479e+00 1.138611e+02 -7.981952e-01 1.049518e+02 -2.805356e-01 9.635072e+01 1.166923e-01 8.800950e+01 4.140190e-01 7.988455e+01 6.301748e-01 7.193674e+01 7.860263e-01 6.413382e+01 8.975884e-01 5.645096e+01 9.778814e-01 4.886906e+01 1.037659e+00 4.137210e+01 1.081662e+00 3.394330e+01 1.111083e+00 2.656649e+01 1.128486e+00 1.922913e+01 1.137914e+00 1.192164e+01 1.139821e+00 4.633167e+00 1.132020e+00 -2.647942e+00 1.114145e+00 -9.931391e+00 1.087886e+00 -1.722544e+01 1.051879e+00 -2.454121e+01 1.002826e+00 -3.189164e+01 9.409097e-01 -3.928762e+01 8.704261e-01 -4.673763e+01 7.926285e-01 -5.425194e+01 7.001561e-01 -6.184577e+01 5.824073e-01 -6.954304e+01 4.280742e-01 -7.737466e+01 2.238003e-01 -8.537705e+01 -4.705267e-02 -9.359245e+01 -4.052740e-01 -1.020703e+02 
-1.346046e+00 -1.121296e+02 -1.974504e+00 -1.213906e+02 -2.796055e+00 1.237723e+02 -1.925514e+00 1.144302e+02 -1.233896e+00 1.054495e+02 -6.905155e-01 9.677854e+01 -2.692514e-01 8.836947e+01 5.153909e-02 8.017919e+01 2.909512e-01 7.216932e+01 4.676297e-01 6.430752e+01 5.965225e-01 5.656788e+01 6.896397e-01 4.892980e+01 7.564521e-01 4.137593e+01 8.022519e-01 3.388964e+01 8.298000e-01 2.645558e+01 8.421756e-01 1.906112e+01 8.428238e-01 1.169583e+01 8.329750e-01 4.348959e+00 8.122669e-01 -2.990456e+00 7.811783e-01 -1.033215e+01 7.410596e-01 -1.768519e+01 6.915042e-01 -2.506037e+01 6.310605e-01 -3.246976e+01 5.600703e-01 -3.992451e+01 4.805978e-01 -4.743484e+01 3.921652e-01 -5.501271e+01 2.885852e-01 -6.267420e+01 1.603223e-01 -7.044228e+01 -3.795362e-03 -7.834637e+01 -2.173111e-01 -8.642167e+01 -4.971617e-01 -9.470968e+01 -8.645791e-01 -1.032595e+02 
-9.713478e-01 -1.113485e+02 -1.619448e+00 -1.206365e+02 -2.463127e+00 1.237540e+02 -1.602314e+00 1.143809e+02 -9.214517e-01 1.053793e+02 -3.892396e-01 9.669765e+01 2.114028e-02 8.828776e+01 3.322380e-01 8.010592e+01 5.639259e-01 7.211310e+01 7.346616e-01 6.427610e+01 8.595698e-01 5.656766e+01 9.507895e-01 4.896557e+01 1.017703e+00 4.145103e+01 1.066086e+00 3.400687e+01 1.099289e+00 2.661751e+01 1.120261e+00 1.926970e+01 1.131700e+00 1.195212e+01 1.134553e+00 4.653743e+00 1.128458e+00 -2.636380e+00 1.113380e+00 -9.928413e+00 1.089678e+00 -1.723211e+01 1.056539e+00 -2.455833e+01 1.012437e+00 -3.191895e+01 9.569152e-01 -3.932573e+01 8.903194e-01 -4.679035e+01 8.108037e-01 -5.432635e+01 7.120863e-01 -6.195142e+01 5.848899e-01 -6.968932e+01 4.180493e-01 -7.757004e+01 1.980247e-01 -8.562966e+01 -9.200644e-02 -9.391079e+01 -4.730649e-01 -1.024638e+02 
-1.406958e+00 -1.124237e+02 -2.058036e+00 -1.217497e+02 -2.905693e+00 1.241506e+02 -2.022582e+00 1.147407e+02 -1.320898e+00 1.057003e+02 -7.691011e-01 9.697800e+01 -3.398985e-01 8.852587e+01 -1.039660e-02 8.030064e+01 2.390539e-01 7.226385e+01 4.257328e-01 6.438250e+01 5.638191e-01 5.662909e+01 6.646400e-01 4.898086e+01 7.369145e-01 4.141860e+01 7.865562e-01 3.392525e+01 8.175535e-01 2.648566e+01 8.332152e-01 1.908678e+01 8.363356e-01 1.171718e+01 8.284910e-01 4.366015e+00 8.103483e-01 -2.977248e+00 7.825720e-01 -1.032262e+01 7.458383e-01 -1.767995e+01 7.000287e-01 -2.505989e+01 6.444817e-01 -3.247390e+01 5.788434e-01 -3.993377e+01 5.026807e-01 -4.745181e+01 4.136000e-01 -5.504222e+01 3.058332e-01 -6.272287e+01 1.707455e-01 -7.051679e+01 -2.585389e-03 -7.845281e+01 -2.277412e-01 -8.656575e+01 -5.217409e-01 -9.489722e+01 -9.059275e-01 -1.034968e+02 
-9.988608e-01 -1.114669e+02 -1.660221e+00 -1.207864e+02 -2.519003e+00 1.238906e+02 -1.654998e+00 1.144858e+02 -9.720057e-01 1.054568e+02 -4.379654e-01 9.675221e+01 -2.508207e-02 8.832387e+01 2.900886e-01 8.012810e+01 5.276190e-01 7.212599e+01 7.048672e-01 6.428396e+01 8.361359e-01 5.657370e+01 9.328510e-01 4.897156e+01 1.003771e+00 4.145749e+01 1.055008e+00 3.401402e+01 1.090716e+00 2.662574e+01 1.114029e+00 1.927926e+01 1.127291e+00 1.196278e+01 1.131725e+00 4.665274e+00 1.127698e+00 -2.623833e+00 1.115358e+00 -9.914725e+00 1.094696e+00 -1.721750e+01 1.065086e+00 -2.454288e+01 1.025436e+00 -3.190237e+01 9.746675e-01 -3.930813e+01 9.113260e-01 -4.677326e+01 8.322161e-01 -5.431300e+01 7.313435e-01 -6.194618e+01 6.001361e-01 -6.969659e+01 4.277371e-01 -7.759359e+01 2.006659e-01 -8.567264e+01 -9.789829e-02 -9.397607e+01 -4.889905e-01 -1.025542e+02 
-1.400729e+00 -1.123615e+02 -2.055763e+00 -1.216858e+02 -2.907369e+00 1.240438e+02 -2.030277e+00 1.146379e+02 -1.334150e+00 1.056025e+02 -7.869349e-01 9.688608e+01 -3.607077e-01 8.844075e+01 -3.209674e-02 8.022327e+01 2.185236e-01 7.219535e+01 4.076481e-01 6.432389e+01 5.487288e-01 5.658092e+01 6.524595e-01 4.894295e+01 7.270805e-01 4.139012e+01 7.786148e-01 3.390532e+01 8.114446e-01 2.647364e+01 8.289622e-01 1.908209e+01 8.337908e-01 1.171915e+01 8.276874e-01 4.374167e+00 8.117365e-01 -2.963028e+00 7.867113e-01 -1.030229e+01 7.531033e-01 -1.765351e+01 7.108726e-01 -2.502709e+01 6.594946e-01 -3.243420e+01 5.981150e-01 -3.988681e+01 5.251724e-01 -4.739807e+01 4.374618e-01 -5.498319e+01 3.293739e-01 -6.266068e+01 1.928144e-01 -7.045345e+01 1.722443e-02 -7.838964e+01 -2.107806e-01 -8.650334e+01 -5.080769e-01 -9.483551e+01 -8.958775e-01 -1.034353e+02 