# vtk DataFile Version 2.0
Comment goes here
ASCII

DATASET STRUCTURED_POINTS
FIELD FieldData 1
TIME 1 1 double
0.01900000
DIMENSIONS    64   64   1

ORIGIN    0.000   0.000   0.000
SPACING   0.03125 0.03125   1.000

POINT_DATA   4096
SCALARS P double
LOOKUP_TABLE default

-2.756303e+01 -1.841956e+02 -3.680145e+01 -1.834147e+02 -3.355594e+01 1.204202e+02 -4.026727e+01 1.114292e+02 -3.704521e+01 9.664222e+01 -2.713052e+01 7.659676e+01 -1.556592e+01 5.763054e+01 -9.877836e+00 4.499466e+01 -8.759239e+00 3.259833e+01 -9.594189e+00 2.414498e+01 -1.661601e+01 1.801111e+01 -2.121165e+01 7.851917e+00 -2.580776e+01 2.176533e+00 -3.765654e+01 8.204277e-01 -4.735930e+01 -9.951079e+00 -4.520303e+01 -2.839687e+01 -4.160832e+01 -3.920003e+01 -4.751034e+01 -4.622345e+01 -5.277437e+01 -5.205780e+01 -5.803966e+01 -5.916292e+01 -6.155479e+01 -6.695984e+01 -6.302478e+01 -8.041388e+01 -5.684873e+01 -9.861240e+01 -4.936861e+01 -1.126048e+02 -4.807850e+01 -1.219212e+02 -4.944692e+01 -1.243055e+02 -6.298824e+01 -1.137686e+02 -8.027245e+01 -1.091659e+02 -8.450255e+01 -1.191689e+02 -7.772540e+01 -1.321156e+02 -6.815211e+01 -1.462223e+02 -5.471634e+01 -1.691559e+02 
-3.672218e+00 -1.232363e+02 -1.071255e+01 -1.229726e+02 -7.744124e+00 1.042626e+02 -1.338081e+01 9.878068e+01 -1.260449e+01 9.052351e+01 -8.451962e+00 7.927880e+01 -3.289680e+00 6.825807e+01 -1.137520e+00 6.043704e+01 -1.070612e+00 5.202423e+01 -1.377879e+00 4.539259e+01 -4.916228e+00 3.974851e+01 -6.554109e+00 3.143818e+01 -8.026437e+00 2.563169e+01 -1.364507e+01 2.245960e+01 -1.831414e+01 1.398590e+01 -1.638129e+01 1.317217e+00 -1.391835e+01 -6.948068e+00 -1.676419e+01 -1.345125e+01 -1.897697e+01 -1.945887e+01 -2.113098e+01 -2.637177e+01 -2.237129e+01 -3.336712e+01 -2.298105e+01 -4.318407e+01 -1.955422e+01 -5.542668e+01 -1.559794e+01 -6.541098e+01 -1.482155e+01 -7.334442e+01 -1.459551e+01 -7.822165e+01 -2.075385e+01 -7.586017e+01 -2.919211e+01 -7.644657e+01 -3.099630e+01 -8.440141e+01 -2.769070e+01 -9.280566e+01 -2.392116e+01 -1.009265e+02 -1.850166e+01 -1.142014e+02 
5.291713e+00 -8.746756e+01 3.256789e+00 -8.913875e+01 4.566577e+00 9.335158e+01 2.471401e+00 9.044995e+01 2.006367e+00 8.656334e+01 1.956688e+00 8.161859e+01 2.132498e+00 7.615280e+01 1.894322e+00 7.087102e+01 1.497847e+00 6.491175e+01 1.399124e+00 5.894440e+01 8.083867e-01 5.288416e+01 8.705674e-01 4.602145e+01 1.032126e+00 3.957601e+01 3.662227e-01 3.368774e+01 -2.862552e-01 2.677061e+01 2.724046e-01 1.905613e+01 8.289448e-01 1.217215e+01 4.664176e-01 5.360643e+00 4.167951e-01 -1.484188e+00 4.555657e-01 -8.638362e+00 7.165979e-01 -1.565947e+01 8.721631e-01 -2.295617e+01 1.610002e+00 -3.049113e+01 2.304586e+00 -3.757151e+01 2.541776e+00 -4.447168e+01 3.175494e+00 -5.112624e+01 2.825294e+00 -5.629960e+01 1.942575e+00 -6.160820e+01 1.927731e+00 -6.769841e+01 2.385560e+00 -7.306191e+01 2.389751e+00 -7.765666e+01 2.522723e+00 -8.321602e+01 
3.848942e+00 -8.747415e+01 3.106487e+00 -8.998004e+01 2.550138e+00 9.365590e+01 2.134273e+00 9.045735e+01 1.871529e+00 8.615912e+01 1.993088e+00 8.097136e+01 2.299912e+00 7.535212e+01 2.348373e+00 6.970715e+01 2.144032e+00 6.375934e+01 1.894572e+00 5.776843e+01 1.409076e+00 5.166082e+01 1.141861e+00 4.519064e+01 8.541989e-01 3.888199e+01 2.104036e-01 3.270754e+01 -2.958484e-01 2.586810e+01 -8.057988e-02 1.851336e+01 2.224540e-01 1.150146e+01 8.231405e-02 4.701365e+00 -7.074135e-02 -2.066751e+00 -1.382081e-01 -9.023507e+00 -1.228084e-02 -1.608323e+01 2.664918e-01 -2.339863e+01 9.271494e-01 -3.085236e+01 1.593739e+00 -3.801598e+01 1.942622e+00 -4.477869e+01 2.131650e+00 -5.092542e+01 1.650104e+00 -5.611702e+01 8.832445e-01 -6.130416e+01 6.861350e-01 -6.698092e+01 1.018791e+00 -7.250393e+01 1.464032e+00 -7.773955e+01 2.267804e+00 -8.311910e+01 
3.571619e+00 -8.729589e+01 3.170604e+00 -9.026207e+01 2.984256e+00 9.397297e+01 2.600976e+00 9.068173e+01 2.291706e+00 8.655815e+01 2.161151e+00 8.172321e+01 2.119512e+00 7.642598e+01 1.959521e+00 7.088688e+01 1.688235e+00 6.494699e+01 1.462638e+00 5.886617e+01 1.176754e+00 5.262482e+01 1.044102e+00 4.608308e+01 9.471330e-01 3.956032e+01 6.631534e-01 3.309361e+01 4.176061e-01 2.627089e+01 5.180222e-01 1.913754e+01 6.840534e-01 1.214553e+01 6.440344e-01 5.222245e+00 6.327227e-01 -1.720988e+00 6.791619e-01 -8.784494e+00 8.458859e-01 -1.587175e+01 1.077152e+00 -2.302081e+01 1.470113e+00 -3.018559e+01 1.849865e+00 -3.717615e+01 2.084361e+00 -4.397507e+01 2.322624e+00 -5.040536e+01 2.260667e+00 -5.624311e+01 2.035554e+00 -6.193893e+01 2.048832e+00 -6.769094e+01 2.252819e+00 -7.312858e+01 2.438957e+00 -7.819461e+01 2.777052e+00 -8.313583e+01 
2.753582e+00 -8.774761e+01 2.725967e+00 -9.115820e+01 2.657803e+00 9.431508e+01 2.306839e+00 9.073718e+01 2.125233e+00 8.632495e+01 2.137756e+00 8.126658e+01 2.244019e+00 7.579583e+01 2.255380e+00 7.007362e+01 2.059247e+00 6.400875e+01 1.799283e+00 5.789193e+01 1.484156e+00 5.167503e+01 1.178142e+00 4.525620e+01 8.883574e-01 3.878305e+01 5.412505e-01 3.227720e+01 2.544032e-01 2.551537e+01 1.923844e-01 1.849658e+01 2.449191e-01 1.150489e+01 2.165994e-01 4.616194e+00 1.437624e-01 -2.253304e+00 1.040391e-01 -9.240187e+00 2.113606e-01 -1.631843e+01 4.501313e-01 -2.344446e+01 8.033960e-01 -3.055316e+01 1.139904e+00 -3.751944e+01 1.317624e+00 -4.424959e+01 1.389927e+00 -5.046886e+01 1.247899e+00 -5.619904e+01 1.023726e+00 -6.179092e+01 9.978330e-01 -6.743194e+01 1.217484e+00 -7.296637e+01 1.590668e+00 -7.828976e+01 2.129704e+00 -8.335703e+01 
2.933194e+00 -8.836144e+01 2.928467e+00 -9.218067e+01 2.936220e+00 9.556042e+01 2.629029e+00 9.169722e+01 2.402674e+00 8.724063e+01 2.280007e+00 8.227748e+01 2.220878e+00 7.693154e+01 2.130527e+00 7.128094e+01 1.856881e+00 6.511398e+01 1.595255e+00 5.894171e+01 1.388811e+00 5.265484e+01 1.186186e+00 4.612985e+01 1.064018e+00 3.949386e+01 9.240180e-01 3.284896e+01 7.683113e-01 2.607415e+01 7.018747e-01 1.908529e+01 7.592217e-01 1.205660e+01 7.948219e-01 5.098104e+00 7.842735e-01 -1.843670e+00 7.820643e-01 -8.905392e+00 9.173054e-01 -1.602144e+01 1.119778e+00 -2.307736e+01 1.340249e+00 -3.005915e+01 1.548486e+00 -3.697764e+01 1.656254e+00 -4.385877e+01 1.770919e+00 -5.027280e+01 1.853503e+00 -5.633255e+01 1.884527e+00 -6.222290e+01 1.977075e+00 -6.800567e+01 2.143748e+00 -7.357482e+01 2.344532e+00 -7.887239e+01 2.610742e+00 -8.387793e+01 
2.248869e+00 -8.902530e+01 2.372963e+00 -9.317158e+01 2.419083e+00 9.596980e+01 2.262210e+00 9.182513e+01 2.171615e+00 8.712313e+01 2.185010e+00 8.196880e+01 2.275330e+00 7.648977e+01 2.355279e+00 7.074151e+01 2.071277e+00 6.429872e+01 1.763625e+00 5.810361e+01 1.538682e+00 5.187457e+01 1.199855e+00 4.538384e+01 9.981739e-01 3.872627e+01 8.144860e-01 3.209231e+01 5.677095e-01 2.540879e+01 3.553368e-01 1.846651e+01 3.683043e-01 1.141641e+01 3.969856e-01 4.499984e+00 3.108923e-01 -2.334669e+00 1.987502e-01 -9.358240e+00 3.162135e-01 -1.650173e+01 5.168441e-01 -2.352035e+01 6.858374e-01 -3.040109e+01 8.552245e-01 -3.726023e+01 8.493699e-01 -4.426185e+01 8.489344e-01 -5.048557e+01 9.178013e-01 -5.641674e+01 9.598389e-01 -6.223670e+01 1.060119e+00 -6.800009e+01 1.263228e+00 -7.365066e+01 1.555082e+00 -7.911304e+01 1.911556e+00 -8.429790e+01 
2.580394e+00 -9.009037e+01 2.659010e+00 -9.463952e+01 2.699882e+00 9.782350e+01 2.535023e+00 9.331330e+01 2.400483e+00 8.843134e+01 2.332229e+00 8.321952e+01 2.342915e+00 7.775590e+01 2.444773e+00 7.211830e+01 2.086225e+00 6.528142e+01 1.672934e+00 5.912468e+01 1.573090e+00 5.289987e+01 1.246950e+00 4.630236e+01 1.230313e+00 3.945079e+01 1.202062e+00 3.271572e+01 1.002924e+00 2.607156e+01 7.629899e-01 1.909241e+01 8.879240e-01 1.191051e+01 9.897897e-01 4.935531e+00 8.993437e-01 -1.863853e+00 7.482279e-01 -8.952835e+00 9.497956e-01 -1.622269e+01 1.138259e+00 -2.323076e+01 1.195612e+00 -3.000213e+01 1.346680e+00 -3.681334e+01 1.305644e+00 -4.430021e+01 1.200446e+00 -5.046656e+01 1.484890e+00 -5.658439e+01 1.671050e+00 -6.261570e+01 1.833757e+00 -6.853726e+01 2.006022e+00 -7.429636e+01 2.191257e+00 -7.984667e+01 2.392208e+00 -8.514184e+01 
1.932249e+00 -9.087166e+01 2.071007e+00 -9.570323e+01 2.151631e+00 9.827117e+01 2.114361e+00 9.348991e+01 2.100500e+00 8.838244e+01 2.149262e+00 8.300901e+01 2.296898e+00 7.750496e+01 2.679897e+00 7.211684e+01 2.308992e+00 6.432676e+01 1.636358e+00 5.833917e+01 1.640298e+00 5.232265e+01 1.106201e+00 4.569846e+01 1.174319e+00 3.865560e+01 1.156976e+00 3.193588e+01 7.666981e-01 2.554791e+01 3.100653e-01 1.856694e+01 5.643144e-01 1.120606e+01 6.954948e-01 4.279759e+00 4.182750e-01 -2.242878e+00 7.710142e-02 -9.338985e+00 4.250961e-01 -1.679974e+01 6.178846e-01 -2.375274e+01 4.805292e-01 -3.026702e+01 7.225555e-01 -3.683649e+01 6.752604e-01 -4.510753e+01 6.589360e-02 -5.072300e+01 5.940460e-01 -5.673427e+01 8.377754e-01 -6.274226e+01 1.020719e+00 -6.868665e+01 1.221578e+00 -7.452816e+01 1.455453e+00 -8.021753e+01 1.707272e+00 -8.569256e+01 
2.315175e+00 -9.219454e+01 2.396801e+00 -9.742517e+01 2.438500e+00 1.005042e+02 2.375740e+00 9.533369e+01 2.319126e+00 8.997084e+01 2.301379e+00 8.443403e+01 2.357211e+00 7.880136e+01 2.591319e+00 7.322667e+01 2.272887e+00 6.559981e+01 1.726484e+00 5.943689e+01 1.731827e+00 5.326118e+01 1.325786e+00 4.654581e+01 1.413697e+00 3.947006e+01 1.440478e+00 3.267505e+01 1.162323e+00 2.615146e+01 8.139473e-01 1.912473e+01 1.047266e+00 1.178305e+01 1.180500e+00 4.806739e+00 9.766246e-01 -1.850979e+00 7.121020e-01 -8.987737e+00 1.017295e+00 -1.640455e+01 1.182792e+00 -2.337854e+01 1.062630e+00 -2.999744e+01 1.247111e+00 -3.668350e+01 1.202233e+00 -4.476154e+01 7.010169e-01 -5.070385e+01 1.207526e+00 -5.692262e+01 1.487199e+00 -6.311979e+01 1.686634e+00 -6.923193e+01 1.860065e+00 -7.522526e+01 2.024625e+00 -8.107072e+01 2.181606e+00 -8.673873e+01 
1.683942e+00 -9.303570e+01 1.798747e+00 -9.852184e+01 1.868813e+00 1.009469e+02 1.913570e+00 9.551558e+01 1.956535e+00 8.992208e+01 2.022200e+00 8.416823e+01 2.118260e+00 7.827340e+01 2.214654e+00 7.219975e+01 1.931153e+00 6.530882e+01 1.700755e+00 5.885292e+01 1.582650e+00 5.242603e+01 1.285780e+00 4.575335e+01 1.159795e+00 3.888583e+01 1.081770e+00 3.209098e+01 8.933858e-01 2.536960e+01 6.293648e-01 1.843153e+01 6.084605e-01 1.133673e+01 6.415400e-01 4.370137e+00 5.483631e-01 -2.477342e+00 3.752283e-01 -9.507068e+00 4.427912e-01 -1.665797e+01 5.587713e-01 -2.362852e+01 5.763377e-01 -3.042195e+01 5.817229e-01 -3.725624e+01 4.257328e-01 -4.444671e+01 4.143589e-01 -5.083315e+01 6.081545e-01 -5.711013e+01 7.939020e-01 -6.332614e+01 9.689773e-01 -6.948080e+01 1.148383e+00 -7.555768e+01 1.336130e+00 -8.153067e+01 1.522125e+00 -8.736757e+01 
2.083344e+00 -9.449286e+01 2.143275e+00 -1.003646e+02 2.164773e+00 1.033968e+02 2.181660e+00 9.757944e+01 2.189347e+00 9.169523e+01 2.209952e+00 8.571942e+01 2.253408e+00 7.963505e+01 2.291769e+00 7.338313e+01 2.060635e+00 6.657089e+01 1.834932e+00 5.998630e+01 1.707495e+00 5.340742e+01 1.503956e+00 4.662409e+01 1.430141e+00 3.971495e+01 1.382933e+00 3.286130e+01 1.247751e+00 2.602581e+01 1.084308e+00 1.901045e+01 1.088115e+00 1.190541e+01 1.119544e+00 4.902992e+00 1.053798e+00 -2.045080e+00 9.566935e-01 -9.142177e+00 1.019915e+00 -1.629249e+01 1.105579e+00 -2.328821e+01 1.117573e+00 -3.017242e+01 1.134706e+00 -3.710135e+01 1.061336e+00 -4.424115e+01 1.053359e+00 -5.086679e+01 1.222770e+00 -5.732859e+01 1.406565e+00 -6.372013e+01 1.574637e+00 -7.004644e+01 1.726700e+00 -7.629760e+01 1.864813e+00 -8.246181e+01 1.986666e+00 -8.852873e+01 
1.465336e+00 -9.534880e+01 1.543046e+00 -1.014525e+02 1.580061e+00 1.037965e+02 1.687355e+00 9.773676e+01 1.776395e+00 9.163723e+01 1.862052e+00 8.546586e+01 1.940796e+00 7.919549e+01 1.968167e+00 7.277148e+01 1.808085e+00 6.605318e+01 1.645981e+00 5.939147e+01 1.504668e+00 5.272608e+01 1.316192e+00 4.594491e+01 1.184582e+00 3.908585e+01 1.080204e+00 3.223726e+01 9.357399e-01 2.537437e+01 7.731219e-01 1.840545e+01 7.022043e-01 1.138310e+01 6.726538e-01 4.405869e+00 6.035593e-01 -2.554124e+00 5.145091e-01 -9.591577e+00 5.138693e-01 -1.665021e+01 5.539702e-01 -2.362060e+01 5.620860e-01 -3.052096e+01 5.382586e-01 -3.742991e+01 4.726789e-01 -4.437753e+01 5.117382e-01 -5.104609e+01 6.245239e-01 -5.754800e+01 7.664479e-01 -6.397388e+01 9.158365e-01 -7.035256e+01 1.066574e+00 -7.668676e+01 1.214632e+00 -8.296943e+01 1.351796e+00 -8.919149e+01 
1.869629e+00 -9.685431e+01 1.897988e+00 -1.033214e+02 1.886649e+00 1.063478e+02 1.969044e+00 9.992160e+01 2.030469e+00 9.352765e+01 2.086132e+00 8.712173e+01 2.136049e+00 8.066328e+01 2.141798e+00 7.409476e+01 1.989284e+00 6.727963e+01 1.830737e+00 6.051345e+01 1.704620e+00 5.373971e+01 1.558038e+00 4.686064e+01 1.471090e+00 3.992155e+01 1.406321e+00 3.299779e+01 1.304778e+00 2.605674e+01 1.191728e+00 1.901944e+01 1.156706e+00 1.194323e+01 1.149327e+00 4.910963e+00 1.103245e+00 -2.113520e+00 1.043021e+00 -9.209959e+00 1.056023e+00 -1.631608e+01 1.095166e+00 -2.333957e+01 1.103995e+00 -3.031133e+01 1.092025e+00 -3.730412e+01 1.050380e+00 -4.433618e+01 1.088081e+00 -5.114223e+01 1.202557e+00 -5.779654e+01 1.342385e+00 -6.438395e+01 1.480807e+00 -7.093288e+01 1.607230e+00 -7.745006e+01 1.717334e+00 -8.393799e+01 1.806934e+00 -9.040187e+01 
1.264073e+00 -9.768646e+01 1.299619e+00 -1.043616e+02 1.292826e+00 1.066710e+02 1.451565e+00 1.000271e+02 1.581078e+00 9.344379e+01 1.694652e+00 8.687799e+01 1.794415e+00 8.029456e+01 1.854270e+00 7.364661e+01 1.740139e+00 6.671416e+01 1.571427e+00 5.991611e+01 1.452371e+00 5.313165e+01 1.294711e+00 4.623397e+01 1.203914e+00 3.928564e+01 1.113543e+00 3.237880e+01 9.734125e-01 2.547033e+01 8.279488e-01 1.845173e+01 7.786439e-01 1.139615e+01 7.398795e-01 4.404946e+00 6.544044e-01 -2.569664e+00 5.654106e-01 -9.636609e+00 5.683775e-01 -1.671682e+01 5.787115e-01 -2.369819e+01 5.545226e-01 -3.062461e+01 5.394211e-01 -3.758046e+01 4.923736e-01 -4.463109e+01 4.768023e-01 -5.140118e+01 5.906535e-01 -5.805067e+01 7.259180e-01 -6.466421e+01 8.589634e-01 -7.126478e+01 9.840113e-01 -7.786066e+01 1.097545e+00 -8.445694e+01 1.193712e+00 -9.106078e+01 
1.670549e+00 -9.917740e+01 1.662665e+00 -1.061880e+02 1.611042e+00 1.092385e+02 1.748750e+00 1.022565e+02 1.856329e+00 9.539228e+01 1.949504e+00 8.859794e+01 2.037765e+00 8.183206e+01 2.109291e+00 7.504137e+01 1.979818e+00 6.793284e+01 1.793964e+00 6.103818e+01 1.700371e+00 5.416666e+01 1.555020e+00 4.717329e+01 1.511610e+00 4.012400e+01 1.464084e+00 3.313709e+01 1.350869e+00 2.617146e+01 1.224374e+00 1.908347e+01 1.220223e+00 1.194736e+01 1.214839e+00 4.894947e+00 1.143839e+00 -2.121779e+00 1.059079e+00 -9.251311e+00 1.088020e+00 -1.641175e+01 1.111094e+00 -2.345701e+01 1.088087e+00 -3.043717e+01 1.084143e+00 -3.747029e+01 1.028956e+00 -4.469988e+01 1.007545e+00 -5.154453e+01 1.134318e+00 -5.831659e+01 1.271630e+00 -6.507895e+01 1.395488e+00 -7.184524e+01 1.500160e+00 -7.862408e+01 1.583378e+00 -8.542658e+01 1.641904e+00 -9.226934e+01 
1.077426e+00 -9.995228e+01 1.069258e+00 -1.071457e+02 1.014013e+00 1.094534e+02 1.216004e+00 1.022804e+02 1.380092e+00 9.525257e+01 1.522510e+00 8.832948e+01 1.663949e+00 8.149760e+01 1.856264e+00 7.479717e+01 1.800922e+00 6.722803e+01 1.438779e+00 6.041662e+01 1.410908e+00 5.363567e+01 1.209849e+00 4.659640e+01 1.249682e+00 3.945668e+01 1.194229e+00 3.250077e+01 9.880516e-01 2.566049e+01 7.908386e-01 1.855827e+01 8.725847e-01 1.135678e+01 8.505339e-01 4.364258e+00 6.796686e-01 -2.507729e+00 5.285095e-01 -9.644490e+00 6.432367e-01 -1.687061e+01 6.336436e-01 -2.385277e+01 5.086131e-01 -3.070560e+01 5.682312e-01 -3.762565e+01 5.719991e-01 -4.523544e+01 2.534232e-01 -5.183262e+01 5.156896e-01 -5.857464e+01 6.801809e-01 -6.536135e+01 8.050060e-01 -7.217673e+01 9.068866e-01 -7.902726e+01 9.888655e-01 -8.592614e+01 1.047867e+00 -9.289215e+01 
1.486864e+00 -1.013812e+02 1.440929e+00 -1.088788e+02 1.345597e+00 1.119707e+02 1.529434e+00 1.044916e+02 1.674250e+00 9.720393e+01 1.797626e+00 9.006891e+01 1.924779e+00 8.308188e+01 2.130281e+00 7.630781e+01 2.094536e+00 6.842090e+01 1.689739e+00 6.153038e+01 1.703597e+00 5.469558e+01 1.503312e+00 4.754924e+01 1.594527e+00 4.028118e+01 1.570858e+00 3.325064e+01 1.368757e+00 2.638241e+01 1.178956e+00 1.919802e+01 1.325320e+00 1.189120e+01 1.332896e+00 4.842904e+00 1.153068e+00 -2.047223e+00 9.984773e-01 -9.261536e+00 1.169050e+00 -1.659218e+01 1.170795e+00 -2.363480e+01 1.019561e+00 -3.052715e+01 1.114869e+00 -3.749490e+01 1.146652e+00 -4.534575e+01 7.050652e-01 -5.196680e+01 1.029810e+00 -5.883087e+01 1.206649e+00 -6.576388e+01 1.324264e+00 -7.274012e+01 1.408252e+00 -7.976796e+01 1.464689e+00 -8.686567e+01 1.492451e+00 -9.405871e+01 
9.064709e-01 -1.020700e+02 8.553538e-01 -1.097235e+02 7.515015e-01 1.120478e+02 9.888756e-01 1.044035e+02 1.179366e+00 9.696902e+01 1.337095e+00 8.969848e+01 1.475964e+00 8.256174e+01 1.613791e+00 7.553619e+01 1.571846e+00 6.800349e+01 1.388307e+00 6.096061e+01 1.358279e+00 5.399296e+01 1.220067e+00 4.687968e+01 1.211816e+00 3.971382e+01 1.161276e+00 3.267963e+01 1.019612e+00 2.572429e+01 8.695783e-01 1.861011e+01 8.891872e-01 1.143733e+01 8.628781e-01 4.399785e+00 7.430842e-01 -2.566104e+00 6.241238e-01 -9.695237e+00 6.740186e-01 -1.687860e+01 6.659022e-01 -2.391218e+01 5.847589e-01 -3.087283e+01 5.974870e-01 -3.789315e+01 5.620538e-01 -4.530234e+01 3.806938e-01 -5.215272e+01 5.473397e-01 -5.906587e+01 6.726963e-01 -6.603102e+01 7.689447e-01 -7.305107e+01 8.419883e-01 -8.014041e+01 8.921652e-01 -8.732015e+01 9.158284e-01 -9.461796e+01 
1.320848e+00 -1.034007e+02 1.237397e+00 -1.113250e+02 1.099385e+00 1.144620e+02 1.320275e+00 1.065434e+02 1.493901e+00 9.886647e+01 1.634834e+00 9.137979e+01 1.755093e+00 8.403619e+01 1.852119e+00 7.677088e+01 1.793341e+00 6.931034e+01 1.691252e+00 6.209853e+01 1.643959e+00 5.496954e+01 1.550544e+00 4.777864e+01 1.524047e+00 4.057794e+01 1.490046e+00 3.345934e+01 1.403058e+00 2.637910e+01 1.305662e+00 1.921465e+01 1.299182e+00 1.202730e+01 1.287101e+00 4.916614e+00 1.220758e+00 -2.164854e+00 1.146629e+00 -9.337393e+00 1.160955e+00 -1.653373e+01 1.166116e+00 -2.364774e+01 1.133255e+00 -3.072915e+01 1.123794e+00 -3.787093e+01 1.072099e+00 -4.517969e+01 1.026861e+00 -5.225048e+01 1.113156e+00 -5.930638e+01 1.207258e+00 -6.641148e+01 1.283533e+00 -7.358258e+01 1.336501e+00 -8.083826e+01 1.363389e+00 -8.820353e+01 1.360163e+00 -9.571070e+01 
7.534775e-01 -1.039785e+02 6.620359e-01 -1.120306e+02 5.128253e-01 1.143778e+02 7.784451e-01 1.063226e+02 9.895268e-01 9.852374e+01 1.157668e+00 9.092625e+01 1.289939e+00 8.347869e+01 1.380426e+00 7.612223e+01 1.365280e+00 6.873038e+01 1.312875e+00 6.148372e+01 1.270810e+00 5.431061e+01 1.199309e+00 4.713167e+01 1.154339e+00 3.996915e+01 1.103009e+00 3.286183e+01 1.021289e+00 2.577857e+01 9.336534e-01 1.865752e+01 8.925880e-01 1.153249e+01 8.536307e-01 4.450328e+00 7.892564e-01 -2.620150e+00 7.235828e-01 -9.738566e+00 7.053512e-01 -1.686613e+01 6.897408e-01 -2.395090e+01 6.579578e-01 -3.102447e+01 6.348649e-01 -3.813793e+01 5.966581e-01 -4.533483e+01 5.787499e-01 -5.242917e+01 6.303571e-01 -5.951496e+01 6.943973e-01 -6.664825e+01 7.508034e-01 -7.385524e+01 7.910075e-01 -8.116015e+01 8.092497e-01 -8.859125e+01 7.993189e-01 -9.618310e+01 
1.174790e+00 -1.051831e+02 1.056079e+00 -1.134717e+02 8.783213e-01 1.166499e+02 1.128144e+00 1.083543e+02 1.323235e+00 1.003393e+02 1.475093e+00 9.254749e+01 1.589569e+00 8.492457e+01 1.659150e+00 7.741320e+01 1.649150e+00 6.994144e+01 1.616322e+00 6.258135e+01 1.581007e+00 5.529599e+01 1.529592e+00 4.803453e+01 1.492513e+00 4.080324e+01 1.456121e+00 3.361684e+01 1.402980e+00 2.645140e+01 1.345180e+00 1.927196e+01 1.313981e+00 1.209617e+01 1.289827e+00 4.946571e+00 1.252085e+00 -2.198318e+00 1.211588e+00 -9.370744e+00 1.197580e+00 -1.654921e+01 1.191297e+00 -2.370769e+01 1.176074e+00 -3.086768e+01 1.157683e+00 -3.806260e+01 1.132326e+00 -4.530674e+01 1.137225e+00 -5.251573e+01 1.174357e+00 -5.972849e+01 1.220632e+00 -6.699277e+01 1.259601e+00 -7.433961e+01 1.281384e+00 -8.179708e+01 1.279054e+00 -8.939684e+01 1.246039e+00 -9.717682e+01 
6.207009e-01 -1.056292e+02 4.929486e-01 -1.140162e+02 3.031672e-01 1.163859e+02 5.908680e-01 1.079850e+02 8.178085e-01 9.987779e+01 9.940637e-01 9.200645e+01 1.124870e+00 8.431803e+01 1.207106e+00 7.676273e+01 1.227386e+00 6.929179e+01 1.218571e+00 6.192271e+01 1.194798e+00 5.462998e+01 1.154042e+00 4.738121e+01 1.113591e+00 4.017330e+01 1.068920e+00 3.300688e+01 1.012569e+00 2.586338e+01 9.527029e-01 1.872206e+01 9.066022e-01 1.159026e+01 8.659283e-01 4.476274e+00 8.202999e-01 -2.634697e+00 7.757636e-01 -9.760274e+00 7.474970e-01 -1.688970e+01 7.268595e-01 -2.401200e+01 7.044372e-01 -3.114223e+01 6.823321e-01 -3.830093e+01 6.618878e-01 -4.549644e+01 6.633149e-01 -5.269278e+01 6.859343e-01 -5.991171e+01 7.155570e-01 -6.719049e+01 7.402686e-01 -7.456050e+01 7.509742e-01 -8.205230e+01 7.399818e-01 -8.969982e+01 6.995112e-01 -9.754287e+01 
1.050666e+00 -1.066864e+02 9.003652e-01 -1.152750e+02 6.871885e-01 1.184866e+02 9.590593e-01 1.098812e+02 1.170318e+00 1.015879e+02 1.331290e+00 9.354889e+01 1.447638e+00 8.571092e+01 1.518659e+00 7.802556e+01 1.540800e+00 7.045146e+01 1.538650e+00 6.298255e+01 1.522337e+00 5.559636e+01 1.494087e+00 4.826721e+01 1.465031e+00 4.098615e+01 1.434411e+00 3.374702e+01 1.397491e+00 2.653400e+01 1.358604e+00 1.933202e+01 1.328316e+00 1.214204e+01 1.303286e+00 4.965572e+00 1.276359e+00 -2.208583e+00 1.250019e+00 -9.392016e+00 1.233412e+00 -1.658076e+01 1.222968e+00 -2.377142e+01 1.211510e+00 -3.097575e+01 1.198454e+00 -3.820897e+01 1.187999e+00 -4.547724e+01 1.194453e+00 -5.276698e+01 1.212126e+00 -6.009404e+01 1.231564e+00 -6.748962e+01 1.243262e+00 -7.498524e+01 1.238782e+00 -8.261336e+01 1.210479e+00 -9.041019e+01 1.150644e+00 -9.841789e+01 
5.101404e-01 -1.069836e+02 3.511893e-01 -1.156402e+02 1.267225e-01 1.180274e+02 4.310617e-01 1.093492e+02 6.701091e-01 1.009945e+02 8.537639e-01 9.290567e+01 9.883330e-01 8.503061e+01 1.076240e+00 7.732364e+01 1.119397e+00 6.974664e+01 1.133646e+00 6.228083e+01 1.127812e+00 5.490365e+01 1.106444e+00 4.759318e+01 1.077514e+00 4.033716e+01 1.042700e+00 3.312544e+01 1.001332e+00 2.594385e+01 9.573167e-01 1.878030e+01 9.173521e-01 1.163183e+01 8.808308e-01 4.495735e+00 8.447599e-01 -2.637112e+00 8.109714e-01 -9.775121e+00 7.844577e-01 -1.691847e+01 7.636849e-01 -2.406843e+01 7.448902e-01 -3.123496e+01 7.278453e-01 -3.843008e+01 7.155764e-01 -4.566121e+01 7.152114e-01 -5.292775e+01 7.229533e-01 -6.024482e+01 7.315200e-01 -6.763982e+01 7.330804e-01 -7.514343e+01 7.198698e-01 -8.278892e+01 6.840834e-01 -9.061381e+01 6.173516e-01 -9.866163e+01 
9.502050e-01 -1.078777e+02 7.731303e-01 -1.167009e+02 5.301035e-01 1.199349e+02 8.178930e-01 1.110881e+02 1.041043e+00 1.025786e+02 1.210002e+00 9.434906e+01 1.331994e+00 8.634742e+01 1.411374e+00 7.852811e+01 1.453000e+00 7.085322e+01 1.469606e+00 6.329783e+01 1.469091e+00 5.583828e+01 1.456481e+00 4.845317e+01 1.437911e+00 4.112767e+01 1.415579e+00 3.384928e+01 1.389512e+00 2.660436e+01 1.362177e+00 1.938156e+01 1.337815e+00 1.217529e+01 1.316507e+00 4.980537e+00 1.296227e+00 -2.210931e+00 1.277671e+00 -9.406604e+00 1.263730e+00 -1.660945e+01 1.253674e+00 -2.382337e+01 1.244728e+00 -3.105756e+01 1.236318e+00 -3.832288e+01 1.231019e+00 -4.562775e+01 1.232994e+00 -5.297773e+01 1.238125e+00 -6.038841e+01 1.240130e+00 -6.788523e+01 1.232118e+00 -7.549850e+01 1.206926e+00 -8.326231e+01 1.157107e+00 -9.121549e+01 1.074593e+00 -9.940307e+01 
4.235337e-01 -1.080124e+02 2.393119e-01 -1.168722e+02 -1.306942e-02 1.192676e+02 3.026936e-01 1.103811e+02 5.502594e-01 1.018410e+02 7.400270e-01 9.358979e+01 8.798325e-01 8.557596e+01 9.754848e-01 7.775463e+01 1.033023e+00 7.008809e+01 1.062185e+00 6.254789e+01 1.070220e+00 5.510926e+01 1.062570e+00 4.775096e+01 1.044672e+00 4.045671e+01 1.019620e+00 3.321264e+01 9.891520e-01 2.600541e+01 9.560551e-01 1.882403e+01 9.237257e-01 1.166134e+01 8.931858e-01 4.510839e+00 8.641274e-01 -2.635295e+00 8.374534e-01 -9.784144e+00 8.149710e-01 -1.694042e+01 7.964962e-01 -2.410976e+01 7.806502e-01 -3.130117e+01 7.671662e-01 -3.852512e+01 7.573720e-01 -4.579155e+01 7.528241e-01 -5.311037e+01 7.503011e-01 -6.049830e+01 7.444828e-01 -6.797988e+01 7.291548e-01 -7.558497e+01 6.974605e-01 -8.334791e+01 6.418533e-01 -9.130825e+01 5.538293e-01 -9.951188e+01 
8.748980e-01 -1.087323e+02 6.766805e-01 -1.177239e+02 4.103056e-01 1.209655e+02 7.080676e-01 1.119461e+02 9.388142e-01 1.032826e+02 1.113574e+00 9.491777e+01 1.241019e+00 8.680015e+01 1.328095e+00 7.888471e+01 1.381779e+00 7.113321e+01 1.410804e+00 6.351508e+01 1.422001e+00 5.600440e+01 1.420632e+00 4.857920e+01 1.411376e+00 4.122183e+01 1.397137e+00 3.391729e+01 1.379578e+00 2.665203e+01 1.360712e+00 1.941478e+01 1.342809e+00 1.219713e+01 1.326647e+00 4.991615e+00 1.311961e+00 -2.209646e+00 1.299086e+00 -9.413906e+00 1.288931e+00 -1.662715e+01 1.281236e+00 -2.385610e+01 1.274844e+00 -3.110982e+01 1.269283e+00 -3.839877e+01 1.265195e+00 -4.573380e+01 1.262884e+00 -5.312698e+01 1.259122e+00 -6.059582e+01 1.248970e+00 -6.816447e+01 1.226664e+00 -7.586258e+01 1.185776e+00 -8.372483e+01 1.119148e+00 -9.179146e+01 1.018665e+00 -1.001092e+02 
3.623053e-01 -1.086941e+02 1.592644e-01 -1.176901e+02 -1.136572e-01 1.200800e+02 2.081620e-01 1.110546e+02 4.602601e-01 1.023912e+02 6.536621e-01 9.403221e+01 7.973650e-01 8.592641e+01 8.988446e-01 7.802884e+01 9.652162e-01 7.030108e+01 1.004124e+00 6.271141e+01 1.022002e+00 5.523319e+01 1.024146e+00 4.784403e+01 1.015158e+00 4.052559e+01 9.984232e-01 3.326229e+01 9.764370e-01 2.604054e+01 9.516433e-01 1.884897e+01 9.263600e-01 1.167850e+01 9.019067e-01 4.521062e+00 8.788494e-01 -2.631283e+00 8.578650e-01 -9.785926e+00 8.397233e-01 -1.694965e+01 8.244315e-01 -2.412996e+01 8.113924e-01 -3.133614e+01 8.002230e-01 -3.857891e+01 7.909042e-01 -4.587012e+01 7.828227e-01 -5.322365e+01 7.730713e-01 -6.065788e+01 7.572004e-01 -6.819693e+01 7.297703e-01 -7.587029e+01 6.844659e-01 -8.371272e+01 6.140090e-01 -9.176476e+01 5.099409e-01 -1.000736e+02 
8.259192e-01 -1.092330e+02 6.126728e-01 -1.183263e+02 3.300164e-01 1.215569e+02 6.316311e-01 1.124341e+02 8.652133e-01 1.036785e+02 1.042378e+00 9.523310e+01 1.172771e+00 8.704673e+01 1.264529e+00 7.907437e+01 1.325147e+00 7.127725e+01 1.361962e+00 6.362280e+01 1.381145e+00 5.608358e+01 1.387719e+00 4.863656e+01 1.385823e+00 4.126258e+01 1.378486e+00 3.394545e+01 1.367862e+00 2.667124e+01 1.355815e+00 1.942822e+01 1.343957e+00 1.220671e+01 1.333166e+00 4.998104e+00 1.323714e+00 -2.205723e+00 1.315833e+00 -9.412458e+00 1.309757e+00 -1.662948e+01 1.305220e+00 -2.386481e+01 1.301507e+00 -3.112789e+01 1.297976e+00 -3.842961e+01 1.294115e+00 -4.578235e+01 1.288751e+00 -5.320081e+01 1.278945e+00 -6.070382e+01 1.260454e+00 -6.831542e+01 1.228132e+00 -7.606497e+01 1.176010e+00 -8.398728e+01 1.097197e+00 -9.212310e+01 9.836589e-01 -1.005199e+02 
3.274705e-01 -1.090151e+02 1.123280e-01 -1.180798e+02 -1.734392e-01 1.204468e+02 1.487433e-01 1.113520e+02 4.008351e-01 1.026272e+02 5.943747e-01 9.421504e+01 7.390812e-01 8.606435e+01 8.431910e-01 7.813011e+01 9.140850e-01 7.037347e+01 9.586303e-01 6.276154e+01 9.827589e-01 5.526662e+01 9.914790e-01 4.786544e+01 9.890170e-01 4.053862e+01 9.787418e-01 3.326979e+01 9.633229e-01 2.604500e+01 9.450435e-01 1.885250e+01 9.258194e-01 1.168237e+01 9.069641e-01 4.525812e+00 8.892679e-01 -2.625371e+00 8.732995e-01 -9.778984e+00 8.594353e-01 -1.694274e+01 8.476174e-01 -2.412501e+01 8.373880e-01 -3.133542e+01 8.281394e-01 -3.858513e+01 8.190855e-01 -4.588706e+01 8.087517e-01 -5.325669e+01 7.943359e-01 -6.071333e+01 7.718524e-01 -6.828107e+01 7.363308e-01 -7.598913e+01 6.818335e-01 -8.387226e+01 6.013379e-01 -9.197123e+01 4.865213e-01 -1.003337e+02 
8.040194e-01 -1.093700e+02 5.820666e-01 -1.184978e+02 2.904435e-01 1.216961e+02 5.894814e-01 1.125389e+02 8.206129e-01 1.037530e+02 9.958993e-01 9.528165e+01 1.125560e+00 8.707394e+01 1.218255e+00 7.908495e+01 1.281578e+00 7.127574e+01 1.322299e+00 6.361312e+01 1.346156e+00 5.606902e+01 1.357880e+00 4.861983e+01 1.361311e+00 4.124575e+01 1.359408e+00 3.393013e+01 1.354403e+00 2.665883e+01 1.348045e+00 1.941990e+01 1.341670e+00 1.220314e+01 1.336100e+00 4.999550e+00 1.331709e+00 -2.199188e+00 1.328634e+00 -9.401026e+00 1.326819e+00 -1.661390e+01 1.325880e+00 -2.384635e+01 1.325112e+00 -3.110807e+01 1.323631e+00 -3.841025e+01 1.320311e+00 -4.576594e+01 1.313390e+00 -5.319085e+01 1.300029e+00 -6.070435e+01 1.276381e+00 -6.833036e+01 1.237718e+00 -7.609786e+01 1.178424e+00 -8.404137e+01 1.091871e+00 -9.220155e+01 9.701979e-01 -1.006260e+02 
3.195488e-01 -1.089686e+02 9.908422e-02 -1.180343e+02 -1.917444e-01 1.203585e+02 1.247704e-01 1.112638e+02 3.718390e-01 1.025396e+02 5.613394e-01 9.412889e+01 7.033798e-01 8.598064e+01 8.065053e-01 7.805007e+01 8.781135e-01 7.029842e+01 9.247012e-01 6.269266e+01 9.518546e-01 5.520483e+01 9.643101e-01 4.781146e+01 9.660463e-01 4.049291e+01 9.603223e-01 3.323264e+01 9.497768e-01 2.601671e+01 9.365661e-01 1.883331e+01 9.224031e-01 1.167234e+01 9.085132e-01 4.524854e+00 8.956786e-01 -2.617383e+00 8.843555e-01 -9.762271e+00 8.747060e-01 -1.691778e+01 8.665378e-01 -2.409248e+01 8.593108e-01 -3.129610e+01 8.521930e-01 -3.853987e+01 8.439892e-01 -4.583705e+01 8.328759e-01 -5.320356e+01 8.161152e-01 -6.065887e+01 7.900204e-01 -6.822679e+01 7.499728e-01 -7.593606e+01 6.903617e-01 -8.382090e+01 6.044362e-01 -9.192170e+01 4.840845e-01 -1.002858e+02 