# vtk DataFile Version 2.0
Comment goes here
ASCII

DATASET STRUCTURED_POINTS
FIELD FieldData 1
TIME 1 1 double
0.07200000
DIMENSIONS    64   64   1

ORIGIN    0.000   0.000   0.000
SPACING   0.03125 0.03125   1.000

POINT_DATA   4096
SCALARS P double
LOOKUP_TABLE default

-2.231271e+01 -1.990933e+02 -2.301536e+01 -1.977558e+02 2.550343e+01 1.440981e+02 -8.676547e+00 1.276043e+02 -9.483002e+00 1.118647e+02 -9.014368e+00 9.598746e+01 -8.325868e+00 8.243273e+01 -9.437154e+00 7.010609e+01 -1.046936e+01 5.918725e+01 -1.195905e+01 4.670540e+01 -1.470010e+01 3.926452e+01 -2.164348e+01 3.436017e+01 -2.879351e+01 2.965090e+01 -3.555641e+01 2.186123e+01 -3.810872e+01 9.978305e+00 -3.804739e+01 -3.256784e+00 -3.758491e+01 -1.369014e+01 -4.126319e+01 -2.183457e+01 -4.424000e+01 -3.231785e+01 -4.589678e+01 -4.241137e+01 -4.693196e+01 -5.546781e+01 -4.440103e+01 -7.101102e+01 -4.201718e+01 -8.673202e+01 -4.034462e+01 -1.008469e+02 -4.092785e+01 -1.120594e+02 -4.473380e+01 -1.205130e+02 -4.871427e+01 -1.295770e+02 -5.225438e+01 -1.377106e+02 -5.522651e+01 -1.478437e+02 -5.454192e+01 -1.606215e+02 -4.987039e+01 -1.736004e+02 -4.356630e+01 -1.890852e+02 
2.342923e+00 -1.344157e+02 1.568478e+00 -1.343646e+02 3.582423e+01 1.231900e+02 7.909562e+00 1.129094e+02 5.320904e+00 1.033149e+02 3.908974e+00 9.335203e+01 3.050098e+00 8.439693e+01 1.446256e+00 7.576755e+01 2.448583e-01 6.773791e+01 -1.061309e+00 5.805326e+01 -2.435808e+00 5.085065e+01 -5.709705e+00 4.480818e+01 -8.725141e+00 3.889144e+01 -1.172246e+01 3.144980e+01 -1.269385e+01 2.177740e+01 -1.231274e+01 1.149896e+01 -1.167913e+01 2.877403e+00 -1.347243e+01 -4.510565e+00 -1.490946e+01 -1.330302e+01 -1.576718e+01 -2.154573e+01 -1.630489e+01 -3.123160e+01 -1.495416e+01 -4.217768e+01 -1.378822e+01 -5.322664e+01 -1.302734e+01 -6.341233e+01 -1.298625e+01 -7.207998e+01 -1.455411e+01 -7.923149e+01 -1.600595e+01 -8.667930e+01 -1.724492e+01 -9.328749e+01 -1.831032e+01 -1.006981e+02 -1.754787e+01 -1.091377e+02 -1.473819e+01 -1.173185e+02 -1.136321e+01 -1.270347e+02 
1.375995e+01 -9.581775e+01 1.466520e+01 -9.769909e+01 2.640377e+01 1.071864e+02 1.549340e+01 1.022442e+02 1.295939e+01 9.694209e+01 1.090393e+01 9.105904e+01 9.262112e+00 8.497431e+01 7.687729e+00 7.864632e+01 6.446103e+00 7.229313e+01 5.215141e+00 6.491272e+01 4.353001e+00 5.760734e+01 3.391773e+00 5.033382e+01 2.763726e+00 4.308182e+01 2.109529e+00 3.561878e+01 1.699838e+00 2.770992e+01 1.640616e+00 1.975505e+01 1.747581e+00 1.214369e+01 1.326691e+00 4.696393e+00 8.829976e-01 -3.128549e+00 5.505243e-01 -1.061913e+01 3.266153e-01 -1.824196e+01 4.864066e-01 -2.600243e+01 5.679857e-01 -3.381324e+01 8.356597e-01 -4.143871e+01 1.422020e+00 -4.876916e+01 1.956958e+00 -5.564168e+01 2.683069e+00 -6.232765e+01 3.473978e+00 -6.847607e+01 4.355065e+00 -7.442277e+01 5.643065e+00 -8.014523e+01 7.381310e+00 -8.537073e+01 9.192890e+00 -9.086489e+01 
1.275260e+01 -9.693418e+01 1.565762e+01 -9.998134e+01 1.988047e+01 1.086950e+02 1.618440e+01 1.038081e+02 1.301547e+01 9.807408e+01 1.068129e+01 9.187439e+01 8.903723e+00 8.544388e+01 7.358202e+00 7.884474e+01 6.077991e+00 7.224682e+01 4.662007e+00 6.492139e+01 3.717298e+00 5.754319e+01 2.961538e+00 5.029693e+01 2.500483e+00 4.304888e+01 2.067605e+00 3.555133e+01 1.600259e+00 2.764760e+01 1.478340e+00 1.973067e+01 1.545278e+00 1.203658e+01 1.295848e+00 4.414678e+00 7.368055e-01 -3.399825e+00 4.120455e-01 -1.107492e+01 3.997281e-01 -1.881961e+01 5.755248e-01 -2.671006e+01 5.412717e-01 -3.464308e+01 7.141574e-01 -4.229706e+01 1.090290e+00 -4.956788e+01 1.344848e+00 -5.651032e+01 1.805014e+00 -6.315866e+01 2.319916e+00 -6.941970e+01 2.984376e+00 -7.544268e+01 4.084819e+00 -8.124846e+01 5.799026e+00 -8.676113e+01 8.216005e+00 -9.209775e+01 
1.227550e+01 -9.571284e+01 1.482152e+01 -9.934610e+01 1.837680e+01 1.063750e+02 1.527468e+01 1.020997e+02 1.259320e+01 9.692999e+01 1.054706e+01 9.117783e+01 8.969666e+00 8.501434e+01 7.608439e+00 7.855497e+01 6.587354e+00 7.224259e+01 5.106943e+00 6.498291e+01 4.135227e+00 5.751216e+01 3.367429e+00 5.021564e+01 2.875197e+00 4.291988e+01 2.457361e+00 3.542513e+01 1.878809e+00 2.761846e+01 1.615648e+00 1.990318e+01 1.614832e+00 1.231150e+01 1.433086e+00 4.679344e+00 8.858462e-01 -3.148627e+00 5.558722e-01 -1.076259e+01 5.355323e-01 -1.834610e+01 6.333311e-01 -2.602546e+01 4.631903e-01 -3.379670e+01 5.518359e-01 -4.138252e+01 1.019625e+00 -4.871860e+01 1.680322e+00 -5.573452e+01 2.492658e+00 -6.244818e+01 3.322926e+00 -6.877419e+01 4.253441e+00 -7.480367e+01 5.483119e+00 -8.056289e+01 7.105843e+00 -8.601658e+01 9.126798e+00 -9.115900e+01 
1.126429e+01 -9.830743e+01 1.438528e+01 -1.026610e+02 1.751775e+01 1.074199e+02 1.501529e+01 1.032115e+02 1.231502e+01 9.797301e+01 1.017522e+01 9.206964e+01 8.588155e+00 8.567906e+01 7.240541e+00 7.888273e+01 6.140481e+00 7.243487e+01 4.499155e+00 6.495628e+01 3.594750e+00 5.743135e+01 2.904063e+00 5.016077e+01 2.632866e+00 4.288899e+01 2.412823e+00 3.543634e+01 1.646708e+00 2.750483e+01 1.378012e+00 1.978336e+01 1.512897e+00 1.217663e+01 1.441062e+00 4.495744e+00 6.477746e-01 -3.536039e+00 3.422728e-01 -1.123849e+01 5.100724e-01 -1.887196e+01 6.859595e-01 -2.662729e+01 2.425113e-01 -3.464067e+01 3.332157e-01 -4.225421e+01 8.638274e-01 -4.953642e+01 1.002383e+00 -5.667512e+01 1.654683e+00 -6.343958e+01 2.262646e+00 -6.986884e+01 3.010840e+00 -7.605589e+01 4.134081e+00 -8.204830e+01 5.785272e+00 -8.781142e+01 8.079525e+00 -9.331069e+01 
1.078613e+01 -9.797510e+01 1.324849e+01 -1.027412e+02 1.581692e+01 1.060473e+02 1.378441e+01 1.018354e+02 1.157258e+01 9.691476e+01 9.734664e+00 9.141669e+01 8.413487e+00 8.535750e+01 7.380385e+00 7.857159e+01 6.786710e+00 7.261441e+01 4.930994e+00 6.490306e+01 4.017967e+00 5.715916e+01 3.182982e+00 5.001195e+01 2.873197e+00 4.286870e+01 2.811550e+00 3.557084e+01 1.952106e+00 2.745420e+01 1.449482e+00 1.988687e+01 1.643511e+00 1.246049e+01 1.749501e+00 4.912579e+00 8.846133e-01 -3.350701e+00 3.711297e-01 -1.096089e+01 6.123397e-01 -1.841020e+01 9.194404e-01 -2.593864e+01 3.002120e-01 -3.406288e+01 5.056324e-02 -4.169736e+01 5.849161e-01 -4.919597e+01 1.331898e+00 -5.633490e+01 2.250309e+00 -6.301529e+01 3.001203e+00 -6.934542e+01 3.856007e+00 -7.548102e+01 5.000640e+00 -8.147250e+01 6.493064e+00 -8.726764e+01 8.373107e+00 -9.280147e+01 
9.623693e+00 -1.010198e+02 1.216599e+01 -1.063096e+02 1.447579e+01 1.077837e+02 1.284562e+01 1.031776e+02 1.087063e+01 9.807224e+01 9.081336e+00 9.244798e+01 7.741860e+00 8.628857e+01 6.932584e+00 7.959933e+01 6.134914e+00 7.217762e+01 4.116629e+00 6.443471e+01 3.335130e+00 5.732152e+01 2.637437e+00 5.004686e+01 2.673442e+00 4.277598e+01 2.954715e+00 3.562542e+01 1.518576e+00 2.731472e+01 1.067455e+00 1.972603e+01 1.613498e+00 1.227669e+01 1.964942e+00 4.818933e+00 4.386337e-01 -3.850466e+00 -3.573761e-02 -1.146766e+01 5.231925e-01 -1.890754e+01 1.105945e+00 -2.633282e+01 -1.630014e-01 -3.498280e+01 -2.751981e-01 -4.260645e+01 9.725216e-01 -5.034731e+01 3.722535e-01 -5.744320e+01 1.406977e+00 -6.401419e+01 1.951976e+00 -7.044605e+01 2.673135e+00 -7.684872e+01 3.760862e+00 -8.318803e+01 5.255915e+00 -8.937458e+01 7.205690e+00 -9.535118e+01 
8.984173e+00 -1.010104e+02 1.092257e+01 -1.066314e+02 1.277604e+01 1.073300e+02 1.149512e+01 1.024302e+02 9.905537e+00 9.724726e+01 8.312529e+00 9.171053e+01 7.010486e+00 8.612983e+01 6.652389e+00 8.095882e+01 6.912808e+00 7.148490e+01 4.869756e+00 6.387870e+01 3.953119e+00 5.703611e+01 2.531149e+00 4.975891e+01 2.548604e+00 4.261878e+01 3.312255e+00 3.640614e+01 2.390398e+00 2.712763e+01 7.305808e-01 1.962083e+01 1.632264e+00 1.238991e+01 2.389164e+00 5.757437e+00 1.228764e+00 -3.847542e+00 -4.613422e-01 -1.141261e+01 4.947371e-01 -1.868035e+01 1.545410e+00 -2.527253e+01 4.305650e-01 -3.458100e+01 -1.189711e+00 -4.228429e+01 -3.514855e-01 -5.089982e+01 8.415001e-01 -5.791186e+01 1.901330e+00 -6.368408e+01 2.363360e+00 -6.983549e+01 3.154827e+00 -7.624817e+01 4.243705e+00 -8.266997e+01 5.568120e+00 -8.896419e+01 7.142667e+00 -9.508819e+01 
7.662001e+00 -1.041215e+02 9.515139e+00 -1.101737e+02 1.114999e+01 1.095666e+02 1.023733e+01 1.041795e+02 8.983167e+00 9.868314e+01 7.655583e+00 9.309820e+01 6.622190e+00 8.787952e+01 6.407418e+00 8.360945e+01 6.966724e+00 7.218849e+01 4.765738e+00 6.384384e+01 3.934445e+00 5.749733e+01 2.280931e+00 4.983933e+01 2.299998e+00 4.235117e+01 3.408691e+00 3.697523e+01 2.779038e+00 2.659406e+01 9.975776e-02 1.945877e+01 1.496858e+00 1.213717e+01 2.435984e+00 6.319838e+00 1.689610e+00 -4.957401e+00 -1.310658e+00 -1.197383e+01 9.324189e-02 -1.927468e+01 1.394725e+00 -2.487930e+01 8.272388e-01 -3.563145e+01 -1.775490e+00 -4.229541e+01 1.339407e+00 -5.381684e+01 -3.734348e-01 -5.906105e+01 1.819848e-01 -6.356348e+01 1.089030e+00 -7.062483e+01 2.045238e+00 -7.770570e+01 3.102735e+00 -8.456008e+01 4.364105e+00 -9.123548e+01 5.891389e+00 -9.776364e+01 
6.884429e+00 -1.041846e+02 8.198075e+00 -1.105181e+02 9.378922e+00 1.097996e+02 8.862355e+00 1.041349e+02 8.071876e+00 9.852708e+01 7.159566e+00 9.294824e+01 6.298054e+00 8.754459e+01 5.633371e+00 8.213278e+01 4.201780e+00 7.254628e+01 4.066918e+00 6.447752e+01 4.015625e+00 5.751630e+01 2.939845e+00 4.987338e+01 2.936680e+00 4.262106e+01 3.686299e+00 3.695891e+01 2.784742e+00 2.687360e+01 9.118328e-01 1.952441e+01 1.950879e+00 1.235431e+01 2.637092e+00 6.420405e+00 1.701855e+00 -4.484903e+00 -4.624004e-01 -1.165796e+01 6.891390e-01 -1.883654e+01 1.714620e+00 -2.455028e+01 1.055965e+00 -3.501579e+01 -6.578290e-01 -4.176289e+01 2.358094e+00 -5.175095e+01 -7.738943e-01 -5.843328e+01 -4.443532e-02 -6.299073e+01 1.234027e+00 -7.006450e+01 2.363177e+00 -7.719691e+01 3.386444e+00 -8.411942e+01 4.442534e+00 -9.090032e+01 5.608621e+00 -9.759062e+01 
5.444156e+00 -1.071916e+02 6.594649e+00 -1.139007e+02 7.508366e+00 1.123854e+02 7.365905e+00 1.062814e+02 6.950494e+00 1.003116e+02 6.421080e+00 9.435355e+01 5.883612e+00 8.810575e+01 5.210411e+00 8.120973e+01 4.106317e+00 7.357723e+01 3.074930e+00 6.523634e+01 2.974683e+00 5.803140e+01 2.370033e+00 5.029998e+01 2.691876e+00 4.272632e+01 3.240629e+00 3.560774e+01 1.561226e+00 2.751692e+01 9.810327e-01 1.967436e+01 1.793135e+00 1.200208e+01 2.333161e+00 4.598627e+00 4.557418e-01 -3.858378e+00 -1.611335e-01 -1.172564e+01 6.853537e-01 -1.941066e+01 1.366029e+00 -2.674751e+01 -4.288304e-01 -3.506316e+01 -1.012336e+00 -4.296020e+01 -3.228841e-01 -5.212859e+01 -3.608253e-01 -5.860458e+01 2.195512e-01 -6.516359e+01 7.083163e-01 -7.204922e+01 1.433543e+00 -7.908769e+01 2.274773e+00 -8.615943e+01 3.223079e+00 -9.321064e+01 4.290973e+00 -1.002325e+02 
4.578369e+00 -1.071963e+02 5.226666e+00 -1.141500e+02 5.651268e+00 1.130283e+02 5.882420e+00 1.066176e+02 5.823264e+00 1.003768e+02 5.583458e+00 9.415303e+01 5.258691e+00 8.754608e+01 4.763621e+00 8.033802e+01 4.968115e+00 7.388053e+01 3.568621e+00 6.606872e+01 3.119371e+00 5.797739e+01 2.937049e+00 5.060339e+01 2.940248e+00 4.331036e+01 3.059295e+00 3.588475e+01 2.060978e+00 2.754069e+01 1.668155e+00 2.006455e+01 1.978013e+00 1.268447e+01 2.170078e+00 5.060463e+00 1.048201e+00 -3.617528e+00 6.330058e-01 -1.116794e+01 9.972609e-01 -1.855761e+01 1.368103e+00 -2.610886e+01 3.616957e-01 -3.468115e+01 2.628003e-01 -4.217747e+01 1.126254e+00 -4.980570e+01 3.790994e-01 -5.741046e+01 9.811492e-01 -6.451706e+01 1.339632e+00 -7.154183e+01 1.833370e+00 -7.859936e+01 2.463059e+00 -8.571274e+01 3.154615e+00 -9.285925e+01 3.872107e+00 -1.000328e+02 
3.075978e+00 -1.100201e+02 3.518420e+00 -1.173071e+02 3.655647e+00 1.156703e+02 4.222868e+00 1.088003e+02 4.481968e+00 1.020678e+02 4.508441e+00 9.531354e+01 4.342746e+00 8.829637e+01 4.038488e+00 8.108740e+01 4.023849e+00 7.412460e+01 2.896926e+00 6.647553e+01 2.523422e+00 5.854273e+01 2.265993e+00 5.075737e+01 2.376545e+00 4.316891e+01 2.441288e+00 3.563902e+01 1.721716e+00 2.772053e+01 1.270357e+00 1.986388e+01 1.522251e+00 1.218288e+01 1.638849e+00 4.494322e+00 8.053617e-01 -3.653446e+00 2.811817e-01 -1.162389e+01 5.321965e-01 -1.934557e+01 6.967832e-01 -2.701062e+01 -1.250153e-01 -3.513676e+01 -6.306126e-01 -4.312446e+01 -4.071251e-01 -5.095332e+01 -1.816919e-02 -5.855523e+01 4.467508e-01 -6.601758e+01 6.844925e-01 -7.329015e+01 9.788804e-01 -8.048938e+01 1.416482e+00 -8.775445e+01 1.955266e+00 -9.511487e+01 2.531236e+00 -1.025558e+02 
2.178813e+00 -1.098989e+02 2.138833e+00 -1.174013e+02 1.719062e+00 1.164828e+02 2.670685e+00 1.093204e+02 3.264991e+00 1.023092e+02 3.615506e+00 9.532221e+01 3.775734e+00 8.815926e+01 3.785956e+00 8.102188e+01 4.117651e+00 7.408234e+01 3.197253e+00 6.668013e+01 2.691724e+00 5.872731e+01 2.584325e+00 5.103768e+01 2.626780e+00 4.349898e+01 2.578238e+00 3.584318e+01 2.028918e+00 2.803561e+01 1.688423e+00 2.023936e+01 1.833232e+00 1.262105e+01 1.846260e+00 4.839772e+00 1.212165e+00 -3.160179e+00 8.094561e-01 -1.107639e+01 9.710417e-01 -1.872785e+01 1.045972e+00 -2.647523e+01 5.065607e-01 -3.443467e+01 2.654551e-01 -4.232415e+01 6.149578e-01 -4.995076e+01 5.415142e-01 -5.758793e+01 8.537154e-01 -6.524674e+01 1.135881e+00 -7.263576e+01 1.316793e+00 -7.989449e+01 1.544989e+00 -8.722392e+01 1.813494e+00 -9.468227e+01 2.049389e+00 -1.022607e+02 
6.629239e-01 -1.125069e+02 3.830006e-01 -1.203017e+02 -3.692999e-01 1.190156e+02 9.116171e-01 1.114471e+02 1.758764e+00 1.040423e+02 2.323046e+00 9.673125e+01 2.698772e+00 8.932045e+01 2.924112e+00 8.194603e+01 3.170035e+00 7.467518e+01 2.672496e+00 6.712468e+01 2.221282e+00 5.902275e+01 1.971656e+00 5.105381e+01 1.980452e+00 4.343137e+01 2.004423e+00 3.583353e+01 1.773538e+00 2.811216e+01 1.216088e+00 1.991413e+01 1.299647e+00 1.224182e+01 1.400975e+00 4.532038e+00 1.023867e+00 -3.349083e+00 3.276526e-01 -1.169032e+01 3.831346e-01 -1.940963e+01 4.579864e-01 -2.712196e+01 8.357247e-02 -3.503464e+01 -5.408910e-01 -4.337212e+01 -3.361321e-01 -5.118861e+01 -2.704561e-02 -5.881599e+01 4.180970e-02 -6.681489e+01 2.781820e-01 -7.425187e+01 3.673728e-01 -8.162196e+01 4.919567e-01 -8.913286e+01 6.339713e-01 -9.680436e+01 7.182693e-01 -1.046167e+02 
-2.167456e-01 -1.122317e+02 -9.535411e-01 -1.202167e+02 -2.241911e+00 1.199175e+02 -5.653417e-01 1.120963e+02 5.972857e-01 1.044552e+02 1.402167e+00 9.695807e+01 2.000837e+00 8.954747e+01 2.652859e+00 8.221015e+01 3.125716e+00 7.480329e+01 3.091027e+00 6.695306e+01 2.403939e+00 5.923320e+01 2.133828e+00 5.114865e+01 2.164220e+00 4.363802e+01 2.218177e+00 3.627911e+01 2.160676e+00 2.856897e+01 1.437873e+00 2.001416e+01 1.620371e+00 1.254235e+01 1.788380e+00 5.137154e+00 1.502187e+00 -2.732289e+00 6.090813e-01 -1.144115e+01 8.485933e-01 -1.892666e+01 1.009276e+00 -2.627993e+01 7.308758e-01 -3.417288e+01 -8.517600e-02 -4.297242e+01 4.532304e-01 -5.053778e+01 4.139756e-01 -5.827549e+01 4.792222e-01 -6.609671e+01 6.158237e-01 -7.343573e+01 5.607414e-01 -8.085260e+01 5.271697e-01 -8.846883e+01 4.429834e-01 -9.625722e+01 2.209938e-01 -1.041965e+02 
-1.703736e+00 -1.146159e+02 -2.691646e+00 -1.228592e+02 -4.310577e+00 1.223201e+02 -2.316354e+00 1.141335e+02 -9.080727e-01 1.061309e+02 8.422078e-02 9.837816e+01 8.537569e-01 9.100856e+01 1.621467e+00 8.364874e+01 1.802299e+00 7.608116e+01 2.991545e+00 6.710295e+01 2.167355e+00 5.973491e+01 1.652910e+00 5.066548e+01 1.420162e+00 4.337908e+01 1.522429e+00 3.670146e+01 2.227026e+00 2.911578e+01 1.068636e+00 1.894945e+01 8.362822e-01 1.203595e+01 1.266664e+00 5.307976e+00 1.628336e+00 -2.456797e+00 1.491006e-01 -1.287011e+01 -5.728900e-02 -1.978092e+01 3.017988e-01 -2.644261e+01 6.471886e-01 -3.424526e+01 -7.083849e-01 -4.471153e+01 -6.912561e-01 -5.158404e+01 4.739920e-01 -5.996238e+01 -7.815727e-01 -6.755642e+01 -5.365002e-01 -7.471618e+01 -4.748791e-01 -8.239037e+01 -5.209914e-01 -9.024582e+01 -7.046497e-01 -9.823777e+01 -1.075030e+00 -1.063738e+02 
-2.522740e+00 -1.141830e+02 -3.932955e+00 -1.225936e+02 -6.060005e+00 1.232528e+02 -3.641684e+00 1.148760e+02 -1.845888e+00 1.067460e+02 -4.830894e-01 9.893931e+01 5.555366e-01 9.150609e+01 1.242191e+00 8.399317e+01 1.390327e+00 7.667848e+01 2.480074e+00 6.759067e+01 2.315564e+00 6.007729e+01 1.918591e+00 5.087536e+01 1.856312e+00 4.354639e+01 1.980601e+00 3.706186e+01 2.724342e+00 2.957018e+01 1.452261e+00 1.900657e+01 1.254248e+00 1.226724e+01 1.739259e+00 5.871907e+00 2.281151e+00 -1.783981e+00 6.315032e-01 -1.277019e+01 3.982648e-01 -1.940161e+01 8.375151e-01 -2.560267e+01 1.572701e+00 -3.320466e+01 1.739258e-01 -4.430304e+01 5.958602e-02 -5.111122e+01 1.510600e+00 -5.937930e+01 -1.006030e+00 -6.623970e+01 -6.365449e-01 -7.352613e+01 -4.232685e-01 -8.147656e+01 -5.209101e-01 -8.949461e+01 -8.959696e-01 -9.759366e+01 -1.545074e+00 -1.058278e+02 
-3.942668e+00 -1.163507e+02 -5.603788e+00 -1.249873e+02 -8.080766e+00 1.255564e+02 -5.331423e+00 1.169174e+02 -3.262776e+00 1.085461e+02 -1.659056e+00 1.004346e+02 -4.911294e-01 9.244517e+01 1.719442e-01 8.450021e+01 6.809108e-01 7.688510e+01 8.845195e-01 6.831333e+01 1.274753e+00 6.007585e+01 1.190821e+00 5.160057e+01 1.464024e+00 4.391189e+01 1.661211e+00 3.657311e+01 1.770558e+00 2.872470e+01 9.409314e-01 1.968503e+01 1.108702e+00 1.223054e+01 1.367865e+00 4.929634e+00 1.347064e+00 -2.990269e+00 2.284677e-01 -1.227342e+01 2.777795e-01 -1.969638e+01 4.462191e-01 -2.694754e+01 5.306537e-01 -3.487833e+01 -5.299154e-01 -4.425393e+01 -3.438209e-01 -5.154999e+01 -3.826126e-03 -5.980931e+01 -1.357309e+00 -6.775169e+01 -1.232826e+00 -7.528385e+01 -1.248102e+00 -8.317401e+01 -1.486258e+00 -9.123807e+01 -1.984175e+00 -9.945133e+01 -2.779092e+00 -1.078287e+02 
-4.668632e+00 -1.157665e+02 -6.711993e+00 -1.245477e+02 -9.648975e+00 1.264512e+02 -6.534781e+00 1.176422e+02 -4.169555e+00 1.091162e+02 -2.332627e+00 1.008185e+02 -9.680749e-01 9.259000e+01 -1.014926e-02 8.458931e+01 9.541351e-01 7.668095e+01 1.141419e+00 6.877882e+01 1.283474e+00 6.040664e+01 1.496036e+00 5.217823e+01 1.718408e+00 4.434340e+01 1.879669e+00 3.661287e+01 1.912505e+00 2.881756e+01 1.443178e+00 2.044389e+01 1.568348e+00 1.273280e+01 1.704538e+00 5.056371e+00 1.552372e+00 -2.778704e+00 8.470322e-01 -1.127315e+01 9.270581e-01 -1.898454e+01 1.001686e+00 -2.664345e+01 8.580323e-01 -3.450877e+01 1.553337e-01 -4.305888e+01 3.537992e-01 -5.088439e+01 1.413366e-01 -5.867606e+01 -4.550686e-01 -6.677012e+01 -6.396090e-01 -7.449977e+01 -9.731301e-01 -8.236967e+01 -1.438963e+00 -9.045131e+01 -2.149819e+00 -9.871421e+01 -3.196009e+00 -1.071567e+02 
-5.982740e+00 -1.177314e+02 -8.257933e+00 -1.267109e+02 -1.149128e+01 1.285352e+02 -8.122841e+00 1.194608e+02 -5.554052e+00 1.106440e+02 -3.574809e+00 1.020331e+02 -2.097928e+00 9.356702e+01 -9.829375e-01 8.532698e+01 -4.324576e-02 7.711806e+01 2.823893e-01 6.901788e+01 5.562300e-01 6.071102e+01 8.508482e-01 5.249412e+01 1.132323e+00 4.447081e+01 1.309165e+00 3.650969e+01 1.305552e+00 2.858591e+01 1.055082e+00 2.042382e+01 1.122420e+00 1.250397e+01 1.170671e+00 4.593512e+00 9.756654e-01 -3.324740e+00 5.155242e-01 -1.156017e+01 4.731500e-01 -1.949684e+01 4.273174e-01 -2.741906e+01 1.754717e-01 -3.535279e+01 -3.271320e-01 -4.362436e+01 -3.675503e-01 -5.162283e+01 -5.813100e-01 -5.958012e+01 -9.483850e-01 -6.790439e+01 -1.224086e+00 -7.589927e+01 -1.683947e+00 -8.391308e+01 -2.295356e+00 -9.208365e+01 -3.144550e+00 -1.004377e+02 -4.335939e+00 -1.089870e+02 
-6.578945e+00 -1.170122e+02 -9.191939e+00 -1.261127e+02 -1.283964e+01 1.292740e+02 -9.159678e+00 1.200454e+02 -6.325317e+00 1.110823e+02 -4.114631e+00 1.023382e+02 -2.417257e+00 9.379464e+01 -1.091329e+00 8.548766e+01 -4.288644e-02 7.721866e+01 4.315073e-01 6.920133e+01 7.311123e-01 6.100733e+01 1.089380e+00 5.281391e+01 1.375985e+00 4.475209e+01 1.551916e+00 3.676561e+01 1.590828e+00 2.886345e+01 1.465343e+00 2.081573e+01 1.506668e+00 1.288194e+01 1.514619e+00 4.973943e+00 1.354387e+00 -2.904391e+00 1.043824e+00 -1.097873e+01 9.822424e-01 -1.891940e+01 8.987988e-01 -2.683376e+01 6.585998e-01 -3.472717e+01 2.748533e-01 -4.284067e+01 1.586847e-01 -5.082971e+01 -1.281378e-01 -5.877068e+01 -4.700278e-01 -6.693727e+01 -8.344483e-01 -7.499078e+01 -1.415328e+00 -8.305117e+01 -2.196578e+00 -9.124394e+01 -3.242714e+00 -9.962059e+01 -4.660970e+00 -1.082047e+02 
-7.758530e+00 -1.187911e+02 -1.058204e+01 -1.280596e+02 -1.451111e+01 1.310754e+02 -1.060972e+01 1.216285e+02 -7.603774e+00 1.124446e+02 -5.254267e+00 1.034882e+02 -3.432756e+00 9.474697e+01 -2.024427e+00 8.620912e+01 -9.669053e-01 7.776795e+01 -3.433065e-01 6.950414e+01 9.162220e-02 6.123797e+01 4.814552e-01 5.299028e+01 7.970098e-01 4.482863e+01 9.996799e-01 3.673949e+01 1.068419e+00 2.872408e+01 1.022115e+00 2.064880e+01 1.038271e+00 1.262401e+01 1.014798e+00 4.624875e+00 8.692677e-01 -3.343620e+00 6.297530e-01 -1.142132e+01 5.032614e-01 -1.945036e+01 3.565928e-01 -2.745983e+01 1.036872e-01 -3.544637e+01 -2.344019e-01 -4.357322e+01 -4.550020e-01 -5.167139e+01 -7.410609e-01 -5.974741e+01 -1.090847e+00 -6.800451e+01 -1.496401e+00 -7.621176e+01 -2.125079e+00 -8.441820e+01 -2.989521e+00 -9.272418e+01 -4.142802e+00 -1.011946e+02 -5.686350e+00 -1.098704e+02 
-8.202845e+00 -1.179536e+02 -1.131651e+01 -1.273160e+02 -1.560297e+01 1.316139e+02 -1.143364e+01 1.220514e+02 -8.198302e+00 1.127706e+02 -5.649715e+00 1.037374e+02 -3.650983e+00 9.494053e+01 -2.096584e+00 8.635186e+01 -9.355444e-01 7.791188e+01 -2.019169e-01 6.965543e+01 3.003610e-01 6.142347e+01 7.272870e-01 5.320846e+01 1.061442e+00 4.506459e+01 1.284525e+00 3.699665e+01 1.389843e+00 2.899610e+01 1.396188e+00 2.097312e+01 1.416775e+00 1.298586e+01 1.396292e+00 5.029145e+00 1.283801e+00 -2.907041e+00 1.104296e+00 -1.090653e+01 9.825467e-01 -1.888313e+01 8.370303e-01 -2.684141e+01 6.048864e-01 -3.479567e+01 3.037029e-01 -4.284201e+01 5.244405e-02 -5.088207e+01 -2.731637e-01 -5.893722e+01 -6.648648e-01 -6.710198e+01 -1.159507e+00 -7.528386e+01 -1.878415e+00 -8.349990e+01 -2.862505e+00 -9.181743e+01 -4.170114e+00 -1.002977e+02 -5.901582e+00 -1.089901e+02 
-9.229417e+00 -1.195633e+02 -1.252049e+01 -1.290633e+02 -1.705232e+01 1.331309e+02 -1.269331e+01 1.234025e+02 -9.314936e+00 1.139575e+02 -6.652123e+00 1.047568e+02 -4.561870e+00 9.578642e+01 -2.945224e+00 8.701994e+01 -1.735480e+00 7.841962e+01 -9.014951e-01 6.998148e+01 -3.032009e-01 6.162973e+01 1.644401e-01 5.333395e+01 5.226477e-01 4.511030e+01 7.680361e-01 3.695936e+01 8.996941e-01 2.886798e+01 9.407622e-01 2.078290e+01 9.578610e-01 1.272664e+01 9.286913e-01 4.697709e+00 8.252931e-01 -3.315866e+00 6.646823e-01 -1.136465e+01 5.147488e-01 -1.940738e+01 3.381277e-01 -2.744258e+01 9.672148e-02 -3.548528e+01 -2.024648e-01 -4.359647e+01 -4.981803e-01 -5.172725e+01 -8.426521e-01 -5.988610e+01 -1.265018e+00 -6.813378e+01 -1.802172e+00 -7.641727e+01 -2.560434e+00 -8.474343e+01 -3.597572e+00 -9.316200e+01 -4.978373e+00 -1.017300e+02 -6.804063e+00 -1.105038e+02 
-9.507274e+00 -1.186215e+02 -1.303392e+01 -1.281874e+02 -1.785616e+01 1.334436e+02 -1.327873e+01 1.236380e+02 -9.715477e+00 1.141349e+02 -6.895530e+00 1.048895e+02 -4.670533e+00 9.588588e+01 -2.942873e+00 8.710025e+01 -1.644140e+00 7.850601e+01 -7.290203e-01 7.007807e+01 -7.140210e-02 6.174719e+01 4.323853e-01 5.348471e+01 8.134906e-01 4.529526e+01 1.080047e+00 3.717741e+01 1.237602e+00 2.911683e+01 1.308546e+00 2.107864e+01 1.340585e+00 1.307054e+01 1.325297e+00 5.089283e+00 1.246022e+00 -2.879495e+00 1.117567e+00 -1.086534e+01 9.825032e-01 -1.884823e+01 8.167843e-01 -2.682887e+01 5.897103e-01 -3.482459e+01 3.046250e-01 -4.287012e+01 -4.597786e-03 -5.094243e+01 -3.800461e-01 -5.905627e+01 -8.473026e-01 -6.724163e+01 -1.457137e+00 -7.548213e+01 -2.294619e+00 -8.378827e+01 -3.426195e+00 -9.219791e+01 -4.925724e+00 -1.007612e+02 -6.898600e+00 -1.095373e+02 
-1.036398e+01 -1.200814e+02 -1.402160e+01 -1.297554e+02 -1.902805e+01 1.346712e+02 -1.430820e+01 1.247414e+02 -1.064053e+01 1.151140e+02 -7.740671e+00 1.057364e+02 -5.453296e+00 9.659384e+01 -3.676988e+00 8.766774e+01 -2.331418e+00 7.893496e+01 -1.349525e+00 7.036875e+01 -6.289110e-01 6.192568e+01 -8.792413e-02 5.357617e+01 3.149340e-01 4.530996e+01 5.980857e-01 3.711737e+01 7.731427e-01 2.898212e+01 8.617342e-01 2.087966e+01 8.965838e-01 1.280789e+01 8.794113e-01 4.760883e+00 8.034487e-01 -3.274922e+00 6.788651e-01 -1.131967e+01 5.303135e-01 -1.936689e+01 3.470901e-01 -2.741976e+01 1.100103e-01 -3.549351e+01 -1.824922e-01 -4.361143e+01 -5.148472e-01 -5.176480e+01 -9.112200e-01 -5.996303e+01 -1.405958e+00 -6.822635e+01 -2.048751e+00 -7.654874e+01 -2.917991e+00 -8.494053e+01 -4.085728e+00 -9.343301e+01 -5.632317e+00 -1.020716e+02 -7.667831e+00 -1.109177e+02 
-1.046155e+01 -1.190473e+02 -1.429474e+01 -1.287589e+02 -1.951664e+01 1.347300e+02 -1.463593e+01 1.247578e+02 -1.083300e+01 1.151042e+02 -7.819729e+00 1.057111e+02 -5.436392e+00 9.656267e+01 -3.579961e+00 8.764258e+01 -2.168069e+00 7.892804e+01 -1.128681e+00 7.038599e+01 -3.640707e-01 6.197388e+01 2.068928e-01 5.366361e+01 6.302410e-01 4.544024e+01 9.305865e-01 3.729111e+01 1.124037e+00 2.920034e+01 1.232491e+00 2.114898e+01 1.282856e+00 1.313048e+01 1.280683e+00 5.136745e+00 1.223784e+00 -2.844975e+00 1.121315e+00 -1.082876e+01 9.891464e-01 -1.881485e+01 8.187581e-01 -2.680923e+01 5.934237e-01 -3.482584e+01 3.091115e-01 -4.288058e+01 -2.993007e-02 -5.097360e+01 -4.482812e-01 -5.911623e+01 -9.792180e-01 -6.732257e+01 -1.675403e+00 -7.559676e+01 -2.607283e+00 -8.395321e+01 -3.848348e+00 -9.242052e+01 -5.484016e+00 -1.010407e+02 -7.628846e+00 -1.098760e+02 
-1.113210e+01 -1.203773e+02 -1.504080e+01 -1.301679e+02 -2.037214e+01 1.356575e+02 -1.540696e+01 1.255974e+02 -1.154522e+01 1.158536e+02 -8.489287e+00 1.063625e+02 -6.072861e+00 9.710953e+01 -4.188225e+00 8.808166e+01 -2.746346e+00 7.925820e+01 -1.667735e+00 7.061059e+01 -8.657546e-01 6.210572e+01 -2.691546e-01 5.371629e+01 1.699167e-01 4.542231e+01 4.811130e-01 3.720662e+01 6.847138e-01 2.905172e+01 8.020924e-01 2.094038e+01 8.551010e-01 1.286265e+01 8.523495e-01 4.808663e+00 7.958210e-01 -3.233839e+00 6.926090e-01 -1.127710e+01 5.525564e-01 -1.932581e+01 3.713560e-01 -2.738740e+01 1.376715e-01 -3.547406e+01 -1.542532e-01 -4.359836e+01 -5.067744e-01 -5.176402e+01 -9.404183e-01 -5.997977e+01 -1.489911e+00 -6.825693e+01 -2.206182e+00 -7.660209e+01 -3.156869e+00 -8.502962e+01 -4.417125e+00 -9.356554e+01 -6.076027e+00 -1.022491e+02 -8.252284e+00 -1.111430e+02 
-1.103715e+01 -1.192592e+02 -1.505861e+01 -1.290588e+02 -2.052541e+01 1.354358e+02 -1.546261e+01 1.253670e+02 -1.151839e+01 1.156275e+02 -8.393478e+00 1.061504e+02 -5.918900e+00 9.692016e+01 -3.985376e+00 8.792330e+01 -2.502622e+00 7.913786e+01 -1.389196e+00 7.053297e+01 -5.601699e-01 6.207508e+01 5.573464e-02 5.373670e+01 5.085089e-01 4.549611e+01 8.311102e-01 3.733474e+01 1.046770e+00 2.923526e+01 1.177456e+00 2.118184e+01 1.243273e+00 1.316322e+01 1.253929e+00 5.168736e+00 1.213253e+00 -2.813157e+00 1.127637e+00 -1.079314e+01 1.003369e+00 -1.877802e+01 8.357733e-01 -2.677636e+01 6.139739e-01 -3.479955e+01 3.301838e-01 -4.285859e+01 -2.345444e-02 -5.096032e+01 -4.694162e-01 -5.911474e+01 -1.042559e+00 -6.733293e+01 -1.793699e+00 -7.562524e+01 -2.787341e+00 -8.400828e+01 -4.098426e+00 -9.250788e+01 -5.818036e+00 -1.011621e+02 -8.067470e+00 -1.100340e+02 
-1.150855e+01 -1.204764e+02 -1.554478e+01 -1.303261e+02 -2.103953e+01 1.360550e+02 -1.595612e+01 1.259333e+02 -1.200307e+01 1.161361e+02 -8.875133e+00 1.065939e+02 -6.399257e+00 9.729239e+01 -4.463106e+00 8.821993e+01 -2.973057e+00 7.935654e+01 -1.845521e+00 7.067510e+01 -1.001191e+00 6.214620e+01 -3.739290e-01 5.374312e+01 8.571870e-02 4.544259e+01 4.126322e-01 3.722415e+01 6.321260e-01 2.906936e+01 7.659046e-01 2.096203e+01 8.322213e-01 1.288944e+01 8.416683e-01 4.839992e+00 7.997054e-01 -3.197844e+00 7.118196e-01 -1.123467e+01 5.822164e-01 -1.927876e+01 4.078132e-01 -2.733906e+01 1.803280e-01 -3.542593e+01 -1.084601e-01 -4.354923e+01 -4.687922e-01 -5.171630e+01 -9.221676e-01 -5.993582e+01 -1.503021e+00 -6.821782e+01 -2.260343e+00 -7.657295e+01 -3.256934e+00 -8.501736e+01 -4.567943e+00 -9.357545e+01 -6.286012e+00 -1.022834e+02 -8.534741e+00 -1.112040e+02 
-1.121278e+01 -1.192771e+02 -1.529820e+01 -1.291070e+02 -2.084624e+01 1.355326e+02 -1.573163e+01 1.254359e+02 -1.175046e+01 1.156740e+02 -8.598361e+00 1.061765e+02 -6.102075e+00 9.692713e+01 -4.148756e+00 8.791257e+01 -2.644320e+00 7.911099e+01 -1.504564e+00 7.049362e+01 -6.509262e-01 6.203017e+01 -1.726268e-02 5.369324e+01 4.468939e-01 4.545887e+01 7.781353e-01 3.730616e+01 1.003448e+00 2.921683e+01 1.145019e+00 2.117519e+01 1.220599e+00 1.316829e+01 1.241096e+00 5.184575e+00 1.212586e+00 -2.787010e+00 1.139963e+00 -1.075653e+01 1.025715e+00 -1.873276e+01 8.659865e-01 -2.672497e+01 6.521174e-01 -3.474328e+01 3.742383e-01 -4.279746e+01 1.911975e-02 -5.089625e+01 -4.364097e-01 -5.904952e+01 -1.027138e+00 -6.726827e+01 -1.801405e+00 -7.556523e+01 -2.820401e+00 -8.395797e+01 -4.158596e+00 -9.247133e+01 -5.908889e+00 -1.011412e+02 -8.195358e+00 -1.100300e+02 
-1.147734e+01 -1.203929e+02 -1.551411e+01 -1.302446e+02 -2.100565e+01 1.358427e+02 -1.593744e+01 1.257273e+02 -1.200002e+01 1.159394e+02 -8.886524e+00 1.064091e+02 -6.422976e+00 9.712085e+01 -4.495526e+00 8.806239e+01 -3.008883e+00 7.921303e+01 -1.878829e+00 7.054624e+01 -1.030130e+00 6.203379e+01 -3.999076e-01 5.364902e+01 6.099475e-02 4.536773e+01 3.893426e-01 3.716847e+01 6.126420e-01 2.903250e+01 7.526514e-01 2.094372e+01 8.261726e-01 1.288857e+01 8.441919e-01 4.855088e+00 8.132713e-01 -3.167832e+00 7.378681e-01 -1.119032e+01 6.197910e-01 -1.922153e+01 4.560036e-01 -2.727061e+01 2.392505e-01 -3.534703e+01 -4.013468e-02 -4.345989e+01 -3.959139e-01 -5.161766e+01 -8.505705e-01 -5.982942e+01 -1.437773e+00 -6.810552e+01 -2.203995e+00 -7.645841e+01 -3.208784e+00 -8.490503e+01 -4.525925e+00 -9.346913e+01 -6.248404e+00 -1.021852e+02 -8.500655e+00 -1.111140e+02 