# vtk DataFile Version 2.0
Comment goes here
ASCII

DATASET STRUCTURED_POINTS
FIELD FieldData 1
TIME 1 1 double
0.08500000
DIMENSIONS    64   64   1

ORIGIN    0.000   0.000   0.000
SPACING   0.03125 0.03125   1.000

POINT_DATA   4096
SCALARS P double
LOOKUP_TABLE default

-5.463077e+00 -1.518519e+02 2.430833e+01 -1.610462e+02 8.270459e+01 1.611475e+02 5.272242e+01 1.483764e+02 4.374348e+01 1.403874e+02 3.395083e+01 1.325713e+02 2.499835e+01 1.257374e+02 1.676437e+01 1.181993e+02 1.219649e+01 1.078105e+02 9.201630e+00 9.678193e+01 7.245465e+00 8.527365e+01 7.023947e+00 7.417759e+01 4.993276e+00 6.591810e+01 1.031954e+00 5.791285e+01 -2.435406e+00 4.948714e+01 -3.480957e+00 3.790708e+01 -3.144939e+00 2.634443e+01 -4.578300e+00 1.491761e+01 -5.214756e+00 2.283188e+00 -5.250167e+00 -9.530328e+00 -7.255316e+00 -1.984110e+01 -9.718401e+00 -3.236790e+01 -9.812130e+00 -4.612754e+01 -9.827028e+00 -5.811753e+01 -1.012766e+01 -7.055216e+01 -7.872454e+00 -8.657681e+01 -2.352097e+00 -1.036493e+02 2.229571e+00 -1.189791e+02 6.448564e+00 -1.307095e+02 4.893860e+00 -1.336918e+02 -2.068969e-01 -1.327115e+02 -5.401758e+00 -1.253609e+02 
3.979169e+00 -1.142484e+02 2.212359e+01 -1.192182e+02 6.118831e+01 1.260532e+02 3.498802e+01 1.177092e+02 2.762401e+01 1.117530e+02 2.112559e+01 1.052789e+02 1.576749e+01 9.913910e+01 1.104272e+01 9.255242e+01 8.619558e+00 8.431508e+01 6.505970e+00 7.562205e+01 5.172788e+00 6.651764e+01 5.194752e+00 5.757396e+01 4.297744e+00 5.007848e+01 2.273948e+00 4.257677e+01 5.065915e-01 3.487816e+01 1.885520e-01 2.557016e+01 4.123612e-01 1.646155e+01 -6.715924e-01 7.423621e+00 -1.129385e+00 -2.352207e+00 -1.133089e+00 -1.154678e+01 -2.138469e+00 -1.982699e+01 -3.586448e+00 -2.933837e+01 -3.573217e+00 -3.936208e+01 -3.630867e+00 -4.801322e+01 -3.559253e+00 -5.656406e+01 -2.220585e+00 -6.696172e+01 9.013357e-01 -7.776344e+01 3.396580e+00 -8.766485e+01 6.138245e+00 -9.592031e+01 6.116632e+00 -9.950097e+01 4.681632e+00 -1.010213e+02 3.247543e+00 -9.719216e+01 
1.267465e+01 -9.724161e+01 1.872194e+01 -1.005508e+02 3.152553e+01 1.102863e+02 2.053585e+01 1.047081e+02 1.658672e+01 9.902019e+01 1.348721e+01 9.270684e+01 1.106017e+01 8.623213e+01 9.005616e+00 7.962324e+01 7.676689e+00 7.258370e+01 6.071807e+00 6.527964e+01 4.835274e+00 5.762642e+01 4.222509e+00 4.985886e+01 3.554820e+00 4.219347e+01 2.665640e+00 3.435333e+01 1.827411e+00 2.654724e+01 1.469928e+00 1.856552e+01 1.185635e+00 1.066510e+01 4.615151e-01 2.700605e+00 -9.373028e-02 -5.440459e+00 -2.983511e-01 -1.331213e+01 -5.997528e-01 -2.097953e+01 -1.046050e+00 -2.887306e+01 -1.082770e+00 -3.675811e+01 -8.762798e-01 -4.405495e+01 -3.053173e-01 -5.103599e+01 6.947573e-01 -5.808470e+01 2.170102e+00 -6.483531e+01 3.529462e+00 -7.126138e+01 5.233955e+00 -7.738456e+01 6.755017e+00 -8.256447e+01 8.478251e+00 -8.720396e+01 1.049913e+01 -8.983395e+01 
1.367743e+01 -9.425609e+01 2.022857e+01 -9.819216e+01 2.747507e+01 1.078118e+02 2.213864e+01 1.030368e+02 1.727600e+01 9.742305e+01 1.361995e+01 9.133254e+01 1.081096e+01 8.500142e+01 8.657397e+00 7.855658e+01 7.290300e+00 7.175077e+01 5.356151e+00 6.447875e+01 4.250412e+00 5.685719e+01 3.867543e+00 4.927197e+01 3.455694e+00 4.171418e+01 2.771263e+00 3.398332e+01 2.022855e+00 2.628163e+01 1.764104e+00 1.851004e+01 1.463110e+00 1.064919e+01 7.841791e-01 2.597153e+00 1.176208e-01 -5.391832e+00 -9.881951e-02 -1.315200e+01 -3.815181e-01 -2.085532e+01 -9.164413e-01 -2.873555e+01 -1.300660e+00 -3.641334e+01 -1.064540e+00 -4.361749e+01 -3.440328e-01 -5.053778e+01 5.336650e-01 -5.741615e+01 1.866589e+00 -6.412093e+01 3.223562e+00 -7.045937e+01 4.690024e+00 -7.623967e+01 6.121338e+00 -8.112984e+01 7.804517e+00 -8.527581e+01 1.005687e+01 -8.874946e+01 
1.358137e+01 -9.739478e+01 1.848710e+01 -1.018202e+02 2.408647e+01 1.086104e+02 1.996787e+01 1.041476e+02 1.602526e+01 9.873271e+01 1.304002e+01 9.262712e+01 1.073298e+01 8.605964e+01 8.903923e+00 7.948997e+01 7.846896e+00 7.256332e+01 5.841561e+00 6.529454e+01 4.571982e+00 5.763244e+01 4.081136e+00 4.999699e+01 3.533712e+00 4.228610e+01 2.693981e+00 3.426688e+01 1.834123e+00 2.656009e+01 1.486727e+00 1.878749e+01 1.191137e+00 1.082685e+01 5.195716e-01 2.582128e+00 -1.821717e-01 -5.335579e+00 -4.103022e-01 -1.311595e+01 -5.825988e-01 -2.093413e+01 -1.043876e+00 -2.900453e+01 -1.455453e+00 -3.675445e+01 -1.307368e+00 -4.420994e+01 -5.518885e-01 -5.134840e+01 5.986928e-01 -5.831328e+01 1.991955e+00 -6.499333e+01 3.312954e+00 -7.138936e+01 4.727954e+00 -7.737924e+01 6.247661e+00 -8.280527e+01 8.076696e+00 -8.778046e+01 1.042694e+01 -9.214162e+01 
1.351119e+01 -9.680458e+01 1.836580e+01 -1.015711e+02 2.277446e+01 1.060975e+02 1.997821e+01 1.021932e+02 1.612661e+01 9.721905e+01 1.292252e+01 9.144654e+01 1.050151e+01 8.501046e+01 8.556922e+00 7.849918e+01 7.494416e+00 7.198046e+01 5.066467e+00 6.436707e+01 4.028449e+00 5.665889e+01 3.835619e+00 4.929768e+01 3.536151e+00 4.183001e+01 2.776341e+00 3.387117e+01 1.779645e+00 2.626972e+01 1.741849e+00 1.868686e+01 1.572654e+00 1.083634e+01 7.577590e-01 2.476300e+00 -2.181734e-01 -5.329915e+00 -2.349871e-01 -1.294939e+01 -3.381590e-01 -2.071633e+01 -1.075447e+00 -2.894687e+01 -1.819475e+00 -3.657444e+01 -1.368259e+00 -4.388997e+01 -2.388913e-01 -5.089932e+01 4.463357e-01 -5.765441e+01 1.710045e+00 -6.424474e+01 2.951051e+00 -7.058086e+01 4.212263e+00 -7.648060e+01 5.644848e+00 -8.186337e+01 7.477559e+00 -8.685904e+01 9.940265e+00 -9.168306e+01 
1.255013e+01 -1.002950e+02 1.632127e+01 -1.055631e+02 1.992051e+01 1.072931e+02 1.757425e+01 1.031030e+02 1.454752e+01 9.819649e+01 1.191776e+01 9.262856e+01 1.001843e+01 8.616940e+01 8.509152e+00 7.947388e+01 7.976427e+00 7.312807e+01 5.536669e+00 6.490535e+01 4.055185e+00 5.713626e+01 4.043790e+00 4.994618e+01 3.741720e+00 4.263569e+01 2.837361e+00 3.403475e+01 1.451031e+00 2.660356e+01 1.505299e+00 1.906130e+01 1.486029e+00 1.122836e+01 6.893082e-01 2.329328e+00 -6.238827e-01 -5.352412e+00 -5.075370e-01 -1.297456e+01 -3.550334e-01 -2.072092e+01 -1.021252e+00 -2.939346e+01 -2.225809e+00 -3.713443e+01 -2.040125e+00 -4.480017e+01 -1.054332e+00 -5.215650e+01 3.604717e-01 -5.916347e+01 1.868234e+00 -6.564280e+01 2.968786e+00 -7.195117e+01 4.107871e+00 -7.796478e+01 5.489133e+00 -8.373348e+01 7.278908e+00 -8.930042e+01 9.588409e+00 -9.470508e+01 
1.187352e+01 -1.005828e+02 1.543675e+01 -1.061122e+02 1.851362e+01 1.062908e+02 1.665248e+01 1.018597e+02 1.394660e+01 9.701831e+01 1.127993e+01 9.162291e+01 9.283090e+00 8.561009e+01 8.373409e+00 7.916455e+01 7.339718e+00 7.244252e+01 4.515629e+00 6.261795e+01 3.328900e+00 5.631735e+01 3.837463e+00 4.933555e+01 3.944455e+00 4.212626e+01 2.866854e+00 3.364616e+01 1.005047e+00 2.632991e+01 1.880157e+00 1.896246e+01 2.113309e+00 1.126049e+01 8.055160e-01 2.095346e+00 -1.141637e+00 -5.344919e+00 -2.766661e-01 -1.276827e+01 1.245626e-01 -2.032899e+01 -1.186910e+00 -2.948681e+01 -3.110316e+00 -3.705509e+01 -2.048002e+00 -4.456643e+01 3.658530e-02 -5.226957e+01 1.976095e-01 -5.868618e+01 1.456510e+00 -6.468598e+01 2.556187e+00 -7.103110e+01 3.530161e+00 -7.717160e+01 4.830969e+00 -8.315528e+01 6.578047e+00 -8.899568e+01 8.867706e+00 -9.476746e+01 
1.046586e+01 -1.038992e+02 1.326664e+01 -1.098519e+02 1.588918e+01 1.081304e+02 1.430545e+01 1.031212e+02 1.212795e+01 9.784807e+01 9.817581e+00 9.239045e+01 8.141379e+00 8.728331e+01 7.873285e+00 8.188473e+01 7.073023e+00 7.447514e+01 6.720122e+00 6.132040e+01 2.958159e+00 5.637340e+01 3.736760e+00 4.995585e+01 4.144094e+00 4.374558e+01 3.544823e+00 3.383670e+01 1.753796e-01 2.627576e+01 1.645966e+00 1.927232e+01 2.066538e+00 1.216215e+01 1.345662e+00 2.005752e+00 -2.036308e+00 -5.797673e+00 -6.044765e-01 -1.301456e+01 2.410905e-01 -2.002034e+01 -5.014500e-01 -2.970091e+01 -4.026807e+00 -3.811427e+01 -3.307930e+00 -4.556565e+01 -2.091724e+00 -5.432650e+01 -9.869904e-02 -6.132767e+01 1.827465e+00 -6.658143e+01 2.366215e+00 -7.237847e+01 3.109561e+00 -7.855484e+01 4.376177e+00 -8.495006e+01 6.031146e+00 -9.130559e+01 8.042671e+00 -9.759881e+01 
9.374566e+00 -1.045296e+02 1.189927e+01 -1.107366e+02 1.409077e+01 1.081598e+02 1.298386e+01 1.027828e+02 1.132094e+01 9.741614e+01 9.487920e+00 9.224791e+01 8.146141e+00 8.751865e+01 7.408411e+00 8.266703e+01 6.489626e+00 7.514099e+01 6.040475e+00 6.003036e+01 2.735016e+00 5.707637e+01 4.152995e+00 4.951107e+01 4.836840e+00 4.356374e+01 3.968547e+00 3.223235e+01 -4.720659e-01 2.621433e+01 2.424729e+00 1.950135e+01 2.715301e+00 1.290226e+01 1.802362e+00 3.187149e-01 -3.047724e+00 -5.752262e+00 -1.973134e-01 -1.258377e+01 6.254310e-01 -1.871112e+01 -3.333515e-01 -3.079471e+01 -5.164937e+00 -3.782422e+01 -3.534897e+00 -4.435147e+01 -5.725700e-01 -5.544891e+01 1.049008e+00 -6.242116e+01 2.829947e-01 -6.368081e+01 1.288756e+00 -7.053266e+01 2.370102e+00 -7.781738e+01 3.686106e+00 -8.474322e+01 5.229513e+00 -9.140853e+01 7.100630e+00 -9.798726e+01 
7.726030e+00 -1.075046e+02 9.604997e+00 -1.140545e+02 1.126349e+01 1.105177e+02 1.066702e+01 1.047671e+02 9.701933e+00 9.913088e+01 8.516649e+00 9.368487e+01 7.285291e+00 8.837225e+01 6.030886e+00 8.207383e+01 3.968684e+00 7.519925e+01 3.344601e+00 6.298102e+01 3.211963e+00 5.682272e+01 4.155391e+00 5.004731e+01 4.595260e+00 4.380079e+01 3.468047e+00 3.388131e+01 4.337552e-01 2.629361e+01 2.459033e+00 1.938464e+01 2.586382e+00 1.264049e+01 1.316715e+00 1.233108e+00 -2.255502e+00 -6.055670e+00 7.562685e-02 -1.295398e+01 6.809176e-01 -1.932826e+01 -5.843142e-01 -3.056090e+01 -4.157557e+00 -3.833379e+01 -2.400680e+00 -4.476287e+01 7.231101e-01 -5.486839e+01 4.605916e-01 -6.344513e+01 -1.124075e+00 -6.453079e+01 3.919596e-01 -7.160006e+01 1.846051e+00 -7.928011e+01 3.196773e+00 -8.656894e+01 4.534627e+00 -9.360674e+01 6.018346e+00 -1.005805e+02 
6.347820e+00 -1.082247e+02 7.883911e+00 -1.150270e+02 9.026305e+00 1.113803e+02 8.945669e+00 1.053066e+02 8.460935e+00 9.943514e+01 7.768435e+00 9.358171e+01 6.823952e+00 8.718245e+01 5.683394e+00 8.056936e+01 5.234341e+00 7.407156e+01 2.759873e+00 6.416519e+01 2.482564e+00 5.721110e+01 3.382636e+00 4.967691e+01 3.771604e+00 4.220378e+01 2.830822e+00 3.405646e+01 8.022297e-01 2.644211e+01 1.832407e+00 1.881621e+01 2.263732e+00 1.099658e+01 9.238699e-01 2.290291e+00 -1.350884e+00 -5.439173e+00 -2.664306e-01 -1.312267e+01 3.156722e-01 -2.084314e+01 -1.215957e+00 -2.951121e+01 -3.701764e+00 -3.746155e+01 -2.777938e+00 -4.498787e+01 -1.483726e+00 -5.416363e+01 -5.767489e-01 -6.052185e+01 -1.901774e-02 -6.620739e+01 3.982958e-01 -7.278643e+01 1.296605e+00 -7.970259e+01 2.382277e+00 -8.679193e+01 3.556507e+00 -9.392057e+01 4.866307e+00 -1.010908e+02 
4.563348e+00 -1.107786e+02 5.500237e+00 -1.178717e+02 6.122001e+00 1.139618e+02 6.462697e+00 1.074469e+02 6.397133e+00 1.010723e+02 6.050029e+00 9.468204e+01 5.420409e+00 8.779165e+01 4.694104e+00 8.100751e+01 4.927727e+00 7.387028e+01 3.212477e+00 6.596304e+01 2.588424e+00 5.817848e+01 3.304778e+00 5.069407e+01 3.422143e+00 4.320949e+01 2.496248e+00 3.426213e+01 1.390050e+00 2.701392e+01 1.772763e+00 1.949124e+01 1.834096e+00 1.162621e+01 6.758797e-01 2.051031e+00 -6.334945e-01 -5.267157e+00 -1.494263e-01 -1.282711e+01 8.905654e-02 -2.061299e+01 -1.132235e+00 -3.022759e+01 -2.440808e+00 -3.762073e+01 -1.702875e+00 -4.539562e+01 -2.231212e-01 -5.329921e+01 -2.086985e-01 -6.028096e+01 2.808814e-01 -6.683557e+01 6.698651e-01 -7.395448e+01 1.155926e+00 -8.115464e+01 1.884423e+00 -8.846358e+01 2.723677e+00 -9.586581e+01 3.616475e+00 -1.033459e+02 
3.024437e+00 -1.114618e+02 3.589472e+00 -1.188112e+02 3.708152e+00 1.151152e+02 4.493084e+00 1.081730e+02 4.847597e+00 1.013067e+02 4.861150e+00 9.439721e+01 4.522712e+00 8.736998e+01 4.260185e+00 8.056935e+01 4.370502e+00 7.343435e+01 2.938761e+00 6.592074e+01 2.249233e+00 5.792918e+01 2.539381e+00 5.023721e+01 2.744953e+00 4.258618e+01 2.347147e+00 3.451288e+01 1.379024e+00 2.651064e+01 1.360234e+00 1.893992e+01 1.420900e+00 1.116893e+01 8.093536e-01 2.762574e+00 -4.108059e-01 -5.417310e+00 -4.762502e-01 -1.305968e+01 -4.223272e-01 -2.082006e+01 -1.120827e+00 -2.926489e+01 -2.462951e+00 -3.746533e+01 -2.393400e+00 -4.514948e+01 -1.743377e+00 -5.272850e+01 -8.637601e-01 -6.007837e+01 1.219947e-01 -6.714467e+01 4.240980e-01 -7.442023e+01 7.051455e-01 -8.161508e+01 1.135188e+00 -8.885208e+01 1.708402e+00 -9.627163e+01 2.355774e+00 -1.038662e+02 
1.205247e+00 -1.135841e+02 1.170968e+00 -1.211919e+02 5.920213e-01 1.175788e+02 1.850191e+00 1.102481e+02 2.607691e+00 1.029775e+02 3.087449e+00 9.570403e+01 3.270936e+00 8.844415e+01 3.401524e+00 8.152180e+01 3.680636e+00 7.380247e+01 2.924645e+00 6.668209e+01 2.181251e+00 5.888356e+01 2.419529e+00 5.104702e+01 2.557130e+00 4.323961e+01 2.084000e+00 3.502172e+01 1.547417e+00 2.715655e+01 1.267289e+00 1.943453e+01 1.292616e+00 1.143309e+01 6.563987e-01 2.883753e+00 -6.385753e-02 -5.162623e+00 -3.930660e-01 -1.295149e+01 -3.538770e-01 -2.093936e+01 -9.920560e-01 -2.949675e+01 -1.686660e+00 -3.760917e+01 -1.767870e+00 -4.551805e+01 -9.636364e-01 -5.315648e+01 -5.018408e-01 -6.037350e+01 -1.188976e-01 -6.771171e+01 3.021451e-01 -7.530264e+01 5.113792e-01 -8.277204e+01 6.528156e-01 -9.023944e+01 8.486061e-01 -9.789776e+01 1.055658e+00 -1.057451e+02 
-3.946333e-01 -1.141724e+02 -8.348337e-01 -1.220254e+02 -1.922927e+00 1.187332e+02 -2.150301e-01 1.110265e+02 8.644718e-01 1.034487e+02 1.635760e+00 9.597257e+01 2.210832e+00 8.856803e+01 2.638057e+00 8.146097e+01 2.905573e+00 7.388129e+01 2.629627e+00 6.661122e+01 1.951548e+00 5.827638e+01 1.850467e+00 5.044700e+01 2.083650e+00 4.294974e+01 1.972166e+00 3.509286e+01 1.483236e+00 2.664439e+01 8.984352e-01 1.905406e+01 1.034582e+00 1.140660e+01 7.311411e-01 3.249869e+00 -2.092552e-02 -5.424629e+00 -7.459085e-01 -1.303201e+01 -6.923125e-01 -2.069622e+01 -1.029207e+00 -2.887762e+01 -1.843133e+00 -3.760480e+01 -2.381275e+00 -4.535480e+01 -2.011272e+00 -5.309716e+01 -1.010986e+00 -6.032533e+01 -5.386084e-01 -6.788907e+01 -2.247476e-01 -7.562926e+01 -1.448876e-01 -8.301588e+01 -1.851306e-01 -9.048587e+01 -1.965837e-01 -9.822496e+01 -2.376515e-01 -1.061883e+02 
-2.166748e+00 -1.158936e+02 -3.188494e+00 -1.239845e+02 -4.918591e+00 1.211091e+02 -2.712317e+00 1.130649e+02 -1.245125e+00 1.051461e+02 -1.766130e-01 9.744846e+01 7.940885e-01 9.000038e+01 1.620611e+00 8.252706e+01 2.094818e+00 7.514277e+01 2.439787e+00 6.727293e+01 2.183557e+00 5.846138e+01 1.474436e+00 5.089573e+01 1.842413e+00 4.361991e+01 1.842212e+00 3.609953e+01 1.618164e+00 2.715566e+01 5.310578e-01 1.905277e+01 1.051814e+00 1.167220e+01 8.175872e-01 3.874472e+00 2.238036e-01 -5.282082e+00 -9.656836e-01 -1.341107e+01 -4.567041e-01 -2.077278e+01 -6.311321e-01 -2.849122e+01 -1.347283e+00 -3.773567e+01 -2.459483e+00 -4.635201e+01 -1.391027e+00 -5.385440e+01 -7.993889e-01 -6.102248e+01 -7.788278e-01 -6.870538e+01 -3.031566e-01 -7.632527e+01 -4.970249e-01 -8.377977e+01 -7.990353e-01 -9.148582e+01 -1.100226e+00 -9.949714e+01 -1.524668e+00 -1.077000e+02 
-3.749371e+00 -1.163631e+02 -5.175933e+00 -1.246902e+02 -7.387329e+00 1.222609e+02 -4.732226e+00 1.138716e+02 -2.867590e+00 1.056973e+02 -1.452653e+00 9.794478e+01 -2.374725e-01 9.047965e+01 4.776618e-01 8.282107e+01 1.035199e+00 7.641558e+01 1.740585e+00 6.772343e+01 2.824528e+00 5.742059e+01 8.031879e-01 4.974036e+01 1.455156e+00 4.333053e+01 1.854012e+00 3.720326e+01 2.170321e+00 2.639218e+01 -2.349444e-01 1.792693e+01 8.250469e-01 1.182436e+01 8.242725e-01 5.237750e+00 7.965458e-01 -6.017511e+00 -1.892737e+00 -1.421821e+01 -8.605890e-01 -2.041649e+01 -7.267393e-01 -2.686690e+01 -9.196685e-01 -3.806732e+01 -3.486797e+00 -4.706451e+01 -2.500021e+00 -5.361855e+01 -1.402996e+00 -6.086217e+01 -4.287460e-01 -6.949194e+01 -1.340197e+00 -7.612534e+01 -1.480772e+00 -8.362622e+01 -1.750303e+00 -9.157107e+01 -2.161588e+00 -9.973649e+01 -2.803590e+00 -1.080450e+02 
-5.407446e+00 -1.177384e+02 -7.390420e+00 -1.262781e+02 -1.031044e+01 1.245574e+02 -6.996945e+00 1.159828e+02 -4.526471e+00 1.076718e+02 -2.602638e+00 9.971705e+01 -1.228636e+00 9.190332e+01 -5.311520e-01 8.413259e+01 2.951967e-01 7.742577e+01 5.483912e-01 6.902029e+01 1.784176e+00 5.861769e+01 7.075456e-01 5.061336e+01 1.562211e+00 4.388402e+01 1.999160e+00 3.782863e+01 2.238479e+00 2.687228e+01 -1.457129e-01 1.796072e+01 1.032555e+00 1.195986e+01 1.015330e+00 5.845207e+00 1.148277e+00 -5.993526e+00 -1.696054e+00 -1.478740e+01 -5.823268e-01 -2.061317e+01 -3.912535e-01 -2.623415e+01 -9.680780e-02 -3.805414e+01 -2.723797e+00 -4.823990e+01 -2.055246e+00 -5.401825e+01 -8.556510e-01 -6.197871e+01 -5.144165e-02 -6.975797e+01 -2.401242e+00 -7.572979e+01 -2.290830e+00 -8.386986e+01 -2.441075e+00 -9.231460e+01 -3.023919e+00 -1.007637e+02 -4.010010e+00 -1.092551e+02 
-6.910229e+00 -1.180843e+02 -9.307280e+00 -1.268265e+02 -1.281423e+01 1.258181e+02 -8.959348e+00 1.170444e+02 -6.090612e+00 1.085422e+02 -3.885211e+00 1.002087e+02 -2.355899e+00 9.201836e+01 -1.293158e+00 8.428956e+01 -3.276966e-01 7.647815e+01 -1.482307e-01 6.849788e+01 -5.187802e-02 5.898942e+01 4.546668e-01 5.094230e+01 1.234402e+00 4.359421e+01 1.490579e+00 3.619452e+01 1.183330e+00 2.695596e+01 1.150396e-01 1.878653e+01 8.768550e-01 1.163722e+01 7.637451e-01 4.177912e+00 2.611797e-01 -5.538505e+00 -1.199377e+00 -1.358314e+01 -6.121803e-01 -2.065292e+01 -7.304855e-01 -2.795504e+01 -1.168435e+00 -3.784872e+01 -2.706992e+00 -4.631321e+01 -2.059495e+00 -5.348830e+01 -1.442552e+00 -6.088874e+01 -1.484508e+00 -6.945510e+01 -2.698170e+00 -7.662326e+01 -2.866792e+00 -8.442365e+01 -3.250354e+00 -9.260899e+01 -4.017825e+00 -1.009891e+02 -5.219297e+00 -1.095028e+02 
-8.435205e+00 -1.191516e+02 -1.133985e+01 -1.280763e+02 -1.542987e+01 1.279918e+02 -1.109377e+01 1.189961e+02 -7.856234e+00 1.102512e+02 -5.377505e+00 1.016521e+02 -3.504618e+00 9.326607e+01 -1.949450e+00 8.527191e+01 -8.702142e-01 7.682341e+01 -6.358563e-02 6.902456e+01 -7.449604e-02 6.048900e+01 3.959989e-01 5.217985e+01 9.837805e-01 4.430592e+01 1.190378e+00 3.628514e+01 1.068539e+00 2.756554e+01 5.376234e-01 1.963525e+01 8.104545e-01 1.187774e+01 7.189444e-01 3.801079e+00 2.537546e-01 -5.130944e+00 -5.585764e-01 -1.304011e+01 -3.728370e-01 -2.072795e+01 -4.746322e-01 -2.875054e+01 -1.035056e+00 -3.777220e+01 -1.879918e+00 -4.596844e+01 -1.655031e+00 -5.391922e+01 -1.229830e+00 -6.139502e+01 -1.868116e+00 -6.931651e+01 -2.312522e+00 -7.724048e+01 -2.950653e+00 -8.513556e+01 -3.743999e+00 -9.333540e+01 -4.820841e+00 -1.018040e+02 -6.343190e+00 -1.104318e+02 
-9.798261e+00 -1.193713e+02 -1.307503e+01 -1.284788e+02 -1.760874e+01 1.291023e+02 -1.292012e+01 1.198412e+02 -9.385562e+00 1.108307e+02 -6.683773e+00 1.020226e+02 -4.576083e+00 9.349416e+01 -2.856996e+00 8.518278e+01 -1.714479e+00 7.671878e+01 -8.232984e-01 6.863142e+01 -6.173520e-01 6.029462e+01 -6.228398e-02 5.203470e+01 4.986274e-01 4.396924e+01 7.208010e-01 3.583899e+01 6.550471e-01 2.752213e+01 4.048922e-01 1.957235e+01 5.379336e-01 1.162232e+01 4.089195e-01 3.482784e+00 -6.528234e-03 -4.930055e+00 -5.610818e-01 -1.283025e+01 -5.986231e-01 -2.075316e+01 -8.346476e-01 -2.888405e+01 -1.372889e+00 -3.736046e+01 -1.989972e+00 -4.532430e+01 -1.976719e+00 -5.333078e+01 -1.867826e+00 -6.099896e+01 -2.312421e+00 -6.910510e+01 -2.683684e+00 -7.732674e+01 -3.391327e+00 -8.536755e+01 -4.381575e+00 -9.354494e+01 -5.677859e+00 -1.019595e+02 -7.427063e+00 -1.105762e+02 
-1.112588e+01 -1.201936e+02 -1.486132e+01 -1.294523e+02 -1.996764e+01 1.309796e+02 -1.484434e+01 1.215330e+02 -1.093864e+01 1.123381e+02 -7.903666e+00 1.033658e+02 -5.488235e+00 9.466359e+01 -3.551443e+00 8.610031e+01 -2.202736e+00 7.755999e+01 -1.090019e+00 6.933803e+01 -6.989332e-01 6.117134e+01 -1.944246e-01 5.286435e+01 3.109254e-01 4.460828e+01 5.717008e-01 3.634696e+01 6.385091e-01 2.803260e+01 5.207342e-01 1.995318e+01 5.435488e-01 1.184810e+01 4.276313e-01 3.627091e+00 1.329891e-01 -4.706899e+00 -2.665236e-01 -1.276263e+01 -3.994304e-01 -2.083207e+01 -6.414093e-01 -2.903305e+01 -1.082882e+00 -3.739477e+01 -1.579002e+00 -4.549337e+01 -1.686861e+00 -5.353599e+01 -1.764147e+00 -6.139596e+01 -2.318552e+00 -6.944426e+01 -2.777569e+00 -7.767282e+01 -3.599467e+00 -8.586222e+01 -4.787791e+00 -9.413977e+01 -6.344459e+00 -1.026154e+02 -8.392284e+00 -1.112952e+02 
-1.229981e+01 -1.202917e+02 -1.638203e+01 -1.297018e+02 -2.194344e+01 1.318318e+02 -1.647668e+01 1.221901e+02 -1.229802e+01 1.128347e+02 -9.038582e+00 1.037245e+02 -6.445659e+00 9.485360e+01 -4.411551e+00 8.614181e+01 -2.931242e+00 7.754925e+01 -1.806142e+00 6.916639e+01 -1.173461e+00 6.087014e+01 -5.989698e-01 5.257024e+01 -8.915316e-02 4.432010e+01 2.126938e-01 3.610053e+01 3.277709e-01 2.788271e+01 2.955926e-01 1.977929e+01 3.026612e-01 1.168334e+01 1.910353e-01 3.544890e+00 -6.145540e-02 -4.641787e+00 -3.983615e-01 -1.269611e+01 -6.136708e-01 -2.075422e+01 -9.025145e-01 -2.887410e+01 -1.313989e+00 -3.707728e+01 -1.761858e+00 -4.514407e+01 -1.996709e+00 -5.317424e+01 -2.201305e+00 -6.116342e+01 -2.725283e+00 -6.925655e+01 -3.270440e+00 -7.754750e+01 -4.120309e+00 -8.582742e+01 -5.383163e+00 -9.415452e+01 -7.079111e+00 -1.026347e+02 -9.314359e+00 -1.113220e+02 
-1.340013e+01 -1.209251e+02 -1.788546e+01 -1.304499e+02 -2.395627e+01 1.334125e+02 -1.809498e+01 1.236401e+02 -1.358551e+01 1.141642e+02 -1.004809e+01 1.049320e+02 -7.225665e+00 9.591722e+01 -5.005188e+00 8.707043e+01 -3.338932e+00 7.839071e+01 -2.076685e+00 6.991657e+01 -1.315052e+00 6.157083e+01 -7.081805e-01 5.322545e+01 -1.983510e-01 4.489598e+01 1.410868e-01 3.658719e+01 3.200883e-01 2.829995e+01 3.517350e-01 2.010225e+01 3.536978e-01 1.192107e+01 2.668001e-01 3.714524e+00 7.395356e-02 -4.511349e+00 -1.955020e-01 -1.265520e+01 -4.137250e-01 -2.078753e+01 -6.879906e-01 -2.896116e+01 -1.056849e+00 -3.718099e+01 -1.468679e+00 -4.531482e+01 -1.762104e+00 -5.340303e+01 -2.097535e+00 -6.146608e+01 -2.688389e+00 -6.961488e+01 -3.368336e+00 -7.789049e+01 -4.353123e+00 -8.621686e+01 -5.755523e+00 -9.461044e+01 -7.634684e+00 -1.031411e+02 -1.010630e+01 -1.118759e+02 
-1.436217e+01 -1.209033e+02 -1.914557e+01 -1.305497e+02 -2.562931e+01 1.340189e+02 -1.945362e+01 1.241086e+02 -1.470955e+01 1.145195e+02 -1.099594e+01 1.051763e+02 -8.045393e+00 9.604427e+01 -5.729120e+00 8.710112e+01 -3.968370e+00 7.833917e+01 -2.651404e+00 6.975961e+01 -1.746353e+00 6.130931e+01 -1.056004e+00 5.293407e+01 -5.137424e-01 4.461910e+01 -1.436446e-01 3.634958e+01 6.439494e-02 2.811403e+01 1.359680e-01 1.994072e+01 1.496205e-01 1.180028e+01 7.413278e-02 3.661761e+00 -1.003549e-01 -4.482743e+00 -3.491928e-01 -1.258328e+01 -5.938972e-01 -2.067078e+01 -8.872619e-01 -2.878210e+01 -1.254423e+00 -3.692930e+01 -1.664748e+00 -4.503899e+01 -2.027801e+00 -5.312976e+01 -2.437128e+00 -6.123820e+01 -3.045484e+00 -6.941325e+01 -3.796222e+00 -7.770467e+01 -4.835039e+00 -8.605983e+01 -6.293612e+00 -9.448237e+01 -8.259944e+00 -1.030291e+02 -1.086495e+01 -1.117858e+02 
-1.522312e+01 -1.213925e+02 -2.033312e+01 -1.311207e+02 -2.723085e+01 1.353064e+02 -2.073080e+01 1.253060e+02 -1.571918e+01 1.156333e+02 -1.178778e+01 1.062015e+02 -8.658874e+00 9.697256e+01 -6.190521e+00 8.793849e+01 -4.292369e+00 7.909466e+01 -2.869515e+00 7.044042e+01 -1.876014e+00 6.192474e+01 -1.135886e+00 5.349042e+01 -5.703088e-01 4.511084e+01 -1.716501e-01 3.677059e+01 7.443991e-02 2.847007e+01 1.867559e-01 2.022623e+01 2.192886e-01 1.201557e+01 1.675413e-01 3.811935e+00 2.923636e-02 -4.385595e+00 -1.780860e-01 -1.254922e+01 -4.045858e-01 -2.069822e+01 -6.819529e-01 -2.886308e+01 -1.029277e+00 -3.704637e+01 -1.428552e+00 -4.520428e+01 -1.830371e+00 -5.334730e+01 -2.318741e+00 -6.150339e+01 -2.993553e+00 -6.972281e+01 -3.849696e+00 -7.802497e+01 -5.009224e+00 -8.639802e+01 -6.589622e+00 -9.485021e+01 -8.696688e+00 -1.034258e+02 -1.148160e+01 -1.122160e+02 
-1.595244e+01 -1.212632e+02 -2.128583e+01 -1.310861e+02 -2.849845e+01 1.356522e+02 -2.175894e+01 1.255496e+02 -1.657328e+01 1.157940e+02 -1.251795e+01 1.062845e+02 -9.298239e+00 9.697883e+01 -6.757368e+00 8.787347e+01 -4.794093e+00 7.896295e+01 -3.312119e+00 7.023789e+01 -2.230042e+00 6.166222e+01 -1.423868e+00 5.320282e+01 -8.212465e-01 4.483194e+01 -3.975516e-01 3.652509e+01 -1.314395e-01 2.827040e+01 3.216552e-03 2.006973e+01 4.826395e-02 1.190874e+01 5.887712e-03 3.766481e+00 -1.226981e-01 -4.364602e+00 -3.215073e-01 -1.247408e+01 -5.574985e-01 -2.057427e+01 -8.457023e-01 -2.868812e+01 -1.199364e+00 -3.682218e+01 -1.609206e+00 -4.495458e+01 -2.052161e+00 -5.309266e+01 -2.585033e+00 -6.126018e+01 -3.288618e+00 -6.948737e+01 -4.192392e+00 -7.779295e+01 -5.398583e+00 -8.617185e+01 -7.024970e+00 -9.463266e+01 -9.190635e+00 -1.032171e+02 -1.206476e+01 -1.120289e+02 
-1.655838e+01 -1.216497e+02 -2.212933e+01 -1.315242e+02 -2.964322e+01 1.366318e+02 -2.266672e+01 1.264733e+02 -1.728590e+01 1.166645e+02 -1.307269e+01 1.070994e+02 -9.723762e+00 9.773341e+01 -7.072930e+00 8.856653e+01 -5.014632e+00 7.959603e+01 -3.456275e+00 7.081390e+01 -2.312933e+00 6.218441e+01 -1.465461e+00 5.367136e+01 -8.377424e-01 4.524476e+01 -3.918991e-01 3.688119e+01 -1.005261e-01 2.857159e+01 6.129872e-02 2.031356e+01 1.265039e-01 1.209341e+01 1.050428e-01 3.894351e+00 2.940661e-03 -4.288364e+00 -1.665947e-01 -1.245125e+01 -3.824917e-01 -2.060480e+01 -6.553041e-01 -2.876640e+01 -9.960530e-01 -3.693936e+01 -1.402660e+00 -4.511257e+01 -1.870403e+00 -5.329234e+01 -2.451566e+00 -6.149771e+01 -3.210222e+00 -6.975643e+01 -4.191120e+00 -7.807964e+01 -5.488759e+00 -8.647186e+01 -7.212263e+00 -9.494661e+01 -9.485678e+00 -1.035449e+02 -1.249227e+01 -1.123769e+02 
-1.703121e+01 -1.214322e+02 -2.273771e+01 -1.313737e+02 -3.044684e+01 1.366879e+02 -2.332369e+01 1.264593e+02 -1.783987e+01 1.165962e+02 -1.355707e+01 1.069839e+02 -1.015831e+01 9.757276e+01 -7.467162e+00 8.836298e+01 -5.370964e+00 7.935355e+01 -3.771624e+00 7.053468e+01 -2.576186e+00 6.187980e+01 -1.685887e+00 5.336108e+01 -1.030088e+00 4.495060e+01 -5.658119e-01 3.662245e+01 -2.609569e-01 2.836005e+01 -8.657934e-02 2.015330e+01 -1.313633e-02 1.198869e+01 -2.854921e-02 3.850642e+00 -1.252246e-01 -4.269689e+00 -2.911673e-01 -1.237594e+01 -5.113669e-01 -2.047832e+01 -7.908488e-01 -2.859138e+01 -1.138030e+00 -3.672117e+01 -1.555085e+00 -4.486509e+01 -2.046388e+00 -5.302940e+01 -2.653309e+00 -6.122904e+01 -3.433953e+00 -6.948314e+01 -4.442679e+00 -7.780221e+01 -5.768246e+00 -8.619200e+01 -7.518885e+00 -9.466663e+01 -9.824240e+00 -1.032683e+02 -1.287972e+01 -1.121165e+02 
-1.736588e+01 -1.217508e+02 -2.321557e+01 -1.317144e+02 -3.110293e+01 1.373440e+02 -2.383910e+01 1.270926e+02 -1.823840e+01 1.172060e+02 -1.386007e+01 1.075682e+02 -1.038298e+01 9.812802e+01 -7.625770e+00 8.888594e+01 -5.473506e+00 7.984274e+01 -3.828506e+00 7.098894e+01 -2.597047e+00 6.229796e+01 -1.681562e+00 5.374030e+01 -1.009166e+00 4.528779e+01 -5.308799e-01 3.691600e+01 -2.106039e-01 2.860906e+01 -1.911295e-02 2.035545e+01 7.019236e-02 1.214198e+01 7.192950e-02 3.955512e+00 -4.186808e-03 -4.211609e+00 -1.478161e-01 -1.236466e+01 -3.493095e-01 -2.051297e+01 -6.134171e-01 -2.866792e+01 -9.486974e-01 -3.683464e+01 -1.361937e+00 -4.501398e+01 -1.865659e+00 -5.321236e+01 -2.500005e+00 -6.144282e+01 -3.317914e+00 -6.972193e+01 -4.377618e+00 -7.805883e+01 -5.764258e+00 -8.646169e+01 -7.581725e+00 -9.494650e+01 -9.960463e+00 -1.035565e+02 -1.310267e+01 -1.124159e+02 
-1.756209e+01 -1.214600e+02 -2.345302e+01 -1.314627e+02 -3.140675e+01 1.370850e+02 -2.409663e+01 1.267961e+02 -1.847025e+01 1.168836e+02 -1.408065e+01 1.072270e+02 -1.059864e+01 9.777171e+01 -7.837226e+00 8.851799e+01 -5.677303e+00 7.946743e+01 -4.017974e+00 7.061045e+01 -2.764930e+00 6.192497e+01 -1.829818e+00 5.338504e+01 -1.143541e+00 4.496386e+01 -6.561143e-01 3.663621e+01 -3.294513e-01 2.838232e+01 -1.325593e-01 2.018649e+01 -3.962797e-02 1.203397e+01 -3.516754e-02 3.910807e+00 -1.088742e-01 -4.193471e+00 -2.512778e-01 -1.228751e+01 -4.549360e-01 -2.038149e+01 -7.225662e-01 -2.848633e+01 -1.061550e+00 -3.660909e+01 -1.480500e+00 -4.475401e+01 -1.994724e+00 -5.292792e+01 -2.639878e+00 -6.114163e+01 -3.466399e+00 -6.940782e+01 -4.534543e+00 -7.773519e+01 -5.927169e+00 -8.613217e+01 -7.747501e+00 -9.461482e+01 -1.012826e+01 -1.032273e+02 -1.327755e+01 -1.120986e+02 
-1.761443e+01 -1.217342e+02 -2.355202e+01 -1.317304e+02 -3.155533e+01 1.374090e+02 -2.420635e+01 1.271304e+02 -1.854467e+01 1.172239e+02 -1.412375e+01 1.075705e+02 -1.061536e+01 9.811604e+01 -7.832002e+00 8.885983e+01 -5.653929e+00 7.980327e+01 -3.980304e+00 7.093602e+01 -2.716812e+00 6.223544e+01 -1.775420e+00 5.367488e+01 -1.085645e+00 4.522773e+01 -5.946147e-01 3.686991e+01 -2.620894e-01 2.858236e+01 -5.664860e-02 2.034950e+01 4.661642e-02 1.215729e+01 6.400899e-02 3.993319e+00 6.462180e-03 -4.151889e+00 -1.177147e-01 -1.228670e+01 -3.037323e-01 -2.042026e+01 -5.551072e-01 -2.856178e+01 -8.802356e-01 -3.671783e+01 -1.290663e+00 -4.489359e+01 -1.805590e+00 -5.309608e+01 -2.460768e+00 -6.133539e+01 -3.304946e+00 -6.962295e+01 -4.398885e+00 -7.796747e+01 -5.823160e+00 -8.637838e+01 -7.678385e+00 -9.487241e+01 -1.009636e+01 -1.034938e+02 -1.328588e+01 -1.123713e+02 
-1.752141e+01 -1.213746e+02 -2.340299e+01 -1.313820e+02 -3.133984e+01 1.368185e+02 -2.404929e+01 1.265351e+02 -1.844292e+01 1.166314e+02 -1.407199e+01 1.069874e+02 -1.060615e+01 9.754842e+01 -7.857327e+00 8.831313e+01 -5.704608e+00 7.928214e+01 -4.046238e+00 7.044446e+01 -2.789265e+00 6.177901e+01 -1.850636e+00 5.326053e+01 -1.162798e+00 4.486302e+01 -6.735539e-01 3.656199e+01 -3.424874e-01 2.833650e+01 -1.379049e-01 2.016883e+01 -3.531825e-02 1.204347e+01 -1.823457e-02 3.946809e+00 -7.563727e-02 -4.132526e+00 -1.997530e-01 -1.220473e+01 -3.865527e-01 -2.027988e+01 -6.386433e-01 -2.836762e+01 -9.636856e-01 -3.647583e+01 -1.373636e+00 -4.461127e+01 -1.888107e+00 -5.278146e+01 -2.540556e+00 -6.099557e+01 -3.377976e+00 -6.926359e+01 -4.460685e+00 -7.759421e+01 -5.867682e+00 -8.599723e+01 -7.698743e+00 -9.448956e+01 -1.008590e+01 -1.031151e+02 -1.323820e+01 -1.120011e+02 