# vtk DataFile Version 2.0
Comment goes here
ASCII

DATASET STRUCTURED_POINTS
FIELD FieldData 1
TIME 1 1 double
0.01400000
DIMENSIONS    64   64   1

ORIGIN    0.000   0.000   0.000
SPACING   0.03125 0.03125   1.000

POINT_DATA   4096
VECTORS u double

0.148547 -0.022274 0.000000 -0.621158 0.002342 0.000000 0.470628 0.002143 0.000000 -0.661408 -0.000856 0.000000 0.440686 -0.003478 0.000000 -0.570788 -0.004358 0.000000 0.308991 0.004183 0.000000 -0.419065 -0.003602 0.000000 0.153904 0.002658 0.000000 -0.250435 -0.003263 0.000000 0.002293 0.001710 0.000000 -0.095730 -0.003539 0.000000 -0.127003 0.001027 0.000000 0.028247 -0.004163 0.000000 -0.218698 0.000556 0.000000 0.111544 -0.004503 0.000000 -0.268676 0.000708 0.000000 0.148901 -0.003737 0.000000 -0.275465 0.001403 0.000000 0.143696 -0.003549 0.000000 -0.253376 0.001972 0.000000 0.121690 -0.003893 0.000000 -0.224631 0.003055 0.000000 0.097012 -0.003414 0.000000 -0.199250 0.002413 0.000000 0.077130 -0.002567 0.000000 -0.181998 0.002171 0.000000 0.066675 -0.002420 0.000000 -0.175957 0.001941 0.000000 0.068014 -0.002711 0.000000 -0.178798 0.002629 0.000000 0.072335 -0.002389 0.000000 -0.181269 0.001807 0.000000 0.071436 -0.001469 0.000000 -0.174653 0.001144 0.000000 0.058325 -0.000885 0.000000 -0.156903 0.000392 0.000000 0.039472 -0.000739 0.000000 -0.139928 0.000879 0.000000 0.029005 -0.000501 0.000000 -0.142221 0.000541 0.000000 0.040281 -0.000213 0.000000 -0.157243 0.000768 0.000000 0.044931 0.000311 0.000000 -0.144707 0.000073 0.000000 0.010828 0.000995 0.000000 -0.094696 0.000907 0.000000 -0.050038 0.002322 0.000000 -0.028986 0.000495 0.000000 -0.120175 0.004040 0.000000 0.030068 0.000422 0.000000 -0.166104 0.003913 0.000000 0.050459 -0.000278 0.000000 -0.163763 0.003534 0.000000 0.017405 -0.001393 0.000000 -0.111977 0.003475 0.000000 -0.054371 -0.002396 0.000000 -0.037576 0.003591 0.000000 -0.132513 -0.003043 0.000000 0.020662 0.003648 0.000000 -0.165509 -0.003872 0.000000 0.002031 0.004526 0.000000 -0.096016 -0.006231 0.000000 -0.134071 0.015692 0.000000 
0.019757 0.228474 0.000000 0.318293 -0.162112 0.000000 -0.383433 0.022007 0.000000 0.375710 0.010558 0.000000 -0.382209 -0.036578 0.000000 0.329194 0.063619 0.000000 -0.310519 -0.073636 0.000000 0.251435 0.075228 0.000000 -0.238530 -0.081585 0.000000 0.164305 0.073839 0.000000 -0.170614 -0.074299 0.000000 0.082632 0.063000 0.000000 -0.112031 -0.058338 0.000000 0.012171 0.044324 0.000000 -0.068933 -0.037414 0.000000 -0.041850 0.023382 0.000000 -0.042988 -0.014305 0.000000 -0.074248 0.001132 0.000000 -0.035638 0.006729 0.000000 -0.083315 -0.013289 0.000000 -0.042628 0.014597 0.000000 -0.083523 -0.016741 0.000000 -0.052042 0.015484 0.000000 -0.080336 -0.015255 0.000000 -0.058202 0.012954 0.000000 -0.080356 -0.011296 0.000000 -0.059195 0.008127 0.000000 -0.084489 -0.005609 0.000000 -0.054047 0.001972 0.000000 -0.096388 -0.000540 0.000000 -0.045087 -0.000413 0.000000 -0.106509 -0.000193 0.000000 -0.035985 0.001766 0.000000 -0.115401 -0.004242 0.000000 -0.030172 0.007123 0.000000 -0.117752 -0.008967 0.000000 -0.030849 0.009250 0.000000 -0.117209 -0.007884 0.000000 -0.031816 0.004532 0.000000 -0.120346 0.001765 0.000000 -0.018611 -0.006371 0.000000 -0.139708 0.008410 0.000000 0.005097 -0.004194 0.000000 -0.155517 -0.004261 0.000000 0.012394 0.014090 0.000000 -0.150435 -0.022766 0.000000 0.001234 0.026589 0.000000 -0.130630 -0.031131 0.000000 -0.013808 0.031041 0.000000 -0.107160 -0.028730 0.000000 -0.021681 0.018915 0.000000 -0.097059 -0.008987 0.000000 -0.009281 -0.005450 0.000000 -0.113010 0.018893 0.000000 0.031199 -0.030405 0.000000 -0.156502 0.039261 0.000000 0.092492 -0.041764 0.000000 -0.211195 0.042939 0.000000 0.156944 -0.033564 0.000000 -0.258419 0.020568 0.000000 0.197974 0.004961 0.000000 -0.264457 -0.030437 0.000000 0.182924 0.063498 0.000000 -0.199821 -0.118686 0.000000 
0.424340 -0.540388 0.000000 0.369381 0.405532 0.000000 0.022260 -0.055274 0.000000 0.411517 -0.002081 0.000000 0.061875 0.043037 0.000000 0.352451 -0.076048 0.000000 0.137542 0.081943 0.000000 0.250608 -0.075592 0.000000 0.264911 0.089788 0.000000 0.142769 -0.071178 0.000000 0.395018 0.083383 0.000000 0.048154 -0.062122 0.000000 0.510603 0.071488 0.000000 -0.024292 -0.047261 0.000000 0.601713 0.054577 0.000000 -0.069326 -0.030448 0.000000 0.665180 0.033106 0.000000 -0.086355 -0.011086 0.000000 0.692457 0.010470 0.000000 -0.077409 0.003440 0.000000 0.695822 0.002180 0.000000 -0.063021 0.005521 0.000000 0.694231 -0.000132 0.000000 -0.050653 0.002747 0.000000 0.692727 0.002433 0.000000 -0.041770 -0.001574 0.000000 0.692792 0.006304 0.000000 -0.038241 -0.007568 0.000000 0.699212 0.013840 0.000000 -0.045495 -0.011671 0.000000 0.712698 0.012751 0.000000 -0.055571 -0.011491 0.000000 0.724713 0.010699 0.000000 -0.061283 -0.007282 0.000000 0.727590 0.003494 0.000000 -0.057076 -0.000208 0.000000 0.721305 -0.000150 0.000000 -0.050275 0.000228 0.000000 0.716522 0.004016 0.000000 -0.051361 -0.013705 0.000000 0.726900 0.019902 0.000000 -0.070473 -0.023921 0.000000 0.746385 0.016577 0.000000 -0.085941 -0.006986 0.000000 0.744143 -0.005009 0.000000 -0.075998 0.012155 0.000000 0.714523 -0.018898 0.000000 -0.051511 0.017364 0.000000 0.670184 -0.022975 0.000000 -0.022664 0.011914 0.000000 0.621851 -0.009679 0.000000 -0.011988 -0.008487 0.000000 0.599728 0.015673 0.000000 -0.032634 -0.036947 0.000000 0.616504 0.042099 0.000000 -0.086041 -0.057818 0.000000 0.660659 0.052297 0.000000 -0.153579 -0.060860 0.000000 0.708203 0.044182 0.000000 -0.211060 -0.037382 0.000000 0.722879 0.002166 0.000000 -0.213822 0.019575 0.000000 0.662448 -0.070867 0.000000 -0.122772 0.178860 0.000000 
0.437247 -0.263679 0.000000 -0.224349 0.239968 0.000000 0.473011 -0.020128 0.000000 -0.205845 -0.029056 0.000000 0.094667 0.022487 0.000000 -0.163084 -0.012048 0.000000 0.372807 0.028208 0.000000 -0.114210 -0.052140 0.000000 0.546135 0.026253 0.000000 -0.072656 -0.056269 0.000000 0.665275 0.020317 0.000000 -0.038036 -0.052584 0.000000 0.755344 0.014108 0.000000 -0.005996 -0.046786 0.000000 0.832739 0.007620 0.000000 0.024340 -0.040085 0.000000 0.903380 0.002723 0.000000 0.044531 -0.026145 0.000000 0.958246 -0.002217 0.000000 0.050620 -0.016653 0.000000 1.004505 0.000209 0.000000 0.048657 -0.015150 0.000000 1.044012 0.003116 0.000000 0.042518 -0.013752 0.000000 1.073037 0.004071 0.000000 0.041284 -0.011361 0.000000 1.089269 0.004599 0.000000 0.044852 -0.012029 0.000000 1.098273 0.009226 0.000000 0.049710 -0.014025 0.000000 1.106901 0.009662 0.000000 0.050238 -0.012208 0.000000 1.112299 0.007478 0.000000 0.053786 -0.007119 0.000000 1.112369 0.002916 0.000000 0.056185 -0.002682 0.000000 1.115140 0.002449 0.000000 0.052586 -0.003102 0.000000 1.121875 0.005619 0.000000 0.048193 -0.008613 0.000000 1.116136 0.012741 0.000000 0.059318 -0.011075 0.000000 1.094093 0.011273 0.000000 0.072133 -0.002020 0.000000 1.078858 0.004147 0.000000 0.066418 0.006854 0.000000 1.074055 0.002102 0.000000 0.045717 0.013209 0.000000 1.061367 0.002194 0.000000 0.016717 0.019603 0.000000 1.027699 0.008239 0.000000 -0.009607 0.013135 0.000000 0.983164 0.015196 0.000000 -0.016092 0.002118 0.000000 0.923388 0.023002 0.000000 -0.000495 -0.004895 0.000000 0.845814 0.025774 0.000000 0.027986 -0.004605 0.000000 0.750322 0.023917 0.000000 0.063726 0.005892 0.000000 0.639147 0.007723 0.000000 0.093487 0.029994 0.000000 0.515180 -0.027552 0.000000 0.113872 0.119423 0.000000 
0.585490 -0.202167 0.000000 -0.122532 0.369768 0.000000 0.540274 -0.073778 0.000000 -0.107348 0.376263 0.000000 0.193499 0.000276 0.000000 -0.085393 -0.354187 0.000000 0.484327 0.033069 0.000000 -0.062815 -0.248920 0.000000 0.647265 0.048234 0.000000 -0.045868 -0.190318 0.000000 0.757840 0.048764 0.000000 -0.031784 -0.152192 0.000000 0.842369 0.039448 0.000000 -0.015463 -0.124655 0.000000 0.915422 0.024242 0.000000 0.006595 -0.101090 0.000000 0.984597 0.012915 0.000000 0.023976 -0.065953 0.000000 1.029193 0.004381 0.000000 0.034050 -0.042818 0.000000 1.063027 0.004143 0.000000 0.036339 -0.033986 0.000000 1.094789 0.006007 0.000000 0.033040 -0.026279 0.000000 1.118559 0.003667 0.000000 0.035216 -0.017806 0.000000 1.129333 0.002736 0.000000 0.042133 -0.016572 0.000000 1.135514 0.008982 0.000000 0.045237 -0.020299 0.000000 1.146114 0.012223 0.000000 0.042508 -0.016889 0.000000 1.153672 0.007151 0.000000 0.045245 -0.007351 0.000000 1.152134 0.001095 0.000000 0.050738 -0.002979 0.000000 1.151165 0.003449 0.000000 0.049051 -0.006508 0.000000 1.157266 0.008410 0.000000 0.043349 -0.007966 0.000000 1.155938 0.008777 0.000000 0.049460 -0.001878 0.000000 1.139703 0.003762 0.000000 0.059964 0.008248 0.000000 1.125084 0.000707 0.000000 0.057386 0.016959 0.000000 1.118281 0.001803 0.000000 0.043461 0.030052 0.000000 1.102175 0.006024 0.000000 0.023452 0.045582 0.000000 1.059677 0.016645 0.000000 -0.000936 0.036048 0.000000 1.018424 0.022158 0.000000 -0.011067 0.022829 0.000000 0.973818 0.026502 0.000000 -0.008049 0.019756 0.000000 0.920594 0.023815 0.000000 0.002624 0.034631 0.000000 0.854790 0.008442 0.000000 0.019457 0.073793 0.000000 0.773128 -0.027595 0.000000 0.036913 0.143542 0.000000 0.671306 -0.091253 0.000000 0.049670 0.256792 0.000000 
0.555173 -0.091476 0.000000 -0.107321 0.285184 0.000000 0.489477 -0.035312 0.000000 -0.127635 0.317719 0.000000 0.317881 0.000532 0.000000 -0.127974 -0.302877 0.000000 0.477178 0.005630 0.000000 -0.099005 -0.215078 0.000000 0.606233 0.009306 0.000000 -0.072084 -0.166844 0.000000 0.705271 0.006233 0.000000 -0.047316 -0.137114 0.000000 0.784796 -0.002213 0.000000 -0.021080 -0.119839 0.000000 0.858448 -0.014439 0.000000 0.013143 -0.109260 0.000000 0.940535 -0.014657 0.000000 0.036657 -0.070741 0.000000 0.983742 -0.012291 0.000000 0.051077 -0.050487 0.000000 1.015794 -0.002080 0.000000 0.050936 -0.046912 0.000000 1.054172 0.006415 0.000000 0.040398 -0.037522 0.000000 1.084228 0.001894 0.000000 0.040856 -0.022135 0.000000 1.093483 -0.002318 0.000000 0.051670 -0.018210 0.000000 1.097352 0.006123 0.000000 0.053349 -0.024625 0.000000 1.112906 0.012392 0.000000 0.045548 -0.019767 0.000000 1.124603 0.004740 0.000000 0.048457 -0.005581 0.000000 1.119700 -0.002577 0.000000 0.059303 -0.001714 0.000000 1.114342 0.004136 0.000000 0.058121 -0.009203 0.000000 1.122976 0.011321 0.000000 0.049018 -0.007285 0.000000 1.124982 0.006630 0.000000 0.054992 0.005161 0.000000 1.107109 0.000770 0.000000 0.069790 0.012599 0.000000 1.090113 0.006726 0.000000 0.068078 0.013657 0.000000 1.089394 0.016027 0.000000 0.050600 0.029314 0.000000 1.079122 0.022202 0.000000 0.028669 0.062102 0.000000 1.020142 0.032628 0.000000 -0.003312 0.054388 0.000000 0.972300 0.025328 0.000000 -0.011421 0.046724 0.000000 0.922739 0.019983 0.000000 -0.003219 0.048329 0.000000 0.862728 0.015101 0.000000 0.012445 0.061200 0.000000 0.790670 0.007084 0.000000 0.027954 0.087553 0.000000 0.709240 -0.009733 0.000000 0.031922 0.131816 0.000000 0.624802 -0.040309 0.000000 0.004798 0.205239 0.000000 
0.667339 -0.090048 0.000000 -0.058674 0.435464 0.000000 0.578219 -0.053464 0.000000 -0.070019 0.547859 0.000000 0.409292 0.000615 0.000000 -0.070251 -0.513484 0.000000 0.569761 0.004100 0.000000 -0.058137 -0.377975 0.000000 0.693926 0.021313 0.000000 -0.048416 -0.289355 0.000000 0.786685 0.023996 0.000000 -0.039911 -0.231717 0.000000 0.859221 0.013212 0.000000 -0.027591 -0.198307 0.000000 0.926166 -0.009981 0.000000 0.005841 -0.183177 0.000000 1.022703 -0.010599 0.000000 0.026793 -0.109160 0.000000 1.049551 -0.010038 0.000000 0.044785 -0.074870 0.000000 1.066581 0.004284 0.000000 0.044757 -0.072364 0.000000 1.103760 0.016544 0.000000 0.028233 -0.056334 0.000000 1.133827 0.003210 0.000000 0.031282 -0.027061 0.000000 1.133602 -0.008078 0.000000 0.050930 -0.020442 0.000000 1.129096 0.007303 0.000000 0.051253 -0.035853 0.000000 1.150582 0.020024 0.000000 0.034523 -0.028586 0.000000 1.167848 0.004242 0.000000 0.038234 -0.002448 0.000000 1.156410 -0.009750 0.000000 0.057780 0.002378 0.000000 1.143666 0.004630 0.000000 0.055953 -0.015141 0.000000 1.158833 0.017513 0.000000 0.038310 -0.009973 0.000000 1.168413 0.002804 0.000000 0.043831 0.015995 0.000000 1.147555 -0.011037 0.000000 0.066091 0.025245 0.000000 1.126143 0.002419 0.000000 0.066209 0.017678 0.000000 1.133760 0.019280 0.000000 0.049141 0.040324 0.000000 1.135141 0.027956 0.000000 0.034898 0.104562 0.000000 1.051560 0.048625 0.000000 -0.008201 0.083889 0.000000 1.010881 0.030268 0.000000 -0.016564 0.072390 0.000000 0.975587 0.018300 0.000000 -0.013137 0.079767 0.000000 0.933660 0.008151 0.000000 -0.005612 0.106690 0.000000 0.881517 -0.007066 0.000000 0.002362 0.155223 0.000000 0.818032 -0.031563 0.000000 0.005250 0.227980 0.000000 0.743898 -0.064128 0.000000 -0.007256 0.326421 0.000000 
0.667532 -0.040059 0.000000 -0.067494 0.374304 0.000000 0.607105 -0.023967 0.000000 -0.089850 0.486646 0.000000 0.522371 0.000764 0.000000 -0.090118 -0.463346 0.000000 0.609966 -0.006484 0.000000 -0.081130 -0.339243 0.000000 0.692746 -0.000415 0.000000 -0.068909 -0.259604 0.000000 0.761630 -0.002273 0.000000 -0.057719 -0.209649 0.000000 0.817493 -0.014532 0.000000 -0.044175 -0.186784 0.000000 0.874282 -0.047871 0.000000 0.010083 -0.205798 0.000000 1.012554 -0.035609 0.000000 0.036845 -0.097589 0.000000 1.017502 -0.030283 0.000000 0.064801 -0.067518 0.000000 1.017958 -0.002052 0.000000 0.061255 -0.084090 0.000000 1.068909 0.022939 0.000000 0.025443 -0.067589 0.000000 1.112412 -0.001155 0.000000 0.029387 -0.021910 0.000000 1.099933 -0.021966 0.000000 0.066646 -0.013704 0.000000 1.081546 0.005799 0.000000 0.064083 -0.046111 0.000000 1.118870 0.029122 0.000000 0.028197 -0.037033 0.000000 1.149773 0.001029 0.000000 0.034521 0.005858 0.000000 1.124411 -0.022123 0.000000 0.073485 0.011030 0.000000 1.096386 0.005963 0.000000 0.069147 -0.024370 0.000000 1.126876 0.028964 0.000000 0.032877 -0.016865 0.000000 1.150075 0.001110 0.000000 0.041309 0.026019 0.000000 1.116270 -0.021490 0.000000 0.083115 0.034011 0.000000 1.082158 0.006608 0.000000 0.083163 0.006040 0.000000 1.111265 0.033095 0.000000 0.057749 0.027932 0.000000 1.143381 0.036445 0.000000 0.051885 0.145683 0.000000 0.998390 0.075727 0.000000 -0.021813 0.095067 0.000000 0.961061 0.033691 0.000000 -0.023707 0.082018 0.000000 0.930334 0.016556 0.000000 -0.013707 0.090256 0.000000 0.889760 0.007576 0.000000 -0.003142 0.113342 0.000000 0.839378 -0.000889 0.000000 0.003055 0.151038 0.000000 0.782458 -0.012622 0.000000 -0.001381 0.205950 0.000000 0.723471 -0.027803 0.000000 -0.024205 0.281798 0.000000 
0.761075 -0.046759 0.000000 -0.041436 0.495891 0.000000 0.692875 -0.031108 0.000000 -0.053162 0.632593 0.000000 0.606296 0.000883 0.000000 -0.053379 -0.601080 0.000000 0.693020 -0.004889 0.000000 -0.051296 -0.460755 0.000000 0.772299 0.009093 0.000000 -0.049534 -0.358240 0.000000 0.835691 0.012805 0.000000 -0.051507 -0.287580 0.000000 0.881371 -0.000333 0.000000 -0.060461 -0.255096 0.000000 0.908795 -0.064239 0.000000 -0.074413 -0.321449 0.000000 0.926105 -0.037361 0.000000 -0.090070 -0.114108 0.000000 0.943575 -0.037995 0.000000 -0.100502 -0.075325 0.000000 0.960251 0.007831 0.000000 -0.104787 -0.123315 0.000000 0.972303 0.052356 0.000000 -0.106314 -0.099837 0.000000 0.982703 -0.000735 0.000000 -0.108458 -0.014582 0.000000 0.992796 -0.045337 0.000000 -0.110752 -0.002055 0.000000 0.999273 0.009866 0.000000 -0.110758 -0.073177 0.000000 1.002031 0.055911 0.000000 -0.109429 -0.059488 0.000000 1.004224 -0.002082 0.000000 -0.109161 0.022914 0.000000 1.007258 -0.048714 0.000000 -0.109627 0.030404 0.000000 1.008181 0.008968 0.000000 -0.108493 -0.045632 0.000000 1.006450 0.053783 0.000000 -0.105809 -0.033171 0.000000 1.003816 -0.005628 0.000000 -0.103175 0.049799 0.000000 1.001372 -0.052843 0.000000 -0.100531 0.059357 0.000000 0.997702 0.002371 0.000000 -0.095646 -0.011429 0.000000 0.994871 0.044694 0.000000 -0.085040 0.008208 0.000000 0.999365 0.033820 0.000000 -0.067164 0.249553 0.000000 0.997414 0.122322 0.000000 -0.051197 0.121219 0.000000 0.998450 0.032162 0.000000 -0.034159 0.103117 0.000000 0.984197 0.008300 0.000000 -0.022448 0.120341 0.000000 0.957069 -0.002414 0.000000 -0.014423 0.157073 0.000000 0.919595 -0.013263 0.000000 -0.009892 0.212143 0.000000 0.873322 -0.027128 0.000000 -0.010990 0.286966 0.000000 0.819768 -0.041304 0.000000 -0.021164 0.382360 0.000000 
0.782713 -0.019787 0.000000 -0.051598 0.442505 0.000000 0.746106 -0.012241 0.000000 -0.066862 0.573225 0.000000 0.709031 0.000981 0.000000 -0.067088 -0.550070 0.000000 0.749470 -0.008566 0.000000 -0.066484 -0.418522 0.000000 0.793757 -0.002178 0.000000 -0.064494 -0.322995 0.000000 0.830970 -0.000300 0.000000 -0.069906 -0.255330 0.000000 0.848060 -0.005578 0.000000 -0.105965 -0.214208 0.000000 0.806574 -0.033918 0.000000 -0.264722 -0.223107 0.000000 0.539773 -0.019952 0.000000 -0.367356 -0.115059 0.000000 0.596014 -0.019852 0.000000 -0.467437 -0.084194 0.000000 0.665189 0.002234 0.000000 -0.476367 -0.096141 0.000000 0.594064 0.024466 0.000000 -0.396343 -0.077989 0.000000 0.530860 0.000990 0.000000 -0.415555 -0.032003 0.000000 0.603244 -0.019673 0.000000 -0.518856 -0.020181 0.000000 0.678323 0.005806 0.000000 -0.515263 -0.048869 0.000000 0.598646 0.027793 0.000000 -0.420712 -0.039226 0.000000 0.528802 0.000761 0.000000 -0.434360 0.002824 0.000000 0.602821 -0.021657 0.000000 -0.534864 0.010106 0.000000 0.678829 0.004829 0.000000 -0.522691 -0.022638 0.000000 0.596330 0.026280 0.000000 -0.421629 -0.014231 0.000000 0.524031 -0.001524 0.000000 -0.431709 0.028463 0.000000 0.595685 -0.024135 0.000000 -0.529643 0.037682 0.000000 0.667675 0.001723 0.000000 -0.519377 0.008870 0.000000 0.581377 0.022489 0.000000 -0.426426 0.023438 0.000000 0.505940 0.018569 0.000000 -0.354316 0.147634 0.000000 0.866080 0.059759 0.000000 -0.114639 0.094032 0.000000 0.944922 0.016653 0.000000 -0.048341 0.096271 0.000000 0.948104 0.004845 0.000000 -0.024854 0.117384 0.000000 0.926753 -0.000449 0.000000 -0.014405 0.150817 0.000000 0.894737 -0.005420 0.000000 -0.011317 0.197311 0.000000 0.857738 -0.011524 0.000000 -0.016318 0.259504 0.000000 0.819521 -0.017628 0.000000 -0.030767 0.340491 0.000000 
0.863570 -0.025928 0.000000 -0.034115 0.532498 0.000000 0.824188 -0.015844 0.000000 -0.042171 0.669669 0.000000 0.785527 0.001109 0.000000 -0.042357 -0.641519 0.000000 0.824829 -0.005493 0.000000 -0.044212 -0.505042 0.000000 0.867071 0.007103 0.000000 -0.046773 -0.395453 0.000000 0.902399 0.018217 0.000000 -0.055427 -0.304671 0.000000 0.920736 0.035726 0.000000 -0.085351 -0.213610 0.000000 0.895953 0.094519 0.000000 -0.196106 -0.054647 0.000000 0.722983 0.065273 0.000000 -0.270843 -0.170349 0.000000 0.758490 0.062086 0.000000 -0.342610 -0.144500 0.000000 0.803816 0.016761 0.000000 -0.351698 -0.052191 0.000000 0.756296 -0.027668 0.000000 -0.300526 -0.036632 0.000000 0.713994 0.018477 0.000000 -0.315064 -0.086966 0.000000 0.762346 0.057964 0.000000 -0.385503 -0.077134 0.000000 0.812267 0.006272 0.000000 -0.383759 0.006499 0.000000 0.758582 -0.038640 0.000000 -0.320934 0.010355 0.000000 0.711722 0.011566 0.000000 -0.330810 -0.051105 0.000000 0.761611 0.051790 0.000000 -0.398816 -0.045605 0.000000 0.812385 -0.003204 0.000000 -0.390483 0.036868 0.000000 0.756451 -0.047279 0.000000 -0.322292 0.039128 0.000000 0.707654 0.004452 0.000000 -0.329087 -0.021855 0.000000 0.756126 0.045091 0.000000 -0.394745 -0.012634 0.000000 0.804546 -0.007894 0.000000 -0.386156 0.074869 0.000000 0.746289 -0.048257 0.000000 -0.319844 0.083645 0.000000 0.697434 -0.038290 0.000000 -0.265241 -0.110588 0.000000 0.943900 -0.117354 0.000000 -0.096976 0.042378 0.000000 1.001859 -0.034136 0.000000 -0.046742 0.099934 0.000000 1.005773 -0.015187 0.000000 -0.028178 0.141692 0.000000 0.990810 -0.012863 0.000000 -0.019827 0.189088 0.000000 0.966376 -0.016350 0.000000 -0.016579 0.249142 0.000000 0.935764 -0.022127 0.000000 -0.017931 0.325184 0.000000 0.900929 -0.026856 0.000000 -0.024235 0.419168 0.000000 
0.896726 -0.009907 0.000000 -0.041982 0.481886 0.000000 0.883925 -0.004185 0.000000 -0.051472 0.611886 0.000000 0.878575 0.001166 0.000000 -0.051645 -0.589372 0.000000 0.886292 -0.006711 0.000000 -0.053222 -0.460764 0.000000 0.902632 0.000383 0.000000 -0.052753 -0.358324 0.000000 0.921152 0.008355 0.000000 -0.051918 -0.273667 0.000000 0.939097 0.024346 0.000000 -0.047468 -0.189425 0.000000 0.964893 0.076837 0.000000 -0.005988 -0.050137 0.000000 1.067203 0.054785 0.000000 0.013297 -0.150567 0.000000 1.055810 0.051915 0.000000 0.035144 -0.129519 0.000000 1.043772 0.011321 0.000000 0.031082 -0.048621 0.000000 1.078180 -0.026705 0.000000 -0.000238 -0.035688 0.000000 1.108594 0.015528 0.000000 0.002487 -0.080355 0.000000 1.092985 0.050766 0.000000 0.033463 -0.070101 0.000000 1.073899 0.004062 0.000000 0.030373 0.004816 0.000000 1.103854 -0.035032 0.000000 -0.001229 0.007634 0.000000 1.129204 0.010637 0.000000 0.003423 -0.047065 0.000000 1.106837 0.046349 0.000000 0.036461 -0.040668 0.000000 1.082210 -0.003504 0.000000 0.033121 0.033295 0.000000 1.108282 -0.041911 0.000000 0.002121 0.034566 0.000000 1.129844 0.005270 0.000000 0.008556 -0.020009 0.000000 1.104236 0.041523 0.000000 0.044052 -0.010739 0.000000 1.078375 -0.006866 0.000000 0.046226 0.067128 0.000000 1.106353 -0.043823 0.000000 0.028896 0.072293 0.000000 1.138593 -0.036034 0.000000 0.028952 -0.098832 0.000000 1.021901 -0.108505 0.000000 -0.029315 0.036073 0.000000 1.001260 -0.033581 0.000000 -0.029272 0.092357 0.000000 0.989690 -0.013720 0.000000 -0.022783 0.132347 0.000000 0.974241 -0.008800 0.000000 -0.018286 0.175250 0.000000 0.955003 -0.008668 0.000000 -0.017610 0.227923 0.000000 0.934106 -0.010172 0.000000 -0.021715 0.294339 0.000000 0.913958 -0.011324 0.000000 -0.030591 0.377850 0.000000 
0.967540 -0.014537 0.000000 -0.028954 0.545300 0.000000 0.953862 -0.006354 0.000000 -0.033984 0.675019 0.000000 0.947713 0.001282 0.000000 -0.034121 -0.649236 0.000000 0.954426 -0.003916 0.000000 -0.036525 -0.521381 0.000000 0.969462 0.006634 0.000000 -0.038305 -0.413972 0.000000 0.987062 0.017382 0.000000 -0.039434 -0.322616 0.000000 1.005860 0.031276 0.000000 -0.034707 -0.239405 0.000000 1.035845 0.053039 0.000000 0.007907 -0.156958 0.000000 1.139377 0.045988 0.000000 0.031497 -0.158956 0.000000 1.130790 0.040239 0.000000 0.056233 -0.132462 0.000000 1.118331 0.020823 0.000000 0.053124 -0.086598 0.000000 1.151748 0.003653 0.000000 0.022461 -0.067046 0.000000 1.180695 0.015752 0.000000 0.026397 -0.071357 0.000000 1.162873 0.026988 0.000000 0.058864 -0.058047 0.000000 1.142635 0.009363 0.000000 0.056002 -0.023455 0.000000 1.172712 -0.007039 0.000000 0.024157 -0.014995 0.000000 1.197888 0.006914 0.000000 0.029486 -0.028738 0.000000 1.174272 0.018752 0.000000 0.063721 -0.020978 0.000000 1.149400 0.000135 0.000000 0.060245 0.010797 0.000000 1.176686 -0.016279 0.000000 0.028611 0.017566 0.000000 1.199137 -0.001982 0.000000 0.035643 0.003753 0.000000 1.173097 0.009595 0.000000 0.072549 0.013228 0.000000 1.147344 -0.010069 0.000000 0.074359 0.046891 0.000000 1.175853 -0.030927 0.000000 0.053467 0.051405 0.000000 1.204272 -0.038345 0.000000 0.046790 0.006105 0.000000 1.083411 -0.059086 0.000000 -0.019526 0.063018 0.000000 1.056728 -0.034180 0.000000 -0.026494 0.111505 0.000000 1.045529 -0.021676 0.000000 -0.023412 0.157141 0.000000 1.033763 -0.017360 0.000000 -0.020065 0.208327 0.000000 1.019159 -0.017026 0.000000 -0.018620 0.270038 0.000000 1.002263 -0.018022 0.000000 -0.019774 0.345332 0.000000 0.984444 -0.017980 0.000000 -0.023550 0.436400 0.000000 
1.005682 -0.004503 0.000000 -0.034448 0.495564 0.000000 1.013374 0.000845 0.000000 -0.040159 0.618034 0.000000 1.031553 0.001303 0.000000 -0.040271 -0.596085 0.000000 1.015169 -0.004307 0.000000 -0.042034 -0.475800 0.000000 1.009989 0.002163 0.000000 -0.041528 -0.375924 0.000000 1.012458 0.009483 0.000000 -0.037880 -0.292464 0.000000 1.022599 0.019619 0.000000 -0.026317 -0.219410 0.000000 1.047650 0.034223 0.000000 0.004756 -0.153669 0.000000 1.103731 0.031195 0.000000 0.027904 -0.141979 0.000000 1.109541 0.027179 0.000000 0.046519 -0.117060 0.000000 1.108170 0.014431 0.000000 0.047368 -0.082039 0.000000 1.127564 0.003957 0.000000 0.033377 -0.064634 0.000000 1.144144 0.011592 0.000000 0.035718 -0.062533 0.000000 1.136966 0.018299 0.000000 0.052256 -0.049864 0.000000 1.128789 0.006924 0.000000 0.051864 -0.025261 0.000000 1.144769 -0.003187 0.000000 0.036683 -0.017541 0.000000 1.158093 0.005307 0.000000 0.039403 -0.023449 0.000000 1.146696 0.012114 0.000000 0.056804 -0.015796 0.000000 1.134836 -0.000028 0.000000 0.056291 0.006010 0.000000 1.148219 -0.010278 0.000000 0.041332 0.012114 0.000000 1.159292 -0.001762 0.000000 0.045244 0.006031 0.000000 1.145994 0.004617 0.000000 0.064595 0.015014 0.000000 1.132831 -0.008676 0.000000 0.066724 0.038618 0.000000 1.144173 -0.022930 0.000000 0.052404 0.043874 0.000000 1.146282 -0.029357 0.000000 0.035691 0.022030 0.000000 1.079790 -0.042189 0.000000 -0.003724 0.062755 0.000000 1.049324 -0.026614 0.000000 -0.016651 0.103556 0.000000 1.035165 -0.016801 0.000000 -0.018654 0.144113 0.000000 1.025431 -0.012148 0.000000 -0.018309 0.189854 0.000000 1.016804 -0.010112 0.000000 -0.019092 0.244818 0.000000 1.009536 -0.009019 0.000000 -0.022274 0.312159 0.000000 1.005165 -0.007548 0.000000 -0.027817 0.394754 0.000000 
1.067919 -0.007906 0.000000 -0.024246 0.537608 0.000000 1.075476 -0.000643 0.000000 -0.027237 0.656840 0.000000 1.093389 0.001394 0.000000 -0.027317 -0.632852 0.000000 1.076092 -0.002153 0.000000 -0.029474 -0.516202 0.000000 1.069731 0.006129 0.000000 -0.030538 -0.416441 0.000000 1.070815 0.013734 0.000000 -0.029105 -0.332757 0.000000 1.079324 0.019713 0.000000 -0.020167 -0.264457 0.000000 1.101645 0.021967 0.000000 0.006487 -0.213038 0.000000 1.150574 0.022839 0.000000 0.027224 -0.164767 0.000000 1.155492 0.021625 0.000000 0.043379 -0.131091 0.000000 1.153674 0.019974 0.000000 0.043309 -0.105992 0.000000 1.169717 0.017644 0.000000 0.030555 -0.083627 0.000000 1.182835 0.013410 0.000000 0.032722 -0.064179 0.000000 1.175230 0.010449 0.000000 0.047265 -0.049870 0.000000 1.167471 0.009755 0.000000 0.046572 -0.039435 0.000000 1.181083 0.008142 0.000000 0.033190 -0.028319 0.000000 1.192104 0.004195 0.000000 0.035898 -0.017341 0.000000 1.181590 0.001351 0.000000 0.051295 -0.009118 0.000000 1.171372 0.000648 0.000000 0.050657 -0.002586 0.000000 1.183450 -0.001320 0.000000 0.037700 0.006493 0.000000 1.193227 -0.005894 0.000000 0.041672 0.017050 0.000000 1.181731 -0.009756 0.000000 0.058989 0.026392 0.000000 1.170941 -0.012198 0.000000 0.060819 0.035549 0.000000 1.181527 -0.016608 0.000000 0.047912 0.049296 0.000000 1.182756 -0.021632 0.000000 0.032175 0.072597 0.000000 1.124619 -0.019671 0.000000 -0.003759 0.093485 0.000000 1.097261 -0.021254 0.000000 -0.016627 0.125663 0.000000 1.085940 -0.019672 0.000000 -0.018938 0.166875 0.000000 1.079459 -0.017705 0.000000 -0.018377 0.216953 0.000000 1.074095 -0.016244 0.000000 -0.018015 0.277307 0.000000 1.069518 -0.014839 0.000000 -0.018906 0.349702 0.000000 1.066825 -0.012438 0.000000 -0.021164 0.435883 0.000000 
1.107062 -0.001420 0.000000 -0.027864 0.488007 0.000000 1.131802 0.003836 0.000000 -0.031236 0.600121 0.000000 1.168383 0.001383 0.000000 -0.031287 -0.578788 0.000000 1.133170 -0.002150 0.000000 -0.033104 -0.469439 0.000000 1.110086 0.003228 0.000000 -0.033415 -0.377007 0.000000 1.096308 0.008050 0.000000 -0.031554 -0.300974 0.000000 1.091068 0.010681 0.000000 -0.023871 -0.241731 0.000000 1.099462 0.007569 0.000000 0.005807 -0.202599 0.000000 1.151174 0.010457 0.000000 0.027037 -0.146897 0.000000 1.143072 0.011025 0.000000 0.045218 -0.115242 0.000000 1.133393 0.014501 0.000000 0.045121 -0.098082 0.000000 1.149759 0.016711 0.000000 0.029031 -0.077753 0.000000 1.163393 0.009425 0.000000 0.032761 -0.054927 0.000000 1.151303 0.003756 0.000000 0.051678 -0.042106 0.000000 1.139269 0.007617 0.000000 0.050180 -0.038872 0.000000 1.155734 0.010194 0.000000 0.032619 -0.028563 0.000000 1.168958 0.002599 0.000000 0.036556 -0.012935 0.000000 1.154938 -0.003283 0.000000 0.056117 -0.005578 0.000000 1.141324 0.000611 0.000000 0.054166 -0.006068 0.000000 1.157143 0.002679 0.000000 0.036653 0.002337 0.000000 1.169794 -0.005733 0.000000 0.041393 0.017527 0.000000 1.155336 -0.012701 0.000000 0.062086 0.025804 0.000000 1.141846 -0.010507 0.000000 0.062024 0.028033 0.000000 1.157864 -0.010023 0.000000 0.047026 0.042645 0.000000 1.170015 -0.013620 0.000000 0.037624 0.080167 0.000000 1.100403 -0.006255 0.000000 -0.005483 0.090113 0.000000 1.081470 -0.013746 0.000000 -0.015250 0.114876 0.000000 1.076350 -0.014490 0.000000 -0.016946 0.150595 0.000000 1.075493 -0.012709 0.000000 -0.017204 0.195217 0.000000 1.077144 -0.010475 0.000000 -0.018145 0.249396 0.000000 1.081889 -0.008127 0.000000 -0.020426 0.314852 0.000000 1.091213 -0.005291 0.000000 -0.023914 0.393660 0.000000 