# vtk DataFile Version 2.0
Comment goes here
ASCII

DATASET STRUCTURED_POINTS
FIELD FieldData 1
TIME 1 1 double
0.06900000
DIMENSIONS    64   64   1

ORIGIN    0.000   0.000   0.000
SPACING   0.03125 0.03125   1.000

POINT_DATA   4096
VECTORS u double

0.523550 -0.023394 0.000000 -1.674241 0.006496 0.000000 0.321209 0.008514 0.000000 -1.552731 -0.004279 0.000000 -0.008492 -0.005223 0.000000 -1.432689 -0.011574 0.000000 0.168808 0.012660 0.000000 -1.306133 -0.010447 0.000000 0.267963 0.006956 0.000000 -1.250492 -0.012765 0.000000 0.324340 0.001914 0.000000 -1.203137 -0.015648 0.000000 0.332403 -0.003637 0.000000 -1.127740 -0.018515 0.000000 0.286997 -0.007781 0.000000 -1.011951 -0.019780 0.000000 0.193439 -0.004324 0.000000 -0.855317 -0.020269 0.000000 0.060083 -0.000283 0.000000 -0.669034 -0.012004 0.000000 -0.107666 0.005260 0.000000 -0.465846 -0.010521 0.000000 -0.304698 0.008241 0.000000 -0.241752 -0.006766 0.000000 -0.523306 0.007381 0.000000 -0.005652 -0.007596 0.000000 -0.747113 0.002751 0.000000 0.224547 -0.009134 0.000000 -0.947936 0.006513 0.000000 0.416338 -0.008355 0.000000 -1.097829 0.009895 0.000000 0.555173 -0.005161 0.000000 -1.196191 0.006206 0.000000 0.644594 -0.005815 0.000000 -1.255680 0.000656 0.000000 0.711460 -0.007425 0.000000 -1.305407 0.005120 0.000000 0.776239 -0.006606 0.000000 -1.355732 0.008860 0.000000 0.829801 -0.004289 0.000000 -1.382223 0.005616 0.000000 0.837701 -0.003143 0.000000 -1.356699 -0.000166 0.000000 0.784707 -0.001459 0.000000 -1.272315 0.004971 0.000000 0.663705 0.001600 0.000000 -1.125699 0.010284 0.000000 0.478281 0.005424 0.000000 -0.931657 0.011093 0.000000 0.235904 0.005643 0.000000 -0.700011 0.007318 0.000000 -0.051237 0.006284 0.000000 -0.441094 0.001556 0.000000 -0.362345 0.005440 0.000000 -0.176062 -0.002076 0.000000 -0.678247 0.004489 0.000000 0.079509 -0.004460 0.000000 -0.988957 0.004265 0.000000 0.319046 -0.006120 0.000000 -1.293532 0.004581 0.000000 0.534049 -0.007144 0.000000 -1.581203 0.004704 0.000000 0.698166 -0.008308 0.000000 -1.805903 0.009514 0.000000 
-0.238913 -0.089393 0.000000 0.290351 0.094889 0.000000 -0.040994 -0.057210 0.000000 0.236269 0.155262 0.000000 0.312054 -0.041059 0.000000 0.168246 -0.094114 0.000000 -0.033838 -0.057588 0.000000 0.062994 -0.055631 0.000000 -0.227626 -0.017419 0.000000 0.029043 -0.032506 0.000000 -0.353130 -0.009802 0.000000 0.009163 -0.005881 0.000000 -0.431311 -0.020648 0.000000 -0.026637 0.023581 0.000000 -0.471445 -0.039314 0.000000 -0.089318 0.048980 0.000000 -0.480618 -0.064307 0.000000 -0.177595 0.068072 0.000000 -0.469671 -0.081575 0.000000 -0.274793 0.079017 0.000000 -0.424336 -0.092620 0.000000 -0.369290 0.093515 0.000000 -0.352463 -0.104768 0.000000 -0.473307 0.100851 0.000000 -0.261157 -0.109152 0.000000 -0.584980 0.103684 0.000000 -0.164778 -0.102147 0.000000 -0.698446 0.093031 0.000000 -0.083431 -0.086555 0.000000 -0.791248 0.067606 0.000000 -0.025020 -0.064421 0.000000 -0.856158 0.041170 0.000000 0.010213 -0.037560 0.000000 -0.896651 0.022747 0.000000 0.023566 -0.022153 0.000000 -0.929794 0.018961 0.000000 0.028669 -0.025178 0.000000 -0.958231 0.019383 0.000000 0.037220 -0.023971 0.000000 -0.978946 0.007162 0.000000 0.038269 0.000875 0.000000 -0.975072 -0.018627 0.000000 0.014940 0.034319 0.000000 -0.943458 -0.047375 0.000000 -0.036099 0.062431 0.000000 -0.868608 -0.078820 0.000000 -0.110266 0.087737 0.000000 -0.754962 -0.101593 0.000000 -0.196498 0.113673 0.000000 -0.605399 -0.116836 0.000000 -0.289040 0.136690 0.000000 -0.433124 -0.128475 0.000000 -0.388867 0.150774 0.000000 -0.250687 -0.128779 0.000000 -0.488738 0.153303 0.000000 -0.067460 -0.121631 0.000000 -0.580361 0.149852 0.000000 0.110360 -0.111896 0.000000 -0.655867 0.145780 0.000000 0.282058 -0.098436 0.000000 -0.702797 0.136232 0.000000 0.435268 -0.071459 0.000000 -0.689691 0.103050 0.000000 0.519333 0.098901 0.000000 
1.815089 0.205587 0.000000 0.532738 -0.191422 0.000000 1.447530 0.062596 0.000000 0.465910 -0.357327 0.000000 1.067084 0.062800 0.000000 0.391320 0.334317 0.000000 1.781469 0.117912 0.000000 0.446508 0.183342 0.000000 2.163175 0.040906 0.000000 0.447169 0.112739 0.000000 2.417038 0.021794 0.000000 0.421884 0.062533 0.000000 2.626990 0.032164 0.000000 0.385025 0.021619 0.000000 2.831442 0.054900 0.000000 0.346103 -0.010607 0.000000 3.039221 0.083953 0.000000 0.299393 -0.031216 0.000000 3.270060 0.096915 0.000000 0.218357 -0.057339 0.000000 3.464246 0.099757 0.000000 0.102916 -0.082394 0.000000 3.636691 0.112258 0.000000 -0.029920 -0.098072 0.000000 3.799128 0.119054 0.000000 -0.168246 -0.103975 0.000000 3.962826 0.116217 0.000000 -0.294914 -0.090481 0.000000 4.124130 0.099315 0.000000 -0.397991 -0.066767 0.000000 4.241224 0.074805 0.000000 -0.465611 -0.040394 0.000000 4.306456 0.046700 0.000000 -0.488267 -0.019168 0.000000 4.345185 0.033799 0.000000 -0.484349 -0.012528 0.000000 4.390817 0.033558 0.000000 -0.487239 -0.015157 0.000000 4.430188 0.029575 0.000000 -0.495019 -0.005339 0.000000 4.433335 0.001742 0.000000 -0.469101 0.020187 0.000000 4.394904 -0.031780 0.000000 -0.403180 0.049581 0.000000 4.321337 -0.069879 0.000000 -0.318118 0.075766 0.000000 4.189643 -0.103361 0.000000 -0.226775 0.091656 0.000000 3.993583 -0.138471 0.000000 -0.120655 0.098184 0.000000 3.737762 -0.164957 0.000000 0.010681 0.106112 0.000000 3.448875 -0.180880 0.000000 0.158595 0.105310 0.000000 3.149277 -0.185304 0.000000 0.308483 0.096111 0.000000 2.848211 -0.182280 0.000000 0.455936 0.079772 0.000000 2.539115 -0.177818 0.000000 0.600500 0.051511 0.000000 2.208078 -0.160354 0.000000 0.742460 -0.008401 0.000000 1.846521 -0.092373 0.000000 0.815190 -0.441265 0.000000 
3.839318 0.193059 0.000000 -0.018887 0.462448 0.000000 2.954977 0.009618 0.000000 -0.299123 0.535707 0.000000 1.507340 0.033531 0.000000 -0.243248 -0.808498 0.000000 3.347072 -0.112776 0.000000 -0.138439 -0.437337 0.000000 4.278780 -0.018080 0.000000 -0.130479 -0.286368 0.000000 4.899217 0.015483 0.000000 -0.130187 -0.215834 0.000000 5.371721 0.016211 0.000000 -0.087891 -0.180871 0.000000 5.759187 -0.000392 0.000000 0.023465 -0.158799 0.000000 6.079690 -0.017597 0.000000 0.203487 -0.162767 0.000000 6.374426 -0.000539 0.000000 0.341810 -0.115170 0.000000 6.556008 0.022821 0.000000 0.424180 -0.078929 0.000000 6.662101 0.028068 0.000000 0.493390 -0.061586 0.000000 6.701844 0.029174 0.000000 0.554484 -0.060015 0.000000 6.729188 0.024522 0.000000 0.603581 -0.068273 0.000000 6.789283 0.016522 0.000000 0.638521 -0.049488 0.000000 6.832010 0.003198 0.000000 0.668778 -0.024062 0.000000 6.840194 -0.014904 0.000000 0.687376 -0.015982 0.000000 6.853554 -0.026071 0.000000 0.701292 -0.026671 0.000000 6.895430 -0.022288 0.000000 0.719037 -0.019989 0.000000 6.899593 -0.016191 0.000000 0.749620 0.004014 0.000000 6.855986 -0.025042 0.000000 0.776992 0.019805 0.000000 6.811070 -0.031602 0.000000 0.794318 0.026192 0.000000 6.791878 -0.022631 0.000000 0.787492 0.052874 0.000000 6.733127 -0.003605 0.000000 0.754199 0.094467 0.000000 6.610777 0.007553 0.000000 0.691352 0.138985 0.000000 6.445741 0.005354 0.000000 0.585718 0.160412 0.000000 6.239093 0.002860 0.000000 0.468833 0.170820 0.000000 6.020095 0.003416 0.000000 0.361911 0.179435 0.000000 5.787290 0.002399 0.000000 0.275071 0.197201 0.000000 5.519226 0.001216 0.000000 0.193583 0.232601 0.000000 5.185928 -0.005728 0.000000 0.098353 0.290098 0.000000 4.746239 0.030320 0.000000 -0.011742 0.130334 0.000000 
3.975516 0.212732 0.000000 0.141010 0.692919 0.000000 3.239104 0.342832 0.000000 -0.164168 1.090310 0.000000 2.091859 0.006925 0.000000 -0.141725 -1.505415 0.000000 3.421856 0.013103 0.000000 -0.198500 -0.748366 0.000000 4.295615 0.032947 0.000000 -0.184161 -0.507698 0.000000 4.909412 0.021502 0.000000 -0.165125 -0.409971 0.000000 5.385794 -0.010133 0.000000 -0.126180 -0.365847 0.000000 5.791060 -0.056455 0.000000 -0.007210 -0.331110 0.000000 6.104360 -0.096070 0.000000 0.252010 -0.325952 0.000000 6.454081 -0.041408 0.000000 0.401132 -0.238921 0.000000 6.646073 0.017386 0.000000 0.465755 -0.188487 0.000000 6.747303 0.043048 0.000000 0.525378 -0.137815 0.000000 6.798282 0.057960 0.000000 0.567430 -0.131319 0.000000 6.847361 0.067120 0.000000 0.583792 -0.150577 0.000000 6.935413 0.064375 0.000000 0.607086 -0.109494 0.000000 6.972958 0.044548 0.000000 0.643924 -0.048577 0.000000 6.969889 0.028102 0.000000 0.660967 -0.032528 0.000000 6.970560 0.019882 0.000000 0.657962 -0.054404 0.000000 7.015700 0.015813 0.000000 0.669216 -0.019321 0.000000 7.009070 -0.001008 0.000000 0.705572 0.038269 0.000000 6.958902 -0.025630 0.000000 0.732008 0.065103 0.000000 6.906232 -0.049106 0.000000 0.740260 0.068773 0.000000 6.890407 -0.063053 0.000000 0.744422 0.134517 0.000000 6.819429 -0.070069 0.000000 0.734900 0.214006 0.000000 6.683036 -0.075623 0.000000 0.692681 0.263220 0.000000 6.471863 -0.059323 0.000000 0.608922 0.312760 0.000000 6.227409 -0.063995 0.000000 0.497886 0.324309 0.000000 5.983152 -0.078382 0.000000 0.404801 0.328916 0.000000 5.739612 -0.095441 0.000000 0.345444 0.347836 0.000000 5.464735 -0.096330 0.000000 0.303327 0.384809 0.000000 5.127522 -0.065124 0.000000 0.242876 0.431287 0.000000 4.711073 0.017722 0.000000 0.163918 0.465655 0.000000 
4.288417 0.215967 0.000000 -0.043401 1.198861 0.000000 3.575860 0.314796 0.000000 -0.124360 1.682952 0.000000 2.634732 0.011088 0.000000 -0.133117 -2.138494 0.000000 3.584007 -0.056002 0.000000 -0.154699 -1.311097 0.000000 4.414699 -0.032419 0.000000 -0.154521 -0.900165 0.000000 5.016510 -0.003553 0.000000 -0.173925 -0.692216 0.000000 5.484324 -0.022735 0.000000 -0.195624 -0.586137 0.000000 5.907463 -0.119361 0.000000 -0.132423 -0.472099 0.000000 6.251710 -0.276817 0.000000 0.331890 -0.512488 0.000000 6.578168 -0.149660 0.000000 0.466790 -0.307162 0.000000 6.719498 -0.041802 0.000000 0.451819 -0.180159 0.000000 6.817537 -0.031555 0.000000 0.513558 -0.112565 0.000000 6.837591 -0.012878 0.000000 0.588531 -0.109093 0.000000 6.857376 0.008159 0.000000 0.625259 -0.156326 0.000000 6.960072 -0.006772 0.000000 0.618041 -0.087033 0.000000 6.996675 -0.033640 0.000000 0.668032 -0.020992 0.000000 6.965189 -0.031947 0.000000 0.718083 -0.016653 0.000000 6.946609 -0.023065 0.000000 0.734565 -0.071810 0.000000 7.019235 -0.033543 0.000000 0.716237 -0.013359 0.000000 7.019079 -0.052547 0.000000 0.762125 0.054183 0.000000 6.951068 -0.051478 0.000000 0.812684 0.072474 0.000000 6.895160 -0.039855 0.000000 0.829359 0.042017 0.000000 6.926057 -0.026792 0.000000 0.810883 0.123852 0.000000 6.860918 0.005916 0.000000 0.828611 0.230860 0.000000 6.700618 0.049772 0.000000 0.827036 0.350158 0.000000 6.514173 0.089113 0.000000 0.656284 0.404866 0.000000 6.262651 0.113896 0.000000 0.472360 0.415077 0.000000 6.045505 0.096501 0.000000 0.337526 0.422975 0.000000 5.842836 0.061756 0.000000 0.251760 0.472078 0.000000 5.607221 0.043333 0.000000 0.180898 0.569815 0.000000 5.300569 0.054723 0.000000 0.101655 0.706547 0.000000 4.885191 0.109278 0.000000 0.009487 0.865890 0.000000 
4.489361 0.265620 0.000000 0.092280 1.405476 0.000000 3.925841 0.423790 0.000000 0.016512 2.031438 0.000000 3.174847 0.015682 0.000000 0.007826 -2.454690 0.000000 3.820617 0.034686 0.000000 -0.072578 -1.579057 0.000000 4.467899 0.032768 0.000000 -0.105811 -1.109510 0.000000 4.986505 0.040906 0.000000 -0.147580 -0.877784 0.000000 5.405637 0.011566 0.000000 -0.273202 -0.788985 0.000000 5.847139 -0.119656 0.000000 -0.417130 -0.675357 0.000000 6.229567 -0.560383 0.000000 0.528464 -0.652410 0.000000 6.622330 -0.176308 0.000000 0.603218 -0.380251 0.000000 6.716613 0.032357 0.000000 0.413808 -0.286526 0.000000 6.782572 -0.018690 0.000000 0.521438 -0.157869 0.000000 6.799039 -0.017013 0.000000 0.611986 -0.151103 0.000000 6.821656 0.030391 0.000000 0.598747 -0.253273 0.000000 6.996835 0.071593 0.000000 0.524464 -0.146098 0.000000 7.023722 -0.005442 0.000000 0.630534 -0.017090 0.000000 6.973641 -0.021949 0.000000 0.700087 -0.013948 0.000000 6.939091 0.003400 0.000000 0.676922 -0.127029 0.000000 7.070367 0.034142 0.000000 0.591287 -0.019165 0.000000 7.065920 -0.046896 0.000000 0.689319 0.106280 0.000000 6.980965 -0.076189 0.000000 0.760198 0.121011 0.000000 6.907816 -0.065781 0.000000 0.749683 0.037876 0.000000 6.994544 -0.044577 0.000000 0.688805 0.199656 0.000000 6.947711 -0.087796 0.000000 0.776143 0.374305 0.000000 6.793274 -0.074048 0.000000 0.830028 0.449665 0.000000 6.505465 0.111429 0.000000 0.648442 0.564282 0.000000 6.205228 0.119930 0.000000 0.429294 0.541455 0.000000 5.995638 0.056452 0.000000 0.317794 0.531585 0.000000 5.821174 -0.009675 0.000000 0.279237 0.583451 0.000000 5.611309 -0.025467 0.000000 0.253623 0.691461 0.000000 5.337156 0.014119 0.000000 0.214518 0.846665 0.000000 4.978504 0.109890 0.000000 0.158813 1.062429 0.000000 
4.809869 0.282500 0.000000 0.021725 1.762381 0.000000 4.306832 0.390564 0.000000 0.026567 2.433946 0.000000 3.677127 0.019774 0.000000 0.018309 -2.784264 0.000000 4.129633 0.024403 0.000000 -0.023631 -1.958379 0.000000 4.650857 0.000814 0.000000 -0.043850 -1.418771 0.000000 5.098904 0.038216 0.000000 -0.093235 -1.111348 0.000000 5.472069 0.102887 0.000000 -0.261628 -1.027639 0.000000 5.875946 0.024568 0.000000 -0.479310 -0.854526 0.000000 6.328374 -1.222411 0.000000 0.437807 -0.905251 0.000000 6.618198 -0.224415 0.000000 0.465907 -0.401446 0.000000 6.706120 0.147608 0.000000 0.155762 -0.246117 0.000000 6.803363 -0.139185 0.000000 0.377396 -0.129033 0.000000 6.789831 -0.103427 0.000000 0.575847 -0.131710 0.000000 6.786786 0.021399 0.000000 0.588465 -0.331505 0.000000 7.024657 0.067511 0.000000 0.379076 -0.113920 0.000000 7.012243 -0.139710 0.000000 0.599209 0.029089 0.000000 6.917187 -0.101500 0.000000 0.759808 0.017896 0.000000 6.864043 0.000100 0.000000 0.736744 -0.203085 0.000000 7.089722 0.052093 0.000000 0.505813 -0.008913 0.000000 7.034870 -0.150579 0.000000 0.727644 0.139138 0.000000 6.911115 -0.122357 0.000000 0.875446 0.145623 0.000000 6.838289 -0.029339 0.000000 0.820690 -0.044711 0.000000 7.080611 0.034086 0.000000 0.582066 0.170684 0.000000 7.004564 -0.081422 0.000000 0.896968 0.385297 0.000000 6.759370 -0.004114 0.000000 1.409025 0.637968 0.000000 6.627907 0.270699 0.000000 0.792164 0.705103 0.000000 6.192933 0.333044 0.000000 0.294168 0.624667 0.000000 6.057283 0.208001 0.000000 0.197963 0.597439 0.000000 5.954385 0.100313 0.000000 0.186752 0.681943 0.000000 5.785969 0.068947 0.000000 0.161762 0.843967 0.000000 5.544899 0.093829 0.000000 0.117216 1.065199 0.000000 5.224392 0.164983 0.000000 0.064404 1.355033 0.000000 
5.059677 0.308299 0.000000 0.127466 1.908513 0.000000 4.671791 0.418948 0.000000 0.132741 2.661142 0.000000 4.174154 0.023940 0.000000 0.124713 -2.907197 0.000000 4.469841 0.076626 0.000000 0.081032 -2.100281 0.000000 4.835680 0.052987 0.000000 0.073450 -1.557557 0.000000 5.178662 0.090292 0.000000 0.119602 -1.250949 0.000000 5.421090 0.179959 0.000000 0.219241 -1.192862 0.000000 5.445372 0.098026 0.000000 0.218476 -1.127785 0.000000 5.394670 -1.477499 0.000000 -0.985573 -0.942234 0.000000 5.170915 -0.204408 0.000000 -1.107919 -0.468173 0.000000 5.333514 0.342502 0.000000 -0.888850 -0.383769 0.000000 5.603043 -0.240324 0.000000 -0.888681 -0.144336 0.000000 5.806406 -0.215464 0.000000 -0.783625 -0.148059 0.000000 5.890468 0.017773 0.000000 -0.593477 -0.491144 0.000000 5.811325 0.280982 0.000000 -0.543439 -0.133684 0.000000 5.926630 -0.225575 0.000000 -0.568901 0.077966 0.000000 6.007774 -0.182548 0.000000 -0.479967 0.039196 0.000000 6.022958 0.026465 0.000000 -0.332384 -0.352709 0.000000 5.930226 0.265072 0.000000 -0.327569 0.035688 0.000000 6.007038 -0.268728 0.000000 -0.337591 0.230035 0.000000 6.033464 -0.223992 0.000000 -0.234873 0.193837 0.000000 6.023533 -0.011025 0.000000 -0.092210 -0.204446 0.000000 5.976538 0.194047 0.000000 -0.096782 0.275703 0.000000 6.103732 -0.402699 0.000000 0.080053 0.619499 0.000000 6.190293 -0.586105 0.000000 0.680402 0.581129 0.000000 5.963269 0.728289 0.000000 0.172537 0.999255 0.000000 5.962786 0.617926 0.000000 0.050518 0.677105 0.000000 6.032656 0.152657 0.000000 0.132351 0.634484 0.000000 5.987430 0.001536 0.000000 0.192782 0.751867 0.000000 5.847549 -0.000477 0.000000 0.208185 0.932531 0.000000 5.644303 0.058665 0.000000 0.193260 1.167172 0.000000 5.383701 0.162702 0.000000 0.161288 1.476952 0.000000 
5.371016 0.316322 0.000000 0.090233 2.150267 0.000000 5.041930 0.385289 0.000000 0.132841 2.931583 0.000000 4.636160 0.027802 0.000000 0.125410 -3.079951 0.000000 4.822573 0.068084 0.000000 0.105257 -2.324217 0.000000 5.077557 0.008397 0.000000 0.139460 -1.761753 0.000000 5.298926 -0.007936 0.000000 0.299136 -1.353776 0.000000 5.321622 0.003247 0.000000 0.648175 -1.051921 0.000000 4.868713 0.025333 0.000000 0.824119 -0.803824 0.000000 4.106683 -0.018362 0.000000 -2.216131 -0.681495 0.000000 3.478892 -0.102069 0.000000 -2.625527 -0.564045 0.000000 3.561983 -0.071460 0.000000 -1.926676 -0.515647 0.000000 3.540947 -0.139354 0.000000 -2.345185 -0.332395 0.000000 3.894163 -0.208484 0.000000 -2.747662 -0.215772 0.000000 4.130000 -0.168749 0.000000 -2.753198 -0.252363 0.000000 3.623166 0.017473 0.000000 -2.127476 -0.229225 0.000000 3.583890 -0.114248 0.000000 -2.452419 -0.052055 0.000000 3.958209 -0.190435 0.000000 -2.766104 0.002712 0.000000 4.198451 -0.147483 0.000000 -2.733554 -0.110354 0.000000 3.657963 0.047278 0.000000 -2.059359 -0.085724 0.000000 3.618123 -0.140557 0.000000 -2.357401 0.112712 0.000000 3.976679 -0.225075 0.000000 -2.651559 0.155554 0.000000 4.203709 -0.172002 0.000000 -2.605040 0.002284 0.000000 3.645132 0.038658 0.000000 -1.967386 0.043491 0.000000 3.684991 -0.258257 0.000000 -2.418661 0.298736 0.000000 4.258850 -0.604462 0.000000 -3.523531 0.864992 0.000000 5.142699 0.778564 0.000000 -1.544205 0.705585 0.000000 6.111779 0.455063 0.000000 -0.262186 0.554797 0.000000 6.290061 0.126169 0.000000 0.102777 0.642665 0.000000 6.197811 0.039881 0.000000 0.165966 0.821824 0.000000 6.046070 0.053544 0.000000 0.157269 1.047213 0.000000 5.863328 0.108754 0.000000 0.130949 1.325801 0.000000 5.641131 0.196955 0.000000 0.103008 1.679056 0.000000 
5.631237 0.321073 0.000000 0.172935 2.237599 0.000000 5.392343 0.376341 0.000000 0.215168 3.066913 0.000000 5.091107 0.031371 0.000000 0.208355 -3.093610 0.000000 5.174009 0.096779 0.000000 0.174107 -2.355265 0.000000 5.312565 0.018784 0.000000 0.167039 -1.778926 0.000000 5.448216 -0.069384 0.000000 0.245087 -1.273646 0.000000 5.472192 -0.169080 0.000000 0.450336 -0.739952 0.000000 5.274437 -0.077918 0.000000 0.590434 -0.365755 0.000000 5.171724 1.562751 0.000000 -0.517088 -0.314443 0.000000 4.713512 0.204988 0.000000 -0.857406 -0.551265 0.000000 4.605401 -0.356349 0.000000 -0.730590 -0.362732 0.000000 4.616298 0.178186 0.000000 -1.087648 -0.497553 0.000000 4.755356 0.187013 0.000000 -1.434599 -0.383896 0.000000 4.851893 0.023309 0.000000 -1.492660 0.015690 0.000000 4.521284 -0.344741 0.000000 -1.276336 -0.094408 0.000000 4.526090 0.099368 0.000000 -1.580352 -0.296354 0.000000 4.740643 0.131137 0.000000 -1.844918 -0.201046 0.000000 4.880806 -0.006085 0.000000 -1.823900 0.187780 0.000000 4.504256 -0.409123 0.000000 -1.507780 0.075527 0.000000 4.509370 0.029314 0.000000 -1.803454 -0.128521 0.000000 4.740646 0.070167 0.000000 -2.068871 -0.033193 0.000000 4.884348 -0.057545 0.000000 -2.037317 0.354131 0.000000 4.447401 -0.443606 0.000000 -1.706929 0.235844 0.000000 4.456242 0.048576 0.000000 -2.177527 0.045640 0.000000 4.800125 0.518765 0.000000 -3.002976 -0.302721 0.000000 5.445697 -1.251037 0.000000 -1.548504 0.030175 0.000000 6.189808 -0.664094 0.000000 -0.346101 0.498823 0.000000 6.335189 -0.212306 0.000000 0.069174 0.726733 0.000000 6.256294 -0.061654 0.000000 0.173922 0.903607 0.000000 6.133000 0.008221 0.000000 0.193134 1.115274 0.000000 5.991551 0.084985 0.000000 0.187786 1.389369 0.000000 5.826363 0.190643 0.000000 0.175558 1.747067 0.000000 
5.922698 0.318945 0.000000 0.147650 2.389161 0.000000 5.737494 0.343055 0.000000 0.205781 3.232819 0.000000 5.513061 0.034615 0.000000 0.199876 -3.162854 0.000000 5.525190 0.102332 0.000000 0.159862 -2.462773 0.000000 5.597603 0.015464 0.000000 0.104504 -1.897403 0.000000 5.709022 -0.085984 0.000000 0.018289 -1.377753 0.000000 5.848430 -0.202001 0.000000 -0.160268 -0.854166 0.000000 6.098970 -0.114765 0.000000 -0.325149 -0.701112 0.000000 6.450444 1.089160 0.000000 0.760960 -0.223284 0.000000 6.728182 0.238249 0.000000 0.828480 -0.455933 0.000000 6.773681 -0.198276 0.000000 0.510227 -0.526544 0.000000 6.821353 0.217704 0.000000 0.631190 -0.471453 0.000000 6.765051 0.138467 0.000000 0.707031 -0.312309 0.000000 6.747338 -0.110687 0.000000 0.671583 0.078245 0.000000 6.915037 -0.198851 0.000000 0.415227 -0.234031 0.000000 6.919155 0.189768 0.000000 0.503908 -0.266607 0.000000 6.834508 0.074132 0.000000 0.578446 -0.137452 0.000000 6.801079 -0.168502 0.000000 0.569461 0.266196 0.000000 6.943665 -0.268842 0.000000 0.311541 -0.090838 0.000000 6.943863 0.155117 0.000000 0.386327 -0.118564 0.000000 6.865431 0.040343 0.000000 0.455016 0.011852 0.000000 6.833665 -0.203557 0.000000 0.457710 0.439231 0.000000 6.956574 -0.291730 0.000000 0.239741 0.034650 0.000000 6.940407 0.212341 0.000000 0.429607 -0.045147 0.000000 6.862421 0.220987 0.000000 1.064707 0.219420 0.000000 6.536012 -0.675908 0.000000 0.266147 -0.038526 0.000000 6.367179 -0.747341 0.000000 0.016813 0.409417 0.000000 6.370769 -0.289106 0.000000 0.071197 0.721559 0.000000 6.353157 -0.064866 0.000000 0.125530 0.945119 0.000000 6.289414 0.034331 0.000000 0.142344 1.188662 0.000000 6.193194 0.114101 0.000000 0.140142 1.490989 0.000000 6.070758 0.209184 0.000000 0.135778 1.874182 0.000000 
6.176064 0.309201 0.000000 0.213843 2.422802 0.000000 6.063768 0.318210 0.000000 0.271934 3.291345 0.000000 5.926719 0.037276 0.000000 0.266860 -3.105739 0.000000 5.871931 0.136793 0.000000 0.224913 -2.427677 0.000000 5.876635 0.074141 0.000000 0.159705 -1.890345 0.000000 5.942782 0.016831 0.000000 0.055466 -1.413054 0.000000 6.085382 0.009477 0.000000 -0.161589 -0.990493 0.000000 6.389940 0.086963 0.000000 -0.370514 -0.717229 0.000000 6.613538 0.476642 0.000000 0.532732 -0.592180 0.000000 6.980642 0.137467 0.000000 0.679495 -0.596764 0.000000 7.046425 -0.038096 0.000000 0.446947 -0.410404 0.000000 7.020067 0.057223 0.000000 0.612893 -0.441251 0.000000 6.964250 0.111172 0.000000 0.721941 -0.366183 0.000000 6.944679 0.058757 0.000000 0.632750 -0.152008 0.000000 7.173914 -0.088385 0.000000 0.466900 -0.098526 0.000000 7.139191 0.010687 0.000000 0.654839 -0.211706 0.000000 7.047040 0.056599 0.000000 0.750545 -0.167617 0.000000 6.999820 0.002900 0.000000 0.653873 0.045194 0.000000 7.228806 -0.151202 0.000000 0.467435 0.075329 0.000000 7.169137 -0.045472 0.000000 0.661385 -0.050089 0.000000 7.067938 0.001478 0.000000 0.759511 -0.001427 0.000000 7.015398 -0.060239 0.000000 0.667536 0.231221 0.000000 7.253270 -0.225638 0.000000 0.501737 0.252011 0.000000 7.153349 -0.141290 0.000000 0.802451 0.123627 0.000000 6.950263 -0.116335 0.000000 1.145183 0.023688 0.000000 6.905348 -0.452477 0.000000 0.706317 0.199008 0.000000 6.554436 -0.414759 0.000000 0.232697 0.495233 0.000000 6.452999 -0.266690 0.000000 0.138812 0.744346 0.000000 6.428197 -0.115987 0.000000 0.156451 0.967350 0.000000 6.390809 -0.008593 0.000000 0.176480 1.211494 0.000000 6.334065 0.087188 0.000000 0.186359 1.511805 0.000000 6.262108 0.195007 0.000000 0.193578 1.895127 0.000000 
6.443161 0.298680 0.000000 0.195785 2.501458 0.000000 6.379114 0.284964 0.000000 0.258198 3.369868 0.000000 6.309006 0.039688 0.000000 0.254011 -3.108066 0.000000 6.213659 0.144279 0.000000 0.209169 -2.467478 0.000000 6.184072 0.080673 0.000000 0.135839 -1.963550 0.000000 6.231938 0.018254 0.000000 0.046534 -1.520353 0.000000 6.362365 0.015055 0.000000 -0.030800 -1.158724 0.000000 6.576530 0.094160 0.000000 -0.003479 -0.924709 0.000000 6.775220 0.185915 0.000000 0.390513 -0.590388 0.000000 7.014421 0.091486 0.000000 0.575347 -0.521717 0.000000 7.060399 0.034271 0.000000 0.552291 -0.500185 0.000000 7.106966 0.051758 0.000000 0.580627 -0.415637 0.000000 7.070581 0.029420 0.000000 0.634374 -0.292737 0.000000 7.039078 -0.021497 0.000000 0.651051 -0.150990 0.000000 7.114409 -0.033001 0.000000 0.598154 -0.199307 0.000000 7.176174 0.001829 0.000000 0.626984 -0.174456 0.000000 7.122254 -0.021573 0.000000 0.677988 -0.090232 0.000000 7.073503 -0.071831 0.000000 0.693034 0.037211 0.000000 7.146830 -0.082404 0.000000 0.633009 -0.031170 0.000000 7.199320 -0.038833 0.000000 0.661240 -0.017365 0.000000 7.138781 -0.057783 0.000000 0.720272 0.064392 0.000000 7.088305 -0.111581 0.000000 0.754129 0.201360 0.000000 7.161617 -0.125932 0.000000 0.726668 0.134571 0.000000 7.185868 -0.088373 0.000000 0.786902 0.157940 0.000000 7.086880 -0.121745 0.000000 0.858118 0.264335 0.000000 6.888732 -0.237042 0.000000 0.629225 0.312387 0.000000 6.694528 -0.273720 0.000000 0.355143 0.510854 0.000000 6.588057 -0.195221 0.000000 0.199373 0.746361 0.000000 6.557507 -0.082505 0.000000 0.154558 0.982507 0.000000 6.544716 0.014303 0.000000 0.150729 1.245406 0.000000 6.522618 0.104223 0.000000 0.156221 1.562946 0.000000 6.488139 0.201964 0.000000 0.167393 1.960226 0.000000 
6.681203 0.280809 0.000000 0.250755 2.486850 0.000000 6.677323 0.255797 0.000000 0.313234 3.361453 0.000000 6.681943 0.041464 0.000000 0.310090 -3.010391 0.000000 6.538396 0.181635 0.000000 0.272506 -2.398091 0.000000 6.460578 0.147471 0.000000 0.200918 -1.938211 0.000000 6.460199 0.106136 0.000000 0.101942 -1.543481 0.000000 6.540959 0.086810 0.000000 0.010580 -1.204657 0.000000 6.677156 0.059642 0.000000 0.071522 -0.915919 0.000000 6.728940 0.082650 0.000000 0.334165 -0.831382 0.000000 7.040959 -0.047366 0.000000 0.565178 -0.642743 0.000000 7.141631 -0.015040 0.000000 0.581498 -0.456971 0.000000 7.116718 0.028887 0.000000 0.629621 -0.404865 0.000000 7.074416 0.057425 0.000000 0.632808 -0.334681 0.000000 7.074643 0.042080 0.000000 0.582661 -0.227339 0.000000 7.170344 -0.035487 0.000000 0.593972 -0.160292 0.000000 7.176250 -0.018143 0.000000 0.651822 -0.157786 0.000000 7.121831 0.005595 0.000000 0.654031 -0.118867 0.000000 7.104007 -0.012147 0.000000 0.600714 -0.028132 0.000000 7.196964 -0.091177 0.000000 0.606419 0.022838 0.000000 7.198074 -0.073704 0.000000 0.664456 0.010451 0.000000 7.138586 -0.057554 0.000000 0.676003 0.049049 0.000000 7.117001 -0.094095 0.000000 0.641983 0.157909 0.000000 7.205294 -0.198176 0.000000 0.678474 0.227760 0.000000 7.182052 -0.201524 0.000000 0.764369 0.222615 0.000000 7.066894 -0.187551 0.000000 0.788307 0.221836 0.000000 6.972903 -0.223583 0.000000 0.654356 0.393212 0.000000 6.786944 -0.140677 0.000000 0.411668 0.601704 0.000000 6.670958 -0.110920 0.000000 0.249760 0.774895 0.000000 6.647707 -0.071172 0.000000 0.193292 0.980141 0.000000 6.657477 -0.004765 0.000000 0.188047 1.233593 0.000000 6.668213 0.081696 0.000000 0.198821 1.546285 0.000000 6.675500 0.183835 0.000000 0.216818 1.940104 0.000000 
6.922650 0.264744 0.000000 0.241088 2.505338 0.000000 6.960492 0.222485 0.000000 0.304901 3.365247 0.000000 7.024760 0.042832 0.000000 0.302844 -2.964519 0.000000 6.849799 0.181862 0.000000 0.282628 -2.389659 0.000000 6.738462 0.152261 0.000000 0.238521 -1.963171 0.000000 6.694017 0.117230 0.000000 0.164325 -1.601113 0.000000 6.725099 0.106416 0.000000 0.042070 -1.294920 0.000000 6.835234 0.033218 0.000000 0.010597 -0.976494 0.000000 6.883072 -0.076727 0.000000 0.314487 -0.902406 0.000000 7.170319 -0.139527 0.000000 0.603133 -0.622389 0.000000 7.205581 0.017951 0.000000 0.538235 -0.475273 0.000000 7.182982 0.003635 0.000000 0.628568 -0.373335 0.000000 7.125410 0.026233 0.000000 0.628912 -0.292964 0.000000 7.107719 0.028650 0.000000 0.535630 -0.246691 0.000000 7.180811 -0.044312 0.000000 0.580086 -0.205214 0.000000 7.219188 -0.056020 0.000000 0.692137 -0.120037 0.000000 7.148707 -0.023783 0.000000 0.683679 -0.072408 0.000000 7.116622 -0.018514 0.000000 0.573828 -0.055746 0.000000 7.192785 -0.088109 0.000000 0.616630 -0.032280 0.000000 7.231059 -0.096870 0.000000 0.723759 0.042123 0.000000 7.158816 -0.069330 0.000000 0.715153 0.085977 0.000000 7.134133 -0.077561 0.000000 0.605328 0.113066 0.000000 7.218797 -0.162423 0.000000 0.652890 0.157813 0.000000 7.256188 -0.174269 0.000000 0.780580 0.273098 0.000000 7.133677 -0.145683 0.000000 0.796053 0.358326 0.000000 7.060026 -0.103091 0.000000 0.711697 0.498345 0.000000 6.849630 -0.031033 0.000000 0.363884 0.626840 0.000000 6.754523 -0.033313 0.000000 0.214344 0.769611 0.000000 6.773083 -0.026038 0.000000 0.176153 0.972738 0.000000 6.811325 0.019548 0.000000 0.173573 1.234670 0.000000 6.847438 0.093449 0.000000 0.183287 1.555659 0.000000 6.883300 0.183967 0.000000 0.202642 1.954523 0.000000 