# vtk DataFile Version 2.0
Comment goes here
ASCII

DATASET STRUCTURED_POINTS
FIELD FieldData 1
TIME 1 1 double
0.06300000
DIMENSIONS    64   64   1

ORIGIN    0.000   0.000   0.000
SPACING   0.03125 0.03125   1.000

POINT_DATA   4096
VECTORS u double

0.646069 0.009845 0.000000 -1.697674 -0.001562 0.000000 0.414148 0.007363 0.000000 -1.488266 -0.003163 0.000000 0.022512 -0.004602 0.000000 -1.288895 -0.005192 0.000000 0.070566 0.006824 0.000000 -1.079759 -0.004935 0.000000 0.062022 0.002277 0.000000 -0.955259 -0.007172 0.000000 0.065212 -0.001713 0.000000 -0.895766 -0.010174 0.000000 0.087012 -0.006063 0.000000 -0.866822 -0.013607 0.000000 0.110635 -0.009275 0.000000 -0.835980 -0.016148 0.000000 0.107175 -0.004959 0.000000 -0.766521 -0.015733 0.000000 0.047327 -0.001820 0.000000 -0.639744 -0.010192 0.000000 -0.079293 0.003239 0.000000 -0.464606 -0.009839 0.000000 -0.250049 0.005725 0.000000 -0.269873 -0.004365 0.000000 -0.431424 0.004919 0.000000 -0.075609 -0.003356 0.000000 -0.612330 0.000395 0.000000 0.117881 -0.004658 0.000000 -0.793091 0.002749 0.000000 0.316478 -0.005336 0.000000 -0.981461 0.006646 0.000000 0.520575 -0.002454 0.000000 -1.170269 0.004164 0.000000 0.710740 -0.001860 0.000000 -1.329665 -0.001414 0.000000 0.851933 -0.002529 0.000000 -1.422540 -0.001148 0.000000 0.916666 -0.001474 0.000000 -1.434640 0.001868 0.000000 0.908506 0.001830 0.000000 -1.391075 -0.000443 0.000000 0.846634 0.002915 0.000000 -1.306117 -0.003497 0.000000 0.741067 0.002902 0.000000 -1.181338 -0.000213 0.000000 0.588417 0.004100 0.000000 -1.009368 0.006875 0.000000 0.378946 0.007724 0.000000 -0.792355 0.008833 0.000000 0.114088 0.007760 0.000000 -0.538325 0.006474 0.000000 -0.188942 0.006354 0.000000 -0.260133 0.003369 0.000000 -0.511730 0.003300 0.000000 0.020993 0.001864 0.000000 -0.830599 0.000602 0.000000 0.278466 0.001071 0.000000 -1.118091 -0.001043 0.000000 0.482580 0.000633 0.000000 -1.348994 -0.001857 0.000000 0.613227 0.000752 0.000000 -1.521135 -0.002933 0.000000 0.672217 0.002143 0.000000 -1.645383 -0.004463 0.000000 
-0.345914 0.040157 0.000000 0.420573 0.109192 0.000000 -0.197831 -0.103529 0.000000 0.328860 0.191792 0.000000 0.157435 -0.089466 0.000000 0.233231 -0.025693 0.000000 -0.088383 -0.103497 0.000000 0.096403 0.002899 0.000000 -0.208017 -0.057533 0.000000 0.027482 -0.001640 0.000000 -0.295061 -0.021445 0.000000 -0.000498 -0.009640 0.000000 -0.372157 -0.002067 0.000000 -0.015844 -0.009358 0.000000 -0.440232 -0.000105 0.000000 -0.038593 0.004733 0.000000 -0.489494 -0.023025 0.000000 -0.084268 0.031145 0.000000 -0.503798 -0.052227 0.000000 -0.155643 0.058965 0.000000 -0.467998 -0.078416 0.000000 -0.245913 0.081458 0.000000 -0.402505 -0.090529 0.000000 -0.343121 0.083474 0.000000 -0.323544 -0.090238 0.000000 -0.439470 0.083382 0.000000 -0.242533 -0.086931 0.000000 -0.537737 0.084485 0.000000 -0.166141 -0.092388 0.000000 -0.637677 0.089891 0.000000 -0.085543 -0.099579 0.000000 -0.740047 0.089542 0.000000 0.002989 -0.091848 0.000000 -0.839037 0.076179 0.000000 0.079161 -0.065370 0.000000 -0.917505 0.045994 0.000000 0.117053 -0.030176 0.000000 -0.956747 0.006200 0.000000 0.116249 0.001662 0.000000 -0.957336 -0.021457 0.000000 0.097292 0.029118 0.000000 -0.934178 -0.041988 0.000000 0.064953 0.052662 0.000000 -0.892280 -0.060904 0.000000 0.014932 0.072696 0.000000 -0.823671 -0.085305 0.000000 -0.052629 0.095308 0.000000 -0.716981 -0.109405 0.000000 -0.130850 0.122490 0.000000 -0.577394 -0.128147 0.000000 -0.216492 0.145044 0.000000 -0.420536 -0.140538 0.000000 -0.309581 0.158624 0.000000 -0.255335 -0.140955 0.000000 -0.402492 0.158198 0.000000 -0.093731 -0.127945 0.000000 -0.481834 0.143022 0.000000 0.051385 -0.100611 0.000000 -0.529364 0.115053 0.000000 0.167198 -0.063906 0.000000 -0.529195 0.086086 0.000000 0.250630 -0.028371 0.000000 -0.474489 0.062665 0.000000 0.306714 0.011017 0.000000 
1.557085 -0.104014 0.000000 0.667675 -0.149645 0.000000 1.236868 0.099076 0.000000 0.551465 -0.358429 0.000000 0.966271 0.091028 0.000000 0.414733 0.240625 0.000000 1.638692 0.143652 0.000000 0.378315 0.114700 0.000000 2.042502 0.071198 0.000000 0.319719 0.079872 0.000000 2.304961 0.026268 0.000000 0.285255 0.066921 0.000000 2.487395 0.009283 0.000000 0.281102 0.054468 0.000000 2.633110 0.013474 0.000000 0.298627 0.033114 0.000000 2.775666 0.040716 0.000000 0.302843 -0.001429 0.000000 2.935537 0.069556 0.000000 0.255043 -0.045992 0.000000 3.098129 0.093508 0.000000 0.151406 -0.075331 0.000000 3.265172 0.102933 0.000000 0.035599 -0.083327 0.000000 3.406837 0.101268 0.000000 -0.076641 -0.084366 0.000000 3.537320 0.098663 0.000000 -0.178009 -0.081050 0.000000 3.677707 0.102689 0.000000 -0.284655 -0.085934 0.000000 3.823098 0.109016 0.000000 -0.398984 -0.090986 0.000000 3.952441 0.103153 0.000000 -0.500731 -0.078032 0.000000 4.061348 0.077054 0.000000 -0.561222 -0.040421 0.000000 4.139420 0.038094 0.000000 -0.572648 -0.000670 0.000000 4.161187 0.002458 0.000000 -0.548756 0.020788 0.000000 4.127485 -0.023601 0.000000 -0.495252 0.035255 0.000000 4.061451 -0.045395 0.000000 -0.420230 0.052923 0.000000 3.975194 -0.068822 0.000000 -0.336523 0.071660 0.000000 3.847839 -0.099814 0.000000 -0.247412 0.085945 0.000000 3.657998 -0.130754 0.000000 -0.141606 0.093403 0.000000 3.413495 -0.150385 0.000000 -0.008855 0.099442 0.000000 3.138543 -0.161832 0.000000 0.141871 0.096211 0.000000 2.855828 -0.159739 0.000000 0.294272 0.079943 0.000000 2.579876 -0.144045 0.000000 0.432054 0.046487 0.000000 2.319707 -0.115180 0.000000 0.534900 -0.002026 0.000000 2.073352 -0.082680 0.000000 0.608571 -0.057639 0.000000 1.811283 -0.053941 0.000000 0.663788 -0.133038 0.000000 
3.559892 0.036270 0.000000 -0.123981 0.429409 0.000000 2.730849 0.012680 0.000000 -0.291649 0.462388 0.000000 1.360940 0.047266 0.000000 -0.207334 -0.698114 0.000000 2.972395 -0.067079 0.000000 -0.115477 -0.400911 0.000000 3.810731 0.001063 0.000000 -0.089377 -0.264099 0.000000 4.380796 0.013020 0.000000 -0.080508 -0.192074 0.000000 4.826630 0.002086 0.000000 -0.049683 -0.155073 0.000000 5.205181 -0.017631 0.000000 0.028782 -0.137823 0.000000 5.537121 -0.027241 0.000000 0.165962 -0.128726 0.000000 5.795659 -0.004427 0.000000 0.273417 -0.103627 0.000000 5.957822 0.025220 0.000000 0.346855 -0.085585 0.000000 6.066270 0.025278 0.000000 0.405076 -0.058191 0.000000 6.108989 0.022002 0.000000 0.450268 -0.047102 0.000000 6.135425 0.014437 0.000000 0.484948 -0.055902 0.000000 6.189385 0.014257 0.000000 0.516575 -0.055499 0.000000 6.232353 0.014750 0.000000 0.556856 -0.039802 0.000000 6.215674 0.009899 0.000000 0.598757 -0.032728 0.000000 6.190219 -0.004879 0.000000 0.633471 -0.032077 0.000000 6.210626 -0.018750 0.000000 0.651311 -0.015567 0.000000 6.241462 -0.022230 0.000000 0.660934 0.012245 0.000000 6.220001 -0.024386 0.000000 0.667486 0.024046 0.000000 6.179303 -0.022361 0.000000 0.673456 0.025353 0.000000 6.156290 -0.011011 0.000000 0.667096 0.042050 0.000000 6.111859 0.006197 0.000000 0.631325 0.080436 0.000000 6.000996 0.016683 0.000000 0.558813 0.116356 0.000000 5.844324 0.012294 0.000000 0.458862 0.134415 0.000000 5.659080 0.007897 0.000000 0.351499 0.141760 0.000000 5.467883 0.005797 0.000000 0.258634 0.148007 0.000000 5.261775 0.005240 0.000000 0.191051 0.159558 0.000000 5.008660 0.012207 0.000000 0.145350 0.182449 0.000000 4.671661 0.012415 0.000000 0.107485 0.233698 0.000000 4.213314 0.007449 0.000000 0.056018 0.265216 0.000000 
3.661983 0.075985 0.000000 0.062819 0.679398 0.000000 2.974724 0.266744 0.000000 -0.159461 1.011480 0.000000 1.895380 0.006713 0.000000 -0.121684 -1.370829 0.000000 3.097028 0.051796 0.000000 -0.158683 -0.723637 0.000000 3.883861 0.045098 0.000000 -0.137150 -0.490192 0.000000 4.442012 0.017398 0.000000 -0.113903 -0.378914 0.000000 4.877708 -0.021542 0.000000 -0.077582 -0.324083 0.000000 5.251834 -0.064990 0.000000 0.012094 -0.298826 0.000000 5.572483 -0.096464 0.000000 0.229045 -0.259966 0.000000 5.848054 -0.037900 0.000000 0.338471 -0.208155 0.000000 6.014994 0.020071 0.000000 0.387033 -0.183780 0.000000 6.132873 0.044712 0.000000 0.441140 -0.126046 0.000000 6.182609 0.056076 0.000000 0.475752 -0.110802 0.000000 6.219775 0.063983 0.000000 0.486982 -0.135011 0.000000 6.293634 0.071062 0.000000 0.496355 -0.128902 0.000000 6.349651 0.068735 0.000000 0.531896 -0.074306 0.000000 6.338103 0.061252 0.000000 0.554776 -0.052578 0.000000 6.317024 0.042340 0.000000 0.563540 -0.060829 0.000000 6.345022 0.020254 0.000000 0.566825 -0.031506 0.000000 6.371438 -0.007165 0.000000 0.594406 0.042248 0.000000 6.333274 -0.030154 0.000000 0.610208 0.075953 0.000000 6.277440 -0.051365 0.000000 0.616861 0.075936 0.000000 6.252193 -0.062461 0.000000 0.616774 0.116091 0.000000 6.202347 -0.064043 0.000000 0.611333 0.196808 0.000000 6.074260 -0.058242 0.000000 0.560532 0.250075 0.000000 5.879852 -0.050434 0.000000 0.482602 0.284687 0.000000 5.658480 -0.054469 0.000000 0.385410 0.287407 0.000000 5.444162 -0.066873 0.000000 0.310965 0.286052 0.000000 5.227788 -0.076463 0.000000 0.266272 0.299603 0.000000 4.973871 -0.069479 0.000000 0.241568 0.334973 0.000000 4.649178 -0.044814 0.000000 0.210944 0.400708 0.000000 4.235566 -0.002474 0.000000 0.146048 0.520384 0.000000 
3.901853 0.119499 0.000000 -0.080413 1.116668 0.000000 3.254194 0.234961 0.000000 -0.137485 1.541733 0.000000 2.389064 0.009489 0.000000 -0.143858 -1.899763 0.000000 3.244867 -0.030080 0.000000 -0.132139 -1.187744 0.000000 3.978875 -0.020470 0.000000 -0.118739 -0.822250 0.000000 4.518805 -0.010227 0.000000 -0.124984 -0.627770 0.000000 4.944640 -0.034235 0.000000 -0.131116 -0.529198 0.000000 5.330302 -0.107307 0.000000 -0.083253 -0.458472 0.000000 5.693740 -0.244192 0.000000 0.283216 -0.404297 0.000000 5.940358 -0.113852 0.000000 0.383246 -0.270567 0.000000 6.070614 -0.023342 0.000000 0.373570 -0.203464 0.000000 6.198882 -0.028828 0.000000 0.423479 -0.107928 0.000000 6.221981 -0.012610 0.000000 0.484408 -0.084268 0.000000 6.228295 0.003206 0.000000 0.519936 -0.129761 0.000000 6.299206 0.004885 0.000000 0.508839 -0.111516 0.000000 6.365915 -0.020791 0.000000 0.556472 -0.028253 0.000000 6.326347 -0.012981 0.000000 0.609417 -0.011650 0.000000 6.279572 -0.013643 0.000000 0.641529 -0.060075 0.000000 6.316067 -0.022035 0.000000 0.624501 -0.041983 0.000000 6.366047 -0.049810 0.000000 0.661391 0.050410 0.000000 6.313278 -0.040188 0.000000 0.696334 0.079879 0.000000 6.250963 -0.029014 0.000000 0.708552 0.050600 0.000000 6.256469 -0.010924 0.000000 0.679946 0.091897 0.000000 6.237806 0.011638 0.000000 0.691086 0.208523 0.000000 6.090718 0.067485 0.000000 0.663539 0.310764 0.000000 5.899650 0.090223 0.000000 0.509283 0.355787 0.000000 5.678974 0.105089 0.000000 0.352459 0.356078 0.000000 5.492681 0.080242 0.000000 0.247241 0.364382 0.000000 5.310405 0.049933 0.000000 0.184253 0.413475 0.000000 5.086579 0.036910 0.000000 0.136885 0.507141 0.000000 4.790617 0.043039 0.000000 0.085337 0.647310 0.000000 4.400566 0.072345 0.000000 0.013120 0.838799 0.000000 
4.087279 0.169518 0.000000 0.052247 1.327057 0.000000 3.570793 0.323815 0.000000 -0.014098 1.876610 0.000000 2.882998 0.013086 0.000000 -0.020880 -2.226632 0.000000 3.485296 0.040078 0.000000 -0.069288 -1.457644 0.000000 4.070160 0.031698 0.000000 -0.087167 -1.030122 0.000000 4.538479 0.023643 0.000000 -0.111204 -0.804749 0.000000 4.916521 -0.015410 0.000000 -0.185191 -0.709744 0.000000 5.299502 -0.112854 0.000000 -0.304014 -0.662263 0.000000 5.718232 -0.462932 0.000000 0.473984 -0.506585 0.000000 5.961578 -0.137930 0.000000 0.497056 -0.338411 0.000000 6.047707 0.029747 0.000000 0.331754 -0.312048 0.000000 6.194545 -0.005197 0.000000 0.436417 -0.149145 0.000000 6.204185 -0.004853 0.000000 0.515173 -0.117116 0.000000 6.200406 0.028454 0.000000 0.525544 -0.205922 0.000000 6.306746 0.082160 0.000000 0.420421 -0.195611 0.000000 6.410268 0.021101 0.000000 0.518309 -0.034738 0.000000 6.356552 0.008307 0.000000 0.582258 -0.005802 0.000000 6.295047 0.010228 0.000000 0.591378 -0.097324 0.000000 6.359091 0.037283 0.000000 0.486534 -0.081486 0.000000 6.445423 -0.044055 0.000000 0.581367 0.095016 0.000000 6.367421 -0.065097 0.000000 0.640993 0.138268 0.000000 6.280120 -0.063583 0.000000 0.647465 0.070430 0.000000 6.307274 -0.033856 0.000000 0.560511 0.134754 0.000000 6.333870 -0.075183 0.000000 0.649237 0.343897 0.000000 6.176488 -0.030696 0.000000 0.678018 0.441143 0.000000 5.896652 0.103822 0.000000 0.502354 0.505362 0.000000 5.635722 0.102355 0.000000 0.321254 0.473700 0.000000 5.461171 0.038345 0.000000 0.244377 0.468328 0.000000 5.302715 -0.013474 0.000000 0.219308 0.523429 0.000000 5.103701 -0.022111 0.000000 0.202985 0.630934 0.000000 4.843459 0.006734 0.000000 0.175799 0.790759 0.000000 4.510528 0.069743 0.000000 0.129850 1.019097 0.000000 
4.358661 0.197102 0.000000 -0.008413 1.633153 0.000000 3.906064 0.301305 0.000000 -0.016476 2.229528 0.000000 3.339636 0.016271 0.000000 -0.023238 -2.502061 0.000000 3.758597 0.018327 0.000000 -0.043558 -1.772609 0.000000 4.228224 -0.002592 0.000000 -0.052502 -1.290568 0.000000 4.629672 0.013811 0.000000 -0.089976 -1.005813 0.000000 4.963428 0.039751 0.000000 -0.217769 -0.912179 0.000000 5.325230 0.011516 0.000000 -0.409453 -0.877202 0.000000 5.804105 -1.022189 0.000000 0.442446 -0.647643 0.000000 5.976156 -0.136924 0.000000 0.424572 -0.356696 0.000000 6.038531 0.141960 0.000000 0.128555 -0.350302 0.000000 6.236630 -0.133492 0.000000 0.324180 -0.117567 0.000000 6.208627 -0.091366 0.000000 0.496181 -0.080488 0.000000 6.168274 -0.007165 0.000000 0.541117 -0.236102 0.000000 6.288262 0.110008 0.000000 0.282383 -0.215038 0.000000 6.425493 -0.118679 0.000000 0.495355 0.025463 0.000000 6.315313 -0.076930 0.000000 0.643056 0.049855 0.000000 6.214646 -0.022764 0.000000 0.674792 -0.124119 0.000000 6.311747 0.082809 0.000000 0.399988 -0.128315 0.000000 6.447831 -0.144644 0.000000 0.626011 0.128412 0.000000 6.315323 -0.099814 0.000000 0.758990 0.167180 0.000000 6.208414 -0.035486 0.000000 0.752643 0.023446 0.000000 6.316484 0.076030 0.000000 0.452939 0.065301 0.000000 6.427794 -0.077087 0.000000 0.740292 0.365904 0.000000 6.181893 0.038704 0.000000 1.187560 0.590600 0.000000 5.939133 0.265888 0.000000 0.554926 0.616717 0.000000 5.609534 0.286189 0.000000 0.201003 0.530629 0.000000 5.512504 0.157120 0.000000 0.145971 0.522838 0.000000 5.410609 0.075002 0.000000 0.139466 0.612489 0.000000 5.245868 0.053233 0.000000 0.121978 0.767383 0.000000 5.017350 0.070225 0.000000 0.089423 0.980241 0.000000 4.722963 0.118295 0.000000 0.044515 1.262049 0.000000 
4.589753 0.222445 0.000000 0.088036 1.779654 0.000000 4.239316 0.331879 0.000000 0.078300 2.443038 0.000000 3.794212 0.019848 0.000000 0.071719 -2.645593 0.000000 4.076490 0.060397 0.000000 0.042227 -1.927271 0.000000 4.415411 0.040641 0.000000 0.035579 -1.431570 0.000000 4.727392 0.061117 0.000000 0.054023 -1.138505 0.000000 4.958979 0.112383 0.000000 0.088454 -1.071547 0.000000 5.024726 0.078831 0.000000 0.097845 -1.141138 0.000000 4.926798 -1.314831 0.000000 -0.814938 -0.678636 0.000000 4.907901 -0.120057 0.000000 -0.850021 -0.400786 0.000000 5.040716 0.325764 0.000000 -0.661236 -0.510147 0.000000 5.158114 -0.200822 0.000000 -0.700802 -0.121141 0.000000 5.335386 -0.176854 0.000000 -0.631814 -0.076764 0.000000 5.435418 -0.016481 0.000000 -0.502982 -0.325909 0.000000 5.390699 0.340893 0.000000 -0.435290 -0.332842 0.000000 5.429878 -0.191870 0.000000 -0.473581 0.075441 0.000000 5.509695 -0.139394 0.000000 -0.409421 0.094865 0.000000 5.539068 -0.021508 0.000000 -0.307208 -0.194424 0.000000 5.462720 0.312086 0.000000 -0.285279 -0.217570 0.000000 5.488667 -0.270077 0.000000 -0.309659 0.227524 0.000000 5.523953 -0.198076 0.000000 -0.233211 0.245178 0.000000 5.529607 -0.057236 0.000000 -0.124703 -0.037640 0.000000 5.473501 0.265848 0.000000 -0.111406 0.023444 0.000000 5.569036 -0.362536 0.000000 0.008943 0.589798 0.000000 5.659026 -0.477964 0.000000 0.450559 0.683903 0.000000 5.421472 0.736456 0.000000 0.069551 0.834961 0.000000 5.472736 0.456278 0.000000 0.041864 0.570730 0.000000 5.514607 0.093377 0.000000 0.112666 0.570223 0.000000 5.450246 -0.006970 0.000000 0.156007 0.688171 0.000000 5.311291 -0.004623 0.000000 0.166843 0.859452 0.000000 5.119725 0.039289 0.000000 0.155006 1.085146 0.000000 4.879969 0.114651 0.000000 0.127075 1.383399 0.000000 
4.862329 0.236141 0.000000 0.052753 1.983590 0.000000 4.571273 0.311042 0.000000 0.072915 2.674632 0.000000 4.214191 0.022851 0.000000 0.066873 -2.784339 0.000000 4.389160 0.047819 0.000000 0.056208 -2.111530 0.000000 4.625973 0.004057 0.000000 0.082401 -1.602549 0.000000 4.833583 -0.004633 0.000000 0.184465 -1.237400 0.000000 4.885399 0.005320 0.000000 0.397733 -0.977926 0.000000 4.533528 0.002125 0.000000 0.549046 -0.779274 0.000000 3.594512 -0.109406 0.000000 -2.103996 -0.628746 0.000000 3.428809 -0.101841 0.000000 -2.340811 -0.489512 0.000000 3.553922 -0.046826 0.000000 -1.703676 -0.467700 0.000000 3.215855 -0.093925 0.000000 -2.052810 -0.294839 0.000000 3.551971 -0.160354 0.000000 -2.398009 -0.180521 0.000000 3.880343 -0.135996 0.000000 -2.475621 -0.191382 0.000000 3.672498 0.042315 0.000000 -1.818284 -0.254217 0.000000 3.256622 -0.080388 0.000000 -2.108200 -0.054354 0.000000 3.606089 -0.141089 0.000000 -2.368995 0.020483 0.000000 3.946765 -0.124977 0.000000 -2.435344 -0.047771 0.000000 3.712630 0.060880 0.000000 -1.770464 -0.154262 0.000000 3.227605 -0.120264 0.000000 -2.093826 0.093126 0.000000 3.571331 -0.176262 0.000000 -2.354991 0.161526 0.000000 3.895466 -0.143994 0.000000 -2.382150 0.079552 0.000000 3.659219 0.062733 0.000000 -1.707405 -0.030234 0.000000 3.295779 -0.197436 0.000000 -2.121037 0.275914 0.000000 3.853640 -0.402913 0.000000 -2.955004 0.828154 0.000000 4.882272 0.646896 0.000000 -1.148864 0.565453 0.000000 5.611094 0.313877 0.000000 -0.190718 0.488758 0.000000 5.704663 0.086317 0.000000 0.068567 0.587199 0.000000 5.611464 0.031661 0.000000 0.118783 0.751444 0.000000 5.473572 0.042397 0.000000 0.116526 0.958949 0.000000 5.305834 0.082062 0.000000 0.097930 1.219997 0.000000 5.103385 0.146226 0.000000 0.073373 1.552264 0.000000 
5.103437 0.243065 0.000000 0.126727 2.070710 0.000000 4.892745 0.311717 0.000000 0.147348 2.800121 0.000000 4.630267 0.025890 0.000000 0.141785 -2.820563 0.000000 4.715444 0.071062 0.000000 0.119050 -2.164084 0.000000 4.853643 0.014449 0.000000 0.118641 -1.639180 0.000000 4.986990 -0.040948 0.000000 0.176997 -1.190321 0.000000 5.024180 -0.100884 0.000000 0.323346 -0.719677 0.000000 4.849731 -0.072483 0.000000 0.449099 -0.202121 0.000000 4.597820 1.338212 0.000000 -0.680581 -0.512934 0.000000 4.333976 0.116758 0.000000 -0.931891 -0.525899 0.000000 4.303806 -0.311370 0.000000 -0.748732 -0.172080 0.000000 4.160540 0.148311 0.000000 -1.046856 -0.457256 0.000000 4.316109 0.168345 0.000000 -1.341277 -0.405136 0.000000 4.488332 0.061131 0.000000 -1.435408 -0.118064 0.000000 4.323180 -0.316444 0.000000 -1.131251 0.083033 0.000000 4.100771 0.098047 0.000000 -1.400969 -0.274025 0.000000 4.317456 0.121401 0.000000 -1.620022 -0.245811 0.000000 4.534289 0.044840 0.000000 -1.669415 0.039710 0.000000 4.350541 -0.352794 0.000000 -1.300653 0.267455 0.000000 4.056066 0.053285 0.000000 -1.604895 -0.116202 0.000000 4.285054 0.063089 0.000000 -1.832198 -0.078957 0.000000 4.502356 -0.030077 0.000000 -1.858113 0.198606 0.000000 4.298147 -0.408897 0.000000 -1.445086 0.386884 0.000000 4.018714 0.051096 0.000000 -1.853613 0.031937 0.000000 4.382387 0.356003 0.000000 -2.438645 -0.344728 0.000000 5.124902 -1.069684 0.000000 -1.120958 0.106139 0.000000 5.676485 -0.501868 0.000000 -0.237941 0.477160 0.000000 5.751361 -0.165908 0.000000 0.052404 0.663422 0.000000 5.673301 -0.057186 0.000000 0.132332 0.826064 0.000000 5.562233 -0.002367 0.000000 0.151164 1.027189 0.000000 5.432132 0.057885 0.000000 0.148747 1.287595 0.000000 5.280073 0.139209 0.000000 0.137263 1.624455 0.000000 
5.362987 0.246677 0.000000 0.102275 2.194283 0.000000 5.204761 0.290421 0.000000 0.136220 2.937110 0.000000 5.013816 0.028414 0.000000 0.131388 -2.869516 0.000000 5.030665 0.070554 0.000000 0.103583 -2.249729 0.000000 5.106048 0.004467 0.000000 0.069129 -1.735896 0.000000 5.212777 -0.062989 0.000000 0.015079 -1.274590 0.000000 5.332631 -0.141029 0.000000 -0.101088 -0.803477 0.000000 5.535765 -0.123628 0.000000 -0.249401 -0.527363 0.000000 5.957130 1.020274 0.000000 0.697741 -0.364901 0.000000 6.058356 0.149468 0.000000 0.689334 -0.459342 0.000000 6.079199 -0.229984 0.000000 0.382788 -0.324434 0.000000 6.240612 0.204199 0.000000 0.496300 -0.450409 0.000000 6.174215 0.134066 0.000000 0.572617 -0.352743 0.000000 6.122250 -0.041865 0.000000 0.563314 -0.026230 0.000000 6.189673 -0.261842 0.000000 0.298005 -0.031808 0.000000 6.320575 0.189330 0.000000 0.399362 -0.271038 0.000000 6.229734 0.077964 0.000000 0.475444 -0.196351 0.000000 6.158747 -0.075585 0.000000 0.491547 0.135977 0.000000 6.206750 -0.307881 0.000000 0.238392 0.140213 0.000000 6.344606 0.183977 0.000000 0.338374 -0.135862 0.000000 6.256980 0.051041 0.000000 0.408846 -0.055777 0.000000 6.197070 -0.118079 0.000000 0.416842 0.283761 0.000000 6.240565 -0.350294 0.000000 0.185613 0.249199 0.000000 6.343270 0.211091 0.000000 0.376651 -0.087759 0.000000 6.251478 0.182118 0.000000 0.881741 0.085640 0.000000 5.906163 -0.670791 0.000000 0.186466 0.013871 0.000000 5.791244 -0.569141 0.000000 0.021029 0.413881 0.000000 5.792119 -0.204027 0.000000 0.062289 0.665260 0.000000 5.764799 -0.048267 0.000000 0.099143 0.862512 0.000000 5.699973 0.023565 0.000000 0.110479 1.089049 0.000000 5.608480 0.084479 0.000000 0.107761 1.372057 0.000000 5.495478 0.157711 0.000000 0.101286 1.728900 0.000000 
5.598211 0.242076 0.000000 0.161318 2.228936 0.000000 5.504997 0.277773 0.000000 0.196433 2.991066 0.000000 5.392082 0.030722 0.000000 0.192285 -2.837412 0.000000 5.350046 0.098867 0.000000 0.161536 -2.239467 0.000000 5.365236 0.048903 0.000000 0.117485 -1.745908 0.000000 5.430542 0.013102 0.000000 0.046575 -1.310176 0.000000 5.549171 0.015282 0.000000 -0.105912 -0.922811 0.000000 5.801416 0.075830 0.000000 -0.310299 -0.623486 0.000000 6.096423 0.391069 0.000000 0.530459 -0.614159 0.000000 6.308446 0.125165 0.000000 0.593823 -0.546743 0.000000 6.334478 -0.004825 0.000000 0.346034 -0.333493 0.000000 6.426836 0.034800 0.000000 0.506950 -0.390860 0.000000 6.363566 0.092028 0.000000 0.611004 -0.353171 0.000000 6.305485 0.070434 0.000000 0.575811 -0.185486 0.000000 6.436221 -0.051135 0.000000 0.350688 -0.047869 0.000000 6.537885 -0.003311 0.000000 0.534429 -0.183184 0.000000 6.433754 0.045319 0.000000 0.624130 -0.174825 0.000000 6.346455 0.028737 0.000000 0.591597 -0.008293 0.000000 6.467529 -0.099638 0.000000 0.354500 0.129600 0.000000 6.575612 -0.046696 0.000000 0.560248 -0.028576 0.000000 6.459783 -0.007384 0.000000 0.654791 -0.019047 0.000000 6.371669 -0.038073 0.000000 0.620999 0.155112 0.000000 6.494862 -0.177668 0.000000 0.386111 0.284178 0.000000 6.565414 -0.139941 0.000000 0.670001 0.123729 0.000000 6.343705 -0.149087 0.000000 0.970137 0.000586 0.000000 6.210567 -0.374409 0.000000 0.506114 0.221059 0.000000 5.934058 -0.336430 0.000000 0.165582 0.476285 0.000000 5.867268 -0.207168 0.000000 0.113630 0.690742 0.000000 5.842210 -0.094041 0.000000 0.129322 0.890889 0.000000 5.801808 -0.013702 0.000000 0.144010 1.118683 0.000000 5.745127 0.060602 0.000000 0.150467 1.400597 0.000000 5.676383 0.145684 0.000000 0.153173 1.756946 0.000000 
5.838679 0.238533 0.000000 0.144373 2.287497 0.000000 5.791255 0.255306 0.000000 0.184521 3.050025 0.000000 5.739503 0.032561 0.000000 0.181125 -2.827480 0.000000 5.655608 0.101304 0.000000 0.148782 -2.264919 0.000000 5.633557 0.048517 0.000000 0.099981 -1.801202 0.000000 5.676795 0.007921 0.000000 0.040013 -1.393219 0.000000 5.785729 0.011459 0.000000 -0.012906 -1.055722 0.000000 5.973015 0.080759 0.000000 0.007595 -0.822370 0.000000 6.192789 0.179515 0.000000 0.360383 -0.576924 0.000000 6.351427 0.086104 0.000000 0.484210 -0.485374 0.000000 6.380179 0.017804 0.000000 0.461228 -0.416791 0.000000 6.454680 0.043284 0.000000 0.485911 -0.387139 0.000000 6.432365 0.030012 0.000000 0.530819 -0.294662 0.000000 6.390242 -0.006671 0.000000 0.547133 -0.156966 0.000000 6.432502 -0.036719 0.000000 0.500381 -0.133472 0.000000 6.515697 0.005589 0.000000 0.526073 -0.166906 0.000000 6.473437 -0.011737 0.000000 0.566481 -0.109052 0.000000 6.411439 -0.043052 0.000000 0.584700 0.014902 0.000000 6.449312 -0.070784 0.000000 0.535968 0.032131 0.000000 6.537233 -0.021770 0.000000 0.569689 -0.020033 0.000000 6.493800 -0.043502 0.000000 0.616620 0.032337 0.000000 6.433370 -0.084287 0.000000 0.644619 0.160568 0.000000 6.467312 -0.115407 0.000000 0.613122 0.178648 0.000000 6.523577 -0.072798 0.000000 0.667591 0.133949 0.000000 6.433174 -0.118018 0.000000 0.692937 0.218778 0.000000 6.227327 -0.206768 0.000000 0.483491 0.290380 0.000000 6.056112 -0.228609 0.000000 0.262634 0.480671 0.000000 5.977292 -0.152075 0.000000 0.154471 0.690318 0.000000 5.954237 -0.063959 0.000000 0.125552 0.902914 0.000000 5.937962 0.008878 0.000000 0.122574 1.145730 0.000000 5.912498 0.078022 0.000000 0.124794 1.440801 0.000000 5.878165 0.155004 0.000000 0.129851 1.807071 0.000000 
6.060193 0.227554 0.000000 0.193486 2.276360 0.000000 6.066273 0.237625 0.000000 0.234717 3.042818 0.000000 6.080455 0.034117 0.000000 0.232147 -2.753517 0.000000 5.953750 0.131211 0.000000 0.202796 -2.217415 0.000000 5.887768 0.097704 0.000000 0.152074 -1.789147 0.000000 5.888381 0.073070 0.000000 0.083125 -1.419110 0.000000 5.954926 0.068201 0.000000 0.018525 -1.110097 0.000000 6.080041 0.055329 0.000000 0.057772 -0.843260 0.000000 6.164765 0.038282 0.000000 0.353262 -0.772797 0.000000 6.395264 0.001337 0.000000 0.485446 -0.575495 0.000000 6.461623 0.018158 0.000000 0.467316 -0.407994 0.000000 6.478960 0.010118 0.000000 0.526469 -0.368544 0.000000 6.443015 0.047120 0.000000 0.539000 -0.311048 0.000000 6.421129 0.054119 0.000000 0.500632 -0.227746 0.000000 6.494840 -0.004382 0.000000 0.477254 -0.131064 0.000000 6.530666 -0.029003 0.000000 0.542542 -0.140924 0.000000 6.480996 0.004911 0.000000 0.551659 -0.112827 0.000000 6.441295 0.010519 0.000000 0.513163 -0.046165 0.000000 6.511209 -0.050906 0.000000 0.490911 0.041679 0.000000 6.552681 -0.080418 0.000000 0.565981 0.014857 0.000000 6.503570 -0.054314 0.000000 0.583753 0.041382 0.000000 6.461455 -0.066073 0.000000 0.557620 0.121170 0.000000 6.522915 -0.146170 0.000000 0.555620 0.227914 0.000000 6.535941 -0.194410 0.000000 0.645405 0.214131 0.000000 6.429807 -0.174433 0.000000 0.652028 0.206434 0.000000 6.315108 -0.164964 0.000000 0.505608 0.392273 0.000000 6.141804 -0.115573 0.000000 0.306038 0.555106 0.000000 6.057257 -0.099005 0.000000 0.193057 0.713796 0.000000 6.043637 -0.065122 0.000000 0.158337 0.907164 0.000000 6.048367 -0.010724 0.000000 0.156293 1.144147 0.000000 6.052130 0.058382 0.000000 0.163411 1.434930 0.000000 6.054741 0.140627 0.000000 0.174202 1.796432 0.000000 
6.279081 0.219249 0.000000 0.184121 2.281417 0.000000 6.324184 0.214075 0.000000 0.228325 3.035843 0.000000 6.391902 0.035132 0.000000 0.226656 -2.700774 0.000000 6.232922 0.130655 0.000000 0.209557 -2.198937 0.000000 6.132973 0.099239 0.000000 0.177016 -1.801815 0.000000 6.093124 0.076870 0.000000 0.125066 -1.459764 0.000000 6.114805 0.076059 0.000000 0.037435 -1.180836 0.000000 6.214680 0.041512 0.000000 -0.011832 -0.907094 0.000000 6.289591 -0.115975 0.000000 0.370256 -0.807423 0.000000 6.506672 -0.046079 0.000000 0.499077 -0.551733 0.000000 6.513762 0.035934 0.000000 0.417257 -0.434129 0.000000 6.520180 -0.015869 0.000000 0.533680 -0.351195 0.000000 6.483271 0.017481 0.000000 0.548310 -0.272775 0.000000 6.448084 0.031696 0.000000 0.467967 -0.230677 0.000000 6.512161 -0.013341 0.000000 0.450635 -0.169299 0.000000 6.544004 -0.059699 0.000000 0.583761 -0.117236 0.000000 6.498150 -0.020854 0.000000 0.589908 -0.069350 0.000000 6.446264 -0.004556 0.000000 0.499244 -0.055012 0.000000 6.514473 -0.048532 0.000000 0.480449 -0.009341 0.000000 6.552897 -0.096840 0.000000 0.622772 0.029078 0.000000 6.515371 -0.061273 0.000000 0.629658 0.074452 0.000000 6.469503 -0.058154 0.000000 0.536265 0.099108 0.000000 6.539915 -0.113406 0.000000 0.516485 0.165622 0.000000 6.574523 -0.162584 0.000000 0.658500 0.240083 0.000000 6.485574 -0.124641 0.000000 0.699496 0.333476 0.000000 6.385397 -0.060348 0.000000 0.523023 0.463683 0.000000 6.185131 -0.029039 0.000000 0.263024 0.565219 0.000000 6.134825 -0.039095 0.000000 0.168573 0.703938 0.000000 6.154964 -0.029239 0.000000 0.145294 0.898184 0.000000 6.183716 0.010922 0.000000 0.143475 1.141966 0.000000 6.211279 0.070903 0.000000 0.149212 1.438191 0.000000 6.241324 0.144213 0.000000 0.160969 1.801619 0.000000 