# vtk DataFile Version 2.0
Comment goes here
ASCII

DATASET STRUCTURED_POINTS
FIELD FieldData 1
TIME 1 1 double
0.55000000
DIMENSIONS    128   16   1

ORIGIN    0.000   0.000   0.000
SPACING   0.0078125 0.015625   1.000

POINT_DATA   2048
SCALARS fMag double
LOOKUP_TABLE default

0 0 0 0 0 0 0 0 0 0 0 0 0 0 0 0 0 0 0 0 0 0 0 0 0 0 0 0 0 0 0 0 0 0 0 0 0 0 0 0 0 0 0 0 0 0 0 0 0 0 0 0 0 0 0 0 0 0 0 0 0 0 0 0 0 0 0 0 0 0 0 0 0 0 0 0 0 0 0 0 0 0 0 0 0 0 0 0 0 0 0 0 0 0 0 0 0 0 0 0 0 0 0 0 0 0 0 0 0 0 0 0 0 0 0 0 0 0 0 0 0 0 0 0 0 0 0 0 
0 0 0 0 0 0 0 0 0 0 0 0 0 0 0 0 0 0 0 0 0 0 0 0 0 0 0 0 0 0 0 0 0 0 0 0 0 0 0 0 0 0 0 0 0 0 0 0 0 0 0 0 0 0 0 0 0 0 0 0 0 0 0 0 0 0 0 0 0 0 0 0 0 0 0 0 0 0 0 0 0 0 0 0 0 0 0 0 0 0 0 0 0 0 0 0 0 0 0 0 0 0 0 0 0 0 0 0 0 0 0 0 0 0 0 0 0 0 0 0 0 0 0 0 0 0 0 0 
0 0 0 0 0 1.134179e+00 3.458723e+00 2.062817e+00 2.765720e+00 2.338685e+00 3.439777e+00 2.813681e+00 4.031374e+00 5.518334e+00 7.962709e+00 1.010105e+01 1.498830e+01 1.963439e+01 2.427054e+01 2.872299e+01 3.521431e+01 3.575092e+01 3.505881e+01 3.516225e+01 3.449396e+01 3.448049e+01 3.393268e+01 3.386260e+01 3.340133e+01 3.320564e+01 3.276989e+01 3.247515e+01 3.211591e+01 3.179255e+01 3.150551e+01 3.114474e+01 3.088964e+01 3.050544e+01 3.027210e+01 2.987260e+01 2.963061e+01 2.922228e+01 2.897775e+01 2.859240e+01 2.834160e+01 2.794990e+01 2.763762e+01 2.721706e+01 2.688860e+01 2.653916e+01 2.629158e+01 2.602373e+01 2.576855e+01 2.543446e+01 2.507227e+01 2.470274e+01 2.384306e+01 2.225759e+01 2.323871e+01 2.290961e+01 1.885145e+01 2.063226e+01 2.296635e+01 2.052057e+01 1.827847e+01 2.148980e+01 2.154635e+01 1.789562e+01 1.933891e+01 2.170686e+01 2.000633e+01 1.848635e+01 1.851998e+01 1.825721e+01 1.787782e+01 1.756093e+01 1.716358e+01 1.685818e+01 1.648291e+01 1.621711e+01 1.587018e+01 1.557909e+01 1.521192e+01 1.487635e+01 1.455347e+01 1.421702e+01 1.394068e+01 1.351815e+01 1.320781e+01 1.267271e+01 1.239331e+01 1.187133e+01 1.172742e+01 1.127561e+01 1.121790e+01 1.077444e+01 1.070301e+01 1.023140e+01 1.006089e+01 9.519817e+00 9.189462e+00 8.670488e+00 8.325094e+00 8.033299e+00 7.722505e+00 7.582290e+00 7.116824e+00 6.988908e+00 6.335178e+00 6.266950e+00 5.526646e+00 5.565330e+00 4.810889e+00 4.932916e+00 4.191729e+00 4.302477e+00 3.566784e+00 3.549598e+00 2.868529e+00 2.716893e+00 2.234258e+00 2.370127e+00 2.878465e+00 2.479074e-01 0 0 0 0 
0 0 0 0 0 3.334906e+00 1.017135e+01 6.064123e+00 8.131090e+00 6.876306e+00 1.011327e+01 8.269898e+00 1.185127e+01 1.623156e+01 2.342616e+01 2.971652e+01 4.409371e+01 5.776500e+01 7.140712e+01 8.451157e+01 1.036185e+02 1.051978e+02 1.031602e+02 1.034647e+02 1.014973e+02 1.014576e+02 9.984497e+01 9.963865e+01 9.828090e+01 9.770490e+01 9.642227e+01 9.555470e+01 9.449732e+01 9.354549e+01 9.270062e+01 9.163868e+01 9.088779e+01 8.975690e+01 8.907009e+01 8.789418e+01 8.718191e+01 8.598006e+01 8.526034e+01 8.412616e+01 8.338798e+01 8.223512e+01 8.131601e+01 8.007826e+01 7.911154e+01 7.808310e+01 7.735445e+01 7.656614e+01 7.581514e+01 7.483192e+01 7.376596e+01 7.267843e+01 7.113182e+01 6.857548e+01 6.920146e+01 6.947304e+01 6.449198e+01 6.552566e+01 6.602085e+01 6.442302e+01 6.047830e+01 6.216476e+01 6.167133e+01 5.735933e+01 5.792710e+01 5.867493e+01 5.682256e+01 5.501123e+01 5.453022e+01 5.371081e+01 5.259448e+01 5.166201e+01 5.049284e+01 4.959424e+01 4.849005e+01 4.770798e+01 4.668718e+01 4.583069e+01 4.475039e+01 4.376302e+01 4.281303e+01 4.182307e+01 4.101003e+01 3.976682e+01 3.885373e+01 3.727934e+01 3.645728e+01 3.492157e+01 3.449819e+01 3.316897e+01 3.299925e+01 3.169465e+01 3.148460e+01 3.009726e+01 2.959573e+01 2.800410e+01 2.703229e+01 2.550566e+01 2.448953e+01 2.363113e+01 2.271675e+01 2.230418e+01 2.093472e+01 2.055830e+01 1.863503e+01 1.843422e+01 1.625644e+01 1.637028e+01 1.415117e+01 1.451039e+01 1.233061e+01 1.265694e+01 1.049381e+01 1.044460e+01 8.444134e+00 8.004768e+00 6.602967e+00 6.997695e+00 8.474020e+00 7.290895e-01 0 0 0 0 
0 0 0 0 0 2.303169e+00 7.025274e+00 4.187401e+00 5.614976e+00 4.748805e+00 6.984018e+00 5.709767e+00 8.183594e+00 5.436808e+01 7.214558e+01 6.097388e+01 7.412290e+01 7.248849e+01 8.077947e+01 9.010971e+01 9.042287e+01 7.268942e+01 7.128107e+01 7.149145e+01 7.013158e+01 7.010409e+01 6.898951e+01 6.884691e+01 6.790850e+01 6.751041e+01 6.662394e+01 6.602432e+01 6.529354e+01 6.463569e+01 6.405177e+01 6.331782e+01 6.279885e+01 6.201725e+01 6.154258e+01 6.072987e+01 6.023761e+01 5.940699e+01 5.890958e+01 5.812575e+01 5.761560e+01 5.681886e+01 5.618367e+01 5.532828e+01 5.466020e+01 5.394948e+01 5.344592e+01 5.290115e+01 5.238215e+01 5.170269e+01 5.096605e+01 5.021449e+01 5.063879e+01 5.103117e+01 4.742644e+01 4.828540e+01 5.225136e+01 4.886468e+01 4.372522e+01 4.800029e+01 4.795861e+01 4.238499e+01 4.118556e+01 4.505446e+01 4.181538e+01 3.690446e+01 3.961436e+01 3.950939e+01 3.773074e+01 3.710752e+01 3.633617e+01 3.569186e+01 3.488400e+01 3.426311e+01 3.350016e+01 3.295978e+01 3.225447e+01 3.166268e+01 3.091625e+01 3.023403e+01 2.957766e+01 2.889364e+01 2.833188e+01 2.747290e+01 2.684202e+01 2.575422e+01 2.518625e+01 2.412520e+01 2.383269e+01 2.291434e+01 2.279711e+01 2.189582e+01 2.175073e+01 2.079230e+01 2.044585e+01 1.934629e+01 1.867492e+01 1.762027e+01 1.691825e+01 1.632522e+01 1.569346e+01 1.540840e+01 1.446222e+01 1.420211e+01 1.287333e+01 1.273456e+01 1.123003e+01 1.130870e+01 9.775760e+00 1.002405e+01 8.518427e+00 8.744138e+00 7.250260e+00 7.216919e+00 5.836381e+00 5.536095e+00 4.576374e+00 4.846684e+00 5.857349e+00 5.036001e-01 0 0 0 0 
0 0 0 0 0 1.024421e-01 3.126519e-01 1.860947e-01 2.496058e-01 2.111844e-01 3.105236e-01 2.535489e-01 3.636938e-01 6.053757e+01 6.611562e+01 6.210215e+01 6.454049e+01 6.402768e+01 6.256262e+01 6.590845e+01 6.054727e+01 3.242590e+00 3.179646e+00 3.189036e+00 3.128262e+00 3.127024e+00 3.077223e+00 3.070852e+00 3.028932e+00 3.011151e+00 2.971557e+00 2.944773e+00 2.912133e+00 2.882747e+00 2.856666e+00 2.823881e+00 2.800701e+00 2.765789e+00 2.744588e+00 2.708289e+00 2.686304e+00 2.649210e+00 2.626997e+00 2.591995e+00 2.569215e+00 2.533641e+00 2.505279e+00 2.467089e+00 2.437261e+00 2.405532e+00 2.383051e+00 2.358732e+00 2.335562e+00 2.305232e+00 2.272348e+00 2.238798e+00 3.492044e+00 4.905355e+00 1.143390e+00 1.304865e+00 6.203406e+00 3.545696e+00 5.112336e-01 3.779141e+00 5.430001e+00 1.618721e+00 1.056879e+00 5.609570e+00 3.198076e+00 4.137676e-01 3.210800e+00 3.183982e+00 1.724302e+00 1.653925e+00 1.619517e+00 1.590776e+00 1.554743e+00 1.527049e+00 1.493022e+00 1.468921e+00 1.437467e+00 1.411073e+00 1.377787e+00 1.347361e+00 1.318092e+00 1.287587e+00 1.262537e+00 1.224230e+00 1.196098e+00 1.147592e+00 1.122268e+00 1.074962e+00 1.061922e+00 1.020986e+00 1.015766e+00 9.755985e-01 9.691412e-01 9.264349e-01 9.110041e-01 8.620134e-01 8.320971e-01 7.851071e-01 7.538160e-01 7.273879e-01 6.992217e-01 6.865083e-01 6.443229e-01 6.327165e-01 5.734828e-01 5.672869e-01 5.002423e-01 5.037527e-01 4.354754e-01 4.465701e-01 3.795497e-01 3.896746e-01 3.232381e-01 3.219183e-01 2.607760e-01 2.482203e-01 2.076659e-01 2.191155e-01 2.617931e-01 2.241796e-02 0 0 0 0 
0 0 0 0 0 0 0 0 0 0 0 0 0 6.611940e+01 7.183270e+01 6.771806e+01 6.983056e+01 6.987133e+01 6.750504e+01 7.204469e+01 6.557055e+01 0 0 0 0 0 0 0 0 0 0 0 0 0 0 0 0 0 0 0 0 0 0 0 0 0 0 0 0 0 0 0 0 0 0 0 1.421685e-01 1.924991e-01 3.381766e-01 5.543219e-01 4.109536e-01 4.550434e-01 2.684041e-01 3.262574e-01 3.354142e-01 1.071877e-01 1.213432e-01 2.055111e-02 6.377064e-02 6.955644e-02 4.312278e-01 1.999676e-01 3.798393e-03 0 0 0 0 0 0 0 0 0 0 0 0 0 0 0 0 0 0 0 0 0 0 0 0 0 0 0 0 0 0 0 0 0 0 0 0 0 0 0 0 0 0 0 0 0 0 0 0 0 0 0 0 0 0 0 
0 0 0 0 0 0 0 0 0 0 0 0 0 6.543394e+01 6.779165e+01 6.575742e+01 6.674744e+01 6.656699e+01 6.587278e+01 6.757715e+01 6.547767e+01 0 0 0 0 0 0 0 0 0 0 0 0 0 0 0 0 0 0 0 0 0 0 0 0 0 0 0 0 0 0 0 0 0 0 0 0 0 0 0 0 0 0 0 0 0 0 0 0 0 0 0 0 0 0 0 0 0 0 0 0 0 0 0 0 0 0 0 0 0 0 0 0 0 0 0 0 0 0 0 0 0 0 0 0 0 0 0 0 0 0 0 0 0 0 0 0 0 0 0 0 0 0 0 0 0 0 0 
0 0 0 0 0 0 0 0 0 0 0 0 0 6.915544e+01 7.214421e+01 6.977100e+01 7.081453e+01 7.097198e+01 6.952576e+01 7.227856e+01 6.880411e+01 0 0 0 0 0 0 0 0 0 0 0 0 0 0 0 0 0 0 0 0 0 0 0 0 0 0 0 0 0 0 0 0 0 0 0 0 0 0 0 0 0 0 0 0 0 0 0 0 0 0 0 0 0 0 0 0 0 0 0 0 0 0 0 0 0 0 0 0 0 0 0 0 0 0 0 0 0 0 0 0 0 0 0 0 0 0 0 0 0 0 0 0 0 0 0 0 0 0 0 0 0 0 0 0 0 0 0 
0 0 0 0 0 0 0 0 0 0 0 0 0 6.543920e+01 6.780282e+01 6.575513e+01 6.674998e+01 6.655661e+01 6.586644e+01 6.756034e+01 6.546499e+01 0 0 0 0 0 0 0 0 0 0 0 0 0 0 0 0 0 0 0 0 0 0 0 0 0 0 0 0 0 0 0 0 0 0 0 0 0 0 0 0 0 0 0 0 0 0 0 0 0 0 0 0 0 0 0 0 0 0 0 0 0 0 0 0 0 0 0 0 0 0 0 0 0 0 0 0 0 0 0 0 0 0 0 0 0 0 0 0 0 0 0 0 0 0 0 0 0 0 0 0 0 0 0 0 0 0 0 
0 0 0 0 0 0 0 0 0 0 0 0 0 6.611598e+01 7.184864e+01 6.770720e+01 6.983086e+01 6.985355e+01 6.749820e+01 7.200738e+01 6.556669e+01 0 0 0 0 0 0 0 0 0 0 0 0 0 0 0 0 0 0 0 0 0 0 0 0 0 0 0 0 0 0 0 0 0 0 0 0 0 0 0 0 0 0 0 0 0 0 0 0 0 0 0 0 0 0 0 0 0 0 0 0 0 0 0 0 0 0 0 0 0 0 0 0 0 0 0 0 0 0 0 0 0 0 0 0 0 0 0 0 0 0 0 0 0 0 0 0 0 0 0 0 0 0 0 0 0 0 0 
0 0 0 0 0 1.025954e-01 3.123690e-01 1.878210e-01 2.560792e-01 2.151066e-01 3.128678e-01 2.528088e-01 3.655890e-01 6.056417e+01 6.616311e+01 6.209935e+01 6.454900e+01 6.399314e+01 6.253285e+01 6.582948e+01 6.048254e+01 3.242169e+00 3.180174e+00 3.190753e+00 3.129605e+00 3.125187e+00 3.070527e+00 3.061967e+00 3.024058e+00 3.016229e+00 2.987340e+00 2.966122e+00 2.932015e+00 2.896310e+00 2.864271e+00 2.827302e+00 2.802229e+00 2.764602e+00 2.741079e+00 2.702057e+00 2.679356e+00 2.641444e+00 2.618852e+00 2.582575e+00 2.560109e+00 2.528115e+00 2.506772e+00 2.476436e+00 2.448289e+00 2.410050e+00 2.371730e+00 2.333138e+00 2.301637e+00 2.276904e+00 2.254944e+00 2.232842e+00 2.205594e+00 2.176351e+00 2.142935e+00 2.109161e+00 2.072210e+00 2.036307e+00 2.001384e+00 1.973804e+00 1.948025e+00 1.926933e+00 1.898472e+00 1.868302e+00 1.825399e+00 1.785805e+00 1.740771e+00 1.708869e+00 1.673769e+00 1.652143e+00 1.621040e+00 1.600888e+00 1.567643e+00 1.543595e+00 1.504249e+00 1.473524e+00 1.433428e+00 1.405490e+00 1.374689e+00 1.348843e+00 1.319739e+00 1.285911e+00 1.257872e+00 1.222512e+00 1.204294e+00 1.169377e+00 1.155010e+00 1.111236e+00 1.092728e+00 1.040472e+00 1.022227e+00 9.704825e-01 9.543680e-01 9.043059e-01 8.865737e-01 8.426560e-01 8.254083e-01 7.913305e-01 7.668943e-01 7.366213e-01 7.000965e-01 6.794802e-01 6.357741e-01 6.252965e-01 5.681838e-01 5.612913e-01 4.934817e-01 4.968479e-01 4.309447e-01 4.456813e-01 3.822853e-01 3.953864e-01 3.308927e-01 3.327703e-01 2.746974e-01 2.646128e-01 2.220831e-01 2.266720e-01 2.640148e-01 2.244635e-02 0 0 0 0 
0 0 0 0 0 2.306620e+00 7.019068e+00 4.227120e+00 5.760652e+00 4.836915e+00 7.036581e+00 5.693109e+00 8.226077e+00 5.425742e+01 7.198994e+01 6.092269e+01 7.406152e+01 7.248193e+01 8.070929e+01 9.012887e+01 9.050141e+01 7.268000e+01 7.129289e+01 7.152987e+01 7.016165e+01 7.006296e+01 6.883962e+01 6.864804e+01 6.779939e+01 6.762407e+01 6.697727e+01 6.650225e+01 6.573863e+01 6.493933e+01 6.422201e+01 6.339441e+01 6.283306e+01 6.199068e+01 6.146402e+01 6.059033e+01 6.008203e+01 5.923308e+01 5.872719e+01 5.791477e+01 5.741166e+01 5.669510e+01 5.621709e+01 5.553762e+01 5.490720e+01 5.405066e+01 5.319232e+01 5.232783e+01 5.162218e+01 5.106810e+01 5.057616e+01 5.008101e+01 4.947056e+01 4.881539e+01 4.806672e+01 4.730999e+01 4.648206e+01 4.567755e+01 4.489502e+01 4.427700e+01 4.369931e+01 4.322664e+01 4.258883e+01 4.191267e+01 4.095114e+01 4.006371e+01 3.905431e+01 3.833923e+01 3.755242e+01 3.706764e+01 3.637038e+01 3.591860e+01 3.517324e+01 3.463409e+01 3.375189e+01 3.306300e+01 3.216389e+01 3.153745e+01 3.084674e+01 3.026720e+01 2.961452e+01 2.885602e+01 2.822723e+01 2.743433e+01 2.702581e+01 2.624279e+01 2.592060e+01 2.493884e+01 2.452368e+01 2.335145e+01 2.294209e+01 2.178109e+01 2.141938e+01 2.029591e+01 1.989784e+01 1.891211e+01 1.852494e+01 1.776004e+01 1.721176e+01 1.653240e+01 1.571311e+01 1.525067e+01 1.427037e+01 1.403560e+01 1.275439e+01 1.259998e+01 1.107829e+01 1.115376e+01 9.674143e+00 1.000419e+01 8.579950e+00 8.872441e+00 7.422186e+00 7.460631e+00 6.149042e+00 5.904086e+00 4.899951e+00 5.015341e+00 5.907082e+00 5.042378e-01 0 0 0 0 
0 0 0 0 0 3.339903e+00 1.016240e+01 6.121863e+00 8.342058e+00 7.003869e+00 1.018935e+01 8.245774e+00 1.191276e+01 1.635030e+01 2.347441e+01 2.971016e+01 4.406866e+01 5.771241e+01 7.136208e+01 8.448079e+01 1.036077e+02 1.051841e+02 1.031773e+02 1.035203e+02 1.015408e+02 1.013980e+02 9.962811e+01 9.935092e+01 9.812303e+01 9.786936e+01 9.693350e+01 9.624620e+01 9.514131e+01 9.398482e+01 9.294694e+01 9.174950e+01 9.093728e+01 8.971845e+01 8.895643e+01 8.769227e+01 8.695679e+01 8.572842e+01 8.499642e+01 8.382088e+01 8.309289e+01 8.205603e+01 8.136437e+01 8.038117e+01 7.946895e+01 7.822952e+01 7.698748e+01 7.573653e+01 7.471543e+01 7.391364e+01 7.320179e+01 7.248526e+01 7.160191e+01 7.065382e+01 6.957044e+01 6.847538e+01 6.727729e+01 6.611307e+01 6.498065e+01 6.408629e+01 6.325030e+01 6.256628e+01 6.164329e+01 6.066478e+01 5.927328e+01 5.798902e+01 5.652823e+01 5.549336e+01 5.435469e+01 5.365310e+01 5.264400e+01 5.199017e+01 5.091144e+01 5.013115e+01 4.885437e+01 4.785736e+01 4.655608e+01 4.564944e+01 4.464977e+01 4.381101e+01 4.286638e+01 4.176861e+01 4.085855e+01 3.971099e+01 3.911974e+01 3.798646e+01 3.752015e+01 3.609921e+01 3.549831e+01 3.380163e+01 3.320909e+01 3.152861e+01 3.100502e+01 2.937879e+01 2.880256e+01 2.737567e+01 2.681522e+01 2.570800e+01 2.491438e+01 2.393101e+01 2.274518e+01 2.207587e+01 2.065702e+01 2.031728e+01 1.846286e+01 1.823941e+01 1.603679e+01 1.614601e+01 1.400410e+01 1.448167e+01 1.241969e+01 1.284269e+01 1.074271e+01 1.079742e+01 8.896774e+00 8.537464e+00 7.071353e+00 7.241587e+00 8.545978e+00 7.300126e-01 0 0 0 0 
0 0 0 0 0 1.135878e+00 3.455700e+00 2.082565e+00 2.837485e+00 2.382060e+00 3.465632e+00 2.805474e+00 4.052269e+00 5.558714e+00 7.979122e+00 1.009889e+01 1.497979e+01 1.961652e+01 2.425523e+01 2.871253e+01 3.521063e+01 3.574629e+01 3.506462e+01 3.518114e+01 3.450874e+01 3.446027e+01 3.385901e+01 3.376485e+01 3.334770e+01 3.326151e+01 3.294356e+01 3.271007e+01 3.233469e+01 3.194180e+01 3.158919e+01 3.118239e+01 3.090645e+01 3.049238e+01 3.023349e+01 2.980400e+01 2.955412e+01 2.913678e+01 2.888808e+01 2.848868e+01 2.824134e+01 2.788905e+01 2.765405e+01 2.731998e+01 2.701003e+01 2.658890e+01 2.616689e+01 2.574184e+01 2.539488e+01 2.512244e+01 2.488057e+01 2.463710e+01 2.433694e+01 2.401478e+01 2.364665e+01 2.327455e+01 2.286744e+01 2.247182e+01 2.208702e+01 2.178310e+01 2.149902e+01 2.126658e+01 2.095293e+01 2.062041e+01 2.014754e+01 1.971111e+01 1.921469e+01 1.886300e+01 1.847603e+01 1.823760e+01 1.789466e+01 1.767246e+01 1.730584e+01 1.704066e+01 1.660673e+01 1.626788e+01 1.582562e+01 1.551748e+01 1.517772e+01 1.489265e+01 1.457160e+01 1.419850e+01 1.388919e+01 1.349917e+01 1.329822e+01 1.291305e+01 1.275456e+01 1.227160e+01 1.206736e+01 1.149065e+01 1.128924e+01 1.071800e+01 1.054001e+01 9.987190e+00 9.791290e+00 9.306220e+00 9.115687e+00 8.739286e+00 8.469515e+00 8.135235e+00 7.732173e+00 7.504677e+00 7.022423e+00 6.906977e+00 6.276648e+00 6.200724e+00 5.451977e+00 5.489097e+00 4.760899e+00 4.923162e+00 4.222030e+00 4.365635e+00 3.651412e+00 3.669556e+00 3.022429e+00 2.897991e+00 2.393485e+00 2.452918e+00 2.902910e+00 2.482212e-01 0 0 0 0 
0 0 0 0 0 0 0 0 0 0 0 0 0 0 0 0 0 0 0 0 0 0 0 0 0 0 0 0 0 0 0 0 0 0 0 0 0 0 0 0 0 0 0 0 0 0 0 0 0 0 0 0 0 0 0 0 0 0 0 0 0 0 0 0 0 0 0 0 0 0 0 0 0 0 0 0 0 0 0 0 0 0 0 0 0 0 0 0 0 0 0 0 0 0 0 0 0 0 0 0 0 0 0 0 0 0 0 0 0 0 0 0 0 0 0 0 0 0 0 0 0 0 0 0 0 0 0 0 
