# vtk DataFile Version 2.0
Comment goes here
ASCII

DATASET STRUCTURED_POINTS
FIELD FieldData 1
TIME 1 1 double
0.75000000
DIMENSIONS    128   16   1

ORIGIN    0.000   0.000   0.000
SPACING   0.0078125 0.015625   1.000

POINT_DATA   2048
SCALARS fMag double
LOOKUP_TABLE default

0 0 0 0 0 0 0 0 0 0 0 0 0 0 0 0 0 0 0 0 0 0 0 0 0 0 0 0 0 0 0 0 0 0 0 0 0 0 0 0 0 0 0 0 0 0 0 0 0 0 0 0 0 0 0 0 0 0 0 0 0 0 0 0 0 0 0 0 0 0 0 0 0 0 0 0 0 0 0 0 0 0 0 0 0 0 0 0 0 0 0 0 0 0 0 0 0 0 0 0 0 0 0 0 0 0 0 0 0 0 0 0 0 0 0 0 0 0 0 0 0 0 0 0 0 0 0 0 
0 0 0 0 0 0 0 0 0 0 0 0 0 0 0 0 0 0 0 0 0 0 0 0 0 0 0 0 0 0 0 0 0 0 0 0 0 0 0 0 0 0 0 0 0 0 0 0 0 0 0 0 0 0 0 0 0 0 0 0 0 0 0 0 0 0 0 0 0 0 0 0 0 0 0 0 0 0 0 0 0 0 0 0 0 0 0 0 0 0 0 0 0 0 0 0 0 0 0 0 0 0 0 0 0 0 0 0 0 0 0 0 0 0 0 0 0 0 0 0 0 0 0 0 0 0 0 0 
0 0 0 0 0 1.134077e+00 3.464251e+00 2.082192e+00 2.801000e+00 2.355860e+00 3.437186e+00 2.798664e+00 4.021829e+00 5.519940e+00 7.962887e+00 1.010005e+01 1.498378e+01 1.962629e+01 2.425481e+01 2.870453e+01 3.519021e+01 3.572823e+01 3.505714e+01 3.520845e+01 3.460132e+01 3.463607e+01 3.409596e+01 3.398913e+01 3.346793e+01 3.321545e+01 3.274902e+01 3.244836e+01 3.210829e+01 3.181328e+01 3.156616e+01 3.123741e+01 3.100318e+01 3.060815e+01 3.034096e+01 2.988647e+01 2.959171e+01 2.914251e+01 2.888477e+01 2.851273e+01 2.829863e+01 2.795849e+01 2.770189e+01 2.732835e+01 2.701481e+01 2.663608e+01 2.630953e+01 2.594854e+01 2.562280e+01 2.528349e+01 2.497205e+01 2.470258e+01 2.388292e+01 2.198050e+01 2.269830e+01 2.236860e+01 1.817597e+01 1.980814e+01 2.209615e+01 1.968596e+01 1.752420e+01 2.084466e+01 2.102906e+01 1.743279e+01 1.891004e+01 2.113028e+01 1.934861e+01 1.809354e+01 1.829561e+01 1.809474e+01 1.777009e+01 1.750534e+01 1.714665e+01 1.687867e+01 1.652077e+01 1.624749e+01 1.587373e+01 1.555359e+01 1.517108e+01 1.482554e+01 1.449572e+01 1.414515e+01 1.386974e+01 1.346948e+01 1.321867e+01 1.275819e+01 1.254893e+01 1.205282e+01 1.188150e+01 1.135398e+01 1.120620e+01 1.068218e+01 1.055156e+01 1.004552e+01 9.874168e+00 9.387080e+00 9.157687e+00 8.755680e+00 8.477347e+00 8.176935e+00 7.785866e+00 7.550849e+00 7.015115e+00 6.867534e+00 6.229509e+00 6.197013e+00 5.491223e+00 5.556105e+00 4.816211e+00 4.943659e+00 4.201284e+00 4.302657e+00 3.560445e+00 3.546101e+00 2.890733e+00 2.763817e+00 2.300779e+00 2.392969e+00 2.885155e+00 2.469539e-01 0 0 0 0 
0 0 0 0 0 3.334609e+00 1.018759e+01 6.120995e+00 8.234829e+00 6.926805e+00 1.010565e+01 8.225716e+00 1.182319e+01 1.623629e+01 2.342669e+01 2.971360e+01 4.408043e+01 5.774118e+01 7.136085e+01 8.445726e+01 1.035475e+02 1.051310e+02 1.031553e+02 1.036006e+02 1.018133e+02 1.019155e+02 1.003256e+02 1.000111e+02 9.847694e+01 9.773378e+01 9.636084e+01 9.547584e+01 9.447487e+01 9.360651e+01 9.287911e+01 9.191143e+01 9.122198e+01 9.005921e+01 8.927277e+01 8.793502e+01 8.706743e+01 8.574526e+01 8.498666e+01 8.389165e+01 8.326149e+01 8.226040e+01 8.150517e+01 8.040579e+01 7.948299e+01 7.836835e+01 7.740728e+01 7.634487e+01 7.538620e+01 7.438759e+01 7.347101e+01 7.267794e+01 7.138492e+01 6.846929e+01 6.882524e+01 6.901288e+01 6.361713e+01 6.421089e+01 6.453272e+01 6.293194e+01 5.919985e+01 6.120305e+01 6.097970e+01 5.675856e+01 5.736416e+01 5.774175e+01 5.544421e+01 5.404083e+01 5.387075e+01 5.323274e+01 5.227747e+01 5.149844e+01 5.044303e+01 4.965452e+01 4.860147e+01 4.779735e+01 4.669765e+01 4.575569e+01 4.463024e+01 4.361355e+01 4.264312e+01 4.161164e+01 4.080132e+01 3.962363e+01 3.888569e+01 3.753085e+01 3.691516e+01 3.545553e+01 3.495150e+01 3.339955e+01 3.296482e+01 3.142325e+01 3.103905e+01 2.955042e+01 2.904642e+01 2.761360e+01 2.693883e+01 2.575628e+01 2.493745e+01 2.405370e+01 2.290314e+01 2.221170e+01 2.063552e+01 2.020125e+01 1.832418e+01 1.822849e+01 1.615224e+01 1.634315e+01 1.416684e+01 1.454201e+01 1.235872e+01 1.265748e+01 1.047517e+01 1.043432e+01 8.509455e+00 8.142854e+00 6.798696e+00 7.065318e+00 8.493763e+00 7.262855e-01 0 0 0 0 
0 0 0 0 0 2.302964e+00 7.036488e+00 4.226630e+00 5.686622e+00 4.783681e+00 6.978753e+00 5.679240e+00 8.164188e+00 5.431286e+01 7.209357e+01 6.096533e+01 7.412975e+01 7.251430e+01 8.076392e+01 9.013016e+01 9.046495e+01 7.264325e+01 7.127767e+01 7.158543e+01 7.035001e+01 7.042061e+01 6.932170e+01 6.910435e+01 6.804399e+01 6.753037e+01 6.658148e+01 6.596982e+01 6.527803e+01 6.467786e+01 6.417513e+01 6.350632e+01 6.302982e+01 6.222618e+01 6.168265e+01 6.075809e+01 6.015849e+01 5.924472e+01 5.872044e+01 5.796367e+01 5.752818e+01 5.683633e+01 5.631440e+01 5.555464e+01 5.491690e+01 5.414660e+01 5.348243e+01 5.274823e+01 5.208572e+01 5.139563e+01 5.076221e+01 5.021414e+01 5.110520e+01 5.202161e+01 4.871163e+01 4.952112e+01 5.336466e+01 4.968212e+01 4.447951e+01 4.873323e+01 4.876056e+01 4.337026e+01 4.232822e+01 4.615530e+01 4.270034e+01 3.770237e+01 3.989347e+01 3.925795e+01 3.727517e+01 3.677719e+01 3.611713e+01 3.557884e+01 3.484960e+01 3.430476e+01 3.357716e+01 3.302154e+01 3.226171e+01 3.161086e+01 3.083325e+01 3.013076e+01 2.946026e+01 2.874756e+01 2.818768e+01 2.737397e+01 2.686410e+01 2.592800e+01 2.550260e+01 2.449412e+01 2.414589e+01 2.307366e+01 2.277333e+01 2.170831e+01 2.144290e+01 2.041450e+01 2.006634e+01 1.907651e+01 1.861036e+01 1.779342e+01 1.722771e+01 1.661716e+01 1.582223e+01 1.534451e+01 1.425552e+01 1.395544e+01 1.265859e+01 1.259243e+01 1.115805e+01 1.128996e+01 9.786584e+00 1.004589e+01 8.537855e+00 8.744515e+00 7.237392e+00 7.209827e+00 5.881510e+00 5.631515e+00 4.711615e+00 4.893607e+00 5.871018e+00 5.016634e-01 0 0 0 0 
0 0 0 0 0 1.024331e-01 3.131496e-01 1.878273e-01 2.527930e-01 2.127356e-01 3.102890e-01 2.521878e-01 3.628283e-01 6.054813e+01 6.614393e+01 6.209713e+01 6.454052e+01 6.400444e+01 6.253291e+01 6.586194e+01 6.049974e+01 3.240526e+00 3.179493e+00 3.193234e+00 3.138020e+00 3.141165e+00 3.092064e+00 3.082353e+00 3.034985e+00 3.012043e+00 2.969660e+00 2.942338e+00 2.911440e+00 2.884630e+00 2.862175e+00 2.832300e+00 2.811016e+00 2.775119e+00 2.750843e+00 2.709549e+00 2.682770e+00 2.641963e+00 2.618550e+00 2.584757e+00 2.565311e+00 2.534420e+00 2.511115e+00 2.477194e+00 2.448721e+00 2.414332e+00 2.384680e+00 2.351905e+00 2.322329e+00 2.291524e+00 2.263249e+00 2.238779e+00 3.782191e+00 5.773813e+00 2.261752e+00 2.391318e+00 7.593607e+00 4.934478e+00 1.882489e+00 5.296258e+00 6.867756e+00 3.039293e+00 2.400659e+00 6.991513e+00 4.344554e+00 1.341208e+00 4.353737e+00 3.564132e+00 1.703794e+00 1.639189e+00 1.609747e+00 1.585735e+00 1.553209e+00 1.528908e+00 1.496457e+00 1.471677e+00 1.437792e+00 1.408764e+00 1.374087e+00 1.342758e+00 1.312859e+00 1.281074e+00 1.256108e+00 1.219820e+00 1.197083e+00 1.155341e+00 1.136373e+00 1.091410e+00 1.075886e+00 1.028089e+00 1.014707e+00 9.672415e-01 9.554203e-01 9.095961e-01 8.940891e-01 8.499893e-01 8.292216e-01 7.928242e-01 7.676088e-01 7.404000e-01 7.049600e-01 6.836622e-01 6.351120e-01 6.217245e-01 5.639145e-01 5.609541e-01 4.970356e-01 5.029185e-01 4.359585e-01 4.475444e-01 3.804165e-01 3.896926e-01 3.226663e-01 3.216040e-01 2.627875e-01 2.524781e-01 2.136978e-01 2.212579e-01 2.624098e-01 2.233176e-02 0 0 0 0 
0 0 0 0 0 0 0 0 0 0 0 0 0 6.612428e+01 7.184998e+01 6.772007e+01 6.983678e+01 6.986955e+01 6.750022e+01 7.202859e+01 6.555690e+01 0 0 0 0 0 0 0 0 0 0 0 0 0 0 0 0 0 0 0 0 0 0 0 0 0 0 0 0 0 0 0 0 0 0 0 1.785994e-01 2.424680e-01 3.329873e-01 5.215517e-01 3.319682e-01 3.864271e-01 1.714706e-01 1.998256e-01 2.257314e-01 3.286840e-03 1.792511e-02 1.658874e-01 4.527723e-02 2.032368e-01 5.731194e-01 2.511156e-01 3.753538e-03 0 0 0 0 0 0 0 0 0 0 0 0 0 0 0 0 0 0 0 0 0 0 0 0 0 0 0 0 0 0 0 0 0 0 0 0 0 0 0 0 0 0 0 0 0 0 0 0 0 0 0 0 0 0 0 
0 0 0 0 0 0 0 0 0 0 0 0 0 6.544084e+01 6.779787e+01 6.575667e+01 6.674344e+01 6.655982e+01 6.585891e+01 6.756643e+01 6.545694e+01 0 0 0 0 0 0 0 0 0 0 0 0 0 0 0 0 0 0 0 0 0 0 0 0 0 0 0 0 0 0 0 0 0 0 0 0 0 0 0 0 0 0 0 0 0 0 0 0 0 0 0 0 0 0 0 0 0 0 0 0 0 0 0 0 0 0 0 0 0 0 0 0 0 0 0 0 0 0 0 0 0 0 0 0 0 0 0 0 0 0 0 0 0 0 0 0 0 0 0 0 0 0 0 0 0 0 0 
0 0 0 0 0 0 0 0 0 0 0 0 0 6.916332e+01 7.214680e+01 6.977569e+01 7.081153e+01 7.097279e+01 6.951473e+01 7.227436e+01 6.878355e+01 0 0 0 0 0 0 0 0 0 0 0 0 0 0 0 0 0 0 0 0 0 0 0 0 0 0 0 0 0 0 0 0 0 0 0 0 0 0 0 0 0 0 0 0 0 0 0 0 0 0 0 0 0 0 0 0 0 0 0 0 0 0 0 0 0 0 0 0 0 0 0 0 0 0 0 0 0 0 0 0 0 0 0 0 0 0 0 0 0 0 0 0 0 0 0 0 0 0 0 0 0 0 0 0 0 0 0 
0 0 0 0 0 0 0 0 0 0 0 0 0 6.544059e+01 6.779563e+01 6.575555e+01 6.674047e+01 6.655722e+01 6.585521e+01 6.756159e+01 6.545219e+01 0 0 0 0 0 0 0 0 0 0 0 0 0 0 0 0 0 0 0 0 0 0 0 0 0 0 0 0 0 0 0 0 0 0 0 0 0 0 0 0 0 0 0 0 0 0 0 0 0 0 0 0 0 0 0 0 0 0 0 0 0 0 0 0 0 0 0 0 0 0 0 0 0 0 0 0 0 0 0 0 0 0 0 0 0 0 0 0 0 0 0 0 0 0 0 0 0 0 0 0 0 0 0 0 0 0 0 
0 0 0 0 0 0 0 0 0 0 0 0 0 6.612785e+01 7.184575e+01 6.771813e+01 6.982815e+01 6.986203e+01 6.748683e+01 7.201758e+01 6.553738e+01 0 0 0 0 0 0 0 0 0 0 0 0 0 0 0 0 0 0 0 0 0 0 0 0 0 0 0 0 0 0 0 0 0 0 0 0 0 0 0 0 0 0 0 0 0 0 0 0 0 0 0 0 0 0 0 0 0 0 0 0 0 0 0 0 0 0 0 0 0 0 0 0 0 0 0 0 0 0 0 0 0 0 0 0 0 0 0 0 0 0 0 0 0 0 0 0 0 0 0 0 0 0 0 0 0 0 0 
0 0 0 0 0 1.023740e-01 3.124554e-01 1.868021e-01 2.528589e-01 2.132397e-01 3.116402e-01 2.527275e-01 3.636358e-01 6.055123e+01 6.613438e+01 6.209657e+01 6.453030e+01 6.399959e+01 6.252151e+01 6.585258e+01 6.048875e+01 3.239509e+00 3.178785e+00 3.191867e+00 3.134406e+00 3.133856e+00 3.081576e+00 3.071965e+00 3.028903e+00 3.013352e+00 2.977923e+00 2.954521e+00 2.923450e+00 2.893577e+00 2.867228e+00 2.833567e+00 2.809617e+00 2.771432e+00 2.746791e+00 2.706338e+00 2.682783e+00 2.644655e+00 2.622934e+00 2.587822e+00 2.566210e+00 2.533479e+00 2.509837e+00 2.476222e+00 2.446203e+00 2.409129e+00 2.375082e+00 2.340808e+00 2.310700e+00 2.283280e+00 2.256862e+00 2.231380e+00 2.203340e+00 2.174938e+00 2.142775e+00 2.110522e+00 2.075882e+00 2.042844e+00 2.009566e+00 1.980654e+00 1.949880e+00 1.921964e+00 1.887683e+00 1.856086e+00 1.817315e+00 1.786161e+00 1.749960e+00 1.723674e+00 1.689333e+00 1.664597e+00 1.628294e+00 1.601995e+00 1.562479e+00 1.533647e+00 1.493122e+00 1.465335e+00 1.430511e+00 1.407179e+00 1.378777e+00 1.353595e+00 1.324718e+00 1.290674e+00 1.260776e+00 1.220968e+00 1.196299e+00 1.154975e+00 1.136655e+00 1.093289e+00 1.079552e+00 1.034553e+00 1.022773e+00 9.749243e-01 9.602142e-01 9.108280e-01 8.931906e-01 8.479310e-01 8.264801e-01 7.868840e-01 7.581725e-01 7.271586e-01 6.922918e-01 6.740035e-01 6.320741e-01 6.239587e-01 5.705666e-01 5.684670e-01 5.041651e-01 5.075532e-01 4.372576e-01 4.443900e-01 3.732652e-01 3.816453e-01 3.175096e-01 3.232844e-01 2.701300e-01 2.626391e-01 2.217012e-01 2.253135e-01 2.635040e-01 2.240610e-02 0 0 0 0 
0 0 0 0 0 2.301635e+00 7.020871e+00 4.203695e+00 5.688188e+00 4.795008e+00 7.009085e+00 5.691356e+00 8.182309e+00 5.435216e+01 7.211429e+01 6.095789e+01 7.410328e+01 7.247828e+01 8.072675e+01 9.006457e+01 9.038006e+01 7.262048e+01 7.126183e+01 7.155485e+01 7.026913e+01 7.025702e+01 6.908695e+01 6.887183e+01 6.790784e+01 6.755968e+01 6.676647e+01 6.624256e+01 6.554689e+01 6.487815e+01 6.428824e+01 6.353469e+01 6.299850e+01 6.214362e+01 6.159193e+01 6.068619e+01 6.015879e+01 5.930501e+01 5.881862e+01 5.803230e+01 5.754831e+01 5.681525e+01 5.628576e+01 5.553285e+01 5.486049e+01 5.403004e+01 5.326742e+01 5.249964e+01 5.182522e+01 5.121095e+01 5.061913e+01 5.004825e+01 4.942007e+01 4.878373e+01 4.806315e+01 4.734049e+01 4.656435e+01 4.582405e+01 4.507837e+01 4.443050e+01 4.374089e+01 4.311528e+01 4.234704e+01 4.163890e+01 4.076995e+01 4.007169e+01 3.926028e+01 3.867108e+01 3.790131e+01 3.734681e+01 3.653299e+01 3.594340e+01 3.505748e+01 3.441106e+01 3.350240e+01 3.287937e+01 3.209849e+01 3.157531e+01 3.093842e+01 3.037376e+01 2.972618e+01 2.896281e+01 2.829234e+01 2.739969e+01 2.684648e+01 2.591978e+01 2.550891e+01 2.453628e+01 2.422814e+01 2.321869e+01 2.295431e+01 2.188072e+01 2.155051e+01 2.044221e+01 2.004628e+01 1.903045e+01 1.854899e+01 1.766026e+01 1.701606e+01 1.632008e+01 1.553797e+01 1.512779e+01 1.418735e+01 1.400559e+01 1.280787e+01 1.276102e+01 1.131807e+01 1.139401e+01 9.815814e+00 9.975190e+00 8.377431e+00 8.563986e+00 7.121740e+00 7.247640e+00 6.046489e+00 5.859655e+00 4.891224e+00 4.984250e+00 5.895517e+00 5.033337e-01 0 0 0 0 
0 0 0 0 0 3.332684e+00 1.016497e+01 6.087815e+00 8.237117e+00 6.943204e+00 1.014956e+01 8.243255e+00 1.184942e+01 1.625714e+01 2.343848e+01 2.970565e+01 4.407135e+01 5.772952e+01 7.134891e+01 8.441858e+01 1.035115e+02 1.050980e+02 1.031324e+02 1.035564e+02 1.016963e+02 1.016788e+02 9.998596e+01 9.967471e+01 9.827994e+01 9.777618e+01 9.662849e+01 9.587045e+01 9.486388e+01 9.389630e+01 9.304276e+01 9.195247e+01 9.117667e+01 8.993974e+01 8.914150e+01 8.783099e+01 8.706787e+01 8.583250e+01 8.512872e+01 8.399095e+01 8.329063e+01 8.222989e+01 8.146373e+01 8.037427e+01 7.940135e+01 7.819967e+01 7.709616e+01 7.598515e+01 7.500924e+01 7.412035e+01 7.326397e+01 7.243787e+01 7.152885e+01 7.060801e+01 6.956527e+01 6.851952e+01 6.739637e+01 6.632506e+01 6.524599e+01 6.430843e+01 6.331048e+01 6.240513e+01 6.129337e+01 6.026858e+01 5.901107e+01 5.800056e+01 5.682631e+01 5.597362e+01 5.485960e+01 5.405712e+01 5.287933e+01 5.202606e+01 5.074390e+01 4.980838e+01 4.849328e+01 4.759160e+01 4.646142e+01 4.570424e+01 4.478245e+01 4.396523e+01 4.302799e+01 4.192317e+01 4.095278e+01 3.966085e+01 3.886018e+01 3.751895e+01 3.692429e+01 3.551654e+01 3.507055e+01 3.360947e+01 3.322678e+01 3.167281e+01 3.119482e+01 2.959055e+01 2.901740e+01 2.754695e+01 2.685003e+01 2.556356e+01 2.463112e+01 2.362369e+01 2.249168e+01 2.189800e+01 2.053684e+01 2.027384e+01 1.854026e+01 1.847252e+01 1.638387e+01 1.649377e+01 1.420917e+01 1.443969e+01 1.212653e+01 1.239618e+01 1.030778e+01 1.048908e+01 8.748315e+00 8.473116e+00 7.058681e+00 7.196426e+00 8.529211e+00 7.287038e-01 0 0 0 0 
0 0 0 0 0 1.133423e+00 3.456559e+00 2.070922e+00 2.801788e+00 2.361436e+00 3.452114e+00 2.804626e+00 4.030746e+00 5.527034e+00 7.966900e+00 1.009735e+01 1.498070e+01 1.962233e+01 2.425075e+01 2.869139e+01 3.517796e+01 3.571704e+01 3.504936e+01 3.519343e+01 3.456157e+01 3.455566e+01 3.398058e+01 3.387485e+01 3.340101e+01 3.322986e+01 3.283995e+01 3.258242e+01 3.224044e+01 3.191173e+01 3.162175e+01 3.125135e+01 3.098778e+01 3.056756e+01 3.029637e+01 2.985113e+01 2.959186e+01 2.917215e+01 2.893304e+01 2.854647e+01 2.830853e+01 2.794812e+01 2.768781e+01 2.731764e+01 2.698707e+01 2.657877e+01 2.620382e+01 2.582632e+01 2.549472e+01 2.519268e+01 2.490170e+01 2.462099e+01 2.431212e+01 2.399922e+01 2.364490e+01 2.328955e+01 2.290790e+01 2.254386e+01 2.217718e+01 2.185859e+01 2.151947e+01 2.121182e+01 2.083402e+01 2.048577e+01 2.005844e+01 1.971503e+01 1.931598e+01 1.902621e+01 1.864762e+01 1.837491e+01 1.797464e+01 1.768465e+01 1.724890e+01 1.693096e+01 1.648401e+01 1.617756e+01 1.579345e+01 1.553611e+01 1.522281e+01 1.494507e+01 1.462652e+01 1.425103e+01 1.392122e+01 1.348213e+01 1.321000e+01 1.275415e+01 1.255203e+01 1.207356e+01 1.192196e+01 1.142533e+01 1.129525e+01 1.076702e+01 1.060452e+01 1.005917e+01 9.864317e+00 9.364440e+00 9.127520e+00 8.690187e+00 8.373231e+00 8.030768e+00 7.646001e+00 7.444214e+00 6.981571e+00 6.892211e+00 6.302960e+00 6.279966e+00 5.569964e+00 5.607314e+00 4.830609e+00 4.908889e+00 4.122359e+00 4.213839e+00 3.503552e+00 3.564728e+00 2.971955e+00 2.876099e+00 2.389158e+00 2.437490e+00 2.897198e+00 2.477762e-01 0 0 0 0 
0 0 0 0 0 0 0 0 0 0 0 0 0 0 0 0 0 0 0 0 0 0 0 0 0 0 0 0 0 0 0 0 0 0 0 0 0 0 0 0 0 0 0 0 0 0 0 0 0 0 0 0 0 0 0 0 0 0 0 0 0 0 0 0 0 0 0 0 0 0 0 0 0 0 0 0 0 0 0 0 0 0 0 0 0 0 0 0 0 0 0 0 0 0 0 0 0 0 0 0 0 0 0 0 0 0 0 0 0 0 0 0 0 0 0 0 0 0 0 0 0 0 0 0 0 0 0 0 
