# vtk DataFile Version 2.0
Comment goes here
ASCII

DATASET STRUCTURED_POINTS
FIELD FieldData 1
TIME 1 1 double
0.26000000
DIMENSIONS    128   16   1

ORIGIN    0.000   0.000   0.000
SPACING   0.0078125 0.015625   1.000

POINT_DATA   2048
SCALARS fMag double
LOOKUP_TABLE default

0 0 0 0 0 0 0 0 0 0 0 0 0 0 0 0 0 0 0 0 0 0 0 0 0 0 0 0 0 0 0 0 0 0 0 0 0 0 0 0 0 0 0 0 0 0 0 0 0 0 0 0 0 0 0 0 0 0 0 0 0 0 0 0 0 0 0 0 0 0 0 0 0 0 0 0 0 0 0 0 0 0 0 0 0 0 0 0 0 0 0 0 0 0 0 0 0 0 0 0 0 0 0 0 0 0 0 0 0 0 0 0 0 0 0 0 0 0 0 0 0 0 0 0 0 0 0 0 
0 0 0 0 0 0 0 0 0 0 0 0 0 0 0 0 0 0 0 0 0 0 0 0 0 0 0 0 0 0 0 0 0 0 0 0 0 0 0 0 0 0 0 0 0 0 0 0 0 0 0 0 0 0 0 0 0 0 0 0 0 0 0 0 0 0 0 0 0 0 0 0 0 0 0 0 0 0 0 0 0 0 0 0 0 0 0 0 0 0 0 0 0 0 0 0 0 0 0 0 0 0 0 0 0 0 0 0 0 0 0 0 0 0 0 0 0 0 0 0 0 0 0 0 0 0 0 0 
0 0 0 0 0 1.717193e+00 3.057271e+00 1.492113e+00 2.517800e+00 1.970011e+00 3.129129e+00 2.462493e+00 3.677787e+00 5.001922e+00 7.239509e+00 9.449941e+00 1.329255e+01 1.756181e+01 2.166094e+01 2.519024e+01 3.159303e+01 3.187455e+01 3.129661e+01 3.151522e+01 3.107691e+01 3.134289e+01 3.077300e+01 3.064589e+01 2.989255e+01 2.964182e+01 2.912685e+01 2.917896e+01 2.906357e+01 2.913347e+01 2.883360e+01 2.857946e+01 2.826638e+01 2.788988e+01 2.753105e+01 2.711095e+01 2.670333e+01 2.599478e+01 2.559401e+01 2.522579e+01 2.520449e+01 2.509924e+01 2.514565e+01 2.465004e+01 2.416627e+01 2.348365e+01 2.319264e+01 2.298012e+01 2.310311e+01 2.324194e+01 2.351317e+01 2.361004e+01 2.299585e+01 2.134658e+01 2.353521e+01 2.259668e+01 1.547246e+01 1.841148e+01 2.212614e+01 1.792821e+01 1.366601e+01 2.135273e+01 2.148874e+01 1.526823e+01 1.819731e+01 2.211770e+01 1.750879e+01 1.316647e+01 1.458001e+01 1.446221e+01 1.458051e+01 1.493187e+01 1.528874e+01 1.549104e+01 1.536677e+01 1.491214e+01 1.429526e+01 1.346392e+01 1.299795e+01 1.265338e+01 1.261500e+01 1.233620e+01 1.230269e+01 1.206035e+01 1.208048e+01 1.160924e+01 1.137931e+01 1.062436e+01 1.019158e+01 9.786118e+00 9.831148e+00 9.509864e+00 9.370496e+00 8.995647e+00 8.652624e+00 8.328906e+00 8.016927e+00 7.829547e+00 7.248209e+00 6.958344e+00 6.291325e+00 6.168060e+00 5.593649e+00 5.874433e+00 5.505861e+00 5.837035e+00 5.226287e+00 5.280845e+00 4.507318e+00 4.311347e+00 3.514015e+00 3.381638e+00 2.861903e+00 2.769402e+00 2.728304e+00 2.576420e+00 2.568040e+00 2.141403e+00 3.104059e+00 3.494097e-01 0 0 0 0 
0 0 0 0 0 5.048871e+00 8.979354e+00 4.369638e+00 7.397256e+00 5.792192e+00 9.201240e+00 7.239390e+00 1.081324e+01 1.471284e+01 2.129761e+01 2.780029e+01 3.910438e+01 5.166652e+01 6.372764e+01 7.411432e+01 9.295934e+01 9.378786e+01 9.208662e+01 9.272997e+01 9.143959e+01 9.222223e+01 9.054458e+01 9.017035e+01 8.795292e+01 8.721490e+01 8.569923e+01 8.585260e+01 8.551302e+01 8.571881e+01 8.483624e+01 8.408827e+01 8.316680e+01 8.205865e+01 8.100258e+01 7.976611e+01 7.856640e+01 7.648102e+01 7.530150e+01 7.421779e+01 7.415507e+01 7.384529e+01 7.398187e+01 7.252328e+01 7.109958e+01 6.909073e+01 6.823432e+01 6.760888e+01 6.797086e+01 6.837943e+01 6.917766e+01 6.946270e+01 6.894941e+01 6.670379e+01 6.726878e+01 6.757204e+01 5.852872e+01 5.894912e+01 5.911650e+01 5.961227e+01 5.060161e+01 5.801645e+01 6.037803e+01 5.484143e+01 5.564136e+01 5.545477e+01 5.151413e+01 4.268816e+01 4.312339e+01 4.254459e+01 4.289266e+01 4.392650e+01 4.497651e+01 4.557179e+01 4.520612e+01 4.386841e+01 4.205342e+01 3.960734e+01 3.823637e+01 3.722255e+01 3.710959e+01 3.628930e+01 3.619071e+01 3.547770e+01 3.553692e+01 3.415053e+01 3.347410e+01 3.125312e+01 2.997993e+01 2.878717e+01 2.891974e+01 2.797466e+01 2.756471e+01 2.646203e+01 2.545289e+01 2.450059e+01 2.358274e+01 2.303144e+01 2.132110e+01 2.046830e+01 1.850598e+01 1.814330e+01 1.645354e+01 1.727954e+01 1.619544e+01 1.716988e+01 1.537362e+01 1.553450e+01 1.325962e+01 1.268358e+01 1.033884e+01 9.949884e+00 8.421597e+00 8.149874e+00 8.029302e+00 7.583451e+00 7.559409e+00 6.302754e+00 9.131178e+00 1.027804e+00 0 0 0 0 
0 0 0 0 0 3.486724e+00 6.196444e+00 3.009188e+00 5.105816e+00 4.000052e+00 6.354820e+00 4.999096e+00 7.467504e+00 4.858284e+01 6.752787e+01 5.471067e+01 6.393378e+01 6.484799e+01 6.972021e+01 8.169460e+01 8.283450e+01 6.480368e+01 6.362786e+01 6.407244e+01 6.318049e+01 6.372129e+01 6.256171e+01 6.230301e+01 6.077047e+01 6.026040e+01 5.921292e+01 5.931893e+01 5.908426e+01 5.922650e+01 5.861658e+01 5.809966e+01 5.746285e+01 5.669700e+01 5.596717e+01 5.511263e+01 5.428354e+01 5.284236e+01 5.202721e+01 5.127828e+01 5.123492e+01 5.102084e+01 5.111521e+01 5.010725e+01 4.912340e+01 4.773521e+01 4.714340e+01 4.671120e+01 4.696135e+01 4.724369e+01 4.779532e+01 4.799227e+01 4.874968e+01 4.854037e+01 4.270717e+01 4.579004e+01 4.970259e+01 4.407888e+01 3.547709e+01 4.617069e+01 4.432906e+01 3.663457e+01 4.026377e+01 4.743846e+01 4.213599e+01 3.239621e+01 3.880385e+01 3.541775e+01 3.009244e+01 2.939221e+01 2.963271e+01 3.034705e+01 3.107254e+01 3.148386e+01 3.123121e+01 3.030690e+01 2.905286e+01 2.736276e+01 2.641551e+01 2.571503e+01 2.563696e+01 2.507020e+01 2.500207e+01 2.450944e+01 2.455036e+01 2.359251e+01 2.312519e+01 2.159076e+01 2.071114e+01 1.988712e+01 1.997876e+01 1.932588e+01 1.904268e+01 1.828091e+01 1.758371e+01 1.692581e+01 1.629167e+01 1.591077e+01 1.472909e+01 1.413989e+01 1.278416e+01 1.253357e+01 1.136620e+01 1.193684e+01 1.118797e+01 1.186126e+01 1.062051e+01 1.073184e+01 9.160545e+00 8.762813e+00 7.143335e+00 6.874845e+00 5.819335e+00 5.631806e+00 5.548667e+00 5.241112e+00 5.224798e+00 4.355861e+00 6.308204e+00 7.100262e-01 0 0 0 0 
0 0 0 0 0 1.550464e-01 2.743612e-01 1.316624e-01 2.263602e-01 1.778716e-01 2.827088e-01 2.221992e-01 3.320456e-01 5.405799e+01 5.906882e+01 5.548299e+01 5.706671e+01 5.686949e+01 5.512915e+01 5.826024e+01 5.391822e+01 2.890373e+00 2.837844e+00 2.857685e+00 2.817817e+00 2.841942e+00 2.790123e+00 2.778556e+00 2.710103e+00 2.687321e+00 2.640547e+00 2.645284e+00 2.634809e+00 2.641166e+00 2.613937e+00 2.590855e+00 2.562422e+00 2.528223e+00 2.495638e+00 2.457479e+00 2.420462e+00 2.356115e+00 2.319723e+00 2.286285e+00 2.284346e+00 2.274787e+00 2.278998e+00 2.234005e+00 2.190092e+00 2.128137e+00 2.101723e+00 2.082435e+00 2.093601e+00 2.106204e+00 2.130828e+00 2.139614e+00 2.735974e+00 2.634178e+00 2.111793e+00 2.327264e+00 5.711841e+00 2.935386e+00 2.516688e+00 3.939081e+00 6.821544e+00 3.488131e-01 2.057319e+00 7.589712e+00 4.712872e+00 1.635959e+00 4.984574e+00 6.263800e+00 1.568073e+00 1.309830e+00 1.320557e+00 1.352417e+00 1.384769e+00 1.403117e+00 1.391849e+00 1.350623e+00 1.294703e+00 1.219331e+00 1.177093e+00 1.145855e+00 1.142371e+00 1.117097e+00 1.114058e+00 1.092093e+00 1.093919e+00 1.051219e+00 1.030391e+00 9.620003e-01 9.227933e-01 8.860746e-01 8.901714e-01 8.610843e-01 8.484688e-01 8.145271e-01 7.834511e-01 7.541330e-01 7.258637e-01 7.088809e-01 6.562000e-01 6.299330e-01 5.695038e-01 5.583288e-01 5.063097e-01 5.317391e-01 4.983867e-01 5.284145e-01 4.731752e-01 4.781833e-01 4.082417e-01 3.905748e-01 3.185065e-01 3.065989e-01 2.596419e-01 2.513335e-01 2.476691e-01 2.340811e-01 2.334290e-01 1.945105e-01 2.810849e-01 3.163157e-02 0 0 0 0 
0 0 0 0 0 0 0 0 0 0 0 0 0 5.900294e+01 6.428313e+01 6.041506e+01 6.193348e+01 6.228361e+01 5.981085e+01 6.417800e+01 5.873862e+01 0 0 0 0 0 0 0 0 0 0 0 0 0 0 0 0 0 0 0 0 0 0 0 0 0 0 0 0 0 0 0 0 0 0 0 6.153734e-02 5.573258e-01 9.946679e-01 9.317255e-01 9.751790e-01 6.815849e-01 4.513415e-01 6.518664e-01 5.409338e-01 2.236435e-01 1.618211e-01 2.525082e-01 1.134440e-01 3.070141e-02 4.060629e-01 3.940134e-01 1.839132e-02 0 0 0 0 0 0 0 0 0 0 0 0 0 0 0 0 0 0 0 0 0 0 0 0 0 0 0 0 0 0 0 0 0 0 0 0 0 0 0 0 0 0 0 0 0 0 0 0 0 0 0 0 0 0 0 
0 0 0 0 0 0 0 0 0 0 0 0 0 5.805046e+01 6.003184e+01 5.832511e+01 5.904453e+01 5.899101e+01 5.825233e+01 5.983506e+01 5.796233e+01 0 0 0 0 0 0 0 0 0 0 0 0 0 0 0 0 0 0 0 0 0 0 0 0 0 0 0 0 0 0 0 0 0 0 0 0 0 0 0 0 0 0 0 0 0 0 0 0 0 0 0 0 0 0 0 0 0 0 0 0 0 0 0 0 0 0 0 0 0 0 0 0 0 0 0 0 0 0 0 0 0 0 0 0 0 0 0 0 0 0 0 0 0 0 0 0 0 0 0 0 0 0 0 0 0 0 0 
0 0 0 0 0 0 0 0 0 0 0 0 0 6.156606e+01 6.417912e+01 6.212849e+01 6.290050e+01 6.319270e+01 6.174772e+01 6.433595e+01 6.119997e+01 0 0 0 0 0 0 0 0 0 0 0 0 0 0 0 0 0 0 0 0 0 0 0 0 0 0 0 0 0 0 0 0 0 0 0 0 0 0 0 0 0 0 0 0 0 0 0 0 0 0 0 0 0 0 0 0 0 0 0 0 0 0 0 0 0 0 0 0 0 0 0 0 0 0 0 0 0 0 0 0 0 0 0 0 0 0 0 0 0 0 0 0 0 0 0 0 0 0 0 0 0 0 0 0 0 0 0 
0 0 0 0 0 0 0 0 0 0 0 0 0 5.800596e+01 5.997146e+01 5.830129e+01 5.902264e+01 5.900238e+01 5.827561e+01 5.986352e+01 5.799077e+01 0 0 0 0 0 0 0 0 0 0 0 0 0 0 0 0 0 0 0 0 0 0 0 0 0 0 0 0 0 0 0 0 0 0 0 0 0 0 0 0 0 0 0 0 0 0 0 0 0 0 0 0 0 0 0 0 0 0 0 0 0 0 0 0 0 0 0 0 0 0 0 0 0 0 0 0 0 0 0 0 0 0 0 0 0 0 0 0 0 0 0 0 0 0 0 0 0 0 0 0 0 0 0 0 0 0 0 
0 0 0 0 0 0 0 0 0 0 0 0 0 5.899547e+01 6.418227e+01 6.040361e+01 6.189995e+01 6.232921e+01 5.982027e+01 6.424147e+01 5.863188e+01 0 0 0 0 0 0 0 0 0 0 0 0 0 0 0 0 0 0 0 0 0 0 0 0 0 0 0 0 0 0 0 0 0 0 0 0 0 0 0 0 0 0 0 0 0 0 0 0 0 0 0 0 0 0 0 0 0 0 0 0 0 0 0 0 0 0 0 0 0 0 0 0 0 0 0 0 0 0 0 0 0 0 0 0 0 0 0 0 0 0 0 0 0 0 0 0 0 0 0 0 0 0 0 0 0 0 0 
0 0 0 0 0 1.556082e-01 2.770161e-01 1.289442e-01 2.232423e-01 1.831209e-01 2.883841e-01 2.230855e-01 3.166450e-01 5.388147e+01 5.875782e+01 5.534211e+01 5.697851e+01 5.695882e+01 5.534249e+01 5.852784e+01 5.421289e+01 2.910909e+00 2.852036e+00 2.865076e+00 2.812550e+00 2.815971e+00 2.749985e+00 2.727170e+00 2.647764e+00 2.623101e+00 2.590856e+00 2.617550e+00 2.622402e+00 2.637443e+00 2.613508e+00 2.568495e+00 2.512683e+00 2.480080e+00 2.470878e+00 2.449401e+00 2.422983e+00 2.373221e+00 2.346645e+00 2.323986e+00 2.332399e+00 2.305236e+00 2.263244e+00 2.188012e+00 2.143924e+00 2.117647e+00 2.134753e+00 2.146350e+00 2.153013e+00 2.117187e+00 2.062822e+00 2.000233e+00 1.948490e+00 1.910027e+00 1.887364e+00 1.872065e+00 1.846805e+00 1.827437e+00 1.801436e+00 1.774898e+00 1.727223e+00 1.698085e+00 1.665341e+00 1.645444e+00 1.607797e+00 1.582975e+00 1.541447e+00 1.520422e+00 1.496929e+00 1.491461e+00 1.460388e+00 1.433164e+00 1.405856e+00 1.393853e+00 1.368696e+00 1.333518e+00 1.289227e+00 1.230432e+00 1.176915e+00 1.132036e+00 1.133074e+00 1.136748e+00 1.165309e+00 1.145566e+00 1.107080e+00 1.006787e+00 9.454537e-01 8.894536e-01 8.968983e-01 8.845567e-01 8.903680e-01 8.528960e-01 8.286432e-01 8.001701e-01 7.898744e-01 7.746115e-01 7.475741e-01 7.234341e-01 6.716605e-01 6.572896e-01 6.161106e-01 6.255047e-01 5.729910e-01 5.704534e-01 4.998610e-01 5.018951e-01 4.381454e-01 4.475328e-01 3.880241e-01 3.922141e-01 3.443948e-01 3.484389e-01 3.073902e-01 2.705664e-01 2.210331e-01 1.729502e-01 1.713549e-01 1.424845e-01 2.632231e-01 3.045128e-02 0 0 0 0 
0 0 0 0 0 3.499361e+00 6.256050e+00 2.948306e+00 5.035760e+00 4.117882e+00 6.482478e+00 5.019184e+00 7.121462e+00 4.909570e+01 6.791402e+01 5.456267e+01 6.409037e+01 6.513600e+01 7.013102e+01 8.133128e+01 8.183874e+01 6.526345e+01 6.394566e+01 6.423798e+01 6.306270e+01 6.313984e+01 6.166297e+01 6.115238e+01 5.937449e+01 5.882230e+01 5.810015e+01 5.869787e+01 5.880645e+01 5.914315e+01 5.860705e+01 5.759900e+01 5.634890e+01 5.561874e+01 5.541270e+01 5.493176e+01 5.434006e+01 5.322556e+01 5.263033e+01 5.212281e+01 5.231136e+01 5.170292e+01 5.076219e+01 4.907675e+01 4.808901e+01 4.750024e+01 4.788349e+01 4.814332e+01 4.829255e+01 4.748977e+01 4.627168e+01 4.486911e+01 4.370964e+01 4.284764e+01 4.233977e+01 4.199693e+01 4.143085e+01 4.099675e+01 4.041401e+01 3.981920e+01 3.875063e+01 3.809749e+01 3.736352e+01 3.691751e+01 3.607356e+01 3.551708e+01 3.458601e+01 3.411460e+01 3.358782e+01 3.346516e+01 3.276838e+01 3.215796e+01 3.154558e+01 3.127641e+01 3.071226e+01 2.992348e+01 2.893020e+01 2.761179e+01 2.641153e+01 2.540507e+01 2.542846e+01 2.551091e+01 2.615157e+01 2.570881e+01 2.484554e+01 2.259579e+01 2.121991e+01 1.996340e+01 2.013022e+01 1.985311e+01 1.998321e+01 1.914219e+01 1.859796e+01 1.795892e+01 1.772785e+01 1.738537e+01 1.677889e+01 1.623734e+01 1.507601e+01 1.475379e+01 1.383005e+01 1.404109e+01 1.286274e+01 1.280570e+01 1.122102e+01 1.126613e+01 9.834328e+00 1.004397e+01 8.706810e+00 8.799543e+00 7.724600e+00 7.814052e+00 6.891422e+00 6.063960e+00 4.950728e+00 3.869046e+00 3.832694e+00 3.187604e+00 5.907295e+00 6.835413e-01 0 0 0 0 
0 0 0 0 0 5.067171e+00 9.065640e+00 4.281542e+00 7.295828e+00 5.962756e+00 9.386099e+00 7.268518e+00 1.031224e+01 1.428591e+01 2.100002e+01 2.758569e+01 3.903803e+01 5.167493e+01 6.373332e+01 7.423770e+01 9.344156e+01 9.445309e+01 9.254646e+01 9.296951e+01 9.126918e+01 9.138094e+01 8.924417e+01 8.850546e+01 8.593300e+01 8.513403e+01 8.408909e+01 8.495395e+01 8.511105e+01 8.559821e+01 8.482246e+01 8.336385e+01 8.155494e+01 8.049841e+01 8.020030e+01 7.950439e+01 7.864820e+01 7.703555e+01 7.617424e+01 7.543986e+01 7.571271e+01 7.483229e+01 7.347100e+01 7.103206e+01 6.960273e+01 6.875071e+01 6.930532e+01 6.968131e+01 6.989725e+01 6.873552e+01 6.697284e+01 6.494312e+01 6.326523e+01 6.201779e+01 6.128283e+01 6.078669e+01 5.996750e+01 5.933928e+01 5.849596e+01 5.763515e+01 5.608874e+01 5.514352e+01 5.408132e+01 5.343583e+01 5.221444e+01 5.140908e+01 5.006159e+01 4.937934e+01 4.861693e+01 4.843940e+01 4.743094e+01 4.654750e+01 4.566120e+01 4.527162e+01 4.445511e+01 4.331352e+01 4.187593e+01 3.996780e+01 3.823060e+01 3.677393e+01 3.680781e+01 3.692715e+01 3.785444e+01 3.721362e+01 3.596414e+01 3.270788e+01 3.071644e+01 2.889769e+01 2.913909e+01 2.873794e+01 2.892619e+01 2.770879e+01 2.692103e+01 2.599599e+01 2.566153e+01 2.516578e+01 2.428799e+01 2.350415e+01 2.182325e+01 2.135692e+01 2.001990e+01 2.032544e+01 1.861982e+01 1.853722e+01 1.624328e+01 1.630843e+01 1.423561e+01 1.453880e+01 1.260283e+01 1.273674e+01 1.118030e+01 1.130945e+01 9.973580e+00 8.775554e+00 7.163738e+00 5.597337e+00 5.544579e+00 4.611521e+00 8.550846e+00 9.894681e-01 0 0 0 0 
0 0 0 0 0 1.723418e+00 3.086606e+00 1.462180e+00 2.483310e+00 2.027995e+00 3.192005e+00 2.472419e+00 3.507424e+00 4.856702e+00 7.138320e+00 9.376978e+00 1.326999e+01 1.756466e+01 2.166287e+01 2.523214e+01 3.175685e+01 3.210056e+01 3.145284e+01 3.159661e+01 3.101903e+01 3.105707e+01 3.033119e+01 3.008025e+01 2.920628e+01 2.893483e+01 2.857980e+01 2.887363e+01 2.892700e+01 2.909250e+01 2.882892e+01 2.833335e+01 2.771872e+01 2.735976e+01 2.725847e+01 2.702204e+01 2.673113e+01 2.618320e+01 2.589055e+01 2.564103e+01 2.573375e+01 2.543460e+01 2.497205e+01 2.414332e+01 2.365764e+01 2.336812e+01 2.355658e+01 2.368434e+01 2.375771e+01 2.336294e+01 2.276398e+01 2.207425e+01 2.150408e+01 2.108017e+01 2.083042e+01 2.066183e+01 2.038345e+01 2.016996e+01 1.988338e+01 1.959085e+01 1.906533e+01 1.874411e+01 1.838313e+01 1.816377e+01 1.774868e+01 1.747498e+01 1.701703e+01 1.678516e+01 1.652604e+01 1.646570e+01 1.612295e+01 1.582270e+01 1.552147e+01 1.538906e+01 1.511155e+01 1.472356e+01 1.423496e+01 1.358644e+01 1.299599e+01 1.250090e+01 1.251242e+01 1.255300e+01 1.286818e+01 1.265038e+01 1.222568e+01 1.111888e+01 1.044198e+01 9.823744e+00 9.905774e+00 9.769391e+00 9.833346e+00 9.419492e+00 9.151708e+00 8.837246e+00 8.723547e+00 8.555030e+00 8.256671e+00 7.990236e+00 7.418901e+00 7.260415e+00 6.805960e+00 6.909849e+00 6.330062e+00 6.301971e+00 5.522116e+00 5.544199e+00 4.839424e+00 4.942363e+00 4.284048e+00 4.329407e+00 3.800093e+00 3.843836e+00 3.389547e+00 2.982161e+00 2.434043e+00 1.901241e+00 1.883240e+00 1.566402e+00 2.906774e+00 3.363781e-01 0 0 0 0 
0 0 0 0 0 0 0 0 0 0 0 0 0 0 0 0 0 0 0 0 0 0 0 0 0 0 0 0 0 0 0 0 0 0 0 0 0 0 0 0 0 0 0 0 0 0 0 0 0 0 0 0 0 0 0 0 0 0 0 0 0 0 0 0 0 0 0 0 0 0 0 0 0 0 0 0 0 0 0 0 0 0 0 0 0 0 0 0 0 0 0 0 0 0 0 0 0 0 0 0 0 0 0 0 0 0 0 0 0 0 0 0 0 0 0 0 0 0 0 0 0 0 0 0 0 0 0 0 
