# vtk DataFile Version 2.0
Comment goes here
ASCII

DATASET STRUCTURED_POINTS
FIELD FieldData 1
TIME 1 1 double
0.89000000
DIMENSIONS    128   16   1

ORIGIN    0.000   0.000   0.000
SPACING   0.0078125 0.015625   1.000

POINT_DATA   2048
SCALARS fMag double
LOOKUP_TABLE default

0 0 0 0 0 0 0 0 0 0 0 0 0 0 0 0 0 0 0 0 0 0 0 0 0 0 0 0 0 0 0 0 0 0 0 0 0 0 0 0 0 0 0 0 0 0 0 0 0 0 0 0 0 0 0 0 0 0 0 0 0 0 0 0 0 0 0 0 0 0 0 0 0 0 0 0 0 0 0 0 0 0 0 0 0 0 0 0 0 0 0 0 0 0 0 0 0 0 0 0 0 0 0 0 0 0 0 0 0 0 0 0 0 0 0 0 0 0 0 0 0 0 0 0 0 0 0 0 
0 0 0 0 0 0 0 0 0 0 0 0 0 0 0 0 0 0 0 0 0 0 0 0 0 0 0 0 0 0 0 0 0 0 0 0 0 0 0 0 0 0 0 0 0 0 0 0 0 0 0 0 0 0 0 0 0 0 0 0 0 0 0 0 0 0 0 0 0 0 0 0 0 0 0 0 0 0 0 0 0 0 0 0 0 0 0 0 0 0 0 0 0 0 0 0 0 0 0 0 0 0 0 0 0 0 0 0 0 0 0 0 0 0 0 0 0 0 0 0 0 0 0 0 0 0 0 0 
0 0 0 0 0 1.122755e+00 2.442979e+00 1.921752e+00 1.985528e+00 1.790222e+00 2.453898e+00 2.088574e+00 3.002833e+00 4.030871e+00 5.720740e+00 7.026045e+00 1.104623e+01 1.423199e+01 1.766530e+01 2.129097e+01 2.535823e+01 2.591029e+01 2.541338e+01 2.549200e+01 2.508262e+01 2.501314e+01 2.467877e+01 2.449934e+01 2.425216e+01 2.400734e+01 2.383325e+01 2.353297e+01 2.339243e+01 2.305128e+01 2.292620e+01 2.257056e+01 2.243614e+01 2.207243e+01 2.190791e+01 2.156456e+01 2.138448e+01 2.108894e+01 2.088460e+01 2.062220e+01 2.037743e+01 2.014426e+01 1.986968e+01 1.965976e+01 1.935143e+01 1.913928e+01 1.880248e+01 1.858967e+01 1.825387e+01 1.803961e+01 1.769614e+01 1.747232e+01 1.728434e+01 1.754058e+01 1.489786e+01 1.448031e+01 1.604124e+01 1.492189e+01 1.463341e+01 1.506175e+01 1.512046e+01 1.442870e+01 1.476498e+01 1.393027e+01 1.392388e+01 1.436752e+01 1.452279e+01 1.443736e+01 1.356957e+01 1.329835e+01 1.305600e+01 1.284356e+01 1.257834e+01 1.237949e+01 1.208213e+01 1.189645e+01 1.157927e+01 1.141745e+01 1.109729e+01 1.093773e+01 1.060868e+01 1.042613e+01 1.011556e+01 9.915919e+00 9.653489e+00 9.413867e+00 9.194080e+00 8.889739e+00 8.721872e+00 8.355304e+00 8.241320e+00 7.808234e+00 7.734386e+00 7.255913e+00 7.227804e+00 6.748654e+00 6.746271e+00 6.277336e+00 6.240742e+00 5.796809e+00 5.695892e+00 5.327071e+00 5.143052e+00 4.876615e+00 4.578165e+00 4.434955e+00 4.022646e+00 4.018705e+00 3.489248e+00 3.590962e+00 2.947147e+00 3.122787e+00 2.423018e+00 2.637401e+00 1.947714e+00 2.118598e+00 1.529512e+00 2.020534e+00 1.674383e+00 5.700176e-01 0 0 0 0 
0 0 0 0 0 3.302843e+00 7.183274e+00 5.649467e+00 5.841109e+00 5.267725e+00 7.220528e+00 6.147091e+00 8.835941e+00 1.185614e+01 1.682316e+01 2.066211e+01 3.248508e+01 4.185245e+01 5.194730e+01 6.260620e+01 7.456258e+01 7.618552e+01 7.472486e+01 7.495595e+01 7.375255e+01 7.354829e+01 7.256536e+01 7.203789e+01 7.131127e+01 7.059163e+01 7.007987e+01 6.919720e+01 6.878408e+01 6.778125e+01 6.741358e+01 6.636813e+01 6.597299e+01 6.490378e+01 6.442013e+01 6.341076e+01 6.288136e+01 6.201253e+01 6.141182e+01 6.064039e+01 5.992082e+01 5.923531e+01 5.842812e+01 5.781096e+01 5.690453e+01 5.628084e+01 5.529067e+01 5.466503e+01 5.367777e+01 5.304785e+01 5.203805e+01 5.138002e+01 4.992624e+01 4.903645e+01 4.595956e+01 4.547043e+01 4.586916e+01 4.454640e+01 4.433983e+01 4.364535e+01 4.363223e+01 4.269388e+01 4.260619e+01 4.114202e+01 4.108546e+01 4.057547e+01 4.044936e+01 4.106710e+01 3.987679e+01 3.910774e+01 3.839515e+01 3.777051e+01 3.699067e+01 3.640597e+01 3.553161e+01 3.498562e+01 3.405295e+01 3.357711e+01 3.263569e+01 3.216647e+01 3.119888e+01 3.066205e+01 2.974879e+01 2.916172e+01 2.839000e+01 2.768538e+01 2.703907e+01 2.614415e+01 2.565054e+01 2.457263e+01 2.423746e+01 2.296391e+01 2.274674e+01 2.133964e+01 2.125693e+01 1.984775e+01 1.984063e+01 1.846141e+01 1.835363e+01 1.704788e+01 1.675096e+01 1.566615e+01 1.512493e+01 1.434133e+01 1.346369e+01 1.304261e+01 1.183023e+01 1.181883e+01 1.026194e+01 1.056126e+01 8.667878e+00 9.184364e+00 7.125875e+00 7.755186e+00 5.723193e+00 6.214799e+00 4.444774e+00 5.887590e+00 4.904688e+00 1.677007e+00 0 0 0 0 
0 0 0 0 0 2.281766e+00 4.960955e+00 3.901085e+00 4.035432e+00 3.639869e+00 4.989177e+00 4.248198e+00 6.105472e+00 3.917519e+01 4.888369e+01 4.428632e+01 5.603266e+01 5.225350e+01 6.092817e+01 6.442514e+01 6.433827e+01 5.261546e+01 5.160691e+01 5.176647e+01 5.093552e+01 5.079447e+01 5.011575e+01 4.975153e+01 4.924979e+01 4.875289e+01 4.839952e+01 4.779006e+01 4.750481e+01 4.681237e+01 4.655850e+01 4.583661e+01 4.556377e+01 4.482546e+01 4.449149e+01 4.379449e+01 4.342893e+01 4.282896e+01 4.241416e+01 4.188145e+01 4.138457e+01 4.091119e+01 4.035380e+01 3.992762e+01 3.930170e+01 3.887101e+01 3.818725e+01 3.775521e+01 3.707345e+01 3.663845e+01 3.594112e+01 3.548671e+01 3.522904e+01 3.539864e+01 3.735153e+01 3.649626e+01 3.509307e+01 3.506918e+01 3.394423e+01 3.361784e+01 3.296330e+01 3.216327e+01 3.120532e+01 3.212541e+01 3.051170e+01 2.910035e+01 2.834540e+01 2.694470e+01 2.751992e+01 2.701153e+01 2.651940e+01 2.608801e+01 2.554944e+01 2.514562e+01 2.454176e+01 2.416468e+01 2.352054e+01 2.319190e+01 2.254170e+01 2.221763e+01 2.154935e+01 2.117858e+01 2.054782e+01 2.014235e+01 1.960935e+01 1.912270e+01 1.867632e+01 1.805824e+01 1.771732e+01 1.697286e+01 1.674138e+01 1.586178e+01 1.571178e+01 1.473990e+01 1.468275e+01 1.370938e+01 1.370442e+01 1.275171e+01 1.267719e+01 1.177520e+01 1.157005e+01 1.082068e+01 1.044685e+01 9.905579e+00 9.299422e+00 9.008616e+00 8.171295e+00 8.163513e+00 7.088245e+00 7.295077e+00 5.987307e+00 6.344023e+00 4.921939e+00 5.356046e+00 3.950733e+00 4.284987e+00 3.044195e+00 4.040238e+00 3.378285e+00 1.158641e+00 0 0 0 0 
0 0 0 0 0 1.016780e-01 2.206590e-01 1.733694e-01 1.798507e-01 1.623656e-01 2.225475e-01 1.896817e-01 2.723641e-01 4.423139e+01 4.827142e+01 4.533759e+01 4.756815e+01 4.684342e+01 4.610571e+01 4.841319e+01 4.402787e+01 2.340227e+00 2.295425e+00 2.302511e+00 2.265592e+00 2.259321e+00 2.229162e+00 2.212978e+00 2.190684e+00 2.168608e+00 2.152907e+00 2.125831e+00 2.113159e+00 2.082395e+00 2.071117e+00 2.039041e+00 2.026918e+00 1.994108e+00 1.979266e+00 1.948289e+00 1.932043e+00 1.905376e+00 1.886940e+00 1.863263e+00 1.841178e+00 1.820138e+00 1.795364e+00 1.776421e+00 1.748600e+00 1.729456e+00 1.699063e+00 1.679858e+00 1.649550e+00 1.630213e+00 1.599211e+00 1.579011e+00 3.076370e+00 5.121943e+00 7.304414e+00 5.881906e+00 6.010003e+00 6.145417e+00 4.824281e+00 5.896980e+00 5.095581e+00 4.479196e+00 4.037380e+00 5.596082e+00 3.630401e+00 3.465675e+00 3.010630e+00 3.680544e-01 1.212698e+00 1.202136e+00 1.180248e+00 1.161061e+00 1.137106e+00 1.119144e+00 1.092283e+00 1.075510e+00 1.046855e+00 1.032234e+00 1.003307e+00 9.888887e-01 9.591547e-01 9.426583e-01 9.145917e-01 8.965518e-01 8.728346e-01 8.511839e-01 8.313229e-01 8.038261e-01 7.886593e-01 7.555389e-01 7.452415e-01 7.061029e-01 6.994277e-01 6.561741e-01 6.536239e-01 6.102932e-01 6.100589e-01 5.676366e-01 5.643002e-01 5.241289e-01 5.149816e-01 4.816080e-01 4.649647e-01 4.408671e-01 4.138960e-01 4.009622e-01 3.637142e-01 3.633912e-01 3.155538e-01 3.247830e-01 2.665755e-01 2.824464e-01 2.190821e-01 2.382609e-01 1.752547e-01 1.887857e-01 1.289335e-01 1.731842e-01 1.479796e-01 5.165115e-02 0 0 0 0 
0 0 0 0 0 0 0 0 0 0 0 0 0 4.816709e+01 5.213707e+01 4.935075e+01 5.121330e+01 5.091312e+01 4.954581e+01 5.254523e+01 4.755139e+01 0 0 0 0 0 0 0 0 0 0 0 0 0 0 0 0 0 0 0 0 0 0 0 0 0 0 0 0 0 0 0 0 0 0 0 4.900148e-01 1.214434e+00 1.010384e+00 4.701996e-01 7.951644e-01 6.983303e-01 6.061799e-01 9.153377e-01 6.507718e-01 5.762313e-01 6.800151e-01 6.919413e-01 2.598442e-01 5.782001e-01 6.181113e-01 3.427334e-02 1.179194e-05 0 0 0 0 0 0 0 0 0 0 0 0 0 0 0 0 0 0 0 0 0 0 0 0 0 0 0 0 0 0 0 0 0 0 0 0 0 0 0 0 0 0 0 0 0 0 0 0 0 0 0 0 0 0 0 
0 0 0 0 0 0 0 0 0 0 0 0 0 4.807090e+01 4.990922e+01 4.829992e+01 4.916088e+01 4.890914e+01 4.849628e+01 4.968033e+01 4.813936e+01 0 0 0 0 0 0 0 0 0 0 0 0 0 0 0 0 0 0 0 0 0 0 0 0 0 0 0 0 0 0 0 0 0 0 0 0 0 0 0 0 0 0 0 0 0 0 0 0 0 0 0 0 0 0 0 0 0 0 0 0 0 0 0 0 0 0 0 0 0 0 0 0 0 0 0 0 0 0 0 0 0 0 0 0 0 0 0 0 0 0 0 0 0 0 0 0 0 0 0 0 0 0 0 0 0 0 0 
0 0 0 0 0 0 0 0 0 0 0 0 0 5.051980e+01 5.272944e+01 5.095234e+01 5.184073e+01 5.182632e+01 5.090134e+01 5.279438e+01 5.027965e+01 0 0 0 0 0 0 0 0 0 0 0 0 0 0 0 0 0 0 0 0 0 0 0 0 0 0 0 0 0 0 0 0 0 0 0 0 0 0 0 0 0 0 0 0 0 0 0 0 0 0 0 0 0 0 0 0 0 0 0 0 0 0 0 0 0 0 0 0 0 0 0 0 0 0 0 0 0 0 0 0 0 0 0 0 0 0 0 0 0 0 0 0 0 0 0 0 0 0 0 0 0 0 0 0 0 0 0 
0 0 0 0 0 0 0 0 0 0 0 0 0 4.806989e+01 4.990946e+01 4.829914e+01 4.916167e+01 4.890860e+01 4.849749e+01 4.968012e+01 4.814052e+01 0 0 0 0 0 0 0 0 0 0 0 0 0 0 0 0 0 0 0 0 0 0 0 0 0 0 0 0 0 0 0 0 0 0 0 0 0 0 0 0 0 0 0 0 0 0 0 0 0 0 0 0 0 0 0 0 0 0 0 0 0 0 0 0 0 0 0 0 0 0 0 0 0 0 0 0 0 0 0 0 0 0 0 0 0 0 0 0 0 0 0 0 0 0 0 0 0 0 0 0 0 0 0 0 0 0 0 
0 0 0 0 0 0 0 0 0 0 0 0 0 4.816358e+01 5.213652e+01 4.934961e+01 5.121536e+01 5.091372e+01 4.954979e+01 5.254711e+01 4.755499e+01 0 0 0 0 0 0 0 0 0 0 0 0 0 0 0 0 0 0 0 0 0 0 0 0 0 0 0 0 0 0 0 0 0 0 0 0 0 0 0 0 0 0 0 0 0 0 0 0 0 0 0 0 0 0 0 0 0 0 0 0 0 0 0 0 0 0 0 0 0 0 0 0 0 0 0 0 0 0 0 0 0 0 0 0 0 0 0 0 0 0 0 0 0 0 0 0 0 0 0 0 0 0 0 0 0 0 0 
0 0 0 0 0 1.018823e-01 2.212401e-01 1.745587e-01 1.797319e-01 1.623408e-01 2.217383e-01 1.895007e-01 2.715846e-01 4.422780e+01 4.827285e+01 4.533501e+01 4.757146e+01 4.684129e+01 4.611170e+01 4.841266e+01 4.403097e+01 2.341037e+00 2.295847e+00 2.302576e+00 2.266140e+00 2.261394e+00 2.233182e+00 2.217817e+00 2.194496e+00 2.169405e+00 2.150513e+00 2.121038e+00 2.107948e+00 2.077664e+00 2.067449e+00 2.036249e+00 2.025430e+00 1.994325e+00 1.981065e+00 1.950687e+00 1.933576e+00 1.905600e+00 1.886580e+00 1.863837e+00 1.843862e+00 1.824728e+00 1.801713e+00 1.783622e+00 1.758019e+00 1.740800e+00 1.714197e+00 1.696694e+00 1.669632e+00 1.651198e+00 1.626030e+00 1.607907e+00 1.586131e+00 1.567101e+00 1.546872e+00 1.525317e+00 1.505824e+00 1.482852e+00 1.463366e+00 1.438072e+00 1.417335e+00 1.391015e+00 1.370945e+00 1.346606e+00 1.327707e+00 1.304911e+00 1.284988e+00 1.263075e+00 1.241003e+00 1.220191e+00 1.194320e+00 1.174033e+00 1.143965e+00 1.125534e+00 1.094301e+00 1.079803e+00 1.049025e+00 1.036426e+00 1.005391e+00 9.923547e-01 9.623184e-01 9.470918e-01 9.181688e-01 8.975333e-01 8.707019e-01 8.453384e-01 8.249877e-01 7.966767e-01 7.838598e-01 7.510523e-01 7.438620e-01 7.058694e-01 7.028320e-01 6.603789e-01 6.589515e-01 6.133801e-01 6.115935e-01 5.672855e-01 5.645380e-01 5.254807e-01 5.177059e-01 4.845129e-01 4.673531e-01 4.429733e-01 4.160346e-01 4.033758e-01 3.652271e-01 3.635842e-01 3.140443e-01 3.229523e-01 2.648435e-01 2.813300e-01 2.173989e-01 2.357927e-01 1.718224e-01 1.856467e-01 1.267736e-01 1.721142e-01 1.477630e-01 5.170716e-02 0 0 0 0 
0 0 0 0 0 2.286353e+00 4.974032e+00 3.927854e+00 4.032790e+00 3.639274e+00 4.970963e+00 4.244106e+00 6.087916e+00 3.915463e+01 4.886277e+01 4.428675e+01 5.604290e+01 5.226351e+01 6.094879e+01 6.445454e+01 6.435352e+01 5.263369e+01 5.161642e+01 5.176794e+01 5.094788e+01 5.084113e+01 5.020623e+01 4.986044e+01 4.933561e+01 4.877084e+01 4.834565e+01 4.768217e+01 4.738753e+01 4.670588e+01 4.647595e+01 4.577377e+01 4.553029e+01 4.483035e+01 4.453196e+01 4.384845e+01 4.346344e+01 4.283401e+01 4.240605e+01 4.189437e+01 4.144496e+01 4.101447e+01 4.049664e+01 4.008964e+01 3.951359e+01 3.912621e+01 3.852771e+01 3.813396e+01 3.752518e+01 3.711051e+01 3.654438e+01 3.613671e+01 3.564691e+01 3.521887e+01 3.476388e+01 3.427906e+01 3.384066e+01 3.332400e+01 3.288576e+01 3.231690e+01 3.185054e+01 3.125867e+01 3.080734e+01 3.026003e+01 2.983505e+01 2.932247e+01 2.887446e+01 2.838175e+01 2.788546e+01 2.741751e+01 2.683580e+01 2.637968e+01 2.570365e+01 2.528928e+01 2.458712e+01 2.426122e+01 2.356935e+01 2.328618e+01 2.258861e+01 2.229563e+01 2.162058e+01 2.127838e+01 2.062839e+01 2.016458e+01 1.956159e+01 1.899147e+01 1.853407e+01 1.789767e+01 1.760955e+01 1.687210e+01 1.671042e+01 1.585655e+01 1.578828e+01 1.483438e+01 1.480246e+01 1.377877e+01 1.373895e+01 1.274390e+01 1.268260e+01 1.180564e+01 1.163133e+01 1.088603e+01 1.050062e+01 9.953035e+00 9.347580e+00 9.062927e+00 8.205339e+00 8.167892e+00 7.054378e+00 7.253999e+00 5.948443e+00 6.318966e+00 4.884127e+00 5.300606e+00 3.873671e+00 4.214539e+00 2.995917e+00 4.016510e+00 3.373529e+00 1.159896e+00 0 0 0 0 
0 0 0 0 0 3.309482e+00 7.202212e+00 5.688237e+00 5.837291e+00 5.266856e+00 7.194149e+00 6.141159e+00 8.810513e+00 1.182102e+01 1.680879e+01 2.066319e+01 3.249597e+01 4.185928e+01 5.195955e+01 6.263188e+01 7.459463e+01 7.621192e+01 7.473864e+01 7.495809e+01 7.377044e+01 7.361587e+01 7.269639e+01 7.219563e+01 7.143555e+01 7.061762e+01 7.000184e+01 6.904095e+01 6.861423e+01 6.762704e+01 6.729403e+01 6.627712e+01 6.592451e+01 6.491085e+01 6.447874e+01 6.348890e+01 6.293135e+01 6.201983e+01 6.140008e+01 6.065910e+01 6.000827e+01 5.938487e+01 5.863498e+01 5.804558e+01 5.721138e+01 5.665040e+01 5.578369e+01 5.521349e+01 5.433192e+01 5.373143e+01 5.291162e+01 5.232128e+01 5.161201e+01 5.099217e+01 5.033331e+01 4.963127e+01 4.899643e+01 4.824829e+01 4.761369e+01 4.678996e+01 4.611466e+01 4.525761e+01 4.460407e+01 4.381157e+01 4.319619e+01 4.245397e+01 4.180525e+01 4.109181e+01 4.037319e+01 3.969560e+01 3.885330e+01 3.819285e+01 3.721397e+01 3.661398e+01 3.559728e+01 3.512541e+01 3.412364e+01 3.371363e+01 3.270363e+01 3.227943e+01 3.130205e+01 3.080659e+01 2.986549e+01 2.919395e+01 2.832089e+01 2.749541e+01 2.683316e+01 2.591170e+01 2.549451e+01 2.442675e+01 2.419264e+01 2.295634e+01 2.285751e+01 2.147643e+01 2.143025e+01 1.994820e+01 1.989064e+01 1.845012e+01 1.836149e+01 1.709196e+01 1.683970e+01 1.576078e+01 1.520282e+01 1.441007e+01 1.353344e+01 1.312126e+01 1.187953e+01 1.182518e+01 1.021292e+01 1.050180e+01 8.611623e+00 9.148093e+00 7.071132e+00 7.674923e+00 5.611635e+00 6.112824e+00 4.374940e+00 5.853319e+00 4.897831e+00 1.678823e+00 0 0 0 0 
0 0 0 0 0 1.125012e+00 2.449420e+00 1.934941e+00 1.984232e+00 1.789922e+00 2.444924e+00 2.086555e+00 2.994181e+00 4.018930e+00 5.715857e+00 7.026413e+00 1.104993e+01 1.423432e+01 1.766947e+01 2.129971e+01 2.536913e+01 2.591928e+01 2.541806e+01 2.549272e+01 2.508871e+01 2.503613e+01 2.472335e+01 2.455300e+01 2.429444e+01 2.401619e+01 2.380671e+01 2.347982e+01 2.333465e+01 2.299882e+01 2.288553e+01 2.253960e+01 2.241965e+01 2.207483e+01 2.192784e+01 2.159114e+01 2.140148e+01 2.109142e+01 2.088061e+01 2.062857e+01 2.040718e+01 2.019513e+01 1.994005e+01 1.973956e+01 1.945581e+01 1.926499e+01 1.897018e+01 1.877623e+01 1.847637e+01 1.827212e+01 1.799327e+01 1.779248e+01 1.755123e+01 1.734040e+01 1.711631e+01 1.687752e+01 1.666160e+01 1.640714e+01 1.619130e+01 1.591113e+01 1.568145e+01 1.538996e+01 1.516768e+01 1.489814e+01 1.468885e+01 1.443641e+01 1.421578e+01 1.397314e+01 1.372873e+01 1.349828e+01 1.321182e+01 1.298720e+01 1.265428e+01 1.245023e+01 1.210447e+01 1.194399e+01 1.160331e+01 1.146388e+01 1.112041e+01 1.097615e+01 1.064378e+01 1.047530e+01 1.015527e+01 9.926898e+00 9.630009e+00 9.349284e+00 9.124074e+00 8.810705e+00 8.668825e+00 8.305706e+00 8.226085e+00 7.805665e+00 7.772054e+00 7.302429e+00 7.286744e+00 6.782815e+00 6.763282e+00 6.273508e+00 6.243423e+00 5.811807e+00 5.726076e+00 5.359261e+00 5.169551e+00 4.900006e+00 4.601896e+00 4.461710e+00 4.039417e+00 4.020870e+00 3.472586e+00 3.570751e+00 2.928024e+00 3.110457e+00 2.404404e+00 2.610110e+00 1.909787e+00 2.083932e+00 1.505796e+00 2.008920e+00 1.672065e+00 5.706347e-01 0 0 0 0 
0 0 0 0 0 0 0 0 0 0 0 0 0 0 0 0 0 0 0 0 0 0 0 0 0 0 0 0 0 0 0 0 0 0 0 0 0 0 0 0 0 0 0 0 0 0 0 0 0 0 0 0 0 0 0 0 0 0 0 0 0 0 0 0 0 0 0 0 0 0 0 0 0 0 0 0 0 0 0 0 0 0 0 0 0 0 0 0 0 0 0 0 0 0 0 0 0 0 0 0 0 0 0 0 0 0 0 0 0 0 0 0 0 0 0 0 0 0 0 0 0 0 0 0 0 0 0 0 
