# vtk DataFile Version 2.0
Comment goes here
ASCII

DATASET STRUCTURED_POINTS
FIELD FieldData 1
TIME 1 1 double
0.56000000
DIMENSIONS    128   16   1

ORIGIN    0.000   0.000   0.000
SPACING   0.0078125 0.015625   1.000

POINT_DATA   2048
SCALARS fY double
LOOKUP_TABLE default

0 0 0 0 0 0 0 0 0 0 0 0 0 0 0 0 0 0 0 0 0 0 0 0 0 0 0 0 0 0 0 0 0 0 0 0 0 0 0 0 0 0 0 0 0 0 0 0 0 0 0 0 0 0 0 0 0 0 0 0 0 0 0 0 0 0 0 0 0 0 0 0 0 0 0 0 0 0 0 0 0 0 0 0 0 0 0 0 0 0 0 0 0 0 0 0 0 0 0 0 0 0 0 0 0 0 0 0 0 0 0 0 0 0 0 0 0 0 0 0 0 0 0 0 0 0 0 0 
0 0 0 0 0 0 0 0 0 0 0 0 0 0 0 0 0 0 0 0 0 0 0 0 0 0 0 0 0 0 0 0 0 0 0 0 0 0 0 0 0 0 0 0 0 0 0 0 0 0 0 0 0 0 0 0 0 0 0 0 0 0 0 0 0 0 0 0 0 0 0 0 0 0 0 0 0 0 0 0 0 0 0 0 0 0 0 0 0 0 0 0 0 0 0 0 0 0 0 0 0 0 0 0 0 0 0 0 0 0 0 0 0 0 0 0 0 0 0 0 0 0 0 0 0 0 0 0 
0 0 0 0 0 1.338005e+00 1.752202e+00 1.424042e+00 2.500649e+00 1.885110e+00 3.069659e+00 2.302436e+00 3.508677e+00 2.064801e+00 -3.880171e+00 -8.071659e+00 -1.212883e+01 -1.675296e+01 -2.113485e+01 -2.455593e+01 -3.132410e+01 -3.198963e+01 -3.136537e+01 -3.150309e+01 -3.088054e+01 -3.091867e+01 -3.030279e+01 -3.030672e+01 -2.981847e+01 -2.985152e+01 -2.945861e+01 -2.938432e+01 -2.896493e+01 -2.876116e+01 -2.840018e+01 -2.817024e+01 -2.787318e+01 -2.754110e+01 -2.721599e+01 -2.680760e+01 -2.655608e+01 -2.619294e+01 -2.601544e+01 -2.563004e+01 -2.544158e+01 -2.505681e+01 -2.492154e+01 -2.458572e+01 -2.442710e+01 -2.400491e+01 -2.371256e+01 -2.324617e+01 -2.298525e+01 -2.267086e+01 -2.253668e+01 -2.234222e+01 -2.147020e+01 -1.974015e+01 -2.237704e+01 -2.131060e+01 -1.462146e+01 -1.710718e+01 -2.187083e+01 -1.626215e+01 -1.269236e+01 -1.938137e+01 -1.903593e+01 -1.272458e+01 -1.491821e+01 -2.008939e+01 -1.609658e+01 -1.392091e+01 -1.581069e+01 -1.569700e+01 -1.537359e+01 -1.511732e+01 -1.483655e+01 -1.457652e+01 -1.430496e+01 -1.398751e+01 -1.376515e+01 -1.351402e+01 -1.345401e+01 -1.323397e+01 -1.314104e+01 -1.271871e+01 -1.247765e+01 -1.192615e+01 -1.170181e+01 -1.117985e+01 -1.102983e+01 -1.057214e+01 -1.050318e+01 -1.014906e+01 -1.010210e+01 -9.735307e+00 -9.500369e+00 -9.019997e+00 -8.610597e+00 -8.212111e+00 -7.810901e+00 -7.603799e+00 -7.164364e+00 -7.067774e+00 -6.558439e+00 -6.602688e+00 -6.061200e+00 -6.166752e+00 -5.493704e+00 -5.549325e+00 -4.826172e+00 -4.928248e+00 -4.310941e+00 -4.399991e+00 -3.827589e+00 -3.743986e+00 -3.252890e+00 -3.017106e+00 -2.740922e+00 -2.309074e+00 -2.261902e+00 -1.472014e+00 -2.045529e+00 -1.951593e-01 0 0 0 0 
0 0 0 0 0 3.933961e+00 5.141723e+00 4.171605e+00 7.347349e+00 5.542603e+00 9.026565e+00 6.769082e+00 1.031535e+01 6.068044e+00 -1.141581e+01 -2.374543e+01 -3.568074e+01 -4.928678e+01 -6.217973e+01 -7.224804e+01 -9.216822e+01 -9.412655e+01 -9.228900e+01 -9.269424e+01 -9.086155e+01 -9.097358e+01 -8.916060e+01 -8.917204e+01 -8.773490e+01 -8.783214e+01 -8.667569e+01 -8.645707e+01 -8.522274e+01 -8.462301e+01 -8.356061e+01 -8.288385e+01 -8.200956e+01 -8.103215e+01 -8.007534e+01 -7.887334e+01 -7.813306e+01 -7.706425e+01 -7.654185e+01 -7.540754e+01 -7.485288e+01 -7.372048e+01 -7.332237e+01 -7.233404e+01 -7.186725e+01 -7.062477e+01 -6.976442e+01 -6.839192e+01 -6.762407e+01 -6.669890e+01 -6.630401e+01 -6.573177e+01 -6.478317e+01 -6.332574e+01 -6.545080e+01 -6.390948e+01 -5.742228e+01 -5.801184e+01 -6.002679e+01 -5.474679e+01 -5.038854e+01 -5.476149e+01 -5.333001e+01 -4.775732e+01 -4.827326e+01 -5.158206e+01 -4.671856e+01 -4.501251e+01 -4.671870e+01 -4.617771e+01 -4.522617e+01 -4.447214e+01 -4.364605e+01 -4.288097e+01 -4.208199e+01 -4.114795e+01 -4.049370e+01 -3.975477e+01 -3.957819e+01 -3.893075e+01 -3.865730e+01 -3.741470e+01 -3.670547e+01 -3.508288e+01 -3.442286e+01 -3.288726e+01 -3.244593e+01 -3.109946e+01 -3.089666e+01 -2.985495e+01 -2.971687e+01 -2.863791e+01 -2.794678e+01 -2.653368e+01 -2.532926e+01 -2.415701e+01 -2.297665e+01 -2.236734e+01 -2.107447e+01 -2.079022e+01 -1.929176e+01 -1.942185e+01 -1.782891e+01 -1.813945e+01 -1.615970e+01 -1.632352e+01 -1.419664e+01 -1.449731e+01 -1.268197e+01 -1.294439e+01 -1.126122e+01 -1.101570e+01 -9.571623e+00 -8.878364e+00 -8.066416e+00 -6.796695e+00 -6.658615e+00 -4.333272e+00 -6.017409e+00 -5.740673e-01 0 0 0 0 
0 0 0 0 0 2.716761e+00 3.545961e+00 2.873449e+00 5.071603e+00 3.827705e+00 6.234276e+00 4.674445e+00 7.123331e+00 8.033919e+00 -1.092956e+01 -1.048674e+01 -2.930260e+01 -2.893042e+01 -4.780708e+01 -4.735221e+01 -6.632205e+01 -6.503775e+01 -6.376771e+01 -6.404773e+01 -6.278098e+01 -6.285830e+01 -6.160522e+01 -6.161307e+01 -6.061980e+01 -6.068700e+01 -5.988777e+01 -5.973669e+01 -5.888366e+01 -5.846920e+01 -5.773500e+01 -5.726730e+01 -5.666309e+01 -5.598761e+01 -5.532637e+01 -5.449567e+01 -5.398407e+01 -5.324543e+01 -5.288440e+01 -5.210049e+01 -5.171718e+01 -5.093461e+01 -5.065949e+01 -4.997650e+01 -4.965392e+01 -4.879531e+01 -4.820078e+01 -4.725234e+01 -4.672173e+01 -4.608242e+01 -4.580954e+01 -4.541411e+01 -4.637910e+01 -4.806903e+01 -4.327895e+01 -4.392024e+01 -5.110904e+01 -4.622313e+01 -3.824804e+01 -4.430148e+01 -4.708040e+01 -3.739749e+01 -3.658309e+01 -4.421076e+01 -3.952285e+01 -3.211792e+01 -3.615944e+01 -3.733073e+01 -3.252083e+01 -3.190248e+01 -3.124504e+01 -3.072405e+01 -3.015328e+01 -2.962466e+01 -2.907261e+01 -2.842724e+01 -2.797519e+01 -2.746463e+01 -2.734261e+01 -2.689526e+01 -2.670631e+01 -2.584776e+01 -2.535773e+01 -2.423666e+01 -2.378065e+01 -2.271971e+01 -2.241482e+01 -2.148459e+01 -2.134451e+01 -2.062485e+01 -2.052950e+01 -1.978411e+01 -1.930664e+01 -1.833041e+01 -1.749830e+01 -1.668845e+01 -1.587295e+01 -1.545197e+01 -1.455872e+01 -1.436229e+01 -1.332702e+01 -1.341685e+01 -1.231636e+01 -1.253090e+01 -1.116328e+01 -1.127656e+01 -9.807420e+00 -1.001532e+01 -8.761493e+00 -8.943012e+00 -7.780518e+00 -7.611102e+00 -6.613756e+00 -6.134991e+00 -5.574305e+00 -4.697439e+00 -4.602380e+00 -2.995092e+00 -4.157129e+00 -3.965750e-01 0 0 0 0 
0 0 0 0 0 1.208049e-01 1.564395e-01 1.258858e-01 2.249030e-01 1.702120e-01 2.773702e-01 2.077985e-01 3.166570e-01 2.896204e+00 -3.733565e+00 5.174080e+00 -6.048731e+00 3.799778e+00 -6.907553e+00 5.884633e-01 -4.844126e+00 -2.900825e+00 -2.844087e+00 -2.856579e+00 -2.799968e+00 -2.803397e+00 -2.747407e+00 -2.747744e+00 -2.703377e+00 -2.706374e+00 -2.670685e+00 -2.663941e+00 -2.625855e+00 -2.607351e+00 -2.574573e+00 -2.553690e+00 -2.526715e+00 -2.496553e+00 -2.467031e+00 -2.429937e+00 -2.407095e+00 -2.374114e+00 -2.357994e+00 -2.322994e+00 -2.305881e+00 -2.270945e+00 -2.258663e+00 -2.228176e+00 -2.213778e+00 -2.175456e+00 -2.148921e+00 -2.106594e+00 -2.082914e+00 -2.054385e+00 -2.042208e+00 -2.024562e+00 -3.041697e+00 -4.023529e+00 7.642880e-01 -4.298111e-01 -7.410646e+00 -4.661381e+00 2.989063e-01 -5.239163e+00 -8.935304e+00 -1.881880e+00 -2.241653e+00 -9.083188e+00 -6.185475e+00 -7.819728e-01 -6.078227e+00 -6.691524e+00 -1.625699e+00 -1.421778e+00 -1.392463e+00 -1.369228e+00 -1.343778e+00 -1.320203e+00 -1.295587e+00 -1.266804e+00 -1.246646e+00 -1.223875e+00 -1.218431e+00 -1.198479e+00 -1.190051e+00 -1.151766e+00 -1.129916e+00 -1.079933e+00 -1.059603e+00 -1.012310e+00 -9.987222e-01 -9.572640e-01 -9.510282e-01 -9.189612e-01 -9.147214e-01 -8.815099e-01 -8.602332e-01 -8.167341e-01 -7.796451e-01 -7.435563e-01 -7.072032e-01 -6.884352e-01 -6.486104e-01 -6.398442e-01 -5.936946e-01 -5.976879e-01 -5.486457e-01 -5.582094e-01 -4.972880e-01 -5.023605e-01 -4.369490e-01 -4.462602e-01 -3.904640e-01 -3.986096e-01 -3.468906e-01 -3.393927e-01 -2.950233e-01 -2.737327e-01 -2.488110e-01 -2.098179e-01 -2.056665e-01 -1.338340e-01 -1.852481e-01 -1.766704e-02 0 0 0 0 
0 0 0 0 0 0 0 0 0 0 0 0 0 1.911074e+00 -5.822916e-01 1.905243e+00 -1.423194e+00 1.488122e+00 -1.787359e+00 5.120709e-01 -2.009707e+00 0 0 0 0 0 0 0 0 0 0 0 0 0 0 0 0 0 0 0 0 0 0 0 0 0 0 0 0 0 0 0 0 0 0 0 2.443545e-02 4.599077e-01 9.694765e-01 8.915443e-01 8.975789e-01 6.570832e-01 3.909837e-01 5.776795e-01 4.489080e-01 1.354950e-01 4.735235e-02 9.482966e-02 -1.767814e-02 -1.567277e-01 -5.407647e-01 -4.523965e-01 -1.287700e-02 0 0 0 0 0 0 0 0 0 0 0 0 0 0 0 0 0 0 0 0 0 0 0 0 0 0 0 0 0 0 0 0 0 0 0 0 0 0 0 0 0 0 0 0 0 0 0 0 0 0 0 0 0 0 0 
0 0 0 0 0 0 0 0 0 0 0 0 0 9.217763e-01 -5.775095e-01 1.254656e+00 -1.091809e+00 1.122870e+00 -1.182043e+00 5.097638e-01 -1.011002e+00 0 0 0 0 0 0 0 0 0 0 0 0 0 0 0 0 0 0 0 0 0 0 0 0 0 0 0 0 0 0 0 0 0 0 0 0 0 0 0 0 0 0 0 0 0 0 0 0 0 0 0 0 0 0 0 0 0 0 0 0 0 0 0 0 0 0 0 0 0 0 0 0 0 0 0 0 0 0 0 0 0 0 0 0 0 0 0 0 0 0 0 0 0 0 0 0 0 0 0 0 0 0 0 0 0 0 0 
0 0 0 0 0 0 0 0 0 0 0 0 0 -2.532742e-02 -1.606815e-02 -2.046748e-02 -1.752899e-02 -2.159815e-02 -2.454516e-02 -2.925906e-02 -3.601942e-02 0 0 0 0 0 0 0 0 0 0 0 0 0 0 0 0 0 0 0 0 0 0 0 0 0 0 0 0 0 0 0 0 0 0 0 0 0 0 0 0 0 0 0 0 0 0 0 0 0 0 0 0 0 0 0 0 0 0 0 0 0 0 0 0 0 0 0 0 0 0 0 0 0 0 0 0 0 0 0 0 0 0 0 0 0 0 0 0 0 0 0 0 0 0 0 0 0 0 0 0 0 0 0 0 0 0 0 
0 0 0 0 0 0 0 0 0 0 0 0 0 -9.502875e-01 5.648281e-01 -1.274148e+00 1.070642e+00 -1.147565e+00 1.142558e+00 -5.523331e-01 9.404591e-01 0 0 0 0 0 0 0 0 0 0 0 0 0 0 0 0 0 0 0 0 0 0 0 0 0 0 0 0 0 0 0 0 0 0 0 0 0 0 0 0 0 0 0 0 0 0 0 0 0 0 0 0 0 0 0 0 0 0 0 0 0 0 0 0 0 0 0 0 0 0 0 0 0 0 0 0 0 0 0 0 0 0 0 0 0 0 0 0 0 0 0 0 0 0 0 0 0 0 0 0 0 0 0 0 0 0 0 
0 0 0 0 0 0 0 0 0 0 0 0 0 -1.947489e+00 5.700784e-01 -1.922233e+00 1.410357e+00 -1.505200e+00 1.755116e+00 -5.558871e-01 1.929231e+00 0 0 0 0 0 0 0 0 0 0 0 0 0 0 0 0 0 0 0 0 0 0 0 0 0 0 0 0 0 0 0 0 0 0 0 0 0 0 0 0 0 0 0 0 0 0 0 0 0 0 0 0 0 0 0 0 0 0 0 0 0 0 0 0 0 0 0 0 0 0 0 0 0 0 0 0 0 0 0 0 0 0 0 0 0 0 0 0 0 0 0 0 0 0 0 0 0 0 0 0 0 0 0 0 0 0 0 
0 0 0 0 0 -1.206839e-01 -1.549383e-01 -1.206771e-01 -2.160527e-01 -1.607654e-01 -2.707597e-01 -2.042754e-01 -3.139108e-01 -2.808876e+00 3.768460e+00 -5.132270e+00 6.070541e+00 -3.770734e+00 6.920556e+00 -6.005062e-01 4.819428e+00 2.909252e+00 2.850908e+00 2.858691e+00 2.798768e+00 2.804085e+00 2.753757e+00 2.757216e+00 2.708907e+00 2.701071e+00 2.654813e+00 2.642689e+00 2.605808e+00 2.588484e+00 2.553681e+00 2.527882e+00 2.501247e+00 2.480226e+00 2.466397e+00 2.441505e+00 2.420340e+00 2.379685e+00 2.353946e+00 2.315714e+00 2.300507e+00 2.269640e+00 2.256347e+00 2.224585e+00 2.210646e+00 2.182883e+00 2.169055e+00 2.137590e+00 2.109369e+00 2.065881e+00 2.028859e+00 1.991156e+00 1.962139e+00 1.935317e+00 1.907597e+00 1.882427e+00 1.853428e+00 1.830827e+00 1.798585e+00 1.772003e+00 1.731113e+00 1.702313e+00 1.665151e+00 1.647310e+00 1.616521e+00 1.598246e+00 1.560796e+00 1.536000e+00 1.497884e+00 1.477827e+00 1.446974e+00 1.427202e+00 1.395221e+00 1.370004e+00 1.341143e+00 1.316299e+00 1.290696e+00 1.255504e+00 1.222291e+00 1.176531e+00 1.149939e+00 1.111609e+00 1.099425e+00 1.063063e+00 1.052408e+00 1.011805e+00 1.002868e+00 9.632770e-01 9.530408e-01 9.091765e-01 8.901492e-01 8.471016e-01 8.286850e-01 7.997551e-01 7.817219e-01 7.594469e-01 7.291557e-01 7.125876e-01 6.775220e-01 6.759893e-01 6.339842e-01 6.323214e-01 5.689025e-01 5.622101e-01 4.912194e-01 4.929096e-01 4.267606e-01 4.330527e-01 3.734638e-01 3.812843e-01 3.359107e-01 3.377536e-01 2.986717e-01 2.735955e-01 2.382051e-01 1.902027e-01 1.853570e-01 1.214811e-01 1.816812e-01 1.753104e-02 0 0 0 0 
0 0 0 0 0 -2.714037e+00 -3.512251e+00 -2.756441e+00 -4.872791e+00 -3.615564e+00 -6.085826e+00 -4.595318e+00 -7.061663e+00 -7.841980e+00 1.108352e+01 1.065842e+01 2.946273e+01 2.910842e+01 4.797306e+01 4.749767e+01 6.642223e+01 6.522642e+01 6.392044e+01 6.409503e+01 6.275412e+01 6.287374e+01 6.174740e+01 6.182516e+01 6.074364e+01 6.056825e+01 5.953235e+01 5.926079e+01 5.843475e+01 5.804670e+01 5.726715e+01 5.668933e+01 5.609274e+01 5.562196e+01 5.531224e+01 5.475481e+01 5.428077e+01 5.337026e+01 5.279375e+01 5.193744e+01 5.159682e+01 5.090539e+01 5.060762e+01 4.989605e+01 4.958378e+01 4.896174e+01 4.865191e+01 4.794687e+01 4.731457e+01 4.634007e+01 4.551050e+01 4.466558e+01 4.401536e+01 4.341424e+01 4.279308e+01 4.222898e+01 4.157911e+01 4.107257e+01 4.034999e+01 3.975420e+01 3.883773e+01 3.819219e+01 3.735919e+01 3.695927e+01 3.626907e+01 3.585937e+01 3.501975e+01 3.446382e+01 3.360919e+01 3.315946e+01 3.246761e+01 3.202426e+01 3.130708e+01 3.074165e+01 3.009439e+01 2.953733e+01 2.896316e+01 2.817403e+01 2.742919e+01 2.640305e+01 2.580667e+01 2.494707e+01 2.467384e+01 2.385826e+01 2.361927e+01 2.270841e+01 2.250785e+01 2.161953e+01 2.138972e+01 2.040538e+01 1.997832e+01 1.901220e+01 1.859887e+01 1.794956e+01 1.754493e+01 1.704508e+01 1.636562e+01 1.599400e+01 1.520751e+01 1.517342e+01 1.423117e+01 1.419406e+01 1.277098e+01 1.262070e+01 1.102706e+01 1.106443e+01 9.578753e+00 9.718932e+00 8.379929e+00 8.554144e+00 7.534091e+00 7.574234e+00 6.695619e+00 6.131946e+00 5.336169e+00 4.257122e+00 4.146493e+00 2.717750e+00 4.077074e+00 3.935232e-01 0 0 0 0 
0 0 0 0 0 -3.930017e+00 -5.092922e+00 -4.002207e+00 -7.059519e+00 -5.235493e+00 -8.811657e+00 -6.654531e+00 -1.022608e+01 -5.938059e+00 1.156238e+01 2.388031e+01 3.579922e+01 4.938619e+01 6.228715e+01 7.238096e+01 9.237319e+01 9.439954e+01 9.250999e+01 9.276268e+01 9.082270e+01 9.099592e+01 8.936632e+01 8.947893e+01 8.791408e+01 8.766032e+01 8.616142e+01 8.576847e+01 8.457319e+01 8.401168e+01 8.288364e+01 8.204756e+01 8.118427e+01 8.050307e+01 8.005491e+01 7.924832e+01 7.856239e+01 7.724490e+01 7.641068e+01 7.517159e+01 7.467872e+01 7.367819e+01 7.324731e+01 7.221762e+01 7.176575e+01 7.086561e+01 7.041725e+01 6.939698e+01 6.848198e+01 6.707176e+01 6.587128e+01 6.464856e+01 6.370762e+01 6.283771e+01 6.193880e+01 6.112246e+01 6.018201e+01 5.944896e+01 5.840327e+01 5.754107e+01 5.621477e+01 5.528054e+01 5.407502e+01 5.349626e+01 5.249738e+01 5.190445e+01 5.068931e+01 4.988473e+01 4.864785e+01 4.799697e+01 4.699565e+01 4.635399e+01 4.531600e+01 4.449766e+01 4.356087e+01 4.275464e+01 4.192364e+01 4.078154e+01 3.970350e+01 3.821837e+01 3.735520e+01 3.611108e+01 3.571563e+01 3.453520e+01 3.418928e+01 3.287090e+01 3.258059e+01 3.129479e+01 3.096211e+01 2.953729e+01 2.891911e+01 2.752063e+01 2.692233e+01 2.598243e+01 2.539675e+01 2.467324e+01 2.368979e+01 2.315193e+01 2.201360e+01 2.196431e+01 2.060053e+01 2.054685e+01 1.848698e+01 1.826942e+01 1.596251e+01 1.601647e+01 1.386564e+01 1.406829e+01 1.212964e+01 1.238149e+01 1.090451e+01 1.096231e+01 9.690116e+00 8.873965e+00 7.721683e+00 6.159305e+00 5.998691e+00 3.931788e+00 5.901528e+00 5.696498e-01 0 0 0 0 
0 0 0 0 0 -1.336663e+00 -1.735610e+00 -1.366443e+00 -2.402780e+00 -1.780694e+00 -2.996591e+00 -2.263488e+00 -3.478325e+00 -2.020611e+00 3.929997e+00 8.117503e+00 1.216910e+01 1.678674e+01 2.117135e+01 2.460109e+01 3.139373e+01 3.208237e+01 3.144045e+01 3.152634e+01 3.086734e+01 3.092627e+01 3.037269e+01 3.041098e+01 2.987935e+01 2.979314e+01 2.928388e+01 2.915037e+01 2.874424e+01 2.855346e+01 2.817018e+01 2.788610e+01 2.759278e+01 2.736133e+01 2.720906e+01 2.693502e+01 2.670196e+01 2.625432e+01 2.597088e+01 2.554987e+01 2.538240e+01 2.504245e+01 2.489604e+01 2.454616e+01 2.439261e+01 2.408675e+01 2.393440e+01 2.358770e+01 2.327678e+01 2.279757e+01 2.238964e+01 2.197414e+01 2.165439e+01 2.135878e+01 2.105332e+01 2.077591e+01 2.045632e+01 2.020722e+01 1.985187e+01 1.955886e+01 1.910815e+01 1.879066e+01 1.838098e+01 1.818430e+01 1.784483e+01 1.764332e+01 1.723035e+01 1.695691e+01 1.653654e+01 1.631533e+01 1.597501e+01 1.575693e+01 1.540414e+01 1.512602e+01 1.480762e+01 1.453361e+01 1.425117e+01 1.386301e+01 1.349660e+01 1.299185e+01 1.269847e+01 1.227562e+01 1.214122e+01 1.174000e+01 1.162242e+01 1.117430e+01 1.107561e+01 1.063854e+01 1.052544e+01 1.004109e+01 9.830940e+00 9.355538e+00 9.152145e+00 8.832631e+00 8.633544e+00 8.387599e+00 8.053329e+00 7.870512e+00 7.483604e+00 7.466888e+00 7.003336e+00 6.985115e+00 6.284905e+00 6.210936e+00 5.426667e+00 5.444943e+00 4.713649e+00 4.782410e+00 4.123178e+00 4.208632e+00 3.706328e+00 3.725827e+00 3.293169e+00 3.015615e+00 2.623718e+00 2.092386e+00 2.037555e+00 1.335519e+00 2.006135e+00 1.936577e-01 0 0 0 0 
0 0 0 0 0 0 0 0 0 0 0 0 0 0 0 0 0 0 0 0 0 0 0 0 0 0 0 0 0 0 0 0 0 0 0 0 0 0 0 0 0 0 0 0 0 0 0 0 0 0 0 0 0 0 0 0 0 0 0 0 0 0 0 0 0 0 0 0 0 0 0 0 0 0 0 0 0 0 0 0 0 0 0 0 0 0 0 0 0 0 0 0 0 0 0 0 0 0 0 0 0 0 0 0 0 0 0 0 0 0 0 0 0 0 0 0 0 0 0 0 0 0 0 0 0 0 0 0 
