# vtk DataFile Version 2.0
Comment goes here
ASCII

DATASET STRUCTURED_POINTS
FIELD FieldData 1
TIME 1 1 double
0.52000000
DIMENSIONS    128   16   1

ORIGIN    0.000   0.000   0.000
SPACING   0.0078125 0.015625   1.000

POINT_DATA   2048
SCALARS fY double
LOOKUP_TABLE default

0 0 0 0 0 0 0 0 0 0 0 0 0 0 0 0 0 0 0 0 0 0 0 0 0 0 0 0 0 0 0 0 0 0 0 0 0 0 0 0 0 0 0 0 0 0 0 0 0 0 0 0 0 0 0 0 0 0 0 0 0 0 0 0 0 0 0 0 0 0 0 0 0 0 0 0 0 0 0 0 0 0 0 0 0 0 0 0 0 0 0 0 0 0 0 0 0 0 0 0 0 0 0 0 0 0 0 0 0 0 0 0 0 0 0 0 0 0 0 0 0 0 0 0 0 0 0 0 
0 0 0 0 0 0 0 0 0 0 0 0 0 0 0 0 0 0 0 0 0 0 0 0 0 0 0 0 0 0 0 0 0 0 0 0 0 0 0 0 0 0 0 0 0 0 0 0 0 0 0 0 0 0 0 0 0 0 0 0 0 0 0 0 0 0 0 0 0 0 0 0 0 0 0 0 0 0 0 0 0 0 0 0 0 0 0 0 0 0 0 0 0 0 0 0 0 0 0 0 0 0 0 0 0 0 0 0 0 0 0 0 0 0 0 0 0 0 0 0 0 0 0 0 0 0 0 0 
0 0 0 0 0 -1.024937e+00 -8.514253e-01 -7.417378e-01 -1.281790e+00 -9.562537e-01 -1.605001e+00 -1.152328e+00 -1.809026e+00 -1.126953e+00 1.897184e+00 4.482297e+00 6.002646e+00 8.366286e+00 1.054663e+01 1.168472e+01 1.566377e+01 1.578125e+01 1.550737e+01 1.570748e+01 1.549344e+01 1.567803e+01 1.529537e+01 1.535764e+01 1.494317e+01 1.504680e+01 1.469826e+01 1.475903e+01 1.440726e+01 1.443482e+01 1.422100e+01 1.429834e+01 1.416014e+01 1.407891e+01 1.384019e+01 1.360477e+01 1.343531e+01 1.324166e+01 1.317779e+01 1.292971e+01 1.283885e+01 1.254471e+01 1.251344e+01 1.226123e+01 1.223252e+01 1.192507e+01 1.186812e+01 1.166387e+01 1.177914e+01 1.175878e+01 1.188723e+01 1.177946e+01 1.073998e+01 8.384347e+00 1.221393e+01 1.142582e+01 3.736282e+00 6.626966e+00 1.181590e+01 6.310648e+00 2.747927e+00 9.650340e+00 9.265874e+00 3.665458e+00 5.655659e+00 1.013295e+01 6.295794e+00 4.672367e+00 7.119768e+00 7.031742e+00 6.807013e+00 6.800060e+00 6.884835e+00 7.022994e+00 7.114020e+00 6.999423e+00 6.883915e+00 6.551219e+00 6.416524e+00 6.049371e+00 6.001886e+00 5.709361e+00 5.863392e+00 5.762569e+00 6.047837e+00 5.890912e+00 5.916612e+00 5.492362e+00 5.291484e+00 4.902663e+00 4.735990e+00 4.515265e+00 4.318688e+00 4.216784e+00 3.999031e+00 4.080483e+00 3.816572e+00 3.932440e+00 3.467832e+00 3.560629e+00 3.034102e+00 3.245573e+00 2.754832e+00 2.958990e+00 2.414352e+00 2.563552e+00 2.176698e+00 2.424115e+00 2.267979e+00 2.364487e+00 2.180398e+00 1.949991e+00 1.868577e+00 1.524156e+00 1.681961e+00 1.159383e+00 1.414486e+00 6.467820e-01 1.292427e+00 4.972984e-01 0 0 0 0 
0 0 0 0 0 -3.015504e+00 -2.512924e+00 -2.194699e+00 -3.776495e+00 -2.814067e+00 -4.721273e+00 -3.389644e+00 -5.321374e+00 -3.315299e+00 5.579622e+00 1.318250e+01 1.765372e+01 2.460428e+01 3.101613e+01 3.436240e+01 4.606165e+01 4.640705e+01 4.560172e+01 4.619015e+01 4.556100e+01 4.610391e+01 4.497902e+01 4.516225e+01 4.394378e+01 4.424855e+01 4.322384e+01 4.340253e+01 4.236823e+01 4.244924e+01 4.182053e+01 4.204787e+01 4.164149e+01 4.140265e+01 4.070072e+01 4.000852e+01 3.951022e+01 3.894088e+01 3.875310e+01 3.802369e+01 3.775658e+01 3.689172e+01 3.679978e+01 3.605822e+01 3.597379e+01 3.506976e+01 3.490231e+01 3.430168e+01 3.464062e+01 3.458073e+01 3.495840e+01 3.464149e+01 3.391874e+01 3.251116e+01 3.595991e+01 3.445162e+01 2.762538e+01 2.902706e+01 3.177154e+01 2.758961e+01 2.357671e+01 2.839757e+01 2.712143e+01 2.229117e+01 2.236409e+01 2.551287e+01 2.086013e+01 1.891216e+01 2.114667e+01 2.068031e+01 2.001939e+01 1.999891e+01 2.024821e+01 2.065449e+01 2.092219e+01 2.058522e+01 2.024555e+01 1.926721e+01 1.887113e+01 1.779144e+01 1.765182e+01 1.679156e+01 1.724454e+01 1.694800e+01 1.778688e+01 1.732533e+01 1.740083e+01 1.615307e+01 1.556225e+01 1.441867e+01 1.392846e+01 1.327929e+01 1.270119e+01 1.240152e+01 1.176121e+01 1.200085e+01 1.122481e+01 1.156565e+01 1.019930e+01 1.047223e+01 8.923636e+00 9.545449e+00 8.101912e+00 8.702049e+00 7.099824e+00 7.538243e+00 6.400022e+00 7.127303e+00 6.667763e+00 6.951368e+00 6.409826e+00 5.732327e+00 5.493142e+00 4.480677e+00 4.945305e+00 3.408221e+00 4.153126e+00 1.890838e+00 3.795572e+00 1.462340e+00 0 0 0 0 
0 0 0 0 0 -2.083459e+00 -1.740054e+00 -1.522362e+00 -2.611805e+00 -1.944593e+00 -3.261587e+00 -2.341639e+00 -3.676124e+00 -3.673790e+00 5.276463e+00 5.165653e+00 1.438830e+01 1.452602e+01 2.344097e+01 2.392574e+01 3.244148e+01 3.205196e+01 3.149578e+01 3.190217e+01 3.146776e+01 3.184278e+01 3.106604e+01 3.119265e+01 3.035124e+01 3.056176e+01 2.985413e+01 2.997754e+01 2.926325e+01 2.931918e+01 2.888497e+01 2.904196e+01 2.876129e+01 2.859633e+01 2.811155e+01 2.763352e+01 2.728939e+01 2.689620e+01 2.676653e+01 2.626280e+01 2.607834e+01 2.548107e+01 2.541758e+01 2.490545e+01 2.484714e+01 2.422278e+01 2.410713e+01 2.369231e+01 2.392637e+01 2.388500e+01 2.414583e+01 2.392695e+01 2.513931e+01 2.706158e+01 2.064713e+01 2.146714e+01 2.980348e+01 2.536377e+01 1.839161e+01 2.495216e+01 2.825937e+01 1.945707e+01 1.910373e+01 2.530790e+01 2.136557e+01 1.518896e+01 1.928240e+01 2.029133e+01 1.481513e+01 1.428446e+01 1.382795e+01 1.381379e+01 1.398597e+01 1.426659e+01 1.445149e+01 1.421876e+01 1.398417e+01 1.330845e+01 1.303490e+01 1.228918e+01 1.219275e+01 1.159857e+01 1.191144e+01 1.170661e+01 1.228600e+01 1.196718e+01 1.201929e+01 1.115740e+01 1.074929e+01 9.959356e+00 9.620750e+00 9.172331e+00 8.773037e+00 8.566070e+00 8.123831e+00 8.289408e+00 7.753424e+00 7.988894e+00 7.045150e+00 7.233671e+00 6.163977e+00 6.593421e+00 5.596200e+00 6.010589e+00 4.903671e+00 5.206318e+00 4.419882e+00 4.922053e+00 4.604470e+00 4.800255e+00 4.426131e+00 3.958224e+00 3.793134e+00 3.094028e+00 3.415213e+00 2.353418e+00 2.865350e+00 1.300556e+00 2.619066e+00 1.009976e+00 0 0 0 0 
0 0 0 0 0 -9.289236e-02 -7.855469e-02 -6.940085e-02 -1.170999e-01 -8.677952e-02 -1.453146e-01 -1.043222e-01 -1.637761e-01 -9.430140e-01 1.881581e+00 -3.847496e+00 3.076962e+00 -1.946202e+00 3.309308e+00 1.027861e+00 1.676351e+00 1.426162e+00 1.401423e+00 1.419502e+00 1.400204e+00 1.416903e+00 1.382389e+00 1.388038e+00 1.350639e+00 1.360012e+00 1.328551e+00 1.334042e+00 1.302275e+00 1.304760e+00 1.285445e+00 1.292422e+00 1.279935e+00 1.272596e+00 1.251033e+00 1.229773e+00 1.214468e+00 1.196984e+00 1.191219e+00 1.168820e+00 1.160619e+00 1.134057e+00 1.131236e+00 1.108458e+00 1.105865e+00 1.078092e+00 1.072947e+00 1.054492e+00 1.064901e+00 1.063058e+00 1.074657e+00 1.064920e+00 1.734336e+00 1.714021e+00 -4.928056e+00 -2.871050e+00 4.457974e+00 1.712280e+00 -2.474955e+00 2.417094e+00 6.397805e+00 6.113006e-02 6.832855e-01 6.069538e+00 4.466363e+00 -4.185378e-01 4.848418e+00 6.505718e+00 7.936805e-01 6.358943e-01 6.155724e-01 6.149385e-01 6.226003e-01 6.350877e-01 6.433178e-01 6.329645e-01 6.225265e-01 5.924603e-01 5.802893e-01 5.471053e-01 5.428167e-01 5.163724e-01 5.302973e-01 5.211772e-01 5.469581e-01 5.327607e-01 5.350708e-01 4.966965e-01 4.785248e-01 4.433513e-01 4.282756e-01 4.083100e-01 3.905388e-01 3.813300e-01 3.616545e-01 3.690372e-01 3.451910e-01 3.556831e-01 3.136783e-01 3.220718e-01 2.744430e-01 2.935453e-01 2.491194e-01 2.675306e-01 2.181994e-01 2.316259e-01 1.965568e-01 2.188657e-01 2.046859e-01 2.133739e-01 1.967023e-01 1.758881e-01 1.685699e-01 1.375069e-01 1.518694e-01 1.045793e-01 1.267098e-01 5.649990e-02 1.159212e-01 4.493450e-02 0 0 0 0 
0 0 0 0 0 0 0 0 0 0 0 0 0 -1.213668e+00 2.880458e-01 -1.062941e+00 6.371251e-01 -7.244192e-01 7.419537e-01 -1.181856e-01 8.521492e-01 0 0 0 0 0 0 0 0 0 0 0 0 0 0 0 0 0 0 0 0 0 0 0 0 0 0 0 0 0 0 0 0 0 0 0 -2.262112e-01 -1.220743e+00 -1.829200e+00 -1.312388e+00 -1.456405e+00 -1.251397e+00 -9.109270e-01 -1.256095e+00 -1.032783e+00 -6.487122e-01 -5.648878e-01 -6.126503e-01 -1.907724e-01 -2.275770e-01 1.303559e-01 4.541763e-01 5.443541e-03 0 0 0 0 0 0 0 0 0 0 0 0 0 0 0 0 0 0 0 0 0 0 0 0 0 0 0 0 0 0 0 0 0 0 0 0 0 0 0 0 0 0 0 0 0 0 0 0 0 0 0 0 0 0 0 
0 0 0 0 0 0 0 0 0 0 0 0 0 -5.976226e-01 3.117491e-01 -7.574161e-01 5.356879e-01 -5.792272e-01 5.304320e-01 -1.581876e-01 4.017725e-01 0 0 0 0 0 0 0 0 0 0 0 0 0 0 0 0 0 0 0 0 0 0 0 0 0 0 0 0 0 0 0 0 0 0 0 0 0 0 0 0 0 0 0 0 0 0 0 0 0 0 0 0 0 0 0 0 0 0 0 0 0 0 0 0 0 0 0 0 0 0 0 0 0 0 0 0 0 0 0 0 0 0 0 0 0 0 0 0 0 0 0 0 0 0 0 0 0 0 0 0 0 0 0 0 0 0 0 
0 0 0 0 0 0 0 0 0 0 0 0 0 4.676211e-04 1.385429e-03 2.728589e-03 5.801021e-03 1.149036e-02 1.739607e-02 2.745452e-02 3.377862e-02 0 0 0 0 0 0 0 0 0 0 0 0 0 0 0 0 0 0 0 0 0 0 0 0 0 0 0 0 0 0 0 0 0 0 0 0 0 0 0 0 0 0 0 0 0 0 0 0 0 0 0 0 0 0 0 0 0 0 0 0 0 0 0 0 0 0 0 0 0 0 0 0 0 0 0 0 0 0 0 0 0 0 0 0 0 0 0 0 0 0 0 0 0 0 0 0 0 0 0 0 0 0 0 0 0 0 0 
0 0 0 0 0 0 0 0 0 0 0 0 0 5.865261e-01 -3.248562e-01 7.404880e-01 -5.473191e-01 5.730830e-01 -5.193415e-01 1.826996e-01 -3.550724e-01 0 0 0 0 0 0 0 0 0 0 0 0 0 0 0 0 0 0 0 0 0 0 0 0 0 0 0 0 0 0 0 0 0 0 0 0 0 0 0 0 0 0 0 0 0 0 0 0 0 0 0 0 0 0 0 0 0 0 0 0 0 0 0 0 0 0 0 0 0 0 0 0 0 0 0 0 0 0 0 0 0 0 0 0 0 0 0 0 0 0 0 0 0 0 0 0 0 0 0 0 0 0 0 0 0 0 0 
0 0 0 0 0 0 0 0 0 0 0 0 0 1.193897e+00 -3.083136e-01 1.041929e+00 -6.542425e-01 7.185881e-01 -7.271678e-01 1.694682e-01 -7.688121e-01 0 0 0 0 0 0 0 0 0 0 0 0 0 0 0 0 0 0 0 0 0 0 0 0 0 0 0 0 0 0 0 0 0 0 0 0 0 0 0 0 0 0 0 0 0 0 0 0 0 0 0 0 0 0 0 0 0 0 0 0 0 0 0 0 0 0 0 0 0 0 0 0 0 0 0 0 0 0 0 0 0 0 0 0 0 0 0 0 0 0 0 0 0 0 0 0 0 0 0 0 0 0 0 0 0 0 0 
0 0 0 0 0 9.303807e-02 7.927751e-02 6.879478e-02 1.119062e-01 7.746194e-02 1.360765e-01 9.843590e-02 1.606317e-01 9.147386e-01 -1.983805e+00 3.758772e+00 -3.176323e+00 1.859288e+00 -3.354523e+00 -1.072728e+00 -1.634153e+00 -1.464396e+00 -1.439519e+00 -1.441034e+00 -1.399096e+00 -1.401091e+00 -1.364490e+00 -1.375123e+00 -1.341257e+00 -1.351096e+00 -1.321659e+00 -1.334311e+00 -1.310077e+00 -1.310590e+00 -1.274721e+00 -1.257446e+00 -1.227862e+00 -1.221573e+00 -1.217228e+00 -1.216461e+00 -1.212502e+00 -1.195494e+00 -1.187602e+00 -1.169446e+00 -1.172031e+00 -1.156334e+00 -1.157531e+00 -1.133983e+00 -1.130160e+00 -1.105024e+00 -1.098087e+00 -1.069154e+00 -1.054744e+00 -1.028861e+00 -1.021365e+00 -1.010567e+00 -1.003748e+00 -9.860004e-01 -9.579049e-01 -9.304019e-01 -9.028545e-01 -8.930217e-01 -8.782263e-01 -8.748516e-01 -8.508554e-01 -8.379216e-01 -8.084196e-01 -8.003283e-01 -7.761738e-01 -7.707360e-01 -7.491916e-01 -7.495791e-01 -7.412057e-01 -7.498426e-01 -7.413980e-01 -7.286465e-01 -6.987007e-01 -6.663883e-01 -6.428144e-01 -6.229081e-01 -6.204650e-01 -6.034850e-01 -6.011334e-01 -5.741911e-01 -5.724072e-01 -5.440696e-01 -5.429004e-01 -5.073507e-01 -5.001336e-01 -4.665169e-01 -4.682722e-01 -4.500241e-01 -4.532819e-01 -4.340995e-01 -4.232654e-01 -4.085777e-01 -3.991568e-01 -4.030183e-01 -3.897804e-01 -3.948632e-01 -3.622500e-01 -3.671220e-01 -3.270959e-01 -3.409320e-01 -2.963311e-01 -3.120012e-01 -2.664288e-01 -2.913090e-01 -2.586814e-01 -2.837483e-01 -2.434822e-01 -2.369818e-01 -1.857318e-01 -1.670034e-01 -1.456234e-01 -1.361771e-01 -1.421435e-01 -1.160753e-01 -1.290520e-01 -8.327208e-02 -1.129966e-01 -5.245062e-02 -1.156526e-01 -4.499965e-02 0 0 0 0 
0 0 0 0 0 2.086725e+00 1.756263e+00 1.508763e+00 2.495195e+00 1.735370e+00 3.054182e+00 2.209482e+00 3.605517e+00 3.496140e+00 -5.477617e+00 -5.374207e+00 -1.460127e+01 -1.474886e+01 -2.366749e+01 -2.421180e+01 -3.276975e+01 -3.291177e+01 -3.235249e+01 -3.238650e+01 -3.144284e+01 -3.148721e+01 -3.066356e+01 -3.090222e+01 -3.014025e+01 -3.036125e+01 -2.969915e+01 -2.998359e+01 -2.943868e+01 -2.945028e+01 -2.864385e+01 -2.825549e+01 -2.759045e+01 -2.744910e+01 -2.735144e+01 -2.733420e+01 -2.724518e+01 -2.686268e+01 -2.668519e+01 -2.627688e+01 -2.633491e+01 -2.598191e+01 -2.600876e+01 -2.547929e+01 -2.539332e+01 -2.482822e+01 -2.467228e+01 -2.402190e+01 -2.369798e+01 -2.311620e+01 -2.294774e+01 -2.270505e+01 -2.255178e+01 -2.215287e+01 -2.152128e+01 -2.090309e+01 -2.028384e+01 -2.006280e+01 -1.973020e+01 -1.965431e+01 -1.911493e+01 -1.882422e+01 -1.816115e+01 -1.797930e+01 -1.743648e+01 -1.731430e+01 -1.683019e+01 -1.683896e+01 -1.665086e+01 -1.684503e+01 -1.665532e+01 -1.636878e+01 -1.569591e+01 -1.496974e+01 -1.444002e+01 -1.399265e+01 -1.393768e+01 -1.355605e+01 -1.350314e+01 -1.289769e+01 -1.285757e+01 -1.222086e+01 -1.219464e+01 -1.139603e+01 -1.123400e+01 -1.047895e+01 -1.051858e+01 -1.010884e+01 -1.018223e+01 -9.751485e+00 -9.508149e+00 -9.178258e+00 -8.966545e+00 -9.053149e+00 -8.755543e+00 -8.869492e+00 -8.136555e+00 -8.245798e+00 -7.346521e+00 -7.657338e+00 -6.655676e+00 -7.008062e+00 -5.985091e+00 -6.544793e+00 -5.812959e+00 -6.377176e+00 -5.473979e+00 -5.328899e+00 -4.178947e+00 -3.758684e+00 -3.278774e+00 -3.066288e+00 -3.199443e+00 -2.612584e+00 -2.902706e+00 -1.874923e+00 -2.557395e+00 -1.209708e+00 -2.613102e+00 -1.011441e+00 0 0 0 0 
0 0 0 0 0 3.020230e+00 2.536385e+00 2.175015e+00 3.607689e+00 2.511186e+00 4.421031e+00 3.198333e+00 5.219159e+00 3.202393e+00 -5.727860e+00 -1.333303e+01 -1.774305e+01 -2.464596e+01 -3.113327e+01 -3.471714e+01 -4.688378e+01 -4.765208e+01 -4.684227e+01 -4.689150e+01 -4.552492e+01 -4.558903e+01 -4.439622e+01 -4.474169e+01 -4.363825e+01 -4.395821e+01 -4.299943e+01 -4.341128e+01 -4.262226e+01 -4.263907e+01 -4.147139e+01 -4.090906e+01 -3.994613e+01 -3.974148e+01 -3.960008e+01 -3.957512e+01 -3.944621e+01 -3.889235e+01 -3.863533e+01 -3.804407e+01 -3.812808e+01 -3.761693e+01 -3.765579e+01 -3.688912e+01 -3.676464e+01 -3.594640e+01 -3.572061e+01 -3.477891e+01 -3.430990e+01 -3.346754e+01 -3.322363e+01 -3.287225e+01 -3.265032e+01 -3.207274e+01 -3.115824e+01 -3.026317e+01 -2.936654e+01 -2.904648e+01 -2.856490e+01 -2.845502e+01 -2.767403e+01 -2.725311e+01 -2.629307e+01 -2.602977e+01 -2.524384e+01 -2.506696e+01 -2.436605e+01 -2.437876e+01 -2.410644e+01 -2.438760e+01 -2.411294e+01 -2.369808e+01 -2.272389e+01 -2.167249e+01 -2.090555e+01 -2.025781e+01 -2.017821e+01 -1.962565e+01 -1.954904e+01 -1.867243e+01 -1.861434e+01 -1.769251e+01 -1.765456e+01 -1.649836e+01 -1.626380e+01 -1.517072e+01 -1.522813e+01 -1.463499e+01 -1.474128e+01 -1.411771e+01 -1.376543e+01 -1.328784e+01 -1.298132e+01 -1.310666e+01 -1.267574e+01 -1.284065e+01 -1.177946e+01 -1.193757e+01 -1.063560e+01 -1.108559e+01 -9.635495e+00 -1.014576e+01 -8.664944e+00 -9.475455e+00 -8.416223e+00 -9.233353e+00 -7.926087e+00 -7.716286e+00 -6.051777e+00 -5.443454e+00 -4.748758e+00 -4.441057e+00 -4.633611e+00 -3.783664e+00 -4.203337e+00 -2.715517e+00 -3.707309e+00 -1.759341e+00 -3.786954e+00 -1.464462e+00 0 0 0 0 
0 0 0 0 0 1.026543e+00 8.593989e-01 7.350465e-01 1.224400e+00 8.532778e-01 1.502926e+00 1.087287e+00 1.774274e+00 1.088565e+00 -1.947587e+00 -4.533482e+00 -6.033024e+00 -8.380459e+00 -1.058646e+01 -1.180536e+01 -1.594340e+01 -1.620471e+01 -1.592930e+01 -1.594603e+01 -1.548117e+01 -1.550292e+01 -1.509716e+01 -1.521460e+01 -1.483926e+01 -1.494805e+01 -1.462194e+01 -1.476201e+01 -1.449365e+01 -1.449938e+01 -1.410226e+01 -1.391102e+01 -1.358354e+01 -1.351395e+01 -1.346586e+01 -1.345738e+01 -1.341353e+01 -1.322515e+01 -1.313774e+01 -1.293664e+01 -1.296520e+01 -1.279135e+01 -1.280456e+01 -1.254381e+01 -1.250148e+01 -1.222320e+01 -1.214642e+01 -1.182616e+01 -1.166666e+01 -1.138020e+01 -1.129725e+01 -1.117776e+01 -1.110229e+01 -1.090587e+01 -1.059487e+01 -1.029048e+01 -9.985551e+00 -9.876704e+00 -9.712927e+00 -9.675553e+00 -9.409960e+00 -9.266818e+00 -8.940338e+00 -8.850802e+00 -8.583542e+00 -8.523395e+00 -8.285054e+00 -8.289382e+00 -8.196785e+00 -8.292406e+00 -8.199013e+00 -8.057942e+00 -7.726673e+00 -7.369138e+00 -7.108342e+00 -6.888070e+00 -6.860995e+00 -6.673089e+00 -6.647028e+00 -6.348936e+00 -6.329178e+00 -6.015718e+00 -6.002818e+00 -5.609680e+00 -5.529938e+00 -5.158280e+00 -5.177827e+00 -4.976166e+00 -5.012335e+00 -4.800326e+00 -4.680549e+00 -4.518165e+00 -4.413928e+00 -4.456531e+00 -4.309981e+00 -4.366026e+00 -4.005158e+00 -4.058893e+00 -3.616179e+00 -3.769185e+00 -3.276151e+00 -3.449698e+00 -2.946282e+00 -3.221971e+00 -2.861945e+00 -3.139925e+00 -2.695590e+00 -2.624369e+00 -2.058561e+00 -1.851773e+00 -1.615607e+00 -1.510946e+00 -1.576312e+00 -1.287155e+00 -1.429683e+00 -9.238659e-01 -1.262910e+00 -6.020842e-01 -1.289505e+00 -4.980204e-01 0 0 0 0 
0 0 0 0 0 0 0 0 0 0 0 0 0 0 0 0 0 0 0 0 0 0 0 0 0 0 0 0 0 0 0 0 0 0 0 0 0 0 0 0 0 0 0 0 0 0 0 0 0 0 0 0 0 0 0 0 0 0 0 0 0 0 0 0 0 0 0 0 0 0 0 0 0 0 0 0 0 0 0 0 0 0 0 0 0 0 0 0 0 0 0 0 0 0 0 0 0 0 0 0 0 0 0 0 0 0 0 0 0 0 0 0 0 0 0 0 0 0 0 0 0 0 0 0 0 0 0 0 
