# vtk DataFile Version 2.0
Comment goes here
ASCII

DATASET STRUCTURED_POINTS
FIELD FieldData 1
TIME 1 1 double
0.47000000
DIMENSIONS    128   16   1

ORIGIN    0.000   0.000   0.000
SPACING   0.0078125 0.015625   1.000

POINT_DATA   2048
SCALARS fY double
LOOKUP_TABLE default

0 0 0 0 0 0 0 0 0 0 0 0 0 0 0 0 0 0 0 0 0 0 0 0 0 0 0 0 0 0 0 0 0 0 0 0 0 0 0 0 0 0 0 0 0 0 0 0 0 0 0 0 0 0 0 0 0 0 0 0 0 0 0 0 0 0 0 0 0 0 0 0 0 0 0 0 0 0 0 0 0 0 0 0 0 0 0 0 0 0 0 0 0 0 0 0 0 0 0 0 0 0 0 0 0 0 0 0 0 0 0 0 0 0 0 0 0 0 0 0 0 0 0 0 0 0 0 0 
0 0 0 0 0 0 0 0 0 0 0 0 0 0 0 0 0 0 0 0 0 0 0 0 0 0 0 0 0 0 0 0 0 0 0 0 0 0 0 0 0 0 0 0 0 0 0 0 0 0 0 0 0 0 0 0 0 0 0 0 0 0 0 0 0 0 0 0 0 0 0 0 0 0 0 0 0 0 0 0 0 0 0 0 0 0 0 0 0 0 0 0 0 0 0 0 0 0 0 0 0 0 0 0 0 0 0 0 0 0 0 0 0 0 0 0 0 0 0 0 0 0 0 0 0 0 0 0 
0 0 0 0 0 9.990279e-01 8.056058e-01 7.179038e-01 1.258088e+00 8.630192e-01 1.524360e+00 1.060174e+00 1.753739e+00 1.049653e+00 -1.970729e+00 -4.556033e+00 -6.108401e+00 -8.422849e+00 -1.067333e+01 -1.187147e+01 -1.600248e+01 -1.625289e+01 -1.593960e+01 -1.596918e+01 -1.550931e+01 -1.555306e+01 -1.517045e+01 -1.534845e+01 -1.505469e+01 -1.523975e+01 -1.492757e+01 -1.500964e+01 -1.464852e+01 -1.459713e+01 -1.422875e+01 -1.413267e+01 -1.390032e+01 -1.385150e+01 -1.376065e+01 -1.368583e+01 -1.361600e+01 -1.341749e+01 -1.330910e+01 -1.301684e+01 -1.294003e+01 -1.269074e+01 -1.273823e+01 -1.257083e+01 -1.265001e+01 -1.243318e+01 -1.238861e+01 -1.206420e+01 -1.193936e+01 -1.168001e+01 -1.166661e+01 -1.158392e+01 -1.078848e+01 -8.515790e+00 -1.149838e+01 -1.041241e+01 -2.934353e+00 -5.628275e+00 -1.098260e+01 -4.936930e+00 -1.052040e+00 -8.838385e+00 -8.281427e+00 -1.800691e+00 -4.191486e+00 -9.506979e+00 -5.195741e+00 -3.636515e+00 -6.894723e+00 -7.123919e+00 -7.134059e+00 -7.164396e+00 -7.142527e+00 -7.075481e+00 -7.084417e+00 -6.951836e+00 -6.953879e+00 -6.667251e+00 -6.585156e+00 -6.168898e+00 -6.086951e+00 -5.685411e+00 -5.716485e+00 -5.461212e+00 -5.647660e+00 -5.511187e+00 -5.660531e+00 -5.424742e+00 -5.331891e+00 -4.989951e+00 -4.775622e+00 -4.546944e+00 -4.344918e+00 -4.274603e+00 -4.033113e+00 -4.084405e+00 -3.815915e+00 -4.012330e+00 -3.687896e+00 -3.870251e+00 -3.337571e+00 -3.420645e+00 -2.835169e+00 -3.022526e+00 -2.603801e+00 -2.860407e+00 -2.498838e+00 -2.605890e+00 -2.251124e+00 -2.174124e+00 -1.914873e+00 -1.690153e+00 -1.627361e+00 -1.324083e+00 -1.524618e+00 -1.112879e+00 -1.450268e+00 -7.582617e-01 -1.379386e+00 -5.285537e-01 0 0 0 0 
0 0 0 0 0 2.937553e+00 2.361275e+00 2.099070e+00 3.694144e+00 2.536899e+00 4.482986e+00 3.117856e+00 5.157563e+00 3.086570e+00 -5.796986e+00 -1.340169e+01 -1.796812e+01 -2.477702e+01 -3.139741e+01 -3.492265e+01 -4.707745e+01 -4.781420e+01 -4.689244e+01 -4.697942e+01 -4.562613e+01 -4.575469e+01 -4.462870e+01 -4.515228e+01 -4.428783e+01 -4.483224e+01 -4.391366e+01 -4.415513e+01 -4.309261e+01 -4.294142e+01 -4.185763e+01 -4.157498e+01 -4.089137e+01 -4.074777e+01 -4.048047e+01 -4.026034e+01 -4.005488e+01 -3.947078e+01 -3.915188e+01 -3.829194e+01 -3.806591e+01 -3.733243e+01 -3.747213e+01 -3.697961e+01 -3.721255e+01 -3.657461e+01 -3.644347e+01 -3.548907e+01 -3.512179e+01 -3.435879e+01 -3.431936e+01 -3.407609e+01 -3.372064e+01 -3.216923e+01 -3.447126e+01 -3.265225e+01 -2.563758e+01 -2.639434e+01 -2.917530e+01 -2.417635e+01 -1.984208e+01 -2.563994e+01 -2.422357e+01 -1.914529e+01 -1.980006e+01 -2.334593e+01 -1.821295e+01 -1.696289e+01 -2.053360e+01 -2.095531e+01 -2.098518e+01 -2.107445e+01 -2.101012e+01 -2.081288e+01 -2.083913e+01 -2.044907e+01 -2.045504e+01 -1.961179e+01 -1.937026e+01 -1.814570e+01 -1.790462e+01 -1.672342e+01 -1.681484e+01 -1.606396e+01 -1.661249e+01 -1.621111e+01 -1.665051e+01 -1.595700e+01 -1.568393e+01 -1.467816e+01 -1.404770e+01 -1.337505e+01 -1.278074e+01 -1.257386e+01 -1.186341e+01 -1.201420e+01 -1.122433e+01 -1.180199e+01 -1.084760e+01 -1.138400e+01 -9.817175e+00 -1.006167e+01 -8.339730e+00 -8.891103e+00 -7.659807e+00 -8.414997e+00 -7.351889e+00 -7.667146e+00 -6.623967e+00 -6.397627e+00 -5.635166e+00 -4.974014e+00 -4.789057e+00 -3.896538e+00 -4.485937e+00 -3.275183e+00 -4.273911e+00 -2.243446e+00 -4.063734e+00 -1.555003e+00 0 0 0 0 
0 0 0 0 0 2.028767e+00 1.627118e+00 1.443933e+00 2.548795e+00 1.751708e+00 3.096452e+00 2.153537e+00 3.562387e+00 3.631012e+00 -5.420921e+00 -5.319626e+00 -1.455063e+01 -1.472955e+01 -2.365836e+01 -2.425457e+01 -3.288208e+01 -3.303364e+01 -3.239677e+01 -3.245685e+01 -3.152170e+01 -3.161044e+01 -3.083234e+01 -3.119403e+01 -3.059668e+01 -3.097279e+01 -3.033808e+01 -3.050492e+01 -2.977079e+01 -2.966634e+01 -2.891753e+01 -2.872225e+01 -2.824995e+01 -2.815075e+01 -2.796607e+01 -2.781397e+01 -2.767201e+01 -2.726842e+01 -2.704807e+01 -2.645390e+01 -2.629772e+01 -2.579092e+01 -2.588743e+01 -2.554713e+01 -2.570807e+01 -2.526731e+01 -2.517671e+01 -2.451731e+01 -2.426356e+01 -2.373641e+01 -2.370918e+01 -2.354111e+01 -2.482366e+01 -2.763099e+01 -2.298681e+01 -2.365162e+01 -3.130906e+01 -2.687961e+01 -1.914621e+01 -2.618100e+01 -2.984895e+01 -1.990919e+01 -2.023088e+01 -2.792770e+01 -2.338312e+01 -1.634438e+01 -2.051224e+01 -2.082284e+01 -1.446744e+01 -1.447631e+01 -1.449696e+01 -1.455864e+01 -1.451420e+01 -1.437794e+01 -1.439606e+01 -1.412657e+01 -1.413067e+01 -1.354808e+01 -1.338120e+01 -1.253520e+01 -1.236864e+01 -1.155262e+01 -1.161578e+01 -1.109707e+01 -1.147604e+01 -1.119879e+01 -1.150239e+01 -1.102333e+01 -1.083472e+01 -1.013994e+01 -9.704412e+00 -9.239740e+00 -8.829151e+00 -8.686215e+00 -8.195383e+00 -8.299506e+00 -7.753797e+00 -8.152815e+00 -7.493472e+00 -7.864024e+00 -6.781673e+00 -6.950632e+00 -5.761217e+00 -6.142238e+00 -5.291832e+00 -5.813711e+00 -5.079521e+00 -5.297479e+00 -4.577018e+00 -4.420735e+00 -3.894080e+00 -3.437282e+00 -3.309388e+00 -2.692618e+00 -3.099552e+00 -2.263332e+00 -2.956316e+00 -1.556105e+00 -2.810310e+00 -1.074341e+00 0 0 0 0 
0 0 0 0 0 9.024196e-02 7.144809e-02 6.276715e-02 1.127391e-01 7.782794e-02 1.378252e-01 9.585462e-02 1.585637e-01 9.534199e-01 -1.906631e+00 3.773402e+00 -3.034858e+00 1.884983e+00 -3.251872e+00 -1.042197e+00 -1.694592e+00 -1.472332e+00 -1.443933e+00 -1.446608e+00 -1.404878e+00 -1.408814e+00 -1.374087e+00 -1.390197e+00 -1.363542e+00 -1.380305e+00 -1.351993e+00 -1.359432e+00 -1.326695e+00 -1.322041e+00 -1.288655e+00 -1.279952e+00 -1.258896e+00 -1.254476e+00 -1.246243e+00 -1.239460e+00 -1.233129e+00 -1.215130e+00 -1.205301e+00 -1.178803e+00 -1.171835e+00 -1.149234e+00 -1.153534e+00 -1.138359e+00 -1.145534e+00 -1.125883e+00 -1.121845e+00 -1.092449e+00 -1.081138e+00 -1.057639e+00 -1.056426e+00 -1.048934e+00 -1.712169e+00 -3.098014e+00 1.313359e+00 -3.920136e-01 -7.556306e+00 -5.423695e+00 -5.141909e-01 -6.270796e+00 -1.061506e+01 -2.939601e+00 -4.297678e+00 -1.042598e+01 -7.865064e+00 -2.660062e+00 -7.972047e+00 -8.076395e+00 -8.408928e-01 -6.449154e-01 -6.458405e-01 -6.485921e-01 -6.466127e-01 -6.405391e-01 -6.413430e-01 -6.293286e-01 -6.295060e-01 -6.035372e-01 -5.960964e-01 -5.583935e-01 -5.509695e-01 -5.146093e-01 -5.174253e-01 -4.943187e-01 -5.112119e-01 -4.988680e-01 -5.124061e-01 -4.910733e-01 -4.826772e-01 -4.517324e-01 -4.323299e-01 -4.116309e-01 -3.933330e-01 -3.869600e-01 -3.650823e-01 -3.697099e-01 -3.453863e-01 -3.631507e-01 -3.337698e-01 -3.502771e-01 -3.020686e-01 -3.096108e-01 -2.566557e-01 -2.736613e-01 -2.358255e-01 -2.591209e-01 -2.264697e-01 -2.362237e-01 -2.041744e-01 -1.972317e-01 -1.737862e-01 -1.534201e-01 -1.476915e-01 -1.201635e-01 -1.382327e-01 -1.010280e-01 -1.326731e-01 -7.092140e-02 -1.259625e-01 -4.789111e-02 0 0 0 0 
0 0 0 0 0 0 0 0 0 0 0 0 0 9.303951e-01 -2.855881e-01 9.999483e-01 -6.377468e-01 7.078023e-01 -7.625705e-01 1.586313e-01 -1.067406e+00 0 0 0 0 0 0 0 0 0 0 0 0 0 0 0 0 0 0 0 0 0 0 0 0 0 0 0 0 0 0 0 0 0 0 0 1.793272e-01 8.795316e-01 1.327282e+00 1.019771e+00 1.049533e+00 6.898500e-01 4.393239e-01 6.707779e-01 4.438581e-01 1.680342e-01 -8.935037e-03 1.571211e-01 -9.051371e-02 -1.546371e-01 -4.770176e-01 -5.799248e-01 -1.233318e-02 0 0 0 0 0 0 0 0 0 0 0 0 0 0 0 0 0 0 0 0 0 0 0 0 0 0 0 0 0 0 0 0 0 0 0 0 0 0 0 0 0 0 0 0 0 0 0 0 0 0 0 0 0 0 0 
0 0 0 0 0 0 0 0 0 0 0 0 0 4.268214e-01 -3.067983e-01 7.121027e-01 -5.330819e-01 5.641908e-01 -5.366854e-01 1.796363e-01 -5.294710e-01 0 0 0 0 0 0 0 0 0 0 0 0 0 0 0 0 0 0 0 0 0 0 0 0 0 0 0 0 0 0 0 0 0 0 0 0 0 0 0 0 0 0 0 0 0 0 0 0 0 0 0 0 0 0 0 0 0 0 0 0 0 0 0 0 0 0 0 0 0 0 0 0 0 0 0 0 0 0 0 0 0 0 0 0 0 0 0 0 0 0 0 0 0 0 0 0 0 0 0 0 0 0 0 0 0 0 0 
0 0 0 0 0 0 0 0 0 0 0 0 0 -2.178021e-02 -6.718060e-03 -1.222301e-02 -2.675511e-03 -5.108424e-03 -2.234237e-04 -9.847062e-04 -6.408210e-04 0 0 0 0 0 0 0 0 0 0 0 0 0 0 0 0 0 0 0 0 0 0 0 0 0 0 0 0 0 0 0 0 0 0 0 0 0 0 0 0 0 0 0 0 0 0 0 0 0 0 0 0 0 0 0 0 0 0 0 0 0 0 0 0 0 0 0 0 0 0 0 0 0 0 0 0 0 0 0 0 0 0 0 0 0 0 0 0 0 0 0 0 0 0 0 0 0 0 0 0 0 0 0 0 0 0 0 
0 0 0 0 0 0 0 0 0 0 0 0 0 -4.615126e-01 2.979154e-01 -7.340985e-01 5.253941e-01 -5.740782e-01 5.352886e-01 -1.753145e-01 5.271472e-01 0 0 0 0 0 0 0 0 0 0 0 0 0 0 0 0 0 0 0 0 0 0 0 0 0 0 0 0 0 0 0 0 0 0 0 0 0 0 0 0 0 0 0 0 0 0 0 0 0 0 0 0 0 0 0 0 0 0 0 0 0 0 0 0 0 0 0 0 0 0 0 0 0 0 0 0 0 0 0 0 0 0 0 0 0 0 0 0 0 0 0 0 0 0 0 0 0 0 0 0 0 0 0 0 0 0 0 
0 0 0 0 0 0 0 0 0 0 0 0 0 -9.711060e-01 2.795411e-01 -1.014845e+00 6.387578e-01 -7.060594e-01 7.718389e-01 -1.439154e-01 1.074188e+00 0 0 0 0 0 0 0 0 0 0 0 0 0 0 0 0 0 0 0 0 0 0 0 0 0 0 0 0 0 0 0 0 0 0 0 0 0 0 0 0 0 0 0 0 0 0 0 0 0 0 0 0 0 0 0 0 0 0 0 0 0 0 0 0 0 0 0 0 0 0 0 0 0 0 0 0 0 0 0 0 0 0 0 0 0 0 0 0 0 0 0 0 0 0 0 0 0 0 0 0 0 0 0 0 0 0 0 
0 0 0 0 0 -8.995122e-02 -6.893584e-02 -5.690909e-02 -1.066580e-01 -7.514533e-02 -1.389735e-01 -9.796636e-02 -1.587325e-01 -8.757708e-01 1.877864e+00 -3.791275e+00 3.008985e+00 -1.901276e+00 3.275612e+00 1.017369e+00 1.775978e+00 1.456698e+00 1.431843e+00 1.445500e+00 1.416856e+00 1.426367e+00 1.386858e+00 1.389365e+00 1.348795e+00 1.356423e+00 1.327691e+00 1.341609e+00 1.321568e+00 1.331518e+00 1.309525e+00 1.303117e+00 1.273779e+00 1.255049e+00 1.232342e+00 1.218697e+00 1.214273e+00 1.208399e+00 1.214003e+00 1.203033e+00 1.201125e+00 1.172236e+00 1.156643e+00 1.118410e+00 1.104426e+00 1.076265e+00 1.076110e+00 1.063500e+00 1.069901e+00 1.058914e+00 1.054319e+00 1.035097e+00 1.019611e+00 1.001219e+00 9.822404e-01 9.649713e-01 9.407463e-01 9.261662e-01 9.041007e-01 8.987164e-01 8.786273e-01 8.712749e-01 8.433742e-01 8.318651e-01 8.033136e-01 7.957633e-01 7.736978e-01 7.682373e-01 7.456112e-01 7.336901e-01 7.104675e-01 6.965892e-01 6.809012e-01 6.658251e-01 6.517529e-01 6.261867e-01 6.103380e-01 5.807703e-01 5.759919e-01 5.562746e-01 5.694960e-01 5.591084e-01 5.756228e-01 5.521259e-01 5.457357e-01 4.994781e-01 4.787928e-01 4.399512e-01 4.349521e-01 4.252103e-01 4.345008e-01 4.390765e-01 4.362660e-01 4.317072e-01 4.000824e-01 3.852057e-01 3.373145e-01 3.335492e-01 2.940095e-01 3.172647e-01 2.908796e-01 3.243296e-01 2.866083e-01 3.005069e-01 2.446733e-01 2.482039e-01 2.048278e-01 2.163972e-01 1.942368e-01 1.992915e-01 1.859797e-01 1.718143e-01 1.677482e-01 1.356562e-01 1.447882e-01 9.701553e-02 1.228079e-01 6.206224e-02 1.228933e-01 4.785155e-02 0 0 0 0 
0 0 0 0 0 -2.022226e+00 -1.570687e+00 -1.312349e+00 -2.412194e+00 -1.691465e+00 -3.122257e+00 -2.200964e+00 -3.566174e+00 -3.517166e+00 5.465212e+00 5.385895e+00 1.460064e+01 1.480082e+01 2.370059e+01 2.423003e+01 3.274714e+01 3.268310e+01 3.212568e+01 3.243206e+01 3.179028e+01 3.200400e+01 3.111869e+01 3.117532e+01 3.026598e+01 3.043727e+01 2.979312e+01 3.010528e+01 2.965584e+01 2.987888e+01 2.938557e+01 2.924178e+01 2.858372e+01 2.816366e+01 2.765433e+01 2.734834e+01 2.724915e+01 2.711747e+01 2.724322e+01 2.699730e+01 2.695460e+01 2.630680e+01 2.595712e+01 2.509967e+01 2.478605e+01 2.415441e+01 2.415093e+01 2.386805e+01 2.401157e+01 2.376507e+01 2.366198e+01 2.323075e+01 2.288338e+01 2.247079e+01 2.204508e+01 2.165768e+01 2.111430e+01 2.078724e+01 2.029228e+01 2.017152e+01 1.972088e+01 1.955594e+01 1.892999e+01 1.867177e+01 1.803115e+01 1.786171e+01 1.736656e+01 1.724399e+01 1.673622e+01 1.646869e+01 1.594752e+01 1.563609e+01 1.528402e+01 1.494575e+01 1.462998e+01 1.405635e+01 1.370074e+01 1.303730e+01 1.293014e+01 1.248770e+01 1.278445e+01 1.255132e+01 1.292187e+01 1.239444e+01 1.225088e+01 1.121246e+01 1.074805e+01 9.875976e+00 9.763600e+00 9.544772e+00 9.753172e+00 9.855873e+00 9.792851e+00 9.690638e+00 8.981079e+00 8.647343e+00 7.572666e+00 7.488357e+00 6.600916e+00 7.122982e+00 6.530509e+00 7.281005e+00 6.433621e+00 6.744845e+00 5.490335e+00 5.568611e+00 4.593582e+00 4.852308e+00 4.353899e+00 4.466838e+00 4.167737e+00 3.850097e+00 3.759544e+00 3.040416e+00 3.246639e+00 2.173193e+00 2.734608e+00 1.356820e+00 2.741237e+00 1.073454e+00 0 0 0 0 
0 0 0 0 0 -2.928081e+00 -2.279579e+00 -1.908572e+00 -3.496381e+00 -2.449686e+00 -4.520348e+00 -3.186516e+00 -5.163044e+00 -3.027901e+00 5.856160e+00 1.345554e+01 1.803951e+01 2.484227e+01 3.138011e+01 3.474022e+01 4.668942e+01 4.730687e+01 4.650009e+01 4.694355e+01 4.601484e+01 4.632429e+01 4.504314e+01 4.512520e+01 4.380921e+01 4.405718e+01 4.312493e+01 4.357674e+01 4.292625e+01 4.324904e+01 4.253504e+01 4.232690e+01 4.137445e+01 4.076648e+01 4.002929e+01 3.958643e+01 3.944287e+01 3.925230e+01 3.943433e+01 3.907842e+01 3.901664e+01 3.807908e+01 3.757298e+01 3.633196e+01 3.587806e+01 3.496384e+01 3.495880e+01 3.454936e+01 3.475708e+01 3.440029e+01 3.425107e+01 3.362689e+01 3.312412e+01 3.252692e+01 3.191076e+01 3.135005e+01 3.056357e+01 3.009018e+01 2.937379e+01 2.919902e+01 2.854675e+01 2.830802e+01 2.740201e+01 2.702825e+01 2.610098e+01 2.585572e+01 2.513900e+01 2.496156e+01 2.422656e+01 2.383931e+01 2.308492e+01 2.263413e+01 2.212451e+01 2.163488e+01 2.117781e+01 2.034752e+01 1.983278e+01 1.887248e+01 1.871738e+01 1.807696e+01 1.850652e+01 1.816905e+01 1.870542e+01 1.794193e+01 1.773409e+01 1.623090e+01 1.555861e+01 1.429618e+01 1.413347e+01 1.381666e+01 1.411830e+01 1.426696e+01 1.417575e+01 1.402782e+01 1.300077e+01 1.251772e+01 1.096214e+01 1.084015e+01 9.555556e+00 1.031129e+01 9.453598e+00 1.053990e+01 9.313092e+00 9.763415e+00 7.947127e+00 8.060187e+00 6.648427e+00 7.022703e+00 6.300977e+00 6.464329e+00 6.031290e+00 5.571569e+00 5.440671e+00 4.400004e+00 4.698839e+00 3.144683e+00 3.952907e+00 1.954861e+00 3.963702e+00 1.553720e+00 0 0 0 0 
0 0 0 0 0 -9.958061e-01 -7.778278e-01 -6.531315e-01 -1.190844e+00 -8.333672e-01 -1.537064e+00 -1.083518e+00 -1.755602e+00 -1.029706e+00 1.990846e+00 4.574338e+00 6.132668e+00 8.445029e+00 1.066745e+01 1.180946e+01 1.587061e+01 1.608047e+01 1.580626e+01 1.595700e+01 1.564142e+01 1.574665e+01 1.531130e+01 1.533924e+01 1.489203e+01 1.497633e+01 1.465950e+01 1.481307e+01 1.459198e+01 1.470168e+01 1.445899e+01 1.438824e+01 1.406451e+01 1.385787e+01 1.360730e+01 1.345678e+01 1.340799e+01 1.334323e+01 1.340511e+01 1.328415e+01 1.326316e+01 1.294451e+01 1.277250e+01 1.235070e+01 1.219643e+01 1.188569e+01 1.188398e+01 1.174481e+01 1.181541e+01 1.169413e+01 1.164340e+01 1.143124e+01 1.126035e+01 1.105736e+01 1.084793e+01 1.065734e+01 1.039002e+01 1.022911e+01 9.985609e+00 9.926207e+00 9.704499e+00 9.623356e+00 9.315390e+00 9.188342e+00 8.873142e+00 8.789770e+00 8.546133e+00 8.485811e+00 8.235958e+00 8.104316e+00 7.847867e+00 7.694630e+00 7.521392e+00 7.354954e+00 7.199583e+00 6.917350e+00 6.742378e+00 6.415951e+00 6.363233e+00 6.145537e+00 6.291566e+00 6.176846e+00 6.359168e+00 6.099614e+00 6.028945e+00 5.517913e+00 5.289353e+00 4.860153e+00 4.804818e+00 4.697098e+00 4.799624e+00 4.850162e+00 4.819162e+00 4.768886e+00 4.419773e+00 4.255580e+00 3.726791e+00 3.685345e+00 3.248649e+00 3.505574e+00 3.213969e+00 3.583222e+00 3.166079e+00 3.319076e+00 2.701465e+00 2.739780e+00 2.259673e+00 2.386791e+00 2.141315e+00 2.196783e+00 2.049532e+00 1.893286e+00 1.848875e+00 1.495245e+00 1.596988e+00 1.068506e+00 1.341107e+00 6.601026e-01 1.345358e+00 5.281177e-01 0 0 0 0 
0 0 0 0 0 0 0 0 0 0 0 0 0 0 0 0 0 0 0 0 0 0 0 0 0 0 0 0 0 0 0 0 0 0 0 0 0 0 0 0 0 0 0 0 0 0 0 0 0 0 0 0 0 0 0 0 0 0 0 0 0 0 0 0 0 0 0 0 0 0 0 0 0 0 0 0 0 0 0 0 0 0 0 0 0 0 0 0 0 0 0 0 0 0 0 0 0 0 0 0 0 0 0 0 0 0 0 0 0 0 0 0 0 0 0 0 0 0 0 0 0 0 0 0 0 0 0 0 
