# vtk DataFile Version 2.0
Comment goes here
ASCII

DATASET STRUCTURED_POINTS
FIELD FieldData 1
TIME 1 1 double
0.78000000
DIMENSIONS    128   16   1

ORIGIN    0.000   0.000   0.000
SPACING   0.0078125 0.015625   1.000

POINT_DATA   2048
SCALARS Omega double
LOOKUP_TABLE default

3.267916e-05 3.183548e-05 3.217483e-05 2.465836e-05 -1.032824e-05 -5.674976e-05 -4.230276e-05 2.192822e-05 -5.083745e-05 -9.974293e-06 -5.148210e-05 -1.183108e-05 -1.032296e-04 1.078482e-05 -3.482781e-05 5.890395e-06 -4.525449e-05 -1.627865e-06 -6.938357e-05 -1.685069e-05 -2.361692e-05 2.084812e-05 4.610094e-06 -3.300038e-06 -1.202793e-05 -2.639291e-05 -5.317634e-06 -4.150657e-05 -1.544668e-06 -5.681662e-05 2.288501e-06 -6.961791e-05 9.545383e-06 -7.525874e-05 2.572324e-05 -6.463449e-05 5.901665e-05 -2.586598e-05 1.175655e-04 4.135414e-05 1.861692e-04 8.923400e-05 1.711680e-04 -3.937783e-05 -1.529919e-04 -6.312564e-04 -1.090814e-03 -1.935930e-03 -2.727141e-03 -3.783414e-03 -4.662756e-03 -5.585740e-03 -4.762787e-03 1.537273e-03 1.203563e-02 -1.210236e-02 -7.861510e-02 -4.216702e-02 -9.871546e-03 -1.151857e-01 -6.510534e-02 7.250172e-02 -2.967857e-02 -1.120352e-01 3.305233e-02 5.817517e-02 -8.469079e-02 -4.123943e-02 8.238192e-02 2.824499e-03 -4.910780e-02 5.044403e-03 -8.547075e-03 -1.945393e-02 5.962002e-03 1.317277e-02 1.051812e-02 7.551926e-03 5.608260e-03 4.161179e-03 3.061737e-03 2.153466e-03 1.544972e-03 1.074607e-03 8.188102e-04 6.194937e-04 5.329808e-04 4.523302e-04 4.133039e-04 3.689247e-04 3.316985e-04 2.959199e-04 2.551041e-04 2.254838e-04 1.860682e-04 1.645998e-04 1.308332e-04 1.179077e-04 9.002561e-05 8.487680e-05 6.150787e-05 6.230256e-05 4.183206e-05 4.581052e-05 2.749212e-05 3.268974e-05 1.645421e-05 2.204415e-05 7.999900e-06 1.297618e-05 1.771328e-06 6.045108e-06 -5.834072e-07 3.548124e-06 2.788713e-06 6.796100e-06 1.173605e-05 1.432500e-05 2.293390e-05 2.062073e-05 2.191358e-05 5.562392e-06 2.975224e-05 4.983870e-05 4.379239e-05 3.228514e-05 3.054881e-05 3.182980e-05 
-3.835129e-03 -6.824534e-03 -1.006691e-02 2.683359e-02 1.161113e-01 -6.768943e-01 -1.165085e+00 -4.909336e-01 -5.761299e-01 -4.723886e-01 -5.375801e-01 -2.866606e-01 6.040382e-01 2.221673e+00 3.004855e+00 2.737706e+00 2.757754e+00 2.852547e+00 2.672328e+00 2.956646e+00 2.404943e+00 4.071096e-01 -3.207699e-01 -5.120775e-01 -4.694119e-01 -5.046528e-01 -4.700191e-01 -5.081823e-01 -4.786543e-01 -5.098275e-01 -4.851776e-01 -5.091154e-01 -4.903238e-01 -5.070581e-01 -4.944913e-01 -5.042178e-01 -4.978575e-01 -5.011123e-01 -5.003621e-01 -4.981341e-01 -5.020242e-01 -4.954833e-01 -5.028988e-01 -4.933476e-01 -5.030768e-01 -4.918081e-01 -5.026682e-01 -4.905787e-01 -5.013745e-01 -4.886602e-01 -4.981108e-01 -4.824153e-01 -4.798581e-01 -4.438609e-01 -5.344513e-01 -1.267046e+00 -2.327811e+00 -2.515507e-01 5.036356e-01 -2.583608e+00 -6.281253e-01 3.076232e+00 3.693083e-02 -2.338162e+00 1.833011e+00 2.421095e+00 -1.603520e+00 -3.267262e-01 2.798227e+00 6.925459e-01 -6.512423e-01 1.558546e+00 1.113864e+00 -4.714653e-01 -5.301820e-01 -4.846423e-01 -4.701184e-01 -4.806707e-01 -4.801315e-01 -4.870885e-01 -4.859388e-01 -4.904836e-01 -4.900437e-01 -4.924528e-01 -4.930618e-01 -4.933006e-01 -4.954083e-01 -4.933031e-01 -4.973848e-01 -4.928331e-01 -4.989561e-01 -4.923555e-01 -4.999951e-01 -4.921379e-01 -5.004701e-01 -4.924366e-01 -5.001947e-01 -4.935212e-01 -4.990660e-01 -4.955022e-01 -4.969783e-01 -4.984622e-01 -4.938846e-01 -5.023543e-01 -4.898256e-01 -5.069968e-01 -4.850123e-01 -5.119915e-01 -4.798360e-01 -5.168283e-01 -4.748342e-01 -5.208224e-01 -4.705574e-01 -5.231676e-01 -4.673791e-01 -5.229715e-01 -4.647277e-01 -5.196177e-01 -4.583643e-01 -5.126432e-01 -4.193979e-01 -7.054325e-01 -1.063381e+00 -2.597461e-01 -4.067580e-02 -2.834970e-02 -1.193822e-02 -4.977085e-03 
-1.492039e-03 -1.830714e-02 -3.519483e-02 2.474365e-01 1.608643e+00 -5.574513e-01 -2.718887e+00 -5.264112e-01 -1.040268e+00 -6.392282e-01 -8.730336e-01 -3.868615e-01 1.990347e-01 -5.134721e-01 -1.302070e+00 -1.217076e+00 -1.070921e+00 -1.222995e+00 -1.087240e+00 -1.343805e+00 -3.673739e-01 -1.348447e-01 -5.035764e-01 -8.251122e-01 -7.360532e-01 -8.246230e-01 -7.148745e-01 -8.150399e-01 -7.107553e-01 -8.107106e-01 -7.113579e-01 -8.048472e-01 -7.136489e-01 -7.955746e-01 -7.173701e-01 -7.853327e-01 -7.254944e-01 -7.766359e-01 -7.350962e-01 -7.656912e-01 -7.411378e-01 -7.518962e-01 -7.449891e-01 -7.389834e-01 -7.479519e-01 -7.277262e-01 -7.493194e-01 -7.176780e-01 -7.475893e-01 -7.054990e-01 -7.370597e-01 -6.820180e-01 -7.029697e-01 -6.454489e-01 -8.278828e-01 -1.408490e+00 -1.934816e+00 1.300804e-01 2.512937e-01 -2.003610e+00 -8.443689e-01 8.281741e-01 -7.971515e-01 -1.731550e+00 4.447551e-01 5.076082e-01 -1.507410e+00 -3.865670e-01 1.011194e+00 -6.645786e-01 -3.290517e-01 2.451774e+00 1.320385e+00 -9.028949e-01 -9.303217e-01 -8.656794e-01 -7.690028e-01 -7.937946e-01 -7.346840e-01 -7.686945e-01 -7.197480e-01 -7.512593e-01 -7.144383e-01 -7.386229e-01 -7.166058e-01 -7.279935e-01 -7.223864e-01 -7.168942e-01 -7.308072e-01 -7.064827e-01 -7.399871e-01 -6.958004e-01 -7.460521e-01 -6.855160e-01 -7.502634e-01 -6.803756e-01 -7.534173e-01 -6.812329e-01 -7.517923e-01 -6.862408e-01 -7.433752e-01 -6.966190e-01 -7.285814e-01 -7.125157e-01 -7.073866e-01 -7.340847e-01 -6.830554e-01 -7.613554e-01 -6.569240e-01 -7.884151e-01 -6.284197e-01 -8.111561e-01 -6.036138e-01 -8.295660e-01 -5.878495e-01 -8.393903e-01 -5.796053e-01 -8.374160e-01 -5.677936e-01 -8.320436e-01 -4.728382e-01 -1.376959e+00 -1.826301e+00 1.055262e+00 4.776642e-01 -1.226539e-01 -5.770674e-02 -6.884011e-03 
6.666402e-03 -3.649259e-02 -9.634520e-02 4.998472e-01 4.194781e+00 3.790837e+00 1.405730e-01 1.736169e+00 1.051950e+00 1.377828e+00 1.010751e+00 8.011919e-01 5.607794e-02 7.263178e-02 4.731160e-01 1.818823e-01 2.949641e-01 1.397041e-01 3.292422e-01 3.435301e-01 8.143152e-02 3.038627e-01 8.341048e-01 1.104111e+00 1.218931e+00 1.248664e+00 1.323347e+00 1.294086e+00 1.383923e+00 1.311548e+00 1.421284e+00 1.319801e+00 1.446425e+00 1.330042e+00 1.462281e+00 1.338501e+00 1.460916e+00 1.341101e+00 1.450061e+00 1.351490e+00 1.444295e+00 1.372418e+00 1.439351e+00 1.393500e+00 1.430902e+00 1.411885e+00 1.420694e+00 1.426418e+00 1.411654e+00 1.441938e+00 1.415336e+00 1.466706e+00 1.431384e+00 1.485459e+00 1.526037e+00 2.066928e+00 2.662687e+00 1.222219e+00 5.852952e-01 2.620341e+00 1.160508e+00 -8.052527e-01 7.041262e-01 1.983636e+00 -5.599990e-01 -8.655901e-01 1.309560e+00 3.710035e-01 -1.337708e+00 -1.093972e-01 3.939231e-01 -1.458739e+00 -7.847102e-01 6.728250e-01 1.022031e+00 1.044608e+00 1.218122e+00 1.189146e+00 1.340680e+00 1.280006e+00 1.408784e+00 1.343280e+00 1.444558e+00 1.387889e+00 1.454853e+00 1.422071e+00 1.452031e+00 1.453363e+00 1.439739e+00 1.480067e+00 1.422579e+00 1.508054e+00 1.410806e+00 1.537183e+00 1.400521e+00 1.555220e+00 1.388090e+00 1.561389e+00 1.383775e+00 1.561634e+00 1.392867e+00 1.552686e+00 1.413929e+00 1.533467e+00 1.447481e+00 1.502151e+00 1.485764e+00 1.455858e+00 1.527967e+00 1.408599e+00 1.580091e+00 1.368274e+00 1.629039e+00 1.330576e+00 1.663128e+00 1.303828e+00 1.684573e+00 1.295041e+00 1.698849e+00 1.288001e+00 1.750841e+00 9.681878e-01 2.336726e+00 5.285539e+00 1.692598e+00 -2.386121e-01 -1.151898e-01 -1.848835e-03 
1.216184e-02 -1.150889e-02 -5.559391e-02 3.153721e-01 2.919730e+00 5.384867e+00 3.792807e+00 2.693866e+00 2.607099e+00 2.457211e+00 2.436936e+00 2.272621e+00 2.573998e+00 2.418706e+00 2.396312e+00 2.418295e+00 2.431501e+00 2.454800e+00 2.399564e+00 2.439321e+00 2.446197e+00 2.457466e+00 2.323398e+00 2.494451e+00 2.448404e+00 2.609175e+00 2.559529e+00 2.656410e+00 2.624823e+00 2.670254e+00 2.667811e+00 2.671330e+00 2.698907e+00 2.670499e+00 2.721397e+00 2.666762e+00 2.730249e+00 2.658739e+00 2.730441e+00 2.656918e+00 2.732016e+00 2.663632e+00 2.732033e+00 2.671999e+00 2.727368e+00 2.679848e+00 2.719259e+00 2.685575e+00 2.709672e+00 2.691299e+00 2.706623e+00 2.703142e+00 2.721500e+00 2.743036e+00 2.778422e+00 2.443696e+00 1.777474e+00 2.128912e+00 2.571169e+00 1.522272e+00 2.078991e+00 3.820852e+00 2.434193e+00 1.354399e+00 2.972036e+00 3.396497e+00 1.564123e+00 1.855668e+00 3.223513e+00 2.520344e+00 1.661428e+00 2.111760e+00 2.534648e+00 2.266189e+00 2.336283e+00 2.404237e+00 2.516225e+00 2.515700e+00 2.609949e+00 2.581889e+00 2.665714e+00 2.629063e+00 2.698235e+00 2.661982e+00 2.711999e+00 2.686309e+00 2.715816e+00 2.707223e+00 2.712354e+00 2.724228e+00 2.704225e+00 2.742704e+00 2.697928e+00 2.763306e+00 2.690724e+00 2.778277e+00 2.679598e+00 2.787723e+00 2.671437e+00 2.795797e+00 2.669763e+00 2.800212e+00 2.673654e+00 2.799757e+00 2.683820e+00 2.792422e+00 2.695868e+00 2.774879e+00 2.710724e+00 2.755276e+00 2.734510e+00 2.737349e+00 2.760465e+00 2.716729e+00 2.782984e+00 2.698980e+00 2.805439e+00 2.694005e+00 2.831605e+00 2.717813e+00 2.863354e+00 3.265175e+00 5.561268e+00 4.707564e+00 8.970915e-01 -3.344566e-01 -1.059209e-01 -2.746454e-03 
6.312202e-03 6.331088e-03 -2.270276e-02 -8.935669e-02 1.521378e-01 1.912793e+00 2.270872e+00 9.029587e-01 1.113983e+00 9.411743e-01 1.104797e+00 1.274473e+00 1.971797e+00 1.632260e+00 1.346956e+00 1.346856e+00 1.352021e+00 1.347204e+00 1.351351e+00 1.349623e+00 1.720459e+00 1.793590e+00 1.124591e+00 1.037175e+00 9.902311e-01 1.087890e+00 1.039779e+00 1.106889e+00 1.058585e+00 1.109184e+00 1.069835e+00 1.106176e+00 1.078079e+00 1.101405e+00 1.084846e+00 1.096006e+00 1.090296e+00 1.090700e+00 1.094502e+00 1.086503e+00 1.097946e+00 1.083768e+00 1.100589e+00 1.082400e+00 1.102349e+00 1.082320e+00 1.103519e+00 1.083324e+00 1.104557e+00 1.085193e+00 1.106123e+00 1.089229e+00 1.112155e+00 1.055762e+00 8.060161e-01 5.897427e-02 1.274451e-01 2.614495e+00 2.269214e+00 9.244979e-02 1.553967e+00 2.124711e+00 1.118433e+00 1.042937e+00 2.380570e+00 2.067515e+00 1.047202e+00 2.324135e+00 2.813172e+00 1.325743e+00 2.467454e+00 5.566072e+00 3.809129e+00 1.020231e+00 9.357423e-01 1.060986e+00 1.082712e+00 1.090356e+00 1.084730e+00 1.085526e+00 1.083910e+00 1.082613e+00 1.084238e+00 1.080875e+00 1.085187e+00 1.079825e+00 1.086525e+00 1.079017e+00 1.087874e+00 1.078361e+00 1.088693e+00 1.078540e+00 1.088755e+00 1.079806e+00 1.087820e+00 1.082077e+00 1.085455e+00 1.085625e+00 1.081874e+00 1.090584e+00 1.077186e+00 1.096781e+00 1.071429e+00 1.103878e+00 1.064864e+00 1.111342e+00 1.057826e+00 1.118293e+00 1.051180e+00 1.124315e+00 1.046317e+00 1.128814e+00 1.044401e+00 1.131377e+00 1.047373e+00 1.133661e+00 1.058954e+00 1.142682e+00 1.085381e+00 1.177248e+00 1.115609e+00 1.618594e+00 2.421493e+00 7.970558e-01 -1.165259e-01 -1.158628e-01 -2.281460e-02 1.700745e-03 
-3.684608e-04 5.509842e-03 7.624889e-03 -9.424370e-03 -4.198189e-02 4.616701e-02 1.531503e-01 5.234064e-02 5.139430e-02 6.004586e-02 1.273847e-01 5.638657e-01 1.855913e+00 1.554772e+00 8.936245e-01 8.928256e-01 8.930351e-01 8.928385e-01 8.930118e-01 8.946151e-01 1.715776e+00 1.821303e+00 2.271802e-01 -4.078587e-02 -4.429506e-03 3.598471e-02 4.699997e-02 5.603165e-02 5.599250e-02 5.954590e-02 5.800756e-02 5.942745e-02 5.818566e-02 5.858108e-02 5.813991e-02 5.789921e-02 5.827862e-02 5.758188e-02 5.864183e-02 5.764272e-02 5.918836e-02 5.801300e-02 5.981326e-02 5.853233e-02 6.031173e-02 5.894172e-02 6.043869e-02 5.898353e-02 5.999298e-02 5.832958e-02 5.854293e-02 5.686082e-02 5.526406e-02 2.951469e-02 -7.838129e-02 -1.026961e-01 5.268799e-01 1.132937e+00 5.757668e-01 7.484929e-01 7.115138e-01 -4.171560e-01 3.289606e-01 1.086130e+00 2.935461e-02 -3.131496e-01 8.019642e-01 7.848314e-01 -1.281772e-01 1.642130e-02 7.861072e-01 1.032409e+00 3.729259e-01 -7.046855e-02 3.410109e-03 5.950170e-02 7.229683e-02 7.403871e-02 7.213556e-02 7.037286e-02 6.786147e-02 6.579559e-02 6.390482e-02 6.216441e-02 6.110130e-02 5.965020e-02 5.930845e-02 5.798297e-02 5.823546e-02 5.691142e-02 5.761814e-02 5.626129e-02 5.725864e-02 5.590438e-02 5.702705e-02 5.576792e-02 5.682384e-02 5.581838e-02 5.658814e-02 5.603467e-02 5.627712e-02 5.641024e-02 5.586681e-02 5.693681e-02 5.535352e-02 5.760209e-02 5.476773e-02 5.839239e-02 5.419773e-02 5.934172e-02 5.385503e-02 6.062829e-02 5.421816e-02 6.280434e-02 5.631736e-02 6.719558e-02 6.209062e-02 7.629292e-02 7.358136e-02 9.019594e-02 8.284477e-02 1.354848e-01 1.693446e-01 -3.925366e-03 -4.916643e-02 -2.043535e-02 -7.778771e-03 -3.721742e-03 
-2.357090e-03 -6.074856e-04 1.454495e-03 1.545937e-03 -3.286799e-03 -8.580117e-03 -9.100750e-04 1.393317e-03 7.591496e-03 1.733619e-02 4.852984e-02 2.694110e-01 9.178598e-01 7.711424e-01 4.466266e-01 4.462569e-01 4.462564e-01 4.462563e-01 4.462583e-01 4.471594e-01 8.691116e-01 9.194927e-01 5.715966e-02 -7.880669e-02 -4.895795e-02 -2.618964e-02 -1.572745e-02 -1.088647e-02 -8.007192e-03 -6.540463e-03 -5.689845e-03 -5.428017e-03 -5.216873e-03 -5.288601e-03 -5.188950e-03 -5.288272e-03 -5.146402e-03 -5.184954e-03 -4.979329e-03 -4.954439e-03 -4.729767e-03 -4.707807e-03 -4.585673e-03 -4.726190e-03 -4.924028e-03 -5.476749e-03 -6.271109e-03 -7.506979e-03 -9.167620e-03 -1.139142e-02 -1.434698e-02 -1.801733e-02 -2.247372e-02 -2.980118e-02 -5.307120e-02 -1.057978e-01 -1.445359e-01 -1.118513e-01 -7.955105e-02 -8.175021e-02 -8.617265e-02 -1.032946e-01 -9.163037e-02 -7.617595e-02 -9.905570e-02 -1.089080e-01 -8.985030e-02 -9.296488e-02 -1.204809e-01 -1.305985e-01 -9.637119e-02 -8.195270e-02 -9.429357e-02 -6.838889e-02 -3.397815e-02 -1.624808e-02 -8.086609e-03 -3.724738e-03 -1.430853e-03 -4.510095e-04 -3.136212e-04 -6.250111e-04 -1.165640e-03 -1.807785e-03 -2.446294e-03 -3.077110e-03 -3.612587e-03 -4.119947e-03 -4.497085e-03 -4.866102e-03 -5.094701e-03 -5.352736e-03 -5.466310e-03 -5.650904e-03 -5.683750e-03 -5.825686e-03 -5.804496e-03 -5.922897e-03 -5.867122e-03 -5.970391e-03 -5.895824e-03 -5.983799e-03 -5.905370e-03 -5.970699e-03 -5.903073e-03 -5.930941e-03 -5.885477e-03 -5.849266e-03 -5.823943e-03 -5.671942e-03 -5.628100e-03 -5.254681e-03 -5.076240e-03 -4.278435e-03 -3.732338e-03 -2.200092e-03 -1.001412e-03 1.476703e-03 3.136404e-03 5.452380e-03 4.702493e-03 4.784969e-03 2.360978e-03 -6.034411e-03 -5.330189e-03 -3.338349e-03 -3.574377e-03 -3.256520e-03 
-2.837095e-05 -2.376236e-05 -1.891144e-05 -1.522734e-05 -1.125922e-05 -7.416011e-06 -4.555232e-06 -1.916017e-06 -4.837520e-07 1.032234e-06 6.156021e-06 9.056616e-06 -6.707619e-05 5.263465e-05 3.789078e-08 -3.042981e-10 -3.368573e-10 -5.123465e-10 -3.133553e-09 -1.124863e-06 -5.756369e-04 -6.152165e-04 1.148907e-04 4.797813e-05 1.281476e-05 2.582621e-05 4.433898e-05 6.445239e-05 8.458844e-05 1.083423e-04 1.358693e-04 1.706422e-04 2.135499e-04 2.685392e-04 3.364937e-04 4.213779e-04 5.228368e-04 6.424695e-04 7.752049e-04 9.138442e-04 1.041245e-03 1.130509e-03 1.143059e-03 1.022773e-03 7.076161e-04 1.175565e-04 -8.160997e-04 -2.170774e-03 -3.997542e-03 -6.356130e-03 -9.302802e-03 -1.288762e-02 -1.708499e-02 -2.177138e-02 -2.764555e-02 -3.646719e-02 -4.632580e-02 -4.898032e-02 -4.525104e-02 -4.366704e-02 -4.166090e-02 -3.921255e-02 -4.070042e-02 -4.323324e-02 -4.425459e-02 -4.633212e-02 -5.086725e-02 -5.377200e-02 -5.505619e-02 -5.629306e-02 -5.491173e-02 -5.007473e-02 -4.056457e-02 -2.794309e-02 -1.745394e-02 -1.004702e-02 -4.764184e-03 -1.096948e-03 1.269114e-03 2.653918e-03 3.341007e-03 3.564879e-03 3.482644e-03 3.219487e-03 2.855101e-03 2.454239e-03 2.054702e-03 1.684702e-03 1.356717e-03 1.077077e-03 8.449218e-04 6.561977e-04 5.056407e-04 3.863525e-04 2.934819e-04 2.207163e-04 1.650518e-04 1.215945e-04 8.893903e-05 6.347253e-05 4.475731e-05 3.017389e-05 1.977118e-05 1.169067e-05 6.178445e-06 1.960114e-06 -7.019525e-07 -2.660652e-06 -3.778352e-06 -4.643279e-06 -5.348562e-06 -6.343084e-06 -7.942858e-06 -1.045402e-05 -1.421189e-05 -1.917547e-05 -2.531628e-05 -3.205333e-05 -3.877296e-05 -4.458614e-05 -4.871453e-05 -5.061476e-05 -5.108987e-05 -4.901586e-05 -4.631032e-05 -4.251749e-05 -3.820627e-05 -3.351542e-05 
2.306336e-03 5.625156e-04 -1.492652e-03 -1.579423e-03 3.263739e-03 8.571432e-03 9.016806e-04 -1.403170e-03 -7.589399e-03 -1.733973e-02 -4.853684e-02 -2.694848e-01 -9.182354e-01 -7.707763e-01 -4.466262e-01 -4.462569e-01 -4.462564e-01 -4.462563e-01 -4.462583e-01 -4.471611e-01 -8.699787e-01 -9.207992e-01 -5.677927e-02 7.893465e-02 4.897660e-02 2.622608e-02 1.579598e-02 1.099347e-02 8.147068e-03 6.729214e-03 5.925078e-03 5.738379e-03 5.604027e-03 5.796944e-03 5.825822e-03 6.115179e-03 6.175922e-03 6.490486e-03 6.568506e-03 6.889286e-03 6.977477e-03 7.262252e-03 7.300326e-03 7.434934e-03 7.271770e-03 7.052025e-03 6.455137e-03 5.633184e-03 4.371399e-03 2.764965e-03 7.198229e-04 -1.699349e-03 -4.461582e-03 -7.439073e-03 -1.042831e-02 -1.332782e-02 -1.583812e-02 -1.725430e-02 -1.708688e-02 -1.652418e-02 -1.565422e-02 -1.465997e-02 -1.416056e-02 -1.409819e-02 -1.394008e-02 -1.401462e-02 -1.442241e-02 -1.467702e-02 -1.420976e-02 -1.341988e-02 -1.182633e-02 -9.055956e-03 -5.214906e-03 -1.246006e-03 2.344358e-03 5.198029e-03 7.357769e-03 8.811761e-03 9.665160e-03 1.006643e-02 1.010301e-02 9.941806e-03 9.596581e-03 9.218212e-03 8.761471e-03 8.364229e-03 7.937654e-03 7.615121e-03 7.272501e-03 7.050995e-03 6.794037e-03 6.664824e-03 6.472746e-03 6.415382e-03 6.264251e-03 6.258582e-03 6.130147e-03 6.159384e-03 6.043218e-03 6.092792e-03 5.985938e-03 6.041571e-03 5.947435e-03 5.993303e-03 5.919526e-03 5.935727e-03 5.889385e-03 5.846202e-03 5.822486e-03 5.666158e-03 5.624112e-03 5.246993e-03 5.068038e-03 4.264904e-03 3.713621e-03 2.172861e-03 9.637939e-04 -1.524833e-03 -3.196859e-03 -5.520200e-03 -4.777201e-03 -4.857466e-03 -2.441679e-03 5.959044e-03 5.259516e-03 3.271729e-03 3.511788e-03 3.199028e-03 
3.345393e-04 -5.547502e-03 -7.663149e-03 9.394739e-03 4.201718e-02 -4.611991e-02 -1.530922e-01 -5.245009e-02 -5.128757e-02 -6.007955e-02 -1.272930e-01 -5.639291e-01 -1.856177e+00 -1.554587e+00 -8.936211e-01 -8.928245e-01 -8.930361e-01 -8.928414e-01 -8.930173e-01 -8.946233e-01 -1.716727e+00 -1.822395e+00 -2.270644e-01 4.089092e-02 4.359338e-03 -3.591104e-02 -4.705459e-02 -5.587038e-02 -5.599853e-02 -5.926830e-02 -5.792782e-02 -5.898446e-02 -5.795211e-02 -5.789042e-02 -5.762831e-02 -5.682922e-02 -5.728979e-02 -5.591825e-02 -5.690616e-02 -5.509023e-02 -5.639204e-02 -5.428005e-02 -5.572724e-02 -5.351446e-02 -5.502734e-02 -5.296650e-02 -5.456747e-02 -5.293616e-02 -5.470781e-02 -5.372153e-02 -5.572254e-02 -5.544160e-02 -5.764227e-02 -5.790954e-02 -6.012771e-02 -6.063130e-02 -6.262935e-02 -6.152155e-02 -6.037773e-02 -6.059498e-02 -5.795573e-02 -5.444807e-02 -5.412468e-02 -5.367948e-02 -4.992852e-02 -4.888504e-02 -4.929770e-02 -4.807700e-02 -4.513727e-02 -4.641959e-02 -4.578833e-02 -4.482747e-02 -4.464914e-02 -4.535664e-02 -4.484010e-02 -4.572355e-02 -4.595320e-02 -4.709759e-02 -4.788254e-02 -4.896960e-02 -5.004426e-02 -5.081740e-02 -5.199987e-02 -5.233526e-02 -5.356174e-02 -5.344458e-02 -5.471918e-02 -5.419484e-02 -5.553441e-02 -5.467944e-02 -5.608033e-02 -5.499227e-02 -5.641688e-02 -5.521445e-02 -5.658188e-02 -5.541281e-02 -5.659439e-02 -5.564196e-02 -5.646287e-02 -5.594653e-02 -5.619097e-02 -5.635853e-02 -5.578585e-02 -5.689539e-02 -5.526650e-02 -5.756025e-02 -5.467688e-02 -5.835348e-02 -5.411221e-02 -5.931325e-02 -5.378555e-02 -6.061862e-02 -5.417492e-02 -6.281724e-02 -5.630393e-02 -6.723224e-02 -6.210701e-02 -7.634837e-02 -7.362235e-02 -9.025983e-02 -8.287701e-02 -1.355238e-01 -1.693773e-01 3.921237e-03 4.916203e-02 2.042479e-02 7.754439e-03 3.690398e-03 
-6.331298e-03 -6.363211e-03 2.267684e-02 8.944435e-02 -1.516768e-01 -1.913235e+00 -2.269852e+00 -9.035101e-01 -1.112602e+00 -9.412486e-01 -1.103549e+00 -1.274864e+00 -1.972021e+00 -1.631449e+00 -1.346885e+00 -1.346832e+00 -1.352040e+00 -1.347269e+00 -1.351484e+00 -1.349792e+00 -1.721144e+00 -1.795704e+00 -1.125926e+00 -1.036744e+00 -9.918903e-01 -1.087336e+00 -1.041559e+00 -1.105843e+00 -1.060237e+00 -1.107461e+00 -1.071308e+00 -1.103865e+00 -1.079367e+00 -1.098591e+00 -1.085797e+00 -1.093230e+00 -1.091151e+00 -1.088522e+00 -1.095383e+00 -1.084581e+00 -1.098356e+00 -1.081618e+00 -1.100240e+00 -1.079676e+00 -1.100953e+00 -1.078466e+00 -1.100633e+00 -1.078146e+00 -1.100112e+00 -1.079181e+00 -1.100333e+00 -1.081916e+00 -1.102320e+00 -1.086897e+00 -1.107298e+00 -1.095226e+00 -1.114890e+00 -1.087348e+00 -1.079425e+00 -1.086900e+00 -1.065319e+00 -1.029600e+00 -1.041718e+00 -1.049052e+00 -1.012376e+00 -1.007725e+00 -1.026307e+00 -1.015663e+00 -9.894480e-01 -1.009683e+00 -1.015605e+00 -1.007942e+00 -1.021045e+00 -1.044138e+00 -1.050189e+00 -1.065467e+00 -1.068631e+00 -1.077739e+00 -1.080271e+00 -1.083780e+00 -1.087191e+00 -1.085759e+00 -1.091083e+00 -1.085526e+00 -1.093341e+00 -1.084376e+00 -1.094622e+00 -1.083100e+00 -1.095270e+00 -1.082358e+00 -1.095256e+00 -1.082281e+00 -1.094193e+00 -1.082946e+00 -1.092016e+00 -1.084755e+00 -1.088768e+00 -1.087802e+00 -1.084197e+00 -1.091932e+00 -1.078298e+00 -1.097224e+00 -1.071448e+00 -1.103531e+00 -1.063983e+00 -1.110428e+00 -1.056624e+00 -1.117475e+00 -1.050184e+00 -1.123734e+00 -1.045406e+00 -1.128396e+00 -1.043775e+00 -1.131493e+00 -1.047369e+00 -1.134434e+00 -1.059405e+00 -1.143790e+00 -1.086014e+00 -1.178477e+00 -1.116057e+00 -1.619791e+00 -2.421159e+00 -7.967600e-01 1.165468e-01 1.159735e-01 2.284273e-02 -1.708276e-03 
-1.218842e-02 1.147810e-02 5.558387e-02 -3.151462e-01 -2.918694e+00 -5.385638e+00 -3.791670e+00 -2.695038e+00 -2.606098e+00 -2.457646e+00 -2.434715e+00 -2.271974e+00 -2.572847e+00 -2.418909e+00 -2.395697e+00 -2.418471e+00 -2.431386e+00 -2.454941e+00 -2.400459e+00 -2.439696e+00 -2.449304e+00 -2.458862e+00 -2.324570e+00 -2.490588e+00 -2.448399e+00 -2.607481e+00 -2.563243e+00 -2.657031e+00 -2.628982e+00 -2.670067e+00 -2.671610e+00 -2.670796e+00 -2.701144e+00 -2.666469e+00 -2.719762e+00 -2.662760e+00 -2.733089e+00 -2.663605e+00 -2.740604e+00 -2.665708e+00 -2.742012e+00 -2.672085e+00 -2.743400e+00 -2.683916e+00 -2.742075e+00 -2.693918e+00 -2.734981e+00 -2.702592e+00 -2.728496e+00 -2.714568e+00 -2.726105e+00 -2.729030e+00 -2.728658e+00 -2.747285e+00 -2.740534e+00 -2.772040e+00 -2.763227e+00 -2.781726e+00 -2.747379e+00 -2.804916e+00 -2.766478e+00 -2.773489e+00 -2.772064e+00 -2.819467e+00 -2.771139e+00 -2.790791e+00 -2.807664e+00 -2.810719e+00 -2.783657e+00 -2.798418e+00 -2.814502e+00 -2.783133e+00 -2.811707e+00 -2.794434e+00 -2.826446e+00 -2.785034e+00 -2.824508e+00 -2.770897e+00 -2.819055e+00 -2.758769e+00 -2.809260e+00 -2.746439e+00 -2.794758e+00 -2.738471e+00 -2.780614e+00 -2.737164e+00 -2.765748e+00 -2.741070e+00 -2.751576e+00 -2.751799e+00 -2.738198e+00 -2.763906e+00 -2.720707e+00 -2.773522e+00 -2.703076e+00 -2.785223e+00 -2.691327e+00 -2.797287e+00 -2.682315e+00 -2.803155e+00 -2.675630e+00 -2.803960e+00 -2.675507e+00 -2.799629e+00 -2.680703e+00 -2.788978e+00 -2.693472e+00 -2.776021e+00 -2.713485e+00 -2.757398e+00 -2.733391e+00 -2.733272e+00 -2.755619e+00 -2.713264e+00 -2.782067e+00 -2.699959e+00 -2.807303e+00 -2.696569e+00 -2.834210e+00 -2.721568e+00 -2.865419e+00 -3.268119e+00 -5.557712e+00 -4.708484e+00 -8.989300e-01 3.349137e-01 1.060708e-01 2.741679e-03 
-6.708303e-03 3.646582e-02 9.629381e-02 -4.998875e-01 -4.194318e+00 -3.790610e+00 -1.415639e-01 -1.736685e+00 -1.053852e+00 -1.378406e+00 -1.010693e+00 -8.000139e-01 -5.489756e-02 -7.390053e-02 -4.735337e-01 -1.817733e-01 -2.945631e-01 -1.396848e-01 -3.307477e-01 -3.451070e-01 -8.517015e-02 -3.027848e-01 -8.313867e-01 -1.098769e+00 -1.214355e+00 -1.247285e+00 -1.324259e+00 -1.297493e+00 -1.385758e+00 -1.315275e+00 -1.422811e+00 -1.324172e+00 -1.445553e+00 -1.329632e+00 -1.455462e+00 -1.336948e+00 -1.460022e+00 -1.350058e+00 -1.458325e+00 -1.363083e+00 -1.450071e+00 -1.379825e+00 -1.444168e+00 -1.401757e+00 -1.436582e+00 -1.418212e+00 -1.422328e+00 -1.429751e+00 -1.409483e+00 -1.442689e+00 -1.401274e+00 -1.455055e+00 -1.396413e+00 -1.467363e+00 -1.398134e+00 -1.480205e+00 -1.408153e+00 -1.509126e+00 -1.473367e+00 -1.543658e+00 -1.532929e+00 -1.641959e+00 -1.608558e+00 -1.661716e+00 -1.679455e+00 -1.728917e+00 -1.705142e+00 -1.736759e+00 -1.765129e+00 -1.741005e+00 -1.749468e+00 -1.723420e+00 -1.737242e+00 -1.649536e+00 -1.685499e+00 -1.580340e+00 -1.637942e+00 -1.529810e+00 -1.604221e+00 -1.499650e+00 -1.576114e+00 -1.479566e+00 -1.547657e+00 -1.471316e+00 -1.522780e+00 -1.475083e+00 -1.498138e+00 -1.486755e+00 -1.475278e+00 -1.507340e+00 -1.454652e+00 -1.528121e+00 -1.429821e+00 -1.542924e+00 -1.407386e+00 -1.557854e+00 -1.396836e+00 -1.569925e+00 -1.394111e+00 -1.569230e+00 -1.398778e+00 -1.557258e+00 -1.416598e+00 -1.534194e+00 -1.444827e+00 -1.499267e+00 -1.485132e+00 -1.459925e+00 -1.534851e+00 -1.413538e+00 -1.580640e+00 -1.363035e+00 -1.622996e+00 -1.324854e+00 -1.661584e+00 -1.303271e+00 -1.686181e+00 -1.296052e+00 -1.701204e+00 -1.290574e+00 -1.752827e+00 -9.693100e-01 -2.332087e+00 -5.287710e+00 -1.695429e+00 2.391076e-01 1.153346e-01 1.816030e-03 
1.488112e-03 1.832217e-02 3.521321e-02 -2.475492e-01 -1.608964e+00 5.581108e-01 2.717086e+00 5.268351e-01 1.037932e+00 6.390869e-01 8.714409e-01 3.869293e-01 -2.014326e-01 5.149115e-01 1.300854e+00 1.217717e+00 1.070426e+00 1.223813e+00 1.087123e+00 1.342963e+00 3.692739e-01 1.331338e-01 5.068547e-01 8.269893e-01 7.399804e-01 8.245829e-01 7.168705e-01 8.126656e-01 7.123370e-01 8.075123e-01 7.130151e-01 8.009258e-01 7.163189e-01 7.932633e-01 7.224402e-01 7.842415e-01 7.291769e-01 7.735580e-01 7.369444e-01 7.639172e-01 7.458252e-01 7.544626e-01 7.527931e-01 7.449114e-01 7.592988e-01 7.389651e-01 7.672935e-01 7.364717e-01 7.745836e-01 7.354222e-01 7.810080e-01 7.368951e-01 7.883780e-01 7.414656e-01 7.974410e-01 7.513149e-01 8.090609e-01 7.375359e-01 7.436875e-01 7.274785e-01 7.105831e-01 6.211950e-01 6.490408e-01 6.397831e-01 5.894634e-01 5.595563e-01 5.930226e-01 5.688281e-01 5.229625e-01 5.531094e-01 5.576442e-01 5.558387e-01 5.630845e-01 6.239973e-01 6.148716e-01 6.732238e-01 6.508667e-01 7.035723e-01 6.731296e-01 7.186618e-01 6.880279e-01 7.255777e-01 7.003972e-01 7.260783e-01 7.105489e-01 7.214846e-01 7.203871e-01 7.140196e-01 7.295424e-01 7.039019e-01 7.376449e-01 6.944774e-01 7.464857e-01 6.881546e-01 7.533292e-01 6.831977e-01 7.544708e-01 6.809646e-01 7.509146e-01 6.851443e-01 7.426030e-01 6.954408e-01 7.276443e-01 7.117575e-01 7.073342e-01 7.339592e-01 6.818418e-01 7.587236e-01 6.531513e-01 7.857667e-01 6.271623e-01 8.125649e-01 6.051980e-01 8.318330e-01 5.885084e-01 8.405452e-01 5.796250e-01 8.384075e-01 5.677141e-01 8.325898e-01 4.726158e-01 1.378017e+00 1.827452e+00 -1.056275e+00 -4.784489e-01 1.228849e-01 5.774067e-02 6.862903e-03 
3.879768e-03 6.876709e-03 1.012467e-02 -2.683468e-02 -1.163192e-01 6.770039e-01 1.164449e+00 4.912377e-01 5.754030e-01 4.724201e-01 5.368902e-01 2.865106e-01 -6.054152e-01 -2.221137e+00 -3.004942e+00 -2.737478e+00 -2.757922e+00 -2.852028e+00 -2.672441e+00 -2.956404e+00 -2.403753e+00 -4.078568e-01 3.217499e-01 5.121028e-01 4.703246e-01 5.044107e-01 4.709166e-01 5.076408e-01 4.795222e-01 5.089839e-01 4.860471e-01 5.080567e-01 4.912910e-01 5.059860e-01 4.956398e-01 5.034854e-01 4.993113e-01 5.010599e-01 5.024139e-01 4.990517e-01 5.049778e-01 4.976470e-01 5.069871e-01 4.968595e-01 5.083619e-01 4.965352e-01 5.090082e-01 4.964687e-01 5.090140e-01 4.966742e-01 5.088979e-01 4.975150e-01 5.094739e-01 5.000075e-01 5.139084e-01 5.074032e-01 5.169138e-01 4.981737e-01 4.971405e-01 5.013422e-01 4.903499e-01 4.724554e-01 4.831191e-01 4.885652e-01 4.711162e-01 4.679625e-01 4.810854e-01 4.754776e-01 4.615080e-01 4.728202e-01 4.766199e-01 4.712841e-01 4.757027e-01 4.910949e-01 4.928149e-01 5.006198e-01 4.975289e-01 5.027308e-01 4.995217e-01 5.028156e-01 5.002351e-01 5.017437e-01 5.005620e-01 5.003032e-01 5.009848e-01 4.988004e-01 5.015723e-01 4.973363e-01 5.022182e-01 4.960080e-01 5.027622e-01 4.949314e-01 5.030267e-01 4.942422e-01 5.028142e-01 4.941084e-01 5.019292e-01 4.947052e-01 5.002071e-01 4.961974e-01 4.975434e-01 4.987022e-01 4.939370e-01 5.022285e-01 4.894993e-01 5.066212e-01 4.844880e-01 5.115447e-01 4.792964e-01 5.164725e-01 4.744207e-01 5.206828e-01 4.703730e-01 5.232926e-01 4.674323e-01 5.233478e-01 4.649568e-01 5.201459e-01 4.586779e-01 5.132346e-01 4.196139e-01 7.059667e-01 1.063206e+00 2.596959e-01 4.081384e-02 2.842181e-02 1.196928e-02 5.010902e-03 
