# vtk DataFile Version 2.0
Comment goes here
ASCII

DATASET STRUCTURED_POINTS
FIELD FieldData 1
TIME 1 1 double
0.81000000
DIMENSIONS    128   16   1

ORIGIN    0.000   0.000   0.000
SPACING   0.0078125 0.015625   1.000

POINT_DATA   2048
SCALARS Omega double
LOOKUP_TABLE default

2.986631e-05 2.934076e-05 2.584855e-05 1.353783e-05 1.091632e-05 5.302913e-05 -4.840369e-05 -5.436317e-05 -1.979051e-05 -3.140135e-05 -3.408534e-05 -5.757445e-05 -5.350002e-05 -1.865419e-06 1.099410e-05 -1.564250e-05 2.230390e-05 -3.881953e-05 2.178380e-05 -2.668048e-05 -2.019863e-05 -7.843787e-05 7.035598e-06 -1.217859e-05 2.055466e-05 -1.729351e-05 2.105006e-05 -1.200722e-05 2.603463e-05 -9.877704e-07 3.574582e-05 1.964896e-05 5.608011e-05 5.746819e-05 9.600574e-05 1.245160e-04 1.687707e-04 2.363880e-04 2.861613e-04 3.994506e-04 4.375404e-04 5.763916e-04 5.437915e-04 6.394918e-04 4.224641e-04 3.697147e-04 -1.362551e-04 -3.752839e-04 -1.102898e-03 -1.317505e-03 -1.784912e-03 -8.834183e-04 5.222226e-04 -5.473180e-04 -2.217732e-02 -6.414391e-02 -6.910771e-02 2.809101e-02 2.928575e-02 -6.409995e-02 3.340746e-02 1.523460e-01 7.280788e-02 6.943783e-03 1.268360e-01 1.490102e-01 5.048077e-02 7.366545e-02 1.526022e-01 1.171990e-01 6.379054e-02 1.306159e-01 1.291031e-01 4.469363e-02 1.031305e-02 8.543517e-03 9.424634e-03 8.170013e-03 6.546834e-03 5.108392e-03 3.993094e-03 3.070573e-03 2.385561e-03 1.850041e-03 1.487761e-03 1.205758e-03 1.027668e-03 8.663962e-04 7.699123e-04 6.514667e-04 5.889480e-04 4.852196e-04 4.437386e-04 3.490658e-04 3.272420e-04 2.421422e-04 2.378348e-04 1.633996e-04 1.716307e-04 1.090701e-04 1.232893e-04 7.273501e-05 8.784794e-05 4.811630e-05 6.123905e-05 3.138636e-05 4.077240e-05 1.963461e-05 2.466162e-05 1.123878e-05 1.266826e-05 6.847180e-06 5.613640e-06 7.191542e-06 3.957189e-06 1.229790e-05 7.455840e-06 2.134091e-05 1.349543e-05 2.810712e-05 1.153205e-05 3.547861e-05 1.254130e-05 1.279811e-05 2.805508e-05 3.212319e-05 2.981019e-05 2.914764e-05 
-4.990136e-03 -3.716511e-03 6.462681e-03 7.099192e-03 -1.805976e-01 -4.460432e-01 7.896565e-01 5.127741e-01 1.258298e-01 2.653644e-01 2.123504e-01 3.825627e-01 -3.953351e-01 -1.699560e+00 -2.224983e+00 -1.760326e+00 -2.142610e+00 -1.957294e+00 -1.948202e+00 -2.252862e+00 -1.688978e+00 -1.766977e-01 3.168819e-01 2.551305e-01 2.214204e-01 2.201288e-01 2.291571e-01 2.249582e-01 2.367570e-01 2.248448e-01 2.410407e-01 2.235941e-01 2.436984e-01 2.225234e-01 2.452152e-01 2.221870e-01 2.457689e-01 2.228636e-01 2.454706e-01 2.245446e-01 2.444513e-01 2.271649e-01 2.427497e-01 2.305079e-01 2.406173e-01 2.340352e-01 2.385401e-01 2.374729e-01 2.371336e-01 2.414643e-01 2.382192e-01 2.494056e-01 2.402423e-01 2.146010e-01 8.418532e-02 4.565993e-01 1.474661e+00 1.429222e+00 6.716287e-01 1.272876e+00 9.407439e-01 -3.202920e-01 7.743647e-01 1.439123e+00 1.393184e-01 -4.329102e-02 1.356486e+00 7.735652e-01 -3.882524e-01 6.066868e-01 5.597036e-01 2.793393e-01 8.028093e-01 6.505297e-01 2.998137e-01 2.240300e-01 2.285564e-01 2.302223e-01 2.340099e-01 2.313916e-01 2.344060e-01 2.313012e-01 2.341942e-01 2.309464e-01 2.339982e-01 2.305462e-01 2.339331e-01 2.301027e-01 2.341717e-01 2.294050e-01 2.347386e-01 2.284290e-01 2.356251e-01 2.271299e-01 2.368361e-01 2.255507e-01 2.382117e-01 2.239060e-01 2.395190e-01 2.224956e-01 2.403931e-01 2.217289e-01 2.405056e-01 2.219619e-01 2.395691e-01 2.235873e-01 2.372585e-01 2.269565e-01 2.333909e-01 2.322968e-01 2.280090e-01 2.398203e-01 2.214186e-01 2.497582e-01 2.144945e-01 2.628127e-01 2.086572e-01 2.815198e-01 2.054067e-01 3.159119e-01 1.923355e-01 6.222298e-01 5.634674e-01 -1.912692e-01 -5.024579e-02 -2.123634e-02 -1.508882e-02 -7.917402e-03 
-7.016117e-03 6.188714e-03 8.292650e-02 1.759416e-01 -1.055736e+00 -2.252233e+00 2.179070e+00 1.190472e+00 2.763159e-01 5.634700e-01 4.202242e-01 5.472316e-01 -1.122951e+00 2.638673e-01 4.530076e-01 6.905838e-01 3.287403e-01 7.364440e-01 3.373422e-01 7.893391e-01 -8.378162e-02 -7.039626e-01 3.389448e-01 5.139071e-01 4.126310e-01 4.703926e-01 4.146702e-01 4.614560e-01 4.282881e-01 4.510159e-01 4.405280e-01 4.388044e-01 4.509706e-01 4.276673e-01 4.600856e-01 4.189627e-01 4.661408e-01 4.128356e-01 4.684900e-01 4.104381e-01 4.678018e-01 4.120042e-01 4.631437e-01 4.159639e-01 4.547064e-01 4.207816e-01 4.439730e-01 4.238780e-01 4.295436e-01 4.218227e-01 4.103213e-01 4.125571e-01 3.738780e-01 3.466840e-01 2.987544e-01 1.233977e+00 2.394862e+00 1.304969e+00 1.920491e-01 1.456524e+00 1.021500e+00 -5.330451e-01 8.485999e-01 1.239258e+00 -1.352265e-01 -1.249242e-01 1.196651e+00 3.501345e-01 -4.923082e-01 8.053085e-01 -2.304499e-01 -6.223860e-01 6.553850e-01 7.913456e-01 4.389288e-01 3.681872e-01 3.867681e-01 3.977869e-01 4.074286e-01 4.118136e-01 4.140370e-01 4.208917e-01 4.162553e-01 4.265326e-01 4.155040e-01 4.289156e-01 4.144249e-01 4.300117e-01 4.157290e-01 4.286971e-01 4.187995e-01 4.236598e-01 4.241872e-01 4.157420e-01 4.327447e-01 4.050716e-01 4.432713e-01 3.928941e-01 4.554474e-01 3.815006e-01 4.665977e-01 3.712707e-01 4.731653e-01 3.646784e-01 4.749516e-01 3.660547e-01 4.703536e-01 3.762739e-01 4.560231e-01 3.956685e-01 4.316553e-01 4.258488e-01 3.979697e-01 4.661292e-01 3.558812e-01 5.167052e-01 3.079868e-01 5.839514e-01 2.515940e-01 7.006017e-01 1.219281e-01 1.667374e+00 3.890512e-01 -1.524076e+00 4.724543e-01 1.819378e-01 -2.243165e-03 -1.508849e-02 
-5.323862e-03 1.894503e-02 1.966875e-01 5.525557e-01 -1.829110e+00 -4.165636e+00 -3.997715e-02 -6.532964e-01 -6.496846e-01 -7.281394e-01 -5.938002e-01 -5.048100e-01 5.774034e-01 2.133055e-01 2.339493e-02 1.438606e-01 1.495456e-01 1.677626e-01 9.659232e-02 9.247382e-02 1.709176e-01 5.133635e-01 -5.746463e-01 -5.100293e-01 -7.601348e-01 -6.042501e-01 -8.197663e-01 -6.668458e-01 -8.424916e-01 -7.051733e-01 -8.442709e-01 -7.371036e-01 -8.369503e-01 -7.646892e-01 -8.236277e-01 -7.886302e-01 -8.112554e-01 -8.110064e-01 -8.029009e-01 -8.287016e-01 -7.978534e-01 -8.409908e-01 -7.995591e-01 -8.516062e-01 -8.100434e-01 -8.619088e-01 -8.289188e-01 -8.773581e-01 -8.631302e-01 -9.093304e-01 -9.208887e-01 -9.701943e-01 -1.016198e+00 -1.067543e+00 -1.141162e+00 -1.631149e+00 -2.545649e+00 -2.203062e+00 -1.461656e+00 -2.228090e+00 -1.751229e+00 -6.089189e-01 -1.488472e+00 -1.973735e+00 -8.243413e-01 -6.791603e-01 -1.759985e+00 -1.207873e+00 -3.168027e-01 -1.114801e+00 -8.521686e-01 -5.068889e-01 -1.191747e+00 -1.191708e+00 -9.374776e-01 -8.680596e-01 -8.581218e-01 -8.512818e-01 -8.581263e-01 -8.402116e-01 -8.595178e-01 -8.251701e-01 -8.622500e-01 -8.129040e-01 -8.699291e-01 -8.065186e-01 -8.770069e-01 -8.018067e-01 -8.778207e-01 -8.015946e-01 -8.748501e-01 -8.101669e-01 -8.665075e-01 -8.250020e-01 -8.503326e-01 -8.461919e-01 -8.287131e-01 -8.717214e-01 -8.009725e-01 -8.970518e-01 -7.724764e-01 -9.240282e-01 -7.515453e-01 -9.477011e-01 -7.369100e-01 -9.578617e-01 -7.312847e-01 -9.541306e-01 -7.435182e-01 -9.365347e-01 -7.748459e-01 -9.009581e-01 -8.249761e-01 -8.496684e-01 -8.963335e-01 -7.850140e-01 -9.897379e-01 -7.053622e-01 -1.126207e+00 -5.949151e-01 -1.411528e+00 -2.823065e-03 -3.558842e+00 -3.369414e+00 1.764941e+00 6.422651e-01 5.983395e-02 -1.219228e-02 
2.863574e-04 2.409463e-02 1.855844e-01 6.263208e-01 -3.945051e-01 -1.704973e+00 -3.008808e+00 -2.352152e+00 -1.119097e+00 -1.550193e+00 -1.088136e+00 -1.367255e+00 -1.285076e+00 -1.366736e+00 -1.089604e+00 -1.323906e+00 -1.152970e+00 -1.306263e+00 -1.180641e+00 -1.234503e+00 -1.279005e+00 -1.336324e+00 -1.223656e+00 -1.136748e+00 -1.358479e+00 -1.269628e+00 -1.449851e+00 -1.329391e+00 -1.491683e+00 -1.360213e+00 -1.509617e+00 -1.382092e+00 -1.514776e+00 -1.400198e+00 -1.511117e+00 -1.416962e+00 -1.504383e+00 -1.434946e+00 -1.497341e+00 -1.452120e+00 -1.490133e+00 -1.467994e+00 -1.485485e+00 -1.484814e+00 -1.485997e+00 -1.502153e+00 -1.493174e+00 -1.522815e+00 -1.512724e+00 -1.554450e+00 -1.549700e+00 -1.603152e+00 -1.609562e+00 -1.700481e+00 -1.806161e+00 -1.998897e+00 -1.803181e+00 -1.498597e+00 -1.541942e+00 -1.493599e+00 -1.655179e+00 -1.938332e+00 -1.712589e+00 -1.172438e+00 -1.603832e+00 -1.758382e+00 -1.134688e+00 -1.167969e+00 -1.616149e+00 -1.552876e+00 -9.758081e-01 -1.171996e+00 -1.252484e+00 -1.314569e+00 -1.441849e+00 -1.471542e+00 -1.481322e+00 -1.477564e+00 -1.488609e+00 -1.473280e+00 -1.493789e+00 -1.463661e+00 -1.497836e+00 -1.454232e+00 -1.505029e+00 -1.447898e+00 -1.511731e+00 -1.442180e+00 -1.514676e+00 -1.438785e+00 -1.515623e+00 -1.440926e+00 -1.513272e+00 -1.446886e+00 -1.505792e+00 -1.456994e+00 -1.494236e+00 -1.470624e+00 -1.477382e+00 -1.485599e+00 -1.457862e+00 -1.504451e+00 -1.440592e+00 -1.524639e+00 -1.424049e+00 -1.540024e+00 -1.409454e+00 -1.551082e+00 -1.402755e+00 -1.557983e+00 -1.405187e+00 -1.557788e+00 -1.417424e+00 -1.551540e+00 -1.442882e+00 -1.540421e+00 -1.483098e+00 -1.524652e+00 -1.546522e+00 -1.503555e+00 -1.621342e+00 -1.989821e+00 -4.512612e+00 -1.739811e+00 1.432463e+00 3.921645e-01 2.769499e-03 -1.675172e-02 
6.992911e-04 9.068845e-04 2.394460e-02 1.959655e-01 6.376721e-01 8.490432e-01 -1.617405e+00 -1.104099e+00 -3.314512e-01 -5.349698e-01 -2.415903e-01 -4.579989e-01 -1.486384e+00 -1.121781e+00 -7.786090e-01 -7.877430e-01 -7.837617e-01 -7.839856e-01 -7.880090e-01 -7.797338e-01 -1.148141e+00 -1.306334e+00 -4.124214e-01 -3.723980e-01 -4.229976e-01 -4.149170e-01 -4.390226e-01 -4.167498e-01 -4.499902e-01 -4.192088e-01 -4.588991e-01 -4.207528e-01 -4.644677e-01 -4.219583e-01 -4.670790e-01 -4.235488e-01 -4.673716e-01 -4.261520e-01 -4.658397e-01 -4.297220e-01 -4.628549e-01 -4.342354e-01 -4.587352e-01 -4.396176e-01 -4.542299e-01 -4.451088e-01 -4.503136e-01 -4.502721e-01 -4.476715e-01 -4.554228e-01 -4.468713e-01 -4.644648e-01 -4.689380e-01 -5.478094e-01 -4.757246e-01 8.552398e-01 2.467410e+00 6.630143e-01 -9.101097e-01 1.130664e+00 4.458408e-01 -1.251643e+00 3.486780e-01 6.680415e-01 -9.947353e-01 -7.845270e-01 6.412368e-01 -6.176754e-01 -1.224311e+00 2.893839e-01 -1.226934e+00 -1.948340e+00 -5.193361e-02 1.258670e-01 -3.432124e-01 -4.295467e-01 -4.275580e-01 -4.242142e-01 -4.282932e-01 -4.289555e-01 -4.352098e-01 -4.325529e-01 -4.399182e-01 -4.337292e-01 -4.434191e-01 -4.333937e-01 -4.460363e-01 -4.321186e-01 -4.482898e-01 -4.301930e-01 -4.504630e-01 -4.281096e-01 -4.524681e-01 -4.259425e-01 -4.541868e-01 -4.239357e-01 -4.553528e-01 -4.225172e-01 -4.555140e-01 -4.221188e-01 -4.542316e-01 -4.235092e-01 -4.513074e-01 -4.270069e-01 -4.463822e-01 -4.327731e-01 -4.392216e-01 -4.411397e-01 -4.300477e-01 -4.520704e-01 -4.191168e-01 -4.651446e-01 -4.067064e-01 -4.795269e-01 -3.930508e-01 -4.933963e-01 -3.761559e-01 -5.031777e-01 -3.465557e-01 -5.057768e-01 -2.525501e-01 -1.006019e+00 -1.228383e+00 3.661852e-01 3.154406e-01 2.410668e-02 -2.258936e-02 -7.384478e-03 
6.341461e-05 2.631769e-03 2.560847e-03 1.419944e-02 8.310358e-02 1.870576e-01 -1.580906e-02 -2.715465e-02 4.916315e-02 7.375616e-02 2.273352e-01 2.718017e-01 -1.364401e+00 -1.310672e+00 -5.483121e-01 -5.472880e-01 -5.471187e-01 -5.471370e-01 -5.472879e-01 -5.478140e-01 -1.160142e+00 -1.193990e+00 7.452881e-02 4.311675e-02 1.650448e-03 1.428436e-02 2.366546e-02 3.320632e-02 3.253086e-02 3.725508e-02 3.372137e-02 3.754832e-02 3.331329e-02 3.705330e-02 3.286882e-02 3.657455e-02 3.277631e-02 3.626785e-02 3.306796e-02 3.612457e-02 3.366646e-02 3.606307e-02 3.442300e-02 3.591815e-02 3.506867e-02 3.546741e-02 3.525016e-02 3.445156e-02 3.457919e-02 3.242175e-02 3.214458e-02 2.636361e-02 1.665156e-02 -2.420846e-03 8.268718e-02 6.215799e-01 9.011828e-01 -8.488932e-03 -3.633696e-01 3.455617e-01 1.886517e-01 1.079429e-01 5.055774e-01 4.326047e-02 -1.551427e-01 2.344851e-01 1.355420e-01 -4.024290e-01 -3.275085e-02 3.743603e-01 -4.542780e-01 -4.791202e-01 1.337971e-01 1.168789e-01 2.667521e-02 3.298316e-02 4.523342e-02 4.924948e-02 4.815982e-02 4.650891e-02 4.399630e-02 4.235001e-02 4.017545e-02 3.916109e-02 3.743150e-02 3.706304e-02 3.561632e-02 3.579896e-02 3.443342e-02 3.512092e-02 3.365090e-02 3.482952e-02 3.310815e-02 3.478813e-02 3.270197e-02 3.489588e-02 3.238899e-02 3.506935e-02 3.216315e-02 3.523803e-02 3.204798e-02 3.533570e-02 3.207466e-02 3.531062e-02 3.227898e-02 3.511556e-02 3.271127e-02 3.473297e-02 3.344599e-02 3.422913e-02 3.464127e-02 3.385063e-02 3.669292e-02 3.425596e-02 4.052018e-02 3.686981e-02 4.798622e-02 4.394029e-02 6.151719e-02 5.706375e-02 8.725507e-02 4.684183e-02 4.810863e-02 8.816268e-02 1.223607e-02 -1.611729e-02 -1.153595e-02 -4.351526e-03 
-1.534952e-03 -1.561763e-04 4.715866e-04 4.749491e-05 2.475015e-03 1.181635e-02 8.722260e-03 8.118184e-03 1.969149e-02 4.684851e-02 1.229043e-01 1.637216e-01 -6.960418e-01 -6.579727e-01 -2.750537e-01 -2.743297e-01 -2.743284e-01 -2.743282e-01 -2.743289e-01 -2.747296e-01 -5.689510e-01 -5.832706e-01 2.626467e-02 -7.976322e-03 -2.676131e-02 -1.718130e-02 -7.720951e-03 -2.120065e-03 5.134266e-04 2.213923e-03 2.753670e-03 3.281791e-03 3.216493e-03 3.413377e-03 3.255522e-03 3.406863e-03 3.315574e-03 3.495740e-03 3.499308e-03 3.697598e-03 3.756067e-03 3.894942e-03 3.892336e-03 3.810126e-03 3.543121e-03 3.003079e-03 2.214012e-03 9.551785e-04 -6.401495e-04 -2.938905e-03 -5.800854e-03 -1.001081e-02 -1.690670e-02 -3.022336e-02 -4.589445e-02 -3.141253e-02 1.081192e-02 5.778446e-03 -2.707389e-02 3.555969e-03 -1.550384e-02 -7.147658e-02 -3.098254e-02 -2.649546e-02 -8.973558e-02 -9.799280e-02 -6.642844e-02 -1.007233e-01 -1.178191e-01 -1.024795e-01 -9.670269e-02 -4.247788e-02 -2.035382e-02 -3.418961e-02 -2.438491e-02 -8.914535e-03 6.399345e-04 5.395697e-03 7.519938e-03 8.356464e-03 8.350674e-03 7.992008e-03 7.365367e-03 6.724459e-03 6.031238e-03 5.431707e-03 4.853705e-03 4.393600e-03 3.970500e-03 3.659859e-03 3.372369e-03 3.186637e-03 2.994698e-03 2.902703e-03 2.766422e-03 2.743490e-03 2.631875e-03 2.662568e-03 2.554527e-03 2.630121e-03 2.512815e-03 2.627899e-03 2.495456e-03 2.645432e-03 2.499450e-03 2.680249e-03 2.533546e-03 2.746721e-03 2.633490e-03 2.901315e-03 2.899308e-03 3.296499e-03 3.565503e-03 4.264624e-03 5.081970e-03 6.359963e-03 8.042017e-03 1.001424e-02 1.230770e-02 1.398483e-02 1.575132e-02 1.576766e-02 1.437962e-02 4.792512e-03 -3.822009e-03 -4.870038e-03 -3.825520e-03 -2.710750e-03 
-2.734645e-05 -2.308243e-05 -1.881637e-05 -1.490288e-05 -1.091290e-05 -7.510911e-06 -4.361614e-06 -2.240097e-06 -4.493829e-07 2.760319e-07 -2.457068e-06 -1.550450e-05 6.073460e-05 1.546635e-04 3.032180e-07 8.495818e-10 -5.020592e-11 -7.156678e-11 -1.731160e-09 -9.405323e-07 -6.577584e-04 -8.311551e-04 -1.886224e-04 5.917971e-06 2.331914e-05 3.074312e-05 4.476121e-05 6.441910e-05 8.426445e-05 1.092807e-04 1.373124e-04 1.741352e-04 2.186126e-04 2.762405e-04 3.469042e-04 4.345612e-04 5.391484e-04 6.600864e-04 7.937298e-04 9.285393e-04 1.049815e-03 1.125493e-03 1.121220e-03 9.777269e-04 6.403737e-04 3.004714e-05 -9.131342e-04 -2.265770e-03 -4.078525e-03 -6.415095e-03 -9.329525e-03 -1.287981e-02 -1.725965e-02 -2.299014e-02 -3.069469e-02 -3.856217e-02 -4.258124e-02 -4.291048e-02 -4.277746e-02 -4.031289e-02 -4.025160e-02 -4.304675e-02 -4.110021e-02 -4.129881e-02 -4.678603e-02 -4.964180e-02 -4.949055e-02 -5.305278e-02 -5.652701e-02 -5.569897e-02 -5.084915e-02 -4.312580e-02 -3.614759e-02 -2.755452e-02 -1.763331e-02 -9.632914e-03 -4.132795e-03 -5.448386e-04 1.685637e-03 2.956165e-03 3.547919e-03 3.700648e-03 3.563151e-03 3.266059e-03 2.878519e-03 2.466951e-03 2.061064e-03 1.689245e-03 1.360511e-03 1.080554e-03 8.485367e-04 6.591146e-04 5.085536e-04 3.884177e-04 2.954405e-04 2.220759e-04 1.662760e-04 1.225632e-04 8.974663e-05 6.427865e-05 4.538375e-05 3.093698e-05 2.036707e-05 1.247411e-05 6.836401e-06 2.777157e-06 3.156697e-08 -1.875244e-06 -3.054351e-06 -4.029896e-06 -4.789629e-06 -6.040728e-06 -7.637369e-06 -1.040494e-05 -1.394158e-05 -1.890413e-05 -2.445933e-05 -3.076688e-05 -3.663010e-05 -4.172260e-05 -4.511109e-05 -4.694885e-05 -4.701829e-05 -4.538787e-05 -4.290080e-05 -3.971349e-05 -3.592330e-05 -3.181177e-05 
1.485827e-03 1.125561e-04 -5.084191e-04 -7.660534e-05 -2.496467e-03 -1.183878e-02 -8.727195e-03 -8.120473e-03 -1.969453e-02 -4.685549e-02 -1.229288e-01 -1.637480e-01 6.963904e-01 6.579016e-01 2.750536e-01 2.743297e-01 2.743283e-01 2.743282e-01 2.743289e-01 2.747272e-01 5.672767e-01 5.804287e-01 -2.686996e-02 7.975679e-03 2.679849e-02 1.723069e-02 7.786136e-03 2.225870e-03 -3.784681e-04 -2.026804e-03 -2.519834e-03 -2.971269e-03 -2.824202e-03 -2.900931e-03 -2.604297e-03 -2.570538e-03 -2.262233e-03 -2.178563e-03 -1.884554e-03 -1.763986e-03 -1.504464e-03 -1.387358e-03 -1.234159e-03 -1.233297e-03 -1.340872e-03 -1.652610e-03 -2.242032e-03 -3.098381e-03 -4.380553e-03 -5.955792e-03 -8.038829e-03 -1.036756e-02 -1.317599e-02 -1.608716e-02 -1.936369e-02 -2.240343e-02 -2.487073e-02 -2.575232e-02 -2.560744e-02 -2.487141e-02 -2.392615e-02 -2.301182e-02 -2.252146e-02 -2.233844e-02 -2.236342e-02 -2.253286e-02 -2.293221e-02 -2.309103e-02 -2.285470e-02 -2.198384e-02 -2.018371e-02 -1.712693e-02 -1.347973e-02 -9.578300e-03 -5.914482e-03 -3.035988e-03 -9.016862e-04 4.641577e-04 1.289128e-03 1.609514e-03 1.643298e-03 1.416421e-03 1.090775e-03 6.626229e-04 2.411405e-04 -1.969716e-04 -5.800008e-04 -9.430601e-04 -1.236210e-03 -1.505133e-03 -1.703573e-03 -1.893589e-03 -2.011776e-03 -2.149864e-03 -2.204761e-03 -2.317162e-03 -2.321405e-03 -2.429051e-03 -2.390493e-03 -2.508295e-03 -2.432052e-03 -2.569217e-03 -2.460351e-03 -2.621038e-03 -2.487877e-03 -2.673309e-03 -2.532834e-03 -2.747730e-03 -2.636830e-03 -2.905609e-03 -2.904309e-03 -3.303742e-03 -3.574142e-03 -4.278828e-03 -5.100219e-03 -6.388180e-03 -8.077210e-03 -1.006226e-02 -1.236255e-02 -1.405011e-02 -1.581787e-02 -1.584110e-02 -1.444829e-02 -4.858010e-03 3.757283e-03 4.808042e-03 3.766802e-03 2.656184e-03 
-9.682584e-05 -2.666199e-03 -2.588084e-03 -1.421592e-02 -8.315940e-02 -1.873052e-01 1.585753e-02 2.730254e-02 -4.918773e-02 -7.370493e-02 -2.273826e-01 -2.718246e-01 1.364499e+00 1.310874e+00 5.483103e-01 5.472885e-01 5.471200e-01 5.471404e-01 5.472930e-01 5.478182e-01 1.159162e+00 1.192612e+00 -7.490160e-02 -4.310438e-02 -1.720141e-03 -1.429428e-02 -2.373371e-02 -3.321101e-02 -3.255449e-02 -3.722827e-02 -3.366946e-02 -3.745275e-02 -3.312860e-02 -3.682468e-02 -3.245035e-02 -3.610043e-02 -3.196161e-02 -3.537981e-02 -3.163178e-02 -3.460370e-02 -3.137103e-02 -3.373445e-02 -3.114766e-02 -3.283652e-02 -3.104734e-02 -3.211319e-02 -3.127746e-02 -3.186820e-02 -3.208224e-02 -3.236459e-02 -3.358210e-02 -3.365175e-02 -3.562536e-02 -3.544217e-02 -3.771186e-02 -3.696233e-02 -3.803933e-02 -3.535566e-02 -3.557435e-02 -3.371209e-02 -3.193170e-02 -2.895701e-02 -2.848243e-02 -2.647191e-02 -2.524851e-02 -2.328482e-02 -2.391336e-02 -2.179014e-02 -2.218315e-02 -2.052707e-02 -2.175985e-02 -1.995847e-02 -2.054147e-02 -2.111441e-02 -2.210356e-02 -2.290810e-02 -2.376081e-02 -2.492689e-02 -2.574269e-02 -2.708863e-02 -2.774092e-02 -2.907120e-02 -2.945485e-02 -3.067969e-02 -3.075264e-02 -3.188716e-02 -3.163833e-02 -3.276387e-02 -3.217745e-02 -3.340611e-02 -3.244918e-02 -3.389909e-02 -3.252612e-02 -3.430210e-02 -3.247319e-02 -3.464559e-02 -3.235073e-02 -3.493412e-02 -3.221720e-02 -3.515199e-02 -3.213131e-02 -3.527008e-02 -3.215130e-02 -3.525086e-02 -3.233541e-02 -3.505940e-02 -3.274461e-02 -3.468605e-02 -3.346121e-02 -3.419571e-02 -3.464885e-02 -3.383772e-02 -3.670033e-02 -3.426876e-02 -4.053493e-02 -3.690873e-02 -4.800994e-02 -4.400300e-02 -6.154878e-02 -5.713726e-02 -8.727736e-02 -4.692775e-02 -4.808067e-02 -8.811978e-02 -1.223960e-02 1.610516e-02 1.151461e-02 4.322193e-03 
-7.167754e-04 -9.253254e-04 -2.393726e-02 -1.959841e-01 -6.382772e-01 -8.515739e-01 1.617831e+00 1.106166e+00 3.310478e-01 5.359768e-01 2.412478e-01 4.587664e-01 1.486667e+00 1.121035e+00 7.785624e-01 7.877544e-01 7.837882e-01 7.840614e-01 7.881262e-01 7.798722e-01 1.148270e+00 1.304468e+00 4.109453e-01 3.718472e-01 4.220382e-01 4.139808e-01 4.380879e-01 4.156722e-01 4.493401e-01 4.179918e-01 4.583240e-01 4.190621e-01 4.638359e-01 4.196639e-01 4.665454e-01 4.204829e-01 4.668862e-01 4.217848e-01 4.653039e-01 4.238234e-01 4.623542e-01 4.267021e-01 4.585284e-01 4.304211e-01 4.544524e-01 4.349757e-01 4.507864e-01 4.401009e-01 4.480880e-01 4.457873e-01 4.474918e-01 4.529315e-01 4.506661e-01 4.627967e-01 4.591319e-01 4.772944e-01 4.790885e-01 4.970763e-01 4.824333e-01 4.947324e-01 4.863362e-01 4.871743e-01 4.823675e-01 4.930608e-01 4.776915e-01 4.864798e-01 4.775298e-01 4.886529e-01 4.640784e-01 4.850860e-01 4.643638e-01 4.759521e-01 4.670898e-01 4.679901e-01 4.571990e-01 4.561620e-01 4.510346e-01 4.480667e-01 4.473171e-01 4.422622e-01 4.453868e-01 4.381636e-01 4.447815e-01 4.350634e-01 4.449828e-01 4.324817e-01 4.458282e-01 4.302390e-01 4.471629e-01 4.280529e-01 4.486387e-01 4.258133e-01 4.501883e-01 4.238189e-01 4.517284e-01 4.223022e-01 4.528739e-01 4.215748e-01 4.533064e-01 4.220776e-01 4.525258e-01 4.240048e-01 4.499765e-01 4.277463e-01 4.454907e-01 4.337936e-01 4.388758e-01 4.421760e-01 4.299237e-01 4.527739e-01 4.189310e-01 4.654086e-01 4.064028e-01 4.792746e-01 3.925053e-01 4.927261e-01 3.755849e-01 5.023910e-01 3.460515e-01 5.049062e-01 2.520678e-01 1.005104e+00 1.228631e+00 -3.658208e-01 -3.154683e-01 -2.409365e-02 2.261244e-02 7.383189e-03 
-3.002325e-04 -2.410037e-02 -1.855452e-01 -6.263339e-01 3.933640e-01 1.701698e+00 3.008962e+00 2.354359e+00 1.118217e+00 1.551984e+00 1.088212e+00 1.368822e+00 1.283657e+00 1.367422e+00 1.088584e+00 1.324945e+00 1.151735e+00 1.307123e+00 1.179645e+00 1.235376e+00 1.278075e+00 1.336012e+00 1.222447e+00 1.136046e+00 1.356574e+00 1.267393e+00 1.447533e+00 1.328564e+00 1.492017e+00 1.360120e+00 1.507809e+00 1.376746e+00 1.508661e+00 1.391906e+00 1.505496e+00 1.408085e+00 1.498099e+00 1.421251e+00 1.486705e+00 1.431310e+00 1.474071e+00 1.438360e+00 1.461348e+00 1.442927e+00 1.451470e+00 1.447691e+00 1.445424e+00 1.449775e+00 1.438103e+00 1.446274e+00 1.430903e+00 1.443193e+00 1.428547e+00 1.442791e+00 1.429537e+00 1.446410e+00 1.442342e+00 1.458842e+00 1.441714e+00 1.458078e+00 1.445067e+00 1.454618e+00 1.447943e+00 1.474676e+00 1.450686e+00 1.478699e+00 1.461446e+00 1.490561e+00 1.453696e+00 1.497566e+00 1.464539e+00 1.496710e+00 1.473411e+00 1.494056e+00 1.470203e+00 1.483101e+00 1.472157e+00 1.472774e+00 1.476470e+00 1.462109e+00 1.484485e+00 1.453820e+00 1.494880e+00 1.445319e+00 1.503002e+00 1.436869e+00 1.510236e+00 1.432975e+00 1.516399e+00 1.432013e+00 1.516237e+00 1.432519e+00 1.510646e+00 1.438779e+00 1.502106e+00 1.450537e+00 1.489131e+00 1.466721e+00 1.474060e+00 1.487480e+00 1.456833e+00 1.507242e+00 1.436327e+00 1.524910e+00 1.419232e+00 1.542885e+00 1.408789e+00 1.556127e+00 1.402846e+00 1.560961e+00 1.404438e+00 1.559307e+00 1.416740e+00 1.551021e+00 1.440911e+00 1.538625e+00 1.482991e+00 1.525330e+00 1.548394e+00 1.502878e+00 1.620013e+00 1.985840e+00 4.513462e+00 1.739655e+00 -1.433838e+00 -3.925953e-01 -2.770341e-03 1.676419e-02 
5.300744e-03 -1.896885e-02 -1.967081e-01 -5.526264e-01 1.828702e+00 4.166911e+00 3.930115e-02 6.514957e-01 6.494240e-01 7.282251e-01 5.946373e-01 5.051957e-01 -5.780140e-01 -2.129359e-01 -2.370421e-02 -1.434121e-01 -1.501618e-01 -1.677899e-01 -9.680746e-02 -9.310733e-02 -1.710344e-01 -5.128554e-01 5.754669e-01 5.104792e-01 7.595956e-01 6.032565e-01 8.184095e-01 6.683718e-01 8.445079e-01 7.081956e-01 8.427361e-01 7.331754e-01 8.289107e-01 7.579041e-01 8.163825e-01 7.833560e-01 8.034313e-01 8.023981e-01 7.894797e-01 8.143507e-01 7.776303e-01 8.192253e-01 7.685023e-01 8.178978e-01 7.649741e-01 8.144847e-01 7.665436e-01 8.049124e-01 7.632600e-01 7.843262e-01 7.538564e-01 7.595511e-01 7.410488e-01 7.308587e-01 7.187336e-01 6.966897e-01 6.875401e-01 6.690624e-01 6.832041e-01 6.762852e-01 6.847671e-01 6.988473e-01 6.990084e-01 7.140779e-01 7.207344e-01 7.400672e-01 7.340566e-01 7.541936e-01 7.600548e-01 7.717762e-01 7.717387e-01 7.939363e-01 7.745974e-01 8.047812e-01 7.915440e-01 8.165735e-01 8.089475e-01 8.195162e-01 8.235886e-01 8.154532e-01 8.395775e-01 8.106429e-01 8.564235e-01 8.032277e-01 8.682762e-01 7.949828e-01 8.775692e-01 7.934011e-01 8.841522e-01 7.966309e-01 8.804682e-01 8.026760e-01 8.679112e-01 8.174793e-01 8.504327e-01 8.400350e-01 8.266409e-01 8.678433e-01 8.010254e-01 8.999263e-01 7.748490e-01 9.269598e-01 7.479305e-01 9.460844e-01 7.313597e-01 9.595898e-01 7.308882e-01 9.592673e-01 7.438280e-01 9.393461e-01 7.741007e-01 9.026577e-01 8.247111e-01 8.495373e-01 8.947522e-01 7.839972e-01 9.911875e-01 7.085051e-01 1.130575e+00 5.961129e-01 1.410857e+00 -9.523045e-04 3.560185e+00 3.368382e+00 -1.767334e+00 -6.431020e-01 -5.992234e-02 1.218359e-02 
7.017882e-03 -6.183840e-03 -8.293127e-02 -1.759277e-01 1.056294e+00 2.255760e+00 -2.179892e+00 -1.193701e+00 -2.759009e-01 -5.647253e-01 -4.197080e-01 -5.483189e-01 1.124101e+00 -2.657058e-01 -4.516861e-01 -6.922714e-01 -3.270110e-01 -7.382182e-01 -3.358296e-01 -7.904384e-01 8.485381e-02 7.023585e-01 -3.380017e-01 -5.131120e-01 -4.116793e-01 -4.696635e-01 -4.141684e-01 -4.596673e-01 -4.269040e-01 -4.485184e-01 -4.406059e-01 -4.383619e-01 -4.534226e-01 -4.274944e-01 -4.622232e-01 -4.170564e-01 -4.682309e-01 -4.101362e-01 -4.719927e-01 -4.071894e-01 -4.728158e-01 -4.082203e-01 -4.709971e-01 -4.128365e-01 -4.662969e-01 -4.195032e-01 -4.599799e-01 -4.295904e-01 -4.568988e-01 -4.451077e-01 -4.592950e-01 -4.646507e-01 -4.683962e-01 -4.894901e-01 -4.881546e-01 -5.218750e-01 -5.249110e-01 -5.563876e-01 -5.315707e-01 -5.518974e-01 -5.351428e-01 -5.341625e-01 -5.299468e-01 -5.378743e-01 -5.154998e-01 -5.219600e-01 -5.147393e-01 -5.188825e-01 -4.884087e-01 -5.105338e-01 -4.867460e-01 -4.898195e-01 -4.902875e-01 -4.756743e-01 -4.698633e-01 -4.536815e-01 -4.534053e-01 -4.412638e-01 -4.419786e-01 -4.356789e-01 -4.326430e-01 -4.332011e-01 -4.245582e-01 -4.331915e-01 -4.191602e-01 -4.341574e-01 -4.154259e-01 -4.329227e-01 -4.134198e-01 -4.297478e-01 -4.157735e-01 -4.251327e-01 -4.220229e-01 -4.170738e-01 -4.306776e-01 -4.061666e-01 -4.418455e-01 -3.937171e-01 -4.534085e-01 -3.806841e-01 -4.641807e-01 -3.709678e-01 -4.733753e-01 -3.663174e-01 -4.763316e-01 -3.667177e-01 -4.703506e-01 -3.756304e-01 -4.559288e-01 -3.954749e-01 -4.317984e-01 -4.255270e-01 -3.977258e-01 -4.658737e-01 -3.557973e-01 -5.162733e-01 -3.066883e-01 -5.818074e-01 -2.492616e-01 -6.991260e-01 -1.215226e-01 -1.667691e+00 -3.883643e-01 1.523282e+00 -4.735649e-01 -1.822804e-01 2.211916e-03 1.508850e-02 
5.031272e-03 3.760234e-03 -6.427445e-03 -7.064038e-03 1.808946e-01 4.473567e-01 -7.899740e-01 -5.138838e-01 -1.256518e-01 -2.658995e-01 -2.123040e-01 -3.831392e-01 3.958025e-01 1.699196e+00 2.225482e+00 1.759673e+00 2.143587e+00 1.956640e+00 1.949044e+00 2.253153e+00 1.688748e+00 1.756815e-01 -3.166091e-01 -2.548992e-01 -2.209310e-01 -2.197486e-01 -2.287408e-01 -2.244918e-01 -2.364375e-01 -2.242819e-01 -2.408057e-01 -2.228756e-01 -2.434938e-01 -2.214695e-01 -2.449302e-01 -2.205512e-01 -2.452772e-01 -2.203024e-01 -2.446065e-01 -2.207490e-01 -2.430302e-01 -2.218705e-01 -2.407796e-01 -2.236762e-01 -2.382644e-01 -2.262423e-01 -2.360987e-01 -2.297037e-01 -2.349776e-01 -2.341826e-01 -2.354966e-01 -2.397098e-01 -2.378747e-01 -2.459451e-01 -2.438526e-01 -2.606849e-01 -2.653514e-01 -2.729673e-01 -2.639967e-01 -2.801717e-01 -2.678288e-01 -2.579269e-01 -2.621913e-01 -2.733489e-01 -2.533408e-01 -2.561462e-01 -2.607706e-01 -2.626134e-01 -2.419383e-01 -2.554883e-01 -2.494728e-01 -2.488112e-01 -2.456981e-01 -2.456463e-01 -2.415805e-01 -2.370649e-01 -2.366497e-01 -2.331231e-01 -2.350240e-01 -2.313253e-01 -2.341840e-01 -2.304281e-01 -2.336442e-01 -2.299076e-01 -2.332233e-01 -2.294693e-01 -2.329739e-01 -2.289595e-01 -2.330266e-01 -2.282835e-01 -2.334760e-01 -2.273691e-01 -2.343492e-01 -2.261984e-01 -2.355917e-01 -2.248513e-01 -2.370548e-01 -2.235021e-01 -2.384942e-01 -2.224108e-01 -2.395934e-01 -2.218974e-01 -2.399881e-01 -2.223144e-01 -2.392859e-01 -2.240212e-01 -2.371469e-01 -2.273528e-01 -2.333649e-01 -2.325764e-01 -2.279535e-01 -2.399098e-01 -2.212864e-01 -2.496343e-01 -2.142568e-01 -2.624997e-01 -2.083413e-01 -2.810718e-01 -2.050577e-01 -3.154478e-01 -1.920733e-01 -6.218183e-01 -5.633762e-01 1.910837e-01 5.014604e-02 2.125626e-02 1.512779e-02 7.954567e-03 
