# vtk DataFile Version 2.0
Comment goes here
ASCII

DATASET STRUCTURED_POINTS
FIELD FieldData 1
TIME 1 1 double
0.83000000
DIMENSIONS    128   16   1

ORIGIN    0.000   0.000   0.000
SPACING   0.0078125 0.015625   1.000

POINT_DATA   2048
SCALARS Omega double
LOOKUP_TABLE default

2.808087e-05 2.681899e-05 2.402861e-05 2.225062e-05 4.274511e-05 5.896997e-05 -2.840866e-05 -8.166085e-05 -1.544901e-05 -4.389568e-05 -2.454714e-05 -4.965941e-05 -1.308280e-06 -3.167746e-05 1.170495e-05 -1.788561e-05 9.591810e-06 -1.398194e-05 -3.320859e-06 -1.626703e-05 -4.573174e-05 -4.485923e-05 -4.096569e-05 6.834373e-06 -4.733965e-06 1.386421e-05 -6.854690e-06 2.242685e-05 -6.422014e-06 3.932285e-05 -1.747213e-06 6.702972e-05 1.311851e-05 1.117841e-04 4.710888e-05 1.840593e-04 1.130393e-04 2.943691e-04 2.229967e-04 4.413775e-04 3.635177e-04 5.814381e-04 4.535176e-04 5.866784e-04 3.170659e-04 2.549619e-04 -2.420175e-04 -5.304615e-04 -1.186102e-03 -1.456480e-03 -1.764686e-03 -1.339236e-03 -2.172159e-03 -8.226656e-03 -1.859964e-02 1.085018e-02 7.807155e-02 3.896536e-02 -1.882271e-03 8.329665e-02 4.829819e-02 -3.986625e-02 5.797743e-02 1.216277e-01 1.706111e-02 1.769264e-03 1.181325e-01 7.785834e-02 -1.002578e-02 6.217713e-02 8.566863e-02 3.574279e-02 5.466317e-02 5.900627e-02 2.415380e-02 9.771696e-03 7.189749e-03 6.371797e-03 5.229623e-03 4.163725e-03 3.187139e-03 2.483873e-03 1.858228e-03 1.478632e-03 1.121698e-03 9.565637e-04 7.563043e-04 6.931581e-04 5.619524e-04 5.312026e-04 4.297855e-04 4.028974e-04 3.233105e-04 2.941363e-04 2.369502e-04 2.058801e-04 1.718124e-04 1.387029e-04 1.254988e-04 9.043330e-05 9.363472e-05 5.597474e-05 7.148572e-05 3.172628e-05 5.524756e-05 1.475073e-05 4.193700e-05 2.979186e-06 2.995412e-05 -4.201622e-06 2.012495e-05 -7.029690e-06 1.354177e-05 -5.291304e-06 1.117839e-05 1.017377e-06 1.364533e-05 1.056473e-05 1.800104e-05 1.685596e-05 1.753877e-05 1.736314e-05 2.041276e-05 1.185803e-05 1.477788e-05 2.447081e-05 2.743966e-05 2.765710e-05 
-4.789669e-03 -1.399611e-03 6.747598e-04 -3.976267e-02 -1.241463e-01 7.073622e-01 1.145972e+00 4.264338e-01 5.291080e-01 4.356705e-01 5.136744e-01 2.782928e-01 -6.095914e-01 -2.269467e+00 -3.059280e+00 -2.774628e+00 -2.786164e+00 -2.866586e+00 -2.667882e+00 -2.952703e+00 -2.388806e+00 -4.054535e-01 3.115494e-01 5.085441e-01 4.688388e-01 5.047947e-01 4.717876e-01 5.076612e-01 4.796466e-01 5.075806e-01 4.844851e-01 5.053489e-01 4.879864e-01 5.024506e-01 4.907893e-01 4.995133e-01 4.932048e-01 4.966848e-01 4.953584e-01 4.940313e-01 4.971022e-01 4.915640e-01 4.981541e-01 4.891266e-01 4.981171e-01 4.864324e-01 4.965844e-01 4.830466e-01 4.934233e-01 4.786597e-01 4.890985e-01 4.716729e-01 4.718307e-01 4.322226e-01 5.466469e-01 1.360955e+00 2.312815e+00 7.747484e-02 -6.408950e-01 2.472612e+00 6.515089e-01 -2.761958e+00 1.149469e-02 2.138146e+00 -1.451521e+00 -2.088985e+00 1.428024e+00 4.297547e-01 -2.323915e+00 -4.348800e-01 8.394695e-01 -1.122680e+00 -8.186943e-01 5.415543e-01 5.664787e-01 5.000527e-01 4.783666e-01 4.839230e-01 4.824231e-01 4.872959e-01 4.852471e-01 4.884870e-01 4.871033e-01 4.888234e-01 4.887820e-01 4.886920e-01 4.904126e-01 4.883220e-01 4.919032e-01 4.878805e-01 4.931436e-01 4.874284e-01 4.940859e-01 4.870983e-01 4.945062e-01 4.871524e-01 4.942201e-01 4.877318e-01 4.930986e-01 4.890682e-01 4.909778e-01 4.912939e-01 4.878893e-01 4.944711e-01 4.839409e-01 4.985516e-01 4.793797e-01 5.033772e-01 4.746306e-01 5.086635e-01 4.703131e-01 5.140311e-01 4.673514e-01 5.192479e-01 4.669348e-01 5.248590e-01 4.705845e-01 5.336367e-01 4.794254e-01 5.560943e-01 4.889364e-01 8.509085e-01 1.103953e+00 1.253509e-01 -2.989042e-02 -1.184840e-02 -9.826524e-03 -7.524530e-03 
-1.951678e-03 1.913145e-02 3.430055e-02 -2.662765e-01 -1.627152e+00 6.461089e-01 2.704254e+00 4.215817e-01 9.724962e-01 6.157412e-01 8.832826e-01 4.314990e-01 -1.994633e-01 4.891867e-01 1.289364e+00 1.219780e+00 1.058116e+00 1.210639e+00 1.070974e+00 1.324640e+00 3.725705e-01 1.233125e-01 4.428947e-01 7.881112e-01 7.128981e-01 8.074991e-01 7.042177e-01 8.011715e-01 7.034594e-01 7.968302e-01 7.034755e-01 7.898034e-01 7.047593e-01 7.822497e-01 7.090042e-01 7.740708e-01 7.142379e-01 7.634630e-01 7.204422e-01 7.526191e-01 7.282832e-01 7.415996e-01 7.344062e-01 7.288838e-01 7.379101e-01 7.170134e-01 7.398883e-01 7.055520e-01 7.372381e-01 6.903078e-01 7.270455e-01 6.657129e-01 6.968738e-01 6.340061e-01 8.794980e-01 1.499142e+00 1.570852e+00 -8.365567e-01 -5.264438e-01 2.032763e+00 7.027697e-01 -7.789867e-01 7.355506e-01 1.463184e+00 -2.311207e-01 -5.041319e-01 1.258580e+00 5.030513e-01 -9.328658e-01 5.563160e-01 5.988254e-01 -1.907742e+00 -1.189960e+00 7.566290e-01 8.459210e-01 8.015417e-01 7.297335e-01 7.580656e-01 7.101012e-01 7.448319e-01 7.004959e-01 7.347688e-01 6.980514e-01 7.253717e-01 7.005609e-01 7.158508e-01 7.078643e-01 7.068207e-01 7.172928e-01 6.961615e-01 7.255756e-01 6.849498e-01 7.340634e-01 6.765144e-01 7.411519e-01 6.704899e-01 7.435068e-01 6.681980e-01 7.416372e-01 6.722919e-01 7.337535e-01 6.815383e-01 7.183520e-01 6.970190e-01 6.980590e-01 7.196170e-01 6.734188e-01 7.457662e-01 6.450836e-01 7.735347e-01 6.178015e-01 8.007781e-01 5.946699e-01 8.220285e-01 5.785617e-01 8.360870e-01 5.750696e-01 8.479184e-01 5.830579e-01 8.838786e-01 5.660563e-01 1.613544e+00 1.845820e+00 -1.383987e+00 -5.662240e-01 8.884183e-02 3.501244e-02 -2.330859e-03 
7.949188e-03 4.898245e-02 9.649149e-02 -5.395347e-01 -4.298754e+00 -3.834907e+00 -1.261729e-01 -1.699458e+00 -1.039003e+00 -1.363372e+00 -1.012691e+00 -8.054043e-01 -7.488242e-02 -7.634132e-02 -4.669190e-01 -1.891832e-01 -2.921146e-01 -1.440644e-01 -3.342044e-01 -3.499886e-01 -8.871690e-02 -3.035347e-01 -8.296253e-01 -1.105205e+00 -1.214015e+00 -1.254579e+00 -1.328049e+00 -1.306465e+00 -1.392291e+00 -1.325013e+00 -1.431736e+00 -1.334377e+00 -1.455924e+00 -1.338640e+00 -1.465001e+00 -1.342959e+00 -1.467521e+00 -1.353964e+00 -1.464767e+00 -1.365967e+00 -1.453949e+00 -1.379254e+00 -1.443292e+00 -1.397811e+00 -1.433162e+00 -1.412744e+00 -1.417647e+00 -1.421738e+00 -1.403107e+00 -1.430605e+00 -1.393481e+00 -1.438299e+00 -1.388653e+00 -1.454672e+00 -1.526071e+00 -2.123934e+00 -2.429322e+00 -7.693621e-01 -4.264156e-01 -2.507092e+00 -1.103129e+00 6.606084e-01 -7.260289e-01 -1.886509e+00 3.016782e-01 6.330047e-01 -1.281968e+00 -5.833710e-01 9.838074e-01 -1.418870e-01 -7.570817e-01 8.770029e-01 3.807103e-01 -8.371820e-01 -1.097063e+00 -1.106143e+00 -1.254180e+00 -1.230517e+00 -1.371337e+00 -1.312250e+00 -1.435684e+00 -1.362523e+00 -1.466071e+00 -1.399942e+00 -1.476789e+00 -1.431441e+00 -1.470584e+00 -1.458223e+00 -1.455577e+00 -1.488655e+00 -1.441096e+00 -1.520410e+00 -1.423067e+00 -1.544761e+00 -1.404700e+00 -1.564718e+00 -1.394654e+00 -1.577340e+00 -1.390794e+00 -1.576478e+00 -1.397560e+00 -1.566603e+00 -1.419946e+00 -1.544681e+00 -1.451244e+00 -1.507471e+00 -1.491825e+00 -1.463911e+00 -1.542704e+00 -1.417089e+00 -1.593952e+00 -1.369890e+00 -1.642223e+00 -1.335535e+00 -1.685744e+00 -1.319374e+00 -1.716703e+00 -1.324558e+00 -1.748782e+00 -1.353459e+00 -1.856547e+00 -1.131276e+00 -2.447963e+00 -5.255580e+00 -1.516849e+00 3.226865e-01 1.510299e-01 2.262740e-02 
7.339599e-03 4.644241e-02 1.494423e-01 -5.739408e-02 -2.779300e+00 -5.630564e+00 -3.927946e+00 -2.647014e+00 -2.613605e+00 -2.475500e+00 -2.480789e+00 -2.355476e+00 -2.557650e+00 -2.407480e+00 -2.397365e+00 -2.422473e+00 -2.430724e+00 -2.456477e+00 -2.398162e+00 -2.438358e+00 -2.464913e+00 -2.471348e+00 -2.241804e+00 -2.442955e+00 -2.401610e+00 -2.582370e+00 -2.539728e+00 -2.643049e+00 -2.617315e+00 -2.661869e+00 -2.665585e+00 -2.665679e+00 -2.696785e+00 -2.662171e+00 -2.713650e+00 -2.657403e+00 -2.723721e+00 -2.656730e+00 -2.728713e+00 -2.656649e+00 -2.726493e+00 -2.657616e+00 -2.722135e+00 -2.662238e+00 -2.715014e+00 -2.663875e+00 -2.699995e+00 -2.659413e+00 -2.680199e+00 -2.649438e+00 -2.655265e+00 -2.626945e+00 -2.622199e+00 -2.591803e+00 -2.549619e+00 -2.126192e+00 -1.489882e+00 -1.848783e+00 -2.237512e+00 -1.352260e+00 -1.796267e+00 -3.463560e+00 -2.248088e+00 -1.202926e+00 -2.781734e+00 -3.080766e+00 -1.531185e+00 -1.814292e+00 -2.936601e+00 -2.320929e+00 -1.570062e+00 -1.904176e+00 -2.205931e+00 -2.103034e+00 -2.282562e+00 -2.388741e+00 -2.507754e+00 -2.517227e+00 -2.613820e+00 -2.588018e+00 -2.672777e+00 -2.630813e+00 -2.704114e+00 -2.660751e+00 -2.719781e+00 -2.684143e+00 -2.722317e+00 -2.703068e+00 -2.717328e+00 -2.724279e+00 -2.711092e+00 -2.746541e+00 -2.700774e+00 -2.764269e+00 -2.687969e+00 -2.780348e+00 -2.678247e+00 -2.793051e+00 -2.669992e+00 -2.798724e+00 -2.666075e+00 -2.800666e+00 -2.670403e+00 -2.796672e+00 -2.678978e+00 -2.784056e+00 -2.693097e+00 -2.768188e+00 -2.714862e+00 -2.749979e+00 -2.739199e+00 -2.729853e+00 -2.766169e+00 -2.715457e+00 -2.796735e+00 -2.710077e+00 -2.826504e+00 -2.718077e+00 -2.858528e+00 -2.751979e+00 -2.867118e+00 -3.265012e+00 -5.402679e+00 -4.626323e+00 -1.174432e+00 2.056033e-01 1.022398e-01 1.033257e-02 
-2.244691e-04 1.030666e-02 5.715406e-02 1.661723e-01 5.054729e-03 -1.772888e+00 -2.305088e+00 -1.077409e+00 -1.223915e+00 -9.818243e-01 -1.069002e+00 -1.177321e+00 -1.976230e+00 -1.685593e+00 -1.347665e+00 -1.347207e+00 -1.352035e+00 -1.347470e+00 -1.351374e+00 -1.349234e+00 -1.664702e+00 -1.767641e+00 -1.198796e+00 -1.075996e+00 -9.912318e-01 -1.078658e+00 -1.025595e+00 -1.091172e+00 -1.046206e+00 -1.095392e+00 -1.061276e+00 -1.095310e+00 -1.071947e+00 -1.092680e+00 -1.079275e+00 -1.088981e+00 -1.084527e+00 -1.084921e+00 -1.088358e+00 -1.080614e+00 -1.090657e+00 -1.076220e+00 -1.091387e+00 -1.071761e+00 -1.090085e+00 -1.066641e+00 -1.085934e+00 -1.059824e+00 -1.078345e+00 -1.049605e+00 -1.066834e+00 -1.037751e+00 -1.064236e+00 -1.015528e+00 -7.788405e-01 3.236019e-02 -5.592000e-01 -3.439874e+00 -2.478231e+00 -8.017747e-02 -1.521706e+00 -2.001767e+00 -1.167443e+00 -1.001727e+00 -2.014998e+00 -1.969243e+00 -1.044628e+00 -1.791032e+00 -2.614280e+00 -1.291998e+00 -1.749022e+00 -4.783100e+00 -3.692787e+00 -1.151724e+00 -8.958946e-01 -9.858408e-01 -1.016118e+00 -1.032042e+00 -1.039464e+00 -1.048287e+00 -1.056332e+00 -1.059976e+00 -1.068066e+00 -1.066982e+00 -1.076101e+00 -1.070935e+00 -1.081492e+00 -1.073196e+00 -1.084958e+00 -1.075000e+00 -1.086990e+00 -1.076739e+00 -1.087631e+00 -1.078542e+00 -1.086734e+00 -1.081027e+00 -1.084399e+00 -1.084285e+00 -1.080538e+00 -1.088442e+00 -1.075225e+00 -1.093705e+00 -1.068935e+00 -1.099872e+00 -1.061898e+00 -1.106538e+00 -1.054780e+00 -1.113468e+00 -1.048462e+00 -1.119995e+00 -1.043642e+00 -1.125165e+00 -1.041348e+00 -1.128103e+00 -1.041996e+00 -1.127505e+00 -1.043580e+00 -1.121488e+00 -1.036830e+00 -1.110460e+00 -9.648421e-01 -1.530121e+00 -2.500203e+00 -8.502963e-01 1.798749e-02 7.982194e-02 1.101409e-02 -4.190678e-03 
-9.464466e-04 3.171515e-03 1.054329e-02 3.684094e-02 7.738594e-02 -2.605228e-02 -1.801300e-01 -1.045439e-01 -7.016787e-02 -1.027898e-02 4.003904e-02 -2.444612e-01 -1.927181e+00 -1.722378e+00 -8.945595e-01 -8.928428e-01 -8.930356e-01 -8.928487e-01 -8.930101e-01 -8.936969e-01 -1.547295e+00 -1.731989e+00 -5.259377e-01 -1.312182e-01 -7.764176e-02 -7.702083e-02 -6.587563e-02 -6.392492e-02 -5.836816e-02 -5.978503e-02 -5.785976e-02 -5.942138e-02 -5.892788e-02 -5.968645e-02 -5.993487e-02 -5.980815e-02 -6.053201e-02 -5.965635e-02 -6.072142e-02 -5.926945e-02 -6.057693e-02 -5.874221e-02 -6.022307e-02 -5.822870e-02 -5.985269e-02 -5.794407e-02 -5.969852e-02 -5.810082e-02 -6.003250e-02 -5.904954e-02 -6.191154e-02 -6.412170e-02 -7.275573e-02 -6.452624e-02 2.870223e-02 3.852343e-02 -9.083389e-01 -1.732207e+00 -7.794541e-01 -8.391666e-01 -1.104226e+00 1.390055e-01 -3.250706e-01 -1.218621e+00 -3.157388e-01 1.877945e-01 -7.549337e-01 -8.934930e-01 -1.730434e-01 -2.121472e-01 -9.927106e-01 -1.392088e+00 -7.110803e-01 -1.023652e-01 -3.966238e-02 -4.835461e-02 -4.567451e-02 -4.338238e-02 -4.360468e-02 -4.582997e-02 -4.827267e-02 -5.048110e-02 -5.277885e-02 -5.405757e-02 -5.605159e-02 -5.640377e-02 -5.824864e-02 -5.783594e-02 -5.966584e-02 -5.867165e-02 -6.054400e-02 -5.914453e-02 -6.105182e-02 -5.942816e-02 -6.127993e-02 -5.965233e-02 -6.128026e-02 -5.989597e-02 -6.107980e-02 -6.021947e-02 -6.068755e-02 -6.065228e-02 -6.012183e-02 -6.120355e-02 -5.940490e-02 -6.185680e-02 -5.856412e-02 -6.255494e-02 -5.761229e-02 -6.316072e-02 -5.648963e-02 -6.336308e-02 -5.492261e-02 -6.249061e-02 -5.212226e-02 -5.921858e-02 -4.637493e-02 -5.151603e-02 -3.495639e-02 -3.777303e-02 -1.456457e-02 -7.853765e-02 -1.482476e-01 -1.726436e-03 2.368532e-02 6.990444e-04 -8.994937e-03 -5.229357e-03 
-1.533958e-03 -3.550146e-04 6.520412e-04 2.746471e-03 9.234006e-03 1.209118e-02 1.338855e-03 4.278771e-03 1.778508e-02 4.464791e-02 8.089493e-02 -6.219897e-02 -9.766472e-01 -8.796406e-01 -4.471820e-01 -4.462581e-01 -4.462564e-01 -4.462563e-01 -4.462568e-01 -4.466166e-01 -7.623252e-01 -8.542158e-01 -2.493123e-01 -4.800420e-02 -2.284652e-02 -1.750237e-02 -1.010529e-02 -4.699292e-03 -1.485846e-03 2.442589e-04 1.032972e-03 1.504997e-03 1.556777e-03 1.705352e-03 1.592865e-03 1.722093e-03 1.630792e-03 1.817451e-03 1.789989e-03 2.020779e-03 2.028411e-03 2.225567e-03 2.166199e-03 2.174934e-03 1.863899e-03 1.459649e-03 6.576563e-04 -4.142102e-04 -1.980154e-03 -4.048825e-03 -6.909201e-03 -1.115507e-02 -1.810971e-02 -2.747261e-02 -2.818035e-02 -5.950635e-03 -1.534797e-02 -7.175622e-02 -5.866099e-02 -2.975386e-02 -3.955269e-02 -2.095848e-02 -2.159356e-02 -6.022789e-02 -6.733894e-02 -5.907671e-02 -9.083882e-02 -1.270519e-01 -1.156082e-01 -1.064490e-01 -1.611421e-01 -1.494193e-01 -6.386960e-02 -3.013500e-02 -2.167820e-02 -1.162327e-02 -2.463506e-03 3.037864e-03 5.684698e-03 6.700322e-03 6.791727e-03 6.458689e-03 5.838396e-03 5.202768e-03 4.482220e-03 3.897853e-03 3.273881e-03 2.845122e-03 2.361389e-03 2.097688e-03 1.738801e-03 1.612417e-03 1.344250e-03 1.317486e-03 1.108229e-03 1.146584e-03 9.752663e-04 1.050966e-03 9.084847e-04 9.988368e-04 8.857336e-04 9.709087e-04 8.947777e-04 9.565453e-04 9.306560e-04 9.540444e-04 9.987190e-04 9.789240e-04 1.128746e-03 1.087571e-03 1.410118e-03 1.428359e-03 2.059727e-03 2.322767e-03 3.504586e-03 4.312748e-03 6.328418e-03 7.853654e-03 1.055638e-02 1.213514e-02 1.449027e-02 1.127248e-02 8.270149e-03 7.643304e-03 9.587081e-04 -3.120970e-03 -3.784541e-03 -2.643463e-03 
-2.742285e-05 -2.334055e-05 -1.917963e-05 -1.542077e-05 -1.165540e-05 -8.837109e-06 -5.163094e-06 -2.285258e-06 -1.223062e-06 -1.045691e-06 -4.492172e-06 -3.988267e-06 1.463057e-04 1.362256e-05 -3.700445e-09 6.904380e-10 6.393278e-10 7.445238e-10 8.564228e-10 -1.914431e-08 -4.122446e-05 4.880507e-04 -7.540192e-05 -4.535379e-05 7.477255e-06 2.889462e-05 4.203873e-05 6.042537e-05 7.968126e-05 1.038190e-04 1.316629e-04 1.669973e-04 2.110494e-04 2.664075e-04 3.361627e-04 4.206818e-04 5.237794e-04 6.408743e-04 7.729020e-04 9.045028e-04 1.026458e-03 1.104189e-03 1.109704e-03 9.837881e-04 6.777979e-04 1.151679e-04 -7.617287e-04 -2.026959e-03 -3.735538e-03 -5.949727e-03 -8.740639e-03 -1.221413e-02 -1.666154e-02 -2.241855e-02 -2.895621e-02 -3.355876e-02 -3.616663e-02 -3.958354e-02 -4.031851e-02 -3.754801e-02 -3.807784e-02 -4.008416e-02 -3.883692e-02 -4.073189e-02 -4.601284e-02 -4.868908e-02 -5.029422e-02 -5.485305e-02 -5.739232e-02 -5.615447e-02 -5.401379e-02 -4.645554e-02 -3.629934e-02 -2.750815e-02 -1.876334e-02 -1.081255e-02 -4.833811e-03 -8.684129e-04 1.574288e-03 2.961161e-03 3.614017e-03 3.800708e-03 3.673435e-03 3.380496e-03 2.986524e-03 2.569060e-03 2.151699e-03 1.770263e-03 1.429031e-03 1.138949e-03 8.958033e-04 6.978896e-04 5.388076e-04 4.126361e-04 3.137951e-04 2.366385e-04 1.770180e-04 1.311519e-04 9.585385e-05 6.931152e-05 4.874976e-05 3.391585e-05 2.217896e-05 1.431108e-05 7.822795e-06 3.993996e-06 6.003791e-07 -1.014021e-06 -2.692615e-06 -3.392474e-06 -4.491160e-06 -5.493977e-06 -7.187540e-06 -9.702179e-06 -1.299350e-05 -1.771076e-05 -2.268193e-05 -2.890984e-05 -3.401819e-05 -3.943341e-05 -4.222484e-05 -4.482634e-05 -4.429920e-05 -4.304338e-05 -4.152136e-05 -3.821139e-05 -3.536672e-05 -3.129138e-05 
1.485114e-03 3.113535e-04 -6.887514e-04 -2.777640e-03 -9.263326e-03 -1.212212e-02 -1.348545e-03 -4.273296e-03 -1.778981e-02 -4.465232e-02 -8.091400e-02 6.223217e-02 9.770175e-01 8.794313e-01 4.471815e-01 4.462581e-01 4.462564e-01 4.462563e-01 4.462568e-01 4.466166e-01 7.622578e-01 8.555708e-01 2.489424e-01 4.783229e-02 2.283734e-02 1.754085e-02 1.016712e-02 4.790457e-03 1.613793e-03 -7.661683e-05 -8.084944e-04 -1.219711e-03 -1.178313e-03 -1.226556e-03 -9.630934e-04 -9.313459e-04 -6.104649e-04 -5.613692e-04 -2.235622e-04 -1.643253e-04 1.616922e-04 2.009367e-04 4.399851e-04 3.610224e-04 3.615789e-04 -1.370546e-05 -4.654906e-04 -1.353015e-03 -2.465237e-03 -4.035730e-03 -5.927569e-03 -8.234874e-03 -1.088697e-02 -1.386072e-02 -1.707672e-02 -2.006602e-02 -2.228964e-02 -2.340712e-02 -2.349802e-02 -2.276233e-02 -2.202376e-02 -2.135968e-02 -2.072554e-02 -2.050121e-02 -2.081830e-02 -2.106737e-02 -2.136297e-02 -2.170879e-02 -2.171477e-02 -2.077139e-02 -1.907385e-02 -1.598257e-02 -1.229617e-02 -8.467046e-03 -4.843983e-03 -1.786869e-03 4.680326e-04 1.975476e-03 2.857875e-03 3.251174e-03 3.310445e-03 3.109713e-03 2.799109e-03 2.363752e-03 1.962171e-03 1.491211e-03 1.140356e-03 7.234914e-04 4.774264e-04 1.387941e-04 1.390567e-06 -2.679089e-04 -3.158900e-04 -5.350006e-04 -5.189886e-04 -7.044703e-04 -6.485788e-04 -8.096172e-04 -7.352502e-04 -8.733303e-04 -8.001271e-04 -9.103757e-04 -8.575150e-04 -9.309059e-04 -9.186014e-04 -9.458813e-04 -9.985341e-04 -9.784828e-04 -1.133133e-03 -1.090165e-03 -1.416377e-03 -1.433580e-03 -2.069434e-03 -2.334324e-03 -3.523090e-03 -4.337248e-03 -6.362464e-03 -7.896750e-03 -1.060861e-02 -1.219508e-02 -1.455423e-02 -1.134100e-02 -8.334877e-03 -7.704475e-03 -1.020899e-03 3.061657e-03 3.726969e-03 2.590068e-03 
9.146101e-04 -3.204422e-03 -1.057132e-02 -3.688153e-02 -7.749459e-02 2.592195e-02 1.800993e-01 1.047149e-01 7.016378e-02 1.036668e-02 -4.009143e-02 2.445403e-01 1.927467e+00 1.722248e+00 8.945594e-01 8.928424e-01 8.930366e-01 8.928492e-01 8.930111e-01 8.936976e-01 1.546829e+00 1.732674e+00 5.258203e-01 1.310733e-01 7.765746e-02 7.693970e-02 6.594968e-02 6.384951e-02 5.852550e-02 5.974212e-02 5.813652e-02 5.945237e-02 5.937727e-02 5.986414e-02 6.065241e-02 6.025879e-02 6.166404e-02 6.058840e-02 6.247108e-02 6.095357e-02 6.318348e-02 6.142830e-02 6.384935e-02 6.198834e-02 6.440210e-02 6.248297e-02 6.466066e-02 6.267384e-02 6.441491e-02 6.235900e-02 6.357748e-02 6.152576e-02 6.231583e-02 6.044866e-02 6.112354e-02 5.997576e-02 6.151546e-02 6.045840e-02 6.038148e-02 6.240826e-02 6.271546e-02 6.206809e-02 6.418615e-02 6.609468e-02 6.522698e-02 6.576770e-02 6.747578e-02 6.808077e-02 6.641356e-02 6.868698e-02 6.882462e-02 6.923979e-02 6.969120e-02 7.112417e-02 7.056253e-02 7.107022e-02 7.014903e-02 6.992760e-02 6.884258e-02 6.807223e-02 6.715332e-02 6.605627e-02 6.555438e-02 6.425091e-02 6.428062e-02 6.280179e-02 6.337091e-02 6.171404e-02 6.276502e-02 6.093840e-02 6.237092e-02 6.042034e-02 6.209572e-02 6.011987e-02 6.185787e-02 6.001275e-02 6.159167e-02 6.008693e-02 6.124575e-02 6.033556e-02 6.078500e-02 6.074842e-02 6.019104e-02 6.130687e-02 5.946251e-02 6.197434e-02 5.861246e-02 6.267968e-02 5.764731e-02 6.327753e-02 5.650631e-02 6.345687e-02 5.491442e-02 6.255258e-02 5.208894e-02 5.924345e-02 4.631900e-02 5.150664e-02 3.488575e-02 3.774376e-02 1.449763e-02 7.852631e-02 1.482382e-01 1.743704e-03 -2.368648e-02 -7.093374e-04 8.973620e-03 5.201910e-03 
2.120011e-04 -1.032313e-02 -5.717215e-02 -1.663189e-01 -5.623285e-03 1.773113e+00 2.304803e+00 1.078852e+00 1.224024e+00 9.831528e-01 1.069156e+00 1.178704e+00 1.977030e+00 1.684734e+00 1.347671e+00 1.347198e+00 1.352057e+00 1.347480e+00 1.351400e+00 1.349264e+00 1.664000e+00 1.768055e+00 1.198599e+00 1.074643e+00 9.917425e-01 1.077287e+00 1.026746e+00 1.089912e+00 1.048438e+00 1.094445e+00 1.064565e+00 1.094566e+00 1.076137e+00 1.092275e+00 1.084467e+00 1.089046e+00 1.090390e+00 1.085794e+00 1.094826e+00 1.083381e+00 1.098531e+00 1.082113e+00 1.101709e+00 1.082090e+00 1.104777e+00 1.083797e+00 1.108322e+00 1.087517e+00 1.112696e+00 1.093444e+00 1.118624e+00 1.102071e+00 1.126908e+00 1.113497e+00 1.137878e+00 1.128576e+00 1.152154e+00 1.128180e+00 1.122678e+00 1.135439e+00 1.121338e+00 1.090258e+00 1.103702e+00 1.111208e+00 1.086474e+00 1.077023e+00 1.095792e+00 1.089013e+00 1.065175e+00 1.080014e+00 1.084015e+00 1.073624e+00 1.077828e+00 1.092938e+00 1.092203e+00 1.100229e+00 1.097804e+00 1.100890e+00 1.098950e+00 1.097912e+00 1.098170e+00 1.093708e+00 1.097025e+00 1.089396e+00 1.095928e+00 1.085528e+00 1.095016e+00 1.082488e+00 1.094077e+00 1.080262e+00 1.092757e+00 1.079084e+00 1.091103e+00 1.079378e+00 1.088898e+00 1.081034e+00 1.085702e+00 1.084073e+00 1.081559e+00 1.088685e+00 1.076455e+00 1.094526e+00 1.070299e+00 1.101278e+00 1.063457e+00 1.108589e+00 1.056340e+00 1.115711e+00 1.049573e+00 1.122044e+00 1.044328e+00 1.126914e+00 1.041487e+00 1.129167e+00 1.041355e+00 1.127756e+00 1.042500e+00 1.121338e+00 1.035653e+00 1.110060e+00 9.637002e-01 1.530150e+00 2.499911e+00 8.501855e-01 -1.793767e-02 -7.982831e-02 -1.100884e-02 4.188053e-03 
-7.347632e-03 -4.644667e-02 -1.494647e-01 5.715995e-02 2.778470e+00 5.631162e+00 3.927211e+00 2.647982e+00 2.612978e+00 2.477304e+00 2.481690e+00 2.357809e+00 2.557765e+00 2.407407e+00 2.397409e+00 2.422687e+00 2.430931e+00 2.456213e+00 2.398573e+00 2.437708e+00 2.463721e+00 2.468622e+00 2.243245e+00 2.443412e+00 2.404350e+00 2.580777e+00 2.541075e+00 2.641767e+00 2.622490e+00 2.663527e+00 2.672377e+00 2.665986e+00 2.703389e+00 2.663834e+00 2.723941e+00 2.661179e+00 2.733762e+00 2.659061e+00 2.738537e+00 2.664312e+00 2.743612e+00 2.674631e+00 2.744232e+00 2.684588e+00 2.742135e+00 2.698624e+00 2.743445e+00 2.717299e+00 2.747213e+00 2.738976e+00 2.756865e+00 2.767309e+00 2.774688e+00 2.798486e+00 2.796536e+00 2.831807e+00 2.827122e+00 2.849377e+00 2.819852e+00 2.879052e+00 2.839542e+00 2.846477e+00 2.844405e+00 2.884511e+00 2.844339e+00 2.857879e+00 2.870955e+00 2.869967e+00 2.845679e+00 2.854950e+00 2.866620e+00 2.829515e+00 2.848437e+00 2.820842e+00 2.847136e+00 2.800647e+00 2.837253e+00 2.777713e+00 2.821301e+00 2.755426e+00 2.805262e+00 2.741384e+00 2.791756e+00 2.734038e+00 2.776884e+00 2.732298e+00 2.762394e+00 2.737691e+00 2.746943e+00 2.744819e+00 2.727450e+00 2.753818e+00 2.710621e+00 2.768568e+00 2.697526e+00 2.781808e+00 2.683584e+00 2.790771e+00 2.674426e+00 2.798748e+00 2.672055e+00 2.800930e+00 2.673695e+00 2.796505e+00 2.682783e+00 2.787803e+00 2.697854e+00 2.771971e+00 2.716102e+00 2.753057e+00 2.741206e+00 2.736537e+00 2.769159e+00 2.719997e+00 2.794435e+00 2.710100e+00 2.823182e+00 2.719208e+00 2.856734e+00 2.751570e+00 2.863599e+00 3.263546e+00 5.402364e+00 4.625419e+00 1.174899e+00 -2.059636e-01 -1.023525e-01 -1.035484e-02 
-7.974203e-03 -4.899863e-02 -9.653436e-02 5.394207e-01 4.298676e+00 3.834812e+00 1.257022e-01 1.697522e+00 1.037790e+00 1.362711e+00 1.013525e+00 8.057613e-01 7.416689e-02 7.705987e-02 4.669990e-01 1.893933e-01 2.928615e-01 1.439405e-01 3.340530e-01 3.483169e-01 8.764759e-02 3.018715e-01 8.319152e-01 1.109247e+00 1.216875e+00 1.255637e+00 1.326987e+00 1.307598e+00 1.394294e+00 1.329835e+00 1.433456e+00 1.336502e+00 1.455042e+00 1.342052e+00 1.467478e+00 1.348686e+00 1.468358e+00 1.355884e+00 1.464626e+00 1.372346e+00 1.463076e+00 1.393828e+00 1.456005e+00 1.411585e+00 1.445107e+00 1.431116e+00 1.438287e+00 1.452255e+00 1.432864e+00 1.471604e+00 1.432063e+00 1.493475e+00 1.437442e+00 1.512028e+00 1.442465e+00 1.525925e+00 1.458401e+00 1.564625e+00 1.530667e+00 1.595123e+00 1.574570e+00 1.669237e+00 1.626750e+00 1.676738e+00 1.679387e+00 1.725287e+00 1.694449e+00 1.717130e+00 1.737649e+00 1.712765e+00 1.719167e+00 1.688526e+00 1.702860e+00 1.618141e+00 1.659515e+00 1.562938e+00 1.626146e+00 1.520921e+00 1.594889e+00 1.489478e+00 1.568736e+00 1.474704e+00 1.548083e+00 1.471623e+00 1.525838e+00 1.477146e+00 1.504212e+00 1.492540e+00 1.481430e+00 1.509240e+00 1.453402e+00 1.526702e+00 1.430367e+00 1.549729e+00 1.414514e+00 1.567107e+00 1.399848e+00 1.574292e+00 1.395126e+00 1.575768e+00 1.403622e+00 1.564738e+00 1.421357e+00 1.540618e+00 1.452875e+00 1.507860e+00 1.494922e+00 1.463892e+00 1.541497e+00 1.416532e+00 1.595112e+00 1.375822e+00 1.646443e+00 1.339973e+00 1.683815e+00 1.318906e+00 1.714372e+00 1.326842e+00 1.749109e+00 1.353934e+00 1.854133e+00 1.129190e+00 2.448876e+00 5.254455e+00 1.517239e+00 -3.233875e-01 -1.512772e-01 -2.267844e-02 
1.952522e-03 -1.912479e-02 -3.427420e-02 2.664292e-01 1.627776e+00 -6.465683e-01 -2.704248e+00 -4.240227e-01 -9.730498e-01 -6.176543e-01 -8.832758e-01 -4.326159e-01 2.007385e-01 -4.916399e-01 -1.289134e+00 -1.220141e+00 -1.058174e+00 -1.210176e+00 -1.071308e+00 -1.324271e+00 -3.740335e-01 -1.206868e-01 -4.423028e-01 -7.852169e-01 -7.125295e-01 -8.054920e-01 -7.061732e-01 -7.993602e-01 -7.056660e-01 -7.940747e-01 -7.071445e-01 -7.883590e-01 -7.105302e-01 -7.807230e-01 -7.146601e-01 -7.721313e-01 -7.211071e-01 -7.636475e-01 -7.279420e-01 -7.528406e-01 -7.331815e-01 -7.415874e-01 -7.397754e-01 -7.333238e-01 -7.475599e-01 -7.267208e-01 -7.544265e-01 -7.224538e-01 -7.621039e-01 -7.223255e-01 -7.705261e-01 -7.254365e-01 -7.801176e-01 -7.339053e-01 -7.935001e-01 -7.486251e-01 -8.041090e-01 -7.289445e-01 -7.373342e-01 -7.254248e-01 -7.131104e-01 -6.369949e-01 -6.740819e-01 -6.591918e-01 -6.270494e-01 -5.982072e-01 -6.351933e-01 -6.130364e-01 -5.778028e-01 -6.067703e-01 -6.092580e-01 -6.074974e-01 -6.094569e-01 -6.608867e-01 -6.435671e-01 -6.914314e-01 -6.630165e-01 -7.096586e-01 -6.770051e-01 -7.199540e-01 -6.869513e-01 -7.223039e-01 -6.942338e-01 -7.195622e-01 -7.019603e-01 -7.134581e-01 -7.095986e-01 -7.040208e-01 -7.177310e-01 -6.945439e-01 -7.275892e-01 -6.855979e-01 -7.354076e-01 -6.759954e-01 -7.400591e-01 -6.699761e-01 -7.431702e-01 -6.694525e-01 -7.413267e-01 -6.731631e-01 -7.330833e-01 -6.834745e-01 -7.196313e-01 -7.004217e-01 -6.995161e-01 -7.220577e-01 -6.743344e-01 -7.485394e-01 -6.470730e-01 -7.762239e-01 -6.183543e-01 -8.006059e-01 -5.933518e-01 -8.215470e-01 -5.785616e-01 -8.364502e-01 -5.746438e-01 -8.467757e-01 -5.814883e-01 -8.831683e-01 -5.655286e-01 -1.614325e+00 -1.844612e+00 1.383745e+00 5.661411e-01 -8.920486e-02 -3.512730e-02 2.314241e-03 
4.828869e-03 1.439738e-03 -6.269365e-04 3.987435e-02 1.244844e-01 -7.074044e-01 -1.145947e+00 -4.272658e-01 -5.291735e-01 -4.363899e-01 -5.137982e-01 -2.788406e-01 6.102611e-01 2.268405e+00 3.059159e+00 2.774471e+00 2.785801e+00 2.866784e+00 2.667678e+00 2.952591e+00 2.388887e+00 4.065702e-01 -3.117128e-01 -5.079543e-01 -4.690763e-01 -5.041327e-01 -4.724202e-01 -5.070676e-01 -4.807839e-01 -5.070759e-01 -4.861480e-01 -5.049478e-01 -4.901019e-01 -5.021119e-01 -4.932554e-01 -4.992040e-01 -4.958330e-01 -4.965271e-01 -4.979441e-01 -4.942519e-01 -4.996878e-01 -4.925464e-01 -5.012267e-01 -4.916584e-01 -5.028436e-01 -4.919444e-01 -5.049521e-01 -4.938041e-01 -5.080053e-01 -4.975084e-01 -5.123157e-01 -5.029773e-01 -5.179008e-01 -5.106925e-01 -5.280544e-01 -5.255700e-01 -5.404020e-01 -5.239461e-01 -5.230664e-01 -5.297707e-01 -5.176187e-01 -4.918161e-01 -5.005633e-01 -5.034332e-01 -4.854214e-01 -4.775234e-01 -4.891862e-01 -4.837226e-01 -4.674011e-01 -4.745238e-01 -4.782144e-01 -4.714387e-01 -4.724942e-01 -4.848902e-01 -4.863641e-01 -4.929246e-01 -4.902333e-01 -4.949626e-01 -4.923314e-01 -4.956396e-01 -4.934604e-01 -4.951774e-01 -4.939968e-01 -4.939986e-01 -4.942628e-01 -4.924371e-01 -4.944608e-01 -4.907730e-01 -4.946915e-01 -4.892229e-01 -4.949471e-01 -4.879617e-01 -4.951226e-01 -4.871675e-01 -4.950494e-01 -4.870108e-01 -4.945337e-01 -4.876472e-01 -4.933648e-01 -4.892025e-01 -4.913720e-01 -4.917321e-01 -4.884550e-01 -4.952146e-01 -4.846253e-01 -4.995294e-01 -4.800717e-01 -5.044473e-01 -4.751942e-01 -5.096393e-01 -4.706495e-01 -5.147575e-01 -4.673840e-01 -5.196588e-01 -4.666746e-01 -5.249396e-01 -4.700971e-01 -5.334747e-01 -4.788314e-01 -5.558440e-01 -4.883790e-01 -8.509210e-01 -1.103580e+00 -1.253155e-01 2.979613e-02 1.181972e-02 9.848559e-03 7.559048e-03 
