# vtk DataFile Version 2.0
Comment goes here
ASCII

DATASET STRUCTURED_POINTS
FIELD FieldData 1
TIME 1 1 double
0.39000000
DIMENSIONS    128   16   1

ORIGIN    0.000   0.000   0.000
SPACING   0.0078125 0.015625   1.000

POINT_DATA   2048
SCALARS Omega double
LOOKUP_TABLE default

8.088130e-05 5.294767e-05 3.529712e-05 1.375512e-05 -2.533893e-05 -4.284883e-05 -8.316979e-05 -3.143144e-05 -9.144473e-05 -8.058760e-05 -1.457602e-04 -1.535907e-04 -2.622407e-04 -1.560526e-04 -2.239957e-04 -1.907170e-04 -2.334519e-04 -2.071751e-04 -2.219532e-04 -2.173750e-04 -1.485350e-04 -1.288871e-04 -7.172225e-05 -6.319578e-05 -1.665563e-05 -5.208425e-05 -6.911991e-06 -7.179963e-05 -1.819899e-05 -9.137309e-05 -3.067498e-05 -1.066110e-04 -3.683057e-05 -1.005043e-04 -2.002118e-05 -6.872195e-05 2.038050e-05 5.047538e-06 1.353541e-04 2.053093e-04 4.431174e-04 6.746364e-04 1.094320e-03 1.538676e-03 2.123248e-03 2.569204e-03 2.694150e-03 1.852591e-03 -5.915254e-04 -5.467226e-03 -1.318760e-02 -2.321145e-02 -3.330676e-02 -4.047716e-02 -5.206026e-02 -9.574629e-02 -1.508156e-01 -7.268601e-02 -5.275664e-02 -2.020352e-01 -1.099267e-01 9.760708e-02 -3.901709e-02 -1.612407e-01 6.764491e-02 1.145009e-01 -8.991662e-02 -2.245130e-02 1.730308e-01 7.435416e-02 -2.312705e-02 8.376669e-02 9.032709e-02 3.734489e-02 4.313402e-02 4.371317e-02 3.267701e-02 2.001096e-02 1.018019e-02 3.703169e-03 1.875194e-04 -1.364195e-03 -1.620301e-03 -1.373930e-03 -8.789904e-04 -4.908333e-04 -1.406088e-04 2.979150e-05 1.898624e-04 2.295916e-04 3.005148e-04 2.857719e-04 3.069400e-04 2.618811e-04 2.501764e-04 2.023982e-04 1.918392e-04 1.658736e-04 1.568346e-04 1.367072e-04 1.205950e-04 1.086667e-04 9.297436e-05 8.891480e-05 7.201826e-05 7.041060e-05 5.039072e-05 4.822246e-05 3.125979e-05 3.582304e-05 2.356150e-05 2.377331e-05 8.101344e-06 9.682235e-06 5.183993e-06 2.169135e-05 4.321685e-05 9.016739e-05 1.427773e-04 2.086553e-04 2.590956e-04 3.071852e-04 3.184318e-04 3.037886e-04 2.733456e-04 2.198901e-04 1.667647e-04 1.193541e-04 
-4.736571e-03 -7.447326e-03 -4.550272e-03 3.414406e-02 7.491573e-03 -9.641580e-01 -6.832262e-01 -1.627779e-01 -4.880319e-01 -2.994347e-01 -3.954853e-01 -3.943905e-02 3.738292e-01 1.190440e+00 1.661299e+00 1.674952e+00 1.453269e+00 1.666016e+00 1.485370e+00 1.581874e+00 1.377609e+00 3.115070e-01 -1.137052e-01 -3.464462e-01 -3.282392e-01 -3.669670e-01 -3.296486e-01 -3.708512e-01 -3.354072e-01 -3.735707e-01 -3.403268e-01 -3.747628e-01 -3.443901e-01 -3.729185e-01 -3.463891e-01 -3.692898e-01 -3.487781e-01 -3.659831e-01 -3.506851e-01 -3.607556e-01 -3.509393e-01 -3.552302e-01 -3.507233e-01 -3.490409e-01 -3.496679e-01 -3.437219e-01 -3.494148e-01 -3.397444e-01 -3.515080e-01 -3.407083e-01 -3.590182e-01 -3.420219e-01 -3.543705e-01 -3.290003e-01 -4.525421e-01 -8.434942e-01 -1.307814e+00 4.745317e-01 8.730775e-01 -1.649994e+00 -1.441046e-01 2.817699e+00 5.251644e-01 -1.555841e+00 1.874564e+00 2.373463e+00 -8.455244e-01 1.040235e-01 2.597159e+00 1.020301e+00 -4.254710e-01 1.732966e+00 1.640329e+00 -8.434045e-02 -3.438552e-01 -3.370891e-01 -3.205352e-01 -3.357439e-01 -3.383245e-01 -3.504325e-01 -3.494721e-01 -3.551130e-01 -3.538626e-01 -3.567330e-01 -3.563702e-01 -3.560207e-01 -3.569692e-01 -3.548741e-01 -3.568661e-01 -3.530790e-01 -3.564441e-01 -3.531628e-01 -3.567582e-01 -3.531357e-01 -3.550674e-01 -3.542536e-01 -3.550913e-01 -3.580766e-01 -3.543117e-01 -3.622961e-01 -3.534116e-01 -3.674637e-01 -3.512204e-01 -3.725020e-01 -3.495775e-01 -3.773981e-01 -3.460209e-01 -3.792830e-01 -3.428103e-01 -3.805917e-01 -3.408830e-01 -3.790600e-01 -3.400605e-01 -3.744956e-01 -3.409712e-01 -3.667968e-01 -3.440342e-01 -3.554907e-01 -3.447089e-01 -3.362924e-01 -3.271255e-01 -3.643329e-01 -7.337804e-01 -3.439129e-01 -5.316764e-02 -2.910587e-02 -1.360603e-02 -5.406644e-03 
-7.817996e-03 -1.590894e-02 1.809897e-02 3.702718e-01 9.696742e-01 -1.984886e+00 -1.389286e+00 2.231140e-01 -8.570300e-01 -2.909924e-01 -6.176218e-01 -6.014823e-02 -4.898608e-01 -3.526938e-01 -1.020237e+00 -7.933052e-01 -8.705201e-01 -7.641593e-01 -8.768290e-01 -8.563609e-01 -4.198913e-01 -5.649171e-01 -2.736178e-01 -4.894127e-01 -4.650206e-01 -5.211531e-01 -4.511426e-01 -5.230844e-01 -4.410339e-01 -5.278802e-01 -4.418902e-01 -5.398667e-01 -4.425678e-01 -5.319638e-01 -4.293862e-01 -5.185478e-01 -4.340044e-01 -5.210313e-01 -4.460009e-01 -5.091319e-01 -4.444114e-01 -4.895467e-01 -4.491666e-01 -4.774857e-01 -4.586398e-01 -4.614997e-01 -4.579142e-01 -4.370499e-01 -4.601153e-01 -4.268430e-01 -4.721055e-01 -4.108316e-01 -4.609787e-01 -3.973422e-01 -5.766599e-01 -5.269579e-01 -3.841174e-01 9.362290e-01 5.458011e-01 -9.609058e-01 -2.299344e-01 6.628368e-01 -1.707462e-01 -9.380786e-01 4.674796e-01 4.572819e-01 -7.130879e-01 -8.129253e-02 7.044528e-01 -1.759857e-01 -4.133438e-01 2.139760e+00 1.757237e+00 -4.135590e-01 -6.535354e-01 -6.372187e-01 -5.260694e-01 -5.478176e-01 -4.840711e-01 -5.203150e-01 -4.670616e-01 -4.906970e-01 -4.551724e-01 -4.732954e-01 -4.624301e-01 -4.632498e-01 -4.709860e-01 -4.521688e-01 -4.794507e-01 -4.435262e-01 -4.875167e-01 -4.359415e-01 -4.851118e-01 -4.203551e-01 -4.751774e-01 -4.251466e-01 -4.859719e-01 -4.492319e-01 -4.818036e-01 -4.566264e-01 -4.587043e-01 -4.728005e-01 -4.458028e-01 -5.043435e-01 -4.330490e-01 -5.281881e-01 -4.076299e-01 -5.449421e-01 -3.884946e-01 -5.562198e-01 -3.671531e-01 -5.505366e-01 -3.583506e-01 -5.457906e-01 -3.748455e-01 -5.297294e-01 -3.987457e-01 -4.858823e-01 -4.223450e-01 -4.174225e-01 -4.252602e-01 -4.098295e-01 -1.600573e+00 2.059981e-01 7.932575e-01 1.250818e-04 -5.285922e-02 -1.488448e-02 
-9.063425e-03 -3.368083e-02 3.059780e-02 8.685824e-01 3.092762e+00 1.220339e+00 1.376973e-01 1.319958e+00 6.427225e-01 9.235600e-01 6.450079e-01 4.918669e-01 4.059395e-01 2.037738e-01 4.784834e-01 2.678664e-01 3.827767e-01 2.383220e-01 3.855862e-01 3.969966e-01 1.768895e-01 6.077222e-01 4.739743e-01 7.977869e-01 7.650905e-01 8.910085e-01 8.310359e-01 8.948638e-01 8.801506e-01 8.874230e-01 9.028157e-01 8.561274e-01 9.246518e-01 8.640076e-01 9.739504e-01 8.764491e-01 9.753432e-01 8.457820e-01 9.527605e-01 8.438765e-01 9.593232e-01 8.637882e-01 9.461187e-01 8.583322e-01 9.149020e-01 8.709844e-01 9.164608e-01 9.066743e-01 9.036945e-01 8.998830e-01 8.563491e-01 8.774965e-01 8.087260e-01 8.278828e-01 7.759737e-01 9.679914e-01 1.000098e+00 -9.802671e-02 -3.030464e-01 1.168522e+00 1.265031e-01 -1.193493e+00 -2.453968e-01 7.826970e-01 -1.096738e+00 -1.286671e+00 2.251496e-01 -3.895502e-01 -1.528262e+00 -7.429238e-01 -6.186532e-02 -1.756097e+00 -1.533947e+00 -6.886190e-02 4.172335e-01 4.864940e-01 6.843748e-01 6.635254e-01 8.178433e-01 7.606752e-01 8.920875e-01 8.523470e-01 9.461447e-01 9.138071e-01 9.445398e-01 9.419788e-01 9.252442e-01 9.686068e-01 8.992050e-01 9.819600e-01 8.713339e-01 1.005996e+00 8.799131e-01 1.052144e+00 8.954781e-01 1.046315e+00 8.638185e-01 1.003834e+00 8.709530e-01 1.012573e+00 9.336830e-01 1.001781e+00 9.575009e-01 9.439163e-01 9.859493e-01 9.070317e-01 1.037789e+00 8.677164e-01 1.074203e+00 8.406598e-01 1.127250e+00 8.430621e-01 1.151703e+00 8.219935e-01 1.115479e+00 8.150615e-01 1.076667e+00 8.702870e-01 1.028075e+00 9.456433e-01 9.106695e-01 1.003756e+00 1.727962e-01 3.218808e+00 2.748666e+00 1.449600e-01 -8.787133e-02 -2.131547e-02 
-1.093136e-02 -2.450146e-02 3.158200e-02 6.694615e-01 2.684359e+00 4.395744e+00 1.970674e+00 1.231085e+00 1.925074e+00 1.514459e+00 1.783278e+00 1.456884e+00 1.775752e+00 1.575026e+00 1.724258e+00 1.603995e+00 1.720067e+00 1.649432e+00 1.671615e+00 1.679938e+00 1.658368e+00 1.630936e+00 1.547956e+00 1.783658e+00 1.605124e+00 1.822594e+00 1.665059e+00 1.835391e+00 1.710440e+00 1.832834e+00 1.738303e+00 1.812540e+00 1.764751e+00 1.810723e+00 1.803831e+00 1.807047e+00 1.811751e+00 1.775705e+00 1.802073e+00 1.758444e+00 1.807762e+00 1.756485e+00 1.799782e+00 1.736216e+00 1.778233e+00 1.732296e+00 1.781270e+00 1.743296e+00 1.770961e+00 1.723270e+00 1.735097e+00 1.686866e+00 1.694582e+00 1.628535e+00 1.582510e+00 1.128436e+00 6.092561e-01 1.039091e+00 1.413161e+00 5.609952e-01 9.490430e-01 2.422713e+00 1.248276e+00 4.404551e-01 1.783613e+00 2.135833e+00 6.629392e-01 9.275581e-01 2.106600e+00 1.429024e+00 8.680817e-01 1.292470e+00 1.677550e+00 1.368051e+00 1.384545e+00 1.466883e+00 1.593532e+00 1.603480e+00 1.699153e+00 1.677211e+00 1.760888e+00 1.743240e+00 1.807396e+00 1.791917e+00 1.815602e+00 1.812176e+00 1.804601e+00 1.829084e+00 1.785288e+00 1.833932e+00 1.763192e+00 1.852602e+00 1.768948e+00 1.885745e+00 1.772538e+00 1.886396e+00 1.750188e+00 1.870800e+00 1.752670e+00 1.891130e+00 1.794015e+00 1.900340e+00 1.804919e+00 1.875610e+00 1.821991e+00 1.864033e+00 1.849216e+00 1.839408e+00 1.867589e+00 1.821302e+00 1.902405e+00 1.814084e+00 1.921237e+00 1.781606e+00 1.904909e+00 1.752536e+00 1.899079e+00 1.766368e+00 1.897796e+00 1.804633e+00 1.870136e+00 2.035373e+00 2.763190e+00 3.632564e+00 1.845579e+00 -6.297999e-02 -1.009973e-01 -2.628509e-02 
-1.851948e-02 -2.097707e-02 -3.989957e-02 -4.417761e-04 5.278055e-01 2.410960e+00 1.262950e+00 2.637009e-01 9.418677e-01 6.227875e-01 9.530336e-01 9.779552e-01 1.057111e+00 9.508484e-01 8.658011e-01 8.603178e-01 8.679150e-01 8.630944e-01 8.649714e-01 8.682564e-01 9.982601e-01 9.825654e-01 8.869571e-01 8.144579e-01 7.265844e-01 8.236651e-01 7.586327e-01 8.377868e-01 7.706444e-01 8.397230e-01 7.793397e-01 8.390149e-01 7.868651e-01 8.345199e-01 7.915260e-01 8.275842e-01 7.958849e-01 8.208582e-01 7.989883e-01 8.120752e-01 8.004927e-01 8.046200e-01 8.017526e-01 7.964920e-01 8.022422e-01 7.915341e-01 8.048276e-01 7.860766e-01 8.035224e-01 7.763631e-01 7.990870e-01 7.642577e-01 7.894452e-01 7.005242e-01 5.945831e-01 6.837421e-01 1.681939e+00 3.025379e+00 1.871602e+00 8.558766e-01 1.693735e+00 1.474466e+00 1.374285e+00 1.405550e+00 1.830640e+00 1.518712e+00 1.466530e+00 1.972473e+00 1.943771e+00 1.449289e+00 1.701864e+00 4.376231e+00 3.786169e+00 1.078605e+00 7.019706e-01 7.724644e-01 7.915497e-01 8.042793e-01 8.013180e-01 8.060313e-01 8.054416e-01 8.068083e-01 8.092316e-01 8.098316e-01 8.122536e-01 8.096769e-01 8.114171e-01 8.089254e-01 8.087753e-01 8.065984e-01 8.055224e-01 8.086275e-01 8.051191e-01 8.110057e-01 8.010026e-01 8.137865e-01 7.993847e-01 8.206644e-01 7.979823e-01 8.294073e-01 7.987246e-01 8.388128e-01 7.963802e-01 8.458413e-01 7.960845e-01 8.526021e-01 7.931907e-01 8.525851e-01 7.910087e-01 8.517449e-01 7.923629e-01 8.464312e-01 7.953249e-01 8.356938e-01 8.013818e-01 8.238669e-01 8.183252e-01 8.205912e-01 8.522887e-01 8.385623e-01 9.172034e-01 9.827432e-01 1.688124e+00 1.016880e+00 9.834767e-02 -9.314609e-02 -4.486349e-02 -2.226154e-02 
-1.947006e-02 -1.430206e-02 -1.438819e-02 -2.597974e-02 -1.463357e-02 1.421346e-01 1.374814e-01 3.528207e-02 7.324568e-02 8.134645e-02 2.266040e-01 6.734836e-01 1.036693e+00 7.840706e-01 5.551313e-01 5.545993e-01 5.549103e-01 5.547100e-01 5.547943e-01 5.556982e-01 9.637381e-01 1.066187e+00 3.328497e-01 2.626147e-02 1.789021e-02 5.020752e-02 5.722412e-02 6.696010e-02 6.402432e-02 6.927214e-02 6.536668e-02 6.903308e-02 6.551900e-02 6.817976e-02 6.550247e-02 6.744386e-02 6.578441e-02 6.708407e-02 6.629204e-02 6.694151e-02 6.699888e-02 6.722109e-02 6.801809e-02 6.780024e-02 6.905896e-02 6.814819e-02 6.890555e-02 6.593626e-02 6.437424e-02 5.792956e-02 5.398543e-02 4.666941e-02 4.238028e-02 1.803087e-02 -1.108681e-02 2.882517e-01 1.159183e+00 1.371116e+00 6.004063e-01 1.024525e+00 9.223246e-01 -1.630846e-01 7.065766e-01 1.248534e+00 1.460029e-01 -6.320837e-02 1.050894e+00 7.586941e-01 -2.007329e-02 4.331639e-01 7.054769e-01 8.024396e-01 4.931689e-01 3.922853e-02 2.379434e-02 5.811627e-02 6.845363e-02 7.226131e-02 7.272293e-02 7.367765e-02 7.290417e-02 7.227883e-02 7.100359e-02 6.994095e-02 6.892234e-02 6.784139e-02 6.730340e-02 6.639951e-02 6.625249e-02 6.546328e-02 6.562652e-02 6.507112e-02 6.530782e-02 6.486079e-02 6.491836e-02 6.488051e-02 6.473683e-02 6.523200e-02 6.451576e-02 6.570686e-02 6.430176e-02 6.632596e-02 6.397652e-02 6.698943e-02 6.370584e-02 6.766662e-02 6.327070e-02 6.811224e-02 6.293642e-02 6.856675e-02 6.286076e-02 6.892845e-02 6.330474e-02 6.961647e-02 6.516710e-02 7.200562e-02 7.066518e-02 7.902365e-02 8.246758e-02 9.207383e-02 1.006934e-01 1.350517e-01 1.804348e-01 3.908076e-02 -4.616999e-02 -3.828043e-02 -2.693959e-02 -2.270254e-02 
-1.213895e-02 -1.052026e-02 -9.203218e-03 -1.038494e-02 -1.436779e-02 -1.361720e-02 -6.619836e-03 -6.277079e-03 2.029564e-03 2.036066e-02 8.971605e-02 3.302787e-01 5.082042e-01 3.914740e-01 2.768637e-01 2.767124e-01 2.767122e-01 2.767121e-01 2.767130e-01 2.771436e-01 4.942340e-01 5.453484e-01 1.134688e-01 -5.234882e-02 -4.661691e-02 -2.898215e-02 -2.014403e-02 -1.616720e-02 -1.414783e-02 -1.301584e-02 -1.253748e-02 -1.231086e-02 -1.227746e-02 -1.228631e-02 -1.228365e-02 -1.230205e-02 -1.222922e-02 -1.220560e-02 -1.204435e-02 -1.195041e-02 -1.169432e-02 -1.152978e-02 -1.122640e-02 -1.108323e-02 -1.094604e-02 -1.123354e-02 -1.201375e-02 -1.390088e-02 -1.715337e-02 -2.224248e-02 -2.894776e-02 -3.661177e-02 -4.433300e-02 -5.432435e-02 -7.497932e-02 -1.016284e-01 -9.517631e-02 -5.503060e-02 -4.132415e-02 -3.209206e-02 -5.270520e-02 -9.769953e-02 -5.910125e-02 -3.724107e-02 -9.215484e-02 -1.020591e-01 -5.393258e-02 -6.978912e-02 -1.114583e-01 -1.025886e-01 -6.924005e-02 -5.015145e-02 -6.648633e-02 -6.958479e-02 -5.049082e-02 -3.618090e-02 -2.701734e-02 -2.003474e-02 -1.480618e-02 -1.132865e-02 -9.542201e-03 -8.926096e-03 -9.084647e-03 -9.581064e-03 -1.020249e-02 -1.080060e-02 -1.130867e-02 -1.174039e-02 -1.204504e-02 -1.231296e-02 -1.246058e-02 -1.262943e-02 -1.268940e-02 -1.281367e-02 -1.282679e-02 -1.292305e-02 -1.290547e-02 -1.297648e-02 -1.294523e-02 -1.299337e-02 -1.296603e-02 -1.298520e-02 -1.297403e-02 -1.295503e-02 -1.297716e-02 -1.291304e-02 -1.298038e-02 -1.285419e-02 -1.296722e-02 -1.275952e-02 -1.290802e-02 -1.258080e-02 -1.269878e-02 -1.212904e-02 -1.200915e-02 -1.090278e-02 -1.015747e-02 -8.157571e-03 -6.730886e-03 -4.668745e-03 -4.469531e-03 -2.609443e-03 -3.005834e-03 -1.360000e-02 -1.594125e-02 -1.391334e-02 -1.348596e-02 -1.301112e-02 
-1.767674e-05 -1.030047e-05 -5.487012e-06 -2.481686e-06 5.891952e-07 3.829656e-06 4.892754e-06 3.792058e-06 7.990674e-07 -1.450813e-06 -7.672522e-07 -1.257671e-05 7.524825e-04 8.249208e-04 8.899896e-07 -4.572359e-09 -4.290877e-09 -4.419223e-09 -1.577305e-08 -6.438728e-06 -3.254484e-03 -2.604325e-03 2.516622e-05 4.745639e-05 4.953950e-05 7.458998e-05 9.498962e-05 1.074277e-04 1.172911e-04 1.295022e-04 1.448625e-04 1.658726e-04 1.926781e-04 2.283201e-04 2.722814e-04 3.260250e-04 3.892788e-04 4.648682e-04 5.559325e-04 6.646740e-04 7.911256e-04 9.276610e-04 1.061546e-03 1.159672e-03 1.165142e-03 9.628978e-04 3.758883e-04 -8.573800e-04 -3.035477e-03 -6.429500e-03 -1.116213e-02 -1.705400e-02 -2.363487e-02 -3.042184e-02 -3.793373e-02 -4.703992e-02 -5.491781e-02 -5.594201e-02 -5.284559e-02 -5.106581e-02 -4.978632e-02 -4.873825e-02 -4.815049e-02 -4.869358e-02 -5.000787e-02 -5.055299e-02 -5.133937e-02 -5.234605e-02 -5.268001e-02 -5.223831e-02 -5.002581e-02 -4.629670e-02 -4.117726e-02 -3.316838e-02 -2.473200e-02 -1.738829e-02 -1.095113e-02 -5.581713e-03 -1.563854e-03 1.033682e-03 2.397307e-03 2.880711e-03 2.817827e-03 2.494905e-03 2.078176e-03 1.672307e-03 1.313046e-03 1.017846e-03 7.828804e-04 6.009787e-04 4.622390e-04 3.541530e-04 2.704928e-04 2.023410e-04 1.497419e-04 1.076241e-04 7.724055e-05 5.347285e-05 3.644492e-05 2.220795e-05 1.189981e-05 3.607296e-06 -1.697339e-06 -6.003450e-06 -9.246964e-06 -1.262852e-05 -1.524624e-05 -1.708087e-05 -1.736661e-05 -1.670628e-05 -1.524548e-05 -1.362532e-05 -1.186691e-05 -1.056040e-05 -1.092237e-05 -1.490228e-05 -2.476313e-05 -4.108376e-05 -6.295098e-05 -8.611482e-05 -1.057330e-04 -1.162867e-04 -1.160013e-04 -1.042674e-04 -8.631580e-05 -6.579716e-05 -4.600858e-05 -2.973312e-05 
1.209312e-02 1.049076e-02 9.184650e-03 1.037375e-02 1.436910e-02 1.363066e-02 6.637579e-03 6.284357e-03 -2.022980e-03 -2.037108e-02 -8.974334e-02 -3.303745e-01 -5.075532e-01 -3.905274e-01 -2.768626e-01 -2.767124e-01 -2.767122e-01 -2.767121e-01 -2.767130e-01 -2.771537e-01 -4.993555e-01 -5.504491e-01 -1.133925e-01 5.249542e-02 4.673383e-02 2.914325e-02 2.033846e-02 1.639410e-02 1.439170e-02 1.329797e-02 1.285068e-02 1.268571e-02 1.271089e-02 1.282016e-02 1.292081e-02 1.309065e-02 1.317542e-02 1.336828e-02 1.344743e-02 1.367425e-02 1.377560e-02 1.404373e-02 1.417481e-02 1.445551e-02 1.455757e-02 1.470868e-02 1.453284e-02 1.414014e-02 1.310245e-02 1.144705e-02 8.825699e-03 5.399269e-03 1.145181e-03 -3.455559e-03 -8.171812e-03 -1.255795e-02 -1.623967e-02 -1.827462e-02 -1.856277e-02 -1.802669e-02 -1.675408e-02 -1.500359e-02 -1.357999e-02 -1.231016e-02 -1.072548e-02 -9.205428e-03 -7.932217e-03 -6.311407e-03 -4.192965e-03 -2.199939e-03 -8.006413e-05 2.488058e-03 5.374351e-03 8.157038e-03 1.077540e-02 1.297018e-02 1.482403e-02 1.614801e-02 1.694249e-02 1.721225e-02 1.707491e-02 1.669857e-02 1.618108e-02 1.567693e-02 1.517240e-02 1.477669e-02 1.439720e-02 1.414020e-02 1.387458e-02 1.372642e-02 1.353849e-02 1.346236e-02 1.332048e-02 1.328917e-02 1.317707e-02 1.317561e-02 1.308796e-02 1.310182e-02 1.303426e-02 1.304640e-02 1.299973e-02 1.299567e-02 1.297696e-02 1.294384e-02 1.296299e-02 1.288721e-02 1.295258e-02 1.281938e-02 1.293536e-02 1.272686e-02 1.288114e-02 1.255581e-02 1.267958e-02 1.211158e-02 1.199206e-02 1.087581e-02 1.010833e-02 8.070178e-03 6.593326e-03 4.478583e-03 4.235788e-03 2.352673e-03 2.747396e-03 1.337335e-02 1.575189e-02 1.376506e-02 1.337785e-02 1.293816e-02 
1.940833e-02 1.425359e-02 1.435183e-02 2.596382e-02 1.466038e-02 -1.421859e-01 -1.372779e-01 -3.508231e-02 -7.291234e-02 -8.107421e-02 -2.262923e-01 -6.733421e-01 -1.036048e+00 -7.832092e-01 -5.551309e-01 -5.545895e-01 -5.548917e-01 -5.546802e-01 -5.547588e-01 -5.556670e-01 -9.708499e-01 -1.071624e+00 -3.330954e-01 -2.636388e-02 -1.821255e-02 -5.029648e-02 -5.739380e-02 -6.684328e-02 -6.400061e-02 -6.893357e-02 -6.502575e-02 -6.830967e-02 -6.479638e-02 -6.718008e-02 -6.453517e-02 -6.616899e-02 -6.439853e-02 -6.530841e-02 -6.433610e-02 -6.450124e-02 -6.413214e-02 -6.359310e-02 -6.372826e-02 -6.257029e-02 -6.302146e-02 -6.134844e-02 -6.214804e-02 -6.039818e-02 -6.190410e-02 -6.076135e-02 -6.356014e-02 -6.373042e-02 -6.811271e-02 -6.951002e-02 -7.474532e-02 -7.632773e-02 -8.069889e-02 -7.953646e-02 -7.987672e-02 -7.910493e-02 -7.592178e-02 -6.990863e-02 -6.842155e-02 -6.582229e-02 -6.000123e-02 -5.636868e-02 -5.548599e-02 -5.126449e-02 -4.652644e-02 -4.527616e-02 -4.430259e-02 -4.162652e-02 -4.186110e-02 -4.385921e-02 -4.529865e-02 -4.828377e-02 -5.041217e-02 -5.336121e-02 -5.526710e-02 -5.741163e-02 -5.878647e-02 -6.005713e-02 -6.112344e-02 -6.173761e-02 -6.266503e-02 -6.277544e-02 -6.370838e-02 -6.350104e-02 -6.445603e-02 -6.404547e-02 -6.499159e-02 -6.454971e-02 -6.535422e-02 -6.497142e-02 -6.544027e-02 -6.531805e-02 -6.530323e-02 -6.564487e-02 -6.496496e-02 -6.599457e-02 -6.450009e-02 -6.638763e-02 -6.395296e-02 -6.686066e-02 -6.343150e-02 -6.734957e-02 -6.292246e-02 -6.783123e-02 -6.263828e-02 -6.835889e-02 -6.270497e-02 -6.892664e-02 -6.336736e-02 -6.981374e-02 -6.541027e-02 -7.236046e-02 -7.103502e-02 -7.949163e-02 -8.295339e-02 -9.265294e-02 -1.012291e-01 -1.355880e-01 -1.807165e-01 -3.919620e-02 4.604685e-02 3.816476e-02 2.683318e-02 2.261785e-02 
1.846765e-02 2.092268e-02 3.987122e-02 4.983826e-04 -5.277701e-01 -2.412777e+00 -1.260135e+00 -2.589909e-01 -9.356200e-01 -6.159564e-01 -9.457181e-01 -9.720986e-01 -1.056275e+00 -9.533735e-01 -8.658021e-01 -8.601043e-01 -8.675265e-01 -8.624348e-01 -8.641259e-01 -8.671160e-01 -1.000273e+00 -9.889338e-01 -8.926832e-01 -8.185781e-01 -7.339793e-01 -8.289408e-01 -7.645828e-01 -8.397177e-01 -7.724418e-01 -8.379971e-01 -7.771841e-01 -8.335751e-01 -7.809828e-01 -8.271591e-01 -7.847646e-01 -8.206742e-01 -7.899067e-01 -8.163201e-01 -7.973588e-01 -8.133758e-01 -8.042942e-01 -8.111023e-01 -8.121983e-01 -8.107596e-01 -8.181140e-01 -8.073881e-01 -8.194079e-01 -8.029932e-01 -8.204166e-01 -8.007673e-01 -8.223110e-01 -8.007098e-01 -8.254700e-01 -8.031261e-01 -8.299910e-01 -8.076575e-01 -8.313155e-01 -7.960245e-01 -8.004076e-01 -7.985261e-01 -7.882694e-01 -7.512651e-01 -7.672918e-01 -7.694396e-01 -7.410633e-01 -7.315069e-01 -7.533456e-01 -7.355707e-01 -7.198624e-01 -7.268013e-01 -7.418322e-01 -7.240162e-01 -7.386144e-01 -7.604592e-01 -7.715645e-01 -7.868619e-01 -7.919712e-01 -8.019166e-01 -8.047420e-01 -8.096418e-01 -8.103508e-01 -8.107495e-01 -8.129529e-01 -8.119965e-01 -8.159500e-01 -8.129934e-01 -8.177284e-01 -8.143405e-01 -8.195499e-01 -8.175961e-01 -8.222865e-01 -8.232610e-01 -8.240997e-01 -8.279271e-01 -8.223641e-01 -8.322684e-01 -8.192079e-01 -8.361211e-01 -8.124456e-01 -8.378608e-01 -8.041778e-01 -8.405438e-01 -7.975694e-01 -8.443488e-01 -7.915536e-01 -8.452129e-01 -7.851019e-01 -8.453149e-01 -7.842992e-01 -8.462041e-01 -7.879840e-01 -8.445405e-01 -7.956985e-01 -8.396106e-01 -8.077699e-01 -8.327049e-01 -8.270618e-01 -8.296157e-01 -8.603836e-01 -8.476161e-01 -9.252630e-01 -9.902678e-01 -1.689897e+00 -1.016309e+00 -9.825158e-02 9.326084e-02 4.486625e-02 2.221557e-02 
1.089830e-02 2.447318e-02 -3.157464e-02 -6.692618e-01 -2.684122e+00 -4.399903e+00 -1.972568e+00 -1.233260e+00 -1.922724e+00 -1.503372e+00 -1.765014e+00 -1.440905e+00 -1.774715e+00 -1.577188e+00 -1.721922e+00 -1.602174e+00 -1.720622e+00 -1.648623e+00 -1.672308e+00 -1.676873e+00 -1.668786e+00 -1.645279e+00 -1.552793e+00 -1.776716e+00 -1.603575e+00 -1.825910e+00 -1.671223e+00 -1.829223e+00 -1.692284e+00 -1.814937e+00 -1.738587e+00 -1.832633e+00 -1.786654e+00 -1.818346e+00 -1.788511e+00 -1.782717e+00 -1.794077e+00 -1.775763e+00 -1.814989e+00 -1.778315e+00 -1.833018e+00 -1.794594e+00 -1.863258e+00 -1.823352e+00 -1.876375e+00 -1.819934e+00 -1.849625e+00 -1.805044e+00 -1.839970e+00 -1.826055e+00 -1.855061e+00 -1.851137e+00 -1.863089e+00 -1.874679e+00 -1.884814e+00 -1.905042e+00 -1.893585e+00 -1.889573e+00 -1.858442e+00 -1.906694e+00 -1.894646e+00 -1.912701e+00 -1.926481e+00 -1.961719e+00 -1.924603e+00 -1.925050e+00 -1.948945e+00 -1.934245e+00 -1.926215e+00 -1.915066e+00 -1.952490e+00 -1.907930e+00 -1.958106e+00 -1.931159e+00 -1.968647e+00 -1.899590e+00 -1.927360e+00 -1.862998e+00 -1.910300e+00 -1.858312e+00 -1.892383e+00 -1.840458e+00 -1.865685e+00 -1.845412e+00 -1.864055e+00 -1.862748e+00 -1.845919e+00 -1.860698e+00 -1.821560e+00 -1.875960e+00 -1.821180e+00 -1.900728e+00 -1.812224e+00 -1.905123e+00 -1.800347e+00 -1.920959e+00 -1.813816e+00 -1.933508e+00 -1.803795e+00 -1.902000e+00 -1.785952e+00 -1.892014e+00 -1.819066e+00 -1.898205e+00 -1.834587e+00 -1.853676e+00 -1.825200e+00 -1.817682e+00 -1.850973e+00 -1.802733e+00 -1.872820e+00 -1.778090e+00 -1.892414e+00 -1.777023e+00 -1.925642e+00 -1.788068e+00 -1.930552e+00 -1.784240e+00 -1.903975e+00 -1.814270e+00 -1.887187e+00 -2.057683e+00 -2.770628e+00 -3.634521e+00 -1.847706e+00 6.320332e-02 1.011346e-01 2.627841e-02 
9.016166e-03 3.367579e-02 -3.061019e-02 -8.685469e-01 -3.092426e+00 -1.221781e+00 -1.480553e-01 -1.336168e+00 -6.557419e-01 -9.247426e-01 -6.362923e-01 -4.832976e-01 -4.061446e-01 -2.060732e-01 -4.792960e-01 -2.673185e-01 -3.822960e-01 -2.368057e-01 -3.891273e-01 -4.037759e-01 -1.935958e-01 -6.163459e-01 -4.658573e-01 -7.751699e-01 -7.425608e-01 -8.815671e-01 -8.245255e-01 -8.795852e-01 -8.466652e-01 -8.635196e-01 -9.087201e-01 -9.016130e-01 -9.742025e-01 -8.946641e-01 -9.667608e-01 -8.548309e-01 -9.611703e-01 -8.545900e-01 -9.729726e-01 -8.654989e-01 -9.809111e-01 -8.957277e-01 -1.004377e+00 -9.395838e-01 -1.005174e+00 -9.401090e-01 -9.547223e-01 -9.245599e-01 -9.314868e-01 -9.599270e-01 -9.462740e-01 -9.984070e-01 -9.502533e-01 -1.031648e+00 -9.757816e-01 -1.071816e+00 -9.887568e-01 -1.078166e+00 -1.016425e+00 -1.098110e+00 -1.095814e+00 -1.222688e+00 -1.201893e+00 -1.247493e+00 -1.256914e+00 -1.287545e+00 -1.265738e+00 -1.283749e+00 -1.311687e+00 -1.279664e+00 -1.296692e+00 -1.271788e+00 -1.317931e+00 -1.218323e+00 -1.253722e+00 -1.106069e+00 -1.144478e+00 -1.017617e+00 -1.092270e+00 -9.962756e-01 -1.054490e+00 -9.693070e-01 -1.008403e+00 -9.762582e-01 -9.991702e-01 -1.002803e+00 -9.665542e-01 -9.977745e-01 -9.234751e-01 -1.014628e+00 -9.151329e-01 -1.039745e+00 -8.955203e-01 -1.035419e+00 -8.807981e-01 -1.049741e+00 -9.097766e-01 -1.060041e+00 -9.119387e-01 -1.006649e+00 -9.062296e-01 -9.840927e-01 -9.764237e-01 -9.834954e-01 -1.017870e+00 -9.108685e-01 -1.021894e+00 -8.533984e-01 -1.066219e+00 -8.266116e-01 -1.092615e+00 -7.917127e-01 -1.105350e+00 -8.041685e-01 -1.130647e+00 -8.468922e-01 -1.102411e+00 -8.740217e-01 -1.016042e+00 -9.365789e-01 -9.159236e-01 -1.018770e+00 -1.797813e-01 -3.223558e+00 -2.752615e+00 -1.451690e-01 8.785921e-02 2.123916e-02 
7.836917e-03 1.595934e-02 -1.804573e-02 -3.703147e-01 -9.695739e-01 1.986658e+00 1.381863e+00 -2.351917e-01 8.443298e-01 2.819333e-01 6.115621e-01 5.515049e-02 4.826213e-01 3.472642e-01 1.015304e+00 7.908940e-01 8.701559e-01 7.642437e-01 8.797698e-01 8.542280e-01 4.214940e-01 5.649200e-01 2.837913e-01 5.035133e-01 4.829557e-01 5.315198e-01 4.611575e-01 5.314386e-01 4.561211e-01 5.349839e-01 4.372655e-01 5.161721e-01 4.169913e-01 5.118165e-01 4.247297e-01 5.194063e-01 4.337677e-01 5.143243e-01 4.395227e-01 5.067635e-01 4.467284e-01 4.930802e-01 4.500913e-01 4.773882e-01 4.606661e-01 4.755040e-01 4.861362e-01 4.796040e-01 5.016105e-01 4.671691e-01 5.025357e-01 4.539408e-01 5.053750e-01 4.417420e-01 4.978422e-01 4.276261e-01 4.913565e-01 4.090025e-01 4.392511e-01 4.047499e-01 4.009471e-01 3.034061e-01 3.327828e-01 3.214123e-01 2.865941e-01 2.583538e-01 2.960870e-01 2.714355e-01 2.401606e-01 2.595676e-01 2.736291e-01 2.630668e-01 2.579552e-01 3.233144e-01 3.166456e-01 3.914274e-01 3.742488e-01 4.359666e-01 4.033828e-01 4.494096e-01 4.221219e-01 4.594726e-01 4.425568e-01 4.576721e-01 4.502357e-01 4.479045e-01 4.654362e-01 4.501995e-01 4.848153e-01 4.463794e-01 4.923400e-01 4.424405e-01 5.031114e-01 4.485318e-01 5.075049e-01 4.473405e-01 4.932866e-01 4.474053e-01 4.843002e-01 4.694433e-01 4.758613e-01 4.815452e-01 4.400980e-01 4.873687e-01 4.153386e-01 5.173920e-01 4.035730e-01 5.411398e-01 3.831312e-01 5.545121e-01 3.748412e-01 5.676256e-01 3.764489e-01 5.574481e-01 3.771153e-01 5.287453e-01 3.999502e-01 4.957755e-01 4.370147e-01 4.321030e-01 4.332142e-01 4.134109e-01 1.600227e+00 -2.084736e-01 -7.948566e-01 -2.653458e-04 5.281685e-02 1.485856e-02 
4.857308e-03 7.542578e-03 4.624574e-03 -3.413851e-02 -7.529633e-03 9.649665e-01 6.815829e-01 1.602286e-01 4.847175e-01 2.960060e-01 3.918128e-01 3.615897e-02 -3.770440e-01 -1.191750e+00 -1.662834e+00 -1.675894e+00 -1.453368e+00 -1.666386e+00 -1.483618e+00 -1.581527e+00 -1.375774e+00 -3.105538e-01 1.165574e-01 3.488498e-01 3.322252e-01 3.696538e-01 3.326860e-01 3.719594e-01 3.368478e-01 3.730362e-01 3.393178e-01 3.714306e-01 3.410248e-01 3.690312e-01 3.436894e-01 3.667091e-01 3.469393e-01 3.646057e-01 3.511408e-01 3.630602e-01 3.554474e-01 3.618911e-01 3.604988e-01 3.621000e-01 3.656759e-01 3.623427e-01 3.699422e-01 3.623998e-01 3.724295e-01 3.598488e-01 3.695345e-01 3.511481e-01 3.591494e-01 3.367807e-01 3.452265e-01 3.212866e-01 3.257587e-01 3.002584e-01 3.048002e-01 2.997776e-01 3.015726e-01 2.922393e-01 3.068645e-01 3.125716e-01 3.118617e-01 3.133690e-01 3.291248e-01 3.285919e-01 3.315037e-01 3.414194e-01 3.528807e-01 3.501550e-01 3.561533e-01 3.694598e-01 3.683777e-01 3.724043e-01 3.625184e-01 3.636892e-01 3.554983e-01 3.582035e-01 3.534675e-01 3.566319e-01 3.552084e-01 3.573196e-01 3.579305e-01 3.576715e-01 3.602761e-01 3.581602e-01 3.625187e-01 3.588909e-01 3.645444e-01 3.605557e-01 3.662209e-01 3.622144e-01 3.659866e-01 3.635655e-01 3.642200e-01 3.649830e-01 3.608754e-01 3.666546e-01 3.565982e-01 3.686633e-01 3.516274e-01 3.712609e-01 3.470277e-01 3.738290e-01 3.424355e-01 3.759930e-01 3.397215e-01 3.781268e-01 3.393255e-01 3.789446e-01 3.409667e-01 3.766657e-01 3.438342e-01 3.706179e-01 3.479249e-01 3.599192e-01 3.489820e-01 3.410590e-01 3.312233e-01 3.680433e-01 7.349106e-01 3.439318e-01 5.341172e-02 2.936176e-02 1.380269e-02 5.559722e-03 
