# vtk DataFile Version 2.0
Comment goes here
ASCII

DATASET STRUCTURED_POINTS
FIELD FieldData 1
TIME 1 1 double
0.74000000
DIMENSIONS    128   16   1

ORIGIN    0.000   0.000   0.000
SPACING   0.0078125 0.015625   1.000

POINT_DATA   2048
SCALARS uMag double
LOOKUP_TABLE default

1.955050e-03 2.926636e-03 1.138619e-03 3.111190e-03 5.038226e-04 6.259272e-03 4.544455e-03 7.775694e-04 3.042996e-03 2.555957e-03 1.887445e-03 9.262241e-03 1.267689e-02 2.159069e-02 2.529179e-02 2.921679e-02 2.816485e-02 3.017543e-02 2.686888e-02 2.558626e-02 2.072479e-02 1.323805e-02 7.668224e-03 3.521648e-03 7.429328e-04 8.622046e-04 2.086321e-03 2.853290e-03 3.172332e-03 3.818772e-03 3.507218e-03 4.318845e-03 3.536005e-03 4.582398e-03 3.462400e-03 4.700141e-03 3.381961e-03 4.711340e-03 3.340158e-03 4.638966e-03 3.355964e-03 4.499901e-03 3.428923e-03 4.306544e-03 3.545551e-03 4.074204e-03 3.693566e-03 3.833178e-03 3.873038e-03 3.633145e-03 4.101716e-03 3.546166e-03 4.432573e-03 3.679345e-03 5.026598e-03 4.175291e-03 5.222349e-03 2.535364e-03 8.404866e-04 2.229706e-03 1.990860e-03 6.298221e-03 3.208887e-03 8.665750e-04 6.123700e-03 6.912691e-03 2.000972e-03 3.746930e-03 7.159447e-03 4.903601e-03 1.678432e-03 4.319004e-03 4.614460e-03 2.571170e-03 2.758322e-03 3.477513e-03 2.917078e-03 3.812737e-03 2.963845e-03 3.766978e-03 2.993196e-03 3.573989e-03 3.078926e-03 3.312844e-03 3.222150e-03 3.020923e-03 3.402644e-03 2.729086e-03 3.591905e-03 2.468600e-03 3.755408e-03 2.268951e-03 3.855983e-03 2.156127e-03 3.862066e-03 2.152908e-03 3.753778e-03 2.274972e-03 3.524578e-03 2.523678e-03 3.182576e-03 2.882258e-03 2.751674e-03 3.314902e-03 2.273227e-03 3.769334e-03 1.806183e-03 4.182449e-03 1.423073e-03 4.485383e-03 1.202089e-03 4.611306e-03 1.218649e-03 4.508288e-03 1.537918e-03 4.156239e-03 2.206299e-03 3.588399e-03 3.242133e-03 2.911217e-03 4.622125e-03 2.281152e-03 6.086200e-03 1.173920e-04 1.704907e-03 7.874207e-04 1.833903e-03 2.272494e-03 
6.671230e-04 1.169333e-03 1.110088e-03 9.419883e-04 4.387031e-03 6.090804e-03 6.465560e-03 1.858683e-03 5.237675e-03 5.133987e-03 7.667958e-03 1.088411e-02 1.287888e-02 1.261726e-02 9.302186e-03 3.905037e-03 5.195286e-03 3.775538e-03 6.191792e-03 7.153935e-03 1.250904e-02 1.328919e-02 9.737094e-03 7.104192e-03 4.447984e-03 3.146488e-03 2.127227e-03 1.717859e-03 1.151313e-03 1.412021e-03 6.725682e-04 1.445044e-03 3.751141e-04 1.511737e-03 1.600000e-04 1.534419e-03 3.415906e-05 1.493613e-03 1.221739e-04 1.403381e-03 2.046000e-04 1.276923e-03 3.190008e-04 1.112403e-03 4.836769e-04 9.139580e-04 6.803800e-04 6.915551e-04 8.724323e-04 4.479079e-04 1.001615e-03 1.540677e-04 9.388756e-04 4.526626e-04 4.194126e-04 2.570761e-03 1.058442e-02 1.558821e-02 6.039204e-03 3.604434e-03 1.978508e-02 8.180072e-03 1.181961e-02 7.007255e-03 1.533254e-02 1.024903e-02 8.309478e-03 1.154108e-02 7.324546e-03 1.483585e-02 6.139205e-03 1.011437e-02 1.508075e-02 1.195305e-02 8.188630e-03 5.077434e-03 3.804610e-03 2.403120e-03 1.897120e-03 1.256358e-03 9.657669e-04 7.349946e-04 4.883205e-04 4.886708e-04 2.263436e-04 4.769856e-04 1.652896e-04 6.449942e-04 2.983436e-04 8.608046e-04 4.334079e-04 1.048341e-03 5.150964e-04 1.159999e-03 5.193893e-04 1.172775e-03 4.327858e-04 1.073810e-03 3.055030e-04 8.666694e-04 3.656711e-04 6.093181e-04 7.019544e-04 4.724881e-04 1.141345e-03 6.562346e-04 1.581846e-03 9.794114e-04 1.943622e-03 1.261130e-03 2.147010e-03 1.411996e-03 2.129705e-03 1.380163e-03 1.842133e-03 1.207015e-03 1.254270e-03 1.112821e-03 6.756223e-04 1.417456e-03 1.612194e-03 2.051652e-03 3.913178e-03 6.287375e-03 2.624405e-03 1.967601e-03 1.638373e-03 1.435420e-04 
4.247193e-03 4.356210e-03 9.983392e-04 4.146722e-03 1.141098e-02 1.500987e-02 1.219041e-02 6.634549e-03 3.844495e-03 4.047353e-03 1.961038e-03 7.315029e-04 4.290145e-03 8.040696e-03 9.372502e-03 1.061326e-02 9.554179e-03 1.078305e-02 9.277390e-03 8.919197e-03 7.801475e-03 2.956889e-03 2.029476e-03 3.776051e-03 2.924761e-03 5.888810e-03 4.755399e-03 6.645117e-03 5.756017e-03 6.795058e-03 6.378663e-03 6.688864e-03 6.808301e-03 6.505573e-03 7.123243e-03 6.353689e-03 7.368370e-03 6.283070e-03 7.530882e-03 6.270288e-03 7.572450e-03 6.293837e-03 7.508870e-03 6.359771e-03 7.373933e-03 6.455677e-03 7.190721e-03 6.559286e-03 6.991293e-03 6.651626e-03 6.827232e-03 6.748829e-03 6.858468e-03 7.057755e-03 7.930920e-03 1.060183e-02 1.420443e-02 6.983547e-03 9.597794e-03 1.722365e-03 7.838905e-03 1.220971e-02 1.078578e-02 5.421409e-03 1.642546e-02 1.593814e-02 8.908135e-03 1.298564e-02 1.679727e-02 1.424881e-02 8.837467e-03 1.528275e-02 1.603483e-02 1.394900e-02 9.352260e-03 6.745360e-03 5.871083e-03 5.313957e-03 6.178846e-03 5.846124e-03 6.811129e-03 6.524716e-03 7.146374e-03 7.087214e-03 7.235267e-03 7.561352e-03 7.165416e-03 7.964862e-03 7.015509e-03 8.312120e-03 6.857817e-03 8.591126e-03 6.732472e-03 8.767247e-03 6.683099e-03 8.829433e-03 6.754527e-03 8.764006e-03 6.952854e-03 8.554208e-03 7.271548e-03 8.227129e-03 7.703973e-03 7.816184e-03 8.203332e-03 7.348944e-03 8.704018e-03 6.882159e-03 9.140937e-03 6.488367e-03 9.444138e-03 6.274519e-03 9.581052e-03 6.377881e-03 9.531411e-03 6.897124e-03 9.245518e-03 7.872910e-03 8.711005e-03 9.318856e-03 8.006669e-03 1.113186e-02 8.844397e-03 1.657124e-02 8.320814e-03 3.713029e-03 4.589139e-03 4.284987e-03 
5.849296e-03 7.876199e-03 1.085759e-02 1.965547e-02 1.093328e-02 2.480776e-02 1.562529e-02 1.177967e-02 1.705995e-02 1.102497e-02 1.746952e-02 1.124018e-02 1.771632e-02 1.334889e-02 1.912678e-02 1.576235e-02 1.870858e-02 1.690499e-02 1.753724e-02 1.739359e-02 1.503243e-02 1.620953e-02 1.270641e-02 1.545726e-02 1.249572e-02 1.528135e-02 1.259619e-02 1.514972e-02 1.278875e-02 1.498084e-02 1.300532e-02 1.476842e-02 1.322378e-02 1.453086e-02 1.343728e-02 1.429428e-02 1.364576e-02 1.407332e-02 1.382883e-02 1.386312e-02 1.395332e-02 1.365640e-02 1.400689e-02 1.344123e-02 1.397777e-02 1.318643e-02 1.383530e-02 1.283678e-02 1.351798e-02 1.229643e-02 1.289920e-02 1.138862e-02 1.174316e-02 9.791064e-03 9.582540e-03 6.801902e-03 7.338526e-03 5.627223e-03 4.491310e-03 5.059987e-03 9.202589e-03 7.597831e-03 6.531870e-03 7.455811e-03 9.847334e-03 7.429825e-03 6.474411e-03 7.224533e-03 6.640963e-03 6.450321e-03 6.019836e-03 2.574097e-03 6.551243e-03 9.283713e-03 8.977804e-03 1.011223e-02 1.096130e-02 1.157421e-02 1.227389e-02 1.253006e-02 1.299945e-02 1.312200e-02 1.338476e-02 1.351083e-02 1.357996e-02 1.378841e-02 1.366242e-02 1.399701e-02 1.368003e-02 1.416305e-02 1.365991e-02 1.430133e-02 1.361514e-02 1.441293e-02 1.356492e-02 1.450418e-02 1.352702e-02 1.457727e-02 1.350891e-02 1.462607e-02 1.351245e-02 1.465524e-02 1.354026e-02 1.465816e-02 1.358973e-02 1.462073e-02 1.365343e-02 1.454121e-02 1.373516e-02 1.442526e-02 1.384659e-02 1.429901e-02 1.402592e-02 1.419913e-02 1.432279e-02 1.416101e-02 1.475945e-02 1.420444e-02 1.537146e-02 1.429666e-02 1.619860e-02 1.427685e-02 1.750671e-02 1.108727e-02 2.395992e-02 1.751396e-02 1.129482e-02 6.425657e-03 
2.494071e-02 2.449554e-02 3.067139e-02 3.328409e-02 4.275609e-02 2.117160e-02 2.192451e-02 2.391697e-02 1.838020e-02 2.247158e-02 1.813538e-02 1.975887e-02 1.772529e-02 1.819328e-02 1.895014e-02 1.863702e-02 1.913285e-02 1.890854e-02 1.881173e-02 1.930998e-02 1.780725e-02 1.959480e-02 1.830631e-02 2.022711e-02 2.005898e-02 2.080931e-02 2.103292e-02 2.102043e-02 2.160920e-02 2.103272e-02 2.195864e-02 2.095950e-02 2.216031e-02 2.087496e-02 2.225671e-02 2.083500e-02 2.228465e-02 2.085830e-02 2.223454e-02 2.090249e-02 2.206660e-02 2.093281e-02 2.178257e-02 2.093794e-02 2.138839e-02 2.087577e-02 2.085490e-02 2.066353e-02 2.011561e-02 2.015378e-02 1.902505e-02 1.907927e-02 1.732013e-02 1.702439e-02 1.456347e-02 1.265720e-02 6.663514e-03 4.903417e-03 1.806045e-03 6.142551e-03 9.825733e-03 5.245366e-03 4.803297e-03 6.894493e-03 6.945361e-03 2.525395e-03 3.905659e-03 5.835954e-03 1.126337e-03 4.889315e-03 2.341499e-03 6.070183e-03 4.275983e-03 5.217366e-03 9.485171e-03 1.273563e-02 1.561658e-02 1.676735e-02 1.876701e-02 1.899019e-02 2.038919e-02 2.029193e-02 2.119260e-02 2.112776e-02 2.155604e-02 2.172231e-02 2.167154e-02 2.217037e-02 2.165999e-02 2.252258e-02 2.161187e-02 2.278621e-02 2.157450e-02 2.293948e-02 2.159167e-02 2.297984e-02 2.170626e-02 2.289931e-02 2.192446e-02 2.268564e-02 2.224335e-02 2.236786e-02 2.266090e-02 2.198241e-02 2.313371e-02 2.156116e-02 2.359792e-02 2.116249e-02 2.398751e-02 2.085588e-02 2.422974e-02 2.073670e-02 2.428800e-02 2.092926e-02 2.414202e-02 2.153481e-02 2.374924e-02 2.264089e-02 2.308545e-02 2.435983e-02 2.206178e-02 2.672772e-02 2.004626e-02 3.328322e-02 3.991129e-02 3.393755e-02 2.808182e-02 2.473544e-02 
3.016033e-02 3.086812e-02 3.354132e-02 3.752666e-02 4.494292e-02 4.856245e-02 4.160228e-02 4.166319e-02 4.066239e-02 3.969518e-02 3.898462e-02 3.717800e-02 3.506573e-02 3.447504e-02 3.488009e-02 3.458780e-02 3.478595e-02 3.473005e-02 3.462680e-02 3.487803e-02 3.443650e-02 3.499400e-02 3.532604e-02 3.822202e-02 3.791784e-02 4.024805e-02 3.954982e-02 4.128235e-02 4.057425e-02 4.171122e-02 4.122527e-02 4.180736e-02 4.165147e-02 4.174709e-02 4.193733e-02 4.164325e-02 4.213166e-02 4.155130e-02 4.223009e-02 4.145841e-02 4.219849e-02 4.134036e-02 4.202853e-02 4.118032e-02 4.170985e-02 4.092608e-02 4.119708e-02 4.048102e-02 4.039801e-02 3.968094e-02 3.913091e-02 3.825483e-02 3.709812e-02 3.581854e-02 3.411668e-02 3.343927e-02 3.225198e-02 2.470354e-02 2.840450e-02 2.452850e-02 2.493838e-02 3.153961e-02 2.789259e-02 2.714530e-02 3.105972e-02 3.327263e-02 2.945762e-02 3.074728e-02 3.453841e-02 3.215056e-02 3.273452e-02 3.311847e-02 3.765920e-02 3.968685e-02 3.939815e-02 3.900453e-02 4.001883e-02 3.986185e-02 4.093802e-02 4.072122e-02 4.155973e-02 4.137653e-02 4.189297e-02 4.187981e-02 4.202716e-02 4.228945e-02 4.203135e-02 4.263092e-02 4.196430e-02 4.292256e-02 4.187921e-02 4.315974e-02 4.180394e-02 4.332035e-02 4.176691e-02 4.339678e-02 4.179895e-02 4.337953e-02 4.190550e-02 4.325695e-02 4.208963e-02 4.304835e-02 4.235675e-02 4.278107e-02 4.268245e-02 4.247709e-02 4.302860e-02 4.217567e-02 4.335367e-02 4.192118e-02 4.361100e-02 4.177324e-02 4.377830e-02 4.181358e-02 4.384352e-02 4.210402e-02 4.378534e-02 4.269001e-02 4.362361e-02 4.362027e-02 4.347040e-02 4.488702e-02 4.400713e-02 4.765345e-02 4.272780e-02 3.626833e-02 3.272499e-02 3.058516e-02 
3.748313e-02 3.810955e-02 3.893517e-02 4.157525e-02 4.324739e-02 4.920265e-02 4.700086e-02 4.667469e-02 4.768653e-02 4.659521e-02 4.764152e-02 4.705185e-02 4.653779e-02 4.562833e-02 4.603431e-02 4.574681e-02 4.593467e-02 4.590187e-02 4.576200e-02 4.606206e-02 4.556136e-02 4.629445e-02 4.615423e-02 4.739116e-02 4.613273e-02 4.743624e-02 4.623708e-02 4.744828e-02 4.644105e-02 4.738492e-02 4.665870e-02 4.726537e-02 4.686096e-02 4.712184e-02 4.703431e-02 4.698195e-02 4.716838e-02 4.686041e-02 4.724781e-02 4.675494e-02 4.725649e-02 4.665655e-02 4.718835e-02 4.655614e-02 4.704596e-02 4.644384e-02 4.684150e-02 4.632191e-02 4.661343e-02 4.623752e-02 4.647138e-02 4.636555e-02 4.671305e-02 4.719096e-02 4.815961e-02 5.062551e-02 5.391436e-02 5.656277e-02 5.254039e-02 5.133710e-02 5.201736e-02 4.979524e-02 5.069962e-02 4.940961e-02 5.019406e-02 4.955683e-02 4.970517e-02 5.013780e-02 5.054231e-02 5.152278e-02 5.071688e-02 5.555671e-02 5.634871e-02 5.107987e-02 4.965777e-02 4.728835e-02 4.729455e-02 4.629278e-02 4.672633e-02 4.626120e-02 4.673421e-02 4.653950e-02 4.686958e-02 4.688448e-02 4.698213e-02 4.721451e-02 4.703825e-02 4.750431e-02 4.704772e-02 4.774778e-02 4.703359e-02 4.794006e-02 4.701783e-02 4.807377e-02 4.702094e-02 4.814374e-02 4.705973e-02 4.814693e-02 4.714235e-02 4.808375e-02 4.727129e-02 4.796411e-02 4.744308e-02 4.780408e-02 4.764373e-02 4.762233e-02 4.785140e-02 4.744281e-02 4.803988e-02 4.729157e-02 4.818159e-02 4.719537e-02 4.825321e-02 4.717648e-02 4.823457e-02 4.723729e-02 4.810955e-02 4.734969e-02 4.789258e-02 4.745015e-02 4.771813e-02 4.746157e-02 4.826282e-02 4.623677e-02 4.300049e-02 4.050278e-02 3.876840e-02 3.784668e-02 
3.748926e-02 3.812902e-02 3.847512e-02 4.024518e-02 4.103618e-02 4.362890e-02 4.372930e-02 4.494193e-02 4.565540e-02 4.633866e-02 4.806930e-02 4.925018e-02 5.241256e-02 5.205030e-02 5.223103e-02 5.207248e-02 5.215586e-02 5.213326e-02 5.208839e-02 5.221173e-02 5.205256e-02 5.231329e-02 5.030744e-02 4.928125e-02 4.724114e-02 4.715441e-02 4.565443e-02 4.601425e-02 4.492858e-02 4.537950e-02 4.466411e-02 4.500181e-02 4.462832e-02 4.475739e-02 4.469025e-02 4.459084e-02 4.477729e-02 4.447696e-02 4.484638e-02 4.439965e-02 4.487222e-02 4.434770e-02 4.484591e-02 4.431450e-02 4.477151e-02 4.429722e-02 4.466625e-02 4.430586e-02 4.457365e-02 4.438910e-02 4.459985e-02 4.469384e-02 4.499474e-02 4.557656e-02 4.631672e-02 4.804401e-02 5.053501e-02 5.268948e-02 5.037223e-02 5.173458e-02 5.176380e-02 4.939433e-02 5.052309e-02 5.126199e-02 4.970740e-02 4.887017e-02 5.049005e-02 5.017296e-02 4.906491e-02 4.975496e-02 5.002855e-02 5.010727e-02 4.961636e-02 4.748881e-02 4.705333e-02 4.579496e-02 4.587372e-02 4.509857e-02 4.536756e-02 4.489466e-02 4.516109e-02 4.492607e-02 4.505950e-02 4.505830e-02 4.497862e-02 4.522732e-02 4.489213e-02 4.540076e-02 4.480121e-02 4.555968e-02 4.471861e-02 4.568897e-02 4.465925e-02 4.577489e-02 4.463742e-02 4.580726e-02 4.466418e-02 4.577967e-02 4.474386e-02 4.569117e-02 4.487471e-02 4.554952e-02 4.504843e-02 4.536929e-02 4.524744e-02 4.516934e-02 4.544615e-02 4.497203e-02 4.561326e-02 4.479960e-02 4.571403e-02 4.466991e-02 4.571365e-02 4.458908e-02 4.557707e-02 4.453866e-02 4.526994e-02 4.446544e-02 4.476802e-02 4.427213e-02 4.406865e-02 4.379771e-02 4.316496e-02 4.238349e-02 4.075313e-02 3.957779e-02 3.836914e-02 3.792513e-02 
4.056731e-02 4.120192e-02 4.133132e-02 4.299529e-02 4.339555e-02 4.569316e-02 4.592964e-02 4.686616e-02 4.789277e-02 4.821004e-02 5.019758e-02 5.106348e-02 5.472858e-02 5.444037e-02 5.465823e-02 5.448324e-02 5.456943e-02 5.457068e-02 5.447419e-02 5.466852e-02 5.441099e-02 5.474297e-02 5.273536e-02 5.176130e-02 4.978923e-02 4.977313e-02 4.825610e-02 4.867283e-02 4.753264e-02 4.804704e-02 4.726020e-02 4.767599e-02 4.722009e-02 4.744323e-02 4.728631e-02 4.729390e-02 4.738976e-02 4.720501e-02 4.749486e-02 4.716858e-02 4.758734e-02 4.718447e-02 4.766904e-02 4.725879e-02 4.775597e-02 4.740501e-02 4.787810e-02 4.764789e-02 4.808252e-02 4.803185e-02 4.844025e-02 4.863014e-02 4.904761e-02 4.953162e-02 4.997996e-02 5.076521e-02 5.126730e-02 5.221776e-02 5.187900e-02 5.197933e-02 5.198471e-02 5.159447e-02 5.181430e-02 5.165653e-02 5.184075e-02 5.171610e-02 5.203460e-02 5.214312e-02 5.227801e-02 5.242819e-02 5.249878e-02 5.257125e-02 5.235251e-02 5.116264e-02 5.089602e-02 4.972103e-02 4.964799e-02 4.873398e-02 4.880660e-02 4.817823e-02 4.828733e-02 4.792307e-02 4.796563e-02 4.785124e-02 4.775186e-02 4.788148e-02 4.759526e-02 4.796076e-02 4.747282e-02 4.805437e-02 4.737868e-02 4.813889e-02 4.731603e-02 4.819789e-02 4.729101e-02 4.821985e-02 4.730861e-02 4.819797e-02 4.737034e-02 4.813096e-02 4.747310e-02 4.802353e-02 4.760845e-02 4.788602e-02 4.776228e-02 4.773280e-02 4.791490e-02 4.757968e-02 4.804181e-02 4.744029e-02 4.811513e-02 4.732099e-02 4.810491e-02 4.721412e-02 4.798054e-02 4.709006e-02 4.771290e-02 4.688970e-02 4.727534e-02 4.651539e-02 4.662487e-02 4.580409e-02 4.558733e-02 4.437032e-02 4.327564e-02 4.219419e-02 4.129511e-02 4.094671e-02 
3.748912e-02 3.812926e-02 3.847480e-02 4.024559e-02 4.103539e-02 4.362996e-02 4.372824e-02 4.494305e-02 4.565502e-02 4.634018e-02 4.806935e-02 4.925176e-02 5.241235e-02 5.205035e-02 5.223125e-02 5.207294e-02 5.215652e-02 5.213424e-02 5.208954e-02 5.221316e-02 5.205392e-02 5.231520e-02 5.031696e-02 4.928879e-02 4.725497e-02 4.716505e-02 4.567179e-02 4.602847e-02 4.495197e-02 4.540111e-02 4.469839e-02 4.503694e-02 4.468014e-02 4.481443e-02 4.476760e-02 4.467942e-02 4.488980e-02 4.461091e-02 4.501206e-02 4.460481e-02 4.512339e-02 4.466448e-02 4.522960e-02 4.479951e-02 4.535277e-02 4.502692e-02 4.552794e-02 4.536955e-02 4.580094e-02 4.586098e-02 4.623337e-02 4.655255e-02 4.690072e-02 4.750259e-02 4.785911e-02 4.871442e-02 4.903605e-02 4.993123e-02 4.976293e-02 5.036754e-02 5.027100e-02 5.036555e-02 5.036412e-02 5.048065e-02 5.034107e-02 5.023562e-02 5.031803e-02 5.012434e-02 5.003737e-02 4.975963e-02 4.973686e-02 4.917243e-02 4.908823e-02 4.816280e-02 4.812610e-02 4.719035e-02 4.726112e-02 4.645498e-02 4.658638e-02 4.597497e-02 4.608343e-02 4.570764e-02 4.570690e-02 4.559702e-02 4.541540e-02 4.559022e-02 4.518085e-02 4.564221e-02 4.498868e-02 4.571641e-02 4.483663e-02 4.578639e-02 4.473208e-02 4.583323e-02 4.468354e-02 4.584089e-02 4.469529e-02 4.579827e-02 4.476775e-02 4.570193e-02 4.489540e-02 4.555555e-02 4.506587e-02 4.537163e-02 4.526163e-02 4.517022e-02 4.545821e-02 4.497377e-02 4.562437e-02 4.480411e-02 4.572504e-02 4.467709e-02 4.572243e-02 4.459523e-02 4.558011e-02 4.454140e-02 4.526776e-02 4.446655e-02 4.476356e-02 4.427328e-02 4.406356e-02 4.379926e-02 4.316095e-02 4.238489e-02 4.075183e-02 3.957866e-02 3.836881e-02 3.792556e-02 
3.748342e-02 3.810917e-02 3.893488e-02 4.157548e-02 4.324604e-02 4.920712e-02 4.699891e-02 4.667709e-02 4.768736e-02 4.659921e-02 4.764314e-02 4.705607e-02 4.653721e-02 4.562767e-02 4.603433e-02 4.574733e-02 4.593579e-02 4.590376e-02 4.576421e-02 4.606509e-02 4.556454e-02 4.629758e-02 4.617279e-02 4.740367e-02 4.616325e-02 4.745784e-02 4.627827e-02 4.748092e-02 4.649800e-02 4.743676e-02 4.674102e-02 4.734843e-02 4.698134e-02 4.725246e-02 4.720752e-02 4.717822e-02 4.741119e-02 4.714649e-02 4.759159e-02 4.717527e-02 4.775674e-02 4.727851e-02 4.792176e-02 4.747009e-02 4.811324e-02 4.776671e-02 4.836287e-02 4.817928e-02 4.869743e-02 4.871089e-02 4.913792e-02 4.935657e-02 4.968979e-02 5.008712e-02 5.031916e-02 5.082346e-02 5.092531e-02 5.140613e-02 5.131519e-02 5.168638e-02 5.155836e-02 5.169682e-02 5.164565e-02 5.174130e-02 5.170190e-02 5.165944e-02 5.177094e-02 5.161716e-02 5.171495e-02 5.143073e-02 5.160429e-02 5.108043e-02 5.123537e-02 5.050567e-02 5.067061e-02 4.983858e-02 5.003151e-02 4.922591e-02 4.942521e-02 4.874686e-02 4.890035e-02 4.842369e-02 4.846639e-02 4.824178e-02 4.811177e-02 4.816807e-02 4.782064e-02 4.816459e-02 4.758053e-02 4.819528e-02 4.738806e-02 4.823397e-02 4.725092e-02 4.826257e-02 4.717688e-02 4.826299e-02 4.716773e-02 4.822142e-02 4.722293e-02 4.813235e-02 4.733641e-02 4.799642e-02 4.749555e-02 4.782429e-02 4.768549e-02 4.763626e-02 4.788554e-02 4.745534e-02 4.806896e-02 4.730659e-02 4.820763e-02 4.721319e-02 4.827265e-02 4.719039e-02 4.824108e-02 4.724323e-02 4.810494e-02 4.735175e-02 4.788318e-02 4.745224e-02 4.770743e-02 4.746532e-02 4.825508e-02 4.623809e-02 4.299918e-02 4.050344e-02 3.876863e-02 3.784667e-02 
3.016096e-02 3.086719e-02 3.354178e-02 3.752618e-02 4.494525e-02 4.856705e-02 4.159733e-02 4.166259e-02 4.066115e-02 3.969928e-02 3.898728e-02 3.718249e-02 3.506408e-02 3.447463e-02 3.488047e-02 3.458876e-02 3.478780e-02 3.473313e-02 3.463121e-02 3.488379e-02 3.444239e-02 3.499865e-02 3.534871e-02 3.824838e-02 3.795579e-02 4.027977e-02 3.958823e-02 4.131394e-02 4.062174e-02 4.175778e-02 4.129812e-02 4.188700e-02 4.177123e-02 4.188830e-02 4.212689e-02 4.186149e-02 4.239189e-02 4.185427e-02 4.258825e-02 4.190783e-02 4.274216e-02 4.203906e-02 4.287000e-02 4.226095e-02 4.301641e-02 4.260609e-02 4.323194e-02 4.307977e-02 4.353475e-02 4.366531e-02 4.394369e-02 4.435710e-02 4.447722e-02 4.513269e-02 4.511588e-02 4.592828e-02 4.578208e-02 4.660841e-02 4.631790e-02 4.708110e-02 4.673607e-02 4.722594e-02 4.694894e-02 4.727433e-02 4.702032e-02 4.706306e-02 4.699750e-02 4.676770e-02 4.676109e-02 4.629358e-02 4.645123e-02 4.568690e-02 4.594691e-02 4.503665e-02 4.539925e-02 4.440535e-02 4.483651e-02 4.386321e-02 4.428928e-02 4.344940e-02 4.378878e-02 4.319528e-02 4.335767e-02 4.309320e-02 4.298753e-02 4.310576e-02 4.266639e-02 4.318713e-02 4.237979e-02 4.328325e-02 4.212691e-02 4.336857e-02 4.194407e-02 4.343764e-02 4.185613e-02 4.345958e-02 4.185965e-02 4.340737e-02 4.195965e-02 4.327684e-02 4.214999e-02 4.306132e-02 4.240678e-02 4.277721e-02 4.271779e-02 4.246762e-02 4.305734e-02 4.216998e-02 4.338144e-02 4.193204e-02 4.365128e-02 4.180687e-02 4.381859e-02 4.183927e-02 4.385113e-02 4.210315e-02 4.376780e-02 4.268441e-02 4.360420e-02 4.361948e-02 4.344817e-02 4.488869e-02 4.398697e-02 4.765259e-02 4.272818e-02 3.626753e-02 3.272575e-02 3.058438e-02 
2.494343e-02 2.449016e-02 3.067404e-02 3.327529e-02 4.276417e-02 2.115184e-02 2.192265e-02 2.389813e-02 1.837006e-02 2.245830e-02 1.812932e-02 1.975055e-02 1.771751e-02 1.819353e-02 1.894920e-02 1.863858e-02 1.913442e-02 1.891129e-02 1.881284e-02 1.931436e-02 1.781045e-02 1.960996e-02 1.832208e-02 2.029106e-02 2.008226e-02 2.088660e-02 2.104022e-02 2.109400e-02 2.160907e-02 2.111492e-02 2.197125e-02 2.106636e-02 2.221508e-02 2.103455e-02 2.238727e-02 2.105363e-02 2.248845e-02 2.113078e-02 2.252964e-02 2.128519e-02 2.253440e-02 2.151243e-02 2.251137e-02 2.180729e-02 2.250370e-02 2.219232e-02 2.255730e-02 2.265626e-02 2.267238e-02 2.316129e-02 2.285651e-02 2.369245e-02 2.313143e-02 2.423525e-02 2.350457e-02 2.477088e-02 2.398354e-02 2.529070e-02 2.454947e-02 2.560984e-02 2.496349e-02 2.588650e-02 2.531974e-02 2.591594e-02 2.560270e-02 2.599772e-02 2.574817e-02 2.586644e-02 2.589105e-02 2.565811e-02 2.577794e-02 2.524644e-02 2.556582e-02 2.462150e-02 2.513212e-02 2.400250e-02 2.464751e-02 2.348732e-02 2.414725e-02 2.310219e-02 2.366541e-02 2.287709e-02 2.323560e-02 2.280567e-02 2.285559e-02 2.284833e-02 2.251992e-02 2.295479e-02 2.221767e-02 2.305956e-02 2.195478e-02 2.313147e-02 2.178275e-02 2.316857e-02 2.173425e-02 2.313411e-02 2.180522e-02 2.299604e-02 2.200215e-02 2.275402e-02 2.231498e-02 2.240354e-02 2.270596e-02 2.197398e-02 2.314919e-02 2.152969e-02 2.360206e-02 2.112743e-02 2.399556e-02 2.084232e-02 2.426801e-02 2.075786e-02 2.434469e-02 2.094986e-02 2.417055e-02 2.153102e-02 2.375715e-02 2.263583e-02 2.309769e-02 2.436145e-02 2.206779e-02 2.672571e-02 2.004261e-02 3.327229e-02 3.992139e-02 3.393522e-02 2.808667e-02 2.473245e-02 
5.854195e-03 7.871128e-03 1.085376e-02 1.965465e-02 1.092519e-02 2.483257e-02 1.562673e-02 1.179895e-02 1.707094e-02 1.104709e-02 1.748722e-02 1.125381e-02 1.773565e-02 1.335142e-02 1.915242e-02 1.574956e-02 1.873782e-02 1.688029e-02 1.757193e-02 1.735576e-02 1.507295e-02 1.615059e-02 1.275638e-02 1.540862e-02 1.256199e-02 1.523318e-02 1.267936e-02 1.510950e-02 1.289195e-02 1.496265e-02 1.313249e-02 1.478523e-02 1.337762e-02 1.459825e-02 1.362165e-02 1.441692e-02 1.385047e-02 1.425641e-02 1.405667e-02 1.413500e-02 1.424100e-02 1.406044e-02 1.440097e-02 1.403823e-02 1.455234e-02 1.408114e-02 1.470824e-02 1.418908e-02 1.486427e-02 1.434639e-02 1.502334e-02 1.453901e-02 1.518365e-02 1.474174e-02 1.531930e-02 1.490347e-02 1.536522e-02 1.493052e-02 1.524515e-02 1.493796e-02 1.515971e-02 1.474103e-02 1.504072e-02 1.475474e-02 1.494667e-02 1.463346e-02 1.499946e-02 1.467925e-02 1.494924e-02 1.468507e-02 1.506579e-02 1.470810e-02 1.505811e-02 1.477146e-02 1.507786e-02 1.476638e-02 1.501654e-02 1.469380e-02 1.488295e-02 1.459380e-02 1.471562e-02 1.450597e-02 1.454789e-02 1.445003e-02 1.438692e-02 1.442581e-02 1.423100e-02 1.442646e-02 1.407303e-02 1.443686e-02 1.391792e-02 1.445228e-02 1.378476e-02 1.448620e-02 1.368288e-02 1.453532e-02 1.361416e-02 1.458991e-02 1.358307e-02 1.464375e-02 1.358854e-02 1.467789e-02 1.361584e-02 1.468393e-02 1.365443e-02 1.465609e-02 1.370599e-02 1.458340e-02 1.377297e-02 1.447359e-02 1.387609e-02 1.434622e-02 1.404063e-02 1.423459e-02 1.430040e-02 1.417833e-02 1.471834e-02 1.420807e-02 1.532922e-02 1.430363e-02 1.615418e-02 1.428723e-02 1.747419e-02 1.110597e-02 2.396675e-02 1.751979e-02 1.130108e-02 6.424075e-03 
4.252517e-03 4.353427e-03 9.997035e-04 4.144441e-03 1.141939e-02 1.501538e-02 1.219618e-02 6.636850e-03 3.846647e-03 4.054251e-03 1.968118e-03 7.244485e-04 4.275346e-03 8.038434e-03 9.346156e-03 1.061552e-02 9.532909e-03 1.079125e-02 9.262129e-03 8.929735e-03 7.798763e-03 2.977589e-03 2.018530e-03 3.782968e-03 2.967793e-03 5.892979e-03 4.790551e-03 6.634077e-03 5.788046e-03 6.784577e-03 6.418704e-03 6.694517e-03 6.871498e-03 6.551289e-03 7.222200e-03 6.436652e-03 7.473630e-03 6.380295e-03 7.631904e-03 6.412260e-03 7.714070e-03 6.532728e-03 7.724852e-03 6.735952e-03 7.708662e-03 7.043513e-03 7.715678e-03 7.442990e-03 7.754534e-03 7.894121e-03 7.849243e-03 8.390560e-03 8.057800e-03 8.960122e-03 8.472751e-03 9.696357e-03 9.300593e-03 1.083902e-02 1.071678e-02 1.161695e-02 1.170419e-02 1.285831e-02 1.262785e-02 1.298057e-02 1.327358e-02 1.355718e-02 1.321622e-02 1.324313e-02 1.341769e-02 1.283149e-02 1.264874e-02 1.196522e-02 1.204440e-02 1.053929e-02 1.093414e-02 9.329034e-03 1.000884e-02 8.519945e-03 9.298708e-03 8.052937e-03 8.747296e-03 7.868439e-03 8.310389e-03 7.895857e-03 7.937495e-03 8.057547e-03 7.600209e-03 8.283198e-03 7.280685e-03 8.497792e-03 6.989127e-03 8.667570e-03 6.786306e-03 8.790624e-03 6.714101e-03 8.829198e-03 6.776235e-03 8.750226e-03 6.982492e-03 8.551741e-03 7.320797e-03 8.225900e-03 7.746290e-03 7.798895e-03 8.226735e-03 7.330336e-03 8.718427e-03 6.872196e-03 9.154721e-03 6.502221e-03 9.479718e-03 6.318062e-03 9.623511e-03 6.415798e-03 9.533072e-03 6.904733e-03 9.219062e-03 7.872892e-03 8.686135e-03 9.326841e-03 7.977092e-03 1.113987e-02 8.829804e-03 1.657500e-02 8.319830e-03 3.722313e-03 4.594222e-03 4.284984e-03 
6.706632e-04 1.167002e-03 1.109759e-03 9.412222e-04 4.392879e-03 6.098679e-03 6.468286e-03 1.853229e-03 5.243112e-03 5.134375e-03 7.677205e-03 1.088678e-02 1.288944e-02 1.261554e-02 9.318882e-03 3.905432e-03 5.196631e-03 3.772084e-03 6.175191e-03 7.146802e-03 1.247636e-02 1.328601e-02 9.725598e-03 7.111523e-03 4.448783e-03 3.163136e-03 2.140421e-03 1.728437e-03 1.168174e-03 1.407318e-03 6.874459e-04 1.428814e-03 3.849638e-04 1.479687e-03 1.708309e-04 1.486662e-03 5.154373e-05 1.437900e-03 7.849877e-05 1.326725e-03 1.025614e-04 1.157396e-03 1.037495e-04 9.349330e-04 1.220913e-04 6.616819e-04 1.405489e-04 4.119815e-04 1.566609e-04 4.794021e-04 2.447855e-04 9.146518e-04 5.429443e-04 1.591777e-03 1.199455e-03 2.592474e-03 2.439541e-03 4.149302e-03 3.197605e-03 3.775827e-03 4.314613e-03 4.649785e-03 4.087331e-03 4.207410e-03 4.885251e-03 5.082682e-03 4.601833e-03 4.995150e-03 5.401202e-03 5.596024e-03 5.145042e-03 5.237540e-03 5.602658e-03 4.290153e-03 4.471362e-03 2.939654e-03 3.281398e-03 1.808045e-03 2.330273e-03 1.040169e-03 1.637414e-03 6.197825e-04 1.132378e-03 5.050886e-04 7.476650e-04 6.073958e-04 4.579006e-04 7.936391e-04 3.062308e-04 9.794524e-04 3.574933e-04 1.124481e-03 4.556954e-04 1.209946e-03 4.802577e-04 1.207949e-03 4.175650e-04 1.099251e-03 3.207093e-04 8.914766e-04 4.086784e-04 6.270958e-04 7.336692e-04 4.844517e-04 1.152235e-03 6.749355e-04 1.581439e-03 9.971868e-04 1.942454e-03 1.266393e-03 2.158659e-03 1.399511e-03 2.149395e-03 1.372761e-03 1.850067e-03 1.220001e-03 1.254276e-03 1.132934e-03 6.792421e-04 1.437559e-03 1.615771e-03 2.063230e-03 3.920892e-03 6.282493e-03 2.622727e-03 1.968590e-03 1.639630e-03 1.472197e-04 
