# vtk DataFile Version 2.0
Comment goes here
ASCII

DATASET STRUCTURED_POINTS
FIELD FieldData 1
TIME 1 1 double
0.62000000
DIMENSIONS    128   16   1

ORIGIN    0.000   0.000   0.000
SPACING   0.0078125 0.015625   1.000

POINT_DATA   2048
SCALARS uX double
LOOKUP_TABLE default

7.446213e-03 3.559143e-03 6.267694e-03 6.533002e-04 4.640773e-03 -2.331753e-03 1.074961e-02 -1.351737e-03 5.088071e-03 -4.615847e-03 -3.380602e-03 -1.381505e-02 -2.126887e-02 -3.699316e-02 -4.585698e-02 -4.832575e-02 -5.274706e-02 -5.097524e-02 -4.996433e-02 -4.423749e-02 -3.818623e-02 -1.964790e-02 -1.391991e-02 -4.099992e-03 -3.561358e-03 2.144121e-03 7.717723e-04 4.683302e-03 2.606154e-03 5.632704e-03 3.393278e-03 5.893162e-03 3.756898e-03 5.850152e-03 3.956980e-03 5.672476e-03 4.096368e-03 5.438675e-03 4.210209e-03 5.188559e-03 4.305553e-03 4.944419e-03 4.380532e-03 4.719884e-03 4.434771e-03 4.527812e-03 4.477527e-03 4.389719e-03 4.541532e-03 4.355119e-03 4.718004e-03 4.548863e-03 5.230108e-03 5.274581e-03 6.666140e-03 7.570254e-03 1.055737e-02 8.056218e-03 5.766438e-03 9.108595e-03 6.258428e-03 -1.449566e-04 3.763304e-03 5.943654e-03 7.466979e-04 -6.287587e-04 4.330062e-03 2.746514e-03 -2.170612e-03 1.722108e-03 2.579202e-03 9.415889e-04 1.913905e-03 3.995422e-03 3.162797e-03 4.273214e-03 3.247353e-03 4.341271e-03 3.225394e-03 4.346787e-03 3.182044e-03 4.303713e-03 3.162016e-03 4.213702e-03 3.188767e-03 4.074664e-03 3.274720e-03 3.887220e-03 3.422657e-03 3.655829e-03 3.623241e-03 3.388226e-03 3.852921e-03 3.099218e-03 4.082685e-03 2.818298e-03 4.284998e-03 2.587319e-03 4.428980e-03 2.446934e-03 4.477058e-03 2.429758e-03 4.392222e-03 2.559166e-03 4.148124e-03 2.847678e-03 3.738581e-03 3.295086e-03 3.183760e-03 3.882972e-03 2.531107e-03 4.570740e-03 1.859236e-03 5.298133e-03 1.287510e-03 5.989716e-03 9.989119e-04 6.559366e-03 1.301571e-03 6.893873e-03 2.770025e-03 6.710417e-03 6.726240e-03 8.233233e-04 5.729390e-03 2.695040e-03 7.099340e-03 4.209087e-03 
3.138258e-03 7.903478e-05 1.633463e-03 -2.885402e-03 -1.701411e-03 -7.256147e-03 8.479467e-03 -2.628356e-03 3.871741e-03 -1.477338e-03 -1.888668e-04 -1.113492e-03 -5.515520e-03 -3.356367e-04 -1.457601e-03 2.488454e-03 -7.215451e-04 3.185255e-03 -1.213326e-03 1.905249e-03 -3.254560e-03 -2.836018e-03 -2.431428e-03 -4.030252e-04 -1.139637e-03 8.538162e-04 -5.090547e-04 1.489380e-03 -1.642993e-04 1.774227e-03 4.122604e-05 1.835920e-03 1.859264e-04 1.763335e-03 3.145446e-04 1.609669e-03 4.350032e-04 1.413262e-03 5.598890e-04 1.218693e-03 6.901448e-04 1.033586e-03 7.953735e-04 8.531767e-04 8.775586e-04 7.141645e-04 9.722815e-04 6.567962e-04 1.116615e-03 7.385490e-04 1.418154e-03 1.110557e-03 2.126206e-03 2.110823e-03 3.874080e-03 4.648683e-03 6.928105e-03 2.358288e-03 7.748942e-04 4.375581e-03 1.901066e-03 -2.785163e-03 2.873996e-04 2.793734e-04 -3.074821e-03 -4.676902e-03 -1.539278e-03 -3.635200e-03 -7.516928e-03 -4.339287e-03 -5.791925e-03 -8.868351e-03 -6.222278e-03 -2.852659e-03 -2.487737e-03 -9.046713e-04 -1.265549e-03 -8.187230e-05 -7.686469e-04 2.749705e-04 -5.662724e-04 4.036316e-04 -4.702870e-04 3.903041e-04 -4.009245e-04 2.795885e-04 -2.995786e-04 1.073096e-04 -1.454213e-04 -1.205868e-04 5.383112e-05 -3.873206e-04 2.904140e-04 -6.703329e-04 5.262608e-04 -9.607892e-04 7.215943e-04 -1.209373e-03 8.675273e-04 -1.355876e-03 9.289021e-04 -1.376580e-03 8.592650e-04 -1.243672e-03 6.403943e-04 -9.400046e-04 2.522275e-04 -4.831544e-04 -2.982059e-04 1.197321e-04 -9.430322e-04 8.535528e-04 -1.601664e-03 1.656687e-03 -2.176752e-03 2.457125e-03 -2.516385e-03 3.164468e-03 -2.396381e-03 3.609593e-03 -1.367601e-03 3.237383e-03 1.966608e-03 -6.227126e-03 1.820107e-03 -1.333184e-03 3.079972e-03 5.162425e-04 
1.065671e-02 8.147109e-03 6.996055e-03 1.408844e-03 -4.919432e-03 -1.509603e-02 -3.257444e-03 -1.122498e-02 -2.133264e-03 -6.443597e-03 1.339346e-03 1.321841e-03 1.136426e-02 1.560927e-02 2.056229e-02 2.158626e-02 2.282368e-02 2.326784e-02 2.104366e-02 2.043464e-02 1.551601e-02 9.631982e-03 1.678363e-03 -2.715090e-04 -4.839093e-03 -4.422892e-03 -7.741344e-03 -6.233367e-03 -9.072583e-03 -7.051367e-03 -9.695631e-03 -7.503089e-03 -9.986061e-03 -7.824843e-03 -1.009011e-02 -8.119682e-03 -1.010578e-02 -8.420425e-03 -1.004902e-02 -8.685438e-03 -9.936729e-03 -8.946450e-03 -9.872317e-03 -9.262898e-03 -9.895621e-03 -9.606868e-03 -1.000680e-02 -1.001448e-02 -1.032098e-02 -1.063269e-02 -1.102918e-02 -1.170799e-02 -1.253414e-02 -1.384022e-02 -1.582996e-02 -1.862326e-02 -2.269348e-02 -1.909418e-02 -1.380534e-02 -2.056617e-02 -1.374900e-02 -3.806428e-03 -8.583974e-03 -1.228355e-02 -2.551244e-03 -7.276459e-05 -8.036799e-03 -4.573653e-03 2.947413e-03 -2.452171e-03 -4.985400e-03 -3.912848e-04 -4.645292e-03 -6.910306e-03 -8.302101e-03 -8.273059e-03 -9.515433e-03 -8.867918e-03 -1.019927e-02 -9.172175e-03 -1.056349e-02 -9.330044e-03 -1.074225e-02 -9.478411e-03 -1.082819e-02 -9.666080e-03 -1.081061e-02 -9.879157e-03 -1.069642e-02 -1.014549e-02 -1.051827e-02 -1.044913e-02 -1.026691e-02 -1.076243e-02 -1.000023e-02 -1.111208e-02 -9.778751e-03 -1.143359e-02 -9.572602e-03 -1.163524e-02 -9.418687e-03 -1.171736e-02 -9.388931e-03 -1.165429e-02 -9.496146e-03 -1.142872e-02 -9.792068e-03 -1.109473e-02 -1.030264e-02 -1.064804e-02 -1.094268e-02 -1.007404e-02 -1.165829e-02 -9.462400e-03 -1.243814e-02 -8.921693e-03 -1.326194e-02 -8.602470e-03 -1.417181e-02 -8.742209e-03 -1.511734e-02 -9.771769e-03 -1.534661e-02 -1.391050e-02 2.257687e-03 3.895696e-03 9.543863e-03 8.793999e-03 
9.555805e-03 9.724865e-03 6.683471e-03 4.449584e-03 -4.155639e-03 -1.186953e-02 -2.682639e-02 -2.021194e-02 -2.255355e-02 -2.115578e-02 -2.022801e-02 -2.156159e-02 -1.759541e-02 -2.314944e-02 -2.172494e-02 -2.590942e-02 -2.265888e-02 -2.650407e-02 -2.228775e-02 -2.513209e-02 -2.023831e-02 -2.037645e-02 -1.961559e-02 -2.103053e-02 -2.034459e-02 -2.135656e-02 -2.096612e-02 -2.143423e-02 -2.143455e-02 -2.137404e-02 -2.176938e-02 -2.127920e-02 -2.200277e-02 -2.120145e-02 -2.215283e-02 -2.117131e-02 -2.224484e-02 -2.119772e-02 -2.228417e-02 -2.125959e-02 -2.227789e-02 -2.135683e-02 -2.226653e-02 -2.149567e-02 -2.227078e-02 -2.165506e-02 -2.229432e-02 -2.184395e-02 -2.238064e-02 -2.211369e-02 -2.260464e-02 -2.254840e-02 -2.312656e-02 -2.337609e-02 -2.437752e-02 -2.511761e-02 -2.590037e-02 -2.192230e-02 -2.063135e-02 -2.377198e-02 -2.219866e-02 -2.055437e-02 -2.214671e-02 -2.054750e-02 -1.956601e-02 -1.840250e-02 -1.883116e-02 -1.734063e-02 -1.455940e-02 -1.698661e-02 -1.346483e-02 -1.101029e-02 -1.370472e-02 -1.664506e-02 -1.779942e-02 -1.895184e-02 -1.967665e-02 -2.012085e-02 -2.072762e-02 -2.073422e-02 -2.133289e-02 -2.106081e-02 -2.169895e-02 -2.126472e-02 -2.194170e-02 -2.142101e-02 -2.209937e-02 -2.155415e-02 -2.219217e-02 -2.168632e-02 -2.223681e-02 -2.181866e-02 -2.222480e-02 -2.194814e-02 -2.216949e-02 -2.209039e-02 -2.208585e-02 -2.223324e-02 -2.195789e-02 -2.235758e-02 -2.179581e-02 -2.247810e-02 -2.162543e-02 -2.259920e-02 -2.145565e-02 -2.272248e-02 -2.131258e-02 -2.286610e-02 -2.121956e-02 -2.301813e-02 -2.116954e-02 -2.315339e-02 -2.117687e-02 -2.327568e-02 -2.128646e-02 -2.338874e-02 -2.156977e-02 -2.348924e-02 -2.219033e-02 -2.349547e-02 -2.351026e-02 -2.287105e-02 -2.712678e-02 -8.652194e-03 -2.468179e-03 5.401929e-03 7.127471e-03 9.957078e-03 
3.282739e-02 3.576973e-02 3.523614e-02 4.015309e-02 4.233930e-02 4.969655e-02 2.647569e-02 3.906997e-02 2.687901e-02 3.391933e-02 2.503082e-02 2.849296e-02 1.841489e-02 2.257755e-02 2.146384e-02 2.234610e-02 2.243352e-02 2.210843e-02 2.268803e-02 2.168204e-02 2.232540e-02 2.019565e-02 2.737799e-02 2.645968e-02 3.084406e-02 2.952605e-02 3.250273e-02 3.109977e-02 3.328647e-02 3.194763e-02 3.363896e-02 3.248304e-02 3.378239e-02 3.286946e-02 3.380740e-02 3.318757e-02 3.378908e-02 3.346911e-02 3.373319e-02 3.368329e-02 3.365138e-02 3.387642e-02 3.364051e-02 3.412461e-02 3.373607e-02 3.441705e-02 3.393870e-02 3.480058e-02 3.436313e-02 3.542852e-02 3.519796e-02 3.655783e-02 3.684755e-02 3.883725e-02 4.038716e-02 4.384454e-02 4.607272e-02 3.932615e-02 3.442788e-02 4.311473e-02 3.567129e-02 3.079441e-02 3.273167e-02 3.461496e-02 2.637333e-02 2.488039e-02 2.868461e-02 2.455173e-02 1.809796e-02 2.221037e-02 2.051737e-02 1.327234e-02 1.997786e-02 2.486944e-02 2.743290e-02 2.902743e-02 3.057572e-02 3.115846e-02 3.229874e-02 3.233581e-02 3.322584e-02 3.299706e-02 3.371295e-02 3.342956e-02 3.396953e-02 3.376464e-02 3.405202e-02 3.403711e-02 3.400687e-02 3.430493e-02 3.388922e-02 3.457263e-02 3.370536e-02 3.482671e-02 3.351961e-02 3.510412e-02 3.339355e-02 3.534931e-02 3.329677e-02 3.547661e-02 3.325978e-02 3.548654e-02 3.334514e-02 3.535294e-02 3.355836e-02 3.505940e-02 3.394581e-02 3.466223e-02 3.453198e-02 3.416536e-02 3.523719e-02 3.356931e-02 3.601834e-02 3.298649e-02 3.688129e-02 3.256523e-02 3.782641e-02 3.252798e-02 3.889019e-02 3.325714e-02 3.986530e-02 3.557835e-02 3.892834e-02 4.943632e-02 3.431728e-02 3.776024e-02 3.228228e-02 3.516655e-02 
3.702127e-02 3.883707e-02 3.995558e-02 4.442501e-02 5.052470e-02 6.066575e-02 5.829521e-02 6.052518e-02 5.519276e-02 5.739341e-02 5.229425e-02 5.308026e-02 4.609547e-02 4.633662e-02 4.610276e-02 4.627885e-02 4.624478e-02 4.619869e-02 4.632761e-02 4.613276e-02 4.631120e-02 4.614933e-02 5.115483e-02 5.169862e-02 5.463705e-02 5.459461e-02 5.669894e-02 5.610978e-02 5.786473e-02 5.686304e-02 5.849901e-02 5.726591e-02 5.883210e-02 5.751595e-02 5.897924e-02 5.771522e-02 5.902462e-02 5.790262e-02 5.898741e-02 5.805215e-02 5.887961e-02 5.818062e-02 5.876694e-02 5.831223e-02 5.865516e-02 5.839095e-02 5.849374e-02 5.837561e-02 5.826452e-02 5.823940e-02 5.790377e-02 5.788820e-02 5.729442e-02 5.721306e-02 5.629770e-02 5.587107e-02 5.335087e-02 5.127456e-02 5.210058e-02 5.207080e-02 5.266862e-02 5.773359e-02 5.596018e-02 5.332342e-02 5.671099e-02 5.812740e-02 5.421741e-02 5.441255e-02 5.669118e-02 5.609245e-02 5.277821e-02 5.304991e-02 5.461011e-02 5.525675e-02 5.653309e-02 5.669845e-02 5.778174e-02 5.754819e-02 5.854732e-02 5.802129e-02 5.899071e-02 5.828193e-02 5.923562e-02 5.846951e-02 5.937223e-02 5.864618e-02 5.941023e-02 5.881985e-02 5.936470e-02 5.902037e-02 5.926394e-02 5.924220e-02 5.910136e-02 5.947007e-02 5.891764e-02 5.972622e-02 5.875499e-02 5.996743e-02 5.859003e-02 6.013024e-02 5.844777e-02 6.021734e-02 5.838020e-02 6.021328e-02 5.839946e-02 6.010806e-02 5.854774e-02 5.994150e-02 5.885111e-02 5.971021e-02 5.925933e-02 5.940439e-02 5.975051e-02 5.909523e-02 6.034259e-02 5.887887e-02 6.106079e-02 5.889305e-02 6.200361e-02 5.933304e-02 6.333200e-02 6.043750e-02 6.564075e-02 5.838078e-02 4.600222e-02 4.297873e-02 3.847510e-02 3.850136e-02 
4.770420e-02 4.952132e-02 4.904037e-02 5.230944e-02 5.320848e-02 5.902371e-02 6.220611e-02 6.353076e-02 6.183568e-02 6.404016e-02 6.219699e-02 6.412574e-02 6.318792e-02 6.348886e-02 6.320099e-02 6.341733e-02 6.337400e-02 6.331572e-02 6.347783e-02 6.322301e-02 6.346864e-02 6.322799e-02 6.317176e-02 6.264121e-02 6.298091e-02 6.243207e-02 6.307651e-02 6.238119e-02 6.323142e-02 6.238408e-02 6.337104e-02 6.242329e-02 6.347334e-02 6.249591e-02 6.353294e-02 6.260094e-02 6.355492e-02 6.273215e-02 6.354314e-02 6.287572e-02 6.350496e-02 6.302483e-02 6.345648e-02 6.317132e-02 6.339984e-02 6.328978e-02 6.331527e-02 6.334541e-02 6.316337e-02 6.327651e-02 6.284653e-02 6.293515e-02 6.212813e-02 6.195008e-02 6.032939e-02 5.928647e-02 5.737184e-02 6.320347e-02 6.418355e-02 5.975777e-02 6.206223e-02 6.433155e-02 6.192316e-02 6.197833e-02 6.430394e-02 6.514512e-02 6.271285e-02 6.526801e-02 6.771558e-02 6.564141e-02 6.752152e-02 7.258359e-02 6.856573e-02 6.539498e-02 6.445519e-02 6.352439e-02 6.345177e-02 6.299881e-02 6.326715e-02 6.293996e-02 6.335995e-02 6.303769e-02 6.350366e-02 6.318247e-02 6.362004e-02 6.334215e-02 6.368209e-02 6.350858e-02 6.368699e-02 6.368437e-02 6.364346e-02 6.386774e-02 6.355952e-02 6.405359e-02 6.345291e-02 6.423736e-02 6.334215e-02 6.440141e-02 6.323613e-02 6.452377e-02 6.315152e-02 6.459455e-02 6.310994e-02 6.460619e-02 6.312592e-02 6.455599e-02 6.321219e-02 6.445081e-02 6.336934e-02 6.429288e-02 6.357540e-02 6.408565e-02 6.380026e-02 6.384670e-02 6.400507e-02 6.359561e-02 6.412973e-02 6.334381e-02 6.409751e-02 6.307647e-02 6.387437e-02 6.267606e-02 6.404406e-02 5.729153e-02 5.352551e-02 5.160726e-02 4.902463e-02 4.928224e-02 
4.714252e-02 4.823123e-02 4.858838e-02 5.088790e-02 5.219649e-02 5.534321e-02 5.691946e-02 5.920603e-02 6.035849e-02 6.213393e-02 6.499075e-02 6.648806e-02 7.388052e-02 7.403754e-02 7.394020e-02 7.402241e-02 7.399220e-02 7.398971e-02 7.402745e-02 7.395208e-02 7.403341e-02 7.390952e-02 6.774709e-02 6.657621e-02 6.371093e-02 6.274875e-02 6.165262e-02 6.067609e-02 6.062351e-02 5.957762e-02 6.013209e-02 5.901776e-02 5.989954e-02 5.875753e-02 5.977794e-02 5.866737e-02 5.969458e-02 5.867349e-02 5.961418e-02 5.872899e-02 5.952318e-02 5.880609e-02 5.942159e-02 5.888479e-02 5.930684e-02 5.894164e-02 5.916902e-02 5.895387e-02 5.899554e-02 5.889941e-02 5.876885e-02 5.875579e-02 5.847510e-02 5.850365e-02 5.807875e-02 5.815844e-02 5.851386e-02 6.112241e-02 6.062975e-02 6.018143e-02 6.050238e-02 5.928081e-02 5.927752e-02 6.078684e-02 5.997281e-02 5.959916e-02 6.062321e-02 6.146388e-02 6.085085e-02 6.065219e-02 6.225250e-02 6.290410e-02 6.148709e-02 6.050554e-02 6.029769e-02 5.971247e-02 5.993685e-02 5.940053e-02 5.987048e-02 5.931622e-02 5.991266e-02 5.932906e-02 5.996767e-02 5.938883e-02 5.999804e-02 5.947945e-02 5.998874e-02 5.959505e-02 5.993756e-02 5.973406e-02 5.985029e-02 5.989179e-02 5.973565e-02 6.006013e-02 5.960856e-02 6.022885e-02 5.948483e-02 6.037922e-02 5.937630e-02 6.049014e-02 5.929886e-02 6.054749e-02 5.927002e-02 6.054020e-02 5.930121e-02 6.046159e-02 5.939766e-02 6.031088e-02 5.955111e-02 6.008554e-02 5.973268e-02 5.978186e-02 5.989694e-02 5.939646e-02 5.997720e-02 5.891276e-02 5.987136e-02 5.828405e-02 5.942471e-02 5.740544e-02 5.838939e-02 5.605322e-02 5.636653e-02 5.336008e-02 5.149718e-02 4.981756e-02 4.817223e-02 4.789366e-02 
5.194627e-02 5.322243e-02 5.296223e-02 5.526947e-02 5.588422e-02 5.875926e-02 6.019336e-02 6.229431e-02 6.354636e-02 6.528203e-02 6.804141e-02 6.962519e-02 7.712232e-02 7.732056e-02 7.718125e-02 7.728856e-02 7.725554e-02 7.723398e-02 7.731216e-02 7.718047e-02 7.732768e-02 7.714071e-02 7.123114e-02 7.004067e-02 6.738062e-02 6.639449e-02 6.538084e-02 6.444697e-02 6.437544e-02 6.345373e-02 6.390489e-02 6.297978e-02 6.369555e-02 6.278506e-02 6.360003e-02 6.274177e-02 6.354501e-02 6.278168e-02 6.349776e-02 6.286658e-02 6.344624e-02 6.297279e-02 6.338747e-02 6.308286e-02 6.331999e-02 6.318051e-02 6.323757e-02 6.324587e-02 6.312383e-02 6.325101e-02 6.294957e-02 6.316091e-02 6.268216e-02 6.295272e-02 6.231340e-02 6.265272e-02 6.202584e-02 6.295850e-02 6.286886e-02 6.304836e-02 6.316004e-02 6.387191e-02 6.364957e-02 6.435658e-02 6.453963e-02 6.531228e-02 6.518532e-02 6.604794e-02 6.625477e-02 6.657603e-02 6.661896e-02 6.710695e-02 6.633289e-02 6.604373e-02 6.551334e-02 6.509915e-02 6.484098e-02 6.443462e-02 6.441396e-02 6.403315e-02 6.417420e-02 6.381858e-02 6.404347e-02 6.372810e-02 6.396285e-02 6.371995e-02 6.389488e-02 6.376795e-02 6.381932e-02 6.385535e-02 6.372887e-02 6.397025e-02 6.362537e-02 6.410164e-02 6.351597e-02 6.423647e-02 6.341026e-02 6.435966e-02 6.331951e-02 6.445633e-02 6.325611e-02 6.451368e-02 6.323136e-02 6.452160e-02 6.325222e-02 6.447264e-02 6.331785e-02 6.436157e-02 6.341663e-02 6.418441e-02 6.352333e-02 6.393548e-02 6.359504e-02 6.360079e-02 6.356587e-02 6.314696e-02 6.334094e-02 6.250383e-02 6.278889e-02 6.153228e-02 6.171722e-02 5.994977e-02 5.976661e-02 5.718156e-02 5.582573e-02 5.442548e-02 5.296229e-02 5.295746e-02 
4.714100e-02 4.822798e-02 4.858678e-02 5.088496e-02 5.219457e-02 5.534073e-02 5.691818e-02 5.920633e-02 6.035811e-02 6.213590e-02 6.499155e-02 6.649023e-02 7.388081e-02 7.403744e-02 7.394042e-02 7.402200e-02 7.399207e-02 7.398897e-02 7.402689e-02 7.395125e-02 7.403273e-02 7.390943e-02 6.774789e-02 6.657810e-02 6.371185e-02 6.275141e-02 6.165410e-02 6.068210e-02 6.062924e-02 5.958789e-02 6.013993e-02 5.902667e-02 5.990460e-02 5.876095e-02 5.977866e-02 5.866410e-02 5.969214e-02 5.866773e-02 5.961812e-02 5.873475e-02 5.954910e-02 5.883886e-02 5.948334e-02 5.896240e-02 5.942827e-02 5.910055e-02 5.939717e-02 5.925375e-02 5.940138e-02 5.942537e-02 5.945275e-02 5.962469e-02 5.956590e-02 5.987107e-02 5.976959e-02 6.021260e-02 6.012923e-02 6.075436e-02 6.059958e-02 6.093493e-02 6.082955e-02 6.104149e-02 6.091793e-02 6.130051e-02 6.116459e-02 6.141943e-02 6.143231e-02 6.167901e-02 6.163537e-02 6.169596e-02 6.175935e-02 6.167349e-02 6.152347e-02 6.114304e-02 6.111093e-02 6.060166e-02 6.075705e-02 6.017384e-02 6.051040e-02 5.988074e-02 6.035565e-02 5.970767e-02 6.025815e-02 5.962928e-02 6.018227e-02 5.962353e-02 6.010344e-02 5.967454e-02 6.000650e-02 5.976831e-02 5.988705e-02 5.989632e-02 5.975358e-02 6.004968e-02 5.961573e-02 6.020960e-02 5.948247e-02 6.035583e-02 5.936956e-02 6.047127e-02 5.929420e-02 6.053882e-02 5.927126e-02 6.054556e-02 5.931175e-02 6.048101e-02 5.941377e-02 6.033488e-02 5.956360e-02 6.010583e-02 5.973963e-02 5.979834e-02 5.990101e-02 5.940940e-02 5.997951e-02 5.892200e-02 5.987288e-02 5.828839e-02 5.942309e-02 5.740166e-02 5.838371e-02 5.604451e-02 5.636191e-02 5.335267e-02 5.149411e-02 4.981216e-02 4.817029e-02 4.788971e-02 
4.770123e-02 4.951522e-02 4.903642e-02 5.230310e-02 5.320282e-02 5.901794e-02 6.220366e-02 6.353716e-02 6.183685e-02 6.405077e-02 6.220115e-02 6.413520e-02 6.319073e-02 6.348760e-02 6.320128e-02 6.341592e-02 6.337365e-02 6.331385e-02 6.347672e-02 6.322054e-02 6.346734e-02 6.322518e-02 6.316662e-02 6.263832e-02 6.297245e-02 6.242782e-02 6.306645e-02 6.238107e-02 6.322695e-02 6.238884e-02 6.336581e-02 6.241865e-02 6.345388e-02 6.246897e-02 6.349024e-02 6.254097e-02 6.348093e-02 6.263437e-02 6.344144e-02 6.275050e-02 6.338613e-02 6.287949e-02 6.331971e-02 6.301004e-02 6.325483e-02 6.314486e-02 6.321056e-02 6.328839e-02 6.319905e-02 6.344425e-02 6.323116e-02 6.361764e-02 6.331181e-02 6.380758e-02 6.344428e-02 6.402374e-02 6.365037e-02 6.428259e-02 6.390456e-02 6.451920e-02 6.418172e-02 6.475849e-02 6.447256e-02 6.510462e-02 6.482057e-02 6.541647e-02 6.518535e-02 6.572513e-02 6.545612e-02 6.587841e-02 6.562216e-02 6.583923e-02 6.554498e-02 6.553784e-02 6.530067e-02 6.511074e-02 6.500676e-02 6.468868e-02 6.473916e-02 6.433913e-02 6.452829e-02 6.408835e-02 6.436863e-02 6.393038e-02 6.423582e-02 6.385182e-02 6.411058e-02 6.384099e-02 6.397705e-02 6.388294e-02 6.382828e-02 6.397122e-02 6.367449e-02 6.409990e-02 6.352293e-02 6.424661e-02 6.337683e-02 6.438935e-02 6.325186e-02 6.451269e-02 6.316502e-02 6.459829e-02 6.313043e-02 6.463358e-02 6.316148e-02 6.460817e-02 6.325620e-02 6.450910e-02 6.340354e-02 6.434070e-02 6.359586e-02 6.412260e-02 6.381152e-02 6.387270e-02 6.400891e-02 6.361089e-02 6.412925e-02 6.334789e-02 6.408991e-02 6.306488e-02 6.385993e-02 6.265761e-02 6.403572e-02 5.727929e-02 5.352097e-02 5.159858e-02 4.902166e-02 4.927555e-02 
3.701822e-02 3.882880e-02 3.995165e-02 4.441579e-02 5.051750e-02 6.065525e-02 5.828884e-02 6.052288e-02 5.518902e-02 5.740066e-02 5.230293e-02 5.309300e-02 4.609959e-02 4.633655e-02 4.610450e-02 4.627774e-02 4.624459e-02 4.619560e-02 4.632479e-02 4.612694e-02 4.630558e-02 4.614291e-02 5.116211e-02 5.171192e-02 5.464168e-02 5.459746e-02 5.669243e-02 5.612999e-02 5.789347e-02 5.692218e-02 5.854388e-02 5.731547e-02 5.885420e-02 5.753853e-02 5.897652e-02 5.769806e-02 5.897802e-02 5.784022e-02 5.893275e-02 5.801649e-02 5.888884e-02 5.820535e-02 5.882197e-02 5.836707e-02 5.875128e-02 5.853373e-02 5.872921e-02 5.872439e-02 5.876757e-02 5.894942e-02 5.889719e-02 5.923853e-02 5.911712e-02 5.955243e-02 5.936901e-02 5.985708e-02 5.964664e-02 6.014403e-02 5.986580e-02 6.034346e-02 6.004752e-02 6.039771e-02 6.015385e-02 6.052093e-02 6.024064e-02 6.051464e-02 6.032395e-02 6.051070e-02 6.030792e-02 6.041727e-02 6.032643e-02 6.023295e-02 6.023272e-02 5.997606e-02 6.011452e-02 5.968963e-02 6.000667e-02 5.941371e-02 5.990708e-02 5.918120e-02 5.984264e-02 5.903564e-02 5.980262e-02 5.895571e-02 5.973916e-02 5.893357e-02 5.965108e-02 5.898111e-02 5.951960e-02 5.906707e-02 5.932751e-02 5.920481e-02 5.913120e-02 5.942202e-02 5.894283e-02 5.965672e-02 5.873468e-02 5.986704e-02 5.854914e-02 6.005192e-02 5.842104e-02 6.017349e-02 5.836957e-02 6.022352e-02 5.844305e-02 6.019659e-02 5.862839e-02 6.003846e-02 5.889140e-02 5.976443e-02 5.926586e-02 5.944788e-02 5.975638e-02 5.913246e-02 6.034577e-02 5.891157e-02 6.107594e-02 5.892037e-02 6.200369e-02 5.931016e-02 6.329447e-02 6.038640e-02 6.562120e-02 5.835044e-02 4.599087e-02 4.296197e-02 3.847021e-02 3.849137e-02 
3.282424e-02 3.576008e-02 3.523053e-02 4.013971e-02 4.232845e-02 4.967453e-02 2.644998e-02 3.901692e-02 2.684291e-02 3.387099e-02 2.500939e-02 2.846570e-02 1.839812e-02 2.256867e-02 2.145594e-02 2.234381e-02 2.243261e-02 2.210578e-02 2.268332e-02 2.167803e-02 2.232448e-02 2.022747e-02 2.740799e-02 2.652349e-02 3.085901e-02 2.956229e-02 3.247116e-02 3.113198e-02 3.325747e-02 3.200008e-02 3.358201e-02 3.249523e-02 3.364901e-02 3.282975e-02 3.360292e-02 3.309057e-02 3.349304e-02 3.330886e-02 3.338900e-02 3.353739e-02 3.332971e-02 3.373737e-02 3.325668e-02 3.384842e-02 3.316923e-02 3.390743e-02 3.311102e-02 3.393253e-02 3.307296e-02 3.393076e-02 3.307826e-02 3.394114e-02 3.311966e-02 3.392386e-02 3.313983e-02 3.388364e-02 3.321950e-02 3.396985e-02 3.354428e-02 3.420502e-02 3.388813e-02 3.460266e-02 3.431429e-02 3.490321e-02 3.476927e-02 3.527289e-02 3.512324e-02 3.547329e-02 3.548898e-02 3.562725e-02 3.562252e-02 3.564168e-02 3.560564e-02 3.542807e-02 3.547741e-02 3.517454e-02 3.532027e-02 3.490547e-02 3.513747e-02 3.465988e-02 3.498049e-02 3.450215e-02 3.485305e-02 3.441313e-02 3.470698e-02 3.439021e-02 3.455202e-02 3.445247e-02 3.436688e-02 3.455415e-02 3.412589e-02 3.470596e-02 3.390047e-02 3.493829e-02 3.370249e-02 3.516322e-02 3.349269e-02 3.532434e-02 3.332937e-02 3.542375e-02 3.326137e-02 3.541548e-02 3.331609e-02 3.529615e-02 3.356010e-02 3.506852e-02 3.397450e-02 3.466988e-02 3.450666e-02 3.413022e-02 3.518856e-02 3.355553e-02 3.600483e-02 3.300958e-02 3.690239e-02 3.262535e-02 3.789425e-02 3.261143e-02 3.895215e-02 3.328309e-02 3.986975e-02 3.555346e-02 3.893122e-02 4.941269e-02 3.431200e-02 3.774519e-02 3.227918e-02 3.515674e-02 
9.561287e-03 9.721278e-03 6.685597e-03 4.439200e-03 -4.155562e-03 -1.189140e-02 -2.684088e-02 -2.027551e-02 -2.257878e-02 -2.123611e-02 -2.025749e-02 -2.164061e-02 -1.760703e-02 -2.320763e-02 -2.172294e-02 -2.594393e-02 -2.264562e-02 -2.651084e-02 -2.226997e-02 -2.511074e-02 -2.021136e-02 -2.032532e-02 -1.959544e-02 -2.097886e-02 -2.033988e-02 -2.130438e-02 -2.098836e-02 -2.140589e-02 -2.151617e-02 -2.138231e-02 -2.190213e-02 -2.129307e-02 -2.215911e-02 -2.119632e-02 -2.231406e-02 -2.111777e-02 -2.237584e-02 -2.106744e-02 -2.237139e-02 -2.106559e-02 -2.232505e-02 -2.110006e-02 -2.223159e-02 -2.114918e-02 -2.210940e-02 -2.122406e-02 -2.199339e-02 -2.132826e-02 -2.189879e-02 -2.146267e-02 -2.185206e-02 -2.164178e-02 -2.186695e-02 -2.184948e-02 -2.192563e-02 -2.206357e-02 -2.200586e-02 -2.222078e-02 -2.194180e-02 -2.229316e-02 -2.193058e-02 -2.218217e-02 -2.190077e-02 -2.232158e-02 -2.191714e-02 -2.231564e-02 -2.206978e-02 -2.245296e-02 -2.211707e-02 -2.253138e-02 -2.235803e-02 -2.256467e-02 -2.250498e-02 -2.258820e-02 -2.262192e-02 -2.252038e-02 -2.268453e-02 -2.239890e-02 -2.270385e-02 -2.226094e-02 -2.270705e-02 -2.214221e-02 -2.269920e-02 -2.204081e-02 -2.266447e-02 -2.195886e-02 -2.260830e-02 -2.190793e-02 -2.252657e-02 -2.187972e-02 -2.241461e-02 -2.188916e-02 -2.230156e-02 -2.195894e-02 -2.219212e-02 -2.206751e-02 -2.206719e-02 -2.220106e-02 -2.193764e-02 -2.236302e-02 -2.180820e-02 -2.253655e-02 -2.167664e-02 -2.271696e-02 -2.155841e-02 -2.289817e-02 -2.144523e-02 -2.304654e-02 -2.132694e-02 -2.315774e-02 -2.123707e-02 -2.325073e-02 -2.120749e-02 -2.332418e-02 -2.127575e-02 -2.339217e-02 -2.153286e-02 -2.346133e-02 -2.213061e-02 -2.343472e-02 -2.343651e-02 -2.280854e-02 -2.708255e-02 -8.622558e-03 -2.446009e-03 5.414372e-03 7.138609e-03 9.960065e-03 
1.066345e-02 8.149391e-03 7.000261e-03 1.407459e-03 -4.914918e-03 -1.509979e-02 -3.251278e-03 -1.122798e-02 -2.125923e-03 -6.459414e-03 1.331198e-03 1.292849e-03 1.136032e-02 1.558509e-02 2.056109e-02 2.157220e-02 2.282376e-02 2.327407e-02 2.105232e-02 2.046318e-02 1.552638e-02 9.643352e-03 1.655750e-03 -2.874435e-04 -4.866900e-03 -4.419531e-03 -7.758430e-03 -6.246499e-03 -9.141615e-03 -7.111274e-03 -9.790660e-03 -7.545637e-03 -1.005531e-02 -7.830032e-03 -1.013071e-02 -8.070192e-03 -1.008388e-02 -8.299986e-03 -9.996025e-03 -8.572179e-03 -9.917546e-03 -8.844448e-03 -9.799369e-03 -9.049825e-03 -9.649420e-03 -9.216152e-03 -9.514154e-03 -9.343611e-03 -9.373199e-03 -9.409068e-03 -9.222605e-03 -9.409140e-03 -9.015592e-03 -9.261431e-03 -8.680534e-03 -8.993682e-03 -8.434460e-03 -9.058173e-03 -9.120535e-03 -9.543097e-03 -9.703140e-03 -1.076321e-02 -1.050088e-02 -1.097339e-02 -1.123250e-02 -1.168120e-02 -1.141492e-02 -1.159454e-02 -1.202053e-02 -1.155899e-02 -1.172664e-02 -1.134968e-02 -1.152601e-02 -1.071476e-02 -1.127050e-02 -1.029198e-02 -1.115773e-02 -1.001497e-02 -1.111290e-02 -9.838121e-03 -1.111763e-02 -9.773079e-03 -1.113183e-02 -9.774520e-03 -1.108610e-02 -9.832942e-03 -1.098601e-02 -9.970729e-03 -1.081365e-02 -1.014767e-02 -1.055100e-02 -1.038248e-02 -1.028153e-02 -1.071250e-02 -1.002666e-02 -1.104958e-02 -9.752033e-03 -1.133339e-02 -9.520327e-03 -1.156043e-02 -9.382471e-03 -1.167651e-02 -9.366550e-03 -1.167091e-02 -9.540366e-03 -1.153926e-02 -9.883365e-03 -1.120953e-02 -1.033956e-02 -1.070409e-02 -1.093907e-02 -1.012085e-02 -1.166124e-02 -9.507565e-03 -1.244320e-02 -8.967648e-03 -1.328785e-02 -8.647421e-03 -1.417871e-02 -8.721103e-03 -1.506956e-02 -9.709471e-03 -1.531588e-02 -1.386979e-02 2.281131e-03 3.916931e-03 9.556463e-03 8.802794e-03 
3.142474e-03 8.024360e-05 1.635911e-03 -2.886557e-03 -1.699813e-03 -7.257364e-03 8.486943e-03 -2.614110e-03 3.883061e-03 -1.464166e-03 -1.842765e-04 -1.105371e-03 -5.517579e-03 -3.249372e-04 -1.461561e-03 2.494393e-03 -7.267643e-04 3.187183e-03 -1.214865e-03 1.905045e-03 -3.257863e-03 -2.842886e-03 -2.448625e-03 -4.219432e-04 -1.156563e-03 8.454011e-04 -5.137272e-04 1.483278e-03 -1.750891e-04 1.761894e-03 3.621059e-05 1.841036e-03 2.063417e-04 1.791974e-03 3.608124e-04 1.665160e-03 5.171584e-04 1.498334e-03 6.640499e-04 1.304608e-03 7.928996e-04 1.122890e-03 9.297436e-04 9.956710e-04 1.081895e-03 9.285804e-04 1.247122e-03 9.382838e-04 1.454637e-03 1.054701e-03 1.736824e-03 1.302919e-03 2.135608e-03 1.705035e-03 2.634846e-03 2.163806e-03 3.058359e-03 2.219934e-03 2.323384e-03 1.889447e-03 1.900936e-03 7.986071e-04 1.171426e-03 3.885033e-04 1.897647e-04 -5.350850e-04 -4.358224e-04 -9.068574e-04 -1.571085e-03 -1.270101e-03 -1.780867e-03 -1.686643e-03 -1.700568e-03 -1.064967e-03 -1.426315e-03 -5.948177e-04 -1.134759e-03 -2.041494e-04 -9.143276e-04 5.123628e-05 -7.746225e-04 1.755953e-04 -6.747871e-04 2.023964e-04 -5.637661e-04 1.480491e-04 -4.253988e-04 1.473781e-05 -2.433629e-04 -1.726851e-04 -1.036131e-05 -4.094825e-04 2.350015e-04 -6.939923e-04 4.714298e-04 -9.722035e-04 6.953180e-04 -1.195335e-03 8.638075e-04 -1.336601e-03 9.340795e-04 -1.355406e-03 8.725931e-04 -1.232222e-03 6.390260e-04 -9.560899e-04 2.388563e-04 -4.994278e-04 -2.916679e-04 1.206192e-04 -9.270327e-04 8.485887e-04 -1.597969e-03 1.640131e-03 -2.185271e-03 2.429082e-03 -2.541117e-03 3.130746e-03 -2.416945e-03 3.600792e-03 -1.364364e-03 3.251073e-03 1.973160e-03 -6.211592e-03 1.830531e-03 -1.323026e-03 3.086950e-03 5.210253e-04 
