# vtk DataFile Version 2.0
Comment goes here
ASCII

DATASET STRUCTURED_POINTS
FIELD FieldData 1
TIME 1 1 double
0.60000000
DIMENSIONS    128   16   1

ORIGIN    0.000   0.000   0.000
SPACING   0.0078125 0.015625   1.000

POINT_DATA   2048
SCALARS uX double
LOOKUP_TABLE default

2.351122e-03 -9.852903e-04 2.388437e-03 -2.971906e-03 1.936773e-03 -7.925321e-03 1.599691e-03 -2.191613e-03 -4.278403e-04 -8.760226e-04 -6.450522e-04 2.386213e-04 -9.079769e-04 -1.860609e-03 -3.476093e-03 -1.155626e-03 -4.794927e-03 -1.605953e-03 -4.197777e-03 -1.897926e-03 -2.963600e-03 9.905955e-04 -1.105154e-03 8.346194e-04 -1.625915e-03 3.072641e-04 -1.771491e-03 -1.249402e-04 -1.722805e-03 -5.153733e-04 -1.570668e-03 -8.652500e-04 -1.376685e-03 -1.167107e-03 -1.184658e-03 -1.405548e-03 -1.023285e-03 -1.567025e-03 -9.136862e-04 -1.647239e-03 -8.692923e-04 -1.648686e-03 -8.921398e-04 -1.578855e-03 -9.735908e-04 -1.449536e-03 -1.094878e-03 -1.273953e-03 -1.228656e-03 -1.062260e-03 -1.339780e-03 -8.139619e-04 -1.391533e-03 -5.273380e-04 -1.389269e-03 7.778057e-06 -2.573914e-06 3.615240e-03 3.968473e-03 2.796034e-03 4.832259e-03 6.893133e-03 6.089658e-03 5.130836e-03 7.265034e-03 7.649229e-03 5.937789e-03 6.695274e-03 6.879652e-03 6.937252e-03 5.086630e-03 6.803657e-03 6.151312e-03 2.930561e-03 1.767212e-03 1.257527e-04 -1.795818e-05 -8.509173e-04 -7.422420e-04 -1.122648e-03 -1.096022e-03 -1.098892e-03 -1.327910e-03 -9.529022e-04 -1.518748e-03 -7.715944e-04 -1.683513e-03 -6.120980e-04 -1.809755e-03 -5.122824e-04 -1.869909e-03 -4.937000e-04 -1.835616e-03 -5.686133e-04 -1.692098e-03 -7.434507e-04 -1.444410e-03 -1.015097e-03 -1.115675e-03 -1.363820e-03 -7.409071e-04 -1.748469e-03 -3.630960e-04 -2.110292e-03 -3.456935e-05 -2.383420e-03 1.841074e-04 -2.504060e-03 2.316268e-04 -2.417276e-03 5.790918e-05 -2.081580e-03 -3.591377e-04 -1.475285e-03 -9.977245e-04 -6.106709e-04 -1.770607e-03 4.442048e-04 -2.484303e-03 1.515705e-03 -2.768998e-03 2.173273e-03 -1.909581e-03 -2.544243e-04 1.441595e-03 3.759239e-04 2.223461e-03 5.133061e-06 
1.833965e-03 -9.198001e-04 1.925622e-03 -2.535655e-03 1.716845e-03 -9.132769e-03 1.450502e-03 -9.790896e-04 -2.000101e-03 1.666892e-04 -4.061981e-03 5.429472e-04 -7.372046e-03 -6.673686e-04 -6.428922e-03 -1.360454e-03 -5.792738e-03 -1.828188e-03 -5.166126e-03 -2.761045e-03 -4.162775e-03 -4.506860e-03 -2.388615e-03 -2.170850e-03 -1.769533e-03 -1.137165e-03 -1.333853e-03 -6.474876e-04 -9.553366e-04 -4.832890e-04 -6.232628e-04 -5.083318e-04 -3.342085e-04 -6.094929e-04 -8.185810e-05 -7.165795e-04 1.120817e-04 -8.009359e-04 2.282136e-04 -8.396614e-04 2.638147e-04 -8.196852e-04 2.239661e-04 -7.334972e-04 1.340148e-04 -5.687692e-04 2.966425e-05 -3.285511e-04 -5.567283e-05 1.938084e-06 -2.507798e-05 5.378634e-04 3.392044e-04 1.564198e-03 1.525436e-03 4.112279e-03 5.500601e-03 7.253130e-03 5.272488e-03 4.633809e-03 5.350912e-03 3.000262e-03 4.319889e-03 3.832937e-03 3.571025e-03 3.250888e-03 4.058203e-03 4.139186e-03 2.858432e-03 4.945342e-03 3.494111e-03 6.171764e-03 6.679328e-03 3.333639e-03 2.674099e-03 7.450792e-04 1.000260e-03 -1.020146e-04 3.529950e-04 -2.906737e-04 5.321307e-05 -2.071810e-04 -1.390306e-04 -1.920750e-05 -3.105507e-04 1.912272e-04 -4.668997e-04 3.766764e-04 -5.939819e-04 4.908633e-04 -6.712862e-04 5.119589e-04 -6.571315e-04 4.420347e-04 -5.254781e-04 2.746163e-04 -2.812521e-04 1.453160e-05 5.855832e-05 -3.214228e-04 4.436077e-04 -7.164457e-04 8.164277e-04 -1.104463e-03 1.150643e-03 -1.390164e-03 1.397784e-03 -1.512834e-03 1.481514e-03 -1.424301e-03 1.344375e-03 -1.082875e-03 9.478073e-04 -4.701709e-04 2.974218e-04 4.283201e-04 -5.304623e-04 1.584072e-03 -1.415150e-03 2.838858e-03 -2.147224e-03 3.702903e-03 -2.139594e-03 -1.734434e-04 3.158729e-03 5.308662e-04 2.197491e-03 -1.002038e-04 
2.689969e-03 1.183814e-03 3.284898e-03 2.096330e-03 4.966094e-03 -2.022614e-03 2.867110e-03 -4.371486e-04 2.737614e-03 3.925388e-05 2.923405e-03 8.723455e-05 4.289967e-03 2.316706e-03 4.692580e-03 2.761953e-03 4.663703e-03 3.678649e-03 3.597455e-03 4.785491e-03 1.979639e-03 4.606891e-03 -1.630357e-04 3.428805e-03 -2.415319e-04 2.978614e-03 -1.939720e-04 2.596397e-03 -1.834472e-05 2.238120e-03 2.166409e-04 1.857873e-03 4.711843e-04 1.507111e-03 7.486857e-04 1.214912e-03 9.908590e-04 9.611956e-04 1.151491e-03 7.557748e-04 1.224071e-03 6.062995e-04 1.204775e-03 5.144223e-04 1.117983e-03 4.867538e-04 9.696720e-04 4.465929e-04 6.811010e-04 2.575653e-04 1.892742e-04 -1.886955e-04 -5.619672e-04 -1.066630e-03 -1.691058e-03 -2.962983e-03 -5.433124e-03 -9.931879e-03 -1.226893e-02 -9.442101e-03 -1.464920e-02 -1.602708e-02 -1.701859e-02 -1.507689e-02 -1.927057e-02 -1.940199e-02 -1.787045e-02 -1.893592e-02 -1.870952e-02 -1.937125e-02 -1.590053e-02 -1.916869e-02 -1.727811e-02 -1.201312e-02 -8.205470e-03 -5.727127e-03 -3.590529e-03 -2.600865e-03 -1.349217e-03 -9.036555e-04 -2.673694e-04 1.316698e-04 2.248304e-04 8.294908e-04 3.878755e-04 1.328251e-03 3.889726e-04 1.694406e-03 3.184053e-04 1.915429e-03 2.256194e-04 1.997501e-03 2.024650e-04 1.982802e-03 3.101914e-04 1.868628e-03 5.502985e-04 1.659145e-03 9.185112e-04 1.360895e-03 1.339774e-03 9.450162e-04 1.732961e-03 4.853030e-04 2.116553e-03 1.198177e-04 2.461018e-03 -1.046314e-04 2.660265e-03 -1.592062e-04 2.638980e-03 -8.994409e-06 2.320590e-03 3.482552e-04 1.663710e-03 9.539293e-04 6.953076e-04 1.823305e-03 -6.103167e-04 2.850911e-03 -2.235656e-03 3.848954e-03 -3.513808e-03 3.378367e-03 8.283109e-03 3.195769e-03 4.020318e-03 1.464054e-03 
2.399768e-04 2.400638e-03 1.149366e-03 6.752746e-03 3.679830e-03 1.403087e-02 -1.081007e-03 -7.192122e-04 3.268949e-03 -2.173884e-03 4.752125e-03 -2.318514e-03 6.822726e-03 -1.102463e-03 5.632974e-03 -2.275860e-04 4.699807e-03 5.092497e-04 3.770158e-03 1.729402e-03 2.542519e-03 3.648888e-03 7.858871e-04 2.562301e-03 6.284702e-05 2.090257e-03 -3.353420e-04 1.830344e-03 -5.128960e-04 1.663193e-03 -5.538643e-04 1.504186e-03 -5.115746e-04 1.332107e-03 -4.101391e-04 1.137997e-03 -2.860035e-04 9.083511e-04 -1.673511e-04 6.465674e-04 -6.755377e-05 3.569362e-04 -1.344323e-06 3.928557e-05 1.917547e-05 -3.135180e-04 -4.333002e-05 -7.571256e-04 -2.878408e-04 -1.408500e-03 -8.716741e-04 -2.454286e-03 -2.080672e-03 -4.298192e-03 -4.587089e-03 -8.124960e-03 -1.019957e-02 -1.085166e-02 -8.814579e-03 -7.448858e-03 -8.851117e-03 -4.219189e-03 -6.896978e-03 -5.653084e-03 -4.981840e-03 -4.538579e-03 -5.353748e-03 -6.003242e-03 -3.571469e-03 -7.240486e-03 -4.252861e-03 -8.139360e-03 -7.056826e-03 -5.142248e-03 -3.517363e-03 -2.477460e-03 -1.698172e-03 -1.171540e-03 -7.656484e-04 -4.394268e-04 -2.680038e-04 2.319800e-05 -3.637119e-06 3.389789e-04 1.187261e-04 5.633208e-04 1.538546e-04 7.323270e-04 1.328211e-04 8.546526e-04 7.529857e-05 9.433773e-04 1.910002e-05 1.019716e-03 -6.372268e-06 1.083009e-03 7.940023e-06 1.127021e-03 6.935468e-05 1.139442e-03 1.615030e-04 1.091354e-03 2.672302e-04 9.854325e-04 4.064899e-04 8.451563e-04 5.846742e-04 6.654713e-04 7.796681e-04 4.406003e-04 9.768790e-04 1.747887e-04 1.153729e-03 -1.296044e-04 1.287620e-03 -4.453034e-04 1.361151e-03 -7.338256e-04 1.314753e-03 -9.345068e-04 1.054783e-03 -7.534090e-04 1.756528e-04 5.644018e-03 3.479525e-03 2.261358e-03 7.980501e-04 1.174127e-03 
-4.635094e-03 -1.373123e-03 -4.504349e-03 6.695335e-04 -4.083733e-03 1.079804e-02 -3.927338e-03 1.646734e-04 -2.035318e-03 -1.523932e-03 -2.669906e-03 -1.939193e-03 -6.375980e-03 -4.235471e-03 -5.677594e-03 -4.837676e-03 -5.267412e-03 -5.251872e-03 -4.802868e-03 -5.933546e-03 -4.035439e-03 -7.074725e-03 -1.690457e-03 -4.099468e-03 -1.255169e-03 -2.719906e-03 -1.091961e-03 -1.875389e-03 -1.123546e-03 -1.324472e-03 -1.233980e-03 -9.069052e-04 -1.358973e-03 -6.064122e-04 -1.492528e-03 -4.105712e-04 -1.575273e-03 -2.711913e-04 -1.560917e-03 -1.744568e-04 -1.439060e-03 -1.048950e-04 -1.195165e-03 -3.579990e-05 -8.302146e-04 6.828985e-05 -3.086837e-04 3.515408e-04 5.238745e-04 1.071581e-03 1.879958e-03 2.578429e-03 4.127142e-03 5.564489e-03 8.180831e-03 1.207056e-02 1.748237e-02 2.060192e-02 1.706839e-02 1.674036e-02 1.877324e-02 1.430076e-02 1.725349e-02 1.639779e-02 1.612751e-02 1.536123e-02 1.732130e-02 1.707060e-02 1.500334e-02 1.869151e-02 1.546788e-02 1.974699e-02 1.945938e-02 1.303593e-02 9.348172e-03 6.516027e-03 4.311301e-03 3.323474e-03 1.838536e-03 1.595766e-03 5.870150e-04 5.480694e-04 -5.136506e-05 -1.528210e-04 -3.493636e-04 -6.502220e-04 -4.762110e-04 -1.011031e-03 -5.186765e-04 -1.224253e-03 -5.202746e-04 -1.297277e-03 -5.643941e-04 -1.273885e-03 -7.059018e-04 -1.156064e-03 -9.445582e-04 -9.540565e-04 -1.277354e-03 -6.802874e-04 -1.634425e-03 -3.110571e-04 -1.941574e-03 7.808482e-05 -2.222046e-03 3.500168e-04 -2.451205e-03 4.596392e-04 -2.527515e-03 3.831755e-04 -2.375357e-03 9.504177e-05 -1.913107e-03 -3.948194e-04 -1.088567e-03 -1.111774e-03 8.466150e-05 -2.055134e-03 1.626183e-03 -3.113335e-03 3.412706e-03 -4.104136e-03 4.182420e-03 -7.190574e-04 -8.523403e-03 -3.384168e-03 -5.735119e-03 -2.471991e-03 
-7.401740e-03 -6.968494e-03 -8.190178e-03 -9.187618e-03 -1.015455e-02 -9.358292e-03 -5.406275e-03 -3.822135e-03 -6.415140e-03 -3.554875e-03 -6.050796e-03 -3.363068e-03 -6.526787e-03 -5.850009e-03 -6.399399e-03 -6.003700e-03 -6.219811e-03 -6.197315e-03 -6.016160e-03 -6.391416e-03 -5.842199e-03 -6.477741e-03 -4.686507e-03 -6.913009e-03 -4.942876e-03 -6.992953e-03 -4.972745e-03 -6.883901e-03 -5.064946e-03 -6.723240e-03 -5.210262e-03 -6.512785e-03 -5.379951e-03 -6.295751e-03 -5.570141e-03 -6.093292e-03 -5.733188e-03 -5.890207e-03 -5.830629e-03 -5.692377e-03 -5.852520e-03 -5.502744e-03 -5.788665e-03 -5.315563e-03 -5.642039e-03 -5.117889e-03 -5.385157e-03 -4.815618e-03 -4.898209e-03 -4.231281e-03 -4.009575e-03 -3.126660e-03 -2.410496e-03 -9.946282e-04 7.036828e-04 3.449503e-03 6.372978e-03 5.533274e-03 3.312669e-03 4.570880e-03 4.364365e-03 1.558313e-04 2.769197e-03 1.912002e-03 -5.404396e-04 -1.384020e-03 9.129712e-05 -1.305260e-03 -2.862873e-03 -1.005894e-03 -2.730741e-03 -2.736547e-03 -3.791521e-03 -3.875297e-03 -4.362228e-03 -4.219812e-03 -4.718123e-03 -4.578136e-03 -5.032888e-03 -4.961552e-03 -5.263674e-03 -5.359506e-03 -5.411641e-03 -5.740763e-03 -5.472674e-03 -6.078669e-03 -5.474225e-03 -6.362753e-03 -5.437793e-03 -6.558137e-03 -5.380529e-03 -6.659214e-03 -5.363421e-03 -6.693357e-03 -5.432222e-03 -6.657761e-03 -5.591877e-03 -6.552909e-03 -5.842704e-03 -6.378574e-03 -6.133799e-03 -6.108647e-03 -6.410720e-03 -5.791145e-03 -6.691965e-03 -5.520784e-03 -6.961434e-03 -5.326996e-03 -7.145072e-03 -5.225911e-03 -7.187466e-03 -5.239054e-03 -7.029848e-03 -5.367716e-03 -6.639067e-03 -5.646876e-03 -6.037468e-03 -6.104611e-03 -5.230242e-03 -6.709616e-03 -4.265147e-03 -7.409673e-03 -3.282000e-03 -9.938185e-03 -1.158731e-02 -8.022605e-03 -8.232876e-03 -6.681295e-03 
-8.159072e-03 -7.694851e-03 -8.755095e-03 -9.337873e-03 -1.043895e-02 -1.258366e-02 -8.405689e-03 -6.860416e-03 -9.118695e-03 -6.340593e-03 -8.640773e-03 -6.286008e-03 -7.107850e-03 -6.403655e-03 -6.986753e-03 -6.571026e-03 -6.784236e-03 -6.792048e-03 -6.553208e-03 -7.013007e-03 -6.361839e-03 -7.097257e-03 -7.008764e-03 -8.540700e-03 -7.314388e-03 -8.966084e-03 -7.409006e-03 -9.023392e-03 -7.481368e-03 -8.924590e-03 -7.571916e-03 -8.753952e-03 -7.682209e-03 -8.556518e-03 -7.802612e-03 -8.355313e-03 -7.912865e-03 -8.159011e-03 -7.994720e-03 -7.975293e-03 -8.039473e-03 -7.811148e-03 -8.046680e-03 -7.674472e-03 -8.027786e-03 -7.578396e-03 -8.004816e-03 -7.545192e-03 -8.022891e-03 -7.644747e-03 -8.207674e-03 -8.087558e-03 -8.870502e-03 -9.402944e-03 -1.084154e-02 -1.336824e-02 -1.684397e-02 -1.789034e-02 -1.405355e-02 -1.440452e-02 -1.486287e-02 -1.115087e-02 -1.327835e-02 -1.302109e-02 -1.204286e-02 -1.128738e-02 -1.346616e-02 -1.264862e-02 -1.167523e-02 -1.404044e-02 -1.269977e-02 -1.492514e-02 -1.593950e-02 -1.159724e-02 -1.062994e-02 -8.685530e-03 -8.642282e-03 -7.767504e-03 -7.980399e-03 -7.576251e-03 -7.793946e-03 -7.676612e-03 -7.769184e-03 -7.882279e-03 -7.782205e-03 -8.106425e-03 -7.791684e-03 -8.307490e-03 -7.791205e-03 -8.460565e-03 -7.790692e-03 -8.556458e-03 -7.813267e-03 -8.597257e-03 -7.878872e-03 -8.583632e-03 -7.994440e-03 -8.517270e-03 -8.156407e-03 -8.401519e-03 -8.346442e-03 -8.242177e-03 -8.542974e-03 -8.063402e-03 -8.734316e-03 -7.900731e-03 -8.902083e-03 -7.779760e-03 -9.017065e-03 -7.719860e-03 -9.055016e-03 -7.737720e-03 -9.002481e-03 -7.845110e-03 -8.870383e-03 -8.054068e-03 -8.706624e-03 -8.361580e-03 -8.590174e-03 -8.713826e-03 -8.601551e-03 -8.932106e-03 -8.530971e-03 -1.057112e-02 -9.317506e-03 -8.319198e-03 -8.333048e-03 -7.468343e-03 
-8.407644e-03 -8.458181e-03 -8.617124e-03 -8.971507e-03 -8.971294e-03 -9.477243e-03 -8.689764e-03 -8.410342e-03 -8.580495e-03 -8.365167e-03 -8.369453e-03 -8.787757e-03 -6.659631e-03 -6.307629e-03 -6.549720e-03 -6.340404e-03 -6.443054e-03 -6.422124e-03 -6.354860e-03 -6.523772e-03 -6.315589e-03 -6.622436e-03 -7.488222e-03 -7.437322e-03 -7.123558e-03 -7.917211e-03 -7.121757e-03 -8.251213e-03 -7.216434e-03 -8.400932e-03 -7.343118e-03 -8.417229e-03 -7.484432e-03 -8.354052e-03 -7.630400e-03 -8.251904e-03 -7.767310e-03 -8.136688e-03 -7.882172e-03 -8.026763e-03 -7.967540e-03 -7.935313e-03 -8.022403e-03 -7.872938e-03 -8.054830e-03 -7.851964e-03 -8.083889e-03 -7.893192e-03 -8.151170e-03 -8.053676e-03 -8.360094e-03 -8.486885e-03 -8.950193e-03 -9.563186e-03 -1.052644e-02 -1.237014e-02 -1.438191e-02 -1.483219e-02 -1.295334e-02 -1.430227e-02 -1.412606e-02 -1.240363e-02 -1.382276e-02 -1.355906e-02 -1.229019e-02 -1.201526e-02 -1.311457e-02 -1.203962e-02 -1.160372e-02 -1.261059e-02 -1.171265e-02 -1.156918e-02 -1.145802e-02 -9.966114e-03 -9.730078e-03 -8.957913e-03 -8.943067e-03 -8.515757e-03 -8.513284e-03 -8.333498e-03 -8.253082e-03 -8.304450e-03 -8.079956e-03 -8.361487e-03 -7.951553e-03 -8.456898e-03 -7.850368e-03 -8.556181e-03 -7.773252e-03 -8.633291e-03 -7.726366e-03 -8.672933e-03 -7.722903e-03 -8.668707e-03 -7.773215e-03 -8.616760e-03 -7.878427e-03 -8.517097e-03 -8.031027e-03 -8.374658e-03 -8.213680e-03 -8.200489e-03 -8.405849e-03 -8.019003e-03 -8.590361e-03 -7.862775e-03 -8.745991e-03 -7.759994e-03 -8.847055e-03 -7.734627e-03 -8.873816e-03 -7.807438e-03 -8.819147e-03 -7.993688e-03 -8.697113e-03 -8.301272e-03 -8.547127e-03 -8.714059e-03 -8.424492e-03 -9.162802e-03 -8.394530e-03 -9.503349e-03 -8.501170e-03 -9.490228e-03 -8.793247e-03 -8.722868e-03 -8.501311e-03 -8.342033e-03 
-8.530282e-03 -8.441375e-03 -8.820799e-03 -9.074214e-03 -9.198150e-03 -9.643146e-03 -9.034188e-03 -8.710975e-03 -9.104462e-03 -8.637839e-03 -8.950337e-03 -9.130136e-03 -7.083031e-03 -6.669451e-03 -6.974272e-03 -6.733015e-03 -6.839952e-03 -6.854668e-03 -6.710847e-03 -6.985250e-03 -6.638550e-03 -7.081308e-03 -7.607377e-03 -7.621964e-03 -7.175684e-03 -8.080808e-03 -7.230208e-03 -8.423779e-03 -7.370614e-03 -8.565363e-03 -7.515861e-03 -8.563629e-03 -7.657398e-03 -8.481648e-03 -7.796048e-03 -8.366826e-03 -7.930272e-03 -8.251032e-03 -8.056321e-03 -8.154893e-03 -8.171576e-03 -8.092770e-03 -8.278271e-03 -8.077442e-03 -8.386915e-03 -8.125453e-03 -8.520652e-03 -8.264497e-03 -8.721382e-03 -8.542043e-03 -9.055047e-03 -9.029026e-03 -9.605905e-03 -9.798915e-03 -1.044261e-02 -1.088987e-02 -1.159860e-02 -1.191648e-02 -1.181855e-02 -1.168906e-02 -1.182243e-02 -1.096437e-02 -1.142267e-02 -1.088420e-02 -1.094992e-02 -1.043378e-02 -1.088261e-02 -1.049741e-02 -1.051449e-02 -1.057551e-02 -1.064141e-02 -1.058161e-02 -1.075639e-02 -9.861173e-03 -9.976136e-03 -9.163005e-03 -9.317494e-03 -8.712198e-03 -8.855180e-03 -8.474746e-03 -8.546461e-03 -8.384671e-03 -8.335119e-03 -8.383160e-03 -8.182764e-03 -8.426516e-03 -8.069626e-03 -8.483322e-03 -7.989407e-03 -8.531535e-03 -7.944130e-03 -8.556379e-03 -7.938845e-03 -8.548293e-03 -7.976838e-03 -8.501906e-03 -8.056838e-03 -8.416556e-03 -8.172473e-03 -8.297646e-03 -8.313212e-03 -8.157476e-03 -8.465420e-03 -8.014058e-03 -8.612959e-03 -7.888546e-03 -8.738560e-03 -7.802781e-03 -8.826789e-03 -7.777235e-03 -8.868565e-03 -7.829365e-03 -8.866262e-03 -7.971040e-03 -8.836650e-03 -8.202540e-03 -8.807352e-03 -8.500842e-03 -8.800869e-03 -8.804425e-03 -8.807034e-03 -9.027510e-03 -8.776841e-03 -9.135517e-03 -8.726110e-03 -8.566181e-03 -8.521120e-03 -8.252340e-03 
-8.408761e-03 -8.459868e-03 -8.618227e-03 -8.973653e-03 -8.972332e-03 -9.479955e-03 -8.690108e-03 -8.410654e-03 -8.580066e-03 -8.363700e-03 -8.368389e-03 -8.786312e-03 -6.659853e-03 -6.307785e-03 -6.549422e-03 -6.340064e-03 -6.442131e-03 -6.421159e-03 -6.353205e-03 -6.522313e-03 -6.313775e-03 -6.621164e-03 -7.488528e-03 -7.438615e-03 -7.126639e-03 -7.922581e-03 -7.129413e-03 -8.261928e-03 -7.230958e-03 -8.420893e-03 -7.371168e-03 -8.452732e-03 -7.530626e-03 -8.406686e-03 -7.696010e-03 -8.325754e-03 -7.860476e-03 -8.244689e-03 -8.016652e-03 -8.184453e-03 -8.156528e-03 -8.157611e-03 -8.277703e-03 -8.173244e-03 -8.385640e-03 -8.241690e-03 -8.499849e-03 -8.384470e-03 -8.659193e-03 -8.636529e-03 -8.917250e-03 -9.043395e-03 -9.337903e-03 -9.651842e-03 -9.965853e-03 -1.044425e-02 -1.070913e-02 -1.109803e-02 -1.098359e-02 -1.127676e-02 -1.121976e-02 -1.110985e-02 -1.118411e-02 -1.102128e-02 -1.092584e-02 -1.067839e-02 -1.075281e-02 -1.041672e-02 -1.039499e-02 -1.017818e-02 -1.015031e-02 -9.803514e-03 -9.879980e-03 -9.386007e-03 -9.501566e-03 -9.067126e-03 -9.173868e-03 -8.865452e-03 -8.897416e-03 -8.756278e-03 -8.653917e-03 -8.712005e-03 -8.432927e-03 -8.712955e-03 -8.236281e-03 -8.740946e-03 -8.068337e-03 -8.775442e-03 -7.936984e-03 -8.800409e-03 -7.854487e-03 -8.802955e-03 -7.829244e-03 -8.770268e-03 -7.863076e-03 -8.693124e-03 -7.951288e-03 -8.567577e-03 -8.082968e-03 -8.400107e-03 -8.247270e-03 -8.211057e-03 -8.430301e-03 -8.023793e-03 -8.607509e-03 -7.861078e-03 -8.752232e-03 -7.750642e-03 -8.842616e-03 -7.719969e-03 -8.862273e-03 -7.792703e-03 -8.808141e-03 -7.986755e-03 -8.693238e-03 -8.303573e-03 -8.547928e-03 -8.720058e-03 -8.426076e-03 -9.170354e-03 -8.397196e-03 -9.511383e-03 -8.503446e-03 -9.495017e-03 -8.795228e-03 -8.725539e-03 -8.502671e-03 -8.343769e-03 
-8.161736e-03 -7.697514e-03 -8.758262e-03 -9.342357e-03 -1.044251e-02 -1.259235e-02 -8.405405e-03 -6.856102e-03 -9.116375e-03 -6.332544e-03 -8.637127e-03 -6.279985e-03 -7.108470e-03 -6.405299e-03 -6.987113e-03 -6.570594e-03 -6.782722e-03 -6.789488e-03 -6.549188e-03 -7.009488e-03 -6.355864e-03 -7.095266e-03 -7.019598e-03 -8.549672e-03 -7.335546e-03 -8.987392e-03 -7.441556e-03 -9.058663e-03 -7.529100e-03 -8.981708e-03 -7.649350e-03 -8.847386e-03 -7.801704e-03 -8.692765e-03 -7.971199e-03 -8.547145e-03 -8.152183e-03 -8.437387e-03 -8.337452e-03 -8.375971e-03 -8.516402e-03 -8.368095e-03 -8.683938e-03 -8.415550e-03 -8.839842e-03 -8.518596e-03 -8.995050e-03 -8.686221e-03 -9.173432e-03 -8.927412e-03 -9.392106e-03 -9.236448e-03 -9.655498e-03 -9.594959e-03 -9.949146e-03 -9.950336e-03 -1.020445e-02 -1.018078e-02 -1.029193e-02 -1.021936e-02 -1.029840e-02 -1.005942e-02 -1.021642e-02 -9.935996e-03 -1.009766e-02 -9.748449e-03 -1.004439e-02 -9.642039e-03 -9.964175e-03 -9.554096e-03 -9.956310e-03 -9.464075e-03 -9.906767e-03 -9.355018e-03 -9.784866e-03 -9.218664e-03 -9.584968e-03 -9.084611e-03 -9.344787e-03 -8.978538e-03 -9.087582e-03 -8.906417e-03 -8.831610e-03 -8.871528e-03 -8.597300e-03 -8.867496e-03 -8.394704e-03 -8.876113e-03 -8.232873e-03 -8.883756e-03 -8.126132e-03 -8.878337e-03 -8.081358e-03 -8.843663e-03 -8.097369e-03 -8.766978e-03 -8.167449e-03 -8.640145e-03 -8.278907e-03 -8.467395e-03 -8.424820e-03 -8.272281e-03 -8.597090e-03 -8.076968e-03 -8.769522e-03 -7.897996e-03 -8.913607e-03 -7.761030e-03 -9.008051e-03 -7.691754e-03 -9.033662e-03 -7.710937e-03 -8.983879e-03 -7.835098e-03 -8.867233e-03 -8.063146e-03 -8.713156e-03 -8.377993e-03 -8.597781e-03 -8.732844e-03 -8.609807e-03 -8.950432e-03 -8.534742e-03 -1.057795e-02 -9.320690e-03 -8.322466e-03 -8.335530e-03 -7.470535e-03 
-7.404614e-03 -6.971541e-03 -8.193614e-03 -9.193859e-03 -1.016021e-02 -9.372823e-03 -5.410706e-03 -3.824210e-03 -6.415282e-03 -3.545538e-03 -6.041306e-03 -3.352600e-03 -6.527638e-03 -5.851466e-03 -6.398859e-03 -6.003311e-03 -6.217658e-03 -6.194250e-03 -6.009318e-03 -6.384856e-03 -5.832671e-03 -6.475571e-03 -4.680972e-03 -6.909069e-03 -4.937556e-03 -7.000548e-03 -4.978182e-03 -6.896018e-03 -5.073594e-03 -6.753326e-03 -5.268371e-03 -6.608372e-03 -5.506492e-03 -6.432445e-03 -5.727612e-03 -6.257715e-03 -5.951401e-03 -6.147245e-03 -6.178065e-03 -6.105239e-03 -6.378406e-03 -6.128400e-03 -6.546543e-03 -6.213042e-03 -6.671588e-03 -6.340094e-03 -6.767137e-03 -6.536899e-03 -6.900204e-03 -6.833639e-03 -7.090853e-03 -7.193981e-03 -7.328683e-03 -7.600720e-03 -7.630847e-03 -8.026988e-03 -7.946438e-03 -8.371051e-03 -8.196822e-03 -8.628838e-03 -8.450546e-03 -8.727827e-03 -8.619387e-03 -8.748540e-03 -8.691007e-03 -8.629508e-03 -8.725682e-03 -8.476624e-03 -8.653368e-03 -8.234853e-03 -8.509295e-03 -7.936458e-03 -8.275533e-03 -7.656620e-03 -8.012788e-03 -7.384422e-03 -7.689259e-03 -7.162522e-03 -7.355382e-03 -7.018614e-03 -7.007550e-03 -6.925795e-03 -6.655106e-03 -6.899563e-03 -6.346249e-03 -6.931866e-03 -6.075137e-03 -6.966079e-03 -5.842566e-03 -6.991215e-03 -5.694906e-03 -7.005916e-03 -5.646074e-03 -6.976729e-03 -5.689706e-03 -6.882844e-03 -5.814222e-03 -6.696339e-03 -5.979684e-03 -6.412267e-03 -6.193058e-03 -6.104569e-03 -6.475784e-03 -5.811298e-03 -6.759733e-03 -5.524636e-03 -6.982788e-03 -5.293911e-03 -7.121206e-03 -5.164266e-03 -7.125040e-03 -5.164640e-03 -6.971589e-03 -5.340447e-03 -6.636997e-03 -5.673786e-03 -6.054555e-03 -6.128610e-03 -5.233310e-03 -6.734601e-03 -4.280198e-03 -7.447596e-03 -3.293017e-03 -9.953386e-03 -1.159811e-02 -8.028718e-03 -8.237258e-03 -6.683977e-03 
-4.640083e-03 -1.373440e-03 -4.512189e-03 6.680603e-04 -4.098083e-03 1.079504e-02 -3.956313e-03 1.323973e-04 -2.063692e-03 -1.547560e-03 -2.681915e-03 -1.950646e-03 -6.384627e-03 -4.241235e-03 -5.683497e-03 -4.839373e-03 -5.270584e-03 -5.249974e-03 -4.802765e-03 -5.930338e-03 -4.027975e-03 -7.055311e-03 -1.644234e-03 -4.061310e-03 -1.194668e-03 -2.695202e-03 -1.051812e-03 -1.864910e-03 -1.104554e-03 -1.350498e-03 -1.301162e-03 -1.030848e-03 -1.530621e-03 -7.828686e-04 -1.702051e-03 -6.019493e-04 -1.844666e-03 -5.430536e-04 -1.966360e-03 -5.913660e-04 -2.038459e-03 -7.299752e-04 -2.065944e-03 -9.464260e-04 -2.044939e-03 -1.207253e-03 -1.998537e-03 -1.538552e-03 -2.016123e-03 -1.967549e-03 -2.119488e-03 -2.430224e-03 -2.289644e-03 -2.895377e-03 -2.558470e-03 -3.346419e-03 -2.910552e-03 -3.729554e-03 -3.297178e-03 -3.946160e-03 -3.626911e-03 -4.147530e-03 -3.883070e-03 -4.163732e-03 -4.065915e-03 -4.179945e-03 -4.162228e-03 -4.097048e-03 -4.234670e-03 -3.905867e-03 -4.136738e-03 -3.567978e-03 -3.950007e-03 -3.059484e-03 -3.536882e-03 -2.530381e-03 -3.058542e-03 -2.122316e-03 -2.615847e-03 -1.869294e-03 -2.193650e-03 -1.713199e-03 -1.785990e-03 -1.653760e-03 -1.442316e-03 -1.665515e-03 -1.146035e-03 -1.666307e-03 -8.956358e-04 -1.642798e-03 -7.544095e-04 -1.599532e-03 -7.427321e-04 -1.500773e-03 -8.532377e-04 -1.329362e-03 -1.069085e-03 -1.056882e-03 -1.330708e-03 -6.829036e-04 -1.637609e-03 -3.103778e-04 -2.005863e-03 7.607127e-06 -2.331516e-03 2.793977e-04 -2.522313e-03 4.358946e-04 -2.541975e-03 4.144906e-04 -2.322918e-03 1.755408e-04 -1.838888e-03 -3.403994e-04 -1.061174e-03 -1.097976e-03 1.072529e-04 -2.017892e-03 1.673964e-03 -3.075900e-03 3.433292e-03 -4.101283e-03 4.183676e-03 -7.229135e-04 -8.533518e-03 -3.386254e-03 -5.740375e-03 -2.472204e-03 
2.430571e-04 2.406793e-03 1.148101e-03 6.757979e-03 3.673976e-03 1.404077e-02 -1.100715e-03 -7.541952e-04 3.244231e-03 -2.225394e-03 4.728158e-03 -2.369159e-03 6.821764e-03 -1.137677e-03 5.650886e-03 -2.557213e-04 4.741180e-03 4.892011e-04 3.831369e-03 1.720369e-03 2.623272e-03 3.671426e-03 8.800715e-04 2.601015e-03 1.570528e-04 2.139231e-03 -2.500832e-04 1.876151e-03 -4.500035e-04 1.707947e-03 -4.935170e-04 1.574633e-03 -4.374555e-04 1.429980e-03 -3.250661e-04 1.277182e-03 -1.578345e-04 1.142729e-03 5.325206e-05 1.029236e-03 2.823634e-04 9.376321e-04 5.137719e-04 8.688025e-04 7.285774e-04 8.159393e-04 9.198294e-04 7.940078e-04 1.105767e-03 8.167354e-04 1.279579e-03 8.615472e-04 1.416325e-03 9.097630e-04 1.500422e-03 9.326474e-04 1.480829e-03 8.690840e-04 1.338003e-03 8.188300e-04 1.234270e-03 6.888855e-04 1.125320e-03 6.555226e-04 1.048965e-03 5.959639e-04 1.052655e-03 6.352993e-04 1.051683e-03 6.759385e-04 1.086745e-03 7.411930e-04 1.085162e-03 8.674894e-04 1.136909e-03 9.557031e-04 1.114538e-03 9.852861e-04 1.034762e-03 9.875104e-04 9.152583e-04 9.769558e-04 7.786288e-04 9.842691e-04 6.575069e-04 1.021192e-03 5.491654e-04 1.068725e-03 4.485159e-04 1.125118e-03 3.709080e-04 1.189748e-03 3.172225e-04 1.243863e-03 2.821918e-04 1.272902e-03 2.633568e-04 1.257012e-03 2.498853e-04 1.184996e-03 2.591293e-04 1.082605e-03 3.211411e-04 9.570881e-04 4.250965e-04 7.917338e-04 5.619940e-04 5.961814e-04 7.365680e-04 3.774434e-04 9.327934e-04 1.365368e-04 1.137273e-03 -1.119282e-04 1.323078e-03 -3.741780e-04 1.422827e-03 -6.485281e-04 1.374008e-03 -8.484788e-04 1.109848e-03 -6.766826e-04 2.074926e-04 5.678280e-03 3.497664e-03 2.279297e-03 8.064894e-04 1.184031e-03 
2.695589e-03 1.189945e-03 3.287773e-03 2.100593e-03 4.968974e-03 -2.017820e-03 2.872546e-03 -4.326499e-04 2.739182e-03 2.740419e-05 2.912119e-03 6.827832e-05 4.288382e-03 2.307181e-03 4.703155e-03 2.753522e-03 4.686543e-03 3.673520e-03 3.629612e-03 4.792229e-03 2.014041e-03 4.614545e-03 -1.509668e-04 3.417856e-03 -2.466847e-04 2.971680e-03 -1.995794e-04 2.582843e-03 -3.925529e-05 2.232050e-03 2.367096e-04 1.918264e-03 5.468182e-04 1.588375e-03 8.108223e-04 1.280607e-03 1.058099e-03 1.075670e-03 1.288378e-03 9.716101e-04 1.460604e-03 9.574354e-04 1.567778e-03 1.022290e-03 1.595719e-03 1.132357e-03 1.563358e-03 1.318448e-03 1.567923e-03 1.623031e-03 1.655277e-03 2.015651e-03 1.858321e-03 2.529840e-03 2.301676e-03 3.247672e-03 3.121311e-03 4.240036e-03 4.303683e-03 4.972983e-03 5.264724e-03 5.963539e-03 6.086368e-03 6.361444e-03 6.644787e-03 6.849255e-03 6.777160e-03 6.863329e-03 6.825513e-03 6.626569e-03 6.390665e-03 5.965003e-03 5.830494e-03 4.727712e-03 4.628320e-03 3.491094e-03 3.510886e-03 2.623103e-03 2.659548e-03 2.137533e-03 2.008427e-03 1.908218e-03 1.486761e-03 1.875127e-03 1.095235e-03 1.967684e-03 7.832139e-04 2.070121e-03 5.295591e-04 2.147927e-03 3.903411e-04 2.192347e-03 3.841600e-04 2.157849e-03 5.045381e-04 2.020930e-03 7.368948e-04 1.749029e-03 1.023426e-03 1.340842e-03 1.368055e-03 9.049883e-04 1.793469e-03 5.018904e-04 2.198789e-03 1.296274e-04 2.493054e-03 -1.351044e-04 2.639917e-03 -2.241691e-04 2.569042e-03 -9.381993e-05 2.253578e-03 3.216630e-04 1.668435e-03 9.944119e-04 7.209307e-04 1.854098e-03 -6.062893e-04 2.881882e-03 -2.212538e-03 3.901407e-03 -3.489740e-03 3.410784e-03 8.306937e-03 3.214740e-03 4.031827e-03 1.474393e-03 
1.838048e-03 -9.168662e-04 1.928342e-03 -2.535752e-03 1.720016e-03 -9.137875e-03 1.460362e-03 -9.674810e-04 -1.989808e-03 1.745512e-04 -4.056069e-03 5.471447e-04 -7.366246e-03 -6.629207e-04 -6.425250e-03 -1.356079e-03 -5.793306e-03 -1.822734e-03 -5.169570e-03 -2.753688e-03 -4.166496e-03 -4.503861e-03 -2.400827e-03 -2.181770e-03 -1.787450e-03 -1.146349e-03 -1.346337e-03 -6.532663e-04 -9.635439e-04 -4.767792e-04 -6.041479e-04 -4.666879e-04 -2.829724e-04 -5.509787e-04 -2.648611e-05 -6.572522e-04 1.764189e-04 -7.186342e-04 3.256912e-04 -7.146286e-04 4.086580e-04 -6.381338e-04 4.312085e-04 -4.871215e-04 4.046181e-04 -2.693334e-04 3.621558e-04 3.453106e-05 3.788108e-04 4.576328e-04 5.272321e-04 1.018477e-03 8.847062e-04 1.747288e-03 1.512973e-03 2.584585e-03 2.414926e-03 3.610128e-03 3.557462e-03 3.745893e-03 4.230229e-03 4.728200e-03 4.841121e-03 4.694183e-03 5.341615e-03 5.511594e-03 5.276941e-03 5.579660e-03 5.708595e-03 5.761403e-03 5.307292e-03 5.384785e-03 5.229680e-03 3.937837e-03 3.845303e-03 2.518633e-03 2.639980e-03 1.522817e-03 1.709150e-03 9.252145e-04 1.010043e-03 6.214641e-04 4.759578e-04 5.234082e-04 7.336289e-05 5.453206e-04 -2.357649e-04 5.954075e-04 -4.644715e-04 6.250990e-04 -5.863434e-04 6.086155e-04 -5.852618e-04 5.161283e-04 -4.598352e-04 3.326430e-04 -2.219427e-04 4.803880e-05 9.087247e-05 -3.247271e-04 4.558557e-04 -7.200700e-04 8.501428e-04 -1.080136e-03 1.199626e-03 -1.364772e-03 1.430281e-03 -1.504595e-03 1.490489e-03 -1.436287e-03 1.326836e-03 -1.111934e-03 9.222049e-04 -4.870102e-04 2.905833e-04 4.293494e-04 -5.341497e-04 1.578301e-03 -1.427204e-03 2.834181e-03 -2.148047e-03 3.711871e-03 -2.131631e-03 -1.593569e-04 3.170268e-03 5.408905e-04 2.204373e-03 -9.419782e-05 
