# vtk DataFile Version 2.0
Comment goes here
ASCII

DATASET STRUCTURED_POINTS
FIELD FieldData 1
TIME 1 1 double
0.12000000
DIMENSIONS    128   16   1

ORIGIN    0.000   0.000   0.000
SPACING   0.0078125 0.015625   1.000

POINT_DATA   2048
SCALARS uX double
LOOKUP_TABLE default

7.339488e-03 3.305539e-03 6.146562e-03 5.106881e-04 4.566738e-03 -2.394676e-03 1.063390e-02 -1.323717e-03 5.408997e-03 -4.339098e-03 -2.789616e-03 -1.277210e-02 -1.948679e-02 -3.494855e-02 -4.326327e-02 -4.576882e-02 -4.999057e-02 -4.834005e-02 -4.736945e-02 -4.180059e-02 -3.602189e-02 -1.772178e-02 -1.240787e-02 -3.076448e-03 -3.048885e-03 2.285651e-03 6.292702e-04 4.609360e-03 2.561890e-03 5.734699e-03 3.369193e-03 5.884176e-03 3.721019e-03 6.084691e-03 4.188269e-03 6.020907e-03 4.304687e-03 5.453960e-03 4.065398e-03 5.028418e-03 4.214373e-03 4.761176e-03 4.055876e-03 4.374429e-03 4.107081e-03 4.225980e-03 4.176261e-03 3.912473e-03 3.916146e-03 3.546412e-03 3.704912e-03 2.844230e-03 2.874118e-03 2.215805e-03 2.918777e-03 3.094312e-03 5.395256e-03 3.668802e-03 2.472932e-03 6.217537e-03 4.575967e-03 -1.328127e-03 2.652474e-03 5.771380e-03 9.282640e-04 -2.999307e-04 5.365824e-03 4.588373e-03 -7.553548e-04 3.305144e-03 5.184469e-03 4.211224e-03 5.090946e-03 6.774134e-03 4.818167e-03 5.783194e-03 4.560648e-03 5.177831e-03 3.223023e-03 4.069488e-03 3.365370e-03 4.464681e-03 2.928431e-03 3.418528e-03 3.006049e-03 4.098009e-03 3.279352e-03 2.992043e-03 2.971446e-03 3.538998e-03 3.744543e-03 2.701283e-03 3.408044e-03 2.949552e-03 4.126571e-03 2.037427e-03 3.666134e-03 2.427526e-03 4.317691e-03 1.665760e-03 3.781898e-03 2.322080e-03 4.322735e-03 2.022678e-03 3.717478e-03 2.811292e-03 3.356164e-03 2.720008e-03 2.841081e-03 4.108811e-03 2.149706e-03 4.484119e-03 1.688197e-03 5.293404e-03 9.959241e-04 6.086466e-03 7.690687e-04 6.404072e-03 7.118549e-04 6.695175e-03 2.370330e-03 6.702073e-03 6.597419e-03 1.062825e-03 6.272618e-03 2.925690e-03 7.274466e-03 4.053374e-03 
3.046198e-03 -1.538936e-04 1.542085e-03 -2.964164e-03 -1.664981e-03 -7.185828e-03 8.444875e-03 -2.474025e-03 4.386034e-03 -1.637853e-03 -4.156765e-04 -1.043822e-03 -4.988329e-03 -2.937352e-04 -1.139310e-03 2.564025e-03 -6.040513e-04 2.844011e-03 -1.402000e-03 1.682324e-03 -3.135335e-03 -2.023089e-03 -1.340635e-03 2.520365e-04 -1.218213e-03 2.779710e-04 -1.195470e-03 1.362527e-03 2.304452e-04 2.254629e-03 -1.182057e-04 1.357259e-03 -3.152146e-04 1.953664e-03 9.072349e-04 2.678100e-03 1.219281e-03 1.564399e-03 3.919811e-04 9.559800e-04 6.344819e-04 1.011697e-03 6.281939e-04 9.142567e-04 1.119241e-03 1.015282e-03 9.604698e-04 1.623439e-04 6.018820e-04 6.105936e-04 1.746316e-03 1.342052e-03 2.740982e-03 3.583968e-03 6.263215e-03 7.540430e-03 1.007230e-02 7.241230e-03 6.276468e-03 9.085236e-03 7.090627e-03 1.665750e-03 3.982517e-03 4.513463e-03 2.860478e-04 -2.680503e-03 4.434862e-05 -1.616076e-03 -6.704329e-03 -4.766418e-03 -5.725387e-03 -8.496986e-03 -7.055791e-03 -4.882087e-03 -5.953215e-03 -3.161940e-03 -1.725142e-03 -1.627118e-04 -1.976032e-03 -1.323595e-03 -7.544618e-04 8.994166e-04 -7.808774e-04 -1.031057e-03 -7.391332e-04 1.028186e-03 9.308425e-05 -1.700846e-03 -1.733534e-03 -1.895103e-04 6.763391e-04 -1.166257e-03 -6.112992e-04 -5.019102e-04 1.080645e-03 -2.172166e-03 -4.875332e-04 -9.885285e-04 1.256505e-03 -2.619215e-03 -5.806785e-04 -1.116176e-03 1.647198e-03 -1.478169e-03 4.481871e-04 -4.802679e-04 -1.227366e-04 -2.060930e-03 -1.212234e-03 5.908858e-04 -1.388976e-03 6.585641e-04 -1.670535e-03 1.652873e-03 -2.649475e-03 2.357638e-03 -2.837266e-03 2.789554e-03 -3.380752e-03 3.430456e-03 -1.379445e-03 3.676751e-03 2.052478e-03 -5.844249e-03 2.633264e-03 -9.875053e-04 3.313380e-03 3.821456e-04 
1.000890e-02 7.376910e-03 6.478590e-03 9.933182e-04 -4.956213e-03 -1.517483e-02 -3.391751e-03 -1.152620e-02 -2.248872e-03 -7.061893e-03 4.211171e-04 1.980254e-04 9.846549e-03 1.400014e-02 1.865780e-02 1.970875e-02 2.085998e-02 2.132701e-02 1.951743e-02 1.902068e-02 1.397978e-02 8.762888e-03 7.955757e-04 -8.632657e-04 -5.274786e-03 -4.717217e-03 -8.120276e-03 -7.165374e-03 -9.889517e-03 -7.723800e-03 -1.039078e-02 -7.558200e-03 -1.042247e-02 -8.384772e-03 -1.067860e-02 -8.380480e-03 -9.847018e-03 -7.977343e-03 -9.075268e-03 -8.621655e-03 -1.019120e-02 -8.966930e-03 -9.710005e-03 -8.664607e-03 -9.108291e-03 -8.869258e-03 -9.690260e-03 -9.912184e-03 -9.372827e-03 -9.070687e-03 -8.432758e-03 -8.854358e-03 -8.896792e-03 -9.453143e-03 -9.839281e-03 -1.125942e-02 -1.407691e-02 -1.118548e-02 -8.185485e-03 -1.603693e-02 -1.169880e-02 -2.256011e-03 -7.565247e-03 -1.295170e-02 -3.886963e-03 -2.032055e-03 -1.091940e-02 -8.113156e-03 -1.494084e-04 -6.026831e-03 -1.094863e-02 -6.181564e-03 -1.055412e-02 -1.204573e-02 -1.315013e-02 -1.184261e-02 -1.209535e-02 -1.072395e-02 -1.139005e-02 -1.027346e-02 -1.161922e-02 -1.066339e-02 -1.181899e-02 -1.027077e-02 -1.128998e-02 -1.039264e-02 -1.106514e-02 -1.045949e-02 -1.093825e-02 -1.022675e-02 -1.012817e-02 -9.709596e-03 -9.461764e-03 -1.027195e-02 -9.471737e-03 -1.102909e-02 -9.160424e-03 -1.089281e-02 -8.894186e-03 -1.102326e-02 -8.965289e-03 -1.141860e-02 -9.245575e-03 -1.151885e-02 -9.733944e-03 -1.210282e-02 -1.028712e-02 -1.124859e-02 -1.066823e-02 -1.066935e-02 -1.142323e-02 -1.071331e-02 -1.245026e-02 -9.866554e-03 -1.250083e-02 -8.700128e-03 -1.320463e-02 -7.795787e-03 -1.406437e-02 -8.362942e-03 -1.445063e-02 -9.245962e-03 -1.532523e-02 -1.389878e-02 2.822350e-03 3.669074e-03 9.204322e-03 8.039400e-03 
8.943967e-03 9.015764e-03 6.183307e-03 3.916842e-03 -4.214435e-03 -1.220000e-02 -2.676108e-02 -2.078728e-02 -2.318141e-02 -2.096373e-02 -1.947592e-02 -2.157289e-02 -1.792741e-02 -2.290571e-02 -2.176427e-02 -2.561905e-02 -2.234513e-02 -2.561220e-02 -2.150419e-02 -2.426745e-02 -1.973676e-02 -2.054552e-02 -2.112093e-02 -2.158405e-02 -1.973575e-02 -1.978418e-02 -1.965141e-02 -2.208750e-02 -2.329599e-02 -2.319702e-02 -2.240654e-02 -2.038921e-02 -2.165461e-02 -2.236461e-02 -2.431414e-02 -2.392631e-02 -2.376726e-02 -2.116521e-02 -2.091728e-02 -2.075506e-02 -2.252656e-02 -2.145519e-02 -2.188333e-02 -2.109517e-02 -2.203159e-02 -2.158282e-02 -2.198417e-02 -2.082349e-02 -2.038952e-02 -2.051713e-02 -2.107615e-02 -2.116608e-02 -2.232828e-02 -2.408750e-02 -2.553371e-02 -2.541303e-02 -2.574936e-02 -2.341222e-02 -2.272842e-02 -2.493493e-02 -2.406750e-02 -2.169221e-02 -2.347989e-02 -2.313712e-02 -2.221762e-02 -1.939839e-02 -1.940515e-02 -1.922581e-02 -1.657770e-02 -1.694154e-02 -1.460250e-02 -1.388308e-02 -1.615700e-02 -1.563269e-02 -1.414147e-02 -1.630133e-02 -2.026334e-02 -2.085392e-02 -1.884318e-02 -1.808395e-02 -2.175718e-02 -2.339513e-02 -2.213453e-02 -1.921694e-02 -2.154065e-02 -2.368709e-02 -2.277408e-02 -1.813797e-02 -1.844045e-02 -2.100782e-02 -2.221080e-02 -1.868038e-02 -1.847212e-02 -2.092541e-02 -2.173199e-02 -1.875832e-02 -1.798211e-02 -2.133347e-02 -2.120518e-02 -1.844034e-02 -1.757844e-02 -2.226459e-02 -2.290289e-02 -2.186202e-02 -2.136403e-02 -2.430422e-02 -2.110771e-02 -1.948394e-02 -1.962596e-02 -2.368229e-02 -2.077245e-02 -2.321728e-02 -2.190242e-02 -2.338753e-02 -2.020968e-02 -2.236279e-02 -2.057665e-02 -2.125185e-02 -1.986310e-02 -2.235459e-02 -2.267730e-02 -2.294334e-02 -2.704723e-02 -9.013811e-03 -2.875755e-03 4.630989e-03 6.455943e-03 9.197011e-03 
3.199063e-02 3.490423e-02 3.423633e-02 3.888019e-02 4.098944e-02 4.813900e-02 2.530932e-02 3.767017e-02 2.534135e-02 3.334118e-02 2.521539e-02 2.831317e-02 1.852455e-02 2.267898e-02 2.161145e-02 2.248250e-02 2.265963e-02 2.247416e-02 2.279379e-02 2.171262e-02 2.263105e-02 1.979860e-02 2.629957e-02 2.579970e-02 3.061355e-02 2.971118e-02 3.254908e-02 3.062456e-02 3.192456e-02 3.040179e-02 3.275824e-02 3.168583e-02 3.309567e-02 3.140873e-02 3.180120e-02 3.041310e-02 3.115795e-02 3.148148e-02 3.196412e-02 3.248906e-02 3.248467e-02 3.251224e-02 3.240760e-02 3.241142e-02 3.182825e-02 3.255876e-02 3.289157e-02 3.454563e-02 3.390935e-02 3.426874e-02 3.315431e-02 3.459344e-02 3.435847e-02 3.568702e-02 3.641257e-02 4.011155e-02 4.183569e-02 3.555952e-02 3.180991e-02 4.098763e-02 3.639749e-02 3.107971e-02 3.292410e-02 3.673810e-02 2.872583e-02 2.866444e-02 3.358241e-02 3.011879e-02 2.288840e-02 2.833686e-02 3.022798e-02 2.085442e-02 2.442401e-02 2.840987e-02 3.165844e-02 3.167047e-02 3.080921e-02 3.100646e-02 3.312648e-02 3.372143e-02 3.294318e-02 3.205004e-02 3.357291e-02 3.436078e-02 3.368314e-02 3.232721e-02 3.309570e-02 3.575145e-02 3.564203e-02 3.401012e-02 3.278035e-02 3.472246e-02 3.419299e-02 3.408839e-02 3.249020e-02 3.612246e-02 3.426098e-02 3.443257e-02 3.216787e-02 3.609511e-02 3.418233e-02 3.424957e-02 3.137978e-02 3.447507e-02 3.270039e-02 3.384464e-02 3.352299e-02 3.569687e-02 3.479147e-02 3.278575e-02 3.495683e-02 3.321025e-02 3.544991e-02 3.235981e-02 3.651106e-02 3.187782e-02 3.728606e-02 3.180726e-02 3.896280e-02 3.228103e-02 3.831744e-02 3.357198e-02 3.755309e-02 4.768723e-02 3.200576e-02 3.611275e-02 3.097741e-02 3.426074e-02 
3.723032e-02 3.911585e-02 3.994816e-02 4.426063e-02 4.989094e-02 6.011343e-02 5.758844e-02 6.015231e-02 5.468640e-02 5.682703e-02 5.158299e-02 5.291465e-02 4.611929e-02 4.630135e-02 4.609336e-02 4.623984e-02 4.619529e-02 4.612992e-02 4.626145e-02 4.604499e-02 4.626694e-02 4.603466e-02 5.178874e-02 5.183604e-02 5.425446e-02 5.372688e-02 5.596519e-02 5.646969e-02 5.862944e-02 5.746318e-02 5.856730e-02 5.625634e-02 5.823465e-02 5.754923e-02 5.942204e-02 5.816807e-02 5.866890e-02 5.678102e-02 5.704034e-02 5.702023e-02 5.837819e-02 5.748917e-02 5.777844e-02 5.709379e-02 5.745283e-02 5.736155e-02 5.768022e-02 5.747423e-02 5.656957e-02 5.652381e-02 5.581541e-02 5.602147e-02 5.567671e-02 5.644905e-02 5.557326e-02 5.475315e-02 5.245772e-02 5.127224e-02 5.186631e-02 5.167737e-02 5.255602e-02 5.705716e-02 5.567747e-02 5.387607e-02 5.788119e-02 5.899837e-02 5.491147e-02 5.607624e-02 5.911703e-02 5.751371e-02 5.497730e-02 5.590976e-02 5.649001e-02 5.447223e-02 5.469203e-02 5.520979e-02 5.784351e-02 5.781530e-02 5.761320e-02 5.695517e-02 5.932480e-02 5.973132e-02 5.969711e-02 5.776847e-02 5.921475e-02 5.994155e-02 5.979378e-02 5.771101e-02 5.794689e-02 5.894097e-02 5.920432e-02 5.764375e-02 5.716859e-02 5.894868e-02 5.862124e-02 5.841139e-02 5.675918e-02 5.940810e-02 5.798151e-02 5.811525e-02 5.628088e-02 5.982846e-02 5.861015e-02 5.954434e-02 5.814002e-02 6.092103e-02 5.847395e-02 5.835924e-02 5.816144e-02 5.981180e-02 5.915889e-02 5.953567e-02 6.029320e-02 5.914775e-02 5.971746e-02 5.810252e-02 6.042920e-02 5.723084e-02 6.068826e-02 5.824831e-02 6.219644e-02 5.960331e-02 6.498250e-02 5.774271e-02 4.508337e-02 4.277782e-02 3.842863e-02 3.879955e-02 
4.826673e-02 5.020336e-02 4.958526e-02 5.290666e-02 5.352657e-02 5.945429e-02 6.238987e-02 6.392935e-02 6.215428e-02 6.408734e-02 6.194040e-02 6.416134e-02 6.318947e-02 6.344878e-02 6.317695e-02 6.338801e-02 6.334194e-02 6.327096e-02 6.339715e-02 6.313662e-02 6.339449e-02 6.315302e-02 6.386954e-02 6.299068e-02 6.316093e-02 6.229022e-02 6.311900e-02 6.305390e-02 6.434711e-02 6.342745e-02 6.402813e-02 6.249320e-02 6.371606e-02 6.315549e-02 6.448486e-02 6.370066e-02 6.417617e-02 6.284857e-02 6.315962e-02 6.281113e-02 6.363678e-02 6.313753e-02 6.337207e-02 6.310982e-02 6.338267e-02 6.337730e-02 6.328693e-02 6.314415e-02 6.260905e-02 6.297360e-02 6.257817e-02 6.287628e-02 6.234657e-02 6.275446e-02 6.121614e-02 5.959970e-02 5.779690e-02 6.322949e-02 6.419059e-02 5.984353e-02 6.038802e-02 6.289598e-02 6.086335e-02 5.978820e-02 6.221218e-02 6.252768e-02 5.945645e-02 6.137134e-02 6.449254e-02 6.145946e-02 6.109697e-02 6.703088e-02 6.565373e-02 6.294841e-02 6.237727e-02 6.231107e-02 6.379042e-02 6.354869e-02 6.308047e-02 6.258875e-02 6.408459e-02 6.448165e-02 6.425413e-02 6.318364e-02 6.411370e-02 6.486054e-02 6.456396e-02 6.310773e-02 6.307370e-02 6.420641e-02 6.426780e-02 6.348785e-02 6.286247e-02 6.436669e-02 6.385354e-02 6.371885e-02 6.247742e-02 6.469422e-02 6.349959e-02 6.372243e-02 6.220071e-02 6.502009e-02 6.401143e-02 6.483595e-02 6.358592e-02 6.561324e-02 6.371057e-02 6.387245e-02 6.347365e-02 6.511221e-02 6.410681e-02 6.467134e-02 6.471040e-02 6.443980e-02 6.429427e-02 6.377732e-02 6.442383e-02 6.307961e-02 6.388263e-02 6.312716e-02 6.408728e-02 6.309773e-02 6.440057e-02 5.779245e-02 5.396450e-02 5.228537e-02 4.959739e-02 4.997310e-02 
4.790561e-02 4.917957e-02 4.940710e-02 5.188753e-02 5.300965e-02 5.631029e-02 5.769348e-02 6.011595e-02 6.107470e-02 6.285732e-02 6.540380e-02 6.680788e-02 7.386479e-02 7.400873e-02 7.391185e-02 7.398756e-02 7.395342e-02 7.395062e-02 7.398258e-02 7.391791e-02 7.399181e-02 7.389622e-02 6.807446e-02 6.696901e-02 6.426973e-02 6.334967e-02 6.239538e-02 6.160076e-02 6.166954e-02 6.065233e-02 6.118964e-02 5.998845e-02 6.090702e-02 5.984055e-02 6.084677e-02 5.976966e-02 6.059621e-02 5.954281e-02 6.026738e-02 5.950866e-02 6.023150e-02 5.956274e-02 6.006802e-02 5.957238e-02 5.992815e-02 5.965123e-02 5.981741e-02 5.970310e-02 5.963884e-02 5.975156e-02 5.966960e-02 6.001309e-02 5.999606e-02 6.048278e-02 6.025663e-02 6.031121e-02 6.044243e-02 6.262062e-02 6.237169e-02 6.183056e-02 6.139177e-02 6.017757e-02 6.013817e-02 6.099941e-02 5.993072e-02 5.925040e-02 5.999934e-02 6.016718e-02 5.954971e-02 5.903008e-02 5.988458e-02 6.066264e-02 6.071566e-02 6.046286e-02 6.081118e-02 6.031700e-02 6.079692e-02 6.020137e-02 6.061774e-02 6.005622e-02 6.082198e-02 6.037419e-02 6.090621e-02 6.028595e-02 6.087835e-02 6.054810e-02 6.084167e-02 6.035775e-02 6.053553e-02 6.050963e-02 6.049111e-02 6.045068e-02 6.014300e-02 6.067333e-02 6.011710e-02 6.073662e-02 5.984175e-02 6.097178e-02 5.988238e-02 6.095410e-02 5.974227e-02 6.124668e-02 6.005953e-02 6.130333e-02 6.014581e-02 6.139335e-02 6.028487e-02 6.103701e-02 6.042310e-02 6.102159e-02 6.070214e-02 6.075420e-02 6.095828e-02 6.034868e-02 6.092094e-02 5.975900e-02 6.078324e-02 5.905183e-02 6.027356e-02 5.828269e-02 5.927384e-02 5.701800e-02 5.725658e-02 5.437821e-02 5.234428e-02 5.080590e-02 4.895912e-02 4.881931e-02 
5.263914e-02 5.406917e-02 5.370979e-02 5.618888e-02 5.667385e-02 5.970071e-02 6.098824e-02 6.321193e-02 6.433039e-02 6.608035e-02 6.855052e-02 6.998455e-02 7.708009e-02 7.728280e-02 7.713791e-02 7.725136e-02 7.721019e-02 7.719612e-02 7.726098e-02 7.714241e-02 7.727804e-02 7.711626e-02 7.149905e-02 7.036676e-02 6.789877e-02 6.692030e-02 6.602832e-02 6.515002e-02 6.518085e-02 6.429823e-02 6.479325e-02 6.387139e-02 6.460863e-02 6.374077e-02 6.452479e-02 6.370008e-02 6.439210e-02 6.363900e-02 6.423008e-02 6.365884e-02 6.415359e-02 6.372043e-02 6.403612e-02 6.377056e-02 6.393716e-02 6.386625e-02 6.386510e-02 6.394634e-02 6.375414e-02 6.399045e-02 6.368165e-02 6.404934e-02 6.367346e-02 6.417451e-02 6.369824e-02 6.413629e-02 6.359245e-02 6.452161e-02 6.442692e-02 6.454302e-02 6.443462e-02 6.500855e-02 6.470162e-02 6.508299e-02 6.523279e-02 6.569406e-02 6.546996e-02 6.599791e-02 6.621270e-02 6.624991e-02 6.618873e-02 6.678379e-02 6.649384e-02 6.626474e-02 6.593945e-02 6.545863e-02 6.536574e-02 6.486444e-02 6.488779e-02 6.448101e-02 6.475432e-02 6.443444e-02 6.462982e-02 6.432047e-02 6.457094e-02 6.444693e-02 6.451478e-02 6.439192e-02 6.435992e-02 6.452066e-02 6.427681e-02 6.451326e-02 6.405085e-02 6.465706e-02 6.397690e-02 6.473443e-02 6.383129e-02 6.493033e-02 6.382546e-02 6.496505e-02 6.374381e-02 6.511734e-02 6.385123e-02 6.510915e-02 6.389100e-02 6.513422e-02 6.400117e-02 6.497279e-02 6.413558e-02 6.491278e-02 6.428260e-02 6.466817e-02 6.441869e-02 6.435619e-02 6.439480e-02 6.392722e-02 6.421046e-02 6.331902e-02 6.367555e-02 6.244504e-02 6.264379e-02 6.092654e-02 6.065967e-02 5.815509e-02 5.665136e-02 5.532933e-02 5.369169e-02 5.378522e-02 
4.794658e-02 4.922292e-02 4.944160e-02 5.192073e-02 5.303004e-02 5.631985e-02 5.768685e-02 6.007593e-02 6.105552e-02 6.286853e-02 6.544415e-02 6.680665e-02 7.383657e-02 7.400068e-02 7.389737e-02 7.398638e-02 7.394978e-02 7.395703e-02 7.398569e-02 7.392558e-02 7.399336e-02 7.389678e-02 6.799333e-02 6.698481e-02 6.433837e-02 6.346096e-02 6.243802e-02 6.148160e-02 6.145315e-02 6.048620e-02 6.108786e-02 6.006077e-02 6.092565e-02 5.980896e-02 6.075507e-02 5.970345e-02 6.065048e-02 5.972256e-02 6.059739e-02 5.980611e-02 6.050772e-02 5.987716e-02 6.041036e-02 5.993789e-02 6.030802e-02 6.007120e-02 6.030616e-02 6.026306e-02 6.031946e-02 6.039615e-02 6.028200e-02 6.049329e-02 6.032633e-02 6.069270e-02 6.055178e-02 6.103292e-02 6.091600e-02 6.148742e-02 6.135539e-02 6.165438e-02 6.152819e-02 6.162875e-02 6.148053e-02 6.167091e-02 6.153541e-02 6.165503e-02 6.172459e-02 6.181885e-02 6.181312e-02 6.175158e-02 6.190872e-02 6.178846e-02 6.189097e-02 6.148565e-02 6.165565e-02 6.106452e-02 6.132750e-02 6.060306e-02 6.100580e-02 6.034638e-02 6.088461e-02 6.021022e-02 6.072620e-02 6.018609e-02 6.073336e-02 6.031506e-02 6.069224e-02 6.042268e-02 6.068921e-02 6.059150e-02 6.052998e-02 6.061987e-02 6.032798e-02 6.074699e-02 6.018413e-02 6.092809e-02 6.016757e-02 6.116985e-02 6.009294e-02 6.124620e-02 6.002452e-02 6.129461e-02 5.993784e-02 6.118640e-02 5.996724e-02 6.113627e-02 6.011985e-02 6.103871e-02 6.033930e-02 6.082859e-02 6.049054e-02 6.049088e-02 6.068668e-02 6.013878e-02 6.082726e-02 5.973819e-02 6.080689e-02 5.922133e-02 6.045857e-02 5.844613e-02 5.945114e-02 5.712053e-02 5.732751e-02 5.444525e-02 5.239657e-02 5.086127e-02 4.900454e-02 4.886819e-02 
4.835469e-02 5.029817e-02 4.966306e-02 5.297625e-02 5.355720e-02 5.943405e-02 6.227408e-02 6.362279e-02 6.187842e-02 6.418634e-02 6.227864e-02 6.415640e-02 6.310786e-02 6.344262e-02 6.314557e-02 6.337571e-02 6.333032e-02 6.328105e-02 6.342556e-02 6.317694e-02 6.340124e-02 6.317667e-02 6.331608e-02 6.299099e-02 6.365577e-02 6.311691e-02 6.361631e-02 6.259424e-02 6.327398e-02 6.259452e-02 6.386397e-02 6.318372e-02 6.420128e-02 6.307477e-02 6.386145e-02 6.289519e-02 6.383204e-02 6.321571e-02 6.405717e-02 6.344514e-02 6.393931e-02 6.346510e-02 6.374000e-02 6.336403e-02 6.349405e-02 6.353182e-02 6.371985e-02 6.402138e-02 6.387731e-02 6.405853e-02 6.355603e-02 6.373894e-02 6.309124e-02 6.352777e-02 6.317375e-02 6.393292e-02 6.358557e-02 6.424895e-02 6.397515e-02 6.460208e-02 6.433123e-02 6.470544e-02 6.434199e-02 6.470585e-02 6.450689e-02 6.520960e-02 6.532813e-02 6.579869e-02 6.550409e-02 6.580792e-02 6.579445e-02 6.587358e-02 6.549281e-02 6.525707e-02 6.533956e-02 6.519755e-02 6.510344e-02 6.435794e-02 6.446292e-02 6.417484e-02 6.451657e-02 6.377606e-02 6.385411e-02 6.360173e-02 6.411607e-02 6.385961e-02 6.395709e-02 6.403363e-02 6.444217e-02 6.446924e-02 6.394981e-02 6.403126e-02 6.371830e-02 6.430624e-02 6.347734e-02 6.437185e-02 6.371005e-02 6.490655e-02 6.354752e-02 6.483797e-02 6.361424e-02 6.495137e-02 6.305311e-02 6.434994e-02 6.300275e-02 6.449994e-02 6.328878e-02 6.476209e-02 6.383791e-02 6.454948e-02 6.360215e-02 6.402766e-02 6.386510e-02 6.383338e-02 6.424010e-02 6.388328e-02 6.451415e-02 6.371544e-02 6.458456e-02 6.347468e-02 6.428975e-02 6.305595e-02 6.431662e-02 5.781601e-02 5.400181e-02 5.236607e-02 4.967611e-02 5.006966e-02 
3.736111e-02 3.926421e-02 4.008214e-02 4.441439e-02 5.000618e-02 6.024564e-02 5.754563e-02 5.982536e-02 5.455630e-02 5.701320e-02 5.194481e-02 5.289848e-02 4.602091e-02 4.629515e-02 4.604830e-02 4.622853e-02 4.619740e-02 4.616270e-02 4.628886e-02 4.609116e-02 4.627162e-02 4.606145e-02 5.097281e-02 5.166677e-02 5.484965e-02 5.482152e-02 5.665714e-02 5.558871e-02 5.705388e-02 5.623954e-02 5.813505e-02 5.730279e-02 5.880540e-02 5.718204e-02 5.843925e-02 5.730437e-02 5.853433e-02 5.765446e-02 5.895960e-02 5.813178e-02 5.873744e-02 5.824065e-02 5.874600e-02 5.811264e-02 5.835588e-02 5.832571e-02 5.863308e-02 5.889083e-02 5.900635e-02 5.905696e-02 5.846746e-02 5.854367e-02 5.796156e-02 5.827586e-02 5.800283e-02 5.887982e-02 5.881090e-02 5.933105e-02 5.919002e-02 5.987992e-02 5.983934e-02 5.980204e-02 5.935611e-02 5.932596e-02 5.891726e-02 5.929605e-02 5.958858e-02 5.985566e-02 5.941708e-02 5.937177e-02 5.951962e-02 5.922791e-02 5.912928e-02 5.870447e-02 5.916463e-02 5.875261e-02 5.914351e-02 5.794271e-02 5.845480e-02 5.788881e-02 5.879162e-02 5.755677e-02 5.799539e-02 5.751023e-02 5.864602e-02 5.815635e-02 5.847664e-02 5.824062e-02 5.916651e-02 5.904698e-02 5.876986e-02 5.856503e-02 5.821309e-02 5.857221e-02 5.779174e-02 5.901234e-02 5.860623e-02 5.997724e-02 5.830641e-02 5.972381e-02 5.818868e-02 5.989828e-02 5.749930e-02 5.909084e-02 5.741496e-02 5.915797e-02 5.779070e-02 5.935634e-02 5.838746e-02 5.904647e-02 5.829240e-02 5.828692e-02 5.880298e-02 5.808309e-02 5.951662e-02 5.795985e-02 6.031963e-02 5.826273e-02 6.159638e-02 5.890276e-02 6.323831e-02 6.001113e-02 6.500573e-02 5.789550e-02 4.520374e-02 4.292427e-02 3.855441e-02 3.894162e-02 
3.224345e-02 3.518709e-02 3.453925e-02 3.928198e-02 4.145120e-02 4.883054e-02 2.603909e-02 3.853629e-02 2.640450e-02 3.333793e-02 2.449557e-02 2.821856e-02 1.853120e-02 2.259357e-02 2.138473e-02 2.224298e-02 2.247405e-02 2.219864e-02 2.275874e-02 2.175147e-02 2.237562e-02 1.997921e-02 2.664113e-02 2.532125e-02 2.922583e-02 2.800757e-02 3.128906e-02 3.039607e-02 3.281997e-02 3.121373e-02 3.221864e-02 3.079461e-02 3.204757e-02 3.130101e-02 3.277445e-02 3.272104e-02 3.306269e-02 3.254531e-02 3.284985e-02 3.297728e-02 3.277960e-02 3.352472e-02 3.340194e-02 3.398070e-02 3.336437e-02 3.385499e-02 3.260052e-02 3.298272e-02 3.229247e-02 3.316078e-02 3.230675e-02 3.354415e-02 3.314311e-02 3.403368e-02 3.302500e-02 3.377821e-02 3.332036e-02 3.394549e-02 3.349123e-02 3.442113e-02 3.446005e-02 3.502236e-02 3.472660e-02 3.518997e-02 3.446918e-02 3.420714e-02 3.352103e-02 3.385194e-02 3.362640e-02 3.364218e-02 3.335368e-02 3.344352e-02 3.404420e-02 3.426294e-02 3.396731e-02 3.315546e-02 3.369661e-02 3.356222e-02 3.385066e-02 3.305522e-02 3.338081e-02 3.334134e-02 3.391023e-02 3.359273e-02 3.354779e-02 3.363795e-02 3.339036e-02 3.306908e-02 3.222815e-02 3.296547e-02 3.301666e-02 3.407320e-02 3.243291e-02 3.333385e-02 3.230216e-02 3.439706e-02 3.273275e-02 3.457095e-02 3.272164e-02 3.468728e-02 3.214195e-02 3.467331e-02 3.320185e-02 3.542718e-02 3.345184e-02 3.446221e-02 3.329628e-02 3.301583e-02 3.267846e-02 3.246211e-02 3.416279e-02 3.224314e-02 3.483334e-02 3.166579e-02 3.528445e-02 3.030526e-02 3.598377e-02 3.077022e-02 3.760328e-02 3.214748e-02 3.966525e-02 3.478103e-02 3.828041e-02 4.824835e-02 3.244892e-02 3.645192e-02 3.126589e-02 3.452367e-02 
9.172593e-03 9.271569e-03 6.501263e-03 4.317198e-03 -3.686772e-03 -1.149630e-02 -2.575326e-02 -1.926781e-02 -2.179651e-02 -2.074591e-02 -1.997408e-02 -2.105114e-02 -1.711470e-02 -2.218258e-02 -2.098558e-02 -2.483678e-02 -2.188894e-02 -2.578021e-02 -2.189208e-02 -2.458637e-02 -1.998278e-02 -2.018486e-02 -1.983945e-02 -2.161944e-02 -2.169530e-02 -2.252033e-02 -2.159542e-02 -2.090604e-02 -2.039444e-02 -2.068379e-02 -2.199806e-02 -2.216096e-02 -2.288617e-02 -2.138623e-02 -2.171646e-02 -2.035819e-02 -2.154551e-02 -2.080277e-02 -2.223101e-02 -2.103443e-02 -2.187975e-02 -2.064336e-02 -2.134850e-02 -1.998188e-02 -2.070248e-02 -2.023659e-02 -2.150003e-02 -2.149056e-02 -2.205251e-02 -2.136670e-02 -2.097189e-02 -2.006488e-02 -1.935342e-02 -1.909284e-02 -1.926844e-02 -2.001872e-02 -2.014534e-02 -2.055644e-02 -2.058544e-02 -2.107858e-02 -2.087013e-02 -2.065603e-02 -2.014725e-02 -2.010209e-02 -2.000650e-02 -2.110911e-02 -2.201623e-02 -2.252091e-02 -2.207019e-02 -2.229394e-02 -2.264943e-02 -2.243500e-02 -2.181002e-02 -2.136596e-02 -2.215800e-02 -2.242678e-02 -2.247206e-02 -2.112187e-02 -2.144488e-02 -2.139980e-02 -2.220498e-02 -2.066903e-02 -2.067194e-02 -2.038036e-02 -2.183947e-02 -2.125477e-02 -2.177848e-02 -2.179749e-02 -2.362967e-02 -2.298553e-02 -2.255545e-02 -2.147974e-02 -2.216610e-02 -2.189458e-02 -2.164486e-02 -2.170569e-02 -2.248973e-02 -2.284699e-02 -2.202285e-02 -2.231765e-02 -2.216227e-02 -2.246683e-02 -2.031974e-02 -2.078225e-02 -1.993217e-02 -2.163795e-02 -2.054479e-02 -2.311938e-02 -2.176782e-02 -2.324475e-02 -2.050759e-02 -2.249193e-02 -2.062947e-02 -2.278792e-02 -2.122536e-02 -2.370183e-02 -2.179037e-02 -2.384234e-02 -2.243056e-02 -2.359363e-02 -2.335003e-02 -2.268397e-02 -2.649884e-02 -8.714162e-03 -2.584335e-03 4.833977e-03 6.672870e-03 9.394419e-03 
1.008526e-02 7.451518e-03 6.569428e-03 1.058011e-03 -4.880515e-03 -1.519311e-02 -3.314478e-03 -1.132463e-02 -2.340785e-03 -6.836159e-03 8.162468e-04 5.360277e-04 1.013535e-02 1.429765e-02 1.907713e-02 2.011549e-02 2.104274e-02 2.138809e-02 1.914408e-02 1.865585e-02 1.388994e-02 8.531124e-03 9.152018e-04 -7.336725e-04 -5.302903e-03 -4.818648e-03 -8.182483e-03 -6.466816e-03 -9.290576e-03 -7.150644e-03 -9.712384e-03 -7.558747e-03 -1.003949e-02 -7.584721e-03 -1.002815e-02 -8.274530e-03 -1.015034e-02 -8.410705e-03 -1.032271e-02 -8.992246e-03 -1.008885e-02 -9.358287e-03 -1.037533e-02 -9.550382e-03 -1.007701e-02 -9.749860e-03 -9.921703e-03 -9.844539e-03 -1.005736e-02 -1.013184e-02 -9.620797e-03 -9.996037e-03 -9.661902e-03 -1.014412e-02 -9.676932e-03 -1.059758e-02 -1.052105e-02 -1.119241e-02 -1.125297e-02 -1.178201e-02 -1.196031e-02 -1.233193e-02 -1.171661e-02 -1.152882e-02 -1.125991e-02 -1.117495e-02 -1.087613e-02 -1.081791e-02 -1.089109e-02 -9.978665e-03 -9.969387e-03 -9.219874e-03 -9.717139e-03 -9.075466e-03 -1.002181e-02 -8.937791e-03 -1.030245e-02 -8.997646e-03 -1.031302e-02 -9.021298e-03 -1.049734e-02 -9.088833e-03 -1.040238e-02 -9.411131e-03 -1.081944e-02 -1.004163e-02 -1.080783e-02 -1.009039e-02 -1.085090e-02 -1.068818e-02 -1.097954e-02 -1.102373e-02 -1.027553e-02 -1.063386e-02 -9.826689e-03 -1.155702e-02 -1.058993e-02 -1.227336e-02 -1.025732e-02 -1.215437e-02 -9.771382e-03 -1.211918e-02 -9.646294e-03 -1.190514e-02 -9.687170e-03 -1.146675e-02 -9.960561e-03 -1.099546e-02 -1.016165e-02 -1.046582e-02 -1.090939e-02 -9.795395e-03 -1.158709e-02 -9.285839e-03 -1.229150e-02 -8.361254e-03 -1.305444e-02 -8.503850e-03 -1.442803e-02 -9.011661e-03 -1.599495e-02 -1.009337e-02 -1.555429e-02 -1.406721e-02 2.760952e-03 3.655779e-03 9.240995e-03 8.090810e-03 
3.062887e-03 -1.343688e-04 1.563608e-03 -2.971536e-03 -1.701363e-03 -7.325462e-03 8.224340e-03 -2.858806e-03 3.888218e-03 -1.436966e-03 1.591858e-04 -9.781926e-04 -5.141872e-03 -4.422576e-04 -1.392465e-03 2.231123e-03 -7.884984e-04 3.129755e-03 -1.051043e-03 1.973482e-03 -2.999596e-03 -2.354027e-03 -1.859057e-03 2.764445e-04 -3.936812e-04 1.449129e-03 -3.441711e-04 1.271890e-03 -6.767566e-04 1.566556e-03 2.122158e-04 2.366193e-03 6.525367e-04 2.198019e-03 3.294912e-04 1.442467e-03 3.128436e-04 1.484356e-03 5.608533e-04 1.148346e-03 5.862348e-04 6.987576e-04 2.700757e-04 2.277182e-04 2.392071e-04 1.760552e-04 7.561277e-04 6.021064e-04 9.751871e-04 3.263795e-04 7.365165e-04 -4.009825e-04 -3.506753e-04 -1.522387e-03 -1.176315e-03 -2.304161e-03 -2.135399e-03 -3.202265e-03 -3.076752e-03 -3.332344e-03 -2.799054e-03 -3.201390e-03 -2.338404e-03 -2.364967e-03 -1.657244e-03 -1.230218e-03 -1.776843e-04 2.264997e-04 1.245452e-04 1.116376e-03 1.356350e-03 2.007913e-03 1.466150e-03 1.537150e-03 5.984413e-04 1.327749e-03 1.836259e-05 3.576936e-04 -7.581869e-04 3.423905e-04 -4.371412e-04 7.386602e-05 -1.068305e-03 -3.407555e-04 -6.839578e-04 -2.657606e-04 -6.756004e-04 -3.141319e-04 1.347779e-04 -1.245880e-04 -2.360931e-04 -1.171321e-03 6.611550e-05 -8.376826e-04 2.512498e-04 -1.670631e-03 2.539105e-04 -1.576357e-03 3.775415e-04 -1.880529e-03 7.543042e-04 -1.638828e-03 1.378636e-04 -2.220854e-03 -1.507681e-04 -1.404559e-03 -2.248790e-04 -3.454242e-04 -3.602399e-05 4.093328e-04 -1.305689e-03 7.646004e-04 -1.869456e-03 1.585891e-03 -2.228511e-03 2.929044e-03 -2.465412e-03 3.319522e-03 -2.673093e-03 3.419496e-03 -2.083696e-03 2.979205e-03 1.590537e-03 -6.107828e-03 2.468133e-03 -1.065102e-03 3.280358e-03 3.793874e-04 
