# vtk DataFile Version 2.0
Comment goes here
ASCII

DATASET STRUCTURED_POINTS
FIELD FieldData 1
TIME 1 1 double
0.28000000
DIMENSIONS    128   16   1

ORIGIN    0.000   0.000   0.000
SPACING   0.0078125 0.015625   1.000

POINT_DATA   2048
SCALARS uY double
LOOKUP_TABLE default

-2.455660e-05 -1.986939e-05 -2.425790e-05 -1.872195e-05 -2.506318e-05 -1.738422e-05 -2.176401e-05 -7.247589e-06 1.464360e-06 1.460007e-05 2.879097e-05 3.539424e-05 4.529952e-05 4.116742e-05 6.248041e-05 5.253936e-05 7.634021e-05 5.447599e-05 8.329191e-05 6.032564e-05 8.762634e-05 5.284232e-05 5.862653e-05 9.320161e-06 9.366888e-06 -3.658381e-05 -3.518169e-05 -7.644162e-05 -7.739395e-05 -1.145169e-04 -1.170002e-04 -1.365484e-04 -1.180377e-04 -8.640482e-05 -5.258647e-05 -1.368187e-05 -1.882817e-05 1.463111e-06 -3.122797e-05 -1.341860e-06 -3.921705e-05 1.536389e-05 -1.253461e-05 6.045086e-05 2.589498e-05 1.180093e-04 1.034799e-04 2.393255e-04 2.448532e-04 4.271824e-04 4.476773e-04 6.130178e-04 5.296875e-04 5.398960e-04 3.215098e-04 8.110927e-05 -5.447181e-04 -1.652783e-03 -4.917793e-04 -1.256596e-03 -3.099801e-03 -2.644680e-03 -1.087253e-03 -2.789994e-03 -3.750385e-03 -1.459739e-03 -1.730960e-03 -3.211287e-03 -2.188278e-03 -1.386442e-04 -1.084605e-03 -3.952469e-04 2.130491e-03 2.174151e-03 2.743742e-03 2.691969e-03 2.589510e-03 2.291991e-03 1.897889e-03 1.625565e-03 1.242171e-03 1.082182e-03 7.698307e-04 6.944919e-04 4.611765e-04 4.582603e-04 3.074560e-04 3.323349e-04 2.042976e-04 2.088621e-04 1.037654e-04 1.005371e-04 2.497703e-05 1.888298e-05 -1.021386e-05 1.681219e-06 1.040531e-05 2.451151e-05 2.903804e-05 8.229352e-06 -1.085601e-05 -3.642913e-05 -2.483325e-05 -1.029945e-05 2.800423e-05 4.862957e-05 6.881216e-05 8.053187e-05 8.470018e-05 7.632973e-05 6.278523e-05 4.530862e-05 3.016157e-05 1.497818e-05 6.632791e-06 1.843615e-06 -6.976178e-06 -2.645169e-05 -4.207539e-05 -6.493032e-05 -6.794589e-05 -6.846767e-05 -5.608735e-05 -4.759446e-05 -3.977076e-05 -3.201516e-05 -2.888593e-05 -2.338095e-05 
-1.125682e-04 -1.178463e-03 -1.725270e-03 -1.304279e-03 2.843182e-06 6.360396e-03 -2.350980e-03 -4.364777e-03 -4.218490e-03 -8.560552e-03 -1.011412e-02 -1.796000e-02 -2.188945e-02 -2.291145e-02 -1.177292e-02 -6.209895e-03 -2.417122e-03 2.259068e-03 6.875262e-03 1.104776e-02 2.297134e-02 2.341788e-02 1.591652e-02 1.088749e-02 6.765590e-03 4.516371e-03 2.863673e-03 1.778617e-03 1.169623e-03 6.469555e-04 4.257608e-04 1.391353e-04 1.078850e-05 -7.699223e-06 -6.698659e-05 9.131440e-05 -9.245199e-05 1.118830e-04 -2.087130e-04 7.159687e-05 -3.145138e-04 9.197375e-05 -2.515175e-04 2.143469e-04 -1.928932e-04 2.793289e-04 -4.831092e-05 4.686956e-04 1.218005e-04 6.084666e-04 2.877204e-04 8.050818e-04 4.162139e-04 1.194654e-03 9.683009e-04 1.607884e-03 -5.216118e-03 -1.216926e-02 3.236633e-03 -3.952184e-04 -2.446132e-02 -9.472122e-03 1.545575e-02 -9.069271e-03 -2.063113e-02 1.076819e-02 9.640407e-03 -1.775309e-02 -4.164318e-03 1.789562e-02 1.808453e-03 -4.094786e-03 1.095683e-02 8.824333e-03 5.294634e-03 4.044389e-03 2.777623e-03 2.262161e-03 1.462430e-03 1.309517e-03 6.718736e-04 7.948657e-04 1.887773e-04 4.872414e-04 -1.375867e-04 3.585018e-04 -1.897518e-04 3.839201e-04 -2.491531e-04 2.766116e-04 -2.950418e-04 2.002023e-04 -2.910790e-04 7.696905e-05 -2.224570e-04 8.291329e-06 -6.098457e-05 -3.172938e-05 1.383750e-04 -1.514824e-04 1.924894e-04 -4.223739e-04 2.350108e-04 -5.137325e-04 4.625226e-04 -4.770269e-04 6.137835e-04 -4.347676e-04 6.577356e-04 -4.602907e-04 4.890528e-04 -4.140934e-04 3.347715e-04 -1.890834e-04 1.143681e-04 1.295394e-04 -1.953323e-04 5.913561e-04 -5.338503e-04 1.380295e-03 -8.078561e-04 3.441528e-03 -3.511737e-03 -2.837223e-03 1.206309e-03 7.817563e-04 1.550306e-03 2.570688e-04 
-2.205627e-04 -3.345597e-03 -4.227456e-03 -6.505174e-03 -8.148962e-04 2.086763e-02 -2.899094e-04 -4.732538e-03 6.635142e-04 -5.925151e-03 -4.182077e-05 -6.668520e-03 3.260617e-03 7.057681e-03 6.590291e-03 7.583509e-04 2.200438e-03 -1.683425e-03 -1.272345e-03 -5.202746e-03 -7.134928e-03 -1.394083e-04 2.222755e-03 1.776529e-03 1.261926e-03 6.147226e-04 5.832525e-04 4.270521e-05 2.465412e-04 -1.462480e-04 -4.470510e-06 -3.303228e-04 -3.082725e-04 -1.974329e-04 -1.584186e-04 2.093325e-04 -1.403258e-04 2.094396e-04 -4.283013e-04 7.315659e-05 -7.212899e-04 4.109108e-05 -5.859198e-04 2.988423e-04 -4.971459e-04 3.158664e-04 -3.694404e-04 4.009882e-04 -4.697738e-04 5.519105e-05 -7.781183e-04 -3.115200e-04 -1.072579e-03 -2.363771e-04 -9.428495e-04 -1.331209e-03 -7.139265e-03 -9.335865e-03 4.764436e-03 2.069781e-03 -1.154012e-02 -5.157405e-03 8.141985e-03 -6.249431e-03 -1.298614e-02 4.795348e-03 2.396940e-03 -1.299427e-02 -3.849475e-03 6.268492e-03 -9.396297e-03 -6.940438e-03 1.576576e-02 1.286867e-02 8.228154e-03 5.924532e-03 3.963329e-03 3.094206e-03 1.995724e-03 1.909169e-03 1.040999e-03 1.398491e-03 3.914311e-04 9.298921e-04 -2.097265e-04 7.263527e-04 -2.208813e-04 8.867912e-04 -3.250796e-04 6.525091e-04 -4.524093e-04 5.141758e-04 -4.976079e-04 1.852504e-04 -4.351237e-04 7.860659e-05 -1.841974e-05 1.381424e-04 4.353668e-04 -1.836129e-04 3.344332e-04 -9.362664e-04 3.478387e-04 -1.076746e-03 9.261917e-04 -9.324103e-04 1.247084e-03 -8.644063e-04 1.356150e-03 -9.726839e-04 9.595201e-04 -9.646316e-04 6.711715e-04 -4.724599e-04 3.621026e-04 2.598685e-04 -1.722461e-04 1.109878e-03 -9.474854e-04 2.562522e-03 -2.033054e-03 6.958308e-03 -1.186282e-02 -6.226504e-03 8.228490e-03 3.616099e-03 4.037700e-03 4.046656e-04 
-8.709271e-04 -9.203502e-03 -1.641552e-02 -2.734260e-02 -2.810676e-02 1.248337e-02 3.079846e-03 -2.098518e-03 5.039201e-03 -1.541960e-03 5.862916e-03 6.881622e-04 4.108612e-03 -5.280096e-03 -2.745024e-04 -1.496196e-03 -1.129154e-04 1.964296e-04 -1.199244e-04 1.982869e-03 1.530991e-03 -1.676040e-03 -2.457256e-03 -2.203845e-03 -1.123284e-03 -1.389026e-03 -2.406170e-04 -1.060631e-03 -9.378450e-05 -1.207221e-03 -4.565115e-04 -1.193255e-03 -3.262309e-04 -4.132365e-04 9.352027e-05 1.839215e-04 -1.021196e-04 1.108898e-05 -6.689319e-04 -1.129061e-04 -1.112893e-03 -1.204804e-04 -9.626241e-04 4.095450e-04 -5.094915e-04 7.951711e-04 -3.250946e-04 6.754556e-04 -6.261497e-04 1.198671e-04 -9.377158e-04 -4.842320e-04 -1.050793e-03 -5.862802e-04 -8.356899e-04 -5.981403e-04 2.989306e-03 6.675065e-03 -2.467852e-03 -8.754926e-04 1.195341e-02 3.792835e-03 -7.764062e-03 3.763764e-03 1.105987e-02 -6.352068e-03 -3.360173e-03 9.537504e-03 4.452481e-03 -7.602337e-03 2.710450e-03 2.869130e-03 -7.742414e-03 -7.871506e-03 -3.992687e-03 -3.354949e-03 -1.980571e-03 -1.711098e-03 -1.403693e-03 -8.118305e-04 -9.952343e-04 8.330022e-07 -9.719247e-04 1.222340e-04 -1.241600e-03 2.675149e-04 -1.106068e-03 6.775752e-04 -9.875202e-04 6.507543e-04 -1.071375e-03 4.778937e-04 -1.151467e-03 8.049080e-06 -9.968935e-04 1.508782e-04 7.811521e-05 6.502239e-04 7.604848e-04 -1.443872e-04 2.149576e-04 -1.399083e-03 3.861269e-04 -1.450626e-03 1.359452e-03 -1.158996e-03 1.860746e-03 -1.223450e-03 1.943725e-03 -1.428553e-03 1.405702e-03 -1.690557e-03 7.480099e-04 -1.186056e-03 4.689161e-04 1.192546e-05 -1.515687e-04 7.328543e-04 -1.706037e-03 1.608565e-03 -3.869577e-03 4.164756e-03 -1.286168e-02 1.615274e-02 3.691988e-02 2.129623e-02 1.406496e-02 4.600551e-03 
-2.428538e-03 -1.079616e-02 -2.076709e-02 -3.170741e-02 -4.108631e-02 -1.751622e-02 2.817200e-04 -1.905426e-03 9.542086e-04 -2.779695e-03 -5.682997e-05 -4.110348e-03 -1.729128e-03 1.367238e-04 -8.360031e-05 -5.152452e-05 -1.322424e-04 1.157257e-04 -1.809666e-04 2.657070e-04 -2.196316e-04 2.702610e-03 2.001576e-03 1.390896e-03 1.217818e-03 1.632601e-04 1.059533e-03 -3.107734e-04 6.720033e-04 -1.012438e-03 2.054932e-05 -1.053320e-03 3.192932e-04 -3.252473e-04 4.643898e-04 -1.215241e-04 3.645911e-05 -3.155538e-04 -4.347009e-04 -2.602631e-04 -6.978692e-04 -1.600689e-04 -7.294732e-04 2.515885e-04 -2.496026e-04 8.321820e-04 -1.327113e-04 6.878774e-04 -2.776021e-04 6.335650e-04 -1.509109e-04 5.972961e-04 2.245561e-04 1.196436e-03 1.346073e-03 2.591117e-03 2.794682e-04 -4.265215e-03 7.597483e-04 -7.688699e-04 -1.226887e-02 -5.072884e-03 6.115651e-03 -4.907906e-03 -1.016381e-02 3.741412e-03 4.927490e-03 -8.321358e-03 -1.777807e-03 7.474805e-03 2.683963e-03 -2.712229e-03 2.580962e-03 2.440687e-03 2.082190e-03 1.558216e-03 1.516426e-03 1.186040e-03 6.867201e-04 6.783733e-04 1.306950e-04 6.496592e-04 -3.062821e-04 5.036648e-04 -6.056059e-04 4.414000e-04 -8.913815e-04 4.230808e-04 -8.704765e-04 5.084598e-04 -9.517665e-04 3.114646e-04 -1.036506e-03 5.533615e-05 -8.538213e-04 2.996305e-04 6.937702e-05 7.362706e-04 4.413167e-04 8.033383e-06 2.119808e-05 -7.179189e-04 3.619715e-04 -7.301059e-04 9.550346e-04 -6.365664e-04 1.284799e-03 -8.572607e-04 1.277784e-03 -9.858955e-04 1.092974e-03 -1.264456e-03 5.374793e-04 -1.116591e-03 4.535297e-04 -2.671505e-04 2.510361e-04 3.612755e-05 -6.312398e-04 2.488434e-04 -9.332810e-04 5.118961e-04 6.600288e-03 3.993339e-02 4.209581e-02 2.602586e-02 1.490312e-02 5.723221e-03 
-1.446248e-03 -5.074541e-03 -1.063263e-02 -1.402466e-02 -2.158596e-02 -1.921561e-02 -3.710263e-03 -3.057144e-03 -3.760272e-03 -5.097613e-03 -5.387872e-03 -8.185539e-03 -4.532471e-03 1.254789e-04 -6.696943e-05 -9.257904e-05 -9.506603e-05 1.025114e-04 -1.209988e-04 2.862901e-04 -1.388036e-04 5.922062e-03 6.560232e-03 4.132951e-03 3.291330e-03 1.631941e-03 1.830703e-03 5.354838e-04 9.908293e-04 -2.025174e-04 4.089648e-04 -3.762797e-04 3.808513e-04 -2.120880e-04 2.215246e-04 -2.642808e-04 -7.998844e-05 -3.068503e-04 -2.890223e-04 -2.189863e-04 -3.883065e-04 -1.256384e-04 -5.007213e-04 -1.540924e-05 -3.818322e-04 2.106745e-04 -4.261431e-04 7.637716e-05 -5.581161e-04 -2.149466e-05 -7.545763e-04 -4.410046e-04 -1.346063e-03 -1.213725e-03 -2.880115e-03 -5.291553e-03 -1.180114e-02 -9.128733e-03 6.269815e-03 2.194759e-03 -5.176986e-03 -1.590987e-03 2.812330e-03 -4.339507e-03 -7.789914e-03 2.006282e-03 -2.635436e-03 -9.442571e-03 -2.839779e-03 5.179199e-04 -1.332972e-02 -6.366438e-03 1.956786e-02 1.589668e-02 9.410480e-03 6.975530e-03 4.762744e-03 3.773323e-03 2.477692e-03 2.071374e-03 1.196514e-03 1.266291e-03 4.668266e-04 8.721801e-04 9.504239e-05 6.359692e-04 -2.979572e-04 3.938986e-04 -4.228681e-04 3.824352e-04 -4.875827e-04 2.477286e-04 -4.986734e-04 1.909435e-04 -3.528730e-04 2.496996e-04 -1.979109e-05 2.823953e-04 9.691687e-05 -1.532956e-05 1.164341e-04 -1.750762e-04 3.659400e-04 -2.636410e-04 5.126232e-04 -3.560478e-04 6.259260e-04 -4.965393e-04 6.008432e-04 -5.092082e-04 6.043600e-04 -5.270536e-04 3.877374e-04 -4.288703e-04 3.371637e-04 5.427917e-06 3.916308e-04 4.793790e-04 5.900115e-04 1.327868e-03 2.039690e-03 2.708164e-03 1.177749e-02 2.418769e-02 1.763965e-02 1.320038e-02 7.444532e-03 3.676031e-03 
-1.067820e-03 -3.461050e-03 -6.234827e-03 -7.817859e-03 -9.545738e-03 -8.895156e-03 -6.460721e-03 -7.024101e-03 -6.640742e-03 -9.771785e-03 -1.013944e-02 -1.527043e-02 -1.044837e-02 5.127625e-05 -3.964003e-06 3.751234e-05 -3.019714e-05 4.450952e-05 -3.949298e-05 4.277496e-05 2.004246e-06 1.296375e-02 1.476766e-02 8.376744e-03 7.060623e-03 3.770996e-03 3.586574e-03 1.681212e-03 1.867462e-03 6.013540e-04 9.497807e-04 1.185015e-04 5.225929e-04 -2.230389e-05 2.674767e-04 -8.628090e-05 3.799306e-05 -1.315307e-04 -1.508620e-04 -1.227281e-04 -2.696920e-04 -7.116704e-05 -3.120328e-04 2.672129e-05 -2.725415e-04 1.262827e-04 -2.660835e-04 1.046122e-04 -3.365326e-04 -5.841485e-05 -6.101169e-04 -6.346720e-04 -1.447117e-03 -1.960653e-03 -3.428694e-03 -5.787990e-03 -7.803106e-03 -4.053721e-03 -1.342980e-03 -1.619504e-03 3.934184e-03 -1.229739e-05 -5.222611e-03 1.204126e-03 3.664160e-03 -3.211124e-03 -3.144491e-03 3.984538e-03 2.479578e-03 -1.651647e-03 -6.410745e-04 2.482411e-03 6.220537e-03 4.187754e-03 2.963040e-03 2.115067e-03 1.673202e-03 1.334208e-03 9.815331e-04 9.439577e-04 5.699252e-04 7.472675e-04 2.659189e-04 5.953037e-04 2.888565e-05 4.723638e-04 -1.603689e-04 3.714018e-04 -2.657885e-04 3.027068e-04 -3.225510e-04 2.214316e-04 -3.195259e-04 1.631544e-04 -2.232042e-04 1.630761e-04 -3.413610e-05 1.526037e-04 9.737734e-05 7.351728e-06 1.520968e-04 -1.500962e-04 2.684249e-04 -2.331432e-04 4.037108e-04 -2.823902e-04 4.929507e-04 -3.408473e-04 5.032542e-04 -3.681784e-04 4.598371e-04 -3.457384e-04 3.808055e-04 -1.807530e-04 3.900772e-04 2.010826e-04 5.334315e-04 8.114268e-04 9.879189e-04 1.973794e-03 2.305412e-03 4.217819e-03 5.742459e-03 9.874113e-03 8.368390e-03 7.115336e-03 4.314713e-03 1.987488e-03 
-4.707502e-04 -1.307619e-03 -2.558484e-03 -3.243832e-03 -3.927004e-03 -4.234765e-03 -3.057277e-03 -3.616065e-03 -3.441745e-03 -4.815097e-03 -5.145617e-03 -7.536905e-03 -5.153338e-03 2.930547e-05 -3.059022e-06 1.536600e-05 -1.549011e-05 2.861415e-05 -1.756023e-05 3.601890e-05 8.305175e-06 6.658093e-03 7.555065e-03 4.085692e-03 3.378707e-03 1.742165e-03 1.616348e-03 7.339956e-04 7.939002e-04 2.368555e-04 3.771544e-04 1.330114e-05 1.764415e-04 -7.103580e-05 4.561662e-05 -1.187867e-04 -6.435571e-05 -1.414987e-04 -1.445427e-04 -1.326932e-04 -1.903407e-04 -1.022903e-04 -2.072855e-04 -5.409050e-05 -1.852654e-04 7.808246e-06 -1.559214e-04 4.606131e-05 -1.264095e-04 5.540054e-05 -1.562728e-04 -9.297868e-05 -4.015071e-04 -5.260402e-04 -9.039055e-04 -1.381086e-03 -2.056349e-03 -2.595904e-03 -1.138275e-03 -1.437006e-03 -1.424480e-03 -1.431876e-03 -1.330556e-03 -1.479791e-03 -1.922836e-03 -1.210637e-03 -1.718826e-03 -1.611642e-03 -1.297807e-03 -7.164268e-04 -9.893550e-04 4.519795e-05 2.689812e-03 2.418325e-03 2.742095e-03 2.337786e-03 2.165015e-03 1.893376e-03 1.607269e-03 1.488973e-03 1.165817e-03 1.157228e-03 8.009150e-04 8.763579e-04 5.060853e-04 6.430112e-04 2.681337e-04 4.541970e-04 1.078603e-04 3.242349e-04 1.193799e-05 2.281834e-04 -2.569861e-05 1.722894e-04 -6.662678e-06 1.482792e-04 5.014437e-05 1.244051e-04 9.526206e-05 6.934991e-05 1.290982e-04 1.812171e-05 1.750872e-04 -2.465864e-05 2.074765e-04 -6.647186e-05 2.201718e-04 -1.073757e-04 2.087449e-04 -1.253626e-04 1.914234e-04 -1.133451e-04 1.710113e-04 -4.178248e-05 2.031831e-04 1.330557e-04 3.380161e-04 4.465067e-04 6.790649e-04 1.034804e-03 1.444915e-03 2.104745e-03 2.799549e-03 4.082152e-03 3.193805e-03 3.000075e-03 1.653087e-03 9.363344e-04 
8.771227e-06 7.996985e-06 1.105726e-05 9.298583e-06 1.208636e-05 9.487731e-06 1.148130e-05 7.902498e-06 8.827107e-06 4.957421e-06 4.833922e-06 -1.008787e-06 -2.249059e-07 1.111329e-05 7.226097e-06 7.836921e-06 7.101760e-06 7.566663e-06 1.001039e-05 1.049681e-05 1.549653e-05 1.242716e-05 1.865989e-05 1.380191e-05 1.724279e-05 6.687502e-06 6.504220e-06 -1.285425e-05 -2.044705e-05 -4.493662e-05 -5.254042e-05 -6.855327e-05 -6.956822e-05 -7.660823e-05 -8.107929e-05 -8.710214e-05 -1.006575e-04 -1.030421e-04 -1.182569e-04 -1.094943e-04 -1.226936e-04 -1.033524e-04 -1.143117e-04 -8.883199e-05 -9.894747e-05 -7.774972e-05 -9.583014e-05 -9.290444e-05 -1.264494e-04 -1.645357e-04 -2.449818e-04 -3.753138e-04 -5.496256e-04 -8.028598e-04 -1.054978e-03 -1.359223e-03 -1.511772e-03 -1.383441e-03 -9.341840e-04 -9.915317e-04 -3.351908e-04 -5.268640e-04 -7.038347e-04 -1.951791e-04 -4.438599e-05 -2.185087e-04 -2.066250e-04 4.528786e-04 3.615048e-04 3.686408e-04 5.617635e-04 8.264092e-04 1.226082e-03 1.066631e-03 1.048043e-03 8.878745e-04 8.033022e-04 7.309248e-04 6.434390e-04 6.278014e-04 5.233782e-04 5.237176e-04 3.997283e-04 4.034627e-04 2.787834e-04 2.858209e-04 1.751816e-04 1.836965e-04 9.617467e-05 1.041192e-04 4.401937e-05 5.239074e-05 2.330155e-05 3.384360e-05 3.309973e-05 4.531488e-05 6.173520e-05 6.634313e-05 8.170293e-05 7.310207e-05 8.410134e-05 7.164279e-05 8.339011e-05 7.131260e-05 7.812340e-05 6.283741e-05 5.902579e-05 3.893030e-05 2.831096e-05 8.978718e-06 -3.132834e-06 -2.078343e-05 -3.113513e-05 -4.184175e-05 -4.462140e-05 -4.659973e-05 -4.342946e-05 -4.292706e-05 -3.687211e-05 -3.331687e-05 -2.339167e-05 -1.762625e-05 -9.717363e-06 -5.709819e-06 -5.686638e-07 1.388793e-06 5.126989e-06 5.536556e-06 
4.933858e-04 1.329472e-03 2.586490e-03 3.270115e-03 3.959545e-03 4.264477e-03 3.090187e-03 3.642482e-03 3.465357e-03 4.834297e-03 5.157320e-03 7.537445e-03 5.150857e-03 -1.744501e-05 8.885995e-06 -9.047185e-06 2.260525e-05 -2.178833e-05 3.097528e-05 -2.381689e-05 1.752238e-05 -6.661225e-03 -7.541217e-03 -4.068875e-03 -3.351605e-03 -1.723370e-03 -1.594782e-03 -7.458465e-04 -8.269215e-04 -3.217159e-04 -4.827363e-04 -1.463097e-04 -3.105257e-04 -7.807718e-05 -2.130650e-04 -6.989345e-05 -1.627139e-04 -9.453698e-05 -1.247745e-04 -1.141945e-04 -8.294210e-05 -1.233486e-04 -4.118371e-05 -1.214485e-04 2.631685e-06 -1.063828e-04 4.119988e-05 -8.735321e-05 7.205278e-05 -7.356243e-05 6.671559e-05 -1.221940e-04 -3.985905e-05 -3.025873e-04 -2.907568e-04 -6.274730e-04 -6.421260e-04 -9.784917e-04 -8.503647e-04 -1.060335e-03 -1.059577e-03 -1.084719e-03 -1.130155e-03 -1.015908e-03 -1.167000e-03 -8.404031e-04 -9.842331e-04 -6.226889e-04 -6.300114e-04 -1.731097e-04 -9.390538e-05 3.331309e-04 6.914203e-04 9.037322e-04 1.071196e-03 1.138265e-03 1.157742e-03 1.146744e-03 1.096039e-03 1.021543e-03 9.521268e-04 8.223964e-04 7.762744e-04 6.028766e-04 6.092081e-04 4.046658e-04 4.688087e-04 2.378122e-04 3.507972e-04 1.101495e-04 2.637318e-04 3.763238e-05 2.108902e-04 1.820164e-05 1.814893e-04 4.244018e-05 1.644944e-04 9.029511e-05 1.375378e-04 1.375432e-04 9.278375e-05 1.777721e-04 4.057937e-05 2.110590e-04 -1.708800e-05 2.186151e-04 -8.676815e-05 1.900634e-04 -1.548284e-04 1.398516e-04 -2.018573e-04 6.592692e-05 -2.417184e-04 -4.993048e-05 -2.989089e-04 -2.288518e-04 -4.245403e-04 -5.290527e-04 -7.473493e-04 -1.090049e-03 -1.475353e-03 -2.120459e-03 -2.802507e-03 -4.078780e-03 -3.183860e-03 -2.988053e-03 -1.636076e-03 -9.190778e-04 
1.091422e-03 3.481920e-03 6.262070e-03 7.841058e-03 9.576784e-03 8.921553e-03 6.491920e-03 7.044931e-03 6.662991e-03 9.793305e-03 1.015397e-02 1.526724e-02 1.043823e-02 -3.807888e-05 8.191370e-06 -3.393466e-05 3.226876e-05 -4.217779e-05 4.907105e-05 -3.147629e-05 2.809102e-05 -1.291773e-02 -1.469784e-02 -8.315926e-03 -6.986789e-03 -3.706222e-03 -3.508619e-03 -1.656848e-03 -1.887159e-03 -7.238894e-04 -1.113708e-03 -3.161868e-04 -6.813608e-04 -1.175889e-04 -3.928113e-04 -6.112739e-05 -2.419974e-04 -1.065758e-04 -1.308256e-04 -1.371098e-04 -1.589953e-05 -1.574907e-04 6.622356e-05 -1.820287e-04 1.265102e-04 -1.887578e-04 1.625649e-04 -1.815799e-04 1.960584e-04 -1.358325e-04 2.162111e-04 -1.160191e-04 1.483919e-04 -1.807023e-04 -2.091016e-05 -3.094713e-04 -2.191449e-04 -4.294722e-04 -3.599167e-04 -4.739257e-04 -4.766431e-04 -4.242422e-04 -4.980125e-04 -3.059511e-04 -4.731454e-04 -1.615349e-04 -3.558316e-04 5.726613e-05 -1.131594e-04 3.338997e-04 1.542039e-04 5.381487e-04 4.264265e-04 6.983258e-04 5.633023e-04 7.227414e-04 6.015805e-04 6.573098e-04 5.982927e-04 5.286663e-04 5.512848e-04 3.471721e-04 4.757787e-04 1.495425e-04 4.125027e-04 -2.267174e-06 3.803304e-04 -1.192699e-04 3.318467e-04 -2.197725e-04 2.744678e-04 -2.576019e-04 2.371501e-04 -2.213723e-04 2.094837e-04 -1.139052e-04 1.901279e-04 3.558322e-05 1.348845e-04 1.704003e-04 2.751346e-05 2.882998e-04 -8.362883e-05 4.081966e-04 -1.924840e-04 4.692773e-04 -3.288767e-04 4.427242e-04 -4.435954e-04 3.855996e-04 -4.797199e-04 2.694577e-04 -5.009276e-04 3.226348e-05 -5.376607e-04 -3.281009e-04 -6.427773e-04 -9.231910e-04 -1.092442e-03 -2.068069e-03 -2.355513e-03 -4.238926e-03 -5.742772e-03 -9.863790e-03 -8.352681e-03 -7.097893e-03 -4.294132e-03 -1.968362e-03 
1.471953e-03 5.097734e-03 1.066415e-02 1.405563e-02 2.163704e-02 1.927387e-02 3.781638e-03 3.098235e-03 3.792272e-03 5.159620e-03 5.403534e-03 8.183557e-03 4.493787e-03 -1.613065e-04 5.314664e-05 7.462063e-05 8.213579e-05 -1.151604e-04 1.096314e-04 -2.899297e-04 1.260638e-04 -5.944707e-03 -6.495224e-03 -4.053681e-03 -3.189736e-03 -1.481142e-03 -1.612893e-03 -3.772927e-04 -9.488823e-04 2.280007e-05 -6.858570e-04 1.202566e-04 -4.877679e-04 1.682136e-04 -2.692228e-04 1.231888e-04 -1.987244e-04 -5.468275e-05 -1.072052e-04 -1.223552e-04 4.100551e-05 -1.699414e-04 1.352967e-04 -2.214754e-04 2.282423e-04 -2.249458e-04 2.632945e-04 -2.363043e-04 3.214771e-04 -1.314058e-04 4.007911e-04 -4.452977e-05 3.675503e-04 -9.445619e-05 1.275582e-04 -3.123662e-04 -2.121575e-04 -6.358849e-04 -5.702659e-04 -8.129974e-04 -1.068932e-03 -9.141395e-04 -8.980323e-04 -8.104475e-04 -1.098801e-03 -4.481613e-04 -7.293770e-04 -2.960346e-04 -3.913194e-04 4.315190e-04 9.008215e-05 6.627251e-04 6.245011e-04 1.043285e-03 8.737821e-04 1.106141e-03 9.375155e-04 1.037113e-03 9.321928e-04 8.087581e-04 7.957611e-04 4.909008e-04 6.439414e-04 1.814063e-04 5.538114e-04 -1.795970e-06 5.455540e-04 -1.633605e-04 4.479759e-04 -3.424150e-04 3.646579e-04 -3.774146e-04 3.441148e-04 -3.190440e-04 3.139428e-04 -1.630451e-04 3.152148e-04 5.533840e-05 2.484143e-04 2.313379e-04 8.380153e-05 3.633620e-04 -7.451401e-05 5.486876e-04 -1.962900e-04 6.476015e-04 -4.036010e-04 5.738106e-04 -6.070650e-04 4.991970e-04 -6.304794e-04 4.095133e-04 -5.989439e-04 1.772567e-04 -5.687367e-04 -1.709467e-04 -5.174639e-04 -6.248008e-04 -7.461849e-04 -1.442287e-03 -2.036442e-03 -2.645328e-03 -1.171946e-02 -2.413516e-02 -1.759765e-02 -1.316617e-02 -7.415061e-03 -3.651961e-03 
2.459220e-03 1.082028e-02 2.079912e-02 3.173613e-02 4.114249e-02 1.757690e-02 -2.334914e-04 1.903264e-03 -9.308428e-04 2.897531e-03 1.390565e-04 4.113821e-03 1.663768e-03 -1.819623e-04 5.694957e-05 1.354946e-05 8.789625e-05 -1.645132e-04 1.289940e-04 -3.069892e-04 1.992872e-04 -2.571564e-03 -1.738747e-03 -1.252781e-03 -1.093257e-03 1.127036e-04 -5.581188e-04 7.554531e-04 -4.993161e-04 6.186420e-04 -7.698458e-04 2.801530e-04 -6.473664e-04 4.256375e-04 -1.009366e-04 3.830283e-04 -1.608553e-04 -1.318698e-04 -9.847628e-05 -1.682131e-04 2.824093e-04 -1.366098e-04 4.104849e-04 -2.687808e-04 5.188020e-04 -2.793436e-04 5.043987e-04 -3.521896e-04 5.852339e-04 -4.945938e-05 8.654559e-04 2.014291e-04 8.241627e-04 1.894542e-04 5.818848e-04 1.992726e-04 4.786442e-04 1.266253e-04 1.273683e-04 -6.168295e-05 -3.855629e-04 -2.985150e-05 -8.698794e-05 7.936166e-05 -6.295479e-04 -2.095368e-05 -5.998079e-04 8.486966e-05 -1.837915e-04 8.562395e-04 4.492568e-05 6.087577e-04 5.656813e-05 5.987365e-04 8.972391e-05 4.661362e-04 1.304888e-04 4.189601e-04 3.917186e-04 3.691577e-04 5.080003e-04 8.571608e-05 4.070599e-04 -3.712416e-04 3.661527e-04 -4.989131e-04 6.008172e-04 -5.325899e-04 5.964971e-04 -7.982624e-04 4.259070e-04 -8.791286e-04 3.968491e-04 -7.714293e-04 3.424463e-04 -4.460435e-04 4.361389e-04 5.809403e-05 3.627738e-04 3.363240e-04 -5.020946e-05 5.193399e-04 -2.964965e-04 1.001934e-03 -4.115896e-04 1.244801e-03 -8.612480e-04 1.013153e-03 -1.264707e-03 1.051813e-03 -1.057327e-03 1.069872e-03 -9.793010e-04 5.591417e-04 -8.999356e-04 1.347913e-04 -2.574863e-04 -1.808157e-04 3.120189e-04 -6.028115e-04 8.521531e-04 -3.989303e-04 -6.455893e-03 -3.979264e-02 -4.201083e-02 -2.596215e-02 -1.485473e-02 -5.688878e-03 
8.637616e-04 9.193236e-03 1.639987e-02 2.732238e-02 2.807764e-02 -1.252033e-02 -3.173629e-03 2.014456e-03 -5.054300e-03 1.630721e-03 -5.722221e-03 -6.065284e-04 -4.098116e-03 5.252730e-03 3.455399e-04 1.593060e-03 1.748429e-04 -1.825992e-04 1.284433e-04 -1.918701e-03 -1.284691e-03 2.055058e-03 2.858629e-03 2.329249e-03 1.189327e-03 1.510457e-03 5.585018e-04 1.313964e-03 1.413052e-04 7.275024e-04 -4.087008e-04 1.469863e-04 -3.231391e-04 3.579785e-04 3.610876e-04 3.669955e-04 2.984801e-04 -1.674234e-04 3.351945e-04 -1.668828e-04 7.567578e-04 -6.424987e-05 8.388922e-04 -2.283285e-04 8.145969e-04 -2.986113e-04 6.875783e-04 -4.074842e-04 6.359148e-04 -1.533151e-04 8.052559e-04 -8.831464e-06 5.442953e-04 -1.361113e-04 2.578791e-04 -1.346624e-06 2.493342e-04 1.397212e-04 -1.401223e-04 -5.412824e-05 -2.577072e-04 3.036846e-04 -9.249794e-05 5.965179e-04 -2.677784e-04 2.016132e-04 -5.028057e-04 7.212464e-04 2.118553e-04 1.151621e-03 2.606965e-04 8.124613e-04 -2.650874e-04 2.754132e-04 -3.982088e-04 6.653598e-06 -3.581646e-04 -8.701233e-05 5.730273e-05 7.557689e-05 4.945366e-04 -2.500115e-05 5.445215e-04 -4.711124e-04 5.375489e-04 -6.212273e-04 8.189877e-04 -5.631110e-04 9.286043e-04 -7.719299e-04 6.706383e-04 -9.394515e-04 4.779362e-04 -8.619194e-04 2.876927e-04 -4.980447e-04 2.657918e-04 1.144009e-04 8.466642e-05 4.701182e-04 -4.813108e-04 7.753423e-04 -7.785113e-04 1.414232e-03 -9.308564e-04 1.748322e-03 -1.396266e-03 1.567551e-03 -1.675362e-03 1.703935e-03 -1.226946e-03 1.631434e-03 -1.044563e-03 7.512085e-04 -7.866456e-04 3.356878e-05 3.135708e-04 -7.612921e-04 1.420291e-03 -2.076153e-03 3.586019e-03 -4.250199e-03 1.289028e-02 -1.609111e-02 -3.690571e-02 -2.128601e-02 -1.406119e-02 -4.602349e-03 
1.819693e-04 3.312702e-03 4.181870e-03 6.463624e-03 7.424947e-04 -2.094194e-02 1.705067e-04 4.671779e-03 -6.812899e-04 5.951928e-03 1.353312e-04 6.789575e-03 -3.177698e-03 -7.001348e-03 -6.456380e-03 -6.150328e-04 -2.018226e-03 1.777710e-03 1.448110e-03 5.383413e-03 7.455226e-03 4.006362e-04 -2.017923e-03 -1.743894e-03 -1.260680e-03 -7.127441e-04 -6.680017e-04 -2.048016e-04 -4.138194e-04 -1.496487e-04 -3.870451e-04 -2.323785e-04 -1.954180e-04 -6.565636e-05 1.822707e-04 -5.477498e-06 2.848498e-04 -1.349601e-04 3.560106e-04 -1.374217e-04 5.303010e-04 -8.803623e-05 5.643665e-04 -1.557333e-04 4.929761e-04 -2.168284e-04 4.113221e-04 -2.330975e-04 3.455724e-04 -1.485423e-04 3.578671e-04 -8.790302e-05 2.220198e-04 -8.133294e-05 1.785482e-04 1.000425e-04 2.212481e-04 2.565156e-04 5.005769e-05 1.493803e-04 8.364813e-05 2.993608e-04 -2.161051e-04 3.045215e-04 -2.620490e-04 -1.034543e-04 -6.571566e-04 1.690547e-04 -3.422727e-04 1.018028e-04 -2.932051e-04 2.041474e-04 -3.171207e-04 9.991291e-05 -1.235495e-04 1.684050e-04 4.977268e-05 1.403358e-04 2.654050e-04 2.288498e-04 5.487997e-04 2.039294e-04 6.270849e-04 -1.407680e-05 6.160219e-04 -1.823760e-04 6.760931e-04 -2.046582e-04 7.446392e-04 -2.789126e-04 5.848481e-04 -4.141363e-04 3.740777e-04 -4.076245e-04 1.893562e-04 -2.371079e-04 4.625356e-05 6.651113e-05 -1.441610e-04 3.115118e-04 -4.621357e-04 5.789677e-04 -6.650387e-04 9.246405e-04 -8.238728e-04 1.134915e-03 -1.012495e-03 1.169446e-03 -1.034256e-03 1.233207e-03 -7.934905e-04 1.049770e-03 -6.483740e-04 4.341251e-04 -3.881014e-04 -1.940115e-04 2.481305e-04 -1.113651e-03 8.405006e-04 -2.813292e-03 1.762945e-03 -7.183330e-03 1.173313e-02 6.142248e-03 -8.301875e-03 -3.668643e-03 -4.082721e-03 -4.404428e-04 
7.142844e-05 1.143892e-03 1.681953e-03 1.267761e-03 -5.618360e-05 -6.406664e-03 2.290514e-03 4.340461e-03 4.217142e-03 8.577376e-03 1.017091e-02 1.803588e-02 2.197337e-02 2.297862e-02 1.189537e-02 6.319037e-03 2.568439e-03 -2.148270e-03 -6.703749e-03 -1.089571e-02 -2.275066e-02 -2.326871e-02 -1.577540e-02 -1.084401e-02 -6.721300e-03 -4.580499e-03 -2.939929e-03 -1.945483e-03 -1.322831e-03 -8.591954e-04 -6.364692e-04 -4.257784e-04 -2.815133e-04 -1.921861e-04 -2.648324e-05 -7.703142e-05 1.170638e-04 -5.089891e-05 1.910643e-04 -4.669857e-05 2.574002e-04 -2.490233e-05 2.979152e-04 -1.716435e-05 2.952203e-04 -6.445054e-06 3.108711e-04 6.968316e-05 3.583881e-04 1.951951e-04 4.360256e-04 3.123538e-04 4.060578e-04 2.310113e-04 1.064998e-04 -3.407164e-04 -8.617842e-04 -1.965867e-03 -1.487537e-03 -1.928001e-03 -3.508853e-03 -2.607745e-03 -1.195394e-03 -2.077537e-03 -2.732731e-03 -3.891733e-04 -5.037605e-04 -1.192373e-03 -3.911628e-04 1.622339e-03 7.939218e-04 1.172542e-03 2.154191e-03 2.163068e-03 2.105696e-03 1.960031e-03 1.637289e-03 1.382997e-03 1.116658e-03 8.695508e-04 7.781996e-04 4.932428e-04 5.573733e-04 2.063860e-04 4.208029e-04 1.458494e-05 3.655712e-04 -7.161143e-05 3.488685e-04 -1.360775e-04 2.665268e-04 -2.076055e-04 1.558440e-04 -2.100367e-04 6.756334e-05 -1.268193e-04 -1.006484e-05 1.514130e-05 -1.010437e-04 1.561688e-04 -2.309330e-04 3.010689e-04 -3.368364e-04 4.561147e-04 -4.135610e-04 5.739436e-04 -4.633927e-04 6.338787e-04 -4.452816e-04 6.305229e-04 -3.694878e-04 4.973086e-04 -2.762922e-04 2.161111e-04 -1.070851e-04 -1.319202e-04 1.748959e-04 -6.456207e-04 4.521939e-04 -1.523799e-03 6.408688e-04 -3.609263e-03 3.388327e-03 2.740959e-03 -1.281608e-03 -8.384086e-04 -1.599553e-03 -2.964172e-04 
