# vtk DataFile Version 2.0
Comment goes here
ASCII

DATASET STRUCTURED_POINTS
FIELD FieldData 1
TIME 1 1 double
0.98000000
DIMENSIONS    128   16   1

ORIGIN    0.000   0.000   0.000
SPACING   0.0078125 0.015625   1.000

POINT_DATA   2048
SCALARS uY double
LOOKUP_TABLE default

-1.304273e-06 1.575882e-06 -2.013074e-06 2.616011e-06 -2.554846e-06 2.641518e-06 -2.904094e-06 1.446055e-06 1.270454e-07 6.743103e-07 2.621395e-06 -7.163950e-07 4.779271e-06 -4.396173e-06 8.928064e-06 -6.350205e-06 1.122268e-05 -7.933552e-06 1.231465e-05 -8.933261e-06 1.186641e-05 -7.912806e-06 9.602426e-06 -8.163563e-06 8.139576e-06 -9.109663e-06 7.386154e-06 -8.985490e-06 6.275715e-06 -8.236208e-06 4.439752e-06 -5.135390e-06 4.044191e-06 1.926026e-06 5.771181e-06 1.261730e-05 1.073258e-05 2.884061e-05 2.228726e-05 5.300767e-05 4.260663e-05 8.762255e-05 7.508746e-05 1.392667e-04 1.255190e-04 2.152463e-04 1.981478e-04 3.203939e-04 2.950418e-04 4.521967e-04 4.043087e-04 5.680284e-04 4.518379e-04 5.211800e-04 3.294456e-04 9.447632e-05 -9.494630e-04 -3.069327e-03 -1.461728e-03 -2.574050e-03 -4.573219e-03 -3.255758e-03 -2.315373e-03 -3.732061e-03 -4.455118e-03 -2.130302e-03 -2.440581e-03 -3.602694e-03 -2.021905e-03 -3.609645e-04 -8.424455e-04 1.060349e-03 3.734198e-03 3.571507e-03 3.776865e-03 3.356353e-03 3.081675e-03 2.625612e-03 2.229463e-03 1.887912e-03 1.532232e-03 1.315923e-03 1.026891e-03 9.068615e-04 6.792086e-04 6.247032e-04 4.475061e-04 4.316104e-04 2.946578e-04 2.979812e-04 1.947054e-04 2.052168e-04 1.302806e-04 1.406693e-04 8.867861e-05 9.616995e-05 6.218150e-05 6.648112e-05 4.476753e-05 4.580926e-05 3.166803e-05 3.102830e-05 2.259104e-05 2.195158e-05 1.738869e-05 1.617792e-05 1.373154e-05 1.162036e-05 1.143016e-05 8.363873e-06 1.018633e-05 5.136022e-06 8.707761e-06 1.721038e-06 7.551956e-06 -9.825771e-07 6.306762e-06 -3.643667e-06 4.262893e-06 -5.209199e-06 3.042541e-06 -4.067004e-06 2.451479e-06 -8.935579e-07 4.099539e-07 -2.450444e-07 -5.026751e-07 6.029746e-07 
-1.131221e-04 -1.144339e-03 -1.673568e-03 -1.242599e-03 4.487837e-05 6.415800e-03 -2.243191e-03 -4.255695e-03 -4.076911e-03 -8.389876e-03 -9.937289e-03 -1.780562e-02 -2.179400e-02 -2.289257e-02 -1.178745e-02 -6.258032e-03 -2.485449e-03 2.206796e-03 6.783367e-03 1.094194e-02 2.280300e-02 2.318028e-02 1.566079e-02 1.066186e-02 6.570337e-03 4.398238e-03 2.817381e-03 1.797056e-03 1.208409e-03 6.953318e-04 4.877628e-04 2.466094e-04 1.432419e-04 8.469343e-05 -3.939974e-05 4.522923e-05 -1.483279e-04 5.464179e-05 -2.163466e-04 7.925460e-05 -2.552943e-04 1.059109e-04 -2.659040e-04 1.409292e-04 -2.377662e-04 2.072716e-04 -1.461337e-04 3.577925e-04 7.458497e-05 7.193230e-04 5.824744e-04 1.569714e-03 1.760162e-03 3.717150e-03 4.937937e-03 7.234913e-03 -4.446057e-03 -1.883229e-02 -5.725792e-04 -5.576777e-03 -3.026500e-02 -9.601023e-03 1.236010e-02 -1.130861e-02 -1.949749e-02 9.233504e-03 6.793737e-03 -1.592477e-02 -2.086450e-03 1.224008e-02 -9.912001e-04 1.320065e-03 1.603402e-02 1.222822e-02 7.713553e-03 5.327823e-03 3.620053e-03 2.622743e-03 1.709999e-03 1.357351e-03 7.398931e-04 7.788022e-04 2.303519e-04 5.194663e-04 -4.675728e-05 4.047232e-04 -1.943955e-04 3.470210e-04 -2.629114e-04 3.009385e-04 -2.745164e-04 2.446962e-04 -2.394216e-04 1.682319e-04 -1.650679e-04 6.924175e-05 -5.787424e-05 -4.929499e-05 7.155278e-05 -1.831958e-04 2.089945e-04 -3.205050e-04 3.419776e-04 -4.422885e-04 4.542556e-04 -5.310943e-04 5.244724e-04 -5.696855e-04 5.342017e-04 -5.404174e-04 4.684556e-04 -4.298977e-04 3.189984e-04 -2.242841e-04 9.074442e-05 9.869548e-05 -1.972753e-04 5.967380e-04 -4.984499e-04 1.471951e-03 -6.802789e-04 3.583824e-03 -3.476445e-03 -2.735603e-03 1.321176e-03 8.265211e-04 1.552087e-03 2.361655e-04 
-2.185726e-04 -3.236223e-03 -4.065617e-03 -6.309933e-03 -7.254572e-04 2.090639e-02 -1.772384e-04 -4.663913e-03 7.352708e-04 -5.850766e-03 7.279892e-06 -6.643741e-03 3.243481e-03 7.004907e-03 6.537049e-03 6.540481e-04 2.110050e-03 -1.744373e-03 -1.334415e-03 -5.299489e-03 -7.284100e-03 -3.279182e-04 2.061769e-03 1.684072e-03 1.175707e-03 5.847557e-04 6.199323e-04 1.353734e-04 3.423055e-04 -4.306668e-05 1.412783e-04 -7.716384e-05 -2.293780e-05 -2.750544e-05 -1.625618e-04 5.653515e-05 -2.798453e-04 1.505335e-04 -3.619946e-04 2.394087e-04 -4.051307e-04 3.124155e-04 -4.018652e-04 3.890455e-04 -3.313152e-04 4.999967e-04 -1.751333e-04 6.924702e-04 1.204450e-04 1.088049e-03 6.894382e-04 1.928833e-03 1.851288e-03 3.863535e-03 4.242687e-03 4.698271e-03 -7.401156e-03 -1.610097e-02 3.294691e-03 -3.498450e-03 -1.837642e-02 -5.687650e-03 1.719463e-03 -1.159678e-02 -1.470295e-02 6.350436e-04 -3.541338e-03 -1.588535e-02 -4.367482e-03 -7.941727e-04 -1.392160e-02 -5.778102e-04 2.338691e-02 1.822497e-02 1.224328e-02 8.582276e-03 6.136553e-03 4.603635e-03 3.211560e-03 2.677629e-03 1.633926e-03 1.724877e-03 7.234162e-04 1.242957e-03 1.737660e-04 9.954079e-04 -1.524631e-04 8.484231e-04 -3.343390e-04 7.244041e-04 -4.032427e-04 5.878814e-04 -3.731183e-04 4.169129e-04 -2.591692e-04 2.055849e-04 -6.975730e-05 -3.932253e-05 1.728346e-04 -3.173097e-04 4.344700e-04 -6.060281e-04 6.956097e-04 -8.606568e-04 9.263432e-04 -1.048951e-03 1.077817e-03 -1.137897e-03 1.115342e-03 -1.087496e-03 1.009182e-03 -8.745759e-04 7.400394e-04 -4.740946e-04 3.202161e-04 1.496151e-04 -2.304478e-04 1.085232e-03 -8.978434e-04 2.742196e-03 -1.811503e-03 7.149307e-03 -1.193325e-02 -6.130423e-03 8.322656e-03 3.555645e-03 3.952664e-03 3.188458e-04 
-8.700931e-04 -8.954840e-03 -1.602721e-02 -2.687614e-02 -2.785222e-02 1.245162e-02 3.100928e-03 -2.106732e-03 5.008472e-03 -1.665229e-03 5.743760e-03 6.184798e-04 4.113189e-03 -5.254594e-03 -2.821876e-04 -1.545199e-03 -1.538778e-04 1.804785e-04 -1.180552e-04 1.977081e-03 1.406306e-03 -1.888794e-03 -2.671638e-03 -2.267288e-03 -1.152092e-03 -1.437527e-03 -3.273585e-04 -1.092063e-03 -1.581708e-05 -8.805760e-04 2.127734e-05 -6.822667e-04 -6.738350e-05 -4.584594e-04 -2.153748e-04 -2.406513e-04 -3.908906e-04 -4.496722e-05 -5.510529e-04 1.108340e-04 -6.926699e-04 1.923967e-04 -8.125579e-04 2.064358e-04 -8.962853e-04 1.419661e-04 -9.897893e-04 -5.926721e-05 -1.160922e-03 -4.587148e-04 -1.507114e-03 -1.222741e-03 -2.313552e-03 -2.905378e-03 -4.447703e-03 -5.474983e-03 1.468870e-03 1.043601e-02 -3.258803e-04 2.946051e-03 1.647915e-02 5.247002e-03 -3.878202e-03 7.130011e-03 1.227450e-02 -3.563982e-03 -4.689947e-04 9.500255e-03 3.204510e-03 -4.187690e-03 4.848883e-03 -6.321981e-05 -1.074877e-02 -1.029952e-02 -6.042538e-03 -5.080353e-03 -3.200871e-03 -2.648357e-03 -1.943865e-03 -1.277857e-03 -1.375672e-03 -4.585753e-04 -1.171678e-03 4.404746e-05 -1.124415e-03 3.772896e-04 -1.108961e-03 5.822372e-04 -1.088156e-03 6.614624e-04 -1.019873e-03 6.352830e-04 -8.729609e-04 5.028326e-04 -6.440694e-04 2.748015e-04 -3.211071e-04 -2.527442e-05 6.969490e-05 -4.021303e-04 4.735981e-04 -8.205645e-04 8.771008e-04 -1.198613e-03 1.245451e-03 -1.494269e-03 1.498381e-03 -1.664306e-03 1.588799e-03 -1.645739e-03 1.471020e-03 -1.416164e-03 1.104986e-03 -9.510262e-04 5.036952e-04 -2.395416e-04 -3.448753e-04 6.857312e-04 -1.545874e-03 1.917163e-03 -3.644846e-03 4.229587e-03 -1.291306e-02 1.622706e-02 3.668613e-02 2.087887e-02 1.370244e-02 4.377705e-03 
-2.444213e-03 -1.052252e-02 -2.030784e-02 -3.116999e-02 -4.071646e-02 -1.749901e-02 2.614324e-04 -1.888624e-03 9.620882e-04 -2.869299e-03 -1.286627e-04 -4.115488e-03 -1.712781e-03 1.515488e-04 -7.541504e-05 -4.087446e-05 -1.163122e-04 1.264688e-04 -1.621628e-04 2.878435e-04 -1.823572e-04 2.663825e-03 1.835679e-03 1.283261e-03 1.131845e-03 2.193001e-05 8.132706e-04 -4.925223e-04 6.614434e-04 -6.609654e-04 5.126895e-04 -6.450729e-04 3.499087e-04 -5.183642e-04 1.725827e-04 -3.461509e-04 -1.163075e-05 -1.593854e-04 -1.737406e-04 2.302915e-05 -3.064148e-04 1.770125e-04 -3.926448e-04 3.136969e-04 -3.976982e-04 4.478376e-04 -3.138483e-04 5.924257e-04 -1.115404e-04 8.222686e-04 3.056866e-04 1.288978e-03 1.127115e-03 2.431165e-03 3.258518e-03 5.568171e-03 1.432712e-03 -6.661737e-03 -2.122259e-03 -2.643758e-03 -1.450151e-02 -5.873255e-03 5.425458e-03 -5.460822e-03 -9.496528e-03 3.065608e-03 4.083318e-03 -7.319594e-03 -1.476759e-03 5.346942e-03 1.580066e-03 -1.417300e-03 3.825483e-03 3.476794e-03 2.751059e-03 1.692443e-03 1.403686e-03 9.024854e-04 6.068979e-04 5.998070e-04 1.065369e-04 5.252852e-04 -2.416438e-04 5.377664e-04 -4.871779e-04 5.916508e-04 -6.425231e-04 6.422998e-04 -7.319286e-04 6.523112e-04 -7.524484e-04 6.159725e-04 -6.954968e-04 5.190137e-04 -5.646971e-04 3.601092e-04 -3.541988e-04 1.491118e-04 -8.513715e-05 -1.208574e-04 2.020749e-04 -4.276982e-04 4.979946e-04 -7.147406e-04 7.794730e-04 -9.542804e-04 9.914396e-04 -1.117175e-03 1.102210e-03 -1.159724e-03 1.080787e-03 -1.066910e-03 8.991870e-04 -8.234605e-04 5.700336e-04 -4.344647e-04 1.059339e-04 2.745328e-05 -4.506997e-04 4.513944e-04 -8.723081e-04 4.205884e-04 6.676578e-03 3.989004e-02 4.157965e-02 2.543128e-02 1.438265e-02 5.443676e-03 
-1.451509e-03 -4.903437e-03 -1.033617e-02 -1.367584e-02 -2.126788e-02 -1.906343e-02 -3.622508e-03 -2.931275e-03 -3.602113e-03 -4.942605e-03 -5.215166e-03 -8.002848e-03 -4.440200e-03 1.362807e-04 -6.260482e-05 -8.964940e-05 -9.192994e-05 1.030633e-04 -1.178875e-04 2.864443e-04 -1.289913e-04 5.866915e-03 6.368117e-03 3.920178e-03 3.072374e-03 1.424152e-03 1.594440e-03 3.737664e-04 9.208547e-04 -9.042610e-05 5.609781e-04 -2.676523e-04 3.309818e-04 -2.958722e-04 1.551687e-04 -2.491144e-04 5.737257e-06 -1.686276e-04 -1.224172e-04 -7.804369e-05 -2.288718e-04 8.004751e-06 -3.057052e-04 8.756930e-05 -3.382954e-04 1.718478e-04 -3.079157e-04 2.954898e-04 -1.705521e-04 5.483709e-04 1.751099e-04 1.124658e-03 9.633224e-04 2.515494e-03 2.053800e-03 -1.321781e-06 -1.472733e-02 -1.602212e-02 6.686503e-03 -3.947610e-03 -1.139081e-02 -6.507799e-04 -4.033884e-03 -1.012539e-02 -9.170706e-03 -2.390158e-03 -8.902919e-03 -1.345893e-02 -3.628423e-03 -6.812429e-03 -1.857436e-02 1.724494e-03 2.942563e-02 2.258757e-02 1.414041e-02 1.006057e-02 6.957622e-03 5.220535e-03 3.654192e-03 2.915384e-03 1.918850e-03 1.776071e-03 9.514092e-04 1.195313e-03 3.832774e-04 8.902581e-04 4.158292e-05 7.185786e-04 -1.601092e-04 6.033749e-04 -2.637982e-04 5.054470e-04 -2.904778e-04 4.011174e-04 -2.536926e-04 2.790085e-04 -1.634312e-04 1.359268e-04 -3.481141e-05 -2.684182e-05 1.132930e-04 -1.983858e-04 2.660738e-04 -3.581556e-04 4.064704e-04 -4.880086e-04 5.126199e-04 -5.694361e-04 5.677984e-04 -5.822866e-04 5.613944e-04 -5.104568e-04 4.947198e-04 -3.347970e-04 3.992627e-04 -2.542437e-05 3.659492e-04 4.846557e-04 6.592281e-04 1.368063e-03 2.033928e-03 2.662762e-03 1.186133e-02 2.410111e-02 1.727596e-02 1.283378e-02 7.117705e-03 3.514178e-03 
-1.068395e-03 -3.392408e-03 -6.115965e-03 -7.666945e-03 -9.392411e-03 -8.774941e-03 -6.333222e-03 -6.856875e-03 -6.418755e-03 -9.495417e-03 -9.845656e-03 -1.499092e-02 -1.030614e-02 4.141413e-05 -8.909518e-06 3.233639e-05 -3.375439e-05 4.043655e-05 -4.620324e-05 3.676291e-05 -1.349858e-05 1.283334e-02 1.452364e-02 8.121495e-03 6.788433e-03 3.544469e-03 3.379015e-03 1.550441e-03 1.781514e-03 6.050375e-04 9.738468e-04 1.663566e-04 5.309257e-04 -1.814058e-05 2.607092e-04 -7.470691e-05 7.673862e-05 -6.948646e-05 -5.861373e-05 -3.983246e-05 -1.634830e-04 -9.709559e-06 -2.477717e-04 4.503001e-06 -3.218147e-04 -1.551589e-05 -4.084840e-04 -1.003097e-04 -5.542542e-04 -3.109073e-04 -8.650274e-04 -8.007411e-04 -1.593732e-03 -1.954437e-03 -3.760775e-03 -6.885201e-03 -1.052418e-02 -4.491743e-03 8.459450e-04 -3.135915e-03 3.243140e-03 1.344426e-03 -6.545867e-03 -7.072790e-05 3.555527e-03 -3.539127e-03 -4.599825e-03 1.861605e-03 1.743430e-03 -3.397201e-03 -2.497305e-03 4.929364e-03 9.631842e-03 6.269037e-03 4.372169e-03 3.138445e-03 2.562144e-03 2.036929e-03 1.625251e-03 1.433512e-03 1.016122e-03 1.071812e-03 5.896899e-04 8.418989e-04 2.848021e-04 6.897739e-04 7.185360e-05 5.811156e-04 -6.805559e-05 4.918288e-04 -1.461600e-04 4.067528e-04 -1.699041e-04 3.154233e-04 -1.463788e-04 2.124255e-04 -8.289348e-05 9.667182e-05 9.539753e-06 -3.013458e-05 1.173406e-04 -1.598073e-04 2.286129e-04 -2.781170e-04 3.300396e-04 -3.711043e-04 4.061928e-04 -4.241572e-04 4.459020e-04 -4.208036e-04 4.454075e-04 -3.433564e-04 4.165252e-04 -1.636500e-04 4.052651e-04 1.754308e-04 5.233224e-04 8.034824e-04 1.018454e-03 2.006853e-03 2.350620e-03 4.244132e-03 5.780468e-03 9.847547e-03 8.248899e-03 6.990767e-03 4.200569e-03 1.933965e-03 
-4.773776e-04 -1.297508e-03 -2.534852e-03 -3.208142e-03 -3.883002e-03 -4.188197e-03 -2.994272e-03 -3.514947e-03 -3.298755e-03 -4.622146e-03 -4.938390e-03 -7.334022e-03 -5.052690e-03 2.240454e-05 -7.033309e-06 1.080421e-05 -2.003770e-05 2.389128e-05 -2.513004e-05 2.910603e-05 -5.547086e-06 6.588504e-03 7.409710e-03 3.936060e-03 3.211138e-03 1.607261e-03 1.489003e-03 6.561387e-04 7.361472e-04 2.314216e-04 3.825267e-04 4.450716e-05 2.004989e-04 -3.005474e-05 9.479079e-05 -4.829396e-05 2.702163e-05 -3.607327e-05 -1.657108e-05 -5.173420e-06 -3.904160e-05 3.991828e-05 -3.827562e-05 9.926693e-05 -1.025564e-05 1.752813e-04 4.796316e-05 2.698761e-04 1.343680e-04 3.754277e-04 2.257392e-04 4.402415e-04 2.293451e-04 2.944882e-04 -1.435081e-04 -8.580222e-04 -2.386320e-03 -3.767169e-03 -1.939715e-03 -3.253186e-03 -3.477695e-03 -2.965627e-03 -3.717580e-03 -3.657794e-03 -3.852992e-03 -3.237216e-03 -3.635527e-03 -3.295909e-03 -2.277098e-03 -1.821436e-03 -1.522764e-03 1.082242e-03 4.010955e-03 3.851301e-03 4.175582e-03 3.744399e-03 3.508058e-03 3.084929e-03 2.683481e-03 2.381405e-03 1.954851e-03 1.793980e-03 1.374974e-03 1.341805e-03 9.358907e-04 1.005381e-03 6.144033e-04 7.571652e-04 3.864455e-04 5.719043e-04 2.318687e-04 4.297427e-04 1.348099e-04 3.157498e-04 8.255118e-05 2.194460e-04 6.444684e-05 1.341330e-04 7.066689e-05 5.635342e-05 9.207760e-05 -1.395560e-05 1.207819e-04 -7.401689e-05 1.495814e-04 -1.198161e-04 1.720057e-04 -1.463573e-04 1.840071e-04 -1.473574e-04 1.861716e-04 -1.142124e-04 1.884940e-04 -3.128860e-05 2.203969e-04 1.342368e-04 3.481815e-04 4.516225e-04 7.010709e-04 1.052666e-03 1.474232e-03 2.125528e-03 2.830760e-03 4.089398e-03 3.174404e-03 2.976967e-03 1.625657e-03 9.220530e-04 
1.459842e-06 -3.062364e-07 1.527562e-06 -2.394140e-07 1.572212e-06 1.278127e-07 1.436465e-06 6.197887e-07 8.551035e-07 1.091363e-06 2.228647e-07 1.385708e-06 -1.824832e-07 1.987035e-07 9.245018e-08 1.643483e-07 1.085651e-07 1.564951e-07 1.626974e-07 1.787410e-07 2.494829e-07 -3.471373e-06 -9.599542e-06 -2.984717e-06 -9.797543e-06 -5.448240e-06 -1.201003e-05 -9.296140e-06 -1.569376e-05 -1.486231e-05 -2.111581e-05 -2.218087e-05 -2.817126e-05 -3.114595e-05 -3.697652e-05 -4.185348e-05 -4.770223e-05 -5.430164e-05 -6.061505e-05 -6.907149e-05 -7.716317e-05 -8.842464e-05 -1.009478e-04 -1.175362e-04 -1.397866e-04 -1.673015e-04 -2.090555e-04 -2.576071e-04 -3.346563e-04 -4.207483e-04 -5.564352e-04 -7.054555e-04 -9.275918e-04 -1.165373e-03 -1.473480e-03 -1.784669e-03 -2.000899e-03 -1.756615e-03 -9.982766e-04 -1.313071e-03 -5.142087e-04 -5.627752e-04 -9.340612e-04 -3.590688e-04 -1.773767e-04 -3.670114e-04 -4.098228e-04 1.832353e-04 2.082945e-04 2.187961e-04 4.463464e-04 1.135617e-03 1.625610e-03 1.528131e-03 1.527685e-03 1.374247e-03 1.288407e-03 1.167747e-03 1.054426e-03 9.687821e-04 8.438315e-04 7.856258e-04 6.587638e-04 6.219306e-04 5.018981e-04 4.810887e-04 3.742769e-04 3.641660e-04 2.741242e-04 2.701378e-04 1.981271e-04 1.969651e-04 1.422942e-04 1.417501e-04 1.023581e-04 1.012078e-04 7.437838e-05 7.201493e-05 5.475158e-05 5.091320e-05 4.055573e-05 3.547616e-05 3.014737e-05 2.422389e-05 2.249355e-05 1.582164e-05 1.666994e-05 9.316053e-06 1.228442e-05 4.335864e-06 9.104294e-06 5.616301e-07 6.813816e-06 -2.099810e-06 5.295515e-06 -3.616347e-06 4.257606e-06 -4.173495e-06 3.373969e-06 -3.768936e-06 2.669598e-06 -2.439665e-06 2.075448e-06 -9.571827e-07 1.619752e-06 -4.077812e-07 1.464176e-06 -2.841578e-07 
4.808999e-04 1.297570e-03 2.538463e-03 3.208190e-03 3.886703e-03 4.189356e-03 2.997229e-03 3.517836e-03 3.299250e-03 4.626689e-03 4.936293e-03 7.339264e-03 5.047094e-03 -2.215295e-05 7.101753e-06 -1.059597e-05 2.016950e-05 -2.367225e-05 2.533051e-05 -2.881062e-05 5.936917e-06 -6.589186e-03 -7.426939e-03 -3.931926e-03 -3.226076e-03 -1.605729e-03 -1.504720e-03 -6.582772e-04 -7.536929e-04 -2.384409e-04 -4.027088e-04 -5.666829e-05 -2.225604e-04 1.447387e-05 -1.161870e-04 3.362898e-05 -4.233751e-05 3.102150e-05 1.728259e-05 2.397399e-05 7.074578e-05 2.257205e-05 1.212187e-04 3.166945e-05 1.679461e-04 4.942391e-05 2.039411e-04 6.370210e-05 2.120503e-04 4.624338e-05 1.581029e-04 -5.650213e-05 -1.702015e-05 -3.282907e-04 -3.914954e-04 -8.574980e-04 -1.001971e-03 -1.548139e-03 -1.447618e-03 -1.821345e-03 -1.886628e-03 -1.881538e-03 -2.024520e-03 -1.840300e-03 -1.960134e-03 -1.571104e-03 -1.622325e-03 -1.169535e-03 -1.014690e-03 -4.530259e-04 -2.221657e-04 4.526542e-04 9.120149e-04 1.258236e-03 1.476512e-03 1.596635e-03 1.626873e-03 1.604093e-03 1.541052e-03 1.429587e-03 1.348532e-03 1.179164e-03 1.127007e-03 9.172286e-04 9.173111e-04 6.788257e-04 7.361960e-04 4.798391e-04 5.860347e-04 3.252156e-04 4.625614e-04 2.144048e-04 3.591869e-04 1.435261e-04 2.692442e-04 1.068007e-04 1.877215e-04 9.735951e-05 1.116854e-04 1.073321e-04 4.042392e-05 1.285961e-04 -2.426863e-05 1.531742e-04 -7.920412e-05 1.728307e-04 -1.210786e-04 1.796497e-04 -1.474526e-04 1.659673e-04 -1.599282e-04 1.220550e-04 -1.695632e-04 3.174654e-05 -2.062900e-04 -1.380189e-04 -3.372406e-04 -4.571813e-04 -6.925550e-04 -1.057801e-03 -1.467632e-03 -2.128239e-03 -2.825987e-03 -4.089417e-03 -3.170464e-03 -2.976408e-03 -1.622032e-03 -9.216486e-04 
1.071284e-03 3.391733e-03 6.119411e-03 7.665576e-03 9.396667e-03 8.775085e-03 6.338248e-03 6.858511e-03 6.420910e-03 9.498749e-03 9.845780e-03 1.499475e-02 1.030366e-02 -4.106523e-05 8.961047e-06 -3.211558e-05 3.381946e-05 -4.024403e-05 4.636391e-05 -3.653227e-05 1.399169e-05 -1.283448e-02 -1.453782e-02 -8.122094e-03 -6.802348e-03 -3.548650e-03 -3.395247e-03 -1.559863e-03 -1.803178e-03 -6.242953e-04 -1.005220e-03 -1.986914e-04 -5.734584e-04 -2.875413e-05 -3.167428e-04 1.007338e-05 -1.495751e-04 -1.480565e-05 -3.288894e-05 -6.628261e-05 4.775359e-05 -1.258410e-04 9.654341e-05 -1.834669e-04 1.143443e-04 -2.364519e-04 9.825480e-05 -2.886161e-04 4.431371e-05 -3.476216e-04 -5.217788e-05 -4.256375e-04 -1.944015e-04 -5.300213e-04 -3.660420e-04 -6.386956e-04 -5.073302e-04 -6.754915e-04 -4.839621e-04 -5.483879e-04 -4.686385e-04 -3.495048e-04 -4.101372e-04 -1.696058e-04 -3.154339e-04 1.658703e-05 -1.908562e-04 1.988605e-04 -2.155337e-06 4.193476e-04 2.184449e-04 6.456939e-04 5.122986e-04 7.873449e-04 6.301963e-04 7.837345e-04 6.538999e-04 6.944159e-04 6.369097e-04 5.606678e-04 6.062304e-04 4.076513e-04 5.724598e-04 2.540386e-04 5.408008e-04 1.166003e-04 5.110092e-04 5.897717e-06 4.766036e-04 -7.135569e-05 4.315915e-04 -1.092210e-04 3.711475e-04 -1.062954e-04 2.909287e-04 -6.502598e-05 1.907890e-04 9.264186e-06 7.386173e-05 1.059756e-04 -5.388201e-05 2.121464e-04 -1.807161e-04 3.141527e-04 -2.930956e-04 3.946446e-04 -3.789622e-04 4.364314e-04 -4.263417e-04 4.244895e-04 -4.309192e-04 3.398342e-04 -4.062302e-04 1.545612e-04 -3.969701e-04 -1.869279e-04 -5.158773e-04 -8.161123e-04 -1.012802e-03 -2.018365e-03 -2.345875e-03 -4.249707e-03 -5.776875e-03 -9.845666e-03 -8.246777e-03 -6.989754e-03 -4.198081e-03 -1.933724e-03 
1.454488e-03 4.902472e-03 1.034007e-02 1.367199e-02 2.127626e-02 1.906293e-02 3.632313e-03 2.935288e-03 3.603657e-03 4.950433e-03 5.212232e-03 8.012494e-03 4.425166e-03 -1.368772e-04 6.265387e-05 8.961501e-05 9.204046e-05 -1.031066e-04 1.175918e-04 -2.862763e-04 1.285129e-04 -5.860104e-03 -6.383580e-03 -3.911073e-03 -3.082267e-03 -1.416390e-03 -1.602317e-03 -3.668948e-04 -9.299107e-04 9.096764e-05 -5.756832e-04 2.592818e-04 -3.494292e-04 2.800761e-04 -1.768399e-04 2.252855e-04 -3.059190e-05 1.406072e-04 9.990201e-05 5.402924e-05 2.123274e-04 -2.114312e-05 3.017344e-04 -7.565870e-05 3.655096e-04 -1.068809e-04 3.981137e-04 -1.205805e-04 3.929264e-04 -1.301134e-04 3.361373e-04 -1.677453e-04 1.961190e-04 -2.888136e-04 -7.246338e-05 -5.675993e-04 -5.408213e-04 -1.090695e-03 -9.529519e-04 -1.180741e-03 -1.428520e-03 -1.173313e-03 -1.185998e-03 -1.012839e-03 -1.254561e-03 -5.623430e-04 -8.161054e-04 -3.545726e-04 -4.451298e-04 3.204971e-04 4.817148e-05 7.402981e-04 6.985513e-04 1.117810e-03 9.294767e-04 1.156197e-03 9.632910e-04 1.021509e-03 9.137684e-04 8.076736e-04 8.430298e-04 5.685589e-04 7.759185e-04 3.365169e-04 7.224698e-04 1.357598e-04 6.810311e-04 -2.202423e-05 6.387679e-04 -1.308927e-04 5.850045e-04 -1.839266e-04 5.115735e-04 -1.805307e-04 4.106983e-04 -1.247425e-04 2.817833e-04 -2.330487e-05 1.288467e-04 1.091388e-04 -4.101166e-05 2.552677e-04 -2.115500e-04 3.981028e-04 -3.641406e-04 5.144356e-04 -4.826048e-04 5.821458e-04 -5.477626e-04 5.849832e-04 -5.473544e-04 5.044579e-04 -4.860828e-04 3.221596e-04 -3.923498e-04 1.106086e-05 -3.586749e-04 -4.997564e-04 -6.532800e-04 -1.381499e-03 -2.027625e-03 -2.666846e-03 -1.186091e-02 -2.409247e-02 -1.727405e-02 -1.283034e-02 -7.114930e-03 -3.512865e-03 
2.445905e-03 1.052039e-02 2.031086e-02 3.116332e-02 4.072693e-02 1.749909e-02 -2.522644e-04 1.891856e-03 -9.583126e-04 2.877611e-03 1.293137e-04 4.120312e-03 1.704395e-03 -1.519093e-04 7.502038e-05 4.059272e-05 1.159006e-04 -1.266617e-04 1.612256e-04 -2.884243e-04 1.806991e-04 -2.648940e-03 -1.832246e-03 -1.273666e-03 -1.133337e-03 -1.383060e-05 -8.054184e-04 5.117780e-04 -6.499717e-04 6.692001e-04 -5.170095e-04 6.402811e-04 -3.524344e-04 5.183234e-04 -1.705786e-04 3.402938e-04 9.809380e-06 1.575839e-04 1.924150e-04 1.990927e-06 3.502554e-04 -1.308044e-04 4.634662e-04 -2.260315e-04 5.382355e-04 -2.758505e-04 5.695848e-04 -2.818439e-04 5.729522e-04 -2.249171e-04 5.707104e-04 -1.152239e-04 5.462733e-04 6.603502e-06 4.843623e-04 9.171423e-05 3.116425e-04 -5.020732e-05 1.633118e-04 1.168220e-04 -1.903474e-04 1.636093e-04 -3.143369e-06 2.217717e-04 -3.277917e-04 4.017914e-04 -2.275429e-04 2.640173e-04 -2.895959e-04 5.362837e-04 -2.209340e-04 5.327350e-04 4.685263e-05 6.039191e-04 8.225242e-05 4.688109e-04 9.953503e-05 2.812365e-04 1.570024e-04 9.146179e-05 2.593509e-04 -9.863687e-05 3.732936e-04 -2.863256e-04 4.934109e-04 -4.359065e-04 6.119465e-04 -5.432576e-04 6.864370e-04 -6.082857e-04 7.044645e-04 -6.017090e-04 6.636278e-04 -5.193181e-04 5.456552e-04 -3.652489e-04 3.588958e-04 -1.361469e-04 1.159573e-04 1.389400e-04 -1.789660e-04 4.296512e-04 -4.840469e-04 7.217046e-04 -7.571530e-04 9.644181e-04 -9.790459e-04 1.112686e-03 -1.097829e-03 1.153615e-03 -1.072908e-03 1.052989e-03 -9.002328e-04 7.973634e-04 -5.680135e-04 4.136901e-04 -9.548851e-05 -5.375752e-05 4.517233e-04 -4.857487e-04 8.776130e-04 -4.350621e-04 -6.671514e-03 -3.985067e-02 -4.158672e-02 -2.542994e-02 -1.438198e-02 -5.442687e-03 
8.683899e-04 8.954912e-03 1.602486e-02 2.687551e-02 2.784806e-02 -1.244702e-02 -3.108054e-03 2.105614e-03 -5.003684e-03 1.668971e-03 -5.733967e-03 -6.217839e-04 -4.102758e-03 5.257698e-03 2.846690e-04 1.547546e-03 1.558682e-04 -1.817375e-04 1.171223e-04 -1.976462e-03 -1.399532e-03 1.887053e-03 2.695001e-03 2.256410e-03 1.160837e-03 1.420557e-03 3.452273e-04 1.087964e-03 3.554931e-05 8.617618e-04 -2.747431e-05 6.499326e-04 5.751532e-05 4.390031e-04 2.024045e-04 2.155362e-04 3.566568e-04 1.857012e-05 5.188725e-04 -1.265345e-04 6.512319e-04 -2.386113e-04 7.279941e-04 -3.071296e-04 7.593458e-04 -3.309663e-04 7.367880e-04 -3.226529e-04 6.759928e-04 -2.659222e-04 5.987231e-04 -1.811985e-04 4.766385e-04 -1.060316e-04 3.186596e-04 1.314991e-06 2.113533e-04 2.347150e-04 1.001402e-04 3.372498e-04 1.167104e-04 4.965061e-04 -3.826675e-05 6.486648e-04 9.947108e-06 6.862657e-04 -8.907103e-05 8.158351e-04 -1.045012e-04 6.824867e-04 -1.861676e-04 5.228622e-04 -3.866902e-04 2.724113e-04 -3.714646e-04 1.110238e-04 -2.452269e-04 -3.363817e-05 -5.274898e-05 -1.741050e-04 1.734918e-04 -3.312205e-04 3.823330e-04 -5.032480e-04 5.714422e-04 -6.373182e-04 7.372839e-04 -7.249883e-04 8.273845e-04 -7.643291e-04 8.306704e-04 -7.135080e-04 7.490406e-04 -5.663534e-04 5.611685e-04 -3.281932e-04 2.823374e-04 6.343938e-06 -6.672433e-05 3.966888e-04 -4.772259e-04 7.993115e-04 -8.877754e-04 1.192050e-03 -1.236654e-03 1.500918e-03 -1.494888e-03 1.659541e-03 -1.588316e-03 1.646898e-03 -1.459535e-03 1.412324e-03 -1.102593e-03 9.320513e-04 -4.967041e-04 2.264967e-04 3.614271e-04 -7.110240e-04 1.545153e-03 -1.960421e-03 3.646463e-03 -4.253960e-03 1.293030e-02 -1.618200e-02 -3.669785e-02 -2.088212e-02 -1.370455e-02 -4.377439e-03 
2.159013e-04 3.239452e-03 4.060917e-03 6.317013e-03 7.147444e-04 -2.089777e-02 1.633309e-04 4.664763e-03 -7.346297e-04 5.854842e-03 -4.834689e-07 6.648531e-03 -3.240209e-03 -7.016515e-03 -6.512429e-03 -6.687128e-04 -2.083534e-03 1.724974e-03 1.364475e-03 5.275447e-03 7.318143e-03 3.195311e-04 -2.047996e-03 -1.699345e-03 -1.164055e-03 -6.072241e-04 -6.048838e-04 -1.557773e-04 -3.278880e-04 1.745388e-05 -1.390020e-04 5.159436e-05 2.203758e-05 1.773295e-05 1.611792e-04 -5.221922e-05 2.753077e-04 -1.237771e-04 3.710415e-04 -1.769372e-04 4.369739e-04 -2.143655e-04 4.651839e-04 -2.308611e-04 4.618898e-04 -2.272443e-04 4.260745e-04 -2.116026e-04 3.651308e-04 -1.826879e-04 2.878157e-04 -1.529682e-04 1.864833e-04 -1.301510e-04 8.645844e-05 -4.857730e-05 1.031094e-04 2.522159e-04 9.782794e-05 2.417442e-04 1.558420e-04 2.597718e-04 -3.650933e-04 1.408857e-04 -3.718209e-04 -8.788996e-05 -6.726207e-04 4.067603e-05 -5.850237e-04 -7.821304e-05 -4.486469e-04 1.426139e-04 -2.609942e-04 2.596061e-04 5.664911e-05 3.962296e-04 3.096808e-04 4.140456e-04 4.748951e-04 3.323146e-04 5.814790e-04 1.880907e-04 6.453874e-04 1.892765e-05 6.863434e-04 -1.299018e-04 7.109484e-04 -2.403523e-04 6.985695e-04 -3.034208e-04 6.411180e-04 -2.985207e-04 5.354292e-04 -2.217620e-04 3.709872e-04 -7.681039e-05 1.541642e-04 1.331742e-04 -1.030343e-04 3.832689e-04 -3.888791e-04 6.438294e-04 -6.670927e-04 8.903001e-04 -8.986206e-04 1.075666e-03 -1.056441e-03 1.155372e-03 -1.097225e-03 1.103716e-03 -9.882345e-04 8.854305e-04 -7.240778e-04 4.747867e-04 -3.047168e-04 -1.514831e-04 2.463981e-04 -1.096620e-03 9.030818e-04 -2.763835e-03 1.814007e-03 -7.165273e-03 1.194635e-02 6.139698e-03 -8.327250e-03 -3.557657e-03 -3.954010e-03 -3.177775e-04 
1.103931e-04 1.146743e-03 1.669604e-03 1.247666e-03 -5.115778e-05 -6.410809e-03 2.235216e-03 4.256963e-03 4.077535e-03 8.391021e-03 9.942732e-03 1.780692e-02 2.179950e-02 2.288219e-02 1.180017e-02 6.250933e-03 2.498253e-03 -2.215113e-03 -6.767202e-03 -1.095704e-02 -2.278020e-02 -2.319552e-02 -1.564816e-02 -1.068084e-02 -6.558981e-03 -4.422994e-03 -2.808774e-03 -1.825609e-03 -1.205502e-03 -7.283614e-04 -4.949269e-04 -2.815697e-04 -1.601751e-04 -1.164291e-04 1.299844e-05 -7.189927e-05 1.129130e-04 -7.210394e-05 1.780017e-04 -8.085142e-05 2.222756e-04 -8.203411e-05 2.529046e-04 -6.387805e-05 2.787866e-04 -1.698649e-05 3.087221e-04 6.583487e-05 3.521432e-04 1.862369e-04 4.060104e-04 3.092783e-04 4.089595e-04 2.800022e-04 1.276512e-04 -4.041208e-04 -1.240069e-03 -3.003844e-03 -2.308750e-03 -2.814123e-03 -4.402129e-03 -2.873950e-03 -1.650806e-03 -2.231446e-03 -2.619663e-03 -2.695614e-04 -3.695421e-04 -8.231974e-04 8.590828e-05 1.677938e-03 1.084090e-03 1.966884e-03 2.874521e-03 2.805324e-03 2.534858e-03 2.216016e-03 1.804936e-03 1.477137e-03 1.196828e-03 8.869815e-04 7.976029e-04 4.730230e-04 5.642318e-04 1.956030e-04 4.392708e-04 1.754571e-05 3.753615e-04 -8.942840e-05 3.344540e-04 -1.426964e-04 2.926806e-04 -1.486641e-04 2.361654e-04 -1.120110e-04 1.561322e-04 -3.761680e-05 5.169724e-05 6.857283e-05 -7.298489e-05 1.944748e-04 -2.097103e-04 3.254710e-04 -3.419811e-04 4.462328e-04 -4.507830e-04 5.357804e-04 -5.188472e-04 5.735143e-04 -5.264792e-04 5.436823e-04 -4.583312e-04 4.305191e-04 -3.087472e-04 2.202906e-04 -8.046244e-05 -1.063785e-04 2.066571e-04 -6.089913e-04 5.040988e-04 -1.486585e-03 6.841531e-04 -3.594415e-03 3.481870e-03 2.732286e-03 -1.321784e-03 -8.273750e-04 -1.553503e-03 -2.355296e-04 
