# vtk DataFile Version 2.0
Comment goes here
ASCII

DATASET STRUCTURED_POINTS
FIELD FieldData 1
TIME 1 1 double
0.04000000
DIMENSIONS    128   16   1

ORIGIN    0.000   0.000   0.000
SPACING   0.0078125 0.015625   1.000

POINT_DATA   2048
SCALARS uY double
LOOKUP_TABLE default

-1.931013e-05 1.483442e-06 1.214070e-04 1.538579e-04 2.834810e-04 2.874244e-04 4.025474e-04 1.761957e-04 3.193674e-05 -1.047357e-04 -4.588379e-04 -1.886181e-04 -7.922289e-04 -1.024489e-03 -1.012730e-03 -1.594058e-03 -9.938133e-04 -1.097218e-03 -8.002583e-04 5.416070e-04 1.880559e-04 5.845383e-05 -6.978316e-04 -8.661624e-04 7.330722e-04 4.209123e-05 5.583736e-04 -9.260327e-04 1.506417e-03 9.672217e-04 8.657317e-04 -6.800388e-04 -7.917637e-05 2.358611e-03 8.779140e-04 -8.101149e-04 -1.420360e-03 2.392718e-03 1.426195e-03 -4.111852e-05 2.377874e-04 1.818915e-03 7.493306e-04 -2.410460e-04 5.415033e-04 5.783619e-04 2.520266e-04 -5.888299e-04 4.152938e-04 8.595612e-04 1.115765e-03 3.259449e-03 4.056798e-03 5.097153e-03 7.129857e-03 7.720678e-03 7.098185e-03 5.343947e-03 2.341448e-03 -3.511345e-03 -2.691107e-03 9.954404e-04 -1.770715e-03 -2.877917e-03 1.175955e-03 1.524796e-03 -2.038841e-03 -2.083592e-03 9.159494e-05 -4.812963e-03 -8.028044e-03 -3.196476e-03 -1.095428e-03 1.048711e-04 -4.838385e-04 -8.906990e-04 -9.094812e-04 -2.681983e-03 -1.697945e-03 -3.759730e-03 -2.456033e-03 -1.990864e-03 -2.081130e-03 -3.056690e-04 1.800285e-04 1.068581e-03 -6.953452e-04 -1.302316e-05 5.459435e-04 2.914055e-04 -2.844859e-03 2.252465e-06 1.729951e-03 -2.023285e-04 -1.739540e-03 -2.126144e-04 2.824011e-03 -1.003138e-03 -2.083292e-03 -1.095251e-03 1.854353e-03 5.947649e-05 -8.939241e-04 -1.713635e-04 -8.418437e-04 3.933528e-04 -8.452072e-04 -5.631199e-04 -1.035322e-03 -5.654408e-04 -7.579818e-04 -1.621647e-03 7.540662e-05 -5.984149e-05 6.476491e-04 9.906226e-05 -1.250221e-03 -4.344411e-04 2.615519e-04 2.124696e-03 2.618268e-03 1.656213e-03 8.842644e-04 2.553091e-04 7.503314e-05 -1.210997e-04 -8.356066e-05 -1.193746e-04 
-4.780997e-04 3.554933e-04 -2.594984e-04 -1.869898e-04 -2.639577e-03 -3.104624e-03 4.676171e-03 1.400872e-03 2.245765e-03 3.631816e-03 4.990138e-03 1.033508e-02 9.093682e-03 8.163835e-03 4.712139e-03 6.744521e-04 -1.783230e-03 -3.279281e-03 -5.070671e-03 -1.397461e-03 -5.684911e-03 -9.527655e-03 -1.183096e-02 -9.223921e-03 -1.656147e-04 1.425170e-04 -1.861815e-03 -5.255072e-03 3.076333e-03 5.336798e-03 -6.919896e-04 -9.217014e-03 -3.190784e-03 1.124546e-02 5.183924e-03 -9.196270e-03 -7.926902e-03 1.149356e-02 7.613747e-03 -5.599965e-03 -1.528366e-03 8.366072e-03 2.384100e-03 -3.654276e-03 1.832947e-03 4.693270e-03 1.918023e-03 -1.850117e-03 2.719907e-03 2.576852e-03 2.880304e-03 1.095517e-02 1.335405e-02 1.620967e-02 2.398528e-02 2.347223e-02 1.367453e-02 5.682488e-03 -1.005251e-03 -1.378653e-02 -9.933540e-03 -3.591105e-03 -1.562816e-02 -1.485197e-02 -3.729685e-03 -6.928007e-03 -1.565325e-02 -1.105968e-02 -4.076335e-03 -1.970864e-02 -2.779371e-02 -1.477704e-02 -5.609802e-03 5.128051e-03 8.423893e-03 8.327691e-03 6.350522e-03 1.008332e-03 3.007898e-03 -3.356257e-03 1.898004e-04 1.800118e-03 -2.645708e-03 2.331244e-03 5.482287e-03 4.736702e-03 -4.249709e-03 -1.615111e-03 7.000590e-03 4.520734e-04 -1.268948e-02 2.837370e-03 1.501299e-02 -1.372519e-03 -1.133846e-02 1.628695e-03 1.409987e-02 -2.305450e-03 -1.155320e-02 -2.654378e-03 9.029539e-03 3.399326e-03 -4.725361e-03 -2.865391e-03 -1.853135e-03 2.314830e-03 -2.485331e-03 -2.411105e-03 -2.327683e-03 -1.587705e-05 -1.774448e-03 -4.833457e-03 1.255817e-04 1.608049e-03 4.130233e-03 -2.235744e-04 -5.615881e-03 -5.516572e-03 -2.647762e-05 5.657947e-03 8.895583e-03 2.555669e-03 3.450774e-04 3.725740e-03 5.771970e-04 -2.311656e-05 -9.571065e-04 -3.611417e-04 
-1.236282e-03 1.232009e-03 4.683386e-04 2.323751e-03 -6.170699e-03 -1.026632e-02 9.743287e-03 -9.083997e-04 -1.348889e-03 -2.030451e-03 -2.261845e-03 4.577320e-03 -4.776578e-03 -5.158768e-03 -3.900741e-03 -4.355921e-03 -4.012531e-03 -5.130408e-03 -2.689281e-03 1.299141e-02 1.123544e-02 5.252022e-03 -6.260985e-03 -7.341627e-03 1.000901e-02 8.497780e-03 -2.199022e-03 -1.046111e-02 9.692824e-03 1.448622e-02 -2.890755e-03 -2.378763e-02 -9.748682e-03 2.762183e-02 1.427130e-02 -2.566136e-02 -2.176610e-02 2.831430e-02 1.938580e-02 -1.763048e-02 -6.578805e-03 1.893748e-02 4.113752e-03 -1.168199e-02 1.690177e-03 9.693664e-03 1.742405e-03 -8.807511e-03 8.488076e-04 -2.076819e-03 -6.057661e-03 9.090984e-03 7.452973e-03 3.100397e-03 9.842068e-03 1.542072e-03 -1.064027e-02 -5.528435e-03 4.241197e-03 6.053691e-03 5.914950e-03 4.734251e-04 1.182751e-03 6.408154e-03 2.202086e-03 5.778406e-03 1.566354e-02 6.650971e-03 4.082457e-04 3.301117e-03 5.950289e-03 2.154961e-03 -1.672912e-02 -1.696357e-02 -1.129733e-02 -2.386550e-03 -1.896917e-03 -9.144200e-03 -2.122190e-03 -1.406202e-02 -3.511937e-03 1.941506e-03 -9.244227e-03 1.651271e-03 1.168309e-02 9.744888e-03 -1.296001e-02 -8.500757e-03 1.769971e-02 2.503597e-03 -3.419010e-02 2.355837e-03 4.029091e-02 -3.734338e-04 -3.461118e-02 1.851610e-03 4.145408e-02 -4.373634e-03 -3.674284e-02 -4.057979e-03 2.817356e-02 5.797387e-03 -1.326795e-02 -4.168348e-03 -3.847544e-03 5.775164e-03 -2.906244e-03 -6.466063e-03 -5.644494e-03 3.087852e-03 -3.081740e-03 -1.219356e-02 1.774110e-03 4.464862e-03 1.045040e-02 7.440773e-04 -1.545639e-02 -1.433716e-02 -1.059849e-03 1.283694e-02 2.169621e-02 3.220223e-03 -9.546756e-04 9.245163e-03 -2.111355e-03 -4.116229e-03 -3.807183e-03 -1.954804e-03 
-3.126216e-04 6.029436e-03 9.479582e-03 1.599479e-02 6.421676e-03 -1.135893e-02 5.312588e-03 3.012670e-04 -1.782126e-03 -6.321650e-04 -3.689851e-03 7.866434e-03 -4.056877e-03 -3.352627e-03 6.231053e-03 5.209461e-04 9.381578e-04 2.152679e-03 -1.071323e-03 -3.266151e-03 -7.995261e-03 1.203475e-03 -1.226981e-03 -2.152014e-03 5.668803e-03 2.578837e-03 -3.403054e-04 -6.370443e-03 1.181178e-02 -2.174938e-04 -4.180934e-03 -5.653584e-03 -8.802740e-03 9.202800e-03 5.443049e-03 -4.320325e-03 -9.762839e-03 1.557065e-02 8.843946e-03 -4.328566e-03 -1.411704e-03 5.933573e-03 3.336243e-03 -2.369978e-03 2.157844e-03 2.226986e-03 3.588285e-03 -4.357421e-03 -6.057499e-04 -4.387754e-03 -9.444215e-03 -4.429788e-03 -6.422840e-03 -1.065290e-02 -9.372969e-03 -8.883416e-03 -4.841305e-03 7.650566e-04 7.874634e-04 8.765786e-04 -1.831228e-03 2.075386e-03 3.282947e-03 -7.150536e-03 3.848877e-03 1.094996e-02 2.857418e-03 1.533463e-03 3.216581e-03 5.219218e-03 -9.808565e-04 4.966681e-04 6.047936e-03 2.932059e-03 -5.860128e-04 5.194692e-03 5.395207e-03 -1.859796e-03 9.765261e-04 -4.888419e-03 1.774052e-03 3.390328e-03 -9.448685e-04 -1.250163e-03 2.298924e-03 9.493980e-03 -3.720211e-03 -5.860527e-03 4.797447e-03 1.678771e-02 -1.365373e-02 -1.434563e-02 2.086675e-02 1.501153e-02 -2.133448e-02 -1.239904e-02 3.921636e-02 -8.419206e-04 -3.363098e-02 2.036930e-03 2.572582e-02 -1.363675e-02 -1.387530e-02 1.186209e-02 -1.103907e-02 1.610580e-03 3.158343e-04 -5.472677e-03 -1.056229e-02 5.867766e-03 6.118236e-04 -1.163234e-02 8.577952e-03 -3.429743e-03 4.066670e-03 4.403907e-03 -9.119595e-03 -1.840884e-03 4.977699e-04 3.625772e-03 1.243960e-02 -4.131757e-03 3.124857e-03 1.107205e-02 -1.460090e-02 -1.593210e-02 -1.053170e-02 -4.883888e-03 
1.051439e-03 7.085944e-03 1.434113e-02 2.038312e-02 2.234099e-02 1.765102e-03 -5.084068e-03 1.524212e-03 8.365321e-04 2.056613e-03 2.161665e-04 1.274166e-03 -3.232040e-03 -3.479141e-04 1.025383e-03 1.082062e-04 9.050937e-04 1.061987e-03 2.178518e-03 8.983581e-04 2.328932e-04 -3.346277e-03 4.177713e-03 5.121878e-03 -8.649046e-03 -1.025119e-02 3.013235e-03 5.499514e-03 1.672576e-03 -2.154843e-02 -9.065462e-04 2.693189e-02 2.750204e-03 -2.617018e-02 -1.391031e-02 3.254108e-02 1.871885e-02 -1.792278e-02 -1.565684e-02 2.115221e-02 8.345914e-03 -1.801886e-02 -1.321654e-04 1.492605e-02 2.509801e-03 -9.543781e-03 4.461139e-03 9.045811e-03 1.923143e-03 2.201410e-03 4.115140e-03 -7.947198e-03 -3.230528e-03 4.162690e-03 2.750209e-03 1.043267e-02 5.282981e-03 6.009439e-05 4.605965e-03 -5.022977e-03 -5.046234e-03 3.156414e-03 -3.407138e-03 -7.423316e-03 -3.461384e-03 -1.470963e-03 -1.473229e-02 -8.487197e-03 7.091039e-03 -2.023025e-03 -2.810618e-03 -3.438446e-03 -1.665246e-03 -6.946629e-04 -2.211914e-03 -3.047288e-03 1.081722e-03 3.595577e-03 -2.929325e-04 9.305723e-03 4.018751e-03 -1.246155e-03 9.476222e-03 -5.234591e-03 -1.511555e-02 -1.817669e-03 1.243571e-02 5.347488e-03 -1.970036e-02 1.791844e-02 3.029707e-02 -2.128604e-02 -3.000553e-02 1.872703e-02 2.291863e-02 -1.928375e-02 -8.209115e-03 3.687912e-03 1.000979e-02 7.014980e-03 -8.044904e-03 -2.594457e-02 -2.931027e-04 2.054522e-02 -1.079755e-02 -5.621786e-03 2.493993e-03 2.047747e-03 -6.584858e-03 2.312066e-03 4.912563e-03 1.726958e-03 8.816491e-03 -1.131347e-02 -9.286728e-03 4.426099e-03 1.040919e-02 1.800941e-02 2.265936e-03 -1.407036e-02 -1.481728e-02 -1.004375e-02 6.037954e-03 1.914296e-04 -1.944103e-02 -1.844714e-02 -1.169584e-02 -5.454937e-03 
1.096196e-03 4.138726e-03 8.671476e-03 1.075209e-02 1.552445e-02 8.047342e-03 -2.419797e-03 2.495050e-03 2.141322e-03 3.335302e-03 2.378893e-03 2.742458e-04 -5.718630e-04 -3.224776e-04 8.848980e-04 1.384245e-05 8.786113e-04 5.345470e-04 1.300448e-03 4.556983e-04 6.814254e-04 -2.421620e-03 1.499591e-03 1.974039e-03 -8.530330e-03 -8.672267e-03 1.611239e-03 4.238260e-03 -3.145778e-03 -1.386991e-02 7.686809e-04 1.846070e-02 4.216568e-03 -1.845931e-02 -1.047686e-02 2.279997e-02 1.482695e-02 -1.481977e-02 -1.200518e-02 1.583536e-02 6.257249e-03 -1.204413e-02 -4.381709e-05 1.081225e-02 2.038866e-03 -5.787647e-03 2.933756e-03 7.870066e-03 2.788309e-03 4.117962e-03 7.769862e-03 -9.556105e-04 4.175183e-03 1.159166e-02 1.194648e-02 1.434496e-02 2.516632e-04 -5.653029e-03 -2.708348e-05 -4.739071e-03 3.807074e-03 1.219398e-03 2.594152e-03 1.510346e-02 -5.404308e-03 4.184294e-05 1.128787e-02 -5.235191e-04 3.715030e-03 7.763043e-03 2.078619e-02 1.021118e-02 -1.948011e-02 -2.892639e-02 -2.473055e-02 -2.140573e-02 -1.371478e-02 -6.162254e-03 -6.758776e-03 2.753608e-03 -1.180646e-03 -4.311835e-03 4.374097e-03 -3.805889e-03 -1.102754e-02 -4.424819e-03 8.116134e-03 6.127822e-03 -1.370721e-02 5.736942e-03 2.317202e-02 -7.665337e-03 -2.503502e-02 5.680999e-03 2.186154e-02 -8.148668e-03 -1.781814e-02 1.327159e-03 1.754315e-02 2.586318e-03 -1.441307e-02 -1.209396e-02 3.130692e-03 8.224494e-03 -4.517432e-03 -3.881150e-03 -8.232695e-05 2.978396e-03 -1.166925e-03 -8.881419e-04 2.765549e-03 4.443028e-03 2.910589e-03 -6.154809e-03 -6.698287e-03 1.306071e-03 9.551962e-03 1.174228e-02 1.124202e-03 -1.034355e-02 -1.373646e-02 -5.525805e-03 1.005434e-03 -7.249678e-03 -1.144168e-02 -9.007410e-03 -6.025880e-03 -2.576416e-03 
6.555598e-04 2.261797e-03 4.366180e-03 5.233192e-03 6.484675e-03 4.703919e-03 2.799769e-03 3.421117e-03 3.095287e-03 4.737929e-03 4.791292e-03 6.835807e-03 3.128658e-03 -1.268577e-04 1.779204e-04 1.649767e-05 3.421730e-04 1.685798e-04 4.712140e-04 1.393970e-04 2.211813e-04 -2.924296e-03 -4.592371e-03 -5.598506e-03 -4.720109e-03 -4.733078e-03 -1.512188e-03 -1.984991e-03 -8.349128e-04 -3.027598e-03 -1.595308e-04 2.421622e-03 8.088351e-05 -1.467855e-03 -1.101592e-03 4.517885e-03 2.188280e-03 1.050988e-05 -6.927081e-04 3.457072e-03 1.658008e-03 -2.120387e-04 1.680601e-03 2.891713e-03 2.334842e-03 1.254761e-03 3.211566e-03 3.669617e-03 3.897236e-03 4.201157e-03 5.672173e-03 5.192576e-03 7.722501e-03 1.053004e-02 1.289113e-02 1.514521e-02 1.305980e-02 1.009335e-02 2.605350e-03 -7.537467e-03 -5.068634e-03 -3.168175e-03 -2.335006e-03 3.773679e-04 -6.433789e-03 -2.878916e-03 1.188274e-03 -5.504479e-03 -5.658943e-03 -5.982621e-03 -1.687121e-03 3.396396e-04 -6.586062e-03 -1.306152e-02 -1.266394e-02 -9.905461e-03 -7.079570e-03 -4.117844e-03 -3.484152e-03 -1.048293e-03 -1.046283e-03 -1.348061e-03 4.441089e-05 -1.179391e-03 -2.024986e-03 -3.437054e-04 5.269963e-04 1.650130e-03 -1.682668e-03 1.942538e-03 3.072301e-03 -1.284443e-03 -2.778086e-03 6.532357e-04 2.739228e-03 -2.269296e-03 -9.941862e-04 -8.788617e-04 1.337507e-03 -5.933518e-04 -1.992768e-03 -3.178466e-03 -1.273727e-03 1.209249e-03 -2.196249e-03 -3.344582e-04 -9.242004e-04 4.434423e-04 -7.335293e-04 3.097168e-04 7.887839e-04 2.674940e-04 1.255160e-03 -1.043736e-03 -3.940583e-04 7.083767e-04 1.328337e-03 1.828734e-03 -3.483238e-04 -2.461505e-03 -3.122553e-03 -3.053671e-03 -2.383724e-03 -3.940851e-03 -5.026429e-03 -4.295876e-03 -2.985946e-03 -1.371213e-03 
4.229549e-04 1.025250e-03 1.919696e-03 2.215979e-03 2.663461e-03 2.326676e-03 1.344282e-03 1.955949e-03 1.667484e-03 2.548158e-03 2.715870e-03 3.606418e-03 2.076147e-03 -1.101074e-04 1.374738e-04 -2.349534e-05 2.043875e-04 5.305630e-05 2.180568e-04 3.438443e-05 8.978219e-05 -1.711600e-03 -2.881183e-03 -3.166573e-03 -2.857997e-03 -2.553742e-03 -1.189515e-03 -1.072114e-03 -7.475136e-04 -1.322174e-03 -3.360208e-05 1.208895e-03 3.816835e-04 -3.185666e-04 -1.852271e-04 2.478797e-03 1.548612e-03 5.064452e-04 4.548963e-05 2.152362e-03 1.263857e-03 5.748898e-04 1.288833e-03 2.008032e-03 1.714762e-03 1.430635e-03 2.221197e-03 2.676357e-03 2.772876e-03 2.894294e-03 3.639116e-03 3.112665e-03 3.972862e-03 4.689993e-03 4.707495e-03 4.800600e-03 3.101236e-03 2.065246e-03 3.217644e-03 2.436253e-03 2.825174e-03 2.212736e-03 2.262648e-03 4.214420e-03 1.260904e-03 1.421649e-03 2.959131e-03 8.388382e-04 7.886463e-04 -1.269086e-05 8.544622e-04 -2.513772e-03 -7.252709e-03 -9.591854e-03 -9.777372e-03 -8.973913e-03 -7.880236e-03 -5.908328e-03 -5.417152e-03 -3.396460e-03 -3.184950e-03 -2.717294e-03 -1.778568e-03 -2.014923e-03 -2.100605e-03 -1.181665e-03 -5.130953e-04 3.249045e-04 -1.071052e-03 5.021489e-04 1.297423e-03 -5.829470e-04 -1.551935e-03 -1.541997e-04 1.077422e-03 -1.237012e-03 -1.182871e-03 -7.780583e-04 5.652389e-04 -8.354959e-04 -1.648333e-03 -1.710263e-03 -8.794085e-04 -1.330504e-04 -1.116721e-03 -4.440089e-04 -5.747164e-04 1.735567e-04 -1.610778e-04 1.965171e-04 4.662162e-04 4.883457e-04 5.081977e-04 -1.952856e-04 -7.923904e-05 4.545287e-04 8.436119e-04 8.676150e-04 -3.154116e-04 -1.358350e-03 -1.990717e-03 -1.785215e-03 -1.392774e-03 -2.016508e-03 -1.968628e-03 -1.715314e-03 -1.083765e-03 -4.637199e-04 
2.865006e-05 -6.704262e-06 -3.419488e-05 -5.425962e-05 -9.976259e-05 -9.249942e-05 -1.607409e-04 -1.055093e-04 -2.353331e-04 -5.291342e-05 -3.210617e-04 -2.319400e-05 -3.589875e-04 -3.117503e-05 -2.163652e-05 -3.011121e-05 -3.724423e-05 -4.807759e-05 -6.552325e-05 -1.014558e-04 -1.298166e-04 -3.605844e-04 3.486499e-04 -4.230191e-04 2.107066e-04 -5.289929e-04 3.101796e-04 -3.739470e-04 3.553057e-04 -2.455632e-04 4.054574e-04 3.972989e-04 5.079774e-04 6.218779e-04 6.206356e-04 1.355891e-03 1.024560e-03 1.323843e-03 9.638860e-04 1.548565e-03 1.231039e-03 1.355340e-03 1.396902e-03 1.647494e-03 1.701972e-03 1.832848e-03 2.131273e-03 2.383148e-03 2.666517e-03 2.918031e-03 3.363743e-03 3.589800e-03 4.122269e-03 4.516094e-03 4.794262e-03 4.788987e-03 4.259120e-03 3.268666e-03 2.300367e-03 7.226371e-04 3.005775e-04 -2.644414e-04 -7.199935e-04 -7.164767e-04 -1.701434e-03 -1.807085e-03 -1.645108e-03 -2.584696e-03 -2.495993e-03 -2.960323e-03 -2.663136e-03 -3.089543e-03 -3.848916e-03 -4.657276e-03 -4.716000e-03 -4.454906e-03 -4.015626e-03 -3.214406e-03 -2.816738e-03 -1.947034e-03 -1.644082e-03 -1.127716e-03 -8.500601e-04 -5.807347e-04 -6.040306e-04 -1.352419e-04 -2.121365e-04 3.221777e-04 -8.934806e-05 5.026887e-04 2.871101e-04 1.346960e-04 -1.234268e-04 -6.033911e-05 7.429463e-05 -6.343056e-04 -2.793207e-04 -8.023482e-04 -3.711244e-04 -9.687047e-04 -7.646515e-04 -1.073453e-03 -8.674432e-04 -6.017029e-04 -8.784715e-04 -4.085943e-04 -5.593939e-04 -9.419968e-05 -1.542090e-04 1.280744e-04 3.046165e-04 2.289036e-04 4.832586e-04 2.216344e-04 3.597876e-04 4.276182e-04 3.360589e-04 4.188034e-04 2.333150e-05 -5.596172e-05 -2.337437e-04 -1.778630e-04 -3.120327e-05 -4.004599e-05 6.499140e-05 2.785249e-05 7.132293e-05 2.923330e-05 
-2.274119e-04 -9.156483e-04 -1.881767e-03 -2.235871e-03 -2.769363e-03 -2.437391e-03 -1.535383e-03 -2.050324e-03 -1.827591e-03 -2.347254e-03 -2.854643e-03 -3.362718e-03 -2.123563e-03 6.699435e-05 -1.362786e-04 -3.547359e-06 -2.568099e-04 -4.757573e-05 -3.050268e-04 -1.267745e-04 -2.969981e-04 8.614015e-04 2.700804e-03 2.540487e-03 1.929290e-03 1.170220e-03 1.020561e-03 5.579638e-04 6.199287e-04 1.039745e-04 2.784016e-04 1.527458e-04 5.479228e-04 5.593373e-04 8.253999e-04 1.211360e-03 1.305269e-03 1.381432e-03 1.106228e-03 1.350520e-03 1.146211e-03 1.164203e-03 9.556520e-04 1.236202e-03 1.092082e-03 1.348607e-03 1.314101e-03 1.621570e-03 1.508352e-03 1.613874e-03 1.606752e-03 1.635968e-03 1.663145e-03 1.764795e-03 1.804970e-03 1.823486e-03 1.912969e-03 1.769732e-03 2.098004e-03 1.916947e-03 2.012139e-03 1.766417e-03 1.347431e-03 1.056427e-03 3.226399e-04 -1.323931e-04 -2.478319e-04 -7.202839e-04 -5.991686e-04 -1.027696e-03 -1.026209e-03 -1.862736e-03 -2.559166e-03 -3.493273e-03 -3.960899e-03 -4.248977e-03 -4.197971e-03 -3.634945e-03 -3.269822e-03 -2.273150e-03 -1.947046e-03 -1.201517e-03 -1.009462e-03 -7.802511e-04 -8.258672e-04 -6.140246e-04 -5.494010e-04 -2.357506e-04 -1.707538e-04 4.242820e-04 3.043264e-04 3.319706e-04 3.717023e-05 1.610664e-04 -1.865365e-04 -5.916177e-04 -5.538220e-04 -7.291571e-04 -5.706147e-04 -1.056385e-03 -8.269281e-04 -1.088455e-03 -8.415803e-04 -9.609252e-04 -8.543777e-04 -7.139915e-04 -5.391234e-04 -2.567113e-04 -2.310519e-05 2.088703e-04 5.165866e-04 4.471096e-04 6.133660e-04 4.140744e-04 4.951565e-04 5.622736e-04 4.723991e-04 5.458948e-04 2.936757e-04 3.899811e-04 4.314058e-04 8.026089e-04 1.247139e-03 2.024034e-03 2.269753e-03 1.969820e-03 1.403249e-03 6.905884e-04 
-5.175852e-04 -2.228794e-03 -4.423695e-03 -5.378999e-03 -6.702629e-03 -4.989790e-03 -3.066882e-03 -3.894500e-03 -3.521231e-03 -4.751809e-03 -5.625791e-03 -6.841227e-03 -3.976461e-03 1.401590e-04 -1.795431e-04 -3.097445e-06 -3.659817e-04 -1.230832e-04 -4.583486e-04 -2.046256e-04 -4.355245e-04 1.998404e-03 5.548764e-03 5.038084e-03 4.181693e-03 2.623445e-03 2.349387e-03 1.342819e-03 1.526600e-03 4.795282e-04 7.607620e-04 4.510356e-05 8.935973e-04 6.741265e-04 1.178793e-03 1.258221e-03 1.718711e-03 1.609015e-03 1.308826e-03 1.312012e-03 1.209765e-03 9.814302e-04 5.554744e-04 8.290461e-04 5.702111e-04 9.497267e-04 6.259871e-04 1.156154e-03 7.844922e-04 1.081120e-03 8.041681e-04 9.603770e-04 8.399605e-04 9.973219e-04 1.172698e-03 1.281722e-03 1.659677e-03 1.479753e-03 1.722247e-03 1.329180e-03 1.435680e-03 1.128906e-03 5.166259e-04 -8.574157e-05 -8.803026e-04 -1.520283e-03 -1.633524e-03 -1.679152e-03 -1.319117e-03 -1.150348e-03 -8.707325e-04 -9.654147e-04 -1.100636e-03 -2.017385e-03 -2.389390e-03 -2.933118e-03 -2.875888e-03 -2.404042e-03 -2.047144e-03 -1.064515e-03 -7.400675e-04 1.708839e-04 4.388016e-04 4.165237e-04 2.274621e-04 2.059222e-05 1.216596e-04 9.900121e-05 4.859980e-04 1.256345e-03 6.510331e-04 8.611633e-04 9.547775e-05 7.410357e-04 -3.839768e-04 -6.230178e-04 -6.126225e-04 -7.330505e-04 -8.722533e-04 -1.590804e-03 -7.001281e-04 -1.274461e-03 -8.277440e-04 -1.297621e-03 -8.815446e-04 -9.681502e-04 -5.393841e-04 -2.630147e-04 2.106623e-04 4.321842e-04 9.414117e-04 6.224110e-04 9.199735e-04 6.341057e-04 7.146472e-04 1.005837e-03 4.994876e-04 8.728397e-04 1.722041e-04 9.383204e-04 8.170507e-04 1.658588e-03 2.746474e-03 4.140744e-03 5.515969e-03 4.617715e-03 3.324625e-03 1.578899e-03 
-7.658631e-04 -3.980177e-03 -8.688632e-03 -1.092662e-02 -1.586476e-02 -8.584896e-03 1.766974e-03 -3.707519e-03 -2.270505e-03 -2.126029e-03 -2.794992e-03 -7.310717e-05 1.085587e-03 4.318770e-04 -8.632191e-04 -1.076071e-04 -1.007253e-03 -7.491186e-06 -1.046213e-03 -1.381145e-05 -9.456878e-04 -5.625140e-04 9.043837e-04 1.666529e-03 1.572838e-03 7.420105e-04 1.048194e-03 1.553539e-03 1.764199e-03 -4.694544e-04 -1.849372e-03 -2.332537e-03 6.856146e-04 4.622545e-04 1.031698e-03 1.867539e-03 3.775155e-03 3.067009e-03 1.211959e-03 1.167726e-03 1.950600e-03 7.247599e-04 -6.877880e-04 2.985805e-04 1.252206e-04 6.205112e-04 5.113800e-04 1.676924e-03 6.128539e-04 1.914424e-04 -2.871538e-04 -3.078816e-04 -1.046938e-03 -9.612220e-04 -1.071942e-03 -8.265235e-04 3.486343e-04 6.729020e-04 2.064310e-03 2.630360e-03 3.608624e-03 3.623657e-03 1.931131e-03 -1.084793e-04 -2.360708e-03 -4.038746e-03 -4.270607e-03 -3.323612e-03 -1.618632e-03 1.356406e-04 1.607447e-03 2.083388e-03 1.694214e-03 -8.888437e-04 -2.863869e-03 -5.081218e-03 -5.249911e-03 -4.416065e-03 -2.746296e-03 -2.840713e-05 8.058905e-04 2.898616e-03 2.760625e-03 1.465398e-03 7.100012e-05 -8.969874e-04 -1.001976e-03 -1.930415e-03 3.438485e-04 3.352700e-03 2.272147e-03 1.562468e-03 1.459291e-03 2.800846e-03 -8.826230e-04 -2.405934e-03 -1.321965e-03 7.571657e-05 -7.539394e-04 -2.458049e-03 -9.677567e-04 -1.103937e-03 -8.130196e-04 -2.268283e-03 -1.903855e-03 -1.824716e-03 -1.306972e-03 -7.229527e-04 2.222782e-05 1.128816e-03 2.341118e-03 1.487128e-03 1.580999e-03 3.020594e-04 6.917075e-04 1.329857e-03 7.233716e-04 7.803521e-04 -3.540181e-04 -1.006600e-04 3.719788e-04 5.316529e-04 2.719351e-03 1.022875e-02 1.345533e-02 1.035979e-02 6.914517e-03 3.161796e-03 
-8.539870e-04 -6.990412e-03 -1.452788e-02 -2.071985e-02 -2.300929e-02 -1.846152e-03 5.736564e-03 -4.323452e-03 -4.576041e-04 -9.850560e-04 -2.666158e-03 -9.056205e-04 1.886024e-03 2.111486e-04 -9.676738e-04 -1.608727e-05 -9.840265e-04 -3.083496e-04 -1.241423e-03 -2.067553e-05 -6.204299e-04 3.146789e-04 -1.555323e-04 -7.708219e-04 3.039573e-04 -1.480872e-04 4.586272e-04 6.906935e-04 1.663520e-03 -2.333624e-04 -8.407615e-04 -3.470408e-03 2.673930e-04 8.490041e-04 1.293477e-03 1.830713e-03 4.955395e-03 3.868576e-03 1.010242e-03 1.442386e-03 2.754505e-03 -2.315614e-05 -2.304378e-03 -1.039941e-03 -7.777379e-04 -1.296462e-04 -1.533027e-03 3.060322e-04 -8.842059e-04 -3.965262e-04 -1.893900e-03 -2.495876e-03 -3.766872e-03 -3.811042e-03 -3.276431e-03 -2.256870e-03 2.073320e-04 7.681777e-04 2.402277e-03 2.473825e-03 5.119284e-03 5.812116e-03 3.746735e-03 2.575348e-03 -1.356809e-03 -4.827645e-03 -3.756557e-03 -1.897802e-03 -2.242184e-04 2.303062e-03 3.640330e-03 5.212374e-03 4.360233e-03 -1.048478e-03 -3.535366e-03 -6.614592e-03 -6.211814e-03 -4.157899e-03 -3.165203e-03 -5.699380e-04 -1.805253e-04 4.157918e-03 6.271292e-03 3.768922e-03 9.759118e-04 -1.368441e-03 -9.223127e-04 -3.200740e-03 2.179735e-03 6.907320e-03 3.057935e-03 8.273723e-04 -5.635438e-04 5.218991e-03 -1.599333e-03 -4.111822e-03 -2.972954e-04 1.421256e-03 -3.642425e-03 -6.434817e-03 1.009780e-03 -4.507082e-04 -1.373656e-03 -3.026207e-03 -1.943487e-03 -2.824075e-03 -1.933006e-03 -1.582330e-04 1.004919e-03 2.488395e-03 3.980774e-03 1.218111e-03 1.978437e-03 8.531501e-05 1.355758e-03 3.489829e-03 8.071815e-04 3.389082e-04 -3.456887e-03 -8.505307e-05 -1.204663e-03 2.662139e-03 1.347415e-03 4.176504e-03 2.122453e-02 1.997274e-02 1.242779e-02 6.052789e-03 
-6.664788e-05 -6.197322e-03 -9.646634e-03 -1.601031e-02 -6.459122e-03 1.279163e-02 -2.122301e-03 -1.617161e-03 2.547484e-03 -1.758475e-04 -2.962515e-04 -5.865465e-03 -1.142278e-04 -1.578275e-03 -4.670195e-03 -9.629478e-04 -3.420759e-04 1.502264e-03 -9.431853e-04 2.451472e-03 -9.125220e-04 1.947488e-04 -1.946441e-03 -3.326827e-03 -1.526867e-03 -9.609978e-04 -1.464329e-04 -2.585753e-03 2.035007e-06 1.554976e-03 6.269347e-03 1.567973e-03 9.694052e-04 1.745277e-03 1.987514e-03 6.693442e-05 6.894072e-04 5.815600e-04 9.654929e-04 1.708037e-03 1.413870e-03 -1.529009e-05 -5.447655e-04 -8.200549e-04 -6.625557e-04 -1.037872e-04 -3.203248e-03 -2.186859e-03 -2.073845e-03 1.065999e-03 -8.002286e-04 -1.138858e-03 -1.383191e-03 -1.388992e-03 2.474314e-04 1.262130e-03 2.654506e-03 1.895737e-03 9.112904e-04 -1.874245e-03 -3.628611e-04 1.336149e-04 5.742664e-04 3.528292e-03 2.263220e-03 1.486114e-04 2.164715e-03 1.886177e-03 -6.114430e-05 -1.210062e-03 -3.331929e-03 -2.274964e-03 -2.521670e-03 -4.992790e-03 -3.398684e-03 -2.412620e-03 -8.141191e-04 1.203349e-03 -1.428841e-03 -3.447533e-03 -4.452593e-03 -1.731262e-03 3.247486e-03 2.974952e-03 2.671718e-03 1.152481e-03 2.666499e-03 1.477674e-03 4.200133e-03 4.483488e-03 -6.374590e-04 -1.286833e-03 -5.713168e-03 1.910699e-03 -1.208207e-03 -6.739987e-04 2.176820e-03 5.361198e-04 -5.458767e-03 -6.770400e-03 3.716268e-03 -7.289298e-05 -6.906942e-04 -6.408417e-04 1.668406e-03 -7.882785e-04 5.574526e-04 1.830149e-03 2.754690e-03 1.951604e-03 1.852406e-03 -9.684635e-04 5.032546e-04 8.975477e-04 1.497150e-03 4.354200e-03 -3.049990e-04 4.917747e-04 -4.938680e-03 2.460199e-03 -1.915808e-03 5.297284e-03 -2.870135e-04 -1.199641e-02 1.273825e-02 1.500251e-02 9.704818e-03 4.464776e-03 
8.918106e-04 -1.355090e-03 -3.109823e-04 -1.941048e-03 6.905559e-03 1.179988e-02 -7.006199e-03 1.962761e-03 1.972591e-03 1.062127e-03 6.518599e-04 -1.999153e-03 2.734034e-03 2.056215e-03 9.509677e-04 -3.102862e-03 1.422636e-03 -1.489797e-03 -2.319689e-03 -3.742931e-03 -3.235104e-03 -3.099733e-03 -4.345664e-03 -1.875879e-03 -2.345897e-03 -7.426041e-04 -7.475110e-04 -2.970058e-03 -9.545928e-04 1.537410e-03 6.602336e-03 4.001004e-03 1.152120e-03 1.386780e-03 1.335733e-03 -8.098544e-04 -2.548960e-03 -1.636936e-03 5.058590e-04 8.351461e-04 -6.248873e-04 1.242895e-04 8.792734e-04 -2.930599e-04 -7.099339e-04 -5.657274e-04 -2.740259e-03 -2.945919e-03 -2.320853e-03 4.390738e-04 -3.391995e-04 2.035665e-04 1.002186e-03 1.382693e-03 2.956217e-03 3.448860e-03 3.489752e-03 2.488799e-03 8.445826e-04 -1.923589e-03 -2.074252e-03 -1.813462e-03 2.197069e-04 3.662495e-03 5.548515e-03 6.076743e-03 6.853643e-03 4.946975e-03 1.800927e-03 -1.543569e-03 -5.057906e-03 -5.447273e-03 -5.508066e-03 -4.332678e-03 -1.525672e-03 1.062675e-03 2.083890e-03 2.123351e-03 -7.770396e-04 -4.446279e-03 -5.267623e-03 -5.675395e-03 -2.418712e-03 -5.610228e-04 1.411444e-03 1.906606e-03 2.932576e-03 3.716380e-03 2.131323e-03 -6.296367e-04 -3.174138e-03 -1.470186e-03 -5.122194e-03 -2.021014e-03 -5.277105e-04 1.986496e-03 1.802765e-03 -1.344429e-03 -2.753192e-03 -2.421369e-03 2.358587e-03 -6.380623e-04 1.021393e-04 9.537016e-04 2.601053e-03 9.416310e-04 1.786054e-03 1.603282e-03 1.883575e-03 -2.174913e-06 -8.241345e-04 -1.622816e-03 -4.964434e-04 1.167959e-03 7.415557e-04 2.110710e-03 -7.602864e-04 1.132253e-03 -1.725439e-03 3.554359e-03 -1.370881e-04 3.801476e-03 -9.595809e-04 -1.283653e-02 -3.462259e-04 2.361574e-03 2.749099e-03 1.239664e-03 
3.313065e-04 -4.558709e-04 4.055982e-04 3.964650e-04 3.156733e-03 3.679674e-03 -3.670742e-03 -9.246733e-04 -2.347536e-03 -4.315384e-03 -6.140334e-03 -1.008049e-02 -1.073697e-02 -1.007989e-02 -7.458903e-03 -3.608872e-03 -1.401049e-03 6.335002e-04 1.957251e-03 4.833184e-03 8.400457e-03 9.884249e-03 6.958565e-03 5.070432e-03 3.601378e-03 2.222723e-03 1.969199e-03 -1.860487e-04 1.403907e-03 1.469098e-03 3.348293e-03 1.727432e-03 1.163270e-03 1.742985e-03 1.265589e-03 -1.519097e-04 -1.081724e-03 6.307651e-04 1.124332e-03 7.120293e-04 2.255045e-04 1.311754e-03 1.241714e-03 5.303698e-04 6.157931e-04 8.600531e-04 2.038716e-04 1.253542e-04 8.671812e-04 2.356670e-03 2.635987e-03 4.165861e-03 5.120867e-03 5.811763e-03 6.887488e-03 6.472850e-03 5.244493e-03 3.022060e-03 7.985940e-04 -2.855830e-03 -3.794703e-03 -3.640995e-03 -4.337662e-03 -3.481993e-03 -1.858282e-03 -1.843668e-03 -2.688067e-03 -3.559055e-03 -4.165462e-03 -6.890412e-03 -8.461446e-03 -6.554619e-03 -5.049332e-03 -2.459212e-03 -4.708702e-04 1.071944e-03 1.770861e-03 1.068142e-03 5.636712e-04 -1.569424e-03 -1.336063e-03 -1.713530e-03 -8.729102e-04 5.070925e-04 1.521970e-03 2.077829e-03 1.642318e-03 2.309058e-03 1.342083e-03 8.027372e-05 -1.932023e-03 1.693415e-04 -8.902788e-04 -8.961881e-04 -6.889370e-04 9.183581e-04 1.364944e-03 -1.181969e-03 -1.172011e-03 -1.055966e-03 1.198696e-03 -4.291116e-04 -4.784089e-05 1.576266e-04 7.386758e-04 5.681704e-04 4.952575e-04 3.469999e-04 3.511508e-04 -3.368260e-04 -6.087443e-04 -9.867198e-04 -1.394004e-04 6.084315e-04 4.220578e-04 7.508305e-04 -8.091770e-04 6.082228e-04 -2.841726e-04 2.361771e-03 1.047179e-03 1.817120e-03 -2.073353e-04 -4.635401e-03 -1.081964e-03 -6.563722e-04 5.756699e-04 -3.215318e-05 
