# vtk DataFile Version 2.0
Comment goes here
ASCII

DATASET STRUCTURED_POINTS
FIELD FieldData 1
TIME 1 1 double
0.16000000
DIMENSIONS    128   16   1

ORIGIN    0.000   0.000   0.000
SPACING   0.0078125 0.015625   1.000

POINT_DATA   2048
SCALARS uY double
LOOKUP_TABLE default

2.797028e-05 3.566157e-05 2.842756e-05 3.888079e-05 3.486689e-05 4.470130e-05 4.005239e-05 2.856887e-05 1.358647e-05 1.590828e-05 -2.053195e-05 -4.469773e-05 -7.814941e-05 -9.617602e-05 -8.521359e-05 -1.116116e-04 -9.741822e-05 -1.463242e-04 -7.839485e-05 -1.020539e-04 -6.947287e-06 4.184368e-05 1.181442e-04 7.927597e-05 9.385703e-05 1.060568e-04 1.897022e-04 1.486078e-04 1.449634e-04 1.404508e-04 3.082047e-04 3.949137e-04 5.029818e-04 2.922333e-04 1.492298e-04 3.236482e-05 1.131119e-04 5.534029e-05 -2.768370e-05 -3.383274e-05 7.602812e-05 9.318786e-05 2.219608e-07 -2.081176e-05 8.604714e-05 3.684678e-04 5.104297e-04 6.441332e-04 8.600938e-04 1.411460e-03 1.951145e-03 2.527214e-03 2.867412e-03 3.381392e-03 3.523585e-03 3.418658e-03 2.665883e-03 1.404915e-03 5.413348e-04 6.366349e-06 -1.417592e-03 -1.579737e-03 -1.849274e-03 -1.877968e-03 -1.478244e-03 -2.251251e-03 -1.421310e-03 -2.249103e-03 -1.889378e-03 -2.312609e-03 -2.192884e-03 -1.454541e-03 -1.735736e-03 -8.896229e-04 -2.942072e-04 1.133049e-04 1.589549e-05 1.696474e-04 -9.669881e-05 -1.812455e-04 -2.866492e-04 -2.023441e-04 -4.008548e-04 -4.487584e-04 -4.789107e-04 -4.297757e-04 -4.435962e-04 -3.125281e-04 -1.717946e-04 -6.725786e-05 6.328302e-05 1.013780e-04 -3.896143e-06 -9.650652e-05 -1.945218e-05 9.234788e-07 -1.454486e-05 -2.173857e-05 1.124345e-04 1.415844e-04 1.460464e-04 1.187151e-04 7.274927e-05 2.119540e-06 -6.956555e-05 -1.310657e-04 -1.205121e-04 -1.130674e-04 -9.064752e-05 -1.650320e-04 -1.723605e-04 -1.763123e-04 -1.616859e-04 -1.603015e-04 -9.082913e-05 -9.392975e-06 6.312828e-05 1.653214e-04 2.106410e-04 2.799784e-04 3.180718e-04 2.322848e-04 1.429588e-04 1.143199e-04 6.939014e-05 6.375882e-05 3.880309e-05 4.158801e-05 
-1.059767e-03 -6.339797e-04 -3.080656e-03 -1.186552e-03 -4.943872e-03 3.664250e-03 4.452293e-03 -4.815939e-03 -1.443180e-03 -5.800325e-03 -5.657046e-03 -1.197748e-02 -1.631023e-02 -1.732108e-02 -6.870704e-03 -5.424419e-03 -2.262577e-03 1.703418e-03 3.713219e-03 8.054608e-03 1.729645e-02 1.704646e-02 1.049784e-02 6.637059e-03 3.723573e-03 2.693715e-03 1.761339e-03 1.644305e-03 5.187461e-04 4.147094e-04 9.135259e-05 1.062557e-03 9.789063e-04 9.056826e-04 -2.399605e-04 -4.118443e-05 -4.096784e-05 3.777615e-04 -3.978141e-04 -1.269658e-04 2.229483e-04 7.444633e-04 1.092723e-04 -3.917870e-04 -3.753518e-04 5.244457e-04 9.325796e-04 6.074927e-04 6.067989e-04 1.565939e-03 2.818218e-03 3.172990e-03 2.937547e-03 3.264879e-03 3.978895e-03 4.666008e-03 1.745564e-03 -1.679479e-03 4.931542e-03 4.426565e-03 -8.238255e-03 -2.694816e-03 5.786075e-03 -2.223205e-03 -6.652634e-03 2.167525e-03 4.724716e-03 -7.587614e-03 -2.661390e-03 5.737116e-03 8.820919e-04 -4.109260e-03 -6.906182e-03 -6.359996e-03 -4.380389e-03 -2.757830e-03 -1.261633e-03 -1.196327e-05 -2.329730e-04 -8.113930e-04 -1.716989e-04 2.088640e-04 -1.674973e-04 -6.604854e-04 -2.958537e-04 -3.198958e-04 -5.541011e-04 -2.975505e-04 -1.270258e-04 1.162976e-05 3.481548e-05 5.382834e-04 -3.309747e-04 -8.663023e-05 -6.675608e-05 7.074146e-04 -3.587678e-04 1.466315e-04 -6.766780e-05 5.543024e-04 -1.003879e-04 4.018535e-04 1.341068e-04 2.992085e-04 -3.341617e-05 -3.789172e-04 -2.330888e-05 -3.866889e-04 4.288183e-04 -6.008323e-04 4.675583e-04 -8.453628e-04 4.592874e-04 -1.257549e-03 6.302504e-04 -6.855445e-04 1.102797e-03 -5.405010e-05 9.505664e-04 8.867950e-04 7.628229e-04 3.461491e-03 -3.627099e-03 1.874835e-03 1.155972e-03 1.402809e-03 6.289025e-04 4.368613e-04 
-2.023132e-03 -1.986624e-03 -6.091754e-03 -4.336043e-03 -1.371683e-02 1.247516e-02 1.661569e-02 -9.934487e-03 2.581927e-03 -7.880299e-03 4.076649e-04 -1.100189e-02 -6.524726e-04 5.949605e-03 2.651378e-03 1.668470e-03 1.408201e-04 -3.048457e-04 -3.097244e-03 -1.780902e-03 -8.148202e-03 4.090146e-03 6.952882e-03 2.443489e-03 2.218571e-03 8.123064e-04 1.920337e-03 1.562078e-03 3.756141e-04 -2.251277e-04 -2.428814e-04 1.805911e-03 2.358002e-03 1.857452e-03 -7.471768e-04 -5.358586e-04 -8.417995e-05 7.769581e-04 -1.035119e-03 -5.486664e-04 6.060862e-04 1.681568e-03 2.078147e-04 -1.286691e-03 -1.385721e-03 5.466605e-04 1.340247e-03 -8.836066e-05 -7.343764e-04 6.192913e-04 2.776604e-03 2.197020e-03 3.672877e-04 6.928318e-04 3.346372e-03 4.302189e-03 -1.926997e-03 -6.284124e-03 6.103099e-03 8.152464e-03 -7.510893e-03 -1.186439e-03 7.605733e-03 -3.596680e-04 -4.847808e-03 4.340499e-03 8.784168e-03 -6.648827e-03 -2.205992e-04 9.268897e-03 2.272717e-03 -1.745362e-03 -4.340130e-03 -4.910203e-03 -5.635258e-03 -5.891983e-03 -3.686832e-03 -1.015613e-03 -1.350756e-03 -2.768862e-03 -7.324781e-04 3.586355e-04 -5.068425e-04 -1.658039e-03 -5.370795e-04 -6.450327e-04 -1.258446e-03 -7.393474e-04 -3.622020e-04 -2.187953e-04 1.147003e-04 1.206184e-03 -8.474319e-04 -3.985968e-04 -1.077013e-04 1.471833e-03 -1.058555e-03 -9.950850e-05 -2.496681e-04 1.164592e-03 -3.038389e-04 7.863987e-04 2.926748e-04 7.195371e-04 -1.422372e-04 -8.222975e-04 -1.100766e-04 -6.465978e-04 1.019492e-03 -1.062017e-03 1.112077e-03 -1.519307e-03 8.763810e-04 -2.735525e-03 1.286675e-03 -1.720116e-03 2.382296e-03 -5.191211e-04 2.281596e-03 9.123956e-04 2.047017e-03 5.339584e-03 -1.324694e-02 6.864047e-03 5.563280e-03 3.925334e-04 1.138368e-03 -3.837019e-04 
-1.994753e-03 -4.411502e-03 -1.059763e-02 -1.403813e-02 -3.089225e-02 2.232334e-03 1.110180e-02 -3.669685e-03 5.437147e-03 -4.728755e-04 4.864470e-03 2.913239e-03 4.759018e-03 -4.959616e-03 1.303809e-03 -2.278309e-03 1.151359e-03 -1.555296e-03 1.838536e-03 -9.436527e-04 3.044941e-03 -3.514307e-03 -3.873612e-03 -2.301713e-03 -2.625417e-03 -1.252292e-03 -1.324945e-03 -5.550306e-04 -1.644857e-03 -4.533452e-05 -8.870800e-04 1.105719e-03 9.288209e-04 1.756423e-03 -7.456746e-04 1.770310e-04 -6.417273e-04 6.450336e-04 -1.329795e-03 -1.119526e-04 -3.483384e-04 3.144572e-04 -6.131991e-04 -1.926197e-04 -8.398441e-04 2.190560e-05 -1.053106e-04 -5.123360e-04 -5.387631e-04 -3.646733e-04 3.842264e-04 -2.594153e-04 -1.844077e-03 -1.787075e-03 -3.643843e-04 -8.899895e-04 2.005600e-04 3.112175e-03 -1.476733e-03 -2.245642e-03 3.807815e-03 -8.136216e-04 -6.386605e-03 -1.005422e-03 3.305639e-03 -3.565934e-03 -3.493136e-03 3.005238e-03 -2.586670e-04 -4.720875e-03 -7.201932e-04 4.770599e-04 1.717310e-03 3.850479e-03 2.351162e-03 9.250708e-04 4.925764e-04 7.890059e-04 1.040287e-03 -1.213993e-04 1.167154e-03 4.339726e-04 2.881838e-04 -5.822128e-04 2.672173e-04 -4.257953e-04 -5.412150e-04 -4.273266e-04 -6.223442e-04 -1.546676e-04 3.959794e-04 1.655518e-03 -1.653349e-04 1.229315e-03 -5.043825e-04 8.550206e-04 -1.744450e-03 1.290329e-04 -9.161048e-04 1.643765e-03 -3.511847e-04 1.137819e-03 -3.526836e-04 5.923176e-04 -4.469472e-04 -4.704984e-04 -1.284527e-05 -9.816051e-04 8.947272e-04 -1.715856e-03 1.472480e-03 -1.970524e-03 1.374496e-03 -2.962344e-03 2.280904e-03 -3.306369e-03 2.825589e-03 -1.668592e-03 3.510520e-03 -6.561722e-04 1.678019e-03 9.951073e-04 -1.193420e-02 3.560650e-02 2.231820e-02 5.926602e-03 5.461456e-03 8.646791e-04 
-1.343786e-03 -5.574587e-03 -8.339452e-03 -1.526495e-02 -2.341800e-02 -2.119027e-02 -1.298990e-02 5.241424e-04 -2.421189e-04 -2.901547e-03 1.128419e-04 -4.952607e-03 -1.143748e-03 -4.696196e-04 2.503976e-04 -6.491705e-04 4.565428e-04 -5.220370e-04 5.826855e-04 -1.129674e-04 5.705627e-04 1.244329e-03 2.953680e-03 6.399515e-04 2.422739e-03 6.521585e-04 5.247080e-04 -1.048863e-03 1.765418e-04 1.440364e-03 8.977351e-04 -2.135050e-04 -1.129318e-03 3.191947e-04 6.386793e-04 1.513856e-03 -5.083811e-04 7.751131e-05 -2.764798e-04 8.226061e-04 -1.479428e-03 -1.854223e-03 -1.231881e-03 1.707320e-03 8.502998e-04 -4.802637e-04 -1.804138e-03 3.307339e-05 1.114096e-03 -4.251764e-05 -1.715721e-03 -1.077020e-03 -1.949381e-04 2.911165e-05 -7.899043e-04 -8.092376e-05 2.438146e-03 2.315997e-03 1.245437e-03 -9.009191e-04 -1.741439e-03 2.018139e-05 2.049886e-03 -1.186453e-03 -1.347506e-03 1.814192e-03 1.141582e-03 -2.523773e-05 1.203189e-03 2.874486e-03 6.950066e-04 4.973237e-04 -5.822465e-04 -3.890113e-03 -1.938384e-03 4.247681e-04 -2.533436e-04 -2.018051e-03 1.843324e-04 1.265146e-03 8.746845e-04 -1.494002e-03 1.093569e-04 5.845153e-04 4.778313e-04 -2.892572e-04 6.443060e-04 1.474048e-04 -5.803818e-04 5.696007e-05 9.615671e-05 5.979642e-04 7.330000e-04 2.446445e-03 -8.677676e-04 -6.513883e-04 -1.192032e-03 6.537141e-04 -1.285526e-03 7.968780e-04 -4.179383e-04 6.224986e-04 -1.195906e-03 -1.746573e-04 -5.833298e-04 4.111353e-04 1.125905e-04 -7.556330e-04 -8.754543e-05 -1.327504e-03 7.838880e-04 -1.153613e-03 1.296787e-03 -7.221526e-04 2.141170e-03 -2.381109e-03 1.519501e-03 -1.425478e-03 2.647595e-03 -8.496436e-04 1.158395e-03 -1.479696e-03 8.246984e-03 4.285747e-02 2.241081e-02 9.108815e-03 5.724114e-03 1.230320e-03 
-6.756093e-04 -2.267779e-03 -3.289966e-03 -5.686677e-03 -6.134594e-03 -1.533556e-02 -1.396307e-02 -3.894201e-04 -3.926574e-03 -4.995818e-03 -3.702952e-03 -1.000534e-02 -4.916520e-03 -2.941880e-04 3.035391e-04 -6.293725e-04 4.739743e-04 -5.476118e-04 5.636019e-04 -2.223415e-04 3.730944e-04 6.268046e-03 7.626627e-03 3.041525e-03 3.886910e-03 1.593067e-03 1.183873e-03 -5.380143e-05 6.395068e-04 1.193467e-03 6.693460e-04 -1.999566e-04 -1.207487e-03 -7.331257e-05 4.254532e-04 1.173213e-03 -3.274055e-04 1.016543e-04 4.731155e-05 7.551771e-04 -9.850125e-04 -1.006369e-03 -5.972897e-04 1.436361e-03 9.434801e-04 1.921250e-04 -5.984587e-04 1.017509e-03 1.852851e-03 1.544878e-03 6.862646e-04 1.925663e-03 3.594356e-03 4.594879e-03 4.942058e-03 6.476592e-03 1.504152e-03 -7.136349e-03 2.401753e-03 5.144279e-03 -5.163176e-03 1.143793e-03 6.618625e-03 -1.047951e-03 -4.444669e-03 3.557575e-03 5.165146e-03 -5.393786e-03 1.381947e-03 5.826860e-03 -3.893587e-03 -9.296383e-04 -2.109348e-03 -8.458278e-03 -6.659808e-03 -4.052580e-03 -3.278427e-03 -3.846376e-03 -1.757348e-03 -4.450203e-04 -5.545211e-04 -1.721232e-03 -3.243112e-04 1.768078e-04 6.527182e-05 -2.049220e-04 4.986290e-04 1.909220e-04 -2.018168e-04 2.120026e-04 -1.336823e-04 6.931502e-05 4.147106e-04 1.416470e-03 -5.592294e-04 -3.784504e-04 -4.288505e-04 6.354294e-04 -7.773674e-04 1.958918e-04 -3.976400e-04 1.954895e-04 -8.091111e-04 -2.445271e-04 -3.113621e-04 3.117783e-04 1.152884e-04 -4.013066e-04 -1.435327e-04 -6.399515e-04 3.849598e-04 -5.119492e-04 9.242064e-04 1.076665e-04 1.303154e-03 -5.849890e-04 8.982611e-04 -4.748490e-05 1.520383e-03 1.065292e-03 1.687006e-03 2.227292e-03 1.083265e-02 1.719484e-02 6.511983e-03 5.793843e-03 2.358088e-03 1.456793e-03 
-6.936506e-04 -2.006263e-03 -3.023214e-03 -4.329583e-03 -4.846204e-03 -6.007399e-03 -6.126645e-03 -4.931424e-03 -4.972532e-03 -7.341928e-03 -6.203674e-03 -1.245847e-02 -1.069763e-02 -1.938440e-04 5.734455e-05 -1.890007e-04 1.539256e-04 -1.289156e-04 2.109164e-04 -3.298844e-06 2.416996e-04 1.156114e-02 1.206466e-02 4.680927e-03 5.301865e-03 2.063797e-03 2.612174e-03 9.360770e-04 1.375645e-03 7.468426e-04 7.866524e-04 4.108412e-04 2.391459e-04 3.963008e-04 2.425846e-04 5.133150e-04 3.121652e-05 3.437639e-04 -3.103034e-05 3.477606e-04 -1.831753e-04 1.496476e-04 -4.886197e-06 6.426328e-04 4.323834e-04 7.078065e-04 5.938066e-04 1.203385e-03 1.504914e-03 1.981314e-03 2.321283e-03 3.162882e-03 3.972423e-03 4.857749e-03 5.853891e-03 6.725836e-03 4.325416e-03 -1.518122e-03 -6.425391e-04 2.235520e-03 9.786292e-04 3.235594e-04 -2.185611e-04 9.950543e-05 -3.201259e-04 -1.230241e-03 -1.335121e-04 -1.231336e-03 -7.723359e-04 -1.976279e-03 -4.820627e-03 -3.118048e-03 -3.032734e-03 -4.138655e-03 -3.739044e-03 -3.408779e-03 -2.839735e-03 -2.612651e-03 -1.679488e-03 -1.337652e-03 -8.193363e-04 -9.633585e-04 -4.189157e-04 -4.150352e-04 -1.598116e-04 -2.343872e-04 -1.790455e-05 -4.168042e-05 -9.396690e-05 1.093104e-04 -3.541625e-05 2.656141e-04 1.744793e-06 4.941422e-04 -2.534623e-04 1.724790e-04 -3.849017e-04 2.419447e-04 -4.481868e-04 2.052554e-04 -3.744803e-04 1.268325e-04 -3.965964e-04 -3.424351e-05 -2.534846e-04 -7.605930e-05 -5.569629e-05 -2.957435e-04 7.582806e-05 -4.282943e-04 3.522772e-04 -4.106711e-04 6.346930e-04 -3.018343e-04 9.080576e-04 -2.606217e-04 1.084999e-03 2.600047e-04 1.513983e-03 1.319753e-03 2.157257e-03 3.269774e-03 3.842827e-03 7.162728e-03 3.906155e-03 3.745545e-03 1.720832e-03 7.296951e-04 
-2.121981e-04 -6.594959e-04 -1.040112e-03 -1.743599e-03 -1.888370e-03 -2.804499e-03 -2.905135e-03 -2.404365e-03 -2.634228e-03 -3.600999e-03 -3.061542e-03 -6.154745e-03 -5.112584e-03 -8.584085e-05 6.147265e-05 -1.211570e-04 1.162693e-04 -1.007147e-04 1.356239e-04 -2.620515e-05 1.180625e-04 5.887297e-03 6.061942e-03 2.254574e-03 2.502435e-03 9.524385e-04 1.155458e-03 4.340212e-04 5.837549e-04 3.502530e-04 3.160878e-04 2.027779e-04 7.795739e-05 2.190728e-04 1.494318e-04 3.368597e-04 1.122276e-04 2.937271e-04 1.268103e-04 3.327638e-04 9.642135e-05 3.077122e-04 2.654206e-04 6.311675e-04 5.920551e-04 8.139850e-04 8.338068e-04 1.231854e-03 1.455795e-03 1.807063e-03 2.056503e-03 2.535126e-03 2.949046e-03 3.235192e-03 3.363976e-03 3.308954e-03 2.837853e-03 1.012297e-03 1.035806e-03 1.083777e-03 -7.989880e-05 4.983131e-04 9.338611e-04 1.660394e-04 -2.231620e-04 2.032640e-04 4.277415e-04 -9.783387e-04 -6.663887e-04 -4.620957e-04 -1.798743e-03 -1.808119e-03 -2.634406e-03 -3.412566e-03 -3.550785e-03 -3.467929e-03 -3.098287e-03 -2.789110e-03 -2.159796e-03 -1.764041e-03 -1.348043e-03 -1.216113e-03 -8.254438e-04 -6.746539e-04 -4.573295e-04 -3.901517e-04 -2.145822e-04 -1.645532e-04 -1.357529e-04 -2.111964e-05 -5.745390e-05 7.809765e-05 2.992667e-06 2.041866e-04 -8.721895e-05 7.402818e-05 -1.429554e-04 9.013897e-05 -2.063529e-04 3.019188e-05 -2.028167e-04 -1.393605e-05 -2.195841e-04 -7.383615e-05 -1.515997e-04 -6.827222e-05 -6.440885e-05 -1.379607e-04 -3.258723e-06 -1.559610e-04 1.368602e-04 -9.606443e-05 2.980166e-04 1.724541e-05 4.318010e-04 7.713630e-05 5.211451e-04 3.042630e-04 7.464290e-04 7.469473e-04 1.147380e-03 1.473177e-03 1.949846e-03 2.636908e-03 1.476088e-03 1.603304e-03 6.317936e-04 4.464432e-04 
-7.904692e-07 -7.045119e-06 -6.113597e-06 -1.255955e-05 -9.760664e-06 -1.602829e-05 -1.175742e-05 -1.772095e-05 -1.427223e-05 -1.902241e-05 -1.023416e-05 -1.657567e-05 -4.397596e-06 1.169843e-05 7.504164e-06 1.330061e-05 1.059763e-05 1.870777e-05 1.507997e-05 2.409629e-05 1.386468e-05 -1.003874e-04 -4.446466e-05 -7.018922e-05 -2.526317e-05 -3.840608e-05 -1.117633e-05 -1.163347e-05 3.448819e-05 5.474558e-05 9.465095e-05 9.812442e-05 1.433988e-04 1.609540e-04 2.053970e-04 2.048813e-04 2.210485e-04 2.149420e-04 2.406450e-04 2.482734e-04 2.812226e-04 3.207283e-04 4.051327e-04 5.052827e-04 6.125830e-04 7.368812e-04 8.949873e-04 1.093309e-03 1.320074e-03 1.556511e-03 1.833397e-03 2.116119e-03 2.399089e-03 2.548442e-03 2.634437e-03 2.458108e-03 2.144354e-03 1.351665e-03 1.112553e-03 9.870492e-04 6.494656e-04 4.391791e-04 1.957734e-04 -1.826069e-05 -2.089462e-04 -5.463970e-04 -5.983013e-04 -9.962877e-04 -1.204968e-03 -1.461281e-03 -1.962918e-03 -1.911551e-03 -2.199591e-03 -2.252415e-03 -2.335685e-03 -2.146212e-03 -2.003612e-03 -1.695262e-03 -1.472767e-03 -1.177923e-03 -1.004147e-03 -8.084575e-04 -6.721978e-04 -5.250897e-04 -4.222300e-04 -3.289866e-04 -2.312558e-04 -1.615870e-04 -7.858094e-05 -2.955979e-05 3.786215e-05 4.969763e-05 8.490163e-05 7.112267e-05 6.386071e-05 1.327380e-05 1.095657e-05 -3.247295e-05 -3.841866e-05 -6.738728e-05 -6.125889e-05 -8.568705e-05 -9.362984e-05 -1.187254e-04 -1.213315e-04 -1.299933e-04 -1.226162e-04 -1.229118e-04 -1.015326e-04 -8.986896e-05 -5.797060e-05 -3.225546e-05 -8.640193e-07 2.739887e-05 4.615731e-05 5.378168e-05 5.891923e-05 7.019169e-05 6.142958e-05 7.330519e-05 4.649120e-05 5.308602e-05 3.241521e-05 2.987659e-05 1.737796e-05 1.241732e-05 6.656657e-06 8.509670e-07 
2.173162e-04 6.505360e-04 1.031191e-03 1.720893e-03 1.868560e-03 2.773067e-03 2.880380e-03 2.375385e-03 2.606173e-03 3.569865e-03 3.056190e-03 6.148265e-03 5.139763e-03 1.025289e-04 -5.153834e-05 1.362704e-04 -9.970111e-05 1.300048e-04 -1.008801e-04 7.421886e-05 -8.630896e-05 -6.066495e-03 -6.230460e-03 -2.330956e-03 -2.562641e-03 -9.644471e-04 -1.223760e-03 -4.463236e-04 -5.187798e-04 -1.804846e-04 -1.457803e-04 -6.053839e-05 1.121636e-04 9.948993e-05 3.160217e-04 1.537403e-04 3.482974e-04 1.506834e-04 3.867819e-04 1.808530e-04 4.090107e-04 2.498470e-04 5.074655e-04 3.904359e-04 5.934026e-04 5.182648e-04 7.652630e-04 7.962165e-04 1.009201e-03 1.035623e-03 1.259749e-03 1.393171e-03 1.620783e-03 1.636935e-03 1.694590e-03 1.545024e-03 1.439611e-03 1.042167e-03 8.756510e-04 7.098989e-04 5.162815e-04 3.835015e-04 2.509469e-04 5.412427e-05 -4.005159e-05 -1.992968e-04 -2.936292e-04 -5.254403e-04 -6.649048e-04 -7.767987e-04 -1.184570e-03 -1.190935e-03 -1.516369e-03 -1.480828e-03 -1.709053e-03 -1.498292e-03 -1.573936e-03 -1.308996e-03 -1.371758e-03 -1.058497e-03 -1.064816e-03 -7.998677e-04 -8.040317e-04 -5.647306e-04 -5.340431e-04 -3.953826e-04 -3.170277e-04 -2.195874e-04 -8.778513e-05 -9.086921e-05 8.619658e-05 -2.146555e-05 1.852090e-04 6.267156e-06 2.383847e-04 -5.972134e-05 1.753475e-04 -1.467312e-04 9.376250e-05 -2.013482e-04 7.055500e-05 -1.587752e-04 3.164284e-05 -1.599805e-04 -6.762929e-05 -1.491761e-04 -1.439997e-04 -8.095640e-05 -1.735778e-04 2.020321e-05 -1.939913e-04 1.027181e-04 -2.168453e-04 1.432302e-04 -2.480038e-04 8.008382e-05 -3.713071e-04 -1.568189e-04 -6.264283e-04 -6.178761e-04 -1.106725e-03 -1.390371e-03 -1.887484e-03 -2.577335e-03 -1.432963e-03 -1.572195e-03 -6.093760e-04 -4.378389e-04 
6.835546e-04 1.982613e-03 3.004252e-03 4.296273e-03 4.820195e-03 5.968512e-03 6.105298e-03 4.894067e-03 4.917178e-03 7.288578e-03 6.177059e-03 1.244573e-02 1.071282e-02 2.006694e-04 -5.601927e-05 2.003005e-04 -1.382856e-04 1.664042e-04 -1.589459e-04 8.485193e-05 -1.768878e-04 -1.188736e-02 -1.226757e-02 -4.827906e-03 -5.328579e-03 -2.122901e-03 -2.765452e-03 -1.120086e-03 -1.363863e-03 -5.434786e-04 -5.510512e-04 -2.931633e-04 -5.827389e-06 2.805226e-06 3.569558e-04 3.506299e-05 3.963376e-04 -6.952044e-06 4.293840e-04 -3.989648e-06 4.177497e-04 4.813950e-05 4.829243e-04 1.793260e-04 4.918982e-04 2.657406e-04 6.217766e-04 5.397032e-04 7.310274e-04 6.125343e-04 8.369352e-04 1.007286e-03 1.267964e-03 1.291989e-03 1.334952e-03 1.244511e-03 1.124143e-03 7.908038e-04 5.894605e-04 4.687464e-04 3.852184e-04 1.345333e-04 -6.610521e-05 -2.297769e-04 -2.475178e-04 -4.216925e-04 -4.917339e-04 -5.862524e-04 -7.204219e-04 -8.467889e-04 -1.152034e-03 -9.869179e-04 -1.118147e-03 -8.102795e-04 -1.033750e-03 -6.102111e-04 -8.246225e-04 -4.618883e-04 -8.112256e-04 -4.031234e-04 -6.806804e-04 -3.557913e-04 -6.369980e-04 -3.169636e-04 -4.740959e-04 -3.300169e-04 -3.089979e-04 -1.536865e-04 7.198301e-05 3.649365e-05 3.848134e-04 6.162767e-05 4.365358e-04 -3.867562e-05 5.056890e-04 -1.957893e-04 3.924797e-04 -3.503755e-04 2.643068e-04 -4.079730e-04 2.889357e-04 -2.394279e-04 1.912760e-04 -2.897525e-04 -9.508471e-05 -2.582142e-04 -2.798120e-04 -5.407180e-05 -3.683472e-04 1.507258e-04 -5.224284e-04 3.376017e-04 -5.963134e-04 4.900887e-04 -6.779047e-04 4.087918e-04 -9.261239e-04 -6.721896e-05 -1.322901e-03 -1.081960e-03 -2.070005e-03 -3.152650e-03 -3.772924e-03 -7.123703e-03 -3.886577e-03 -3.743044e-03 -1.720154e-03 -7.425681e-04 
6.675499e-04 2.243261e-03 3.268073e-03 5.643584e-03 6.091870e-03 1.526150e-02 1.393274e-02 3.783181e-04 3.792865e-03 4.856142e-03 3.655878e-03 1.015233e-02 5.110986e-03 2.624829e-04 -3.548200e-04 5.814720e-04 -5.035679e-04 5.587106e-04 -4.461436e-04 3.216713e-04 -1.717849e-04 -6.757579e-03 -8.375241e-03 -3.017037e-03 -3.493902e-03 -1.356253e-03 -1.828469e-03 -6.925897e-04 -4.589706e-04 -1.767838e-04 -1.496675e-04 -4.724775e-04 3.731555e-04 4.133442e-04 1.176870e-03 2.085774e-04 5.649795e-04 -1.181925e-04 7.173318e-04 -1.173487e-04 4.235673e-04 -8.663563e-05 8.048484e-04 2.086871e-04 2.562627e-04 -3.755400e-04 4.024582e-04 5.009766e-04 5.047903e-04 -2.727728e-04 -1.047763e-04 4.885144e-04 1.108843e-03 9.520600e-04 8.844825e-04 1.018957e-03 9.596996e-04 2.027119e-04 -1.404627e-04 3.679637e-04 8.508533e-04 4.384784e-04 -1.746003e-04 -2.391380e-04 1.275763e-04 -1.383767e-04 -3.610316e-04 -1.717883e-04 1.778583e-04 -1.771754e-04 -1.104875e-03 -8.819191e-04 -7.307923e-04 -3.662170e-04 -9.126613e-04 -1.763838e-04 -2.568802e-04 -1.089122e-04 -1.088409e-03 -4.819373e-04 -6.825467e-04 -3.592334e-04 -8.771890e-04 -2.373363e-04 -4.346533e-04 -4.557904e-04 -4.940658e-04 -1.062660e-04 1.667250e-04 6.416079e-05 5.193926e-04 3.673429e-05 5.441733e-04 1.758055e-04 1.024860e-03 -1.134176e-04 5.666525e-04 -5.165452e-04 1.595634e-04 -8.251716e-04 4.063020e-04 -1.311978e-04 5.240954e-04 -2.964958e-04 -7.512193e-05 -4.612502e-04 -4.113961e-04 -1.570416e-04 -3.819880e-04 2.703959e-04 -5.178830e-04 4.695280e-04 -7.022229e-04 6.844441e-04 -5.669223e-04 7.705572e-04 -7.665613e-04 2.250685e-04 -1.210138e-03 -8.363726e-04 -2.063898e-03 -2.244285e-03 -1.060134e-02 -1.710060e-02 -6.450273e-03 -5.778885e-03 -2.346319e-03 -1.467337e-03 
1.318083e-03 5.535683e-03 8.303542e-03 1.520427e-02 2.334878e-02 2.115124e-02 1.312765e-02 -5.225016e-04 -5.928611e-05 2.694203e-03 -1.700045e-04 5.121809e-03 1.281904e-03 3.546750e-04 -3.135999e-04 5.696274e-04 -5.234801e-04 4.954517e-04 -4.192449e-04 4.114707e-04 -1.464207e-04 -2.321574e-03 -4.046509e-03 -4.876680e-04 -1.603614e-03 -1.671955e-06 -1.560439e-03 -8.862828e-04 -6.738481e-04 7.045278e-05 8.701795e-05 -5.334204e-04 7.122579e-04 7.138023e-04 1.536769e-03 1.620728e-04 7.807465e-04 -3.214949e-04 6.996557e-04 -4.031631e-04 4.022582e-04 -4.863788e-04 5.486501e-04 -9.619566e-05 9.121495e-05 -5.661547e-04 4.461420e-04 5.129311e-04 1.998293e-05 -1.335611e-03 -1.255943e-03 6.054996e-05 9.488298e-04 8.026756e-04 5.762748e-04 8.313571e-04 6.102665e-04 -4.062386e-04 -7.952340e-04 3.043528e-04 1.199407e-03 3.901921e-04 -4.688820e-04 -4.296495e-04 2.808645e-04 1.968847e-04 4.509576e-04 7.829335e-04 7.496818e-04 -2.411087e-04 -1.382029e-03 -9.056895e-04 -3.840895e-04 1.574436e-04 -5.805320e-04 5.067953e-04 3.191536e-04 6.512449e-04 -6.595111e-04 3.080314e-04 -2.634918e-04 2.682390e-05 -1.092046e-03 -7.817709e-05 -7.239822e-04 -1.095185e-03 -1.245119e-03 -3.132304e-04 4.325402e-04 7.514003e-04 1.776622e-03 6.346646e-04 7.864722e-04 -9.971825e-05 1.456744e-03 -4.950471e-04 8.475785e-04 -1.079468e-03 9.209990e-05 -1.479272e-03 1.171290e-03 3.560852e-04 1.102817e-03 -8.482238e-04 -4.625758e-04 -1.001069e-03 -7.734976e-04 9.373618e-05 -4.043567e-04 4.426255e-04 -1.441410e-03 8.797834e-04 -1.168726e-03 1.983890e-03 -8.987826e-04 2.291751e-03 -1.643724e-03 1.687365e-03 -1.990341e-03 1.841360e-03 -1.100666e-03 1.488161e-03 -8.215270e-03 -4.301203e-02 -2.248057e-02 -9.180327e-03 -5.753306e-03 -1.271386e-03 
1.953001e-03 4.386447e-03 1.057984e-02 1.403122e-02 3.088698e-02 -2.103790e-03 -1.077760e-02 3.691037e-03 -5.610740e-03 5.123935e-04 -4.852358e-03 -3.002148e-03 -5.058067e-03 4.709660e-03 -1.337515e-03 2.115053e-03 -1.449590e-03 1.639254e-03 -1.409643e-03 9.007772e-04 -4.133914e-03 3.005023e-03 4.106526e-03 2.566855e-03 2.998555e-03 1.796660e-03 1.469814e-03 -5.366106e-04 5.554755e-04 2.055959e-04 1.829186e-03 3.398688e-04 1.855387e-03 1.147697e-04 1.045726e-03 -3.063562e-04 1.326993e-03 -3.258814e-04 4.629505e-04 -5.622516e-04 5.251966e-04 -7.672544e-04 -5.100255e-04 -7.919950e-04 2.067277e-04 3.390896e-04 4.320125e-04 -6.658081e-05 -6.146060e-04 -8.028597e-04 -8.586724e-04 -5.323489e-05 -4.411817e-05 3.687635e-04 2.361605e-04 2.647547e-04 -1.252450e-04 7.837126e-06 5.890621e-05 2.107004e-04 1.106829e-04 -3.626692e-04 -1.428027e-04 -1.555190e-04 9.760934e-05 5.068064e-04 1.584835e-03 1.307593e-03 -3.781934e-05 -9.351213e-04 -7.522869e-04 -3.559840e-04 -3.508372e-04 1.128867e-04 -8.781878e-05 4.906932e-04 -2.514950e-04 7.966763e-04 5.858729e-04 1.420748e-03 1.869422e-04 5.644697e-04 -6.199424e-04 -5.723157e-05 -1.061272e-03 -1.209534e-03 -1.304030e-03 -5.719616e-04 5.199023e-04 1.157985e-03 2.547951e-03 1.039579e-03 9.685255e-04 -9.851546e-04 7.604808e-04 -1.202085e-03 9.237337e-04 -1.256605e-03 6.641967e-04 -1.014426e-03 1.729695e-03 3.875663e-04 8.876640e-04 -1.150180e-03 -7.407532e-04 -6.881241e-04 -8.357983e-04 8.594346e-04 -6.993026e-04 7.732778e-04 -2.524715e-03 1.465127e-03 -1.757510e-03 3.076614e-03 -1.876045e-03 3.065353e-03 -2.867175e-03 2.303674e-03 -2.555549e-03 2.561414e-03 1.597218e-04 -3.540907e-04 1.163505e-02 -3.597956e-02 -2.256182e-02 -6.084756e-03 -5.557493e-03 -9.295304e-04 
2.032464e-03 2.021060e-03 6.124498e-03 4.402248e-03 1.378732e-02 -1.230259e-02 -1.640820e-02 9.979650e-03 -2.522147e-03 8.096265e-03 -3.686460e-04 1.086012e-02 2.762973e-04 -6.293321e-03 -2.796659e-03 -1.814442e-03 -4.596234e-04 -3.015880e-04 2.726108e-03 1.185704e-03 7.937089e-03 -3.577879e-03 -6.103374e-03 -2.205938e-03 -2.506453e-03 -7.017629e-04 -1.017390e-03 -1.054085e-03 -8.684982e-04 -5.221588e-04 6.851329e-04 3.512926e-04 8.366254e-04 -5.962800e-04 -1.959599e-04 -5.470801e-04 6.986593e-04 -2.295537e-04 3.720543e-06 -3.914019e-04 2.551142e-04 -4.937855e-04 -7.849997e-04 -7.345522e-04 2.007956e-04 7.200213e-04 2.040470e-04 -2.977111e-04 -3.568462e-04 5.279118e-04 4.995042e-04 4.414498e-04 -1.152077e-04 5.149649e-04 5.530230e-04 4.221342e-04 9.304244e-05 7.960522e-04 9.015817e-04 7.784130e-05 -7.903095e-04 -7.690013e-04 1.652207e-06 -1.488787e-04 -2.974870e-04 -7.474069e-05 8.250464e-04 1.770736e-04 -9.588840e-04 -1.146575e-03 -1.740639e-04 3.148108e-05 -3.668453e-04 -1.925487e-05 2.072806e-04 2.372899e-04 -5.602931e-04 4.203064e-04 8.199656e-04 1.142262e-03 9.337921e-05 4.753190e-04 -1.215473e-04 -1.432353e-04 -7.930069e-04 -4.968275e-04 -5.120014e-04 -4.235043e-04 1.769647e-04 4.666061e-04 1.250937e-03 4.436154e-04 6.402910e-04 -9.584108e-04 -2.199065e-05 -9.952233e-04 5.455139e-04 -6.837914e-04 8.526209e-04 -1.478415e-04 9.983513e-04 -1.654343e-04 1.619802e-04 -6.463361e-04 -3.867246e-04 -5.602013e-05 -4.493175e-04 7.024010e-04 -7.647475e-04 5.687277e-04 -1.810655e-03 1.064353e-03 -1.443150e-03 1.857077e-03 -1.817077e-03 1.620671e-03 -2.217950e-03 1.086949e-03 -1.688891e-03 3.338411e-04 -2.313537e-04 -4.553015e-03 1.312158e-02 -6.950703e-03 -5.640072e-03 -4.084643e-04 -1.154500e-03 3.965585e-04 
1.104780e-03 6.926108e-04 3.128947e-03 1.257173e-03 5.012431e-03 -3.561940e-03 -4.365355e-03 4.861624e-03 1.488716e-03 5.892235e-03 5.629371e-03 1.188407e-02 1.608939e-02 1.712166e-02 6.730002e-03 5.309441e-03 2.066328e-03 -1.977844e-03 -3.997350e-03 -8.231655e-03 -1.738213e-02 -1.679222e-02 -1.011911e-02 -6.507888e-03 -3.757876e-03 -2.592719e-03 -1.198311e-03 -1.161730e-03 -3.635345e-04 -4.869974e-04 4.569484e-04 1.604498e-04 6.604339e-04 -1.623389e-04 1.898465e-04 -1.913730e-04 4.388574e-04 -7.686361e-05 1.302960e-04 -1.647639e-04 1.865988e-04 -1.407018e-04 -1.866140e-04 -2.338592e-04 1.676436e-04 4.373696e-04 3.245062e-04 2.458387e-04 3.630223e-04 9.931414e-04 1.177219e-03 1.389205e-03 1.299937e-03 1.814636e-03 1.901374e-03 1.869613e-03 1.434435e-03 1.137649e-03 9.776192e-04 2.338045e-04 -1.272689e-03 -1.052682e-03 -3.805362e-04 -9.699315e-04 -1.125955e-03 -8.465626e-04 -2.472489e-04 -1.446874e-03 -1.407694e-03 -1.113203e-03 -1.070619e-03 -1.104428e-03 -1.385243e-03 -9.280219e-04 -6.373754e-04 -3.379199e-04 -5.901501e-04 1.995296e-06 4.295296e-05 2.628207e-04 -1.763109e-04 1.156454e-04 -2.124113e-04 -2.012440e-04 -4.625139e-04 -2.487844e-04 -2.499741e-04 -2.062235e-04 7.990228e-05 1.216651e-04 4.895356e-04 1.566271e-04 3.981913e-04 -3.585391e-04 1.302199e-04 -3.825585e-04 3.338966e-04 -2.772173e-04 5.224506e-04 -9.617774e-06 4.586067e-04 -1.331463e-04 1.010620e-04 -1.971109e-04 -1.298217e-04 -5.849601e-06 -2.698217e-04 2.458654e-04 -4.916255e-04 2.892833e-04 -8.350702e-04 5.207922e-04 -7.980607e-04 7.732184e-04 -9.138792e-04 7.316644e-04 -8.799001e-04 4.908123e-04 -4.855463e-04 -1.874447e-04 1.768491e-04 -2.883875e-03 3.838924e-03 -1.687207e-03 -1.046745e-03 -1.296322e-03 -5.660899e-04 -3.690964e-04 
