# vtk DataFile Version 2.0
Comment goes here
ASCII

DATASET STRUCTURED_POINTS
FIELD FieldData 1
TIME 1 1 double
0.54000000
DIMENSIONS    128   16   1

ORIGIN    0.000   0.000   0.000
SPACING   0.0078125 0.015625   1.000

POINT_DATA   2048
SCALARS uY double
LOOKUP_TABLE default

-7.976082e-06 -6.097926e-06 -5.838304e-06 -4.965843e-06 -4.620099e-06 -2.307475e-06 -4.056055e-06 4.505260e-06 3.703015e-06 1.506528e-05 1.084662e-05 2.248416e-05 1.472063e-05 2.991038e-05 1.759547e-05 3.440108e-05 2.017612e-05 3.617748e-05 2.237315e-05 3.741911e-05 2.451862e-05 3.448582e-05 2.293983e-05 2.285719e-05 1.201734e-05 1.214221e-05 7.311902e-06 6.219809e-06 1.427516e-06 -6.552946e-06 -6.109056e-06 -1.100248e-05 6.142964e-06 5.153596e-06 3.411789e-05 2.971914e-05 7.134381e-05 6.911425e-05 1.294201e-04 1.289271e-04 2.029385e-04 2.008951e-04 2.940985e-04 3.022968e-04 4.277384e-04 4.552102e-04 6.154110e-04 6.705756e-04 8.689792e-04 9.673408e-04 1.195282e-03 1.337215e-03 1.557276e-03 1.719316e-03 1.816034e-03 2.042778e-03 2.346135e-03 2.306350e-03 -1.226668e-04 5.006166e-04 1.420228e-03 4.835948e-04 -9.817362e-04 2.407592e-04 1.520452e-03 -1.003308e-03 -2.603526e-04 7.475913e-04 5.063600e-04 -1.438127e-03 -4.045408e-04 -8.736076e-05 -2.574399e-03 -2.328718e-03 -2.456256e-03 -2.039059e-03 -1.892167e-03 -1.545541e-03 -1.327645e-03 -1.076787e-03 -8.960891e-04 -7.365072e-04 -6.065960e-04 -5.106372e-04 -4.106986e-04 -3.532557e-04 -2.716036e-04 -2.491773e-04 -1.855082e-04 -1.906513e-04 -1.321517e-04 -1.484782e-04 -8.850312e-05 -1.133225e-04 -5.693169e-05 -8.674392e-05 -3.235950e-05 -6.072459e-05 -1.362688e-05 -4.357844e-05 -9.671972e-06 -3.434156e-05 -5.640960e-06 -1.696030e-05 4.633452e-06 -2.092175e-07 9.470698e-06 1.162570e-05 1.603712e-05 2.586142e-05 2.142248e-05 2.754033e-05 1.039368e-05 1.391713e-05 -5.009938e-06 1.592130e-06 -1.737753e-05 -1.377566e-05 -3.369878e-05 -2.856181e-05 -3.894890e-05 -2.672034e-05 -3.004906e-05 -1.832640e-05 -1.869955e-05 -1.152521e-05 -1.196062e-05 -7.900151e-06 
-6.604336e-04 8.069744e-04 -1.930319e-04 6.244345e-04 -3.151226e-03 -4.052232e-03 5.456869e-03 1.485890e-03 3.316343e-03 4.918637e-03 6.691908e-03 1.078133e-02 1.232083e-02 1.262820e-02 7.637023e-03 2.898029e-03 9.812709e-04 -1.266061e-03 -4.556949e-03 -6.103331e-03 -1.231036e-02 -1.299158e-02 -9.663771e-03 -6.872903e-03 -4.352810e-03 -2.801576e-03 -1.980377e-03 -1.077562e-03 -9.709727e-04 -3.474864e-04 -5.204169e-04 -5.410200e-05 -2.820561e-04 5.058916e-05 -1.264681e-04 5.992925e-05 -4.100374e-06 3.970898e-05 1.208708e-04 2.382535e-05 2.393094e-04 7.799354e-06 3.435966e-04 1.282426e-05 4.537415e-04 5.918439e-05 5.670942e-04 1.424803e-04 6.795342e-04 2.693439e-04 8.067643e-04 4.259028e-04 9.284653e-04 4.911942e-04 1.189433e-03 2.960401e-03 1.043887e-02 1.240411e-02 -3.934300e-03 6.894437e-04 1.821024e-02 6.399726e-03 -1.177895e-02 5.689144e-03 1.460716e-02 -8.853135e-03 -7.675275e-03 1.041419e-02 2.256618e-03 -1.459046e-02 -3.254551e-03 3.447822e-03 -1.092544e-02 -1.055785e-02 -6.720153e-03 -4.639190e-03 -3.021118e-03 -2.254577e-03 -1.388831e-03 -1.171217e-03 -5.643022e-04 -6.830181e-04 -1.480212e-04 -4.705007e-04 7.021500e-05 -3.604545e-04 1.805862e-04 -2.949039e-04 1.971965e-04 -2.479247e-04 1.533464e-04 -1.746267e-04 8.381830e-05 -6.659633e-05 -1.075905e-05 6.200852e-05 -1.193952e-04 2.018442e-04 -2.343871e-04 3.228406e-04 -3.507175e-04 4.118956e-04 -4.258928e-04 4.760976e-04 -4.355220e-04 4.835852e-04 -3.891712e-04 4.096267e-04 -2.756408e-04 2.574997e-04 -9.812902e-05 1.628133e-05 1.166471e-04 -3.005173e-04 3.534437e-04 -6.587152e-04 5.582103e-04 -1.045630e-03 6.439755e-04 -1.413508e-03 5.862693e-04 -1.497883e-03 2.131073e-03 4.356191e-03 -6.929488e-04 -1.399803e-04 -1.492907e-03 -1.258042e-04 
-1.514164e-03 1.891185e-03 2.588956e-04 3.903070e-03 -7.741178e-03 -1.299819e-02 1.126688e-02 -1.238633e-03 6.764597e-04 6.393270e-04 2.690057e-05 -1.864329e-05 -3.260956e-03 -3.157668e-03 -4.877034e-03 5.120768e-04 -1.772810e-03 1.967914e-03 -1.978253e-04 4.550546e-03 2.420090e-03 2.780632e-03 1.797865e-03 -3.846641e-04 4.283035e-04 -1.058708e-05 1.215570e-04 2.624661e-04 -5.870484e-05 3.560597e-04 -1.530741e-04 3.572472e-04 -1.101711e-04 3.312226e-04 -7.181846e-06 2.196843e-04 1.053008e-04 1.127968e-04 3.006427e-04 6.964229e-05 5.020386e-04 6.851931e-06 6.551199e-04 -1.206717e-05 8.479128e-04 7.787846e-05 1.056053e-03 2.471197e-04 1.304639e-03 6.456501e-04 1.819677e-03 1.477394e-03 2.795611e-03 3.014471e-03 5.335626e-03 9.248240e-03 1.338495e-02 5.717116e-03 -8.401488e-03 -1.194383e-03 4.227774e-03 1.301360e-03 -4.911024e-03 1.816360e-03 6.967384e-03 -3.430859e-03 -1.425275e-03 5.370149e-03 3.847871e-03 -4.873806e-03 4.063899e-03 8.456139e-03 -1.158096e-02 -1.238938e-02 -8.697173e-03 -6.199029e-03 -4.259199e-03 -3.369168e-03 -2.142372e-03 -1.989830e-03 -9.564022e-04 -1.316464e-03 -3.129674e-04 -1.008464e-03 6.845232e-05 -7.915307e-04 3.083450e-04 -6.422693e-04 3.392257e-04 -5.589356e-04 2.459736e-04 -3.967629e-04 1.316584e-04 -1.570134e-04 -5.111978e-05 1.037182e-04 -2.648412e-04 4.018346e-04 -4.865387e-04 6.429731e-04 -7.489298e-04 7.997091e-04 -9.148274e-04 9.464120e-04 -9.218694e-04 9.735408e-04 -8.477176e-04 8.118304e-04 -6.351358e-04 5.122827e-04 -2.772860e-04 1.940437e-05 1.436818e-04 -6.384413e-04 6.555090e-04 -1.360920e-03 1.172656e-03 -2.199357e-03 1.554442e-03 -3.067849e-03 2.095346e-03 -3.600689e-03 6.092895e-03 1.158011e-02 -5.095386e-03 -3.676881e-03 -4.077965e-03 -1.099495e-03 
-2.008337e-04 6.810947e-03 1.022743e-02 1.928131e-02 9.254918e-03 -1.171376e-02 3.437094e-03 -4.900023e-05 -1.678832e-03 1.325953e-03 -2.723732e-03 1.349716e-03 -9.738565e-04 2.188966e-03 1.179232e-03 8.688157e-05 9.436211e-04 -1.073108e-03 1.235419e-03 -2.433243e-03 7.116772e-04 -2.057447e-04 2.704574e-04 1.034010e-03 -1.299548e-04 8.444681e-04 -5.218927e-04 9.223348e-04 -6.710563e-04 8.911462e-04 -7.556647e-04 8.010927e-04 -6.154618e-04 7.292797e-04 -4.244757e-04 4.691406e-04 -2.869214e-04 2.133168e-04 1.923481e-05 9.326510e-05 3.201722e-04 -1.281255e-04 4.611208e-04 -3.259392e-04 6.322121e-04 -3.965796e-04 6.917197e-04 -5.437968e-04 5.556456e-04 -5.955863e-04 4.789899e-04 -4.529732e-04 2.908065e-04 -4.370445e-04 -5.490382e-04 -2.425391e-03 -6.175217e-03 -4.857238e-03 3.256361e-03 2.369337e-04 -7.833003e-03 -2.442018e-03 4.634421e-03 -2.546962e-03 -7.631774e-03 3.832608e-03 1.926526e-03 -4.987672e-03 -2.686187e-03 6.036620e-03 -1.058418e-03 -3.111626e-03 5.621924e-03 7.292716e-03 4.194901e-03 3.535055e-03 2.266336e-03 1.676052e-03 1.487402e-03 7.038165e-04 1.235848e-03 9.614163e-05 1.065885e-03 -3.659773e-04 1.009002e-03 -5.179642e-04 1.053122e-03 -5.746660e-04 8.672642e-04 -6.759140e-04 5.736394e-04 -5.320245e-04 3.702932e-04 -1.912753e-04 8.069235e-05 1.869408e-04 -2.398750e-04 6.662160e-04 -5.591485e-04 1.028172e-03 -1.012552e-03 1.226659e-03 -1.306278e-03 1.482100e-03 -1.318113e-03 1.558316e-03 -1.263295e-03 1.323730e-03 -9.914430e-04 9.419103e-04 -4.573679e-04 2.913212e-04 1.835910e-04 -5.581658e-04 1.094358e-03 -1.355031e-03 2.184849e-03 -2.255562e-03 3.131265e-03 -3.198338e-03 3.991908e-03 -4.137437e-03 4.732882e-03 4.812618e-03 -2.332431e-02 -1.741613e-02 -1.067218e-02 -3.849803e-03 
9.413638e-04 6.594712e-03 1.496794e-02 2.231907e-02 2.898306e-02 5.995003e-03 -8.858123e-03 2.260419e-03 -9.486618e-04 1.210449e-03 4.441155e-04 8.299250e-04 7.124586e-04 -3.871678e-04 2.711085e-04 -3.400020e-04 4.023813e-04 -4.509304e-04 4.529000e-04 -4.478061e-04 3.340803e-04 -1.886070e-03 2.157410e-04 -8.310813e-04 6.169104e-05 1.514683e-04 -1.407073e-04 6.549378e-04 -3.565599e-04 8.157770e-04 -5.461285e-04 8.239331e-04 -5.495177e-04 7.896783e-04 -4.849026e-04 5.885356e-04 -4.289105e-04 3.706937e-04 -2.210303e-04 2.430560e-04 1.282132e-05 4.320237e-05 1.462758e-04 -1.384395e-04 3.022258e-04 -2.322419e-04 3.628219e-04 -4.111579e-04 2.439359e-04 -5.990402e-04 7.819480e-05 -7.998256e-04 -3.306147e-04 -1.374024e-03 -1.166029e-03 -1.723946e-03 1.921733e-03 4.313639e-03 -3.922808e-04 3.013412e-04 9.119128e-03 3.777876e-03 -4.948760e-03 4.230321e-03 6.969563e-03 -2.631787e-03 -3.589945e-03 6.099622e-03 7.598885e-04 -5.017248e-03 -1.437084e-03 1.443654e-03 -2.549042e-03 -2.501879e-03 -1.349169e-03 -9.568911e-04 -5.154496e-04 -6.077806e-04 -7.480286e-05 -5.063444e-04 2.640815e-04 -5.499505e-04 4.119947e-04 -6.888543e-04 5.128832e-04 -6.994015e-04 6.247333e-04 -6.851173e-04 5.448330e-04 -7.189445e-04 3.773379e-04 -5.764408e-04 2.738693e-04 -2.852941e-04 1.060099e-04 3.521005e-05 -9.567700e-05 4.253390e-04 -3.103610e-04 7.221265e-04 -6.405353e-04 8.905285e-04 -8.795778e-04 1.088880e-03 -9.371046e-04 1.153768e-03 -9.633356e-04 9.960912e-04 -8.481001e-04 7.370428e-04 -5.539197e-04 2.974028e-04 -1.900178e-04 -2.735049e-04 3.500365e-04 -7.958991e-04 9.765485e-04 -1.362813e-03 1.395413e-03 -1.807245e-03 1.534047e-03 -1.190121e-03 -1.210486e-03 -1.145951e-02 -2.723810e-02 -2.125275e-02 -1.200222e-02 -5.671756e-03 
7.692321e-04 3.200706e-03 8.146613e-03 1.000862e-02 1.786846e-02 1.090086e-02 -3.584690e-03 3.311437e-03 1.014286e-03 1.710195e-03 2.620286e-03 2.153369e-03 2.106077e-03 -2.952997e-04 2.818507e-04 -2.846878e-04 3.984688e-04 -4.373488e-04 4.160903e-04 -4.635943e-04 2.394717e-04 -1.308378e-03 -1.227244e-03 -2.495782e-03 -1.283309e-03 -1.026708e-03 -8.619171e-04 -1.916991e-04 -6.571313e-04 2.383091e-04 -5.508386e-04 4.320918e-04 -4.565206e-04 4.944138e-04 -3.539428e-04 4.663929e-04 -2.336389e-04 4.119349e-04 -5.868526e-05 3.818445e-04 1.617759e-04 3.841263e-04 4.169445e-04 4.679610e-04 7.497642e-04 6.962879e-04 1.199027e-03 1.124720e-03 1.865979e-03 1.916819e-03 3.000863e-03 3.390188e-03 5.050198e-03 6.158973e-03 9.683351e-03 1.514359e-02 1.953700e-02 2.902191e-03 -9.484083e-03 -8.243970e-04 -3.796218e-03 -2.221060e-03 -1.246589e-03 -1.874629e-03 1.805538e-04 -9.861965e-04 6.610790e-04 4.694754e-04 2.946077e-03 -1.138287e-03 5.265572e-03 8.578022e-03 -1.323854e-02 -1.649996e-02 -1.081128e-02 -8.091905e-03 -5.193816e-03 -4.123974e-03 -2.559326e-03 -2.259800e-03 -1.196334e-03 -1.378324e-03 -4.928317e-04 -9.699021e-04 -1.206669e-04 -7.532620e-04 7.730770e-05 -6.228114e-04 1.440646e-04 -5.260666e-04 1.349921e-04 -3.939831e-04 9.894483e-05 -2.154173e-04 2.956185e-05 -1.491838e-05 -6.711584e-05 1.948092e-04 -1.825124e-04 3.706909e-04 -3.196226e-04 4.947073e-04 -4.314814e-04 5.790766e-04 -4.879800e-04 5.906757e-04 -5.009648e-04 5.077543e-04 -4.530736e-04 3.447076e-04 -3.436531e-04 9.715107e-05 -2.074188e-04 -2.193218e-04 -7.499216e-05 -5.654770e-04 -3.635608e-05 -9.096854e-04 -2.339377e-04 -1.046377e-03 -7.413247e-04 -1.093394e-04 -4.325104e-03 -1.335127e-02 -1.361030e-02 -9.912577e-03 -6.029117e-03 -2.994011e-03 
4.079673e-04 1.871602e-03 4.105138e-03 4.983111e-03 6.678596e-03 5.490547e-03 2.654118e-03 3.804514e-03 2.726241e-03 4.649779e-03 5.477111e-03 8.593699e-03 5.994451e-03 -1.437751e-04 4.432439e-05 -1.498621e-04 1.207534e-04 -1.352385e-04 1.552889e-04 -7.351257e-05 1.464366e-04 -3.628589e-03 -6.126654e-03 -5.983105e-03 -4.063441e-03 -3.060151e-03 -2.182748e-03 -1.380170e-03 -1.207816e-03 -4.746242e-04 -7.096510e-04 -1.922694e-05 -4.395349e-04 1.898334e-04 -2.687040e-04 2.628793e-04 -1.290668e-04 2.839211e-04 2.973686e-05 3.090019e-04 2.206407e-04 3.638483e-04 4.533201e-04 4.928927e-04 7.646021e-04 7.491237e-04 1.193485e-03 1.188227e-03 1.816799e-03 1.932054e-03 2.811154e-03 3.225394e-03 4.523385e-03 5.593758e-03 8.072352e-03 1.154641e-02 1.263564e-02 2.689199e-03 2.762066e-04 4.203428e-03 -4.371545e-03 -1.995050e-03 3.976598e-03 -2.023829e-03 -5.629519e-03 9.015484e-04 1.877443e-03 -4.925125e-03 -2.601958e-03 -2.165284e-05 -2.316028e-03 -3.765541e-03 -7.966499e-03 -7.530566e-03 -5.777992e-03 -4.511204e-03 -3.386284e-03 -2.787261e-03 -1.969608e-03 -1.778723e-03 -1.092664e-03 -1.200841e-03 -5.610924e-04 -8.736138e-04 -2.403283e-04 -6.724056e-04 -5.370125e-05 -5.386332e-04 2.847293e-05 -4.351658e-04 4.473283e-05 -3.178855e-04 2.873979e-05 -1.757424e-04 -1.597727e-05 -2.080010e-05 -8.272340e-05 1.355748e-04 -1.653546e-04 2.669661e-04 -2.600713e-04 3.602649e-04 -3.367751e-04 4.178078e-04 -3.758329e-04 4.180727e-04 -3.814153e-04 3.452172e-04 -3.460222e-04 2.029237e-04 -2.745587e-04 -1.407274e-05 -1.950614e-04 -3.000973e-04 -1.405226e-04 -6.397934e-04 -1.815935e-04 -1.029803e-03 -4.250074e-04 -1.433467e-03 -9.909572e-04 -1.856550e-03 -2.934975e-03 -4.878390e-03 -5.557174e-03 -4.655626e-03 -3.186818e-03 -1.699073e-03 
2.553483e-04 7.573158e-04 1.778673e-03 2.046264e-03 2.676861e-03 2.513097e-03 1.152698e-03 1.936132e-03 1.315139e-03 2.268668e-03 2.820468e-03 4.498142e-03 3.360870e-03 -6.912290e-05 4.312590e-05 -8.784146e-05 8.714238e-05 -9.505974e-05 9.657327e-05 -6.457497e-05 7.200437e-05 -1.650182e-03 -2.927121e-03 -2.900435e-03 -1.925470e-03 -1.480459e-03 -1.037696e-03 -6.689871e-04 -5.663691e-04 -2.159230e-04 -3.116669e-04 2.553242e-05 -1.629493e-04 1.536890e-04 -5.355651e-05 2.302300e-04 5.623821e-05 2.989821e-04 1.944883e-04 3.933215e-04 3.806005e-04 5.408711e-04 6.346661e-04 7.737693e-04 9.842459e-04 1.125823e-03 1.456641e-03 1.623178e-03 2.072339e-03 2.278836e-03 2.834701e-03 3.076725e-03 3.697203e-03 3.907863e-03 4.477871e-03 4.622521e-03 4.812602e-03 2.895212e-03 6.504459e-04 1.012975e-03 -4.160516e-04 -1.261942e-04 6.981411e-05 -2.535040e-04 -1.595576e-04 -2.498029e-04 3.259279e-04 -5.011185e-04 -2.281947e-04 -7.739249e-04 -1.044067e-03 -1.629483e-03 -4.384252e-03 -4.532087e-03 -4.671968e-03 -4.231615e-03 -3.747258e-03 -3.290527e-03 -2.691001e-03 -2.370638e-03 -1.816119e-03 -1.659833e-03 -1.178194e-03 -1.161500e-03 -7.439297e-04 -8.253751e-04 -4.618771e-04 -5.988446e-04 -2.874769e-04 -4.382764e-04 -1.833155e-04 -3.097171e-04 -1.224791e-04 -1.955189e-04 -9.147236e-05 -9.121305e-05 -8.236192e-05 1.677277e-06 -8.967230e-05 7.675562e-05 -1.085139e-04 1.295469e-04 -1.294696e-04 1.585935e-04 -1.447645e-04 1.595338e-04 -1.516448e-04 1.294802e-04 -1.481009e-04 6.926232e-05 -1.376286e-04 -2.108271e-05 -1.325343e-04 -1.399926e-04 -1.522027e-04 -2.843555e-04 -2.272130e-04 -4.545179e-04 -3.992146e-04 -6.670441e-04 -7.312033e-04 -1.048848e-03 -1.442607e-03 -2.311570e-03 -2.169806e-03 -1.969180e-03 -1.236376e-03 -7.199865e-04 
1.736655e-06 2.144578e-06 3.445245e-06 3.451077e-06 5.031299e-06 4.365006e-06 6.627660e-06 4.867950e-06 7.336269e-06 4.562532e-06 6.689898e-06 3.426843e-06 5.779404e-06 1.057219e-06 4.599263e-07 7.581221e-07 4.087043e-07 4.511569e-07 3.207855e-07 1.334934e-07 1.562864e-07 2.118857e-05 2.912037e-05 2.242409e-05 2.813247e-05 2.460147e-05 2.966154e-05 2.880399e-05 3.124255e-05 3.353315e-05 3.438505e-05 4.339580e-05 4.608419e-05 6.467018e-05 7.196853e-05 1.020818e-04 1.191091e-04 1.646877e-04 1.991419e-04 2.642414e-04 3.243709e-04 4.143896e-04 5.117897e-04 6.363578e-04 7.853288e-04 9.547149e-04 1.167956e-03 1.389415e-03 1.675423e-03 1.948379e-03 2.303675e-03 2.608161e-03 3.001614e-03 3.269889e-03 3.592046e-03 3.622421e-03 3.501182e-03 2.459894e-03 1.610325e-03 1.534668e-03 3.168843e-04 2.381010e-04 2.135582e-04 -4.200770e-04 -7.864089e-04 -7.559634e-04 -7.499482e-04 -1.555761e-03 -1.507521e-03 -1.732123e-03 -2.179995e-03 -2.470374e-03 -3.067720e-03 -3.024642e-03 -2.968990e-03 -2.677328e-03 -2.410290e-03 -2.083088e-03 -1.788951e-03 -1.508283e-03 -1.257166e-03 -1.047679e-03 -8.568302e-04 -7.157970e-04 -5.777975e-04 -4.907215e-04 -3.910611e-04 -3.431085e-04 -2.683266e-04 -2.458991e-04 -1.841683e-04 -1.758287e-04 -1.205084e-04 -1.201298e-04 -7.024535e-05 -7.443569e-05 -3.087632e-05 -3.736552e-05 -2.718453e-06 -1.092708e-05 1.264690e-05 4.716121e-06 1.792940e-05 1.260782e-05 1.605228e-05 1.356554e-05 8.255685e-06 9.335928e-06 -1.705531e-06 3.231559e-06 -1.155854e-05 -4.430809e-06 -2.107309e-05 -1.210550e-05 -2.710293e-05 -1.627866e-05 -2.797914e-05 -1.714571e-05 -2.517625e-05 -1.521621e-05 -1.860315e-05 -1.032881e-05 -1.029456e-05 -5.632697e-06 -4.247155e-06 -2.012222e-06 -5.557902e-07 4.241557e-07 
-2.518611e-04 -7.517965e-04 -1.772340e-03 -2.037781e-03 -2.667361e-03 -2.502524e-03 -1.138952e-03 -1.925414e-03 -1.302107e-03 -2.260842e-03 -2.811649e-03 -4.495055e-03 -3.355315e-03 7.164948e-05 -4.168750e-05 8.999607e-05 -8.579824e-05 9.640586e-05 -9.584566e-05 6.439313e-05 -7.191999e-05 1.684734e-03 2.998848e-03 2.944219e-03 1.998601e-03 1.536904e-03 1.119506e-03 7.430365e-04 6.574412e-04 3.083272e-04 4.151049e-04 9.528631e-05 2.962284e-04 1.854089e-05 2.457717e-04 2.632222e-05 2.390884e-04 9.391753e-05 2.726272e-04 2.119261e-04 3.511573e-04 3.784790e-04 4.855586e-04 5.996313e-04 6.897557e-04 8.810746e-04 9.694270e-04 1.218558e-03 1.314078e-03 1.588690e-03 1.682188e-03 1.931071e-03 1.985858e-03 2.142284e-03 2.092651e-03 2.084661e-03 1.837375e-03 1.580452e-03 1.049412e-03 8.992281e-04 4.979236e-04 3.232215e-04 1.976056e-04 -7.588603e-05 -3.046371e-05 -3.950751e-04 -2.662810e-04 -7.040409e-04 -6.589484e-04 -1.077445e-03 -1.222272e-03 -1.526771e-03 -1.929576e-03 -2.031841e-03 -2.193020e-03 -2.080102e-03 -2.063591e-03 -1.820558e-03 -1.744766e-03 -1.440747e-03 -1.387512e-03 -1.066199e-03 -1.072171e-03 -7.568102e-04 -8.220466e-04 -5.246737e-04 -6.294213e-04 -3.621604e-04 -4.789544e-04 -2.552964e-04 -3.531539e-04 -1.872512e-04 -2.390295e-04 -1.468823e-04 -1.334130e-04 -1.275333e-04 -3.697824e-05 -1.225030e-04 4.625425e-05 -1.279914e-04 1.091685e-04 -1.389368e-04 1.486731e-04 -1.465731e-04 1.640418e-04 -1.436857e-04 1.561739e-04 -1.224198e-04 1.322814e-04 -7.511022e-05 1.021149e-04 1.980894e-07 7.931985e-05 1.055895e-04 8.986916e-05 2.450545e-04 1.673159e-04 4.178035e-04 3.493393e-04 6.382448e-04 6.980846e-04 1.032341e-03 1.427710e-03 2.303761e-03 2.164675e-03 1.967348e-03 1.236543e-03 7.222169e-04 
-4.009257e-04 -1.864650e-03 -4.096973e-03 -4.974051e-03 -6.668149e-03 -5.479810e-03 -2.637035e-03 -3.791540e-03 -2.706344e-03 -4.637672e-03 -5.462153e-03 -8.590590e-03 -5.987020e-03 1.465243e-04 -4.319218e-05 1.514478e-04 -1.197891e-04 1.361838e-04 -1.542350e-04 7.410199e-05 -1.447221e-04 3.666537e-03 6.182800e-03 6.022217e-03 4.116361e-03 3.105464e-03 2.244648e-03 1.438052e-03 1.266314e-03 5.236493e-04 7.471574e-04 6.413695e-05 4.797165e-04 -1.189921e-04 3.351328e-04 -1.501588e-04 2.470666e-04 -8.862616e-05 2.038092e-04 3.521327e-05 1.981929e-04 1.945691e-04 2.356225e-04 3.885704e-04 3.359195e-04 6.160990e-04 4.997212e-04 8.661474e-04 7.258942e-04 1.134424e-03 9.954466e-04 1.374504e-03 1.226730e-03 1.494823e-03 1.317097e-03 1.409814e-03 1.170154e-03 1.046619e-03 7.235661e-04 5.418985e-04 3.171056e-04 3.816374e-05 -9.863775e-06 -3.751322e-04 -2.785531e-04 -7.058993e-04 -5.131372e-04 -9.443751e-04 -7.383329e-04 -1.120420e-03 -9.757993e-04 -1.223479e-03 -1.178118e-03 -1.251757e-03 -1.188042e-03 -1.092340e-03 -1.076076e-03 -8.408504e-04 -9.226496e-04 -5.668861e-04 -7.742060e-04 -3.289009e-04 -6.662685e-04 -1.597656e-04 -5.902427e-04 -4.749512e-05 -5.186425e-04 1.343505e-05 -4.448618e-04 2.444743e-05 -3.528951e-04 6.633807e-06 -2.295221e-04 -3.490787e-05 -8.903818e-05 -9.986044e-05 6.098948e-05 -1.714817e-04 2.082851e-04 -2.477784e-04 3.240942e-04 -3.210449e-04 4.003683e-04 -3.655457e-04 4.311035e-04 -3.705741e-04 4.063269e-04 -3.191920e-04 3.421332e-04 -1.901908e-04 2.501595e-04 5.319021e-06 1.389246e-04 2.616323e-04 6.512614e-05 5.930426e-04 1.095131e-04 9.826015e-04 3.577188e-04 1.389537e-03 9.456100e-04 1.836181e-03 2.923758e-03 4.872318e-03 5.559428e-03 4.657859e-03 3.192848e-03 1.704234e-03 
-7.617887e-04 -3.192086e-03 -8.140186e-03 -9.995903e-03 -1.786272e-02 -1.088122e-02 3.620055e-03 -3.288517e-03 -9.883592e-04 -1.696030e-03 -2.612198e-03 -2.163900e-03 -2.119020e-03 2.949154e-04 -2.774245e-04 2.886210e-04 -3.950354e-04 4.415729e-04 -4.150584e-04 4.677119e-04 -2.423519e-04 1.303682e-03 1.282808e-03 2.516791e-03 1.342602e-03 1.072029e-03 9.464249e-04 2.671528e-04 7.399709e-04 -1.811658e-04 5.903119e-04 -3.953474e-04 4.834330e-04 -4.406906e-04 3.859216e-04 -3.969932e-04 2.801383e-04 -2.910359e-04 1.928394e-04 -1.387352e-04 1.240988e-04 2.456298e-05 8.166219e-05 2.013149e-04 9.501774e-05 3.862351e-04 1.554143e-04 5.585371e-04 2.670526e-04 7.344087e-04 4.343691e-04 8.871704e-04 5.887794e-04 9.544008e-04 6.815132e-04 9.420544e-04 7.245562e-04 8.478448e-04 5.230176e-04 4.638039e-04 5.314699e-04 2.221872e-04 2.010204e-04 -9.505604e-05 2.383004e-04 -4.549247e-04 -1.111689e-04 -5.339807e-04 -2.423543e-04 -8.567571e-04 -5.470650e-04 -8.506156e-04 -8.743104e-04 -1.001588e-03 -9.649710e-04 -8.931172e-04 -9.348845e-04 -6.910926e-04 -8.682408e-04 -4.526937e-04 -7.928491e-04 -2.395875e-04 -7.506993e-04 -9.500168e-05 -7.241801e-04 5.164650e-06 -6.730318e-04 6.010633e-05 -6.032416e-04 5.811048e-05 -4.968171e-04 2.986125e-05 -3.345344e-04 -2.464516e-05 -1.466389e-04 -1.136554e-04 5.652034e-05 -2.097604e-04 2.608891e-04 -3.152024e-04 4.192150e-04 -4.247363e-04 5.228503e-04 -4.980399e-04 5.656071e-04 -5.250645e-04 5.274668e-04 -4.844481e-04 4.346205e-04 -3.419307e-04 3.003686e-04 -1.239553e-04 1.198495e-04 1.500231e-04 -3.458500e-05 4.944614e-04 -5.649804e-05 8.484524e-04 1.536696e-04 9.970262e-04 7.001708e-04 1.065602e-04 4.344963e-03 1.335608e-02 1.362506e-02 9.920640e-03 6.039515e-03 3.001655e-03 
-9.307296e-04 -6.585563e-03 -1.496358e-02 -2.230974e-02 -2.898579e-02 -5.983990e-03 8.891645e-03 -2.233924e-03 1.000186e-03 -1.166207e-03 -4.140168e-04 -8.481872e-04 -7.364669e-04 3.877651e-04 -2.685932e-04 3.393719e-04 -4.025307e-04 4.505320e-04 -4.536312e-04 4.471962e-04 -3.303860e-04 1.934899e-03 -1.454833e-04 8.412806e-04 -5.604355e-05 -1.327505e-04 2.512990e-04 -5.120109e-04 4.774073e-04 -8.038213e-04 4.573072e-04 -9.369132e-04 4.507558e-04 -8.283633e-04 3.927125e-04 -7.040526e-04 2.096388e-04 -5.295332e-04 7.405120e-05 -2.737321e-04 -7.344344e-05 -9.567102e-05 -2.516173e-04 7.822042e-05 -3.227794e-04 2.439828e-04 -3.979308e-04 2.728842e-04 -4.475991e-04 3.385159e-04 -3.133436e-04 4.188084e-04 -2.200022e-04 2.897354e-04 -2.341880e-04 1.212078e-04 -1.433406e-04 9.752579e-06 -2.176676e-04 -3.012025e-04 6.965503e-06 -3.667132e-04 -4.785226e-05 -4.436287e-04 1.881949e-04 -6.848752e-04 3.610311e-05 -4.903741e-04 2.462753e-04 -4.684095e-04 2.582707e-04 -2.187962e-04 9.350895e-05 -1.722946e-04 6.931906e-05 2.628057e-05 -5.383363e-05 1.525370e-04 -2.114191e-04 3.650953e-04 -2.822437e-04 5.477978e-04 -4.636667e-04 5.444468e-04 -6.660826e-04 5.509622e-04 -7.095276e-04 5.383483e-04 -7.285252e-04 3.893950e-04 -6.662909e-04 2.664801e-04 -4.147430e-04 1.239022e-04 -1.446525e-04 -1.240531e-04 1.736375e-04 -3.191101e-04 5.623247e-04 -5.362769e-04 8.165389e-04 -8.065271e-04 9.927486e-04 -9.475996e-04 1.098069e-03 -1.024124e-03 9.892649e-04 -9.957145e-04 8.144934e-04 -6.805923e-04 5.806001e-04 -2.662403e-04 7.788674e-05 1.418856e-04 -5.305574e-04 7.084734e-04 -1.067855e-03 1.288459e-03 -1.550321e-03 1.664866e-03 -1.640180e-03 1.199772e-03 1.280234e-03 1.148327e-02 2.728990e-02 2.128151e-02 1.202563e-02 5.685787e-03 
2.029648e-04 -6.813177e-03 -1.023100e-02 -1.929112e-02 -9.266244e-03 1.168918e-02 -3.463312e-03 5.318192e-05 1.723021e-03 -1.257444e-03 2.777047e-03 -1.324515e-03 9.793135e-04 -2.176924e-03 -1.155780e-03 -6.993315e-05 -9.370719e-04 1.076424e-03 -1.229325e-03 2.473041e-03 -6.136801e-04 3.532799e-04 -1.763010e-04 -1.000145e-03 8.861982e-05 -8.524197e-04 5.927934e-04 -7.902350e-04 7.497412e-04 -9.504215e-04 5.649118e-04 -1.020683e-03 4.580174e-04 -8.130405e-04 3.367519e-04 -6.231605e-04 7.783223e-05 -3.967250e-04 -9.541925e-05 -8.674472e-05 -2.815583e-04 8.706485e-05 -5.192406e-04 2.314621e-04 -6.243718e-04 3.489703e-04 -7.524223e-04 2.707339e-04 -8.553140e-04 2.555744e-04 -6.925721e-04 2.970301e-04 -5.540162e-04 9.987928e-05 -5.236986e-04 -1.203811e-04 -3.498209e-04 -2.356849e-04 -5.332987e-05 -2.843975e-04 1.106028e-04 -3.057576e-04 4.369038e-04 -3.565732e-04 3.278529e-04 -5.679406e-04 2.749799e-04 -6.821863e-04 3.364434e-04 -4.485020e-04 3.903044e-04 -4.195042e-04 3.382876e-04 -1.821456e-04 2.355846e-04 1.297620e-05 -3.988563e-05 1.087998e-04 -3.046813e-04 3.730719e-04 -3.901814e-04 6.353536e-04 -5.967961e-04 6.583019e-04 -8.228647e-04 6.967537e-04 -8.363163e-04 6.982906e-04 -8.347660e-04 4.945672e-04 -7.453849e-04 3.089954e-04 -4.190223e-04 8.136563e-05 -8.660392e-05 -2.958338e-04 3.068814e-04 -5.903130e-04 7.999379e-04 -9.006290e-04 1.112629e-03 -1.259792e-03 1.330606e-03 -1.410553e-03 1.455948e-03 -1.452075e-03 1.277260e-03 -1.333393e-03 9.933450e-04 -8.085274e-04 5.996259e-04 -1.517826e-04 -2.106697e-04 4.832003e-04 -1.221708e-03 1.328119e-03 -2.220899e-03 2.204323e-03 -3.315265e-03 2.992687e-03 -4.171700e-03 4.094018e-03 -4.719518e-03 -4.810266e-03 2.336024e-02 1.743703e-02 1.068363e-02 3.854906e-03 
1.503890e-03 -1.902289e-03 -2.679419e-04 -3.918846e-03 7.733172e-03 1.297203e-02 -1.130992e-02 1.231633e-03 -6.660844e-04 -5.980615e-04 7.067771e-06 6.449495e-05 3.292896e-03 3.228125e-03 4.915599e-03 -4.339158e-04 1.815537e-03 -1.894085e-03 2.409487e-04 -4.459177e-03 -2.354161e-03 -2.675992e-03 -1.711877e-03 4.302165e-04 -4.273220e-04 1.612629e-05 -1.014858e-04 -2.229435e-04 6.875464e-05 -4.027990e-04 6.263941e-05 -4.613705e-04 6.133693e-05 -3.528915e-04 4.177337e-05 -2.152979e-04 -3.940544e-05 -4.663447e-05 -9.025767e-05 1.585678e-04 -1.430428e-04 3.065621e-04 -2.075235e-04 4.342867e-04 -2.072743e-04 5.437653e-04 -1.967279e-04 5.716306e-04 -1.583394e-04 6.107473e-04 -1.703543e-05 6.320182e-04 7.260348e-05 4.732493e-04 1.795377e-05 1.619001e-04 -1.250191e-04 -2.125019e-04 -1.671656e-04 -4.056531e-04 -2.955007e-04 -5.433971e-04 4.882302e-05 -5.624733e-04 1.225480e-05 -4.715175e-04 2.289075e-04 -5.074036e-04 3.042073e-04 -1.952114e-04 3.209022e-04 -2.557157e-04 2.017029e-04 -1.882129e-04 -1.899075e-05 -1.866391e-04 -2.706616e-04 -1.627959e-04 -4.515231e-04 -1.502957e-05 -5.126138e-04 1.606608e-04 -5.899956e-04 2.442577e-04 -6.554963e-04 3.141323e-04 -6.240579e-04 3.380939e-04 -5.722134e-04 2.465626e-04 -4.712301e-04 1.266352e-04 -2.632219e-04 -3.820438e-05 -3.833296e-05 -2.777291e-04 2.203964e-04 -4.898097e-04 5.160965e-04 -6.998769e-04 7.275347e-04 -9.019420e-04 8.772059e-04 -9.785728e-04 9.517394e-04 -9.550038e-04 8.587371e-04 -7.988617e-04 6.711414e-04 -4.109407e-04 3.852206e-04 9.640768e-05 -1.055257e-04 6.611553e-04 -6.768295e-04 1.377514e-03 -1.189364e-03 2.171930e-03 -1.663252e-03 2.946619e-03 -2.228313e-03 3.522278e-03 -6.162584e-03 -1.161263e-02 5.075540e-03 3.665937e-03 4.063766e-03 1.089331e-03 
6.485310e-04 -8.179255e-04 1.847923e-04 -6.351619e-04 3.146435e-03 4.043105e-03 -5.470432e-03 -1.482310e-03 -3.306768e-03 -4.891934e-03 -6.665486e-03 -1.074264e-02 -1.228594e-02 -1.257529e-02 -7.605851e-03 -2.841983e-03 -9.420769e-04 1.318649e-03 4.603930e-03 6.162139e-03 1.235042e-02 1.306119e-02 9.707541e-03 6.914891e-03 4.361478e-03 2.814302e-03 1.972758e-03 1.071509e-03 9.405108e-04 2.986447e-04 4.549655e-04 -2.330942e-05 2.245365e-04 -1.118595e-04 1.056636e-04 -9.746599e-05 2.774667e-05 -3.196550e-05 -1.817637e-05 5.914153e-05 -4.709974e-05 1.450354e-04 -6.009856e-05 2.304796e-04 -3.362559e-05 3.247703e-04 3.827035e-05 4.327306e-04 1.763223e-04 5.895339e-04 4.090418e-04 8.130985e-04 7.349598e-04 1.138903e-03 1.215175e-03 1.738091e-03 2.011875e-03 2.462743e-03 1.378893e-03 1.534430e-03 2.366906e-03 1.366097e-03 3.381588e-04 6.460815e-04 1.300979e-03 -8.588102e-04 -4.777781e-04 -3.850850e-04 -6.110398e-04 -2.267552e-03 -1.521636e-03 -1.596417e-03 -2.462297e-03 -2.347342e-03 -2.164504e-03 -1.807817e-03 -1.548764e-03 -1.157809e-03 -1.060259e-03 -6.411655e-04 -7.416669e-04 -2.891819e-04 -5.648936e-04 -7.952586e-05 -4.652985e-04 4.209311e-05 -3.864472e-04 9.400583e-05 -3.186456e-04 7.915050e-05 -2.409488e-04 2.741380e-05 -1.332303e-04 -5.281704e-05 -1.048069e-05 -1.582421e-04 1.250134e-04 -2.631638e-04 2.628285e-04 -3.648702e-04 3.694217e-04 -4.506166e-04 4.407555e-04 -4.854306e-04 4.664346e-04 -4.633847e-04 4.229461e-04 -3.706381e-04 3.202746e-04 -1.884249e-04 1.543545e-04 5.326433e-05 -8.982958e-05 3.338890e-04 -3.636962e-04 6.639549e-04 -5.950386e-04 1.015147e-03 -7.197378e-04 1.346379e-03 -6.738350e-04 1.435376e-03 -2.198317e-03 -4.392494e-03 6.596648e-04 1.196525e-04 1.473644e-03 1.124016e-04 
