# vtk DataFile Version 2.0
Comment goes here
ASCII

DATASET STRUCTURED_POINTS
FIELD FieldData 1
TIME 1 1 double
0.02500000
DIMENSIONS    64   64   1

ORIGIN    0.000   0.000   0.000
SPACING   0.03125 0.03125   1.000

POINT_DATA   4096
SCALARS Omega double
LOOKUP_TABLE default

1.679160e-01 -2.509517e-02 -4.954336e-01 2.933454e-03 -5.501024e-01 4.727296e-01 -3.976428e-01 1.356848e-01 -2.959706e-01 5.697365e-02 -1.885808e-01 7.357785e-03 -7.527366e-02 -1.460084e-02 5.079735e-02 -1.023504e-02 1.812261e-01 -3.203402e-02 3.012221e-01 -6.974354e-02 3.602966e-01 -4.763262e-02 4.139738e-01 -3.724467e-02 4.003746e-01 -5.733983e-02 4.271432e-01 -5.368928e-02 4.312918e-01 -3.199408e-02 4.271216e-01 -3.190329e-02 4.279225e-01 -3.963758e-04 3.556448e-01 8.583441e-02 3.147878e-01 9.781360e-02 2.914504e-01 1.321835e-01 2.474379e-01 1.787207e-01 1.858253e-01 2.072121e-01 1.642628e-01 1.384618e-01 1.914817e-01 9.377064e-02 1.486692e-01 4.459845e-02 3.660031e-02 3.465241e-02 -8.889011e-02 2.649056e-02 -1.691277e-01 2.285669e-02 -2.435622e-01 6.303321e-02 -3.364356e-01 1.293441e-01 -4.018340e-01 1.582321e-01 -4.859288e-01 2.420239e-01 
-2.867585e+00 -2.270824e+01 3.612181e+00 -2.264665e+01 3.464226e+00 -2.292585e+01 2.692994e+00 -2.175533e+01 3.954325e-01 -1.947709e+01 -3.437505e+00 -1.533838e+01 -8.701061e+00 -1.029700e+01 -1.456042e+01 -4.821828e+00 -2.066582e+01 9.128766e-01 -2.667850e+01 5.842135e+00 -3.075117e+01 8.224798e+00 -3.194315e+01 8.107101e+00 -3.128295e+01 6.926081e+00 -3.018747e+01 5.845512e+00 -2.931401e+01 5.185662e+00 -2.904600e+01 5.326877e+00 -2.943378e+01 5.647390e+00 -2.949727e+01 5.519588e+00 -2.915540e+01 4.961336e+00 -2.796308e+01 3.153661e+00 -2.560634e+01 7.780129e-01 -2.350927e+01 -3.117599e-01 -2.366754e+01 1.451630e+00 -2.605358e+01 4.456926e+00 -2.870285e+01 7.111146e+00 -3.064559e+01 9.037847e+00 -3.155828e+01 9.445184e+00 -3.046890e+01 7.624324e+00 -2.698187e+01 3.191160e+00 -2.114478e+01 -2.957489e+00 -1.407983e+01 -1.009301e+01 -4.855996e+00 -1.783960e+01 
-1.710344e+01 2.888541e+00 -1.895494e+01 5.132543e+00 -5.733783e+00 5.337018e+00 -1.841124e+01 5.211659e+00 -2.509393e+01 4.787927e+00 -2.898377e+01 3.217434e+00 -3.096232e+01 1.281823e+00 -3.211412e+01 -8.894511e-01 -3.254877e+01 -3.490425e+00 -3.207140e+01 -5.777944e+00 -3.206246e+01 -6.593011e+00 -3.327380e+01 -6.194682e+00 -3.495335e+01 -5.257058e+00 -3.643801e+01 -4.684687e+00 -3.738162e+01 -4.423760e+00 -3.775983e+01 -4.739469e+00 -3.748293e+01 -5.197891e+00 -3.734314e+01 -5.366178e+00 -3.732255e+01 -5.368858e+00 -3.761524e+01 -4.546419e+00 -3.875334e+01 -3.093228e+00 -3.979440e+01 -2.360827e+00 -3.915763e+01 -3.391798e+00 -3.698532e+01 -4.951038e+00 -3.461602e+01 -5.970598e+00 -3.227693e+01 -6.746720e+00 -3.002820e+01 -6.960086e+00 -2.856946e+01 -6.272208e+00 -2.794837e+01 -4.349014e+00 -2.820467e+01 -1.687055e+00 -2.831612e+01 1.567693e+00 -3.129333e+01 5.542377e+00 
-8.149791e+00 6.121995e+00 -1.120462e+01 6.773172e+00 -8.755704e+00 7.423754e+00 -9.900250e+00 6.867864e+00 -1.315725e+01 5.950334e+00 -1.461274e+01 4.195010e+00 -1.475863e+01 2.200990e+00 -1.427194e+01 9.898843e-02 -1.330864e+01 -2.195219e+00 -1.189605e+01 -4.135915e+00 -1.103997e+01 -4.859385e+00 -1.138072e+01 -4.569895e+00 -1.233074e+01 -3.851368e+00 -1.327586e+01 -3.368821e+00 -1.393901e+01 -3.142562e+00 -1.419623e+01 -3.376079e+00 -1.400857e+01 -3.706300e+00 -1.394338e+01 -3.773636e+00 -1.399171e+01 -3.668462e+00 -1.434197e+01 -2.888218e+00 -1.533461e+01 -1.683292e+00 -1.625192e+01 -1.104511e+00 -1.592111e+01 -1.984407e+00 -1.440103e+01 -3.387366e+00 -1.273981e+01 -4.463582e+00 -1.122029e+01 -5.265052e+00 -9.910475e+00 -5.464487e+00 -9.331363e+00 -4.771082e+00 -9.596171e+00 -2.948937e+00 -1.075073e+01 -4.379256e-01 -1.207601e+01 2.485047e+00 -1.520737e+01 6.304679e+00 
-1.601018e-01 4.712028e-01 -5.571863e-01 -1.929442e-02 -2.260426e+01 -3.522118e-01 1.577312e-01 -2.640768e-02 -9.631255e-02 -2.380116e-02 -1.751237e-01 -1.135560e-02 -1.904047e-01 -9.739705e-04 -1.828809e-01 -1.655447e-03 -1.561440e-01 -3.244677e-02 -1.434604e-01 -4.104705e-02 -1.261985e-01 -5.239071e-02 -1.369167e-01 -6.327362e-02 -1.369073e-01 -4.774268e-02 -1.362983e-01 -4.873552e-02 -1.584030e-01 -3.897839e-02 -1.583448e-01 -2.128448e-02 -1.672414e-01 -3.017181e-02 -1.691247e-01 -2.595198e-02 -1.489292e-01 -3.912056e-02 -1.513667e-01 -6.004818e-02 -1.393316e-01 -5.215602e-02 -1.350635e-01 -5.351683e-02 -1.599736e-01 -3.440400e-02 -1.639043e-01 -9.970693e-03 -1.672137e-01 -2.352184e-02 -1.536924e-01 -1.536591e-02 -1.434529e-01 -2.092901e-02 -1.233751e-01 -3.829759e-02 -9.791297e-02 -5.276902e-02 -7.317354e-02 -5.607728e-02 -5.836680e-02 -5.719013e-02 -3.864278e-02 1.296630e-01 
-1.089550e-01 -1.553993e-01 -3.568677e-01 -3.060655e-01 -2.562542e+01 -3.196974e-01 2.681759e-01 -9.078965e-02 1.621837e-01 -4.394635e-02 8.825270e-02 -2.035310e-02 4.340872e-02 -3.705596e-03 1.186212e-02 7.948750e-03 2.117736e-02 -2.937853e-02 3.868868e-03 -1.240760e-02 2.065352e-02 -7.049309e-03 -4.624272e-03 -2.319287e-02 -3.570171e-03 4.751723e-03 1.072440e-02 -9.913604e-03 -1.389168e-02 -1.090813e-02 6.682266e-03 1.237969e-02 3.131092e-03 -9.390346e-03 -5.413595e-03 1.084228e-02 1.568369e-02 6.872508e-03 -1.183413e-02 -1.256651e-02 -6.935399e-03 1.300033e-02 5.138128e-04 -4.477786e-03 -2.452368e-02 9.189614e-04 -2.270357e-03 2.044877e-02 2.568290e-03 -2.082919e-02 1.776950e-02 -1.275037e-03 4.291826e-03 1.242854e-02 -7.174720e-03 1.688514e-02 -1.782462e-02 1.826337e-02 -3.309760e-02 1.919491e-02 -5.921088e-02 3.305224e-02 -7.976507e-02 2.244610e-01 
-1.774440e-01 -4.298845e-02 -3.546960e-01 -3.999804e-01 -3.263985e+01 -5.180446e-01 2.494530e-01 -6.721963e-02 1.813995e-01 -4.487013e-02 1.081566e-01 -2.476022e-02 5.837647e-02 -1.020036e-04 3.780896e-03 3.155844e-02 3.529658e-02 -5.723223e-02 2.420957e-03 -1.474083e-02 5.120301e-02 -3.483162e-03 -2.302674e-02 -4.998933e-02 -7.690372e-03 2.059062e-02 2.963699e-02 -1.867892e-02 -4.071281e-02 -2.442652e-02 2.403554e-02 3.350727e-02 2.533230e-03 -3.086798e-02 -1.814814e-02 2.241850e-02 4.540259e-02 1.439810e-02 -3.468526e-02 -3.590656e-02 -5.796094e-03 3.666800e-02 1.840351e-02 -1.001552e-02 -5.512679e-02 -1.981257e-03 6.130930e-03 5.478198e-02 -5.528468e-04 -5.371320e-02 5.052397e-02 3.505983e-03 1.291452e-02 2.576933e-02 -7.010075e-03 2.817722e-02 -2.082305e-02 2.715973e-02 -3.899075e-02 2.920665e-02 -6.775095e-02 4.591539e-02 -1.081812e-01 1.263962e-01 
-1.036628e-01 2.103471e-02 -1.741374e-01 -4.987653e-01 -3.391071e+01 -3.638167e-01 1.247687e-01 -8.932688e-02 1.345345e-01 -6.507045e-02 8.837089e-02 -3.941045e-02 4.039479e-02 -3.889786e-04 -3.818630e-02 6.732059e-02 6.373064e-02 -1.054022e-01 -2.240727e-02 -1.778238e-02 8.462952e-02 2.548301e-02 -3.566344e-02 -8.350089e-02 -1.300914e-02 5.291849e-02 6.578202e-02 -1.839366e-02 -6.583805e-02 -4.560319e-02 4.003487e-02 7.098353e-02 1.178182e-03 -6.647034e-02 -3.948179e-02 3.099967e-02 7.580775e-02 3.120715e-02 -6.074266e-02 -6.824206e-02 -1.979728e-03 7.362514e-02 4.574639e-02 -1.640763e-02 -8.146918e-02 -9.470735e-03 1.901821e-02 1.026978e-01 -2.691428e-02 -1.012798e-01 6.685625e-02 -3.898514e-03 4.977788e-03 2.476632e-02 -1.552020e-02 3.034543e-02 -2.538441e-02 3.401609e-02 -3.730715e-02 4.252957e-02 -5.530613e-02 6.427145e-02 -7.518704e-02 1.035458e-01 
-1.220952e-01 4.696568e-02 -1.566264e-01 -4.963918e-01 -3.828879e+01 -5.275770e-01 8.736436e-02 -8.158813e-02 1.322366e-01 -6.546015e-02 1.017816e-01 -4.864656e-02 6.394482e-02 5.270352e-03 -1.166047e-01 2.821552e-01 1.806193e-01 -1.450652e-01 -5.270758e-02 1.228482e-01 2.217709e-01 1.093077e-01 -8.473752e-02 -1.419647e-01 -1.020022e-02 2.307438e-01 1.834935e-01 -3.377385e-02 -1.554715e-01 -6.217150e-02 1.366157e-01 2.295873e-01 2.134024e-02 -1.735683e-01 -8.839716e-02 1.331921e-01 2.193197e-01 8.877111e-02 -1.322386e-01 -1.853921e-01 2.614693e-02 2.277292e-01 1.527539e-01 -6.064638e-02 -1.738021e-01 -5.578475e-02 9.298575e-02 3.019366e-01 -8.732456e-02 -3.514745e-01 1.843967e-01 2.989866e-02 -9.652957e-03 4.769182e-02 -2.978083e-02 3.999030e-02 -3.239323e-02 3.814783e-02 -4.262109e-02 4.348727e-02 -6.265782e-02 5.759515e-02 -9.050862e-02 7.600769e-02 
-5.871386e-02 6.515394e-02 -3.824562e-02 -5.746986e-01 -3.836753e+01 -3.928715e-01 9.883448e-03 -9.410904e-02 8.182210e-02 -8.714660e-02 7.953810e-02 -7.730052e-02 6.009224e-02 -4.481250e-03 -2.920805e-01 1.566642e+00 4.245188e+00 2.737046e+00 8.229533e-01 3.277359e+00 2.563481e+00 8.993482e-01 2.710534e+00 2.964741e+00 6.643574e-01 2.711829e+00 3.476901e+00 1.121400e+00 1.952293e+00 3.463097e+00 1.489181e+00 1.548185e+00 3.496828e+00 2.129804e+00 9.412194e-01 3.323779e+00 2.774356e+00 7.986049e-01 2.786648e+00 2.844423e+00 7.840037e-01 2.532153e+00 3.356946e+00 9.603222e-01 1.817757e+00 3.032560e+00 1.362106e+00 1.649720e+00 3.672904e+00 2.131655e+00 4.140233e-01 9.762378e-02 -4.150296e-02 5.974191e-02 -4.079305e-02 4.751821e-02 -3.397550e-02 4.620617e-02 -3.546207e-02 5.345772e-02 -4.301162e-02 6.745082e-02 -5.175230e-02 7.963553e-02 
-6.227461e-02 6.987828e-02 -2.247824e-02 -5.765265e-01 -4.100570e+01 -4.876868e-01 -1.832109e-02 -9.627798e-02 7.491285e-02 -9.577194e-02 9.868926e-02 -1.343011e-01 1.973677e-01 -2.436025e-01 -5.749868e-02 6.102953e+00 2.106832e+01 1.418479e+01 5.393397e+00 1.620876e+01 1.342246e+01 3.829144e+00 1.552037e+01 1.704588e+01 4.215627e+00 1.343814e+01 1.907187e+01 6.324875e+00 1.195626e+01 2.023217e+01 8.155459e+00 7.400818e+00 2.011181e+01 1.352740e+01 6.093900e+00 1.856328e+01 1.544028e+01 4.238667e+00 1.681553e+01 1.841820e+01 4.528470e+00 1.364308e+01 1.937825e+01 6.412274e+00 1.148188e+01 1.925979e+01 7.735462e+00 8.493576e+00 2.352171e+01 1.735197e+01 8.272934e-01 4.028019e-01 -2.705989e-01 8.534005e-02 -7.937631e-02 4.907407e-02 -3.958244e-02 4.474884e-02 -3.702825e-02 5.009482e-02 -4.593885e-02 6.022509e-02 -5.714208e-02 6.991757e-02 
-1.212284e-02 7.463946e-02 5.327393e-02 -6.270182e-01 -4.022421e+01 -3.712309e-01 -6.192213e-02 -1.008630e-01 3.742210e-02 -1.166249e-01 9.229827e-02 -2.042734e-01 2.491020e-01 -5.663906e-01 5.005984e-01 4.670375e+00 1.629461e+01 1.010520e+01 4.890131e+00 1.282113e+01 1.069351e+01 2.719605e+00 1.321917e+01 1.343637e+01 3.674982e+00 1.130665e+01 1.565230e+01 4.861176e+00 1.059272e+01 1.679769e+01 6.567095e+00 6.480359e+00 1.717611e+01 1.098679e+01 5.430893e+00 1.608495e+01 1.269674e+01 3.675640e+00 1.486990e+01 1.551841e+01 3.679678e+00 1.226144e+01 1.641690e+01 5.477975e+00 1.036848e+01 1.682033e+01 6.215544e+00 8.289899e+00 2.133420e+01 1.526785e+01 2.437343e-02 5.534956e-01 -2.476073e-01 1.274083e-01 -7.861595e-02 6.091885e-02 -3.494706e-02 5.137256e-02 -2.562397e-02 5.631166e-02 -2.456429e-02 6.600348e-02 -2.229179e-02 7.423494e-02 
-1.172525e-02 7.513890e-02 6.518129e-02 -6.325575e-01 -4.160394e+01 -4.176135e-01 -8.234451e-02 -9.207260e-02 1.582496e-02 -7.752939e-02 3.460357e-02 -6.254825e-02 1.664639e-02 -1.086397e-02 2.716224e-01 -5.684328e+00 -1.779094e+01 -1.184879e+01 -4.220509e+00 -1.393663e+01 -1.066168e+01 -3.545032e+00 -1.307536e+01 -1.389963e+01 -3.199174e+00 -1.153671e+01 -1.529377e+01 -5.126310e+00 -1.013581e+01 -1.644146e+01 -6.161203e+00 -6.421114e+00 -1.643673e+01 -1.057109e+01 -5.114312e+00 -1.532898e+01 -1.199571e+01 -3.441807e+00 -1.401588e+01 -1.443825e+01 -3.558633e+00 -1.133541e+01 -1.527711e+01 -4.788101e+00 -9.694079e+00 -1.514631e+01 -5.972708e+00 -7.168043e+00 -1.905525e+01 -1.331464e+01 -3.028873e-01 -1.928378e-01 1.132519e-01 1.991324e-02 1.873283e-02 3.835866e-02 -8.031557e-03 4.405382e-02 -1.778313e-02 5.111361e-02 -2.290890e-02 6.009873e-02 -2.289353e-02 6.916399e-02 
2.518935e-02 7.384869e-02 1.145639e-01 -6.512282e-01 -4.018330e+01 -3.242981e-01 -1.117787e-01 -8.034608e-02 -2.998742e-02 -5.071483e-02 -3.319757e-02 3.091841e-02 -1.595960e-01 2.806460e-01 -4.036681e-02 -5.582650e+00 -2.061688e+01 -1.370694e+01 -5.580879e+00 -1.579920e+01 -1.351139e+01 -3.665939e+00 -1.560063e+01 -1.700005e+01 -4.372584e+00 -1.340802e+01 -1.930208e+01 -6.326928e+00 -1.217247e+01 -2.047101e+01 -8.328887e+00 -7.476673e+00 -2.049761e+01 -1.376594e+01 -6.248010e+00 -1.894420e+01 -1.577002e+01 -4.339730e+00 -1.724786e+01 -1.893091e+01 -4.617206e+00 -1.405652e+01 -1.990904e+01 -6.662456e+00 -1.183412e+01 -2.001465e+01 -7.898787e+00 -8.916940e+00 -2.450385e+01 -1.829876e+01 -7.541459e-01 -4.708387e-01 2.663854e-01 -4.669827e-02 5.622125e-02 1.897115e-02 8.289269e-03 3.958189e-02 -2.697577e-03 5.152484e-02 -2.476536e-03 6.176626e-02 5.680917e-03 7.025836e-02 
2.547443e-02 7.302219e-02 1.217296e-01 -6.503352e-01 -4.062977e+01 -3.505336e-01 -1.227688e-01 -7.951237e-02 -4.045968e-02 -4.993499e-02 -3.828476e-02 1.229032e-03 -8.973754e-02 1.171857e-01 -3.524403e-02 -1.048347e+00 -3.580496e+00 -1.861453e+00 -1.120597e+00 -2.674804e+00 -2.583466e+00 -5.566374e-01 -2.780535e+00 -2.743978e+00 -8.828206e-01 -2.583923e+00 -3.667090e+00 -1.026712e+00 -2.171720e+00 -3.638703e+00 -1.693931e+00 -1.568629e+00 -3.867021e+00 -2.360218e+00 -1.093396e+00 -3.684701e+00 -3.133309e+00 -9.033142e-01 -3.199532e+00 -3.413275e+00 -8.612195e-01 -2.965990e+00 -3.935500e+00 -1.295648e+00 -2.132118e+00 -3.906434e+00 -1.509300e+00 -2.136555e+00 -4.729327e+00 -3.203380e+00 -3.188740e-01 -2.050425e-01 9.006935e-02 -3.452582e-02 3.635391e-02 1.359300e-02 1.031798e-02 3.415628e-02 1.362730e-04 4.656944e-02 -1.222786e-03 5.692255e-02 5.863259e-03 6.660218e-02 
5.118487e-02 6.893408e-02 1.532921e-01 -6.482192e-01 -3.873385e+01 -2.754969e-01 -1.378867e-01 -7.079738e-02 -6.771159e-02 -4.383202e-02 -6.032052e-02 -9.170296e-03 -7.339569e-02 9.984642e-03 1.480562e-02 -3.066274e-01 6.691896e-02 2.581429e-01 -2.668610e-02 -9.535189e-02 -1.834656e-01 -3.632236e-02 1.122982e-01 1.919304e-01 -4.870512e-02 -2.284158e-01 -1.450818e-01 7.930412e-02 1.358790e-01 7.576040e-02 -1.423972e-01 -2.273345e-01 -1.413046e-02 2.012550e-01 7.692482e-02 -1.427965e-01 -2.049579e-01 -9.233528e-02 1.068824e-01 1.877973e-01 -9.586016e-03 -2.597605e-01 -1.708503e-01 3.605723e-02 1.485752e-01 3.284558e-02 -5.495322e-02 -3.588481e-01 -2.580798e-02 3.654977e-01 -1.206301e-01 -4.417382e-02 3.887810e-02 -2.406193e-02 3.236823e-02 1.067778e-02 1.715686e-02 3.176933e-02 1.176929e-02 4.555494e-02 1.519445e-02 5.629651e-02 2.740165e-02 6.519058e-02 
4.988532e-02 6.747816e-02 1.551405e-01 -6.352986e-01 -3.845616e+01 -2.956993e-01 -1.399160e-01 -7.369765e-02 -6.645182e-02 -4.948625e-02 -5.171313e-02 -2.609449e-02 -4.804122e-02 -1.947180e-02 -7.309617e-04 -1.425364e-01 8.724216e-02 2.169059e-02 -6.603111e-03 -6.518516e-02 -6.063954e-02 -1.534536e-02 6.180582e-02 3.285416e-02 -1.946456e-02 -7.483715e-02 -4.247338e-02 1.710642e-02 6.473410e-02 1.860677e-02 -4.735637e-02 -6.620900e-02 1.039247e-02 5.739796e-02 3.595427e-02 -2.526088e-02 -7.179797e-02 -3.025240e-02 5.653265e-02 6.807393e-02 6.554104e-03 -5.407856e-02 -5.875050e-02 7.219344e-03 7.383192e-02 4.430383e-02 -9.826121e-03 -7.321805e-02 -3.149438e-02 1.429058e-01 -4.375686e-02 3.951412e-03 1.740593e-02 -3.655757e-05 1.878618e-02 1.655507e-02 1.264070e-02 3.101599e-02 1.051107e-02 4.253438e-02 1.450902e-02 5.264874e-02 2.645700e-02 6.217154e-02 
6.659799e-02 6.243234e-02 1.738610e-01 -6.218907e-01 -3.619656e+01 -2.319979e-01 -1.431634e-01 -6.932253e-02 -7.841170e-02 -5.121392e-02 -5.780002e-02 -3.643280e-02 -4.439407e-02 -3.321570e-02 -1.675925e-02 -7.764576e-02 4.166533e-02 -2.693343e-02 -8.954175e-03 -4.528617e-02 -1.522954e-02 -9.403660e-03 1.590275e-02 -4.592269e-03 -1.075472e-02 -3.274590e-02 -9.044533e-03 1.852470e-03 1.638646e-02 -1.747021e-03 -1.210798e-02 -2.024986e-02 1.630603e-03 1.392978e-02 1.024346e-02 -9.356940e-03 -1.806645e-02 -6.754209e-03 1.290214e-02 2.136423e-02 6.136515e-03 -1.287643e-02 -1.684306e-02 3.374725e-03 2.084091e-02 2.190503e-02 2.181774e-03 -5.955298e-03 -3.121021e-02 6.457696e-02 -9.628426e-03 1.787890e-02 1.072417e-02 1.251944e-02 1.447580e-02 2.125732e-02 1.483640e-02 3.192132e-02 1.790048e-02 4.194501e-02 2.606325e-02 5.114049e-02 4.131892e-02 5.945829e-02 
6.334127e-02 6.051993e-02 1.705959e-01 -5.988025e-01 -3.533022e+01 -2.475644e-01 -1.391787e-01 -7.249568e-02 -7.145036e-02 -5.627822e-02 -4.769787e-02 -4.353029e-02 -3.441836e-02 -2.852816e-02 -4.663852e-02 2.617055e-03 3.368902e-02 -9.219599e-02 -2.037834e-02 -2.677281e-02 4.324969e-02 1.203420e-02 -2.847035e-02 -5.590111e-02 -7.398000e-03 2.049446e-02 3.100843e-02 -1.344846e-02 -3.887112e-02 -2.849001e-02 2.841232e-02 3.316897e-02 -9.085558e-03 -3.876376e-02 -1.784274e-02 1.610890e-02 4.041425e-02 1.262176e-02 -3.791008e-02 -3.310915e-02 1.378797e-02 4.155664e-02 2.169302e-02 -1.241041e-02 -3.768629e-02 5.131304e-03 2.684637e-02 7.103339e-02 -5.647636e-02 -2.463622e-02 4.149550e-02 2.167001e-02 6.194183e-03 2.376069e-02 5.298932e-03 2.649270e-02 9.148396e-03 3.256856e-02 1.468449e-02 4.015169e-02 2.370182e-02 4.832124e-02 3.880556e-02 5.671489e-02 
7.301259e-02 5.519395e-02 1.799049e-01 -5.809139e-01 -3.278535e+01 -1.880931e-01 -1.342638e-01 -6.991364e-02 -7.437550e-02 -6.134115e-02 -4.476767e-02 -5.684480e-02 -2.596174e-02 -2.858980e-02 -1.029269e-01 1.571670e-01 9.805661e-02 -7.565110e-02 -4.393212e-02 1.083674e-01 1.210777e-01 6.938553e-02 -3.884514e-02 -5.395538e-02 -5.654337e-03 1.579765e-01 1.068712e-01 -1.413140e-02 -6.873751e-02 -1.737551e-03 8.201379e-02 1.335485e-01 2.562115e-02 -8.733248e-02 -3.586819e-02 1.029576e-01 1.253349e-01 4.367280e-02 -4.527128e-02 -8.621217e-02 3.232515e-02 1.453923e-01 9.763248e-02 -4.079194e-02 -6.089783e-02 -8.167237e-03 7.733080e-02 1.820382e-01 -4.326178e-02 -1.851278e-01 1.083494e-01 3.285498e-02 -2.512693e-03 3.939119e-02 -2.941903e-03 3.312344e-02 8.285830e-03 3.417293e-02 1.891976e-02 3.940539e-02 3.114820e-02 4.618464e-02 4.811727e-02 5.327593e-02 
6.793470e-02 5.266936e-02 1.722772e-01 -5.513755e-01 -3.142784e+01 -1.965689e-01 -1.266570e-01 -7.124657e-02 -6.522210e-02 -6.596266e-02 -3.199839e-02 -7.133625e-02 3.173240e-03 -6.016181e-02 -1.617739e-01 8.762532e-01 3.909866e+00 3.049920e+00 8.637666e-01 2.987086e+00 2.745364e+00 8.224090e-01 2.636853e+00 3.315755e+00 8.115060e-01 2.355434e+00 3.663901e+00 1.388336e+00 1.882735e+00 3.720719e+00 1.775403e+00 1.256019e+00 3.605378e+00 2.664981e+00 9.770917e-01 3.281790e+00 3.092872e+00 8.142174e-01 2.850099e+00 3.421442e+00 9.191649e-01 2.317344e+00 3.683716e+00 1.312477e+00 1.831986e+00 3.447644e+00 1.681804e+00 1.359004e+00 4.124119e+00 3.270867e+00 3.981625e-01 1.194327e-01 -4.965865e-02 4.680230e-02 -1.666443e-02 3.513025e-02 2.750349e-03 3.391954e-02 1.548088e-02 3.760335e-02 2.797058e-02 4.349033e-02 4.431723e-02 5.038218e-02 
7.222086e-02 4.709267e-02 1.746023e-01 -5.316744e-01 -2.866084e+01 -1.370217e-01 -1.173612e-01 -6.623171e-02 -6.550920e-02 -7.081536e-02 -2.239290e-02 -1.114819e-01 7.394940e-02 -2.331886e-01 -3.281298e-02 2.190245e+00 1.133877e+01 8.745097e+00 2.894410e+00 8.559693e+00 8.011483e+00 2.134051e+00 8.272545e+00 9.987665e+00 2.574834e+00 6.844639e+00 1.098882e+01 4.116240e+00 6.127096e+00 1.142103e+01 5.242586e+00 3.618751e+00 1.117767e+01 8.325437e+00 3.182027e+00 1.006267e+01 9.244009e+00 2.440641e+00 9.105496e+00 1.085513e+01 2.721020e+00 7.084690e+00 1.125239e+01 4.210134e+00 5.958137e+00 1.097514e+01 4.941223e+00 4.149234e+00 1.330460e+01 1.097861e+01 7.088532e-01 3.465603e-01 -1.628368e-01 7.138587e-02 -3.563409e-02 3.767246e-02 2.376654e-03 3.275406e-02 1.916317e-02 3.538005e-02 3.289923e-02 4.043544e-02 4.948445e-02 4.632135e-02 
6.567537e-02 4.374547e-02 1.633393e-01 -4.963690e-01 -2.689301e+01 -1.385288e-01 -1.083950e-01 -6.202545e-02 -5.866860e-02 -6.386289e-02 -1.966238e-02 -9.612098e-02 6.048762e-02 -2.208382e-01 1.628437e-01 6.787493e-01 4.103092e+00 2.917809e+00 1.294677e+00 3.098699e+00 3.091237e+00 6.203797e-01 3.326878e+00 3.746257e+00 1.112768e+00 2.654219e+00 4.356778e+00 1.506701e+00 2.562616e+00 4.536996e+00 2.105452e+00 1.453769e+00 4.567989e+00 3.306709e+00 1.333512e+00 4.143838e+00 3.728546e+00 1.010138e+00 3.804421e+00 4.462415e+00 1.066425e+00 3.022349e+00 4.624127e+00 1.796267e+00 2.499739e+00 4.659145e+00 1.932254e+00 1.931243e+00 5.728632e+00 4.718649e+00 1.478576e-01 2.341790e-01 -9.444367e-02 6.242786e-02 -2.049499e-02 3.489652e-02 4.782289e-03 3.052516e-02 1.781613e-02 3.268629e-02 2.978648e-02 3.725636e-02 4.483115e-02 4.290354e-02 
6.588389e-02 3.796246e-02 1.600696e-01 -4.721725e-01 -2.396656e+01 -8.068129e-02 -9.820753e-02 -4.740403e-02 -6.688755e-02 -3.470881e-02 -5.547156e-02 -3.115611e-03 -8.841396e-02 8.677420e-02 1.007183e-01 -2.280159e+00 -1.105484e+01 -8.565858e+00 -2.690303e+00 -8.396201e+00 -7.640919e+00 -2.198393e+00 -7.986557e+00 -9.624407e+00 -2.383878e+00 -6.688288e+00 -1.048643e+01 -3.972009e+00 -5.906621e+00 -1.094621e+01 -4.914761e+00 -3.541137e+00 -1.070715e+01 -7.891558e+00 -3.051032e+00 -9.667346e+00 -8.740109e+00 -2.317575e+00 -8.761124e+00 -1.027083e+01 -2.577344e+00 -6.799764e+00 -1.067684e+01 -3.904018e+00 -5.760300e+00 -1.037467e+01 -4.680816e+00 -3.950645e+00 -1.269607e+01 -1.030608e+01 -6.390813e-01 -2.432181e-01 1.258082e-01 -6.756519e-03 3.847669e-02 1.788594e-02 2.205698e-02 2.424237e-02 2.447076e-02 2.864124e-02 3.337478e-02 3.331236e-02 4.688819e-02 3.833014e-02 
5.821514e-02 3.392849e-02 1.456385e-01 -4.305450e-01 -2.186370e+01 -7.891966e-02 -8.909377e-02 -4.089004e-02 -6.334777e-02 -2.484608e-02 -6.130313e-02 1.578918e-02 -1.130439e-01 1.243517e-01 -2.099226e-02 -1.486193e+00 -8.094147e+00 -6.190256e+00 -2.162366e+00 -6.053207e+00 -5.885106e+00 -1.507381e+00 -5.941766e+00 -7.195954e+00 -1.932154e+00 -4.913717e+00 -8.047843e+00 -2.991109e+00 -4.407157e+00 -8.298309e+00 -3.915218e+00 -2.623229e+00 -8.147437e+00 -6.103814e+00 -2.305112e+00 -7.338890e+00 -6.850716e+00 -1.803220e+00 -6.598461e+00 -7.987702e+00 -2.013982e+00 -5.197939e+00 -8.306754e+00 -3.139543e+00 -4.289488e+00 -8.120384e+00 -3.667459e+00 -3.065426e+00 -9.743615e+00 -8.136487e+00 -6.053928e-01 -2.588736e-01 1.378322e-01 -2.269522e-02 4.363501e-02 9.472455e-03 2.313003e-02 1.930013e-02 2.287143e-02 2.469967e-02 2.980570e-02 2.945796e-02 4.142963e-02 3.431520e-02 
5.522542e-02 2.828033e-02 1.374430e-01 -4.024825e-01 -1.884937e+01 -2.806002e-02 -7.550980e-02 -3.247034e-02 -6.121482e-02 -2.177305e-02 -5.524242e-02 -4.827764e-03 -5.978244e-02 1.327102e-02 -9.876383e-03 -2.423733e-01 -4.810461e-01 -1.273484e-01 -1.813008e-01 -3.893817e-01 -4.708363e-01 -8.386303e-02 -3.416850e-01 -2.949910e-01 -1.620927e-01 -4.400042e-01 -5.873956e-01 -1.169674e-01 -2.356317e-01 -4.813413e-01 -3.292247e-01 -2.949441e-01 -5.460739e-01 -2.626221e-01 -1.156896e-01 -5.806257e-01 -5.424248e-01 -1.610798e-01 -3.934474e-01 -4.160331e-01 -1.331748e-01 -5.195413e-01 -6.235436e-01 -1.819307e-01 -2.104453e-01 -5.526521e-01 -2.595707e-01 -4.358170e-01 -6.512531e-01 -3.224795e-01 -1.154411e-01 -4.799392e-02 2.985713e-02 -1.391578e-02 2.652774e-02 5.190053e-03 2.223621e-02 1.480407e-02 2.387201e-02 2.061157e-02 3.018305e-02 2.523111e-02 4.047883e-02 2.952226e-02 
4.668466e-02 2.396295e-02 1.204408e-01 -3.567793e-01 -1.647731e+01 -2.378355e-02 -6.406294e-02 -2.743470e-02 -5.290899e-02 -1.852486e-02 -4.711161e-02 -8.414503e-03 -4.282793e-02 -1.431167e-02 1.690271e-02 -1.510288e-01 3.909552e-02 9.368784e-02 -5.924239e-03 -5.304192e-02 -9.949831e-02 -2.724701e-02 7.280156e-02 7.287722e-02 -2.511670e-02 -9.620435e-02 -6.229072e-02 2.786582e-02 8.378420e-02 3.085292e-02 -7.649510e-02 -8.796375e-02 1.897713e-02 8.280490e-02 3.959970e-02 -4.969345e-02 -9.803337e-02 -3.256459e-02 8.017058e-02 8.539702e-02 -1.358991e-02 -9.175678e-02 -6.477304e-02 2.394464e-02 9.398005e-02 3.188960e-02 -4.328974e-02 -1.258746e-01 2.656767e-02 1.688581e-01 -8.367765e-02 -4.602013e-03 1.434756e-02 -7.181996e-03 2.137849e-02 4.093985e-03 1.939177e-02 1.183887e-02 2.063661e-02 1.707169e-02 2.566833e-02 2.131350e-02 3.420228e-02 2.523338e-02 
4.125620e-02 1.868575e-02 1.079631e-01 -3.229196e-01 -1.343052e+01 1.738553e-02 -4.832819e-02 -2.178512e-02 -4.522166e-02 -1.766071e-02 -3.686526e-02 -1.475014e-02 -2.605831e-02 -2.292414e-02 3.190765e-03 -6.756135e-02 1.884416e-02 1.515890e-02 -5.252601e-03 -2.540250e-02 -3.379009e-02 -8.576741e-03 1.952745e-02 1.768292e-02 -7.501935e-03 -3.466107e-02 -2.001894e-02 8.127312e-03 2.515454e-02 7.033508e-03 -1.996956e-02 -2.722502e-02 4.474772e-03 2.598688e-02 1.448780e-02 -1.594590e-02 -2.892286e-02 -8.809653e-03 2.389214e-02 2.888553e-02 1.871476e-03 -2.761603e-02 -2.008137e-02 7.748384e-03 3.258852e-02 1.274968e-02 -5.457509e-03 -3.000512e-02 -6.701913e-03 6.976276e-02 -2.738330e-02 1.547451e-02 2.483939e-03 3.164410e-03 1.210410e-02 5.485286e-03 1.525885e-02 9.873753e-03 1.838515e-02 1.383654e-02 2.336605e-02 1.731881e-02 3.076869e-02 2.051314e-02 
3.215789e-02 1.436397e-02 8.914767e-02 -2.746575e-01 -1.084309e+01 2.467379e-02 -3.524662e-02 -1.718727e-02 -3.513089e-02 -1.484022e-02 -2.758176e-02 -1.421548e-02 -1.664908e-02 -2.240446e-02 6.705660e-03 -4.627547e-02 9.120051e-03 6.439858e-03 -1.441581e-03 -1.642680e-02 -2.347587e-02 -7.378718e-03 1.167864e-02 9.985252e-03 -4.097591e-03 -2.207993e-02 -1.385706e-02 3.839423e-03 1.665908e-02 3.522507e-03 -1.310057e-02 -1.612717e-02 2.974373e-03 1.518452e-02 9.268979e-03 -1.075735e-02 -1.874711e-02 -3.917080e-03 1.623409e-02 1.694586e-02 3.182192e-04 -1.708482e-02 -1.158215e-02 6.195546e-03 2.201187e-02 6.465261e-03 -4.648605e-03 -1.474691e-02 -3.481648e-03 4.587991e-02 -2.327014e-02 1.641271e-02 -1.618345e-03 5.019802e-03 8.005900e-03 5.003195e-03 1.155322e-02 7.759882e-03 1.428458e-02 1.074328e-02 1.817726e-02 1.354434e-02 2.391936e-02 1.617641e-02 
2.496782e-02 9.491389e-03 7.334300e-02 -2.354481e-01 -7.807332e+00 5.721546e-02 -1.916784e-02 -1.192603e-02 -2.602731e-02 -1.209395e-02 -1.930028e-02 -1.275894e-02 -1.061649e-02 -1.750040e-02 1.173058e-03 -2.479135e-02 3.026887e-03 -5.746722e-03 -1.437644e-03 -9.821627e-03 -9.029479e-03 -4.456506e-03 1.659956e-03 7.182456e-04 -1.801082e-03 -9.144810e-03 -5.312291e-03 -2.951206e-05 4.418186e-03 -2.232476e-04 -3.513269e-03 -5.653259e-03 2.190169e-04 4.259552e-03 3.200300e-03 -4.107814e-03 -5.600733e-03 -1.120892e-03 4.741036e-03 5.443136e-03 1.657188e-03 -5.530440e-03 -3.183209e-03 2.344064e-03 7.539387e-03 3.410555e-03 -8.909919e-04 -6.355652e-06 -6.160514e-03 2.260135e-02 -1.012196e-02 1.388746e-02 -1.869808e-03 6.853492e-03 4.297584e-03 5.215962e-03 7.957582e-03 6.148135e-03 1.087879e-02 7.881351e-03 1.426356e-02 9.770122e-03 1.874717e-02 1.161248e-02 
1.571138e-02 5.208086e-03 5.358532e-02 -1.859210e-01 -5.051592e+00 6.828385e-02 -5.380186e-03 -6.882040e-03 -1.609661e-02 -8.242908e-03 -1.126442e-02 -9.461244e-03 -4.671523e-03 -1.320243e-02 3.421955e-03 -1.700053e-02 3.191976e-03 -4.475232e-03 1.648864e-04 -6.312893e-03 -5.631483e-03 -2.925454e-03 1.270907e-03 2.907895e-04 -9.056955e-04 -5.711011e-03 -3.461447e-03 -1.082856e-04 3.015937e-03 -3.209347e-04 -2.214061e-03 -3.348210e-03 2.702015e-04 2.449141e-03 2.026599e-03 -2.725136e-03 -3.628029e-03 -4.542893e-04 3.312312e-03 3.050677e-03 9.801238e-04 -3.506162e-03 -1.838504e-03 1.666702e-03 4.938839e-03 1.987042e-03 -1.215357e-03 1.133156e-03 -4.944671e-03 1.540020e-02 -9.040477e-03 1.092950e-02 -3.405594e-03 5.625932e-03 1.576714e-03 3.735637e-03 4.590583e-03 3.898799e-03 6.724037e-03 4.858944e-03 8.927371e-03 6.053207e-03 1.174437e-02 7.266790e-03 
7.343900e-03 6.548352e-04 3.559042e-02 -1.434327e-01 -2.066621e+00 9.444005e-02 1.025824e-02 -1.404303e-03 -6.793527e-03 -4.127987e-03 -4.111990e-03 -5.515741e-03 -4.510499e-04 -7.780652e-03 3.130242e-03 -9.019238e-03 2.810595e-03 -4.217668e-03 1.150504e-03 -3.534776e-03 -1.417833e-03 -1.605376e-03 3.770691e-04 -4.097229e-04 -1.525799e-04 -2.229999e-03 -1.179277e-03 -2.989809e-04 8.919522e-04 -3.322811e-04 -4.853950e-04 -1.191489e-03 3.306579e-05 6.170545e-04 7.627156e-04 -1.090731e-03 -1.023971e-03 -2.372082e-04 1.070108e-03 8.618939e-04 6.870925e-04 -1.245261e-03 -5.158682e-04 7.177018e-04 1.280254e-03 1.487074e-03 -1.358078e-03 2.579360e-03 -4.255431e-03 8.481158e-03 -5.499594e-03 7.226315e-03 -3.144468e-03 4.225242e-03 -4.277295e-04 2.407914e-03 1.554048e-03 1.829139e-03 2.951919e-03 1.940749e-03 4.160838e-03 2.344740e-03 5.492276e-03 2.825137e-03 
-1.624044e-03 -3.658880e-03 1.579879e-02 -9.378906e-02 8.132341e-01 1.098350e-01 2.424205e-02 4.250770e-03 2.375151e-03 5.207238e-04 2.799897e-03 -1.213965e-03 4.314718e-03 -3.311135e-03 5.791539e-03 -4.312579e-03 4.570667e-03 -1.361680e-03 2.628035e-03 -9.386568e-04 2.666392e-04 1.677744e-04 1.042529e-03 6.876475e-04 4.323545e-04 -6.046546e-04 -4.178493e-04 4.289474e-04 8.363398e-04 2.135203e-04 -1.475747e-04 -3.890312e-04 1.543720e-04 5.226271e-04 5.289075e-04 -6.593415e-04 -6.503951e-04 -1.703481e-04 7.256692e-04 2.773329e-04 3.570620e-04 -1.081059e-03 -4.712277e-04 1.120938e-04 4.867273e-04 5.210958e-04 -1.663732e-03 1.461564e-03 -4.025368e-03 5.197173e-03 -5.447228e-03 4.449191e-03 -4.110755e-03 2.061504e-03 -2.349533e-03 2.466168e-04 -1.226137e-03 -7.308086e-04 -7.976205e-04 -1.186469e-03 -8.521085e-04 -1.405743e-03 -1.210203e-03 -1.557920e-03 
-1.066583e-02 -7.986701e-03 -3.273138e-03 -5.017975e-02 3.707179e+00 1.313734e-01 3.923008e-02 9.868888e-03 1.166866e-02 5.205278e-03 9.664731e-03 3.283937e-03 8.711444e-03 1.435617e-03 7.856507e-03 4.581080e-04 6.024264e-03 1.182587e-03 4.106140e-03 1.362521e-03 2.266670e-03 1.677163e-03 1.766718e-03 1.652011e-03 1.140951e-03 9.878084e-04 4.998207e-04 1.075646e-03 6.955816e-04 7.752960e-04 2.930910e-04 3.604144e-04 2.299378e-04 4.188475e-04 2.924057e-04 -1.810585e-04 -1.598361e-04 -1.928965e-04 1.770544e-04 -2.231161e-04 2.147434e-06 -7.965724e-04 -5.371409e-04 -4.000183e-04 -6.749027e-04 -8.983362e-05 -2.018170e-03 5.770643e-04 -3.659645e-03 2.046672e-03 -4.605399e-03 1.529573e-03 -4.438477e-03 -1.721440e-04 -4.032568e-03 -1.892415e-03 -4.033743e-03 -3.244877e-03 -4.678601e-03 -4.277130e-03 -6.009248e-03 -5.128496e-03 -8.032084e-03 -5.911023e-03 