# vtk DataFile Version 2.0
Comment goes here
ASCII

DATASET STRUCTURED_POINTS
FIELD FieldData 1
TIME 1 1 double
0.06400000
DIMENSIONS    64   64   1

ORIGIN    0.000   0.000   0.000
SPACING   0.03125 0.03125   1.000

POINT_DATA   4096
SCALARS Omega double
LOOKUP_TABLE default

5.667311e-01 -7.352929e-01 1.393191e-02 -8.045088e-01 5.957411e-02 -5.709546e-01 1.003626e-01 -7.239189e-01 5.123743e-02 -6.805285e-01 6.005688e-02 -5.607416e-01 1.063015e-01 -3.521688e-01 1.985340e-01 -4.719805e-02 3.150739e-01 2.284116e-01 4.593467e-01 3.813950e-01 6.742152e-01 5.312370e-01 6.502598e-01 6.300859e-01 6.852452e-01 7.012108e-01 6.798542e-01 6.709004e-01 6.065521e-01 7.674546e-01 5.553660e-01 7.443056e-01 4.901019e-01 7.876162e-01 4.537516e-01 8.409833e-01 4.742851e-01 8.219156e-01 4.274683e-01 8.846443e-01 3.707806e-01 8.962392e-01 3.405003e-01 8.527597e-01 2.985918e-01 8.359590e-01 2.405575e-01 6.341445e-01 1.163840e-01 4.106465e-01 -3.416588e-03 1.899577e-01 -1.721074e-01 4.868733e-02 -2.975049e-01 -5.916816e-02 -3.588715e-01 -1.415905e-01 -3.732729e-01 -2.016252e-01 -3.676624e-01 -2.335250e-01 -3.913329e-01 -3.649493e-01 
-1.424302e+01 -3.942421e+01 -1.261146e+01 -3.240404e+01 -1.952123e+01 -2.715169e+01 -2.547669e+01 -2.298747e+01 -3.204198e+01 -2.104969e+01 -3.573511e+01 -2.032351e+01 -3.772155e+01 -2.035809e+01 -3.906001e+01 -2.019434e+01 -4.139783e+01 -1.821201e+01 -4.557788e+01 -1.418647e+01 -5.116915e+01 -9.276821e+00 -5.681934e+01 -4.246675e+00 -6.235006e+01 7.208500e-01 -6.755399e+01 5.505371e+00 -7.247349e+01 1.010813e+01 -7.746515e+01 1.509923e+01 -8.271572e+01 1.989358e+01 -8.717166e+01 2.291966e+01 -8.931938e+01 2.382002e+01 -8.938481e+01 2.293073e+01 -8.810297e+01 2.124336e+01 -8.630631e+01 1.940587e+01 -8.388996e+01 1.647251e+01 -7.969135e+01 1.169609e+01 -7.295220e+01 5.059944e+00 -6.493024e+01 -2.166515e+00 -5.629556e+01 -9.929617e+00 -4.707187e+01 -1.800720e+01 -3.796711e+01 -2.535333e+01 -2.995125e+01 -3.113169e+01 -2.336005e+01 -3.547183e+01 -1.725838e+01 -3.927473e+01 
-6.276342e+01 1.070659e+01 -5.116398e+01 9.228858e+00 -9.558243e+00 7.172670e+00 -5.221539e+01 1.311761e+00 -6.688896e+01 2.392504e-01 -7.733239e+01 -1.666073e-01 -8.564288e+01 -4.689011e-01 -9.268153e+01 -1.131544e+00 -9.806750e+01 -3.118995e+00 -1.014279e+02 -5.960629e+00 -1.029629e+02 -9.018992e+00 -1.032983e+02 -1.167163e+01 -1.031822e+02 -1.419290e+01 -1.028837e+02 -1.642842e+01 -1.022243e+02 -1.857982e+01 -1.014848e+02 -2.098920e+01 -9.980603e+01 -2.367594e+01 -9.820618e+01 -2.541322e+01 -9.806458e+01 -2.592820e+01 -9.827130e+01 -2.561172e+01 -9.872994e+01 -2.500403e+01 -9.885632e+01 -2.466897e+01 -9.837007e+01 -2.387013e+01 -9.838120e+01 -2.159488e+01 -9.885111e+01 -1.801899e+01 -9.875517e+01 -1.445657e+01 -9.789666e+01 -1.068929e+01 -9.681705e+01 -6.607378e+00 -9.512242e+01 -2.914202e+00 -9.190098e+01 4.857628e-02 -8.651494e+01 2.356108e+00 -7.913130e+01 3.273763e+00 
-3.074105e+01 8.356448e+00 -2.779027e+01 1.175086e+01 -3.432575e+01 5.990982e+00 -1.887230e+01 9.617255e+00 -2.815201e+01 7.597786e+00 -3.425489e+01 6.170951e+00 -3.900164e+01 5.173311e+00 -4.285762e+01 4.051030e+00 -4.545204e+01 1.996150e+00 -4.657201e+01 -1.062312e+00 -4.631516e+01 -3.881387e+00 -4.542039e+01 -6.467053e+00 -4.439933e+01 -8.717387e+00 -4.315943e+01 -1.104179e+01 -4.198808e+01 -1.300049e+01 -4.053303e+01 -1.523417e+01 -3.849624e+01 -1.726202e+01 -3.665948e+01 -1.826428e+01 -3.575009e+01 -1.847335e+01 -3.562522e+01 -1.787121e+01 -3.592054e+01 -1.694062e+01 -3.607210e+01 -1.641013e+01 -3.621155e+01 -1.532365e+01 -3.687783e+01 -1.346510e+01 -3.831651e+01 -1.068153e+01 -3.982942e+01 -7.648092e+00 -4.100641e+01 -4.341191e+00 -4.226856e+01 -9.065613e-01 -4.325471e+01 2.159295e+00 -4.319878e+01 4.279461e+00 -4.158898e+01 6.210398e+00 -4.002375e+01 8.930878e+00 
-3.024564e+00 2.331586e+00 -3.125609e+00 -6.775828e+00 -5.563833e+01 -6.029342e-01 6.399317e+00 3.609450e-01 1.173373e+00 2.451004e-01 -4.871857e-01 2.173683e-01 -1.162068e+00 2.355406e-01 -1.539111e+00 1.082822e-01 -1.566767e+00 -1.760453e-01 -1.627549e+00 -3.033864e-01 -1.450599e+00 -3.836407e-01 -1.624802e+00 -2.589598e-01 -1.695189e+00 -2.009774e-01 -1.632139e+00 -2.380177e-01 -1.748615e+00 -2.013888e-01 -1.565128e+00 -2.954604e-01 -1.496795e+00 -2.281927e-01 -1.450657e+00 -2.283883e-01 -1.123480e+00 -4.399602e-01 -1.116675e+00 -5.035335e-01 -1.036317e+00 -6.188827e-01 -8.794402e-01 -7.269145e-01 -9.000681e-01 -7.340143e-01 -6.696672e-01 -8.931859e-01 -5.487451e-01 -8.475010e-01 -4.059299e-01 -7.588111e-01 -3.853761e-01 -4.438723e-01 -4.048617e-01 -1.194495e-01 -4.927736e-01 1.917748e-01 -6.467096e-01 5.471543e-01 -8.650411e-01 1.061219e+00 -1.154040e+00 2.036800e+00 
-2.468639e+00 2.040570e+00 -2.836711e+00 -6.012604e+00 -7.257722e+01 -2.639222e+00 5.446463e+00 -1.160682e+00 3.061499e+00 -3.208929e-01 1.559554e+00 -3.981040e-02 7.182198e-01 2.592522e-01 1.289536e-01 2.853864e-01 7.240849e-03 -3.866961e-01 3.127361e-03 -2.641807e-01 2.845478e-01 -2.987666e-01 1.103811e-01 -1.414499e-01 -6.393020e-02 3.607422e-02 1.286582e-01 -9.396563e-02 -1.022266e-01 -1.033826e-02 4.502280e-02 -1.132599e-02 4.340221e-02 -2.950401e-02 -2.235195e-01 1.183834e-01 1.201330e-01 -4.273726e-02 -1.063639e-02 1.030482e-02 -1.997230e-01 1.931304e-01 -2.737406e-02 8.506426e-02 -2.628250e-01 1.197570e-01 -7.709195e-02 -2.960302e-02 1.735694e-01 -2.484179e-01 1.505408e-02 -9.688521e-02 -1.469118e-02 1.915920e-01 -1.136965e-01 3.889241e-01 -2.877067e-01 5.340395e-01 -5.071887e-01 7.659069e-01 -8.621289e-01 1.088321e+00 -1.371612e+00 1.108982e+00 
-2.469867e+00 1.326523e+00 -1.672841e+00 -7.069423e+00 -8.264697e+01 -1.762543e+00 4.276381e+00 -1.446762e+00 3.044813e+00 -6.998009e-01 1.787650e+00 -2.304028e-01 8.932954e-01 5.180846e-01 3.982290e-02 9.793074e-01 -3.255743e-01 -1.041931e+00 4.755687e-02 -3.961636e-01 5.902490e-01 -3.367890e-01 1.322537e-01 -3.319464e-01 9.187068e-02 2.901752e-01 2.051415e-01 -1.479473e-01 -1.420246e-01 -5.432311e-02 2.903633e-01 7.997940e-02 5.298071e-02 -9.272699e-02 -2.326159e-01 3.121699e-01 2.689646e-01 -9.199665e-02 -5.419504e-02 -7.605363e-02 -9.855250e-02 4.408818e-01 -9.108206e-02 1.248467e-01 -4.474021e-01 2.996404e-01 -6.526158e-02 -7.402649e-02 -1.064559e-01 -5.119877e-01 2.442736e-01 -2.470707e-01 1.592827e-01 3.948722e-01 -1.208635e-01 6.088466e-01 -4.293853e-01 6.679353e-01 -7.141989e-01 7.987658e-01 -1.066220e+00 1.019329e+00 -1.557922e+00 1.163585e+00 
-2.197264e+00 1.102134e+00 -1.208750e+00 -6.183523e+00 -9.253529e+01 -1.680673e+00 2.285987e+00 -2.164454e+00 2.371661e+00 -1.291261e+00 1.721770e+00 -6.435982e-01 1.010803e+00 6.180264e-01 3.043062e-01 2.439792e+00 -1.170558e+00 -2.305467e+00 3.805732e-01 -6.474432e-02 9.031935e-01 1.921929e-01 1.434323e-01 -1.036219e+00 1.053550e-01 1.228184e+00 1.343512e-01 -4.177618e-01 -2.719110e-01 -5.623013e-01 4.274195e-01 9.111458e-01 1.089605e-02 -8.192345e-01 -4.702665e-01 5.983661e-01 3.954897e-01 2.584463e-01 -3.096521e-03 -7.708983e-01 -1.569085e-01 1.314219e+00 -9.751328e-02 9.664467e-04 -6.163109e-01 9.484907e-02 -6.052770e-02 7.800050e-01 1.993962e-01 -1.220874e+00 2.584740e-01 -1.014944e-01 3.129342e-01 6.205462e-01 -8.282876e-02 7.810512e-01 -4.426809e-01 8.168372e-01 -7.067005e-01 9.585355e-01 -1.019916e+00 1.179555e+00 -1.462458e+00 1.379746e+00 
-1.800006e+00 7.613480e-01 -7.713891e-03 -6.730039e+00 -9.773347e+01 -8.723572e-01 1.481388e+00 -2.176160e+00 1.760698e+00 -1.799440e+00 1.650276e+00 -1.492553e+00 1.253501e+00 -1.023932e-01 9.830005e-01 1.014445e+00 -1.423090e+00 8.086971e-01 1.824081e+00 2.745936e+00 2.431392e+00 2.088081e+00 -2.547486e-01 -1.244328e+00 1.146401e+00 3.606457e+00 2.583956e-01 -3.106944e-01 -4.639279e-01 -3.362079e-01 1.603574e+00 2.458129e+00 -4.021071e-01 -1.923908e+00 -1.846538e-01 2.159425e+00 1.044279e+00 1.529525e-01 -2.450444e-01 -2.305308e+00 7.784086e-01 3.296057e+00 -2.799579e-01 -1.127083e+00 -6.390777e-01 2.627663e-01 5.258805e-01 2.557240e+00 -1.432398e+00 -4.621713e+00 9.470471e-01 -6.137001e-01 8.683096e-01 1.406417e+00 -3.069411e-01 9.758335e-01 -7.358185e-01 7.951381e-01 -8.732519e-01 9.139070e-01 -1.072262e+00 1.131662e+00 -1.397082e+00 1.319414e+00 
-1.400454e+00 5.568835e-01 6.339536e-01 -6.053606e+00 -1.033829e+02 -7.114216e-01 5.001302e-01 -2.395884e+00 9.875304e-01 -2.290471e+00 1.132332e+00 -2.620933e+00 6.389172e-01 -4.498837e+00 4.248144e+00 -1.736228e+01 7.943900e+00 3.075162e+01 1.591039e+01 9.494032e+00 1.660176e+01 1.862197e+01 5.280628e+00 1.441765e+01 1.068596e+01 4.205477e+00 1.079338e+01 1.569297e+01 4.306860e+00 9.033865e+00 1.471331e+01 9.026597e+00 6.406304e+00 1.102102e+01 4.344043e+00 3.520200e+00 1.417312e+01 1.073845e+01 5.379503e+00 6.769066e+00 7.533213e+00 2.073664e+00 9.676503e+00 8.629566e+00 3.714293e+00 5.457619e+00 9.373253e+00 3.343044e+00 7.459951e+00 -3.620776e+00 2.922605e+00 9.037321e-01 1.350631e+00 2.364191e+00 -5.123058e-01 1.158417e+00 -8.683350e-01 8.634023e-01 -8.515381e-01 9.740136e-01 -9.500050e-01 1.176831e+00 -1.185402e+00 1.323620e+00 
-9.313074e-01 2.493577e-01 1.634459e+00 -5.992211e+00 -1.053882e+02 -1.549847e-01 9.716143e-02 -2.109112e+00 3.085907e-01 -2.328522e+00 7.297074e-01 -4.209466e+00 1.926630e+00 -1.194625e+01 1.282433e+01 -3.849217e+01 3.193409e+01 7.191565e+01 4.131905e+01 1.364881e+01 5.516228e+01 4.400393e+01 2.646743e+01 6.203989e+01 4.120980e+01 3.736345e-01 4.393394e+01 5.848111e+01 2.562305e+01 4.559765e+01 6.327211e+01 2.705779e+01 3.077800e+01 6.279228e+01 2.821449e+01 1.038981e+01 6.159536e+01 5.324497e+01 2.736355e+01 6.029777e+01 4.235378e+01 9.871672e-01 4.109997e+01 5.633925e+01 2.637161e+01 3.889920e+01 6.211477e+01 2.575974e+01 2.549372e+01 6.808150e+01 2.727443e+01 2.676695e+01 -1.420974e+00 1.812192e+00 -2.953521e+00 -8.381247e-02 -1.410996e+00 4.923202e-01 -8.888214e-01 8.798186e-01 -8.566142e-01 1.128005e+00 -9.827291e-01 1.243965e+00 
-5.138041e-01 4.554517e-02 2.197723e+00 -5.279836e+00 -1.080442e+02 -6.729986e-02 -2.865806e-01 -1.959262e+00 7.920837e-02 -1.901982e+00 1.161900e+00 -2.920102e+00 3.496961e+00 -6.564350e+00 8.427189e+00 -1.592141e+01 1.777306e+01 1.604460e+01 1.802660e+01 2.008524e+00 3.251905e+01 8.041079e+00 2.436428e+01 3.690356e+01 2.176582e+01 -3.415982e+00 3.795019e+01 2.980098e+01 2.015231e+01 4.000615e+01 4.158729e+01 1.050316e+01 3.454129e+01 4.894306e+01 1.407610e+01 1.490615e+01 5.222041e+01 3.355242e+01 2.837013e+01 6.169381e+01 2.296487e+01 1.215008e+00 4.508242e+01 4.707684e+01 1.894627e+01 5.114073e+01 4.878839e+01 1.925112e+01 4.484979e+01 9.976577e+01 9.747426e+00 2.332646e+01 -6.106678e+00 9.381859e-01 -3.362719e+00 -3.542410e-01 -1.277782e+00 4.005656e-01 -6.925609e-01 8.568177e-01 -6.425205e-01 1.107065e+00 -7.162404e-01 1.180142e+00 
-6.239280e-02 -2.079951e-01 2.928427e+00 -4.887239e+00 -1.077293e+02 2.573116e-01 -3.370888e-01 -1.636563e+00 -1.252373e-01 -8.030451e-01 6.347345e-01 1.570160e+00 4.742418e-01 8.083157e+00 -6.885383e+00 3.151937e+01 -3.509452e+01 -7.336987e+01 -2.829192e+01 -2.011506e+01 -5.099308e+01 -4.029278e+01 -2.652604e+01 -6.598023e+01 -2.607444e+01 -3.385981e+00 -4.431673e+01 -4.689064e+01 -1.969736e+01 -5.085640e+01 -4.673556e+01 -1.595277e+01 -3.497646e+01 -5.346558e+01 -1.421530e+01 -1.629694e+01 -5.254412e+01 -3.192757e+01 -2.797549e+01 -5.615490e+01 -2.331686e+01 1.371954e+00 -4.069284e+01 -3.369953e+01 -2.073868e+01 -3.862640e+01 -4.006456e+01 -7.638684e+00 -3.366935e+01 -5.922267e+01 -8.451284e+00 -6.969870e+00 1.148948e+00 2.093794e+00 8.469232e-01 1.668483e+00 3.766904e-02 1.127703e+00 -2.936665e-01 1.044227e+00 -4.292371e-01 1.121891e+00 -4.686920e-01 1.107673e+00 
3.138811e-01 -3.416985e-01 3.326755e+00 -4.228452e+00 -1.079970e+02 3.912633e-01 -5.777869e-01 -1.634268e+00 -6.280013e-01 -1.035061e+00 -2.742064e-01 1.278209e+00 -1.678987e+00 9.580422e+00 -1.392682e+01 3.244862e+01 -1.744563e+01 -4.686999e+01 -4.189011e+01 -8.851102e+00 -4.734873e+01 -3.677501e+01 -2.408271e+01 -4.788526e+01 -4.195865e+01 -5.564465e-01 -3.981631e+01 -5.273086e+01 -2.630738e+01 -4.109098e+01 -6.213170e+01 -2.609113e+01 -3.008240e+01 -6.078839e+01 -2.878471e+01 -1.032109e+01 -6.197732e+01 -5.337415e+01 -2.819017e+01 -6.341812e+01 -4.217932e+01 -7.628775e-01 -4.408990e+01 -6.081101e+01 -2.676538e+01 -4.587667e+01 -6.528614e+01 -2.707324e+01 -3.301946e+01 -9.157112e+01 -2.462985e+01 -2.950959e+01 3.258758e+00 1.610594e-01 2.724322e+00 2.060220e+00 6.653739e-01 1.363918e+00 -3.266571e-02 1.112916e+00 -2.210509e-01 1.107912e+00 -2.189491e-01 1.032614e+00 
6.946076e-01 -5.401569e-01 3.835299e+00 -3.832567e+00 -1.059121e+02 7.704554e-01 -6.746700e-01 -1.366174e+00 -1.141413e+00 -1.076868e+00 -1.042952e+00 -4.620595e-01 -1.609673e+00 -1.754918e-02 -3.860091e+00 4.090364e+00 -4.336193e+00 -9.800485e-01 -5.607161e+00 2.137287e-01 -8.908480e+00 -9.833210e-01 -4.280374e+00 -1.488442e+00 -5.962862e+00 -4.765120e-02 -8.807916e+00 -6.904170e+00 -3.756135e+00 -4.463824e+00 -1.148471e+01 -5.335491e+00 -5.962279e+00 -8.739741e+00 -4.011289e+00 -2.883836e+00 -1.375859e+01 -1.147664e+01 -4.813690e+00 -9.111600e+00 -8.352356e+00 -3.019957e+00 -9.981451e+00 -1.577285e+01 -3.282502e+00 -1.046809e+01 -1.479383e+01 -1.057738e+01 -7.017696e+00 -1.351492e+01 -8.518630e+00 -1.131766e+01 -7.547766e-01 -2.681578e+00 8.618260e-01 4.107221e-01 4.468812e-01 9.215069e-01 8.360512e-02 1.003502e+00 -5.478647e-02 1.054114e+00 1.605601e-04 9.472736e-01 
1.001358e+00 -6.333514e-01 4.067955e+00 -3.257079e+00 -1.043466e+02 8.913654e-01 -7.985486e-01 -1.235337e+00 -1.442737e+00 -9.762689e-01 -1.404335e+00 -4.606227e-01 -1.647795e+00 -1.715784e+00 -8.980405e-01 -5.469839e+00 3.042410e+00 3.172629e+00 -8.518743e-01 -1.353681e+00 -7.998163e-01 4.446615e-03 8.153388e-02 2.149404e+00 -1.030823e+00 -3.058988e+00 2.591116e-01 1.449420e+00 3.551612e-01 7.974369e-01 -1.233828e+00 -2.005752e+00 4.970614e-01 2.271817e+00 2.479610e-01 -2.029743e+00 -8.756602e-01 -1.709089e-01 3.663327e-01 2.267447e+00 -5.655722e-01 -3.534568e+00 6.682050e-02 3.033504e-01 9.957505e-01 -6.053295e-01 -8.372378e-01 -2.942574e+00 3.259900e-01 4.903572e+00 -5.600069e-01 -2.691852e-01 -5.125237e-01 -1.636499e+00 3.912640e-01 -8.249437e-02 4.168554e-01 6.636023e-01 2.027472e-01 8.921094e-01 1.064181e-01 9.748796e-01 2.074951e-01 8.475092e-01 
1.279284e+00 -7.943187e-01 4.388704e+00 -3.017058e+00 -1.009741e+02 1.184277e+00 -7.073224e-01 -1.235435e+00 -1.522359e+00 -1.303376e+00 -1.281742e+00 -9.930221e-01 -9.775557e-01 -1.225153e+00 -1.177850e-01 -2.156718e+00 9.762534e-01 2.623572e-01 2.440565e-01 -7.293584e-01 -3.447708e-01 -5.649089e-01 9.977315e-03 4.291453e-01 -7.541644e-02 -1.272748e+00 -4.806743e-02 1.614145e-01 2.467515e-01 3.535465e-01 -3.511442e-01 -9.743473e-01 5.031436e-02 7.784428e-01 4.113992e-01 -5.417807e-01 -4.064488e-01 -2.744745e-01 2.278133e-02 9.788394e-01 1.480066e-01 -1.307109e+00 -4.832118e-04 3.050562e-01 4.878081e-01 5.181405e-01 -3.411168e-01 -6.742382e-01 -5.559201e-01 2.383430e+00 -2.239155e-01 3.704869e-01 -1.285321e-01 -5.491747e-01 1.663720e-01 -2.959280e-02 2.240221e-01 4.820982e-01 1.691077e-01 7.482351e-01 1.736888e-01 8.755671e-01 3.514681e-01 7.413249e-01 
1.496030e+00 -8.840129e-01 4.477705e+00 -2.577623e+00 -9.794968e+01 1.251144e+00 -6.911657e-01 -1.156092e+00 -1.526157e+00 -1.355208e+00 -1.223178e+00 -1.127781e+00 -7.944917e-01 -1.001605e+00 -1.557404e-01 -7.896787e-01 2.700256e-01 -9.151649e-01 1.138442e-01 -6.020704e-01 -2.157632e-01 -2.891729e-01 9.871445e-02 -1.992852e-01 -4.968731e-02 -3.506011e-01 -9.957941e-02 -1.605455e-01 1.630206e-01 -6.372713e-02 -2.200717e-01 -1.385231e-01 5.596627e-02 1.232737e-02 2.160180e-01 -1.243063e-01 -3.087631e-01 1.173240e-02 1.127596e-01 1.675306e-01 1.264136e-01 -1.998712e-01 -9.009295e-02 9.579185e-02 2.877557e-01 3.664162e-01 -3.210493e-01 3.695669e-01 -3.544720e-01 9.194259e-01 -1.418596e-01 3.559210e-01 9.272207e-02 1.650844e-02 1.765424e-01 1.913326e-01 1.874678e-01 4.624300e-01 1.913919e-01 6.607634e-01 2.585825e-01 7.761641e-01 4.923265e-01 6.221615e-01 
1.670187e+00 -1.006896e+00 4.611393e+00 -2.384887e+00 -9.348094e+01 1.410133e+00 -5.259471e-01 -1.170239e+00 -1.443586e+00 -1.560743e+00 -1.063499e+00 -1.322597e+00 -5.599384e-01 -5.848225e-01 -2.432304e-01 4.202975e-01 -8.853277e-01 -1.685089e+00 2.973766e-01 -1.903140e-01 -2.128137e-01 -5.169033e-01 3.089826e-01 -3.986767e-01 1.837827e-01 4.547980e-01 -3.476185e-01 -6.027263e-01 2.468832e-01 5.855379e-02 -1.729859e-01 9.828842e-02 3.735259e-02 -4.916220e-01 3.274990e-01 5.682079e-01 -5.144625e-01 -2.804442e-01 2.485302e-01 -2.458330e-01 2.927967e-01 6.255894e-01 -3.253461e-01 -2.764835e-01 2.769895e-01 6.581963e-01 -5.314561e-01 7.365198e-01 -4.823728e-01 -2.372801e-01 1.192560e-01 1.752204e-01 4.814586e-01 4.704684e-01 1.837823e-01 4.214243e-01 7.491061e-02 4.698879e-01 1.294665e-01 5.908200e-01 2.700982e-01 6.920689e-01 5.701384e-01 5.156185e-01 
1.796666e+00 -1.076443e+00 4.560764e+00 -2.029169e+00 -8.918758e+01 1.424937e+00 -4.754065e-01 -1.116265e+00 -1.350454e+00 -1.720498e+00 -9.270161e-01 -1.756370e+00 -3.513274e-01 -1.146894e+00 1.080061e-01 6.050320e-01 -2.090342e+00 -7.822724e-01 1.344610e+00 1.605003e+00 1.440931e-01 1.076744e+00 5.192254e-01 2.247139e-01 6.778375e-01 1.788690e+00 -3.924319e-01 -2.193465e-01 5.289104e-01 6.308365e-01 2.487949e-01 8.576029e-01 1.529137e-01 -7.695313e-01 7.074513e-01 1.429471e+00 -2.657727e-01 -2.901329e-01 6.171434e-01 -6.532893e-01 7.892808e-01 1.450671e+00 -1.885769e-01 -8.483780e-01 7.342413e-01 9.981132e-01 -1.695745e-01 9.374167e-01 -1.375395e-01 -2.280582e+00 4.443160e-01 -6.629676e-01 8.910615e-01 1.091356e+00 1.151256e-01 6.965611e-01 -7.371656e-02 4.694047e-01 8.234732e-02 5.120731e-01 3.047259e-01 5.962051e-01 6.554445e-01 3.992934e-01 
1.879854e+00 -1.140885e+00 4.506660e+00 -1.782727e+00 -8.372585e+01 1.458702e+00 -3.605503e-01 -1.002529e+00 -1.293898e+00 -1.712592e+00 -9.861024e-01 -2.396951e+00 -1.788459e-01 -4.940468e+00 2.875889e+00 -5.944976e+00 -2.396423e+00 4.918280e+00 1.446405e+01 9.122359e+00 7.895982e+00 1.613247e+01 7.155748e+00 7.279993e+00 1.063089e+01 7.829091e+00 4.818355e+00 1.191167e+01 8.065517e+00 3.590292e+00 1.037401e+01 1.375957e+01 6.187805e+00 8.159633e+00 9.146705e+00 1.809638e+00 7.206644e+00 1.376060e+01 7.902519e+00 5.578589e+00 1.042175e+01 5.520028e+00 4.954843e+00 9.352834e+00 8.207471e+00 2.352199e+00 9.773294e+00 1.116454e+01 5.364121e+00 6.430683e+00 7.374400e+00 7.874330e+00 2.029969e+00 2.203070e+00 -4.013671e-01 6.109666e-01 -3.128764e-01 4.001117e-01 2.154021e-02 4.586121e-01 3.087165e-01 5.321970e-01 6.961280e-01 3.082923e-01 
1.926585e+00 -1.143450e+00 4.307626e+00 -1.412605e+00 -7.830688e+01 1.415833e+00 -3.642373e-01 -8.126627e-01 -1.269849e+00 -1.613653e+00 -9.298003e-01 -3.107099e+00 7.843779e-01 -8.962238e+00 7.116688e+00 -1.394010e+01 1.383230e+00 1.128962e+01 2.965601e+01 1.131163e+01 2.199699e+01 3.269439e+01 1.722474e+01 1.758765e+01 2.673851e+01 1.247124e+01 1.671395e+01 3.217584e+01 1.986375e+01 8.369977e+00 2.969828e+01 3.312825e+01 1.811027e+01 2.762581e+01 2.315384e+01 1.521399e+00 2.361575e+01 4.035098e+01 2.028293e+01 2.104932e+01 2.799021e+01 1.203982e+01 1.653965e+01 3.355017e+01 2.038862e+01 7.216024e+00 3.072335e+01 3.347051e+01 1.634805e+01 3.708977e+01 2.121186e+01 2.938666e+01 1.335101e+00 3.039240e+00 -2.031641e+00 -2.022471e-01 -6.873180e-01 7.340741e-02 1.746741e-02 3.434879e-01 3.632309e-01 4.557759e-01 7.563953e-01 2.198176e-01 
1.923714e+00 -1.122402e+00 4.085846e+00 -1.144001e+00 -7.200746e+01 1.312713e+00 -2.518369e-01 -6.716284e-01 -1.026858e+00 -1.122994e+00 -5.853695e-01 -1.349514e+00 5.036865e-01 -2.207336e+00 2.092499e+00 -3.851838e+00 2.258011e+00 -9.366030e-01 4.832193e+00 -3.908945e+00 6.290345e+00 2.377938e+00 5.396212e+00 2.629658e+00 8.116950e+00 2.474164e-01 6.820991e+00 8.456581e+00 6.404662e+00 2.214206e+00 1.060082e+01 9.126340e+00 7.185807e+00 1.061114e+01 7.530404e+00 3.326723e-01 1.000264e+01 1.489404e+01 7.024584e+00 9.862166e+00 9.840162e+00 4.799997e+00 7.623642e+00 1.572162e+01 6.017318e+00 4.905575e+00 1.264842e+01 1.544163e+01 7.507858e+00 2.199820e+01 8.695751e+00 1.591115e+01 -6.212696e-01 2.126835e+00 -1.260462e+00 1.391114e-01 -3.293694e-01 1.985411e-01 1.339253e-01 3.498892e-01 4.014879e-01 4.158802e-01 7.743443e-01 1.559101e-01 
1.886295e+00 -1.039635e+00 3.759704e+00 -8.076146e-01 -6.568112e+01 1.178389e+00 -1.994555e-01 -4.876184e-01 -8.534298e-01 -4.920490e-01 -6.834405e-01 1.147781e+00 -1.530410e+00 7.313606e+00 -7.386001e+00 1.181596e+01 -3.286842e-01 -1.401109e+01 -2.955562e+01 -1.407562e+01 -2.194815e+01 -3.513095e+01 -1.618226e+01 -2.014141e+01 -2.572477e+01 -1.310862e+01 -1.695022e+01 -3.291039e+01 -1.774583e+01 -9.482662e+00 -2.942537e+01 -3.147214e+01 -1.758318e+01 -2.814152e+01 -2.072946e+01 -1.207679e+00 -2.456942e+01 -3.788679e+01 -1.845835e+01 -2.100172e+01 -2.621314e+01 -9.426253e+00 -1.771613e+01 -3.143674e+01 -1.794855e+01 -6.421621e+00 -3.019034e+01 -2.825326e+01 -1.662015e+01 -3.615591e+01 -1.939448e+01 -2.407485e+01 -9.379502e-01 -1.099663e+00 1.620606e+00 1.111181e+00 7.481829e-01 7.109349e-01 4.312840e-01 4.885792e-01 4.858191e-01 4.127354e-01 8.014548e-01 1.091676e-01 
1.794604e+00 -9.455622e-01 3.421848e+00 -5.903615e-01 -5.868557e+01 1.085852e+00 -1.884952e-01 -4.128368e-01 -8.693391e-01 -5.094584e-01 -9.151225e-01 5.898256e-01 -1.874939e+00 4.641097e+00 -5.979293e+00 6.796301e+00 4.833982e-03 -3.939206e+00 -2.085036e+01 -7.114067e+00 -1.378274e+01 -2.041699e+01 -1.321616e+01 -9.770548e+00 -1.950310e+01 -9.628459e+00 -1.032450e+01 -2.072373e+01 -1.576771e+01 -5.478232e+00 -2.071739e+01 -2.458952e+01 -1.258437e+01 -1.783742e+01 -1.808934e+01 -2.036717e+00 -1.557372e+01 -2.971814e+01 -1.554734e+01 -1.424307e+01 -2.106524e+01 -1.071500e+01 -1.061168e+01 -2.453033e+01 -1.603936e+01 -5.566432e+00 -2.216483e+01 -2.763958e+01 -1.151148e+01 -2.601779e+01 -1.670811e+01 -2.423786e+01 -1.935151e+00 -2.754595e+00 1.653118e+00 6.893990e-01 8.397707e-01 6.166241e-01 4.711285e-01 4.503286e-01 4.884440e-01 3.714119e-01 7.782599e-01 7.236412e-02 
1.676267e+00 -8.450642e-01 3.037227e+00 -3.618500e-01 -5.167741e+01 1.008326e+00 -2.184184e-01 -2.172835e-01 -8.981808e-01 -4.094523e-01 -1.051284e+00 -3.560067e-01 -1.175974e+00 -9.632412e-01 -1.088664e+00 -1.558104e+00 1.269914e-01 8.601080e-01 -1.705878e+00 2.858906e-02 -1.610908e+00 4.604718e-01 -1.301241e+00 3.215322e-01 -1.594421e+00 -8.596570e-01 -9.466022e-01 -2.662887e-01 -1.139476e+00 -6.695775e-01 -1.760857e+00 -1.340851e+00 -8.775551e-01 -4.096536e-01 -1.306378e+00 -1.359618e+00 -1.359943e+00 -1.661061e+00 -1.033724e+00 -7.303900e-01 -1.685823e+00 -2.123073e+00 -5.760628e-01 -1.805001e+00 -8.617293e-01 -1.909689e+00 -1.616492e+00 -3.034496e+00 -6.084019e-01 -6.271146e-02 -1.827712e+00 -1.697316e+00 -6.991152e-01 -1.348874e+00 3.182833e-01 -1.802415e-01 4.755047e-01 2.413723e-01 4.387769e-01 3.237825e-01 4.911604e-01 3.057425e-01 7.535437e-01 3.216498e-02 
1.507197e+00 -7.322430e-01 2.630488e+00 -2.268944e-01 -4.420755e+01 8.730306e-01 -2.015551e-01 -1.746972e-01 -8.063570e-01 -3.614036e-01 -9.248287e-01 -3.597871e-01 -8.761282e-01 -1.075715e+00 -2.639075e-01 -2.064777e+00 6.939433e-01 6.651352e-01 -1.186294e-01 -6.535624e-01 2.095104e-01 3.381353e-01 -6.786371e-01 2.662228e-01 -3.198787e-01 -1.242044e+00 3.699888e-01 7.778344e-01 -4.333237e-01 -3.637773e-01 2.041832e-01 -3.716074e-01 -1.304522e-01 8.572154e-01 -3.565862e-01 -1.304301e+00 6.827187e-01 5.710181e-01 -4.421333e-01 5.844648e-01 -2.530373e-01 -1.390278e+00 5.726883e-01 8.593073e-01 -3.035059e-01 -7.476386e-01 5.115295e-01 -4.626496e-01 2.810618e-02 2.208111e+00 -4.283301e-01 6.427981e-01 -6.635672e-01 -6.959138e-01 1.098913e-01 -2.580848e-01 3.682989e-01 1.079496e-01 3.925452e-01 2.338748e-01 4.499624e-01 2.425647e-01 6.867281e-01 3.751530e-03 
1.313960e+00 -6.455964e-01 2.223677e+00 -1.569115e-01 -3.676913e+01 7.718824e-01 -1.531883e-01 -1.212362e-01 -6.506349e-01 -4.144977e-01 -6.881908e-01 -5.391164e-01 -4.901251e-01 -7.760153e-01 -1.170020e-01 -7.404504e-01 1.880178e-01 -3.644963e-01 8.190827e-02 -1.963413e-01 -4.095668e-02 2.672424e-02 -1.935832e-01 -6.395267e-02 -1.014175e-01 -3.003695e-01 -2.174903e-02 6.467959e-02 -2.668752e-02 -1.364983e-01 -2.168917e-02 -7.080485e-02 -6.166834e-02 1.072220e-01 3.878903e-02 -3.053376e-01 5.493646e-02 1.498263e-01 -7.016190e-02 9.551147e-02 5.409514e-03 -2.958848e-01 9.814422e-02 1.512823e-01 1.240289e-01 -1.484204e-01 1.055123e-01 2.206099e-01 -1.616200e-01 8.843054e-01 -2.822409e-01 5.034088e-01 -1.993337e-01 -7.853290e-02 2.590829e-02 -1.162341e-01 1.969795e-01 3.394524e-02 2.889072e-01 1.415229e-01 3.805025e-01 1.689694e-01 6.009063e-01 -3.205810e-02 
1.084449e+00 -5.296765e-01 1.772294e+00 -7.276404e-02 -2.898236e+01 5.967329e-01 -1.264486e-01 -8.910666e-02 -5.054115e-01 -3.388396e-01 -5.217439e-01 -4.625972e-01 -3.418637e-01 -6.184371e-01 -7.964379e-02 -4.917120e-01 1.082239e-01 -4.566965e-01 6.658899e-02 -1.045550e-01 -1.074257e-02 2.045336e-02 -1.440283e-01 -1.292240e-01 -6.304991e-02 -7.549474e-02 -2.122575e-02 -5.415070e-02 -3.062344e-02 -1.186139e-01 1.862389e-04 6.005710e-02 -5.537430e-02 -5.937118e-02 2.642395e-02 -1.131543e-01 5.199336e-02 9.245006e-02 -6.134425e-02 -3.570224e-02 1.782542e-02 -3.285198e-02 6.471535e-02 -5.370468e-03 7.341030e-02 -7.518107e-02 8.340689e-02 3.284579e-01 -1.221201e-01 4.465826e-01 -2.173919e-01 4.534037e-01 -1.802369e-01 7.063812e-02 -2.171264e-02 -5.267713e-02 1.283294e-01 1.390845e-02 2.231511e-01 9.211094e-02 3.092676e-01 1.176409e-01 4.966227e-01 -4.847742e-02 
8.397349e-01 -4.407424e-01 1.344664e+00 -6.655781e-02 -2.124896e+01 4.688962e-01 -4.729805e-02 -3.444682e-02 -3.209055e-01 -2.685556e-01 -3.352956e-01 -3.574718e-01 -2.057036e-01 -3.962521e-01 -5.859915e-02 -3.373566e-01 3.489347e-02 -3.333125e-01 2.798328e-02 -1.356027e-01 -3.585974e-02 -5.123390e-02 -3.977032e-02 -7.752202e-02 -2.998131e-02 -4.423733e-02 -4.631663e-02 -5.204060e-02 6.157744e-03 -6.124293e-02 -2.985842e-02 6.681356e-03 -2.024182e-02 -4.275651e-02 4.038417e-02 -4.300744e-02 -2.399193e-02 2.250450e-02 3.513739e-03 -2.408635e-02 3.254382e-02 -6.172600e-04 1.614072e-02 7.503796e-03 7.427396e-02 3.001443e-02 -1.711093e-02 2.252390e-01 -1.282845e-01 2.715404e-01 -1.491285e-01 2.836214e-01 -8.021153e-02 1.257309e-01 -9.493562e-03 2.297736e-02 7.155076e-02 2.100918e-02 1.455326e-01 5.525123e-02 2.221611e-01 6.870293e-02 3.757084e-01 -6.706407e-02 
5.717123e-01 -3.150153e-01 8.645227e-01 -1.600303e-03 -1.327207e+01 2.762551e-01 -2.870103e-02 -1.992275e-03 -1.782880e-01 -1.716631e-01 -1.949820e-01 -2.515798e-01 -1.086949e-01 -2.751942e-01 -1.141933e-02 -2.357213e-01 6.224136e-02 -2.537709e-01 3.090061e-02 -9.200718e-02 -3.843248e-03 -3.890833e-02 -1.392865e-02 -4.668187e-02 -2.229330e-02 -4.899586e-03 -1.828102e-02 -4.684038e-02 7.401492e-04 -3.330621e-02 -2.191268e-02 1.270816e-02 -4.194315e-03 -3.958299e-02 1.869956e-02 -1.249019e-02 -8.904492e-03 1.057076e-03 5.146879e-03 -2.039425e-02 1.340658e-02 2.012824e-02 2.004998e-02 -9.617127e-03 3.956344e-02 4.036070e-02 -2.259500e-02 1.716992e-01 -8.666908e-02 1.809553e-01 -1.351796e-01 2.116813e-01 -8.583394e-02 1.233382e-01 -3.308666e-02 3.336620e-02 2.698727e-02 1.077101e-02 8.431924e-02 2.489959e-02 1.412884e-01 3.108922e-02 2.504120e-01 -6.906642e-02 
3.009453e-01 -2.143181e-01 4.214645e-01 -7.531576e-03 -5.357201e+00 1.389105e-01 4.470902e-02 6.573450e-02 -1.070910e-02 -5.901524e-02 -4.824568e-02 -1.293764e-01 -1.092377e-02 -1.486686e-01 3.681300e-02 -1.401559e-01 6.260327e-02 -1.378254e-01 4.036630e-02 -6.870855e-02 1.115346e-02 -2.735403e-02 1.309780e-02 -1.677672e-02 2.302249e-03 -2.356360e-03 -9.562842e-03 -1.429702e-02 6.948013e-03 -1.345329e-02 -1.200930e-02 1.912923e-03 -2.044809e-04 -1.471874e-02 1.633825e-02 -1.025488e-02 -1.156187e-02 -9.423586e-04 9.332842e-03 -7.029786e-03 1.485875e-02 9.317069e-03 4.099808e-03 1.311773e-02 1.525936e-02 4.252109e-02 -4.141429e-02 1.062381e-01 -8.877761e-02 1.249847e-01 -1.001104e-01 1.345974e-01 -6.514089e-02 8.904120e-02 -3.664579e-02 3.224452e-02 -6.938051e-03 3.603386e-03 2.367054e-02 -3.271206e-04 5.484438e-02 -3.520574e-03 1.166023e-01 -7.193845e-02 
1.777908e-02 -7.963231e-02 -7.087897e-02 5.563573e-02 2.678075e+00 -5.665584e-02 5.422774e-02 1.058061e-01 1.235335e-01 5.003471e-02 7.940076e-02 -1.940526e-02 8.054839e-02 -4.540457e-02 9.683258e-02 -5.229243e-02 1.028775e-01 -6.196068e-02 6.622629e-02 -1.806469e-02 3.877669e-02 5.205768e-03 3.057334e-02 1.457870e-02 1.294309e-02 2.255186e-02 6.505310e-03 4.143517e-03 8.414554e-03 4.996366e-03 -5.876802e-03 9.901607e-03 5.185706e-03 -5.080360e-03 8.631094e-03 -1.124778e-03 -5.000665e-03 -3.947667e-03 6.562925e-03 -5.071721e-03 4.929486e-03 7.440029e-03 3.350678e-03 4.063175e-03 8.356133e-04 3.009581e-02 -3.984861e-02 6.954235e-02 -7.060325e-02 7.973879e-02 -9.532147e-02 8.729821e-02 -7.543057e-02 5.871140e-02 -5.739526e-02 1.236945e-02 -4.258205e-02 -1.893919e-02 -3.077865e-02 -3.100643e-02 -2.474917e-02 -3.701664e-02 -1.413088e-02 -6.570183e-02 
-2.561170e-01 2.907857e-02 -5.160850e-01 5.623912e-02 1.064724e+01 -1.922434e-01 1.183555e-01 1.776867e-01 2.755970e-01 1.675699e-01 2.104266e-01 9.345151e-02 1.730580e-01 5.654344e-02 1.545784e-01 3.581619e-02 1.309641e-01 2.231346e-02 9.299056e-02 3.120175e-02 6.111968e-02 3.952268e-02 4.729176e-02 4.105783e-02 3.051864e-02 3.826700e-02 1.691358e-02 2.737466e-02 1.479370e-02 2.021508e-02 3.785314e-03 1.654523e-02 6.242129e-03 7.014797e-03 8.433637e-03 2.269460e-03 -2.770994e-03 3.103706e-04 3.757819e-03 -1.938808e-03 2.468369e-03 1.408385e-03 -6.523063e-03 4.172108e-03 -1.312985e-02 1.518938e-02 -4.497138e-02 3.375858e-02 -7.167850e-02 4.154445e-02 -8.245313e-02 4.049163e-02 -7.438613e-02 1.821890e-02 -7.096300e-02 -1.536586e-02 -7.403801e-02 -4.363032e-02 -8.427992e-02 -6.068403e-02 -1.061287e-01 -6.888391e-02 -1.469736e-01 -6.189155e-02 