# vtk DataFile Version 2.0
Comment goes here
ASCII

DATASET STRUCTURED_POINTS
FIELD FieldData 1
TIME 1 1 double
0.03000000
DIMENSIONS    64   64   1

ORIGIN    0.000   0.000   0.000
SPACING   0.03125 0.03125   1.000

POINT_DATA   4096
SCALARS Omega double
LOOKUP_TABLE default

3.545065e-02 -1.184002e+00 8.817964e-01 -1.314794e+00 9.167552e-01 -7.810686e-01 7.028343e-01 -9.764719e-01 6.370932e-01 -8.634902e-01 5.512605e-01 -6.943212e-01 4.623577e-01 -4.818566e-01 4.048628e-01 -2.467063e-01 3.585546e-01 -3.588835e-02 2.588841e-01 1.741406e-01 2.180946e-01 3.018821e-01 1.359214e-01 3.550723e-01 1.223286e-01 4.226826e-01 9.188320e-02 4.603499e-01 4.447745e-02 4.989788e-01 3.382165e-02 5.184324e-01 3.650913e-02 5.507894e-01 2.351124e-04 5.674879e-01 -3.692418e-02 6.259936e-01 -8.649079e-02 7.136269e-01 -1.705892e-01 7.443510e-01 -2.088930e-01 7.277402e-01 -2.222417e-01 7.080642e-01 -2.492651e-01 6.070790e-01 -2.510896e-01 4.821025e-01 -3.111117e-01 3.448688e-01 -3.498682e-01 2.178400e-01 -3.664203e-01 1.259482e-01 -3.423758e-01 3.567677e-02 -3.005797e-01 -2.327838e-02 -2.736781e-01 -5.645832e-02 -3.057635e-01 8.486474e-02 
-3.047311e+00 -2.016370e+01 -1.274724e+00 -1.966037e+01 -2.391697e+00 -1.941504e+01 -3.052743e+00 -1.877868e+01 -4.633219e+00 -1.816149e+01 -6.778435e+00 -1.623359e+01 -1.035160e+01 -1.273844e+01 -1.513522e+01 -8.462147e+00 -2.031399e+01 -4.006058e+00 -2.533577e+01 1.381385e-01 -2.969722e+01 3.725644e+00 -3.357626e+01 6.979443e+00 -3.675280e+01 9.175022e+00 -3.854025e+01 1.019446e+01 -3.926533e+01 1.011701e+01 -3.880351e+01 8.757983e+00 -3.658892e+01 5.399952e+00 -3.259013e+01 1.201935e+00 -2.905156e+01 -1.546142e+00 -2.757768e+01 -1.858412e+00 -2.831101e+01 -6.303728e-02 -3.103018e+01 3.277318e+00 -3.460905e+01 7.036052e+00 -3.801137e+01 1.015624e+01 -4.016680e+01 1.182184e+01 -4.045914e+01 1.146041e+01 -3.880952e+01 9.239675e+00 -3.505715e+01 4.773208e+00 -2.905250e+01 -1.734149e+00 -2.151466e+01 -9.169241e+00 -1.349755e+01 -1.653945e+01 -5.151236e+00 -2.410171e+01 
-2.847158e+01 5.879511e+00 -2.493287e+01 7.203273e+00 -7.881834e+00 6.534394e+00 -2.386859e+01 5.926534e+00 -3.166657e+01 5.642460e+00 -3.675684e+01 4.512407e+00 -3.954995e+01 2.262337e+00 -4.089348e+01 -4.158538e-01 -4.150691e+01 -3.111222e+00 -4.146996e+01 -5.565409e+00 -4.150373e+01 -7.435048e+00 -4.116433e+01 -9.231127e+00 -4.080571e+01 -1.042413e+01 -4.097780e+01 -1.088864e+01 -4.120333e+01 -1.103800e+01 -4.170076e+01 -1.062260e+01 -4.303320e+01 -8.848889e+00 -4.550764e+01 -6.385549e+00 -4.768846e+01 -4.791366e+00 -4.852968e+01 -4.550379e+00 -4.799930e+01 -5.347989e+00 -4.644603e+01 -6.729686e+00 -4.431029e+01 -8.246628e+00 -4.200801e+01 -9.150434e+00 -4.018774e+01 -9.164216e+00 -3.881166e+01 -8.181961e+00 -3.788027e+01 -6.700330e+00 -3.759216e+01 -4.360548e+00 -3.813704e+01 -1.140299e+00 -3.888699e+01 2.412966e+00 -3.904706e+01 6.008279e+00 -3.978429e+01 9.731591e+00 
-1.422322e+01 7.116814e+00 -1.325213e+01 7.295055e+00 -1.219032e+01 7.171041e+00 -1.139192e+01 6.845408e+00 -1.553876e+01 6.244779e+00 -1.802348e+01 5.035951e+00 -1.898630e+01 3.077084e+00 -1.886217e+01 8.399045e-01 -1.820267e+01 -1.314522e+00 -1.722919e+01 -3.190306e+00 -1.629264e+01 -4.583767e+00 -1.531769e+01 -5.949033e+00 -1.447861e+01 -6.839683e+00 -1.420842e+01 -7.235509e+00 -1.420935e+01 -7.318752e+00 -1.455186e+01 -6.908575e+00 -1.564954e+01 -5.430418e+00 -1.764078e+01 -3.417884e+00 -1.939008e+01 -2.111303e+00 -2.009720e+01 -1.930815e+00 -1.971983e+01 -2.664832e+00 -1.845947e+01 -4.017066e+00 -1.675206e+01 -5.517315e+00 -1.498083e+01 -6.633404e+00 -1.367233e+01 -7.034143e+00 -1.291550e+01 -6.519301e+00 -1.270485e+01 -5.343112e+00 -1.317381e+01 -3.283984e+00 -1.447215e+01 -3.881030e-01 -1.620122e+01 2.816113e+00 -1.775615e+01 5.979614e+00 -1.971749e+01 9.348632e+00 
-2.745851e-01 5.932005e-01 -8.254391e-01 -8.235475e-01 -2.640373e+01 2.181840e-01 3.525172e-01 -4.554734e-02 -9.650731e-02 -3.762920e-02 -2.554870e-01 -2.088382e-02 -3.135882e-01 -1.675349e-03 -3.261350e-01 8.860835e-03 -2.837522e-01 -3.712802e-02 -2.544787e-01 -4.745187e-02 -2.089620e-01 -7.307575e-02 -2.179830e-01 -9.901307e-02 -2.090098e-01 -7.484266e-02 -1.971813e-01 -8.186798e-02 -2.275728e-01 -6.657852e-02 -2.148647e-01 -4.566218e-02 -2.203582e-01 -7.569647e-02 -2.208061e-01 -6.852500e-02 -1.917447e-01 -7.885417e-02 -2.187332e-01 -8.459093e-02 -2.242561e-01 -4.580104e-02 -2.304650e-01 -4.690324e-02 -2.711308e-01 -2.908774e-02 -2.590896e-01 -1.303662e-02 -2.434319e-01 -5.797814e-02 -2.071265e-01 -5.896686e-02 -1.846139e-01 -6.831188e-02 -1.546938e-01 -8.420540e-02 -1.209931e-01 -8.314885e-02 -9.172273e-02 -5.359426e-02 -8.141560e-02 -1.581487e-02 -1.260572e-01 2.551235e-01 
-1.760362e-01 -8.770550e-02 -5.548633e-01 -8.067584e-01 -3.163287e+01 -1.549265e-01 4.881321e-01 -1.550599e-01 2.828665e-01 -7.891585e-02 1.502744e-01 -3.805695e-02 7.331737e-02 -4.478536e-03 1.885216e-02 2.173077e-02 3.944219e-02 -5.029512e-02 6.926565e-03 -1.896423e-02 3.871289e-02 -1.163729e-02 -1.009025e-02 -4.202846e-02 -8.907612e-03 9.825324e-03 2.152615e-02 -1.817192e-02 -2.288896e-02 -1.697145e-02 1.522633e-02 2.283505e-02 4.745374e-03 -2.122853e-02 -1.703199e-02 1.331488e-02 2.115400e-02 3.244498e-03 -2.740371e-02 -2.447353e-02 -1.352345e-02 3.041179e-02 1.049603e-02 -1.544836e-05 -3.552836e-02 7.511549e-03 -2.982713e-04 3.606407e-02 6.564573e-03 -3.676520e-02 2.863152e-02 -4.486921e-03 5.512527e-03 2.043593e-02 -1.447466e-02 2.929344e-02 -3.346964e-02 3.196280e-02 -5.985123e-02 3.274561e-02 -1.053531e-01 4.107479e-02 -1.715975e-01 3.090638e-01 
-2.581268e-01 1.473471e-02 -5.205310e-01 -9.418577e-01 -3.871824e+01 -3.849722e-01 4.276677e-01 -1.256144e-01 3.017030e-01 -8.461062e-02 1.769164e-01 -4.696353e-02 9.439830e-02 3.483742e-03 8.137448e-05 6.889041e-02 6.225671e-02 -1.013404e-01 8.048477e-03 -1.916703e-02 1.007829e-01 -5.775073e-04 -3.853097e-02 -8.863934e-02 -1.199217e-02 4.356463e-02 5.694229e-02 -3.522306e-02 -7.102264e-02 -4.306364e-02 4.504564e-02 5.932939e-02 -4.055643e-03 -6.533856e-02 -4.302520e-02 3.369694e-02 7.355997e-02 1.590260e-02 -6.980976e-02 -6.702210e-02 -9.337151e-03 7.863214e-02 4.487422e-02 -9.484684e-03 -8.400153e-02 6.432202e-03 2.074229e-02 1.002817e-01 -8.862714e-04 -9.639919e-02 8.415914e-02 1.974190e-03 1.716685e-02 4.064347e-02 -2.172334e-02 4.371594e-02 -4.768698e-02 4.190072e-02 -7.799964e-02 4.684262e-02 -1.230693e-01 7.491447e-02 -1.954339e-01 1.850046e-01 
-1.829700e-01 8.347071e-02 -2.803906e-01 -9.084538e-01 -4.148612e+01 -3.661684e-01 2.345051e-01 -1.669875e-01 2.401205e-01 -1.172875e-01 1.582958e-01 -6.951298e-02 7.468512e-02 5.073335e-03 -7.131257e-02 1.398898e-01 1.056248e-01 -1.951887e-01 -4.137559e-02 -2.848294e-02 1.621347e-01 5.375583e-02 -7.137126e-02 -1.555005e-01 -2.492864e-02 1.026977e-01 1.222445e-01 -3.479679e-02 -1.201575e-01 -8.505383e-02 7.968743e-02 1.334055e-01 -7.399626e-03 -1.258541e-01 -7.572784e-02 5.342599e-02 1.402573e-01 5.489145e-02 -1.168683e-01 -1.278178e-01 -6.143337e-03 1.423590e-01 8.754747e-02 -2.650250e-02 -1.408690e-01 -1.615814e-02 3.933986e-02 1.823973e-01 -4.871718e-02 -1.782548e-01 1.181829e-01 -6.536832e-03 1.141119e-02 4.553817e-02 -2.825066e-02 5.483543e-02 -4.697036e-02 6.002927e-02 -6.877104e-02 7.197173e-02 -1.038248e-01 1.017575e-01 -1.509239e-01 1.635444e-01 
-1.945027e-01 1.077945e-01 -2.196458e-01 -9.917097e-01 -4.569466e+01 -4.802348e-01 1.507217e-01 -1.572591e-01 2.199966e-01 -1.239981e-01 1.721775e-01 -9.210707e-02 1.131807e-01 1.772268e-02 -2.069654e-01 5.045796e-01 3.013087e-01 -2.539356e-01 -8.781505e-02 2.319371e-01 4.104285e-01 2.134121e-01 -1.686695e-01 -2.694097e-01 -9.477174e-03 4.342780e-01 3.206811e-01 -7.116227e-02 -2.834462e-01 -1.277623e-01 2.616036e-01 4.211194e-01 2.973201e-03 -3.399678e-01 -1.567760e-01 2.338233e-01 3.942419e-01 1.561125e-01 -2.605708e-01 -3.612495e-01 5.334194e-02 4.342831e-01 2.616572e-01 -1.209992e-01 -3.049491e-01 -1.077244e-01 1.826419e-01 5.427427e-01 -1.894116e-01 -6.574681e-01 3.296816e-01 5.875565e-02 -1.355286e-02 8.601448e-02 -5.962395e-02 6.807559e-02 -6.530931e-02 6.416116e-02 -8.116663e-02 7.412779e-02 -1.126855e-01 9.843507e-02 -1.577933e-01 1.288472e-01 
-1.132065e-01 1.273531e-01 -5.261190e-02 -9.914657e-01 -4.678461e+01 -4.166045e-01 3.077961e-02 -1.816682e-01 1.466708e-01 -1.624689e-01 1.444991e-01 -1.459216e-01 1.153059e-01 -7.667643e-03 -4.967430e-01 1.653315e+00 5.839452e+00 4.221415e+00 1.076434e+00 4.711629e+00 3.998952e+00 1.382213e+00 3.662412e+00 4.421429e+00 9.771259e-01 3.645938e+00 5.072755e+00 1.838777e+00 2.451955e+00 4.813870e+00 2.334961e+00 1.949234e+00 4.755541e+00 3.154958e+00 1.185009e+00 4.460049e+00 4.087832e+00 1.122936e+00 3.615166e+00 3.934764e+00 1.136308e+00 3.349864e+00 4.829639e+00 1.525582e+00 2.294357e+00 4.174388e+00 2.137854e+00 1.907894e+00 4.441180e+00 2.630933e+00 7.704281e-01 2.100485e-01 -6.690844e-02 1.103627e-01 -7.688493e-02 8.478857e-02 -6.428082e-02 8.078249e-02 -6.700817e-02 9.137611e-02 -8.306783e-02 1.129235e-01 -1.037770e-01 1.358610e-01 
-1.038368e-01 1.288154e-01 -2.295435e-04 -1.042419e+00 -4.909194e+01 -4.769918e-01 -3.023945e-02 -1.844847e-01 1.204669e-01 -1.829017e-01 1.644635e-01 -2.666790e-01 3.357037e-01 -4.729130e-01 -1.919484e-02 5.181070e+00 2.685790e+01 2.030676e+01 7.169172e+00 2.175056e+01 1.983619e+01 5.288408e+00 2.059943e+01 2.476888e+01 6.181788e+00 1.674738e+01 2.687525e+01 1.014041e+01 1.520420e+01 2.785577e+01 1.239217e+01 8.408184e+00 2.686946e+01 2.027324e+01 7.923810e+00 2.432045e+01 2.221500e+01 5.803273e+00 2.189055e+01 2.619250e+01 6.548515e+00 1.724184e+01 2.766022e+01 1.048302e+01 1.491547e+01 2.726993e+01 1.223207e+01 8.874008e+00 2.911903e+01 2.475853e+01 1.770093e+00 8.543258e-01 -5.112839e-01 1.380567e-01 -1.580981e-01 8.044308e-02 -7.833994e-02 7.594973e-02 -6.987343e-02 8.671490e-02 -8.280286e-02 1.051713e-01 -9.991664e-02 1.237778e-01 
-3.377559e-02 1.330815e-01 1.115836e-01 -1.038645e+00 -4.896437e+01 -3.998070e-01 -9.602286e-02 -1.917704e-01 6.640390e-02 -2.136754e-01 1.625330e-01 -3.717783e-01 4.371028e-01 -1.002376e+00 8.817508e-01 3.800029e+00 1.988846e+01 1.337789e+01 6.486353e+00 1.658985e+01 1.525652e+01 3.390534e+00 1.750222e+01 1.889360e+01 5.259164e+00 1.402164e+01 2.169778e+01 7.482694e+00 1.366470e+01 2.292154e+01 9.667183e+00 7.465054e+00 2.301298e+01 1.618719e+01 7.050736e+00 2.128020e+01 1.800061e+01 4.975080e+00 1.968772e+01 2.200339e+01 5.118787e+00 1.589863e+01 2.347934e+01 8.850064e+00 1.377061e+01 2.417960e+01 9.688015e+00 9.287031e+00 2.726904e+01 2.223048e+01 1.611782e-01 1.066611e+00 -4.762321e-01 2.201576e-01 -1.534714e-01 1.043741e-01 -6.718348e-02 8.895552e-02 -4.962991e-02 9.718983e-02 -4.992317e-02 1.134838e-01 -4.953451e-02 1.297568e-01 
-2.112626e-02 1.303199e-01 1.509766e-01 -1.065365e+00 -4.989913e+01 -4.223089e-01 -1.388174e-01 -1.701566e-01 2.177907e-02 -1.330499e-01 5.857702e-02 -8.568881e-02 2.617327e-02 3.712504e-02 4.766137e-01 -5.464849e+00 -2.315574e+01 -1.715001e+01 -5.481227e+00 -1.920910e+01 -1.579687e+01 -5.048134e+00 -1.771037e+01 -2.031929e+01 -4.537924e+00 -1.483108e+01 -2.160238e+01 -8.125794e+00 -1.317108e+01 -2.280523e+01 -9.149076e+00 -7.555680e+00 -2.219596e+01 -1.566453e+01 -6.684890e+00 -2.036837e+01 -1.705062e+01 -4.605347e+00 -1.857252e+01 -2.035194e+01 -5.004170e+00 -1.456974e+01 -2.168398e+01 -7.583555e+00 -1.281689e+01 -2.135576e+01 -9.187840e+00 -7.648547e+00 -2.376606e+01 -1.875374e+01 -6.325037e-01 -3.771203e-01 2.065470e-01 4.931975e-02 3.659596e-02 7.286505e-02 -1.488064e-02 7.890592e-02 -3.296398e-02 9.028124e-02 -4.168310e-02 1.061242e-01 -4.116657e-02 1.229562e-01 
3.284211e-02 1.267325e-01 2.256670e-01 -1.037458e+00 -4.885668e+01 -3.526901e-01 -1.835894e-01 -1.509280e-01 -5.053824e-02 -8.873498e-02 -5.450908e-02 7.104391e-02 -2.723246e-01 5.022871e-01 -1.543797e-01 -4.297497e+00 -2.572375e+01 -1.915148e+01 -7.436172e+00 -2.070748e+01 -1.972878e+01 -4.925417e+00 -2.049138e+01 -2.438464e+01 -6.412694e+00 -1.650442e+01 -2.702819e+01 -1.006177e+01 -1.543194e+01 -2.803105e+01 -1.260820e+01 -8.452983e+00 -2.731794e+01 -2.058412e+01 -8.118031e+00 -2.480574e+01 -2.264845e+01 -5.952553e+00 -2.248244e+01 -2.696023e+01 -6.661332e+00 -1.783467e+01 -2.847334e+01 -1.092115e+01 -1.545484e+01 -2.853290e+01 -1.251877e+01 -9.451512e+00 -3.061347e+01 -2.642079e+01 -1.607046e+00 -9.805271e-01 5.119432e-01 -6.837819e-02 1.137191e-01 3.976402e-02 1.707227e-02 7.170216e-02 -6.853868e-03 9.066755e-02 -9.714995e-03 1.079051e-01 1.348197e-03 1.236810e-01 
4.220808e-02 1.228615e-01 2.515999e-01 -1.047558e+00 -4.878484e+01 -3.590401e-01 -2.086419e-01 -1.478488e-01 -7.666928e-02 -9.035467e-02 -7.237941e-02 1.295120e-03 -1.630779e-01 1.818993e-01 -8.891439e-02 -8.628312e-01 -4.357920e+00 -2.261063e+00 -1.510584e+00 -3.341895e+00 -3.711952e+00 -6.730345e-01 -3.570295e+00 -3.699235e+00 -1.291881e+00 -3.238096e+00 -5.129803e+00 -1.568989e+00 -2.689313e+00 -4.865129e+00 -2.586330e+00 -1.898769e+00 -5.162246e+00 -3.449823e+00 -1.367401e+00 -4.897373e+00 -4.568742e+00 -1.289290e+00 -4.145566e+00 -4.809581e+00 -1.229090e+00 -3.959463e+00 -5.728417e+00 -2.146613e+00 -2.728442e+00 -5.643320e+00 -2.433711e+00 -2.576172e+00 -6.016013e+00 -4.550788e+00 -6.450156e-01 -4.405717e-01 1.605721e-01 -6.971935e-02 6.766850e-02 2.299774e-02 1.885829e-02 6.037327e-02 -4.789099e-04 8.231041e-02 -3.496424e-03 1.006500e-01 8.405562e-03 1.180085e-01 
8.075238e-02 1.151345e-01 2.994750e-01 -1.006782e+00 -4.705444e+01 -2.972224e-01 -2.306030e-01 -1.328952e-01 -1.189163e-01 -8.042314e-02 -1.072677e-01 -1.849979e-02 -1.345820e-01 3.917741e-03 1.918618e-02 -5.537598e-01 1.516295e-01 4.738040e-01 -5.084136e-02 -1.701275e-01 -3.320235e-01 -7.091457e-02 2.217081e-01 3.645335e-01 -9.177843e-02 -4.192309e-01 -2.482060e-01 1.540469e-01 2.545140e-01 1.536538e-01 -2.684958e-01 -4.160046e-01 6.246992e-03 3.779617e-01 1.418873e-01 -2.518745e-01 -3.756819e-01 -1.701398e-01 2.191708e-01 3.584572e-01 -1.612842e-02 -4.818564e-01 -2.959841e-01 7.943479e-02 2.799731e-01 6.896089e-02 -1.135659e-01 -6.284043e-01 -6.741239e-03 6.744144e-01 -2.264426e-01 -9.283638e-02 6.466107e-02 -4.995076e-02 5.917324e-02 1.745254e-02 3.068445e-02 5.591848e-02 1.863804e-02 8.002108e-02 2.210143e-02 9.874400e-02 4.094395e-02 1.147963e-01 
8.489532e-02 1.108402e-01 3.120588e-01 -9.978797e-01 -4.620996e+01 -3.022940e-01 -2.379765e-01 -1.376644e-01 -1.213761e-01 -9.175919e-02 -9.513471e-02 -5.025796e-02 -8.840925e-02 -4.110112e-02 -2.743551e-03 -2.569366e-01 1.587916e-01 4.117740e-02 -1.076368e-02 -1.137536e-01 -1.087237e-01 -3.434614e-02 1.110267e-01 6.567812e-02 -3.238138e-02 -1.390867e-01 -7.662213e-02 2.849168e-02 1.141553e-01 4.190484e-02 -8.772486e-02 -1.284925e-01 2.241902e-02 1.068755e-01 6.632880e-02 -4.382568e-02 -1.359974e-01 -6.303570e-02 1.037995e-01 1.310542e-01 1.609947e-02 -1.058627e-01 -1.086152e-01 1.415263e-02 1.327239e-01 8.581152e-02 -2.241913e-02 -1.377068e-01 -5.033952e-02 2.645373e-01 -7.942207e-02 2.881113e-03 2.890165e-02 -5.180606e-03 3.297568e-02 2.674718e-02 2.179542e-02 5.369170e-02 1.740625e-02 7.458337e-02 2.384203e-02 9.268526e-02 4.412048e-02 1.095936e-01 
1.101334e-01 1.016115e-01 3.396175e-01 -9.528398e-01 -4.394556e+01 -2.446587e-01 -2.402325e-01 -1.299858e-01 -1.378369e-01 -9.512974e-02 -1.014815e-01 -6.811931e-02 -7.735817e-02 -6.197199e-02 -2.633606e-02 -1.361323e-01 7.194087e-02 -5.016421e-02 -1.275988e-02 -7.982243e-02 -2.708809e-02 -1.801809e-02 2.772861e-02 -7.394625e-03 -1.601101e-02 -5.960032e-02 -1.942214e-02 1.783257e-03 2.990055e-02 -4.219909e-04 -2.099884e-02 -3.811848e-02 1.070427e-03 2.481872e-02 2.118896e-02 -1.602560e-02 -3.562606e-02 -1.428747e-02 2.351176e-02 3.983034e-02 1.467904e-02 -2.501145e-02 -3.505455e-02 6.393796e-03 3.939303e-02 4.262146e-02 3.101814e-03 -1.052718e-02 -5.735997e-02 1.168640e-01 -1.733728e-02 3.078466e-02 1.834628e-02 2.026980e-02 2.479984e-02 3.627427e-02 2.463003e-02 5.549469e-02 2.876073e-02 7.326606e-02 4.154134e-02 8.952772e-02 6.659876e-02 1.043798e-01 
1.090411e-01 9.702986e-02 3.399917e-01 -9.270104e-01 -4.247592e+01 -2.497044e-01 -2.357900e-01 -1.355018e-01 -1.286312e-01 -1.047013e-01 -8.565054e-02 -8.134575e-02 -5.978196e-02 -5.099868e-02 -7.740907e-02 1.435247e-02 4.147332e-02 -1.731551e-01 -2.781323e-02 -4.199398e-02 8.031173e-02 2.172518e-02 -5.700124e-02 -1.022794e-01 -3.233651e-03 4.340687e-02 4.646700e-02 -3.070580e-02 -6.726112e-02 -4.796871e-02 5.895876e-02 6.135164e-02 -2.920628e-02 -7.432369e-02 -2.447608e-02 3.303270e-02 7.140752e-02 2.036899e-02 -7.238464e-02 -6.124426e-02 3.327795e-02 7.998597e-02 2.749413e-02 -2.669580e-02 -6.076282e-02 1.402655e-02 5.301635e-02 1.262433e-01 -1.143498e-01 -4.614500e-02 7.806800e-02 3.977505e-02 1.298830e-02 4.220957e-02 8.427223e-03 4.584953e-02 1.452726e-02 5.645551e-02 2.407518e-02 7.003120e-02 3.965775e-02 8.462089e-02 6.571602e-02 9.942586e-02 
1.234249e-01 8.742287e-02 3.519833e-01 -8.820257e-01 -3.978394e+01 -1.914261e-01 -2.247768e-01 -1.308267e-01 -1.306103e-01 -1.144493e-01 -7.731143e-02 -1.059098e-01 -4.035929e-02 -4.934265e-02 -1.673231e-01 2.502404e-01 1.365668e-01 -1.272410e-01 -6.519870e-02 1.931280e-01 2.196468e-01 1.219342e-01 -9.241410e-02 -9.823200e-02 6.584425e-03 2.812879e-01 1.713747e-01 -3.808084e-02 -1.297495e-01 -1.019019e-03 1.626863e-01 2.295519e-01 1.406197e-02 -1.668553e-01 -5.590055e-02 1.843826e-01 2.230043e-01 6.760049e-02 -1.009137e-01 -1.623468e-01 7.122429e-02 2.629323e-01 1.519545e-01 -9.150086e-02 -1.082285e-01 -9.767340e-03 1.477274e-01 3.100729e-01 -1.103210e-01 -3.469873e-01 2.021769e-01 6.221142e-02 -4.648414e-04 7.242685e-02 -7.810529e-03 5.824004e-02 1.137699e-02 5.933066e-02 2.992713e-02 6.853203e-02 5.077836e-02 8.057638e-02 7.963019e-02 9.312579e-02 
1.178681e-01 8.222636e-02 3.419768e-01 -8.429552e-01 -3.779395e+01 -1.931455e-01 -2.135430e-01 -1.327956e-01 -1.170281e-01 -1.232471e-01 -5.811583e-02 -1.365260e-01 3.568430e-03 -1.149715e-01 -2.323765e-01 4.443304e-01 4.901451e+00 4.599911e+00 1.157772e+00 3.908823e+00 4.239332e+00 1.331444e+00 3.295299e+00 4.903307e+00 1.363635e+00 2.753825e+00 5.208976e+00 2.482794e+00 2.169885e+00 5.036026e+00 2.910658e+00 1.401757e+00 4.693452e+00 4.115795e+00 1.259516e+00 4.147871e+00 4.601932e+00 1.248017e+00 3.512850e+00 4.880134e+00 1.490374e+00 2.710493e+00 5.279449e+00 2.364599e+00 2.169478e+00 4.746824e+00 2.858650e+00 1.365717e+00 4.942839e+00 4.675257e+00 8.414156e-01 2.697197e-01 -8.814191e-02 8.415324e-02 -3.456783e-02 6.105241e-02 1.597822e-03 5.870084e-02 2.491821e-02 6.534190e-02 4.707294e-02 7.583905e-02 7.562098e-02 8.788531e-02 
1.237964e-01 7.238270e-02 3.418286e-01 -7.967903e-01 -3.475849e+01 -1.321835e-01 -1.960213e-01 -1.230102e-01 -1.159680e-01 -1.323472e-01 -4.186710e-02 -2.122220e-01 1.197859e-01 -4.235655e-01 4.722438e-02 7.497736e-01 1.384034e+01 1.269830e+01 3.854360e+00 1.080216e+01 1.205340e+01 3.280662e+00 1.040728e+01 1.453782e+01 4.199583e+00 7.708162e+00 1.542940e+01 7.255887e+00 7.215998e+00 1.535215e+01 8.429294e+00 3.829463e+00 1.457207e+01 1.281519e+01 4.089718e+00 1.262145e+01 1.358593e+01 3.676374e+00 1.136477e+01 1.555261e+01 4.301859e+00 8.172533e+00 1.608558e+01 7.585070e+00 7.146982e+00 1.523430e+01 8.354297e+00 4.032464e+00 1.620785e+01 1.610265e+01 1.636978e+00 7.531046e-01 -3.120368e-01 1.204105e-01 -7.543777e-02 6.287865e-02 -8.623215e-04 5.603526e-02 3.038644e-02 6.129981e-02 5.451234e-02 7.038296e-02 8.316474e-02 8.066631e-02 
1.147702e-01 6.625442e-02 3.231010e-01 -7.447248e-01 -3.233655e+01 -1.304205e-01 -1.820564e-01 -1.138124e-01 -1.046468e-01 -1.155068e-01 -3.667501e-02 -1.721868e-01 1.008666e-01 -3.798912e-01 3.127936e-01 5.456721e-02 4.719807e+00 3.871612e+00 1.727071e+00 3.653529e+00 4.465867e+00 8.285040e-01 4.145230e+00 5.249938e+00 1.768796e+00 2.891509e+00 6.012425e+00 2.580503e+00 3.043141e+00 6.011383e+00 3.325927e+00 1.505506e+00 5.943025e+00 5.029269e+00 1.698374e+00 5.199539e+00 5.436758e+00 1.503562e+00 4.774996e+00 6.391660e+00 1.647752e+00 3.549447e+00 6.621322e+00 3.229241e+00 2.997032e+00 6.551697e+00 3.272061e+00 2.019496e+00 7.118644e+00 7.044951e+00 4.175110e-01 4.782002e-01 -1.798648e-01 1.104236e-01 -4.259528e-02 6.026015e-02 5.757868e-03 5.285209e-02 2.961095e-02 5.680140e-02 5.073973e-02 6.485637e-02 7.705778e-02 7.457737e-02 
1.142124e-01 5.640287e-02 3.128347e-01 -6.912865e-01 -2.904036e+01 -7.083288e-02 -1.632630e-01 -8.566734e-02 -1.157223e-01 -5.947828e-02 -9.409565e-02 6.301560e-03 -1.456133e-01 1.643792e-01 9.030483e-02 -1.020712e+00 -1.362077e+01 -1.253969e+01 -3.534391e+00 -1.073465e+01 -1.152903e+01 -3.416276e+00 -1.010237e+01 -1.406877e+01 -3.857369e+00 -7.644686e+00 -1.476000e+01 -6.984636e+00 -6.982130e+00 -1.477527e+01 -7.873143e+00 -3.796092e+00 -1.401820e+01 -1.212641e+01 -3.903178e+00 -1.219264e+01 -1.282380e+01 -3.455736e+00 -1.100233e+01 -1.469736e+01 -4.039002e+00 -7.886727e+00 -1.527134e+01 -6.993379e+00 -6.960192e+00 -1.440168e+01 -7.869441e+00 -3.810656e+00 -1.552521e+01 -1.507280e+01 -1.455716e+00 -5.416628e-01 2.384319e-01 -4.763724e-03 7.562442e-02 3.517786e-02 3.985135e-02 4.365731e-02 4.187378e-02 5.035078e-02 5.657262e-02 5.815080e-02 7.979471e-02 6.662724e-02 
1.024762e-01 4.968545e-02 2.867194e-01 -6.290474e-01 -2.627179e+01 -6.773742e-02 -1.493214e-01 -7.415096e-02 -1.108550e-01 -4.344271e-02 -1.060195e-01 3.355741e-02 -1.893430e-01 2.146427e-01 -1.280522e-01 -3.985940e-01 -9.735653e+00 -8.860888e+00 -2.917930e+00 -7.502604e+00 -8.790126e+00 -2.295750e+00 -7.387301e+00 -1.037924e+01 -3.167155e+00 -5.470911e+00 -1.125537e+01 -5.261923e+00 -5.147268e+00 -1.109029e+01 -6.313466e+00 -2.769692e+00 -1.056506e+01 -9.391106e+00 -2.971112e+00 -9.170488e+00 -1.008789e+01 -2.739882e+00 -8.175695e+00 -1.144759e+01 -3.213273e+00 -5.994529e+00 -1.187897e+01 -5.683698e+00 -5.104491e+00 -1.128730e+01 -6.240741e+00 -3.005293e+00 -1.183388e+01 -1.196666e+01 -1.388374e+00 -5.877897e-01 2.577740e-01 -3.825256e-02 8.491324e-02 1.854407e-02 4.246478e-02 3.445515e-02 4.005505e-02 4.328947e-02 5.154567e-02 5.134195e-02 7.172065e-02 5.954391e-02 
9.654838e-02 4.034313e-02 2.678266e-01 -5.760321e-01 -2.280972e+01 -1.310084e-02 -1.255846e-01 -5.832700e-02 -1.068348e-01 -3.924060e-02 -9.752550e-02 -9.920704e-03 -1.078043e-01 1.166608e-02 -3.213175e-02 -2.974252e-01 -5.562052e-01 -7.305835e-02 -2.655220e-01 -4.920774e-01 -7.118385e-01 -1.052927e-01 -3.973723e-01 -3.572851e-01 -2.706738e-01 -5.842023e-01 -8.370477e-01 -1.736396e-01 -2.450436e-01 -6.314932e-01 -5.466560e-01 -3.940742e-01 -7.056879e-01 -3.606958e-01 -1.326178e-01 -7.967862e-01 -8.322228e-01 -2.422274e-01 -4.572302e-01 -5.634170e-01 -2.159584e-01 -7.254010e-01 -9.163916e-01 -3.094246e-01 -2.027546e-01 -7.945552e-01 -4.554107e-01 -5.910674e-01 -7.906610e-01 -4.095004e-01 -2.382899e-01 -1.044944e-01 4.981555e-02 -2.958826e-02 4.805694e-02 8.052102e-03 3.954773e-02 2.578650e-02 4.135079e-02 3.598218e-02 5.172788e-02 4.394143e-02 6.944634e-02 5.119499e-02 
8.265118e-02 3.348995e-02 2.358731e-01 -5.083688e-01 -1.977158e+01 -8.715224e-03 -1.073279e-01 -4.920361e-02 -9.310673e-02 -3.348185e-02 -8.398396e-02 -1.615635e-02 -7.862196e-02 -3.200485e-02 1.855942e-02 -2.728560e-01 9.764524e-02 1.742270e-01 -2.427005e-02 -9.912271e-02 -1.737220e-01 -4.856627e-02 1.375342e-01 1.348499e-01 -5.894767e-02 -1.806944e-01 -9.281859e-02 6.016681e-02 1.426561e-01 5.261455e-02 -1.489233e-01 -1.603186e-01 5.731649e-02 1.573517e-01 5.856353e-02 -9.593119e-02 -1.748044e-01 -5.579290e-02 1.535067e-01 1.586768e-01 -3.703044e-02 -1.765286e-01 -9.765827e-02 5.599726e-02 1.596586e-01 5.132371e-02 -9.156784e-02 -2.227121e-01 7.552942e-02 3.124606e-01 -1.607752e-01 -1.252097e-02 2.100057e-02 -1.683688e-02 3.814480e-02 5.689914e-03 3.466027e-02 2.022973e-02 3.624168e-02 2.959550e-02 4.464917e-02 3.699925e-02 5.947166e-02 4.365931e-02 
7.254382e-02 2.503771e-02 2.095785e-01 -4.525524e-01 -1.621601e+01 3.672008e-02 -7.976356e-02 -3.859483e-02 -7.902209e-02 -3.248303e-02 -6.528683e-02 -2.803034e-02 -4.673947e-02 -4.397108e-02 6.272688e-03 -1.205001e-01 3.837431e-02 2.690719e-02 -9.081515e-03 -4.665874e-02 -6.017234e-02 -1.457270e-02 3.580693e-02 3.086546e-02 -1.421311e-02 -6.401749e-02 -3.360726e-02 1.739629e-02 4.345988e-02 1.052661e-02 -3.875103e-02 -4.860888e-02 1.223138e-02 4.809713e-02 2.556241e-02 -3.111846e-02 -5.432124e-02 -1.446177e-02 4.473936e-02 5.168680e-02 2.688281e-03 -5.298303e-02 -3.441682e-02 1.819155e-02 5.669352e-02 2.052347e-02 -1.335982e-02 -5.150960e-02 -7.727147e-03 1.265155e-01 -5.129864e-02 2.759345e-02 1.953707e-03 3.735973e-03 2.047753e-02 8.344762e-03 2.640211e-02 1.662739e-02 3.169835e-02 2.382627e-02 4.015423e-02 2.997851e-02 5.298870e-02 3.543005e-02 
5.716759e-02 1.843579e-02 1.734534e-01 -3.813496e-01 -1.297084e+01 4.338358e-02 -5.832173e-02 -3.012301e-02 -6.173440e-02 -2.720683e-02 -4.926219e-02 -2.663692e-02 -3.033957e-02 -4.191351e-02 1.188317e-02 -8.263141e-02 1.997875e-02 1.117219e-02 -2.719786e-03 -3.086233e-02 -4.142245e-02 -1.163381e-02 2.159761e-02 1.679325e-02 -8.296370e-03 -4.096256e-02 -2.278813e-02 9.669865e-03 2.825277e-02 3.884399e-03 -2.522126e-02 -2.796905e-02 8.241746e-03 2.821434e-02 1.561319e-02 -2.178508e-02 -3.428421e-02 -4.999267e-03 2.990307e-02 2.945018e-02 -1.233434e-04 -3.279933e-02 -1.901728e-02 1.458373e-02 3.714380e-02 9.304103e-03 -1.029051e-02 -2.351879e-02 -3.598010e-03 8.256044e-02 -4.257354e-02 3.004022e-02 -4.817157e-03 7.775199e-03 1.329758e-02 7.728647e-03 2.005357e-02 1.292577e-02 2.487550e-02 1.837214e-02 3.160030e-02 2.335060e-02 4.163768e-02 2.785244e-02 
4.408889e-02 1.091926e-02 1.414206e-01 -3.210662e-01 -9.376912e+00 7.975732e-02 -3.016418e-02 -2.016532e-02 -4.516061e-02 -2.224792e-02 -3.391342e-02 -2.368323e-02 -1.846142e-02 -3.212609e-02 3.218559e-03 -4.435079e-02 6.208843e-03 -1.102800e-02 -1.377344e-03 -1.823304e-02 -1.589948e-02 -7.458484e-03 3.291784e-03 5.759804e-04 -2.660459e-03 -1.677191e-02 -9.548185e-03 8.235768e-04 7.637819e-03 -1.335649e-03 -6.712243e-03 -9.669530e-03 8.087378e-04 7.822206e-03 6.192959e-03 -8.257721e-03 -1.076630e-02 -1.283016e-03 8.619155e-03 9.195076e-03 3.467331e-03 -1.051256e-02 -5.960019e-03 5.613022e-03 1.295869e-02 5.648319e-03 -2.296228e-03 1.287669e-03 -1.156543e-02 4.062255e-02 -1.855526e-02 2.528986e-02 -4.318767e-03 1.180667e-02 6.780804e-03 8.588749e-03 1.343165e-02 1.027789e-02 1.858795e-02 1.341922e-02 2.445640e-02 1.678179e-02 3.227780e-02 1.992845e-02 
2.805998e-02 4.587277e-03 1.029035e-01 -2.476029e-01 -5.979648e+00 8.985657e-02 -7.243403e-03 -1.081806e-02 -2.791783e-02 -1.511138e-02 -1.994995e-02 -1.748037e-02 -8.192040e-03 -2.410561e-02 6.733222e-03 -3.049429e-02 6.422586e-03 -8.727088e-03 1.044245e-03 -1.190566e-02 -9.791756e-03 -4.665179e-03 2.567383e-03 -6.562358e-05 -1.326568e-03 -1.050179e-02 -6.095500e-03 5.551348e-04 5.107072e-03 -1.343061e-03 -4.263990e-03 -5.541546e-03 8.346139e-04 4.470711e-03 3.794519e-03 -5.609329e-03 -6.848194e-03 -1.230701e-04 5.968058e-03 4.938486e-03 1.995283e-03 -6.649635e-03 -3.365977e-03 4.082532e-03 8.227198e-03 3.252217e-03 -2.691483e-03 3.188769e-03 -9.076254e-03 2.764972e-02 -1.635073e-02 2.007215e-02 -6.724065e-03 9.884866e-03 2.186358e-03 6.173287e-03 7.704455e-03 6.427613e-03 1.155178e-02 8.171749e-03 1.542820e-02 1.031033e-02 2.037119e-02 1.237777e-02 
1.309069e-02 -2.210364e-03 6.717583e-02 -1.841583e-01 -2.396809e+00 1.193346e-01 1.993350e-02 -4.772541e-04 -1.125695e-02 -7.555669e-03 -7.007903e-03 -1.014587e-02 -3.868262e-04 -1.413285e-02 6.229457e-03 -1.626448e-02 5.409016e-03 -7.989513e-03 2.700128e-03 -6.660152e-03 -2.282423e-03 -2.751486e-03 9.547248e-04 -9.973274e-04 8.065290e-05 -4.106217e-03 -2.183188e-03 -2.914835e-04 1.555073e-03 -8.514426e-04 -9.470994e-04 -1.975833e-03 8.793469e-05 1.129779e-03 1.579713e-03 -2.214964e-03 -2.053942e-03 -1.899036e-04 1.901556e-03 1.378128e-03 1.443903e-03 -2.279237e-03 -1.148970e-03 1.839379e-03 2.022307e-03 2.786245e-03 -2.802621e-03 5.149465e-03 -8.233971e-03 1.537975e-02 -1.012286e-02 1.325059e-02 -5.989995e-03 7.578652e-03 -1.181719e-03 4.096427e-03 2.384794e-03 2.982092e-03 4.889904e-03 3.174580e-03 7.011222e-03 3.901913e-03 9.325527e-03 4.701558e-03 
-2.707758e-03 -8.474356e-03 2.808792e-02 -1.096915e-01 1.100002e+00 1.336940e-01 4.340874e-02 1.003460e-02 4.850329e-03 9.844794e-04 5.127029e-03 -2.237586e-03 7.946272e-03 -5.971683e-03 1.077752e-02 -7.796841e-03 8.510811e-03 -2.805241e-03 5.168592e-03 -1.951581e-03 7.204526e-04 4.271309e-04 2.109680e-03 1.043435e-03 1.015335e-03 -1.145623e-03 -7.562382e-04 9.718431e-04 1.450875e-03 2.046257e-04 -3.294878e-04 -5.506162e-04 3.166401e-04 9.492354e-04 1.058301e-03 -1.361569e-03 -1.292577e-03 -9.438355e-05 1.284937e-03 3.834591e-04 7.400131e-04 -1.918886e-03 -9.979180e-04 6.606295e-04 6.242265e-04 1.107850e-03 -3.259274e-03 3.122695e-03 -7.540081e-03 9.543990e-03 -9.880773e-03 8.339281e-03 -7.539064e-03 3.852437e-03 -4.422095e-03 4.059896e-04 -2.368217e-03 -1.419032e-03 -1.549110e-03 -2.235137e-03 -1.625488e-03 -2.602812e-03 -2.279576e-03 -2.886901e-03 
-1.862667e-02 -1.482399e-02 -9.243225e-03 -4.529747e-02 4.622263e+00 1.582812e-01 6.916789e-02 2.057259e-02 2.119889e-02 9.573107e-03 1.721486e-02 6.002637e-03 1.567697e-02 2.662207e-03 1.428842e-02 8.346684e-04 1.096352e-02 1.980641e-03 7.622579e-03 2.329982e-03 4.221923e-03 3.042004e-03 3.341987e-03 2.906437e-03 2.213336e-03 1.763790e-03 8.885958e-04 2.021101e-03 1.243139e-03 1.360421e-03 5.038254e-04 7.175261e-04 4.095065e-04 7.840560e-04 5.906567e-04 -3.606592e-04 -3.528928e-04 -2.376760e-04 3.021890e-04 -3.726122e-04 5.286751e-05 -1.326746e-03 -1.080852e-03 -4.126282e-04 -1.363669e-03 6.959833e-05 -3.834584e-03 1.352118e-03 -6.862081e-03 3.931710e-03 -8.359105e-03 3.052975e-03 -7.971258e-03 -7.528627e-05 -7.198586e-03 -3.251076e-03 -7.128302e-03 -5.712161e-03 -8.196287e-03 -7.547398e-03 -1.050635e-02 -9.027995e-03 -1.409195e-02 -1.039387e-02 