# vtk DataFile Version 2.0
Comment goes here
ASCII

DATASET STRUCTURED_POINTS
FIELD FieldData 1
TIME 1 1 double
0.09200000
DIMENSIONS    64   64   1

ORIGIN    0.000   0.000   0.000
SPACING   0.03125 0.03125   1.000

POINT_DATA   4096
VECTORS u double

-14.357305 -8.408895 0.000000 -14.057200 60.792164 0.000000 -31.833266 30.546330 0.000000 -1.951474 -61.422358 0.000000 0.222513 21.233135 0.000000 -12.149258 -18.369727 0.000000 -3.692634 -13.086805 0.000000 7.937588 -13.940188 0.000000 2.437720 -7.448012 0.000000 -12.074376 -8.759532 0.000000 5.615515 -28.028492 0.000000 5.970544 4.929799 0.000000 23.494666 -19.195473 0.000000 -4.607070 -0.142145 0.000000 23.466380 -24.735083 0.000000 -2.126115 11.941107 0.000000 48.803665 -20.207996 0.000000 0.290532 3.580927 0.000000 39.220445 -13.571947 0.000000 11.769492 1.347178 0.000000 28.499725 -9.839513 0.000000 15.462618 -27.388328 0.000000 26.145054 -11.554067 0.000000 -3.570931 -16.188514 0.000000 32.092941 -16.643498 0.000000 -7.734372 -12.571985 0.000000 6.502242 9.359779 0.000000 -2.718601 -12.175929 0.000000 -11.298397 -6.959732 0.000000 -25.328898 -4.622180 0.000000 -31.605331 -36.278717 0.000000 -36.448368 19.064141 0.000000 -34.901371 -38.261074 0.000000 -25.429325 19.681349 0.000000 -30.143738 -3.061267 0.000000 -17.464887 -2.005477 0.000000 -23.264460 30.321310 0.000000 -9.315215 -20.689466 0.000000 -13.365543 12.408099 0.000000 -10.826296 -3.749018 0.000000 5.456356 7.619057 0.000000 -11.984123 12.294727 0.000000 12.737857 2.332279 0.000000 13.289219 -21.770123 0.000000 19.596249 9.162812 0.000000 30.102591 4.183638 0.000000 22.598462 3.926240 0.000000 35.458100 -7.541310 0.000000 14.096369 0.624020 0.000000 7.974232 11.053603 0.000000 10.136547 -5.153185 0.000000 21.038858 -23.121540 0.000000 19.251605 4.242013 0.000000 25.078331 -19.204041 0.000000 -5.686593 -3.075142 0.000000 35.156734 -21.686697 0.000000 -0.861473 -9.686338 0.000000 38.134176 -31.962066 0.000000 -32.497270 6.258403 0.000000 55.360815 -7.690496 0.000000 -33.339564 24.243630 0.000000 20.254449 50.933332 0.000000 -23.037092 27.375030 0.000000 -41.827789 13.583344 0.000000 
32.800152 -31.088872 0.000000 -64.402662 -39.016268 0.000000 131.191597 -19.728356 0.000000 -76.358569 9.920763 0.000000 28.431755 -8.671732 0.000000 -50.238816 13.311136 0.000000 20.909895 -7.958852 0.000000 -34.620366 11.896679 0.000000 -1.242442 17.563832 0.000000 3.294332 13.907140 0.000000 -2.512526 -9.524269 0.000000 0.702144 8.130509 0.000000 -16.508568 9.069040 0.000000 -4.206636 17.756614 0.000000 -18.030738 9.376385 0.000000 -36.184823 -3.223029 0.000000 -2.611793 2.759842 0.000000 -49.204021 16.572823 0.000000 4.642651 -5.983900 0.000000 -40.427500 21.320925 0.000000 18.279686 -1.430734 0.000000 -19.210061 15.700828 0.000000 0.538237 16.173805 0.000000 -9.345131 13.853246 0.000000 0.202087 11.985924 0.000000 -6.120331 27.768645 0.000000 15.532346 9.334274 0.000000 46.456015 19.260237 0.000000 18.678550 23.554448 0.000000 55.741447 22.637939 0.000000 21.303965 -2.203236 0.000000 36.314754 23.993782 0.000000 31.782480 -31.979715 0.000000 15.499554 8.302275 0.000000 33.517926 -15.203731 0.000000 12.707067 -16.278450 0.000000 25.397968 9.400207 0.000000 7.110471 -26.952553 0.000000 -8.391283 0.735549 0.000000 4.183997 -24.333726 0.000000 -7.248365 -2.510402 0.000000 12.144071 3.606854 0.000000 7.591889 -15.226715 0.000000 1.738513 -10.443464 0.000000 -35.265012 -3.964375 0.000000 -12.916558 -3.292121 0.000000 -38.400806 -18.348020 0.000000 16.221735 12.723559 0.000000 -43.175816 23.544422 0.000000 -6.005280 9.073027 0.000000 -4.310516 11.782512 0.000000 -22.946081 7.346279 0.000000 0.900969 16.486837 0.000000 -2.929221 7.265277 0.000000 0.216832 15.558274 0.000000 4.184650 -9.714565 0.000000 -23.799785 24.650023 0.000000 25.803820 15.933664 0.000000 -39.504164 7.403127 0.000000 29.274294 1.220426 0.000000 -6.775701 22.493134 0.000000 65.112156 -56.082665 0.000000 10.827312 1.346345 0.000000 85.050570 -24.952646 0.000000 
-143.368809 141.044336 0.000000 -5.481444 -37.599280 0.000000 -71.688978 42.502238 0.000000 35.539874 41.337484 0.000000 33.860167 -4.886618 0.000000 56.009870 -10.847868 0.000000 33.474701 -28.705256 0.000000 11.872207 8.212150 0.000000 7.051680 -45.362710 0.000000 24.631455 -7.489448 0.000000 -13.739767 -25.436304 0.000000 1.052240 18.925842 0.000000 -16.752019 -14.286693 0.000000 23.474891 1.380025 0.000000 3.195937 7.243105 0.000000 47.765783 -3.477837 0.000000 29.457216 -7.188798 0.000000 25.999652 -3.673518 0.000000 29.295891 -22.348468 0.000000 -10.911683 -12.289856 0.000000 13.678237 -31.056952 0.000000 -23.498012 -9.646879 0.000000 -13.917334 -21.418998 0.000000 -23.938354 -15.852365 0.000000 -25.319135 -19.868298 0.000000 -19.273780 -27.902244 0.000000 -34.187491 -43.216567 0.000000 -21.551198 -15.322133 0.000000 -44.681572 -16.245164 0.000000 4.920659 -7.247596 0.000000 -41.448921 -16.852024 0.000000 0.622544 8.585625 0.000000 -15.567549 -17.445874 0.000000 -9.469818 17.945903 0.000000 8.855448 -0.268779 0.000000 -0.242481 6.114481 0.000000 19.867945 35.917906 0.000000 19.907479 13.099786 0.000000 19.932964 15.334573 0.000000 21.445691 -4.891936 0.000000 -0.540423 -0.341017 0.000000 15.667395 -2.545527 0.000000 8.046999 12.737838 0.000000 1.664133 21.086778 0.000000 5.289409 23.817883 0.000000 11.446627 7.319431 0.000000 -10.255772 -25.212052 0.000000 9.030831 -2.766300 0.000000 -8.834856 22.851034 0.000000 37.961503 -27.811697 0.000000 18.064616 11.787616 0.000000 12.046867 -28.333025 0.000000 -18.147128 -15.774847 0.000000 9.772444 -18.519904 0.000000 -2.710856 -10.189013 0.000000 -5.953240 2.329919 0.000000 -21.510677 -31.305508 0.000000 -38.160731 -16.257687 0.000000 -18.449640 2.787929 0.000000 -61.522495 -40.418959 0.000000 -82.407738 -11.594232 0.000000 -114.502693 33.330319 0.000000 -126.538262 7.436616 0.000000 -35.936732 -8.389497 0.000000 
-105.869427 -61.544161 0.000000 -12.367774 -110.696099 0.000000 -90.166824 -60.749673 0.000000 8.543089 -95.628383 0.000000 22.787368 -29.141727 0.000000 18.081513 13.696602 0.000000 9.425659 36.178811 0.000000 30.475117 38.319701 0.000000 1.763872 4.804584 0.000000 43.492527 34.698587 0.000000 18.517721 14.054946 0.000000 43.796240 11.142761 0.000000 2.409322 -13.353611 0.000000 35.428062 -2.191342 0.000000 1.918226 -14.914506 0.000000 95.685078 -29.484308 0.000000 68.411253 24.525974 0.000000 81.432595 16.734148 0.000000 25.503927 30.927435 0.000000 21.918789 36.938579 0.000000 18.718157 11.155595 0.000000 -7.974609 43.296400 0.000000 0.790050 16.614147 0.000000 -10.463648 25.255046 0.000000 -8.160892 7.321350 0.000000 -11.215163 36.637000 0.000000 -18.662249 11.611693 0.000000 -29.600715 29.754318 0.000000 -39.059580 -2.917410 0.000000 -17.509623 19.405289 0.000000 -53.516401 2.094879 0.000000 -10.390234 -1.887590 0.000000 -25.920173 -21.887353 0.000000 2.597306 -16.120722 0.000000 14.675906 -24.431069 0.000000 10.107762 -27.290947 0.000000 21.583991 -10.749753 0.000000 29.301485 -27.017573 0.000000 14.231182 -0.802662 0.000000 10.402312 -3.860339 0.000000 -4.239678 3.267894 0.000000 5.666234 -4.980569 0.000000 -4.411017 -1.223453 0.000000 0.870886 -7.685873 0.000000 39.941031 -13.746868 0.000000 8.914084 12.253060 0.000000 2.229819 -15.932224 0.000000 -9.038046 11.302642 0.000000 -1.194925 -5.386250 0.000000 -2.990231 -17.826444 0.000000 -47.040161 37.697148 0.000000 18.445537 43.558023 0.000000 -12.173855 18.761259 0.000000 13.583748 -8.170995 0.000000 -29.517869 31.283958 0.000000 2.309461 9.085256 0.000000 -12.979287 56.857514 0.000000 -9.495788 12.872626 0.000000 -98.573537 30.764892 0.000000 -77.161444 65.178524 0.000000 -173.662388 75.473331 0.000000 -173.372614 -11.952140 0.000000 -82.584238 -77.219616 0.000000 18.273858 -8.122099 0.000000 
-63.217245 171.685968 0.000000 88.611538 -53.301883 0.000000 24.773400 21.591374 0.000000 38.677128 -71.616709 0.000000 25.920286 -14.425041 0.000000 36.540487 2.513842 0.000000 -22.512709 -41.098860 0.000000 38.065748 15.873937 0.000000 7.349848 -58.380120 0.000000 55.287441 -24.243297 0.000000 -21.746332 -25.740016 0.000000 39.106642 35.034240 0.000000 -15.015565 -5.918515 0.000000 45.375756 1.871121 0.000000 -37.533819 -53.013911 0.000000 147.910077 -69.970864 0.000000 118.587530 7.063685 0.000000 77.207676 39.233808 0.000000 115.591077 37.165337 0.000000 13.786227 -5.504086 0.000000 24.997872 -1.163554 0.000000 0.036890 8.281228 0.000000 -11.122243 -18.929958 0.000000 -3.479588 -6.901422 0.000000 -10.827332 -19.116784 0.000000 -33.623069 -17.400887 0.000000 -54.491711 -24.831014 0.000000 -67.387671 5.075198 0.000000 -66.683452 -28.336256 0.000000 -44.767548 7.209226 0.000000 -80.186055 -23.971412 0.000000 -32.231647 -19.010603 0.000000 -50.194411 -30.433413 0.000000 -7.820508 -22.650176 0.000000 -7.435468 -7.779236 0.000000 0.187498 -0.793604 0.000000 1.716230 16.724183 0.000000 30.039527 20.452594 0.000000 27.354762 34.233745 0.000000 10.809721 13.578925 0.000000 0.750569 4.395061 0.000000 -10.953780 -2.374188 0.000000 -20.878892 17.533186 0.000000 -6.088632 -23.265270 0.000000 55.770625 15.774685 0.000000 17.746369 45.030644 0.000000 74.132611 -7.259922 0.000000 84.296756 0.658444 0.000000 79.192206 16.803218 0.000000 200.841753 18.033539 0.000000 179.508744 -9.648152 0.000000 78.320503 -63.199331 0.000000 18.295225 -10.913058 0.000000 98.988623 -1.175890 0.000000 62.411259 1.085273 0.000000 79.986655 -14.208663 0.000000 42.521010 -19.500259 0.000000 34.980061 69.336563 0.000000 7.861330 70.453585 0.000000 -32.342650 34.669892 0.000000 -94.581880 84.616937 0.000000 97.847402 -57.747831 0.000000 -80.593532 -184.209855 0.000000 148.230408 14.895693 0.000000 
-18.233926 -1.925291 0.000000 56.299857 -198.686745 0.000000 38.643641 -10.815263 0.000000 161.772644 -96.775268 0.000000 4.534723 -27.005086 0.000000 144.652715 62.129596 0.000000 -19.297790 34.653550 0.000000 -18.701098 8.457144 0.000000 -28.056468 -12.417109 0.000000 40.580932 63.794767 0.000000 21.231939 30.235746 0.000000 30.914505 4.411994 0.000000 -42.176825 -19.622725 0.000000 2.588175 20.326912 0.000000 -92.192632 -117.448828 0.000000 135.099333 -185.605656 0.000000 129.080215 95.228375 0.000000 142.214958 19.730601 0.000000 -41.132158 94.348884 0.000000 -16.289950 127.531784 0.000000 -0.350638 24.904932 0.000000 -39.251959 79.416514 0.000000 -23.478865 20.130625 0.000000 -12.994660 24.960136 0.000000 -12.618626 37.464832 0.000000 -19.784761 80.301379 0.000000 -29.435087 45.376295 0.000000 -51.486236 41.946060 0.000000 -59.760924 -25.537533 0.000000 -6.544983 32.907891 0.000000 -60.981663 -10.441022 0.000000 -0.747993 -31.879233 0.000000 -10.639258 -46.298493 0.000000 33.009034 -58.879665 0.000000 43.948229 -32.439074 0.000000 55.512471 -36.442644 0.000000 34.522538 -40.601783 0.000000 39.634146 -52.656105 0.000000 66.679240 18.427143 0.000000 50.628960 22.743854 0.000000 -1.980804 25.031396 0.000000 20.908831 16.648892 0.000000 7.082338 -6.088601 0.000000 16.458470 -84.335390 0.000000 56.953806 -37.581870 0.000000 101.753662 -6.108926 0.000000 77.491956 -82.482611 0.000000 187.947567 6.243047 0.000000 145.827215 -121.931247 0.000000 232.823467 -118.142982 0.000000 344.403869 160.218399 0.000000 204.664006 204.771542 0.000000 100.405409 -1.906861 0.000000 43.470206 -52.287028 0.000000 39.389732 50.285926 0.000000 8.244147 28.975505 0.000000 -5.978130 101.864107 0.000000 -9.342495 47.532306 0.000000 77.234760 98.087602 0.000000 -91.634094 167.621734 0.000000 -58.276647 -54.716720 0.000000 249.787894 -25.940488 0.000000 -45.983469 -127.602621 0.000000 129.233469 -25.498385 0.000000 
67.496897 244.619580 0.000000 39.139731 -110.179451 0.000000 151.874330 -83.881413 0.000000 193.892693 -37.507790 0.000000 6.449765 2.694888 0.000000 166.676279 26.346354 0.000000 155.898197 122.254953 0.000000 194.022148 24.632614 0.000000 101.953577 -117.662151 0.000000 105.844288 -73.531704 0.000000 96.748868 -16.073589 0.000000 71.874879 98.443005 0.000000 12.084861 22.407815 0.000000 -11.222484 51.886928 0.000000 -88.249367 -185.525069 0.000000 -26.195456 -291.243711 0.000000 120.065789 -0.051940 0.000000 23.635841 209.446181 0.000000 80.929638 195.670245 0.000000 76.258833 -46.285606 0.000000 -4.279119 21.798455 0.000000 23.404052 31.409455 0.000000 -33.357048 -45.187258 0.000000 -27.416454 -17.761661 0.000000 -76.158507 -12.326683 0.000000 -45.267630 -0.584425 0.000000 -94.325574 6.870461 0.000000 -92.454072 35.401035 0.000000 -96.886119 -73.277509 0.000000 -5.560353 8.429964 0.000000 -16.913396 -29.768403 0.000000 21.330447 -69.353008 0.000000 -5.288356 -64.190440 0.000000 55.887627 -77.237663 0.000000 34.174209 -30.282672 0.000000 32.570000 8.632087 0.000000 3.115485 32.602509 0.000000 23.181695 -11.704107 0.000000 -9.082871 23.238931 0.000000 -57.847553 82.238968 0.000000 -25.815530 34.115191 0.000000 -20.209700 -11.437330 0.000000 16.554144 21.983546 0.000000 44.607117 -73.136739 0.000000 2.966189 -69.520508 0.000000 152.512744 24.492494 0.000000 12.942773 -93.453827 0.000000 243.542679 -67.676816 0.000000 212.730116 -28.072682 0.000000 206.772391 -180.543115 0.000000 226.755699 18.511310 0.000000 378.359554 180.799129 0.000000 348.423528 150.280742 0.000000 128.163923 59.839788 0.000000 -14.196059 36.311332 0.000000 89.021148 31.159198 0.000000 31.213754 -1.913616 0.000000 137.523378 -13.876326 0.000000 -16.652333 152.745184 0.000000 38.556741 170.181300 0.000000 16.486779 -256.805050 0.000000 84.344489 -70.041010 0.000000 73.891810 -63.655430 0.000000 140.437697 -12.853850 0.000000 
-19.531763 99.372675 0.000000 127.452580 -283.064178 0.000000 -139.152611 -165.568226 0.000000 -9.816042 48.649297 0.000000 -22.974551 0.211327 0.000000 26.953462 -87.318836 0.000000 25.341673 7.307681 0.000000 128.306168 62.401764 0.000000 62.238989 75.760751 0.000000 -9.672976 68.999476 0.000000 -36.442215 64.205155 0.000000 -4.480112 89.076001 0.000000 -51.503071 63.474638 0.000000 -73.812055 120.661140 0.000000 6.537008 -102.475855 0.000000 -193.390042 -393.920813 0.000000 26.086684 45.397078 0.000000 -58.824669 58.866752 0.000000 214.182925 41.725892 0.000000 -70.361579 212.740541 0.000000 67.895845 77.759713 0.000000 4.732580 108.494443 0.000000 -24.279168 70.951130 0.000000 7.950826 67.761595 0.000000 -19.388197 55.316008 0.000000 -60.064481 98.468445 0.000000 -140.992049 92.562737 0.000000 -100.069808 44.506606 0.000000 -86.161147 -112.431251 0.000000 -45.774724 -47.064833 0.000000 40.422408 -37.331822 0.000000 54.510839 -43.504274 0.000000 34.830228 -80.855673 0.000000 126.475516 -98.342230 0.000000 101.510934 -9.121447 0.000000 151.931191 -5.383920 0.000000 198.770249 -31.213478 0.000000 166.240104 -40.457749 0.000000 117.084773 99.456392 0.000000 138.986132 39.476513 0.000000 92.641602 -12.606458 0.000000 -8.424411 -25.720782 0.000000 53.752000 -70.905418 0.000000 133.542806 -70.747435 0.000000 39.231160 -145.487497 0.000000 77.987970 -16.085511 0.000000 108.814173 -173.512546 0.000000 99.693813 -193.544296 0.000000 141.433993 -85.160960 0.000000 73.433502 -132.168565 0.000000 44.360280 -11.368764 0.000000 249.437787 83.103713 0.000000 143.242751 248.288769 0.000000 225.394718 310.332559 0.000000 103.618685 89.428702 0.000000 19.181382 -16.434308 0.000000 131.973832 53.361877 0.000000 -28.270395 95.398393 0.000000 -66.157178 197.054239 0.000000 -48.843997 134.482622 0.000000 107.433892 -100.504468 0.000000 -97.532706 -83.345519 0.000000 93.433276 -183.695829 0.000000 251.088120 -19.103472 0.000000 
45.497548 368.255120 0.000000 240.428197 9.441397 0.000000 -102.755000 53.387209 0.000000 70.663598 -153.685850 0.000000 -19.688186 -34.074616 0.000000 92.707800 -21.969869 0.000000 98.677957 20.902248 0.000000 50.812695 -12.264702 0.000000 115.687717 20.316993 0.000000 191.540986 25.149500 0.000000 86.716085 -21.266453 0.000000 48.610907 113.503861 0.000000 78.786801 91.739758 0.000000 145.876718 -6.153151 0.000000 63.368668 -65.947082 0.000000 -82.585258 -310.793387 0.000000 -147.978597 -134.617313 0.000000 136.544830 21.349940 0.000000 -277.693415 207.207156 0.000000 -17.790594 100.001474 0.000000 -32.846169 -53.295704 0.000000 -62.757325 123.584468 0.000000 -32.131198 -48.405504 0.000000 2.195587 -22.652633 0.000000 -18.592416 55.688625 0.000000 15.717400 121.019427 0.000000 19.915134 46.875787 0.000000 -21.644378 -19.429867 0.000000 -1.690593 -127.572593 0.000000 -5.656303 -118.153590 0.000000 64.153617 -130.053965 0.000000 61.353073 -63.760829 0.000000 29.362793 -136.155118 0.000000 18.596001 -143.918369 0.000000 168.274238 -55.738348 0.000000 104.523554 -88.627228 0.000000 175.969799 18.293596 0.000000 116.015675 69.981369 0.000000 32.904713 50.492904 0.000000 62.149077 106.682139 0.000000 -15.328872 181.525733 0.000000 -58.668728 27.452272 0.000000 -75.715297 -119.983670 0.000000 -11.636668 -58.615899 0.000000 -56.500051 -13.965672 0.000000 6.940539 -45.090518 0.000000 134.628861 -115.159669 0.000000 42.345773 -100.296636 0.000000 124.243412 -1.812371 0.000000 33.890743 -83.469402 0.000000 26.964731 -157.492975 0.000000 -34.291065 81.916658 0.000000 112.944778 174.323810 0.000000 -18.490016 99.463854 0.000000 339.498157 242.524668 0.000000 -17.404102 2.804051 0.000000 54.111468 45.538161 0.000000 -36.161614 184.254684 0.000000 107.907316 173.318786 0.000000 42.485591 -3.409771 0.000000 193.175395 -208.116341 0.000000 22.299278 -56.040393 0.000000 -10.654534 -412.276257 0.000000 73.628625 100.111189 0.000000 
-72.555722 -67.426898 0.000000 119.447946 -134.811630 0.000000 -64.964365 4.196374 0.000000 159.434772 -34.417518 0.000000 -8.448947 -21.832874 0.000000 173.178332 -205.684978 0.000000 253.459177 49.202786 0.000000 178.847858 45.392004 0.000000 146.069537 -64.967540 0.000000 179.846409 97.971108 0.000000 10.206487 207.135233 0.000000 1.289329 97.005285 0.000000 85.640928 -33.791174 0.000000 36.589128 136.079274 0.000000 94.502779 125.986121 0.000000 61.003485 -182.573549 0.000000 -120.096040 -173.733011 0.000000 121.396087 188.581570 0.000000 -207.137220 196.061316 0.000000 109.758272 -32.106705 0.000000 -246.934168 122.726444 0.000000 47.411873 107.779472 0.000000 -43.245189 5.998218 0.000000 74.394713 54.222813 0.000000 42.731275 41.794195 0.000000 73.174913 59.960896 0.000000 153.525320 129.924515 0.000000 79.258430 66.112333 0.000000 170.262219 -128.419326 0.000000 128.785184 -112.909043 0.000000 63.359088 -104.341199 0.000000 0.939646 -8.713449 0.000000 131.261126 -38.098600 0.000000 1.370321 -237.253676 0.000000 87.337235 -95.049000 0.000000 60.952600 -13.079481 0.000000 157.192927 -42.705598 0.000000 177.403179 102.607337 0.000000 141.347811 153.322989 0.000000 116.966385 87.710098 0.000000 38.628516 108.211348 0.000000 57.685806 34.665643 0.000000 16.007209 -117.937479 0.000000 -12.863207 -89.962681 0.000000 -2.744303 -164.064704 0.000000 42.002907 -207.214422 0.000000 34.440023 -208.917780 0.000000 -10.941565 -183.158847 0.000000 39.507229 -76.705930 0.000000 31.649267 -34.889884 0.000000 -64.328595 56.813044 0.000000 -63.797721 -2.876334 0.000000 -72.590046 232.487720 0.000000 140.058452 83.779180 0.000000 -105.633666 88.342789 0.000000 142.723109 268.952382 0.000000 -2.416294 72.119388 0.000000 -3.906399 41.602544 0.000000 229.334458 118.407035 0.000000 343.454126 49.214543 0.000000 112.188723 -80.318156 0.000000 134.997822 120.484410 0.000000 155.231092 -235.025176 0.000000 -197.197905 -75.255554 0.000000 
174.763067 51.609269 0.000000 143.101940 1.850040 0.000000 105.556235 13.400383 0.000000 193.748283 -210.201268 0.000000 -10.655628 -47.818176 0.000000 27.580040 -283.877993 0.000000 98.137082 15.232721 0.000000 216.028423 95.124938 0.000000 100.172219 19.318442 0.000000 -87.330487 161.012550 0.000000 136.850269 157.290626 0.000000 212.995312 38.069420 0.000000 224.966650 56.439959 0.000000 -77.215735 -15.015001 0.000000 141.219453 -90.361439 0.000000 -113.665774 -96.194568 0.000000 -79.171263 -195.009916 0.000000 -6.468726 108.391120 0.000000 16.374279 218.844971 0.000000 1.237560 139.798422 0.000000 -50.029001 9.050695 0.000000 7.180599 -80.104511 0.000000 -10.342476 -75.388345 0.000000 51.790218 -108.629096 0.000000 -8.407036 56.908426 0.000000 91.702553 10.225382 0.000000 -1.539650 40.792270 0.000000 -16.226885 -36.166766 0.000000 53.062538 -177.099347 0.000000 222.651001 -11.250460 0.000000 92.868133 -2.208427 0.000000 -36.300089 -131.662867 0.000000 -13.517641 -136.585793 0.000000 11.288219 -99.994478 0.000000 15.698953 -115.320626 0.000000 66.293675 -158.482919 0.000000 150.266908 -98.156983 0.000000 223.408318 85.826485 0.000000 178.439373 110.929697 0.000000 143.668335 209.401434 0.000000 6.010184 240.806312 0.000000 123.432216 50.073579 0.000000 168.382022 -49.434657 0.000000 115.756968 -39.864388 0.000000 73.745763 -68.831787 0.000000 22.526402 -82.274845 0.000000 -103.451975 -62.215197 0.000000 -25.259059 -105.363842 0.000000 -39.881821 -44.403203 0.000000 -38.413920 20.366422 0.000000 -38.539785 -62.045987 0.000000 -87.303612 90.178109 0.000000 -11.630743 -29.532363 0.000000 79.491781 132.507474 0.000000 -46.913037 239.860012 0.000000 139.781624 -100.413321 0.000000 112.833003 192.167668 0.000000 241.698105 -47.496067 0.000000 163.421843 -174.041739 0.000000 49.123346 113.735964 0.000000 147.866012 0.339962 0.000000 84.021712 -99.082762 0.000000 5.924360 -80.080529 0.000000 142.527458 327.898003 0.000000 
209.318305 -68.001380 0.000000 31.072085 -65.604798 0.000000 204.714775 -46.449969 0.000000 -36.947135 81.794345 0.000000 13.232583 144.335368 0.000000 -141.093463 -314.477689 0.000000 170.184347 -139.245597 0.000000 113.544357 43.356866 0.000000 19.772703 238.391370 0.000000 94.946639 61.293058 0.000000 97.788446 -93.190566 0.000000 235.033865 8.888904 0.000000 250.468632 256.419873 0.000000 272.083534 219.826471 0.000000 66.009286 162.436161 0.000000 184.426664 37.817168 0.000000 3.675540 -280.930059 0.000000 -21.014609 93.036028 0.000000 -19.489996 188.355030 0.000000 -59.276924 34.296574 0.000000 141.850363 116.783405 0.000000 -118.352928 68.092947 0.000000 11.431221 -38.611401 0.000000 4.380603 52.287373 0.000000 52.661339 1.881860 0.000000 130.235574 53.093510 0.000000 90.651975 237.853954 0.000000 218.559464 11.510145 0.000000 39.872725 -367.297212 0.000000 198.757509 -152.714638 0.000000 335.668616 154.609890 0.000000 330.051001 97.672324 0.000000 154.927388 -85.686908 0.000000 53.439430 -266.470270 0.000000 -31.024897 -150.054455 0.000000 58.546315 -147.647436 0.000000 26.723958 -199.820242 0.000000 61.658940 74.434872 0.000000 111.093726 233.062973 0.000000 72.469037 260.139286 0.000000 154.712314 128.447467 0.000000 229.545495 -127.706195 0.000000 139.795532 -110.262231 0.000000 177.486683 4.673578 0.000000 98.693244 -70.834137 0.000000 116.217188 -30.016684 0.000000 64.975734 -161.132319 0.000000 170.803546 -246.729001 0.000000 65.438950 -63.551069 0.000000 211.899325 -36.231921 0.000000 23.613883 105.702736 0.000000 63.456994 -29.785376 0.000000 92.784153 65.692327 0.000000 -68.802486 119.061474 0.000000 22.861367 28.052946 0.000000 125.063687 109.206342 0.000000 -86.067165 -29.797093 0.000000 20.560650 -8.986296 0.000000 -97.276048 310.981794 0.000000 -181.365032 64.770374 0.000000 -48.772437 -115.216522 0.000000 43.744731 262.426062 0.000000 -281.393408 -293.530921 0.000000 -61.075916 -244.094260 0.000000 
-248.733238 -40.538732 0.000000 -191.458138 6.453570 0.000000 24.810214 81.419603 0.000000 -101.123178 -18.719076 0.000000 103.625458 56.328152 0.000000 79.018612 -440.829757 0.000000 -10.261021 -239.405099 0.000000 -43.364182 245.536581 0.000000 -11.271092 37.916161 0.000000 140.481871 82.996808 0.000000 123.491510 17.203399 0.000000 -61.473938 -114.610767 0.000000 -20.265327 19.390291 0.000000 63.122731 169.444345 0.000000 -90.781483 -2.704568 0.000000 94.665107 -33.860822 0.000000 181.059887 10.431357 0.000000 -115.080044 131.556656 0.000000 -21.408642 257.107286 0.000000 -74.522562 -21.541937 0.000000 -35.139866 68.126699 0.000000 5.762750 50.314631 0.000000 25.297803 -198.121875 0.000000 -0.111414 -149.859215 0.000000 38.233763 -68.946546 0.000000 36.452001 -27.765253 0.000000 60.506212 -47.531620 0.000000 226.249764 14.612484 0.000000 84.317840 -157.297392 0.000000 -23.638254 -307.046351 0.000000 55.585209 -133.501919 0.000000 178.317106 49.078360 0.000000 215.474558 140.025777 0.000000 66.076840 85.957807 0.000000 24.296987 -120.427511 0.000000 24.021425 -216.231773 0.000000 -24.292562 -101.269608 0.000000 -85.618118 1.456717 0.000000 42.188680 100.119600 0.000000 70.258558 165.782846 0.000000 157.569176 83.729855 0.000000 91.683041 64.990361 0.000000 48.910224 2.624154 0.000000 70.247253 1.237901 0.000000 99.516377 -7.562292 0.000000 11.732270 -48.557335 0.000000 102.957898 -116.801555 0.000000 -71.239556 -105.827058 0.000000 103.040969 -85.498981 0.000000 -44.397545 62.191489 0.000000 -81.290818 86.396344 0.000000 152.701307 21.007838 0.000000 -37.805860 102.727117 0.000000 130.804936 202.430260 0.000000 -8.382523 45.993839 0.000000 84.903194 8.515211 0.000000 124.381407 296.670706 0.000000 -42.253510 -36.287185 0.000000 119.975025 27.883943 0.000000 184.234349 65.232353 0.000000 85.424100 -224.769801 0.000000 -8.888050 133.538209 0.000000 273.195278 24.740118 0.000000 -230.601198 -162.813710 0.000000 
-214.768599 -107.144440 0.000000 7.479788 -339.148250 0.000000 85.508922 -136.784929 0.000000 350.972512 2.979101 0.000000 51.795427 -35.806422 0.000000 361.764688 -200.591210 0.000000 -129.466022 -16.862803 0.000000 194.553096 44.366937 0.000000 28.477315 54.545317 0.000000 34.343658 -73.469544 0.000000 86.558818 108.765243 0.000000 -97.574890 152.645741 0.000000 33.696006 131.823204 0.000000 -123.388269 290.342626 0.000000 55.310590 130.893785 0.000000 -110.149716 -234.024202 0.000000 257.881188 -71.184908 0.000000 41.710971 295.504557 0.000000 127.366315 147.797548 0.000000 280.576565 48.027799 0.000000 -0.157675 36.498092 0.000000 102.759218 7.655278 0.000000 108.491614 -32.737236 0.000000 59.797775 39.351414 0.000000 -123.769447 -34.681556 0.000000 48.087110 30.821061 0.000000 -126.632073 48.056191 0.000000 -47.817901 -12.301484 0.000000 -61.849615 -117.409194 0.000000 -35.236923 -123.982007 0.000000 -145.056133 -47.345470 0.000000 -75.445829 -62.217024 0.000000 -31.642585 26.553357 0.000000 1.523277 -75.292699 0.000000 19.735506 -107.999040 0.000000 -25.384429 -99.057887 0.000000 -59.761615 -90.180699 0.000000 -38.522604 7.953630 0.000000 -68.372366 77.186297 0.000000 29.614431 144.758790 0.000000 -72.593761 107.022984 0.000000 -46.750085 -19.047242 0.000000 -20.717705 -88.826443 0.000000 37.481340 -45.932576 0.000000 16.996070 -12.319154 0.000000 -18.457689 -33.458204 0.000000 -0.912023 -78.160493 0.000000 -34.373950 -246.812072 0.000000 83.000492 -90.393080 0.000000 -32.131379 148.099866 0.000000 67.747967 -91.396116 0.000000 72.478627 -73.270334 0.000000 62.484841 87.588698 0.000000 37.949349 89.638138 0.000000 153.132324 73.954688 0.000000 28.146072 -23.557588 0.000000 117.869134 97.359612 0.000000 164.527129 -4.579915 0.000000 126.318220 84.493935 0.000000 189.218663 99.321299 0.000000 -22.506309 77.905877 0.000000 38.285639 74.654885 0.000000 -106.072618 -71.817772 0.000000 -167.653357 277.834255 0.000000 
230.352925 -215.671877 0.000000 297.168951 -293.823952 0.000000 -8.935828 -262.073121 0.000000 -63.754880 14.994419 0.000000 -14.919059 45.535976 0.000000 -173.967000 -259.568308 0.000000 -51.811592 -72.193507 0.000000 151.188933 87.593244 0.000000 67.453595 198.125599 0.000000 20.058536 24.915305 0.000000 -237.391707 149.121947 0.000000 -0.086703 -61.747954 0.000000 -221.323826 45.203670 0.000000 -29.778986 147.829760 0.000000 76.302658 -15.943121 0.000000 57.085501 -236.431420 0.000000 -219.067425 -141.429329 0.000000 90.786809 262.071529 0.000000 -56.840756 18.241692 0.000000 123.333663 105.982053 0.000000 -62.983039 245.944046 0.000000 31.962588 -58.334658 0.000000 -38.492339 -155.160432 0.000000 43.454849 82.401846 0.000000 14.254114 -57.235880 0.000000 73.588042 -24.902627 0.000000 48.778122 48.373391 0.000000 205.067354 -50.169975 0.000000 202.584551 -169.878370 0.000000 -20.256508 -223.839832 0.000000 80.995247 -93.293013 0.000000 -23.804509 -64.335188 0.000000 29.679365 63.056671 0.000000 44.119253 34.579716 0.000000 3.507718 -93.519805 0.000000 75.780360 -136.734653 0.000000 27.881541 -88.131433 0.000000 53.184902 10.067468 0.000000 35.424792 31.982565 0.000000 80.424943 170.004241 0.000000 53.853386 160.094371 0.000000 21.352954 13.114305 0.000000 -24.955450 -81.607271 0.000000 -26.766864 -36.475874 0.000000 -53.584381 48.376736 0.000000 -72.504051 -30.649242 0.000000 -111.024841 -100.885294 0.000000 -59.757738 -189.739573 0.000000 -117.493300 -87.741552 0.000000 87.765973 77.444015 0.000000 47.998272 -18.213662 0.000000 21.517439 26.270963 0.000000 -61.218386 137.256395 0.000000 -3.485262 111.782778 0.000000 20.302760 55.797116 0.000000 -56.101041 43.778401 0.000000 -44.939111 160.289649 0.000000 -82.057283 -44.736271 0.000000 -87.105219 3.192409 0.000000 127.056318 214.056882 0.000000 -148.707656 -73.836777 0.000000 216.738888 217.104519 0.000000 -17.675854 230.679114 0.000000 168.252296 -54.117729 0.000000 