# vtk DataFile Version 2.0
Comment goes here
ASCII

DATASET STRUCTURED_POINTS
FIELD FieldData 1
TIME 1 1 double
0.09100000
DIMENSIONS    64   64   1

ORIGIN    0.000   0.000   0.000
SPACING   0.03125 0.03125   1.000

POINT_DATA   4096
VECTORS u double

-24.177489 -48.403108 0.000000 -11.342835 53.847281 0.000000 -1.283692 -21.369169 0.000000 13.376549 -44.991636 0.000000 21.615235 8.477883 0.000000 29.376087 -1.535315 0.000000 20.447226 -12.619752 0.000000 2.678207 -10.398871 0.000000 20.314687 -14.156442 0.000000 6.760966 10.860614 0.000000 25.844486 -33.884670 0.000000 -16.348031 10.346726 0.000000 16.688462 -19.214216 0.000000 -21.102585 5.246175 0.000000 6.884190 -17.565845 0.000000 -10.458662 2.498668 0.000000 -5.045333 -13.603873 0.000000 -20.732865 -23.202288 0.000000 11.354392 7.979714 0.000000 -21.306940 -17.850325 0.000000 -1.910540 -5.497522 0.000000 -16.940933 -18.671586 0.000000 2.168173 -20.281778 0.000000 -13.604984 13.535826 0.000000 0.794000 -23.265764 0.000000 2.773086 11.910326 0.000000 -7.474824 -26.573331 0.000000 16.958270 -1.840278 0.000000 11.593240 3.785199 0.000000 19.473364 -18.368360 0.000000 20.074784 -9.117653 0.000000 34.311936 12.485690 0.000000 17.255091 -4.213654 0.000000 29.938864 15.230947 0.000000 19.511865 6.566069 0.000000 37.435690 -0.173196 0.000000 20.394554 7.250605 0.000000 27.706878 6.726155 0.000000 13.569818 3.702509 0.000000 28.874208 20.659159 0.000000 13.449670 2.268354 0.000000 11.888635 -6.725697 0.000000 4.325302 2.249389 0.000000 4.703507 -13.510447 0.000000 -2.904003 14.800135 0.000000 2.304542 -16.860513 0.000000 -3.059749 24.132587 0.000000 -9.078259 -16.343560 0.000000 -10.944986 1.661256 0.000000 -18.105291 -10.645352 0.000000 -21.548809 -3.167189 0.000000 -5.725585 -16.269735 0.000000 -24.840644 -8.869722 0.000000 -0.041034 6.675236 0.000000 -20.998107 2.748102 0.000000 -5.585443 -11.750374 0.000000 -18.902233 11.523958 0.000000 -11.412920 -13.414139 0.000000 -7.583891 19.724451 0.000000 -2.901885 -9.814875 0.000000 -29.933928 30.219275 0.000000 6.027373 7.175295 0.000000 -28.544481 53.820104 0.000000 -12.853988 5.678927 0.000000 
3.437221 -30.106887 0.000000 31.820707 -45.380922 0.000000 48.860565 -5.406903 0.000000 -33.122176 27.835549 0.000000 -15.618542 -37.892064 0.000000 -39.541043 26.253197 0.000000 -2.233441 17.981862 0.000000 -6.014919 22.575654 0.000000 -0.098029 2.765128 0.000000 -8.571128 21.302776 0.000000 10.471341 6.778951 0.000000 -22.753973 17.610263 0.000000 18.076935 3.024876 0.000000 -24.829132 22.509731 0.000000 22.445409 0.740674 0.000000 -31.149087 23.137405 0.000000 33.124547 12.254961 0.000000 -25.061053 7.765795 0.000000 1.863832 18.817789 0.000000 5.931679 17.173945 0.000000 1.746092 11.310633 0.000000 18.941099 4.394920 0.000000 -4.483002 0.347409 0.000000 26.736009 27.526880 0.000000 1.989139 -10.634265 0.000000 14.618962 37.513625 0.000000 2.533833 -12.106476 0.000000 2.132464 1.305540 0.000000 -1.648108 13.012828 0.000000 5.799939 -5.602342 0.000000 -21.752737 -10.649723 0.000000 -6.754236 13.988802 0.000000 -18.210389 -7.167019 0.000000 -8.079930 -3.435970 0.000000 -8.802054 -9.256343 0.000000 -0.069253 -9.049607 0.000000 -12.338249 6.088685 0.000000 -12.825741 3.938026 0.000000 -21.574330 -9.975448 0.000000 -3.298227 2.213315 0.000000 -2.093187 4.756985 0.000000 -6.496227 -11.567271 0.000000 -1.127490 -6.171912 0.000000 -1.274938 -1.004494 0.000000 -16.329869 11.413966 0.000000 -3.441759 -16.497905 0.000000 -19.752321 19.335981 0.000000 19.649859 2.375969 0.000000 -21.419360 16.095976 0.000000 13.175649 8.872741 0.000000 -25.343228 -8.919017 0.000000 24.584274 -3.313934 0.000000 -29.772069 5.248387 0.000000 10.731187 -11.269959 0.000000 17.904289 23.574764 0.000000 1.975010 -12.017965 0.000000 32.181783 17.823709 0.000000 7.007160 -9.536675 0.000000 19.188747 2.204832 0.000000 12.036895 -2.278475 0.000000 24.433736 3.286690 0.000000 38.849014 -43.211839 0.000000 13.788123 -16.084476 0.000000 70.754310 -21.212040 0.000000 
-146.148061 -9.469506 0.000000 -71.726002 8.423937 0.000000 -121.824617 43.573715 0.000000 74.616119 19.487471 0.000000 32.752699 14.896749 0.000000 25.236466 -14.920416 0.000000 6.767654 -46.145876 0.000000 23.869868 -12.534283 0.000000 -1.553487 -11.600234 0.000000 2.410480 0.291245 0.000000 -2.104061 -19.701826 0.000000 9.685923 2.741132 0.000000 4.576818 -17.139057 0.000000 13.799876 0.877701 0.000000 13.036681 -11.245890 0.000000 12.365939 -8.180470 0.000000 22.916129 -19.691906 0.000000 15.186567 8.058426 0.000000 -0.120376 -23.013018 0.000000 13.162941 -17.732586 0.000000 -11.842206 -18.506942 0.000000 -3.656516 -12.442492 0.000000 -37.421318 -28.076687 0.000000 -20.991325 7.063686 0.000000 -38.009371 -11.148717 0.000000 -30.467681 11.365632 0.000000 -29.037653 -14.086833 0.000000 -44.463376 2.341663 0.000000 -41.460548 0.117724 0.000000 -26.050643 1.736270 0.000000 -54.395017 3.436522 0.000000 -35.183834 8.943343 0.000000 -33.356445 -2.887959 0.000000 -22.677740 5.822612 0.000000 -24.684240 -1.444608 0.000000 -10.731542 3.362999 0.000000 -13.454738 20.007092 0.000000 -1.010973 15.962236 0.000000 -5.674036 -5.825005 0.000000 -0.847295 1.178016 0.000000 3.680619 5.466354 0.000000 6.482927 -7.691394 0.000000 6.739145 -2.971900 0.000000 12.290614 1.691931 0.000000 18.365408 16.966956 0.000000 22.803031 -13.438061 0.000000 4.869743 1.040969 0.000000 52.563101 -14.676520 0.000000 25.881094 8.135467 0.000000 64.271301 -6.721485 0.000000 29.629255 -14.575814 0.000000 46.238911 -11.840893 0.000000 24.936121 4.983365 0.000000 18.278813 -41.001122 0.000000 29.930871 11.504279 0.000000 -6.212682 -26.027869 0.000000 19.688766 6.491808 0.000000 -35.846418 -0.421104 0.000000 -15.399494 14.694715 0.000000 -33.459253 -15.059864 0.000000 -27.277400 3.407156 0.000000 -24.088832 17.820908 0.000000 -105.444213 21.914808 0.000000 -66.265588 16.029829 0.000000 
-209.803537 -24.646473 0.000000 -207.951300 -69.704367 0.000000 -153.681130 -151.749023 0.000000 -33.019745 -126.741766 0.000000 50.319083 11.487588 0.000000 17.687911 52.238242 0.000000 25.885083 19.348460 0.000000 53.507264 30.896795 0.000000 39.546149 24.224516 0.000000 52.095966 21.853349 0.000000 22.623337 -0.496492 0.000000 29.167467 10.929385 0.000000 3.249791 -1.089077 0.000000 16.753704 14.049868 0.000000 -2.988113 2.174611 0.000000 19.157536 13.257956 0.000000 -5.541100 9.434333 0.000000 16.346549 30.802300 0.000000 -2.170581 20.841414 0.000000 6.694701 28.895775 0.000000 -16.321109 28.130090 0.000000 -10.414262 29.974032 0.000000 -36.096269 17.682218 0.000000 -27.584756 28.114934 0.000000 -11.753540 -1.157909 0.000000 -17.144127 28.541908 0.000000 -15.287001 1.889219 0.000000 -9.778209 13.728435 0.000000 -5.572042 -5.399905 0.000000 6.169620 7.332128 0.000000 -2.454156 -1.516532 0.000000 19.650436 -7.049771 0.000000 16.087940 -19.673113 0.000000 28.901148 -12.108174 0.000000 28.214478 -21.202540 0.000000 28.095452 -20.279109 0.000000 24.619057 -3.631885 0.000000 33.426651 -3.842675 0.000000 18.558601 -10.139126 0.000000 17.639250 -7.141340 0.000000 12.305539 -2.573237 0.000000 19.695995 -14.625797 0.000000 3.801415 -11.979599 0.000000 4.468314 -12.630756 0.000000 -6.556642 0.901549 0.000000 -17.246131 -3.002241 0.000000 -18.594476 -10.424089 0.000000 28.178295 -18.635382 0.000000 42.714461 4.387776 0.000000 61.785070 5.124580 0.000000 38.774020 9.113374 0.000000 23.445281 1.379200 0.000000 7.437889 33.208485 0.000000 1.624568 -16.264709 0.000000 -5.295185 48.066259 0.000000 9.516350 -1.775860 0.000000 3.773735 47.457445 0.000000 9.216771 25.551584 0.000000 -22.066595 -0.182333 0.000000 -69.762090 9.599431 0.000000 -91.527525 -6.083731 0.000000 -209.316600 34.954973 0.000000 -212.889963 26.092280 0.000000 -171.983664 19.491809 0.000000 
-79.593371 26.498131 0.000000 -29.671575 -47.698469 0.000000 -26.539738 -131.357841 0.000000 -111.966818 -184.512743 0.000000 33.168066 -35.810906 0.000000 -47.758753 9.513585 0.000000 -4.276906 -81.965229 0.000000 47.179016 -26.195349 0.000000 10.418253 -10.188936 0.000000 48.310100 17.214056 0.000000 9.454386 3.226673 0.000000 46.469908 22.114679 0.000000 11.726872 -4.725293 0.000000 40.633566 7.115605 0.000000 10.532568 -13.649722 0.000000 43.058418 -5.627483 0.000000 12.616305 -16.880920 0.000000 37.911384 4.687907 0.000000 12.417512 -13.361170 0.000000 6.819259 -3.582057 0.000000 -29.185476 -1.397979 0.000000 -29.235094 7.332668 0.000000 -50.935136 -10.906194 0.000000 -50.448525 -17.279043 0.000000 -27.601714 -21.589346 0.000000 -43.649241 14.899093 0.000000 -46.589961 -21.452751 0.000000 -44.252526 -7.373296 0.000000 -39.580254 -15.830105 0.000000 -21.516818 -1.381615 0.000000 -41.711811 -10.044294 0.000000 -16.476763 -9.598754 0.000000 -16.369338 -12.138672 0.000000 6.902582 -6.303926 0.000000 -1.091112 -0.638912 0.000000 16.829171 6.958420 0.000000 14.958529 14.675893 0.000000 16.330700 22.022691 0.000000 8.675361 9.962396 0.000000 13.081113 7.431078 0.000000 4.431252 3.409608 0.000000 4.548238 0.812730 0.000000 4.915888 12.255781 0.000000 10.745262 12.049988 0.000000 12.222321 38.681401 0.000000 28.336832 -1.400228 0.000000 38.503857 -44.383457 0.000000 63.465123 -75.985457 0.000000 69.773464 -25.471309 0.000000 97.261190 -2.781044 0.000000 84.270188 23.763975 0.000000 85.821658 19.495238 0.000000 69.856090 26.804078 0.000000 34.893983 -28.268048 0.000000 26.654233 3.612496 0.000000 -2.121894 -35.096788 0.000000 -11.991077 6.791387 0.000000 -44.265480 25.419226 0.000000 -19.692858 93.673577 0.000000 -86.885971 54.401066 0.000000 -78.982188 142.961665 0.000000 -96.925601 139.183346 0.000000 -38.424627 -15.418128 0.000000 14.079578 12.943404 0.000000 
-48.081619 19.104680 0.000000 30.935564 -122.758001 0.000000 72.889522 -69.453779 0.000000 56.763921 -186.449570 0.000000 30.337862 -52.720477 0.000000 29.690656 89.683215 0.000000 -18.043406 -75.589309 0.000000 62.565838 16.201636 0.000000 40.128324 23.093431 0.000000 42.275979 22.817216 0.000000 7.748644 1.343700 0.000000 19.047268 8.656899 0.000000 -14.691792 4.747265 0.000000 17.202443 15.244172 0.000000 -12.346352 -0.250241 0.000000 27.663564 11.174218 0.000000 6.611927 14.581367 0.000000 25.312071 31.001094 0.000000 3.692275 51.933539 0.000000 24.435149 70.498763 0.000000 -19.540251 64.184444 0.000000 -14.399218 51.723691 0.000000 -41.699664 38.895649 0.000000 -26.351163 4.781512 0.000000 -19.180445 -7.957194 0.000000 -26.056563 47.530155 0.000000 -32.431652 2.492504 0.000000 -26.572238 6.718728 0.000000 -4.597790 -28.135612 0.000000 11.523958 9.463684 0.000000 -16.088338 -6.556587 0.000000 15.992461 -32.392243 0.000000 23.860665 -43.052459 0.000000 42.595201 -27.386400 0.000000 42.792926 -31.129128 0.000000 39.550694 -36.328750 0.000000 42.602378 -3.133414 0.000000 52.934827 2.440493 0.000000 36.800213 -6.889539 0.000000 29.822576 -2.897231 0.000000 13.682599 5.959638 0.000000 29.883410 -15.110433 0.000000 21.743510 -18.176623 0.000000 68.799630 -19.937189 0.000000 67.754430 -16.690021 0.000000 146.724713 -29.283776 0.000000 150.325174 -45.552380 0.000000 136.387661 -49.904989 0.000000 92.564631 -29.408290 0.000000 48.527528 -9.372144 0.000000 16.548415 20.552905 0.000000 5.937723 15.793298 0.000000 -40.724328 84.136160 0.000000 7.171509 26.937148 0.000000 -16.785752 85.082136 0.000000 11.447090 36.869450 0.000000 -25.385769 89.601031 0.000000 -2.675973 33.253366 0.000000 -128.290026 42.438157 0.000000 -51.525961 68.888762 0.000000 23.420071 3.955900 0.000000 -63.598939 -5.602588 0.000000 -61.239336 -84.912899 0.000000 25.732302 60.660553 0.000000 
40.888746 21.294869 0.000000 108.575298 -168.669611 0.000000 161.535347 -157.186198 0.000000 272.823150 -141.961083 0.000000 49.750831 -8.737641 0.000000 193.382696 57.894853 0.000000 34.859726 -114.840412 0.000000 77.047828 -84.367080 0.000000 84.385542 10.100923 0.000000 78.216196 49.593737 0.000000 15.654647 26.455384 0.000000 51.388170 44.555114 0.000000 19.506992 -2.880468 0.000000 38.730523 4.770165 0.000000 3.355915 -24.110843 0.000000 52.366796 -24.585762 0.000000 33.401296 -14.529427 0.000000 59.448300 7.607559 0.000000 5.489878 -12.484247 0.000000 -14.014149 19.650469 0.000000 -25.822713 37.436388 0.000000 -22.909571 29.492080 0.000000 -51.053186 1.045751 0.000000 -45.256940 -39.798262 0.000000 -74.965716 -21.883947 0.000000 -62.158179 28.150300 0.000000 -84.262238 -20.937075 0.000000 -93.623903 -35.207158 0.000000 -50.400640 -53.926301 0.000000 -15.618694 10.108933 0.000000 -23.457149 -14.512796 0.000000 -12.037608 -49.547757 0.000000 4.401449 -38.741412 0.000000 42.206208 -25.236187 0.000000 17.193933 2.405595 0.000000 38.063671 7.148969 0.000000 7.852117 1.291761 0.000000 -22.515220 27.824856 0.000000 -29.575605 33.074647 0.000000 -7.728093 30.548692 0.000000 -10.223967 3.348774 0.000000 9.140247 -7.248181 0.000000 21.715190 -26.660438 0.000000 96.089895 -33.960932 0.000000 143.712712 -39.243682 0.000000 193.635179 -83.970971 0.000000 230.856788 -34.046404 0.000000 214.963737 -18.224914 0.000000 150.407140 62.388824 0.000000 190.580915 73.235171 0.000000 99.319556 66.353781 0.000000 124.131354 76.767981 0.000000 79.232634 25.570292 0.000000 69.585583 -52.206624 0.000000 15.687566 -0.663085 0.000000 25.653940 -26.496771 0.000000 6.173593 20.914449 0.000000 -44.307763 128.323483 0.000000 -55.850583 142.523566 0.000000 -23.365009 -97.309031 0.000000 78.059129 155.034643 0.000000 118.977459 223.842753 0.000000 -47.500749 -104.749368 0.000000 143.747781 -0.214313 0.000000 
6.614225 54.277163 0.000000 183.784444 -243.404602 0.000000 -32.662470 -233.701631 0.000000 177.163876 -74.665054 0.000000 43.641622 26.719977 0.000000 154.852551 104.574320 0.000000 136.308822 40.745559 0.000000 108.453799 -33.324180 0.000000 -49.586870 21.925063 0.000000 -28.502366 91.548112 0.000000 -70.826566 28.171726 0.000000 4.029045 4.804553 0.000000 -43.222007 17.404913 0.000000 15.432961 31.395250 0.000000 -33.723222 -13.886514 0.000000 66.905739 -18.871163 0.000000 55.784963 7.499863 0.000000 48.985132 58.912512 0.000000 18.661970 125.395988 0.000000 40.111223 101.811353 0.000000 5.554918 73.079866 0.000000 -7.635770 76.954164 0.000000 -2.935560 61.243019 0.000000 15.239253 28.694042 0.000000 -18.341962 8.944045 0.000000 -24.637727 56.826677 0.000000 -56.885165 33.958228 0.000000 -98.156219 -27.142871 0.000000 -66.798488 -106.140822 0.000000 41.000951 -17.479807 0.000000 82.946027 -10.137673 0.000000 86.768131 -60.250841 0.000000 60.313237 -97.296275 0.000000 108.175522 -40.178883 0.000000 187.914937 -26.986591 0.000000 116.787155 -26.986934 0.000000 87.745492 57.445477 0.000000 67.881024 39.868214 0.000000 71.179119 -21.676666 0.000000 99.434505 -22.248869 0.000000 16.760218 -10.908702 0.000000 51.397821 -47.049591 0.000000 69.095642 -105.126271 0.000000 93.910514 -141.934711 0.000000 184.500084 -114.235305 0.000000 83.759427 -116.427852 0.000000 124.645687 -66.880939 0.000000 102.462825 30.544660 0.000000 17.359765 -5.025468 0.000000 46.016959 41.715439 0.000000 87.723427 87.002466 0.000000 98.910938 35.880220 0.000000 149.139195 138.681931 0.000000 23.687081 90.482217 0.000000 22.031549 129.013779 0.000000 -16.637463 46.383422 0.000000 52.130481 159.562734 0.000000 98.678661 95.277542 0.000000 51.244576 21.495404 0.000000 -14.619959 -65.020950 0.000000 92.051254 -138.386568 0.000000 -81.990012 119.957290 0.000000 14.118257 -109.683222 0.000000 -85.682927 -27.728942 0.000000 
5.199666 -248.172502 0.000000 350.520574 -129.392916 0.000000 136.234537 -150.565630 0.000000 87.160089 -218.265175 0.000000 8.866719 13.573684 0.000000 99.300036 -34.772347 0.000000 92.320759 -68.441660 0.000000 216.697121 101.528612 0.000000 93.705340 147.057089 0.000000 124.148551 70.833433 0.000000 169.020810 -6.076027 0.000000 103.943476 16.950555 0.000000 60.640685 -14.284384 0.000000 31.300229 -4.728620 0.000000 -46.182420 -75.583621 0.000000 75.838836 -114.093947 0.000000 107.102358 3.391179 0.000000 164.731079 44.730552 0.000000 141.469020 -3.610338 0.000000 27.169633 32.757522 0.000000 -40.518189 85.183381 0.000000 -4.874009 37.982558 0.000000 -22.648281 -21.829272 0.000000 -30.516162 -24.391860 0.000000 -77.657634 17.993033 0.000000 -83.171382 66.693503 0.000000 -51.315640 52.581417 0.000000 -45.369123 -25.293835 0.000000 -98.490966 -193.083471 0.000000 -45.306005 -139.635583 0.000000 74.980867 -60.279976 0.000000 132.496263 -26.914966 0.000000 148.122229 -60.148804 0.000000 147.262322 -152.837887 0.000000 184.745659 -6.206038 0.000000 190.821385 107.318413 0.000000 91.046101 50.197891 0.000000 21.607686 44.391230 0.000000 90.756003 1.521167 0.000000 34.179052 84.967592 0.000000 -8.942913 51.385458 0.000000 32.542355 -59.583604 0.000000 89.000876 -69.173132 0.000000 54.971414 -149.365374 0.000000 64.356109 -29.092595 0.000000 49.677103 -24.116573 0.000000 23.604365 -52.749802 0.000000 149.360339 89.061007 0.000000 73.364335 118.834689 0.000000 27.750195 2.871510 0.000000 -11.994402 13.459802 0.000000 -16.089470 15.352213 0.000000 -78.313406 100.794149 0.000000 -6.615402 74.901022 0.000000 -39.239600 39.661459 0.000000 105.797199 -56.595702 0.000000 12.065848 -94.401675 0.000000 189.634960 129.209387 0.000000 -87.741979 255.822185 0.000000 37.439380 -138.115709 0.000000 237.732801 222.404696 0.000000 -53.116933 301.775750 0.000000 32.067280 -101.056453 0.000000 123.643828 7.289719 0.000000 
-161.669887 -172.599583 0.000000 318.205099 -374.439473 0.000000 -65.891136 29.658854 0.000000 101.352590 52.702763 0.000000 6.326763 14.580029 0.000000 131.345030 21.120280 0.000000 61.243306 -76.651526 0.000000 98.911291 -34.708761 0.000000 155.232448 114.473633 0.000000 211.072822 16.232642 0.000000 20.209556 48.376801 0.000000 -24.494969 113.184677 0.000000 -4.927119 90.048160 0.000000 37.834421 138.218355 0.000000 6.111999 -58.425122 0.000000 88.512290 -172.155941 0.000000 220.337897 -81.392380 0.000000 133.903946 24.545850 0.000000 -105.550915 262.957435 0.000000 -63.928814 283.798562 0.000000 26.799743 105.123507 0.000000 35.725744 59.084256 0.000000 55.451726 86.885171 0.000000 67.036016 83.703395 0.000000 -1.089278 61.599265 0.000000 21.562887 30.484684 0.000000 68.656836 -3.844031 0.000000 160.981360 20.032454 0.000000 156.271881 -106.203940 0.000000 100.310242 -190.951639 0.000000 64.116692 -187.939942 0.000000 134.345474 -133.392204 0.000000 176.282570 -112.062333 0.000000 187.059718 -76.802313 0.000000 125.831628 -70.545654 0.000000 280.048493 66.712623 0.000000 208.251627 226.659176 0.000000 238.656320 40.158313 0.000000 130.912125 -34.248032 0.000000 44.846784 77.450046 0.000000 61.388016 -9.272005 0.000000 59.645682 -144.993379 0.000000 58.112508 -127.555330 0.000000 40.326043 -117.289945 0.000000 -43.437264 -108.940994 0.000000 5.230652 -75.676109 0.000000 -5.041061 -166.564174 0.000000 97.451435 -19.215310 0.000000 76.602253 116.584676 0.000000 119.317540 127.074176 0.000000 13.251415 130.842131 0.000000 109.437887 102.199223 0.000000 14.425589 129.207863 0.000000 144.690340 51.408411 0.000000 33.573479 16.601179 0.000000 174.855464 -4.922026 0.000000 -109.388652 75.724972 0.000000 -47.804394 195.085368 0.000000 35.801662 173.690984 0.000000 96.849628 -390.495729 0.000000 17.398210 -47.830255 0.000000 133.381883 325.622811 0.000000 -81.799983 -286.443983 0.000000 274.600025 -0.861329 0.000000 
86.005839 -291.777577 0.000000 9.401237 -225.171667 0.000000 -174.160082 66.286878 0.000000 157.542226 -290.483074 0.000000 -14.614070 -16.418755 0.000000 160.847356 -89.688890 0.000000 52.262816 -36.007921 0.000000 263.753087 7.539470 0.000000 165.058954 34.895558 0.000000 47.961763 205.856326 0.000000 -36.057369 229.491764 0.000000 87.212778 42.087231 0.000000 122.528912 -76.613774 0.000000 111.738331 -15.767739 0.000000 135.511548 -126.261490 0.000000 -30.892150 -328.319844 0.000000 100.518919 -42.000476 0.000000 -2.059826 370.619364 0.000000 -47.068154 194.222422 0.000000 119.710997 -99.593137 0.000000 131.672208 -14.471177 0.000000 9.202106 9.330575 0.000000 34.878506 -53.139544 0.000000 -52.569720 32.149143 0.000000 -81.185315 63.466162 0.000000 -64.603986 -3.052610 0.000000 -51.910528 -86.837056 0.000000 140.978964 -112.908880 0.000000 160.330074 -132.412354 0.000000 215.305450 -47.480394 0.000000 150.593041 -94.315208 0.000000 133.698836 -139.080845 0.000000 154.633487 -112.863048 0.000000 161.160969 -102.386945 0.000000 193.399599 -99.194812 0.000000 114.359403 24.898414 0.000000 281.780679 91.590063 0.000000 243.424601 121.730731 0.000000 198.077118 195.330703 0.000000 98.572141 154.491701 0.000000 95.332756 36.586561 0.000000 44.906297 -56.308096 0.000000 -26.267811 -49.853493 0.000000 -53.186375 -47.815603 0.000000 -55.924614 6.002795 0.000000 -60.085613 -62.512776 0.000000 13.760497 -144.970585 0.000000 -120.265907 7.417693 0.000000 -35.790153 96.968584 0.000000 15.019032 66.222348 0.000000 -0.110288 23.339455 0.000000 89.872418 14.178039 0.000000 69.839928 65.541695 0.000000 104.057339 55.753132 0.000000 217.027006 9.496336 0.000000 -64.213425 86.366428 0.000000 166.843610 128.258183 0.000000 120.694770 -15.980926 0.000000 266.696818 111.168164 0.000000 240.765931 -119.712257 0.000000 -110.257058 185.872441 0.000000 248.156755 400.973943 0.000000 63.345405 -242.274595 0.000000 88.062016 87.159623 0.000000 
457.485265 -93.938804 0.000000 275.465222 -114.273552 0.000000 167.609460 -118.482135 0.000000 373.770813 -106.843248 0.000000 -1.629199 11.274900 0.000000 350.132068 -45.756607 0.000000 -64.877629 -179.557257 0.000000 319.810147 -147.504899 0.000000 116.250895 330.264957 0.000000 -65.818882 217.348965 0.000000 172.870565 9.125786 0.000000 -44.300311 -45.401604 0.000000 29.574874 65.522607 0.000000 -5.222363 125.235719 0.000000 81.480390 84.205359 0.000000 -26.713773 -137.163312 0.000000 -42.362843 -110.224704 0.000000 157.583545 172.132923 0.000000 341.533657 141.186611 0.000000 154.391441 105.058201 0.000000 -91.996487 215.632399 0.000000 -23.230319 155.877958 0.000000 26.594579 148.656998 0.000000 112.206039 199.767216 0.000000 185.250898 73.633531 0.000000 326.321906 1.209897 0.000000 223.454157 -209.426981 0.000000 176.843220 -192.208148 0.000000 70.691062 -180.530425 0.000000 11.116021 -181.214606 0.000000 96.005092 -106.333327 0.000000 38.437006 -137.432650 0.000000 27.186330 -139.524467 0.000000 25.795450 -115.568425 0.000000 63.267371 -23.744088 0.000000 -12.541739 -21.668457 0.000000 92.202302 97.593978 0.000000 -4.707855 123.861874 0.000000 117.024332 110.604428 0.000000 35.700334 180.194409 0.000000 84.017041 44.393839 0.000000 12.290838 -23.392813 0.000000 5.349584 -29.462658 0.000000 -4.544983 -87.633141 0.000000 8.785801 -102.041756 0.000000 70.468775 -145.361219 0.000000 53.178096 -106.383881 0.000000 77.332708 30.335340 0.000000 82.825019 -18.700262 0.000000 143.864497 91.394311 0.000000 44.301874 55.988744 0.000000 163.235608 32.249008 0.000000 -38.714941 115.022942 0.000000 193.922951 -95.778667 0.000000 1.071662 184.871943 0.000000 139.920116 45.261370 0.000000 106.764380 -109.183223 0.000000 156.720084 95.232160 0.000000 151.641317 53.619823 0.000000 47.010687 -13.541854 0.000000 -201.359445 -55.221078 0.000000 278.805193 152.020348 0.000000 248.260948 -126.349244 0.000000 246.299918 -23.521763 0.000000 
78.874670 -320.942880 0.000000 -21.625976 64.704138 0.000000 49.600722 -32.018713 0.000000 198.643111 -121.244415 0.000000 22.436349 7.219990 0.000000 223.248740 -26.440460 0.000000 90.852442 -5.686001 0.000000 182.897750 -173.589053 0.000000 144.315419 420.524587 0.000000 352.198612 149.236655 0.000000 211.742623 207.973192 0.000000 -82.841561 185.382922 0.000000 -91.653437 -115.691722 0.000000 -133.635522 -67.673255 0.000000 -123.131616 -104.770080 0.000000 -164.465608 -204.476612 0.000000 -293.733249 -226.297795 0.000000 -0.029547 -13.277136 0.000000 -94.011782 197.414527 0.000000 -67.031932 333.937007 0.000000 -143.563313 163.150583 0.000000 132.194448 -109.260490 0.000000 131.536247 -188.575903 0.000000 397.997280 -126.507176 0.000000 391.014587 -150.649704 0.000000 497.121020 -41.255869 0.000000 321.873843 62.641630 0.000000 236.682401 39.854215 0.000000 148.636731 33.314845 0.000000 12.308797 -72.794424 0.000000 19.892925 -121.636192 0.000000 30.030872 -70.262083 0.000000 -61.325490 -100.221492 0.000000 -73.053459 -138.467986 0.000000 -71.406140 -60.857623 0.000000 -59.517563 -4.036517 0.000000 -53.942615 83.756180 0.000000 41.964077 96.908702 0.000000 -69.126652 154.922514 0.000000 44.187439 187.498992 0.000000 62.874065 59.996057 0.000000 34.396618 22.359361 0.000000 63.564518 -33.017672 0.000000 53.282095 -51.251820 0.000000 20.714409 -69.010963 0.000000 14.736656 -106.905072 0.000000 -84.363440 -151.834518 0.000000 29.142853 -22.229229 0.000000 32.286254 30.436795 0.000000 -67.955531 104.745493 0.000000 169.691882 3.968344 0.000000 90.131738 97.194853 0.000000 60.787396 34.854352 0.000000 185.281070 15.966529 0.000000 -109.822778 63.499171 0.000000 217.723813 -19.326290 0.000000 33.024503 111.458214 0.000000 64.846540 -60.857863 0.000000 256.437908 220.877561 0.000000 121.972422 233.288505 0.000000 242.643925 -45.922065 0.000000 132.779040 -48.646450 0.000000 163.788704 -209.769320 0.000000 199.878233 -122.064693 0.000000 
155.223609 127.565405 0.000000 162.057846 -84.999603 0.000000 291.440717 -338.751222 0.000000 -79.846703 -79.678876 0.000000 33.838482 -13.330729 0.000000 -40.231932 -114.172700 0.000000 95.160129 -139.206268 0.000000 28.275719 -200.967875 0.000000 110.588791 160.964096 0.000000 283.090680 149.921761 0.000000 -148.264376 444.165959 0.000000 95.626889 257.994457 0.000000 71.583645 116.316568 0.000000 225.672171 156.713897 0.000000 221.559252 115.035445 0.000000 265.742500 33.438322 0.000000 -4.102514 -274.660765 0.000000 -38.051945 -27.588544 0.000000 -137.687999 208.188997 0.000000 -32.709067 154.609732 0.000000 207.953648 16.406018 0.000000 174.894216 -119.221603 0.000000 149.133473 -117.145834 0.000000 63.730448 -59.711124 0.000000 -28.849904 -25.490209 0.000000 21.524405 70.350641 0.000000 -101.055178 51.011638 0.000000 -83.327379 -18.971036 0.000000 -37.321597 43.843179 0.000000 59.140953 -52.470800 0.000000 -53.421876 -124.055403 0.000000 1.651771 -56.214234 0.000000 -25.169836 -36.440135 0.000000 -94.912966 -105.487776 0.000000 -131.714847 -37.279985 0.000000 -124.065322 -39.131983 0.000000 -88.363896 -3.887662 0.000000 3.751565 139.045911 0.000000 -27.615651 108.381065 0.000000 14.758840 48.193691 0.000000 64.471812 54.184660 0.000000 46.171364 -24.083265 0.000000 115.477426 -48.348134 0.000000 118.110067 -44.783033 0.000000 53.855600 -63.496318 0.000000 37.563903 -40.283370 0.000000 -14.705757 -120.790078 0.000000 -50.357929 -86.314354 0.000000 16.824239 78.398122 0.000000 9.712327 -46.011317 0.000000 163.176297 -102.098525 0.000000 67.874460 141.153494 0.000000 144.451856 19.873610 0.000000 88.827632 74.831507 0.000000 45.331285 152.429200 0.000000 -16.271858 -97.585911 0.000000 11.476880 43.694050 0.000000 -23.217104 -128.181244 0.000000 -178.311513 -3.506059 0.000000 244.024109 0.252129 0.000000 4.072689 -66.027696 0.000000 199.594051 230.875569 0.000000 44.726950 -193.448438 0.000000 238.422032 61.392271 0.000000 
21.993906 -244.578694 0.000000 162.777741 -71.512970 0.000000 260.973247 209.885836 0.000000 -31.991025 136.357819 0.000000 -7.168153 -32.394780 0.000000 -7.080924 -87.762107 0.000000 175.808024 -74.193651 0.000000 7.066681 -189.017715 0.000000 38.264401 165.709627 0.000000 94.828139 408.089822 0.000000 -262.143946 395.436983 0.000000 38.452791 -34.465100 0.000000 -69.979642 -245.737004 0.000000 83.652606 -217.648862 0.000000 76.788474 -144.840409 0.000000 191.147143 21.185155 0.000000 98.761635 77.496650 0.000000 -46.257787 120.308349 0.000000 9.605364 192.071649 0.000000 64.183413 -11.704639 0.000000 116.303942 -44.452700 0.000000 90.011026 -50.440315 0.000000 75.172780 -77.412134 0.000000 4.155194 51.476201 0.000000 -12.319667 -108.443661 0.000000 12.928598 30.949405 0.000000 44.987143 167.493414 0.000000 21.810266 -23.879367 0.000000 5.448607 -109.153488 0.000000 68.686128 -56.694144 0.000000 40.408989 -64.147010 0.000000 -19.099357 -98.514123 0.000000 17.553669 -3.656755 0.000000 -44.838123 -31.922976 0.000000 -69.862400 -31.705268 0.000000 -39.258821 -47.387468 0.000000 -39.961830 -44.060707 0.000000 52.105589 36.160457 0.000000 11.229852 143.915239 0.000000 -30.148160 95.411529 0.000000 43.261811 28.583533 0.000000 72.040185 -28.646253 0.000000 47.194846 -104.956375 0.000000 73.810131 10.370007 0.000000 29.168424 11.535201 0.000000 34.403123 -38.343715 0.000000 10.682047 -63.912687 0.000000 -44.069537 -53.759225 0.000000 7.072298 -29.633460 0.000000 90.480263 -41.606565 0.000000 13.274704 -54.193789 0.000000 44.766482 115.919294 0.000000 100.327787 13.901180 0.000000 65.402852 115.087101 0.000000 50.055895 168.598662 0.000000 41.902215 14.528115 0.000000 83.698049 118.403461 0.000000 26.026463 128.930531 0.000000 -241.736128 -46.363653 0.000000 -66.653284 50.904302 0.000000 -239.435022 -1.492008 0.000000 102.523187 -89.300710 0.000000 -111.372142 -248.597301 0.000000 -139.499622 -232.561352 0.000000 