# vtk DataFile Version 2.0
Comment goes here
ASCII

DATASET STRUCTURED_POINTS
FIELD FieldData 1
TIME 1 1 double
0.06200000
DIMENSIONS    64   64   1

ORIGIN    0.000   0.000   0.000
SPACING   0.03125 0.03125   1.000

POINT_DATA   4096
SCALARS uX double
LOOKUP_TABLE default

6.846299e-01 -1.705036e+00 4.413922e-01 -1.495522e+00 5.527103e-02 -1.297754e+00 9.707833e-02 -1.084428e+00 7.536865e-02 -9.419723e-01 5.649441e-02 -8.615604e-01 6.038355e-02 -8.221998e-01 7.721669e-02 -7.963141e-01 8.223668e-02 -7.472165e-01 3.864571e-02 -6.403484e-01 -7.649073e-02 -4.725454e-01 -2.441995e-01 -2.742126e-01 -4.295264e-01 -7.257231e-02 -6.128455e-01 1.255306e-01 -8.002431e-01 3.310741e-01 -9.935111e-01 5.366293e-01 -1.178555e+00 7.234730e-01 -1.335657e+00 8.675972e-01 -1.434484e+00 9.415930e-01 -1.457685e+00 9.319885e-01 -1.407399e+00 8.562279e-01 -1.303902e+00 7.299259e-01 -1.157991e+00 5.584699e-01 -9.795501e-01 3.528510e-01 -7.705909e-01 1.005332e-01 -5.180509e-01 -2.023753e-01 -2.300864e-01 -5.281080e-01 5.497968e-02 -8.423052e-01 3.064083e-01 -1.117178e+00 4.985054e-01 -1.334424e+00 6.189434e-01 -1.495746e+00 6.719550e-01 -1.620125e+00 
-3.715359e-01 4.160933e-01 -2.038239e-01 3.215430e-01 1.440186e-01 2.290777e-01 -9.727950e-02 9.301908e-02 -2.129433e-01 1.656361e-02 -2.912022e-01 -1.889867e-02 -3.622026e-01 -3.140369e-02 -4.290336e-01 -3.796832e-02 -4.828937e-01 -5.800982e-02 -5.035655e-01 -1.087379e-01 -4.780180e-01 -1.941452e-01 -4.153604e-01 -2.939670e-01 -3.405798e-01 -3.940298e-01 -2.659937e-01 -4.900245e-01 -1.854207e-01 -5.936628e-01 -9.851453e-02 -7.000060e-01 -1.095758e-02 -8.018768e-01 6.750845e-02 -8.872648e-01 1.184198e-01 -9.361040e-01 1.361071e-01 -9.428285e-01 1.190414e-01 -9.171844e-01 7.932821e-02 -8.652396e-01 2.554755e-02 -7.908818e-01 -3.780656e-02 -6.987654e-01 -1.063043e-01 -5.808831e-01 -1.901494e-01 -4.355041e-01 -2.894026e-01 -2.774322e-01 -3.842323e-01 -1.237156e-01 -4.593255e-01 1.194931e-02 -4.992505e-01 1.201463e-01 -4.935180e-01 1.980482e-01 -4.359770e-01 2.588062e-01 
1.512388e+00 6.850941e-01 1.214870e+00 5.741051e-01 9.487739e-01 4.423858e-01 1.606650e+00 4.091437e-01 2.012055e+00 3.468985e-01 2.282610e+00 3.054834e-01 2.465690e+00 2.931655e-01 2.599047e+00 2.973701e-01 2.713396e+00 2.902119e-01 2.838222e+00 2.388730e-01 2.993051e+00 1.483691e-01 3.155802e+00 3.683462e-02 3.312363e+00 -7.169084e-02 3.456208e+00 -1.791881e-01 3.592164e+00 -2.885879e-01 3.733119e+00 -4.009993e-01 3.866311e+00 -4.994508e-01 3.981236e+00 -5.703065e-01 4.061062e+00 -6.027128e-01 4.081566e+00 -5.829125e-01 4.049138e+00 -5.271563e-01 3.981709e+00 -4.530841e-01 3.877931e+00 -3.614622e-01 3.746437e+00 -2.700917e-01 3.580160e+00 -1.595857e-01 3.362094e+00 -1.552054e-02 3.103096e+00 1.464812e-01 2.831231e+00 3.028602e-01 2.563271e+00 4.360905e-01 2.310270e+00 5.316276e-01 2.068748e+00 5.981960e-01 1.811197e+00 6.560930e-01 
3.531954e+00 -1.019048e-01 2.686277e+00 -2.500143e-01 1.330563e+00 -1.691159e-01 2.920751e+00 -6.842571e-02 3.753728e+00 -2.243501e-02 4.311371e+00 7.172810e-03 4.737356e+00 3.975260e-02 5.086824e+00 8.312001e-02 5.385388e+00 1.407417e-01 5.624413e+00 2.064253e-01 5.792367e+00 2.765126e-01 5.888159e+00 3.369033e-01 5.958220e+00 3.854092e-01 6.015789e+00 4.269923e-01 6.052202e+00 4.688866e-01 6.079538e+00 5.104303e-01 6.080494e+00 5.511889e-01 6.073883e+00 5.874654e-01 6.075307e+00 6.092678e-01 6.061761e+00 6.113116e-01 6.051489e+00 6.045685e-01 6.033312e+00 5.955890e-01 5.997572e+00 5.786534e-01 5.947490e+00 5.502242e-01 5.856206e+00 5.029446e-01 5.740996e+00 4.356570e-01 5.599004e+00 3.623153e-01 5.427493e+00 2.940376e-01 5.219871e+00 2.376286e-01 4.956241e+00 1.936935e-01 4.609592e+00 1.558694e-01 4.142519e+00 1.022353e-01 
3.623584e+00 8.874559e-02 2.928381e+00 -1.213705e-01 1.858192e+00 -8.532446e-02 3.051078e+00 -1.111816e-01 3.834195e+00 -7.221238e-02 4.385784e+00 -2.371478e-02 4.806374e+00 3.356058e-02 5.146737e+00 1.040503e-01 5.434949e+00 1.882271e-01 5.671092e+00 2.662334e-01 5.844785e+00 3.293175e-01 5.948823e+00 3.725940e-01 6.031846e+00 4.042561e-01 6.103870e+00 4.351962e-01 6.150691e+00 4.606040e-01 6.191778e+00 4.844209e-01 6.203443e+00 5.021391e-01 6.202853e+00 5.187387e-01 6.212471e+00 5.331227e-01 6.193436e+00 5.357164e-01 6.168892e+00 5.376956e-01 6.140113e+00 5.424232e-01 6.086425e+00 5.383599e-01 6.022592e+00 5.213518e-01 5.917861e+00 4.859444e-01 5.767903e+00 4.393783e-01 5.595437e+00 3.902239e-01 5.403743e+00 3.464189e-01 5.185941e+00 3.112950e-01 4.923040e+00 2.849378e-01 4.591282e+00 2.509995e-01 4.172403e+00 1.821177e-01 
3.846953e+00 -4.954199e-02 3.199392e+00 -1.056919e-01 2.342551e+00 -1.119492e-01 3.196314e+00 -9.215445e-02 3.928702e+00 -6.083088e-02 4.466293e+00 -3.231979e-02 4.878339e+00 8.541052e-03 5.214921e+00 7.658309e-02 5.501654e+00 1.777086e-01 5.741909e+00 2.559231e-01 5.912580e+00 3.255701e-01 5.994099e+00 3.674621e-01 6.068690e+00 4.024504e-01 6.123783e+00 4.485593e-01 6.155081e+00 4.855005e-01 6.195298e+00 5.220154e-01 6.183040e+00 5.518054e-01 6.177965e+00 5.778439e-01 6.191050e+00 6.080296e-01 6.160968e+00 6.137314e-01 6.145556e+00 6.143976e-01 6.118872e+00 6.227333e-01 6.076474e+00 6.172119e-01 6.035159e+00 5.942444e-01 5.928621e+00 5.440872e-01 5.809411e+00 4.713598e-01 5.648340e+00 3.860281e-01 5.468940e+00 3.069917e-01 5.269863e+00 2.424073e-01 5.030134e+00 1.873971e-01 4.725416e+00 1.297676e-01 4.333923e+00 5.256116e-02 
4.027131e+00 7.975742e-02 3.511407e+00 1.088000e-02 2.829853e+00 4.148740e-03 3.437509e+00 -4.217000e-02 4.027903e+00 -4.924085e-02 4.506324e+00 -3.502696e-02 4.890610e+00 -9.803855e-04 5.217782e+00 7.325069e-02 5.497941e+00 2.334966e-01 5.739695e+00 3.050356e-01 5.911075e+00 3.717406e-01 5.977967e+00 3.886998e-01 6.057616e+00 4.007314e-01 6.130144e+00 4.454182e-01 6.160547e+00 4.652884e-01 6.222627e+00 4.857223e-01 6.218642e+00 4.997936e-01 6.212930e+00 5.080874e-01 6.256006e+00 5.356594e-01 6.218529e+00 5.315073e-01 6.194635e+00 5.270492e-01 6.181872e+00 5.517155e-01 6.123326e+00 5.597104e-01 6.086912e+00 5.438568e-01 5.983555e+00 5.035643e-01 5.811091e+00 4.418564e-01 5.629034e+00 3.740389e-01 5.449654e+00 3.191306e-01 5.262962e+00 2.811464e-01 5.045848e+00 2.506731e-01 4.778007e+00 2.143940e-01 4.443903e+00 1.626503e-01 
4.287659e+00 1.888669e-02 3.838362e+00 3.539395e-03 3.278114e+00 -3.236990e-03 3.705983e+00 -3.155914e-02 4.187720e+00 -4.540990e-02 4.613680e+00 -5.884036e-02 4.973888e+00 -6.370428e-02 5.300864e+00 -1.116321e-02 5.587918e+00 2.862050e-01 5.835039e+00 3.164996e-01 6.003582e+00 3.958545e-01 6.009483e+00 4.100597e-01 6.098459e+00 3.773130e-01 6.148945e+00 4.739012e-01 6.158654e+00 4.958270e-01 6.256005e+00 5.150898e-01 6.190569e+00 5.510366e-01 6.195081e+00 5.342565e-01 6.265283e+00 6.115225e-01 6.184237e+00 6.013288e-01 6.195334e+00 5.543698e-01 6.170954e+00 6.165479e-01 6.127405e+00 6.159520e-01 6.150243e+00 6.149549e-01 5.986853e+00 5.914773e-01 5.878670e+00 4.895021e-01 5.682045e+00 3.548651e-01 5.512051e+00 2.637248e-01 5.355549e+00 2.102550e-01 5.172590e+00 1.698689e-01 4.940382e+00 1.275742e-01 4.647337e+00 7.729569e-02 
4.514838e+00 1.108951e-01 4.166905e+00 9.307152e-02 3.726378e+00 8.649385e-02 4.018845e+00 4.142354e-02 4.370862e+00 4.132807e-03 4.711703e+00 -3.423085e-02 5.016591e+00 -9.629623e-02 5.331895e+00 -1.630849e-01 5.657222e+00 4.751085e-01 5.863149e+00 3.388092e-01 6.040361e+00 4.317608e-01 5.996884e+00 4.654223e-01 6.082906e+00 2.964755e-01 6.194316e+00 4.968226e-01 6.151750e+00 5.061062e-01 6.294153e+00 4.348552e-01 6.240046e+00 5.505972e-01 6.191141e+00 4.539368e-01 6.357547e+00 5.475722e-01 6.234284e+00 5.766363e-01 6.207844e+00 4.219990e-01 6.270524e+00 5.818178e-01 6.160257e+00 6.099760e-01 6.214457e+00 5.394510e-01 6.120179e+00 6.007141e-01 5.847769e+00 4.504109e-01 5.641370e+00 3.207553e-01 5.502202e+00 2.534625e-01 5.379451e+00 2.278167e-01 5.230474e+00 2.111779e-01 5.039705e+00 1.883672e-01 4.802167e+00 1.548972e-01 
4.779409e+00 7.516883e-02 4.491489e+00 8.800302e-02 4.138849e+00 8.205541e-02 4.321592e+00 5.556271e-02 4.573039e+00 2.839094e-02 4.833745e+00 -2.738320e-02 5.082624e+00 -1.697928e-01 5.387501e+00 -3.588112e-01 5.754866e+00 5.710190e-01 5.923919e+00 1.508951e-01 6.141999e+00 3.931341e-01 5.972252e+00 5.628644e-01 6.109442e+00 2.860372e-02 6.203190e+00 5.845034e-01 6.101012e+00 5.379006e-01 6.395660e+00 3.400481e-01 6.159861e+00 7.155016e-01 6.149430e+00 2.929204e-01 6.432458e+00 6.761541e-01 6.138072e+00 7.655481e-01 6.229018e+00 2.129813e-01 6.247072e+00 7.454315e-01 6.130402e+00 6.307700e-01 6.406639e+00 4.890323e-01 6.077800e+00 9.698899e-01 5.986843e+00 5.517188e-01 5.651308e+00 2.246014e-01 5.554456e+00 1.634924e-01 5.484818e+00 1.577809e-01 5.372722e+00 1.473181e-01 5.216030e+00 1.265643e-01 5.017878e+00 9.969316e-02 
5.017785e+00 1.451379e-01 4.808559e+00 1.610003e-01 4.549009e+00 1.555881e-01 4.644459e+00 1.322946e-01 4.801580e+00 1.142037e-01 4.983341e+00 9.714994e-02 5.150889e+00 6.460715e-02 5.246282e+00 2.951920e-03 5.312920e+00 -4.172502e-01 5.241398e+00 -4.237495e-01 5.403268e+00 -4.936583e-01 5.569698e+00 -1.728423e-01 5.529845e+00 -3.359976e-01 5.734006e+00 -1.910089e-01 5.693740e+00 2.170863e-02 5.746187e+00 -2.179365e-01 5.845890e+00 9.277586e-02 5.690137e+00 -1.983980e-02 5.902985e+00 3.149712e-02 5.830352e+00 3.413781e-01 5.711604e+00 -4.900008e-02 5.918845e+00 2.398110e-01 5.779168e+00 4.158233e-01 5.938565e+00 2.487777e-01 6.003418e+00 1.030586e+00 5.647230e+00 3.519796e-01 5.531997e+00 1.124356e-01 5.565562e+00 1.269663e-01 5.545344e+00 1.624216e-01 5.464352e+00 1.763324e-01 5.343805e+00 1.726239e-01 5.193928e+00 1.591097e-01 
5.271225e+00 1.214352e-01 5.113604e+00 1.540765e-01 4.925897e+00 1.494055e-01 4.949693e+00 1.433781e-01 5.029853e+00 1.639147e-01 5.114726e+00 2.444371e-01 5.099994e+00 4.107135e-01 4.758511e+00 4.841000e-01 3.970019e+00 -2.085321e+00 3.838212e+00 -1.472666e+00 3.312614e+00 -2.008970e+00 3.962549e+00 -2.420021e+00 3.985954e+00 -1.187036e+00 3.672516e+00 -2.205742e+00 4.090225e+00 -2.251352e+00 3.495291e+00 -1.583576e+00 3.905250e+00 -2.289332e+00 4.181103e+00 -1.498702e+00 3.370698e+00 -1.985969e+00 4.012388e+00 -2.250444e+00 4.053166e+00 -1.024597e+00 3.801009e+00 -1.907195e+00 4.152648e+00 -1.904632e+00 3.652735e+00 -1.367764e+00 4.200743e+00 -2.214437e+00 4.856776e+00 -9.561067e-01 5.546233e+00 -1.775969e-01 5.714186e+00 6.262648e-02 5.691219e+00 1.246801e-01 5.617489e+00 1.361414e-01 5.520638e+00 1.313406e-01 5.404887e+00 1.227156e-01 
5.503912e+00 1.770006e-01 5.409631e+00 2.110059e-01 5.298585e+00 2.070200e-01 5.255879e+00 1.962587e-01 5.259995e+00 2.060527e-01 5.269188e+00 2.739086e-01 5.195025e+00 4.294331e-01 4.900408e+00 5.152992e-01 4.499651e+00 -1.034999e+00 4.111314e+00 -8.281087e-01 3.742248e+00 -1.299528e+00 4.145212e+00 -1.740645e+00 4.077830e+00 -8.975741e-01 3.837586e+00 -1.849568e+00 4.140868e+00 -1.989429e+00 3.585051e+00 -1.466450e+00 3.956588e+00 -2.218336e+00 4.205556e+00 -1.506649e+00 3.389838e+00 -2.072591e+00 4.017911e+00 -2.432523e+00 4.068791e+00 -1.188383e+00 3.726981e+00 -2.249201e+00 4.136083e+00 -2.320000e+00 3.500197e+00 -1.779892e+00 3.967196e+00 -3.089354e+00 4.913915e+00 -1.347868e+00 5.695856e+00 -2.745700e-01 5.830987e+00 5.320935e-02 5.791958e+00 1.405762e-01 5.728687e+00 1.645845e-01 5.659924e+00 1.700819e-01 5.585212e+00 1.706844e-01 
5.738207e+00 1.585892e-01 5.689909e+00 1.981143e-01 5.639953e+00 1.949550e-01 5.549527e+00 1.778615e-01 5.509791e+00 1.541510e-01 5.504421e+00 1.162987e-01 5.518154e+00 3.759132e-02 5.599777e+00 -5.748059e-02 5.905538e+00 7.139523e-01 5.799194e+00 3.472515e-01 6.013721e+00 4.206103e-01 5.874780e+00 5.860171e-01 5.794552e+00 6.618146e-02 5.973458e+00 2.738514e-01 5.826384e+00 3.575228e-01 5.917790e+00 -3.469583e-03 5.939398e+00 2.410695e-01 5.757554e+00 4.824063e-02 5.963829e+00 8.221974e-03 5.882940e+00 2.326912e-01 5.755902e+00 -1.654460e-01 5.922184e+00 -8.143252e-02 5.834370e+00 5.684100e-02 5.842248e+00 -1.855453e-01 5.940181e+00 2.126304e-01 5.699888e+00 -1.505588e-01 5.772963e+00 -7.259209e-02 5.853232e+00 4.768675e-02 5.870618e+00 1.091518e-01 5.852994e+00 1.324680e-01 5.820158e+00 1.400385e-01 5.780582e+00 1.450162e-01 
5.956785e+00 2.025427e-01 5.961259e+00 2.419180e-01 5.975709e+00 2.395410e-01 5.839928e+00 2.203590e-01 5.755676e+00 1.865432e-01 5.721218e+00 1.187735e-01 5.748881e+00 -4.223061e-02 5.919237e+00 -2.415904e-01 6.105755e+00 6.404992e-01 6.325521e+00 3.435487e-01 6.428100e+00 5.955473e-01 6.196720e+00 6.604720e-01 6.324013e+00 1.702952e-01 6.349556e+00 6.666149e-01 6.248523e+00 5.753904e-01 6.531017e+00 3.672942e-01 6.280471e+00 7.004969e-01 6.277803e+00 2.562975e-01 6.564110e+00 6.121583e-01 6.275219e+00 6.993834e-01 6.365048e+00 1.029874e-01 6.405746e+00 6.467626e-01 6.294124e+00 5.608546e-01 6.587823e+00 3.828094e-01 6.310093e+00 1.024425e+00 6.204833e+00 4.540006e-01 5.950250e+00 1.185674e-01 5.940312e+00 1.010903e-01 5.959596e+00 1.353740e-01 5.962524e+00 1.590296e-01 5.958190e+00 1.726580e-01 5.954862e+00 1.840521e-01 
6.168961e+00 1.884228e-01 6.214276e+00 2.275584e-01 6.281766e+00 2.259174e-01 6.119303e+00 2.051635e-01 6.012985e+00 1.723961e-01 5.968381e+00 1.320504e-01 5.990699e+00 8.698409e-02 6.101569e+00 7.013930e-02 6.261416e+00 4.016050e-01 6.319895e+00 4.043964e-01 6.421079e+00 4.659766e-01 6.337010e+00 5.150579e-01 6.330777e+00 3.852607e-01 6.407305e+00 5.336366e-01 6.333395e+00 5.471784e-01 6.435255e+00 4.685405e-01 6.376695e+00 5.721813e-01 6.320087e+00 4.706053e-01 6.483661e+00 5.619069e-01 6.363847e+00 5.862735e-01 6.360384e+00 4.084632e-01 6.426468e+00 6.044711e-01 6.345188e+00 6.148727e-01 6.468348e+00 5.453082e-01 6.375222e+00 6.702138e-01 6.249568e+00 4.597861e-01 6.093692e+00 2.420986e-01 6.052033e+00 1.591967e-01 6.062430e+00 1.442021e-01 6.082792e+00 1.475552e-01 6.105292e+00 1.552564e-01 6.132581e+00 1.670169e-01 
6.369050e+00 2.240032e-01 6.459004e+00 2.617138e-01 6.581011e+00 2.608566e-01 6.385906e+00 2.383529e-01 6.247485e+00 1.991123e-01 6.173099e+00 1.530721e-01 6.162987e+00 1.280709e-01 6.204589e+00 1.807073e-01 6.245212e+00 3.381778e-01 6.406270e+00 4.202404e-01 6.453341e+00 5.048075e-01 6.389285e+00 4.899487e-01 6.418581e+00 4.540123e-01 6.400394e+00 5.103418e-01 6.389703e+00 5.047499e-01 6.468886e+00 5.080727e-01 6.389016e+00 5.093879e-01 6.396202e+00 4.705497e-01 6.471603e+00 5.379803e-01 6.400687e+00 5.139415e-01 6.425355e+00 4.594423e-01 6.422290e+00 5.398642e-01 6.404858e+00 5.554209e-01 6.480258e+00 5.715231e-01 6.376970e+00 5.822826e-01 6.307606e+00 4.574435e-01 6.192644e+00 2.990475e-01 6.144633e+00 2.069650e-01 6.154956e+00 1.767845e-01 6.190204e+00 1.754331e-01 6.237030e+00 1.848429e-01 6.295335e+00 2.000806e-01 
6.558444e+00 2.153799e-01 6.683489e+00 2.526253e-01 6.851835e+00 2.525841e-01 6.635737e+00 2.374834e-01 6.476858e+00 2.101932e-01 6.379332e+00 1.829984e-01 6.339918e+00 1.781592e-01 6.346128e+00 2.279792e-01 6.369606e+00 3.339830e-01 6.459313e+00 4.264278e-01 6.486150e+00 4.865892e-01 6.453640e+00 4.776748e-01 6.444862e+00 4.803249e-01 6.434209e+00 5.042643e-01 6.424611e+00 5.038808e-01 6.455450e+00 5.278217e-01 6.421297e+00 5.124228e-01 6.413916e+00 5.045338e-01 6.454697e+00 5.455269e-01 6.429501e+00 5.176179e-01 6.430988e+00 5.111124e-01 6.432508e+00 5.441409e-01 6.430166e+00 5.468257e-01 6.470614e+00 5.633296e-01 6.426854e+00 5.123334e-01 6.366113e+00 4.357023e-01 6.278027e+00 3.153504e-01 6.237988e+00 2.256826e-01 6.255354e+00 1.833990e-01 6.305085e+00 1.717406e-01 6.372533e+00 1.760229e-01 6.455735e+00 1.902231e-01 
6.737875e+00 2.463527e-01 6.900176e+00 2.823058e-01 7.114811e+00 2.830707e-01 6.869707e+00 2.690366e-01 6.681070e+00 2.388987e-01 6.551424e+00 2.034240e-01 6.477834e+00 1.860038e-01 6.447443e+00 2.308074e-01 6.424867e+00 3.567744e-01 6.543568e+00 4.461199e-01 6.544161e+00 5.216832e-01 6.500585e+00 4.900559e-01 6.501107e+00 4.818774e-01 6.459029e+00 5.086069e-01 6.460068e+00 4.873852e-01 6.494254e+00 5.250353e-01 6.443791e+00 4.973384e-01 6.453590e+00 4.709729e-01 6.476444e+00 5.317632e-01 6.456771e+00 4.917218e-01 6.472984e+00 4.805692e-01 6.453331e+00 5.136818e-01 6.470207e+00 5.070389e-01 6.513327e+00 5.556080e-01 6.456833e+00 5.208750e-01 6.421837e+00 4.479709e-01 6.336787e+00 3.242899e-01 6.304934e+00 2.369508e-01 6.337827e+00 1.998048e-01 6.406344e+00 1.932211e-01 6.495512e+00 2.017940e-01 6.604449e+00 2.193119e-01 
6.904099e+00 2.428646e-01 7.095691e+00 2.792149e-01 7.350376e+00 2.808541e-01 7.084972e+00 2.785859e-01 6.876001e+00 2.619810e-01 6.720447e+00 2.302506e-01 6.619826e+00 1.808216e-01 6.579718e+00 1.773298e-01 6.523087e+00 3.983300e-01 6.653399e+00 4.455493e-01 6.597772e+00 5.671754e-01 6.537747e+00 4.854075e-01 6.542521e+00 4.509000e-01 6.477365e+00 5.418287e-01 6.479919e+00 4.616652e-01 6.520555e+00 5.542316e-01 6.448332e+00 5.234059e-01 6.466309e+00 4.301028e-01 6.487780e+00 5.887384e-01 6.464339e+00 5.063714e-01 6.490833e+00 4.596819e-01 6.459845e+00 5.461165e-01 6.488577e+00 4.663663e-01 6.560022e+00 5.547333e-01 6.500433e+00 5.390732e-01 6.482770e+00 4.599238e-01 6.381652e+00 3.015744e-01 6.367968e+00 2.213138e-01 6.424397e+00 1.927833e-01 6.511367e+00 1.883365e-01 6.618213e+00 1.966432e-01 6.747112e+00 2.143933e-01 
7.061411e+00 2.712913e-01 7.283443e+00 3.068831e-01 7.577255e+00 3.093520e-01 7.284585e+00 3.138004e-01 7.046546e+00 3.041099e-01 6.857224e+00 2.699157e-01 6.724770e+00 1.860170e-01 6.668222e+00 1.190337e-01 6.596626e+00 3.985708e-01 6.728765e+00 3.591644e-01 6.651427e+00 5.661067e-01 6.554418e+00 4.523003e-01 6.580525e+00 3.471356e-01 6.489875e+00 5.596939e-01 6.483445e+00 3.784343e-01 6.565825e+00 5.405572e-01 6.442172e+00 5.351391e-01 6.472281e+00 2.944122e-01 6.510227e+00 6.384362e-01 6.458141e+00 4.966929e-01 6.513744e+00 3.543688e-01 6.453437e+00 5.834535e-01 6.489320e+00 3.754006e-01 6.627665e+00 5.743795e-01 6.514367e+00 6.946283e-01 6.542976e+00 5.359210e-01 6.385040e+00 2.532703e-01 6.406850e+00 1.906786e-01 6.499674e+00 1.921352e-01 6.607316e+00 2.037445e-01 6.731255e+00 2.193866e-01 6.880008e+00 2.408359e-01 
7.203699e+00 2.708913e-01 7.449974e+00 3.060390e-01 7.777511e+00 3.092871e-01 7.467554e+00 3.253165e-01 7.213396e+00 3.383725e-01 7.001571e+00 3.523386e-01 6.821415e+00 3.667401e-01 6.650434e+00 3.161239e-01 6.540979e+00 9.100355e-02 6.232692e+00 -5.641731e-02 6.203464e+00 -1.609963e-01 6.154344e+00 -5.159249e-02 6.097376e+00 -5.071000e-02 6.129142e+00 -4.018387e-02 6.056346e+00 1.014341e-02 6.030100e+00 -4.612630e-02 6.051040e+00 3.790964e-02 6.005172e+00 4.320906e-02 6.041932e+00 1.265975e-02 6.016662e+00 7.942629e-02 6.014342e+00 5.489970e-02 6.089924e+00 9.312418e-02 6.059851e+00 9.176918e-02 6.127945e+00 6.930910e-02 6.209734e+00 1.890314e-01 6.245009e+00 1.348406e-01 6.328542e+00 1.234746e-01 6.462988e+00 1.562091e-01 6.583524e+00 1.816887e-01 6.703091e+00 1.991531e-01 6.839390e+00 2.163733e-01 7.003471e+00 2.389334e-01 
7.337283e+00 2.960392e-01 7.608638e+00 3.291671e-01 7.968424e+00 3.331232e-01 7.637197e+00 3.564556e-01 7.358376e+00 3.898123e-01 7.105932e+00 4.602683e-01 6.837833e+00 6.004460e-01 6.489645e+00 5.970062e-01 6.290090e+00 -2.463327e-01 5.490251e+00 -4.062084e-01 5.406547e+00 -1.027122e+00 5.459249e+00 -7.741744e-01 5.247761e+00 -5.535315e-01 5.371092e+00 -1.035898e+00 5.300724e+00 -6.456594e-01 5.002845e+00 -1.035973e+00 5.263626e+00 -1.002507e+00 5.176899e+00 -4.661302e-01 5.053530e+00 -1.240853e+00 5.197209e+00 -9.101888e-01 5.089670e+00 -5.745903e-01 5.286268e+00 -1.066949e+00 5.292650e+00 -6.440812e-01 5.057625e+00 -1.102018e+00 5.474792e+00 -1.332381e+00 5.638143e+00 -8.494752e-01 6.274534e+00 -1.208024e-01 6.553792e+00 1.266429e-01 6.677622e+00 1.938565e-01 6.794946e+00 2.189811e-01 6.938916e+00 2.387975e-01 7.117559e+00 2.631342e-01 
7.454812e+00 2.961903e-01 7.746385e+00 3.272872e-01 8.133320e+00 3.319177e-01 7.787020e+00 3.559085e-01 7.493980e+00 3.824200e-01 7.229560e+00 4.235945e-01 6.969247e+00 4.916876e-01 6.693192e+00 4.877215e-01 6.517131e+00 1.608193e-01 6.039675e+00 3.802165e-02 5.924415e+00 -2.960022e-01 5.858778e+00 -2.251037e-01 5.702398e+00 -1.773808e-01 5.758365e+00 -4.489544e-01 5.661004e+00 -2.768833e-01 5.494708e+00 -5.343855e-01 5.627502e+00 -5.122755e-01 5.551282e+00 -2.429810e-01 5.501913e+00 -7.200233e-01 5.563399e+00 -5.266056e-01 5.504860e+00 -3.712998e-01 5.653156e+00 -6.793123e-01 5.649587e+00 -4.391238e-01 5.523896e+00 -7.838308e-01 5.802570e+00 -9.110009e-01 5.915855e+00 -6.320290e-01 6.374995e+00 -9.206329e-02 6.613934e+00 1.210634e-01 6.743296e+00 1.883919e-01 6.871975e+00 2.160144e-01 7.027868e+00 2.372379e-01 7.219648e+00 2.626284e-01 
7.563578e+00 3.164322e-01 7.876245e+00 3.441638e-01 8.288348e+00 3.493844e-01 7.927344e+00 3.688123e-01 7.621738e+00 3.754173e-01 7.357476e+00 3.534197e-01 7.144557e+00 2.765673e-01 7.011259e+00 2.270610e-01 6.852051e+00 5.269174e-01 6.933766e+00 4.902645e-01 6.799811e+00 6.803046e-01 6.657371e+00 5.405815e-01 6.650958e+00 3.975572e-01 6.550738e+00 5.738645e-01 6.505336e+00 3.843710e-01 6.578971e+00 4.960226e-01 6.460399e+00 4.947856e-01 6.462384e+00 2.485439e-01 6.516832e+00 5.268397e-01 6.454878e+00 4.080212e-01 6.508583e+00 2.394517e-01 6.491621e+00 4.301102e-01 6.505655e+00 2.431469e-01 6.651935e+00 3.783715e-01 6.595222e+00 5.356006e-01 6.631491e+00 3.599813e-01 6.566052e+00 1.742529e-01 6.654506e+00 1.748166e-01 6.787463e+00 2.067536e-01 6.934542e+00 2.330721e-01 7.105520e+00 2.565968e-01 7.311827e+00 2.834179e-01 
7.656294e+00 3.158138e-01 7.985114e+00 3.411079e-01 8.417909e+00 3.468427e-01 8.048421e+00 3.677520e-01 7.737226e+00 3.760113e-01 7.471868e+00 3.577424e-01 7.263145e+00 2.949441e-01 7.127945e+00 2.610935e-01 6.963485e+00 4.557542e-01 7.033362e+00 4.761030e-01 6.885464e+00 6.305623e-01 6.768100e+00 5.132750e-01 6.748526e+00 4.457459e-01 6.619534e+00 5.792426e-01 6.615066e+00 4.317897e-01 6.648142e+00 5.652913e-01 6.530915e+00 5.228043e-01 6.566607e+00 3.433035e-01 6.569148e+00 6.085357e-01 6.544504e+00 4.673328e-01 6.599775e+00 3.646516e-01 6.540382e+00 5.218051e-01 6.606134e+00 3.484922e-01 6.720987e+00 5.228271e-01 6.647377e+00 5.777133e-01 6.729759e+00 4.829834e-01 6.654125e+00 2.527434e-01 6.713581e+00 2.040574e-01 6.843018e+00 2.156469e-01 6.996233e+00 2.354231e-01 7.175993e+00 2.571018e-01 7.392457e+00 2.835023e-01 
7.740201e+00 3.328308e-01 8.085671e+00 3.541417e-01 8.537215e+00 3.602567e-01 8.161225e+00 3.783769e-01 7.845083e+00 3.846566e-01 7.577975e+00 3.771219e-01 7.362365e+00 3.662306e-01 7.195525e+00 3.806965e-01 7.050368e+00 4.468289e-01 7.010163e+00 4.905507e-01 6.912078e+00 5.420403e-01 6.805790e+00 5.135522e-01 6.748102e+00 4.909906e-01 6.674008e+00 5.163456e-01 6.632847e+00 4.822421e-01 6.632742e+00 5.071591e-01 6.576655e+00 4.873813e-01 6.570135e+00 4.402340e-01 6.582038e+00 4.984500e-01 6.562889e+00 4.566086e-01 6.585957e+00 4.233699e-01 6.583781e+00 4.574401e-01 6.610997e+00 4.251969e-01 6.679788e+00 4.705306e-01 6.677958e+00 4.679959e-01 6.717244e+00 4.090143e-01 6.719138e+00 3.097621e-01 6.779774e+00 2.589326e-01 6.896346e+00 2.496638e-01 7.049699e+00 2.591237e-01 7.236753e+00 2.774202e-01 7.463558e+00 3.025907e-01 
7.808202e+00 3.319655e-01 8.165301e+00 3.512766e-01 8.631431e+00 3.577806e-01 8.250308e+00 3.781034e-01 7.930090e+00 3.879418e-01 7.658261e+00 3.862226e-01 7.434011e+00 3.851419e-01 7.249793e+00 4.052998e-01 7.091556e+00 4.347260e-01 7.029104e+00 4.896061e-01 6.920056e+00 5.277372e-01 6.832911e+00 5.040256e-01 6.764738e+00 5.061661e-01 6.678913e+00 5.043906e-01 6.651194e+00 4.860917e-01 6.627283e+00 5.125936e-01 6.582969e+00 4.783648e-01 6.580744e+00 4.612770e-01 6.566596e+00 4.910339e-01 6.573347e+00 4.526881e-01 6.590545e+00 4.460999e-01 6.580094e+00 4.441939e-01 6.625914e+00 4.271973e-01 6.670912e+00 4.637202e-01 6.685913e+00 4.316317e-01 6.740247e+00 4.014562e-01 6.765745e+00 3.267038e-01 6.827493e+00 2.767834e-01 6.942577e+00 2.606222e-01 7.097888e+00 2.644806e-01 7.289726e+00 2.796326e-01 7.523133e+00 3.031770e-01 
7.867523e+00 3.480418e-01 8.236056e+00 3.646906e-01 8.715106e+00 3.714837e-01 8.329857e+00 3.930406e-01 8.004995e+00 4.073792e-01 7.726978e+00 4.149891e-01 7.492806e+00 4.237195e-01 7.298599e+00 4.391028e-01 7.142199e+00 4.624739e-01 7.037581e+00 4.880679e-01 6.937023e+00 5.062540e-01 6.844741e+00 5.030340e-01 6.770558e+00 4.995328e-01 6.704283e+00 4.957381e-01 6.658805e+00 4.871186e-01 6.630781e+00 4.869499e-01 6.598447e+00 4.726399e-01 6.583205e+00 4.614807e-01 6.579612e+00 4.621063e-01 6.577437e+00 4.461888e-01 6.587280e+00 4.371817e-01 6.597805e+00 4.323626e-01 6.624292e+00 4.245911e-01 6.665703e+00 4.238996e-01 6.699181e+00 4.006710e-01 6.744730e+00 3.713597e-01 6.791178e+00 3.313497e-01 6.867099e+00 2.993902e-01 6.983475e+00 2.849662e-01 7.139201e+00 2.862039e-01 7.334432e+00 2.991301e-01 7.573965e+00 3.211564e-01 
7.910873e+00 3.470615e-01 8.286220e+00 3.623507e-01 8.773926e+00 3.693991e-01 8.385264e+00 3.927404e-01 8.057131e+00 4.097316e-01 7.774670e+00 4.202921e-01 7.534162e+00 4.308724e-01 7.332094e+00 4.444924e-01 7.168078e+00 4.618942e-01 7.051523e+00 4.842956e-01 6.944728e+00 4.996756e-01 6.854538e+00 4.994174e-01 6.776857e+00 4.986279e-01 6.707547e+00 4.939949e-01 6.662788e+00 4.879695e-01 6.628490e+00 4.869570e-01 6.598294e+00 4.743749e-01 6.582994e+00 4.657574e-01 6.573930e+00 4.626201e-01 6.577223e+00 4.488438e-01 6.586501e+00 4.401115e-01 6.596957e+00 4.311082e-01 6.627539e+00 4.221822e-01 6.665193e+00 4.165206e-01 6.704909e+00 3.936916e-01 6.758789e+00 3.678083e-01 6.816463e+00 3.345241e-01 6.897362e+00 3.060192e-01 7.015231e+00 2.910059e-01 7.172230e+00 2.900703e-01 7.369720e+00 3.009322e-01 7.612639e+00 3.214693e-01 
7.945499e+00 3.625827e-01 8.327098e+00 3.766600e-01 8.822020e+00 3.838858e-01 8.430430e+00 4.087420e-01 8.098917e+00 4.286253e-01 7.812182e+00 4.422133e-01 7.566787e+00 4.535265e-01 7.360823e+00 4.646767e-01 7.193163e+00 4.773706e-01 7.062233e+00 4.880690e-01 6.952446e+00 4.950490e-01 6.858271e+00 4.953254e-01 6.780077e+00 4.921623e-01 6.715771e+00 4.872033e-01 6.666422e+00 4.807483e-01 6.631063e+00 4.742181e-01 6.602723e+00 4.649785e-01 6.585029e+00 4.559170e-01 6.578245e+00 4.480224e-01 6.577624e+00 4.377629e-01 6.585461e+00 4.281702e-01 6.600798e+00 4.190213e-01 6.626548e+00 4.087889e-01 6.664318e+00 3.959845e-01 6.708323e+00 3.769187e-01 6.762047e+00 3.552865e-01 6.827449e+00 3.333324e-01 6.916744e+00 3.153172e-01 7.038539e+00 3.057840e-01 7.197247e+00 3.066266e-01 7.396693e+00 3.176706e-01 7.642741e+00 3.378387e-01 
7.964136e+00 3.608840e-01 8.347701e+00 3.742752e-01 8.845394e+00 3.816148e-01 8.452377e+00 4.074396e-01 8.119406e+00 4.285173e-01 7.830587e+00 4.429925e-01 7.582406e+00 4.542709e-01 7.372998e+00 4.642840e-01 7.201130e+00 4.748830e-01 7.065137e+00 4.840458e-01 6.951790e+00 4.903745e-01 6.857004e+00 4.915079e-01 6.777682e+00 4.894999e-01 6.712087e+00 4.856705e-01 6.662520e+00 4.803276e-01 6.625361e+00 4.745313e-01 6.597116e+00 4.665242e-01 6.579542e+00 4.581225e-01 6.571400e+00 4.501472e-01 6.572291e+00 4.400714e-01 6.580868e+00 4.298013e-01 6.596757e+00 4.194245e-01 6.624325e+00 4.076905e-01 6.662218e+00 3.937494e-01 6.708977e+00 3.753251e-01 6.767694e+00 3.546891e-01 6.838734e+00 3.342303e-01 6.931517e+00 3.174236e-01 7.054765e+00 3.079543e-01 7.213948e+00 3.079324e-01 7.413720e+00 3.178134e-01 7.660333e+00 3.369670e-01 
7.973791e+00 3.754661e-01 8.358733e+00 3.887602e-01 8.857954e+00 3.961373e-01 8.463933e+00 4.224679e-01 8.129828e+00 4.443540e-01 7.839736e+00 4.591391e-01 7.590315e+00 4.695068e-01 7.379806e+00 4.773430e-01 7.205998e+00 4.838513e-01 7.065070e+00 4.877548e-01 6.949245e+00 4.892120e-01 6.852932e+00 4.877330e-01 6.773948e+00 4.838018e-01 6.710178e+00 4.784297e-01 6.660196e+00 4.718130e-01 6.622983e+00 4.642659e-01 6.595394e+00 4.559011e-01 6.577590e+00 4.469754e-01 6.569624e+00 4.377847e-01 6.569225e+00 4.279725e-01 6.577220e+00 4.176612e-01 6.593956e+00 4.069100e-01 6.620313e+00 3.948348e-01 6.657912e+00 3.805981e-01 6.705521e+00 3.645008e-01 6.764724e+00 3.479691e-01 6.839009e+00 3.332967e-01 6.935674e+00 3.224504e-01 7.061342e+00 3.175496e-01 7.221547e+00 3.203067e-01 7.421812e+00 3.316200e-01 7.669027e+00 3.514031e-01 
7.967605e+00 3.723766e-01 8.349711e+00 3.856333e-01 8.845834e+00 3.929747e-01 8.452901e+00 4.194496e-01 8.119736e+00 4.413744e-01 7.830298e+00 4.560151e-01 7.581240e+00 4.659392e-01 7.370640e+00 4.731004e-01 7.196146e+00 4.787960e-01 7.054177e+00 4.823363e-01 6.937621e+00 4.839662e-01 6.841556e+00 4.832066e-01 6.762842e+00 4.803876e-01 6.699164e+00 4.762958e-01 6.649547e+00 4.708920e-01 6.612189e+00 4.645304e-01 6.584856e+00 4.572486e-01 6.567425e+00 4.490886e-01 6.559356e+00 4.403855e-01 6.559726e+00 4.306596e-01 6.568458e+00 4.200281e-01 6.585766e+00 4.086770e-01 6.613111e+00 3.958118e-01 6.651243e+00 3.811676e-01 6.700199e+00 3.650776e-01 6.761875e+00 3.485845e-01 6.838688e+00 3.338274e-01 6.936755e+00 3.227943e-01 7.062493e+00 3.174137e-01 7.221705e+00 3.193702e-01 7.420272e+00 3.297593e-01 7.665335e+00 3.487559e-01 
7.952075e+00 3.858036e-01 8.330914e+00 3.998049e-01 8.822907e+00 4.070331e-01 8.431528e+00 4.330044e-01 8.099795e+00 4.543238e-01 7.811960e+00 4.680540e-01 7.564636e+00 4.764782e-01 7.355658e+00 4.814354e-01 7.182125e+00 4.840197e-01 7.039945e+00 4.842668e-01 6.923617e+00 4.826329e-01 6.828339e+00 4.793010e-01 6.751070e+00 4.745027e-01 6.689243e+00 4.686644e-01 6.640813e+00 4.618969e-01 6.604348e+00 4.543428e-01 6.577915e+00 4.462068e-01 6.560876e+00 4.374794e-01 6.552849e+00 4.282239e-01 6.552774e+00 4.184145e-01 6.561015e+00 4.079386e-01 6.578031e+00 3.967525e-01 6.604506e+00 3.845259e-01 6.641718e+00 3.711578e-01 6.690090e+00 3.573531e-01 6.751317e+00 3.442369e-01 6.828743e+00 3.334533e-01 6.927643e+00 3.264276e-01 7.053544e+00 3.245404e-01 7.212012e+00 3.291340e-01 7.409117e+00 3.412917e-01 7.652228e+00 3.613911e-01 