# vtk DataFile Version 2.0
Comment goes here
ASCII

DATASET STRUCTURED_POINTS
FIELD FieldData 1
TIME 1 1 double
0.66000000
DIMENSIONS    128   16   1

ORIGIN    0.000   0.000   0.000
SPACING   0.0078125 0.015625   1.000

POINT_DATA   2048
SCALARS fMag double
LOOKUP_TABLE default

0 0 0 0 0 0 0 0 0 0 0 0 0 0 0 0 0 0 0 0 0 0 0 0 0 0 0 0 0 0 0 0 0 0 0 0 0 0 0 0 0 0 0 0 0 0 0 0 0 0 0 0 0 0 0 0 0 0 0 0 0 0 0 0 0 0 0 0 0 0 0 0 0 0 0 0 0 0 0 0 0 0 0 0 0 0 0 0 0 0 0 0 0 0 0 0 0 0 0 0 0 0 0 0 0 0 0 0 0 0 0 0 0 0 0 0 0 0 0 0 0 0 0 0 0 0 0 0 
0 0 0 0 0 0 0 0 0 0 0 0 0 0 0 0 0 0 0 0 0 0 0 0 0 0 0 0 0 0 0 0 0 0 0 0 0 0 0 0 0 0 0 0 0 0 0 0 0 0 0 0 0 0 0 0 0 0 0 0 0 0 0 0 0 0 0 0 0 0 0 0 0 0 0 0 0 0 0 0 0 0 0 0 0 0 0 0 0 0 0 0 0 0 0 0 0 0 0 0 0 0 0 0 0 0 0 0 0 0 0 0 0 0 0 0 0 0 0 0 0 0 0 0 0 0 0 0 
0 0 0 0 0 1.713730e+00 3.120007e+00 1.530542e+00 2.610722e+00 2.056138e+00 3.193675e+00 2.465098e+00 3.541795e+00 4.925226e+00 7.389393e+00 9.724525e+00 1.380751e+01 1.825441e+01 2.222506e+01 2.578006e+01 3.208280e+01 3.247675e+01 3.248087e+01 3.377751e+01 3.440597e+01 3.519593e+01 3.432755e+01 3.296634e+01 3.049627e+01 2.866221e+01 2.730773e+01 2.741797e+01 2.827204e+01 2.979855e+01 3.106913e+01 3.171660e+01 3.148050e+01 3.054141e+01 2.952991e+01 2.862592e+01 2.817863e+01 2.764702e+01 2.712881e+01 2.612639e+01 2.510655e+01 2.402788e+01 2.364614e+01 2.405193e+01 2.546448e+01 2.733344e+01 2.896528e+01 2.972133e+01 2.903535e+01 2.722223e+01 2.436647e+01 2.189118e+01 2.078497e+01 2.377295e+01 3.074448e+01 3.593649e+01 3.632305e+01 3.098391e+01 2.699929e+01 2.900652e+01 3.299980e+01 3.699537e+01 3.837174e+01 3.419559e+01 2.922650e+01 2.604827e+01 2.002052e+01 1.651755e+01 1.555567e+01 1.527882e+01 1.602143e+01 1.703284e+01 1.769351e+01 1.725040e+01 1.584384e+01 1.367099e+01 1.184436e+01 1.093051e+01 1.153747e+01 1.282685e+01 1.422357e+01 1.445946e+01 1.373190e+01 1.176698e+01 9.825543e+00 8.128283e+00 7.980815e+00 8.760429e+00 1.045821e+01 1.140754e+01 1.147669e+01 1.006514e+01 8.235625e+00 6.468423e+00 5.723300e+00 6.062165e+00 7.425283e+00 9.401283e+00 1.066561e+01 1.097214e+01 9.531502e+00 7.815785e+00 5.505680e+00 4.451640e+00 3.685523e+00 4.572520e+00 5.328744e+00 6.639404e+00 6.893227e+00 6.995547e+00 6.387096e+00 5.851859e+00 5.359322e+00 4.745740e+00 4.504055e+00 3.769374e+00 3.792418e+00 1.915403e+00 2.417611e+00 2.772730e-01 0 0 0 0 
0 0 0 0 0 5.038762e+00 9.164475e+00 4.484177e+00 7.671190e+00 6.045461e+00 9.390868e+00 7.246734e+00 1.041301e+01 1.448759e+01 2.173876e+01 2.860813e+01 4.061950e+01 5.370454e+01 6.538779e+01 7.585022e+01 9.440072e+01 9.556013e+01 9.557233e+01 9.938888e+01 1.012387e+02 1.035638e+02 1.010074e+02 9.700058e+01 8.972998e+01 8.433168e+01 8.034519e+01 8.066968e+01 8.318342e+01 8.767649e+01 9.141619e+01 9.332204e+01 9.262712e+01 8.986288e+01 8.688576e+01 8.422497e+01 8.290844e+01 8.134380e+01 7.981861e+01 7.686835e+01 7.386690e+01 7.069239e+01 6.956894e+01 7.076317e+01 7.492031e+01 8.042085e+01 8.522369e+01 8.744897e+01 8.542993e+01 8.009356e+01 7.168907e+01 6.440453e+01 6.061001e+01 6.785361e+01 7.950146e+01 9.370994e+01 9.174115e+01 7.496950e+01 6.039563e+01 6.003561e+01 7.149510e+01 8.137334e+01 7.938760e+01 7.077826e+01 6.352363e+01 6.337397e+01 6.098221e+01 4.562242e+01 4.323476e+01 4.494827e+01 4.713287e+01 5.010869e+01 5.205214e+01 5.074853e+01 4.661008e+01 4.021667e+01 3.484270e+01 3.215398e+01 3.393948e+01 3.773310e+01 4.184240e+01 4.253638e+01 4.039586e+01 3.461471e+01 2.890293e+01 2.390978e+01 2.347595e+01 2.576955e+01 3.076443e+01 3.355730e+01 3.376080e+01 2.960821e+01 2.422584e+01 1.902742e+01 1.683541e+01 1.783225e+01 2.184235e+01 2.765512e+01 3.137456e+01 3.227617e+01 2.803779e+01 2.299075e+01 1.619520e+01 1.309450e+01 1.084097e+01 1.345010e+01 1.567460e+01 1.953062e+01 2.027751e+01 2.057890e+01 1.878921e+01 1.721454e+01 1.576520e+01 1.395981e+01 1.324821e+01 1.108672e+01 1.115452e+01 5.634592e+00 7.112018e+00 8.156040e-01 0 0 0 0 
0 0 0 0 0 3.479778e+00 6.324610e+00 3.089039e+00 5.295346e+00 4.174979e+00 6.485703e+00 5.004015e+00 7.190914e+00 5.020480e+01 6.968002e+01 5.564714e+01 6.623768e+01 6.681427e+01 7.255715e+01 8.430114e+01 8.405507e+01 6.602842e+01 6.603689e+01 6.867461e+01 6.995310e+01 7.156003e+01 6.979299e+01 6.702366e+01 6.199867e+01 5.826781e+01 5.551280e+01 5.573706e+01 5.747430e+01 6.057954e+01 6.316408e+01 6.448131e+01 6.400103e+01 6.209055e+01 6.003305e+01 5.819411e+01 5.728424e+01 5.620293e+01 5.514889e+01 5.311002e+01 5.103582e+01 4.884205e+01 4.806569e+01 4.889096e+01 5.176380e+01 5.556507e+01 5.888429e+01 6.042219e+01 5.902682e+01 5.533891e+01 4.953091e+01 4.449699e+01 4.098611e+01 3.723898e+01 3.609148e+01 4.251809e+01 4.337477e+01 4.229742e+01 3.905808e+01 3.691201e+01 3.775052e+01 3.526979e+01 3.213198e+01 3.802585e+01 4.789735e+01 5.719982e+01 6.046685e+01 4.179822e+01 2.991114e+01 3.105349e+01 3.256273e+01 3.461883e+01 3.596142e+01 3.506078e+01 3.220139e+01 2.778381e+01 2.407094e+01 2.221323e+01 2.344674e+01 2.606786e+01 2.890702e+01 2.938648e+01 2.790758e+01 2.391326e+01 1.996699e+01 1.651735e+01 1.621764e+01 1.780225e+01 2.125319e+01 2.318274e+01 2.332336e+01 2.045445e+01 1.673584e+01 1.314462e+01 1.163025e+01 1.231890e+01 1.508936e+01 1.910507e+01 2.167470e+01 2.229751e+01 1.936924e+01 1.588257e+01 1.118794e+01 9.045821e+00 7.489069e+00 9.291497e+00 1.082823e+01 1.349236e+01 1.400845e+01 1.421686e+01 1.298055e+01 1.189263e+01 1.089114e+01 9.643690e+00 9.151781e+00 7.658391e+00 7.705248e+00 3.892650e+00 4.913359e+00 5.634309e-01 0 0 0 0 
0 0 0 0 0 1.547466e-01 2.801418e-01 1.354044e-01 2.348778e-01 1.856553e-01 2.885102e-01 2.223791e-01 3.196979e-01 5.555362e+01 6.073009e+01 5.692745e+01 5.878548e+01 5.848047e+01 5.697731e+01 6.021776e+01 5.597902e+01 2.945043e+00 2.945430e+00 3.063238e+00 3.120344e+00 3.192107e+00 3.113132e+00 2.989417e+00 2.764966e+00 2.598346e+00 2.475337e+00 2.485353e+00 2.562926e+00 2.701606e+00 2.817023e+00 2.875866e+00 2.854415e+00 2.769076e+00 2.677198e+00 2.595068e+00 2.554434e+00 2.506152e+00 2.459092e+00 2.368063e+00 2.275469e+00 2.177543e+00 2.142890e+00 2.179727e+00 2.307966e+00 2.477670e+00 2.625876e+00 2.694550e+00 2.632238e+00 2.467576e+00 2.208318e+00 1.983645e+00 2.438330e-01 1.038083e+01 1.648943e+01 2.357137e+01 2.086438e+01 9.493477e+00 2.206968e+00 2.847713e+00 1.055871e+01 2.015194e+01 2.111001e+01 1.321064e+01 1.023266e+01 1.379021e+01 1.485853e+01 1.251100e+01 2.388704e+00 1.384036e+00 1.451293e+00 1.542981e+00 1.602799e+00 1.562653e+00 1.435147e+00 1.238116e+00 1.072600e+00 9.897670e-01 1.044731e+00 1.161609e+00 1.288189e+00 1.309560e+00 1.243629e+00 1.065532e+00 8.896064e-01 7.358540e-01 7.224969e-01 7.931317e-01 9.469669e-01 1.032974e+00 1.039250e+00 9.113824e-01 7.456260e-01 5.856238e-01 5.181344e-01 5.488195e-01 6.722958e-01 8.512304e-01 9.657507e-01 9.934886e-01 8.629519e-01 7.075996e-01 4.984213e-01 4.029651e-01 3.336177e-01 4.139141e-01 4.823789e-01 6.011458e-01 6.241697e-01 6.335052e-01 5.784394e-01 5.299424e-01 4.852618e-01 4.296253e-01 4.076286e-01 3.410500e-01 3.431410e-01 1.734610e-01 2.189519e-01 2.509993e-02 0 0 0 0 
0 0 0 0 0 0 0 0 0 0 0 0 0 6.073161e+01 6.622923e+01 6.214261e+01 6.386497e+01 6.417152e+01 6.170180e+01 6.627851e+01 6.045609e+01 0 0 0 0 0 0 0 0 0 0 0 0 0 0 0 0 0 0 0 0 0 0 0 0 0 0 0 0 0 0 0 0 0 0 0 8.718332e-01 2.907205e+00 1.199923e+00 4.749550e+00 8.460871e+00 9.479947e+00 9.619906e+00 1.027012e+01 1.064668e+01 8.734806e+00 6.709532e+00 6.681392e+00 9.229035e+00 1.014421e+01 6.275836e+00 2.384004e-01 7.937671e-02 0 0 0 0 0 0 0 0 0 0 0 0 0 0 0 0 0 0 0 0 0 0 0 0 0 0 0 0 0 0 0 0 0 0 0 0 0 0 0 0 0 0 0 0 0 0 0 0 0 0 0 0 0 0 0 
0 0 0 0 0 0 0 0 0 0 0 0 0 5.964877e+01 6.172900e+01 5.996668e+01 6.077604e+01 6.072250e+01 6.004142e+01 6.169382e+01 5.983409e+01 0 0 0 0 0 0 0 0 0 0 0 0 0 0 0 0 0 0 0 0 0 0 0 0 0 0 0 0 0 0 0 0 0 0 0 8.758387e-02 5.763861e-01 2.776751e+00 3.617754e+00 6.310534e-01 1.668204e+00 4.792414e+00 4.073330e+00 2.308619e+00 4.653270e-01 1.606837e+00 9.450098e-01 2.845936e+00 4.840247e+00 2.356023e+00 7.235931e-01 1.300422e-01 0 0 0 0 0 0 0 0 0 0 0 0 0 0 0 0 0 0 0 0 0 0 0 0 0 0 0 0 0 0 0 0 0 0 0 0 0 0 0 0 0 0 0 0 0 0 0 0 0 0 0 0 0 0 0 
0 0 0 0 0 0 0 0 0 0 0 0 0 6.335995e+01 6.607343e+01 6.394318e+01 6.477689e+01 6.506328e+01 6.360426e+01 6.629310e+01 6.307449e+01 0 0 0 0 0 0 0 0 0 0 0 0 0 0 0 0 0 0 0 0 0 0 0 0 0 0 0 0 0 0 0 0 0 0 0 0 0 0 0 0 0 0 0 0 0 0 0 0 0 0 0 0 0 0 0 0 0 0 0 0 0 0 0 0 0 0 0 0 0 0 0 0 0 0 0 0 0 0 0 0 0 0 0 0 0 0 0 0 0 0 0 0 0 0 0 0 0 0 0 0 0 0 0 0 0 0 0 
0 0 0 0 0 0 0 0 0 0 0 0 0 5.961813e+01 6.164516e+01 5.993946e+01 6.069273e+01 6.068504e+01 5.993338e+01 6.162367e+01 5.970437e+01 0 0 0 0 0 0 0 0 0 0 0 0 0 0 0 0 0 0 0 0 0 0 0 0 0 0 0 0 0 0 0 0 0 0 0 0 0 0 0 0 0 0 0 0 0 0 0 0 0 0 0 0 0 0 0 0 0 0 0 0 0 0 0 0 0 0 0 0 0 0 0 0 0 0 0 0 0 0 0 0 0 0 0 0 0 0 0 0 0 0 0 0 0 0 0 0 0 0 0 0 0 0 0 0 0 0 0 
0 0 0 0 0 0 0 0 0 0 0 0 0 6.079306e+01 6.613081e+01 6.216148e+01 6.373406e+01 6.405669e+01 6.150182e+01 6.601980e+01 6.039611e+01 0 0 0 0 0 0 0 0 0 0 0 0 0 0 0 0 0 0 0 0 0 0 0 0 0 0 0 0 0 0 0 0 0 0 0 0 0 0 0 0 0 0 0 0 0 0 0 0 0 0 0 0 0 0 0 0 0 0 0 0 0 0 0 0 0 0 0 0 0 0 0 0 0 0 0 0 0 0 0 0 0 0 0 0 0 0 0 0 0 0 0 0 0 0 0 0 0 0 0 0 0 0 0 0 0 0 0 
0 0 0 0 0 1.543489e-01 2.794238e-01 1.205032e-01 2.083591e-01 1.550332e-01 2.627236e-01 2.037836e-01 3.267953e-01 5.543222e+01 6.053376e+01 5.692667e+01 5.863457e+01 5.849286e+01 5.664198e+01 5.975102e+01 5.502193e+01 2.931981e+00 2.811235e+00 2.838520e+00 2.880077e+00 3.042351e+00 3.124633e+00 3.189181e+00 3.090461e+00 2.938119e+00 2.690786e+00 2.496106e+00 2.358708e+00 2.355535e+00 2.431953e+00 2.562115e+00 2.689817e+00 2.785634e+00 2.846495e+00 2.846444e+00 2.811579e+00 2.712767e+00 2.590061e+00 2.409278e+00 2.231014e+00 2.057003e+00 1.980204e+00 1.998071e+00 2.138413e+00 2.324171e+00 2.515518e+00 2.624488e+00 2.618491e+00 2.468277e+00 2.215084e+00 1.933799e+00 1.718850e+00 1.641484e+00 1.708668e+00 1.889172e+00 2.087491e+00 2.225401e+00 2.210381e+00 2.050577e+00 1.785062e+00 1.546528e+00 1.411612e+00 1.448941e+00 1.606909e+00 1.830246e+00 1.992807e+00 2.033468e+00 1.894325e+00 1.636404e+00 1.333127e+00 1.106725e+00 1.001894e+00 1.027440e+00 1.136285e+00 1.277439e+00 1.403340e+00 1.471356e+00 1.490849e+00 1.464467e+00 1.444837e+00 1.406952e+00 1.370306e+00 1.268937e+00 1.144457e+00 9.646497e-01 8.207671e-01 7.006366e-01 7.021513e-01 7.845531e-01 9.648242e-01 1.111759e+00 1.191356e+00 1.140601e+00 1.012316e+00 8.579817e-01 7.325669e-01 6.773903e-01 6.555985e-01 6.758225e-01 6.369097e-01 5.735190e-01 4.140465e-01 2.986401e-01 1.892664e-01 2.412728e-01 3.356752e-01 5.439390e-01 6.549966e-01 7.454563e-01 6.626415e-01 5.557591e-01 4.022038e-01 3.597042e-01 3.268282e-01 3.399598e-01 3.059179e-01 3.074190e-01 3.288807e-01 3.422316e-02 0 0 0 0 
0 0 0 0 0 3.470801e+00 6.307950e+00 2.754526e+00 4.699603e+00 3.487282e+00 5.906516e+00 4.586121e+00 7.349268e+00 5.098891e+01 7.051376e+01 5.648903e+01 6.644949e+01 6.683455e+01 7.192757e+01 8.347263e+01 8.525158e+01 6.573441e+01 6.303195e+01 6.364344e+01 6.457415e+01 6.820793e+01 7.005010e+01 7.149507e+01 6.928570e+01 6.587535e+01 6.033732e+01 5.597785e+01 5.290008e+01 5.282893e+01 5.454067e+01 5.745552e+01 6.031558e+01 6.246095e+01 6.382379e+01 6.382275e+01 6.304215e+01 6.082987e+01 5.808194e+01 5.403315e+01 5.003977e+01 4.614119e+01 4.442041e+01 4.482072e+01 4.796520e+01 5.212680e+01 5.641264e+01 5.885329e+01 5.871893e+01 5.535433e+01 4.968269e+01 4.337975e+01 3.856266e+01 3.682854e+01 3.833435e+01 4.238010e+01 4.682413e+01 4.991423e+01 4.957778e+01 4.599695e+01 4.004655e+01 3.469970e+01 3.167492e+01 3.251188e+01 3.605333e+01 4.105929e+01 4.470273e+01 4.561389e+01 4.249540e+01 3.671446e+01 2.991448e+01 2.483782e+01 2.248661e+01 2.305982e+01 2.550161e+01 2.866732e+01 3.149103e+01 3.301628e+01 3.345350e+01 3.286214e+01 3.242201e+01 3.157246e+01 3.075055e+01 2.847716e+01 2.568505e+01 2.165137e+01 1.842324e+01 1.572730e+01 1.576094e+01 1.760959e+01 2.165323e+01 2.494952e+01 2.673453e+01 2.559597e+01 2.271900e+01 1.925646e+01 1.644330e+01 1.520542e+01 1.471662e+01 1.517061e+01 1.429755e+01 1.287476e+01 9.295572e+00 6.704942e+00 4.249073e+00 5.416057e+00 7.534629e+00 1.220749e+01 1.469943e+01 1.672759e+01 1.486757e+01 1.246910e+01 9.021489e+00 8.069763e+00 7.331336e+00 7.623420e+00 6.853129e+00 6.891794e+00 7.381166e+00 7.682254e-01 0 0 0 0 
0 0 0 0 0 5.025754e+00 9.140223e+00 3.999939e+00 6.808693e+00 5.049895e+00 8.552369e+00 6.641685e+00 1.064200e+01 1.583642e+01 2.281319e+01 2.907659e+01 4.094859e+01 5.413961e+01 6.694266e+01 7.814627e+01 9.656499e+01 9.513432e+01 9.122436e+01 9.210928e+01 9.345600e+01 9.871390e+01 1.013793e+02 1.034700e+02 1.002735e+02 9.533914e+01 8.732603e+01 8.101809e+01 7.656445e+01 7.646149e+01 7.893841e+01 8.315609e+01 8.729456e+01 9.039873e+01 9.237069e+01 9.236920e+01 9.123975e+01 8.803881e+01 8.406265e+01 7.820412e+01 7.242552e+01 6.678398e+01 6.429383e+01 6.487311e+01 6.942348e+01 7.544559e+01 8.164724e+01 8.517885e+01 8.498443e+01 8.011581e+01 7.190875e+01 6.278767e+01 5.581664e+01 5.330702e+01 5.548621e+01 6.134114e+01 6.777221e+01 7.224391e+01 7.175705e+01 6.657518e+01 5.796406e+01 5.022607e+01 4.584846e+01 4.705976e+01 5.218509e+01 5.942968e+01 6.470237e+01 6.602092e+01 6.150796e+01 5.314188e+01 4.330045e+01 3.595303e+01 3.255001e+01 3.337970e+01 3.691398e+01 4.149583e+01 4.558272e+01 4.779023e+01 4.842305e+01 4.756723e+01 4.693023e+01 4.570069e+01 4.451108e+01 4.122073e+01 3.717951e+01 3.134114e+01 2.666863e+01 2.276626e+01 2.281487e+01 2.549064e+01 3.134331e+01 3.611439e+01 3.869787e+01 3.704993e+01 3.288601e+01 2.787423e+01 2.380252e+01 2.201078e+01 2.130330e+01 2.196049e+01 2.069679e+01 1.863726e+01 1.345628e+01 9.706160e+00 6.150947e+00 7.840126e+00 1.090677e+01 1.767049e+01 2.127749e+01 2.421277e+01 2.152000e+01 1.804826e+01 1.305744e+01 1.168033e+01 1.061130e+01 1.103342e+01 9.916817e+00 9.974047e+00 1.068438e+01 1.112058e+00 0 0 0 0 
0 0 0 0 0 1.709302e+00 3.111696e+00 1.365917e+00 2.317449e+00 1.717647e+00 2.908577e+00 2.259348e+00 3.619522e+00 5.383761e+00 7.754689e+00 9.883788e+00 1.391941e+01 1.840233e+01 2.275350e+01 2.656028e+01 3.281799e+01 3.233189e+01 3.100364e+01 3.130436e+01 3.176193e+01 3.354831e+01 3.445386e+01 3.516411e+01 3.407824e+01 3.240191e+01 2.967949e+01 2.753635e+01 2.602308e+01 2.598809e+01 2.682970e+01 2.826269e+01 2.966879e+01 3.072342e+01 3.139339e+01 3.139290e+01 3.100918e+01 2.992170e+01 2.857077e+01 2.658025e+01 2.461676e+01 2.269979e+01 2.185363e+01 2.205047e+01 2.359669e+01 2.564296e+01 2.775012e+01 2.895005e+01 2.888399e+01 2.722975e+01 2.444114e+01 2.134172e+01 1.897282e+01 1.811997e+01 1.886052e+01 2.085022e+01 2.303557e+01 2.455508e+01 2.438965e+01 2.262881e+01 1.970257e+01 1.707290e+01 1.558515e+01 1.599682e+01 1.773867e+01 2.020063e+01 2.199244e+01 2.244050e+01 2.090688e+01 1.806382e+01 1.471909e+01 1.222194e+01 1.106529e+01 1.134732e+01 1.254865e+01 1.410595e+01 1.549503e+01 1.624530e+01 1.646039e+01 1.616955e+01 1.595306e+01 1.553517e+01 1.513084e+01 1.401251e+01 1.263892e+01 1.065442e+01 9.066158e+00 7.739593e+00 7.756074e+00 8.665599e+00 1.065491e+01 1.227663e+01 1.315470e+01 1.259456e+01 1.117933e+01 9.475751e+00 8.091786e+00 7.482753e+00 7.242284e+00 7.465703e+00 7.036150e+00 6.336012e+00 4.574756e+00 3.299858e+00 2.091141e+00 2.665342e+00 3.707812e+00 6.006947e+00 7.233057e+00 8.230635e+00 7.315075e+00 6.134915e+00 4.438150e+00 3.970270e+00 3.606787e+00 3.749964e+00 3.369606e+00 3.389673e+00 3.632094e+00 3.780555e-01 0 0 0 0 
0 0 0 0 0 0 0 0 0 0 0 0 0 0 0 0 0 0 0 0 0 0 0 0 0 0 0 0 0 0 0 0 0 0 0 0 0 0 0 0 0 0 0 0 0 0 0 0 0 0 0 0 0 0 0 0 0 0 0 0 0 0 0 0 0 0 0 0 0 0 0 0 0 0 0 0 0 0 0 0 0 0 0 0 0 0 0 0 0 0 0 0 0 0 0 0 0 0 0 0 0 0 0 0 0 0 0 0 0 0 0 0 0 0 0 0 0 0 0 0 0 0 0 0 0 0 0 0 
