# vtk DataFile Version 2.0
Comment goes here
ASCII

DATASET STRUCTURED_POINTS
FIELD FieldData 1
TIME 1 1 double
0.75000000
DIMENSIONS    128   16   1

ORIGIN    0.000   0.000   0.000
SPACING   0.0078125 0.015625   1.000

POINT_DATA   2048
SCALARS fMag double
LOOKUP_TABLE default

0 0 0 0 0 0 0 0 0 0 0 0 0 0 0 0 0 0 0 0 0 0 0 0 0 0 0 0 0 0 0 0 0 0 0 0 0 0 0 0 0 0 0 0 0 0 0 0 0 0 0 0 0 0 0 0 0 0 0 0 0 0 0 0 0 0 0 0 0 0 0 0 0 0 0 0 0 0 0 0 0 0 0 0 0 0 0 0 0 0 0 0 0 0 0 0 0 0 0 0 0 0 0 0 0 0 0 0 0 0 0 0 0 0 0 0 0 0 0 0 0 0 0 0 0 0 0 0 
0 0 0 0 0 0 0 0 0 0 0 0 0 0 0 0 0 0 0 0 0 0 0 0 0 0 0 0 0 0 0 0 0 0 0 0 0 0 0 0 0 0 0 0 0 0 0 0 0 0 0 0 0 0 0 0 0 0 0 0 0 0 0 0 0 0 0 0 0 0 0 0 0 0 0 0 0 0 0 0 0 0 0 0 0 0 0 0 0 0 0 0 0 0 0 0 0 0 0 0 0 0 0 0 0 0 0 0 0 0 0 0 0 0 0 0 0 0 0 0 0 0 0 0 0 0 0 0 
0 0 0 0 0 1.084219e+00 3.493631e+00 2.026444e+00 2.656792e+00 2.236523e+00 3.341553e+00 2.727416e+00 4.009214e+00 5.737229e+00 8.474838e+00 1.065463e+01 1.564873e+01 2.047936e+01 2.529984e+01 3.026361e+01 3.722262e+01 3.792608e+01 3.680869e+01 3.614426e+01 3.462177e+01 3.436033e+01 3.430824e+01 3.549623e+01 3.649780e+01 3.742708e+01 3.726813e+01 3.624882e+01 3.449102e+01 3.258855e+01 3.127882e+01 3.064205e+01 3.098767e+01 3.149770e+01 3.222068e+01 3.227690e+01 3.213923e+01 3.140792e+01 3.094182e+01 3.056104e+01 3.082266e+01 3.116413e+01 3.147790e+01 3.113711e+01 3.009923e+01 2.848404e+01 2.671752e+01 2.553181e+01 2.519353e+01 2.615762e+01 2.771043e+01 2.966449e+01 3.122873e+01 3.136576e+01 2.998721e+01 2.815799e+01 2.975934e+01 3.465782e+01 3.955636e+01 4.221094e+01 3.980099e+01 3.842155e+01 3.891074e+01 3.700529e+01 3.629796e+01 3.305264e+01 2.607784e+01 2.315812e+01 2.103313e+01 1.969291e+01 1.877333e+01 1.699180e+01 1.505637e+01 1.365899e+01 1.315005e+01 1.365694e+01 1.471401e+01 1.594245e+01 1.666794e+01 1.663748e+01 1.579045e+01 1.454386e+01 1.348496e+01 1.285865e+01 1.285476e+01 1.291286e+01 1.303528e+01 1.253263e+01 1.191186e+01 1.083512e+01 1.037362e+01 1.018945e+01 1.098504e+01 1.166905e+01 1.234765e+01 1.197913e+01 1.102185e+01 9.281881e+00 7.539072e+00 6.168572e+00 5.550127e+00 5.909960e+00 6.468268e+00 7.210362e+00 6.936876e+00 6.633528e+00 5.502279e+00 5.262755e+00 4.803807e+00 5.436334e+00 5.598183e+00 6.471430e+00 6.294954e+00 6.397130e+00 5.478328e+00 5.082516e+00 4.044780e+00 4.003701e+00 3.438794e+00 2.867178e-01 0 0 0 0 
0 0 0 0 0 3.188053e+00 1.027445e+01 5.958019e+00 7.811011e+00 6.575737e+00 9.824307e+00 8.016126e+00 1.178625e+01 1.687582e+01 2.493262e+01 3.134489e+01 4.603670e+01 6.025134e+01 7.443632e+01 8.904618e+01 1.095304e+02 1.116009e+02 1.083114e+02 1.063555e+02 1.018735e+02 1.011038e+02 1.009505e+02 1.044477e+02 1.073960e+02 1.101318e+02 1.096639e+02 1.066632e+02 1.014890e+02 9.588864e+01 9.203347e+01 9.015915e+01 9.117635e+01 9.267756e+01 9.480559e+01 9.497100e+01 9.456576e+01 9.241315e+01 9.104124e+01 8.992045e+01 9.069049e+01 9.169563e+01 9.261919e+01 9.161613e+01 8.856123e+01 8.380730e+01 7.860804e+01 7.511840e+01 7.412286e+01 7.696021e+01 8.153043e+01 8.728184e+01 9.035652e+01 9.190611e+01 8.333655e+01 7.404837e+01 7.355276e+01 8.191220e+01 9.153422e+01 9.336685e+01 8.709827e+01 8.144655e+01 8.023030e+01 7.961837e+01 7.476824e+01 6.888540e+01 5.941293e+01 5.548807e+01 5.916173e+01 5.793672e+01 5.523010e+01 4.998776e+01 4.429270e+01 4.018120e+01 3.868389e+01 4.017528e+01 4.328550e+01 4.690006e+01 4.903455e+01 4.894497e+01 4.645272e+01 4.278473e+01 3.966931e+01 3.782657e+01 3.781507e+01 3.798604e+01 3.834618e+01 3.686723e+01 3.504086e+01 3.187302e+01 3.051529e+01 2.997352e+01 3.231425e+01 3.432678e+01 3.632354e+01 3.523943e+01 3.242318e+01 2.730441e+01 2.217683e+01 1.814511e+01 1.632576e+01 1.738435e+01 1.902703e+01 2.121004e+01 2.040527e+01 1.951278e+01 1.618473e+01 1.547992e+01 1.412984e+01 1.599063e+01 1.646701e+01 1.903643e+01 1.851807e+01 1.881989e+01 1.611938e+01 1.495997e+01 1.192075e+01 1.179534e+01 1.012123e+01 8.432270e-01 0 0 0 0 
0 0 0 0 0 2.201772e+00 7.096700e+00 4.114532e+00 5.394023e+00 4.541140e+00 6.784381e+00 5.534447e+00 8.138753e+00 5.576711e+01 7.476246e+01 6.296022e+01 7.695682e+01 7.504256e+01 8.355212e+01 9.317397e+01 9.322381e+01 7.711521e+01 7.484141e+01 7.348954e+01 7.039163e+01 6.985956e+01 6.975361e+01 7.217080e+01 7.420869e+01 7.609971e+01 7.577631e+01 7.370224e+01 7.012601e+01 6.625519e+01 6.359075e+01 6.229533e+01 6.299829e+01 6.403580e+01 6.550654e+01 6.562083e+01 6.534074e+01 6.385300e+01 6.290484e+01 6.213024e+01 6.266242e+01 6.335711e+01 6.399542e+01 6.330218e+01 6.119087e+01 5.790544e+01 5.431225e+01 5.190066e+01 5.121268e+01 5.317348e+01 5.633190e+01 6.030677e+01 6.227727e+01 6.274046e+01 6.023965e+01 5.394383e+01 4.461235e+01 3.985900e+01 3.621398e+01 3.493408e+01 3.738830e+01 3.863816e+01 3.860661e+01 3.669482e+01 2.955523e+01 3.047499e+01 3.210904e+01 3.411151e+01 3.970467e+01 4.002818e+01 3.815761e+01 3.453519e+01 3.060002e+01 2.775920e+01 2.672473e+01 2.775517e+01 2.990416e+01 3.240167e+01 3.387643e+01 3.381455e+01 3.209252e+01 2.955809e+01 2.740559e+01 2.613240e+01 2.612442e+01 2.624256e+01 2.649138e+01 2.546950e+01 2.420764e+01 2.201897e+01 2.108093e+01 2.070664e+01 2.232390e+01 2.371441e+01 2.509412e+01 2.434516e+01 2.239945e+01 1.886304e+01 1.532032e+01 1.253496e+01 1.127805e+01 1.200940e+01 1.314438e+01 1.465250e+01 1.409641e+01 1.347977e+01 1.118049e+01 1.069347e+01 9.760783e+00 1.104633e+01 1.137557e+01 1.315093e+01 1.279320e+01 1.300232e+01 1.113781e+01 1.033924e+01 8.246153e+00 8.157318e+00 6.994772e+00 5.824361e-01 0 0 0 0 
0 0 0 0 0 9.793797e-02 3.158850e-01 1.829568e-01 2.398038e-01 2.019262e-01 3.016259e-01 2.457360e-01 3.617162e-01 6.214073e+01 6.803335e+01 6.374044e+01 6.641024e+01 6.574235e+01 6.432050e+01 6.752778e+01 6.184798e+01 3.440356e+00 3.338725e+00 3.278321e+00 3.139882e+00 3.116094e+00 3.111363e+00 3.219373e+00 3.310437e+00 3.394959e+00 3.380509e+00 3.287821e+00 3.128054e+00 2.955103e+00 2.836090e+00 2.778227e+00 2.809609e+00 2.855946e+00 2.921632e+00 2.926731e+00 2.914215e+00 2.847764e+00 2.805416e+00 2.770822e+00 2.794589e+00 2.825620e+00 2.854131e+00 2.823171e+00 2.728874e+00 2.582170e+00 2.421728e+00 2.314069e+00 2.283358e+00 2.370890e+00 2.511910e+00 2.689418e+00 1.937218e+00 3.360345e+00 5.350479e-01 1.132878e+00 4.695448e+00 1.425191e+01 2.404234e+01 2.613041e+01 2.069206e+01 1.647975e+01 1.854620e+01 2.365213e+01 2.690343e+01 2.378067e+01 1.211757e+01 5.425297e+00 2.360483e+00 1.784374e+00 1.700841e+00 1.539230e+00 1.363684e+00 1.236996e+00 1.190883e+00 1.236829e+00 1.332668e+00 1.444059e+00 1.509814e+00 1.507058e+00 1.430259e+00 1.317217e+00 1.221246e+00 1.164474e+00 1.164113e+00 1.169384e+00 1.180473e+00 1.134902e+00 1.078641e+00 9.810702e-01 9.392548e-01 9.225756e-01 9.946824e-01 1.056686e+00 1.118230e+00 1.084854e+00 9.981257e-01 8.405105e-01 6.825571e-01 5.584279e-01 5.024125e-01 5.350091e-01 5.856210e-01 6.528203e-01 6.280101e-01 6.005168e-01 4.980316e-01 4.763051e-01 4.347468e-01 4.920396e-01 5.067440e-01 5.859247e-01 5.700811e-01 5.795528e-01 4.967585e-01 4.617851e-01 3.701881e-01 3.656749e-01 3.123388e-01 2.592698e-02 0 0 0 0 
0 0 0 0 0 0 0 0 0 0 0 0 0 6.790595e+01 7.392451e+01 6.955419e+01 7.184871e+01 7.175338e+01 6.934723e+01 7.390602e+01 6.716884e+01 0 0 0 0 0 0 0 0 0 0 0 0 0 0 0 0 0 0 0 0 0 0 0 0 0 0 0 0 0 0 0 0 0 0 0 1.241387e+00 7.274188e+00 1.173274e+01 1.036797e+01 7.391755e+00 5.023413e+00 5.085651e+00 6.222444e+00 8.459838e+00 1.081069e+01 1.022756e+01 4.966077e+00 2.821365e+00 7.510637e+00 7.601064e+00 4.425846e+00 1.016622e+00 0 0 0 0 0 0 0 0 0 0 0 0 0 0 0 0 0 0 0 0 0 0 0 0 0 0 0 0 0 0 0 0 0 0 0 0 0 0 0 0 0 0 0 0 0 0 0 0 0 0 0 0 0 0 0 
0 0 0 0 0 0 0 0 0 0 0 0 0 6.706517e+01 6.955268e+01 6.737568e+01 6.846082e+01 6.816838e+01 6.750260e+01 6.913887e+01 6.698723e+01 0 0 0 0 0 0 0 0 0 0 0 0 0 0 0 0 0 0 0 0 0 0 0 0 0 0 0 0 0 0 0 0 0 0 0 2.980559e-02 1.722581e+00 4.537335e+00 3.407148e+00 2.108143e+00 1.458885e+00 2.751802e+00 2.565602e+00 5.126010e-01 1.549774e+00 3.644499e-01 2.520105e+00 7.049813e+00 7.595007e+00 6.148005e+00 2.314920e+00 2.768272e-01 0 0 0 0 0 0 0 0 0 0 0 0 0 0 0 0 0 0 0 0 0 0 0 0 0 0 0 0 0 0 0 0 0 0 0 0 0 0 0 0 0 0 0 0 0 0 0 0 0 0 0 0 0 0 0 
0 0 0 0 0 0 0 0 0 0 0 0 0 7.096471e+01 7.410471e+01 7.159629e+01 7.273921e+01 7.280093e+01 7.136993e+01 7.406581e+01 7.052945e+01 0 0 0 0 0 0 0 0 0 0 0 0 0 0 0 0 0 0 0 0 0 0 0 0 0 0 0 0 0 0 0 0 0 0 0 0 0 0 0 0 0 0 0 0 0 0 0 0 0 0 0 0 0 0 0 0 0 0 0 0 0 0 0 0 0 0 0 0 0 0 0 0 0 0 0 0 0 0 0 0 0 0 0 0 0 0 0 0 0 0 0 0 0 0 0 0 0 0 0 0 0 0 0 0 0 0 0 
0 0 0 0 0 0 0 0 0 0 0 0 0 6.707758e+01 6.955836e+01 6.737562e+01 6.845822e+01 6.815363e+01 6.751238e+01 6.910275e+01 6.702353e+01 0 0 0 0 0 0 0 0 0 0 0 0 0 0 0 0 0 0 0 0 0 0 0 0 0 0 0 0 0 0 0 0 0 0 0 0 0 0 0 0 0 0 0 0 0 0 0 0 0 0 0 0 0 0 0 0 0 0 0 0 0 0 0 0 0 0 0 0 0 0 0 0 0 0 0 0 0 0 0 0 0 0 0 0 0 0 0 0 0 0 0 0 0 0 0 0 0 0 0 0 0 0 0 0 0 0 0 
0 0 0 0 0 0 0 0 0 0 0 0 0 6.791461e+01 7.386118e+01 6.957523e+01 7.183795e+01 7.181693e+01 6.949056e+01 7.398929e+01 6.741591e+01 0 0 0 0 0 0 0 0 0 0 0 0 0 0 0 0 0 0 0 0 0 0 0 0 0 0 0 0 0 0 0 0 0 0 0 0 0 0 0 0 0 0 0 0 0 0 0 0 0 0 0 0 0 0 0 0 0 0 0 0 0 0 0 0 0 0 0 0 0 0 0 0 0 0 0 0 0 0 0 0 0 0 0 0 0 0 0 0 0 0 0 0 0 0 0 0 0 0 0 0 0 0 0 0 0 0 0 
0 0 0 0 0 9.884173e-02 3.211265e-01 2.002712e-01 2.671018e-01 2.258521e-01 3.105954e-01 2.470252e-01 3.347984e-01 6.218311e+01 6.802626e+01 6.374270e+01 6.632891e+01 6.570730e+01 6.429424e+01 6.782651e+01 6.241821e+01 3.372603e+00 3.355264e+00 3.406293e+00 3.333485e+00 3.272864e+00 3.123608e+00 3.042737e+00 2.981589e+00 3.023335e+00 3.088324e+00 3.176181e+00 3.223219e+00 3.214718e+00 3.148615e+00 3.033385e+00 2.928618e+00 2.836294e+00 2.799663e+00 2.764910e+00 2.755078e+00 2.720213e+00 2.705973e+00 2.681296e+00 2.689537e+00 2.699572e+00 2.728040e+00 2.726057e+00 2.682224e+00 2.575998e+00 2.440405e+00 2.321469e+00 2.261299e+00 2.282342e+00 2.360006e+00 2.461577e+00 2.516489e+00 2.489382e+00 2.353117e+00 2.159648e+00 1.966237e+00 1.854922e+00 1.843478e+00 1.926193e+00 2.040979e+00 2.126510e+00 2.119427e+00 2.001950e+00 1.799491e+00 1.583518e+00 1.421881e+00 1.362229e+00 1.398768e+00 1.511500e+00 1.641894e+00 1.756149e+00 1.799441e+00 1.778712e+00 1.689660e+00 1.583891e+00 1.465490e+00 1.366257e+00 1.274259e+00 1.209970e+00 1.168318e+00 1.154033e+00 1.165094e+00 1.189774e+00 1.236620e+00 1.262257e+00 1.271294e+00 1.203625e+00 1.113585e+00 9.737213e-01 8.790598e-01 7.884412e-01 7.798188e-01 7.800100e-01 8.343998e-01 8.530551e-01 8.684633e-01 8.343830e-01 8.032591e-01 7.734857e-01 7.605548e-01 7.703648e-01 7.667009e-01 7.827880e-01 7.359040e-01 6.999550e-01 5.735199e-01 5.001146e-01 3.704943e-01 3.450375e-01 2.758986e-01 2.999245e-01 2.758228e-01 3.026045e-01 2.776243e-01 2.502172e-01 2.170962e-01 1.506578e-01 2.296071e-01 2.176844e-02 0 0 0 0 
0 0 0 0 0 2.222104e+00 7.214964e+00 4.505158e+00 6.007115e+00 5.078591e+00 6.986230e+00 5.563960e+00 7.535277e+00 5.599740e+01 7.465392e+01 6.290039e+01 7.674836e+01 7.547523e+01 8.427551e+01 9.450242e+01 9.383760e+01 7.559865e+01 7.521097e+01 7.635327e+01 7.472460e+01 7.336806e+01 7.002770e+01 6.821764e+01 6.684867e+01 6.778297e+01 6.923767e+01 7.120381e+01 7.225668e+01 7.206641e+01 7.058677e+01 6.800783e+01 6.566248e+01 6.359578e+01 6.277575e+01 6.199771e+01 6.177765e+01 6.099705e+01 6.067825e+01 6.012568e+01 6.031024e+01 6.053495e+01 6.117240e+01 6.112799e+01 6.014649e+01 5.776751e+01 5.473079e+01 5.206663e+01 5.071881e+01 5.119025e+01 5.292994e+01 5.520512e+01 5.643503e+01 5.582787e+01 5.277563e+01 4.844126e+01 4.410759e+01 4.161309e+01 4.135658e+01 4.321028e+01 4.578249e+01 4.769899e+01 4.754024e+01 4.490775e+01 4.037024e+01 3.552910e+01 3.190525e+01 3.056773e+01 3.138700e+01 3.391446e+01 3.683775e+01 3.939884e+01 4.036927e+01 3.990470e+01 3.790857e+01 3.553773e+01 3.288318e+01 3.065841e+01 2.859538e+01 2.715379e+01 2.621960e+01 2.589919e+01 2.614723e+01 2.670063e+01 2.775122e+01 2.832607e+01 2.852865e+01 2.701103e+01 2.499143e+01 2.185404e+01 1.973045e+01 1.769715e+01 1.750363e+01 1.750777e+01 1.872780e+01 1.914625e+01 1.949178e+01 1.872689e+01 1.802870e+01 1.736052e+01 1.707044e+01 1.729072e+01 1.720860e+01 1.756984e+01 1.651825e+01 1.571166e+01 1.287462e+01 1.122711e+01 8.317259e+00 7.745242e+00 6.191991e+00 6.729968e+00 6.187270e+00 6.785164e+00 6.219656e+00 5.588876e+00 4.813569e+00 3.298567e+00 5.133755e+00 4.890185e-01 0 0 0 0 
0 0 0 0 0 3.217495e+00 1.044580e+01 6.523971e+00 8.698585e+00 7.353828e+00 1.011663e+01 8.058994e+00 1.091287e+01 1.552641e+01 2.413172e+01 3.118388e+01 4.618100e+01 6.037591e+01 7.404683e+01 8.710270e+01 1.066971e+02 1.094067e+02 1.088459e+02 1.104987e+02 1.081425e+02 1.061799e+02 1.013471e+02 9.872822e+01 9.674745e+01 9.809922e+01 1.002039e+02 1.030485e+02 1.045719e+02 1.042966e+02 1.021558e+02 9.842454e+01 9.503111e+01 9.204087e+01 9.085440e+01 8.972866e+01 8.941027e+01 8.828082e+01 8.781955e+01 8.702001e+01 8.728706e+01 8.761221e+01 8.853456e+01 8.847030e+01 8.705012e+01 8.360780e+01 7.921372e+01 7.535861e+01 7.340828e+01 7.409048e+01 7.660786e+01 7.990011e+01 8.167980e+01 8.080122e+01 7.638458e+01 7.011246e+01 6.384119e+01 6.023130e+01 5.986009e+01 6.254266e+01 6.626499e+01 6.903836e+01 6.880863e+01 6.499909e+01 5.843257e+01 5.142645e+01 4.618182e+01 4.424606e+01 4.543176e+01 4.908966e+01 5.332036e+01 5.702678e+01 5.843120e+01 5.775889e+01 5.487008e+01 5.143901e+01 4.759719e+01 4.437740e+01 4.139155e+01 3.930514e+01 3.795304e+01 3.748929e+01 3.784828e+01 3.864922e+01 4.016976e+01 4.100173e+01 4.129490e+01 3.909840e+01 3.617530e+01 3.163427e+01 2.856057e+01 2.561746e+01 2.533733e+01 2.534328e+01 2.710914e+01 2.771479e+01 2.821487e+01 2.710768e+01 2.609713e+01 2.512992e+01 2.471007e+01 2.502895e+01 2.491011e+01 2.543307e+01 2.391102e+01 2.274354e+01 1.863700e+01 1.625218e+01 1.203994e+01 1.121176e+01 8.963005e+00 9.741420e+00 8.955403e+00 9.820060e+00 9.000243e+00 8.083204e+00 6.952909e+00 4.753736e+00 7.426291e+00 7.079813e-01 0 0 0 0 
0 0 0 0 0 1.094233e+00 3.551957e+00 2.219084e+00 2.958571e+00 2.501089e+00 3.440992e+00 2.742060e+00 3.712394e+00 5.278409e+00 8.202516e+00 1.059986e+01 1.569774e+01 2.052170e+01 2.516752e+01 2.960335e+01 3.626006e+01 3.718066e+01 3.699020e+01 3.755168e+01 3.675137e+01 3.608470e+01 3.444296e+01 3.355331e+01 3.288038e+01 3.333958e+01 3.405459e+01 3.502090e+01 3.553840e+01 3.544488e+01 3.471761e+01 3.345009e+01 3.229724e+01 3.128139e+01 3.087831e+01 3.049586e+01 3.038770e+01 3.000398e+01 2.984727e+01 2.957563e+01 2.966636e+01 2.977683e+01 3.009020e+01 3.006837e+01 2.958586e+01 2.841629e+01 2.692334e+01 2.561345e+01 2.495077e+01 2.518257e+01 2.603793e+01 2.715657e+01 2.776126e+01 2.746274e+01 2.596206e+01 2.383084e+01 2.169983e+01 2.047314e+01 2.034699e+01 2.125858e+01 2.252348e+01 2.346589e+01 2.338782e+01 2.209329e+01 1.986182e+01 1.748087e+01 1.569845e+01 1.504056e+01 1.544353e+01 1.668669e+01 1.812450e+01 1.938409e+01 1.986137e+01 1.963290e+01 1.865117e+01 1.748517e+01 1.617950e+01 1.508524e+01 1.407043e+01 1.336132e+01 1.290176e+01 1.274413e+01 1.286615e+01 1.313836e+01 1.365516e+01 1.393792e+01 1.403755e+01 1.329100e+01 1.229745e+01 1.075395e+01 9.709182e+00 8.708746e+00 8.613519e+00 8.615522e+00 9.215736e+00 9.421595e+00 9.591558e+00 9.215173e+00 8.871682e+00 8.542890e+00 8.400182e+00 8.508595e+00 8.468209e+00 8.646010e+00 8.128678e+00 7.731827e+00 6.335905e+00 5.525193e+00 4.093172e+00 3.811553e+00 3.046912e+00 3.311377e+00 3.043956e+00 3.337501e+00 3.058211e+00 2.744545e+00 2.356437e+00 1.605827e+00 2.522143e+00 2.407312e-01 0 0 0 0 
0 0 0 0 0 0 0 0 0 0 0 0 0 0 0 0 0 0 0 0 0 0 0 0 0 0 0 0 0 0 0 0 0 0 0 0 0 0 0 0 0 0 0 0 0 0 0 0 0 0 0 0 0 0 0 0 0 0 0 0 0 0 0 0 0 0 0 0 0 0 0 0 0 0 0 0 0 0 0 0 0 0 0 0 0 0 0 0 0 0 0 0 0 0 0 0 0 0 0 0 0 0 0 0 0 0 0 0 0 0 0 0 0 0 0 0 0 0 0 0 0 0 0 0 0 0 0 0 
