# vtk DataFile Version 2.0
Comment goes here
ASCII

DATASET STRUCTURED_POINTS
FIELD FieldData 1
TIME 1 1 double
0.37000000
DIMENSIONS    128   16   1

ORIGIN    0.000   0.000   0.000
SPACING   0.0078125 0.015625   1.000

POINT_DATA   2048
SCALARS fMag double
LOOKUP_TABLE default

0 0 0 0 0 0 0 0 0 0 0 0 0 0 0 0 0 0 0 0 0 0 0 0 0 0 0 0 0 0 0 0 0 0 0 0 0 0 0 0 0 0 0 0 0 0 0 0 0 0 0 0 0 0 0 0 0 0 0 0 0 0 0 0 0 0 0 0 0 0 0 0 0 0 0 0 0 0 0 0 0 0 0 0 0 0 0 0 0 0 0 0 0 0 0 0 0 0 0 0 0 0 0 0 0 0 0 0 0 0 0 0 0 0 0 0 0 0 0 0 0 0 0 0 0 0 0 0 
0 0 0 0 0 0 0 0 0 0 0 0 0 0 0 0 0 0 0 0 0 0 0 0 0 0 0 0 0 0 0 0 0 0 0 0 0 0 0 0 0 0 0 0 0 0 0 0 0 0 0 0 0 0 0 0 0 0 0 0 0 0 0 0 0 0 0 0 0 0 0 0 0 0 0 0 0 0 0 0 0 0 0 0 0 0 0 0 0 0 0 0 0 0 0 0 0 0 0 0 0 0 0 0 0 0 0 0 0 0 0 0 0 0 0 0 0 0 0 0 0 0 0 0 0 0 0 0 
0 0 0 0 0 1.990532e+00 1.644346e+00 1.313131e+00 2.090905e+00 1.643574e+00 2.222721e+00 1.801001e+00 2.396259e+00 4.035011e+00 5.710303e+00 6.862498e+00 8.466465e+00 1.117338e+01 1.355654e+01 1.738239e+01 2.545676e+01 2.910098e+01 2.851354e+01 2.145755e+01 9.188712e+00 4.312256e+00 9.163295e+00 4.284062e+00 9.966752e+00 2.673170e+01 3.823542e+01 4.060084e+01 3.346750e+01 2.084822e+01 8.009816e+00 2.284261e+00 3.766590e+00 1.053820e+01 2.023904e+01 2.640672e+01 2.603181e+01 1.928467e+01 1.120526e+01 8.668368e+00 9.822719e+00 1.536162e+01 2.620622e+01 3.599185e+01 3.890656e+01 3.411113e+01 2.465744e+01 1.562287e+01 1.153178e+01 1.093735e+01 1.012425e+01 1.167404e+01 1.393193e+01 1.359377e+01 1.189290e+01 1.246873e+01 2.764215e+01 3.684447e+01 3.684306e+01 3.342605e+01 2.748828e+01 2.858693e+01 4.690860e+01 6.378254e+01 7.654933e+01 7.526588e+01 3.395082e+01 4.261911e+01 3.986343e+01 2.748385e+01 2.672449e+01 2.432591e+01 2.164376e+01 1.842159e+01 1.484173e+01 1.120657e+01 7.734774e+00 3.963327e+00 2.665812e+00 4.647380e+00 8.244229e+00 1.114086e+01 1.356635e+01 1.365788e+01 1.350775e+01 1.260950e+01 1.184070e+01 1.191110e+01 1.222651e+01 1.324873e+01 1.517331e+01 1.593785e+01 1.451687e+01 1.133021e+01 8.325292e+00 7.688905e+00 8.011027e+00 9.058291e+00 1.047051e+01 1.258738e+01 1.419158e+01 1.487293e+01 1.383530e+01 1.453725e+01 1.657331e+01 1.875757e+01 1.967787e+01 1.978372e+01 1.994528e+01 2.051639e+01 2.071820e+01 2.097360e+01 2.080871e+01 2.021804e+01 1.822876e+01 1.609985e+01 1.339028e+01 9.527406e+00 5.315575e+00 8.127996e-01 0 0 0 0 
0 0 0 0 0 5.853086e+00 4.822015e+00 3.859973e+00 6.144024e+00 4.833432e+00 6.537064e+00 5.296860e+00 7.047634e+00 1.186870e+01 1.679674e+01 2.018644e+01 2.490493e+01 3.286892e+01 3.988011e+01 5.113790e+01 7.489864e+01 8.562331e+01 8.389476e+01 6.313181e+01 2.703225e+01 1.268085e+01 2.694791e+01 1.259825e+01 2.932385e+01 7.865440e+01 1.125124e+02 1.194755e+02 9.847804e+01 6.133859e+01 2.356379e+01 6.718720e+00 1.107912e+01 3.100105e+01 5.954359e+01 7.769298e+01 7.658962e+01 5.673486e+01 3.296175e+01 2.549625e+01 2.889226e+01 4.519044e+01 7.710408e+01 1.059054e+02 1.144850e+02 1.003695e+02 7.254485e+01 4.595826e+01 3.391921e+01 3.216974e+01 2.977861e+01 3.434039e+01 4.284918e+01 4.414475e+01 3.946593e+01 4.867172e+01 6.305628e+01 6.552979e+01 6.210353e+01 5.072613e+01 4.188826e+01 4.720578e+01 7.779556e+01 1.255274e+02 1.628145e+02 1.695462e+02 1.107495e+02 1.072569e+02 1.152084e+02 8.084569e+01 7.861114e+01 7.155649e+01 6.366694e+01 5.418713e+01 4.365608e+01 3.296202e+01 2.275022e+01 1.165715e+01 7.841277e+00 1.367016e+01 2.425057e+01 3.277175e+01 3.990715e+01 4.017595e+01 3.973376e+01 3.709063e+01 3.482831e+01 3.503515e+01 3.596387e+01 3.897219e+01 4.463574e+01 4.688553e+01 4.270463e+01 3.332972e+01 2.448862e+01 2.261567e+01 2.356269e+01 2.664359e+01 3.079841e+01 3.702653e+01 4.174612e+01 4.375068e+01 4.069630e+01 4.275802e+01 4.874367e+01 5.516703e+01 5.787415e+01 5.818840e+01 5.866656e+01 6.034845e+01 6.094204e+01 6.169186e+01 6.120501e+01 5.946617e+01 5.361584e+01 4.735416e+01 3.938780e+01 2.802936e+01 1.564017e+01 2.391295e+00 0 0 0 0 
0 0 0 0 0 4.042376e+00 3.323917e+00 2.665299e+00 4.241277e+00 3.338436e+00 4.515358e+00 3.658748e+00 4.868118e+00 2.558233e+01 4.029427e+01 3.020134e+01 3.599196e+01 4.079686e+01 4.165671e+01 5.389272e+01 5.249829e+01 5.916057e+01 5.796618e+01 4.361915e+01 1.867595e+01 8.758297e+00 1.861304e+01 8.701399e+00 2.026047e+01 5.434653e+01 7.774563e+01 8.255838e+01 6.804590e+01 4.237994e+01 1.627954e+01 4.641156e+00 7.653428e+00 2.141729e+01 4.113843e+01 5.367971e+01 5.291722e+01 3.919743e+01 2.277106e+01 1.761225e+01 1.995848e+01 3.122011e+01 5.327331e+01 7.317773e+01 7.910760e+01 6.935172e+01 5.012206e+01 3.175022e+01 2.343103e+01 2.222202e+01 2.057049e+01 2.372330e+01 3.328073e+01 4.684951e+01 5.490597e+01 5.277286e+01 2.755892e+01 1.578672e+01 1.350154e+01 4.107029e+01 5.995517e+01 4.259365e+01 4.128253e+01 6.714017e+01 5.546352e+01 4.477249e+01 2.657389e+01 5.841203e+01 7.767134e+01 5.585005e+01 5.430596e+01 4.943289e+01 4.398272e+01 3.743307e+01 3.015768e+01 2.276952e+01 1.571532e+01 8.052418e+00 5.416740e+00 9.443440e+00 1.675264e+01 2.263952e+01 2.756914e+01 2.775461e+01 2.744888e+01 2.562251e+01 2.405926e+01 2.420201e+01 2.484404e+01 2.692293e+01 3.083653e+01 3.239115e+01 2.950242e+01 2.302547e+01 1.691690e+01 1.562256e+01 1.627652e+01 1.840502e+01 2.127558e+01 2.557870e+01 2.883944e+01 3.022439e+01 2.811334e+01 2.953611e+01 3.366941e+01 3.810594e+01 3.997608e+01 4.019457e+01 4.052631e+01 4.168914e+01 4.209918e+01 4.261646e+01 4.227925e+01 4.107737e+01 3.703644e+01 3.271106e+01 2.720968e+01 1.936517e+01 1.080654e+01 1.652148e+00 0 0 0 0 
0 0 0 0 0 1.798224e-01 1.462470e-01 1.184579e-01 1.881572e-01 1.485779e-01 2.010147e-01 1.628901e-01 2.167425e-01 3.253748e+01 3.578178e+01 3.344988e+01 3.476425e+01 3.490504e+01 3.463244e+01 3.605518e+01 3.377926e+01 2.638238e+00 2.584959e+00 1.944886e+00 8.324095e-01 3.897075e-01 8.284295e-01 3.872138e-01 9.033650e-01 2.423829e+00 3.468633e+00 3.683672e+00 3.035361e+00 1.889572e+00 7.255667e-01 2.066969e-01 3.409004e-01 9.544411e-01 1.833886e+00 2.393447e+00 2.359410e+00 1.747242e+00 1.014567e+00 7.843599e-01 8.889368e-01 1.391290e+00 2.375450e+00 3.264211e+00 3.529117e+00 3.093318e+00 2.234641e+00 1.414823e+00 1.043598e+00 9.896236e-01 9.161278e-01 1.056953e+00 6.769650e+00 1.646949e+01 2.531964e+01 1.109080e+01 1.491873e+01 2.729455e+01 9.965438e+00 2.286350e+01 4.447898e+01 2.698068e+01 3.875867e+01 1.079836e+02 1.460879e+02 1.319063e+02 6.693656e+01 1.221780e+01 3.763844e+00 2.488202e+00 2.419306e+00 2.202317e+00 1.959530e+00 1.667538e+00 1.343332e+00 1.014059e+00 6.998736e-01 3.585925e-01 2.412748e-01 4.206643e-01 7.463028e-01 1.008636e+00 1.228339e+00 1.236547e+00 1.222859e+00 1.141382e+00 1.071637e+00 1.077963e+00 1.106680e+00 1.199470e+00 1.374102e+00 1.443468e+00 1.314650e+00 1.025955e+00 7.535716e-01 6.957877e-01 7.248573e-01 8.197220e-01 9.476913e-01 1.139549e+00 1.284908e+00 1.346649e+00 1.252342e+00 1.315342e+00 1.499049e+00 1.696482e+00 1.779797e+00 1.789887e+00 1.805026e+00 1.857072e+00 1.875333e+00 1.898198e+00 1.882950e+00 1.829240e+00 1.649367e+00 1.456747e+00 1.212151e+00 8.632179e-01 4.819429e-01 7.365320e-02 0 0 0 0 
0 0 0 0 0 0 0 0 0 0 0 0 0 3.406826e+01 3.774648e+01 3.493716e+01 3.591390e+01 3.651170e+01 3.485736e+01 3.772574e+01 3.449789e+01 0 0 0 0 0 0 0 0 0 0 0 0 0 0 0 0 0 0 0 0 0 0 0 0 0 0 0 0 0 0 0 0 0 0 0 4.367117e-01 1.518448e+01 2.160034e+01 2.219355e+01 9.341625e+00 6.217836e+00 7.616344e+00 2.816862e+01 4.712476e+01 4.867133e+01 3.371678e+01 1.614576e+01 2.444275e+01 3.290692e+01 2.639073e+01 2.063388e+01 3.327170e+00 0 0 0 0 0 0 0 0 0 0 0 0 0 0 0 0 0 0 0 0 0 0 0 0 0 0 0 0 0 0 0 0 0 0 0 0 0 0 0 0 0 0 0 0 0 0 0 0 0 0 0 0 0 0 0 
0 0 0 0 0 0 0 0 0 0 0 0 0 3.413899e+01 3.502571e+01 3.442993e+01 3.463647e+01 3.499785e+01 3.438728e+01 3.555178e+01 3.424077e+01 0 0 0 0 0 0 0 0 0 0 0 0 0 0 0 0 0 0 0 0 0 0 0 0 0 0 0 0 0 0 0 0 0 0 0 1.883240e+00 1.513329e+01 2.031632e+01 1.714064e+01 9.280692e+00 2.444502e+00 1.008409e+01 2.504945e+01 3.769884e+01 3.607781e+01 1.653427e+01 8.525338e+00 2.764317e+01 3.191806e+01 2.028915e+01 1.184839e+01 3.392700e+00 0 0 0 0 0 0 0 0 0 0 0 0 0 0 0 0 0 0 0 0 0 0 0 0 0 0 0 0 0 0 0 0 0 0 0 0 0 0 0 0 0 0 0 0 0 0 0 0 0 0 0 0 0 0 0 
0 0 0 0 0 0 0 0 0 0 0 0 0 3.528548e+01 3.671597e+01 3.574109e+01 3.601335e+01 3.659972e+01 3.556658e+01 3.768765e+01 3.581744e+01 0 0 0 0 0 0 0 0 0 0 0 0 0 0 0 0 0 0 0 0 0 0 0 0 0 0 0 0 0 0 0 0 0 0 0 0 0 0 0 0 0 0 0 0 0 0 0 0 0 0 0 0 0 0 0 0 0 0 0 0 0 0 0 0 0 0 0 0 0 0 0 0 0 0 0 0 0 0 0 0 0 0 0 0 0 0 0 0 0 0 0 0 0 0 0 0 0 0 0 0 0 0 0 0 0 0 0 
0 0 0 0 0 0 0 0 0 0 0 0 0 3.353981e+01 3.402054e+01 3.388676e+01 3.361452e+01 3.456795e+01 3.344680e+01 3.557371e+01 3.408107e+01 0 0 0 0 0 0 0 0 0 0 0 0 0 0 0 0 0 0 0 0 0 0 0 0 0 0 0 0 0 0 0 0 0 0 0 0 0 0 0 0 0 0 0 0 0 0 0 0 0 0 0 0 0 0 0 0 0 0 0 0 0 0 0 0 0 0 0 0 0 0 0 0 0 0 0 0 0 0 0 0 0 0 0 0 0 0 0 0 0 0 0 0 0 0 0 0 0 0 0 0 0 0 0 0 0 0 0 
0 0 0 0 0 0 0 0 0 0 0 0 0 3.367049e+01 3.661031e+01 3.440333e+01 3.456403e+01 3.522378e+01 3.299004e+01 3.683503e+01 3.389707e+01 0 0 0 0 0 0 0 0 0 0 0 0 0 0 0 0 0 0 0 0 0 0 0 0 0 0 0 0 0 0 0 0 0 0 0 0 0 0 0 0 0 0 0 0 0 0 0 0 0 0 0 0 0 0 0 0 0 0 0 0 0 0 0 0 0 0 0 0 0 0 0 0 0 0 0 0 0 0 0 0 0 0 0 0 0 0 0 0 0 0 0 0 0 0 0 0 0 0 0 0 0 0 0 0 0 0 0 
0 0 0 0 0 1.820029e-01 1.703485e-01 6.587158e-02 1.929344e-01 1.772718e-01 2.399887e-01 2.115183e-01 1.990406e-01 3.062304e+01 3.281962e+01 3.168770e+01 3.121587e+01 3.240960e+01 2.918574e+01 3.268330e+01 2.907703e+01 9.827816e-01 7.254774e-01 9.883312e-01 1.648185e+00 2.461944e+00 2.957380e+00 3.036883e+00 2.628813e+00 2.028725e+00 1.433432e+00 1.135172e+00 1.071955e+00 1.161948e+00 1.257707e+00 1.318384e+00 1.297121e+00 1.293112e+00 1.411861e+00 1.722742e+00 2.156735e+00 2.488134e+00 2.545770e+00 2.255251e+00 1.736526e+00 1.089455e+00 5.513797e-01 3.300983e-01 3.138977e-01 4.637751e-01 1.059639e+00 1.781541e+00 2.306777e+00 2.393281e+00 2.075310e+00 1.568325e+00 1.195280e+00 1.128120e+00 1.346362e+00 1.715806e+00 1.923780e+00 1.739274e+00 1.198103e+00 7.241386e-01 7.377370e-01 7.302243e-01 4.293872e-01 7.527740e-01 1.552042e+00 2.123925e+00 2.189533e+00 1.745544e+00 9.459570e-01 1.323505e-01 4.280578e-01 5.560586e-01 3.446473e-01 3.406999e-01 7.494048e-01 1.060327e+00 1.255914e+00 1.400161e+00 1.587908e+00 1.776499e+00 1.937367e+00 1.946918e+00 1.779999e+00 1.381652e+00 8.999834e-01 7.748443e-01 1.054852e+00 1.096712e+00 6.616080e-01 4.637523e-01 1.175790e+00 1.693788e+00 1.855871e+00 1.854144e+00 1.917237e+00 2.083572e+00 2.256640e+00 2.420986e+00 2.505029e+00 2.488020e+00 2.382471e+00 2.342942e+00 2.353509e+00 2.313225e+00 2.104350e+00 1.756248e+00 1.579941e+00 1.842099e+00 2.110592e+00 2.071809e+00 1.592937e+00 8.977287e-01 3.579157e-01 6.550556e-01 9.212531e-01 9.470971e-01 6.322997e-01 3.069013e-01 1.141950e-01 5.015766e-02 0 0 0 0 
0 0 0 0 0 4.091289e+00 3.865008e+00 1.534735e+00 4.359612e+00 3.986169e+00 5.391350e+00 4.751551e+00 4.472447e+00 2.983260e+01 4.466216e+01 3.154341e+01 3.379846e+01 3.283428e+01 3.498111e+01 4.143677e+01 4.966594e+01 2.205109e+01 1.628092e+01 2.217859e+01 3.697020e+01 5.520895e+01 6.630493e+01 6.808515e+01 5.894905e+01 4.550561e+01 3.216421e+01 2.547794e+01 2.406087e+01 2.607950e+01 2.822737e+01 2.958800e+01 2.911115e+01 2.902126e+01 3.168359e+01 3.865104e+01 4.837718e+01 5.580060e+01 5.709123e+01 5.058325e+01 3.895708e+01 2.444860e+01 1.237717e+01 7.412318e+00 7.048670e+00 1.041107e+01 2.377826e+01 3.996593e+01 5.173684e+01 5.367551e+01 4.655153e+01 3.518817e+01 2.682568e+01 2.532034e+01 3.021396e+01 3.849736e+01 4.315927e+01 3.902268e+01 2.688817e+01 1.625820e+01 1.657020e+01 1.640223e+01 9.643880e+00 1.689304e+01 3.482022e+01 4.763935e+01 4.910991e+01 3.915849e+01 2.122558e+01 2.968692e+00 9.616100e+00 1.249102e+01 7.741266e+00 7.648372e+00 1.682182e+01 2.379846e+01 2.818688e+01 3.142313e+01 3.563418e+01 3.986279e+01 4.346880e+01 4.368293e+01 3.994061e+01 3.100798e+01 2.020432e+01 1.740515e+01 2.370037e+01 2.464260e+01 1.486638e+01 1.041026e+01 2.638538e+01 3.800684e+01 4.164577e+01 4.161468e+01 4.304103e+01 4.677913e+01 5.066224e+01 5.434511e+01 5.622904e+01 5.585054e+01 5.349365e+01 5.261986e+01 5.287116e+01 5.197165e+01 4.727656e+01 3.944514e+01 3.546689e+01 4.132755e+01 4.734220e+01 4.646997e+01 3.572928e+01 2.014235e+01 8.032505e+00 1.471875e+01 2.070110e+01 2.128488e+01 1.422441e+01 6.928697e+00 2.552004e+00 1.125332e+00 0 0 0 0 
0 0 0 0 0 5.923881e+00 5.605299e+00 2.235905e+00 6.318121e+00 5.771988e+00 7.805406e+00 6.879074e+00 6.475304e+00 2.058760e+00 8.072054e+00 1.411104e+01 2.021012e+01 3.045178e+01 3.963609e+01 4.160854e+01 4.433824e+01 3.191791e+01 2.356665e+01 3.210322e+01 5.350987e+01 7.990455e+01 9.596028e+01 9.853614e+01 8.531714e+01 6.586372e+01 4.655660e+01 3.688004e+01 3.482924e+01 3.775097e+01 4.085973e+01 4.282898e+01 4.213882e+01 4.200872e+01 4.586178e+01 5.594483e+01 7.002002e+01 8.076194e+01 8.262941e+01 7.321210e+01 5.638699e+01 3.538922e+01 1.791680e+01 1.073044e+01 1.020404e+01 1.507084e+01 3.441858e+01 5.784694e+01 7.488121e+01 7.768677e+01 6.737781e+01 5.093296e+01 3.883061e+01 3.665209e+01 4.373456e+01 5.572287e+01 6.246964e+01 5.648293e+01 3.892083e+01 2.353561e+01 2.398897e+01 2.374599e+01 1.396148e+01 2.445257e+01 5.039970e+01 6.895162e+01 7.107981e+01 5.667828e+01 3.072321e+01 4.296810e+00 1.392179e+01 1.808385e+01 1.120722e+01 1.107166e+01 2.435059e+01 3.444903e+01 4.080105e+01 4.548530e+01 5.158021e+01 5.770020e+01 6.291885e+01 6.322874e+01 5.781266e+01 4.488442e+01 2.924759e+01 2.519813e+01 3.431335e+01 3.567795e+01 2.152387e+01 1.506959e+01 3.819252e+01 5.501375e+01 6.028151e+01 6.023845e+01 6.230574e+01 6.771798e+01 7.333857e+01 7.866817e+01 8.139463e+01 8.084755e+01 7.743897e+01 7.617753e+01 7.654489e+01 7.524399e+01 6.844593e+01 5.710501e+01 5.134099e+01 5.981855e+01 6.852202e+01 6.725900e+01 5.171336e+01 2.915500e+01 1.162713e+01 2.131002e+01 2.997162e+01 3.081762e+01 2.059863e+01 1.003980e+01 3.691317e+00 1.628846e+00 0 0 0 0 
0 0 0 0 0 2.014595e+00 1.910639e+00 7.670409e-01 2.151444e+00 1.963091e+00 2.654045e+00 2.339042e+00 2.201897e+00 6.999166e-01 2.744107e+00 4.797198e+00 6.870554e+00 1.035173e+01 1.347362e+01 1.414402e+01 1.507152e+01 1.084960e+01 8.011202e+00 1.091296e+01 1.818785e+01 2.715754e+01 3.261273e+01 3.348788e+01 2.899690e+01 2.238684e+01 1.582582e+01 1.253728e+01 1.184033e+01 1.283342e+01 1.389007e+01 1.455936e+01 1.432479e+01 1.428057e+01 1.559005e+01 1.901653e+01 2.379958e+01 2.744948e+01 2.808395e+01 2.488410e+01 1.916643e+01 1.203007e+01 6.091010e+00 3.648224e+00 3.469270e+00 5.123546e+00 1.169997e+01 1.966256e+01 2.545115e+01 2.640455e+01 2.290159e+01 1.731311e+01 1.320020e+01 1.245986e+01 1.486697e+01 1.894132e+01 2.123415e+01 1.919953e+01 1.323076e+01 8.001552e+00 8.156508e+00 8.073987e+00 4.746991e+00 8.312305e+00 1.713152e+01 2.343620e+01 2.415943e+01 1.926533e+01 1.044359e+01 1.460468e+00 4.733751e+00 6.148886e+00 3.810598e+00 3.763986e+00 8.278176e+00 1.171090e+01 1.387009e+01 1.546233e+01 1.753394e+01 1.961391e+01 2.138742e+01 2.149273e+01 1.965205e+01 1.525810e+01 9.943256e+00 8.567818e+00 1.166783e+01 1.213206e+01 7.319097e+00 5.123083e+00 1.298293e+01 1.870071e+01 2.049161e+01 2.047791e+01 2.118195e+01 2.302242e+01 2.493297e+01 2.674405e+01 2.767062e+01 2.748504e+01 2.632779e+01 2.590061e+01 2.602724e+01 2.558557e+01 2.327371e+01 1.941611e+01 1.745404e+01 2.033310e+01 2.329042e+01 2.286084e+01 1.757702e+01 9.910380e+00 3.952541e+00 7.246330e+00 1.019178e+01 1.047983e+01 7.006516e+00 3.418000e+00 1.253508e+00 5.536712e-01 0 0 0 0 
0 0 0 0 0 0 0 0 0 0 0 0 0 0 0 0 0 0 0 0 0 0 0 0 0 0 0 0 0 0 0 0 0 0 0 0 0 0 0 0 0 0 0 0 0 0 0 0 0 0 0 0 0 0 0 0 0 0 0 0 0 0 0 0 0 0 0 0 0 0 0 0 0 0 0 0 0 0 0 0 0 0 0 0 0 0 0 0 0 0 0 0 0 0 0 0 0 0 0 0 0 0 0 0 0 0 0 0 0 0 0 0 0 0 0 0 0 0 0 0 0 0 0 0 0 0 0 0 
