# vtk DataFile Version 2.0
Comment goes here
ASCII

DATASET STRUCTURED_POINTS
FIELD FieldData 1
TIME 1 1 double
0.58000000
DIMENSIONS    128   16   1

ORIGIN    0.000   0.000   0.000
SPACING   0.0078125 0.015625   1.000

POINT_DATA   2048
SCALARS fMag double
LOOKUP_TABLE default

0 0 0 0 0 0 0 0 0 0 0 0 0 0 0 0 0 0 0 0 0 0 0 0 0 0 0 0 0 0 0 0 0 0 0 0 0 0 0 0 0 0 0 0 0 0 0 0 0 0 0 0 0 0 0 0 0 0 0 0 0 0 0 0 0 0 0 0 0 0 0 0 0 0 0 0 0 0 0 0 0 0 0 0 0 0 0 0 0 0 0 0 0 0 0 0 0 0 0 0 0 0 0 0 0 0 0 0 0 0 0 0 0 0 0 0 0 0 0 0 0 0 0 0 0 0 0 0 
0 0 0 0 0 0 0 0 0 0 0 0 0 0 0 0 0 0 0 0 0 0 0 0 0 0 0 0 0 0 0 0 0 0 0 0 0 0 0 0 0 0 0 0 0 0 0 0 0 0 0 0 0 0 0 0 0 0 0 0 0 0 0 0 0 0 0 0 0 0 0 0 0 0 0 0 0 0 0 0 0 0 0 0 0 0 0 0 0 0 0 0 0 0 0 0 0 0 0 0 0 0 0 0 0 0 0 0 0 0 0 0 0 0 0 0 0 0 0 0 0 0 0 0 0 0 0 0 
0 0 0 0 0 1.687449e+00 6.390421e-01 1.407544e+00 6.254442e-01 9.159923e-01 6.399564e-01 9.175885e-01 2.904172e-01 1.879354e-01 8.727686e-01 7.843768e-01 2.351519e+00 2.759494e+00 3.411405e+00 4.478233e+00 4.355276e+00 4.755849e+00 5.482954e+00 6.956330e+00 8.513905e+00 9.221249e+00 8.618793e+00 6.482890e+00 3.982413e+00 1.905507e+00 1.566717e+00 2.224436e+00 4.202239e+00 6.593234e+00 8.499300e+00 8.600664e+00 7.166946e+00 4.865067e+00 3.270129e+00 2.916372e+00 3.753571e+00 5.881178e+00 8.018119e+00 8.700520e+00 7.077401e+00 3.855652e+00 1.801945e+00 2.975354e+00 2.424515e+00 1.724784e+00 5.511412e+00 8.819032e+00 1.008442e+01 8.286475e+00 4.928848e+00 1.879229e+00 3.845223e+00 7.749763e+00 1.237444e+01 1.692801e+01 1.385945e+01 9.069391e+00 6.305276e+00 1.013046e+00 3.475952e-01 2.456911e+00 3.734081e+00 2.228015e+00 1.021216e+01 8.736624e+00 6.560326e+00 1.621874e+01 1.373525e+01 8.853464e+00 8.654919e+00 7.924003e+00 7.960420e+00 8.604341e+00 8.857769e+00 8.442323e+00 6.389685e+00 3.964861e+00 1.610052e+00 1.933579e+00 2.699165e+00 1.662797e+00 1.016383e-01 2.563410e+00 4.360441e+00 5.226378e+00 4.383095e+00 2.411974e+00 1.859524e+00 3.885719e+00 4.917097e+00 4.804189e+00 3.882382e+00 4.142643e+00 5.689723e+00 6.486499e+00 6.579483e+00 5.186264e+00 3.998012e+00 3.152569e+00 3.048628e+00 3.171160e+00 2.452524e+00 1.469672e+00 1.070419e+00 3.125403e+00 5.242318e+00 6.940260e+00 7.551710e+00 7.412549e+00 6.446151e+00 6.302373e+00 6.861868e+00 7.008946e+00 6.786450e+00 5.607645e+00 4.702959e+00 2.669932e+00 1.467524e+00 7.490508e-01 0 0 0 0 
0 0 0 0 0 4.962832e+00 1.884492e+00 4.150539e+00 1.842673e+00 2.696690e+00 1.883595e+00 2.699522e+00 8.549032e-01 5.528942e-01 2.566653e+00 2.306839e+00 6.916144e+00 8.116118e+00 1.003339e+01 1.317090e+01 1.280917e+01 1.398714e+01 1.612541e+01 2.045810e+01 2.503863e+01 2.711872e+01 2.534707e+01 1.906611e+01 1.171239e+01 5.604403e+00 4.608073e+00 6.542459e+00 1.235921e+01 1.939087e+01 2.499616e+01 2.529427e+01 2.107807e+01 1.430855e+01 9.618000e+00 8.577619e+00 1.103973e+01 1.729684e+01 2.358106e+01 2.558783e+01 2.081465e+01 1.133968e+01 5.300050e+00 8.751676e+00 7.131490e+00 5.072775e+00 1.620893e+01 2.593616e+01 2.965720e+01 2.436983e+01 1.449596e+01 5.527065e+00 1.045349e+01 1.038071e+01 2.180713e+01 3.420862e+01 3.230853e+01 2.277164e+01 1.731200e+01 7.896405e+00 2.140689e+00 6.230435e+00 1.312275e+01 1.379805e+01 2.465623e+01 1.029870e+01 4.799021e+00 3.877939e+01 3.995769e+01 2.604134e+01 2.545642e+01 2.330579e+01 2.341206e+01 2.530499e+01 2.605009e+01 2.482838e+01 1.879210e+01 1.166081e+01 4.735591e+00 5.687434e+00 7.939392e+00 4.891143e+00 2.987920e-01 7.538913e+00 1.282425e+01 1.537084e+01 1.289053e+01 7.093481e+00 5.469803e+00 1.142979e+01 1.446353e+01 1.413130e+01 1.141936e+01 1.218430e+01 1.673406e+01 1.907734e+01 1.935076e+01 1.525327e+01 1.175861e+01 9.272617e+00 8.967525e+00 9.328851e+00 7.215337e+00 4.324454e+00 3.148052e+00 9.191621e+00 1.541696e+01 2.041065e+01 2.220900e+01 2.180013e+01 1.895929e+01 1.853765e+01 2.018394e+01 2.061649e+01 1.996288e+01 1.649778e+01 1.384955e+01 7.864019e+00 4.324308e+00 2.203832e+00 0 0 0 0 
0 0 0 0 0 3.427992e+00 1.304132e+00 2.872205e+00 1.274366e+00 1.864017e+00 1.301772e+00 1.865071e+00 5.908872e-01 8.266283e+00 6.158378e+00 9.754726e+00 1.551564e+01 1.053043e+01 1.648285e+01 1.104330e+01 1.270670e+01 9.661415e+00 1.113830e+01 1.413077e+01 1.729453e+01 1.873120e+01 1.750756e+01 1.316947e+01 8.090140e+00 3.871271e+00 3.183102e+00 4.519254e+00 8.537064e+00 1.339391e+01 1.726542e+01 1.747134e+01 1.455926e+01 9.883512e+00 6.643695e+00 5.925084e+00 7.625694e+00 1.194756e+01 1.628801e+01 1.767406e+01 1.437728e+01 7.832748e+00 3.661152e+00 6.045595e+00 4.926405e+00 3.504001e+00 1.119591e+01 1.791455e+01 2.048455e+01 1.683260e+01 1.001288e+01 3.817824e+00 7.746519e+00 1.277181e+01 9.682370e+00 4.574521e+00 1.517640e+01 2.170220e+01 1.843147e+01 1.076866e+01 6.851492e+00 2.958737e+00 6.826329e+00 8.021480e+00 2.571767e+01 3.288108e+01 1.717074e+01 2.393779e+01 2.748773e+01 1.798911e+01 1.758459e+01 1.609860e+01 1.617160e+01 1.747870e+01 1.799325e+01 1.714944e+01 1.298026e+01 8.054529e+00 3.271217e+00 3.928850e+00 5.484523e+00 3.378868e+00 2.063231e-01 5.207306e+00 8.858165e+00 1.061711e+01 8.903781e+00 4.899606e+00 3.778608e+00 7.895802e+00 9.991512e+00 9.761945e+00 7.888296e+00 8.416427e+00 1.155898e+01 1.317752e+01 1.336636e+01 1.053610e+01 8.122233e+00 6.405305e+00 6.194858e+00 6.444902e+00 4.985034e+00 2.988066e+00 2.174425e+00 6.348824e+00 1.064860e+01 1.409790e+01 1.534012e+01 1.505789e+01 1.309629e+01 1.280563e+01 1.394318e+01 1.424194e+01 1.379083e+01 1.139825e+01 9.575108e+00 5.437713e+00 2.990986e+00 1.522673e+00 0 0 0 0 
0 0 0 0 0 1.526090e-01 5.868252e-02 1.292097e-01 5.713718e-02 8.331941e-02 5.813335e-02 8.313722e-02 2.640121e-02 1.020155e+01 1.101319e+01 1.042167e+01 1.145604e+01 1.074795e+01 1.125291e+01 1.165656e+01 1.067144e+01 4.301195e-01 4.958474e-01 6.289997e-01 7.698048e-01 8.337344e-01 7.792830e-01 5.862550e-01 3.601618e-01 1.723748e-01 1.417458e-01 2.012314e-01 3.800953e-01 5.962754e-01 7.685675e-01 7.777349e-01 6.481422e-01 4.400306e-01 2.958241e-01 2.638363e-01 3.395311e-01 5.319037e-01 7.250632e-01 7.867447e-01 6.400328e-01 3.487154e-01 1.630480e-01 2.692735e-01 2.194301e-01 1.560099e-01 4.983907e-01 7.974239e-01 9.117732e-01 7.492494e-01 4.457682e-01 1.699885e-01 2.113289e+00 8.239687e+00 1.889030e+01 1.975422e+01 1.115242e+01 8.273344e+00 1.741495e+01 1.786706e+01 9.082196e+00 4.720676e+00 1.025801e+01 2.159214e+01 3.334487e+01 3.095256e+01 1.619349e+01 1.826716e+00 1.822157e+00 8.012256e-01 7.830941e-01 7.168189e-01 7.199659e-01 7.780507e-01 8.009278e-01 7.633792e-01 5.778447e-01 3.585810e-01 1.456772e-01 1.749957e-01 2.442951e-01 1.505220e-01 9.169445e-03 2.318035e-01 3.943608e-01 4.726481e-01 3.963491e-01 2.180985e-01 1.683280e-01 3.517291e-01 4.450797e-01 4.348388e-01 3.513190e-01 3.747698e-01 5.146410e-01 5.866886e-01 5.950896e-01 4.690925e-01 3.616329e-01 2.852565e-01 2.759614e-01 2.872110e-01 2.222214e-01 1.332838e-01 9.679275e-02 2.826064e-01 4.739572e-01 6.275131e-01 6.828230e-01 6.703083e-01 5.831481e-01 5.703579e-01 6.210990e-01 6.343974e-01 6.144080e-01 5.081168e-01 4.285148e-01 2.436255e-01 1.342013e-01 6.789216e-02 0 0 0 0 
0 0 0 0 0 0 0 0 0 0 0 0 0 1.112411e+01 1.174927e+01 1.142616e+01 1.228547e+01 1.175438e+01 1.193755e+01 1.224652e+01 1.066690e+01 0 0 0 0 0 0 0 0 0 0 0 0 0 0 0 0 0 0 0 0 0 0 0 0 0 0 0 0 0 0 0 0 0 0 0 1.009284e-01 5.903326e+00 6.303646e+00 3.483733e+00 7.136929e+00 8.640987e+00 9.591748e+00 4.903302e+00 2.400319e+00 5.363399e+00 5.738814e+00 3.324597e+00 8.521428e+00 1.431101e+01 1.105716e+01 8.873900e+00 8.344655e-01 0 0 0 0 0 0 0 0 0 0 0 0 0 0 0 0 0 0 0 0 0 0 0 0 0 0 0 0 0 0 0 0 0 0 0 0 0 0 0 0 0 0 0 0 0 0 0 0 0 0 0 0 0 0 0 
0 0 0 0 0 0 0 0 0 0 0 0 0 1.182764e+01 1.238650e+01 1.191963e+01 1.229718e+01 1.219716e+01 1.224262e+01 1.262977e+01 1.227511e+01 0 0 0 0 0 0 0 0 0 0 0 0 0 0 0 0 0 0 0 0 0 0 0 0 0 0 0 0 0 0 0 0 0 0 0 5.861793e-01 4.836647e+00 6.950437e+00 6.359939e+00 1.293334e+00 3.841637e+00 5.317900e+00 4.082332e+00 3.543856e-01 2.496030e+00 1.194735e+00 3.703885e+00 9.135236e+00 1.028498e+01 7.149982e+00 4.140773e+00 1.007993e+00 0 0 0 0 0 0 0 0 0 0 0 0 0 0 0 0 0 0 0 0 0 0 0 0 0 0 0 0 0 0 0 0 0 0 0 0 0 0 0 0 0 0 0 0 0 0 0 0 0 0 0 0 0 0 0 
0 0 0 0 0 0 0 0 0 0 0 0 0 1.206496e+01 1.256691e+01 1.216491e+01 1.249083e+01 1.242945e+01 1.233261e+01 1.280707e+01 1.218561e+01 0 0 0 0 0 0 0 0 0 0 0 0 0 0 0 0 0 0 0 0 0 0 0 0 0 0 0 0 0 0 0 0 0 0 0 0 0 0 0 0 0 0 0 0 0 0 0 0 0 0 0 0 0 0 0 0 0 0 0 0 0 0 0 0 0 0 0 0 0 0 0 0 0 0 0 0 0 0 0 0 0 0 0 0 0 0 0 0 0 0 0 0 0 0 0 0 0 0 0 0 0 0 0 0 0 0 0 
0 0 0 0 0 0 0 0 0 0 0 0 0 1.203128e+01 1.256121e+01 1.217124e+01 1.249286e+01 1.246757e+01 1.240194e+01 1.284120e+01 1.233302e+01 0 0 0 0 0 0 0 0 0 0 0 0 0 0 0 0 0 0 0 0 0 0 0 0 0 0 0 0 0 0 0 0 0 0 0 0 0 0 0 0 0 0 0 0 0 0 0 0 0 0 0 0 0 0 0 0 0 0 0 0 0 0 0 0 0 0 0 0 0 0 0 0 0 0 0 0 0 0 0 0 0 0 0 0 0 0 0 0 0 0 0 0 0 0 0 0 0 0 0 0 0 0 0 0 0 0 0 
0 0 0 0 0 0 0 0 0 0 0 0 0 1.138397e+01 1.198281e+01 1.168939e+01 1.249604e+01 1.209616e+01 1.218047e+01 1.267199e+01 1.112964e+01 0 0 0 0 0 0 0 0 0 0 0 0 0 0 0 0 0 0 0 0 0 0 0 0 0 0 0 0 0 0 0 0 0 0 0 0 0 0 0 0 0 0 0 0 0 0 0 0 0 0 0 0 0 0 0 0 0 0 0 0 0 0 0 0 0 0 0 0 0 0 0 0 0 0 0 0 0 0 0 0 0 0 0 0 0 0 0 0 0 0 0 0 0 0 0 0 0 0 0 0 0 0 0 0 0 0 0 
0 0 0 0 0 1.548514e-01 3.241188e-02 7.176100e-02 6.599020e-02 3.481176e-02 9.017117e-02 8.490347e-02 1.678908e-01 1.078487e+01 1.162400e+01 1.129395e+01 1.228030e+01 1.188314e+01 1.204034e+01 1.259255e+01 1.067622e+01 6.434004e-01 5.753815e-01 5.070692e-01 4.387334e-01 4.048779e-01 4.184770e-01 4.350036e-01 4.627969e-01 4.486011e-01 4.529277e-01 4.398860e-01 4.857777e-01 5.407782e-01 6.462546e-01 7.078818e-01 7.198645e-01 6.111540e-01 4.349819e-01 2.366739e-01 1.313914e-01 1.351695e-01 2.088953e-01 4.123575e-01 6.663459e-01 8.802529e-01 9.457961e-01 8.604060e-01 6.412302e-01 4.153781e-01 2.772408e-01 2.526988e-01 2.777755e-01 4.010636e-01 5.612970e-01 6.392406e-01 5.657316e-01 3.880914e-01 2.275847e-01 1.673369e-01 1.917345e-01 3.616244e-01 6.189616e-01 7.998431e-01 8.317958e-01 6.659152e-01 4.026226e-01 1.304649e-01 3.241455e-02 1.527381e-02 1.622513e-01 4.121730e-01 6.587202e-01 7.940230e-01 7.821877e-01 6.497781e-01 4.996833e-01 4.688408e-01 5.427048e-01 6.175425e-01 6.674862e-01 7.067733e-01 7.602593e-01 8.260824e-01 8.546603e-01 8.569885e-01 8.060960e-01 7.393847e-01 6.391126e-01 5.392175e-01 4.349769e-01 3.465522e-01 2.924209e-01 3.103010e-01 3.920181e-01 4.447818e-01 4.570547e-01 3.818452e-01 3.506445e-01 4.227900e-01 4.876936e-01 5.050969e-01 4.618333e-01 5.162204e-01 6.654302e-01 7.350219e-01 6.834653e-01 4.465039e-01 2.021468e-01 3.490228e-01 5.405913e-01 5.871632e-01 4.786803e-01 2.645388e-01 2.720702e-01 4.836098e-01 5.764295e-01 5.876819e-01 4.540773e-01 3.721936e-01 3.009184e-01 2.669487e-01 6.790207e-02 6.469421e-02 0 0 0 0 
0 0 0 0 0 3.478416e+00 7.159605e-01 1.582942e+00 1.498798e+00 7.858837e-01 2.026076e+00 1.905717e+00 3.768948e+00 8.473104e+00 6.390585e+00 1.021345e+01 1.593851e+01 1.140470e+01 1.703743e+01 1.313347e+01 1.564888e+01 1.445312e+01 1.292537e+01 1.139035e+01 9.855297e+00 9.094548e+00 9.399955e+00 9.771157e+00 1.039541e+01 1.007630e+01 1.017337e+01 9.880270e+00 1.091120e+01 1.214694e+01 1.451699e+01 1.590176e+01 1.617117e+01 1.372860e+01 9.770321e+00 5.315858e+00 2.950605e+00 3.035245e+00 4.691613e+00 9.262012e+00 1.496900e+01 1.977572e+01 2.124872e+01 1.932966e+01 1.440401e+01 9.329506e+00 6.226035e+00 5.674629e+00 6.238048e+00 9.007899e+00 1.260770e+01 1.435906e+01 1.270752e+01 8.716557e+00 5.111090e+00 3.757743e+00 4.305860e+00 8.122393e+00 1.390390e+01 1.796844e+01 1.868658e+01 1.495902e+01 9.043475e+00 2.930375e+00 7.277982e-01 3.427120e-01 3.644472e+00 9.258040e+00 1.479767e+01 1.783776e+01 1.757158e+01 1.459617e+01 1.122274e+01 1.052845e+01 1.218600e+01 1.386614e+01 1.498790e+01 1.587130e+01 1.707370e+01 1.855348e+01 1.919599e+01 1.924873e+01 1.810541e+01 1.660668e+01 1.435413e+01 1.211002e+01 9.768866e+00 7.783123e+00 6.567968e+00 6.970203e+00 8.805607e+00 9.990746e+00 1.026617e+01 8.575880e+00 7.874212e+00 9.493065e+00 1.095007e+01 1.134071e+01 1.037061e+01 1.159386e+01 1.494832e+01 1.651252e+01 1.535485e+01 1.003208e+01 4.538755e+00 7.829337e+00 1.213027e+01 1.317569e+01 1.074093e+01 5.938051e+00 6.113962e+00 1.086503e+01 1.294932e+01 1.320245e+01 1.020211e+01 8.373237e+00 6.787275e+00 6.033275e+00 1.513864e+00 1.450873e+00 0 0 0 0 
0 0 0 0 0 5.035847e+00 1.033483e+00 2.284330e+00 2.174056e+00 1.138754e+00 2.933379e+00 2.758613e+00 5.455860e+00 5.656394e+00 5.824989e+00 6.025056e+00 9.745064e+00 1.040329e+01 1.404346e+01 1.867321e+01 1.961749e+01 2.092450e+01 1.871274e+01 1.649030e+01 1.426794e+01 1.316650e+01 1.360864e+01 1.414603e+01 1.504977e+01 1.458772e+01 1.472823e+01 1.430386e+01 1.579639e+01 1.758549e+01 2.101689e+01 2.302181e+01 2.341190e+01 1.987553e+01 1.414473e+01 7.695852e+00 4.271501e+00 4.393981e+00 6.792041e+00 1.340881e+01 2.167147e+01 2.863081e+01 3.076350e+01 2.798496e+01 2.085331e+01 1.350643e+01 9.013280e+00 8.214955e+00 9.030672e+00 1.304081e+01 1.825252e+01 2.078816e+01 1.839709e+01 1.261904e+01 7.399248e+00 5.439951e+00 6.233502e+00 1.175893e+01 2.012929e+01 2.601406e+01 2.705384e+01 2.165694e+01 1.309246e+01 4.242362e+00 1.053580e+00 4.960611e-01 5.276210e+00 1.340310e+01 2.142342e+01 2.582488e+01 2.543943e+01 2.113153e+01 1.624722e+01 1.524169e+01 1.764097e+01 2.007314e+01 2.169713e+01 2.297629e+01 2.471730e+01 2.685993e+01 2.779027e+01 2.786673e+01 2.621147e+01 2.404165e+01 2.078050e+01 1.753156e+01 1.414228e+01 1.126758e+01 9.508550e+00 1.009103e+01 1.274817e+01 1.446392e+01 1.486260e+01 1.241528e+01 1.139924e+01 1.374248e+01 1.585160e+01 1.641708e+01 1.501306e+01 1.678441e+01 2.164151e+01 2.390631e+01 2.223041e+01 1.452443e+01 6.570421e+00 1.133213e+01 1.755820e+01 1.907151e+01 1.554714e+01 8.595680e+00 8.852061e+00 1.573019e+01 1.874752e+01 1.911408e+01 1.477057e+01 1.212550e+01 9.833471e+00 8.744378e+00 2.189065e+00 2.099893e+00 0 0 0 0 
0 0 0 0 0 1.712282e+00 3.499340e-01 7.731487e-01 7.412479e-01 3.876824e-01 9.974738e-01 9.378000e-01 1.854802e+00 1.922989e+00 1.980429e+00 2.048457e+00 3.313322e+00 3.537129e+00 4.774878e+00 6.349161e+00 6.670302e+00 7.114777e+00 6.362756e+00 5.607021e+00 4.851371e+00 4.476832e+00 4.627157e+00 4.809878e+00 5.117159e+00 4.960022e+00 5.007785e+00 4.863472e+00 5.370971e+00 5.979332e+00 7.146162e+00 7.827924e+00 7.960593e+00 6.758087e+00 4.809393e+00 2.616668e+00 1.452288e+00 1.493905e+00 2.309323e+00 4.559153e+00 7.368817e+00 9.735336e+00 1.046058e+01 9.515706e+00 7.090528e+00 4.592302e+00 3.064486e+00 2.793025e+00 3.070399e+00 4.433975e+00 6.206112e+00 7.068342e+00 6.255296e+00 4.290570e+00 2.515743e+00 1.849545e+00 2.119377e+00 3.998164e+00 6.844360e+00 8.845463e+00 9.199059e+00 7.363839e+00 4.451604e+00 1.442451e+00 3.581967e-01 1.686229e-01 1.793989e+00 4.557234e+00 7.284471e+00 8.781147e+00 8.650047e+00 7.185144e+00 5.524159e+00 5.182079e+00 5.997675e+00 6.824542e+00 7.376717e+00 7.811763e+00 8.403857e+00 9.132538e+00 9.448940e+00 9.474993e+00 8.912159e+00 8.174357e+00 7.065486e+00 5.960765e+00 4.808395e+00 3.831007e+00 3.233003e+00 3.431131e+00 4.334583e+00 4.917959e+00 5.053484e+00 4.221243e+00 3.875672e+00 4.672201e+00 5.389231e+00 5.581469e+00 5.104287e+00 5.706772e+00 7.358617e+00 8.128808e+00 7.559028e+00 4.938859e+00 2.233814e+00 3.851814e+00 5.968516e+00 6.482981e+00 5.284887e+00 2.922167e+00 3.010170e+00 5.348771e+00 6.374632e+00 6.499316e+00 5.022542e+00 4.124460e+00 3.347113e+00 2.978051e+00 7.431036e-01 7.137139e-01 0 0 0 0 
0 0 0 0 0 0 0 0 0 0 0 0 0 0 0 0 0 0 0 0 0 0 0 0 0 0 0 0 0 0 0 0 0 0 0 0 0 0 0 0 0 0 0 0 0 0 0 0 0 0 0 0 0 0 0 0 0 0 0 0 0 0 0 0 0 0 0 0 0 0 0 0 0 0 0 0 0 0 0 0 0 0 0 0 0 0 0 0 0 0 0 0 0 0 0 0 0 0 0 0 0 0 0 0 0 0 0 0 0 0 0 0 0 0 0 0 0 0 0 0 0 0 0 0 0 0 0 0 
