# vtk DataFile Version 2.0
Comment goes here
ASCII

DATASET STRUCTURED_POINTS
FIELD FieldData 1
TIME 1 1 double
0.38000000
DIMENSIONS    128   16   1

ORIGIN    0.000   0.000   0.000
SPACING   0.0078125 0.015625   1.000

POINT_DATA   2048
SCALARS fMag double
LOOKUP_TABLE default

0 0 0 0 0 0 0 0 0 0 0 0 0 0 0 0 0 0 0 0 0 0 0 0 0 0 0 0 0 0 0 0 0 0 0 0 0 0 0 0 0 0 0 0 0 0 0 0 0 0 0 0 0 0 0 0 0 0 0 0 0 0 0 0 0 0 0 0 0 0 0 0 0 0 0 0 0 0 0 0 0 0 0 0 0 0 0 0 0 0 0 0 0 0 0 0 0 0 0 0 0 0 0 0 0 0 0 0 0 0 0 0 0 0 0 0 0 0 0 0 0 0 0 0 0 0 0 0 
0 0 0 0 0 0 0 0 0 0 0 0 0 0 0 0 0 0 0 0 0 0 0 0 0 0 0 0 0 0 0 0 0 0 0 0 0 0 0 0 0 0 0 0 0 0 0 0 0 0 0 0 0 0 0 0 0 0 0 0 0 0 0 0 0 0 0 0 0 0 0 0 0 0 0 0 0 0 0 0 0 0 0 0 0 0 0 0 0 0 0 0 0 0 0 0 0 0 0 0 0 0 0 0 0 0 0 0 0 0 0 0 0 0 0 0 0 0 0 0 0 0 0 0 0 0 0 0 
0 0 0 0 0 1.788379e+00 2.069822e-01 6.456922e-01 1.819561e+00 1.553361e+00 1.539707e+00 1.510314e+00 2.702252e+00 2.631216e+00 2.320701e+00 2.318392e+00 2.636961e+00 2.589404e+00 3.819457e+00 4.955035e+00 3.672199e+00 1.921393e+00 9.252188e-01 1.324247e+00 2.872190e+00 7.263358e+00 1.133735e+01 1.304318e+01 1.162426e+01 7.800261e+00 5.627054e+00 7.002057e+00 7.072373e+00 6.997441e+00 9.258107e+00 1.196879e+01 1.242252e+01 1.053953e+01 8.776049e+00 9.537798e+00 1.025048e+01 9.306830e+00 8.806125e+00 9.160616e+00 1.014968e+01 1.060715e+01 9.896159e+00 9.176006e+00 8.490195e+00 7.695132e+00 8.558710e+00 8.737985e+00 8.730403e+00 6.975701e+00 3.966550e+00 6.626728e+00 6.752141e+00 5.122697e+00 9.649865e+00 1.366844e+01 1.510971e+01 2.041637e+01 2.114902e+01 1.573279e+01 2.482963e+00 1.082654e+01 1.045117e+01 1.052535e+01 1.568710e+01 7.137068e+00 7.851262e+00 2.086883e+01 2.215002e+01 1.240260e+01 9.955507e+00 1.389198e+01 1.922720e+01 1.931116e+01 1.348945e+01 6.476046e+00 8.397097e+00 1.076717e+01 7.699390e+00 4.127962e+00 9.469053e+00 1.302624e+01 1.046806e+01 4.633949e+00 6.606489e+00 9.958325e+00 8.687314e+00 6.286391e+00 1.054021e+01 1.445195e+01 1.359496e+01 9.750907e+00 1.270666e+01 1.846853e+01 1.799382e+01 1.296243e+01 1.253652e+01 1.908262e+01 2.254241e+01 1.824035e+01 1.061834e+01 7.399950e+00 1.158819e+01 1.237845e+01 7.182037e+00 1.253695e+00 7.219873e+00 1.090789e+01 9.707393e+00 5.780067e+00 6.309160e+00 9.597722e+00 1.062212e+01 7.334596e+00 5.802847e+00 8.344536e+00 8.435759e+00 5.702896e+00 2.117787e+00 6.813360e-01 0 0 0 0 
0 0 0 0 0 5.259656e+00 6.044020e-01 1.897985e+00 5.345728e+00 4.566673e+00 4.527431e+00 4.442158e+00 7.948398e+00 7.739537e+00 6.826016e+00 6.819154e+00 7.755808e+00 7.615873e+00 1.123343e+01 1.457321e+01 1.080036e+01 5.651233e+00 2.721888e+00 3.895517e+00 8.447230e+00 2.136076e+01 3.334132e+01 3.835730e+01 3.418498e+01 2.294052e+01 1.655062e+01 2.059584e+01 2.080248e+01 2.058105e+01 2.722837e+01 3.519939e+01 3.653367e+01 3.099701e+01 2.581205e+01 2.805432e+01 3.015105e+01 2.737478e+01 2.590087e+01 2.694238e+01 2.985057e+01 3.119580e+01 2.910489e+01 2.698726e+01 2.497027e+01 2.263175e+01 2.517090e+01 2.569790e+01 2.567546e+01 2.051553e+01 1.166770e+01 1.949522e+01 2.091795e+01 1.170748e+01 1.601114e+01 3.575793e+01 3.790575e+01 5.327441e+01 6.431657e+01 4.704822e+01 6.017896e+00 3.678687e+01 4.599403e+01 4.521852e+01 3.695639e+01 1.221751e+01 1.901036e+01 4.913021e+01 6.628595e+01 3.648514e+01 2.928141e+01 4.085286e+01 5.653845e+01 5.678460e+01 3.966856e+01 1.904537e+01 2.470110e+01 3.167325e+01 2.264904e+01 1.214076e+01 2.784738e+01 3.830741e+01 3.078497e+01 1.362849e+01 1.943388e+01 2.929345e+01 2.555434e+01 1.848978e+01 3.099758e+01 4.250004e+01 3.998023e+01 2.867870e+01 3.737899e+01 5.433128e+01 5.293405e+01 3.813006e+01 3.686943e+01 5.611520e+01 6.628664e+01 5.363780e+01 3.122664e+01 2.176705e+01 3.408914e+01 3.641482e+01 2.112887e+01 3.686493e+00 2.123047e+01 3.207677e+01 2.854733e+01 1.699859e+01 1.855959e+01 2.823397e+01 3.124743e+01 2.157483e+01 1.706749e+01 2.453665e+01 2.479131e+01 1.674700e+01 6.224349e+00 2.004514e+00 0 0 0 0 
0 0 0 0 0 3.633011e+00 4.153882e-01 1.310533e+00 3.689733e+00 3.153478e+00 3.126816e+00 3.068484e+00 5.490706e+00 9.439222e+00 6.057447e+00 9.900656e+00 1.428907e+01 7.426639e+00 1.165218e+01 7.677252e+00 1.539599e+01 3.903671e+00 1.880484e+00 2.691185e+00 5.834801e+00 1.475411e+01 2.302891e+01 2.649318e+01 2.361160e+01 1.584565e+01 1.143269e+01 1.422749e+01 1.437014e+01 1.421668e+01 1.880755e+01 2.431282e+01 2.523439e+01 2.141065e+01 1.782994e+01 1.937969e+01 2.082833e+01 1.891019e+01 1.789147e+01 1.861036e+01 2.061882e+01 2.154791e+01 2.010372e+01 1.864118e+01 1.724798e+01 1.563258e+01 1.738614e+01 1.775003e+01 1.773446e+01 1.417066e+01 8.060225e+00 1.346882e+01 1.830854e+01 2.351419e+01 1.554867e+01 3.920246e+00 2.181599e+01 2.928691e+01 2.071368e+01 1.491996e+01 3.097687e+01 4.243808e+01 4.825439e+01 5.036768e+01 4.432878e+01 4.309170e+01 1.634627e+01 3.537679e+01 4.546338e+01 2.520574e+01 2.022661e+01 2.821656e+01 3.904849e+01 3.921815e+01 2.739831e+01 1.315485e+01 1.706430e+01 2.188102e+01 1.564683e+01 8.386176e+00 1.923444e+01 2.645869e+01 2.126329e+01 9.413606e+00 1.342557e+01 2.023674e+01 1.765351e+01 1.277215e+01 2.141035e+01 2.935448e+01 2.761426e+01 1.980983e+01 2.582296e+01 3.753561e+01 3.656996e+01 2.634119e+01 2.546655e+01 3.875709e+01 4.578095e+01 3.704575e+01 2.156822e+01 1.503697e+01 2.355036e+01 2.515751e+01 1.459747e+01 2.546064e+00 1.466296e+01 2.215473e+01 1.971743e+01 1.174113e+01 1.282175e+01 1.950544e+01 2.158727e+01 1.490418e+01 1.178964e+01 1.694592e+01 1.711524e+01 1.155545e+01 4.297390e+00 1.384917e+00 0 0 0 0 
0 0 0 0 0 1.617343e-01 1.796875e-02 5.824063e-02 1.635664e-01 1.401661e-01 1.390919e-01 1.366393e-01 2.445611e-01 7.913848e+00 8.712715e+00 8.966052e+00 9.601908e+00 9.476965e+00 8.693470e+00 9.418985e+00 8.097910e+00 1.738304e-01 8.381411e-02 1.199147e-01 2.597617e-01 6.567113e-01 1.024949e+00 1.179061e+00 1.050873e+00 7.053921e-01 5.091266e-01 6.337062e-01 6.400368e-01 6.330757e-01 8.372867e-01 1.082228e+00 1.123239e+00 9.531670e-01 7.939409e-01 8.631724e-01 9.277531e-01 8.422399e-01 7.967258e-01 8.285988e-01 9.179282e-01 9.592652e-01 8.949895e-01 8.299233e-01 7.679006e-01 6.959589e-01 7.739438e-01 7.901131e-01 7.894027e-01 6.308323e-01 3.590720e-01 6.003301e-01 5.858239e+00 1.408340e+01 2.647910e+01 2.853735e+01 1.160643e+01 2.117522e+01 4.381186e+01 4.439815e+01 2.220344e+01 4.780401e+00 6.844080e+00 7.590958e+00 1.462338e+01 2.680514e+01 2.047542e+01 2.436447e+00 2.743849e+00 1.123201e+00 9.007042e-01 1.255688e+00 1.737242e+00 1.744700e+00 1.219205e+00 5.855288e-01 7.602940e-01 9.749367e-01 6.971796e-01 3.733785e-01 8.561207e-01 1.177517e+00 9.463776e-01 4.190694e-01 5.981810e-01 9.016165e-01 7.864873e-01 5.687611e-01 9.529779e-01 1.306383e+00 1.228988e+00 8.820297e-01 1.150630e+00 1.672856e+00 1.629732e+00 1.173558e+00 1.133635e+00 1.724510e+00 2.036722e+00 1.648293e+00 9.599166e-01 6.698661e-01 1.049406e+00 1.121141e+00 6.506341e-01 1.132663e-01 6.523582e-01 9.858497e-01 8.774983e-01 5.226070e-01 5.713191e-01 8.691909e-01 9.619559e-01 6.639524e-01 5.250000e-01 7.538103e-01 7.596840e-01 5.113456e-01 1.908284e-01 6.173895e-02 0 0 0 0 
0 0 0 0 0 0 0 0 0 0 0 0 0 9.300822e+00 9.545168e+00 9.555342e+00 1.023302e+01 9.681081e+00 9.898809e+00 1.029091e+01 9.557721e+00 0 0 0 0 0 0 0 0 0 0 0 0 0 0 0 0 0 0 0 0 0 0 0 0 0 0 0 0 0 0 0 0 0 0 0 5.659279e-01 1.412060e+01 1.332767e+01 1.261062e+01 6.202696e+00 9.420433e+00 7.942960e+00 5.825572e+00 1.450971e+01 1.982109e+01 1.780890e+01 1.993704e+01 1.993288e+01 2.322459e+01 1.275262e+01 1.224605e+01 3.179939e+00 0 0 0 0 0 0 0 0 0 0 0 0 0 0 0 0 0 0 0 0 0 0 0 0 0 0 0 0 0 0 0 0 0 0 0 0 0 0 0 0 0 0 0 0 0 0 0 0 0 0 0 0 0 0 0 
0 0 0 0 0 0 0 0 0 0 0 0 0 1.000304e+01 1.049229e+01 1.030587e+01 1.060948e+01 1.072473e+01 1.067118e+01 1.123723e+01 1.092760e+01 0 0 0 0 0 0 0 0 0 0 0 0 0 0 0 0 0 0 0 0 0 0 0 0 0 0 0 0 0 0 0 0 0 0 0 1.765112e+00 1.255521e+01 1.371847e+01 1.448841e+01 8.627771e+00 3.492128e+00 1.483497e+00 4.280259e+00 4.015794e+00 1.462614e+00 1.452686e+00 3.333078e+00 7.202592e+00 1.282600e+01 8.925218e+00 6.755087e+00 3.181434e-01 0 0 0 0 0 0 0 0 0 0 0 0 0 0 0 0 0 0 0 0 0 0 0 0 0 0 0 0 0 0 0 0 0 0 0 0 0 0 0 0 0 0 0 0 0 0 0 0 0 0 0 0 0 0 0 
0 0 0 0 0 0 0 0 0 0 0 0 0 1.005336e+01 1.068537e+01 1.021321e+01 1.075282e+01 1.057632e+01 1.083318e+01 1.111561e+01 1.100314e+01 0 0 0 0 0 0 0 0 0 0 0 0 0 0 0 0 0 0 0 0 0 0 0 0 0 0 0 0 0 0 0 0 0 0 0 0 0 0 0 0 0 0 0 0 0 0 0 0 0 0 0 0 0 0 0 0 0 0 0 0 0 0 0 0 0 0 0 0 0 0 0 0 0 0 0 0 0 0 0 0 0 0 0 0 0 0 0 0 0 0 0 0 0 0 0 0 0 0 0 0 0 0 0 0 0 0 0 
0 0 0 0 0 0 0 0 0 0 0 0 0 1.060801e+01 1.131884e+01 1.079402e+01 1.138600e+01 1.113163e+01 1.154006e+01 1.157133e+01 1.172992e+01 0 0 0 0 0 0 0 0 0 0 0 0 0 0 0 0 0 0 0 0 0 0 0 0 0 0 0 0 0 0 0 0 0 0 0 0 0 0 0 0 0 0 0 0 0 0 0 0 0 0 0 0 0 0 0 0 0 0 0 0 0 0 0 0 0 0 0 0 0 0 0 0 0 0 0 0 0 0 0 0 0 0 0 0 0 0 0 0 0 0 0 0 0 0 0 0 0 0 0 0 0 0 0 0 0 0 0 
0 0 0 0 0 0 0 0 0 0 0 0 0 9.059200e+00 1.012509e+01 9.562618e+00 1.073474e+01 1.027029e+01 1.094869e+01 1.136033e+01 1.034144e+01 0 0 0 0 0 0 0 0 0 0 0 0 0 0 0 0 0 0 0 0 0 0 0 0 0 0 0 0 0 0 0 0 0 0 0 0 0 0 0 0 0 0 0 0 0 0 0 0 0 0 0 0 0 0 0 0 0 0 0 0 0 0 0 0 0 0 0 0 0 0 0 0 0 0 0 0 0 0 0 0 0 0 0 0 0 0 0 0 0 0 0 0 0 0 0 0 0 0 0 0 0 0 0 0 0 0 0 
0 0 0 0 0 1.523039e-01 7.853004e-02 1.811659e-01 1.737537e-01 2.128693e-01 1.743468e-01 1.339416e-01 3.635493e-02 1.012203e+01 1.072186e+01 1.013236e+01 1.133190e+01 1.052724e+01 1.193685e+01 1.218529e+01 1.261053e+01 5.347238e-01 7.373268e-01 9.420371e-01 1.003096e+00 8.661073e-01 5.846023e-01 4.078429e-01 5.743924e-01 7.853536e-01 7.424778e-01 5.095430e-01 5.044406e-01 9.483319e-01 1.272485e+00 1.218455e+00 8.570397e-01 4.308014e-01 3.793630e-01 4.048907e-01 3.947376e-01 7.066228e-01 9.536687e-01 8.838824e-01 5.466252e-01 4.031819e-01 6.701017e-01 7.346414e-01 5.645066e-01 5.259147e-01 8.552242e-01 1.125529e+00 1.127918e+00 9.076963e-01 6.791798e-01 6.648060e-01 7.384581e-01 7.004590e-01 7.340215e-01 9.610091e-01 1.117628e+00 9.955309e-01 6.739481e-01 5.724407e-01 7.525041e-01 7.725690e-01 4.577056e-01 2.535482e-01 8.247673e-01 1.287083e+00 1.442357e+00 1.213410e+00 7.949571e-01 5.702665e-01 7.481070e-01 9.674141e-01 1.109051e+00 1.192073e+00 1.238085e+00 1.229047e+00 1.222990e+00 1.312256e+00 1.509148e+00 1.672397e+00 1.609518e+00 1.392184e+00 1.151543e+00 1.071207e+00 1.167139e+00 1.259500e+00 1.183832e+00 8.563574e-01 5.268989e-01 9.423539e-01 1.493348e+00 1.636841e+00 1.322070e+00 6.410078e-01 1.825167e-01 6.698710e-01 7.826073e-01 6.081254e-01 3.291968e-01 3.060915e-01 2.659756e-01 4.073010e-01 7.691668e-01 1.030644e+00 8.637754e-01 2.990120e-01 5.699655e-01 1.310191e+00 1.586161e+00 1.274733e+00 5.701210e-01 6.167066e-01 1.139942e+00 1.173380e+00 8.645936e-01 4.407401e-01 4.216829e-01 4.395847e-01 1.230149e-01 5.458144e-02 0 0 0 0 
0 0 0 0 0 3.421087e+00 1.749963e+00 4.041530e+00 3.892957e+00 4.774653e+00 3.912237e+00 3.005576e+00 8.150366e-01 1.935517e+00 3.129565e+00 6.208975e+00 1.137309e+01 8.708658e+00 1.514589e+01 1.189412e+01 1.127111e+01 1.201156e+01 1.656410e+01 2.116539e+01 2.253739e+01 1.945777e+01 1.313220e+01 9.157839e+00 1.289408e+01 1.762870e+01 1.666699e+01 1.143913e+01 1.133056e+01 2.130617e+01 2.859296e+01 2.737824e+01 1.925453e+01 9.676203e+00 8.517820e+00 9.090742e+00 8.865151e+00 1.587358e+01 2.142556e+01 1.985739e+01 1.227836e+01 9.051968e+00 1.504256e+01 1.649133e+01 1.267319e+01 1.181144e+01 1.921200e+01 2.528723e+01 2.534053e+01 2.039025e+01 1.525336e+01 1.492711e+01 1.657943e+01 1.572745e+01 1.648519e+01 2.158814e+01 2.510881e+01 2.236458e+01 1.513755e+01 1.285256e+01 1.689221e+01 1.734191e+01 1.027464e+01 5.695625e+00 1.853114e+01 2.892231e+01 3.241359e+01 2.726620e+01 1.785879e+01 1.280650e+01 1.679596e+01 2.171739e+01 2.489629e+01 2.676015e+01 2.779386e+01 2.759362e+01 2.746200e+01 2.947372e+01 3.390359e+01 3.757624e+01 3.616226e+01 3.127448e+01 2.586233e+01 2.405111e+01 2.619805e+01 2.826801e+01 2.656958e+01 1.922133e+01 1.183240e+01 2.117568e+01 3.356162e+01 3.678827e+01 2.971161e+01 1.440225e+01 4.096451e+00 1.503596e+01 1.756688e+01 1.365103e+01 7.390787e+00 6.873846e+00 5.972723e+00 9.139840e+00 1.726156e+01 2.312568e+01 1.938008e+01 6.706802e+00 1.281706e+01 2.944788e+01 3.565334e+01 2.865405e+01 1.281087e+01 1.384058e+01 2.558132e+01 2.633332e+01 1.940051e+01 9.892057e+00 9.538879e+00 9.990396e+00 2.814062e+00 1.224339e+00 0 0 0 0 
0 0 0 0 0 4.952822e+00 2.529937e+00 5.843991e+00 5.633450e+00 6.910682e+00 5.662865e+00 4.350499e+00 1.179556e+00 1.127261e+00 3.551369e+00 3.885413e+00 8.303486e+00 8.781239e+00 1.025981e+01 1.197428e+01 1.160603e+01 1.738966e+01 2.398093e+01 3.064314e+01 3.262955e+01 2.817043e+01 1.901211e+01 1.325729e+01 1.866515e+01 2.551858e+01 2.412664e+01 1.655920e+01 1.640355e+01 3.084680e+01 4.139755e+01 3.963868e+01 2.787631e+01 1.400842e+01 1.233064e+01 1.315995e+01 1.283398e+01 2.298102e+01 3.101953e+01 2.874907e+01 1.777577e+01 1.310372e+01 2.177523e+01 2.387242e+01 1.834564e+01 1.709936e+01 2.781429e+01 3.661051e+01 3.668759e+01 2.952000e+01 2.208216e+01 2.160897e+01 2.400057e+01 2.276752e+01 2.386551e+01 3.125431e+01 3.635197e+01 3.237865e+01 2.191492e+01 1.860562e+01 2.445270e+01 2.510348e+01 1.487330e+01 8.245838e+00 2.682943e+01 4.187473e+01 4.693006e+01 3.947681e+01 2.585535e+01 1.853965e+01 2.431399e+01 3.143771e+01 3.603926e+01 3.873739e+01 4.023397e+01 3.994478e+01 3.975535e+01 4.266946e+01 4.908457e+01 5.440303e+01 5.235556e+01 4.527784e+01 3.744077e+01 3.481690e+01 3.792310e+01 4.091866e+01 3.846010e+01 2.782372e+01 1.712941e+01 3.065885e+01 4.859276e+01 5.326497e+01 4.301829e+01 2.085158e+01 5.929736e+00 2.176531e+01 2.542906e+01 1.976081e+01 1.069895e+01 9.951076e+00 8.646483e+00 1.322975e+01 2.498617e+01 3.347351e+01 2.805154e+01 9.707205e+00 1.855933e+01 4.263727e+01 5.162278e+01 4.148868e+01 1.854791e+01 2.003442e+01 3.702876e+01 3.811768e+01 2.808163e+01 1.431905e+01 1.382682e+01 1.449303e+01 4.086946e+00 1.772089e+00 0 0 0 0 
0 0 0 0 0 1.684039e+00 8.585033e-01 1.983626e+00 1.914247e+00 2.348898e+00 1.924975e+00 1.478864e+00 4.008739e-01 3.833884e-01 1.207525e+00 1.321045e+00 2.823198e+00 2.985625e+00 3.488339e+00 4.071296e+00 3.946153e+00 5.912820e+00 8.154156e+00 1.041979e+01 1.109526e+01 9.578775e+00 6.464510e+00 4.507294e+00 6.345458e+00 8.675236e+00 8.202124e+00 5.629614e+00 5.577431e+00 1.048896e+01 1.407707e+01 1.347890e+01 9.478820e+00 4.763018e+00 4.192181e+00 4.474101e+00 4.363571e+00 7.814069e+00 1.054763e+01 9.775563e+00 6.044040e+00 4.454933e+00 7.402769e+00 8.115733e+00 6.236964e+00 5.813835e+00 9.457520e+00 1.244882e+01 1.247498e+01 1.003744e+01 7.507976e+00 7.346668e+00 8.159594e+00 7.740532e+00 8.114340e+00 1.062718e+01 1.236079e+01 1.100959e+01 7.451321e+00 6.325500e+00 8.312993e+00 8.534144e+00 5.056368e+00 2.803762e+00 9.123053e+00 1.423950e+01 1.595882e+01 1.342401e+01 8.791514e+00 6.303415e+00 8.266138e+00 1.068774e+01 1.225202e+01 1.316930e+01 1.367819e+01 1.358020e+01 1.351634e+01 1.450799e+01 1.669012e+01 1.849919e+01 1.780282e+01 1.539555e+01 1.272998e+01 1.183700e+01 1.289218e+01 1.391015e+01 1.307435e+01 9.458743e+00 5.823913e+00 1.042552e+01 1.652449e+01 1.811355e+01 1.462875e+01 7.090337e+00 2.015802e+00 7.399221e+00 8.644783e+00 6.717905e+00 3.637357e+00 3.383322e+00 2.939735e+00 4.497215e+00 8.493775e+00 1.137847e+01 9.535236e+00 3.299415e+00 6.312235e+00 1.449958e+01 1.755560e+01 1.410936e+01 6.307164e+00 6.810544e+00 1.258738e+01 1.295774e+01 9.545720e+00 4.867733e+00 4.709623e+00 4.942218e+00 1.395899e+00 6.023318e-01 0 0 0 0 
0 0 0 0 0 0 0 0 0 0 0 0 0 0 0 0 0 0 0 0 0 0 0 0 0 0 0 0 0 0 0 0 0 0 0 0 0 0 0 0 0 0 0 0 0 0 0 0 0 0 0 0 0 0 0 0 0 0 0 0 0 0 0 0 0 0 0 0 0 0 0 0 0 0 0 0 0 0 0 0 0 0 0 0 0 0 0 0 0 0 0 0 0 0 0 0 0 0 0 0 0 0 0 0 0 0 0 0 0 0 0 0 0 0 0 0 0 0 0 0 0 0 0 0 0 0 0 0 
