# vtk DataFile Version 2.0
Comment goes here
ASCII

DATASET STRUCTURED_POINTS
FIELD FieldData 1
TIME 1 1 double
0.62000000
DIMENSIONS    128   16   1

ORIGIN    0.000   0.000   0.000
SPACING   0.0078125 0.015625   1.000

POINT_DATA   2048
SCALARS fX double
LOOKUP_TABLE default

0 0 0 0 0 0 0 0 0 0 0 0 0 0 0 0 0 0 0 0 0 0 0 0 0 0 0 0 0 0 0 0 0 0 0 0 0 0 0 0 0 0 0 0 0 0 0 0 0 0 0 0 0 0 0 0 0 0 0 0 0 0 0 0 0 0 0 0 0 0 0 0 0 0 0 0 0 0 0 0 0 0 0 0 0 0 0 0 0 0 0 0 0 0 0 0 0 0 0 0 0 0 0 0 0 0 0 0 0 0 0 0 0 0 0 0 0 0 0 0 0 0 0 0 0 0 0 0 
0 0 0 0 0 0 0 0 0 0 0 0 0 0 0 0 0 0 0 0 0 0 0 0 0 0 0 0 0 0 0 0 0 0 0 0 0 0 0 0 0 0 0 0 0 0 0 0 0 0 0 0 0 0 0 0 0 0 0 0 0 0 0 0 0 0 0 0 0 0 0 0 0 0 0 0 0 0 0 0 0 0 0 0 0 0 0 0 0 0 0 0 0 0 0 0 0 0 0 0 0 0 0 0 0 0 0 0 0 0 0 0 0 0 0 0 0 0 0 0 0 0 0 0 0 0 0 0 
0 0 0 0 0 -1.818855e+00 -1.609155e+00 -1.825955e-01 -1.292572e+00 -1.095721e+00 -1.373477e+00 -1.194495e+00 -8.056805e-01 1.533205e+00 2.461292e+00 1.635906e+00 1.654837e+00 1.949210e+00 1.339380e+00 2.325268e+00 2.275934e+00 -4.746769e-01 -4.233534e-01 -4.159337e-01 -1.433899e-01 -6.547768e-02 2.056563e-01 3.326491e-01 6.227850e-01 7.651590e-01 1.049865e+00 1.177013e+00 1.370343e+00 1.453515e+00 1.526349e+00 1.534100e+00 1.545024e+00 1.496835e+00 1.488093e+00 1.448200e+00 1.401942e+00 1.405153e+00 1.324015e+00 1.361922e+00 1.301870e+00 1.367661e+00 1.354420e+00 1.471299e+00 1.478024e+00 1.632503e+00 1.667205e+00 1.765955e+00 1.873326e+00 1.865756e+00 2.019005e+00 1.440243e+00 1.932604e+00 1.501291e+00 -7.333696e-01 -1.364636e+00 -9.085709e-01 4.789120e-01 9.943615e-01 -7.937283e-01 -8.253153e-01 1.332282e+00 -1.793809e+00 -3.885922e+00 2.356367e+00 3.889175e+00 1.230901e+00 5.164979e+00 6.092898e+00 3.494800e+00 3.374194e+00 2.876099e+00 2.399306e+00 1.823501e+00 1.253341e+00 5.763030e-01 -1.711444e-02 -7.047089e-01 -1.284839e+00 -1.882020e+00 -2.394972e+00 -2.816439e+00 -3.173753e+00 -3.368865e+00 -3.511378e+00 -3.486257e+00 -3.435197e+00 -3.248545e+00 -3.093667e+00 -2.837110e+00 -2.652878e+00 -2.407661e+00 -2.221368e+00 -2.014146e+00 -1.843290e+00 -1.678351e+00 -1.541387e+00 -1.450966e+00 -1.365808e+00 -1.396615e+00 -1.387181e+00 -1.554099e+00 -1.633396e+00 -1.920615e+00 -2.075525e+00 -2.466041e+00 -2.665550e+00 -3.119138e+00 -3.303313e+00 -3.715852e+00 -3.801849e+00 -4.063569e+00 -3.976071e+00 -4.023164e+00 -3.702852e+00 -3.540291e+00 -2.828939e+00 -2.337383e+00 -2.281070e+00 -2.817706e-01 0 0 0 0 
0 0 0 0 0 -5.351286e+00 -4.747242e+00 -5.578713e-01 -3.811345e+00 -3.224623e+00 -4.040320e+00 -3.513742e+00 -2.370314e+00 4.508680e+00 7.238596e+00 4.810806e+00 4.866396e+00 5.731874e+00 3.938564e+00 6.837935e+00 6.693444e+00 -1.395229e+00 -1.244476e+00 -1.222805e+00 -4.214862e-01 -1.924347e-01 6.048691e-01 9.782561e-01 1.831394e+00 2.250016e+00 3.087195e+00 3.461122e+00 4.029775e+00 4.274459e+00 4.488786e+00 4.511599e+00 4.543670e+00 4.401896e+00 4.376092e+00 4.258773e+00 4.122809e+00 4.132302e+00 3.893766e+00 4.005248e+00 3.828578e+00 4.021986e+00 3.982970e+00 4.326670e+00 4.346509e+00 4.800892e+00 4.903017e+00 5.193466e+00 5.509158e+00 5.486789e+00 5.937283e+00 4.234877e+00 6.218182e+00 7.088183e+00 2.168270e+00 -2.476863e-01 -4.940006e-01 1.880045e+00 2.040371e+00 -4.067516e+00 -4.671011e+00 9.366338e-01 -8.873612e+00 -1.605734e+01 1.190505e+00 4.213668e+00 -5.281198e+00 1.003820e+01 1.743764e+01 1.027779e+01 9.923200e+00 8.458080e+00 7.055778e+00 5.362633e+00 3.685991e+00 1.694939e+00 -5.027028e-02 -2.072657e+00 -3.778971e+00 -5.535291e+00 -7.043717e+00 -8.283067e+00 -9.333774e+00 -9.907606e+00 -1.032671e+01 -1.025291e+01 -1.010281e+01 -9.553997e+00 -9.098713e+00 -8.344351e+00 -7.802682e+00 -7.081493e+00 -6.533550e+00 -5.923930e+00 -5.421240e+00 -4.935975e+00 -4.533068e+00 -4.267115e+00 -4.016793e+00 -4.107555e+00 -4.080053e+00 -4.571133e+00 -4.804394e+00 -5.648980e+00 -6.104341e+00 -7.252409e+00 -7.838963e+00 -9.172825e+00 -9.714610e+00 -1.092831e+01 -1.118146e+01 -1.195146e+01 -1.169399e+01 -1.183215e+01 -1.088994e+01 -1.041203e+01 -8.320231e+00 -6.873787e+00 -6.707827e+00 -8.285521e-01 0 0 0 0 
0 0 0 0 0 -3.697272e+00 -3.286188e+00 -3.954463e-01 -2.637399e+00 -2.228361e+00 -2.791212e+00 -2.427397e+00 -1.637635e+00 2.584784e+01 3.877187e+01 2.740051e+01 2.739041e+01 3.021052e+01 2.340379e+01 3.323431e+01 2.408617e+01 -9.633395e-01 -8.593011e-01 -8.444051e-01 -2.910243e-01 -1.328546e-01 4.178170e-01 6.756781e-01 1.264891e+00 1.553997e+00 2.132193e+00 2.390467e+00 2.783285e+00 2.952332e+00 3.100433e+00 3.116200e+00 3.138323e+00 3.040374e+00 3.022502e+00 2.941471e+00 2.847596e+00 2.854176e+00 2.689456e+00 2.766460e+00 2.644401e+00 2.777953e+00 2.750968e+00 2.988352e+00 3.002085e+00 3.315969e+00 3.386542e+00 3.587175e+00 3.805191e+00 3.789688e+00 4.100756e+00 2.924726e+00 4.466998e+00 5.309368e+00 2.004015e+00 -2.297504e-01 -1.637419e+00 -1.316535e+00 -2.190646e+00 -6.802283e+00 -7.331882e+00 -4.021484e+00 -1.143124e+01 -1.713043e+01 -6.297152e+00 -5.965387e+00 -1.332682e+01 1.832074e+00 1.152984e+01 7.098960e+00 6.854092e+00 5.841983e+00 4.873347e+00 3.703987e+00 2.545979e+00 1.170758e+00 -3.469244e-02 -1.431696e+00 -2.610370e+00 -3.823516e+00 -4.865348e+00 -5.721313e+00 -6.446992e+00 -6.843358e+00 -7.132834e+00 -7.081900e+00 -6.978248e+00 -6.599233e+00 -6.284858e+00 -5.763882e+00 -5.389811e+00 -4.891663e+00 -4.513156e+00 -4.091986e+00 -3.744667e+00 -3.409393e+00 -3.131047e+00 -2.947333e+00 -2.774490e+00 -2.837259e+00 -2.818381e+00 -3.157668e+00 -3.318812e+00 -3.902131e+00 -4.216551e+00 -5.009341e+00 -5.414393e+00 -6.335663e+00 -6.709949e+00 -7.548497e+00 -7.723465e+00 -8.255464e+00 -8.077554e+00 -8.172814e+00 -7.521924e+00 -7.191904e+00 -5.747178e+00 -4.747700e+00 -4.632901e+00 -5.722391e-01 0 0 0 0 
0 0 0 0 0 -1.648411e-01 -1.481016e-01 -2.017044e-02 -1.186258e-01 -9.945919e-02 -1.243697e-01 -1.081503e-01 -7.300175e-02 2.717053e+01 2.967956e+01 2.754249e+01 2.824060e+01 2.843344e+01 2.751881e+01 2.888630e+01 2.721181e+01 -4.278703e-02 -3.817878e-02 -3.753414e-02 -1.292799e-02 -5.897638e-03 1.860410e-02 3.007109e-02 5.628229e-02 6.914005e-02 9.486233e-02 1.063579e-01 1.238534e-01 1.313881e-01 1.379962e-01 1.387003e-01 1.396779e-01 1.353117e-01 1.345042e-01 1.308979e-01 1.267288e-01 1.270278e-01 1.197061e-01 1.231340e-01 1.176931e-01 1.236281e-01 1.224178e-01 1.329804e-01 1.335993e-01 1.475798e-01 1.507295e-01 1.596643e-01 1.693591e-01 1.686558e-01 1.824777e-01 1.300917e-01 1.355028e-01 -7.452266e-01 -1.812225e+00 -2.486093e+00 -3.158756e+00 -3.753802e+00 -4.173896e+00 -4.456735e+00 -4.494883e+00 -4.691292e+00 -5.427335e+00 -5.947415e+00 -6.000097e+00 -6.860963e+00 -7.045623e+00 -3.022107e+00 1.965509e-01 3.159719e-01 3.050854e-01 2.600021e-01 2.168747e-01 1.648550e-01 1.133287e-01 5.212237e-02 -1.536608e-03 -6.374792e-02 -1.162376e-01 -1.702443e-01 -2.166029e-01 -2.546850e-01 -2.869711e-01 -3.046170e-01 -3.175005e-01 -3.152432e-01 -3.106366e-01 -2.937805e-01 -2.798116e-01 -2.566406e-01 -2.400073e-01 -2.178307e-01 -2.009738e-01 -1.822026e-01 -1.667163e-01 -1.517687e-01 -1.393657e-01 -1.311843e-01 -1.235055e-01 -1.263194e-01 -1.255089e-01 -1.406345e-01 -1.478140e-01 -1.737663e-01 -1.877350e-01 -2.229733e-01 -2.409801e-01 -2.819750e-01 -2.986524e-01 -3.360346e-01 -3.438520e-01 -3.675698e-01 -3.596327e-01 -3.638307e-01 -3.348344e-01 -3.201652e-01 -2.558859e-01 -2.112966e-01 -2.061439e-01 -2.545765e-02 0 0 0 0 
0 0 0 0 0 0 0 0 0 0 0 0 0 3.026383e+01 3.313420e+01 3.091182e+01 3.139664e+01 3.189380e+01 3.014234e+01 3.274745e+01 2.979636e+01 0 0 0 0 0 0 0 0 0 0 0 0 0 0 0 0 0 0 0 0 0 0 0 0 0 0 0 0 0 0 0 0 0 0 0 -1.624651e-02 -2.025851e-01 -3.194539e-01 -4.460654e-01 -4.672477e-01 -5.164249e-01 -4.799768e-01 -4.626012e-01 -4.712955e-01 -4.852970e-01 -5.017053e-01 -4.273540e-01 -3.868302e-01 -2.023873e-01 -5.257858e-02 6.153165e-02 1.415132e-02 0 0 0 0 0 0 0 0 0 0 0 0 0 0 0 0 0 0 0 0 0 0 0 0 0 0 0 0 0 0 0 0 0 0 0 0 0 0 0 0 0 0 0 0 0 0 0 0 0 0 0 0 0 0 0 
0 0 0 0 0 0 0 0 0 0 0 0 0 2.935498e+01 3.038122e+01 2.950897e+01 2.989048e+01 2.992099e+01 2.960421e+01 3.045875e+01 2.961982e+01 0 0 0 0 0 0 0 0 0 0 0 0 0 0 0 0 0 0 0 0 0 0 0 0 0 0 0 0 0 0 0 0 0 0 0 2.967116e-02 2.651172e-01 5.951468e-01 6.933282e-01 6.395185e-01 5.197094e-01 4.572642e-01 4.656381e-01 5.374004e-01 5.801586e-01 5.741901e-01 5.610444e-01 4.819764e-01 3.686954e-01 1.783198e-01 4.249435e-02 2.698373e-03 0 0 0 0 0 0 0 0 0 0 0 0 0 0 0 0 0 0 0 0 0 0 0 0 0 0 0 0 0 0 0 0 0 0 0 0 0 0 0 0 0 0 0 0 0 0 0 0 0 0 0 0 0 0 0 
0 0 0 0 0 0 0 0 0 0 0 0 0 3.154316e+01 3.290395e+01 3.189311e+01 3.216896e+01 3.254571e+01 3.164882e+01 3.329991e+01 3.163486e+01 0 0 0 0 0 0 0 0 0 0 0 0 0 0 0 0 0 0 0 0 0 0 0 0 0 0 0 0 0 0 0 0 0 0 0 0 0 0 0 0 0 0 0 0 0 0 0 0 0 0 0 0 0 0 0 0 0 0 0 0 0 0 0 0 0 0 0 0 0 0 0 0 0 0 0 0 0 0 0 0 0 0 0 0 0 0 0 0 0 0 0 0 0 0 0 0 0 0 0 0 0 0 0 0 0 0 0 
0 0 0 0 0 0 0 0 0 0 0 0 0 2.964194e+01 3.061288e+01 2.986658e+01 3.014041e+01 3.031959e+01 2.988974e+01 3.094977e+01 3.009696e+01 0 0 0 0 0 0 0 0 0 0 0 0 0 0 0 0 0 0 0 0 0 0 0 0 0 0 0 0 0 0 0 0 0 0 0 0 0 0 0 0 0 0 0 0 0 0 0 0 0 0 0 0 0 0 0 0 0 0 0 0 0 0 0 0 0 0 0 0 0 0 0 0 0 0 0 0 0 0 0 0 0 0 0 0 0 0 0 0 0 0 0 0 0 0 0 0 0 0 0 0 0 0 0 0 0 0 0 
0 0 0 0 0 0 0 0 0 0 0 0 0 3.041788e+01 3.329434e+01 3.108778e+01 3.150468e+01 3.221388e+01 3.055369e+01 3.355481e+01 3.103733e+01 0 0 0 0 0 0 0 0 0 0 0 0 0 0 0 0 0 0 0 0 0 0 0 0 0 0 0 0 0 0 0 0 0 0 0 0 0 0 0 0 0 0 0 0 0 0 0 0 0 0 0 0 0 0 0 0 0 0 0 0 0 0 0 0 0 0 0 0 0 0 0 0 0 0 0 0 0 0 0 0 0 0 0 0 0 0 0 0 0 0 0 0 0 0 0 0 0 0 0 0 0 0 0 0 0 0 0 
0 0 0 0 0 -1.601816e-01 -1.069350e-01 7.102021e-02 -2.798951e-03 2.681052e-02 6.521356e-03 2.239486e-02 5.000267e-02 2.808612e+01 3.051875e+01 2.871855e+01 2.890955e+01 2.941799e+01 2.775404e+01 3.031710e+01 2.851466e+01 -1.206072e-02 -1.585848e-02 -2.154001e-02 -4.509348e-03 -8.583884e-03 5.431379e-03 8.408852e-04 1.216197e-02 8.778743e-03 2.055958e-02 2.168075e-02 3.663429e-02 4.436270e-02 6.302939e-02 7.777860e-02 9.989397e-02 1.202666e-01 1.433767e-01 1.650484e-01 1.842191e-01 2.029949e-01 2.149340e-01 2.287941e-01 2.319460e-01 2.389428e-01 2.325349e-01 2.319539e-01 2.177676e-01 2.113902e-01 1.927391e-01 1.821709e-01 1.614505e-01 1.475607e-01 1.268706e-01 1.115319e-01 9.295981e-02 7.829822e-02 6.136374e-02 4.724566e-02 3.297812e-02 1.798050e-02 4.461406e-03 -1.202568e-02 -2.514627e-02 -4.026351e-02 -5.348264e-02 -6.847070e-02 -7.711473e-02 -8.738606e-02 -9.429691e-02 -9.721435e-02 -9.681385e-02 -9.430793e-02 -8.580776e-02 -7.391167e-02 -5.736850e-02 -3.754424e-02 -1.548895e-02 8.532544e-03 3.152139e-02 5.423099e-02 7.149075e-02 8.581653e-02 9.090089e-02 9.172788e-02 8.183277e-02 6.792360e-02 4.366022e-02 1.638857e-02 -1.978179e-02 -5.710629e-02 -1.007152e-01 -1.435250e-01 -1.897181e-01 -2.344360e-01 -2.794751e-01 -3.228763e-01 -3.626851e-01 -4.003629e-01 -4.290636e-01 -4.552299e-01 -4.663890e-01 -4.762165e-01 -4.660519e-01 -4.580718e-01 -4.276644e-01 -4.057179e-01 -3.615205e-01 -3.326560e-01 -2.814983e-01 -2.506704e-01 -1.971803e-01 -1.675828e-01 -1.168717e-01 -9.258646e-02 -5.074238e-02 -3.650137e-02 -7.689939e-03 -8.128536e-03 2.250785e-02 -1.198868e-02 -1.319360e-01 -2.011886e-02 0 0 0 0 
0 0 0 0 0 -3.592836e+00 -2.361765e+00 1.652270e+00 -3.681879e-02 6.069574e-01 1.478932e-01 5.038856e-01 1.124366e+00 2.493725e+01 3.771004e+01 2.678413e+01 2.587128e+01 2.943400e+01 2.247770e+01 3.510247e+01 2.884764e+01 -2.728681e-01 -3.580390e-01 -4.850767e-01 -1.020270e-01 -1.933456e-01 1.219528e-01 1.882630e-02 2.732569e-01 1.973055e-01 4.618061e-01 4.869807e-01 8.231002e-01 9.966838e-01 1.416531e+00 1.748008e+00 2.244761e+00 2.702406e+00 3.220839e+00 3.707529e+00 4.138321e+00 4.560552e+00 4.829912e+00 5.141942e+00 5.213015e+00 5.369924e+00 5.224884e+00 5.210975e+00 4.891715e+00 4.748422e+00 4.329995e+00 4.093157e+00 3.628053e+00 3.316148e+00 2.851127e+00 2.506244e+00 2.088724e+00 1.759128e+00 1.378572e+00 1.061354e+00 7.407982e-01 4.038529e-01 1.001701e-01 -2.701725e-01 -5.649296e-01 -9.045675e-01 -1.201686e+00 -1.538566e+00 -1.732850e+00 -1.963570e+00 -2.118552e+00 -2.183740e+00 -2.174397e+00 -2.117970e+00 -1.927111e+00 -1.660086e+00 -1.288684e+00 -8.434350e-01 -3.479923e-01 1.916827e-01 7.080876e-01 1.218206e+00 1.605977e+00 1.927959e+00 2.042381e+00 2.061046e+00 1.838616e+00 1.525791e+00 9.805572e-01 3.678816e-01 -4.442277e-01 -1.282241e+00 -2.261966e+00 -3.223987e+00 -4.262872e+00 -5.268172e+00 -6.280203e+00 -7.254429e+00 -8.146864e+00 -8.991486e+00 -9.634870e+00 -1.022259e+01 -1.047399e+01 -1.069582e+01 -1.046772e+01 -1.028819e+01 -9.604147e+00 -9.110443e+00 -8.117896e+00 -7.470686e+00 -6.323253e+00 -5.632798e+00 -4.432124e+00 -3.767637e+00 -2.628775e+00 -2.082366e+00 -1.143197e+00 -8.225327e-01 -1.752414e-01 -1.838186e-01 5.060157e-01 -2.717471e-01 -2.965987e+00 -4.522005e-01 0 0 0 0 
0 0 0 0 0 -5.200148e+00 -3.408992e+00 2.406517e+00 -4.668994e-02 8.799138e-01 2.144676e-01 7.297070e-01 1.628085e+00 8.085715e+00 1.039012e+01 7.711715e+00 7.634700e+00 8.609555e+00 6.681157e+00 9.263453e+00 8.507133e+00 -3.955372e-01 -5.188076e-01 -7.025766e-01 -1.478950e-01 -2.800480e-01 1.765430e-01 2.723975e-02 3.956214e-01 2.856750e-01 6.685701e-01 7.050138e-01 1.191683e+00 1.442983e+00 2.050950e+00 2.530885e+00 3.250049e+00 3.912604e+00 4.662987e+00 5.367558e+00 5.991274e+00 6.602675e+00 6.992936e+00 7.444850e+00 7.547814e+00 7.774912e+00 7.564652e+00 7.544298e+00 7.081942e+00 6.874482e+00 6.268842e+00 5.926102e+00 5.252838e+00 4.801305e+00 4.128009e+00 3.628624e+00 3.024078e+00 2.546844e+00 1.995857e+00 1.536585e+00 1.072487e+00 5.846639e-01 1.450087e-01 -3.911502e-01 -8.178898e-01 -1.309613e+00 -1.739809e+00 -2.227575e+00 -2.508877e+00 -2.842900e+00 -3.067209e+00 -3.161496e+00 -3.147882e+00 -3.066155e+00 -2.789860e+00 -2.403328e+00 -1.865685e+00 -1.221096e+00 -5.038193e-01 2.775113e-01 1.025134e+00 1.763651e+00 2.325060e+00 2.791254e+00 2.956962e+00 2.984006e+00 2.661945e+00 2.208958e+00 1.419547e+00 5.325329e-01 -6.430940e-01 -1.856218e+00 -3.274641e+00 -4.667498e+00 -6.171851e+00 -7.627470e+00 -9.092712e+00 -1.050296e+01 -1.179452e+01 -1.301688e+01 -1.394800e+01 -1.479884e+01 -1.516300e+01 -1.548442e+01 -1.515425e+01 -1.489426e+01 -1.390370e+01 -1.318876e+01 -1.175187e+01 -1.081518e+01 -9.154428e+00 -8.155343e+00 -6.417299e+00 -5.455386e+00 -3.806674e+00 -3.015387e+00 -1.655909e+00 -1.191476e+00 -2.543393e-01 -2.664334e-01 7.326872e-01 -3.940405e-01 -4.294570e+00 -6.547384e-01 0 0 0 0 
0 0 0 0 0 -1.767494e+00 -1.154162e+00 8.252669e-01 -1.267010e-02 2.997669e-01 7.309574e-02 2.482162e-01 5.537220e-01 2.749337e+00 3.532784e+00 2.622250e+00 2.596117e+00 2.927723e+00 2.271975e+00 3.149974e+00 2.892631e+00 -1.347298e-01 -1.766271e-01 -2.390399e-01 -5.037736e-02 -9.528635e-02 6.002152e-02 9.254337e-03 1.345265e-01 9.714827e-02 2.273236e-01 2.397138e-01 4.052175e-01 4.906617e-01 6.974483e-01 8.606556e-01 1.105182e+00 1.330465e+00 1.585525e+00 1.825077e+00 2.037172e+00 2.245118e+00 2.377958e+00 2.531702e+00 2.566745e+00 2.643931e+00 2.572303e+00 2.565277e+00 2.407994e+00 2.337449e+00 2.131586e+00 2.015116e+00 1.786236e+00 1.632718e+00 1.403753e+00 1.233912e+00 1.028314e+00 8.660139e-01 6.786487e-01 5.224771e-01 3.646673e-01 1.987915e-01 4.929999e-02 -1.330033e-01 -2.781065e-01 -4.453089e-01 -5.916053e-01 -7.574803e-01 -8.531422e-01 -9.667156e-01 -1.042953e+00 -1.074970e+00 -1.070298e+00 -1.042493e+00 -9.485572e-01 -8.171532e-01 -6.343701e-01 -4.152054e-01 -1.713160e-01 9.436107e-02 3.485677e-01 5.996765e-01 7.905744e-01 9.491112e-01 1.005481e+00 1.014688e+00 9.051616e-01 7.510904e-01 4.826505e-01 1.810399e-01 -2.186480e-01 -6.310831e-01 -1.113390e+00 -1.587036e+00 -2.098698e+00 -2.593735e+00 -3.091984e+00 -3.571410e+00 -4.010345e+00 -4.425755e+00 -4.742191e+00 -5.031488e+00 -5.155398e+00 -5.264820e+00 -5.152582e+00 -5.064149e+00 -4.727215e+00 -4.484034e+00 -3.995497e+00 -3.677148e+00 -3.112673e+00 -2.773216e+00 -2.182355e+00 -1.855331e+00 -1.294770e+00 -1.025608e+00 -5.634550e-01 -4.054442e-01 -8.678789e-02 -9.074331e-02 2.491794e-01 -1.342821e-01 -1.460519e+00 -2.226567e-01 0 0 0 0 
0 0 0 0 0 0 0 0 0 0 0 0 0 0 0 0 0 0 0 0 0 0 0 0 0 0 0 0 0 0 0 0 0 0 0 0 0 0 0 0 0 0 0 0 0 0 0 0 0 0 0 0 0 0 0 0 0 0 0 0 0 0 0 0 0 0 0 0 0 0 0 0 0 0 0 0 0 0 0 0 0 0 0 0 0 0 0 0 0 0 0 0 0 0 0 0 0 0 0 0 0 0 0 0 0 0 0 0 0 0 0 0 0 0 0 0 0 0 0 0 0 0 0 0 0 0 0 0 
