# vtk DataFile Version 2.0
Comment goes here
ASCII

DATASET STRUCTURED_POINTS
FIELD FieldData 1
TIME 1 1 double
0.93000000
DIMENSIONS    128   16   1

ORIGIN    0.000   0.000   0.000
SPACING   0.0078125 0.015625   1.000

POINT_DATA   2048
SCALARS fX double
LOOKUP_TABLE default

0 0 0 0 0 0 0 0 0 0 0 0 0 0 0 0 0 0 0 0 0 0 0 0 0 0 0 0 0 0 0 0 0 0 0 0 0 0 0 0 0 0 0 0 0 0 0 0 0 0 0 0 0 0 0 0 0 0 0 0 0 0 0 0 0 0 0 0 0 0 0 0 0 0 0 0 0 0 0 0 0 0 0 0 0 0 0 0 0 0 0 0 0 0 0 0 0 0 0 0 0 0 0 0 0 0 0 0 0 0 0 0 0 0 0 0 0 0 0 0 0 0 0 0 0 0 0 0 
0 0 0 0 0 0 0 0 0 0 0 0 0 0 0 0 0 0 0 0 0 0 0 0 0 0 0 0 0 0 0 0 0 0 0 0 0 0 0 0 0 0 0 0 0 0 0 0 0 0 0 0 0 0 0 0 0 0 0 0 0 0 0 0 0 0 0 0 0 0 0 0 0 0 0 0 0 0 0 0 0 0 0 0 0 0 0 0 0 0 0 0 0 0 0 0 0 0 0 0 0 0 0 0 0 0 0 0 0 0 0 0 0 0 0 0 0 0 0 0 0 0 0 0 0 0 0 0 
0 0 0 0 0 -1.746025e+00 4.061155e-01 1.189411e+00 -1.970546e-01 3.222379e-01 -8.124624e-02 2.545670e-01 -6.581057e-01 -9.043810e-01 -1.147481e+00 -1.127147e+00 -1.780586e+00 -1.165147e+00 -1.685992e+00 -1.311037e+00 -4.820101e-01 -5.383092e-01 2.514476e-01 1.079639e-01 1.827076e-01 5.218137e-02 1.142311e-01 -1.222251e-02 4.193811e-02 -7.149642e-02 -2.078001e-02 -1.137985e-01 -6.513453e-02 -1.362791e-01 -9.167055e-02 -1.436496e-01 -1.063198e-01 -1.423351e-01 -1.145547e-01 -1.352499e-01 -1.172233e-01 -1.199932e-01 -1.090747e-01 -9.295542e-02 -8.449735e-02 -5.557036e-02 -4.499113e-02 -1.697149e-02 -1.341096e-03 1.167450e-02 3.404354e-02 2.693320e-02 6.058572e-02 3.294084e-02 8.730524e-02 -6.057267e-01 -1.362109e+00 -1.963586e+00 -1.359561e+00 -1.010301e+00 -2.052078e+00 -1.698676e+00 -8.749499e-01 -8.533837e-01 -1.581277e+00 -9.349571e-02 3.144247e-01 -1.991963e+00 -1.673268e-01 2.319128e+00 -1.085388e+00 -7.256483e-02 2.702576e+00 1.948629e+00 1.911185e+00 1.616618e+00 1.480659e+00 1.205095e+00 1.035075e+00 7.705657e-01 6.021529e-01 3.711808e-01 2.373742e-01 6.487740e-02 -1.849971e-02 -1.149100e-01 -1.456353e-01 -1.612468e-01 -1.400700e-01 -8.301658e-02 -1.153671e-02 9.872407e-02 2.100990e-01 3.453493e-01 4.722432e-01 5.984213e-01 7.112044e-01 7.937965e-01 8.687575e-01 8.813485e-01 9.061854e-01 8.372333e-01 8.122648e-01 6.647957e-01 5.993653e-01 3.853076e-01 2.900170e-01 2.665825e-02 -8.793768e-02 -3.753736e-01 -4.940926e-01 -7.688138e-01 -8.682311e-01 -1.084009e+00 -1.140013e+00 -1.253193e+00 -1.253108e+00 -1.236616e+00 -1.181672e+00 -1.032520e+00 -8.397431e-01 -1.499135e-01 -5.328195e-01 -1.959148e-01 0 0 0 0 
0 0 0 0 0 -5.136092e+00 1.186330e+00 3.484590e+00 -5.876823e-01 9.450711e-01 -2.401713e-01 7.482033e-01 -1.935800e+00 -2.660014e+00 -3.375008e+00 -3.315208e+00 -5.237312e+00 -3.427048e+00 -4.959048e+00 -3.855933e+00 -1.417326e+00 -1.582875e+00 7.401020e-01 3.179813e-01 5.377739e-01 1.537925e-01 3.362768e-01 -3.575744e-02 1.235220e-01 -2.101844e-01 -6.104737e-02 -3.346849e-01 -1.915726e-01 -4.008605e-01 -2.696467e-01 -4.225418e-01 -3.127352e-01 -4.186708e-01 -3.369635e-01 -3.978262e-01 -3.447777e-01 -3.529081e-01 -3.207644e-01 -2.733493e-01 -2.484895e-01 -1.634185e-01 -1.323264e-01 -4.991478e-02 -3.937632e-03 3.432473e-02 1.001066e-01 7.919989e-02 1.782112e-01 9.694866e-02 2.567928e-01 -1.781993e+00 -3.401963e+00 -2.995319e+00 -3.306839e-02 -2.025250e-01 -4.658320e+00 -4.260586e+00 -2.067024e+00 -1.763425e+00 -3.198368e+00 2.016741e+00 4.208931e+00 -1.966678e+00 3.480793e+00 1.006907e+01 -1.634404e+00 9.922104e-02 8.002867e+00 5.731602e+00 5.621532e+00 4.754763e+00 4.354759e+00 3.544367e+00 3.044385e+00 2.266486e+00 1.771228e+00 1.091816e+00 6.981364e-01 1.907371e-01 -5.445787e-02 -3.379903e-01 -4.283541e-01 -4.743184e-01 -4.120411e-01 -2.442518e-01 -3.399310e-02 2.903684e-01 6.179407e-01 1.015749e+00 1.388967e+00 1.760097e+00 2.091833e+00 2.334788e+00 2.555283e+00 2.592329e+00 2.665409e+00 2.462611e+00 2.389195e+00 1.955443e+00 1.763021e+00 1.133469e+00 8.532763e-01 7.882185e-02 -2.581317e-01 -1.103404e+00 -1.452509e+00 -2.260526e+00 -2.552925e+00 -3.187636e+00 -3.352453e+00 -3.685425e+00 -3.685340e+00 -3.637029e+00 -3.475528e+00 -3.036500e+00 -2.465459e+00 -4.335389e-01 -1.563636e+00 -5.760664e-01 0 0 0 0 
0 0 0 0 0 -3.548147e+00 8.155275e-01 2.400380e+00 -4.098763e-01 6.515129e-01 -1.664875e-01 5.165737e-01 -1.337263e+00 -8.443869e+00 -7.139476e+00 -1.076393e+01 -1.543328e+01 -1.100447e+01 -1.493815e+01 -1.098382e+01 -4.433296e+00 -1.093195e+00 5.114978e-01 2.198615e-01 3.716648e-01 1.063874e-01 2.324327e-01 -2.460711e-02 8.540845e-02 -1.451384e-01 -4.213487e-02 -2.311782e-01 -1.323304e-01 -2.769167e-01 -1.862738e-01 -2.918949e-01 -2.160387e-01 -2.892186e-01 -2.327785e-01 -2.748172e-01 -2.381595e-01 -2.437677e-01 -2.215494e-01 -1.887945e-01 -1.716305e-01 -1.128710e-01 -9.140533e-02 -3.447837e-02 -2.716669e-03 2.370425e-02 6.913899e-02 5.470048e-02 1.231095e-01 6.699897e-02 1.773878e-01 -1.231140e+00 -2.130408e+00 -1.421256e+00 6.474050e-01 -2.484440e-01 -3.967602e+00 -3.941648e+00 -2.356276e+00 -1.722833e+00 -1.938973e+00 2.435302e+00 4.561306e+00 6.369469e-01 4.249028e+00 7.753367e+00 -1.649280e+00 -3.986885e-01 5.472143e+00 3.959313e+00 3.883310e+00 3.284390e+00 3.008024e+00 2.448285e+00 2.102954e+00 1.565649e+00 1.223581e+00 7.542324e-01 4.822320e-01 1.317150e-01 -3.763996e-02 -2.334789e-01 -2.958961e-01 -3.276698e-01 -2.846549e-01 -1.687602e-01 -2.351085e-02 2.005760e-01 4.268485e-01 7.016437e-01 9.594479e-01 1.215817e+00 1.444977e+00 1.612818e+00 1.765137e+00 1.790733e+00 1.841229e+00 1.701145e+00 1.650443e+00 1.350816e+00 1.217909e+00 7.830549e-01 5.895455e-01 5.464803e-02 -1.780600e-01 -7.618768e-01 -1.002991e+00 -1.561140e+00 -1.763116e+00 -2.201581e+00 -2.315477e+00 -2.545523e+00 -2.545545e+00 -2.512269e+00 -2.400759e+00 -2.097329e+00 -1.700914e+00 -2.958917e-01 -1.078407e+00 -3.978479e-01 0 0 0 0 
0 0 0 0 0 -1.580794e-01 3.531346e-02 1.052004e-01 -1.924862e-02 2.867959e-02 -7.562395e-03 2.293739e-02 -5.956897e-02 -1.092930e+01 -1.216241e+01 -1.137507e+01 -1.247742e+01 -1.178431e+01 -1.201885e+01 -1.236653e+01 -1.080059e+01 -4.862960e-02 2.284346e-02 9.844113e-03 1.659840e-02 4.776300e-03 1.038696e-02 -1.072172e-03 3.824525e-03 -6.450454e-03 -1.867509e-03 -1.029177e-02 -5.892402e-03 -1.233529e-02 -8.297693e-03 -1.300267e-02 -9.623345e-03 -1.288289e-02 -1.036974e-02 -1.224090e-02 -1.060506e-02 -1.085277e-02 -9.859686e-03 -8.400531e-03 -7.638332e-03 -5.022942e-03 -4.070006e-03 -1.535070e-03 -1.201334e-04 1.054013e-03 3.075946e-03 2.433784e-03 5.483971e-03 2.991155e-03 7.900212e-03 -5.487421e-02 -1.127031e-01 -7.447908e-01 -1.309847e+00 -1.833700e+00 -2.066945e+00 -2.051024e+00 -1.789580e+00 -1.423611e+00 -9.767880e-01 -3.961292e-01 -1.776586e-01 -3.021776e-01 -3.675311e-01 -8.333205e-01 -1.703715e+00 -7.604232e-01 1.503922e-01 1.763403e-01 1.729633e-01 1.462461e-01 1.339249e-01 1.090124e-01 9.364506e-02 6.972877e-02 5.450644e-02 3.359735e-02 2.146978e-02 5.855257e-03 -1.681795e-03 -1.039865e-02 -1.317736e-02 -1.459812e-02 -1.268368e-02 -7.524993e-03 -1.054463e-03 8.931589e-03 1.900682e-02 3.124436e-02 4.272389e-02 5.414163e-02 6.434816e-02 7.182621e-02 7.861132e-02 7.975269e-02 8.200486e-02 7.576751e-02 7.351250e-02 6.016848e-02 5.425288e-02 3.489352e-02 2.628611e-02 2.484436e-03 -7.865996e-03 -3.384628e-02 -4.457404e-02 -6.942866e-02 -7.842161e-02 -9.795399e-02 -1.030375e-01 -1.132920e-01 -1.133134e-01 -1.118558e-01 -1.069026e-01 -9.334911e-02 -7.519902e-02 -1.226629e-02 -4.759044e-02 -1.769631e-02 0 0 0 0 
0 0 0 0 0 0 0 0 0 0 0 0 0 -1.181175e+01 -1.269822e+01 -1.219554e+01 -1.314086e+01 -1.256811e+01 -1.274837e+01 -1.299991e+01 -1.151005e+01 0 0 0 0 0 0 0 0 0 0 0 0 0 0 0 0 0 0 0 0 0 0 0 0 0 0 0 0 0 0 0 0 0 0 0 -1.510051e-02 -2.691840e-01 -4.137540e-01 -5.057735e-01 -4.452398e-01 -4.409094e-01 -4.157027e-01 -4.223983e-01 -4.521724e-01 -4.614763e-01 -5.363384e-01 -5.501405e-01 -6.096461e-01 -5.875025e-01 -4.992865e-01 -1.698314e-01 -1.997562e-02 0 0 0 0 0 0 0 0 0 0 0 0 0 0 0 0 0 0 0 0 0 0 0 0 0 0 0 0 0 0 0 0 0 0 0 0 0 0 0 0 0 0 0 0 0 0 0 0 0 0 0 0 0 0 0 
0 0 0 0 0 0 0 0 0 0 0 0 0 -1.238632e+01 -1.298426e+01 -1.245183e+01 -1.284908e+01 -1.264333e+01 -1.266332e+01 -1.291040e+01 -1.249866e+01 0 0 0 0 0 0 0 0 0 0 0 0 0 0 0 0 0 0 0 0 0 0 0 0 0 0 0 0 0 0 0 0 0 0 0 7.048281e-03 8.608485e-02 2.170054e-01 2.717074e-01 2.603464e-01 2.303767e-01 2.096753e-01 1.884209e-01 2.027338e-01 2.597184e-01 3.081203e-01 3.636996e-01 3.587926e-01 2.492459e-01 1.041646e-01 2.011749e-02 1.484511e-03 0 0 0 0 0 0 0 0 0 0 0 0 0 0 0 0 0 0 0 0 0 0 0 0 0 0 0 0 0 0 0 0 0 0 0 0 0 0 0 0 0 0 0 0 0 0 0 0 0 0 0 0 0 0 0 
0 0 0 0 0 0 0 0 0 0 0 0 0 -1.265461e+01 -1.322948e+01 -1.275037e+01 -1.315065e+01 -1.297337e+01 -1.292780e+01 -1.324597e+01 -1.264082e+01 0 0 0 0 0 0 0 0 0 0 0 0 0 0 0 0 0 0 0 0 0 0 0 0 0 0 0 0 0 0 0 0 0 0 0 0 0 0 0 0 0 0 0 0 0 0 0 0 0 0 0 0 0 0 0 0 0 0 0 0 0 0 0 0 0 0 0 0 0 0 0 0 0 0 0 0 0 0 0 0 0 0 0 0 0 0 0 0 0 0 0 0 0 0 0 0 0 0 0 0 0 0 0 0 0 0 0 
0 0 0 0 0 0 0 0 0 0 0 0 0 -1.240089e+01 -1.299976e+01 -1.246247e+01 -1.286226e+01 -1.263918e+01 -1.266165e+01 -1.286610e+01 -1.246198e+01 0 0 0 0 0 0 0 0 0 0 0 0 0 0 0 0 0 0 0 0 0 0 0 0 0 0 0 0 0 0 0 0 0 0 0 0 0 0 0 0 0 0 0 0 0 0 0 0 0 0 0 0 0 0 0 0 0 0 0 0 0 0 0 0 0 0 0 0 0 0 0 0 0 0 0 0 0 0 0 0 0 0 0 0 0 0 0 0 0 0 0 0 0 0 0 0 0 0 0 0 0 0 0 0 0 0 0 
0 0 0 0 0 0 0 0 0 0 0 0 0 -1.184295e+01 -1.271134e+01 -1.223447e+01 -1.317578e+01 -1.261959e+01 -1.280278e+01 -1.302160e+01 -1.155976e+01 0 0 0 0 0 0 0 0 0 0 0 0 0 0 0 0 0 0 0 0 0 0 0 0 0 0 0 0 0 0 0 0 0 0 0 0 0 0 0 0 0 0 0 0 0 0 0 0 0 0 0 0 0 0 0 0 0 0 0 0 0 0 0 0 0 0 0 0 0 0 0 0 0 0 0 0 0 0 0 0 0 0 0 0 0 0 0 0 0 0 0 0 0 0 0 0 0 0 0 0 0 0 0 0 0 0 0 
0 0 0 0 0 -1.574045e-01 3.707507e-02 1.082646e-01 -1.707789e-02 2.902326e-02 -9.425819e-03 1.894682e-02 -6.587948e-02 -1.097664e+01 -1.222274e+01 -1.145481e+01 -1.257169e+01 -1.187855e+01 -1.210047e+01 -1.238037e+01 -1.074429e+01 -7.066120e-02 2.748311e-03 -7.824868e-03 4.003304e-03 -3.899759e-03 7.725097e-03 5.601358e-04 1.115410e-02 4.360370e-03 1.347745e-02 7.242681e-03 1.476024e-02 9.362809e-03 1.507823e-02 1.042121e-02 1.391410e-02 9.675675e-03 1.069286e-02 6.766273e-03 5.495586e-03 2.080192e-03 -1.007354e-03 -3.661292e-03 -8.016279e-03 -9.703391e-03 -1.461296e-02 -1.507768e-02 -1.970058e-02 -1.881304e-02 -2.258109e-02 -2.062523e-02 -2.352471e-02 -2.113285e-02 -2.341943e-02 -2.110666e-02 -2.278283e-02 -2.033587e-02 -2.088544e-02 -1.794735e-02 -1.861184e-02 -1.641632e-02 -1.687249e-02 -1.530416e-02 -1.586196e-02 -1.353960e-02 -1.243996e-02 -9.870783e-03 -6.497931e-03 -1.880640e-04 4.943151e-03 1.439447e-02 2.611165e-02 3.767107e-02 5.313015e-02 6.773672e-02 8.541166e-02 1.013823e-01 1.188604e-01 1.335925e-01 1.478061e-01 1.584179e-01 1.665205e-01 1.708596e-01 1.712117e-01 1.684408e-01 1.609194e-01 1.512706e-01 1.368040e-01 1.210750e-01 1.011771e-01 8.068484e-02 5.752368e-02 3.438184e-02 1.095551e-02 -1.205546e-02 -3.232047e-02 -5.244937e-02 -6.652006e-02 -8.175500e-02 -8.766154e-02 -9.705624e-02 -9.411060e-02 -9.769586e-02 -8.638084e-02 -8.487145e-02 -6.658257e-02 -6.103185e-02 -3.783297e-02 -2.947648e-02 -4.100779e-03 5.537908e-03 2.963640e-02 3.879315e-02 5.774705e-02 6.484342e-02 7.519839e-02 7.939108e-02 7.927964e-02 8.046110e-02 7.865021e-02 9.674639e-02 -6.822097e-03 -1.465655e-02 0 0 0 0 
0 0 0 0 0 -3.532989e+00 8.550291e-01 2.469095e+00 -3.611890e-01 6.592047e-01 -2.083493e-01 4.269298e-01 -1.479010e+00 -8.582239e+00 -7.290024e+00 -1.091519e+01 -1.560613e+01 -1.137575e+01 -1.525342e+01 -1.172933e+01 -4.975522e+00 -1.587619e+00 6.046340e-02 -1.766863e-01 8.899573e-02 -8.824946e-02 1.728829e-01 1.216939e-02 2.501352e-01 9.772569e-02 3.024739e-01 1.625666e-01 3.313486e-01 2.101918e-01 3.384868e-01 2.339154e-01 3.123070e-01 2.171107e-01 2.399323e-01 1.517420e-01 1.231986e-01 4.651283e-02 -2.281865e-02 -8.237451e-02 -1.801431e-01 -2.179758e-01 -3.281598e-01 -3.385803e-01 -4.423223e-01 -4.223966e-01 -5.069717e-01 -4.630545e-01 -5.281433e-01 -4.744309e-01 -5.257640e-01 -4.738319e-01 -5.114644e-01 -4.565333e-01 -4.688785e-01 -4.029205e-01 -4.178422e-01 -3.685534e-01 -3.787944e-01 -3.435889e-01 -3.561148e-01 -3.039823e-01 -2.793018e-01 -2.216174e-01 -1.458881e-01 -4.206157e-03 1.110109e-01 3.232097e-01 5.862675e-01 8.457783e-01 1.192838e+00 1.520820e+00 1.917710e+00 2.276385e+00 2.668887e+00 2.999681e+00 3.318792e+00 3.556936e+00 3.738774e+00 3.836095e+00 3.844029e+00 3.781855e+00 3.613096e+00 3.396513e+00 3.071727e+00 2.718554e+00 2.271725e+00 1.811585e+00 1.291487e+00 7.719069e-01 2.458961e-01 -2.707236e-01 -7.257421e-01 -1.177695e+00 -1.493654e+00 -1.835805e+00 -1.968459e+00 -2.179507e+00 -2.113372e+00 -2.193954e+00 -1.939956e+00 -1.906175e+00 -1.495774e+00 -1.371401e+00 -8.508107e-01 -6.635353e-01 -9.391702e-02 1.223205e-01 6.633575e-01 8.690805e-01 1.294668e+00 1.454368e+00 1.687225e+00 1.781920e+00 1.780045e+00 1.805542e+00 1.754108e+00 2.152272e+00 -1.629123e-01 -3.295089e-01 0 0 0 0 
0 0 0 0 0 -5.114149e+00 1.243500e+00 3.584043e+00 -5.172144e-01 9.561998e-01 -3.007774e-01 6.184212e-01 -2.141012e+00 -2.902458e+00 -3.658578e+00 -3.633939e+00 -5.581762e+00 -3.837931e+00 -5.404945e+00 -4.452433e+00 -2.088086e+00 -2.298553e+00 8.721262e-02 -2.560287e-01 1.286067e-01 -1.279272e-01 2.501259e-01 1.751334e-02 3.620249e-01 1.414254e-01 4.378356e-01 2.353225e-01 4.796539e-01 3.042717e-01 4.899868e-01 3.386044e-01 4.520776e-01 3.142608e-01 3.472937e-01 2.196201e-01 1.782967e-01 6.728413e-02 -3.308386e-02 -1.192903e-01 -2.608193e-01 -3.155748e-01 -4.750675e-01 -4.901491e-01 -6.403147e-01 -6.114704e-01 -7.338963e-01 -6.703200e-01 -7.645410e-01 -6.867833e-01 -7.610927e-01 -6.859134e-01 -7.403907e-01 -6.608735e-01 -6.787462e-01 -5.832663e-01 -6.048678e-01 -5.335179e-01 -5.483427e-01 -4.973803e-01 -5.155135e-01 -4.400479e-01 -4.043222e-01 -3.208169e-01 -2.111892e-01 -6.084779e-03 1.607083e-01 4.678904e-01 8.486933e-01 1.224360e+00 1.726762e+00 2.201565e+00 2.776123e+00 3.295373e+00 3.863588e+00 4.342458e+00 4.804405e+00 5.149119e+00 5.412329e+00 5.553188e+00 5.564680e+00 5.474686e+00 5.230415e+00 4.916899e+00 4.446738e+00 3.935471e+00 3.288614e+00 2.622494e+00 1.869570e+00 1.117417e+00 3.559439e-01 -3.919181e-01 -1.050618e+00 -1.704879e+00 -2.162277e+00 -2.657604e+00 -2.849647e+00 -3.155194e+00 -3.059457e+00 -3.176130e+00 -2.808449e+00 -2.759575e+00 -2.165527e+00 -1.985547e+00 -1.232000e+00 -9.609847e-01 -1.364248e-01 1.765612e-01 9.597702e-01 1.257613e+00 1.873710e+00 2.104989e+00 2.442170e+00 2.579394e+00 2.576839e+00 2.613488e+00 2.536297e+00 3.110623e+00 -2.383078e-01 -4.771147e-01 0 0 0 0 
0 0 0 0 0 -1.738565e+00 4.255460e-01 1.223212e+00 -1.731033e-01 3.260184e-01 -1.018539e-01 2.104382e-01 -7.278812e-01 -9.868125e-01 -1.243893e+00 -1.235511e+00 -1.897689e+00 -1.304831e+00 -1.837564e+00 -1.513802e+00 -7.100245e-01 -7.815954e-01 2.949753e-02 -8.716726e-02 4.361428e-02 -4.357749e-02 8.496808e-02 5.904086e-03 1.230437e-01 4.806010e-02 1.488392e-01 7.999863e-02 1.630655e-01 1.034427e-01 1.665783e-01 1.151102e-01 1.536848e-01 1.068258e-01 1.180543e-01 7.464438e-02 6.059364e-02 2.285150e-02 -1.127256e-02 -4.057704e-02 -8.869250e-02 -1.073024e-01 -1.615207e-01 -1.666465e-01 -2.176930e-01 -2.078868e-01 -2.495057e-01 -2.278907e-01 -2.599224e-01 -2.334853e-01 -2.587482e-01 -2.331882e-01 -2.517092e-01 -2.246761e-01 -2.307532e-01 -1.982932e-01 -2.056375e-01 -1.813808e-01 -1.864208e-01 -1.690955e-01 -1.752607e-01 -1.496052e-01 -1.374604e-01 -1.090703e-01 -7.179911e-02 -2.066686e-03 5.464054e-02 1.590752e-01 2.885375e-01 4.162532e-01 5.870550e-01 7.484813e-01 9.438245e-01 1.120370e+00 1.313561e+00 1.476369e+00 1.633419e+00 1.750600e+00 1.840076e+00 1.887952e+00 1.891863e+00 1.861272e+00 1.778239e+00 1.671657e+00 1.511815e+00 1.337993e+00 1.118066e+00 8.915944e-01 6.356071e-01 3.798923e-01 1.210034e-01 -1.332499e-01 -3.571965e-01 -5.796326e-01 -7.351430e-01 -9.035547e-01 -9.688501e-01 -1.072744e+00 -1.040195e+00 -1.079872e+00 -9.548744e-01 -9.382716e-01 -7.363362e-01 -6.751778e-01 -4.190225e-01 -3.269258e-01 -4.660856e-02 5.977862e-02 3.260491e-01 4.273256e-01 6.367889e-01 7.154641e-01 8.301431e-01 8.768652e-01 8.760741e-01 8.884071e-01 8.608388e-01 1.055096e+00 -8.221758e-02 -1.622623e-01 0 0 0 0 
0 0 0 0 0 0 0 0 0 0 0 0 0 0 0 0 0 0 0 0 0 0 0 0 0 0 0 0 0 0 0 0 0 0 0 0 0 0 0 0 0 0 0 0 0 0 0 0 0 0 0 0 0 0 0 0 0 0 0 0 0 0 0 0 0 0 0 0 0 0 0 0 0 0 0 0 0 0 0 0 0 0 0 0 0 0 0 0 0 0 0 0 0 0 0 0 0 0 0 0 0 0 0 0 0 0 0 0 0 0 0 0 0 0 0 0 0 0 0 0 0 0 0 0 0 0 0 0 
