# vtk DataFile Version 2.0
Comment goes here
ASCII

DATASET STRUCTURED_POINTS
FIELD FieldData 1
TIME 1 1 double
0.21000000
DIMENSIONS    128   16   1

ORIGIN    0.000   0.000   0.000
SPACING   0.0078125 0.015625   1.000

POINT_DATA   2048
SCALARS Omega double
LOOKUP_TABLE default

2.259342e-04 -2.802988e-04 -7.722968e-04 -1.439371e-03 -1.959466e-03 -1.606113e-03 -2.344502e-04 -8.384579e-04 -2.162821e-04 -7.645218e-04 -7.795649e-04 -1.755847e-03 -3.323620e-03 -6.521346e-03 -5.666035e-03 -6.410294e-03 -4.439450e-03 -4.429637e-03 -6.858749e-03 -4.786568e-03 -6.005547e-03 -9.645038e-03 -5.950889e-03 -1.822797e-03 -1.322687e-03 4.241008e-05 5.991669e-04 -3.476628e-03 -3.568021e-03 -4.433297e-03 -4.779269e-03 2.031211e-03 2.433208e-03 2.652367e-03 3.384506e-03 -3.959032e-03 -3.462591e-03 -9.969219e-03 -1.606894e-02 -1.540054e-02 -1.580480e-02 -9.673610e-03 -5.007013e-03 -4.617374e-03 -6.546938e-03 -1.343688e-02 -1.175894e-02 -3.268428e-03 4.340623e-02 1.290891e-01 2.864426e-01 5.423838e-01 8.620279e-01 1.220340e+00 1.472721e+00 1.473098e+00 1.182012e+00 6.099666e-01 9.654554e-02 -1.230611e-01 -1.810384e-01 -1.836586e-03 4.174125e-01 6.823868e-01 5.837174e-01 5.452388e-01 7.480073e-01 9.205041e-01 9.997616e-01 8.532750e-01 4.705705e-01 1.806046e-01 -3.162212e-01 -9.175759e-01 -1.121208e+00 -9.838789e-01 -7.126600e-01 -4.593370e-01 -2.650694e-01 -1.263209e-01 -4.892706e-02 -9.819716e-03 5.613449e-03 7.729795e-03 1.254323e-02 1.555964e-02 1.912350e-02 2.291907e-02 2.230380e-02 2.255604e-02 1.660532e-02 9.580992e-03 5.151647e-03 -2.119142e-03 -5.331603e-03 -1.135540e-02 -1.496823e-02 -1.384639e-02 -1.507711e-02 -1.127327e-02 -3.766884e-03 3.239638e-03 1.243939e-02 1.438683e-02 1.314647e-02 1.204249e-02 9.933767e-03 1.248263e-02 1.402336e-02 1.504531e-02 1.194476e-02 8.609990e-03 5.591756e-03 5.268493e-03 5.420490e-03 3.646831e-03 3.591617e-03 4.669186e-03 6.388965e-03 1.172000e-02 1.470729e-02 1.990385e-02 2.081001e-02 1.754124e-02 1.234431e-02 7.153399e-03 3.389385e-03 1.240560e-03 
-2.305688e-02 -2.450423e-02 -1.707530e-02 -2.507765e-02 -2.317740e-01 -5.122955e-01 7.558635e-01 5.013736e-01 1.223202e-01 2.304297e-01 2.428779e-01 4.238803e-01 -3.809173e-01 -1.676101e+00 -2.184689e+00 -1.756925e+00 -2.109991e+00 -1.797597e+00 -1.893116e+00 -2.362641e+00 -1.618030e+00 2.353072e-02 4.594067e-01 4.749778e-01 4.020883e-01 7.320991e-02 1.749177e-01 1.935328e-01 2.400968e-01 5.647417e-01 3.112254e-01 2.452126e-01 4.235400e-01 2.417359e-01 5.985571e-01 2.995947e-01 1.230659e-01 4.337972e-01 3.368715e-01 4.288206e-01 4.152953e-01 2.804438e-01 4.659713e-01 3.633402e-01 3.489796e-01 1.184519e-01 3.550531e-01 2.882810e-01 3.157079e-01 6.502264e-01 6.000024e-02 5.841358e-01 6.707513e-01 5.486857e-01 1.302706e+00 3.938506e-01 1.369506e+00 5.312740e+00 5.148891e+00 -9.527573e-01 -7.216671e+00 -9.542165e+00 -6.541533e+00 -1.822819e-01 1.665480e+00 -8.504221e-01 -2.729727e-01 4.130981e-01 6.195502e-01 2.179934e+00 -1.198275e+00 -2.974535e+00 7.661364e-01 2.574916e+00 1.253198e+00 5.687411e-01 8.697819e-01 2.545072e-01 1.938304e-01 3.061106e-01 2.722754e-01 5.161613e-01 2.809291e-01 1.625498e-01 1.678573e-01 6.762662e-03 8.370836e-02 -7.370793e-02 -1.060309e-01 -4.656841e-03 -1.371555e-01 -4.459914e-02 -1.628313e-01 -1.681820e-01 -4.182987e-02 -2.286371e-01 5.224697e-02 2.024099e-01 1.424630e-01 2.020259e-01 1.931937e-02 2.749961e-02 1.847255e-01 3.238576e-02 1.584805e-01 2.178903e-01 2.184817e-01 4.068794e-02 -1.740960e-01 -1.063907e-01 -1.170290e-01 -1.467548e-01 -2.194551e-01 -5.253042e-02 -6.071838e-02 -2.857006e-01 -4.142618e-01 -1.974574e-01 -1.721705e-01 -4.848169e-02 -1.641774e-01 4.839029e-01 5.492635e-01 -2.068132e-01 -5.258469e-02 -1.747509e-02 -1.805643e-02 -2.022360e-02 
-5.145399e-02 -3.789355e-02 4.268677e-02 1.340218e-01 -1.086227e+00 -2.390329e+00 2.108332e+00 1.304039e+00 4.024474e-01 5.269661e-01 4.522759e-01 6.001630e-01 -1.276071e+00 1.910760e-01 5.636050e-01 7.092292e-01 4.702199e-01 9.669761e-01 3.915960e-01 4.566611e-01 -3.152357e-01 -3.720290e-01 1.100579e+00 1.915242e+00 1.721256e+00 5.518973e-01 5.035951e-01 -1.054653e-01 -4.231094e-01 6.932823e-01 2.808555e-02 3.994365e-01 1.447229e+00 1.260790e+00 2.072347e+00 1.214704e+00 3.639354e-01 1.100119e+00 7.228744e-01 9.488850e-01 1.217508e+00 8.402876e-01 1.446846e+00 1.029785e+00 7.931711e-01 -2.621885e-01 2.745114e-01 3.161669e-01 5.445901e-01 1.739786e+00 -5.860283e-02 1.014403e+00 6.440266e-01 -5.584359e-01 1.859449e+00 -3.698316e-01 -7.492917e-01 2.585768e+00 -8.369781e-01 -3.110170e+00 -1.633193e+00 -1.036047e+00 1.475296e+00 2.200046e+00 6.061355e-02 -1.902437e+00 -3.553901e+00 -4.131382e+00 -1.668241e-01 1.627944e+00 1.930929e+00 2.935530e+00 2.327605e-01 2.689643e+00 3.149419e+00 2.201498e+00 3.281575e+00 1.268657e+00 1.450094e+00 1.572889e+00 1.032956e+00 1.225899e+00 5.222518e-02 -5.544908e-01 -1.870803e-01 -1.690030e-01 8.893449e-03 -3.695434e-01 -2.901565e-01 3.471133e-02 -4.496888e-01 7.223858e-02 -5.622403e-01 -9.342180e-01 -5.723775e-01 -7.385128e-01 2.036660e-01 1.507129e-01 -1.208570e-01 -3.999265e-02 -4.908170e-01 -3.571139e-02 1.120025e+00 8.845106e-01 1.065574e+00 9.527534e-01 4.644010e-01 -2.687688e-01 -7.932164e-01 -6.841409e-01 -7.747988e-01 -1.055873e+00 -1.015133e+00 -5.810702e-01 -3.560161e-01 -8.936552e-01 -1.350750e+00 -5.315063e-01 -7.523235e-01 -2.730417e-01 -8.843709e-01 1.309582e+00 3.879738e-01 -1.691487e+00 3.747545e-01 1.582125e-01 -2.223064e-02 -5.006862e-02 
-7.118215e-02 -4.040966e-02 1.548958e-01 5.393853e-01 -1.717599e+00 -4.289459e+00 -1.673455e-01 -4.153096e-01 -4.198092e-01 -7.013011e-01 -7.990676e-01 -5.815305e-01 3.305502e-01 -6.877183e-02 -6.007537e-02 2.235920e-01 2.855675e-01 -9.167189e-02 -3.499995e-01 -1.263947e-01 -5.644182e-01 -3.889430e-02 4.770178e-01 1.781154e+00 1.476290e+00 5.304084e-01 -2.994654e-01 -2.262124e+00 -3.530436e+00 -2.801291e+00 -2.833372e+00 -1.135644e+00 6.276617e-01 1.454378e+00 1.133929e+00 7.511891e-01 -3.529075e-01 -6.198055e-01 -1.024952e+00 -1.049255e+00 -1.844331e-01 -2.196364e-01 2.137472e-01 -2.265773e-01 -8.328318e-01 -2.302978e+00 -2.523420e+00 -1.877082e+00 -1.053222e+00 3.430709e-01 2.493767e-01 6.221885e-01 -3.586339e-02 -1.537184e+00 -3.704417e-01 -1.089088e+00 3.356869e-01 1.100226e+00 -2.080102e+00 -2.698870e+00 -1.411729e+00 1.402120e+00 3.393904e+00 3.570858e+00 3.463435e+00 -1.383358e+00 -5.536199e+00 -5.795940e+00 -3.768163e+00 7.225937e-01 4.555048e+00 6.756175e+00 2.281307e+00 4.781454e-01 -1.826813e-01 -1.034340e+00 9.223184e-02 -4.481125e-01 1.196174e+00 1.315441e+00 3.128829e-01 -8.000389e-01 -2.397798e+00 -3.321234e+00 -2.246695e+00 -9.372974e-01 -9.627171e-01 -8.214095e-01 -3.626772e-01 -1.586864e-01 -6.280486e-01 1.537192e-01 -8.207306e-01 -1.927068e+00 -1.815351e+00 -9.099691e-01 -3.045361e-01 -1.588103e+00 -1.987403e+00 -2.208468e+00 -2.084915e+00 -7.883057e-01 1.495315e+00 1.923447e+00 1.463718e+00 6.581007e-01 -7.821642e-01 -1.567229e+00 -1.443079e+00 -1.662771e+00 -1.859430e+00 -2.498253e+00 -1.803933e+00 -1.771197e+00 -1.004178e+00 -8.728330e-01 -1.224366e+00 -4.076472e-01 -1.243836e+00 -6.379427e-01 -1.576526e+00 1.494550e-01 -3.296044e+00 -3.620994e+00 1.609849e+00 6.194386e-01 3.253726e-02 -6.547539e-02 
-6.931879e-02 -3.778388e-02 1.442960e-01 6.261000e-01 -2.629990e-01 -1.704588e+00 -3.108942e+00 -2.278866e+00 -1.068634e+00 -1.504095e+00 -1.394114e+00 -1.519892e+00 -1.344070e+00 -1.481661e+00 -1.211029e+00 -1.461136e+00 -1.251406e+00 -1.392522e+00 -1.320688e+00 -1.333728e+00 -1.871311e+00 -2.187305e+00 -1.092056e+00 -4.445370e-01 -6.058250e-01 -9.935896e-02 -9.991578e-01 -2.439138e+00 -3.474375e+00 -4.171782e+00 -3.298378e+00 -1.831959e+00 -1.239280e+00 -2.057366e-02 -1.510729e+00 -7.780850e-01 -8.836413e-01 -2.224865e+00 -2.193942e+00 -2.538483e+00 -1.902187e+00 -1.402817e+00 -1.708701e+00 -1.638639e+00 -2.017790e+00 -2.308307e+00 -3.332961e+00 -2.690328e+00 -2.069801e+00 -2.127837e+00 2.505164e-01 -7.792630e-01 -1.034866e+00 -1.148212e+00 -3.444938e+00 -1.910692e+00 -3.481253e-01 -2.094683e+00 -2.597401e-01 -6.533575e-01 -2.254514e+00 -3.821840e+00 -5.848947e+00 -2.231564e+00 6.203316e-01 3.034692e+00 3.147215e+00 2.794726e+00 -1.282731e+00 -5.096064e+00 -5.357067e+00 -4.588620e+00 -1.767609e+00 -3.721357e+00 -4.936599e+00 -4.585473e+00 -4.623842e+00 -2.392353e+00 -6.471836e-01 -6.193978e-01 -1.014389e+00 -2.571634e+00 -2.830519e+00 -3.074990e+00 -2.334109e+00 -8.246933e-01 -1.084992e+00 -3.867809e-01 3.002913e-02 -1.760164e-01 -6.583169e-02 1.260067e-01 -1.371599e-01 -9.049876e-01 -1.281567e+00 -4.640469e-03 -6.090867e-01 -2.020052e+00 -2.124113e+00 -2.480830e+00 -1.707768e+00 -8.195723e-01 2.498804e-01 1.057286e+00 2.636741e-01 -5.416985e-01 -1.541985e+00 -1.456055e+00 -5.696290e-01 -9.799108e-01 -1.066242e+00 -1.438644e+00 -6.778991e-01 -1.247804e+00 -6.504171e-01 2.447319e-01 4.916002e-01 3.301416e-01 -3.150565e-01 -2.120761e-01 -4.142987e-01 -1.295286e+00 -4.172014e+00 -1.777483e+00 1.384762e+00 3.849648e-01 -3.123575e-02 -7.710176e-02 
-5.279221e-02 -4.992886e-02 -1.814034e-02 1.748831e-01 6.578437e-01 8.841425e-01 -1.650312e+00 -1.170327e+00 -4.065815e-01 -5.366774e-01 -3.589920e-01 -5.293913e-01 -1.415480e+00 -1.098093e+00 -7.761945e-01 -7.911848e-01 -7.817172e-01 -7.896834e-01 -8.007191e-01 -7.835453e-01 -1.093112e+00 -1.449746e+00 -7.419538e-01 -8.356187e-01 -8.230600e-01 -1.682924e-01 -3.962384e-01 -4.991826e-01 -6.338061e-01 -1.292461e+00 -7.675733e-01 -5.510876e-01 -8.642935e-01 -4.587102e-01 -1.209805e+00 -6.271657e-01 -2.982058e-01 -9.801709e-01 -8.184386e-01 -1.010733e+00 -9.503842e-01 -6.407686e-01 -9.744180e-01 -7.721355e-01 -7.728915e-01 -4.016509e-01 -9.298623e-01 -8.111216e-01 -7.957290e-01 -1.372516e+00 2.637946e-02 -7.415972e-01 -6.435580e-01 -2.098585e-01 -1.946495e+00 2.395439e-01 -2.273941e+00 -5.458024e+00 -2.572672e+00 7.642575e-01 2.105141e+00 3.025288e-01 -3.772960e+00 -4.337476e+00 1.345471e-01 3.813415e+00 5.911750e+00 4.125919e+00 6.108901e-01 -4.976283e+00 -7.607877e+00 -6.650465e+00 -2.369317e+00 -3.899744e-01 -1.804220e+00 -2.147049e+00 -2.778134e+00 -1.287311e+00 -8.400435e-01 -8.516094e-01 -6.922571e-01 -1.177142e+00 -7.381680e-01 -5.245714e-01 -4.881074e-01 -8.301407e-02 -2.145452e-01 1.433115e-01 2.211724e-01 2.699542e-02 2.658416e-01 9.664227e-02 2.978112e-01 2.690569e-01 -2.059341e-04 4.087523e-01 -1.673283e-01 -5.135301e-01 -4.248663e-01 -5.422914e-01 -1.422303e-01 -9.701792e-02 -3.231299e-01 -1.084070e-02 -3.005569e-01 -4.786593e-01 -5.269811e-01 -1.975944e-01 2.704725e-01 1.048293e-01 1.282602e-01 1.409588e-01 3.319758e-01 -1.124485e-02 6.784371e-02 5.507723e-01 8.426863e-01 4.467910e-01 3.882873e-01 2.134275e-01 4.450052e-01 -7.378860e-01 -1.203218e+00 3.744383e-01 2.912859e-01 -1.336560e-02 -6.989188e-02 -5.992192e-02 
-2.564170e-02 -2.491015e-02 -2.669235e-02 -1.345066e-02 6.175614e-02 1.704060e-01 -4.243262e-02 -5.764251e-02 1.708148e-02 4.892009e-02 2.097270e-01 2.741635e-01 -1.364130e+00 -1.358472e+00 -5.482594e-01 -5.473806e-01 -5.470704e-01 -5.474690e-01 -5.478681e-01 -5.479959e-01 -1.157940e+00 -1.177492e+00 5.617367e-02 7.747857e-03 -3.072502e-02 8.473887e-03 3.615597e-03 1.177228e-02 3.174481e-03 -1.923071e-02 7.611532e-03 1.089779e-02 -3.581669e-03 1.501697e-02 -2.230234e-02 1.399704e-02 1.524136e-02 -1.536300e-02 -1.209127e-02 -2.347581e-02 -1.279552e-02 8.460507e-03 2.831446e-04 1.439137e-02 8.921435e-03 2.068394e-02 -2.285508e-02 -3.115548e-02 -6.729357e-02 -1.134823e-01 -5.616623e-02 -6.821589e-02 5.768709e-02 3.022045e-01 8.898730e-01 3.108825e+00 9.296658e-01 -1.854958e+00 4.402146e-01 1.559197e+00 -3.336639e-01 -7.525427e-01 -1.116064e+00 -1.440271e-01 3.711845e+00 2.358664e-01 -1.971645e+00 -2.036197e+00 -1.745398e+00 1.307149e+00 1.763067e+00 7.174857e-03 6.511104e-01 2.199294e+00 5.843734e-01 -2.107912e-01 -2.611767e-01 -1.133161e-01 -4.115184e-02 -2.985548e-02 -1.494558e-02 -4.234122e-02 -3.283169e-02 -2.346549e-02 -2.530695e-02 -1.059824e-03 2.247676e-03 2.222255e-02 3.103325e-02 2.128154e-02 3.671524e-02 3.231692e-02 3.882136e-02 4.165984e-02 2.427825e-02 4.309037e-02 1.604736e-02 -2.551464e-03 3.643201e-03 1.300337e-03 2.041796e-02 3.106754e-02 1.718022e-02 3.284885e-02 1.553849e-02 8.292096e-04 -4.103351e-03 5.829144e-03 2.183547e-02 1.115394e-02 7.766067e-03 6.150423e-03 1.446725e-02 5.341566e-03 2.193918e-02 5.983109e-02 8.868314e-02 7.443714e-02 8.026235e-02 6.149490e-02 8.237863e-02 1.187744e-02 2.710158e-03 4.943289e-02 -2.537056e-02 -4.995393e-02 -4.103177e-02 -3.061065e-02 
-8.756143e-03 -9.074709e-03 -1.088898e-02 -1.327216e-02 -1.177591e-02 -3.202717e-03 -8.617873e-03 -1.169655e-02 -1.715083e-03 2.751056e-02 1.115948e-01 1.662617e-01 -6.924199e-01 -6.770575e-01 -2.750821e-01 -2.743303e-01 -2.743287e-01 -2.743287e-01 -2.743295e-01 -2.746783e-01 -5.269549e-01 -5.350072e-01 2.417573e-02 -1.327888e-02 -3.417555e-02 -2.588572e-02 -1.763486e-02 -1.292469e-02 -1.128529e-02 -9.371857e-03 -8.326839e-03 -7.674105e-03 -7.073099e-03 -6.602948e-03 -6.705392e-03 -6.696853e-03 -8.940675e-03 -1.070361e-02 -1.244827e-02 -1.229722e-02 -9.820484e-03 -6.434096e-03 -3.704822e-03 -3.501165e-03 -7.044483e-03 -1.447808e-02 -2.715257e-02 -4.570147e-02 -7.337140e-02 -1.070174e-01 -1.373963e-01 -1.389307e-01 -4.634482e-02 2.914369e-01 1.217248e+00 2.428828e+00 1.149857e+00 -2.346368e+00 -1.468372e+00 4.287122e-01 1.941620e+00 2.107204e+00 1.627215e+00 1.368244e+00 -4.031074e-01 3.074103e-01 -2.014047e+00 -2.234311e+00 -1.065425e+00 -8.124269e-01 2.216828e+00 1.701190e+00 -7.282652e-01 -7.166565e-01 1.890172e-01 3.798736e-01 3.969347e-01 3.251663e-01 2.256339e-01 1.377042e-01 7.359342e-02 3.035983e-02 3.062643e-03 -1.177686e-02 -1.858188e-02 -1.981909e-02 -1.846359e-02 -1.675151e-02 -1.519002e-02 -1.416683e-02 -1.300537e-02 -1.205755e-02 -1.198804e-02 -1.191521e-02 -1.222558e-02 -1.241981e-02 -1.291212e-02 -1.379175e-02 -1.390179e-02 -1.310063e-02 -1.141614e-02 -8.879656e-03 -7.510430e-03 -7.613216e-03 -9.618960e-03 -1.245086e-02 -1.501140e-02 -1.731480e-02 -1.959640e-02 -2.168809e-02 -2.385790e-02 -2.501782e-02 -2.430504e-02 -2.065232e-02 -1.461902e-02 -7.791493e-03 -2.166276e-03 7.212877e-04 6.967818e-04 -2.979427e-03 -6.667317e-03 -1.016620e-02 -1.088913e-02 -1.707104e-02 -2.153622e-02 -1.809362e-02 -1.331003e-02 -1.001710e-02 
4.562533e-05 6.049382e-05 7.478111e-05 1.104643e-04 1.555644e-04 1.633561e-04 1.394573e-04 1.328942e-04 1.166674e-04 1.195844e-04 1.348213e-04 1.844202e-04 -2.611147e-02 -3.632876e-02 -5.002228e-05 -3.049939e-07 -2.410412e-07 -1.938662e-07 -9.392387e-08 4.444947e-05 2.072709e-02 4.633676e-02 -3.097863e-03 -9.265900e-04 -1.329643e-04 -4.822993e-06 -1.714115e-04 -4.459907e-04 -6.068761e-04 -5.383668e-04 -3.105005e-04 -2.060880e-05 2.609075e-04 4.886859e-04 5.606474e-04 3.287557e-04 -2.424763e-04 -1.004276e-03 -1.559172e-03 -1.599007e-03 -1.079010e-03 -3.471137e-04 -7.193776e-06 -6.805127e-04 -2.861378e-03 -7.187219e-03 -1.456096e-02 -2.669976e-02 -4.563139e-02 -7.327079e-02 -1.086446e-01 -1.474194e-01 -1.803942e-01 -1.954104e-01 -1.505721e-01 2.735787e-02 2.511511e-01 6.320464e-02 -3.647634e-01 -5.299146e-01 -6.072136e-01 -4.479036e-01 -4.013322e-01 -1.181933e-01 -4.555031e-02 7.256316e-02 1.046669e-01 -3.235858e-02 -4.593311e-02 -7.586712e-02 6.406901e-01 1.339313e+00 1.445347e+00 1.216204e+00 1.050357e+00 8.430907e-01 6.210316e-01 4.187436e-01 2.605876e-01 1.518113e-01 8.307997e-02 4.240423e-02 1.917364e-02 6.549205e-03 6.572117e-05 -2.923005e-03 -4.018444e-03 -4.284599e-03 -4.093269e-03 -3.622339e-03 -2.877144e-03 -2.055513e-03 -1.267263e-03 -5.897447e-04 3.794098e-05 4.815592e-04 7.051123e-04 6.833011e-04 6.465305e-04 7.760898e-04 1.098342e-03 1.389867e-03 1.277556e-03 4.859508e-04 -8.804829e-04 -2.494681e-03 -3.935271e-03 -5.052604e-03 -5.763591e-03 -6.090145e-03 -6.044015e-03 -5.585709e-03 -4.601894e-03 -3.041587e-03 -1.134648e-03 7.010699e-04 2.006670e-03 2.464615e-03 1.981138e-03 7.048902e-04 -8.083067e-04 -1.926492e-03 -2.226545e-03 -1.839068e-03 -1.168730e-03 -5.576530e-04 -1.838916e-04 -5.167976e-06 
8.845313e-03 9.301555e-03 1.126715e-02 1.390069e-02 1.264851e-02 4.031492e-03 9.119442e-03 1.228358e-02 2.211775e-03 -2.680556e-02 -1.105374e-01 -1.643218e-01 6.643495e-01 6.371692e-01 2.750258e-01 2.743291e-01 2.743278e-01 2.743276e-01 2.743282e-01 2.747140e-01 5.465664e-01 5.900234e-01 -3.001522e-02 1.285562e-02 3.545625e-02 2.698463e-02 1.753759e-02 1.172996e-02 9.065570e-03 7.554009e-03 7.590857e-03 7.803756e-03 8.604718e-03 8.967765e-03 9.114191e-03 8.504203e-03 7.728212e-03 6.684206e-03 6.189418e-03 5.935729e-03 6.212128e-03 6.499875e-03 6.704595e-03 6.499229e-03 5.672501e-03 3.937391e-03 8.825778e-04 -4.049611e-03 -1.165991e-02 -2.283710e-02 -3.770508e-02 -5.544479e-02 -7.443335e-02 -9.431115e-02 -1.167127e-01 -1.313113e-01 -1.197532e-01 -1.026492e-01 -1.370482e-01 -1.692137e-01 -1.790834e-01 -1.472585e-01 -9.297105e-02 -2.206140e-02 5.517581e-02 1.358720e-01 2.304452e-01 3.535199e-01 4.864709e-01 6.472323e-01 8.330444e-01 9.418306e-01 9.321124e-01 8.189683e-01 6.642515e-01 4.954831e-01 3.409430e-01 2.182887e-01 1.317842e-01 7.707809e-02 4.447629e-02 2.588816e-02 1.480172e-02 7.931953e-03 3.292702e-03 3.765663e-04 -1.378460e-03 -1.976551e-03 -1.590777e-03 -2.966487e-04 1.684114e-03 3.984233e-03 6.459818e-03 9.038180e-03 1.161082e-02 1.384764e-02 1.541615e-02 1.623750e-02 1.676609e-02 1.692773e-02 1.685793e-02 1.572514e-02 1.361814e-02 1.021890e-02 6.426981e-03 2.462776e-03 -4.756208e-04 -2.509760e-03 -2.687620e-03 -1.759557e-03 7.390786e-04 3.419108e-03 6.278143e-03 8.354084e-03 9.800904e-03 1.033254e-02 9.896508e-03 8.838859e-03 7.189556e-03 5.941060e-03 3.895748e-03 2.660661e-03 1.856281e-03 9.332267e-03 1.632579e-02 1.535711e-02 1.223257e-02 9.785332e-03 
2.587272e-02 2.563140e-02 2.810704e-02 1.596992e-02 -5.842794e-02 -1.673548e-01 4.158934e-02 5.520391e-02 -1.935332e-02 -4.900504e-02 -2.158835e-01 -2.786746e-01 1.322008e+00 1.295145e+00 5.484197e-01 5.468811e-01 5.461243e-01 5.456285e-01 5.452023e-01 5.451080e-01 1.096396e+00 1.198869e+00 -6.367873e-02 -2.046551e-02 1.395152e-02 -2.345707e-03 -4.723150e-03 -3.692404e-03 1.018630e-02 4.293795e-03 -8.667970e-04 -9.124745e-03 -8.095056e-03 -2.078879e-03 1.268496e-02 6.500905e-03 2.605499e-03 -1.122992e-02 -1.065696e-02 -8.431030e-03 -1.806623e-03 1.946120e-03 7.967574e-03 2.862764e-03 -8.501463e-03 -2.283021e-02 -2.481534e-02 -2.098855e-02 -6.148122e-03 -1.601871e-03 -2.072657e-03 -3.749018e-04 4.382307e-03 2.264117e-02 3.548343e-02 3.992591e-02 2.638195e-02 -3.664408e-03 -4.591176e-02 -7.267053e-02 -7.305158e-02 -4.602908e-02 -1.177229e-03 4.954214e-02 9.550148e-02 1.416844e-01 1.890855e-01 2.355618e-01 2.678601e-01 2.751902e-01 2.443897e-01 1.896672e-01 1.266548e-01 6.908288e-02 2.200496e-02 -1.511802e-02 -4.096654e-02 -5.321255e-02 -5.529320e-02 -4.574455e-02 -3.725682e-02 -2.963773e-02 -2.241556e-02 -2.023542e-02 -1.839062e-02 -1.618958e-02 -1.473514e-02 -1.296411e-02 -1.294649e-02 -1.448807e-02 -1.789597e-02 -2.520714e-02 -2.544693e-02 -2.625966e-02 -1.843704e-02 -1.750120e-02 -1.795824e-02 -2.411819e-02 -3.186320e-02 -3.966127e-02 -3.649263e-02 -4.111681e-02 -4.207658e-02 -5.608203e-02 -6.889194e-02 -7.632800e-02 -7.935668e-02 -7.928942e-02 -7.697590e-02 -7.242936e-02 -6.060747e-02 -4.148443e-02 -2.654181e-02 -1.459360e-02 -1.845186e-02 -1.722695e-02 -2.384158e-02 -1.246996e-02 -2.641880e-02 -1.603297e-02 -4.692625e-02 -8.878955e-03 -1.658179e-02 -6.553126e-02 1.352235e-02 4.343845e-02 3.834813e-02 2.998572e-02 
5.384870e-02 5.183130e-02 2.176180e-02 -1.686169e-01 -6.505276e-01 -8.679782e-01 1.633287e+00 1.098007e+00 3.526798e-01 4.986113e-01 1.957546e-01 4.019487e-01 1.448541e+00 1.174671e+00 7.815206e-01 7.776895e-01 7.603058e-01 7.504653e-01 7.438887e-01 7.244155e-01 8.599492e-01 1.134132e+00 7.428734e-01 7.031471e-01 4.318857e-01 2.511958e-01 3.831790e-01 6.044950e-01 9.631565e-01 9.781084e-01 8.185552e-01 6.494749e-01 5.876708e-01 6.877678e-01 9.800721e-01 9.256229e-01 8.731063e-01 6.656852e-01 6.774782e-01 7.943076e-01 9.252815e-01 1.014077e+00 1.135168e+00 1.020101e+00 7.467541e-01 4.148758e-01 3.616396e-01 4.618461e-01 8.147915e-01 9.700303e-01 9.399945e-01 8.092285e-01 6.187693e-01 6.369350e-01 6.778931e-01 7.346354e-01 7.641247e-01 6.959617e-01 4.870587e-01 3.260317e-01 2.426245e-01 2.210258e-01 2.928078e-01 4.909676e-01 6.279225e-01 6.821862e-01 5.789873e-01 4.411757e-01 3.279460e-01 2.710003e-01 8.009166e-02 -1.356154e-01 -1.885308e-01 -7.661548e-02 7.943448e-02 1.572335e-01 1.771682e-01 1.691768e-01 1.725639e-01 2.939350e-01 3.733058e-01 4.715160e-01 6.351740e-01 7.420802e-01 8.656435e-01 9.377027e-01 9.605846e-01 9.409110e-01 8.835268e-01 8.067526e-01 6.738686e-01 4.572205e-01 3.549032e-01 2.295710e-01 2.587709e-01 1.331185e-01 7.087499e-03 -1.610191e-01 -3.961403e-01 -5.823435e-01 -5.694337e-01 -5.876978e-01 -5.066433e-01 -5.861567e-01 -6.716251e-01 -6.212650e-01 -6.028994e-01 -5.032478e-01 -4.794448e-01 -3.615535e-01 -2.287773e-01 8.408305e-02 2.453768e-01 4.047504e-01 3.024022e-01 2.943980e-01 2.483475e-01 5.171180e-01 4.496048e-01 7.214214e-01 4.471744e-01 1.163319e+00 1.326620e+00 -3.888250e-01 -3.069988e-01 6.641738e-03 6.764191e-02 5.998456e-02 
7.102697e-02 3.958234e-02 -1.413228e-01 -6.223899e-01 2.620828e-01 1.750491e+00 3.308003e+00 2.570212e+00 1.116500e+00 1.188713e+00 8.534128e-01 1.142953e+00 1.188173e+00 1.418636e+00 9.927521e-01 1.194617e+00 9.889918e-01 1.188179e+00 1.107460e+00 1.225634e+00 8.053071e-01 8.715518e-01 1.805878e+00 1.805921e+00 1.473515e+00 1.038827e+00 1.041965e+00 9.893660e-01 1.776436e+00 2.092438e+00 2.147306e+00 1.924271e+00 2.009243e+00 1.819492e+00 1.898654e+00 1.634377e+00 1.630839e+00 1.278832e+00 1.566998e+00 2.179050e+00 2.568278e+00 2.837580e+00 3.143243e+00 2.910112e+00 1.935335e+00 8.289963e-01 2.940740e-01 3.583463e-01 1.107412e+00 2.126742e+00 2.798866e+00 2.725884e+00 2.034909e+00 1.563442e+00 1.407806e+00 1.642316e+00 1.935656e+00 1.965984e+00 1.526809e+00 1.072658e+00 7.864449e-01 5.737532e-01 6.022629e-01 1.104246e+00 1.576907e+00 1.856372e+00 2.030195e+00 1.971512e+00 1.637836e+00 1.353013e+00 1.277074e+00 1.211299e+00 1.036669e+00 1.156615e+00 1.241099e+00 1.335329e+00 1.306480e+00 1.315683e+00 1.171875e+00 1.056643e+00 8.649832e-01 8.188558e-01 1.456594e+00 2.186865e+00 2.871519e+00 2.882412e+00 2.369125e+00 1.434637e+00 8.235911e-01 7.632338e-01 1.351065e+00 1.766785e+00 1.997950e+00 1.707133e+00 1.509416e+00 8.448572e-01 3.787302e-01 2.143396e-01 -2.232232e-02 -6.803989e-02 1.176052e-01 2.906527e-01 2.716219e-01 2.774161e-01 1.172758e-01 1.156550e-01 -3.550831e-01 -2.873564e-01 -4.596522e-01 6.418349e-03 5.636774e-01 1.719505e+00 1.987916e+00 1.872344e+00 9.674963e-01 1.617877e-01 -8.125128e-02 4.138707e-01 1.238889e+00 2.020606e+00 2.477075e+00 2.788031e+00 4.785281e+00 1.560175e+00 -1.468669e+00 -3.855041e-01 3.359608e-02 7.918014e-02 
6.983319e-02 3.939263e-02 -1.566713e-01 -5.446663e-01 1.703967e+00 4.325595e+00 5.299154e-01 1.076274e+00 6.468826e-01 3.184164e-01 4.017227e-01 3.501232e-01 -5.949949e-01 -1.579432e-01 3.917421e-02 -1.177679e-01 -2.177149e-01 1.288400e-02 2.845343e-01 1.488743e-01 -4.164355e-01 -8.471416e-01 6.384265e-01 7.158444e-01 9.684838e-01 7.443028e-01 3.979628e-01 -3.102590e-01 -4.462839e-02 3.795451e-01 9.106292e-01 1.018600e+00 1.339171e+00 7.713857e-01 1.048225e-01 -1.782946e-01 -5.085939e-02 -5.419953e-02 3.656686e-01 1.009576e+00 1.265456e+00 1.447416e+00 1.594163e+00 1.539189e+00 7.395693e-01 -1.031617e-01 -8.053439e-01 -9.743940e-01 -7.605840e-01 4.081600e-01 1.534392e+00 1.787749e+00 1.253109e+00 5.082786e-01 1.785528e-01 3.867987e-01 7.163472e-01 8.600916e-01 6.482893e-01 3.232915e-01 1.079954e-01 -1.309351e-01 -2.484986e-01 6.448022e-03 3.823265e-01 6.922477e-01 1.286908e+00 1.600448e+00 1.377629e+00 1.022270e+00 1.303679e+00 1.657999e+00 1.414810e+00 1.268200e+00 9.994335e-01 1.010268e+00 9.806707e-01 1.099148e+00 9.250399e-01 4.725655e-01 -2.145842e-03 -3.127000e-01 2.605428e-01 1.118338e+00 1.857610e+00 1.678878e+00 8.200951e-01 -5.923823e-01 -1.390451e+00 -1.281192e+00 2.186714e-02 1.268220e+00 1.926841e+00 1.807101e+00 1.439035e+00 7.456854e-01 3.763455e-01 5.655380e-01 8.405132e-01 1.276591e+00 1.552880e+00 1.872586e+00 1.606592e+00 1.804307e+00 1.749846e+00 1.599401e+00 8.050392e-01 6.506602e-01 2.989482e-01 7.007226e-01 1.207714e+00 2.219622e+00 2.231968e+00 1.647456e+00 4.703902e-01 -7.793806e-01 -1.063480e+00 -1.008840e+00 4.353247e-01 9.013048e-01 2.312171e+00 9.130041e-01 3.788552e+00 3.206951e+00 -1.772811e+00 -6.413246e-01 -4.062852e-02 6.235715e-02 
4.962227e-02 3.568182e-02 -4.682441e-02 -1.420601e-01 1.073229e+00 2.385408e+00 -1.946862e+00 -9.595845e-01 -2.448453e-01 -6.177134e-01 -3.902582e-01 -5.070469e-01 1.232315e+00 -5.788694e-02 -1.845382e-01 -4.017040e-01 -1.287697e-03 -4.116366e-01 1.953236e-02 -4.980145e-01 -2.602785e-03 4.148164e-01 -7.125920e-01 -8.085269e-01 -2.925596e-01 -1.523297e-01 -4.398883e-01 -1.004625e+00 -1.351696e+00 -1.229030e+00 -8.209284e-01 -5.659653e-01 -3.523169e-01 -6.884631e-01 -1.307619e+00 -1.355601e+00 -1.256415e+00 -1.007350e+00 -8.726444e-01 -7.738730e-01 -8.458656e-01 -8.860066e-01 -9.858284e-01 -8.563399e-01 -8.223023e-01 -7.293435e-01 -9.438118e-01 -1.144147e+00 -1.524465e+00 -1.288606e+00 -8.293317e-01 -5.507728e-01 -4.699855e-01 -7.149435e-01 -8.361661e-01 -8.170175e-01 -7.787324e-01 -7.519955e-01 -6.904527e-01 -6.924134e-01 -6.738056e-01 -6.970879e-01 -7.822388e-01 -9.209976e-01 -9.550475e-01 -9.120596e-01 -5.263136e-01 -1.779641e-01 -8.849020e-02 -1.889642e-01 4.651972e-02 3.121020e-01 1.616860e-01 -6.094587e-02 -3.185816e-01 -3.112024e-01 -2.536873e-01 -1.034808e-01 -1.118974e-01 -3.910445e-01 -6.492842e-01 -8.812494e-01 -8.677785e-01 -6.814981e-01 -5.551477e-01 -7.118796e-01 -1.053061e+00 -1.558164e+00 -1.776049e+00 -1.643394e+00 -9.757267e-01 -2.435939e-01 1.381087e-01 2.349174e-01 6.857175e-02 -4.162635e-02 -8.395544e-03 2.725442e-01 6.908494e-01 1.104942e+00 1.215478e+00 1.367835e+00 1.151649e+00 1.307038e+00 1.356449e+00 1.223789e+00 8.826562e-01 7.138288e-01 5.431372e-01 5.662165e-01 5.837065e-01 6.063021e-01 4.047768e-01 -1.701672e-03 -3.526867e-01 -8.182852e-01 -8.875432e-01 -1.204286e+00 -5.896203e-01 -7.931243e-01 4.236254e-02 -1.455601e+00 -3.737803e-01 1.535047e+00 -4.345265e-01 -1.689952e-01 1.760092e-02 4.762930e-02 
2.308233e-02 2.336315e-02 1.439160e-02 2.012660e-02 2.251153e-01 5.030879e-01 -7.410743e-01 -4.565011e-01 -9.140688e-02 -2.166213e-01 -1.685168e-01 -3.614145e-01 3.882578e-01 1.699957e+00 2.289865e+00 1.815304e+00 2.221500e+00 2.035451e+00 1.986501e+00 2.313278e+00 1.685721e+00 8.867959e-02 -4.673633e-01 -3.788920e-01 -1.782753e-01 -9.141655e-02 -1.634692e-01 -2.887920e-01 -4.594356e-01 -4.614103e-01 -3.747808e-01 -2.880955e-01 -2.506338e-01 -3.051004e-01 -4.586022e-01 -4.380011e-01 -4.206789e-01 -3.240328e-01 -3.330761e-01 -3.795058e-01 -4.429139e-01 -4.794518e-01 -5.354486e-01 -4.764371e-01 -3.600787e-01 -2.171226e-01 -2.131963e-01 -2.703731e-01 -4.355697e-01 -4.629925e-01 -3.630293e-01 -1.740332e-01 8.963090e-02 2.812673e-01 4.389259e-01 4.608755e-01 2.984753e-01 -2.776008e-02 -3.041385e-01 -4.180203e-01 -3.653726e-01 -2.051336e-01 -3.893411e-02 -3.361532e-02 -1.374726e-01 -2.026617e-01 -4.569207e-02 2.181624e-01 3.824732e-01 3.214236e-01 1.484136e-01 -1.209885e-01 -4.843376e-01 -7.430609e-01 -8.070602e-01 -6.826540e-01 -4.988243e-01 -3.167892e-01 -1.953964e-01 -1.795834e-01 -1.837939e-01 -2.191422e-01 -2.875789e-01 -3.292889e-01 -3.769296e-01 -4.143927e-01 -4.328354e-01 -4.421230e-01 -4.195664e-01 -3.848671e-01 -3.054903e-01 -1.961263e-01 -1.415083e-01 -9.296321e-02 -1.130617e-01 -7.149930e-02 -1.258624e-02 7.368655e-02 2.042072e-01 3.128068e-01 3.231184e-01 3.489797e-01 3.073490e-01 3.489759e-01 3.748564e-01 3.407251e-01 3.027514e-01 2.555963e-01 2.364039e-01 2.043256e-01 1.426446e-01 1.241067e-02 -8.195449e-02 -1.655186e-01 -1.432453e-01 -1.547576e-01 -1.444297e-01 -2.812649e-01 -2.312425e-01 -3.779177e-01 -2.335918e-01 -6.464242e-01 -5.719140e-01 2.317138e-01 7.285052e-02 2.938276e-02 2.369639e-02 2.210051e-02 
