# vtk DataFile Version 2.0
Comment goes here
ASCII

DATASET STRUCTURED_POINTS
FIELD FieldData 1
TIME 1 1 double
0.05500000
DIMENSIONS    64   64   1

ORIGIN    0.000   0.000   0.000
SPACING   0.03125 0.03125   1.000

POINT_DATA   4096
SCALARS Omega double
LOOKUP_TABLE default

-6.255153e-01 -8.732687e-01 1.106820e-01 -1.148607e+00 3.256819e-02 -2.811451e-01 -8.922772e-02 -7.666363e-01 -2.193570e-01 -7.514072e-01 -2.877261e-01 -6.909335e-01 -2.407338e-01 -5.040831e-01 -3.000691e-02 3.153037e-02 5.681591e-01 4.491471e-01 8.141155e-01 7.052078e-01 8.455363e-01 8.922316e-01 8.189416e-01 9.005173e-01 7.359581e-01 7.530412e-01 8.620303e-01 7.287457e-01 1.004679e+00 6.151309e-01 1.056299e+00 4.989604e-01 1.019480e+00 4.921704e-01 9.569181e-01 5.618136e-01 8.875869e-01 6.844508e-01 8.570606e-01 7.927630e-01 8.957943e-01 8.332952e-01 8.990206e-01 8.921271e-01 8.110777e-01 1.010801e+00 5.516669e-01 9.891571e-01 2.008289e-01 5.930960e-01 -2.783779e-01 2.396946e-01 -6.894119e-01 3.023604e-02 -8.524631e-01 -8.792222e-02 -8.707855e-01 -1.430023e-01 -8.200900e-01 -1.553393e-01 -7.705868e-01 -1.466976e-01 -7.106367e-01 1.864559e-01 
-5.094491e+00 -3.658614e+01 -1.005794e+01 -3.099466e+01 -1.289055e+01 -2.849182e+01 -1.762238e+01 -2.331247e+01 -2.502888e+01 -1.861519e+01 -3.132571e+01 -1.437043e+01 -3.667433e+01 -1.104966e+01 -4.098489e+01 -9.605095e+00 -4.355912e+01 -1.005501e+01 -4.416768e+01 -1.119647e+01 -4.403808e+01 -1.175771e+01 -4.476269e+01 -1.051389e+01 -4.745883e+01 -6.709557e+00 -5.268636e+01 -1.025157e+00 -5.938843e+01 5.754726e+00 -6.662075e+01 1.277778e+01 -7.319387e+01 1.826497e+01 -7.761962e+01 2.133964e+01 -8.006950e+01 2.292985e+01 -8.139601e+01 2.352461e+01 -8.151759e+01 2.248560e+01 -7.932424e+01 1.905472e+01 -7.466584e+01 1.358996e+01 -6.769750e+01 6.565775e+00 -5.915414e+01 -5.137724e-01 -5.083053e+01 -6.144105e+00 -4.463312e+01 -9.815094e+00 -4.031979e+01 -1.276218e+01 -3.629164e+01 -1.610028e+01 -3.158208e+01 -2.038610e+01 -2.574318e+01 -2.540091e+01 -1.985197e+01 -3.134974e+01 
-6.697340e+01 1.404922e+01 -4.229908e+01 1.107816e+01 -1.222778e+01 1.021323e+01 -4.538749e+01 5.605048e+00 -5.660391e+01 3.444071e+00 -6.391364e+01 1.579788e+00 -6.944400e+01 -6.008854e-01 -7.444762e+01 -3.247723e+00 -8.102488e+01 -6.583001e+00 -8.600965e+01 -7.748011e+00 -8.905458e+01 -8.106190e+00 -9.116679e+01 -8.713999e+00 -9.191715e+01 -1.023063e+01 -9.152848e+01 -1.260486e+01 -9.027622e+01 -1.550496e+01 -8.806331e+01 -1.881247e+01 -8.548320e+01 -2.161105e+01 -8.389662e+01 -2.326647e+01 -8.313467e+01 -2.430024e+01 -8.267214e+01 -2.492128e+01 -8.254391e+01 -2.482410e+01 -8.328365e+01 -2.357997e+01 -8.455020e+01 -2.144705e+01 -8.588595e+01 -1.789275e+01 -8.702229e+01 -1.305450e+01 -8.618598e+01 -8.407741e+00 -8.354262e+01 -5.278221e+00 -8.054858e+01 -3.301894e+00 -7.768460e+01 -1.653152e+00 -7.458569e+01 4.145864e-01 -7.072273e+01 2.780403e+00 -6.276020e+01 6.311227e+00 
-3.462185e+01 1.058473e+01 -2.254058e+01 1.213166e+01 -2.723659e+01 9.262224e+00 -1.811376e+01 1.001618e+01 -2.451135e+01 7.187045e+00 -2.807851e+01 4.719552e+00 -3.055552e+01 2.725216e+00 -3.289364e+01 1.402275e+00 -3.550406e+01 -2.083005e+00 -3.789694e+01 -2.692700e+00 -3.942193e+01 -2.745684e+00 -4.031158e+01 -3.301640e+00 -4.039500e+01 -5.018677e+00 -3.915136e+01 -7.104076e+00 -3.700393e+01 -9.718283e+00 -3.437012e+01 -1.269570e+01 -3.175090e+01 -1.502968e+01 -3.000085e+01 -1.626195e+01 -2.903833e+01 -1.689229e+01 -2.843793e+01 -1.706665e+01 -2.823690e+01 -1.661249e+01 -2.901252e+01 -1.536397e+01 -3.054311e+01 -1.339181e+01 -3.257978e+01 -1.078840e+01 -3.458121e+01 -8.109005e+00 -3.582141e+01 -4.239459e+00 -3.566051e+01 -1.574244e+00 -3.500783e+01 1.025429e-01 -3.433175e+01 1.631374e+00 -3.362468e+01 3.337431e+00 -3.262217e+01 5.360062e+00 -3.013318e+01 9.996290e+00 
-2.138325e+00 1.960819e+00 -2.473233e+00 -4.734170e+00 -4.777797e+01 5.431871e-01 3.619797e+00 -1.439872e-01 4.684137e-01 -1.763699e-01 -4.594513e-01 -1.756435e-01 -7.368583e-01 2.913519e-01 -1.224310e+00 1.987349e+00 -1.898760e+00 -1.257019e+00 -6.447498e-01 -2.855339e-01 -1.020977e+00 -2.207202e-01 -1.041451e+00 -2.804327e-01 -1.017043e+00 -1.446135e-01 -9.823524e-01 -7.940918e-02 -9.892878e-01 -9.941772e-02 -1.002743e+00 -1.872591e-01 -1.021383e+00 -2.642433e-01 -9.961282e-01 -2.859099e-01 -9.196574e-01 -3.183978e-01 -8.243138e-01 -3.203595e-01 -7.404558e-01 -1.984933e-01 -6.892792e-01 -1.329363e-01 -7.656197e-01 -1.429534e-02 -1.003166e+00 -1.581403e-01 -9.429423e-01 -1.952046e+00 2.037461e-01 -3.609785e-01 -2.262028e-01 1.435163e-02 -4.924256e-01 -1.407329e-02 -4.800072e-01 9.449447e-02 -4.572362e-01 3.406319e-01 -5.244147e-01 7.313010e-01 -6.458593e-01 1.236534e+00 
-1.531338e+00 1.482757e+00 -2.101048e+00 -4.167943e+00 -6.020611e+01 -1.075477e+00 3.376878e+00 -9.470714e-01 1.861846e+00 -6.442831e-01 1.099873e+00 -6.618173e-01 7.425503e-01 1.147988e-01 -4.311143e-01 4.025728e-01 2.297309e+00 2.015487e+00 1.925673e+00 1.682638e+00 6.009688e-01 1.481231e+00 4.525385e-01 1.322974e+00 3.360146e-01 1.456232e+00 3.740927e-01 1.309136e+00 4.375096e-01 9.027129e-01 5.818157e-01 4.774437e-01 5.540939e-01 2.692899e-01 5.127679e-01 2.413425e-01 4.885424e-01 2.853484e-01 4.217591e-01 4.366659e-01 4.178248e-01 7.652799e-01 5.159236e-01 7.990765e-01 4.104500e-01 8.706672e-01 -1.118613e-01 2.897733e-01 6.817458e-01 -5.974653e+00 4.119577e-01 -4.625470e-02 2.323865e-01 8.194711e-01 -3.541466e-01 3.922551e-01 -4.034407e-01 2.997987e-01 -4.203983e-01 4.089968e-01 -5.819211e-01 6.253804e-01 -9.694881e-01 5.046270e-01 
-1.625707e+00 1.015934e+00 -1.424616e+00 -4.912605e+00 -7.045396e+01 -7.287297e-01 2.715007e+00 -1.003895e+00 1.822011e+00 -8.745434e-01 1.103742e+00 -1.310048e+00 7.490413e-01 -2.341028e+00 1.949785e+00 -1.569201e+01 2.222423e+01 2.959302e+01 2.236091e+01 2.155712e+01 1.596817e+01 2.133783e+01 1.641336e+01 2.038780e+01 1.630514e+01 1.877834e+01 1.844277e+01 1.768592e+01 2.003062e+01 1.725796e+01 1.948925e+01 1.728010e+01 1.838535e+01 1.786364e+01 1.737306e+01 1.906185e+01 1.652337e+01 1.962474e+01 1.622060e+01 1.874859e+01 1.675363e+01 1.702331e+01 1.828712e+01 1.585624e+01 1.975584e+01 1.571844e+01 1.911089e+01 1.489093e+01 1.573596e+01 2.003774e+01 9.125661e+00 7.167685e+00 -3.801650e-01 1.002208e+00 -9.287779e-01 3.167458e-01 -6.139268e-01 3.185818e-01 -5.689939e-01 4.242915e-01 -7.238727e-01 5.826720e-01 -1.036618e+00 6.648725e-01 
-1.407008e+00 8.868085e-01 -9.805563e-01 -4.349413e+00 -7.739277e+01 -8.690039e-01 1.537302e+00 -1.315616e+00 1.494616e+00 -1.167018e+00 1.210260e+00 -2.236457e+00 1.864866e+00 -5.839529e+00 5.871647e+00 -2.225999e+01 4.495445e+01 4.730730e+01 4.053540e+01 3.443494e+01 3.565816e+01 4.020201e+01 3.690114e+01 4.038693e+01 3.666176e+01 3.828829e+01 4.187544e+01 3.717396e+01 4.587965e+01 3.733924e+01 4.519851e+01 3.803390e+01 4.301536e+01 4.048094e+01 4.084174e+01 4.405134e+01 3.895964e+01 4.623379e+01 3.789619e+01 4.519694e+01 3.856071e+01 4.133356e+01 4.233441e+01 3.922981e+01 4.657512e+01 3.907399e+01 4.680749e+01 3.817163e+01 4.573089e+01 7.819845e+01 8.948203e+00 1.173194e+01 -4.142256e+00 1.443306e-01 -1.772046e+00 -4.017645e-03 -7.017653e-01 3.071398e-01 -5.173123e-01 5.151323e-01 -6.461238e-01 6.919885e-01 -9.475155e-01 8.035191e-01 
-1.185334e+00 7.170757e-01 -2.472698e-01 -4.696391e+00 -8.304257e+01 -5.576407e-01 1.009227e+00 -1.155568e+00 1.271980e+00 -8.280105e-01 1.289674e+00 -9.532118e-01 1.865608e+00 -1.994409e+00 3.617820e+00 -1.800498e+00 -2.743664e-01 -6.098628e+00 4.104680e+00 -4.283188e+00 5.007590e+00 -9.785043e-01 5.500878e+00 1.120094e+00 5.958830e+00 2.390508e+00 6.950346e+00 3.400116e+00 7.931746e+00 4.419983e+00 8.252990e+00 5.341613e+00 8.079515e+00 6.568939e+00 7.700839e+00 7.910897e+00 7.361487e+00 8.985122e+00 7.106771e+00 9.524427e+00 7.097777e+00 9.492856e+00 7.902887e+00 9.794048e+00 8.967001e+00 1.058934e+01 9.398784e+00 1.241621e+01 1.394197e+01 2.446618e+01 -1.547351e+00 4.839826e+00 -1.878403e+00 7.359870e-01 -8.238878e-01 3.855853e-01 -4.746900e-01 4.449845e-01 -4.878083e-01 5.551034e-01 -6.428763e-01 6.918442e-01 -8.836519e-01 8.112669e-01 
-8.923015e-01 6.173506e-01 2.673123e-01 -4.259609e+00 -8.654284e+01 -5.487586e-01 3.653283e-01 -1.167581e+00 8.182770e-01 -4.992610e-01 8.079657e-01 9.519246e-01 5.556345e-02 4.475600e+00 -3.513892e+00 2.247710e+01 -4.548160e+01 -5.142639e+01 -4.004877e+01 -3.834682e+01 -3.487902e+01 -4.315243e+01 -3.619836e+01 -4.250992e+01 -3.600473e+01 -3.984231e+01 -4.131339e+01 -3.823377e+01 -4.528423e+01 -3.800622e+01 -4.457261e+01 -3.834319e+01 -4.241805e+01 -4.052217e+01 -4.031852e+01 -4.374756e+01 -3.856849e+01 -4.552017e+01 -3.761828e+01 -4.411377e+01 -3.834833e+01 -3.991209e+01 -4.226520e+01 -3.747226e+01 -4.642654e+01 -3.692283e+01 -4.593443e+01 -3.680938e+01 -4.762277e+01 -7.633949e+01 -6.234845e+00 -8.623047e+00 3.079865e+00 9.583722e-01 1.091362e+00 9.308387e-01 7.341134e-02 6.827017e-01 -2.848226e-01 6.671555e-01 -4.962515e-01 7.515788e-01 -7.079613e-01 8.422490e-01 
-6.291240e-01 4.785850e-01 8.911905e-01 -4.326653e+00 -8.921677e+01 -3.198096e-01 2.705596e-02 -1.153214e+00 3.994869e-01 -6.360498e-01 3.774352e-01 4.298896e-01 -4.167084e-01 3.099552e+00 -4.576693e+00 1.771169e+01 -2.206183e+01 -2.333971e+01 -2.654645e+01 -1.876816e+01 -2.060618e+01 -2.100528e+01 -2.163178e+01 -2.192413e+01 -2.216397e+01 -2.141070e+01 -2.530480e+01 -2.120287e+01 -2.797341e+01 -2.173143e+01 -2.768773e+01 -2.284067e+01 -2.640909e+01 -2.458814e+01 -2.507376e+01 -2.707195e+01 -2.382714e+01 -2.866685e+01 -2.330469e+01 -2.813688e+01 -2.397289e+01 -2.611370e+01 -2.626200e+01 -2.507120e+01 -2.896630e+01 -2.558730e+01 -2.935018e+01 -2.600410e+01 -2.482287e+01 -4.598697e+01 -1.138656e+01 -1.233411e+01 1.946372e+00 -3.224286e-01 1.033506e+00 6.194794e-01 9.268158e-02 6.098580e-01 -2.594877e-01 6.387998e-01 -4.427834e-01 7.253655e-01 -5.863014e-01 8.127968e-01 
-3.519507e-01 3.756147e-01 1.344821e+00 -3.995658e+00 -9.035505e+01 -1.721752e-01 -3.277066e-01 -1.115555e+00 -6.223364e-02 -7.394004e-01 -5.875209e-02 -2.401939e-01 -5.241711e-01 -1.480350e-01 -6.652359e-01 -7.354562e-01 -2.005848e+00 1.174311e+00 -1.806776e+00 1.361087e+00 -1.211961e+00 7.902860e-01 -1.002979e+00 3.190660e-01 -8.065156e-01 -2.920335e-01 -8.751261e-01 -5.461809e-01 -9.988333e-01 -4.278660e-01 -1.224982e+00 -2.410158e-01 -1.217415e+00 -3.155133e-01 -1.125729e+00 -5.740910e-01 -9.749856e-01 -9.518869e-01 -7.006279e-01 -1.441059e+00 -5.019674e-01 -1.995282e+00 -5.878577e-01 -2.237677e+00 -5.948691e-01 -2.450922e+00 -4.084556e-01 -1.744780e+00 -2.466259e+00 3.443402e+00 3.048168e-01 -1.385176e+00 2.002758e-01 -6.886205e-01 2.491713e-01 2.213941e-01 1.274034e-02 5.054202e-01 -1.792463e-01 6.259756e-01 -3.103771e-01 7.239482e-01 -4.033984e-01 7.958279e-01 
-1.142363e-01 2.478698e-01 1.816333e+00 -3.908910e+00 -9.091182e+01 -1.075363e-02 -5.087130e-01 -1.134464e+00 -3.215033e-01 -8.792030e-01 -1.776489e-01 -5.565848e-01 -3.148027e-01 -4.232738e-01 -1.386863e-01 -1.801081e+00 1.208450e+00 9.612057e-01 2.749929e-01 6.065165e-01 9.526481e-02 5.166095e-01 4.766608e-02 4.121928e-01 1.730896e-02 2.443320e-01 5.144974e-03 1.424728e-01 7.217062e-03 9.614160e-02 6.271014e-02 1.200631e-01 1.383961e-01 1.810057e-01 1.800295e-01 1.985477e-01 1.969690e-01 1.937361e-01 1.799614e-01 1.208048e-01 1.726632e-01 -4.891448e-02 1.521586e-01 -2.126202e-01 1.972553e-01 -2.294401e-01 2.260328e-01 1.804981e-01 -1.605834e-01 1.010197e+00 3.101894e-02 -2.084716e-01 1.088451e-01 -1.052547e-01 3.395148e-02 2.105785e-01 -8.481561e-02 4.180860e-01 -1.803343e-01 5.587698e-01 -2.477639e-01 6.743092e-01 -2.754031e-01 7.489888e-01 
1.190126e-01 1.362026e-01 2.168354e+00 -3.647418e+00 -9.032402e+01 1.633508e-01 -6.369444e-01 -1.110293e+00 -5.359468e-01 -1.074540e+00 -2.831508e-01 -1.141671e+00 -1.686891e-01 -1.601593e+00 8.881988e-01 -5.058697e+00 2.866021e+00 7.458886e+00 6.441931e+00 7.449592e+00 4.025240e+00 6.143010e+00 4.315635e+00 5.758759e+00 4.327803e+00 5.032004e+00 4.650411e+00 4.938622e+00 4.837465e+00 5.035949e+00 4.754544e+00 4.971562e+00 4.472754e+00 4.898546e+00 4.306329e+00 4.839285e+00 4.332142e+00 4.633315e+00 4.455520e+00 4.232037e+00 4.643721e+00 3.737848e+00 4.971585e+00 3.537432e+00 5.260849e+00 3.854469e+00 5.180084e+00 4.225095e+00 3.705889e+00 5.666273e+00 3.744495e+00 2.459447e+00 2.102613e-01 4.261664e-01 -2.835002e-01 2.591397e-01 -1.944338e-01 3.920874e-01 -1.507906e-01 5.311362e-01 -1.442046e-01 6.458091e-01 -1.180749e-01 7.070915e-01 
3.143564e-01 1.899302e-02 2.482656e+00 -3.432724e+00 -8.923314e+01 2.520587e-01 -7.252131e-01 -1.065232e+00 -6.889583e-01 -1.111573e+00 -3.761984e-01 -1.652061e+00 1.588115e-01 -4.054695e+00 3.919749e+00 -1.470824e+01 1.152149e+01 2.004256e+01 2.146490e+01 1.951238e+01 1.591032e+01 1.764627e+01 1.746600e+01 1.799936e+01 1.769916e+01 1.660464e+01 1.927578e+01 1.749916e+01 2.025562e+01 1.894792e+01 1.995706e+01 1.945331e+01 1.866498e+01 1.961278e+01 1.789258e+01 1.983386e+01 1.792706e+01 1.959087e+01 1.829715e+01 1.866936e+01 1.878260e+01 1.724299e+01 1.998866e+01 1.738188e+01 2.090965e+01 1.875464e+01 2.113708e+01 1.899282e+01 1.757254e+01 3.521195e+01 1.199921e+01 1.080964e+01 -1.243963e+00 5.430381e-01 -1.006304e+00 4.638145e-02 -3.274500e-01 2.871736e-01 -1.298433e-01 4.702982e-01 -7.113708e-02 5.983249e-01 -1.378266e-03 6.560495e-01 
4.986477e-01 -8.499355e-02 2.710989e+00 -3.171179e+00 -8.726746e+01 3.755372e-01 -7.214349e-01 -9.726327e-01 -7.056554e-01 -1.013672e+00 -2.165096e-01 -1.376979e+00 7.634098e-01 -2.943346e+00 3.491432e+00 -7.986790e+00 6.788688e+00 6.355861e+00 1.182665e+01 5.952661e+00 1.021327e+01 7.040774e+00 1.124397e+01 8.242207e+00 1.152608e+01 8.292383e+00 1.261154e+01 9.503946e+00 1.334376e+01 1.097835e+01 1.329171e+01 1.177701e+01 1.249807e+01 1.237129e+01 1.200593e+01 1.299504e+01 1.200105e+01 1.332117e+01 1.214212e+01 1.320228e+01 1.228264e+01 1.266139e+01 1.299229e+01 1.317930e+01 1.341203e+01 1.458228e+01 1.315196e+01 1.483973e+01 1.326191e+01 2.835160e+01 5.932996e+00 8.459490e+00 -1.570297e+00 8.923199e-01 -8.526828e-01 2.231606e-01 -2.477002e-01 3.239199e-01 -5.281057e-02 4.575514e-01 2.789488e-02 5.656179e-01 1.282256e-01 6.044205e-01 
6.459527e-01 -1.758476e-01 2.875532e+00 -2.869075e+00 -8.484697e+01 3.910635e-01 -7.299559e-01 -8.699269e-01 -7.187405e-01 -6.655096e-01 -3.066036e-01 -5.795970e-02 8.170794e-03 1.819786e+00 -2.163235e+00 1.129981e+01 -1.011562e+01 -2.099981e+01 -1.853354e+01 -1.984062e+01 -1.359255e+01 -1.795929e+01 -1.528680e+01 -1.775659e+01 -1.543413e+01 -1.614649e+01 -1.693704e+01 -1.664595e+01 -1.776471e+01 -1.758988e+01 -1.743042e+01 -1.762238e+01 -1.617912e+01 -1.744127e+01 -1.549211e+01 -1.733755e+01 -1.559197e+01 -1.685465e+01 -1.600138e+01 -1.587048e+01 -1.650887e+01 -1.448957e+01 -1.772585e+01 -1.442633e+01 -1.860356e+01 -1.529971e+01 -1.856735e+01 -1.486266e+01 -1.745839e+01 -3.010975e+01 -9.485145e+00 -6.543909e+00 4.423573e-01 4.069546e-01 5.021427e-01 5.682895e-01 1.649980e-01 4.566997e-01 8.660607e-02 4.761770e-01 1.143855e-01 5.425531e-01 2.237534e-01 5.583964e-01 
7.778137e-01 -2.465042e-01 2.977373e+00 -2.609507e+00 -8.171687e+01 4.891396e-01 -7.091008e-01 -8.022853e-01 -8.073368e-01 -6.556353e-01 -5.589959e-01 2.701496e-03 -7.467562e-01 2.219442e+00 -4.086431e+00 1.102293e+01 -8.429363e+00 -1.433146e+01 -1.862383e+01 -1.489443e+01 -1.414269e+01 -1.376172e+01 -1.544349e+01 -1.453335e+01 -1.589112e+01 -1.384606e+01 -1.735091e+01 -1.492622e+01 -1.828592e+01 -1.640882e+01 -1.805400e+01 -1.703764e+01 -1.689290e+01 -1.735808e+01 -1.614214e+01 -1.776343e+01 -1.613295e+01 -1.779130e+01 -1.645416e+01 -1.723764e+01 -1.687938e+01 -1.622617e+01 -1.792363e+01 -1.654554e+01 -1.866421e+01 -1.789055e+01 -1.882637e+01 -1.795916e+01 -1.580855e+01 -3.234736e+01 -1.129233e+01 -1.042975e+01 9.649365e-01 -2.198611e-01 8.831059e-01 4.912477e-01 3.079690e-01 4.459439e-01 1.703156e-01 4.577827e-01 1.959429e-01 5.087798e-01 3.206799e-01 5.065815e-01 
8.689278e-01 -3.094162e-01 3.023566e+00 -2.336333e+00 -7.822500e+01 5.134757e-01 -7.234222e-01 -7.376891e-01 -8.929439e-01 -6.546606e-01 -7.346579e-01 -4.276923e-01 -8.051720e-01 -3.287780e-01 -1.229325e+00 -8.679816e-02 -9.707270e-01 -2.683887e-01 -2.978468e+00 -4.495738e-01 -2.303215e+00 -9.136293e-01 -2.344198e+00 -1.232115e+00 -2.426967e+00 -1.471458e+00 -2.624406e+00 -1.747066e+00 -2.756338e+00 -1.984205e+00 -2.755741e+00 -2.108086e+00 -2.564491e+00 -2.280692e+00 -2.386205e+00 -2.526694e+00 -2.330935e+00 -2.732749e+00 -2.333006e+00 -2.865894e+00 -2.374715e+00 -2.988658e+00 -2.486792e+00 -3.139711e+00 -2.460241e+00 -3.546435e+00 -2.248627e+00 -3.455771e+00 -2.130002e+00 -2.913135e+00 -2.329595e+00 -2.224558e+00 -1.069883e-02 -4.346257e-01 3.136143e-01 1.654212e-01 2.287203e-01 3.307291e-01 1.962823e-01 4.079585e-01 2.420638e-01 4.701015e-01 3.796958e-01 4.597880e-01 
9.465150e-01 -3.533491e-01 3.015583e+00 -2.096969e+00 -7.415564e+01 5.764814e-01 -6.846470e-01 -6.483519e-01 -9.214346e-01 -6.016449e-01 -7.894221e-01 -4.390687e-01 -7.393500e-01 -6.916611e-01 -4.145528e-01 -1.994095e+00 9.782958e-01 3.002205e-01 -2.888141e-01 5.448199e-02 -2.573625e-01 -1.429788e-01 -1.894929e-01 -1.078136e-01 -1.973575e-01 -1.841760e-01 -1.609278e-01 -1.789798e-01 -1.118402e-01 -1.185027e-01 -8.919984e-02 -1.821437e-02 -5.138282e-02 1.518702e-02 1.444569e-03 1.473139e-03 6.955078e-03 -1.813295e-02 -1.482602e-02 -7.411135e-02 -4.534415e-02 -2.273071e-01 -3.232910e-02 -2.604926e-01 5.212100e-02 -3.698736e-01 2.085978e-01 -2.011685e-01 1.487237e-01 1.907527e+00 -8.055883e-01 -6.003777e-02 -1.466200e-01 -2.691969e-01 2.194485e-01 8.164252e-02 2.428141e-01 2.697759e-01 2.402870e-01 3.639807e-01 2.958889e-01 4.267380e-01 4.420669e-01 4.071771e-01 
9.803323e-01 -3.916004e-01 2.965278e+00 -1.885210e+00 -6.982432e+01 5.825931e-01 -6.487894e-01 -6.360966e-01 -8.965570e-01 -6.553180e-01 -7.231956e-01 -5.832625e-01 -5.293236e-01 -6.797826e-01 -1.436105e-01 -9.636329e-01 3.784005e-01 -3.402659e-01 1.515784e-02 -1.480868e-01 -5.329769e-02 -1.770155e-01 -6.844525e-02 -1.650260e-01 -7.798869e-02 -1.751672e-01 -6.424254e-02 -1.552809e-01 -3.607637e-02 -1.049716e-01 -1.776204e-02 -3.719129e-02 1.114660e-02 5.646356e-03 3.957914e-02 2.391758e-02 3.779718e-02 2.859249e-02 2.036770e-02 8.260572e-03 1.769347e-03 -4.878403e-02 2.999858e-03 -5.659566e-02 4.890939e-02 -1.986865e-02 6.742709e-02 2.404744e-01 -1.672676e-01 9.301884e-01 -3.397280e-01 2.650445e-01 -7.882279e-02 1.308996e-02 9.784154e-02 1.067218e-01 1.693602e-01 2.288678e-01 2.199983e-01 3.193561e-01 3.021080e-01 3.848912e-01 4.612869e-01 3.613942e-01 
1.004224e+00 -4.138681e-01 2.866633e+00 -1.677952e+00 -6.499736e+01 6.097920e-01 -5.851973e-01 -5.566185e-01 -8.550376e-01 -6.144186e-01 -6.842548e-01 -5.814292e-01 -4.590122e-01 -6.666189e-01 -1.142055e-01 -7.284746e-01 1.472322e-01 -4.084145e-01 -1.424724e-02 -1.707807e-01 -4.907344e-02 -1.722844e-01 -6.551682e-02 -1.649544e-01 -6.880624e-02 -1.630376e-01 -5.646479e-02 -1.417293e-01 -3.364737e-02 -9.575549e-02 -1.711539e-02 -4.030027e-02 6.350694e-03 -3.769768e-03 2.815049e-02 1.487886e-02 2.819267e-02 1.911427e-02 1.647500e-02 4.638377e-03 4.881422e-03 -2.409632e-02 7.321872e-03 -1.866939e-02 3.648746e-02 4.488253e-02 3.745994e-02 2.776061e-01 -1.271701e-01 5.815914e-01 -2.367709e-01 3.451261e-01 -7.077061e-02 1.169496e-01 7.787359e-02 1.270251e-01 1.673649e-01 2.091066e-01 2.351472e-01 2.857129e-01 3.259625e-01 3.437333e-01 4.883765e-01 3.121305e-01 
9.872099e-01 -4.266698e-01 2.733098e+00 -1.499116e+00 -5.997657e+01 5.881842e-01 -5.216875e-01 -5.373294e-01 -7.841717e-01 -6.079036e-01 -6.055751e-01 -5.641756e-01 -3.861221e-01 -5.610109e-01 -1.429935e-01 -5.426406e-01 -1.016756e-02 -4.056050e-01 -2.439718e-02 -2.363895e-01 -3.010884e-02 -1.823493e-01 -4.081694e-02 -1.564919e-01 -4.412534e-02 -1.395225e-01 -3.920970e-02 -1.154967e-01 -2.694276e-02 -8.000253e-02 -1.465205e-02 -4.063135e-02 3.177355e-03 -1.178004e-02 1.901457e-02 4.625318e-03 2.249637e-02 1.016622e-02 1.847055e-02 6.263227e-03 1.252736e-02 2.287512e-03 9.773481e-03 2.477986e-02 1.198165e-02 9.353095e-02 -1.899638e-02 2.322650e-01 -1.308219e-01 3.639463e-01 -1.256325e-01 2.957791e-01 -3.107763e-02 1.799129e-01 5.809542e-02 1.620259e-01 1.344785e-01 2.037716e-01 2.106678e-01 2.598921e-01 3.103219e-01 3.094170e-01 4.761497e-01 2.723684e-01 
9.622157e-01 -4.264637e-01 2.560192e+00 -1.319238e+00 -5.453162e+01 5.867997e-01 -4.489916e-01 -4.640163e-01 -7.163882e-01 -5.583027e-01 -5.579309e-01 -5.281173e-01 -3.575900e-01 -5.133834e-01 -1.590296e-01 -4.717696e-01 -5.837305e-02 -3.766372e-01 -5.436134e-02 -2.370193e-01 -4.246952e-02 -1.794372e-01 -4.403156e-02 -1.514795e-01 -4.318328e-02 -1.312657e-01 -3.707904e-02 -1.068043e-01 -2.617851e-02 -7.455787e-02 -1.490082e-02 -4.085039e-02 -5.572996e-05 -1.538130e-02 1.274677e-02 -5.423994e-05 1.666442e-02 6.375666e-03 1.464400e-02 7.002356e-03 1.063943e-02 1.127116e-02 8.299330e-03 3.741881e-02 6.639398e-03 1.000845e-01 -1.876152e-02 2.033764e-01 -8.990430e-02 2.787918e-01 -9.214490e-02 2.701133e-01 -1.851592e-02 1.953147e-01 5.737525e-02 1.700650e-01 1.318296e-01 1.932649e-01 2.104814e-01 2.347573e-01 3.106967e-01 2.737577e-01 4.722879e-01 2.299281e-01 
9.028345e-01 -4.145993e-01 2.357389e+00 -1.156979e+00 -4.894008e+01 5.431265e-01 -3.816948e-01 -4.295980e-01 -6.350946e-01 -5.178737e-01 -4.911003e-01 -4.779573e-01 -3.199340e-01 -4.422053e-01 -1.705059e-01 -3.982396e-01 -8.892702e-02 -3.289240e-01 -5.824111e-02 -2.355491e-01 -3.777571e-02 -1.768722e-01 -3.162258e-02 -1.411494e-01 -2.894315e-02 -1.153695e-01 -2.524953e-02 -9.061602e-02 -1.881108e-02 -6.382211e-02 -1.079947e-02 -3.755884e-02 -9.540617e-05 -1.684762e-02 9.414953e-03 -3.055617e-03 1.357707e-02 5.220634e-03 1.316256e-02 1.148471e-02 9.484815e-03 2.307464e-02 3.361418e-03 5.023917e-02 -7.067272e-03 9.848169e-02 -3.286087e-02 1.626368e-01 -7.409143e-02 2.131322e-01 -5.830296e-02 2.193492e-01 -6.640664e-03 1.875727e-01 4.967014e-02 1.724970e-01 1.119652e-01 1.853494e-01 1.855401e-01 2.144855e-01 2.823209e-01 2.447037e-01 4.371504e-01 1.972158e-01 
8.364548e-01 -3.934583e-01 2.125708e+00 -9.988866e-01 -4.300269e+01 5.194780e-01 -3.091734e-01 -3.570825e-01 -5.567113e-01 -4.578405e-01 -4.390284e-01 -4.270733e-01 -2.918340e-01 -3.918847e-01 -1.672609e-01 -3.493102e-01 -9.702128e-02 -2.927383e-01 -6.700008e-02 -2.170646e-01 -4.395566e-02 -1.644923e-01 -3.402763e-02 -1.308215e-01 -2.901634e-02 -1.058428e-01 -2.430668e-02 -8.253121e-02 -1.810574e-02 -5.848425e-02 -1.079242e-02 -3.560385e-02 -1.788029e-03 -1.729150e-02 6.064801e-03 -4.558325e-03 9.874777e-03 4.007941e-03 9.910759e-03 1.185511e-02 7.008598e-03 2.500980e-02 1.791788e-03 5.054515e-02 -7.282477e-03 9.124776e-02 -2.621036e-02 1.404029e-01 -5.204022e-02 1.777041e-01 -4.241688e-02 1.918909e-01 -1.353280e-04 1.751015e-01 4.894809e-02 1.630983e-01 1.057833e-01 1.698933e-01 1.747323e-01 1.902356e-01 2.651756e-01 2.120262e-01 4.084121e-01 1.617254e-01 
7.433025e-01 -3.615202e-01 1.869384e+00 -8.494125e-01 -3.695640e+01 4.606497e-01 -2.452209e-01 -3.117172e-01 -4.713053e-01 -4.025272e-01 -3.734826e-01 -3.705887e-01 -2.524694e-01 -3.337136e-01 -1.540419e-01 -2.947548e-01 -9.323949e-02 -2.479913e-01 -5.959783e-02 -1.931423e-01 -3.677176e-02 -1.487569e-01 -2.501031e-02 -1.163022e-01 -1.930690e-02 -9.137986e-02 -1.564461e-02 -6.967221e-02 -1.165381e-02 -4.926560e-02 -6.698899e-03 -3.068277e-02 -5.268657e-04 -1.551536e-02 4.983556e-03 -4.109847e-03 7.800113e-03 4.876055e-03 7.471900e-03 1.419006e-02 3.956401e-03 2.785014e-02 -2.748456e-03 4.959838e-02 -1.320758e-02 7.982133e-02 -2.857760e-02 1.139795e-01 -4.284789e-02 1.428735e-01 -3.080754e-02 1.562774e-01 6.545598e-04 1.522037e-01 3.947811e-02 1.478927e-01 8.686415e-02 1.533609e-01 1.470430e-01 1.680908e-01 2.277446e-01 1.840801e-01 3.565784e-01 1.343362e-01 
6.443513e-01 -3.240747e-01 1.594065e+00 -7.087770e-01 -3.064895e+01 4.195245e-01 -1.753710e-01 -2.392725e-01 -3.856311e-01 -3.354404e-01 -3.137646e-01 -3.130246e-01 -2.148490e-01 -2.818674e-01 -1.344866e-01 -2.489508e-01 -8.399494e-02 -2.109999e-01 -5.526115e-02 -1.668963e-01 -3.504808e-02 -1.296692e-01 -2.377538e-02 -1.015532e-01 -1.795389e-02 -7.956756e-02 -1.424151e-02 -6.049900e-02 -1.059196e-02 -4.288215e-02 -6.316880e-03 -2.704581e-02 -1.281267e-03 -1.402636e-02 3.124452e-03 -3.968403e-03 5.393329e-03 4.356320e-03 5.050425e-03 1.331306e-02 2.016018e-03 2.601258e-02 -3.625182e-03 4.495133e-02 -1.206356e-02 6.987700e-02 -2.326815e-02 9.687126e-02 -3.228718e-02 1.197214e-01 -2.365300e-02 1.328099e-01 1.816224e-03 1.324455e-01 3.470089e-02 1.294989e-01 7.547272e-02 1.323339e-01 1.276515e-01 1.418953e-01 1.975151e-01 1.521546e-01 3.089134e-01 1.042466e-01 
5.263347e-01 -2.783117e-01 1.300048e+00 -5.706206e-01 -2.426529e+01 3.509776e-01 -1.143586e-01 -1.860477e-01 -2.960581e-01 -2.721491e-01 -2.444464e-01 -2.537194e-01 -1.680679e-01 -2.266948e-01 -1.064331e-01 -1.991018e-01 -6.576814e-02 -1.688754e-01 -4.078261e-02 -1.362433e-01 -2.410982e-02 -1.071232e-01 -1.454708e-02 -8.353290e-02 -9.767050e-03 -6.448532e-02 -7.273276e-03 -4.826833e-02 -5.217194e-03 -3.388007e-02 -2.744228e-03 -2.126035e-02 2.685444e-04 -1.077825e-02 2.884179e-03 -2.293205e-03 3.957151e-03 5.205337e-03 2.862038e-03 1.340991e-02 -6.880409e-04 2.428340e-02 -6.654436e-03 3.912293e-02 -1.467551e-02 5.748708e-02 -2.352929e-02 7.713607e-02 -2.873627e-02 9.462241e-02 -2.113471e-02 1.052082e-01 -2.493595e-03 1.075739e-01 2.264596e-02 1.073876e-01 5.478828e-02 1.098825e-01 9.676525e-02 1.165099e-01 1.536313e-01 1.232150e-01 2.454635e-01 7.996088e-02 
4.043368e-01 -2.301438e-01 9.955903e-01 -4.429098e-01 -1.770831e+01 2.968549e-01 -4.716969e-02 -1.145914e-01 -2.046878e-01 -2.011581e-01 -1.771946e-01 -1.928395e-01 -1.214672e-01 -1.735462e-01 -7.593601e-02 -1.533458e-01 -4.619089e-02 -1.310355e-01 -2.820893e-02 -1.065654e-01 -1.630066e-02 -8.416934e-02 -9.524782e-03 -6.566455e-02 -6.298834e-03 -5.054568e-02 -4.765906e-03 -3.764620e-02 -3.512266e-03 -2.625530e-02 -1.874307e-03 -1.631976e-02 1.862493e-04 -8.059685e-03 1.927697e-03 -1.301017e-03 2.444420e-03 4.809053e-03 1.188997e-03 1.163374e-02 -2.074276e-03 2.063820e-02 -7.250606e-03 3.264626e-02 -1.390805e-02 4.712711e-02 -2.083870e-02 6.225755e-02 -2.471228e-02 7.557170e-02 -1.963178e-02 8.399164e-02 -5.660803e-03 8.596481e-02 1.374394e-02 8.507208e-02 3.855497e-02 8.533785e-02 7.076864e-02 8.832573e-02 1.141225e-01 9.114185e-02 1.845140e-01 5.345978e-02 
2.709127e-01 -1.765906e-01 6.787882e-01 -3.130325e-01 -1.110449e+01 2.233452e-01 1.277579e-02 -5.496448e-02 -1.114657e-01 -1.326251e-01 -1.042118e-01 -1.313754e-01 -6.916764e-02 -1.187195e-01 -4.003664e-02 -1.051051e-01 -2.107573e-02 -9.016577e-02 -9.847578e-03 -7.407381e-02 -3.066080e-03 -5.886074e-02 3.005378e-04 -4.574128e-02 1.298170e-03 -3.473983e-02 1.151597e-03 -2.535137e-02 8.865363e-04 -1.718512e-02 1.028302e-03 -1.015249e-02 1.575903e-03 -4.292886e-03 1.970103e-03 6.007906e-04 1.481839e-03 5.151462e-03 -4.202702e-04 1.026940e-02 -3.993625e-03 1.685039e-02 -9.136702e-03 2.532200e-02 -1.530143e-02 3.530263e-02 -2.122832e-02 4.569779e-02 -2.437482e-02 5.486109e-02 -2.129344e-02 6.045918e-02 -1.246969e-02 6.172107e-02 2.163625e-04 6.064957e-02 1.664377e-02 5.976120e-02 3.799638e-02 6.036576e-02 6.671308e-02 6.063897e-02 1.144224e-01 3.037067e-02 
1.358310e-01 -1.229714e-01 3.589571e-01 -1.929672e-01 -4.416613e+00 1.609905e-01 7.794207e-02 1.457127e-02 -1.659388e-02 -6.019265e-02 -3.169296e-02 -6.916335e-02 -1.652591e-02 -6.498838e-02 -2.924214e-03 -5.918078e-02 4.624057e-03 -5.177222e-02 7.741905e-03 -4.283903e-02 8.712372e-03 -3.389620e-02 8.146442e-03 -2.598606e-02 6.588192e-03 -1.928364e-02 4.755203e-03 -1.353801e-02 3.264655e-03 -8.541969e-03 2.391087e-03 -4.278701e-03 2.018152e-03 -7.954376e-04 1.631769e-03 2.061942e-03 6.017874e-04 4.767411e-03 -1.545382e-03 8.001404e-03 -5.039303e-03 1.239182e-02 -9.794357e-03 1.816769e-02 -1.535632e-02 2.493790e-02 -2.074270e-02 3.179297e-02 -2.417849e-02 3.747963e-02 -2.346484e-02 4.035718e-02 -1.876948e-02 3.966359e-02 -1.173527e-02 3.668255e-02 -2.983832e-03 3.333283e-02 7.788042e-03 3.083758e-02 2.166410e-02 2.823886e-02 4.574517e-02 5.811941e-03 
-3.068347e-03 -6.689374e-02 3.330624e-02 -6.659924e-02 2.290931e+00 8.730358e-02 1.384326e-01 7.989221e-02 7.848692e-02 1.177342e-02 4.255629e-02 -6.388011e-03 3.783732e-02 -1.031544e-02 3.585575e-02 -1.200619e-02 3.212138e-02 -1.200332e-02 2.728621e-02 -1.041738e-02 2.241965e-02 -8.046016e-03 1.775952e-02 -5.592956e-03 1.342302e-02 -3.355107e-03 9.647224e-03 -1.360894e-03 6.667114e-03 3.944048e-04 4.532539e-03 1.853302e-03 3.031864e-03 2.954502e-03 1.693219e-03 3.776158e-03 -3.758374e-05 4.597197e-03 -2.603165e-03 5.815126e-03 -6.235881e-03 7.772855e-03 -1.088619e-02 1.055315e-02 -1.617767e-02 1.386363e-02 -2.134993e-02 1.707842e-02 -2.523201e-02 1.926507e-02 -2.670338e-02 1.921661e-02 -2.626071e-02 1.645390e-02 -2.521549e-02 1.172953e-02 -2.448585e-02 6.302874e-03 -2.460792e-02 1.176419e-03 -2.586464e-02 -3.801485e-03 -2.576132e-02 -1.765559e-02 
-1.410527e-01 -1.254642e-02 -2.886295e-01 5.163355e-02 8.992447e+00 2.184783e-02 2.023036e-01 1.468579e-01 1.740438e-01 8.359604e-02 1.171273e-01 5.555589e-02 9.303819e-02 4.300639e-02 7.582212e-02 3.349507e-02 6.054274e-02 2.625657e-02 4.720570e-02 2.119058e-02 3.615223e-02 1.764997e-02 2.712871e-02 1.500160e-02 1.980137e-02 1.288691e-02 1.397911e-02 1.114640e-02 9.539161e-03 9.661324e-03 6.284467e-03 8.287714e-03 3.869437e-03 6.900380e-03 1.794357e-03 5.493607e-03 -4.726835e-04 4.219449e-03 -3.356769e-03 3.316951e-03 -7.098676e-03 2.971179e-03 -1.170784e-02 3.158353e-03 -1.694919e-02 3.570666e-03 -2.233946e-02 3.657567e-03 -2.719519e-02 2.669487e-03 -3.099194e-02 -2.928613e-04 -3.434142e-02 -5.655136e-03 -3.871049e-02 -1.291007e-02 -4.555576e-02 -2.105091e-02 -5.630233e-02 -2.911324e-02 -7.261012e-02 -3.648185e-02 -9.657162e-02 -4.172416e-02 