# vtk DataFile Version 2.0
Comment goes here
ASCII

DATASET STRUCTURED_POINTS
FIELD FieldData 1
TIME 1 1 double
0.88000000
DIMENSIONS    128   16   1

ORIGIN    0.000   0.000   0.000
SPACING   0.0078125 0.015625   1.000

POINT_DATA   2048
SCALARS Omega double
LOOKUP_TABLE default

3.451914e-04 1.168703e-04 -8.263185e-05 -2.097458e-04 -2.011842e-04 -6.234462e-05 -1.725422e-05 -9.254182e-05 5.672212e-05 -3.561327e-05 -1.943266e-06 -1.857229e-04 -1.439661e-04 -4.588076e-04 1.405749e-04 -2.273137e-04 4.147809e-04 -1.304218e-04 2.694185e-04 1.133971e-04 -9.204205e-04 -5.022417e-04 -1.577916e-04 -2.205508e-04 -1.855055e-04 -1.725374e-04 -2.261473e-04 -1.998961e-04 -3.468561e-04 -3.114663e-04 -5.511606e-04 -5.545965e-04 -9.438687e-04 -1.055830e-03 -1.639992e-03 -1.907002e-03 -2.699202e-03 -3.144145e-03 -4.118186e-03 -4.691313e-03 -5.724133e-03 -6.233152e-03 -7.013023e-03 -7.023134e-03 -6.965082e-03 -5.831810e-03 -4.345104e-03 -1.880652e-03 4.850080e-04 2.627050e-03 3.016705e-03 1.047074e-03 -5.259698e-03 -1.762160e-02 -3.393751e-02 -2.675903e-02 5.033782e-02 7.794175e-02 2.598853e-02 1.837036e-02 2.173954e-02 1.106950e-02 1.537802e-02 3.109952e-04 -1.003840e-02 -3.889369e-03 -2.247975e-02 -3.203726e-02 -2.369380e-02 -5.758825e-02 -4.085291e-02 -8.289390e-03 -7.378099e-02 -1.023655e-01 -6.611435e-02 -4.152914e-02 -2.851841e-02 -1.826321e-02 -9.386042e-03 -1.806728e-03 3.283791e-03 6.983532e-03 8.569534e-03 9.570366e-03 9.178779e-03 8.857966e-03 7.618135e-03 6.796478e-03 5.306131e-03 4.397295e-03 2.976354e-03 2.207661e-03 1.050830e-03 5.739538e-04 -1.735167e-04 -2.759459e-04 -6.095258e-04 -4.197262e-04 -4.857685e-04 -1.894693e-04 -1.841029e-04 3.883915e-05 -1.814908e-05 4.304050e-05 -9.943152e-05 -1.548344e-04 -2.990869e-04 -3.907517e-04 -4.995778e-04 -6.015058e-04 -6.601887e-04 -7.505801e-04 -7.413708e-04 -7.846409e-04 -6.692693e-04 -6.376810e-04 -4.200012e-04 -3.464623e-04 -8.264759e-05 -2.691311e-05 2.286475e-04 1.430306e-04 5.247547e-04 7.660283e-04 7.833724e-04 7.880806e-04 7.231634e-04 5.613021e-04 
-6.924775e-03 -9.916137e-03 -1.239222e-02 2.611966e-02 1.099354e-01 -7.136198e-01 -1.193619e+00 -5.030092e-01 -5.937731e-01 -4.876610e-01 -5.539816e-01 -3.015208e-01 5.933373e-01 2.282056e+00 3.093731e+00 2.791797e+00 2.842778e+00 2.915436e+00 2.744801e+00 3.041251e+00 2.423739e+00 3.786522e-01 -3.431135e-01 -5.320750e-01 -4.861078e-01 -5.212297e-01 -4.856750e-01 -5.227942e-01 -4.939223e-01 -5.227425e-01 -5.005100e-01 -5.205217e-01 -5.060348e-01 -5.172632e-01 -5.105865e-01 -5.136955e-01 -5.142625e-01 -5.101876e-01 -5.172443e-01 -5.067590e-01 -5.192208e-01 -5.033796e-01 -5.193712e-01 -4.997463e-01 -5.164891e-01 -4.947212e-01 -5.091262e-01 -4.864800e-01 -4.961743e-01 -4.745147e-01 -4.782494e-01 -4.618083e-01 -4.638057e-01 -4.662313e-01 -4.042784e-01 -3.862827e-02 1.314571e+00 1.618286e+00 9.161907e-01 1.284583e+00 1.548171e+00 1.391921e+00 1.585902e+00 1.668471e+00 1.437737e+00 1.645758e+00 1.555300e+00 1.124223e+00 1.404511e+00 8.302117e-01 3.535793e-01 1.587820e+00 9.974090e-01 -4.770379e-01 -5.139506e-01 -4.903052e-01 -4.586012e-01 -4.750435e-01 -4.703899e-01 -4.784207e-01 -4.796666e-01 -4.828996e-01 -4.895714e-01 -4.895389e-01 -4.993305e-01 -4.960572e-01 -5.076480e-01 -5.013503e-01 -5.143326e-01 -5.052854e-01 -5.193390e-01 -5.080505e-01 -5.225564e-01 -5.101610e-01 -5.240385e-01 -5.118390e-01 -5.238097e-01 -5.134349e-01 -5.222040e-01 -5.154949e-01 -5.195275e-01 -5.185336e-01 -5.160206e-01 -5.228628e-01 -5.120062e-01 -5.282519e-01 -5.072361e-01 -5.338890e-01 -5.020587e-01 -5.393523e-01 -4.971143e-01 -5.437747e-01 -4.927141e-01 -5.460386e-01 -4.889380e-01 -5.452692e-01 -4.852951e-01 -5.410725e-01 -4.777245e-01 -5.333628e-01 -4.379538e-01 -7.328583e-01 -1.097656e+00 -2.687604e-01 -4.070172e-02 -2.881909e-02 -1.385022e-02 -7.726178e-03 
-5.989113e-03 -2.173958e-02 -3.578384e-02 2.423868e-01 1.546680e+00 -6.775950e-01 -2.796588e+00 -5.721537e-01 -1.096281e+00 -6.907003e-01 -9.269850e-01 -4.475776e-01 1.040775e-01 -6.123156e-01 -1.391919e+00 -1.323218e+00 -1.155319e+00 -1.325128e+00 -1.179877e+00 -1.445965e+00 -4.559704e-01 -2.212711e-01 -5.610378e-01 -8.855011e-01 -7.890017e-01 -8.775525e-01 -7.609595e-01 -8.580341e-01 -7.532774e-01 -8.499710e-01 -7.612744e-01 -8.497999e-01 -7.742621e-01 -8.379356e-01 -7.735548e-01 -8.143708e-01 -7.753052e-01 -8.004241e-01 -7.905461e-01 -7.952958e-01 -8.077274e-01 -7.830435e-01 -8.063034e-01 -7.563198e-01 -7.974585e-01 -7.471899e-01 -8.116897e-01 -7.647634e-01 -8.328340e-01 -7.783689e-01 -8.319228e-01 -7.752695e-01 -8.291426e-01 -8.347599e-01 -8.418758e-01 1.649656e-02 2.595880e+00 1.595623e+00 -2.872674e-02 5.546576e-01 2.298207e-01 3.708528e-01 2.549953e-01 2.722317e-01 3.233254e-01 3.098086e-01 3.452801e-01 3.879916e-01 3.445562e-01 6.299324e-01 3.059967e-01 2.166352e+00 2.930850e+00 2.250947e-02 -8.076430e-01 -9.140772e-01 -8.049370e-01 -8.279640e-01 -7.791406e-01 -8.017832e-01 -7.722337e-01 -7.757469e-01 -7.608858e-01 -7.581305e-01 -7.713379e-01 -7.669902e-01 -8.004328e-01 -7.811808e-01 -8.245267e-01 -7.786494e-01 -8.242157e-01 -7.539389e-01 -8.162032e-01 -7.446401e-01 -8.273739e-01 -7.503359e-01 -8.307698e-01 -7.454657e-01 -8.146961e-01 -7.360510e-01 -7.949647e-01 -7.504456e-01 -8.003093e-01 -7.974776e-01 -8.022074e-01 -8.229573e-01 -7.591418e-01 -8.202761e-01 -7.026434e-01 -8.299023e-01 -6.759774e-01 -8.758758e-01 -6.853592e-01 -9.223446e-01 -6.774926e-01 -9.189772e-01 -6.444830e-01 -8.935496e-01 -6.167901e-01 -8.851347e-01 -5.288941e-01 -1.458398e+00 -1.930511e+00 9.971294e-01 4.511492e-01 -1.261356e-01 -6.040831e-02 -1.121014e-02 
2.867492e-03 -3.903168e-02 -9.768109e-02 4.716153e-01 4.040534e+00 3.696721e+00 1.028289e-01 1.671446e+00 1.001563e+00 1.321983e+00 9.630988e-01 7.462323e-01 1.381467e-02 7.958725e-03 4.063292e-01 1.267178e-01 2.273870e-01 8.109941e-02 2.717097e-01 2.801968e-01 2.807345e-02 2.509563e-01 7.776450e-01 1.034767e+00 1.159623e+00 1.189387e+00 1.281091e+00 1.252096e+00 1.350374e+00 1.269172e+00 1.366379e+00 1.249529e+00 1.361086e+00 1.256821e+00 1.388850e+00 1.295305e+00 1.402225e+00 1.304022e+00 1.369408e+00 1.285399e+00 1.322791e+00 1.287039e+00 1.318410e+00 1.331304e+00 1.318483e+00 1.320542e+00 1.228107e+00 1.218054e+00 1.084056e+00 1.096985e+00 9.472741e-01 9.709665e-01 7.528010e-01 6.955906e-01 2.457256e-01 -2.610676e-01 -1.787725e+00 -1.644490e+00 -1.118683e+00 -1.501380e+00 -1.389079e+00 -1.611969e+00 -1.601206e+00 -1.716656e+00 -1.459623e+00 -1.543295e+00 -1.435805e+00 -1.493805e+00 -1.362055e+00 -1.344820e+00 -1.023988e+00 -1.982584e+00 -1.743354e+00 -2.043667e-01 3.748997e-01 6.234476e-01 8.181323e-01 9.076870e-01 1.049036e+00 1.084054e+00 1.199289e+00 1.234267e+00 1.327206e+00 1.341133e+00 1.365494e+00 1.354128e+00 1.329348e+00 1.338190e+00 1.293954e+00 1.361712e+00 1.319445e+00 1.444904e+00 1.357328e+00 1.480762e+00 1.328476e+00 1.472692e+00 1.313365e+00 1.498080e+00 1.348281e+00 1.542034e+00 1.387724e+00 1.523067e+00 1.347610e+00 1.415221e+00 1.312162e+00 1.376127e+00 1.405092e+00 1.422554e+00 1.536388e+00 1.430779e+00 1.582721e+00 1.324625e+00 1.530055e+00 1.204364e+00 1.537916e+00 1.214162e+00 1.627070e+00 1.270493e+00 1.681549e+00 1.268057e+00 1.703571e+00 8.943656e-01 2.244724e+00 5.180931e+00 1.625857e+00 -2.445425e-01 -1.161974e-01 -5.160393e-03 
1.018028e-02 -1.311740e-02 -5.959732e-02 2.859849e-01 2.814409e+00 5.423828e+00 3.845082e+00 2.678043e+00 2.621972e+00 2.457551e+00 2.451393e+00 2.279037e+00 2.590228e+00 2.446196e+00 2.416612e+00 2.444690e+00 2.452724e+00 2.482292e+00 2.422641e+00 2.464163e+00 2.473565e+00 2.481977e+00 2.326533e+00 2.489297e+00 2.445398e+00 2.605130e+00 2.566935e+00 2.658860e+00 2.637721e+00 2.667412e+00 2.666347e+00 2.644301e+00 2.676845e+00 2.636663e+00 2.706645e+00 2.649354e+00 2.723029e+00 2.640882e+00 2.704372e+00 2.612852e+00 2.672361e+00 2.598241e+00 2.663565e+00 2.612665e+00 2.649817e+00 2.587573e+00 2.564070e+00 2.494186e+00 2.427888e+00 2.375928e+00 2.272097e+00 2.227434e+00 2.026220e+00 1.917575e+00 1.468996e+00 1.036438e+00 -1.227320e-01 1.897453e-01 4.503531e-01 5.957020e-01 8.644447e-01 6.412494e-01 8.663356e-01 5.981655e-01 9.152100e-01 6.496426e-01 9.703774e-01 5.530636e-01 9.693676e-01 6.830851e-01 7.901492e-01 8.570846e-01 2.551197e-01 1.139026e+00 1.531953e+00 1.885733e+00 2.022216e+00 2.191356e+00 2.300154e+00 2.380364e+00 2.478004e+00 2.525617e+00 2.614615e+00 2.626081e+00 2.673649e+00 2.652731e+00 2.671327e+00 2.653439e+00 2.663013e+00 2.677556e+00 2.691766e+00 2.740831e+00 2.724036e+00 2.770546e+00 2.705047e+00 2.770146e+00 2.691352e+00 2.794194e+00 2.709161e+00 2.833510e+00 2.727538e+00 2.832258e+00 2.688469e+00 2.772122e+00 2.650400e+00 2.761214e+00 2.699900e+00 2.810025e+00 2.776150e+00 2.830830e+00 2.795584e+00 2.768560e+00 2.750641e+00 2.690957e+00 2.753721e+00 2.697714e+00 2.820788e+00 2.736152e+00 2.871560e+00 2.760526e+00 2.875571e+00 3.279006e+00 5.584944e+00 4.659766e+00 8.573877e-01 -3.353415e-01 -1.051672e-01 -3.918130e-03 
7.034053e-03 7.785823e-03 -2.073504e-02 -8.920733e-02 1.497786e-01 1.965906e+00 2.311184e+00 9.141039e-01 1.139825e+00 9.618022e-01 1.129140e+00 1.283452e+00 1.945702e+00 1.617093e+00 1.347980e+00 1.348157e+00 1.353172e+00 1.348704e+00 1.353013e+00 1.351279e+00 1.710264e+00 1.775394e+00 1.136680e+00 1.060093e+00 1.010810e+00 1.107319e+00 1.059804e+00 1.123792e+00 1.078940e+00 1.123342e+00 1.089988e+00 1.116682e+00 1.097582e+00 1.108927e+00 1.103946e+00 1.101537e+00 1.107665e+00 1.092893e+00 1.107917e+00 1.082858e+00 1.105137e+00 1.072661e+00 1.099497e+00 1.062659e+00 1.088423e+00 1.049238e+00 1.068433e+00 1.029849e+00 1.039245e+00 1.004138e+00 9.989981e-01 9.683411e-01 9.225086e-01 8.533563e-01 8.849736e-01 2.461580e+00 6.752413e+00 5.243457e+00 3.033496e+00 3.463599e+00 3.156258e+00 3.411217e+00 3.150315e+00 3.372461e+00 3.086410e+00 3.338229e+00 3.005756e+00 3.481994e+00 2.985183e+00 3.423923e+00 2.717258e+00 4.956801e+00 6.610193e+00 2.291105e+00 8.369903e-01 8.859596e-01 9.442598e-01 1.017617e+00 1.023725e+00 1.051043e+00 1.061140e+00 1.070334e+00 1.085209e+00 1.081693e+00 1.099415e+00 1.087318e+00 1.107698e+00 1.090781e+00 1.113898e+00 1.094845e+00 1.120057e+00 1.100431e+00 1.124050e+00 1.104536e+00 1.123195e+00 1.107683e+00 1.120439e+00 1.112833e+00 1.117564e+00 1.120012e+00 1.113426e+00 1.126845e+00 1.105392e+00 1.132236e+00 1.096365e+00 1.140557e+00 1.090570e+00 1.151498e+00 1.086313e+00 1.160411e+00 1.081066e+00 1.163725e+00 1.075731e+00 1.164002e+00 1.077295e+00 1.167246e+00 1.089983e+00 1.177710e+00 1.116251e+00 1.211868e+00 1.144193e+00 1.662922e+00 2.474477e+00 8.011655e-01 -1.213775e-01 -1.166065e-01 -2.275715e-02 2.082644e-03 
1.777965e-03 8.066428e-03 1.055250e-02 -6.576501e-03 -3.993442e-02 5.053847e-02 1.580825e-01 5.478579e-02 5.398553e-02 6.255770e-02 1.300271e-01 5.654230e-01 1.853600e+00 1.554056e+00 8.936669e-01 8.928796e-01 8.930827e-01 8.928999e-01 8.930800e-01 8.946884e-01 1.716999e+00 1.820132e+00 2.300115e-01 -3.705360e-02 -1.370340e-03 3.931939e-02 5.045266e-02 5.970758e-02 5.995237e-02 6.339742e-02 6.224335e-02 6.314900e-02 6.237716e-02 6.180644e-02 6.186023e-02 6.019685e-02 6.098520e-02 5.839232e-02 5.967436e-02 5.619501e-02 5.764016e-02 5.327859e-02 5.454458e-02 4.952370e-02 5.056612e-02 4.564759e-02 4.697442e-02 4.335675e-02 4.593587e-02 4.550069e-02 5.307212e-02 6.333972e-02 8.227798e-02 9.668864e-02 2.723380e-01 1.486529e+00 4.578829e+00 3.442180e+00 1.770698e+00 2.071330e+00 1.837930e+00 2.060533e+00 1.786909e+00 2.099479e+00 1.653223e+00 1.942972e+00 1.656228e+00 1.753387e+00 1.652604e+00 1.765229e+00 1.304995e+00 3.074311e+00 3.968262e+00 7.118996e-01 -3.856663e-02 4.077672e-02 8.530964e-02 9.509476e-02 9.288516e-02 9.229282e-02 9.058592e-02 8.693006e-02 8.373603e-02 7.808421e-02 7.520572e-02 6.986978e-02 6.859095e-02 6.439158e-02 6.472584e-02 6.147341e-02 6.285683e-02 6.014631e-02 6.202244e-02 5.967185e-02 6.167719e-02 5.971562e-02 6.159343e-02 6.011802e-02 6.157764e-02 6.065609e-02 6.134630e-02 6.109009e-02 6.067725e-02 6.132119e-02 5.960754e-02 6.146393e-02 5.834256e-02 6.173910e-02 5.728113e-02 6.248768e-02 5.687962e-02 6.402952e-02 5.767498e-02 6.689834e-02 6.058652e-02 7.223767e-02 6.727746e-02 8.223600e-02 7.951175e-02 9.687706e-02 8.945785e-02 1.443589e-01 1.779744e-01 -2.123323e-03 -4.839719e-02 -1.922590e-02 -6.301303e-03 -1.911047e-03 
-7.373942e-04 1.250025e-03 3.493936e-03 3.625051e-03 -1.475026e-03 -7.233386e-03 2.524558e-04 2.238258e-03 8.108428e-03 1.760082e-02 4.819708e-02 2.671663e-01 9.120515e-01 7.665272e-01 4.466211e-01 4.462569e-01 4.462564e-01 4.462564e-01 4.462583e-01 4.471509e-01 8.649300e-01 9.103985e-01 5.696857e-02 -7.743416e-02 -4.778851e-02 -2.499646e-02 -1.445833e-02 -9.462422e-03 -6.494437e-03 -4.946053e-03 -4.095943e-03 -3.889637e-03 -3.819174e-03 -4.130001e-03 -4.351737e-03 -4.914271e-03 -5.312505e-03 -6.082872e-03 -6.694887e-03 -7.747619e-03 -8.698590e-03 -1.013567e-02 -1.146440e-02 -1.314145e-02 -1.446765e-02 -1.571896e-02 -1.619763e-02 -1.620909e-02 -1.534670e-02 -1.417188e-02 -1.207115e-02 -9.106711e-03 -6.439931e-03 -1.972486e-02 -5.524685e-02 8.848371e-02 7.807472e-01 2.592378e-01 -5.447785e-01 -5.434611e-02 -4.432901e-01 -1.601154e-01 -2.291796e-01 -3.370343e-01 -1.303428e-01 -4.600031e-01 -1.833666e-02 -2.992592e-01 9.276326e-02 2.497817e-01 3.350737e-01 1.440226e+00 1.062208e+00 8.579582e-02 -8.953844e-02 -3.827410e-02 -8.230099e-03 7.547535e-03 1.864918e-02 2.608673e-02 2.896179e-02 2.778748e-02 2.395747e-02 1.863081e-02 1.319174e-02 8.084427e-03 4.000769e-03 7.205184e-04 -1.493937e-03 -3.129210e-03 -4.019730e-03 -4.664418e-03 -4.840243e-03 -4.993025e-03 -4.827349e-03 -4.762188e-03 -4.465119e-03 -4.362992e-03 -4.114097e-03 -4.148481e-03 -4.117789e-03 -4.412106e-03 -4.681087e-03 -5.220048e-03 -5.712922e-03 -6.323073e-03 -6.837796e-03 -7.253445e-03 -7.546487e-03 -7.511936e-03 -7.400887e-03 -6.746199e-03 -6.133423e-03 -4.755234e-03 -3.577912e-03 -1.384093e-03 4.035813e-04 3.400180e-03 5.423236e-03 7.993674e-03 7.300638e-03 7.401966e-03 4.702180e-03 -4.413872e-03 -4.027551e-03 -2.133078e-03 -2.334319e-03 -1.849946e-03 
-2.520465e-04 -1.206600e-04 2.352448e-06 1.040722e-04 1.707783e-04 2.024935e-04 2.017715e-04 1.788088e-04 1.452046e-04 1.065136e-04 5.352840e-05 -2.920890e-05 -8.754439e-04 -1.239306e-03 -1.269601e-06 -4.119440e-10 5.700342e-10 1.272006e-09 -5.196413e-09 -2.079151e-06 -1.204216e-03 -5.182327e-03 6.249215e-04 9.893122e-04 5.995986e-04 3.629943e-04 1.926959e-04 6.801649e-05 -4.566730e-05 -1.482723e-04 -2.592502e-04 -3.931868e-04 -5.631689e-04 -7.919934e-04 -1.082011e-03 -1.458882e-03 -1.915288e-03 -2.486775e-03 -3.170536e-03 -4.020011e-03 -5.033916e-03 -6.251467e-03 -7.620672e-03 -9.095276e-03 -1.052535e-02 -1.179273e-02 -1.276991e-02 -1.352636e-02 -1.426852e-02 -1.551774e-02 -1.764918e-02 -2.084622e-02 -2.468195e-02 -3.046609e-02 -4.392583e-02 -6.020614e-02 -4.481850e-02 -5.198245e-02 -1.303942e-01 -1.183671e-01 -9.003930e-02 -4.787999e-02 5.785517e-03 2.214360e-02 6.548641e-02 7.960814e-02 1.166908e-01 1.081762e-01 8.924350e-02 1.250270e-02 -8.436381e-02 -8.758268e-02 -1.169310e-01 -1.249543e-01 -8.841169e-02 -5.009246e-02 -1.876806e-02 6.276533e-03 2.414781e-02 3.437341e-02 3.763353e-02 3.584857e-02 3.090618e-02 2.463684e-02 1.824863e-02 1.257558e-02 7.941500e-03 4.454204e-03 1.984783e-03 3.768363e-04 -5.832620e-04 -1.057834e-03 -1.199078e-03 -1.110174e-03 -8.759917e-04 -5.631530e-04 -2.282780e-04 6.677758e-05 2.730369e-04 3.360731e-04 2.296899e-04 -6.569233e-05 -5.324531e-04 -1.139808e-03 -1.828977e-03 -2.535059e-03 -3.185316e-03 -3.715939e-03 -4.072393e-03 -4.224619e-03 -4.158552e-03 -3.893128e-03 -3.459253e-03 -2.916043e-03 -2.319793e-03 -1.737265e-03 -1.215407e-03 -7.969648e-04 -4.960513e-04 -3.205275e-04 -2.504778e-04 -2.643084e-04 -3.265484e-04 -4.006608e-04 -4.660591e-04 -4.842442e-04 -4.525261e-04 -3.684543e-04 
3.275089e-04 -1.419414e-03 -3.433957e-03 -3.375497e-03 1.840083e-03 7.632567e-03 1.358120e-04 -1.889394e-03 -7.837141e-03 -1.737297e-02 -4.802343e-02 -2.669697e-01 -9.120144e-01 -7.683667e-01 -4.466233e-01 -4.462569e-01 -4.462564e-01 -4.462564e-01 -4.462583e-01 -4.471552e-01 -8.670303e-01 -9.208626e-01 -5.605437e-02 7.930118e-02 4.891759e-02 2.569256e-02 1.484375e-02 9.641249e-03 6.480126e-03 4.761792e-03 3.727931e-03 3.288267e-03 2.929293e-03 2.821752e-03 2.530137e-03 2.384182e-03 1.955623e-03 1.646532e-03 1.015261e-03 4.762545e-04 -4.116212e-04 -1.233743e-03 -2.374278e-03 -3.394525e-03 -4.580369e-03 -5.516961e-03 -6.488279e-03 -7.321757e-03 -8.515192e-03 -1.030116e-02 -1.323615e-02 -1.733177e-02 -2.214394e-02 -2.642949e-02 -2.920150e-02 -2.919825e-02 -2.325112e-02 -1.045954e-02 -9.326335e-05 1.079656e-02 2.216658e-02 2.917310e-02 3.304081e-02 2.822832e-02 1.871253e-02 3.075952e-03 -1.819580e-02 -4.516606e-02 -7.788328e-02 -1.134300e-01 -1.414325e-01 -1.465056e-01 -1.309715e-01 -1.015602e-01 -6.560630e-02 -3.087133e-02 -1.172430e-03 2.103017e-02 3.483034e-02 4.110187e-02 4.134566e-02 3.778186e-02 3.205346e-02 2.579645e-02 1.977900e-02 1.471091e-02 1.061448e-02 7.645987e-03 5.506053e-03 4.188805e-03 3.355260e-03 3.028620e-03 2.915639e-03 3.111102e-03 3.350314e-03 3.780629e-03 4.120619e-03 4.543690e-03 4.740228e-03 4.918156e-03 4.778839e-03 4.580230e-03 4.080544e-03 3.564430e-03 2.874576e-03 2.249131e-03 1.632311e-03 1.116480e-03 7.793890e-04 4.720939e-04 4.568486e-04 2.578612e-04 3.779245e-04 -5.163306e-05 -2.092764e-04 -1.372694e-03 -2.264404e-03 -4.507232e-03 -6.018748e-03 -8.260557e-03 -7.467931e-03 -7.573146e-03 -5.038837e-03 3.905933e-03 3.355235e-03 1.366171e-03 1.586624e-03 1.232824e-03 
-1.985900e-03 -8.086549e-03 -1.038770e-02 6.885228e-03 4.022655e-02 -5.030904e-02 -1.579281e-01 -5.440094e-02 -5.414069e-02 -6.244167e-02 -1.302325e-01 -5.654088e-01 -1.855298e+00 -1.557172e+00 -8.936223e-01 -8.928288e-01 -8.930306e-01 -8.928549e-01 -8.930273e-01 -8.946469e-01 -1.717619e+00 -1.827526e+00 -2.293691e-01 3.808821e-02 2.025431e-03 -3.919056e-02 -5.019831e-02 -5.988278e-02 -5.981467e-02 -6.377186e-02 -6.221856e-02 -6.379913e-02 -6.264135e-02 -6.299957e-02 -6.283933e-02 -6.243554e-02 -6.332548e-02 -6.237261e-02 -6.416220e-02 -6.282320e-02 -6.533290e-02 -6.377877e-02 -6.677719e-02 -6.504344e-02 -6.810220e-02 -6.607364e-02 -6.876999e-02 -6.655718e-02 -6.897691e-02 -6.739964e-02 -7.038854e-02 -7.057760e-02 -7.431531e-02 -7.537203e-02 -7.699554e-02 -7.517761e-02 -7.077805e-02 -6.485703e-02 -5.885821e-02 -5.357250e-02 -4.947351e-02 -5.015875e-02 -5.306668e-02 -6.242120e-02 -7.416800e-02 -9.059232e-02 -1.074217e-01 -1.257100e-01 -1.396185e-01 -1.502777e-01 -1.513469e-01 -1.435507e-01 -1.275251e-01 -1.071775e-01 -8.383876e-02 -6.377448e-02 -4.783321e-02 -3.741577e-02 -3.274826e-02 -3.155815e-02 -3.451390e-02 -3.771689e-02 -4.323106e-02 -4.675870e-02 -5.180036e-02 -5.391161e-02 -5.760611e-02 -5.818709e-02 -6.075337e-02 -6.028548e-02 -6.214911e-02 -6.109896e-02 -6.251643e-02 -6.119310e-02 -6.223246e-02 -6.086905e-02 -6.153120e-02 -6.043750e-02 -6.075024e-02 -6.031287e-02 -6.023450e-02 -6.077807e-02 -6.011235e-02 -6.183122e-02 -6.024883e-02 -6.320691e-02 -6.034948e-02 -6.455370e-02 -6.020912e-02 -6.571002e-02 -5.994852e-02 -6.685855e-02 -6.011078e-02 -6.868883e-02 -6.191814e-02 -7.276293e-02 -6.752101e-02 -8.173753e-02 -7.907671e-02 -9.586680e-02 -8.885218e-02 -1.430623e-01 -1.777519e-01 2.196078e-03 4.839594e-02 1.896851e-02 5.917022e-03 1.561282e-03 
-7.147561e-03 -7.765442e-03 2.087093e-02 8.928664e-02 -1.502815e-01 -1.965941e+00 -2.314173e+00 -9.145368e-01 -1.145610e+00 -9.641289e-01 -1.134959e+00 -1.285469e+00 -1.945870e+00 -1.617196e+00 -1.346919e+00 -1.347008e+00 -1.351996e+00 -1.347712e+00 -1.351851e+00 -1.350395e+00 -1.705790e+00 -1.780900e+00 -1.138958e+00 -1.065985e+00 -1.012478e+00 -1.113084e+00 -1.058624e+00 -1.127764e+00 -1.075878e+00 -1.128077e+00 -1.088524e+00 -1.124884e+00 -1.098654e+00 -1.118163e+00 -1.103969e+00 -1.108089e+00 -1.106947e+00 -1.100837e+00 -1.113590e+00 -1.100473e+00 -1.123933e+00 -1.103837e+00 -1.132502e+00 -1.105267e+00 -1.135543e+00 -1.105163e+00 -1.137522e+00 -1.109512e+00 -1.142836e+00 -1.118846e+00 -1.148728e+00 -1.127828e+00 -1.148448e+00 -1.128945e+00 -1.134624e+00 -1.114878e+00 -1.101768e+00 -1.089909e+00 -1.091546e+00 -1.087606e+00 -1.081558e+00 -1.089700e+00 -1.082965e+00 -1.094471e+00 -1.093176e+00 -1.105142e+00 -1.104303e+00 -1.119515e+00 -1.114378e+00 -1.126061e+00 -1.124996e+00 -1.123080e+00 -1.125657e+00 -1.143034e+00 -1.140436e+00 -1.145762e+00 -1.144529e+00 -1.142177e+00 -1.144924e+00 -1.138090e+00 -1.145679e+00 -1.135386e+00 -1.145856e+00 -1.131567e+00 -1.142844e+00 -1.124742e+00 -1.136529e+00 -1.117592e+00 -1.132096e+00 -1.116027e+00 -1.132697e+00 -1.119449e+00 -1.134045e+00 -1.122498e+00 -1.130854e+00 -1.122059e+00 -1.123135e+00 -1.122208e+00 -1.116974e+00 -1.127979e+00 -1.113579e+00 -1.136707e+00 -1.108629e+00 -1.143761e+00 -1.099487e+00 -1.147942e+00 -1.088954e+00 -1.152874e+00 -1.081843e+00 -1.159080e+00 -1.077391e+00 -1.162766e+00 -1.074276e+00 -1.162513e+00 -1.074629e+00 -1.161700e+00 -1.084991e+00 -1.169943e+00 -1.112184e+00 -1.204685e+00 -1.142844e+00 -1.655069e+00 -2.476352e+00 -8.024949e-01 1.218789e-01 1.167807e-01 2.259753e-02 -2.302009e-03 
-1.048310e-02 1.292512e-02 5.948664e-02 -2.860466e-01 -2.814729e+00 -5.425757e+00 -3.854303e+00 -2.681166e+00 -2.628779e+00 -2.453362e+00 -2.451528e+00 -2.276894e+00 -2.604297e+00 -2.457202e+00 -2.423277e+00 -2.447477e+00 -2.457713e+00 -2.486762e+00 -2.426796e+00 -2.470711e+00 -2.470998e+00 -2.491234e+00 -2.345191e+00 -2.527198e+00 -2.466305e+00 -2.614101e+00 -2.537977e+00 -2.621722e+00 -2.589717e+00 -2.649844e+00 -2.678084e+00 -2.706001e+00 -2.756090e+00 -2.713772e+00 -2.741716e+00 -2.638334e+00 -2.679521e+00 -2.595382e+00 -2.698770e+00 -2.663101e+00 -2.796870e+00 -2.762130e+00 -2.850960e+00 -2.766770e+00 -2.790825e+00 -2.700911e+00 -2.734593e+00 -2.715220e+00 -2.794617e+00 -2.837945e+00 -2.922151e+00 -2.970207e+00 -3.003433e+00 -3.019793e+00 -3.002987e+00 -3.020085e+00 -2.991310e+00 -3.037246e+00 -3.027065e+00 -3.091429e+00 -3.072352e+00 -3.140807e+00 -3.116505e+00 -3.166446e+00 -3.147938e+00 -3.173772e+00 -3.146824e+00 -3.135151e+00 -3.092349e+00 -3.057207e+00 -3.044743e+00 -3.004543e+00 -3.033165e+00 -3.015604e+00 -3.059041e+00 -3.006825e+00 -3.032326e+00 -2.941058e+00 -2.964045e+00 -2.881707e+00 -2.932671e+00 -2.871939e+00 -2.925944e+00 -2.861116e+00 -2.881534e+00 -2.797130e+00 -2.781203e+00 -2.720255e+00 -2.723855e+00 -2.742288e+00 -2.771016e+00 -2.837967e+00 -2.829932e+00 -2.886808e+00 -2.795655e+00 -2.826429e+00 -2.683165e+00 -2.752678e+00 -2.637181e+00 -2.779918e+00 -2.689889e+00 -2.851797e+00 -2.742879e+00 -2.867846e+00 -2.725748e+00 -2.807967e+00 -2.685378e+00 -2.769266e+00 -2.713360e+00 -2.784576e+00 -2.770056e+00 -2.784703e+00 -2.792640e+00 -2.739566e+00 -2.777270e+00 -2.686327e+00 -2.786310e+00 -2.692710e+00 -2.839339e+00 -2.736680e+00 -2.877574e+00 -3.284071e+00 -5.605547e+00 -4.663898e+00 -8.570056e-01 3.355545e-01 1.045979e-01 3.413510e-03 
-3.293332e-03 3.863551e-02 9.728776e-02 -4.714986e-01 -4.039120e+00 -3.699395e+00 -1.088111e-01 -1.674590e+00 -9.969320e-01 -1.308584e+00 -9.471578e-01 -7.353680e-01 -1.806973e-02 -1.718208e-02 -4.198435e-01 -1.321386e-01 -2.292569e-01 -8.509501e-02 -2.674639e-01 -2.883053e-01 -2.303498e-02 -2.590352e-01 -8.015520e-01 -1.077254e+00 -1.186919e+00 -1.187589e+00 -1.238141e+00 -1.182820e+00 -1.282426e+00 -1.228397e+00 -1.387646e+00 -1.323637e+00 -1.481330e+00 -1.352443e+00 -1.443009e+00 -1.260681e+00 -1.336402e+00 -1.213251e+00 -1.348119e+00 -1.321540e+00 -1.473958e+00 -1.469615e+00 -1.536270e+00 -1.475214e+00 -1.434069e+00 -1.373225e+00 -1.339492e+00 -1.383247e+00 -1.416914e+00 -1.548631e+00 -1.598617e+00 -1.730820e+00 -1.726418e+00 -1.805994e+00 -1.762317e+00 -1.842044e+00 -1.828201e+00 -1.934501e+00 -1.911654e+00 -2.023900e+00 -2.008817e+00 -2.099300e+00 -2.082985e+00 -2.141590e+00 -2.125388e+00 -2.147425e+00 -2.118747e+00 -2.069827e+00 -2.020364e+00 -1.934922e+00 -1.908210e+00 -1.837918e+00 -1.860028e+00 -1.765612e+00 -1.821289e+00 -1.709246e+00 -1.744996e+00 -1.602598e+00 -1.635354e+00 -1.525691e+00 -1.595281e+00 -1.530088e+00 -1.597604e+00 -1.534972e+00 -1.546191e+00 -1.460898e+00 -1.411673e+00 -1.363988e+00 -1.336054e+00 -1.404971e+00 -1.408703e+00 -1.547040e+00 -1.496722e+00 -1.616368e+00 -1.450216e+00 -1.523487e+00 -1.292678e+00 -1.407736e+00 -1.235190e+00 -1.435322e+00 -1.325507e+00 -1.525163e+00 -1.421239e+00 -1.532199e+00 -1.419190e+00 -1.427849e+00 -1.385016e+00 -1.354210e+00 -1.449218e+00 -1.361478e+00 -1.552036e+00 -1.351895e+00 -1.599011e+00 -1.283318e+00 -1.580666e+00 -1.209256e+00 -1.584660e+00 -1.220855e+00 -1.640093e+00 -1.247192e+00 -1.707832e+00 -9.195783e-01 -2.272267e+00 -5.182932e+00 -1.625099e+00 2.446547e-01 1.153277e-01 4.535367e-03 
5.913588e-03 2.146100e-02 3.526381e-02 -2.426558e-01 -1.545606e+00 6.767476e-01 2.798656e+00 5.719822e-01 1.105283e+00 6.991763e-01 9.409335e-01 4.568414e-01 -9.080801e-02 6.094102e-01 1.398181e+00 1.324073e+00 1.163906e+00 1.329282e+00 1.185184e+00 1.452912e+00 4.599282e-01 2.190540e-01 5.562369e-01 8.782546e-01 7.817268e-01 8.858055e-01 7.764508e-01 8.897146e-01 7.760768e-01 8.721129e-01 7.524964e-01 8.330249e-01 7.312302e-01 8.143715e-01 7.540138e-01 8.364916e-01 7.995099e-01 8.446400e-01 8.043650e-01 8.017967e-01 7.700328e-01 7.479334e-01 7.568721e-01 7.455173e-01 7.992339e-01 7.829865e-01 8.383903e-01 7.852523e-01 8.176785e-01 7.360823e-01 7.580365e-01 6.792682e-01 7.089109e-01 6.511380e-01 6.761616e-01 6.188271e-01 6.085536e-01 5.499964e-01 5.624687e-01 5.146364e-01 5.139907e-01 4.882405e-01 4.843764e-01 4.720345e-01 4.719871e-01 4.728225e-01 4.767150e-01 5.103074e-01 5.206443e-01 5.678406e-01 5.824443e-01 6.132991e-01 6.170768e-01 6.869554e-01 6.730633e-01 7.313748e-01 7.193030e-01 7.737591e-01 7.609607e-01 7.939335e-01 7.696583e-01 7.811325e-01 7.605459e-01 7.673692e-01 7.698807e-01 7.819790e-01 8.093966e-01 8.069409e-01 8.312922e-01 7.878931e-01 8.047557e-01 7.371774e-01 7.740456e-01 7.135733e-01 7.891432e-01 7.472747e-01 8.410915e-01 7.906136e-01 8.570798e-01 7.867993e-01 8.201462e-01 7.632797e-01 7.785188e-01 7.692459e-01 7.677008e-01 8.140696e-01 7.662443e-01 8.486905e-01 7.309925e-01 8.549779e-01 6.837303e-01 8.648819e-01 6.582234e-01 8.914386e-01 6.590839e-01 9.152000e-01 6.556918e-01 9.042368e-01 6.288242e-01 8.857735e-01 5.270694e-01 1.440391e+00 1.922046e+00 -9.937055e-01 -4.494762e-01 1.264399e-01 6.034449e-02 1.119933e-02 
7.378965e-03 9.977498e-03 1.208885e-02 -2.656836e-02 -1.099742e-01 7.136261e-01 1.195202e+00 5.031804e-01 5.967702e-01 4.891101e-01 5.572298e-01 3.032347e-01 -5.881079e-01 -2.285587e+00 -3.086283e+00 -2.792921e+00 -2.836831e+00 -2.912204e+00 -2.743765e+00 -3.031335e+00 -2.430587e+00 -3.815579e-01 3.437714e-01 5.345550e-01 4.866672e-01 5.240437e-01 4.857569e-01 5.257644e-01 4.933783e-01 5.256687e-01 4.992565e-01 5.232557e-01 5.040557e-01 5.195829e-01 5.080924e-01 5.154937e-01 5.115750e-01 5.115971e-01 5.145530e-01 5.082331e-01 5.170758e-01 5.058467e-01 5.195515e-01 5.051830e-01 5.225959e-01 5.070670e-01 5.269356e-01 5.119579e-01 5.322153e-01 5.180202e-01 5.350110e-01 5.202381e-01 5.295390e-01 5.127532e-01 5.107730e-01 4.925472e-01 4.837965e-01 4.742579e-01 4.736283e-01 4.693753e-01 4.662491e-01 4.676710e-01 4.620515e-01 4.636065e-01 4.590541e-01 4.607463e-01 4.548208e-01 4.604561e-01 4.546035e-01 4.599054e-01 4.620619e-01 4.650138e-01 4.720428e-01 4.955405e-01 5.054690e-01 5.196653e-01 5.249459e-01 5.323486e-01 5.362222e-01 5.379142e-01 5.402686e-01 5.374505e-01 5.392764e-01 5.336010e-01 5.360147e-01 5.286866e-01 5.324484e-01 5.241106e-01 5.295033e-01 5.204949e-01 5.273805e-01 5.180543e-01 5.259607e-01 5.169158e-01 5.250580e-01 5.171536e-01 5.243144e-01 5.186256e-01 5.231510e-01 5.210262e-01 5.209551e-01 5.240380e-01 5.174045e-01 5.275378e-01 5.126393e-01 5.314417e-01 5.069943e-01 5.354319e-01 5.009408e-01 5.391416e-01 4.951852e-01 5.420452e-01 4.902631e-01 5.433378e-01 4.865360e-01 5.422728e-01 4.835311e-01 5.382302e-01 4.769119e-01 5.308433e-01 4.381297e-01 7.292681e-01 1.098657e+00 2.713714e-01 4.223183e-02 2.990589e-02 1.484682e-02 8.513102e-03 
