# vtk DataFile Version 2.0
Comment goes here
ASCII

DATASET STRUCTURED_POINTS
FIELD FieldData 1
TIME 1 1 double
0.11000000
DIMENSIONS    128   16   1

ORIGIN    0.000   0.000   0.000
SPACING   0.0078125 0.015625   1.000

POINT_DATA   2048
SCALARS Omega double
LOOKUP_TABLE default

-2.125801e-04 -1.026499e-04 -5.297569e-05 -1.206682e-04 -4.269028e-04 -9.208333e-04 9.198767e-04 -6.435732e-04 -2.120824e-03 -2.634776e-03 9.384842e-05 1.625757e-04 1.039122e-03 -6.435489e-03 -9.138761e-03 -7.217547e-03 -2.145270e-03 -9.438919e-04 -3.194791e-03 -8.881566e-03 -5.568723e-03 -8.885598e-03 -6.612173e-03 -1.755818e-04 -2.558704e-03 7.348000e-03 7.354963e-03 -5.522206e-03 -4.048389e-03 -3.949227e-03 -6.865904e-03 1.348156e-03 1.481872e-03 -6.832053e-03 1.099358e-02 6.334129e-03 -5.777263e-03 2.240540e-03 -1.947540e-02 -2.014728e-02 -4.662997e-03 -1.267822e-02 9.949826e-03 6.800912e-03 -3.151537e-03 2.647308e-03 -1.042932e-02 9.576967e-03 2.892624e-02 1.004915e-01 2.485517e-01 5.658901e-01 1.136216e+00 1.992067e+00 3.045537e+00 3.779782e+00 3.519436e+00 1.401897e+00 -9.678490e-01 -1.651179e+00 -7.242980e-01 4.424857e-01 1.652408e+00 2.019763e+00 8.966150e-01 -2.197577e-01 -7.051912e-01 9.312247e-01 3.583538e+00 4.377009e+00 2.750096e+00 -4.776185e-01 -2.886893e+00 -3.230042e+00 -2.552514e+00 -1.695222e+00 -1.038130e+00 -5.904600e-01 -2.870555e-01 -1.324818e-01 -2.938284e-02 -2.362703e-02 -7.691063e-03 -1.890081e-03 -6.428989e-03 1.998710e-02 1.524208e-02 2.456361e-02 3.287374e-02 1.612810e-02 1.122666e-02 1.320531e-02 7.922072e-03 7.674498e-03 -1.136591e-02 -1.481991e-02 -1.399229e-03 -1.299624e-03 -1.282688e-02 -2.030406e-02 -1.366776e-02 2.130547e-03 1.631190e-02 1.938003e-02 1.867905e-02 9.483803e-03 6.046797e-03 1.612776e-02 3.470021e-02 3.326874e-02 1.727589e-02 1.089578e-02 1.350752e-02 1.687668e-02 8.357448e-03 2.012595e-04 1.185069e-03 7.803128e-04 8.664969e-04 5.058096e-03 1.223551e-02 2.591359e-02 2.741075e-02 1.811883e-02 7.722259e-03 1.978858e-03 2.391232e-05 -2.864901e-04 
-1.534861e-02 -1.627600e-02 -1.231333e-02 -2.207879e-02 -2.232555e-01 -5.165644e-01 5.635313e-01 2.603128e-01 2.979236e-03 1.765505e-02 4.196905e-02 4.011783e-01 -1.357984e-01 -1.185041e+00 -2.055832e+00 -2.254700e+00 -2.583553e+00 -1.885134e+00 -1.742838e+00 -2.446161e+00 -1.612413e+00 -5.910001e-01 -4.897364e-01 8.204455e-01 8.924496e-01 3.693490e-03 5.963344e-02 -3.240091e-01 -5.433786e-01 2.762752e-02 -1.208668e-01 -4.305691e-04 1.106247e+00 2.368631e-02 -5.247424e-01 4.519268e-01 -2.477267e-01 9.195259e-01 1.529061e+00 -3.708222e-01 3.208852e-01 -2.396320e-01 -3.355009e-01 8.689093e-01 -2.825326e-01 5.587910e-01 7.893544e-01 4.791547e-01 3.953543e-01 -2.094537e-02 2.702669e-02 -5.017794e-01 1.255553e+00 7.504907e-01 1.218581e+00 1.855832e+00 -7.505716e+00 -2.101766e+01 -2.454029e+01 -1.129423e+01 1.145804e+01 2.257058e+01 1.287391e+01 -6.425936e+00 -1.491962e+01 -1.107716e+01 -1.331530e+01 -6.226584e+00 2.229341e+01 3.354468e+01 8.966580e+00 -5.957249e+00 -1.556580e-01 -8.736372e-01 -1.518660e+00 7.016788e-01 1.709308e-01 -1.826554e-01 -1.827076e+00 3.779847e-01 1.595844e+00 2.215041e-01 4.682100e-01 -1.290251e+00 1.608295e-01 7.367671e-01 -8.927927e-01 -1.173022e-01 2.584247e-01 7.363950e-01 1.116330e+00 -7.447232e-03 2.064064e-01 6.205463e-01 -2.537705e-01 -1.501978e-01 2.087214e-01 6.665706e-01 5.126560e-01 -7.252796e-01 -6.288813e-01 8.362236e-01 1.264576e+00 7.264268e-01 2.360111e-01 -4.204363e-01 -1.160647e+00 -8.672234e-01 3.834076e-01 3.787951e-01 -3.671924e-01 -6.244369e-02 7.982364e-01 3.460412e-01 -7.049677e-01 -3.774677e-01 -7.478908e-02 1.309071e-01 5.146743e-01 2.130675e-01 -5.594379e-01 4.942484e-01 8.178625e-01 -1.049705e-01 3.335900e-03 -1.554286e-02 -2.996067e-02 -2.133557e-02 
-5.732789e-02 -4.697535e-02 2.295983e-02 1.194028e-01 -1.121777e+00 -2.463114e+00 1.520223e+00 5.651568e-01 2.545083e-01 -4.132441e-02 -5.503086e-02 8.339674e-01 -1.399041e+00 5.769613e-01 1.081182e+00 -1.094732e+00 -1.652030e+00 8.486794e-01 5.526798e-01 -4.273764e-01 -6.657530e-01 -2.686053e+00 -2.361332e+00 2.327371e+00 3.377706e+00 9.657740e-01 2.541424e-01 -1.383055e+00 -2.108692e+00 6.652649e-01 -1.223287e-02 -2.604998e-01 3.228354e+00 -7.141218e-01 -2.243855e+00 1.179529e+00 -1.476159e+00 1.859024e+00 4.142602e+00 -5.681835e-01 1.779565e+00 -6.756286e-01 -1.264413e+00 2.046232e+00 -1.632479e+00 2.091501e+00 2.860389e+00 6.947741e-01 5.391149e-01 3.642773e-02 -4.748846e-01 -3.138862e+00 1.935882e+00 -1.136337e+00 -8.221175e-02 4.942165e+00 -1.436684e+00 -3.366330e+00 3.183807e-01 1.731819e+00 -3.908782e+00 -7.507186e+00 -2.389586e+00 -4.665187e-01 -6.254271e+00 -3.718699e+00 2.522769e+00 2.721977e+00 -1.502521e+00 -1.158668e-01 -6.984168e-01 -5.625522e+00 1.587277e-01 -2.846400e+00 -3.377833e+00 2.634358e+00 1.865956e+00 7.061519e-01 -4.659067e+00 3.113538e+00 4.554418e+00 -6.621973e-01 2.936059e-01 -3.746833e+00 1.899473e+00 2.310617e+00 -2.914105e+00 -1.141558e+00 -5.833636e-01 1.040759e+00 3.702938e+00 1.224799e-01 3.117825e-01 2.964296e+00 -2.394646e-01 2.383585e-01 1.630423e-01 4.381158e-01 4.651054e-01 -3.014320e+00 -7.193053e-01 3.427831e+00 3.714801e+00 1.931441e+00 -7.110982e-02 -1.271820e+00 -2.574254e+00 -2.214606e+00 8.525562e-01 7.323029e-01 -1.619381e+00 -2.992878e-01 2.948442e+00 6.871049e-01 -2.728245e+00 -8.545257e-01 6.751056e-02 -3.430245e-02 5.549967e-01 5.244749e-01 -2.527326e+00 5.083517e-03 1.545007e+00 -2.168016e-01 8.770853e-01 2.050878e-01 -7.237472e-02 -8.057956e-02 
-1.067302e-01 -8.218383e-02 1.043419e-01 5.252184e-01 -1.834465e+00 -4.460213e+00 -5.208833e-01 -8.115260e-01 1.850746e-02 -8.097644e-01 -7.749634e-01 3.884318e-01 -1.367112e+00 -1.053978e+00 1.171584e+00 4.232146e-01 -1.027353e-02 1.535950e+00 1.763257e+00 -2.085612e-01 -1.461662e+00 -1.654450e+00 -2.368974e+00 3.753950e-01 2.523872e+00 2.274950e+00 -1.527545e-01 -2.087154e+00 -2.513108e+00 1.171171e+00 2.283856e-01 -1.166411e+00 7.738741e-01 -2.759645e+00 -2.884157e+00 -4.217675e-01 -3.032287e+00 -1.919748e+00 -1.401550e-01 4.760467e-01 2.335600e+00 -8.112438e-01 -1.472758e+00 -1.045691e+00 -3.253163e+00 1.421144e+00 1.725002e+00 -1.949310e+00 -1.690748e+00 5.391809e-01 -3.884491e-01 -1.941023e+00 2.624916e+00 -2.832099e-01 7.916176e-02 3.917954e+00 7.450624e+00 7.585282e+00 6.632194e+00 5.808360e+00 1.025175e+00 2.550271e-01 -9.334497e+00 -8.608911e+00 4.083745e+00 1.059671e+01 1.059909e+01 8.042324e+00 -1.150702e+00 -5.427553e+00 1.204818e+00 -2.329427e+00 -8.013775e-01 2.289440e-01 -2.557262e+00 -1.414685e+00 4.475839e-01 1.721656e-01 -1.676733e+00 4.890353e+00 8.225173e-01 -4.201923e+00 -3.145078e+00 -1.561959e+00 3.799106e+00 9.675310e-01 -2.067227e+00 -2.625358e+00 -3.738315e+00 -2.911609e+00 1.935940e+00 1.384380e-01 -9.500758e-01 3.728807e+00 6.991700e-01 1.302583e+00 -1.392071e+00 -4.068081e+00 -3.007928e+00 -3.975559e+00 2.108539e+00 3.292033e+00 1.052883e+00 -1.721696e-01 -2.390513e+00 -1.108052e+00 6.575725e-01 -3.538219e-01 -5.934566e-01 -1.051116e+00 -2.559620e+00 -1.083900e+00 2.117626e+00 -8.663456e-01 -2.951400e+00 -1.041097e-01 3.379666e-01 -1.376432e+00 -2.504684e+00 -1.352570e-01 -3.142985e+00 -3.198816e+00 -1.314769e+00 3.836053e-01 2.833475e+00 7.140727e-01 -7.588909e-02 -1.439596e-01 
-9.231553e-02 -7.847358e-02 8.714530e-02 6.002195e-01 -3.771532e-01 -1.844681e+00 -2.768368e+00 -1.783007e+00 -4.172614e-01 -8.887819e-01 -6.572402e-01 -6.225605e-01 -1.096739e+00 -1.567127e+00 -1.022327e+00 -1.008469e+00 -7.861323e-01 -8.473329e-01 -4.648040e-01 -1.357395e-01 -1.298446e+00 -9.614165e-01 3.754907e-01 -2.693774e+00 -1.664741e+00 1.399785e+00 -5.106269e-01 -5.690681e-01 -9.733992e-02 3.755182e-01 2.728714e-01 -9.318904e-01 -3.510622e+00 -2.207168e+00 -2.196050e-01 -2.118816e+00 -1.476498e+00 -4.839904e+00 -6.062851e+00 1.106505e+00 8.772134e-02 -2.915135e-02 2.050459e-01 -3.872375e+00 -1.436984e+00 -1.267520e+00 -2.099898e+00 -3.391280e+00 -2.938998e+00 3.471112e-01 1.143577e-02 1.838398e+00 2.393131e-01 1.083158e+00 9.490766e-03 -1.293564e+00 2.924850e+00 -1.240007e+00 -5.825455e+00 -1.000965e+00 7.292441e+00 1.245423e+01 1.047288e+01 -1.664120e-01 -4.435894e+00 -1.042993e+01 -1.062187e+01 -3.315338e+00 4.592567e+00 1.454264e+01 6.739814e+00 2.684104e+00 1.920108e+00 1.951173e+00 6.494247e-01 -5.888484e+00 -2.442674e+00 -9.343235e-01 4.344422e+00 1.516749e+00 -5.101704e+00 -3.913321e+00 -4.085015e+00 3.185570e+00 1.685229e+00 -2.058752e+00 1.612437e+00 -1.474877e+00 -3.535721e+00 -4.793339e+00 -2.813583e+00 1.138489e-01 -1.470007e+00 2.724296e-01 1.144463e+00 1.223684e+00 -1.791011e+00 -5.360995e+00 -4.233715e+00 -6.000832e-01 3.392564e+00 -8.421953e-01 -3.754109e+00 -2.778247e+00 -2.699596e+00 4.178205e-01 4.245879e+00 2.641550e+00 -1.810510e+00 -2.246804e+00 -8.419164e-01 -1.053357e+00 -1.784979e+00 -2.092600e+00 3.439656e-01 1.153276e+00 4.641369e-01 -1.366984e+00 -3.535082e+00 -7.009647e-01 7.588327e-02 -3.237088e+00 -3.337405e+00 9.400755e-01 2.162776e+00 3.608268e-01 -1.447709e-01 -1.334352e-01 
-4.145173e-02 -6.156078e-02 -6.326020e-02 1.127974e-01 5.810729e-01 8.308556e-01 -1.317753e+00 -7.341019e-01 -2.122951e-01 -1.720147e-01 1.939762e-02 -4.005585e-01 -8.721439e-01 -1.111215e+00 -8.548345e-01 -8.515093e-01 -7.609809e-01 -6.784035e-01 -6.669967e-01 -6.564939e-01 -1.455022e+00 -4.433014e-01 1.135029e+00 -1.670713e+00 -1.839463e+00 4.207268e-02 -1.926545e-01 4.909693e-01 9.113972e-01 -1.491073e-01 1.603245e-01 -3.897622e-02 -2.263794e+00 -1.670449e-01 1.011255e+00 -9.921147e-01 3.618101e-01 -2.055084e+00 -3.398406e+00 5.305834e-01 -7.673712e-01 3.943699e-01 7.526017e-01 -1.756907e+00 4.960684e-01 -1.186983e+00 -1.776759e+00 -1.203253e+00 -1.048291e+00 -2.045896e-02 3.723807e-02 1.450477e+00 -1.522865e+00 -1.708723e-01 -7.591908e-01 -2.196671e+00 -1.165243e+01 -6.185246e+00 2.849600e+00 -8.676457e+00 -4.024009e+00 -2.793251e+00 1.077524e+00 4.929903e+00 -3.817340e+00 -1.684212e+01 -1.162663e+01 -4.123770e+00 -1.247078e+01 -8.069743e+00 -3.086168e+00 -5.134212e+00 -6.586797e+00 1.934732e-01 1.791153e+00 -2.746314e+00 -1.735522e+00 -8.134777e-01 2.976864e+00 -9.760001e-01 -3.357070e+00 -7.659802e-01 -1.255679e+00 2.343379e+00 -4.360471e-01 -1.573355e+00 1.724849e+00 1.446790e-01 -6.681803e-01 -1.663981e+00 -2.300847e+00 6.337764e-02 -4.753905e-01 -1.205641e+00 4.550380e-01 3.022049e-01 -4.866113e-01 -1.585872e+00 -1.307611e+00 1.154042e+00 1.234223e+00 -1.648011e+00 -2.498241e+00 -1.481820e+00 -6.384876e-01 7.098494e-01 2.269336e+00 1.716812e+00 -8.066270e-01 -8.972800e-01 4.894282e-01 -2.043630e-01 -1.820906e+00 -9.205685e-01 1.325950e+00 7.981020e-01 2.626146e-01 -1.803735e-01 -1.049132e+00 -3.339268e-01 1.135023e+00 -8.633062e-01 -1.689017e+00 3.213726e-01 2.533331e-01 -7.902086e-02 -1.028025e-01 -5.607504e-02 
-1.016467e-02 -1.853084e-02 -3.480851e-02 -3.423693e-02 3.589909e-02 1.466553e-01 -3.597835e-02 -4.706291e-02 3.375063e-03 2.731755e-02 1.805725e-01 2.616518e-01 -1.365776e+00 -1.370842e+00 -5.520144e-01 -5.503029e-01 -5.461042e-01 -5.424410e-01 -5.424820e-01 -5.436302e-01 -1.331110e+00 -1.103390e+00 1.249532e-01 -6.092727e-02 -8.265858e-02 7.890612e-03 4.571500e-03 4.876160e-02 5.314689e-02 3.668449e-03 3.302415e-02 1.944924e-02 -7.744510e-02 3.968609e-02 5.860566e-02 -1.819077e-02 5.824816e-02 -8.900240e-02 -1.361514e-01 2.707588e-02 -4.548826e-02 6.457806e-02 6.853948e-02 -2.959905e-02 7.666483e-02 -4.411969e-02 -6.533242e-02 -7.125583e-02 -7.880539e-02 -9.388727e-02 -1.518907e-01 -1.973525e-01 -3.909209e-01 8.195480e-02 1.314564e+00 2.942806e+00 -7.211199e+00 -1.658771e+01 -6.699965e+00 -4.376208e+00 -5.216371e+00 3.936857e-01 -2.042398e+00 -4.039496e+00 -1.036112e+00 -1.338313e+00 -3.252855e+00 -3.630196e-01 2.148230e+00 1.309510e+00 -4.375802e+00 -1.244875e+01 -5.658831e+00 2.721265e+00 1.480691e-01 -8.236689e-01 -5.368452e-01 -2.049310e-01 9.975416e-02 -2.913599e-03 -1.441604e-01 1.169786e-03 -7.300066e-02 5.810190e-02 -3.612912e-02 -9.382697e-02 9.060013e-02 1.000516e-02 -4.108863e-02 -5.217543e-02 -7.691392e-02 1.731219e-02 -1.292400e-02 -6.445668e-02 4.110429e-02 4.105618e-02 -1.496949e-02 -6.595975e-02 -5.184634e-02 6.052809e-02 5.921081e-02 -5.503856e-02 -8.487971e-02 -3.409379e-02 -1.262365e-02 4.718369e-02 1.166111e-01 8.786825e-02 -4.839859e-02 -5.443979e-02 1.131835e-02 -3.126356e-02 -1.146819e-01 -6.604768e-02 7.151406e-02 7.382443e-02 6.107624e-02 4.709451e-02 1.431456e-02 2.095860e-02 8.291378e-02 -2.932954e-02 -5.401747e-02 1.407292e-02 -4.145670e-02 -5.368306e-02 -3.153298e-02 -1.390977e-02 
-1.563911e-03 -3.487990e-03 -7.923670e-03 -1.329861e-02 -1.342414e-02 -4.413267e-03 -8.599200e-03 -1.434925e-02 -1.342431e-02 3.883146e-03 8.437048e-02 1.547977e-01 -6.836412e-01 -6.435678e-01 -2.750122e-01 -2.743295e-01 -2.743273e-01 -2.743252e-01 -2.743252e-01 -2.747519e-01 -6.007599e-01 -5.434875e-01 2.284951e-02 -2.178598e-02 -3.434018e-02 -2.133379e-02 -1.302748e-02 -9.885329e-03 -9.994604e-03 -9.165460e-03 -8.209260e-03 -8.262852e-03 -7.456499e-03 -6.011046e-03 -7.573119e-03 -5.969891e-03 -6.479136e-03 -1.002884e-02 -1.115335e-02 -1.237434e-02 -1.099824e-02 -5.337506e-03 -3.710075e-03 -2.679199e-03 -5.855789e-03 -1.169179e-02 -1.810244e-02 -3.168066e-02 -5.197633e-02 -9.244677e-02 -1.545127e-01 -2.412637e-01 -3.005748e-01 -1.446977e-01 6.310666e-01 2.089211e+00 5.491504e+00 2.305460e-01 5.261264e+00 1.301622e+01 -8.072404e+00 -1.413854e+01 1.915364e+00 7.456223e+00 5.497324e+00 3.512867e+00 4.168008e+00 4.807868e+00 -2.814168e-01 -4.949635e+00 -6.726069e+00 -6.528170e-01 7.875465e+00 5.854940e+00 1.959378e+00 1.053002e+00 7.412266e-01 4.747141e-01 2.709791e-01 1.434583e-01 6.707350e-02 2.557407e-02 1.162873e-03 -1.221973e-02 -1.485178e-02 -1.583363e-02 -1.186349e-02 -1.165485e-02 -1.346420e-02 -1.204476e-02 -1.046767e-02 -9.598155e-03 -1.012936e-02 -1.195580e-02 -1.047991e-02 -9.110608e-03 -1.037724e-02 -1.173715e-02 -1.246782e-02 -1.247056e-02 -1.159401e-02 -7.633749e-03 -5.340634e-03 -4.462774e-03 -8.092880e-03 -9.991409e-03 -1.105754e-02 -1.199911e-02 -1.460693e-02 -1.573158e-02 -1.669694e-02 -1.901023e-02 -1.971537e-02 -1.700361e-02 -1.157009e-02 -6.899341e-03 -3.733203e-03 -3.709504e-04 7.987213e-04 -4.304143e-03 -1.028172e-02 -1.411004e-02 -1.103594e-02 -1.461077e-02 -1.633462e-02 -1.089668e-02 -4.964928e-03 -1.881302e-03 
3.539385e-05 1.331337e-05 3.780566e-06 -7.710899e-07 9.726986e-06 1.546190e-05 4.066504e-05 5.121851e-05 2.224455e-05 -3.638233e-05 -1.778299e-04 -9.069011e-04 -2.655149e-02 -5.426041e-02 -1.114473e-04 -1.498633e-07 2.540870e-07 3.598684e-08 -9.026815e-09 -1.233981e-04 -8.333284e-02 -3.820864e-02 -2.440629e-03 -1.803265e-03 -4.675940e-04 4.398029e-05 -6.152409e-05 -2.883956e-04 -3.540419e-04 -2.516521e-04 -1.325792e-04 -8.463974e-05 -1.870941e-05 1.062306e-04 2.361649e-04 2.855054e-04 8.993902e-05 -3.451857e-04 -7.990079e-04 -9.268923e-04 -7.842807e-04 -4.160001e-04 -3.865022e-04 -1.235092e-03 -2.586099e-03 -5.407525e-03 -9.628494e-03 -1.670160e-02 -2.929614e-02 -5.053099e-02 -8.771924e-02 -1.456801e-01 -2.254383e-01 -2.999627e-01 -2.729687e-01 4.676955e-02 7.418166e-01 1.219438e+00 5.160225e-01 3.631676e-01 3.105715e-01 -7.198439e-02 2.322134e-01 1.133374e+00 1.941441e+00 2.511402e+00 2.849525e+00 3.313811e+00 3.278623e+00 2.800556e+00 2.429799e+00 2.242486e+00 2.693527e+00 2.347285e+00 1.605771e+00 1.067193e+00 6.500054e-01 3.612610e-01 1.880770e-01 9.502571e-02 4.706362e-02 2.310588e-02 1.073439e-02 4.257501e-03 1.223680e-03 6.268831e-05 -2.669726e-04 -5.883985e-04 -1.078607e-03 -1.152826e-03 -7.855216e-04 -3.509674e-04 -1.090342e-04 -1.187663e-04 1.175851e-04 3.872902e-04 4.634027e-04 2.833924e-04 2.049414e-05 -1.707849e-04 -8.973504e-05 3.246324e-04 5.957138e-04 4.549518e-04 -1.341966e-04 -7.189148e-04 -1.173095e-03 -1.506566e-03 -1.651451e-03 -1.693359e-03 -1.624338e-03 -1.694707e-03 -1.458431e-03 -8.276316e-04 -1.796678e-04 3.471146e-04 6.889369e-04 1.060220e-03 1.087684e-03 4.177703e-04 -5.160557e-04 -1.060023e-03 -7.219709e-04 -2.188572e-04 9.403078e-05 1.530881e-04 1.201750e-04 6.988856e-05 
1.653012e-03 3.539273e-03 7.959563e-03 1.333618e-02 1.353520e-02 4.643928e-03 8.724473e-03 1.474558e-02 1.372389e-02 -3.551895e-03 -8.418187e-02 -1.542922e-01 6.542362e-01 6.102158e-01 2.749631e-01 2.743304e-01 2.743290e-01 2.743282e-01 2.743284e-01 2.746014e-01 4.815137e-01 5.033122e-01 -1.739711e-02 2.038386e-02 3.616403e-02 2.344913e-02 1.320536e-02 8.817136e-03 7.494713e-03 7.135744e-03 7.600966e-03 7.870454e-03 8.124627e-03 8.223918e-03 8.535859e-03 8.322181e-03 8.046703e-03 7.394458e-03 7.206447e-03 7.109326e-03 7.311967e-03 7.540830e-03 7.782818e-03 7.435191e-03 6.961366e-03 5.893209e-03 4.292117e-03 1.694293e-03 -2.664804e-03 -1.004504e-02 -2.250375e-02 -4.245067e-02 -7.319676e-02 -1.148492e-01 -1.529198e-01 -1.447588e-01 -3.505321e-02 1.315325e-01 1.501897e-01 7.709023e-02 6.777263e-02 1.555497e-01 2.742143e-01 4.059782e-01 5.925148e-01 7.644157e-01 9.295720e-01 1.066453e+00 1.091107e+00 1.072677e+00 1.065228e+00 1.076722e+00 1.051091e+00 8.667238e-01 6.190434e-01 3.947671e-01 2.279987e-01 1.240124e-01 6.717370e-02 3.881853e-02 2.479373e-02 1.748121e-02 1.270637e-02 9.477047e-03 6.261365e-03 4.167662e-03 2.605120e-03 2.028668e-03 2.021412e-03 2.425594e-03 3.609001e-03 5.651112e-03 7.925930e-03 9.856362e-03 1.162507e-02 1.276010e-02 1.345945e-02 1.309896e-02 1.240808e-02 1.171187e-02 1.150926e-02 1.093607e-02 1.043314e-02 8.839085e-03 7.181022e-03 4.749107e-03 2.674605e-03 7.730233e-04 5.615702e-04 1.530796e-03 3.854571e-03 5.903901e-03 7.670617e-03 9.315117e-03 1.088562e-02 1.155249e-02 1.098714e-02 9.827306e-03 8.373875e-03 8.001336e-03 6.275520e-03 4.459270e-03 3.184801e-03 1.061506e-02 1.520310e-02 1.087004e-02 5.157509e-03 2.036941e-03 
1.044712e-02 1.862169e-02 3.486579e-02 3.453889e-02 -3.479241e-02 -1.448407e-01 3.599294e-02 5.746857e-02 2.476218e-03 7.754371e-04 -1.411758e-01 -2.381844e-01 1.268265e+00 1.140889e+00 5.510738e-01 5.505451e-01 5.503482e-01 5.493522e-01 5.483326e-01 5.471453e-01 9.957784e-01 9.855968e-01 -7.541153e-02 1.264047e-02 8.445691e-02 9.285089e-02 4.620691e-02 -2.987117e-02 -7.252536e-02 -6.651743e-02 -1.800645e-02 5.023802e-02 8.895790e-02 7.840318e-02 6.906814e-02 8.143336e-03 -4.284755e-02 -5.899354e-02 -6.935632e-02 -5.444495e-02 -2.075777e-02 -1.086335e-02 3.336384e-02 4.608948e-02 1.888194e-02 -1.408472e-02 -5.574393e-02 -5.704566e-02 -3.655723e-02 -5.081550e-03 1.508096e-02 3.825743e-02 4.465649e-02 5.095108e-02 7.182260e-02 6.698835e-02 5.722417e-02 3.126966e-02 9.303232e-03 1.932495e-02 3.321984e-02 3.727900e-02 5.273168e-02 4.593027e-02 5.452866e-02 6.772983e-02 9.506806e-02 1.655273e-01 2.264494e-01 2.269572e-01 1.381914e-01 3.944663e-02 -2.001577e-02 -3.949984e-02 -5.439089e-02 -7.315697e-02 -8.440347e-02 -6.859452e-02 -1.776304e-02 6.194121e-04 -2.576266e-03 -3.669835e-02 -3.492969e-02 -2.078101e-02 -4.123531e-02 -5.519266e-02 -5.917361e-02 -3.130374e-02 -2.225124e-02 -4.815746e-02 -6.250495e-02 -3.765595e-02 -1.646735e-02 -2.743603e-02 -4.813724e-02 -4.357836e-02 -7.333902e-03 3.103850e-03 5.177366e-03 1.200071e-02 2.847000e-02 1.608781e-02 -7.335732e-03 -4.093716e-02 -6.371293e-02 -8.508087e-02 -7.046634e-02 -3.680853e-02 5.909290e-03 5.411495e-03 -2.125519e-02 -3.434633e-02 -5.109601e-02 -4.581861e-02 -3.479903e-02 -6.460727e-03 1.542968e-02 3.574814e-02 5.212280e-04 -1.115915e-02 -4.475434e-02 -9.684612e-04 -7.817166e-03 -4.162364e-02 3.380766e-02 5.290603e-02 3.222083e-02 1.450622e-02 
4.269671e-02 6.229534e-02 6.402351e-02 -1.108150e-01 -5.773546e-01 -8.283695e-01 1.342366e+00 9.337012e-01 3.139498e-01 7.328058e-01 9.082092e-01 1.065756e+00 1.219319e+00 8.999086e-01 8.553266e-01 8.643920e-01 8.525250e-01 8.303949e-01 8.097932e-01 7.691467e-01 8.905229e-01 5.426686e-01 1.748838e-01 8.067239e-01 1.492640e+00 2.054621e+00 1.388998e+00 -8.498531e-02 -9.651514e-01 -8.617488e-01 1.070272e-01 1.621684e+00 2.478074e+00 2.238001e+00 1.959814e+00 7.012529e-01 -4.433621e-01 -6.929474e-01 -8.744274e-01 -5.668094e-01 1.264439e-01 3.615335e-01 1.358753e+00 1.763432e+00 1.155027e+00 3.973305e-01 -6.377019e-01 -7.825772e-01 -2.524034e-01 4.940529e-01 1.063035e+00 1.468685e+00 1.492986e+00 1.440179e+00 1.772047e+00 1.548624e+00 1.253814e+00 9.981267e-01 1.051619e+00 1.648294e+00 1.595150e+00 9.369199e-01 5.906929e-01 2.441271e-01 2.443006e-01 3.975703e-02 -1.333414e-01 2.202013e-01 8.065323e-01 1.159778e+00 4.240945e-01 -4.288336e-01 -7.592298e-01 -3.126410e-01 1.215527e-02 3.195831e-02 -1.171786e-01 1.527586e-01 9.488400e-01 1.145202e+00 8.616576e-01 -8.445491e-02 -8.624170e-02 2.206520e-01 -2.936579e-03 -1.907292e-01 -1.945300e-01 4.332953e-01 6.577012e-01 5.000107e-02 -4.419858e-01 -1.828662e-01 1.439843e-01 -2.018939e-01 -8.745628e-01 -8.373279e-01 -6.919885e-02 2.361760e-01 2.352080e-01 3.311144e-01 6.324874e-01 5.050614e-01 3.786242e-02 -4.652252e-01 -8.442485e-01 -1.102815e+00 -6.253646e-01 3.837431e-01 1.345373e+00 1.264475e+00 3.663814e-01 -1.779956e-01 -6.438840e-01 -5.637761e-01 -3.233786e-01 2.125161e-01 7.353498e-01 1.162766e+00 6.288441e-01 2.997835e-01 -9.165145e-02 8.283005e-01 1.102355e+00 -3.922244e-01 -2.658268e-01 7.653602e-02 1.047050e-01 5.802487e-02 
9.324828e-02 7.903724e-02 -8.641498e-02 -5.986660e-01 3.503484e-01 1.784030e+00 2.316900e+00 1.605109e+00 1.385733e+00 2.090479e+00 1.886771e+00 2.169291e+00 4.136535e-01 6.821466e-01 1.248327e+00 1.324698e+00 9.911595e-01 1.120308e+00 1.000846e+00 9.523268e-01 9.103444e-01 8.286799e-01 8.107482e-01 4.698730e-01 1.664373e+00 2.770329e+00 2.120278e+00 7.877794e-01 6.132416e-01 4.183972e-01 1.415636e+00 3.751388e+00 4.342144e+00 2.670895e+00 2.166630e+00 9.016233e-01 -5.073890e-01 -5.610743e-01 -2.356023e-01 2.317050e-01 1.124388e+00 2.171065e+00 4.428365e+00 5.228928e+00 4.151741e+00 2.146538e+00 -1.175287e+00 -2.664544e+00 -1.907519e+00 -2.591636e-01 1.108695e+00 2.426982e+00 2.830044e+00 3.277266e+00 4.361712e+00 3.985949e+00 3.841028e+00 4.052469e+00 3.466809e+00 3.807601e+00 3.316822e+00 1.273773e+00 3.874541e-01 9.870878e-01 2.146969e+00 1.393797e+00 -2.670279e-01 -8.163187e-01 3.998009e-01 3.051277e+00 3.776727e+00 2.058380e+00 4.327788e-01 6.461325e-01 -4.482492e-03 -9.796029e-01 -2.154148e-01 8.159609e-01 1.758515e+00 2.106211e+00 2.292725e+00 9.906630e-01 3.184883e-01 3.837443e-01 -3.930727e-01 4.254422e-01 1.279470e+00 2.171736e+00 2.971184e+00 1.617055e+00 -1.368373e-02 -7.330206e-01 3.752191e-01 1.126749e-01 -1.308902e+00 -6.277226e-01 1.589452e+00 2.013811e+00 4.075501e-01 -3.334615e-02 6.365512e-01 1.638766e+00 1.842402e+00 1.322322e+00 -6.982869e-02 -1.909777e+00 -1.409404e+00 9.126076e-01 2.079385e+00 1.806170e+00 1.223348e-01 -3.685111e-01 -1.190333e-01 2.252679e+00 3.479026e+00 2.090466e+00 6.920700e-01 2.246728e-01 4.198898e-01 6.204771e-01 1.012459e+00 1.380639e+00 3.378711e+00 7.758450e-01 -1.879998e+00 -3.368714e-01 1.520199e-01 1.355335e-01 
1.054810e-01 8.175321e-02 -1.043134e-01 -5.265562e-01 1.790000e+00 4.379245e+00 -2.433275e-01 7.751810e-04 1.238217e+00 1.202283e+00 2.049533e-01 2.511338e-01 -5.202843e-01 -6.368691e-01 -2.454150e-01 -1.506354e-01 -5.301073e-01 -2.846980e-01 -1.065717e-01 4.375240e-01 1.250710e+00 1.037761e+00 7.590207e-01 -1.525469e+00 -1.497792e+00 -1.338715e+00 -5.888112e-01 1.281841e+00 3.399900e+00 2.812313e+00 1.778016e+00 1.333801e+00 -5.950162e-02 -2.052427e+00 -2.075687e+00 -6.509333e-01 2.289178e-01 7.997220e-01 1.782511e+00 1.692051e+00 1.225873e+00 2.239487e+00 3.074702e+00 3.204153e+00 3.148221e+00 2.054118e+00 -3.530396e-01 -2.290190e+00 -2.571816e+00 -2.036951e+00 -1.475228e+00 -4.828788e-01 1.091082e-01 9.807621e-01 1.803566e+00 1.797527e+00 2.315613e+00 3.197134e+00 1.986124e+00 8.392819e-01 2.499074e-01 -1.096597e+00 -1.516661e+00 3.072386e-01 2.067135e+00 1.434257e+00 -6.278439e-01 -2.334323e+00 -1.963676e+00 1.153400e+00 4.082670e+00 3.495813e+00 1.778247e+00 9.725716e-01 -8.240747e-01 -2.279730e+00 -5.601400e-01 4.077073e-01 -2.065794e-01 -1.393903e-01 9.856389e-01 1.557570e+00 5.226863e-01 -2.098820e-01 -8.587791e-01 9.276169e-01 2.278008e+00 1.965920e+00 2.603388e+00 2.121781e+00 9.448616e-01 -8.378300e-01 4.461374e-02 5.529069e-01 1.671086e-01 1.143907e+00 2.569247e+00 2.404047e+00 -1.236442e-01 -1.065746e+00 -8.088371e-01 1.104826e+00 2.667595e+00 3.178465e+00 2.000681e+00 -2.063906e-01 -7.396735e-01 1.363131e-01 -6.689662e-01 -8.606304e-01 -1.024405e+00 -2.381445e-01 1.415095e+00 4.935621e+00 6.190922e+00 2.562259e+00 -1.071104e+00 -2.976701e+00 -1.254795e+00 -5.477454e-02 1.638512e+00 -1.908001e-01 2.386828e+00 2.125780e+00 -2.497508e+00 -7.080217e-01 7.389783e-02 1.411701e-01 
5.587326e-02 4.636945e-02 -2.317885e-02 -1.206625e-01 1.103912e+00 2.435790e+00 -1.839223e+00 -1.123787e+00 9.460792e-02 -5.018602e-01 -1.313887e+00 -1.393091e+00 1.147499e+00 7.464986e-02 -1.719802e-01 8.761240e-02 3.092312e-01 -6.304256e-01 -8.371402e-02 2.546382e-01 1.400869e+00 2.190506e+00 6.621110e-02 -1.722535e+00 -2.479738e+00 -3.129229e+00 -2.016668e+00 5.161398e-01 2.417317e+00 2.043303e+00 4.468057e-01 -1.624347e+00 -3.205387e+00 -3.658595e+00 -3.316108e+00 -1.200265e+00 5.462408e-01 1.060414e+00 1.640276e+00 1.222946e+00 1.773053e-01 2.749384e-01 -6.542070e-01 -1.110946e+00 -3.724308e-01 1.563690e-01 5.168878e-01 -5.564292e-02 -8.608397e-01 -1.618013e+00 -2.157961e+00 -2.303579e+00 -2.110083e+00 -1.683246e+00 -1.713821e+00 -1.377583e+00 -8.113164e-01 -2.893120e-01 -1.007811e+00 -2.309103e+00 -2.474604e+00 -2.081629e+00 -1.775256e+00 -7.323742e-01 -1.255065e-01 -7.471939e-02 -5.592868e-01 -1.548633e+00 -2.092067e+00 -1.441161e+00 3.960122e-01 1.055080e+00 7.938658e-01 5.066794e-02 -8.907959e-01 -1.328983e+00 -3.853785e-01 -2.608040e-01 -1.426685e+00 -1.591356e+00 -7.753920e-01 6.391030e-01 2.318403e-01 -4.702065e-01 -4.786559e-01 4.069793e-01 9.277444e-01 3.895965e-02 2.757183e-02 6.192880e-01 8.128406e-01 -1.943702e-01 -2.637650e-01 3.520899e-01 1.073127e+00 1.393262e+00 9.713155e-01 5.214720e-01 -4.316077e-01 -8.803443e-01 -1.121105e+00 -2.005581e-01 9.682232e-01 1.767982e+00 1.760426e+00 1.213005e+00 3.617038e-01 -6.016373e-01 -2.145821e+00 -2.094577e+00 -1.003329e+00 5.835257e-02 1.278989e+00 2.530454e+00 2.670888e+00 6.078092e-01 -1.448936e+00 -2.728064e+00 -1.403952e+00 -5.674286e-01 5.572345e-01 -1.347450e+00 -5.151391e-01 1.181244e+00 -7.555213e-01 -2.080783e-01 6.715146e-02 7.748758e-02 
1.473155e-02 1.589144e-02 1.199184e-02 2.114168e-02 2.204354e-01 5.133074e-01 -5.856749e-01 -3.711765e-01 -3.772603e-02 -2.846750e-01 -4.961009e-01 -7.030782e-01 2.840755e-01 1.598469e+00 2.114605e+00 1.806901e+00 2.157963e+00 1.803221e+00 1.812410e+00 2.369571e+00 1.835976e+00 4.484368e-01 -1.959539e-01 -4.295030e-01 -6.956056e-01 -9.703862e-01 -6.394789e-01 9.472079e-02 5.493793e-01 4.783407e-01 -7.760615e-03 -7.500149e-01 -1.172009e+00 -1.078367e+00 -9.473123e-01 -3.185644e-01 2.337280e-01 3.586345e-01 4.512218e-01 2.994718e-01 -4.775309e-02 -1.422104e-01 -6.076827e-01 -7.903660e-01 -4.954948e-01 -1.544730e-01 2.880615e-01 3.105510e-01 3.842781e-02 -3.066551e-01 -5.478278e-01 -6.559896e-01 -4.895426e-01 -1.237743e-01 2.030387e-01 7.210086e-01 8.135231e-01 6.766549e-03 -1.030996e+00 -1.666067e+00 -1.429778e+00 -6.308892e-01 1.889754e-01 6.777738e-01 2.408963e-01 -3.053296e-01 -5.141467e-01 -6.731543e-02 6.692983e-01 8.991342e-01 6.917698e-01 -3.206502e-01 -1.177946e+00 -1.384825e+00 -1.159984e+00 -7.453861e-01 -3.183716e-01 -2.200776e-01 -4.896673e-01 -5.143563e-01 -3.364489e-01 1.267695e-01 9.355120e-02 -9.210868e-02 -5.289340e-03 9.899482e-02 1.223507e-01 -1.748933e-01 -2.544121e-01 3.983541e-02 2.610617e-01 9.044435e-02 -5.593750e-02 1.173835e-01 4.417889e-01 4.274241e-01 6.976242e-02 -7.780903e-02 -1.084887e-01 -1.536989e-01 -2.744943e-01 -1.533849e-01 1.030233e-01 3.592297e-01 5.064556e-01 5.745917e-01 2.985823e-01 -1.875615e-01 -6.753870e-01 -6.243357e-01 -1.928822e-01 1.056622e-01 3.561959e-01 3.795253e-01 2.695123e-01 -4.943325e-02 -3.634588e-01 -6.098528e-01 -3.164900e-01 -1.646876e-01 4.225910e-02 -4.828363e-01 -4.631931e-01 2.142790e-01 3.033012e-02 2.513876e-02 3.101504e-02 2.065250e-02 
