# vtk DataFile Version 2.0
Comment goes here
ASCII

DATASET STRUCTURED_POINTS
FIELD FieldData 1
TIME 1 1 double
0.07600000
DIMENSIONS    64   64   1

ORIGIN    0.000   0.000   0.000
SPACING   0.03125 0.03125   1.000

POINT_DATA   4096
SCALARS Omega double
LOOKUP_TABLE default

-3.165700e-01 -1.469181e+00 4.464192e-01 -1.950741e+00 4.356933e-01 -8.305354e-01 3.757150e-01 -1.730948e+00 1.590525e-01 -1.869586e+00 1.491427e-01 -1.918894e+00 3.233235e-01 -1.671551e+00 6.885972e-01 -9.582762e-01 8.506906e-01 3.057442e-01 2.110696e+00 2.353674e-01 1.860850e+00 7.239840e-01 1.660896e+00 1.046028e+00 1.393161e+00 9.533691e-01 1.320575e+00 1.030699e+00 1.207013e+00 1.163750e+00 1.004584e+00 1.172886e+00 8.138870e-01 1.173927e+00 7.188936e-01 1.313811e+00 7.350027e-01 1.603425e+00 7.605394e-01 1.847141e+00 7.992835e-01 1.721640e+00 8.688008e-01 1.831142e+00 7.687642e-01 1.986806e+00 5.438985e-01 1.724510e+00 1.199535e-01 1.141025e+00 -3.868026e-01 4.875576e-01 -8.911064e-01 2.298971e-01 -1.173843e+00 6.953219e-02 -1.262837e+00 -1.653997e-02 -1.221073e+00 -4.168855e-02 -1.131752e+00 -5.271254e-02 -1.084923e+00 3.313053e-01 
-2.422474e+01 -3.528838e+01 -2.063108e+01 -3.539197e+01 -2.158895e+01 -3.617861e+01 -2.383004e+01 -3.415403e+01 -2.970856e+01 -3.239636e+01 -3.451622e+01 -3.000288e+01 -3.907522e+01 -2.732630e+01 -4.451829e+01 -2.371322e+01 -5.145635e+01 -1.895933e+01 -6.039107e+01 -1.198905e+01 -6.797961e+01 -5.729278e+00 -7.452817e+01 -2.926226e-01 -7.983230e+01 4.625276e+00 -8.466575e+01 9.075462e+00 -8.915220e+01 1.298064e+01 -9.284855e+01 1.617836e+01 -9.564530e+01 1.847820e+01 -9.779427e+01 1.990057e+01 -9.937542e+01 2.018796e+01 -9.978101e+01 1.924816e+01 -9.882290e+01 1.749581e+01 -9.692991e+01 1.510596e+01 -9.458316e+01 1.270068e+01 -9.159851e+01 1.027260e+01 -8.715271e+01 7.076246e+00 -8.081880e+01 1.922976e+00 -7.218183e+01 -5.374903e+00 -6.236740e+01 -1.361047e+01 -5.215512e+01 -2.230396e+01 -4.173834e+01 -3.090702e+01 -3.146430e+01 -3.909658e+01 -1.907126e+01 -4.794016e+01 
-6.700468e+01 -1.368389e+00 -5.238060e+01 9.557120e+00 -9.970687e+00 1.153832e+01 -6.594954e+01 3.873116e+00 -8.309930e+01 3.709313e+00 -9.460907e+01 4.482902e+00 -1.040185e+02 4.484878e+00 -1.119556e+02 7.014872e-01 -1.160802e+02 -7.183177e+00 -1.230947e+02 -1.438754e+01 -1.222232e+02 -1.839975e+01 -1.221152e+02 -2.099618e+01 -1.226273e+02 -2.258078e+01 -1.227386e+02 -2.418326e+01 -1.224377e+02 -2.595712e+01 -1.220794e+02 -2.739672e+01 -1.217782e+02 -2.850736e+01 -1.215416e+02 -2.962882e+01 -1.215342e+02 -3.063985e+01 -1.222236e+02 -3.105311e+01 -1.235113e+02 -3.079097e+01 -1.245545e+02 -3.051831e+01 -1.246709e+02 -3.042894e+01 -1.239319e+02 -2.924001e+01 -1.219500e+02 -2.716534e+01 -1.186388e+02 -2.236113e+01 -1.154966e+02 -1.606455e+01 -1.130464e+02 -9.826230e+00 -1.108052e+02 -4.317035e+00 -1.081355e+02 7.040358e-01 -1.036978e+02 5.713307e+00 -1.027570e+02 1.690027e+01 
-3.304510e+01 4.357901e-01 -2.903937e+01 1.071120e+01 -4.206148e+01 7.848066e+00 -2.386706e+01 1.579897e+01 -3.639484e+01 1.369524e+01 -4.349556e+01 1.227311e+01 -4.866188e+01 1.188120e+01 -5.268429e+01 9.802763e+00 -5.477503e+01 1.631362e-01 -5.514219e+01 -6.774577e+00 -5.417165e+01 -9.589501e+00 -5.314848e+01 -1.197989e+01 -5.253186e+01 -1.439782e+01 -5.179663e+01 -1.654384e+01 -5.053423e+01 -1.820702e+01 -4.930974e+01 -1.968763e+01 -4.846031e+01 -2.069476e+01 -4.765941e+01 -2.129566e+01 -4.676988e+01 -2.111098e+01 -4.664367e+01 -2.020902e+01 -4.725439e+01 -1.935350e+01 -4.791872e+01 -1.837371e+01 -4.821359e+01 -1.784050e+01 -4.808476e+01 -1.813770e+01 -4.790756e+01 -1.809242e+01 -4.766643e+01 -1.384809e+01 -4.768487e+01 -8.170146e+00 -4.823110e+01 -3.234137e+00 -4.922801e+01 7.473741e-01 -4.991240e+01 4.010789e+00 -4.982516e+01 8.713708e+00 -5.284089e+01 1.184104e+01 
-4.384745e+00 2.447709e+00 -4.244264e+00 -1.039913e+01 -6.602207e+01 -4.168639e+00 1.142877e+01 1.231261e+00 2.413089e+00 8.834710e-02 -1.964230e-01 -7.487441e-01 -4.407749e-01 8.806934e-01 -4.128693e-01 6.307793e+00 -6.499749e+00 -2.364588e+00 -1.522213e+00 -2.229785e+00 -1.730752e+00 5.381170e-01 -2.406699e+00 4.601368e-01 -2.639219e+00 1.884857e-01 -2.550988e+00 -4.536036e-02 -2.431236e+00 -2.218027e-01 -2.372907e+00 -5.486856e-01 -2.172282e+00 -8.384204e-01 -1.932410e+00 -1.027380e+00 -1.644462e+00 -9.969766e-01 -1.361022e+00 -7.509641e-01 -1.170444e+00 -5.734930e-01 -1.125553e+00 -3.164561e-01 -1.402696e+00 -1.246652e-01 -1.562597e+00 -1.716832e+00 -7.723117e-01 -3.097870e+00 -4.122376e-01 -1.922088e+00 4.426243e-01 2.212790e-01 -1.424461e-01 5.207342e-01 -7.590893e-01 5.548452e-01 -1.050103e+00 9.343339e-01 -1.392080e+00 1.716208e+00 -2.703247e+00 3.937013e+00 
-3.355400e+00 2.956200e+00 -3.822520e+00 -1.014580e+01 -8.652793e+01 -5.626824e+00 9.024771e+00 -2.237330e+00 5.053719e+00 -1.602301e+00 2.808739e+00 -2.513736e+00 1.976955e+00 -3.621904e+00 4.743704e+00 -5.249257e+00 -1.868338e+00 7.334781e+00 1.060828e+01 7.384053e+00 2.337071e+00 5.792636e+00 1.157720e+00 4.585823e+00 9.783626e-01 3.618177e+00 1.129003e+00 2.580949e+00 1.270532e+00 1.765300e+00 1.230075e+00 1.214022e+00 1.183382e+00 8.209289e-01 1.120796e+00 7.127659e-01 9.710631e-01 1.005632e+00 8.762513e-01 1.327503e+00 1.198355e+00 1.204189e+00 1.459074e+00 1.299710e+00 1.200838e+00 1.342415e+00 1.781162e+00 -3.336760e+00 1.886612e+00 -7.411066e+00 -8.804673e-01 -5.355654e+00 6.924231e-02 2.016996e+00 -2.193818e-01 1.606200e+00 -1.117635e+00 8.724183e-01 -1.312734e+00 1.150314e+00 -1.654024e+00 1.605560e+00 -2.357457e+00 2.897464e+00 
-3.238378e+00 1.719495e+00 -1.583412e+00 -1.143475e+01 -9.754071e+01 -3.171840e+00 6.663697e+00 -2.657941e+00 4.497520e+00 -2.057984e+00 2.101483e+00 -4.780364e+00 2.002628e+00 -1.862015e+01 1.668172e+01 -4.240285e+01 1.147607e+01 3.729022e+01 5.818290e+01 5.386002e+01 2.325380e+01 2.967902e+01 2.834424e+01 3.242758e+01 2.960571e+01 3.080169e+01 2.865030e+01 2.910980e+01 2.816828e+01 2.897243e+01 2.733877e+01 2.868320e+01 2.611508e+01 2.773422e+01 2.455322e+01 2.728194e+01 2.428292e+01 2.625851e+01 2.646658e+01 2.461379e+01 2.845287e+01 2.412491e+01 2.825100e+01 2.303641e+01 2.821989e+01 2.354060e+01 2.662755e+01 2.383753e+01 2.166368e+01 1.913490e+01 1.836786e+01 2.064472e+01 5.902716e+00 8.145379e+00 -1.515591e+00 1.507845e+00 -2.214560e+00 7.313680e-01 -1.859197e+00 1.150879e+00 -2.015653e+00 1.712353e+00 -2.691941e+00 2.302751e+00 
-3.095017e+00 1.199286e+00 -1.102951e+00 -9.788433e+00 -1.094148e+02 -2.635604e+00 3.581405e+00 -3.374961e+00 3.344239e+00 -2.480386e+00 2.626019e+00 -6.108196e+00 5.736569e+00 -2.242281e+01 2.320764e+01 -5.055562e+01 3.348349e+01 4.967057e+01 8.166061e+01 5.305239e+01 4.030502e+01 3.999769e+01 5.808227e+01 5.196368e+01 6.084747e+01 5.134096e+01 6.102193e+01 5.231930e+01 6.106239e+01 5.501491e+01 6.075165e+01 5.760281e+01 5.839727e+01 5.863588e+01 5.515447e+01 6.017808e+01 5.413752e+01 6.083325e+01 5.778355e+01 5.953783e+01 6.174239e+01 5.850443e+01 6.149365e+01 5.660284e+01 6.325279e+01 5.569183e+01 6.882363e+01 6.712974e+01 5.068829e+01 1.352947e+02 3.537268e+01 5.527980e+01 -5.818062e+00 2.161242e+00 -6.787104e+00 -2.459356e+00 -3.093425e+00 -1.842230e-01 -1.726368e+00 1.234154e+00 -1.800862e+00 1.985107e+00 -2.448744e+00 2.578871e+00 
-2.360165e+00 3.830368e-01 7.502337e-01 -9.712475e+00 -1.149620e+02 -1.422637e+00 2.664789e+00 -2.875582e+00 2.972133e+00 -1.445618e+00 3.496841e+00 4.652148e-02 4.289926e+00 2.721341e+00 2.872728e+00 6.287410e+00 -3.092749e+00 -2.669718e+01 -1.167642e+01 -2.465586e+01 6.720605e+00 -1.332009e+01 2.639518e+00 -1.030017e+01 5.082761e+00 -6.372892e+00 7.296435e+00 -2.628127e+00 8.589972e+00 8.274093e-01 9.324055e+00 4.138999e+00 9.388274e+00 6.984250e+00 8.913597e+00 9.300424e+00 8.464122e+00 1.126683e+01 8.522983e+00 1.290474e+01 8.955269e+00 1.421034e+01 9.186882e+00 1.534527e+01 9.556443e+00 1.729320e+01 1.292952e+01 2.455738e+01 1.928079e+01 5.942146e+01 2.443351e+00 2.439496e+01 -5.936712e+00 1.764139e+00 -3.787710e+00 -4.677167e-01 -1.811768e+00 5.827563e-01 -1.389376e+00 1.423771e+00 -1.694051e+00 1.986495e+00 -2.229510e+00 2.291560e+00 
-1.831460e+00 -4.350521e-02 1.476812e+00 -8.378503e+00 -1.218106e+02 -1.043458e+00 1.552243e+00 -3.201166e+00 2.078393e+00 -1.281722e+00 2.665076e+00 5.016133e+00 -1.037664e+00 2.515816e+01 -2.270781e+01 5.420423e+01 -2.673685e+01 -5.607403e+01 -8.681587e+01 -6.677702e+01 -4.000865e+01 -4.865805e+01 -5.745177e+01 -5.828513e+01 -6.026118e+01 -5.608896e+01 -6.036544e+01 -5.601267e+01 -6.033210e+01 -5.772135e+01 -6.002767e+01 -5.926576e+01 -5.774795e+01 -5.927418e+01 -5.485207e+01 -5.968672e+01 -5.430698e+01 -5.932896e+01 -5.830764e+01 -5.715742e+01 -6.260980e+01 -5.493147e+01 -6.261952e+01 -5.272599e+01 -6.354364e+01 -5.246321e+01 -6.785805e+01 -5.908350e+01 -5.983698e+01 -1.403227e+02 -2.688560e+01 -4.139540e+01 5.447572e+00 3.491495e+00 4.748558e+00 5.445809e+00 1.101513e+00 3.056750e+00 -6.259454e-01 2.218165e+00 -1.371949e+00 2.231078e+00 -1.895185e+00 2.246428e+00 
-9.666140e-01 -6.739524e-01 2.865608e+00 -7.801029e+00 -1.237836e+02 -1.144857e-01 1.112400e+00 -2.848488e+00 8.178017e-01 -2.176707e+00 1.157504e+00 1.421053e+00 -1.626443e+00 1.460116e+01 -1.688480e+01 3.308865e+01 -1.106978e+01 -1.063299e+01 -4.452869e+01 -2.852975e+01 -2.815169e+01 -1.952478e+01 -3.109675e+01 -2.296498e+01 -3.458038e+01 -2.475088e+01 -3.573783e+01 -2.674925e+01 -3.659670e+01 -3.023177e+01 -3.638446e+01 -3.323904e+01 -3.528409e+01 -3.497557e+01 -3.329898e+01 -3.683058e+01 -3.261602e+01 -3.747315e+01 -3.521697e+01 -3.670272e+01 -3.782520e+01 -3.726271e+01 -3.777262e+01 -3.680252e+01 -3.948609e+01 -3.889690e+01 -3.933234e+01 -5.200263e+01 -2.852615e+01 -7.026062e+01 -3.050587e+01 -5.073547e+01 -3.191797e+00 -7.192429e+00 3.393451e+00 3.163420e+00 1.247554e+00 2.891005e+00 -4.357086e-01 2.252131e+00 -1.167281e+00 2.169225e+00 -1.508325e+00 1.978598e+00 
-3.148171e-01 -1.050542e+00 3.535091e+00 -6.520027e+00 -1.270761e+02 5.072043e-01 3.949972e-01 -2.421248e+00 -5.655579e-01 -2.244647e+00 -6.550953e-01 -1.247901e+00 -1.494000e+00 -1.718367e+00 -3.177332e+00 -9.009945e-01 -6.734725e-01 5.563683e-01 -7.007650e+00 2.553524e+00 -1.918295e+00 1.030697e+00 -1.482915e+00 6.573270e-01 -1.359654e+00 5.556105e-01 -1.708796e+00 5.893909e-01 -2.000666e+00 5.268852e-01 -2.038820e+00 2.071641e-01 -1.866751e+00 -3.194150e-01 -1.528945e+00 -1.223063e+00 -9.009324e-01 -2.559691e+00 -2.760137e-01 -3.631256e+00 -3.615517e-01 -3.878345e+00 -5.044520e-01 -4.125321e+00 -5.298930e-01 -3.950987e+00 -2.633748e+00 -5.277899e-01 -3.228332e+00 2.558437e+00 -1.810736e-02 -3.704615e-01 6.955672e-01 -3.562407e+00 4.642432e-01 2.190316e-01 2.983650e-01 1.849634e+00 -3.838881e-01 2.087766e+00 -8.909890e-01 2.126789e+00 -1.116435e+00 1.783826e+00 
5.165222e-01 -1.499649e+00 4.471300e+00 -5.745319e+00 -1.265170e+02 1.156752e+00 2.371681e-01 -2.248885e+00 -1.222302e+00 -2.904095e+00 -1.073307e+00 -2.563292e+00 -9.260942e-01 -3.600266e+00 7.076539e-02 -5.046571e+00 2.238050e+00 1.178765e+00 3.303424e-01 2.959544e+00 9.948277e-01 1.514991e+00 -2.222691e-02 1.195623e+00 -3.555667e-03 8.414162e-01 2.440762e-02 5.073519e-01 1.412388e-01 2.827418e-01 2.914543e-01 3.806543e-01 3.295619e-01 4.420273e-01 3.938327e-01 4.142102e-01 4.667182e-01 2.620270e-01 4.940395e-01 -1.783786e-02 4.410469e-01 -3.004168e-01 5.184885e-01 -5.824934e-01 6.884838e-01 -5.163977e-01 3.929155e-01 1.195044e+00 -3.192998e-02 1.723961e+00 1.481528e-01 1.593178e-01 3.712154e-01 -7.876036e-01 2.379987e-02 3.453520e-01 -2.543170e-01 1.244073e+00 -5.378276e-01 1.677254e+00 -7.384741e-01 1.874903e+00 -7.043950e-01 1.470881e+00 
1.156582e+00 -1.850946e+00 4.984856e+00 -4.697212e+00 -1.273002e+02 1.698304e+00 -2.287948e-03 -1.834893e+00 -1.703525e+00 -3.287734e+00 -1.488086e+00 -5.042846e+00 6.258369e-02 -9.659171e+00 3.472561e+00 -7.213212e+00 3.768076e-01 -5.940141e+00 8.860350e+00 2.177222e+01 1.259657e+01 1.261686e+01 5.063180e+00 9.523890e+00 7.781126e+00 9.543340e+00 7.914007e+00 9.146790e+00 7.568799e+00 8.728646e+00 7.385348e+00 8.504353e+00 7.131805e+00 8.071866e+00 6.784460e+00 7.251011e+00 6.687767e+00 6.346966e+00 7.054091e+00 5.523388e+00 7.877660e+00 4.967846e+00 8.632132e+00 4.820377e+00 8.749547e+00 5.303444e+00 7.929302e+00 7.565429e+00 6.101983e+00 6.757073e+00 5.568504e+00 6.953293e+00 4.399856e+00 3.223659e+00 -8.161894e-02 9.515922e-01 -8.589977e-01 9.495889e-01 -6.901319e-01 1.381125e+00 -5.763606e-01 1.642172e+00 -3.396852e-01 1.152961e+00 
1.890848e+00 -2.106873e+00 5.484240e+00 -3.697727e+00 -1.247145e+02 2.035412e+00 -8.506896e-02 -1.274829e+00 -2.101256e+00 -2.800636e+00 -1.802299e+00 -6.029732e+00 1.703898e+00 -1.657301e+01 9.083834e+00 -1.737282e+01 5.344146e+00 -1.502219e+01 2.883971e+01 4.377032e+01 3.265295e+01 2.278024e+01 1.920214e+01 2.136463e+01 2.802863e+01 2.432250e+01 2.934579e+01 2.638448e+01 2.853366e+01 2.776088e+01 2.789521e+01 2.869202e+01 2.692006e+01 2.862243e+01 2.535712e+01 2.745635e+01 2.439882e+01 2.586239e+01 2.521229e+01 2.443151e+01 2.840899e+01 2.450451e+01 3.063063e+01 2.554215e+01 3.047396e+01 2.640112e+01 2.980638e+01 3.640097e+01 2.135698e+01 4.243501e+01 2.210505e+01 4.806886e+01 1.130933e+01 1.048117e+01 -3.199104e+00 -4.734280e-01 -2.129816e+00 -6.570098e-02 -8.222660e-01 9.459931e-01 -3.577572e-01 1.389591e+00 8.572928e-02 8.321978e-01 
2.440598e+00 -2.310670e+00 5.778807e+00 -2.934238e+00 -1.234900e+02 2.265042e+00 1.018954e-01 -1.136677e+00 -1.660326e+00 -2.321995e+00 -8.763456e-01 -2.806646e+00 1.682215e+00 -5.186999e+00 5.374924e+00 -7.992467e+00 6.447147e+00 -8.181886e+00 1.202546e+01 2.755753e+00 1.438923e+01 8.224438e-01 1.267268e+01 4.330943e+00 1.599082e+01 7.362137e+00 1.724910e+01 1.026540e+01 1.733958e+01 1.260810e+01 1.715829e+01 1.467016e+01 1.671861e+01 1.603424e+01 1.584897e+01 1.685211e+01 1.509514e+01 1.736442e+01 1.527425e+01 1.775661e+01 1.707514e+01 1.891754e+01 1.812245e+01 2.084260e+01 1.731821e+01 2.207332e+01 1.766673e+01 2.804457e+01 1.245399e+01 4.100375e+01 1.370266e+01 4.022730e+01 4.253679e+00 8.614548e+00 -3.578760e+00 -2.024643e-01 -1.776350e+00 -7.319556e-02 -5.400460e-01 7.780670e-01 -8.719997e-02 1.168678e+00 4.476037e-01 5.054911e-01 
2.992494e+00 -2.364078e+00 5.934752e+00 -2.103194e+00 -1.192702e+02 2.247963e+00 3.276175e-01 -1.068460e+00 -1.257272e+00 -1.663685e+00 -9.055706e-01 1.877959e+00 -2.532236e+00 1.213649e+01 -7.305253e+00 1.106315e+01 -4.119282e-03 9.996097e+00 -2.666414e+01 -4.719395e+01 -2.813059e+01 -2.519855e+01 -1.631534e+01 -2.427276e+01 -2.514817e+01 -2.581092e+01 -2.630240e+01 -2.681598e+01 -2.544170e+01 -2.711501e+01 -2.471951e+01 -2.710285e+01 -2.376763e+01 -2.604910e+01 -2.239647e+01 -2.418486e+01 -2.161296e+01 -2.215601e+01 -2.247139e+01 -2.039105e+01 -2.562009e+01 -1.984432e+01 -2.780557e+01 -2.012023e+01 -2.770590e+01 -1.964730e+01 -2.858598e+01 -2.544092e+01 -2.104802e+01 -3.766128e+01 -2.132626e+01 -3.568410e+01 -8.429107e+00 -3.595110e+00 1.449744e+00 2.291857e+00 9.099608e-01 1.637088e+00 2.954556e-01 1.247693e+00 2.574437e-01 1.144919e+00 8.239198e-01 2.512365e-01 
3.372310e+00 -2.374865e+00 5.999546e+00 -1.514014e+00 -1.161492e+02 2.453431e+00 4.002489e-01 -8.457074e-01 -1.398924e+00 -1.836310e+00 -1.695078e+00 4.466221e-01 -3.700023e+00 7.632955e+00 -7.772079e+00 7.875390e+00 -5.195892e+00 1.274481e+01 -1.925564e+01 -2.559171e+01 -2.760529e+01 -1.582934e+01 -1.772145e+01 -1.523708e+01 -2.389633e+01 -1.822012e+01 -2.540784e+01 -2.057240e+01 -2.508684e+01 -2.246397e+01 -2.464904e+01 -2.385875e+01 -2.378683e+01 -2.442236e+01 -2.237845e+01 -2.405834e+01 -2.147272e+01 -2.341719e+01 -2.207532e+01 -2.290853e+01 -2.478674e+01 -2.351309e+01 -2.668455e+01 -2.479566e+01 -2.642865e+01 -2.570263e+01 -2.594772e+01 -3.458301e+01 -1.909899e+01 -3.979857e+01 -1.950071e+01 -4.630951e+01 -1.082780e+01 -9.861701e+00 2.561887e+00 1.893228e+00 1.702434e+00 1.985723e+00 6.385830e-01 1.375256e+00 4.821887e-01 1.057290e+00 1.110663e+00 1.699387e-02 
3.729523e+00 -2.274400e+00 5.909223e+00 -7.287570e-01 -1.104499e+02 2.559087e+00 2.464954e-01 -3.842144e-01 -1.779797e+00 -1.559454e+00 -2.303977e+00 -1.738041e+00 -2.401525e+00 -2.562097e+00 -2.210746e+00 -2.515618e+00 -2.167080e+00 7.002971e-01 -3.037878e+00 1.177914e+00 -4.364551e+00 3.712865e-01 -3.316240e+00 -7.797277e-01 -3.502043e+00 -1.230878e+00 -3.741748e+00 -1.534133e+00 -3.807758e+00 -1.952089e+00 -3.632348e+00 -2.532552e+00 -3.385524e+00 -2.989604e+00 -3.095030e+00 -3.353885e+00 -2.883122e+00 -3.857115e+00 -2.857160e+00 -4.488604e+00 -3.076043e+00 -5.043401e+00 -3.251326e+00 -5.627137e+00 -3.017335e+00 -6.064873e+00 -2.837032e+00 -6.114319e+00 -2.235580e+00 -3.972908e+00 -2.850067e+00 -6.177351e+00 -3.096765e+00 -4.095056e+00 3.964242e-02 -3.136234e-01 7.052265e-01 9.495188e-01 6.015534e-01 1.097613e+00 6.631830e-01 9.113814e-01 1.399256e+00 -1.886713e-01 
3.930402e+00 -2.135506e+00 5.788250e+00 -3.183047e-01 -1.057629e+02 2.663568e+00 2.906902e-01 -2.003890e-01 -1.777722e+00 -1.415543e+00 -2.324652e+00 -1.613227e+00 -1.970525e+00 -2.874568e+00 -6.719772e-01 -3.712773e+00 -2.274320e-01 -1.988135e+00 1.451992e+00 1.156507e+00 -9.471656e-01 -1.696077e-01 -6.561358e-01 -7.401264e-01 -3.727095e-01 -6.651819e-01 -3.031294e-01 -3.684852e-01 -2.860515e-01 -1.293799e-01 -2.073819e-01 -9.496550e-02 -1.076556e-01 -4.292703e-02 -5.050877e-02 3.106575e-02 -3.337163e-02 -9.142248e-02 2.613534e-04 -4.261541e-01 8.808236e-02 -6.129399e-01 8.113324e-02 -7.600691e-01 1.808194e-01 -7.751032e-01 2.752249e-01 7.461559e-01 -3.497633e-01 2.514603e+00 1.020839e-01 1.908371e+00 -1.247038e+00 -1.280324e+00 -2.343925e-01 -6.243437e-01 5.484656e-01 4.770465e-01 6.745705e-01 8.561281e-01 8.142812e-01 7.365432e-01 1.610646e+00 -3.641368e-01 
4.062639e+00 -2.002569e+00 5.574789e+00 8.311822e-02 -9.901543e+01 2.656363e+00 2.928067e-01 -1.893645e-01 -1.660473e+00 -1.707737e+00 -2.026090e+00 -2.073023e+00 -1.462955e+00 -2.208998e+00 -6.414213e-01 -1.982929e+00 3.590706e-02 -1.687168e+00 4.659604e-01 -3.220564e-01 -1.335894e-01 -2.649827e-01 -1.784582e-01 -5.203062e-01 -1.375365e-01 -5.154640e-01 -1.284949e-01 -3.564804e-01 -1.256255e-01 -2.008622e-01 -6.960631e-02 -1.174988e-01 -1.304824e-02 -3.603132e-02 1.680691e-02 3.279235e-02 3.551074e-02 2.460865e-03 6.357834e-02 -1.171176e-01 9.976896e-02 -1.624629e-01 9.330607e-02 -1.079753e-01 6.098728e-02 2.094481e-01 -1.170529e-01 1.045687e+00 -3.815346e-01 1.525902e+00 -2.746584e-01 1.283858e+00 -4.200114e-01 5.895716e-02 -1.110864e-01 -1.394789e-01 2.710338e-01 2.940248e-01 5.221691e-01 6.102547e-01 8.238552e-01 5.335658e-01 1.742969e+00 -5.401794e-01 
4.077098e+00 -1.846601e+00 5.315779e+00 3.186662e-01 -9.303217e+01 2.618075e+00 3.528845e-01 -2.800708e-02 -1.475460e+00 -1.524722e+00 -1.823082e+00 -1.950359e+00 -1.289892e+00 -2.021116e+00 -6.730923e-01 -1.682055e+00 -1.388776e-01 -1.551223e+00 1.399575e-01 -6.362449e-01 -1.239579e-01 -3.144535e-01 -1.378468e-01 -4.652679e-01 -1.274266e-01 -4.517223e-01 -1.206817e-01 -3.318232e-01 -1.144646e-01 -2.069383e-01 -7.043515e-02 -1.256947e-01 -2.562333e-02 -4.803488e-02 9.292264e-04 2.221135e-03 2.320740e-02 -1.740297e-02 5.376066e-02 -8.056545e-02 8.357255e-02 -8.484634e-02 7.842434e-02 1.560520e-02 2.878613e-02 3.659483e-01 -1.327931e-01 9.089655e-01 -2.593326e-01 1.038512e+00 -2.409590e-01 1.050230e+00 -2.861276e-01 4.366480e-01 -7.863108e-02 8.316582e-02 2.390472e-01 2.412058e-01 5.237285e-01 4.621784e-01 8.763578e-01 3.678748e-01 1.836494e+00 -6.689139e-01 
4.008542e+00 -1.703509e+00 4.993740e+00 4.953248e-01 -8.540949e+01 2.476348e+00 4.173418e-01 -3.248528e-02 -1.270689e+00 -1.489131e+00 -1.617385e+00 -1.778043e+00 -1.190474e+00 -1.668019e+00 -7.006538e-01 -1.443077e+00 -2.821882e-01 -1.265864e+00 -1.516380e-01 -8.271010e-01 -1.093668e-01 -5.003652e-01 -7.856731e-02 -4.330079e-01 -7.988547e-02 -3.723864e-01 -8.889629e-02 -2.808876e-01 -8.718070e-02 -1.881529e-01 -5.558661e-02 -1.176665e-01 -1.843295e-02 -5.981084e-02 1.085418e-02 -2.509953e-02 3.767904e-02 -2.403075e-02 6.235711e-02 -3.132758e-02 7.164301e-02 1.040948e-02 4.438962e-02 1.384145e-01 -3.290349e-02 3.830175e-01 -1.677966e-01 6.542367e-01 -2.395190e-01 7.220556e-01 -2.270737e-01 7.538780e-01 -1.220596e-01 5.266969e-01 1.916370e-02 2.994398e-01 2.131516e-01 3.018769e-01 4.582833e-01 3.919771e-01 8.406623e-01 2.419219e-01 1.845763e+00 -7.720963e-01 
3.849756e+00 -1.544105e+00 4.623486e+00 5.971629e-01 -7.831773e+01 2.341715e+00 4.444503e-01 5.756068e-02 -1.082980e+00 -1.320381e+00 -1.445146e+00 -1.622006e+00 -1.108430e+00 -1.508626e+00 -7.024976e-01 -1.309097e+00 -3.325584e-01 -1.128271e+00 -2.159285e-01 -8.320503e-01 -1.597474e-01 -5.260219e-01 -9.619728e-02 -4.181716e-01 -8.532849e-02 -3.470266e-01 -8.680523e-02 -2.649487e-01 -8.193332e-02 -1.848340e-01 -5.628059e-02 -1.197997e-01 -2.568089e-02 -6.666672e-02 1.318414e-03 -3.432285e-02 2.640859e-02 -2.407310e-02 4.781536e-02 -1.261261e-02 5.416320e-02 3.966681e-02 2.813176e-02 1.631570e-01 -3.997872e-02 3.608333e-01 -1.356017e-01 5.378011e-01 -1.722118e-01 6.014263e-01 -1.794283e-01 6.208951e-01 -8.561444e-02 5.299537e-01 4.651932e-02 3.615220e-01 2.157660e-01 3.098293e-01 4.493571e-01 3.311148e-01 8.344982e-01 1.412841e-01 1.827822e+00 -8.268838e-01 
3.616011e+00 -1.379174e+00 4.202499e+00 6.612744e-01 -6.993594e+01 2.126996e+00 4.678052e-01 7.404720e-02 -9.138525e-01 -1.182754e+00 -1.286460e+00 -1.434942e+00 -1.020143e+00 -1.321621e+00 -6.719786e-01 -1.150821e+00 -3.848829e-01 -9.811802e-01 -2.590611e-01 -7.654693e-01 -1.602245e-01 -5.437490e-01 -8.927133e-02 -4.079674e-01 -6.522254e-02 -3.142481e-01 -6.191025e-02 -2.339318e-01 -5.707318e-02 -1.637887e-01 -3.858463e-02 -1.076030e-01 -1.384835e-02 -6.381298e-02 9.916820e-03 -3.347519e-02 3.034090e-02 -1.215084e-02 4.260375e-02 1.685606e-02 3.689892e-02 7.544612e-02 3.508622e-03 1.749617e-01 -5.739310e-02 3.035406e-01 -1.291918e-01 4.165785e-01 -1.604732e-01 4.742229e-01 -1.435516e-01 5.006902e-01 -4.664173e-02 4.671682e-01 6.653313e-02 3.798638e-01 2.046651e-01 3.299243e-01 4.073148e-01 3.071461e-01 7.764211e-01 8.095590e-02 1.743552e+00 -8.429534e-01 
3.310659e+00 -1.211402e+00 3.746167e+00 6.627984e-01 -6.192197e+01 1.928646e+00 4.548372e-01 1.206690e-01 -7.523354e-01 -1.013290e+00 -1.118959e+00 -1.263153e+00 -9.168428e-01 -1.168515e+00 -6.223099e-01 -1.020374e+00 -3.732218e-01 -8.683412e-01 -2.567155e-01 -7.009191e-01 -1.723526e-01 -5.121817e-01 -1.000993e-01 -3.808061e-01 -6.954016e-02 -2.896232e-01 -6.040950e-02 -2.159848e-01 -5.336446e-02 -1.536746e-01 -3.773120e-02 -1.029774e-01 -1.727672e-02 -6.281224e-02 3.217127e-03 -3.312973e-02 2.056472e-02 -8.586138e-03 3.004145e-02 2.418119e-02 2.402167e-02 8.030332e-02 -4.587187e-03 1.663196e-01 -5.303707e-02 2.684537e-01 -1.027389e-01 3.542651e-01 -1.213714e-01 4.068421e-01 -1.105049e-01 4.280127e-01 -3.258362e-02 4.185633e-01 7.168415e-02 3.610381e-01 1.969429e-01 3.104765e-01 3.813301e-01 2.656957e-01 7.267688e-01 2.747363e-02 1.630392e+00 -8.230462e-01 
2.944816e+00 -1.033896e+00 3.248616e+00 6.452860e-01 -5.293251e+01 1.670679e+00 4.307751e-01 1.235620e-01 -6.108523e-01 -8.650402e-01 -9.564429e-01 -1.087643e+00 -7.999994e-01 -1.006081e+00 -5.549356e-01 -8.757144e-01 -3.550544e-01 -7.437468e-01 -2.390091e-01 -6.039041e-01 -1.523166e-01 -4.613413e-01 -8.787028e-02 -3.464209e-01 -5.487194e-02 -2.584629e-01 -4.197340e-02 -1.887608e-01 -3.413777e-02 -1.323342e-01 -2.214938e-02 -8.760570e-02 -6.549777e-03 -5.243156e-02 8.866390e-03 -2.422781e-02 2.028945e-02 2.364647e-03 2.307504e-02 3.602198e-02 1.184325e-02 8.448453e-02 -1.620252e-02 1.487987e-01 -5.620184e-02 2.201313e-01 -9.520730e-02 2.842261e-01 -1.109769e-01 3.292562e-01 -9.123737e-02 3.538139e-01 -2.452096e-02 3.533763e-01 6.196764e-02 3.235934e-01 1.693912e-01 2.883086e-01 3.293820e-01 2.386008e-01 6.412153e-01 1.279204e-03 1.466561e+00 -7.684273e-01 
2.525573e+00 -8.664612e-01 2.730177e+00 5.706412e-01 -4.419299e+01 1.424159e+00 3.884487e-01 1.404630e-01 -4.661356e-01 -6.960364e-01 -7.782668e-01 -9.060191e-01 -6.684829e-01 -8.469609e-01 -4.701690e-01 -7.400784e-01 -3.047381e-01 -6.312487e-01 -2.071875e-01 -5.199208e-01 -1.371689e-01 -4.025232e-01 -8.184455e-02 -3.029425e-01 -5.109408e-02 -2.254084e-01 -3.769320e-02 -1.646113e-01 -3.000336e-02 -1.159763e-01 -2.028273e-02 -7.721753e-02 -8.024380e-03 -4.620395e-02 4.187008e-03 -2.037964e-02 1.289041e-02 4.911631e-03 1.409873e-02 3.622933e-02 3.820496e-03 7.873956e-02 -1.948257e-02 1.323703e-01 -5.077399e-02 1.898339e-01 -7.870609e-02 2.411209e-01 -8.897833e-02 2.787920e-01 -7.431272e-02 2.994468e-01 -2.163867e-02 3.024581e-01 5.269790e-02 2.817519e-01 1.456847e-01 2.502531e-01 2.830933e-01 1.980682e-01 5.547388e-01 -2.354479e-02 1.274962e+00 -6.913653e-01 
2.061493e+00 -6.913353e-01 2.179367e+00 4.882410e-01 -3.477146e+01 1.134071e+00 3.326674e-01 1.235518e-01 -3.377070e-01 -5.478834e-01 -6.026302e-01 -7.281924e-01 -5.272559e-01 -6.839671e-01 -3.740469e-01 -5.968582e-01 -2.460281e-01 -5.079808e-01 -1.626980e-01 -4.183770e-01 -1.026940e-01 -3.294328e-01 -5.892033e-02 -2.508478e-01 -3.333486e-02 -1.861394e-01 -2.127955e-02 -1.341067e-01 -1.478645e-02 -9.253786e-02 -7.999399e-03 -5.966033e-02 1.578579e-04 -3.333892e-02 7.732599e-03 -1.083527e-02 1.172418e-02 1.155170e-02 8.948168e-03 3.796579e-02 -3.103349e-03 7.107323e-02 -2.443079e-02 1.103510e-01 -5.066564e-02 1.520731e-01 -7.386702e-02 1.912622e-01 -8.273662e-02 2.220475e-01 -6.811471e-02 2.410427e-01 -2.667353e-02 2.450995e-01 3.102863e-02 2.330116e-01 1.055524e-01 2.105814e-01 2.169648e-01 1.645787e-01 4.425893e-01 -3.075954e-02 1.046172e+00 -5.890452e-01 
1.563837e+00 -5.317012e-01 1.619883e+00 3.609859e-01 -2.550582e+01 8.512612e-01 2.717700e-01 1.176006e-01 -2.020071e-01 -3.821600e-01 -4.136066e-01 -5.401988e-01 -3.746814e-01 -5.186943e-01 -2.654443e-01 -4.565995e-01 -1.716337e-01 -3.915723e-01 -1.118918e-01 -3.255096e-01 -7.030615e-02 -2.578012e-01 -3.936729e-02 -1.961742e-01 -2.107941e-02 -1.447490e-01 -1.279247e-02 -1.034554e-01 -8.888274e-03 -7.066513e-02 -4.902864e-03 -4.473172e-02 1.929543e-04 -2.377870e-02 4.940051e-03 -5.504914e-03 6.789693e-03 1.302123e-02 3.111585e-03 3.482367e-02 -7.918665e-03 6.162636e-02 -2.595273e-02 9.278111e-02 -4.715205e-02 1.253736e-01 -6.514044e-02 1.556540e-01 -7.237093e-02 1.793836e-01 -6.289457e-02 1.937083e-01 -3.254156e-02 1.964577e-01 1.194073e-02 1.860942e-01 6.925521e-02 1.658341e-01 1.539371e-01 1.244294e-01 3.278025e-01 -3.718263e-02 7.966370e-01 -4.749840e-01 
1.037425e+00 -3.651290e-01 1.036463e+00 2.352396e-01 -1.583663e+01 5.386108e-01 1.969798e-01 8.736257e-02 -7.889810e-02 -2.317748e-01 -2.267950e-01 -3.559899e-01 -2.167165e-01 -3.516281e-01 -1.503022e-01 -3.118713e-01 -9.128001e-02 -2.679185e-01 -5.299537e-02 -2.229766e-01 -2.725114e-02 -1.777243e-01 -9.680859e-03 -1.356633e-01 -1.450626e-04 -9.928648e-02 3.171513e-03 -6.925361e-02 3.755415e-03 -4.512555e-02 4.478374e-03 -2.604181e-02 6.013151e-03 -1.067762e-02 7.130131e-03 2.735027e-03 5.760277e-03 1.626234e-02 -8.744109e-05 3.180685e-02 -1.154474e-02 5.036517e-02 -2.799477e-02 7.161652e-02 -4.653828e-02 9.411992e-02 -6.256792e-02 1.156732e-01 -7.008070e-02 1.330184e-01 -6.405980e-02 1.434423e-01 -4.400793e-02 1.446020e-01 -1.488505e-02 1.363123e-01 2.275448e-02 1.204872e-01 7.859618e-02 8.790214e-02 1.972621e-01 -3.347183e-02 5.238671e-01 -3.453084e-01 
4.981399e-01 -2.128465e-01 4.553150e-01 8.064897e-02 -6.242967e+00 2.330251e-01 1.264259e-01 6.679407e-02 5.219085e-02 -7.033814e-02 -3.140136e-02 -1.656551e-01 -5.174879e-02 -1.833071e-01 -2.775737e-02 -1.691999e-01 -3.241710e-03 -1.489221e-01 9.215219e-03 -1.257642e-01 1.523943e-02 -1.000146e-01 1.835705e-02 -7.466842e-02 1.817593e-02 -5.224875e-02 1.527387e-02 -3.378004e-02 1.160030e-02 -1.919579e-02 8.896373e-03 -7.923336e-03 7.425137e-03 1.007378e-03 6.037047e-03 8.895635e-03 2.910308e-03 1.722845e-02 -3.648261e-03 2.730332e-02 -1.452365e-02 3.970756e-02 -2.915002e-02 5.407222e-02 -4.521318e-02 6.921142e-02 -5.927089e-02 8.336374e-02 -6.740225e-02 9.412844e-02 -6.655804e-02 9.945684e-02 -5.615676e-02 9.764687e-02 -4.029703e-02 8.850131e-02 -2.126543e-02 7.371115e-02 5.392480e-03 4.840792e-02 6.577608e-02 -2.986016e-02 2.414153e-01 -2.123978e-01 
-5.345349e-02 -5.207593e-02 -1.414207e-01 -6.269576e-02 3.485748e+00 -8.960847e-02 4.186809e-02 3.276413e-02 1.743007e-01 8.460653e-02 1.619185e-01 2.375392e-02 1.143911e-01 -1.375464e-02 9.626446e-02 -2.423003e-02 8.620197e-02 -2.645329e-02 7.388046e-02 -2.451198e-02 6.134155e-02 -1.910954e-02 5.009340e-02 -1.188536e-02 3.972851e-02 -4.508776e-03 3.013156e-02 1.951160e-03 2.193954e-02 7.027690e-03 1.572433e-02 1.068466e-02 1.119542e-02 1.328782e-02 7.158635e-03 1.552865e-02 2.029430e-03 1.825099e-02 -5.568277e-03 2.218031e-02 -1.630900e-02 2.764324e-02 -2.978384e-02 3.445672e-02 -4.441617e-02 4.195793e-02 -5.782514e-02 4.896031e-02 -6.721377e-02 5.361626e-02 -7.074415e-02 5.413207e-02 -6.958694e-02 4.919023e-02 -6.777551e-02 3.917414e-02 -6.840826e-02 2.601342e-02 -7.176688e-02 9.379113e-03 -7.085815e-02 -2.314982e-02 -4.920251e-02 -7.279933e-02 
-5.970227e-01 9.888546e-02 -7.250304e-01 -2.179540e-01 1.321143e+01 -4.023406e-01 -3.021576e-02 7.669190e-03 3.037793e-01 2.420674e-01 3.578441e-01 2.121061e-01 2.826601e-01 1.535268e-01 2.233153e-01 1.176364e-01 1.789573e-01 9.226788e-02 1.403030e-01 7.344752e-02 1.077780e-01 6.040984e-02 8.175542e-02 5.155683e-02 6.095766e-02 4.516212e-02 4.423057e-02 3.995860e-02 3.108386e-02 3.521080e-02 2.118681e-02 3.059222e-02 1.376094e-02 2.612830e-02 7.480586e-03 2.211567e-02 8.103727e-04 1.898137e-02 -7.533276e-03 1.707484e-02 -1.820055e-02 1.646922e-02 -3.096208e-02 1.688803e-02 -4.473215e-02 1.771653e-02 -5.796813e-02 1.798247e-02 -6.914948e-02 1.634002e-02 -7.768724e-02 1.154041e-02 -8.514281e-02 2.785865e-03 -9.589440e-02 -9.308398e-03 -1.149035e-01 -2.227955e-02 -1.474211e-01 -3.127056e-02 -2.054241e-01 -1.857678e-02 -3.365883e-01 6.254085e-02 