# vtk DataFile Version 2.0
Comment goes here
ASCII

DATASET STRUCTURED_POINTS
FIELD FieldData 1
TIME 1 1 double
0.78000000
DIMENSIONS    128   16   1

ORIGIN    0.000   0.000   0.000
SPACING   0.0078125 0.015625   1.000

POINT_DATA   2048
SCALARS Omega double
LOOKUP_TABLE default

4.528962e-04 1.090455e-04 -1.691171e-04 -3.327526e-04 -3.213257e-04 -1.493751e-04 -5.410588e-05 -1.131025e-04 4.472529e-05 -5.481743e-05 -2.646008e-05 -2.220618e-04 -1.918413e-04 -5.562649e-04 -3.362010e-05 -4.590046e-04 2.022212e-04 -3.756263e-04 8.024444e-05 -8.311978e-05 -1.123388e-03 -6.404037e-04 -2.680684e-04 -3.223996e-04 -2.617535e-04 -2.370104e-04 -2.724840e-04 -2.548291e-04 -4.036496e-04 -3.635228e-04 -5.946439e-04 -5.916060e-04 -9.984065e-04 -1.147420e-03 -1.788207e-03 -2.148937e-03 -3.059634e-03 -3.652479e-03 -4.779810e-03 -5.496216e-03 -6.672447e-03 -7.298105e-03 -8.152007e-03 -8.110790e-03 -7.748309e-03 -5.871371e-03 -2.973281e-03 1.765067e-03 7.297871e-03 1.326960e-02 1.740123e-02 1.785853e-02 1.097589e-02 -6.219341e-03 -3.122351e-02 -3.405159e-02 3.210363e-02 5.511001e-02 6.976995e-03 -1.010484e-04 2.434451e-03 -6.805359e-03 -1.776108e-03 -1.747367e-02 -2.810119e-02 -2.178360e-02 -4.177052e-02 -5.419978e-02 -4.910740e-02 -8.457748e-02 -7.174188e-02 -4.364453e-02 -1.099653e-01 -1.384531e-01 -1.012247e-01 -7.291231e-02 -5.377346e-02 -3.696443e-02 -2.261243e-02 -1.087067e-02 -2.836402e-03 3.040999e-03 6.202128e-03 8.381033e-03 8.832926e-03 9.089491e-03 8.187769e-03 7.521534e-03 5.997174e-03 4.940824e-03 3.256882e-03 2.198833e-03 7.558522e-04 5.923204e-05 -8.385229e-04 -9.982728e-04 -1.314959e-03 -1.018400e-03 -9.318384e-04 -4.558979e-04 -3.068183e-04 2.502420e-05 1.354962e-05 1.042045e-04 -3.654920e-05 -7.530695e-05 -2.043912e-04 -2.713341e-04 -3.591359e-04 -4.496711e-04 -5.254773e-04 -6.682255e-04 -7.448087e-04 -8.721131e-04 -8.030910e-04 -7.662808e-04 -5.014956e-04 -3.619419e-04 -3.436298e-05 9.010290e-05 4.032204e-04 3.794601e-04 8.273708e-04 1.175783e-03 1.260033e-03 1.253449e-03 1.098892e-03 8.050925e-04 
-8.376585e-03 -1.148947e-02 -1.395084e-02 2.467482e-02 1.084706e-01 -7.158434e-01 -1.195411e+00 -5.057484e-01 -5.972389e-01 -4.916006e-01 -5.580474e-01 -3.057072e-01 5.893903e-01 2.278428e+00 3.089538e+00 2.787473e+00 2.839213e+00 2.910883e+00 2.741372e+00 3.037653e+00 2.419763e+00 3.744306e-01 -3.471654e-01 -5.369234e-01 -4.907689e-01 -5.263576e-01 -4.904458e-01 -5.274788e-01 -4.984747e-01 -5.268493e-01 -5.043613e-01 -5.241212e-01 -5.090925e-01 -5.206226e-01 -5.135189e-01 -5.170851e-01 -5.178623e-01 -5.140994e-01 -5.218967e-01 -5.118421e-01 -5.249828e-01 -5.100460e-01 -5.265198e-01 -5.079174e-01 -5.249845e-01 -5.034020e-01 -5.173095e-01 -4.932075e-01 -5.006864e-01 -4.761208e-01 -4.770008e-01 -4.591383e-01 -4.631476e-01 -4.715924e-01 -4.178454e-01 -6.785747e-02 1.225775e+00 1.538308e+00 9.234068e-01 1.282134e+00 1.530822e+00 1.369902e+00 1.550504e+00 1.654100e+00 1.426261e+00 1.630285e+00 1.563916e+00 1.144136e+00 1.354823e+00 7.536280e-01 2.949660e-01 1.502787e+00 8.945029e-01 -5.645558e-01 -5.818971e-01 -5.496259e-01 -5.055088e-01 -5.100356e-01 -4.934230e-01 -4.924510e-01 -4.877752e-01 -4.850290e-01 -4.888993e-01 -4.853692e-01 -4.930672e-01 -4.884263e-01 -4.986746e-01 -4.920706e-01 -5.051434e-01 -4.962083e-01 -5.115390e-01 -5.010639e-01 -5.173509e-01 -5.065364e-01 -5.223533e-01 -5.118980e-01 -5.257515e-01 -5.166860e-01 -5.267130e-01 -5.205730e-01 -5.248945e-01 -5.234734e-01 -5.203859e-01 -5.255128e-01 -5.132446e-01 -5.266520e-01 -5.032853e-01 -5.265076e-01 -4.916826e-01 -5.255275e-01 -4.804495e-01 -5.241755e-01 -4.710602e-01 -5.224904e-01 -4.643583e-01 -5.200750e-01 -4.602802e-01 -5.167115e-01 -4.550379e-01 -5.126532e-01 -4.203088e-01 -7.209018e-01 -1.094229e+00 -2.693784e-01 -4.124799e-02 -2.937909e-02 -1.470326e-02 -8.921947e-03 
-7.917380e-03 -2.369909e-02 -3.743722e-02 2.412983e-01 1.546056e+00 -6.803118e-01 -2.797264e+00 -5.758121e-01 -1.105006e+00 -7.040641e-01 -9.430268e-01 -4.633794e-01 9.121939e-02 -6.235948e-01 -1.402281e+00 -1.334725e+00 -1.166752e+00 -1.337091e+00 -1.190987e+00 -1.458220e+00 -4.696523e-01 -2.357920e-01 -5.723770e-01 -8.954418e-01 -7.960974e-01 -8.848308e-01 -7.672819e-01 -8.665899e-01 -7.661220e-01 -8.652042e-01 -7.758889e-01 -8.614303e-01 -7.830644e-01 -8.484648e-01 -7.833026e-01 -8.228813e-01 -7.796254e-01 -8.008803e-01 -7.895122e-01 -7.926137e-01 -8.056831e-01 -7.869219e-01 -8.200415e-01 -7.835306e-01 -8.325245e-01 -7.845426e-01 -8.468556e-01 -7.959446e-01 -8.605972e-01 -8.023779e-01 -8.539590e-01 -7.952756e-01 -8.462045e-01 -8.400858e-01 -8.305531e-01 3.880594e-02 2.589522e+00 1.560946e+00 -2.814160e-02 6.008238e-01 3.361582e-01 5.049070e-01 3.541168e-01 2.910354e-01 2.974818e-01 3.194417e-01 4.329544e-01 5.081980e-01 3.921824e-01 5.872558e-01 2.007097e-01 2.126477e+00 2.924633e+00 -4.212513e-02 -8.813826e-01 -9.816262e-01 -8.514581e-01 -8.528718e-01 -7.819134e-01 -7.936420e-01 -7.709351e-01 -7.873110e-01 -7.907437e-01 -7.876751e-01 -7.844218e-01 -7.512383e-01 -7.527944e-01 -7.122043e-01 -7.496170e-01 -7.157143e-01 -7.891430e-01 -7.472388e-01 -8.278302e-01 -7.569859e-01 -8.285461e-01 -7.398964e-01 -8.168785e-01 -7.386844e-01 -8.243559e-01 -7.647930e-01 -8.368333e-01 -7.894544e-01 -8.201972e-01 -7.877417e-01 -7.705777e-01 -7.809663e-01 -7.238265e-01 -7.969455e-01 -6.927398e-01 -8.242485e-01 -6.619089e-01 -8.373416e-01 -6.159509e-01 -8.260786e-01 -5.699450e-01 -8.148856e-01 -5.539798e-01 -8.190104e-01 -5.583668e-01 -8.371060e-01 -4.859919e-01 -1.423179e+00 -1.915669e+00 9.980944e-01 4.510347e-01 -1.263180e-01 -6.127562e-02 -1.275402e-02 
1.379182e-03 -4.036640e-02 -9.829847e-02 4.721824e-01 4.043035e+00 3.698365e+00 1.079801e-01 1.675361e+00 9.963755e-01 1.307285e+00 9.433498e-01 7.309374e-01 7.990809e-03 1.509818e-02 4.131760e-01 1.315579e-01 2.305239e-01 8.601910e-02 2.772747e-01 2.821324e-01 2.265930e-02 2.395801e-01 7.731560e-01 1.037549e+00 1.167862e+00 1.199951e+00 1.292078e+00 1.255651e+00 1.340458e+00 1.248702e+00 1.346103e+00 1.236195e+00 1.352000e+00 1.244572e+00 1.375507e+00 1.288534e+00 1.409000e+00 1.323614e+00 1.398245e+00 1.321536e+00 1.361459e+00 1.314426e+00 1.319798e+00 1.300582e+00 1.268029e+00 1.267648e+00 1.184151e+00 1.185257e+00 1.059035e+00 1.077523e+00 9.250557e-01 9.443682e-01 7.250504e-01 6.915633e-01 2.853872e-01 -1.649764e-01 -1.671704e+00 -1.587688e+00 -1.174102e+00 -1.557293e+00 -1.333273e+00 -1.440608e+00 -1.455100e+00 -1.756996e+00 -1.615335e+00 -1.618955e+00 -1.303369e+00 -1.296059e+00 -1.292366e+00 -1.486132e+00 -1.224615e+00 -2.103107e+00 -1.780695e+00 -1.985118e-01 3.717555e-01 6.311922e-01 8.474246e-01 9.674495e-01 1.129586e+00 1.161239e+00 1.231099e+00 1.195331e+00 1.220451e+00 1.213491e+00 1.273379e+00 1.338418e+00 1.398190e+00 1.467990e+00 1.441398e+00 1.474241e+00 1.358473e+00 1.405528e+00 1.276199e+00 1.408593e+00 1.303047e+00 1.494412e+00 1.359331e+00 1.533549e+00 1.345423e+00 1.488288e+00 1.297930e+00 1.438893e+00 1.315066e+00 1.456842e+00 1.407060e+00 1.479931e+00 1.471157e+00 1.427446e+00 1.478971e+00 1.334875e+00 1.489853e+00 1.281492e+00 1.561786e+00 1.300619e+00 1.659307e+00 1.321077e+00 1.695700e+00 1.297854e+00 1.674552e+00 1.246111e+00 1.689963e+00 9.016983e-01 2.257331e+00 5.185244e+00 1.627532e+00 -2.434222e-01 -1.162737e-01 -6.217278e-03 
8.764880e-03 -1.423793e-02 -5.987275e-02 2.870090e-01 2.817529e+00 5.428408e+00 3.850789e+00 2.686623e+00 2.627111e+00 2.458219e+00 2.450075e+00 2.282224e+00 2.606057e+00 2.463854e+00 2.426815e+00 2.454436e+00 2.461631e+00 2.492575e+00 2.434247e+00 2.478477e+00 2.481580e+00 2.485782e+00 2.336215e+00 2.505434e+00 2.463820e+00 2.626328e+00 2.587277e+00 2.673563e+00 2.642677e+00 2.663351e+00 2.661690e+00 2.643598e+00 2.677260e+00 2.635775e+00 2.703462e+00 2.652026e+00 2.735636e+00 2.662930e+00 2.735018e+00 2.649569e+00 2.712793e+00 2.633574e+00 2.682160e+00 2.612306e+00 2.637190e+00 2.575093e+00 2.559030e+00 2.497000e+00 2.435927e+00 2.386687e+00 2.278815e+00 2.228013e+00 2.021456e+00 1.920265e+00 1.485134e+00 1.062258e+00 -3.723714e-02 3.299031e-01 4.544722e-01 3.610733e-01 5.433400e-01 4.279316e-01 7.939546e-01 5.973931e-01 8.881400e-01 5.808754e-01 8.741983e-01 4.288565e-01 8.355450e-01 6.249342e-01 8.910489e-01 1.000217e+00 3.602105e-01 1.215148e+00 1.600249e+00 1.958284e+00 2.097525e+00 2.280764e+00 2.390159e+00 2.456105e+00 2.512990e+00 2.497271e+00 2.533067e+00 2.519722e+00 2.585588e+00 2.613211e+00 2.685679e+00 2.708867e+00 2.730627e+00 2.721042e+00 2.688320e+00 2.685378e+00 2.645303e+00 2.703004e+00 2.676165e+00 2.779798e+00 2.724320e+00 2.824815e+00 2.718035e+00 2.809713e+00 2.680003e+00 2.787321e+00 2.676989e+00 2.805803e+00 2.715597e+00 2.822487e+00 2.726634e+00 2.782450e+00 2.694800e+00 2.710719e+00 2.667289e+00 2.664249e+00 2.690544e+00 2.668756e+00 2.745153e+00 2.677294e+00 2.774763e+00 2.664357e+00 2.782061e+00 2.668019e+00 2.799789e+00 3.238217e+00 5.578382e+00 4.662833e+00 8.591674e-01 -3.344625e-01 -1.054634e-01 -5.049853e-03 
5.050503e-03 6.070043e-03 -2.184400e-02 -8.950396e-02 1.504380e-01 1.967853e+00 2.312363e+00 9.174546e-01 1.144561e+00 9.674920e-01 1.135554e+00 1.290897e+00 1.954272e+00 1.618730e+00 1.349061e+00 1.349180e+00 1.354197e+00 1.349842e+00 1.354392e+00 1.352993e+00 1.708994e+00 1.779585e+00 1.143729e+00 1.068148e+00 1.018131e+00 1.115378e+00 1.067147e+00 1.130624e+00 1.085064e+00 1.128138e+00 1.094321e+00 1.120734e+00 1.100735e+00 1.112531e+00 1.106617e+00 1.105151e+00 1.111987e+00 1.097957e+00 1.114556e+00 1.090316e+00 1.113811e+00 1.082496e+00 1.109182e+00 1.073097e+00 1.098922e+00 1.060669e+00 1.081049e+00 1.043542e+00 1.054614e+00 1.021856e+00 1.019850e+00 9.931077e-01 9.514719e-01 8.879023e-01 9.368552e-01 2.542550e+00 6.844034e+00 5.357117e+00 3.139691e+00 3.438866e+00 3.002074e+00 3.223963e+00 3.081537e+00 3.478317e+00 3.278010e+00 3.441072e+00 2.917416e+00 3.310396e+00 2.919357e+00 3.577941e+00 2.982764e+00 5.297953e+00 6.866509e+00 2.373893e+00 8.858941e-01 9.177152e-01 9.690426e-01 1.042723e+00 1.044679e+00 1.066817e+00 1.070895e+00 1.069516e+00 1.078386e+00 1.067854e+00 1.082830e+00 1.070450e+00 1.090748e+00 1.075008e+00 1.098703e+00 1.078491e+00 1.103683e+00 1.082777e+00 1.108293e+00 1.091835e+00 1.115579e+00 1.104878e+00 1.122178e+00 1.117066e+00 1.123405e+00 1.125731e+00 1.118742e+00 1.131564e+00 1.110426e+00 1.135981e+00 1.098654e+00 1.137215e+00 1.081131e+00 1.133189e+00 1.059882e+00 1.125740e+00 1.040500e+00 1.118649e+00 1.028598e+00 1.115014e+00 1.026967e+00 1.115463e+00 1.037595e+00 1.125713e+00 1.066767e+00 1.166171e+00 1.105139e+00 1.636437e+00 2.465896e+00 8.010154e-01 -1.214770e-01 -1.173714e-01 -2.417882e-02 2.196243e-04 
-4.370761e-04 6.033677e-03 8.883229e-03 -7.792778e-03 -4.073233e-02 5.007271e-02 1.576240e-01 5.453881e-02 5.392024e-02 6.269155e-02 1.303512e-01 5.659235e-01 1.856147e+00 1.556479e+00 8.937144e-01 8.929247e-01 8.931284e-01 8.929491e-01 8.931364e-01 8.947518e-01 1.715561e+00 1.819402e+00 2.304568e-01 -3.676603e-02 -1.355572e-03 3.923439e-02 5.019751e-02 5.939851e-02 5.956043e-02 6.294586e-02 6.173248e-02 6.261480e-02 6.178539e-02 6.125192e-02 6.123163e-02 5.959079e-02 6.034576e-02 5.777430e-02 5.912026e-02 5.569482e-02 5.720689e-02 5.287527e-02 5.405544e-02 4.890946e-02 4.973779e-02 4.474862e-02 4.637889e-02 4.384118e-02 4.874581e-02 5.210422e-02 6.459888e-02 7.958233e-02 1.019002e-01 1.218187e-01 3.199479e-01 1.563769e+00 4.573011e+00 3.388262e+00 1.780585e+00 2.203179e+00 2.019170e+00 2.152160e+00 1.797742e+00 2.058330e+00 1.656652e+00 1.970797e+00 1.735464e+00 1.851872e+00 1.760487e+00 1.849346e+00 1.313079e+00 3.086168e+00 3.973099e+00 7.267724e-01 -2.782555e-02 3.442306e-02 7.477136e-02 8.863172e-02 9.130233e-02 9.357041e-02 9.275187e-02 8.836732e-02 8.416259e-02 7.734700e-02 7.369970e-02 6.792462e-02 6.648345e-02 6.229898e-02 6.280046e-02 5.963476e-02 6.122742e-02 5.857778e-02 6.060595e-02 5.832768e-02 6.047228e-02 5.861592e-02 6.068041e-02 5.933940e-02 6.098250e-02 6.015124e-02 6.092234e-02 6.061375e-02 6.013154e-02 6.051988e-02 5.857738e-02 6.002763e-02 5.656935e-02 5.953535e-02 5.473244e-02 5.957377e-02 5.370697e-02 6.060893e-02 5.414369e-02 6.328939e-02 5.702431e-02 6.875347e-02 6.396234e-02 7.908512e-02 7.661572e-02 9.419251e-02 8.708803e-02 1.425000e-01 1.768623e-01 -3.123776e-03 -4.970941e-02 -2.089134e-02 -8.281483e-03 -4.094812e-03 
-2.240826e-03 -1.427196e-04 2.282411e-03 2.630400e-03 -2.265480e-03 -7.865015e-03 -2.670059e-04 1.822289e-03 7.794475e-03 1.740761e-02 4.814104e-02 2.672523e-01 9.129570e-01 7.677644e-01 4.466222e-01 4.462569e-01 4.462564e-01 4.462564e-01 4.462584e-01 4.471504e-01 8.647087e-01 9.097380e-01 5.708697e-02 -7.750080e-02 -4.803561e-02 -2.537732e-02 -1.493911e-02 -1.000598e-02 -7.082463e-03 -5.556523e-03 -4.719627e-03 -4.513460e-03 -4.441865e-03 -4.750183e-03 -4.977908e-03 -5.543938e-03 -5.939563e-03 -6.684421e-03 -7.252585e-03 -8.254193e-03 -9.183702e-03 -1.067617e-02 -1.218500e-02 -1.418212e-02 -1.591859e-02 -1.751767e-02 -1.803063e-02 -1.746779e-02 -1.527794e-02 -1.235945e-02 -9.285234e-03 -8.090088e-03 -1.164569e-02 -3.568926e-02 -8.758275e-02 2.822132e-02 6.998170e-01 1.899997e-01 -6.214208e-01 -6.732821e-02 -3.998614e-01 -1.413114e-01 -2.501709e-01 -4.174050e-01 -2.018477e-01 -4.941586e-01 1.243578e-02 -2.430652e-01 1.528203e-01 2.687001e-01 2.787107e-01 1.345642e+00 9.669264e-01 3.824674e-02 -1.184601e-01 -6.106027e-02 -2.278774e-02 2.994068e-03 2.158207e-02 3.238038e-02 3.531765e-02 3.238778e-02 2.628920e-02 1.894776e-02 1.209398e-02 6.184630e-03 1.797554e-03 -1.470378e-03 -3.497514e-03 -4.893121e-03 -5.547916e-03 -6.002151e-03 -6.031816e-03 -6.083616e-03 -5.839692e-03 -5.710944e-03 -5.346234e-03 -5.178059e-03 -4.863782e-03 -4.853808e-03 -4.806424e-03 -5.131302e-03 -5.477020e-03 -6.145039e-03 -6.803804e-03 -7.605120e-03 -8.308975e-03 -8.890784e-03 -9.301329e-03 -9.325080e-03 -9.202134e-03 -8.473379e-03 -7.728718e-03 -6.184851e-03 -4.824323e-03 -2.459088e-03 -5.257337e-04 2.570041e-03 4.645899e-03 7.217725e-03 6.491984e-03 6.529249e-03 3.744224e-03 -5.507109e-03 -5.264488e-03 -3.502653e-03 -3.809753e-03 -3.376643e-03 
-3.148974e-04 -1.360922e-04 2.353895e-05 1.487638e-04 2.250328e-04 2.556868e-04 2.462579e-04 2.101450e-04 1.594046e-04 1.008357e-04 2.994219e-05 -7.227172e-05 3.065305e-05 4.646362e-05 -6.739890e-07 -8.202500e-09 4.822536e-10 7.858559e-10 -3.544855e-09 -4.997256e-06 -1.514194e-03 -5.722446e-03 6.747501e-04 1.017789e-03 5.841982e-04 3.247821e-04 1.474123e-04 2.678534e-05 -7.715427e-05 -1.650148e-04 -2.577508e-04 -3.716318e-04 -5.242819e-04 -7.419997e-04 -1.027866e-03 -1.402462e-03 -1.850070e-03 -2.398003e-03 -3.043177e-03 -3.851919e-03 -4.854102e-03 -6.133960e-03 -7.685843e-03 -9.486469e-03 -1.135576e-02 -1.306679e-02 -1.431102e-02 -1.496646e-02 -1.520345e-02 -1.591159e-02 -1.845805e-02 -2.448099e-02 -3.446249e-02 -4.843964e-02 -6.823374e-02 -8.574016e-02 -6.551137e-02 -6.381184e-02 -1.418647e-01 -1.292669e-01 -9.138316e-02 -3.918446e-02 2.589173e-02 4.715730e-02 9.030591e-02 9.757789e-02 1.232765e-01 9.501106e-02 4.731754e-02 -6.420656e-02 -1.924393e-01 -2.035267e-01 -2.199346e-01 -2.008426e-01 -1.349648e-01 -7.126158e-02 -2.049848e-02 1.655235e-02 3.933873e-02 4.932323e-02 4.954492e-02 4.380707e-02 3.520109e-02 2.610331e-02 1.785068e-02 1.114801e-02 6.100708e-03 2.591662e-03 3.118400e-04 -1.018652e-03 -1.687847e-03 -1.895890e-03 -1.808874e-03 -1.528886e-03 -1.131309e-03 -6.732120e-04 -2.061672e-04 2.036453e-04 4.972666e-04 6.055019e-04 4.902203e-04 1.244506e-04 -4.723777e-04 -1.258411e-03 -2.156376e-03 -3.077936e-03 -3.926433e-03 -4.616034e-03 -5.073765e-03 -5.257763e-03 -5.148178e-03 -4.770631e-03 -4.170991e-03 -3.435113e-03 -2.645997e-03 -1.895751e-03 -1.247540e-03 -7.529849e-04 -4.266910e-04 -2.706673e-04 -2.517150e-04 -3.330101e-04 -4.605625e-04 -5.842250e-04 -6.717611e-04 -6.805747e-04 -6.155974e-04 -4.830977e-04 
1.728675e-03 -3.293925e-05 -2.154556e-03 -2.267846e-03 2.757327e-03 8.381063e-03 7.464147e-04 -1.410508e-03 -7.494952e-03 -1.718981e-02 -4.801271e-02 -2.671270e-01 -9.121620e-01 -7.677929e-01 -4.466228e-01 -4.462569e-01 -4.462564e-01 -4.462563e-01 -4.462583e-01 -4.471572e-01 -8.671472e-01 -9.221909e-01 -5.605517e-02 7.941639e-02 4.912998e-02 2.600041e-02 1.523764e-02 1.010452e-02 6.998912e-03 5.322358e-03 4.326654e-03 3.918548e-03 3.585252e-03 3.487766e-03 3.192957e-03 3.031127e-03 2.586163e-03 2.265296e-03 1.635296e-03 1.103235e-03 2.129910e-04 -6.545142e-04 -1.915584e-03 -3.152492e-03 -4.631479e-03 -5.868447e-03 -7.028841e-03 -7.819620e-03 -8.709771e-03 -1.013423e-02 -1.318504e-02 -1.865924e-02 -2.665639e-02 -3.539437e-02 -4.170796e-02 -4.135678e-02 -2.965874e-02 -6.982112e-03 1.402291e-02 3.341525e-02 4.959824e-02 5.632037e-02 5.463817e-02 3.911334e-02 1.423060e-02 -2.054576e-02 -6.371877e-02 -1.137803e-01 -1.681569e-01 -2.188370e-01 -2.495025e-01 -2.409680e-01 -1.997360e-01 -1.402687e-01 -7.721174e-02 -2.286810e-02 1.781986e-02 4.357307e-02 5.581710e-02 5.787548e-02 5.317155e-02 4.509663e-02 3.585240e-02 2.718067e-02 1.972168e-02 1.394569e-02 9.625443e-03 6.713667e-03 4.764113e-03 3.689640e-03 3.102285e-03 3.007175e-03 3.099095e-03 3.481493e-03 3.897435e-03 4.508543e-03 5.027389e-03 5.615705e-03 5.936035e-03 6.176523e-03 6.018295e-03 5.720509e-03 5.048893e-03 4.318436e-03 3.398983e-03 2.563169e-03 1.772164e-03 1.134891e-03 7.307709e-04 4.201875e-04 4.636016e-04 3.860529e-04 6.680610e-04 4.177867e-04 4.219957e-04 -6.097114e-04 -1.411930e-03 -3.600004e-03 -5.095127e-03 -7.351958e-03 -6.603710e-03 -6.764389e-03 -4.271124e-03 4.694419e-03 4.223834e-03 2.374517e-03 2.761492e-03 2.553554e-03 
2.013470e-04 -5.988811e-03 -8.583795e-03 8.269417e-03 4.118633e-02 -4.970407e-02 -1.572778e-01 -5.378919e-02 -5.361934e-02 -6.204785e-02 -1.299915e-01 -5.653149e-01 -1.854506e+00 -1.555980e+00 -8.935756e-01 -8.927858e-01 -8.929879e-01 -8.928111e-01 -8.929815e-01 -8.946079e-01 -1.720071e+00 -1.831115e+00 -2.294148e-01 3.816391e-02 2.222409e-03 -3.895487e-02 -4.989009e-02 -5.959774e-02 -5.950951e-02 -6.353132e-02 -6.198416e-02 -6.361336e-02 -6.244858e-02 -6.285508e-02 -6.271308e-02 -6.238565e-02 -6.330328e-02 -6.241109e-02 -6.420218e-02 -6.286918e-02 -6.533616e-02 -6.374936e-02 -6.671430e-02 -6.498282e-02 -6.802361e-02 -6.592924e-02 -6.838099e-02 -6.570298e-02 -6.736363e-02 -6.489068e-02 -6.707739e-02 -6.705819e-02 -7.152581e-02 -7.437665e-02 -7.819006e-02 -7.789556e-02 -7.330479e-02 -6.544866e-02 -5.656861e-02 -4.902036e-02 -4.429429e-02 -4.649477e-02 -5.334809e-02 -6.859545e-02 -8.798203e-02 -1.127012e-01 -1.377864e-01 -1.626688e-01 -1.802070e-01 -1.897283e-01 -1.840507e-01 -1.645391e-01 -1.344341e-01 -1.012752e-01 -6.888672e-02 -4.461337e-02 -2.865236e-02 -2.110637e-02 -2.063270e-02 -2.377329e-02 -3.045028e-02 -3.644186e-02 -4.379606e-02 -4.834290e-02 -5.380125e-02 -5.591657e-02 -5.940394e-02 -5.964915e-02 -6.186719e-02 -6.100410e-02 -6.248116e-02 -6.100104e-02 -6.200421e-02 -6.023211e-02 -6.082530e-02 -5.895320e-02 -5.911512e-02 -5.751158e-02 -5.742089e-02 -5.666282e-02 -5.644749e-02 -5.696177e-02 -5.644437e-02 -5.835959e-02 -5.707075e-02 -6.029612e-02 -5.774787e-02 -6.222033e-02 -5.819280e-02 -6.396979e-02 -5.852182e-02 -6.565695e-02 -5.914761e-02 -6.788029e-02 -6.131351e-02 -7.229365e-02 -6.721785e-02 -8.149028e-02 -7.890056e-02 -9.566551e-02 -8.866862e-02 -1.427323e-01 -1.771958e-01 3.064086e-03 4.946903e-02 2.037477e-02 7.685098e-03 3.618741e-03 
-5.093725e-03 -5.905668e-03 2.217532e-02 8.978804e-02 -1.507417e-01 -1.967322e+00 -2.312049e+00 -9.103289e-01 -1.140522e+00 -9.585047e-01 -1.128809e+00 -1.278632e+00 -1.939184e+00 -1.616539e+00 -1.345830e+00 -1.346017e+00 -1.351015e+00 -1.346697e+00 -1.350766e+00 -1.349243e+00 -1.708859e+00 -1.784829e+00 -1.136640e+00 -1.063704e+00 -1.010911e+00 -1.114619e+00 -1.063457e+00 -1.136735e+00 -1.086925e+00 -1.140170e+00 -1.099454e+00 -1.134365e+00 -1.106681e+00 -1.126685e+00 -1.114373e+00 -1.122031e+00 -1.123528e+00 -1.118681e+00 -1.129763e+00 -1.113175e+00 -1.132281e+00 -1.108894e+00 -1.136468e+00 -1.110827e+00 -1.144128e+00 -1.116691e+00 -1.149526e+00 -1.119194e+00 -1.147223e+00 -1.117059e+00 -1.141048e+00 -1.116786e+00 -1.136698e+00 -1.119639e+00 -1.128968e+00 -1.113088e+00 -1.102215e+00 -1.091042e+00 -1.091064e+00 -1.086348e+00 -1.079626e+00 -1.086180e+00 -1.078535e+00 -1.086188e+00 -1.081762e+00 -1.087950e+00 -1.083337e+00 -1.094690e+00 -1.089621e+00 -1.102369e+00 -1.104362e+00 -1.107155e+00 -1.114920e+00 -1.138612e+00 -1.141643e+00 -1.153491e+00 -1.158477e+00 -1.163327e+00 -1.172915e+00 -1.172118e+00 -1.184179e+00 -1.176477e+00 -1.188033e+00 -1.173702e+00 -1.184482e+00 -1.165875e+00 -1.177167e+00 -1.156496e+00 -1.167216e+00 -1.143908e+00 -1.150761e+00 -1.125747e+00 -1.128788e+00 -1.107029e+00 -1.107924e+00 -1.093944e+00 -1.091449e+00 -1.086385e+00 -1.075904e+00 -1.080162e+00 -1.059552e+00 -1.077866e+00 -1.048493e+00 -1.085185e+00 -1.045873e+00 -1.100257e+00 -1.047358e+00 -1.115489e+00 -1.047726e+00 -1.127845e+00 -1.050968e+00 -1.142918e+00 -1.063374e+00 -1.160876e+00 -1.081964e+00 -1.175241e+00 -1.102060e+00 -1.187143e+00 -1.128657e+00 -1.219645e+00 -1.157333e+00 -1.666103e+00 -2.481534e+00 -8.030708e-01 1.217673e-01 1.173576e-01 2.392936e-02 -4.491220e-04 
-8.945583e-03 1.419674e-02 5.993565e-02 -2.869023e-01 -2.817144e+00 -5.425412e+00 -3.844647e+00 -2.668970e+00 -2.620934e+00 -2.452967e+00 -2.454940e+00 -2.277111e+00 -2.592411e+00 -2.441768e+00 -2.413894e+00 -2.438671e+00 -2.449461e+00 -2.478365e+00 -2.418609e+00 -2.462053e+00 -2.483395e+00 -2.501603e+00 -2.312636e+00 -2.467922e+00 -2.405086e+00 -2.585770e+00 -2.564437e+00 -2.701547e+00 -2.694951e+00 -2.741633e+00 -2.721772e+00 -2.687635e+00 -2.689322e+00 -2.636769e+00 -2.700348e+00 -2.663244e+00 -2.767439e+00 -2.709891e+00 -2.787341e+00 -2.683617e+00 -2.737703e+00 -2.648761e+00 -2.737108e+00 -2.711819e+00 -2.831545e+00 -2.832679e+00 -2.910991e+00 -2.871757e+00 -2.875873e+00 -2.821565e+00 -2.821634e+00 -2.829528e+00 -2.875158e+00 -2.946282e+00 -2.995837e+00 -3.062092e+00 -3.048779e+00 -3.083326e+00 -3.052080e+00 -3.103535e+00 -3.085092e+00 -3.159354e+00 -3.139516e+00 -3.174600e+00 -3.122729e+00 -3.096450e+00 -3.024318e+00 -2.991757e+00 -2.968679e+00 -2.984932e+00 -3.039304e+00 -3.061758e+00 -3.129168e+00 -3.118372e+00 -3.136102e+00 -3.045143e+00 -3.038993e+00 -2.939562e+00 -2.973275e+00 -2.907034e+00 -2.965692e+00 -2.900213e+00 -2.941435e+00 -2.865741e+00 -2.890584e+00 -2.835967e+00 -2.872714e+00 -2.864806e+00 -2.892641e+00 -2.884986e+00 -2.841696e+00 -2.812808e+00 -2.718796e+00 -2.728401e+00 -2.646614e+00 -2.737176e+00 -2.674269e+00 -2.801347e+00 -2.690906e+00 -2.785763e+00 -2.622864e+00 -2.722351e+00 -2.589068e+00 -2.736716e+00 -2.655125e+00 -2.806542e+00 -2.725359e+00 -2.798373e+00 -2.685143e+00 -2.685686e+00 -2.625919e+00 -2.643234e+00 -2.701200e+00 -2.726065e+00 -2.840217e+00 -2.793771e+00 -2.890747e+00 -2.755436e+00 -2.853172e+00 -2.722917e+00 -2.868453e+00 -3.291449e+00 -5.616898e+00 -4.667437e+00 -8.600801e-01 3.340822e-01 1.048213e-01 4.622478e-03 
-1.705780e-03 4.000875e-02 9.790315e-02 -4.720895e-01 -4.040817e+00 -3.694691e+00 -9.871285e-02 -1.666288e+00 -9.979563e-01 -1.322829e+00 -9.688627e-01 -7.539124e-01 -2.511861e-02 -9.688159e-03 -4.103990e-01 -1.237792e-01 -2.249191e-01 -8.506452e-02 -2.739101e-01 -3.017296e-01 -3.943947e-02 -2.583618e-01 -7.560093e-01 -9.895990e-01 -1.094226e+00 -1.138061e+00 -1.265527e+00 -1.282609e+00 -1.416354e+00 -1.338489e+00 -1.425524e+00 -1.268159e+00 -1.353776e+00 -1.207418e+00 -1.348760e+00 -1.260875e+00 -1.428324e+00 -1.343515e+00 -1.442270e+00 -1.318443e+00 -1.357735e+00 -1.277331e+00 -1.346183e+00 -1.373209e+00 -1.473868e+00 -1.547644e+00 -1.582008e+00 -1.599868e+00 -1.528236e+00 -1.521681e+00 -1.453617e+00 -1.530284e+00 -1.546359e+00 -1.705698e+00 -1.757845e+00 -1.906472e+00 -1.912640e+00 -1.999992e+00 -1.948281e+00 -2.041828e+00 -2.028895e+00 -2.132149e+00 -2.125287e+00 -2.171130e+00 -2.111456e+00 -2.067160e+00 -1.977073e+00 -1.903677e+00 -1.881285e+00 -1.867774e+00 -1.930360e+00 -1.938050e+00 -2.001092e+00 -1.898021e+00 -1.899668e+00 -1.713997e+00 -1.689752e+00 -1.522066e+00 -1.559427e+00 -1.463747e+00 -1.536940e+00 -1.459637e+00 -1.505468e+00 -1.426403e+00 -1.445940e+00 -1.408486e+00 -1.443013e+00 -1.483070e+00 -1.503494e+00 -1.551264e+00 -1.468903e+00 -1.488997e+00 -1.335379e+00 -1.408720e+00 -1.277612e+00 -1.458591e+00 -1.363239e+00 -1.579351e+00 -1.428586e+00 -1.571632e+00 -1.364352e+00 -1.479308e+00 -1.341003e+00 -1.483604e+00 -1.452304e+00 -1.553547e+00 -1.559152e+00 -1.499744e+00 -1.495878e+00 -1.289470e+00 -1.396166e+00 -1.182474e+00 -1.483840e+00 -1.265211e+00 -1.658219e+00 -1.339861e+00 -1.701089e+00 -1.271423e+00 -1.615899e+00 -1.183771e+00 -1.653149e+00 -9.004445e-01 -2.275459e+00 -5.186004e+00 -1.628586e+00 2.428598e-01 1.154317e-01 5.751516e-03 
7.935531e-03 2.335738e-02 3.675278e-02 -2.417804e-01 -1.544905e+00 6.811575e-01 2.801010e+00 5.708491e-01 1.099365e+00 6.873953e-01 9.254640e-01 4.418625e-01 -1.021351e-01 6.017293e-01 1.391732e+00 1.316554e+00 1.155446e+00 1.319933e+00 1.173810e+00 1.441100e+00 4.494151e-01 2.176363e-01 5.716657e-01 9.096802e-01 8.160690e-01 9.078074e-01 7.735083e-01 8.646059e-01 7.406285e-01 8.469664e-01 7.531608e-01 8.672515e-01 7.909760e-01 8.814447e-01 8.042103e-01 8.553532e-01 7.868724e-01 8.190072e-01 7.901796e-01 8.199632e-01 8.254620e-01 8.279772e-01 8.346505e-01 7.918707e-01 7.956597e-01 7.322501e-01 7.628973e-01 7.174628e-01 7.844561e-01 7.492510e-01 8.106849e-01 7.508079e-01 7.734237e-01 6.890910e-01 6.819813e-01 6.022154e-01 5.859778e-01 5.348030e-01 5.560378e-01 5.145816e-01 5.128174e-01 4.809632e-01 4.729991e-01 4.614249e-01 4.746879e-01 4.944558e-01 5.180980e-01 5.578339e-01 5.602724e-01 5.844969e-01 5.723555e-01 5.825534e-01 5.790832e-01 6.598366e-01 6.712598e-01 7.619468e-01 7.760626e-01 8.447690e-01 8.350290e-01 8.672996e-01 8.451466e-01 8.630966e-01 8.513426e-01 8.640720e-01 8.627891e-01 8.562436e-01 8.513833e-01 8.135414e-01 8.146828e-01 7.699541e-01 8.067165e-01 7.687797e-01 8.299242e-01 7.739497e-01 8.267875e-01 7.377320e-01 7.760415e-01 6.824724e-01 7.344143e-01 6.774338e-01 7.398700e-01 7.088822e-01 7.353164e-01 7.158231e-01 6.894527e-01 7.081662e-01 6.497441e-01 7.484124e-01 6.723512e-01 8.448270e-01 7.112702e-01 9.056658e-01 6.896336e-01 8.976550e-01 6.402986e-01 8.840696e-01 6.343766e-01 9.080639e-01 6.600633e-01 9.299244e-01 5.672000e-01 1.462537e+00 1.928391e+00 -9.930722e-01 -4.498907e-01 1.267462e-01 6.158894e-02 1.302316e-02 
8.995214e-03 1.150251e-02 1.345853e-02 -2.537677e-02 -1.087544e-01 7.155482e-01 1.195600e+00 5.024487e-01 5.954024e-01 4.871447e-01 5.545871e-01 3.000048e-01 -5.917756e-01 -2.289774e+00 -3.089490e+00 -2.796398e+00 -2.840175e+00 -2.914850e+00 -2.746999e+00 -3.033328e+00 -2.432433e+00 -3.823458e-01 3.438871e-01 5.357171e-01 4.885381e-01 5.269375e-01 4.891000e-01 5.300321e-01 4.980785e-01 5.312415e-01 5.053095e-01 5.300328e-01 5.111786e-01 5.272250e-01 5.158358e-01 5.235104e-01 5.193920e-01 5.193620e-01 5.218957e-01 5.152179e-01 5.234904e-01 5.116936e-01 5.247474e-01 5.098303e-01 5.267425e-01 5.111008e-01 5.311549e-01 5.170793e-01 5.387559e-01 5.267337e-01 5.460712e-01 5.335427e-01 5.439452e-01 5.268025e-01 5.226538e-01 5.014770e-01 4.897798e-01 4.785090e-01 4.767121e-01 4.721806e-01 4.686587e-01 4.691675e-01 4.629938e-01 4.627980e-01 4.572715e-01 4.568572e-01 4.495145e-01 4.530590e-01 4.464098e-01 4.509372e-01 4.532009e-01 4.573462e-01 4.660425e-01 4.918319e-01 5.043719e-01 5.224047e-01 5.315795e-01 5.429978e-01 5.503046e-01 5.549753e-01 5.598038e-01 5.588853e-01 5.620770e-01 5.571552e-01 5.596716e-01 5.517396e-01 5.542133e-01 5.437749e-01 5.465192e-01 5.340821e-01 5.371394e-01 5.234545e-01 5.269267e-01 5.133569e-01 5.172560e-01 5.052585e-01 5.088383e-01 4.998806e-01 5.018236e-01 4.974823e-01 4.959795e-01 4.979985e-01 4.912335e-01 5.015891e-01 4.878609e-01 5.081424e-01 4.859885e-01 5.169308e-01 4.855548e-01 5.268789e-01 4.864598e-01 5.365663e-01 4.881855e-01 5.441311e-01 4.901754e-01 5.480827e-01 4.913191e-01 5.470933e-01 4.865846e-01 5.403586e-01 4.472990e-01 7.362153e-01 1.102504e+00 2.729500e-01 4.341637e-02 3.121626e-02 1.635008e-02 1.012616e-02 
