# vtk DataFile Version 2.0
Comment goes here
ASCII

DATASET STRUCTURED_POINTS
FIELD FieldData 1
TIME 1 1 double
0.79000000
DIMENSIONS    128   16   1

ORIGIN    0.000   0.000   0.000
SPACING   0.0078125 0.015625   1.000

POINT_DATA   2048
SCALARS Omega double
LOOKUP_TABLE default

4.406468e-04 1.103131e-04 -1.568999e-04 -3.057803e-04 -2.864981e-04 -1.738209e-04 -3.064060e-05 -1.147931e-04 3.720001e-05 -6.550338e-05 -2.435288e-05 -2.009736e-04 -1.155054e-04 -6.327547e-04 1.075397e-05 -3.839099e-04 1.285422e-04 -1.631381e-04 -5.577945e-05 2.579189e-05 -1.028919e-03 -7.917095e-04 -3.474534e-04 -2.723339e-04 -2.775666e-04 -1.766055e-04 -2.905953e-04 -1.846583e-04 -3.990841e-04 -2.847060e-04 -5.625760e-04 -5.022471e-04 -9.285662e-04 -1.029985e-03 -1.663563e-03 -1.984636e-03 -2.852393e-03 -3.415808e-03 -4.457842e-03 -5.168150e-03 -6.213053e-03 -6.856981e-03 -7.525067e-03 -7.537746e-03 -6.953261e-03 -5.221705e-03 -2.140113e-03 2.257457e-03 7.850152e-03 1.324806e-02 1.741579e-02 1.720264e-02 1.067024e-02 -5.185663e-03 -2.022048e-02 -5.568216e-03 7.442634e-02 9.411358e-02 5.103266e-02 5.619806e-02 6.373475e-02 5.352815e-02 5.783636e-02 5.381297e-02 3.803052e-02 4.112362e-02 2.533901e-02 5.412868e-03 1.064378e-02 -3.104471e-02 -4.576384e-02 9.897229e-03 -4.207690e-02 -1.117127e-01 -9.428632e-02 -6.815282e-02 -4.797210e-02 -3.242921e-02 -1.863043e-02 -8.138641e-03 -3.679457e-04 4.731057e-03 7.737869e-03 9.418416e-03 9.773603e-03 9.708690e-03 8.777955e-03 7.895099e-03 6.393473e-03 5.202971e-03 3.557463e-03 2.434970e-03 1.011176e-03 2.838815e-04 -6.282640e-04 -8.079213e-04 -1.165522e-03 -8.854726e-04 -8.609837e-04 -3.916986e-04 -3.075701e-04 4.073917e-05 -2.739629e-05 1.056957e-04 -9.332024e-05 -6.928235e-05 -2.645243e-04 -2.592077e-04 -4.133768e-04 -4.355048e-04 -5.636467e-04 -6.400700e-04 -7.468196e-04 -8.108282e-04 -7.718897e-04 -6.927256e-04 -4.655691e-04 -3.026782e-04 -8.521331e-06 1.242015e-04 3.945682e-04 3.804114e-04 7.885065e-04 1.151182e-03 1.232479e-03 1.205593e-03 1.054967e-03 7.774002e-04 
-8.737113e-03 -1.105354e-02 -7.316169e-03 3.170498e-02 -3.701107e-03 -1.000745e+00 -6.880108e-01 -1.607804e-01 -4.997912e-01 -3.091650e-01 -4.112295e-01 -5.398491e-02 3.684858e-01 1.225417e+00 1.695219e+00 1.694342e+00 1.488812e+00 1.688906e+00 1.511799e+00 1.612293e+00 1.369599e+00 2.791778e-01 -1.458065e-01 -3.734225e-01 -3.530319e-01 -3.883207e-01 -3.516151e-01 -3.896261e-01 -3.567329e-01 -3.914594e-01 -3.612260e-01 -3.913253e-01 -3.653813e-01 -3.900305e-01 -3.695063e-01 -3.882703e-01 -3.736665e-01 -3.865044e-01 -3.778258e-01 -3.848418e-01 -3.815867e-01 -3.834025e-01 -3.844393e-01 -3.817953e-01 -3.850641e-01 -3.781514e-01 -3.806223e-01 -3.694589e-01 -3.680991e-01 -3.548978e-01 -3.492889e-01 -3.417393e-01 -3.401358e-01 -3.434387e-01 -2.589254e-01 -9.978311e-02 4.040457e-01 2.677748e-01 8.439575e-02 5.730669e-01 7.443933e-01 6.161053e-01 6.701004e-01 9.977500e-01 7.975620e-01 8.173646e-01 8.617084e-01 6.523867e-01 1.005813e+00 5.627919e-01 -4.855426e-01 8.933857e-01 1.255431e+00 -1.392903e-01 -3.881344e-01 -4.082116e-01 -3.532442e-01 -3.632779e-01 -3.354432e-01 -3.438809e-01 -3.263436e-01 -3.330924e-01 -3.251835e-01 -3.282611e-01 -3.279588e-01 -3.267523e-01 -3.316373e-01 -3.279318e-01 -3.358067e-01 -3.311624e-01 -3.406215e-01 -3.354433e-01 -3.455670e-01 -3.405483e-01 -3.496849e-01 -3.461308e-01 -3.518641e-01 -3.514783e-01 -3.517114e-01 -3.559966e-01 -3.492603e-01 -3.595671e-01 -3.448191e-01 -3.621233e-01 -3.389980e-01 -3.632215e-01 -3.321029e-01 -3.622565e-01 -3.251010e-01 -3.596243e-01 -3.193196e-01 -3.554584e-01 -3.159694e-01 -3.495096e-01 -3.159446e-01 -3.415698e-01 -3.191341e-01 -3.313456e-01 -3.227307e-01 -3.171089e-01 -3.133933e-01 -3.593106e-01 -7.442391e-01 -3.488532e-01 -5.304414e-02 -3.020556e-02 -1.683946e-02 -9.507291e-03 
-1.094009e-02 -1.867369e-02 1.440767e-02 3.543338e-01 9.120743e-01 -2.070497e+00 -1.386445e+00 2.324268e-01 -8.798145e-01 -3.097515e-01 -6.470237e-01 -9.429846e-02 -5.387223e-01 -3.839157e-01 -1.055975e+00 -8.404400e-01 -9.062729e-01 -8.079766e-01 -9.202652e-01 -8.947201e-01 -4.507264e-01 -6.221030e-01 -3.333365e-01 -5.571589e-01 -5.411157e-01 -5.868618e-01 -5.123535e-01 -5.622793e-01 -4.830927e-01 -5.552498e-01 -4.874317e-01 -5.785006e-01 -5.123350e-01 -5.939299e-01 -5.175326e-01 -5.803127e-01 -5.060701e-01 -5.596532e-01 -5.065703e-01 -5.572439e-01 -5.271121e-01 -5.599400e-01 -5.363853e-01 -5.426498e-01 -5.308313e-01 -5.295438e-01 -5.437942e-01 -5.465545e-01 -5.763092e-01 -5.721232e-01 -5.871824e-01 -5.666616e-01 -5.660113e-01 -5.525405e-01 -3.737221e-01 4.476264e-01 1.711338e+00 5.687939e-01 8.882531e-02 4.557717e-01 2.047500e-01 4.488606e-01 1.244155e-01 3.018091e-01 6.278132e-02 3.215615e-01 2.163843e-01 4.698312e-01 2.459945e-01 4.038652e-01 1.016542e-01 9.168029e-01 1.848005e+00 2.203206e-01 -3.868281e-01 -6.173820e-01 -4.734225e-01 -5.226551e-01 -4.249671e-01 -4.930686e-01 -4.469046e-01 -5.060785e-01 -4.794225e-01 -4.836166e-01 -4.548832e-01 -4.056671e-01 -3.971630e-01 -3.402169e-01 -3.846115e-01 -3.498971e-01 -4.386695e-01 -4.014562e-01 -4.881371e-01 -4.212809e-01 -4.855081e-01 -4.071602e-01 -4.594948e-01 -4.045753e-01 -4.511745e-01 -4.327785e-01 -4.510145e-01 -4.576415e-01 -4.238233e-01 -4.615169e-01 -3.823621e-01 -4.704455e-01 -3.581874e-01 -4.979434e-01 -3.512304e-01 -5.180381e-01 -3.281802e-01 -4.956675e-01 -2.861132e-01 -4.529251e-01 -2.723047e-01 -4.267269e-01 -3.081316e-01 -4.137266e-01 -3.688102e-01 -3.751524e-01 -3.878134e-01 -3.859344e-01 -1.601714e+00 1.885086e-01 7.596128e-01 -1.030725e-02 -5.789125e-02 -1.897227e-02 
-5.847959e-03 -3.225751e-02 2.224737e-02 8.192306e-01 2.982717e+00 1.216306e+00 1.611185e-01 1.311179e+00 6.312454e-01 8.967447e-01 6.241792e-01 4.700950e-01 4.075122e-01 1.857334e-01 4.700135e-01 2.543963e-01 3.680586e-01 2.273446e-01 3.916688e-01 4.032674e-01 1.899268e-01 6.012440e-01 4.288752e-01 7.163149e-01 6.699498e-01 8.162703e-01 7.856028e-01 8.969675e-01 8.962658e-01 9.237588e-01 9.076529e-01 8.505845e-01 8.575439e-01 7.921080e-01 8.646079e-01 8.148388e-01 9.198315e-01 8.561960e-01 9.379851e-01 8.427969e-01 8.937763e-01 8.153690e-01 8.774657e-01 8.482249e-01 8.956790e-01 8.651027e-01 8.403683e-01 7.780637e-01 6.899182e-01 6.320709e-01 5.402508e-01 5.240751e-01 4.274138e-01 3.904212e-01 1.326287e-01 -1.869581e-01 -8.569205e-01 -4.908290e-01 -5.198007e-01 -7.041209e-01 -6.111308e-01 -7.458594e-01 -7.301071e-01 -1.068371e+00 -9.400851e-01 -9.479979e-01 -6.574468e-01 -6.390786e-01 -6.899755e-01 -9.291792e-01 -7.953429e-01 -1.195179e+00 -1.298424e+00 -3.753532e-01 1.843154e-01 3.748789e-01 6.303200e-01 6.508404e-01 8.093438e-01 7.304764e-01 7.745096e-01 6.760146e-01 7.021140e-01 7.194617e-01 7.937665e-01 9.305676e-01 9.784964e-01 1.118604e+00 1.030357e+00 1.099467e+00 8.917627e-01 9.673129e-01 7.711520e-01 9.375256e-01 8.014930e-01 1.015304e+00 8.916196e-01 1.061449e+00 9.167717e-01 1.012932e+00 9.026545e-01 9.659481e-01 9.525385e-01 9.702013e-01 1.032277e+00 9.465326e-01 1.054667e+00 8.539719e-01 1.026481e+00 7.704930e-01 1.054785e+00 8.017383e-01 1.159035e+00 8.842837e-01 1.208982e+00 9.109281e-01 1.142569e+00 8.901121e-01 1.012456e+00 9.172880e-01 9.035290e-01 1.001341e+00 2.099925e-01 3.205487e+00 2.659091e+00 1.197190e-01 -9.260090e-02 -2.017318e-02 
2.653672e-03 -1.427974e-02 2.768925e-02 6.278559e-01 2.618723e+00 4.490221e+00 1.981976e+00 1.202020e+00 1.936737e+00 1.499230e+00 1.786741e+00 1.451800e+00 1.803918e+00 1.601133e+00 1.742290e+00 1.620170e+00 1.738660e+00 1.668041e+00 1.692635e+00 1.701521e+00 1.696468e+00 1.663160e+00 1.555127e+00 1.767317e+00 1.588016e+00 1.816447e+00 1.688618e+00 1.884265e+00 1.780276e+00 1.905817e+00 1.799921e+00 1.852631e+00 1.776009e+00 1.806005e+00 1.790864e+00 1.813719e+00 1.838082e+00 1.833299e+00 1.858318e+00 1.814451e+00 1.833430e+00 1.785986e+00 1.824722e+00 1.799104e+00 1.834994e+00 1.799025e+00 1.786050e+00 1.721106e+00 1.656048e+00 1.588908e+00 1.498877e+00 1.453196e+00 1.315085e+00 1.232112e+00 8.816421e-01 4.290895e-01 -3.821897e-01 2.184187e-02 8.730967e-02 1.557955e-02 4.571597e-02 -1.005531e-01 2.704472e-01 7.969386e-02 3.464072e-01 -1.273303e-01 1.685684e-01 -2.064138e-01 2.384300e-01 1.072546e-01 1.519680e-01 2.395760e-01 -1.244548e-01 5.554505e-01 8.757848e-01 1.211887e+00 1.352228e+00 1.486201e+00 1.563030e+00 1.578771e+00 1.577970e+00 1.548833e+00 1.546586e+00 1.572755e+00 1.620430e+00 1.711698e+00 1.755045e+00 1.840670e+00 1.797436e+00 1.832884e+00 1.710620e+00 1.751745e+00 1.638229e+00 1.745377e+00 1.669190e+00 1.816982e+00 1.737763e+00 1.867742e+00 1.755877e+00 1.850807e+00 1.740189e+00 1.830427e+00 1.761814e+00 1.839737e+00 1.798796e+00 1.823059e+00 1.793619e+00 1.751623e+00 1.753789e+00 1.680177e+00 1.757325e+00 1.683355e+00 1.822924e+00 1.719185e+00 1.865543e+00 1.716129e+00 1.845156e+00 1.685107e+00 1.800684e+00 1.707850e+00 1.801392e+00 1.986762e+00 2.794323e+00 3.630400e+00 1.782562e+00 -7.744265e-02 -9.719769e-02 -1.491829e-02 
3.432466e-03 -1.115990e-04 -2.382913e-02 7.579957e-03 5.360728e-01 2.468583e+00 1.262067e+00 2.524996e-01 9.572879e-01 6.266200e-01 9.605361e-01 9.652022e-01 1.044488e+00 9.488795e-01 8.653676e-01 8.593717e-01 8.670741e-01 8.620122e-01 8.638013e-01 8.671437e-01 9.872102e-01 9.652974e-01 8.953055e-01 8.351199e-01 7.549540e-01 8.520628e-01 7.947380e-01 8.715314e-01 8.121118e-01 8.754049e-01 8.204473e-01 8.710635e-01 8.251910e-01 8.648422e-01 8.309460e-01 8.600711e-01 8.372819e-01 8.552187e-01 8.413132e-01 8.481078e-01 8.415906e-01 8.399553e-01 8.398100e-01 8.324240e-01 8.348368e-01 8.219556e-01 8.218331e-01 8.047427e-01 7.980963e-01 7.810406e-01 7.634724e-01 7.469680e-01 6.947120e-01 6.862340e-01 9.274826e-01 2.505289e+00 4.840476e+00 3.132614e+00 2.364228e+00 2.297922e+00 1.945927e+00 2.193050e+00 2.017773e+00 2.460400e+00 2.128224e+00 2.383169e+00 1.731412e+00 2.104508e+00 1.714263e+00 2.323141e+00 2.179524e+00 2.984990e+00 4.694598e+00 2.082574e+00 7.552901e-01 6.611092e-01 6.691099e-01 7.525347e-01 7.401244e-01 7.763167e-01 7.574295e-01 7.732313e-01 7.599417e-01 7.650299e-01 7.637636e-01 7.635394e-01 7.703791e-01 7.668817e-01 7.742134e-01 7.688210e-01 7.742280e-01 7.704522e-01 7.761346e-01 7.778717e-01 7.824302e-01 7.910147e-01 7.887263e-01 8.039734e-01 7.899939e-01 8.126013e-01 7.862648e-01 8.184776e-01 7.805081e-01 8.223124e-01 7.726792e-01 8.211557e-01 7.615366e-01 8.134159e-01 7.492197e-01 8.024845e-01 7.415994e-01 7.927828e-01 7.424551e-01 7.839158e-01 7.515888e-01 7.757661e-01 7.714075e-01 7.757004e-01 8.114697e-01 8.035388e-01 8.919989e-01 9.702048e-01 1.702752e+00 1.018104e+00 9.121651e-02 -8.850125e-02 -3.098345e-02 -2.514627e-03 
2.346390e-04 5.439687e-03 4.500238e-03 -8.770724e-03 1.300792e-03 1.610333e-01 1.536607e-01 4.938879e-02 8.705015e-02 9.095343e-02 2.313992e-01 6.707959e-01 1.031571e+00 7.817555e-01 5.551014e-01 5.545514e-01 5.548657e-01 5.546544e-01 5.547340e-01 5.556391e-01 9.626956e-01 1.055161e+00 3.329390e-01 3.202992e-02 2.720617e-02 6.244993e-02 7.204432e-02 8.310842e-02 8.155369e-02 8.687719e-02 8.368215e-02 8.674639e-02 8.378015e-02 8.550276e-02 8.327876e-02 8.387978e-02 8.242017e-02 8.200088e-02 8.117340e-02 7.972608e-02 7.918007e-02 7.660147e-02 7.589359e-02 7.227801e-02 7.141199e-02 6.769288e-02 6.775518e-02 6.605760e-02 6.922296e-02 7.268794e-02 8.241989e-02 9.486960e-02 1.141220e-01 1.709776e-01 5.272804e-01 1.804457e+00 3.538848e+00 1.897714e+00 1.410529e+00 1.777081e+00 1.652929e+00 1.841480e+00 1.430282e+00 1.835735e+00 1.399046e+00 1.887538e+00 1.568435e+00 1.865590e+00 1.656800e+00 1.817700e+00 1.296835e+00 2.849007e+00 4.261438e+00 1.142791e+00 1.105837e-01 6.487779e-02 9.016441e-02 1.082845e-01 1.096865e-01 1.138095e-01 1.110958e-01 1.085363e-01 1.029933e-01 9.765292e-02 9.308633e-02 8.834650e-02 8.613902e-02 8.284561e-02 8.250365e-02 8.028432e-02 8.094003e-02 7.928178e-02 8.034153e-02 7.909810e-02 8.020046e-02 7.951571e-02 8.033904e-02 8.036850e-02 8.052623e-02 8.127062e-02 8.036905e-02 8.181122e-02 7.956710e-02 8.178041e-02 7.816720e-02 8.129389e-02 7.651445e-02 8.070114e-02 7.519980e-02 8.052248e-02 7.482924e-02 8.119726e-02 7.606183e-02 8.335118e-02 7.991458e-02 8.819173e-02 8.805036e-02 9.781631e-02 1.021305e-01 1.125471e-01 1.213974e-01 1.564356e-01 2.002829e-01 5.187482e-02 -3.451011e-02 -2.403120e-02 -1.008314e-02 -3.907506e-03 
-1.887893e-03 1.652760e-04 1.930042e-03 1.092166e-03 -2.709181e-03 -1.768522e-03 5.325194e-03 4.999956e-03 1.161852e-02 2.684841e-02 9.151527e-02 3.260081e-01 5.021730e-01 3.882222e-01 2.768595e-01 2.767124e-01 2.767122e-01 2.767121e-01 2.767130e-01 2.771393e-01 4.911936e-01 5.345523e-01 1.115968e-01 -4.962736e-02 -4.149871e-02 -2.186614e-02 -1.149787e-02 -6.412342e-03 -3.692751e-03 -2.145753e-03 -1.450811e-03 -1.183177e-03 -1.213637e-03 -1.457277e-03 -1.764918e-03 -2.276134e-03 -2.736041e-03 -3.447341e-03 -4.074997e-03 -5.072151e-03 -6.056695e-03 -7.557488e-03 -9.087147e-03 -1.105790e-02 -1.274028e-02 -1.425628e-02 -1.468590e-02 -1.411055e-02 -1.203032e-02 -9.386928e-03 -6.723091e-03 -6.584407e-03 -1.274629e-02 -3.394966e-02 -3.395915e-02 1.707466e-01 5.250148e-01 -1.673848e-01 -2.397728e-01 6.952355e-02 -2.134007e-01 1.161523e-01 -1.212044e-01 -1.187392e-01 -1.035959e-01 -7.419527e-02 1.590940e-01 1.168215e-01 2.504992e-01 4.622306e-01 5.803065e-01 1.163890e+00 1.136030e+00 1.862137e-01 -7.740123e-02 -5.349950e-02 -1.797308e-02 7.914712e-03 2.512873e-02 3.517316e-02 3.758616e-02 3.469983e-02 2.869023e-02 2.161306e-02 1.493236e-02 9.220192e-03 4.931205e-03 1.755746e-03 -2.385409e-04 -1.605356e-03 -2.253354e-03 -2.702771e-03 -2.731337e-03 -2.780028e-03 -2.539593e-03 -2.402619e-03 -2.056146e-03 -1.875070e-03 -1.602189e-03 -1.569453e-03 -1.583581e-03 -1.863288e-03 -2.279778e-03 -2.869551e-03 -3.598805e-03 -4.287974e-03 -5.060396e-03 -5.508285e-03 -5.991265e-03 -5.880860e-03 -5.835935e-03 -4.992848e-03 -4.320017e-03 -2.696529e-03 -1.375270e-03 1.025249e-03 2.983724e-03 6.033833e-03 8.148021e-03 1.048575e-02 1.040571e-02 1.155489e-02 9.765292e-03 -2.693086e-03 -5.972900e-03 -4.204038e-03 -3.754229e-03 -3.070777e-03 
-2.980182e-04 -1.243977e-04 2.997369e-05 1.497902e-04 2.226729e-04 2.497031e-04 2.396849e-04 2.038165e-04 1.533575e-04 9.401921e-05 2.786057e-05 -2.303314e-05 1.399907e-03 8.290149e-04 8.786527e-07 -2.510082e-09 -5.715480e-10 -2.368400e-09 5.467412e-09 3.722772e-06 2.028243e-03 -1.171798e-03 2.086427e-04 8.792594e-04 5.705757e-04 3.213593e-04 1.430776e-04 2.265045e-05 -8.069853e-05 -1.704300e-04 -2.658612e-04 -3.851701e-04 -5.434603e-04 -7.681506e-04 -1.059775e-03 -1.441272e-03 -1.895595e-03 -2.455299e-03 -3.114844e-03 -3.946180e-03 -4.969043e-03 -6.269474e-03 -7.819482e-03 -9.598371e-03 -1.140251e-02 -1.303121e-02 -1.418117e-02 -1.480534e-02 -1.510573e-02 -1.601673e-02 -1.876901e-02 -2.485877e-02 -3.485985e-02 -4.923891e-02 -6.664116e-02 -6.989178e-02 -4.213751e-02 -6.427872e-02 -1.190425e-01 -1.027082e-01 -7.869085e-02 -2.679583e-02 1.509904e-02 3.793856e-02 6.671484e-02 5.946811e-02 7.096813e-02 2.911305e-02 -9.305498e-03 -7.319671e-02 -1.602191e-01 -1.490959e-01 -1.614071e-01 -1.746485e-01 -1.255030e-01 -6.634583e-02 -1.781094e-02 1.718813e-02 3.853367e-02 4.788633e-02 4.798848e-02 4.245434e-02 3.415286e-02 2.538588e-02 1.740704e-02 1.091919e-02 6.016475e-03 2.598585e-03 3.714144e-04 -9.374843e-04 -1.596588e-03 -1.810416e-03 -1.727005e-03 -1.459645e-03 -1.069519e-03 -6.274845e-04 -1.737993e-04 2.144433e-04 4.888344e-04 5.748114e-04 4.434016e-04 6.603216e-05 -5.318190e-04 -1.310093e-03 -2.189320e-03 -3.085659e-03 -3.902533e-03 -4.560371e-03 -4.987280e-03 -5.147084e-03 -5.021872e-03 -4.639269e-03 -4.046430e-03 -3.325355e-03 -2.558602e-03 -1.831609e-03 -1.207165e-03 -7.313941e-04 -4.197370e-04 -2.708484e-04 -2.538350e-04 -3.311758e-04 -4.527834e-04 -5.704499e-04 -6.509433e-04 -6.563563e-04 -5.917375e-04 -4.614799e-04 
1.405147e-03 -3.213318e-04 -1.793919e-03 -7.334854e-04 3.187891e-03 2.270100e-03 -4.863263e-03 -4.597147e-03 -1.132807e-02 -2.663557e-02 -9.137125e-02 -3.257730e-01 -5.000962e-01 -3.889905e-01 -2.768605e-01 -2.767124e-01 -2.767122e-01 -2.767121e-01 -2.767130e-01 -2.771373e-01 -4.904328e-01 -5.399389e-01 -1.115214e-01 5.124303e-02 4.256842e-02 2.247590e-02 1.179255e-02 6.494519e-03 3.604120e-03 1.892492e-03 1.042119e-03 5.533419e-04 3.170976e-04 1.339218e-04 -8.785193e-05 -3.232584e-04 -7.142184e-04 -1.094253e-03 -1.693098e-03 -2.274041e-03 -3.156684e-03 -4.057247e-03 -5.314779e-03 -6.544133e-03 -7.995632e-03 -9.177014e-03 -1.031047e-02 -1.107678e-02 -1.206017e-02 -1.361530e-02 -1.688734e-02 -2.240151e-02 -3.019695e-02 -3.835790e-02 -4.403248e-02 -4.251897e-02 -2.998972e-02 -1.061042e-02 6.589084e-03 2.470417e-02 3.966254e-02 4.703127e-02 4.561103e-02 3.131961e-02 8.078270e-03 -2.532721e-02 -6.593900e-02 -1.143682e-01 -1.657666e-01 -2.128283e-01 -2.398828e-01 -2.292547e-01 -1.900449e-01 -1.352451e-01 -7.590055e-02 -2.437259e-02 1.433957e-02 3.887015e-02 5.065105e-02 5.270250e-02 4.826604e-02 4.054715e-02 3.165982e-02 2.330062e-02 1.607649e-02 1.047833e-02 6.268549e-03 3.434912e-03 1.525784e-03 4.773821e-04 -1.000955e-04 -1.953747e-04 -1.013353e-04 2.665433e-04 6.867204e-04 1.264912e-03 1.788832e-03 2.320420e-03 2.654880e-03 2.823704e-03 2.707322e-03 2.336811e-03 1.748037e-03 9.478250e-04 1.473546e-04 -7.641200e-04 -1.417997e-03 -2.144252e-03 -2.412447e-03 -2.825312e-03 -2.669765e-03 -2.861058e-03 -2.515027e-03 -2.877625e-03 -2.870061e-03 -3.982236e-03 -4.849244e-03 -7.028734e-03 -8.589618e-03 -1.062766e-02 -1.052783e-02 -1.179215e-02 -1.029032e-02 1.894500e-03 4.964320e-03 3.120539e-03 2.749449e-03 2.287158e-03 
-4.525826e-04 -5.386225e-03 -4.208867e-03 9.213400e-03 -8.642969e-04 -1.605119e-01 -1.534497e-01 -4.880471e-02 -8.686713e-02 -9.050284e-02 -2.312253e-01 -6.703075e-01 -1.028139e+00 -7.802367e-01 -5.551936e-01 -5.546404e-01 -5.549418e-01 -5.547334e-01 -5.547993e-01 -5.556911e-01 -9.580309e-01 -1.056511e+00 -3.324871e-01 -3.084434e-02 -2.608441e-02 -6.208994e-02 -7.145628e-02 -8.316092e-02 -8.127604e-02 -8.728251e-02 -8.377828e-02 -8.760975e-02 -8.442034e-02 -8.711878e-02 -8.496311e-02 -8.688047e-02 -8.589176e-02 -8.708580e-02 -8.716437e-02 -8.767145e-02 -8.868918e-02 -8.864226e-02 -9.046416e-02 -8.992139e-02 -9.213666e-02 -9.086982e-02 -9.285500e-02 -9.071939e-02 -9.234341e-02 -9.023453e-02 -9.281293e-02 -9.291175e-02 -9.788516e-02 -1.001980e-01 -1.042513e-01 -1.027753e-01 -9.873731e-02 -9.025424e-02 -8.248226e-02 -7.431275e-02 -7.063214e-02 -7.206157e-02 -7.955302e-02 -9.362305e-02 -1.129594e-01 -1.363924e-01 -1.607863e-01 -1.842730e-01 -2.013452e-01 -2.099388e-01 -2.049752e-01 -1.853040e-01 -1.561433e-01 -1.243290e-01 -9.300129e-02 -6.946407e-02 -5.344899e-02 -4.597343e-02 -4.474218e-02 -4.770620e-02 -5.350616e-02 -5.936050e-02 -6.600570e-02 -7.053222e-02 -7.548212e-02 -7.769350e-02 -8.077367e-02 -8.120492e-02 -8.299913e-02 -8.240900e-02 -8.336592e-02 -8.228757e-02 -8.260279e-02 -8.142770e-02 -8.110441e-02 -8.010689e-02 -7.909893e-02 -7.869416e-02 -7.716924e-02 -7.790318e-02 -7.601175e-02 -7.822466e-02 -7.589470e-02 -7.958127e-02 -7.652981e-02 -8.141265e-02 -7.739538e-02 -8.316907e-02 -7.822710e-02 -8.464074e-02 -7.913475e-02 -8.593438e-02 -8.057785e-02 -8.768968e-02 -8.380031e-02 -9.158081e-02 -9.100975e-02 -1.001793e-01 -1.042311e-01 -1.140661e-01 -1.228220e-01 -1.568801e-01 -2.004962e-01 -5.193112e-02 3.422791e-02 2.353225e-02 9.515183e-03 3.458575e-03 
-3.475490e-03 2.658354e-04 2.411379e-02 -7.346359e-03 -5.360059e-01 -2.465536e+00 -1.263556e+00 -2.490097e-01 -9.563062e-01 -6.223075e-01 -9.582890e-01 -9.590683e-01 -1.040876e+00 -9.550105e-01 -8.674679e-01 -8.614063e-01 -8.688149e-01 -8.637787e-01 -8.651337e-01 -8.682339e-01 -9.886261e-01 -9.680855e-01 -8.862615e-01 -8.304473e-01 -7.453907e-01 -8.501792e-01 -7.879027e-01 -8.724916e-01 -8.077286e-01 -8.779508e-01 -8.177604e-01 -8.750404e-01 -8.248791e-01 -8.722252e-01 -8.367870e-01 -8.745132e-01 -8.523645e-01 -8.767492e-01 -8.638919e-01 -8.733605e-01 -8.688693e-01 -8.672529e-01 -8.738223e-01 -8.668130e-01 -8.840080e-01 -8.718504e-01 -8.933066e-01 -8.738531e-01 -8.943418e-01 -8.697843e-01 -8.895717e-01 -8.670390e-01 -8.888059e-01 -8.729131e-01 -8.927581e-01 -8.790354e-01 -8.889368e-01 -8.781186e-01 -8.888493e-01 -8.736899e-01 -8.748663e-01 -8.674863e-01 -8.659369e-01 -8.606682e-01 -8.603223e-01 -8.606035e-01 -8.588066e-01 -8.631580e-01 -8.603024e-01 -8.620367e-01 -8.673509e-01 -8.536173e-01 -8.506194e-01 -8.592704e-01 -8.571973e-01 -8.617204e-01 -8.633263e-01 -8.680357e-01 -8.736724e-01 -8.754773e-01 -8.814522e-01 -8.762688e-01 -8.798315e-01 -8.678589e-01 -8.709318e-01 -8.574958e-01 -8.622966e-01 -8.496635e-01 -8.528800e-01 -8.392359e-01 -8.360544e-01 -8.212379e-01 -8.104944e-01 -7.999119e-01 -7.846225e-01 -7.846685e-01 -7.645197e-01 -7.758459e-01 -7.467642e-01 -7.685477e-01 -7.290267e-01 -7.632402e-01 -7.165705e-01 -7.666393e-01 -7.164225e-01 -7.797134e-01 -7.246432e-01 -7.932734e-01 -7.341331e-01 -8.027079e-01 -7.464403e-01 -8.111279e-01 -7.670791e-01 -8.212580e-01 -7.960907e-01 -8.290846e-01 -8.284219e-01 -8.348354e-01 -8.695792e-01 -8.570242e-01 -9.398733e-01 -1.001439e+00 -1.713948e+00 -1.018520e+00 -9.128981e-02 8.842011e-02 3.074113e-02 2.295726e-03 
-2.839830e-03 1.422740e-02 -2.762845e-02 -6.277779e-01 -2.618796e+00 -4.482241e+00 -1.977323e+00 -1.191796e+00 -1.939355e+00 -1.503756e+00 -1.796186e+00 -1.451273e+00 -1.790391e+00 -1.589189e+00 -1.738405e+00 -1.617080e+00 -1.733785e+00 -1.664000e+00 -1.681862e+00 -1.691432e+00 -1.678760e+00 -1.653817e+00 -1.532753e+00 -1.758137e+00 -1.578928e+00 -1.835060e+00 -1.713376e+00 -1.923993e+00 -1.806971e+00 -1.923637e+00 -1.793454e+00 -1.828597e+00 -1.737906e+00 -1.772602e+00 -1.785376e+00 -1.843848e+00 -1.911812e+00 -1.921857e+00 -1.958205e+00 -1.881735e+00 -1.880548e+00 -1.781740e+00 -1.826889e+00 -1.802010e+00 -1.923614e+00 -1.943547e+00 -2.047514e+00 -2.020855e+00 -2.039793e+00 -1.959129e+00 -1.935385e+00 -1.887237e+00 -1.912694e+00 -1.956335e+00 -2.029743e+00 -2.111312e+00 -2.158316e+00 -2.215326e+00 -2.204402e+00 -2.215197e+00 -2.150635e+00 -2.155334e+00 -2.090224e+00 -2.099364e+00 -2.053014e+00 -2.069537e+00 -2.058419e+00 -2.088644e+00 -2.116727e+00 -2.131433e+00 -2.180731e+00 -2.130367e+00 -2.146210e+00 -2.053259e+00 -2.056553e+00 -1.955713e+00 -2.005604e+00 -1.959059e+00 -2.051829e+00 -2.027773e+00 -2.092647e+00 -2.030048e+00 -2.013765e+00 -1.918354e+00 -1.874551e+00 -1.844681e+00 -1.845982e+00 -1.903147e+00 -1.903803e+00 -1.970420e+00 -1.891899e+00 -1.915836e+00 -1.760977e+00 -1.796917e+00 -1.664292e+00 -1.784247e+00 -1.699201e+00 -1.847281e+00 -1.739924e+00 -1.836860e+00 -1.686969e+00 -1.739857e+00 -1.623106e+00 -1.705760e+00 -1.689865e+00 -1.782700e+00 -1.801263e+00 -1.806009e+00 -1.806908e+00 -1.721388e+00 -1.751987e+00 -1.650139e+00 -1.774597e+00 -1.699458e+00 -1.885575e+00 -1.781222e+00 -1.936586e+00 -1.790467e+00 -1.905185e+00 -1.798821e+00 -1.872743e+00 -2.027086e+00 -2.805390e+00 -3.627209e+00 -1.785904e+00 7.677453e-02 9.661939e-02 1.450488e-02 
5.517723e-03 3.191104e-02 -2.254609e-02 -8.190551e-01 -2.982281e+00 -1.211605e+00 -1.495893e-01 -1.303796e+00 -6.382180e-01 -9.149210e-01 -6.445529e-01 -4.836218e-01 -4.131906e-01 -1.654347e-01 -4.542178e-01 -2.475304e-01 -3.599964e-01 -2.248519e-01 -3.734433e-01 -3.934438e-01 -1.711146e-01 -5.933402e-01 -4.192494e-01 -7.140392e-01 -6.805268e-01 -8.506151e-01 -8.423525e-01 -9.569451e-01 -9.495789e-01 -9.452549e-01 -9.046940e-01 -8.027373e-01 -7.987835e-01 -7.206114e-01 -8.413194e-01 -8.254865e-01 -9.984042e-01 -9.424396e-01 -1.041284e+00 -8.901260e-01 -9.073884e-01 -7.520970e-01 -8.119114e-01 -7.884120e-01 -9.382870e-01 -9.995793e-01 -1.108206e+00 -1.116114e+00 -1.091445e+00 -1.028486e+00 -9.376481e-01 -9.225138e-01 -9.050063e-01 -1.019112e+00 -1.082250e+00 -1.249628e+00 -1.295464e+00 -1.417879e+00 -1.369532e+00 -1.428448e+00 -1.322094e+00 -1.355649e+00 -1.261290e+00 -1.302718e+00 -1.240971e+00 -1.280755e+00 -1.279013e+00 -1.323353e+00 -1.376125e+00 -1.389010e+00 -1.436664e+00 -1.371593e+00 -1.384797e+00 -1.190149e+00 -1.183379e+00 -9.969964e-01 -1.069156e+00 -9.800594e-01 -1.119756e+00 -1.079800e+00 -1.178037e+00 -1.096532e+00 -1.071986e+00 -9.551646e-01 -8.853446e-01 -8.738351e-01 -8.670245e-01 -9.899252e-01 -9.839840e-01 -1.125759e+00 -1.010586e+00 -1.090182e+00 -8.732080e-01 -9.621299e-01 -7.899646e-01 -9.836650e-01 -8.968584e-01 -1.105697e+00 -1.006560e+00 -1.108474e+00 -9.703308e-01 -9.706118e-01 -9.041771e-01 -9.085030e-01 -1.010812e+00 -9.942098e-01 -1.165050e+00 -9.936762e-01 -1.149939e+00 -8.345633e-01 -1.032749e+00 -6.996993e-01 -1.015868e+00 -7.513096e-01 -1.118632e+00 -8.668968e-01 -1.129796e+00 -8.928163e-01 -1.016798e+00 -9.119855e-01 -8.828492e-01 -9.762478e-01 -1.968443e-01 -3.198431e+00 -2.663232e+00 -1.205859e-01 9.187037e-02 1.972049e-02 
1.094929e-02 1.835675e-02 -1.499681e-02 -3.546620e-01 -9.119624e-01 2.068554e+00 1.393074e+00 -2.334307e-01 8.759894e-01 2.979372e-01 6.372553e-01 8.507683e-02 5.405918e-01 3.768721e-01 1.054611e+00 8.367482e-01 9.005973e-01 8.046326e-01 9.135169e-01 8.936715e-01 4.436357e-01 6.148452e-01 3.256630e-01 5.533535e-01 5.261810e-01 5.718078e-01 4.828032e-01 5.409187e-01 4.577188e-01 5.504911e-01 4.854146e-01 6.019658e-01 5.343314e-01 6.305604e-01 5.330937e-01 5.936411e-01 4.927814e-01 5.511191e-01 4.905328e-01 5.650029e-01 5.467885e-01 6.070045e-01 5.875786e-01 5.890991e-01 5.505453e-01 5.122897e-01 4.970985e-01 4.696632e-01 5.063644e-01 4.992593e-01 5.612046e-01 5.366594e-01 5.715481e-01 5.031622e-01 5.028408e-01 4.156534e-01 4.091822e-01 3.423444e-01 3.755742e-01 3.312100e-01 3.751752e-01 3.491852e-01 3.830746e-01 3.545408e-01 3.745442e-01 3.536667e-01 3.480290e-01 3.342032e-01 3.109498e-01 3.126997e-01 3.097592e-01 3.306540e-01 3.313978e-01 4.334138e-01 4.415467e-01 5.297509e-01 5.030340e-01 5.473393e-01 4.937783e-01 5.121601e-01 4.732011e-01 4.981871e-01 5.043036e-01 5.347640e-01 5.599184e-01 5.486365e-01 5.546267e-01 4.924311e-01 4.984837e-01 4.260288e-01 4.678812e-01 4.153873e-01 4.888747e-01 4.359845e-01 4.893154e-01 4.083213e-01 4.254668e-01 3.515317e-01 3.633132e-01 3.420936e-01 3.555209e-01 3.883959e-01 3.643787e-01 4.168195e-01 3.220389e-01 4.016864e-01 2.715303e-01 4.204264e-01 2.865159e-01 4.945301e-01 3.433986e-01 5.577887e-01 3.719174e-01 5.508074e-01 3.633653e-01 5.115434e-01 3.859432e-01 4.886079e-01 4.417265e-01 4.462344e-01 4.574455e-01 4.361826e-01 1.621000e+00 -1.829334e-01 -7.594734e-01 1.074872e-02 5.822847e-02 1.922503e-02 
9.337019e-03 1.107720e-02 6.868905e-03 -3.231368e-02 3.297854e-03 9.991801e-01 6.890700e-01 1.592315e-01 4.993347e-01 3.068972e-01 4.100969e-01 5.184427e-02 -3.675303e-01 -1.234134e+00 -1.693118e+00 -1.696641e+00 -1.490895e+00 -1.686541e+00 -1.517767e+00 -1.608842e+00 -1.375964e+00 -2.860942e-01 1.405636e-01 3.712941e-01 3.483239e-01 3.869501e-01 3.473245e-01 3.891571e-01 3.534072e-01 3.922279e-01 3.593686e-01 3.937009e-01 3.650313e-01 3.937188e-01 3.703841e-01 3.925660e-01 3.753024e-01 3.904785e-01 3.795764e-01 3.876855e-01 3.829608e-01 3.844888e-01 3.855937e-01 3.817287e-01 3.883149e-01 3.809919e-01 3.928623e-01 3.843027e-01 4.003061e-01 3.911734e-01 4.075972e-01 3.957923e-01 4.064755e-01 3.885032e-01 3.888947e-01 3.680225e-01 3.684959e-01 3.558746e-01 3.584027e-01 3.472772e-01 3.496204e-01 3.425685e-01 3.416689e-01 3.338942e-01 3.307503e-01 3.257367e-01 3.190244e-01 3.168199e-01 3.109984e-01 3.101159e-01 3.141622e-01 3.147206e-01 3.175438e-01 3.379328e-01 3.478905e-01 3.660528e-01 3.719463e-01 3.845844e-01 3.878822e-01 3.946527e-01 3.958576e-01 3.971115e-01 3.977172e-01 3.945500e-01 3.954994e-01 3.888896e-01 3.902757e-01 3.809537e-01 3.824044e-01 3.711958e-01 3.722557e-01 3.603999e-01 3.606214e-01 3.500282e-01 3.488454e-01 3.415795e-01 3.379465e-01 3.358699e-01 3.285558e-01 3.332767e-01 3.210092e-01 3.337338e-01 3.155994e-01 3.370721e-01 3.127695e-01 3.428992e-01 3.128121e-01 3.504053e-01 3.157629e-01 3.583626e-01 3.214625e-01 3.651063e-01 3.292122e-01 3.686509e-01 3.381340e-01 3.675558e-01 3.468976e-01 3.602302e-01 3.515024e-01 3.439985e-01 3.380466e-01 3.757211e-01 7.508831e-01 3.515998e-01 5.521389e-02 3.203138e-02 1.842428e-02 1.066557e-02 
