# vtk DataFile Version 2.0
Comment goes here
ASCII

DATASET STRUCTURED_POINTS
FIELD FieldData 1
TIME 1 1 double
0.97000000
DIMENSIONS    128   16   1

ORIGIN    0.000   0.000   0.000
SPACING   0.0078125 0.015625   1.000

POINT_DATA   2048
SCALARS Omega double
LOOKUP_TABLE default

2.485293e-04 9.470428e-05 -4.875891e-05 -1.552046e-04 -1.655430e-04 -4.604376e-06 -1.285978e-06 -5.072007e-05 6.478218e-05 -1.092410e-05 -1.467172e-07 -1.606906e-04 -2.134101e-04 -3.188706e-04 1.250724e-04 -7.285861e-05 4.660665e-04 -9.322360e-05 4.266739e-04 5.657976e-05 -6.811841e-04 -2.107693e-04 -5.278006e-05 -2.082445e-04 -1.236309e-04 -1.912398e-04 -1.696786e-04 -2.450540e-04 -2.988543e-04 -3.834495e-04 -5.246308e-04 -6.525840e-04 -9.280254e-04 -1.141130e-03 -1.595402e-03 -1.923792e-03 -2.581737e-03 -3.041267e-03 -3.896748e-03 -4.455696e-03 -5.419870e-03 -5.936119e-03 -6.783202e-03 -6.960522e-03 -7.352896e-03 -6.867083e-03 -6.625716e-03 -5.606955e-03 -5.384795e-03 -5.084531e-03 -6.662902e-03 -8.873379e-03 -1.399449e-02 -2.231216e-02 -3.990918e-02 -5.112470e-02 -1.576530e-02 5.286299e-03 -3.407986e-02 -4.924051e-02 -4.951781e-02 -6.031191e-02 -6.103850e-02 -7.764012e-02 -7.806232e-02 -7.685995e-02 -9.284962e-02 -8.269566e-02 -7.692302e-02 -1.025461e-01 -6.231793e-02 -5.670248e-02 -1.112233e-01 -9.014894e-02 -4.400066e-02 -2.359260e-02 -1.577909e-02 -8.496655e-03 -2.825303e-03 2.553995e-03 5.578329e-03 8.132193e-03 8.726269e-03 9.280693e-03 8.466519e-03 8.024961e-03 6.669724e-03 5.901626e-03 4.502920e-03 3.744353e-03 2.540006e-03 1.943349e-03 1.027156e-03 6.605780e-04 8.260211e-05 -2.986906e-05 -2.932640e-04 -2.220444e-04 -2.772185e-04 -1.493133e-04 -1.244842e-04 -4.800094e-05 -3.835478e-05 -7.956421e-05 -1.316565e-04 -2.649937e-04 -3.250409e-04 -4.782864e-04 -5.116328e-04 -6.523063e-04 -6.359492e-04 -7.366239e-04 -6.585972e-04 -6.959728e-04 -5.462323e-04 -5.253533e-04 -3.303488e-04 -2.852996e-04 -7.762694e-05 -4.232278e-05 1.564736e-04 8.324954e-05 3.472252e-04 4.889225e-04 5.015758e-04 5.224900e-04 4.894772e-04 3.880653e-04 
-5.738463e-03 -8.063806e-03 -1.570241e-02 6.576533e-03 1.779063e-01 -1.486757e-01 -1.248890e+00 -6.621395e-01 -4.711131e-01 -4.887618e-01 -4.907800e-01 -4.376938e-01 5.835174e-01 2.462851e+00 3.307202e+00 2.813375e+00 3.106338e+00 3.024141e+00 2.926359e+00 3.303510e+00 2.548817e+00 3.316984e-01 -4.177172e-01 -4.971871e-01 -4.435112e-01 -4.650571e-01 -4.453962e-01 -4.680487e-01 -4.550322e-01 -4.678529e-01 -4.622088e-01 -4.657023e-01 -4.680129e-01 -4.629209e-01 -4.727852e-01 -4.603303e-01 -4.765508e-01 -4.583791e-01 -4.792660e-01 -4.570310e-01 -4.807910e-01 -4.559532e-01 -4.808592e-01 -4.545907e-01 -4.786723e-01 -4.520818e-01 -4.730155e-01 -4.472604e-01 -4.630801e-01 -4.396408e-01 -4.489271e-01 -4.292771e-01 -4.346438e-01 -4.382988e-01 -4.357007e-01 -9.129382e-02 1.486803e+00 2.194244e+00 1.343908e+00 1.390733e+00 1.585131e+00 1.478076e+00 1.799371e+00 1.590557e+00 1.376250e+00 1.652835e+00 1.380211e+00 1.020948e+00 1.338665e+00 7.043843e-01 6.966915e-01 1.530803e+00 4.776726e-01 -6.141319e-01 -4.958781e-01 -4.280338e-01 -4.192660e-01 -4.224694e-01 -4.328498e-01 -4.306095e-01 -4.424655e-01 -4.384486e-01 -4.521406e-01 -4.468875e-01 -4.612772e-01 -4.542050e-01 -4.686039e-01 -4.594646e-01 -4.735637e-01 -4.624754e-01 -4.762813e-01 -4.635812e-01 -4.774739e-01 -4.635797e-01 -4.778522e-01 -4.630092e-01 -4.776072e-01 -4.625113e-01 -4.767755e-01 -4.627440e-01 -4.753283e-01 -4.642288e-01 -4.733260e-01 -4.675671e-01 -4.711680e-01 -4.729303e-01 -4.683531e-01 -4.797385e-01 -4.646064e-01 -4.878210e-01 -4.599576e-01 -4.964467e-01 -4.543207e-01 -5.044984e-01 -4.475342e-01 -5.108297e-01 -4.388829e-01 -5.148470e-01 -4.239687e-01 -5.165849e-01 -3.653357e-01 -7.890728e-01 -1.015207e+00 -1.107655e-01 -2.802375e-02 -2.504928e-02 -1.117551e-02 -6.854824e-03 
-1.591726e-03 -1.804069e-02 -7.467668e-02 3.298428e-02 1.577034e+00 9.946750e-01 -3.137561e+00 -1.173467e+00 -9.075758e-01 -8.250471e-01 -8.638689e-01 -6.400734e-01 6.955112e-01 -6.103286e-01 -1.195430e+00 -1.307411e+00 -9.684567e-01 -1.341497e+00 -9.922465e-01 -1.447815e+00 -2.848061e-01 2.641909e-01 -5.890745e-01 -9.014115e-01 -7.721706e-01 -8.809575e-01 -7.735837e-01 -8.791537e-01 -7.782075e-01 -8.496757e-01 -7.590698e-01 -8.082653e-01 -7.561642e-01 -7.972493e-01 -7.886448e-01 -8.083716e-01 -8.220206e-01 -8.006990e-01 -8.219955e-01 -7.661218e-01 -8.096436e-01 -7.469929e-01 -8.245646e-01 -7.603532e-01 -8.518819e-01 -7.716494e-01 -8.532541e-01 -7.581990e-01 -8.318593e-01 -7.489386e-01 -8.320572e-01 -7.801532e-01 -8.741458e-01 -8.879388e-01 -1.048124e+00 -5.289893e-01 2.379001e+00 2.001103e+00 -1.531945e-01 4.567514e-01 2.412308e-01 2.082563e-01 3.910526e-01 1.562885e-01 3.987776e-01 1.664007e-01 3.565618e-01 2.886268e-01 3.794884e-01 5.441714e-01 2.635581e-01 2.430878e+00 2.779211e+00 -2.626657e-01 -9.622141e-01 -8.651345e-01 -8.080407e-01 -7.764223e-01 -7.875545e-01 -7.749171e-01 -7.895155e-01 -7.769703e-01 -7.887046e-01 -7.790858e-01 -7.950069e-01 -7.876466e-01 -8.073572e-01 -7.951445e-01 -8.170094e-01 -7.892409e-01 -8.083568e-01 -7.602322e-01 -7.897800e-01 -7.355859e-01 -7.925998e-01 -7.370783e-01 -8.203366e-01 -7.560979e-01 -8.460254e-01 -7.569158e-01 -8.310406e-01 -7.269022e-01 -7.925586e-01 -7.091954e-01 -7.735062e-01 -7.359150e-01 -7.861452e-01 -7.973685e-01 -7.950728e-01 -8.417697e-01 -7.589366e-01 -8.561545e-01 -7.017857e-01 -8.756518e-01 -6.615012e-01 -9.209342e-01 -6.442359e-01 -9.752621e-01 -6.004399e-01 -1.017073e+00 -4.149305e-01 -1.888413e+00 -1.482546e+00 1.375317e+00 -4.730050e-02 -2.015945e-01 -4.561995e-02 -3.352440e-03 
1.149267e-02 -3.031640e-02 -1.828554e-01 -6.451110e-02 3.509772e+00 4.775267e+00 4.326969e-02 1.393990e+00 9.902172e-01 1.223741e+00 9.178314e-01 7.236395e-01 -3.809358e-01 -1.551661e-01 2.011066e-01 -3.687037e-02 1.775657e-03 -8.730833e-02 6.109102e-02 8.153689e-02 -1.089039e-01 -1.818876e-01 8.419313e-01 9.517313e-01 1.173091e+00 1.043191e+00 1.209796e+00 1.060088e+00 1.256002e+00 1.140722e+00 1.358318e+00 1.242887e+00 1.403216e+00 1.250632e+00 1.336351e+00 1.193692e+00 1.258818e+00 1.195040e+00 1.270405e+00 1.278182e+00 1.308652e+00 1.316631e+00 1.256171e+00 1.258303e+00 1.153092e+00 1.200900e+00 1.105041e+00 1.202706e+00 1.092171e+00 1.163741e+00 9.647451e-01 9.499279e-01 6.501895e-01 5.839296e-01 1.999873e-01 -1.239169e-01 -1.774467e+00 -1.916256e+00 -1.053045e+00 -1.604039e+00 -1.535722e+00 -1.642235e+00 -1.597936e+00 -1.574154e+00 -1.504268e+00 -1.652477e+00 -1.490320e+00 -1.439233e+00 -1.309059e+00 -1.303512e+00 -1.034392e+00 -2.129747e+00 -1.600566e+00 1.120615e-01 5.374980e-01 7.844670e-01 8.705249e-01 9.947199e-01 1.047907e+00 1.099275e+00 1.149606e+00 1.172866e+00 1.234611e+00 1.228358e+00 1.278616e+00 1.246362e+00 1.285199e+00 1.249626e+00 1.281400e+00 1.276979e+00 1.316705e+00 1.361624e+00 1.372173e+00 1.427971e+00 1.360667e+00 1.416547e+00 1.273763e+00 1.356673e+00 1.190159e+00 1.357300e+00 1.222704e+00 1.458817e+00 1.321034e+00 1.536259e+00 1.359045e+00 1.495629e+00 1.300560e+00 1.364541e+00 1.248568e+00 1.292161e+00 1.324215e+00 1.311858e+00 1.457829e+00 1.314239e+00 1.539233e+00 1.232491e+00 1.546418e+00 1.112146e+00 1.594861e+00 1.033603e+00 1.811354e+00 4.872918e-01 3.460418e+00 5.193609e+00 -1.681958e-03 -5.022692e-01 -8.970441e-02 1.362699e-02 
1.665444e-02 1.740739e-03 -9.773276e-02 -1.320841e-01 1.916980e+00 4.256417e+00 4.256665e+00 3.136845e+00 2.313108e+00 2.467516e+00 2.169687e+00 2.232137e+00 2.404472e+00 2.376782e+00 2.173216e+00 2.341049e+00 2.232923e+00 2.352612e+00 2.230773e+00 2.293491e+00 2.309528e+00 2.368027e+00 2.240695e+00 2.287839e+00 2.380930e+00 2.390102e+00 2.451070e+00 2.411662e+00 2.508498e+00 2.463351e+00 2.598048e+00 2.524342e+00 2.643801e+00 2.518414e+00 2.609130e+00 2.468432e+00 2.563657e+00 2.460248e+00 2.575740e+00 2.509797e+00 2.602087e+00 2.528746e+00 2.561221e+00 2.480262e+00 2.479488e+00 2.430601e+00 2.427395e+00 2.417207e+00 2.387486e+00 2.365389e+00 2.248979e+00 2.171202e+00 1.943236e+00 1.824498e+00 1.480212e+00 1.209761e+00 2.647171e-01 4.467072e-01 7.562132e-01 7.635942e-01 9.884528e-01 8.978419e-01 1.123565e+00 9.474844e-01 1.056062e+00 1.006178e+00 1.188819e+00 1.006601e+00 1.226819e+00 9.173926e-01 1.130972e+00 1.348107e+00 7.913967e-01 1.434035e+00 1.728961e+00 1.978731e+00 2.070373e+00 2.192718e+00 2.269550e+00 2.316026e+00 2.392901e+00 2.403319e+00 2.489736e+00 2.467519e+00 2.548084e+00 2.497419e+00 2.571773e+00 2.509608e+00 2.580065e+00 2.532185e+00 2.608625e+00 2.590215e+00 2.646811e+00 2.633711e+00 2.636590e+00 2.623626e+00 2.573073e+00 2.581945e+00 2.510383e+00 2.585470e+00 2.526217e+00 2.663435e+00 2.586082e+00 2.730091e+00 2.603009e+00 2.720415e+00 2.552264e+00 2.653021e+00 2.504744e+00 2.629317e+00 2.544059e+00 2.670185e+00 2.622866e+00 2.697650e+00 2.666388e+00 2.664312e+00 2.660600e+00 2.605871e+00 2.683896e+00 2.609044e+00 2.771627e+00 3.290938e+00 6.256572e+00 3.985132e+00 -3.995350e-01 -5.025787e-01 -8.561362e-02 8.618571e-03 
8.534374e-03 1.589339e-02 1.057674e-03 -1.196589e-01 -2.483570e-01 7.056032e-01 2.451847e+00 1.212321e+00 8.797021e-01 9.292319e-01 8.783597e-01 1.121355e+00 2.100997e+00 1.662383e+00 1.312865e+00 1.319027e+00 1.319145e+00 1.316973e+00 1.321720e+00 1.315330e+00 1.763880e+00 1.901082e+00 9.502707e-01 8.840445e-01 8.920109e-01 9.558974e-01 9.401100e-01 9.689638e-01 9.584110e-01 9.696296e-01 9.718497e-01 9.666280e-01 9.806376e-01 9.598510e-01 9.842238e-01 9.517137e-01 9.855941e-01 9.463685e-01 9.874004e-01 9.441561e-01 9.874706e-01 9.404494e-01 9.818034e-01 9.328638e-01 9.707007e-01 9.237125e-01 9.561534e-01 9.134160e-01 9.358038e-01 8.967766e-01 9.039188e-01 8.709039e-01 8.505548e-01 7.580259e-01 5.894352e-01 1.519979e+00 6.233331e+00 5.589434e+00 2.669243e+00 3.290660e+00 3.052699e+00 3.189038e+00 2.976077e+00 3.065865e+00 3.017591e+00 3.159852e+00 3.056019e+00 3.293085e+00 2.881741e+00 3.197148e+00 2.398324e+00 4.985142e+00 5.927378e+00 1.654693e+00 6.087719e-01 7.894085e-01 8.852410e-01 9.150855e-01 9.314542e-01 9.305720e-01 9.508124e-01 9.414610e-01 9.656528e-01 9.493272e-01 9.765313e-01 9.541597e-01 9.837022e-01 9.565240e-01 9.875723e-01 9.576990e-01 9.898018e-01 9.592469e-01 9.906781e-01 9.597990e-01 9.885318e-01 9.584591e-01 9.834648e-01 9.570152e-01 9.776873e-01 9.595058e-01 9.743910e-01 9.677239e-01 9.721525e-01 9.782907e-01 9.675984e-01 9.882730e-01 9.594282e-01 9.978407e-01 9.507958e-01 1.011007e+00 9.457527e-01 1.027732e+00 9.428872e-01 1.043664e+00 9.402970e-01 1.057228e+00 9.403698e-01 1.075946e+00 9.519642e-01 1.123802e+00 9.450434e-01 1.697007e+00 2.285796e+00 2.912374e-01 -3.086923e-01 -1.161832e-01 -1.009871e-02 5.279268e-03 
2.434275e-03 9.123532e-03 1.605420e-02 5.416147e-03 -5.502762e-02 -7.607631e-02 9.609725e-02 3.141199e-02 -8.407059e-04 2.477339e-02 1.499170e-02 2.682838e-01 1.953562e+00 1.723259e+00 8.907963e-01 8.900258e-01 8.900295e-01 8.899443e-01 8.901359e-01 8.917565e-01 1.826349e+00 1.903308e+00 1.718681e-02 -1.274961e-01 -4.831148e-02 -6.525277e-03 6.923540e-03 1.315934e-02 1.631624e-02 1.710027e-02 1.857646e-02 1.701647e-02 1.857891e-02 1.587876e-02 1.797847e-02 1.456651e-02 1.709665e-02 1.314890e-02 1.582475e-02 1.143173e-02 1.393975e-02 9.158095e-03 1.126396e-02 6.221956e-03 7.905232e-03 2.978153e-03 4.457829e-03 2.310592e-04 2.103696e-03 1.501947e-04 6.473027e-03 1.667248e-02 4.120535e-02 4.405415e-02 3.429985e-02 7.643447e-01 3.938888e+00 3.832897e+00 1.594168e+00 1.700657e+00 1.529616e+00 1.594910e+00 1.439276e+00 1.462196e+00 1.265352e+00 1.272584e+00 1.135470e+00 9.644493e-01 1.031776e+00 1.068382e+00 6.837349e-01 1.830105e+00 2.052335e+00 7.069964e-02 -1.825715e-01 -2.731996e-03 5.401625e-02 5.655043e-02 5.346886e-02 4.883247e-02 4.718590e-02 4.186655e-02 3.963465e-02 3.353156e-02 3.154297e-02 2.587915e-02 2.500405e-02 2.038345e-02 2.076500e-02 1.712989e-02 1.844558e-02 1.545673e-02 1.734358e-02 1.470641e-02 1.692592e-02 1.448638e-02 1.687314e-02 1.459440e-02 1.693285e-02 1.483453e-02 1.683758e-02 1.503238e-02 1.641381e-02 1.517256e-02 1.571507e-02 1.539096e-02 1.483986e-02 1.585748e-02 1.402611e-02 1.687642e-02 1.360685e-02 1.874733e-02 1.403566e-02 2.197778e-02 1.616218e-02 2.765320e-02 2.161226e-02 3.796622e-02 3.246175e-02 5.353501e-02 3.645819e-02 8.720682e-02 9.034612e-02 -5.674458e-02 -4.942860e-02 -1.174304e-02 -2.884123e-03 -8.674448e-04 
1.275721e-04 1.970004e-03 4.445062e-03 6.105921e-03 2.047646e-03 -8.793594e-03 -4.646979e-03 -4.943306e-04 6.525285e-03 1.600043e-02 1.314534e-02 1.242148e-01 9.617725e-01 8.426707e-01 4.458076e-01 4.453465e-01 4.453458e-01 4.453459e-01 4.453480e-01 4.463335e-01 9.159909e-01 9.489170e-01 -3.604808e-02 -1.013562e-01 -5.134998e-02 -2.679860e-02 -1.650950e-02 -1.151308e-02 -8.283300e-03 -6.700894e-03 -5.708276e-03 -5.535624e-03 -5.389197e-03 -5.732377e-03 -5.911157e-03 -6.486606e-03 -6.870319e-03 -7.639631e-03 -8.260209e-03 -9.280389e-03 -1.021329e-02 -1.152708e-02 -1.275148e-02 -1.421987e-02 -1.545593e-02 -1.667300e-02 -1.744507e-02 -1.797523e-02 -1.790836e-02 -1.738309e-02 -1.546898e-02 -1.102795e-02 -2.239661e-03 -2.331315e-03 -5.825887e-02 -1.042789e-01 5.758475e-01 5.874130e-01 -6.770149e-01 -1.828363e-01 -3.882525e-01 -3.739289e-01 -2.219928e-01 -5.149613e-01 -1.301597e-01 -6.239946e-01 -1.223290e-01 -4.416065e-01 -7.738076e-02 2.685939e-02 1.400086e-02 1.120949e+00 5.721907e-01 -7.000084e-02 -9.426195e-02 -2.380032e-02 -4.403580e-04 8.534149e-03 1.566083e-02 2.084430e-02 2.324882e-02 2.269179e-02 2.010361e-02 1.606689e-02 1.167159e-02 7.265041e-03 3.507746e-03 3.338392e-04 -1.987893e-03 -3.750982e-03 -4.851838e-03 -5.626027e-03 -5.969757e-03 -6.198843e-03 -6.146042e-03 -6.129650e-03 -5.911456e-03 -5.853044e-03 -5.644640e-03 -5.707529e-03 -5.648088e-03 -5.934339e-03 -6.082097e-03 -6.577887e-03 -6.870983e-03 -7.440564e-03 -7.728169e-03 -8.163477e-03 -8.262540e-03 -8.350873e-03 -8.116986e-03 -7.693430e-03 -7.031101e-03 -5.955145e-03 -4.772085e-03 -2.884138e-03 -1.090338e-03 1.676887e-03 3.820482e-03 6.498118e-03 5.944921e-03 4.366816e-03 -3.981557e-05 -4.072949e-03 -1.438106e-03 -5.575317e-04 -1.361132e-03 -1.012811e-03 
-2.061956e-04 -1.098550e-04 -1.441963e-05 6.916613e-05 1.285531e-04 1.622539e-04 1.683682e-04 1.562049e-04 1.357769e-04 1.115572e-04 7.253119e-05 -2.189900e-05 -1.720221e-04 8.613230e-05 5.104658e-08 1.826657e-09 1.104797e-08 4.592518e-09 1.216998e-08 -9.719104e-07 8.600839e-05 -2.683865e-03 1.200357e-03 1.062373e-03 6.087980e-04 3.877281e-04 2.308810e-04 1.058397e-04 -1.288555e-05 -1.230391e-04 -2.440304e-04 -3.850932e-04 -5.623762e-04 -7.907809e-04 -1.080556e-03 -1.450501e-03 -1.906187e-03 -2.472881e-03 -3.155689e-03 -3.983963e-03 -4.952789e-03 -6.069632e-03 -7.288229e-03 -8.561569e-03 -9.796406e-03 -1.092947e-02 -1.191001e-02 -1.279092e-02 -1.365649e-02 -1.468502e-02 -1.587329e-02 -1.702938e-02 -1.737346e-02 -1.736400e-02 -2.409254e-02 -4.707074e-02 -5.184953e-02 -1.838672e-02 -6.854777e-02 -6.932692e-02 -2.719109e-02 -5.775200e-03 5.771979e-02 6.598724e-02 1.115198e-01 1.512741e-01 1.960933e-01 2.221588e-01 2.063424e-01 1.094691e-01 -2.484082e-02 -6.992708e-02 -1.004667e-01 -8.843891e-02 -5.730806e-02 -3.369855e-02 -1.471297e-02 2.507847e-03 1.639659e-02 2.556926e-02 2.981972e-02 3.004254e-02 2.736744e-02 2.307332e-02 1.815798e-02 1.339908e-02 9.226950e-03 5.861432e-03 3.315287e-03 1.522445e-03 3.442548e-04 -3.447381e-04 -6.794199e-04 -7.555004e-04 -6.657964e-04 -4.744012e-04 -2.465169e-04 -3.327960e-05 1.154653e-04 1.606661e-04 7.551344e-05 -1.516410e-04 -5.124994e-04 -9.816878e-04 -1.518646e-03 -2.071884e-03 -2.588581e-03 -3.016437e-03 -3.315076e-03 -3.457302e-03 -3.432610e-03 -3.251281e-03 -2.934974e-03 -2.525326e-03 -2.062512e-03 -1.597635e-03 -1.166386e-03 -8.058190e-04 -5.289564e-04 -3.474781e-04 -2.493856e-04 -2.233040e-04 -2.433574e-04 -2.842328e-04 -3.307468e-04 -3.513203e-04 -3.380980e-04 -2.864192e-04 
-4.649970e-04 -2.135360e-03 -4.434244e-03 -5.937638e-03 -1.769142e-03 9.114861e-03 4.972171e-03 7.935562e-04 -6.272432e-03 -1.576971e-02 -1.295733e-02 -1.240743e-01 -9.616064e-01 -8.438137e-01 -4.458088e-01 -4.453465e-01 -4.453457e-01 -4.453459e-01 -4.453479e-01 -4.463373e-01 -9.168871e-01 -9.569626e-01 3.818178e-02 1.033958e-01 5.249403e-02 2.754328e-02 1.695924e-02 1.176736e-02 8.326735e-03 6.575405e-03 5.372367e-03 4.968943e-03 4.512368e-03 4.456110e-03 4.119901e-03 4.023023e-03 3.586018e-03 3.306510e-03 2.688968e-03 2.165671e-03 1.334549e-03 5.585620e-04 -4.429618e-04 -1.366220e-03 -2.374409e-03 -3.270618e-03 -4.190940e-03 -5.158075e-03 -6.367408e-03 -8.039994e-03 -1.025075e-02 -1.302259e-02 -1.582766e-02 -1.803411e-02 -1.911514e-02 -1.944450e-02 -1.721293e-02 -7.148058e-03 2.396942e-03 9.320224e-03 1.786547e-02 2.298689e-02 2.794030e-02 2.749761e-02 2.442951e-02 1.846884e-02 7.432864e-03 -6.948747e-03 -2.769794e-02 -5.366910e-02 -7.844678e-02 -8.972277e-02 -8.518472e-02 -6.947455e-02 -4.871484e-02 -2.678510e-02 -5.795522e-03 1.188014e-02 2.454990e-02 3.198887e-02 3.464224e-02 3.378562e-02 3.053626e-02 2.616488e-02 2.146117e-02 1.711142e-02 1.337417e-02 1.043686e-02 8.226084e-03 6.712294e-03 5.709566e-03 5.174010e-03 4.905315e-03 4.928976e-03 5.030071e-03 5.319525e-03 5.529268e-03 5.857199e-03 5.959280e-03 6.137254e-03 5.978831e-03 5.905313e-03 5.456288e-03 5.160685e-03 4.532077e-03 4.153870e-03 3.539343e-03 3.237415e-03 2.804013e-03 2.647934e-03 2.436997e-03 2.329240e-03 2.194614e-03 1.833523e-03 1.435134e-03 3.635622e-04 -6.962044e-04 -2.825162e-03 -4.502403e-03 -6.855964e-03 -6.153631e-03 -4.523854e-03 -1.844229e-04 3.750680e-03 9.943321e-04 2.338985e-05 8.163191e-04 5.385369e-04 
-2.621800e-03 -9.186526e-03 -1.597375e-02 -5.194005e-03 5.526668e-02 7.612697e-02 -9.578060e-02 -3.076652e-02 1.056105e-03 -2.425921e-02 -1.472760e-02 -2.679093e-01 -1.953101e+00 -1.722805e+00 -8.908012e-01 -8.900263e-01 -8.900346e-01 -8.899466e-01 -8.901308e-01 -8.917603e-01 -1.826349e+00 -1.908709e+00 -1.557090e-02 1.288999e-01 4.896798e-02 6.931644e-03 -6.658355e-03 -1.307301e-02 -1.621582e-02 -1.727173e-02 -1.863071e-02 -1.750941e-02 -1.889600e-02 -1.689103e-02 -1.883212e-02 -1.646095e-02 -1.896817e-02 -1.648953e-02 -1.941425e-02 -1.700526e-02 -2.016244e-02 -1.795684e-02 -2.112703e-02 -1.914478e-02 -2.202837e-02 -2.021214e-02 -2.259931e-02 -2.109791e-02 -2.316440e-02 -2.252605e-02 -2.474146e-02 -2.539625e-02 -2.753668e-02 -2.857833e-02 -2.880594e-02 -2.809489e-02 -2.442283e-02 -2.113507e-02 -1.658557e-02 -1.380735e-02 -1.001171e-02 -1.047061e-02 -1.064030e-02 -1.656869e-02 -2.268506e-02 -3.353601e-02 -4.398909e-02 -5.707064e-02 -6.682745e-02 -7.653024e-02 -7.905948e-02 -7.716367e-02 -6.877464e-02 -5.600809e-02 -3.996924e-02 -2.447587e-02 -1.125747e-02 -8.493649e-04 4.822365e-03 8.185800e-03 7.254579e-03 6.024446e-03 1.910091e-03 -6.928631e-04 -5.182447e-03 -7.203547e-03 -1.083022e-02 -1.169816e-02 -1.435067e-02 -1.420956e-02 -1.620510e-02 -1.536109e-02 -1.702910e-02 -1.571265e-02 -1.724429e-02 -1.561192e-02 -1.710890e-02 -1.536363e-02 -1.688415e-02 -1.527559e-02 -1.677065e-02 -1.554903e-02 -1.683124e-02 -1.623011e-02 -1.695529e-02 -1.718481e-02 -1.690866e-02 -1.822205e-02 -1.654081e-02 -1.929484e-02 -1.595970e-02 -2.060900e-02 -1.564523e-02 -2.281536e-02 -1.671261e-02 -2.734777e-02 -2.116538e-02 -3.676599e-02 -3.141996e-02 -5.194298e-02 -3.537549e-02 -8.556007e-02 -9.000548e-02 5.689687e-02 4.957190e-02 1.163547e-02 2.635881e-03 6.038968e-04 
-8.680007e-03 -1.595416e-02 -1.005670e-03 1.197339e-01 2.477253e-01 -7.077761e-01 -2.450590e+00 -1.205390e+00 -8.772710e-01 -9.229016e-01 -8.752692e-01 -1.114527e+00 -2.096375e+00 -1.665034e+00 -1.312964e+00 -1.319001e+00 -1.319224e+00 -1.316972e+00 -1.321532e+00 -1.315295e+00 -1.763461e+00 -1.909331e+00 -9.484429e-01 -8.833267e-01 -8.909411e-01 -9.590282e-01 -9.426766e-01 -9.768521e-01 -9.628109e-01 -9.778708e-01 -9.728438e-01 -9.722320e-01 -9.789972e-01 -9.670496e-01 -9.856060e-01 -9.647999e-01 -9.920931e-01 -9.634737e-01 -9.952613e-01 -9.608273e-01 -9.953532e-01 -9.599679e-01 -9.970573e-01 -9.641913e-01 -1.001384e+00 -9.716149e-01 -1.005075e+00 -9.779977e-01 -1.004645e+00 -9.815195e-01 -1.000888e+00 -9.839577e-01 -9.943138e-01 -9.823250e-01 -9.782745e-01 -9.666770e-01 -9.418440e-01 -9.339054e-01 -9.256357e-01 -9.298574e-01 -9.157570e-01 -9.297713e-01 -9.147234e-01 -9.331686e-01 -9.248310e-01 -9.412047e-01 -9.356684e-01 -9.561827e-01 -9.455897e-01 -9.655476e-01 -9.572640e-01 -9.640138e-01 -9.671279e-01 -9.827065e-01 -9.797895e-01 -9.827158e-01 -9.834546e-01 -9.788998e-01 -9.838331e-01 -9.739154e-01 -9.821957e-01 -9.685088e-01 -9.804263e-01 -9.654963e-01 -9.816347e-01 -9.659473e-01 -9.843737e-01 -9.665317e-01 -9.850818e-01 -9.646699e-01 -9.831101e-01 -9.626348e-01 -9.833259e-01 -9.663443e-01 -9.891761e-01 -9.755560e-01 -9.962299e-01 -9.845831e-01 -9.983890e-01 -9.893593e-01 -9.938787e-01 -9.918949e-01 -9.869614e-01 -9.967519e-01 -9.798115e-01 -1.003388e+00 -9.703955e-01 -1.009287e+00 -9.572160e-01 -1.013334e+00 -9.420182e-01 -1.017815e+00 -9.292697e-01 -1.024495e+00 -9.211255e-01 -1.033773e+00 -9.203612e-01 -1.051697e+00 -9.328075e-01 -1.099443e+00 -9.285009e-01 -1.674738e+00 -2.284065e+00 -2.926395e-01 3.095443e-01 1.164580e-01 1.000713e-02 -5.465897e-03 
-1.699502e-02 -2.004747e-03 9.752634e-02 1.319377e-01 -1.916971e+00 -4.259536e+00 -4.254960e+00 -3.126325e+00 -2.311660e+00 -2.461876e+00 -2.170983e+00 -2.226042e+00 -2.399272e+00 -2.365753e+00 -2.171515e+00 -2.333445e+00 -2.231421e+00 -2.345944e+00 -2.228372e+00 -2.288707e+00 -2.321289e+00 -2.368287e+00 -2.202294e+00 -2.250736e+00 -2.351756e+00 -2.403623e+00 -2.498519e+00 -2.498475e+00 -2.587396e+00 -2.516838e+00 -2.588459e+00 -2.476322e+00 -2.568754e+00 -2.470692e+00 -2.599726e+00 -2.524171e+00 -2.656704e+00 -2.572130e+00 -2.659350e+00 -2.551739e+00 -2.605784e+00 -2.526727e+00 -2.595257e+00 -2.572830e+00 -2.651979e+00 -2.659792e+00 -2.713584e+00 -2.710895e+00 -2.717717e+00 -2.707816e+00 -2.705681e+00 -2.729076e+00 -2.746028e+00 -2.801376e+00 -2.821237e+00 -2.882665e+00 -2.873308e+00 -2.918562e+00 -2.902662e+00 -2.944915e+00 -2.919244e+00 -2.956736e+00 -2.925536e+00 -2.946083e+00 -2.919390e+00 -2.927333e+00 -2.903196e+00 -2.911936e+00 -2.884943e+00 -2.896905e+00 -2.875160e+00 -2.864655e+00 -2.850172e+00 -2.838039e+00 -2.831276e+00 -2.803094e+00 -2.809725e+00 -2.760070e+00 -2.771617e+00 -2.697448e+00 -2.710901e+00 -2.623706e+00 -2.664231e+00 -2.605677e+00 -2.693410e+00 -2.658793e+00 -2.747581e+00 -2.691319e+00 -2.729952e+00 -2.634227e+00 -2.620890e+00 -2.536923e+00 -2.536713e+00 -2.538963e+00 -2.574534e+00 -2.646625e+00 -2.658830e+00 -2.739503e+00 -2.672396e+00 -2.730536e+00 -2.592683e+00 -2.669737e+00 -2.529070e+00 -2.663204e+00 -2.538390e+00 -2.700024e+00 -2.572567e+00 -2.719613e+00 -2.578230e+00 -2.687409e+00 -2.558960e+00 -2.648524e+00 -2.572584e+00 -2.636917e+00 -2.611289e+00 -2.626826e+00 -2.650469e+00 -2.605359e+00 -2.685057e+00 -2.585639e+00 -2.743845e+00 -3.246119e+00 -6.252755e+00 -3.980087e+00 4.038048e-01 5.029752e-01 8.506404e-02 -9.102935e-03 
-1.193661e-02 2.989771e-02 1.823809e-01 6.437608e-02 -3.507425e+00 -4.774030e+00 -4.359075e-02 -1.395874e+00 -9.948415e-01 -1.231591e+00 -9.279148e-01 -7.310017e-01 3.739375e-01 1.620586e-01 -1.991354e-01 4.411192e-02 -1.506078e-03 8.668463e-02 -6.564596e-02 -9.435662e-02 1.128970e-01 2.022728e-01 -7.864524e-01 -8.937681e-01 -1.129183e+00 -1.055025e+00 -1.276209e+00 -1.173862e+00 -1.366356e+00 -1.201039e+00 -1.338672e+00 -1.150787e+00 -1.287424e+00 -1.154231e+00 -1.314779e+00 -1.243391e+00 -1.384014e+00 -1.322245e+00 -1.377698e+00 -1.297884e+00 -1.291974e+00 -1.261541e+00 -1.269729e+00 -1.322743e+00 -1.345687e+00 -1.438371e+00 -1.430117e+00 -1.499054e+00 -1.434504e+00 -1.481389e+00 -1.422268e+00 -1.504758e+00 -1.500066e+00 -1.618758e+00 -1.656779e+00 -1.782551e+00 -1.830644e+00 -1.923222e+00 -1.918989e+00 -1.973114e+00 -1.970712e+00 -1.993927e+00 -1.989533e+00 -1.979423e+00 -1.967930e+00 -1.946795e+00 -1.933323e+00 -1.901182e+00 -1.891599e+00 -1.861577e+00 -1.843155e+00 -1.804668e+00 -1.761800e+00 -1.688756e+00 -1.668495e+00 -1.605442e+00 -1.603905e+00 -1.534581e+00 -1.539274e+00 -1.451744e+00 -1.457123e+00 -1.360884e+00 -1.401563e+00 -1.351766e+00 -1.455185e+00 -1.441975e+00 -1.540201e+00 -1.496334e+00 -1.514808e+00 -1.414388e+00 -1.350767e+00 -1.268489e+00 -1.218321e+00 -1.262371e+00 -1.260955e+00 -1.406753e+00 -1.372500e+00 -1.528559e+00 -1.386190e+00 -1.502443e+00 -1.271641e+00 -1.401340e+00 -1.189210e+00 -1.379452e+00 -1.222404e+00 -1.420855e+00 -1.301122e+00 -1.436839e+00 -1.345601e+00 -1.376193e+00 -1.357124e+00 -1.303848e+00 -1.415021e+00 -1.269508e+00 -1.503578e+00 -1.235473e+00 -1.583323e+00 -1.174985e+00 -1.647125e+00 -1.060641e+00 -1.810756e+00 -4.739505e-01 -3.459033e+00 -5.180810e+00 7.500071e-03 5.024129e-01 8.879667e-02 -1.425049e-02 
1.449671e-03 1.775719e-02 7.416622e-02 -3.341329e-02 -1.575473e+00 -9.912709e-01 3.136523e+00 1.164476e+00 9.028187e-01 8.145966e-01 8.566663e-01 6.301325e-01 -6.975041e-01 5.999086e-01 1.194984e+00 1.298304e+00 9.693610e-01 1.331296e+00 9.895478e-01 1.439474e+00 2.855277e-01 -2.576807e-01 6.110224e-01 9.242749e-01 7.885406e-01 8.810957e-01 7.527231e-01 8.467950e-01 7.433608e-01 8.383305e-01 7.696450e-01 8.518280e-01 8.004180e-01 8.449963e-01 8.014909e-01 8.086188e-01 7.859334e-01 7.768321e-01 7.943026e-01 7.823125e-01 8.284049e-01 7.945765e-01 8.400615e-01 7.765933e-01 8.178798e-01 7.430598e-01 7.925220e-01 7.306135e-01 7.933339e-01 7.454299e-01 7.965453e-01 7.434706e-01 7.617867e-01 7.023012e-01 6.861996e-01 6.262797e-01 5.793438e-01 5.356335e-01 5.282718e-01 5.160905e-01 4.991047e-01 5.095135e-01 4.892563e-01 5.146679e-01 5.032018e-01 5.276146e-01 5.195909e-01 5.529604e-01 5.402420e-01 5.733747e-01 5.734444e-01 5.965952e-01 6.239217e-01 6.756316e-01 6.896280e-01 7.203643e-01 7.272397e-01 7.471836e-01 7.511260e-01 7.687991e-01 7.725044e-01 7.890420e-01 7.819163e-01 7.815713e-01 7.552974e-01 7.429256e-01 7.213043e-01 7.200940e-01 7.289581e-01 7.472500e-01 7.876133e-01 7.990770e-01 8.382680e-01 8.052608e-01 8.305635e-01 7.612758e-01 7.989338e-01 7.254314e-01 7.985543e-01 7.400690e-01 8.383904e-01 7.801428e-01 8.626768e-01 7.930543e-01 8.422304e-01 7.844696e-01 8.010282e-01 7.852833e-01 7.673783e-01 8.136220e-01 7.426429e-01 8.475271e-01 7.018267e-01 8.695064e-01 6.519439e-01 8.914905e-01 6.062500e-01 9.223570e-01 5.577290e-01 9.776687e-01 3.955431e-01 1.866781e+00 1.480690e+00 -1.366394e+00 5.027039e-02 2.016714e-01 4.539294e-02 3.228819e-03 
6.039401e-03 8.098275e-03 1.545919e-02 -6.986906e-03 -1.778536e-01 1.498962e-01 1.248549e+00 6.588143e-01 4.700235e-01 4.857277e-01 4.892652e-01 4.343616e-01 -5.839238e-01 -2.468316e+00 -3.303612e+00 -2.819141e+00 -3.100574e+00 -3.027525e+00 -2.923686e+00 -3.296621e+00 -2.560472e+00 -3.343242e-01 4.186543e-01 4.981151e-01 4.439557e-01 4.664448e-01 4.459002e-01 4.702029e-01 4.557328e-01 4.709604e-01 4.631236e-01 4.697050e-01 4.688058e-01 4.673887e-01 4.729525e-01 4.646570e-01 4.758152e-01 4.621511e-01 4.776893e-01 4.603292e-01 4.788248e-01 4.595477e-01 4.796633e-01 4.602543e-01 4.807987e-01 4.628940e-01 4.826815e-01 4.673780e-01 4.846699e-01 4.719501e-01 4.841709e-01 4.731524e-01 4.778050e-01 4.680528e-01 4.631763e-01 4.530875e-01 4.378930e-01 4.336304e-01 4.298827e-01 4.329578e-01 4.249753e-01 4.321900e-01 4.215212e-01 4.294421e-01 4.214713e-01 4.268165e-01 4.190207e-01 4.276128e-01 4.180796e-01 4.261057e-01 4.238301e-01 4.262168e-01 4.350275e-01 4.549165e-01 4.646940e-01 4.721431e-01 4.786727e-01 4.804252e-01 4.861238e-01 4.833902e-01 4.875421e-01 4.818422e-01 4.850365e-01 4.780158e-01 4.811589e-01 4.739530e-01 4.778317e-01 4.709030e-01 4.760283e-01 4.692668e-01 4.759182e-01 4.689451e-01 4.772567e-01 4.696761e-01 4.794860e-01 4.710994e-01 4.818957e-01 4.729987e-01 4.838263e-01 4.751641e-01 4.844840e-01 4.773047e-01 4.832052e-01 4.793637e-01 4.796313e-01 4.814622e-01 4.737467e-01 4.839237e-01 4.660332e-01 4.871388e-01 4.572154e-01 4.910843e-01 4.478839e-01 4.952981e-01 4.384826e-01 4.991457e-01 4.286749e-01 5.023085e-01 4.143433e-01 5.049239e-01 3.580570e-01 7.790299e-01 1.014765e+00 1.131817e-01 2.901677e-02 2.569877e-02 1.180913e-02 7.367817e-03 
