# vtk DataFile Version 2.0
Comment goes here
ASCII

DATASET STRUCTURED_POINTS
FIELD FieldData 1
TIME 1 1 double
0.06600000
DIMENSIONS    64   64   1

ORIGIN    0.000   0.000   0.000
SPACING   0.03125 0.03125   1.000

POINT_DATA   4096
SCALARS Omega double
LOOKUP_TABLE default

3.106049e-01 -3.605082e-01 -4.951872e-01 -8.066403e-01 -3.702530e-01 -3.821837e-01 -3.672497e-01 -7.569424e-01 -5.500988e-01 -7.890475e-01 -6.017868e-01 -7.604088e-01 -5.222739e-01 -5.252262e-01 -2.359719e-01 1.722364e-01 2.078557e-01 1.004315e+00 7.993259e-01 1.159162e+00 8.048116e-01 1.345494e+00 7.598243e-01 1.415284e+00 6.368145e-01 1.301285e+00 7.187341e-01 1.273561e+00 8.009886e-01 1.169489e+00 8.005880e-01 1.048245e+00 7.807301e-01 1.001160e+00 7.922337e-01 1.026574e+00 8.207467e-01 1.107019e+00 8.644973e-01 1.202426e+00 9.793495e-01 1.166617e+00 1.090671e+00 1.188105e+00 1.034141e+00 1.196205e+00 8.584468e-01 9.416038e-01 5.868924e-01 3.140651e-01 1.855079e-01 -2.853457e-01 -1.636175e-01 -6.063591e-01 -2.926043e-01 -8.453908e-01 -2.520891e-01 -9.607210e-01 -1.833465e-01 -9.844392e-01 -1.000730e-01 -9.899606e-01 5.172351e-02 -1.234160e+00 
-1.769953e+01 -3.657329e+01 -1.477112e+01 -3.159870e+01 -2.062756e+01 -2.718927e+01 -2.605585e+01 -2.331565e+01 -3.200125e+01 -2.203254e+01 -3.485857e+01 -2.198378e+01 -3.651712e+01 -2.201412e+01 -3.909829e+01 -2.101474e+01 -4.359812e+01 -1.836796e+01 -4.937701e+01 -1.406962e+01 -5.472086e+01 -9.579437e+00 -5.990126e+01 -4.736289e+00 -6.517372e+01 5.615924e-01 -7.082014e+01 5.944618e+00 -7.649475e+01 1.122542e+01 -8.155453e+01 1.563439e+01 -8.535325e+01 1.855009e+01 -8.778512e+01 2.011304e+01 -8.937933e+01 2.103267e+01 -9.043632e+01 2.127674e+01 -9.062191e+01 2.057038e+01 -8.948870e+01 1.856580e+01 -8.670420e+01 1.528011e+01 -8.209747e+01 1.085572e+01 -7.556578e+01 5.388608e+00 -6.739805e+01 -1.363010e+00 -5.812210e+01 -9.014586e+00 -4.901543e+01 -1.624532e+01 -4.073794e+01 -2.300213e+01 -3.277590e+01 -2.960303e+01 -2.488847e+01 -3.577287e+01 -1.625461e+01 -4.162238e+01 
-6.103819e+01 8.028131e+00 -5.093603e+01 1.026918e+01 -9.093617e+00 8.379576e+00 -5.338422e+01 2.687924e+00 -6.824865e+01 2.638675e+00 -7.937968e+01 3.688779e+00 -8.870743e+01 4.035307e+00 -9.651665e+01 1.613709e+00 -1.024189e+02 -5.170764e+00 -1.070688e+02 -9.917671e+00 -1.074756e+02 -1.277287e+01 -1.076400e+02 -1.515174e+01 -1.075912e+02 -1.734382e+01 -1.071132e+02 -1.959515e+01 -1.061482e+02 -2.194695e+01 -1.049524e+02 -2.407618e+01 -1.040076e+02 -2.567849e+01 -1.036117e+02 -2.669781e+01 -1.033946e+02 -2.762638e+01 -1.032870e+02 -2.832000e+01 -1.036967e+02 -2.855335e+01 -1.042242e+02 -2.832694e+01 -1.043854e+02 -2.736888e+01 -1.043459e+02 -2.509833e+01 -1.038661e+02 -2.108106e+01 -1.020314e+02 -1.560366e+01 -1.002397e+02 -9.431297e+00 -9.876546e+01 -4.448021e+00 -9.685471e+01 -6.927989e-01 -9.411978e+01 2.867949e+00 -9.006251e+01 6.487952e+00 -8.648637e+01 1.000254e+01 
-2.941285e+01 6.485282e+00 -2.753741e+01 1.166905e+01 -3.571630e+01 6.488615e+00 -1.907689e+01 1.049543e+01 -2.892935e+01 9.015468e+00 -3.557094e+01 8.569672e+00 -4.091906e+01 8.639805e+00 -4.520855e+01 7.766328e+00 -4.758168e+01 5.922424e-01 -4.847170e+01 -3.372843e+00 -4.792321e+01 -5.639643e+00 -4.715843e+01 -7.797853e+00 -4.638767e+01 -1.040783e+01 -4.516656e+01 -1.274076e+01 -4.335460e+01 -1.497480e+01 -4.159464e+01 -1.704260e+01 -4.027182e+01 -1.834510e+01 -3.934444e+01 -1.882652e+01 -3.850631e+01 -1.899540e+01 -3.793670e+01 -1.876887e+01 -3.789957e+01 -1.825082e+01 -3.818983e+01 -1.755220e+01 -3.874990e+01 -1.655410e+01 -3.958888e+01 -1.547277e+01 -4.035561e+01 -1.388149e+01 -4.123820e+01 -9.163022e+00 -4.203735e+01 -3.987436e+00 -4.307925e+01 -7.219564e-02 -4.381868e+01 2.852137e+00 -4.397440e+01 5.313747e+00 -4.325380e+01 8.257582e+00 -4.412918e+01 1.212117e+01 
-3.236161e+00 2.482264e+00 -3.317540e+00 -7.494390e+00 -5.676915e+01 -6.963099e-01 7.019450e+00 2.641722e-01 1.222416e+00 -1.292766e-01 -3.935882e-01 -3.709418e-01 -7.079041e-01 5.496580e-01 -8.881865e-01 3.685261e+00 -3.757454e+00 -2.030827e+00 -9.742240e-01 -7.581247e-01 -1.351637e+00 -1.187570e-01 -1.674608e+00 -8.209536e-02 -1.825955e+00 8.058809e-02 -1.805870e+00 1.579156e-02 -1.758003e+00 -1.054478e-01 -1.735477e+00 -2.253829e-01 -1.683866e+00 -3.908306e-01 -1.540360e+00 -5.576954e-01 -1.315935e+00 -6.504109e-01 -1.086984e+00 -5.631613e-01 -9.094824e-01 -3.963783e-01 -8.585709e-01 -2.767112e-01 -1.033380e+00 -8.409828e-02 -1.332238e+00 -7.759727e-01 -9.074831e-01 -2.741182e+00 3.058797e-02 -8.809991e-01 1.062777e-01 1.916213e-01 -4.763475e-01 1.789185e-01 -7.058754e-01 2.896719e-01 -8.080380e-01 6.322736e-01 -9.924691e-01 1.181039e+00 -1.343360e+00 2.353924e+00 
-2.639904e+00 2.197500e+00 -2.984975e+00 -6.858351e+00 -7.443481e+01 -2.716067e+00 5.969890e+00 -1.551351e+00 3.282156e+00 -1.081147e+00 1.883753e+00 -1.328677e+00 1.197037e+00 -6.899435e-01 1.348434e+00 -2.590512e+00 1.701219e+00 5.053970e+00 4.835744e+00 3.766952e+00 1.260175e+00 2.876003e+00 7.655098e-01 2.606939e+00 5.091259e-01 2.635467e+00 6.279184e-01 1.994677e+00 7.788456e-01 1.219614e+00 8.738865e-01 8.087391e-01 7.969012e-01 5.597432e-01 7.503512e-01 4.440619e-01 7.111088e-01 5.329621e-01 6.220059e-01 8.885804e-01 6.977895e-01 1.123396e+00 8.971164e-01 1.068683e+00 7.238593e-01 1.246846e+00 3.617753e-01 -1.340081e+00 1.614553e+00 -7.673933e+00 -4.199473e-01 -1.734637e+00 4.941980e-01 1.594213e+00 -4.135443e-01 8.089735e-01 -7.407437e-01 5.316374e-01 -7.769948e-01 7.667201e-01 -1.028237e+00 1.157943e+00 -1.514753e+00 1.352056e+00 
-2.631870e+00 1.423151e+00 -1.664563e+00 -7.864166e+00 -8.414110e+01 -1.694704e+00 4.625619e+00 -1.741891e+00 3.091239e+00 -1.467053e+00 1.656494e+00 -2.584341e+00 9.026990e-01 -7.622342e+00 7.977975e+00 -3.160820e+01 2.050330e+01 4.121429e+01 3.812398e+01 3.339824e+01 2.055947e+01 2.693096e+01 2.105452e+01 2.614542e+01 2.341155e+01 2.409316e+01 2.473808e+01 2.368289e+01 2.413202e+01 2.267028e+01 2.346444e+01 2.343065e+01 2.244690e+01 2.421432e+01 2.172671e+01 2.404897e+01 2.074802e+01 2.336915e+01 2.045057e+01 2.188913e+01 2.288948e+01 2.034333e+01 2.471141e+01 2.018225e+01 2.389750e+01 1.904124e+01 2.332640e+01 2.085931e+01 1.771608e+01 1.972824e+01 1.376005e+01 1.394327e+01 1.623194e+00 3.093732e+00 -1.552875e+00 5.815360e-01 -1.245462e+00 5.227087e-01 -1.054637e+00 7.895901e-01 -1.244430e+00 1.113862e+00 -1.717448e+00 1.349736e+00 
-2.346623e+00 1.149335e+00 -1.173682e+00 -6.808551e+00 -9.439031e+01 -1.605271e+00 2.506567e+00 -2.287473e+00 2.406765e+00 -1.862394e+00 1.862820e+00 -3.895089e+00 3.023690e+00 -1.221045e+01 1.352713e+01 -4.040221e+01 4.357292e+01 5.790194e+01 5.965072e+01 4.222596e+01 4.177154e+01 4.434290e+01 4.546593e+01 4.689067e+01 5.018670e+01 4.474265e+01 5.452018e+01 4.606815e+01 5.405530e+01 4.583829e+01 5.338596e+01 4.911420e+01 5.168231e+01 5.292629e+01 5.027431e+01 5.418629e+01 4.786717e+01 5.442481e+01 4.636586e+01 5.281372e+01 5.116884e+01 4.955640e+01 5.584568e+01 5.001070e+01 5.494005e+01 4.712754e+01 5.842100e+01 5.388490e+01 4.855681e+01 1.068815e+02 1.868942e+01 2.671621e+01 -5.909521e+00 7.361330e-02 -3.822253e+00 -7.993330e-01 -1.533882e+00 2.811387e-01 -9.801920e-01 8.880499e-01 -1.135276e+00 1.276035e+00 -1.581772e+00 1.567987e+00 
-1.889893e+00 7.504142e-01 1.076308e-01 -7.094399e+00 -9.931269e+01 -8.940411e-01 1.739160e+00 -1.959018e+00 2.063643e+00 -1.175496e+00 2.232302e+00 -9.146937e-01 3.128152e+00 -1.185821e+00 4.203151e+00 1.173515e+00 -3.872107e+00 -1.730614e+01 -4.187116e-01 -1.193675e+01 4.708497e+00 -6.734151e+00 5.129358e+00 -3.392127e+00 6.166484e+00 -9.815881e-01 7.693606e+00 1.196320e+00 8.749993e+00 3.105786e+00 9.205409e+00 5.195274e+00 9.190839e+00 7.377297e+00 8.968264e+00 8.998644e+00 8.468467e+00 1.031547e+01 7.939429e+00 1.126766e+01 8.504903e+00 1.182101e+01 9.568114e+00 1.310724e+01 9.657217e+00 1.384453e+01 1.128564e+01 1.862806e+01 1.700027e+01 4.015330e+01 -1.262080e+00 1.086755e+01 -3.636479e+00 1.027999e+00 -1.848335e+00 2.917270e-01 -9.336238e-01 6.604215e-01 -8.517459e-01 9.886624e-01 -1.091955e+00 1.274013e+00 -1.476045e+00 1.490049e+00 
-1.450202e+00 5.264484e-01 7.795208e-01 -6.252951e+00 -1.050973e+02 -7.438906e-01 7.670463e-01 -2.090084e+00 1.361895e+00 -8.183190e-01 1.602303e+00 2.309246e+00 2.610267e-01 1.157488e+01 -1.149748e+01 4.268289e+01 -4.197328e+01 -6.466769e+01 -6.098495e+01 -4.968260e+01 -4.085353e+01 -4.970422e+01 -4.467081e+01 -5.094717e+01 -4.943691e+01 -4.773736e+01 -5.389310e+01 -4.824729e+01 -5.327917e+01 -4.743504e+01 -5.262001e+01 -5.006666e+01 -5.096875e+01 -5.330880e+01 -4.966324e+01 -5.384968e+01 -4.754797e+01 -5.333175e+01 -4.636369e+01 -5.122429e+01 -5.130834e+01 -4.725121e+01 -5.626738e+01 -4.708072e+01 -5.505865e+01 -4.435557e+01 -5.718157e+01 -5.012459e+01 -5.360512e+01 -1.067825e+02 -1.318379e+01 -1.932906e+01 4.637581e+00 2.448510e+00 2.513103e+00 2.521410e+00 3.575936e-01 1.532722e+00 -4.666042e-01 1.298721e+00 -8.719564e-01 1.392508e+00 -1.224692e+00 1.503333e+00 
-9.279727e-01 1.885575e-01 1.827573e+00 -6.123827e+00 -1.069310e+02 -2.014895e-01 3.623467e-01 -1.998924e+00 5.805399e-01 -1.251099e+00 7.578566e-01 7.489259e-01 -5.547566e-01 7.425323e+00 -1.053711e+01 2.900782e+01 -1.798429e+01 -2.271432e+01 -3.651440e+01 -2.344861e+01 -2.483681e+01 -2.149552e+01 -2.580862e+01 -2.350314e+01 -2.947200e+01 -2.341425e+01 -3.234538e+01 -2.495592e+01 -3.277344e+01 -2.598741e+01 -3.254350e+01 -2.891829e+01 -3.151499e+01 -3.176039e+01 -3.056465e+01 -3.315450e+01 -2.906582e+01 -3.368626e+01 -2.840886e+01 -3.282152e+01 -3.170281e+01 -3.149439e+01 -3.451174e+01 -3.228470e+01 -3.417321e+01 -3.145829e+01 -3.576241e+01 -4.001055e+01 -2.570639e+01 -5.817108e+01 -1.962257e+01 -2.728230e+01 8.631563e-01 -1.773449e+00 2.194463e+00 1.656348e+00 4.297871e-01 1.407358e+00 -3.877510e-01 1.269131e+00 -7.574592e-01 1.343946e+00 -1.001933e+00 1.396130e+00 
-4.735182e-01 -4.213482e-02 2.452051e+00 -5.404380e+00 -1.096206e+02 1.368562e-01 -1.863287e-01 -1.855916e+00 -2.808042e-01 -1.391349e+00 -2.368917e-01 -5.842099e-01 -9.039192e-01 -7.499946e-01 -1.718558e+00 -2.738896e-01 -2.207196e+00 6.736978e-01 -3.569365e+00 2.059147e+00 -1.635898e+00 1.342564e+00 -1.313067e+00 5.417750e-01 -9.930869e-01 -1.827801e-01 -1.235883e+00 -1.560935e-01 -1.509139e+00 9.950597e-02 -1.691724e+00 1.045933e-02 -1.603496e+00 -2.772300e-01 -1.431647e+00 -7.608462e-01 -1.103419e+00 -1.521164e+00 -6.188610e-01 -2.495942e+00 -4.426040e-01 -3.082513e+00 -6.017017e-01 -3.251433e+00 -5.419002e-01 -3.467898e+00 -1.082760e+00 -9.661559e-01 -3.448967e+00 3.667618e+00 7.035544e-01 -1.420199e+00 2.351314e-01 -1.782727e+00 3.927583e-01 3.588556e-01 9.332533e-02 1.032230e+00 -2.960911e-01 1.205900e+00 -5.615802e-01 1.322433e+00 -7.279612e-01 1.320785e+00 
1.439040e-02 -3.347000e-01 3.219321e+00 -5.062696e+00 -1.092451e+02 5.200239e-01 -3.589545e-01 -1.825831e+00 -7.426793e-01 -1.730625e+00 -4.885673e-01 -1.264889e+00 -5.961755e-01 -1.481515e+00 -4.150929e-02 -3.401390e+00 1.525870e+00 1.517155e+00 6.958668e-01 1.396692e+00 2.318484e-01 9.824674e-01 3.400338e-02 6.810949e-01 1.129863e-02 4.249549e-01 -1.158886e-02 3.220036e-01 4.052277e-02 2.207025e-01 1.431153e-01 2.110100e-01 2.464943e-01 3.046332e-01 2.947605e-01 3.404510e-01 3.181958e-01 2.969897e-01 3.259323e-01 5.839816e-02 2.610909e-01 -2.055081e-01 2.861176e-01 -3.706604e-01 3.824328e-01 -3.923591e-01 3.191746e-01 6.276674e-01 -1.880410e-01 1.436096e+00 1.524593e-01 -2.533376e-01 1.674471e-01 -3.230369e-01 3.166926e-02 3.287132e-01 -1.580966e-01 7.731038e-01 -3.280554e-01 1.028610e+00 -4.500329e-01 1.203978e+00 -4.874116e-01 1.187239e+00 
4.260135e-01 -5.760183e-01 3.712403e+00 -4.482931e+00 -1.096930e+02 8.498974e-01 -5.415983e-01 -1.694475e+00 -1.097455e+00 -2.055400e+00 -7.461312e-01 -2.517760e+00 -2.738385e-01 -4.692518e+00 2.651599e+00 -7.098909e+00 2.335593e-01 4.219335e+00 1.059348e+01 1.397319e+01 6.377989e+00 8.534584e+00 5.262552e+00 7.810460e+00 5.747045e+00 7.313494e+00 6.156664e+00 7.122765e+00 6.300934e+00 6.844506e+00 5.951703e+00 6.630434e+00 5.896040e+00 6.422475e+00 5.798989e+00 6.225275e+00 5.647124e+00 5.677928e+00 5.735776e+00 4.905236e+00 6.102287e+00 4.584510e+00 6.649893e+00 4.528608e+00 7.095530e+00 4.636791e+00 6.537521e+00 5.894832e+00 4.659141e+00 6.144478e+00 5.290990e+00 4.894551e+00 1.462930e+00 1.271140e+00 -4.340172e-01 4.471192e-01 -4.599548e-01 6.433251e-01 -3.427041e-01 9.148721e-01 -3.090388e-01 1.109398e+00 -2.436881e-01 1.056476e+00 
8.492546e-01 -8.106966e-01 4.190214e+00 -3.947781e+00 -1.075576e+02 1.056193e+00 -6.144375e-01 -1.473946e+00 -1.376330e+00 -1.944038e+00 -9.878938e-01 -3.257072e+00 4.289830e-01 -9.534009e+00 7.611274e+00 -1.845710e+01 5.789290e+00 8.403729e+00 3.135054e+01 3.150877e+01 2.143036e+01 1.974906e+01 2.026331e+01 2.102965e+01 2.222439e+01 2.143435e+01 2.431750e+01 2.287403e+01 2.512859e+01 2.367696e+01 2.379631e+01 2.416271e+01 2.346235e+01 2.411992e+01 2.304732e+01 2.436340e+01 2.216473e+01 2.338656e+01 2.206386e+01 2.166907e+01 2.331475e+01 2.181272e+01 2.510108e+01 2.288109e+01 2.657778e+01 2.283648e+01 2.568686e+01 2.697937e+01 1.943120e+01 4.097665e+01 1.933941e+01 2.653088e+01 9.057500e-01 2.475204e+00 -2.185824e+00 -2.817209e-01 -9.028375e-01 2.797227e-01 -3.351322e-01 7.466771e-01 -1.692316e-01 9.974131e-01 -1.041870e-02 9.171147e-01 
1.193891e+00 -1.003990e+00 4.497000e+00 -3.445219e+00 -1.062015e+02 1.242839e+00 -5.588842e-01 -1.312370e+00 -1.274505e+00 -1.693305e+00 -5.258860e-01 -2.177242e+00 1.254809e+00 -4.544246e+00 5.027286e+00 -9.015334e+00 5.236424e+00 -5.805914e-01 1.404599e+01 5.583083e+00 1.235493e+01 4.638709e+00 1.272961e+01 7.195086e+00 1.382775e+01 8.770096e+00 1.523012e+01 1.083602e+01 1.592872e+01 1.231066e+01 1.534987e+01 1.350558e+01 1.516697e+01 1.437384e+01 1.497142e+01 1.543265e+01 1.437316e+01 1.575185e+01 1.409975e+01 1.553164e+01 1.465495e+01 1.634236e+01 1.562284e+01 1.784969e+01 1.619754e+01 1.858658e+01 1.539888e+01 2.059440e+01 1.376764e+01 3.634358e+01 1.074413e+01 2.083697e+01 -1.346445e+00 2.482970e+00 -1.967614e+00 4.037869e-02 -7.030843e-01 3.241806e-01 -1.861950e-01 6.884482e-01 -5.585784e-03 9.042757e-01 2.060558e-01 7.730342e-01 
1.524455e+00 -1.143870e+00 4.710146e+00 -2.873881e+00 -1.026282e+02 1.268869e+00 -4.779365e-01 -1.181302e+00 -1.158678e+00 -1.180221e+00 -5.115680e-01 3.312465e-01 -4.787276e-01 6.098879e+00 -5.799561e+00 1.383047e+01 -2.709780e+00 -1.183003e+01 -2.864433e+01 -3.280266e+01 -1.797016e+01 -2.129557e+01 -1.779898e+01 -2.202059e+01 -1.952903e+01 -2.175784e+01 -2.155097e+01 -2.249343e+01 -2.219424e+01 -2.249422e+01 -2.089492e+01 -2.233695e+01 -2.047086e+01 -2.171518e+01 -2.014115e+01 -2.136830e+01 -1.941653e+01 -2.006621e+01 -1.941328e+01 -1.826676e+01 -2.073493e+01 -1.807550e+01 -2.254042e+01 -1.866020e+01 -2.384029e+01 -1.802908e+01 -2.329513e+01 -1.948070e+01 -1.997225e+01 -3.623556e+01 -1.622157e+01 -1.779931e+01 -1.073668e+00 3.638064e-02 1.042251e+00 1.291424e+00 4.089489e-01 9.004708e-01 1.576184e-01 8.205768e-01 1.731906e-01 8.762752e-01 4.058745e-01 6.541432e-01 
1.774809e+00 -1.233816e+00 4.820742e+00 -2.446704e+00 -9.968217e+01 1.417525e+00 -4.233780e-01 -1.067585e+00 -1.264027e+00 -1.250579e+00 -9.817315e-01 4.155735e-02 -1.729146e+00 5.105883e+00 -7.142543e+00 1.138805e+01 -3.769645e+00 -3.747019e+00 -2.426789e+01 -2.168124e+01 -1.902366e+01 -1.434254e+01 -1.785369e+01 -1.591833e+01 -1.968011e+01 -1.703716e+01 -2.150886e+01 -1.873591e+01 -2.237677e+01 -1.984920e+01 -2.133326e+01 -2.065612e+01 -2.098664e+01 -2.097189e+01 -2.054584e+01 -2.154895e+01 -1.973751e+01 -2.115293e+01 -1.961603e+01 -2.014328e+01 -2.068436e+01 -2.072973e+01 -2.219489e+01 -2.197783e+01 -2.339865e+01 -2.200729e+01 -2.258745e+01 -2.565799e+01 -1.741116e+01 -3.775952e+01 -1.764106e+01 -2.553401e+01 -1.174489e+00 -2.014319e+00 1.831535e+00 1.197210e+00 7.557226e-01 9.714140e-01 3.204634e-01 8.220964e-01 3.079071e-01 8.146598e-01 5.734443e-01 5.324734e-01 
1.993081e+00 -1.292961e+00 4.838319e+00 -1.938663e+00 -9.489058e+01 1.470477e+00 -4.598830e-01 -8.657181e-01 -1.456601e+00 -1.156982e+00 -1.398643e+00 -9.113877e-01 -1.524216e+00 -1.062975e+00 -1.929073e+00 -1.181074e+00 -8.117123e-01 5.442105e-01 -3.476275e+00 1.767058e-01 -3.182452e+00 -4.024595e-01 -2.914691e+00 -9.259799e-01 -3.012946e+00 -1.484383e+00 -3.206177e+00 -1.862081e+00 -3.369701e+00 -2.048746e+00 -3.262425e+00 -2.335348e+00 -3.094530e+00 -2.679679e+00 -2.920482e+00 -3.044689e+00 -2.768372e+00 -3.347467e+00 -2.711336e+00 -3.604291e+00 -2.768520e+00 -4.065125e+00 -2.915707e+00 -4.514417e+00 -2.873087e+00 -4.790295e+00 -2.558445e+00 -4.765988e+00 -2.234643e+00 -3.263330e+00 -3.129431e+00 -4.297437e+00 -8.685347e-01 -1.533439e+00 4.061954e-01 1.762495e-01 4.376035e-01 6.055831e-01 3.520956e-01 7.070376e-01 4.054884e-01 7.395852e-01 7.118075e-01 4.218987e-01 
2.139427e+00 -1.304912e+00 4.781913e+00 -1.592369e+00 -9.063796e+01 1.549768e+00 -4.102929e-01 -7.157188e-01 -1.479668e+00 -1.056677e+00 -1.469807e+00 -8.891124e-01 -1.327948e+00 -1.573968e+00 -6.023490e-01 -3.089555e+00 8.916196e-01 -1.925499e-01 2.422098e-01 3.765626e-01 -5.755633e-01 -2.666097e-01 -4.019381e-01 -2.618071e-01 -2.967269e-01 -3.840461e-01 -1.934873e-01 -3.014696e-01 -1.771167e-01 -1.110719e-01 -1.614718e-01 -1.131729e-02 -8.800872e-02 -1.921881e-02 -6.742656e-03 -3.532065e-03 -7.006171e-03 -4.186488e-02 -3.059066e-02 -1.835832e-01 1.136330e-02 -3.898590e-01 2.016714e-02 -5.004934e-01 1.223247e-01 -5.813701e-01 2.834180e-01 1.139620e-01 -3.581174e-02 2.599770e+00 -6.143132e-01 4.679703e-01 -6.433607e-01 -7.608376e-01 1.854413e-01 -5.456815e-02 4.148966e-01 4.224166e-01 4.190053e-01 6.014749e-01 4.963425e-01 6.492387e-01 8.268208e-01 3.128051e-01 
2.232456e+00 -1.314615e+00 4.661145e+00 -1.269811e+00 -8.492422e+01 1.548050e+00 -3.665962e-01 -6.878991e-01 -1.427666e+00 -1.194166e+00 -1.328768e+00 -1.187333e+00 -9.438404e-01 -1.359478e+00 -3.032981e-01 -1.436662e+00 3.262555e-01 -8.412005e-01 1.995938e-01 -2.267291e-01 -8.715703e-02 -2.665660e-01 -1.418421e-01 -2.959262e-01 -1.136769e-01 -3.249758e-01 -7.502718e-02 -2.636776e-01 -6.505331e-02 -1.438077e-01 -4.901332e-02 -5.690049e-02 9.717785e-04 -1.368263e-02 4.232300e-02 2.560292e-02 4.037611e-02 2.752800e-02 2.889784e-02 -2.593409e-02 4.529218e-02 -9.666681e-02 4.764762e-02 -1.027338e-01 7.935093e-02 4.967154e-02 1.133738e-02 5.956936e-01 -3.079552e-01 1.326796e+00 -3.709258e-01 6.342669e-01 -2.299440e-01 -3.255355e-02 6.327238e-02 6.022513e-02 2.512860e-01 3.180497e-01 3.610549e-01 4.923113e-01 5.084245e-01 5.566004e-01 8.848725e-01 2.111109e-01 
2.269033e+00 -1.286464e+00 4.473274e+00 -1.018399e+00 -7.960336e+01 1.545869e+00 -2.949028e-01 -5.580260e-01 -1.325317e+00 -1.101959e+00 -1.228790e+00 -1.154017e+00 -8.185598e-01 -1.275215e+00 -3.028915e-01 -1.124326e+00 8.858174e-02 -8.987966e-01 5.208194e-02 -3.252416e-01 -7.540954e-02 -2.637890e-01 -1.211721e-01 -2.898462e-01 -1.012287e-01 -2.925401e-01 -7.141643e-02 -2.389118e-01 -6.113729e-02 -1.417878e-01 -4.572781e-02 -6.789182e-02 -7.309359e-03 -2.365978e-02 2.437208e-02 9.445316e-03 2.794297e-02 1.147236e-02 2.593319e-02 -1.983128e-02 4.065018e-02 -4.828447e-02 4.408765e-02 -2.331079e-02 5.511445e-02 1.575812e-01 -1.963389e-02 5.893082e-01 -2.216739e-01 8.179491e-01 -2.765949e-01 6.580920e-01 -1.658525e-01 2.057222e-01 4.605981e-02 1.321159e-01 2.354823e-01 2.763936e-01 3.760846e-01 4.178205e-01 5.448319e-01 4.716290e-01 9.362495e-01 1.195255e-01 
2.246619e+00 -1.251970e+00 4.235600e+00 -8.089454e-01 -7.312807e+01 1.473872e+00 -2.134671e-01 -5.314800e-01 -1.194303e+00 -1.088647e+00 -1.089440e+00 -1.088174e+00 -7.171022e-01 -1.042851e+00 -3.422774e-01 -9.118505e-01 -1.039135e-01 -7.865911e-01 -5.963029e-02 -4.652589e-01 -5.034676e-02 -3.209577e-01 -6.781704e-02 -2.746963e-01 -6.375267e-02 -2.438885e-01 -5.483699e-02 -1.940876e-01 -4.898397e-02 -1.261397e-01 -3.471302e-02 -6.880296e-02 -5.099979e-03 -3.024547e-02 1.995098e-02 -5.508385e-03 2.979149e-02 7.731841e-04 3.441115e-02 -5.172099e-03 4.002939e-02 3.425670e-03 3.156857e-02 6.159891e-02 6.970904e-03 2.105004e-01 -8.022429e-02 4.384498e-01 -2.085394e-01 5.394355e-01 -1.821889e-01 5.124564e-01 -6.611282e-02 3.135169e-01 5.677122e-02 2.303678e-01 1.908075e-01 2.822977e-01 3.326747e-01 3.709524e-01 5.205017e-01 4.042695e-01 9.302239e-01 4.468557e-02 
2.178984e+00 -1.187947e+00 3.942547e+00 -6.348761e-01 -6.691458e+01 1.410877e+00 -1.476878e-01 -4.290241e-01 -1.063045e+00 -9.872126e-01 -9.901656e-01 -1.006497e+00 -6.669603e-01 -9.443076e-01 -3.615411e-01 -8.132329e-01 -1.507819e-01 -7.142692e-01 -1.150402e-01 -4.698223e-01 -7.846611e-02 -3.232955e-01 -7.282009e-02 -2.665973e-01 -6.457386e-02 -2.281412e-01 -5.460668e-02 -1.803645e-01 -4.749464e-02 -1.219486e-01 -3.421938e-02 -7.170140e-02 -1.056967e-02 -3.558588e-02 1.035131e-02 -1.251612e-02 2.111794e-02 -3.062823e-03 2.732069e-02 1.420124e-03 3.162243e-02 2.169713e-02 2.353515e-02 8.333677e-02 -1.800899e-03 2.098698e-01 -6.809039e-02 3.689851e-01 -1.433404e-01 4.254275e-01 -1.421413e-01 4.453827e-01 -4.060508e-02 3.374312e-01 6.453404e-02 2.581770e-01 1.868618e-01 2.719455e-01 3.284738e-01 3.277230e-01 5.179537e-01 3.404767e-01 9.227288e-01 -1.801448e-02 
2.057886e+00 -1.109844e+00 3.607259e+00 -4.887895e-01 -5.979806e+01 1.290631e+00 -8.117328e-02 -3.848133e-01 -9.292252e-01 -9.055433e-01 -8.777696e-01 -8.994485e-01 -6.073287e-01 -8.155946e-01 -3.624819e-01 -7.117017e-01 -1.988249e-01 -6.119890e-01 -1.318833e-01 -4.530040e-01 -7.786505e-02 -3.284647e-01 -5.545764e-02 -2.537824e-01 -4.478548e-02 -2.021411e-01 -3.889814e-02 -1.545860e-01 -3.379861e-02 -1.067073e-01 -2.331791e-02 -6.550095e-02 -5.596417e-03 -3.482375e-02 1.096725e-02 -1.393697e-02 2.103181e-02 -1.732034e-04 2.559838e-02 1.445417e-02 2.352382e-02 4.357595e-02 8.357202e-03 1.005335e-01 -2.284877e-02 1.883439e-01 -7.588304e-02 2.840351e-01 -1.238325e-01 3.362573e-01 -9.973593e-02 3.577383e-01 -1.824176e-02 3.141697e-01 6.503751e-02 2.700010e-01 1.644558e-01 2.703181e-01 2.919990e-01 3.005025e-01 4.745503e-01 2.943251e-01 8.689784e-01 -6.000974e-02 
1.899790e+00 -1.012792e+00 3.232614e+00 -3.747953e-01 -5.285361e+01 1.183731e+00 -3.290445e-02 -2.975774e-01 -7.952512e-01 -7.908094e-01 -7.757662e-01 -7.985970e-01 -5.507791e-01 -7.211137e-01 -3.438639e-01 -6.289979e-01 -1.995152e-01 -5.424751e-01 -1.405982e-01 -4.165573e-01 -8.850461e-02 -3.071190e-01 -6.025795e-02 -2.360214e-01 -4.629008e-02 -1.857216e-01 -3.848873e-02 -1.416652e-01 -3.242903e-02 -9.952417e-02 -2.287016e-02 -6.322269e-02 -8.394688e-03 -3.528985e-02 5.461441e-03 -1.532121e-02 1.457312e-02 -1.686693e-04 1.875444e-02 1.739145e-02 1.654667e-02 4.748728e-02 3.520740e-03 9.881663e-02 -2.214179e-02 1.703038e-01 -6.005281e-02 2.420839e-01 -8.880449e-02 2.841784e-01 -7.607783e-02 3.089269e-01 -8.273293e-03 2.894902e-01 6.637186e-02 2.573687e-01 1.558489e-01 2.499457e-01 2.733189e-01 2.644286e-01 4.436876e-01 2.450505e-01 8.124597e-01 -9.270850e-02 
1.698073e+00 -9.009019e-01 2.822960e+00 -2.760211e-01 -4.522828e+01 1.031672e+00 8.996692e-03 -2.491787e-01 -6.649024e-01 -6.879411e-01 -6.632948e-01 -6.901238e-01 -4.797812e-01 -6.173931e-01 -3.110099e-01 -5.384718e-01 -1.929009e-01 -4.591882e-01 -1.274410e-01 -3.648215e-01 -7.766615e-02 -2.784356e-01 -4.792687e-02 -2.125115e-01 -3.281806e-02 -1.625334e-01 -2.563539e-02 -1.210845e-01 -2.067769e-02 -8.465475e-02 -1.354207e-02 -5.401508e-02 -3.147460e-03 -3.003328e-02 6.924351e-03 -1.163671e-02 1.333164e-02 4.397513e-03 1.466057e-02 2.340275e-02 9.042791e-03 5.148325e-02 -5.849881e-03 9.236652e-02 -2.957217e-02 1.430953e-01 -5.851318e-02 1.937719e-01 -7.688073e-02 2.313732e-01 -5.824589e-02 2.528223e-01 -6.089061e-03 2.484153e-01 5.503997e-02 2.335803e-01 1.304577e-01 2.287931e-01 2.322596e-01 2.353328e-01 3.846200e-01 2.081502e-01 7.212674e-01 -1.068924e-01 
1.467879e+00 -7.801727e-01 2.389076e+00 -2.085661e-01 -3.771515e+01 8.914436e-01 4.136921e-02 -1.729907e-01 -5.293666e-01 -5.647134e-01 -5.499657e-01 -5.798582e-01 -4.050062e-01 -5.205843e-01 -2.665871e-01 -4.551697e-01 -1.682809e-01 -3.901978e-01 -1.138552e-01 -3.146985e-01 -7.197887e-02 -2.427575e-01 -4.503364e-02 -1.856580e-01 -3.064492e-02 -1.415914e-01 -2.346119e-02 -1.054192e-01 -1.868610e-02 -7.420881e-02 -1.266101e-02 -4.798666e-02 -4.429494e-03 -2.706717e-02 3.574335e-03 -1.042907e-02 8.699838e-03 4.780631e-03 9.475659e-03 2.289688e-02 4.356990e-03 4.831042e-02 -8.064452e-03 8.312461e-02 -2.682463e-02 1.242812e-01 -4.766555e-02 1.642019e-01 -5.922471e-02 1.947843e-01 -4.650744e-02 2.142610e-01 -4.534712e-03 2.148737e-01 4.788722e-02 2.045479e-01 1.126919e-01 1.979965e-01 2.001950e-01 1.978828e-01 3.319933e-01 1.664402e-01 6.259358e-01 -1.152890e-01 
1.205419e+00 -6.475502e-01 1.928026e+00 -1.476235e-01 -2.972572e+01 7.172936e-01 6.444963e-02 -1.254555e-01 -3.983313e-01 -4.520866e-01 -4.287547e-01 -4.685590e-01 -3.189419e-01 -4.199885e-01 -2.117231e-01 -3.663544e-01 -1.346497e-01 -3.124721e-01 -8.665706e-02 -2.549009e-01 -5.216767e-02 -1.999947e-01 -2.993060e-02 -1.534636e-01 -1.790176e-02 -1.157613e-01 -1.226965e-02 -8.476910e-02 -9.012458e-03 -5.875119e-02 -5.200043e-03 -3.722967e-02 -3.249543e-05 -1.991722e-02 4.854933e-03 -5.640049e-03 7.333747e-03 7.910783e-03 5.869805e-03 2.370134e-02 -7.873436e-04 4.431188e-02 -1.310895e-02 7.055902e-02 -2.950896e-02 1.004293e-01 -4.592848e-02 1.301734e-01 -5.376884e-02 1.551091e-01 -4.159153e-02 1.709790e-01 -1.042819e-02 1.742641e-01 3.018209e-02 1.697727e-01 8.181070e-02 1.656598e-01 1.522796e-01 1.635944e-01 2.601531e-01 1.325747e-01 5.062534e-01 -1.098866e-01 
9.242707e-01 -5.132365e-01 1.455333e+00 -1.129370e-01 -2.180550e+01 5.526682e-01 8.574758e-02 -5.881630e-02 -2.606548e-01 -3.249009e-01 -3.042140e-01 -3.529163e-01 -2.291686e-01 -3.202171e-01 -1.503229e-01 -2.812447e-01 -9.377756e-02 -2.417670e-01 -5.960745e-02 -1.989015e-01 -3.533694e-02 -1.568127e-01 -1.955188e-02 -1.202864e-01 -1.120780e-02 -9.034038e-02 -7.631398e-03 -6.576814e-02 -5.819177e-03 -4.529135e-02 -3.542973e-03 -2.838931e-02 -2.047394e-04 -1.468236e-02 2.977425e-03 -3.158649e-03 4.276439e-03 8.049838e-03 2.345312e-03 2.122062e-02 -3.788708e-03 3.815280e-02 -1.428310e-02 5.917734e-02 -2.761576e-02 8.255545e-02 -4.030566e-02 1.053973e-01 -4.630887e-02 1.244521e-01 -3.847486e-02 1.368419e-01 -1.529081e-02 1.394828e-01 1.615807e-02 1.350513e-01 5.588399e-02 1.293590e-01 1.095029e-01 1.240905e-01 1.917164e-01 9.487015e-02 3.829449e-01 -1.015563e-01 
6.229955e-01 -3.704088e-01 9.635253e-01 -7.761741e-02 -1.360171e+01 3.646010e-01 9.721929e-02 -1.122986e-02 -1.270073e-01 -2.050748e-01 -1.750611e-01 -2.375684e-01 -1.325822e-01 -2.185371e-01 -8.246941e-02 -1.926548e-01 -4.660843e-02 -1.657971e-01 -2.475569e-02 -1.372541e-01 -1.038315e-02 -1.090224e-01 -1.807969e-03 -8.360377e-02 1.928787e-03 -6.202804e-02 2.555481e-03 -4.406360e-02 2.136803e-03 -2.916359e-02 2.197999e-03 -1.696975e-02 3.090257e-03 -7.093341e-03 3.878755e-03 1.297663e-03 3.169519e-03 9.542905e-03 -2.009175e-04 1.912975e-02 -6.950527e-03 3.112670e-02 -1.696029e-02 4.566145e-02 -2.880797e-02 6.175031e-02 -3.967938e-02 7.777582e-02 -4.505534e-02 9.141902e-02 -4.001066e-02 9.982440e-02 -2.513516e-02 1.012252e-01 -4.479181e-03 9.743008e-02 2.181035e-02 9.196922e-02 5.715570e-02 8.592833e-02 1.119677e-01 6.143694e-02 2.451098e-01 -8.475822e-02 
3.137423e-01 -2.301362e-01 4.706863e-01 -6.055110e-02 -5.433445e+00 1.849679e-01 1.125096e-01 4.818896e-02 1.192831e-02 -7.729603e-02 -4.322941e-02 -1.196705e-01 -3.340305e-02 -1.172919e-01 -1.097671e-02 -1.065800e-01 3.836348e-03 -9.385830e-02 1.031041e-02 -7.855905e-02 1.323540e-02 -6.213856e-02 1.375903e-02 -4.672638e-02 1.217706e-02 -3.345038e-02 9.377025e-03 -2.242999e-02 6.587979e-03 -1.340682e-02 4.719941e-03 -6.157278e-03 3.852335e-03 -3.951036e-04 3.138364e-03 4.498579e-03 1.372743e-03 9.511799e-03 -2.464423e-03 1.570646e-02 -8.964435e-03 2.377184e-02 -1.798617e-02 3.365776e-02 -2.837456e-02 4.450497e-02 -3.798639e-02 5.500289e-02 -4.376533e-02 6.343009e-02 -4.265191e-02 6.777074e-02 -3.465802e-02 6.650288e-02 -2.319345e-02 6.072547e-02 -9.511804e-03 5.312498e-02 7.689632e-03 4.505418e-02 3.424310e-02 2.560702e-02 1.057768e-01 -6.738121e-02 
-3.013257e-03 -8.420201e-02 -3.323196e-02 -3.581756e-02 2.833096e+00 -8.179870e-03 1.184786e-01 9.891176e-02 1.478933e-01 4.816807e-02 8.976461e-02 -1.377181e-03 6.772594e-02 -1.486567e-02 6.233389e-02 -1.868053e-02 5.621824e-02 -1.947282e-02 4.794829e-02 -1.748952e-02 3.971902e-02 -1.352310e-02 3.204935e-02 -8.826946e-03 2.484484e-02 -4.320565e-03 1.829240e-02 -4.183547e-04 1.285127e-02 2.747615e-03 8.826864e-03 5.136457e-03 6.004852e-03 6.833088e-03 3.576327e-03 8.177558e-03 4.959595e-04 9.749225e-03 -4.121000e-03 1.215778e-02 -1.076408e-02 1.577064e-02 -1.931100e-02 2.051660e-02 -2.889599e-02 2.586090e-02 -3.797868e-02 3.092199e-02 -4.448654e-02 3.435114e-02 -4.670984e-02 3.445586e-02 -4.561952e-02 3.026926e-02 -4.395160e-02 2.261820e-02 -4.348506e-02 1.342981e-02 -4.488403e-02 4.166729e-03 -4.706031e-02 -9.113233e-03 -3.823965e-02 -4.689734e-02 
-3.166559e-01 5.663123e-02 -5.284991e-01 -2.023284e-02 1.109294e+01 -1.926435e-01 1.327342e-01 1.545111e-01 2.862721e-01 1.738891e-01 2.235818e-01 1.157671e-01 1.702391e-01 8.570427e-02 1.376704e-01 6.675006e-02 1.104624e-01 5.221237e-02 8.634374e-02 4.171732e-02 6.631094e-02 3.456229e-02 5.012344e-02 2.959031e-02 3.700838e-02 2.583308e-02 2.643988e-02 2.270084e-02 1.819665e-02 1.986330e-02 1.206096e-02 1.711302e-02 7.527890e-03 1.437385e-02 3.727964e-03 1.177779e-02 -3.356701e-04 9.641757e-03 -5.492876e-03 8.302512e-03 -1.221541e-02 7.907795e-03 -2.047106e-02 8.276979e-03 -2.967938e-02 8.896383e-03 -3.883929e-02 9.010103e-03 -4.676027e-02 7.579404e-03 -5.270333e-02 3.382683e-03 -5.776243e-02 -4.339619e-03 -6.484813e-02 -1.495901e-02 -7.680557e-02 -2.678341e-02 -9.630050e-02 -3.782168e-02 -1.269632e-01 -4.500950e-02 -1.807441e-01 -2.793156e-02 