# vtk DataFile Version 2.0
Comment goes here
ASCII

DATASET STRUCTURED_POINTS
FIELD FieldData 1
TIME 1 1 double
0.00500000
DIMENSIONS    64   64   1

ORIGIN    0.000   0.000   0.000
SPACING   0.03125 0.03125   1.000

POINT_DATA   4096
SCALARS Omega double
LOOKUP_TABLE default

-1.688576e-03 -2.900808e-02 7.219315e-03 -3.290952e-02 3.866632e-03 -1.413334e-02 -1.356753e-02 1.732875e-03 -3.398466e-02 2.386060e-02 -5.894913e-02 5.380512e-02 -9.556415e-02 1.018587e-01 -1.407637e-01 1.646504e-01 -1.953375e-01 2.291320e-01 -2.267690e-01 1.488280e-01 -3.154770e-02 -1.021246e-01 1.893240e-01 -2.143411e-01 1.793165e-01 -7.255507e-02 7.244596e-02 -2.079475e-02 8.001998e-02 -5.564067e-02 9.545661e-02 -5.661035e-02 7.889986e-02 -4.409449e-02 6.732550e-02 -3.510073e-02 6.250520e-02 -3.598156e-02 6.735937e-02 -3.040131e-02 5.312776e-02 -1.877878e-02 3.442954e-02 1.782977e-03 8.004722e-03 2.154144e-02 -9.527509e-03 2.171677e-02 2.598469e-04 1.246581e-02 -1.359438e-02 1.512571e-03 -1.827970e-02 -2.774355e-03 -2.071808e-02 -2.536609e-04 -2.894007e-02 1.033646e-02 -3.563617e-02 9.724805e-03 -2.726562e-02 -1.647694e-03 -1.840775e-02 -6.592276e-03 
-3.787423e+00 -1.184419e+00 1.183964e+00 -8.789227e-01 1.162942e-02 -1.485303e-01 -1.300593e+00 1.314288e+00 -2.746126e+00 2.445646e+00 -3.798800e+00 2.968937e+00 -4.026824e+00 2.443026e+00 -3.254831e+00 1.546807e+00 -2.898729e+00 1.356179e+00 -3.002464e+00 1.066099e+00 -2.719576e+00 6.129980e-01 -2.324802e+00 9.396051e-02 -1.984295e+00 -3.457720e-01 -1.722540e+00 -6.950709e-01 -1.502913e+00 -9.373203e-01 -1.467241e+00 -1.030583e+00 -1.582643e+00 -9.759820e-01 -1.734954e+00 -9.708067e-01 -1.797146e+00 -1.019870e+00 -1.823099e+00 -1.109335e+00 -1.802507e+00 -1.221171e+00 -1.769651e+00 -1.303677e+00 -1.821458e+00 -1.283738e+00 -1.968868e+00 -1.197584e+00 -2.147788e+00 -1.024299e+00 -2.333225e+00 -9.285496e-01 -2.459290e+00 -8.534357e-01 -2.634275e+00 -8.565390e-01 -2.194015e+00 -1.777031e+00 -1.267347e+00 -2.113493e+00 -1.887602e+00 -4.690191e-01 -5.059140e+00 2.901695e+00 
-1.299269e+00 8.783192e+00 -8.033944e+00 5.469897e+00 -3.606790e+00 4.763867e+00 -3.806936e+00 3.257144e+00 -3.808802e+00 2.133934e+00 -3.610855e+00 1.229341e+00 -3.584968e+00 9.362584e-01 -4.113631e+00 8.449046e-01 -4.072783e+00 8.939332e-02 -3.501245e+00 -3.438716e-01 -3.574761e+00 -4.483046e-01 -3.659652e+00 -7.200424e-01 -3.245857e+00 -1.371565e+00 -2.763803e+00 -1.698329e+00 -2.715727e+00 -1.751630e+00 -2.674226e+00 -1.810586e+00 -2.574172e+00 -1.899174e+00 -2.509283e+00 -1.894798e+00 -2.536218e+00 -1.842908e+00 -2.549560e+00 -1.806256e+00 -2.507345e+00 -1.801361e+00 -2.460850e+00 -1.756575e+00 -2.411195e+00 -1.681912e+00 -2.359334e+00 -1.529842e+00 -2.378487e+00 -1.340994e+00 -2.371995e+00 -1.022087e+00 -2.389995e+00 -8.393217e-01 -2.079341e+00 -8.648968e-01 -2.126327e+00 -5.288898e-02 -2.630761e+00 3.840061e-01 -1.739444e+00 -8.642844e-01 3.065353e+00 -6.169674e+00 
2.277322e-02 4.708910e+00 -4.341205e+00 3.086432e+00 -1.839161e-01 2.337828e+00 -1.724993e+00 1.424714e+00 -1.467227e+00 6.484161e-01 -1.177487e+00 9.712964e-02 -1.126254e+00 4.915775e-02 -1.539908e+00 1.721104e-01 -1.588154e+00 -1.704808e-01 -1.280817e+00 -3.505444e-01 -1.340747e+00 -3.567764e-01 -1.425339e+00 -4.146732e-01 -1.281253e+00 -6.422606e-01 -1.100863e+00 -7.379118e-01 -1.114093e+00 -7.272061e-01 -1.095936e+00 -7.424172e-01 -1.022497e+00 -8.006774e-01 -9.588805e-01 -8.013033e-01 -9.600924e-01 -7.663930e-01 -9.623955e-01 -7.283539e-01 -9.498787e-01 -7.004552e-01 -9.376037e-01 -6.579110e-01 -9.080914e-01 -6.205346e-01 -8.572170e-01 -5.611087e-01 -8.314171e-01 -5.019319e-01 -7.971835e-01 -3.598622e-01 -7.852808e-01 -2.811952e-01 -5.957495e-01 -2.931363e-01 -6.998478e-01 2.895571e-01 -1.125561e+00 5.742655e-01 -5.581581e-01 -3.630300e-01 2.478151e+00 -3.673372e+00 
-2.313943e-03 1.090462e-02 -1.230585e-02 -8.305537e-02 -5.446032e+00 6.895852e-02 -1.483161e-03 9.122831e-04 -2.198909e-03 1.100007e-04 -2.185489e-03 -1.030888e-04 -2.750518e-03 -1.115479e-04 -3.321472e-03 -1.858716e-04 -3.097433e-03 -6.013206e-04 -2.568982e-03 -1.057765e-03 -2.529746e-03 -1.091873e-03 -2.599645e-03 -1.053733e-03 -2.363129e-03 -1.320634e-03 -2.117653e-03 -1.512237e-03 -2.051459e-03 -1.498237e-03 -1.980695e-03 -1.478434e-03 -1.846534e-03 -1.531585e-03 -1.737659e-03 -1.531215e-03 -1.690007e-03 -1.457947e-03 -1.626758e-03 -1.396261e-03 -1.557086e-03 -1.316996e-03 -1.494281e-03 -1.235329e-03 -1.393488e-03 -1.164982e-03 -1.284531e-03 -1.083463e-03 -1.221291e-03 -1.014096e-03 -1.084354e-03 -7.510156e-04 -1.041433e-03 -4.701266e-04 -8.568317e-04 -3.539295e-04 -7.208178e-04 1.398985e-04 -1.234292e-03 1.276270e-03 -1.622607e-03 4.184090e-04 5.294271e-03 -1.759173e-03 
-2.725479e-04 -3.838912e-03 -3.458668e-03 3.172406e-02 -4.717349e+00 -5.444375e-02 1.317088e-03 -3.269573e-04 7.992440e-04 -3.144638e-04 4.409474e-04 -2.373830e-04 2.939261e-04 -9.758330e-05 1.926508e-04 2.496488e-04 4.380723e-04 2.892032e-04 3.168726e-04 2.783525e-04 2.830968e-04 3.557865e-04 2.988421e-04 4.635524e-04 2.901264e-04 4.696434e-04 2.947082e-04 4.056260e-04 3.148921e-04 3.779965e-04 3.649104e-04 3.482093e-04 4.001228e-04 3.241238e-04 3.775681e-04 3.433684e-04 3.580932e-04 3.724160e-04 3.371562e-04 3.995574e-04 3.174158e-04 4.049593e-04 3.448316e-04 3.599731e-04 3.531713e-04 3.224528e-04 3.532576e-04 2.657437e-04 3.374359e-04 3.745538e-05 2.461110e-05 9.703716e-06 -7.364685e-05 4.778978e-05 -8.681524e-05 7.056511e-05 -1.792821e-04 -1.363689e-05 -3.901099e-04 -2.180812e-05 -5.377050e-04 4.002830e-04 6.325792e-04 3.394734e-03 
-1.359109e-03 -1.759448e-03 -3.001439e-03 9.361467e-02 -6.973644e+00 -1.256838e-01 1.782621e-03 -2.336251e-04 1.148132e-03 -2.519405e-04 6.184514e-04 -2.009946e-04 3.618264e-04 -1.051729e-04 2.179257e-04 1.105380e-01 2.230120e-01 1.839402e-01 2.514760e-01 2.287906e-01 2.592001e-01 2.717214e-01 2.579399e-01 3.192171e-01 2.486618e-01 3.357631e-01 2.797048e-01 3.206285e-01 3.105749e-01 3.060907e-01 3.448040e-01 2.837386e-01 3.705862e-01 2.871373e-01 3.524336e-01 3.154586e-01 3.262310e-01 3.387425e-01 3.018909e-01 3.662569e-01 2.763325e-01 3.606563e-01 2.966371e-01 3.244813e-01 3.131060e-01 2.952055e-01 3.302277e-01 2.652986e-01 3.420154e-01 1.729503e-01 3.251111e-04 5.191651e-05 -9.874546e-05 5.180648e-05 -9.972310e-05 6.345654e-05 -1.552572e-04 5.756855e-05 -2.776356e-04 4.888863e-05 -3.780814e-04 2.335801e-04 1.704987e-04 1.923134e-03 
-3.876878e-04 -7.095454e-04 -1.011191e-03 1.012658e-01 -6.298930e+00 -1.305550e-01 3.439469e-04 -1.439548e-04 5.228278e-04 -2.616367e-04 3.938261e-04 -2.546052e-04 3.513614e-04 -2.798996e-04 4.999026e-04 2.729993e-01 5.515896e-01 4.545839e-01 6.226715e-01 5.657393e-01 6.420695e-01 6.721578e-01 6.390480e-01 7.899070e-01 6.161225e-01 8.310897e-01 6.930599e-01 7.938588e-01 7.696040e-01 7.580535e-01 8.544453e-01 7.028360e-01 9.183904e-01 7.114089e-01 8.734742e-01 7.817288e-01 8.085609e-01 8.395629e-01 7.482618e-01 9.078989e-01 6.849030e-01 8.941456e-01 7.352432e-01 8.046251e-01 7.761371e-01 7.322098e-01 8.187202e-01 6.582331e-01 8.483016e-01 4.293579e-01 5.825210e-04 2.238785e-04 -1.634289e-04 1.028508e-04 -1.210169e-04 8.883883e-05 -1.653009e-04 8.482608e-05 -2.514516e-04 1.390992e-04 -2.444077e-04 4.028832e-04 1.431140e-04 8.280972e-04 
-6.701422e-04 -2.614273e-04 -9.687287e-04 7.414983e-02 -7.647344e+00 -1.085282e-01 5.456042e-04 -1.681175e-04 6.816935e-04 -2.307202e-04 4.955665e-04 -2.478601e-04 4.032828e-04 -3.514604e-04 5.485273e-04 5.510462e-02 1.123473e-01 9.201397e-02 1.272336e-01 1.147876e-01 1.313925e-01 1.366863e-01 1.308782e-01 1.609521e-01 1.262529e-01 1.695703e-01 1.420079e-01 1.621483e-01 1.577169e-01 1.549977e-01 1.751429e-01 1.438350e-01 1.883065e-01 1.457169e-01 1.791570e-01 1.602547e-01 1.658795e-01 1.722406e-01 1.535334e-01 1.863960e-01 1.405416e-01 1.837090e-01 1.508953e-01 1.654727e-01 1.593313e-01 1.507371e-01 1.681722e-01 1.356411e-01 1.745246e-01 8.856520e-02 -8.214409e-05 1.959080e-04 -1.323787e-04 1.027230e-04 -1.079088e-04 9.488936e-05 -1.387813e-04 1.101192e-04 -2.022160e-04 1.531348e-04 -2.484489e-04 3.039223e-04 -1.913405e-04 5.775460e-04 
-8.930587e-05 -7.367928e-05 -1.847203e-05 7.406787e-02 -7.022235e+00 -1.060029e-01 -2.357769e-04 -1.115220e-04 1.918652e-04 -2.085637e-04 2.129066e-04 -2.019468e-04 1.783957e-04 -1.344497e-04 6.553162e-05 -2.704650e-01 -5.455444e-01 -4.501757e-01 -6.158400e-01 -5.601596e-01 -6.350294e-01 -6.653962e-01 -6.320439e-01 -7.818063e-01 -6.093722e-01 -8.224894e-01 -6.855321e-01 -7.856011e-01 -7.612851e-01 -7.501141e-01 -8.452309e-01 -6.954283e-01 -9.085016e-01 -7.038535e-01 -8.640731e-01 -7.733696e-01 -7.998615e-01 -8.305293e-01 -7.402198e-01 -8.980741e-01 -6.775530e-01 -8.844196e-01 -7.273601e-01 -7.958089e-01 -7.678274e-01 -7.241344e-01 -8.099492e-01 -6.509471e-01 -8.391355e-01 -4.245506e-01 -7.529647e-04 -6.082349e-05 -2.110815e-06 5.322158e-05 -6.970748e-05 9.273724e-05 -1.084054e-04 1.240415e-04 -1.362472e-04 1.828925e-04 -1.047882e-04 2.978264e-04 1.505251e-05 3.468133e-04 
-2.061012e-04 9.731905e-05 -6.289945e-05 4.797631e-02 -7.848880e+00 -8.278808e-02 -1.124164e-04 -1.726411e-04 2.551261e-04 -1.971471e-04 2.429896e-04 -1.587363e-04 1.393828e-04 -1.810766e-05 -1.010257e-04 -1.658662e-01 -3.350160e-01 -2.761603e-01 -3.785249e-01 -3.437842e-01 -3.904687e-01 -4.085601e-01 -3.887034e-01 -4.802484e-01 -3.748172e-01 -5.053937e-01 -4.216677e-01 -4.828522e-01 -4.682790e-01 -4.611522e-01 -5.199441e-01 -4.276172e-01 -5.588931e-01 -4.328852e-01 -5.315934e-01 -4.757259e-01 -4.921123e-01 -5.109726e-01 -4.554236e-01 -5.526242e-01 -4.168738e-01 -5.443126e-01 -4.475328e-01 -4.898844e-01 -4.724431e-01 -4.458607e-01 -4.984080e-01 -4.008616e-01 -5.165377e-01 -2.614819e-01 -3.691713e-04 -8.846952e-05 3.468406e-05 4.320366e-05 -4.747013e-05 9.332375e-05 -8.840427e-05 1.311084e-04 -1.225067e-04 1.808895e-04 -1.403192e-04 2.588513e-04 -1.336402e-04 3.080377e-04 
1.568124e-04 1.131265e-04 3.857863e-04 4.867774e-02 -7.254269e+00 -8.114193e-02 -5.476970e-04 -1.431582e-04 -7.404972e-05 -1.842065e-04 2.533174e-05 -1.613150e-04 3.545113e-05 -8.074007e-05 -1.432705e-05 -3.055856e-03 -5.979244e-03 -4.927881e-03 -6.888862e-03 -6.131497e-03 -7.155943e-03 -7.316175e-03 -7.142917e-03 -8.645305e-03 -6.907962e-03 -9.155202e-03 -7.771083e-03 -8.780187e-03 -8.629997e-03 -8.419022e-03 -9.584324e-03 -7.827792e-03 -1.030059e-02 -7.928484e-03 -9.799291e-03 -8.733628e-03 -9.072367e-03 -9.404190e-03 -8.390099e-03 -1.019458e-02 -7.676316e-03 -1.008497e-02 -8.240010e-03 -9.103344e-03 -8.692050e-03 -8.311126e-03 -9.176066e-03 -7.474569e-03 -9.573923e-03 -4.746937e-03 2.068854e-07 1.198906e-06 -3.063750e-06 5.708186e-05 -3.223453e-05 9.847893e-05 -4.832568e-05 1.364296e-04 -4.522984e-05 1.834188e-04 -3.958808e-06 2.368481e-04 7.930549e-05 2.401207e-04 
9.140785e-05 1.989142e-04 3.377151e-04 2.831536e-02 -7.741872e+00 -6.228220e-02 -4.469943e-04 -1.977217e-04 -4.161761e-05 -1.948857e-04 4.849696e-05 -1.645255e-04 5.262591e-05 -1.154893e-04 2.339726e-05 -9.273321e-05 1.478847e-04 -3.667449e-05 1.109265e-04 5.184294e-06 8.655280e-05 3.410366e-05 7.283225e-05 5.407390e-05 5.764705e-05 6.272223e-05 6.262411e-05 6.502764e-05 6.846198e-05 6.363302e-05 7.585873e-05 6.169307e-05 8.468117e-05 6.689864e-05 8.182020e-05 7.503339e-05 7.606897e-05 8.168386e-05 7.226870e-05 8.984528e-05 6.606525e-05 8.737682e-05 6.807374e-05 8.048857e-05 7.016165e-05 7.888696e-05 6.218947e-05 8.835494e-05 2.593076e-05 1.034697e-04 2.582329e-06 3.895790e-05 -7.556583e-06 6.981891e-05 -2.660221e-05 1.034910e-04 -4.087685e-05 1.393050e-04 -4.661608e-05 1.811512e-04 -3.398042e-05 2.265493e-04 8.370106e-06 2.469765e-04 
3.125956e-04 1.815212e-04 5.556221e-04 3.029579e-02 -7.163307e+00 -6.196216e-02 -6.948003e-04 -1.811020e-04 -2.467455e-04 -1.890221e-04 -1.057398e-04 -1.708728e-04 -4.288207e-05 -1.246679e-04 -6.289116e-05 2.584946e-02 5.244076e-02 4.323961e-02 5.908246e-02 5.380204e-02 6.088094e-02 6.388721e-02 6.056287e-02 7.501785e-02 5.838408e-02 7.886275e-02 6.568205e-02 7.529135e-02 7.291715e-02 7.186246e-02 8.094584e-02 6.659741e-02 8.696960e-02 6.741427e-02 8.268445e-02 7.404389e-02 7.653508e-02 7.949255e-02 7.081690e-02 8.592595e-02 6.482974e-02 8.457352e-02 6.959928e-02 7.606749e-02 7.345271e-02 6.919353e-02 7.745573e-02 6.218519e-02 8.015350e-02 4.062874e-02 1.156928e-04 6.286577e-05 -1.008252e-05 8.470365e-05 -8.497093e-06 1.096693e-04 5.290897e-07 1.399670e-04 2.571158e-05 1.750644e-04 8.003492e-05 2.075558e-04 1.726814e-04 2.151559e-04 
2.664858e-04 2.275324e-04 5.152659e-04 1.483573e-02 -7.412178e+00 -4.707024e-02 -6.012113e-04 -2.176070e-04 -2.218780e-04 -2.040402e-04 -8.212175e-05 -1.888744e-04 3.138588e-06 -1.947493e-04 7.448558e-05 1.223557e-01 2.480696e-01 2.045701e-01 2.799205e-01 2.545696e-01 2.886651e-01 3.024281e-01 2.872881e-01 3.553356e-01 2.770417e-01 3.737125e-01 3.116875e-01 3.569491e-01 3.460843e-01 3.408355e-01 3.842476e-01 3.159687e-01 4.129141e-01 3.199602e-01 3.926422e-01 3.515352e-01 3.634794e-01 3.775214e-01 3.363551e-01 4.082127e-01 3.079209e-01 4.019039e-01 3.306009e-01 3.616276e-01 3.489732e-01 3.290602e-01 3.681313e-01 2.957818e-01 3.813016e-01 1.933622e-01 3.020723e-04 1.398635e-04 -5.311877e-05 1.027523e-04 -1.395418e-05 1.145235e-04 2.559034e-07 1.412012e-04 1.880762e-05 1.741202e-04 5.715803e-05 2.069565e-04 1.312604e-04 2.276772e-04 
3.959910e-04 2.059378e-04 6.174493e-04 1.752513e-02 -6.841182e+00 -4.747793e-02 -7.422210e-04 -2.046078e-04 -3.431689e-04 -2.005802e-04 -1.815986e-04 -2.062645e-04 -4.677989e-05 -2.779055e-04 1.457188e-04 8.563248e-02 1.740916e-01 1.433301e-01 1.967199e-01 1.785243e-01 2.030027e-01 2.122673e-01 2.021125e-01 2.495932e-01 1.949604e-01 2.626445e-01 2.193630e-01 2.509744e-01 2.436105e-01 2.397438e-01 2.705167e-01 2.223302e-01 2.907454e-01 2.252171e-01 2.765168e-01 2.475267e-01 2.560087e-01 2.659087e-01 2.369249e-01 2.876151e-01 2.169070e-01 2.832596e-01 2.329047e-01 2.549732e-01 2.458818e-01 2.321114e-01 2.594502e-01 2.087299e-01 2.689172e-01 1.365282e-01 1.280252e-04 1.956646e-04 -4.987461e-05 1.190710e-04 6.435635e-06 1.178191e-04 3.870104e-05 1.379445e-04 7.916836e-05 1.648830e-04 1.435911e-04 1.905046e-04 2.440746e-04 2.054645e-04 
3.568850e-04 2.286709e-04 5.815659e-04 5.820582e-03 -6.913235e+00 -3.566919e-02 -6.530578e-04 -2.215092e-04 -3.229892e-04 -2.016061e-04 -1.789375e-04 -1.848001e-04 -9.259337e-05 -1.783851e-04 -1.450905e-05 -1.075398e-01 -2.173444e-01 -1.795455e-01 -2.451193e-01 -2.232743e-01 -2.527168e-01 -2.651093e-01 -2.514818e-01 -3.113533e-01 -2.424920e-01 -3.273711e-01 -2.728171e-01 -3.126261e-01 -3.029148e-01 -2.984586e-01 -3.363019e-01 -2.766386e-01 -3.613736e-01 -2.800779e-01 -3.436131e-01 -3.076640e-01 -3.180793e-01 -3.303587e-01 -2.943389e-01 -3.571665e-01 -2.694567e-01 -3.516027e-01 -2.892992e-01 -3.163072e-01 -3.053694e-01 -2.877596e-01 -3.221121e-01 -2.585960e-01 -3.335640e-01 -1.689498e-01 -3.302175e-04 5.846165e-05 2.766424e-05 8.940230e-05 2.437172e-05 1.105438e-04 4.031843e-05 1.352782e-04 7.108055e-05 1.631323e-04 1.243464e-04 1.908081e-04 2.131281e-04 2.134129e-04 
4.272552e-04 2.078917e-04 6.201887e-04 8.780592e-03 -6.345763e+00 -3.635140e-02 -7.308135e-04 -2.051189e-04 -3.947543e-04 -1.837498e-04 -2.588677e-04 -1.508756e-04 -1.921907e-04 -7.049069e-05 -2.062573e-04 -1.118444e-01 -2.265757e-01 -1.868821e-01 -2.557965e-01 -2.325653e-01 -2.638555e-01 -2.763307e-01 -2.626387e-01 -3.247371e-01 -2.533072e-01 -3.415950e-01 -2.850066e-01 -3.263300e-01 -3.164865e-01 -3.116463e-01 -3.514156e-01 -2.889436e-01 -3.776612e-01 -2.926208e-01 -3.591462e-01 -3.215298e-01 -3.324905e-01 -3.453354e-01 -3.076925e-01 -3.734542e-01 -2.816935e-01 -3.677270e-01 -3.024594e-01 -3.309180e-01 -3.192888e-01 -3.011519e-01 -3.368582e-01 -2.707160e-01 -3.490135e-01 -1.769526e-01 -2.512618e-04 -2.244961e-05 7.301327e-05 6.544861e-05 5.543649e-05 1.002843e-04 7.581543e-05 1.263833e-04 1.179494e-04 1.516465e-04 1.847182e-04 1.753382e-04 2.840923e-04 1.944357e-04 
3.898214e-04 2.157444e-04 5.848196e-04 1.674974e-04 -6.282662e+00 -2.713417e-02 -6.441370e-04 -2.098210e-04 -3.685782e-04 -1.831355e-04 -2.400364e-04 -1.505903e-04 -1.654040e-04 -9.688246e-05 -1.364572e-04 -1.527823e-02 -3.086369e-02 -2.541674e-02 -3.490616e-02 -3.163621e-02 -3.603095e-02 -3.761870e-02 -3.587674e-02 -4.424798e-02 -3.461747e-02 -4.658940e-02 -3.895494e-02 -4.453785e-02 -4.326374e-02 -4.256052e-02 -4.804831e-02 -3.947822e-02 -5.164346e-02 -3.998925e-02 -4.911889e-02 -4.395786e-02 -4.547994e-02 -4.723371e-02 -4.208938e-02 -5.110319e-02 -3.853673e-02 -5.035163e-02 -4.138353e-02 -4.533511e-02 -4.368706e-02 -4.127872e-02 -4.610143e-02 -3.711401e-02 -4.781597e-02 -2.418633e-02 -1.482168e-05 2.965310e-05 4.598642e-05 7.076138e-05 5.026912e-05 9.856501e-05 7.017621e-05 1.235829e-04 1.067799e-04 1.487396e-04 1.655820e-04 1.735262e-04 2.558040e-04 1.961733e-04 
4.215520e-04 1.963065e-04 5.860770e-04 3.130977e-03 -5.717480e+00 -2.782004e-02 -6.796983e-04 -1.940750e-04 -4.011449e-04 -1.699105e-04 -2.794994e-04 -1.427315e-04 -1.961003e-04 -1.152367e-04 -1.245709e-04 -1.548891e-04 -8.943351e-05 -1.074002e-04 -8.264473e-05 -8.939916e-05 -7.155929e-05 -8.112794e-05 -6.052908e-05 -7.818134e-05 -5.801319e-05 -8.118689e-05 -6.097474e-05 -7.282195e-05 -6.103281e-05 -6.675266e-05 -6.432311e-05 -5.765307e-05 -6.165110e-05 -4.635557e-05 -5.332520e-05 -4.611291e-05 -4.823240e-05 -4.692918e-05 -4.111283e-05 -4.768492e-05 -3.906310e-05 -5.187829e-05 -4.388777e-05 -4.207426e-05 -4.096056e-05 -3.276798e-05 -4.138731e-05 -1.349656e-05 -5.805122e-05 8.002129e-05 1.283362e-05 5.077588e-05 5.097926e-05 6.847842e-05 6.797495e-05 9.150186e-05 9.513327e-05 1.142157e-04 1.386478e-04 1.367973e-04 2.033131e-04 1.586928e-04 2.952063e-04 1.787124e-04 
3.835041e-04 1.944471e-04 5.486479e-04 -3.021789e-03 -5.548618e+00 -2.068161e-02 -5.957165e-04 -1.908951e-04 -3.694162e-04 -1.663126e-04 -2.552841e-04 -1.416142e-04 -1.754347e-04 -1.205824e-04 -1.142639e-04 -1.271772e-04 -5.708766e-05 -9.774854e-05 -3.929484e-05 -7.580396e-05 -2.742005e-05 -6.035588e-05 -1.885554e-05 -4.941190e-05 -1.596824e-05 -4.216844e-05 -1.312854e-05 -3.294846e-05 -9.684251e-06 -2.507709e-05 -6.998783e-06 -1.669475e-05 -2.549761e-06 -7.076307e-06 1.017142e-06 -4.512686e-07 2.406993e-06 5.042601e-06 3.913353e-06 1.041776e-05 3.111070e-06 1.319968e-05 2.227953e-06 1.939877e-05 4.156571e-06 2.844723e-05 3.875719e-06 4.521416e-05 -2.730771e-06 7.889989e-05 1.687319e-05 6.040824e-05 4.075618e-05 7.192374e-05 5.931712e-05 9.036958e-05 8.519866e-05 1.108629e-04 1.244409e-04 1.323657e-04 1.826261e-04 1.540792e-04 2.664452e-04 1.750152e-04 
3.895495e-04 1.760391e-04 5.270137e-04 -2.463724e-04 -4.986205e+00 -2.118134e-02 -6.023176e-04 -1.755247e-04 -3.753700e-04 -1.540718e-04 -2.698993e-04 -1.335272e-04 -1.902305e-04 -1.174012e-04 -1.266401e-04 -1.140771e-04 -7.839344e-05 -9.051348e-05 -5.313745e-05 -7.123565e-05 -3.652926e-05 -5.684415e-05 -2.519084e-05 -4.606582e-05 -1.914604e-05 -3.866714e-05 -1.484836e-05 -3.063448e-05 -1.072770e-05 -2.327717e-05 -7.378088e-06 -1.561007e-05 -3.284046e-06 -7.098427e-06 1.296066e-07 -6.650267e-07 1.949327e-06 4.635090e-06 3.503018e-06 9.501971e-06 3.613187e-06 1.278444e-05 4.005244e-06 1.879160e-05 6.430805e-06 2.754737e-05 8.395218e-06 4.254965e-05 9.120074e-06 6.751956e-05 2.298037e-05 6.060644e-05 4.698157e-05 6.863954e-05 7.026976e-05 8.370388e-05 1.003570e-04 1.014928e-04 1.427511e-04 1.204606e-04 2.020111e-04 1.397076e-04 2.827408e-04 1.584196e-04 
3.500894e-04 1.678294e-04 4.863407e-04 -4.525281e-03 -4.733123e+00 -1.561972e-02 -5.216187e-04 -1.667101e-04 -3.397711e-04 -1.463514e-04 -2.429608e-04 -1.273301e-04 -1.702194e-04 -1.117136e-04 -1.146639e-04 -1.019816e-04 -7.283484e-05 -8.442507e-05 -4.874420e-05 -6.807913e-05 -3.347615e-05 -5.488005e-05 -2.341824e-05 -4.454273e-05 -1.734514e-05 -3.633796e-05 -1.301635e-05 -2.853918e-05 -9.396285e-06 -2.135652e-05 -6.316031e-06 -1.430639e-05 -3.166738e-06 -7.308174e-06 -5.416556e-07 -1.367108e-06 1.181182e-06 3.860059e-06 2.455863e-06 8.789218e-06 3.025699e-06 1.344190e-05 3.710770e-06 1.971138e-05 5.345563e-06 2.833986e-05 7.147561e-06 4.061857e-05 9.989292e-06 5.554242e-05 2.203358e-05 5.851172e-05 4.016132e-05 6.724578e-05 6.090685e-05 8.061727e-05 8.815045e-05 9.665129e-05 1.261906e-04 1.141912e-04 1.794098e-04 1.324021e-04 2.524876e-04 1.505109e-04 
3.388365e-04 1.500003e-04 4.504770e-04 -2.068698e-03 -4.175088e+00 -1.580792e-02 -5.079082e-04 -1.509521e-04 -3.283358e-04 -1.332767e-04 -2.415190e-04 -1.169028e-04 -1.735975e-04 -1.030487e-04 -1.207165e-04 -9.205049e-05 -8.179865e-05 -7.665559e-05 -5.621084e-05 -6.219817e-05 -3.898318e-05 -5.021347e-05 -2.729720e-05 -4.062396e-05 -1.970784e-05 -3.298482e-05 -1.441210e-05 -2.599726e-05 -1.024131e-05 -1.950295e-05 -6.817469e-06 -1.314853e-05 -3.647645e-06 -6.872019e-06 -9.994312e-07 -1.392748e-06 9.125753e-07 3.444735e-06 2.411721e-06 7.966907e-06 3.504338e-06 1.240556e-05 4.901782e-06 1.822263e-05 7.291599e-06 2.607649e-05 1.053314e-05 3.677126e-05 1.560829e-05 4.909003e-05 2.687474e-05 5.399794e-05 4.475680e-05 6.176476e-05 6.676427e-05 7.312832e-05 9.522440e-05 8.693824e-05 1.334149e-04 1.022273e-04 1.846450e-04 1.182528e-04 2.521474e-04 1.343649e-04 
2.979188e-04 1.376642e-04 4.063205e-04 -4.948382e-03 -3.854142e+00 -1.141117e-02 -4.307916e-04 -1.381790e-04 -2.900489e-04 -1.221156e-04 -2.124299e-04 -1.071466e-04 -1.521825e-04 -9.395159e-05 -1.061413e-04 -8.239685e-05 -7.229476e-05 -6.944572e-05 -4.951058e-05 -5.712595e-05 -3.423162e-05 -4.650732e-05 -2.394731e-05 -3.768326e-05 -1.710843e-05 -3.029870e-05 -1.232895e-05 -2.369674e-05 -8.707459e-06 -1.764976e-05 -5.790121e-06 -1.193034e-05 -3.255808e-06 -6.493728e-06 -1.158044e-06 -1.553983e-06 4.458332e-07 3.006319e-06 1.715034e-06 7.445824e-06 2.773382e-06 1.208785e-05 4.048884e-06 1.770030e-05 6.008381e-06 2.476875e-05 8.927819e-06 3.349828e-05 1.388084e-05 4.281680e-05 2.348249e-05 4.949161e-05 3.794364e-05 5.757850e-05 5.675294e-05 6.799709e-05 8.161068e-05 8.037547e-05 1.151519e-04 9.412522e-05 1.603644e-04 1.086538e-04 2.203411e-04 1.233670e-04 
2.749461e-04 1.200269e-04 3.617211e-04 -2.890988e-03 -3.302924e+00 -1.121569e-02 -4.023376e-04 -1.217117e-04 -2.671477e-04 -1.079377e-04 -1.999106e-04 -9.504935e-05 -1.463524e-04 -8.338813e-05 -1.046571e-04 -7.267213e-05 -7.356763e-05 -6.128464e-05 -5.153960e-05 -5.051356e-05 -3.613709e-05 -4.115003e-05 -2.544528e-05 -3.331043e-05 -1.810953e-05 -2.675143e-05 -1.293977e-05 -2.095294e-05 -9.072016e-06 -1.564205e-05 -6.018299e-06 -1.061606e-05 -3.457737e-06 -5.831527e-06 -1.342765e-06 -1.443266e-06 3.431468e-07 2.617346e-06 1.762144e-06 6.565018e-06 3.099560e-06 1.072008e-05 4.759012e-06 1.570065e-05 7.186078e-06 2.189614e-05 1.076171e-05 2.939898e-05 1.637630e-05 3.734483e-05 2.574588e-05 4.367176e-05 3.967696e-05 5.080342e-05 5.806956e-05 5.968166e-05 8.210710e-05 7.020631e-05 1.137082e-04 8.197287e-05 1.550258e-04 9.451848e-05 2.081726e-04 1.073654e-04 
2.329071e-04 1.050599e-04 3.143645e-04 -4.721079e-03 -2.926921e+00 -7.682258e-03 -3.289206e-04 -1.063194e-04 -2.270378e-04 -9.439186e-05 -1.691195e-04 -8.310919e-05 -1.233171e-04 -7.270285e-05 -8.801601e-05 -6.301258e-05 -6.176301e-05 -5.337814e-05 -4.308298e-05 -4.433067e-05 -3.005439e-05 -3.632634e-05 -2.105359e-05 -2.946244e-05 -1.486792e-05 -2.358051e-05 -1.052896e-05 -1.838542e-05 -7.343156e-06 -1.367181e-05 -4.879023e-06 -9.289544e-06 -2.874946e-06 -5.176233e-06 -1.238743e-06 -1.340485e-06 8.359165e-08 2.305038e-06 1.208898e-06 5.938515e-06 2.301957e-06 9.814491e-06 3.649320e-06 1.429397e-05 5.604274e-06 1.961611e-05 8.584759e-06 2.577451e-05 1.334546e-05 3.227819e-05 2.102611e-05 3.837318e-05 3.226551e-05 4.507684e-05 4.743694e-05 5.298307e-05 6.759299e-05 6.213355e-05 9.433896e-05 7.229592e-05 1.295626e-04 8.312040e-05 1.751923e-04 9.419569e-05 
2.020145e-04 8.736128e-05 2.646520e-04 -3.110254e-03 -2.385636e+00 -7.066287e-03 -2.893457e-04 -8.913126e-05 -1.964900e-04 -7.929479e-05 -1.488126e-04 -6.994828e-05 -1.103946e-04 -6.120398e-05 -8.027810e-05 -5.294731e-05 -5.747820e-05 -4.484065e-05 -4.079684e-05 -3.725546e-05 -2.883767e-05 -3.053136e-05 -2.037644e-05 -2.475579e-05 -1.443785e-05 -1.981319e-05 -1.021876e-05 -1.546493e-05 -7.113311e-06 -1.151995e-05 -4.723642e-06 -7.845390e-06 -2.801106e-06 -4.387711e-06 -1.229910e-06 -1.152475e-06 6.868068e-08 1.922727e-06 1.217601e-06 4.983170e-06 2.388950e-06 8.248777e-06 3.848936e-06 1.201054e-05 5.921904e-06 1.645361e-05 8.994124e-06 2.155195e-05 1.367294e-05 2.692766e-05 2.080649e-05 3.208140e-05 3.104565e-05 3.764960e-05 4.479848e-05 4.411874e-05 6.284113e-05 5.159031e-05 8.630974e-05 5.992992e-05 1.165106e-04 6.888798e-05 1.547272e-04 7.815184e-05 
1.593977e-04 7.078467e-05 2.146369e-04 -4.134867e-03 -1.964866e+00 -4.189949e-03 -2.197743e-04 -7.213442e-05 -1.553448e-04 -6.426077e-05 -1.169748e-04 -5.670958e-05 -8.627301e-05 -4.958550e-05 -6.239576e-05 -4.285259e-05 -4.441236e-05 -3.639168e-05 -3.129904e-05 -3.037841e-05 -2.195204e-05 -2.499949e-05 -1.538831e-05 -2.030991e-05 -1.081306e-05 -1.623868e-05 -7.593811e-06 -1.264334e-05 -5.260090e-06 -9.393875e-06 -3.495702e-06 -6.392566e-06 -2.104650e-06 -3.583049e-06 -9.838617e-07 -9.320198e-07 -6.310767e-08 1.627082e-06 7.482549e-07 4.208309e-06 1.580767e-06 6.967236e-06 2.628828e-06 1.008066e-05 4.144652e-06 1.365878e-05 6.453546e-06 1.767926e-05 1.002446e-05 2.195269e-05 1.545184e-05 2.629366e-05 2.324395e-05 3.098920e-05 3.385067e-05 3.631536e-05 4.794845e-05 4.235795e-05 6.647251e-05 4.904049e-05 9.051562e-05 5.618143e-05 1.211808e-04 6.353136e-05 
1.232318e-04 5.291727e-05 1.622705e-04 -3.002960e-03 -1.437254e+00 -3.133891e-03 -1.715124e-04 -5.435259e-05 -1.197376e-04 -4.850378e-05 -9.129310e-05 -4.288395e-05 -6.820320e-05 -3.754093e-05 -4.998935e-05 -3.245379e-05 -3.606697e-05 -2.756901e-05 -2.573506e-05 -2.301782e-05 -1.823834e-05 -1.894230e-05 -1.288733e-05 -1.539072e-05 -9.103182e-06 -1.231303e-05 -6.410578e-06 -9.598456e-06 -4.444625e-06 -7.140329e-06 -2.953310e-06 -4.861054e-06 -1.777275e-06 -2.720228e-06 -8.272365e-07 -6.979935e-07 -3.918775e-08 1.250140e-06 6.668543e-07 3.209801e-06 1.404741e-06 5.303268e-06 2.337494e-06 7.665933e-06 3.672440e-06 1.037609e-05 5.670083e-06 1.340391e-05 8.684899e-06 1.659889e-05 1.315336e-05 1.982920e-05 1.947583e-05 2.328275e-05 2.799574e-05 2.717556e-05 3.916991e-05 3.160084e-05 5.360512e-05 3.652950e-05 7.199506e-05 4.184723e-05 9.502053e-05 4.738239e-05 
8.072697e-05 3.543391e-05 1.102750e-04 -3.387302e-03 -9.801597e-01 -7.799458e-04 -1.060935e-04 -3.648419e-05 -7.838585e-05 -3.264696e-05 -5.925981e-05 -2.893332e-05 -4.385082e-05 -2.538540e-05 -3.179943e-05 -2.199639e-05 -2.266663e-05 -1.875278e-05 -1.595445e-05 -1.572309e-05 -1.114487e-05 -1.298664e-05 -7.764495e-06 -1.057479e-05 -5.415027e-06 -8.462257e-06 -3.774697e-06 -6.587867e-06 -2.600224e-06 -4.888169e-06 -1.725427e-06 -3.314345e-06 -1.048873e-06 -1.836486e-06 -5.160341e-07 -4.332341e-07 -9.038174e-08 9.299835e-07 2.740296e-07 2.310410e-06 6.481002e-07 3.783803e-06 1.137440e-06 5.426586e-06 1.882666e-06 7.279136e-06 3.065087e-06 9.319878e-06 4.921576e-06 1.147095e-05 7.730595e-06 1.367702e-05 1.175688e-05 1.602461e-05 1.725242e-05 1.863065e-05 2.454039e-05 2.155670e-05 3.404449e-05 2.479188e-05 4.625839e-05 2.826546e-05 6.168045e-05 3.186331e-05 
4.117771e-05 1.742876e-05 5.697382e-05 -2.766315e-03 -4.706039e-01 7.331621e-04 -5.083829e-05 -1.830545e-05 -3.957624e-05 -1.649527e-05 -3.006944e-05 -1.474644e-05 -2.231731e-05 -1.306134e-05 -1.619130e-05 -1.141505e-05 -1.151706e-05 -9.792705e-06 -8.071363e-06 -8.241656e-06 -5.606060e-06 -6.823728e-06 -3.884694e-06 -5.570477e-06 -2.700830e-06 -4.472464e-06 -1.882232e-06 -3.492588e-06 -1.296908e-06 -2.591464e-06 -8.572396e-07 -1.742591e-06 -5.151869e-07 -9.361417e-07 -2.512339e-07 -1.700016e-07 -5.500530e-08 5.681755e-07 9.345554e-08 1.309907e-06 2.339016e-07 2.102407e-06 4.303587e-07 2.992277e-06 7.686300e-07 3.996034e-06 1.356817e-06 5.080907e-06 2.331147e-06 6.174044e-06 3.844464e-06 7.225100e-06 6.030133e-06 8.287690e-06 8.993647e-06 9.450805e-06 1.286177e-05 1.077460e-05 1.780751e-05 1.227291e-05 2.403928e-05 1.392040e-05 3.176999e-05 1.566419e-05 
-3.692469e-07 -4.813627e-07 3.790898e-06 -2.619476e-03 1.576397e-02 2.648766e-03 9.884121e-06 -8.233199e-08 1.040239e-06 -2.958990e-07 1.128556e-06 -5.024815e-07 1.217496e-06 -6.812674e-07 1.276335e-06 -7.894785e-07 1.273927e-06 -8.064352e-07 1.198958e-06 -7.524087e-07 1.062085e-06 -6.644490e-07 8.857810e-07 -5.699740e-07 6.963202e-07 -4.771726e-07 5.188760e-07 -3.801078e-07 3.707754e-07 -2.710351e-07 2.554382e-07 -1.488152e-07 1.614104e-07 -2.076152e-08 6.667835e-08 1.025330e-07 -5.164924e-08 2.162527e-07 -2.074317e-07 3.258976e-07 -4.002811e-07 4.444059e-07 -6.150896e-07 5.818082e-07 -8.261551e-07 7.298100e-07 -1.001318e-06 8.533214e-07 -1.105549e-06 8.995115e-07 -1.112926e-06 8.318253e-07 -1.026804e-06 6.665271e-07 -8.835865e-07 4.484292e-07 -7.276458e-07 2.193925e-07 -5.912474e-07 5.286577e-09 -4.888441e-07 -1.829422e-07 -4.192775e-07 -3.433756e-07 
-4.191032e-05 -1.845735e-05 -4.919852e-05 -2.552332e-03 5.021473e-01 4.644177e-03 7.092183e-05 1.823111e-05 4.163857e-05 1.596342e-05 3.232829e-05 1.375868e-05 2.477966e-05 1.166775e-05 1.879211e-05 9.769617e-06 1.411754e-05 8.106514e-06 1.050983e-05 6.674692e-06 7.750040e-06 5.444368e-06 5.653953e-06 4.382909e-06 4.072597e-06 3.466154e-06 2.888489e-06 2.677605e-06 2.007038e-06 2.000744e-06 1.346894e-06 1.413035e-06 8.337674e-07 8.848611e-07 3.987133e-07 3.840652e-07 -1.930894e-08 -1.165807e-07 -4.704127e-07 -6.355010e-07 -9.940748e-07 -1.184866e-06 -1.623270e-06 -1.779519e-06 -2.392156e-06 -2.449268e-06 -3.344140e-06 -3.244703e-06 -4.539736e-06 -4.227967e-06 -6.069308e-06 -5.444804e-06 -8.070042e-06 -6.896721e-06 -1.073157e-05 -8.554313e-06 -1.427923e-05 -1.037829e-05 -1.895297e-05 -1.232819e-05 -2.498777e-05 -1.436056e-05 -3.259075e-05 -1.642373e-05 