# vtk DataFile Version 2.0
Comment goes here
ASCII

DATASET STRUCTURED_POINTS
FIELD FieldData 1
TIME 1 1 double
0.01500000
DIMENSIONS    64   64   1

ORIGIN    0.000   0.000   0.000
SPACING   0.03125 0.03125   1.000

POINT_DATA   4096
SCALARS Omega double
LOOKUP_TABLE default

-1.996583e-01 5.056517e-01 -4.079405e-01 -1.484793e-02 -3.935980e-01 2.082886e-01 -3.383386e-01 1.198795e-01 -3.793129e-01 1.608618e-01 -4.210014e-01 2.316331e-01 -4.610558e-01 3.465723e-01 -4.560007e-01 4.972712e-01 -3.515240e-01 5.923263e-01 -3.415128e-01 6.095548e-01 -3.323641e-01 6.226503e-01 -3.461107e-01 6.456552e-01 -3.523434e-01 6.512727e-01 -3.061567e-01 5.634142e-01 -1.768731e-01 4.098991e-01 -4.563579e-02 3.276258e-01 -1.785077e-02 3.320867e-01 -3.298761e-02 3.436582e-01 -2.672814e-02 3.134330e-01 3.963753e-02 2.339015e-01 1.145718e-01 2.030776e-01 1.783402e-01 1.292828e-01 2.769022e-01 5.097302e-02 3.375659e-01 -2.049577e-02 3.862823e-01 -2.000358e-01 3.608101e-01 -4.794984e-01 4.426667e-01 -7.141413e-01 5.726122e-01 -8.829311e-01 7.113933e-01 -1.024738e+00 8.484683e-01 -1.139075e+00 9.367344e-01 -1.191763e+00 1.168891e+00 -1.437135e+00 
-6.615049e+00 -1.833068e+01 8.356380e+00 -1.873124e+01 6.648385e+00 -1.656612e+01 2.844001e+00 -1.217298e+01 -1.840525e+00 -7.464364e+00 -6.764753e+00 -3.042195e+00 -1.102015e+01 3.544392e-01 -1.430347e+01 2.735272e+00 -1.657887e+01 3.890849e+00 -1.737395e+01 3.725158e+00 -1.685355e+01 2.757928e+00 -1.584737e+01 1.864276e+00 -1.527190e+01 1.550524e+00 -1.519526e+01 1.599573e+00 -1.521264e+01 1.539394e+00 -1.510222e+01 1.644812e+00 -1.539112e+01 1.942124e+00 -1.529387e+01 1.319988e+00 -1.430229e+01 6.303426e-01 -1.423856e+01 1.365705e+00 -1.527877e+01 2.315423e+00 -1.569869e+01 2.252680e+00 -1.511268e+01 1.354055e+00 -1.351210e+01 -5.699553e-01 -1.129093e+01 -2.244375e+00 -9.553788e+00 -2.717327e+00 -9.569606e+00 -1.271290e+00 -1.150500e+01 1.522046e+00 -1.433970e+01 4.646497e+00 -1.676265e+01 6.186612e+00 -1.663649e+01 4.520082e+00 -1.316876e+01 1.294516e+00 
-3.573518e+00 1.493573e+01 -2.032144e+01 1.170681e+01 -1.006457e+01 9.509333e+00 -1.228760e+01 6.819750e+00 -1.391844e+01 4.340826e+00 -1.438839e+01 1.966848e+00 -1.469278e+01 1.745400e-02 -1.519841e+01 -1.816717e+00 -1.604214e+01 -2.998187e+00 -1.671614e+01 -3.225601e+00 -1.770717e+01 -2.920980e+00 -1.872384e+01 -2.661711e+00 -1.928517e+01 -2.726369e+00 -1.950683e+01 -2.886091e+00 -1.974410e+01 -2.755234e+00 -2.010370e+01 -2.929938e+00 -1.969818e+01 -3.598452e+00 -1.942776e+01 -3.421618e+00 -2.006821e+01 -3.029447e+00 -1.991459e+01 -3.840496e+00 -1.881778e+01 -4.737867e+00 -1.832194e+01 -4.760422e+00 -1.841959e+01 -4.409631e+00 -1.892065e+01 -3.241761e+00 -1.954482e+01 -1.895045e+00 -1.911747e+01 -7.600818e-01 -1.808287e+01 -1.009932e+00 -1.618313e+01 -2.179842e+00 -1.371417e+01 -3.829268e+00 -1.095266e+01 -4.992522e+00 -8.935419e+00 -4.741303e+00 -7.778719e+00 -9.019655e+00 
-6.318951e-01 1.089701e+01 -1.243199e+01 9.428480e+00 -2.215681e+00 7.933934e+00 -6.871364e+00 5.651041e+00 -6.928904e+00 3.473531e+00 -6.316635e+00 1.459369e+00 -5.703545e+00 -1.006932e-01 -5.335528e+00 -1.386699e+00 -5.292339e+00 -2.154112e+00 -5.481311e+00 -2.214010e+00 -6.084812e+00 -1.872580e+00 -6.797260e+00 -1.575543e+00 -7.193468e+00 -1.555124e+00 -7.316283e+00 -1.663893e+00 -7.417010e+00 -1.613958e+00 -7.601350e+00 -1.737000e+00 -7.341903e+00 -2.128825e+00 -7.228532e+00 -1.918038e+00 -7.736622e+00 -1.594147e+00 -7.664814e+00 -2.151810e+00 -6.906680e+00 -2.785873e+00 -6.563852e+00 -2.795047e+00 -6.698161e+00 -2.464887e+00 -7.229953e+00 -1.541371e+00 -7.945722e+00 -6.048295e-01 -8.071514e+00 1.112840e-02 -7.548047e+00 -4.213650e-01 -6.212419e+00 -1.562793e+00 -4.414534e+00 -3.013212e+00 -2.536373e+00 -3.935691e+00 -1.500746e+00 -3.570784e+00 -1.276811e+00 -4.528708e+00 
-8.883539e-02 2.135444e-01 -1.851430e-01 -6.306188e-02 -1.626333e+01 -5.561239e-02 1.880880e-02 -2.773437e-03 -2.945203e-02 -2.089835e-03 -3.698002e-02 -1.253333e-03 -3.708894e-02 -2.091764e-03 -4.705705e-02 6.147376e-03 -3.681652e-02 -1.633200e-02 -3.807172e-02 -1.524475e-02 -4.491428e-02 -1.225472e-02 -5.070528e-02 -9.481895e-03 -5.180104e-02 -6.931275e-03 -5.162483e-02 -7.551517e-03 -5.298369e-02 -7.291825e-03 -5.265985e-02 -7.544851e-03 -5.279717e-02 -1.186413e-02 -5.252235e-02 -1.509667e-02 -5.263594e-02 -1.437815e-02 -5.387667e-02 -1.132584e-02 -5.123771e-02 -8.818732e-03 -4.784558e-02 -1.193537e-02 -4.761620e-02 -1.154944e-02 -4.894259e-02 -7.638871e-03 -4.405422e-02 -3.683402e-02 -3.163100e-02 -9.594269e-03 -4.806483e-02 -2.115116e-03 -4.721470e-02 2.152869e-03 -3.781986e-02 2.712657e-03 -2.140096e-02 -6.869703e-03 -7.338406e-03 -3.913821e-02 5.624766e-02 -2.057445e-02 
-3.599061e-02 -1.372917e-01 -1.029298e-01 -9.390707e-02 -1.428440e+01 -1.172330e-01 4.809068e-02 -2.071479e-02 3.210834e-02 -1.154072e-02 1.912467e-02 -8.602353e-03 1.008840e-02 -2.007517e-03 -1.720874e-02 6.829926e-02 4.684984e-02 2.612142e-02 2.909301e-02 2.655407e-02 2.257252e-02 2.869696e-02 1.866415e-02 3.141035e-02 1.694258e-02 3.837745e-02 1.846672e-02 3.538796e-02 1.870856e-02 3.314858e-02 2.189199e-02 2.883455e-02 2.356684e-02 2.028823e-02 2.202626e-02 1.877337e-02 2.069218e-02 1.984572e-02 1.856078e-02 2.308598e-02 1.806462e-02 3.117432e-02 1.864939e-02 2.813058e-02 1.634647e-02 2.930352e-02 1.249067e-02 3.407154e-02 7.138050e-03 -6.463113e-02 2.106771e-02 4.477796e-03 -5.328315e-03 7.065610e-03 -4.989569e-03 5.656202e-03 -4.432009e-03 4.964930e-03 -7.238305e-03 5.895261e-03 -1.204777e-02 2.045023e-02 1.171129e-02 1.030737e-01 
-6.297548e-02 -5.676819e-02 -1.007299e-01 1.679643e-01 -2.156741e+01 -5.003599e-01 5.457117e-02 -1.414635e-02 4.222073e-02 -1.097077e-02 2.744368e-02 -1.010663e-02 2.290635e-02 -1.013555e-02 -2.608352e-02 2.190902e+00 4.954582e+00 3.649698e+00 3.616523e+00 3.301874e+00 3.369504e+00 3.561078e+00 3.203880e+00 3.977388e+00 3.034139e+00 4.014896e+00 3.357916e+00 3.754187e+00 3.650343e+00 3.521827e+00 3.982745e+00 3.233829e+00 4.207424e+00 3.320143e+00 3.980829e+00 3.627938e+00 3.712567e+00 3.902359e+00 3.445593e+00 4.224299e+00 3.187869e+00 4.125818e+00 3.452307e+00 3.787889e+00 3.702432e+00 3.617038e+00 4.113737e+00 4.140615e+00 6.148564e+00 3.496772e+00 8.020294e-02 2.600160e-02 -1.934321e-02 1.035069e-02 -6.443919e-03 7.793761e-03 -2.396507e-03 7.776808e-03 -3.606096e-03 8.325412e-03 -9.482460e-03 1.448299e-02 -7.925088e-03 5.560617e-02 
-2.401947e-02 -1.931864e-02 -4.433921e-02 1.107792e-02 -1.956060e+01 -3.091729e-01 1.848786e-02 -1.650032e-02 2.636485e-02 -1.717172e-02 2.359990e-02 -2.421188e-02 3.762383e-02 -6.066951e-02 4.217979e-02 5.199572e+00 1.192434e+01 8.716801e+00 8.798617e+00 7.936341e+00 8.236595e+00 8.601603e+00 7.853775e+00 9.640160e+00 7.439212e+00 9.753336e+00 8.229675e+00 9.134635e+00 8.958115e+00 8.586036e+00 9.774833e+00 7.896519e+00 1.033734e+01 8.119104e+00 9.789966e+00 8.888919e+00 9.132364e+00 9.574153e+00 8.483920e+00 1.037244e+01 7.839959e+00 1.014066e+01 8.487394e+00 9.324227e+00 9.119847e+00 8.929490e+00 1.016886e+01 1.030178e+01 1.531754e+01 8.736397e+00 6.066556e-02 6.864230e-02 -4.029931e-02 1.780330e-02 -1.198421e-02 8.168301e-03 -6.948493e-03 7.270781e-03 -7.399996e-03 1.046249e-02 -7.710487e-03 2.028617e-02 -2.505471e-03 3.118845e-02 
-3.224481e-02 -2.696063e-03 -4.436013e-02 4.494362e-02 -2.423352e+01 -4.090666e-01 1.751523e-02 -1.438677e-02 3.017728e-02 -1.564359e-02 2.664039e-02 -2.291312e-02 3.505821e-02 -5.570158e-02 7.344996e-02 9.177391e-01 2.234883e+00 1.566405e+00 1.738799e+00 1.458077e+00 1.650403e+00 1.621282e+00 1.585369e+00 1.854442e+00 1.509812e+00 1.902177e+00 1.671969e+00 1.797558e+00 1.825780e+00 1.704053e+00 1.995844e+00 1.577641e+00 2.115419e+00 1.632350e+00 2.008337e+00 1.799654e+00 1.875563e+00 1.949730e+00 1.745404e+00 2.123861e+00 1.613729e+00 2.090705e+00 1.747481e+00 1.937293e+00 1.881004e+00 1.875588e+00 2.108163e+00 2.195434e+00 3.234151e+00 1.853897e+00 -1.616559e-02 3.486361e-02 -1.604798e-02 1.220113e-02 -6.139724e-03 8.367223e-03 -4.104949e-03 8.471929e-03 -5.603200e-03 1.026525e-02 -9.416735e-03 1.492628e-02 -1.414918e-02 2.116657e-02 
-9.708994e-03 5.691532e-03 -1.079303e-02 -8.045033e-02 -2.222308e+01 -2.558889e-01 -3.973928e-03 -1.301657e-02 1.274906e-02 -1.243569e-02 9.856787e-03 -5.763737e-03 -4.060528e-03 2.323791e-02 4.089863e-03 -5.195020e+00 -1.182545e+01 -8.682457e+00 -8.690243e+00 -7.911625e+00 -8.134131e+00 -8.559209e+00 -7.756556e+00 -9.573963e+00 -7.344665e+00 -9.677468e+00 -8.127334e+00 -9.056127e+00 -8.848424e+00 -8.507221e+00 -9.654367e+00 -7.821169e+00 -1.021159e+01 -8.035895e+00 -9.670641e+00 -8.794290e+00 -9.020395e+00 -9.467449e+00 -8.381570e+00 -1.024900e+01 -7.744432e+00 -1.001532e+01 -8.385100e+00 -9.199975e+00 -9.013112e+00 -8.803621e+00 -1.005592e+01 -1.017650e+01 -1.513114e+01 -8.601989e+00 -6.082852e-02 -5.847018e-02 2.833340e-02 -6.971642e-03 3.331889e-03 3.415143e-03 -2.814437e-03 7.314638e-03 -4.762553e-03 1.117600e-02 -4.959578e-03 1.627927e-02 -4.175624e-03 1.790846e-02 
-1.364707e-02 1.003331e-02 -1.187792e-02 -6.531246e-02 -2.529974e+01 -3.113117e-01 -5.943314e-03 -1.302355e-02 1.272116e-02 -9.836120e-03 7.453404e-03 4.591779e-05 -1.396010e-02 3.466204e-02 -1.447595e-02 -3.084879e+00 -7.194906e+00 -5.238755e+00 -5.356189e+00 -4.778319e+00 -5.017031e+00 -5.196931e+00 -4.785442e+00 -5.842631e+00 -4.540781e+00 -5.919646e+00 -5.027880e+00 -5.554092e+00 -5.473862e+00 -5.226243e+00 -5.977966e+00 -4.811056e+00 -6.321871e+00 -4.955750e+00 -5.988354e+00 -5.430090e+00 -5.588372e+00 -5.852878e+00 -5.189427e+00 -6.347136e+00 -4.800345e+00 -6.207950e+00 -5.199813e+00 -5.717409e+00 -5.584401e+00 -5.482080e+00 -6.219041e+00 -6.308354e+00 -9.372031e+00 -5.397179e+00 -7.603481e-02 -4.558569e-02 2.904467e-02 -5.975994e-03 5.342906e-03 3.782805e-03 -1.030189e-03 7.488251e-03 -4.000280e-03 1.019021e-02 -6.656738e-03 1.317420e-02 -9.470646e-03 1.486330e-02 
9.915516e-04 1.170207e-02 7.681219e-03 -1.482453e-01 -2.328615e+01 -1.995633e-01 -1.797974e-02 -1.191518e-02 5.379320e-04 -9.795903e-03 3.899189e-04 -3.159222e-03 -6.179338e-03 1.043919e-02 -1.020608e-02 -8.781109e-02 -1.408800e-01 -7.036081e-02 -1.275296e-01 -6.852030e-02 -1.206710e-01 -8.469786e-02 -1.143612e-01 -1.048441e-01 -1.078583e-01 -1.203743e-01 -1.166913e-01 -1.177122e-01 -1.261876e-01 -1.150684e-01 -1.390071e-01 -1.065147e-01 -1.493739e-01 -1.039658e-01 -1.437703e-01 -1.152545e-01 -1.346720e-01 -1.271320e-01 -1.234966e-01 -1.420884e-01 -1.116738e-01 -1.519644e-01 -1.184899e-01 -1.455192e-01 -1.245429e-01 -1.479505e-01 -1.347978e-01 -1.722456e-01 -1.979102e-01 -5.301715e-02 -9.073419e-03 -1.139843e-02 6.312288e-03 -2.712235e-03 1.926924e-03 3.350028e-03 -9.866631e-04 7.197081e-03 -2.052402e-03 1.055343e-02 -1.732775e-03 1.365439e-02 -4.383073e-04 1.462172e-02 
-1.347572e-03 1.317611e-02 6.566997e-03 -1.399526e-01 -2.526583e+01 -2.324606e-01 -1.887894e-02 -1.304453e-02 9.473857e-04 -9.923248e-03 1.647715e-03 -5.162955e-03 -2.029689e-03 7.939621e-04 -4.802544e-03 -7.258554e-03 2.353246e-02 3.661729e-03 6.542195e-03 7.538258e-03 3.986574e-03 7.954006e-03 3.633576e-03 7.745479e-03 2.201192e-03 6.606147e-03 2.499185e-03 5.964439e-03 3.126489e-03 5.155321e-03 3.672169e-03 4.721756e-03 5.163835e-03 5.631771e-03 5.682065e-03 5.907026e-03 5.289625e-03 5.842108e-03 5.236212e-03 5.891607e-03 4.378823e-03 4.404117e-03 4.438939e-03 3.131359e-03 5.814299e-03 1.957177e-03 6.655435e-03 3.058060e-03 -2.492936e-03 1.529429e-02 -1.271993e-03 -8.038411e-04 2.636321e-03 1.473492e-03 1.035970e-03 4.642368e-03 -6.484954e-04 7.274032e-03 -1.958941e-03 9.661731e-03 -2.882984e-03 1.190385e-02 -3.023505e-03 1.333248e-02 
8.253231e-03 1.306330e-02 1.851823e-02 -1.897290e-01 -2.324527e+01 -1.538837e-01 -2.517698e-02 -1.261402e-02 -6.620257e-03 -1.128557e-02 -2.444266e-03 -9.315690e-03 -1.336419e-03 -5.428131e-03 -2.262235e-02 5.012730e-01 1.192653e+00 8.979402e-01 8.576975e-01 8.107095e-01 7.965448e-01 8.707842e-01 7.557163e-01 9.640108e-01 7.204259e-01 9.624318e-01 8.005381e-01 8.962812e-01 8.699706e-01 8.383469e-01 9.501155e-01 7.687599e-01 9.979331e-01 7.959331e-01 9.408831e-01 8.672883e-01 8.784843e-01 9.313007e-01 8.148699e-01 1.002925e+00 7.599361e-01 9.709503e-01 8.258890e-01 8.884126e-01 8.864970e-01 8.470748e-01 9.859771e-01 9.681957e-01 1.453216e+00 8.538607e-01 3.064619e-02 9.416710e-03 -3.715397e-03 5.529175e-03 -1.373020e-03 5.891507e-03 -5.655133e-04 7.658805e-03 1.017065e-04 9.917559e-03 1.458896e-03 1.206812e-02 3.963419e-03 1.324531e-02 
6.569716e-03 1.360486e-02 1.749491e-02 -1.861735e-01 -2.441197e+01 -1.708362e-01 -2.490045e-02 -1.375117e-02 -5.629672e-03 -1.248646e-02 8.189179e-04 -1.453848e-02 1.294379e-02 -2.800450e-02 -2.404566e-03 2.196086e+00 5.374512e+00 4.018611e+00 3.952537e+00 3.620425e+00 3.694704e+00 3.917143e+00 3.515101e+00 4.373166e+00 3.354136e+00 4.386344e+00 3.722801e+00 4.105028e+00 4.049709e+00 3.854899e+00 4.423396e+00 3.544491e+00 4.649131e+00 3.683199e+00 4.386120e+00 4.023679e+00 4.095501e+00 4.333636e+00 3.799763e+00 4.682420e+00 3.537872e+00 4.541877e+00 3.841236e+00 4.172711e+00 4.123733e+00 3.988840e+00 4.598687e+00 4.555666e+00 6.882569e+00 4.102622e+00 6.475961e-02 3.419085e-02 -2.061824e-02 1.021465e-02 -4.246462e-03 6.839345e-03 -7.868004e-04 7.527779e-03 -7.209805e-06 9.183148e-03 6.932972e-04 1.098821e-02 2.463180e-03 1.251451e-02 
1.277026e-02 1.291959e-02 2.488502e-02 -2.131766e-01 -2.238160e+01 -1.150312e-01 -2.796557e-02 -1.329878e-02 -1.033796e-02 -1.380884e-02 -1.492455e-03 -2.008762e-02 1.542132e-02 -4.885741e-02 3.606572e-02 1.455139e+00 3.660513e+00 2.685799e+00 2.745123e+00 2.435814e+00 2.578695e+00 2.659468e+00 2.458485e+00 2.992135e+00 2.348220e+00 3.018096e+00 2.604898e+00 2.835545e+00 2.835980e+00 2.672924e+00 3.098999e+00 2.464761e+00 3.260250e+00 2.567556e+00 3.078394e+00 2.813008e+00 2.874852e+00 3.037413e+00 2.667603e+00 3.289364e+00 2.481124e+00 3.199904e+00 2.692010e+00 2.947975e+00 2.889162e+00 2.828347e+00 3.225500e+00 3.247595e+00 4.868080e+00 2.913961e+00 2.109007e-02 4.365341e-02 -1.833073e-02 1.346634e-02 -4.153902e-03 7.923432e-03 1.957087e-05 7.838651e-03 2.023395e-03 9.226970e-03 4.200619e-03 1.087114e-02 7.506338e-03 1.217412e-02 
1.129920e-02 1.299437e-02 2.379092e-02 -2.119877e-01 -2.292004e+01 -1.209023e-01 -2.717635e-02 -1.310201e-02 -1.077308e-02 -1.136343e-02 -5.658646e-03 -1.011886e-02 -4.867727e-03 -6.664962e-03 2.710035e-02 -1.978372e+00 -4.730737e+00 -3.570429e+00 -3.450737e+00 -3.214915e+00 -3.223989e+00 -3.465175e+00 -3.067017e+00 -3.854601e+00 -2.925631e+00 -3.860185e+00 -3.249336e+00 -3.606352e+00 -3.535243e+00 -3.381980e+00 -3.859531e+00 -3.105771e+00 -4.055428e+00 -3.220464e+00 -3.824021e+00 -3.513952e+00 -3.569771e+00 -3.780606e+00 -3.313694e+00 -4.080387e+00 -3.086320e+00 -3.956311e+00 -3.352583e+00 -3.629224e+00 -3.601351e+00 -3.465097e+00 -4.020664e+00 -3.966585e+00 -6.008714e+00 -3.538389e+00 -6.325091e-02 -1.257442e-02 1.081984e-02 2.899723e-03 2.990363e-03 5.402171e-03 1.878650e-03 6.887188e-03 2.322106e-03 8.444467e-03 3.694626e-03 1.006214e-02 6.408945e-03 1.160713e-02 
1.516123e-02 1.203731e-02 2.815202e-02 -2.226024e-01 -2.088248e+01 -8.137114e-02 -2.874092e-02 -1.158421e-02 -1.506473e-02 -8.949240e-03 -1.178041e-02 -2.924040e-03 -1.847650e-02 1.860381e-02 -5.703928e-03 -1.967504e+00 -4.850870e+00 -3.613353e+00 -3.600920e+00 -3.262297e+00 -3.371155e+00 -3.540732e+00 -3.209471e+00 -3.964618e+00 -3.065753e+00 -3.985564e+00 -3.403938e+00 -3.737057e+00 -3.704133e+00 -3.514545e+00 -4.047349e+00 -3.234530e+00 -4.254064e+00 -3.363305e+00 -4.013819e+00 -3.677053e+00 -3.748189e+00 -3.964101e+00 -3.477301e+00 -4.288069e+00 -3.238183e+00 -4.164724e+00 -3.516040e+00 -3.831426e+00 -3.773258e+00 -3.666815e+00 -4.207706e+00 -4.187176e+00 -6.317738e+00 -3.768793e+00 -6.494003e-02 -2.937210e-02 1.860062e-02 -2.173837e-03 5.556141e-03 3.864159e-03 3.530662e-03 6.296311e-03 4.288555e-03 8.065022e-03 6.394044e-03 9.648991e-03 9.868324e-03 1.101225e-02 
1.369226e-02 1.182219e-02 2.676327e-02 -2.178216e-01 -2.092770e+01 -8.441796e-02 -2.721488e-02 -1.149038e-02 -1.420985e-02 -8.760257e-03 -1.050139e-02 -4.640962e-03 -1.091059e-02 4.544158e-03 -6.885879e-03 -2.736798e-01 -6.536934e-01 -4.663824e-01 -5.059425e-01 -4.262918e-01 -4.743796e-01 -4.704916e-01 -4.511241e-01 -5.343864e-01 -4.320925e-01 -5.453794e-01 -4.794332e-01 -5.154407e-01 -5.213774e-01 -4.881493e-01 -5.704026e-01 -4.505951e-01 -5.993525e-01 -4.675096e-01 -5.657003e-01 -5.128230e-01 -5.282487e-01 -5.552052e-01 -4.890140e-01 -6.037107e-01 -4.552726e-01 -5.926069e-01 -4.937745e-01 -5.486588e-01 -5.273966e-01 -5.294200e-01 -5.849623e-01 -6.047676e-01 -8.848765e-01 -5.062485e-01 -1.648295e-02 -7.613400e-03 6.563618e-03 1.941085e-04 4.131306e-03 3.707966e-03 3.454322e-03 5.789622e-03 4.064154e-03 7.449166e-03 5.769115e-03 8.993552e-03 8.809065e-03 1.047901e-02 
1.589299e-02 1.077733e-02 2.896622e-02 -2.172872e-01 -1.889019e+01 -5.621426e-02 -2.739749e-02 -1.026746e-02 -1.643286e-02 -7.863472e-03 -1.261883e-02 -4.989668e-03 -1.052033e-02 -3.118694e-03 -1.793237e-03 -2.443121e-02 2.618827e-03 -8.443520e-04 -5.997097e-03 -7.676975e-04 -4.543063e-03 -1.399332e-03 -3.151371e-03 -1.941854e-03 -4.122623e-03 -4.411650e-03 -4.817823e-03 -4.238322e-03 -4.533635e-03 -4.409794e-03 -4.883962e-03 -3.630585e-03 -3.430547e-03 -1.339610e-03 -2.324559e-03 -1.354525e-03 -2.111826e-03 -1.686577e-03 -1.405551e-03 -2.156659e-03 -2.334316e-03 -4.848751e-03 -3.008380e-03 -5.049272e-03 -1.614655e-03 -6.639539e-03 2.200951e-04 -8.846699e-03 -7.015491e-03 2.550572e-02 -8.461293e-03 1.568180e-04 4.005925e-03 8.802800e-04 4.344215e-03 3.373589e-03 4.409045e-03 5.347294e-03 5.471250e-03 6.978732e-03 7.612118e-03 8.435364e-03 1.098563e-02 9.742825e-03 
1.433015e-02 1.037313e-02 2.714530e-02 -2.073308e-01 -1.853846e+01 -5.941836e-02 -2.534748e-02 -1.021582e-02 -1.481488e-02 -8.114833e-03 -1.070099e-02 -6.275258e-03 -7.635235e-03 -5.937739e-03 -2.319848e-03 -1.445770e-02 4.171480e-03 -5.852371e-03 -2.982131e-04 -3.199948e-03 -4.796443e-04 -2.446726e-03 -1.917661e-04 -2.255212e-03 -8.735814e-04 -2.673979e-03 -1.203509e-03 -2.294496e-03 -1.021459e-03 -1.954201e-03 -8.066887e-04 -1.201639e-03 2.132680e-04 8.257544e-05 8.916067e-04 5.780172e-04 9.873112e-04 7.829364e-04 1.010193e-03 7.977081e-04 2.989979e-04 -3.621755e-05 -1.246151e-04 -1.638218e-04 3.598866e-04 -1.530874e-04 4.162257e-04 1.622330e-03 -4.043423e-03 1.347521e-02 -3.897756e-03 3.586333e-03 1.654164e-03 2.688356e-03 2.992388e-03 3.795868e-03 3.705059e-03 5.168462e-03 4.840840e-03 6.532480e-03 6.775639e-03 7.876680e-03 9.817871e-03 9.201948e-03 
1.531681e-02 9.336869e-03 2.775832e-02 -1.998041e-01 -1.650983e+01 -3.851426e-02 -2.448159e-02 -9.246601e-03 -1.555633e-02 -7.623961e-03 -1.137427e-02 -6.523582e-03 -7.666442e-03 -7.015432e-03 -2.614784e-03 -1.154531e-02 6.565105e-04 -5.607742e-03 -8.785451e-04 -3.347415e-03 -7.942622e-04 -2.509490e-03 -5.058571e-04 -2.190686e-03 -8.176171e-04 -2.401896e-03 -1.018218e-03 -2.122000e-03 -8.602079e-04 -1.762823e-03 -6.121697e-04 -1.074751e-03 1.095275e-04 -2.863131e-05 6.414857e-04 4.792611e-04 7.687262e-04 6.983267e-04 7.542684e-04 6.789154e-04 2.785913e-04 1.020506e-04 -8.046009e-06 4.176698e-05 2.498389e-04 2.802882e-04 1.488930e-04 2.197652e-03 -2.303880e-03 1.011923e-02 -2.654190e-03 4.494956e-03 1.299725e-03 3.134326e-03 3.062877e-03 3.736363e-03 4.211186e-03 4.854252e-03 5.672067e-03 6.066397e-03 7.840704e-03 7.267024e-03 1.097245e-02 8.412465e-03 
1.363037e-02 8.796620e-03 2.549512e-02 -1.858942e-01 -1.583094e+01 -4.151064e-02 -2.215924e-02 -9.016387e-03 -1.370639e-02 -7.576635e-03 -9.683231e-03 -6.681086e-03 -6.255540e-03 -6.749871e-03 -2.670962e-03 -8.194721e-03 -1.065933e-04 -5.512457e-03 -4.859432e-04 -3.665601e-03 -5.341610e-04 -2.726776e-03 -4.724793e-04 -2.284392e-03 -6.361571e-04 -2.123854e-03 -7.318700e-04 -1.815553e-03 -6.290440e-04 -1.434173e-03 -3.963754e-04 -8.855640e-04 6.207267e-05 -2.197803e-04 4.310161e-04 2.091253e-04 5.638906e-04 4.415407e-04 5.347744e-04 5.088829e-04 2.723533e-04 3.861056e-04 6.017117e-05 5.421039e-04 1.735722e-05 1.130533e-03 -3.532752e-04 2.789132e-03 -1.673505e-03 6.118818e-03 -1.381770e-03 4.283207e-03 7.677006e-04 3.559756e-03 2.253252e-03 3.882197e-03 3.450047e-03 4.679536e-03 4.862679e-03 5.667909e-03 6.842049e-03 6.737226e-03 9.673153e-03 7.837948e-03 
1.371852e-02 7.791614e-03 2.493127e-02 -1.743729e-01 -1.382181e+01 -2.496905e-02 -2.058111e-02 -8.093719e-03 -1.356757e-02 -6.999739e-03 -9.748515e-03 -6.398412e-03 -6.404491e-03 -6.480308e-03 -3.258909e-03 -7.050348e-03 -1.388008e-03 -5.015202e-03 -1.101477e-03 -3.478020e-03 -8.635644e-04 -2.602406e-03 -6.718179e-04 -2.142102e-03 -6.729720e-04 -1.936402e-03 -6.786238e-04 -1.656263e-03 -5.608239e-04 -1.299232e-03 -3.456596e-04 -8.073599e-04 6.889302e-06 -2.341312e-04 3.005451e-04 1.642966e-04 4.230007e-04 3.884037e-04 4.066101e-04 4.607357e-04 2.303729e-04 4.127650e-04 8.245944e-05 6.001897e-04 3.619769e-05 1.188659e-03 -2.084429e-04 2.620054e-03 -9.230302e-04 5.013620e-03 -7.310029e-04 4.096453e-03 8.990007e-04 3.520867e-03 2.359903e-03 3.709349e-03 3.691553e-03 4.342899e-03 5.235959e-03 5.179983e-03 7.276271e-03 6.097377e-03 1.003694e-02 7.029144e-03 
1.191878e-02 7.140149e-03 2.230173e-02 -1.583126e-01 -1.286923e+01 -2.659030e-02 -1.809709e-02 -7.619220e-03 -1.167449e-02 -6.612385e-03 -8.232918e-03 -5.998437e-03 -5.352755e-03 -5.762413e-03 -2.910426e-03 -5.650416e-03 -1.343257e-03 -4.456817e-03 -8.594546e-04 -3.319329e-03 -6.385410e-04 -2.539635e-03 -5.169475e-04 -2.053584e-03 -5.000039e-04 -1.739628e-03 -4.849452e-04 -1.432905e-03 -3.969389e-04 -1.095521e-03 -2.329851e-04 -6.997593e-04 3.568918e-06 -2.835646e-04 2.064166e-04 4.306061e-05 3.014167e-04 2.662170e-04 2.878533e-04 4.080396e-04 1.717771e-04 5.261817e-04 3.930578e-05 8.059529e-04 -8.349684e-05 1.380385e-03 -3.211197e-04 2.394026e-03 -6.734959e-04 3.626053e-03 -3.865426e-04 3.505048e-03 6.662285e-04 3.349844e-03 1.807367e-03 3.550620e-03 2.980535e-03 4.052149e-03 4.366830e-03 4.742271e-03 6.181573e-03 5.541903e-03 8.632552e-03 6.400109e-03 
1.134203e-02 6.155612e-03 2.087701e-02 -1.447670e-01 -1.089252e+01 -1.253624e-02 -1.602311e-02 -6.651885e-03 -1.097432e-02 -5.885444e-03 -7.888242e-03 -5.417986e-03 -5.289775e-03 -5.185001e-03 -3.166858e-03 -4.924050e-03 -1.821376e-03 -3.948854e-03 -1.197563e-03 -2.996611e-03 -8.461319e-04 -2.307372e-03 -6.347884e-04 -1.856986e-03 -5.367544e-04 -1.557581e-03 -4.703871e-04 -1.279184e-03 -3.683294e-04 -9.754552e-04 -2.185502e-04 -6.251545e-04 -2.631755e-05 -2.613571e-04 1.384421e-04 3.203827e-05 2.216592e-04 2.371143e-04 2.190413e-04 3.733646e-04 1.417706e-04 5.013611e-04 5.112305e-05 7.691394e-04 -3.008616e-05 1.286328e-03 -1.653700e-04 2.136601e-03 -3.219169e-04 3.096033e-03 -5.284429e-05 3.150842e-03 8.106962e-04 3.077757e-03 1.861436e-03 3.237289e-03 3.016826e-03 3.639148e-03 4.387299e-03 4.206187e-03 6.129708e-03 4.868496e-03 8.399163e-03 5.575652e-03 
9.462340e-03 5.407311e-03 1.799302e-02 -1.279804e-01 -9.709512e+00 -1.189766e-02 -1.340282e-02 -5.960285e-03 -9.080683e-03 -5.260993e-03 -6.439983e-03 -4.781733e-03 -4.283615e-03 -4.433749e-03 -2.594248e-03 -4.052258e-03 -1.482617e-03 -3.362012e-03 -9.074119e-04 -2.650908e-03 -6.055246e-04 -2.081699e-03 -4.447899e-04 -1.668085e-03 -3.688016e-04 -1.361095e-03 -3.176120e-04 -1.090437e-03 -2.461269e-04 -8.200604e-04 -1.417463e-04 -5.359156e-04 -1.348606e-05 -2.547913e-04 9.653525e-05 -1.373612e-05 1.519450e-04 1.783214e-04 1.436871e-04 3.390911e-04 8.006399e-05 5.149686e-04 -7.500499e-06 7.882238e-04 -1.025807e-04 1.219823e-03 -2.126216e-04 1.818117e-03 -2.694864e-04 2.416751e-03 -2.576030e-05 2.616445e-03 5.885075e-04 2.704889e-03 1.397250e-03 2.893584e-03 2.348461e-03 3.232222e-03 3.507248e-03 3.699640e-03 4.990537e-03 4.260313e-03 6.930860e-03 4.881545e-03 
8.397874e-03 4.428311e-03 1.595294e-02 -1.136121e-01 -7.780565e+00 7.160174e-04 -1.096421e-02 -4.936073e-03 -7.982267e-03 -4.426484e-03 -5.756796e-03 -4.061631e-03 -3.929572e-03 -3.770364e-03 -2.507185e-03 -3.421841e-03 -1.553133e-03 -2.856767e-03 -9.966837e-04 -2.271284e-03 -6.710248e-04 -1.790583e-03 -4.801288e-04 -1.433786e-03 -3.736262e-04 -1.166461e-03 -3.018967e-04 -9.330710e-04 -2.261968e-04 -7.006062e-04 -1.328670e-04 -4.571687e-04 -2.749935e-05 -2.167772e-04 6.141075e-05 -8.703947e-06 1.078701e-04 1.584912e-04 1.049638e-04 3.003007e-04 6.084392e-05 4.581644e-04 -1.071205e-07 6.984007e-04 -6.147077e-05 1.067750e-03 -1.180595e-04 1.561987e-03 -1.131986e-04 2.044096e-03 1.134174e-04 2.245019e-03 6.311609e-04 2.337018e-03 1.341330e-03 2.486519e-03 2.202202e-03 2.747820e-03 3.252175e-03 3.112087e-03 4.571588e-03 3.551674e-03 6.254646e-03 4.038514e-03 
6.484962e-03 3.596627e-03 1.293270e-02 -9.699661e-02 -6.403678e+00 4.036646e-03 -8.218779e-03 -4.079342e-03 -6.104690e-03 -3.654176e-03 -4.336405e-03 -3.320454e-03 -2.913644e-03 -3.029659e-03 -1.829116e-03 -2.707603e-03 -1.094662e-03 -2.288791e-03 -6.581105e-04 -1.856550e-03 -4.129161e-04 -1.483263e-03 -2.811707e-04 -1.188208e-03 -2.140763e-04 -9.549071e-04 -1.725213e-04 -7.529375e-04 -1.287770e-04 -5.606918e-04 -7.242416e-05 -3.694467e-04 -8.474287e-06 -1.848479e-04 4.429331e-05 -1.933533e-05 6.757042e-05 1.247305e-04 5.426794e-05 2.597255e-04 8.799700e-06 4.130353e-04 -5.415276e-05 6.214739e-04 -1.196866e-04 9.072674e-04 -1.702305e-04 1.255365e-03 -1.558035e-04 1.584293e-03 1.618836e-05 1.778480e-03 3.841830e-04 1.902912e-03 9.078537e-04 2.047493e-03 1.567196e-03 2.257450e-03 2.388315e-03 2.540464e-03 3.430324e-03 2.886598e-03 4.768641e-03 3.280389e-03 
5.069775e-03 2.616082e-03 1.046966e-02 -8.249882e-02 -4.540199e+00 1.569766e-02 -5.511089e-03 -3.015423e-03 -4.711381e-03 -2.759539e-03 -3.378518e-03 -2.538143e-03 -2.298425e-03 -2.335579e-03 -1.473140e-03 -2.096093e-03 -9.074771e-04 -1.781023e-03 -5.578542e-04 -1.450469e-03 -3.528958e-04 -1.160670e-03 -2.380746e-04 -9.298503e-04 -1.765687e-04 -7.472133e-04 -1.383489e-04 -5.892478e-04 -1.016445e-04 -4.379823e-04 -5.768137e-05 -2.863985e-04 -9.847658e-06 -1.394683e-04 2.848880e-05 -7.517157e-06 4.394901e-05 1.070096e-04 3.123083e-05 2.143385e-04 -5.857273e-06 3.373512e-04 -5.565041e-05 5.051716e-04 -1.050778e-04 7.336598e-04 -1.377467e-04 1.006871e-03 -1.157434e-04 1.259569e-03 2.416918e-05 1.409648e-03 3.138174e-04 1.496490e-03 7.318010e-04 1.587972e-03 1.262641e-03 1.723372e-03 1.919636e-03 1.912272e-03 2.739451e-03 2.148392e-03 3.771166e-03 2.420058e-03 
3.179643e-03 1.716228e-03 7.427462e-03 -6.656209e-02 -3.001104e+00 2.178931e-02 -2.669666e-03 -2.042421e-03 -2.878774e-03 -1.898017e-03 -1.999446e-03 -1.746084e-03 -1.297058e-03 -1.602137e-03 -7.706328e-04 -1.435225e-03 -4.166158e-04 -1.229353e-03 -2.066927e-04 -1.012791e-03 -9.646199e-05 -8.170060e-04 -4.772321e-05 -6.551779e-04 -3.242440e-05 -5.233135e-04 -2.898583e-05 -4.090780e-04 -2.284937e-05 -3.017965e-04 -8.704219e-06 -1.967422e-04 9.915435e-06 -9.567209e-05 2.299026e-05 -2.886869e-06 2.023289e-05 8.148791e-05 -3.499031e-06 1.645795e-04 -4.665227e-05 2.601922e-04 -1.016722e-04 3.837163e-04 -1.576915e-04 5.411480e-04 -1.990313e-04 7.189432e-04 -1.979782e-04 8.797556e-04 -1.176418e-04 9.844369e-04 6.001942e-05 1.047342e-03 3.257156e-04 1.104164e-03 6.703427e-04 1.181830e-03 1.100508e-03 1.291984e-03 1.638859e-03 1.435437e-03 2.318649e-03 1.607617e-03 
1.522315e-03 7.368581e-04 4.694819e-03 -5.232162e-02 -1.223163e+00 3.263730e-02 2.211613e-04 -9.636518e-04 -1.273212e-03 -9.794178e-04 -8.356429e-04 -9.413920e-04 -4.825801e-04 -8.988711e-04 -2.218863e-04 -8.283879e-04 -5.620937e-05 -7.201233e-04 2.969930e-05 -5.954789e-04 6.124994e-05 -4.794716e-04 6.081836e-05 -3.840279e-04 4.522874e-05 -3.074799e-04 2.765015e-05 -2.410222e-04 1.682750e-05 -1.767009e-04 1.517704e-05 -1.114044e-04 1.881434e-05 -4.735684e-05 1.937180e-05 1.118649e-05 8.404108e-06 6.334523e-05 -1.865581e-05 1.143093e-04 -6.120748e-05 1.746909e-04 -1.140604e-04 2.558377e-04 -1.693085e-04 3.608801e-04 -2.155481e-04 4.769121e-04 -2.338231e-04 5.734480e-04 -2.003549e-04 6.208046e-04 -1.041071e-04 6.273048e-04 4.652546e-05 6.196304e-04 2.401405e-04 6.198923e-04 4.737987e-04 6.389250e-04 7.547049e-04 6.788837e-04 1.097447e-03 7.375657e-04 
-2.803058e-04 -2.146682e-04 1.741704e-03 -3.735384e-02 4.501641e-01 4.142237e-02 3.104897e-03 8.614342e-05 4.668428e-04 -6.690984e-05 4.577483e-04 -1.259435e-04 4.529680e-04 -1.723622e-04 4.383349e-04 -1.928256e-04 4.045452e-04 -1.835144e-04 3.523085e-04 -1.559406e-04 2.893732e-04 -1.248069e-04 2.242250e-04 -9.868020e-05 1.638592e-04 -7.852900e-05 1.137345e-04 -6.084330e-05 7.682567e-05 -4.197578e-05 5.228376e-05 -2.070111e-05 3.528595e-05 1.420225e-06 1.832665e-05 2.186070e-05 -5.979589e-06 3.994438e-05 -4.226688e-05 5.831033e-05 -9.132950e-05 8.223948e-05 -1.503960e-04 1.165596e-04 -2.141635e-04 1.606739e-04 -2.748200e-04 2.047535e-04 -3.213130e-04 2.305315e-04 -3.424926e-04 2.217185e-04 -3.361196e-04 1.801072e-04 -3.119930e-04 1.190932e-04 -2.841012e-04 5.242948e-05 -2.635650e-04 -1.097802e-05 -2.562381e-04 -6.706238e-05 -2.631527e-04 -1.146655e-04 
-2.090982e-03 -1.181841e-03 -1.134927e-03 -2.358554e-02 2.119964e+00 5.138684e-02 6.093674e-03 1.152949e-03 2.210385e-03 8.474542e-04 1.757911e-03 6.758839e-04 1.399860e-03 5.251631e-04 1.112175e-03 4.059921e-04 8.755814e-04 3.211352e-04 6.782184e-04 2.617332e-04 5.141453e-04 2.158131e-04 3.796941e-04 1.755489e-04 2.720570e-04 1.388718e-04 1.889946e-04 1.072828e-04 1.278409e-04 8.246379e-05 8.422730e-05 6.413089e-05 5.168412e-05 4.972952e-05 2.239277e-05 3.594250e-05 -1.097593e-05 2.097373e-05 -5.350349e-05 5.751313e-06 -1.073451e-04 -6.719973e-06 -1.720986e-04 -1.404537e-05 -2.457489e-04 -1.846332e-05 -3.250476e-04 -2.966521e-05 -4.055669e-04 -6.352485e-05 -4.843268e-04 -1.336138e-04 -5.659359e-04 -2.397651e-04 -6.650351e-04 -3.720356e-04 -8.015786e-04 -5.190981e-04 -9.958150e-04 -6.726535e-04 -1.265906e-03 -8.277932e-04 -1.627260e-03 -9.816844e-04 