# vtk DataFile Version 2.0
Comment goes here
ASCII

DATASET STRUCTURED_POINTS
FIELD FieldData 1
TIME 1 1 double
0.09700000
DIMENSIONS    64   64   1

ORIGIN    0.000   0.000   0.000
SPACING   0.03125 0.03125   1.000

POINT_DATA   4096
SCALARS Omega double
LOOKUP_TABLE default

6.171006e+03 7.790693e+03 -3.513754e+03 -5.066754e+02 1.982400e+02 -9.667172e+02 -2.812809e+03 1.414927e+03 -3.103530e+03 -2.496147e+02 2.853992e+03 -8.717564e+02 1.568697e+03 -4.272463e+02 9.861792e+02 -2.119200e+02 1.101145e+03 7.598212e+02 -2.926986e+03 7.345586e+02 2.206456e+03 8.082020e+02 -1.054271e+03 -1.827762e+03 -1.127384e+03 5.807395e+03 -1.498562e+03 -2.585803e+03 -1.200279e+03 8.115778e+02 1.017851e+03 -1.773174e+03 -1.653286e+03 -1.720041e+03 -2.864666e+03 1.152295e+03 1.210350e+03 1.592793e+03 3.084103e+02 -2.411594e+02 6.297723e+02 2.865879e+02 3.016257e+03 -4.386929e+03 3.357593e+03 -1.342683e+03 -6.019950e+02 3.369246e+03 -1.077336e+03 1.554332e+02 -1.789708e+03 -1.844648e+03 2.585787e+03 -3.550388e+03 2.967300e+03 -3.639445e+03 7.397564e+02 3.282020e+03 1.673277e+03 5.192593e+02 -1.184006e+03 7.206008e+03 -7.870017e+03 -3.985452e+03 
3.977913e+02 -1.177049e+04 -1.300023e+03 4.936467e+03 -6.078451e+03 3.115651e+03 2.558766e+03 -5.075536e+03 2.045563e+03 -1.730260e+03 1.793558e+03 6.198906e+02 -2.791989e+03 -1.697233e+03 2.474821e+03 1.412903e+03 -1.512263e+03 1.008010e+03 4.880707e+02 2.191808e+02 4.162441e+02 -1.970623e+03 2.187837e+03 3.157093e+03 -2.153353e+03 1.497713e+02 -6.318765e+02 2.336595e+02 1.021706e+03 2.022264e+03 2.930708e+03 9.751671e+02 9.639187e+02 1.822419e+03 3.908546e+03 -6.762177e+03 1.241788e+03 -2.103350e+03 -5.001928e+03 -2.654672e+03 -5.640429e+02 -4.507977e+03 2.253321e+03 -4.281046e+03 -1.141352e+03 -2.470305e+03 -4.116767e+03 -1.779397e+02 -2.718657e+03 1.764884e+03 5.949060e+01 2.871313e+03 -2.602848e+03 -1.177474e+03 -2.290923e+03 3.570827e+03 -1.560713e+02 -3.814420e+03 -2.947631e+03 2.653985e+03 3.541425e+03 -7.021199e+03 8.764112e+03 7.462416e+03 
-2.037761e+03 -4.855657e+02 5.587224e+03 2.718311e+02 6.652538e+02 -2.223739e+03 -2.727685e+03 1.672340e+02 1.313302e+03 5.031953e+02 -2.756490e+03 -3.729424e+02 5.961881e+03 6.561595e+03 -3.154176e+03 -2.827492e+03 -2.122404e+03 1.005031e+03 -1.215093e+03 -7.552826e+02 4.322274e+03 2.471736e+03 2.558075e+03 4.445273e+03 2.631966e+03 2.247141e+03 1.851515e+03 5.537988e+03 5.568879e+03 1.803450e+03 1.221593e+03 1.528428e+03 -2.648598e+02 2.043881e+03 3.769621e+03 -2.520375e+03 -3.166750e+02 -1.516996e+03 -1.259442e+03 3.853006e+03 2.042681e+03 -6.402327e+03 -3.884062e+03 -1.824724e+03 -8.830768e+03 4.674674e+02 -1.107086e+03 -2.180440e+03 4.921776e+02 -2.733443e+03 -1.815566e+03 -2.818776e+03 -5.131746e+03 3.477799e+03 6.705157e+02 -6.456221e+03 1.522390e+03 4.466153e+03 5.403287e+03 -1.391255e+03 -3.578523e+03 3.656530e+03 -1.048568e+04 -5.642617e+03 
7.191176e+02 7.188383e+03 -2.613913e+03 -2.955757e+03 6.498165e+02 -2.497069e+03 -6.911735e+02 -3.012460e+02 -6.839391e+03 -9.429667e+02 6.276535e+02 -2.776940e+02 2.142430e+03 -3.553761e+03 -7.550272e+03 9.822946e+03 4.128612e+02 1.640690e+03 1.117811e+03 -3.670196e+03 -7.962966e+03 -4.018868e+03 4.114176e+02 -3.124797e+03 -6.106512e+03 -3.116500e+03 -4.419053e+02 9.972516e+02 2.613896e+02 -3.911907e+03 -3.438915e+03 -2.082016e+02 2.817785e+03 2.584386e+03 -4.973250e+03 3.112179e+03 -1.649857e+03 1.067354e+03 2.479863e+03 1.128124e+03 -4.920188e+03 -3.246534e+03 2.552765e+02 6.249885e+03 6.405839e+03 7.066342e+02 -5.796377e+02 7.465439e+02 -2.993106e+03 -7.574648e+03 -4.902871e+03 -6.792058e+03 4.867368e+03 4.335249e+03 -1.428812e+03 -3.903720e+03 2.299707e+03 -4.774915e+03 -3.843169e+03 -2.928076e+03 -3.291254e+03 2.411962e+03 -3.944119e+03 5.004779e+03 
-4.707177e+03 1.593999e+03 -7.165212e+03 -3.470588e+03 3.047670e+03 -4.531810e+03 1.687795e+03 2.169498e+03 3.001567e+02 -1.891992e+03 3.678647e+03 1.985835e+03 -8.208378e+03 -2.748851e+03 -9.186388e+03 -7.388735e+01 4.852091e+03 3.649288e+03 3.090766e+03 6.779219e+03 -6.576265e+02 -5.473411e+03 -1.159512e+04 -1.142155e+04 6.151465e+02 8.836408e+02 -7.523994e+03 -1.071123e+04 -7.365672e+03 -4.388123e+03 -1.384156e+03 -5.090410e+02 3.424805e+03 -1.976224e+03 -4.780834e+03 3.438251e+03 -2.147942e+03 -6.767828e+02 1.346054e+03 -4.536695e+03 -6.765985e+03 8.439653e+03 -9.643446e+02 -4.165538e+03 2.583150e+03 -1.701777e+03 -7.452048e+02 2.588087e+03 -3.165424e+03 2.259557e+03 7.164081e+03 -3.040936e+02 6.140346e+03 -6.082525e+03 -5.181883e+03 7.987562e+03 -1.225566e+03 -1.916138e+03 -6.108207e+03 -4.806440e+03 -3.344264e+03 4.023255e+03 6.158318e+03 -9.049000e+03 
7.798195e+03 -4.746814e+02 -2.458028e+03 -3.808425e+02 -1.167329e+03 -1.637987e+03 -5.476181e+03 -2.862606e+03 8.250286e+03 8.682973e+02 -8.984947e+03 -5.188247e+03 -2.361778e+03 -5.356483e+03 -3.642098e+03 4.810011e+03 -6.626237e+02 -9.388195e+03 -8.927573e+03 1.015777e+03 6.063982e+03 1.089912e+03 -4.055175e+03 -6.971256e+03 3.913441e+03 6.406259e+03 9.672318e+02 6.117301e+02 -1.848932e+03 -1.759498e+03 -3.610497e+03 -4.453184e+03 -5.702685e+03 -4.028561e+03 2.633991e+03 1.349318e+03 1.662726e+03 -2.960677e+02 -8.818624e+03 -1.912584e+03 2.245741e+03 6.495549e+03 4.310746e+02 5.651091e+02 -3.338019e+03 -2.777736e+03 -3.288355e+02 1.656824e+03 -3.457210e+03 -2.158439e+03 8.412353e+03 2.332646e+03 2.695760e+03 4.630968e+03 -9.869283e+03 -1.252850e+03 -1.028801e+04 5.263846e+03 1.525276e+04 -3.223352e+03 -6.814459e+03 9.086564e+03 3.177956e+03 -1.404038e+04 
2.482138e+03 -1.353358e+04 3.383965e+02 2.425845e+03 1.129827e+03 -2.740364e+03 -2.033297e+03 4.289301e+03 -5.075017e+02 -1.175253e+04 -3.473356e+03 2.854207e+03 8.993205e+02 -1.125786e+04 -3.983752e+03 -1.339825e+03 -1.513854e+01 -5.657984e+03 1.001554e+03 -1.151885e+03 3.643611e+03 2.790567e+03 -4.258730e+02 2.612848e+03 2.612441e+03 9.556352e+01 6.057374e+03 8.490676e+03 2.513710e+03 -1.424463e+03 -5.269793e+03 -4.298265e+03 -8.939012e+03 -6.776839e+03 2.889142e+03 2.451556e+03 2.691486e+03 -1.835621e+03 6.501808e+02 -3.457683e+03 -3.139050e+03 7.621138e+03 1.152739e+04 1.038349e+03 1.442799e+03 5.753781e+03 -1.394610e+03 -1.696898e+03 2.616602e+03 -7.756509e+02 -1.834642e+02 -4.980188e+03 3.858334e+03 5.331062e+03 -1.112600e+04 4.980404e+03 1.367843e+04 -1.030033e+04 -1.391183e+04 -6.859938e+03 1.708616e+04 4.755445e+03 -1.091637e+04 1.047087e+04 
-3.391230e+03 7.862303e+03 -2.972306e+03 -8.971271e+03 -6.213336e+03 -6.641591e+03 1.334669e+04 2.268057e+03 9.092000e+02 4.268865e+03 8.958769e+03 9.172911e+02 3.747473e+03 3.487322e+03 1.081773e+03 6.707321e+02 6.532969e+03 2.786671e+03 1.104937e+04 -1.172680e+03 6.745809e+03 4.706436e+03 -3.646024e+03 7.780627e+02 3.897710e+03 5.884982e+03 5.293172e+03 -5.231200e+03 -2.868095e+03 1.335818e+03 2.517635e+03 -4.512939e+03 -6.887828e+03 -9.602803e+03 -1.996091e+03 4.892052e+03 5.726833e+03 -4.417585e+03 -1.606358e+03 1.847955e+03 4.181568e+03 5.052443e+02 9.058469e+03 -5.227682e+03 -8.408547e+03 -1.389658e+03 4.961486e+03 -1.594324e+03 5.386173e+03 4.839192e+03 1.128907e+04 3.704582e+03 -7.877694e+03 -3.184790e+03 1.013132e+04 -5.034327e+03 5.006342e+03 6.634905e+03 -6.687389e+03 -5.072756e+03 -1.283577e+03 3.533283e+03 1.203261e+04 -9.164681e+03 
8.589978e+03 7.345161e+03 -1.367210e+04 -2.788804e+02 1.448026e+03 6.953468e+03 1.221612e+03 8.699973e+03 1.593584e+04 3.059215e+03 1.094147e+03 -8.580321e+03 1.176133e+03 6.050181e+03 -3.771311e+03 2.569434e+02 1.201680e+04 1.003523e+04 -1.133363e+03 -8.585348e+03 2.346994e+03 2.980669e+03 -7.522693e+02 -2.675199e+02 1.190010e+03 5.910294e+03 1.149414e+03 -9.595048e+03 -7.882131e+03 -8.507061e+03 5.184926e+03 2.860882e+03 6.639927e+03 3.903086e+03 -2.116616e+03 -4.054728e+03 7.044872e+03 2.773240e+02 1.980752e+03 2.821764e+03 -7.845962e+03 2.393804e+03 -4.069054e+03 -5.982243e+03 5.348410e+03 6.151329e+03 1.232098e+03 7.654024e+03 -9.401357e+03 -9.908545e+03 4.760266e+02 1.385614e+04 -1.237495e+04 -6.316579e+03 1.987820e+03 1.246670e+04 -7.989103e+03 -1.212427e+04 1.414561e+04 -1.134568e+04 -9.013264e+03 -2.377204e+03 7.041886e+03 9.476830e+03 
9.751246e+03 1.332879e+04 1.263455e+04 8.131771e+03 -2.081409e+03 1.636048e+03 -1.056590e+04 1.556311e+04 -2.044805e+03 1.226603e+04 -6.591355e+03 -6.243105e+03 1.325371e+04 -9.603946e+03 -1.860917e+04 -6.078528e+03 1.096020e+04 -6.189492e+02 -6.311409e+03 -4.118044e+03 -1.255920e+03 9.929566e+02 7.678358e+02 -2.930953e+02 4.668678e+03 2.596823e+03 -9.523937e+03 -1.688535e+03 1.499131e+03 -6.481223e+03 2.447721e+02 1.207539e+04 7.492730e+03 5.407094e+03 -2.755291e+01 -4.928357e+03 1.958633e+03 3.742940e+02 -2.165379e+03 8.019192e+03 -4.595583e+03 2.571361e+03 1.060331e+04 8.604639e+03 -5.335141e+03 -5.941178e+03 6.120141e+03 3.841813e+02 -3.313967e+03 7.170548e+03 -7.499264e+03 -2.325731e+04 6.440143e+02 1.207812e+04 -1.245808e+04 8.813740e+03 -1.507727e+02 -5.160302e+03 1.102053e+03 4.694065e+03 1.157264e+04 -1.795244e+04 -1.723374e+04 1.594173e+04 
-7.769461e+03 -1.297241e+01 1.076417e+04 -2.645349e+03 -3.032041e+03 -9.679738e+03 2.432369e+03 1.074540e+03 1.883397e+03 9.329525e+03 -5.747067e+03 -7.565602e+01 -1.396699e+03 -7.895142e+03 4.954308e+03 1.977776e+03 -2.160546e+03 -3.426795e+03 -5.821399e+03 2.342381e+02 3.198553e+03 6.097128e+02 1.955854e+02 2.826859e+03 6.085185e+03 1.798306e+03 -5.658193e+03 -1.426379e+03 3.555505e+03 5.230775e+03 -5.737362e+02 4.298721e+03 -1.076399e+02 -4.434950e+03 2.306115e+03 2.076639e+01 -4.668098e+03 5.160065e+03 1.090099e+03 8.869698e+02 3.857714e+03 -2.351306e+03 3.519548e+03 6.247259e+03 3.907304e+03 -3.703573e+03 1.069293e+03 7.328150e+02 6.850061e+02 -3.999656e+03 -3.439747e+02 -6.865174e+03 2.598769e+03 3.555431e+03 2.786433e+03 3.838888e+03 -4.702529e+03 -4.912645e+03 -1.091881e+04 5.430077e+03 5.481160e+03 -3.995025e+03 -7.913949e+03 -3.261864e+03 
-1.587925e+04 9.512497e+03 -3.329228e+03 -1.174014e+04 -1.645120e+03 -5.335725e+03 5.787816e+03 -4.705279e+03 7.790935e+03 -2.936712e+03 8.492353e+03 3.365189e+03 -1.636559e+04 6.926082e+03 7.836459e+03 1.423236e+03 -1.182946e+03 4.719567e+02 -5.503873e+03 -7.124147e+02 1.430584e+03 3.291726e+03 -4.049761e+02 -1.118332e+03 6.183387e+02 3.238423e+03 2.246926e+03 5.566792e+02 -1.598012e+03 -4.232304e+03 1.386926e+03 2.698811e+03 -3.098010e+03 -5.816685e+03 2.724281e+02 9.116726e+03 4.162793e+03 -2.765913e+03 -7.925903e+02 -3.455811e+03 1.425998e+02 -1.383460e+03 3.878419e+02 1.155790e+03 -1.041812e+03 2.704343e+03 -1.102769e+04 -1.468852e+03 3.876059e+03 -1.528792e+03 2.331806e+03 3.248416e+03 -5.987074e+03 -4.880930e+03 3.835694e+02 -9.046879e+03 -3.806962e+03 2.218260e+03 -2.903104e+03 -2.158303e+03 -1.065742e+03 -6.863856e+03 5.262897e+03 -4.874101e+03 
-1.355045e+04 1.239856e+03 1.072077e+03 3.017263e+03 -2.971120e+03 9.176196e+03 -4.358618e+03 -9.233090e+03 -2.147964e+02 6.367672e+03 6.706857e+03 -1.414811e+03 -6.679207e+03 3.643694e+02 -6.821273e+03 9.354607e+02 4.457612e+03 2.698393e+03 -2.588687e+02 -5.269131e+03 -1.185929e+03 -8.079963e+02 -3.022661e+03 -8.385994e+02 -1.583751e+03 1.307544e+03 -3.343756e+02 -1.797893e+03 -1.529515e+03 -1.064572e+03 -2.933816e+03 -3.225985e+02 2.190785e+03 1.118375e+03 -4.262190e+03 2.383333e+02 9.107348e+02 -4.074116e+03 -2.599378e+03 -1.895689e+03 -1.040286e+04 -9.871128e+02 7.395631e+03 6.862600e+02 -2.485932e+03 6.585353e+03 -2.537668e+03 -3.003849e+03 9.802598e+03 -1.943480e+03 6.205913e+03 1.327453e+03 -1.229394e+04 -4.872960e+01 1.506578e+04 -3.887763e+03 -5.677709e+03 -7.773614e+03 4.779296e+03 1.623335e+04 1.287553e+03 1.527634e+04 2.512755e+04 -1.011600e+04 
-6.527365e+02 -1.753217e+04 6.196090e+03 9.416961e+03 9.563630e+01 3.479042e+03 -7.733773e+03 -3.463746e+03 -2.200576e+03 -1.081177e+03 5.180928e+03 -4.428751e+03 -6.165566e+03 -2.714067e+03 4.426696e+03 6.163399e+03 1.499039e+03 1.426176e+03 -1.060858e+03 2.128563e+03 -1.784345e+03 -3.049308e+03 -2.927640e+03 -2.066520e+03 1.962679e+03 1.695073e+03 -1.410529e+03 -9.274264e+02 -7.224141e+02 -9.496642e+02 -8.406885e+02 -3.126946e+01 -6.536941e+01 1.337752e+03 2.489312e+03 1.831215e+03 -2.297013e+02 -2.003071e+03 -6.377107e+02 8.786525e+03 -6.413304e+02 -2.620565e+03 -2.462712e+03 2.104850e+03 2.842112e+03 9.151532e+03 8.071922e+02 -6.527075e+02 6.250505e+03 -1.021910e+04 -2.241663e+03 8.636033e+03 -5.413596e+03 -3.995115e+03 7.278707e+03 1.398253e+04 5.835300e+03 -5.520729e+03 1.211904e+04 -1.446064e+03 -1.133736e+04 7.205054e+03 1.189305e+04 6.775656e+03 
-1.566028e+03 4.994916e+03 7.239967e+03 -1.273168e+04 -1.596008e+03 -7.636100e+03 -6.994348e+03 -1.442580e+03 5.672510e+02 -4.348069e+02 3.789195e+03 -3.254656e+03 -2.374219e+03 1.907618e+03 2.692718e+03 9.758443e+02 -1.117040e+03 1.279305e+03 -2.858691e+03 -1.793375e+03 -1.143919e+03 -1.117459e+03 -1.672209e+03 -1.339623e+03 4.942771e+03 4.179639e+03 1.718561e+03 1.554687e+03 -1.157224e+03 1.681058e+02 -1.111252e+03 -2.248275e+03 -1.474936e+03 2.360506e+03 1.102906e+03 -9.664416e+02 1.234839e+03 1.730639e+03 4.189329e+03 4.889862e+03 5.278416e+03 -7.407131e+02 1.263194e+03 -3.566833e+02 -6.785928e+03 3.384650e+03 5.704938e+03 6.947572e+02 9.732932e+02 -2.475792e+03 -1.277310e+02 6.414296e+03 2.147931e+03 -3.179761e+03 -4.048997e+03 1.250200e+04 2.103401e+03 -1.304997e+04 7.007449e+02 1.522895e+03 -2.375594e+03 -1.885144e+03 -3.416352e+03 -1.957826e+03 
8.697805e+03 1.329633e+04 -5.650514e+03 -1.300682e+04 -2.154717e+02 -2.936731e+03 -5.352673e+03 -2.912173e+02 2.468767e+03 1.789236e+02 1.330415e+03 6.529471e+03 -1.111663e+03 -6.962425e+03 -3.706969e+03 8.764836e+02 -2.475116e+03 -3.052729e+03 -5.407500e+02 -3.295303e+02 -3.668010e+03 -3.497180e+03 5.860985e+02 -5.951115e+02 -6.411042e+02 3.098461e+03 3.511263e+03 -2.491926e+01 -2.840011e+03 -2.820224e+03 3.372717e+03 -5.582531e+02 -3.116769e+03 3.023876e+01 9.493414e+02 1.058561e+03 -1.843154e+02 -2.995774e+03 -7.508466e+02 3.415470e+02 8.291522e+01 -1.494754e+03 2.266999e+03 -6.083150e+02 -5.410030e+03 -8.714960e+02 1.179651e+03 8.388176e+03 4.168575e+03 -7.510950e+03 -4.168973e+03 -1.324629e+03 -3.156142e+03 5.408246e+03 -2.787139e+03 3.493687e+03 3.772338e+03 -8.196109e+03 -5.644456e+03 1.526613e+04 7.750283e+03 6.127774e+02 -2.948733e+03 -4.146835e+02 
-2.930852e+03 -8.271870e+03 1.310791e+03 3.902889e+03 -3.031501e+02 2.594609e+03 -1.431599e+03 -6.562703e+03 -3.130641e+03 4.664048e+03 -2.910244e+03 3.410323e+03 4.639682e+03 5.923905e+03 2.628392e+03 4.359172e+03 -4.679206e+03 -3.447974e+03 1.469910e+03 2.985919e+03 9.526020e+02 -1.106215e+03 -1.128652e+03 -5.243991e+02 -6.593155e+02 8.953217e+02 8.028368e+02 -2.183296e+03 4.771468e+01 -9.759801e+02 -4.347329e+02 2.289631e+03 8.859811e+01 -2.713906e+03 2.593743e+03 1.010368e+03 -1.564024e+03 2.026009e+03 -4.043509e+03 -9.444354e+02 2.655794e+03 2.431446e+03 -1.503598e+03 -7.869676e+02 4.308190e+03 -3.652359e+03 -1.939000e+03 1.855089e+03 -7.480128e+02 -1.300913e+03 -2.286176e+03 -2.249190e+03 -3.869944e+03 -4.338096e+03 9.836888e+02 -3.682769e+03 -5.625829e+03 -1.054952e+03 7.630048e+03 1.102504e+04 -4.224930e+03 9.623146e+03 6.490173e+03 5.279089e+03 
-8.951978e+03 -1.339568e+04 3.802513e+03 -5.955710e+02 -6.098069e+03 2.672930e+03 5.578734e+03 1.059740e+01 -7.643261e+03 3.532614e+03 4.572840e+03 6.000843e+03 8.284231e+03 6.090425e+03 4.457249e+03 -2.720644e+03 -4.967761e+03 -4.565389e+02 1.378278e+03 1.568049e+03 1.370891e+03 8.848622e+02 -3.231384e+02 7.140802e+02 1.098747e+03 2.159306e+02 -7.903039e+02 -1.608102e+03 -6.685086e+02 8.943865e+02 -1.385205e+03 2.086505e+03 6.839264e+02 -4.080615e+03 -3.608788e+03 -4.406356e+02 2.288221e+03 2.891029e+03 2.981045e+03 -2.132990e+03 1.229688e+02 4.518792e+03 2.435202e+03 -2.557632e+03 6.300539e+02 2.793765e+03 1.075902e+03 3.233585e+02 5.873493e+01 1.122000e+03 2.420543e+03 4.580297e+02 3.145499e+02 -3.789130e+03 3.899296e+03 2.257234e+03 -4.509288e+03 -3.256380e+03 -1.512309e+04 4.308101e+03 -8.672710e+03 -1.547719e+04 7.662249e+03 1.657351e+04 
1.069457e+04 2.529770e+03 3.642984e+03 5.452940e+03 -6.430179e+03 7.619696e+03 3.349769e+03 2.305914e+03 2.959838e+03 -2.800093e+03 4.073134e+03 2.818551e+03 3.263770e+03 2.286686e+03 7.803739e+03 -8.367024e+03 -4.063475e+03 -1.560842e+01 4.457963e+02 4.116693e+02 4.902931e+02 4.190253e+02 -1.588123e+02 -7.999857e+02 -7.012894e+02 3.481775e+00 1.871991e+02 -9.711866e+01 -8.699342e+02 -9.608503e+01 5.562343e+02 -6.141295e+02 -7.988629e+02 7.305137e+02 2.563010e+02 -1.875003e+03 -4.046140e+03 7.112121e+02 1.961885e+03 -1.862571e+03 -3.708548e+03 -5.646807e+03 -1.256839e+03 9.411759e+02 3.945770e+01 1.857652e+03 -1.925177e+03 1.136810e+03 3.308227e+03 1.157153e+03 -4.221641e+02 -1.769891e+03 1.381812e+03 3.748033e+03 -1.636793e+02 -8.859836e+01 -6.502702e+01 2.211757e+03 3.166572e+03 2.701529e+03 5.364016e+02 -1.015518e+04 -3.729348e+03 4.337066e+03 
1.758211e+04 -3.107365e+03 4.614665e+02 5.496005e+03 -6.210555e+03 2.829253e+03 2.680462e+01 -7.757956e+03 3.125823e+03 2.388205e+03 9.165086e+02 -7.463247e+02 3.894896e+02 3.800525e+03 4.879250e+03 -8.000879e+03 -2.003188e+03 4.483973e+02 -6.805863e+01 -4.835126e+01 2.807039e+02 1.939342e+02 6.398528e+01 -2.548585e+02 -1.381037e+02 -1.666984e+02 3.704066e+02 2.848785e+02 7.254111e+02 4.225815e+01 -1.145930e+03 -7.349503e+02 4.099454e+02 2.165467e+03 8.387592e+02 -1.400133e+03 4.675032e+02 -4.075343e+02 -2.651209e+03 2.442049e+02 2.802516e+02 -3.170202e+03 2.706029e+02 -3.542888e+02 -1.802435e+03 9.529012e+01 -1.374707e+03 -4.688211e+02 2.573894e+03 7.780076e+01 -2.432865e+02 3.940402e+02 -1.797048e+03 -3.958136e+02 1.114088e+03 2.881866e+03 -4.307934e+03 -2.412538e+03 1.150410e+04 -2.318398e+03 2.695907e+01 5.023174e+03 1.893570e+03 7.356563e+03 
6.727218e+03 -3.517964e+03 -5.753227e+03 -6.228296e+02 -6.514504e+03 -5.912670e+02 5.707932e+03 -2.289882e+02 -2.154089e+03 7.598380e+02 2.659759e+02 -5.352194e+02 -1.027371e+03 3.305753e+03 4.418430e+02 -3.708455e+03 -4.765706e+02 9.113186e+01 -2.068436e+02 -6.608453e+01 5.920958e+01 4.945902e+01 -8.631530e+01 5.536518e+01 -2.254598e+01 7.727478e+01 5.799524e+01 -1.355291e+02 -4.715108e+02 2.234421e+02 1.399080e+03 9.996909e+02 -3.756718e+02 -2.572149e+02 2.174367e+02 3.101332e+02 3.972346e+03 2.382908e+03 1.316061e+03 8.834547e+02 -6.647052e+02 2.299509e+03 5.354815e+03 1.643757e+03 1.805124e+03 -5.378622e+02 8.808856e+02 2.666157e+02 -1.550019e+03 7.378721e+02 -3.976540e+02 1.643481e+03 -1.244752e+03 -9.473953e+02 -2.881405e+02 -1.618371e+03 2.684565e+03 -9.327187e+02 -2.835134e+03 7.774660e+02 -9.555128e+03 -7.482888e+02 1.254052e+03 4.878342e+03 
-1.319238e+04 -3.862488e+03 -1.029049e+04 5.692218e+01 -2.415476e+02 2.927570e+03 2.799265e+03 1.784173e+03 9.073181e+02 -3.770941e+02 -7.667806e+02 1.479451e+03 -1.195017e+03 1.496703e+03 -1.101531e+03 -1.915501e+03 1.103270e+02 7.201156e+01 -1.824798e+02 -2.494613e+01 3.687573e+01 5.042302e+01 -1.523233e+01 -3.182538e+01 -3.324111e+01 -3.292324e+01 7.568622e+01 1.443769e+02 -1.761222e+02 -5.327008e+02 -2.687016e+02 2.960773e+02 7.690980e+02 1.333452e+02 -1.332030e+02 -1.978938e+03 -3.178479e+03 -4.315375e+02 -2.091361e+01 -6.205383e+01 -4.258515e+02 -1.017319e+03 -3.350591e+02 9.374797e+02 5.764817e+02 3.781728e+02 -3.419049e+02 -9.278668e+02 4.438818e+02 4.137714e+02 4.898989e+02 -5.519892e+02 -1.433056e+03 7.971732e+02 -2.359352e+02 9.261737e+02 5.304982e+03 2.271846e+03 4.891158e+03 3.590169e+03 1.724742e+04 5.666241e+03 4.452190e+03 2.222862e+03 
-1.310006e+04 4.881689e+03 1.283788e+04 3.369148e+03 -3.172366e+03 2.211545e+03 -4.558567e+01 -7.652784e+02 -1.751574e+03 2.348305e+03 -1.100410e+01 -7.417847e+02 1.116329e+03 1.903055e+02 -4.881407e+02 -8.682234e+02 2.991370e+01 1.814811e+01 -4.972687e+01 -2.119389e+01 2.318296e+01 -2.272114e+01 1.396766e+01 3.360514e+00 1.916177e+01 -1.598917e+01 -3.835385e+01 -5.136830e+01 1.409018e+02 -3.462499e+01 -1.509621e+02 -3.046976e+02 -4.595298e+02 -4.117359e+02 -8.675073e+02 -1.836591e+03 -5.103370e+02 5.362317e+02 2.415995e+02 3.884143e+02 3.907299e+02 -2.278644e+03 -2.037210e+03 -6.137510e+02 4.654744e+01 2.757446e+02 -1.066244e+02 -9.298011e+01 -1.276076e+02 -3.203881e+01 1.051020e+02 6.695455e+02 1.050813e+03 6.035613e+02 4.061696e+02 -1.887641e+03 -2.282669e+02 1.788566e+03 -1.350755e+03 -5.937192e+03 -5.907066e+03 1.655213e+03 1.109998e+04 -5.714387e+03 
-1.015256e+02 9.955939e+03 1.188061e+04 -5.459474e+03 -6.696462e+03 3.350283e+01 4.716510e+02 -1.456457e+03 -1.334949e+03 2.841701e+03 -1.536319e+02 -3.964574e+03 2.083530e+03 -2.336617e+02 -1.042342e+02 -3.363106e+02 4.206300e+01 -6.711150e+00 -3.721204e+01 -1.557858e+01 3.640922e+00 -2.131348e+00 -8.813971e+00 4.514957e+00 -5.681238e+00 1.475986e-01 4.628169e+00 5.813906e+00 -3.639983e+01 1.052054e+02 1.107400e+02 2.154180e+02 1.487292e+02 1.810184e+02 2.923824e+02 1.126343e+03 1.693368e+03 2.318893e+02 3.220895e+02 1.701023e+02 -1.680366e+01 8.704840e+02 1.786899e+03 6.238442e+02 1.733209e+02 -2.479122e+02 2.086411e+01 -1.576209e+02 -2.923901e+02 -2.503579e+02 -5.420660e+02 -3.329209e+02 -1.840758e+03 -2.223441e+03 -1.464044e+03 -2.628182e+03 -5.253966e+02 -5.427960e+03 -3.219287e+03 -5.047319e+03 -6.226041e+03 6.439172e+03 2.340930e+03 -6.069850e+03 
-1.714067e+03 3.207705e+03 2.202805e+03 -3.376160e+03 -3.947044e+03 5.286843e+02 -4.139785e+02 6.943222e+02 -4.213528e+02 1.440144e+03 1.190354e+03 -2.763144e+03 9.127670e+02 -2.796799e+02 1.138326e+02 -9.368167e+01 2.875210e+01 -1.048892e+01 8.127120e+00 -1.274046e+01 1.084343e+01 -1.488034e+01 1.174324e+01 -4.585516e+00 7.041535e+00 -6.484039e+00 -9.575538e+00 1.598929e+01 1.836960e+01 -3.453857e+01 -2.819775e+01 -1.474784e+02 -9.499821e+01 -1.927844e+02 -2.679348e+02 -6.379355e+02 -7.357077e+02 -1.560575e+02 -1.475130e+02 1.813804e+01 -1.943351e+01 -3.134781e+02 -4.133036e+02 -7.379598e+01 -8.032816e+00 3.461855e+01 8.992525e+00 3.616163e+01 2.380934e+02 1.415472e+02 3.936288e+02 2.869350e+02 1.169123e+03 1.574191e+03 9.092684e+02 9.971850e+02 5.108483e+02 1.933618e+03 3.383525e+03 -1.397512e+02 2.837900e+03 3.619822e+03 4.400661e+03 -3.504185e+03 
4.586971e+03 -4.087294e+03 -1.510530e+03 5.400639e+02 -2.903066e+03 1.171557e+03 -1.329838e+03 1.570892e+03 -1.038473e+03 -1.857386e+03 6.900557e+02 -5.135957e+02 4.633099e+02 -1.962971e+01 1.209088e+02 -5.597318e+01 4.001885e+01 -2.068334e+01 4.173746e+00 -1.404041e+01 2.589835e+00 -7.931763e+00 -2.216080e-01 -1.746599e+00 6.844710e-01 -2.062418e+00 3.854330e+00 4.290777e+00 8.325689e+00 1.589827e+01 -1.309646e+01 -1.593451e+01 -1.480692e+01 2.791029e+01 5.628067e+01 1.781262e+02 1.950280e+02 3.223282e+01 6.161771e+01 4.463096e+00 3.871977e+01 -3.719381e+01 3.323063e+01 9.379025e+01 -6.160967e+00 -3.922233e+01 -5.217558e+01 -9.610557e+00 -1.791136e+02 -1.732033e+02 -4.301865e+02 -6.454601e+02 -7.089391e+02 -2.452940e+02 -2.275526e+02 -2.821777e+02 -6.934085e+02 -6.715967e+02 3.539319e+02 1.109272e+03 2.957994e+02 2.203751e+03 3.451576e+03 3.036842e+03 
2.724206e+03 -1.384911e+03 3.100351e+03 1.406659e+03 -2.417233e+03 1.958959e+03 -3.033856e+03 7.756332e+02 -1.257302e+03 -2.376897e+03 -1.057460e+03 2.266054e+02 -1.232120e+02 1.018627e+02 1.032473e+02 -1.898215e+01 4.277676e+01 -1.351842e+01 1.850723e+01 -9.988312e+00 8.811417e+00 -8.836033e+00 6.752376e+00 -4.969360e+00 2.907566e+00 -2.543062e+00 -2.499859e+00 2.787524e+00 -7.863326e+00 -8.400745e+00 -1.044756e+01 -1.564585e+01 -5.578635e+00 -1.473123e+01 -4.540118e+00 1.383898e+01 5.026431e+01 6.425569e+00 -2.301007e+01 3.694442e-01 -3.763890e+01 -3.925875e+00 5.169381e+01 -4.250065e+00 3.321343e+01 -3.571106e+00 1.823875e+01 -2.745147e+01 3.669306e+00 -6.300384e+01 -9.631863e+01 -7.040788e+01 6.476588e+01 8.664372e+01 9.829513e+00 -3.762377e+01 -1.161959e+02 -1.839129e+02 3.437280e+01 1.060056e+02 9.221193e+02 1.508165e+03 -8.770541e+02 4.402523e+02 
-5.438529e+02 -1.811434e+03 2.653427e+03 1.105746e+03 -3.244305e+03 1.342361e+03 -1.319800e+03 1.197898e+03 -1.724257e+03 -2.104208e+03 -1.054074e+03 -1.353044e+02 -3.640296e+02 2.168144e+01 -2.562040e+01 -3.466179e+01 2.156660e+01 -2.281971e+01 1.049309e+01 -1.387985e+01 4.411906e+00 -8.340557e+00 1.785570e+00 -4.263542e+00 1.038764e+00 -2.913573e+00 7.810809e-01 -1.233736e+00 6.234038e-01 -4.826489e+00 -7.108366e+00 -2.165873e+01 -2.146865e+01 -2.364171e+01 -2.290615e+01 -1.084874e+01 1.521243e+00 1.202868e+01 8.486389e+00 -1.561527e-01 4.985786e+00 -5.553696e+00 -1.784725e+01 1.599433e+01 -1.692397e+01 -8.242391e+00 -3.867074e+01 -2.626408e+01 -7.259338e+01 -6.799442e+01 -6.058260e+01 -2.978354e+01 1.288481e+02 2.870994e+02 2.003941e+02 2.677455e+02 2.929956e+02 5.453094e+02 4.187959e+02 3.744540e+02 9.446683e+02 2.066539e+03 -1.577243e+03 -1.299318e+03 
-1.201542e+03 -1.954403e+03 -1.915859e+03 5.129848e+02 -1.651402e+03 -3.238287e+02 5.830079e+02 1.301200e+03 -4.484169e+02 -1.305654e+03 -7.558302e+02 -1.167162e+02 -3.322889e+02 -1.356870e+01 -9.387624e+01 -1.809859e+01 -8.790874e+00 -1.403786e+01 5.385545e+00 -9.284401e+00 4.326111e+00 -6.659725e+00 3.089928e+00 -4.226643e+00 1.078444e+00 -2.442318e+00 -1.346039e+00 -1.017908e+00 -4.532093e+00 -1.235151e+00 -3.310261e+00 3.098303e+00 5.603443e+00 9.390903e+00 1.652044e+01 1.432684e+01 1.763196e+01 4.038576e+00 -1.208111e+00 3.987527e-01 -5.728752e+00 -9.658505e-01 1.221115e+01 -9.719930e+00 4.601409e+00 -1.311222e+01 -1.072510e+01 -2.309322e+01 -4.242475e+01 -4.506228e+01 -1.202184e+02 -1.198767e+02 -1.913120e+02 -1.119880e+02 -1.305551e+02 -1.206967e+02 -2.061201e+02 -2.879629e+02 -9.096720e+01 1.570283e+02 7.603910e+02 2.507217e+03 1.058760e+02 -3.465216e+03 
-3.951338e+03 -2.696490e+02 -1.859049e+03 -1.021359e+03 -1.390200e+03 -2.862750e+02 6.767985e+02 5.414556e+02 2.876570e+02 -6.958189e+02 -1.880018e+02 -4.225274e+01 -1.508493e+02 -4.110854e+01 -7.000205e+01 -3.610035e+01 -1.197635e+01 -2.322116e+01 2.029540e+00 -1.392609e+01 2.854112e+00 -8.483676e+00 1.685696e+00 -5.208234e+00 6.378546e-01 -3.761496e+00 -4.331408e-01 -3.385604e+00 -1.691115e+00 -5.640054e+00 -4.689437e+00 -1.040105e+01 -9.546434e+00 -1.084859e+01 -1.024646e+01 -4.433866e+00 -2.697342e+00 4.554060e+00 1.429444e+00 3.268334e+00 9.744708e-01 3.915169e+00 -2.421943e+00 6.727301e+00 -5.350616e+00 -8.155889e-01 -1.088299e+01 -5.886534e+00 -3.864588e+00 1.592422e+01 5.363564e+01 9.113675e+01 1.395552e+02 1.222573e+02 1.257325e+02 1.350485e+02 1.798978e+02 1.990390e+02 1.881203e+02 2.174460e+02 6.882934e+02 2.338721e+03 5.335163e+03 -3.288911e+03 
-4.325267e+03 1.350497e+03 -1.971778e+03 -7.015650e+02 -7.788925e+02 2.356074e+02 2.400365e+02 1.455677e+02 5.260303e+02 -3.646911e+02 -6.328837e+01 -4.791738e+01 -8.860785e+01 -3.299226e+01 -6.043233e+01 -2.399263e+01 -2.340548e+01 -1.470173e+01 -5.482097e+00 -8.712760e+00 -4.962676e-01 -5.399138e+00 4.707217e-01 -3.209349e+00 5.647734e-02 -1.654677e+00 -6.974839e-01 -3.915347e-01 -1.233537e+00 1.143624e+00 2.489946e-01 3.839549e+00 3.765395e+00 5.794599e+00 6.567697e+00 5.169609e+00 5.157023e+00 1.810047e+00 2.872417e-01 -4.901959e-01 -1.860357e+00 -2.968684e+00 -9.671504e-01 -7.162670e+00 -6.125122e+00 -9.221362e+00 -1.620032e+01 -1.141092e+01 -3.197925e+01 -2.115666e+01 -5.816989e+01 -4.884005e+01 -7.978443e+01 -4.951649e+01 -6.184485e+01 -5.947671e+01 -8.561966e+01 -9.911009e+01 -8.049117e+01 -1.408593e+01 5.217514e+02 2.332971e+03 7.536817e+03 -2.281592e+03 
-1.338578e+03 9.225326e+02 -1.893490e+03 -1.519160e+02 -1.132722e+03 4.598590e+02 1.539296e+02 5.320095e+01 2.146371e+02 -2.491117e+02 1.620436e+01 -4.534387e+01 -2.591501e+01 -3.367027e+01 -2.598015e+01 -2.834793e+01 -1.088329e+01 -1.975723e+01 -1.723970e+00 -1.261593e+01 9.910867e-01 -8.044842e+00 1.006344e+00 -5.345135e+00 2.684392e-01 -4.031949e+00 -7.237974e-01 -3.707824e+00 -1.859025e+00 -4.425449e+00 -3.298664e+00 -5.433539e+00 -4.703239e+00 -4.768959e+00 -4.489394e+00 -1.697059e+00 -2.061905e+00 1.968963e+00 -4.441327e-03 3.108771e+00 8.347912e-01 3.936290e+00 1.050238e+00 4.558855e+00 1.137395e+00 3.515981e+00 3.009621e+00 6.418060e+00 1.309322e+01 2.128799e+01 3.372992e+01 4.209562e+01 5.046329e+01 4.782260e+01 5.290008e+01 5.160577e+01 5.925442e+01 5.275270e+01 6.502258e+01 3.975497e+01 2.355280e+02 1.053361e+03 4.665410e+03 -1.192562e+02 
5.804897e+02 -3.497906e+02 -1.158428e+03 1.063538e+02 -1.111392e+03 2.717563e+02 1.123320e+02 2.436412e+01 1.154851e+02 -1.274797e+02 7.386623e+00 -3.480801e+01 -1.961959e+01 -2.284553e+01 -2.335919e+01 -1.721579e+01 -1.498140e+01 -1.139141e+01 -6.705767e+00 -6.865447e+00 -2.467828e+00 -3.956155e+00 -8.270698e-01 -2.040210e+00 -3.733380e-01 -6.586290e-01 -2.571365e-01 5.134915e-01 3.788578e-02 1.762965e+00 9.557350e-01 3.026198e+00 2.150184e+00 3.535382e+00 2.677202e+00 2.814685e+00 1.776363e+00 1.224796e+00 -1.206970e-01 -4.069961e-01 -1.796654e+00 -2.230587e+00 -3.460504e+00 -4.253647e+00 -7.030874e+00 -5.454281e+00 -1.247459e+01 -6.674687e+00 -1.905918e+01 -1.058534e+01 -2.574474e+01 -1.741760e+01 -2.931766e+01 -1.986547e+01 -2.718259e+01 -2.208667e+01 -2.690557e+01 -2.075747e+01 -1.456911e+01 -1.367468e+00 4.713020e+01 2.869175e+02 1.709587e+03 2.454897e+02 
9.321333e+02 -9.362376e+02 -1.875131e+02 7.397488e+00 -1.555292e+03 1.444079e+02 9.786405e+01 3.241252e+01 4.122308e+01 -8.413173e+01 1.487263e+01 -3.524906e+01 -1.523962e+00 -2.469048e+01 -6.323407e+00 -1.986430e+01 -4.102720e+00 -1.475805e+01 -1.011534e+00 -1.018166e+01 4.755117e-01 -6.917765e+00 6.005356e-01 -4.876856e+00 7.950703e-02 -3.784350e+00 -6.871855e-01 -3.358419e+00 -1.504900e+00 -3.364109e+00 -2.255497e+00 -3.321894e+00 -2.697336e+00 -2.579875e+00 -2.424238e+00 -9.519434e-01 -1.397638e+00 9.155287e-01 -2.385337e-01 2.109546e+00 7.249355e-01 2.906169e+00 1.644470e+00 3.550717e+00 2.888442e+00 4.378400e+00 5.470704e+00 7.220772e+00 1.055869e+01 1.303510e+01 1.670798e+01 1.860284e+01 2.094932e+01 2.029358e+01 2.235450e+01 1.824017e+01 2.158913e+01 1.149097e+01 2.106284e+01 -2.278830e+00 3.008406e+01 2.241037e+01 6.092278e+02 5.590881e+01 