# vtk DataFile Version 2.0
Comment goes here
ASCII

DATASET STRUCTURED_POINTS
FIELD FieldData 1
TIME 1 1 double
0.02300000
DIMENSIONS    64   64   1

ORIGIN    0.000   0.000   0.000
SPACING   0.03125 0.03125   1.000

POINT_DATA   4096
SCALARS P double
LOOKUP_TABLE default

-3.757793e+01 -2.135974e+02 -3.623317e+01 -2.125317e+02 -4.760273e+01 1.229571e+02 -3.602945e+01 1.190933e+02 -3.613857e+01 1.137230e+02 -3.033346e+01 9.843020e+01 -1.766250e+01 8.401737e+01 -8.329443e+00 6.797610e+01 4.557116e+00 4.785337e+01 1.377881e+01 3.587933e+01 1.009275e+01 3.511690e+01 -2.930826e-01 2.992990e+01 -2.349262e+00 1.940218e+01 -6.629177e+00 1.124849e+01 -9.989948e+00 2.160847e+00 -1.695131e+01 -3.047037e+00 -2.699118e+01 -7.346049e+00 -3.674107e+01 -1.425484e+01 -4.028721e+01 -2.900052e+01 -3.982261e+01 -4.540644e+01 -3.830140e+01 -6.239959e+01 -3.358673e+01 -8.278551e+01 -2.867099e+01 -9.783017e+01 -3.445927e+01 -9.948382e+01 -5.314361e+01 -9.438759e+01 -6.748883e+01 -9.888827e+01 -7.495965e+01 -1.042455e+02 -8.408314e+01 -1.092188e+02 -8.665808e+01 -1.262898e+02 -7.863697e+01 -1.442786e+02 -7.183796e+01 -1.656628e+02 -5.750589e+01 -1.940342e+02 
-9.569737e+00 -1.398887e+02 -1.022373e+01 -1.398616e+02 -1.944519e+01 1.100663e+02 -1.146256e+01 1.061678e+02 -1.241889e+01 1.019698e+02 -1.034775e+01 9.201670e+01 -4.513441e+00 8.289549e+01 -9.027871e-01 7.272287e+01 4.965090e+00 5.980290e+01 9.250425e+00 5.085555e+01 7.048205e+00 4.783628e+01 1.476911e+00 4.184256e+01 1.156283e+00 3.280322e+01 -6.790605e-01 2.530000e+01 -1.608029e+00 1.684503e+01 -4.293448e+00 1.059065e+01 -8.608013e+00 5.023696e+00 -1.308563e+01 -1.526617e+00 -1.451046e+01 -1.202879e+01 -1.427595e+01 -2.289712e+01 -1.394885e+01 -3.380733e+01 -1.178773e+01 -4.710143e+01 -8.850154e+00 -5.800229e+01 -1.122724e+01 -6.199577e+01 -2.006363e+01 -6.262587e+01 -2.595349e+01 -6.871245e+01 -2.813473e+01 -7.452373e+01 -3.221631e+01 -7.905715e+01 -3.326668e+01 -9.006337e+01 -2.892803e+01 -1.005758e+02 -2.629984e+01 -1.124803e+02 -1.966724e+01 -1.283254e+02 
3.998590e+00 -9.005662e+01 3.242304e+00 -9.113739e+01 4.499892e-02 9.541080e+01 2.573182e+00 9.292378e+01 2.049466e+00 8.966362e+01 1.988606e+00 8.457506e+01 2.608388e+00 7.930847e+01 2.609336e+00 7.343521e+01 3.082397e+00 6.648208e+01 3.477098e+00 5.977182e+01 3.009004e+00 5.387404e+01 1.998390e+00 4.710403e+01 2.250919e+00 3.965954e+01 2.043588e+00 3.258134e+01 2.176698e+00 2.502457e+01 2.136348e+00 1.783910e+01 1.828332e+00 1.089292e+01 1.240474e+00 4.046283e+00 9.692473e-01 -3.305558e+00 6.549328e-01 -1.035587e+01 6.148537e-02 -1.725323e+01 -1.222569e-01 -2.487959e+01 2.058060e-01 -3.236105e+01 -5.359907e-02 -3.881782e+01 -1.086344e+00 -4.472289e+01 -1.175997e+00 -5.154052e+01 -5.451043e-01 -5.769486e+01 -6.614910e-01 -6.296578e+01 -3.894120e-01 -6.920049e+01 7.151174e-01 -7.467191e+01 1.047907e+00 -7.991095e+01 2.123937e+00 -8.561777e+01 
2.764333e+00 -9.366155e+01 2.835868e+00 -9.636866e+01 2.760045e+00 9.920643e+01 2.290399e+00 9.603694e+01 1.901539e+00 9.190069e+01 1.992415e+00 8.654998e+01 2.601627e+00 8.069274e+01 3.138343e+00 7.429110e+01 3.751845e+00 6.726727e+01 4.091024e+00 6.044391e+01 3.729154e+00 5.404887e+01 2.956547e+00 4.725304e+01 2.672069e+00 4.000576e+01 2.358504e+00 3.276241e+01 2.182912e+00 2.535796e+01 1.892700e+00 1.815911e+01 1.404939e+00 1.112865e+01 8.229453e-01 4.060159e+00 4.516847e-01 -3.334111e+00 1.631708e-01 -1.073962e+01 -1.419663e-01 -1.818232e+01 -2.208139e-01 -2.591572e+01 -1.745053e-01 -3.335756e+01 -6.148068e-01 -3.996453e+01 -1.515023e+00 -4.609798e+01 -1.928512e+00 -5.244765e+01 -1.868457e+00 -5.852333e+01 -1.928615e+00 -6.432255e+01 -1.631712e+00 -7.059597e+01 -7.806398e-01 -7.672122e+01 2.600260e-02 -8.278234e+01 1.277033e+00 -8.878092e+01 
2.813800e+00 -8.960328e+01 2.957133e+00 -9.241859e+01 3.143452e+00 9.631578e+01 2.766057e+00 9.321706e+01 2.513733e+00 8.932826e+01 2.529340e+00 8.452206e+01 2.813832e+00 7.920812e+01 3.022555e+00 7.336084e+01 3.180609e+00 6.682978e+01 3.241138e+00 6.021769e+01 2.973193e+00 5.368616e+01 2.500141e+00 4.686050e+01 2.303386e+00 3.975262e+01 2.100492e+00 3.260439e+01 1.997360e+00 2.532028e+01 1.859217e+00 1.810507e+01 1.623870e+00 1.098758e+01 1.289250e+00 3.915235e+00 9.836458e-01 -3.250246e+00 6.377979e-01 -1.034873e+01 2.212453e-01 -1.744694e+01 -8.442764e-02 -2.474455e+01 -2.595624e-01 -3.196473e+01 -5.583017e-01 -3.876346e+01 -1.005425e+00 -4.525368e+01 -1.016109e+00 -5.165586e+01 -7.139393e-01 -5.773768e+01 -4.702235e-01 -6.351492e+01 -6.471504e-02 -6.937499e+01 5.914667e-01 -7.495964e+01 1.168393e+00 -8.029668e+01 1.937940e+00 -8.538456e+01 
1.933301e+00 -9.333568e+01 2.345187e+00 -9.695481e+01 2.597226e+00 9.964925e+01 2.401051e+00 9.605045e+01 2.300995e+00 9.162261e+01 2.461266e+00 8.643245e+01 2.891878e+00 8.073066e+01 3.392841e+00 7.458860e+01 3.687413e+00 6.774191e+01 3.756318e+00 6.092147e+01 3.539995e+00 5.412423e+01 3.049989e+00 4.719503e+01 2.632953e+00 4.008523e+01 2.268102e+00 3.287557e+01 1.977698e+00 2.558265e+01 1.677991e+00 1.830166e+01 1.338985e+00 1.107152e+01 9.573366e-01 3.847488e+00 6.073904e-01 -3.458516e+00 2.674048e-01 -1.078386e+01 -8.630298e-02 -1.815530e+01 -4.004639e-01 -2.562652e+01 -7.150556e-01 -3.298622e+01 -1.122539e+00 -3.993938e+01 -1.658089e+00 -4.659436e+01 -1.880773e+00 -5.286797e+01 -1.768041e+00 -5.896043e+01 -1.560888e+00 -6.498522e+01 -1.167132e+00 -7.110019e+01 -5.386695e-01 -7.714210e+01 1.911347e-01 -8.302288e+01 1.067580e+00 -8.857166e+01 
2.285906e+00 -9.061942e+01 2.637788e+00 -9.443819e+01 2.943012e+00 9.800082e+01 2.784509e+00 9.421826e+01 2.708727e+00 8.986839e+01 2.804719e+00 8.496271e+01 3.087330e+00 7.964218e+01 3.450510e+00 7.390849e+01 3.437262e+00 6.722986e+01 3.345345e+00 6.058338e+01 3.149930e+00 5.378411e+01 2.724334e+00 4.688403e+01 2.357565e+00 3.987602e+01 2.061172e+00 3.276313e+01 1.861018e+00 2.555089e+01 1.691900e+00 1.828541e+01 1.535880e+00 1.104492e+01 1.314186e+00 3.875177e+00 1.036186e+00 -3.268065e+00 6.863661e-01 -1.035420e+01 2.609964e-01 -1.745223e+01 -1.750393e-01 -2.468591e+01 -5.833557e-01 -3.197382e+01 -8.905049e-01 -3.904087e+01 -1.291861e+00 -4.594028e+01 -1.218378e+00 -5.208467e+01 -8.510012e-01 -5.807979e+01 -4.461699e-01 -6.398278e+01 1.387671e-02 -6.983237e+01 5.527670e-01 -7.551088e+01 1.103524e+00 -8.095686e+01 1.702282e+00 -8.607568e+01 
1.510174e+00 -9.419718e+01 1.971210e+00 -9.854010e+01 2.327813e+00 1.010548e+02 2.345614e+00 9.685285e+01 2.422098e+00 9.208542e+01 2.658285e+00 8.682563e+01 3.100424e+00 8.123404e+01 3.771502e+00 7.549446e+01 3.962639e+00 6.812322e+01 3.690526e+00 6.139040e+01 3.628164e+00 5.432033e+01 3.068733e+00 4.729728e+01 2.532707e+00 4.025234e+01 2.106525e+00 3.307227e+01 1.788941e+00 2.580047e+01 1.517938e+00 1.841146e+01 1.335452e+00 1.101668e+01 1.064309e+00 3.714801e+00 7.505948e-01 -3.570363e+00 3.781708e-01 -1.079915e+01 -8.216303e-02 -1.803888e+01 -5.734525e-01 -2.544650e+01 -1.142836e+00 -3.299092e+01 -1.505690e+00 -4.022872e+01 -1.984889e+00 -4.763304e+01 -2.280431e+00 -5.342168e+01 -1.794139e+00 -5.945931e+01 -1.386740e+00 -6.556408e+01 -9.360336e-01 -7.168808e+01 -3.925285e-01 -7.773791e+01 2.198636e-01 -8.361393e+01 8.825020e-01 -8.917245e+01 
1.956008e+00 -9.236650e+01 2.330047e+00 -9.697326e+01 2.653320e+00 1.002842e+02 2.665434e+00 9.579150e+01 2.720562e+00 9.096173e+01 2.892785e+00 8.582881e+01 3.252125e+00 8.055770e+01 3.994421e+00 7.548033e+01 4.137480e+00 6.757698e+01 3.515458e+00 6.110659e+01 3.579018e+00 5.397408e+01 2.901451e+00 4.700822e+01 2.319129e+00 4.010393e+01 1.933374e+00 3.302311e+01 1.701256e+00 2.583402e+01 1.539875e+00 1.843898e+01 1.556737e+00 1.102606e+01 1.404969e+00 3.802716e+00 1.163125e+00 -3.346526e+00 8.001800e-01 -1.035152e+01 2.726692e-01 -1.732187e+01 -2.867767e-01 -2.457058e+01 -9.844539e-01 -3.218759e+01 -1.212619e+00 -3.946553e+01 -1.523133e+00 -4.742501e+01 -2.030405e+00 -5.257415e+01 -1.064952e+00 -5.849712e+01 -4.743851e-01 -6.450525e+01 2.191708e-02 -7.046605e+01 5.107183e-01 -7.630231e+01 9.999025e-01 -8.195296e+01 1.492438e+00 -8.734294e+01 
1.231000e+00 -9.572724e+01 1.657902e+00 -1.007405e+02 2.021281e+00 1.031087e+02 2.179639e+00 9.824677e+01 2.367816e+00 9.305128e+01 2.651506e+00 8.756366e+01 3.078462e+00 8.190568e+01 3.734602e+00 7.626539e+01 3.932044e+00 6.855985e+01 3.615786e+00 6.177860e+01 3.597611e+00 5.456545e+01 3.018181e+00 4.747085e+01 2.453815e+00 4.041802e+01 2.012961e+00 3.322735e+01 1.691517e+00 2.594118e+01 1.438994e+00 1.849243e+01 1.323843e+00 1.102232e+01 1.100655e+00 3.682079e+00 8.107131e-01 -3.604568e+00 4.302141e-01 -1.079644e+01 -7.553122e-02 -1.798313e+01 -6.255914e-01 -2.537523e+01 -1.276221e+00 -3.301145e+01 -1.594615e+00 -4.036815e+01 -1.990824e+00 -4.809276e+01 -2.417183e+00 -5.378467e+01 -1.735758e+00 -5.991405e+01 -1.248102e+00 -6.613576e+01 -7.917735e-01 -7.235820e+01 -3.094640e-01 -7.851333e+01 2.035023e-01 -8.452524e+01 7.309193e-01 -9.029930e+01 
1.692977e+00 -9.449874e+01 2.029796e+00 -9.981190e+01 2.322976e+00 1.029432e+02 2.456335e+00 9.774420e+01 2.605345e+00 9.237168e+01 2.818078e+00 8.680918e+01 3.119173e+00 8.106569e+01 3.471980e+00 7.507086e+01 3.391699e+00 6.810880e+01 3.312419e+00 6.127466e+01 3.143201e+00 5.425737e+01 2.756116e+00 4.722715e+01 2.354785e+00 4.018195e+01 2.008522e+00 3.305157e+01 1.753680e+00 2.583448e+01 1.561407e+00 1.852774e+01 1.432333e+00 1.120925e+01 1.266944e+00 3.963214e+00 1.027334e+00 -3.219538e+00 7.017091e-01 -1.034363e+01 2.869915e-01 -1.747634e+01 -1.877460e-01 -2.472344e+01 -6.573545e-01 -3.207799e+01 -9.544087e-01 -3.932766e+01 -1.323516e+00 -4.645085e+01 -1.183236e+00 -5.272833e+01 -8.000892e-01 -5.892260e+01 -3.744371e-01 -6.509818e+01 5.162012e-02 -7.123097e+01 4.763647e-01 -7.728016e+01 8.971715e-01 -8.320417e+01 1.308374e+00 -8.895838e+01 
1.004753e+00 -9.763211e+01 1.367353e+00 -1.032858e+02 1.684089e+00 1.055469e+02 1.940974e+00 1.000191e+02 2.205160e+00 9.432109e+01 2.518335e+00 8.843828e+01 2.897764e+00 8.237012e+01 3.296981e+00 7.606333e+01 3.366884e+00 6.905862e+01 3.285914e+00 6.200530e+01 3.129367e+00 5.485809e+01 2.760436e+00 4.770390e+01 2.346756e+00 4.052696e+01 1.974089e+00 3.327718e+01 1.672345e+00 2.595155e+01 1.427694e+00 1.854808e+01 1.231794e+00 1.114387e+01 1.003565e+00 3.794699e+00 7.164660e-01 -3.506648e+00 3.580684e-01 -1.076702e+01 -7.153253e-02 -1.805466e+01 -5.423777e-01 -2.543928e+01 -1.011492e+00 -3.289720e+01 -1.351156e+00 -4.021354e+01 -1.668448e+00 -4.737831e+01 -1.688453e+00 -5.394465e+01 -1.410195e+00 -6.034142e+01 -1.052297e+00 -6.672670e+01 -6.632084e-01 -7.310198e+01 -2.521975e-01 -7.943112e+01 1.734126e-01 -8.566543e+01 5.998228e-01 -9.174977e+01 
1.454633e+00 -9.681455e+01 1.730164e+00 -1.027801e+02 1.962808e+00 1.057929e+02 2.187488e+00 9.991844e+01 2.405853e+00 9.399214e+01 2.648848e+00 8.796868e+01 2.922186e+00 8.180853e+01 3.167841e+00 7.543430e+01 3.159833e+00 6.858506e+01 3.071975e+00 6.162418e+01 2.903844e+00 5.457165e+01 2.601683e+00 4.748373e+01 2.272660e+00 4.035773e+01 1.976216e+00 3.317264e+01 1.737419e+00 2.592401e+01 1.547938e+00 1.862191e+01 1.388617e+00 1.132425e+01 1.206300e+00 4.071319e+00 9.691697e-01 -3.134618e+00 6.648089e-01 -1.030615e+01 3.022489e-01 -1.750022e+01 -9.239759e-02 -2.476067e+01 -4.690278e-01 -3.206557e+01 -7.463657e-01 -3.926981e+01 -9.641434e-01 -4.630425e+01 -8.691997e-01 -5.292719e+01 -6.017669e-01 -5.935915e+01 -2.665879e-01 -6.573496e+01 9.020351e-02 -7.207849e+01 4.498641e-01 -7.837735e+01 8.030548e-01 -8.461135e+01 1.141691e+00 -9.076103e+01 
7.984353e-01 -9.972029e+01 1.082805e+00 -1.059792e+02 1.323558e+00 1.081729e+02 1.653509e+00 1.020083e+02 1.970878e+00 9.580033e+01 2.305528e+00 8.951282e+01 2.669529e+00 8.311957e+01 3.023604e+00 7.656390e+01 3.110982e+00 6.949165e+01 3.020381e+00 6.235820e+01 2.872219e+00 5.515486e+01 2.544066e+00 4.794250e+01 2.185278e+00 4.069895e+01 1.864002e+00 3.340208e+01 1.596966e+00 2.604206e+01 1.379821e+00 1.862286e+01 1.190398e+00 1.121783e+01 9.684141e-01 3.860628e+00 6.931132e-01 -3.451406e+00 3.505250e-01 -1.072611e+01 -4.253832e-02 -1.803902e+01 -4.592678e-01 -2.543137e+01 -8.679536e-01 -3.289115e+01 -1.164096e+00 -4.023638e+01 -1.424307e+00 -4.744569e+01 -1.448323e+00 -5.418507e+01 -1.203378e+00 -6.076199e+01 -8.899037e-01 -6.732574e+01 -5.544234e-01 -7.389016e+01 -2.092204e-01 -8.043708e+01 1.386660e-01 -8.694049e+01 4.791776e-01 -9.337432e+01 
1.228099e+00 -9.917614e+01 1.430669e+00 -1.057420e+02 1.584569e+00 1.086892e+02 1.881333e+00 1.021896e+02 2.153154e+00 9.573975e+01 2.426307e+00 8.929113e+01 2.717532e+00 8.280869e+01 3.024381e+00 7.626133e+01 3.104519e+00 6.912088e+01 2.914573e+00 6.207889e+01 2.799384e+00 5.491972e+01 2.471536e+00 4.776797e+01 2.150185e+00 4.058521e+01 1.885593e+00 3.335611e+01 1.673932e+00 2.606991e+01 1.514326e+00 1.872363e+01 1.380928e+00 1.140118e+01 1.204361e+00 4.133836e+00 9.780531e-01 -3.086942e+00 6.803633e-01 -1.025663e+01 3.395845e-01 -1.746557e+01 -1.478976e-02 -2.475350e+01 -3.736267e-01 -3.213800e+01 -5.982681e-01 -3.941032e+01 -7.960009e-01 -4.666566e+01 -8.257620e-01 -5.327120e+01 -5.092295e-01 -5.983050e+01 -1.889339e-01 -6.639558e+01 1.246957e-01 -7.296440e+01 4.280223e-01 -7.952978e+01 7.174074e-01 -8.608598e+01 9.869683e-01 -9.263202e+01 
6.014148e-01 -1.018550e+02 8.010360e-01 -1.086748e+02 9.506613e-01 1.108369e+02 1.336563e+00 1.040832e+02 1.690678e+00 9.739006e+01 2.039364e+00 9.072610e+01 2.412092e+00 8.410383e+01 2.883490e+00 7.762610e+01 3.175859e+00 6.991216e+01 2.800457e+00 6.280473e+01 2.798351e+00 5.545535e+01 2.358018e+00 4.819754e+01 1.979726e+00 4.091614e+01 1.702976e+00 3.358813e+01 1.475608e+00 2.619335e+01 1.317831e+00 1.869543e+01 1.197210e+00 1.124772e+01 9.900977e-01 3.881224e+00 7.381985e-01 -3.437831e+00 3.871238e-01 -1.066108e+01 -1.288799e-03 -1.795308e+01 -3.816783e-01 -2.535995e+01 -8.276627e-01 -3.298103e+01 -1.039624e+00 -4.040343e+01 -1.222415e+00 -4.809472e+01 -1.614452e+00 -5.449696e+01 -1.105279e+00 -6.116888e+01 -7.589789e-01 -6.791633e+01 -4.590210e-01 -7.469040e+01 -1.734530e-01 -8.147732e+01 1.028674e-01 -8.826856e+01 3.645985e-01 -9.505967e+01 
1.011639e+00 -1.014813e+02 1.136189e+00 -1.085926e+02 1.202718e+00 1.115145e+02 1.557117e+00 1.044474e+02 1.868545e+00 9.751554e+01 2.160699e+00 9.068140e+01 2.460556e+00 8.394774e+01 2.838708e+00 7.739233e+01 3.083663e+00 6.968129e+01 2.764393e+00 6.257649e+01 2.751430e+00 5.527056e+01 2.356097e+00 4.805646e+01 2.025740e+00 4.082673e+01 1.792027e+00 3.355914e+01 1.605277e+00 2.623567e+01 1.483722e+00 1.882204e+01 1.396740e+00 1.145906e+01 1.230980e+00 4.174604e+00 1.024883e+00 -3.062874e+00 7.279108e-01 -1.020892e+01 3.978719e-01 -1.741728e+01 7.789802e-02 -2.473071e+01 -3.004114e-01 -3.224611e+01 -4.573295e-01 -3.958571e+01 -5.912748e-01 -4.716404e+01 -9.545490e-01 -5.359188e+01 -4.504242e-01 -6.028022e+01 -1.125858e-01 -6.704628e+01 1.650375e-01 -7.384769e+01 4.141229e-01 -8.068165e+01 6.411608e-01 -8.755486e+01 8.429740e-01 -9.448059e+01 
4.126173e-01 -1.039339e+02 5.262916e-01 -1.112629e+02 5.807226e-01 1.134198e+02 1.009425e+00 1.061292e+02 1.387990e+00 9.897375e+01 1.735817e+00 9.190856e+01 2.066451e+00 8.490143e+01 2.379482e+00 7.790600e+01 2.498341e+00 7.043207e+01 2.454241e+00 6.311030e+01 2.381215e+00 5.573784e+01 2.133264e+00 4.839375e+01 1.872870e+00 4.104257e+01 1.640678e+00 3.366680e+01 1.437987e+00 2.625516e+01 1.267294e+00 1.880280e+01 1.111903e+00 1.137348e+01 9.213519e-01 3.989295e+00 6.921529e-01 -3.358367e+00 4.101566e-01 -1.066706e+01 9.877451e-02 -1.800946e+01 -2.188089e-01 -2.541581e+01 -5.357594e-01 -3.290294e+01 -7.409285e-01 -4.031227e+01 -9.471294e-01 -4.769377e+01 -1.031602e+00 -5.461923e+01 -8.096918e-01 -6.153517e+01 -5.786918e-01 -6.848630e+01 -3.535575e-01 -7.547512e+01 -1.363593e-01 -8.250489e+01 6.925095e-02 -8.958209e+01 2.558233e-01 -9.671827e+01 
8.079394e-01 -1.036511e+02 8.543808e-01 -1.112494e+02 8.337296e-01 1.141708e+02 1.233639e+00 1.065921e+02 1.575447e+00 9.920569e+01 1.878378e+00 9.195852e+01 2.156735e+00 8.480179e+01 2.407752e+00 7.766687e+01 2.488421e+00 7.028043e+01 2.443172e+00 6.294265e+01 2.362156e+00 5.560637e+01 2.160656e+00 4.829607e+01 1.944688e+00 4.098616e+01 1.752423e+00 3.366324e+01 1.587658e+00 2.631781e+01 1.448841e+00 1.894966e+01 1.320343e+00 1.160588e+01 1.165485e+00 4.301134e+00 9.768825e-01 -2.969518e+00 7.472221e-01 -1.021167e+01 4.944460e-01 -1.748066e+01 2.381630e-01 -2.480192e+01 -6.936134e-03 -3.217993e+01 -1.693129e-01 -3.950078e+01 -3.155329e-01 -4.676901e+01 -3.369565e-01 -5.375775e+01 -1.663023e-01 -6.069585e+01 3.460550e-02 -6.767045e+01 2.312960e-01 -7.469668e+01 4.138540e-01 -8.178693e+01 5.762326e-01 -8.895862e+01 7.109341e-01 -9.623573e+01 
2.347587e-01 -1.058779e+02 2.653519e-01 -1.136596e+02 2.271723e-01 1.158282e+02 6.887576e-01 1.080586e+02 1.084341e+00 1.004786e+02 1.428127e+00 9.303251e+01 1.725215e+00 8.566709e+01 1.960906e+00 7.831920e+01 2.065275e+00 7.088100e+01 2.083272e+00 6.344160e+01 2.032574e+00 5.601020e+01 1.895432e+00 4.859421e+01 1.722713e+00 4.118199e+01 1.544475e+00 3.376459e+01 1.372980e+00 2.633673e+01 1.210146e+00 1.890137e+01 1.048560e+00 1.148112e+01 8.703196e-01 4.085588e+00 6.672442e-01 -3.287503e+00 4.371771e-01 -1.064679e+01 1.903292e-01 -1.802033e+01 -5.809396e-02 -2.542124e+01 -2.884687e-01 -3.284140e+01 -4.656719e-01 -4.022213e+01 -6.012806e-01 -4.754627e+01 -6.150495e-01 -5.473292e+01 -5.270490e-01 -6.186759e+01 -3.948770e-01 -6.901862e+01 -2.468378e-01 -7.621560e+01 -9.852930e-02 -8.347804e+01 3.884713e-02 -9.082528e+01 1.541911e-01 -9.828121e+01 
6.207580e-01 -1.056235e+02 5.924339e-01 -1.136479e+02 4.885416e-01 1.165841e+02 9.240088e-01 1.085563e+02 1.287814e+00 1.007648e+02 1.594612e+00 9.315081e+01 1.850641e+00 8.565751e+01 2.044236e+00 7.822420e+01 2.127380e+00 7.076951e+01 2.136913e+00 6.332951e+01 2.086999e+00 5.591630e+01 1.972266e+00 4.852952e+01 1.829099e+00 4.115739e+01 1.682262e+00 3.379095e+01 1.542187e+00 2.642497e+01 1.409679e+00 1.906157e+01 1.277991e+00 1.171638e+01 1.133298e+00 4.395370e+00 9.684579e-01 -2.904626e+00 7.825790e-01 -1.019345e+01 5.841997e-01 -1.749379e+01 3.867066e-01 -2.481688e+01 2.076566e-01 -3.215529e+01 7.257281e-02 -3.946711e+01 -2.062569e-02 -4.673544e+01 -1.704624e-02 -5.391798e+01 6.325548e-02 -6.106574e+01 1.785082e-01 -6.824087e+01 3.033160e-01 -7.547845e+01 4.216488e-01 -8.280506e+01 5.216760e-01 -9.024825e+01 5.922053e-01 -9.784078e+01 
7.176355e-02 -1.076257e+02 2.525883e-02 -1.158000e+02 -9.893827e-02 1.179917e+02 3.883130e-01 1.098078e+02 7.967463e-01 1.018582e+02 1.138157e+00 9.408499e+01 1.416309e+00 8.643443e+01 1.623009e+00 7.885575e+01 1.738192e+00 7.130125e+01 1.782842e+00 6.376953e+01 1.764782e+00 5.626529e+01 1.687578e+00 4.878611e+01 1.572899e+00 4.132414e+01 1.439535e+00 3.387253e+01 1.298736e+00 2.642734e+01 1.154451e+00 1.898950e+01 1.004943e+00 1.156600e+01 8.440791e-01 4.159670e+00 6.680041e-01 -3.232234e+00 4.774075e-01 -1.061722e+01 2.788937e-01 -1.800763e+01 8.362569e-02 -2.540894e+01 -9.323272e-02 -3.281432e+01 -2.339131e-01 -4.020186e+01 -3.288363e-01 -4.756079e+01 -3.481347e-01 -5.487589e+01 -3.107454e-01 -6.217496e+01 -2.393174e-01 -6.950071e+01 -1.521747e-01 -7.688663e+01 -6.425919e-02 -8.436099e+01 1.132282e-02 -9.195237e+01 6.148442e-02 -9.969372e+01 
4.539636e-01 -1.073491e+02 3.569189e-01 -1.157368e+02 1.765377e-01 1.186975e+02 6.397151e-01 1.102881e+02 1.020145e+00 1.021525e+02 1.330586e+00 9.423172e+01 1.576665e+00 8.647113e+01 1.754250e+00 7.881972e+01 1.852369e+00 7.123077e+01 1.888687e+00 6.369145e+01 1.871403e+00 5.619863e+01 1.806827e+00 4.874518e+01 1.712219e+00 4.132113e+01 1.602968e+00 3.391814e+01 1.488358e+00 2.653094e+01 1.371455e+00 1.915857e+01 1.250624e+00 1.180439e+01 1.121023e+00 4.468755e+00 9.795621e-01 -2.852445e+00 8.270919e-01 -1.016731e+01 6.692776e-01 -1.748708e+01 5.157039e-01 -2.481758e+01 3.790615e-01 -3.215484e+01 2.733051e-01 -3.948465e+01 2.071846e-01 -4.680044e+01 1.999675e-01 -5.409768e+01 2.370979e-01 -6.139926e+01 2.988758e-01 -6.874409e+01 3.685935e-01 -7.616762e+01 4.319743e-01 -8.370275e+01 4.761361e-01 -9.138392e+01 4.881906e-01 -9.925043e+01 
-7.211918e-02 -1.091292e+02 -1.873472e-01 -1.176335e+02 -3.881157e-01 1.198544e+02 1.191399e-01 1.113243e+02 5.379918e-01 1.030661e+02 8.800944e-01 9.502255e+01 1.151275e+00 8.714184e+01 1.351242e+00 7.937841e+01 1.477800e+00 7.169439e+01 1.541866e+00 6.406943e+01 1.550899e+00 5.649377e+01 1.511951e+00 4.895845e+01 1.437345e+00 4.145427e+01 1.339251e+00 3.397361e+01 1.226560e+00 2.651125e+01 1.104022e+00 1.906492e+01 9.729274e-01 1.163467e+01 8.322876e-01 4.219215e+00 6.816466e-01 -3.185226e+00 5.229970e-01 -1.058475e+01 3.615800e-01 -1.798645e+01 2.056764e-01 -2.539410e+01 6.591533e-02 -3.280588e+01 -4.644890e-02 -4.021577e+01 -1.222972e-01 -4.762219e+01 -1.516771e-01 -5.502733e+01 -1.443799e-01 -6.244944e+01 -1.137970e-01 -6.991844e+01 -7.308521e-02 -7.746591e+01 -3.510688e-02 -8.512375e+01 -1.281103e-02 -9.292617e+01 -1.998184e-02 -1.009124e+02 
3.113773e-01 -1.087894e+02 1.538018e-01 -1.174761e+02 -9.384514e-02 1.204644e+02 3.903852e-01 1.117427e+02 7.836960e-01 1.033263e+02 1.098956e+00 9.515741e+01 1.343904e+00 8.718355e+01 1.521292e+00 7.935777e+01 1.632789e+00 7.164031e+01 1.688832e+00 6.400626e+01 1.697323e+00 5.644037e+01 1.665941e+00 4.892974e+01 1.605391e+00 4.146258e+01 1.525944e+00 3.402923e+01 1.435044e+00 2.662266e+01 1.336618e+00 1.923858e+01 1.231700e+00 1.187463e+01 1.119547e+00 4.527605e+00 9.998627e-01 -2.807674e+00 8.743960e-01 -1.013818e+01 7.475632e-01 -1.747153e+01 6.262671e-01 -2.481275e+01 5.191554e-01 -3.216274e+01 4.350569e-01 -3.951977e+01 3.809094e-01 -4.688585e+01 3.626356e-01 -5.426776e+01 3.720644e-01 -6.168433e+01 3.969110e-01 -6.916501e+01 4.247323e-01 -7.674286e+01 4.431806e-01 -8.445296e+01 4.396799e-01 -9.233368e+01 4.007852e-01 -1.004288e+02 
-1.927066e-01 -1.103510e+02 -3.665872e-01 -1.191214e+02 -6.324702e-01 1.213706e+02 -1.104735e-01 1.125633e+02 3.164531e-01 1.040585e+02 6.608971e-01 9.579975e+01 9.312719e-01 8.773648e+01 1.132478e+00 7.982465e+01 1.268804e+00 7.202765e+01 1.348330e+00 6.431899e+01 1.378382e+00 5.668054e+01 1.366212e+00 4.909806e+01 1.320544e+00 4.155966e+01 1.250050e+00 3.405577e+01 1.161806e+00 2.657915e+01 1.060604e+00 1.912471e+01 9.491761e-01 1.168875e+01 8.289300e-01 4.267413e+00 7.013178e-01 -3.144149e+00 5.690018e-01 -1.055168e+01 4.364177e-01 -1.796104e+01 3.097484e-01 -2.537665e+01 1.963466e-01 -3.280088e+01 1.035248e-01 -4.023550e+01 3.703727e-02 -4.768516e+01 -9.582388e-05 -5.515875e+01 -1.352473e-02 -6.267362e+01 -1.247802e-02 -7.025513e+01 -7.415696e-03 -7.793326e+01 -9.687637e-03 -8.574135e+01 -3.170391e-02 -9.371690e+01 -8.737042e-02 -1.019031e+02 
1.966123e-01 -1.099143e+02 -1.177488e-02 -1.188350e+02 -3.156235e-01 1.218465e+02 1.832195e-01 1.128821e+02 5.856506e-01 1.042478e+02 9.054724e-01 9.588730e+01 1.152715e+00 8.774916e+01 1.334324e+00 7.978799e+01 1.456537e+00 7.196527e+01 1.527829e+00 6.425168e+01 1.555880e+00 5.662552e+01 1.548084e+00 4.906949e+01 1.512446e+00 4.156922e+01 1.456562e+00 3.411306e+01 1.386506e+00 2.669189e+01 1.306346e+00 1.929878e+01 1.218373e+00 1.192813e+01 1.123783e+00 4.574443e+00 1.023796e+00 -2.768465e+00 9.206121e-01 -1.010745e+01 8.178569e-01 -1.744945e+01 7.205262e-01 -2.480037e+01 6.344232e-01 -3.216485e+01 5.650909e-01 -3.954749e+01 5.165214e-01 -4.695567e+01 4.899552e-01 -5.440115e+01 4.800388e-01 -6.190286e+01 4.780158e-01 -6.948714e+01 4.738020e-01 -7.718552e+01 4.564004e-01 -8.503378e+01 4.137560e-01 -9.307240e+01 3.323491e-01 -1.013479e+02 
-2.862074e-01 -1.112632e+02 -5.076077e-01 -1.202342e+02 -8.258856e-01 1.225031e+02 -2.947777e-01 1.134879e+02 1.370243e-01 1.047983e+02 4.832875e-01 9.637869e+01 7.545299e-01 8.817898e+01 9.586589e-01 8.015548e+01 1.102632e+00 7.227125e+01 1.194019e+00 6.449692e+01 1.239956e+00 5.680987e+01 1.247319e+00 4.919220e+01 1.223182e+00 4.162943e+01 1.174357e+00 3.410994e+01 1.106721e+00 2.662451e+01 1.024832e+00 1.916588e+01 9.320013e-01 1.172805e+01 8.307107e-01 4.305373e+00 7.233235e-01 -3.107932e+00 6.127412e-01 -1.051793e+01 5.027542e-01 -1.793070e+01 3.980125e-01 -2.535187e+01 3.035852e-01 -3.278677e+01 2.241228e-01 -4.024142e+01 1.627861e-01 -4.772433e+01 1.200353e-01 -5.524779e+01 9.178768e-02 -6.282982e+01 7.097617e-02 -7.049450e+01 4.875488e-02 -7.827108e+01 1.481459e-02 -8.619360e+01 -4.272749e-02 -9.430133e+01 -1.376656e-01 -1.026400e+02 
1.128238e-01 -1.107017e+02 -1.357127e-01 -1.197903e+02 -4.835558e-01 1.228129e+02 2.305632e-02 1.136751e+02 4.300135e-01 1.048858e+02 7.521728e-01 9.638918e+01 1.001333e+00 8.813468e+01 1.186795e+00 8.007744e+01 1.316708e+00 7.217898e+01 1.399185e+00 6.440785e+01 1.441667e+00 5.673900e+01 1.451073e+00 4.915215e+01 1.434086e+00 4.163074e+01 1.396855e+00 3.416126e+01 1.344536e+00 2.673278e+01 1.281049e+00 1.933640e+01 1.209185e+00 1.196454e+01 1.131000e+00 4.610149e+00 1.048412e+00 -2.733820e+00 9.637399e-01 -1.007460e+01 8.799839e-01 -1.741946e+01 8.007692e-01 -2.477550e+01 7.299376e-01 -3.214985e+01 6.708141e-01 -3.955064e+01 6.252941e-01 -4.698849e+01 5.928371e-01 -5.447783e+01 5.692167e-01 -6.203832e+01 5.475157e-01 -6.969544e+01 5.191045e-01 -7.748002e+01 4.739435e-01 -8.542802e+01 4.004844e-01 -9.358097e+01 2.853449e-01 -1.019869e+02 
-3.495093e-01 -1.118454e+02 -6.067400e-01 -1.209511e+02 -9.640250e-01 1.232233e+02 -4.301563e-01 1.140695e+02 2.187187e-03 1.052571e+02 3.478207e-01 9.673079e+01 6.187508e-01 8.844101e+01 8.245912e-01 8.034405e+01 9.735685e-01 7.240255e+01 1.073304e+00 6.458559e+01 1.130766e+00 5.686815e+01 1.152425e+00 4.923001e+01 1.144448e+00 4.165480e+01 1.112588e+00 3.412923e+01 1.061928e+00 2.664253e+01 9.967158e-01 1.918589e+01 9.203961e-01 1.175180e+01 8.358525e-01 4.333450e+00 7.457808e-01 -3.075729e+00 6.530460e-01 -1.048232e+01 5.608706e-01 -1.789297e+01 4.727797e-01 -2.531443e+01 3.922699e-01 -3.275394e+01 3.222258e-01 -4.021998e+01 2.641786e-01 -4.772336e+01 2.175055e-01 -5.527830e+01 1.787295e-01 -6.290353e+01 1.419550e-01 -7.062287e+01 9.938302e-02 -7.846528e+01 4.147460e-02 -8.646504e+01 -4.316745e-02 -9.466229e+01 -1.681042e-01 -1.031040e+02 
6.246881e-02 -1.111363e+02 -2.150859e-01 -1.203265e+02 -5.941447e-01 1.233410e+02 -8.727329e-02 1.140991e+02 3.185971e-01 1.052171e+02 6.392183e-01 9.663977e+01 8.876032e-01 8.831686e+01 1.074370e+00 8.020387e+01 1.208575e+00 7.226219e+01 1.298338e+00 6.445937e+01 1.350888e+00 5.676863e+01 1.372709e+00 4.916795e+01 1.369709e+00 4.163927e+01 1.347171e+00 3.416773e+01 1.309608e+00 2.674110e+01 1.260682e+00 1.934919e+01 1.203283e+00 1.198318e+01 1.139764e+00 4.635052e+00 1.072265e+00 -2.702902e+00 1.003014e+00 -1.003836e+01 9.344722e-01 -1.737909e+01 8.692730e-01 -2.473317e+01 8.099191e-01 -3.210928e+01 7.582768e-01 -3.951753e+01 7.149494e-01 -4.697042e+01 6.786265e-01 -5.448382e+01 6.455688e-01 -6.207796e+01 6.098772e-01 -6.977805e+01 5.638836e-01 -7.761449e+01 4.982815e-01 -8.562315e+01 4.020075e-01 -9.384587e+01 2.619419e-01 -1.023314e+02 
-3.803889e-01 -1.120846e+02 -6.615740e-01 -1.212586e+02 -1.044237e+00 1.235118e+02 -5.147424e-01 1.142885e+02 -8.724160e-02 1.054151e+02 2.538785e-01 9.683665e+01 5.215984e-01 8.850364e+01 7.264865e-01 8.037260e+01 8.774021e-01 7.240600e+01 9.820500e-01 6.457225e+01 1.047225e+00 5.684521e+01 1.079021e+00 4.920343e+01 1.083004e+00 4.162939e+01 1.064243e+00 3.410879e+01 1.027252e+00 2.662986e+01 9.759492e-01 1.918283e+01 9.136941e-01 1.175934e+01 8.434245e-01 4.351846e+00 7.678564e-01 -3.046732e+00 6.896674e-01 -1.044339e+01 6.115812e-01 -1.784524e+01 5.362972e-01 -2.525981e+01 4.662422e-01 -3.269546e+01 4.031639e-01 -4.016201e+01 3.476269e-01 -4.767155e+01 2.985031e-01 -5.523927e+01 2.526046e-01 -6.288429e+01 2.047341e-01 -7.063027e+01 1.478327e-01 -7.850584e+01 7.298974e-02 -8.654513e+01 -3.071582e-02 -9.478838e+01 -1.765180e-01 -1.032830e+02 
4.713480e-02 -1.112091e+02 -2.481942e-01 -1.204344e+02 -6.455324e-01 1.234164e+02 -1.465997e-01 1.141397e+02 2.516689e-01 1.052274e+02 5.656877e-01 9.662453e+01 8.092462e-01 8.828131e+01 9.936811e-01 8.015350e+01 1.128482e+00 7.220265e+01 1.221771e+00 6.439601e+01 1.280548e+00 5.670614e+01 1.310902e+00 4.911027e+01 1.318180e+00 4.158958e+01 1.307054e+00 3.412852e+01 1.281529e+00 2.671418e+01 1.244958e+00 1.933568e+01 1.200119e+00 1.198360e+01 1.149359e+00 4.649409e+00 1.094783e+00 -2.674937e+00 1.038409e+00 -9.997379e+00 9.822379e-01 -1.732603e+01 9.281788e-01 -2.466949e+01 8.778313e-01 -3.203730e+01 8.321311e-01 -3.944056e+01 7.909249e-01 -4.689265e+01 7.525502e-01 -5.441009e+01 7.135417e-01 -6.201326e+01 6.686358e-01 -6.972703e+01 6.108623e-01 -7.758128e+01 5.315314e-01 -8.561142e+01 4.200705e-01 -9.385900e+01 2.637244e-01 -1.023726e+02 
-3.776408e-01 -1.119746e+02 -6.709822e-01 -1.211503e+02 -1.065449e+00 1.233581e+02 -5.481470e-01 1.141346e+02 -1.316937e-01 1.052621e+02 2.000602e-01 9.668575e+01 4.606718e-01 8.835655e+01 6.611924e-01 8.023132e+01 8.107377e-01 7.227281e+01 9.169731e-01 6.444948e+01 9.864561e-01 5.673499e+01 1.024903e+00 4.910760e+01 1.037389e+00 4.154944e+01 1.028459e+00 3.404582e+01 1.002169e+00 2.658463e+01 9.621072e-01 1.915573e+01 9.114383e-01 1.175039e+01 8.529824e-01 4.360845e+00 7.893190e-01 -3.020197e+00 7.228734e-01 -1.039986e+01 6.559419e-01 -1.778545e+01 5.906193e-01 -2.518482e+01 5.286152e-01 -3.260682e+01 4.709685e-01 -4.006183e+01 4.177009e-01 -4.756243e+01 3.674710e-01 -5.512408e+01 3.173120e-01 -6.276582e+01 2.625317e-01 -7.051085e+01 1.966669e-01 -7.838720e+01 1.113785e-01 -8.642831e+01 -3.755120e-03 -9.467387e+01 -1.615517e-01 -1.031708e+02 