# vtk DataFile Version 2.0
Comment goes here
ASCII

DATASET STRUCTURED_POINTS
FIELD FieldData 1
TIME 1 1 double
0.91000000
DIMENSIONS    128   16   1

ORIGIN    0.000   0.000   0.000
SPACING   0.0078125 0.015625   1.000

POINT_DATA   2048
SCALARS P double
LOOKUP_TABLE default

-9.161147e-01 -8.991756e-01 -9.192096e-01 -9.068066e-01 -9.205102e-01 -9.149955e-01 -9.206005e-01 -9.302282e-01 -9.183856e-01 -9.388021e-01 -9.136574e-01 -9.388219e-01 -9.010993e-01 -9.229165e-01 -8.680967e-01 -8.825014e-01 -8.259554e-01 -8.358889e-01 -7.810787e-01 -7.916840e-01 -7.422031e-01 -7.564959e-01 -7.283020e-01 -7.451872e-01 -7.286414e-01 -7.434581e-01 -7.335251e-01 -7.443457e-01 -7.395371e-01 -7.470864e-01 -7.480430e-01 -7.536084e-01 -7.601128e-01 -7.632072e-01 -7.729737e-01 -7.720218e-01 -7.829123e-01 -7.781714e-01 -7.904517e-01 -7.844448e-01 -7.992770e-01 -7.939126e-01 -8.105568e-01 -8.053118e-01 -8.212307e-01 -8.149128e-01 -8.287181e-01 -8.220790e-01 -8.347546e-01 -8.296614e-01 -8.422935e-01 -8.390537e-01 -8.509141e-01 -8.476769e-01 -8.570929e-01 -8.515507e-01 -8.576116e-01 -8.474027e-01 -8.500609e-01 -8.394090e-01 -8.381848e-01 -8.246455e-01 -8.244777e-01 -8.107734e-01 -8.126352e-01 -8.002926e-01 -8.040303e-01 -7.930913e-01 -8.004684e-01 -7.903045e-01 -8.062923e-01 -7.996604e-01 -8.133116e-01 -8.088227e-01 -8.269842e-01 -8.213953e-01 -8.418503e-01 -8.347420e-01 -8.568561e-01 -8.485318e-01 -8.724204e-01 -8.635171e-01 -8.892019e-01 -8.795736e-01 -9.057314e-01 -8.938559e-01 -9.182178e-01 -9.029015e-01 -9.246091e-01 -9.071266e-01 -9.275790e-01 -9.107041e-01 -9.311382e-01 -9.161577e-01 -9.354532e-01 -9.214867e-01 -9.374218e-01 -9.237765e-01 -9.356483e-01 -9.232505e-01 -9.318646e-01 -9.216765e-01 -9.274191e-01 -9.188511e-01 -9.214770e-01 -9.133561e-01 -9.138427e-01 -9.060868e-01 -9.073061e-01 -9.001963e-01 -9.048896e-01 -8.968761e-01 -9.058959e-01 -8.935292e-01 -9.068753e-01 -8.873064e-01 -9.062044e-01 -8.791128e-01 -9.057996e-01 -8.727143e-01 -9.078467e-01 -8.712156e-01 -9.116668e-01 -8.780782e-01 -9.114824e-01 -8.840833e-01 -9.129249e-01 -8.913072e-01 
-7.631680e-01 -7.510587e-01 -7.640504e-01 -7.545567e-01 -7.627929e-01 -7.567232e-01 -7.588733e-01 -7.706573e-01 -7.557644e-01 -7.777024e-01 -7.554298e-01 -7.802400e-01 -7.578289e-01 -7.783041e-01 -7.633163e-01 -7.815980e-01 -7.719037e-01 -7.854744e-01 -7.812854e-01 -7.886067e-01 -7.893275e-01 -7.901232e-01 -7.923860e-01 -7.935767e-01 -7.977550e-01 -7.965480e-01 -8.012261e-01 -7.957616e-01 -8.018515e-01 -7.941735e-01 -8.052078e-01 -7.980360e-01 -8.148966e-01 -8.070073e-01 -8.262323e-01 -8.141951e-01 -8.323396e-01 -8.157217e-01 -8.335175e-01 -8.159585e-01 -8.358042e-01 -8.199363e-01 -8.412340e-01 -8.264269e-01 -8.466797e-01 -8.321314e-01 -8.506805e-01 -8.379015e-01 -8.561318e-01 -8.464067e-01 -8.638578e-01 -8.552088e-01 -8.694084e-01 -8.589252e-01 -8.690443e-01 -8.551325e-01 -8.628262e-01 -8.422472e-01 -8.501227e-01 -8.317852e-01 -8.310651e-01 -8.100712e-01 -8.083110e-01 -7.910976e-01 -7.974225e-01 -7.822624e-01 -7.897649e-01 -7.713431e-01 -7.804313e-01 -7.685195e-01 -7.838838e-01 -7.803243e-01 -7.929311e-01 -7.869834e-01 -8.071388e-01 -8.006440e-01 -8.236890e-01 -8.148498e-01 -8.370229e-01 -8.240144e-01 -8.440254e-01 -8.283663e-01 -8.486621e-01 -8.333850e-01 -8.552541e-01 -8.401232e-01 -8.611856e-01 -8.435792e-01 -8.609017e-01 -8.401265e-01 -8.542538e-01 -8.336158e-01 -8.474543e-01 -8.302986e-01 -8.447837e-01 -8.319510e-01 -8.459939e-01 -8.368484e-01 -8.485679e-01 -8.418415e-01 -8.493595e-01 -8.433366e-01 -8.448260e-01 -8.378401e-01 -8.336345e-01 -8.267927e-01 -8.209908e-01 -8.170445e-01 -8.141146e-01 -8.132529e-01 -8.140809e-01 -8.113292e-01 -8.127970e-01 -8.013683e-01 -8.023240e-01 -7.803658e-01 -7.852468e-01 -7.561320e-01 -7.713554e-01 -7.389656e-01 -7.666884e-01 -7.320171e-01 -7.679058e-01 -7.369550e-01 -7.626545e-01 -7.413246e-01 -7.619381e-01 -7.463203e-01 
-9.102087e-01 -8.946237e-01 -9.187125e-01 -9.022417e-01 -9.200215e-01 -8.986984e-01 -9.230433e-01 -9.410352e-01 -9.208722e-01 -9.535183e-01 -9.271510e-01 -9.692085e-01 -9.406925e-01 -9.701472e-01 -8.841188e-01 -8.930389e-01 -8.294042e-01 -8.295668e-01 -7.679970e-01 -7.729164e-01 -6.926369e-01 -7.103732e-01 -7.019123e-01 -7.280218e-01 -7.218462e-01 -7.400362e-01 -7.331057e-01 -7.416128e-01 -7.354647e-01 -7.398277e-01 -7.419606e-01 -7.486976e-01 -7.611221e-01 -7.678571e-01 -7.835832e-01 -7.829996e-01 -7.951673e-01 -7.858495e-01 -7.963438e-01 -7.852214e-01 -7.994043e-01 -7.911555e-01 -8.082687e-01 -8.013349e-01 -8.174588e-01 -8.106724e-01 -8.257529e-01 -8.224275e-01 -8.395958e-01 -8.417019e-01 -8.591226e-01 -8.621779e-01 -8.746951e-01 -8.755004e-01 -8.840060e-01 -8.870498e-01 -8.944894e-01 -8.681110e-01 -8.744769e-01 -8.738529e-01 -8.494629e-01 -8.203286e-01 -8.127953e-01 -7.898732e-01 -7.924925e-01 -7.800085e-01 -7.770671e-01 -7.680572e-01 -7.547316e-01 -7.309277e-01 -7.944204e-01 -7.946823e-01 -7.837279e-01 -7.992855e-01 -8.353455e-01 -8.407216e-01 -8.733831e-01 -8.716984e-01 -8.978071e-01 -8.855766e-01 -9.040576e-01 -8.852631e-01 -9.036602e-01 -8.866615e-01 -9.102093e-01 -8.958214e-01 -9.207021e-01 -9.029681e-01 -9.223170e-01 -8.977523e-01 -9.115679e-01 -8.856682e-01 -9.003222e-01 -8.800657e-01 -8.990474e-01 -8.871113e-01 -9.099261e-01 -9.053054e-01 -9.280968e-01 -9.268257e-01 -9.442593e-01 -9.412599e-01 -9.481906e-01 -9.398968e-01 -9.370396e-01 -9.277849e-01 -9.243122e-01 -9.218619e-01 -9.259380e-01 -9.312742e-01 -9.418151e-01 -9.443575e-01 -9.515074e-01 -9.376731e-01 -9.374818e-01 -9.057472e-01 -9.076696e-01 -8.670076e-01 -8.848925e-01 -8.425014e-01 -8.818366e-01 -8.310074e-01 -8.978010e-01 -8.619842e-01 -8.939517e-01 -8.700828e-01 -9.001634e-01 -8.824552e-01 
-7.573507e-01 -7.500299e-01 -7.677159e-01 -7.557103e-01 -7.698765e-01 -7.477764e-01 -8.071665e-01 -8.383963e-01 -8.176550e-01 -8.504687e-01 -8.363836e-01 -8.680998e-01 -8.532031e-01 -8.197412e-01 -6.197023e-01 -5.125840e-01 -3.724987e-01 -2.402503e-01 -1.003810e-01 3.030832e-03 2.020960e-01 2.482372e-01 2.305290e-01 2.304358e-01 2.094112e-01 2.106214e-01 1.886292e-01 1.925566e-01 1.695979e-01 1.746277e-01 1.485086e-01 1.524454e-01 1.228238e-01 1.264604e-01 9.602336e-02 1.018492e-01 7.316417e-02 8.161687e-02 5.419354e-02 6.273794e-02 3.480257e-02 4.156020e-02 1.329922e-02 1.849493e-02 -8.934394e-03 -5.076589e-03 -3.179820e-02 -3.031532e-02 -5.733591e-02 -5.865207e-02 -8.503422e-02 -8.757341e-02 -1.112308e-01 -1.144065e-01 -1.356838e-01 -1.423821e-01 -1.484003e-01 -4.651861e-02 -3.730903e-02 -3.834803e-02 3.962260e-02 8.653738e-02 1.024422e-01 1.614632e-01 1.742688e-01 1.968493e-01 1.691761e-01 1.063523e-01 4.801187e-02 2.302499e-02 -2.749177e-01 -3.640623e-01 -2.703064e-01 -2.946774e-01 -3.404530e-01 -3.493569e-01 -3.899421e-01 -3.927497e-01 -4.267105e-01 -4.224500e-01 -4.492724e-01 -4.398725e-01 -4.627624e-01 -4.519544e-01 -4.739726e-01 -4.630813e-01 -4.842594e-01 -4.723747e-01 -4.913926e-01 -4.783437e-01 -4.959655e-01 -4.844570e-01 -5.034743e-01 -4.964792e-01 -5.184493e-01 -5.171404e-01 -5.418633e-01 -5.456433e-01 -5.712554e-01 -5.779865e-01 -6.017437e-01 -6.086393e-01 -6.278294e-01 -6.326168e-01 -6.467924e-01 -6.499979e-01 -6.619023e-01 -6.652589e-01 -6.774978e-01 -6.804427e-01 -6.927085e-01 -6.909451e-01 -7.003852e-01 -6.890484e-01 -6.954804e-01 -6.743783e-01 -6.828047e-01 -6.555431e-01 -6.730682e-01 -6.418501e-01 -6.747250e-01 -6.272848e-01 -7.137485e-01 -7.177997e-01 -7.298484e-01 -7.261858e-01 -7.436268e-01 -7.385820e-01 
-9.104852e-01 -9.083348e-01 -9.470969e-01 -9.427134e-01 -9.857279e-01 -9.809054e-01 -1.068817e+00 -1.082806e+00 -1.128137e+00 -1.129276e+00 -1.189535e+00 -1.177825e+00 -1.246668e+00 -1.174933e+00 -4.994482e-01 -1.195404e-01 3.331070e-01 7.725302e-01 1.248003e+00 1.570858e+00 2.304384e+00 2.336312e+00 2.288694e+00 2.285211e+00 2.238523e+00 2.230064e+00 2.180211e+00 2.164928e+00 2.113060e+00 2.095986e+00 2.049600e+00 2.036625e+00 1.998251e+00 1.986724e+00 1.950305e+00 1.932865e+00 1.892384e+00 1.867283e+00 1.825000e+00 1.798377e+00 1.759765e+00 1.735567e+00 1.700111e+00 1.676500e+00 1.640587e+00 1.616508e+00 1.580205e+00 1.559367e+00 1.525819e+00 1.511057e+00 1.478783e+00 1.467264e+00 1.431752e+00 1.423047e+00 1.385411e+00 1.388900e+00 1.368173e+00 1.482801e+00 1.468406e+00 1.497368e+00 1.526902e+00 1.551677e+00 1.525731e+00 1.548306e+00 1.521705e+00 1.498877e+00 1.410796e+00 1.274288e+00 1.128952e+00 9.842687e-01 6.655479e-01 4.811643e-01 5.712658e-01 5.469044e-01 5.224358e-01 5.046459e-01 4.706034e-01 4.530878e-01 4.126838e-01 3.916730e-01 3.469908e-01 3.255178e-01 2.847033e-01 2.697321e-01 2.371408e-01 2.279763e-01 1.985131e-01 1.874635e-01 1.529739e-01 1.345832e-01 9.371470e-02 7.156406e-02 2.957363e-02 9.385437e-03 -3.057428e-02 -4.645535e-02 -8.444717e-02 -9.653527e-02 -1.354359e-01 -1.465504e-01 -1.904010e-01 -2.039663e-01 -2.565375e-01 -2.741125e-01 -3.336895e-01 -3.489618e-01 -4.061525e-01 -4.095867e-01 -4.567383e-01 -4.457176e-01 -4.849347e-01 -4.685422e-01 -5.111829e-01 -5.020235e-01 -5.544280e-01 -5.541768e-01 -6.103120e-01 -6.111637e-01 -6.613978e-01 -6.571602e-01 -7.020287e-01 -6.901562e-01 -7.651238e-01 -7.994621e-01 -8.275923e-01 -8.389237e-01 -8.720921e-01 -8.744318e-01 
-7.652038e-01 -7.724339e-01 -8.047931e-01 -8.130090e-01 -8.500710e-01 -8.637422e-01 -9.124389e-01 -9.225255e-01 -9.697930e-01 -9.741192e-01 -1.024613e+00 -1.022973e+00 -1.075473e+00 -1.064371e+00 -2.567526e-01 -1.653541e-01 5.830702e-01 7.008226e-01 1.451429e+00 1.536591e+00 2.347783e+00 2.356171e+00 2.303879e+00 2.308542e+00 2.255622e+00 2.256604e+00 2.200667e+00 2.196253e+00 2.138789e+00 2.132585e+00 2.079604e+00 2.075910e+00 2.029482e+00 2.026181e+00 1.981773e+00 1.973210e+00 1.926253e+00 1.911070e+00 1.863205e+00 1.846110e+00 1.801426e+00 1.785624e+00 1.743770e+00 1.728152e+00 1.686434e+00 1.670371e+00 1.628769e+00 1.615000e+00 1.575638e+00 1.566051e+00 1.527393e+00 1.519472e+00 1.477472e+00 1.470160e+00 1.424592e+00 1.423247e+00 1.378270e+00 1.395652e+00 1.345650e+00 1.371860e+00 1.342806e+00 1.362872e+00 1.320468e+00 1.310628e+00 1.255987e+00 1.227365e+00 1.171653e+00 1.120430e+00 1.045213e+00 9.554338e-01 8.377735e-01 7.362217e-01 7.063845e-01 6.825385e-01 6.458861e-01 6.256432e-01 5.860106e-01 5.669881e-01 5.242609e-01 5.026715e-01 4.573566e-01 4.351509e-01 3.931013e-01 3.754628e-01 3.400924e-01 3.265924e-01 2.942458e-01 2.792816e-01 2.438958e-01 2.236152e-01 1.842104e-01 1.615980e-01 1.222033e-01 1.019006e-01 6.494923e-02 4.896892e-02 1.427469e-02 2.210281e-03 -3.278151e-02 -4.331671e-02 -8.216197e-02 -9.407216e-02 -1.399791e-01 -1.546300e-01 -2.063974e-01 -2.191589e-01 -2.696394e-01 -2.735348e-01 -3.168802e-01 -3.103628e-01 -3.481608e-01 -3.386425e-01 -3.793790e-01 -3.768446e-01 -4.250000e-01 -4.309910e-01 -4.814501e-01 -4.902176e-01 -5.348616e-01 -5.423074e-01 -5.796307e-01 -5.899670e-01 -6.268700e-01 -6.504616e-01 -6.819366e-01 -6.958946e-01 -7.258245e-01 -7.349095e-01 
-9.181387e-01 -9.204914e-01 -9.680288e-01 -9.693894e-01 -1.021264e+00 -1.022859e+00 -1.081269e+00 -1.083661e+00 -1.141684e+00 -1.142072e+00 -1.202416e+00 -1.200211e+00 -1.262616e+00 -1.258588e+00 -3.773100e-01 -2.861702e-01 5.311277e-01 6.490370e-01 1.471772e+00 1.550556e+00 2.444314e+00 2.433874e+00 2.386036e+00 2.374737e+00 2.326876e+00 2.314149e+00 2.266073e+00 2.251491e+00 2.203867e+00 2.188123e+00 2.142436e+00 2.126304e+00 2.083074e+00 2.065957e+00 2.024150e+00 2.004724e+00 1.963208e+00 1.941188e+00 1.900136e+00 1.876677e+00 1.836858e+00 1.813032e+00 1.774379e+00 1.750402e+00 1.712261e+00 1.688285e+00 1.650407e+00 1.627016e+00 1.589480e+00 1.566746e+00 1.528904e+00 1.505437e+00 1.466043e+00 1.439348e+00 1.397501e+00 1.363174e+00 1.317635e+00 1.264435e+00 1.219574e+00 1.178791e+00 1.152277e+00 1.131713e+00 1.104328e+00 1.076089e+00 1.028877e+00 1.004160e+00 9.616601e-01 9.586353e-01 9.117116e-01 9.005679e-01 8.261743e-01 8.002448e-01 7.221957e-01 6.953819e-01 6.352728e-01 6.112627e-01 5.589789e-01 5.363870e-01 4.875353e-01 4.654130e-01 4.185542e-01 3.972796e-01 3.529164e-01 3.334291e-01 2.917582e-01 2.737605e-01 2.334711e-01 2.155271e-01 1.748316e-01 1.560303e-01 1.143469e-01 9.542443e-02 5.340536e-02 3.572922e-02 -6.150704e-03 -2.175750e-02 -6.377096e-02 -7.726222e-02 -1.203743e-01 -1.322912e-01 -1.776684e-01 -1.886041e-01 -2.369589e-01 -2.468455e-01 -2.975076e-01 -3.049070e-01 -3.558029e-01 -3.589666e-01 -4.084321e-01 -4.072824e-01 -4.556498e-01 -4.525300e-01 -5.017929e-01 -4.997434e-01 -5.510392e-01 -5.511917e-01 -6.034378e-01 -6.049834e-01 -6.563639e-01 -6.585755e-01 -7.088554e-01 -7.126953e-01 -7.632525e-01 -7.720701e-01 -8.176317e-01 -8.245647e-01 -8.687742e-01 -8.731216e-01 
-7.722997e-01 -7.826772e-01 -8.192427e-01 -8.298242e-01 -8.690613e-01 -8.805318e-01 -9.230795e-01 -9.349750e-01 -9.793684e-01 -9.921770e-01 -1.037740e+00 -1.053606e+00 -1.099146e+00 -1.122486e+00 -2.387445e-01 -2.285338e-01 6.264391e-01 6.498623e-01 1.502813e+00 1.515760e+00 2.392518e+00 2.376725e+00 2.324804e+00 2.315407e+00 2.262784e+00 2.256016e+00 2.202888e+00 2.196599e+00 2.143736e+00 2.137295e+00 2.085910e+00 2.079170e+00 2.029780e+00 2.021978e+00 1.974022e+00 1.964102e+00 1.916914e+00 1.904640e+00 1.858371e+00 1.844552e+00 1.799705e+00 1.785145e+00 1.741620e+00 1.726528e+00 1.683742e+00 1.668246e+00 1.625888e+00 1.610476e+00 1.568589e+00 1.553577e+00 1.511893e+00 1.496768e+00 1.454698e+00 1.438311e+00 1.395701e+00 1.376182e+00 1.333607e+00 1.306367e+00 1.267307e+00 1.238614e+00 1.193187e+00 1.167806e+00 1.124563e+00 1.106698e+00 1.060232e+00 1.040267e+00 9.837163e-01 9.623821e-01 9.035895e-01 8.860015e-01 8.292547e-01 8.142360e-01 7.525614e-01 7.323281e-01 6.789330e-01 6.586011e-01 6.092391e-01 5.888948e-01 5.417507e-01 5.213107e-01 4.759296e-01 4.558041e-01 4.125855e-01 3.933053e-01 3.523026e-01 3.336362e-01 2.940054e-01 2.751994e-01 2.359463e-01 2.167807e-01 1.777051e-01 1.589753e-01 1.204821e-01 1.032066e-01 6.537408e-02 5.006262e-02 1.239107e-02 -9.477963e-04 -3.928894e-02 -5.091764e-02 -9.076407e-02 -1.010022e-01 -1.429054e-01 -1.518286e-01 -1.955486e-01 -2.025730e-01 -2.469562e-01 -2.513121e-01 -2.952281e-01 -2.970971e-01 -3.404617e-01 -3.415260e-01 -3.852304e-01 -3.877066e-01 -4.321813e-01 -4.371941e-01 -4.814929e-01 -4.888400e-01 -5.314154e-01 -5.406530e-01 -5.807674e-01 -5.920210e-01 -6.300056e-01 -6.431588e-01 -6.790508e-01 -6.913572e-01 -7.261896e-01 -7.372465e-01 
-9.237594e-01 -9.265811e-01 -9.756442e-01 -9.778479e-01 -1.029857e+00 -1.032100e+00 -1.087326e+00 -1.090119e+00 -1.147107e+00 -1.150771e+00 -1.209081e+00 -1.215336e+00 -1.273992e+00 -1.287182e+00 -3.593518e-01 -3.278636e-01 5.646814e-01 6.109112e-01 1.506023e+00 1.531022e+00 2.465249e+00 2.441937e+00 2.394956e+00 2.377072e+00 2.329919e+00 2.313995e+00 2.266950e+00 2.251221e+00 2.204710e+00 2.188463e+00 2.143015e+00 2.125940e+00 2.081795e+00 2.063498e+00 2.020469e+00 2.000543e+00 1.958395e+00 1.936845e+00 1.895649e+00 1.872932e+00 1.832844e+00 1.809388e+00 1.770212e+00 1.746095e+00 1.707310e+00 1.682496e+00 1.643725e+00 1.618428e+00 1.579656e+00 1.554180e+00 1.515439e+00 1.489737e+00 1.450816e+00 1.424441e+00 1.385116e+00 1.357843e+00 1.318466e+00 1.291654e+00 1.253160e+00 1.227625e+00 1.182644e+00 1.158994e+00 1.113602e+00 1.094235e+00 1.050478e+00 1.028537e+00 9.808108e-01 9.531941e-01 9.034479e-01 8.767568e-01 8.253835e-01 8.006691e-01 7.435139e-01 7.186131e-01 6.629557e-01 6.385216e-01 5.850683e-01 5.611991e-01 5.099290e-01 4.867432e-01 4.375614e-01 4.151638e-01 3.678890e-01 3.462136e-01 3.004211e-01 2.792166e-01 2.343657e-01 2.135323e-01 1.693572e-01 1.492820e-01 1.058884e-01 8.725257e-02 4.469219e-02 2.794773e-02 -1.416789e-02 -2.896400e-02 -7.129160e-02 -8.415006e-02 -1.271877e-01 -1.379527e-01 -1.819676e-01 -1.905141e-01 -2.357662e-01 -2.422235e-01 -2.889715e-01 -2.935919e-01 -3.418249e-01 -3.447679e-01 -3.941360e-01 -3.956073e-01 -4.457560e-01 -4.463392e-01 -4.971851e-01 -4.978134e-01 -5.493650e-01 -5.508660e-01 -6.028577e-01 -6.055903e-01 -6.574461e-01 -6.613949e-01 -7.125046e-01 -7.175432e-01 -7.673222e-01 -7.732000e-01 -8.208138e-01 -8.260312e-01 -8.726514e-01 -8.766107e-01 
-7.760665e-01 -7.860539e-01 -8.222050e-01 -8.324242e-01 -8.713021e-01 -8.824789e-01 -9.247456e-01 -9.364381e-01 -9.806431e-01 -9.933676e-01 -1.038820e+00 -1.054700e+00 -1.100153e+00 -1.123566e+00 -2.398643e-01 -2.294862e-01 6.250491e-01 6.488957e-01 1.500872e+00 1.514658e+00 2.389762e+00 2.375458e+00 2.322756e+00 2.314474e+00 2.261410e+00 2.255506e+00 2.202131e+00 2.196489e+00 2.143376e+00 2.137290e+00 2.085437e+00 2.078696e+00 2.028586e+00 2.020514e+00 1.971679e+00 1.961334e+00 1.913311e+00 1.900717e+00 1.854027e+00 1.840268e+00 1.795665e+00 1.781506e+00 1.738638e+00 1.723567e+00 1.680951e+00 1.664072e+00 1.620788e+00 1.602462e+00 1.559131e+00 1.540744e+00 1.498383e+00 1.480649e+00 1.439135e+00 1.421160e+00 1.379310e+00 1.359684e+00 1.316767e+00 1.295151e+00 1.251373e+00 1.229346e+00 1.184275e+00 1.163331e+00 1.117183e+00 1.097738e+00 1.049630e+00 1.030839e+00 9.803155e-01 9.621597e-01 9.102563e-01 8.928182e-01 8.401698e-01 8.224436e-01 7.688440e-01 7.494037e-01 6.962980e-01 6.754861e-01 6.236487e-01 6.023113e-01 5.525675e-01 5.316352e-01 4.845909e-01 4.644236e-01 4.198227e-01 3.998281e-01 3.565692e-01 3.357503e-01 2.928120e-01 2.710452e-01 2.287247e-01 2.074934e-01 1.671273e-01 1.482060e-01 1.102998e-01 9.401460e-02 5.729862e-02 4.262219e-02 5.295128e-03 -8.268045e-03 -4.661594e-02 -5.805978e-02 -9.670117e-02 -1.049659e-01 -1.438242e-01 -1.493553e-01 -1.896414e-01 -1.940094e-01 -2.368157e-01 -2.409080e-01 -2.857291e-01 -2.892574e-01 -3.346220e-01 -3.374048e-01 -3.823526e-01 -3.853428e-01 -4.299216e-01 -4.347654e-01 -4.790954e-01 -4.867977e-01 -5.302624e-01 -5.407856e-01 -5.823821e-01 -5.950180e-01 -6.340025e-01 -6.477089e-01 -6.838133e-01 -6.960783e-01 -7.306760e-01 -7.414155e-01 
-9.262895e-01 -9.274961e-01 -9.739728e-01 -9.743974e-01 -1.025468e+00 -1.026338e+00 -1.084196e+00 -1.086080e+00 -1.143802e+00 -1.143882e+00 -1.204084e+00 -1.201678e+00 -1.264040e+00 -1.259841e+00 -3.789647e-01 -2.873827e-01 5.290031e-01 6.474396e-01 1.468735e+00 1.548277e+00 2.439701e+00 2.430623e+00 2.382656e+00 2.372192e+00 2.324638e+00 2.312602e+00 2.264892e+00 2.250878e+00 2.203372e+00 2.187854e+00 2.141690e+00 2.125249e+00 2.080938e+00 2.063088e+00 2.019783e+00 1.999334e+00 1.956268e+00 1.933363e+00 1.891401e+00 1.867710e+00 1.828134e+00 1.804739e+00 1.767125e+00 1.743013e+00 1.705087e+00 1.678587e+00 1.638979e+00 1.610554e+00 1.570427e+00 1.542397e+00 1.503590e+00 1.477443e+00 1.439896e+00 1.414733e+00 1.376527e+00 1.350864e+00 1.310797e+00 1.284845e+00 1.243226e+00 1.218194e+00 1.175238e+00 1.151853e+00 1.107948e+00 1.085804e+00 1.040782e+00 1.018855e+00 9.724710e-01 9.505362e-01 9.029432e-01 8.812731e-01 8.319405e-01 8.097488e-01 7.577603e-01 7.339521e-01 6.799527e-01 6.547007e-01 6.001632e-01 5.745400e-01 5.212329e-01 4.965641e-01 4.457851e-01 4.225297e-01 3.740432e-01 3.511850e-01 3.034337e-01 2.794208e-01 2.310726e-01 2.058012e-01 1.577235e-01 1.336494e-01 8.834016e-02 6.818183e-02 2.663463e-02 1.059356e-02 -2.913021e-02 -4.307333e-02 -8.372227e-02 -9.657186e-02 -1.384665e-01 -1.485786e-01 -1.901917e-01 -1.958327e-01 -2.369476e-01 -2.389646e-01 -2.818436e-01 -2.830466e-01 -3.300163e-01 -3.319147e-01 -3.826054e-01 -3.843615e-01 -4.366258e-01 -4.371785e-01 -4.895735e-01 -4.895688e-01 -5.424401e-01 -5.438519e-01 -5.978944e-01 -6.018746e-01 -6.566490e-01 -6.628380e-01 -7.171238e-01 -7.243607e-01 -7.767159e-01 -7.856842e-01 -8.306404e-01 -8.365311e-01 -8.794672e-01 -8.825478e-01 
-7.768435e-01 -7.825023e-01 -8.133483e-01 -8.203136e-01 -8.562060e-01 -8.689078e-01 -9.167037e-01 -9.260687e-01 -9.728290e-01 -9.769859e-01 -1.027373e+00 -1.025928e+00 -1.078288e+00 -1.067321e+00 -2.594847e-01 -1.676430e-01 5.800235e-01 6.984085e-01 1.446662e+00 1.533403e+00 2.339469e+00 2.352283e+00 2.297876e+00 2.305395e+00 2.251740e+00 2.255172e+00 2.199264e+00 2.197099e+00 2.139754e+00 2.134863e+00 2.080618e+00 2.076574e+00 2.027614e+00 2.023045e+00 1.975178e+00 1.964311e+00 1.913371e+00 1.896126e+00 1.845995e+00 1.829234e+00 1.786282e+00 1.774572e+00 1.738303e+00 1.726832e+00 1.688064e+00 1.668356e+00 1.621660e+00 1.594877e+00 1.546033e+00 1.521417e+00 1.478876e+00 1.462111e+00 1.425884e+00 1.411957e+00 1.373790e+00 1.355414e+00 1.311319e+00 1.289017e+00 1.242258e+00 1.220916e+00 1.175337e+00 1.157160e+00 1.111646e+00 1.094010e+00 1.046069e+00 1.028527e+00 9.798957e-01 9.645850e-01 9.170352e-01 9.037676e-01 8.560477e-01 8.413116e-01 7.900028e-01 7.699933e-01 7.140749e-01 6.893970e-01 6.317830e-01 6.057305e-01 5.509638e-01 5.281006e-01 4.804175e-01 4.625790e-01 4.210017e-01 4.042801e-01 3.628495e-01 3.403738e-01 2.929395e-01 2.622783e-01 2.115431e-01 1.811497e-01 1.374698e-01 1.170531e-01 8.481141e-02 7.362647e-02 4.523134e-02 3.317295e-02 -2.170799e-03 -1.998216e-02 -6.124601e-02 -7.674431e-02 -1.144866e-01 -1.189965e-01 -1.499665e-01 -1.458237e-01 -1.783050e-01 -1.764695e-01 -2.197183e-01 -2.247023e-01 -2.763119e-01 -2.822283e-01 -3.334314e-01 -3.341230e-01 -3.801212e-01 -3.770420e-01 -4.212440e-01 -4.219003e-01 -4.687292e-01 -4.769360e-01 -5.253094e-01 -5.399474e-01 -5.860183e-01 -6.042038e-01 -6.453271e-01 -6.696419e-01 -7.003906e-01 -7.129504e-01 -7.410584e-01 -7.483771e-01 
-9.254460e-01 -9.206457e-01 -9.571192e-01 -9.508594e-01 -9.922827e-01 -9.859923e-01 -1.072863e+00 -1.086034e+00 -1.131195e+00 -1.132070e+00 -1.192205e+00 -1.180310e+00 -1.248564e+00 -1.176256e+00 -5.019115e-01 -1.204668e-01 3.304306e-01 7.704067e-01 1.244544e+00 1.567616e+00 2.296708e+00 2.327604e+00 2.282843e+00 2.279517e+00 2.234944e+00 2.227640e+00 2.179615e+00 2.166036e+00 2.115516e+00 2.099420e+00 2.052267e+00 2.038408e+00 1.997418e+00 1.983978e+00 1.943484e+00 1.922691e+00 1.877066e+00 1.848665e+00 1.803060e+00 1.776032e+00 1.739034e+00 1.719423e+00 1.690688e+00 1.672185e+00 1.639858e+00 1.611234e+00 1.568307e+00 1.531015e+00 1.485148e+00 1.451236e+00 1.413486e+00 1.390350e+00 1.360655e+00 1.341731e+00 1.309237e+00 1.285230e+00 1.244943e+00 1.217054e+00 1.173531e+00 1.147535e+00 1.106079e+00 1.084930e+00 1.043903e+00 1.023902e+00 9.802435e-01 9.606269e-01 9.165686e-01 9.000459e-01 8.575728e-01 8.441490e-01 8.008562e-01 7.856988e-01 7.373470e-01 7.152276e-01 6.590939e-01 6.308074e-01 5.705733e-01 5.401595e-01 4.816583e-01 4.549600e-01 4.038534e-01 3.834265e-01 3.387656e-01 3.198377e-01 2.742720e-01 2.481496e-01 1.939726e-01 1.575824e-01 9.865667e-02 6.320306e-02 1.352543e-02 -8.127240e-03 -4.237577e-02 -5.112899e-02 -7.955130e-02 -8.877055e-02 -1.253820e-01 -1.417384e-01 -1.851484e-01 -1.983781e-01 -2.363203e-01 -2.354601e-01 -2.639794e-01 -2.524917e-01 -2.828817e-01 -2.754352e-01 -3.202854e-01 -3.228145e-01 -3.793335e-01 -3.839185e-01 -4.410474e-01 -4.393178e-01 -4.912045e-01 -4.845920e-01 -5.360320e-01 -5.336881e-01 -5.906110e-01 -5.965358e-01 -6.577841e-01 -6.690041e-01 -7.315590e-01 -7.358673e-01 -8.147110e-01 -8.410757e-01 -8.610552e-01 -8.664277e-01 -8.943847e-01 -8.928090e-01 
-7.748263e-01 -7.642479e-01 -7.792069e-01 -7.652205e-01 -7.777428e-01 -7.544512e-01 -8.131849e-01 -8.444981e-01 -8.241191e-01 -8.571260e-01 -8.427261e-01 -8.743701e-01 -8.588398e-01 -8.255284e-01 -6.246562e-01 -5.174009e-01 -3.758451e-01 -2.439311e-01 -1.014629e-01 1.211880e-03 2.031889e-01 2.492436e-01 2.334108e-01 2.337588e-01 2.136386e-01 2.149572e-01 1.933010e-01 1.969426e-01 1.741690e-01 1.789648e-01 1.535454e-01 1.576823e-01 1.290120e-01 1.328175e-01 1.032077e-01 1.090801e-01 8.083251e-02 8.857317e-02 6.024069e-02 6.653177e-02 3.558735e-02 3.834889e-02 5.531111e-03 7.211662e-03 -2.270793e-02 -1.791880e-02 -4.218288e-02 -3.477655e-02 -5.624531e-02 -5.064719e-02 -7.367409e-02 -7.263408e-02 -9.763531e-02 -9.863531e-02 -1.219944e-01 -1.210981e-01 -1.410706e-01 -1.376646e-01 -1.559454e-01 -1.528853e-01 -1.713595e-01 -1.684732e-01 -1.871991e-01 -1.826063e-01 -2.004269e-01 -1.940073e-01 -2.121269e-01 -2.055260e-01 -2.252206e-01 -2.189475e-01 -2.406964e-01 -2.347895e-01 -2.564091e-01 -2.505857e-01 -2.737868e-01 -2.689068e-01 -2.950274e-01 -2.930445e-01 -3.238400e-01 -3.267729e-01 -3.634877e-01 -3.715059e-01 -4.125465e-01 -4.226553e-01 -4.637694e-01 -4.712984e-01 -5.078991e-01 -5.101390e-01 -5.417552e-01 -5.411974e-01 -5.711171e-01 -5.710476e-01 -6.000620e-01 -5.992456e-01 -6.230676e-01 -6.164976e-01 -6.301261e-01 -6.160918e-01 -6.210471e-01 -6.047378e-01 -6.072878e-01 -5.946104e-01 -5.985417e-01 -5.902217e-01 -5.939722e-01 -5.863266e-01 -5.877430e-01 -5.796547e-01 -5.818503e-01 -5.765086e-01 -5.851614e-01 -5.851498e-01 -6.034673e-01 -6.070041e-01 -6.336170e-01 -6.353441e-01 -6.678526e-01 -6.635901e-01 -7.022145e-01 -6.890993e-01 -7.374969e-01 -7.030063e-01 -7.878760e-01 -7.764761e-01 -7.746274e-01 -7.614310e-01 -7.711062e-01 -7.605931e-01 
-9.224071e-01 -9.046349e-01 -9.269291e-01 -9.091045e-01 -9.258588e-01 -9.038072e-01 -9.278767e-01 -9.459491e-01 -9.259808e-01 -9.584366e-01 -9.317226e-01 -9.731866e-01 -9.444107e-01 -9.734929e-01 -8.877751e-01 -8.961608e-01 -8.326181e-01 -8.316954e-01 -7.695378e-01 -7.730990e-01 -6.919167e-01 -7.085147e-01 -6.984476e-01 -7.243485e-01 -7.173196e-01 -7.364635e-01 -7.294252e-01 -7.396761e-01 -7.336267e-01 -7.392216e-01 -7.398662e-01 -7.462122e-01 -7.559367e-01 -7.616940e-01 -7.740526e-01 -7.717043e-01 -7.802547e-01 -7.699984e-01 -7.794164e-01 -7.708910e-01 -7.893312e-01 -7.889449e-01 -8.152684e-01 -8.164813e-01 -8.377485e-01 -8.288932e-01 -8.374874e-01 -8.200671e-01 -8.239063e-01 -8.103840e-01 -8.211424e-01 -8.190081e-01 -8.369082e-01 -8.388727e-01 -8.528804e-01 -8.483683e-01 -8.533292e-01 -8.422452e-01 -8.429565e-01 -8.320465e-01 -8.342500e-01 -8.253992e-01 -8.287103e-01 -8.181057e-01 -8.198404e-01 -8.074629e-01 -8.108130e-01 -8.004749e-01 -8.086727e-01 -8.010741e-01 -8.134073e-01 -8.056637e-01 -8.164887e-01 -8.047338e-01 -8.138377e-01 -7.989751e-01 -8.097610e-01 -7.960158e-01 -8.136749e-01 -8.067077e-01 -8.359165e-01 -8.374883e-01 -8.757538e-01 -8.795832e-01 -9.174266e-01 -9.128372e-01 -9.401144e-01 -9.221168e-01 -9.405872e-01 -9.190903e-01 -9.412332e-01 -9.282352e-01 -9.589328e-01 -9.527483e-01 -9.812455e-01 -9.680189e-01 -9.798865e-01 -9.535108e-01 -9.512398e-01 -9.238676e-01 -9.221177e-01 -9.071000e-01 -9.126336e-01 -9.084858e-01 -9.126843e-01 -9.060272e-01 -8.989823e-01 -8.848002e-01 -8.721936e-01 -8.588407e-01 -8.542735e-01 -8.495019e-01 -8.603915e-01 -8.608887e-01 -8.828718e-01 -8.767481e-01 -9.036859e-01 -8.840388e-01 -9.169313e-01 -8.833394e-01 -9.268379e-01 -8.780308e-01 -9.416535e-01 -8.978037e-01 -9.225279e-01 -8.931961e-01 -9.187026e-01 -8.975429e-01 
-7.704032e-01 -7.570852e-01 -7.690364e-01 -7.587831e-01 -7.663963e-01 -7.599417e-01 -7.618302e-01 -7.735846e-01 -7.585958e-01 -7.804889e-01 -7.579449e-01 -7.826421e-01 -7.599018e-01 -7.803955e-01 -7.650700e-01 -7.833919e-01 -7.731123e-01 -7.865566e-01 -7.814702e-01 -7.885461e-01 -7.882522e-01 -7.888531e-01 -7.902805e-01 -7.914654e-01 -7.952653e-01 -7.944127e-01 -7.990513e-01 -7.942107e-01 -8.003285e-01 -7.930698e-01 -8.035044e-01 -7.961373e-01 -8.118986e-01 -8.035820e-01 -8.214449e-01 -8.087141e-01 -8.254662e-01 -8.085281e-01 -8.260005e-01 -8.095096e-01 -8.311355e-01 -8.182649e-01 -8.431742e-01 -8.312496e-01 -8.534449e-01 -8.376199e-01 -8.535922e-01 -8.347237e-01 -8.477918e-01 -8.312979e-01 -8.462962e-01 -8.350508e-01 -8.518030e-01 -8.422067e-01 -8.559639e-01 -8.430820e-01 -8.517617e-01 -8.353131e-01 -8.410598e-01 -8.244753e-01 -8.293887e-01 -8.137065e-01 -8.186632e-01 -8.029618e-01 -8.081930e-01 -7.923730e-01 -7.990152e-01 -7.844294e-01 -7.938185e-01 -7.817095e-01 -7.936567e-01 -7.827329e-01 -7.948568e-01 -7.823699e-01 -7.951071e-01 -7.813386e-01 -7.960403e-01 -7.827043e-01 -8.012516e-01 -7.906599e-01 -8.147152e-01 -8.076558e-01 -8.359682e-01 -8.297696e-01 -8.578615e-01 -8.476831e-01 -8.705736e-01 -8.540098e-01 -8.718795e-01 -8.531861e-01 -8.711624e-01 -8.559927e-01 -8.762636e-01 -8.645138e-01 -8.824406e-01 -8.685948e-01 -8.777957e-01 -8.593743e-01 -8.605083e-01 -8.425610e-01 -8.415723e-01 -8.296365e-01 -8.294199e-01 -8.227768e-01 -8.202361e-01 -8.133799e-01 -8.054592e-01 -7.963568e-01 -7.866500e-01 -7.783973e-01 -7.735174e-01 -7.682468e-01 -7.717266e-01 -7.665749e-01 -7.770641e-01 -7.661124e-01 -7.818735e-01 -7.621017e-01 -7.842233e-01 -7.561464e-01 -7.859033e-01 -7.519613e-01 -7.871039e-01 -7.541351e-01 -7.775398e-01 -7.539731e-01 -7.724801e-01 -7.551122e-01 
