# vtk DataFile Version 2.0
Comment goes here
ASCII

DATASET STRUCTURED_POINTS
FIELD FieldData 1
TIME 1 1 double
0.83000000
DIMENSIONS    128   16   1

ORIGIN    0.000   0.000   0.000
SPACING   0.0078125 0.015625   1.000

POINT_DATA   2048
SCALARS P double
LOOKUP_TABLE default

2.119767e-01 2.151754e-01 2.138611e-01 2.192936e-01 2.133215e-01 2.226433e-01 2.087052e-01 2.243259e-01 2.115799e-01 2.229437e-01 2.135910e-01 2.197665e-01 2.129176e-01 2.130976e-01 2.065890e-01 2.030172e-01 1.979428e-01 1.901441e-01 1.884383e-01 1.778463e-01 1.795375e-01 1.707526e-01 1.749478e-01 1.684064e-01 1.747257e-01 1.680043e-01 1.744614e-01 1.651252e-01 1.698988e-01 1.579987e-01 1.620333e-01 1.504856e-01 1.561258e-01 1.475751e-01 1.552119e-01 1.492126e-01 1.562960e-01 1.502893e-01 1.539848e-01 1.463264e-01 1.459036e-01 1.370857e-01 1.340988e-01 1.262157e-01 1.233642e-01 1.186610e-01 1.180824e-01 1.172289e-01 1.185959e-01 1.190529e-01 1.188522e-01 1.161695e-01 1.111601e-01 1.037858e-01 9.538490e-02 8.685823e-02 7.986860e-02 7.385927e-02 7.112645e-02 6.658980e-02 6.362476e-02 5.245179e-02 4.749604e-02 3.454171e-02 3.235736e-02 1.999153e-02 2.217207e-02 1.301545e-02 1.748860e-02 1.415106e-02 2.525945e-02 2.130661e-02 3.558818e-02 3.746091e-02 5.231855e-02 5.928914e-02 7.396513e-02 8.364165e-02 9.590573e-02 1.060698e-01 1.160503e-01 1.277273e-01 1.384059e-01 1.529932e-01 1.652959e-01 1.800636e-01 1.909516e-01 2.008938e-01 2.080176e-01 2.116176e-01 2.173904e-01 2.175736e-01 2.262537e-01 2.253841e-01 2.380071e-01 2.351902e-01 2.497660e-01 2.434054e-01 2.581098e-01 2.482461e-01 2.620305e-01 2.493385e-01 2.604795e-01 2.454909e-01 2.525915e-01 2.376889e-01 2.418697e-01 2.315649e-01 2.347773e-01 2.317585e-01 2.327785e-01 2.349500e-01 2.297285e-01 2.334153e-01 2.205682e-01 2.253407e-01 2.086293e-01 2.162128e-01 2.007704e-01 2.105575e-01 1.992446e-01 2.075993e-01 2.020933e-01 2.053006e-01 2.052429e-01 2.072381e-01 2.088185e-01 2.109244e-01 
1.919604e-01 1.964867e-01 1.948750e-01 2.011783e-01 1.942619e-01 2.047816e-01 1.873141e-01 2.048287e-01 1.910081e-01 2.014123e-01 1.941858e-01 1.964890e-01 1.957370e-01 1.887193e-01 1.945857e-01 1.810895e-01 1.926267e-01 1.751233e-01 1.894844e-01 1.700013e-01 1.848179e-01 1.665998e-01 1.802207e-01 1.652373e-01 1.772737e-01 1.622129e-01 1.719166e-01 1.560539e-01 1.652374e-01 1.512909e-01 1.625672e-01 1.518690e-01 1.641640e-01 1.546352e-01 1.648206e-01 1.541187e-01 1.602055e-01 1.479015e-01 1.502816e-01 1.375453e-01 1.372599e-01 1.248824e-01 1.231295e-01 1.127769e-01 1.122252e-01 1.062866e-01 1.091733e-01 1.081584e-01 1.134228e-01 1.133826e-01 1.153674e-01 1.099234e-01 1.041349e-01 9.217120e-02 8.153368e-02 6.982475e-02 6.267508e-02 6.014480e-02 5.867622e-02 5.938753e-02 5.104772e-02 3.470358e-02 2.132186e-02 6.550254e-03 7.504293e-03 -3.463470e-03 -9.271734e-04 -1.666066e-02 -9.376737e-03 -1.817188e-02 -5.711226e-04 -3.142500e-03 1.816864e-02 2.480884e-02 4.842189e-02 6.379238e-02 8.695099e-02 1.019771e-01 1.155085e-01 1.227165e-01 1.260386e-01 1.303205e-01 1.335842e-01 1.437459e-01 1.528242e-01 1.672670e-01 1.769996e-01 1.868410e-01 1.911869e-01 1.927557e-01 1.943766e-01 1.926383e-01 1.983540e-01 1.971906e-01 2.081828e-01 2.061569e-01 2.203207e-01 2.165907e-01 2.334621e-01 2.292837e-01 2.481333e-01 2.429186e-01 2.589831e-01 2.492835e-01 2.577936e-01 2.449175e-01 2.484248e-01 2.400141e-01 2.434209e-01 2.437212e-01 2.449152e-01 2.488652e-01 2.396355e-01 2.404984e-01 2.190407e-01 2.192338e-01 1.939387e-01 1.995631e-01 1.782825e-01 1.889806e-01 1.736838e-01 1.833747e-01 1.755912e-01 1.795257e-01 1.808995e-01 1.848109e-01 1.869485e-01 1.908815e-01 
2.061827e-01 2.084554e-01 2.128130e-01 2.157197e-01 2.169179e-01 2.217920e-01 1.895392e-01 2.262591e-01 2.089679e-01 2.226383e-01 2.153240e-01 2.237051e-01 2.213344e-01 2.190310e-01 2.108417e-01 2.087586e-01 1.987314e-01 1.893822e-01 1.859515e-01 1.684534e-01 1.705103e-01 1.625639e-01 1.687739e-01 1.667833e-01 1.721391e-01 1.631837e-01 1.657665e-01 1.528564e-01 1.581012e-01 1.498945e-01 1.631887e-01 1.611709e-01 1.770343e-01 1.736411e-01 1.834462e-01 1.734792e-01 1.746794e-01 1.599587e-01 1.564495e-01 1.418112e-01 1.367259e-01 1.234513e-01 1.177665e-01 1.078071e-01 1.053843e-01 1.027450e-01 1.072892e-01 1.130776e-01 1.226302e-01 1.297300e-01 1.335684e-01 1.302476e-01 1.204583e-01 1.057901e-01 8.992441e-02 7.884087e-02 6.706701e-02 6.615501e-02 7.306774e-02 9.091206e-02 8.209207e-02 4.506070e-02 2.127418e-02 9.203143e-03 1.274111e-02 7.318868e-04 1.401597e-02 -1.003827e-02 -3.563811e-02 -2.216468e-02 -3.573244e-03 -3.508610e-02 -1.383131e-03 1.699415e-02 5.189204e-02 8.321290e-02 1.189279e-01 1.441028e-01 1.588326e-01 1.618656e-01 1.537698e-01 1.474336e-01 1.401375e-01 1.468083e-01 1.544270e-01 1.727795e-01 1.841455e-01 1.959314e-01 1.970532e-01 1.943944e-01 1.896542e-01 1.829432e-01 1.857314e-01 1.825801e-01 1.943598e-01 1.913538e-01 2.083918e-01 2.047882e-01 2.283164e-01 2.276038e-01 2.578305e-01 2.578970e-01 2.848749e-01 2.756476e-01 2.887024e-01 2.706012e-01 2.759036e-01 2.641131e-01 2.732258e-01 2.759963e-01 2.849403e-01 2.908567e-01 2.818480e-01 2.767301e-01 2.457612e-01 2.366542e-01 2.009233e-01 2.024406e-01 1.753886e-01 1.873959e-01 1.683160e-01 1.803298e-01 1.753156e-01 1.746919e-01 1.863464e-01 1.888695e-01 1.974420e-01 1.997107e-01 
1.902618e-01 1.915219e-01 2.015762e-01 1.989301e-01 2.132637e-01 2.029369e-01 1.506953e-01 2.209322e-01 2.005315e-01 2.152809e-01 2.099525e-01 2.164053e-01 2.169356e-01 1.916631e-01 1.716294e-01 1.431648e-01 1.173440e-01 6.351855e-02 6.221507e-02 -1.414114e-02 7.924568e-04 -4.013658e-02 -2.459960e-02 -3.279313e-02 -1.973125e-02 -2.846814e-02 -1.759703e-02 -2.629317e-02 -1.569211e-02 -2.187531e-02 -9.966901e-03 -1.384910e-02 -2.943775e-03 -7.790538e-03 -1.000722e-03 -8.768778e-03 -6.594553e-03 -1.631270e-02 -1.670650e-02 -2.624920e-02 -2.745325e-02 -3.617128e-02 -3.741854e-02 -4.468732e-02 -4.445044e-02 -4.901807e-02 -4.588221e-02 -4.742438e-02 -4.185300e-02 -4.263233e-02 -3.817739e-02 -4.172482e-02 -4.118712e-02 -4.728442e-02 -4.830798e-02 -5.205241e-02 -7.929822e-02 -1.086721e-01 -1.107003e-01 -7.341604e-02 -7.622617e-02 -1.117845e-01 -1.193594e-01 -1.229013e-01 -1.422969e-01 -1.715176e-01 -1.141092e-01 -9.789944e-02 -1.443132e-01 -4.837698e-02 -1.286246e-02 -1.239486e-01 -7.062249e-02 -5.108102e-02 -1.676371e-02 7.803768e-03 3.772930e-02 5.687491e-02 7.481233e-02 8.216967e-02 8.737317e-02 8.765162e-02 8.900013e-02 9.101725e-02 9.475461e-02 9.940732e-02 1.033191e-01 1.055416e-01 1.063753e-01 1.043613e-01 1.048978e-01 1.029088e-01 1.085727e-01 1.098256e-01 1.214419e-01 1.251721e-01 1.413957e-01 1.473508e-01 1.681151e-01 1.769016e-01 2.011545e-01 2.109296e-01 2.334676e-01 2.393876e-01 2.544626e-01 2.553751e-01 2.633020e-01 2.634551e-01 2.670194e-01 2.688444e-01 2.662907e-01 2.661793e-01 2.518587e-01 2.458814e-01 2.197046e-01 2.116124e-01 1.813422e-01 1.775730e-01 1.497477e-01 1.517207e-01 1.275360e-01 1.372601e-01 1.397623e-01 1.400511e-01 1.586433e-01 1.652072e-01 1.770067e-01 1.808185e-01 
2.087251e-01 2.074593e-01 2.213428e-01 2.157371e-01 2.349292e-01 2.209937e-01 1.997418e-01 2.454922e-01 2.433212e-01 2.503141e-01 2.577428e-01 2.554741e-01 2.693942e-01 2.376190e-01 1.367031e-01 1.250627e-01 -3.177060e-02 -1.165007e-01 -2.067135e-01 -3.526545e-01 -3.892617e-01 -4.288934e-01 -4.065858e-01 -4.155952e-01 -3.968389e-01 -3.961890e-01 -3.780000e-01 -3.716878e-01 -3.594722e-01 -3.568206e-01 -3.559945e-01 -3.590771e-01 -3.643104e-01 -3.661559e-01 -3.688661e-01 -3.645869e-01 -3.619315e-01 -3.532590e-01 -3.484382e-01 -3.398853e-01 -3.351204e-01 -3.277049e-01 -3.230225e-01 -3.184028e-01 -3.167304e-01 -3.185418e-01 -3.228416e-01 -3.318943e-01 -3.399329e-01 -3.488808e-01 -3.505015e-01 -3.469514e-01 -3.352899e-01 -3.164367e-01 -2.999415e-01 -2.776145e-01 -3.001510e-01 -3.102722e-01 -3.530684e-01 -3.357375e-01 -3.709893e-01 -3.696391e-01 -3.766147e-01 -3.766149e-01 -4.090247e-01 -4.324759e-01 -3.659726e-01 -3.330792e-01 -3.218915e-01 -2.546812e-01 -1.986151e-01 -2.860246e-01 -2.173298e-01 -2.060465e-01 -1.742436e-01 -1.752069e-01 -1.585381e-01 -1.579737e-01 -1.322356e-01 -1.160245e-01 -7.797116e-02 -5.846903e-02 -2.920732e-02 -2.707017e-02 -1.796260e-02 -3.048631e-02 -2.807134e-02 -3.608744e-02 -2.402890e-02 -1.843258e-02 1.625937e-03 1.218456e-02 2.912041e-02 3.844044e-02 5.151116e-02 6.345718e-02 7.582438e-02 9.085137e-02 9.993563e-02 1.136416e-01 1.169505e-01 1.298589e-01 1.339136e-01 1.540971e-01 1.658094e-01 1.913854e-01 2.018187e-01 2.170834e-01 2.131034e-01 2.097962e-01 1.946168e-01 1.843555e-01 1.760169e-01 1.738571e-01 1.786595e-01 1.796476e-01 1.847715e-01 1.768456e-01 1.738747e-01 1.592602e-01 1.533893e-01 1.488949e-01 1.619872e-01 1.639058e-01 1.783028e-01 1.830150e-01 1.951553e-01 1.967626e-01 
1.947374e-01 1.977420e-01 2.037233e-01 2.064054e-01 2.115342e-01 2.145598e-01 2.145984e-01 2.298001e-01 2.297300e-01 2.411888e-01 2.422710e-01 2.510616e-01 2.531120e-01 2.594781e-01 9.073239e-02 7.709177e-02 -7.938445e-02 -1.104518e-01 -2.564031e-01 -2.902757e-01 -4.424722e-01 -4.500689e-01 -4.331865e-01 -4.380596e-01 -4.214349e-01 -4.212467e-01 -4.044134e-01 -4.009762e-01 -3.886545e-01 -3.883686e-01 -3.847739e-01 -3.887871e-01 -3.897768e-01 -3.925320e-01 -3.914181e-01 -3.890904e-01 -3.836206e-01 -3.776109e-01 -3.702597e-01 -3.642040e-01 -3.568483e-01 -3.517688e-01 -3.446436e-01 -3.419013e-01 -3.372705e-01 -3.394917e-01 -3.394627e-01 -3.468500e-01 -3.494068e-01 -3.557663e-01 -3.527379e-01 -3.479034e-01 -3.333506e-01 -3.138016e-01 -2.927762e-01 -2.641365e-01 -2.515225e-01 -2.182450e-01 -2.335461e-01 -2.517715e-01 -3.026201e-01 -3.355701e-01 -3.692501e-01 -3.891475e-01 -3.899426e-01 -3.928425e-01 -3.781190e-01 -4.053483e-01 -4.092521e-01 -4.285804e-01 -3.884544e-01 -3.683457e-01 -3.019142e-01 -2.762371e-01 -2.380710e-01 -2.309845e-01 -2.085053e-01 -2.032563e-01 -1.754946e-01 -1.591768e-01 -1.223996e-01 -1.035607e-01 -7.337983e-02 -6.753188e-02 -5.277324e-02 -5.804910e-02 -4.898086e-02 -5.098516e-02 -3.563603e-02 -2.741939e-02 -7.306229e-03 4.659024e-03 2.087601e-02 3.170796e-02 4.316616e-02 5.547044e-02 6.443982e-02 7.849018e-02 8.323999e-02 9.593646e-02 9.511948e-02 1.071874e-01 1.064063e-01 1.241189e-01 1.292415e-01 1.512446e-01 1.561467e-01 1.706654e-01 1.659705e-01 1.668196e-01 1.553384e-01 1.512283e-01 1.466958e-01 1.488116e-01 1.558426e-01 1.602819e-01 1.688575e-01 1.663062e-01 1.696456e-01 1.614556e-01 1.634832e-01 1.596338e-01 1.666402e-01 1.710211e-01 1.751671e-01 1.793396e-01 1.850773e-01 1.886241e-01 
2.132146e-01 2.138649e-01 2.227149e-01 2.236829e-01 2.312240e-01 2.339555e-01 2.374130e-01 2.462844e-01 2.509082e-01 2.576463e-01 2.645772e-01 2.693802e-01 2.781713e-01 2.826937e-01 1.072228e-01 9.755562e-02 -7.015596e-02 -9.482164e-02 -2.539787e-01 -2.815209e-01 -4.448935e-01 -4.491374e-01 -4.317519e-01 -4.348202e-01 -4.194035e-01 -4.201668e-01 -4.069832e-01 -4.059263e-01 -3.960048e-01 -3.947072e-01 -3.887008e-01 -3.877108e-01 -3.843974e-01 -3.827489e-01 -3.800809e-01 -3.769200e-01 -3.736942e-01 -3.692977e-01 -3.655353e-01 -3.609086e-01 -3.569786e-01 -3.529486e-01 -3.492058e-01 -3.466087e-01 -3.436859e-01 -3.432147e-01 -3.413378e-01 -3.425921e-01 -3.406411e-01 -3.414974e-01 -3.370225e-01 -3.347898e-01 -3.261102e-01 -3.201749e-01 -3.080017e-01 -3.004387e-01 -2.861074e-01 -2.783045e-01 -2.597531e-01 -2.716152e-01 -2.831718e-01 -3.253814e-01 -3.465763e-01 -3.652054e-01 -3.539839e-01 -3.500693e-01 -3.546872e-01 -3.734675e-01 -3.931175e-01 -3.889017e-01 -3.699698e-01 -3.305387e-01 -2.944160e-01 -2.670115e-01 -2.374420e-01 -2.207114e-01 -1.955186e-01 -1.827537e-01 -1.575524e-01 -1.447798e-01 -1.188982e-01 -1.073295e-01 -8.416629e-02 -7.669144e-02 -5.827786e-02 -5.416329e-02 -3.842207e-02 -3.397421e-02 -1.803224e-02 -1.098585e-02 5.187548e-03 1.404323e-02 2.859072e-02 3.816419e-02 5.035149e-02 6.077203e-02 7.072884e-02 8.191769e-02 8.946016e-02 1.008321e-01 1.061154e-01 1.177307e-01 1.221248e-01 1.346266e-01 1.391506e-01 1.513346e-01 1.545917e-01 1.633016e-01 1.635131e-01 1.671957e-01 1.654862e-01 1.661398e-01 1.659881e-01 1.663568e-01 1.692983e-01 1.692234e-01 1.735402e-01 1.716133e-01 1.758501e-01 1.727655e-01 1.778244e-01 1.760822e-01 1.840192e-01 1.841146e-01 1.930810e-01 1.939081e-01 2.031970e-01 2.039781e-01 
2.012891e-01 2.050731e-01 2.095405e-01 2.141601e-01 2.180210e-01 2.240811e-01 2.271080e-01 2.354510e-01 2.385026e-01 2.474797e-01 2.513698e-01 2.603604e-01 2.657459e-01 2.747551e-01 8.915973e-02 8.847337e-02 -8.863642e-02 -9.574205e-02 -2.696277e-01 -2.771050e-01 -4.548540e-01 -4.560460e-01 -4.399868e-01 -4.416789e-01 -4.273445e-01 -4.283681e-01 -4.156894e-01 -4.157552e-01 -4.051895e-01 -4.049195e-01 -3.969238e-01 -3.967654e-01 -3.908706e-01 -3.905210e-01 -3.855677e-01 -3.845296e-01 -3.794920e-01 -3.776897e-01 -3.721568e-01 -3.700118e-01 -3.640281e-01 -3.621519e-01 -3.560799e-01 -3.552773e-01 -3.497652e-01 -3.507333e-01 -3.461053e-01 -3.487214e-01 -3.442853e-01 -3.472763e-01 -3.414428e-01 -3.434882e-01 -3.353993e-01 -3.374976e-01 -3.285078e-01 -3.355823e-01 -3.286068e-01 -3.502794e-01 -3.428060e-01 -3.524240e-01 -3.371583e-01 -3.414701e-01 -3.352158e-01 -3.407828e-01 -3.420808e-01 -3.434294e-01 -3.410759e-01 -3.264981e-01 -3.113455e-01 -2.917279e-01 -2.846582e-01 -2.743625e-01 -2.653196e-01 -2.549308e-01 -2.376952e-01 -2.275376e-01 -2.072487e-01 -1.969914e-01 -1.742486e-01 -1.630716e-01 -1.389631e-01 -1.281968e-01 -1.054558e-01 -9.697860e-02 -7.718804e-02 -7.051283e-02 -5.268073e-02 -4.550747e-02 -2.821722e-02 -1.924369e-02 -2.920344e-03 7.172423e-03 2.096433e-02 3.130016e-02 4.186551e-02 5.247786e-02 6.000486e-02 7.102305e-02 7.577198e-02 8.703901e-02 8.952982e-02 1.011354e-01 1.025515e-01 1.147342e-01 1.159638e-01 1.277576e-01 1.282361e-01 1.375304e-01 1.364859e-01 1.422523e-01 1.407106e-01 1.442275e-01 1.445938e-01 1.476704e-01 1.509923e-01 1.536664e-01 1.586991e-01 1.601083e-01 1.654002e-01 1.658738e-01 1.712010e-01 1.722109e-01 1.777936e-01 1.800793e-01 1.852444e-01 1.881500e-01 1.931674e-01 1.964641e-01 
2.194589e-01 2.202329e-01 2.276518e-01 2.293188e-01 2.359925e-01 2.392195e-01 2.450076e-01 2.502702e-01 2.565757e-01 2.621972e-01 2.700035e-01 2.754494e-01 2.852674e-01 2.907838e-01 1.056678e-01 1.016920e-01 -7.562816e-02 -8.609762e-02 -2.608391e-01 -2.705563e-01 -4.510989e-01 -4.512015e-01 -4.357394e-01 -4.369722e-01 -4.238696e-01 -4.247977e-01 -4.137351e-01 -4.134245e-01 -4.040662e-01 -4.024091e-01 -3.947943e-01 -3.924053e-01 -3.867054e-01 -3.842495e-01 -3.801954e-01 -3.778076e-01 -3.745441e-01 -3.719445e-01 -3.685363e-01 -3.655847e-01 -3.615645e-01 -3.585791e-01 -3.540750e-01 -3.517311e-01 -3.471951e-01 -3.461317e-01 -3.418692e-01 -3.422541e-01 -3.380177e-01 -3.393643e-01 -3.343797e-01 -3.360608e-01 -3.297757e-01 -3.321388e-01 -3.250369e-01 -3.301546e-01 -3.237206e-01 -3.353826e-01 -3.298098e-01 -3.378123e-01 -3.280950e-01 -3.294192e-01 -3.233424e-01 -3.256346e-01 -3.264188e-01 -3.274779e-01 -3.238612e-01 -3.144337e-01 -3.034775e-01 -2.920113e-01 -2.841854e-01 -2.770201e-01 -2.661946e-01 -2.552015e-01 -2.379578e-01 -2.255810e-01 -2.052074e-01 -1.927647e-01 -1.707542e-01 -1.586726e-01 -1.361255e-01 -1.248774e-01 -1.028981e-01 -9.275857e-02 -7.191245e-02 -6.241848e-02 -4.258160e-02 -3.291695e-02 -1.407049e-02 -4.008740e-03 1.310782e-02 2.303935e-02 3.739557e-02 4.671599e-02 5.787436e-02 6.668049e-02 7.492529e-02 8.358441e-02 8.946152e-02 9.817551e-02 1.022482e-01 1.110226e-01 1.138979e-01 1.225503e-01 1.246841e-01 1.326325e-01 1.341181e-01 1.405242e-01 1.414667e-01 1.459550e-01 1.470763e-01 1.501596e-01 1.526294e-01 1.551214e-01 1.596034e-01 1.617733e-01 1.679604e-01 1.695900e-01 1.767770e-01 1.778075e-01 1.855721e-01 1.862430e-01 1.944095e-01 1.947816e-01 2.029343e-01 2.032068e-01 2.112520e-01 2.116214e-01 
2.072990e-01 2.104715e-01 2.143541e-01 2.184653e-01 2.218676e-01 2.275571e-01 2.302773e-01 2.383977e-01 2.413297e-01 2.502631e-01 2.542125e-01 2.632495e-01 2.687253e-01 2.777248e-01 9.242721e-02 9.158906e-02 -8.510728e-02 -9.244259e-02 -2.659119e-01 -2.736210e-01 -4.514523e-01 -4.528068e-01 -4.381023e-01 -4.412772e-01 -4.294176e-01 -4.327415e-01 -4.223661e-01 -4.234293e-01 -4.127882e-01 -4.107416e-01 -4.002219e-01 -3.971026e-01 -3.889623e-01 -3.874966e-01 -3.828077e-01 -3.833615e-01 -3.804027e-01 -3.811206e-01 -3.772296e-01 -3.765489e-01 -3.704889e-01 -3.685962e-01 -3.609852e-01 -3.593347e-01 -3.516472e-01 -3.518544e-01 -3.453989e-01 -3.483372e-01 -3.432690e-01 -3.481779e-01 -3.429736e-01 -3.479216e-01 -3.408735e-01 -3.450972e-01 -3.366135e-01 -3.418890e-01 -3.342969e-01 -3.424741e-01 -3.366831e-01 -3.445274e-01 -3.388656e-01 -3.437404e-01 -3.378048e-01 -3.388680e-01 -3.327677e-01 -3.306811e-01 -3.245616e-01 -3.199612e-01 -3.129301e-01 -3.065251e-01 -2.978704e-01 -2.897271e-01 -2.768915e-01 -2.663116e-01 -2.487471e-01 -2.368352e-01 -2.162683e-01 -2.042867e-01 -1.821984e-01 -1.708289e-01 -1.484475e-01 -1.382285e-01 -1.165907e-01 -1.074255e-01 -8.656885e-02 -7.713878e-02 -5.620898e-02 -4.506488e-02 -2.413343e-02 -1.167768e-02 7.113803e-03 1.883895e-02 3.298637e-02 4.269150e-02 5.161207e-02 6.001386e-02 6.505901e-02 7.367144e-02 7.634163e-02 8.581863e-02 8.688529e-02 9.707215e-02 9.713514e-02 1.076498e-01 1.072462e-01 1.172718e-01 1.164159e-01 1.245986e-01 1.231011e-01 1.286716e-01 1.274472e-01 1.313553e-01 1.324280e-01 1.363157e-01 1.409034e-01 1.452651e-01 1.525543e-01 1.566096e-01 1.647378e-01 1.679864e-01 1.757137e-01 1.785986e-01 1.853360e-01 1.880905e-01 1.932926e-01 1.958851e-01 2.004104e-01 2.031090e-01 
2.257051e-01 2.246530e-01 2.319013e-01 2.315892e-01 2.379071e-01 2.397540e-01 2.423238e-01 2.506713e-01 2.547220e-01 2.612845e-01 2.678556e-01 2.726876e-01 2.811566e-01 2.858265e-01 1.108981e-01 1.006199e-01 -6.544036e-02 -9.069763e-02 -2.475036e-01 -2.748458e-01 -4.366983e-01 -4.399821e-01 -4.260651e-01 -4.310959e-01 -4.215307e-01 -4.262879e-01 -4.186707e-01 -4.195151e-01 -4.105569e-01 -4.060745e-01 -3.961625e-01 -3.897134e-01 -3.827003e-01 -3.788976e-01 -3.768760e-01 -3.763818e-01 -3.768208e-01 -3.765803e-01 -3.753947e-01 -3.728463e-01 -3.682228e-01 -3.635827e-01 -3.565108e-01 -3.518649e-01 -3.444969e-01 -3.421718e-01 -3.365196e-01 -3.379861e-01 -3.345725e-01 -3.389253e-01 -3.356566e-01 -3.398762e-01 -3.340603e-01 -3.364556e-01 -3.284833e-01 -3.311678e-01 -3.246339e-01 -3.305798e-01 -3.273922e-01 -3.346710e-01 -3.321592e-01 -3.363899e-01 -3.320789e-01 -3.320157e-01 -3.266079e-01 -3.245361e-01 -3.198321e-01 -3.176429e-01 -3.134099e-01 -3.105261e-01 -3.039275e-01 -2.978794e-01 -2.855032e-01 -2.748438e-01 -2.566885e-01 -2.433706e-01 -2.217923e-01 -2.079517e-01 -1.847090e-01 -1.714164e-01 -1.477741e-01 -1.357389e-01 -1.126749e-01 -1.017191e-01 -7.893311e-02 -6.732322e-02 -4.346450e-02 -2.948812e-02 -4.778763e-03 1.040808e-02 3.258953e-02 4.552104e-02 6.143559e-02 7.011664e-02 7.910811e-02 8.483170e-02 8.917978e-02 9.450292e-02 9.646008e-02 1.024956e-01 1.029283e-01 1.095924e-01 1.091240e-01 1.162565e-01 1.156265e-01 1.226931e-01 1.219859e-01 1.275914e-01 1.263767e-01 1.296191e-01 1.288937e-01 1.311518e-01 1.335881e-01 1.371266e-01 1.443784e-01 1.496668e-01 1.605444e-01 1.659664e-01 1.777901e-01 1.819792e-01 1.931444e-01 1.959831e-01 2.060139e-01 2.057912e-01 2.135079e-01 2.124501e-01 2.196772e-01 2.184307e-01 
2.126208e-01 2.133249e-01 2.172473e-01 2.182658e-01 2.219153e-01 2.237881e-01 2.227660e-01 2.371760e-01 2.367799e-01 2.484629e-01 2.503149e-01 2.598297e-01 2.625137e-01 2.686422e-01 1.006407e-01 8.628747e-02 -6.849706e-02 -1.005566e-01 -2.432534e-01 -2.781080e-01 -4.231986e-01 -4.318665e-01 -4.177673e-01 -4.291014e-01 -4.250661e-01 -4.402631e-01 -4.391673e-01 -4.446081e-01 -4.323400e-01 -4.203655e-01 -3.982895e-01 -3.813044e-01 -3.666317e-01 -3.625860e-01 -3.650474e-01 -3.746148e-01 -3.843853e-01 -3.938731e-01 -3.965728e-01 -3.966095e-01 -3.880025e-01 -3.802763e-01 -3.652301e-01 -3.562684e-01 -3.411716e-01 -3.371248e-01 -3.282209e-01 -3.345250e-01 -3.349199e-01 -3.494786e-01 -3.517361e-01 -3.626518e-01 -3.550146e-01 -3.542790e-01 -3.370035e-01 -3.330999e-01 -3.212843e-01 -3.288345e-01 -3.313770e-01 -3.480048e-01 -3.535446e-01 -3.623584e-01 -3.563028e-01 -3.502164e-01 -3.361369e-01 -3.280670e-01 -3.217441e-01 -3.242839e-01 -3.282130e-01 -3.347662e-01 -3.347598e-01 -3.316081e-01 -3.172281e-01 -3.019868e-01 -2.771778e-01 -2.584585e-01 -2.316800e-01 -2.152444e-01 -1.888865e-01 -1.751681e-01 -1.503612e-01 -1.410746e-01 -1.203876e-01 -1.158083e-01 -9.730239e-02 -9.091382e-02 -6.660016e-02 -4.987523e-02 -1.673610e-02 7.370807e-03 3.864690e-02 5.716160e-02 7.399610e-02 8.020273e-02 8.207398e-02 8.220799e-02 7.877107e-02 8.236058e-02 7.986806e-02 8.817209e-02 8.541686e-02 9.571084e-02 9.227431e-02 1.043857e-01 1.022935e-01 1.159658e-01 1.145340e-01 1.246814e-01 1.190730e-01 1.206481e-01 1.116438e-01 1.093763e-01 1.062806e-01 1.090038e-01 1.181064e-01 1.272799e-01 1.442690e-01 1.529746e-01 1.688887e-01 1.731389e-01 1.856034e-01 1.894047e-01 1.993630e-01 2.026531e-01 2.045559e-01 2.058004e-01 2.085177e-01 2.091844e-01 
2.309643e-01 2.259062e-01 2.365117e-01 2.284541e-01 2.453719e-01 2.298211e-01 2.070042e-01 2.519778e-01 2.491980e-01 2.563206e-01 2.634320e-01 2.612244e-01 2.729283e-01 2.392053e-01 1.425227e-01 1.265903e-01 -2.533264e-02 -1.142921e-01 -1.935258e-01 -3.390008e-01 -3.521462e-01 -3.913290e-01 -3.779264e-01 -3.946660e-01 -3.960206e-01 -4.157794e-01 -4.212375e-01 -4.275135e-01 -4.179890e-01 -4.011368e-01 -3.780908e-01 -3.544196e-01 -3.403023e-01 -3.332622e-01 -3.407844e-01 -3.511003e-01 -3.674437e-01 -3.772215e-01 -3.839290e-01 -3.812400e-01 -3.732592e-01 -3.605941e-01 -3.444850e-01 -3.303073e-01 -3.142126e-01 -3.062950e-01 -2.981753e-01 -3.036115e-01 -3.076110e-01 -3.238282e-01 -3.303128e-01 -3.417858e-01 -3.353261e-01 -3.315177e-01 -3.124333e-01 -3.045763e-01 -2.928359e-01 -3.004568e-01 -3.077751e-01 -3.279365e-01 -3.390543e-01 -3.497224e-01 -3.453719e-01 -3.373573e-01 -3.225710e-01 -3.133212e-01 -3.091680e-01 -3.152547e-01 -3.255762e-01 -3.379638e-01 -3.436087e-01 -3.441742e-01 -3.314165e-01 -3.159471e-01 -2.901424e-01 -2.695119e-01 -2.410928e-01 -2.221954e-01 -1.934285e-01 -1.763456e-01 -1.482863e-01 -1.354883e-01 -1.117384e-01 -1.043845e-01 -8.291192e-02 -7.332977e-02 -4.398291e-02 -2.158832e-02 1.949810e-02 5.037885e-02 8.908887e-02 1.110711e-01 1.308628e-01 1.349812e-01 1.352236e-01 1.296784e-01 1.230832e-01 1.204561e-01 1.151235e-01 1.171984e-01 1.114501e-01 1.151584e-01 1.086667e-01 1.147401e-01 1.105950e-01 1.197769e-01 1.173968e-01 1.238028e-01 1.167916e-01 1.141827e-01 1.033378e-01 9.809578e-02 9.538991e-02 9.899712e-02 1.123574e-01 1.262575e-01 1.496404e-01 1.640944e-01 1.854233e-01 1.949318e-01 2.107767e-01 2.240671e-01 2.388246e-01 2.268937e-01 2.286733e-01 2.239179e-01 2.282876e-01 2.239680e-01 
2.152282e-01 2.122705e-01 2.189442e-01 2.139849e-01 2.265047e-01 2.152473e-01 1.627250e-01 2.336957e-01 2.140282e-01 2.291389e-01 2.234434e-01 2.294889e-01 2.290879e-01 2.036569e-01 1.830437e-01 1.534273e-01 1.274395e-01 7.164858e-02 7.059074e-02 -8.360739e-03 6.874643e-03 -3.789861e-02 -2.379530e-02 -3.441226e-02 -1.982839e-02 -2.704048e-02 -1.369594e-02 -2.351593e-02 -1.750460e-02 -3.341253e-02 -3.360048e-02 -4.964091e-02 -4.736305e-02 -5.506641e-02 -4.529990e-02 -4.461124e-02 -3.177599e-02 -2.963378e-02 -2.043636e-02 -2.183848e-02 -1.831193e-02 -2.313546e-02 -2.316463e-02 -2.910317e-02 -2.996031e-02 -3.482509e-02 -3.373664e-02 -3.535240e-02 -3.078602e-02 -3.023198e-02 -2.559456e-02 -2.850270e-02 -2.939816e-02 -3.957338e-02 -4.602409e-02 -5.933653e-02 -6.420431e-02 -7.326740e-02 -7.191760e-02 -7.683940e-02 -7.386888e-02 -8.225742e-02 -8.423168e-02 -9.880914e-02 -1.035986e-01 -1.179031e-01 -1.172002e-01 -1.244950e-01 -1.170366e-01 -1.197755e-01 -1.108944e-01 -1.153396e-01 -1.089729e-01 -1.137103e-01 -1.074052e-01 -1.071364e-01 -9.589680e-02 -8.733861e-02 -6.985008e-02 -5.319298e-02 -2.968752e-02 -5.516635e-03 2.359245e-02 5.315871e-02 8.473144e-02 1.138458e-01 1.415999e-01 1.633217e-01 1.833324e-01 1.964010e-01 2.115140e-01 2.199669e-01 2.344466e-01 2.401845e-01 2.534055e-01 2.532721e-01 2.607874e-01 2.512397e-01 2.511929e-01 2.337003e-01 2.284938e-01 2.071498e-01 1.991286e-01 1.770942e-01 1.674281e-01 1.477736e-01 1.386736e-01 1.263543e-01 1.216462e-01 1.209615e-01 1.212702e-01 1.309061e-01 1.320934e-01 1.475655e-01 1.461528e-01 1.651765e-01 1.620574e-01 1.852875e-01 1.831751e-01 2.095044e-01 2.076268e-01 2.367867e-01 2.390986e-01 2.188237e-01 2.195026e-01 2.133143e-01 2.150793e-01 2.116030e-01 
2.228795e-01 2.224475e-01 2.245879e-01 2.258822e-01 2.258653e-01 2.300257e-01 1.976352e-01 2.346003e-01 2.174332e-01 2.301649e-01 2.216278e-01 2.278525e-01 2.248037e-01 2.209115e-01 2.142503e-01 2.102773e-01 2.024783e-01 1.906503e-01 1.900983e-01 1.689189e-01 1.715819e-01 1.573735e-01 1.619014e-01 1.613832e-01 1.772291e-01 1.826094e-01 2.003455e-01 1.943750e-01 1.949252e-01 1.676531e-01 1.530544e-01 1.213929e-01 1.152473e-01 1.033193e-01 1.189877e-01 1.271909e-01 1.514939e-01 1.607790e-01 1.745997e-01 1.719530e-01 1.699738e-01 1.572363e-01 1.461497e-01 1.313617e-01 1.195322e-01 1.100866e-01 1.056953e-01 1.083562e-01 1.155883e-01 1.272012e-01 1.359189e-01 1.400755e-01 1.341647e-01 1.198894e-01 9.968884e-02 7.885251e-02 6.522432e-02 5.855639e-02 6.421517e-02 6.973395e-02 7.969745e-02 7.493807e-02 6.978972e-02 4.646813e-02 3.217548e-02 8.985320e-03 8.329348e-03 3.619829e-03 2.078655e-02 2.640774e-02 4.395232e-02 4.149063e-02 4.642476e-02 3.501791e-02 3.308149e-02 2.523373e-02 2.781833e-02 3.085961e-02 4.015279e-02 5.334650e-02 6.948019e-02 9.358284e-02 1.185319e-01 1.519578e-01 1.810993e-01 2.123072e-01 2.321149e-01 2.462811e-01 2.497549e-01 2.479119e-01 2.471655e-01 2.447851e-01 2.552156e-01 2.602030e-01 2.816330e-01 2.853873e-01 3.048020e-01 2.955176e-01 3.055969e-01 2.838797e-01 2.881193e-01 2.605373e-01 2.614341e-01 2.311488e-01 2.278164e-01 1.980631e-01 1.933181e-01 1.737460e-01 1.759548e-01 1.755298e-01 1.848184e-01 1.979486e-01 2.020419e-01 2.162601e-01 2.064747e-01 2.182402e-01 1.999955e-01 2.160924e-01 2.007921e-01 2.229262e-01 2.126404e-01 2.323186e-01 2.275124e-01 2.185614e-01 2.223859e-01 2.185896e-01 2.218495e-01 2.199162e-01 
2.019799e-01 2.050305e-01 2.021985e-01 2.076224e-01 2.000401e-01 2.101952e-01 1.925703e-01 2.101518e-01 1.962847e-01 2.064431e-01 1.986971e-01 2.004239e-01 1.992137e-01 1.919058e-01 1.976333e-01 1.836618e-01 1.950353e-01 1.766908e-01 1.908542e-01 1.699074e-01 1.838547e-01 1.632605e-01 1.764074e-01 1.620068e-01 1.784196e-01 1.685979e-01 1.842040e-01 1.705277e-01 1.778169e-01 1.561128e-01 1.565965e-01 1.342342e-01 1.380339e-01 1.251174e-01 1.376263e-01 1.340902e-01 1.493676e-01 1.468181e-01 1.563523e-01 1.489054e-01 1.502071e-01 1.385528e-01 1.347890e-01 1.228446e-01 1.184852e-01 1.100861e-01 1.092462e-01 1.071722e-01 1.112301e-01 1.130726e-01 1.166598e-01 1.143101e-01 1.100124e-01 9.872429e-02 8.730836e-02 7.309988e-02 6.456010e-02 5.703694e-02 5.708000e-02 5.450558e-02 5.610798e-02 4.743610e-02 4.315019e-02 2.622389e-02 2.051813e-02 4.004929e-03 6.073635e-03 -2.250549e-03 9.776130e-03 7.723462e-03 2.234861e-02 1.964421e-02 3.030146e-02 2.657436e-02 3.480855e-02 3.501907e-02 4.483675e-02 5.114731e-02 6.272920e-02 7.412077e-02 8.765746e-02 1.045795e-01 1.217968e-01 1.436996e-01 1.629200e-01 1.838730e-01 1.986195e-01 2.107369e-01 2.174236e-01 2.203008e-01 2.244734e-01 2.249880e-01 2.341995e-01 2.362629e-01 2.509145e-01 2.509677e-01 2.653204e-01 2.582926e-01 2.686741e-01 2.548243e-01 2.619456e-01 2.442431e-01 2.483791e-01 2.287231e-01 2.291612e-01 2.102966e-01 2.086879e-01 1.964630e-01 1.967153e-01 1.957573e-01 1.973588e-01 2.047708e-01 2.014768e-01 2.109772e-01 1.989949e-01 2.087557e-01 1.917283e-01 2.045096e-01 1.890348e-01 2.046485e-01 1.931109e-01 2.055420e-01 1.984466e-01 2.006979e-01 1.998297e-01 2.011975e-01 2.009368e-01 2.027457e-01 
