# vtk DataFile Version 2.0
Comment goes here
ASCII

DATASET STRUCTURED_POINTS
FIELD FieldData 1
TIME 1 1 double
0.07200000
DIMENSIONS    64   64   1

ORIGIN    0.000   0.000   0.000
SPACING   0.03125 0.03125   1.000

POINT_DATA   4096
SCALARS P double
LOOKUP_TABLE default

-2.172137e+01 -1.967804e+02 -2.256473e+01 -1.942830e+02 2.445479e+01 1.416782e+02 -6.140075e+00 1.255195e+02 -7.423426e+00 1.115852e+02 -8.769526e+00 9.809518e+01 -9.317970e+00 8.425443e+01 -8.572155e+00 7.004393e+01 -7.846577e+00 5.844916e+01 -9.621305e+00 4.673344e+01 -1.342140e+01 4.056693e+01 -2.189039e+01 3.669022e+01 -2.950350e+01 3.097247e+01 -3.397713e+01 2.202695e+01 -3.488549e+01 1.027138e+01 -3.408310e+01 -8.905677e-01 -3.475008e+01 -9.982193e+00 -3.758814e+01 -1.758003e+01 -4.040268e+01 -2.807747e+01 -4.100922e+01 -3.792367e+01 -4.279358e+01 -4.967725e+01 -4.198555e+01 -6.564038e+01 -3.812842e+01 -8.402978e+01 -3.523693e+01 -9.905939e+01 -3.685448e+01 -1.100784e+02 -4.286218e+01 -1.172381e+02 -4.922397e+01 -1.251567e+02 -5.272193e+01 -1.354093e+02 -5.356076e+01 -1.476739e+02 -5.184069e+01 -1.606721e+02 -4.915157e+01 -1.716245e+02 -4.388612e+01 -1.876163e+02 
2.449060e+00 -1.329229e+02 1.610569e+00 -1.321235e+02 3.449047e+01 1.212155e+02 8.954636e+00 1.112068e+02 6.177564e+00 1.025766e+02 3.907762e+00 9.397380e+01 2.409594e+00 8.491488e+01 1.832822e+00 7.529069e+01 1.578504e+00 6.702194e+01 -8.493688e-02 5.755342e+01 -1.712439e+00 5.091717e+01 -5.731389e+00 4.529985e+01 -9.292437e+00 3.871573e+01 -1.128133e+01 3.054263e+01 -1.141750e+01 2.098502e+01 -1.071894e+01 1.185043e+01 -1.075768e+01 3.818388e+00 -1.203886e+01 -3.222191e+00 -1.340005e+01 -1.188452e+01 -1.356483e+01 -1.983829e+01 -1.472987e+01 -2.871756e+01 -1.469298e+01 -3.982460e+01 -1.281834e+01 -5.219756e+01 -1.122862e+01 -6.270922e+01 -1.177578e+01 -7.122225e+01 -1.445571e+01 -7.758480e+01 -1.707529e+01 -8.432031e+01 -1.814866e+01 -9.206998e+01 -1.793729e+01 -1.005743e+02 -1.647611e+01 -1.090886e+02 -1.470054e+01 -1.160515e+02 -1.184616e+01 -1.260573e+02 
1.387848e+01 -9.516151e+01 1.479233e+01 -9.695461e+01 2.596582e+01 1.067631e+02 1.564861e+01 1.018476e+02 1.310229e+01 9.665397e+01 1.099477e+01 9.100234e+01 9.248648e+00 8.488766e+01 7.823114e+00 7.828819e+01 6.633768e+00 7.187135e+01 5.141851e+00 6.422988e+01 4.506295e+00 5.692898e+01 3.523454e+00 4.962538e+01 2.599547e+00 4.212511e+01 1.942944e+00 3.445173e+01 1.707312e+00 2.662971e+01 1.684560e+00 1.892271e+01 1.653096e+00 1.142337e+01 1.441633e+00 4.232491e+00 1.178691e+00 -3.282268e+00 1.040710e+00 -1.054842e+01 4.547878e-01 -1.792801e+01 1.136571e-01 -2.561034e+01 3.343602e-01 -3.348880e+01 7.600628e-01 -4.106076e+01 1.196149e+00 -4.821876e+01 1.512810e+00 -5.484472e+01 2.070432e+00 -6.130491e+01 2.993729e+00 -6.766354e+01 4.188448e+00 -7.378590e+01 5.705995e+00 -7.955478e+01 7.358032e+00 -8.457108e+01 9.136627e+00 -9.016093e+01 
1.260917e+01 -9.602130e+01 1.555275e+01 -9.890693e+01 1.974859e+01 1.076029e+02 1.614284e+01 1.028848e+02 1.300087e+01 9.739215e+01 1.066073e+01 9.145522e+01 8.916548e+00 8.506570e+01 7.543621e+00 7.832408e+01 6.491252e+00 7.186992e+01 4.653799e+00 6.431585e+01 4.056403e+00 5.692079e+01 3.240587e+00 4.954286e+01 2.379478e+00 4.206349e+01 1.798643e+00 3.442237e+01 1.570932e+00 2.664190e+01 1.498841e+00 1.893162e+01 1.462227e+00 1.141495e+01 1.347579e+00 4.100224e+00 1.147828e+00 -3.381027e+00 8.829934e-01 -1.089735e+01 4.035316e-01 -1.852270e+01 1.419418e-01 -2.634182e+01 2.253944e-01 -3.426969e+01 3.704078e-01 -4.194330e+01 5.482490e-01 -4.920638e+01 7.434553e-01 -5.597951e+01 1.143521e+00 -6.253358e+01 1.755035e+00 -6.888110e+01 2.629308e+00 -7.496895e+01 3.884963e+00 -8.072258e+01 5.577937e+00 -8.604831e+01 7.973186e+00 -9.129429e+01 
1.232764e+01 -9.493096e+01 1.488662e+01 -9.850326e+01 1.840180e+01 1.059397e+02 1.535009e+01 1.017501e+02 1.269001e+01 9.669633e+01 1.065494e+01 9.107694e+01 9.118948e+00 8.492166e+01 7.826859e+00 7.821556e+01 6.671878e+00 7.183654e+01 4.761575e+00 6.415829e+01 4.413348e+00 5.686574e+01 3.607821e+00 4.943489e+01 2.736637e+00 4.191511e+01 2.097281e+00 3.433731e+01 1.752442e+00 2.668534e+01 1.538981e+00 1.908365e+01 1.435226e+00 1.161148e+01 1.383854e+00 4.283889e+00 1.289269e+00 -3.136148e+00 1.060387e+00 -1.063082e+01 6.088851e-01 -1.817742e+01 2.970393e-01 -2.576882e+01 2.988844e-01 -3.345264e+01 4.190371e-01 -4.105724e+01 8.874747e-01 -4.828308e+01 1.407613e+00 -5.513364e+01 2.208053e+00 -6.164458e+01 3.043349e+00 -6.795802e+01 4.084613e+00 -7.403522e+01 5.427048e+00 -7.982040e+01 7.075667e+00 -8.523669e+01 9.115497e+00 -9.039193e+01 
1.109494e+01 -9.737546e+01 1.424351e+01 -1.016225e+02 1.736221e+01 1.064211e+02 1.489902e+01 1.023305e+02 1.219652e+01 9.726866e+01 1.005236e+01 9.161996e+01 8.572697e+00 8.542997e+01 7.503104e+00 7.846433e+01 6.824173e+00 7.226754e+01 4.223170e+00 6.403291e+01 4.088740e+00 5.690375e+01 3.384449e+00 4.937159e+01 2.481398e+00 4.182509e+01 1.873913e+00 3.429597e+01 1.570090e+00 2.664979e+01 1.297621e+00 1.902009e+01 1.197533e+00 1.151876e+01 1.248951e+00 4.195237e+00 1.224990e+00 -3.241766e+00 9.865954e-01 -1.095725e+01 5.239440e-01 -1.871921e+01 1.674078e-01 -2.640609e+01 7.687764e-02 -3.421644e+01 -1.021335e-01 -4.191774e+01 1.133635e-01 -4.940837e+01 5.501438e-01 -5.648927e+01 1.214948e+00 -6.310954e+01 1.813660e+00 -6.939286e+01 2.628989e+00 -7.549351e+01 3.844780e+00 -8.141144e+01 5.539637e+00 -8.707160e+01 7.861732e+00 -9.247961e+01 
1.082599e+01 -9.712561e+01 1.329740e+01 -1.018226e+02 1.585512e+01 1.056274e+02 1.385685e+01 1.015100e+02 1.165234e+01 9.669990e+01 9.786041e+00 9.132667e+01 8.403363e+00 8.542937e+01 7.586920e+00 7.905785e+01 6.706550e+00 7.133203e+01 3.712574e+00 6.322355e+01 4.544243e+00 5.690038e+01 3.736644e+00 4.925863e+01 2.702895e+00 4.171305e+01 2.046788e+00 3.430057e+01 1.734871e+00 2.674857e+01 1.338259e+00 1.912117e+01 1.212191e+00 1.164586e+01 1.390309e+00 4.411673e+00 1.498580e+00 -2.941153e+00 1.268875e+00 -1.065786e+01 6.882346e-01 -1.834673e+01 2.675953e-01 -2.579028e+01 2.499163e-01 -3.347916e+01 -4.226842e-02 -4.150709e+01 7.643270e-01 -4.965585e+01 9.747865e-01 -5.587471e+01 2.099227e+00 -6.209978e+01 2.772093e+00 -6.834801e+01 3.693425e+00 -7.456689e+01 4.937361e+00 -8.064053e+01 6.479921e+00 -8.645806e+01 8.385544e+00 -9.198750e+01 
9.462385e+00 -1.000804e+02 1.203058e+01 -1.052797e+02 1.436648e+01 1.068659e+02 1.275565e+01 1.023176e+02 1.074317e+01 9.724464e+01 8.825773e+00 9.170080e+01 7.330256e+00 8.614999e+01 6.914265e+00 8.129036e+01 7.611337e+00 7.145293e+01 3.615783e+00 6.176868e+01 3.805862e+00 5.762019e+01 3.706730e+00 4.918914e+01 2.464869e+00 4.156070e+01 1.739856e+00 3.430232e+01 1.610323e+00 2.670236e+01 9.831556e-01 1.894324e+01 8.276640e-01 1.142083e+01 1.228259e+00 4.358381e+00 1.441063e+00 -2.887398e+00 1.257643e+00 -1.093159e+01 6.329961e-01 -1.894410e+01 1.405224e-02 -2.630948e+01 1.319278e-01 -3.407631e+01 -8.521562e-01 -4.245057e+01 -9.615631e-01 -5.085944e+01 1.866450e-01 -5.815942e+01 9.085844e-01 -6.368712e+01 1.372654e+00 -6.980948e+01 2.235352e+00 -7.618188e+01 3.452354e+00 -8.249041e+01 5.018777e+00 -8.860842e+01 7.009741e+00 -9.450232e+01 
9.030477e+00 -1.001248e+02 1.097912e+01 -1.056706e+02 1.285483e+01 1.069033e+02 1.163697e+01 1.021003e+02 1.012404e+01 9.705426e+01 8.647977e+00 9.181420e+01 7.555435e+00 8.689264e+01 7.332233e+00 8.298405e+01 8.127830e+00 7.175854e+01 3.687295e+00 6.160399e+01 4.442873e+00 5.820720e+01 4.366558e+00 4.897126e+01 2.812578e+00 4.133488e+01 1.972267e+00 3.429877e+01 1.969011e+00 2.675545e+01 1.043254e+00 1.892125e+01 8.170277e-01 1.139638e+01 1.490353e+00 4.613413e+00 1.828914e+00 -2.436767e+00 1.620536e+00 -1.075736e+01 8.482655e-01 -1.882830e+01 3.730680e-02 -2.561211e+01 6.206596e-01 -3.290171e+01 -1.850966e-01 -4.130220e+01 1.367293e+00 -5.416889e+01 2.059876e-01 -5.672622e+01 8.003921e-01 -6.131483e+01 1.928673e+00 -6.840248e+01 3.074694e+00 -7.530911e+01 4.257992e+00 -8.186839e+01 5.596688e+00 -8.816733e+01 7.177348e+00 -9.425732e+01 
7.527263e+00 -1.031782e+02 9.399134e+00 -1.091489e+02 1.105654e+01 1.087614e+02 1.019948e+01 1.034784e+02 9.028880e+00 9.811448e+01 7.793419e+00 9.261747e+01 6.698824e+00 8.715552e+01 5.900438e+00 8.168905e+01 4.430094e+00 7.208248e+01 2.886930e+00 6.270634e+01 4.131209e+00 5.766203e+01 3.720564e+00 4.942715e+01 2.663993e+00 4.170320e+01 2.004674e+00 3.435528e+01 1.850446e+00 2.668642e+01 1.154202e+00 1.889857e+01 9.488840e-01 1.136190e+01 1.391418e+00 4.313544e+00 1.620425e+00 -2.936101e+00 1.401300e+00 -1.112471e+01 7.680283e-01 -1.922473e+01 1.571239e-01 -2.639818e+01 4.809144e-01 -3.400262e+01 -9.560958e-02 -4.226167e+01 1.032937e+00 -5.112930e+01 -1.288014e+00 -5.831724e+01 -4.936626e-01 -6.344387e+01 6.235778e-01 -7.028126e+01 1.737428e+00 -7.718321e+01 2.876788e+00 -8.390469e+01 4.180232e+00 -9.047284e+01 5.734603e+00 -9.690803e+01 
6.936868e+00 -1.032820e+02 8.260783e+00 -1.095408e+02 9.429532e+00 1.093915e+02 8.982375e+00 1.038440e+02 8.293058e+00 9.835881e+01 7.558983e+00 9.277806e+01 6.914246e+00 8.677679e+01 6.196220e+00 8.003416e+01 5.176111e+00 7.279164e+01 2.923786e+00 6.419374e+01 4.180965e+00 5.736151e+01 3.601319e+00 4.953854e+01 2.681255e+00 4.187393e+01 2.071689e+00 3.440193e+01 1.769608e+00 2.682793e+01 1.361207e+00 1.917405e+01 1.248148e+00 1.167509e+01 1.480319e+00 4.383973e+00 1.647029e+00 -3.042702e+00 1.426460e+00 -1.085278e+01 8.263804e-01 -1.862348e+01 3.708315e-01 -2.608426e+01 2.763474e-01 -3.373294e+01 -2.970600e-01 -4.194399e+01 -2.028632e-01 -5.101414e+01 5.392596e-01 -5.673875e+01 1.143807e+00 -6.323019e+01 1.667487e+00 -6.991933e+01 2.467020e+00 -7.667448e+01 3.408441e+00 -8.342607e+01 4.463160e+00 -9.012214e+01 5.644500e+00 -9.675078e+01 
5.344669e+00 -1.062477e+02 6.499823e+00 -1.128822e+02 7.404478e+00 1.115880e+02 7.267960e+00 1.055430e+02 6.842866e+00 9.958921e+01 6.291621e+00 9.354037e+01 5.744970e+00 8.701104e+01 5.094040e+00 7.979289e+01 4.979087e+00 7.312571e+01 3.136978e+00 6.522782e+01 3.339912e+00 5.759166e+01 3.100434e+00 4.988286e+01 2.423434e+00 4.214759e+01 1.911003e+00 3.450670e+01 1.609193e+00 2.683752e+01 1.285987e+00 1.919039e+01 1.138060e+00 1.164773e+01 1.246056e+00 4.266162e+00 1.339165e+00 -3.229043e+00 1.172348e+00 -1.109445e+01 7.329699e-01 -1.900374e+01 3.498738e-01 -2.671458e+01 2.263749e-01 -3.452117e+01 6.441851e-02 -4.220421e+01 4.653419e-01 -4.982235e+01 5.060606e-03 -5.741629e+01 4.894182e-01 -6.468916e+01 8.744124e-01 -7.166333e+01 1.401805e+00 -7.854927e+01 2.160077e+00 -8.547429e+01 3.099048e+00 -9.242229e+01 4.179091e+00 -9.936359e+01 
4.643601e+00 -1.062978e+02 5.306397e+00 -1.131794e+02 5.718982e+00 1.124979e+02 5.969843e+00 1.061355e+02 5.936525e+00 9.987810e+01 5.733353e+00 9.354583e+01 5.442560e+00 8.684503e+01 5.044750e+00 7.983275e+01 4.885229e+00 7.310514e+01 3.441589e+00 6.544777e+01 3.283953e+00 5.761025e+01 3.087011e+00 5.006580e+01 2.470833e+00 4.232896e+01 1.966952e+00 3.463943e+01 1.664584e+00 2.699534e+01 1.430570e+00 1.936041e+01 1.300858e+00 1.182368e+01 1.337522e+00 4.388328e+00 1.400116e+00 -3.092700e+00 1.254748e+00 -1.075828e+01 8.463198e-01 -1.855027e+01 4.514213e-01 -2.631288e+01 2.108033e-01 -3.409382e+01 -7.422039e-02 -4.202794e+01 9.545917e-03 -4.972445e+01 6.820556e-01 -5.705718e+01 1.245426e+00 -6.426139e+01 1.579926e+00 -7.119637e+01 1.968805e+00 -7.807239e+01 2.521066e+00 -8.503746e+01 3.192582e+00 -9.209056e+01 3.919591e+00 -9.919742e+01 
3.023044e+00 -1.090870e+02 3.454294e+00 -1.163054e+02 3.528383e+00 1.147815e+02 4.090472e+00 1.079603e+02 4.295001e+00 1.012643e+02 4.294667e+00 9.455681e+01 4.207138e+00 8.756165e+01 4.111050e+00 8.041664e+01 4.279690e+00 7.342552e+01 3.238331e+00 6.581848e+01 2.599241e+00 5.787361e+01 2.704900e+00 5.042630e+01 2.145446e+00 4.255560e+01 1.697787e+00 3.473677e+01 1.457564e+00 2.704238e+01 1.281586e+00 1.933129e+01 1.108185e+00 1.173357e+01 1.096346e+00 4.262951e+00 1.182128e+00 -3.245609e+00 1.085650e+00 -1.096021e+01 7.085959e-01 -1.888079e+01 3.430579e-01 -2.680433e+01 1.664262e-01 -3.460006e+01 1.090758e-01 -4.244368e+01 2.738608e-01 -5.014491e+01 1.847142e-01 -5.773410e+01 3.205972e-01 -6.547445e+01 6.559069e-01 -7.264229e+01 9.334347e-01 -7.973870e+01 1.358519e+00 -8.695501e+01 1.896652e+00 -9.427947e+01 2.476375e+00 -1.016775e+02 
2.259415e+00 -1.090287e+02 2.235653e+00 -1.164593e+02 1.838511e+00 1.158173e+02 2.776761e+00 1.086870e+02 3.302289e+00 1.016838e+02 3.523749e+00 9.474401e+01 3.602917e+00 8.783372e+01 3.849276e+00 8.092184e+01 3.944116e+00 7.381163e+01 3.965816e+00 6.526687e+01 2.306197e+00 5.776427e+01 2.745916e+00 5.078526e+01 2.206931e+00 4.274153e+01 1.765316e+00 3.486214e+01 1.554091e+00 2.720715e+01 1.429451e+00 1.945635e+01 1.222285e+00 1.185059e+01 1.167337e+00 4.413463e+00 1.300377e+00 -2.991020e+00 1.256331e+00 -1.054213e+01 8.557944e-01 -1.843570e+01 4.517721e-01 -2.640887e+01 2.486205e-01 -3.415936e+01 8.911607e-02 -4.233214e+01 8.154120e-02 -5.009270e+01 6.053852e-01 -5.781351e+01 7.969479e-01 -6.516629e+01 1.064195e+00 -7.206712e+01 1.254132e+00 -7.917222e+01 1.540236e+00 -8.647262e+01 1.850871e+00 -9.390816e+01 2.111764e+00 -1.014469e+02 
6.612512e-01 -1.116016e+02 3.765672e-01 -1.193383e+02 -3.732273e-01 1.181016e+02 8.909010e-01 1.105559e+02 1.694336e+00 1.031556e+02 2.163874e+00 9.594373e+01 2.470754e+00 8.905867e+01 2.855795e+00 8.225598e+01 2.909974e+00 7.522417e+01 4.120733e+00 6.500437e+01 1.565606e+00 5.792951e+01 2.575713e+00 5.141913e+01 1.938167e+00 4.292757e+01 1.497754e+00 3.484183e+01 1.353880e+00 2.723467e+01 1.292893e+00 1.931926e+01 9.851392e-01 1.163582e+01 8.614079e-01 4.226416e+00 1.138548e+00 -3.106657e+00 1.196374e+00 -1.060690e+01 7.023294e-01 -1.874335e+01 2.662416e-01 -2.698150e+01 1.936916e-01 -3.442906e+01 2.996037e-01 -4.285037e+01 3.595033e-02 -5.119492e+01 8.290467e-01 -5.901665e+01 -6.793408e-01 -6.591888e+01 -1.731374e-01 -7.302940e+01 1.862053e-01 -8.060527e+01 4.444276e-01 -8.825003e+01 6.270405e-01 -9.595833e+01 7.183603e-01 -1.037550e+02 
-1.201677e-01 -1.114101e+02 -8.356784e-01 -1.193287e+02 -2.082428e+00 1.192034e+02 -3.926940e-01 1.114355e+02 8.011588e-01 1.038767e+02 1.642559e+00 9.657388e+01 2.202970e+00 8.952886e+01 2.431642e+00 8.240709e+01 2.226665e+00 7.537742e+01 2.856977e+00 6.570276e+01 1.896996e+00 5.820175e+01 2.659956e+00 5.141389e+01 2.101602e+00 4.310364e+01 1.712688e+00 3.505297e+01 1.582847e+00 2.739861e+01 1.520607e+00 1.950034e+01 1.250971e+00 1.182061e+01 1.136811e+00 4.402012e+00 1.372013e+00 -2.941652e+00 1.410183e+00 -1.042938e+01 9.408893e-01 -1.849484e+01 5.293043e-01 -2.666794e+01 4.674869e-01 -3.412718e+01 5.952720e-01 -4.247425e+01 4.587770e-01 -5.071849e+01 1.069677e+00 -5.845101e+01 -7.107357e-01 -6.521935e+01 -9.289822e-02 -7.238598e+01 3.361966e-01 -8.003880e+01 5.174128e-01 -8.775095e+01 5.019457e-01 -9.553684e+01 3.027791e-01 -1.034346e+02 
-1.660073e+00 -1.137529e+02 -2.646240e+00 -1.219480e+02 -4.260362e+00 1.214938e+02 -2.235784e+00 1.134034e+02 -7.568661e-01 1.055469e+02 3.489915e-01 9.790290e+01 1.108029e+00 9.028708e+01 1.469028e+00 8.268460e+01 1.790863e+00 7.525513e+01 1.379100e+00 6.677657e+01 1.533677e+00 5.880291e+01 1.953961e+00 5.130601e+01 1.616287e+00 4.328709e+01 1.354677e+00 3.530342e+01 1.273613e+00 2.748330e+01 1.232045e+00 1.962896e+01 1.096279e+00 1.189091e+01 1.050948e+00 4.287622e+00 1.130601e+00 -3.300180e+00 1.070612e+00 -1.101139e+01 7.250598e-01 -1.898642e+01 3.815733e-01 -2.701863e+01 2.268597e-01 -3.483708e+01 1.303489e-01 -4.293793e+01 7.607497e-02 -5.079949e+01 -9.005454e-02 -5.863709e+01 -6.650666e-01 -6.641214e+01 -5.288388e-01 -7.393512e+01 -4.521657e-01 -8.163024e+01 -4.764258e-01 -8.947370e+01 -6.538128e-01 -9.744635e+01 -1.027545e+00 -1.055522e+02 
-2.419466e+00 -1.134185e+02 -3.810280e+00 -1.217696e+02 -5.904535e+00 1.225785e+02 -3.499192e+00 1.142806e+02 -1.718490e+00 1.062248e+02 -3.899085e-01 9.836729e+01 5.409191e-01 9.054952e+01 1.142709e+00 8.282514e+01 1.740296e+00 7.508111e+01 1.713364e+00 6.739940e+01 1.551610e+00 5.916616e+01 1.909549e+00 5.146091e+01 1.723597e+00 4.348997e+01 1.538526e+00 3.555104e+01 1.455061e+00 2.773051e+01 1.397977e+00 1.989748e+01 1.284646e+00 1.216914e+01 1.238163e+00 4.548222e+00 1.271980e+00 -3.061401e+00 1.201220e+00 -1.076987e+01 9.277232e-01 -1.866620e+01 6.406121e-01 -2.662786e+01 4.759298e-01 -3.448040e+01 3.934425e-01 -4.240219e+01 3.789547e-01 -5.019748e+01 2.534926e-01 -5.791298e+01 -3.091582e-02 -6.585660e+01 -6.705424e-02 -7.342541e+01 -2.062535e-01 -8.109041e+01 -4.248942e-01 -8.893778e+01 -8.148695e-01 -9.694971e+01 -1.455018e+00 -1.051220e+02 
-3.863977e+00 -1.155340e+02 -5.512684e+00 -1.241350e+02 -7.927715e+00 1.247392e+02 -5.245002e+00 1.161216e+02 -3.222389e+00 1.077281e+02 -1.697116e+00 9.951949e+01 -5.983474e-01 9.142884e+01 1.987080e-01 8.348489e+01 8.298454e-01 7.555558e+01 8.919458e-01 6.767275e+01 1.007977e+00 5.958515e+01 1.280634e+00 5.166574e+01 1.251847e+00 4.368433e+01 1.171938e+00 3.572007e+01 1.135797e+00 2.781824e+01 1.112825e+00 1.994956e+01 1.061735e+00 1.214370e+01 1.028700e+00 4.392506e+00 1.004545e+00 -3.358820e+00 8.969864e-01 -1.117277e+01 6.633376e-01 -1.908444e+01 4.019126e-01 -2.703540e+01 1.975701e-01 -3.495441e+01 2.317839e-02 -4.289847e+01 -1.172733e-01 -5.076754e+01 -3.126199e-01 -5.869768e+01 -4.518661e-01 -6.674796e+01 -6.277014e-01 -7.462790e+01 -9.229755e-01 -8.252173e+01 -1.317341e+00 -9.053652e+01 -1.878439e+00 -9.870759e+01 -2.695729e+00 -1.070480e+02 
-4.556314e+00 -1.150606e+02 -6.581160e+00 -1.237935e+02 -9.471922e+00 1.257020e+02 -6.434033e+00 1.169058e+02 -4.125852e+00 1.083436e+02 -2.358028e+00 9.998116e+01 -1.041146e+00 9.177822e+01 -6.162532e-02 8.374136e+01 6.795726e-01 7.572342e+01 9.568237e-01 6.792121e+01 1.069386e+00 5.984765e+01 1.333321e+00 5.187393e+01 1.375827e+00 4.389326e+01 1.348755e+00 3.594314e+01 1.328071e+00 2.805148e+01 1.305536e+00 2.019742e+01 1.261151e+00 1.240277e+01 1.226331e+00 4.654746e+00 1.189474e+00 -3.089980e+00 1.086666e+00 -1.087940e+01 8.910243e-01 -1.874123e+01 6.662980e-01 -2.663945e+01 4.808700e-01 -3.451585e+01 3.398189e-01 -4.239359e+01 2.175787e-01 -5.026097e+01 4.326435e-02 -5.810205e+01 -1.368679e-01 -6.611621e+01 -3.357197e-01 -7.402463e+01 -7.189345e-01 -8.192707e+01 -1.266851e+00 -8.994439e+01 -2.026418e+00 -9.813066e+01 -3.087932e+00 -1.065067e+02 
-5.879289e+00 -1.169611e+02 -8.145908e+00 -1.259130e+02 -1.134256e+01 1.276566e+02 -8.052619e+00 1.185881e+02 -5.533300e+00 1.097572e+02 -3.584557e+00 1.011450e+02 -2.099938e+00 9.272635e+01 -9.837756e-01 8.447056e+01 -1.878215e-01 7.630970e+01 2.310857e-01 6.825270e+01 5.192023e-01 6.015531e+01 7.924675e-01 5.210515e+01 9.207696e-01 4.407254e+01 9.709677e-01 3.607020e+01 9.989745e-01 2.811303e+01 1.011764e+00 2.019862e+01 1.000162e+00 1.232679e+01 9.720348e-01 4.484082e+00 9.161824e-01 -3.356004e+00 8.003297e-01 -1.122221e+01 6.144760e-01 -1.912997e+01 3.952637e-01 -2.706463e+01 1.828040e-01 -3.500781e+01 -2.285616e-02 -4.296932e+01 -2.257864e-01 -5.093396e+01 -4.498160e-01 -5.894019e+01 -6.641030e-01 -6.703196e+01 -9.655231e-01 -7.510582e+01 -1.442667e+00 -8.319910e+01 -2.106892e+00 -9.138605e+01 -3.004758e+00 -9.972275e+01 -4.223921e+00 -1.082444e+02 
-6.470711e+00 -1.163578e+02 -9.076883e+00 -1.254164e+02 -1.270976e+01 1.284589e+02 -9.094027e+00 1.192517e+02 -6.311136e+00 1.102995e+02 -4.141793e+00 1.015803e+02 -2.472684e+00 9.307188e+01 -1.210064e+00 8.473890e+01 -2.944001e-01 7.652711e+01 2.530684e-01 6.845441e+01 5.962937e-01 6.035437e+01 8.973405e-01 5.229307e+01 1.069460e+00 4.426257e+01 1.156656e+00 3.627150e+01 1.203518e+00 2.832872e+01 1.223379e+00 2.043092e+01 1.216488e+00 1.257607e+01 1.189981e+00 4.750589e+00 1.135111e+00 -3.067784e+00 1.030092e+00 -1.090258e+01 8.693356e-01 -1.876801e+01 6.780923e-01 -2.665649e+01 4.886294e-01 -3.455527e+01 3.056899e-01 -4.247126e+01 1.123698e-01 -5.040067e+01 -1.173204e-01 -5.835324e+01 -3.834536e-01 -6.639406e+01 -7.353335e-01 -7.445029e+01 -1.282702e+00 -8.253790e+01 -2.062306e+00 -9.072100e+01 -3.123137e+00 -9.905922e+01 -4.551927e+00 -1.075957e+02 
-7.653582e+00 -1.180611e+02 -1.047533e+01 -1.273062e+02 -1.439034e+01 1.301871e+02 -1.054405e+01 1.207628e+02 -7.574652e+00 1.116018e+02 -5.246863e+00 1.026806e+02 -3.439947e+00 9.397838e+01 -2.068322e+00 8.546125e+01 -1.070477e+00 7.709245e+01 -4.074402e-01 6.884025e+01 5.789160e-02 6.064501e+01 4.099051e-01 5.250731e+01 6.409417e-01 4.441416e+01 7.832341e-01 3.636398e+01 8.713284e-01 2.835918e+01 9.210516e-01 2.039751e+01 9.352674e-01 1.247206e+01 9.154856e-01 4.570381e+00 8.559008e-01 -3.323731e+00 7.459974e-01 -1.122717e+01 5.850319e-01 -1.915185e+01 3.884414e-01 -2.709981e+01 1.741126e-01 -3.507157e+01 -5.594505e-02 -4.307157e+01 -3.058581e-01 -5.109766e+01 -5.865247e-01 -5.916999e+01 -9.118501e-01 -6.730412e+01 -1.350884e+00 -7.547771e+01 -1.980606e+00 -8.370494e+01 -2.849663e+00 -9.202833e+01 -4.017358e+00 -1.004975e+02 -5.574682e+00 -1.091594e+02 
-8.117423e+00 -1.173388e+02 -1.123165e+01 -1.266649e+02 -1.552178e+01 1.307977e+02 -1.139379e+01 1.212701e+02 -8.197592e+00 1.120238e+02 -5.684499e+00 1.030263e+02 -3.724841e+00 9.425659e+01 -2.227863e+00 8.568391e+01 -1.124086e+00 7.727626e+01 -3.667343e-01 6.900349e+01 1.583171e-01 6.079989e+01 5.490908e-01 5.266056e+01 8.148863e-01 4.457496e+01 9.851602e-01 3.653984e+01 1.090757e+00 2.855454e+01 1.149745e+00 2.061502e+01 1.169747e+00 1.271375e+01 1.154697e+00 4.838678e+00 1.101611e+00 -3.024996e+00 1.004143e+00 -1.089253e+01 8.625790e-01 -1.877565e+01 6.878065e-01 -2.667888e+01 4.928567e-01 -3.460465e+01 2.780281e-01 -4.255720e+01 3.218660e-02 -5.053737e+01 -2.634052e-01 -5.855926e+01 -6.306009e-01 -6.664465e+01 -1.123145e+00 -7.478267e+01 -1.821032e+00 -8.298584e+01 -2.786225e+00 -9.129182e+01 -4.086266e+00 -9.974932e+01 -5.816400e+00 -1.084101e+02 
-9.141586e+00 -1.188682e+02 -1.243255e+01 -1.283486e+02 -1.695810e+01 1.322797e+02 -1.263572e+01 1.225799e+02 -9.285676e+00 1.131676e+02 -6.645424e+00 1.040039e+02 -4.577968e+00 9.507053e+01 -2.991070e+00 8.634235e+01 -1.808164e+00 7.779014e+01 -9.602574e-01 6.937888e+01 -3.481066e-01 6.107186e+01 9.882087e-02 5.285020e+01 4.121473e-01 4.469638e+01 6.235078e-01 3.659982e+01 7.612986e-01 2.855439e+01 8.436419e-01 2.055367e+01 8.789115e-01 1.258847e+01 8.703525e-01 4.647189e+00 8.170929e-01 -3.283131e+00 7.168380e-01 -1.121585e+01 5.709581e-01 -1.916267e+01 3.860484e-01 -2.713186e+01 1.687837e-01 -3.512982e+01 -8.144705e-02 -4.316154e+01 -3.706599e-01 -5.123025e+01 -7.128358e-01 -5.934851e+01 -1.136109e+00 -6.752510e+01 -1.697818e+00 -7.576188e+01 -2.465163e+00 -8.407393e+01 -3.502454e+00 -9.249172e+01 -4.884611e+00 -1.010572e+02 -6.713610e+00 -1.098224e+02 
-9.453295e+00 -1.180383e+02 -1.298198e+01 -1.275735e+02 -1.781152e+01 1.326622e+02 -1.326161e+01 1.228917e+02 -9.728950e+00 1.134246e+02 -6.941193e+00 1.042128e+02 -4.752192e+00 9.523774e+01 -3.064205e+00 8.647677e+01 -1.796149e+00 7.790267e+01 -8.766062e-01 6.948159e+01 -2.131271e-01 6.117418e+01 2.701130e-01 5.295988e+01 6.117927e-01 4.482118e+01 8.448033e-01 3.674622e+01 9.972773e-01 2.872687e+01 1.088839e+00 2.075520e+01 1.130727e+00 1.282152e+01 1.128662e+00 4.914344e+00 1.083952e+00 -2.978875e+00 9.961145e-01 -1.087097e+01 8.665377e-01 -1.877354e+01 6.994225e-01 -2.669554e+01 4.981957e-01 -3.464395e+01 2.593852e-01 -4.262422e+01 -2.822750e-02 -5.064132e+01 -3.846983e-01 -5.870683e+01 -8.403126e-01 -6.683297e+01 -1.447630e+00 -7.502582e+01 -2.274681e+00 -8.330152e+01 -3.391773e+00 -9.168947e+01 -4.879998e+00 -1.002311e+02 -6.846657e+00 -1.089821e+02 
-1.030016e+01 -1.194196e+02 -1.395687e+01 -1.290772e+02 -1.895871e+01 1.338739e+02 -1.426363e+01 1.239702e+02 -1.061791e+01 1.143733e+02 -7.738485e+00 1.050295e+02 -5.471800e+00 9.592260e+01 -3.716263e+00 8.703432e+01 -2.385491e+00 7.833949e+01 -1.399793e+00 6.980707e+01 -6.748496e-01 6.140653e+01 -1.449102e-01 5.311398e+01 2.343021e-01 4.490838e+01 4.980416e-01 3.677344e+01 6.744739e-01 2.869700e+01 7.833109e-01 2.066840e+01 8.362304e-01 1.267657e+01 8.393152e-01 4.709704e+00 7.950557e-01 -3.244474e+00 7.044031e-01 -1.119842e+01 5.687918e-01 -1.916393e+01 3.904513e-01 -2.715117e+01 1.701993e-01 -3.516848e+01 -9.582250e-02 -4.322240e+01 -4.170434e-01 -5.131895e+01 -8.118104e-01 -5.946761e+01 -1.312689e+00 -6.767698e+01 -1.971525e+00 -7.595624e+01 -2.851105e+00 -8.432212e+01 -4.021744e+00 -9.280113e+01 -5.568394e+00 -1.014310e+02 -7.603906e+00 -1.102678e+02 
-1.043803e+01 -1.184922e+02 -1.427293e+01 -1.281778e+02 -1.950142e+01 1.339944e+02 -1.463945e+01 1.240523e+02 -1.085998e+01 1.144300e+02 -7.873120e+00 1.050670e+02 -5.518029e+00 9.594595e+01 -3.688823e+00 8.704993e+01 -2.296383e+00 7.835467e+01 -1.259906e+00 6.982965e+01 -4.968892e-01 6.144323e+01 6.084336e-02 5.317071e+01 4.609194e-01 4.499078e+01 7.402020e-01 3.688636e+01 9.276503e-01 2.884407e+01 1.044273e+00 2.085225e+01 1.103670e+00 1.289939e+01 1.113803e+00 4.973636e+00 1.078652e+00 -2.937129e+00 1.000013e+00 -1.084509e+01 8.790457e-01 -1.876185e+01 7.164161e-01 -2.669766e+01 5.105876e-01 -3.466110e+01 2.549504e-01 -4.265932e+01 -6.382965e-02 -5.069957e+01 -4.680324e-01 -5.879190e+01 -9.913333e-01 -6.694706e+01 -1.684145e+00 -7.517637e+01 -2.609917e+00 -8.349756e+01 -3.841934e+00 -9.193734e+01 -5.468873e+00 -1.005337e+02 -7.607715e+00 -1.093454e+02 
-1.109200e+01 -1.197491e+02 -1.499917e+01 -1.295259e+02 -2.032669e+01 1.349154e+02 -1.537752e+01 1.248767e+02 -1.153174e+01 1.151586e+02 -8.491823e+00 1.056968e+02 -6.091192e+00 9.647596e+01 -4.220685e+00 8.748206e+01 -2.787982e+00 7.869298e+01 -1.709487e+00 7.008101e+01 -9.070432e-01 6.161783e+01 -3.168462e-01 5.327788e+01 1.096086e-01 4.503811e+01 4.101466e-01 3.687900e+01 6.139903e-01 2.878451e+01 7.422660e-01 2.074089e+01 8.088527e-01 1.273530e+01 8.220880e-01 4.755270e+00 7.865366e-01 -3.211557e+00 7.044924e-01 -1.117738e+01 5.769865e-01 -1.915385e+01 4.038301e-01 -2.715156e+01 1.824890e-01 -3.517960e+01 -9.376078e-02 -4.324576e+01 -4.374870e-01 -5.135752e+01 -8.700827e-01 -5.952369e+01 -1.425506e+00 -6.775372e+01 -2.152581e+00 -7.605936e+01 -3.112034e+00 -8.445790e+01 -4.376606e+00 -9.297422e+01 -6.036703e+00 -1.016440e+02 -8.212838e+00 -1.105265e+02 
-1.103914e+01 -1.187309e+02 -1.506210e+01 -1.285082e+02 -2.053474e+01 1.347467e+02 -1.548377e+01 1.247024e+02 -1.155646e+01 1.149890e+02 -8.451377e+00 1.055378e+02 -5.997448e+00 9.633208e+01 -4.082771e+00 8.735770e+01 -2.613457e+00 7.859266e+01 -1.505295e+00 7.000915e+01 -6.804730e-01 6.157825e+01 -7.397349e-02 5.327388e+01 3.644344e-01 4.507278e+01 6.737971e-01 3.695506e+01 8.842145e-01 2.890410e+01 1.017843e+00 2.090567e+01 1.089856e+00 1.294672e+01 1.109860e+00 5.014827e+00 1.083363e+00 -2.902170e+00 1.013046e+00 -1.081617e+01 8.995817e-01 -1.873859e+01 7.416208e-01 -2.667986e+01 5.348257e-01 -3.464929e+01 2.701857e-01 -4.265520e+01 -6.769058e-02 -5.070604e+01 -5.027405e-01 -5.881163e+01 -1.069812e+00 -6.698295e+01 -1.817442e+00 -7.523319e+01 -2.806853e+00 -8.358058e+01 -4.112291e+00 -9.205057e+01 -5.826132e+00 -1.006794e+02 -8.071257e+00 -1.095281e+02 
-1.148963e+01 -1.198822e+02 -1.552426e+01 -1.297204e+02 -2.101621e+01 1.353639e+02 -1.594177e+01 1.252586e+02 -1.199906e+01 1.154824e+02 -8.882161e+00 1.059650e+02 -6.417045e+00 9.669137e+01 -4.490042e+00 8.764921e+01 -3.005756e+00 7.881805e+01 -1.879431e+00 7.017186e+01 -1.035822e+00 6.168317e+01 -4.124165e-01 5.332575e+01 4.042852e-02 4.507547e+01 3.616622e-01 3.691115e+01 5.812377e-01 2.881465e+01 7.211793e-01 2.077035e+01 7.966692e-01 1.276423e+01 8.174479e-01 4.783259e+00 7.892382e-01 -3.184962e+00 7.148800e-01 -1.115238e+01 5.949776e-01 -1.913032e+01 4.278995e-01 -2.712926e+01 2.090692e-01 -3.515860e+01 -7.034063e-02 -4.322688e+01 -4.250728e-01 -5.134246e+01 -8.782013e-01 -5.951441e+01 -1.463835e+00 -6.775302e+01 -2.228769e+00 -7.607113e+01 -3.232231e+00 -8.448618e+01 -4.547556e+00 -9.302221e+01 -6.267501e+00 -1.017138e+02 -8.516510e+00 -1.106213e+02 
-1.123496e+01 -1.187744e+02 -1.532189e+01 -1.285853e+02 -2.087547e+01 1.348874e+02 -1.576697e+01 1.248102e+02 -1.179687e+01 1.150696e+02 -8.658471e+00 1.055939e+02 -6.176438e+00 9.636593e+01 -4.235975e+00 8.737228e+01 -2.741036e+00 7.859159e+01 -1.606648e+00 6.999718e+01 -7.576310e-01 6.156099e+01 -1.309299e-01 5.325643e+01 3.239285e-01 4.505932e+01 6.466110e-01 3.694846e+01 8.676761e-01 2.890571e+01 1.009822e+00 2.091544e+01 1.089026e+00 1.296379e+01 1.115793e+00 5.038043e+00 1.096375e+00 -2.873847e+00 1.033744e+00 -1.078341e+01 9.281226e-01 -1.870163e+01 7.769592e-01 -2.663879e+01 5.742755e-01 -3.460442e+01 3.094694e-01 -4.260752e+01 -3.419971e-02 -5.065726e+01 -4.814921e-01 -5.876377e+01 -1.067238e+00 -6.693861e+01 -1.838276e+00 -7.519584e+01 -2.854063e+00 -8.355389e+01 -4.188510e+00 -9.203752e+01 -5.935038e+00 -1.006819e+02 -8.218652e+00 -1.095480e+02 
-1.147712e+01 -1.198321e+02 -1.551234e+01 -1.296746e+02 -2.100198e+01 1.351967e+02 -1.593710e+01 1.250934e+02 -1.200503e+01 1.153220e+02 -8.897840e+00 1.058121e+02 -6.440537e+00 9.654796e+01 -4.518279e+00 8.751664e+01 -3.034815e+00 7.869746e+01 -1.905697e+00 7.006457e+01 -1.057672e+00 6.159056e+01 -4.296555e-01 5.324888e+01 2.759764e-02 4.501505e+01 3.529167e-01 3.686730e+01 5.761809e-01 2.878679e+01 7.195556e-01 2.075719e+01 7.986727e-01 1.276411e+01 8.238682e-01 4.794503e+00 8.013520e-01 -3.163774e+00 7.341072e-01 -1.112217e+01 6.223775e-01 -1.909149e+01 4.636637e-01 -2.708186e+01 2.521925e-01 -3.510269e+01 -2.212226e-02 -4.316289e+01 -3.751515e-01 -5.127139e+01 -8.305036e-01 -5.943780e+01 -1.421641e+00 -6.767311e+01 -2.193490e+00 -7.599088e+01 -3.203544e+00 -8.440868e+01 -4.524338e+00 -9.295012e+01 -6.248632e+00 -1.016488e+02 -8.501204e+00 -1.105641e+02 