# vtk DataFile Version 2.0
Comment goes here
ASCII

DATASET STRUCTURED_POINTS
FIELD FieldData 1
TIME 1 1 double
0.33000000
DIMENSIONS    128   16   1

ORIGIN    0.000   0.000   0.000
SPACING   0.0078125 0.015625   1.000

POINT_DATA   2048
SCALARS P double
LOOKUP_TABLE default

5.810997e-01 5.860288e-01 5.816578e-01 5.889494e-01 5.800264e-01 5.915034e-01 5.747926e-01 5.932950e-01 5.778827e-01 5.929134e-01 5.808332e-01 5.919621e-01 5.819812e-01 5.885222e-01 5.780208e-01 5.815794e-01 5.713975e-01 5.710643e-01 5.633951e-01 5.596380e-01 5.552627e-01 5.487804e-01 5.406806e-01 5.258230e-01 5.140287e-01 4.980932e-01 4.967499e-01 4.917089e-01 5.038808e-01 5.012152e-01 5.075233e-01 4.883428e-01 4.759249e-01 4.427948e-01 4.277536e-01 4.073110e-01 4.124399e-01 4.124611e-01 4.273461e-01 4.204748e-01 4.131318e-01 3.772250e-01 3.400649e-01 2.883473e-01 2.466651e-01 2.048876e-01 1.791597e-01 1.498108e-01 1.304554e-01 9.628884e-02 6.141816e-02 8.968121e-03 -4.343576e-02 -1.045841e-01 -1.560720e-01 -2.104193e-01 -2.539447e-01 -3.074352e-01 -3.580745e-01 -4.372619e-01 -5.056823e-01 -6.000242e-01 -6.708146e-01 -7.559956e-01 -8.161096e-01 -8.919296e-01 -9.377200e-01 -9.732489e-01 -9.740482e-01 -9.469768e-01 -9.045988e-01 -8.630093e-01 -8.101830e-01 -7.758118e-01 -7.390505e-01 -7.082831e-01 -6.624818e-01 -6.087266e-01 -5.462155e-01 -4.837492e-01 -4.405434e-01 -4.132286e-01 -4.149043e-01 -4.211795e-01 -4.312058e-01 -4.153435e-01 -3.780694e-01 -3.033785e-01 -2.133253e-01 -1.119230e-01 -2.243518e-02 4.130131e-02 8.099607e-02 8.624776e-02 8.906363e-02 7.586068e-02 8.654572e-02 8.936350e-02 1.202793e-01 1.342445e-01 1.756706e-01 2.020581e-01 2.654212e-01 3.187614e-01 4.008812e-01 4.548464e-01 5.041657e-01 5.075354e-01 4.907971e-01 4.494792e-01 4.086910e-01 3.896187e-01 3.899173e-01 4.311999e-01 4.713600e-01 5.353275e-01 5.621372e-01 5.990387e-01 5.899368e-01 5.998270e-01 5.798448e-01 5.859501e-01 5.766154e-01 5.806534e-01 5.774034e-01 5.809155e-01 5.793830e-01 5.831512e-01 
5.229431e-01 5.395824e-01 5.384377e-01 5.550565e-01 5.470514e-01 5.666597e-01 5.467869e-01 5.711245e-01 5.494945e-01 5.606252e-01 5.396410e-01 5.414429e-01 5.277491e-01 5.257286e-01 5.227268e-01 5.170906e-01 5.210956e-01 5.109047e-01 5.177328e-01 5.050519e-01 5.207668e-01 5.180455e-01 5.452030e-01 5.509086e-01 5.724340e-01 5.598124e-01 5.551447e-01 5.163954e-01 5.000951e-01 4.632576e-01 4.632019e-01 4.487537e-01 4.661799e-01 4.590074e-01 4.746287e-01 4.686275e-01 4.876280e-01 4.906616e-01 5.173866e-01 5.114561e-01 5.110659e-01 4.627547e-01 4.066730e-01 3.124280e-01 2.226815e-01 1.289832e-01 7.339487e-02 3.300383e-02 4.406379e-02 5.581408e-02 7.929212e-02 6.486743e-02 3.024360e-02 -4.146550e-02 -1.126303e-01 -1.848285e-01 -2.223903e-01 -2.433381e-01 -2.530108e-01 -3.224663e-01 -4.188097e-01 -5.642705e-01 -6.683849e-01 -7.730437e-01 -8.200830e-01 -8.738219e-01 -9.088430e-01 -9.426528e-01 -9.391245e-01 -9.153377e-01 -8.590362e-01 -8.230196e-01 -7.943346e-01 -7.711963e-01 -7.402817e-01 -6.997945e-01 -6.226000e-01 -5.300710e-01 -4.268409e-01 -3.381672e-01 -2.973664e-01 -3.044688e-01 -3.698685e-01 -4.487161e-01 -5.228871e-01 -5.456601e-01 -5.214975e-01 -4.340273e-01 -3.290303e-01 -2.115266e-01 -1.228468e-01 -6.778981e-02 -4.560864e-02 -5.134824e-02 -4.845747e-02 -4.426584e-02 -9.364086e-03 2.426938e-02 7.366225e-02 1.001311e-01 1.424555e-01 1.820141e-01 2.711140e-01 3.759710e-01 5.149091e-01 6.217427e-01 6.955009e-01 7.002275e-01 6.566222e-01 5.840302e-01 5.099257e-01 4.799518e-01 4.775965e-01 5.315211e-01 5.711045e-01 6.239247e-01 6.055638e-01 5.880031e-01 5.098538e-01 4.731420e-01 4.190425e-01 4.261495e-01 4.281488e-01 4.553890e-01 4.676700e-01 4.909502e-01 4.998232e-01 5.188678e-01 
5.229458e-01 5.412260e-01 5.539488e-01 5.696273e-01 5.771270e-01 5.941902e-01 5.679358e-01 6.111594e-01 5.841839e-01 5.865615e-01 5.548341e-01 5.481949e-01 5.244347e-01 5.209193e-01 5.029709e-01 5.063770e-01 4.863931e-01 4.787559e-01 4.549853e-01 4.361234e-01 4.424470e-01 4.628481e-01 5.132604e-01 5.655536e-01 6.120442e-01 6.178583e-01 5.945926e-01 5.211332e-01 4.541283e-01 3.787948e-01 3.580179e-01 3.564331e-01 4.020556e-01 4.340473e-01 4.785025e-01 5.029465e-01 5.352552e-01 5.646214e-01 6.164718e-01 6.331375e-01 6.466992e-01 5.862484e-01 4.857085e-01 3.304973e-01 1.489139e-01 -1.324825e-02 -1.182995e-01 -1.651617e-01 -1.015922e-01 -5.115166e-03 1.076426e-01 1.584471e-01 1.332004e-01 3.986079e-02 -7.059412e-02 -1.620318e-01 -1.920763e-01 -1.468134e-01 -1.405678e-01 -2.655610e-01 -4.428540e-01 -7.400638e-01 -9.889190e-01 -1.173682e+00 -1.267157e+00 -1.390022e+00 -1.404631e+00 -1.355381e+00 -1.226034e+00 -9.564821e-01 -8.281852e-01 -7.862255e-01 -6.966797e-01 -6.837594e-01 -6.819432e-01 -6.487544e-01 -5.301188e-01 -3.714566e-01 -1.893941e-01 -3.486719e-02 4.531106e-03 -6.031555e-02 -2.472929e-01 -4.643765e-01 -6.529560e-01 -7.447425e-01 -7.320020e-01 -5.997970e-01 -4.376546e-01 -2.559860e-01 -1.353687e-01 -8.387575e-02 -8.958449e-02 -1.410494e-01 -1.613846e-01 -1.624396e-01 -1.043545e-01 -4.259052e-02 3.019441e-02 5.322766e-02 8.649055e-02 1.216113e-01 2.538704e-01 4.395479e-01 6.975620e-01 8.950668e-01 1.022527e+00 1.008424e+00 9.074092e-01 7.444101e-01 5.953385e-01 5.223319e-01 5.313572e-01 6.263002e-01 7.182255e-01 7.886591e-01 7.386991e-01 6.437870e-01 4.670346e-01 3.485960e-01 2.463732e-01 2.480261e-01 2.883017e-01 3.504585e-01 4.050796e-01 4.450740e-01 4.773999e-01 5.029000e-01 
4.812618e-01 5.057322e-01 5.259420e-01 5.431370e-01 5.656465e-01 5.763409e-01 5.321850e-01 6.105158e-01 5.728142e-01 5.747759e-01 5.417397e-01 5.339866e-01 5.081733e-01 4.799775e-01 4.398996e-01 4.103554e-01 3.783989e-01 3.453637e-01 3.422575e-01 2.958379e-01 3.408496e-01 3.007594e-01 3.373958e-01 3.405434e-01 3.731423e-01 3.862292e-01 4.216241e-01 4.193250e-01 4.320450e-01 4.083521e-01 4.152287e-01 4.062828e-01 4.350691e-01 4.467465e-01 4.761908e-01 4.923972e-01 4.976973e-01 4.937040e-01 5.019800e-01 4.654942e-01 4.563463e-01 3.819815e-01 3.063342e-01 2.289702e-01 1.250398e-01 5.285566e-02 -6.145359e-03 -8.005859e-02 -7.274140e-02 -8.406272e-02 -5.743800e-02 -5.045028e-02 -9.043632e-02 -1.394272e-01 -1.926225e-01 -2.380205e-01 -3.161798e-01 -3.536557e-01 -4.822531e-01 -6.359287e-01 -6.254033e-01 -8.447874e-01 -1.071611e+00 -1.339850e+00 -1.634635e+00 -2.036620e+00 -2.119227e+00 -1.934109e+00 -1.692145e+00 -1.113452e+00 -1.134721e+00 -1.227519e+00 -8.826356e-01 -7.721585e-01 -7.135902e-01 -6.982188e-01 -6.014160e-01 -5.255052e-01 -4.177927e-01 -3.260991e-01 -3.237585e-01 -3.521675e-01 -4.300636e-01 -5.176226e-01 -5.565017e-01 -6.004031e-01 -6.068779e-01 -5.807624e-01 -5.574412e-01 -4.933714e-01 -4.478263e-01 -4.165409e-01 -3.880720e-01 -3.844980e-01 -3.499924e-01 -2.994174e-01 -2.182007e-01 -1.200760e-01 -1.692356e-02 7.435233e-02 1.630447e-01 2.497655e-01 3.684076e-01 5.127287e-01 6.828935e-01 8.177794e-01 9.142226e-01 9.556514e-01 9.548051e-01 9.309192e-01 8.667770e-01 8.215429e-01 7.810604e-01 7.826611e-01 7.699209e-01 7.497915e-01 6.536576e-01 5.470399e-01 3.813198e-01 2.735488e-01 1.630024e-01 1.360365e-01 1.624463e-01 2.434234e-01 3.197541e-01 3.767663e-01 4.190968e-01 4.550299e-01 
5.228293e-01 5.359009e-01 5.570128e-01 5.645417e-01 5.887700e-01 5.883661e-01 5.687843e-01 6.174129e-01 6.027418e-01 6.094308e-01 6.076959e-01 6.079335e-01 6.066577e-01 5.725738e-01 4.711078e-01 4.850660e-01 3.410175e-01 3.072545e-01 2.126803e-01 9.585796e-02 3.866650e-02 -3.308288e-02 -2.515140e-02 -9.436759e-02 -9.287418e-02 -8.145074e-02 1.986275e-02 1.269847e-01 2.580493e-01 3.388992e-01 3.884187e-01 3.769507e-01 3.490199e-01 3.098741e-01 2.758136e-01 2.495247e-01 1.972983e-01 1.348399e-01 5.361889e-02 -3.826451e-02 -9.514568e-02 -1.315635e-01 -1.185017e-01 -2.747677e-02 6.092819e-02 1.662816e-01 2.025712e-01 1.394061e-01 1.910664e-02 -1.708670e-01 -3.408070e-01 -4.432904e-01 -5.053383e-01 -4.717966e-01 -4.319450e-01 -3.934478e-01 -4.990353e-01 -6.338916e-01 -8.206352e-01 -8.588524e-01 -7.049244e-01 -7.091287e-01 -7.384990e-01 -9.128669e-01 -1.104113e+00 -1.352246e+00 -1.305196e+00 -1.122981e+00 -9.793315e-01 -7.247417e-01 -9.322863e-01 -1.150868e+00 -9.248851e-01 -7.860222e-01 -7.207414e-01 -7.272308e-01 -7.557915e-01 -8.601045e-01 -9.542208e-01 -1.029996e+00 -1.053464e+00 -9.730023e-01 -7.785827e-01 -5.613287e-01 -3.137494e-01 -2.160616e-01 -2.063645e-01 -3.288424e-01 -4.856154e-01 -6.235475e-01 -6.881664e-01 -6.822040e-01 -5.872574e-01 -4.711598e-01 -3.448756e-01 -2.366715e-01 -1.555645e-01 -6.843717e-02 2.686561e-02 1.655218e-01 3.023230e-01 4.200482e-01 4.552761e-01 4.313376e-01 3.484533e-01 2.879608e-01 2.818945e-01 3.868331e-01 5.588891e-01 7.740326e-01 9.151311e-01 9.650655e-01 9.020558e-01 7.686568e-01 6.167107e-01 4.858147e-01 4.215083e-01 4.093905e-01 4.319509e-01 4.504732e-01 4.435330e-01 4.016841e-01 3.802291e-01 3.981489e-01 4.313950e-01 4.556004e-01 4.821840e-01 5.004978e-01 
5.079979e-01 5.231349e-01 5.303779e-01 5.442165e-01 5.484859e-01 5.604957e-01 5.558244e-01 5.751489e-01 5.686460e-01 5.864058e-01 5.860313e-01 6.004914e-01 5.984430e-01 6.004054e-01 4.523828e-01 4.385080e-01 3.026948e-01 2.853254e-01 1.635707e-01 1.480603e-01 5.939592e-03 -1.327606e-02 -1.103024e-02 -5.324953e-02 -4.702569e-02 -4.376461e-02 2.713111e-02 9.494117e-02 1.916516e-01 2.477782e-01 2.909342e-01 2.798412e-01 2.604032e-01 2.200163e-01 1.895008e-01 1.507828e-01 1.114610e-01 5.272998e-02 -9.679784e-03 -7.852408e-02 -1.222117e-01 -1.433410e-01 -1.218435e-01 -6.150449e-02 1.502416e-02 8.067231e-02 1.064701e-01 6.384236e-02 -3.401692e-02 -1.777745e-01 -3.150045e-01 -4.045082e-01 -4.496151e-01 -4.210829e-01 -3.915556e-01 -3.342870e-01 -3.677975e-01 -3.603919e-01 -4.412277e-01 -5.899864e-01 -9.084606e-01 -1.272397e+00 -1.553697e+00 -1.716349e+00 -1.642399e+00 -1.498320e+00 -1.239470e+00 -1.146998e+00 -1.044098e+00 -1.101051e+00 -1.144147e+00 -1.192885e+00 -1.103034e+00 -9.866892e-01 -9.145022e-01 -8.810488e-01 -8.928230e-01 -9.547151e-01 -1.018201e+00 -1.072196e+00 -1.057644e+00 -9.739456e-01 -7.960239e-01 -6.086464e-01 -4.128738e-01 -3.183348e-01 -2.869623e-01 -3.563810e-01 -4.429548e-01 -5.338244e-01 -5.683282e-01 -5.517663e-01 -4.737830e-01 -3.699286e-01 -2.670034e-01 -1.754368e-01 -1.116735e-01 -4.373729e-02 2.266331e-02 1.260178e-01 2.203873e-01 3.093977e-01 3.254067e-01 3.023478e-01 2.219737e-01 1.754690e-01 1.628975e-01 2.468660e-01 3.710708e-01 5.381454e-01 6.540575e-01 7.143865e-01 6.828755e-01 6.013480e-01 4.947989e-01 4.146062e-01 3.858336e-01 4.070768e-01 4.567011e-01 5.007998e-01 5.196745e-01 5.063226e-01 4.784088e-01 4.725110e-01 4.681825e-01 4.787156e-01 4.847983e-01 4.997597e-01 
5.468341e-01 5.554781e-01 5.666512e-01 5.747008e-01 5.830950e-01 5.915353e-01 5.938863e-01 6.059802e-01 6.072009e-01 6.154850e-01 6.186294e-01 6.235637e-01 6.281913e-01 6.303643e-01 4.821280e-01 4.764953e-01 3.339540e-01 3.160685e-01 1.810309e-01 1.537465e-01 1.693263e-02 -8.864831e-04 1.930837e-02 3.304704e-03 2.748920e-02 2.851400e-02 6.662443e-02 8.492345e-02 1.245555e-01 1.395884e-01 1.606348e-01 1.578828e-01 1.565073e-01 1.410842e-01 1.264855e-01 1.046171e-01 8.016202e-02 5.040878e-02 2.003979e-02 -1.097876e-02 -3.480608e-02 -5.146856e-02 -5.964609e-02 -5.616291e-02 -5.443859e-02 -5.345383e-02 -6.671939e-02 -9.622531e-02 -1.394800e-01 -1.915122e-01 -2.441718e-01 -2.797786e-01 -3.098364e-01 -3.078354e-01 -3.077406e-01 -2.703593e-01 -2.489217e-01 -1.580524e-01 -1.617963e-01 -3.185402e-01 -6.421643e-01 -9.768531e-01 -1.235888e+00 -1.320106e+00 -1.280964e+00 -1.200582e+00 -1.159249e+00 -1.184620e+00 -1.172520e+00 -1.211950e+00 -1.170336e+00 -1.157824e+00 -1.053791e+00 -1.016626e+00 -9.553498e-01 -9.393274e-01 -9.065783e-01 -9.074322e-01 -8.860597e-01 -8.767842e-01 -8.345045e-01 -7.904608e-01 -7.092269e-01 -6.417383e-01 -5.556265e-01 -5.103245e-01 -4.660748e-01 -4.609216e-01 -4.505458e-01 -4.524874e-01 -4.323750e-01 -4.066841e-01 -3.566272e-01 -3.016693e-01 -2.372047e-01 -1.725897e-01 -1.104813e-01 -4.526633e-02 1.486871e-02 8.235657e-02 1.380706e-01 1.938057e-01 2.258448e-01 2.552213e-01 2.661823e-01 2.900247e-01 3.136684e-01 3.626346e-01 4.122480e-01 4.735103e-01 5.150684e-01 5.442479e-01 5.466163e-01 5.348684e-01 5.132230e-01 4.917587e-01 4.793538e-01 4.736850e-01 4.774011e-01 4.800059e-01 4.848044e-01 4.836030e-01 4.874428e-01 4.924109e-01 5.033127e-01 5.120030e-01 5.249620e-01 5.341945e-01 
5.374661e-01 5.490812e-01 5.509549e-01 5.628651e-01 5.633271e-01 5.758215e-01 5.746333e-01 5.882684e-01 5.867387e-01 6.001132e-01 5.996332e-01 6.115853e-01 6.122963e-01 6.220814e-01 4.686424e-01 4.671708e-01 3.240129e-01 3.146263e-01 1.782729e-01 1.643684e-01 2.869054e-02 1.290041e-02 3.900501e-02 2.457385e-02 5.092478e-02 4.420702e-02 7.413897e-02 7.467873e-02 1.021566e-01 1.007262e-01 1.169248e-01 1.068606e-01 1.099054e-01 9.246041e-02 8.557873e-02 6.198792e-02 4.627689e-02 1.666234e-02 -4.204674e-03 -3.342529e-02 -4.971480e-02 -6.912741e-02 -7.501636e-02 -8.437188e-02 -8.640519e-02 -1.002289e-01 -1.146003e-01 -1.479348e-01 -1.821401e-01 -2.318972e-01 -2.737470e-01 -3.218835e-01 -3.554555e-01 -3.970251e-01 -4.238244e-01 -4.761704e-01 -5.093572e-01 -6.001514e-01 -6.666655e-01 -7.537446e-01 -7.707664e-01 -7.731509e-01 -7.666612e-01 -7.688978e-01 -8.255423e-01 -8.930636e-01 -9.950375e-01 -1.032866e+00 -1.061816e+00 -1.045883e+00 -1.011199e+00 -1.001957e+00 -9.730921e-01 -9.807669e-01 -9.503720e-01 -9.471651e-01 -9.222132e-01 -9.188204e-01 -8.931958e-01 -8.779354e-01 -8.326091e-01 -7.903572e-01 -7.178362e-01 -6.579875e-01 -5.825198e-01 -5.357225e-01 -4.865380e-01 -4.662052e-01 -4.407066e-01 -4.273120e-01 -3.992448e-01 -3.679496e-01 -3.216888e-01 -2.689423e-01 -2.128225e-01 -1.528389e-01 -1.004622e-01 -4.275289e-02 2.668829e-03 5.707357e-02 9.365673e-02 1.372333e-01 1.556584e-01 1.818056e-01 1.865549e-01 2.107619e-01 2.259416e-01 2.688667e-01 3.042818e-01 3.580969e-01 3.925917e-01 4.284954e-01 4.392945e-01 4.476276e-01 4.412120e-01 4.407613e-01 4.393609e-01 4.483220e-01 4.578796e-01 4.724697e-01 4.818075e-01 4.926209e-01 4.964486e-01 5.062031e-01 5.093786e-01 5.200499e-01 5.233137e-01 5.346224e-01 
5.787683e-01 5.830074e-01 5.894031e-01 5.939463e-01 5.992533e-01 6.048820e-01 6.092418e-01 6.163212e-01 6.213347e-01 6.277455e-01 6.343930e-01 6.390906e-01 6.479626e-01 6.507002e-01 5.009434e-01 4.955438e-01 3.518028e-01 3.389843e-01 1.989986e-01 1.833380e-01 4.295719e-02 3.189426e-02 5.448449e-02 4.611051e-02 6.607725e-02 5.934924e-02 7.393054e-02 6.617392e-02 7.402359e-02 6.526959e-02 6.864190e-02 6.091150e-02 6.161972e-02 5.390767e-02 4.959962e-02 3.742899e-02 2.535921e-02 7.385558e-03 -9.504520e-03 -2.880594e-02 -4.482511e-02 -6.153566e-02 -7.557641e-02 -9.173463e-02 -1.077230e-01 -1.287021e-01 -1.500819e-01 -1.779887e-01 -2.040916e-01 -2.365460e-01 -2.649742e-01 -3.008206e-01 -3.323867e-01 -3.769763e-01 -4.165238e-01 -4.815648e-01 -5.368024e-01 -6.456684e-01 -7.257879e-01 -8.109373e-01 -8.492889e-01 -8.772332e-01 -9.076344e-01 -9.471245e-01 -1.010004e+00 -1.068222e+00 -1.115759e+00 -1.131258e+00 -1.138503e+00 -1.119750e+00 -1.107142e+00 -1.091712e+00 -1.067828e+00 -1.055078e+00 -1.020196e+00 -1.000793e+00 -9.610507e-01 -9.379247e-01 -8.945173e-01 -8.652044e-01 -8.135843e-01 -7.737917e-01 -7.118670e-01 -6.646521e-01 -6.007818e-01 -5.569489e-01 -5.029257e-01 -4.690712e-01 -4.263835e-01 -3.967400e-01 -3.556013e-01 -3.189869e-01 -2.707869e-01 -2.231728e-01 -1.700365e-01 -1.179533e-01 -6.856225e-02 -2.029952e-02 1.991488e-02 6.098482e-02 9.102930e-02 1.236996e-01 1.436537e-01 1.687184e-01 1.830496e-01 2.074520e-01 2.261017e-01 2.582565e-01 2.863652e-01 3.241791e-01 3.541912e-01 3.856210e-01 4.067193e-01 4.248506e-01 4.364635e-01 4.464162e-01 4.564734e-01 4.666404e-01 4.802295e-01 4.924743e-01 5.076606e-01 5.188862e-01 5.322593e-01 5.405930e-01 5.514800e-01 5.575689e-01 5.665029e-01 5.712450e-01 
5.695750e-01 5.777161e-01 5.759209e-01 5.847225e-01 5.822300e-01 5.929425e-01 5.901396e-01 6.037299e-01 6.016207e-01 6.152143e-01 6.139444e-01 6.262344e-01 6.272808e-01 6.380553e-01 4.888056e-01 4.863690e-01 3.497733e-01 3.347800e-01 2.083444e-01 1.855185e-01 6.658332e-02 4.516378e-02 8.238334e-02 7.034662e-02 1.035815e-01 8.878761e-02 1.019195e-01 7.211215e-02 6.565421e-02 3.332192e-02 3.005877e-02 1.601638e-02 2.863781e-02 2.919654e-02 4.156183e-02 3.260736e-02 2.581058e-02 -3.599336e-04 -1.862281e-02 -4.587453e-02 -5.806177e-02 -7.675484e-02 -8.385434e-02 -1.048065e-01 -1.206419e-01 -1.537703e-01 -1.783713e-01 -2.147860e-01 -2.341981e-01 -2.621879e-01 -2.726259e-01 -2.993490e-01 -3.163432e-01 -3.599100e-01 -3.962379e-01 -4.604116e-01 -5.099712e-01 -5.825683e-01 -6.360959e-01 -7.058099e-01 -7.580243e-01 -8.188736e-01 -8.695466e-01 -9.179217e-01 -9.580867e-01 -9.853867e-01 -1.005658e+00 -1.013422e+00 -1.020126e+00 -1.027804e+00 -1.032462e+00 -1.045120e+00 -1.040796e+00 -1.041040e+00 -1.014787e+00 -9.962359e-01 -9.572159e-01 -9.341584e-01 -8.950531e-01 -8.707378e-01 -8.244814e-01 -7.860209e-01 -7.218827e-01 -6.669436e-01 -5.948583e-01 -5.421360e-01 -4.855296e-01 -4.535420e-01 -4.209894e-01 -4.026797e-01 -3.745413e-01 -3.427120e-01 -2.948367e-01 -2.363412e-01 -1.726182e-01 -1.061745e-01 -5.233649e-02 -7.357488e-04 3.124346e-02 6.678406e-02 8.286182e-02 1.074076e-01 1.103252e-01 1.237287e-01 1.171785e-01 1.294694e-01 1.331778e-01 1.663710e-01 1.976160e-01 2.533739e-01 2.975496e-01 3.476663e-01 3.748484e-01 3.978986e-01 4.026948e-01 4.092061e-01 4.114028e-01 4.232175e-01 4.374146e-01 4.601197e-01 4.810662e-01 5.051472e-01 5.211743e-01 5.386275e-01 5.464390e-01 5.584009e-01 5.609217e-01 5.699355e-01 
6.171687e-01 6.137802e-01 6.151972e-01 6.131004e-01 6.147058e-01 6.160920e-01 6.161189e-01 6.266456e-01 6.315268e-01 6.401650e-01 6.478860e-01 6.530656e-01 6.628236e-01 6.668614e-01 5.282446e-01 5.202041e-01 3.843058e-01 3.582476e-01 2.299154e-01 1.961195e-01 7.403585e-02 5.935166e-02 8.910612e-02 9.263845e-02 1.194928e-01 1.157799e-01 1.122354e-01 7.831836e-02 4.537548e-02 4.755464e-03 -1.679529e-02 -2.548383e-02 -1.328006e-02 4.624715e-03 2.159070e-02 2.449537e-02 1.304663e-02 -1.104802e-02 -3.722227e-02 -6.048171e-02 -7.312446e-02 -8.173003e-02 -8.593697e-02 -1.002422e-01 -1.201800e-01 -1.546936e-01 -1.868823e-01 -2.227182e-01 -2.413069e-01 -2.588362e-01 -2.598667e-01 -2.746645e-01 -2.884997e-01 -3.335832e-01 -3.826995e-01 -4.618953e-01 -5.317908e-01 -6.208515e-01 -6.922689e-01 -7.765095e-01 -8.488422e-01 -9.309254e-01 -1.004770e+00 -1.072827e+00 -1.121271e+00 -1.147468e+00 -1.153527e+00 -1.147302e+00 -1.143078e+00 -1.145590e+00 -1.156266e+00 -1.170803e+00 -1.172563e+00 -1.165789e+00 -1.132786e+00 -1.097614e+00 -1.045540e+00 -1.008076e+00 -9.606887e-01 -9.284720e-01 -8.758416e-01 -8.280652e-01 -7.520017e-01 -6.818390e-01 -5.930376e-01 -5.242839e-01 -4.545336e-01 -4.150441e-01 -3.791888e-01 -3.626859e-01 -3.349623e-01 -3.035371e-01 -2.486918e-01 -1.822981e-01 -1.057644e-01 -3.305563e-02 2.534271e-02 7.014178e-02 9.440696e-02 1.138883e-01 1.179435e-01 1.243743e-01 1.143704e-01 1.073540e-01 8.528500e-02 7.659153e-02 6.968377e-02 9.340241e-02 1.302311e-01 1.927688e-01 2.545069e-01 3.158447e-01 3.579608e-01 3.854907e-01 3.986426e-01 4.064409e-01 4.186098e-01 4.371600e-01 4.683604e-01 5.026365e-01 5.418477e-01 5.729929e-01 5.985682e-01 6.076044e-01 6.163402e-01 6.162431e-01 6.190032e-01 6.159045e-01 
6.108863e-01 6.094250e-01 6.009449e-01 6.016145e-01 5.945201e-01 5.995478e-01 5.912541e-01 6.163363e-01 6.130758e-01 6.320727e-01 6.239846e-01 6.373291e-01 6.308958e-01 6.487935e-01 5.111975e-01 5.051772e-01 3.851212e-01 3.456247e-01 2.397470e-01 1.710425e-01 8.421038e-02 2.928407e-02 1.039748e-01 1.428921e-01 2.475836e-01 2.737931e-01 2.680938e-01 1.579972e-01 2.647117e-02 -1.200186e-01 -1.934993e-01 -1.967668e-01 -1.100066e-01 5.011735e-03 1.122472e-01 1.487419e-01 1.200769e-01 3.280931e-02 -5.302081e-02 -1.168683e-01 -1.210108e-01 -9.571170e-02 -4.872966e-02 -4.160331e-02 -7.111996e-02 -1.591154e-01 -2.497820e-01 -3.361499e-01 -3.559610e-01 -3.336059e-01 -2.505833e-01 -1.835275e-01 -1.328798e-01 -1.634707e-01 -2.336904e-01 -3.585062e-01 -4.625033e-01 -5.616774e-01 -6.224717e-01 -6.988623e-01 -7.869539e-01 -9.207482e-01 -1.064365e+00 -1.193232e+00 -1.254471e+00 -1.235398e+00 -1.148642e+00 -1.048736e+00 -9.871785e-01 -9.983953e-01 -1.070251e+00 -1.173837e+00 -1.246089e+00 -1.264538e+00 -1.205474e+00 -1.114429e+00 -1.010544e+00 -9.548747e-01 -9.305429e-01 -9.487432e-01 -9.444783e-01 -9.191500e-01 -8.236575e-01 -6.988469e-01 -5.364408e-01 -4.037193e-01 -3.053876e-01 -2.899681e-01 -3.289148e-01 -4.144764e-01 -4.828675e-01 -5.030909e-01 -4.380430e-01 -2.989293e-01 -1.246709e-01 3.939337e-02 1.425913e-01 1.929536e-01 1.876609e-01 1.840777e-01 1.686834e-01 1.747879e-01 1.474306e-01 1.079718e-01 1.121939e-02 -7.646301e-02 -1.533375e-01 -1.365256e-01 -5.102812e-02 1.194919e-01 2.930427e-01 4.430721e-01 5.082049e-01 5.038644e-01 4.407246e-01 3.668332e-01 3.142205e-01 3.065418e-01 3.463699e-01 4.152450e-01 4.944540e-01 5.637906e-01 6.050945e-01 6.256486e-01 6.264945e-01 6.296104e-01 6.217954e-01 6.202465e-01 
6.557922e-01 6.384537e-01 6.346601e-01 6.170720e-01 6.217318e-01 5.975063e-01 5.655919e-01 6.219064e-01 6.329184e-01 6.507404e-01 6.649536e-01 6.642326e-01 6.895306e-01 6.642105e-01 5.973093e-01 6.089478e-01 4.644350e-01 3.862231e-01 2.790788e-01 1.300441e-01 6.890739e-02 5.338978e-02 9.975897e-02 1.920051e-01 3.010507e-01 3.655865e-01 3.382698e-01 2.110840e-01 2.058830e-02 -1.616414e-01 -2.720190e-01 -2.668999e-01 -1.617749e-01 -1.330462e-03 1.296293e-01 1.811808e-01 1.314135e-01 2.308350e-02 -9.220399e-02 -1.574087e-01 -1.508721e-01 -9.258826e-02 -1.778159e-02 1.185880e-02 -2.072232e-02 -1.198175e-01 -2.341162e-01 -3.305597e-01 -3.511539e-01 -3.088629e-01 -1.964132e-01 -9.491735e-02 -2.543445e-02 -5.774350e-02 -1.567071e-01 -3.203377e-01 -4.635421e-01 -5.899954e-01 -6.679200e-01 -7.547296e-01 -8.599062e-01 -1.025323e+00 -1.216588e+00 -1.392748e+00 -1.482781e+00 -1.459025e+00 -1.339139e+00 -1.194296e+00 -1.105554e+00 -1.113727e+00 -1.212958e+00 -1.349602e+00 -1.448746e+00 -1.470022e+00 -1.395780e+00 -1.274569e+00 -1.144950e+00 -1.072817e+00 -1.048001e+00 -1.067937e+00 -1.059887e+00 -1.016701e+00 -8.894663e-01 -7.233530e-01 -5.148040e-01 -3.387158e-01 -2.091179e-01 -1.802520e-01 -2.227026e-01 -3.248146e-01 -4.076365e-01 -4.365770e-01 -3.590881e-01 -1.936904e-01 1.888791e-02 2.104149e-01 3.269703e-01 3.654313e-01 3.369498e-01 2.972681e-01 2.500931e-01 2.191064e-01 1.609820e-01 7.646866e-02 -6.691179e-02 -2.090251e-01 -3.228218e-01 -3.249220e-01 -2.257966e-01 -2.510509e-02 1.952247e-01 3.817427e-01 4.761530e-01 4.789480e-01 4.187603e-01 3.419981e-01 3.024426e-01 3.201234e-01 4.054154e-01 5.238177e-01 6.567942e-01 7.746732e-01 8.203002e-01 7.759428e-01 7.409014e-01 7.103243e-01 6.890996e-01 6.673910e-01 
6.477014e-01 6.283874e-01 6.108775e-01 5.938055e-01 5.839302e-01 5.591952e-01 4.845118e-01 5.649907e-01 5.554348e-01 5.969870e-01 6.092295e-01 6.417301e-01 6.577409e-01 6.548101e-01 6.504358e-01 6.445088e-01 6.233512e-01 5.923120e-01 5.812647e-01 5.305541e-01 5.198905e-01 5.055879e-01 4.708423e-01 4.268697e-01 3.807209e-01 3.414671e-01 3.407780e-01 3.556729e-01 4.065915e-01 4.332735e-01 4.539439e-01 4.143219e-01 3.595814e-01 2.665276e-01 1.969547e-01 1.380352e-01 1.311731e-01 1.422922e-01 1.793038e-01 2.013235e-01 2.207762e-01 2.077408e-01 1.993850e-01 1.832645e-01 1.959250e-01 2.158696e-01 2.507011e-01 2.634698e-01 2.559712e-01 1.961948e-01 1.215594e-01 2.523290e-02 -5.011607e-02 -1.255444e-01 -1.762556e-01 -2.367154e-01 -2.886324e-01 -3.704896e-01 -4.413091e-01 -5.207095e-01 -5.637531e-01 -6.101991e-01 -6.404176e-01 -7.025642e-01 -7.735842e-01 -8.807278e-01 -9.813614e-01 -1.080849e+00 -1.141448e+00 -1.174852e+00 -1.165632e+00 -1.144308e+00 -1.109993e+00 -1.103028e+00 -1.107319e+00 -1.130146e+00 -1.133269e+00 -1.110396e+00 -1.042491e+00 -9.423844e-01 -8.213269e-01 -7.091968e-01 -6.189570e-01 -5.571285e-01 -5.068094e-01 -4.459767e-01 -3.580050e-01 -2.292313e-01 -6.658427e-02 1.086426e-01 2.702795e-01 3.797055e-01 4.308880e-01 4.198907e-01 3.812722e-01 3.300172e-01 2.993894e-01 2.776601e-01 2.671839e-01 2.315934e-01 1.847113e-01 1.145012e-01 6.392878e-02 2.480585e-02 2.316673e-02 3.537642e-02 4.802599e-02 3.721298e-02 -1.050247e-02 -7.196102e-02 -1.321708e-01 -1.375316e-01 -9.542378e-02 2.716338e-02 1.677261e-01 3.526052e-01 5.004181e-01 6.635166e-01 7.642027e-01 8.777673e-01 9.333662e-01 1.015121e+00 9.930738e-01 8.883794e-01 8.083776e-01 7.526315e-01 7.065112e-01 6.757497e-01 
6.439005e-01 6.306836e-01 6.181072e-01 6.096768e-01 5.971727e-01 5.917347e-01 5.480728e-01 5.840720e-01 5.719140e-01 6.012642e-01 6.129888e-01 6.435547e-01 6.573379e-01 6.702354e-01 6.666554e-01 6.730955e-01 6.640453e-01 6.692720e-01 6.741566e-01 6.836628e-01 6.940996e-01 6.802303e-01 6.143981e-01 5.042036e-01 3.782496e-01 2.928210e-01 3.012727e-01 3.987149e-01 5.675890e-01 7.131384e-01 7.979897e-01 7.509515e-01 6.160976e-01 4.112857e-01 2.455782e-01 1.491430e-01 1.687409e-01 2.488457e-01 3.546912e-01 4.128485e-01 4.149587e-01 3.506941e-01 2.757358e-01 2.245178e-01 2.408251e-01 3.094783e-01 4.014174e-01 4.585697e-01 4.438778e-01 3.329361e-01 1.585197e-01 -3.554039e-02 -1.888636e-01 -2.798111e-01 -3.005429e-01 -2.942990e-01 -2.914738e-01 -3.373377e-01 -4.017359e-01 -4.772893e-01 -4.985669e-01 -4.874189e-01 -4.320322e-01 -4.182342e-01 -4.597871e-01 -6.118247e-01 -8.117855e-01 -1.021716e+00 -1.145193e+00 -1.168464e+00 -1.080921e+00 -9.528393e-01 -8.317228e-01 -7.900818e-01 -8.178895e-01 -8.958861e-01 -9.535537e-01 -9.476600e-01 -8.606529e-01 -7.148011e-01 -5.654925e-01 -4.522643e-01 -4.147692e-01 -4.331339e-01 -4.872181e-01 -5.104583e-01 -4.705619e-01 -3.249222e-01 -9.357846e-02 1.850533e-01 4.403324e-01 5.995964e-01 6.330260e-01 5.348708e-01 3.818392e-01 2.185830e-01 1.324317e-01 9.579361e-02 1.237289e-01 1.235134e-01 1.274015e-01 8.691499e-02 9.410459e-02 1.204142e-01 2.328765e-01 3.481980e-01 4.524209e-01 4.496261e-01 3.491417e-01 1.617552e-01 -3.131194e-02 -1.488711e-01 -1.524427e-01 -1.411286e-02 1.870957e-01 4.436250e-01 6.374555e-01 8.059604e-01 8.643786e-01 9.097055e-01 8.858249e-01 8.896421e-01 8.487194e-01 7.882085e-01 7.449052e-01 7.088400e-01 6.824022e-01 6.608733e-01 
5.950442e-01 5.943089e-01 5.783641e-01 5.823227e-01 5.635168e-01 5.742477e-01 5.475605e-01 5.694366e-01 5.519940e-01 5.741859e-01 5.697699e-01 5.881877e-01 5.897444e-01 5.972415e-01 6.005649e-01 5.998387e-01 6.067573e-01 6.042562e-01 6.144925e-01 6.131707e-01 6.210841e-01 6.077737e-01 5.844229e-01 5.294186e-01 4.821946e-01 4.363686e-01 4.443497e-01 4.715828e-01 5.448092e-01 5.903073e-01 6.285475e-01 5.940737e-01 5.409740e-01 4.409328e-01 3.745077e-01 3.203928e-01 3.314506e-01 3.523371e-01 3.995962e-01 4.104935e-01 4.099733e-01 3.646092e-01 3.239081e-01 2.774131e-01 2.681975e-01 2.689644e-01 2.914554e-01 2.905564e-01 2.725528e-01 2.051297e-01 1.192554e-01 1.146696e-02 -7.498251e-02 -1.477789e-01 -1.833549e-01 -2.153421e-01 -2.364713e-01 -2.843994e-01 -3.298338e-01 -3.954890e-01 -4.324833e-01 -4.725343e-01 -4.812348e-01 -5.183862e-01 -5.625138e-01 -6.613163e-01 -7.662378e-01 -8.811799e-01 -9.441464e-01 -9.675985e-01 -9.294130e-01 -8.776012e-01 -8.189282e-01 -7.938086e-01 -7.882710e-01 -8.021431e-01 -7.992071e-01 -7.690701e-01 -7.032141e-01 -6.156434e-01 -5.330520e-01 -4.692930e-01 -4.440986e-01 -4.391575e-01 -4.491183e-01 -4.350605e-01 -3.898426e-01 -2.889358e-01 -1.517238e-01 7.906167e-03 1.514567e-01 2.489858e-01 2.870730e-01 2.613037e-01 2.104057e-01 1.473153e-01 1.196156e-01 1.063139e-01 1.279248e-01 1.340487e-01 1.537396e-01 1.528992e-01 1.834137e-01 2.181680e-01 2.932891e-01 3.600008e-01 4.166640e-01 4.194580e-01 3.735176e-01 2.925869e-01 2.038093e-01 1.609878e-01 1.602665e-01 2.404048e-01 3.343282e-01 4.719140e-01 5.598950e-01 6.549832e-01 6.762828e-01 7.106753e-01 6.912305e-01 6.998165e-01 6.762455e-01 6.667000e-01 6.447698e-01 6.356220e-01 6.165692e-01 6.114397e-01 
