# vtk DataFile Version 2.0
Comment goes here
ASCII

DATASET STRUCTURED_POINTS
FIELD FieldData 1
TIME 1 1 double
0.01200000
DIMENSIONS    64   64   1

ORIGIN    0.000   0.000   0.000
SPACING   0.03125 0.03125   1.000

POINT_DATA   4096
SCALARS P double
LOOKUP_TABLE default

6.318809e+00 -7.325024e+01 8.708832e+00 -8.746464e+01 7.796640e+01 1.644045e+02 3.186672e+01 1.489248e+02 4.104830e+01 1.355872e+02 4.760802e+01 1.234738e+02 5.165489e+01 1.121721e+02 5.364639e+01 1.029879e+02 5.062660e+01 9.666571e+01 4.517790e+01 9.092890e+01 3.959776e+01 8.431412e+01 3.498264e+01 7.689672e+01 3.096731e+01 6.794008e+01 2.767919e+01 5.704115e+01 2.718571e+01 4.512770e+01 2.270171e+01 3.919738e+01 1.599531e+01 3.040360e+01 1.509454e+01 1.765858e+01 1.415532e+01 1.084319e+01 9.974309e+00 2.356320e-01 1.099990e+01 -1.115201e+01 9.290148e+00 -1.519850e+01 4.417020e-01 -1.694316e+01 -3.906176e+00 -2.540916e+01 1.023268e-01 -3.962155e+01 6.177136e+00 -5.291620e+01 1.268108e+01 -6.467565e+01 1.459239e+01 -6.851850e+01 9.894079e+00 -6.753670e+01 1.239046e+00 -6.228613e+01 -5.521903e+00 -6.149602e+01 -6.706784e+00 -7.121591e+01 
2.752977e+00 -7.560911e+01 2.318928e+00 -8.302608e+01 5.102945e+01 1.110581e+02 1.252582e+01 1.037610e+02 1.611114e+01 9.707363e+01 1.866190e+01 9.018245e+01 2.041120e+01 8.299274e+01 2.155691e+01 7.634056e+01 2.021413e+01 7.084986e+01 1.768673e+01 6.542308e+01 1.522810e+01 5.932331e+01 1.335230e+01 5.295522e+01 1.157695e+01 4.598961e+01 9.980718e+00 3.812315e+01 9.978061e+00 2.948119e+01 7.708996e+00 2.428068e+01 4.178094e+00 1.724526e+01 4.125494e+00 7.804728e+00 3.963466e+00 1.958567e+00 1.711493e+00 -6.274622e+00 2.609359e+00 -1.515286e+01 2.082347e+00 -1.993054e+01 -2.720648e+00 -2.325980e+01 -5.175208e+00 -3.032720e+01 -3.102198e+00 -4.050675e+01 2.158084e-02 -5.007180e+01 3.665645e+00 -5.889550e+01 4.989470e+00 -6.352497e+01 3.079114e+00 -6.593147e+01 -8.159343e-01 -6.581632e+01 -3.754964e+00 -6.791369e+01 -4.220687e+00 -7.548787e+01 
5.389723e-01 -8.819856e+01 -1.075030e-02 -9.225062e+01 1.511541e+01 9.096625e+01 9.989185e-01 8.720234e+01 9.853527e-01 8.313322e+01 1.017416e+00 7.839452e+01 1.228356e+00 7.297523e+01 1.605532e+00 6.710991e+01 1.614413e+00 6.105281e+01 1.417368e+00 5.478724e+01 1.182727e+00 4.833482e+01 9.695279e-01 4.196179e+01 5.987455e-01 3.565736e+01 7.188300e-02 2.929705e+01 -1.727870e-01 2.263938e+01 -8.406278e-01 1.661126e+01 -1.695189e+00 1.008666e+01 -1.736147e+00 2.971993e+00 -1.798511e+00 -3.345260e+00 -2.377938e+00 -1.027748e+01 -2.246347e+00 -1.739215e+01 -2.362657e+00 -2.371340e+01 -3.376961e+00 -2.972760e+01 -3.994381e+00 -3.645619e+01 -3.729342e+00 -4.374720e+01 -3.162282e+00 -5.078656e+01 -2.267209e+00 -5.754402e+01 -1.688730e+00 -6.356539e+01 -1.346346e+00 -6.938719e+01 -1.216777e+00 -7.453173e+01 -9.621988e-01 -7.984613e+01 -6.354954e-01 -8.574648e+01 
-2.940045e-01 -8.269582e+01 -3.289613e-02 -8.544747e+01 5.661361e-01 8.556229e+01 1.221675e+00 8.264494e+01 1.621935e+00 7.897565e+01 1.949341e+00 7.462518e+01 2.289786e+00 6.968654e+01 2.558829e+00 6.432742e+01 2.460475e+00 5.865432e+01 2.101418e+00 5.279748e+01 1.692006e+00 4.677549e+01 1.301192e+00 4.070835e+01 8.518667e-01 3.460002e+01 3.676821e-01 2.839407e+01 -3.304884e-02 2.207792e+01 -6.398828e-01 1.598159e+01 -1.291637e+00 9.625695e+00 -1.536561e+00 2.983936e+00 -1.728651e+00 -3.402670e+00 -2.095490e+00 -1.001162e+01 -2.226598e+00 -1.662879e+01 -2.547938e+00 -2.279255e+01 -3.309344e+00 -2.880305e+01 -3.812206e+00 -3.530609e+01 -3.668224e+00 -4.226406e+01 -3.084998e+00 -4.902560e+01 -2.258221e+00 -5.535679e+01 -1.689280e+00 -6.100682e+01 -1.459278e+00 -6.614778e+01 -1.458389e+00 -7.076719e+01 -1.353241e+00 -7.535415e+01 -9.610468e-01 -7.987886e+01 
7.386603e-02 -8.871353e+01 1.367118e-01 -9.214954e+01 4.787525e-01 9.086921e+01 7.693453e-01 8.741761e+01 9.322495e-01 8.323899e+01 1.097336e+00 7.846891e+01 1.319649e+00 7.318257e+01 1.534746e+00 6.745985e+01 1.496175e+00 6.129182e+01 1.284993e+00 5.497216e+01 1.037913e+00 4.857512e+01 7.645124e-01 4.218099e+01 4.123332e-01 3.579169e+01 2.238969e-03 2.935058e+01 -3.667638e-01 2.282424e+01 -8.282607e-01 1.637894e+01 -1.288482e+00 9.765105e+00 -1.519747e+00 2.984538e+00 -1.726437e+00 -3.661153e+00 -2.034641e+00 -1.043097e+01 -2.215329e+00 -1.721669e+01 -2.483914e+00 -2.378876e+01 -2.967265e+00 -3.031481e+01 -3.316128e+00 -3.712936e+01 -3.344914e+00 -4.419098e+01 -3.069891e+00 -5.092836e+01 -2.513740e+00 -5.736593e+01 -1.993154e+00 -6.343115e+01 -1.583815e+00 -6.921901e+01 -1.267061e+00 -7.466507e+01 -9.293489e-01 -7.993450e+01 -5.188760e-01 -8.490731e+01 
-3.072737e-01 -8.411831e+01 6.838019e-02 -8.738346e+01 5.750926e-01 8.717602e+01 1.036384e+00 8.380195e+01 1.434072e+00 7.981571e+01 1.795516e+00 7.531796e+01 2.138336e+00 7.039496e+01 2.389953e+00 6.509139e+01 2.259614e+00 5.911849e+01 1.891012e+00 5.310192e+01 1.523591e+00 4.702872e+01 1.143900e+00 4.091446e+01 7.160151e-01 3.475843e+01 2.674567e-01 2.851813e+01 -1.557431e-01 2.220419e+01 -6.046576e-01 1.587644e+01 -1.015992e+00 9.434366e+00 -1.299884e+00 2.904497e+00 -1.556932e+00 -3.582401e+00 -1.856553e+00 -1.009484e+01 -2.138007e+00 -1.656681e+01 -2.478540e+00 -2.292290e+01 -2.898557e+00 -2.928804e+01 -3.210815e+00 -3.591284e+01 -3.333388e+00 -4.287280e+01 -3.135958e+00 -4.924048e+01 -2.557174e+00 -5.527765e+01 -2.037670e+00 -6.094455e+01 -1.681668e+00 -6.625708e+01 -1.439237e+00 -7.123562e+01 -1.174607e+00 -7.598378e+01 -7.972374e-01 -8.040239e+01 
-1.656945e-01 -8.966148e+01 9.120467e-02 -9.349384e+01 4.094139e-01 9.217596e+01 6.545529e-01 8.834588e+01 8.761898e-01 8.392826e+01 1.119211e+00 7.905514e+01 1.414643e+00 7.382359e+01 1.710849e+00 6.824191e+01 1.559261e+00 6.167674e+01 1.194364e+00 5.523275e+01 9.224800e-01 4.881116e+01 6.399352e-01 4.239387e+01 2.843821e-01 3.597677e+01 -1.073825e-01 2.948891e+01 -4.681657e-01 2.292711e+01 -8.160033e-01 1.631668e+01 -1.107765e+00 9.611356e+00 -1.326799e+00 2.862667e+00 -1.551430e+00 -3.852884e+00 -1.819361e+00 -1.057054e+01 -2.096630e+00 -1.725478e+01 -2.389034e+00 -2.391069e+01 -2.690966e+00 -3.061640e+01 -2.953563e+00 -3.756202e+01 -3.252024e+00 -4.496765e+01 -3.267960e+00 -5.136595e+01 -2.727021e+00 -5.755764e+01 -2.184609e+00 -6.357674e+01 -1.728141e+00 -6.940019e+01 -1.339819e+00 -7.498532e+01 -9.670012e-01 -8.032205e+01 -5.756182e-01 -8.529459e+01 
-3.295257e-01 -8.600134e+01 6.291472e-02 -8.997339e+01 5.022319e-01 8.956411e+01 8.949380e-01 8.556059e+01 1.275047e+00 8.116041e+01 1.656680e+00 7.643267e+01 2.073272e+00 7.148588e+01 2.589027e+00 6.650167e+01 2.309855e+00 5.961799e+01 1.682370e+00 5.346217e+01 1.369558e+00 4.732286e+01 1.036565e+00 4.116051e+01 6.004258e-01 3.499950e+01 1.427463e-01 2.871555e+01 -2.523968e-01 2.234357e+01 -6.057019e-01 1.588774e+01 -8.642899e-01 9.332656e+00 -1.088607e+00 2.782401e+00 -1.341682e+00 -3.736496e+00 -1.635702e+00 -1.022079e+01 -1.991831e+00 -1.662182e+01 -2.329110e+00 -2.304427e+01 -2.595427e+00 -2.951511e+01 -2.796772e+00 -3.619415e+01 -3.296647e+00 -4.409559e+01 -3.589007e+00 -4.977407e+01 -2.798601e+00 -5.556421e+01 -2.220208e+00 -6.123604e+01 -1.789522e+00 -6.670380e+01 -1.444259e+00 -7.194166e+01 -1.111252e+00 -7.695004e+01 -7.407184e-01 -8.167051e+01 
-3.069321e-01 -9.114470e+01 -9.135861e-03 -9.559157e+01 2.927671e-01 9.427946e+01 5.405332e-01 8.986429e+01 7.925946e-01 8.507359e+01 1.086725e+00 8.000258e+01 1.502385e+00 7.482883e+01 2.286344e+00 7.001763e+01 1.885443e+00 6.193989e+01 1.021320e+00 5.547154e+01 8.229131e-01 4.904339e+01 5.910841e-01 4.260728e+01 1.867270e-01 3.623416e+01 -2.467251e-01 2.970219e+01 -5.808884e-01 2.307804e+01 -8.547475e-01 1.634803e+01 -9.889728e-01 9.499270e+00 -1.124324e+00 2.706884e+00 -1.331972e+00 -4.042100e+00 -1.595775e+00 -1.074289e+01 -1.971815e+00 -1.731973e+01 -2.284439e+00 -2.398189e+01 -2.453474e+00 -3.067712e+01 -2.547514e+00 -3.753331e+01 -3.352787e+00 -4.675353e+01 -4.084679e+00 -5.199460e+01 -2.946712e+00 -5.791917e+01 -2.287837e+00 -6.391889e+01 -1.801823e+00 -6.982192e+01 -1.394843e+00 -7.555563e+01 -1.020662e+00 -8.107244e+01 -6.567377e-01 -8.629861e+01 
-3.620022e-01 -8.823482e+01 6.303112e-03 -9.291835e+01 3.894936e-01 9.239827e+01 7.482893e-01 8.772241e+01 1.107254e+00 8.283446e+01 1.479758e+00 7.776798e+01 1.904492e+00 7.261788e+01 2.502186e+00 6.761681e+01 2.192082e+00 6.027170e+01 1.495564e+00 5.397282e+01 1.220450e+00 4.772725e+01 9.218590e-01 4.147936e+01 5.025854e-01 3.526066e+01 6.576968e-02 2.890912e+01 -2.900035e-01 2.246801e+01 -5.843118e-01 1.593022e+01 -7.679341e-01 9.300921e+00 -9.494068e-01 2.713076e+00 -1.185112e+00 -3.836495e+00 -1.467297e+00 -1.033740e+01 -1.833351e+00 -1.674671e+01 -2.150674e+00 -2.322657e+01 -2.354224e+00 -2.976110e+01 -2.509821e+00 -3.646650e+01 -3.158955e+00 -4.476652e+01 -3.680464e+00 -5.020613e+01 -2.824368e+00 -5.597119e+01 -2.251490e+00 -6.173261e+01 -1.810203e+00 -6.738221e+01 -1.437056e+00 -7.287986e+01 -1.086931e+00 -7.820664e+01 -7.307098e-01 -8.333437e+01 
-4.150396e-01 -9.301716e+01 -1.256036e-01 -9.811201e+01 1.532331e-01 9.682408e+01 4.057259e-01 9.176841e+01 6.609740e-01 8.650285e+01 9.349942e-01 8.104812e+01 1.236852e+00 7.542905e+01 1.517055e+00 6.957445e+01 1.336494e+00 6.272401e+01 9.559444e-01 5.607355e+01 6.866918e-01 4.949472e+01 4.205633e-01 4.293852e+01 1.033181e-01 3.638908e+01 -2.296838e-01 2.977307e+01 -5.200298e-01 2.308742e+01 -7.613023e-01 1.633190e+01 -9.427532e-01 9.521599e+00 -1.111596e+00 2.718830e+00 -1.311006e+00 -4.059664e+00 -1.548349e+00 -1.080855e+01 -1.823882e+00 -1.752803e+01 -2.084753e+00 -2.429438e+01 -2.300004e+00 -3.114714e+01 -2.527683e+00 -3.819029e+01 -2.919681e+00 -4.564993e+01 -3.080030e+00 -5.201393e+01 -2.666435e+00 -5.821968e+01 -2.210297e+00 -6.436088e+01 -1.792691e+00 -7.041341e+01 -1.414804e+00 -7.634161e+01 -1.063756e+00 -8.211063e+01 -7.302209e-01 -8.768080e+01 
-4.072992e-01 -9.067201e+01 -7.678786e-02 -9.603244e+01 2.545597e-01 9.544836e+01 5.887705e-01 9.010784e+01 9.204983e-01 8.469002e+01 1.252225e+00 7.917926e+01 1.577018e+00 7.355987e+01 1.831945e+00 6.773178e+01 1.689141e+00 6.114821e+01 1.335323e+00 5.467284e+01 1.039206e+00 4.826318e+01 7.395125e-01 4.187900e+01 3.994161e-01 3.549432e+01 5.261439e-02 2.904899e+01 -2.544923e-01 2.253834e+01 -5.132683e-01 1.596337e+01 -7.196228e-01 9.345443e+00 -9.165736e-01 2.736363e+00 -1.139036e+00 -3.848806e+00 -1.394170e+00 -1.040414e+01 -1.679379e+00 -1.693893e+01 -1.947116e+00 -2.351851e+01 -2.174631e+00 -3.018110e+01 -2.408182e+00 -3.700620e+01 -2.744898e+00 -4.410752e+01 -2.890596e+00 -5.035458e+01 -2.553098e+00 -5.639186e+01 -2.145553e+00 -6.234375e+01 -1.760537e+00 -6.821353e+01 -1.406651e+00 -7.398901e+01 -1.070698e+00 -7.966083e+01 -7.392760e-01 -8.522158e+01 
-5.086640e-01 -9.511926e+01 -2.452545e-01 -1.008417e+02 3.115194e-03 9.958110e+01 2.556349e-01 9.389404e+01 5.041366e-01 8.812686e+01 7.535256e-01 8.225867e+01 9.919477e-01 7.626119e+01 1.153867e+00 7.003984e+01 1.047454e+00 6.332885e+01 7.890704e-01 5.661088e+01 5.436774e-01 4.992871e+01 2.940344e-01 4.326916e+01 1.984274e-02 3.661039e+01 -2.587375e-01 2.991207e+01 -5.094867e-01 2.316418e+01 -7.228138e-01 1.636696e+01 -8.990267e-01 9.537691e+00 -1.067688e+00 2.710416e+00 -1.255259e+00 -4.101787e+00 -1.469436e+00 -1.089662e+01 -1.705063e+00 -1.768765e+01 -1.932979e+00 -2.452047e+01 -2.139587e+00 -3.142883e+01 -2.352490e+00 -3.845394e+01 -2.598388e+00 -4.557680e+01 -2.674430e+00 -5.218547e+01 -2.432848e+00 -5.858395e+01 -2.092410e+00 -6.489141e+01 -1.742006e+00 -7.112815e+01 -1.407046e+00 -7.728424e+01 -1.090540e+00 -8.334347e+01 -7.909229e-01 -8.929059e+01 
-4.606460e-01 -9.318605e+01 -1.730219e-01 -9.917562e+01 1.075496e-01 9.855116e+01 4.209432e-01 9.258288e+01 7.273266e-01 8.664514e+01 1.027820e+00 8.070307e+01 1.313263e+00 7.472068e+01 1.527975e+00 6.859860e+01 1.419818e+00 6.190608e+01 1.121746e+00 5.530699e+01 8.623786e-01 4.877425e+01 5.972621e-01 4.227632e+01 2.998089e-01 3.578635e+01 -4.641735e-04 2.925416e+01 -2.672614e-01 2.267320e+01 -4.929220e-01 1.604285e+01 -6.764385e-01 9.383600e+00 -8.569094e-01 2.735854e+00 -1.060195e+00 -3.891118e+00 -1.291743e+00 -1.049451e+01 -1.546787e+00 -1.708822e+01 -1.784628e+00 -2.372611e+01 -1.989647e+00 -3.043790e+01 -2.200004e+00 -3.728099e+01 -2.485472e+00 -4.432495e+01 -2.621295e+00 -5.069705e+01 -2.357600e+00 -5.689494e+01 -2.017055e+00 -6.303653e+01 -1.679394e+00 -6.913854e+01 -1.359029e+00 -7.520021e+01 -1.052533e+00 -8.122249e+01 -7.540051e-01 -8.721221e+01 
-5.925507e-01 -9.731685e+01 -3.627383e-01 -1.036260e+02 -1.501070e-01 1.023903e+02 9.861984e-02 9.611070e+01 3.390835e-01 8.985938e+01 5.775346e-01 8.360488e+01 8.159699e-01 7.732618e+01 1.041189e+00 7.099204e+01 9.240208e-01 6.393616e+01 6.139574e-01 5.711229e+01 4.063407e-01 5.034035e+01 1.919731e-01 4.359733e+01 -6.121812e-02 3.686968e+01 -3.160025e-01 3.010043e+01 -5.361342e-01 2.329070e+01 -7.198337e-01 1.643635e+01 -8.597221e-01 9.553610e+00 -1.003552e+00 2.687215e+00 -1.172758e+00 -4.161672e+00 -1.369912e+00 -1.099054e+01 -1.596548e+00 -1.780684e+01 -1.803187e+00 -2.467068e+01 -1.972286e+00 -3.159435e+01 -2.138885e+00 -3.862688e+01 -2.425633e+00 -4.603159e+01 -2.606789e+00 -5.255829e+01 -2.304768e+00 -5.903536e+01 -1.985894e+00 -6.549076e+01 -1.676033e+00 -7.192152e+01 -1.381451e+00 -7.832068e+01 -1.102737e+00 -8.468371e+01 -8.395644e-01 -9.101189e+01 
-5.168641e-01 -9.567333e+01 -2.741912e-01 -1.022377e+02 -4.406387e-02 1.015841e+02 2.497119e-01 9.503840e+01 5.326882e-01 8.861253e+01 8.124173e-01 8.227524e+01 1.111433e+00 7.603764e+01 1.521692e+00 7.003898e+01 1.359521e+00 6.256558e+01 8.728431e-01 5.587501e+01 6.926500e-01 4.925058e+01 4.879012e-01 4.266319e+01 2.010256e-01 3.611872e+01 -8.642012e-02 2.950802e+01 -3.203807e-01 2.285765e+01 -5.125776e-01 1.615362e+01 -6.322223e-01 9.411822e+00 -7.729324e-01 2.714423e+00 -9.526420e-01 -3.957595e+00 -1.166186e+00 -1.059735e+01 -1.434484e+00 -1.719525e+01 -1.655219e+00 -2.385964e+01 -1.799326e+00 -3.056358e+01 -1.913119e+00 -3.736194e+01 -2.343033e+00 -4.522516e+01 -2.780064e+00 -5.119723e+01 -2.245505e+00 -5.744962e+01 -1.887330e+00 -6.376726e+01 -1.581929e+00 -7.010246e+01 -1.299234e+00 -7.644840e+01 -1.029649e+00 -8.281251e+01 -7.691628e-01 -8.921172e+01 
-6.677544e-01 -9.950186e+01 -4.751454e-01 -1.063470e+02 -3.017428e-01 1.051299e+02 -6.050956e-02 9.830783e+01 1.684657e-01 9.160211e+01 3.952314e-01 8.498325e+01 6.438672e-01 7.846371e+01 1.002444e+00 7.217295e+01 8.569746e-01 6.452306e+01 4.241572e-01 5.760038e+01 2.747413e-01 5.074314e+01 1.060086e-01 4.392213e+01 -1.362342e-01 3.714372e+01 -3.787278e-01 3.030754e+01 -5.731255e-01 2.343846e+01 -7.306128e-01 1.652262e+01 -8.227918e-01 9.573270e+00 -9.356149e-01 2.664809e+00 -1.084830e+00 -4.221944e+00 -1.265553e+00 -1.108128e+01 -1.497673e+00 -1.790407e+01 -1.686824e+00 -2.478881e+01 -1.806013e+00 -3.170820e+01 -1.898102e+00 -3.871301e+01 -2.288112e+00 -4.670825e+01 -2.694124e+00 -5.296917e+01 -2.198665e+00 -5.950510e+01 -1.871855e+00 -6.611303e+01 -1.595784e+00 -7.274456e+01 -1.341626e+00 -7.939037e+01 -1.102516e+00 -8.605455e+01 -8.775155e-01 -9.275037e+01 
-5.720082e-01 -9.804969e+01 -3.746548e-01 -1.051304e+02 -1.946244e-01 1.044515e+02 7.890900e-02 9.738217e+01 3.339552e-01 9.049692e+01 5.731288e-01 8.374983e+01 7.978075e-01 7.710527e+01 9.965513e-01 7.051056e+01 9.213729e-01 6.341290e+01 6.877270e-01 5.655563e+01 5.181126e-01 4.978732e+01 3.354572e-01 4.307237e+01 1.165285e-01 3.639203e+01 -1.080890e-01 2.969597e+01 -3.080860e-01 2.298179e+01 -4.809875e-01 1.624352e+01 -6.206770e-01 9.491601e+00 -7.639376e-01 2.758873e+00 -9.266149e-01 -3.956837e+00 -1.109332e+00 -1.065616e+01 -1.311894e+00 -1.734703e+01 -1.493812e+00 -2.407771e+01 -1.639928e+00 -3.085874e+01 -1.781549e+00 -3.773616e+01 -2.024132e+00 -4.492041e+01 -2.182358e+00 -5.143603e+01 -1.951219e+00 -5.794376e+01 -1.704353e+00 -6.448075e+01 -1.462941e+00 -7.105453e+01 -1.228683e+00 -7.767613e+01 -1.001520e+00 -8.436364e+01 -7.820319e-01 -9.114303e+01 
-7.343159e-01 -1.015876e+02 -5.801744e-01 -1.089124e+02 -4.476062e-01 1.077053e+02 -2.174399e-01 1.003938e+02 -6.725655e-03 9.326081e+01 1.884270e-01 8.625932e+01 3.684111e-01 7.934803e+01 5.115284e-01 7.245456e+01 4.525266e-01 6.525186e+01 2.746786e-01 5.818593e+01 1.271614e-01 5.120085e+01 -2.790660e-02 4.426618e+01 -2.074972e-01 3.736168e+01 -3.908796e-01 3.045116e+01 -5.556414e-01 2.352845e+01 -6.982055e-01 1.658877e+01 -8.169896e-01 9.640820e+00 -9.376698e-01 2.706081e+00 -1.073738e+00 -4.215910e+00 -1.226536e+00 -1.112700e+01 -1.392924e+00 -1.803736e+01 -1.544675e+00 -2.498154e+01 -1.671109e+00 -3.197347e+01 -1.796836e+00 -3.905216e+01 -1.979722e+00 -4.630287e+01 -2.080018e+00 -5.312906e+01 -1.913680e+00 -5.990953e+01 -1.705242e+00 -6.671263e+01 -1.494404e+00 -7.355231e+01 -1.288970e+00 -8.043954e+01 -1.091962e+00 -8.739049e+01 -9.060654e-01 -9.442875e+01 
-6.232925e-01 -1.002467e+02 -4.697498e-01 -1.077828e+02 -3.374305e-01 1.070804e+02 -8.397621e-02 9.954681e+01 1.434645e-01 9.224639e+01 3.434488e-01 8.512255e+01 5.081512e-01 7.811954e+01 6.127626e-01 7.116480e+01 5.886351e-01 6.413039e+01 4.775361e-01 5.717072e+01 3.474266e-01 5.028522e+01 1.983661e-01 4.345690e+01 2.947833e-02 3.666637e+01 -1.462428e-01 2.988965e+01 -3.140842e-01 2.311603e+01 -4.687628e-01 1.634012e+01 -6.101059e-01 9.565017e+00 -7.499810e-01 2.799197e+00 -8.967359e-01 -3.957858e+00 -1.051484e+00 -1.071056e+01 -1.209957e+00 -1.747001e+01 -1.357948e+00 -2.425741e+01 -1.488416e+00 -3.108630e+01 -1.609303e+00 -3.797175e+01 -1.729013e+00 -4.491210e+01 -1.772488e+00 -5.168144e+01 -1.673476e+00 -5.840915e+01 -1.516825e+00 -6.515731e+01 -1.338692e+00 -7.195781e+01 -1.154056e+00 -7.883613e+01 -9.701684e-01 -8.582000e+01 -7.917804e-01 -9.294299e+01 
-7.920117e-01 -1.035043e+02 -6.754480e-01 -1.112490e+02 -5.826895e-01 1.100452e+02 -3.653657e-01 1.023042e+02 -1.741369e-01 9.479012e+01 -9.044149e-03 8.744700e+01 1.235796e-01 8.022075e+01 2.027629e-01 7.304655e+01 1.832986e-01 6.583947e+01 9.507033e-02 5.869145e+01 -1.394016e-02 5.160900e+01 -1.386649e-01 4.457919e+01 -2.781280e-01 3.758507e+01 -4.226072e-01 3.060731e+01 -5.610359e-01 2.363563e+01 -6.890577e-01 1.666480e+01 -8.071592e-01 9.696232e+00 -9.240177e-01 2.734820e+00 -1.046243e+00 -4.220542e+00 -1.174807e+00 -1.117453e+01 -1.305794e+00 -1.813736e+01 -1.428720e+00 -2.512562e+01 -1.538005e+00 -3.215105e+01 -1.637924e+00 -3.922343e+01 -1.728563e+00 -4.632910e+01 -1.754951e+00 -5.332594e+01 -1.675028e+00 -6.029014e+01 -1.542804e+00 -6.727519e+01 -1.389732e+00 -7.431158e+01 -1.230966e+00 -8.142351e+01 -1.074749e+00 -8.863703e+01 -9.267817e-01 -9.598392e+01 
-6.688025e-01 -1.022089e+02 -5.557793e-01 -1.101375e+02 -4.668183e-01 1.094143e+02 -2.319331e-01 1.014809e+02 -2.812457e-02 9.382162e+01 1.422156e-01 8.637678e+01 2.718094e-01 7.908980e+01 3.460708e-01 7.190430e+01 3.458489e-01 6.477080e+01 2.869764e-01 5.771124e+01 1.950539e-01 5.072574e+01 7.999459e-02 4.380269e+01 -5.213850e-02 3.692634e+01 -1.928241e-01 3.008022e+01 -3.335009e-01 2.325281e+01 -4.695440e-01 1.643691e+01 -6.001822e-01 9.629815e+00 -7.289818e-01 2.830793e+00 -8.590899e-01 -3.963507e+00 -9.904798e-01 -1.075921e+01 -1.119722e+00 -1.756590e+01 -1.240134e+00 -2.439582e+01 -1.346515e+00 -3.125800e+01 -1.436515e+00 -3.815596e+01 -1.502397e+00 -4.507618e+01 -1.515014e+00 -5.196430e+01 -1.457637e+00 -5.885259e+01 -1.353577e+00 -6.578069e+01 -1.223891e+00 -7.278235e+01 -1.082457e+00 -7.988928e+01 -9.383844e-01 -8.713545e+01 -7.984697e-01 -9.455992e+01 
-8.405625e-01 -1.051964e+02 -7.588518e-01 -1.132987e+02 -7.026787e-01 1.120947e+02 -4.981956e-01 1.039886e+02 -3.240727e-01 9.614980e+01 -1.811964e-01 8.851993e+01 -7.474771e-02 8.104514e+01 -1.554898e-02 7.367448e+01 -1.581359e-02 6.636726e+01 -6.368641e-02 5.913127e+01 -1.400535e-01 5.196439e+01 -2.357252e-01 4.485592e+01 -3.450027e-01 3.779172e+01 -4.610294e-01 3.075738e+01 -5.771347e-01 2.374222e+01 -6.896341e-01 1.673924e+01 -7.980091e-01 9.745003e+00 -9.048829e-01 2.757569e+00 -1.012649e+00 -4.226775e+00 -1.121229e+00 -1.121396e+01 -1.227741e+00 -1.821256e+01 -1.326909e+00 -2.523277e+01 -1.414258e+00 -3.228225e+01 -1.486760e+00 -3.936337e+01 -1.536609e+00 -4.646470e+01 -1.542355e+00 -5.355233e+01 -1.492867e+00 -6.064825e+01 -1.404282e+00 -6.778547e+01 -1.293880e+00 -7.499453e+01 -1.174272e+00 -8.230506e+01 -1.054376e+00 -8.974925e+01 -9.411037e-01 -9.736465e+01 
-7.072066e-01 -1.038914e+02 -6.301299e-01 -1.121483e+02 -5.789914e-01 1.114080e+02 -3.604118e-01 1.031414e+02 -1.754588e-01 9.518358e+01 -2.579347e-02 8.747493e+01 8.419575e-02 7.996112e+01 1.478536e-01 7.259409e+01 1.602355e-01 6.533719e+01 1.285645e-01 5.817748e+01 6.478136e-02 5.110351e+01 -2.242548e-02 4.410134e+01 -1.262815e-01 3.715573e+01 -2.401295e-01 3.025202e+01 -3.579691e-01 2.337822e+01 -4.758300e-01 1.652528e+01 -5.920156e-01 9.686821e+00 -7.067716e-01 2.857671e+00 -8.204728e-01 -3.968010e+00 -9.321370e-01 -1.079739e+01 -1.038993e+00 -1.763914e+01 -1.136771e+00 -2.450244e+01 -1.221010e+00 -3.139461e+01 -1.287113e+00 -3.831904e+01 -1.327692e+00 -4.527222e+01 -1.330893e+00 -5.224525e+01 -1.291920e+00 -5.925496e+01 -1.219224e+00 -6.632966e+01 -1.124424e+00 -7.350093e+01 -1.017873e+00 -8.080256e+01 -9.080546e-01 -8.827195e+01 -8.022215e-01 -9.595175e+01 
-8.796702e-01 -1.066192e+02 -8.288356e-01 -1.150157e+02 -8.047030e-01 1.138096e+02 -6.121151e-01 1.054047e+02 -4.519198e-01 9.730059e+01 -3.244007e-01 8.943875e+01 -2.321705e-01 8.176703e+01 -1.795564e-01 7.424018e+01 -1.691854e-01 6.682385e+01 -1.951578e-01 5.950182e+01 -2.480210e-01 5.226115e+01 -3.203270e-01 4.508806e+01 -4.062002e-01 3.796824e+01 -5.001392e-01 3.088821e+01 -5.973168e-01 2.383676e+01 -6.945294e-01 1.680523e+01 -7.903974e-01 9.787178e+00 -8.850135e-01 2.777236e+00 -9.785808e-01 -4.230365e+00 -1.070236e+00 -1.124236e+01 -1.157666e+00 -1.826657e+01 -1.237352e+00 -2.531105e+01 -1.305461e+00 -3.238234e+01 -1.357812e+00 -3.948380e+01 -1.388121e+00 -4.661391e+01 -1.387567e+00 -5.376914e+01 -1.352969e+00 -6.096399e+01 -1.290838e+00 -6.822323e+01 -1.210868e+00 -7.557562e+01 -1.122272e+00 -8.305280e+01 -1.032978e+00 -9.069043e+01 -9.499341e-01 -9.852976e+01 
-7.375399e-01 -1.052584e+02 -6.911533e-01 -1.137788e+02 -6.718420e-01 1.130243e+02 -4.672571e-01 1.044916e+02 -2.971054e-01 9.629614e+01 -1.618655e-01 8.837871e+01 -6.338266e-02 8.068666e+01 -3.976348e-03 7.317456e+01 1.584750e-02 6.580644e+01 3.716407e-04 5.855779e+01 -4.359096e-02 5.140921e+01 -1.095147e-01 4.434310e+01 -1.915559e-01 3.734296e+01 -2.843050e-01 3.039380e+01 -3.830330e-01 2.348278e+01 -4.841984e-01 1.659929e+01 -5.855721e-01 9.734594e+00 -6.859440e-01 2.881025e+00 -7.843132e-01 -3.969020e+00 -8.791204e-01 -1.082358e+01 -9.679136e-01 -1.769124e+01 -1.047428e+00 -2.458061e+01 -1.113966e+00 -3.149944e+01 -1.163421e+00 -3.845382e+01 -1.190828e+00 -4.544828e+01 -1.191044e+00 -5.248876e+01 -1.162779e+00 -5.959160e+01 -1.110288e+00 -6.678160e+01 -1.040611e+00 -7.408893e+01 -9.613436e-01 -8.154813e+01 -8.797746e-01 -8.919844e+01 -8.028595e-01 -9.708471e+01 
-9.090277e-01 -1.077383e+02 -8.844387e-01 -1.163643e+02 -8.872339e-01 1.151543e+02 -7.054157e-01 1.065174e+02 -5.565302e-01 9.820769e+01 -4.399032e-01 9.016704e+01 -3.560625e-01 8.234424e+01 -3.059543e-01 7.469551e+01 -2.891362e-01 6.718601e+01 -3.017735e-01 5.979075e+01 -3.381592e-01 5.249006e+01 -3.927246e-01 4.526665e+01 -4.604814e-01 3.810477e+01 -5.369101e-01 3.099036e+01 -6.181281e-01 2.391138e+01 -7.012360e-01 1.685780e+01 -7.843949e-01 9.821303e+00 -8.665646e-01 2.794518e+00 -9.468715e-01 -4.229721e+00 -1.024000e+00 -1.125884e+01 -1.095910e+00 -1.830063e+01 -1.159893e+00 -2.536285e+01 -1.212837e+00 -3.245261e+01 -1.251272e+00 -3.957591e+01 -1.271181e+00 -4.673795e+01 -1.268754e+00 -5.394586e+01 -1.243308e+00 -6.121488e+01 -1.198480e+00 -6.856763e+01 -1.140356e+00 -7.603206e+01 -1.075729e+00 -8.364070e+01 -1.011303e+00 -9.143111e+01 -9.535751e-01 -9.944680e+01 
-7.590792e-01 -1.062825e+02 -7.379219e-01 -1.150006e+02 -7.444495e-01 1.142333e+02 -5.519445e-01 1.055017e+02 -3.936819e-01 9.712895e+01 -2.690450e-01 8.905639e+01 -1.781235e-01 8.123204e+01 -1.210096e-01 7.361096e+01 -9.663716e-02 6.615600e+01 -1.018124e-01 5.883773e+01 -1.319248e-01 5.163213e+01 -1.820432e-01 4.451860e+01 -2.473948e-01 3.747898e+01 -3.235174e-01 3.049731e+01 -4.064551e-01 2.355975e+01 -4.929818e-01 1.665447e+01 -5.806522e-01 9.771213e+00 -6.676208e-01 2.900758e+00 -7.522472e-01 -3.965696e+00 -8.326977e-01 -1.083694e+01 -9.067286e-01 -1.772193e+01 -9.716837e-01 -2.462968e+01 -1.024638e+00 -3.156904e+01 -1.062519e+00 -3.854880e+01 -1.082278e+00 -4.557832e+01 -1.081618e+00 -5.266967e+01 -1.060528e+00 -5.984087e+01 -1.021861e+00 -6.711618e+01 -9.704658e-01 -7.452538e+01 -9.121705e-01 -8.210336e+01 -8.531803e-01 -8.989034e+01 -7.999104e-01 -9.793245e+01 
-9.283404e-01 -1.085277e+02 -9.251678e-01 -1.173178e+02 -9.496898e-01 1.161007e+02 -7.777835e-01 1.072987e+02 -6.385043e-01 9.884308e+01 -5.302983e-01 9.067596e+01 -4.522940e-01 8.274652e+01 -4.037261e-01 7.501107e+01 -3.830331e-01 6.743343e+01 -3.871702e-01 5.998471e+01 -4.120869e-01 5.264134e+01 -4.535190e-01 4.538340e+01 -5.073857e-01 3.819361e+01 -5.699320e-01 3.105695e+01 -6.378736e-01 2.396052e+01 -7.085482e-01 1.689328e+01 -7.799370e-01 9.845689e+00 -8.505063e-01 2.809181e+00 -9.188908e-01 -4.224336e+00 -9.835745e-01 -1.126287e+01 -1.042713e+00 -1.831450e+01 -1.094127e+00 -2.538737e+01 -1.135417e+00 -3.248963e+01 -1.164092e+00 -3.962952e+01 -1.177779e+00 -4.681618e+01 -1.174859e+00 -5.406140e+01 -1.155616e+00 -6.138204e+01 -1.122668e+00 -6.880062e+01 -1.080359e+00 -7.634497e+01 -1.033960e+00 -8.404809e+01 -9.891612e-01 -9.194856e+01 -9.518870e-01 -1.000912e+02 
-7.712851e-01 -1.069433e+02 -7.699973e-01 -1.157932e+02 -7.966220e-01 1.150121e+02 -6.148574e-01 1.061486e+02 -4.666375e-01 9.765873e+01 -3.504838e-01 8.948412e+01 -2.653602e-01 8.157308e+01 -2.101978e-01 7.388056e+01 -1.832883e-01 6.636834e+01 -1.818930e-01 5.900456e+01 -2.024648e-01 5.176262e+01 -2.411049e-01 4.461987e+01 -2.938906e-01 3.755681e+01 -3.570712e-01 3.055652e+01 -4.272275e-01 2.360434e+01 -5.013983e-01 1.668755e+01 -5.771079e-01 9.794951e+00 -6.522692e-01 2.916375e+00 -7.249873e-01 -3.957744e+00 -7.933538e-01 -1.083677e+01 -8.553230e-01 -1.773012e+01 -9.087037e-01 -2.464739e+01 -9.512478e-01 -3.159853e+01 -9.808047e-01 -3.859422e+01 -9.955801e-01 -4.564665e+01 -9.946291e-01 -5.277082e+01 -9.785071e-01 -5.998617e+01 -9.495166e-01 -6.731725e+01 -9.114084e-01 -7.479382e+01 -8.689157e-01 -8.245093e+01 -8.274087e-01 -9.032926e+01 -7.927454e-01 -9.847557e+01 
-9.373570e-01 -1.089693e+02 -9.508569e-01 -1.178578e+02 -9.920719e-01 1.166288e+02 -8.296719e-01 1.077285e+02 -6.991502e-01 9.918632e+01 -5.982570e-01 9.094483e+01 -5.252294e-01 8.295325e+01 -4.784102e-01 7.516774e+01 -4.557710e-01 6.755117e+01 -4.546146e-01 6.007273e+01 -4.717161e-01 5.270676e+01 -5.036503e-01 4.543167e+01 -5.470422e-01 3.822906e+01 -5.987208e-01 3.108315e+01 -6.558341e-01 2.398038e+01 -7.159340e-01 1.690905e+01 -7.769839e-01 9.858924e+00 -8.372713e-01 2.820766e+00 -8.952470e-01 -4.214062e+00 -9.493590e-01 -1.125395e+01 -9.979526e-01 -1.830732e+01 -1.039265e+00 -2.538275e+01 -1.071507e+00 -3.248924e+01 -1.093004e+00 -3.963657e+01 -1.102439e+00 -4.683606e+01 -1.099269e+00 -5.410173e+01 -1.084222e+00 -6.145161e+01 -1.059498e+00 -6.890848e+01 -1.028546e+00 -7.650020e+01 -9.956988e-01 -8.425992e+01 -9.658869e-01 -9.222661e+01 -9.444939e-01 -1.004456e+02 
-7.737840e-01 -1.072277e+02 -7.872648e-01 -1.161432e+02 -8.285865e-01 1.153452e+02 -6.568083e-01 1.064167e+02 -5.176317e-01 9.786958e+01 -4.089487e-01 8.964587e+01 -3.290185e-01 8.169398e+01 -2.761462e-01 7.396877e+01 -2.483304e-01 6.643143e+01 -2.430543e-01 5.904897e+01 -2.573393e-01 5.179346e+01 -2.879402e-01 4.464112e+01 -3.315419e-01 3.757162e+01 -3.849129e-01 3.056743e+01 -4.450285e-01 2.361341e+01 -5.091570e-01 1.669635e+01 -5.748857e-01 9.804559e+00 -6.400791e-01 2.927421e+00 -7.027854e-01 -3.945026e+00 -7.611369e-01 -1.082246e+01 -8.132907e-01 -1.771459e+01 -8.574352e-01 -2.463144e+01 -8.918655e-01 -3.158369e+01 -9.151227e-01 -3.858315e+01 -9.262106e-01 -4.564345e+01 -9.248993e-01 -5.278104e+01 -9.120378e-01 -6.001616e+01 -8.896812e-01 -6.737353e+01 -8.609845e-01 -7.488285e+01 -8.299917e-01 -8.257908e+01 -8.014521e-01 -9.050291e+01 -7.807266e-01 -9.870124e+01 
-9.358996e-01 -1.090525e+02 -9.615652e-01 -1.179734e+02 -1.014722e+00 1.167260e+02 -8.619034e-01 1.077939e+02 -7.399739e-01 9.922469e+01 -6.461662e-01 9.096086e+01 -5.781537e-01 8.295194e+01 -5.337942e-01 7.515407e+01 -5.108460e-01 6.752982e+01 -5.067961e-01 6.004758e+01 -5.188807e-01 5.268080e+01 -5.442169e-01 4.540711e+01 -5.799417e-01 3.820756e+01 -6.233219e-01 3.106602e+01 -6.718383e-01 2.396867e+01 -7.232410e-01 1.690353e+01 -7.755587e-01 9.860111e+00 -8.270579e-01 2.828934e+00 -8.761644e-01 -4.198829e+00 -9.213830e-01 -1.123171e+01 -9.612511e-01 -1.827824e+01 -9.943479e-01 -2.534725e+01 -1.019364e+00 -3.244821e+01 -1.035227e+00 -3.959170e+01 -1.041293e+00 -4.679004e+01 -1.037602e+00 -5.405821e+01 -1.025121e+00 -6.141473e+01 -1.005854e+00 -6.888240e+01 -9.827558e-01 -7.648882e+01 -9.595674e-01 -8.426692e+01 -9.406601e-01 -9.225552e+01 -9.309513e-01 -1.004999e+02 
-7.663673e-01 -1.071292e+02 -7.898370e-01 -1.160440e+02 -8.408143e-01 1.152243e+02 -6.787769e-01 1.062975e+02 -5.482672e-01 9.775298e+01 -4.467442e-01 8.953302e+01 -3.720372e-01 8.158627e+01 -3.221120e-01 7.386780e+01 -2.948317e-01 6.633873e+01 -2.878110e-01 5.896579e+01 -2.984035e-01 5.172065e+01 -3.237816e-01 4.457919e+01 -3.610471e-01 3.752085e+01 -4.073381e-01 3.052797e+01 -4.599207e-01 2.358536e+01 -5.162559e-01 1.667976e+01 -5.740299e-01 9.799410e+00 -6.311467e-01 2.933667e+00 -6.856919e-01 -3.927447e+00 -7.358941e-01 -1.079360e+01 -7.801058e-01 -1.767451e+01 -8.168255e-01 -2.458029e+01 -8.447641e-01 -3.152186e+01 -8.629580e-01 -3.851145e+01 -8.709257e-01 -4.556325e+01 -8.688537e-01 -5.269412e+01 -8.577627e-01 -5.992443e+01 -8.395821e-01 -6.727874e+01 -8.171162e-01 -7.478631e+01 -7.939521e-01 -8.248166e+01 -7.743729e-01 -9.040507e+01 -7.633133e-01 -9.860311e+01 