# vtk DataFile Version 2.0
Comment goes here
ASCII

DATASET STRUCTURED_POINTS
FIELD FieldData 1
TIME 1 1 double
0.05600000
DIMENSIONS    64   64   1

ORIGIN    0.000   0.000   0.000
SPACING   0.03125 0.03125   1.000

POINT_DATA   4096
SCALARS P double
LOOKUP_TABLE default

-3.765063e+01 -1.995720e+02 -2.541196e+01 -2.098090e+02 8.030809e+01 1.259144e+02 -2.574544e+01 1.219675e+02 -3.405851e+01 1.148286e+02 -3.825978e+01 1.045102e+02 -4.041799e+01 9.391505e+01 -3.683335e+01 7.631495e+01 -2.929955e+01 5.788334e+01 -2.249692e+01 4.002930e+01 -1.763744e+01 2.434853e+01 -1.498428e+01 1.075542e+01 -1.485004e+01 -2.068944e-01 -1.771828e+01 -6.684463e+00 -2.545009e+01 -8.668301e+00 -3.421292e+01 -1.367757e+01 -3.710824e+01 -2.585083e+01 -3.503234e+01 -3.958909e+01 -3.703093e+01 -4.752104e+01 -4.460415e+01 -5.416732e+01 -5.123657e+01 -6.201625e+01 -5.621198e+01 -7.260338e+01 -5.868350e+01 -8.488976e+01 -6.042736e+01 -9.707884e+01 -6.380117e+01 -1.040739e+02 -7.285024e+01 -1.055774e+02 -8.168136e+01 -1.123968e+02 -8.106477e+01 -1.280282e+02 -7.242045e+01 -1.493250e+02 -5.834293e+01 -1.722906e+02 -4.542214e+01 -1.905110e+02 -3.709888e+01 -2.012510e+02 
-9.689548e+00 -1.293251e+02 -2.266649e+00 -1.371927e+02 7.606136e+01 1.128682e+02 -2.884479e+00 1.088720e+02 -8.003996e+00 1.030782e+02 -1.059013e+01 9.556182e+01 -1.239404e+01 8.826332e+01 -1.119789e+01 7.690932e+01 -8.159337e+00 6.537368e+01 -5.725502e+00 5.379115e+01 -3.977854e+00 4.322642e+01 -3.059522e+00 3.342096e+01 -2.980518e+00 2.446642e+01 -4.047320e+00 1.761802e+01 -7.457843e+00 1.323412e+01 -1.136630e+01 7.398204e+00 -1.214863e+01 -2.267756e+00 -1.013445e+01 -1.272270e+01 -1.049850e+01 -1.979718e+01 -1.393692e+01 -2.634397e+01 -1.682695e+01 -3.352322e+01 -1.904158e+01 -4.210666e+01 -2.000369e+01 -5.147004e+01 -2.049025e+01 -6.081966e+01 -2.163844e+01 -6.732447e+01 -2.581987e+01 -7.052306e+01 -3.013091e+01 -7.631217e+01 -2.969093e+01 -8.631272e+01 -2.554375e+01 -9.880250e+01 -1.873086e+01 -1.120129e+02 -1.250440e+01 -1.226597e+02 -8.484325e+00 -1.296590e+02 
6.706656e+00 -8.810303e+01 8.895173e+00 -9.192131e+01 3.484569e+01 1.011349e+02 8.506199e+00 9.788624e+01 6.671534e+00 9.342072e+01 5.539760e+00 8.802145e+01 4.487910e+00 8.242681e+01 3.971684e+00 7.566952e+01 3.673176e+00 6.878563e+01 3.276536e+00 6.153070e+01 3.079343e+00 5.428581e+01 2.945531e+00 4.693337e+01 2.827832e+00 3.938734e+01 2.683426e+00 3.204481e+01 2.217725e+00 2.521566e+01 1.680211e+00 1.828969e+01 1.709473e+00 1.075105e+01 2.341508e+00 3.123522e+00 2.492316e+00 -3.759923e+00 2.024552e+00 -1.068402e+01 1.691525e+00 -1.777544e+01 1.420418e+00 -2.504378e+01 1.421480e+00 -3.231431e+01 1.655814e+00 -3.949520e+01 1.977263e+00 -4.606716e+01 1.904724e+00 -5.183013e+01 1.689701e+00 -5.780804e+01 2.084747e+00 -6.406980e+01 2.867389e+00 -7.026812e+01 4.092761e+00 -7.624403e+01 5.374243e+00 -8.149087e+01 6.509303e+00 -8.594209e+01 
6.746960e+00 -9.128106e+01 9.183548e+00 -9.482414e+01 1.154424e+01 1.030642e+02 8.902837e+00 9.938579e+01 6.664535e+00 9.462251e+01 5.193733e+00 8.907951e+01 4.211249e+00 8.303765e+01 3.742833e+00 7.617463e+01 3.400619e+00 6.910297e+01 3.010086e+00 6.157436e+01 2.842205e+00 5.405102e+01 2.700472e+00 4.655410e+01 2.568086e+00 3.906613e+01 2.360982e+00 3.179536e+01 1.996174e+00 2.485657e+01 1.716406e+00 1.785521e+01 1.870729e+00 1.046880e+01 2.361810e+00 3.015935e+00 2.523169e+00 -4.066315e+00 2.217324e+00 -1.109432e+01 1.781013e+00 -1.826147e+01 1.321876e+00 -2.558166e+01 9.843029e-01 -3.287776e+01 7.847095e-01 -3.996007e+01 6.091561e-01 -4.648509e+01 3.524482e-01 -5.254114e+01 1.964323e-01 -5.868411e+01 5.313918e-01 -6.508351e+01 1.425403e+00 -7.155928e+01 2.799308e+00 -7.781028e+01 4.311719e+00 -8.339226e+01 5.701928e+00 -8.799260e+01 
6.950516e+00 -8.968450e+01 8.797673e+00 -9.322587e+01 1.095042e+01 1.012802e+02 8.682488e+00 9.770810e+01 6.925139e+00 9.315902e+01 5.721218e+00 8.787132e+01 4.877854e+00 8.206551e+01 4.354638e+00 7.555879e+01 3.739852e+00 6.877335e+01 3.237580e+00 6.152883e+01 2.992381e+00 5.427817e+01 2.797919e+00 4.699606e+01 2.605467e+00 3.964723e+01 2.318687e+00 3.233497e+01 1.970625e+00 2.522375e+01 1.744722e+00 1.813909e+01 1.814717e+00 1.088624e+01 2.080806e+00 3.611235e+00 2.184584e+00 -3.465718e+00 2.023858e+00 -1.053280e+01 1.749278e+00 -1.772555e+01 1.449187e+00 -2.500700e+01 1.269746e+00 -3.222290e+01 1.276883e+00 -3.928795e+01 1.416524e+00 -4.594639e+01 1.747703e+00 -5.216968e+01 1.972297e+00 -5.831544e+01 2.325588e+00 -6.445223e+01 2.942350e+00 -7.048567e+01 3.835082e+00 -7.625320e+01 4.867794e+00 -8.150822e+01 5.940766e+00 -8.610278e+01 
6.422339e+00 -9.289595e+01 8.267052e+00 -9.676335e+01 9.978408e+00 1.026578e+02 8.277429e+00 9.894317e+01 6.557382e+00 9.423955e+01 5.273076e+00 8.881512e+01 4.465769e+00 8.283418e+01 4.086318e+00 7.609316e+01 3.682105e+00 6.919027e+01 2.971513e+00 6.155224e+01 2.695378e+00 5.412707e+01 2.510125e+00 4.678915e+01 2.336683e+00 3.940650e+01 2.050899e+00 3.202605e+01 1.747170e+00 2.486907e+01 1.631009e+00 1.780329e+01 1.795392e+00 1.061949e+01 2.061282e+00 3.402424e+00 2.185608e+00 -3.716850e+00 2.058371e+00 -1.083281e+01 1.684921e+00 -1.813421e+01 1.208419e+00 -2.553893e+01 7.636145e-01 -3.282201e+01 4.404823e-01 -3.996812e+01 2.467947e-01 -4.666592e+01 4.474909e-01 -5.311752e+01 6.367698e-01 -5.939388e+01 9.509042e-01 -6.567242e+01 1.633330e+00 -7.194430e+01 2.646937e+00 -7.801305e+01 3.842278e+00 -8.362833e+01 5.110492e+00 -8.860933e+01 
6.480585e+00 -9.207606e+01 7.929217e+00 -9.635186e+01 9.452899e+00 1.019390e+02 8.026601e+00 9.798795e+01 6.618176e+00 9.333827e+01 5.546920e+00 8.809013e+01 4.848078e+00 8.233545e+01 4.481419e+00 7.596140e+01 3.903917e+00 6.858489e+01 3.134790e+00 6.139544e+01 2.872227e+00 5.422702e+01 2.673979e+00 4.710380e+01 2.483178e+00 3.984572e+01 2.067936e+00 3.242398e+01 1.672184e+00 2.522216e+01 1.562956e+00 1.818746e+01 1.746889e+00 1.105853e+01 1.981654e+00 3.884133e+00 2.136448e+00 -3.214641e+00 2.117870e+00 -1.028460e+01 1.815086e+00 -1.758575e+01 1.399241e+00 -2.501497e+01 1.040460e+00 -3.229542e+01 8.859638e-01 -3.961249e+01 8.552389e-01 -4.665089e+01 1.625595e+00 -5.261681e+01 1.988876e+00 -5.873207e+01 2.257788e+00 -6.488721e+01 2.783272e+00 -7.099375e+01 3.518064e+00 -7.688656e+01 4.394518e+00 -8.241918e+01 5.378419e+00 -8.749647e+01 
5.617621e+00 -9.520264e+01 7.005176e+00 -9.987126e+01 8.310459e+00 1.034957e+02 7.188826e+00 9.923686e+01 5.941381e+00 9.436069e+01 4.876207e+00 8.892085e+01 4.112265e+00 8.311742e+01 3.815619e+00 7.741035e+01 4.533717e+00 6.837503e+01 2.826638e+00 6.129280e+01 2.375115e+00 5.410344e+01 2.345346e+00 4.705209e+01 2.190050e+00 3.976595e+01 1.834158e+00 3.206589e+01 1.438108e+00 2.481376e+01 1.323052e+00 1.789352e+01 1.633052e+00 1.080924e+01 1.893302e+00 3.648239e+00 2.072084e+00 -3.441890e+00 2.099850e+00 -1.044496e+01 1.650432e+00 -1.790027e+01 1.084888e+00 -2.558086e+01 5.365833e-01 -3.287474e+01 1.321265e-01 -4.035551e+01 -6.344432e-01 -4.814194e+01 4.631134e-01 -5.380576e+01 6.491805e-01 -5.983887e+01 9.507781e-01 -6.619113e+01 1.557491e+00 -7.256070e+01 2.379784e+00 -7.875863e+01 3.351014e+00 -8.464560e+01 4.430678e+00 -9.013196e+01 
5.601158e+00 -9.489859e+01 6.674962e+00 -1.000077e+02 7.756583e+00 1.036707e+02 6.882435e+00 9.902325e+01 5.900245e+00 9.403116e+01 5.042207e+00 8.870541e+01 4.438067e+00 8.331803e+01 4.337820e+00 7.856349e+01 5.311929e+00 6.821303e+01 3.206068e+00 6.139282e+01 2.615236e+00 5.417704e+01 2.650659e+00 4.737449e+01 2.429257e+00 4.025454e+01 1.974036e+00 3.229943e+01 1.439270e+00 2.500750e+01 1.258100e+00 1.827523e+01 1.696413e+00 1.123052e+01 1.990060e+00 4.060268e+00 2.238759e+00 -3.004054e+00 2.407248e+00 -9.836014e+00 1.890216e+00 -1.733928e+01 1.358386e+00 -2.520174e+01 9.374675e-01 -3.224736e+01 9.263940e-01 -3.973533e+01 8.253951e-01 -4.936142e+01 1.013704e+00 -5.234138e+01 1.416282e+00 -5.861691e+01 1.930032e+00 -6.530392e+01 2.492323e+00 -7.175507e+01 3.122802e+00 -7.795050e+01 3.846995e+00 -8.387987e+01 4.669766e+00 -8.952562e+01 
4.539063e+00 -9.786641e+01 5.514292e+00 -1.033329e+02 6.408981e+00 1.054188e+02 5.809670e+00 1.004304e+02 5.060726e+00 9.517600e+01 4.357642e+00 8.962063e+01 3.807196e+00 8.390268e+01 3.465314e+00 7.827198e+01 3.245806e+00 6.892786e+01 2.733022e+00 6.169854e+01 2.442826e+00 5.447786e+01 2.406802e+00 4.741119e+01 2.212857e+00 4.012333e+01 1.818177e+00 3.230770e+01 1.415272e+00 2.494431e+01 1.300714e+00 1.799911e+01 1.628326e+00 1.090883e+01 1.875084e+00 3.746406e+00 2.072093e+00 -3.361869e+00 2.149796e+00 -1.037257e+01 1.666483e+00 -1.791963e+01 1.116189e+00 -2.570433e+01 6.333177e-01 -3.289453e+01 4.126137e-01 -4.034461e+01 1.006590e-01 -4.853421e+01 -2.653524e-01 -5.376572e+01 2.183731e-01 -6.011923e+01 7.580770e-01 -6.682281e+01 1.354449e+00 -7.342827e+01 2.023601e+00 -7.986988e+01 2.782567e+00 -8.610802e+01 3.624540e+00 -9.210970e+01 
4.474329e+00 -9.786405e+01 5.168619e+00 -1.037403e+02 5.811021e+00 1.062223e+02 5.451424e+00 1.008182e+02 4.962620e+00 9.532213e+01 4.510139e+00 8.963182e+01 4.204313e+00 8.367108e+01 3.988969e+00 7.717813e+01 3.076803e+00 6.956753e+01 2.754313e+00 6.208884e+01 2.675539e+00 5.479679e+01 2.520287e+00 4.762878e+01 2.337581e+00 4.034846e+01 1.896658e+00 3.286074e+01 1.514589e+00 2.555477e+01 1.462957e+00 1.845275e+01 1.676432e+00 1.131378e+01 1.900683e+00 4.130771e+00 2.078136e+00 -3.036637e+00 2.119128e+00 -1.020350e+01 1.830388e+00 -1.759631e+01 1.355885e+00 -2.510058e+01 8.871667e-01 -3.242194e+01 5.908401e-01 -3.982029e+01 2.431393e-01 -4.736721e+01 1.234043e+00 -5.333841e+01 1.521214e+00 -5.982217e+01 1.777486e+00 -6.635295e+01 2.171595e+00 -7.287234e+01 2.652935e+00 -7.931244e+01 3.202749e+00 -8.563178e+01 3.812920e+00 -9.181416e+01 
3.299477e+00 -1.006266e+02 3.863994e+00 -1.068153e+02 4.305164e+00 1.080467e+02 4.200380e+00 1.022969e+02 3.930310e+00 9.647854e+01 3.634522e+00 9.046280e+01 3.425698e+00 8.411096e+01 3.290597e+00 7.713139e+01 3.057225e+00 7.029633e+01 2.410353e+00 6.260954e+01 2.287710e+00 5.512405e+01 2.133602e+00 4.777707e+01 1.962510e+00 4.034494e+01 1.671968e+00 3.280520e+01 1.399133e+00 2.542397e+01 1.343115e+00 1.822094e+01 1.501038e+00 1.105702e+01 1.672465e+00 3.895029e+00 1.789946e+00 -3.283812e+00 1.776268e+00 -1.053938e+01 1.504285e+00 -1.803357e+01 1.074924e+00 -2.560338e+01 6.272845e-01 -3.300318e+01 3.241818e-01 -4.035271e+01 2.327067e-01 -4.727925e+01 3.789423e-01 -5.430274e+01 6.775134e-01 -6.112274e+01 8.466897e-01 -6.782446e+01 1.164854e+00 -7.452165e+01 1.610983e+00 -8.118790e+01 2.137306e+00 -8.777716e+01 2.710346e+00 -9.426072e+01 
3.201285e+00 -1.007802e+02 3.501030e+00 -1.073373e+02 3.670167e+00 1.092330e+02 3.789502e+00 1.030619e+02 3.736293e+00 9.691264e+01 3.616794e+00 9.064289e+01 3.513058e+00 8.411384e+01 3.395653e+00 7.719482e+01 3.073393e+00 7.034055e+01 2.565588e+00 6.282144e+01 2.424068e+00 5.539596e+01 2.261250e+00 4.807082e+01 2.099890e+00 4.069750e+01 1.815937e+00 3.326465e+01 1.543243e+00 2.590038e+01 1.476533e+00 1.864274e+01 1.602770e+00 1.144925e+01 1.759382e+00 4.259736e+00 1.871445e+00 -2.947715e+00 1.878545e+00 -1.021512e+01 1.697685e+00 -1.762509e+01 1.330747e+00 -2.508986e+01 9.280664e-01 -3.248180e+01 6.600062e-01 -3.982247e+01 5.609033e-01 -4.699393e+01 1.178837e+00 -5.390600e+01 1.515323e+00 -6.068148e+01 1.655948e+00 -6.736950e+01 1.859920e+00 -7.406733e+01 2.149858e+00 -8.077699e+01 2.491216e+00 -8.747270e+01 2.851906e+00 -9.414089e+01 
1.972841e+00 -1.033158e+02 2.119651e+00 -1.101442e+02 2.064665e+00 1.110306e+02 2.431441e+00 1.045380e+02 2.585483e+00 9.808282e+01 2.634638e+00 9.154113e+01 2.679227e+00 8.477201e+01 2.738144e+00 7.764181e+01 2.756295e+00 7.082576e+01 2.170257e+00 6.316713e+01 2.027428e+00 5.561261e+01 1.874698e+00 4.820015e+01 1.766138e+00 4.072695e+01 1.555729e+00 3.319758e+01 1.292740e+00 2.574815e+01 1.226823e+00 1.842724e+01 1.362293e+00 1.121715e+01 1.505166e+00 4.019267e+00 1.596925e+00 -3.207474e+00 1.592070e+00 -1.052107e+01 1.424279e+00 -1.802555e+01 1.045665e+00 -2.557988e+01 6.069881e-01 -3.305283e+01 3.314364e-01 -4.046416e+01 2.581870e-01 -4.761239e+01 3.572045e-01 -5.483498e+01 6.510340e-01 -6.182628e+01 7.437031e-01 -6.869875e+01 9.056784e-01 -7.560645e+01 1.152195e+00 -8.254489e+01 1.440336e+00 -8.948481e+01 1.728460e+00 -9.641053e+01 
1.854587e+00 -1.035286e+02 1.748187e+00 -1.106834e+02 1.412037e+00 1.124440e+02 1.991991e+00 1.055612e+02 2.323880e+00 9.877850e+01 2.491627e+00 9.198781e+01 2.579971e+00 8.510439e+01 2.703803e+00 7.816431e+01 2.987703e+00 7.090180e+01 2.405119e+00 6.325961e+01 2.126302e+00 5.585705e+01 1.996007e+00 4.853586e+01 1.938246e+00 4.113507e+01 1.758538e+00 3.361751e+01 1.441259e+00 2.614881e+01 1.353740e+00 1.880100e+01 1.506161e+00 1.159714e+01 1.649095e+00 4.385506e+00 1.752444e+00 -2.839247e+00 1.790685e+00 -1.010916e+01 1.706430e+00 -1.757031e+01 1.359562e+00 -2.509168e+01 9.291679e-01 -3.256795e+01 7.022922e-01 -4.003914e+01 5.145079e-01 -4.756449e+01 1.027321e+00 -5.457343e+01 1.290438e+00 -6.135134e+01 1.356716e+00 -6.822002e+01 1.462865e+00 -7.518311e+01 1.600608e+00 -8.220500e+01 1.735459e+00 -8.926855e+01 1.833453e+00 -9.637447e+01 
6.151527e-01 -1.058319e+02 3.462260e-01 -1.132217e+02 -2.120584e-01 1.141589e+02 6.087085e-01 1.069852e+02 1.142812e+00 9.992313e+01 1.473501e+00 9.290927e+01 1.691888e+00 8.597672e+01 1.990332e+00 7.936275e+01 2.566992e+00 7.140618e+01 2.128623e+00 6.338905e+01 1.701757e+00 5.596343e+01 1.630126e+00 4.864584e+01 1.666942e+00 4.121840e+01 1.561374e+00 3.352976e+01 1.102548e+00 2.593268e+01 9.906105e-01 1.852303e+01 1.220280e+00 1.136307e+01 1.369356e+00 4.134891e+00 1.484627e+00 -3.103035e+00 1.552896e+00 -1.035547e+01 1.531377e+00 -1.794817e+01 1.108691e+00 -2.560954e+01 5.338111e-01 -3.313306e+01 3.998120e-01 -4.058864e+01 1.993034e-01 -4.890999e+01 2.887325e-01 -5.541367e+01 2.389912e-01 -6.216037e+01 4.107185e-01 -6.936189e+01 5.456687e-01 -7.660180e+01 6.447574e-01 -8.385228e+01 7.101743e-01 -9.113124e+01 7.157703e-01 -9.845446e+01 
4.937102e-01 -1.060393e+02 -1.490687e-02 -1.137165e+02 -8.492866e-01 1.156974e+02 1.833181e-01 1.081869e+02 9.006800e-01 1.008573e+02 1.387560e+00 9.366818e+01 1.719128e+00 8.663948e+01 1.973477e+00 7.981099e+01 2.062220e+00 7.193311e+01 2.108809e+00 6.384683e+01 1.946990e+00 5.636313e+01 1.905225e+00 4.900939e+01 1.934226e+00 4.157911e+01 1.815827e+00 3.392580e+01 1.394757e+00 2.634705e+01 1.283459e+00 1.892828e+01 1.487470e+00 1.173372e+01 1.627440e+00 4.481430e+00 1.743889e+00 -2.773891e+00 1.825281e+00 -1.003146e+01 1.830812e+00 -1.759372e+01 1.476861e+00 -2.521317e+01 9.873250e-01 -3.270732e+01 9.113561e-01 -4.013373e+01 7.977059e-01 -4.832628e+01 6.778435e-01 -5.484816e+01 6.486861e-01 -6.164655e+01 8.802864e-01 -6.891040e+01 1.005791e+00 -7.621769e+01 1.027172e+00 -8.355413e+01 9.637406e-01 -9.095257e+01 7.998809e-01 -9.844115e+01 
-7.250633e-01 -1.081129e+02 -1.394139e+00 -1.159938e+02 -2.437114e+00 1.173039e+02 -1.176384e+00 1.095472e+02 -2.517912e-01 1.019854e+02 4.294857e-01 9.456760e+01 9.377318e-01 8.721810e+01 1.260481e+00 7.975622e+01 1.253588e+00 7.227920e+01 1.294483e+00 6.431005e+01 1.470258e+00 5.664808e+01 1.464717e+00 4.910597e+01 1.480909e+00 4.154319e+01 1.373568e+00 3.391336e+01 1.168893e+00 2.633677e+01 1.123743e+00 1.887053e+01 1.252114e+00 1.152704e+01 1.355742e+00 4.186011e+00 1.411432e+00 -3.168533e+00 1.408808e+00 -1.056614e+01 1.310411e+00 -1.812130e+01 1.007159e+00 -2.572007e+01 6.308467e-01 -3.327685e+01 4.032756e-01 -4.081383e+01 1.925870e-01 -4.839175e+01 1.173499e-01 -5.565067e+01 1.831077e-01 -6.288578e+01 1.980051e-01 -7.021057e+01 1.881545e-01 -7.761932e+01 1.207553e-01 -8.510178e+01 -2.836329e-02 -9.266584e+01 -2.930165e-01 -1.003300e+02 
-8.293200e-01 -1.082717e+02 -1.721424e+00 -1.164049e+02 -3.033601e+00 1.188672e+02 -1.580882e+00 1.108093e+02 -5.012295e-01 1.029844e+02 2.985356e-01 9.533276e+01 8.869529e-01 8.774864e+01 1.279809e+00 8.006809e+01 1.576504e+00 7.269591e+01 1.499943e+00 6.484064e+01 1.624119e+00 5.709713e+01 1.656271e+00 4.951462e+01 1.674430e+00 4.192493e+01 1.600776e+00 3.432858e+01 1.452414e+00 2.678016e+01 1.412760e+00 1.930999e+01 1.500415e+00 1.193321e+01 1.586913e+00 4.574384e+00 1.642668e+00 -2.792107e+00 1.651376e+00 -1.020041e+01 1.577407e+00 -1.772439e+01 1.351616e+00 -2.527704e+01 1.070806e+00 -3.280593e+01 8.877411e-01 -4.032804e+01 7.901663e-01 -4.770373e+01 7.402840e-01 -5.516458e+01 8.128735e-01 -6.248549e+01 7.429260e-01 -6.981994e+01 6.420620e-01 -7.726369e+01 4.773524e-01 -8.481634e+01 2.068814e-01 -9.248631e+01 -2.106161e-01 -1.002964e+02 
-2.002131e+00 -1.101226e+02 -3.046048e+00 -1.184298e+02 -4.548109e+00 1.202989e+02 -2.894331e+00 1.120169e+02 -1.636046e+00 1.039620e+02 -6.878743e-01 9.607081e+01 8.676117e-03 8.826297e+01 4.900050e-01 8.048474e+01 8.369549e-01 7.286785e+01 9.024535e-01 6.506898e+01 1.081898e+00 5.729633e+01 1.179857e+00 4.960379e+01 1.229256e+00 4.193977e+01 1.208339e+00 3.430120e+01 1.152692e+00 2.671092e+01 1.149710e+00 1.918334e+01 1.210469e+00 1.171962e+01 1.264652e+00 4.278684e+00 1.279233e+00 -3.169726e+00 1.238247e+00 -1.065397e+01 1.119878e+00 -1.820218e+01 9.016115e-01 -2.577559e+01 6.439012e-01 -3.333685e+01 4.263128e-01 -4.088797e+01 2.526577e-01 -4.839211e+01 2.099061e-01 -5.595454e+01 2.014253e-01 -6.346389e+01 6.688083e-02 -7.097322e+01 -1.219653e-01 -7.855521e+01 -3.772070e-01 -8.623892e+01 -7.399597e-01 -9.404431e+01 -1.260518e+00 -1.019964e+02 
-2.068140e+00 -1.102044e+02 -3.314860e+00 -1.187309e+02 -5.069100e+00 1.218022e+02 -3.243580e+00 1.132548e+02 -1.844986e+00 1.049610e+02 -7.820278e-01 9.686138e+01 8.971817e-03 8.888839e+01 5.767083e-01 8.101434e+01 9.933361e-01 7.331454e+01 1.113057e+00 6.552399e+01 1.289407e+00 5.772963e+01 1.403839e+00 5.001227e+01 1.465793e+00 4.233787e+01 1.467914e+00 3.470575e+01 1.437980e+00 2.712345e+01 1.440895e+00 1.959470e+01 1.488661e+00 1.211976e+01 1.536078e+00 4.669806e+00 1.554967e+00 -2.782304e+00 1.529094e+00 -1.026159e+01 1.440469e+00 -1.778662e+01 1.276814e+00 -2.533075e+01 1.082049e+00 -3.286700e+01 9.188316e-01 -4.039262e+01 8.079292e-01 -4.789092e+01 7.267604e-01 -5.545633e+01 7.058426e-01 -6.300974e+01 5.546397e-01 -7.056128e+01 3.094531e-01 -7.818947e+01 -3.036763e-02 -8.593813e+01 -5.025632e-01 -9.383578e+01 -1.159677e+00 -1.019132e+02 
-3.176586e+00 -1.118417e+02 -4.563506e+00 -1.205125e+02 -6.495278e+00 1.230202e+02 -4.490723e+00 1.142858e+02 -2.937953e+00 1.058042e+02 -1.745353e+00 9.752623e+01 -8.464037e-01 8.940381e+01 -1.851648e-01 8.141083e+01 2.832454e-01 7.353842e+01 5.372736e-01 6.567917e+01 7.634769e-01 5.784539e+01 9.262791e-01 5.006480e+01 1.029574e+00 4.233264e+01 1.078153e+00 3.464840e+01 1.097711e+00 2.701396e+01 1.123835e+00 1.942876e+01 1.163554e+00 1.188751e+01 1.190353e+00 4.369578e+00 1.182121e+00 -3.147734e+00 1.126081e+00 -1.068330e+01 1.012710e+00 -1.824690e+01 8.420410e-01 -2.582767e+01 6.442758e-01 -3.341237e+01 4.556375e-01 -4.100592e+01 2.923352e-01 -4.861143e+01 1.801198e-01 -5.625670e+01 7.617021e-02 -6.391607e+01 -1.294951e-01 -7.160029e+01 -4.341943e-01 -7.935580e+01 -8.462115e-01 -8.722282e+01 -1.401389e+00 -9.523518e+01 -2.154303e+00 -1.034284e+02 
-3.186038e+00 -1.118272e+02 -4.751658e+00 -1.206851e+02 -6.907829e+00 1.244075e+02 -4.752757e+00 1.154485e+02 -3.076589e+00 1.067668e+02 -1.781691e+00 9.831843e+01 -7.985776e-01 9.006151e+01 -6.855536e-02 8.196883e+01 4.525860e-01 7.401916e+01 7.560675e-01 6.612028e+01 1.001758e+00 5.826101e+01 1.180268e+00 5.046245e+01 1.297231e+00 4.272200e+01 1.361711e+00 3.503761e+01 1.395770e+00 2.740590e+01 1.427888e+00 1.982197e+01 1.465970e+00 1.227934e+01 1.493433e+00 4.761109e+00 1.493212e+00 -2.752203e+00 1.454212e+00 -1.027704e+01 1.369018e+00 -1.782181e+01 1.239012e+00 -2.538065e+01 1.086339e+00 -3.294614e+01 9.382818e-01 -4.052404e+01 8.044442e-01 -4.812266e+01 6.756608e-01 -5.576603e+01 5.487402e-01 -6.344313e+01 3.223757e-01 -7.116004e+01 -2.334317e-02 -7.895904e+01 -5.020205e-01 -8.688446e+01 -1.148877e+00 -9.497611e+01 -2.018918e+00 -1.032751e+02 
-4.215415e+00 -1.132615e+02 -5.904900e+00 -1.222341e+02 -8.220696e+00 1.253921e+02 -5.907815e+00 1.162878e+02 -4.097915e+00 1.074627e+02 -2.688654e+00 9.887879e+01 -1.607992e+00 9.049929e+01 -7.961213e-01 8.229154e+01 -2.084678e-01 7.422123e+01 1.894345e-01 6.623774e+01 4.906716e-01 5.832132e+01 7.125101e-01 5.046944e+01 8.673729e-01 4.267839e+01 9.679315e-01 3.494440e+01 1.032963e+00 2.726269e+01 1.080970e+00 1.962712e+01 1.117471e+00 1.202926e+01 1.132669e+00 4.454683e+00 1.114757e+00 -3.112919e+00 1.056141e+00 -1.068721e+01 9.535582e-01 -1.827606e+01 8.111628e-01 -2.588047e+01 6.445457e-01 -3.350100e+01 4.702908e-01 -4.114587e+01 2.967418e-01 -4.882295e+01 1.291039e-01 -5.654056e+01 -6.267278e-02 -6.429976e+01 -3.435656e-01 -7.211374e+01 -7.412807e-01 -8.001361e+01 -1.279218e+00 -8.803664e+01 -1.995963e+00 -9.622207e+01 -2.948801e+00 -1.046134e+02 
-4.151911e+00 -1.131377e+02 -5.992273e+00 -1.222657e+02 -8.498041e+00 1.266187e+02 -6.059561e+00 1.173302e+02 -4.147526e+00 1.083421e+02 -2.654087e+00 9.961872e+01 -1.504725e+00 9.112505e+01 -6.374563e-01 8.282729e+01 -4.951288e-03 7.468926e+01 4.311962e-01 6.666028e+01 7.553356e-01 5.871541e+01 9.929388e-01 5.084709e+01 1.160240e+00 4.304888e+01 1.272332e+00 3.531440e+01 1.347043e+00 2.763594e+01 1.400971e+00 2.000504e+01 1.440660e+00 1.241226e+01 1.460840e+00 4.844327e+00 1.453168e+00 -2.713403e+00 1.411665e+00 -1.027356e+01 1.333792e+00 -1.784434e+01 1.222699e+00 -2.542917e+01 1.089022e+00 -3.303157e+01 9.432256e-01 -4.066067e+01 7.868367e-01 -4.832628e+01 6.127635e-01 -5.603973e+01 4.028632e-01 -6.380671e+01 9.946098e-02 -7.164185e+01 -3.330976e-01 -7.957557e+01 -9.243314e-01 -8.764656e+01 -1.715238e+00 -9.589729e+01 -2.764484e+00 -1.043754e+02 
-5.088854e+00 -1.143809e+02 -7.031427e+00 -1.235944e+02 -9.670086e+00 1.273529e+02 -7.098825e+00 1.179582e+02 -5.075046e+00 1.088649e+02 -3.485675e+00 1.000394e+02 -2.254048e+00 9.144817e+01 -1.316273e+00 8.305654e+01 -6.199025e-01 7.482825e+01 -1.149269e-01 6.672565e+01 2.600027e-01 5.872341e+01 5.367765e-01 5.080594e+01 7.365228e-01 4.296233e+01 8.762974e-01 3.518352e+01 9.723117e-01 2.746061e+01 1.037596e+00 1.978438e+01 1.077791e+00 1.214469e+01 1.090531e+00 4.529123e+00 1.070797e+00 -3.075513e+00 1.015081e+00 -1.068098e+01 9.227283e-01 -1.829628e+01 7.971449e-01 -2.592803e+01 6.457039e-01 -3.358299e+01 4.747741e-01 -4.127042e+01 2.857515e-01 -4.899882e+01 7.421552e-02 -5.677582e+01 -1.854010e-01 -6.461040e+01 -5.367240e-01 -7.251956e+01 -1.015296e+00 -8.053016e+01 -1.655903e+00 -8.867666e+01 -2.503615e+00 -9.699971e+01 -3.620134e+00 -1.055476e+02 
-4.937392e+00 -1.141384e+02 -7.000218e+00 -1.234762e+02 -9.790328e+00 1.283790e+02 -7.122346e+00 1.188387e+02 -5.020864e+00 1.096172e+02 -3.368015e+00 1.006814e+02 -2.084758e+00 9.199867e+01 -1.105188e+00 8.353418e+01 -3.745985e-01 7.525105e+01 1.581629e-01 6.711025e+01 5.520536e-01 5.908412e+01 8.419415e-01 5.115419e+01 1.051528e+00 4.330682e+01 1.199561e+00 3.553048e+01 1.302503e+00 2.781415e+01 1.373302e+00 2.014699e+01 1.418613e+00 1.251799e+01 1.438445e+00 4.914951e+00 1.429882e+00 -2.674744e+00 1.390447e+00 -1.026258e+01 1.319482e+00 -1.785804e+01 1.218944e+00 -2.546903e+01 1.092842e+00 -3.310384e+01 9.433483e-01 -4.077269e+01 7.671403e-01 -4.848588e+01 5.544076e-01 -5.625420e+01 2.832497e-01 -6.408921e+01 -8.666811e-02 -7.200958e+01 -5.934861e-01 -8.004300e+01 -1.275727e+00 -8.822512e+01 -2.181100e+00 -9.659862e+01 -3.373156e+00 -1.052146e+02 
-5.769993e+00 -1.152033e+02 -7.908901e+00 -1.245972e+02 -1.079827e+01 1.288466e+02 -8.026857e+00 1.192371e+02 -5.838401e+00 1.099453e+02 -4.110681e+00 1.009388e+02 -2.762618e+00 9.218626e+01 -1.726073e+00 8.365338e+01 -9.427291e-01 7.530512e+01 -3.588757e-01 6.710756e+01 7.651585e-02 5.903343e+01 3.993011e-01 5.106155e+01 6.353535e-01 4.317541e+01 8.045006e-01 3.536135e+01 9.226648e-01 2.760719e+01 1.001564e+00 1.990145e+01 1.047653e+00 1.223275e+01 1.062378e+00 4.589128e+00 1.044741e+00 -3.041471e+00 9.937719e-01 -1.067035e+01 9.096849e-01 -1.830760e+01 7.942574e-01 -2.596244e+01 6.500195e-01 -3.364414e+01 4.776677e-01 -4.136264e+01 2.738014e-01 -4.912748e+01 2.874962e-02 -5.694842e+01 -2.806946e-01 -6.483802e+01 -6.892259e-01 -7.281514e+01 -1.233695e+00 -8.090577e+01 -1.954866e+00 -8.914318e+01 -2.903369e+00 -9.756844e+01 -4.145529e+00 -1.062325e+02 
-5.517629e+00 -1.148351e+02 -7.744362e+00 -1.243226e+02 -1.074400e+01 1.296384e+02 -7.908013e+00 1.199206e+02 -5.668658e+00 1.105347e+02 -3.899966e+00 1.014478e+02 -2.518881e+00 9.262919e+01 -1.455735e+00 8.404458e+01 -6.508105e-01 7.565842e+01 -4.992411e-02 6.743569e+01 3.974673e-01 5.934755e+01 7.285403e-01 5.137096e+01 9.706855e-01 4.348739e+01 1.144902e+00 3.568132e+01 1.267708e+00 2.793897e+01 1.351284e+00 2.024767e+01 1.402955e+00 1.259531e+01 1.425523e+00 4.969783e+00 1.419186e+00 -2.640861e+00 1.383487e+00 -1.024795e+01 1.318309e+00 -1.786195e+01 1.224088e+00 -2.549282e+01 1.100979e+00 -3.315079e+01 9.467693e-01 -4.084676e+01 7.549019e-01 -4.859198e+01 5.128781e-01 -5.639859e+01 1.983860e-01 -6.428118e+01 -2.220725e-01 -7.226004e+01 -7.863223e-01 -8.036232e+01 -1.537114e+00 -8.862245e+01 -2.526950e+00 -9.708295e+01 -3.823689e+00 -1.057968e+02 
-6.236434e+00 -1.157340e+02 -8.509764e+00 -1.252480e+02 -1.157041e+01 1.298269e+02 -8.663705e+00 1.200761e+02 -6.364533e+00 1.106540e+02 -4.543926e+00 1.015282e+02 -3.117202e+00 9.266865e+01 -2.012928e+00 8.404225e+01 -1.169492e+00 7.561498e+01 -5.324165e-01 6.735427e+01 -5.419046e-02 5.923177e+01 3.020467e-01 5.122359e+01 5.643168e-01 4.330984e+01 7.540218e-01 3.547377e+01 8.874816e-01 2.770079e+01 9.764528e-01 1.997777e+01 1.028284e+00 1.229237e+01 1.046541e+00 4.632564e+00 1.032481e+00 -3.013384e+00 9.865262e-01 -1.065672e+01 9.090322e-01 -1.830812e+01 8.003650e-01 -2.597788e+01 6.601572e-01 -3.367632e+01 4.857801e-01 -4.141395e+01 2.707245e-01 -4.920147e+01 2.549741e-03 -5.705054e+01 -3.406976e-01 -6.497577e+01 -7.898523e-01 -7.299693e+01 -1.381574e+00 -8.113986e+01 -2.159371e+00 -8.943735e+01 -3.177421e+00 -9.793057e+01 -4.505553e+00 -1.066719e+02 
-5.873138e+00 -1.152338e+02 -8.200891e+00 -1.248111e+02 -1.132908e+01 1.303576e+02 -8.392341e+00 1.205355e+02 -6.070861e+00 1.110532e+02 -4.233257e+00 1.018780e+02 -2.793502e+00 9.297995e+01 -1.679228e+00 8.432562e+01 -8.280823e-01 7.588050e+01 -1.853605e-01 6.761115e+01 2.964179e-01 5.948804e+01 6.547446e-01 5.148597e+01 9.184770e-01 4.358368e+01 1.109764e+00 3.576314e+01 1.245473e+00 2.800868e+01 1.337864e+00 2.030632e+01 1.394934e+00 1.264324e+01 1.421036e+00 5.007212e+00 1.418055e+00 -2.613525e+00 1.386573e+00 -1.023029e+01 1.326494e+00 -1.785399e+01 1.237059e+00 -2.549541e+01 1.116169e+00 -3.316553e+01 9.591273e-01 -4.087581e+01 7.572855e-01 -4.863834e+01 4.964971e-01 -5.646659e+01 1.547628e-01 -6.437682e+01 -2.984192e-01 -7.239009e+01 -9.001160e-01 -8.053336e+01 -1.694774e+00 -8.884046e+01 -2.737570e+00 -9.735366e+01 -4.099183e+00 -1.061266e+02 
-6.471913e+00 -1.159777e+02 -8.814415e+00 -1.255518e+02 -1.196239e+01 1.302608e+02 -8.989917e+00 1.204415e+02 -6.637483e+00 1.109572e+02 -4.772284e+00 1.017750e+02 -3.307367e+00 9.286557e+01 -2.169306e+00 8.419625e+01 -1.294965e+00 7.573369e+01 -6.299406e-01 6.744582e+01 -1.282488e-01 5.930375e+01 2.469302e-01 5.128227e+01 5.242992e-01 4.335973e+01 7.259025e-01 3.551766e+01 8.683580e-01 2.774008e+01 9.636630e-01 2.001284e+01 1.019804e+00 1.232307e+01 1.041495e+00 4.658685e+00 1.031180e+00 -2.991902e+00 9.899600e-01 -1.063982e+01 9.180806e-01 -1.829587e+01 8.149100e-01 -2.597066e+01 6.783627e-01 -3.367489e+01 5.038645e-01 -4.141950e+01 2.830819e-01 -4.921603e+01 2.283719e-03 -5.707741e+01 -3.596873e-01 -6.501943e+01 -8.316823e-01 -7.306232e+01 -1.449722e+00 -8.123176e+01 -2.258231e+00 -8.956018e+01 -3.313080e+00 -9.808850e+01 -4.686009e+00 -1.068694e+02 
-5.991106e+00 -1.153390e+02 -8.354419e+00 -1.249464e+02 -1.152672e+01 1.305115e+02 -8.560268e+00 1.206575e+02 -6.215293e+00 1.111473e+02 -4.358097e+00 1.019477e+02 -2.901125e+00 9.302861e+01 -1.770593e+00 8.435700e+01 -9.031356e-01 7.589877e+01 -2.443555e-01 6.762106e+01 2.516652e-01 5.949406e+01 6.219526e-01 5.149163e+01 8.955668e-01 4.359127e+01 1.094931e+00 3.577374e+01 1.237006e+00 2.802243e+01 1.334142e+00 2.032276e+01 1.394734e+00 1.266164e+01 1.423918e+00 5.026916e+00 1.424413e+00 -2.592943e+00 1.397261e+00 -1.020905e+01 1.342225e+00 -1.783232e+01 1.257741e+00 -2.547365e+01 1.140414e+00 -3.314423e+01 9.841610e-01 -4.085581e+01 7.791542e-01 -4.862107e+01 5.105323e-01 -5.645432e+01 1.568436e-01 -6.437271e+01 -3.106980e-01 -7.239762e+01 -9.281964e-01 -8.055575e+01 -1.740319e+00 -8.888040e+01 -2.803153e+00 -9.741329e+01 -4.188492e+00 -1.062077e+02 
-6.467195e+00 -1.159373e+02 -8.811944e+00 -1.255116e+02 -1.196112e+01 1.301300e+02 -8.995158e+00 1.203151e+02 -6.649083e+00 1.108370e+02 -4.789433e+00 1.016624e+02 -3.328540e+00 9.276144e+01 -2.192249e+00 8.410131e+01 -1.317123e+00 7.564873e+01 -6.493473e-01 6.737185e+01 -1.441117e-01 5.924165e+01 2.347303e-01 5.123252e+01 5.156144e-01 4.332229e+01 7.204533e-01 3.549191e+01 8.657388e-01 2.772495e+01 9.634422e-01 2.000704e+01 1.021778e+00 1.232527e+01 1.045953e+00 4.667767e+00 1.038932e+00 -2.976692e+00 1.002076e+00 -1.061889e+01 9.354658e-01 -1.826938e+01 8.378508e-01 -2.593864e+01 7.062024e-01 -3.363733e+01 5.349334e-01 -4.137656e+01 3.148650e-01 -4.916831e+01 3.193231e-02 -5.702619e+01 -3.342188e-01 -6.496654e+01 -8.109763e-01 -7.300968e+01 -1.433336e+00 -8.118097e+01 -2.245420e+00 -8.951225e+01 -3.303243e+00 -9.804373e+01 -4.678807e+00 -1.068274e+02 