# vtk DataFile Version 2.0
Comment goes here
ASCII

DATASET STRUCTURED_POINTS
FIELD FieldData 1
TIME 1 1 double
0.09200000
DIMENSIONS    64   64   1

ORIGIN    0.000   0.000   0.000
SPACING   0.03125 0.03125   1.000

POINT_DATA   4096
SCALARS P double
LOOKUP_TABLE default

2.748225e+04 3.421476e+04 3.445990e+04 4.502006e+04 3.127602e+04 1.340243e+04 2.039766e+04 9.834175e+03 1.424458e+04 6.562855e+03 1.181332e+04 2.926172e+03 8.715896e+03 3.102460e+03 9.019415e+03 4.005621e+03 6.111704e+03 2.316399e+03 4.454420e+03 -9.037516e+02 1.145877e+03 -2.572719e+03 -2.373426e+02 -4.466603e+03 -1.029339e+03 -2.892163e+03 3.648333e+03 5.153771e+03 1.119583e+04 1.024731e+04 7.966618e+03 2.883990e+03 -5.952979e+03 -1.313493e+04 -2.136395e+04 -2.828500e+04 -3.317121e+04 -3.850351e+04 -4.001026e+04 -4.317068e+04 -4.128095e+04 -3.881351e+04 -3.417401e+04 -2.561109e+04 -1.774037e+04 -8.273077e+03 -5.678969e+03 -8.176358e+02 -3.716335e+03 -3.685291e+03 -6.657167e+03 -7.199763e+03 -1.866408e+04 -2.607172e+04 -3.795519e+04 -3.772766e+04 -3.541133e+04 -1.491177e+04 2.785552e+03 3.165045e+04 4.500960e+04 6.275670e+04 5.039515e+04 3.985966e+04 
4.858386e+04 7.084659e+04 6.631507e+04 7.469302e+04 6.111381e+04 3.461243e+04 4.586463e+04 3.104754e+04 3.743778e+04 2.747434e+04 3.310535e+04 2.498799e+04 2.982117e+04 2.377780e+04 2.848280e+04 2.311626e+04 2.303598e+04 1.754584e+04 1.752845e+04 1.114574e+04 1.085459e+04 5.319035e+03 5.634384e+03 1.991787e+03 6.070061e+03 5.435117e+03 1.223349e+04 1.521242e+04 2.060514e+04 1.983203e+04 1.767437e+04 1.289698e+04 6.276286e+03 -8.324049e+02 -6.118619e+03 -1.438617e+04 -1.861305e+04 -2.467091e+04 -2.532812e+04 -2.735809e+04 -2.957617e+04 -2.815050e+04 -3.181894e+04 -2.913502e+04 -2.707604e+04 -2.389458e+04 -2.433440e+04 -2.411994e+04 -2.733687e+04 -2.798194e+04 -3.046686e+04 -3.101714e+04 -4.133037e+04 -4.989721e+04 -6.233527e+04 -6.617202e+04 -6.900576e+04 -5.687361e+04 -3.822554e+04 -2.856072e+03 2.435245e+04 5.769530e+04 6.022499e+04 6.440188e+04 
5.970958e+04 8.764842e+04 7.689195e+04 9.041282e+04 7.588967e+04 4.823179e+04 6.495065e+04 4.555960e+04 5.724445e+04 4.293008e+04 5.176344e+04 4.091198e+04 4.723162e+04 3.848801e+04 4.342451e+04 3.619892e+04 3.772789e+04 3.091421e+04 3.198991e+04 2.563418e+04 2.573976e+04 1.896063e+04 1.874170e+04 1.452286e+04 1.801064e+04 1.754444e+04 2.441112e+04 2.752531e+04 3.239580e+04 3.254418e+04 3.109471e+04 2.744355e+04 2.328766e+04 1.687466e+04 1.303331e+04 4.582115e+03 1.746493e+03 -4.970337e+03 -6.578201e+03 -8.563744e+03 -1.325067e+04 -1.290017e+04 -2.094173e+04 -2.441825e+04 -3.146652e+04 -3.616994e+04 -4.368158e+04 -4.943787e+04 -5.800746e+04 -6.297979e+04 -6.956454e+04 -7.101614e+04 -7.730723e+04 -8.039088e+04 -8.781492e+04 -8.959671e+04 -9.286004e+04 -8.324573e+04 -7.515525e+04 -4.418095e+04 -1.801406e+04 2.045058e+04 3.895904e+04 5.923987e+04 
6.919643e+04 8.658501e+04 7.535414e+04 8.574672e+04 7.007303e+04 4.520135e+04 6.066378e+04 4.197323e+04 5.271812e+04 3.869020e+04 4.662668e+04 3.604911e+04 4.186400e+04 3.338124e+04 3.756689e+04 3.049201e+04 3.240043e+04 2.599164e+04 2.702005e+04 2.130734e+04 2.147069e+04 1.589334e+04 1.651369e+04 1.296741e+04 1.576181e+04 1.452552e+04 1.899512e+04 1.899361e+04 2.116451e+04 1.942844e+04 2.097040e+04 1.709061e+04 1.476987e+04 9.172011e+03 5.939472e+03 -1.009981e+02 -3.260268e+03 -8.220159e+03 -1.137960e+04 -1.415706e+04 -2.019796e+04 -2.134964e+04 -2.867191e+04 -3.069245e+04 -3.535076e+04 -3.787246e+04 -3.920096e+04 -4.086472e+04 -4.347568e+04 -4.406308e+04 -4.957716e+04 -5.094694e+04 -6.100957e+04 -6.624892e+04 -7.683812e+04 -8.246579e+04 -8.867581e+04 -7.596735e+04 -6.889609e+04 -3.652999e+04 -3.863906e+03 3.587356e+04 5.404868e+04 7.133961e+04 
7.555754e+04 9.490349e+04 8.292505e+04 9.600722e+04 7.749993e+04 5.135235e+04 6.855428e+04 4.675132e+04 6.000798e+04 4.294615e+04 5.306489e+04 3.975001e+04 4.734955e+04 3.674035e+04 4.236190e+04 3.368598e+04 3.728708e+04 2.981503e+04 3.229023e+04 2.571673e+04 2.701617e+04 2.065600e+04 2.191043e+04 1.838037e+04 2.127287e+04 1.957829e+04 2.395711e+04 2.455596e+04 2.802429e+04 2.897122e+04 3.053682e+04 2.682941e+04 2.398574e+04 1.987746e+04 1.809093e+04 1.167244e+04 8.071447e+03 -9.239484e+01 -5.090234e+03 -9.243387e+03 -1.463254e+04 -1.462744e+04 -2.128846e+04 -2.247474e+04 -3.126152e+04 -3.760330e+04 -4.270685e+04 -4.895745e+04 -5.931866e+04 -6.556046e+04 -7.672354e+04 -7.934717e+04 -8.455893e+04 -8.278158e+04 -9.060860e+04 -9.636237e+04 -1.038722e+05 -8.897702e+04 -9.458988e+04 -6.883895e+04 -3.894602e+04 2.509496e+03 4.101843e+04 7.208312e+04 
8.858472e+04 9.734150e+04 8.133069e+04 9.002806e+04 7.168234e+04 4.557087e+04 6.119958e+04 4.087803e+04 5.279513e+04 3.712924e+04 4.620088e+04 3.401273e+04 4.084986e+04 3.112400e+04 3.613109e+04 2.817183e+04 3.149378e+04 2.474885e+04 2.696038e+04 2.074684e+04 2.131545e+04 1.574969e+04 1.718635e+04 1.492263e+04 1.802654e+04 1.625177e+04 1.962986e+04 1.675004e+04 1.236498e+04 9.297157e+03 1.942943e+04 1.615020e+04 1.463812e+04 1.043978e+04 7.705650e+03 3.687369e+03 6.223799e+02 -4.265314e+03 -8.795970e+03 -1.393955e+04 -2.359159e+04 -2.614408e+04 -3.555424e+04 -3.547179e+04 -4.193009e+04 -4.581365e+04 -3.920490e+04 -3.964086e+04 -3.841880e+04 -3.473569e+04 -4.023334e+04 -3.941131e+04 -5.698080e+04 -6.632673e+04 -8.358130e+04 -1.080344e+05 -1.227541e+05 -1.018182e+05 -1.170862e+05 -9.243118e+04 -3.005577e+04 4.146733e+04 7.835167e+04 9.457305e+04 
1.091114e+05 1.191854e+05 9.843561e+04 1.075598e+05 8.554133e+04 5.358418e+04 7.150771e+04 4.703290e+04 6.093375e+04 4.213775e+04 5.289567e+04 3.824352e+04 4.651811e+04 3.487182e+04 4.115187e+04 3.170775e+04 3.634056e+04 2.835215e+04 3.179886e+04 2.461687e+04 2.604908e+04 1.945889e+04 2.223035e+04 2.012469e+04 2.216856e+04 1.965426e+04 2.219676e+04 1.952722e+04 2.068115e+04 2.805266e+04 3.856973e+04 3.265268e+04 2.483082e+04 2.338249e+04 2.598405e+04 2.028606e+04 1.499535e+04 4.412287e+02 -9.262084e+03 -1.769558e+04 -2.209384e+04 -1.525544e+04 -1.972257e+04 -1.401461e+04 -3.102048e+04 -4.559617e+04 -3.799033e+04 -4.415687e+04 -6.259384e+04 -7.283350e+04 -9.498763e+04 -9.995196e+04 -9.841930e+04 -8.361787e+04 -9.631570e+04 -1.289518e+05 -1.374072e+05 -1.005408e+05 -1.319140e+05 -1.319207e+05 -1.047982e+05 -4.140763e+04 5.972373e+04 1.157539e+05 
1.156993e+05 1.115587e+05 8.637815e+04 9.235225e+04 7.161307e+04 4.397214e+04 5.942120e+04 3.866429e+04 5.082482e+04 3.478699e+04 4.428209e+04 3.162673e+04 3.897948e+04 2.879256e+04 3.440592e+04 2.610442e+04 2.999070e+04 2.341855e+04 2.638725e+04 1.936975e+04 1.999828e+04 1.626012e+04 1.675999e+04 1.504701e+04 1.679577e+04 1.664194e+04 1.749572e+04 1.291330e+04 4.114013e+03 -5.824059e+03 1.339895e+04 1.908290e+04 1.411114e+04 1.158567e+04 1.229952e+04 1.364322e+04 1.664641e+04 1.016227e+04 1.279136e+02 -1.636075e+04 -3.917576e+04 -3.793289e+04 -4.324539e+04 -3.353446e+04 -4.541643e+04 -5.661234e+04 -3.545836e+04 -3.727479e+04 -3.559469e+04 -2.427155e+04 -1.917061e+04 -2.694740e+03 -4.715283e+04 -7.024582e+04 -8.943872e+04 -1.611635e+05 -1.738291e+05 -9.124803e+04 -1.103410e+05 -1.185326e+05 -4.682812e+04 7.266266e+04 1.403104e+05 1.474440e+05 
1.522000e+05 1.451802e+05 1.116912e+05 1.140562e+05 8.955586e+04 5.288727e+04 7.070992e+04 4.534932e+04 5.910954e+04 4.010742e+04 5.088054e+04 3.606976e+04 4.449599e+04 3.266730e+04 3.914711e+04 2.953316e+04 3.433204e+04 2.596878e+04 2.978749e+04 2.381134e+04 2.587541e+04 2.190823e+04 2.645557e+04 2.118206e+04 1.985793e+04 1.721965e+04 1.674935e+04 1.299976e+04 4.733705e+03 -7.022067e+02 2.139715e+04 3.030695e+04 3.158813e+04 2.807185e+04 2.531981e+04 2.151064e+04 1.916252e+04 4.529224e+03 -7.165475e+03 -2.172055e+04 -2.450494e+04 -5.080361e+03 2.860196e+03 -2.573526e+03 -2.748289e+04 -5.822606e+04 -4.660918e+04 -4.962926e+04 -8.017687e+04 -9.012758e+04 -1.060014e+05 -1.243720e+05 -1.290787e+05 -8.492497e+04 -6.511359e+04 -1.184164e+05 -1.323058e+05 -8.229015e+04 -1.417347e+05 -1.683446e+05 -1.561663e+05 -4.047522e+04 9.852996e+04 1.757858e+05 
7.352193e+04 8.734356e+04 7.055649e+04 8.006712e+04 6.305260e+04 3.880205e+04 5.360237e+04 3.482076e+04 4.658615e+04 3.160870e+04 4.095792e+04 2.884055e+04 3.621289e+04 2.631126e+04 3.202300e+04 2.386939e+04 2.812491e+04 2.136953e+04 2.397920e+04 1.890110e+04 2.116354e+04 1.313308e+04 1.165640e+04 9.750362e+03 1.028956e+04 7.238795e+03 1.006351e+04 9.506372e+03 1.324000e+04 9.254250e+03 1.675778e+04 1.739254e+04 1.562296e+04 1.063045e+04 3.229917e+03 7.569104e+02 -5.471054e+03 -9.334195e+03 -1.555313e+04 -1.514581e+04 -8.927826e+03 1.502117e+04 3.290626e+04 1.685805e+04 1.764686e+03 -2.441675e+04 -4.420815e+04 -6.249438e+04 -1.046864e+05 -1.056417e+05 -1.122183e+05 -1.109986e+05 -8.305781e+04 -6.042818e+04 -3.614944e+04 -1.007131e+04 1.772555e+03 -2.346483e+04 -7.622694e+04 -5.110260e+04 -1.086627e+05 -1.300603e+05 -2.579486e+04 6.902429e+04 
8.284740e+04 9.756006e+04 8.195987e+04 9.208044e+04 7.390709e+04 4.596018e+04 6.239707e+04 4.079749e+04 5.372145e+04 3.662941e+04 4.691264e+04 3.315926e+04 4.134523e+04 3.013349e+04 3.660489e+04 2.738758e+04 3.239946e+04 2.489295e+04 2.827332e+04 2.075405e+04 2.383591e+04 1.657343e+04 1.448448e+04 9.132844e+03 1.027900e+04 6.926545e+03 1.115876e+04 1.376737e+04 1.871363e+04 1.493237e+04 1.711532e+04 1.905907e+04 2.308768e+04 1.994527e+04 1.810999e+04 1.425753e+04 1.112135e+04 3.771475e+03 -4.262099e+03 -7.844695e+03 -9.221233e+03 3.776682e+03 2.408692e+03 -1.024590e+04 -2.524205e+04 -4.729352e+04 -5.095896e+04 -5.152076e+04 -7.354494e+04 -7.955261e+04 -8.380640e+04 -9.286062e+04 -1.077851e+05 -7.894468e+04 -3.503440e+04 -5.158752e+04 -7.278725e+04 -5.481771e+04 -1.144597e+05 -1.294569e+05 -9.274120e+04 -2.361049e+04 3.365499e+04 8.143113e+04 
4.161729e+04 5.909894e+04 5.015351e+04 6.257137e+04 4.995365e+04 3.193963e+04 4.526673e+04 3.000248e+04 4.081717e+04 2.788792e+04 3.667083e+04 2.577301e+04 3.286436e+04 2.368782e+04 2.934347e+04 2.160564e+04 2.605084e+04 1.948105e+04 2.283742e+04 1.711142e+04 1.912768e+04 1.228408e+04 1.237796e+04 8.836477e+03 7.417908e+03 4.172729e+03 7.608420e+03 7.585074e+03 1.520809e+04 1.262660e+04 1.026463e+04 1.274812e+04 1.657616e+04 1.088891e+04 6.026007e+03 2.586667e+03 -2.876433e+03 -5.254719e+03 -9.117764e+03 -9.645242e+03 -1.044858e+04 -8.875340e+03 -9.637395e+03 -1.624817e+04 -2.181024e+04 -3.134635e+04 -3.859521e+04 -4.686716e+04 -6.191802e+04 -6.362813e+04 -6.818384e+04 -6.572770e+04 -5.923129e+04 -4.727315e+04 -3.723667e+04 -1.994092e+04 -1.999527e+04 -1.656499e+04 -3.211631e+04 -1.902983e+04 -2.927818e+04 -1.874904e+04 5.326248e+03 3.849900e+04 
4.787132e+04 6.530985e+04 5.636340e+04 6.943340e+04 5.593477e+04 3.739577e+04 5.133709e+04 3.491425e+04 4.637108e+04 3.227312e+04 4.165069e+04 2.971223e+04 3.734724e+04 2.727403e+04 3.342029e+04 2.491962e+04 2.973594e+04 2.254776e+04 2.609498e+04 1.962707e+04 2.194623e+04 1.578300e+04 1.584073e+04 9.529223e+03 8.996581e+03 5.513011e+03 6.968740e+03 1.276034e+03 6.699406e+03 9.220190e+03 6.536167e+03 1.075228e+04 2.200281e+04 1.586139e+04 1.153035e+04 8.502276e+03 4.345514e+03 -2.113426e+02 -5.120360e+03 -8.221045e+03 -1.109247e+04 -9.666298e+03 -1.236524e+04 -1.772569e+04 -2.401058e+04 -3.214709e+04 -3.785411e+04 -4.109848e+04 -5.088183e+04 -5.421507e+04 -5.960280e+04 -6.011590e+04 -6.323468e+04 -5.455401e+04 -4.742969e+04 -4.697065e+04 -5.600992e+04 -4.365498e+04 -5.471515e+04 -4.141959e+04 -3.016800e+04 1.585435e+03 1.877655e+04 4.660792e+04 
2.928092e+04 4.378339e+04 3.641198e+04 4.876364e+04 3.848411e+04 2.560287e+04 3.699922e+04 2.516326e+04 3.471648e+04 2.406396e+04 3.202917e+04 2.263863e+04 2.923793e+04 2.104602e+04 2.646418e+04 1.933905e+04 2.374607e+04 1.752633e+04 2.105723e+04 1.579715e+04 1.775548e+04 1.270906e+04 1.344343e+04 9.199677e+03 8.858925e+03 6.466631e+03 5.710537e+03 -1.939964e+03 4.978817e+02 -1.935014e+03 -7.684223e+03 9.585419e+02 1.620991e+04 8.038959e+03 -2.432739e+03 -2.498237e+03 -8.191091e+03 -9.984286e+03 -1.336977e+04 -1.561060e+04 -1.764332e+04 -1.942880e+04 -2.098506e+04 -2.444220e+04 -2.670698e+04 -3.079336e+04 -3.339725e+04 -3.584426e+04 -4.040762e+04 -3.913709e+04 -4.033325e+04 -3.596131e+04 -3.410918e+04 -2.564648e+04 -2.661699e+04 -1.933592e+04 -2.169680e+04 -9.217069e+03 -9.767283e+03 5.269808e+03 1.561015e+03 1.318459e+04 1.484627e+04 3.162620e+04 
3.067638e+04 4.612682e+04 3.903812e+04 5.202773e+04 4.147137e+04 2.958040e+04 4.086626e+04 2.901777e+04 3.875109e+04 2.771719e+04 3.596471e+04 2.607740e+04 3.298093e+04 2.429163e+04 2.998138e+04 2.242552e+04 2.697879e+04 2.038076e+04 2.372282e+04 1.843299e+04 1.987535e+04 1.569003e+04 1.764504e+04 1.412584e+04 1.494552e+04 1.272342e+04 9.413888e+03 5.275146e+02 -4.109824e+02 -3.060716e+03 -5.962715e+03 -5.180857e+03 3.281629e+03 2.284973e+01 -4.356452e+03 1.690491e+03 -2.137573e+03 -6.305876e+03 -1.098534e+04 -1.617850e+04 -1.861497e+04 -1.975516e+04 -2.043755e+04 -2.105505e+04 -2.157340e+04 -2.362546e+04 -2.669447e+04 -2.866592e+04 -3.540032e+04 -3.696509e+04 -4.064739e+04 -4.086899e+04 -4.258541e+04 -3.551959e+04 -3.843891e+04 -4.146532e+04 -5.181852e+04 -3.240086e+04 -1.704582e+04 4.097607e+03 -1.951770e+02 1.432442e+04 1.491650e+04 3.290070e+04 
2.301292e+04 3.465269e+04 2.747411e+04 3.868334e+04 2.978204e+04 2.042370e+04 2.988800e+04 2.082249e+04 2.903705e+04 2.045851e+04 2.750371e+04 1.962071e+04 2.561049e+04 1.849387e+04 2.354105e+04 1.715612e+04 2.138636e+04 1.558153e+04 1.921382e+04 1.284968e+04 1.625182e+04 1.148433e+04 1.534177e+04 1.174281e+04 1.238929e+04 7.439556e+03 7.522652e+03 1.613451e+03 8.264112e+02 -4.021609e+03 -1.249979e+04 -9.530471e+03 5.372748e+03 9.569020e+02 -1.042285e+04 -9.710645e+03 -1.692949e+04 -1.977324e+04 -2.289511e+04 -2.570348e+04 -2.810871e+04 -2.907161e+04 -3.039152e+04 -3.255064e+04 -3.279687e+04 -3.548672e+04 -3.312455e+04 -3.250234e+04 -3.094330e+04 -2.462271e+04 -2.278896e+04 -1.674561e+04 -1.567958e+04 -6.642254e+03 -1.515920e+04 -2.053915e+04 -2.949052e+04 -1.174046e+04 -7.458288e+02 2.125594e+04 1.721638e+04 2.405293e+04 1.792539e+04 2.844251e+04 
2.061094e+04 3.365055e+04 2.756804e+04 3.930050e+04 3.085279e+04 2.316240e+04 3.210902e+04 2.374253e+04 3.179420e+04 2.340615e+04 3.047674e+04 2.252130e+04 2.863003e+04 2.131883e+04 2.653262e+04 1.992079e+04 2.435586e+04 1.832954e+04 2.232459e+04 1.667575e+04 1.863389e+04 1.514073e+04 1.704412e+04 1.230489e+04 1.333131e+04 8.529293e+03 8.725888e+03 5.263921e+03 4.472915e+03 7.847263e+02 4.357969e+02 -6.118299e+02 5.192396e+03 -4.219556e+02 -1.090026e+04 -1.296423e+04 -1.641896e+04 -1.745887e+04 -2.081428e+04 -2.330808e+04 -2.787033e+04 -2.911939e+04 -3.245647e+04 -3.507191e+04 -3.821498e+04 -4.264135e+04 -4.358077e+04 -4.769714e+04 -4.862868e+04 -4.853391e+04 -5.232311e+04 -4.570619e+04 -4.965539e+04 -4.166941e+04 -4.413872e+04 -3.909776e+04 -5.456285e+04 -4.063082e+04 -2.603354e+04 -4.649280e+03 -2.495651e+03 1.078946e+04 9.868463e+03 2.372035e+04 
1.683323e+04 2.718271e+04 2.074446e+04 3.082109e+04 2.305253e+04 1.629705e+04 2.399835e+04 1.711438e+04 2.403847e+04 1.721935e+04 2.333017e+04 1.682046e+04 2.213935e+04 1.608714e+04 2.064866e+04 1.513541e+04 1.897846e+04 1.405673e+04 1.722538e+04 1.309867e+04 1.532928e+04 1.193038e+04 1.360920e+04 1.005320e+04 1.032461e+04 6.791891e+03 7.812846e+03 3.948616e+03 3.054520e+03 -4.130820e+02 -3.314969e+03 -6.005620e+03 -2.862746e+03 -6.696673e+03 -1.301813e+04 -1.591659e+04 -2.128850e+04 -2.573638e+04 -3.002100e+04 -3.173077e+04 -3.562111e+04 -3.490183e+04 -3.686390e+04 -3.780615e+04 -3.882022e+04 -4.306337e+04 -4.098516e+04 -4.634911e+04 -4.425089e+04 -4.204823e+04 -4.862057e+04 -3.456195e+04 -3.791363e+04 -3.382903e+04 -3.223492e+04 -1.343218e+04 -2.591365e+04 -3.646917e+04 -2.857870e+04 -3.403259e+03 1.578741e+03 1.363689e+04 1.110863e+04 2.153049e+04 
1.381868e+04 2.504921e+04 1.964231e+04 3.002058e+04 2.301028e+04 1.811768e+04 2.509088e+04 1.927211e+04 2.580473e+04 1.954596e+04 2.548094e+04 1.921597e+04 2.449296e+04 1.848571e+04 2.309472e+04 1.748476e+04 2.144010e+04 1.629296e+04 1.959437e+04 1.503097e+04 1.739345e+04 1.373086e+04 1.577237e+04 1.254544e+04 1.327490e+04 9.491148e+03 9.638277e+03 6.101977e+03 6.071298e+03 2.823472e+03 2.284443e+03 -2.323407e+02 -3.094950e+02 -3.744033e+03 -7.160842e+03 -9.807695e+03 -1.289273e+04 -1.497123e+04 -1.819848e+04 -2.014365e+04 -2.374083e+04 -2.519741e+04 -2.849595e+04 -3.025137e+04 -3.326550e+04 -3.577020e+04 -3.814820e+04 -4.069712e+04 -4.325089e+04 -4.368702e+04 -4.822557e+04 -4.355803e+04 -4.906275e+04 -4.352692e+04 -4.730139e+04 -4.091754e+04 -4.193088e+04 -2.946654e+04 -2.389249e+04 -7.439929e+03 -5.929405e+03 6.757399e+03 5.331509e+03 1.721147e+04 
1.203651e+04 2.139605e+04 1.558869e+04 2.466439e+04 1.779129e+04 1.302339e+04 1.918839e+04 1.400837e+04 1.975524e+04 1.438040e+04 1.959912e+04 1.427807e+04 1.892739e+04 1.383140e+04 1.789940e+04 1.314059e+04 1.663476e+04 1.228407e+04 1.521889e+04 1.133293e+04 1.355464e+04 1.020627e+04 1.191993e+04 8.512339e+03 9.323350e+03 5.844582e+03 6.343468e+03 3.131621e+03 2.644654e+03 -6.389403e+02 -1.967326e+03 -4.968585e+03 -5.509950e+03 -8.361892e+03 -1.163198e+04 -1.424745e+04 -1.790555e+04 -2.053860e+04 -2.385541e+04 -2.542234e+04 -2.823955e+04 -2.884135e+04 -3.072918e+04 -3.156445e+04 -3.262513e+04 -3.408210e+04 -3.417987e+04 -3.495738e+04 -3.545035e+04 -3.260376e+04 -3.551140e+04 -2.827971e+04 -3.068922e+04 -2.400026e+04 -2.563302e+04 -1.613415e+04 -1.961205e+04 -1.449844e+04 -1.357705e+04 -1.201026e+03 -1.203238e+03 9.349767e+03 6.736245e+03 1.640934e+04 
9.104477e+03 1.892173e+04 1.401327e+04 2.318281e+04 1.716814e+04 1.420644e+04 1.956059e+04 1.558565e+04 2.080838e+04 1.620178e+04 2.110317e+04 1.623973e+04 2.071258e+04 1.585674e+04 1.983959e+04 1.516707e+04 1.862065e+04 1.425151e+04 1.713589e+04 1.317159e+04 1.542163e+04 1.189292e+04 1.361773e+04 1.033381e+04 1.125063e+04 7.975741e+03 8.430703e+03 5.323904e+03 5.300761e+03 2.406676e+03 1.892247e+03 -7.197065e+02 -1.683659e+03 -4.260725e+03 -6.388296e+03 -8.627006e+03 -1.111035e+04 -1.300962e+04 -1.571495e+04 -1.733967e+04 -2.023326e+04 -2.154732e+04 -2.439731e+04 -2.559123e+04 -2.830983e+04 -2.937392e+04 -3.195758e+04 -3.237130e+04 -3.515295e+04 -3.397163e+04 -3.736504e+04 -3.375852e+04 -3.731617e+04 -3.206675e+04 -3.467605e+04 -2.777515e+04 -2.851043e+04 -1.861540e+04 -1.756250e+04 -5.976658e+03 -6.480982e+03 4.384978e+03 2.282989e+03 1.262676e+04 
8.590388e+03 1.702117e+04 1.169500e+04 1.986173e+04 1.370824e+04 1.041964e+04 1.530086e+04 1.142873e+04 1.614873e+04 1.192894e+04 1.633786e+04 1.200554e+04 1.602217e+04 1.174881e+04 1.532684e+04 1.123232e+04 1.434473e+04 1.050779e+04 1.312699e+04 9.597000e+03 1.165417e+04 8.454223e+03 9.978282e+03 6.906065e+03 7.759755e+03 4.716456e+03 5.072221e+03 2.129389e+03 1.802086e+03 -1.025818e+03 -1.890861e+03 -4.565195e+03 -5.717902e+03 -8.173119e+03 -1.032297e+04 -1.250094e+04 -1.506266e+04 -1.693599e+04 -1.944298e+04 -2.071189e+04 -2.291688e+04 -2.359867e+04 -2.531596e+04 -2.570957e+04 -2.695772e+04 -2.703185e+04 -2.795520e+04 -2.701929e+04 -2.818368e+04 -2.520245e+04 -2.709962e+04 -2.196817e+04 -2.387813e+04 -1.780322e+04 -1.954961e+04 -1.234760e+04 -1.436179e+04 -7.299429e+03 -8.623516e+03 2.571155e+02 -1.633086e+03 7.284723e+03 4.194156e+03 1.285639e+04 
5.881267e+03 1.447761e+04 9.988495e+03 1.807711e+04 1.281669e+04 1.117278e+04 1.523675e+04 1.258119e+04 1.671083e+04 1.335784e+04 1.735606e+04 1.361711e+04 1.735533e+04 1.346996e+04 1.686029e+04 1.300422e+04 1.598348e+04 1.228232e+04 1.480049e+04 1.133683e+04 1.335548e+04 1.014410e+04 1.166642e+04 8.645297e+03 9.600272e+03 6.696693e+03 7.156805e+03 4.403970e+03 4.389729e+03 1.845043e+03 1.336152e+03 -9.953719e+02 -2.012748e+03 -4.155702e+03 -5.777159e+03 -7.664445e+03 -9.657856e+03 -1.126317e+04 -1.350133e+04 -1.480776e+04 -1.721303e+04 -1.818962e+04 -2.065113e+04 -2.129353e+04 -2.374852e+04 -2.394009e+04 -2.639725e+04 -2.581506e+04 -2.837788e+04 -2.657404e+04 -2.930468e+04 -2.594315e+04 -2.861049e+04 -2.377258e+04 -2.591221e+04 -1.957299e+04 -2.088682e+04 -1.285598e+04 -1.371415e+04 -4.626104e+03 -6.190107e+03 2.983663e+03 4.463502e+02 9.410866e+03 
6.155592e+03 1.369724e+04 8.786689e+03 1.610413e+04 1.057080e+04 8.335630e+03 1.218189e+04 9.291093e+03 1.314429e+04 9.829711e+03 1.352689e+04 1.000009e+04 1.343882e+04 9.860101e+03 1.297189e+04 9.458738e+03 1.219432e+04 8.828102e+03 1.114403e+04 7.974772e+03 9.824578e+03 6.865445e+03 8.229380e+03 5.414879e+03 6.249454e+03 3.532908e+03 3.868975e+03 1.265304e+03 1.087303e+03 -1.379745e+03 -2.018221e+03 -4.320240e+03 -5.369838e+03 -7.442051e+03 -9.012279e+03 -1.079127e+04 -1.266736e+04 -1.409071e+04 -1.601639e+04 -1.697031e+04 -1.876481e+04 -1.921858e+04 -2.077864e+04 -2.075624e+04 -2.209131e+04 -2.147508e+04 -2.269944e+04 -2.114182e+04 -2.248933e+04 -1.959933e+04 -2.122103e+04 -1.697139e+04 -1.870181e+04 -1.345142e+04 -1.523508e+04 -9.139425e+03 -1.108855e+04 -4.465704e+03 -6.536765e+03 8.626916e+02 -1.713483e+03 5.962907e+03 2.629388e+03 1.030085e+04 
3.712411e+03 1.121546e+04 7.114052e+03 1.422138e+04 9.584813e+03 8.806878e+03 1.187009e+04 1.014289e+04 1.338456e+04 1.096559e+04 1.419959e+04 1.134121e+04 1.443518e+04 1.134276e+04 1.419903e+04 1.103227e+04 1.357761e+04 1.045453e+04 1.263327e+04 9.631412e+03 1.140372e+04 8.554639e+03 9.898685e+03 7.196265e+03 8.083535e+03 5.513629e+03 5.953561e+03 3.535156e+03 3.535496e+03 1.301533e+03 8.587785e+02 -1.174492e+03 -2.055710e+03 -3.876729e+03 -5.181210e+03 -6.759089e+03 -8.387776e+03 -9.690963e+03 -1.155762e+04 -1.254833e+04 -1.458490e+04 -1.521485e+04 -1.735375e+04 -1.756204e+04 -1.975767e+04 -1.942493e+04 -2.166593e+04 -2.059113e+04 -2.289206e+04 -2.083864e+04 -2.318246e+04 -1.997487e+04 -2.224518e+04 -1.784958e+04 -1.987200e+04 -1.429263e+04 -1.601493e+04 -9.309678e+03 -1.098645e+04 -3.506966e+03 -5.610366e+03 2.153345e+03 -5.892109e+02 7.147773e+03 
4.431971e+03 1.113678e+04 6.623815e+03 1.314499e+04 8.172169e+03 6.655963e+03 9.691047e+03 7.519951e+03 1.066108e+04 8.042975e+03 1.113257e+04 8.250246e+03 1.117929e+04 8.176361e+03 1.086593e+04 7.852061e+03 1.024231e+04 7.297139e+03 9.339172e+03 6.514424e+03 8.167045e+03 5.484880e+03 6.720467e+03 4.169702e+03 4.966110e+03 2.535180e+03 2.897037e+03 5.956169e+02 5.314528e+02 -1.619282e+03 -2.081372e+03 -4.049029e+03 -4.880532e+03 -6.613026e+03 -7.797545e+03 -9.237355e+03 -1.066168e+04 -1.174891e+04 -1.326841e+04 -1.393384e+04 -1.543279e+04 -1.562601e+04 -1.704071e+04 -1.671286e+04 -1.804570e+04 -1.708916e+04 -1.840353e+04 -1.663860e+04 -1.803778e+04 -1.530111e+04 -1.685275e+04 -1.313126e+04 -1.481785e+04 -1.024508e+04 -1.207574e+04 -6.781804e+03 -8.826694e+03 -2.957838e+03 -5.297026e+03 1.092054e+03 -1.702068e+03 4.978608e+03 1.619398e+03 8.386308e+03 
2.270112e+03 8.796518e+03 5.065826e+03 1.128455e+04 7.187990e+03 6.950900e+03 9.255332e+03 8.166457e+03 1.070366e+04 8.967587e+03 1.157254e+04 9.389475e+03 1.193691e+04 9.477294e+03 1.186998e+04 9.272508e+03 1.143501e+04 8.806647e+03 1.068098e+04 8.097042e+03 9.640471e+03 7.145263e+03 8.328601e+03 5.943050e+03 6.744593e+03 4.481445e+03 4.895169e+03 2.775426e+03 2.801936e+03 8.517943e+02 4.947418e+02 -1.263572e+03 -1.990393e+03 -3.535254e+03 -4.602147e+03 -5.905382e+03 -7.255225e+03 -8.282425e+03 -9.856601e+03 -1.056461e+04 -1.231076e+04 -1.264563e+04 -1.451604e+04 -1.440877e+04 -1.636684e+04 -1.571944e+04 -1.774363e+04 -1.642685e+04 -1.850369e+04 -1.638180e+04 -1.848503e+04 -1.545787e+04 -1.753330e+04 -1.356804e+04 -1.556107e+04 -1.068017e+04 -1.261147e+04 -6.908549e+03 -8.930964e+03 -2.627574e+03 -4.962023e+03 1.649445e+03 -1.130628e+03 5.538232e+03 
3.208423e+03 9.141177e+03 5.017654e+03 1.080083e+04 6.340685e+03 5.295537e+03 7.709053e+03 6.052741e+03 8.623127e+03 6.530019e+03 9.115376e+03 6.738583e+03 9.233235e+03 6.697796e+03 9.021059e+03 6.426245e+03 8.515283e+03 5.936553e+03 7.741372e+03 5.231743e+03 6.713117e+03 4.304088e+03 5.434354e+03 3.139176e+03 3.901315e+03 1.728623e+03 2.121007e+03 8.603402e+01 1.173603e+02 -1.756792e+03 -2.066783e+03 -3.747531e+03 -4.372191e+03 -5.815746e+03 -6.718230e+03 -7.874962e+03 -8.983534e+03 -9.800896e+03 -1.102904e+04 -1.145173e+04 -1.272677e+04 -1.270175e+04 -1.398226e+04 -1.345095e+04 -1.473428e+04 -1.361613e+04 -1.493417e+04 -1.313129e+04 -1.453495e+04 -1.197208e+04 -1.350317e+04 -1.017503e+04 -1.185477e+04 -7.824915e+03 -9.685436e+03 -5.042019e+03 -7.141584e+03 -1.984317e+03 -4.396249e+03 1.178413e+03 -1.628949e+03 4.214339e+03 9.597330e+02 6.916873e+03 
1.321182e+03 6.985847e+03 3.609157e+03 9.032584e+03 5.410527e+03 5.488519e+03 7.229022e+03 6.565244e+03 8.555892e+03 7.307732e+03 9.408217e+03 7.731860e+03 9.829583e+03 7.863747e+03 9.867611e+03 7.729981e+03 9.567023e+03 7.352614e+03 8.965398e+03 6.746238e+03 8.091077e+03 5.917717e+03 6.963021e+03 4.869703e+03 5.593814e+03 3.606657e+03 3.998678e+03 2.143418e+03 2.200711e+03 5.038312e+02 2.310152e+02 -1.281998e+03 -1.870656e+03 -3.173804e+03 -4.052299e+03 -5.115919e+03 -6.246163e+03 -7.035015e+03 -8.375705e+03 -8.847208e+03 -1.035886e+04 -1.046187e+04 -1.210829e+04 -1.178126e+04 -1.353214e+04 -1.270017e+04 -1.453236e+04 -1.311025e+04 -1.500495e+04 -1.291121e+04 -1.484782e+04 -1.202532e+04 -1.398077e+04 -1.041347e+04 -1.237801e+04 -8.096065e+03 -1.010303e+04 -5.192089e+03 -7.332044e+03 -1.945411e+03 -4.331698e+03 1.334511e+03 -1.374912e+03 4.377373e+03 
2.343051e+03 7.575758e+03 3.827876e+03 8.937314e+03 4.943541e+03 4.191575e+03 6.138598e+03 4.838608e+03 6.962681e+03 5.254900e+03 7.433700e+03 5.443770e+03 7.580498e+03 5.415283e+03 7.432839e+03 5.180506e+03 7.017417e+03 4.748068e+03 6.355527e+03 4.122124e+03 5.462501e+03 3.302440e+03 4.349008e+03 2.287633e+03 3.024402e+03 1.081885e+03 1.504456e+03 -2.978167e+02 -1.838288e+02 -1.820196e+03 -1.999970e+03 -3.438667e+03 -3.889043e+03 -5.091730e+03 -5.779187e+03 -6.703100e+03 -7.579232e+03 -8.179073e+03 -9.189438e+03 -9.418277e+03 -1.051647e+04 -1.032668e+04 -1.148486e+04 -1.082568e+04 -1.203899e+04 -1.085380e+04 -1.213803e+04 -1.037085e+04 -1.175420e+04 -9.368235e+03 -1.088046e+04 -7.876457e+03 -9.545362e+03 -5.962173e+03 -7.822413e+03 -3.722583e+03 -5.820342e+03 -1.281310e+03 -3.668538e+03 1.220000e+03 -1.503177e+03 3.621954e+03 5.391302e+02 5.778424e+03 
7.063927e+02 5.618852e+03 2.576159e+03 7.295950e+03 4.092815e+03 4.333212e+03 5.663249e+03 5.268976e+03 6.845616e+03 5.934974e+03 7.641904e+03 6.335464e+03 8.074621e+03 6.484116e+03 8.173151e+03 6.397299e+03 7.968203e+03 6.090405e+03 7.488215e+03 5.575810e+03 6.757522e+03 4.862798e+03 5.796260e+03 3.959556e+03 4.622344e+03 2.876586e+03 3.255540e+03 1.630449e+03 1.720681e+03 2.446436e+02 4.909064e+01 -1.250294e+03 -1.720368e+03 -2.815050e+03 -3.539932e+03 -4.399576e+03 -5.352478e+03 -5.942877e+03 -7.093901e+03 -7.375846e+03 -8.695067e+03 -8.623838e+03 -1.008302e+04 -9.608227e+03 -1.118231e+04 -1.024853e+04 -1.191653e+04 -1.046708e+04 -1.221165e+04 -1.019718e+04 -1.200384e+04 -9.393570e+03 -1.125296e+04 -8.044753e+03 -9.960756e+03 -6.187209e+03 -8.187783e+03 -3.921173e+03 -6.059543e+03 -1.413386e+03 -3.749791e+03 1.133612e+03 -1.441672e+03 3.528748e+03 
1.740236e+03 6.346523e+03 2.952699e+03 7.454955e+03 3.881678e+03 3.296402e+03 4.901711e+03 3.835871e+03 5.620717e+03 4.184771e+03 6.046243e+03 4.342290e+03 6.194649e+03 4.313160e+03 6.085565e+03 4.104061e+03 5.738659e+03 3.721468e+03 5.171843e+03 3.170576e+03 4.400796e+03 2.455688e+03 3.439865e+03 1.582387e+03 2.304415e+03 5.612262e+02 1.014653e+03 -5.884992e+02 -4.012910e+02 -1.836941e+03 -1.905487e+03 -3.142912e+03 -3.449179e+03 -4.454042e+03 -4.972250e+03 -5.707487e+03 -6.404505e+03 -6.831455e+03 -7.671840e+03 -7.751079e+03 -8.704514e+03 -8.396472e+03 -9.443843e+03 -8.708838e+03 -9.845017e+03 -8.644323e+03 -9.877188e+03 -8.178105e+03 -9.524684e+03 -7.309597e+03 -8.791510e+03 -6.065825e+03 -7.707546e+03 -4.500635e+03 -6.331229e+03 -2.691475e+03 -4.744683e+03 -7.351983e+02 -3.044780e+03 1.257943e+03 -1.333484e+03 3.171457e+03 2.900671e+02 4.897242e+03 
3.193275e+02 4.579541e+03 1.848327e+03 5.950276e+03 3.118607e+03 3.419468e+03 4.458912e+03 4.220834e+03 5.493250e+03 4.804237e+03 6.214312e+03 5.167252e+03 6.630984e+03 5.315715e+03 6.760096e+03 5.259213e+03 6.622139e+03 5.008470e+03 6.238420e+03 4.573933e+03 5.629515e+03 3.965629e+03 4.814993e+03 3.194245e+03 3.814416e+03 2.272967e+03 2.649310e+03 1.219413e+03 1.345023e+03 5.666704e+01 -6.805552e+01 -1.186096e+03 -1.553688e+03 -2.472759e+03 -3.069273e+03 -3.759626e+03 -4.566004e+03 -4.995751e+03 -5.990044e+03 -6.124550e+03 -7.283904e+03 -7.085778e+03 -8.387866e+03 -7.817582e+03 -9.241771e+03 -8.259240e+03 -9.787487e+03 -8.355405e+03 -9.972846e+03 -8.062190e+03 -9.757952e+03 -7.354710e+03 -9.124042e+03 -6.235437e+03 -8.083562e+03 -4.742473e+03 -6.687963e+03 -2.955464e+03 -5.028188e+03 -9.928061e+02 -3.223742e+03 1.005483e+03 -1.402412e+03 2.901938e+03 
1.334636e+03 5.385441e+03 2.318831e+03 6.278821e+03 3.081985e+03 2.572425e+03 3.936262e+03 3.009716e+03 4.546486e+03 3.289780e+03 4.913677e+03 3.409907e+03 5.046269e+03 3.371990e+03 4.957082e+03 3.180286e+03 4.660790e+03 2.840139e+03 4.172565e+03 2.357457e+03 3.507658e+03 1.739100e+03 2.681918e+03 9.942535e+02 1.713196e+03 1.364980e+02 6.233635e+02 -8.141216e+02 -5.598709e+02 -1.829844e+03 -1.801776e+03 -2.874739e+03 -3.060111e+03 -3.905023e+03 -4.285482e+03 -4.870145e+03 -5.423164e+03 -5.714918e+03 -6.417048e+03 -6.383504e+03 -7.214603e+03 -6.824402e+03 -7.771202e+03 -6.994916e+03 -8.052831e+03 -6.864734e+03 -8.037619e+03 -6.419166e+03 -7.717569e+03 -5.662117e+03 -7.101147e+03 -4.617773e+03 -6.215815e+03 -3.330152e+03 -5.108384e+03 -1.860874e+03 -3.841781e+03 -2.856416e+02 -2.489251e+03 1.310674e+03 -1.127667e+03 2.840471e+03 1.687172e+02 4.221831e+03 