# vtk DataFile Version 2.0
Comment goes here
ASCII

DATASET STRUCTURED_POINTS
FIELD FieldData 1
TIME 1 1 double
0.84000000
DIMENSIONS    128   16   1

ORIGIN    0.000   0.000   0.000
SPACING   0.0078125 0.015625   1.000

POINT_DATA   2048
SCALARS P double
LOOKUP_TABLE default

8.018199e-01 7.938000e-01 8.051888e-01 8.022493e-01 8.050586e-01 8.104563e-01 8.003106e-01 8.216153e-01 8.021431e-01 8.261312e-01 8.020948e-01 8.239236e-01 7.947449e-01 8.085140e-01 7.691340e-01 7.744818e-01 7.356359e-01 7.342180e-01 7.003804e-01 6.969668e-01 6.701046e-01 6.706556e-01 6.587398e-01 6.626551e-01 6.591144e-01 6.615628e-01 6.625425e-01 6.612022e-01 6.648128e-01 6.599500e-01 6.664862e-01 6.602229e-01 6.704004e-01 6.640244e-01 6.765868e-01 6.692833e-01 6.815689e-01 6.722397e-01 6.826384e-01 6.719056e-01 6.808949e-01 6.706559e-01 6.792175e-01 6.706200e-01 6.788253e-01 6.719108e-01 6.794027e-01 6.738257e-01 6.803040e-01 6.754819e-01 6.805705e-01 6.754823e-01 6.786942e-01 6.724045e-01 6.739593e-01 6.663081e-01 6.667429e-01 6.565931e-01 6.566102e-01 6.465011e-01 6.466594e-01 6.333493e-01 6.353360e-01 6.204248e-01 6.244528e-01 6.074145e-01 6.127657e-01 5.968473e-01 6.031558e-01 5.865277e-01 5.971335e-01 5.787284e-01 5.898176e-01 5.767588e-01 5.902256e-01 5.809824e-01 5.953634e-01 5.884362e-01 6.026420e-01 5.969738e-01 6.111071e-01 6.064582e-01 6.212735e-01 6.171188e-01 6.326969e-01 6.275639e-01 6.434517e-01 6.361565e-01 6.528300e-01 6.435954e-01 6.623119e-01 6.517418e-01 6.729926e-01 6.610208e-01 6.841494e-01 6.705893e-01 6.948509e-01 6.805015e-01 7.055391e-01 6.915322e-01 7.160596e-01 7.024283e-01 7.240047e-01 7.105738e-01 7.278041e-01 7.162481e-01 7.302787e-01 7.235992e-01 7.360893e-01 7.351464e-01 7.454480e-01 7.475621e-01 7.538636e-01 7.556091e-01 7.584656e-01 7.584848e-01 7.617771e-01 7.598744e-01 7.678516e-01 7.623578e-01 7.770916e-01 7.656050e-01 7.872858e-01 7.705290e-01 7.921414e-01 7.769789e-01 7.969408e-01 7.850559e-01 
6.957037e-01 6.906282e-01 6.964059e-01 6.952839e-01 6.932302e-01 6.990413e-01 6.829730e-01 7.074314e-01 6.849384e-01 7.088560e-01 6.884873e-01 7.059858e-01 6.920414e-01 6.976026e-01 6.949579e-01 6.926056e-01 6.987560e-01 6.895718e-01 7.019723e-01 6.869867e-01 7.023829e-01 6.840658e-01 6.985254e-01 6.843939e-01 6.999278e-01 6.868392e-01 7.027899e-01 6.877998e-01 7.033924e-01 6.860276e-01 7.025831e-01 6.852439e-01 7.046920e-01 6.885520e-01 7.092605e-01 6.920623e-01 7.103284e-01 6.901476e-01 7.046985e-01 6.833269e-01 6.967984e-01 6.782468e-01 6.929779e-01 6.782500e-01 6.929427e-01 6.800629e-01 6.924256e-01 6.797176e-01 6.890360e-01 6.765738e-01 6.839055e-01 6.721624e-01 6.780461e-01 6.662390e-01 6.707722e-01 6.582716e-01 6.620537e-01 6.470556e-01 6.486565e-01 6.379610e-01 6.375777e-01 6.241473e-01 6.268969e-01 6.122418e-01 6.199623e-01 5.995068e-01 6.071067e-01 5.817107e-01 5.914365e-01 5.653273e-01 5.765341e-01 5.537950e-01 5.644082e-01 5.490073e-01 5.646017e-01 5.545125e-01 5.699389e-01 5.605377e-01 5.728747e-01 5.636177e-01 5.753746e-01 5.689466e-01 5.829373e-01 5.790515e-01 5.939333e-01 5.886330e-01 6.016286e-01 5.926349e-01 6.050612e-01 5.949033e-01 6.106540e-01 6.014674e-01 6.209475e-01 6.109919e-01 6.311093e-01 6.177241e-01 6.363077e-01 6.205869e-01 6.394474e-01 6.257052e-01 6.463599e-01 6.360183e-01 6.556265e-01 6.467646e-01 6.613770e-01 6.531827e-01 6.621275e-01 6.571392e-01 6.626928e-01 6.631289e-01 6.659430e-01 6.703642e-01 6.696382e-01 6.754217e-01 6.719777e-01 6.773623e-01 6.744281e-01 6.782102e-01 6.794642e-01 6.786777e-01 6.861571e-01 6.774161e-01 6.931507e-01 6.765014e-01 6.924032e-01 6.803843e-01 6.936859e-01 6.853544e-01 
8.048598e-01 7.944328e-01 8.122938e-01 8.029091e-01 8.144404e-01 8.048160e-01 7.874407e-01 8.352597e-01 8.062654e-01 8.401642e-01 8.171152e-01 8.507846e-01 8.314432e-01 8.464474e-01 7.858603e-01 7.883294e-01 7.398917e-01 7.293660e-01 6.897381e-01 6.735654e-01 6.271048e-01 6.270581e-01 6.259203e-01 6.391856e-01 6.428479e-01 6.510842e-01 6.575187e-01 6.587494e-01 6.653960e-01 6.601638e-01 6.689043e-01 6.627073e-01 6.773762e-01 6.728084e-01 6.901418e-01 6.824366e-01 6.952717e-01 6.805697e-01 6.871217e-01 6.694643e-01 6.761712e-01 6.641287e-01 6.761063e-01 6.709922e-01 6.846618e-01 6.812056e-01 6.909749e-01 6.853720e-01 6.898394e-01 6.833600e-01 6.859807e-01 6.816115e-01 6.847461e-01 6.827161e-01 6.874983e-01 6.898674e-01 6.900698e-01 6.698598e-01 6.644016e-01 6.657918e-01 6.558316e-01 6.373914e-01 6.411583e-01 6.337460e-01 6.437871e-01 6.141845e-01 6.167750e-01 6.025875e-01 5.861585e-01 5.673041e-01 5.911997e-01 5.430648e-01 5.519432e-01 5.519013e-01 5.791242e-01 5.800768e-01 6.012540e-01 5.965057e-01 6.082900e-01 5.996388e-01 6.099536e-01 6.059633e-01 6.220130e-01 6.231400e-01 6.413091e-01 6.389673e-01 6.521643e-01 6.417977e-01 6.528997e-01 6.412718e-01 6.592808e-01 6.515409e-01 6.769846e-01 6.685079e-01 6.939374e-01 6.776511e-01 6.982577e-01 6.759683e-01 6.973014e-01 6.790160e-01 7.068671e-01 6.959020e-01 7.256518e-01 7.166817e-01 7.397301e-01 7.286321e-01 7.423768e-01 7.327560e-01 7.416532e-01 7.385818e-01 7.446994e-01 7.473118e-01 7.497467e-01 7.552091e-01 7.547273e-01 7.607259e-01 7.608432e-01 7.655295e-01 7.704513e-01 7.685198e-01 7.806164e-01 7.652645e-01 7.995600e-01 7.682242e-01 7.926663e-01 7.738887e-01 7.968372e-01 7.837248e-01 
7.010416e-01 6.931688e-01 7.120568e-01 6.989458e-01 7.213493e-01 6.953681e-01 6.792756e-01 7.689909e-01 7.369504e-01 7.722675e-01 7.592081e-01 7.847959e-01 7.770407e-01 7.303045e-01 5.858513e-01 4.910136e-01 3.777007e-01 2.409479e-01 1.536268e-01 1.099208e-02 -9.560974e-02 -1.664736e-01 -1.409722e-01 -1.494659e-01 -1.230155e-01 -1.305324e-01 -1.037709e-01 -1.119377e-01 -8.596599e-02 -9.516943e-02 -6.961774e-02 -7.836909e-02 -5.214463e-02 -5.983504e-02 -3.416039e-02 -4.261319e-02 -1.987835e-02 -3.052002e-02 -1.114948e-02 -2.261550e-02 -4.177295e-03 -1.350997e-02 5.957107e-03 -8.007495e-04 1.862534e-02 1.269760e-02 3.024416e-02 2.412959e-02 3.937157e-02 3.390749e-02 4.826730e-02 4.470361e-02 5.934930e-02 5.793555e-02 7.309988e-02 7.524852e-02 6.124936e-02 -1.378221e-02 -3.047405e-02 -1.824090e-02 -6.595379e-02 -1.179816e-01 -1.355862e-01 -1.644802e-01 -1.586453e-01 -2.042596e-01 -1.561843e-01 -8.160726e-02 -5.203442e-02 3.282135e-02 1.958452e-01 1.404198e-01 1.277111e-01 1.256788e-01 1.580595e-01 1.582265e-01 1.860924e-01 1.848707e-01 2.079431e-01 2.058199e-01 2.272013e-01 2.269306e-01 2.494521e-01 2.510615e-01 2.736668e-01 2.742100e-01 2.946061e-01 2.926554e-01 3.120689e-01 3.101372e-01 3.319244e-01 3.318318e-01 3.563169e-01 3.563235e-01 3.809435e-01 3.784388e-01 4.014001e-01 3.970489e-01 4.200649e-01 4.175845e-01 4.424429e-01 4.432114e-01 4.680756e-01 4.702972e-01 4.918854e-01 4.940510e-01 5.110896e-01 5.143865e-01 5.281899e-01 5.344359e-01 5.458488e-01 5.548029e-01 5.639161e-01 5.744408e-01 5.819594e-01 5.927206e-01 6.003210e-01 6.098231e-01 6.197797e-01 6.250646e-01 6.402138e-01 6.366259e-01 6.903135e-01 6.740189e-01 6.846095e-01 6.762962e-01 6.908845e-01 6.842170e-01 
8.101943e-01 8.038919e-01 8.402705e-01 8.292067e-01 8.746323e-01 8.556050e-01 8.883563e-01 9.417631e-01 9.683842e-01 9.752930e-01 1.020944e+00 1.010598e+00 1.067971e+00 9.904558e-01 4.711963e-01 2.249360e-01 -2.114073e-01 -5.708621e-01 -9.487231e-01 -1.297731e+00 -1.771489e+00 -1.829612e+00 -1.778851e+00 -1.785155e+00 -1.742189e+00 -1.741937e+00 -1.703065e+00 -1.695292e+00 -1.657680e+00 -1.643387e+00 -1.608960e+00 -1.593671e+00 -1.566401e+00 -1.552771e+00 -1.529804e+00 -1.513414e+00 -1.488031e+00 -1.465341e+00 -1.435847e+00 -1.410831e+00 -1.383286e+00 -1.364140e+00 -1.343154e+00 -1.330962e+00 -1.312652e+00 -1.302014e+00 -1.280675e+00 -1.267482e+00 -1.241677e+00 -1.226899e+00 -1.199921e+00 -1.186766e+00 -1.160945e+00 -1.150391e+00 -1.127893e+00 -1.122876e+00 -1.131408e+00 -1.192393e+00 -1.207706e+00 -1.192433e+00 -1.237930e+00 -1.261912e+00 -1.284400e+00 -1.297890e+00 -1.281457e+00 -1.275594e+00 -1.173706e+00 -1.053938e+00 -9.343197e-01 -7.951217e-01 -5.795125e-01 -5.656210e-01 -5.666256e-01 -5.732895e-01 -5.445720e-01 -5.459024e-01 -5.118279e-01 -5.043399e-01 -4.614656e-01 -4.481388e-01 -4.042506e-01 -3.944550e-01 -3.563698e-01 -3.512480e-01 -3.152478e-01 -3.067915e-01 -2.657427e-01 -2.495934e-01 -2.059212e-01 -1.885792e-01 -1.506236e-01 -1.370732e-01 -1.050932e-01 -9.096339e-02 -5.774575e-02 -3.627678e-02 2.459420e-03 2.965837e-02 6.781539e-02 9.140078e-02 1.224844e-01 1.395971e-01 1.672791e-01 1.833904e-01 2.154472e-01 2.349133e-01 2.735439e-01 2.931790e-01 3.339506e-01 3.488011e-01 3.898818e-01 4.001700e-01 4.430181e-01 4.503768e-01 4.953775e-01 5.006095e-01 5.461151e-01 5.492983e-01 5.936618e-01 5.978643e-01 6.424421e-01 6.510011e-01 7.146337e-01 7.271763e-01 7.500079e-01 7.535113e-01 7.810995e-01 7.788168e-01 
7.020263e-01 7.073416e-01 7.329085e-01 7.388295e-01 7.669303e-01 7.769590e-01 8.076316e-01 8.278802e-01 8.578599e-01 8.712137e-01 9.048069e-01 9.122866e-01 9.483876e-01 9.476270e-01 2.790397e-01 2.090743e-01 -4.099807e-01 -5.139045e-01 -1.122348e+00 -1.209199e+00 -1.858247e+00 -1.870643e+00 -1.820602e+00 -1.828179e+00 -1.781481e+00 -1.786081e+00 -1.741712e+00 -1.741251e+00 -1.697896e+00 -1.692473e+00 -1.651937e+00 -1.645376e+00 -1.610715e+00 -1.604840e+00 -1.573851e+00 -1.565281e+00 -1.532831e+00 -1.518943e+00 -1.483728e+00 -1.467653e+00 -1.434237e+00 -1.422296e+00 -1.394147e+00 -1.387251e+00 -1.361413e+00 -1.355487e+00 -1.327525e+00 -1.319422e+00 -1.288099e+00 -1.278425e+00 -1.246190e+00 -1.236971e+00 -1.205691e+00 -1.196843e+00 -1.168010e+00 -1.160122e+00 -1.139124e+00 -1.134209e+00 -1.122004e+00 -1.120666e+00 -1.110238e+00 -1.111049e+00 -1.098473e+00 -1.098736e+00 -1.063950e+00 -1.041955e+00 -9.800635e-01 -9.507109e-01 -8.830038e-01 -8.440385e-01 -7.564570e-01 -7.245384e-01 -6.778238e-01 -6.721493e-01 -6.325428e-01 -6.280727e-01 -5.884464e-01 -5.793436e-01 -5.351346e-01 -5.224070e-01 -4.785206e-01 -4.685312e-01 -4.297505e-01 -4.229793e-01 -3.863819e-01 -3.766081e-01 -3.368210e-01 -3.206916e-01 -2.796091e-01 -2.619874e-01 -2.259749e-01 -2.106022e-01 -1.799167e-01 -1.634636e-01 -1.326457e-01 -1.100168e-01 -7.574368e-02 -4.828984e-02 -1.498443e-02 1.001200e-02 3.765645e-02 5.777551e-02 8.274305e-02 1.019369e-01 1.303611e-01 1.518126e-01 1.856351e-01 2.068471e-01 2.429152e-01 2.600149e-01 2.969042e-01 3.099529e-01 3.485822e-01 3.588959e-01 3.993589e-01 4.078316e-01 4.486601e-01 4.557930e-01 4.953750e-01 5.039916e-01 5.424352e-01 5.561034e-01 5.924092e-01 6.123353e-01 6.364824e-01 6.475641e-01 6.710816e-01 6.779602e-01 
8.104983e-01 8.110784e-01 8.492864e-01 8.497267e-01 8.895602e-01 8.921583e-01 9.321812e-01 9.416808e-01 9.828514e-01 9.892182e-01 1.034307e+00 1.037341e+00 1.085720e+00 1.087536e+00 3.668251e-01 3.011548e-01 -3.719771e-01 -4.688467e-01 -1.136214e+00 -1.210851e+00 -1.926419e+00 -1.920841e+00 -1.875932e+00 -1.869891e+00 -1.827574e+00 -1.819904e+00 -1.780196e+00 -1.770019e+00 -1.732716e+00 -1.720043e+00 -1.685467e+00 -1.671207e+00 -1.639698e+00 -1.624384e+00 -1.595088e+00 -1.578254e+00 -1.549680e+00 -1.531112e+00 -1.502683e+00 -1.483504e+00 -1.455965e+00 -1.437926e+00 -1.411832e+00 -1.395453e+00 -1.369977e+00 -1.354422e+00 -1.328248e+00 -1.312578e+00 -1.285063e+00 -1.269003e+00 -1.240353e+00 -1.223826e+00 -1.194211e+00 -1.176347e+00 -1.145513e+00 -1.124180e+00 -1.091131e+00 -1.060037e+00 -1.024629e+00 -1.003471e+00 -9.689058e-01 -9.567528e-01 -9.222420e-01 -9.080568e-01 -8.668128e-01 -8.516485e-01 -8.188499e-01 -8.129235e-01 -7.853872e-01 -7.750101e-01 -7.383048e-01 -7.206550e-01 -6.713810e-01 -6.536524e-01 -6.099321e-01 -5.964084e-01 -5.547173e-01 -5.418221e-01 -4.998839e-01 -4.868010e-01 -4.450909e-01 -4.325975e-01 -3.919956e-01 -3.799017e-01 -3.399026e-01 -3.267063e-01 -2.863756e-01 -2.712085e-01 -2.310556e-01 -2.147367e-01 -1.761340e-01 -1.594080e-01 -1.224719e-01 -1.047355e-01 -6.828547e-02 -4.867404e-02 -1.195563e-02 8.931400e-03 4.516671e-02 6.549563e-02 1.005224e-01 1.193989e-01 1.541393e-01 1.720594e-01 2.081916e-01 2.255622e-01 2.638294e-01 2.799203e-01 3.198688e-01 3.336767e-01 3.749498e-01 3.863406e-01 4.289670e-01 4.383364e-01 4.821277e-01 4.899403e-01 5.342896e-01 5.410234e-01 5.852938e-01 5.917624e-01 6.357287e-01 6.425425e-01 6.859720e-01 6.926929e-01 7.308062e-01 7.350506e-01 7.716314e-01 7.736257e-01 
7.028913e-01 7.125925e-01 7.405846e-01 7.510954e-01 7.801482e-01 7.926444e-01 8.230055e-01 8.381257e-01 8.697596e-01 8.862409e-01 9.195674e-01 9.381923e-01 9.731354e-01 9.966932e-01 2.633557e-01 2.571104e-01 -4.503090e-01 -4.704553e-01 -1.174024e+00 -1.187168e+00 -1.910476e+00 -1.898246e+00 -1.850958e+00 -1.844300e+00 -1.798499e+00 -1.793928e+00 -1.749818e+00 -1.745122e+00 -1.702871e+00 -1.697161e+00 -1.657240e+00 -1.650636e+00 -1.613386e+00 -1.605980e+00 -1.570833e+00 -1.562179e+00 -1.528036e+00 -1.517898e+00 -1.484203e+00 -1.473273e+00 -1.440346e+00 -1.429805e+00 -1.397945e+00 -1.388306e+00 -1.357025e+00 -1.347958e+00 -1.316425e+00 -1.307456e+00 -1.275151e+00 -1.266144e+00 -1.232959e+00 -1.223985e+00 -1.189755e+00 -1.180833e+00 -1.145003e+00 -1.136299e+00 -1.097349e+00 -1.089122e+00 -1.046180e+00 -1.039145e+00 -9.990027e-01 -9.898562e-01 -9.504953e-01 -9.362260e-01 -8.996004e-01 -8.852286e-01 -8.506984e-01 -8.320336e-01 -7.933087e-01 -7.729612e-01 -7.389423e-01 -7.241897e-01 -6.881474e-01 -6.750666e-01 -6.371465e-01 -6.256049e-01 -5.865153e-01 -5.751235e-01 -5.350703e-01 -5.234300e-01 -4.833087e-01 -4.717178e-01 -4.323539e-01 -4.205399e-01 -3.818626e-01 -3.688131e-01 -3.304493e-01 -3.155440e-01 -2.779146e-01 -2.615546e-01 -2.255653e-01 -2.082025e-01 -1.740207e-01 -1.553990e-01 -1.223654e-01 -1.021148e-01 -6.971146e-02 -4.832114e-02 -1.675530e-02 4.607625e-03 3.525750e-02 5.595726e-02 8.654778e-02 1.066563e-01 1.383287e-01 1.577228e-01 1.909006e-01 2.088061e-01 2.432196e-01 2.589612e-01 2.945104e-01 3.082321e-01 3.450450e-01 3.573303e-01 3.951471e-01 4.065124e-01 4.444706e-01 4.553665e-01 4.924234e-01 5.035553e-01 5.389196e-01 5.508878e-01 5.838262e-01 5.962963e-01 6.260498e-01 6.372442e-01 6.653012e-01 6.753273e-01 
8.109637e-01 8.133052e-01 8.521306e-01 8.548235e-01 8.946531e-01 8.988863e-01 9.397859e-01 9.464328e-01 9.889118e-01 9.965662e-01 1.041327e+00 1.050598e+00 1.097527e+00 1.111450e+00 3.516464e-01 3.293785e-01 -4.015727e-01 -4.384271e-01 -1.169310e+00 -1.190902e+00 -1.953186e+00 -1.933370e+00 -1.890979e+00 -1.876798e+00 -1.835836e+00 -1.823556e+00 -1.784380e+00 -1.771948e+00 -1.734799e+00 -1.721418e+00 -1.686567e+00 -1.672218e+00 -1.639743e+00 -1.624537e+00 -1.594017e+00 -1.577878e+00 -1.548551e+00 -1.531444e+00 -1.502686e+00 -1.484925e+00 -1.456491e+00 -1.438650e+00 -1.410460e+00 -1.393004e+00 -1.364879e+00 -1.347999e+00 -1.319653e+00 -1.303324e+00 -1.274422e+00 -1.258481e+00 -1.228652e+00 -1.212891e+00 -1.181750e+00 -1.166156e+00 -1.133394e+00 -1.118549e+00 -1.083826e+00 -1.071525e+00 -1.033740e+00 -1.023312e+00 -9.859191e-01 -9.731701e-01 -9.373133e-01 -9.213452e-01 -8.885006e-01 -8.714304e-01 -8.393454e-01 -8.190252e-01 -7.851804e-01 -7.645121e-01 -7.299721e-01 -7.116664e-01 -6.733508e-01 -6.563613e-01 -6.163660e-01 -6.007302e-01 -5.601171e-01 -5.454542e-01 -5.045263e-01 -4.903782e-01 -4.493424e-01 -4.353613e-01 -3.944395e-01 -3.802677e-01 -3.395813e-01 -3.247845e-01 -2.844019e-01 -2.686698e-01 -2.288038e-01 -2.121234e-01 -1.730933e-01 -1.556100e-01 -1.175901e-01 -9.943099e-02 -6.235207e-02 -4.366576e-02 -7.334876e-03 1.159016e-02 4.743457e-02 6.626789e-02 1.020937e-01 1.206203e-01 1.570479e-01 1.750040e-01 2.124279e-01 2.292315e-01 2.676167e-01 2.825429e-01 3.217751e-01 3.345446e-01 3.748581e-01 3.858522e-01 4.276239e-01 4.374086e-01 4.805628e-01 4.893763e-01 5.332102e-01 5.410372e-01 5.846870e-01 5.916346e-01 6.344938e-01 6.407453e-01 6.823242e-01 6.877615e-01 7.272967e-01 7.314442e-01 7.698045e-01 7.727555e-01 
7.033301e-01 7.128777e-01 7.407325e-01 7.511241e-01 7.800738e-01 7.924736e-01 8.227650e-01 8.378161e-01 8.694295e-01 8.858891e-01 9.192150e-01 9.378251e-01 9.727449e-01 9.962985e-01 2.632125e-01 2.570762e-01 -4.504357e-01 -4.704189e-01 -1.174754e+00 -1.187676e+00 -1.912854e+00 -1.899895e+00 -1.853073e+00 -1.846191e+00 -1.800457e+00 -1.795527e+00 -1.751001e+00 -1.745615e+00 -1.702580e+00 -1.696097e+00 -1.655433e+00 -1.648424e+00 -1.610856e+00 -1.603700e+00 -1.568793e+00 -1.560991e+00 -1.527388e+00 -1.518235e+00 -1.484777e+00 -1.474261e+00 -1.440630e+00 -1.429444e+00 -1.395819e+00 -1.384758e+00 -1.351364e+00 -1.341051e+00 -1.308032e+00 -1.298744e+00 -1.265886e+00 -1.257271e+00 -1.223810e+00 -1.215017e+00 -1.180087e+00 -1.170594e+00 -1.134101e+00 -1.124294e+00 -1.086882e+00 -1.077286e+00 -1.039581e+00 -1.029847e+00 -9.923205e-01 -9.812952e-01 -9.438242e-01 -9.311601e-01 -8.943902e-01 -8.811605e-01 -8.453941e-01 -8.318319e-01 -7.960732e-01 -7.821257e-01 -7.457227e-01 -7.316371e-01 -6.935900e-01 -6.796136e-01 -6.404348e-01 -6.273461e-01 -5.879021e-01 -5.758054e-01 -5.363159e-01 -5.245604e-01 -4.848952e-01 -4.727834e-01 -4.331164e-01 -4.203027e-01 -3.810371e-01 -3.671904e-01 -3.285647e-01 -3.132781e-01 -2.754794e-01 -2.585733e-01 -2.219364e-01 -2.036089e-01 -1.685676e-01 -1.492577e-01 -1.160796e-01 -9.625189e-02 -6.488801e-02 -4.489386e-02 -1.475258e-02 5.518697e-03 3.574876e-02 5.674068e-02 8.838987e-02 1.099054e-01 1.431330e-01 1.635664e-01 1.971778e-01 2.144782e-01 2.476353e-01 2.614440e-01 2.951395e-01 3.072021e-01 3.432355e-01 3.554291e-01 3.940474e-01 4.065048e-01 4.457605e-01 4.575987e-01 4.952935e-01 5.065370e-01 5.417542e-01 5.533438e-01 5.859184e-01 5.980086e-01 6.274298e-01 6.383320e-01 6.661355e-01 6.759515e-01 
8.113747e-01 8.116338e-01 8.495071e-01 8.496946e-01 8.892348e-01 8.916372e-01 9.314074e-01 9.408100e-01 9.817948e-01 9.882631e-01 1.033121e+00 1.036433e+00 1.084385e+00 1.086769e+00 3.658219e-01 3.005401e-01 -3.730972e-01 -4.693303e-01 -1.137847e+00 -1.210983e+00 -1.928925e+00 -1.920305e+00 -1.877815e+00 -1.870460e+00 -1.829407e+00 -1.820700e+00 -1.781088e+00 -1.769571e+00 -1.731491e+00 -1.717478e+00 -1.682041e+00 -1.667154e+00 -1.635400e+00 -1.620605e+00 -1.591909e+00 -1.576600e+00 -1.549016e+00 -1.532115e+00 -1.504009e+00 -1.485374e+00 -1.456362e+00 -1.436862e+00 -1.407289e+00 -1.387994e+00 -1.358368e+00 -1.340264e+00 -1.311089e+00 -1.294756e+00 -1.265966e+00 -1.250980e+00 -1.221519e+00 -1.206586e+00 -1.175170e+00 -1.159560e+00 -1.126234e+00 -1.110806e+00 -1.076839e+00 -1.062709e+00 -1.028835e+00 -1.015387e+00 -9.813901e-01 -9.668846e-01 -9.324607e-01 -9.165844e-01 -8.826070e-01 -8.666670e-01 -8.336531e-01 -8.180808e-01 -7.848303e-01 -7.689669e-01 -7.334572e-01 -7.165850e-01 -6.778547e-01 -6.605245e-01 -6.199673e-01 -6.037317e-01 -5.629435e-01 -5.483372e-01 -5.075764e-01 -4.937461e-01 -4.524881e-01 -4.384442e-01 -3.967125e-01 -3.821968e-01 -3.405484e-01 -3.253902e-01 -2.841039e-01 -2.678590e-01 -2.270028e-01 -2.093779e-01 -1.692242e-01 -1.504749e-01 -1.116488e-01 -9.247101e-02 -5.553588e-02 -3.661997e-02 -1.723667e-03 1.656193e-02 5.014335e-02 6.834153e-02 1.024844e-01 1.217170e-01 1.582528e-01 1.785738e-01 2.174291e-01 2.365644e-01 2.755257e-01 2.904046e-01 3.279836e-01 3.381886e-01 3.760355e-01 3.843689e-01 4.255898e-01 4.348361e-01 4.801642e-01 4.900394e-01 5.368137e-01 5.453053e-01 5.907611e-01 5.974543e-01 6.411636e-01 6.473243e-01 6.901003e-01 6.961298e-01 7.335986e-01 7.372792e-01 7.733397e-01 7.749099e-01 
7.029251e-01 7.078681e-01 7.330779e-01 7.386879e-01 7.664832e-01 7.762036e-01 8.066038e-01 8.265653e-01 8.566013e-01 8.700510e-01 9.038120e-01 9.112340e-01 9.473411e-01 9.464113e-01 2.795327e-01 2.101316e-01 -4.078837e-01 -5.113362e-01 -1.120353e+00 -1.208333e+00 -1.859516e+00 -1.875212e+00 -1.826519e+00 -1.835982e+00 -1.789822e+00 -1.794133e+00 -1.748054e+00 -1.744531e+00 -1.697196e+00 -1.687656e+00 -1.643343e+00 -1.634408e+00 -1.598271e+00 -1.593359e+00 -1.564117e+00 -1.559993e+00 -1.531565e+00 -1.523446e+00 -1.491492e+00 -1.478616e+00 -1.443574e+00 -1.428559e+00 -1.392268e+00 -1.377294e+00 -1.341213e+00 -1.328550e+00 -1.294901e+00 -1.286696e+00 -1.256346e+00 -1.251537e+00 -1.221264e+00 -1.214744e+00 -1.179497e+00 -1.167914e+00 -1.128189e+00 -1.115192e+00 -1.076840e+00 -1.067210e+00 -1.032823e+00 -1.025014e+00 -9.905798e-01 -9.790727e-01 -9.409070e-01 -9.255573e-01 -8.874386e-01 -8.744129e-01 -8.413918e-01 -8.331342e-01 -8.029436e-01 -7.944129e-01 -7.596319e-01 -7.452483e-01 -7.031884e-01 -6.851758e-01 -6.412640e-01 -6.262109e-01 -5.855257e-01 -5.753260e-01 -5.369118e-01 -5.278296e-01 -4.879191e-01 -4.766676e-01 -4.350826e-01 -4.225930e-01 -3.817843e-01 -3.687684e-01 -3.291314e-01 -3.141820e-01 -2.748742e-01 -2.566292e-01 -2.176104e-01 -1.965629e-01 -1.595911e-01 -1.377358e-01 -1.046076e-01 -8.379931e-02 -5.584004e-02 -3.768601e-02 -1.421332e-02 3.191199e-03 2.768123e-02 4.975274e-02 8.182429e-02 1.111695e-01 1.507305e-01 1.804067e-01 2.178043e-01 2.359342e-01 2.638627e-01 2.687575e-01 2.933988e-01 2.962967e-01 3.305600e-01 3.421333e-01 3.893402e-01 4.064237e-01 4.557678e-01 4.684514e-01 5.104493e-01 5.180390e-01 5.537671e-01 5.643443e-01 5.985663e-01 6.169958e-01 6.399563e-01 6.501847e-01 6.729848e-01 6.793352e-01 
8.112442e-01 8.044392e-01 8.402752e-01 8.287506e-01 8.735934e-01 8.540137e-01 8.862151e-01 9.391045e-01 9.657665e-01 9.728617e-01 1.018596e+00 1.008387e+00 1.065604e+00 9.884792e-01 4.709980e-01 2.236464e-01 -2.124133e-01 -5.733019e-01 -9.510531e-01 -1.299598e+00 -1.763065e+00 -1.825758e+00 -1.778818e+00 -1.787969e+00 -1.747296e+00 -1.747285e+00 -1.707679e+00 -1.696742e+00 -1.655394e+00 -1.636632e+00 -1.598594e+00 -1.580954e+00 -1.552712e+00 -1.540702e+00 -1.520464e+00 -1.509776e+00 -1.489641e+00 -1.474004e+00 -1.448537e+00 -1.427046e+00 -1.397128e+00 -1.373257e+00 -1.341443e+00 -1.317922e+00 -1.286113e+00 -1.265770e+00 -1.236914e+00 -1.222566e+00 -1.197943e+00 -1.188326e+00 -1.163865e+00 -1.152422e+00 -1.121553e+00 -1.104034e+00 -1.067460e+00 -1.048909e+00 -1.014411e+00 -1.001401e+00 -9.723273e-01 -9.623941e-01 -9.331107e-01 -9.190230e-01 -8.843548e-01 -8.657481e-01 -8.305980e-01 -8.155352e-01 -7.865355e-01 -7.779142e-01 -7.521973e-01 -7.434711e-01 -7.109172e-01 -6.947542e-01 -6.522606e-01 -6.309591e-01 -5.857014e-01 -5.680900e-01 -5.268322e-01 -5.154787e-01 -4.769334e-01 -4.670616e-01 -4.262204e-01 -4.137470e-01 -3.703576e-01 -3.567944e-01 -3.140064e-01 -3.004656e-01 -2.586124e-01 -2.433515e-01 -2.011628e-01 -1.825014e-01 -1.398209e-01 -1.184691e-01 -7.755503e-02 -5.608582e-02 -1.928833e-02 -2.873881e-06 3.077013e-02 4.581570e-02 7.106953e-02 8.443087e-02 1.110137e-01 1.300552e-01 1.664102e-01 1.950726e-01 2.410977e-01 2.708253e-01 3.137997e-01 3.293034e-01 3.594653e-01 3.585770e-01 3.838863e-01 3.812035e-01 4.185738e-01 4.278162e-01 4.817455e-01 4.983261e-01 5.549353e-01 5.653880e-01 6.129117e-01 6.159175e-01 6.571687e-01 6.621008e-01 7.230651e-01 7.335122e-01 7.545897e-01 7.569153e-01 7.835093e-01 7.805248e-01 
7.013045e-01 6.932198e-01 7.117999e-01 6.984219e-01 7.204341e-01 6.940830e-01 6.777721e-01 7.672439e-01 7.353455e-01 7.707088e-01 7.578054e-01 7.838562e-01 7.765536e-01 7.308132e-01 5.871501e-01 4.931655e-01 3.811050e-01 2.458266e-01 1.596958e-01 2.019041e-02 -8.528746e-02 -1.539189e-01 -1.266141e-01 -1.349133e-01 -1.087541e-01 -1.180974e-01 -9.403037e-02 -1.060699e-01 -8.473682e-02 -9.863110e-02 -7.785920e-02 -9.025960e-02 -6.727316e-02 -7.628440e-02 -5.128530e-02 -5.821507e-02 -3.371426e-02 -4.077413e-02 -1.861883e-02 -2.638061e-02 -6.359156e-03 -1.401951e-02 4.601595e-03 -2.439454e-03 1.534438e-02 9.588715e-03 2.758456e-02 2.389441e-02 4.262399e-02 4.036465e-02 5.846896e-02 5.506852e-02 7.030990e-02 6.394778e-02 7.667446e-02 6.880511e-02 8.177207e-02 7.437095e-02 8.881739e-02 8.198223e-02 9.641875e-02 8.733466e-02 1.006079e-01 8.940741e-02 1.037032e-01 9.341186e-02 1.114553e-01 1.039232e-01 1.246575e-01 1.174672e-01 1.379194e-01 1.285040e-01 1.467908e-01 1.376114e-01 1.564028e-01 1.505391e-01 1.718946e-01 1.701165e-01 1.932046e-01 1.935124e-01 2.162613e-01 2.168690e-01 2.390671e-01 2.402607e-01 2.630560e-01 2.650103e-01 2.885664e-01 2.903448e-01 3.141417e-01 3.146993e-01 3.384651e-01 3.375991e-01 3.618331e-01 3.601566e-01 3.853401e-01 3.835974e-01 4.100220e-01 4.090971e-01 4.362016e-01 4.355346e-01 4.605844e-01 4.581033e-01 4.779382e-01 4.729287e-01 4.875451e-01 4.837359e-01 4.976872e-01 5.009795e-01 5.177601e-01 5.289374e-01 5.457690e-01 5.591702e-01 5.703078e-01 5.802460e-01 5.848001e-01 5.918895e-01 5.960386e-01 6.037489e-01 6.134654e-01 6.203734e-01 6.378106e-01 6.367808e-01 6.914479e-01 6.753797e-01 6.857078e-01 6.772846e-01 6.915984e-01 6.847593e-01 
8.048291e-01 7.943463e-01 8.120776e-01 8.025554e-01 8.139285e-01 8.041313e-01 7.867605e-01 8.344746e-01 8.054253e-01 8.389119e-01 8.158272e-01 8.492963e-01 8.303963e-01 8.450115e-01 7.850520e-01 7.863321e-01 7.390427e-01 7.277399e-01 6.916962e-01 6.773608e-01 6.376343e-01 6.402889e-01 6.440001e-01 6.581499e-01 6.630456e-01 6.690682e-01 6.721873e-01 6.672201e-01 6.666216e-01 6.536400e-01 6.551101e-01 6.436261e-01 6.543381e-01 6.494117e-01 6.678480e-01 6.653399e-01 6.835142e-01 6.770714e-01 6.894056e-01 6.780103e-01 6.853556e-01 6.723291e-01 6.771883e-01 6.649421e-01 6.691112e-01 6.601191e-01 6.665331e-01 6.633120e-01 6.733047e-01 6.742237e-01 6.837263e-01 6.816574e-01 6.840627e-01 6.741355e-01 6.702868e-01 6.571169e-01 6.550134e-01 6.448293e-01 6.480840e-01 6.394685e-01 6.429961e-01 6.284118e-01 6.278140e-01 6.074833e-01 6.083266e-01 5.909136e-01 6.004867e-01 5.901070e-01 6.058207e-01 5.956763e-01 6.083105e-01 5.910628e-01 5.965777e-01 5.767562e-01 5.824124e-01 5.689528e-01 5.809088e-01 5.760208e-01 5.922422e-01 5.905146e-01 6.054502e-01 6.022425e-01 6.155003e-01 6.119565e-01 6.267553e-01 6.235672e-01 6.402435e-01 6.351289e-01 6.523474e-01 6.430886e-01 6.605487e-01 6.474120e-01 6.670964e-01 6.523726e-01 6.761834e-01 6.621487e-01 6.914979e-01 6.805582e-01 7.144480e-01 7.045845e-01 7.355542e-01 7.199558e-01 7.389409e-01 7.143508e-01 7.211779e-01 6.971579e-01 7.048360e-01 6.976581e-01 7.163283e-01 7.282367e-01 7.499593e-01 7.652871e-01 7.732262e-01 7.766941e-01 7.673590e-01 7.621880e-01 7.516530e-01 7.498438e-01 7.525858e-01 7.531358e-01 7.697498e-01 7.592781e-01 7.962816e-01 7.665197e-01 7.917856e-01 7.735463e-01 7.967134e-01 7.837242e-01 
6.956062e-01 6.905338e-01 6.962712e-01 6.951162e-01 6.930214e-01 6.988056e-01 6.827630e-01 7.072493e-01 6.847518e-01 7.086304e-01 6.882859e-01 7.059196e-01 6.921652e-01 6.979322e-01 6.954770e-01 6.932311e-01 6.996904e-01 6.908203e-01 7.041315e-01 6.902044e-01 7.072626e-01 6.902961e-01 7.061345e-01 6.924993e-01 7.082257e-01 6.942225e-01 7.086178e-01 6.910421e-01 7.035461e-01 6.829581e-01 6.964237e-01 6.768671e-01 6.945819e-01 6.782648e-01 6.993032e-01 6.842084e-01 7.045120e-01 6.876792e-01 7.044280e-01 6.856041e-01 6.992314e-01 6.803835e-01 6.922531e-01 6.748227e-01 6.857511e-01 6.707533e-01 6.817619e-01 6.699550e-01 6.813902e-01 6.717685e-01 6.818756e-01 6.711903e-01 6.772864e-01 6.632622e-01 6.658573e-01 6.502728e-01 6.529420e-01 6.384059e-01 6.428189e-01 6.290266e-01 6.334666e-01 6.167611e-01 6.202166e-01 6.004036e-01 6.056105e-01 5.858854e-01 5.955311e-01 5.777817e-01 5.906753e-01 5.730713e-01 5.848815e-01 5.654770e-01 5.744137e-01 5.556314e-01 5.650176e-01 5.506857e-01 5.627839e-01 5.534697e-01 5.671930e-01 5.604306e-01 5.736810e-01 5.674507e-01 5.802772e-01 5.745719e-01 5.881650e-01 5.824971e-01 5.968306e-01 5.897578e-01 6.045413e-01 5.952245e-01 6.108554e-01 5.996062e-01 6.170418e-01 6.047531e-01 6.244589e-01 6.120125e-01 6.341280e-01 6.227701e-01 6.465246e-01 6.359282e-01 6.577252e-01 6.454138e-01 6.607201e-01 6.456326e-01 6.538457e-01 6.405274e-01 6.470475e-01 6.429495e-01 6.522633e-01 6.585159e-01 6.673911e-01 6.768039e-01 6.782732e-01 6.834042e-01 6.766095e-01 6.777462e-01 6.706634e-01 6.718950e-01 6.721885e-01 6.722809e-01 6.813940e-01 6.745184e-01 6.913494e-01 6.754542e-01 6.917747e-01 6.800552e-01 6.934868e-01 6.852497e-01 
