# vtk DataFile Version 2.0
Comment goes here
ASCII

DATASET STRUCTURED_POINTS
FIELD FieldData 1
TIME 1 1 double
0.18000000
DIMENSIONS    128   16   1

ORIGIN    0.000   0.000   0.000
SPACING   0.0078125 0.015625   1.000

POINT_DATA   2048
SCALARS P double
LOOKUP_TABLE default

-1.880448e+00 -1.877241e+00 -1.900359e+00 -1.897402e+00 -1.918281e+00 -1.919828e+00 -1.937666e+00 -1.949795e+00 -1.973746e+00 -1.981128e+00 -2.009145e+00 -2.006510e+00 -2.037439e+00 -2.023554e+00 -2.054162e+00 -2.025923e+00 -2.055003e+00 -2.018879e+00 -2.045273e+00 -1.998727e+00 -2.001499e+00 -1.921325e+00 -1.871764e+00 -1.766517e+00 -1.696005e+00 -1.595760e+00 -1.519737e+00 -1.425785e+00 -1.364220e+00 -1.310656e+00 -1.270836e+00 -1.241688e+00 -1.192691e+00 -1.136090e+00 -1.048031e+00 -9.539177e-01 -8.466672e-01 -7.599419e-01 -6.701631e-01 -6.119788e-01 -5.352015e-01 -4.613360e-01 -3.773996e-01 -2.744422e-01 -1.451470e-01 -3.098299e-02 1.317954e-01 2.528753e-01 4.133315e-01 5.429402e-01 6.869967e-01 8.255203e-01 9.693581e-01 1.115399e+00 1.266268e+00 1.396941e+00 1.512839e+00 1.569396e+00 1.612428e+00 1.656924e+00 1.699171e+00 1.682023e+00 1.566261e+00 1.360224e+00 1.128701e+00 9.125357e-01 7.917046e-01 7.773078e-01 8.993731e-01 1.048471e+00 1.219536e+00 1.342296e+00 1.399735e+00 1.430752e+00 1.433239e+00 1.453496e+00 1.493369e+00 1.554444e+00 1.633175e+00 1.708552e+00 1.779418e+00 1.844239e+00 1.900240e+00 1.938674e+00 1.952632e+00 1.907252e+00 1.822654e+00 1.683910e+00 1.529103e+00 1.394594e+00 1.274852e+00 1.209098e+00 1.137732e+00 1.080597e+00 1.010896e+00 9.414624e-01 8.572616e-01 7.873917e-01 6.894606e-01 6.127006e-01 4.923481e-01 3.995793e-01 2.381559e-01 1.140774e-01 -5.431820e-02 -1.702369e-01 -3.234230e-01 -4.539852e-01 -6.060283e-01 -7.399089e-01 -8.831279e-01 -1.006853e+00 -1.142484e+00 -1.264540e+00 -1.392371e+00 -1.492841e+00 -1.571787e+00 -1.628292e+00 -1.672741e+00 -1.700068e+00 -1.728234e+00 -1.746128e+00 -1.776983e+00 -1.790087e+00 -1.821208e+00 -1.827015e+00 -1.855189e+00 -1.855067e+00 
-1.890577e+00 -1.892517e+00 -1.884095e+00 -1.889221e+00 -1.877505e+00 -1.894500e+00 -1.881888e+00 -1.929955e+00 -1.941737e+00 -2.005203e+00 -2.027171e+00 -2.082413e+00 -2.109645e+00 -2.158729e+00 -2.182148e+00 -2.206699e+00 -2.222413e+00 -2.241298e+00 -2.246286e+00 -2.251090e+00 -2.226518e+00 -2.159012e+00 -2.066186e+00 -1.920455e+00 -1.780692e+00 -1.606843e+00 -1.449311e+00 -1.252770e+00 -1.121584e+00 -9.991362e-01 -9.497723e-01 -9.553652e-01 -1.009880e+00 -1.030216e+00 -1.008702e+00 -9.109642e-01 -8.058915e-01 -6.747760e-01 -6.015137e-01 -5.767282e-01 -5.805027e-01 -5.501044e-01 -5.449869e-01 -3.986912e-01 -2.247105e-01 -2.108466e-02 2.249356e-01 3.830911e-01 4.965793e-01 5.551995e-01 5.920917e-01 6.956179e-01 8.255375e-01 1.069594e+00 1.312653e+00 1.571194e+00 1.766123e+00 1.944539e+00 2.064158e+00 2.093586e+00 2.105854e+00 2.113100e+00 2.001254e+00 1.836735e+00 1.565216e+00 1.214439e+00 8.568200e-01 5.994875e-01 5.626845e-01 7.183915e-01 9.962094e-01 1.226970e+00 1.356326e+00 1.434462e+00 1.425745e+00 1.439487e+00 1.472030e+00 1.565178e+00 1.703945e+00 1.864930e+00 2.013001e+00 2.160652e+00 2.274442e+00 2.354605e+00 2.382996e+00 2.309143e+00 2.177127e+00 1.961480e+00 1.738161e+00 1.548396e+00 1.366525e+00 1.260901e+00 1.123939e+00 9.912968e-01 8.691822e-01 7.295591e-01 6.045919e-01 5.003803e-01 4.163518e-01 3.557851e-01 2.873592e-01 2.455047e-01 1.223422e-01 2.226768e-02 -1.118521e-01 -1.704283e-01 -2.457708e-01 -3.315817e-01 -4.440815e-01 -6.058409e-01 -7.755001e-01 -9.456068e-01 -1.083562e+00 -1.199834e+00 -1.292915e+00 -1.364717e+00 -1.404879e+00 -1.498042e+00 -1.587027e+00 -1.696125e+00 -1.781193e+00 -1.846687e+00 -1.861394e+00 -1.882333e+00 -1.886962e+00 -1.894724e+00 -1.892965e+00 -1.895796e+00 
-1.872298e+00 -1.842531e+00 -1.848031e+00 -1.813117e+00 -1.814640e+00 -1.773339e+00 -1.754463e+00 -1.816408e+00 -1.894616e+00 -1.969087e+00 -2.052772e+00 -2.093949e+00 -2.199083e+00 -2.243491e+00 -2.305267e+00 -2.294788e+00 -2.355821e+00 -2.359467e+00 -2.444508e+00 -2.484799e+00 -2.543739e+00 -2.436349e+00 -2.296690e+00 -2.092777e+00 -1.906820e+00 -1.670084e+00 -1.380128e+00 -1.031693e+00 -7.875575e-01 -6.135395e-01 -5.313870e-01 -6.784094e-01 -8.721540e-01 -1.068038e+00 -1.125872e+00 -1.019080e+00 -8.351688e-01 -6.504004e-01 -5.227199e-01 -6.298137e-01 -7.043668e-01 -7.717562e-01 -9.150168e-01 -7.288991e-01 -4.559359e-01 -1.517377e-01 3.490163e-01 5.356963e-01 6.593623e-01 5.811780e-01 4.226501e-01 4.277615e-01 5.553409e-01 9.406455e-01 1.424340e+00 1.915966e+00 2.241859e+00 2.041702e+00 1.786064e+00 2.067928e+00 2.834602e+00 3.451952e+00 3.208437e+00 2.155379e+00 6.783118e-01 -8.730949e-01 -1.986266e+00 -2.171436e+00 -1.371980e+00 -4.000204e-01 6.468938e-01 1.344076e+00 1.509698e+00 1.548534e+00 1.395643e+00 1.303693e+00 1.328226e+00 1.449479e+00 1.711698e+00 1.978192e+00 2.237014e+00 2.496144e+00 2.668421e+00 2.830038e+00 2.931776e+00 2.864556e+00 2.724532e+00 2.331576e+00 1.909935e+00 1.556680e+00 1.239692e+00 1.178379e+00 1.032342e+00 8.361656e-01 6.620329e-01 4.393267e-01 2.828235e-01 1.583441e-01 5.458865e-02 1.078222e-02 4.465448e-02 1.484776e-01 3.022263e-02 -8.848451e-02 -2.224788e-01 -1.294171e-01 -7.564607e-02 -8.884656e-02 -1.900398e-01 -4.292622e-01 -6.978310e-01 -8.967901e-01 -1.036645e+00 -1.101239e+00 -1.178598e+00 -1.174093e+00 -1.149467e+00 -1.270521e+00 -1.487576e+00 -1.694929e+00 -1.865410e+00 -1.928729e+00 -1.927780e+00 -1.906729e+00 -1.909533e+00 -1.886284e+00 -1.891803e+00 -1.865604e+00 
-1.882349e+00 -1.849570e+00 -1.820832e+00 -1.773529e+00 -1.732541e+00 -1.648205e+00 -1.538345e+00 -1.715417e+00 -1.816086e+00 -1.957995e+00 -2.018307e+00 -2.097176e+00 -2.190530e+00 -2.304235e+00 -2.279667e+00 -2.329865e+00 -2.379428e+00 -2.472090e+00 -2.557570e+00 -2.666814e+00 -2.584990e+00 -2.305548e+00 -1.988140e+00 -1.799505e+00 -1.745012e+00 -1.593475e+00 -1.340069e+00 -9.609722e-01 -7.576251e-01 -5.650146e-01 -4.069528e-01 -4.510728e-01 -4.713721e-01 -5.187655e-01 -6.663933e-01 -5.342951e-01 -4.380125e-01 -3.693528e-01 -2.170412e-01 -3.631403e-01 -3.568254e-01 -2.837947e-01 -5.776550e-01 -4.302891e-01 -3.632683e-01 -1.978494e-01 3.894922e-01 5.850029e-01 9.388233e-01 1.086848e+00 8.617460e-01 9.195020e-01 8.969885e-01 1.105681e+00 1.466707e+00 1.807947e+00 1.857559e+00 3.102041e-01 -1.047921e+00 -6.774654e-02 2.254347e+00 3.989686e+00 3.337035e+00 3.690269e-01 -3.505090e+00 -6.767769e+00 -8.392111e+00 -7.315519e+00 -4.247643e+00 -1.783431e+00 1.987970e-01 1.507544e+00 1.700349e+00 1.925917e+00 1.873457e+00 2.029607e+00 2.372346e+00 2.624670e+00 2.940082e+00 3.038669e+00 3.053462e+00 3.074188e+00 2.845529e+00 2.867039e+00 2.919002e+00 3.008674e+00 3.143794e+00 2.737741e+00 2.156613e+00 1.557964e+00 1.046784e+00 1.113390e+00 1.162008e+00 1.074557e+00 9.711193e-01 7.767101e-01 7.112159e-01 5.453752e-01 2.325098e-01 -1.414286e-02 8.765782e-03 1.603543e-01 1.447633e-03 -2.375804e-01 -3.464920e-01 -1.490674e-01 -1.503777e-02 -8.817311e-02 -2.202771e-01 -5.281569e-01 -7.538130e-01 -7.866757e-01 -7.747517e-01 -7.974165e-01 -9.371482e-01 -1.091536e+00 -1.189331e+00 -1.496150e+00 -1.905542e+00 -2.208449e+00 -2.278247e+00 -2.239185e+00 -2.168966e+00 -2.080299e+00 -2.021196e+00 -1.975812e+00 -1.941074e+00 -1.908910e+00 
-1.883299e+00 -1.833382e+00 -1.832754e+00 -1.771568e+00 -1.767643e+00 -1.679161e+00 -1.636339e+00 -1.739616e+00 -1.852515e+00 -1.890539e+00 -1.981359e+00 -1.962454e+00 -2.105187e+00 -2.082393e+00 -1.955736e+00 -2.001379e+00 -1.930183e+00 -1.825710e+00 -1.849574e+00 -1.589375e+00 -1.585889e+00 -1.338633e+00 -1.083067e+00 -1.067746e+00 -1.158596e+00 -1.227928e+00 -1.194606e+00 -1.133090e+00 -1.084767e+00 -1.020061e+00 -8.012986e-01 -5.945723e-01 -2.203602e-01 4.791987e-02 6.567344e-02 1.310488e-01 1.170020e-01 -1.512061e-02 1.225902e-01 1.330244e-01 3.626323e-01 6.081591e-01 5.610638e-01 5.645247e-01 4.222280e-01 3.004757e-01 5.357643e-01 6.379399e-01 1.115366e+00 1.545459e+00 1.668368e+00 1.871990e+00 1.836524e+00 1.696064e+00 1.656332e+00 1.535670e+00 1.362776e+00 1.170199e-02 -9.369756e-01 -1.574999e-01 1.583181e+00 3.023336e+00 3.083391e+00 1.725899e+00 -3.416085e-01 -1.889950e+00 -2.658705e+00 -1.828800e+00 -2.209411e-01 5.173497e-01 1.017577e+00 1.616590e+00 1.961119e+00 2.374536e+00 2.724300e+00 3.167576e+00 3.694842e+00 3.911049e+00 4.011435e+00 3.782723e+00 3.437745e+00 3.079392e+00 2.500575e+00 2.251658e+00 2.100159e+00 2.218772e+00 2.474324e+00 2.382786e+00 2.092546e+00 1.692930e+00 1.337588e+00 1.387253e+00 1.521529e+00 1.588797e+00 1.588360e+00 1.550701e+00 1.555107e+00 1.400709e+00 1.003982e+00 6.346352e-01 4.531711e-01 3.771919e-01 1.824813e-01 -5.941460e-02 -1.632149e-01 -1.562078e-01 -2.142877e-01 -4.011456e-01 -5.766266e-01 -7.427311e-01 -8.005554e-01 -6.715640e-01 -6.125695e-01 -6.578871e-01 -8.796104e-01 -1.194343e+00 -1.510912e+00 -1.831371e+00 -2.178125e+00 -2.334523e+00 -2.284919e+00 -2.165889e+00 -2.144248e+00 -2.042138e+00 -2.009906e+00 -1.947102e+00 -1.935783e+00 -1.885812e+00 
-1.886899e+00 -1.875486e+00 -1.867749e+00 -1.858777e+00 -1.851280e+00 -1.851172e+00 -1.846962e+00 -1.891422e+00 -1.915873e+00 -1.945454e+00 -1.970488e+00 -1.995851e+00 -2.027949e+00 -2.054794e+00 -1.810713e+00 -1.835154e+00 -1.608299e+00 -1.605650e+00 -1.334782e+00 -1.282218e+00 -8.741523e-01 -7.870267e-01 -8.095573e-01 -8.041972e-01 -8.983291e-01 -9.172336e-01 -9.739970e-01 -9.794650e-01 -9.872600e-01 -9.233372e-01 -7.999279e-01 -5.715171e-01 -2.943966e-01 -3.290030e-02 6.196120e-02 1.281028e-01 1.190091e-01 7.578335e-02 1.443624e-01 2.620411e-01 4.332021e-01 6.283095e-01 7.314995e-01 7.599867e-01 7.017624e-01 6.535882e-01 6.780496e-01 7.682743e-01 1.025061e+00 1.337307e+00 1.555144e+00 1.748790e+00 1.785868e+00 1.696889e+00 1.599423e+00 1.451463e+00 1.387482e+00 1.174842e+00 1.160932e+00 1.288096e+00 1.595309e+00 2.198605e+00 2.964005e+00 3.659369e+00 3.847743e+00 3.578454e+00 2.547349e+00 1.364131e+00 3.112579e-02 -8.130746e-01 -8.862556e-01 -2.440815e-01 5.961534e-01 1.247813e+00 1.855639e+00 2.354076e+00 2.780874e+00 2.985238e+00 3.052048e+00 2.948190e+00 2.755151e+00 2.540320e+00 2.235612e+00 2.058894e+00 1.905930e+00 1.908224e+00 1.961730e+00 1.975675e+00 1.913714e+00 1.790833e+00 1.657106e+00 1.589479e+00 1.578152e+00 1.579069e+00 1.544307e+00 1.505792e+00 1.447755e+00 1.312513e+00 1.082002e+00 8.387731e-01 6.232740e-01 4.268965e-01 2.731147e-01 1.172408e-01 1.136523e-02 -1.384713e-01 -2.927375e-01 -4.704579e-01 -6.052934e-01 -6.909697e-01 -7.208493e-01 -7.157219e-01 -7.556491e-01 -8.647624e-01 -1.031606e+00 -1.273210e+00 -1.519811e+00 -1.713303e+00 -1.860128e+00 -1.931656e+00 -1.923473e+00 -1.909666e+00 -1.936292e+00 -1.924142e+00 -1.923460e+00 -1.910539e+00 -1.905797e+00 -1.893492e+00 
-1.888393e+00 -1.864082e+00 -1.879010e+00 -1.856264e+00 -1.871683e+00 -1.856752e+00 -1.875497e+00 -1.884951e+00 -1.920794e+00 -1.933368e+00 -1.969815e+00 -1.984483e+00 -2.011500e+00 -2.041189e+00 -1.819377e+00 -1.833888e+00 -1.607852e+00 -1.601755e+00 -1.337001e+00 -1.332127e+00 -9.588838e-01 -1.015746e+00 -9.611293e-01 -9.900017e-01 -9.501364e-01 -9.585104e-01 -8.987158e-01 -8.713668e-01 -7.846406e-01 -7.242312e-01 -5.969911e-01 -4.981119e-01 -3.478042e-01 -2.407623e-01 -1.336906e-01 -6.472002e-02 2.306612e-02 6.174088e-02 1.640944e-01 2.246081e-01 3.362259e-01 4.221938e-01 5.059940e-01 5.675826e-01 6.420812e-01 6.958899e-01 8.210855e-01 9.170207e-01 1.083329e+00 1.226249e+00 1.356351e+00 1.467048e+00 1.553522e+00 1.601349e+00 1.669785e+00 1.702113e+00 1.781764e+00 1.823440e+00 1.955075e+00 2.142800e+00 2.397375e+00 2.714776e+00 3.048697e+00 3.146372e+00 3.014300e+00 2.424996e+00 1.498995e+00 4.752556e-01 -2.340070e-01 -1.549070e-01 4.206786e-01 1.079817e+00 1.487704e+00 1.800362e+00 2.055015e+00 2.279316e+00 2.465076e+00 2.574996e+00 2.630012e+00 2.615761e+00 2.544932e+00 2.465859e+00 2.333604e+00 2.253398e+00 2.160669e+00 2.115680e+00 2.068598e+00 2.005222e+00 1.911588e+00 1.815088e+00 1.707076e+00 1.642312e+00 1.575070e+00 1.515718e+00 1.437078e+00 1.350373e+00 1.244618e+00 1.116891e+00 9.531095e-01 7.891122e-01 6.267801e-01 4.784920e-01 3.249371e-01 1.782367e-01 4.171297e-02 -8.401381e-02 -2.138200e-01 -3.444527e-01 -4.739455e-01 -5.863922e-01 -6.960551e-01 -7.757337e-01 -8.798965e-01 -9.804465e-01 -1.119622e+00 -1.254843e+00 -1.411917e+00 -1.537991e+00 -1.673344e+00 -1.750373e+00 -1.820830e+00 -1.837739e+00 -1.881017e+00 -1.871262e+00 -1.896626e+00 -1.877154e+00 -1.895717e+00 -1.872526e+00 
-1.893008e+00 -1.896875e+00 -1.904954e+00 -1.909257e+00 -1.917215e+00 -1.924540e+00 -1.934829e+00 -1.947328e+00 -1.962852e+00 -1.974605e+00 -1.993526e+00 -2.003058e+00 -2.024484e+00 -2.031712e+00 -1.774261e+00 -1.775284e+00 -1.510741e+00 -1.503820e+00 -1.213215e+00 -1.199467e+00 -8.646121e-01 -8.529704e-01 -8.741406e-01 -8.525898e-01 -8.622708e-01 -8.271569e-01 -8.127520e-01 -7.563366e-01 -7.106991e-01 -6.253656e-01 -5.443941e-01 -4.303926e-01 -3.283083e-01 -2.123660e-01 -1.279626e-01 -3.807007e-02 3.218359e-02 1.074120e-01 1.858414e-01 2.760765e-01 3.663339e-01 4.655709e-01 5.491032e-01 6.345530e-01 7.055876e-01 7.878298e-01 8.733725e-01 9.782520e-01 1.090628e+00 1.221434e+00 1.331290e+00 1.451479e+00 1.539525e+00 1.634994e+00 1.711525e+00 1.820723e+00 1.918954e+00 2.101851e+00 2.278746e+00 2.445796e+00 2.484914e+00 2.407981e+00 2.203862e+00 1.915112e+00 1.676794e+00 1.496480e+00 1.486002e+00 1.540493e+00 1.807492e+00 2.159278e+00 2.340355e+00 2.335301e+00 2.200799e+00 2.175017e+00 2.185618e+00 2.241280e+00 2.288968e+00 2.325881e+00 2.328913e+00 2.313283e+00 2.260259e+00 2.211059e+00 2.129520e+00 2.078203e+00 2.011166e+00 1.978988e+00 1.936842e+00 1.906142e+00 1.855371e+00 1.804282e+00 1.736964e+00 1.674106e+00 1.601876e+00 1.528611e+00 1.440885e+00 1.345502e+00 1.235620e+00 1.109429e+00 9.685883e-01 8.164920e-01 6.673678e-01 5.115979e-01 3.692048e-01 2.181409e-01 8.367782e-02 -6.298756e-02 -1.967128e-01 -3.379891e-01 -4.643001e-01 -5.879666e-01 -6.983472e-01 -8.049931e-01 -9.099834e-01 -1.020383e+00 -1.134294e+00 -1.252945e+00 -1.370762e+00 -1.477017e+00 -1.573957e+00 -1.649645e+00 -1.712514e+00 -1.756050e+00 -1.798553e+00 -1.822141e+00 -1.848131e+00 -1.860211e+00 -1.876268e+00 -1.882431e+00 
-1.902011e+00 -1.892583e+00 -1.917446e+00 -1.908223e+00 -1.931935e+00 -1.925065e+00 -1.948421e+00 -1.945128e+00 -1.969563e+00 -1.967277e+00 -1.991850e+00 -1.990218e+00 -2.013451e+00 -2.014133e+00 -1.782928e+00 -1.783126e+00 -1.540197e+00 -1.545351e+00 -1.270764e+00 -1.293448e+00 -9.608772e-01 -1.016575e+00 -9.737690e-01 -9.979415e-01 -9.387312e-01 -9.317367e-01 -8.527590e-01 -8.165916e-01 -7.193914e-01 -6.610715e-01 -5.510088e-01 -4.804238e-01 -3.691448e-01 -2.997754e-01 -1.989917e-01 -1.372491e-01 -4.196284e-02 1.739922e-02 1.152652e-01 1.811441e-01 2.830341e-01 3.571009e-01 4.588533e-01 5.361153e-01 6.402488e-01 7.226082e-01 8.350512e-01 9.259124e-01 1.042226e+00 1.140123e+00 1.252696e+00 1.352750e+00 1.464210e+00 1.567821e+00 1.683436e+00 1.800412e+00 1.926340e+00 2.072308e+00 2.207312e+00 2.273718e+00 2.278828e+00 2.197256e+00 2.043232e+00 1.818653e+00 1.605367e+00 1.425416e+00 1.387791e+00 1.436439e+00 1.619691e+00 1.778924e+00 1.864413e+00 1.888699e+00 1.888335e+00 1.920397e+00 1.964872e+00 2.016509e+00 2.061175e+00 2.098072e+00 2.116190e+00 2.126070e+00 2.112375e+00 2.101731e+00 2.068509e+00 2.050442e+00 2.015808e+00 1.997864e+00 1.964526e+00 1.939057e+00 1.893274e+00 1.850953e+00 1.786635e+00 1.725836e+00 1.644208e+00 1.563073e+00 1.462786e+00 1.361325e+00 1.241940e+00 1.119451e+00 9.803583e-01 8.418233e-01 6.940254e-01 5.508221e-01 4.019086e-01 2.586799e-01 1.114732e-01 -2.943729e-02 -1.765594e-01 -3.160804e-01 -4.630466e-01 -5.950987e-01 -7.337514e-01 -8.485854e-01 -9.725789e-01 -1.071468e+00 -1.185809e+00 -1.275814e+00 -1.386162e+00 -1.467002e+00 -1.567555e+00 -1.628689e+00 -1.707115e+00 -1.740899e+00 -1.796941e+00 -1.809264e+00 -1.850052e+00 -1.849695e+00 -1.881649e+00 -1.874769e+00 
-1.918309e+00 -1.926525e+00 -1.940990e+00 -1.948252e+00 -1.961957e+00 -1.968142e+00 -1.981164e+00 -1.985336e+00 -1.999310e+00 -1.999190e+00 -2.015696e+00 -2.009718e+00 -2.029580e+00 -2.018060e+00 -1.791003e+00 -1.775564e+00 -1.549203e+00 -1.533540e+00 -1.295952e+00 -1.285277e+00 -1.019001e+00 -1.024046e+00 -1.024769e+00 -1.001353e+00 -9.768749e-01 -9.186257e-01 -8.616454e-01 -7.738069e-01 -6.911672e-01 -5.834334e-01 -4.880058e-01 -3.814941e-01 -2.992702e-01 -2.169022e-01 -1.570916e-01 -8.899253e-02 -2.869121e-02 4.629821e-02 1.199736e-01 2.067785e-01 2.903463e-01 3.848695e-01 4.718300e-01 5.719316e-01 6.641989e-01 7.734310e-01 8.707042e-01 9.770669e-01 1.062099e+00 1.157390e+00 1.235989e+00 1.338126e+00 1.434467e+00 1.558072e+00 1.669860e+00 1.804646e+00 1.923020e+00 2.058598e+00 2.165506e+00 2.263268e+00 2.314408e+00 2.333392e+00 2.311538e+00 2.257418e+00 2.191621e+00 2.112533e+00 2.052992e+00 2.003716e+00 1.989739e+00 2.001023e+00 2.010576e+00 2.024673e+00 2.021097e+00 2.037084e+00 2.039363e+00 2.054682e+00 2.050603e+00 2.055201e+00 2.040041e+00 2.036718e+00 2.013501e+00 2.004224e+00 1.973809e+00 1.962886e+00 1.940221e+00 1.944228e+00 1.940482e+00 1.952608e+00 1.944740e+00 1.930971e+00 1.883521e+00 1.819978e+00 1.729197e+00 1.628612e+00 1.514552e+00 1.397057e+00 1.270545e+00 1.133770e+00 9.919041e-01 8.419993e-01 6.992023e-01 5.505561e-01 4.147590e-01 2.697302e-01 1.354390e-01 -1.204800e-02 -1.519410e-01 -3.056164e-01 -4.574799e-01 -6.167778e-01 -7.654960e-01 -9.008147e-01 -1.013614e+00 -1.107325e+00 -1.188360e+00 -1.266634e+00 -1.354805e+00 -1.446520e+00 -1.546352e+00 -1.632534e+00 -1.711666e+00 -1.763738e+00 -1.806823e+00 -1.832449e+00 -1.858681e+00 -1.873360e+00 -1.892352e+00 -1.902465e+00 
-1.935395e+00 -1.929835e+00 -1.959775e+00 -1.955495e+00 -1.984362e+00 -1.980627e+00 -2.002800e+00 -1.997063e+00 -2.013873e+00 -1.998231e+00 -2.016920e+00 -1.992466e+00 -2.018555e+00 -1.983928e+00 -1.795315e+00 -1.759441e+00 -1.579352e+00 -1.545459e+00 -1.366339e+00 -1.354652e+00 -1.158358e+00 -1.215326e+00 -1.178570e+00 -1.196333e+00 -1.131182e+00 -1.100762e+00 -9.964163e-01 -9.233336e-01 -7.942140e-01 -6.984307e-01 -5.589597e-01 -4.627433e-01 -3.436474e-01 -2.863129e-01 -2.117967e-01 -1.782791e-01 -1.078008e-01 -6.333207e-02 2.425645e-02 8.882643e-02 1.976363e-01 2.797627e-01 3.894074e-01 4.747315e-01 5.847852e-01 6.820871e-01 7.995016e-01 8.911543e-01 9.878650e-01 1.060152e+00 1.144618e+00 1.228146e+00 1.343117e+00 1.462206e+00 1.598832e+00 1.735606e+00 1.889548e+00 2.037486e+00 2.176538e+00 2.273105e+00 2.335830e+00 2.339962e+00 2.316529e+00 2.246717e+00 2.171970e+00 2.064972e+00 1.974180e+00 1.878267e+00 1.826034e+00 1.789781e+00 1.780955e+00 1.774630e+00 1.776379e+00 1.783496e+00 1.796264e+00 1.812079e+00 1.822307e+00 1.835134e+00 1.837360e+00 1.845475e+00 1.839788e+00 1.845277e+00 1.838634e+00 1.852573e+00 1.865203e+00 1.904896e+00 1.940282e+00 1.990017e+00 2.016466e+00 2.034863e+00 2.009343e+00 1.959930e+00 1.869302e+00 1.766349e+00 1.646182e+00 1.532765e+00 1.402199e+00 1.265009e+00 1.106590e+00 9.480047e-01 7.843713e-01 6.276924e-01 4.721231e-01 3.230048e-01 1.716033e-01 1.923351e-02 -1.454857e-01 -3.182116e-01 -5.152753e-01 -7.059322e-01 -8.989628e-01 -1.043865e+00 -1.167662e+00 -1.236639e+00 -1.303508e+00 -1.349429e+00 -1.436254e+00 -1.514029e+00 -1.629097e+00 -1.704898e+00 -1.792335e+00 -1.819433e+00 -1.859742e+00 -1.859089e+00 -1.889629e+00 -1.883752e+00 -1.912587e+00 -1.906093e+00 
-1.956741e+00 -1.965532e+00 -1.983976e+00 -1.994720e+00 -2.013963e+00 -2.022774e+00 -2.031841e+00 -2.036778e+00 -2.042905e+00 -2.037230e+00 -2.048150e+00 -2.025408e+00 -2.040398e+00 -1.998368e+00 -1.820640e+00 -1.773967e+00 -1.633483e+00 -1.588233e+00 -1.473498e+00 -1.422977e+00 -1.358304e+00 -1.350742e+00 -1.390327e+00 -1.390413e+00 -1.360876e+00 -1.258483e+00 -1.131557e+00 -9.734991e-01 -8.023676e-01 -5.877616e-01 -3.739083e-01 -1.832012e-01 -8.399976e-02 -7.471031e-02 -1.311172e-01 -1.694481e-01 -1.706296e-01 -1.155747e-01 -3.273216e-02 6.702469e-02 1.698985e-01 2.682677e-01 3.509985e-01 4.515582e-01 5.662717e-01 7.504866e-01 9.284324e-01 1.069053e+00 1.103435e+00 1.091503e+00 1.042164e+00 1.067813e+00 1.181701e+00 1.374597e+00 1.556926e+00 1.758669e+00 1.968282e+00 2.210674e+00 2.425975e+00 2.618515e+00 2.750673e+00 2.842897e+00 2.886987e+00 2.875269e+00 2.781258e+00 2.584273e+00 2.318625e+00 2.042745e+00 1.835631e+00 1.737465e+00 1.722723e+00 1.760216e+00 1.811852e+00 1.879236e+00 1.921398e+00 1.936241e+00 1.899128e+00 1.860199e+00 1.814849e+00 1.816040e+00 1.819256e+00 1.832691e+00 1.793590e+00 1.756742e+00 1.733765e+00 1.801228e+00 1.928070e+00 2.119084e+00 2.295968e+00 2.415045e+00 2.402476e+00 2.287327e+00 2.097788e+00 1.889352e+00 1.705648e+00 1.575507e+00 1.443976e+00 1.271993e+00 1.071420e+00 8.661582e-01 6.979705e-01 5.470356e-01 4.398057e-01 3.251279e-01 2.194283e-01 8.603854e-02 -3.454403e-02 -2.028854e-01 -4.407659e-01 -7.541068e-01 -1.072261e+00 -1.306763e+00 -1.410743e+00 -1.383064e+00 -1.275603e+00 -1.197994e+00 -1.238434e+00 -1.391532e+00 -1.623739e+00 -1.834732e+00 -1.991563e+00 -2.021530e+00 -1.988534e+00 -1.954239e+00 -1.942125e+00 -1.933830e+00 -1.939339e+00 -1.942685e+00 
-1.962825e+00 -1.959748e+00 -2.001711e+00 -2.005397e+00 -2.062167e+00 -2.072648e+00 -2.089070e+00 -2.114785e+00 -2.093200e+00 -2.056400e+00 -2.045108e+00 -2.002585e+00 -1.958040e+00 -1.873438e+00 -1.780059e+00 -1.695142e+00 -1.606259e+00 -1.451826e+00 -1.446562e+00 -1.226509e+00 -1.569830e+00 -1.604202e+00 -1.638988e+00 -1.661458e+00 -1.630839e+00 -1.572528e+00 -1.403284e+00 -1.219052e+00 -1.013365e+00 -8.232861e-01 -5.775959e-01 -3.314705e-01 -1.057827e-01 -8.119901e-02 -1.414169e-01 -2.363141e-01 -2.642106e-01 -2.813921e-01 -2.394095e-01 -1.777546e-01 1.821096e-02 1.750193e-01 3.083100e-01 3.802851e-01 4.661143e-01 6.128744e-01 7.978422e-01 9.211059e-01 9.856635e-01 9.620947e-01 9.112836e-01 9.170971e-01 1.054415e+00 1.221613e+00 1.375200e+00 1.553005e+00 1.856479e+00 2.241738e+00 2.615205e+00 2.894582e+00 3.044801e+00 3.044470e+00 2.986864e+00 2.904581e+00 2.833701e+00 2.651948e+00 2.360416e+00 1.997482e+00 1.732701e+00 1.623186e+00 1.628339e+00 1.625532e+00 1.590607e+00 1.552665e+00 1.560087e+00 1.583146e+00 1.599864e+00 1.622912e+00 1.626702e+00 1.616697e+00 1.564006e+00 1.520502e+00 1.470908e+00 1.485986e+00 1.568841e+00 1.734217e+00 1.936089e+00 2.168804e+00 2.371956e+00 2.555641e+00 2.630060e+00 2.577140e+00 2.385546e+00 2.133069e+00 1.936671e+00 1.851933e+00 1.766108e+00 1.614886e+00 1.369628e+00 1.116615e+00 8.857707e-01 6.828180e-01 5.120521e-01 3.807744e-01 2.863353e-01 1.859901e-01 5.494744e-02 -1.901196e-01 -5.815222e-01 -1.040781e+00 -1.484640e+00 -1.736556e+00 -1.809467e+00 -1.685526e+00 -1.478966e+00 -1.328474e+00 -1.371344e+00 -1.542661e+00 -1.829613e+00 -2.044542e+00 -2.180023e+00 -2.132232e+00 -2.048913e+00 -1.966515e+00 -1.957734e+00 -1.927612e+00 -1.944518e+00 -1.932125e+00 
-1.956490e+00 -1.979923e+00 -2.017045e+00 -2.047432e+00 -2.103894e+00 -2.148154e+00 -2.152070e+00 -2.216298e+00 -2.154260e+00 -2.106970e+00 -2.060968e+00 -2.016271e+00 -1.941584e+00 -1.843259e+00 -1.763649e+00 -1.667047e+00 -1.624244e+00 -1.562696e+00 -1.599703e+00 -1.573805e+00 -1.687701e+00 -1.680949e+00 -1.649202e+00 -1.571758e+00 -1.584667e+00 -1.619880e+00 -1.623540e+00 -1.552084e+00 -1.577191e+00 -1.623365e+00 -1.667372e+00 -1.526269e+00 -1.258997e+00 -9.919963e-01 -7.959168e-01 -6.287728e-01 -5.546417e-01 -5.318396e-01 -5.648132e-01 -5.135830e-01 -3.025759e-01 -5.620967e-02 1.126333e-01 2.062688e-01 1.937882e-01 1.757904e-01 1.626522e-01 2.391663e-01 4.450275e-01 7.179749e-01 9.757741e-01 1.204123e+00 1.335248e+00 1.380389e+00 1.366054e+00 1.429602e+00 1.625014e+00 1.938635e+00 2.216115e+00 2.412777e+00 2.438668e+00 2.305986e+00 2.112727e+00 2.037940e+00 2.155041e+00 2.383979e+00 2.564243e+00 2.663568e+00 2.689849e+00 2.701454e+00 2.623948e+00 2.409165e+00 2.049927e+00 1.684014e+00 1.444328e+00 1.371954e+00 1.417515e+00 1.533117e+00 1.598408e+00 1.546063e+00 1.376750e+00 1.242395e+00 1.231411e+00 1.381381e+00 1.597750e+00 1.732351e+00 1.733111e+00 1.616696e+00 1.454701e+00 1.426575e+00 1.549847e+00 1.727357e+00 1.836828e+00 1.864210e+00 1.888151e+00 1.923836e+00 1.933024e+00 1.908146e+00 1.771150e+00 1.595120e+00 1.336831e+00 1.045626e+00 6.938265e-01 4.040421e-01 1.764937e-01 -2.160423e-02 -2.866945e-01 -6.613988e-01 -1.054984e+00 -1.371846e+00 -1.576659e+00 -1.679125e+00 -1.753469e+00 -1.862265e+00 -1.977422e+00 -2.130501e+00 -2.221607e+00 -2.246139e+00 -2.184127e+00 -2.080166e+00 -1.925828e+00 -1.838137e+00 -1.812288e+00 -1.822717e+00 -1.856286e+00 -1.878862e+00 -1.906609e+00 -1.927596e+00 
-1.909983e+00 -1.919972e+00 -1.960660e+00 -1.972688e+00 -2.016251e+00 -2.036312e+00 -2.054335e+00 -2.077741e+00 -2.055838e+00 -2.017309e+00 -1.995029e+00 -1.954443e+00 -1.924736e+00 -1.862372e+00 -1.863668e+00 -1.792761e+00 -1.794273e+00 -1.728106e+00 -1.780387e+00 -1.739318e+00 -1.803130e+00 -1.718803e+00 -1.632865e+00 -1.505163e+00 -1.487624e+00 -1.518406e+00 -1.576304e+00 -1.600524e+00 -1.692375e+00 -1.823166e+00 -1.949502e+00 -1.951553e+00 -1.779280e+00 -1.510497e+00 -1.197033e+00 -9.360336e-01 -7.587605e-01 -6.854405e-01 -6.515509e-01 -6.048763e-01 -4.574090e-01 -2.960517e-01 -1.375917e-01 -4.630482e-02 -1.317612e-02 -7.181279e-02 -1.039701e-01 -5.498744e-02 1.985725e-01 5.341413e-01 9.160187e-01 1.193861e+00 1.325139e+00 1.324085e+00 1.310628e+00 1.315245e+00 1.372140e+00 1.436584e+00 1.490106e+00 1.493975e+00 1.439501e+00 1.299284e+00 1.145628e+00 1.071776e+00 1.179307e+00 1.445579e+00 1.786123e+00 2.100777e+00 2.321107e+00 2.405941e+00 2.351717e+00 2.162611e+00 1.876555e+00 1.574948e+00 1.364540e+00 1.290750e+00 1.340186e+00 1.446921e+00 1.529040e+00 1.512480e+00 1.423245e+00 1.357171e+00 1.405582e+00 1.550705e+00 1.702899e+00 1.717431e+00 1.574919e+00 1.299791e+00 9.908025e-01 8.172572e-01 8.414355e-01 1.011699e+00 1.201750e+00 1.367405e+00 1.466904e+00 1.503222e+00 1.488269e+00 1.498770e+00 1.441325e+00 1.368132e+00 1.168271e+00 9.401372e-01 5.991877e-01 3.118381e-01 2.027066e-02 -2.135280e-01 -5.173940e-01 -8.105333e-01 -1.044113e+00 -1.126489e+00 -1.139457e+00 -1.154051e+00 -1.286458e+00 -1.545536e+00 -1.888009e+00 -2.183185e+00 -2.308258e+00 -2.241050e+00 -2.040049e+00 -1.808173e+00 -1.618149e+00 -1.571981e+00 -1.644381e+00 -1.701859e+00 -1.773930e+00 -1.803298e+00 -1.853489e+00 -1.868017e+00 
-1.915257e+00 -1.935612e+00 -1.947878e+00 -1.970774e+00 -1.979172e+00 -2.007198e+00 -2.004851e+00 -2.033045e+00 -2.017277e+00 -2.025930e+00 -2.006644e+00 -2.005594e+00 -1.985569e+00 -1.972869e+00 -1.965544e+00 -1.943746e+00 -1.937476e+00 -1.913993e+00 -1.917424e+00 -1.892779e+00 -1.881097e+00 -1.815701e+00 -1.751495e+00 -1.655849e+00 -1.610984e+00 -1.561353e+00 -1.551654e+00 -1.508982e+00 -1.518006e+00 -1.512653e+00 -1.535413e+00 -1.494424e+00 -1.415595e+00 -1.260797e+00 -1.099670e+00 -9.251382e-01 -8.043553e-01 -6.966136e-01 -6.310384e-01 -5.466095e-01 -4.612350e-01 -3.442852e-01 -2.447145e-01 -1.313348e-01 -5.014228e-02 1.844651e-02 8.792661e-02 1.989005e-01 3.707427e-01 5.876236e-01 8.086802e-01 1.012532e+00 1.143401e+00 1.253646e+00 1.339993e+00 1.446249e+00 1.532829e+00 1.621392e+00 1.674966e+00 1.708494e+00 1.699085e+00 1.669585e+00 1.608879e+00 1.577817e+00 1.581938e+00 1.649939e+00 1.741919e+00 1.847422e+00 1.921913e+00 1.959214e+00 1.939784e+00 1.876907e+00 1.766789e+00 1.655396e+00 1.558800e+00 1.523354e+00 1.531193e+00 1.578518e+00 1.622169e+00 1.647943e+00 1.649212e+00 1.661543e+00 1.701847e+00 1.761337e+00 1.803643e+00 1.776301e+00 1.678466e+00 1.521081e+00 1.347317e+00 1.224143e+00 1.171583e+00 1.190174e+00 1.223032e+00 1.257399e+00 1.259622e+00 1.229944e+00 1.171370e+00 1.123516e+00 1.042110e+00 9.561599e-01 8.028318e-01 6.430468e-01 4.179944e-01 2.160112e-01 -8.051709e-03 -2.019353e-01 -4.224088e-01 -6.273074e-01 -8.004007e-01 -9.221232e-01 -1.011249e+00 -1.114647e+00 -1.248588e+00 -1.437734e+00 -1.634544e+00 -1.814125e+00 -1.894652e+00 -1.911984e+00 -1.848200e+00 -1.789811e+00 -1.726313e+00 -1.734118e+00 -1.763741e+00 -1.803855e+00 -1.831163e+00 -1.858951e+00 -1.878512e+00 -1.900160e+00 
