# vtk DataFile Version 2.0
Comment goes here
ASCII

DATASET STRUCTURED_POINTS
FIELD FieldData 1
TIME 1 1 double
0.66000000
DIMENSIONS    128   16   1

ORIGIN    0.000   0.000   0.000
SPACING   0.0078125 0.015625   1.000

POINT_DATA   2048
SCALARS P double
LOOKUP_TABLE default

9.606116e-01 9.433537e-01 9.643305e-01 9.516422e-01 9.661078e-01 9.604351e-01 9.664743e-01 9.757891e-01 9.642412e-01 9.842107e-01 9.591349e-01 9.837005e-01 9.458649e-01 9.666788e-01 9.116190e-01 9.254499e-01 8.692250e-01 8.787323e-01 8.252886e-01 8.357574e-01 7.884770e-01 8.038801e-01 7.778402e-01 7.969510e-01 7.822377e-01 7.981868e-01 7.861878e-01 7.929647e-01 7.799506e-01 7.788163e-01 7.692422e-01 7.673618e-01 7.673060e-01 7.688541e-01 7.777590e-01 7.795099e-01 7.909333e-01 7.875141e-01 7.962501e-01 7.856838e-01 7.902233e-01 7.736008e-01 7.749745e-01 7.559375e-01 7.579928e-01 7.427867e-01 7.508782e-01 7.443104e-01 7.590746e-01 7.577658e-01 7.712026e-01 7.651788e-01 7.681400e-01 7.518252e-01 7.447721e-01 7.233587e-01 7.156844e-01 6.962633e-01 6.923587e-01 6.770457e-01 6.708112e-01 6.504878e-01 6.422574e-01 6.224736e-01 6.225746e-01 6.104876e-01 6.159450e-01 6.092175e-01 6.253149e-01 6.256678e-01 6.512088e-01 6.556194e-01 6.821868e-01 6.874037e-01 7.176442e-01 7.235697e-01 7.584592e-01 7.661434e-01 8.050601e-01 8.134364e-01 8.548644e-01 8.626166e-01 9.047927e-01 9.094147e-01 9.486014e-01 9.461859e-01 9.787862e-01 9.684628e-01 9.957972e-01 9.825573e-01 1.010103e+00 9.998011e-01 1.029616e+00 1.021741e+00 1.048935e+00 1.038484e+00 1.057789e+00 1.043427e+00 1.055719e+00 1.041474e+00 1.050369e+00 1.038441e+00 1.043342e+00 1.030764e+00 1.029233e+00 1.014370e+00 1.009366e+00 9.959616e-01 9.946243e-01 9.858401e-01 9.911666e-01 9.828019e-01 9.911013e-01 9.750947e-01 9.834432e-01 9.567809e-01 9.687768e-01 9.350703e-01 9.568275e-01 9.202433e-01 9.531302e-01 9.153024e-01 9.547510e-01 9.211136e-01 9.546963e-01 9.271427e-01 9.567363e-01 9.348494e-01 
8.027518e-01 7.918798e-01 8.063868e-01 7.977804e-01 8.069268e-01 8.015265e-01 8.038856e-01 8.158596e-01 8.008791e-01 8.230452e-01 8.005217e-01 8.256841e-01 8.028455e-01 8.234754e-01 8.077974e-01 8.263283e-01 8.160047e-01 8.293675e-01 8.249487e-01 8.319994e-01 8.341193e-01 8.367230e-01 8.431808e-01 8.485155e-01 8.567323e-01 8.559778e-01 8.570305e-01 8.428207e-01 8.371675e-01 8.171550e-01 8.179365e-01 8.048736e-01 8.197616e-01 8.139350e-01 8.357298e-01 8.265046e-01 8.438698e-01 8.249347e-01 8.361577e-01 8.112158e-01 8.200342e-01 7.924246e-01 7.993125e-01 7.706086e-01 7.776918e-01 7.539506e-01 7.679947e-01 7.563173e-01 7.795941e-01 7.757780e-01 7.965954e-01 7.848848e-01 7.890200e-01 7.610598e-01 7.510127e-01 7.168104e-01 7.113726e-01 6.847328e-01 6.957840e-01 6.782004e-01 6.695557e-01 6.296426e-01 6.111322e-01 5.877531e-01 6.002725e-01 5.942409e-01 6.084917e-01 5.949721e-01 6.104029e-01 6.075225e-01 6.326596e-01 6.403944e-01 6.661942e-01 6.759672e-01 7.156531e-01 7.280478e-01 7.691330e-01 7.741583e-01 8.076370e-01 8.040216e-01 8.346870e-01 8.321048e-01 8.682773e-01 8.685805e-01 9.036042e-01 8.951972e-01 9.183124e-01 8.977007e-01 9.132523e-01 8.925618e-01 9.139665e-01 9.038941e-01 9.322761e-01 9.256326e-01 9.476423e-01 9.342924e-01 9.461546e-01 9.322896e-01 9.447067e-01 9.421690e-01 9.609556e-01 9.670862e-01 9.808719e-01 9.801928e-01 9.775041e-01 9.661193e-01 9.537892e-01 9.419927e-01 9.328646e-01 9.267431e-01 9.237305e-01 9.164756e-01 9.124580e-01 8.936240e-01 8.860987e-01 8.551205e-01 8.509636e-01 8.134687e-01 8.205180e-01 7.814804e-01 8.029213e-01 7.644895e-01 7.975343e-01 7.678126e-01 7.946177e-01 7.751809e-01 7.978930e-01 7.839276e-01 
9.426397e-01 9.284162e-01 9.551680e-01 9.393881e-01 9.589613e-01 9.377680e-01 9.625203e-01 9.803962e-01 9.603276e-01 9.925818e-01 9.666772e-01 1.008852e+00 9.811860e-01 1.010568e+00 9.245228e-01 9.338687e-01 8.699570e-01 8.683393e-01 8.072866e-01 8.095926e-01 7.337046e-01 7.561524e-01 7.570407e-01 7.941184e-01 7.969366e-01 8.184097e-01 8.047071e-01 7.980286e-01 7.704048e-01 7.550851e-01 7.423268e-01 7.450610e-01 7.604745e-01 7.778241e-01 8.027540e-01 8.102356e-01 8.216342e-01 8.087772e-01 8.082969e-01 7.874192e-01 7.869745e-01 7.650533e-01 7.641592e-01 7.402732e-01 7.396766e-01 7.227130e-01 7.348407e-01 7.390338e-01 7.704256e-01 7.893744e-01 8.185180e-01 8.225462e-01 8.218949e-01 7.973969e-01 7.740159e-01 7.482076e-01 7.397914e-01 7.142926e-01 7.221183e-01 7.185326e-01 6.798489e-01 6.123980e-01 5.525327e-01 5.118998e-01 5.463465e-01 5.657335e-01 5.610335e-01 5.430036e-01 5.491835e-01 5.418730e-01 5.918902e-01 6.127775e-01 6.521774e-01 6.949379e-01 7.633907e-01 7.983154e-01 8.546140e-01 8.653123e-01 8.944494e-01 8.811877e-01 9.009806e-01 8.922478e-01 9.284725e-01 9.322208e-01 9.715229e-01 9.605006e-01 9.776052e-01 9.428220e-01 9.474237e-01 9.153700e-01 9.373098e-01 9.297950e-01 9.698465e-01 9.674079e-01 9.947363e-01 9.749155e-01 9.849317e-01 9.655990e-01 9.864047e-01 9.954115e-01 1.039512e+00 1.068245e+00 1.106457e+00 1.117410e+00 1.121859e+00 1.107224e+00 1.093009e+00 1.077096e+00 1.070263e+00 1.066429e+00 1.070480e+00 1.065342e+00 1.063861e+00 1.038351e+00 1.026508e+00 9.824402e-01 9.734129e-01 9.210855e-01 9.276577e-01 8.734148e-01 9.017052e-01 8.413036e-01 9.040875e-01 8.744926e-01 9.122376e-01 8.919104e-01 9.266914e-01 9.112806e-01 
7.863465e-01 7.820267e-01 8.032617e-01 7.930132e-01 8.092951e-01 7.876950e-01 8.475590e-01 8.790386e-01 8.582664e-01 8.902284e-01 8.762029e-01 9.081268e-01 8.932515e-01 8.605789e-01 6.572884e-01 5.542778e-01 4.113880e-01 2.808111e-01 1.421351e-01 3.739160e-02 -1.578500e-01 -2.026452e-01 -1.805464e-01 -1.771045e-01 -1.529156e-01 -1.540006e-01 -1.347300e-01 -1.454186e-01 -1.306606e-01 -1.443353e-01 -1.249479e-01 -1.328823e-01 -1.048799e-01 -1.088894e-01 -7.907570e-02 -8.732835e-02 -6.388566e-02 -7.884352e-02 -6.061867e-02 -7.719202e-02 -5.880241e-02 -7.456919e-02 -5.586855e-02 -7.120601e-02 -5.299165e-02 -6.479057e-02 -4.373249e-02 -4.756043e-02 -2.136253e-02 -1.979606e-02 4.301155e-03 1.649708e-03 1.392373e-02 3.018218e-03 6.280272e-03 -3.466824e-03 -9.273846e-03 -1.248325e-01 -1.892677e-01 -2.468624e-01 -3.280895e-01 -3.829455e-01 -4.549196e-01 -5.592170e-01 -5.445385e-01 -5.563570e-01 -5.741475e-01 -5.366072e-01 -4.060907e-01 -3.101826e-01 -4.289190e-02 1.162570e-01 1.451645e-01 2.055073e-01 2.855135e-01 3.218197e-01 3.871549e-01 4.067451e-01 4.520442e-01 4.550000e-01 4.869241e-01 4.841892e-01 5.139272e-01 5.097008e-01 5.358283e-01 5.231291e-01 5.394473e-01 5.182986e-01 5.299803e-01 5.123175e-01 5.317133e-01 5.266894e-01 5.560182e-01 5.577422e-01 5.874242e-01 5.887494e-01 6.171164e-01 6.241654e-01 6.598430e-01 6.808799e-01 7.259750e-01 7.552483e-01 7.966204e-01 8.177750e-01 8.428369e-01 8.500697e-01 8.618287e-01 8.612440e-01 8.674931e-01 8.623461e-01 8.643864e-01 8.498860e-01 8.436086e-01 8.143452e-01 8.008315e-01 7.594494e-01 7.466425e-01 6.988211e-01 6.950867e-01 6.445734e-01 6.580410e-01 5.956664e-01 6.774761e-01 7.010066e-01 7.298999e-01 7.350281e-01 7.618868e-01 7.619078e-01 
9.383386e-01 9.380968e-01 9.808699e-01 9.771848e-01 1.023183e+00 1.017741e+00 1.107799e+00 1.120489e+00 1.168402e+00 1.166675e+00 1.229156e+00 1.214754e+00 1.285355e+00 1.211532e+00 5.321033e-01 1.571963e-01 -2.987088e-01 -7.390169e-01 -1.207537e+00 -1.542451e+00 -2.260651e+00 -2.296181e+00 -2.257004e+00 -2.262968e+00 -2.227387e+00 -2.222147e+00 -2.170029e+00 -2.141983e+00 -2.075562e+00 -2.043390e+00 -1.991068e+00 -1.980355e+00 -1.955197e+00 -1.962334e+00 -1.946510e+00 -1.946876e+00 -1.918852e+00 -1.900942e+00 -1.862446e+00 -1.837391e+00 -1.798935e+00 -1.773335e+00 -1.734021e+00 -1.706421e+00 -1.667846e+00 -1.646067e+00 -1.621001e+00 -1.619278e+00 -1.614004e+00 -1.627568e+00 -1.621561e+00 -1.622974e+00 -1.590325e+00 -1.568739e+00 -1.515637e+00 -1.502638e+00 -1.480114e+00 -1.611509e+00 -1.659262e+00 -1.746785e+00 -1.758550e+00 -1.738873e+00 -1.712084e+00 -1.774025e+00 -1.771686e+00 -1.781746e+00 -1.735786e+00 -1.613521e+00 -1.416083e+00 -1.220320e+00 -9.030190e-01 -6.472102e-01 -6.482404e-01 -6.018787e-01 -5.658467e-01 -5.397476e-01 -4.934867e-01 -4.571779e-01 -3.929324e-01 -3.474531e-01 -2.858331e-01 -2.583523e-01 -2.237416e-01 -2.204864e-01 -1.966688e-01 -1.875903e-01 -1.466173e-01 -1.178682e-01 -6.606510e-02 -3.831202e-02 -9.900111e-04 8.094973e-03 3.348273e-02 4.461290e-02 8.931915e-02 1.248391e-01 1.923121e-01 2.340284e-01 2.946342e-01 3.131350e-01 3.513626e-01 3.509299e-01 3.908436e-01 4.027397e-01 4.672434e-01 4.940357e-01 5.655549e-01 5.798640e-01 6.320671e-01 6.185720e-01 6.489369e-01 6.197589e-01 6.470605e-01 6.218220e-01 6.556226e-01 6.357616e-01 6.699185e-01 6.501431e-01 6.801199e-01 6.593202e-01 6.890660e-01 6.668470e-01 7.395953e-01 7.886516e-01 8.310250e-01 8.489331e-01 8.906396e-01 8.966493e-01 
7.998876e-01 8.083647e-01 8.431347e-01 8.519624e-01 8.909353e-01 9.046061e-01 9.546259e-01 9.643287e-01 1.013299e+00 1.016635e+00 1.068218e+00 1.065810e+00 1.118517e+00 1.107976e+00 2.953908e-01 2.049527e-01 -5.468960e-01 -6.641256e-01 -1.415770e+00 -1.502440e+00 -2.315145e+00 -2.330568e+00 -2.281365e+00 -2.295962e+00 -2.249469e+00 -2.254615e+00 -2.195856e+00 -2.183023e+00 -2.114063e+00 -2.097670e+00 -2.040103e+00 -2.039478e+00 -2.003319e+00 -2.015508e+00 -1.987242e+00 -1.993522e+00 -1.956489e+00 -1.948216e+00 -1.903495e+00 -1.889061e+00 -1.844988e+00 -1.829533e+00 -1.785908e+00 -1.768847e+00 -1.726809e+00 -1.714479e+00 -1.683335e+00 -1.686151e+00 -1.670299e+00 -1.683885e+00 -1.667362e+00 -1.670476e+00 -1.633181e+00 -1.616769e+00 -1.563286e+00 -1.548796e+00 -1.509693e+00 -1.533314e+00 -1.510102e+00 -1.560444e+00 -1.557754e+00 -1.588303e+00 -1.574062e+00 -1.593002e+00 -1.557840e+00 -1.528434e+00 -1.456036e+00 -1.405674e+00 -1.326792e+00 -1.236426e+00 -1.075530e+00 -9.275969e-01 -8.485602e-01 -7.986342e-01 -7.400135e-01 -7.061151e-01 -6.487998e-01 -6.102309e-01 -5.429694e-01 -4.981491e-01 -4.340405e-01 -4.024664e-01 -3.592405e-01 -3.451897e-01 -3.110304e-01 -2.922808e-01 -2.464859e-01 -2.134077e-01 -1.608138e-01 -1.297092e-01 -8.965609e-02 -7.416891e-02 -4.514963e-02 -2.996927e-02 1.127130e-02 4.259282e-02 9.883449e-02 1.324638e-01 1.818510e-01 1.959178e-01 2.275427e-01 2.260638e-01 2.590252e-01 2.665104e-01 3.189409e-01 3.383027e-01 3.975987e-01 4.088881e-01 4.553498e-01 4.474241e-01 4.789910e-01 4.613310e-01 4.917945e-01 4.794112e-01 5.155199e-01 5.096490e-01 5.461499e-01 5.428298e-01 5.753805e-01 5.741717e-01 6.039378e-01 6.104724e-01 6.456133e-01 6.717569e-01 7.061101e-01 7.224225e-01 7.556711e-01 7.666486e-01 
9.544544e-01 9.568691e-01 1.006852e+00 1.007764e+00 1.061840e+00 1.062493e+00 1.122874e+00 1.123904e+00 1.183812e+00 1.182625e+00 1.244598e+00 1.241106e+00 1.304591e+00 1.300239e+00 4.150161e-01 3.243517e-01 -4.968547e-01 -6.143620e-01 -1.440955e+00 -1.519360e+00 -2.419051e+00 -2.405975e+00 -2.362650e+00 -2.350782e+00 -2.307362e+00 -2.293537e+00 -2.247362e+00 -2.229745e+00 -2.182147e+00 -2.164062e+00 -2.120445e+00 -2.106327e+00 -2.069455e+00 -2.058769e+00 -2.025720e+00 -2.013873e+00 -1.980266e+00 -1.964328e+00 -1.929180e+00 -1.910162e+00 -1.874769e+00 -1.854391e+00 -1.819542e+00 -1.799155e+00 -1.766141e+00 -1.748106e+00 -1.719035e+00 -1.705302e+00 -1.679935e+00 -1.668162e+00 -1.641500e+00 -1.625339e+00 -1.591874e+00 -1.567043e+00 -1.526797e+00 -1.493022e+00 -1.449981e+00 -1.400804e+00 -1.363587e+00 -1.339811e+00 -1.346985e+00 -1.369762e+00 -1.385092e+00 -1.373237e+00 -1.315364e+00 -1.268499e+00 -1.210519e+00 -1.205526e+00 -1.153673e+00 -1.125832e+00 -1.019650e+00 -9.621002e-01 -8.547323e-01 -8.042489e-01 -7.237579e-01 -6.818098e-01 -6.127300e-01 -5.736080e-01 -5.089750e-01 -4.718604e-01 -4.123563e-01 -3.806185e-01 -3.284637e-01 -3.023721e-01 -2.543806e-01 -2.291168e-01 -1.804959e-01 -1.536426e-01 -1.047268e-01 -7.923982e-02 -3.330331e-02 -1.174510e-02 3.206918e-02 5.256126e-02 9.913380e-02 1.215130e-01 1.716331e-01 1.928207e-01 2.421291e-01 2.572798e-01 3.035181e-01 3.130975e-01 3.599474e-01 3.685327e-01 4.193884e-01 4.274245e-01 4.793610e-01 4.824576e-01 5.305665e-01 5.261038e-01 5.694083e-01 5.598324e-01 6.014094e-01 5.911616e-01 6.333747e-01 6.244752e-01 6.672066e-01 6.600156e-01 7.030057e-01 6.982986e-01 7.427981e-01 7.427276e-01 7.913862e-01 8.003027e-01 8.474615e-01 8.551267e-01 9.019146e-01 9.067900e-01 
8.172141e-01 8.271242e-01 8.646542e-01 8.745774e-01 9.148429e-01 9.254082e-01 9.690066e-01 9.797200e-01 1.025237e+00 1.036603e+00 1.083275e+00 1.097484e+00 1.144076e+00 1.165421e+00 2.785301e-01 2.677424e-01 -5.921230e-01 -6.150656e-01 -1.474984e+00 -1.486595e+00 -2.373601e+00 -2.355413e+00 -2.306982e+00 -2.297389e+00 -2.248151e+00 -2.241289e+00 -2.189942e+00 -2.182485e+00 -2.130105e+00 -2.122937e+00 -2.073278e+00 -2.068798e+00 -2.024235e+00 -2.022167e+00 -1.981313e+00 -1.978636e+00 -1.938560e+00 -1.932882e+00 -1.892353e+00 -1.883706e+00 -1.843147e+00 -1.832581e+00 -1.792678e+00 -1.781601e+00 -1.743599e+00 -1.734134e+00 -1.699582e+00 -1.693169e+00 -1.661637e+00 -1.656526e+00 -1.624244e+00 -1.616121e+00 -1.579097e+00 -1.565444e+00 -1.523696e+00 -1.505553e+00 -1.462098e+00 -1.438856e+00 -1.402029e+00 -1.381763e+00 -1.334718e+00 -1.319065e+00 -1.273444e+00 -1.257302e+00 -1.208211e+00 -1.192373e+00 -1.140815e+00 -1.114200e+00 -1.046792e+00 -1.011077e+00 -9.476307e-01 -9.234022e-01 -8.589317e-01 -8.277543e-01 -7.650183e-01 -7.320175e-01 -6.706689e-01 -6.367414e-01 -5.765117e-01 -5.428158e-01 -4.854435e-01 -4.542743e-01 -4.013933e-01 -3.729532e-01 -3.229838e-01 -2.947700e-01 -2.452713e-01 -2.163745e-01 -1.679289e-01 -1.407289e-01 -9.568768e-02 -7.231891e-02 -3.046469e-02 -9.632791e-03 3.204087e-02 5.217514e-02 9.478842e-02 1.128200e-01 1.544613e-01 1.677605e-01 2.074220e-01 2.163113e-01 2.563060e-01 2.636183e-01 3.061449e-01 3.125122e-01 3.560099e-01 3.591705e-01 4.006251e-01 3.993365e-01 4.380854e-01 4.344209e-01 4.724211e-01 4.698288e-01 5.085427e-01 5.087316e-01 5.476069e-01 5.506243e-01 5.885240e-01 5.942897e-01 6.309644e-01 6.399487e-01 6.760850e-01 6.882337e-01 7.236835e-01 7.354895e-01 7.706991e-01 7.813745e-01 
9.710644e-01 9.723277e-01 1.022407e+00 1.022946e+00 1.076198e+00 1.076625e+00 1.133282e+00 1.134074e+00 1.192698e+00 1.194184e+00 1.254327e+00 1.258212e+00 1.318954e+00 1.329321e+00 3.991013e-01 3.670499e-01 -5.300046e-01 -5.749391e-01 -1.476835e+00 -1.498642e+00 -2.443127e+00 -2.414184e+00 -2.372074e+00 -2.351279e+00 -2.308749e+00 -2.291428e+00 -2.248300e+00 -2.231694e+00 -2.188308e+00 -2.171775e+00 -2.129640e+00 -2.113939e+00 -2.074615e+00 -2.060134e+00 -2.023779e+00 -2.009592e+00 -1.975008e+00 -1.959668e+00 -1.925553e+00 -1.908262e+00 -1.874040e+00 -1.854984e+00 -1.820915e+00 -1.801143e+00 -1.768150e+00 -1.749118e+00 -1.718081e+00 -1.700559e+00 -1.671095e+00 -1.654075e+00 -1.624183e+00 -1.605452e+00 -1.573124e+00 -1.551417e+00 -1.516712e+00 -1.493163e+00 -1.458412e+00 -1.436238e+00 -1.403986e+00 -1.386243e+00 -1.341471e+00 -1.322644e+00 -1.275174e+00 -1.259390e+00 -1.216650e+00 -1.198491e+00 -1.151461e+00 -1.118178e+00 -1.060610e+00 -1.022300e+00 -9.651262e-01 -9.310061e-01 -8.658039e-01 -8.280221e-01 -7.601752e-01 -7.214180e-01 -6.547639e-01 -6.168576e-01 -5.527293e-01 -5.163567e-01 -4.550056e-01 -4.202721e-01 -3.614270e-01 -3.280342e-01 -2.710518e-01 -2.385966e-01 -1.830500e-01 -1.518325e-01 -9.820909e-02 -6.955353e-02 -1.889578e-02 5.830412e-03 5.326234e-02 7.388031e-02 1.191636e-01 1.364288e-01 1.809111e-01 1.952115e-01 2.394039e-01 2.503912e-01 2.943347e-01 3.018831e-01 3.460686e-01 3.507459e-01 3.957889e-01 3.980014e-01 4.436806e-01 4.431901e-01 4.887290e-01 4.856192e-01 5.309871e-01 5.266598e-01 5.729055e-01 5.694233e-01 6.174218e-01 6.159612e-01 6.653648e-01 6.658079e-01 7.155449e-01 7.174183e-01 7.667687e-01 7.699500e-01 8.185923e-01 8.229027e-01 8.701494e-01 8.738741e-01 9.207518e-01 9.232118e-01 
8.308370e-01 8.390693e-01 8.751616e-01 8.836531e-01 9.228073e-01 9.321992e-01 9.750262e-01 9.847865e-01 1.029901e+00 1.040522e+00 1.087168e+00 1.100708e+00 1.147543e+00 1.168027e+00 2.820984e-01 2.710501e-01 -5.885186e-01 -6.111198e-01 -1.471168e+00 -1.481596e+00 -2.368811e+00 -2.348349e+00 -2.301693e+00 -2.291202e+00 -2.244367e+00 -2.238788e+00 -2.190546e+00 -2.184927e+00 -2.134103e+00 -2.126565e+00 -2.075313e+00 -2.068084e+00 -2.020671e+00 -2.016426e+00 -1.974708e+00 -1.972644e+00 -1.934451e+00 -1.931233e+00 -1.893202e+00 -1.886148e+00 -1.846359e+00 -1.835051e+00 -1.793884e+00 -1.780303e+00 -1.740146e+00 -1.727780e+00 -1.691536e+00 -1.682895e+00 -1.650768e+00 -1.644217e+00 -1.612139e+00 -1.602855e+00 -1.566044e+00 -1.551023e+00 -1.508936e+00 -1.490332e+00 -1.447123e+00 -1.429570e+00 -1.388739e+00 -1.374231e+00 -1.332829e+00 -1.318357e+00 -1.273057e+00 -1.255257e+00 -1.205125e+00 -1.185074e+00 -1.132969e+00 -1.112278e+00 -1.058663e+00 -1.036297e+00 -9.797074e-01 -9.531312e-01 -8.907340e-01 -8.576220e-01 -7.917155e-01 -7.560567e-01 -6.917697e-01 -6.578426e-01 -5.976938e-01 -5.659413e-01 -5.087699e-01 -4.771970e-01 -4.209809e-01 -3.881640e-01 -3.321496e-01 -2.981098e-01 -2.425787e-01 -2.083427e-01 -1.546419e-01 -1.228066e-01 -7.364669e-02 -4.757242e-02 -4.909580e-03 1.421739e-02 5.184195e-02 6.640995e-02 1.030400e-01 1.159927e-01 1.539206e-01 1.651626e-01 2.036084e-01 2.115338e-01 2.497680e-01 2.543780e-01 2.932441e-01 2.956628e-01 3.354213e-01 3.354197e-01 3.745199e-01 3.715729e-01 4.096787e-01 4.062162e-01 4.459043e-01 4.462654e-01 4.897945e-01 4.958526e-01 5.416485e-01 5.513243e-01 5.955613e-01 6.064224e-01 6.472361e-01 6.588874e-01 6.965470e-01 7.087116e-01 7.435552e-01 7.540180e-01 7.877215e-01 7.966457e-01 
9.835379e-01 9.817659e-01 1.028140e+00 1.025850e+00 1.077337e+00 1.075605e+00 1.134301e+00 1.133563e+00 1.192674e+00 1.189996e+00 1.251967e+00 1.246741e+00 1.311085e+00 1.303899e+00 4.201975e-01 3.286204e-01 -4.922545e-01 -6.086597e-01 -1.434874e+00 -1.510569e+00 -2.408509e+00 -2.394249e+00 -2.350881e+00 -2.339631e+00 -2.298675e+00 -2.288871e+00 -2.247421e+00 -2.234389e+00 -2.189178e+00 -2.171162e+00 -2.124260e+00 -2.105432e+00 -2.063015e+00 -2.048445e+00 -2.013583e+00 -2.002842e+00 -1.972484e+00 -1.960936e+00 -1.930162e+00 -1.913846e+00 -1.879757e+00 -1.857830e+00 -1.820847e+00 -1.795870e+00 -1.759379e+00 -1.736270e+00 -1.704798e+00 -1.687513e+00 -1.661965e+00 -1.648552e+00 -1.623451e+00 -1.607211e+00 -1.575784e+00 -1.552659e+00 -1.514164e+00 -1.487945e+00 -1.448641e+00 -1.426922e+00 -1.391576e+00 -1.376021e+00 -1.340563e+00 -1.324958e+00 -1.283810e+00 -1.263349e+00 -1.216504e+00 -1.193087e+00 -1.145284e+00 -1.122532e+00 -1.075097e+00 -1.051617e+00 -9.994604e-01 -9.690994e-01 -9.061216e-01 -8.663305e-01 -7.957686e-01 -7.528923e-01 -6.833241e-01 -6.438914e-01 -5.792527e-01 -5.431943e-01 -4.810765e-01 -4.445402e-01 -3.815770e-01 -3.424953e-01 -2.782297e-01 -2.373835e-01 -1.729602e-01 -1.320822e-01 -6.958056e-02 -3.228720e-02 2.413279e-02 5.274156e-02 9.948284e-02 1.172046e-01 1.558089e-01 1.664070e-01 2.032074e-01 2.120141e-01 2.509266e-01 2.582544e-01 2.979387e-01 3.011847e-01 3.402433e-01 3.393890e-01 3.795042e-01 3.768462e-01 4.193721e-01 4.149608e-01 4.580519e-01 4.506892e-01 4.939234e-01 4.865956e-01 5.340105e-01 5.325883e-01 5.877626e-01 5.942139e-01 6.545763e-01 6.645482e-01 7.239085e-01 7.328552e-01 7.883336e-01 7.954799e-01 8.468362e-01 8.533640e-01 8.966182e-01 8.991256e-01 9.407250e-01 9.405096e-01 
8.396209e-01 8.423734e-01 8.723672e-01 8.768514e-01 9.124357e-01 9.227391e-01 9.703268e-01 9.772177e-01 1.024957e+00 1.026586e+00 1.078515e+00 1.075179e+00 1.128677e+00 1.116363e+00 3.063554e-01 2.151338e-01 -5.367853e-01 -6.539489e-01 -1.407372e+00 -1.491487e+00 -2.300804e+00 -2.306029e+00 -2.257486e+00 -2.266168e+00 -2.226587e+00 -2.242082e+00 -2.201636e+00 -2.205373e+00 -2.147489e+00 -2.130670e+00 -2.060755e+00 -2.040075e+00 -1.982389e+00 -1.979180e+00 -1.945280e+00 -1.957170e+00 -1.934305e+00 -1.944277e+00 -1.916432e+00 -1.912642e+00 -1.872094e+00 -1.852123e+00 -1.800148e+00 -1.770102e+00 -1.716177e+00 -1.690878e+00 -1.652126e+00 -1.647793e+00 -1.631338e+00 -1.642645e+00 -1.629896e+00 -1.631472e+00 -1.597048e+00 -1.572036e+00 -1.513001e+00 -1.475389e+00 -1.418439e+00 -1.398606e+00 -1.365555e+00 -1.368840e+00 -1.346387e+00 -1.346554e+00 -1.305315e+00 -1.281548e+00 -1.218956e+00 -1.188240e+00 -1.133752e+00 -1.123119e+00 -1.089124e+00 -1.090217e+00 -1.051708e+00 -1.032080e+00 -9.626150e-01 -9.116507e-01 -8.221023e-01 -7.666914e-01 -6.893951e-01 -6.536985e-01 -5.982726e-01 -5.764424e-01 -5.275595e-01 -5.012758e-01 -4.447398e-01 -4.074596e-01 -3.442739e-01 -3.003005e-01 -2.333494e-01 -1.833864e-01 -1.135903e-01 -6.367751e-02 -2.575089e-03 3.095177e-02 6.858783e-02 7.645772e-02 9.385742e-02 9.108494e-02 1.125617e-01 1.208175e-01 1.581505e-01 1.737592e-01 2.139068e-01 2.208625e-01 2.539633e-01 2.513718e-01 2.855384e-01 2.849216e-01 3.271466e-01 3.260836e-01 3.641753e-01 3.498502e-01 3.770064e-01 3.563874e-01 3.887296e-01 3.845466e-01 4.391881e-01 4.594326e-01 5.274501e-01 5.535154e-01 6.115402e-01 6.290804e-01 6.729349e-01 6.883609e-01 7.261261e-01 7.471491e-01 7.747631e-01 7.832408e-01 8.089402e-01 8.127378e-01 
9.887835e-01 9.798420e-01 1.015426e+00 1.006014e+00 1.047294e+00 1.037914e+00 1.124847e+00 1.135716e+00 1.182691e+00 1.180109e+00 1.242092e+00 1.227295e+00 1.296142e+00 1.220895e+00 5.392742e-01 1.619844e-01 -2.980886e-01 -7.343467e-01 -1.206169e+00 -1.522426e+00 -2.230858e+00 -2.263589e+00 -2.220404e+00 -2.224033e+00 -2.194830e+00 -2.206167e+00 -2.176868e+00 -2.172409e+00 -2.120167e+00 -2.088751e+00 -2.020108e+00 -1.983951e+00 -1.930458e+00 -1.917614e+00 -1.894053e+00 -1.901234e+00 -1.890792e+00 -1.895893e+00 -1.878157e+00 -1.866186e+00 -1.831627e+00 -1.799679e+00 -1.750080e+00 -1.705870e+00 -1.653342e+00 -1.615771e+00 -1.582649e+00 -1.572857e+00 -1.568741e+00 -1.579921e+00 -1.580728e+00 -1.579806e+00 -1.552426e+00 -1.517415e+00 -1.458014e+00 -1.407537e+00 -1.351327e+00 -1.325819e+00 -1.301564e+00 -1.307420e+00 -1.297386e+00 -1.299919e+00 -1.265596e+00 -1.237852e+00 -1.176259e+00 -1.140556e+00 -1.090885e+00 -1.083067e+00 -1.061183e+00 -1.070194e+00 -1.042420e+00 -1.024819e+00 -9.555942e-01 -8.966982e-01 -7.989877e-01 -7.336082e-01 -6.494497e-01 -6.085892e-01 -5.500153e-01 -5.254181e-01 -4.721891e-01 -4.401362e-01 -3.744500e-01 -3.275085e-01 -2.519875e-01 -1.968417e-01 -1.160885e-01 -5.394886e-02 3.051366e-02 9.158814e-02 1.641765e-01 2.024055e-01 2.430846e-01 2.459286e-01 2.583113e-01 2.454515e-01 2.612263e-01 2.614096e-01 2.959838e-01 3.046451e-01 3.410980e-01 3.379589e-01 3.644013e-01 3.498002e-01 3.786216e-01 3.692995e-01 4.111709e-01 4.045348e-01 4.438825e-01 4.225705e-01 4.504111e-01 4.228222e-01 4.603266e-01 4.554544e-01 5.250135e-01 5.522258e-01 6.417874e-01 6.752253e-01 7.540102e-01 7.733747e-01 8.380612e-01 8.439180e-01 9.154607e-01 9.322827e-01 9.455613e-01 9.418035e-01 9.657863e-01 9.582648e-01 
8.400541e-01 8.262583e-01 8.401464e-01 8.242640e-01 8.366354e-01 8.120302e-01 8.709258e-01 9.030930e-01 8.842430e-01 9.158110e-01 9.020434e-01 9.313220e-01 9.156838e-01 8.790291e-01 6.756378e-01 5.682385e-01 4.238067e-01 2.910000e-01 1.494111e-01 4.304640e-02 -1.532611e-01 -2.050657e-01 -1.886767e-01 -1.896901e-01 -1.673157e-01 -1.645691e-01 -1.405763e-01 -1.437043e-01 -1.262975e-01 -1.400049e-01 -1.276287e-01 -1.443398e-01 -1.264131e-01 -1.358026e-01 -1.072688e-01 -1.099407e-01 -7.716360e-02 -8.057574e-02 -5.133217e-02 -6.053596e-02 -3.862806e-02 -5.477592e-02 -4.004052e-02 -6.079335e-02 -4.937875e-02 -6.810530e-02 -5.198549e-02 -6.067401e-02 -3.571569e-02 -3.615303e-02 -1.003712e-02 -1.351801e-02 2.755811e-03 -1.152460e-02 -5.999593e-03 -2.509352e-02 -1.777571e-02 -2.854492e-02 -9.395523e-03 -9.080909e-03 1.576419e-02 1.417873e-02 3.064071e-02 1.663343e-02 2.376409e-02 6.525944e-03 1.888364e-02 1.255970e-02 3.795040e-02 4.027532e-02 6.864228e-02 6.660743e-02 8.722300e-02 7.824243e-02 9.923395e-02 9.770818e-02 1.350144e-01 1.528725e-01 2.102911e-01 2.438146e-01 3.121240e-01 3.502864e-01 4.196065e-01 4.558537e-01 5.227018e-01 5.550650e-01 6.162491e-01 6.404832e-01 6.914911e-01 7.057951e-01 7.477767e-01 7.563207e-01 7.935608e-01 7.990822e-01 8.291597e-01 8.247243e-01 8.368514e-01 8.139815e-01 8.051474e-01 7.690219e-01 7.497085e-01 7.125916e-01 6.928827e-01 6.604445e-01 6.421648e-01 6.136975e-01 5.986214e-01 5.788109e-01 5.767657e-01 5.736584e-01 5.903915e-01 6.008360e-01 6.294456e-01 6.408612e-01 6.722321e-01 6.773000e-01 7.133332e-01 7.161741e-01 7.650083e-01 7.663181e-01 8.286230e-01 8.086194e-01 8.897920e-01 8.701995e-01 8.607932e-01 8.387750e-01 8.440190e-01 8.282259e-01 
9.792012e-01 9.591973e-01 9.812142e-01 9.619214e-01 9.788753e-01 9.561113e-01 9.803157e-01 9.990421e-01 9.796164e-01 1.011430e+00 9.840080e-01 1.023562e+00 9.933409e-01 1.019844e+00 9.321277e-01 9.395420e-01 8.754726e-01 8.750400e-01 8.154225e-01 8.188242e-01 7.385049e-01 7.503935e-01 7.377680e-01 7.668027e-01 7.692678e-01 8.037453e-01 8.084271e-01 8.235974e-01 8.073885e-01 7.917705e-01 7.610703e-01 7.378747e-01 7.245811e-01 7.232302e-01 7.418799e-01 7.593902e-01 7.916630e-01 8.055896e-01 8.295788e-01 8.249590e-01 8.303601e-01 8.044685e-01 7.927210e-01 7.535492e-01 7.368378e-01 7.041592e-01 7.056702e-01 7.018594e-01 7.319978e-01 7.503289e-01 7.846519e-01 7.908810e-01 7.956057e-01 7.666926e-01 7.383768e-01 6.928294e-01 6.682086e-01 6.465443e-01 6.554614e-01 6.649053e-01 6.898014e-01 6.943940e-01 6.964416e-01 6.689404e-01 6.465664e-01 6.123485e-01 6.069012e-01 6.045450e-01 6.352865e-01 6.555078e-01 6.901195e-01 6.908179e-01 6.941759e-01 6.624522e-01 6.505433e-01 6.232214e-01 6.391751e-01 6.481009e-01 7.028600e-01 7.381361e-01 8.082529e-01 8.425133e-01 9.055903e-01 9.267161e-01 9.801753e-01 9.898476e-01 1.032660e+00 1.026832e+00 1.054987e+00 1.037146e+00 1.062068e+00 1.051020e+00 1.090157e+00 1.096868e+00 1.144994e+00 1.149249e+00 1.174346e+00 1.148834e+00 1.138150e+00 1.091861e+00 1.067933e+00 1.027210e+00 1.008555e+00 9.789771e-01 9.596431e-01 9.295726e-01 9.052167e-01 8.816755e-01 8.738483e-01 8.769174e-01 8.982858e-01 9.189349e-01 9.487135e-01 9.542614e-01 9.684059e-01 9.447067e-01 9.532597e-01 9.215184e-01 9.529631e-01 9.275184e-01 9.832037e-01 9.462497e-01 1.012065e+00 9.667139e-01 9.887543e-01 9.556796e-01 9.794372e-01 9.552626e-01 
8.240288e-01 8.099120e-01 8.218084e-01 8.111273e-01 8.188375e-01 8.123854e-01 8.143833e-01 8.262075e-01 8.114105e-01 8.330398e-01 8.101510e-01 8.339455e-01 8.104655e-01 8.295220e-01 8.134292e-01 8.304182e-01 8.200257e-01 8.323142e-01 8.281803e-01 8.337795e-01 8.340744e-01 8.322454e-01 8.338410e-01 8.362112e-01 8.445523e-01 8.489687e-01 8.570431e-01 8.512720e-01 8.497814e-01 8.297260e-01 8.234619e-01 8.006244e-01 8.044284e-01 7.915797e-01 8.109720e-01 8.057649e-01 8.312844e-01 8.228922e-01 8.437779e-01 8.253506e-01 8.366953e-01 8.075581e-01 8.103498e-01 7.753679e-01 7.761489e-01 7.457468e-01 7.556231e-01 7.402015e-01 7.631845e-01 7.585979e-01 7.820384e-01 7.710739e-01 7.784880e-01 7.500826e-01 7.405824e-01 7.040116e-01 6.957611e-01 6.702797e-01 6.771961e-01 6.660818e-01 6.782887e-01 6.647565e-01 6.672320e-01 6.430166e-01 6.388010e-01 6.148989e-01 6.198334e-01 6.106631e-01 6.321971e-01 6.349404e-01 6.600660e-01 6.570636e-01 6.710674e-01 6.560755e-01 6.666605e-01 6.548321e-01 6.794005e-01 6.834461e-01 7.259206e-01 7.416454e-01 7.921017e-01 8.081264e-01 8.565313e-01 8.665011e-01 9.094814e-01 9.118692e-01 9.471183e-01 9.399453e-01 9.663989e-01 9.530705e-01 9.771242e-01 9.670814e-01 9.959010e-01 9.929891e-01 1.022389e+00 1.016952e+00 1.032640e+00 1.013886e+00 1.011306e+00 9.842340e-01 9.733873e-01 9.490848e-01 9.372666e-01 9.172796e-01 9.021594e-01 8.820796e-01 8.639725e-01 8.481013e-01 8.383013e-01 8.351600e-01 8.397966e-01 8.439244e-01 8.538992e-01 8.493823e-01 8.546220e-01 8.345171e-01 8.401895e-01 8.135230e-01 8.325042e-01 8.063524e-01 8.388985e-01 8.089573e-01 8.444951e-01 8.119561e-01 8.343806e-01 8.098224e-01 8.275561e-01 8.091108e-01 
