# vtk DataFile Version 2.0
Comment goes here
ASCII

DATASET STRUCTURED_POINTS
FIELD FieldData 1
TIME 1 1 double
0.03600000
DIMENSIONS    64   64   1

ORIGIN    0.000   0.000   0.000
SPACING   0.03125 0.03125   1.000

POINT_DATA   4096
VECTORS u double

0.693008 0.004126 0.000000 -1.176180 -0.000633 0.000000 0.489999 0.001465 0.000000 -1.106500 -0.001566 0.000000 0.331581 -0.000501 0.000000 -1.047172 -0.001260 0.000000 0.371680 0.003414 0.000000 -0.965986 -0.001201 0.000000 0.357347 0.002085 0.000000 -0.877171 -0.002273 0.000000 0.319470 0.000567 0.000000 -0.793792 -0.004287 0.000000 0.279260 -0.002014 0.000000 -0.717366 -0.007039 0.000000 0.232723 -0.005566 0.000000 -0.626588 -0.009871 0.000000 0.158343 -0.004582 0.000000 -0.495608 -0.004652 0.000000 0.020737 -0.003744 0.000000 -0.292138 -0.001857 0.000000 -0.202074 -0.001492 0.000000 -0.014424 -0.001085 0.000000 -0.478823 0.000807 0.000000 0.267449 -0.001197 0.000000 -0.706281 0.001482 0.000000 0.455775 -0.001339 0.000000 -0.819953 0.000162 0.000000 0.523906 0.000442 0.000000 -0.823729 -0.002192 0.000000 0.492998 0.002494 0.000000 -0.745007 -0.003534 0.000000 0.396026 0.003381 0.000000 -0.623192 -0.003723 0.000000 0.271901 0.003639 0.000000 -0.499598 -0.003755 0.000000 0.166733 0.002904 0.000000 -0.418544 -0.002431 0.000000 0.119315 0.000836 0.000000 -0.405574 -0.000742 0.000000 0.140741 -0.000459 0.000000 -0.462592 0.000619 0.000000 0.225543 -0.001691 0.000000 -0.572197 0.002930 0.000000 0.343751 -0.003069 0.000000 -0.691176 0.004021 0.000000 0.444274 -0.001367 0.000000 -0.771435 0.003481 0.000000 0.487742 0.003366 0.000000 -0.786233 0.005577 0.000000 0.446549 0.008313 0.000000 -0.715829 0.005872 0.000000 0.305313 0.006943 0.000000 -0.545508 0.003944 0.000000 0.077886 0.003766 0.000000 -0.310818 0.002035 0.000000 -0.187966 0.001706 0.000000 -0.062467 0.000746 0.000000 -0.455158 0.000618 0.000000 0.171078 0.000007 0.000000 -0.702323 0.000266 0.000000 0.368419 -0.000334 0.000000 -0.916022 -0.000247 0.000000 0.526609 -0.000553 0.000000 -1.115197 -0.007891 0.000000 
-0.402900 0.017212 0.000000 0.258720 0.101668 0.000000 -0.151570 -0.034032 0.000000 0.214832 0.077506 0.000000 0.014397 -0.025881 0.000000 0.192081 -0.022283 0.000000 -0.110976 -0.039985 0.000000 0.155171 0.005027 0.000000 -0.175020 -0.043094 0.000000 0.119168 0.017850 0.000000 -0.212978 -0.039720 0.000000 0.089587 0.020814 0.000000 -0.245988 -0.035164 0.000000 0.064432 0.026516 0.000000 -0.276621 -0.040723 0.000000 0.029734 0.042759 0.000000 -0.298342 -0.062140 0.000000 -0.021170 0.071441 0.000000 -0.276921 -0.098499 0.000000 -0.107476 0.111090 0.000000 -0.199542 -0.135388 0.000000 -0.236084 0.135898 0.000000 -0.086048 -0.138155 0.000000 -0.366676 0.111552 0.000000 0.001184 -0.092181 0.000000 -0.445940 0.054965 0.000000 0.032086 -0.032776 0.000000 -0.468256 0.001479 0.000000 0.015217 0.014667 0.000000 -0.445097 -0.037335 0.000000 -0.037233 0.045867 0.000000 -0.391230 -0.057697 0.000000 -0.106756 0.058884 0.000000 -0.325719 -0.058881 0.000000 -0.171674 0.050315 0.000000 -0.273739 -0.038945 0.000000 -0.208150 0.023092 0.000000 -0.255640 -0.006609 0.000000 -0.205873 -0.009615 0.000000 -0.275519 0.027011 0.000000 -0.164140 -0.040606 0.000000 -0.329805 0.052890 0.000000 -0.094052 -0.057440 0.000000 -0.399621 0.057323 0.000000 -0.020513 -0.049191 0.000000 -0.458033 0.037627 0.000000 0.036441 -0.021567 0.000000 -0.488223 0.002959 0.000000 0.071871 0.019203 0.000000 -0.474920 -0.042315 0.000000 0.077029 0.068930 0.000000 -0.409743 -0.091448 0.000000 0.028108 0.113087 0.000000 -0.301472 -0.121458 0.000000 -0.057303 0.132936 0.000000 -0.177484 -0.126316 0.000000 -0.149306 0.133418 0.000000 -0.053167 -0.117188 0.000000 -0.232807 0.122719 0.000000 0.062739 -0.097733 0.000000 -0.292821 0.105231 0.000000 0.161105 -0.076789 0.000000 -0.325199 0.097400 0.000000 0.258728 -0.076887 0.000000 
0.673317 0.004134 0.000000 0.459513 -0.251962 0.000000 0.656160 0.045353 0.000000 0.397466 -0.167533 0.000000 0.480599 0.022250 0.000000 0.360713 0.124112 0.000000 0.761192 0.040324 0.000000 0.322710 0.062843 0.000000 0.970199 0.038088 0.000000 0.269365 0.035685 0.000000 1.135586 0.030148 0.000000 0.226209 0.028722 0.000000 1.267774 0.023142 0.000000 0.205830 0.023594 0.000000 1.389250 0.029131 0.000000 0.198011 0.011850 0.000000 1.525388 0.046323 0.000000 0.166138 -0.026072 0.000000 1.658858 0.082562 0.000000 0.078940 -0.079236 0.000000 1.831611 0.127116 0.000000 -0.067705 -0.114580 0.000000 2.033844 0.131398 0.000000 -0.224194 -0.088429 0.000000 2.197703 0.080746 0.000000 -0.319250 -0.032241 0.000000 2.283975 0.022478 0.000000 -0.340563 0.017310 0.000000 2.298001 -0.025351 0.000000 -0.304951 0.054944 0.000000 2.255844 -0.057401 0.000000 -0.231526 0.072904 0.000000 2.179003 -0.069234 0.000000 -0.142587 0.068556 0.000000 2.094936 -0.055735 0.000000 -0.067955 0.039381 0.000000 2.037205 -0.020531 0.000000 -0.035500 -0.001441 0.000000 2.025113 0.019137 0.000000 -0.053774 -0.042192 0.000000 2.062393 0.054905 0.000000 -0.121556 -0.071779 0.000000 2.137725 0.072746 0.000000 -0.216338 -0.076608 0.000000 2.217500 0.062434 0.000000 -0.301096 -0.058322 0.000000 2.263370 0.033672 0.000000 -0.354202 -0.032064 0.000000 2.250158 -0.007727 0.000000 -0.371361 0.003155 0.000000 2.151024 -0.059305 0.000000 -0.327748 0.055864 0.000000 1.986905 -0.104326 0.000000 -0.215708 0.089177 0.000000 1.789232 -0.121953 0.000000 -0.070499 0.093709 0.000000 1.582850 -0.123572 0.000000 0.079947 0.084119 0.000000 1.373955 -0.115899 0.000000 0.218915 0.060280 0.000000 1.169021 -0.098699 0.000000 0.337039 0.032131 0.000000 0.959071 -0.098175 0.000000 0.457843 0.069809 0.000000 
2.054504 0.015543 0.000000 -0.142118 0.118826 0.000000 1.424172 0.028015 0.000000 -0.161121 0.253067 0.000000 0.650485 0.010872 0.000000 -0.141186 -0.302877 0.000000 1.482611 -0.001982 0.000000 -0.126039 -0.203980 0.000000 1.974320 0.010251 0.000000 -0.109856 -0.147537 0.000000 2.312455 0.003436 0.000000 -0.093209 -0.111374 0.000000 2.579147 -0.014785 0.000000 -0.065738 -0.094960 0.000000 2.818625 -0.032904 0.000000 -0.004660 -0.093379 0.000000 3.068472 -0.030267 0.000000 0.077490 -0.062029 0.000000 3.199055 -0.011301 0.000000 0.131347 -0.061663 0.000000 3.249859 0.011256 0.000000 0.198238 -0.066335 0.000000 3.259877 0.018335 0.000000 0.260410 -0.052308 0.000000 3.277873 0.002875 0.000000 0.285466 -0.031307 0.000000 3.321424 -0.011463 0.000000 0.277849 -0.012547 0.000000 3.377229 -0.020945 0.000000 0.251660 0.004821 0.000000 3.435513 -0.027558 0.000000 0.220374 0.019144 0.000000 3.481956 -0.030055 0.000000 0.195932 0.025186 0.000000 3.512388 -0.024317 0.000000 0.185291 0.018787 0.000000 3.521648 -0.009363 0.000000 0.192509 0.005483 0.000000 3.510360 0.008659 0.000000 0.210906 -0.010268 0.000000 3.484654 0.027176 0.000000 0.235315 -0.022442 0.000000 3.447385 0.037342 0.000000 0.264041 -0.022452 0.000000 3.402953 0.035566 0.000000 0.287803 -0.008244 0.000000 3.348939 0.031539 0.000000 0.296682 0.016172 0.000000 3.266269 0.036362 0.000000 0.263977 0.056819 0.000000 3.121570 0.025316 0.000000 0.165603 0.072672 0.000000 3.004696 0.001048 0.000000 0.076668 0.076215 0.000000 2.922338 -0.012273 0.000000 0.013660 0.080066 0.000000 2.835351 -0.017027 0.000000 -0.030782 0.091708 0.000000 2.719995 -0.016250 0.000000 -0.065515 0.107202 0.000000 2.553992 -0.012893 0.000000 -0.094295 0.133161 0.000000 2.318509 -0.023404 0.000000 -0.141742 0.208867 0.000000 
2.071016 0.004510 0.000000 -0.072653 0.378370 0.000000 1.582560 0.064356 0.000000 -0.100546 0.606154 0.000000 0.957371 0.002315 0.000000 -0.092296 -0.708014 0.000000 1.614731 0.025177 0.000000 -0.093936 -0.428865 0.000000 2.048703 0.021905 0.000000 -0.081309 -0.302450 0.000000 2.360784 0.013500 0.000000 -0.065656 -0.237970 0.000000 2.610241 -0.004329 0.000000 -0.037017 -0.215884 0.000000 2.838569 -0.031946 0.000000 0.035388 -0.237996 0.000000 3.107105 -0.035827 0.000000 0.131709 -0.156655 0.000000 3.225495 0.028705 0.000000 0.163559 -0.130040 0.000000 3.287521 0.060225 0.000000 0.197684 -0.124599 0.000000 3.322991 0.069226 0.000000 0.225647 -0.106424 0.000000 3.359894 0.055690 0.000000 0.229671 -0.075792 0.000000 3.408168 0.030095 0.000000 0.216232 -0.038495 0.000000 3.456378 0.000838 0.000000 0.197731 -0.003340 0.000000 3.498390 -0.026115 0.000000 0.183044 0.026461 0.000000 3.523266 -0.044791 0.000000 0.181138 0.038124 0.000000 3.532767 -0.045094 0.000000 0.190104 0.030121 0.000000 3.530379 -0.027749 0.000000 0.206737 0.009847 0.000000 3.518979 0.000740 0.000000 0.222214 -0.016486 0.000000 3.505869 0.030496 0.000000 0.230125 -0.034510 0.000000 3.492495 0.044021 0.000000 0.236567 -0.032176 0.000000 3.474921 0.038671 0.000000 0.243607 -0.004308 0.000000 3.444722 0.024793 0.000000 0.250805 0.050606 0.000000 3.376466 0.024978 0.000000 0.217946 0.147853 0.000000 3.196927 0.039069 0.000000 0.112547 0.172738 0.000000 3.060651 -0.015391 0.000000 0.042346 0.171536 0.000000 2.960203 -0.058945 0.000000 0.007565 0.180695 0.000000 2.855768 -0.079130 0.000000 -0.009599 0.199475 0.000000 2.727063 -0.081166 0.000000 -0.019974 0.226283 0.000000 2.557123 -0.069920 0.000000 -0.029218 0.267614 0.000000 2.332498 -0.050728 0.000000 -0.054500 0.333814 0.000000 
2.133288 0.033696 0.000000 -0.132828 0.607282 0.000000 1.725535 0.055908 0.000000 -0.137850 0.878256 0.000000 1.236108 0.002623 0.000000 -0.139265 -0.960237 0.000000 1.715612 -0.000343 0.000000 -0.123465 -0.637952 0.000000 2.103868 -0.002375 0.000000 -0.113601 -0.459619 0.000000 2.396025 -0.012218 0.000000 -0.107399 -0.360831 0.000000 2.626421 -0.043424 0.000000 -0.094741 -0.323288 0.000000 2.836823 -0.105309 0.000000 -0.034452 -0.361915 0.000000 3.179811 -0.126588 0.000000 0.160618 -0.180419 0.000000 3.245738 -0.043151 0.000000 0.167329 -0.123688 0.000000 3.282406 -0.022868 0.000000 0.212640 -0.101805 0.000000 3.303503 -0.009628 0.000000 0.252885 -0.089210 0.000000 3.330113 -0.001150 0.000000 0.264674 -0.079581 0.000000 3.376847 0.001976 0.000000 0.255153 -0.060757 0.000000 3.429023 -0.002444 0.000000 0.232813 -0.037191 0.000000 3.480646 -0.012872 0.000000 0.211813 -0.005732 0.000000 3.510675 -0.028148 0.000000 0.207448 0.015685 0.000000 3.522181 -0.033283 0.000000 0.212350 0.021175 0.000000 3.520823 -0.025996 0.000000 0.228540 0.016883 0.000000 3.506242 -0.006818 0.000000 0.245848 0.002842 0.000000 3.489691 0.019265 0.000000 0.249489 -0.009068 0.000000 3.474302 0.030900 0.000000 0.257307 -0.004878 0.000000 3.456259 0.028526 0.000000 0.270238 0.021956 0.000000 3.435309 0.024341 0.000000 0.288684 0.084427 0.000000 3.392230 0.069221 0.000000 0.314812 0.236358 0.000000 3.147862 0.130716 0.000000 0.117515 0.208948 0.000000 3.018313 0.071249 0.000000 0.039234 0.176663 0.000000 2.944911 0.022508 0.000000 0.000208 0.184502 0.000000 2.864109 0.000138 0.000000 -0.028876 0.220412 0.000000 2.755049 -0.005875 0.000000 -0.055523 0.277141 0.000000 2.604426 -0.003649 0.000000 -0.081948 0.357786 0.000000 2.400883 0.001877 0.000000 -0.113009 0.470348 0.000000 
2.228590 0.024328 0.000000 -0.057726 0.786123 0.000000 1.905896 0.069378 0.000000 -0.075736 1.095581 0.000000 1.518837 0.003730 0.000000 -0.077602 -1.187518 0.000000 1.881439 0.009377 0.000000 -0.078135 -0.817121 0.000000 2.195350 0.012042 0.000000 -0.079606 -0.594607 0.000000 2.440639 0.007299 0.000000 -0.087171 -0.468366 0.000000 2.635502 -0.016987 0.000000 -0.100905 -0.426287 0.000000 2.825958 -0.092235 0.000000 -0.050851 -0.580983 0.000000 3.236811 -0.230897 0.000000 0.200211 -0.222583 0.000000 3.259720 0.021994 0.000000 0.158508 -0.166708 0.000000 3.298157 0.014914 0.000000 0.188346 -0.145696 0.000000 3.326478 0.028980 0.000000 0.211783 -0.133035 0.000000 3.361656 0.043902 0.000000 0.206248 -0.122526 0.000000 3.417201 0.039615 0.000000 0.188940 -0.090671 0.000000 3.469521 0.023178 0.000000 0.167930 -0.054963 0.000000 3.516098 -0.005115 0.000000 0.156185 -0.003568 0.000000 3.530859 -0.040427 0.000000 0.172098 0.026617 0.000000 3.524878 -0.049995 0.000000 0.193466 0.031478 0.000000 3.513375 -0.043940 0.000000 0.221204 0.024429 0.000000 3.494576 -0.016567 0.000000 0.239941 0.000065 0.000000 3.484061 0.026855 0.000000 0.225128 -0.019121 0.000000 3.487082 0.036202 0.000000 0.216764 -0.014133 0.000000 3.492891 0.025741 0.000000 0.221409 0.016643 0.000000 3.510691 0.006346 0.000000 0.260638 0.093685 0.000000 3.529634 -0.001150 0.000000 0.389317 0.392221 0.000000 3.142609 0.236366 0.000000 0.044044 0.302288 0.000000 3.030749 0.062890 0.000000 -0.016296 0.244937 0.000000 2.975136 -0.019919 0.000000 -0.020456 0.261497 0.000000 2.898220 -0.050046 0.000000 -0.020013 0.308536 0.000000 2.791099 -0.054519 0.000000 -0.022561 0.376906 0.000000 2.648598 -0.043494 0.000000 -0.029810 0.471157 0.000000 2.464088 -0.019666 0.000000 -0.045994 0.601410 0.000000 
2.344339 0.045428 0.000000 -0.097958 0.929975 0.000000 2.080244 0.073918 0.000000 -0.106251 1.265315 0.000000 1.776459 0.004489 0.000000 -0.108270 -1.322839 0.000000 2.038689 0.000191 0.000000 -0.104543 -0.951862 0.000000 2.293655 -0.000904 0.000000 -0.104329 -0.704908 0.000000 2.500241 -0.004653 0.000000 -0.114845 -0.555694 0.000000 2.646815 -0.029689 0.000000 -0.153295 -0.513744 0.000000 2.711536 -0.155363 0.000000 -0.250767 -0.772768 0.000000 2.543030 -0.377650 0.000000 -0.476612 -0.203328 0.000000 2.630154 -0.001448 0.000000 -0.481076 -0.162125 0.000000 2.706441 -0.052706 0.000000 -0.485331 -0.130127 0.000000 2.752085 -0.033065 0.000000 -0.479125 -0.124388 0.000000 2.771599 0.004385 0.000000 -0.458449 -0.135125 0.000000 2.770598 0.019284 0.000000 -0.435543 -0.113077 0.000000 2.768721 0.018566 0.000000 -0.417341 -0.083768 0.000000 2.772472 -0.001127 0.000000 -0.414009 -0.020493 0.000000 2.797533 -0.044062 0.000000 -0.430783 0.021666 0.000000 2.831661 -0.054651 0.000000 -0.451878 0.032677 0.000000 2.861749 -0.053734 0.000000 -0.468354 0.035682 0.000000 2.880719 -0.025555 0.000000 -0.465769 0.013357 0.000000 2.875455 0.034077 0.000000 -0.433329 -0.012089 0.000000 2.849360 0.039265 0.000000 -0.391585 -0.010687 0.000000 2.814282 0.023881 0.000000 -0.351591 0.004156 0.000000 2.787688 -0.014889 0.000000 -0.312617 0.065484 0.000000 2.799085 -0.059458 0.000000 -0.281332 0.623384 0.000000 2.910609 0.475989 0.000000 -0.124230 0.320808 0.000000 2.985268 0.131588 0.000000 -0.054887 0.232276 0.000000 2.974675 0.026668 0.000000 -0.035668 0.261418 0.000000 2.920258 -0.000306 0.000000 -0.038222 0.327533 0.000000 2.832994 -0.003328 0.000000 -0.050330 0.419642 0.000000 2.711666 0.003600 0.000000 -0.067000 0.542296 0.000000 2.551282 0.018061 0.000000 -0.085858 0.705847 0.000000 
2.473801 0.036428 0.000000 -0.042843 1.050218 0.000000 2.267536 0.077671 0.000000 -0.053334 1.399366 0.000000 2.036127 0.005749 0.000000 -0.055332 -1.449748 0.000000 2.224324 0.005650 0.000000 -0.058059 -1.072087 0.000000 2.414637 0.011827 0.000000 -0.063204 -0.801193 0.000000 2.565390 0.017814 0.000000 -0.078029 -0.614940 0.000000 2.634940 0.021463 0.000000 -0.142631 -0.491008 0.000000 2.514524 0.005237 0.000000 -0.453691 -0.412478 0.000000 1.657057 -0.005052 0.000000 -1.213168 -0.309707 0.000000 1.809809 0.026458 0.000000 -1.226603 -0.242995 0.000000 1.912708 0.019169 0.000000 -1.341797 -0.191339 0.000000 1.989124 0.022774 0.000000 -1.416899 -0.152549 0.000000 2.002445 0.023226 0.000000 -1.411004 -0.121525 0.000000 1.930215 0.016710 0.000000 -1.364650 -0.088793 0.000000 1.847642 0.004977 0.000000 -1.309686 -0.058714 0.000000 1.777811 -0.008448 0.000000 -1.285124 -0.028628 0.000000 1.796418 -0.023652 0.000000 -1.342064 -0.007510 0.000000 1.872717 -0.028901 0.000000 -1.421311 0.001389 0.000000 1.952028 -0.027463 0.000000 -1.502944 0.005459 0.000000 2.023002 -0.019152 0.000000 -1.534769 0.005330 0.000000 2.035490 -0.005586 0.000000 -1.452508 0.006973 0.000000 1.975021 -0.005542 0.000000 -1.359179 0.020945 0.000000 1.885627 -0.014253 0.000000 -1.292537 0.043237 0.000000 1.778603 -0.032628 0.000000 -1.304525 0.082288 0.000000 1.732258 -0.032435 0.000000 -1.386389 0.280698 0.000000 2.724228 0.079264 0.000000 -0.421990 0.227629 0.000000 3.008209 -0.006454 0.000000 -0.136742 0.255530 0.000000 3.024525 -0.039138 0.000000 -0.054695 0.315914 0.000000 2.973612 -0.047492 0.000000 -0.029790 0.395800 0.000000 2.891589 -0.042412 0.000000 -0.023755 0.498234 0.000000 2.782619 -0.026825 0.000000 -0.026399 0.631541 0.000000 2.644627 -0.000808 0.000000 -0.034697 0.808353 0.000000 
2.606430 0.053574 0.000000 -0.070914 1.136241 0.000000 2.446070 0.084408 0.000000 -0.076380 1.496724 0.000000 2.272893 0.006487 0.000000 -0.078216 -1.511036 0.000000 2.397972 0.002918 0.000000 -0.079304 -1.142175 0.000000 2.540321 0.004241 0.000000 -0.081094 -0.855661 0.000000 2.663002 0.010172 0.000000 -0.086930 -0.625244 0.000000 2.735399 0.034913 0.000000 -0.111787 -0.393328 0.000000 2.709995 0.155697 0.000000 -0.232166 0.084700 0.000000 2.409725 0.381827 0.000000 -0.552346 -0.356080 0.000000 2.442730 0.011987 0.000000 -0.583159 -0.265024 0.000000 2.497979 0.062489 0.000000 -0.652192 -0.206543 0.000000 2.536913 0.042037 0.000000 -0.699994 -0.137710 0.000000 2.545933 -0.001510 0.000000 -0.709078 -0.062895 0.000000 2.517292 -0.027069 0.000000 -0.698829 -0.030505 0.000000 2.483617 -0.036397 0.000000 -0.683930 -0.013937 0.000000 2.457149 -0.025689 0.000000 -0.684840 -0.039099 0.000000 2.473197 0.012878 0.000000 -0.723146 -0.054633 0.000000 2.515268 0.024596 0.000000 -0.770729 -0.046634 0.000000 2.557611 0.027900 0.000000 -0.816865 -0.035291 0.000000 2.591878 0.006270 0.000000 -0.835151 0.000868 0.000000 2.592524 -0.048184 0.000000 -0.796963 0.048380 0.000000 2.556646 -0.054063 0.000000 -0.750459 0.078707 0.000000 2.505022 -0.042761 0.000000 -0.715914 0.111180 0.000000 2.447930 -0.002901 0.000000 -0.709395 0.111828 0.000000 2.425659 0.022406 0.000000 -0.735332 -0.368586 0.000000 2.880598 -0.488409 0.000000 -0.266869 0.036827 0.000000 3.038017 -0.153660 0.000000 -0.102288 0.215961 0.000000 3.045680 -0.055379 0.000000 -0.052179 0.312330 0.000000 3.007753 -0.025210 0.000000 -0.040495 0.409557 0.000000 2.944060 -0.009364 0.000000 -0.043324 0.528612 0.000000 2.856669 0.006245 0.000000 -0.052189 0.680288 0.000000 2.744444 0.026359 0.000000 -0.062775 0.876672 0.000000 
2.746777 0.044567 0.000000 -0.026696 1.210577 0.000000 2.629956 0.083137 0.000000 -0.031464 1.572543 0.000000 2.510228 0.007585 0.000000 -0.033174 -1.574827 0.000000 2.587197 0.006738 0.000000 -0.038323 -1.214436 0.000000 2.686606 0.013617 0.000000 -0.046195 -0.923873 0.000000 2.784737 0.023651 0.000000 -0.058471 -0.687337 0.000000 2.874707 0.046320 0.000000 -0.070131 -0.465604 0.000000 2.989528 0.125616 0.000000 -0.013523 -0.112207 0.000000 3.385364 0.315128 0.000000 0.260372 -0.342712 0.000000 3.354799 0.057270 0.000000 0.215345 -0.298245 0.000000 3.364366 0.088202 0.000000 0.227028 -0.230273 0.000000 3.377050 0.070577 0.000000 0.230621 -0.161570 0.000000 3.402995 0.032309 0.000000 0.210063 -0.092883 0.000000 3.451133 0.006461 0.000000 0.183096 -0.055118 0.000000 3.495370 -0.009922 0.000000 0.157544 -0.032246 0.000000 3.532670 -0.007537 0.000000 0.144320 -0.044676 0.000000 3.538452 0.014653 0.000000 0.159625 -0.049582 0.000000 3.525193 0.018682 0.000000 0.179604 -0.040953 0.000000 3.510455 0.018673 0.000000 0.202586 -0.028809 0.000000 3.493553 -0.000866 0.000000 0.213526 0.004684 0.000000 3.489154 -0.043774 0.000000 0.189635 0.042851 0.000000 3.502480 -0.052046 0.000000 0.172727 0.072569 0.000000 3.521224 -0.048798 0.000000 0.173221 0.100329 0.000000 3.553821 -0.039147 0.000000 0.220533 0.104559 0.000000 3.585999 -0.006497 0.000000 0.344591 -0.174242 0.000000 3.223042 -0.389199 0.000000 0.009464 0.070210 0.000000 3.138445 -0.171035 0.000000 -0.038083 0.247867 0.000000 3.110616 -0.089247 0.000000 -0.031166 0.353841 0.000000 3.071957 -0.059176 0.000000 -0.022013 0.459493 0.000000 3.016005 -0.039583 0.000000 -0.017864 0.585626 0.000000 2.942826 -0.017960 0.000000 -0.018392 0.743765 0.000000 2.852717 0.009778 0.000000 -0.022104 0.946367 0.000000 
2.881538 0.058167 0.000000 -0.046377 1.253061 0.000000 2.801897 0.089176 0.000000 -0.048589 1.616452 0.000000 2.726336 0.008196 0.000000 -0.050065 -1.588004 0.000000 2.759895 0.008067 0.000000 -0.054636 -1.241584 0.000000 2.822099 0.012113 0.000000 -0.060868 -0.953792 0.000000 2.894750 0.022448 0.000000 -0.070148 -0.715215 0.000000 2.974124 0.046572 0.000000 -0.075868 -0.508149 0.000000 3.088591 0.099088 0.000000 -0.028632 -0.311137 0.000000 3.410024 0.107933 0.000000 0.211502 -0.325515 0.000000 3.419680 0.057013 0.000000 0.200275 -0.274590 0.000000 3.413716 0.050806 0.000000 0.223258 -0.219228 0.000000 3.418189 0.038443 0.000000 0.238132 -0.163654 0.000000 3.437591 0.019049 0.000000 0.230855 -0.111033 0.000000 3.477805 -0.000103 0.000000 0.214837 -0.074741 0.000000 3.517770 -0.010845 0.000000 0.196540 -0.051237 0.000000 3.552012 -0.012465 0.000000 0.188839 -0.044881 0.000000 3.557734 -0.002428 0.000000 0.204114 -0.041374 0.000000 3.546444 0.004618 0.000000 0.224431 -0.031897 0.000000 3.531273 0.004918 0.000000 0.247567 -0.018389 0.000000 3.514519 -0.004670 0.000000 0.259083 0.005268 0.000000 3.511011 -0.024294 0.000000 0.241812 0.035054 0.000000 3.521828 -0.037155 0.000000 0.229060 0.059963 0.000000 3.538617 -0.043255 0.000000 0.231844 0.078582 0.000000 3.559151 -0.050213 0.000000 0.261159 0.079650 0.000000 3.563381 -0.101652 0.000000 0.343736 -0.005629 0.000000 3.282992 -0.153283 0.000000 0.060896 0.121424 0.000000 3.171047 -0.106113 0.000000 -0.014280 0.243789 0.000000 3.141434 -0.062296 0.000000 -0.026463 0.350989 0.000000 3.114378 -0.034363 0.000000 -0.028156 0.465509 0.000000 3.075431 -0.013512 0.000000 -0.031007 0.601791 0.000000 3.022815 0.006773 0.000000 -0.036060 0.770397 0.000000 2.957316 0.030071 0.000000 -0.041801 0.982613 0.000000 
3.021953 0.049144 0.000000 -0.009346 1.290218 0.000000 2.976538 0.085349 0.000000 -0.009832 1.648105 0.000000 2.941828 0.009061 0.000000 -0.011117 -1.608386 0.000000 2.942047 0.011309 0.000000 -0.016941 -1.276640 0.000000 2.973213 0.019848 0.000000 -0.024541 -0.996524 0.000000 3.023226 0.032931 0.000000 -0.031852 -0.766712 0.000000 3.090618 0.052040 0.000000 -0.025534 -0.580070 0.000000 3.194208 0.078380 0.000000 0.035968 -0.433641 0.000000 3.411904 0.074994 0.000000 0.178945 -0.352368 0.000000 3.446987 0.068497 0.000000 0.193812 -0.292280 0.000000 3.454151 0.065219 0.000000 0.209133 -0.234745 0.000000 3.463705 0.055704 0.000000 0.216195 -0.180972 0.000000 3.482935 0.039585 0.000000 0.210403 -0.133097 0.000000 3.515514 0.022479 0.000000 0.196221 -0.095083 0.000000 3.547877 0.008375 0.000000 0.182533 -0.066489 0.000000 3.572683 0.000163 0.000000 0.177375 -0.050398 0.000000 3.577873 -0.000622 0.000000 0.187087 -0.038292 0.000000 3.569294 -0.001634 0.000000 0.204666 -0.025782 0.000000 3.556603 -0.004463 0.000000 0.222767 -0.012055 0.000000 3.545091 -0.012382 0.000000 0.231482 0.008192 0.000000 3.543223 -0.026504 0.000000 0.224331 0.032034 0.000000 3.552513 -0.039293 0.000000 0.216752 0.055780 0.000000 3.566281 -0.051582 0.000000 0.220336 0.079795 0.000000 3.574175 -0.068462 0.000000 0.242158 0.100328 0.000000 3.552184 -0.089074 0.000000 0.232984 0.106148 0.000000 3.358514 -0.106359 0.000000 0.079521 0.182154 0.000000 3.253488 -0.095859 0.000000 0.011818 0.277480 0.000000 3.214087 -0.077064 0.000000 -0.006325 0.380897 0.000000 3.186990 -0.057482 0.000000 -0.008249 0.498440 0.000000 3.155423 -0.036732 0.000000 -0.007200 0.638241 0.000000 3.116314 -0.012907 0.000000 -0.007006 0.809264 0.000000 3.070722 0.015519 0.000000 -0.007995 1.022146 0.000000 
3.151875 0.059518 0.000000 -0.022994 1.298477 0.000000 3.137049 0.089662 0.000000 -0.022022 1.651162 0.000000 3.137411 0.009482 0.000000 -0.023032 -1.588223 0.000000 3.104785 0.013892 0.000000 -0.028366 -1.272751 0.000000 3.104433 0.019712 0.000000 -0.035400 -1.003805 0.000000 3.125658 0.029759 0.000000 -0.044616 -0.782607 0.000000 3.165303 0.040254 0.000000 -0.049174 -0.611738 0.000000 3.240492 0.037586 0.000000 -0.013255 -0.528833 0.000000 3.462909 -0.035044 0.000000 0.195217 -0.360598 0.000000 3.478886 0.042146 0.000000 0.188424 -0.281754 0.000000 3.469037 0.035485 0.000000 0.205949 -0.228782 0.000000 3.470120 0.031382 0.000000 0.214924 -0.182884 0.000000 3.484773 0.024841 0.000000 0.209301 -0.143613 0.000000 3.515205 0.014079 0.000000 0.197429 -0.107104 0.000000 3.545386 0.002843 0.000000 0.186515 -0.076043 0.000000 3.567319 -0.007307 0.000000 0.186744 -0.050071 0.000000 3.567198 -0.012140 0.000000 0.200142 -0.032795 0.000000 3.555753 -0.012961 0.000000 0.218530 -0.019206 0.000000 3.541697 -0.013183 0.000000 0.236497 -0.006877 0.000000 3.530887 -0.013386 0.000000 0.241624 0.007135 0.000000 3.531824 -0.017143 0.000000 0.228243 0.025764 0.000000 3.542422 -0.029576 0.000000 0.216980 0.046196 0.000000 3.558668 -0.046839 0.000000 0.217371 0.070688 0.000000 3.573574 -0.072035 0.000000 0.240822 0.101642 0.000000 3.574095 -0.092477 0.000000 0.307268 0.188041 0.000000 3.360204 0.000179 0.000000 0.073899 0.226449 0.000000 3.263694 -0.038409 0.000000 0.004688 0.283190 0.000000 3.244092 -0.044152 0.000000 -0.010587 0.378086 0.000000 3.233367 -0.032440 0.000000 -0.013997 0.497076 0.000000 3.218302 -0.014561 0.000000 -0.016161 0.640900 0.000000 3.197964 0.006579 0.000000 -0.018871 0.815989 0.000000 3.174463 0.031060 0.000000 -0.021498 1.031381 0.000000 
3.286475 0.050640 0.000000 0.008748 1.305044 0.000000 3.298996 0.084377 0.000000 0.011895 1.647743 0.000000 3.331402 0.010071 0.000000 0.011118 -1.575760 0.000000 3.273617 0.016642 0.000000 0.006565 -1.276288 0.000000 3.248448 0.026883 0.000000 0.000442 -1.017749 0.000000 3.246638 0.042147 0.000000 -0.007889 -0.806357 0.000000 3.261886 0.056598 0.000000 -0.018386 -0.655259 0.000000 3.293016 0.042461 0.000000 -0.018893 -0.656057 0.000000 3.343528 -0.133478 0.000000 0.005111 -0.368345 0.000000 3.358926 0.075290 0.000000 -0.001906 -0.282432 0.000000 3.368152 0.047695 0.000000 0.008061 -0.235827 0.000000 3.373295 0.046728 0.000000 0.015919 -0.195625 0.000000 3.379914 0.045208 0.000000 0.019303 -0.163530 0.000000 3.391450 0.034352 0.000000 0.019019 -0.125264 0.000000 3.403970 0.019289 0.000000 0.017399 -0.088422 0.000000 3.414912 -0.000066 0.000000 0.017805 -0.050276 0.000000 3.419239 -0.014020 0.000000 0.022982 -0.026847 0.000000 3.418266 -0.020022 0.000000 0.031716 -0.011726 0.000000 3.414789 -0.022430 0.000000 0.042317 -0.001245 0.000000 3.410428 -0.017509 0.000000 0.050528 0.007256 0.000000 3.408348 -0.013122 0.000000 0.053300 0.021436 0.000000 3.410040 -0.028030 0.000000 0.056306 0.039534 0.000000 3.413979 -0.051973 0.000000 0.061710 0.064889 0.000000 3.419908 -0.091913 0.000000 0.074521 0.099807 0.000000 3.429868 -0.155521 0.000000 0.100913 0.320039 0.000000 3.336502 0.127010 0.000000 0.017938 0.278665 0.000000 3.315186 -0.026648 0.000000 0.000585 0.297081 0.000000 3.312174 -0.061788 0.000000 0.000014 0.391623 0.000000 3.307845 -0.054073 0.000000 0.002476 0.513504 0.000000 3.300894 -0.034568 0.000000 0.004722 0.658579 0.000000 3.292902 -0.010196 0.000000 0.006203 0.832765 0.000000 3.286651 0.018146 0.000000 0.007304 1.044734 0.000000 
3.407752 0.058073 0.000000 -0.000410 1.285957 0.000000 3.445602 0.086515 0.000000 0.003663 1.618756 0.000000 3.506553 0.010259 0.000000 0.003180 -1.530438 0.000000 3.422922 0.018445 0.000000 -0.000109 -1.247582 0.000000 3.370937 0.025835 0.000000 -0.003445 -1.001995 0.000000 3.338582 0.038090 0.000000 -0.007395 -0.797855 0.000000 3.305507 0.050751 0.000000 -0.021182 -0.642868 0.000000 3.222337 0.038093 0.000000 -0.095634 -0.579345 0.000000 2.854424 -0.059048 0.000000 -0.503709 -0.375996 0.000000 2.869861 0.049163 0.000000 -0.503144 -0.290980 0.000000 2.902516 0.025518 0.000000 -0.531294 -0.233926 0.000000 2.908834 0.023525 0.000000 -0.536706 -0.189503 0.000000 2.889860 0.021457 0.000000 -0.519115 -0.155148 0.000000 2.846361 0.014363 0.000000 -0.496805 -0.119624 0.000000 2.809121 0.004463 0.000000 -0.483173 -0.086985 0.000000 2.792073 -0.007713 0.000000 -0.491740 -0.054398 0.000000 2.810788 -0.017317 0.000000 -0.517739 -0.031821 0.000000 2.842729 -0.021695 0.000000 -0.545995 -0.015729 0.000000 2.870912 -0.023783 0.000000 -0.565199 -0.002516 0.000000 2.883839 -0.021598 0.000000 -0.556204 0.009215 0.000000 2.873713 -0.019915 0.000000 -0.515142 0.024072 0.000000 2.848891 -0.032582 0.000000 -0.477161 0.042256 0.000000 2.818169 -0.052243 0.000000 -0.458241 0.064759 0.000000 2.794453 -0.084846 0.000000 -0.488371 0.091683 0.000000 2.792065 -0.118869 0.000000 -0.593764 0.281407 0.000000 3.156329 0.083155 0.000000 -0.164565 0.247765 0.000000 3.315708 -0.021057 0.000000 -0.038814 0.286203 0.000000 3.348367 -0.043581 0.000000 -0.008026 0.382415 0.000000 3.358122 -0.034902 0.000000 -0.001064 0.504027 0.000000 3.364732 -0.016808 0.000000 -0.000352 0.648892 0.000000 3.372829 0.005098 0.000000 -0.001123 0.822240 0.000000 3.385672 0.029958 0.000000 -0.001517 1.031557 0.000000 