# vtk DataFile Version 2.0
Comment goes here
ASCII

DATASET STRUCTURED_POINTS
FIELD FieldData 1
TIME 1 1 double
0.08100000
DIMENSIONS    64   64   1

ORIGIN    0.000   0.000   0.000
SPACING   0.03125 0.03125   1.000

POINT_DATA   4096
VECTORS u double

0.523140 0.067168 0.000000 -1.891402 -0.040016 0.000000 0.297599 0.029972 0.000000 -1.822123 -0.013622 0.000000 0.020359 -0.006399 0.000000 -1.772202 -0.002062 0.000000 0.313051 0.028645 0.000000 -1.638278 -0.002890 0.000000 0.438972 0.020194 0.000000 -1.545156 -0.009447 0.000000 0.452894 0.013283 0.000000 -1.418537 -0.015558 0.000000 0.369443 0.002608 0.000000 -1.234199 -0.018928 0.000000 0.215078 -0.010498 0.000000 -1.009764 -0.019516 0.000000 0.025766 -0.022352 0.000000 -0.771585 -0.039728 0.000000 -0.163040 0.003959 0.000000 -0.538450 -0.020340 0.000000 -0.373079 -0.004108 0.000000 -0.315072 -0.009548 0.000000 -0.572497 -0.002664 0.000000 -0.106625 -0.002910 0.000000 -0.756276 0.003959 0.000000 0.083496 -0.004810 0.000000 -0.924652 0.001403 0.000000 0.256410 -0.003936 0.000000 -1.075700 0.000793 0.000000 0.412338 -0.000911 0.000000 -1.206079 0.002544 0.000000 0.544281 0.000469 0.000000 -1.306830 0.000540 0.000000 0.641678 -0.001511 0.000000 -1.368504 -0.004874 0.000000 0.697579 -0.003685 0.000000 -1.387117 -0.009824 0.000000 0.715016 -0.001296 0.000000 -1.370495 -0.009252 0.000000 0.703469 0.002178 0.000000 -1.332578 -0.001166 0.000000 0.666269 0.000952 0.000000 -1.273175 -0.000988 0.000000 0.598818 0.001804 0.000000 -1.189449 0.003524 0.000000 0.501435 0.004626 0.000000 -1.085136 0.015454 0.000000 0.369810 0.009681 0.000000 -0.959005 0.021280 0.000000 0.194441 0.009848 0.000000 -0.797741 0.017402 0.000000 -0.034589 0.011323 0.000000 -0.604317 0.006809 0.000000 -0.307133 0.010523 0.000000 -0.366634 0.003466 0.000000 -0.629680 0.007115 0.000000 -0.090763 0.004522 0.000000 -0.991994 0.002368 0.000000 0.193854 0.006415 0.000000 -1.359522 -0.001717 0.000000 0.443218 0.008348 0.000000 -1.694535 -0.006071 0.000000 0.619718 0.010022 0.000000 -1.980966 -0.016664 0.000000 
-0.292747 -0.032710 0.000000 0.391398 0.106517 0.000000 -0.083950 -0.035553 0.000000 0.370188 0.127661 0.000000 0.249860 0.002098 0.000000 0.338382 -0.166925 0.000000 -0.205442 -0.068176 0.000000 0.196925 -0.082447 0.000000 -0.425816 -0.039443 0.000000 0.133388 -0.022996 0.000000 -0.533755 -0.050280 0.000000 0.071153 0.029422 0.000000 -0.567879 -0.071838 0.000000 -0.026279 0.067731 0.000000 -0.553284 -0.084083 0.000000 -0.159065 0.088243 0.000000 -0.507509 -0.083615 0.000000 -0.307368 0.103859 0.000000 -0.486997 -0.105584 0.000000 -0.435096 0.107134 0.000000 -0.403612 -0.094382 0.000000 -0.554061 0.094168 0.000000 -0.323279 -0.088896 0.000000 -0.658756 0.082139 0.000000 -0.250066 -0.086186 0.000000 -0.745979 0.077952 0.000000 -0.183755 -0.077280 0.000000 -0.825657 0.070502 0.000000 -0.125689 -0.071141 0.000000 -0.900270 0.060267 0.000000 -0.075956 -0.063172 0.000000 -0.962696 0.046952 0.000000 -0.038646 -0.046132 0.000000 -1.010583 0.030791 0.000000 -0.021050 -0.022808 0.000000 -1.043983 0.012526 0.000000 -0.026905 -0.001766 0.000000 -1.063945 -0.005873 0.000000 -0.049743 0.011380 0.000000 -1.068209 -0.019560 0.000000 -0.079779 0.018368 0.000000 -1.051358 -0.029601 0.000000 -0.116546 0.033272 0.000000 -1.017805 -0.041991 0.000000 -0.160464 0.044273 0.000000 -0.963266 -0.053521 0.000000 -0.205366 0.051863 0.000000 -0.878647 -0.066546 0.000000 -0.240091 0.069270 0.000000 -0.767402 -0.084747 0.000000 -0.284727 0.102729 0.000000 -0.614213 -0.103122 0.000000 -0.334993 0.134399 0.000000 -0.445152 -0.128227 0.000000 -0.411558 0.162445 0.000000 -0.254614 -0.147171 0.000000 -0.505724 0.181863 0.000000 -0.045661 -0.150101 0.000000 -0.594918 0.184313 0.000000 0.162552 -0.131863 0.000000 -0.644422 0.168832 0.000000 0.345285 -0.094792 0.000000 -0.624132 0.147363 0.000000 0.500279 0.037497 0.000000 
2.095733 0.176050 0.000000 0.571110 -0.248813 0.000000 1.718407 0.051182 0.000000 0.520282 -0.347431 0.000000 1.268958 0.025407 0.000000 0.507934 0.453240 0.000000 2.063182 0.170102 0.000000 0.656124 0.217484 0.000000 2.489818 0.083731 0.000000 0.643213 0.098492 0.000000 2.812958 0.075518 0.000000 0.544389 0.018565 0.000000 3.123257 0.100040 0.000000 0.418507 -0.033523 0.000000 3.437768 0.122289 0.000000 0.316011 -0.065291 0.000000 3.722440 0.125951 0.000000 0.242961 -0.060239 0.000000 4.067593 0.131688 0.000000 0.132631 -0.103725 0.000000 4.256145 0.114857 0.000000 0.027671 -0.089881 0.000000 4.423559 0.102031 0.000000 -0.081900 -0.076123 0.000000 4.575334 0.091182 0.000000 -0.202049 -0.071122 0.000000 4.713878 0.081080 0.000000 -0.307183 -0.062002 0.000000 4.839223 0.075406 0.000000 -0.391010 -0.050645 0.000000 4.944644 0.064970 0.000000 -0.456596 -0.036840 0.000000 5.019236 0.048427 0.000000 -0.489475 -0.019107 0.000000 5.068734 0.028526 0.000000 -0.479024 0.002171 0.000000 5.098077 0.010138 0.000000 -0.425848 0.021542 0.000000 5.102504 -0.004988 0.000000 -0.358249 0.032214 0.000000 5.084703 -0.018017 0.000000 -0.300902 0.037719 0.000000 5.043035 -0.034540 0.000000 -0.231772 0.045722 0.000000 4.972079 -0.051015 0.000000 -0.161322 0.049528 0.000000 4.856883 -0.069164 0.000000 -0.103596 0.044406 0.000000 4.655386 -0.089965 0.000000 -0.027069 0.054484 0.000000 4.407328 -0.135787 0.000000 0.034743 0.061588 0.000000 4.115961 -0.162253 0.000000 0.131289 0.087088 0.000000 3.813738 -0.187071 0.000000 0.265650 0.101281 0.000000 3.480261 -0.204431 0.000000 0.426850 0.091561 0.000000 3.116946 -0.201798 0.000000 0.590219 0.047787 0.000000 2.726643 -0.174386 0.000000 0.731370 -0.026360 0.000000 2.320462 -0.144972 0.000000 0.755864 -0.348049 0.000000 
4.536639 0.152043 0.000000 -0.044758 0.483842 0.000000 3.480742 0.015276 0.000000 -0.475913 0.577110 0.000000 1.836508 0.014445 0.000000 -0.462253 -0.961148 0.000000 4.137172 -0.216366 0.000000 -0.233798 -0.509084 0.000000 5.193937 -0.026533 0.000000 -0.236136 -0.346136 0.000000 5.869503 0.048544 0.000000 -0.305069 -0.280877 0.000000 6.402183 0.054044 0.000000 -0.316355 -0.246780 0.000000 6.836272 0.018412 0.000000 -0.123010 -0.196429 0.000000 7.086799 -0.010565 0.000000 0.171323 -0.241295 0.000000 7.602507 0.004745 0.000000 0.543349 -0.081417 0.000000 7.760557 0.010579 0.000000 0.678534 -0.073247 0.000000 7.852325 0.020676 0.000000 0.745854 -0.069635 0.000000 7.937842 0.033963 0.000000 0.779634 -0.060593 0.000000 8.005188 0.027853 0.000000 0.812443 -0.054843 0.000000 8.057438 0.012686 0.000000 0.849681 -0.045153 0.000000 8.093619 0.002415 0.000000 0.876854 -0.027640 0.000000 8.113691 -0.013253 0.000000 0.898140 -0.018707 0.000000 8.131495 -0.033259 0.000000 0.917259 -0.016817 0.000000 8.159577 -0.054942 0.000000 0.940484 -0.010300 0.000000 8.195743 -0.056218 0.000000 0.974222 -0.001759 0.000000 8.215639 -0.038979 0.000000 1.018670 0.012066 0.000000 8.202885 -0.035857 0.000000 1.066127 0.028966 0.000000 8.154471 -0.026177 0.000000 1.101932 0.061675 0.000000 8.064331 -0.005864 0.000000 1.086336 0.134951 0.000000 7.891405 -0.007257 0.000000 1.066915 0.163311 0.000000 7.654377 0.040917 0.000000 0.974993 0.188245 0.000000 7.350301 0.037853 0.000000 0.811016 0.173996 0.000000 7.028787 0.028084 0.000000 0.623430 0.186306 0.000000 6.724331 0.020664 0.000000 0.473892 0.213214 0.000000 6.405691 0.020944 0.000000 0.361610 0.258440 0.000000 6.003469 0.027681 0.000000 0.255917 0.311389 0.000000 5.454193 0.122870 0.000000 0.084187 0.262227 0.000000 
4.749508 0.304995 0.000000 0.212679 0.807084 0.000000 3.864356 0.482338 0.000000 -0.241621 1.296803 0.000000 2.508607 0.011747 0.000000 -0.243609 -1.847424 0.000000 4.131229 -0.058354 0.000000 -0.327674 -0.839281 0.000000 5.157983 0.086069 0.000000 -0.322920 -0.577074 0.000000 5.861931 0.144451 0.000000 -0.367138 -0.514115 0.000000 6.428522 0.111326 0.000000 -0.445477 -0.467612 0.000000 6.949005 -0.071056 0.000000 -0.320260 -0.315818 0.000000 7.256927 -0.168382 0.000000 0.262706 -0.575948 0.000000 7.840978 -0.240338 0.000000 0.659736 -0.261775 0.000000 7.883810 -0.020329 0.000000 0.696423 -0.181650 0.000000 7.999149 0.034711 0.000000 0.741982 -0.161640 0.000000 8.106506 0.057402 0.000000 0.769657 -0.138467 0.000000 8.189166 0.048271 0.000000 0.802975 -0.114252 0.000000 8.246849 0.038168 0.000000 0.837185 -0.086825 0.000000 8.278081 0.037797 0.000000 0.866126 -0.056912 0.000000 8.286501 0.027140 0.000000 0.893628 -0.036912 0.000000 8.285310 0.009406 0.000000 0.921393 -0.025911 0.000000 8.284930 -0.013086 0.000000 0.942295 -0.014624 0.000000 8.298912 -0.038726 0.000000 0.958846 0.012318 0.000000 8.310053 -0.062465 0.000000 0.984984 0.050473 0.000000 8.295498 -0.081997 0.000000 1.017896 0.094136 0.000000 8.253761 -0.086821 0.000000 1.060756 0.139669 0.000000 8.165997 -0.053568 0.000000 1.118142 0.217331 0.000000 7.923186 -0.070544 0.000000 1.242945 0.291513 0.000000 7.659129 -0.043865 0.000000 1.018326 0.365664 0.000000 7.284076 0.001725 0.000000 0.774746 0.408602 0.000000 6.981199 0.000514 0.000000 0.600719 0.405737 0.000000 6.697194 -0.054893 0.000000 0.508197 0.410202 0.000000 6.386520 -0.089516 0.000000 0.462981 0.450009 0.000000 6.000939 -0.068693 0.000000 0.404712 0.522915 0.000000 5.500549 0.026758 0.000000 0.365829 0.569505 0.000000 
5.079199 0.305194 0.000000 -0.015778 1.368995 0.000000 4.261784 0.469575 0.000000 -0.135787 1.932859 0.000000 3.158874 0.016434 0.000000 -0.146205 -2.583770 0.000000 4.261397 -0.132301 0.000000 -0.213416 -1.535838 0.000000 5.256769 -0.031287 0.000000 -0.195789 -1.050084 0.000000 5.936841 0.092763 0.000000 -0.270643 -0.847468 0.000000 6.460819 0.132382 0.000000 -0.569519 -0.767263 0.000000 7.019327 -0.106804 0.000000 -0.725799 -0.504351 0.000000 7.314143 -0.593531 0.000000 0.251796 -0.825346 0.000000 8.053737 -0.392284 0.000000 0.969545 -0.124249 0.000000 7.959417 -0.026108 0.000000 0.668239 -0.188586 0.000000 8.045762 -0.024883 0.000000 0.723455 -0.176992 0.000000 8.147445 0.006288 0.000000 0.757951 -0.143252 0.000000 8.213500 -0.005465 0.000000 0.807918 -0.112526 0.000000 8.262496 -0.021524 0.000000 0.869071 -0.076386 0.000000 8.289583 -0.026526 0.000000 0.914529 -0.036060 0.000000 8.283759 -0.040755 0.000000 0.950531 -0.017516 0.000000 8.274486 -0.061024 0.000000 0.976777 -0.016438 0.000000 8.281261 -0.075844 0.000000 0.990359 -0.024282 0.000000 8.314315 -0.072769 0.000000 1.010481 -0.012900 0.000000 8.333704 -0.065117 0.000000 1.045765 0.026620 0.000000 8.324965 -0.068768 0.000000 1.077232 0.070703 0.000000 8.302512 -0.069037 0.000000 1.150265 0.149439 0.000000 8.231713 -0.063250 0.000000 1.211352 0.377761 0.000000 8.020172 -0.132059 0.000000 1.284754 0.427369 0.000000 7.771500 0.265536 0.000000 1.183756 0.563297 0.000000 7.362585 0.281434 0.000000 0.806784 0.476873 0.000000 7.018613 0.202110 0.000000 0.520831 0.470312 0.000000 6.775103 0.113186 0.000000 0.392008 0.523888 0.000000 6.520895 0.066160 0.000000 0.309827 0.644021 0.000000 6.181819 0.085949 0.000000 0.210532 0.811779 0.000000 5.727057 0.161752 0.000000 0.074808 1.013267 0.000000 
5.340806 0.395581 0.000000 0.162553 1.624498 0.000000 4.687231 0.602347 0.000000 0.082512 2.399713 0.000000 3.781254 0.022164 0.000000 0.071190 -2.949947 0.000000 4.509695 0.008857 0.000000 -0.058130 -1.834652 0.000000 5.260874 0.068442 0.000000 -0.078722 -1.257146 0.000000 5.854115 0.219305 0.000000 -0.106675 -1.038093 0.000000 6.337976 0.410202 0.000000 -0.290603 -1.026120 0.000000 6.799098 0.085224 0.000000 -0.490724 -0.610634 0.000000 7.208772 -1.145977 0.000000 0.145845 -1.315542 0.000000 7.675735 -0.958088 0.000000 0.344889 -0.167454 0.000000 7.594058 0.280977 0.000000 0.180608 -0.267996 0.000000 7.914591 -0.020505 0.000000 0.417259 -0.263323 0.000000 8.050921 0.022906 0.000000 0.496125 -0.204523 0.000000 8.128703 -0.001696 0.000000 0.597185 -0.163248 0.000000 8.186994 -0.022985 0.000000 0.695358 -0.113913 0.000000 8.223920 -0.007661 0.000000 0.764407 -0.051088 0.000000 8.214380 -0.008862 0.000000 0.813933 -0.027639 0.000000 8.203616 -0.016839 0.000000 0.845434 -0.032687 0.000000 8.207511 -0.026669 0.000000 0.860242 -0.047677 0.000000 8.240148 -0.058849 0.000000 0.882499 -0.007071 0.000000 8.249657 -0.097748 0.000000 0.914024 0.059212 0.000000 8.227320 -0.113464 0.000000 0.924601 0.116588 0.000000 8.232917 -0.159853 0.000000 1.002489 0.210467 0.000000 8.210094 -0.114656 0.000000 1.308553 0.428873 0.000000 7.880639 -0.143945 0.000000 2.045975 0.540185 0.000000 7.829657 0.057133 0.000000 1.515232 0.774579 0.000000 7.237886 0.378697 0.000000 0.594528 0.752574 0.000000 6.979106 0.286467 0.000000 0.374076 0.649246 0.000000 6.830479 0.073930 0.000000 0.389222 0.664410 0.000000 6.610535 -0.007336 0.000000 0.396107 0.789086 0.000000 6.294920 0.030602 0.000000 0.359363 0.977677 0.000000 5.880964 0.162482 0.000000 0.279539 1.217364 0.000000 
5.705534 0.422180 0.000000 0.077643 2.022569 0.000000 5.124678 0.549616 0.000000 0.120914 2.838837 0.000000 4.381654 0.027756 0.000000 0.109253 -3.312212 0.000000 4.892021 -0.002980 0.000000 0.046982 -2.287016 0.000000 5.505535 -0.010695 0.000000 0.101714 -1.643325 0.000000 6.009897 0.120715 0.000000 0.340477 -1.331329 0.000000 6.250556 0.316310 0.000000 0.775587 -1.228385 0.000000 6.137634 0.093316 0.000000 0.750153 -0.914025 0.000000 6.207388 -1.230099 0.000000 -0.918810 -1.292309 0.000000 5.340639 -0.591329 0.000000 -2.052904 -0.042572 0.000000 5.980250 0.138172 0.000000 -1.584867 -0.509119 0.000000 6.091311 -0.261533 0.000000 -1.520212 -0.313323 0.000000 6.203567 -0.072579 0.000000 -1.387428 -0.221034 0.000000 6.308528 -0.106525 0.000000 -1.279997 -0.170817 0.000000 6.385488 -0.119697 0.000000 -1.190467 -0.113312 0.000000 6.449944 -0.095574 0.000000 -1.081290 -0.026520 0.000000 6.516250 -0.090282 0.000000 -0.974699 -0.006752 0.000000 6.555287 -0.092525 0.000000 -0.874160 -0.020333 0.000000 6.549313 -0.090651 0.000000 -0.772490 -0.056918 0.000000 6.499031 -0.095026 0.000000 -0.686249 -0.022409 0.000000 6.461386 -0.096643 0.000000 -0.623096 0.048957 0.000000 6.456066 -0.079345 0.000000 -0.549378 0.065105 0.000000 6.486754 -0.146925 0.000000 -0.467400 0.172262 0.000000 6.616315 -0.369314 0.000000 -0.200299 0.707216 0.000000 6.820113 -0.869481 0.000000 0.350560 0.478351 0.000000 6.708011 0.796278 0.000000 0.046553 1.155069 0.000000 6.782060 1.202139 0.000000 -0.054974 0.735654 0.000000 6.964822 0.422562 0.000000 0.139185 0.618938 0.000000 6.965123 0.098040 0.000000 0.253033 0.743832 0.000000 6.798441 0.059275 0.000000 0.263193 0.959636 0.000000 6.528802 0.122694 0.000000 0.213826 1.225735 0.000000 6.172425 0.241576 0.000000 0.136698 1.553426 0.000000 
6.024651 0.454636 0.000000 0.221112 2.205355 0.000000 5.562463 0.559076 0.000000 0.269175 3.142736 0.000000 4.955283 0.033825 0.000000 0.257576 -3.460313 0.000000 5.277041 0.071128 0.000000 0.181753 -2.448166 0.000000 5.666347 0.013710 0.000000 0.224621 -1.761508 0.000000 5.968366 -0.019457 0.000000 0.570751 -1.278753 0.000000 5.923433 -0.024908 0.000000 1.290838 -0.913197 0.000000 5.389045 0.110657 0.000000 1.383206 -0.680388 0.000000 5.171496 0.522987 0.000000 -1.267738 -0.448794 0.000000 3.521005 0.176005 0.000000 -2.765688 -0.807065 0.000000 4.388003 -0.187059 0.000000 -2.408602 -0.379056 0.000000 4.146972 -0.085161 0.000000 -2.826035 -0.375579 0.000000 4.107989 -0.109877 0.000000 -2.868296 -0.309483 0.000000 4.124343 -0.109127 0.000000 -2.976092 -0.240208 0.000000 4.137254 -0.112515 0.000000 -3.095382 -0.178369 0.000000 4.177200 -0.116838 0.000000 -3.146226 -0.117394 0.000000 4.311370 -0.115453 0.000000 -3.170205 -0.066676 0.000000 4.412649 -0.117379 0.000000 -3.177576 -0.026712 0.000000 4.423807 -0.128339 0.000000 -3.161004 0.002605 0.000000 4.304041 -0.145089 0.000000 -3.126753 0.030573 0.000000 4.190583 -0.160901 0.000000 -3.071444 0.064533 0.000000 4.154266 -0.187183 0.000000 -2.987038 0.085900 0.000000 4.071275 -0.241831 0.000000 -3.033484 0.080906 0.000000 4.057001 -0.381757 0.000000 -3.466835 0.225075 0.000000 4.879057 -0.694804 0.000000 -5.269131 0.652287 0.000000 5.628815 0.361139 0.000000 -3.002998 0.700531 0.000000 7.086976 0.480225 0.000000 -0.518293 0.569812 0.000000 7.396066 0.092308 0.000000 0.273679 0.648946 0.000000 7.227655 -0.039918 0.000000 0.397024 0.831092 0.000000 6.970516 -0.017497 0.000000 0.374076 1.058725 0.000000 6.699563 0.079970 0.000000 0.326516 1.334054 0.000000 6.394230 0.239610 0.000000 0.267137 1.684254 0.000000 
6.383588 0.468205 0.000000 0.183247 2.484757 0.000000 5.990106 0.501553 0.000000 0.281356 3.446016 0.000000 5.506746 0.039355 0.000000 0.270794 -3.633970 0.000000 5.700375 0.072842 0.000000 0.200907 -2.676322 0.000000 5.969975 -0.053562 0.000000 0.163675 -1.945344 0.000000 6.224539 -0.225415 0.000000 0.252257 -1.286397 0.000000 6.338151 -0.403777 0.000000 0.501711 -0.693996 0.000000 6.273312 0.000949 0.000000 0.614539 -0.696477 0.000000 6.418608 1.420845 0.000000 0.321322 0.358183 0.000000 6.067152 0.906622 0.000000 -0.261807 -0.909571 0.000000 5.958860 -0.218914 0.000000 -0.441479 -0.268088 0.000000 6.043236 0.155900 0.000000 -0.602796 -0.274339 0.000000 5.998446 -0.030317 0.000000 -0.766849 -0.237388 0.000000 5.960496 0.001271 0.000000 -0.947735 -0.183728 0.000000 5.939027 -0.000407 0.000000 -1.136103 -0.153258 0.000000 5.943290 -0.044731 0.000000 -1.283824 -0.160689 0.000000 5.990549 -0.066302 0.000000 -1.398626 -0.108031 0.000000 6.039194 -0.085154 0.000000 -1.480998 -0.031491 0.000000 6.049937 -0.107224 0.000000 -1.528744 0.062847 0.000000 5.999857 -0.129276 0.000000 -1.570278 0.091050 0.000000 5.953592 -0.151952 0.000000 -1.618763 0.085274 0.000000 5.931581 -0.163751 0.000000 -1.656251 0.148096 0.000000 5.892875 -0.100480 0.000000 -1.808528 0.186537 0.000000 5.893720 0.064038 0.000000 -2.156851 -0.114840 0.000000 6.133978 0.932815 0.000000 -2.849095 -0.271407 0.000000 6.375715 -1.469855 0.000000 -2.150582 -0.303093 0.000000 7.106898 -1.282566 0.000000 -0.620305 0.426564 0.000000 7.378589 -0.369410 0.000000 0.087660 0.787350 0.000000 7.309208 -0.025306 0.000000 0.258656 1.000971 0.000000 7.137076 0.082224 0.000000 0.260215 1.230589 0.000000 6.933190 0.170253 0.000000 0.223553 1.531068 0.000000 6.689536 0.300955 0.000000 0.184747 1.923005 0.000000 
6.706759 0.456137 0.000000 0.290525 2.598837 0.000000 6.406508 0.460967 0.000000 0.392068 3.626095 0.000000 6.032373 0.044388 0.000000 0.382588 -3.653942 0.000000 6.102028 0.141015 0.000000 0.295012 -2.717766 0.000000 6.235818 0.050942 0.000000 0.150834 -2.016073 0.000000 6.426617 -0.108039 0.000000 -0.077091 -1.392365 0.000000 6.706038 -0.274362 0.000000 -0.470375 -0.848358 0.000000 7.115030 -0.002171 0.000000 -0.581820 -0.825684 0.000000 7.286784 0.816204 0.000000 0.431910 -0.097338 0.000000 8.023017 0.759134 0.000000 1.105681 -0.698773 0.000000 7.870847 -0.007387 0.000000 0.831577 -0.463432 0.000000 8.065814 0.076156 0.000000 0.907180 -0.330789 0.000000 8.152350 0.054177 0.000000 0.866705 -0.271534 0.000000 8.199015 0.071759 0.000000 0.873253 -0.218739 0.000000 8.236581 0.075852 0.000000 0.889224 -0.182632 0.000000 8.264444 0.030883 0.000000 0.875552 -0.164653 0.000000 8.258615 -0.000650 0.000000 0.839920 -0.115322 0.000000 8.264854 -0.035007 0.000000 0.782945 -0.037455 0.000000 8.298548 -0.080593 0.000000 0.717490 0.052685 0.000000 8.365076 -0.103555 0.000000 0.673907 0.076838 0.000000 8.407025 -0.112416 0.000000 0.654422 0.086544 0.000000 8.405719 -0.149694 0.000000 0.650419 0.124606 0.000000 8.406755 -0.089554 0.000000 0.729749 0.080061 0.000000 8.396415 -0.033434 0.000000 0.952166 -0.015184 0.000000 8.215846 -0.002560 0.000000 1.918112 0.410550 0.000000 7.911709 -0.337373 0.000000 0.997635 -0.030652 0.000000 7.482246 -1.050053 0.000000 0.193910 0.298120 0.000000 7.369057 -0.615656 0.000000 0.139766 0.718327 0.000000 7.327900 -0.210914 0.000000 0.236124 1.003223 0.000000 7.240301 -0.019055 0.000000 0.282535 1.262612 0.000000 7.104256 0.116631 0.000000 0.284736 1.577707 0.000000 6.929051 0.278416 0.000000 0.272651 1.990202 0.000000 
7.045574 0.450331 0.000000 0.273907 2.785008 0.000000 6.807612 0.400009 0.000000 0.394562 3.820152 0.000000 6.535807 0.048836 0.000000 0.386280 -3.703625 0.000000 6.532164 0.160418 0.000000 0.312287 -2.810113 0.000000 6.606433 0.090616 0.000000 0.177625 -2.136143 0.000000 6.768001 0.002510 0.000000 -0.042465 -1.565817 0.000000 7.056645 -0.010493 0.000000 -0.405238 -1.102989 0.000000 7.489244 0.112394 0.000000 -0.511086 -0.868231 0.000000 7.683331 0.407114 0.000000 0.156823 -0.378050 0.000000 8.249766 0.232850 0.000000 0.896437 -0.757401 0.000000 8.253040 0.055190 0.000000 0.808620 -0.463054 0.000000 8.247265 0.080297 0.000000 0.777660 -0.360876 0.000000 8.315237 0.010157 0.000000 0.778843 -0.284054 0.000000 8.364331 -0.005277 0.000000 0.813762 -0.221294 0.000000 8.396431 -0.016378 0.000000 0.872166 -0.181121 0.000000 8.408540 -0.031059 0.000000 0.911602 -0.154861 0.000000 8.392334 -0.030670 0.000000 0.930066 -0.114270 0.000000 8.373961 -0.028180 0.000000 0.927916 -0.065185 0.000000 8.381149 -0.041768 0.000000 0.901972 -0.003681 0.000000 8.429684 -0.085694 0.000000 0.883182 0.049101 0.000000 8.470032 -0.132468 0.000000 0.892679 0.086580 0.000000 8.483303 -0.159747 0.000000 0.904659 0.147061 0.000000 8.485422 -0.179810 0.000000 1.011758 0.196877 0.000000 8.391690 -0.158379 0.000000 1.215325 0.065729 0.000000 8.163832 -0.033131 0.000000 1.408092 0.032730 0.000000 8.222601 -0.549379 0.000000 1.359550 0.126370 0.000000 7.863195 -0.478841 0.000000 0.619530 0.539752 0.000000 7.568052 -0.315266 0.000000 0.251040 0.828508 0.000000 7.471544 -0.121663 0.000000 0.194198 1.088569 0.000000 7.418171 0.035813 0.000000 0.208347 1.366634 0.000000 7.335839 0.168053 0.000000 0.216856 1.706273 0.000000 7.213940 0.313040 0.000000 0.224930 2.145298 0.000000 
7.351473 0.407160 0.000000 0.352534 2.836800 0.000000 7.192185 0.340312 0.000000 0.468675 3.897900 0.000000 7.014207 0.052669 0.000000 0.461566 -3.650299 0.000000 6.944289 0.215009 0.000000 0.384635 -2.792034 0.000000 6.952360 0.185603 0.000000 0.234413 -2.177641 0.000000 7.059950 0.112051 0.000000 0.024065 -1.681008 0.000000 7.289783 0.088410 0.000000 -0.189102 -1.280958 0.000000 7.583572 0.103677 0.000000 -0.150384 -1.019771 0.000000 7.761633 0.148295 0.000000 0.152784 -0.663773 0.000000 8.213159 0.019521 0.000000 0.795347 -0.702048 0.000000 8.309258 0.080430 0.000000 0.835369 -0.457657 0.000000 8.265740 0.107116 0.000000 0.771604 -0.398761 0.000000 8.336936 0.052994 0.000000 0.784800 -0.320627 0.000000 8.384861 0.036840 0.000000 0.801920 -0.250839 0.000000 8.415280 0.017448 0.000000 0.830236 -0.194741 0.000000 8.427950 -0.008553 0.000000 0.854577 -0.148446 0.000000 8.418970 -0.019114 0.000000 0.866866 -0.096949 0.000000 8.403107 -0.032857 0.000000 0.875855 -0.044643 0.000000 8.400142 -0.054649 0.000000 0.881554 0.004150 0.000000 8.423803 -0.084765 0.000000 0.879636 0.036490 0.000000 8.463968 -0.121913 0.000000 0.887423 0.073273 0.000000 8.487049 -0.161674 0.000000 0.921256 0.122487 0.000000 8.498623 -0.196654 0.000000 0.987665 0.173793 0.000000 8.489955 -0.237001 0.000000 1.122644 0.212674 0.000000 8.322267 -0.195328 0.000000 1.306326 0.351781 0.000000 8.074256 -0.288831 0.000000 1.035986 0.328755 0.000000 7.826025 -0.310033 0.000000 0.647032 0.593263 0.000000 7.629616 -0.247166 0.000000 0.343315 0.814835 0.000000 7.558584 -0.154072 0.000000 0.242794 1.056597 0.000000 7.541808 -0.033204 0.000000 0.243783 1.344943 0.000000 7.510992 0.108123 0.000000 0.264314 1.699607 0.000000 7.449908 0.270341 0.000000 0.289946 2.158567 0.000000 
7.664889 0.387743 0.000000 0.348965 2.944295 0.000000 7.560585 0.283868 0.000000 0.470572 3.998130 0.000000 7.470368 0.055944 0.000000 0.465038 -3.633707 0.000000 7.349033 0.237349 0.000000 0.424996 -2.818183 0.000000 7.307872 0.240837 0.000000 0.330182 -2.243734 0.000000 7.357226 0.212859 0.000000 0.159905 -1.795649 0.000000 7.524918 0.202674 0.000000 -0.065206 -1.396778 0.000000 7.741692 0.073676 0.000000 -0.093406 -1.046291 0.000000 7.869002 0.103946 0.000000 -0.013417 -0.829576 0.000000 8.229753 -0.409713 0.000000 0.717626 -0.853500 0.000000 8.401491 0.015168 0.000000 0.715627 -0.419536 0.000000 8.299547 0.144062 0.000000 0.614403 -0.432071 0.000000 8.396020 -0.003039 0.000000 0.696654 -0.331979 0.000000 8.428422 -0.022397 0.000000 0.758526 -0.251713 0.000000 8.436769 -0.044694 0.000000 0.823096 -0.193791 0.000000 8.436529 -0.055400 0.000000 0.870192 -0.145880 0.000000 8.420301 -0.042959 0.000000 0.885008 -0.098407 0.000000 8.395880 -0.037169 0.000000 0.880806 -0.062220 0.000000 8.394098 -0.047467 0.000000 0.860680 -0.027343 0.000000 8.423744 -0.083776 0.000000 0.845397 0.008936 0.000000 8.469897 -0.140255 0.000000 0.872916 0.063498 0.000000 8.490568 -0.193580 0.000000 0.921771 0.135487 0.000000 8.479344 -0.246220 0.000000 0.994743 0.205545 0.000000 8.419795 -0.293358 0.000000 1.172247 0.233417 0.000000 8.275338 -0.216813 0.000000 1.208395 0.280741 0.000000 8.195612 -0.279039 0.000000 1.277995 0.374602 0.000000 8.100237 -0.089887 0.000000 0.759169 0.736161 0.000000 7.787159 -0.011550 0.000000 0.329444 0.899540 0.000000 7.731646 -0.021141 0.000000 0.218818 1.105344 0.000000 7.747869 0.034823 0.000000 0.217344 1.397450 0.000000 7.747920 0.147521 0.000000 0.236841 1.767357 0.000000 7.721793 0.287409 0.000000 0.270031 2.243733 0.000000 
7.944764 0.328226 0.000000 0.412593 2.941104 0.000000 7.908721 0.218705 0.000000 0.520712 3.988117 0.000000 7.901839 0.058203 0.000000 0.516148 -3.528964 0.000000 7.738019 0.255051 0.000000 0.489210 -2.750874 0.000000 7.648096 0.280417 0.000000 0.456288 -2.226995 0.000000 7.627144 0.282329 0.000000 0.455347 -1.848700 0.000000 7.659790 0.313521 0.000000 0.462470 -1.497732 0.000000 7.741588 0.131876 0.000000 0.357177 -1.147081 0.000000 7.838220 0.068307 0.000000 0.316910 -1.024523 0.000000 7.893833 -0.711523 0.000000 -0.075739 -0.873786 0.000000 7.756280 0.082429 0.000000 -0.127979 -0.355713 0.000000 7.863160 0.208340 0.000000 0.015398 -0.495234 0.000000 7.898890 -0.029256 0.000000 0.077403 -0.353030 0.000000 7.925422 -0.025033 0.000000 0.135607 -0.259186 0.000000 7.947371 -0.047121 0.000000 0.190203 -0.194501 0.000000 7.961443 -0.055649 0.000000 0.243891 -0.132218 0.000000 7.966538 -0.033930 0.000000 0.301031 -0.072528 0.000000 7.963772 -0.028655 0.000000 0.364657 -0.042860 0.000000 7.957439 -0.034524 0.000000 0.423419 -0.025497 0.000000 7.953716 -0.069482 0.000000 0.468501 -0.009663 0.000000 7.956772 -0.149432 0.000000 0.512636 0.052603 0.000000 7.952742 -0.210529 0.000000 0.550638 0.133711 0.000000 7.955127 -0.269626 0.000000 0.571871 0.233342 0.000000 7.982700 -0.414505 0.000000 0.665032 0.357132 0.000000 7.913439 -0.231476 0.000000 0.820928 0.431506 0.000000 7.886204 -0.358431 0.000000 0.782522 0.424129 0.000000 7.798818 0.208792 0.000000 0.425224 0.906341 0.000000 7.751322 0.182559 0.000000 0.237788 0.870348 0.000000 7.829599 -0.043446 0.000000 0.225196 1.040374 0.000000 7.893450 -0.031730 0.000000 0.252537 1.344892 0.000000 7.928525 0.088626 0.000000 0.284340 1.725735 0.000000 7.946618 0.237151 0.000000 0.327640 2.215470 0.000000 
8.227521 0.302789 0.000000 0.413350 2.980339 0.000000 8.242936 0.175750 0.000000 0.511956 4.005012 0.000000 8.310937 0.060508 0.000000 0.508766 -3.469886 0.000000 8.111706 0.264287 0.000000 0.502111 -2.728261 0.000000 7.979869 0.273759 0.000000 0.532348 -2.222782 0.000000 7.868785 0.213800 0.000000 0.699608 -1.828296 0.000000 7.705366 0.195551 0.000000 0.983350 -1.478575 0.000000 7.562693 0.178968 0.000000 0.905008 -1.142924 0.000000 7.492328 0.144214 0.000000 0.764947 -0.885189 0.000000 7.019755 -0.017064 0.000000 -0.937526 -0.715947 0.000000 6.555806 0.067408 0.000000 -0.990359 -0.526416 0.000000 6.846399 0.000685 0.000000 -0.777575 -0.467801 0.000000 6.640150 -0.065044 0.000000 -0.932299 -0.358511 0.000000 6.582687 -0.080600 0.000000 -1.018769 -0.273662 0.000000 6.584986 -0.099289 0.000000 -1.095299 -0.207862 0.000000 6.609461 -0.109088 0.000000 -1.136652 -0.150975 0.000000 6.657050 -0.100099 0.000000 -1.089059 -0.095642 0.000000 6.718790 -0.100795 0.000000 -0.997630 -0.055886 0.000000 6.735465 -0.106230 0.000000 -0.884486 -0.023620 0.000000 6.684863 -0.128858 0.000000 -0.797117 0.005881 0.000000 6.573043 -0.184389 0.000000 -0.808380 0.067528 0.000000 6.502769 -0.231582 0.000000 -0.875270 0.133102 0.000000 6.504845 -0.267453 0.000000 -0.981422 0.177972 0.000000 6.589822 -0.386518 0.000000 -1.329181 0.302678 0.000000 6.887510 -0.372708 0.000000 -1.422588 0.307975 0.000000 7.114811 -0.240633 0.000000 -1.540131 0.461988 0.000000 7.291961 0.267411 0.000000 -0.587038 0.783657 0.000000 7.913334 0.175886 0.000000 0.093598 0.821262 0.000000 8.096209 -0.008550 0.000000 0.257438 1.041493 0.000000 8.133431 0.007483 0.000000 0.278069 1.362375 0.000000 8.160838 0.115718 0.000000 0.289888 1.749263 0.000000 8.196572 0.244109 0.000000 0.326947 2.245588 0.000000 