# vtk DataFile Version 2.0
Comment goes here
ASCII

DATASET STRUCTURED_POINTS
FIELD FieldData 1
TIME 1 1 double
0.02600000
DIMENSIONS    64   64   1

ORIGIN    0.000   0.000   0.000
SPACING   0.03125 0.03125   1.000

POINT_DATA   4096
VECTORS u double

0.468126 0.017772 0.000000 -0.952012 -0.004002 0.000000 0.521823 0.011704 0.000000 -0.956674 -0.007500 0.000000 0.460289 -0.006277 0.000000 -0.942808 -0.008657 0.000000 0.497433 0.012605 0.000000 -0.909568 -0.008149 0.000000 0.481288 0.009456 0.000000 -0.824158 -0.008388 0.000000 0.400958 0.006929 0.000000 -0.687883 -0.008589 0.000000 0.271783 0.003770 0.000000 -0.511352 -0.009377 0.000000 0.098770 0.000605 0.000000 -0.289846 -0.010276 0.000000 -0.111078 0.000471 0.000000 -0.056228 -0.005452 0.000000 -0.306676 -0.000562 0.000000 0.131198 -0.001128 0.000000 -0.445332 -0.002836 0.000000 0.245261 0.002470 0.000000 -0.505708 -0.004258 0.000000 0.280365 0.004011 0.000000 -0.497988 -0.004321 0.000000 0.259721 0.003924 0.000000 -0.458645 -0.003612 0.000000 0.229047 0.003130 0.000000 -0.431657 -0.002812 0.000000 0.219122 0.002637 0.000000 -0.424591 -0.003227 0.000000 0.216610 0.003730 0.000000 -0.415104 -0.004271 0.000000 0.203934 0.004499 0.000000 -0.392167 -0.004893 0.000000 0.170802 0.004917 0.000000 -0.342329 -0.005765 0.000000 0.108482 0.005503 0.000000 -0.268861 -0.006088 0.000000 0.034984 0.005660 0.000000 -0.203538 -0.005719 0.000000 -0.007519 0.005073 0.000000 -0.194794 -0.004056 0.000000 0.018570 0.004084 0.000000 -0.251962 -0.002360 0.000000 0.091596 0.004387 0.000000 -0.341559 -0.001227 0.000000 0.179819 0.005726 0.000000 -0.437276 0.001211 0.000000 0.259779 0.008935 0.000000 -0.515915 0.001787 0.000000 0.298778 0.007625 0.000000 -0.539164 0.000289 0.000000 0.275427 0.005058 0.000000 -0.490835 -0.000760 0.000000 0.175145 0.003074 0.000000 -0.359447 -0.000995 0.000000 -0.011793 0.001636 0.000000 -0.151230 -0.000666 0.000000 -0.266807 0.000803 0.000000 0.105283 -0.000026 0.000000 -0.555612 -0.000604 0.000000 0.371480 0.002917 0.000000 -0.829215 -0.009226 0.000000 
-0.114962 0.075629 0.000000 0.194216 -0.039238 0.000000 -0.179581 0.008636 0.000000 0.222906 0.021231 0.000000 -0.118671 0.014083 0.000000 0.226003 -0.026852 0.000000 -0.206030 -0.011353 0.000000 0.230438 -0.000448 0.000000 -0.253922 -0.035672 0.000000 0.206052 0.033067 0.000000 -0.262001 -0.061242 0.000000 0.157194 0.059866 0.000000 -0.244963 -0.081648 0.000000 0.087935 0.084495 0.000000 -0.205042 -0.103895 0.000000 -0.012215 0.104884 0.000000 -0.140942 -0.110956 0.000000 -0.123417 0.096667 0.000000 -0.071834 -0.090154 0.000000 -0.212944 0.069567 0.000000 -0.021467 -0.056821 0.000000 -0.268829 0.033103 0.000000 -0.005161 -0.020582 0.000000 -0.284007 0.000840 0.000000 -0.019828 0.005797 0.000000 -0.271738 -0.014746 0.000000 -0.046189 0.010777 0.000000 -0.256965 -0.009081 0.000000 -0.060865 0.001286 0.000000 -0.256454 -0.000204 0.000000 -0.061332 -0.001225 0.000000 -0.261675 -0.002692 0.000000 -0.059336 0.004846 0.000000 -0.264142 -0.009838 0.000000 -0.061925 0.014904 0.000000 -0.256724 -0.022380 0.000000 -0.080412 0.028314 0.000000 -0.231167 -0.032736 0.000000 -0.114337 0.032500 0.000000 -0.195865 -0.027502 0.000000 -0.147787 0.015756 0.000000 -0.173180 0.001744 0.000000 -0.152234 -0.019152 0.000000 -0.185020 0.033985 0.000000 -0.121343 -0.042114 0.000000 -0.219414 0.048383 0.000000 -0.071209 -0.049225 0.000000 -0.260551 0.049655 0.000000 -0.011688 -0.045837 0.000000 -0.296584 0.038769 0.000000 0.049170 -0.025610 0.000000 -0.311231 0.011583 0.000000 0.080547 0.006960 0.000000 -0.298311 -0.023291 0.000000 0.074647 0.046720 0.000000 -0.250730 -0.064187 0.000000 0.027511 0.090682 0.000000 -0.162255 -0.102177 0.000000 -0.055086 0.125128 0.000000 -0.042436 -0.126635 0.000000 -0.153999 0.142794 0.000000 0.088319 -0.132323 0.000000 -0.243608 0.135903 0.000000 0.189909 -0.048667 0.000000 
0.635096 0.013466 0.000000 0.369735 0.060617 0.000000 0.416775 -0.016986 0.000000 0.363082 -0.068410 0.000000 0.305698 -0.009374 0.000000 0.382289 0.078702 0.000000 0.430644 0.008170 0.000000 0.366755 0.039744 0.000000 0.549664 0.033842 0.000000 0.320476 -0.000309 0.000000 0.682880 0.055787 0.000000 0.250005 -0.025628 0.000000 0.829329 0.073029 0.000000 0.167857 -0.049298 0.000000 0.999764 0.100755 0.000000 0.066215 -0.074376 0.000000 1.199109 0.111673 0.000000 -0.047973 -0.074560 0.000000 1.362919 0.088965 0.000000 -0.138543 -0.051495 0.000000 1.477230 0.053049 0.000000 -0.186910 -0.013836 0.000000 1.532160 0.010920 0.000000 -0.190026 0.018678 0.000000 1.538663 -0.016589 0.000000 -0.165355 0.030285 0.000000 1.524939 -0.018386 0.000000 -0.144349 0.017806 0.000000 1.522602 -0.003323 0.000000 -0.145129 0.003104 0.000000 1.534141 0.001994 0.000000 -0.151752 0.001734 0.000000 1.539393 -0.001805 0.000000 -0.148517 0.007088 0.000000 1.530960 -0.012311 0.000000 -0.128095 0.023404 0.000000 1.499721 -0.031322 0.000000 -0.083463 0.039428 0.000000 1.448512 -0.041390 0.000000 -0.029022 0.039110 0.000000 1.400297 -0.028404 0.000000 0.001869 0.009519 0.000000 1.392314 0.007784 0.000000 -0.021294 -0.026807 0.000000 1.426778 0.032034 0.000000 -0.080353 -0.045747 0.000000 1.473596 0.039910 0.000000 -0.153295 -0.053795 0.000000 1.512731 0.037244 0.000000 -0.235148 -0.051923 0.000000 1.519925 0.016433 0.000000 -0.296137 -0.023752 0.000000 1.495652 -0.012630 0.000000 -0.308236 0.010958 0.000000 1.434111 -0.048341 0.000000 -0.262683 0.050209 0.000000 1.320045 -0.089469 0.000000 -0.156189 0.084232 0.000000 1.149945 -0.120486 0.000000 -0.004553 0.099716 0.000000 0.937024 -0.130781 0.000000 0.168233 0.089005 0.000000 0.701409 -0.098673 0.000000 0.326069 -0.137872 0.000000 
1.255283 0.031962 0.000000 -0.110690 0.179084 0.000000 0.959392 0.015290 0.000000 -0.134620 0.132308 0.000000 0.386085 -0.005124 0.000000 -0.145336 -0.151798 0.000000 0.977744 0.004180 0.000000 -0.142054 -0.119468 0.000000 1.343631 0.010608 0.000000 -0.128973 -0.100149 0.000000 1.588933 0.009229 0.000000 -0.104888 -0.086582 0.000000 1.772977 0.000500 0.000000 -0.064669 -0.085941 0.000000 1.926042 -0.002254 0.000000 0.012578 -0.094460 0.000000 2.066796 0.003232 0.000000 0.096282 -0.067143 0.000000 2.133480 0.000416 0.000000 0.143890 -0.044743 0.000000 2.179788 -0.008454 0.000000 0.173162 -0.021828 0.000000 2.226494 -0.017465 0.000000 0.176528 -0.005663 0.000000 2.279311 -0.018874 0.000000 0.159944 -0.001022 0.000000 2.332496 -0.010229 0.000000 0.140858 -0.006745 0.000000 2.369960 0.002065 0.000000 0.133676 -0.011742 0.000000 2.390212 0.005398 0.000000 0.134080 -0.007945 0.000000 2.398574 0.001612 0.000000 0.141193 -0.001404 0.000000 2.397567 -0.005518 0.000000 0.149209 0.008859 0.000000 2.399639 -0.016319 0.000000 0.147407 0.018473 0.000000 2.409940 -0.021941 0.000000 0.135634 0.020714 0.000000 2.424483 -0.015135 0.000000 0.121956 0.009726 0.000000 2.425979 0.004010 0.000000 0.121551 -0.000478 0.000000 2.402929 0.016946 0.000000 0.127802 0.001564 0.000000 2.357427 0.023717 0.000000 0.135759 0.010520 0.000000 2.287651 0.036016 0.000000 0.125599 0.031576 0.000000 2.155493 0.035379 0.000000 0.081429 0.035857 0.000000 2.048065 0.019060 0.000000 0.050450 0.038250 0.000000 1.966892 0.001167 0.000000 0.025424 0.049879 0.000000 1.898043 -0.015812 0.000000 -0.007561 0.067924 0.000000 1.827955 -0.026508 0.000000 -0.051309 0.086286 0.000000 1.739714 -0.029991 0.000000 -0.102615 0.103292 0.000000 1.615345 -0.021933 0.000000 -0.140748 0.017646 0.000000 
1.365129 -0.016593 0.000000 -0.068962 0.356508 0.000000 1.100162 0.006945 0.000000 -0.077610 0.504898 0.000000 0.613203 0.001342 0.000000 -0.084110 -0.512957 0.000000 1.102792 0.004888 0.000000 -0.079897 -0.326144 0.000000 1.417552 0.020761 0.000000 -0.070592 -0.245611 0.000000 1.638914 0.031702 0.000000 -0.057081 -0.209672 0.000000 1.812869 0.032809 0.000000 -0.031796 -0.202363 0.000000 1.968890 0.023508 0.000000 0.030842 -0.215130 0.000000 2.139814 0.027968 0.000000 0.093442 -0.141244 0.000000 2.212238 0.041357 0.000000 0.115893 -0.097802 0.000000 2.263287 0.023777 0.000000 0.135061 -0.060543 0.000000 2.305592 0.007553 0.000000 0.140841 -0.034139 0.000000 2.346377 -0.000005 0.000000 0.132703 -0.022900 0.000000 2.388456 0.000700 0.000000 0.120328 -0.019658 0.000000 2.421433 0.003860 0.000000 0.113828 -0.017148 0.000000 2.443435 0.001591 0.000000 0.112584 -0.006628 0.000000 2.453445 -0.008918 0.000000 0.120763 0.008095 0.000000 2.450499 -0.020327 0.000000 0.133409 0.021332 0.000000 2.444927 -0.029520 0.000000 0.141891 0.029127 0.000000 2.442136 -0.029617 0.000000 0.143217 0.024567 0.000000 2.444508 -0.014726 0.000000 0.136643 0.008023 0.000000 2.446561 0.008189 0.000000 0.130501 -0.003757 0.000000 2.437271 0.025783 0.000000 0.124046 -0.000245 0.000000 2.411755 0.031952 0.000000 0.122965 0.015981 0.000000 2.366981 0.047405 0.000000 0.097894 0.080235 0.000000 2.231470 0.060603 0.000000 0.032805 0.083676 0.000000 2.132826 0.018348 0.000000 -0.000844 0.092131 0.000000 2.056660 -0.023315 0.000000 -0.016165 0.119059 0.000000 1.981634 -0.056484 0.000000 -0.028164 0.154320 0.000000 1.895435 -0.076738 0.000000 -0.041833 0.187957 0.000000 1.787105 -0.079474 0.000000 -0.058644 0.213374 0.000000 1.646638 -0.060540 0.000000 -0.076148 0.222190 0.000000 
1.400868 0.024776 0.000000 -0.118328 0.444051 0.000000 1.145409 0.023939 0.000000 -0.127862 0.619268 0.000000 0.808409 0.001376 0.000000 -0.128635 -0.641388 0.000000 1.152828 -0.000033 0.000000 -0.124021 -0.434228 0.000000 1.430194 0.001303 0.000000 -0.116096 -0.321511 0.000000 1.636168 -0.004282 0.000000 -0.102594 -0.260537 0.000000 1.792801 -0.024785 0.000000 -0.074384 -0.241962 0.000000 1.930091 -0.064891 0.000000 0.009707 -0.265384 0.000000 2.150822 -0.059368 0.000000 0.116125 -0.139567 0.000000 2.184487 -0.022035 0.000000 0.129564 -0.095792 0.000000 2.226772 -0.027622 0.000000 0.161061 -0.064133 0.000000 2.262731 -0.023246 0.000000 0.173776 -0.046447 0.000000 2.299789 -0.010736 0.000000 0.164367 -0.043101 0.000000 2.344825 0.002146 0.000000 0.146960 -0.039723 0.000000 2.382336 0.008565 0.000000 0.133321 -0.033743 0.000000 2.411114 0.006641 0.000000 0.124993 -0.017955 0.000000 2.424747 -0.006567 0.000000 0.132127 0.001541 0.000000 2.422307 -0.018164 0.000000 0.142918 0.014431 0.000000 2.418308 -0.024801 0.000000 0.150899 0.021265 0.000000 2.415739 -0.023267 0.000000 0.154782 0.018341 0.000000 2.417205 -0.008561 0.000000 0.148323 0.007673 0.000000 2.423384 0.010152 0.000000 0.141822 0.008812 0.000000 2.416913 0.023401 0.000000 0.134858 0.027080 0.000000 2.388131 0.024798 0.000000 0.147084 0.055294 0.000000 2.365608 0.061086 0.000000 0.150167 0.167086 0.000000 2.164184 0.100469 0.000000 0.038965 0.134501 0.000000 2.066909 0.052709 0.000000 0.009191 0.114415 0.000000 2.002674 0.016488 0.000000 -0.005433 0.124904 0.000000 1.939960 -0.003813 0.000000 -0.024457 0.154123 0.000000 1.866456 -0.012838 0.000000 -0.050832 0.194617 0.000000 1.769082 -0.013181 0.000000 -0.080832 0.243758 0.000000 1.627559 -0.004429 0.000000 -0.106763 0.299155 0.000000 
1.517615 -0.005029 0.000000 -0.060986 0.611966 0.000000 1.299441 0.016479 0.000000 -0.071093 0.841899 0.000000 1.016735 0.002115 0.000000 -0.072034 -0.857377 0.000000 1.290645 0.000275 0.000000 -0.071659 -0.603509 0.000000 1.518557 0.012836 0.000000 -0.072083 -0.451585 0.000000 1.692801 0.018201 0.000000 -0.074476 -0.366305 0.000000 1.827322 0.004599 0.000000 -0.072249 -0.339653 0.000000 1.954954 -0.060583 0.000000 0.007192 -0.435861 0.000000 2.246672 -0.078449 0.000000 0.126748 -0.174909 0.000000 2.247665 0.027918 0.000000 0.101543 -0.140087 0.000000 2.289757 -0.007720 0.000000 0.131049 -0.096502 0.000000 2.318937 -0.005161 0.000000 0.145214 -0.071197 0.000000 2.345692 0.009404 0.000000 0.135411 -0.067935 0.000000 2.387137 0.018108 0.000000 0.117557 -0.057169 0.000000 2.422685 0.017498 0.000000 0.103331 -0.045926 0.000000 2.453414 0.009919 0.000000 0.092580 -0.020261 0.000000 2.466855 -0.016052 0.000000 0.105328 0.010535 0.000000 2.457482 -0.031118 0.000000 0.123194 0.025331 0.000000 2.446033 -0.037500 0.000000 0.139962 0.031695 0.000000 2.434425 -0.033500 0.000000 0.154100 0.023101 0.000000 2.429499 -0.008267 0.000000 0.148887 0.001844 0.000000 2.443231 0.014690 0.000000 0.138011 0.002714 0.000000 2.451384 0.032746 0.000000 0.119834 0.028537 0.000000 2.439827 0.019727 0.000000 0.142453 0.038504 0.000000 2.479338 0.044321 0.000000 0.172636 0.281659 0.000000 2.188090 0.171805 0.000000 -0.018224 0.180951 0.000000 2.114083 0.048122 0.000000 -0.040564 0.156367 0.000000 2.069293 -0.008691 0.000000 -0.038657 0.181773 0.000000 2.012880 -0.037460 0.000000 -0.038787 0.227823 0.000000 1.938558 -0.050363 0.000000 -0.043646 0.285332 0.000000 1.840490 -0.049475 0.000000 -0.052114 0.354897 0.000000 1.707968 -0.034609 0.000000 -0.062034 0.448881 0.000000 
1.575878 0.023728 0.000000 -0.095038 0.662225 0.000000 1.398871 0.034045 0.000000 -0.104999 0.901974 0.000000 1.197165 0.002317 0.000000 -0.105932 -0.915298 0.000000 1.388831 -0.000407 0.000000 -0.106003 -0.662139 0.000000 1.569110 0.001727 0.000000 -0.106258 -0.495756 0.000000 1.712397 -0.001890 0.000000 -0.111534 -0.395057 0.000000 1.810491 -0.027011 0.000000 -0.135112 -0.369595 0.000000 1.848739 -0.144333 0.000000 -0.207691 -0.557102 0.000000 1.748166 -0.178924 0.000000 -0.296839 -0.140560 0.000000 1.800667 0.003170 0.000000 -0.300221 -0.137884 0.000000 1.838633 -0.057128 0.000000 -0.322523 -0.093312 0.000000 1.874333 -0.037410 0.000000 -0.338752 -0.073203 0.000000 1.902033 -0.000933 0.000000 -0.340665 -0.084545 0.000000 1.912727 0.020000 0.000000 -0.332929 -0.075271 0.000000 1.915659 0.022791 0.000000 -0.321992 -0.064473 0.000000 1.914032 0.017393 0.000000 -0.313524 -0.031396 0.000000 1.919837 -0.019315 0.000000 -0.319466 0.010914 0.000000 1.937164 -0.036030 0.000000 -0.332768 0.025880 0.000000 1.956938 -0.041569 0.000000 -0.348260 0.032873 0.000000 1.974475 -0.037405 0.000000 -0.359367 0.023268 0.000000 1.979983 -0.003348 0.000000 -0.352792 -0.006058 0.000000 1.966092 0.021028 0.000000 -0.330355 0.000659 0.000000 1.945854 0.041579 0.000000 -0.295605 0.038637 0.000000 1.933643 0.002178 0.000000 -0.265117 0.015782 0.000000 1.920160 0.030903 0.000000 -0.222322 0.458334 0.000000 2.019513 0.291328 0.000000 -0.102225 0.208508 0.000000 2.050678 0.075050 0.000000 -0.052323 0.159206 0.000000 2.031526 0.014581 0.000000 -0.036855 0.181317 0.000000 1.988443 -0.003683 0.000000 -0.039411 0.228445 0.000000 1.927056 -0.007980 0.000000 -0.052063 0.292684 0.000000 1.843515 -0.004712 0.000000 -0.069264 0.376280 0.000000 1.729230 0.005491 0.000000 -0.085855 0.489508 0.000000 
1.697597 0.004154 0.000000 -0.052887 0.788973 0.000000 1.550723 0.026440 0.000000 -0.059223 1.043604 0.000000 1.387834 0.003048 0.000000 -0.060178 -1.049043 0.000000 1.534160 0.000346 0.000000 -0.062407 -0.783789 0.000000 1.674739 0.013091 0.000000 -0.068813 -0.594872 0.000000 1.784205 0.023476 0.000000 -0.088641 -0.464399 0.000000 1.836545 0.028177 0.000000 -0.161253 -0.377901 0.000000 1.752672 0.011996 0.000000 -0.466924 -0.335288 0.000000 1.148477 0.010699 0.000000 -0.840828 -0.227410 0.000000 1.268454 0.031300 0.000000 -0.851609 -0.178053 0.000000 1.296114 0.014582 0.000000 -0.975533 -0.132203 0.000000 1.339864 0.011068 0.000000 -1.055036 -0.098896 0.000000 1.367510 0.011317 0.000000 -1.059043 -0.078630 0.000000 1.329979 0.010372 0.000000 -1.019725 -0.060101 0.000000 1.278722 0.006561 0.000000 -0.973765 -0.044300 0.000000 1.222901 0.001450 0.000000 -0.935347 -0.026065 0.000000 1.208877 -0.010110 0.000000 -0.964421 -0.006792 0.000000 1.257355 -0.017816 0.000000 -1.020638 0.005557 0.000000 1.315539 -0.022008 0.000000 -1.081808 0.014159 0.000000 1.369611 -0.022392 0.000000 -1.131243 0.017593 0.000000 1.389509 -0.014843 0.000000 -1.113532 0.015735 0.000000 1.336220 -0.007746 0.000000 -1.049842 0.022952 0.000000 1.277412 -0.002004 0.000000 -0.948683 0.040749 0.000000 1.265963 -0.010760 0.000000 -0.931575 0.051987 0.000000 1.173159 0.001525 0.000000 -0.854570 0.182305 0.000000 1.907491 0.051709 0.000000 -0.269842 0.149785 0.000000 2.084999 -0.001780 0.000000 -0.108192 0.175519 0.000000 2.097167 -0.024159 0.000000 -0.060136 0.224856 0.000000 2.062862 -0.034904 0.000000 -0.045692 0.289210 0.000000 2.005668 -0.037711 0.000000 -0.043403 0.368873 0.000000 1.928061 -0.032273 0.000000 -0.046380 0.469182 0.000000 1.826658 -0.018017 0.000000 -0.051017 0.602233 0.000000 
1.770965 0.025598 0.000000 -0.076582 0.809099 0.000000 1.663441 0.040381 0.000000 -0.083769 1.064863 0.000000 1.553656 0.003271 0.000000 -0.084638 -1.061624 0.000000 1.647140 0.001822 0.000000 -0.086889 -0.802719 0.000000 1.748313 0.008132 0.000000 -0.089653 -0.605222 0.000000 1.833587 0.017938 0.000000 -0.097675 -0.447397 0.000000 1.883189 0.045601 0.000000 -0.128428 -0.285721 0.000000 1.860856 0.161338 0.000000 -0.257566 0.047092 0.000000 1.622611 0.194980 0.000000 -0.424090 -0.260537 0.000000 1.665337 0.013951 0.000000 -0.439182 -0.165544 0.000000 1.686615 0.066796 0.000000 -0.502613 -0.137063 0.000000 1.714195 0.042092 0.000000 -0.547288 -0.100849 0.000000 1.733218 0.003074 0.000000 -0.556931 -0.047014 0.000000 1.721996 -0.019318 0.000000 -0.545332 -0.024014 0.000000 1.702658 -0.023169 0.000000 -0.528915 -0.008652 0.000000 1.680315 -0.021025 0.000000 -0.515921 -0.017372 0.000000 1.677547 0.009759 0.000000 -0.534063 -0.037564 0.000000 1.703721 0.020188 0.000000 -0.565256 -0.032303 0.000000 1.735033 0.019600 0.000000 -0.598741 -0.021199 0.000000 1.763526 0.012030 0.000000 -0.625057 0.003369 0.000000 1.773107 -0.021058 0.000000 -0.617431 0.047231 0.000000 1.746219 -0.042662 0.000000 -0.585067 0.059468 0.000000 1.714337 -0.059581 0.000000 -0.532336 0.050085 0.000000 1.704277 -0.014930 0.000000 -0.510847 0.108586 0.000000 1.659858 -0.046101 0.000000 -0.461361 -0.275998 0.000000 1.995008 -0.293401 0.000000 -0.172810 0.031001 0.000000 2.083654 -0.086600 0.000000 -0.079997 0.147038 0.000000 2.083805 -0.033475 0.000000 -0.050747 0.215622 0.000000 2.055078 -0.018127 0.000000 -0.044991 0.285639 0.000000 2.009665 -0.010269 0.000000 -0.049745 0.370292 0.000000 1.948185 -0.001735 0.000000 -0.059133 0.477682 0.000000 1.868598 0.010128 0.000000 -0.069133 0.618570 0.000000 
1.892297 0.011603 0.000000 -0.042948 0.896497 0.000000 1.808369 0.033626 0.000000 -0.046337 1.153389 0.000000 1.727449 0.003917 0.000000 -0.047163 -1.142526 0.000000 1.791509 0.002597 0.000000 -0.050015 -0.884963 0.000000 1.867053 0.015855 0.000000 -0.054631 -0.680146 0.000000 1.938282 0.031499 0.000000 -0.060916 -0.514001 0.000000 2.001348 0.058929 0.000000 -0.059859 -0.355569 0.000000 2.080598 0.141134 0.000000 0.019353 -0.097043 0.000000 2.355193 0.177223 0.000000 0.139295 -0.270136 0.000000 2.326383 0.046392 0.000000 0.109585 -0.199330 0.000000 2.348725 0.078013 0.000000 0.133463 -0.159783 0.000000 2.361650 0.055742 0.000000 0.144003 -0.117918 0.000000 2.374827 0.020960 0.000000 0.131966 -0.067408 0.000000 2.405767 -0.001226 0.000000 0.111409 -0.040763 0.000000 2.434574 -0.009856 0.000000 0.093365 -0.021956 0.000000 2.461624 -0.011544 0.000000 0.078862 -0.023298 0.000000 2.472931 0.008033 0.000000 0.088412 -0.032966 0.000000 2.462394 0.013377 0.000000 0.104299 -0.025755 0.000000 2.449911 0.011477 0.000000 0.120878 -0.014334 0.000000 2.437297 0.003923 0.000000 0.135978 0.008012 0.000000 2.432542 -0.022469 0.000000 0.131700 0.042623 0.000000 2.449779 -0.040110 0.000000 0.119905 0.054834 0.000000 2.465504 -0.054735 0.000000 0.100915 0.050809 0.000000 2.464974 -0.032249 0.000000 0.126497 0.096406 0.000000 2.514410 -0.047961 0.000000 0.154240 -0.152845 0.000000 2.241083 -0.236842 0.000000 -0.033574 0.061139 0.000000 2.185760 -0.094593 0.000000 -0.052910 0.175368 0.000000 2.163084 -0.053409 0.000000 -0.046402 0.253582 0.000000 2.133512 -0.040660 0.000000 -0.040524 0.334623 0.000000 2.092220 -0.032957 0.000000 -0.038413 0.430353 0.000000 2.038294 -0.022886 0.000000 -0.039161 0.548769 0.000000 1.971200 -0.008017 0.000000 -0.041160 0.699867 0.000000 
1.971866 0.027386 0.000000 -0.059608 0.893027 0.000000 1.920869 0.043770 0.000000 -0.064022 1.145783 0.000000 1.878766 0.004097 0.000000 -0.064726 -1.125685 0.000000 1.905407 0.004674 0.000000 -0.067766 -0.878262 0.000000 1.949328 0.012749 0.000000 -0.070364 -0.676451 0.000000 1.997826 0.024222 0.000000 -0.071701 -0.510463 0.000000 2.048595 0.044544 0.000000 -0.062214 -0.364972 0.000000 2.123118 0.082126 0.000000 0.011274 -0.227502 0.000000 2.348193 0.075038 0.000000 0.123877 -0.231727 0.000000 2.340914 0.043662 0.000000 0.114817 -0.187886 0.000000 2.353626 0.042918 0.000000 0.142922 -0.149988 0.000000 2.362010 0.031552 0.000000 0.158346 -0.114026 0.000000 2.373534 0.015111 0.000000 0.152010 -0.077954 0.000000 2.400794 0.001239 0.000000 0.135837 -0.052820 0.000000 2.428014 -0.005126 0.000000 0.119601 -0.035702 0.000000 2.453828 -0.006522 0.000000 0.107198 -0.028680 0.000000 2.464568 0.000209 0.000000 0.115632 -0.027026 0.000000 2.456181 0.004301 0.000000 0.130691 -0.019821 0.000000 2.444578 0.003021 0.000000 0.147287 -0.008585 0.000000 2.432647 -0.003070 0.000000 0.161754 0.008124 0.000000 2.429399 -0.016781 0.000000 0.159067 0.029994 0.000000 2.444483 -0.030867 0.000000 0.149057 0.043742 0.000000 2.457937 -0.040591 0.000000 0.133601 0.050615 0.000000 2.454061 -0.040512 0.000000 0.148099 0.059150 0.000000 2.479353 -0.073845 0.000000 0.161458 -0.002670 0.000000 2.251966 -0.105586 0.000000 -0.003538 0.086323 0.000000 2.183010 -0.067264 0.000000 -0.036248 0.169714 0.000000 2.158996 -0.039984 0.000000 -0.039311 0.245195 0.000000 2.136524 -0.024005 0.000000 -0.039822 0.326930 0.000000 2.107269 -0.012380 0.000000 -0.043000 0.424219 0.000000 2.069573 -0.000987 0.000000 -0.048453 0.544775 0.000000 2.023597 0.012127 0.000000 -0.054477 0.697473 0.000000 
2.088769 0.016734 0.000000 -0.031796 0.947494 0.000000 2.056392 0.038040 0.000000 -0.032957 1.195492 0.000000 2.036231 0.004621 0.000000 -0.033581 -1.169167 0.000000 2.042697 0.005637 0.000000 -0.036339 -0.928884 0.000000 2.068368 0.018453 0.000000 -0.039310 -0.728644 0.000000 2.104195 0.032835 0.000000 -0.039837 -0.564769 0.000000 2.149860 0.049443 0.000000 -0.026544 -0.430092 0.000000 2.221292 0.067645 0.000000 0.032706 -0.322118 0.000000 2.371725 0.064620 0.000000 0.102665 -0.262857 0.000000 2.391385 0.055452 0.000000 0.109327 -0.212042 0.000000 2.405727 0.049908 0.000000 0.128102 -0.168167 0.000000 2.415595 0.040319 0.000000 0.137822 -0.129443 0.000000 2.427568 0.027296 0.000000 0.133615 -0.094668 0.000000 2.448365 0.014946 0.000000 0.121410 -0.067983 0.000000 2.470128 0.006381 0.000000 0.108883 -0.047770 0.000000 2.489364 0.000859 0.000000 0.100975 -0.034038 0.000000 2.496929 -0.000402 0.000000 0.106678 -0.024578 0.000000 2.491152 -0.001683 0.000000 0.119260 -0.014152 0.000000 2.481438 -0.005119 0.000000 0.133560 -0.002403 0.000000 2.472048 -0.010544 0.000000 0.144462 0.011259 0.000000 2.470430 -0.019781 0.000000 0.144124 0.027539 0.000000 2.480606 -0.030100 0.000000 0.136363 0.041380 0.000000 2.490482 -0.039278 0.000000 0.126024 0.054685 0.000000 2.487948 -0.046747 0.000000 0.130789 0.071114 0.000000 2.480774 -0.061320 0.000000 0.109506 0.074542 0.000000 2.334420 -0.071846 0.000000 0.011046 0.130095 0.000000 2.266327 -0.061883 0.000000 -0.024024 0.199383 0.000000 2.237383 -0.050347 0.000000 -0.031552 0.276054 0.000000 2.215470 -0.040149 0.000000 -0.031435 0.363879 0.000000 2.190524 -0.029779 0.000000 -0.030557 0.468049 0.000000 2.160309 -0.017432 0.000000 -0.030505 0.594744 0.000000 2.125423 -0.001993 0.000000 -0.031070 0.751598 0.000000 
2.168542 0.028111 0.000000 -0.043474 0.925404 0.000000 2.163188 0.044931 0.000000 -0.045485 1.165943 0.000000 2.173111 0.004722 0.000000 -0.045966 -1.132150 0.000000 2.150849 0.007432 0.000000 -0.049148 -0.903933 0.000000 2.149760 0.015721 0.000000 -0.051918 -0.712278 0.000000 2.161658 0.024749 0.000000 -0.053160 -0.556128 0.000000 2.184610 0.031251 0.000000 -0.044465 -0.436404 0.000000 2.233076 0.022876 0.000000 0.013055 -0.377935 0.000000 2.396930 0.005079 0.000000 0.112284 -0.251387 0.000000 2.391369 0.037000 0.000000 0.106301 -0.202228 0.000000 2.396607 0.024143 0.000000 0.130767 -0.159856 0.000000 2.399847 0.021832 0.000000 0.142899 -0.125999 0.000000 2.407908 0.019318 0.000000 0.137964 -0.098751 0.000000 2.427127 0.013445 0.000000 0.125855 -0.074584 0.000000 2.447668 0.007402 0.000000 0.112993 -0.054937 0.000000 2.466899 0.001386 0.000000 0.105027 -0.036245 0.000000 2.472767 -0.005493 0.000000 0.112933 -0.021249 0.000000 2.465077 -0.008281 0.000000 0.125783 -0.010106 0.000000 2.454878 -0.011279 0.000000 0.140509 0.000805 0.000000 2.444757 -0.013972 0.000000 0.151102 0.009742 0.000000 2.444430 -0.016442 0.000000 0.148119 0.019818 0.000000 2.457294 -0.023106 0.000000 0.139621 0.033866 0.000000 2.469932 -0.030252 0.000000 0.126419 0.053149 0.000000 2.467663 -0.045277 0.000000 0.133807 0.066324 0.000000 2.484586 -0.052562 0.000000 0.144059 0.143684 0.000000 2.308155 -0.007127 0.000000 0.006928 0.154416 0.000000 2.251202 -0.032194 0.000000 -0.025007 0.198658 0.000000 2.235264 -0.032455 0.000000 -0.030630 0.267108 0.000000 2.224754 -0.024121 0.000000 -0.031912 0.351876 0.000000 2.212475 -0.013258 0.000000 -0.033929 0.454434 0.000000 2.197736 -0.001039 0.000000 -0.037084 0.579661 0.000000 2.181979 0.012692 0.000000 -0.040547 0.734127 0.000000 
2.278359 0.019661 0.000000 -0.020034 0.952848 0.000000 2.287771 0.040050 0.000000 -0.019380 1.185569 0.000000 2.314652 0.005103 0.000000 -0.019759 -1.146905 0.000000 2.277562 0.008819 0.000000 -0.022321 -0.927795 0.000000 2.262159 0.021223 0.000000 -0.025467 -0.740543 0.000000 2.261043 0.034078 0.000000 -0.029273 -0.587721 0.000000 2.269735 0.040747 0.000000 -0.032417 -0.478558 0.000000 2.288938 0.010125 0.000000 -0.022330 -0.485972 0.000000 2.334929 -0.034608 0.000000 -0.003195 -0.257297 0.000000 2.340049 0.061435 0.000000 -0.008506 -0.217280 0.000000 2.347706 0.025442 0.000000 -0.001363 -0.171408 0.000000 2.352134 0.028186 0.000000 0.002587 -0.137503 0.000000 2.356682 0.032231 0.000000 0.001850 -0.113887 0.000000 2.364413 0.027056 0.000000 -0.001182 -0.088524 0.000000 2.372742 0.019243 0.000000 -0.004702 -0.067000 0.000000 2.380838 0.008824 0.000000 -0.007131 -0.039906 0.000000 2.384837 -0.008308 0.000000 -0.004329 -0.016889 0.000000 2.383893 -0.014532 0.000000 0.000685 -0.003953 0.000000 2.381544 -0.019845 0.000000 0.007185 0.007718 0.000000 2.378461 -0.021136 0.000000 0.013205 0.011586 0.000000 2.377848 -0.016798 0.000000 0.015364 0.014674 0.000000 2.381671 -0.021603 0.000000 0.015872 0.028742 0.000000 2.385729 -0.026077 0.000000 0.014425 0.056954 0.000000 2.385110 -0.054134 0.000000 0.020240 0.054191 0.000000 2.395010 -0.071573 0.000000 0.025753 0.250973 0.000000 2.327886 0.065285 0.000000 -0.019654 0.187049 0.000000 2.312449 -0.029947 0.000000 -0.026424 0.215321 0.000000 2.306645 -0.044724 0.000000 -0.025342 0.286563 0.000000 2.300677 -0.038867 0.000000 -0.023282 0.376158 0.000000 2.293438 -0.027762 0.000000 -0.021788 0.482789 0.000000 2.285722 -0.014277 0.000000 -0.020978 0.610501 0.000000 2.279521 0.001470 0.000000 -0.020508 0.765035 0.000000 
2.354570 0.027638 0.000000 -0.028005 0.915991 0.000000 2.386185 0.044277 0.000000 -0.027910 1.139062 0.000000 2.437142 0.005100 0.000000 -0.028136 -1.095060 0.000000 2.377281 0.009995 0.000000 -0.030773 -0.888530 0.000000 2.339316 0.018866 0.000000 -0.033653 -0.711162 0.000000 2.314342 0.028555 0.000000 -0.039559 -0.564821 0.000000 2.288466 0.034396 0.000000 -0.061902 -0.455607 0.000000 2.226137 0.012789 0.000000 -0.165302 -0.423926 0.000000 1.952538 -0.014056 0.000000 -0.352556 -0.256507 0.000000 1.985574 0.042311 0.000000 -0.348093 -0.209885 0.000000 1.988440 0.017000 0.000000 -0.394530 -0.164284 0.000000 1.992362 0.017882 0.000000 -0.415984 -0.130548 0.000000 1.986550 0.020054 0.000000 -0.408277 -0.106482 0.000000 1.962921 0.016477 0.000000 -0.390247 -0.082912 0.000000 1.937851 0.010921 0.000000 -0.371970 -0.063034 0.000000 1.916004 0.003815 0.000000 -0.363216 -0.040244 0.000000 1.917237 -0.008296 0.000000 -0.380412 -0.020306 0.000000 1.939073 -0.013295 0.000000 -0.403113 -0.007757 0.000000 1.962265 -0.017779 0.000000 -0.426009 0.003888 0.000000 1.982300 -0.019992 0.000000 -0.437306 0.010356 0.000000 1.982226 -0.018601 0.000000 -0.422351 0.015996 0.000000 1.959475 -0.023614 0.000000 -0.396194 0.029808 0.000000 1.936514 -0.028804 0.000000 -0.359110 0.053768 0.000000 1.939549 -0.051093 0.000000 -0.357496 0.056424 0.000000 1.907478 -0.058074 0.000000 -0.362834 0.210808 0.000000 2.203282 0.038280 0.000000 -0.108513 0.169854 0.000000 2.290232 -0.025424 0.000000 -0.043541 0.204463 0.000000 2.309052 -0.033538 0.000000 -0.027104 0.273075 0.000000 2.315044 -0.026181 0.000000 -0.023391 0.359115 0.000000 2.319445 -0.014751 0.000000 -0.023637 0.462151 0.000000 2.325589 -0.001850 0.000000 -0.025221 0.585862 0.000000 2.336097 0.012222 0.000000 -0.026929 0.735289 0.000000 