# vtk DataFile Version 2.0
Comment goes here
ASCII

DATASET STRUCTURED_POINTS
FIELD FieldData 1
TIME 1 1 double
0.03100000
DIMENSIONS    64   64   1

ORIGIN    0.000   0.000   0.000
SPACING   0.03125 0.03125   1.000

POINT_DATA   4096
VECTORS u double

0.457251 0.025254 0.000000 -0.902606 -0.014853 0.000000 0.398696 0.005392 0.000000 -0.893800 -0.005966 0.000000 0.311677 -0.006260 0.000000 -0.874441 0.003562 0.000000 0.367846 0.003472 0.000000 -0.846694 0.001317 0.000000 0.384036 0.001363 0.000000 -0.796168 -0.000323 0.000000 0.356813 -0.000385 0.000000 -0.716716 -0.002232 0.000000 0.291586 -0.002806 0.000000 -0.603814 -0.004524 0.000000 0.187179 -0.005741 0.000000 -0.455405 -0.006795 0.000000 0.053954 -0.004696 0.000000 -0.290917 -0.002505 0.000000 -0.092391 -0.003364 0.000000 -0.124967 -0.000930 0.000000 -0.243790 -0.001885 0.000000 0.041893 0.000935 0.000000 -0.395214 -0.001898 0.000000 0.196697 0.002650 0.000000 -0.526375 -0.002734 0.000000 0.317228 0.003067 0.000000 -0.614375 -0.002967 0.000000 0.381619 0.003430 0.000000 -0.642998 -0.004536 0.000000 0.376497 0.005697 0.000000 -0.590667 -0.007571 0.000000 0.280960 0.008072 0.000000 -0.454993 -0.009265 0.000000 0.125652 0.009078 0.000000 -0.302017 -0.009646 0.000000 -0.007193 0.008442 0.000000 -0.199118 -0.008167 0.000000 -0.078271 0.005802 0.000000 -0.164133 -0.005102 0.000000 -0.079586 0.002780 0.000000 -0.204982 -0.002328 0.000000 -0.004289 0.001130 0.000000 -0.316114 -0.001212 0.000000 0.125321 0.001191 0.000000 -0.463787 -0.000565 0.000000 0.268319 0.001804 0.000000 -0.605850 0.001307 0.000000 0.382443 0.002620 0.000000 -0.698270 0.005646 0.000000 0.422948 0.005555 0.000000 -0.715199 0.007505 0.000000 0.377384 0.002928 0.000000 -0.647739 0.006973 0.000000 0.252299 -0.000872 0.000000 -0.502168 0.005915 0.000000 0.058064 -0.003161 0.000000 -0.297569 0.005407 0.000000 -0.185994 -0.004729 0.000000 -0.058266 0.005540 0.000000 -0.456299 -0.005673 0.000000 0.184183 0.005821 0.000000 -0.715102 -0.006753 0.000000 0.387327 0.007012 0.000000 -0.923530 -0.014803 0.000000 
-0.321101 -0.009736 0.000000 0.296936 0.031178 0.000000 -0.266646 -0.004589 0.000000 0.298241 0.044935 0.000000 -0.157031 -0.001008 0.000000 0.278325 -0.034323 0.000000 -0.247022 -0.012829 0.000000 0.256167 -0.013431 0.000000 -0.295430 -0.021806 0.000000 0.221205 0.008945 0.000000 -0.308542 -0.034720 0.000000 0.170674 0.029205 0.000000 -0.297658 -0.050018 0.000000 0.099917 0.050682 0.000000 -0.264691 -0.066411 0.000000 0.004767 0.067248 0.000000 -0.217377 -0.076142 0.000000 -0.096129 0.072327 0.000000 -0.154379 -0.078685 0.000000 -0.193227 0.074603 0.000000 -0.085402 -0.080832 0.000000 -0.289184 0.074382 0.000000 -0.010993 -0.076233 0.000000 -0.380336 0.064855 0.000000 0.058623 -0.060506 0.000000 -0.454615 0.044883 0.000000 0.106400 -0.034995 0.000000 -0.495171 0.018493 0.000000 0.121169 -0.003758 0.000000 -0.496342 -0.018352 0.000000 0.092295 0.038899 0.000000 -0.444467 -0.058344 0.000000 0.014303 0.068354 0.000000 -0.357709 -0.067803 0.000000 -0.070983 0.059084 0.000000 -0.287841 -0.045212 0.000000 -0.123462 0.030844 0.000000 -0.252280 -0.013638 0.000000 -0.143272 -0.002368 0.000000 -0.246161 0.023531 0.000000 -0.131464 -0.040888 0.000000 -0.271567 0.059303 0.000000 -0.088345 -0.068305 0.000000 -0.321599 0.076855 0.000000 -0.026355 -0.074602 0.000000 -0.376498 0.072539 0.000000 0.034335 -0.060134 0.000000 -0.412958 0.045479 0.000000 0.072682 -0.023853 0.000000 -0.406189 0.004002 0.000000 0.083169 0.020164 0.000000 -0.356063 -0.038557 0.000000 0.052301 0.061998 0.000000 -0.271455 -0.076911 0.000000 -0.018337 0.098562 0.000000 -0.159047 -0.106284 0.000000 -0.115298 0.125064 0.000000 -0.027298 -0.123966 0.000000 -0.223557 0.139535 0.000000 0.114216 -0.126314 0.000000 -0.323586 0.134834 0.000000 0.242933 -0.106995 0.000000 -0.387382 0.109978 0.000000 0.330988 -0.038284 0.000000 
0.656887 0.059305 0.000000 0.399392 -0.069308 0.000000 0.529181 0.004087 0.000000 0.378027 -0.115580 0.000000 0.391171 0.013657 0.000000 0.370436 0.093553 0.000000 0.580691 0.025630 0.000000 0.349232 0.049725 0.000000 0.732101 0.036325 0.000000 0.309882 0.012790 0.000000 0.872813 0.050146 0.000000 0.257815 -0.013116 0.000000 1.014677 0.067951 0.000000 0.197471 -0.037491 0.000000 1.174724 0.089409 0.000000 0.129388 -0.054109 0.000000 1.353635 0.096200 0.000000 0.051960 -0.065503 0.000000 1.504789 0.093734 0.000000 -0.030111 -0.069907 0.000000 1.640496 0.094071 0.000000 -0.118134 -0.073474 0.000000 1.766335 0.089254 0.000000 -0.206578 -0.066966 0.000000 1.875778 0.071545 0.000000 -0.280600 -0.044710 0.000000 1.955854 0.037588 0.000000 -0.324427 -0.011339 0.000000 1.995636 -0.003365 0.000000 -0.327463 0.034570 0.000000 1.977663 -0.059447 0.000000 -0.265747 0.086064 0.000000 1.891540 -0.096023 0.000000 -0.156573 0.094365 0.000000 1.786646 -0.079514 0.000000 -0.061733 0.060921 0.000000 1.714345 -0.043728 0.000000 -0.007640 0.025612 0.000000 1.683111 -0.011222 0.000000 0.002488 -0.009028 0.000000 1.699356 0.023079 0.000000 -0.039978 -0.041989 0.000000 1.762667 0.048820 0.000000 -0.121760 -0.060799 0.000000 1.846800 0.054334 0.000000 -0.215327 -0.058886 0.000000 1.917376 0.037767 0.000000 -0.295025 -0.035727 0.000000 1.937763 -0.001122 0.000000 -0.341056 -0.004933 0.000000 1.881509 -0.042621 0.000000 -0.337007 0.033796 0.000000 1.776297 -0.077634 0.000000 -0.273341 0.069767 0.000000 1.631258 -0.106493 0.000000 -0.157089 0.093800 0.000000 1.449732 -0.126343 0.000000 -0.004907 0.103530 0.000000 1.237501 -0.135974 0.000000 0.165537 0.094356 0.000000 1.007690 -0.122896 0.000000 0.327033 0.057043 0.000000 0.783565 -0.081043 0.000000 0.453162 -0.081084 0.000000 
1.642934 0.044035 0.000000 -0.116523 0.158883 0.000000 1.199964 0.016776 0.000000 -0.152799 0.182946 0.000000 0.524664 0.006583 0.000000 -0.140000 -0.223843 0.000000 1.233940 0.008374 0.000000 -0.135224 -0.164841 0.000000 1.667430 0.017545 0.000000 -0.125333 -0.131767 0.000000 1.962614 0.017347 0.000000 -0.105976 -0.112660 0.000000 2.186045 0.010327 0.000000 -0.065552 -0.109364 0.000000 2.374365 0.001673 0.000000 0.012056 -0.111663 0.000000 2.563085 0.001286 0.000000 0.095681 -0.078827 0.000000 2.659784 0.003385 0.000000 0.142014 -0.061104 0.000000 2.714091 0.007191 0.000000 0.182106 -0.051457 0.000000 2.744180 0.012210 0.000000 0.214809 -0.044588 0.000000 2.764610 0.013517 0.000000 0.235838 -0.035194 0.000000 2.788769 0.008832 0.000000 0.240761 -0.021288 0.000000 2.817804 -0.000722 0.000000 0.232452 -0.000379 0.000000 2.857156 -0.022817 0.000000 0.201964 0.027779 0.000000 2.910148 -0.040820 0.000000 0.161890 0.037091 0.000000 2.953170 -0.035756 0.000000 0.140549 0.027089 0.000000 2.969064 -0.023249 0.000000 0.140022 0.017596 0.000000 2.967047 -0.012496 0.000000 0.149339 0.007286 0.000000 2.954258 0.001578 0.000000 0.166541 -0.004007 0.000000 2.930608 0.013477 0.000000 0.191097 -0.007278 0.000000 2.893955 0.018965 0.000000 0.214676 0.001963 0.000000 2.839755 0.019564 0.000000 0.227756 0.025092 0.000000 2.765534 0.022179 0.000000 0.200680 0.060257 0.000000 2.634246 0.016114 0.000000 0.122874 0.066654 0.000000 2.526998 -0.001668 0.000000 0.059393 0.068128 0.000000 2.450478 -0.017690 0.000000 0.009261 0.075241 0.000000 2.379375 -0.027119 0.000000 -0.036019 0.088265 0.000000 2.293171 -0.030908 0.000000 -0.083274 0.103497 0.000000 2.172528 -0.026662 0.000000 -0.128958 0.117131 0.000000 1.990409 -0.016152 0.000000 -0.163421 0.088394 0.000000 
1.717512 0.012408 0.000000 -0.072139 0.373662 0.000000 1.350665 0.040363 0.000000 -0.096761 0.559720 0.000000 0.787607 0.000858 0.000000 -0.091605 -0.615723 0.000000 1.365495 0.020854 0.000000 -0.090117 -0.383766 0.000000 1.741624 0.026434 0.000000 -0.079642 -0.282395 0.000000 2.008663 0.030789 0.000000 -0.063545 -0.236547 0.000000 2.218018 0.027527 0.000000 -0.031239 -0.225811 0.000000 2.404657 0.011801 0.000000 0.042420 -0.242830 0.000000 2.618514 0.012575 0.000000 0.120623 -0.162202 0.000000 2.711315 0.047401 0.000000 0.145784 -0.124214 0.000000 2.768955 0.053979 0.000000 0.167787 -0.103563 0.000000 2.806753 0.056552 0.000000 0.181964 -0.087395 0.000000 2.836880 0.050516 0.000000 0.186225 -0.068870 0.000000 2.870226 0.032665 0.000000 0.181615 -0.040373 0.000000 2.902776 0.004944 0.000000 0.173972 -0.004782 0.000000 2.934721 -0.028959 0.000000 0.159774 0.033072 0.000000 2.964130 -0.055949 0.000000 0.148578 0.051343 0.000000 2.979721 -0.058173 0.000000 0.150178 0.045027 0.000000 2.979222 -0.043201 0.000000 0.160711 0.027629 0.000000 2.971388 -0.020538 0.000000 0.171080 0.003760 0.000000 2.964039 0.005876 0.000000 0.177279 -0.018339 0.000000 2.959108 0.024264 0.000000 0.182484 -0.024146 0.000000 2.949509 0.030755 0.000000 0.185555 -0.004685 0.000000 2.923350 0.024687 0.000000 0.188644 0.038494 0.000000 2.870315 0.025954 0.000000 0.155064 0.126356 0.000000 2.718400 0.035184 0.000000 0.067001 0.141044 0.000000 2.604397 -0.014153 0.000000 0.014607 0.146286 0.000000 2.518307 -0.056361 0.000000 -0.012659 0.164903 0.000000 2.430739 -0.081063 0.000000 -0.029886 0.189734 0.000000 2.325254 -0.088720 0.000000 -0.045564 0.214999 0.000000 2.189044 -0.077212 0.000000 -0.061428 0.239162 0.000000 2.006569 -0.046580 0.000000 -0.078958 0.266391 0.000000 
1.769636 0.037216 0.000000 -0.128030 0.525730 0.000000 1.441015 0.041398 0.000000 -0.134656 0.746004 0.000000 1.028284 0.001427 0.000000 -0.136347 -0.801731 0.000000 1.440713 0.006887 0.000000 -0.125789 -0.540970 0.000000 1.774703 0.007070 0.000000 -0.117653 -0.398806 0.000000 2.024685 0.001249 0.000000 -0.106878 -0.322015 0.000000 2.216851 -0.021979 0.000000 -0.082165 -0.296003 0.000000 2.386425 -0.071986 0.000000 -0.002229 -0.325521 0.000000 2.662586 -0.076917 0.000000 0.141603 -0.171627 0.000000 2.710811 -0.021775 0.000000 0.152442 -0.118744 0.000000 2.751465 -0.014812 0.000000 0.190235 -0.089255 0.000000 2.776126 -0.001967 0.000000 0.215389 -0.074714 0.000000 2.797282 0.009256 0.000000 0.223139 -0.068540 0.000000 2.830449 0.013442 0.000000 0.217519 -0.053838 0.000000 2.866864 0.006921 0.000000 0.202029 -0.032325 0.000000 2.908311 -0.008619 0.000000 0.178863 -0.001629 0.000000 2.942921 -0.029623 0.000000 0.165875 0.021500 0.000000 2.961192 -0.037357 0.000000 0.162150 0.027587 0.000000 2.965682 -0.033781 0.000000 0.169100 0.025431 0.000000 2.957834 -0.022866 0.000000 0.181289 0.014635 0.000000 2.946850 -0.004620 0.000000 0.187430 0.000923 0.000000 2.940468 0.008273 0.000000 0.198463 0.002321 0.000000 2.930280 0.015894 0.000000 0.207847 0.028122 0.000000 2.905051 0.016474 0.000000 0.222723 0.078127 0.000000 2.873865 0.055759 0.000000 0.231783 0.212172 0.000000 2.653068 0.104177 0.000000 0.075533 0.180657 0.000000 2.545227 0.050727 0.000000 0.019696 0.154219 0.000000 2.480358 0.009576 0.000000 -0.010892 0.162809 0.000000 2.412506 -0.009892 0.000000 -0.039133 0.193750 0.000000 2.324550 -0.015230 0.000000 -0.069545 0.239707 0.000000 2.202291 -0.010797 0.000000 -0.099056 0.299606 0.000000 2.026862 0.001378 0.000000 -0.122785 0.377451 0.000000 
1.877974 0.017653 0.000000 -0.064105 0.702283 0.000000 1.607755 0.046988 0.000000 -0.078106 0.972452 0.000000 1.270551 0.002549 0.000000 -0.079802 -1.028153 0.000000 1.591888 0.010296 0.000000 -0.078208 -0.717756 0.000000 1.863825 0.018298 0.000000 -0.078100 -0.532376 0.000000 2.073425 0.020013 0.000000 -0.081032 -0.428713 0.000000 2.236449 0.002814 0.000000 -0.082396 -0.395385 0.000000 2.391963 -0.068135 0.000000 -0.009747 -0.518990 0.000000 2.739344 -0.131257 0.000000 0.167844 -0.210428 0.000000 2.750263 0.036562 0.000000 0.136666 -0.164868 0.000000 2.790749 0.016186 0.000000 0.166331 -0.128224 0.000000 2.814778 0.031398 0.000000 0.179460 -0.108551 0.000000 2.837220 0.042766 0.000000 0.173540 -0.102038 0.000000 2.877928 0.038284 0.000000 0.160075 -0.076788 0.000000 2.916981 0.020434 0.000000 0.144752 -0.046229 0.000000 2.955937 -0.005793 0.000000 0.129054 -0.001537 0.000000 2.977497 -0.042960 0.000000 0.136557 0.033072 0.000000 2.976405 -0.054448 0.000000 0.150028 0.040537 0.000000 2.968101 -0.050150 0.000000 0.167949 0.035477 0.000000 2.953241 -0.032728 0.000000 0.183942 0.014744 0.000000 2.943460 -0.000264 0.000000 0.179106 -0.011956 0.000000 2.953524 0.013231 0.000000 0.179141 -0.013958 0.000000 2.968719 0.021371 0.000000 0.176440 0.020543 0.000000 2.974633 0.009811 0.000000 0.202264 0.069680 0.000000 3.005982 0.016894 0.000000 0.269545 0.347152 0.000000 2.668577 0.191434 0.000000 0.007773 0.248886 0.000000 2.579952 0.041685 0.000000 -0.032757 0.211155 0.000000 2.530930 -0.025774 0.000000 -0.035924 0.232756 0.000000 2.465459 -0.052822 0.000000 -0.038005 0.277690 0.000000 2.375895 -0.058307 0.000000 -0.043658 0.337257 0.000000 2.256315 -0.047700 0.000000 -0.052291 0.414591 0.000000 2.096326 -0.022852 0.000000 -0.063665 0.523617 0.000000 
1.965612 0.037656 0.000000 -0.101176 0.795949 0.000000 1.745014 0.055399 0.000000 -0.108803 1.083208 0.000000 1.492841 0.003123 0.000000 -0.110356 -1.123068 0.000000 1.720904 0.005293 0.000000 -0.107738 -0.812908 0.000000 1.938876 0.006962 0.000000 -0.107471 -0.608405 0.000000 2.113735 0.004181 0.000000 -0.114705 -0.485039 0.000000 2.235346 -0.020615 0.000000 -0.144310 -0.451517 0.000000 2.286364 -0.144635 0.000000 -0.228844 -0.672902 0.000000 2.155327 -0.254508 0.000000 -0.370560 -0.182545 0.000000 2.223506 0.009402 0.000000 -0.372179 -0.159231 0.000000 2.278627 -0.044476 0.000000 -0.382714 -0.113283 0.000000 2.320739 -0.015096 0.000000 -0.379417 -0.097157 0.000000 2.345812 0.015175 0.000000 -0.363071 -0.109248 0.000000 2.350461 0.026907 0.000000 -0.343653 -0.092891 0.000000 2.351242 0.022243 0.000000 -0.329064 -0.071281 0.000000 2.354615 0.007079 0.000000 -0.326443 -0.023189 0.000000 2.374056 -0.037126 0.000000 -0.343900 0.022592 0.000000 2.404960 -0.050827 0.000000 -0.365962 0.035891 0.000000 2.432854 -0.051703 0.000000 -0.384184 0.040291 0.000000 2.451343 -0.038859 0.000000 -0.390548 0.024416 0.000000 2.449663 0.000216 0.000000 -0.375220 -0.009142 0.000000 2.424185 0.008237 0.000000 -0.349491 -0.012873 0.000000 2.388248 0.018595 0.000000 -0.315812 0.022208 0.000000 2.363983 -0.009350 0.000000 -0.281723 0.046778 0.000000 2.360240 -0.011522 0.000000 -0.246635 0.549577 0.000000 2.470549 0.365949 0.000000 -0.110222 0.269282 0.000000 2.522745 0.091256 0.000000 -0.055434 0.203241 0.000000 2.509145 0.012743 0.000000 -0.042065 0.228280 0.000000 2.462554 -0.007811 0.000000 -0.047806 0.283314 0.000000 2.390071 -0.009577 0.000000 -0.062364 0.359287 0.000000 2.288211 -0.002165 0.000000 -0.079619 0.459595 0.000000 2.149227 0.012753 0.000000 -0.094978 0.595804 0.000000 
2.090724 0.023852 0.000000 -0.053001 0.922880 0.000000 1.913129 0.054616 0.000000 -0.060777 1.224625 0.000000 1.715236 0.004102 0.000000 -0.062275 -1.256216 0.000000 1.884520 0.007678 0.000000 -0.063545 -0.935728 0.000000 2.050729 0.018031 0.000000 -0.068476 -0.707236 0.000000 2.180886 0.027248 0.000000 -0.085513 -0.550324 0.000000 2.241948 0.032419 0.000000 -0.155242 -0.446403 0.000000 2.141601 0.016399 0.000000 -0.470598 -0.387953 0.000000 1.417465 0.010459 0.000000 -1.005112 -0.278607 0.000000 1.552283 0.038181 0.000000 -1.014950 -0.219989 0.000000 1.616982 0.026721 0.000000 -1.127292 -0.170335 0.000000 1.690527 0.028101 0.000000 -1.178009 -0.133625 0.000000 1.729648 0.026420 0.000000 -1.163109 -0.106686 0.000000 1.688580 0.018866 0.000000 -1.115061 -0.077569 0.000000 1.631097 0.005846 0.000000 -1.064156 -0.049602 0.000000 1.572801 -0.008414 0.000000 -1.029526 -0.020978 0.000000 1.571463 -0.025504 0.000000 -1.071955 0.002168 0.000000 1.632752 -0.032386 0.000000 -1.137487 0.012643 0.000000 1.700512 -0.031929 0.000000 -1.204891 0.016989 0.000000 1.761915 -0.026364 0.000000 -1.249590 0.016424 0.000000 1.778356 -0.015592 0.000000 -1.220118 0.013522 0.000000 1.710146 -0.012498 0.000000 -1.175517 0.021979 0.000000 1.608797 -0.012308 0.000000 -1.109472 0.044809 0.000000 1.537648 -0.024278 0.000000 -1.101915 0.073423 0.000000 1.465358 -0.018194 0.000000 -1.087138 0.236844 0.000000 2.327566 0.055021 0.000000 -0.335195 0.196690 0.000000 2.552491 -0.013103 0.000000 -0.122706 0.224755 0.000000 2.567276 -0.039143 0.000000 -0.061724 0.279347 0.000000 2.525872 -0.047081 0.000000 -0.044182 0.350173 0.000000 2.457057 -0.043750 0.000000 -0.041294 0.439117 0.000000 2.363841 -0.030445 0.000000 -0.044446 0.553575 0.000000 2.242992 -0.007493 0.000000 -0.050050 0.707232 0.000000 
2.194385 0.040607 0.000000 -0.078516 0.973545 0.000000 2.060147 0.063175 0.000000 -0.083684 1.281100 0.000000 1.919343 0.004620 0.000000 -0.085044 -1.292352 0.000000 2.029513 0.006563 0.000000 -0.085693 -0.979116 0.000000 2.151482 0.011893 0.000000 -0.087280 -0.738563 0.000000 2.255239 0.021218 0.000000 -0.093764 -0.546101 0.000000 2.315883 0.049114 0.000000 -0.121725 -0.351171 0.000000 2.291977 0.170721 0.000000 -0.249735 0.051234 0.000000 2.020481 0.280006 0.000000 -0.481837 -0.317363 0.000000 2.060249 0.019240 0.000000 -0.500283 -0.223930 0.000000 2.098657 0.067866 0.000000 -0.560396 -0.186828 0.000000 2.137557 0.035621 0.000000 -0.592085 -0.136277 0.000000 2.159167 0.000276 0.000000 -0.592083 -0.068179 0.000000 2.144875 -0.021142 0.000000 -0.576553 -0.035408 0.000000 2.122881 -0.028661 0.000000 -0.559926 -0.012986 0.000000 2.101820 -0.027551 0.000000 -0.553117 -0.021851 0.000000 2.109143 0.005303 0.000000 -0.582730 -0.038697 0.000000 2.145272 0.014705 0.000000 -0.622823 -0.031868 0.000000 2.183491 0.015701 0.000000 -0.662009 -0.021112 0.000000 2.215166 0.005840 0.000000 -0.686855 0.007975 0.000000 2.220043 -0.029256 0.000000 -0.673489 0.059068 0.000000 2.181929 -0.036364 0.000000 -0.649612 0.088476 0.000000 2.125846 -0.047450 0.000000 -0.614184 0.093357 0.000000 2.085817 -0.016908 0.000000 -0.597402 0.119069 0.000000 2.050134 -0.026298 0.000000 -0.578314 -0.312631 0.000000 2.445540 -0.385994 0.000000 -0.211196 0.044357 0.000000 2.565008 -0.121232 0.000000 -0.090847 0.188456 0.000000 2.569683 -0.048240 0.000000 -0.055326 0.269684 0.000000 2.537850 -0.025353 0.000000 -0.049132 0.352129 0.000000 2.484418 -0.012465 0.000000 -0.054355 0.452503 0.000000 2.410261 0.000988 0.000000 -0.063666 0.580444 0.000000 2.313570 0.018356 0.000000 -0.072781 0.748071 0.000000 
2.324011 0.029586 0.000000 -0.039484 1.057118 0.000000 2.222832 0.059783 0.000000 -0.043022 1.365430 0.000000 2.122486 0.005462 0.000000 -0.044281 -1.366386 0.000000 2.194187 0.008327 0.000000 -0.047012 -1.057697 0.000000 2.282150 0.019618 0.000000 -0.051820 -0.810993 0.000000 2.366615 0.033731 0.000000 -0.059174 -0.610968 0.000000 2.442297 0.060380 0.000000 -0.061349 -0.422497 0.000000 2.537525 0.144409 0.000000 0.013092 -0.116457 0.000000 2.868959 0.242561 0.000000 0.199028 -0.318374 0.000000 2.838943 0.056627 0.000000 0.164545 -0.258398 0.000000 2.855166 0.086835 0.000000 0.183998 -0.209235 0.000000 2.863156 0.059789 0.000000 0.185649 -0.155235 0.000000 2.875938 0.026418 0.000000 0.169027 -0.092394 0.000000 2.910614 0.003337 0.000000 0.146855 -0.055576 0.000000 2.944447 -0.010782 0.000000 0.126241 -0.028541 0.000000 2.976692 -0.015222 0.000000 0.110259 -0.028301 0.000000 2.989194 0.004109 0.000000 0.120407 -0.033961 0.000000 2.980103 0.007707 0.000000 0.135299 -0.025577 0.000000 2.968246 0.007258 0.000000 0.151563 -0.014686 0.000000 2.954017 -0.001519 0.000000 0.163682 0.011547 0.000000 2.948371 -0.028958 0.000000 0.153984 0.051635 0.000000 2.966158 -0.036375 0.000000 0.148903 0.078062 0.000000 2.992077 -0.047736 0.000000 0.143195 0.084838 0.000000 3.011423 -0.041061 0.000000 0.174165 0.109106 0.000000 3.053000 -0.037282 0.000000 0.239211 -0.158562 0.000000 2.735165 -0.312096 0.000000 -0.014926 0.077221 0.000000 2.667745 -0.133452 0.000000 -0.047515 0.220080 0.000000 2.642986 -0.074664 0.000000 -0.042240 0.311180 0.000000 2.609230 -0.053275 0.000000 -0.036113 0.403606 0.000000 2.560811 -0.038526 0.000000 -0.033882 0.513274 0.000000 2.497051 -0.021134 0.000000 -0.034790 0.650266 0.000000 2.417647 0.001622 0.000000 -0.037236 0.826416 0.000000 
2.432064 0.042855 0.000000 -0.057305 1.074724 0.000000 2.366668 0.066713 0.000000 -0.059891 1.381447 0.000000 2.308611 0.005879 0.000000 -0.060976 -1.364053 0.000000 2.339160 0.009295 0.000000 -0.063627 -1.067080 0.000000 2.392213 0.016700 0.000000 -0.066776 -0.823028 0.000000 2.452219 0.028572 0.000000 -0.070316 -0.621784 0.000000 2.516082 0.051289 0.000000 -0.065475 -0.446398 0.000000 2.608288 0.096281 0.000000 0.001230 -0.280200 0.000000 2.879612 0.094069 0.000000 0.169315 -0.287348 0.000000 2.878552 0.053724 0.000000 0.160547 -0.240153 0.000000 2.881921 0.048413 0.000000 0.187663 -0.194818 0.000000 2.883788 0.033970 0.000000 0.198507 -0.149059 0.000000 2.892642 0.016898 0.000000 0.190919 -0.102856 0.000000 2.921320 0.001030 0.000000 0.175509 -0.069241 0.000000 2.952197 -0.008046 0.000000 0.158251 -0.045231 0.000000 2.982576 -0.011569 0.000000 0.145393 -0.034352 0.000000 2.994547 -0.004845 0.000000 0.154387 -0.029606 0.000000 2.987783 -0.000187 0.000000 0.168630 -0.020011 0.000000 2.976504 -0.000563 0.000000 0.185220 -0.006884 0.000000 2.962652 -0.006278 0.000000 0.197762 0.013621 0.000000 2.958322 -0.019558 0.000000 0.192057 0.041281 0.000000 2.973567 -0.031283 0.000000 0.189208 0.062557 0.000000 2.996152 -0.041742 0.000000 0.186629 0.074010 0.000000 3.007130 -0.047877 0.000000 0.204529 0.077492 0.000000 3.023346 -0.091345 0.000000 0.244818 0.005204 0.000000 2.766925 -0.131856 0.000000 0.024412 0.111777 0.000000 2.680569 -0.088643 0.000000 -0.027735 0.213214 0.000000 2.655018 -0.053515 0.000000 -0.036334 0.303441 0.000000 2.631000 -0.031480 0.000000 -0.038781 0.400548 0.000000 2.597430 -0.014695 0.000000 -0.042704 0.516262 0.000000 2.552408 0.001896 0.000000 -0.048143 0.659848 0.000000 2.496338 0.020802 0.000000 -0.053466 0.841707 0.000000 
2.559384 0.033425 0.000000 -0.024646 1.122514 0.000000 2.520068 0.062369 0.000000 -0.025141 1.423487 0.000000 2.492950 0.006547 0.000000 -0.026085 -1.396935 0.000000 2.496790 0.010977 0.000000 -0.029208 -1.110750 0.000000 2.525319 0.022767 0.000000 -0.033044 -0.870999 0.000000 2.567736 0.037271 0.000000 -0.035082 -0.674831 0.000000 2.623134 0.055539 0.000000 -0.022827 -0.514702 0.000000 2.708924 0.077704 0.000000 0.040983 -0.387782 0.000000 2.891075 0.074476 0.000000 0.142536 -0.317314 0.000000 2.916803 0.065395 0.000000 0.153896 -0.261767 0.000000 2.926849 0.059719 0.000000 0.171330 -0.211102 0.000000 2.933075 0.048944 0.000000 0.176598 -0.164089 0.000000 2.943656 0.034007 0.000000 0.170359 -0.121071 0.000000 2.966243 0.018747 0.000000 0.157244 -0.086453 0.000000 2.991250 0.006476 0.000000 0.143761 -0.058920 0.000000 3.013516 -0.002364 0.000000 0.135766 -0.040272 0.000000 3.021919 -0.004885 0.000000 0.141776 -0.027197 0.000000 3.016683 -0.006536 0.000000 0.154656 -0.014298 0.000000 3.006792 -0.009332 0.000000 0.169162 -0.000834 0.000000 2.996614 -0.014060 0.000000 0.178956 0.015877 0.000000 2.995181 -0.023253 0.000000 0.178143 0.036391 0.000000 3.007604 -0.033525 0.000000 0.175522 0.055477 0.000000 3.025445 -0.045157 0.000000 0.173859 0.073860 0.000000 3.031556 -0.058960 0.000000 0.185058 0.092889 0.000000 3.017965 -0.077571 0.000000 0.166478 0.097859 0.000000 2.848345 -0.091690 0.000000 0.041115 0.163578 0.000000 2.764282 -0.081306 0.000000 -0.009086 0.245630 0.000000 2.730984 -0.066065 0.000000 -0.022133 0.335198 0.000000 2.706696 -0.050828 0.000000 -0.023721 0.437175 0.000000 2.678427 -0.034603 0.000000 -0.023334 0.558297 0.000000 2.643516 -0.015696 0.000000 -0.023442 0.706336 0.000000 2.602753 0.006946 0.000000 -0.024058 0.890691 0.000000 
2.665245 0.043443 0.000000 -0.037050 1.114040 0.000000 2.655313 0.067208 0.000000 -0.037182 1.408564 0.000000 2.661249 0.006823 0.000000 -0.037924 -1.367893 0.000000 2.633814 0.012417 0.000000 -0.041170 -1.095609 0.000000 2.632851 0.020536 0.000000 -0.044850 -0.865444 0.000000 2.648734 0.030611 0.000000 -0.048402 -0.677182 0.000000 2.678852 0.039034 0.000000 -0.043739 -0.532187 0.000000 2.738779 0.032470 0.000000 0.007920 -0.462350 0.000000 2.931825 -0.007485 0.000000 0.155097 -0.313076 0.000000 2.933705 0.042363 0.000000 0.149616 -0.250198 0.000000 2.931023 0.030980 0.000000 0.172231 -0.201044 0.000000 2.929486 0.028702 0.000000 0.179182 -0.159641 0.000000 2.935168 0.023137 0.000000 0.172796 -0.125443 0.000000 2.955517 0.014145 0.000000 0.160967 -0.094248 0.000000 2.978948 0.005436 0.000000 0.147897 -0.067497 0.000000 3.000437 -0.003574 0.000000 0.141748 -0.042755 0.000000 3.005725 -0.010856 0.000000 0.150624 -0.024370 0.000000 2.998371 -0.013067 0.000000 0.163658 -0.010120 0.000000 2.987734 -0.015069 0.000000 0.178456 0.003294 0.000000 2.976790 -0.016072 0.000000 0.186350 0.015053 0.000000 2.976692 -0.018746 0.000000 0.181079 0.028859 0.000000 2.990689 -0.028661 0.000000 0.177418 0.044715 0.000000 3.012293 -0.040079 0.000000 0.173742 0.067899 0.000000 3.021732 -0.059076 0.000000 0.186360 0.091083 0.000000 3.031499 -0.072765 0.000000 0.218598 0.174824 0.000000 2.833561 -0.006493 0.000000 0.036048 0.195840 0.000000 2.760794 -0.038442 0.000000 -0.012675 0.246513 0.000000 2.744002 -0.040469 0.000000 -0.023548 0.327728 0.000000 2.733808 -0.029891 0.000000 -0.026726 0.428818 0.000000 2.720450 -0.015083 0.000000 -0.029426 0.551174 0.000000 2.703048 0.002004 0.000000 -0.032543 0.700611 0.000000 2.683360 0.021419 0.000000 -0.035346 0.885076 0.000000 
2.786173 0.035130 0.000000 -0.009242 1.132446 0.000000 2.797032 0.062501 0.000000 -0.007218 1.417551 0.000000 2.827110 0.007289 0.000000 -0.007791 -1.369500 0.000000 2.779676 0.014223 0.000000 -0.010497 -1.109787 0.000000 2.759225 0.026448 0.000000 -0.014100 -0.886881 0.000000 2.757226 0.040823 0.000000 -0.018961 -0.704950 0.000000 2.768286 0.050877 0.000000 -0.024353 -0.574629 0.000000 2.792378 0.026045 0.000000 -0.017709 -0.580828 0.000000 2.840762 -0.072702 0.000000 0.006369 -0.319193 0.000000 2.850217 0.070877 0.000000 0.001336 -0.259085 0.000000 2.857696 0.037103 0.000000 0.010192 -0.209564 0.000000 2.861030 0.041994 0.000000 0.014966 -0.169772 0.000000 2.864749 0.040392 0.000000 0.016045 -0.141420 0.000000 2.872844 0.030576 0.000000 0.014640 -0.109884 0.000000 2.882433 0.019546 0.000000 0.011897 -0.080409 0.000000 2.891983 0.003785 0.000000 0.010220 -0.045560 0.000000 2.896874 -0.013761 0.000000 0.013313 -0.019843 0.000000 2.896835 -0.019570 0.000000 0.018701 -0.003661 0.000000 2.894810 -0.024131 0.000000 0.025915 0.010110 0.000000 2.891452 -0.021954 0.000000 0.032092 0.015975 0.000000 2.890451 -0.017983 0.000000 0.034644 0.022394 0.000000 2.894204 -0.029864 0.000000 0.037642 0.033873 0.000000 2.900900 -0.041481 0.000000 0.039740 0.064421 0.000000 2.904869 -0.071578 0.000000 0.047489 0.083123 0.000000 2.914884 -0.109810 0.000000 0.060074 0.295796 0.000000 2.835581 0.090860 0.000000 -0.002675 0.236346 0.000000 2.818284 -0.032583 0.000000 -0.014687 0.262421 0.000000 2.813893 -0.055192 0.000000 -0.015097 0.345392 0.000000 2.808750 -0.047650 0.000000 -0.013508 0.450534 0.000000 2.801633 -0.031904 0.000000 -0.012119 0.575698 0.000000 2.793638 -0.012579 0.000000 -0.011201 0.726024 0.000000 2.787141 0.009748 0.000000 -0.010395 0.908805 0.000000 
2.885969 0.042290 0.000000 -0.017633 1.103182 0.000000 2.921026 0.065184 0.000000 -0.015401 1.378486 0.000000 2.977703 0.007396 0.000000 -0.015758 -1.320458 0.000000 2.905628 0.015123 0.000000 -0.018051 -1.075158 0.000000 2.860238 0.024140 0.000000 -0.020513 -0.863445 0.000000 2.830982 0.035472 0.000000 -0.025147 -0.688243 0.000000 2.800933 0.044426 0.000000 -0.044045 -0.556279 0.000000 2.728513 0.025826 0.000000 -0.137959 -0.510734 0.000000 2.405806 -0.031562 0.000000 -0.417178 -0.322531 0.000000 2.433997 0.047396 0.000000 -0.412542 -0.257678 0.000000 2.450692 0.022124 0.000000 -0.449702 -0.204378 0.000000 2.460735 0.023928 0.000000 -0.453929 -0.163359 0.000000 2.457078 0.022058 0.000000 -0.436560 -0.133538 0.000000 2.430421 0.015549 0.000000 -0.414325 -0.103837 0.000000 2.401660 0.008179 0.000000 -0.394618 -0.077047 0.000000 2.380511 -0.001897 0.000000 -0.391350 -0.047646 0.000000 2.388373 -0.013948 0.000000 -0.412871 -0.024331 0.000000 2.414384 -0.018455 0.000000 -0.438008 -0.008095 0.000000 2.440745 -0.022284 0.000000 -0.461291 0.006652 0.000000 2.461123 -0.022249 0.000000 -0.466257 0.016054 0.000000 2.457780 -0.021297 0.000000 -0.445216 0.025106 0.000000 2.429939 -0.031659 0.000000 -0.425036 0.038020 0.000000 2.389338 -0.042177 0.000000 -0.403369 0.063930 0.000000 2.372218 -0.066826 0.000000 -0.415496 0.081068 0.000000 2.354116 -0.085350 0.000000 -0.463100 0.254127 0.000000 2.689599 0.056256 0.000000 -0.130392 0.213137 0.000000 2.807064 -0.026430 0.000000 -0.041223 0.250904 0.000000 2.832194 -0.040059 0.000000 -0.019689 0.332871 0.000000 2.840453 -0.031480 0.000000 -0.015287 0.435935 0.000000 2.846349 -0.016472 0.000000 -0.015550 0.559168 0.000000 2.853726 0.001086 0.000000 -0.016909 0.707107 0.000000 2.865548 0.020613 0.000000 -0.017883 0.886044 0.000000 