# vtk DataFile Version 2.0
Comment goes here
ASCII

DATASET STRUCTURED_POINTS
FIELD FieldData 1
TIME 1 1 double
0.41000000
DIMENSIONS    128   16   1

ORIGIN    0.000   0.000   0.000
SPACING   0.0078125 0.015625   1.000

POINT_DATA   2048
SCALARS uMag double
LOOKUP_TABLE default

6.122396e-03 1.679183e-03 5.448623e-03 1.358648e-03 4.289835e-03 6.104754e-03 8.197500e-03 1.639292e-03 3.594457e-03 2.736474e-03 1.585059e-03 7.564000e-03 1.245594e-02 2.294142e-02 2.935477e-02 2.950937e-02 3.446978e-02 3.153164e-02 3.246415e-02 2.757128e-02 2.457036e-02 1.058186e-02 8.541854e-03 1.111724e-03 2.742232e-03 2.978496e-03 1.540362e-03 4.205821e-03 1.226814e-03 4.276997e-03 1.722795e-03 4.222131e-03 2.016910e-03 4.040391e-03 2.287417e-03 4.146536e-03 2.890673e-03 4.124251e-03 3.135246e-03 3.749252e-03 3.264791e-03 3.300237e-03 3.460792e-03 2.835037e-03 3.491213e-03 2.288515e-03 3.242489e-03 1.744053e-03 2.862227e-03 1.472636e-03 2.910471e-03 1.265570e-03 1.779746e-03 1.444007e-03 2.568246e-03 7.063480e-03 1.052575e-02 1.501194e-02 1.400142e-02 9.380361e-03 9.236482e-03 6.078270e-03 6.621960e-03 6.343998e-03 7.919450e-03 8.302180e-03 6.714220e-03 7.879977e-03 7.567420e-03 4.760731e-03 3.023901e-03 5.523640e-03 1.289415e-02 9.716435e-03 6.656323e-03 6.618196e-03 6.261526e-03 7.609354e-03 6.941950e-03 7.215759e-03 5.841347e-03 5.063178e-03 3.635931e-03 2.637395e-03 1.592633e-03 7.534602e-04 6.127806e-04 8.271147e-04 1.502795e-03 2.102320e-03 2.165495e-03 3.079645e-03 2.620486e-03 3.261043e-03 2.559916e-03 2.557121e-03 2.278004e-03 1.719709e-03 2.157602e-03 1.284749e-03 2.348203e-03 1.017787e-03 2.691797e-03 1.059869e-03 3.411859e-03 2.056389e-03 4.255291e-03 2.985373e-03 4.610018e-03 3.679830e-03 4.243062e-03 4.042008e-03 3.457388e-03 4.039020e-03 2.238958e-03 4.040278e-03 4.801419e-04 5.209167e-03 1.182796e-03 6.415687e-03 1.942744e-03 6.475476e-03 4.003820e-03 1.533069e-03 4.922158e-03 2.355469e-03 5.951108e-03 2.767537e-03 
3.242126e-03 1.192160e-03 3.881795e-03 3.594364e-03 4.933019e-03 1.047325e-02 8.116364e-03 4.919476e-03 2.335705e-03 5.286599e-03 5.272087e-03 1.104807e-02 1.702589e-02 1.713681e-02 7.760293e-03 5.697707e-03 3.716608e-03 2.392448e-03 4.463900e-03 7.407146e-03 1.664441e-02 1.579068e-02 9.731212e-03 6.507321e-03 5.280926e-03 4.374458e-03 3.295226e-03 3.949529e-03 1.831861e-03 3.550679e-03 1.745163e-03 2.213449e-03 1.684396e-03 8.453866e-04 1.479201e-04 2.223201e-03 1.645518e-03 3.062138e-03 2.243813e-03 2.525945e-03 2.166648e-03 1.917540e-03 2.796086e-03 1.979043e-03 3.858992e-03 2.300936e-03 3.721411e-03 2.296959e-03 2.519260e-03 2.973295e-03 1.598168e-03 3.766429e-03 3.504294e-03 8.588707e-03 1.158031e-02 1.980061e-02 2.220124e-02 1.531740e-02 1.462525e-02 1.314220e-02 1.206586e-02 8.976836e-03 9.441640e-03 7.022810e-03 1.085019e-02 1.065150e-02 1.109154e-02 1.002877e-02 2.718350e-02 2.080857e-02 1.708963e-02 3.890325e-02 2.157851e-02 1.780865e-02 1.573995e-02 9.253792e-03 5.887661e-03 2.419578e-03 6.034743e-04 1.168354e-03 1.935077e-03 1.635168e-03 2.219525e-03 1.734114e-03 1.683254e-03 2.170600e-03 2.106941e-03 2.759501e-03 2.581390e-03 2.520642e-03 2.191472e-03 2.127713e-03 2.000073e-03 1.886657e-03 1.736537e-03 1.187081e-03 1.226525e-03 6.956441e-04 1.151664e-03 7.588733e-04 1.104479e-03 1.235095e-03 3.969845e-04 1.894210e-03 1.792299e-03 2.164763e-03 3.502475e-03 2.166326e-03 3.909072e-03 2.015987e-03 3.152783e-03 1.830970e-03 3.081666e-03 2.450236e-03 3.133797e-03 3.850793e-03 1.791566e-03 5.451156e-03 3.273507e-04 5.948288e-03 2.049850e-03 5.100760e-03 7.079351e-03 3.723494e-03 3.000690e-03 6.787577e-04 3.054172e-03 3.223906e-04 
8.281168e-03 5.996868e-03 8.605810e-03 4.757003e-03 1.305142e-02 1.611683e-02 1.640669e-02 1.170004e-02 2.970564e-03 8.198059e-03 3.483550e-03 1.067601e-02 1.038038e-02 1.294954e-02 1.659436e-02 1.555443e-02 1.783032e-02 1.731388e-02 1.663742e-02 1.680080e-02 1.514775e-02 9.439388e-03 4.663008e-03 2.053558e-03 7.383894e-03 5.589750e-03 7.000477e-03 4.623182e-03 1.374834e-03 2.933416e-03 6.243426e-03 5.282724e-03 9.522840e-03 6.488228e-03 8.890525e-03 5.995623e-03 6.023194e-03 3.323494e-03 4.123492e-03 3.290260e-03 5.247085e-03 5.006835e-03 4.033817e-03 3.917805e-03 1.277554e-03 3.101074e-03 5.250141e-03 7.842587e-03 7.827336e-03 9.498142e-03 6.892696e-03 6.427027e-03 2.172370e-03 5.574613e-03 9.488967e-03 2.002364e-02 1.738362e-02 1.497559e-02 1.197650e-02 1.042527e-02 1.397993e-02 1.373296e-02 1.350526e-02 1.368552e-02 1.269183e-02 1.436246e-02 1.138844e-02 1.301463e-02 1.602701e-02 1.149110e-02 1.796629e-02 1.278577e-02 3.054376e-02 2.968080e-02 1.867739e-02 1.922623e-02 1.494441e-02 1.558206e-02 1.290354e-02 1.261371e-02 1.016539e-02 7.695429e-03 5.422573e-03 3.057136e-03 4.483472e-03 6.035127e-03 8.162918e-03 7.952254e-03 9.114063e-03 6.885205e-03 7.291461e-03 4.585310e-03 5.302846e-03 3.735514e-03 4.698299e-03 3.359043e-03 3.462190e-03 2.769383e-03 2.474722e-03 3.113108e-03 3.471920e-03 5.254810e-03 4.826363e-03 7.198925e-03 5.788214e-03 7.561021e-03 5.616511e-03 5.260729e-03 3.572109e-03 5.039759e-03 5.101039e-03 7.671690e-03 8.719988e-03 8.093596e-03 9.627101e-03 5.159956e-03 7.462554e-03 3.238745e-03 7.784167e-03 4.518466e-03 1.131703e-02 4.700288e-03 2.256029e-02 8.149381e-03 7.749890e-03 3.932862e-03 7.952916e-03 6.089157e-03 
6.016307e-03 8.309370e-03 1.068613e-02 1.460391e-02 2.888955e-02 3.872020e-03 2.055729e-02 1.351297e-02 1.315570e-02 1.477411e-02 1.084105e-02 1.530274e-02 8.311028e-03 1.600897e-02 1.002944e-02 1.646545e-02 1.109419e-02 1.612142e-02 1.148833e-02 1.448600e-02 1.056578e-02 1.272322e-02 1.454402e-02 1.233041e-02 1.370578e-02 1.456735e-02 1.602005e-02 1.278276e-02 1.313620e-02 1.398382e-02 1.924548e-02 1.759995e-02 1.858329e-02 1.524146e-02 1.802993e-02 1.668689e-02 1.748418e-02 1.483575e-02 1.663224e-02 1.510674e-02 1.724140e-02 1.564567e-02 1.698538e-02 1.575901e-02 1.564123e-02 1.534876e-02 1.867848e-02 1.924437e-02 1.837475e-02 1.629601e-02 1.639839e-02 1.579317e-02 1.554110e-02 1.033336e-02 5.305927e-03 7.772884e-03 6.988534e-03 7.418220e-03 2.590699e-03 1.204221e-02 1.441457e-02 6.104131e-03 3.735031e-03 6.539187e-03 8.918052e-03 9.193543e-03 8.290949e-03 1.263778e-02 1.442637e-02 2.737923e-02 2.578279e-02 3.616049e-02 3.386302e-02 1.672030e-02 1.795910e-02 6.976079e-03 4.924602e-03 2.730949e-03 5.372663e-03 8.953839e-03 1.027147e-02 9.167083e-03 9.153812e-03 9.610533e-03 1.245959e-02 1.422395e-02 1.491083e-02 1.344912e-02 1.398402e-02 1.211225e-02 1.290652e-02 1.079747e-02 1.082481e-02 9.115120e-03 9.671568e-03 8.020084e-03 8.514598e-03 7.344404e-03 7.954751e-03 7.729052e-03 9.709174e-03 9.834795e-03 1.043487e-02 1.069736e-02 1.155157e-02 1.381170e-02 1.354008e-02 1.421685e-02 1.339931e-02 1.696574e-02 1.623401e-02 2.010487e-02 1.867139e-02 2.169799e-02 2.121138e-02 2.208015e-02 1.964128e-02 2.183282e-02 1.868783e-02 2.228780e-02 1.930525e-02 1.936228e-02 2.311295e-02 3.610104e-02 2.206790e-02 5.808463e-03 5.856849e-03 6.287458e-03 
1.699324e-02 2.115854e-02 1.955019e-02 2.830573e-02 3.239891e-02 4.222103e-02 1.873624e-02 2.323057e-02 1.442594e-02 1.932238e-02 1.291672e-02 1.622485e-02 6.812276e-03 1.078892e-02 9.143502e-03 1.044480e-02 1.017651e-02 1.004402e-02 1.053773e-02 9.151719e-03 1.104720e-02 8.666889e-03 1.735297e-02 1.586357e-02 2.085222e-02 1.739933e-02 1.904886e-02 1.378780e-02 1.466442e-02 1.491063e-02 1.971594e-02 2.030881e-02 2.225649e-02 2.120321e-02 2.127710e-02 1.991469e-02 1.788287e-02 1.675482e-02 1.636544e-02 1.720659e-02 1.722328e-02 1.854542e-02 1.602611e-02 1.747773e-02 1.344025e-02 1.616145e-02 1.651055e-02 2.071266e-02 1.914494e-02 2.253772e-02 1.891617e-02 2.074940e-02 1.450772e-02 1.222271e-02 4.374682e-03 3.870404e-03 1.669454e-02 2.113521e-02 1.407033e-02 1.811438e-02 2.383106e-02 2.861049e-02 2.863905e-02 2.572522e-02 2.242901e-02 2.808589e-02 2.531653e-02 3.222968e-02 2.535410e-02 3.093880e-02 1.247551e-02 2.847632e-02 2.363388e-02 1.217353e-02 6.816308e-03 1.684365e-02 1.517385e-02 2.026634e-02 1.794059e-02 1.996522e-02 1.681278e-02 1.719140e-02 1.450175e-02 1.659507e-02 1.663738e-02 1.991261e-02 1.999877e-02 2.153111e-02 2.154184e-02 2.167670e-02 2.150251e-02 2.103361e-02 2.095550e-02 2.137826e-02 2.158596e-02 2.245546e-02 2.171854e-02 2.257357e-02 2.134773e-02 2.277573e-02 2.240052e-02 2.452942e-02 2.365615e-02 2.524563e-02 2.240125e-02 2.293336e-02 1.887121e-02 1.908217e-02 1.671901e-02 1.856637e-02 1.819656e-02 1.909790e-02 1.879983e-02 1.690013e-02 1.831192e-02 1.336415e-02 1.682339e-02 1.132987e-02 1.827344e-02 1.324022e-02 2.244630e-02 1.630874e-02 2.687733e-02 5.070806e-02 2.549538e-02 2.222354e-02 1.686107e-02 1.972258e-02 
1.808175e-02 1.942583e-02 1.948603e-02 2.182872e-02 2.512263e-02 3.476700e-02 3.581528e-02 3.442768e-02 2.991479e-02 3.303346e-02 2.824297e-02 3.160248e-02 2.448544e-02 2.466407e-02 2.413058e-02 2.457047e-02 2.437104e-02 2.443019e-02 2.457036e-02 2.424021e-02 2.456078e-02 2.445979e-02 3.068269e-02 2.918858e-02 3.272657e-02 2.955023e-02 3.108236e-02 2.730047e-02 2.965328e-02 2.798948e-02 3.243969e-02 3.205355e-02 3.595442e-02 3.408607e-02 3.584313e-02 3.253635e-02 3.339133e-02 3.099710e-02 3.236671e-02 3.175073e-02 3.296672e-02 3.239662e-02 3.205403e-02 3.122892e-02 3.007664e-02 3.115517e-02 3.096341e-02 3.432148e-02 3.395792e-02 3.656099e-02 3.442857e-02 3.508100e-02 3.222883e-02 3.567665e-02 3.656398e-02 4.674354e-02 3.230863e-02 2.041664e-02 2.993574e-02 3.647422e-02 3.664020e-02 3.799592e-02 3.603859e-02 3.840544e-02 3.885084e-02 4.319366e-02 5.141861e-02 5.231218e-02 5.966249e-02 5.066884e-02 6.046951e-02 5.084713e-02 8.783712e-02 7.682115e-02 5.361492e-02 5.508551e-02 4.524080e-02 4.567727e-02 4.000070e-02 3.925841e-02 3.530006e-02 3.413666e-02 3.193055e-02 3.177154e-02 3.199318e-02 3.262397e-02 3.404944e-02 3.384703e-02 3.492810e-02 3.345104e-02 3.375634e-02 3.199003e-02 3.236500e-02 3.134197e-02 3.196220e-02 3.124826e-02 3.141435e-02 3.092960e-02 3.084670e-02 3.130516e-02 3.150022e-02 3.304390e-02 3.293043e-02 3.451180e-02 3.311773e-02 3.394760e-02 3.155003e-02 3.271952e-02 3.093853e-02 3.336630e-02 3.279626e-02 3.524766e-02 3.472628e-02 3.529549e-02 3.438288e-02 3.322934e-02 3.344116e-02 3.193239e-02 3.433632e-02 3.243446e-02 3.665871e-02 3.335120e-02 4.041434e-02 3.414350e-02 2.175181e-02 2.201236e-02 1.858790e-02 1.944125e-02 
2.428574e-02 2.561509e-02 2.481453e-02 2.645700e-02 2.656457e-02 2.882292e-02 3.359721e-02 3.484814e-02 3.248892e-02 3.579682e-02 3.313567e-02 3.762896e-02 3.624294e-02 3.487658e-02 3.428920e-02 3.472929e-02 3.452806e-02 3.451708e-02 3.473370e-02 3.429569e-02 3.486230e-02 3.536168e-02 3.631326e-02 3.367895e-02 3.518347e-02 3.285066e-02 3.441268e-02 3.206799e-02 3.402012e-02 3.224696e-02 3.470535e-02 3.334478e-02 3.564985e-02 3.401408e-02 3.578533e-02 3.393003e-02 3.529034e-02 3.389208e-02 3.494753e-02 3.424972e-02 3.496512e-02 3.461287e-02 3.496451e-02 3.498229e-02 3.510365e-02 3.608031e-02 3.632736e-02 3.834859e-02 3.914063e-02 4.158255e-02 4.387950e-02 4.695408e-02 5.280713e-02 5.869082e-02 7.272647e-02 8.463430e-02 1.075653e-01 9.765744e-02 1.031155e-01 1.020067e-01 1.018026e-01 1.040489e-01 9.527016e-02 9.896639e-02 8.863204e-02 1.006461e-01 9.033440e-02 1.011147e-01 8.407113e-02 9.017469e-02 7.340675e-02 8.398230e-02 7.728198e-02 5.304802e-02 6.421966e-02 4.526579e-02 4.635673e-02 3.903636e-02 3.940682e-02 3.615489e-02 3.588020e-02 3.424830e-02 3.400198e-02 3.334725e-02 3.358446e-02 3.333485e-02 3.395080e-02 3.352392e-02 3.415319e-02 3.347274e-02 3.387391e-02 3.317477e-02 3.345105e-02 3.296428e-02 3.321003e-02 3.293516e-02 3.303753e-02 3.306481e-02 3.299506e-02 3.353792e-02 3.328933e-02 3.428481e-02 3.368841e-02 3.485053e-02 3.384199e-02 3.502468e-02 3.370528e-02 3.506297e-02 3.375659e-02 3.539388e-02 3.436059e-02 3.587867e-02 3.502364e-02 3.588042e-02 3.514578e-02 3.528226e-02 3.488932e-02 3.461223e-02 3.471161e-02 3.414549e-02 3.452976e-02 3.367692e-02 3.445242e-02 2.938820e-02 2.732735e-02 2.674411e-02 2.504473e-02 2.562285e-02 
2.391508e-02 2.444439e-02 2.464192e-02 2.570507e-02 2.660569e-02 2.809680e-02 2.971412e-02 3.109859e-02 3.180049e-02 3.308828e-02 3.481800e-02 3.607328e-02 4.157353e-02 4.149036e-02 4.124945e-02 4.146073e-02 4.134829e-02 4.139006e-02 4.142343e-02 4.129927e-02 4.144169e-02 4.142621e-02 3.727423e-02 3.628879e-02 3.498376e-02 3.347063e-02 3.351479e-02 3.170591e-02 3.276851e-02 3.106285e-02 3.282555e-02 3.122724e-02 3.311675e-02 3.139509e-02 3.301101e-02 3.124602e-02 3.257252e-02 3.112009e-02 3.220662e-02 3.124716e-02 3.198770e-02 3.141422e-02 3.167790e-02 3.148841e-02 3.134852e-02 3.172179e-02 3.134963e-02 3.222163e-02 3.166602e-02 3.273210e-02 3.223827e-02 3.385816e-02 3.439827e-02 3.867717e-02 4.166299e-02 4.605568e-02 4.200861e-02 5.044639e-02 4.559236e-02 4.589005e-02 4.171066e-02 3.840913e-02 3.314363e-02 2.488978e-02 2.012209e-02 9.784610e-03 8.254856e-03 4.192029e-03 1.911121e-02 8.768083e-03 1.058766e-02 5.510257e-03 1.719105e-02 1.283589e-02 1.660425e-02 2.059712e-02 2.612572e-02 2.739150e-02 2.921987e-02 2.953490e-02 2.994636e-02 2.984074e-02 3.001836e-02 2.984134e-02 3.032128e-02 3.011452e-02 3.088906e-02 3.047290e-02 3.127750e-02 3.059657e-02 3.126905e-02 3.051313e-02 3.109404e-02 3.052023e-02 3.102930e-02 3.074026e-02 3.107413e-02 3.111315e-02 3.119902e-02 3.162061e-02 3.143098e-02 3.219761e-02 3.166222e-02 3.260999e-02 3.168757e-02 3.268799e-02 3.152081e-02 3.261423e-02 3.151511e-02 3.268517e-02 3.187218e-02 3.282911e-02 3.229034e-02 3.263796e-02 3.236092e-02 3.195624e-02 3.210543e-02 3.105696e-02 3.172091e-02 3.012620e-02 3.107051e-02 2.901801e-02 2.971658e-02 2.725491e-02 2.642118e-02 2.539574e-02 2.451157e-02 2.436498e-02 
2.687255e-02 2.761190e-02 2.729106e-02 2.842607e-02 2.881629e-02 3.017382e-02 3.154017e-02 3.294053e-02 3.351652e-02 3.488886e-02 3.633722e-02 3.730366e-02 4.284658e-02 4.324408e-02 4.293956e-02 4.317718e-02 4.306562e-02 4.305991e-02 4.318005e-02 4.294111e-02 4.323563e-02 4.286330e-02 3.885749e-02 3.812435e-02 3.701747e-02 3.571998e-02 3.599180e-02 3.443726e-02 3.548961e-02 3.387434e-02 3.528627e-02 3.369754e-02 3.516799e-02 3.365600e-02 3.502305e-02 3.369342e-02 3.487627e-02 3.384700e-02 3.477296e-02 3.409571e-02 3.472330e-02 3.438336e-02 3.470569e-02 3.468324e-02 3.469663e-02 3.495373e-02 3.463711e-02 3.500313e-02 3.427365e-02 3.439313e-02 3.300011e-02 3.239118e-02 2.965778e-02 2.760331e-02 2.202807e-02 1.841300e-02 1.293010e-02 1.883663e-02 1.536328e-02 1.542300e-02 1.733824e-02 1.922950e-02 2.561139e-02 2.311928e-02 2.836882e-02 2.160980e-02 2.556780e-02 2.003153e-02 2.340262e-02 3.253466e-02 3.582712e-02 3.854075e-02 3.442529e-02 3.904558e-02 3.579841e-02 3.793016e-02 3.607073e-02 3.601721e-02 3.497835e-02 3.447331e-02 3.394660e-02 3.342863e-02 3.326806e-02 3.285445e-02 3.303358e-02 3.270834e-02 3.314316e-02 3.281212e-02 3.332489e-02 3.293403e-02 3.338517e-02 3.301144e-02 3.338881e-02 3.318938e-02 3.351261e-02 3.359379e-02 3.379020e-02 3.415648e-02 3.409094e-02 3.470499e-02 3.429173e-02 3.511251e-02 3.435225e-02 3.533837e-02 3.430166e-02 3.540470e-02 3.419530e-02 3.536336e-02 3.413362e-02 3.530285e-02 3.422207e-02 3.526268e-02 3.440908e-02 3.511443e-02 3.446728e-02 3.467177e-02 3.422795e-02 3.391477e-02 3.369952e-02 3.292784e-02 3.288571e-02 3.165049e-02 3.159813e-02 2.972958e-02 2.914732e-02 2.832849e-02 2.750709e-02 2.759824e-02 
2.400544e-02 2.455287e-02 2.474826e-02 2.582103e-02 2.669668e-02 2.818869e-02 2.976515e-02 3.113267e-02 3.181142e-02 3.307735e-02 3.481013e-02 3.606035e-02 4.157990e-02 4.145954e-02 4.123627e-02 4.141561e-02 4.132650e-02 4.133533e-02 4.140695e-02 4.125429e-02 4.145268e-02 4.143752e-02 3.691733e-02 3.604348e-02 3.466299e-02 3.359663e-02 3.384708e-02 3.252113e-02 3.357786e-02 3.193097e-02 3.321939e-02 3.134498e-02 3.265790e-02 3.086162e-02 3.223194e-02 3.077433e-02 3.210799e-02 3.098967e-02 3.207040e-02 3.126185e-02 3.201997e-02 3.157698e-02 3.203798e-02 3.194449e-02 3.205417e-02 3.216805e-02 3.186944e-02 3.208399e-02 3.148428e-02 3.179959e-02 3.109126e-02 3.149882e-02 3.074930e-02 3.103009e-02 2.990868e-02 2.921993e-02 2.675902e-02 2.510011e-02 2.264628e-02 2.132958e-02 2.188061e-02 2.261295e-02 2.626295e-02 2.770240e-02 3.232134e-02 3.380301e-02 3.730005e-02 3.856039e-02 3.879537e-02 3.817531e-02 3.209716e-02 2.892756e-02 2.283836e-02 2.212760e-02 2.122407e-02 2.156202e-02 2.196653e-02 2.273319e-02 2.367808e-02 2.446380e-02 2.545091e-02 2.587834e-02 2.678555e-02 2.689875e-02 2.793750e-02 2.792643e-02 2.915231e-02 2.896129e-02 3.009765e-02 2.955992e-02 3.038941e-02 2.964958e-02 3.031163e-02 2.981107e-02 3.055609e-02 3.059317e-02 3.132139e-02 3.175459e-02 3.206667e-02 3.264687e-02 3.233443e-02 3.302751e-02 3.220287e-02 3.309803e-02 3.196381e-02 3.301513e-02 3.167227e-02 3.271558e-02 3.135423e-02 3.235839e-02 3.135615e-02 3.231340e-02 3.186866e-02 3.246009e-02 3.240292e-02 3.215852e-02 3.233687e-02 3.116141e-02 3.169585e-02 2.988741e-02 3.079601e-02 2.865938e-02 2.948976e-02 2.703628e-02 2.633896e-02 2.534626e-02 2.454274e-02 2.442361e-02 
2.458112e-02 2.592786e-02 2.509824e-02 2.674593e-02 2.678781e-02 2.904790e-02 3.369422e-02 3.491495e-02 3.248333e-02 3.577839e-02 3.309033e-02 3.765054e-02 3.625630e-02 3.484274e-02 3.426777e-02 3.468200e-02 3.450492e-02 3.446400e-02 3.471720e-02 3.425539e-02 3.481064e-02 3.560461e-02 3.584622e-02 3.318181e-02 3.455401e-02 3.296061e-02 3.496735e-02 3.353351e-02 3.554173e-02 3.380186e-02 3.541827e-02 3.342870e-02 3.469232e-02 3.289447e-02 3.415295e-02 3.289724e-02 3.416191e-02 3.330550e-02 3.425958e-02 3.368022e-02 3.426997e-02 3.404292e-02 3.435120e-02 3.441140e-02 3.431298e-02 3.441469e-02 3.372871e-02 3.374636e-02 3.255276e-02 3.255216e-02 3.107360e-02 3.116941e-02 2.952538e-02 2.972398e-02 2.778327e-02 2.807938e-02 2.604587e-02 2.705946e-02 2.603095e-02 2.670879e-02 2.744127e-02 2.738520e-02 2.959242e-02 2.873614e-02 3.138874e-02 3.027338e-02 3.260911e-02 3.216766e-02 3.323764e-02 3.363302e-02 3.229685e-02 3.230210e-02 2.967764e-02 3.047475e-02 2.819214e-02 2.929047e-02 2.806944e-02 2.927196e-02 2.901689e-02 2.999037e-02 3.007677e-02 3.045124e-02 3.061408e-02 3.059961e-02 3.111363e-02 3.112832e-02 3.207693e-02 3.203666e-02 3.295459e-02 3.251395e-02 3.304014e-02 3.232673e-02 3.268030e-02 3.229173e-02 3.296236e-02 3.332561e-02 3.416563e-02 3.494094e-02 3.524058e-02 3.604444e-02 3.550945e-02 3.633807e-02 3.518756e-02 3.624282e-02 3.479937e-02 3.606747e-02 3.434374e-02 3.555944e-02 3.368143e-02 3.487459e-02 3.338842e-02 3.479423e-02 3.400107e-02 3.527543e-02 3.482188e-02 3.524813e-02 3.488754e-02 3.435754e-02 3.429175e-02 3.334020e-02 3.379012e-02 3.290826e-02 3.417838e-02 2.920926e-02 2.740461e-02 2.688817e-02 2.528550e-02 2.590233e-02 
1.848408e-02 1.985028e-02 1.985479e-02 2.220153e-02 2.539953e-02 3.500402e-02 3.587465e-02 3.453273e-02 2.988787e-02 3.287439e-02 2.811572e-02 3.149800e-02 2.454889e-02 2.461273e-02 2.409113e-02 2.443553e-02 2.426754e-02 2.420573e-02 2.444631e-02 2.402546e-02 2.464328e-02 2.462000e-02 2.835738e-02 2.598718e-02 2.922083e-02 2.858880e-02 3.264269e-02 3.222021e-02 3.555373e-02 3.375807e-02 3.530725e-02 3.207219e-02 3.253012e-02 2.973154e-02 3.111878e-02 3.009189e-02 3.222597e-02 3.167133e-02 3.296936e-02 3.216916e-02 3.280262e-02 3.259502e-02 3.342893e-02 3.399325e-02 3.450104e-02 3.473276e-02 3.392139e-02 3.331703e-02 3.165029e-02 3.107512e-02 2.980524e-02 3.014680e-02 2.993085e-02 3.090327e-02 3.088016e-02 3.123952e-02 3.067190e-02 3.027534e-02 2.989560e-02 2.943594e-02 2.984931e-02 2.934730e-02 3.019312e-02 2.949152e-02 3.024210e-02 2.970829e-02 3.040726e-02 3.063644e-02 3.084582e-02 3.124194e-02 2.990429e-02 2.941403e-02 2.687797e-02 2.554839e-02 2.288136e-02 2.205165e-02 2.138013e-02 2.267908e-02 2.410739e-02 2.574419e-02 2.681718e-02 2.680196e-02 2.699090e-02 2.621383e-02 2.726518e-02 2.746271e-02 3.004144e-02 3.060991e-02 3.283879e-02 3.180971e-02 3.216925e-02 2.961213e-02 2.923589e-02 2.756666e-02 2.890283e-02 2.979590e-02 3.243484e-02 3.412616e-02 3.536503e-02 3.617634e-02 3.521133e-02 3.555288e-02 3.360759e-02 3.478188e-02 3.301276e-02 3.489694e-02 3.257163e-02 3.375132e-02 3.058974e-02 3.149997e-02 2.956575e-02 3.183598e-02 3.223171e-02 3.489972e-02 3.590007e-02 3.616452e-02 3.639136e-02 3.375853e-02 3.469603e-02 3.123270e-02 3.491011e-02 3.143033e-02 3.909004e-02 3.310436e-02 2.149464e-02 2.203986e-02 1.886404e-02 1.980883e-02 
1.771323e-02 2.183816e-02 2.012422e-02 2.879351e-02 3.277803e-02 4.261906e-02 1.886405e-02 2.383849e-02 1.489616e-02 1.969318e-02 1.326371e-02 1.674065e-02 7.304019e-03 1.135506e-02 9.653086e-03 1.074923e-02 1.050786e-02 1.027199e-02 1.104575e-02 9.497701e-03 1.095432e-02 7.641566e-03 1.460428e-02 9.953390e-03 1.465339e-02 1.485259e-02 1.933680e-02 1.948770e-02 2.215658e-02 2.114891e-02 2.225076e-02 2.029852e-02 1.895222e-02 1.645686e-02 1.621021e-02 1.679005e-02 1.819349e-02 1.886815e-02 1.894002e-02 1.912018e-02 1.850203e-02 1.922239e-02 1.932023e-02 2.072278e-02 2.033401e-02 2.119131e-02 1.953674e-02 1.943715e-02 1.662806e-02 1.577435e-02 1.331702e-02 1.401262e-02 1.390625e-02 1.582172e-02 1.587248e-02 1.712590e-02 1.700345e-02 1.769737e-02 1.777025e-02 1.804477e-02 1.850940e-02 1.823325e-02 1.858365e-02 1.768527e-02 1.758851e-02 1.678803e-02 1.735355e-02 1.846968e-02 2.019640e-02 2.193075e-02 2.282799e-02 2.415556e-02 2.381363e-02 2.423201e-02 2.213635e-02 2.120548e-02 2.051154e-02 2.310633e-02 2.476186e-02 2.699722e-02 2.749115e-02 2.761178e-02 2.701664e-02 2.581515e-02 2.591423e-02 2.646987e-02 2.835074e-02 2.862650e-02 2.906012e-02 2.715543e-02 2.575091e-02 2.233052e-02 1.888328e-02 1.577900e-02 1.620211e-02 1.798036e-02 2.049161e-02 2.062616e-02 1.984096e-02 1.986995e-02 1.739189e-02 1.848911e-02 1.512321e-02 1.714235e-02 1.476928e-02 1.784305e-02 1.587560e-02 1.813065e-02 1.571547e-02 1.604832e-02 1.528887e-02 1.882237e-02 2.162010e-02 2.452190e-02 2.719313e-02 2.556287e-02 2.957263e-02 2.317774e-02 2.795920e-02 1.928591e-02 2.672954e-02 1.959095e-02 2.775287e-02 4.980321e-02 2.476280e-02 2.288352e-02 1.750567e-02 2.054983e-02 
6.991654e-03 9.037622e-03 1.097739e-02 1.485554e-02 2.894885e-02 3.988614e-03 2.011081e-02 1.285864e-02 1.279787e-02 1.405969e-02 1.033167e-02 1.475451e-02 7.931396e-03 1.589361e-02 1.012390e-02 1.638617e-02 1.144197e-02 1.627644e-02 1.208052e-02 1.482318e-02 1.360152e-02 1.149122e-02 1.240173e-02 1.199046e-02 1.433002e-02 1.532572e-02 1.794178e-02 1.610718e-02 1.663436e-02 1.457814e-02 1.681961e-02 1.646187e-02 1.625318e-02 1.310023e-02 1.364980e-02 1.256552e-02 1.482225e-02 1.295535e-02 1.415328e-02 1.297368e-02 1.396184e-02 1.349243e-02 1.484890e-02 1.456072e-02 1.484713e-02 1.481297e-02 1.524569e-02 1.597126e-02 1.513522e-02 1.430482e-02 1.262158e-02 1.293369e-02 1.316870e-02 1.409829e-02 1.326267e-02 1.303552e-02 1.219654e-02 1.211079e-02 1.194182e-02 1.195859e-02 1.225409e-02 1.212726e-02 1.279729e-02 1.243616e-02 1.289683e-02 1.223628e-02 1.348540e-02 1.421418e-02 1.568853e-02 1.595914e-02 1.539977e-02 1.534684e-02 1.578682e-02 1.609452e-02 1.439883e-02 1.080454e-02 8.300180e-03 9.878835e-03 9.428817e-03 8.240153e-03 5.291515e-03 5.001470e-03 5.895883e-03 3.385670e-03 2.597285e-03 5.631762e-03 7.229661e-03 6.773648e-03 6.785865e-03 9.883857e-03 1.403874e-02 1.628384e-02 1.426908e-02 1.177553e-02 1.280844e-02 1.551325e-02 1.996044e-02 1.938547e-02 2.053266e-02 2.064823e-02 2.115417e-02 2.173086e-02 2.059065e-02 2.047118e-02 1.945488e-02 1.961161e-02 1.806349e-02 1.814421e-02 1.573936e-02 1.487289e-02 1.243033e-02 1.777014e-02 1.556468e-02 1.963347e-02 1.193331e-02 1.349920e-02 1.319567e-02 1.299380e-02 1.338891e-02 1.096651e-02 9.964511e-03 1.105008e-02 1.815570e-02 3.618627e-02 2.197939e-02 7.548400e-03 7.195368e-03 7.709617e-03 
8.917475e-03 6.477020e-03 8.732931e-03 4.760940e-03 1.289003e-02 1.599276e-02 1.636260e-02 1.152753e-02 3.362190e-03 7.829837e-03 3.786435e-03 1.043234e-02 1.027066e-02 1.295628e-02 1.628108e-02 1.539058e-02 1.727755e-02 1.686346e-02 1.541431e-02 1.568808e-02 1.288167e-02 1.126063e-02 8.071011e-03 5.714589e-03 1.001523e-03 2.743770e-03 5.623546e-03 4.557227e-03 8.680977e-03 5.809186e-03 8.715640e-03 5.659805e-03 5.687880e-03 2.415898e-03 2.421010e-03 1.685140e-03 4.486891e-03 3.450279e-03 4.831829e-03 3.778425e-03 4.364350e-03 4.395176e-03 5.370360e-03 6.429239e-03 6.667731e-03 7.592048e-03 6.604849e-03 6.721998e-03 4.545795e-03 3.719083e-03 1.335003e-03 2.952348e-03 3.896839e-03 5.932360e-03 6.797383e-03 8.475888e-03 9.597021e-03 1.054539e-02 1.148593e-02 1.100596e-02 1.179752e-02 1.060543e-02 1.081369e-02 9.262427e-03 8.739054e-03 7.060548e-03 6.603257e-03 6.232229e-03 7.333429e-03 6.971741e-03 7.985899e-03 6.974087e-03 5.697862e-03 4.211559e-03 1.933471e-03 2.122198e-03 4.446162e-03 7.205272e-03 7.457282e-03 7.571681e-03 5.630204e-03 4.118307e-03 2.622053e-03 1.456199e-03 2.001105e-03 2.848694e-03 4.729700e-03 4.958140e-03 7.669134e-03 7.977051e-03 9.398234e-03 9.191689e-03 7.112189e-03 5.352210e-03 9.831520e-04 2.016862e-03 5.881971e-03 7.587371e-03 8.838940e-03 1.013798e-02 8.467504e-03 9.252548e-03 6.056437e-03 7.521770e-03 5.038278e-03 7.384775e-03 4.219687e-03 5.490250e-03 1.501644e-03 3.673381e-03 3.131549e-03 8.315920e-03 7.147810e-03 1.070932e-02 9.239042e-03 8.308856e-03 1.024606e-02 4.790738e-03 9.076050e-03 3.114137e-03 7.479182e-03 5.540253e-03 1.741889e-02 7.913696e-03 1.061046e-02 5.627896e-03 9.356677e-03 7.060427e-03 
3.370771e-03 4.485989e-04 3.617803e-03 3.256940e-03 4.622074e-03 1.043331e-02 8.196535e-03 4.772520e-03 2.134616e-03 5.042696e-03 4.989216e-03 1.073144e-02 1.673150e-02 1.666694e-02 7.510232e-03 4.995533e-03 3.530455e-03 2.920777e-03 5.317583e-03 8.413203e-03 1.800330e-02 1.703019e-02 9.705778e-03 5.766083e-03 2.456650e-03 1.884774e-03 5.299990e-04 1.008754e-03 1.190478e-03 1.074978e-03 1.437371e-03 2.533190e-03 1.742441e-03 3.205006e-03 2.039212e-03 2.894593e-03 1.963456e-03 2.182584e-03 1.771139e-03 1.855605e-03 2.061374e-03 1.652296e-03 2.044205e-03 8.545581e-04 1.743233e-03 9.680752e-04 2.690913e-03 2.185171e-03 4.132342e-03 3.312568e-03 5.299572e-03 4.015136e-03 5.048500e-03 3.410895e-03 3.496545e-03 3.595285e-03 3.123065e-03 3.185019e-03 2.074427e-03 2.031442e-03 3.150299e-03 2.326783e-03 3.183268e-03 2.120012e-03 3.020734e-03 3.133263e-03 4.403853e-03 4.715031e-03 6.852293e-03 7.171328e-03 7.538454e-03 8.155563e-03 7.451997e-03 7.158302e-03 6.777972e-03 5.443483e-03 4.662886e-03 4.889792e-03 4.689914e-03 5.149750e-03 4.252237e-03 3.776662e-03 2.787852e-03 2.118897e-03 2.115886e-03 2.045625e-03 3.118042e-03 3.438968e-03 4.516564e-03 4.691274e-03 4.768882e-03 5.015504e-03 4.007431e-03 4.263205e-03 2.868189e-03 2.347046e-03 1.513860e-03 5.103506e-04 5.879033e-04 1.245219e-03 1.154718e-03 1.160429e-03 2.299009e-03 4.199471e-04 2.888545e-03 8.814615e-04 3.247948e-03 1.935376e-03 4.001085e-03 3.688077e-03 4.164056e-03 4.801085e-03 3.105692e-03 4.296007e-03 2.660406e-03 2.002394e-03 3.054081e-03 2.654134e-03 3.072244e-03 5.446403e-03 2.163988e-03 7.007828e-03 3.816908e-03 3.611035e-03 4.488943e-03 1.915257e-03 3.889328e-03 9.563991e-04 
