# vtk DataFile Version 2.0
Comment goes here
ASCII

DATASET STRUCTURED_POINTS
FIELD FieldData 1
TIME 1 1 double
0.17000000
DIMENSIONS    128   16   1

ORIGIN    0.000   0.000   0.000
SPACING   0.0078125 0.015625   1.000

POINT_DATA   2048
SCALARS uMag double
LOOKUP_TABLE default

1.101032e-02 6.997503e-03 9.816871e-03 4.081137e-03 8.254822e-03 1.308986e-03 1.411985e-02 2.459058e-03 8.736675e-03 8.687061e-04 6.349753e-04 9.733803e-03 1.851248e-02 3.456852e-02 4.435534e-02 4.768418e-02 5.300879e-02 5.084226e-02 5.031928e-02 4.535381e-02 3.850071e-02 1.799600e-02 1.226146e-02 3.544704e-03 4.486995e-03 4.299128e-03 2.267201e-03 5.518203e-03 3.141037e-03 6.740392e-03 6.209929e-03 8.621364e-03 6.597895e-03 7.479843e-03 2.927635e-03 6.190451e-03 3.874539e-03 6.665919e-03 6.065538e-03 6.757989e-03 5.545023e-03 7.887957e-03 5.810376e-03 6.229203e-03 7.230337e-03 3.710907e-03 8.823427e-03 6.812608e-03 7.862801e-03 1.321427e-02 1.351484e-02 1.836979e-02 1.976999e-02 1.644491e-02 1.519673e-02 1.187807e-02 1.868260e-02 2.208778e-02 1.365567e-02 1.950472e-02 1.649971e-02 8.342844e-03 1.839309e-02 2.525293e-02 1.376814e-02 1.243144e-02 3.028483e-02 4.064103e-02 4.161962e-02 2.302289e-02 2.323736e-02 3.351930e-02 2.686314e-02 1.534255e-02 7.025903e-03 6.170112e-03 8.216797e-03 1.427626e-02 1.246235e-02 1.440888e-02 1.370389e-02 1.276017e-02 1.321755e-02 1.230528e-02 1.208591e-02 1.369800e-02 1.338183e-02 1.289495e-02 1.261284e-02 9.157457e-03 1.093996e-02 7.610638e-03 1.008585e-02 9.779693e-03 1.156293e-02 1.075493e-02 1.041935e-02 9.253680e-03 9.043754e-03 7.883584e-03 1.174638e-02 1.244589e-02 1.471756e-02 1.009739e-02 1.025871e-02 6.707759e-03 7.679702e-03 6.744059e-03 5.632831e-03 7.856841e-03 8.064921e-03 1.050545e-02 8.987228e-03 1.118825e-02 7.676312e-03 1.264900e-02 8.126727e-03 1.321672e-02 6.945512e-03 1.013016e-02 6.983714e-03 1.035572e-02 1.133753e-02 5.739082e-03 9.928104e-03 6.773812e-03 1.082823e-02 7.846938e-03 
6.111197e-03 2.840385e-03 4.952070e-03 1.184425e-03 2.416683e-03 8.178168e-03 1.102085e-02 4.293650e-03 8.112446e-03 8.727184e-03 9.443955e-03 1.928463e-02 2.428827e-02 2.534738e-02 1.389422e-02 1.056228e-02 3.773847e-03 7.017378e-03 4.261093e-03 1.118218e-02 2.735192e-02 2.541133e-02 1.428483e-02 7.228923e-03 1.058818e-03 2.678572e-04 4.616381e-03 3.149068e-03 2.975608e-03 5.397585e-03 6.340889e-03 6.546879e-03 5.246571e-03 5.872776e-03 2.975122e-03 3.337671e-03 1.560897e-03 4.165398e-03 2.687968e-03 2.184573e-03 3.433968e-03 6.036848e-03 3.835303e-03 2.848304e-03 6.493236e-03 8.116205e-03 6.028335e-03 4.238841e-03 8.571852e-03 1.259368e-02 7.242945e-03 1.476388e-02 1.533376e-02 7.401104e-03 1.163822e-02 4.198061e-03 3.181824e-03 3.723928e-02 7.752785e-02 4.473261e-02 3.305498e-02 6.055491e-02 4.031757e-02 1.508592e-02 8.383283e-02 1.005307e-01 6.927154e-02 2.574985e-02 6.037810e-02 8.231166e-02 3.683973e-03 5.119341e-03 5.139321e-02 4.854126e-02 3.722684e-02 2.535056e-02 2.015681e-02 9.002513e-03 1.589285e-03 5.878497e-03 3.506730e-03 3.320872e-03 6.163836e-03 5.334861e-03 4.559867e-03 8.865468e-03 8.813560e-03 8.677477e-03 9.847602e-03 1.451919e-03 5.636961e-03 1.179043e-03 6.884211e-03 6.162087e-03 8.741752e-03 7.730956e-03 5.493331e-03 5.394647e-03 3.757726e-03 3.869096e-03 1.060575e-02 1.324400e-02 1.406100e-02 7.823670e-03 6.490778e-03 8.978850e-04 5.525117e-03 4.148335e-03 3.455583e-03 6.682300e-03 5.617391e-03 8.268280e-03 6.684645e-03 5.251537e-03 1.356060e-03 7.101881e-03 5.002807e-03 1.029175e-02 5.043510e-03 4.736749e-03 2.584144e-03 8.874704e-03 7.393457e-03 3.938125e-04 6.449596e-03 3.103151e-03 6.687633e-03 3.732016e-03 
1.324919e-02 1.073053e-02 1.094666e-02 6.840991e-03 8.400649e-03 2.452813e-02 1.141273e-02 1.234826e-02 3.866389e-03 8.106187e-03 5.410506e-03 1.300430e-02 1.323732e-02 2.142892e-02 2.430807e-02 2.414146e-02 2.672027e-02 2.656526e-02 2.550209e-02 2.435955e-02 1.963406e-02 1.575450e-02 9.854336e-03 1.105751e-02 1.468895e-02 1.139400e-02 1.578473e-02 1.520885e-02 1.509507e-02 1.507843e-02 1.608345e-02 8.286673e-03 1.104364e-03 1.558707e-02 8.455908e-03 7.734835e-03 1.131489e-02 1.081046e-02 9.369991e-03 1.403775e-03 7.641105e-03 5.351556e-03 1.294430e-02 8.397245e-03 2.383208e-02 1.836967e-02 1.145088e-02 7.591796e-03 2.176308e-02 1.400719e-02 1.643422e-02 1.659760e-02 3.209664e-02 9.754173e-03 1.719367e-02 2.092345e-02 1.903605e-02 3.513145e-02 5.187517e-02 7.640458e-02 7.679278e-02 4.628009e-02 3.034448e-02 2.620495e-02 2.366767e-02 6.327580e-02 8.850432e-02 1.121553e-01 1.022842e-01 7.581438e-02 4.887960e-02 5.769680e-02 4.209286e-02 2.753182e-02 3.109161e-02 1.895648e-02 2.351395e-02 8.278024e-03 1.060903e-02 3.062138e-03 1.459896e-02 8.961663e-03 1.258742e-02 8.727716e-03 6.477312e-03 4.046668e-03 5.805017e-03 9.363603e-03 2.082570e-02 1.155969e-02 8.995575e-03 8.717318e-03 1.388862e-02 8.714409e-03 8.876706e-03 1.034049e-02 1.139777e-02 1.163366e-02 1.270592e-02 1.282105e-02 2.449314e-02 2.080430e-02 7.966647e-03 1.672621e-02 1.177274e-02 1.262284e-02 1.484276e-02 9.648129e-03 1.022626e-02 6.846760e-03 1.166376e-02 1.164871e-02 1.456121e-02 1.074120e-02 9.297406e-03 8.114216e-03 1.400455e-02 5.607387e-03 1.432104e-02 4.964283e-03 9.583166e-03 1.344984e-02 1.462221e-02 7.575012e-03 9.215762e-03 7.420618e-03 1.263253e-02 1.142628e-02 
1.054020e-02 1.307842e-02 1.825508e-02 2.535811e-02 3.619433e-02 1.460655e-02 2.847632e-02 2.293487e-02 2.742331e-02 2.207548e-02 2.438537e-02 2.414672e-02 1.972106e-02 2.780014e-02 2.589756e-02 2.900057e-02 2.435957e-02 2.944393e-02 2.424282e-02 2.522214e-02 2.288763e-02 2.303630e-02 2.046451e-02 3.000290e-02 2.845944e-02 2.838698e-02 2.729626e-02 2.229053e-02 2.314117e-02 2.684436e-02 3.071636e-02 1.992512e-02 1.685722e-02 1.829950e-02 1.579070e-02 1.520009e-02 1.472742e-02 1.505060e-02 2.241107e-02 1.667912e-02 1.078312e-02 1.747823e-02 2.242639e-02 2.379388e-02 2.931069e-02 1.586486e-02 3.463561e-02 2.897753e-02 3.619647e-02 1.835830e-02 4.581337e-03 2.849952e-02 2.356117e-02 7.611539e-03 1.336570e-02 1.882221e-02 4.388839e-02 3.103862e-02 1.559599e-02 9.181876e-03 3.996657e-02 4.110737e-02 4.245163e-02 3.819373e-02 2.216184e-02 3.651772e-02 3.049742e-02 2.385789e-02 4.224935e-02 4.871002e-02 5.419012e-02 4.869309e-02 4.114050e-02 2.052102e-02 2.696654e-02 2.899820e-02 2.807705e-02 4.357597e-02 3.299827e-02 4.345305e-02 4.209508e-02 3.510664e-02 4.262096e-02 2.947784e-02 2.522410e-02 3.157714e-02 2.456030e-02 3.588747e-02 3.250132e-02 2.175562e-02 2.673936e-02 1.621424e-02 2.560903e-02 2.404699e-02 3.169393e-02 3.072362e-02 2.794825e-02 2.715964e-02 1.784427e-02 1.835600e-02 2.905876e-02 3.652395e-02 3.814011e-02 2.933008e-02 2.628510e-02 2.463947e-02 2.665297e-02 2.890354e-02 2.621697e-02 3.014067e-02 3.018436e-02 2.669190e-02 2.061450e-02 1.631974e-02 1.432151e-02 2.071676e-02 2.491544e-02 3.065916e-02 2.448074e-02 1.864093e-02 1.990548e-02 2.392859e-02 2.794042e-02 3.171774e-02 3.182737e-02 1.515849e-02 1.274473e-02 1.060113e-02 
3.308347e-02 3.692909e-02 3.944966e-02 4.886713e-02 5.784665e-02 5.502082e-02 2.851772e-02 3.898524e-02 2.615566e-02 3.184026e-02 2.267093e-02 2.471641e-02 1.857547e-02 2.008750e-02 1.904734e-02 2.100328e-02 2.078388e-02 2.008203e-02 2.186809e-02 2.149992e-02 2.128371e-02 1.827567e-02 2.225672e-02 2.263267e-02 3.408315e-02 3.821902e-02 4.812726e-02 4.464181e-02 4.803034e-02 4.557589e-02 3.836955e-02 3.300149e-02 3.004128e-02 3.275249e-02 4.238259e-02 4.163498e-02 4.242217e-02 3.989803e-02 3.770030e-02 3.856061e-02 3.389020e-02 2.774877e-02 3.898385e-02 4.307103e-02 3.894054e-02 4.863671e-02 3.303095e-02 5.149164e-02 2.479357e-02 2.098549e-02 2.492616e-02 3.898411e-02 2.950814e-02 3.760532e-02 2.324536e-02 3.942236e-02 1.974086e-02 1.378287e-02 2.153314e-02 3.756470e-02 2.331209e-02 1.742006e-02 1.587928e-02 2.689905e-02 3.145420e-02 2.316659e-02 1.952342e-02 3.321394e-02 9.505921e-03 6.838252e-03 1.155987e-02 2.660123e-02 5.272438e-02 4.211449e-02 1.698606e-02 1.989564e-02 1.575128e-02 1.204719e-02 2.323655e-02 3.177700e-02 2.795788e-02 2.910197e-02 3.096846e-02 4.026936e-02 2.866653e-02 2.511243e-02 2.554209e-02 3.110259e-02 3.214203e-02 4.120590e-02 3.441810e-02 4.097414e-02 3.304495e-02 3.379642e-02 3.036524e-02 3.044776e-02 3.452731e-02 3.684929e-02 3.788560e-02 4.032715e-02 3.403692e-02 2.742785e-02 2.098497e-02 3.203472e-02 2.904295e-02 3.824029e-02 3.430541e-02 3.120260e-02 3.236539e-02 2.835193e-02 3.191270e-02 3.256265e-02 3.650961e-02 3.771964e-02 3.909932e-02 3.675121e-02 3.841932e-02 2.849528e-02 3.796419e-02 3.510079e-02 3.902032e-02 3.559312e-02 3.983451e-02 6.835651e-02 5.020749e-02 4.251455e-02 3.471286e-02 3.523955e-02 
3.621285e-02 3.845712e-02 4.049734e-02 4.599620e-02 5.304326e-02 6.384992e-02 5.925614e-02 6.095602e-02 5.487062e-02 5.523025e-02 5.138935e-02 5.117746e-02 4.600622e-02 4.599462e-02 4.586837e-02 4.595438e-02 4.596771e-02 4.567988e-02 4.634356e-02 4.591194e-02 4.688602e-02 4.559154e-02 5.095810e-02 5.126485e-02 5.685655e-02 5.567951e-02 6.384878e-02 6.479398e-02 6.463540e-02 5.859951e-02 5.816910e-02 5.316746e-02 5.495459e-02 5.288218e-02 5.310509e-02 5.686153e-02 5.958124e-02 5.548463e-02 5.908594e-02 5.118293e-02 5.125662e-02 5.283947e-02 5.139357e-02 5.907622e-02 6.072323e-02 5.939232e-02 6.042082e-02 5.392221e-02 4.296375e-02 4.643248e-02 3.298260e-02 4.638619e-02 3.928236e-02 3.971993e-02 3.284310e-02 2.486440e-02 6.965996e-03 2.379137e-02 1.652868e-02 1.927568e-02 9.126980e-03 2.003348e-02 2.296216e-02 2.848830e-03 2.329993e-02 1.561703e-02 2.799337e-02 3.811959e-02 2.219217e-02 1.825871e-02 3.009348e-02 2.878057e-02 1.522961e-02 3.701777e-02 2.666392e-02 3.096371e-02 3.324488e-02 4.241545e-02 4.281673e-02 5.168738e-02 5.808701e-02 5.651203e-02 6.344223e-02 5.527975e-02 5.346040e-02 5.583634e-02 5.194300e-02 6.043693e-02 5.939083e-02 6.141969e-02 6.155791e-02 5.837513e-02 5.952296e-02 6.037996e-02 6.390926e-02 6.319013e-02 6.331354e-02 6.329511e-02 5.753567e-02 5.899201e-02 5.933612e-02 6.385814e-02 6.302784e-02 6.165271e-02 5.737447e-02 5.978085e-02 6.057564e-02 6.128348e-02 5.945026e-02 6.025669e-02 6.298126e-02 6.004881e-02 5.843769e-02 5.577299e-02 5.525932e-02 5.712282e-02 6.291556e-02 6.166539e-02 6.280003e-02 5.705052e-02 6.036129e-02 6.092758e-02 6.624779e-02 6.173858e-02 4.670603e-02 4.300550e-02 3.778190e-02 3.748541e-02 
4.652556e-02 4.864568e-02 4.861934e-02 5.238085e-02 5.360017e-02 5.949980e-02 6.206364e-02 6.318801e-02 6.159316e-02 6.331080e-02 6.252702e-02 6.541148e-02 6.433562e-02 6.297117e-02 6.276071e-02 6.300493e-02 6.298702e-02 6.285879e-02 6.319579e-02 6.285758e-02 6.302175e-02 6.414100e-02 6.576141e-02 6.351842e-02 6.399775e-02 6.202147e-02 6.455736e-02 6.430452e-02 6.477436e-02 6.140500e-02 6.343585e-02 6.071021e-02 6.250797e-02 5.946905e-02 5.854695e-02 5.964801e-02 6.103250e-02 5.858342e-02 6.151610e-02 5.710793e-02 5.771579e-02 5.936798e-02 5.661131e-02 5.977821e-02 5.893266e-02 5.571685e-02 5.839482e-02 5.160671e-02 4.838384e-02 4.974389e-02 4.096003e-02 4.773513e-02 3.950625e-02 4.344900e-02 3.646628e-02 5.849060e-02 7.176578e-02 4.821362e-02 4.059475e-02 2.271540e-02 2.529611e-02 2.003773e-02 1.548781e-02 2.830584e-02 3.131549e-02 4.809798e-02 1.547688e-02 2.889501e-02 6.986966e-02 7.058290e-02 5.979785e-02 6.682258e-02 7.993189e-02 8.695098e-02 6.599687e-02 5.895005e-02 5.428234e-02 5.847016e-02 5.511475e-02 5.940760e-02 6.213213e-02 6.132986e-02 6.543458e-02 6.112889e-02 6.084760e-02 6.377579e-02 6.156144e-02 6.573252e-02 6.373934e-02 6.383623e-02 6.511489e-02 6.287775e-02 6.449717e-02 6.572893e-02 6.749780e-02 6.749644e-02 6.584813e-02 6.634711e-02 6.203611e-02 6.282572e-02 6.316506e-02 6.811491e-02 6.799637e-02 6.585609e-02 6.319046e-02 6.324377e-02 6.353383e-02 6.511477e-02 6.357001e-02 6.505794e-02 6.519126e-02 6.359793e-02 6.191946e-02 5.986662e-02 5.983962e-02 6.131702e-02 6.394438e-02 6.452232e-02 6.366764e-02 6.042015e-02 6.131978e-02 6.154842e-02 6.245529e-02 5.654023e-02 5.213954e-02 5.032678e-02 4.758996e-02 4.790595e-02 
4.548339e-02 4.680622e-02 4.726184e-02 4.981101e-02 5.112507e-02 5.440975e-02 5.584429e-02 5.827949e-02 5.956973e-02 6.167235e-02 6.490865e-02 6.706988e-02 7.375207e-02 7.355799e-02 7.354535e-02 7.353608e-02 7.360573e-02 7.347194e-02 7.364796e-02 7.343050e-02 7.360434e-02 7.373545e-02 6.696758e-02 6.549805e-02 6.307413e-02 6.191912e-02 6.176874e-02 6.048628e-02 6.058501e-02 5.837638e-02 5.904995e-02 5.676557e-02 5.792609e-02 5.593922e-02 5.711062e-02 5.587138e-02 5.736435e-02 5.546205e-02 5.703320e-02 5.499994e-02 5.601484e-02 5.570551e-02 5.605330e-02 5.676970e-02 5.708889e-02 5.695433e-02 5.732729e-02 5.675233e-02 5.668219e-02 5.882717e-02 5.986427e-02 6.612133e-02 7.179030e-02 8.127719e-02 9.589186e-02 1.082926e-01 1.269950e-01 1.087616e-01 1.136194e-01 1.225733e-01 1.156485e-01 1.184639e-01 1.076634e-01 1.191168e-01 1.251606e-01 1.395950e-01 1.512325e-01 1.411861e-01 1.335972e-01 1.035640e-01 9.546175e-02 8.669818e-02 8.276988e-02 6.613455e-02 5.574777e-02 5.398376e-02 5.218933e-02 5.445850e-02 5.477479e-02 5.656272e-02 5.833482e-02 5.815007e-02 5.974745e-02 5.856931e-02 5.882123e-02 5.918752e-02 5.880536e-02 6.004592e-02 5.991382e-02 6.042756e-02 6.073562e-02 6.054382e-02 6.090812e-02 6.103555e-02 6.128229e-02 6.130942e-02 6.061878e-02 6.091470e-02 5.942313e-02 6.027919e-02 5.937172e-02 6.073779e-02 5.987573e-02 6.035221e-02 5.915554e-02 5.989981e-02 5.921097e-02 5.971795e-02 5.899114e-02 5.894305e-02 5.873850e-02 5.777090e-02 5.750746e-02 5.640414e-02 5.686669e-02 5.614705e-02 5.759131e-02 5.639984e-02 5.740977e-02 5.536393e-02 5.622170e-02 5.432068e-02 5.433319e-02 5.147773e-02 4.939241e-02 4.787777e-02 4.622269e-02 4.614257e-02 
5.058729e-02 5.204759e-02 5.182103e-02 5.429554e-02 5.489302e-02 5.788319e-02 5.925798e-02 6.152401e-02 6.300566e-02 6.522553e-02 6.818531e-02 7.036118e-02 7.661636e-02 7.683478e-02 7.669292e-02 7.680004e-02 7.677515e-02 7.671546e-02 7.680784e-02 7.661291e-02 7.674687e-02 7.650013e-02 6.975305e-02 6.867345e-02 6.614876e-02 6.505393e-02 6.442660e-02 6.316281e-02 6.340491e-02 6.183986e-02 6.278721e-02 6.120342e-02 6.238508e-02 6.073509e-02 6.162930e-02 6.027912e-02 6.131312e-02 5.993260e-02 6.103740e-02 5.973791e-02 6.035569e-02 5.985411e-02 5.984186e-02 5.962246e-02 5.955596e-02 5.895403e-02 5.922057e-02 5.875287e-02 5.872590e-02 5.984369e-02 6.007111e-02 6.293166e-02 6.586048e-02 7.064373e-02 7.948444e-02 8.906981e-02 1.078650e-01 1.189775e-01 9.742889e-02 9.657066e-02 9.042609e-02 8.682545e-02 9.193729e-02 8.538544e-02 8.457207e-02 7.810849e-02 6.906310e-02 6.080660e-02 5.483367e-02 5.859609e-02 5.635281e-02 4.954044e-02 5.407636e-02 5.637232e-02 6.003060e-02 6.351037e-02 6.469371e-02 6.605228e-02 6.551067e-02 6.574037e-02 6.567271e-02 6.515738e-02 6.539287e-02 6.469102e-02 6.460503e-02 6.470772e-02 6.439863e-02 6.487697e-02 6.477521e-02 6.501468e-02 6.532831e-02 6.538532e-02 6.558782e-02 6.586597e-02 6.552044e-02 6.568817e-02 6.453491e-02 6.494679e-02 6.359973e-02 6.452667e-02 6.369317e-02 6.494692e-02 6.402470e-02 6.464897e-02 6.349713e-02 6.423638e-02 6.328386e-02 6.401121e-02 6.294889e-02 6.327392e-02 6.235567e-02 6.199483e-02 6.124933e-02 6.065782e-02 6.049170e-02 6.006009e-02 6.045106e-02 5.980706e-02 6.022025e-02 5.909076e-02 5.949852e-02 5.803540e-02 5.782034e-02 5.542555e-02 5.400101e-02 5.279714e-02 5.135183e-02 5.154573e-02 
4.571992e-02 4.700077e-02 4.733398e-02 4.983014e-02 5.101622e-02 5.423551e-02 5.557777e-02 5.796091e-02 5.940047e-02 6.187657e-02 6.499420e-02 6.750379e-02 7.362288e-02 7.345121e-02 7.341776e-02 7.340453e-02 7.344798e-02 7.331107e-02 7.339344e-02 7.319263e-02 7.331421e-02 7.339776e-02 6.701719e-02 6.566854e-02 6.298319e-02 6.173282e-02 6.065231e-02 5.906759e-02 5.910889e-02 5.764690e-02 5.867901e-02 5.746868e-02 5.918744e-02 5.753980e-02 5.890646e-02 5.697894e-02 5.820576e-02 5.664560e-02 5.807442e-02 5.684462e-02 5.795183e-02 5.713897e-02 5.772792e-02 5.713715e-02 5.731641e-02 5.714800e-02 5.770434e-02 5.810378e-02 5.924440e-02 6.045681e-02 6.171931e-02 6.313181e-02 6.460583e-02 6.595812e-02 6.818323e-02 6.925022e-02 7.088506e-02 7.279743e-02 7.160368e-02 7.328972e-02 7.056443e-02 7.021479e-02 6.703664e-02 6.756788e-02 6.618683e-02 6.809351e-02 6.907401e-02 7.000077e-02 7.307205e-02 7.451776e-02 8.172848e-02 8.387649e-02 8.726499e-02 8.572688e-02 8.438734e-02 8.118006e-02 7.813093e-02 7.463033e-02 7.206061e-02 6.940442e-02 6.820840e-02 6.625718e-02 6.571743e-02 6.419529e-02 6.377588e-02 6.258064e-02 6.233080e-02 6.176371e-02 6.208963e-02 6.204706e-02 6.270230e-02 6.291071e-02 6.307741e-02 6.312133e-02 6.237784e-02 6.194784e-02 6.045781e-02 6.040923e-02 5.932476e-02 6.013330e-02 5.943506e-02 6.036052e-02 5.937597e-02 6.018801e-02 5.929267e-02 6.057573e-02 5.988534e-02 6.080746e-02 5.990191e-02 5.988919e-02 5.870426e-02 5.766717e-02 5.688064e-02 5.549314e-02 5.563167e-02 5.435818e-02 5.546839e-02 5.416080e-02 5.591829e-02 5.462922e-02 5.628008e-02 5.444283e-02 5.487062e-02 5.198747e-02 4.993274e-02 4.836349e-02 4.661770e-02 4.649200e-02 
4.708624e-02 4.913272e-02 4.886258e-02 5.253297e-02 5.346792e-02 5.920050e-02 6.140384e-02 6.198924e-02 6.081008e-02 6.399818e-02 6.303776e-02 6.689072e-02 6.409988e-02 6.305465e-02 6.273570e-02 6.296090e-02 6.292824e-02 6.281071e-02 6.296142e-02 6.251834e-02 6.282224e-02 6.352465e-02 6.612512e-02 6.463564e-02 6.547519e-02 6.372063e-02 6.348911e-02 6.132905e-02 6.193917e-02 6.084683e-02 6.253623e-02 6.225571e-02 6.488707e-02 6.320311e-02 6.414996e-02 6.167646e-02 6.263962e-02 6.191779e-02 6.350490e-02 6.249945e-02 6.359325e-02 6.290328e-02 6.322236e-02 6.224272e-02 6.145239e-02 6.154104e-02 6.224150e-02 6.291008e-02 6.469282e-02 6.637778e-02 6.774453e-02 6.913756e-02 6.948163e-02 7.153812e-02 7.380742e-02 7.795888e-02 8.049722e-02 8.497809e-02 8.329749e-02 8.479238e-02 8.282583e-02 8.272309e-02 8.327764e-02 8.334765e-02 8.414357e-02 8.456114e-02 8.434705e-02 8.381437e-02 8.224677e-02 8.151361e-02 8.058953e-02 7.936341e-02 7.972625e-02 7.957810e-02 7.959804e-02 7.814475e-02 7.592889e-02 7.312384e-02 7.141179e-02 7.013314e-02 7.017977e-02 6.908274e-02 6.878209e-02 6.800757e-02 6.775652e-02 6.666459e-02 6.624728e-02 6.545776e-02 6.623943e-02 6.647730e-02 6.793071e-02 6.869104e-02 6.932140e-02 7.003035e-02 6.870723e-02 6.773360e-02 6.462366e-02 6.392850e-02 6.266747e-02 6.446467e-02 6.479973e-02 6.609932e-02 6.479377e-02 6.513709e-02 6.372595e-02 6.563414e-02 6.465173e-02 6.608457e-02 6.457643e-02 6.497021e-02 6.317008e-02 6.232691e-02 6.104086e-02 6.017194e-02 5.982125e-02 5.876150e-02 5.888851e-02 5.795305e-02 5.974463e-02 6.015127e-02 6.277321e-02 6.237211e-02 6.383579e-02 5.772475e-02 5.331563e-02 5.140160e-02 4.846509e-02 4.869200e-02 
3.684008e-02 3.901381e-02 4.065147e-02 4.602115e-02 5.250079e-02 6.295554e-02 5.732020e-02 5.805741e-02 5.438259e-02 5.710111e-02 5.337820e-02 5.450931e-02 4.619747e-02 4.565964e-02 4.563261e-02 4.565942e-02 4.583485e-02 4.546550e-02 4.546751e-02 4.499185e-02 4.515834e-02 4.481503e-02 5.454422e-02 5.528517e-02 5.898450e-02 5.754351e-02 5.752372e-02 5.354288e-02 5.393046e-02 5.243166e-02 5.503238e-02 5.758244e-02 6.355122e-02 6.201465e-02 6.304903e-02 5.834811e-02 5.764173e-02 5.605492e-02 5.928558e-02 5.882030e-02 6.067236e-02 6.025530e-02 6.053997e-02 5.833947e-02 5.570212e-02 5.483405e-02 5.487160e-02 5.600734e-02 6.102318e-02 6.495340e-02 6.756277e-02 6.760908e-02 6.519213e-02 6.331015e-02 6.301470e-02 6.597868e-02 6.834638e-02 7.219402e-02 7.192228e-02 7.273543e-02 6.976612e-02 6.844573e-02 6.826814e-02 7.169531e-02 7.606414e-02 8.206463e-02 8.582742e-02 8.672205e-02 8.409624e-02 8.056120e-02 7.878596e-02 7.790012e-02 7.930835e-02 8.050088e-02 8.172762e-02 7.980827e-02 7.771083e-02 7.312207e-02 7.078343e-02 6.835038e-02 6.943473e-02 6.860636e-02 6.892188e-02 6.760686e-02 6.611764e-02 6.212802e-02 6.032435e-02 5.859332e-02 6.022166e-02 6.088506e-02 6.517846e-02 6.744470e-02 6.903024e-02 6.998465e-02 6.807103e-02 6.463897e-02 5.843957e-02 5.640736e-02 5.567858e-02 5.915129e-02 6.058653e-02 6.184019e-02 5.923708e-02 5.822368e-02 5.703811e-02 6.173049e-02 6.257842e-02 6.615652e-02 6.563034e-02 6.613131e-02 6.172338e-02 5.797173e-02 5.485481e-02 5.077213e-02 5.051976e-02 4.916991e-02 5.191830e-02 5.013698e-02 5.599916e-02 5.701850e-02 6.397327e-02 6.271536e-02 6.904287e-02 6.444965e-02 4.850039e-02 4.468442e-02 3.889399e-02 3.851340e-02 
3.397884e-02 3.777928e-02 3.977407e-02 4.913923e-02 5.732401e-02 5.514306e-02 2.817761e-02 4.075170e-02 2.988806e-02 3.649890e-02 2.655083e-02 2.863411e-02 1.997996e-02 2.325969e-02 2.132271e-02 2.233107e-02 2.274431e-02 2.284703e-02 2.344045e-02 2.350982e-02 2.486687e-02 2.381948e-02 3.088260e-02 2.740995e-02 3.164958e-02 3.035796e-02 3.458196e-02 2.950343e-02 2.969915e-02 2.693409e-02 3.104341e-02 3.741453e-02 3.906661e-02 3.867651e-02 4.158979e-02 4.051294e-02 3.721841e-02 3.407173e-02 3.673802e-02 3.814484e-02 3.939024e-02 4.108419e-02 4.194907e-02 4.329972e-02 4.148828e-02 4.069474e-02 3.965890e-02 4.465272e-02 5.141410e-02 5.602203e-02 5.743762e-02 5.961852e-02 5.821770e-02 5.558006e-02 5.228272e-02 5.440572e-02 5.443975e-02 5.426126e-02 5.034439e-02 4.821277e-02 4.390758e-02 3.847078e-02 3.684445e-02 4.083607e-02 4.730906e-02 4.972946e-02 4.926256e-02 4.833353e-02 4.602135e-02 4.042952e-02 3.407051e-02 3.265387e-02 3.392001e-02 3.563526e-02 3.554711e-02 3.493552e-02 3.751025e-02 3.701227e-02 3.569208e-02 3.335722e-02 3.361716e-02 3.434213e-02 3.450757e-02 3.341838e-02 3.132441e-02 2.758744e-02 2.356157e-02 2.289958e-02 2.367259e-02 2.685160e-02 3.117509e-02 3.076713e-02 2.987453e-02 2.990468e-02 3.246282e-02 3.640896e-02 3.049040e-02 2.632219e-02 2.600224e-02 2.946387e-02 2.679353e-02 2.799258e-02 2.660828e-02 2.729671e-02 2.942038e-02 3.654555e-02 3.957873e-02 4.373875e-02 4.630196e-02 4.787886e-02 4.773404e-02 3.994002e-02 3.809486e-02 2.636774e-02 2.578929e-02 2.250754e-02 3.112389e-02 2.958822e-02 3.982966e-02 3.813729e-02 4.235336e-02 3.762129e-02 4.166613e-02 7.237540e-02 5.361857e-02 4.516957e-02 3.643126e-02 3.668859e-02 
1.094667e-02 1.352435e-02 1.837107e-02 2.533811e-02 3.560844e-02 1.258755e-02 2.491329e-02 1.683458e-02 1.957062e-02 1.944165e-02 2.179359e-02 2.360292e-02 1.898693e-02 2.227160e-02 2.097349e-02 2.378671e-02 2.044555e-02 2.365656e-02 1.932063e-02 2.139454e-02 1.706955e-02 1.882068e-02 2.234704e-02 2.576827e-02 2.583070e-02 2.653143e-02 2.430275e-02 2.274615e-02 1.988349e-02 2.002660e-02 2.465202e-02 3.213353e-02 3.086606e-02 2.477707e-02 2.392528e-02 2.200042e-02 2.093956e-02 1.835648e-02 2.199042e-02 1.936487e-02 2.056522e-02 1.857618e-02 1.905140e-02 1.800664e-02 1.365929e-02 1.220525e-02 1.110968e-02 1.864126e-02 2.630133e-02 2.069844e-02 1.714297e-02 2.007458e-02 2.298024e-02 2.289781e-02 1.835066e-02 2.031607e-02 2.357781e-02 2.817501e-02 3.084274e-02 3.390673e-02 3.554433e-02 3.297421e-02 3.190151e-02 3.801906e-02 4.398370e-02 4.465237e-02 4.108339e-02 4.134827e-02 4.220438e-02 3.743926e-02 2.942834e-02 2.665273e-02 2.648950e-02 2.912325e-02 2.865784e-02 2.844731e-02 2.561384e-02 2.248232e-02 2.228282e-02 2.255942e-02 2.722148e-02 2.775932e-02 2.901334e-02 3.050811e-02 3.454285e-02 3.353882e-02 3.139306e-02 2.986936e-02 3.325589e-02 3.609070e-02 4.164217e-02 4.131045e-02 4.212451e-02 4.379846e-02 4.263955e-02 4.218742e-02 3.200089e-02 2.668376e-02 2.628037e-02 2.914600e-02 3.197768e-02 3.263801e-02 3.028043e-02 2.731993e-02 2.874827e-02 3.361000e-02 2.933188e-02 2.853284e-02 2.175814e-02 2.650935e-02 3.502166e-02 3.163286e-02 3.404893e-02 2.570377e-02 1.666255e-02 1.946097e-02 1.592344e-02 1.966448e-02 2.129963e-02 2.309173e-02 2.573736e-02 2.430628e-02 3.232559e-02 3.396805e-02 3.560366e-02 1.717890e-02 1.424877e-02 1.129960e-02 
1.315636e-02 1.106926e-02 1.179892e-02 8.029035e-03 9.452812e-03 2.245345e-02 8.430160e-03 1.250491e-02 2.768207e-03 6.535576e-03 4.439638e-03 1.149586e-02 1.393188e-02 2.097446e-02 2.606343e-02 2.723947e-02 2.842668e-02 2.856914e-02 2.663296e-02 2.512709e-02 2.016384e-02 1.258820e-02 1.106219e-02 7.252778e-03 7.710675e-03 5.409567e-03 7.499016e-03 3.823430e-03 4.289193e-03 1.080855e-03 6.306420e-03 9.922294e-03 1.587079e-02 1.364040e-02 1.517548e-02 9.494459e-03 9.925569e-03 5.160370e-03 8.999379e-03 7.965561e-03 9.996847e-03 8.964397e-03 9.242114e-03 6.342178e-03 3.910627e-03 4.066964e-03 1.847606e-03 6.864089e-03 1.250988e-02 1.543601e-02 1.829215e-02 1.887336e-02 1.887158e-02 1.906726e-02 1.667918e-02 1.756368e-02 1.836011e-02 1.995575e-02 1.903000e-02 1.949261e-02 1.739703e-02 1.402924e-02 1.257989e-02 1.865596e-02 2.807241e-02 3.641831e-02 4.277534e-02 4.444346e-02 4.034800e-02 3.136985e-02 2.398363e-02 2.178295e-02 1.715204e-02 1.493298e-02 1.420149e-02 1.240369e-02 1.279154e-02 9.386120e-03 1.088308e-02 9.156014e-03 1.037811e-02 1.063553e-02 1.333875e-02 1.407694e-02 1.481209e-02 1.079376e-02 6.589834e-03 4.920806e-03 6.275972e-03 8.484106e-03 1.291800e-02 1.645534e-02 1.690535e-02 1.820922e-02 1.539636e-02 1.184988e-02 5.296356e-03 5.062711e-03 4.402472e-03 8.600925e-03 7.654552e-03 8.818487e-03 5.644731e-03 9.040078e-03 1.125133e-02 1.627849e-02 1.610577e-02 1.929404e-02 1.796420e-02 1.907943e-02 1.971618e-02 1.505300e-02 1.820631e-02 1.176377e-02 5.641284e-03 9.156229e-03 6.888903e-03 7.648804e-03 7.332347e-03 3.935746e-03 1.238637e-02 1.049878e-02 2.211907e-02 1.266947e-02 7.743498e-03 5.352871e-03 1.155638e-02 1.079613e-02 
6.225942e-03 3.263719e-03 5.673568e-03 2.097465e-03 3.811865e-03 6.856769e-03 1.105844e-02 6.486153e-03 7.233615e-03 8.153509e-03 9.896958e-03 1.937457e-02 2.552264e-02 2.693644e-02 1.293322e-02 9.658409e-03 3.305133e-03 5.919646e-03 7.023699e-03 1.312718e-02 2.763780e-02 2.774394e-02 2.022731e-02 1.443142e-02 9.167531e-03 6.428665e-03 3.466143e-03 4.046028e-03 2.034578e-03 4.561692e-03 3.701335e-03 4.466190e-03 3.367371e-03 2.985537e-03 3.267592e-03 1.176985e-03 9.988025e-04 2.471527e-03 1.565639e-03 1.469692e-03 8.524704e-04 4.511967e-04 8.707726e-04 1.214834e-03 1.392956e-03 2.640802e-03 7.037375e-04 4.476645e-03 6.209319e-03 1.125677e-02 1.513073e-02 1.891468e-02 2.302361e-02 2.526955e-02 2.425516e-02 2.379699e-02 2.017044e-02 1.754248e-02 1.404656e-02 1.266848e-02 8.518790e-03 8.025694e-03 8.775363e-03 1.134863e-02 1.661853e-02 1.868907e-02 1.916512e-02 1.669619e-02 1.330202e-02 1.638442e-02 1.676519e-02 2.191513e-02 2.312750e-02 2.049423e-02 1.822525e-02 1.679558e-02 1.357458e-02 1.183721e-02 8.444228e-03 9.536446e-03 7.891863e-03 7.132481e-03 5.924258e-03 6.475639e-03 7.462534e-03 8.981252e-03 9.334334e-03 8.377265e-03 8.527216e-03 6.463994e-03 6.691218e-03 3.902055e-03 5.539796e-03 4.837282e-03 6.383697e-03 6.106037e-03 7.432253e-03 5.348926e-03 6.277788e-03 5.191116e-03 8.617882e-03 7.638913e-03 1.030393e-02 7.879609e-03 8.099841e-03 5.434149e-03 4.618054e-03 3.408572e-03 2.681154e-03 3.281976e-03 6.735453e-03 7.170614e-03 9.329645e-03 1.112508e-02 8.187365e-03 1.151833e-02 5.430144e-03 8.999525e-03 2.736631e-03 6.139837e-03 2.685470e-03 6.241594e-03 8.563398e-03 3.230583e-03 5.130049e-03 1.947589e-03 6.124298e-03 3.497683e-03 
