# vtk DataFile Version 2.0
Comment goes here
ASCII

DATASET STRUCTURED_POINTS
FIELD FieldData 1
TIME 1 1 double
0.08000000
DIMENSIONS    128   16   1

ORIGIN    0.000   0.000   0.000
SPACING   0.0078125 0.015625   1.000

POINT_DATA   2048
SCALARS uMag double
LOOKUP_TABLE default

6.386724e-03 3.693540e-03 3.220107e-03 1.270657e-03 1.166193e-03 1.908938e-03 4.685069e-03 4.714206e-03 3.488931e-03 1.192610e-02 1.082252e-02 2.190459e-02 3.155269e-02 5.045106e-02 5.508999e-02 5.887557e-02 6.137945e-02 5.924326e-02 5.367056e-02 4.967245e-02 4.122953e-02 2.506150e-02 1.725468e-02 1.113496e-02 8.320793e-03 5.427339e-03 3.144721e-03 5.975731e-03 7.424610e-03 1.361540e-02 1.383575e-02 1.604486e-02 1.047779e-02 1.185376e-02 1.172191e-02 9.833244e-03 1.036974e-02 1.418779e-02 1.367618e-02 1.713761e-02 1.373165e-02 6.868769e-03 4.972892e-03 2.072123e-03 2.055156e-03 7.020915e-03 9.755386e-03 4.017874e-03 1.434210e-02 1.097109e-02 5.044817e-03 1.533847e-02 1.759169e-02 1.147762e-02 1.104102e-02 1.707754e-02 4.730365e-02 7.425708e-02 6.973912e-02 3.159916e-02 3.480071e-02 2.983289e-02 6.311162e-02 1.470001e-01 1.420354e-01 9.914766e-02 1.106475e-01 1.163581e-01 6.076742e-02 9.199431e-02 1.964285e-01 2.178268e-01 1.586234e-01 9.237450e-02 7.013379e-02 4.323415e-02 3.179052e-02 3.297300e-02 2.642137e-02 2.933049e-02 1.854148e-02 8.857221e-03 3.727084e-03 1.058369e-02 1.061769e-02 1.065265e-02 6.382244e-03 5.339205e-03 7.019518e-03 3.059341e-04 2.115134e-03 2.125029e-03 4.607728e-03 1.057833e-02 1.102933e-02 1.288973e-02 7.212716e-03 5.106328e-03 4.932017e-03 5.942969e-03 4.867087e-03 3.937818e-04 8.887720e-03 1.009920e-02 9.427241e-03 1.150328e-02 7.734712e-03 7.274337e-03 8.409809e-03 1.097955e-02 1.254633e-02 7.885966e-03 6.573514e-03 7.057292e-03 6.130322e-03 6.212833e-03 3.416155e-03 1.026868e-02 7.220058e-03 7.493235e-03 6.803320e-03 1.515651e-02 1.677494e-02 7.918070e-03 9.958862e-03 6.526247e-03 8.366419e-03 5.791307e-03 
1.946087e-03 1.401209e-03 2.687895e-03 4.859960e-03 7.258101e-03 9.383036e-03 3.043757e-03 1.125779e-02 1.405978e-02 1.474108e-02 9.472945e-03 2.355937e-02 3.354867e-02 2.774059e-02 5.657329e-03 1.102257e-02 3.479529e-03 8.364157e-03 1.148488e-02 1.142247e-02 2.957640e-02 3.054108e-02 2.453372e-02 2.034075e-02 2.323153e-02 2.178599e-02 1.281036e-02 9.075426e-03 2.213705e-03 8.507407e-03 1.000868e-02 9.732585e-03 3.194471e-03 1.826969e-02 2.132367e-02 2.720883e-02 2.206796e-02 1.455410e-02 4.435378e-03 1.302764e-02 3.588226e-02 3.015737e-02 2.677561e-02 9.278848e-03 1.209622e-02 1.342377e-02 1.660609e-02 1.164549e-02 2.201133e-02 2.837341e-02 5.676542e-03 2.666860e-02 1.228589e-02 2.910359e-02 2.950815e-02 2.697356e-02 3.409036e-02 4.953101e-02 4.136034e-02 7.924357e-02 5.590763e-02 2.294520e-01 3.644640e-01 1.814527e-01 1.073473e-01 1.004826e-01 5.509278e-03 1.719317e-01 4.931484e-01 5.734420e-01 3.110048e-01 3.825786e-02 2.506202e-01 2.134496e-01 1.619249e-01 1.318249e-01 5.563728e-02 3.812682e-02 2.501197e-02 4.165633e-02 5.392184e-02 3.603785e-02 1.627830e-02 8.998772e-03 8.957107e-03 6.602103e-03 9.696554e-03 8.343596e-03 1.083432e-02 8.223408e-03 2.512793e-03 1.985676e-03 9.529687e-03 9.260244e-03 7.578916e-03 1.182293e-02 1.006014e-02 7.210254e-03 1.131830e-02 1.253476e-02 6.546900e-03 1.069830e-02 1.610678e-02 8.174888e-03 1.354009e-02 2.359213e-02 2.154498e-02 5.461919e-03 4.419780e-03 1.154920e-02 2.356555e-02 1.262593e-02 6.788118e-03 5.159279e-03 4.379617e-03 9.647609e-03 8.346306e-03 8.329630e-03 1.065108e-02 9.718594e-03 1.803910e-02 2.647775e-02 1.535220e-02 2.342064e-03 5.610911e-03 2.689652e-03 4.881816e-03 1.788266e-03 
1.010102e-02 9.163528e-03 7.352164e-03 1.047820e-02 1.539480e-02 3.056914e-02 1.829493e-02 2.058808e-02 2.368162e-02 1.686602e-02 1.382730e-02 1.053315e-02 1.764454e-02 2.091997e-02 3.977976e-02 1.717394e-02 1.360796e-02 2.656379e-02 2.198053e-02 2.000539e-02 8.271415e-03 5.461380e-03 1.103449e-02 1.762144e-02 3.923715e-02 3.064257e-02 2.129717e-02 3.450501e-02 1.725001e-02 1.268854e-02 1.525267e-02 2.595091e-02 7.099674e-03 5.132995e-02 9.599234e-03 5.623476e-02 4.253883e-02 1.846668e-02 1.501602e-02 2.751529e-02 7.585105e-02 3.694666e-02 4.585667e-02 2.649171e-02 2.289755e-02 3.171793e-02 3.132145e-02 3.256094e-02 6.472613e-03 5.582382e-02 3.217377e-02 2.289426e-02 1.181226e-02 5.265871e-02 2.288416e-02 3.367470e-02 4.317172e-02 8.098382e-02 1.252506e-01 5.573223e-02 7.114598e-02 5.398682e-02 9.241203e-02 1.991815e-01 1.968916e-01 1.805390e-01 1.475686e-01 1.452530e-01 1.033872e-01 1.288563e-01 2.908158e-01 3.398429e-01 2.752565e-01 2.089874e-01 1.552139e-01 1.370093e-01 1.095882e-01 8.016963e-02 6.424914e-02 3.551527e-02 9.008148e-02 7.014996e-02 5.925675e-02 5.549574e-02 2.717454e-02 3.025907e-02 1.925014e-02 3.160100e-02 1.490179e-02 3.839164e-02 2.169251e-02 1.985409e-02 3.317866e-02 2.077710e-02 1.721283e-02 9.019141e-03 3.637845e-02 1.579656e-02 2.183618e-02 3.199825e-02 1.947442e-02 1.320388e-02 3.650789e-02 1.135635e-02 2.699645e-02 3.784243e-02 5.392176e-02 5.379260e-03 2.539627e-02 1.566918e-03 4.954681e-02 1.882792e-02 1.245751e-02 2.641479e-02 2.080840e-02 2.442334e-02 2.329984e-02 1.388336e-02 2.808588e-02 2.699070e-02 3.773763e-02 5.628801e-02 2.137149e-02 2.081600e-02 9.098294e-03 6.005598e-03 1.063785e-02 1.013716e-02 
1.034026e-02 1.667371e-02 2.434046e-02 3.797887e-02 4.351017e-02 2.830076e-02 4.541393e-02 2.449785e-02 3.085824e-02 2.141553e-02 3.049864e-02 3.011245e-02 2.701009e-02 2.538724e-02 3.446212e-02 4.182581e-02 3.077139e-02 4.474400e-02 3.773948e-02 4.571513e-02 3.096402e-02 3.904314e-02 3.004699e-02 4.137714e-02 5.064319e-02 5.135680e-02 4.973629e-02 4.580964e-02 2.781294e-02 5.000998e-02 2.266077e-02 3.718732e-02 1.769609e-02 3.673288e-02 5.239590e-02 3.836222e-02 2.046262e-02 3.421233e-02 5.384445e-02 4.667398e-02 1.426609e-02 4.007382e-02 2.330388e-02 2.788809e-02 2.287806e-02 3.762338e-02 1.436807e-02 1.691136e-02 4.722325e-02 1.716297e-02 9.859555e-03 4.976062e-02 2.004261e-02 4.987830e-02 4.151198e-02 3.594002e-02 5.013689e-02 2.086349e-02 5.565203e-02 1.287860e-01 1.366227e-01 8.882105e-02 1.464529e-01 1.138493e-01 8.913675e-02 1.188314e-01 5.305611e-02 5.739198e-02 4.501873e-02 9.619050e-02 1.311014e-01 3.471020e-02 3.644050e-02 5.689316e-02 7.205647e-03 4.980896e-02 8.842722e-02 4.689270e-02 3.318211e-02 6.172081e-02 6.321559e-02 7.047158e-02 2.607862e-02 8.650400e-02 3.786454e-02 5.637249e-02 2.392158e-02 3.514248e-02 4.329802e-02 5.194345e-02 3.968818e-02 3.403861e-02 4.355670e-02 4.928406e-02 4.388248e-02 3.700102e-02 2.868111e-02 1.460273e-02 1.031797e-02 4.951817e-02 1.428300e-02 8.864871e-03 3.198044e-02 2.745162e-02 5.190078e-02 3.229951e-02 3.566566e-02 2.814199e-02 1.788839e-02 4.727541e-02 3.342530e-02 3.773891e-02 3.429411e-02 3.378740e-02 2.928766e-02 1.592198e-02 4.358288e-02 2.489323e-02 6.008588e-03 2.675934e-02 2.521177e-02 2.785841e-02 5.443378e-02 1.204810e-02 3.920666e-02 2.192742e-02 1.410149e-02 1.011945e-02 
3.935399e-02 4.371277e-02 5.027133e-02 6.228773e-02 7.394967e-02 6.042518e-02 3.978866e-02 4.185882e-02 4.019945e-02 4.937231e-02 2.998316e-02 3.367579e-02 2.069800e-02 3.568040e-02 2.786047e-02 3.125457e-02 3.631355e-02 3.158657e-02 2.635509e-02 3.195147e-02 4.202273e-02 3.236450e-02 4.025949e-02 3.810242e-02 2.923032e-02 1.439986e-02 1.880706e-02 2.557132e-02 3.973001e-02 3.579495e-02 2.455520e-02 3.387612e-02 4.511762e-02 4.646563e-02 7.611540e-03 3.917983e-02 4.549838e-02 4.735947e-02 1.005397e-01 5.180378e-02 9.984521e-02 8.078493e-02 9.167107e-02 4.967488e-02 5.223852e-02 3.425052e-02 5.474467e-02 5.635401e-02 1.956461e-02 6.073017e-02 7.783558e-02 2.795656e-02 5.393187e-02 6.657338e-02 4.758628e-02 3.959995e-02 4.562739e-02 9.271290e-02 4.169726e-02 8.560239e-02 9.408623e-02 1.133334e-01 1.197621e-01 7.860587e-02 3.816757e-02 4.278555e-02 8.363420e-02 1.430257e-01 1.475115e-01 7.977539e-02 3.725218e-02 3.614008e-02 1.619910e-02 6.996965e-02 3.712456e-02 5.229412e-02 5.664380e-02 6.148237e-02 6.622497e-02 5.446465e-02 4.734225e-02 4.271850e-02 6.721432e-02 4.696054e-02 6.362529e-02 4.022891e-02 2.505478e-02 4.816913e-02 2.238599e-02 3.986528e-02 4.638370e-02 3.788463e-02 4.361963e-02 3.189792e-02 3.884652e-02 4.075401e-02 4.400083e-02 4.805829e-02 5.255762e-02 4.614081e-02 3.322242e-02 5.548729e-02 2.920814e-02 4.984593e-02 3.427608e-02 2.346403e-02 5.392126e-02 5.498169e-02 7.104027e-02 6.181323e-02 4.460914e-02 6.508407e-02 8.806439e-02 8.345140e-02 5.620281e-02 6.735955e-02 6.136367e-02 4.028865e-02 6.386121e-02 5.956020e-02 7.149044e-02 5.617473e-02 4.015328e-02 6.707060e-02 6.319279e-02 5.277316e-02 4.124637e-02 4.068601e-02 
4.492028e-02 4.733413e-02 5.173647e-02 5.922349e-02 7.084591e-02 8.051952e-02 7.509550e-02 6.585204e-02 6.275820e-02 6.579256e-02 6.316359e-02 6.508634e-02 5.773949e-02 5.590728e-02 5.535270e-02 5.527426e-02 5.535287e-02 5.502391e-02 5.283570e-02 5.397099e-02 5.395016e-02 6.066695e-02 5.930550e-02 6.117137e-02 5.432668e-02 6.118339e-02 6.457694e-02 5.864754e-02 6.265914e-02 6.327960e-02 5.184959e-02 6.278254e-02 5.196971e-02 6.441538e-02 6.687758e-02 6.133126e-02 5.420511e-02 4.189703e-02 7.233527e-02 7.990959e-02 8.363314e-02 4.445287e-02 6.465182e-02 6.399495e-02 5.115824e-02 6.351645e-02 5.614808e-02 4.382193e-02 5.795971e-02 5.008209e-02 4.310360e-02 5.240022e-02 5.243849e-03 4.764467e-02 2.251053e-02 3.190723e-02 8.444256e-02 9.683771e-02 7.511456e-02 1.198886e-01 5.547482e-02 8.121403e-02 1.857234e-02 7.976980e-02 5.606843e-02 3.057514e-02 2.741599e-02 3.635005e-02 1.664272e-01 1.772582e-01 1.249391e-01 9.950181e-02 6.980604e-02 4.439035e-02 7.823407e-02 8.881439e-02 3.778328e-02 5.088641e-02 6.104711e-02 7.615810e-02 1.004007e-01 6.430210e-02 8.362742e-02 5.974135e-02 7.336156e-02 8.593422e-02 6.048845e-02 7.681423e-02 7.062585e-02 8.286501e-02 7.400573e-02 7.138824e-02 7.778227e-02 7.134259e-02 7.302328e-02 6.825131e-02 6.575957e-02 5.858285e-02 5.878837e-02 6.165290e-02 5.343721e-02 5.657474e-02 4.865814e-02 6.314238e-02 6.396416e-02 5.607753e-02 6.141417e-02 4.336204e-02 7.445355e-02 6.409079e-02 4.941462e-02 5.140282e-02 6.441807e-02 8.535127e-02 8.067503e-02 7.446472e-02 6.511302e-02 6.290811e-02 7.037198e-02 5.012390e-02 5.682562e-02 6.841727e-02 7.215115e-02 7.438535e-02 5.950430e-02 5.197388e-02 4.638452e-02 4.518311e-02 
5.582986e-02 5.793054e-02 5.918298e-02 6.363194e-02 6.678432e-02 7.416447e-02 7.557877e-02 7.337360e-02 6.971343e-02 7.199295e-02 7.266107e-02 7.828663e-02 7.351591e-02 7.276731e-02 7.213918e-02 7.225025e-02 7.210003e-02 7.173487e-02 7.124455e-02 7.193934e-02 7.240639e-02 7.527956e-02 7.334056e-02 7.111819e-02 6.877007e-02 7.365392e-02 7.412188e-02 6.643918e-02 6.635689e-02 6.970805e-02 6.406550e-02 6.665221e-02 5.958502e-02 6.394419e-02 7.480727e-02 6.594473e-02 6.107017e-02 5.584348e-02 6.530727e-02 7.378181e-02 6.668374e-02 4.889341e-02 5.631904e-02 6.507842e-02 5.765766e-02 6.759045e-02 5.922830e-02 5.256653e-02 6.671000e-02 4.892385e-02 5.161692e-02 6.351599e-02 4.915797e-02 8.962439e-02 7.625848e-02 1.220813e-01 8.857786e-02 1.150041e-01 5.380483e-02 4.809118e-02 8.628400e-02 5.015798e-02 4.021560e-02 8.432603e-02 1.061596e-01 1.096758e-01 3.197472e-02 4.160259e-02 1.840470e-01 2.102649e-01 5.996470e-02 7.268452e-02 6.489213e-02 5.500522e-02 6.801317e-02 4.248016e-02 4.891358e-02 6.123785e-02 6.821494e-02 7.996561e-02 7.930631e-02 5.964136e-02 7.118911e-02 6.715292e-02 7.554529e-02 8.174457e-02 7.050076e-02 7.718136e-02 7.704079e-02 8.010093e-02 7.408850e-02 7.496983e-02 7.574147e-02 7.622882e-02 7.537954e-02 7.384488e-02 6.719319e-02 6.286263e-02 6.142432e-02 6.626834e-02 6.193739e-02 5.956030e-02 6.000120e-02 6.590980e-02 6.802186e-02 6.609878e-02 5.987385e-02 5.339259e-02 6.618194e-02 6.674747e-02 5.909249e-02 5.798528e-02 6.204390e-02 7.352370e-02 7.442262e-02 7.010949e-02 6.704531e-02 6.905020e-02 6.769754e-02 5.507340e-02 5.689162e-02 6.595711e-02 7.139610e-02 6.494662e-02 6.115852e-02 5.828425e-02 5.627303e-02 5.625102e-02 
5.515513e-02 5.635880e-02 5.797901e-02 6.053005e-02 6.317206e-02 6.630448e-02 6.835611e-02 6.915328e-02 7.073318e-02 7.275125e-02 7.563837e-02 7.887058e-02 8.341586e-02 8.296857e-02 8.301300e-02 8.289167e-02 8.282759e-02 8.281132e-02 8.257105e-02 8.274404e-02 8.273344e-02 8.307958e-02 7.434689e-02 7.346707e-02 6.783005e-02 6.835812e-02 6.544709e-02 6.469653e-02 6.304762e-02 6.363325e-02 6.094504e-02 6.218394e-02 5.996583e-02 6.024956e-02 6.136987e-02 5.897777e-02 5.959756e-02 5.772193e-02 6.073473e-02 6.112526e-02 6.097788e-02 5.744158e-02 5.937246e-02 6.006129e-02 5.899852e-02 6.098202e-02 5.994964e-02 5.978305e-02 6.407516e-02 6.266608e-02 6.845655e-02 7.634736e-02 8.295150e-02 1.060402e-01 1.250021e-01 1.610858e-01 1.755286e-01 1.739682e-01 1.311540e-01 1.437528e-01 1.401708e-01 1.069825e-01 1.590200e-01 1.665132e-01 1.321024e-01 1.119809e-01 7.547299e-02 1.068133e-01 1.694386e-01 1.028222e-01 6.358377e-02 4.702010e-02 3.734014e-02 5.261182e-02 4.924371e-02 5.013156e-02 5.133256e-02 5.492093e-02 5.977137e-02 6.231693e-02 6.860738e-02 6.412415e-02 6.951802e-02 6.724092e-02 6.931554e-02 7.224646e-02 6.881300e-02 7.282840e-02 6.987440e-02 7.293367e-02 6.981469e-02 7.058073e-02 6.950091e-02 6.877731e-02 6.749203e-02 6.606997e-02 6.375884e-02 6.272155e-02 6.060962e-02 6.138071e-02 5.839669e-02 5.950495e-02 5.736717e-02 5.881394e-02 5.853071e-02 5.674418e-02 5.762744e-02 5.487293e-02 5.863834e-02 5.775587e-02 5.746783e-02 5.892546e-02 5.987681e-02 6.356771e-02 6.382306e-02 6.366470e-02 6.329140e-02 6.193802e-02 6.256158e-02 5.886177e-02 6.049727e-02 5.977258e-02 6.135856e-02 5.919854e-02 5.784328e-02 5.611690e-02 5.520312e-02 5.488378e-02 
5.956035e-02 6.100037e-02 6.176494e-02 6.448996e-02 6.595012e-02 6.932847e-02 7.077823e-02 7.274143e-02 7.380240e-02 7.606806e-02 7.833416e-02 8.139895e-02 8.625292e-02 8.619420e-02 8.611547e-02 8.613625e-02 8.606102e-02 8.609085e-02 8.595848e-02 8.608132e-02 8.605533e-02 8.616198e-02 7.755926e-02 7.656411e-02 7.181362e-02 7.163459e-02 6.907745e-02 6.874236e-02 6.762507e-02 6.848849e-02 6.753991e-02 6.806965e-02 6.674840e-02 6.616792e-02 6.614935e-02 6.446253e-02 6.472671e-02 6.399874e-02 6.577694e-02 6.568735e-02 6.583111e-02 6.351756e-02 6.390014e-02 6.382636e-02 6.363522e-02 6.478975e-02 6.541499e-02 6.525043e-02 6.824565e-02 6.786537e-02 7.098230e-02 7.509505e-02 8.096512e-02 8.876951e-02 1.075298e-01 1.159098e-01 1.609559e-01 1.536567e-01 9.742533e-02 1.161905e-01 9.254712e-02 8.540154e-02 7.963572e-02 2.746571e-02 2.780561e-02 5.160318e-02 5.532301e-02 5.170536e-02 8.160350e-02 1.141543e-01 1.173132e-01 1.350380e-01 1.350590e-01 1.220224e-01 1.164380e-01 1.071930e-01 1.023396e-01 9.566527e-02 9.287148e-02 8.811633e-02 8.700281e-02 8.161376e-02 8.254081e-02 8.014701e-02 8.044143e-02 8.047379e-02 7.834975e-02 7.904496e-02 7.664925e-02 7.708183e-02 7.442205e-02 7.486090e-02 7.336982e-02 7.376758e-02 7.203912e-02 7.155499e-02 6.884238e-02 6.818897e-02 6.579746e-02 6.623860e-02 6.428362e-02 6.474866e-02 6.363459e-02 6.400028e-02 6.296207e-02 6.202629e-02 6.125436e-02 6.027381e-02 6.156386e-02 6.192809e-02 6.245698e-02 6.371898e-02 6.469351e-02 6.644004e-02 6.672886e-02 6.665458e-02 6.668144e-02 6.611111e-02 6.654262e-02 6.486353e-02 6.572352e-02 6.486290e-02 6.531917e-02 6.294460e-02 6.197918e-02 6.046278e-02 5.968244e-02 5.964094e-02 
5.436357e-02 5.562236e-02 5.727091e-02 6.000178e-02 6.267197e-02 6.618123e-02 6.823390e-02 6.989116e-02 7.139312e-02 7.323383e-02 7.561048e-02 7.783564e-02 8.284564e-02 8.247717e-02 8.274070e-02 8.267048e-02 8.286611e-02 8.290844e-02 8.297311e-02 8.289926e-02 8.280076e-02 8.365770e-02 7.544597e-02 7.373578e-02 6.863867e-02 6.687486e-02 6.409965e-02 6.390160e-02 6.353533e-02 6.387030e-02 6.446056e-02 6.420231e-02 6.334334e-02 6.196938e-02 6.098903e-02 6.025393e-02 6.082281e-02 6.154450e-02 6.340938e-02 6.293889e-02 6.368464e-02 6.182231e-02 6.240474e-02 6.093377e-02 6.224978e-02 6.294163e-02 6.481922e-02 6.620698e-02 6.896428e-02 7.083656e-02 7.415060e-02 7.768063e-02 8.297267e-02 8.755529e-02 9.552776e-02 9.963145e-02 1.082145e-01 1.134621e-01 1.112617e-01 1.147698e-01 1.110997e-01 1.121571e-01 1.130414e-01 1.169561e-01 1.159293e-01 1.152009e-01 1.162114e-01 1.165782e-01 1.138017e-01 1.068898e-01 1.021696e-01 9.864199e-02 9.640850e-02 9.150451e-02 8.771602e-02 8.249921e-02 7.916627e-02 7.484148e-02 7.352378e-02 7.038759e-02 7.139882e-02 6.922485e-02 7.153248e-02 7.138658e-02 7.261395e-02 7.373053e-02 7.301716e-02 7.371985e-02 7.094114e-02 7.088008e-02 6.823240e-02 6.837620e-02 6.761611e-02 6.797470e-02 6.690422e-02 6.605276e-02 6.407715e-02 6.394531e-02 6.169563e-02 6.250069e-02 6.046214e-02 6.151730e-02 5.975433e-02 5.938173e-02 5.801204e-02 5.623996e-02 5.588802e-02 5.474349e-02 5.576811e-02 5.626794e-02 5.810402e-02 6.003748e-02 6.149554e-02 6.276617e-02 6.305893e-02 6.270602e-02 6.323872e-02 6.204278e-02 6.364606e-02 6.245540e-02 6.413393e-02 6.233564e-02 6.238392e-02 5.973736e-02 5.769620e-02 5.570103e-02 5.453850e-02 5.413593e-02 
5.415975e-02 5.616634e-02 5.785096e-02 6.228706e-02 6.583999e-02 7.325417e-02 7.481750e-02 7.398595e-02 7.403814e-02 7.535922e-02 7.261179e-02 7.412176e-02 7.155168e-02 7.204168e-02 7.192899e-02 7.208304e-02 7.232680e-02 7.241559e-02 7.198459e-02 7.189885e-02 7.136750e-02 7.427046e-02 7.318069e-02 7.153588e-02 6.824850e-02 6.381191e-02 6.063556e-02 6.167536e-02 6.439681e-02 6.910274e-02 7.482843e-02 7.655951e-02 7.441997e-02 6.879618e-02 6.186850e-02 5.902658e-02 5.960050e-02 6.479855e-02 7.176129e-02 7.413804e-02 7.456540e-02 6.939211e-02 6.602229e-02 6.095875e-02 6.253094e-02 6.547267e-02 6.943077e-02 7.232136e-02 7.389914e-02 7.344041e-02 7.423192e-02 7.661514e-02 8.157970e-02 8.679508e-02 9.380305e-02 9.786137e-02 1.040099e-01 1.066188e-01 1.018687e-01 1.044712e-01 9.497872e-02 9.130394e-02 8.504264e-02 8.196479e-02 8.490143e-02 9.077347e-02 9.680084e-02 1.031328e-01 1.103815e-01 1.192378e-01 1.244937e-01 1.292206e-01 1.290258e-01 1.245430e-01 1.196837e-01 1.144331e-01 1.105732e-01 1.046530e-01 9.963927e-02 9.194199e-02 8.856956e-02 8.391713e-02 8.613684e-02 8.701227e-02 8.753677e-02 8.744718e-02 8.554474e-02 8.412161e-02 7.949545e-02 7.622309e-02 7.134041e-02 7.117377e-02 7.320228e-02 7.697989e-02 7.754984e-02 7.555419e-02 7.142643e-02 6.942688e-02 6.525207e-02 6.573443e-02 6.444068e-02 6.805575e-02 6.837385e-02 6.793344e-02 6.339157e-02 5.823393e-02 5.565346e-02 5.449524e-02 5.582485e-02 5.780868e-02 6.197367e-02 6.742110e-02 7.022708e-02 7.097884e-02 6.850853e-02 6.730073e-02 6.779922e-02 6.682542e-02 6.918494e-02 7.072807e-02 7.413796e-02 7.284060e-02 7.226910e-02 6.557966e-02 6.032837e-02 5.691911e-02 5.462715e-02 5.432508e-02 
4.201581e-02 4.465155e-02 4.947289e-02 5.715413e-02 6.902375e-02 7.867384e-02 7.442648e-02 7.226108e-02 6.818143e-02 6.948224e-02 6.291630e-02 5.903538e-02 5.238081e-02 5.359668e-02 5.380467e-02 5.418445e-02 5.483494e-02 5.575908e-02 5.616835e-02 5.486010e-02 5.353114e-02 5.361836e-02 6.184586e-02 6.556847e-02 6.601853e-02 5.504999e-02 5.131082e-02 5.533466e-02 6.172734e-02 6.562387e-02 7.452724e-02 7.257362e-02 7.024211e-02 6.592484e-02 5.813597e-02 5.418620e-02 5.622624e-02 7.099417e-02 7.582279e-02 7.147972e-02 7.024237e-02 6.644818e-02 6.418242e-02 5.331162e-02 5.753701e-02 6.217028e-02 6.424721e-02 6.640499e-02 6.959483e-02 7.187847e-02 7.041255e-02 7.635830e-02 8.267184e-02 8.804058e-02 9.472211e-02 9.942788e-02 1.056180e-01 1.050623e-01 1.070205e-01 1.103275e-01 1.051929e-01 1.054232e-01 1.003900e-01 1.068753e-01 1.088122e-01 1.083315e-01 1.080997e-01 1.090474e-01 1.118399e-01 1.134873e-01 1.122730e-01 1.043740e-01 1.001779e-01 9.505632e-02 8.625529e-02 8.206982e-02 7.780183e-02 7.230595e-02 6.996621e-02 6.495185e-02 6.629244e-02 6.103611e-02 6.851566e-02 7.198018e-02 7.571979e-02 8.250394e-02 8.537613e-02 8.512752e-02 7.473541e-02 6.905517e-02 6.025603e-02 5.906149e-02 6.688463e-02 7.141868e-02 7.182768e-02 6.632235e-02 6.357924e-02 6.470805e-02 6.033505e-02 6.403842e-02 6.250176e-02 6.872706e-02 6.449342e-02 6.272130e-02 6.237370e-02 5.345394e-02 4.911835e-02 4.411107e-02 4.454776e-02 4.801004e-02 5.774168e-02 6.562544e-02 6.830411e-02 7.141917e-02 6.850148e-02 6.443761e-02 6.201472e-02 5.741472e-02 6.461507e-02 6.713272e-02 7.442072e-02 7.094496e-02 7.249820e-02 7.267682e-02 5.750904e-02 4.881084e-02 4.323159e-02 4.186563e-02 
3.571683e-02 4.034580e-02 4.863398e-02 6.061832e-02 7.355508e-02 6.039448e-02 4.119769e-02 4.855231e-02 3.614450e-02 4.104102e-02 3.971307e-02 3.418624e-02 2.835214e-02 3.039344e-02 2.830666e-02 2.458669e-02 2.803579e-02 2.602945e-02 2.057783e-02 1.563726e-02 1.397308e-02 2.162173e-02 2.966385e-02 4.580439e-02 6.183766e-02 5.774863e-02 5.361878e-02 5.890575e-02 5.425390e-02 4.577471e-02 3.915255e-02 2.732734e-02 4.144322e-02 4.621176e-02 4.987883e-02 5.996843e-02 6.630777e-02 7.276848e-02 4.627882e-02 3.362480e-02 3.618138e-02 3.936513e-02 4.929804e-02 4.426230e-02 5.215784e-02 4.653802e-02 3.797398e-02 3.297528e-02 3.774077e-02 4.770585e-02 5.155310e-02 6.363807e-02 6.623987e-02 6.276398e-02 6.281619e-02 6.093077e-02 5.817650e-02 5.029365e-02 4.439739e-02 4.567879e-02 4.484764e-02 5.182443e-02 5.386283e-02 6.501827e-02 5.907534e-02 5.064380e-02 4.912989e-02 5.327901e-02 6.232930e-02 6.358264e-02 5.651069e-02 4.621349e-02 3.964811e-02 4.296708e-02 3.190392e-02 2.271862e-02 1.825850e-02 1.400123e-02 1.371085e-02 1.098733e-02 2.337979e-02 2.198505e-02 3.633285e-02 3.180169e-02 3.911798e-02 4.468382e-02 4.708386e-02 5.821507e-02 5.829866e-02 5.390236e-02 4.599171e-02 3.820865e-02 4.266861e-02 3.096999e-02 2.651364e-02 2.982372e-02 2.727939e-02 4.035903e-02 4.527373e-02 5.552821e-02 5.263063e-02 5.158721e-02 4.318881e-02 3.940788e-02 5.426596e-02 5.582514e-02 5.736969e-02 4.860096e-02 4.179488e-02 4.251287e-02 5.317888e-02 4.761295e-02 3.849188e-02 3.388158e-02 4.070961e-02 3.540429e-02 3.187943e-02 1.938058e-02 3.142674e-02 2.835882e-02 2.295436e-02 2.437938e-02 2.570221e-02 6.045218e-02 5.989363e-02 4.630759e-02 3.615695e-02 3.502862e-02 
9.074588e-03 1.731833e-02 2.583566e-02 4.015179e-02 4.498418e-02 2.759391e-02 3.605223e-02 2.866146e-02 3.296474e-02 2.917560e-02 2.972881e-02 2.573411e-02 1.911112e-02 1.957041e-02 2.902202e-02 2.882992e-02 2.947418e-02 3.752589e-02 4.258260e-02 3.924050e-02 3.285926e-02 3.179100e-02 3.794845e-02 2.919448e-02 1.725956e-02 9.989878e-03 1.573666e-02 9.008511e-03 2.545074e-02 2.508873e-02 3.718760e-02 4.910998e-02 3.591841e-02 2.672204e-02 3.953517e-02 2.153255e-02 1.624420e-02 1.013089e-02 5.541111e-02 5.851004e-02 4.294106e-02 2.671285e-02 1.437233e-02 6.560041e-03 9.490470e-03 1.989756e-02 2.583415e-02 2.304159e-02 2.983965e-02 2.146551e-02 1.963035e-02 2.584800e-02 1.273015e-02 1.998177e-02 2.492539e-02 2.911778e-02 3.585614e-02 3.973776e-02 3.248427e-02 3.018613e-02 1.912520e-02 1.300739e-02 1.733958e-02 1.719900e-02 1.587885e-02 2.128548e-02 2.924460e-02 4.557526e-02 5.554754e-02 5.297573e-02 6.462273e-02 7.253042e-02 6.904473e-02 7.347470e-02 7.715921e-02 7.781853e-02 8.241822e-02 7.390133e-02 6.559882e-02 6.109244e-02 5.092486e-02 4.399152e-02 5.131334e-02 5.878137e-02 7.025685e-02 7.226760e-02 5.797635e-02 5.180438e-02 4.841285e-02 3.308764e-02 2.762943e-02 1.898220e-02 2.924695e-02 4.261503e-02 4.947401e-02 3.929147e-02 4.093004e-02 3.239725e-02 2.740116e-02 1.557998e-02 9.744196e-03 2.558466e-02 3.959829e-02 1.928572e-02 9.893329e-03 6.369865e-03 1.797461e-02 2.812975e-02 1.773769e-02 2.188163e-03 1.554439e-02 3.139356e-02 4.207930e-02 4.567432e-02 3.440265e-02 3.879903e-02 4.390217e-02 3.452909e-02 4.027896e-02 4.839448e-02 5.640376e-02 5.430491e-02 5.601023e-02 2.827010e-02 3.665991e-02 1.834308e-02 8.886570e-03 4.916194e-03 
8.950693e-03 9.861880e-03 9.647519e-03 1.362321e-02 1.792516e-02 2.943721e-02 2.014779e-02 2.250825e-02 1.420709e-02 1.948498e-02 8.896168e-03 4.883338e-03 8.020130e-03 1.812007e-02 2.493190e-02 2.356053e-02 2.097437e-02 2.355946e-02 2.346318e-02 2.942674e-02 2.888127e-02 1.679559e-02 1.825963e-02 2.032670e-02 1.091572e-02 1.037192e-02 4.148292e-03 1.311947e-02 3.757990e-02 3.992876e-02 3.087113e-02 1.479590e-02 1.455664e-02 3.950590e-02 4.375724e-02 1.698396e-02 1.608932e-02 4.382919e-02 5.644306e-02 3.583547e-02 7.127579e-03 2.249694e-02 2.383087e-02 1.212606e-02 1.106955e-02 2.334595e-02 2.104829e-02 5.467396e-03 2.069828e-02 2.443989e-02 2.194939e-02 2.533570e-02 2.882316e-02 2.989461e-02 3.515498e-02 3.760658e-02 3.995587e-02 3.184730e-02 2.993250e-02 3.305243e-02 3.921470e-02 4.689269e-02 5.509096e-02 6.741046e-02 7.149552e-02 6.325395e-02 5.617324e-02 4.510875e-02 3.991822e-02 2.571543e-02 2.687995e-02 3.477598e-02 3.297679e-02 3.104347e-02 3.778948e-02 3.249577e-02 3.041434e-02 2.209717e-02 2.513935e-02 3.388272e-02 2.239911e-02 7.814851e-03 7.446307e-03 1.398204e-02 3.108921e-02 4.078723e-02 4.034625e-02 3.602089e-02 2.164303e-02 1.953253e-02 1.202704e-02 1.514486e-02 2.432897e-02 2.371858e-02 1.311360e-02 1.056491e-02 2.982763e-02 2.975661e-02 2.501169e-02 1.982687e-02 1.733102e-02 2.748066e-02 2.224129e-02 1.155015e-02 2.369627e-02 1.542002e-02 5.769792e-03 1.711303e-02 1.950332e-02 1.766058e-02 2.074761e-02 1.839094e-02 1.367333e-02 2.352899e-02 2.148936e-02 2.017352e-02 2.148685e-02 9.251249e-03 1.586809e-02 1.708098e-02 1.964955e-02 1.354437e-02 3.294772e-02 3.114405e-02 5.885328e-03 3.613830e-03 6.033977e-03 8.600252e-03 
4.157691e-03 5.279509e-03 5.976972e-03 7.236015e-03 9.007385e-03 9.634932e-03 3.262097e-03 9.851347e-03 3.122754e-03 1.278766e-02 1.381416e-02 2.063983e-02 2.656390e-02 2.426160e-02 1.141914e-02 2.384273e-03 2.129014e-04 9.577113e-03 1.064560e-02 1.526578e-02 2.130037e-02 2.015623e-02 8.040237e-03 4.855961e-03 5.856149e-03 6.062014e-03 8.955107e-03 1.215425e-02 1.774884e-02 2.014425e-02 1.845134e-02 1.870327e-02 1.611724e-02 1.765282e-02 1.445143e-02 1.189548e-02 1.705641e-02 2.469706e-02 2.381437e-02 1.830344e-02 1.106002e-02 4.850972e-03 9.122816e-03 7.867424e-03 1.134191e-02 9.196718e-03 9.657916e-03 3.526767e-03 3.856677e-03 9.123519e-03 1.424086e-02 2.104746e-02 3.095296e-02 2.960381e-02 3.483663e-02 3.220442e-02 2.398471e-02 9.447727e-03 1.315690e-02 2.183880e-02 2.715937e-02 3.647206e-02 4.076375e-02 2.194438e-02 1.582833e-02 2.079760e-02 3.472170e-02 5.521368e-02 8.315606e-02 9.097263e-02 6.913908e-02 3.530859e-02 3.498789e-02 4.747434e-02 6.296821e-02 6.216734e-02 5.737049e-02 5.029660e-02 3.837604e-02 2.999571e-02 1.852820e-02 1.613175e-02 1.186107e-02 1.193451e-02 1.095805e-02 8.325557e-03 6.958261e-03 8.238206e-03 3.139831e-03 6.466679e-03 5.040363e-03 7.326197e-03 8.803323e-03 1.125181e-02 1.084486e-02 1.396415e-02 1.360315e-02 1.228528e-02 1.143231e-02 1.148301e-02 6.395679e-03 7.782812e-03 6.541113e-03 7.771506e-03 8.411316e-03 5.268390e-03 1.104068e-02 9.907379e-03 1.122693e-02 1.034144e-02 1.357195e-02 1.022677e-02 5.260287e-03 3.109106e-03 3.458391e-03 4.293210e-03 5.351607e-03 6.906811e-03 5.072645e-03 1.012577e-02 7.230219e-03 1.137001e-02 1.793899e-02 1.234850e-02 5.396108e-03 5.026933e-03 3.798121e-03 4.367236e-03 
