# vtk DataFile Version 2.0
Comment goes here
ASCII

DATASET STRUCTURED_POINTS
FIELD FieldData 1
TIME 1 1 double
0.09600000
DIMENSIONS    64   64   1

ORIGIN    0.000   0.000   0.000
SPACING   0.03125 0.03125   1.000

POINT_DATA   4096
SCALARS uX double
LOOKUP_TABLE default

-1.412526e+02 5.983836e+01 -4.178384e+00 7.134323e+01 6.884532e+01 1.224898e+01 7.052461e+01 -3.921957e+01 3.244390e+01 2.284792e+01 -7.274912e+01 5.667670e+00 4.432721e+00 3.932641e+01 1.161060e+01 -4.242613e+00 -8.075276e+00 3.444512e+01 -5.017963e+01 -3.525574e+01 3.693433e+00 -1.314028e+02 3.240333e+01 -7.743068e+01 -2.610959e+01 -5.364782e+01 -1.034419e+02 -6.443632e+01 3.091305e+01 -8.728636e+01 -6.759160e+01 3.925213e+01 -2.486970e+01 -2.614076e+01 1.699352e+00 -2.614738e+01 3.690006e+01 -2.936026e+01 5.085661e+01 -9.751090e+00 1.983688e+01 6.769364e+01 9.085017e+00 2.141815e+01 2.995038e+01 7.528810e+01 -3.817703e+01 1.572531e+01 -4.101235e+00 1.533364e+01 3.566257e+01 9.391086e+01 -1.263602e+02 9.027591e+01 -1.264373e+02 3.967568e+01 7.390957e+01 -6.799955e+01 1.296839e+02 -1.414165e+02 -2.772350e+01 6.344911e+00 -1.245654e+02 2.975454e+01 
1.376279e+01 -5.822221e+01 5.649217e+01 -1.294615e+02 2.536164e+01 -4.590940e+01 2.367710e+01 3.914610e+01 8.236851e+00 2.956736e+01 4.551096e+00 8.324702e+01 -7.582768e+01 -3.057410e+01 1.350181e+01 -4.807870e+01 2.973471e+01 2.562604e+01 -2.977649e+01 1.385717e+01 8.529150e+01 5.929858e+01 1.003306e+02 -3.542767e+00 4.853692e+01 8.849056e+01 -8.287389e+00 4.250939e+01 4.582808e+01 8.578173e+00 9.526510e+01 1.891822e+01 -1.593413e+00 7.437990e+00 -1.266024e+01 7.726586e+00 -4.650271e+01 -5.332411e+01 4.670456e+00 -2.139912e+01 -6.623971e+01 -4.790819e+01 -2.440340e+01 -3.658671e+01 -9.935122e+01 2.221865e+01 -6.590619e+01 8.291259e+01 -5.232658e+01 6.216339e+01 -7.106350e+01 -1.283921e+01 1.641149e+01 -1.022116e+01 6.801667e+01 -2.837550e+01 -7.140395e+01 9.797896e+01 -6.170770e+00 5.075032e+01 -1.058107e+01 1.268661e+02 -1.176489e+02 1.324312e+02 
-2.332989e+01 1.132475e+02 -1.982036e+02 3.216339e+01 1.580706e+01 3.620621e+01 -1.754087e+02 -4.727961e+01 -1.742452e+02 -7.353400e+01 7.246341e+01 -1.523674e+01 -7.843182e+00 -4.777090e+01 9.158051e+00 8.210699e+00 1.563182e+00 3.337238e+01 -6.689630e+00 -3.873201e+01 -7.315389e+00 -8.054955e+01 -6.208710e+01 -7.638811e+01 -1.971397e+00 1.019285e+01 -2.054523e+01 -4.636584e+00 -7.321971e+01 -1.972076e+00 -3.330261e+01 -9.752889e+01 -6.907828e+01 4.716334e+01 -6.306050e+01 1.325686e+02 -1.662745e+01 1.475743e+02 3.147092e+01 1.265713e+02 5.926268e+01 1.336409e+02 4.230089e+01 1.388771e+02 -2.472693e+01 5.837024e+01 4.147697e+01 5.724118e+01 -6.741198e+01 -9.519835e+01 9.504593e+01 -9.400590e+01 1.239078e+02 -1.031733e+02 9.091724e+01 1.045264e+01 -2.088734e+01 -9.329326e+01 -2.274109e+02 1.162036e+02 -1.182827e+02 1.790590e+02 -1.565427e+02 3.657350e+02 
-1.911699e+02 6.898364e+01 -3.249720e+01 3.604251e+02 1.006172e+02 3.087143e+02 1.634846e+02 1.194730e+02 1.480639e+02 -9.369986e+01 -7.374274e+01 -7.876420e+01 4.551630e+01 6.013517e+01 6.459105e+01 1.702593e+02 1.500879e+02 2.289712e+02 1.714136e+02 4.101285e+01 -1.397244e+01 -1.238930e+02 -5.573054e+01 -7.103774e+01 -6.341094e+01 -1.656335e+02 -1.183269e+02 -1.381602e+02 -1.639978e+02 -1.999655e+02 -1.866861e+02 -2.103433e+02 -6.733661e+01 -8.791393e+00 -9.183083e+01 5.730928e+01 -2.223796e+01 1.088954e+02 -9.538189e-02 1.797909e+02 2.424170e+02 8.578044e+01 6.858333e+01 2.192868e+02 8.261436e+01 1.880842e+02 9.679605e+01 4.064710e+01 1.601656e+01 -1.015560e+01 6.410749e+01 7.410813e+01 3.162841e+01 1.888686e+01 1.221389e+02 1.003476e+02 -5.325694e+01 9.311909e+01 -2.246914e+02 -8.206882e+01 -6.462891e+01 -2.325153e+02 -3.516356e+00 1.669407e+02 
7.232305e+00 3.178177e+02 3.350295e+02 2.982572e+02 5.413111e+01 1.884279e+02 3.000246e+02 1.217720e+02 5.610626e+01 -3.884691e+01 -1.781660e+02 -5.533819e+01 7.553512e+00 7.849157e+01 2.063776e+01 1.171781e+02 5.800580e+01 1.776305e+02 1.965394e+02 1.116549e+02 2.102739e+02 2.120289e+02 2.710472e+02 2.735807e+02 1.533903e+02 7.653392e+01 -2.648161e+01 -8.023235e+01 -3.232340e+01 -8.551976e+01 -6.622531e+01 -1.202168e+02 1.937051e+01 -1.120270e+01 1.779257e+01 1.321765e+01 1.178888e+01 6.202470e+01 4.830975e+01 1.742913e+02 1.931854e+02 1.532508e+02 -4.401564e+01 1.416676e+02 2.537426e+02 1.415066e+02 1.770774e+02 1.842384e+02 9.405103e+01 1.903558e+02 5.414406e+01 1.429861e+02 1.444493e+02 2.447528e+02 1.371069e+02 -2.830526e+01 9.361484e+01 1.289888e+02 6.892877e+00 2.478588e+02 6.363520e+01 1.838283e+02 -6.380245e+00 -6.590364e+01 
3.811123e+02 2.161335e+02 6.402760e+01 2.052701e+02 5.857309e+00 2.179156e+02 2.550625e+02 4.620951e+01 -6.658706e+01 1.300040e+02 9.923246e+01 -6.600216e+01 1.205788e+02 -8.901374e+00 6.603734e+01 1.572022e+02 2.091632e+01 -7.009379e+01 -1.290339e+01 -1.298224e+02 -2.819826e+01 -2.373881e+01 4.813370e+00 7.475177e+01 1.284797e+01 -8.035052e+00 -1.319984e+02 -1.331644e+02 -4.598874e+01 -2.548781e+01 3.348198e+01 -1.353126e+01 7.042069e+01 -1.146031e+02 1.530612e+02 4.952222e+01 1.433250e+02 8.085473e+01 2.040443e+02 1.477202e+02 1.172197e+02 2.826810e+02 1.438050e+02 2.274119e+02 1.854153e+02 9.966904e+01 3.187948e+01 9.909274e+01 -1.052295e+02 3.164813e+01 -1.018423e+02 -1.198264e+01 -1.120994e+02 -1.994861e+02 -3.197894e+02 -1.161549e+02 -6.399818e+01 -1.963579e+02 1.567529e+02 5.730370e+01 2.592779e+02 3.333992e+02 3.248908e+02 -3.101257e+01 
4.326626e+02 1.634584e+02 -1.334834e+02 6.082835e+00 8.541838e+01 1.832318e+01 1.885027e+02 1.359622e+02 1.868589e+02 3.379910e+02 2.139630e+02 9.837133e+01 8.571372e+01 1.889515e+02 2.419089e+02 3.236817e+02 3.170049e+02 -6.867759e+01 -2.101006e+01 -8.784613e+01 3.198811e+01 -5.463256e+01 1.632488e+01 -1.308070e+01 -6.196950e+01 -1.031192e+02 -2.488261e+00 -1.076696e+01 -5.230203e+01 9.927274e+00 9.681609e+01 4.867552e+01 7.910894e+01 -3.676425e+01 2.781741e+00 4.319287e+01 7.809447e+01 6.619625e+01 1.795681e+02 1.281125e+02 8.383866e+01 3.972003e+01 2.380847e+02 1.256749e+02 1.788911e+02 3.436582e+02 -8.339768e+01 1.591806e+02 5.923885e+01 4.047878e+01 -4.512352e+01 3.071141e+01 -5.579851e+01 -3.806951e+01 -1.113034e+02 -1.285260e+01 -2.732262e+02 1.083850e+02 -1.955841e+02 6.285874e+01 1.733559e+02 -1.045919e+01 -1.798994e+01 5.363274e+01 
1.844817e+02 1.723891e+01 -1.626975e+02 -2.132780e+01 4.755685e+01 8.008002e+01 -3.843892e+01 1.786502e+02 3.623001e+02 3.575005e+02 9.651225e+01 2.988396e+02 1.394661e+02 -2.618091e-01 -7.219039e+01 1.128511e+02 5.103693e+01 1.291505e+01 -7.909762e+01 4.541534e+01 1.130515e+02 6.337758e+01 9.894151e+01 1.540743e+01 1.140116e+02 2.582922e+02 2.788175e+02 1.788959e+02 1.627972e+02 2.542875e+02 1.862651e+02 1.553806e+02 1.116401e+02 2.108379e+02 5.746206e+01 3.048849e-01 9.293751e+01 2.013302e+01 4.785909e+01 9.173582e+00 -5.996326e+01 -4.270727e+01 2.101944e+02 6.302417e+01 9.935638e+01 7.666853e+01 1.181022e+02 9.895814e+01 3.649300e+00 -1.929296e+01 -1.569742e+02 2.847915e+02 1.919137e+01 5.202380e+02 6.019754e+01 3.817151e+02 2.199998e+02 4.599320e+02 -1.027539e+02 2.438296e+02 5.363816e+01 1.382938e+02 -1.179868e+01 2.382143e+02 
1.680273e+01 -2.699962e+02 -2.093270e+01 2.429472e+02 8.287313e-01 3.142366e+02 -2.665595e+02 1.127418e+02 1.623276e+02 3.358052e+01 1.089521e+02 8.389527e+00 -1.399545e+02 -1.405990e+02 -7.847304e+01 1.200681e+01 5.650658e+01 7.196960e+01 2.047756e+02 1.645391e+02 9.352996e+01 1.860669e+02 8.171352e+01 1.019474e+02 2.421734e+02 3.087055e+02 2.880287e+02 3.796526e+02 3.648614e+02 2.427722e+02 -2.000382e+01 1.059075e+02 1.525525e+02 2.695174e+02 3.491386e+02 1.577178e+02 2.083546e+02 3.357364e+01 1.469622e+02 3.825341e+01 1.624787e+02 2.242782e+02 4.805601e+01 4.877487e+01 -1.788439e+02 -4.227614e+01 1.185823e+02 2.802498e+01 -2.476536e+01 1.647846e+02 -9.186383e+01 2.362483e+02 -6.866985e+01 2.452328e+02 2.078183e+01 4.449854e+02 3.293267e+02 3.205241e+02 3.333459e+02 4.186487e+02 9.232036e+01 6.162916e+00 3.691294e+02 2.030657e+00 
-1.382842e+02 5.020703e+00 6.004085e+02 1.325448e+02 2.779607e+01 5.662506e+01 2.232276e+01 3.249198e+02 1.664827e+02 1.034718e+02 1.609396e+02 6.084912e+01 -1.251997e+01 7.819508e+00 -6.180391e+01 -3.074540e+02 -8.835483e+01 -4.005382e+01 1.710063e+01 2.185156e+01 3.240646e+01 9.570434e+01 9.138339e+01 1.485922e+02 1.450246e+02 9.785389e+01 1.013213e+02 2.234373e+02 1.605565e+02 9.749687e+01 1.761789e+02 1.962212e+02 4.551588e+01 4.893172e+01 3.039055e+01 1.056765e+02 1.425098e+02 1.169833e+02 2.013942e+02 1.600239e+02 1.314246e+02 1.601944e+02 2.222781e+00 1.442096e+02 7.698440e+01 1.084165e+02 9.297543e+01 1.992976e+02 6.928489e+01 2.078261e+02 1.908481e+02 -6.366666e+01 1.096976e+02 -1.244666e+02 1.167608e+02 2.537241e+02 -9.588052e+01 1.566428e+02 1.201141e+01 6.799922e+01 -1.847008e+02 -2.302041e+00 2.066327e+02 -1.565810e+01 
3.181964e+01 3.835132e+02 4.829032e+01 -1.990435e+02 -2.744025e+01 -1.751135e+02 8.797144e+01 -7.461592e+01 -1.876311e+01 1.000942e+02 -8.333038e+00 3.280829e+02 2.579365e+02 1.926458e+02 2.234378e+02 -1.800600e+02 -2.048840e+02 1.267748e+01 -1.693313e+02 9.172239e+01 -3.811226e+01 8.132343e+01 2.541792e+01 3.960268e+01 -4.435620e+00 4.745060e+01 1.319726e+01 -1.131852e+01 -5.049199e+01 -2.991653e+01 1.903499e+02 7.452774e+01 3.276748e+01 1.728033e+00 -3.552911e+01 -6.692320e+01 5.585187e+01 6.006460e+01 1.997019e+01 -3.936799e+01 -9.057078e+01 -5.777377e+01 -1.033770e+02 8.721382e+01 -9.241325e+00 1.643442e+02 -3.265901e+01 1.781633e+02 4.811925e+01 2.268964e+01 2.199128e+02 -1.412751e+01 3.638520e+02 1.495660e+02 3.527918e+01 2.638867e+02 1.904953e+02 3.703529e+02 4.082006e+02 9.447797e+01 2.379526e+01 2.742817e+02 9.409072e+01 2.600834e+02 
2.174595e+02 4.046927e+02 4.486356e+01 1.679797e+01 2.580557e+01 2.013671e+01 -9.285201e+01 -3.981244e+01 -2.718644e+02 3.743392e+01 9.945162e+00 2.124359e+02 3.009470e+02 3.999042e+02 3.531310e+02 -1.723384e+01 -3.392798e+01 -7.383265e+01 2.077602e+01 1.600959e+00 2.614365e+01 2.644422e+01 -2.724142e+01 -6.989697e+01 -8.065939e+01 -4.075163e+01 -2.666877e+01 2.609934e+01 -3.576760e+01 -1.661595e+01 -5.912701e+01 -1.993740e+00 6.914522e+01 8.185451e+01 2.046030e+02 5.077393e+01 3.165356e+01 2.314934e+01 1.540808e+01 -8.899453e+01 8.466813e+01 8.216991e+01 1.126249e+02 -3.048676e+01 -1.421258e+01 1.355152e+02 -7.970110e+01 6.489187e+00 3.296824e+02 1.782488e+02 1.518946e+02 7.332419e+01 6.565780e+01 2.575188e+02 3.361761e+02 -6.445313e+01 2.429483e+02 -1.428116e+02 5.445785e+02 4.394738e+01 2.481659e+02 2.212560e+02 1.054108e+02 4.051145e+02 
-1.402652e+02 -1.452389e+02 2.843022e+02 -9.410528e+01 -3.158275e+01 -1.862562e+02 -2.803635e+02 -4.439639e+01 -1.753317e+02 -1.005635e+02 1.822452e+02 8.237716e+01 4.113321e+02 9.460196e+01 6.299070e-01 -1.014954e+02 -3.866316e+01 -6.429400e+01 7.555831e+01 3.029005e+01 -4.530143e+01 -5.626157e+01 -6.232120e+01 -4.717111e+01 -3.992967e+01 5.889230e+00 6.006498e-02 -7.666156e+00 -1.291371e+00 4.141290e+01 6.219515e+01 7.556154e+01 3.027206e+01 -5.620620e-01 3.474813e+01 6.692452e+01 -9.182636e+01 3.432981e+01 -7.800687e+01 5.811133e+01 -1.786756e+02 -3.939264e+01 1.681783e+02 1.540334e+01 5.910011e+01 -2.540720e+01 1.415239e+01 1.494307e+02 1.719026e+02 4.181955e+02 1.486667e+02 3.002876e+02 -3.196896e+01 2.551437e+02 1.642768e+02 1.249753e+02 8.993344e+01 -5.325379e+01 1.783102e+02 3.290580e+01 3.645545e+02 4.491915e+01 6.717501e+01 -1.278226e+02 
3.035420e+02 1.387026e+02 1.379888e+02 1.150038e+02 8.899901e+01 6.705559e+01 -1.451276e+01 -1.244334e+02 7.551538e+01 -7.233447e+01 1.781155e+02 4.090632e+01 4.084480e+01 -5.882207e+00 -2.896213e+01 2.147093e+01 2.096205e+00 -2.195019e+01 1.242933e+01 8.041996e+01 -2.668762e+01 -5.700007e+00 6.245050e+00 9.442940e+01 1.117310e+02 7.063242e+01 1.039722e+02 2.362524e+01 4.685895e+01 4.582625e+01 1.790981e+01 8.492826e+01 1.123064e+02 4.708462e+01 3.558340e+00 8.919362e+01 2.736010e+01 1.629318e+02 -2.803095e+01 1.845142e+02 3.451913e+00 -6.012040e+01 8.039709e+01 -2.331128e+01 5.464855e+01 -5.853456e+01 2.393938e+02 4.536978e+01 8.492835e+01 9.586110e+01 3.335396e+02 1.683161e+02 1.755170e+02 6.614790e+01 4.831412e+01 8.839933e+01 7.021932e+01 1.928260e+02 5.343461e+01 6.735818e+01 5.287107e+02 3.072532e+01 2.717360e+02 2.113787e+02 
4.346224e+02 2.680270e+02 -2.935635e+02 2.155664e+02 4.532297e+01 2.150787e+02 1.727376e+02 1.599864e+02 9.996839e+01 5.397180e+01 -7.582648e+01 -1.693948e+01 3.391279e+01 2.148253e+01 -6.002238e+01 4.842538e+01 6.086751e+01 4.645381e+00 3.667275e+01 -1.002956e+01 4.214500e+01 6.063983e+01 3.998706e+01 6.505914e+01 7.805687e+01 2.844121e+01 3.170280e+01 4.517812e+00 3.754064e+01 6.054465e+01 4.126055e+01 1.134995e+01 3.447976e+01 3.505140e+01 -2.335472e+01 -1.932639e+00 1.178595e+02 -6.212654e+01 3.237953e+01 -4.988411e+01 8.535602e+01 -1.095126e+02 2.363766e+01 -1.762289e+01 -3.314530e+01 -2.279042e+01 9.367132e+01 -5.683593e+01 4.794285e+01 -1.303111e+02 6.723094e+00 1.763553e+01 9.301762e+01 1.452072e+00 1.264168e+02 2.431967e+01 8.222527e+01 1.280816e+02 2.176793e+02 1.022448e+02 7.662577e+01 4.247334e+02 2.419183e+02 4.317569e+02 
2.047726e+01 -1.101664e+02 -1.425321e+02 1.707831e+02 3.603816e+01 1.432092e+02 -8.771446e+00 1.134516e+02 -5.009901e+01 1.762045e+02 9.849760e+01 6.645644e+01 -8.066757e+01 -3.091991e+01 -6.267083e+01 1.415541e+02 1.048096e+02 1.392683e+02 9.503429e+01 7.881534e+01 4.608121e+01 5.244262e+01 2.632139e+01 -3.501182e+01 -4.216690e+01 -3.076686e+01 -2.740756e+01 3.545568e+01 7.467745e+01 5.529592e+01 1.191379e+02 1.083607e+01 2.183496e+01 5.885788e+01 6.582829e+01 2.523102e+01 -3.349397e+01 -6.562535e+01 -2.287345e+01 -8.504138e+01 -3.017936e+00 -5.889524e+01 -1.008358e+02 -4.724167e+01 2.206960e+01 -6.484125e+01 -3.085276e+01 -3.880727e+01 -3.324874e+00 1.015136e+02 -9.914684e+01 4.153020e+01 3.340694e+01 8.650413e+01 -2.754260e+01 2.442388e+01 6.191038e+01 6.926476e+01 -2.767287e+01 9.860095e+01 -2.790335e+02 9.448879e+01 -2.983063e+02 2.220443e+01 
5.736148e+01 -3.786625e+02 3.326990e+02 1.885028e+01 2.516112e+01 5.349639e+01 -7.181468e+01 6.300115e+01 1.519703e+02 1.616612e+02 1.506040e+02 1.474507e+02 -1.302785e+02 3.238517e+01 3.811013e+01 1.394143e+02 1.167992e+02 1.278360e+02 5.860326e+01 6.760702e+01 7.254650e+01 2.849588e+01 4.466388e+01 2.634677e+01 -8.867895e+00 -7.524557e+00 9.969920e+00 5.384113e+01 5.153485e+01 4.057212e+01 2.461117e+01 1.046168e+02 -5.115700e+00 -5.521336e+01 4.470452e+00 1.964326e+00 3.437988e+01 3.975456e+01 -2.738293e+01 -3.195123e+01 2.769973e+01 7.677372e+01 6.356211e+01 -3.192232e+01 1.152941e+02 -3.540357e+01 3.485793e+01 -3.170766e+01 8.114828e+01 7.526251e+00 -4.529676e+01 -5.946395e+01 -7.162365e+01 -3.244085e+01 1.477249e+02 -4.489749e+01 1.822303e+01 4.240128e+01 8.624007e+01 -5.388023e+01 5.176076e+01 1.164338e+02 2.747741e+02 -3.955454e+01 
7.469138e+00 -1.499712e+02 1.175691e+02 -1.269450e+02 -8.853904e+01 -6.217497e+01 2.589858e+01 1.249908e+02 1.252442e+02 5.210330e+01 -1.034085e+02 1.833245e-01 -9.341761e+01 3.581466e+01 5.865169e+01 8.670590e+01 6.669352e+01 8.250067e+01 5.006082e+01 5.544438e+01 2.375124e+01 3.505189e+01 1.562168e+01 8.687189e+00 -2.415466e+00 2.289360e+01 4.572362e+01 4.133560e+01 3.204854e+01 4.362292e+01 1.378108e+01 1.201985e+01 2.111199e+01 -2.953590e+01 -3.021262e+01 -2.961627e+01 6.981272e+01 4.406999e+01 9.260669e+01 -2.375992e+01 6.710247e+00 3.106962e+01 5.746057e+01 7.528178e+00 1.040311e+02 1.373075e+02 2.951289e+01 1.125979e+02 5.733858e+01 5.611374e+01 6.096326e+01 1.189876e+02 5.333290e+01 -2.005791e+01 3.788042e+01 6.029750e+01 3.503266e+01 -6.095560e+01 5.103917e+01 3.252483e+02 1.686854e+02 2.261354e+02 -3.718562e+01 -2.806688e+02 
-2.153077e+02 2.679099e+02 -1.374967e+02 -9.763982e+01 -4.374037e+01 -7.085019e+01 1.284064e+02 6.126103e+01 -1.674223e+01 5.899747e+01 9.354981e+00 -7.202820e+01 -6.100362e+01 2.498718e+01 8.480374e+00 5.167000e+01 3.228541e+01 4.185284e+01 4.019629e+01 4.242193e+01 3.466553e+01 2.819732e+01 3.366265e+01 1.377894e+01 1.794095e+01 2.365150e+01 4.321056e+01 4.332151e+01 3.093675e+01 2.121676e+01 2.422268e+01 1.836039e+01 6.824563e+01 5.210397e+01 -1.542530e+01 -3.089354e+01 -1.096644e+02 -2.815010e+01 -6.636877e+01 -3.748928e+01 4.333307e+00 -1.203617e+02 -1.206494e+02 -5.306829e+01 -5.326549e+01 -4.981266e+01 -4.336455e+01 -5.659419e+01 -1.981788e+01 -2.247718e+01 -1.907324e+01 -1.697753e+01 2.207613e+00 -4.253193e+01 -5.944015e+01 -7.510049e+01 2.515971e-01 -1.887383e+02 -2.387647e+02 -3.183422e+01 1.891510e+01 -7.287556e+01 -1.255564e+02 2.487800e+01 
-1.628647e+02 4.296446e+02 -1.531677e+02 4.622953e+01 -3.205296e+01 4.578037e+01 1.918331e+01 -3.635289e+01 -7.371677e+01 -5.573621e+01 -5.619322e+01 -7.493426e+01 -1.839322e+01 -1.149571e+01 1.878238e-01 2.881760e+01 8.373201e+00 3.468888e+01 2.505243e+01 3.476916e+01 2.051180e+01 3.129815e+01 2.742307e+01 3.128585e+01 2.135784e+01 2.612956e+01 2.619242e+01 3.991868e+01 3.625727e+01 3.862380e+01 3.711487e+01 4.189403e+01 3.460742e+01 3.584576e+01 2.216662e+01 5.989253e+01 5.659271e+01 1.428216e+00 -9.534089e-01 7.266020e+00 4.184724e+01 1.724821e+01 -1.969813e+00 1.259751e+01 -3.431414e+01 -1.710455e+01 2.355802e+01 1.475747e+01 -2.273098e+00 4.789012e+01 4.257792e+01 8.668447e+01 3.604801e+01 7.140411e+01 5.246045e+01 3.411182e+01 4.058285e+01 1.059811e+02 -5.856916e+01 -1.675695e+02 -8.852453e+01 -1.958417e+02 2.579999e+02 -2.186342e+02 
9.782317e+01 2.404130e+02 -5.306197e+01 1.551189e+02 -2.331474e+01 1.377675e+02 8.793954e+01 4.886347e+01 -3.701333e+01 -5.358325e+01 -4.482882e+01 -5.893564e+01 -2.332617e+01 -1.505328e+01 -5.096109e+00 2.147568e+01 1.775904e+00 2.699688e+01 2.431158e+01 2.612519e+01 2.182788e+01 2.517102e+01 2.420803e+01 2.506843e+01 2.064449e+01 2.345908e+01 1.762716e+01 2.745663e+01 2.149462e+01 3.952739e+01 4.431768e+01 2.658202e+01 2.447035e+01 2.787993e+01 4.709214e+01 5.399703e+01 5.106839e+01 3.099458e+01 5.108488e+01 3.090692e+01 3.062502e+01 8.449290e+01 8.562316e+01 4.961330e+01 5.235055e+01 -1.119715e+01 2.393194e+01 -2.915963e+01 -4.330848e+01 -2.842219e+01 -3.125751e+01 -5.103186e+01 -6.075602e+01 -7.977669e+01 -5.373573e+01 -6.786130e+01 7.560273e+00 -5.718948e-01 -1.041267e+02 8.015087e+01 -2.731686e+02 -2.569814e+01 -1.256704e+00 -1.171462e+02 
1.110504e+02 -7.519615e+01 4.365971e+01 -4.995207e+00 -3.473412e+01 -1.314847e+01 -5.883114e+01 7.993936e+00 -5.409162e+01 -6.416645e+01 -1.191237e+01 -6.143351e+01 -1.222166e+01 -1.979039e+01 -4.183251e+00 1.250711e+01 3.163476e-03 2.259340e+01 1.474484e+01 2.476451e+01 1.721594e+01 2.533287e+01 2.231014e+01 2.477539e+01 2.226712e+01 2.393818e+01 2.317747e+01 2.924921e+01 2.259507e+01 1.149680e+01 4.104070e+00 1.204543e+01 9.818731e+00 -1.634542e+00 -2.327701e+01 -3.651944e+01 -5.262326e+01 -2.051673e+01 -3.602608e+01 -1.210212e+01 -1.646200e+01 -1.602552e+01 -5.350802e+01 -2.208413e+01 -3.700789e+01 -7.961527e+00 -2.973005e+00 8.321955e+00 2.547566e+01 2.010710e+01 4.300458e+01 3.875087e+01 7.776467e+01 6.902387e+01 5.662352e+01 6.968819e+01 8.049590e+01 5.225543e+01 1.495062e+02 6.335341e+01 -1.329504e+00 2.815010e+01 -1.232593e+02 2.311383e+02 
-2.698562e+02 -1.437740e+02 1.975604e+01 7.772599e+01 -1.996615e+01 6.796398e+01 -5.627938e+01 1.375038e+01 -6.577590e+01 -9.789168e+01 -9.122564e+00 -5.037773e+01 -1.725062e+01 -1.284920e+01 -8.483552e+00 1.169049e+01 -4.720355e-01 1.883132e+01 1.301756e+01 2.014823e+01 1.594847e+01 2.116031e+01 1.848640e+01 2.249670e+01 1.837484e+01 2.260585e+01 1.784203e+01 2.546201e+01 2.556571e+01 3.057874e+01 2.333385e+01 2.164981e+01 1.761988e+01 3.307682e+01 3.696894e+01 5.070359e+01 3.215619e+01 2.656926e+01 2.379637e+01 1.614318e+01 2.187009e+01 1.669011e+01 2.270476e+00 -1.164530e+01 -2.201297e+00 -1.096714e+01 -2.788628e-01 -7.969139e+00 -2.194465e+01 -1.254712e+01 -2.078562e+01 1.080495e+00 -1.194286e+01 -3.492751e+01 -3.790747e+01 -1.316233e+01 -3.997703e+01 2.336788e+01 -3.581149e+00 4.134218e+00 5.213598e+01 -1.588140e+02 -1.982884e+02 -6.099817e+01 
-2.053885e+02 -1.998396e+02 -2.755361e+01 2.532451e+01 9.521298e+00 1.006779e+01 -4.122060e+01 -9.402704e-01 -2.993729e+01 -6.947070e+01 -6.569939e+01 -1.006065e+01 -2.912502e+01 -5.021762e+00 -1.098508e+01 8.809526e+00 -9.229183e-01 1.615957e+01 8.546421e+00 1.975723e+01 1.309615e+01 2.173351e+01 1.664504e+01 2.235064e+01 1.832108e+01 2.326452e+01 1.915409e+01 2.435322e+01 1.740028e+01 2.272533e+01 1.815841e+01 2.671436e+01 2.290767e+01 2.833274e+01 2.401921e+01 2.594501e+01 4.537415e+00 3.793236e+00 -5.750649e+00 3.385546e+00 -3.781415e+00 2.235279e+01 5.640535e+00 1.471215e+01 -5.091707e+00 -3.161541e-02 6.119952e-01 1.033475e+00 7.284751e+00 -2.364966e+00 6.195702e+00 -8.136704e+00 2.786982e+00 -9.948042e+00 -1.490810e+01 -1.817879e+01 -1.852189e+01 -4.859568e+01 -3.797399e+01 -8.198679e+01 -3.088186e+01 3.391394e+01 9.773485e+01 -6.409709e+01 
-3.871316e+01 -1.331703e+02 -4.639102e+01 -2.338483e+01 5.680834e+00 -1.596127e+01 -6.046461e+01 -4.383116e+01 -3.237964e+01 -1.990557e+01 -7.168040e+01 9.565857e+00 -3.061800e+01 4.714069e+00 -1.165724e+01 1.120585e+01 -9.830827e-01 1.529904e+01 7.814679e+00 1.717511e+01 1.192868e+01 1.834148e+01 1.441280e+01 1.908833e+01 1.535125e+01 1.934483e+01 1.557308e+01 1.943438e+01 1.640848e+01 1.731079e+01 1.362351e+01 1.246728e+01 7.958351e+00 1.027583e+01 3.553506e+00 7.101670e+00 3.631231e+00 1.286920e+01 5.755717e+00 7.727531e+00 3.232084e+00 -1.790087e+00 -7.446686e+00 -8.810915e+00 -3.147203e+00 -2.875645e+00 8.349907e-02 1.475791e+00 1.987202e+00 8.406441e+00 1.432340e+01 2.170619e+01 3.215476e+01 2.953082e+01 2.698165e+01 3.511641e+01 2.695957e+01 5.582942e+01 3.214688e+01 2.491440e+00 9.979804e+00 -1.943044e+01 3.191094e+01 -3.196298e+01 
-9.924202e+01 -4.789628e+01 -1.348455e+02 -5.310161e+01 1.313597e+01 -3.497524e+01 5.717059e+00 -5.950011e+01 -1.416323e+01 1.537301e+00 -4.240935e+01 3.968938e+00 -2.568340e+01 4.728726e+00 -1.048681e+01 9.436470e+00 -7.101524e-01 1.382219e+01 6.175944e+00 1.690556e+01 1.046690e+01 1.898702e+01 1.337512e+01 2.017638e+01 1.522979e+01 2.122731e+01 1.625965e+01 2.202323e+01 1.660656e+01 2.360933e+01 1.827408e+01 2.670679e+01 2.044035e+01 2.776955e+01 2.038057e+01 2.451152e+01 1.191355e+01 1.373518e+01 4.682684e+00 1.038418e+01 2.765551e+00 1.415872e+01 2.724119e+00 8.980469e+00 -2.799003e+00 5.695667e-01 -4.654198e+00 -4.945477e+00 -8.741792e+00 -1.322695e+01 -1.840766e+01 -2.512276e+01 -3.221329e+01 -3.239503e+01 -3.577430e+01 -3.609105e+01 -3.734833e+01 -4.918270e+01 -5.072643e+01 -3.724654e+01 -3.869323e+01 -1.695106e+00 -7.137523e+00 3.436857e+01 
-3.706060e+01 2.131752e+01 -1.007915e+02 -5.600556e+01 1.902664e+01 -5.401531e+01 5.290173e+01 -2.390457e+01 2.377085e+01 2.360459e+01 -9.252910e+00 1.038386e+01 -1.296447e+01 9.337405e+00 -6.084947e+00 1.165268e+01 7.028262e-01 1.386648e+01 6.240858e+00 1.527360e+01 9.638522e+00 1.615298e+01 1.168023e+01 1.657104e+01 1.263714e+01 1.655599e+01 1.281230e+01 1.596601e+01 1.255844e+01 1.439820e+01 1.108974e+01 1.194956e+01 7.708693e+00 9.255268e+00 4.313444e+00 6.995536e+00 3.255976e+00 7.935414e+00 3.216217e+00 5.424389e+00 1.744635e+00 1.116351e+00 -8.460172e-01 -1.735654e+00 9.905267e-01 7.164085e-01 4.387623e+00 4.673445e+00 9.878707e+00 1.190703e+01 1.865436e+01 1.953307e+01 2.274668e+01 1.611176e+01 1.477714e+01 1.077591e+01 7.181927e+00 3.853725e+00 -6.926170e+00 -1.987992e+01 -2.145325e+01 -2.326375e+01 -2.253183e+01 3.942422e+01 
3.884801e+01 4.403753e+01 -1.665283e+01 -4.152634e+01 1.382847e+01 -4.239467e+01 5.380556e+01 -2.328907e+01 3.896238e+01 1.500910e+01 1.369449e+01 7.198684e+00 -6.252199e-01 7.238973e+00 -9.498920e-01 9.887359e+00 2.669072e+00 1.274510e+01 6.443892e+00 1.509076e+01 9.413992e+00 1.687760e+01 1.159205e+01 1.812496e+01 1.313761e+01 1.910696e+01 1.415805e+01 1.992507e+01 1.484100e+01 2.099544e+01 1.541007e+01 2.191746e+01 1.531561e+01 2.132788e+01 1.362449e+01 1.840062e+01 9.593016e+00 1.377593e+01 5.770952e+00 1.074520e+01 3.089909e+00 9.362802e+00 5.328586e-01 5.637501e+00 -2.919755e+00 4.411672e-01 -5.810318e+00 -4.427519e+00 -9.472393e+00 -1.013405e+01 -1.492821e+01 -1.741022e+01 -2.282000e+01 -2.323384e+01 -2.632337e+01 -2.699604e+01 -3.248203e+01 -3.278152e+01 -4.746853e+01 -4.362467e+01 -6.036868e+01 -4.961088e+01 -7.183473e+01 -8.040101e-01 
6.486100e+01 -2.829446e+01 5.337687e+01 -1.012229e+01 1.690523e+01 -1.663720e+01 2.968218e+01 -1.095219e+01 3.323284e+01 1.890250e+01 1.661431e+01 1.327427e+01 5.370908e+00 1.142125e+01 2.803279e+00 1.200523e+01 4.265894e+00 1.307532e+01 6.712756e+00 1.392474e+01 8.720191e+00 1.446335e+01 1.005768e+01 1.465307e+01 1.072495e+01 1.447965e+01 1.080992e+01 1.386377e+01 1.041318e+01 1.275698e+01 9.369191e+00 1.120765e+01 7.483835e+00 9.246524e+00 5.384397e+00 7.359565e+00 3.958581e+00 6.343957e+00 3.181633e+00 4.591399e+00 2.333652e+00 2.331003e+00 1.709710e+00 9.203522e-01 2.684049e+00 1.707123e+00 4.700293e+00 3.578462e+00 7.106583e+00 5.756007e+00 8.112038e+00 5.624308e+00 5.095925e+00 7.089338e-01 -1.537382e+00 -6.150162e+00 -1.050001e+01 -1.775915e+01 -2.495807e+01 -3.614354e+01 -5.063395e+01 -6.622604e+01 -8.955064e+01 -5.446960e+01 
1.522918e+01 -6.669255e+01 7.856746e+01 -1.792088e+01 1.888555e+01 -2.132804e+01 2.209786e+01 -1.123665e+01 2.362431e+01 7.861105e+00 1.894784e+01 7.799038e+00 1.067752e+01 8.366304e+00 6.902772e+00 1.003902e+01 6.659836e+00 1.198790e+01 7.860444e+00 1.374293e+01 9.344470e+00 1.517767e+01 1.065653e+01 1.626360e+01 1.167843e+01 1.708039e+01 1.237375e+01 1.767859e+01 1.273893e+01 1.809684e+01 1.266499e+01 1.804234e+01 1.190620e+01 1.706007e+01 1.026958e+01 1.496897e+01 7.815168e+00 1.217517e+01 5.211388e+00 9.553267e+00 2.718828e+00 7.159061e+00 1.656570e-01 4.018145e+00 -2.505098e+00 1.793108e-01 -5.058173e+00 -3.816051e+00 -7.780258e+00 -8.072710e+00 -1.104790e+01 -1.281116e+01 -1.582723e+01 -1.805734e+01 -2.105166e+01 -2.300984e+01 -2.812186e+01 -2.950376e+01 -3.925708e+01 -4.173986e+01 -5.434517e+01 -5.962695e+01 -7.785547e+01 -6.775455e+01 
-1.000754e+01 -4.114575e+01 7.299308e+01 -1.804563e+01 1.914727e+01 -1.745141e+01 1.717628e+01 -3.478374e+00 1.920231e+01 1.062891e+01 1.635189e+01 1.150381e+01 1.111340e+01 1.141216e+01 8.017498e+00 1.177577e+01 7.267734e+00 1.234694e+01 7.756927e+00 1.283138e+01 8.530228e+00 1.311844e+01 9.148933e+00 1.315093e+01 9.446051e+00 1.289840e+01 9.382560e+00 1.232341e+01 8.959742e+00 1.141894e+01 8.135268e+00 1.019130e+01 6.892591e+00 8.651260e+00 5.473861e+00 7.035747e+00 4.254738e+00 5.638164e+00 3.381375e+00 4.131610e+00 2.716133e+00 2.573265e+00 2.369819e+00 1.467209e+00 2.622013e+00 1.186420e+00 3.118095e+00 1.159655e+00 3.073449e+00 4.950084e-01 1.381128e+00 -1.820282e+00 -2.428886e+00 -6.167537e+00 -8.026748e+00 -1.255289e+01 -1.599688e+01 -2.192495e+01 -2.723072e+01 -3.399124e+01 -4.168450e+01 -4.841938e+01 -5.568964e+01 -5.259104e+01 
-1.966541e+01 -1.772845e+01 4.752454e+01 -1.982724e+01 1.775960e+01 -1.852116e+01 1.791234e+01 -6.528001e+00 1.749321e+01 3.739508e+00 1.679023e+01 6.491653e+00 1.339476e+01 8.085165e+00 1.058828e+01 9.644163e+00 9.317215e+00 1.118326e+01 9.173652e+00 1.256180e+01 9.571897e+00 1.370441e+01 1.011149e+01 1.457785e+01 1.058360e+01 1.518850e+01 1.086819e+01 1.553253e+01 1.087638e+01 1.556776e+01 1.049500e+01 1.515403e+01 9.624554e+00 1.414157e+01 8.245027e+00 1.250164e+01 6.453606e+00 1.040889e+01 4.464738e+00 8.141330e+00 2.384847e+00 5.743297e+00 2.329720e-01 2.976381e+00 -1.940451e+00 -1.824816e-01 -4.103767e+00 -3.566279e+00 -6.399197e+00 -7.137992e+00 -9.134086e+00 -1.101052e+01 -1.285837e+01 -1.537315e+01 -1.752062e+01 -1.998211e+01 -2.324667e+01 -2.544897e+01 -3.042290e+01 -3.259241e+01 -3.829807e+01 -3.881399e+01 -4.342323e+01 -3.569556e+01 
-1.747203e+01 -1.153561e+01 2.673555e+01 -1.305501e+01 1.932748e+01 -1.224323e+01 1.688914e+01 -1.867133e+00 1.652541e+01 6.551363e+00 1.520413e+01 9.268758e+00 1.257553e+01 1.034802e+01 1.029083e+01 1.100239e+01 9.015593e+00 1.149556e+01 8.572981e+00 1.183131e+01 8.539423e+00 1.198430e+01 8.594511e+00 1.192681e+01 8.554744e+00 1.163715e+01 8.331984e+00 1.109563e+01 7.886553e+00 1.029606e+01 7.195216e+00 9.238732e+00 6.272077e+00 7.946244e+00 5.230762e+00 6.536992e+00 4.247044e+00 5.146935e+00 3.432587e+00 3.748727e+00 2.786661e+00 2.382739e+00 2.323590e+00 1.205090e+00 2.019680e+00 2.549120e-01 1.586554e+00 -8.031143e-01 5.273316e-01 -2.461546e+00 -1.641910e+00 -5.102369e+00 -5.059395e+00 -8.860286e+00 -9.662752e+00 -1.382716e+01 -1.561294e+01 -1.993371e+01 -2.269549e+01 -2.616100e+01 -2.949618e+01 -3.019781e+01 -3.213316e+01 -2.581483e+01 
-1.680957e+01 -1.332501e+01 7.164678e+00 -1.123628e+01 1.981235e+01 -1.117539e+01 1.828380e+01 -4.496266e+00 1.697880e+01 1.898744e+00 1.591802e+01 5.187720e+00 1.398069e+01 7.269730e+00 1.201694e+01 8.897784e+00 1.065043e+01 1.028079e+01 9.944341e+00 1.144438e+01 9.695289e+00 1.237661e+01 9.667560e+00 1.306124e+01 9.681603e+00 1.348725e+01 9.607667e+00 1.363563e+01 9.346112e+00 1.346807e+01 8.813660e+00 1.292313e+01 7.963077e+00 1.195141e+01 6.800697e+00 1.055648e+01 5.385357e+00 8.814471e+00 3.804219e+00 6.829814e+00 2.116093e+00 4.636037e+00 3.594494e-01 2.183086e+00 -1.432705e+00 -5.321436e-01 -3.276430e+00 -3.446172e+00 -5.282093e+00 -6.522850e+00 -7.654269e+00 -9.795950e+00 -1.063486e+01 -1.331581e+01 -1.423276e+01 -1.696882e+01 -1.833363e+01 -2.072585e+01 -2.270169e+01 -2.418899e+01 -2.634323e+01 -2.538293e+01 -2.661006e+01 -2.125702e+01 