# vtk DataFile Version 2.0
Comment goes here
ASCII

DATASET STRUCTURED_POINTS
FIELD FieldData 1
TIME 1 1 double
0.08900000
DIMENSIONS    64   64   1

ORIGIN    0.000   0.000   0.000
SPACING   0.03125 0.03125   1.000

POINT_DATA   4096
SCALARS uX double
LOOKUP_TABLE default

5.854014e-01 -2.137640e+00 3.627483e-01 -2.108284e+00 9.820710e-02 -2.024781e+00 3.468739e-01 -1.750595e+00 3.637878e-01 -1.524094e+00 2.776695e-01 -1.320678e+00 1.560226e-01 -1.135345e+00 2.737085e-02 -9.564199e-01 -1.146204e-01 -7.712116e-01 -2.604894e-01 -5.589087e-01 -4.570533e-01 -3.324330e-01 -6.669137e-01 -1.138259e-01 -8.571935e-01 7.256381e-02 -1.011977e+00 2.265776e-01 -1.138690e+00 3.565005e-01 -1.238763e+00 4.624503e-01 -1.315047e+00 5.468708e-01 -1.367526e+00 6.048858e-01 -1.388919e+00 6.323887e-01 -1.376613e+00 6.270390e-01 -1.337499e+00 5.917209e-01 -1.275646e+00 5.222447e-01 -1.180275e+00 4.057299e-01 -1.044714e+00 2.347778e-01 -8.779489e-01 2.052124e-02 -6.839104e-01 -2.202803e-01 -5.048956e-01 -4.554851e-01 -3.395886e-01 -6.856625e-01 -1.814290e-01 -9.295757e-01 -1.681684e-02 -1.206547e+00 1.635967e-01 -1.527286e+00 3.669557e-01 -1.917175e+00 
-5.177392e-01 5.375981e-01 -1.776342e-01 5.151568e-01 1.624571e-01 4.548072e-01 -2.890825e-01 2.007046e-01 -4.524902e-01 5.335392e-02 -5.046266e-01 -5.339705e-02 -5.154640e-01 -1.530289e-01 -5.065355e-01 -2.628173e-01 -4.771562e-01 -3.798818e-01 -4.836576e-01 -5.140128e-01 -4.105937e-01 -6.446311e-01 -3.192209e-01 -7.577874e-01 -2.379221e-01 -8.438515e-01 -1.781134e-01 -9.125201e-01 -1.335208e-01 -9.703359e-01 -1.027375e-01 -1.015473e+00 -8.266327e-02 -1.053881e+00 -7.451144e-02 -1.087214e+00 -8.277444e-02 -1.113933e+00 -1.077161e-01 -1.119814e+00 -1.448591e-01 -1.098710e+00 -1.877757e-01 -1.061911e+00 -2.405905e-01 -9.954482e-01 -2.986463e-01 -8.899680e-01 -3.423337e-01 -7.626260e-01 -4.048930e-01 -6.067631e-01 -4.397874e-01 -4.559001e-01 -4.704560e-01 -3.153451e-01 -4.926345e-01 -1.713195e-01 -5.062526e-01 -1.360868e-02 -5.082737e-01 1.662402e-01 -5.047665e-01 4.092784e-01 
2.188588e+00 7.115753e-01 1.849558e+00 6.557231e-01 1.406038e+00 6.147590e-01 2.330428e+00 7.580476e-01 2.871643e+00 6.656473e-01 3.287580e+00 4.973901e-01 3.639338e+00 3.561776e-01 3.927295e+00 2.722880e-01 4.171188e+00 2.036792e-01 4.523279e+00 1.375822e-01 4.734318e+00 3.811798e-02 4.913513e+00 -9.010474e-02 5.072477e+00 -2.154831e-01 5.204092e+00 -3.130756e-01 5.315622e+00 -3.841964e-01 5.401703e+00 -4.299671e-01 5.458931e+00 -4.483725e-01 5.504262e+00 -4.320616e-01 5.538854e+00 -3.723169e-01 5.548608e+00 -2.968762e-01 5.529006e+00 -2.350104e-01 5.484618e+00 -1.612788e-01 5.411247e+00 -8.306589e-02 5.265459e+00 3.811276e-03 4.994593e+00 1.239610e-01 4.724523e+00 2.042707e-01 4.421913e+00 2.646925e-01 4.153007e+00 3.261951e-01 3.888389e+00 3.905005e-01 3.594296e+00 4.739081e-01 3.236059e+00 5.790631e-01 2.805624e+00 6.654062e-01 
5.099629e+00 -1.561305e-01 3.849187e+00 -6.992508e-01 2.046637e+00 -6.660465e-01 4.668494e+00 -2.596332e-01 5.789705e+00 -2.219496e-01 6.489120e+00 -3.195743e-01 7.060758e+00 -3.422964e-01 7.488530e+00 -1.256149e-01 7.748706e+00 2.241862e-02 8.273993e+00 5.473029e-01 8.571016e+00 8.032807e-01 8.654720e+00 8.905143e-01 8.727192e+00 9.298699e-01 8.796834e+00 9.552254e-01 8.858781e+00 9.744833e-01 8.903692e+00 9.916861e-01 8.934916e+00 1.013742e+00 8.962481e+00 1.043260e+00 8.990396e+00 1.083151e+00 9.019167e+00 1.134016e+00 9.035996e+00 1.200781e+00 9.023062e+00 1.269717e+00 8.980320e+00 1.291764e+00 8.887909e+00 1.262808e+00 8.656659e+00 1.260577e+00 8.432881e+00 1.206087e+00 8.120871e+00 1.072140e+00 7.747556e+00 8.872855e-01 7.348611e+00 7.295777e-01 6.931761e+00 6.170641e-01 6.441429e+00 5.007123e-01 5.820430e+00 2.335662e-01 
5.326905e+00 2.417706e-01 4.308848e+00 -3.215877e-01 2.781848e+00 -3.153812e-01 4.618208e+00 -4.053337e-01 5.757996e+00 -3.816983e-01 6.527642e+00 -4.602168e-01 7.158081e+00 -5.860192e-01 7.690209e+00 -3.703258e-01 7.965635e+00 1.920422e-02 8.623523e+00 7.654832e-01 8.770326e+00 8.507313e-01 8.852630e+00 8.763301e-01 8.951212e+00 9.113603e-01 9.036976e+00 9.522269e-01 9.099196e+00 9.819831e-01 9.125030e+00 1.009826e+00 9.134611e+00 1.046211e+00 9.139191e+00 1.088293e+00 9.137388e+00 1.112539e+00 9.145877e+00 1.129677e+00 9.154169e+00 1.172836e+00 9.145088e+00 1.223446e+00 9.113333e+00 1.258174e+00 8.999727e+00 1.342616e+00 8.662370e+00 1.487912e+00 8.464786e+00 1.353941e+00 8.048747e+00 1.048089e+00 7.701407e+00 8.473963e-01 7.361183e+00 7.340497e-01 6.992377e+00 6.808358e-01 6.553916e+00 6.204550e-01 5.982141e+00 5.390531e-01 
5.612184e+00 5.839035e-04 4.719738e+00 -1.289611e-01 3.500187e+00 -1.412023e-01 4.684603e+00 -2.349490e-01 5.795470e+00 -1.858184e-01 6.547424e+00 -2.980609e-01 7.151890e+00 -7.082634e-01 7.736817e+00 -7.577343e-01 7.989865e+00 -1.229641e-01 8.712458e+00 1.085389e+00 8.925120e+00 8.727758e-01 8.874510e+00 8.427475e-01 8.965024e+00 8.973923e-01 9.048707e+00 9.594417e-01 9.108837e+00 1.010190e+00 9.120614e+00 1.059110e+00 9.119726e+00 1.096924e+00 9.126232e+00 1.133760e+00 9.135825e+00 1.151023e+00 9.154520e+00 1.181065e+00 9.167525e+00 1.235932e+00 9.171601e+00 1.301196e+00 9.159747e+00 1.374963e+00 9.079551e+00 1.414097e+00 8.747184e+00 1.447566e+00 8.574681e+00 1.509224e+00 8.167731e+00 1.165732e+00 7.738396e+00 7.795783e-01 7.401804e+00 5.900129e-01 7.094206e+00 4.923966e-01 6.719001e+00 3.677474e-01 6.244571e+00 1.852880e-01 
5.933652e+00 2.261589e-01 5.204224e+00 1.629746e-01 4.180849e+00 1.490302e-01 4.971684e+00 -1.271202e-02 5.802128e+00 -2.345009e-02 6.468084e+00 -3.511038e-02 7.022646e+00 -2.272926e-01 7.493686e+00 -4.186945e-01 7.837415e+00 1.916230e-02 8.348540e+00 2.703724e-01 8.338747e+00 6.042074e-02 8.661330e+00 3.863933e-01 8.829105e+00 5.457788e-01 8.937245e+00 6.902215e-01 9.013377e+00 7.881179e-01 9.024859e+00 8.750597e-01 9.023684e+00 9.314489e-01 9.039595e+00 9.868685e-01 9.044280e+00 1.015230e+00 9.047580e+00 1.050993e+00 9.041499e+00 1.103404e+00 9.040028e+00 1.141052e+00 9.074740e+00 1.223378e+00 9.021558e+00 1.573629e+00 8.503245e+00 2.105495e+00 8.655253e+00 2.207580e+00 8.096712e+00 9.931628e-01 7.704269e+00 5.618657e-01 7.501850e+00 5.490962e-01 7.263383e+00 5.685363e-01 6.920111e+00 5.229292e-01 6.475889e+00 4.040385e-01 
6.302100e+00 1.475552e-01 5.660148e+00 2.272524e-01 4.844101e+00 2.125637e-01 5.383947e+00 1.370205e-01 6.050946e+00 2.419200e-01 6.581150e+00 6.647659e-01 6.769140e+00 1.276526e+00 6.741294e+00 1.024947e+00 7.011279e+00 -1.716825e-01 6.030487e+00 -2.256637e+00 6.288636e+00 -1.954151e+00 6.576195e+00 -1.794226e+00 6.740546e+00 -1.650377e+00 6.858577e+00 -1.503922e+00 6.951625e+00 -1.339001e+00 7.058808e+00 -1.185346e+00 7.133421e+00 -1.039836e+00 7.156671e+00 -9.114166e-01 7.143730e+00 -7.802681e-01 7.107210e+00 -6.810305e-01 7.075110e+00 -6.197601e-01 7.055034e+00 -5.581320e-01 7.091435e+00 -4.240828e-01 7.249573e+00 -2.790351e-02 7.534305e+00 6.979584e-01 7.463262e+00 4.487206e-01 7.338197e+00 -4.742318e-02 7.520754e+00 1.275463e-01 7.595353e+00 3.346954e-01 7.449871e+00 3.934851e-01 7.164922e+00 3.439032e-01 6.788632e+00 2.399950e-01 
6.679995e+00 3.212324e-01 6.153391e+00 4.100082e-01 5.471409e+00 3.953535e-01 5.822225e+00 2.999814e-01 6.233961e+00 3.719615e-01 6.515296e+00 9.025114e-01 6.370083e+00 1.804309e+00 5.988525e+00 1.605006e+00 6.105851e+00 -8.062812e-02 4.281630e+00 -2.732859e+00 4.589033e+00 -2.453699e+00 4.557964e+00 -2.910736e+00 4.524912e+00 -3.068830e+00 4.527013e+00 -3.223063e+00 4.536619e+00 -3.279468e+00 4.667687e+00 -3.331620e+00 4.803914e+00 -3.352066e+00 4.842863e+00 -3.388504e+00 4.849209e+00 -3.363442e+00 4.781340e+00 -3.316457e+00 4.683703e+00 -3.297430e+00 4.580342e+00 -3.256532e+00 4.393179e+00 -3.213228e+00 4.450833e+00 -3.689596e+00 5.902058e+00 -5.415468e+00 5.982024e+00 -4.334026e+00 7.646045e+00 -9.040822e-01 8.185254e+00 3.777395e-01 8.045075e+00 5.987199e-01 7.732111e+00 5.526713e-01 7.410831e+00 4.703127e-01 7.074917e+00 3.810479e-01 
7.054467e+00 2.952269e-01 6.608202e+00 4.373614e-01 6.080598e+00 4.244026e-01 6.272586e+00 3.311506e-01 6.547555e+00 2.567483e-01 6.807135e+00 3.311976e-01 6.936225e+00 5.912062e-01 6.923030e+00 6.695968e-01 7.017907e+00 7.413525e-01 6.876238e+00 1.103851e-01 6.526233e+00 -2.595059e-01 6.695037e+00 -3.803051e-01 6.681180e+00 -5.918401e-01 6.640846e+00 -8.315798e-01 6.610626e+00 -1.053528e+00 6.628034e+00 -1.245452e+00 6.669226e+00 -1.395948e+00 6.693575e+00 -1.512919e+00 6.700070e+00 -1.577277e+00 6.678119e+00 -1.637835e+00 6.646412e+00 -1.713864e+00 6.593383e+00 -1.795602e+00 6.517518e+00 -1.954923e+00 6.535324e+00 -2.315260e+00 7.000944e+00 -3.013002e+00 6.943735e+00 -3.065826e+00 7.686646e+00 -1.058071e+00 8.109004e+00 8.698812e-02 8.085725e+00 4.022572e-01 7.884454e+00 4.076614e-01 7.648654e+00 3.477644e-01 7.384971e+00 2.906459e-01 
7.427899e+00 4.220745e-01 7.072464e+00 5.719714e-01 6.655324e+00 5.604943e-01 6.715709e+00 4.487965e-01 6.847065e+00 2.279328e-01 7.057476e+00 -1.442906e-01 7.417045e+00 -6.477920e-01 7.810609e+00 -5.835181e-01 7.873057e+00 5.730303e-02 8.617707e+00 1.169281e+00 8.774111e+00 9.673831e-01 8.887928e+00 1.068803e+00 8.978906e+00 1.062354e+00 9.039835e+00 1.074669e+00 9.091582e+00 1.053894e+00 9.099437e+00 1.026191e+00 9.106936e+00 9.654506e-01 9.149537e+00 9.007662e-01 9.192610e+00 8.267864e-01 9.236786e+00 7.841597e-01 9.270415e+00 7.851356e-01 9.285633e+00 8.217914e-01 9.302966e+00 8.889225e-01 9.296732e+00 1.063798e+00 8.917138e+00 2.056891e+00 8.829914e+00 1.540831e+00 8.283871e+00 3.340570e-01 8.123322e+00 1.679155e-01 8.081390e+00 3.086516e-01 8.000631e+00 3.874320e-01 7.859866e+00 3.923304e-01 7.674545e+00 3.793329e-01 
7.786229e+00 4.176324e-01 7.505362e+00 5.802455e-01 7.211508e+00 5.702840e-01 7.186303e+00 4.715939e-01 7.255696e+00 2.717145e-01 7.435237e+00 -6.016772e-02 7.781955e+00 -5.013541e-01 8.206660e+00 -4.923515e-01 8.404193e+00 -1.294982e-01 8.924936e+00 8.835833e-01 9.155218e+00 9.976705e-01 9.116554e+00 9.191900e-01 9.151297e+00 9.223662e-01 9.208466e+00 9.736320e-01 9.248819e+00 1.026360e+00 9.248974e+00 1.067204e+00 9.233995e+00 1.081249e+00 9.234194e+00 1.076766e+00 9.252152e+00 1.041972e+00 9.286824e+00 1.027566e+00 9.318245e+00 1.050811e+00 9.351244e+00 1.102942e+00 9.353267e+00 1.245355e+00 9.226722e+00 1.396392e+00 8.906765e+00 1.437904e+00 9.023246e+00 1.787817e+00 8.792928e+00 1.011189e+00 8.418893e+00 4.184864e-01 8.241092e+00 2.771610e-01 8.173502e+00 2.900541e-01 8.096154e+00 3.080621e-01 7.974310e+00 3.296629e-01 
8.132658e+00 5.027466e-01 7.932861e+00 6.585934e-01 7.734623e+00 6.501235e-01 7.649048e+00 5.521241e-01 7.658023e+00 3.411384e-01 7.781836e+00 4.103564e-02 8.042780e+00 -2.026753e-01 8.307621e+00 -1.568309e-01 8.524746e+00 -2.592564e-02 8.913129e+00 7.534232e-01 9.182604e+00 1.011781e+00 9.177770e+00 9.261280e-01 9.203901e+00 9.268279e-01 9.250768e+00 9.571970e-01 9.285753e+00 9.867400e-01 9.292377e+00 1.009334e+00 9.274207e+00 1.024132e+00 9.262415e+00 1.034047e+00 9.264951e+00 1.035952e+00 9.290197e+00 1.027808e+00 9.327999e+00 1.046233e+00 9.359635e+00 1.095917e+00 9.395546e+00 1.170056e+00 9.373503e+00 1.336740e+00 9.112716e+00 1.566835e+00 8.916360e+00 1.303820e+00 8.669597e+00 9.313223e-01 8.463117e+00 5.177964e-01 8.337293e+00 3.224745e-01 8.314667e+00 3.044074e-01 8.300498e+00 3.376450e-01 8.248160e+00 3.895064e-01 
8.467989e+00 5.097335e-01 8.334406e+00 6.633269e-01 8.238787e+00 6.568247e-01 8.093394e+00 6.107259e-01 8.045250e+00 4.882948e-01 8.102923e+00 2.603472e-01 8.288031e+00 2.137471e-02 8.479263e+00 -3.516536e-02 8.668996e+00 -9.162269e-02 8.914213e+00 5.738575e-01 9.230346e+00 8.407493e-01 9.194839e+00 7.066078e-01 9.233621e+00 8.040723e-01 9.268653e+00 8.966869e-01 9.288341e+00 9.717530e-01 9.289846e+00 1.020621e+00 9.258313e+00 1.034876e+00 9.238987e+00 1.021156e+00 9.250299e+00 1.001103e+00 9.277351e+00 9.888094e-01 9.307572e+00 1.029071e+00 9.332043e+00 1.103917e+00 9.333214e+00 1.213909e+00 9.258874e+00 1.392345e+00 9.100485e+00 1.391787e+00 8.895767e+00 1.351404e+00 9.022585e+00 1.242122e+00 8.696221e+00 5.606747e-01 8.524769e+00 3.035655e-01 8.535461e+00 2.779394e-01 8.556097e+00 3.114900e-01 8.540206e+00 3.759175e-01 
8.780714e+00 5.733868e-01 8.721365e+00 7.022374e-01 8.710550e+00 6.964923e-01 8.534387e+00 6.667187e-01 8.437221e+00 6.498313e-01 8.399718e+00 6.800348e-01 8.418700e+00 6.723172e-01 8.529036e+00 5.555064e-01 8.598487e+00 4.668702e-01 8.786390e+00 1.381517e-01 8.590542e+00 -1.444168e-01 8.606607e+00 -2.973988e-02 8.677535e+00 7.256364e-02 8.707622e+00 1.447376e-01 8.729324e+00 2.151810e-01 8.742003e+00 2.916339e-01 8.746127e+00 3.739916e-01 8.742847e+00 4.588480e-01 8.736747e+00 5.344206e-01 8.732387e+00 5.923289e-01 8.730702e+00 6.508160e-01 8.727740e+00 6.917159e-01 8.747096e+00 7.137998e-01 8.772849e+00 8.673116e-01 8.665698e+00 9.919347e-01 8.651266e+00 9.691251e-01 8.673542e+00 7.601661e-01 8.536639e+00 3.439747e-01 8.596763e+00 2.603417e-01 8.701174e+00 2.953245e-01 8.767690e+00 3.517800e-01 8.797470e+00 4.328921e-01 
9.084752e+00 5.783725e-01 9.088975e+00 6.880044e-01 9.162889e+00 6.839590e-01 8.945821e+00 6.773214e-01 8.795222e+00 7.444710e-01 8.637141e+00 9.812445e-01 8.440271e+00 1.222711e+00 8.374017e+00 1.182636e+00 8.190112e+00 1.160465e+00 8.160937e+00 -2.490197e-01 7.363785e+00 -9.720911e-01 7.432929e+00 -7.311436e-01 7.332517e+00 -9.174591e-01 7.259821e+00 -1.074757e+00 7.235618e+00 -1.187378e+00 7.250793e+00 -1.208960e+00 7.340467e+00 -1.131634e+00 7.408258e+00 -9.939852e-01 7.396439e+00 -8.569335e-01 7.336075e+00 -7.521066e-01 7.245950e+00 -7.696446e-01 7.168095e+00 -8.836557e-01 7.138068e+00 -1.114086e+00 7.242606e+00 -1.531413e+00 7.547603e+00 -1.456474e+00 8.113865e+00 -1.338307e+00 7.861029e+00 -1.165083e+00 8.517858e+00 -6.908453e-02 8.912663e+00 2.979628e-01 8.999741e+00 3.568594e-01 9.033731e+00 3.788065e-01 9.068999e+00 4.448881e-01 
9.357291e+00 6.295466e-01 9.430457e+00 7.236645e-01 9.583259e+00 7.219942e-01 9.308381e+00 7.147749e-01 9.098952e+00 7.153672e-01 8.903201e+00 7.650288e-01 8.705974e+00 8.666633e-01 8.544856e+00 9.414534e-01 8.357222e+00 1.010882e+00 8.357180e+00 5.585021e-01 7.905285e+00 9.606866e-02 7.801811e+00 4.468782e-02 7.738332e+00 -1.660873e-01 7.665836e+00 -3.797916e-01 7.629696e+00 -5.672618e-01 7.626162e+00 -6.893590e-01 7.678672e+00 -7.328518e-01 7.726199e+00 -7.203512e-01 7.722292e+00 -6.988104e-01 7.685154e+00 -6.975235e-01 7.629870e+00 -7.955738e-01 7.592187e+00 -9.746293e-01 7.596300e+00 -1.241803e+00 7.688392e+00 -1.665192e+00 7.934482e+00 -1.726842e+00 8.402739e+00 -1.607137e+00 8.072820e+00 -1.457515e+00 8.684101e+00 -1.878722e-01 9.073436e+00 3.074779e-01 9.166310e+00 4.059664e-01 9.221392e+00 4.344328e-01 9.292311e+00 5.028816e-01 
9.625629e+00 6.322567e-01 9.757496e+00 7.165648e-01 9.983611e+00 7.172335e-01 9.656374e+00 7.070389e-01 9.415962e+00 6.389151e-01 9.248699e+00 4.746954e-01 9.156086e+00 3.394773e-01 9.037474e+00 3.664821e-01 9.008078e+00 3.358330e-01 8.992778e+00 8.868078e-01 9.242032e+00 1.087780e+00 9.172855e+00 9.157104e-01 9.202017e+00 9.476142e-01 9.209590e+00 9.529225e-01 9.211972e+00 9.396493e-01 9.209730e+00 9.031557e-01 9.187760e+00 8.413295e-01 9.177398e+00 7.656388e-01 9.190842e+00 6.884410e-01 9.214132e+00 6.116788e-01 9.245728e+00 5.654943e-01 9.279629e+00 5.309827e-01 9.317020e+00 5.211188e-01 9.331603e+00 6.543133e-01 9.242531e+00 6.322495e-01 9.190514e+00 6.417752e-01 9.226856e+00 4.528038e-01 9.102022e+00 2.412145e-01 9.177316e+00 3.137672e-01 9.298583e+00 3.870952e-01 9.410348e+00 4.364115e-01 9.520462e+00 5.125559e-01 
9.860451e+00 6.712447e-01 1.005581e+01 7.389980e-01 1.035271e+01 7.410779e-01 9.990460e+00 7.379689e-01 9.719207e+00 6.984592e-01 9.529122e+00 5.917613e-01 9.421032e+00 4.739748e-01 9.343320e+00 4.237066e-01 9.359996e+00 3.762293e-01 9.312960e+00 7.267536e-01 9.540425e+00 1.016270e+00 9.515601e+00 9.134514e-01 9.483057e+00 9.412761e-01 9.485455e+00 9.871746e-01 9.481165e+00 1.023084e+00 9.469225e+00 1.037040e+00 9.434461e+00 1.022545e+00 9.409118e+00 9.827108e-01 9.412770e+00 9.354100e-01 9.435888e+00 8.890601e-01 9.470155e+00 8.809628e-01 9.508140e+00 9.007771e-01 9.534062e+00 9.732567e-01 9.507570e+00 1.119598e+00 9.457713e+00 1.078217e+00 9.266894e+00 9.987760e-01 9.480130e+00 9.946428e-01 9.302780e+00 4.680802e-01 9.282243e+00 3.562295e-01 9.411122e+00 4.036692e-01 9.559058e+00 4.688919e-01 9.708441e+00 5.570527e-01 
1.009265e+01 6.604186e-01 1.034474e+01 7.086974e-01 1.070155e+01 7.120755e-01 1.032155e+01 7.013363e-01 1.003647e+01 6.718007e-01 9.825807e+00 6.318975e-01 9.671657e+00 6.055444e-01 9.567971e+00 5.817145e-01 9.540107e+00 6.044956e-01 9.499453e+00 7.496087e-01 9.587322e+00 8.864538e-01 9.559590e+00 9.174725e-01 9.546904e+00 9.483634e-01 9.535303e+00 9.806576e-01 9.517834e+00 1.007439e+00 9.495561e+00 1.016453e+00 9.467546e+00 1.009187e+00 9.446947e+00 9.914358e-01 9.444826e+00 9.714705e-01 9.458189e+00 9.570121e-01 9.481984e+00 9.595015e-01 9.505273e+00 9.795400e-01 9.520316e+00 1.012848e+00 9.514552e+00 1.041187e+00 9.480477e+00 1.002111e+00 9.427167e+00 9.490004e-01 9.526641e+00 8.892965e-01 9.487670e+00 6.346930e-01 9.485227e+00 4.842430e-01 9.581518e+00 4.573859e-01 9.730207e+00 4.909798e-01 9.902155e+00 5.660258e-01 
1.029050e+01 6.839958e-01 1.059937e+01 7.234433e-01 1.101962e+01 7.286402e-01 1.061089e+01 7.331492e-01 1.030152e+01 7.234934e-01 1.006472e+01 7.011973e-01 9.877360e+00 6.892164e-01 9.739051e+00 6.786031e-01 9.663964e+00 7.082444e-01 9.586507e+00 7.523225e-01 9.624885e+00 8.803248e-01 9.633600e+00 9.430634e-01 9.602642e+00 9.677930e-01 9.576441e+00 9.874529e-01 9.551052e+00 1.001160e+00 9.525734e+00 1.002557e+00 9.499097e+00 9.913684e-01 9.479724e+00 9.717721e-01 9.474551e+00 9.524446e-01 9.482267e+00 9.401395e-01 9.499134e+00 9.399728e-01 9.517359e+00 9.547995e-01 9.528673e+00 9.728064e-01 9.529466e+00 9.663844e-01 9.517966e+00 9.354394e-01 9.470433e+00 8.708445e-01 9.545411e+00 8.406351e-01 9.562106e+00 6.813961e-01 9.584322e+00 5.478324e-01 9.688944e+00 5.054669e-01 9.855522e+00 5.308173e-01 1.005702e+01 6.015884e-01 
1.048989e+01 6.732375e-01 1.084556e+01 6.970460e-01 1.131714e+01 7.036985e-01 1.089089e+01 7.221018e-01 1.055993e+01 7.406821e-01 1.029694e+01 7.488544e-01 1.008386e+01 7.501764e-01 9.919592e+00 7.555739e-01 9.803778e+00 7.760687e-01 9.721637e+00 8.179298e-01 9.698833e+00 8.792611e-01 9.667382e+00 9.288569e-01 9.637250e+00 9.605212e-01 9.607183e+00 9.813302e-01 9.576658e+00 9.934645e-01 9.547874e+00 9.948228e-01 9.522357e+00 9.878957e-01 9.503992e+00 9.768081e-01 9.496686e+00 9.659065e-01 9.500521e+00 9.582560e-01 9.513555e+00 9.545094e-01 9.530207e+00 9.524330e-01 9.547458e+00 9.438743e-01 9.561525e+00 9.210274e-01 9.565575e+00 8.875753e-01 9.571677e+00 8.406162e-01 9.629912e+00 7.930104e-01 9.673331e+00 7.004772e-01 9.731773e+00 6.075153e-01 9.843490e+00 5.596444e-01 1.001156e+01 5.653875e-01 1.022568e+01 6.152881e-01 
1.065310e+01 6.912530e-01 1.105705e+01 7.080314e-01 1.158409e+01 7.162837e-01 1.113084e+01 7.435692e-01 1.077643e+01 7.753924e-01 1.049042e+01 7.979240e-01 1.025326e+01 8.100806e-01 1.006439e+01 8.196440e-01 9.921365e+00 8.356473e-01 9.815079e+00 8.595196e-01 9.763084e+00 9.037939e-01 9.725146e+00 9.468479e-01 9.684534e+00 9.731115e-01 9.645189e+00 9.867559e-01 9.608303e+00 9.911896e-01 9.575744e+00 9.865635e-01 9.548467e+00 9.753315e-01 9.528788e+00 9.611393e-01 9.519010e+00 9.475956e-01 9.519381e+00 9.367281e-01 9.528625e+00 9.283124e-01 9.543046e+00 9.195096e-01 9.560240e+00 9.039507e-01 9.577333e+00 8.783352e-01 9.590199e+00 8.447659e-01 9.604290e+00 8.042942e-01 9.661783e+00 7.656338e-01 9.725246e+00 7.037310e-01 9.804863e+00 6.378519e-01 9.931768e+00 6.003029e-01 1.011534e+01 6.054104e-01 1.035244e+01 6.473237e-01 
1.081932e+01 6.856894e-01 1.126003e+01 6.913312e-01 1.183029e+01 7.010345e-01 1.135693e+01 7.405416e-01 1.098353e+01 7.885495e-01 1.067993e+01 8.250387e-01 1.042542e+01 8.474136e-01 1.021580e+01 8.639359e-01 1.005037e+01 8.795442e-01 9.926413e+00 9.018974e-01 9.841986e+00 9.273255e-01 9.774198e+00 9.528819e-01 9.719994e+00 9.722075e-01 9.673294e+00 9.836249e-01 9.631758e+00 9.874845e-01 9.596118e+00 9.841281e-01 9.567394e+00 9.757716e-01 9.546871e+00 9.650224e-01 9.536072e+00 9.535576e-01 9.535620e+00 9.416731e-01 9.545042e+00 9.281491e-01 9.562093e+00 9.107709e-01 9.585041e+00 8.874230e-01 9.611041e+00 8.586290e-01 9.637952e+00 8.260784e-01 9.675217e+00 7.900954e-01 9.737798e+00 7.506322e-01 9.813397e+00 7.048833e-01 9.912767e+00 6.599015e-01 1.005298e+01 6.319562e-01 1.024457e+01 6.334274e-01 1.049364e+01 6.613092e-01 
1.094923e+01 7.015658e-01 1.142957e+01 7.008780e-01 1.204606e+01 7.119376e-01 1.154962e+01 7.577829e-01 1.115609e+01 8.153224e-01 1.083484e+01 8.620913e-01 1.056343e+01 8.917716e-01 1.033613e+01 9.106860e-01 1.015201e+01 9.238685e-01 1.000863e+01 9.388425e-01 9.905901e+00 9.557200e-01 9.826313e+00 9.725742e-01 9.761337e+00 9.845604e-01 9.706242e+00 9.893214e-01 9.658791e+00 9.870145e-01 9.619142e+00 9.784388e-01 9.587716e+00 9.657061e-01 9.565124e+00 9.510695e-01 9.552232e+00 9.358838e-01 9.549515e+00 9.202178e-01 9.556743e+00 9.029229e-01 9.572508e+00 8.822984e-01 9.595336e+00 8.574345e-01 9.623074e+00 8.291576e-01 9.655260e+00 7.983581e-01 9.698029e+00 7.679847e-01 9.765752e+00 7.367594e-01 9.852454e+00 7.042133e-01 9.965544e+00 6.751437e-01 1.011918e+01 6.593446e-01 1.032483e+01 6.653966e-01 1.059324e+01 6.883620e-01 
1.108129e+01 6.980919e-01 1.159008e+01 6.894291e-01 1.224094e+01 7.016950e-01 1.172703e+01 7.547345e-01 1.131874e+01 8.219550e-01 1.098486e+01 8.786504e-01 1.070068e+01 9.162864e-01 1.045867e+01 9.396018e-01 1.025843e+01 9.543478e-01 1.009838e+01 9.666529e-01 9.974113e+00 9.763274e-01 9.874669e+00 9.842702e-01 9.795661e+00 9.893619e-01 9.731511e+00 9.902467e-01 9.678537e+00 9.864208e-01 9.635487e+00 9.781068e-01 9.602126e+00 9.664787e-01 9.578646e+00 9.527672e-01 9.565633e+00 9.374460e-01 9.563593e+00 9.201268e-01 9.572498e+00 8.999075e-01 9.591367e+00 8.761246e-01 9.618964e+00 8.490811e-01 9.653819e+00 8.201389e-01 9.696227e+00 7.905551e-01 9.751738e+00 7.614754e-01 9.827191e+00 7.324870e-01 9.923091e+00 7.060748e-01 1.004756e+01 6.857587e-01 1.021124e+01 6.768748e-01 1.042523e+01 6.836633e-01 1.070485e+01 6.984167e-01 
1.117861e+01 7.118050e-01 1.171835e+01 6.985283e-01 1.240551e+01 7.119067e-01 1.187358e+01 7.697853e-01 1.144966e+01 8.436480e-01 1.110257e+01 9.073269e-01 1.080622e+01 9.499315e-01 1.055155e+01 9.748962e-01 1.033781e+01 9.882110e-01 1.016364e+01 9.962232e-01 1.002648e+01 1.000485e+00 9.916757e+00 1.001944e+00 9.828639e+00 1.000581e+00 9.757209e+00 9.954719e-01 9.698906e+00 9.862176e-01 9.652078e+00 9.731371e-01 9.616012e+00 9.572883e-01 9.590482e+00 9.397226e-01 9.575703e+00 9.208647e-01 9.571988e+00 9.004369e-01 9.579351e+00 8.778159e-01 9.597163e+00 8.527216e-01 9.624484e+00 8.257464e-01 9.660467e+00 7.981030e-01 9.706078e+00 7.710995e-01 9.765645e+00 7.466480e-01 9.846253e+00 7.244744e-01 9.949809e+00 7.065595e-01 1.008348e+01 6.960275e-01 1.025719e+01 6.960969e-01 1.048251e+01 7.076804e-01 1.077792e+01 7.197509e-01 
1.127662e+01 7.084220e-01 1.183687e+01 6.898272e-01 1.254906e+01 7.041200e-01 1.200421e+01 7.665668e-01 1.156959e+01 8.468540e-01 1.121348e+01 9.175628e-01 1.090817e+01 9.657227e-01 1.064325e+01 9.938314e-01 1.041780e+01 1.008187e+00 1.023082e+01 1.014435e+00 1.007885e+01 1.015036e+00 9.955496e+00 1.012003e+00 9.856403e+00 1.006293e+00 9.776964e+00 9.979918e-01 9.713378e+00 9.869919e-01 9.663314e+00 9.733810e-01 9.625530e+00 9.575845e-01 9.599478e+00 9.400029e-01 9.585135e+00 9.206593e-01 9.582671e+00 8.992323e-01 9.592045e+00 8.754048e-01 9.612742e+00 8.493347e-01 9.644075e+00 8.218566e-01 9.685632e+00 7.943011e-01 9.738457e+00 7.680486e-01 9.806167e+00 7.443325e-01 9.893394e+00 7.239160e-01 1.000389e+01 7.091656e-01 1.014476e+01 7.026941e-01 1.032500e+01 7.064420e-01 1.055646e+01 7.186840e-01 1.086060e+01 7.253437e-01 
1.134201e+01 7.208980e-01 1.192427e+01 6.996604e-01 1.266241e+01 7.147732e-01 1.210469e+01 7.805698e-01 1.165900e+01 8.651373e-01 1.129353e+01 9.401942e-01 1.097981e+01 9.913251e-01 1.070628e+01 1.020213e+00 1.047165e+01 1.033298e+00 1.027521e+01 1.036537e+00 1.011449e+01 1.033157e+00 9.983657e+00 1.025338e+00 9.877963e+00 1.014552e+00 9.793091e+00 1.001294e+00 9.725367e+00 9.856771e-01 9.672279e+00 9.678900e-01 9.632281e+00 9.483419e-01 9.604534e+00 9.274035e-01 9.588757e+00 9.051617e-01 9.584952e+00 8.814605e-01 9.593068e+00 8.561958e-01 9.612781e+00 8.296940e-01 9.643687e+00 8.028366e-01 9.685807e+00 7.768856e-01 9.740498e+00 7.532910e-01 9.811044e+00 7.335519e-01 9.902209e+00 7.185235e-01 1.001803e+01 7.101070e-01 1.016521e+01 7.105012e-01 1.035250e+01 7.206883e-01 1.059229e+01 7.368096e-01 1.090825e+01 7.422203e-01 
1.140685e+01 7.178493e-01 1.200132e+01 6.935373e-01 1.275465e+01 7.092470e-01 1.218875e+01 7.779756e-01 1.173636e+01 8.665786e-01 1.136525e+01 9.459993e-01 1.104591e+01 1.000490e+00 1.076580e+01 1.031211e+00 1.052346e+01 1.044708e+00 1.031837e+01 1.046862e+00 1.014809e+01 1.041486e+00 1.000834e+01 1.031325e+00 9.895146e+00 1.018173e+00 9.804507e+00 1.002969e+00 9.732810e+00 9.861067e-01 9.677326e+00 9.677549e-01 9.636232e+00 9.480392e-01 9.608448e+00 9.270072e-01 9.593474e+00 9.045620e-01 9.591122e+00 8.805542e-01 9.601232e+00 8.550126e-01 9.623512e+00 8.283782e-01 9.657726e+00 8.015544e-01 9.704080e+00 7.758088e-01 9.763850e+00 7.525595e-01 9.839848e+00 7.331822e-01 9.935917e+00 7.190440e-01 1.005653e+01 7.121592e-01 1.020816e+01 7.144549e-01 1.039924e+01 7.263853e-01 1.064254e+01 7.426204e-01 1.096377e+01 7.445212e-01 
1.144092e+01 7.307402e-01 1.204828e+01 7.056410e-01 1.281675e+01 7.218361e-01 1.224298e+01 7.923212e-01 1.178381e+01 8.829343e-01 1.140691e+01 9.641857e-01 1.108248e+01 1.019645e+00 1.079732e+01 1.050049e+00 1.054971e+01 1.062011e+00 1.033930e+01 1.061642e+00 1.016407e+01 1.053091e+00 1.001999e+01 1.039268e+00 9.903010e+00 1.022220e+00 9.809204e+00 1.003129e+00 9.735040e+00 9.825655e-01 9.677711e+00 9.608075e-01 9.635222e+00 9.380340e-01 9.606304e+00 9.143418e-01 9.590281e+00 8.897279e-01 9.586855e+00 8.641768e-01 9.595864e+00 8.378467e-01 9.617157e+00 8.112518e-01 9.650729e+00 7.853007e-01 9.697082e+00 7.612273e-01 9.757704e+00 7.404639e-01 9.835374e+00 7.244725e-01 9.933988e+00 7.146020e-01 1.005803e+01 7.125883e-01 1.021376e+01 7.200283e-01 1.040947e+01 7.368185e-01 1.065826e+01 7.564124e-01 1.098707e+01 7.587294e-01 
1.147354e+01 7.288703e-01 1.208443e+01 7.026799e-01 1.285767e+01 7.191291e-01 1.228040e+01 7.909630e-01 1.181850e+01 8.833742e-01 1.143928e+01 9.664612e-01 1.111234e+01 1.023177e+00 1.082400e+01 1.054091e+00 1.057245e+01 1.065905e+00 1.035745e+01 1.064802e+00 1.017716e+01 1.055226e+00 1.002828e+01 1.040345e+00 9.907220e+00 1.022321e+00 9.810267e+00 1.002477e+00 9.733994e+00 9.815030e-01 9.675566e+00 9.596834e-01 9.632874e+00 9.370860e-01 9.604503e+00 9.136613e-01 9.589614e+00 8.893109e-01 9.587752e+00 8.639979e-01 9.598657e+00 8.378955e-01 9.622181e+00 8.115107e-01 9.658394e+00 7.857162e-01 9.707854e+00 7.617093e-01 9.771948e+00 7.408941e-01 9.853160e+00 7.247612e-01 9.954971e+00 7.149147e-01 1.008186e+01 7.131918e-01 1.023987e+01 7.211313e-01 1.043710e+01 7.384623e-01 1.068683e+01 7.580335e-01 1.101697e+01 7.588980e-01 
1.147673e+01 7.436323e-01 1.209126e+01 7.184635e-01 1.286851e+01 7.350398e-01 1.228820e+01 8.069045e-01 1.182358e+01 8.989802e-01 1.144197e+01 9.813198e-01 1.111304e+01 1.036901e+00 1.082300e+01 1.066217e+00 1.056987e+01 1.075978e+00 1.035341e+01 1.072445e+00 1.017186e+01 1.060180e+00 1.002196e+01 1.042429e+00 9.900041e+00 1.021459e+00 9.802391e+00 9.987058e-01 9.725591e+00 9.749587e-01 9.666763e+00 9.505858e-01 9.623708e+00 9.257229e-01 9.594903e+00 9.003915e-01 9.579413e+00 8.745812e-01 9.576733e+00 8.483513e-01 9.586634e+00 8.219535e-01 9.609088e+00 7.959319e-01 9.644362e+00 7.711546e-01 9.693234e+00 7.487881e-01 9.757272e+00 7.302151e-01 9.839020e+00 7.169251e-01 9.941999e+00 7.104613e-01 1.007065e+01 7.124909e-01 1.023087e+01 7.243530e-01 1.043064e+01 7.455268e-01 1.068320e+01 7.684710e-01 1.101658e+01 7.718598e-01 
1.147774e+01 7.434266e-01 1.208691e+01 7.190434e-01 1.285812e+01 7.355171e-01 1.227901e+01 8.070406e-01 1.181559e+01 8.986665e-01 1.143499e+01 9.803734e-01 1.110660e+01 1.035178e+00 1.081670e+01 1.063743e+00 1.056333e+01 1.072854e+00 1.034624e+01 1.068785e+00 1.016373e+01 1.056175e+00 1.001285e+01 1.038321e+00 9.890137e+00 1.017475e+00 9.792022e+00 9.950561e-01 9.715173e+00 9.718463e-01 9.656749e+00 9.481835e-01 9.614532e+00 9.241360e-01 9.586937e+00 8.996417e-01 9.572935e+00 8.746200e-01 9.571927e+00 8.490816e-01 9.583617e+00 8.232367e-01 9.607964e+00 7.975777e-01 9.645255e+00 7.729155e-01 9.696262e+00 7.503691e-01 9.762459e+00 7.313055e-01 9.846201e+00 7.172693e-01 9.950771e+00 7.099629e-01 1.008050e+01 7.111847e-01 1.024107e+01 7.223841e-01 1.044029e+01 7.431952e-01 1.069126e+01 7.662817e-01 1.102181e+01 7.704811e-01 
1.145008e+01 7.609600e-01 1.205368e+01 7.394149e-01 1.281768e+01 7.556513e-01 1.224027e+01 8.253997e-01 1.177808e+01 9.142686e-01 1.139837e+01 9.925897e-01 1.107104e+01 1.044089e+00 1.078273e+01 1.069677e+00 1.053144e+01 1.076075e+00 1.031667e+01 1.069482e+00 1.013657e+01 1.054497e+00 9.988032e+00 1.034384e+00 9.867454e+00 1.011387e+00 9.771189e+00 9.869360e-01 9.695866e+00 9.618391e-01 9.638610e+00 9.364742e-01 9.597166e+00 9.109609e-01 9.569907e+00 8.852992e-01 9.555779e+00 8.594797e-01 9.554189e+00 8.335821e-01 9.564906e+00 8.078673e-01 9.588015e+00 7.828478e-01 9.623974e+00 7.593226e-01 9.673746e+00 7.383737e-01 9.738970e+00 7.213232e-01 9.822097e+00 7.096705e-01 9.926459e+00 7.050449e-01 1.005636e+01 7.091391e-01 1.021738e+01 7.233224e-01 1.041716e+01 7.472685e-01 1.066836e+01 7.740303e-01 1.099778e+01 7.830577e-01 