# vtk DataFile Version 2.0
Comment goes here
ASCII

DATASET STRUCTURED_POINTS
FIELD FieldData 1
TIME 1 1 double
0.73000000
DIMENSIONS    128   16   1

ORIGIN    0.000   0.000   0.000
SPACING   0.0078125 0.015625   1.000

POINT_DATA   2048
SCALARS uX double
LOOKUP_TABLE default

6.888172e-03 5.030875e-03 5.756265e-03 3.491023e-03 4.579865e-03 3.871549e-03 1.104173e-02 1.124830e-03 6.585857e-03 -2.996519e-03 -1.809992e-03 -1.301172e-02 -1.978585e-02 -3.553631e-02 -4.357824e-02 -4.752486e-02 -4.987916e-02 -4.986464e-02 -4.728123e-02 -4.280613e-02 -3.587741e-02 -1.943701e-02 -1.240978e-02 -3.537848e-03 -1.525875e-03 3.234102e-03 3.113170e-03 6.227703e-03 5.083268e-03 7.449760e-03 5.754254e-03 7.740514e-03 5.853833e-03 7.658552e-03 5.888371e-03 7.552506e-03 6.051316e-03 7.460605e-03 6.245514e-03 7.259743e-03 6.352468e-03 6.939530e-03 6.406940e-03 6.599512e-03 6.428182e-03 6.238450e-03 6.303611e-03 5.771630e-03 5.927797e-03 5.155342e-03 5.234101e-03 4.245992e-03 3.862957e-03 2.367886e-03 6.950929e-04 -2.033479e-03 -5.735300e-03 -8.355306e-03 -8.118038e-03 -1.047164e-02 -1.078894e-02 -1.120733e-02 -1.166525e-02 -1.172586e-02 -1.108736e-02 -1.111902e-02 -1.018560e-02 -7.844301e-03 -8.964275e-03 -6.721792e-03 -3.944154e-03 -5.307066e-03 -4.110335e-03 1.086219e-03 1.095703e-03 3.856015e-03 3.097681e-03 5.049347e-03 4.149983e-03 5.606832e-03 4.718485e-03 5.711565e-03 4.983991e-03 5.556169e-03 5.207375e-03 5.413284e-03 5.580538e-03 5.370228e-03 6.013996e-03 5.282900e-03 6.314145e-03 5.066502e-03 6.463857e-03 4.844549e-03 6.583466e-03 4.769027e-03 6.696391e-03 4.839863e-03 6.707956e-03 5.015313e-03 6.587201e-03 5.332050e-03 6.366090e-03 5.788171e-03 5.998304e-03 6.256768e-03 5.409935e-03 6.654040e-03 4.708676e-03 7.074463e-03 4.150832e-03 7.599311e-03 3.864403e-03 8.075466e-03 3.780208e-03 8.249023e-03 3.905633e-03 8.072655e-03 4.538361e-03 7.692791e-03 6.150866e-03 7.090553e-03 9.438776e-03 2.105893e-03 5.918805e-03 3.361751e-03 6.649434e-03 5.040320e-03 
2.629702e-03 1.299985e-03 1.255572e-03 -4.069161e-04 -1.649205e-03 -3.328600e-04 8.821055e-03 -8.977789e-04 6.399409e-03 -3.255795e-04 3.753442e-03 -5.629322e-06 6.298517e-04 1.638442e-03 4.167724e-03 5.008306e-03 4.479946e-03 6.025891e-03 3.552139e-03 5.247041e-03 7.424421e-04 1.327082e-03 9.590142e-05 2.113494e-03 1.013604e-03 2.915632e-03 1.620973e-03 3.397133e-03 1.749027e-03 3.355567e-03 1.455216e-03 3.032377e-03 1.234046e-03 2.919645e-03 1.453660e-03 3.079922e-03 1.877906e-03 3.138428e-03 2.123438e-03 2.887513e-03 2.166129e-03 2.517848e-03 2.266221e-03 2.274629e-03 2.440717e-03 2.048879e-03 2.431822e-03 1.708112e-03 2.189709e-03 1.357068e-03 1.811719e-03 1.008059e-03 9.671058e-04 -1.049738e-04 -2.031228e-03 -4.538963e-03 -1.073802e-02 -1.015771e-02 -7.334865e-03 -8.931802e-03 -6.644306e-03 -7.523752e-03 -6.849263e-03 -7.362018e-03 -7.328524e-03 -7.634610e-03 -7.446625e-03 -8.296453e-03 -8.229849e-03 -1.029688e-02 -9.880460e-03 -1.234550e-02 -1.403925e-02 -6.186206e-03 -4.818421e-03 -7.624286e-04 -1.011832e-03 1.231777e-03 5.586045e-04 1.950235e-03 1.134132e-03 1.890081e-03 1.149665e-03 1.448514e-03 1.126049e-03 1.134415e-03 1.418914e-03 1.045539e-03 1.791881e-03 8.504260e-04 1.942408e-03 4.923200e-04 1.991579e-03 2.469393e-04 2.171832e-03 2.740527e-04 2.370009e-03 3.251964e-04 2.240988e-03 2.617853e-04 1.875339e-03 3.927679e-04 1.584118e-03 8.960062e-04 1.350718e-03 1.543710e-03 9.146861e-04 2.072790e-03 3.038030e-04 2.623800e-03 -1.270136e-04 3.327508e-03 -3.055869e-04 3.916455e-03 -4.131023e-04 4.081923e-03 -4.314161e-04 3.870208e-03 8.189711e-05 3.516259e-03 1.573769e-03 2.575818e-03 4.622100e-03 -5.285077e-03 6.204491e-04 -1.131481e-03 2.291701e-03 1.094513e-03 
9.878277e-03 8.246645e-03 5.965333e-03 1.073118e-03 -6.708657e-03 -1.276451e-02 -3.668086e-03 -9.708895e-03 -2.531097e-03 -5.172502e-03 7.736782e-04 2.633204e-03 1.000678e-02 1.586767e-02 1.934480e-02 2.165111e-02 2.178866e-02 2.281682e-02 2.061319e-02 1.926749e-02 1.571038e-02 8.062119e-03 2.702233e-03 -1.269288e-03 -3.574923e-03 -4.589962e-03 -5.935571e-03 -5.811614e-03 -7.457358e-03 -6.946906e-03 -9.004815e-03 -7.988164e-03 -9.882303e-03 -8.112491e-03 -9.571994e-03 -7.482428e-03 -8.852025e-03 -7.124009e-03 -8.600446e-03 -7.436028e-03 -8.734540e-03 -7.855815e-03 -8.556235e-03 -7.792471e-03 -7.951834e-03 -7.505998e-03 -7.345132e-03 -7.157213e-03 -6.498501e-03 -6.102473e-03 -4.508296e-03 -3.332659e-03 -3.619889e-04 2.013030e-03 6.862342e-03 1.103111e-02 1.805279e-02 2.127277e-02 2.209746e-02 2.625842e-02 2.826766e-02 2.968861e-02 3.113373e-02 3.093436e-02 3.062014e-02 3.104953e-02 3.009100e-02 2.761301e-02 2.726225e-02 2.516254e-02 1.866018e-02 2.222690e-02 1.691807e-02 9.281566e-03 4.309611e-03 9.852917e-04 -2.194611e-03 -3.274638e-03 -5.453697e-03 -5.557990e-03 -7.378378e-03 -7.358589e-03 -8.962288e-03 -8.963329e-03 -9.954253e-03 -9.801754e-03 -9.946211e-03 -9.944043e-03 -9.603395e-03 -1.025247e-02 -9.590552e-03 -1.083032e-02 -9.599997e-03 -1.108678e-02 -9.150062e-03 -1.079091e-02 -8.574811e-03 -1.066739e-02 -8.729856e-03 -1.109472e-02 -9.372457e-03 -1.131604e-02 -9.727467e-03 -1.087467e-02 -9.810549e-03 -1.023599e-02 -1.025811e-02 -9.963676e-03 -1.111312e-02 -9.692791e-03 -1.168972e-02 -9.071507e-03 -1.195752e-02 -8.596317e-03 -1.240849e-02 -8.802926e-03 -1.314641e-02 -9.526447e-03 -1.352507e-02 -1.024302e-02 -1.322404e-02 -1.153485e-02 -1.238732e-02 -1.483966e-02 -1.737150e-03 2.890570e-03 7.977609e-03 8.716465e-03 
9.705692e-03 8.527040e-03 6.471469e-03 6.078245e-04 -5.937021e-03 -2.109690e-02 -2.636600e-02 -1.994341e-02 -2.487441e-02 -2.007744e-02 -2.363958e-02 -2.056445e-02 -2.240552e-02 -2.299122e-02 -2.585385e-02 -2.637869e-02 -2.615897e-02 -2.740732e-02 -2.513003e-02 -2.664360e-02 -2.216549e-02 -2.283836e-02 -2.019225e-02 -2.247944e-02 -2.022748e-02 -2.214579e-02 -2.035405e-02 -2.183853e-02 -2.075195e-02 -2.181132e-02 -2.138433e-02 -2.188712e-02 -2.187428e-02 -2.170192e-02 -2.196622e-02 -2.127765e-02 -2.187007e-02 -2.095620e-02 -2.185535e-02 -2.085329e-02 -2.188590e-02 -2.074042e-02 -2.170989e-02 -2.039370e-02 -2.124011e-02 -1.990278e-02 -2.054101e-02 -1.929558e-02 -1.942292e-02 -1.823866e-02 -1.739020e-02 -1.612110e-02 -1.363745e-02 -1.201146e-02 -6.561253e-03 -3.492976e-03 7.668856e-03 6.013224e-03 2.189586e-03 2.809198e-03 -1.116519e-03 7.130936e-04 -1.486956e-03 1.149445e-03 -4.116841e-04 2.010956e-03 -1.284228e-04 3.005227e-03 1.544746e-03 5.623140e-03 5.898997e-03 7.835517e-03 1.005029e-02 -3.483777e-04 -3.547354e-03 -9.768193e-03 -1.146410e-02 -1.482267e-02 -1.592626e-02 -1.779316e-02 -1.875253e-02 -1.982968e-02 -2.077761e-02 -2.130050e-02 -2.213870e-02 -2.213987e-02 -2.278593e-02 -2.247243e-02 -2.299755e-02 -2.268195e-02 -2.306617e-02 -2.285914e-02 -2.296572e-02 -2.284860e-02 -2.260086e-02 -2.263863e-02 -2.214686e-02 -2.255559e-02 -2.196364e-02 -2.278908e-02 -2.202542e-02 -2.311551e-02 -2.209795e-02 -2.339249e-02 -2.219657e-02 -2.375923e-02 -2.253091e-02 -2.434479e-02 -2.308196e-02 -2.492888e-02 -2.356236e-02 -2.528969e-02 -2.392155e-02 -2.551096e-02 -2.432179e-02 -2.570510e-02 -2.483028e-02 -2.574479e-02 -2.531969e-02 -2.531235e-02 -2.597279e-02 -2.406967e-02 -2.826711e-02 -1.235891e-02 -5.054629e-03 3.900880e-03 6.668742e-03 9.392459e-03 
3.576856e-02 3.676850e-02 3.819359e-02 3.985607e-02 4.490536e-02 4.273836e-02 2.827984e-02 3.843619e-02 2.757730e-02 3.447863e-02 2.641129e-02 2.958538e-02 2.232236e-02 2.513691e-02 2.495958e-02 2.533051e-02 2.563950e-02 2.532548e-02 2.557813e-02 2.534217e-02 2.491464e-02 2.483530e-02 2.860485e-02 2.912025e-02 3.148790e-02 3.077583e-02 3.246572e-02 3.151852e-02 3.331871e-02 3.255571e-02 3.441394e-02 3.357946e-02 3.491117e-02 3.370242e-02 3.428927e-02 3.307389e-02 3.332846e-02 3.268840e-02 3.288018e-02 3.291749e-02 3.282158e-02 3.319502e-02 3.242451e-02 3.291370e-02 3.152920e-02 3.225663e-02 3.047178e-02 3.128310e-02 2.887717e-02 2.923688e-02 2.556967e-02 2.484550e-02 1.886435e-02 1.644118e-02 6.003103e-03 2.073153e-04 -1.883336e-02 -1.752934e-02 -1.468478e-02 -1.908176e-02 -1.619304e-02 -2.067785e-02 -1.611974e-02 -1.925638e-02 -1.469321e-02 -1.964406e-02 -1.605504e-02 -2.091300e-02 -1.560370e-02 -1.876608e-02 -1.414820e-02 -1.692686e-02 -1.777595e-02 -6.488946e-04 6.715871e-03 1.542744e-02 1.959388e-02 2.337399e-02 2.578261e-02 2.740409e-02 2.901419e-02 2.998726e-02 3.113082e-02 3.193988e-02 3.236396e-02 3.300653e-02 3.257873e-02 3.338305e-02 3.253237e-02 3.393042e-02 3.287733e-02 3.474177e-02 3.328256e-02 3.523810e-02 3.325061e-02 3.517644e-02 3.307317e-02 3.522392e-02 3.353098e-02 3.570544e-02 3.433233e-02 3.584802e-02 3.468610e-02 3.518582e-02 3.459582e-02 3.418085e-02 3.470215e-02 3.343815e-02 3.511843e-02 3.270452e-02 3.527990e-02 3.174123e-02 3.524135e-02 3.110675e-02 3.552521e-02 3.138081e-02 3.625686e-02 3.249072e-02 3.681882e-02 3.408455e-02 3.676998e-02 3.706039e-02 3.530852e-02 4.887971e-02 3.873838e-02 3.943507e-02 3.560156e-02 3.667909e-02 
4.149459e-02 4.305216e-02 4.472601e-02 4.983481e-02 5.632286e-02 6.669352e-02 6.163236e-02 6.293351e-02 5.923096e-02 5.982336e-02 5.630435e-02 5.561302e-02 5.015651e-02 4.997517e-02 5.009420e-02 5.002711e-02 5.012113e-02 5.006996e-02 5.006113e-02 5.012115e-02 4.993883e-02 5.027150e-02 5.371857e-02 5.570877e-02 5.723451e-02 5.826902e-02 5.901440e-02 5.951790e-02 6.037822e-02 6.059658e-02 6.169111e-02 6.144837e-02 6.240162e-02 6.150299e-02 6.215367e-02 6.092515e-02 6.153605e-02 6.049272e-02 6.119311e-02 6.048981e-02 6.104820e-02 6.047196e-02 6.055883e-02 5.996893e-02 5.957540e-02 5.912293e-02 5.830586e-02 5.799022e-02 5.644815e-02 5.600621e-02 5.312231e-02 5.221814e-02 4.704046e-02 4.537417e-02 3.594234e-02 3.211547e-02 1.285537e-02 1.336092e-02 1.846003e-02 1.722091e-02 2.359419e-02 1.942996e-02 2.601035e-02 2.061602e-02 2.740610e-02 2.307679e-02 2.957083e-02 2.706114e-02 3.119270e-02 2.956275e-02 3.092393e-02 3.255098e-02 2.967442e-02 4.094379e-02 4.402625e-02 5.006532e-02 5.199062e-02 5.491703e-02 5.628587e-02 5.769382e-02 5.886636e-02 5.969158e-02 6.073253e-02 6.127015e-02 6.190540e-02 6.214443e-02 6.221736e-02 6.245008e-02 6.220448e-02 6.284538e-02 6.236709e-02 6.340778e-02 6.249780e-02 6.371165e-02 6.226285e-02 6.360531e-02 6.191533e-02 6.362643e-02 6.207766e-02 6.404624e-02 6.257065e-02 6.430573e-02 6.282220e-02 6.406170e-02 6.283692e-02 6.364535e-02 6.308476e-02 6.346964e-02 6.362506e-02 6.329179e-02 6.399688e-02 6.287671e-02 6.420175e-02 6.259025e-02 6.460894e-02 6.282003e-02 6.530979e-02 6.345551e-02 6.588939e-02 6.413411e-02 6.629519e-02 6.521682e-02 6.765801e-02 6.425745e-02 5.326430e-02 4.800194e-02 4.356683e-02 4.262149e-02 
5.278100e-02 5.434747e-02 5.437135e-02 5.808689e-02 5.943127e-02 6.698469e-02 6.768595e-02 6.818337e-02 6.785163e-02 6.835088e-02 6.783558e-02 6.828247e-02 6.760430e-02 6.745344e-02 6.754198e-02 6.749460e-02 6.758793e-02 6.753583e-02 6.755623e-02 6.758904e-02 6.745613e-02 6.766322e-02 6.748628e-02 6.790483e-02 6.747718e-02 6.786897e-02 6.757170e-02 6.780908e-02 6.780422e-02 6.784376e-02 6.811769e-02 6.789537e-02 6.831520e-02 6.780407e-02 6.827288e-02 6.758075e-02 6.808573e-02 6.738361e-02 6.789560e-02 6.728163e-02 6.771139e-02 6.718226e-02 6.744166e-02 6.698410e-02 6.706853e-02 6.672457e-02 6.668462e-02 6.649418e-02 6.641563e-02 6.640877e-02 6.656785e-02 6.688790e-02 6.813400e-02 6.936756e-02 7.408486e-02 7.816675e-02 9.096940e-02 8.990468e-02 8.906070e-02 8.972061e-02 8.830762e-02 8.966315e-02 8.565678e-02 8.782377e-02 8.277357e-02 8.680215e-02 8.187958e-02 8.555775e-02 8.028606e-02 8.091434e-02 7.829760e-02 7.749546e-02 8.241022e-02 7.238165e-02 7.064174e-02 6.664926e-02 6.669666e-02 6.558719e-02 6.617429e-02 6.600169e-02 6.666193e-02 6.678915e-02 6.734735e-02 6.756581e-02 6.790750e-02 6.815761e-02 6.822583e-02 6.857781e-02 6.838954e-02 6.895765e-02 6.851203e-02 6.932121e-02 6.858313e-02 6.958635e-02 6.856392e-02 6.973130e-02 6.852780e-02 6.986203e-02 6.860690e-02 7.002699e-02 6.878057e-02 7.011905e-02 6.893951e-02 7.006748e-02 6.907681e-02 6.993893e-02 6.927619e-02 6.982097e-02 6.954024e-02 6.968524e-02 6.976901e-02 6.950215e-02 6.993262e-02 6.934440e-02 7.006267e-02 6.927362e-02 7.011771e-02 6.921977e-02 6.995220e-02 6.902259e-02 6.955883e-02 6.855071e-02 6.971700e-02 6.410743e-02 5.957346e-02 5.693344e-02 5.430287e-02 5.401643e-02 
5.225161e-02 5.339663e-02 5.372144e-02 5.632098e-02 5.750394e-02 6.114735e-02 6.219795e-02 6.435705e-02 6.556865e-02 6.706911e-02 6.994415e-02 7.148998e-02 7.801831e-02 7.795949e-02 7.801574e-02 7.797056e-02 7.800555e-02 7.799368e-02 7.799014e-02 7.802332e-02 7.798028e-02 7.804698e-02 7.288084e-02 7.144382e-02 6.843328e-02 6.770765e-02 6.612933e-02 6.567248e-02 6.503380e-02 6.463060e-02 6.461269e-02 6.411532e-02 6.445564e-02 6.379449e-02 6.431428e-02 6.353434e-02 6.414650e-02 6.335658e-02 6.399863e-02 6.328117e-02 6.387052e-02 6.325113e-02 6.370986e-02 6.320001e-02 6.350898e-02 6.313670e-02 6.333270e-02 6.311002e-02 6.328576e-02 6.321251e-02 6.364302e-02 6.380678e-02 6.528794e-02 6.609898e-02 7.080798e-02 7.391401e-02 8.746709e-02 8.792911e-02 8.436978e-02 8.616280e-02 8.268934e-02 8.505275e-02 8.161586e-02 8.400539e-02 8.033090e-02 8.187216e-02 7.842640e-02 7.842775e-02 7.624263e-02 7.593434e-02 7.404647e-02 7.377721e-02 7.619125e-02 6.838632e-02 6.750454e-02 6.457906e-02 6.492886e-02 6.379769e-02 6.431329e-02 6.377093e-02 6.426379e-02 6.398103e-02 6.438682e-02 6.426889e-02 6.450776e-02 6.453204e-02 6.454304e-02 6.475614e-02 6.453197e-02 6.500171e-02 6.453886e-02 6.527467e-02 6.455348e-02 6.551025e-02 6.454112e-02 6.567015e-02 6.453286e-02 6.579275e-02 6.459820e-02 6.589592e-02 6.472769e-02 6.591959e-02 6.486433e-02 6.582827e-02 6.500756e-02 6.566751e-02 6.519913e-02 6.548849e-02 6.541951e-02 6.526851e-02 6.558169e-02 6.498115e-02 6.563796e-02 6.466192e-02 6.557841e-02 6.433283e-02 6.533472e-02 6.390587e-02 6.473523e-02 6.318810e-02 6.357712e-02 6.193545e-02 6.162418e-02 5.923423e-02 5.698051e-02 5.524951e-02 5.343289e-02 5.305569e-02 
5.732532e-02 5.857674e-02 5.842215e-02 6.095564e-02 6.151889e-02 6.478218e-02 6.578566e-02 6.767727e-02 6.910317e-02 7.037212e-02 7.331292e-02 7.476915e-02 8.151777e-02 8.145312e-02 8.151297e-02 8.146534e-02 8.150698e-02 8.149172e-02 8.148856e-02 8.152523e-02 8.146764e-02 8.155355e-02 7.659960e-02 7.522067e-02 7.240159e-02 7.175799e-02 7.024517e-02 6.987903e-02 6.918222e-02 6.888536e-02 6.873728e-02 6.839391e-02 6.860653e-02 6.816422e-02 6.859273e-02 6.805749e-02 6.860053e-02 6.802647e-02 6.861915e-02 6.807595e-02 6.867172e-02 6.821236e-02 6.877836e-02 6.843777e-02 6.897097e-02 6.877849e-02 6.931526e-02 6.929327e-02 6.991644e-02 7.008346e-02 7.095270e-02 7.134677e-02 7.272210e-02 7.337214e-02 7.548714e-02 7.634351e-02 7.933058e-02 7.916206e-02 7.663888e-02 7.881883e-02 7.620102e-02 7.810540e-02 7.653706e-02 7.725731e-02 7.650801e-02 7.629315e-02 7.613108e-02 7.647260e-02 7.637922e-02 7.821335e-02 7.851853e-02 8.055410e-02 7.995672e-02 7.678578e-02 7.599217e-02 7.375326e-02 7.337586e-02 7.172095e-02 7.151714e-02 7.037827e-02 7.032949e-02 6.962943e-02 6.965947e-02 6.930303e-02 6.930199e-02 6.921719e-02 6.909426e-02 6.925842e-02 6.896598e-02 6.938705e-02 6.890508e-02 6.957871e-02 6.889675e-02 6.978744e-02 6.891243e-02 6.996662e-02 6.893854e-02 7.009480e-02 6.898200e-02 7.016444e-02 6.904834e-02 7.016828e-02 6.913838e-02 7.011119e-02 6.926057e-02 7.001410e-02 6.941736e-02 6.988542e-02 6.957396e-02 6.970312e-02 6.966708e-02 6.944415e-02 6.964784e-02 6.911110e-02 6.948920e-02 6.870037e-02 6.914132e-02 6.814031e-02 6.849438e-02 6.725998e-02 6.737211e-02 6.576373e-02 6.543303e-02 6.307836e-02 6.147066e-02 5.996423e-02 5.842529e-02 5.825967e-02 
5.230073e-02 5.344626e-02 5.376031e-02 5.635980e-02 5.753206e-02 6.117481e-02 6.221524e-02 6.436787e-02 6.557503e-02 6.706755e-02 6.994356e-02 7.148337e-02 7.801541e-02 7.795252e-02 7.801123e-02 7.796294e-02 7.800213e-02 7.798798e-02 7.798869e-02 7.801986e-02 7.797411e-02 7.804692e-02 7.291992e-02 7.152690e-02 6.856155e-02 6.787645e-02 6.629519e-02 6.581535e-02 6.512058e-02 6.466355e-02 6.462653e-02 6.412877e-02 6.456013e-02 6.396505e-02 6.465544e-02 6.393226e-02 6.472135e-02 6.392774e-02 6.475248e-02 6.400893e-02 6.484424e-02 6.423679e-02 6.504123e-02 6.460769e-02 6.536545e-02 6.514250e-02 6.589719e-02 6.591991e-02 6.675123e-02 6.702177e-02 6.803539e-02 6.855309e-02 6.991895e-02 7.071007e-02 7.252491e-02 7.349607e-02 7.532553e-02 7.604721e-02 7.553337e-02 7.652807e-02 7.522776e-02 7.640499e-02 7.485094e-02 7.593833e-02 7.445353e-02 7.532817e-02 7.427671e-02 7.485454e-02 7.444180e-02 7.477567e-02 7.479291e-02 7.431534e-02 7.439194e-02 7.230273e-02 7.200724e-02 6.984269e-02 6.955024e-02 6.773346e-02 6.762700e-02 6.628879e-02 6.638928e-02 6.550787e-02 6.571351e-02 6.519723e-02 6.534526e-02 6.510830e-02 6.507445e-02 6.510633e-02 6.485497e-02 6.520250e-02 6.474582e-02 6.542778e-02 6.475806e-02 6.571570e-02 6.481524e-02 6.595490e-02 6.485155e-02 6.608336e-02 6.486184e-02 6.609936e-02 6.488002e-02 6.602859e-02 6.494289e-02 6.590865e-02 6.509187e-02 6.579128e-02 6.534241e-02 6.567703e-02 6.561487e-02 6.548592e-02 6.577046e-02 6.514625e-02 6.573291e-02 6.469882e-02 6.554010e-02 6.424611e-02 6.521194e-02 6.377511e-02 6.462154e-02 6.309958e-02 6.353131e-02 6.191584e-02 6.164419e-02 5.927281e-02 5.703008e-02 5.530749e-02 5.348801e-02 5.311369e-02 
5.290032e-02 5.446393e-02 5.446121e-02 5.817505e-02 5.949601e-02 6.704820e-02 6.772440e-02 6.820236e-02 6.786737e-02 6.834791e-02 6.784037e-02 6.827433e-02 6.760491e-02 6.744665e-02 6.754048e-02 6.748831e-02 6.758475e-02 6.752802e-02 6.753981e-02 6.756891e-02 6.740678e-02 6.764526e-02 6.755205e-02 6.807401e-02 6.773407e-02 6.821819e-02 6.791469e-02 6.811831e-02 6.800371e-02 6.794532e-02 6.817899e-02 6.795466e-02 6.854107e-02 6.815082e-02 6.893224e-02 6.834102e-02 6.916688e-02 6.844718e-02 6.929195e-02 6.861233e-02 6.948726e-02 6.895639e-02 6.981492e-02 6.946381e-02 7.027166e-02 7.013904e-02 7.092358e-02 7.105329e-02 7.183948e-02 7.220362e-02 7.294945e-02 7.346916e-02 7.412960e-02 7.477033e-02 7.527573e-02 7.599040e-02 7.609902e-02 7.683756e-02 7.611292e-02 7.715651e-02 7.616593e-02 7.736239e-02 7.664330e-02 7.788555e-02 7.768417e-02 7.893303e-02 7.913202e-02 8.029839e-02 8.050009e-02 8.122161e-02 8.107832e-02 8.080223e-02 8.008396e-02 7.862664e-02 7.771484e-02 7.592157e-02 7.519968e-02 7.353838e-02 7.312687e-02 7.179841e-02 7.167530e-02 7.074061e-02 7.078868e-02 7.019746e-02 7.022546e-02 6.989848e-02 6.976242e-02 6.970491e-02 6.937724e-02 6.966877e-02 6.918019e-02 6.985845e-02 6.918929e-02 7.017715e-02 6.927104e-02 7.045170e-02 6.930659e-02 7.058477e-02 6.927546e-02 7.057847e-02 6.923135e-02 7.048181e-02 6.923352e-02 7.035069e-02 6.934725e-02 7.026009e-02 6.960756e-02 7.020800e-02 6.991284e-02 7.007242e-02 7.007915e-02 6.974651e-02 7.002706e-02 6.931429e-02 6.988128e-02 6.899216e-02 6.976747e-02 6.885274e-02 6.962802e-02 6.875585e-02 6.940115e-02 6.847287e-02 6.977847e-02 6.423730e-02 5.972101e-02 5.709730e-02 5.444858e-02 5.416279e-02 
4.164496e-02 4.319930e-02 4.483514e-02 4.994546e-02 5.639945e-02 6.678427e-02 6.169158e-02 6.296807e-02 5.923987e-02 5.979754e-02 5.628067e-02 5.557436e-02 5.014110e-02 4.995032e-02 5.007095e-02 4.999489e-02 5.010828e-02 5.005241e-02 5.008416e-02 5.010608e-02 4.994338e-02 5.011249e-02 5.367247e-02 5.593599e-02 5.781722e-02 5.919498e-02 5.996165e-02 6.024323e-02 6.059384e-02 6.029137e-02 6.106110e-02 6.074027e-02 6.211488e-02 6.168886e-02 6.317475e-02 6.229159e-02 6.346762e-02 6.223006e-02 6.327211e-02 6.221643e-02 6.337176e-02 6.268427e-02 6.377847e-02 6.332308e-02 6.421096e-02 6.403491e-02 6.488271e-02 6.519108e-02 6.613965e-02 6.681482e-02 6.759992e-02 6.827425e-02 6.874303e-02 6.947514e-02 6.987589e-02 7.093790e-02 7.131724e-02 7.264056e-02 7.257120e-02 7.379877e-02 7.310546e-02 7.411338e-02 7.323016e-02 7.428452e-02 7.375895e-02 7.486181e-02 7.466112e-02 7.531368e-02 7.496968e-02 7.462596e-02 7.397171e-02 7.267934e-02 7.202643e-02 7.032857e-02 6.995684e-02 6.818668e-02 6.807144e-02 6.632156e-02 6.635239e-02 6.478221e-02 6.505391e-02 6.395212e-02 6.446810e-02 6.377932e-02 6.414891e-02 6.360867e-02 6.353422e-02 6.317978e-02 6.276223e-02 6.293852e-02 6.245086e-02 6.335589e-02 6.274704e-02 6.412390e-02 6.312142e-02 6.466349e-02 6.319779e-02 6.476253e-02 6.299109e-02 6.454620e-02 6.273785e-02 6.419621e-02 6.256443e-02 6.381103e-02 6.266842e-02 6.370173e-02 6.331029e-02 6.394267e-02 6.421987e-02 6.406261e-02 6.473582e-02 6.354129e-02 6.454896e-02 6.263816e-02 6.428907e-02 6.227852e-02 6.462049e-02 6.279860e-02 6.538284e-02 6.383807e-02 6.621089e-02 6.523826e-02 6.782611e-02 6.447495e-02 5.347114e-02 4.822658e-02 4.375717e-02 4.281211e-02 
3.600178e-02 3.698166e-02 3.834625e-02 4.000916e-02 4.501264e-02 4.287949e-02 2.839677e-02 3.857962e-02 2.764072e-02 3.454444e-02 2.641999e-02 2.960954e-02 2.232937e-02 2.515217e-02 2.498555e-02 2.535307e-02 2.570403e-02 2.537040e-02 2.562500e-02 2.521157e-02 2.466981e-02 2.430477e-02 2.817387e-02 2.889885e-02 3.181502e-02 3.137427e-02 3.327269e-02 3.182456e-02 3.320142e-02 3.153158e-02 3.324687e-02 3.208945e-02 3.427197e-02 3.345633e-02 3.541658e-02 3.440214e-02 3.559352e-02 3.442803e-02 3.512458e-02 3.442379e-02 3.500621e-02 3.492061e-02 3.520739e-02 3.547152e-02 3.531945e-02 3.592696e-02 3.560948e-02 3.677366e-02 3.653570e-02 3.804754e-02 3.759897e-02 3.893443e-02 3.815914e-02 3.940944e-02 3.878795e-02 4.037595e-02 4.016211e-02 4.199776e-02 4.169167e-02 4.319454e-02 4.246991e-02 4.338938e-02 4.261361e-02 4.342172e-02 4.313575e-02 4.403511e-02 4.412749e-02 4.466018e-02 4.457051e-02 4.428049e-02 4.379620e-02 4.291111e-02 4.257409e-02 4.143808e-02 4.149583e-02 4.035791e-02 4.056202e-02 3.933287e-02 3.944005e-02 3.826093e-02 3.841603e-02 3.768054e-02 3.795656e-02 3.761318e-02 3.756576e-02 3.726620e-02 3.656923e-02 3.634374e-02 3.519200e-02 3.547328e-02 3.428800e-02 3.532804e-02 3.410323e-02 3.556647e-02 3.401012e-02 3.550656e-02 3.359690e-02 3.495231e-02 3.295304e-02 3.413412e-02 3.243619e-02 3.332998e-02 3.222501e-02 3.267733e-02 3.256732e-02 3.258471e-02 3.378244e-02 3.313748e-02 3.547073e-02 3.368249e-02 3.669456e-02 3.348017e-02 3.695476e-02 3.280653e-02 3.698049e-02 3.282378e-02 3.754374e-02 3.394956e-02 3.829329e-02 3.578487e-02 3.834414e-02 3.852251e-02 3.635787e-02 4.970723e-02 3.931745e-02 3.993300e-02 3.596379e-02 3.699912e-02 
9.958099e-03 8.744016e-03 6.620950e-03 7.424625e-04 -5.850333e-03 -2.100551e-02 -2.630068e-02 -1.981785e-02 -2.482510e-02 -1.996693e-02 -2.363369e-02 -2.051830e-02 -2.247912e-02 -2.304091e-02 -2.596098e-02 -2.650797e-02 -2.631273e-02 -2.765788e-02 -2.539074e-02 -2.708791e-02 -2.254592e-02 -2.335874e-02 -2.060551e-02 -2.327663e-02 -2.096266e-02 -2.332784e-02 -2.123594e-02 -2.292325e-02 -2.120132e-02 -2.233099e-02 -2.128096e-02 -2.206156e-02 -2.171658e-02 -2.208784e-02 -2.218006e-02 -2.199002e-02 -2.229431e-02 -2.163232e-02 -2.220079e-02 -2.137296e-02 -2.227287e-02 -2.141342e-02 -2.249526e-02 -2.157991e-02 -2.270328e-02 -2.179700e-02 -2.296621e-02 -2.221221e-02 -2.341152e-02 -2.279511e-02 -2.381098e-02 -2.319063e-02 -2.388261e-02 -2.332261e-02 -2.379945e-02 -2.348169e-02 -2.384805e-02 -2.381110e-02 -2.403624e-02 -2.412710e-02 -2.406521e-02 -2.423807e-02 -2.408795e-02 -2.444112e-02 -2.447399e-02 -2.499688e-02 -2.516336e-02 -2.563945e-02 -2.569902e-02 -2.577569e-02 -2.575476e-02 -2.536295e-02 -2.532244e-02 -2.477415e-02 -2.478838e-02 -2.404043e-02 -2.409330e-02 -2.315608e-02 -2.323766e-02 -2.223698e-02 -2.245913e-02 -2.161504e-02 -2.203787e-02 -2.139727e-02 -2.186311e-02 -2.135204e-02 -2.171843e-02 -2.138885e-02 -2.168055e-02 -2.171264e-02 -2.201831e-02 -2.250392e-02 -2.274080e-02 -2.354662e-02 -2.351379e-02 -2.449112e-02 -2.407829e-02 -2.516894e-02 -2.436946e-02 -2.557517e-02 -2.443474e-02 -2.573844e-02 -2.428784e-02 -2.567089e-02 -2.401851e-02 -2.552554e-02 -2.379700e-02 -2.537599e-02 -2.357517e-02 -2.505224e-02 -2.313674e-02 -2.436231e-02 -2.244079e-02 -2.347871e-02 -2.189717e-02 -2.287547e-02 -2.192539e-02 -2.270192e-02 -2.255953e-02 -2.266757e-02 -2.383926e-02 -2.217271e-02 -2.700900e-02 -1.135298e-02 -4.346980e-03 4.486851e-03 7.088508e-03 9.746726e-03 
1.004028e-02 8.386413e-03 6.067551e-03 1.155276e-03 -6.651684e-03 -1.273773e-02 -3.662576e-03 -9.692507e-03 -2.511247e-03 -5.122731e-03 7.998680e-04 2.659884e-03 9.984059e-03 1.582859e-02 1.927656e-02 2.154416e-02 2.165101e-02 2.259861e-02 2.046401e-02 1.910395e-02 1.583573e-02 8.175032e-03 2.874589e-03 -1.609234e-03 -4.231254e-03 -5.837153e-03 -7.063872e-03 -6.763348e-03 -7.552486e-03 -6.462333e-03 -7.860515e-03 -6.862960e-03 -9.033775e-03 -8.021682e-03 -1.023638e-02 -8.723135e-03 -1.039070e-02 -8.508056e-03 -9.872827e-03 -8.332680e-03 -9.732396e-03 -8.748109e-03 -9.933841e-03 -9.275694e-03 -1.005247e-02 -9.755902e-03 -1.037950e-02 -1.070967e-02 -1.143002e-02 -1.223089e-02 -1.278074e-02 -1.359486e-02 -1.392646e-02 -1.493934e-02 -1.561251e-02 -1.727933e-02 -1.846155e-02 -2.048794e-02 -2.121512e-02 -2.279328e-02 -2.284646e-02 -2.352150e-02 -2.321578e-02 -2.353822e-02 -2.335737e-02 -2.354765e-02 -2.353682e-02 -2.304238e-02 -2.284645e-02 -2.150223e-02 -2.067479e-02 -1.895362e-02 -1.847308e-02 -1.614880e-02 -1.638207e-02 -1.414851e-02 -1.474747e-02 -1.252585e-02 -1.315355e-02 -1.109000e-02 -1.185335e-02 -1.037772e-02 -1.132089e-02 -1.040996e-02 -1.103411e-02 -1.035531e-02 -1.028112e-02 -9.891873e-03 -9.284038e-03 -9.645350e-03 -8.902521e-03 -1.026213e-02 -9.335118e-03 -1.131104e-02 -9.857824e-03 -1.200850e-02 -9.980871e-03 -1.208807e-02 -9.742787e-03 -1.172782e-02 -9.459826e-03 -1.116093e-02 -9.277442e-03 -1.050378e-02 -9.451833e-03 -1.019722e-02 -1.035383e-02 -1.037815e-02 -1.162806e-02 -1.042722e-02 -1.236712e-02 -9.639787e-03 -1.212682e-02 -8.359989e-03 -1.172688e-02 -7.814605e-03 -1.200262e-02 -8.397065e-03 -1.261631e-02 -9.555373e-03 -1.278934e-02 -1.112369e-02 -1.206265e-02 -1.447403e-02 -1.418923e-03 3.186868e-03 8.214566e-03 8.928357e-03 
2.721478e-03 1.381104e-03 1.315957e-03 -3.579180e-04 -1.614906e-03 -3.181699e-04 8.815358e-03 -9.209411e-04 6.392444e-03 -3.411117e-04 3.753955e-03 -2.585432e-05 6.303020e-04 1.602693e-03 4.161837e-03 4.969347e-03 4.461514e-03 5.981782e-03 3.551367e-03 5.260556e-03 8.392224e-04 1.438628e-03 2.169108e-04 2.073600e-03 8.368268e-04 2.556407e-03 1.275296e-03 3.162192e-03 1.784652e-03 3.651151e-03 1.925484e-03 3.530075e-03 1.531394e-03 2.965226e-03 1.101328e-03 2.550925e-03 1.121808e-03 2.489489e-03 1.423205e-03 2.388895e-03 1.564786e-03 2.038342e-03 1.557377e-03 1.645773e-03 1.548747e-03 1.260361e-03 1.363786e-03 6.349421e-04 7.267973e-04 -3.320994e-04 -3.043164e-04 -1.502081e-03 -1.730584e-03 -3.172822e-03 -4.052332e-03 -5.903313e-03 -7.341162e-03 -8.975695e-03 -9.046015e-03 -1.041435e-02 -1.008386e-02 -1.090585e-02 -1.057629e-02 -1.114406e-02 -1.102842e-02 -1.147189e-02 -1.148980e-02 -1.167994e-02 -1.175584e-02 -1.140278e-02 -1.129195e-02 -1.040343e-02 -1.026580e-02 -7.606170e-03 -7.633854e-03 -5.056192e-03 -5.265080e-03 -2.976267e-03 -3.266383e-03 -1.409331e-03 -1.788950e-03 -5.314601e-04 -9.282919e-04 -2.198323e-04 -3.247047e-04 1.056648e-05 4.232288e-04 3.699182e-04 1.239421e-03 6.025566e-04 1.746308e-03 4.511148e-04 1.865419e-03 1.332751e-04 1.909034e-03 8.342136e-06 2.064468e-03 1.807741e-04 2.270177e-03 5.612457e-04 2.375466e-03 1.057569e-03 2.314683e-03 1.604217e-03 1.966449e-03 1.981693e-03 1.183484e-03 2.116667e-03 1.808737e-04 2.294986e-03 -5.518973e-04 2.825600e-03 -7.467983e-04 3.530569e-03 -6.776145e-04 3.867645e-03 -5.830125e-04 3.687905e-03 -1.248233e-04 3.250310e-03 1.330610e-03 2.406696e-03 4.608377e-03 -5.195974e-03 7.419879e-04 -9.952539e-04 2.412991e-03 1.209829e-03 
