# vtk DataFile Version 2.0
Comment goes here
ASCII

DATASET STRUCTURED_POINTS
FIELD FieldData 1
TIME 1 1 double
0.21000000
DIMENSIONS    128   16   1

ORIGIN    0.000   0.000   0.000
SPACING   0.0078125 0.015625   1.000

POINT_DATA   2048
SCALARS uX double
LOOKUP_TABLE default

4.605206e-03 -3.492039e-05 3.695791e-03 -3.280506e-03 2.180504e-03 -8.377549e-03 5.674908e-03 -3.862927e-03 1.271274e-03 -4.716816e-03 -3.899869e-03 -9.421508e-03 -1.501094e-02 -2.508570e-02 -3.176683e-02 -3.175670e-02 -3.663602e-02 -3.331609e-02 -3.397842e-02 -2.901119e-02 -2.460771e-02 -9.839616e-03 -6.678869e-03 6.164414e-04 -6.896176e-04 2.288514e-03 2.978695e-04 3.429718e-03 9.738386e-04 5.036172e-03 2.131541e-03 5.481993e-03 4.782367e-03 7.314115e-03 7.493104e-03 8.529154e-03 6.669291e-03 7.810739e-03 6.222959e-03 6.375541e-03 6.270866e-03 5.135237e-03 6.196770e-03 4.386138e-03 5.161998e-03 3.305645e-03 4.768420e-03 4.859649e-03 5.431920e-03 6.978180e-03 4.993575e-03 5.953380e-03 5.913713e-03 4.510668e-03 7.583342e-03 6.110611e-03 8.576916e-03 1.396581e-02 8.146469e-03 -9.392647e-03 -2.716548e-02 -3.464062e-02 -2.936768e-02 -1.512385e-02 -6.862182e-03 -9.180352e-03 -6.492403e-03 -3.447458e-03 -4.175872e-03 3.896861e-03 -1.858979e-03 1.234862e-04 8.413921e-03 1.429778e-02 1.346667e-02 1.155897e-02 1.187120e-02 8.067579e-03 7.795942e-03 6.445650e-03 5.246926e-03 4.965163e-03 2.899156e-03 2.478110e-03 1.562978e-03 2.281644e-03 1.930492e-03 3.248467e-03 1.979094e-03 3.249409e-03 3.733651e-04 6.321685e-04 -1.942031e-03 -2.511395e-03 -2.859282e-03 -3.884055e-03 -3.002977e-03 -4.128234e-03 -3.817056e-03 -5.113850e-03 -4.012176e-03 -5.115051e-03 -2.257804e-03 -4.056778e-03 -1.951009e-03 -3.836560e-03 -2.783481e-03 -5.212437e-03 -4.970169e-03 -6.504389e-03 -5.999717e-03 -6.227483e-03 -5.718659e-03 -3.587863e-03 -4.083550e-03 -7.889772e-04 -3.785139e-03 1.929399e-03 -3.083226e-03 3.257452e-03 -2.262939e-03 3.839304e-03 1.667297e-03 -8.803853e-04 3.301447e-03 7.439768e-04 4.552863e-03 1.229344e-03 
2.211815e-03 -1.645605e-03 1.025128e-03 -4.770141e-03 -1.367689e-03 -1.178216e-02 4.577871e-03 -3.300677e-03 -6.106913e-05 -2.156557e-03 -4.293412e-03 -1.833883e-03 -1.008837e-02 -2.465823e-03 -6.289649e-03 -8.346290e-04 -4.978179e-03 4.221063e-05 -4.549918e-03 -1.352369e-03 -4.210310e-03 -2.091303e-03 1.471058e-03 4.080626e-03 3.939513e-03 1.489750e-03 -3.502605e-04 -1.298847e-03 -4.336568e-03 3.372597e-04 -2.031348e-03 2.461470e-03 4.912525e-03 7.040466e-03 8.599159e-03 8.221972e-03 5.194789e-03 6.956409e-03 4.895489e-03 5.041962e-03 5.926898e-03 3.483942e-03 5.687883e-03 1.828977e-03 2.454480e-03 -2.233843e-03 -6.227641e-04 -1.147049e-03 -1.543270e-03 1.245552e-03 -4.485201e-03 -4.164485e-03 -6.354145e-03 -1.310475e-02 -8.255581e-03 -1.446154e-02 -1.494345e-02 -8.092581e-03 -1.486606e-02 -1.858272e-02 -1.541330e-02 -1.528157e-02 -1.056773e-02 -9.568592e-03 -1.476587e-02 -1.955095e-02 -2.384497e-02 -2.546633e-02 -1.606203e-02 -8.812963e-03 -4.991253e-03 4.902949e-03 1.633737e-03 1.283571e-02 1.514811e-02 1.355634e-02 1.753667e-02 1.004694e-02 1.131125e-02 8.140772e-03 5.574711e-03 3.830833e-03 -4.498836e-04 -2.559060e-03 -2.682635e-03 -2.270154e-03 -1.873151e-03 -1.215667e-03 -1.887911e-03 1.077447e-04 -3.081678e-03 -1.460784e-03 -4.781804e-03 -6.055813e-03 -5.592132e-03 -7.090104e-03 -4.272249e-03 -5.934081e-03 -5.201074e-03 -5.962616e-03 -4.552690e-03 -4.163194e-03 1.185650e-03 -4.232909e-04 1.941320e-03 -9.518630e-04 -1.701895e-03 -6.043772e-03 -7.116067e-03 -9.372371e-03 -9.102897e-03 -1.043521e-02 -9.347717e-03 -7.643000e-03 -7.244770e-03 -4.974472e-03 -8.178129e-03 -1.587238e-03 -6.748261e-03 7.381019e-04 -5.506820e-03 2.747498e-03 -7.090658e-04 -4.601113e-03 2.734218e-03 -9.245768e-04 2.806998e-03 -4.831697e-04 
7.924069e-03 5.179257e-03 5.844904e-03 1.515700e-03 -3.261010e-04 -1.128813e-02 -1.351996e-03 -7.424178e-03 -6.160822e-04 -4.872951e-03 2.078600e-04 -1.082529e-03 6.849007e-03 8.385523e-03 1.309741e-02 1.283933e-02 1.479775e-02 1.358269e-02 1.184167e-02 1.356202e-02 8.457487e-03 7.978648e-03 4.808026e-03 8.314839e-03 3.542584e-03 1.972025e-03 -5.520906e-03 -1.017119e-02 -1.760299e-02 -1.436624e-02 -1.593862e-02 -6.239546e-03 -4.034049e-03 4.107306e-03 6.361076e-04 3.535288e-03 -1.481945e-03 -2.407740e-03 -4.716940e-03 -5.646835e-03 -4.052018e-03 -4.801351e-03 -4.559698e-03 -6.928840e-03 -9.185176e-03 -1.277502e-02 -1.408816e-02 -1.230812e-02 -9.629154e-03 -6.757785e-03 -4.618437e-03 -5.996888e-03 -7.489660e-03 -1.207001e-02 -1.176509e-02 -1.276085e-02 -1.133918e-02 -1.278771e-02 -1.114502e-02 1.109658e-02 3.469537e-02 5.114742e-02 5.291922e-02 3.566042e-02 2.611716e-02 1.103890e-02 -4.393705e-03 -1.112278e-02 -7.590415e-03 3.691900e-04 1.458848e-02 2.632699e-02 7.390928e-03 1.147122e-03 -3.156648e-03 -5.709872e-03 -3.317456e-03 -3.931150e-03 1.112235e-03 -5.221711e-04 -2.669006e-03 -7.557064e-03 -1.131603e-02 -1.289931e-02 -1.090014e-02 -5.052274e-03 -4.358656e-03 2.233397e-04 9.395428e-04 3.902349e-03 1.466253e-03 3.713100e-03 -6.149444e-04 -2.722680e-03 -4.756715e-03 -4.082890e-03 -4.204330e-03 -8.796029e-03 -8.555106e-03 -9.916925e-03 -6.126542e-03 -2.413326e-03 5.015935e-03 6.753936e-03 6.478801e-03 2.993555e-03 -7.877948e-04 -5.117324e-03 -4.540440e-03 -8.166557e-03 -6.564185e-03 -9.672741e-03 -5.371842e-03 -5.536308e-03 -2.296047e-03 1.037378e-03 -9.468193e-04 4.431821e-03 -2.337305e-03 3.592320e-03 -5.053635e-03 1.352119e-03 -7.668646e-03 -4.840570e-03 7.804768e-03 4.914296e-03 8.682178e-03 6.142019e-03 
6.930619e-03 7.937660e-03 4.974599e-03 6.942656e-03 -4.587261e-04 1.330671e-03 -1.835038e-02 -1.383323e-02 -1.394427e-02 -1.564984e-02 -1.249012e-02 -1.701727e-02 -9.083516e-03 -1.750715e-02 -1.336193e-02 -1.933448e-02 -1.507568e-02 -1.992971e-02 -1.584348e-02 -1.826255e-02 -1.630548e-02 -1.760087e-02 -1.807602e-02 -1.732563e-02 -1.874535e-02 -1.432806e-02 -1.834602e-02 -2.046287e-02 -2.338883e-02 -2.745810e-02 -2.566538e-02 -2.083940e-02 -2.473150e-02 -1.649304e-02 -2.495074e-02 -1.882192e-02 -1.965001e-02 -2.400686e-02 -2.330225e-02 -2.527516e-02 -2.548389e-02 -2.212584e-02 -2.609075e-02 -2.191730e-02 -2.523620e-02 -2.114680e-02 -2.499809e-02 -2.402177e-02 -1.899260e-02 -2.490524e-02 -1.044288e-02 -1.731681e-02 -1.547130e-02 -1.157888e-02 -2.174954e-02 -1.319610e-02 -5.926973e-03 -1.738770e-02 -1.832119e-03 -9.765209e-04 -8.580448e-03 -9.796818e-03 -2.143745e-02 -8.182560e-03 2.787121e-03 1.834026e-02 1.800348e-02 1.621329e-02 -8.719495e-03 -3.007416e-02 -3.519263e-02 -4.974128e-02 -3.557476e-02 -5.188935e-02 -5.241495e-02 -4.929001e-02 -5.100095e-02 -3.607553e-02 -3.076060e-02 -2.627292e-02 -2.189295e-02 -2.394304e-02 -1.839509e-02 -1.503415e-02 -1.154355e-02 -3.533099e-03 -2.638384e-03 3.698324e-03 5.919751e-03 6.353033e-03 8.858989e-03 7.713295e-03 7.867335e-03 7.028259e-03 2.391395e-03 4.584039e-03 -2.020474e-03 -6.134010e-03 -7.023201e-03 -9.393864e-03 -6.256609e-03 -4.744639e-03 -4.800944e-03 -1.367916e-03 -4.110681e-03 -4.223785e-03 -4.337481e-03 -2.600166e-03 3.307855e-03 1.791877e-03 6.323443e-03 4.506885e-03 1.018421e-02 7.382814e-03 1.202470e-02 1.381150e-02 1.738539e-02 1.356719e-02 1.303928e-02 8.257141e-03 6.830798e-03 4.214527e-04 -5.642478e-03 5.578961e-03 6.110896e-03 8.293014e-03 7.320325e-03 8.337542e-03 
1.803107e-02 2.169366e-02 1.898728e-02 2.523354e-02 2.301887e-02 3.716650e-02 1.342414e-02 2.291183e-02 1.408599e-02 1.913072e-02 1.360757e-02 1.596502e-02 8.046554e-03 1.168471e-02 9.759760e-03 1.038598e-02 9.996015e-03 1.022737e-02 1.115174e-02 8.503403e-03 9.658431e-03 4.069422e-03 6.208496e-03 1.911238e-03 5.398159e-03 1.056969e-02 1.555916e-02 2.117453e-02 2.666354e-02 2.213286e-02 2.329904e-02 1.631006e-02 9.708403e-03 6.680907e-03 4.201562e-03 5.913141e-03 9.708752e-03 9.483128e-03 1.130048e-02 1.218232e-02 9.057020e-03 1.278147e-02 9.037030e-03 1.506584e-02 1.450929e-02 2.156170e-02 1.955957e-02 1.785800e-02 1.588200e-02 8.262589e-03 1.137929e-02 8.199783e-03 6.805512e-03 1.500362e-02 2.367001e-03 1.205358e-02 1.978526e-03 -3.544778e-03 1.288460e-02 2.148564e-02 2.561792e-02 1.707796e-02 4.827401e-03 5.697123e-03 1.774561e-02 3.807304e-02 5.292419e-02 4.061975e-02 2.460865e-02 -1.547993e-02 -3.124960e-02 -4.700350e-02 -2.758105e-02 -1.977095e-02 -1.645581e-02 -7.425285e-03 -1.256966e-02 -4.940444e-04 -4.050996e-03 2.743913e-03 7.609229e-03 1.428136e-02 2.192733e-02 2.783443e-02 2.758910e-02 2.740136e-02 2.702615e-02 2.695031e-02 2.700614e-02 2.484174e-02 2.833119e-02 2.558271e-02 2.951379e-02 3.172893e-02 2.999177e-02 3.042161e-02 2.535643e-02 2.812072e-02 2.614780e-02 2.610995e-02 2.266077e-02 1.912766e-02 1.005221e-02 1.017956e-02 9.037779e-03 1.346909e-02 1.842227e-02 2.497860e-02 2.862942e-02 3.263598e-02 3.445702e-02 3.779584e-02 3.695611e-02 3.647457e-02 3.588084e-02 3.392859e-02 3.816611e-02 3.043845e-02 3.720155e-02 2.795065e-02 3.588629e-02 2.512638e-02 3.080756e-02 3.410218e-02 1.874105e-02 2.328964e-02 1.777252e-02 2.123075e-02 
1.847296e-02 1.989799e-02 1.965800e-02 2.174594e-02 2.455769e-02 3.122173e-02 3.257012e-02 3.421086e-02 2.995163e-02 3.253079e-02 2.920306e-02 3.054087e-02 2.478639e-02 2.507433e-02 2.476442e-02 2.506123e-02 2.484389e-02 2.478308e-02 2.514858e-02 2.479887e-02 2.546091e-02 2.516268e-02 2.649189e-02 2.412187e-02 2.701641e-02 2.673546e-02 3.238777e-02 3.674201e-02 4.184597e-02 4.232411e-02 4.181086e-02 3.468017e-02 3.419031e-02 2.671704e-02 3.139066e-02 2.783310e-02 3.030380e-02 3.326903e-02 3.376809e-02 3.571754e-02 3.429673e-02 3.412448e-02 3.489575e-02 3.547687e-02 3.738149e-02 3.846333e-02 4.029054e-02 3.909042e-02 3.508091e-02 3.591964e-02 2.825200e-02 3.298490e-02 3.287624e-02 3.779808e-02 4.211534e-02 4.651871e-02 3.746392e-02 3.717016e-02 3.653586e-02 4.078020e-02 4.210336e-02 4.100573e-02 4.824913e-02 3.205704e-02 3.888176e-02 1.654538e-02 1.819942e-02 1.809393e-02 3.249576e-02 5.230857e-02 5.799185e-02 6.066800e-02 5.556051e-02 6.473974e-02 5.969326e-02 5.749588e-02 5.220033e-02 4.585609e-02 3.819825e-02 3.771323e-02 3.609813e-02 4.063993e-02 4.033070e-02 4.088770e-02 3.847565e-02 3.277280e-02 3.216843e-02 2.745784e-02 2.619720e-02 2.436135e-02 2.452769e-02 2.338831e-02 2.516986e-02 2.623562e-02 2.828081e-02 2.641999e-02 2.799325e-02 3.166968e-02 3.067914e-02 3.181474e-02 2.731292e-02 2.425958e-02 1.946609e-02 1.721860e-02 1.856493e-02 2.128797e-02 2.423796e-02 2.687242e-02 2.526366e-02 2.890708e-02 2.747668e-02 3.076690e-02 2.725867e-02 2.903302e-02 2.641344e-02 2.371490e-02 2.420265e-02 2.205806e-02 2.661169e-02 2.397357e-02 2.953785e-02 2.752475e-02 3.501713e-02 2.822025e-02 2.010063e-02 2.110269e-02 1.851160e-02 1.978068e-02 
2.477275e-02 2.619763e-02 2.523551e-02 2.676978e-02 2.663655e-02 2.869656e-02 3.351665e-02 3.494792e-02 3.293580e-02 3.552825e-02 3.358529e-02 3.584166e-02 3.471065e-02 3.522386e-02 3.470864e-02 3.508389e-02 3.486903e-02 3.494640e-02 3.514297e-02 3.482078e-02 3.520755e-02 3.514611e-02 3.514344e-02 3.401527e-02 3.522308e-02 3.321617e-02 3.588986e-02 3.601433e-02 3.828591e-02 3.860563e-02 3.888507e-02 3.581764e-02 3.773926e-02 3.359298e-02 3.695261e-02 3.401357e-02 3.485185e-02 3.611857e-02 3.620515e-02 3.720792e-02 3.720814e-02 3.678371e-02 3.779493e-02 3.726334e-02 3.801854e-02 3.728015e-02 3.832000e-02 3.827968e-02 3.664703e-02 3.876464e-02 3.463001e-02 3.754819e-02 3.955005e-02 3.961383e-02 4.955062e-02 4.594154e-02 5.166891e-02 4.812839e-02 4.499805e-02 4.140430e-02 4.073367e-02 4.526336e-02 4.586515e-02 4.784224e-02 2.436030e-02 2.202487e-02 6.470142e-03 1.688972e-02 3.013320e-02 4.845644e-02 6.489648e-02 6.359897e-02 5.295223e-02 4.598729e-02 4.987447e-02 4.728914e-02 4.934700e-02 4.394114e-02 4.185136e-02 4.053237e-02 3.866658e-02 3.984180e-02 3.793256e-02 3.711702e-02 3.602137e-02 3.323056e-02 3.285886e-02 3.015977e-02 2.944718e-02 2.858046e-02 2.783185e-02 2.761500e-02 2.750653e-02 2.736575e-02 2.847029e-02 2.769042e-02 2.892259e-02 3.029651e-02 2.913500e-02 2.995495e-02 2.722535e-02 2.692915e-02 2.553831e-02 2.510113e-02 2.513468e-02 2.658843e-02 2.636725e-02 2.768200e-02 2.576894e-02 2.819109e-02 2.667699e-02 2.871355e-02 2.683431e-02 2.838575e-02 2.711486e-02 2.610885e-02 2.568303e-02 2.573447e-02 2.713930e-02 2.704954e-02 2.870728e-02 2.942978e-02 3.183409e-02 2.734105e-02 2.649047e-02 2.642549e-02 2.515546e-02 2.605876e-02 
2.375565e-02 2.453343e-02 2.482619e-02 2.602378e-02 2.697452e-02 2.846593e-02 3.018592e-02 3.151849e-02 3.243928e-02 3.341909e-02 3.544854e-02 3.594125e-02 4.170441e-02 4.199239e-02 4.177341e-02 4.196232e-02 4.185209e-02 4.191217e-02 4.195945e-02 4.191413e-02 4.205985e-02 4.198804e-02 3.720345e-02 3.681785e-02 3.541896e-02 3.485739e-02 3.543755e-02 3.505372e-02 3.638057e-02 3.524326e-02 3.631663e-02 3.388723e-02 3.521301e-02 3.249811e-02 3.436754e-02 3.245613e-02 3.396297e-02 3.344762e-02 3.439815e-02 3.428253e-02 3.475237e-02 3.449055e-02 3.492961e-02 3.467761e-02 3.497117e-02 3.472993e-02 3.461310e-02 3.429495e-02 3.305317e-02 3.285182e-02 3.071812e-02 3.007468e-02 2.862204e-02 2.621978e-02 2.607946e-02 2.165032e-02 2.603037e-02 3.240224e-02 2.704802e-02 2.693263e-02 3.044755e-02 3.258965e-02 3.208571e-02 3.331294e-02 2.362646e-02 3.397297e-02 3.844502e-02 4.027659e-02 4.337035e-02 3.801177e-02 4.038192e-02 4.460942e-02 4.485440e-02 4.161081e-02 4.577382e-02 4.515673e-02 4.510493e-02 4.258012e-02 4.061079e-02 3.899794e-02 3.752583e-02 3.689819e-02 3.597926e-02 3.490014e-02 3.415348e-02 3.214034e-02 3.165500e-02 2.956215e-02 2.923646e-02 2.771028e-02 2.774506e-02 2.670977e-02 2.709780e-02 2.651198e-02 2.695663e-02 2.650309e-02 2.657777e-02 2.684500e-02 2.609754e-02 2.625761e-02 2.479902e-02 2.462461e-02 2.322237e-02 2.337737e-02 2.269801e-02 2.378542e-02 2.334389e-02 2.486029e-02 2.398691e-02 2.575085e-02 2.479131e-02 2.625191e-02 2.520555e-02 2.585938e-02 2.525326e-02 2.475131e-02 2.513175e-02 2.425031e-02 2.576195e-02 2.459818e-02 2.651120e-02 2.520194e-02 2.679974e-02 2.502266e-02 2.484714e-02 2.432140e-02 2.380743e-02 2.401368e-02 
2.675644e-02 2.769183e-02 2.750404e-02 2.876734e-02 2.926358e-02 3.065786e-02 3.215004e-02 3.346090e-02 3.421217e-02 3.536262e-02 3.695367e-02 3.770394e-02 4.328864e-02 4.369433e-02 4.334813e-02 4.362021e-02 4.343195e-02 4.351312e-02 4.352200e-02 4.343222e-02 4.357898e-02 4.346191e-02 3.956183e-02 3.909422e-02 3.804685e-02 3.702343e-02 3.747208e-02 3.648607e-02 3.764207e-02 3.649893e-02 3.772459e-02 3.609030e-02 3.754528e-02 3.579566e-02 3.736323e-02 3.598674e-02 3.713919e-02 3.652079e-02 3.732382e-02 3.708659e-02 3.763145e-02 3.734765e-02 3.767077e-02 3.729224e-02 3.728365e-02 3.696863e-02 3.676847e-02 3.684026e-02 3.621461e-02 3.652549e-02 3.525044e-02 3.493490e-02 3.330961e-02 3.151027e-02 2.939635e-02 2.797779e-02 2.952218e-02 3.820607e-02 3.297623e-02 2.947613e-02 2.337600e-02 2.217339e-02 2.469279e-02 2.526861e-02 3.331788e-02 3.281048e-02 4.148439e-02 4.510941e-02 4.364175e-02 4.796906e-02 4.085065e-02 4.422908e-02 4.673669e-02 4.630020e-02 4.371489e-02 4.163669e-02 3.991542e-02 3.822947e-02 3.720785e-02 3.653196e-02 3.598810e-02 3.580462e-02 3.548296e-02 3.502149e-02 3.478627e-02 3.382225e-02 3.356073e-02 3.240529e-02 3.208908e-02 3.115009e-02 3.088648e-02 3.017934e-02 3.002415e-02 2.948726e-02 2.937028e-02 2.899513e-02 2.862280e-02 2.864613e-02 2.776783e-02 2.799968e-02 2.681155e-02 2.718520e-02 2.602764e-02 2.666060e-02 2.559500e-02 2.671362e-02 2.563671e-02 2.708962e-02 2.594766e-02 2.764638e-02 2.665357e-02 2.821910e-02 2.735337e-02 2.838727e-02 2.777540e-02 2.813417e-02 2.804916e-02 2.821239e-02 2.874242e-02 2.865047e-02 2.940767e-02 2.886780e-02 2.948214e-02 2.812190e-02 2.798110e-02 2.751374e-02 2.696101e-02 2.730484e-02 
2.374635e-02 2.450618e-02 2.484675e-02 2.607061e-02 2.706406e-02 2.858858e-02 3.030354e-02 3.162843e-02 3.243343e-02 3.334623e-02 3.525738e-02 3.578752e-02 4.155683e-02 4.191835e-02 4.161216e-02 4.183810e-02 4.164962e-02 4.172442e-02 4.167729e-02 4.161531e-02 4.165269e-02 4.154513e-02 3.747955e-02 3.694603e-02 3.565321e-02 3.461706e-02 3.490796e-02 3.377447e-02 3.506119e-02 3.376051e-02 3.522863e-02 3.356788e-02 3.508308e-02 3.334459e-02 3.486630e-02 3.337241e-02 3.474703e-02 3.380386e-02 3.502294e-02 3.467140e-02 3.554974e-02 3.521572e-02 3.551531e-02 3.488827e-02 3.452752e-02 3.381674e-02 3.348398e-02 3.339282e-02 3.344895e-02 3.386344e-02 3.386825e-02 3.395059e-02 3.359394e-02 3.305019e-02 3.258351e-02 3.179227e-02 3.153346e-02 3.257790e-02 3.318822e-02 3.386325e-02 3.438566e-02 3.438851e-02 3.397656e-02 3.401461e-02 3.267852e-02 3.392939e-02 3.337878e-02 3.411302e-02 3.279172e-02 3.148435e-02 2.800266e-02 2.530655e-02 2.354059e-02 2.302537e-02 2.364567e-02 2.437385e-02 2.574151e-02 2.669955e-02 2.795726e-02 2.867587e-02 2.973665e-02 3.010132e-02 3.111948e-02 3.102167e-02 3.172920e-02 3.083963e-02 3.101767e-02 2.958959e-02 2.966482e-02 2.843199e-02 2.882315e-02 2.789447e-02 2.825418e-02 2.735306e-02 2.734067e-02 2.651450e-02 2.604720e-02 2.563646e-02 2.488279e-02 2.489934e-02 2.400133e-02 2.437396e-02 2.326649e-02 2.392637e-02 2.266323e-02 2.371944e-02 2.245596e-02 2.392541e-02 2.292714e-02 2.469155e-02 2.409817e-02 2.567799e-02 2.521444e-02 2.580992e-02 2.549104e-02 2.520721e-02 2.576265e-02 2.529627e-02 2.688231e-02 2.609886e-02 2.792697e-02 2.644270e-02 2.770123e-02 2.551520e-02 2.518572e-02 2.442234e-02 2.387508e-02 2.398039e-02 
2.438134e-02 2.585762e-02 2.503243e-02 2.665577e-02 2.661971e-02 2.874297e-02 3.352643e-02 3.482982e-02 3.264836e-02 3.513592e-02 3.288979e-02 3.530072e-02 3.456948e-02 3.535324e-02 3.469947e-02 3.514281e-02 3.482440e-02 3.482959e-02 3.488777e-02 3.443276e-02 3.469939e-02 3.421003e-02 3.566499e-02 3.416887e-02 3.493376e-02 3.304478e-02 3.497613e-02 3.398643e-02 3.671216e-02 3.554925e-02 3.711397e-02 3.542336e-02 3.687235e-02 3.556882e-02 3.744743e-02 3.611300e-02 3.727094e-02 3.625269e-02 3.736811e-02 3.761440e-02 3.862696e-02 3.877326e-02 3.892707e-02 3.808144e-02 3.666362e-02 3.530070e-02 3.449553e-02 3.484479e-02 3.549495e-02 3.675904e-02 3.666222e-02 3.704877e-02 3.583658e-02 3.589281e-02 3.477202e-02 3.497532e-02 3.373791e-02 3.400046e-02 3.156767e-02 3.052429e-02 2.862218e-02 2.794361e-02 2.804313e-02 2.835534e-02 2.978837e-02 2.992846e-02 3.039489e-02 3.021651e-02 2.844737e-02 2.826579e-02 2.533948e-02 2.534481e-02 2.426572e-02 2.556337e-02 2.581494e-02 2.734626e-02 2.786597e-02 2.901891e-02 2.954586e-02 3.054540e-02 3.136112e-02 3.213036e-02 3.343270e-02 3.397453e-02 3.498302e-02 3.465366e-02 3.471310e-02 3.354206e-02 3.322982e-02 3.214845e-02 3.212100e-02 3.112772e-02 3.113143e-02 3.015418e-02 2.989982e-02 2.890646e-02 2.786773e-02 2.724715e-02 2.584751e-02 2.577817e-02 2.482467e-02 2.551276e-02 2.445168e-02 2.535241e-02 2.365644e-02 2.508078e-02 2.337497e-02 2.531155e-02 2.401811e-02 2.641509e-02 2.588597e-02 2.845417e-02 2.802780e-02 2.916742e-02 2.826590e-02 2.826782e-02 2.836031e-02 2.899719e-02 3.025465e-02 3.085562e-02 3.214113e-02 3.175793e-02 3.303389e-02 2.752665e-02 2.636473e-02 2.595966e-02 2.470634e-02 2.554856e-02 
1.801347e-02 1.952526e-02 1.952363e-02 2.180770e-02 2.489567e-02 3.185863e-02 3.356420e-02 3.530558e-02 3.025976e-02 3.191458e-02 2.791480e-02 2.958996e-02 2.425701e-02 2.508010e-02 2.438265e-02 2.475752e-02 2.441997e-02 2.446751e-02 2.456664e-02 2.412751e-02 2.422495e-02 2.320131e-02 3.026166e-02 2.860425e-02 3.112296e-02 2.850440e-02 3.092669e-02 2.928209e-02 3.334770e-02 3.284149e-02 3.541000e-02 3.365567e-02 3.549914e-02 3.326691e-02 3.459618e-02 3.248125e-02 3.386137e-02 3.273533e-02 3.492843e-02 3.656662e-02 3.861483e-02 3.935627e-02 3.966519e-02 3.796459e-02 3.448313e-02 3.080193e-02 2.864125e-02 2.873405e-02 3.079360e-02 3.416932e-02 3.646243e-02 3.718152e-02 3.573606e-02 3.449659e-02 3.343182e-02 3.336723e-02 3.324130e-02 3.284439e-02 3.119359e-02 2.954529e-02 2.805740e-02 2.722547e-02 2.691832e-02 2.831984e-02 2.932952e-02 3.065040e-02 3.082372e-02 3.082614e-02 2.921503e-02 2.818291e-02 2.669980e-02 2.634360e-02 2.516731e-02 2.576887e-02 2.569052e-02 2.650114e-02 2.658585e-02 2.696508e-02 2.692046e-02 2.673094e-02 2.729425e-02 2.757618e-02 3.065184e-02 3.238978e-02 3.516662e-02 3.422548e-02 3.328055e-02 2.951848e-02 2.832515e-02 2.701291e-02 2.927975e-02 2.981828e-02 3.154434e-02 3.018487e-02 2.982191e-02 2.724582e-02 2.558364e-02 2.463927e-02 2.355217e-02 2.395780e-02 2.379184e-02 2.514046e-02 2.413909e-02 2.528050e-02 2.316988e-02 2.430915e-02 2.121116e-02 2.306979e-02 2.129338e-02 2.482414e-02 2.532911e-02 2.964394e-02 2.926768e-02 2.906003e-02 2.628995e-02 2.345626e-02 2.380909e-02 2.395481e-02 2.919012e-02 2.995763e-02 3.586559e-02 3.298611e-02 3.821036e-02 2.865952e-02 2.024577e-02 2.054480e-02 1.801091e-02 1.913889e-02 
1.669550e-02 2.073795e-02 1.848812e-02 2.509168e-02 2.342234e-02 3.807976e-02 1.528677e-02 2.539290e-02 1.565439e-02 1.905514e-02 1.350124e-02 1.565069e-02 7.543135e-03 1.126701e-02 1.024308e-02 1.134656e-02 1.127629e-02 1.160121e-02 1.258679e-02 1.068372e-02 1.141069e-02 7.228472e-03 1.440264e-02 1.200363e-02 1.633790e-02 1.379656e-02 1.427928e-02 1.047820e-02 1.130372e-02 1.102460e-02 1.373448e-02 1.361880e-02 1.483678e-02 1.253465e-02 1.019548e-02 9.197205e-03 9.264941e-03 1.050272e-02 1.178797e-02 1.431699e-02 1.473646e-02 1.611483e-02 1.517315e-02 1.555125e-02 1.250335e-02 1.149164e-02 8.278878e-03 8.809435e-03 8.277293e-03 1.246354e-02 1.549250e-02 1.792442e-02 1.765668e-02 1.646999e-02 1.519449e-02 1.514150e-02 1.487693e-02 1.484351e-02 1.375677e-02 1.251407e-02 1.122425e-02 1.023532e-02 1.004068e-02 1.076436e-02 1.291540e-02 1.511436e-02 1.862968e-02 2.153949e-02 2.284834e-02 2.420081e-02 2.522153e-02 2.757258e-02 2.632296e-02 2.655617e-02 2.418328e-02 2.406712e-02 2.241906e-02 2.192772e-02 2.006800e-02 1.754819e-02 1.543293e-02 1.349341e-02 1.408083e-02 1.464557e-02 1.551225e-02 1.335657e-02 1.065761e-02 6.341684e-03 5.212754e-03 6.434941e-03 1.187277e-02 1.772372e-02 2.231802e-02 2.502616e-02 2.590750e-02 2.673697e-02 2.732548e-02 3.062611e-02 3.284096e-02 3.746961e-02 3.856003e-02 4.227708e-02 4.082288e-02 4.312604e-02 4.085191e-02 4.092987e-02 3.624054e-02 3.569042e-02 3.208840e-02 3.268523e-02 3.119482e-02 3.147179e-02 2.884529e-02 2.401160e-02 2.018741e-02 1.300855e-02 1.402015e-02 9.382051e-03 1.797285e-02 1.452650e-02 2.499703e-02 1.891182e-02 2.543447e-02 2.871668e-02 1.480913e-02 2.005432e-02 1.538660e-02 1.934296e-02 
4.839143e-03 6.524053e-03 4.047663e-03 6.419559e-03 -4.746797e-04 1.611890e-03 -1.735866e-02 -1.225944e-02 -1.124723e-02 -1.246132e-02 -7.591977e-03 -1.229252e-02 -3.994175e-03 -1.236635e-02 -6.378937e-03 -1.269506e-02 -7.086730e-03 -1.266915e-02 -8.161083e-03 -1.228197e-02 -9.619841e-03 -1.023039e-02 -1.467828e-02 -1.480092e-02 -1.478840e-02 -1.365506e-02 -1.623268e-02 -1.737017e-02 -2.212625e-02 -2.235121e-02 -2.364640e-02 -2.186340e-02 -2.315818e-02 -2.214730e-02 -2.528307e-02 -2.343996e-02 -2.511404e-02 -2.295644e-02 -2.494522e-02 -2.573042e-02 -2.809101e-02 -2.839142e-02 -2.923262e-02 -2.672672e-02 -2.366688e-02 -1.921153e-02 -1.814365e-02 -1.779159e-02 -2.072649e-02 -2.234326e-02 -2.289188e-02 -2.199462e-02 -1.926433e-02 -1.842933e-02 -1.705984e-02 -1.755853e-02 -1.728690e-02 -1.733565e-02 -1.559466e-02 -1.448127e-02 -1.311858e-02 -1.296250e-02 -1.319853e-02 -1.527925e-02 -1.664541e-02 -1.759333e-02 -1.685446e-02 -1.543326e-02 -1.354721e-02 -1.201620e-02 -1.080538e-02 -9.603668e-03 -9.866748e-03 -1.070098e-02 -1.184977e-02 -1.249974e-02 -1.243464e-02 -1.275507e-02 -1.262207e-02 -1.398116e-02 -1.527835e-02 -1.733780e-02 -2.066360e-02 -2.330241e-02 -2.610229e-02 -2.679913e-02 -2.667483e-02 -2.459590e-02 -2.279629e-02 -1.995375e-02 -1.828370e-02 -1.450252e-02 -1.244854e-02 -7.929309e-03 -5.378935e-03 -3.015935e-04 3.896401e-03 8.489982e-03 1.283882e-02 1.644661e-02 1.833650e-02 1.970960e-02 2.047442e-02 2.065840e-02 2.181683e-02 1.997139e-02 2.041903e-02 1.674145e-02 1.580426e-02 1.023090e-02 7.439756e-03 1.938658e-04 -1.965736e-03 -6.577230e-03 -5.709472e-03 -8.298206e-03 -7.797971e-03 -1.272689e-02 -1.322072e-02 -1.793120e-02 -1.774806e-02 -1.845367e-02 -2.010125e-02 -3.846917e-03 -1.294585e-03 3.236477e-03 3.345544e-03 5.590995e-03 
6.575223e-03 4.172042e-03 4.953508e-03 7.417539e-04 -1.073862e-03 -1.218290e-02 -2.485343e-03 -8.761210e-03 -4.503064e-04 -3.127815e-03 2.896047e-03 1.537073e-03 9.745076e-03 1.097209e-02 1.565193e-02 1.483298e-02 1.718218e-02 1.611077e-02 1.458707e-02 1.507136e-02 1.133678e-02 9.240092e-03 6.310477e-04 1.370552e-03 -3.051124e-03 -4.161022e-04 -3.211874e-03 9.698103e-05 -4.236659e-03 -2.986136e-03 -7.208483e-03 -5.007550e-03 -7.708789e-03 -4.099375e-03 -4.547927e-03 -1.793033e-03 -3.681419e-03 -2.785839e-03 -5.749963e-03 -7.641858e-03 -9.737279e-03 -1.063974e-02 -1.049843e-02 -9.216344e-03 -5.213676e-03 -1.638390e-03 1.638898e-03 2.311367e-03 1.422944e-03 -1.500626e-03 -4.048015e-03 -4.117483e-03 -1.840894e-03 5.638959e-04 2.642855e-03 2.055586e-03 7.194068e-04 -1.316684e-03 -3.443175e-03 -5.613285e-03 -7.362312e-03 -7.705385e-03 -7.279108e-03 -6.969178e-03 -7.640930e-03 -8.314693e-03 -9.275591e-03 -8.309577e-03 -8.171430e-03 -6.183152e-03 -8.046442e-03 -8.697358e-03 -8.759804e-03 -8.585924e-03 -7.700194e-03 -7.267963e-03 -5.789936e-03 -5.264554e-03 -3.788658e-03 -2.330235e-03 -1.894287e-03 -1.464580e-03 -4.697898e-03 -6.676778e-03 -9.813254e-03 -8.198703e-03 -6.646704e-03 -1.375854e-03 -1.620115e-04 1.187630e-03 -3.141322e-03 -5.078697e-03 -8.195349e-03 -7.033136e-03 -6.282070e-03 -3.288584e-03 -1.146125e-03 -5.172959e-04 3.746610e-04 -7.865349e-04 -2.020575e-04 -2.008414e-03 9.074757e-05 -1.621833e-03 9.379962e-04 -4.437103e-04 3.271123e-03 1.072633e-03 2.799671e-03 -1.407766e-03 -2.562878e-03 -7.259158e-03 -7.184787e-03 -5.807366e-03 -3.103226e-03 1.798674e-03 1.947846e-04 2.369292e-03 -6.148642e-03 -4.387487e-03 -1.408124e-02 -7.790070e-03 -1.484921e-02 -8.592437e-03 4.248911e-03 2.593945e-03 6.524615e-03 4.637824e-03 
1.474023e-03 -2.205050e-03 5.420806e-04 -5.166182e-03 -1.746802e-03 -1.222136e-02 3.951415e-03 -4.196100e-03 -3.874937e-04 -1.869066e-03 -4.004239e-03 -1.642010e-03 -9.694557e-03 -2.651944e-03 -7.058088e-03 -1.681101e-03 -6.180955e-03 -1.256619e-03 -5.353450e-03 -1.485018e-03 -3.818738e-03 -2.900684e-03 -7.092743e-04 6.298352e-04 -1.732759e-04 8.529705e-04 7.130174e-04 3.353512e-03 2.660246e-03 4.376591e-03 2.021049e-03 3.524288e-03 2.435649e-03 4.847137e-03 5.858003e-03 6.970922e-03 6.138121e-03 5.824962e-03 4.678419e-03 3.799452e-03 3.878364e-03 2.920216e-03 4.073670e-03 2.881604e-03 4.529328e-03 3.854149e-03 6.179661e-03 6.522091e-03 8.329765e-03 8.272622e-03 7.963200e-03 8.358146e-03 9.705519e-03 1.062224e-02 1.229886e-02 1.096156e-02 9.332306e-03 6.895156e-03 3.771173e-03 1.993061e-03 1.562383e-03 1.905430e-03 3.418012e-03 4.399880e-03 3.551936e-03 2.779790e-03 1.293047e-03 4.505211e-04 -1.000937e-04 -1.037308e-05 -2.642938e-03 -3.411658e-03 -5.870990e-03 -6.316268e-03 -6.242635e-03 -6.220273e-03 -4.289662e-03 -4.243278e-03 -2.171303e-03 -9.307649e-04 3.857654e-04 1.308308e-03 8.713373e-04 7.702341e-04 2.475753e-04 1.698051e-03 2.508747e-03 5.059096e-03 4.784843e-03 5.050366e-03 1.574781e-03 -4.869131e-04 -3.259139e-03 -4.254750e-03 -4.376317e-03 -4.801833e-03 -4.361516e-03 -6.138399e-03 -6.382162e-03 -8.945715e-03 -7.988275e-03 -1.012646e-02 -7.509132e-03 -9.596130e-03 -7.299493e-03 -8.823812e-03 -6.184586e-03 -7.751508e-03 -6.023112e-03 -7.750111e-03 -6.911540e-03 -7.532376e-03 -6.373063e-03 -3.851024e-03 -3.074122e-03 1.405419e-03 -8.713923e-04 4.261397e-03 -2.072325e-03 3.381638e-03 -3.973497e-03 2.203128e-03 -1.831641e-03 -5.474656e-03 1.514237e-03 -1.922249e-03 1.766147e-03 -1.285102e-03 
