# vtk DataFile Version 2.0
Comment goes here
ASCII

DATASET STRUCTURED_POINTS
FIELD FieldData 1
TIME 1 1 double
0.03000000
DIMENSIONS    64   64   1

ORIGIN    0.000   0.000   0.000
SPACING   0.03125 0.03125   1.000

POINT_DATA   4096
SCALARS uX double
LOOKUP_TABLE default

4.247274e-01 -8.709623e-01 3.886514e-01 -8.532351e-01 2.968858e-01 -8.309549e-01 3.520886e-01 -8.137882e-01 3.829270e-01 -7.843920e-01 3.723076e-01 -7.135481e-01 3.028326e-01 -5.873029e-01 1.817629e-01 -4.245165e-01 3.580049e-02 -2.516267e-01 -1.149148e-01 -8.953227e-02 -2.548356e-01 5.902356e-02 -3.856307e-01 1.917534e-01 -4.936303e-01 2.860811e-01 -5.574410e-01 3.299330e-01 -5.730810e-01 3.225143e-01 -5.372289e-01 2.596805e-01 -4.444274e-01 1.420046e-01 -3.141090e-01 1.289265e-02 -2.027600e-01 -7.203029e-02 -1.530211e-01 -8.884951e-02 -1.787915e-01 -2.671432e-02 -2.793030e-01 9.398079e-02 -4.203173e-01 2.323785e-01 -5.611231e-01 3.460618e-01 -6.554846e-01 3.901243e-01 -6.809311e-01 3.593180e-01 -6.370263e-01 2.626973e-01 -5.217247e-01 9.531459e-02 -3.377195e-01 -1.365387e-01 -1.051155e-01 -4.064842e-01 1.435184e-01 -6.795004e-01 3.684201e-01 -9.059680e-01 
-2.933662e-01 3.116153e-01 -2.888903e-01 3.132440e-01 -1.801481e-01 2.877672e-01 -2.622666e-01 2.678776e-01 -3.116418e-01 2.400636e-01 -3.271974e-01 1.877845e-01 -3.045455e-01 1.005408e-01 -2.535267e-01 -8.952254e-03 -1.921965e-01 -1.205736e-01 -1.198097e-01 -2.210251e-01 -5.288923e-02 -3.093597e-01 1.128136e-02 -3.876388e-01 6.594808e-02 -4.431951e-01 9.627065e-02 -4.686136e-01 1.013279e-01 -4.657436e-01 8.030883e-02 -4.327810e-01 2.782955e-02 -3.675591e-01 -4.675731e-02 -2.960216e-01 -1.085493e-01 -2.490234e-01 -1.388750e-01 -2.331570e-01 -1.357244e-01 -2.527833e-01 -9.598999e-02 -3.007256e-01 -3.543151e-02 -3.548491e-01 2.605559e-02 -3.920719e-01 6.569715e-02 -3.868967e-01 7.882934e-02 -3.425815e-01 5.762823e-02 -2.712349e-01 2.374786e-04 -1.703666e-01 -9.007940e-02 -4.117131e-02 -1.994250e-01 1.033046e-01 -3.070738e-01 2.435971e-01 -3.885913e-01 3.427760e-01 
6.535311e-01 3.975196e-01 4.957520e-01 3.716561e-01 3.739888e-01 3.663012e-01 5.518543e-01 3.472327e-01 6.877323e-01 3.199709e-01 8.144027e-01 2.702335e-01 9.611440e-01 1.940593e-01 1.135898e+00 1.103258e-01 1.325296e+00 2.233803e-02 1.481749e+00 -6.032941e-02 1.610260e+00 -1.367702e-01 1.721644e+00 -2.105888e-01 1.813845e+00 -2.658079e-01 1.874169e+00 -2.941346e-01 1.901177e+00 -2.933570e-01 1.892147e+00 -2.556279e-01 1.837209e+00 -1.740261e-01 1.747294e+00 -7.929061e-02 1.666661e+00 -1.340949e-02 1.624816e+00 8.177543e-03 1.630890e+00 -2.521732e-02 1.688100e+00 -1.018575e-01 1.768761e+00 -1.938181e-01 1.839638e+00 -2.742379e-01 1.861783e+00 -3.214440e-01 1.811180e+00 -3.253626e-01 1.722446e+00 -2.797344e-01 1.598551e+00 -1.799976e-01 1.430874e+00 -3.318211e-02 1.223254e+00 1.396551e-01 9.904857e-01 3.143654e-01 7.520384e-01 4.561481e-01 
1.560744e+00 -1.240285e-01 1.163858e+00 -1.555728e-01 4.999598e-01 -1.397257e-01 1.182280e+00 -1.355758e-01 1.605465e+00 -1.316298e-01 1.896632e+00 -1.136320e-01 2.108864e+00 -6.555036e-02 2.283178e+00 1.664650e-02 2.459902e+00 1.017238e-01 2.549299e+00 1.482944e-01 2.604280e+00 1.843980e-01 2.638049e+00 2.124104e-01 2.663199e+00 2.253333e-01 2.694143e+00 2.232331e-01 2.727355e+00 2.124642e-01 2.761320e+00 1.943997e-01 2.797520e+00 1.679226e-01 2.834725e+00 1.437613e-01 2.857923e+00 1.355002e-01 2.862248e+00 1.396547e-01 2.854166e+00 1.544670e-01 2.831652e+00 1.782464e-01 2.794878e+00 2.010445e-01 2.739548e+00 2.139248e-01 2.667018e+00 1.863633e-01 2.539393e+00 1.118447e-01 2.432452e+00 5.623637e-02 2.352960e+00 1.248937e-02 2.282343e+00 -3.180591e-02 2.200815e+00 -7.999129e-02 2.088821e+00 -1.315046e-01 1.925277e+00 -1.710450e-01 
1.645583e+00 -7.847739e-02 1.308062e+00 -9.928055e-02 7.545038e-01 -9.236299e-02 1.313891e+00 -8.943198e-02 1.678811e+00 -8.166012e-02 1.939005e+00 -6.646239e-02 2.138917e+00 -3.097675e-02 2.315501e+00 4.325960e-02 2.519303e+00 1.191000e-01 2.607207e+00 1.440722e-01 2.664632e+00 1.648219e-01 2.703333e+00 1.777850e-01 2.734548e+00 1.790039e-01 2.770173e+00 1.715213e-01 2.804392e+00 1.624523e-01 2.834019e+00 1.539899e-01 2.855742e+00 1.487865e-01 2.869147e+00 1.480309e-01 2.872587e+00 1.544671e-01 2.867593e+00 1.626876e-01 2.862085e+00 1.682722e-01 2.857178e+00 1.731590e-01 2.846834e+00 1.752269e-01 2.819375e+00 1.775593e-01 2.768345e+00 1.434593e-01 2.621782e+00 5.813580e-02 2.511265e+00 1.014655e-02 2.426387e+00 -1.418111e-02 2.341514e+00 -3.120991e-02 2.240594e+00 -4.721682e-02 2.110872e+00 -6.564126e-02 1.940589e+00 -8.615636e-02 
1.697593e+00 -1.319352e-01 1.386945e+00 -1.366110e-01 9.875279e-01 -1.378456e-01 1.385297e+00 -1.273675e-01 1.708749e+00 -1.206541e-01 1.951233e+00 -1.093809e-01 2.134791e+00 -8.093556e-02 2.294883e+00 3.031367e-03 2.557999e+00 1.397312e-01 2.602543e+00 1.518620e-01 2.644289e+00 1.887961e-01 2.671083e+00 2.113134e-01 2.694787e+00 2.148809e-01 2.730440e+00 2.058202e-01 2.767510e+00 1.900766e-01 2.805664e+00 1.714069e-01 2.834363e+00 1.631004e-01 2.849926e+00 1.591839e-01 2.856481e+00 1.630590e-01 2.851867e+00 1.728120e-01 2.843488e+00 1.782409e-01 2.838590e+00 1.882471e-01 2.828179e+00 1.954222e-01 2.800586e+00 2.093355e-01 2.771143e+00 2.151086e-01 2.555061e+00 6.663764e-02 2.450013e+00 1.619759e-02 2.384994e+00 -1.106875e-02 2.318397e+00 -3.827508e-02 2.234223e+00 -6.923923e-02 2.118276e+00 -1.009953e-01 1.951234e+00 -1.266559e-01 
1.807593e+00 -6.832299e-02 1.549431e+00 -8.054012e-02 1.221814e+00 -8.193186e-02 1.533385e+00 -7.945274e-02 1.796669e+00 -7.956992e-02 1.999401e+00 -8.186572e-02 2.155460e+00 -8.040436e-02 2.303411e+00 -3.933587e-03 2.638668e+00 1.618375e-01 2.647144e+00 1.327507e-01 2.688671e+00 1.633738e-01 2.713339e+00 1.761820e-01 2.735965e+00 1.686402e-01 2.776682e+00 1.535108e-01 2.815270e+00 1.379705e-01 2.852376e+00 1.239106e-01 2.871740e+00 1.327316e-01 2.869814e+00 1.453885e-01 2.862790e+00 1.613028e-01 2.849687e+00 1.765908e-01 2.841132e+00 1.731020e-01 2.852137e+00 1.727766e-01 2.866440e+00 1.669669e-01 2.867499e+00 1.910111e-01 2.900269e+00 2.483762e-01 2.572420e+00 1.010253e-03 2.487415e+00 -3.562212e-02 2.439235e+00 -3.783978e-02 2.375810e+00 -4.007934e-02 2.289806e+00 -4.634564e-02 2.175225e+00 -5.618335e-02 2.021620e+00 -6.844795e-02 
1.890200e+00 -1.041913e-01 1.679106e+00 -1.111795e-01 1.436825e+00 -1.126086e-01 1.657216e+00 -1.098576e-01 1.867640e+00 -1.097066e-01 2.036151e+00 -1.161663e-01 2.152072e+00 -1.433219e-01 2.198934e+00 -2.245235e-01 2.072951e+00 -3.533319e-01 2.136651e+00 -3.552218e-01 2.187255e+00 -3.687228e-01 2.228072e+00 -3.689300e-01 2.254073e+00 -3.558783e-01 2.260653e+00 -3.388241e-01 2.262498e+00 -3.250671e-01 2.264867e+00 -3.209444e-01 2.281172e+00 -3.363167e-01 2.310047e+00 -3.580419e-01 2.337778e+00 -3.773601e-01 2.356975e+00 -3.857912e-01 2.356528e+00 -3.727792e-01 2.332088e+00 -3.477394e-01 2.297966e+00 -3.130453e-01 2.276111e+00 -2.789690e-01 2.270852e+00 -2.423130e-01 2.380504e+00 -1.094247e-01 2.428649e+00 -5.603171e-02 2.414035e+00 -4.260733e-02 2.368482e+00 -4.836337e-02 2.298843e+00 -6.344988e-02 2.201424e+00 -8.174041e-02 2.068014e+00 -9.793001e-02 
2.014025e+00 -5.662800e-02 1.842915e+00 -6.367071e-02 1.651828e+00 -6.505292e-02 1.816319e+00 -6.588540e-02 1.977223e+00 -7.080092e-02 2.102939e+00 -8.803603e-02 2.161474e+00 -1.579828e-01 2.063298e+00 -4.725946e-01 1.361689e+00 -9.713970e-01 1.491453e+00 -9.826539e-01 1.545935e+00 -1.100027e+00 1.614208e+00 -1.154502e+00 1.652901e+00 -1.141046e+00 1.614673e+00 -1.093471e+00 1.560107e+00 -1.043090e+00 1.502865e+00 -1.007135e+00 1.498301e+00 -1.047033e+00 1.557169e+00 -1.111566e+00 1.623606e+00 -1.178796e+00 1.683631e+00 -1.226319e+00 1.699779e+00 -1.202833e+00 1.631528e+00 -1.157713e+00 1.535341e+00 -1.082988e+00 1.478705e+00 -1.069970e+00 1.404798e+00 -1.038502e+00 2.243686e+00 -3.219543e-01 2.459110e+00 -1.207681e-01 2.473712e+00 -6.285317e-02 2.434106e+00 -4.641430e-02 2.368039e+00 -4.422826e-02 2.278391e+00 -4.803033e-02 2.161785e+00 -5.396681e-02 
2.112081e+00 -8.143792e-02 1.983517e+00 -8.652282e-02 1.849119e+00 -8.777216e-02 1.955704e+00 -8.827399e-02 2.073278e+00 -8.979385e-02 2.172989e+00 -9.620468e-02 2.230721e+00 -1.242672e-01 2.206111e+00 -2.527674e-01 1.939508e+00 -4.702804e-01 1.978942e+00 -4.881099e-01 2.012535e+00 -5.497290e-01 2.049374e+00 -5.829733e-01 2.071249e+00 -5.837287e-01 2.058499e+00 -5.683165e-01 2.037774e+00 -5.514587e-01 2.016699e+00 -5.431793e-01 2.021808e+00 -5.707644e-01 2.056301e+00 -6.098400e-01 2.093797e+00 -6.488147e-01 2.125175e+00 -6.751445e-01 2.130585e+00 -6.646744e-01 2.093109e+00 -6.405039e-01 2.040080e+00 -6.006572e-01 2.007169e+00 -5.810969e-01 1.970918e+00 -5.539876e-01 2.355573e+00 -2.035871e-01 2.468883e+00 -8.969796e-02 2.472957e+00 -5.598385e-02 2.442135e+00 -5.041710e-02 2.390780e+00 -5.614225e-02 2.319661e+00 -6.602540e-02 2.226789e+00 -7.558588e-02 
2.239420e+00 -4.307482e-02 2.141844e+00 -4.638747e-02 2.045508e+00 -4.754819e-02 2.115451e+00 -4.985553e-02 2.200646e+00 -5.417151e-02 2.282050e+00 -6.071991e-02 2.354570e+00 -6.136604e-02 2.445827e+00 1.556965e-02 2.765286e+00 1.873666e-01 2.735390e+00 1.547500e-01 2.753405e+00 1.764726e-01 2.761887e+00 1.794185e-01 2.774096e+00 1.630864e-01 2.807501e+00 1.408907e-01 2.840030e+00 1.206658e-01 2.871205e+00 1.048158e-01 2.883838e+00 1.146652e-01 2.874846e+00 1.293265e-01 2.863335e+00 1.451388e-01 2.849848e+00 1.578396e-01 2.844781e+00 1.502263e-01 2.863337e+00 1.450296e-01 2.888318e+00 1.361613e-01 2.902765e+00 1.646975e-01 2.945459e+00 2.202987e-01 2.636214e+00 -1.988639e-02 2.571695e+00 -4.977484e-02 2.547603e+00 -4.451764e-02 2.514944e+00 -3.880368e-02 2.468244e+00 -3.700786e-02 2.406743e+00 -3.829159e-02 2.330024e+00 -4.092346e-02 
2.342154e+00 -6.044846e-02 2.279890e+00 -6.316599e-02 2.225315e+00 -6.416202e-02 2.254847e+00 -6.650211e-02 2.305777e+00 -6.912498e-02 2.363058e+00 -7.166403e-02 2.423679e+00 -6.504741e-02 2.511578e+00 4.519579e-03 2.773256e+00 1.609461e-01 2.770584e+00 1.528842e-01 2.776261e+00 1.814048e-01 2.779001e+00 1.927975e-01 2.787783e+00 1.848541e-01 2.815625e+00 1.688788e-01 2.845418e+00 1.515767e-01 2.874850e+00 1.384987e-01 2.886935e+00 1.470970e-01 2.880242e+00 1.610617e-01 2.869360e+00 1.772012e-01 2.856294e+00 1.901541e-01 2.852585e+00 1.859222e-01 2.868616e+00 1.826922e-01 2.890267e+00 1.771257e-01 2.897412e+00 1.931362e-01 2.915031e+00 2.264503e-01 2.663683e+00 1.731420e-02 2.581396e+00 -3.079620e-02 2.556445e+00 -3.850542e-02 2.533023e+00 -4.091481e-02 2.500650e+00 -4.507052e-02 2.457440e+00 -5.083395e-02 2.403691e+00 -5.644537e-02 
2.466843e+00 -2.845098e-02 2.429063e+00 -2.898651e-02 2.403548e+00 -2.985630e-02 2.407645e+00 -3.255598e-02 2.435282e+00 -3.579138e-02 2.475957e+00 -3.698371e-02 2.528870e+00 -2.381900e-02 2.611236e+00 4.002206e-02 2.786685e+00 1.351029e-01 2.811005e+00 1.461336e-01 2.822098e+00 1.646378e-01 2.828778e+00 1.706027e-01 2.839182e+00 1.643381e-01 2.860954e+00 1.510816e-01 2.885046e+00 1.375627e-01 2.906710e+00 1.293682e-01 2.915188e+00 1.351343e-01 2.910140e+00 1.476924e-01 2.900618e+00 1.619512e-01 2.890910e+00 1.720648e-01 2.889871e+00 1.718955e-01 2.902548e+00 1.687807e-01 2.919470e+00 1.650029e-01 2.923511e+00 1.740277e-01 2.910826e+00 1.540075e-01 2.745608e+00 3.379901e-02 2.665087e+00 -1.335150e-02 2.632898e+00 -2.543234e-02 2.609293e+00 -2.692238e-02 2.581904e+00 -2.671548e-02 2.548144e+00 -2.704810e-02 2.508735e+00 -2.781873e-02 
2.567824e+00 -4.056471e-02 2.559034e+00 -4.095140e-02 2.566046e+00 -4.163091e-02 2.539405e+00 -4.454995e-02 2.538116e+00 -4.766751e-02 2.552802e+00 -5.026353e-02 2.580976e+00 -4.410962e-02 2.638046e+00 9.875076e-03 2.825192e+00 1.470051e-01 2.825134e+00 1.420494e-01 2.824290e+00 1.661161e-01 2.823385e+00 1.737979e-01 2.829039e+00 1.672213e-01 2.848618e+00 1.550076e-01 2.871145e+00 1.416926e-01 2.892216e+00 1.348521e-01 2.897896e+00 1.433425e-01 2.890760e+00 1.560416e-01 2.880527e+00 1.706094e-01 2.869952e+00 1.791360e-01 2.870184e+00 1.749157e-01 2.884725e+00 1.710291e-01 2.905394e+00 1.651268e-01 2.911901e+00 1.756166e-01 2.922722e+00 2.021254e-01 2.728412e+00 2.876031e-02 2.659341e+00 -1.647064e-02 2.642964e+00 -2.644386e-02 2.632932e+00 -2.948527e-02 2.620043e+00 -3.230037e-02 2.603438e+00 -3.562574e-02 2.584782e+00 -3.865402e-02 
2.686069e+00 -1.339286e-02 2.696795e+00 -1.160049e-02 2.726451e+00 -1.212708e-02 2.680801e+00 -1.454676e-02 2.661042e+00 -1.773377e-02 2.658835e+00 -2.199731e-02 2.668968e+00 -2.649010e-02 2.691614e+00 -1.861568e-02 2.739363e+00 5.029265e-03 2.747647e+00 3.101498e-04 2.755002e+00 9.163560e-03 2.758336e+00 1.367951e-02 2.762002e+00 1.424618e-02 2.769844e+00 1.240363e-02 2.779097e+00 9.390763e-03 2.788396e+00 7.416836e-03 2.793252e+00 1.030472e-02 2.793213e+00 1.539617e-02 2.791338e+00 2.225192e-02 2.788221e+00 2.827642e-02 2.787529e+00 3.081101e-02 2.791637e+00 3.343790e-02 2.798205e+00 3.461312e-02 2.801161e+00 4.152454e-02 2.811059e+00 5.208734e-02 2.734311e+00 -7.114095e-03 2.717609e+00 -1.813873e-02 2.713075e+00 -1.842138e-02 2.707931e+00 -1.694274e-02 2.700969e+00 -1.573755e-02 2.693206e+00 -1.501532e-02 2.686929e+00 -1.438687e-02 
2.781442e+00 -2.159580e-02 2.816013e+00 -1.972794e-02 2.871777e+00 -2.005131e-02 2.801910e+00 -2.218502e-02 2.757727e+00 -2.447211e-02 2.728990e+00 -2.913353e-02 2.699387e+00 -4.868230e-02 2.628577e+00 -1.453212e-01 2.314643e+00 -4.039192e-01 2.343542e+00 -3.995738e-01 2.356275e+00 -4.399834e-01 2.365059e+00 -4.467937e-01 2.361480e+00 -4.304112e-01 2.336265e+00 -4.084877e-01 2.308812e+00 -3.886941e-01 2.287553e+00 -3.840644e-01 2.293940e+00 -4.049749e-01 2.319156e+00 -4.299026e-01 2.344995e+00 -4.536158e-01 2.365607e+00 -4.607015e-01 2.362645e+00 -4.422877e-01 2.334649e+00 -4.224566e-01 2.296098e+00 -3.974812e-01 2.284074e+00 -4.052831e-01 2.264190e+00 -4.424844e-01 2.593307e+00 -1.262521e-01 2.704265e+00 -4.266330e-02 2.728250e+00 -2.246951e-02 2.736271e+00 -1.842530e-02 2.742093e+00 -1.886795e-02 2.749444e+00 -2.040798e-02 2.761213e+00 -2.159384e-02 
2.890784e+00 1.664550e-03 2.940972e+00 5.481459e-03 3.014601e+00 5.318735e-03 2.930065e+00 4.132122e-03 2.871262e+00 2.877875e-03 2.828490e+00 3.390563e-04 2.785887e+00 -1.348871e-02 2.707588e+00 -9.474545e-02 2.443838e+00 -3.112094e-01 2.445981e+00 -3.179922e-01 2.450876e+00 -3.628048e-01 2.455070e+00 -3.778757e-01 2.449197e+00 -3.708966e-01 2.424511e+00 -3.570843e-01 2.397422e+00 -3.436503e-01 2.375972e+00 -3.426224e-01 2.379732e+00 -3.640335e-01 2.401317e+00 -3.892821e-01 2.424558e+00 -4.135587e-01 2.443754e+00 -4.229410e-01 2.442093e+00 -4.093363e-01 2.417987e+00 -3.942873e-01 2.384629e+00 -3.751518e-01 2.375823e+00 -3.840277e-01 2.358988e+00 -4.152280e-01 2.663157e+00 -1.246024e-01 2.770088e+00 -3.881311e-02 2.796451e+00 -1.440959e-02 2.808330e+00 -6.838645e-03 2.819779e+00 -4.023594e-03 2.835058e+00 -2.427659e-03 2.857359e+00 -7.536411e-04 
2.978102e+00 -3.653202e-03 3.047950e+00 1.106042e-04 3.142866e+00 1.341223e-04 3.040054e+00 -8.294379e-04 2.964193e+00 -1.110189e-03 2.909086e+00 -5.742240e-04 2.869350e+00 2.192411e-03 2.847946e+00 2.183805e-02 2.915275e+00 9.484489e-02 2.875691e+00 8.293575e-02 2.859835e+00 9.038951e-02 2.847926e+00 8.962504e-02 2.841109e+00 8.366518e-02 2.842101e+00 7.675015e-02 2.845244e+00 6.981523e-02 2.849203e+00 6.576062e-02 2.848250e+00 6.780718e-02 2.843901e+00 7.034957e-02 2.840339e+00 7.345917e-02 2.837511e+00 7.378167e-02 2.839702e+00 6.870596e-02 2.848173e+00 6.472297e-02 2.860541e+00 5.877915e-02 2.869607e+00 6.409533e-02 2.890103e+00 8.811922e-02 2.812834e+00 6.823586e-03 2.808859e+00 -2.358976e-03 2.822359e+00 -2.291648e-03 2.839483e+00 -2.843115e-03 2.861043e+00 -4.087259e-03 2.889253e+00 -5.122827e-03 2.926966e+00 -5.178864e-03 
3.076908e+00 1.626354e-02 3.159245e+00 2.151770e-02 3.268308e+00 2.169350e-02 3.154528e+00 2.117380e-02 3.068091e+00 2.074343e-02 3.004092e+00 2.021371e-02 2.959819e+00 2.113952e-02 2.943087e+00 4.364703e-02 3.030213e+00 1.396683e-01 2.994397e+00 1.295495e-01 2.972491e+00 1.434735e-01 2.956930e+00 1.460720e-01 2.948611e+00 1.404002e-01 2.950889e+00 1.327792e-01 2.956309e+00 1.248460e-01 2.962219e+00 1.216257e-01 2.959795e+00 1.277257e-01 2.951726e+00 1.349965e-01 2.944082e+00 1.429880e-01 2.937987e+00 1.459437e-01 2.940479e+00 1.398207e-01 2.952681e+00 1.340915e-01 2.970565e+00 1.257533e-01 2.981227e+00 1.294564e-01 3.004961e+00 1.598236e-01 2.891972e+00 3.582762e-02 2.872279e+00 1.155584e-02 2.885679e+00 8.544841e-03 2.906349e+00 8.743403e-03 2.933203e+00 9.451485e-03 2.968417e+00 1.068348e-02 3.015003e+00 1.282240e-02 
3.154544e+00 1.299859e-02 3.253079e+00 1.821257e-02 3.379599e+00 1.856447e-02 3.251584e+00 1.868564e-02 3.151804e+00 2.018158e-02 3.076937e+00 2.423262e-02 3.025413e+00 3.428523e-02 3.000958e+00 6.116956e-02 3.021084e+00 1.067166e-01 3.000019e+00 1.193763e-01 2.978085e+00 1.326839e-01 2.960592e+00 1.388704e-01 2.949303e+00 1.391105e-01 2.945343e+00 1.362031e-01 2.944984e+00 1.325419e-01 2.945499e+00 1.310538e-01 2.942453e+00 1.341517e-01 2.936690e+00 1.389180e-01 2.931360e+00 1.436351e-01 2.928268e+00 1.453370e-01 2.930964e+00 1.421283e-01 2.939775e+00 1.371152e-01 2.951383e+00 1.306050e-01 2.958501e+00 1.275535e-01 2.962640e+00 1.176248e-01 2.914905e+00 5.917070e-02 2.901069e+00 3.190156e-02 2.912700e+00 2.002126e-02 2.937357e+00 1.416881e-02 2.972291e+00 1.104489e-02 3.018324e+00 9.775849e-03 3.077874e+00 1.033811e-02 
3.241746e+00 3.002196e-02 3.350170e+00 3.632258e-02 3.487812e+00 3.681412e-02 3.351452e+00 3.710633e-02 3.243425e+00 3.829687e-02 3.160769e+00 4.158322e-02 3.101819e+00 5.048883e-02 3.068043e+00 7.347189e-02 3.065651e+00 1.059359e-01 3.044347e+00 1.179986e-01 3.020348e+00 1.275700e-01 3.001041e+00 1.316450e-01 2.987828e+00 1.311195e-01 2.980950e+00 1.281642e-01 2.977685e+00 1.249002e-01 2.975549e+00 1.235792e-01 2.971300e+00 1.256796e-01 2.965726e+00 1.292906e-01 2.961023e+00 1.327075e-01 2.958909e+00 1.336167e-01 2.961961e+00 1.308298e-01 2.970108e+00 1.262526e-01 2.980656e+00 1.205188e-01 2.987986e+00 1.162147e-01 2.990777e+00 1.037445e-01 2.963180e+00 6.301126e-02 2.955234e+00 3.964369e-02 2.969645e+00 2.900124e-02 2.997882e+00 2.449051e-02 3.037541e+00 2.303852e-02 3.089546e+00 2.357411e-02 3.156410e+00 2.586654e-02 
3.308555e+00 2.805531e-02 3.430271e+00 3.435821e-02 3.582192e+00 3.501344e-02 3.434151e+00 3.596997e-02 3.314723e+00 3.868144e-02 3.221345e+00 4.444879e-02 3.151821e+00 5.559421e-02 3.104746e+00 7.501364e-02 3.077820e+00 9.665190e-02 3.050098e+00 1.106424e-01 3.023253e+00 1.211918e-01 3.000934e+00 1.274301e-01 2.984247e+00 1.299034e-01 2.973075e+00 1.298873e-01 2.965728e+00 1.289755e-01 2.960353e+00 1.286701e-01 2.955089e+00 1.299133e-01 2.950095e+00 1.319787e-01 2.946557e+00 1.336713e-01 2.945678e+00 1.336083e-01 2.948747e+00 1.309946e-01 2.955521e+00 1.262821e-01 2.964064e+00 1.196490e-01 2.971159e+00 1.109593e-01 2.975250e+00 9.467647e-02 2.968171e+00 6.866983e-02 2.971584e+00 4.879152e-02 2.991221e+00 3.625303e-02 3.024992e+00 2.884444e-02 3.072028e+00 2.486053e-02 3.133267e+00 2.349226e-02 3.210992e+00 2.452169e-02 
3.383457e+00 4.256527e-02 3.512819e+00 4.966391e-02 3.673296e+00 5.044286e-02 3.518854e+00 5.142619e-02 3.392892e+00 5.371909e-02 3.292873e+00 5.850735e-02 3.216395e+00 6.772171e-02 3.161413e+00 8.304122e-02 3.124856e+00 9.937227e-02 3.092282e+00 1.104722e-01 3.062575e+00 1.182745e-01 3.038023e+00 1.225587e-01 3.019268e+00 1.238674e-01 3.005917e+00 1.232723e-01 2.996511e+00 1.220877e-01 2.989441e+00 1.214856e-01 2.983264e+00 1.221089e-01 2.978078e+00 1.234131e-01 2.974755e+00 1.243872e-01 2.974274e+00 1.239266e-01 2.977552e+00 1.214187e-01 2.984302e+00 1.170939e-01 2.992984e+00 1.110649e-01 3.001183e+00 1.029709e-01 3.007576e+00 8.900542e-02 3.008447e+00 6.906429e-02 3.017517e+00 5.313264e-02 3.040922e+00 4.301524e-02 3.078278e+00 3.746297e-02 3.129417e+00 3.516706e-02 3.195560e+00 3.538637e-02 3.279114e+00 3.784711e-02 
3.438614e+00 4.125229e-02 3.578779e+00 4.836456e-02 3.750816e+00 4.928917e-02 3.586591e+00 5.069586e-02 3.450823e+00 5.380481e-02 3.341082e+00 5.951877e-02 3.254648e+00 6.879849e-02 3.188637e+00 8.174415e-02 3.139164e+00 9.498832e-02 3.098561e+00 1.057700e-01 3.064054e+00 1.141188e-01 3.035713e+00 1.197384e-01 3.013446e+00 1.228612e-01 2.996659e+00 1.241340e-01 2.984208e+00 1.244438e-01 2.974856e+00 1.245997e-01 2.967603e+00 1.250678e-01 2.962306e+00 1.256416e-01 2.959384e+00 1.257024e-01 2.959399e+00 1.245319e-01 2.962800e+00 1.216258e-01 2.969352e+00 1.168359e-01 2.978119e+00 1.099898e-01 2.987887e+00 1.005776e-01 2.998177e+00 8.720059e-02 3.008546e+00 7.141098e-02 3.026268e+00 5.750326e-02 3.056138e+00 4.715395e-02 3.099586e+00 4.032116e-02 3.157560e+00 3.653634e-02 3.231638e+00 3.546132e-02 3.324241e+00 3.699840e-02 
3.500771e+00 5.358979e-02 3.646576e+00 6.129139e-02 3.824908e+00 6.231953e-02 3.655957e+00 6.365492e-02 3.515271e+00 6.624949e-02 3.400408e+00 7.087299e-02 3.308623e+00 7.824272e-02 3.237009e+00 8.822285e-02 3.181896e+00 9.827959e-02 3.137106e+00 1.064519e-01 3.099743e+00 1.125287e-01 3.069240e+00 1.163697e-01 3.045145e+00 1.182253e-01 3.026693e+00 1.186555e-01 3.012780e+00 1.183872e-01 3.002283e+00 1.180588e-01 2.994342e+00 1.180086e-01 2.988781e+00 1.180606e-01 2.985883e+00 1.177022e-01 2.986074e+00 1.163470e-01 2.989666e+00 1.135779e-01 2.996465e+00 1.092386e-01 3.005781e+00 1.031807e-01 3.016796e+00 9.502497e-02 3.029336e+00 8.396551e-02 3.043832e+00 7.140258e-02 3.065520e+00 6.039433e-02 3.098681e+00 5.235951e-02 3.145217e+00 4.742084e-02 3.206502e+00 4.526839e-02 3.284367e+00 4.562482e-02 3.381362e+00 4.838044e-02 
3.543685e+00 5.243843e-02 3.698108e+00 6.013521e-02 3.885606e+00 6.128613e-02 3.708561e+00 6.278645e-02 3.559668e+00 6.569156e-02 3.436585e+00 7.052955e-02 3.336481e+00 7.756596e-02 3.256311e+00 8.636901e-02 3.192588e+00 9.532389e-02 3.141024e+00 1.032415e-01 3.098754e+00 1.096836e-01 3.064410e+00 1.143969e-01 3.037049e+00 1.174313e-01 3.015730e+00 1.190951e-01 2.999424e+00 1.198487e-01 2.987159e+00 1.201242e-01 2.978207e+00 1.201703e-01 2.972281e+00 1.199225e-01 2.969438e+00 1.190696e-01 2.969875e+00 1.172127e-01 2.973747e+00 1.140108e-01 2.980958e+00 1.092449e-01 2.991208e+00 1.027412e-01 3.004271e+00 9.431520e-02 3.020446e+00 8.393142e-02 3.040778e+00 7.282125e-02 3.068748e+00 6.269706e-02 3.107709e+00 5.463796e-02 3.159916e+00 4.904918e-02 3.227242e+00 4.599771e-02 3.311794e+00 4.548568e-02 3.416198e+00 4.757863e-02 
3.592824e+00 6.292692e-02 3.751032e+00 7.106011e-02 3.942765e+00 7.229042e-02 3.762581e+00 7.365838e-02 3.610378e+00 7.601726e-02 3.483808e+00 7.981106e-02 3.380084e+00 8.522173e-02 3.296247e+00 9.185798e-02 3.229002e+00 9.852035e-02 3.174520e+00 1.043114e-01 3.130047e+00 1.088513e-01 3.094008e+00 1.119760e-01 3.065268e+00 1.137647e-01 3.042779e+00 1.144935e-01 3.025499e+00 1.145445e-01 3.012492e+00 1.142630e-01 3.003070e+00 1.138357e-01 2.996927e+00 1.132004e-01 2.994054e+00 1.120974e-01 2.994580e+00 1.101972e-01 2.998615e+00 1.072170e-01 3.006112e+00 1.029742e-01 3.016910e+00 9.734290e-02 3.030976e+00 9.022914e-02 3.048768e+00 8.172608e-02 3.071481e+00 7.284082e-02 3.101985e+00 6.491033e-02 3.143295e+00 5.882170e-02 3.197750e+00 5.495180e-02 3.267418e+00 5.339113e-02 3.354576e+00 5.415367e-02 3.461953e+00 5.729026e-02 
3.623085e+00 6.159043e-02 3.787931e+00 6.968337e-02 3.986669e+00 7.101021e-02 3.800012e+00 7.236497e-02 3.641223e+00 7.476765e-02 3.508076e+00 7.853124e-02 3.397795e+00 8.366662e-02 3.307460e+00 8.977880e-02 3.233993e+00 9.605206e-02 3.174208e+00 1.018281e-01 3.125509e+00 1.067189e-01 3.086071e+00 1.105019e-01 3.054516e+00 1.131388e-01 3.029674e+00 1.147518e-01 3.010496e+00 1.155612e-01 2.996090e+00 1.157862e-01 2.985795e+00 1.155551e-01 2.979240e+00 1.148423e-01 2.976302e+00 1.134849e-01 2.977001e+00 1.112557e-01 2.981403e+00 1.079395e-01 2.989548e+00 1.033824e-01 3.001502e+00 9.750708e-02 3.017521e+00 9.034842e-02 3.038283e+00 8.219034e-02 3.065081e+00 7.383029e-02 3.100207e+00 6.619126e-02 3.146216e+00 5.998931e-02 3.205443e+00 5.566792e-02 3.280129e+00 5.348288e-02 3.372695e+00 5.361421e-02 3.485928e+00 5.624381e-02 
3.659053e+00 7.054121e-02 3.825920e+00 7.895175e-02 4.026958e+00 8.033090e-02 3.838717e+00 8.152507e-02 3.678209e+00 8.340225e-02 3.543200e+00 8.623679e-02 3.430956e+00 9.003343e-02 3.338626e+00 9.447946e-02 3.263249e+00 9.896867e-02 3.201820e+00 1.030023e-01 3.151825e+00 1.062808e-01 3.111385e+00 1.086530e-01 3.079035e+00 1.101162e-01 3.053546e+00 1.107904e-01 3.033850e+00 1.108644e-01 3.019061e+00 1.105173e-01 3.008523e+00 1.098480e-01 3.001855e+00 1.088300e-01 2.998898e+00 1.073263e-01 2.999644e+00 1.051490e-01 3.004147e+00 1.021221e-01 3.012481e+00 9.812598e-02 3.024789e+00 9.311664e-02 3.041417e+00 8.716044e-02 3.063111e+00 8.053790e-02 3.091170e+00 7.390593e-02 3.127669e+00 6.801949e-02 3.174991e+00 6.347526e-02 3.235461e+00 6.065648e-02 3.311402e+00 5.979202e-02 3.405331e+00 6.104210e-02 3.520115e+00 6.456323e-02 
3.676387e+00 6.877901e-02 3.848047e+00 7.710357e-02 4.054086e+00 7.855081e-02 3.860957e+00 7.963573e-02 3.695476e+00 8.144994e-02 3.555531e+00 8.421459e-02 3.438421e+00 8.787774e-02 3.341358e+00 9.216121e-02 3.261524e+00 9.661304e-02 3.196171e+00 1.008255e-01 3.142896e+00 1.045046e-01 3.099753e+00 1.074618e-01 3.065175e+00 1.096204e-01 3.037861e+00 1.110034e-01 3.016719e+00 1.116988e-01 3.000864e+00 1.118049e-01 2.989637e+00 1.113798e-01 2.982614e+00 1.104061e-01 2.979580e+00 1.087945e-01 2.980478e+00 1.064173e-01 2.985356e+00 1.031528e-01 2.994354e+00 9.892504e-02 3.007738e+00 9.373773e-02 3.025999e+00 8.771573e-02 3.049980e+00 8.116928e-02 3.080978e+00 7.463669e-02 3.120842e+00 6.871559e-02 3.171728e+00 6.392847e-02 3.235895e+00 6.068176e-02 3.315703e+00 5.928683e-02 3.413726e+00 6.000402e-02 3.532858e+00 6.308193e-02 
3.699121e+00 7.648883e-02 3.871082e+00 8.503542e-02 4.077553e+00 8.650594e-02 3.884380e+00 8.742420e-02 3.718758e+00 8.875859e-02 3.578544e+00 9.071666e-02 3.461052e+00 9.326763e-02 3.363531e+00 9.620543e-02 3.283222e+00 9.919834e-02 3.217458e+00 1.019446e-01 3.163880e+00 1.042290e-01 3.120537e+00 1.059247e-01 3.085828e+00 1.069931e-01 3.058423e+00 1.074715e-01 3.037219e+00 1.074422e-01 3.021331e+00 1.069899e-01 3.010099e+00 1.061611e-01 3.003092e+00 1.049393e-01 3.000081e+00 1.032495e-01 3.000995e+00 1.009867e-01 3.005884e+00 9.805356e-02 3.014906e+00 9.439562e-02 3.028364e+00 9.003122e-02 3.046790e+00 8.508572e-02 3.071047e+00 7.983690e-02 3.102415e+00 7.473524e-02 3.142647e+00 7.027995e-02 3.193814e+00 6.691130e-02 3.258153e+00 6.497634e-02 3.338057e+00 6.474406e-02 3.436155e+00 6.644016e-02 3.555399e+00 7.028009e-02 
3.703357e+00 7.412281e-02 3.878345e+00 8.252821e-02 4.087910e+00 8.403710e-02 3.891411e+00 8.480598e-02 3.722407e+00 8.605969e-02 3.578864e+00 8.799240e-02 3.458119e+00 9.055573e-02 3.357459e+00 9.356608e-02 3.274207e+00 9.674986e-02 3.205810e+00 9.983640e-02 3.149974e+00 1.026041e-01 3.104740e+00 1.048931e-01 3.068466e+00 1.066114e-01 3.039790e+00 1.077304e-01 3.017590e+00 1.082659e-01 3.000972e+00 1.082488e-01 2.989263e+00 1.076965e-01 2.982010e+00 1.065927e-01 2.978955e+00 1.048868e-01 2.980007e+00 1.025113e-01 2.985221e+00 9.940811e-02 2.994798e+00 9.555898e-02 3.009109e+00 9.101427e-02 3.028758e+00 8.592254e-02 3.054649e+00 8.055565e-02 3.088043e+00 7.530407e-02 3.130587e+00 7.060099e-02 3.184232e+00 6.685827e-02 3.251148e+00 6.444078e-02 3.333717e+00 6.366931e-02 3.434575e+00 6.483703e-02 3.556680e+00 6.822722e-02 
3.712868e+00 8.087213e-02 3.886440e+00 8.942105e-02 4.094590e+00 9.092316e-02 3.899591e+00 9.153039e-02 3.732026e+00 9.235391e-02 3.589791e+00 9.358314e-02 3.470206e+00 9.519685e-02 3.370563e+00 9.706869e-02 3.288200e+00 9.900511e-02 3.220596e+00 1.008140e-01 3.165480e+00 1.023411e-01 3.120895e+00 1.034818e-01 3.085193e+00 1.041838e-01 3.057004e+00 1.044415e-01 3.035205e+00 1.042796e-01 3.018904e+00 1.037295e-01 3.007434e+00 1.028072e-01 3.000340e+00 1.014991e-01 2.997360e+00 9.976282e-02 2.998400e+00 9.754323e-02 3.003517e+00 9.479546e-02 3.012920e+00 9.151087e-02 3.026994e+00 8.774173e-02 3.046354e+00 8.362422e-02 3.071901e+00 7.939543e-02 3.104873e+00 7.538530e-02 3.146866e+00 7.195893e-02 3.199783e+00 6.946477e-02 3.265775e+00 6.821314e-02 3.347237e+00 6.847840e-02 3.446843e+00 7.051264e-02 3.567596e+00 7.456122e-02 
3.703914e+00 7.775123e-02 3.878785e+00 8.609217e-02 4.088169e+00 8.760241e-02 3.891394e+00 8.805199e-02 3.722030e+00 8.882387e-02 3.578050e+00 9.010936e-02 3.456771e+00 9.187899e-02 3.355492e+00 9.401174e-02 3.271586e+00 9.632729e-02 3.202581e+00 9.863267e-02 3.146240e+00 1.007538e-01 3.100614e+00 1.025509e-01 3.064049e+00 1.039266e-01 3.035162e+00 1.048253e-01 3.012822e+00 1.052243e-01 2.996132e+00 1.051180e-01 2.984418e+00 1.045018e-01 2.977212e+00 1.033603e-01 2.974237e+00 1.016656e-01 2.975394e+00 9.938672e-02 2.980746e+00 9.650567e-02 2.990528e+00 9.303853e-02 3.005162e+00 8.905625e-02 3.025299e+00 8.470305e-02 3.051854e+00 8.020632e-02 3.086045e+00 7.586699e-02 3.129407e+00 7.202356e-02 3.183768e+00 6.901920e-02 3.251223e+00 6.718505e-02 3.334134e+00 6.683737e-02 3.435161e+00 6.828201e-02 3.557299e+00 7.182042e-02 
3.700274e+00 8.380624e-02 3.871982e+00 9.222577e-02 4.078082e+00 9.369888e-02 3.884384e+00 9.399543e-02 3.718065e+00 9.437926e-02 3.576984e+00 9.503623e-02 3.458406e+00 9.596275e-02 3.359599e+00 9.708426e-02 3.277921e+00 9.828152e-02 3.210899e+00 9.942589e-02 3.156306e+00 1.004033e-01 3.112198e+00 1.011263e-01 3.076923e+00 1.015383e-01 3.049108e+00 1.016121e-01 3.027631e+00 1.013417e-01 3.011608e+00 1.007297e-01 3.000376e+00 9.977505e-02 2.993474e+00 9.846520e-02 2.990630e+00 9.677657e-02 2.991746e+00 9.468344e-02 2.996888e+00 9.217293e-02 3.006287e+00 8.926273e-02 3.020367e+00 8.601851e-02 3.039769e+00 8.256800e-02 3.065392e+00 7.910727e-02 3.098426e+00 7.589133e-02 3.140367e+00 7.320584e-02 3.193010e+00 7.134049e-02 3.258433e+00 7.057532e-02 3.339005e+00 7.117865e-02 3.437414e+00 7.341148e-02 3.556697e+00 7.753362e-02 