# vtk DataFile Version 2.0
Comment goes here
ASCII

DATASET STRUCTURED_POINTS
FIELD FieldData 1
TIME 1 1 double
0.00500000
DIMENSIONS    64   64   1

ORIGIN    0.000   0.000   0.000
SPACING   0.03125 0.03125   1.000

POINT_DATA   4096
SCALARS uX double
LOOKUP_TABLE default

-1.199458e-01 5.045428e-02 -4.330144e-02 6.519436e-02 -6.211327e-02 9.104584e-02 -1.034359e-01 1.309743e-01 -1.397960e-01 1.595520e-01 -1.581215e-01 1.645358e-01 -1.482446e-01 1.379879e-01 -1.113551e-01 9.905883e-02 -8.035390e-02 7.314475e-02 -6.013682e-02 4.710780e-02 -3.417108e-02 1.764738e-02 -5.948348e-03 -1.312237e-02 2.023011e-02 -4.089950e-02 4.218910e-02 -6.370994e-02 5.894929e-02 -7.993753e-02 6.744202e-02 -8.906926e-02 6.929136e-02 -9.258695e-02 6.796290e-02 -9.498438e-02 6.671785e-02 -9.738568e-02 6.536032e-02 -9.996541e-02 6.420456e-02 -1.023803e-01 6.226633e-02 -1.030812e-01 5.683865e-02 -1.000301e-01 4.729600e-02 -9.381767e-02 3.502692e-02 -8.471937e-02 2.104440e-02 -7.626215e-02 8.183476e-03 -6.952088e-02 -2.359461e-03 -6.842344e-02 1.795321e-03 -8.444396e-02 1.028709e-02 -7.962130e-02 -2.560023e-02 -1.960206e-02 -1.139514e-01 7.272614e-02 
-7.541663e-02 2.113886e-01 -2.499089e-01 2.261661e-01 -2.486516e-01 2.075883e-01 -2.084581e-01 1.630702e-01 -1.649782e-01 1.182704e-01 -1.256065e-01 8.043580e-02 -9.727795e-02 5.627344e-02 -8.187575e-02 3.729125e-02 -6.030551e-02 1.025950e-02 -3.292673e-02 -1.055453e-02 -1.823948e-02 -2.349900e-02 -6.175466e-03 -3.956420e-02 1.444842e-02 -6.251271e-02 3.588216e-02 -7.868642e-02 4.781741e-02 -8.692250e-02 5.627606e-02 -9.283667e-02 6.389266e-02 -9.756239e-02 6.908490e-02 -9.917675e-02 7.087938e-02 -9.825569e-02 7.113723e-02 -9.640936e-02 7.132038e-02 -9.429746e-02 7.097983e-02 -9.106518e-02 6.988719e-02 -8.637853e-02 6.737785e-02 -7.934116e-02 6.204890e-02 -7.024899e-02 5.538501e-02 -5.842532e-02 4.799484e-02 -4.776087e-02 4.309473e-02 -3.754195e-02 3.089590e-02 -1.646644e-02 1.483010e-02 -6.471871e-03 2.452498e-02 -2.585604e-02 5.664796e-02 -4.353636e-02 
7.539598e-02 1.059319e-01 -6.963615e-02 1.148320e-01 -5.166742e-02 9.306487e-02 -2.447776e-02 5.438550e-02 2.293572e-02 1.844887e-02 6.520947e-02 -5.142932e-03 8.985707e-02 -8.345878e-03 9.495611e-02 -4.120318e-03 1.061343e-01 -1.170887e-02 1.247326e-01 -1.755519e-02 1.339530e-01 -1.889579e-02 1.391903e-01 -1.957032e-02 1.462770e-01 -2.259908e-02 1.535760e-01 -2.470776e-02 1.580214e-01 -2.587416e-02 1.633910e-01 -2.824075e-02 1.700689e-01 -3.188019e-02 1.756800e-01 -3.334284e-02 1.779989e-01 -3.247040e-02 1.782592e-01 -3.012012e-02 1.770776e-01 -2.715263e-02 1.751259e-01 -2.423252e-02 1.736335e-01 -2.234997e-02 1.725156e-01 -2.100188e-02 1.701448e-01 -2.014104e-02 1.660975e-01 -1.704952e-02 1.605332e-01 -1.312007e-02 1.548012e-01 -6.222519e-03 1.367169e-01 1.624593e-02 1.116523e-01 2.491975e-02 1.185485e-01 -6.391173e-03 1.610841e-01 -5.125740e-02 
4.829279e-02 -9.766324e-02 7.662446e-02 -8.272300e-02 -6.195116e-02 -6.422273e-02 2.636956e-02 -4.043049e-02 7.734969e-02 -2.228630e-02 1.112743e-01 -1.030028e-02 1.397408e-01 -7.494558e-03 1.689221e-01 -7.063167e-03 1.875345e-01 6.357922e-04 1.956563e-01 5.442777e-03 2.069954e-01 6.559562e-03 2.162153e-01 9.655813e-03 2.179684e-01 1.659598e-02 2.177778e-01 1.975684e-02 2.216231e-01 1.920831e-02 2.252950e-01 1.839265e-02 2.274013e-01 1.820505e-02 2.287545e-01 1.751491e-02 2.300370e-01 1.673561e-02 2.300935e-01 1.657876e-02 2.285012e-01 1.693334e-02 2.259991e-01 1.676569e-02 2.225559e-01 1.597685e-02 2.179877e-01 1.397515e-02 2.124081e-01 1.093733e-02 2.041358e-01 6.692916e-03 1.946459e-01 5.175172e-03 1.802525e-01 5.651126e-03 1.675357e-01 -1.889976e-03 1.532424e-01 -8.975358e-04 1.107032e-01 2.649339e-02 2.915581e-02 6.967170e-02 
9.194452e-02 -5.863429e-02 8.635136e-02 -5.269782e-02 -3.822092e-02 -4.340126e-02 6.078146e-02 -3.184772e-02 1.108760e-01 -2.267218e-02 1.423346e-01 -1.572259e-02 1.662217e-01 -1.249137e-02 1.880056e-01 -9.566832e-03 2.032913e-01 -2.888460e-03 2.113769e-01 1.816286e-03 2.198835e-01 4.505866e-03 2.262629e-01 8.125572e-03 2.281717e-01 1.331181e-02 2.289615e-01 1.602969e-02 2.318679e-01 1.625725e-02 2.348253e-01 1.585020e-02 2.369040e-01 1.569324e-02 2.381847e-01 1.536963e-02 2.390227e-01 1.512474e-02 2.388059e-01 1.529664e-02 2.374314e-01 1.557767e-02 2.355232e-01 1.529339e-02 2.329687e-01 1.441439e-02 2.295097e-01 1.252147e-02 2.246660e-01 9.558672e-03 2.166652e-01 5.782230e-03 2.084249e-01 4.547603e-03 1.969063e-01 5.194836e-03 1.852332e-01 1.568718e-03 1.721952e-01 1.460620e-03 1.439675e-01 1.375071e-02 9.326270e-02 3.364519e-02 
8.174786e-02 -4.072226e-02 6.871267e-02 -4.811264e-02 1.280552e-02 -4.789392e-02 6.069696e-02 -3.476863e-02 9.882042e-02 -2.332087e-02 1.280714e-01 -1.501581e-02 1.521562e-01 -1.036511e-02 1.733945e-01 -5.866996e-03 1.915097e-01 -4.712789e-04 2.023546e-01 3.704421e-03 2.110853e-01 6.687860e-03 2.175069e-01 1.009512e-02 2.207138e-01 1.384366e-02 2.230323e-01 1.585844e-02 2.259973e-01 1.622303e-02 2.288640e-01 1.592467e-02 2.308929e-01 1.587241e-02 2.317731e-01 1.596657e-02 2.320125e-01 1.601384e-02 2.314527e-01 1.625174e-02 2.299801e-01 1.618360e-02 2.282497e-01 1.550902e-02 2.257368e-01 1.449835e-02 2.222311e-01 1.278017e-02 2.168807e-01 9.581540e-03 2.059224e-01 5.251003e-03 1.968906e-01 3.689290e-03 1.858285e-01 2.827332e-03 1.729017e-01 8.386380e-04 1.555550e-01 2.198929e-03 1.272759e-01 9.011498e-03 9.223295e-02 7.898346e-03 
1.142084e-01 -2.686963e-02 9.020885e-02 -3.266849e-02 3.499049e-02 -3.260736e-02 8.705417e-02 -2.663786e-02 1.257005e-01 -2.102164e-02 1.534107e-01 -1.649845e-02 1.742804e-01 -1.325170e-02 1.912968e-01 -8.025888e-03 2.083613e-01 -2.767554e-03 2.175296e-01 1.276506e-03 2.241266e-01 4.656634e-03 2.287040e-01 8.308884e-03 2.310888e-01 1.152041e-02 2.334080e-01 1.311262e-02 2.360131e-01 1.354927e-02 2.386193e-01 1.326824e-02 2.406062e-01 1.337072e-02 2.411786e-01 1.390048e-02 2.410732e-01 1.438025e-02 2.403396e-01 1.505717e-02 2.389316e-01 1.506954e-02 2.379450e-01 1.427206e-02 2.364305e-01 1.338912e-02 2.342905e-01 1.202878e-02 2.303596e-01 8.698946e-03 2.176470e-01 3.580167e-03 2.105193e-01 2.755727e-03 2.019371e-01 2.560115e-03 1.913850e-01 1.471655e-03 1.776047e-01 1.496266e-03 1.570123e-01 3.573804e-03 1.308996e-01 9.238193e-04 
1.176933e-01 -2.422000e-02 1.030913e-01 -3.215324e-02 7.923940e-02 -3.230653e-02 1.045882e-01 -2.735763e-02 1.289545e-01 -2.119012e-02 1.498592e-01 -1.607087e-02 1.672237e-01 -1.308348e-02 1.807688e-01 -1.248867e-02 1.886234e-01 -1.189218e-02 1.952894e-01 -1.120719e-02 2.011261e-01 -1.065850e-02 2.057294e-01 -9.823777e-03 2.086587e-01 -8.242613e-03 2.100263e-01 -6.523587e-03 2.109308e-01 -5.323601e-03 2.115969e-01 -4.615479e-03 2.122562e-01 -4.648446e-03 2.132970e-01 -5.346770e-03 2.142919e-01 -6.161071e-03 2.147551e-01 -6.747553e-03 2.143486e-01 -6.583040e-03 2.126496e-01 -5.768838e-03 2.102544e-01 -4.795780e-03 2.075998e-01 -3.583235e-03 2.055089e-01 -1.515124e-03 2.056944e-01 9.900812e-04 2.011068e-01 1.471033e-03 1.932219e-01 1.104188e-03 1.826523e-01 2.234121e-04 1.687402e-01 -8.017184e-05 1.505348e-01 -5.331195e-04 1.310724e-01 -6.597703e-03 
1.437878e-01 -1.729513e-02 1.251322e-01 -2.284551e-02 9.976868e-02 -2.296486e-02 1.268050e-01 -2.108618e-02 1.514786e-01 -1.828136e-02 1.713301e-01 -1.599679e-02 1.861888e-01 -1.597971e-02 1.945208e-01 -2.356432e-02 1.868807e-01 -2.982579e-02 1.873564e-01 -3.394065e-02 1.902775e-01 -3.745235e-02 1.934160e-01 -4.040730e-02 1.955819e-01 -4.056543e-02 1.942707e-01 -3.823969e-02 1.920768e-01 -3.579577e-02 1.896525e-01 -3.360272e-02 1.883485e-01 -3.382189e-02 1.902816e-01 -3.635526e-02 1.932392e-01 -3.901080e-02 1.958023e-01 -4.123647e-02 1.972238e-01 -4.048755e-02 1.949636e-01 -3.693035e-02 1.920313e-01 -3.290172e-02 1.897141e-01 -2.761739e-02 1.918373e-01 -1.720436e-02 2.130089e-01 -2.929623e-03 2.140738e-01 3.315815e-04 2.089399e-01 8.170991e-04 2.007643e-01 2.553675e-04 1.898175e-01 -5.310727e-04 1.755592e-01 -1.875740e-03 1.591455e-01 -6.493676e-03 
1.548187e-01 -1.750043e-02 1.465928e-01 -2.275724e-02 1.385788e-01 -2.289356e-02 1.495394e-01 -2.116933e-02 1.625792e-01 -1.801244e-02 1.751951e-01 -1.499114e-02 1.861078e-01 -1.339389e-02 1.938130e-01 -1.564743e-02 1.938424e-01 -1.765619e-02 1.968184e-01 -1.885734e-02 2.003884e-01 -1.985118e-02 2.035671e-01 -2.059756e-02 2.058160e-01 -2.007970e-02 2.060895e-01 -1.848156e-02 2.056562e-01 -1.693506e-02 2.049403e-01 -1.567056e-02 2.046303e-01 -1.566517e-02 2.056967e-01 -1.684389e-02 2.071250e-01 -1.815744e-02 2.081996e-01 -1.925654e-02 2.084964e-01 -1.894016e-02 2.068546e-01 -1.726752e-02 2.046424e-01 -1.530013e-02 2.025331e-01 -1.269862e-02 2.023290e-01 -7.774812e-03 2.102648e-01 -1.255586e-03 2.086224e-01 9.738837e-05 2.033004e-01 -1.069886e-04 1.957445e-01 -9.722903e-04 1.862141e-01 -2.216425e-03 1.750423e-01 -4.470497e-03 1.638512e-01 -9.451939e-03 
1.766466e-01 -1.301146e-02 1.667013e-01 -1.675369e-02 1.573536e-01 -1.685490e-02 1.689549e-01 -1.646265e-02 1.820994e-01 -1.502415e-02 1.942538e-01 -1.323093e-02 2.046345e-01 -1.111513e-02 2.137442e-01 -6.459355e-03 2.258549e-01 -2.483172e-03 2.321447e-01 6.077173e-04 2.360299e-01 3.479047e-03 2.385437e-01 6.311794e-03 2.401454e-01 8.213549e-03 2.421783e-01 9.006040e-03 2.440515e-01 9.370550e-03 2.457951e-01 9.330067e-03 2.470344e-01 9.753618e-03 2.469569e-01 1.070481e-02 2.463262e-01 1.154904e-02 2.454367e-01 1.236863e-02 2.443511e-01 1.230742e-02 2.440671e-01 1.142291e-02 2.435150e-01 1.057327e-02 2.424890e-01 9.431502e-03 2.397315e-01 6.399910e-03 2.285609e-01 1.591915e-03 2.238172e-01 6.862247e-04 2.189812e-01 1.210889e-04 2.129113e-01 -7.386625e-04 2.053345e-01 -2.002921e-03 1.962529e-01 -4.045450e-03 1.863433e-01 -7.697570e-03 
1.911084e-01 -1.359495e-02 1.898259e-01 -1.684589e-02 1.915395e-01 -1.694990e-02 1.924524e-01 -1.641341e-02 1.966544e-01 -1.470125e-02 2.022499e-01 -1.249294e-02 2.082160e-01 -9.874335e-03 2.145734e-01 -5.240300e-03 2.240752e-01 -1.216906e-03 2.293634e-01 1.945949e-03 2.326582e-01 4.786578e-03 2.348086e-01 7.439444e-03 2.362655e-01 9.188185e-03 2.380891e-01 9.924651e-03 2.397889e-01 1.024484e-02 2.413209e-01 1.024923e-02 2.423281e-01 1.066484e-02 2.421562e-01 1.154262e-02 2.414362e-01 1.233258e-02 2.404819e-01 1.300776e-02 2.394211e-01 1.284779e-02 2.390316e-01 1.189886e-02 2.384136e-01 1.084877e-02 2.372223e-01 9.395119e-03 2.342006e-01 6.248022e-03 2.244312e-01 1.682774e-03 2.198073e-01 2.848151e-04 2.156092e-01 -6.571428e-04 2.108078e-01 -1.790472e-03 2.053245e-01 -3.344474e-03 1.995625e-01 -5.677689e-03 1.944678e-01 -9.222286e-03 
2.097386e-01 -1.031111e-02 2.076476e-01 -1.271600e-02 2.084917e-01 -1.279222e-02 2.095810e-01 -1.288339e-02 2.137267e-01 -1.212319e-02 2.189630e-01 -1.079019e-02 2.243603e-01 -8.793889e-03 2.299714e-01 -5.387866e-03 2.369274e-01 -2.083251e-03 2.412782e-01 7.488883e-04 2.439115e-01 3.319019e-03 2.455274e-01 5.639313e-03 2.466237e-01 7.268409e-03 2.478855e-01 8.128447e-03 2.491147e-01 8.585919e-03 2.502141e-01 8.823786e-03 2.508994e-01 9.306171e-03 2.507933e-01 1.008208e-02 2.502478e-01 1.081322e-02 2.495278e-01 1.136204e-02 2.488097e-01 1.127977e-02 2.484935e-01 1.057223e-02 2.480265e-01 9.601423e-03 2.469470e-01 8.153186e-03 2.441912e-01 5.542856e-03 2.376389e-01 2.207271e-03 2.336529e-01 7.000723e-04 2.302541e-01 -2.806646e-04 2.265614e-01 -1.328959e-03 2.223507e-01 -2.696532e-03 2.177680e-01 -4.601758e-03 2.133244e-01 -7.233030e-03 
2.253026e-01 -1.081753e-02 2.300379e-01 -1.285267e-02 2.386129e-01 -1.292837e-02 2.320973e-01 -1.283158e-02 2.293548e-01 -1.188637e-02 2.289462e-01 -1.040466e-02 2.299385e-01 -8.364124e-03 2.321816e-01 -4.583374e-03 2.375738e-01 -1.174812e-03 2.402369e-01 1.584626e-03 2.416628e-01 4.074960e-03 2.424449e-01 6.361669e-03 2.429186e-01 7.877317e-03 2.438546e-01 8.564806e-03 2.448175e-01 8.914563e-03 2.457252e-01 9.027876e-03 2.462688e-01 9.473176e-03 2.459343e-01 1.027937e-02 2.452197e-01 1.099648e-02 2.444022e-01 1.156258e-02 2.436158e-01 1.139972e-02 2.434622e-01 1.054361e-02 2.432260e-01 9.530005e-03 2.425876e-01 8.122929e-03 2.405347e-01 5.339924e-03 2.334290e-01 1.445879e-03 2.305690e-01 1.457793e-05 2.285198e-01 -1.016561e-03 2.265501e-01 -2.188493e-03 2.247088e-01 -3.693327e-03 2.234087e-01 -5.671479e-03 2.233402e-01 -8.160755e-03 
2.413259e-01 -8.288217e-03 2.456484e-01 -9.858130e-03 2.536993e-01 -9.913314e-03 2.471599e-01 -1.015313e-02 2.442745e-01 -9.794742e-03 2.435193e-01 -9.012142e-03 2.438771e-01 -7.879624e-03 2.448567e-01 -6.021551e-03 2.469538e-01 -4.221322e-03 2.480061e-01 -2.593779e-03 2.485581e-01 -1.041382e-03 2.487991e-01 4.290830e-04 2.488557e-01 1.591203e-03 2.490344e-01 2.398951e-03 2.492112e-01 3.003298e-03 2.493891e-01 3.421413e-03 2.494764e-01 3.856280e-03 2.492890e-01 4.330511e-03 2.489933e-01 4.703673e-03 2.486666e-01 4.979010e-03 2.483348e-01 4.961237e-03 2.482057e-01 4.661616e-03 2.480166e-01 4.262970e-03 2.476669e-01 3.683228e-03 2.468396e-01 2.575076e-03 2.441432e-01 9.903871e-04 2.429018e-01 1.857316e-04 2.418193e-01 -6.155595e-04 2.407266e-01 -1.600200e-03 2.397343e-01 -2.851965e-03 2.391389e-01 -4.430191e-03 2.394418e-01 -6.320123e-03 
2.567129e-01 -8.663537e-03 2.663993e-01 -9.976412e-03 2.801708e-01 -1.003006e-02 2.679788e-01 -1.009694e-02 2.597324e-01 -9.607401e-03 2.542497e-01 -8.873701e-03 2.504133e-01 -8.589172e-03 2.466374e-01 -1.120728e-02 2.383063e-01 -1.327152e-02 2.348596e-01 -1.441787e-02 2.332751e-01 -1.533266e-02 2.324387e-01 -1.615014e-02 2.317980e-01 -1.595851e-02 2.301166e-01 -1.476256e-02 2.282754e-01 -1.347752e-02 2.264826e-01 -1.226966e-02 2.252860e-01 -1.207272e-02 2.255574e-01 -1.286103e-02 2.263935e-01 -1.377860e-02 2.272737e-01 -1.466132e-02 2.279370e-01 -1.446864e-02 2.273170e-01 -1.325084e-02 2.266340e-01 -1.195662e-02 2.263631e-01 -1.025417e-02 2.280917e-01 -6.535801e-03 2.381626e-01 -1.260068e-03 2.405225e-01 -6.578790e-04 2.413503e-01 -1.235878e-03 2.421614e-01 -2.253729e-03 2.435479e-01 -3.568422e-03 2.460175e-01 -5.152920e-03 2.501742e-01 -6.930518e-03 
2.704698e-01 -6.665032e-03 2.799168e-01 -7.716819e-03 2.933644e-01 -7.755044e-03 2.810877e-01 -8.019599e-03 2.726979e-01 -7.889780e-03 2.669673e-01 -7.581802e-03 2.627725e-01 -7.681338e-03 2.586114e-01 -1.033383e-02 2.504219e-01 -1.244236e-02 2.466319e-01 -1.365644e-02 2.446332e-01 -1.459361e-02 2.434081e-01 -1.538376e-02 2.424297e-01 -1.521799e-02 2.405800e-01 -1.410734e-02 2.386382e-01 -1.288568e-02 2.368065e-01 -1.173101e-02 2.355921e-01 -1.149565e-02 2.357785e-01 -1.216266e-02 2.365526e-01 -1.295906e-02 2.374288e-01 -1.371648e-02 2.381523e-01 -1.349332e-02 2.377712e-01 -1.233158e-02 2.373907e-01 -1.107675e-02 2.374896e-01 -9.417363e-03 2.395593e-01 -5.909883e-03 2.491919e-01 -1.014830e-03 2.519944e-01 -3.341216e-04 2.533937e-01 -7.676139e-04 2.547891e-01 -1.604191e-03 2.567178e-01 -2.680302e-03 2.596075e-01 -3.945852e-03 2.639735e-01 -5.328447e-03 
2.849698e-01 -6.929757e-03 2.986713e-01 -7.795943e-03 3.165084e-01 -7.831066e-03 2.999181e-01 -7.918487e-03 2.873526e-01 -7.572745e-03 2.779130e-01 -6.893821e-03 2.708335e-01 -5.912602e-03 2.656541e-01 -4.016609e-03 2.632427e-01 -2.278882e-03 2.604353e-01 -7.866669e-04 2.579755e-01 6.334994e-04 2.559100e-01 1.996990e-03 2.541888e-01 3.019096e-03 2.530699e-01 3.669411e-03 2.522472e-01 4.163479e-03 2.516784e-01 4.481688e-03 2.512279e-01 4.869012e-03 2.506319e-01 5.327779e-03 2.501207e-01 5.653966e-03 2.497804e-01 5.875581e-03 2.496274e-01 5.732044e-03 2.499787e-01 5.249215e-03 2.505263e-01 4.699752e-03 2.512793e-01 4.001418e-03 2.519857e-01 2.675611e-03 2.506466e-01 7.126180e-04 2.520031e-01 -1.493144e-04 2.541953e-01 -1.015093e-03 2.571946e-01 -2.021753e-03 2.613006e-01 -3.173026e-03 2.669349e-01 -4.440251e-03 2.746210e-01 -5.743971e-03 
2.966609e-01 -5.326765e-03 3.101844e-01 -6.042538e-03 3.277903e-01 -6.065852e-03 3.111279e-01 -6.280412e-03 2.984655e-01 -6.164029e-03 2.888843e-01 -5.747408e-03 2.816433e-01 -4.943060e-03 2.764164e-01 -2.847765e-03 2.745322e-01 -9.195908e-04 2.717487e-01 6.970798e-04 2.691134e-01 2.244530e-03 2.668175e-01 3.743114e-03 2.648917e-01 4.792898e-03 2.637410e-01 5.356896e-03 2.629611e-01 5.754235e-03 2.624775e-01 5.990474e-03 2.620826e-01 6.419650e-03 2.614090e-01 7.039606e-03 2.607911e-01 7.541984e-03 2.603821e-01 7.924281e-03 2.602372e-01 7.800180e-03 2.607963e-01 7.200358e-03 2.616085e-01 6.507910e-03 2.626107e-01 5.599323e-03 2.633366e-01 3.810134e-03 2.610943e-01 1.207929e-03 2.624826e-01 2.635776e-04 2.649690e-01 -5.154875e-04 2.683159e-01 -1.367925e-03 2.727377e-01 -2.318371e-03 2.785972e-01 -3.343521e-03 2.863725e-01 -4.382094e-03 
3.098720e-01 -5.514770e-03 3.268075e-01 -6.093218e-03 3.478628e-01 -6.113216e-03 3.278317e-01 -6.173927e-03 3.118500e-01 -5.872426e-03 2.992198e-01 -5.218373e-03 2.893583e-01 -4.155900e-03 2.819102e-01 -2.434011e-03 2.769203e-01 -6.737869e-04 2.725249e-01 9.391972e-04 2.687388e-01 2.438172e-03 2.655617e-01 3.791422e-03 2.629853e-01 4.819627e-03 2.611108e-01 5.502119e-03 2.597368e-01 5.986700e-03 2.587399e-01 6.341395e-03 2.579573e-01 6.733763e-03 2.572158e-01 7.167534e-03 2.566393e-01 7.495797e-03 2.563343e-01 7.648678e-03 2.563809e-01 7.443828e-03 2.569494e-01 6.880152e-03 2.578580e-01 6.099944e-03 2.589915e-01 5.041855e-03 2.600658e-01 3.476493e-03 2.604154e-01 1.586043e-03 2.626468e-01 3.642614e-04 2.662314e-01 -6.526775e-04 2.711194e-01 -1.644433e-03 2.775228e-01 -2.660780e-03 2.857981e-01 -3.690005e-03 2.964025e-01 -4.674281e-03 
3.196171e-01 -4.216672e-03 3.363719e-01 -4.707616e-03 3.572167e-01 -4.718622e-03 3.371649e-01 -4.872858e-03 3.211523e-01 -4.739381e-03 3.084625e-01 -4.301251e-03 2.985002e-01 -3.492931e-03 2.908737e-01 -2.175173e-03 2.853863e-01 -7.587355e-04 2.807352e-01 5.900784e-04 2.767676e-01 1.865937e-03 2.734456e-01 3.027607e-03 2.707504e-01 3.944963e-03 2.687220e-01 4.596713e-03 2.672112e-01 5.081524e-03 2.661003e-01 5.463652e-03 2.652517e-01 5.858272e-03 2.645407e-01 6.266711e-03 2.640429e-01 6.582581e-03 2.638431e-01 6.733534e-03 2.640147e-01 6.589711e-03 2.646672e-01 6.145175e-03 2.656833e-01 5.488769e-03 2.669572e-01 4.577705e-03 2.682725e-01 3.278631e-03 2.693497e-01 1.768256e-03 2.718741e-01 6.958014e-04 2.756830e-01 -1.894395e-04 2.807666e-01 -1.032891e-03 2.873188e-01 -1.880808e-03 2.956699e-01 -2.726726e-03 3.062577e-01 -3.528660e-03 
3.313085e-01 -4.360491e-03 3.508261e-01 -4.749612e-03 3.744258e-01 -4.757941e-03 3.516931e-01 -4.792762e-03 3.329958e-01 -4.525709e-03 3.177591e-01 -3.951906e-03 3.054703e-01 -3.057134e-03 2.957067e-01 -1.836689e-03 2.880780e-01 -5.038882e-04 2.818260e-01 8.065448e-04 2.766427e-01 2.041173e-03 2.723718e-01 3.148487e-03 2.689171e-01 4.056671e-03 2.662173e-01 4.751180e-03 2.641461e-01 5.281341e-03 2.625845e-01 5.697084e-03 2.614181e-01 6.058223e-03 2.605646e-01 6.365461e-03 2.600439e-01 6.560587e-03 2.599057e-01 6.584907e-03 2.602039e-01 6.366634e-03 2.609933e-01 5.892964e-03 2.622343e-01 5.196320e-03 2.638811e-01 4.267113e-03 2.658823e-01 3.085885e-03 2.683003e-01 1.788878e-03 2.719375e-01 6.729218e-04 2.769637e-01 -3.149338e-04 2.835278e-01 -1.241726e-03 2.918719e-01 -2.134632e-03 3.023311e-01 -2.983493e-03 3.153181e-01 -3.747056e-03 
3.391801e-01 -3.302381e-03 3.584731e-01 -3.641547e-03 3.818349e-01 -3.643083e-03 3.591577e-01 -3.754178e-03 3.405147e-01 -3.620374e-03 3.253126e-01 -3.225860e-03 3.130210e-01 -2.552103e-03 3.031921e-01 -1.603813e-03 2.954035e-01 -5.313116e-04 2.890364e-01 5.548977e-04 2.837741e-01 1.600013e-03 2.794446e-01 2.554407e-03 2.759401e-01 3.359976e-03 2.731826e-01 4.000833e-03 2.710581e-01 4.508779e-03 2.694573e-01 4.921710e-03 2.682795e-01 5.280620e-03 2.674559e-01 5.583546e-03 2.669937e-01 5.784872e-03 2.669299e-01 5.833989e-03 2.673088e-01 5.675915e-03 2.681714e-01 5.298056e-03 2.694973e-01 4.720516e-03 2.712593e-01 3.940593e-03 2.734422e-01 2.959211e-03 2.761572e-01 1.890048e-03 2.799812e-01 9.408017e-04 2.851221e-01 9.530637e-05 2.917485e-01 -6.925950e-04 3.001008e-01 -1.444225e-03 3.105059e-01 -2.152728e-03 3.233719e-01 -2.787878e-03 
3.492200e-01 -3.428865e-03 3.707665e-01 -3.692830e-03 3.963527e-01 -3.692540e-03 3.715144e-01 -3.714981e-03 3.506791e-01 -3.486991e-03 3.333496e-01 -3.007300e-03 3.190568e-01 -2.284597e-03 3.073682e-01 -1.353296e-03 2.978601e-01 -3.124547e-04 2.900588e-01 7.492140e-04 2.836348e-01 1.771146e-03 2.783659e-01 2.704379e-03 2.740941e-01 3.507026e-03 2.706951e-01 4.164312e-03 2.680457e-01 4.690170e-03 2.660338e-01 5.107228e-03 2.645660e-01 5.436598e-03 2.635807e-01 5.675556e-03 2.630662e-01 5.796259e-03 2.630406e-01 5.763829e-03 2.635358e-01 5.544823e-03 2.645855e-01 5.128731e-03 2.662046e-01 4.525265e-03 2.684163e-01 3.744681e-03 2.712813e-01 2.812517e-03 2.749658e-01 1.810780e-03 2.798393e-01 8.537740e-04 2.861580e-01 -3.764412e-05 2.941560e-01 -8.720158e-04 3.041059e-01 -1.651395e-03 3.163365e-01 -2.360923e-03 3.312312e-01 -2.968426e-03 
3.552616e-01 -2.561799e-03 3.765102e-01 -2.799212e-03 4.017973e-01 -2.793823e-03 3.771107e-01 -2.881932e-03 3.564330e-01 -2.763377e-03 3.392505e-01 -2.430752e-03 3.250779e-01 -1.886706e-03 3.134696e-01 -1.158041e-03 3.039996e-01 -3.184617e-04 2.962329e-01 5.602457e-04 2.898478e-01 1.424397e-03 2.846189e-01 2.229693e-03 2.803826e-01 2.939344e-03 2.770100e-01 3.537575e-03 2.743815e-01 4.030813e-03 2.723913e-01 4.433636e-03 2.709529e-01 4.758937e-03 2.700098e-01 5.002026e-03 2.695462e-01 5.139447e-03 2.695739e-01 5.141729e-03 2.701192e-01 4.981928e-03 2.712124e-01 4.650655e-03 2.728751e-01 4.154738e-03 2.751404e-01 3.505301e-03 2.780795e-01 2.728725e-03 2.818553e-01 1.892336e-03 2.867717e-01 1.082481e-03 2.930761e-01 3.231192e-04 3.010047e-01 -3.876607e-04 3.108305e-01 -1.049630e-03 3.228820e-01 -1.650741e-03 3.375459e-01 -2.166242e-03 
3.635770e-01 -2.691826e-03 3.866722e-01 -2.873860e-03 4.137677e-01 -2.867443e-03 3.873273e-01 -2.889414e-03 3.648534e-01 -2.701491e-03 3.459015e-01 -2.306966e-03 3.300380e-01 -1.721767e-03 3.168488e-01 -9.806675e-04 3.059354e-01 -1.427849e-04 2.969144e-01 7.309347e-04 2.894717e-01 1.589296e-03 2.833630e-01 2.390428e-03 2.783981e-01 3.102364e-03 2.744236e-01 3.708569e-03 2.713075e-01 4.207565e-03 2.689391e-01 4.604913e-03 2.672313e-01 4.905333e-03 2.661261e-01 5.103918e-03 2.655997e-01 5.185116e-03 2.656548e-01 5.129412e-03 2.663131e-01 4.920183e-03 2.676082e-01 4.551997e-03 2.695821e-01 4.031550e-03 2.722981e-01 3.374274e-03 2.758605e-01 2.609515e-03 2.804422e-01 1.788516e-03 2.862959e-01 9.696424e-04 2.936733e-01 1.833879e-04 3.028328e-01 -5.562808e-04 3.140600e-01 -1.236756e-03 3.276788e-01 -1.838895e-03 3.440524e-01 -2.335165e-03 
3.678140e-01 -1.977487e-03 3.905144e-01 -2.148285e-03 4.172232e-01 -2.138081e-03 3.910480e-01 -2.218178e-03 3.688526e-01 -2.122034e-03 3.501757e-01 -1.848429e-03 3.345690e-01 -1.407157e-03 3.216079e-01 -8.243928e-04 3.108918e-01 -1.457011e-04 3.020475e-01 5.794196e-04 2.947652e-01 1.307070e-03 2.888005e-01 2.000166e-03 2.839614e-01 2.629743e-03 2.800933e-01 3.178995e-03 2.770663e-01 3.643019e-03 2.747734e-01 4.022925e-03 2.731312e-01 4.319401e-03 2.720843e-01 4.526178e-03 2.716073e-01 4.629211e-03 2.717003e-01 4.611641e-03 2.723818e-01 4.459519e-03 2.736838e-01 4.168055e-03 2.756503e-01 3.742742e-03 2.783475e-01 3.197610e-03 2.818802e-01 2.558786e-03 2.864129e-01 1.868734e-03 2.921745e-01 1.174351e-03 2.994063e-01 5.031909e-04 3.083645e-01 -1.304915e-04 3.193357e-01 -7.146266e-04 3.326477e-01 -1.232880e-03 3.486709e-01 -1.662864e-03 
3.743673e-01 -2.127377e-03 3.985834e-01 -2.257547e-03 4.267673e-01 -2.247015e-03 3.991672e-01 -2.275734e-03 3.755018e-01 -2.124323e-03 3.553622e-01 -1.798809e-03 3.383431e-01 -1.316166e-03 3.240525e-01 -7.060338e-04 3.121174e-01 -9.956368e-06 3.021915e-01 7.272139e-04 2.939743e-01 1.464039e-03 2.872160e-01 2.165161e-03 2.817117e-01 2.803011e-03 2.772934e-01 3.359703e-03 2.738217e-01 3.826362e-03 2.711839e-01 4.199360e-03 2.692938e-01 4.475821e-03 2.680929e-01 4.649656e-03 2.675516e-01 4.710917e-03 2.676659e-01 4.648615e-03 2.684538e-01 4.454642e-03 2.699522e-01 4.127735e-03 2.722177e-01 3.674988e-03 2.753335e-01 3.111831e-03 2.794204e-01 2.463413e-03 2.846469e-01 1.764821e-03 2.912290e-01 1.053673e-03 2.994071e-01 3.587725e-04 3.094427e-01 -2.985991e-04 3.216236e-01 -8.990880e-04 3.362684e-01 -1.421139e-03 3.537254e-01 -1.839689e-03 
3.768137e-01 -1.534960e-03 4.005162e-01 -1.664655e-03 4.282027e-01 -1.651375e-03 4.009985e-01 -1.732701e-03 3.777491e-01 -1.659940e-03 3.580274e-01 -1.435344e-03 3.414123e-01 -1.070485e-03 3.274998e-01 -5.879056e-04 3.159110e-01 -2.039727e-05 3.062994e-01 5.952347e-04 2.983646e-01 1.223634e-03 2.918562e-01 1.833624e-03 2.865691e-01 2.400033e-03 2.823352e-01 2.905301e-03 2.790171e-01 3.339085e-03 2.765047e-01 3.695471e-03 2.747142e-01 3.969476e-03 2.735888e-01 4.154055e-03 2.730986e-01 4.239622e-03 2.732383e-01 4.216203e-03 2.740238e-01 4.076609e-03 2.754908e-01 3.819532e-03 2.776951e-01 3.450907e-03 2.807192e-01 2.984099e-03 2.846810e-01 2.440725e-03 2.897421e-01 1.850190e-03 2.961075e-01 1.243821e-03 3.040110e-01 6.467574e-04 3.137123e-01 7.829387e-05 3.255019e-01 -4.441274e-04 3.397047e-01 -9.016869e-04 3.566792e-01 -1.273019e-03 
3.815882e-01 -1.718302e-03 4.065330e-01 -1.818575e-03 4.354225e-01 -1.805605e-03 4.070654e-01 -1.844319e-03 3.826199e-01 -1.723142e-03 3.616993e-01 -1.449433e-03 3.439174e-01 -1.039499e-03 3.288992e-01 -5.186053e-04 3.162891e-01 8.071766e-05 3.057590e-01 7.229663e-04 2.970177e-01 1.373777e-03 2.898147e-01 2.002592e-03 2.839392e-01 2.584359e-03 2.792162e-01 3.100513e-03 2.755018e-01 3.538551e-03 2.726811e-01 3.890162e-03 2.706669e-01 4.148837e-03 2.694000e-01 4.307941e-03 2.688478e-01 4.360324e-03 2.690035e-01 4.299595e-03 2.698840e-01 4.122214e-03 2.715291e-01 3.829577e-03 2.740029e-01 3.429209e-03 2.773980e-01 2.935157e-03 2.818409e-01 2.368128e-03 2.874964e-01 1.754438e-03 2.945668e-01 1.122336e-03 3.032843e-01 4.976700e-04 3.139083e-01 -9.656430e-05 3.267251e-01 -6.384041e-04 3.420484e-01 -1.105202e-03 3.602167e-01 -1.473159e-03 
3.822502e-01 -1.222528e-03 4.065406e-01 -1.330705e-03 4.347987e-01 -1.315838e-03 4.069870e-01 -1.403483e-03 3.831131e-01 -1.351608e-03 3.627691e-01 -1.164214e-03 3.455501e-01 -8.530141e-04 3.310663e-01 -4.376278e-04 3.189519e-01 5.570346e-05 3.088734e-01 5.973925e-04 3.005368e-01 1.157883e-03 2.936903e-01 1.710079e-03 2.881231e-01 2.230994e-03 2.836610e-01 2.702726e-03 2.801621e-01 3.112276e-03 2.775140e-01 3.450211e-03 2.756319e-01 3.708871e-03 2.744580e-01 3.880917e-03 2.739600e-01 3.959059e-03 2.741304e-01 3.937052e-03 2.749846e-01 3.811364e-03 2.765605e-01 3.582828e-03 2.789201e-01 3.257635e-03 2.821534e-01 2.847664e-03 2.863827e-01 2.370472e-03 2.917674e-01 1.848243e-03 2.985033e-01 1.304884e-03 3.068189e-01 7.627828e-04 3.169734e-01 2.422862e-04 3.292571e-01 -2.370274e-04 3.439925e-01 -6.550311e-04 3.615315e-01 -9.906420e-04 
3.852408e-01 -1.451887e-03 4.105443e-01 -1.539570e-03 4.397803e-01 -1.525637e-03 4.110450e-01 -1.575022e-03 3.862084e-01 -1.476470e-03 3.648941e-01 -1.238016e-03 3.467252e-01 -8.753030e-04 3.313358e-01 -4.109100e-04 3.183795e-01 1.273636e-04 3.075369e-01 7.092403e-04 2.985220e-01 1.304762e-03 2.910852e-01 1.886462e-03 2.850140e-01 2.430832e-03 2.801302e-01 2.919059e-03 2.762881e-01 3.336887e-03 2.733714e-01 3.673707e-03 2.712929e-01 3.921314e-03 2.699923e-01 4.072915e-03 2.694361e-01 4.122887e-03 2.696163e-01 4.067348e-03 2.705495e-01 3.905240e-03 2.722773e-01 3.639441e-03 2.748671e-01 3.277513e-03 2.784150e-01 2.831980e-03 2.830491e-01 2.320161e-03 2.889314e-01 1.763256e-03 2.962580e-01 1.184498e-03 3.052562e-01 6.072409e-04 3.161827e-01 5.437618e-05 3.293222e-01 -4.512467e-04 3.449861e-01 -8.863603e-04 3.635084e-01 -1.227464e-03 
3.841201e-01 -1.031585e-03 4.086038e-01 -1.134590e-03 4.370490e-01 -1.119479e-03 4.090303e-01 -1.216040e-03 3.849420e-01 -1.180794e-03 3.643819e-01 -1.018647e-03 3.469499e-01 -7.412593e-04 3.322611e-01 -3.666099e-04 3.199553e-01 8.233540e-05 3.097045e-01 5.798249e-04 3.012180e-01 1.099671e-03 2.942445e-01 1.617199e-03 2.885717e-01 2.110647e-03 2.840233e-01 2.561950e-03 2.804560e-01 2.956797e-03 2.777571e-01 3.284033e-03 2.758415e-01 3.534768e-03 2.746511e-01 3.701650e-03 2.741531e-01 3.778688e-03 2.743389e-01 3.761702e-03 2.752237e-01 3.649166e-03 2.768465e-01 3.443076e-03 2.792718e-01 3.149538e-03 2.825917e-01 2.778970e-03 2.869295e-01 2.345908e-03 2.924419e-01 1.868214e-03 2.993203e-01 1.365626e-03 3.077893e-01 8.583114e-04 3.181067e-01 3.663974e-04 3.305629e-01 -8.972146e-05 3.454798e-01 -4.890227e-04 3.632079e-01 -8.100079e-04 
3.853272e-01 -1.319967e-03 4.106299e-01 -1.410169e-03 4.398641e-01 -1.396645e-03 4.111186e-01 -1.455938e-03 3.862697e-01 -1.371723e-03 3.649396e-01 -1.152634e-03 3.467507e-01 -8.143318e-04 3.313373e-01 -3.784207e-04 3.183548e-01 1.292848e-04 3.074861e-01 6.809337e-04 2.984472e-01 1.248797e-03 2.909898e-01 1.807038e-03 2.849009e-01 2.332951e-03 2.800025e-01 2.807614e-03 2.761485e-01 3.215943e-03 2.732236e-01 3.546269e-03 2.711408e-01 3.789682e-03 2.698402e-01 3.939487e-03 2.692881e-01 3.991004e-03 2.694761e-01 3.941793e-03 2.704207e-01 3.792165e-03 2.721637e-01 3.545736e-03 2.747732e-01 3.209831e-03 2.783461e-01 2.795620e-03 2.830094e-01 2.317940e-03 2.889228e-01 1.794730e-03 2.962785e-01 1.246120e-03 3.053009e-01 6.935557e-04 3.162455e-01 1.594084e-04 3.293972e-01 -3.330495e-04 3.450682e-01 -7.597502e-04 3.635940e-01 -1.096439e-03 