# vtk DataFile Version 2.0
Comment goes here
ASCII

DATASET STRUCTURED_POINTS
FIELD FieldData 1
TIME 1 1 double
0.96000000
DIMENSIONS    128   16   1

ORIGIN    0.000   0.000   0.000
SPACING   0.0078125 0.015625   1.000

POINT_DATA   2048
SCALARS uY double
LOOKUP_TABLE default

1.959231e-06 6.161725e-06 3.494865e-06 3.152761e-07 2.588126e-06 -5.541002e-06 9.567043e-06 -8.139667e-06 8.217915e-06 -7.628976e-06 9.786151e-06 -8.797224e-06 9.456511e-06 -1.676173e-05 1.628489e-06 -2.197039e-05 -7.586570e-06 -2.047276e-05 -2.326391e-05 -1.359067e-05 -3.624052e-05 -7.391456e-06 -2.119602e-05 3.560304e-05 1.792227e-05 9.067204e-05 3.518809e-05 9.542437e-05 -1.552125e-05 4.181345e-05 -9.728529e-05 -5.886173e-06 -1.394992e-04 -4.063565e-06 -1.398759e-04 3.965295e-06 -1.549919e-04 -2.530139e-05 -1.901354e-04 -7.166441e-05 -2.175157e-04 -1.282699e-04 -2.628318e-04 -2.559354e-04 -4.004916e-04 -5.145792e-04 -6.405710e-04 -8.627157e-04 -9.084710e-04 -1.233217e-03 -1.185726e-03 -1.647562e-03 -1.553572e-03 -2.121352e-03 -2.042242e-03 -2.522019e-03 -2.603796e-03 -1.180127e-03 -4.072055e-04 -1.030192e-03 3.089887e-04 -7.383692e-04 2.629806e-04 -3.942254e-04 -1.962436e-04 5.521703e-05 -5.216072e-04 2.229849e-04 -3.203249e-04 5.671909e-04 1.868087e-04 1.398451e-03 2.281079e-03 2.356750e-03 2.010823e-03 2.194040e-03 1.651740e-03 1.722660e-03 1.240554e-03 1.260087e-03 9.007158e-04 8.767029e-04 6.396186e-04 5.965572e-04 4.785635e-04 4.336004e-04 4.016455e-04 3.397176e-04 3.455141e-04 2.541465e-04 2.707445e-04 1.574104e-04 1.861786e-04 7.671211e-05 1.309074e-04 3.947587e-05 1.114798e-04 3.267735e-05 1.070095e-04 3.396005e-05 9.499132e-05 2.192965e-05 6.357928e-05 -4.991758e-06 1.840345e-05 -4.216232e-05 -3.249487e-05 -7.093383e-05 -5.844294e-05 -6.075431e-05 -4.128539e-05 -1.252662e-05 1.164983e-06 3.752257e-05 1.967109e-05 3.948502e-05 -1.208964e-05 2.761541e-06 -5.405612e-05 -2.331904e-05 -6.552453e-05 -1.644894e-05 -4.826802e-05 -3.050699e-06 -2.031382e-05 5.736240e-06 -5.308218e-06 8.278741e-06 
-1.133009e-03 -5.470793e-04 -2.937936e-03 -9.817423e-04 -4.796883e-03 3.900085e-03 4.820637e-03 -4.679623e-03 -1.215210e-03 -5.555923e-03 -5.249681e-03 -1.142056e-02 -1.586207e-02 -1.736422e-02 -6.781034e-03 -5.375392e-03 -2.221268e-03 1.977782e-03 3.878838e-03 8.280637e-03 1.749139e-02 1.651452e-02 9.787281e-03 6.207348e-03 3.681071e-03 2.701202e-03 1.430267e-03 1.281998e-03 3.952525e-04 6.566813e-04 -1.106743e-04 4.015095e-04 -3.248105e-04 3.368197e-04 -3.870232e-04 3.141016e-04 -4.134367e-04 2.553869e-04 -4.221741e-04 1.790495e-04 -3.930695e-04 8.585665e-05 -3.782872e-04 -1.026331e-04 -4.837676e-04 -4.656313e-04 -7.544880e-04 -1.007379e-03 -1.198654e-03 -1.800385e-03 -2.009640e-03 -3.206500e-03 -3.724014e-03 -6.045668e-03 -7.719118e-03 -1.297309e-02 -1.417060e-02 -6.552934e-03 -2.521697e-04 -2.710331e-03 2.100463e-04 -3.296822e-04 1.289190e-03 3.354901e-03 1.911358e-03 3.834871e-03 5.259664e-03 2.287789e-03 5.306640e-03 6.083067e-03 3.953567e-04 9.150321e-03 1.091130e-02 5.529449e-03 2.274575e-03 1.625038e-03 7.865350e-04 5.593684e-04 2.914762e-04 1.112546e-04 1.345706e-04 -9.322318e-05 4.818524e-05 -2.067679e-04 -1.413855e-05 -2.051041e-04 -1.224792e-05 -8.364909e-05 1.918188e-05 6.761578e-05 -1.049601e-05 1.454585e-04 -1.317251e-04 1.566025e-04 -2.514989e-04 1.855128e-04 -2.852290e-04 2.409092e-04 -2.515545e-04 2.516387e-04 -2.073918e-04 1.692490e-04 -1.428848e-04 3.757584e-05 -7.875253e-06 -1.154970e-04 1.697253e-04 -3.150513e-04 3.392680e-04 -5.491699e-04 4.988748e-04 -7.349139e-04 6.822260e-04 -7.893394e-04 8.367021e-04 -7.131573e-04 8.232543e-04 -4.356065e-04 5.640234e-04 4.095419e-04 7.283585e-05 3.119848e-03 -3.884980e-03 1.776664e-03 1.121162e-03 1.106779e-03 3.183385e-04 2.180807e-04 
-2.111405e-03 -1.698573e-03 -5.648819e-03 -3.584744e-03 -1.307133e-02 1.299672e-02 1.727919e-02 -9.813268e-03 2.785627e-03 -7.815953e-03 7.475440e-04 -1.036582e-02 6.692252e-05 6.263740e-03 2.791887e-03 1.732839e-03 3.792713e-04 1.855196e-04 -2.766740e-03 -1.373009e-03 -8.338479e-03 3.002335e-03 5.839505e-03 2.041907e-03 2.764612e-03 1.186140e-03 1.440209e-03 8.645724e-04 5.181801e-04 5.993149e-04 -1.329067e-04 4.881181e-04 -4.309137e-04 5.602280e-04 -5.082386e-04 5.767863e-04 -6.170659e-04 4.194698e-04 -7.117525e-04 2.590274e-04 -6.444992e-04 1.687926e-04 -5.103930e-04 -3.983930e-05 -5.802356e-04 -5.571013e-04 -8.987036e-04 -1.263987e-03 -1.285534e-03 -2.106801e-03 -1.889708e-03 -3.541263e-03 -3.295447e-03 -6.465199e-03 -6.937332e-03 -1.556492e-02 -1.765086e-02 1.333206e-03 3.229839e-03 -3.641032e-03 2.893306e-03 -2.732544e-03 1.027845e-03 -7.976664e-04 -6.056529e-04 4.863822e-04 -1.983765e-03 1.018445e-03 -3.240702e-03 1.622605e-03 -4.246106e-03 -1.008325e-03 1.662651e-02 1.654795e-02 8.446723e-03 6.641679e-03 4.236187e-03 3.526911e-03 2.647876e-03 1.964706e-03 1.766666e-03 9.975025e-04 1.061793e-03 2.866536e-04 5.013135e-04 -2.798079e-05 2.701744e-04 1.014237e-04 2.702578e-04 4.014569e-04 1.788223e-04 4.990884e-04 -1.871795e-04 4.011046e-04 -5.312537e-04 4.219955e-04 -5.965818e-04 5.779645e-04 -4.884140e-04 6.238374e-04 -4.265082e-04 3.987811e-04 -3.575942e-04 1.159302e-04 -3.703706e-05 -1.111202e-04 4.164763e-04 -4.715295e-04 7.678202e-04 -1.024600e-03 1.016138e-03 -1.515960e-03 1.404999e-03 -1.631845e-03 1.893226e-03 -1.502613e-03 2.055749e-03 -1.194409e-03 1.681817e-03 -7.031037e-06 6.143315e-04 4.819774e-03 -1.353102e-02 6.623456e-03 5.514795e-03 -1.802720e-04 5.155572e-04 -7.909004e-04 
-1.949872e-03 -3.649409e-03 -9.421386e-03 -1.221595e-02 -2.915411e-02 2.347394e-03 1.095723e-02 -3.594971e-03 5.205858e-03 -7.632417e-04 4.604590e-03 2.981306e-03 4.733761e-03 -4.826635e-03 1.293930e-03 -2.333697e-03 1.312475e-03 -1.564152e-03 1.961668e-03 -1.016356e-03 3.645512e-03 -3.704937e-03 -4.038493e-03 -2.129373e-03 -1.813635e-03 -7.058216e-04 -9.838135e-04 -9.755735e-05 -1.031345e-03 -4.924118e-06 -1.340119e-03 1.561439e-04 -1.307307e-03 6.109688e-04 -1.049701e-03 8.654089e-04 -1.061200e-03 6.997575e-04 -1.141125e-03 5.829782e-04 -8.532140e-04 7.414368e-04 -3.281250e-04 7.966808e-04 -1.005970e-04 4.123659e-04 -1.363439e-04 9.861623e-05 2.446354e-04 4.194784e-04 1.190301e-03 1.176791e-03 2.270330e-03 2.127377e-03 3.852246e-03 5.129327e-03 8.087212e-03 -9.305811e-04 2.564463e-04 1.799955e-03 2.093897e-04 7.068263e-04 3.098007e-05 1.123565e-04 5.461606e-04 3.282702e-05 -3.603830e-04 1.721814e-04 3.197028e-04 -8.846689e-05 1.402553e-03 -6.845810e-04 -1.019910e-02 -7.570057e-03 -5.224303e-03 -3.575312e-03 -2.285737e-03 -1.828166e-03 -6.460819e-04 -9.393449e-04 9.934547e-05 -7.824158e-04 -2.329468e-05 -1.131220e-03 -4.535809e-04 -1.158988e-03 -4.342028e-04 -4.993368e-04 -2.935724e-05 3.649017e-04 8.038593e-05 6.476859e-04 -5.298228e-04 4.258865e-04 -1.149738e-03 4.926228e-04 -1.181586e-03 8.976425e-04 -8.944151e-04 1.080180e-03 -8.218230e-04 6.826971e-04 -8.294335e-04 2.557409e-04 -3.022552e-04 6.452355e-05 4.726923e-04 -4.026855e-04 9.394536e-04 -1.355239e-03 1.121619e-03 -2.251780e-03 1.680657e-03 -2.401635e-03 2.611235e-03 -2.279460e-03 2.960704e-03 -2.427884e-03 2.276348e-03 -2.277780e-03 1.724597e-04 4.588053e-04 -1.164681e-02 3.480091e-02 2.141480e-02 4.825111e-03 4.377809e-03 3.793243e-04 
-1.201859e-03 -4.882866e-03 -7.130587e-03 -1.363324e-02 -2.165084e-02 -2.143233e-02 -1.373889e-02 8.490621e-04 -2.195496e-04 -2.656047e-03 2.100386e-04 -4.923430e-03 -1.296687e-03 -3.708948e-04 3.115052e-04 -6.001924e-04 4.852748e-04 -5.408080e-04 4.921057e-04 -3.085688e-04 2.146211e-04 1.351539e-03 3.539739e-03 3.832788e-04 2.046685e-03 1.617105e-04 1.259088e-03 1.270934e-04 4.432237e-04 1.613122e-05 -2.554408e-04 8.960281e-05 -5.355995e-04 4.303536e-04 -5.524194e-04 6.419305e-04 -7.049536e-04 5.458463e-04 -8.767658e-04 4.686620e-04 -7.687790e-04 5.623543e-04 -4.851407e-04 5.393294e-04 -4.254929e-04 1.454870e-04 -5.921339e-04 -2.669268e-04 -5.395922e-04 -3.368854e-04 -2.436711e-04 -3.309923e-04 -2.192615e-04 -8.000272e-04 -9.256096e-04 -1.353930e-03 -1.328739e-03 -2.014973e-03 -2.945881e-04 -1.935507e-03 -2.901691e-04 -1.179905e-03 -3.402045e-04 6.142973e-04 5.095356e-05 7.676054e-04 9.918731e-05 1.443504e-05 -1.959852e-04 6.247866e-04 -2.024565e-03 1.954890e-03 3.434121e-03 1.448473e-03 1.651472e-03 9.195798e-04 1.204374e-03 4.506675e-04 1.076715e-03 2.292911e-04 9.550312e-04 -8.275352e-05 5.067756e-04 -5.487135e-04 -1.884251e-05 -6.735160e-04 -1.359729e-04 -2.412156e-04 7.607813e-05 3.676385e-04 9.548672e-05 5.680915e-04 -4.022039e-04 4.105708e-04 -9.073136e-04 4.677642e-04 -9.781133e-04 7.759408e-04 -8.049296e-04 9.251468e-04 -7.778709e-04 6.579880e-04 -8.039183e-04 3.741592e-04 -4.434552e-04 2.611163e-04 9.463975e-05 -5.693809e-05 4.096681e-04 -7.353253e-04 5.249235e-04 -1.381579e-03 9.276536e-04 -1.500388e-03 1.621638e-03 -1.447152e-03 1.936456e-03 -1.657802e-03 1.650304e-03 -1.873777e-03 1.121537e-03 -1.567648e-03 9.019975e-03 4.212194e-02 2.121617e-02 8.079789e-03 4.823696e-03 9.158304e-04 
-5.678107e-04 -2.013128e-03 -2.776542e-03 -5.054669e-03 -5.287660e-03 -1.515740e-02 -1.411138e-02 1.024722e-04 -3.569723e-03 -4.265806e-03 -3.062868e-03 -9.251126e-03 -4.403554e-03 -2.518288e-04 3.489900e-04 -6.010878e-04 5.171981e-04 -5.588695e-04 5.233302e-04 -3.097125e-04 1.875196e-04 5.774410e-03 7.399760e-03 2.349452e-03 2.990773e-03 8.353517e-04 1.294467e-03 3.343208e-04 3.949775e-04 1.484157e-04 -1.252181e-04 1.339651e-04 -3.896218e-04 2.167203e-04 -5.075452e-04 2.789673e-04 -5.939597e-04 2.595803e-04 -6.601205e-04 1.956761e-04 -6.776008e-04 9.019598e-05 -6.993655e-04 -1.502562e-04 -8.488007e-04 -6.309216e-04 -1.205863e-03 -1.400084e-03 -1.839953e-03 -2.636398e-03 -3.043647e-03 -4.895085e-03 -5.419884e-03 -9.186866e-03 -1.092649e-02 -2.298265e-02 -2.669193e-02 2.542184e-03 3.682824e-03 -1.504615e-03 3.564303e-03 -7.940668e-04 2.305063e-03 -9.064694e-05 5.887366e-04 1.076855e-03 -1.025261e-03 2.824361e-03 -1.517332e-03 2.913746e-03 -4.333435e-04 -2.327477e-03 2.090090e-02 1.957726e-02 9.473436e-03 6.834236e-03 4.411030e-03 3.583833e-03 2.692441e-03 2.004215e-03 1.767374e-03 1.128881e-03 1.154604e-03 5.952919e-04 7.053913e-04 3.345396e-04 4.336023e-04 3.118655e-04 2.845250e-04 3.950012e-04 1.226526e-04 4.296229e-04 -1.253311e-04 4.044150e-04 -3.562373e-04 4.184777e-04 -4.633857e-04 4.775969e-04 -4.689151e-04 4.907795e-04 -4.487873e-04 4.001704e-04 -3.946737e-04 2.691212e-04 -2.400727e-04 1.353898e-04 -2.941230e-05 -6.031231e-05 1.479976e-04 -3.273334e-04 2.926211e-04 -5.526040e-04 4.867382e-04 -6.047112e-04 7.185029e-04 -4.855015e-04 8.784653e-04 -1.533140e-04 1.064188e-03 7.134893e-04 1.964803e-03 2.135992e-03 1.116030e-02 1.688128e-02 5.960687e-03 5.383152e-03 2.104266e-03 1.419440e-03 
-6.240069e-04 -1.926771e-03 -2.854913e-03 -4.110715e-03 -4.526529e-03 -5.828792e-03 -6.037779e-03 -4.644688e-03 -4.706497e-03 -6.789248e-03 -5.613556e-03 -1.169666e-02 -1.030092e-02 -1.883588e-04 6.209971e-05 -1.926637e-04 1.476496e-04 -1.551092e-04 1.820454e-04 -5.800667e-05 1.999827e-04 1.133333e-02 1.173016e-02 4.226812e-03 4.908017e-03 1.705984e-03 2.449971e-03 8.123392e-04 1.181878e-03 4.277973e-04 4.673126e-04 2.841884e-04 6.828234e-05 2.599247e-04 -1.547362e-04 2.515302e-04 -3.072908e-04 2.026821e-04 -4.223601e-04 1.181136e-04 -5.063030e-04 -1.520363e-05 -6.147364e-04 -2.674071e-04 -8.456579e-04 -7.151191e-04 -1.272021e-03 -1.399761e-03 -1.964199e-03 -2.426407e-03 -3.118512e-03 -4.051441e-03 -4.980187e-03 -6.323338e-03 -7.708779e-03 -1.204896e-02 -1.471377e-02 -1.070454e-03 5.786971e-03 8.496043e-04 4.669605e-03 2.339536e-03 4.489806e-03 3.859548e-03 3.788966e-03 4.621671e-03 3.690113e-03 4.711579e-03 2.397463e-03 5.045786e-03 1.828534e-03 3.471646e-03 6.793408e-03 2.650462e-03 -1.750951e-04 -6.836506e-04 -9.201088e-05 -1.472525e-04 3.109284e-04 7.668013e-05 4.743707e-04 1.680027e-04 4.933813e-04 1.783631e-04 4.169836e-04 1.844554e-04 3.253087e-04 2.375539e-04 2.383792e-04 3.066926e-04 1.135154e-04 3.292353e-04 -6.733584e-05 3.114021e-04 -2.327963e-04 3.148532e-04 -3.147961e-04 3.452057e-04 -3.233856e-04 3.479470e-04 -3.022247e-04 2.859268e-04 -2.491907e-04 1.893332e-04 -1.327331e-04 7.658782e-05 1.864694e-05 -8.119292e-05 1.549847e-04 -2.797393e-04 2.800456e-04 -4.415324e-04 4.454322e-04 -4.744237e-04 6.578104e-04 -3.419943e-04 8.913677e-04 5.776597e-05 1.258989e-03 1.064603e-03 2.115437e-03 3.145698e-03 3.924607e-03 7.013710e-03 3.837291e-03 3.700427e-03 1.751568e-03 7.799730e-04 
-1.967555e-04 -6.576975e-04 -1.016606e-03 -1.706264e-03 -1.815223e-03 -2.735013e-03 -2.859692e-03 -2.237365e-03 -2.454339e-03 -3.221120e-03 -2.629339e-03 -5.590105e-03 -4.762245e-03 -9.001231e-05 6.233713e-05 -1.269921e-04 1.153396e-04 -1.162490e-04 1.233315e-04 -5.388676e-05 1.009633e-04 5.677523e-03 5.806368e-03 1.953492e-03 2.225205e-03 7.014317e-04 9.797052e-04 2.815928e-04 3.815312e-04 1.199695e-04 7.088227e-05 6.250556e-05 -9.947209e-05 4.372808e-05 -2.007086e-04 2.344812e-05 -2.775258e-04 -2.446541e-05 -3.552117e-04 -1.146445e-04 -4.541655e-04 -2.683977e-04 -6.085584e-04 -5.214439e-04 -8.632914e-04 -9.058212e-04 -1.252154e-03 -1.428137e-03 -1.791727e-03 -2.068155e-03 -2.486742e-03 -2.734266e-03 -3.232626e-03 -2.957168e-03 -3.486870e-03 -2.478054e-03 -6.764987e-03 -3.653451e-04 3.473243e-03 -3.166563e-03 2.959833e-03 -1.908972e-03 1.043822e-03 -6.642621e-04 -7.598684e-04 2.314540e-04 -2.524805e-03 1.358405e-03 -3.186347e-03 1.634363e-03 -1.945302e-03 8.841095e-04 6.855807e-03 3.473203e-03 3.332497e-03 2.231592e-03 2.369583e-03 1.765582e-03 1.745392e-03 1.386805e-03 1.397410e-03 1.162780e-03 1.181080e-03 9.902958e-04 9.805626e-04 8.229025e-04 7.715348e-04 6.659637e-04 5.653520e-04 5.286399e-04 3.705350e-04 4.110462e-04 1.952560e-04 3.179785e-04 5.783047e-05 2.580353e-04 -2.821087e-05 2.259584e-04 -6.768644e-05 2.026503e-04 -7.575029e-05 1.711133e-04 -6.196820e-05 1.274971e-04 -3.013915e-05 7.104074e-05 9.687792e-06 -4.231211e-07 4.785846e-05 -7.721887e-05 8.726411e-05 -1.329194e-04 1.405177e-04 -1.359710e-04 2.179659e-04 -5.670381e-05 3.425747e-04 1.600691e-04 5.951686e-04 6.194043e-04 1.129679e-03 1.420022e-03 1.995319e-03 2.619846e-03 1.498692e-03 1.623776e-03 6.683706e-04 4.696701e-04 
-1.184754e-05 -8.327160e-06 -9.726084e-06 -4.260331e-06 -6.930529e-06 8.747306e-07 -3.943356e-06 5.520632e-06 3.443313e-07 8.565157e-06 4.290117e-06 1.021890e-05 6.092417e-06 2.593021e-06 3.194395e-06 2.535332e-06 4.517922e-06 2.992465e-06 6.458093e-06 4.537552e-06 9.543503e-06 -4.459229e-05 -3.690388e-05 -6.661934e-06 -1.413160e-05 1.181916e-05 -1.117700e-05 1.283058e-05 -2.923799e-05 -2.582542e-06 -5.764402e-05 -1.973273e-05 -8.034913e-05 -3.037255e-05 -9.799003e-05 -4.636184e-05 -1.267583e-04 -8.462996e-05 -1.788599e-04 -1.555261e-04 -2.651373e-04 -2.768197e-04 -4.115683e-04 -4.825072e-04 -6.549104e-04 -8.031943e-04 -1.015164e-03 -1.241933e-03 -1.488222e-03 -1.786002e-03 -2.067220e-03 -2.414093e-03 -2.713312e-03 -3.000954e-03 -3.198263e-03 -3.220186e-03 -3.429855e-03 -2.609820e-03 -1.000575e-03 -1.480362e-03 -1.881088e-04 -5.470466e-04 2.783219e-04 5.276746e-04 7.163160e-04 1.441650e-03 1.771425e-03 3.131504e-03 3.722836e-03 5.236150e-03 4.561260e-03 3.957243e-03 2.835790e-03 1.608173e-03 7.818789e-04 3.016224e-04 6.483928e-06 -9.871459e-05 -1.064054e-04 -2.149096e-05 8.323500e-05 1.950342e-04 2.909634e-04 3.508136e-04 3.982114e-04 3.973056e-04 4.021764e-04 3.592893e-04 3.391047e-04 2.766085e-04 2.472589e-04 1.841075e-04 1.576767e-04 1.083746e-04 9.199967e-05 6.302972e-05 5.616132e-05 4.561679e-05 4.311657e-05 4.495480e-05 4.016998e-05 4.751913e-05 3.531356e-05 4.398876e-05 2.217916e-05 3.112313e-05 1.158705e-06 1.372727e-05 -1.910535e-05 1.549949e-06 -3.047137e-05 -1.536139e-06 -3.348841e-05 -1.279669e-06 -3.664632e-05 -6.943145e-06 -4.453467e-05 -1.742046e-05 -4.979228e-05 -2.379121e-05 -4.466806e-05 -2.230127e-05 -3.120318e-05 -1.771492e-05 -2.001317e-05 -1.340220e-05 -1.432357e-05 -1.093927e-05 
1.756763e-04 6.398751e-04 9.990604e-04 1.695429e-03 1.802289e-03 2.732651e-03 2.849096e-03 2.242022e-03 2.454018e-03 3.228292e-03 2.638030e-03 5.598684e-03 4.776750e-03 9.365449e-05 -5.581589e-05 1.304141e-04 -1.065131e-04 1.199834e-04 -1.126641e-04 6.100193e-05 -8.842398e-05 -5.759540e-03 -5.889741e-03 -1.970488e-03 -2.271191e-03 -6.928408e-04 -1.026341e-03 -2.805853e-04 -4.679015e-04 -1.574214e-04 -2.165697e-04 -1.424880e-04 -9.582661e-05 -1.559371e-04 -3.725828e-05 -1.816833e-04 -2.844684e-05 -2.262114e-04 -6.675158e-05 -2.927205e-04 -1.494862e-04 -3.897646e-04 -2.870295e-04 -5.393892e-04 -4.981545e-04 -7.554488e-04 -7.783000e-04 -1.013674e-03 -1.089405e-03 -1.266306e-03 -1.392146e-03 -1.474652e-03 -1.655920e-03 -1.598498e-03 -1.808710e-03 -1.593649e-03 -1.763736e-03 -1.476100e-03 -5.042562e-04 -1.441846e-03 6.134610e-05 -9.260660e-04 1.656099e-04 -1.589010e-04 1.400914e-04 6.328609e-04 1.483190e-04 1.282441e-03 3.194059e-04 1.499286e-03 6.293718e-04 1.136903e-03 1.130182e-03 8.495714e-04 7.330688e-04 5.568866e-04 5.055871e-04 5.390273e-04 5.252741e-04 6.784661e-04 6.458862e-04 8.044521e-04 7.287451e-04 8.287320e-04 7.281232e-04 7.475631e-04 6.554417e-04 5.908388e-04 5.405685e-04 4.011827e-04 4.212090e-04 2.234844e-04 3.280249e-04 8.803082e-05 2.706034e-04 1.536832e-06 2.382346e-04 -4.269129e-05 2.173232e-04 -5.118538e-05 1.955744e-04 -3.566107e-05 1.570340e-04 -1.200444e-05 9.132195e-05 1.236270e-05 6.911892e-06 4.635851e-05 -7.219702e-05 9.694183e-05 -1.350348e-04 1.438717e-04 -1.958556e-04 1.446192e-04 -2.811446e-04 5.178141e-05 -4.225403e-04 -1.875284e-04 -6.862571e-04 -6.614952e-04 -1.210849e-03 -1.462005e-03 -2.047925e-03 -2.655506e-03 -1.532504e-03 -1.650675e-03 -6.930963e-04 -4.919864e-04 
6.130885e-04 1.916662e-03 2.844318e-03 4.107187e-03 4.518017e-03 5.835123e-03 6.024305e-03 4.660065e-03 4.705777e-03 6.808583e-03 5.623625e-03 1.172008e-02 1.031656e-02 1.920894e-04 -5.735394e-05 1.956839e-04 -1.410804e-04 1.567415e-04 -1.741324e-04 6.090801e-05 -1.852481e-04 -1.144348e-02 -1.180978e-02 -4.243603e-03 -4.900809e-03 -1.634802e-03 -2.405697e-03 -7.363664e-04 -1.213277e-03 -4.403239e-04 -6.214989e-04 -3.692164e-04 -2.741157e-04 -3.311209e-04 -3.734829e-05 -3.060221e-04 8.403280e-05 -3.185774e-04 1.078048e-04 -3.391681e-04 8.640154e-05 -3.474850e-04 2.171722e-05 -3.968399e-04 -1.472781e-04 -5.530605e-04 -4.240149e-04 -7.713966e-04 -7.078092e-04 -9.567366e-04 -9.234298e-04 -1.086372e-03 -1.082975e-03 -1.194733e-03 -1.194950e-03 -1.241147e-03 -1.140719e-03 -1.078894e-03 -6.882248e-04 -6.911607e-04 -2.085635e-04 -1.647281e-04 2.833832e-04 4.643054e-04 8.019113e-04 1.108943e-03 1.327122e-03 1.662235e-03 1.645359e-03 1.826763e-03 1.406802e-03 1.285602e-03 6.683428e-04 5.190675e-04 -1.317751e-05 1.147277e-04 -2.505632e-04 9.831208e-05 -1.972080e-04 2.204102e-04 -7.332545e-05 3.173595e-04 4.634762e-05 3.697505e-04 1.710033e-04 3.748058e-04 2.637925e-04 2.813074e-04 2.777882e-04 9.649175e-05 2.533513e-04 -9.287562e-05 2.614103e-04 -2.148785e-04 3.159171e-04 -2.731517e-04 3.649311e-04 -2.968548e-04 3.828019e-04 -2.722393e-04 3.714464e-04 -2.030785e-04 3.005526e-04 -1.280487e-04 1.387756e-04 -6.520746e-05 -8.066949e-05 4.015444e-05 -2.582282e-04 2.377544e-04 -3.622302e-04 4.561817e-04 -4.658340e-04 5.512581e-04 -6.526724e-04 4.050409e-04 -9.398586e-04 -6.781310e-05 -1.370405e-03 -1.125482e-03 -2.230137e-03 -3.202364e-03 -3.982048e-03 -7.053839e-03 -3.859769e-03 -3.720451e-03 -1.763265e-03 -7.940270e-04 
5.670876e-04 2.007769e-03 2.776157e-03 5.055529e-03 5.294537e-03 1.516379e-02 1.406641e-02 -8.446650e-05 3.570567e-03 4.273820e-03 3.076711e-03 9.252679e-03 4.422501e-03 2.563504e-04 -3.398480e-04 6.024233e-04 -5.065152e-04 5.503284e-04 -5.135670e-04 2.989280e-04 -1.828171e-04 -5.859419e-03 -7.483718e-03 -2.364724e-03 -2.970515e-03 -7.353507e-04 -1.214992e-03 -2.355912e-04 -4.267467e-04 -1.931748e-04 -8.641475e-05 -2.884931e-04 1.228936e-04 -3.302164e-04 2.975128e-04 -3.439772e-04 3.640417e-04 -3.950397e-04 3.279668e-04 -4.326959e-04 2.732966e-04 -4.125762e-04 2.066144e-04 -4.143607e-04 2.189097e-05 -5.512235e-04 -2.982128e-04 -7.563815e-04 -5.993150e-04 -8.873792e-04 -7.757324e-04 -9.280419e-04 -8.721702e-04 -9.756563e-04 -9.629056e-04 -1.040615e-03 -9.309313e-04 -9.077183e-04 -5.183886e-04 -7.083131e-04 -2.006356e-04 -4.290996e-04 1.350375e-07 -7.976935e-05 1.526944e-04 2.989675e-04 3.372242e-04 6.194747e-04 4.273401e-04 7.714885e-04 3.511983e-04 7.080031e-04 3.232792e-04 5.694075e-04 1.774339e-04 5.750436e-04 1.934104e-04 6.779998e-04 2.205395e-04 6.863684e-04 1.656477e-04 5.899072e-04 1.190896e-04 5.049283e-04 1.816424e-04 4.557138e-04 2.805388e-04 3.185251e-04 2.961347e-04 6.568567e-05 2.695210e-04 -1.841112e-04 3.025773e-04 -3.296891e-04 4.087798e-04 -3.918507e-04 4.944339e-04 -4.261856e-04 5.252871e-04 -3.992558e-04 5.209476e-04 -3.083248e-04 4.384023e-04 -2.142231e-04 2.239625e-04 -1.498037e-04 -7.518513e-05 -2.192567e-05 -2.942974e-04 2.611717e-04 -3.840467e-04 5.904581e-04 -4.623605e-04 7.542493e-04 -6.432852e-04 6.163126e-04 -8.925805e-04 1.657708e-04 -1.188185e-03 -7.836897e-04 -2.108223e-03 -2.203753e-03 -1.118320e-02 -1.694163e-02 -5.970048e-03 -5.400037e-03 -2.103387e-03 -1.428078e-03 
1.218323e-03 4.885827e-03 7.140866e-03 1.363719e-02 2.166400e-02 2.144408e-02 1.367209e-02 -8.245893e-04 2.149011e-04 2.680882e-03 -1.875615e-04 4.970014e-03 1.327189e-03 3.680682e-04 -3.082609e-04 6.027728e-04 -4.807182e-04 5.260188e-04 -5.148704e-04 2.569167e-04 -2.937018e-04 -1.642342e-03 -3.757723e-03 -5.127869e-04 -1.863095e-03 2.736536e-04 -7.082197e-04 3.701026e-04 -2.656631e-04 -1.018501e-04 -2.338032e-04 -5.760150e-04 -3.502994e-06 -5.522715e-04 4.918626e-04 -4.033349e-04 6.642126e-04 -5.302417e-04 5.280552e-04 -6.012547e-04 5.435697e-04 -2.962564e-04 7.978516e-04 7.949126e-05 7.332179e-04 -6.830093e-05 1.576309e-04 -4.457598e-04 -2.677587e-04 -4.360901e-04 -1.741868e-04 -3.730223e-05 1.304217e-04 2.125351e-04 9.706699e-05 4.786357e-05 -1.202206e-04 -2.195358e-05 -4.149248e-05 -6.817053e-05 -6.352609e-05 -2.358391e-04 -2.073770e-04 -4.154167e-04 -2.242380e-04 -2.306793e-04 2.156902e-04 2.951327e-04 5.635453e-04 5.127068e-04 2.604823e-04 2.115533e-04 -2.670420e-04 -7.492256e-05 -4.984025e-04 2.742898e-04 -1.319786e-04 7.861464e-04 -3.358140e-06 7.062160e-04 -3.790002e-04 2.562735e-04 -6.750719e-04 1.090331e-04 -3.637155e-04 3.782401e-04 1.455821e-04 3.440550e-04 2.122798e-04 -1.780390e-04 6.744973e-05 -6.827998e-04 1.760319e-04 -7.974806e-04 5.928701e-04 -7.328473e-04 8.423202e-04 -8.183047e-04 8.738497e-04 -7.689698e-04 9.496730e-04 -4.988978e-04 9.067323e-04 -2.858584e-04 4.386866e-04 -3.613276e-04 -3.903580e-04 -3.122996e-04 -8.613039e-04 4.008544e-04 -7.866548e-04 1.414895e-03 -7.171032e-04 2.010625e-03 -1.166283e-03 1.879669e-03 -1.858070e-03 1.623319e-03 -1.984044e-03 1.593400e-03 -1.487929e-03 1.449220e-03 -9.013329e-03 -4.218708e-02 -2.114962e-02 -8.063743e-03 -4.788275e-03 -9.099672e-04 
1.969620e-03 3.657907e-03 9.427548e-03 1.221105e-02 2.914655e-02 -2.338811e-03 -1.094861e-02 3.597563e-03 -5.210689e-03 7.867606e-04 -4.582586e-03 -2.919636e-03 -4.687814e-03 4.884767e-03 -1.296225e-03 2.330460e-03 -1.326908e-03 1.478429e-03 -2.001058e-03 8.041406e-04 -3.761230e-03 3.385031e-03 3.714887e-03 2.007147e-03 2.070762e-03 1.376201e-03 1.769513e-03 8.618273e-04 1.316041e-03 -3.260015e-05 7.058931e-04 -7.539224e-04 5.905136e-04 -7.183552e-04 9.734876e-04 -4.892597e-04 9.986138e-04 -6.375497e-04 6.669387e-04 -7.067933e-04 6.007582e-04 -2.541328e-04 9.123083e-04 3.013366e-04 8.225060e-04 1.347459e-04 5.467751e-05 -3.512848e-04 -4.876101e-04 -3.076509e-04 -2.966820e-04 2.800152e-04 2.265034e-04 6.913871e-04 3.444129e-04 5.399220e-04 1.913796e-04 2.841385e-04 9.306353e-05 1.389164e-04 3.121630e-05 -1.117293e-04 -1.321383e-04 -4.009925e-04 -1.207075e-04 -2.030565e-04 4.272627e-04 4.289646e-04 8.119356e-04 4.980748e-04 2.904008e-04 -1.755053e-04 -7.252154e-04 -6.902054e-04 -9.955484e-04 -1.894041e-04 -4.115847e-04 5.979638e-04 -1.530435e-04 5.883013e-04 -6.080649e-04 6.256236e-05 -9.809822e-04 -6.294667e-05 -5.384901e-04 3.751551e-04 1.679802e-04 3.926879e-04 2.647383e-04 -2.576153e-04 7.267379e-05 -8.850736e-04 2.214549e-04 -9.881208e-04 7.796263e-04 -8.636104e-04 1.088292e-03 -9.643808e-04 1.084398e-03 -8.835218e-04 1.139053e-03 -4.927377e-04 1.032923e-03 -1.698140e-04 3.459319e-04 -2.416737e-04 -8.413986e-04 -1.510939e-04 -1.537734e-03 8.408317e-04 -1.477135e-03 2.233425e-03 -1.398415e-03 3.041839e-03 -1.989434e-03 2.825304e-03 -2.844292e-03 2.354967e-03 -2.703928e-03 1.898105e-03 -6.285811e-04 -5.690434e-04 1.158997e-02 -3.479924e-02 -2.131525e-02 -4.769038e-03 -4.332291e-03 -3.568702e-04 
2.119076e-03 1.706640e-03 5.649052e-03 3.575258e-03 1.305207e-02 -1.300856e-02 -1.722375e-02 9.788723e-03 -2.780122e-03 7.803673e-03 -7.296378e-04 1.035739e-02 -2.840868e-05 -6.289650e-03 -2.762520e-03 -1.784559e-03 -3.741387e-04 -2.450268e-04 2.706275e-03 1.301468e-03 8.155854e-03 -3.144485e-03 -5.989587e-03 -2.021410e-03 -2.640203e-03 -8.060398e-04 -1.102558e-03 -4.486098e-04 -4.350437e-04 -5.540221e-04 -2.384490e-04 -7.242587e-04 -4.850790e-05 -6.368737e-04 2.350795e-04 -4.846779e-04 3.129931e-04 -4.890489e-04 2.066226e-04 -4.637449e-04 1.821661e-04 -2.348288e-04 2.831557e-04 8.248622e-06 1.900910e-04 -7.322016e-05 -1.916898e-04 -2.953720e-04 -4.597908e-04 -2.754441e-04 -3.739450e-04 1.422667e-05 -9.558874e-05 2.756739e-04 5.926288e-05 3.226340e-04 9.372102e-05 2.031575e-04 5.333455e-05 8.997332e-07 2.078425e-05 -2.321021e-04 -1.166505e-04 -4.246157e-04 -2.081829e-04 -3.155863e-04 -6.600384e-05 -3.067359e-07 1.379869e-04 4.128182e-05 7.458899e-05 -1.518837e-04 -2.271906e-04 -1.164332e-04 -1.760429e-04 3.103438e-04 1.604769e-04 7.707631e-04 3.050617e-04 8.160307e-04 1.045713e-04 5.702650e-04 -9.010046e-05 4.397452e-04 5.251122e-05 5.175232e-04 3.238575e-04 4.155066e-04 3.637971e-04 3.190631e-05 2.904422e-04 -3.415163e-04 3.623597e-04 -4.793019e-04 6.071155e-04 -4.866609e-04 7.492025e-04 -5.422788e-04 7.391974e-04 -4.919339e-04 7.022646e-04 -2.894860e-04 5.393824e-04 -9.060725e-05 8.631539e-05 -1.909271e-05 -5.937783e-04 1.617494e-04 -1.067313e-03 7.426354e-04 -1.204428e-03 1.481712e-03 -1.303615e-03 1.905940e-03 -1.641352e-03 1.749651e-03 -2.023201e-03 1.172954e-03 -1.895908e-03 -1.565122e-04 -8.477890e-04 -4.867865e-03 1.340639e-02 -6.599141e-03 -5.496242e-03 2.170607e-04 -5.043338e-04 8.101448e-04 
1.138501e-03 5.606838e-04 2.943751e-03 9.843752e-04 4.794213e-03 -3.906009e-03 -4.789042e-03 4.668511e-03 1.228560e-03 5.549406e-03 5.267552e-03 1.140745e-02 1.588066e-02 1.731975e-02 6.787214e-03 5.328419e-03 2.188012e-03 -1.978769e-03 -3.972400e-03 -8.215673e-03 -1.753068e-02 -1.658463e-02 -9.798552e-03 -6.149938e-03 -3.594868e-03 -2.492750e-03 -1.294900e-03 -1.051492e-03 -3.809594e-04 -5.541668e-04 -7.167106e-05 -4.067847e-04 5.409161e-05 -3.142645e-04 1.397906e-04 -2.426634e-04 1.510639e-04 -2.244489e-04 9.820443e-05 -2.142906e-04 4.299741e-05 -1.852989e-04 -2.883740e-05 -2.219320e-04 -2.248344e-04 -4.332386e-04 -5.765118e-04 -7.817502e-04 -9.811604e-04 -1.178389e-03 -1.396384e-03 -1.660001e-03 -1.921210e-03 -2.329593e-03 -2.591847e-03 -2.983342e-03 -2.863551e-03 -2.302010e-03 -1.306099e-03 -1.247872e-03 -3.065323e-04 -2.013301e-04 4.806143e-04 8.134887e-04 1.175004e-03 1.462451e-03 1.914304e-03 1.858175e-03 2.114912e-03 2.391087e-03 1.748954e-03 2.478837e-03 1.968651e-03 1.724318e-03 1.007242e-03 9.973901e-04 4.322087e-04 6.061436e-04 1.278126e-04 3.686185e-04 -6.050061e-05 1.941951e-04 -1.404004e-04 1.126762e-04 -7.754608e-05 1.106147e-04 4.910859e-05 7.042411e-05 1.234581e-04 -5.690839e-05 1.504990e-04 -2.003353e-04 1.992174e-04 -2.812293e-04 2.889266e-04 -3.027271e-04 3.576259e-04 -3.014337e-04 3.740758e-04 -2.574652e-04 3.429880e-04 -1.712988e-04 2.312118e-04 -8.317708e-05 7.350425e-06 -9.008892e-06 -2.821383e-04 1.254820e-04 -5.045604e-04 3.907627e-04 -6.094579e-04 7.036444e-04 -6.745256e-04 8.888079e-04 -7.748507e-04 8.170894e-04 -8.395793e-04 4.432234e-04 -6.841972e-04 -4.686383e-04 -2.149154e-04 -3.157119e-03 3.772151e-03 -1.777380e-03 -1.153462e-03 -1.093317e-03 -3.245722e-04 -2.010947e-04 
