# vtk DataFile Version 2.0
Comment goes here
ASCII

DATASET STRUCTURED_POINTS
FIELD FieldData 1
TIME 1 1 double
0.03000000
DIMENSIONS    128   16   1

ORIGIN    0.000   0.000   0.000
SPACING   0.0078125 0.015625   1.000

POINT_DATA   2048
SCALARS uY double
LOOKUP_TABLE default

-1.276629e-03 -5.187065e-04 5.177241e-04 1.233032e-03 2.190817e-03 2.675911e-03 3.184037e-03 3.341012e-03 4.510421e-03 1.789593e-03 -1.648922e-03 -5.991734e-03 -8.745447e-03 -1.248724e-02 -1.198017e-02 -1.386804e-02 -1.183595e-02 -1.260562e-02 -7.918214e-03 -6.269939e-03 2.448504e-03 4.824391e-03 1.554272e-02 1.465763e-02 9.510385e-03 4.765238e-03 1.096885e-03 1.745559e-03 7.599509e-03 1.379941e-02 1.269484e-02 5.857439e-03 2.579221e-04 -5.407418e-03 -7.096628e-03 -6.020569e-03 -9.901263e-04 -2.747965e-03 -8.023530e-03 -7.337895e-03 -7.996934e-03 -4.135407e-03 -1.677178e-02 -1.514278e-02 -1.046637e-02 -2.117924e-02 -1.821278e-02 -2.851272e-02 -1.468706e-02 -3.143772e-02 -2.316880e-02 -3.748890e-02 -3.848156e-02 -2.062810e-02 -3.823115e-02 -1.084752e-02 2.253294e-02 9.306698e-02 1.114008e-01 6.085787e-02 2.759641e-02 2.411641e-02 1.335255e-02 3.141174e-02 3.982778e-02 -1.165101e-02 -4.103396e-02 -8.192661e-02 -6.948418e-02 1.469622e-02 7.378802e-02 8.059214e-02 3.624322e-02 -8.635828e-04 -1.017444e-02 -1.576544e-02 -8.315829e-03 -6.252870e-03 -5.868338e-03 4.728467e-03 -1.971936e-03 1.343817e-03 8.072543e-03 6.348114e-03 6.312503e-03 4.197260e-03 -8.058108e-05 -2.131946e-04 6.120758e-03 -3.390265e-03 -1.205156e-02 -1.056833e-02 -2.469839e-03 2.740224e-03 -1.034657e-02 2.061548e-03 7.081270e-04 -1.376622e-03 -1.329284e-02 -1.882393e-02 -1.483295e-02 -1.135018e-02 1.790199e-03 -4.313803e-03 -2.152556e-03 -3.379536e-03 -4.826729e-03 1.047758e-03 -8.193674e-04 2.729601e-03 1.007347e-02 2.259852e-02 2.457642e-02 9.349314e-03 2.432577e-03 -3.883015e-03 -4.410918e-03 1.170578e-02 2.448326e-02 2.992387e-02 2.918459e-02 1.481830e-02 3.391629e-03 -2.274001e-05 -2.553367e-03 -2.845653e-03 -2.733501e-03 -2.150079e-03 
-7.104696e-03 -4.870882e-03 -2.781475e-03 -2.987863e-03 -3.257795e-03 -8.732689e-03 -2.824636e-03 4.376833e-03 1.418312e-02 1.659730e-02 1.055599e-02 1.324053e-02 6.701777e-03 5.778570e-03 -4.543309e-04 -1.003579e-02 -6.967490e-03 -1.477074e-02 -1.642168e-02 -1.371245e-02 -1.270372e-02 -5.875147e-03 2.099136e-02 2.423900e-02 4.158463e-03 -1.593426e-02 -2.512550e-02 -1.762317e-02 1.355411e-02 4.114502e-02 3.626738e-02 1.151644e-02 -1.445442e-02 -2.791746e-02 -2.437581e-02 -7.437661e-03 1.944289e-02 1.261555e-02 -1.367793e-02 -2.066901e-02 -4.127161e-04 1.993880e-02 -2.591302e-02 -1.835238e-02 2.008496e-02 5.123439e-03 -1.080782e-02 -6.141463e-03 3.551751e-02 1.037002e-02 4.276922e-02 -8.804172e-03 2.814119e-02 9.872792e-02 6.302515e-02 1.329894e-01 2.819709e-01 4.819752e-01 4.077479e-02 -7.070023e-01 -8.827168e-01 -6.905648e-01 -5.126618e-01 -3.203141e-01 1.682584e-02 4.705856e-01 8.481968e-01 5.624786e-01 -1.991681e-01 -5.450037e-01 -1.929090e-01 1.412755e-01 1.176933e-01 1.061911e-01 9.958682e-02 7.366114e-02 6.730808e-02 3.976326e-02 2.221546e-02 4.151495e-02 8.089679e-03 -3.543530e-04 3.108786e-02 2.296617e-02 1.911570e-02 9.694476e-03 -2.003168e-02 5.724846e-03 5.552445e-02 1.185914e-02 -4.489552e-02 -3.306525e-02 2.001347e-02 1.834122e-02 -3.253950e-02 1.792927e-04 2.297140e-02 1.875359e-02 -2.667102e-02 -4.809443e-02 -2.540207e-02 1.448071e-03 3.030363e-02 -5.135385e-03 -1.205675e-02 -1.083653e-02 -3.168419e-03 1.548273e-02 -8.682291e-04 -2.581124e-03 1.075704e-02 5.408387e-02 6.185659e-02 1.865258e-02 -1.500435e-02 -4.672012e-02 -4.489588e-02 1.183287e-02 7.067406e-02 9.138623e-02 7.797455e-02 1.152696e-02 -2.842022e-02 -2.243599e-02 -2.140713e-02 -1.690634e-02 -1.380729e-02 -1.015261e-02 
-1.144904e-02 -6.295121e-03 -2.021252e-03 -4.846825e-04 -5.011518e-03 -2.736354e-02 -1.588255e-02 4.015868e-03 3.089541e-02 3.680854e-02 9.501075e-03 6.970531e-03 -2.966626e-02 -3.150866e-02 -1.382471e-02 -3.283633e-02 -1.550207e-02 -2.014104e-02 -2.335145e-02 8.892094e-04 1.649237e-02 1.316367e-02 7.863610e-02 7.973330e-02 7.323392e-03 -2.659437e-02 -5.227456e-02 -5.902292e-02 8.903001e-03 9.174281e-02 7.840452e-02 1.740743e-02 -3.702842e-02 -5.933483e-02 -6.429069e-02 -2.275802e-02 5.482972e-02 2.766101e-02 -4.555175e-02 -6.201374e-02 1.556015e-02 5.950030e-02 -8.056031e-02 -4.139023e-02 3.852015e-02 -9.780424e-03 -5.034012e-02 -3.283976e-02 6.011599e-02 -1.754013e-03 5.237710e-02 -8.186542e-02 -2.993306e-02 1.216961e-01 -6.925422e-02 -3.385238e-02 -9.348115e-02 2.022063e-02 1.910924e-01 3.990105e-02 1.323515e-01 2.178015e-01 -6.680728e-02 2.216164e-02 6.439314e-02 -2.113688e-01 4.610272e-03 9.047458e-02 -1.147583e-02 -5.546633e-02 -1.638945e-01 -7.383664e-02 -4.048532e-02 -5.981581e-02 -4.889912e-03 3.417244e-03 5.238777e-02 1.251730e-02 -3.723621e-03 6.936558e-02 -2.792376e-02 -2.395570e-02 6.144497e-02 2.426716e-02 2.456005e-02 5.175839e-03 -6.207637e-02 2.102879e-02 1.371732e-01 3.355806e-02 -1.129405e-01 -9.694670e-02 6.602546e-02 4.772268e-02 -1.027253e-01 6.754545e-03 8.781119e-02 5.018498e-02 -5.961268e-02 -1.058985e-01 -7.259319e-02 7.908123e-03 1.016681e-01 -2.817111e-03 -2.977098e-02 -2.982622e-02 -2.118842e-02 4.758888e-02 1.443594e-03 -4.635930e-02 -1.169982e-02 1.498360e-01 1.591106e-01 -9.954441e-04 -5.877704e-02 -1.274136e-01 -1.462043e-01 2.139958e-02 1.682501e-01 1.992900e-01 1.772428e-01 9.056674e-03 -9.944359e-02 -6.555315e-02 -5.169678e-02 -3.882436e-02 -2.728185e-02 -1.868772e-02 
-8.213470e-03 4.845524e-04 9.645665e-03 1.762738e-02 1.386482e-02 -3.031294e-02 -2.590810e-02 -1.232980e-02 1.509312e-02 2.917122e-02 -4.128782e-03 -1.270964e-02 -3.548936e-02 -2.279471e-02 7.116360e-03 1.092355e-02 1.713709e-02 2.117586e-02 1.315026e-02 8.310650e-03 -4.960792e-02 -8.181192e-02 4.373307e-02 6.340479e-02 1.279202e-02 7.034981e-02 6.388933e-02 -3.769209e-02 -5.015393e-02 1.844107e-02 1.000756e-02 -1.513811e-02 6.251938e-03 2.530207e-02 -2.425632e-02 -4.004780e-02 2.815632e-02 -2.994522e-02 -5.995041e-02 -2.265705e-02 6.707749e-02 1.018045e-01 -7.988493e-02 4.186773e-02 -3.770749e-03 -1.060031e-01 1.216246e-02 -5.223428e-02 9.207239e-02 2.637058e-02 5.190794e-02 4.531766e-02 -2.547318e-02 6.809329e-02 -6.762836e-02 -1.421090e-02 -2.261241e-02 -7.123621e-02 -2.939068e-03 9.941130e-02 4.942085e-02 1.587620e-01 3.179793e-01 1.751898e-01 6.454487e-02 -1.456101e-01 -1.605201e-01 -1.711197e-01 -7.445854e-02 -1.054095e-02 -8.595532e-02 8.872753e-03 -2.077380e-01 -1.582764e-01 5.114513e-02 -4.573843e-02 5.276206e-02 -1.925976e-02 -1.023273e-02 8.445019e-02 -9.123376e-02 1.670683e-02 1.559377e-02 -7.503304e-02 -2.217942e-02 -3.665294e-02 3.453788e-03 4.777254e-02 4.931892e-02 1.712825e-02 -7.867849e-03 -9.247149e-02 4.013188e-02 3.981371e-02 -1.307692e-01 8.276534e-02 1.137013e-01 2.483215e-02 -3.050749e-02 -3.532454e-02 -9.914834e-02 -6.940977e-02 1.304501e-01 -5.807207e-03 5.834034e-03 -2.092881e-02 -7.768994e-02 6.916487e-02 1.555746e-02 -8.691833e-02 -7.077229e-02 2.082162e-01 1.858586e-01 -1.012751e-01 -5.045557e-03 -3.738603e-03 -8.750832e-02 9.572761e-02 1.408029e-01 5.035652e-02 8.587172e-02 -1.546258e-02 -1.074223e-01 -5.898472e-02 -5.378284e-02 -4.422787e-02 -2.920884e-02 -1.890662e-02 
4.175161e-03 1.071679e-02 1.915322e-02 2.818667e-02 3.245957e-02 5.462858e-03 -5.772351e-03 -1.482585e-02 -1.906280e-02 -4.428232e-03 -8.616798e-03 -7.163462e-03 5.691257e-03 1.207611e-02 7.807239e-03 1.184806e-02 1.359677e-02 1.647674e-02 1.765628e-02 1.990346e-02 1.400409e-02 -1.112024e-01 -7.729670e-02 -3.070805e-02 -1.379181e-03 1.379918e-01 1.574522e-01 4.536950e-02 -7.887396e-02 -1.084218e-01 -1.042458e-01 -4.242243e-02 6.004904e-02 1.134542e-01 5.428946e-02 -2.775721e-02 -4.828088e-02 -8.171182e-02 -1.517319e-02 5.520596e-02 4.709455e-02 3.673984e-02 -3.361265e-03 9.979878e-02 -7.452152e-02 -1.507508e-01 6.705481e-02 -6.167815e-02 8.192136e-03 -1.047604e-02 -4.916397e-02 1.171423e-01 -6.226476e-02 -1.527008e-01 -7.982517e-02 -2.533314e-02 8.582848e-02 8.973171e-02 -7.133057e-02 -2.446691e-01 -2.559867e-01 -1.050770e-01 -3.696796e-02 -1.013278e-01 -1.063785e-01 -5.721539e-04 9.097901e-02 2.488462e-01 2.779095e-01 4.194518e-02 -6.862179e-02 6.253169e-02 5.692188e-02 5.755724e-02 1.972136e-01 6.735342e-02 8.337218e-02 3.766511e-02 3.268641e-02 4.595805e-02 -5.885110e-02 8.587453e-02 -5.195544e-02 -1.208482e-01 -6.456532e-02 -6.174698e-02 9.185756e-02 3.219974e-02 -1.219417e-01 -2.597364e-02 1.502531e-01 2.373937e-02 -3.852805e-02 -5.542074e-03 -2.277216e-02 9.940543e-02 1.295370e-02 -3.456853e-02 4.733225e-02 1.030954e-01 -2.145043e-02 -1.100421e-01 2.020487e-02 -1.200453e-02 5.050643e-02 1.477849e-02 -7.251889e-02 2.161934e-02 1.520063e-02 -3.215316e-02 -6.417690e-02 5.980958e-02 2.257842e-02 -1.122806e-01 9.532188e-02 1.911424e-01 1.088348e-01 9.763455e-02 -5.548059e-02 -2.133438e-01 -1.338474e-01 -2.980287e-02 3.387151e-03 1.222097e-02 -5.967842e-03 -1.025098e-02 -6.347974e-03 -2.078901e-03 
2.957976e-03 5.433572e-03 9.559128e-03 1.224651e-02 1.659054e-02 1.291064e-02 5.257480e-03 -4.964248e-03 -1.767634e-02 -1.092466e-02 -3.561986e-03 5.335005e-03 1.600375e-02 6.715039e-03 6.330061e-03 8.479066e-03 8.568540e-03 9.906032e-03 1.037436e-02 1.025795e-02 9.161376e-03 -4.785405e-02 -6.331870e-02 -4.460593e-02 -2.215022e-03 6.362308e-02 7.816974e-02 4.218985e-02 -3.130701e-02 -7.442387e-02 -6.911553e-02 -2.133205e-02 3.533911e-02 6.155233e-02 4.373467e-02 -3.296888e-03 -3.819121e-02 -3.954673e-02 1.337235e-02 4.728297e-02 9.265979e-03 -7.882538e-04 3.024895e-02 5.528535e-02 -3.634937e-02 -4.848363e-02 5.743060e-02 -4.410128e-03 7.961657e-03 2.567404e-02 6.348077e-03 1.362042e-01 6.346158e-02 3.212823e-02 1.405272e-01 1.471024e-01 -1.556827e-02 -1.933366e-01 -3.893456e-02 5.700850e-02 1.890642e-01 2.001553e-01 1.283484e-02 -1.107097e-02 -8.238695e-02 -1.787659e-01 -9.717501e-02 1.799878e-01 2.554843e-01 1.586041e-01 1.244387e-01 4.020290e-02 -2.051163e-01 -3.220292e-01 -1.832856e-01 -1.547957e-01 -1.099446e-01 -7.837274e-02 -5.470369e-02 -5.171472e-02 -5.158025e-02 1.556008e-02 -6.768735e-02 -7.147180e-02 -4.743003e-02 -4.162677e-02 4.668485e-02 -4.178554e-03 -9.282274e-02 -2.595996e-02 9.389433e-02 4.455323e-02 -3.862884e-02 -1.270043e-02 2.888425e-02 4.075140e-02 -2.894038e-02 -2.370715e-02 4.014576e-02 7.436749e-02 2.314052e-02 -4.742417e-02 -2.817904e-02 -8.927100e-03 3.162641e-02 1.825968e-02 -1.748365e-02 -6.040350e-03 3.027660e-03 1.703128e-02 -9.817914e-03 -2.605870e-02 -3.841980e-02 -2.429696e-02 7.341473e-02 1.290748e-01 1.067385e-01 3.630811e-02 -7.629057e-02 -1.466421e-01 -1.120974e-01 -1.911241e-02 2.936727e-02 1.643154e-02 3.738634e-03 6.480604e-04 -4.931797e-04 5.963061e-04 
1.373109e-03 3.111084e-03 4.949678e-03 5.831874e-03 6.486289e-03 4.351094e-03 2.007231e-03 1.530933e-03 -5.419038e-04 5.022172e-03 4.799478e-03 1.390045e-02 1.036671e-02 3.333674e-04 2.346881e-03 2.815085e-03 3.257605e-03 3.615829e-03 2.319703e-03 2.021581e-03 -2.054344e-03 -3.038714e-02 -1.921635e-02 -1.703383e-02 -2.979248e-03 1.132615e-02 1.451640e-02 4.985265e-03 -9.496313e-03 -1.511703e-02 -1.469070e-02 -5.462891e-03 6.497410e-03 1.286861e-02 9.898225e-03 9.133128e-04 -1.495096e-03 -3.490991e-03 4.447046e-03 1.437100e-02 1.015219e-02 1.646632e-02 1.022311e-02 2.067545e-02 6.944381e-03 1.604581e-05 3.052068e-02 1.723245e-02 3.861088e-02 5.158891e-02 5.722398e-02 1.078623e-01 1.059155e-01 1.563609e-01 2.018223e-01 2.984890e-01 2.613980e-01 -5.029279e-02 -1.855654e-01 -2.698106e-01 -2.946859e-01 -1.938386e-01 -9.603552e-02 -3.644684e-02 -4.121143e-02 9.707049e-02 2.940667e-01 4.596847e-02 -2.071903e-01 -2.355894e-01 -1.129155e-02 3.283062e-01 7.929327e-02 -1.258020e-01 -9.548321e-02 -1.073188e-01 -5.123148e-02 -4.532778e-02 -2.553017e-02 -1.661470e-02 -2.553760e-02 -4.752989e-03 -2.350874e-02 -2.468291e-02 -1.735834e-02 -1.970951e-02 1.246129e-03 -5.878185e-03 -1.234880e-02 -5.526313e-03 1.555998e-02 6.140772e-03 -1.302486e-03 6.027127e-03 1.176803e-03 1.694958e-02 2.494579e-03 5.340958e-03 9.663316e-03 1.340401e-02 5.210008e-03 -9.970163e-03 3.897775e-03 -3.819067e-03 7.215674e-03 3.380537e-03 -5.153862e-03 3.774440e-03 -9.411891e-04 3.167795e-03 -2.454858e-03 6.367235e-03 7.395985e-03 1.628433e-03 2.384451e-02 3.056145e-02 2.140794e-02 1.121373e-02 -1.155864e-02 -3.002634e-02 -2.617936e-02 -1.603883e-02 -9.059630e-03 -6.090715e-03 -5.582381e-03 -3.813452e-03 -2.374568e-03 -5.297608e-04 
1.111833e-03 1.389915e-03 1.943001e-03 1.974551e-03 2.133699e-03 1.542059e-03 5.315102e-04 3.842601e-05 -7.807908e-04 1.291964e-03 2.886534e-03 6.964783e-03 7.122739e-03 3.143460e-04 1.869834e-03 1.894680e-03 2.169962e-03 2.333146e-03 1.425341e-03 1.468610e-03 -1.235927e-03 -1.801099e-02 -1.536487e-02 -1.375101e-02 -6.003659e-03 6.237585e-04 2.905199e-03 5.918568e-04 -5.556341e-03 -8.759326e-03 -8.091047e-03 -2.975454e-03 3.173809e-03 6.762581e-03 6.588525e-03 3.423362e-03 1.014874e-03 1.265293e-03 4.346714e-03 8.477142e-03 5.743238e-03 7.348360e-03 7.270867e-03 9.447798e-03 4.207645e-03 1.721404e-03 1.131260e-02 5.663162e-03 7.818882e-03 1.155294e-02 3.927200e-03 1.381784e-02 -3.130031e-03 -1.458310e-02 -3.102578e-02 -5.102837e-02 -1.020415e-01 -2.450255e-01 -1.331232e-01 1.005192e-01 3.567114e-01 3.341420e-01 2.882464e-02 9.921972e-02 5.415117e-02 -1.541348e-01 -2.418700e-01 -2.872763e-01 6.136539e-02 2.081151e-01 -1.677881e-01 -2.084497e-01 -9.887579e-04 6.225739e-02 7.191402e-02 4.299338e-02 3.163997e-02 1.666785e-02 8.914453e-03 4.158427e-03 -4.663060e-03 1.592104e-04 -1.213504e-02 -1.096824e-02 -1.054688e-02 -1.109571e-02 -2.816944e-03 -6.323826e-03 -8.168662e-03 -3.555907e-03 5.666563e-03 3.999118e-03 -9.971993e-04 2.597655e-03 2.273230e-03 6.376732e-03 5.217948e-04 3.841678e-03 6.912262e-03 9.142208e-03 6.227685e-03 -4.335625e-04 2.004446e-03 9.568437e-04 5.192249e-03 4.194528e-03 2.021894e-03 3.690217e-03 2.751983e-03 4.732810e-03 2.033746e-03 2.069842e-03 3.088977e-03 5.796606e-03 1.450372e-02 1.769159e-02 1.367024e-02 4.470073e-03 -8.382728e-03 -1.661426e-02 -1.617724e-02 -9.614876e-03 -3.890471e-03 -2.242181e-03 -8.923473e-04 -3.960958e-04 2.034000e-04 5.429785e-04 
-7.178234e-04 -8.304429e-04 -1.424343e-03 -1.600450e-03 -2.349165e-03 -2.442563e-03 -3.201314e-03 -2.997663e-03 -3.446761e-03 -2.822436e-03 -3.367148e-03 -2.160052e-03 -2.671613e-03 -2.044438e-04 3.091125e-04 3.092007e-04 3.792780e-04 3.544934e-04 -1.257049e-04 -3.234127e-04 -1.413633e-03 -8.580799e-03 -1.722476e-03 -6.143340e-03 -8.005785e-04 -2.379536e-03 5.889364e-04 -1.833515e-03 -1.153335e-03 -2.472714e-03 -6.693138e-04 2.368568e-04 3.329414e-03 4.363031e-03 5.612994e-03 5.285300e-03 5.567582e-03 6.126402e-03 6.525614e-03 8.938438e-03 8.450129e-03 1.125179e-02 1.127620e-02 1.421610e-02 1.605403e-02 1.747235e-02 2.437837e-02 2.633916e-02 3.267232e-02 3.848153e-02 4.107358e-02 4.931044e-02 4.737535e-02 4.885630e-02 4.186214e-02 2.528800e-02 1.518109e-03 -7.108223e-02 -1.035365e-01 -1.140803e-01 -1.063218e-01 -7.191599e-02 -4.554091e-02 -2.599070e-02 8.858987e-03 1.993622e-02 4.638050e-02 1.875929e-02 -2.518042e-03 2.598444e-02 2.014627e-02 2.354366e-02 1.027807e-02 1.569646e-02 9.185970e-03 2.390543e-03 2.055611e-03 -1.499803e-03 -1.026743e-03 -1.207428e-03 -3.512038e-03 -1.948453e-03 -5.172228e-03 -5.233261e-03 -5.326501e-03 -6.271226e-03 -3.641976e-03 -5.103493e-03 -3.599580e-03 -3.414282e-03 -1.277482e-03 -1.323924e-03 -2.360647e-03 -2.161692e-04 -2.169388e-03 1.245076e-03 -6.524661e-04 1.606127e-03 1.587243e-03 2.211735e-03 2.202741e-03 4.552406e-04 2.543021e-03 1.566173e-03 3.373366e-03 3.241613e-03 3.044663e-03 4.446640e-03 4.160298e-03 5.063253e-03 4.685461e-03 5.251300e-03 5.629719e-03 5.317831e-03 6.930536e-03 7.272294e-03 5.516600e-03 3.608976e-03 3.024638e-06 -2.713956e-03 -3.543882e-03 -3.427093e-03 -2.350508e-03 -1.635100e-03 -9.756301e-04 -5.625427e-04 -4.756438e-04 -3.902085e-04 
-4.395835e-04 -1.615857e-03 -3.126324e-03 -4.275321e-03 -5.360591e-03 -5.941664e-03 -5.454142e-03 -5.766399e-03 -3.904458e-03 -5.712503e-03 -4.806372e-03 -7.390614e-03 -4.258154e-03 1.107772e-04 5.924154e-05 -7.504018e-05 -4.965135e-05 -2.762451e-05 7.455562e-05 1.277722e-04 -9.983835e-05 -6.917676e-03 -3.052256e-03 -5.372023e-03 -4.298121e-03 -4.313067e-03 -2.886395e-03 -3.685073e-03 -3.370369e-03 -3.562253e-03 -2.357299e-03 -5.697616e-04 2.376601e-03 4.301129e-03 5.454552e-03 5.543918e-03 4.650392e-03 4.395776e-03 2.861784e-03 3.184958e-03 1.927619e-03 2.488637e-03 2.425701e-03 3.196595e-03 4.273749e-03 4.713973e-03 7.376583e-03 7.953233e-03 8.818335e-03 9.380471e-03 7.692781e-03 5.714707e-03 1.244613e-03 -6.624541e-03 -1.150398e-02 -2.323682e-02 -2.510793e-02 -3.958047e-02 -1.866439e-02 4.426753e-03 2.649843e-02 3.332925e-02 5.315742e-03 9.466951e-03 -8.097850e-03 -3.047992e-02 -3.486802e-02 -4.449555e-02 -1.952782e-02 -6.713953e-03 -2.938314e-02 -2.728905e-02 -1.214683e-02 1.043233e-04 8.222321e-03 1.080289e-02 1.349026e-02 1.403064e-02 1.436839e-02 1.405665e-02 1.149936e-02 1.025596e-02 5.800004e-03 4.413824e-03 1.247959e-03 2.243107e-04 2.802005e-05 -1.050831e-03 -4.625192e-04 5.235549e-05 -3.720729e-04 -9.406319e-04 -3.188572e-03 -2.698271e-03 -4.297684e-03 -2.928798e-03 -2.478537e-03 2.606737e-04 2.037028e-03 3.316354e-03 3.323643e-03 2.740674e-03 2.775578e-03 3.603805e-03 4.051152e-03 4.836042e-03 5.816621e-03 7.273345e-03 8.441830e-03 7.340915e-03 6.485081e-03 4.303662e-03 3.390312e-03 3.672541e-03 4.410928e-03 6.305480e-03 5.744196e-03 4.855993e-03 2.541222e-03 3.575634e-04 -8.634183e-04 -1.376217e-03 2.729021e-04 1.439565e-03 2.203014e-03 2.212499e-03 1.652518e-03 8.489691e-04 
-9.523505e-04 -3.453690e-03 -6.925568e-03 -8.744472e-03 -1.147514e-02 -1.038380e-02 -1.083639e-02 -1.044742e-02 -7.651592e-03 -1.261430e-02 -1.401677e-02 -1.852252e-02 -1.457154e-02 1.700683e-04 -3.472144e-04 -3.412172e-04 -1.984540e-04 -1.396515e-05 5.367869e-04 5.414009e-04 1.162349e-03 -2.157260e-03 4.997568e-03 -8.643301e-04 -4.770074e-04 -3.199000e-03 -8.080301e-04 -3.910409e-03 -1.713013e-03 -3.223436e-03 -7.054082e-04 2.628356e-04 7.009320e-03 8.671047e-03 1.064486e-02 9.979873e-03 8.608651e-03 7.844433e-03 4.711907e-03 5.462136e-03 3.094890e-03 3.364668e-03 4.388145e-03 6.388515e-03 1.072778e-02 1.209346e-02 1.767292e-02 2.132816e-02 2.482834e-02 2.870448e-02 2.970252e-02 2.937939e-02 2.677527e-02 2.041391e-02 1.360534e-02 2.414768e-03 -5.667460e-03 -2.122154e-02 -2.827766e-02 -3.656729e-02 -3.557743e-02 -3.278366e-02 -2.560519e-02 -1.792494e-02 -8.080630e-03 -1.731805e-03 4.024354e-03 3.063871e-04 -4.828245e-04 2.941015e-03 -5.983805e-04 1.359447e-03 -6.837335e-04 2.914080e-03 2.261990e-03 7.224562e-03 8.408780e-03 1.215726e-02 1.505528e-02 1.601367e-02 1.459362e-02 1.095284e-02 6.957803e-03 5.239640e-03 -4.785510e-04 -1.598353e-03 -1.929294e-03 -6.396691e-03 -3.957371e-03 -2.903809e-03 -4.483273e-03 -4.843627e-03 -8.522246e-03 -7.878394e-03 -1.081574e-02 -1.005507e-02 -6.699386e-03 -3.109125e-03 7.080445e-06 4.628765e-04 2.969035e-04 -5.902396e-04 -7.742318e-04 4.683990e-03 4.161810e-03 4.987556e-03 5.474762e-03 7.483208e-03 1.162485e-02 8.678037e-03 1.017129e-02 4.639808e-03 2.417159e-03 1.417773e-03 8.763718e-04 6.470140e-03 5.992230e-03 6.589760e-03 3.714676e-03 2.241972e-03 1.645728e-04 -8.719935e-04 3.610199e-03 5.699820e-03 7.130539e-03 6.289865e-03 4.391006e-03 2.198289e-03 
4.032894e-04 -3.831177e-03 -9.990025e-03 -1.445143e-02 -2.121010e-02 -2.039599e-02 -1.791189e-02 -1.129985e-02 2.872603e-03 -4.260356e-03 -6.407857e-03 -1.584952e-03 4.801655e-03 -5.397820e-05 -3.988540e-03 -3.024000e-03 -3.201806e-03 -2.820362e-03 -1.111400e-04 -4.075731e-04 5.745244e-03 -1.115343e-02 -1.506033e-02 -1.324140e-02 -1.690706e-02 -8.023873e-03 -1.155501e-03 -5.962429e-03 -7.181076e-03 -9.842308e-03 -1.147642e-02 -5.644303e-03 8.205783e-03 1.633889e-02 1.983313e-02 1.723333e-02 1.224384e-02 7.783017e-03 -2.037193e-03 -4.139856e-03 -7.565191e-03 -7.938120e-03 -7.805800e-03 -6.272013e-03 -6.579933e-04 8.390987e-04 1.006936e-02 1.735026e-02 1.983743e-02 2.701686e-02 3.180993e-02 3.044362e-02 2.716681e-02 1.146798e-02 -8.287060e-04 -1.431035e-02 -1.949821e-02 -2.558609e-02 -3.223174e-02 -4.476627e-02 -4.775696e-02 -4.658331e-02 -4.359738e-02 -2.351923e-02 -1.551415e-02 -1.439318e-03 2.372436e-03 -8.449243e-03 -7.143635e-03 -1.056246e-02 -1.152142e-02 -1.228482e-02 -1.346125e-02 -1.205449e-02 -9.683077e-03 2.673069e-03 1.117244e-02 2.367340e-02 3.452407e-02 3.899177e-02 3.862514e-02 2.813388e-02 1.885400e-02 1.291610e-02 -5.184774e-04 -2.966668e-04 -2.167009e-04 -5.414764e-03 4.867500e-03 1.203202e-02 5.227844e-03 -2.765226e-03 -1.214367e-02 -1.405417e-02 -2.257204e-02 -2.591674e-02 -1.626837e-02 -2.812681e-03 1.003366e-02 1.196667e-02 7.738787e-03 1.681124e-04 -3.733013e-03 4.795744e-03 9.610665e-04 6.462566e-04 6.131743e-03 2.029457e-02 3.244638e-02 2.235895e-02 1.549820e-02 -3.048932e-03 -1.272013e-02 -1.144217e-02 -6.861903e-03 1.127455e-02 1.592311e-02 1.733651e-02 1.421205e-02 6.224136e-03 -3.666207e-03 -1.115340e-02 1.132944e-03 1.295594e-02 1.505715e-02 1.332757e-02 9.264086e-03 5.569496e-03 
1.297864e-03 -7.509020e-03 -1.779387e-02 -2.861319e-02 -3.444076e-02 -1.360533e-02 -2.281810e-02 -1.132851e-02 2.116999e-02 -5.946642e-03 -2.353659e-02 -8.271400e-03 -4.242408e-03 -4.859823e-03 -2.769952e-03 -3.984791e-03 -2.988114e-03 -1.392452e-03 1.595329e-03 2.272907e-03 6.907286e-03 -1.789525e-02 -9.974316e-03 -9.034945e-03 -2.251182e-02 -1.119103e-02 -4.832017e-03 -1.321394e-02 -8.724790e-03 -1.249321e-02 -2.243388e-02 -1.605568e-02 2.692789e-02 3.814076e-02 3.396495e-02 2.563186e-02 1.749164e-02 9.854370e-03 -4.450717e-03 4.240632e-03 -1.181630e-02 -2.441909e-02 -2.208851e-02 -1.129023e-02 4.285183e-03 -6.745677e-03 8.058512e-03 2.006427e-02 2.445787e-02 4.289521e-02 4.415558e-02 4.115047e-02 4.070726e-02 2.689269e-02 1.230049e-02 7.212447e-03 8.137040e-04 -6.594143e-03 -8.940163e-03 -2.541204e-02 -2.277228e-02 -2.467528e-02 -2.606157e-02 -1.367546e-02 -5.313070e-03 2.451939e-02 1.995300e-02 -2.204983e-02 -1.737474e-02 -5.408406e-03 -2.598001e-02 -3.889091e-02 -2.590953e-02 -1.862912e-02 -1.326469e-02 1.237045e-02 1.358438e-02 2.867159e-02 5.650256e-02 6.488222e-02 5.649299e-02 2.365285e-02 1.769141e-02 2.124312e-02 -1.661937e-02 -3.218952e-03 3.498868e-03 -3.971494e-02 -1.333387e-02 1.255570e-02 2.498876e-03 -2.353820e-03 -1.898738e-02 -1.702130e-02 -4.113801e-02 -5.058231e-02 -1.723853e-02 5.354145e-03 1.777085e-02 1.008214e-02 4.747049e-04 -2.630053e-02 -2.665495e-02 2.861117e-02 2.209174e-02 2.402639e-03 -1.040940e-02 8.641372e-03 3.890527e-02 2.679245e-02 4.076141e-02 6.725881e-03 -1.683890e-02 -2.923678e-02 -2.949756e-02 2.217527e-02 3.096058e-02 2.221509e-02 7.265345e-03 7.145926e-04 -1.955261e-02 -2.691159e-02 9.845771e-03 2.830718e-02 3.583235e-02 3.088676e-02 1.953519e-02 1.098477e-02 
7.752511e-03 -9.411945e-05 -7.750998e-03 -1.449547e-02 -8.515909e-03 3.263595e-02 6.607555e-03 8.021023e-03 2.757952e-02 -6.085735e-03 -2.533963e-02 -2.114608e-02 -1.163320e-02 -3.346120e-02 -2.473533e-02 -8.294938e-03 -1.193330e-02 -1.639169e-02 -1.212786e-02 -2.250173e-02 -1.264260e-02 -6.744315e-03 2.097858e-02 2.330626e-02 4.123269e-03 1.699311e-03 -1.057050e-02 -8.665600e-03 3.029265e-03 6.447931e-03 -1.966468e-03 -5.732057e-03 3.658385e-02 3.387607e-02 1.815515e-02 1.070050e-02 6.299830e-03 5.345843e-03 7.634554e-04 2.215767e-02 -3.317693e-03 -2.646592e-02 -2.418335e-02 -1.270507e-02 2.513608e-03 -2.548819e-02 -2.144020e-02 -2.342855e-02 -2.133455e-02 -1.092360e-02 -2.527205e-02 -3.053803e-02 -2.745213e-02 -1.232045e-02 -9.916151e-03 1.152930e-02 9.229683e-03 3.579428e-03 1.622368e-02 1.615306e-02 2.819949e-02 2.285435e-02 7.015978e-03 -1.940226e-02 -2.670056e-02 -1.303748e-02 -2.823501e-02 -7.678591e-02 -6.706319e-02 -2.949141e-02 -5.307734e-02 -5.702552e-02 -1.549292e-02 1.063083e-02 2.849803e-02 5.375226e-02 4.162444e-02 4.060681e-02 6.269622e-02 6.445864e-02 4.765702e-02 1.449116e-02 2.148425e-02 3.923807e-02 2.361264e-04 1.594690e-02 2.174105e-02 -4.848083e-02 -3.291379e-02 -1.195519e-02 -1.325787e-02 3.322728e-03 -5.658727e-03 5.723638e-03 -1.650258e-02 -2.039611e-02 1.167820e-02 1.348322e-02 -2.252171e-04 -2.005247e-02 -2.421708e-02 -4.623365e-02 -3.546648e-02 4.453268e-02 4.204418e-02 1.266933e-02 -2.545035e-02 -3.396691e-02 -9.410358e-03 -6.507341e-03 4.611836e-02 3.269530e-02 2.007920e-02 -8.472202e-03 -2.590139e-02 1.778501e-02 1.443528e-02 -2.009943e-04 -2.401653e-02 -1.104759e-02 -1.944406e-02 -7.699206e-03 3.168189e-02 3.641832e-02 4.634368e-02 3.838683e-02 2.621871e-02 1.679344e-02 
7.547950e-03 4.777324e-03 3.542866e-03 4.188753e-03 1.211293e-02 3.582155e-02 2.089200e-02 1.151614e-02 8.132344e-03 -8.217216e-03 -9.039634e-03 -2.417133e-02 -3.372992e-03 -1.397384e-02 -2.358180e-02 -5.340875e-03 -2.309055e-02 -2.515420e-02 -1.823813e-02 -3.269739e-02 -2.306769e-02 8.575266e-04 2.867083e-02 2.876456e-02 2.212493e-02 9.636602e-03 -4.998166e-03 1.390591e-03 1.074744e-02 1.559430e-02 1.793284e-02 8.414363e-03 1.752555e-02 5.841626e-03 -4.106872e-03 -5.688620e-03 -4.812818e-03 -6.812213e-04 2.628310e-03 1.529030e-02 1.624728e-03 -1.027508e-02 -1.123252e-02 -1.020159e-02 -5.714515e-03 -2.528394e-02 -2.893200e-02 -4.150623e-02 -3.945887e-02 -4.453622e-02 -5.587969e-02 -5.721801e-02 -5.257185e-02 -2.331165e-02 -8.121744e-03 2.415885e-02 3.593644e-02 4.907750e-02 7.607430e-02 9.430802e-02 1.060843e-01 9.792799e-02 7.465417e-02 2.862319e-02 2.616958e-03 -2.354610e-02 -4.323310e-02 -6.170706e-02 -5.450364e-02 -2.311937e-02 -2.997343e-02 -2.471042e-02 -1.207695e-03 1.470453e-02 2.600970e-02 3.105244e-02 2.075039e-02 1.143549e-02 1.252771e-02 9.982403e-03 1.137729e-03 -4.591739e-03 4.743443e-03 1.761955e-02 8.298570e-03 1.146478e-02 1.118405e-02 -2.280191e-02 -2.714212e-02 -2.848748e-02 -2.327265e-02 -3.233203e-03 -7.167395e-04 1.068643e-02 5.702194e-03 1.119080e-02 1.535443e-02 1.715266e-03 -1.909271e-02 -3.170907e-02 -2.824987e-02 -2.819049e-02 -1.697439e-02 1.743103e-02 2.099744e-02 1.111548e-02 -1.340202e-02 -3.451917e-02 -3.212967e-02 -2.192543e-02 1.826827e-02 2.917262e-02 3.612661e-02 1.818940e-02 2.000465e-03 4.905226e-03 -6.180652e-03 -1.035767e-02 -2.164522e-02 -3.659830e-03 3.344439e-03 1.835699e-02 2.623216e-02 1.745268e-02 2.362184e-02 1.911986e-02 1.528545e-02 1.065099e-02 
3.534302e-03 3.106654e-03 2.503634e-03 4.364348e-03 5.730682e-03 1.280943e-02 7.327397e-03 2.840853e-03 -3.248349e-03 -1.037191e-02 -1.506042e-02 -2.821957e-02 -3.055501e-02 -3.617676e-02 -2.654994e-02 -1.796463e-02 -1.800396e-02 -1.181348e-02 -4.204827e-03 -1.851694e-03 1.776213e-02 2.625413e-02 3.134204e-02 2.666195e-02 2.037800e-02 1.164397e-02 3.784356e-03 6.201538e-03 1.090237e-02 1.401853e-02 1.627612e-02 9.605177e-03 7.748306e-03 3.374105e-04 -2.007291e-03 -1.705222e-03 9.209303e-05 1.839976e-03 5.600137e-04 3.874208e-03 -4.955289e-04 -1.707254e-03 -5.486722e-03 -7.130157e-03 -2.605952e-03 -1.159684e-02 -1.038391e-02 -1.846339e-02 -1.045744e-02 -1.775946e-02 -1.434274e-02 -1.693809e-02 -1.218251e-02 7.039014e-03 7.282624e-03 2.633118e-02 2.739525e-02 3.485408e-02 -2.119764e-02 -1.003787e-01 -1.346508e-01 -1.318854e-01 -1.008719e-01 -6.739649e-02 -1.284408e-02 2.632575e-02 5.193877e-02 2.171242e-02 -2.900634e-02 -3.500828e-02 -2.978728e-04 2.740003e-02 2.554250e-02 3.091480e-02 3.474288e-02 3.769504e-02 3.565481e-02 3.164571e-02 2.691425e-02 2.540596e-02 1.857952e-02 1.654463e-02 1.890717e-02 1.941502e-02 1.639429e-02 1.245255e-02 8.169455e-03 -1.559435e-03 -2.704473e-03 -1.016776e-02 -1.186259e-02 -3.673165e-03 -6.928806e-04 5.611002e-03 8.197601e-04 7.232622e-03 4.459429e-03 -1.972063e-03 -1.356549e-02 -1.945821e-02 -1.589090e-02 -1.189859e-02 -4.542578e-03 1.179407e-03 3.213587e-03 2.480409e-03 -3.485188e-03 -1.001971e-02 -1.007493e-02 -5.126041e-03 1.063879e-02 1.847796e-02 2.403256e-02 1.526227e-02 6.332407e-03 1.152322e-03 -4.015870e-03 1.966713e-03 3.571604e-03 1.325573e-02 1.607858e-02 1.669668e-02 1.236503e-02 6.964209e-03 8.568929e-03 6.962251e-03 6.171186e-03 4.710365e-03 
