# vtk DataFile Version 2.0
Comment goes here
ASCII

DATASET STRUCTURED_POINTS
FIELD FieldData 1
TIME 1 1 double
0.07800000
DIMENSIONS    64   64   1

ORIGIN    0.000   0.000   0.000
SPACING   0.03125 0.03125   1.000

POINT_DATA   4096
SCALARS Omega double
LOOKUP_TABLE default

-1.437374e-01 -5.597364e-01 5.209625e-02 -8.806627e-01 -1.396177e-01 -1.582422e-01 6.211621e-02 -5.503046e-01 2.043923e-02 -5.331705e-01 5.758097e-02 -4.522486e-01 1.191131e-01 -3.059929e-01 2.145207e-01 -1.111652e-01 3.216551e-01 8.803399e-02 5.285489e-01 1.915598e-01 6.387066e-01 2.837318e-01 6.796370e-01 3.791923e-01 6.620941e-01 4.772678e-01 6.368266e-01 5.356448e-01 6.036641e-01 6.070865e-01 5.730128e-01 6.155410e-01 5.539256e-01 6.382667e-01 5.561412e-01 6.491721e-01 5.121663e-01 6.888285e-01 4.774007e-01 7.100315e-01 4.236280e-01 7.247157e-01 3.794082e-01 6.848073e-01 3.102760e-01 6.242262e-01 2.745664e-01 5.118524e-01 1.763405e-01 3.764706e-01 8.049432e-02 2.264505e-01 -3.409966e-02 8.357547e-02 -1.242565e-01 -1.903094e-02 -1.959929e-01 -8.409642e-02 -2.493526e-01 -1.246391e-01 -2.835448e-01 -1.632569e-01 -3.275906e-01 -7.131451e-02 
-2.433517e+01 -3.697702e+01 -2.140990e+01 -3.705982e+01 -2.220384e+01 -3.760375e+01 -2.480045e+01 -3.632045e+01 -3.085550e+01 -3.523032e+01 -3.551123e+01 -3.311735e+01 -4.003806e+01 -2.992490e+01 -4.528330e+01 -2.537005e+01 -5.193489e+01 -1.906592e+01 -5.994409e+01 -1.168549e+01 -6.799401e+01 -4.800261e+00 -7.487314e+01 8.616864e-01 -8.041986e+01 5.631264e+00 -8.535750e+01 9.985488e+00 -8.985277e+01 1.382877e+01 -9.371623e+01 1.698855e+01 -9.684116e+01 1.953772e+01 -9.937742e+01 2.123529e+01 -1.007749e+02 2.172333e+01 -1.009375e+02 2.106771e+01 -9.987279e+01 1.943879e+01 -9.787566e+01 1.710138e+01 -9.520501e+01 1.442543e+01 -9.209852e+01 1.141754e+01 -8.786331e+01 7.128155e+00 -8.187045e+01 1.157062e+00 -7.398913e+01 -6.272970e+00 -6.463048e+01 -1.461625e+01 -5.446406e+01 -2.320897e+01 -4.413502e+01 -3.159515e+01 -3.345938e+01 -4.012595e+01 -2.021589e+01 -4.948739e+01 
-7.046850e+01 -4.273886e+00 -5.369924e+01 7.398104e+00 -1.046434e+01 9.569983e+00 -6.898857e+01 6.156711e-02 -8.724296e+01 -1.371186e+00 -9.899657e+01 -2.137163e+00 -1.073297e+02 -3.274758e+00 -1.133824e+02 -5.174879e+00 -1.173344e+02 -8.356894e+00 -1.196185e+02 -1.210322e+01 -1.206635e+02 -1.552479e+01 -1.214882e+02 -1.812241e+01 -1.222504e+02 -2.034753e+01 -1.226578e+02 -2.239711e+01 -1.226433e+02 -2.431665e+01 -1.226689e+02 -2.581372e+01 -1.226913e+02 -2.727370e+01 -1.226013e+02 -2.836965e+01 -1.227032e+02 -2.891270e+01 -1.230808e+02 -2.887608e+01 -1.236078e+02 -2.845630e+01 -1.241277e+02 -2.754536e+01 -1.243326e+02 -2.649464e+01 -1.239542e+02 -2.540557e+01 -1.231591e+02 -2.355024e+01 -1.223697e+02 -2.060643e+01 -1.214107e+02 -1.691672e+01 -1.199923e+02 -1.266988e+01 -1.176982e+02 -8.083035e+00 -1.139163e+02 -3.255400e+00 -1.084459e+02 2.381163e+00 -1.070141e+02 1.507252e+01 
-3.519045e+01 -6.903142e-01 -3.035216e+01 1.019867e+01 -4.332598e+01 6.455754e+00 -2.499863e+01 1.575374e+01 -3.799132e+01 1.320564e+01 -4.558340e+01 1.047026e+01 -5.043795e+01 7.571609e+00 -5.342173e+01 4.241805e+00 -5.482210e+01 1.495627e-01 -5.487260e+01 -4.403348e+00 -5.416987e+01 -8.556111e+00 -5.345422e+01 -1.166339e+01 -5.285109e+01 -1.410829e+01 -5.199981e+01 -1.630960e+01 -5.097451e+01 -1.807591e+01 -4.991735e+01 -1.942499e+01 -4.900633e+01 -2.040571e+01 -4.812535e+01 -2.097128e+01 -4.751941e+01 -2.099953e+01 -4.728633e+01 -2.046840e+01 -4.742230e+01 -1.949634e+01 -4.776992e+01 -1.826229e+01 -4.804799e+01 -1.698347e+01 -4.818826e+01 -1.561982e+01 -4.839792e+01 -1.381375e+01 -4.912117e+01 -1.131561e+01 -5.009621e+01 -8.163030e+00 -5.126415e+01 -4.827258e+00 -5.225689e+01 -1.534888e+00 -5.241269e+01 1.552973e+00 -5.210199e+01 6.868763e+00 -5.498751e+01 9.672421e+00 
-4.486172e+00 2.224218e+00 -4.311436e+00 -1.109705e+01 -6.905386e+01 -5.384779e+00 1.269888e+01 2.166214e+00 3.125880e+00 1.511819e+00 -2.965583e-01 8.728749e-01 -1.648040e+00 4.795839e-01 -2.273398e+00 1.902600e-01 -2.623719e+00 8.892845e-02 -2.674565e+00 -1.703897e-01 -2.857322e+00 -2.561180e-01 -2.818263e+00 -3.067777e-01 -2.837042e+00 -2.889148e-01 -2.673479e+00 -4.014935e-01 -2.595452e+00 -4.898711e-01 -2.349579e+00 -6.373879e-01 -2.210022e+00 -6.996821e-01 -1.915094e+00 -7.789215e-01 -1.754783e+00 -8.524134e-01 -1.476647e+00 -1.013417e+00 -1.358652e+00 -1.177149e+00 -1.124146e+00 -1.352013e+00 -1.018440e+00 -1.424509e+00 -7.714710e-01 -1.408467e+00 -6.709216e-01 -1.262612e+00 -4.463576e-01 -1.051835e+00 -3.984543e-01 -7.249798e-01 -4.489437e-01 -2.374102e-01 -6.004210e-01 3.300445e-01 -9.089810e-01 9.009386e-01 -1.424007e+00 1.791285e+00 -3.069258e+00 4.066439e+00 
-3.514067e+00 2.936839e+00 -3.955086e+00 -1.058284e+01 -9.003583e+01 -6.810101e+00 9.710302e+00 -1.717549e+00 5.754555e+00 2.154216e-01 2.843051e+00 3.870515e-01 1.301886e+00 2.622364e-01 5.808390e-01 1.006431e-02 1.991921e-01 3.167636e-02 2.476705e-01 -3.561078e-01 8.989117e-02 -2.578546e-01 1.069351e-01 -2.481147e-01 1.279515e-02 -8.121268e-02 3.781413e-02 -1.064345e-01 -4.543186e-02 -4.758621e-04 -1.356279e-02 -4.857463e-02 -7.537297e-02 3.616890e-02 -3.904848e-02 -1.349422e-02 -9.187875e-02 7.784356e-02 -6.795455e-02 4.381465e-02 -1.367589e-01 1.257535e-01 -1.204242e-01 7.327761e-02 -1.502565e-01 9.516634e-02 -7.537193e-02 -1.946131e-02 -4.579012e-02 1.555059e-02 -8.786431e-02 9.554992e-02 -2.182754e-01 3.098537e-01 -3.300618e-01 6.073824e-01 -5.319804e-01 9.769520e-01 -9.053395e-01 1.460181e+00 -1.529785e+00 1.849969e+00 -2.443625e+00 3.284365e+00 
-3.307918e+00 1.654995e+00 -1.520701e+00 -1.219334e+01 -1.023061e+02 -3.939337e+00 7.320670e+00 -2.634584e+00 5.505116e+00 -5.971271e-01 3.135160e+00 1.619318e-01 1.499476e+00 3.387480e-01 6.382740e-01 -1.264435e-02 9.174970e-02 5.102295e-02 4.153634e-01 -6.541216e-01 1.225471e-01 -3.647390e-01 3.415956e-01 -3.706770e-01 8.644001e-02 -1.720669e-02 2.976220e-01 -1.364018e-01 1.007511e-02 9.009111e-02 2.239081e-01 -4.430579e-02 -5.187081e-02 1.450153e-01 1.724378e-01 1.786714e-02 -1.014690e-01 2.009776e-01 1.057916e-01 1.105858e-01 -1.975527e-01 2.986875e-01 -2.923151e-02 1.786478e-01 -3.196575e-01 2.384702e-01 -9.355541e-02 3.850521e-03 -3.293770e-01 1.200872e-01 -5.988156e-02 1.210723e-01 -2.014777e-01 2.993411e-01 -4.017172e-01 7.427468e-01 -6.988101e-01 1.164513e+00 -1.177118e+00 1.568756e+00 -1.847626e+00 2.014855e+00 -2.784638e+00 2.535097e+00 
-3.219251e+00 1.156390e+00 -1.122830e+00 -1.053364e+01 -1.145394e+02 -3.178144e+00 3.956878e+00 -3.896623e+00 4.053286e+00 -1.689531e+00 2.993808e+00 -1.520121e-01 1.619428e+00 6.693700e-01 7.240073e-01 1.357443e-01 -1.696220e-02 -1.799190e-01 4.371863e-01 -1.279628e+00 2.819670e-01 -4.309448e-01 3.610341e-01 -5.289633e-01 1.419253e-01 5.762355e-02 2.043746e-01 -2.921409e-01 1.401158e-02 1.189367e-01 1.072520e-01 -1.925291e-01 -4.561541e-02 1.701667e-01 5.731783e-02 -8.749232e-02 -9.392724e-02 2.610865e-01 -7.734870e-03 6.479596e-02 -1.941736e-01 4.073767e-01 -1.430100e-01 2.025913e-01 -2.919250e-01 3.733481e-01 -1.039029e-01 -4.732960e-03 -3.078249e-02 -3.938173e-02 2.457716e-02 1.395460e-01 -1.738298e-01 6.129023e-01 -2.840368e-01 1.065738e+00 -5.880490e-01 1.474250e+00 -1.090612e+00 1.871828e+00 -1.747927e+00 2.306075e+00 -2.596117e+00 2.793794e+00 
-2.456799e+00 2.269357e-01 9.767579e-01 -1.091003e+01 -1.209757e+02 -1.351801e+00 2.963298e+00 -3.682567e+00 2.817114e+00 -2.519798e+00 2.608586e+00 -6.470848e-01 1.590284e+00 1.273680e+00 5.333820e-01 1.172930e+00 -8.997981e-01 -1.212309e+00 5.548277e-01 -1.914629e+00 3.015451e-01 -4.588240e-01 6.236159e-01 -6.146549e-01 7.565391e-02 2.916982e-01 4.158597e-01 -4.824714e-01 -9.751436e-02 3.658736e-01 3.195541e-01 -4.277846e-01 -1.745004e-01 4.477545e-01 2.769008e-01 -3.473299e-01 -2.342764e-01 5.635218e-01 2.150229e-01 -2.026970e-01 -3.475819e-01 8.042462e-01 2.337005e-02 4.799621e-02 -5.823202e-01 9.058463e-01 -1.663493e-01 -4.061780e-01 -6.322867e-01 1.226367e-01 1.158272e-01 -4.675304e-01 1.124103e-01 3.399987e-01 -1.039035e-01 1.268874e+00 -6.218210e-01 1.661850e+00 -1.231571e+00 1.934176e+00 -1.830422e+00 2.275392e+00 -2.438327e+00 2.466568e+00 
-1.946121e+00 -2.655911e-01 1.684360e+00 -9.560698e+00 -1.281900e+02 -7.651923e-01 1.567206e+00 -4.153986e+00 1.337360e+00 -3.765230e+00 1.828322e+00 -1.935763e+00 1.593277e+00 1.297788e+00 9.561942e-01 3.780830e+00 -2.778166e+00 -3.777198e+00 9.471110e-01 -1.308491e+00 1.098444e+00 -8.633216e-01 6.108103e-01 7.093825e-01 2.279528e-01 -6.360464e-01 2.448981e-01 5.461923e-01 3.452280e-02 -6.901085e-01 1.834544e-01 6.228149e-01 -5.260246e-02 -6.196570e-01 1.817119e-01 7.380021e-01 -1.374455e-01 -4.764971e-01 1.748655e-01 9.295195e-01 -2.958407e-01 -1.193084e-01 -3.701377e-03 1.299036e+00 -6.458450e-01 1.571423e-01 -8.820637e-02 8.183407e-01 -4.243668e-01 -1.646288e+00 5.380937e-01 -3.006550e-02 1.816002e-01 8.916417e-01 7.534549e-02 1.590655e+00 -4.863710e-01 1.864265e+00 -1.124277e+00 2.038215e+00 -1.655738e+00 2.302107e+00 -2.137998e+00 2.323755e+00 
-1.030679e+00 -1.075278e+00 3.291343e+00 -9.178806e+00 -1.307726e+02 5.248031e-01 1.338723e+00 -3.740340e+00 4.182270e-01 -4.821307e+00 1.369048e+00 -4.442734e+00 2.150162e+00 -2.701432e+00 2.995185e+00 3.744740e+00 -7.929078e+00 -2.369675e+00 5.822451e+00 4.980128e+00 1.254626e+00 2.430311e-01 1.662221e+00 4.075187e+00 -2.403999e-01 -7.943639e-01 5.298324e-01 2.066703e+00 -5.626835e-02 -1.033817e+00 6.391687e-02 1.240203e+00 7.580729e-02 -9.434103e-01 -1.909416e-01 7.655402e-01 1.657226e-01 -7.269131e-01 -3.741477e-01 5.342576e-01 2.351197e-01 -2.569902e-01 -6.654449e-01 1.004346e+00 6.657912e-02 1.006914e+00 -1.584942e+00 2.064559e+00 -1.158251e+00 -1.810620e+00 -5.239938e-01 -2.254045e+00 2.004500e+00 2.059071e+00 6.610515e-01 2.473611e+00 -8.376282e-01 1.958101e+00 -1.432838e+00 1.923482e+00 -1.680538e+00 2.149081e+00 -1.819255e+00 1.986887e+00 
-3.627589e-01 -1.561631e+00 3.905068e+00 -7.671957e+00 -1.344310e+02 8.967558e-01 7.150018e-01 -3.375615e+00 -4.982947e-01 -5.127069e+00 -6.642368e-03 -7.529313e+00 1.505664e+00 -1.696119e+01 1.024215e+01 -1.481748e+01 -1.086460e+01 1.069032e+01 3.721019e+01 3.837600e+01 3.739193e+00 1.290767e+01 1.843832e+01 1.927544e+01 -6.171998e-01 7.444806e+00 1.559783e+01 1.399349e+01 2.849989e-02 4.960831e+00 1.258896e+01 9.731444e+00 2.518111e-01 3.228714e+00 1.062442e+01 6.558567e+00 4.498514e-01 2.019445e+00 9.078718e+00 3.848308e+00 6.129744e-01 1.334595e+00 7.405979e+00 1.838449e+00 3.935788e-01 1.351303e+00 5.913009e+00 -3.789180e+00 2.790971e+00 -4.256469e+00 1.640352e+00 -1.446355e+01 -2.040110e+00 1.360776e-01 6.981062e-01 3.354148e+00 -9.071154e-01 2.081148e+00 -1.456301e+00 1.789967e+00 -1.487986e+00 1.976683e+00 -1.434349e+00 1.677551e+00 
5.875305e-01 -2.150094e+00 4.929061e+00 -6.506100e+00 -1.339550e+02 1.786897e+00 4.290780e-01 -2.130256e+00 -1.563494e+00 -4.481803e+00 -6.570385e-01 -1.104249e+01 6.046403e+00 -3.326485e+01 2.379046e+01 -3.906332e+01 5.758044e+00 3.912914e+01 8.846815e+01 5.241798e+01 2.162531e+01 5.362317e+01 6.772773e+01 3.400935e+01 1.602012e+01 5.016520e+01 6.985298e+01 3.850225e+01 1.682060e+01 4.691307e+01 6.670408e+01 3.840421e+01 1.693433e+01 4.316236e+01 6.467080e+01 3.850859e+01 1.698433e+01 3.902618e+01 6.288838e+01 3.871667e+01 1.686855e+01 3.429309e+01 6.159548e+01 3.833667e+01 1.767931e+01 2.554154e+01 5.900840e+01 3.619761e+01 1.452758e+01 3.259685e+01 3.481228e+01 4.665231e+01 1.455266e+01 1.572991e+01 -2.021878e+00 2.041053e+00 -3.128809e+00 8.712866e-01 -1.939142e+00 1.415965e+00 -1.358274e+00 1.791930e+00 -9.844904e-01 1.324777e+00 
1.287746e+00 -2.375617e+00 5.279184e+00 -5.079477e+00 -1.348598e+02 1.775338e+00 3.725949e-01 -1.881202e+00 -9.931035e-01 -3.204506e+00 1.263738e+00 -5.467139e+00 7.003432e+00 -1.279661e+01 1.662784e+01 -2.472763e+01 1.649471e+01 2.408874e+01 4.027493e+01 -2.268305e+01 2.800491e+01 4.866155e+01 4.747720e+01 -1.825258e+01 2.885942e+01 7.104054e+01 5.583472e+01 -1.265632e+01 3.030377e+01 8.563120e+01 5.925898e+01 -1.029147e+01 3.049684e+01 9.501428e+01 6.241462e+01 -7.591409e+00 2.989829e+01 1.008947e+02 6.585178e+01 -4.037864e+00 2.830568e+01 1.046037e+02 7.158172e+01 -1.541370e-02 2.670864e+01 1.023820e+02 7.914860e+01 3.776321e+00 3.458968e+01 1.430171e+02 5.354677e+01 9.278183e+01 -5.517800e+00 8.934893e+00 -9.404345e+00 -3.362076e+00 -4.433202e+00 -1.147880e+00 -1.700944e+00 8.333455e-01 -9.009574e-01 1.559111e+00 -4.662109e-01 1.013881e+00 
2.137072e+00 -2.638541e+00 5.842694e+00 -4.044698e+00 -1.321692e+02 1.976119e+00 8.881688e-01 -1.445901e+00 -4.796940e-01 -6.573193e-01 2.297027e-01 6.711401e+00 -3.190500e+00 2.604614e+01 -1.786280e+01 3.370929e+01 -4.200130e+00 -6.687179e+01 -7.332186e+01 -3.391913e+01 -1.797384e+01 -8.297959e+01 -4.735537e+01 -8.887258e+00 -1.951854e+01 -7.878846e+01 -4.162628e+01 -2.044896e+00 -2.111250e+01 -7.167111e+01 -3.424985e+01 4.279364e+00 -2.131949e+01 -6.356410e+01 -2.977648e+01 8.251754e+00 -2.072471e+01 -5.481353e+01 -2.663497e+01 1.083853e+01 -1.932682e+01 -4.470983e+01 -2.392968e+01 1.273538e+01 -1.696068e+01 -3.038013e+01 -1.816371e+01 1.374217e+01 -1.261590e+01 -1.469005e+01 -2.651125e+00 1.353594e+01 -4.385141e+00 4.991693e+00 -1.744659e+00 1.662765e+00 -8.025966e-01 1.130473e+00 -4.954799e-01 1.388379e+00 -3.767711e-01 1.548331e+00 6.856366e-02 6.981977e-01 
2.671588e+00 -2.543772e+00 5.925367e+00 -2.919649e+00 -1.305539e+02 2.090898e+00 7.008107e-01 -1.542700e+00 -1.043914e+00 -1.438005e+00 -1.693146e+00 5.815291e+00 -8.612981e+00 2.800651e+01 -2.516554e+01 2.573457e+01 4.620803e-01 -4.766202e+00 -8.186174e+01 -5.186782e+01 -2.663462e+01 -3.560829e+01 -7.331675e+01 -3.385056e+01 -1.909557e+01 -5.047041e+01 -8.098746e+01 -3.332497e+01 -2.078871e+01 -6.310940e+01 -8.163691e+01 -2.871724e+01 -2.190906e+01 -7.189392e+01 -8.202056e+01 -2.505149e+01 -2.301140e+01 -7.788697e+01 -8.233168e+01 -2.229506e+01 -2.391239e+01 -8.227869e+01 -8.406238e+01 -1.900693e+01 -2.603761e+01 -8.134299e+01 -8.637813e+01 -1.321996e+01 -3.537083e+01 -1.246230e+02 -5.307370e+01 -8.538858e+01 2.058488e+00 -2.940146e+00 6.506045e+00 6.901388e+00 2.605038e+00 4.007257e+00 4.751577e-01 2.231290e+00 1.763081e-02 1.625226e+00 4.862993e-01 4.903432e-01 
3.338013e+00 -2.553075e+00 6.188472e+00 -1.915220e+00 -1.259582e+02 2.713133e+00 4.529239e-01 -5.694038e-01 -2.019127e+00 -1.770398e+00 -2.887150e+00 -1.435619e+00 -4.561371e+00 1.304649e+00 -8.950532e+00 3.505449e+00 -2.848864e+00 5.199579e+00 -1.608512e+01 -1.447459e+00 -1.007643e+01 2.525644e+00 -1.350917e+01 -5.908801e+00 -6.564691e+00 5.265614e-01 -1.812622e+01 -1.234587e+01 -6.482336e+00 -2.657601e+00 -2.151832e+01 -1.722876e+01 -6.213757e+00 -5.821512e+00 -2.439809e+01 -2.115481e+01 -5.873545e+00 -8.789248e+00 -2.706329e+01 -2.471150e+01 -5.448778e+00 -1.196154e+01 -3.038254e+01 -2.863746e+01 -5.377622e+00 -1.422161e+01 -3.536581e+01 -3.154861e+01 -4.533809e+00 -3.053544e+01 -2.967085e+01 -5.100666e+01 -9.730279e+00 -1.595472e+01 1.740033e+00 6.604244e-01 2.085485e+00 2.647061e+00 8.715810e-01 2.092610e+00 4.492536e-01 1.563129e+00 9.820425e-01 2.602039e-01 
3.716529e+00 -2.253182e+00 6.079468e+00 -9.566154e-01 -1.224190e+02 2.896687e+00 1.725517e-01 -1.339875e-01 -2.558129e+00 -1.082425e+00 -3.599878e+00 -1.694210e+00 -3.460370e+00 -6.177957e+00 -1.044381e+00 -7.626506e+00 1.794755e+00 -3.339948e-01 7.208977e-02 4.024503e+00 -1.386014e+00 -2.085066e-01 -9.192308e-01 1.938679e-01 4.059542e-03 4.485260e-01 -5.486832e-01 2.084971e-01 7.248411e-01 1.193296e+00 -6.933648e-01 -5.578386e-01 1.165525e+00 1.421952e+00 -9.092900e-01 -1.470765e+00 1.508333e+00 1.376299e+00 -1.175684e+00 -2.521523e+00 1.836007e+00 9.070008e-01 -1.405112e+00 -4.583867e+00 2.512022e+00 -3.812469e-01 -2.050423e+00 -5.689370e+00 2.527253e+00 2.586377e+00 -1.792109e+00 2.667058e+00 -5.190083e-01 -4.917637e+00 -6.867286e-02 -1.778997e+00 9.926253e-01 1.042534e+00 8.669904e-01 1.634594e+00 7.176797e-01 1.383676e+00 1.349308e+00 8.738655e-02 
4.120108e+00 -2.184886e+00 6.212819e+00 -6.175084e-01 -1.166824e+02 3.221662e+00 4.026996e-01 -1.915064e-01 -2.343194e+00 -1.929142e+00 -2.953371e+00 -2.351061e+00 -2.128112e+00 -3.442912e+00 -3.995646e-01 -3.325061e+00 7.331533e-01 -7.144730e-01 8.828414e-01 2.273987e-01 -7.447969e-01 -4.153867e-01 -9.629618e-02 -1.071847e+00 -6.785438e-01 -4.790238e-01 2.725472e-01 -6.856345e-01 -5.102136e-01 -9.253480e-03 4.028159e-01 -4.789770e-01 -4.607305e-01 2.667266e-01 4.461954e-01 -3.656772e-01 -4.370826e-01 4.133161e-01 4.557609e-01 -3.461734e-01 -3.833112e-01 3.058629e-01 5.650331e-01 -6.652045e-01 -2.150076e-01 2.686500e-02 6.190128e-01 -3.947277e-01 -2.078326e-01 3.018309e+00 7.244525e-02 3.791035e+00 -6.746884e-01 -1.205353e+00 -5.484289e-01 -1.448093e+00 4.030738e-01 2.102906e-01 7.113236e-01 1.067901e+00 8.451705e-01 1.070410e+00 1.655696e+00 -1.568636e-01 
4.300861e+00 -2.007176e+00 6.033581e+00 -1.001123e-01 -1.117289e+02 3.251760e+00 3.820542e-01 -1.714820e-02 -2.154966e+00 -1.895770e+00 -2.580954e+00 -2.586009e+00 -1.672681e+00 -2.749066e+00 -6.579897e-01 -1.751010e+00 6.517264e-01 -1.908083e+00 -3.199519e-01 1.448055e-01 1.678670e-01 -6.574553e-01 -6.237116e-01 -2.263270e-01 1.278030e-01 -8.108607e-01 -4.769151e-01 -1.145156e-01 2.636720e-01 -4.917680e-01 -3.817613e-01 1.448196e-03 3.034888e-01 -2.787076e-01 -3.437911e-01 6.861543e-02 3.148513e-01 -1.480236e-01 -3.174430e-01 6.972230e-02 3.583822e-01 -1.947376e-01 -1.864300e-01 -7.902847e-02 4.873757e-01 -8.755520e-02 -2.251569e-01 7.023878e-01 5.255536e-02 2.386941e+00 -7.553132e-01 1.722617e+00 -1.820391e-01 -2.073084e-01 -3.546126e-02 -6.480985e-01 3.664646e-01 1.088109e-01 6.514480e-01 7.609449e-01 9.166110e-01 7.914223e-01 1.850406e+00 -3.774687e-01 
4.444621e+00 -1.957578e+00 5.986402e+00 -2.969635e-03 -1.049347e+02 3.241492e+00 7.202452e-01 -8.797134e-03 -1.757199e+00 -1.844951e+00 -2.236037e+00 -2.077221e+00 -1.550075e+00 -1.986197e+00 -8.540250e-01 -1.573207e+00 -3.837572e-01 -1.483982e+00 -3.282991e-01 -7.375995e-01 -1.428935e-01 -8.239919e-01 -1.671276e-01 -4.165923e-01 -9.211057e-02 -6.149815e-01 -1.197847e-01 -1.565509e-01 -1.372850e-02 -4.320553e-01 -7.275278e-02 1.805055e-02 3.025814e-02 -3.098616e-01 -5.320762e-02 1.471913e-01 6.236000e-02 -2.327410e-01 -4.500085e-02 2.400567e-01 1.072754e-01 -1.999557e-01 -3.206502e-02 3.519844e-01 1.090512e-01 3.724954e-03 -1.763184e-01 9.013673e-01 -9.473041e-02 8.093488e-01 -2.997341e-01 1.140487e+00 1.627288e-02 4.562989e-01 8.638623e-02 1.487554e-03 3.043487e-01 2.311536e-01 5.510210e-01 5.940523e-01 9.027719e-01 5.549443e-01 1.964464e+00 -5.957621e-01 
4.427399e+00 -1.888405e+00 5.729112e+00 1.777441e-01 -9.870448e+01 3.146067e+00 8.058423e-01 -6.344420e-02 -1.424200e+00 -1.873779e+00 -1.928204e+00 -1.837169e+00 -1.502487e+00 -1.344224e+00 -9.393882e-01 -1.258034e+00 -3.877514e-01 -9.846156e-01 -9.787215e-01 -1.527002e+00 -3.902507e-02 -8.869161e-01 -2.481677e-01 -6.602742e-01 1.605241e-01 -2.730817e-01 -2.718749e-01 -3.931298e-01 1.539778e-01 -1.349065e-01 -2.501898e-01 -2.836328e-01 1.800710e-01 -1.892197e-02 -2.148945e-01 -1.807003e-01 2.140472e-01 6.664217e-02 -1.771330e-01 -7.848414e-02 2.628455e-01 1.901972e-01 -1.758880e-01 1.993926e-01 1.607713e-01 5.014705e-01 -3.958580e-01 4.807752e-01 -7.771793e-02 7.069216e-01 -4.134760e-01 4.936487e-01 2.409039e-01 2.462601e-01 4.309537e-01 3.949162e-01 4.371727e-01 4.927371e-01 5.183184e-01 5.662586e-01 8.695255e-01 3.734396e-01 1.998193e+00 -7.871302e-01 
4.349971e+00 -1.826946e+00 5.479966e+00 2.331332e-01 -9.084227e+01 2.978471e+00 9.720926e-01 -1.049544e-01 -1.131095e+00 -1.929118e+00 -1.672415e+00 -1.728452e+00 -1.406348e+00 -6.701020e-01 -1.200115e+00 -7.628560e-01 -5.531812e-01 -3.674049e-01 -1.590428e+00 -2.657832e+00 2.370866e-01 -4.769055e-01 -2.120669e-01 -9.346218e-01 3.355853e-01 2.452878e-01 -3.492979e-01 -7.224102e-01 2.706849e-01 2.626624e-01 -3.257876e-01 -6.067136e-01 2.731097e-01 3.297211e-01 -2.841227e-01 -4.863365e-01 2.937149e-01 4.004687e-01 -2.524713e-01 -3.450603e-01 3.121910e-01 5.740997e-01 -3.110046e-01 3.113114e-02 1.268626e-01 9.315059e-01 -5.360953e-01 6.783965e-02 -5.957247e-03 3.113777e-01 -3.135660e-01 -1.761725e-01 3.933646e-01 3.364439e-01 5.874287e-01 7.493458e-01 4.418936e-01 7.190874e-01 4.201424e-01 5.777609e-01 7.845490e-01 2.497821e-01 1.972821e+00 -9.249402e-01 
4.168974e+00 -1.754636e+00 5.102424e+00 2.918641e-01 -8.337066e+01 2.855786e+00 9.556695e-01 -2.291688e-01 -8.471739e-01 -2.330733e+00 -1.177759e+00 -2.303014e+00 -8.993449e-01 -3.122708e-01 -1.381496e+00 1.822132e-01 -6.924368e-02 -5.082980e-02 -3.570743e+00 -3.238207e+00 1.948064e+00 8.723368e-01 -9.447620e-01 -1.020141e+00 1.761229e+00 1.516997e+00 -1.593566e+00 -1.268158e+00 1.673215e+00 1.305082e+00 -1.612120e+00 -1.350424e+00 1.708609e+00 1.316436e+00 -1.592023e+00 -1.357493e+00 1.767524e+00 1.354707e+00 -1.567269e+00 -1.340236e+00 1.867197e+00 1.531110e+00 -1.598132e+00 -9.059335e-01 1.710694e+00 2.461204e+00 -2.175468e+00 -7.558639e-01 1.307911e+00 6.441047e-01 -1.612429e+00 -2.544543e+00 1.285400e+00 7.349611e-01 1.281916e+00 1.662560e+00 2.949765e-01 8.961298e-01 1.577914e-01 4.528428e-01 6.407217e-01 7.502823e-02 1.897057e+00 -1.048069e+00 
3.920712e+00 -1.633428e+00 4.662159e+00 3.968464e-01 -7.454157e+01 2.597102e+00 9.038915e-01 -1.701687e-01 -7.281306e-01 -2.440686e+00 -9.543789e-01 -3.902895e+00 4.918243e-02 -4.009666e+00 -8.534608e-01 -5.488048e-01 -1.276086e-01 -6.474175e+00 -7.882121e-01 7.763241e+00 7.471717e+00 4.903525e+00 1.875546e+00 6.223921e+00 4.043232e+00 2.115246e+00 1.489851e+00 5.141174e+00 3.670061e+00 1.447246e+00 1.778352e+00 4.311176e+00 3.322544e+00 1.045238e+00 1.945447e+00 3.678508e+00 3.236793e+00 7.905709e-01 2.027534e+00 3.129479e+00 3.331391e+00 6.936988e-01 1.979548e+00 2.945087e+00 3.391345e+00 1.141315e+00 1.783711e+00 2.274138e+00 2.825213e+00 6.883701e-02 1.014073e+00 -2.127531e+00 2.183415e+00 1.390111e+00 1.335283e+00 2.373268e+00 1.370927e-02 9.880422e-01 -8.538694e-02 3.486321e-01 5.099279e-01 -5.191608e-02 1.792602e+00 -1.105889e+00 
3.619985e+00 -1.419598e+00 4.111543e+00 6.286426e-01 -6.592332e+01 2.473727e+00 5.984677e-01 1.653427e-01 -9.257658e-01 -2.639891e+00 -5.759498e-01 -8.031845e+00 3.166369e+00 -1.387692e+01 2.686397e+00 -5.957370e+00 5.366723e+00 -2.421853e+01 1.015396e+01 3.726585e+01 3.291204e+01 1.417966e+01 1.580988e+01 3.574130e+01 2.400149e+01 4.394693e+00 1.625874e+01 3.749053e+01 2.416575e+01 3.753222e+00 1.764367e+01 3.796659e+01 2.278012e+01 2.520907e+00 1.827132e+01 3.793918e+01 2.233003e+01 1.839206e+00 1.842445e+01 3.765902e+01 2.250299e+01 1.417475e+00 1.817389e+01 3.680188e+01 2.432647e+01 6.811485e-01 1.786039e+01 3.868066e+01 2.143440e+01 1.200838e+01 1.073582e+01 4.063696e+01 1.923791e+01 2.107942e+01 4.206620e-01 1.975403e+00 -1.907559e+00 -4.739656e-01 -5.827445e-01 -1.635597e-01 4.453756e-01 -1.965982e-01 1.716657e+00 -1.095812e+00 
3.226761e+00 -1.146384e+00 3.517417e+00 7.378706e-01 -5.634708e+01 2.062463e+00 5.105748e-01 1.794619e-01 -6.728388e-01 -2.021026e+00 -1.195545e-01 -6.190036e+00 3.394223e+00 -1.133104e+01 4.241420e+00 -6.012401e+00 5.221419e+00 -1.963209e+01 1.693114e+01 2.921841e+01 2.412642e+01 6.772369e+00 2.277451e+01 3.197416e+01 1.914886e+01 3.185728e+00 2.534703e+01 3.671011e+01 1.926176e+01 4.596585e+00 2.747335e+01 3.916499e+01 1.770054e+01 4.712848e+00 2.852972e+01 4.073702e+01 1.700520e+01 4.838514e+00 2.889518e+01 4.207939e+01 1.692033e+01 4.780318e+00 2.866371e+01 4.309251e+01 1.860523e+01 3.806318e+00 2.975400e+01 4.663671e+01 1.653146e+01 2.009541e+01 2.090459e+01 6.375061e+01 1.812931e+01 2.360888e+01 -2.754371e+00 2.238856e-01 -2.765997e+00 -1.426232e+00 -6.612997e-01 -4.807090e-01 4.569254e-01 -2.780053e-01 1.604596e+00 -1.009909e+00 
2.778666e+00 -8.363621e-01 2.884905e+00 7.957258e-01 -4.699414e+01 1.521933e+00 6.006062e-01 2.960230e-01 -2.085444e-01 4.427814e-01 -1.066032e+00 3.950493e+00 -3.408062e+00 8.172695e+00 -2.465922e+00 1.702171e+00 -1.171570e+00 1.362599e+01 -1.242051e+01 -3.162804e+01 -1.749042e+01 -1.138522e+01 -1.478892e+01 -2.740142e+01 -1.087523e+01 -5.208332e+00 -1.596752e+01 -2.587890e+01 -9.976571e+00 -4.459528e+00 -1.685699e+01 -2.401033e+01 -8.628437e+00 -3.465194e+00 -1.725247e+01 -2.252226e+01 -8.201026e+00 -2.655052e+00 -1.736644e+01 -2.138689e+01 -8.306659e+00 -1.739461e+00 -1.721569e+01 -2.022023e+01 -9.308201e+00 -6.047832e-01 -1.716360e+01 -1.958832e+01 -8.038996e+00 -7.278949e+00 -1.164940e+01 -2.490616e+01 -7.179005e+00 -5.928243e+00 8.544376e-01 9.868200e-01 1.029161e+00 9.639007e-01 6.112562e-01 4.394940e-01 7.066165e-01 -2.485249e-02 1.489967e+00 -8.196598e-01 
2.235213e+00 -4.962894e-01 2.206408e+00 8.153715e-01 -3.688014e+01 1.062885e+00 4.703878e-01 2.086755e-01 -2.000580e-01 1.040661e+00 -1.629441e+00 6.271948e+00 -5.628492e+00 1.227576e+01 -4.629085e+00 4.721038e+00 -8.102521e+00 2.507387e+01 -1.299994e+01 -3.949563e+01 -3.657837e+01 -1.351418e+01 -2.081433e+01 -4.071065e+01 -2.695517e+01 -4.105919e+00 -2.275187e+01 -4.459962e+01 -2.663995e+01 -3.941817e+00 -2.520365e+01 -4.639098e+01 -2.459793e+01 -2.975986e+00 -2.650314e+01 -4.731125e+01 -2.370980e+01 -2.438697e+00 -2.704018e+01 -4.788061e+01 -2.363118e+01 -1.951802e+00 -2.699534e+01 -4.779430e+01 -2.577704e+01 -4.550103e-01 -2.782122e+01 -5.106129e+01 -2.295508e+01 -1.738845e+01 -1.843395e+01 -6.298994e+01 -2.169394e+01 -2.476199e+01 2.027423e+00 4.015654e-01 2.979885e+00 2.093628e+00 1.259813e+00 9.408554e-01 7.830188e-01 1.485095e-01 1.287429e+00 -5.903273e-01 
1.724842e+00 -2.507814e-01 1.571272e+00 8.275055e-01 -2.699322e+01 8.953142e-01 1.572267e-01 4.053298e-01 -4.261389e-01 4.696718e-01 -1.182996e+00 1.427275e+00 -2.369847e+00 2.125837e+00 -1.636163e+00 4.150687e-01 -3.948278e+00 8.014570e+00 -1.847430e+00 -7.630989e+00 -1.263465e+01 -3.493896e+00 -5.123915e+00 -9.529558e+00 -9.778422e+00 -1.225793e+00 -4.951079e+00 -1.155129e+01 -9.963190e+00 -1.226239e+00 -5.570495e+00 -1.290361e+01 -9.584515e+00 -1.105924e+00 -5.885033e+00 -1.380651e+01 -9.405110e+00 -1.119978e+00 -5.947115e+00 -1.440986e+01 -9.442475e+00 -1.259508e+00 -5.784863e+00 -1.500084e+01 -1.006463e+01 -1.484332e+00 -5.537052e+00 -1.668367e+01 -9.041700e+00 -4.661386e+00 -3.375544e+00 -1.517583e+01 -9.828489e+00 -1.166549e+01 -1.103825e+00 -2.255923e+00 1.170950e+00 3.112327e-01 9.243001e-01 4.403183e-01 7.332844e-01 9.371785e-02 1.088111e+00 -4.222670e-01 
1.122569e+00 1.891938e-02 8.689878e-01 8.048198e-01 -1.662393e+01 5.518278e-01 -1.214244e-01 4.252735e-01 -5.421529e-01 4.286604e-01 -9.043913e-01 -2.574830e-01 -7.140065e-01 -1.964907e+00 1.183747e-02 -1.319614e+00 -1.229078e+00 -1.654704e+00 2.577574e+00 3.076578e+00 -2.275783e+00 -1.009642e+00 3.610725e-01 1.078420e+00 -2.034919e+00 -1.683131e+00 1.109865e+00 1.115959e+00 -1.821692e+00 -1.457894e+00 1.199081e+00 1.101769e+00 -1.721107e+00 -1.450987e+00 1.241016e+00 1.057950e+00 -1.661260e+00 -1.474909e+00 1.294921e+00 1.035098e+00 -1.669105e+00 -1.601922e+00 1.401572e+00 6.507801e-01 -1.545319e+00 -2.360990e+00 1.747029e+00 8.134492e-01 -1.268776e+00 1.763690e-02 1.239899e+00 3.966277e+00 -1.313833e+00 -8.050709e-01 -1.020387e+00 -1.845299e+00 2.707173e-01 -4.762602e-01 6.057933e-01 9.390626e-02 5.906099e-01 3.732640e-02 8.045540e-01 -2.385844e-01 
5.524492e-01 8.625116e-02 3.058107e-01 4.967371e-01 -6.621663e+00 2.680113e-01 -1.525885e-01 2.498273e-01 -2.735972e-01 1.704780e-01 -3.452134e-01 -3.690980e-01 -1.436726e-01 -1.144327e+00 1.592139e-01 -7.357840e-01 -1.332587e-01 -1.411508e+00 1.542779e+00 1.848578e+00 -4.705694e-01 -3.116174e-01 2.516162e-01 7.720398e-01 -7.580703e-01 -9.459799e-01 5.549495e-01 7.758484e-01 -6.925693e-01 -8.788423e-01 6.516203e-01 8.390664e-01 -6.794529e-01 -8.737044e-01 6.894678e-01 8.595063e-01 -6.815790e-01 -8.895752e-01 7.152483e-01 8.529415e-01 -6.879690e-01 -9.915451e-01 7.929441e-01 6.741143e-01 -5.851253e-01 -1.239472e+00 9.385583e-01 1.114732e+00 -6.743623e-01 1.113626e-01 5.422434e-01 1.998901e+00 -6.962020e-01 1.123025e-01 -6.737106e-01 -8.554214e-01 -6.109266e-02 -5.134337e-01 2.476420e-01 -1.521410e-01 3.309334e-01 -7.750940e-02 4.603507e-01 -1.515079e-01 
-8.612227e-02 2.445765e-01 -3.678783e-01 3.210136e-01 3.698926e+00 -1.362717e-01 -3.083797e-01 5.339846e-02 -1.343677e-01 8.450839e-02 2.010395e-02 -2.810776e-01 1.482350e-01 -4.755800e-01 1.753220e-01 -4.052754e-01 3.491651e-01 -5.964896e-01 6.588805e-01 5.642010e-01 1.162526e-01 3.136800e-01 -2.441479e-04 3.678294e-01 -1.620113e-01 -2.102044e-01 1.710563e-02 2.315461e-01 -1.137857e-01 -2.570410e-01 5.884471e-02 2.730257e-01 -8.324536e-02 -2.786657e-01 6.675585e-02 2.809818e-01 -7.257704e-02 -3.097533e-01 7.317897e-02 2.418265e-01 -5.201798e-02 -4.101415e-01 1.448849e-01 9.400518e-02 5.626373e-02 -3.862236e-01 1.388473e-01 5.708418e-01 -9.399912e-02 3.535535e-01 -4.874362e-02 7.946594e-01 -4.158228e-01 3.305768e-01 -4.202167e-01 -3.689024e-01 -1.883924e-01 -4.302096e-01 3.098390e-02 -2.351472e-01 1.077987e-01 -1.084920e-01 9.702716e-02 -4.293982e-03 
-6.654151e-01 2.619897e-01 -9.006442e-01 -2.545349e-02 1.369529e+01 -4.734922e-01 -2.696176e-01 -2.462367e-02 1.317285e-01 2.150457e-01 3.414720e-01 4.670924e-02 3.558055e-01 -6.005326e-02 3.080740e-01 -1.094468e-01 4.141271e-01 -1.550730e-01 3.672230e-01 2.321616e-01 2.291606e-01 3.232043e-01 4.349661e-02 2.609624e-01 1.730242e-02 3.930012e-02 -3.231438e-02 1.194536e-01 1.087288e-03 -4.325275e-02 -2.469944e-02 1.089741e-01 1.095316e-02 -8.009239e-02 -1.940403e-02 9.256150e-02 1.710628e-02 -1.193976e-01 -8.376047e-03 4.943351e-02 3.864826e-02 -1.794921e-01 3.757058e-02 -1.208960e-03 7.621735e-02 -9.102240e-02 -1.990203e-02 2.828373e-01 -7.538890e-02 2.064957e-01 -1.460111e-01 3.323142e-01 -2.697897e-01 2.745633e-01 -2.912685e-01 -1.225399e-01 -2.208183e-01 -2.821892e-01 -1.304111e-01 -2.323686e-01 -1.248869e-01 -1.167766e-01 -2.768945e-01 9.251497e-02 