# vtk DataFile Version 2.0
Comment goes here
ASCII

DATASET STRUCTURED_POINTS
FIELD FieldData 1
TIME 1 1 double
0.05300000
DIMENSIONS    64   64   1

ORIGIN    0.000   0.000   0.000
SPACING   0.03125 0.03125   1.000

POINT_DATA   4096
SCALARS uX double
LOOKUP_TABLE default

7.443436e-01 -1.513043e+00 4.950915e-01 -1.435874e+00 2.829761e-01 -1.341088e+00 3.287039e-01 -1.161749e+00 2.528263e-01 -9.591308e-01 1.222301e-01 -7.629589e-01 -6.378143e-03 -6.104876e-01 -9.301064e-02 -5.124701e-01 -1.379102e-01 -4.542265e-01 -1.559663e-01 -4.237543e-01 -1.536572e-01 -4.093342e-01 -1.477254e-01 -3.838298e-01 -1.759561e-01 -3.043151e-01 -2.787893e-01 -1.372142e-01 -4.711262e-01 1.039057e-01 -7.192781e-01 3.723517e-01 -9.684885e-01 6.166718e-01 -1.179665e+00 8.026804e-01 -1.318125e+00 8.984467e-01 -1.360709e+00 8.987429e-01 -1.318432e+00 8.190929e-01 -1.205298e+00 6.648002e-01 -1.023310e+00 4.501720e-01 -7.982869e-01 2.062251e-01 -5.641786e-01 -3.403781e-02 -3.498431e-01 -2.455631e-01 -1.816676e-01 -4.083273e-01 -6.771669e-02 -5.335500e-01 1.970069e-02 -6.591303e-01 1.202363e-01 -8.270942e-01 2.639212e-01 -1.054020e+00 4.532645e-01 -1.339449e+00 
-6.044466e-01 4.014133e-01 -2.600304e-01 3.375064e-01 -2.478795e-02 2.928164e-01 -2.067889e-01 1.791475e-01 -2.644959e-01 6.976670e-02 -2.656241e-01 -2.958542e-02 -2.517382e-01 -1.045043e-01 -2.499352e-01 -1.509995e-01 -2.616260e-01 -1.802815e-01 -2.783760e-01 -1.980079e-01 -3.004308e-01 -2.072385e-01 -3.216110e-01 -2.220263e-01 -3.232477e-01 -2.644145e-01 -2.839792e-01 -3.528403e-01 -1.961707e-01 -4.794483e-01 -7.941151e-02 -6.165168e-01 3.635401e-02 -7.383247e-01 1.336985e-01 -8.291783e-01 1.952081e-01 -8.729653e-01 2.116863e-01 -8.697905e-01 1.903962e-01 -8.283630e-01 1.374321e-01 -7.474831e-01 5.002789e-02 -6.333060e-01 -5.738519e-02 -5.024769e-01 -1.676242e-01 -3.721624e-01 -2.650119e-01 -2.555800e-01 -3.337774e-01 -1.660021e-01 -3.681624e-01 -9.811393e-02 -3.809626e-01 -3.236414e-02 -3.918305e-01 5.423799e-02 -4.143124e-01 1.695370e-01 -4.472708e-01 3.216153e-01 
1.100392e+00 6.742103e-01 1.029765e+00 6.270052e-01 7.768311e-01 5.561599e-01 1.254535e+00 5.049939e-01 1.620479e+00 3.875343e-01 1.924683e+00 2.586995e-01 2.168797e+00 1.582972e-01 2.347509e+00 9.743849e-02 2.474248e+00 6.511920e-02 2.565078e+00 5.389446e-02 2.625406e+00 5.840982e-02 2.668115e+00 6.212765e-02 2.720879e+00 3.399353e-02 2.814041e+00 -5.214925e-02 2.963301e+00 -1.882953e-01 3.141674e+00 -3.416600e-01 3.314034e+00 -4.798321e-01 3.454634e+00 -5.828449e-01 3.542336e+00 -6.310681e-01 3.561732e+00 -6.228102e-01 3.524424e+00 -5.725673e-01 3.438597e+00 -4.807087e-01 3.302125e+00 -3.525240e-01 3.130194e+00 -2.086385e-01 2.942493e+00 -6.948093e-02 2.756658e+00 4.970545e-02 2.590290e+00 1.338937e-01 2.448063e+00 1.900263e-01 2.308341e+00 2.443324e-01 2.137947e+00 3.256836e-01 1.906933e+00 4.515870e-01 1.594476e+00 6.399542e-01 
3.140416e+00 -7.330055e-02 2.231570e+00 -1.662375e-01 1.111116e+00 -1.264854e-01 2.430551e+00 -6.171158e-02 3.149329e+00 -5.814138e-03 3.618136e+00 4.850346e-02 3.961650e+00 9.533413e-02 4.239651e+00 1.319997e-01 4.473621e+00 1.626778e-01 4.663632e+00 1.859981e-01 4.820625e+00 1.983007e-01 4.949639e+00 2.049542e-01 5.048951e+00 2.186229e-01 5.110121e+00 2.517775e-01 5.132012e+00 3.025202e-01 5.127235e+00 3.572255e-01 5.113199e+00 4.053753e-01 5.095025e+00 4.422082e-01 5.080073e+00 4.598727e-01 5.071194e+00 4.605313e-01 5.061961e+00 4.515663e-01 5.047650e+00 4.297909e-01 5.032167e+00 3.939745e-01 5.006873e+00 3.495161e-01 4.962195e+00 3.023482e-01 4.888520e+00 2.588629e-01 4.774448e+00 2.301398e-01 4.616013e+00 2.149030e-01 4.416406e+00 2.022229e-01 4.175889e+00 1.759601e-01 3.884680e+00 1.255606e-01 3.515727e+00 2.506703e-02 
3.183884e+00 7.844498e-02 2.471892e+00 -5.516464e-02 1.549610e+00 -3.906407e-02 2.578006e+00 -4.990441e-02 3.244107e+00 -1.049543e-02 3.709238e+00 3.942008e-02 4.059133e+00 8.929357e-02 4.338904e+00 1.358220e-01 4.568488e+00 1.777306e-01 4.746401e+00 2.139202e-01 4.887604e+00 2.390013e-01 4.996409e+00 2.556386e-01 5.082872e+00 2.678883e-01 5.142805e+00 2.853482e-01 5.180220e+00 3.058742e-01 5.199270e+00 3.264131e-01 5.211001e+00 3.426131e-01 5.213011e+00 3.562517e-01 5.212111e+00 3.638352e-01 5.204797e+00 3.676425e-01 5.190951e+00 3.695563e-01 5.163156e+00 3.675516e-01 5.127115e+00 3.560646e-01 5.073747e+00 3.374121e-01 5.002732e+00 3.111326e-01 4.903567e+00 2.833686e-01 4.775470e+00 2.609948e-01 4.617837e+00 2.448770e-01 4.428168e+00 2.310980e-01 4.199452e+00 2.139491e-01 3.918309e+00 1.819120e-01 3.569095e+00 1.044344e-01 
3.298090e+00 -4.432795e-02 2.700742e+00 -8.278906e-02 1.974162e+00 -8.686479e-02 2.705801e+00 -5.601298e-02 3.314407e+00 -1.444779e-02 3.759111e+00 2.947932e-02 4.095087e+00 7.487544e-02 4.364817e+00 1.205508e-01 4.591601e+00 1.635439e-01 4.771277e+00 1.980245e-01 4.912093e+00 2.225563e-01 5.020422e+00 2.411847e-01 5.101763e+00 2.617014e-01 5.155167e+00 2.899348e-01 5.183146e+00 3.256649e-01 5.191457e+00 3.630721e-01 5.188505e+00 3.965719e-01 5.179702e+00 4.229797e-01 5.169518e+00 4.396030e-01 5.159852e+00 4.464074e-01 5.147605e+00 4.441772e-01 5.130454e+00 4.318581e-01 5.105158e+00 4.091648e-01 5.068111e+00 3.777703e-01 5.010635e+00 3.394245e-01 4.928046e+00 2.979599e-01 4.808333e+00 2.600381e-01 4.656766e+00 2.271293e-01 4.475456e+00 1.948526e-01 4.260267e+00 1.551395e-01 4.001094e+00 1.004049e-01 3.683078e+00 2.625501e-02 
3.444327e+00 6.696324e-02 2.968741e+00 1.714261e-02 2.379765e+00 1.248232e-02 2.926815e+00 -1.889087e-03 3.431107e+00 1.192027e-02 3.832165e+00 4.350993e-02 4.149162e+00 8.577228e-02 4.409697e+00 1.341630e-01 4.633223e+00 1.829241e-01 4.799447e+00 2.228462e-01 4.930621e+00 2.487543e-01 5.025324e+00 2.676257e-01 5.104335e+00 2.811241e-01 5.155690e+00 2.968314e-01 5.196310e+00 3.115340e-01 5.215511e+00 3.279160e-01 5.232519e+00 3.403014e-01 5.234345e+00 3.525328e-01 5.237878e+00 3.594208e-01 5.227997e+00 3.655621e-01 5.217999e+00 3.673893e-01 5.190710e+00 3.674776e-01 5.158948e+00 3.595741e-01 5.104900e+00 3.447289e-01 5.037677e+00 3.177654e-01 4.935746e+00 2.871736e-01 4.810342e+00 2.586512e-01 4.666508e+00 2.347669e-01 4.501832e+00 2.140935e-01 4.308274e+00 1.915646e-01 4.075454e+00 1.603732e-01 3.792298e+00 1.165664e-01 
3.634358e+00 8.433228e-03 3.241427e+00 -1.141131e-02 2.771674e+00 -1.624443e-02 3.156571e+00 -1.753029e-02 3.566835e+00 -2.200336e-03 3.919738e+00 2.335309e-02 4.209230e+00 6.064157e-02 4.453805e+00 1.128216e-01 4.674616e+00 1.780882e-01 4.842223e+00 2.186581e-01 4.963135e+00 2.475534e-01 5.054539e+00 2.637551e-01 5.121901e+00 2.852274e-01 5.170622e+00 3.054392e-01 5.197800e+00 3.336640e-01 5.213470e+00 3.587472e-01 5.215295e+00 3.854257e-01 5.215256e+00 4.039011e-01 5.207469e+00 4.194295e-01 5.202850e+00 4.246691e-01 5.189646e+00 4.264125e-01 5.177346e+00 4.181141e-01 5.149287e+00 4.064369e-01 5.115091e+00 3.841933e-01 5.051574e+00 3.534000e-01 4.974116e+00 3.066362e-01 4.851007e+00 2.553178e-01 4.712907e+00 2.121493e-01 4.562714e+00 1.765737e-01 4.390706e+00 1.413759e-01 4.186059e+00 1.006133e-01 3.938095e+00 5.416438e-02 
3.826922e+00 8.638483e-02 3.517401e+00 6.438183e-02 3.145167e+00 5.961650e-02 3.423990e+00 3.985466e-02 3.740362e+00 3.423419e-02 4.035745e+00 4.506368e-02 4.292697e+00 7.524179e-02 4.521919e+00 1.273936e-01 4.747725e+00 2.134228e-01 4.887167e+00 2.485034e-01 5.002353e+00 2.749250e-01 5.070584e+00 2.822610e-01 5.147163e+00 2.985351e-01 5.180963e+00 3.053545e-01 5.228614e+00 3.209911e-01 5.236393e+00 3.289840e-01 5.264712e+00 3.428467e-01 5.256795e+00 3.488971e-01 5.273041e+00 3.591634e-01 5.254363e+00 3.617705e-01 5.258986e+00 3.687699e-01 5.226638e+00 3.681697e-01 5.211808e+00 3.701440e-01 5.154583e+00 3.581664e-01 5.103432e+00 3.335320e-01 4.988052e+00 2.900460e-01 4.860507e+00 2.464125e-01 4.735475e+00 2.133884e-01 4.606509e+00 1.903621e-01 4.460442e+00 1.703203e-01 4.287037e+00 1.471237e-01 4.078688e+00 1.187314e-01 
4.036486e+00 4.899120e-02 3.792103e+00 4.280733e-02 3.505224e+00 3.844420e-02 3.682939e+00 2.340396e-02 3.914280e+00 1.564528e-02 4.150293e+00 1.278130e-02 4.369854e+00 2.349929e-02 4.581651e+00 7.199347e-02 4.812353e+00 2.526502e-01 4.956677e+00 2.445482e-01 5.039849e+00 3.045350e-01 5.110600e+00 2.668269e-01 5.160519e+00 3.267420e-01 5.206046e+00 2.980219e-01 5.225056e+00 3.608107e-01 5.247672e+00 3.377187e-01 5.245751e+00 3.978095e-01 5.256720e+00 3.723168e-01 5.244717e+00 4.235070e-01 5.252234e+00 3.905519e-01 5.234108e+00 4.306803e-01 5.237867e+00 3.904384e-01 5.206133e+00 4.217995e-01 5.193446e+00 3.819179e-01 5.116754e+00 4.036453e-01 5.053111e+00 3.271332e-01 4.900845e+00 2.355741e-01 4.780212e+00 1.814996e-01 4.673478e+00 1.508779e-01 4.554831e+00 1.265931e-01 4.412583e+00 1.009446e-01 4.241228e+00 7.375225e-02 
4.239761e+00 1.074588e-01 4.058815e+00 1.038445e-01 3.847146e+00 9.983257e-02 3.954570e+00 7.788686e-02 4.113748e+00 5.693285e-02 4.293244e+00 3.707555e-02 4.472828e+00 2.528048e-02 4.665312e+00 2.788206e-02 4.950248e+00 3.740879e-01 4.994478e+00 2.340045e-01 5.114207e+00 3.669738e-01 5.109464e+00 2.347536e-01 5.230520e+00 3.718072e-01 5.194708e+00 2.540130e-01 5.299417e+00 3.829971e-01 5.238865e+00 2.744699e-01 5.332433e+00 3.959534e-01 5.256982e+00 2.929771e-01 5.343023e+00 4.063175e-01 5.258791e+00 3.077678e-01 5.337608e+00 4.128861e-01 5.246287e+00 3.209781e-01 5.311903e+00 4.201480e-01 5.206057e+00 3.410738e-01 5.239826e+00 4.044004e-01 5.039082e+00 2.983208e-01 4.896807e+00 2.147315e-01 4.806845e+00 1.736160e-01 4.730205e+00 1.580279e-01 4.640427e+00 1.485587e-01 4.529642e+00 1.371524e-01 4.396322e+00 1.227301e-01 
4.448353e+00 8.178905e-02 4.320329e+00 8.900112e-02 4.175855e+00 8.560510e-02 4.211649e+00 7.041883e-02 4.299581e+00 5.132664e-02 4.412732e+00 1.280699e-02 4.536921e+00 -7.042714e-02 4.717277e+00 -1.949858e-01 5.054915e+00 6.139020e-01 5.065385e+00 3.071235e-02 5.160571e+00 5.730607e-01 5.135571e+00 -1.142688e-03 5.253161e+00 5.976516e-01 5.213008e+00 2.695792e-02 5.303996e+00 6.263665e-01 5.248962e+00 6.122547e-02 5.322633e+00 6.538344e-01 5.261704e+00 9.269210e-02 5.325316e+00 6.713336e-01 5.265287e+00 1.145410e-01 5.323245e+00 6.732310e-01 5.268008e+00 1.231255e-01 5.317391e+00 6.517786e-01 5.273750e+00 1.231278e-01 5.281650e+00 7.024439e-01 5.151396e+00 3.499229e-01 4.900100e+00 1.529695e-01 4.841018e+00 1.184543e-01 4.802010e+00 1.153604e-01 4.742282e+00 1.109260e-01 4.661435e+00 1.015683e-01 4.562632e+00 9.024755e-02 
4.647873e+00 1.280354e-01 4.570231e+00 1.395902e-01 4.486561e+00 1.367249e-01 4.469267e+00 1.235504e-01 4.501193e+00 1.053610e-01 4.564087e+00 6.853920e-02 4.646379e+00 -5.108451e-03 4.747236e+00 -5.289883e-02 4.912073e+00 1.921421e-01 4.801366e+00 -2.004886e-01 5.038951e+00 2.621633e-01 4.898544e+00 -1.734093e-01 5.164369e+00 3.850731e-01 4.961074e+00 -1.320147e-01 5.238955e+00 4.767165e-01 4.995438e+00 -9.479071e-02 5.281923e+00 5.483072e-01 5.013982e+00 -6.132033e-02 5.306466e+00 6.084299e-01 5.025462e+00 -2.975181e-02 5.323505e+00 6.667209e-01 5.039568e+00 1.412454e-03 5.342789e+00 7.280916e-01 5.076885e+00 6.886364e-02 5.389742e+00 9.907822e-01 5.006164e+00 3.107270e-01 4.856864e+00 1.011668e-01 4.877930e+00 9.757839e-02 4.876228e+00 1.175984e-01 4.841595e+00 1.285797e-01 4.787282e+00 1.309497e-01 4.721211e+00 1.291573e-01 
4.845936e+00 1.097788e-01 4.812333e+00 1.287768e-01 4.784249e+00 1.265903e-01 4.716231e+00 1.251519e-01 4.693450e+00 1.318697e-01 4.686149e+00 1.531949e-01 4.634525e+00 1.809320e-01 4.382861e+00 1.487144e-01 3.530919e+00 -1.654834e+00 3.824055e+00 -6.891278e-01 3.540057e+00 -1.733679e+00 3.896903e+00 -6.845844e-01 3.566287e+00 -1.712633e+00 3.906380e+00 -6.753053e-01 3.593232e+00 -1.652695e+00 3.912685e+00 -6.458869e-01 3.615469e+00 -1.585913e+00 3.911456e+00 -6.120693e-01 3.638761e+00 -1.517440e+00 3.911720e+00 -5.776776e-01 3.675873e+00 -1.439822e+00 3.925422e+00 -5.329900e-01 3.755643e+00 -1.322012e+00 3.980789e+00 -4.741895e-01 3.958627e+00 -1.246863e+00 4.343704e+00 -5.123422e-01 4.811251e+00 -1.013239e-01 4.947129e+00 3.781574e-02 4.965321e+00 8.517022e-02 4.948389e+00 1.010239e-01 4.918249e+00 1.049779e-01 4.882485e+00 1.057778e-01 
5.034247e+00 1.472521e-01 5.041722e+00 1.692886e-01 5.064008e+00 1.676673e-01 4.952632e+00 1.676977e-01 4.880280e+00 1.796665e-01 4.812501e+00 2.225266e-01 4.676858e+00 2.987394e-01 4.319787e+00 2.804015e-01 3.482332e+00 -1.545053e+00 3.592120e+00 -5.368856e-01 3.255368e+00 -1.892658e+00 3.608103e+00 -6.525039e-01 3.133843e+00 -2.137985e+00 3.590936e+00 -7.451438e-01 3.062263e+00 -2.278440e+00 3.591028e+00 -7.962368e-01 3.019787e+00 -2.365896e+00 3.591629e+00 -8.276533e-01 2.994692e+00 -2.424559e+00 3.592872e+00 -8.483044e-01 2.984679e+00 -2.466727e+00 3.601169e+00 -8.510677e-01 3.013478e+00 -2.475042e+00 3.644410e+00 -8.528544e-01 3.157832e+00 -2.694397e+00 4.242807e+00 -9.803974e-01 4.941694e+00 -1.986968e-01 5.064667e+00 2.759196e-02 5.068790e+00 9.584413e-02 5.057462e+00 1.203787e-01 5.045576e+00 1.311116e-01 5.036641e+00 1.380171e-01 
5.216468e+00 1.334187e-01 5.261765e+00 1.575504e-01 5.330860e+00 1.565406e-01 5.185536e+00 1.531425e-01 5.082629e+00 1.489583e-01 5.005036e+00 1.444688e-01 4.932205e+00 1.366391e-01 4.870712e+00 1.288649e-01 5.045603e+00 4.103796e-01 4.701369e+00 4.497639e-02 4.899412e+00 2.091546e-01 4.659023e+00 -6.016351e-02 4.855853e+00 5.482713e-02 4.628288e+00 -1.346531e-01 4.811835e+00 -6.057399e-02 4.605331e+00 -1.862342e-01 4.774620e+00 -1.477680e-01 4.590593e+00 -2.263521e-01 4.744161e+00 -2.243265e-01 4.585276e+00 -2.653761e-01 4.720539e+00 -3.058890e-01 4.594191e+00 -3.073468e-01 4.711194e+00 -3.981256e-01 4.634214e+00 -3.170382e-01 4.747538e+00 -4.474445e-01 4.751471e+00 -3.393524e-01 4.990740e+00 -9.767657e-02 5.094385e+00 2.556389e-02 5.132692e+00 7.880075e-02 5.151262e+00 1.016421e-01 5.166564e+00 1.127313e-01 5.186329e+00 1.212473e-01 
5.389154e+00 1.630204e-01 5.468959e+00 1.873880e-01 5.579908e+00 1.869434e-01 5.405259e+00 1.797466e-01 5.274742e+00 1.620267e-01 5.182390e+00 1.186618e-01 5.135388e+00 1.579358e-02 5.202132e+00 -1.390859e-01 5.470057e+00 7.390789e-01 5.406192e+00 1.203928e-01 5.438951e+00 7.272328e-01 5.330072e+00 4.593564e-02 5.453422e+00 7.393105e-01 5.321121e+00 1.738005e-02 5.466784e+00 7.403160e-01 5.312882e+00 -3.971789e-03 5.475871e+00 7.378391e-01 5.309449e+00 -1.931010e-02 5.484566e+00 7.332556e-01 5.312757e+00 -3.067374e-02 5.497760e+00 7.268099e-01 5.328019e+00 -4.178649e-02 5.519980e+00 7.134372e-01 5.370153e+00 -2.810700e-02 5.545646e+00 8.847210e-01 5.296967e+00 2.531859e-01 5.139101e+00 5.896515e-02 5.177047e+00 7.105222e-02 5.219833e+00 1.019729e-01 5.252645e+00 1.226914e-01 5.286661e+00 1.363059e-01 5.330073e+00 1.481544e-01 
5.553179e+00 1.530459e-01 5.665382e+00 1.775248e-01 5.816162e+00 1.776498e-01 5.621317e+00 1.723457e-01 5.474343e+00 1.606206e-01 5.375071e+00 1.400256e-01 5.330000e+00 1.051169e-01 5.370811e+00 6.566438e-02 5.516644e+00 3.948375e-01 5.467040e+00 2.547237e-01 5.477742e+00 4.402626e-01 5.414455e+00 2.402180e-01 5.462503e+00 4.660356e-01 5.401252e+00 2.354662e-01 5.455563e+00 4.829544e-01 5.391686e+00 2.318668e-01 5.450734e+00 4.962412e-01 5.387502e+00 2.291306e-01 5.450884e+00 5.067915e-01 5.391768e+00 2.255255e-01 5.459512e+00 5.164965e-01 5.407379e+00 2.212974e-01 5.474883e+00 5.301068e-01 5.431434e+00 2.228947e-01 5.482167e+00 5.823768e-01 5.390593e+00 3.242264e-01 5.251405e+00 1.468786e-01 5.254924e+00 1.070113e-01 5.295426e+00 1.083011e-01 5.342981e+00 1.167067e-01 5.398071e+00 1.259830e-01 5.466063e+00 1.371369e-01 
5.707796e+00 1.768142e-01 5.849104e+00 1.997621e-01 6.034695e+00 2.003911e-01 5.819905e+00 1.913419e-01 5.653601e+00 1.735359e-01 5.538171e+00 1.507038e-01 5.476287e+00 1.394371e-01 5.470999e+00 1.798641e-01 5.515906e+00 3.181055e-01 5.539941e+00 3.220100e-01 5.514668e+00 3.769231e-01 5.490639e+00 3.319909e-01 5.484509e+00 3.847026e-01 5.462898e+00 3.290086e-01 5.470248e+00 3.851372e-01 5.447315e+00 3.249258e-01 5.464401e+00 3.853173e-01 5.441520e+00 3.226202e-01 5.466811e+00 3.873595e-01 5.445767e+00 3.232592e-01 5.478628e+00 3.937962e-01 5.460003e+00 3.300344e-01 5.495814e+00 4.113702e-01 5.472952e+00 3.507573e-01 5.495365e+00 4.271200e-01 5.422565e+00 3.098045e-01 5.347177e+00 1.981922e-01 5.344684e+00 1.480563e-01 5.382310e+00 1.361096e-01 5.438101e+00 1.391562e-01 5.508332e+00 1.478548e-01 5.596313e+00 1.601091e-01 
5.852566e+00 1.705773e-01 6.021126e+00 1.936768e-01 6.240473e+00 1.948762e-01 6.010084e+00 1.911788e-01 5.828798e+00 1.829002e-01 5.697729e+00 1.759690e-01 5.615744e+00 1.824479e-01 5.579521e+00 2.200689e-01 5.579683e+00 2.901150e-01 5.580225e+00 3.241649e-01 5.549638e+00 3.509265e-01 5.526021e+00 3.504024e-01 5.502838e+00 3.654232e-01 5.487575e+00 3.564130e-01 5.473868e+00 3.699747e-01 5.464203e+00 3.583120e-01 5.457927e+00 3.726207e-01 5.453604e+00 3.593668e-01 5.454330e+00 3.747395e-01 5.455909e+00 3.603113e-01 5.463149e+00 3.778440e-01 5.469532e+00 3.629307e-01 5.478623e+00 3.827222e-01 5.484070e+00 3.603178e-01 5.484256e+00 3.623727e-01 5.466677e+00 2.995091e-01 5.416812e+00 2.168675e-01 5.415690e+00 1.651987e-01 5.456416e+00 1.431066e-01 5.522884e+00 1.382144e-01 5.609457e+00 1.426961e-01 5.717627e+00 1.535380e-01 
5.987772e+00 1.906667e-01 6.180435e+00 2.122221e-01 6.428596e+00 2.139038e-01 6.181411e+00 2.084372e-01 5.982232e+00 1.978485e-01 5.831993e+00 1.909412e-01 5.727439e+00 2.019139e-01 5.663047e+00 2.409042e-01 5.639111e+00 2.958012e-01 5.638168e+00 3.340990e-01 5.603359e+00 3.547934e-01 5.577279e+00 3.596304e-01 5.545706e+00 3.630385e-01 5.528462e+00 3.594899e-01 5.509295e+00 3.599692e-01 5.500076e+00 3.554968e-01 5.490741e+00 3.563890e-01 5.488317e+00 3.526633e-01 5.487424e+00 3.549939e-01 5.491447e+00 3.529422e-01 5.497890e+00 3.579911e-01 5.506547e+00 3.586326e-01 5.515355e+00 3.655889e-01 5.521166e+00 3.594638e-01 5.523292e+00 3.408020e-01 5.511138e+00 2.921198e-01 5.481398e+00 2.298214e-01 5.486978e+00 1.838893e-01 5.532675e+00 1.614891e-01 5.608131e+00 1.562366e-01 5.707824e+00 1.613531e-01 5.832688e+00 1.731931e-01 
6.112612e+00 1.872909e-01 6.327703e+00 2.093446e-01 6.603951e+00 2.115673e-01 6.342328e+00 2.109524e-01 6.128696e+00 2.062019e-01 5.962279e+00 2.046951e-01 5.839839e+00 2.173842e-01 5.757121e+00 2.518071e-01 5.710555e+00 3.009373e-01 5.688706e+00 3.368236e-01 5.640128e+00 3.543076e-01 5.606448e+00 3.609337e-01 5.566491e+00 3.647679e-01 5.545323e+00 3.641269e-01 5.518885e+00 3.654141e-01 5.508187e+00 3.631878e-01 5.492657e+00 3.643138e-01 5.491053e+00 3.616862e-01 5.485044e+00 3.631177e-01 5.492102e+00 3.605418e-01 5.494507e+00 3.627690e-01 5.508802e+00 3.602561e-01 5.515793e+00 3.610727e-01 5.532057e+00 3.497603e-01 5.536134e+00 3.285310e-01 5.540580e+00 2.842912e-01 5.524660e+00 2.286506e-01 5.540217e+00 1.854452e-01 5.595686e+00 1.619915e-01 5.682864e+00 1.545333e-01 5.796758e+00 1.579759e-01 5.938305e+00 1.692627e-01 
6.227578e+00 2.050846e-01 6.461998e+00 2.265400e-01 6.761731e+00 2.292317e-01 6.484293e+00 2.283918e-01 6.253700e+00 2.208977e-01 6.069150e+00 2.125380e-01 5.929403e+00 2.146631e-01 5.832695e+00 2.459095e-01 5.768355e+00 3.231475e-01 5.762988e+00 3.529388e-01 5.684639e+00 3.719331e-01 5.661716e+00 3.629228e-01 5.596774e+00 3.725544e-01 5.591577e+00 3.576930e-01 5.542546e+00 3.668612e-01 5.549844e+00 3.507213e-01 5.513423e+00 3.610042e-01 5.531319e+00 3.453213e-01 5.505418e+00 3.569680e-01 5.533134e+00 3.426654e-01 5.516425e+00 3.555438e-01 5.553260e+00 3.428738e-01 5.542694e+00 3.553446e-01 5.583732e+00 3.422636e-01 5.567810e+00 3.431296e-01 5.596048e+00 2.973264e-01 5.570927e+00 2.293463e-01 5.590737e+00 1.866416e-01 5.657105e+00 1.685830e-01 5.755768e+00 1.659107e-01 5.881761e+00 1.726300e-01 6.037090e+00 1.860043e-01 
6.331947e+00 2.034950e-01 6.584254e+00 2.257935e-01 6.906704e+00 2.289796e-01 6.615749e+00 2.322435e-01 6.371931e+00 2.279125e-01 6.173017e+00 2.185827e-01 6.018809e+00 2.107745e-01 5.912500e+00 2.243007e-01 5.839271e+00 3.650045e-01 5.816353e+00 3.479293e-01 5.717762e+00 3.937806e-01 5.685706e+00 3.463275e-01 5.616200e+00 3.934667e-01 5.602699e+00 3.424979e-01 5.553669e+00 3.901286e-01 5.551732e+00 3.376762e-01 5.518934e+00 3.858145e-01 5.527679e+00 3.332728e-01 5.508074e+00 3.812555e-01 5.527697e+00 3.293793e-01 5.519544e+00 3.761963e-01 5.551115e+00 3.253953e-01 5.552552e+00 3.697172e-01 5.594094e+00 3.217680e-01 5.596419e+00 3.602403e-01 5.615473e+00 2.937111e-01 5.590505e+00 2.181348e-01 5.625515e+00 1.776857e-01 5.707091e+00 1.629613e-01 5.818746e+00 1.620331e-01 5.957281e+00 1.694337e-01 6.126160e+00 1.833874e-01 
6.426034e+00 2.197617e-01 6.693136e+00 2.426042e-01 7.034202e+00 2.462373e-01 6.728906e+00 2.523301e-01 6.469017e+00 2.488701e-01 6.250193e+00 2.305229e-01 6.076340e+00 1.824223e-01 5.971283e+00 1.236296e-01 5.894041e+00 4.759010e-01 5.913895e+00 3.054328e-01 5.737143e+00 4.784361e-01 5.748994e+00 2.641585e-01 5.622983e+00 4.755144e-01 5.659663e+00 2.497485e-01 5.556044e+00 4.725000e-01 5.603560e+00 2.376267e-01 5.519297e+00 4.678004e-01 5.577470e+00 2.290983e-01 5.507918e+00 4.626742e-01 5.577840e+00 2.241287e-01 5.520007e+00 4.566413e-01 5.605486e+00 2.193691e-01 5.558956e+00 4.431930e-01 5.665871e+00 2.147255e-01 5.622637e+00 4.946811e-01 5.689035e+00 3.295036e-01 5.600308e+00 1.846847e-01 5.654235e+00 1.571706e-01 5.756401e+00 1.597598e-01 5.880246e+00 1.687283e-01 6.028522e+00 1.812400e-01 6.207905e+00 1.979914e-01 
6.509413e+00 2.190811e-01 6.790141e+00 2.428595e-01 7.148840e+00 2.469199e-01 6.831484e+00 2.574552e-01 6.559633e+00 2.593435e-01 6.327251e+00 2.465593e-01 6.137357e+00 2.045931e-01 6.003874e+00 1.440629e-01 5.909399e+00 3.820346e-01 5.832941e+00 1.797691e-01 5.706039e+00 3.786007e-01 5.661702e+00 1.535801e-01 5.583224e+00 3.956257e-01 5.560023e+00 1.486312e-01 5.507371e+00 4.083387e-01 5.495046e+00 1.445946e-01 5.464922e+00 4.158754e-01 5.463412e+00 1.420011e-01 5.450520e+00 4.198886e-01 5.461760e+00 1.407633e-01 5.462703e+00 4.213182e-01 5.492363e+00 1.385230e-01 5.507866e+00 4.174156e-01 5.566556e+00 1.430916e-01 5.604679e+00 5.040441e-01 5.630115e+00 2.790051e-01 5.582587e+00 1.467573e-01 5.676561e+00 1.382483e-01 5.797717e+00 1.510116e-01 5.932465e+00 1.642267e-01 6.090157e+00 1.784061e-01 6.279703e+00 1.961391e-01 
6.581914e+00 2.337333e-01 6.873486e+00 2.580185e-01 7.246098e+00 2.624273e-01 6.919002e+00 2.782112e-01 6.635551e+00 2.935559e-01 6.381746e+00 3.173215e-01 6.136634e+00 3.608552e-01 5.841532e+00 3.682090e-01 5.533597e+00 -3.946766e-01 5.132894e+00 -1.723133e-01 5.178614e+00 -5.532951e-01 4.959459e+00 -1.876406e-01 5.012665e+00 -6.006809e-01 4.831553e+00 -2.023198e-01 4.902987e+00 -6.265144e-01 4.761287e+00 -2.088380e-01 4.843519e+00 -6.405511e-01 4.727335e+00 -2.133433e-01 4.822503e+00 -6.464018e-01 4.723026e+00 -2.163469e-01 4.836567e+00 -6.441868e-01 4.747982e+00 -2.156066e-01 4.891718e+00 -6.291865e-01 4.821498e+00 -2.217905e-01 5.032923e+00 -7.025999e-01 5.118362e+00 -3.256250e-01 5.524011e+00 -1.595108e-03 5.716459e+00 1.106803e-01 5.846946e+00 1.510364e-01 5.984046e+00 1.720498e-01 6.146609e+00 1.896347e-01 6.343276e+00 2.094053e-01 
6.643735e+00 2.329176e-01 6.945154e+00 2.574615e-01 7.330441e+00 2.621883e-01 6.994021e+00 2.807544e-01 6.700188e+00 3.012251e-01 6.430972e+00 3.367790e-01 6.157558e+00 4.044014e-01 5.809363e+00 4.267788e-01 5.452887e+00 -5.217554e-01 4.962886e+00 -2.023964e-01 5.031766e+00 -7.515839e-01 4.758869e+00 -2.404688e-01 4.834394e+00 -8.554819e-01 4.609515e+00 -2.751940e-01 4.703540e+00 -9.193298e-01 4.530667e+00 -2.944635e-01 4.632512e+00 -9.593295e-01 4.493675e+00 -3.096378e-01 4.606793e+00 -9.850289e-01 4.489539e+00 -3.241152e-01 4.621812e+00 -1.000901e+00 4.516010e+00 -3.359065e-01 4.682004e+00 -1.003394e+00 4.591617e+00 -3.603032e-01 4.831125e+00 -1.164017e+00 4.969835e+00 -5.530720e-01 5.535195e+00 -5.699530e-02 5.753229e+00 9.903097e-02 5.885135e+00 1.479199e-01 6.025137e+00 1.702883e-01 6.193117e+00 1.880329e-01 6.396809e+00 2.080211e-01 
6.694053e+00 2.453796e-01 7.003122e+00 2.688038e-01 7.397463e+00 2.737231e-01 7.057017e+00 2.885098e-01 6.760982e+00 2.967524e-01 6.498581e+00 2.970002e-01 6.265245e+00 2.823389e-01 6.063907e+00 2.433858e-01 5.917326e+00 2.949196e-01 5.720610e+00 1.663130e-01 5.625258e+00 2.082778e-01 5.498929e+00 1.035914e-01 5.463702e+00 1.568624e-01 5.363150e+00 6.428173e-02 5.362598e+00 1.205952e-01 5.282280e+00 3.593091e-02 5.307188e+00 9.360349e-02 5.244154e+00 1.409532e-02 5.288280e+00 7.212173e-02 5.241802e+00 -4.091810e-03 5.302660e+00 5.304757e-02 5.275166e+00 -2.093870e-02 5.355658e+00 3.365714e-02 5.355109e+00 -2.992476e-02 5.470011e+00 4.233009e-02 5.496416e+00 1.275708e-02 5.630267e+00 7.389333e-02 5.772649e+00 1.266824e-01 5.908533e+00 1.586721e-01 6.057013e+00 1.801475e-01 6.231368e+00 1.991323e-01 6.440838e+00 2.201751e-01 
6.733925e+00 2.434248e-01 7.049464e+00 2.660440e-01 7.451547e+00 2.711503e-01 7.106408e+00 2.845892e-01 6.806704e+00 2.871670e-01 6.545209e+00 2.700551e-01 6.328574e+00 2.129114e-01 6.187410e+00 1.373620e-01 6.076876e+00 5.241567e-01 6.059371e+00 3.075755e-01 5.845805e+00 5.194936e-01 5.831258e+00 2.467309e-01 5.688573e+00 5.118180e-01 5.705289e+00 2.202072e-01 5.596206e+00 5.062350e-01 5.626881e+00 1.997676e-01 5.545384e+00 4.989834e-01 5.589530e+00 1.837875e-01 5.528746e+00 4.895274e-01 5.588269e+00 1.702947e-01 5.544209e+00 4.769836e-01 5.625200e+00 1.560151e-01 5.598021e+00 4.580295e-01 5.710492e+00 1.509825e-01 5.696531e+00 5.434050e-01 5.770777e+00 3.150140e-01 5.699113e+00 1.584225e-01 5.793579e+00 1.475955e-01 5.928686e+00 1.639729e-01 6.081806e+00 1.810826e-01 6.260915e+00 1.984309e-01 6.475294e+00 2.187095e-01 
6.762140e+00 2.548263e-01 7.081760e+00 2.760696e-01 7.488384e+00 2.812436e-01 7.144270e+00 2.930993e-01 6.847091e+00 2.953341e-01 6.591320e+00 2.856144e-01 6.380669e+00 2.621033e-01 6.226625e+00 2.449668e-01 6.101199e+00 4.124017e-01 6.043343e+00 3.582140e-01 5.886062e+00 4.261204e-01 5.836955e+00 3.320571e-01 5.726690e+00 4.161248e-01 5.711745e+00 3.130785e-01 5.630473e+00 4.054590e-01 5.635614e+00 2.964719e-01 5.576887e+00 3.943888e-01 5.598830e+00 2.823443e-01 5.558031e+00 3.832173e-01 5.596214e+00 2.701408e-01 5.571239e+00 3.720059e-01 5.628221e+00 2.596015e-01 5.618751e+00 3.626119e-01 5.697214e+00 2.584867e-01 5.697670e+00 3.889165e-01 5.767037e+00 3.000704e-01 5.753798e+00 2.058161e-01 5.829984e+00 1.810282e-01 5.952573e+00 1.837922e-01 6.103187e+00 1.951701e-01 6.283544e+00 2.107757e-01 6.500377e+00 2.306171e-01 
6.780017e+00 2.519846e-01 7.102502e+00 2.721501e-01 7.512244e+00 2.773902e-01 7.167017e+00 2.883519e-01 6.869094e+00 2.899641e-01 6.613692e+00 2.833277e-01 6.402270e+00 2.769043e-01 6.234459e+00 2.929333e-01 6.095209e+00 3.587271e-01 6.023995e+00 3.709763e-01 5.888812e+00 3.852635e-01 5.825228e+00 3.638218e-01 5.725896e+00 3.763634e-01 5.696193e+00 3.509595e-01 5.625832e+00 3.659693e-01 5.618506e+00 3.387424e-01 5.570119e+00 3.553122e-01 5.580946e+00 3.271141e-01 5.550622e+00 3.441807e-01 5.578217e+00 3.155611e-01 5.564631e+00 3.325517e-01 5.610128e+00 3.050270e-01 5.612973e+00 3.243722e-01 5.675510e+00 3.049833e-01 5.687894e+00 3.277139e-01 5.753301e+00 2.863673e-01 5.774641e+00 2.261736e-01 5.847635e+00 1.969247e-01 5.965498e+00 1.915562e-01 6.115474e+00 1.978561e-01 6.297115e+00 2.106579e-01 6.515919e+00 2.288883e-01 
6.786293e+00 2.632544e-01 7.108952e+00 2.827685e-01 7.518902e+00 2.879979e-01 7.176466e+00 2.995297e-01 6.881455e+00 3.040617e-01 6.628378e+00 3.039376e-01 6.416503e+00 3.059060e-01 6.243525e+00 3.200223e-01 6.102501e+00 3.502023e-01 6.008331e+00 3.656519e-01 5.894347e+00 3.704601e-01 5.820102e+00 3.643925e-01 5.737346e+00 3.627371e-01 5.694509e+00 3.527241e-01 5.638720e+00 3.507650e-01 5.618797e+00 3.398241e-01 5.583625e+00 3.383921e-01 5.581941e+00 3.273210e-01 5.563791e+00 3.263637e-01 5.578323e+00 3.155212e-01 5.575887e+00 3.151004e-01 5.606598e+00 3.052977e-01 5.619368e+00 3.061981e-01 5.665712e+00 2.980203e-01 5.691445e+00 2.947168e-01 5.750703e+00 2.712135e-01 5.791824e+00 2.352322e-01 5.866460e+00 2.134219e-01 5.979110e+00 2.071718e-01 6.125014e+00 2.114664e-01 6.304563e+00 2.230210e-01 6.522467e+00 2.406299e-01 
6.782210e+00 2.595689e-01 7.103936e+00 2.783616e-01 7.512547e+00 2.835644e-01 7.170973e+00 2.950787e-01 6.876441e+00 3.006217e-01 6.623365e+00 3.034329e-01 6.409889e+00 3.094398e-01 6.233026e+00 3.229014e-01 6.090985e+00 3.420727e-01 5.986541e+00 3.561176e-01 5.881161e+00 3.613657e-01 5.801500e+00 3.603726e-01 5.725596e+00 3.577928e-01 5.675597e+00 3.527176e-01 5.626379e+00 3.486965e-01 5.599409e+00 3.427127e-01 5.570899e+00 3.383872e-01 5.562349e+00 3.319915e-01 5.551069e+00 3.273962e-01 5.558837e+00 3.207007e-01 5.563504e+00 3.160378e-01 5.587177e+00 3.096229e-01 5.607200e+00 3.052751e-01 5.646139e+00 2.976376e-01 5.681319e+00 2.859055e-01 5.736878e+00 2.648806e-01 5.789923e+00 2.386324e-01 5.868141e+00 2.193939e-01 5.979568e+00 2.113003e-01 6.123830e+00 2.128821e-01 6.302214e+00 2.221506e-01 6.519233e+00 2.380950e-01 
6.766503e+00 2.706969e-01 7.084552e+00 2.895279e-01 7.489009e+00 2.946317e-01 7.151434e+00 3.067243e-01 6.860831e+00 3.139282e-01 6.611077e+00 3.186752e-01 6.399909e+00 3.246735e-01 6.224554e+00 3.336844e-01 6.082839e+00 3.445200e-01 5.972096e+00 3.528074e-01 5.872650e+00 3.556892e-01 5.793116e+00 3.545690e-01 5.723683e+00 3.510842e-01 5.672557e+00 3.461736e-01 5.628430e+00 3.408431e-01 5.599480e+00 3.349924e-01 5.575006e+00 3.293084e-01 5.563675e+00 3.232981e-01 5.555428e+00 3.176145e-01 5.559457e+00 3.116418e-01 5.566083e+00 3.060710e-01 5.584940e+00 3.001140e-01 5.606326e+00 2.939940e-01 5.640636e+00 2.857099e-01 5.678618e+00 2.737995e-01 5.731743e+00 2.579281e-01 5.790201e+00 2.404193e-01 5.869968e+00 2.273337e-01 5.978798e+00 2.218436e-01 6.119113e+00 2.241117e-01 6.293606e+00 2.334298e-01 6.507020e+00 2.492951e-01 