# vtk DataFile Version 2.0
Comment goes here
ASCII

DATASET STRUCTURED_POINTS
FIELD FieldData 1
TIME 1 1 double
0.04400000
DIMENSIONS    64   64   1

ORIGIN    0.000   0.000   0.000
SPACING   0.03125 0.03125   1.000

POINT_DATA   4096
SCALARS uX double
LOOKUP_TABLE default

6.983042e-01 -1.230050e+00 3.822732e-01 -1.106955e+00 1.514463e-01 -1.014787e+00 2.246015e-01 -9.556827e-01 2.796767e-01 -9.197702e-01 2.971251e-01 -8.580746e-01 2.542937e-01 -7.433317e-01 1.434710e-01 -5.791876e-01 -9.508441e-03 -3.975548e-01 -1.652084e-01 -2.325715e-01 -2.942369e-01 -1.039027e-01 -3.823035e-01 -1.816987e-02 -4.344452e-01 4.499357e-02 -4.815285e-01 1.140046e-01 -5.416310e-01 1.928017e-01 -6.097487e-01 2.711075e-01 -6.760291e-01 3.398229e-01 -7.346770e-01 3.962678e-01 -7.874251e-01 4.442075e-01 -8.347747e-01 4.801645e-01 -8.640104e-01 4.849573e-01 -8.529482e-01 4.439334e-01 -7.993477e-01 3.684822e-01 -7.180589e-01 2.720427e-01 -6.240633e-01 1.664510e-01 -5.232338e-01 4.650283e-02 -4.077831e-01 -9.669029e-02 -2.702458e-01 -2.703857e-01 -1.009096e-01 -4.870581e-01 9.890696e-02 -7.298854e-01 2.975400e-01 -9.680785e-01 4.732268e-01 -1.199287e+00 
-6.165814e-01 3.728256e-01 -2.471281e-01 2.879565e-01 -6.999969e-03 2.355268e-01 -1.703493e-01 1.910157e-01 -2.800134e-01 1.680854e-01 -3.452596e-01 1.344472e-01 -3.643853e-01 7.274265e-02 -3.371868e-01 -1.710850e-02 -2.800642e-01 -1.172037e-01 -2.162308e-01 -2.091861e-01 -1.635996e-01 -2.827867e-01 -1.297939e-01 -3.334842e-01 -1.138766e-01 -3.728826e-01 -9.739398e-02 -4.177344e-01 -7.013689e-02 -4.690131e-01 -3.582420e-02 -5.183598e-01 -1.880222e-03 -5.591794e-01 2.860881e-02 -5.897127e-01 5.605000e-02 -6.125774e-01 8.195973e-02 -6.279611e-01 9.938632e-02 -6.260270e-01 9.522009e-02 -5.974579e-01 6.632462e-02 -5.482409e-01 2.199859e-02 -4.854401e-01 -2.948965e-02 -4.163798e-01 -8.304505e-02 -3.377057e-01 -1.410206e-01 -2.475841e-01 -2.042343e-01 -1.443912e-01 -2.779704e-01 -1.877626e-02 -3.617222e-01 1.194815e-01 -4.325432e-01 2.503689e-01 -4.781409e-01 3.823202e-01 
7.858381e-01 5.963676e-01 8.180186e-01 4.988226e-01 6.219272e-01 4.184241e-01 1.001996e+00 4.161398e-01 1.232005e+00 4.040823e-01 1.405307e+00 3.658790e-01 1.570794e+00 2.892759e-01 1.753366e+00 1.787404e-01 1.943595e+00 6.017438e-02 2.117335e+00 -4.213554e-02 2.258667e+00 -1.147932e-01 2.360847e+00 -1.520162e-01 2.429687e+00 -1.712838e-01 2.489285e+00 -1.954365e-01 2.554461e+00 -2.296306e-01 2.618253e+00 -2.665390e-01 2.673761e+00 -3.019683e-01 2.715921e+00 -3.349192e-01 2.747553e+00 -3.692923e-01 2.771148e+00 -4.007345e-01 2.780003e+00 -4.128572e-01 2.757324e+00 -3.920545e-01 2.702124e+00 -3.456678e-01 2.623472e+00 -2.848913e-01 2.530035e+00 -2.198438e-01 2.423891e+00 -1.468823e-01 2.297839e+00 -6.066702e-02 2.146030e+00 4.270664e-02 1.958140e+00 1.746932e-01 1.729267e+00 3.221342e-01 1.477764e+00 4.656671e-01 1.203622e+00 6.193693e-01 
2.636470e+00 -8.241492e-02 1.822440e+00 -1.158534e-01 8.696979e-01 -6.291194e-02 1.926016e+00 -4.612149e-02 2.556694e+00 -3.924685e-02 2.987026e+00 -2.324594e-02 3.296252e+00 1.088343e-02 3.520328e+00 6.144475e-02 3.686721e+00 1.144711e-01 3.813048e+00 1.585244e-01 3.915765e+00 1.882581e-01 4.003058e+00 2.019983e-01 4.080670e+00 2.079742e-01 4.139132e+00 2.183416e-01 4.176711e+00 2.337941e-01 4.197923e+00 2.506041e-01 4.209595e+00 2.653689e-01 4.212797e+00 2.783572e-01 4.207343e+00 2.911364e-01 4.190168e+00 3.048041e-01 4.165256e+00 3.119731e-01 4.139710e+00 3.062559e-01 4.114040e+00 2.901769e-01 4.079510e+00 2.672803e-01 4.029192e+00 2.413458e-01 3.956628e+00 2.117364e-01 3.862200e+00 1.807134e-01 3.746418e+00 1.491380e-01 3.610119e+00 1.082732e-01 3.446601e+00 5.978795e-02 3.228377e+00 9.016670e-03 2.928819e+00 -6.940583e-02 
2.629435e+00 1.677157e-02 2.003416e+00 -4.376825e-02 1.238803e+00 -1.925998e-02 2.063885e+00 -2.918779e-02 2.623200e+00 -1.297340e-02 3.024007e+00 1.408466e-02 3.324832e+00 5.087919e-02 3.555579e+00 9.469037e-02 3.736553e+00 1.350672e-01 3.874182e+00 1.678996e-01 3.982153e+00 1.894517e-01 4.065410e+00 2.006831e-01 4.133978e+00 2.046286e-01 4.183965e+00 2.096656e-01 4.219103e+00 2.152316e-01 4.241541e+00 2.216787e-01 4.257793e+00 2.271628e-01 4.266579e+00 2.342100e-01 4.270406e+00 2.428947e-01 4.263732e+00 2.541531e-01 4.249049e+00 2.616451e-01 4.225314e+00 2.625450e-01 4.193693e+00 2.546723e-01 4.147173e+00 2.406967e-01 4.084492e+00 2.203583e-01 3.999060e+00 1.969577e-01 3.893424e+00 1.740135e-01 3.768571e+00 1.534674e-01 3.622540e+00 1.307114e-01 3.447915e+00 1.069357e-01 3.224767e+00 8.071104e-02 2.936562e+00 3.032711e-02 
2.718260e+00 -6.606999e-02 2.201665e+00 -7.268018e-02 1.586878e+00 -7.630925e-02 2.195523e+00 -5.255882e-02 2.703881e+00 -3.434610e-02 3.085815e+00 -1.125184e-02 3.373898e+00 2.391075e-02 3.595013e+00 7.050504e-02 3.769154e+00 1.181408e-01 3.897508e+00 1.581725e-01 3.996321e+00 1.868673e-01 4.072154e+00 2.060903e-01 4.134824e+00 2.194241e-01 4.181002e+00 2.331014e-01 4.214593e+00 2.470141e-01 4.234941e+00 2.608026e-01 4.248028e+00 2.719114e-01 4.252695e+00 2.817946e-01 4.251797e+00 2.900097e-01 4.242089e+00 2.979072e-01 4.226430e+00 3.016459e-01 4.203996e+00 2.998979e-01 4.175600e+00 2.911432e-01 4.135512e+00 2.763696e-01 4.080397e+00 2.528498e-01 4.004188e+00 2.209651e-01 3.905416e+00 1.851966e-01 3.790383e+00 1.478111e-01 3.658035e+00 1.070797e-01 3.499653e+00 6.285779e-02 3.299287e+00 1.598401e-02 3.041817e+00 -3.536746e-02 
2.817634e+00 2.307962e-02 2.412172e+00 -2.475515e-03 1.927476e+00 -6.049923e-03 2.384454e+00 -6.561425e-03 2.799961e+00 3.065135e-03 3.133633e+00 2.444361e-02 3.398216e+00 5.763479e-02 3.612278e+00 9.952020e-02 3.791545e+00 1.390249e-01 3.919416e+00 1.702025e-01 4.021409e+00 1.891399e-01 4.094399e+00 2.020305e-01 4.157674e+00 2.081285e-01 4.200150e+00 2.151758e-01 4.236494e+00 2.198360e-01 4.256526e+00 2.268799e-01 4.275052e+00 2.315280e-01 4.280774e+00 2.390174e-01 4.286026e+00 2.446682e-01 4.277999e+00 2.529456e-01 4.268271e+00 2.568951e-01 4.245140e+00 2.595217e-01 4.218102e+00 2.543611e-01 4.173054e+00 2.444803e-01 4.116144e+00 2.223403e-01 4.031497e+00 1.948131e-01 3.928407e+00 1.676857e-01 3.813366e+00 1.438538e-01 3.683602e+00 1.220529e-01 3.530538e+00 1.005679e-01 3.342183e+00 7.676741e-02 3.108044e+00 4.640101e-02 
2.973145e+00 -2.533556e-02 2.638763e+00 -3.512932e-02 2.248856e+00 -3.854816e-02 2.583662e+00 -3.309544e-02 2.927601e+00 -2.237340e-02 3.222158e+00 -4.034927e-03 3.462901e+00 2.834147e-02 3.662711e+00 7.811822e-02 3.839497e+00 1.334591e-01 3.956489e+00 1.683007e-01 4.047119e+00 1.940941e-01 4.109518e+00 2.091843e-01 4.166006e+00 2.240239e-01 4.203440e+00 2.349202e-01 4.236686e+00 2.484219e-01 4.254034e+00 2.583348e-01 4.269398e+00 2.694656e-01 4.272313e+00 2.764515e-01 4.274174e+00 2.843957e-01 4.265003e+00 2.883381e-01 4.254676e+00 2.922051e-01 4.234783e+00 2.907420e-01 4.211569e+00 2.879170e-01 4.174895e+00 2.772380e-01 4.125238e+00 2.569274e-01 4.050774e+00 2.151548e-01 3.948884e+00 1.704528e-01 3.843089e+00 1.315190e-01 3.729834e+00 9.677439e-02 3.597759e+00 6.318131e-02 3.434930e+00 2.946294e-02 3.230738e+00 -3.044729e-03 
3.120240e+00 3.753987e-02 2.860515e+00 2.262648e-02 2.562058e+00 1.935416e-02 2.803748e+00 1.412503e-02 3.068043e+00 1.530490e-02 3.310546e+00 2.718369e-02 3.520710e+00 5.582527e-02 3.706747e+00 1.042569e-01 3.892654e+00 1.613172e-01 3.990444e+00 1.850956e-01 4.085410e+00 2.014173e-01 4.133832e+00 2.079511e-01 4.198896e+00 2.156101e-01 4.223517e+00 2.198589e-01 4.267484e+00 2.260150e-01 4.274101e+00 2.305476e-01 4.302564e+00 2.362544e-01 4.296418e+00 2.412514e-01 4.312726e+00 2.467830e-01 4.295465e+00 2.519556e-01 4.299644e+00 2.561909e-01 4.271049e+00 2.596286e-01 4.260441e+00 2.601346e-01 4.213479e+00 2.556965e-01 4.174048e+00 2.334806e-01 4.079126e+00 1.930881e-01 3.973176e+00 1.552051e-01 3.872738e+00 1.278747e-01 3.769216e+00 1.082322e-01 3.650532e+00 9.142297e-02 3.507375e+00 7.401886e-02 3.332952e+00 5.486291e-02 
3.293100e+00 3.808624e-03 3.087540e+00 -2.787832e-03 2.857230e+00 -5.788966e-03 3.020308e+00 -1.045600e-02 3.219801e+00 -1.147520e-02 3.415677e+00 -7.514326e-03 3.594060e+00 1.231029e-02 3.763728e+00 6.925114e-02 3.967700e+00 1.906336e-01 4.040773e+00 1.809605e-01 4.124162e+00 2.263817e-01 4.152792e+00 2.020501e-01 4.216179e+00 2.455987e-01 4.229491e+00 2.223104e-01 4.274863e+00 2.655270e-01 4.273467e+00 2.417800e-01 4.303459e+00 2.827042e-01 4.290888e+00 2.569952e-01 4.308671e+00 2.944240e-01 4.287648e+00 2.663289e-01 4.295159e+00 2.997075e-01 4.268292e+00 2.699868e-01 4.265842e+00 3.016632e-01 4.228738e+00 2.729921e-01 4.201326e+00 2.972119e-01 4.114938e+00 2.150014e-01 3.992294e+00 1.459457e-01 3.903303e+00 1.066162e-01 3.821380e+00 8.111416e-02 3.726942e+00 5.927228e-02 3.610650e+00 3.799019e-02 3.467298e+00 1.840890e-02 
3.455082e+00 5.168311e-02 3.305772e+00 4.544987e-02 3.143727e+00 4.272407e-02 3.242898e+00 3.281424e-02 3.380365e+00 2.352345e-02 3.527998e+00 1.691198e-02 3.672864e+00 2.586907e-02 3.822852e+00 7.186745e-02 4.072926e+00 2.578356e-01 4.067138e+00 1.805829e-01 4.189364e+00 2.508210e-01 4.161244e+00 1.835567e-01 4.276901e+00 2.532218e-01 4.231059e+00 1.937308e-01 4.333497e+00 2.596352e-01 4.272112e+00 2.042590e-01 4.363335e+00 2.665875e-01 4.291003e+00 2.145317e-01 4.372601e+00 2.733368e-01 4.292444e+00 2.243336e-01 4.364637e+00 2.788973e-01 4.279581e+00 2.349300e-01 4.343032e+00 2.886748e-01 4.249775e+00 2.557011e-01 4.294416e+00 2.844227e-01 4.125635e+00 1.918389e-01 4.006932e+00 1.274962e-01 3.935412e+00 9.976184e-02 3.871164e+00 8.817420e-02 3.794932e+00 8.014684e-02 3.701008e+00 7.129190e-02 3.587814e+00 6.128884e-02 
3.627655e+00 2.741968e-02 3.522101e+00 2.665105e-02 3.413038e+00 2.431879e-02 3.455577e+00 1.542062e-02 3.537795e+00 3.951454e-03 3.634308e+00 -1.735568e-02 3.733221e+00 -5.255566e-02 3.862308e+00 -7.818094e-02 4.219145e+00 4.498538e-01 4.089006e+00 4.038657e-02 4.267499e+00 4.003773e-01 4.139941e+00 2.780623e-02 4.337375e+00 4.174639e-01 4.197556e+00 4.348150e-02 4.384965e+00 4.385544e-01 4.231652e+00 5.994410e-02 4.408575e+00 4.546369e-01 4.246516e+00 7.383288e-02 4.413686e+00 4.638064e-01 4.247424e+00 8.368925e-02 4.405033e+00 4.644811e-01 4.240882e+00 8.934563e-02 4.394738e+00 4.637508e-01 4.238910e+00 1.016756e-01 4.399502e+00 5.359097e-01 4.164965e+00 1.908724e-01 3.997907e+00 8.002680e-02 3.961713e+00 6.312936e-02 3.928038e+00 5.917465e-02 3.877131e+00 5.280718e-02 3.808939e+00 4.365106e-02 3.725031e+00 3.430319e-02 
3.790322e+00 6.550928e-02 3.729213e+00 6.746778e-02 3.673279e+00 6.551172e-02 3.667512e+00 5.600696e-02 3.700590e+00 4.125531e-02 3.753573e+00 1.106825e-02 3.817523e+00 -4.598777e-02 3.906253e+00 -6.238179e-02 4.111302e+00 1.919080e-01 3.972828e+00 -9.798738e-02 4.190437e+00 2.030354e-01 4.027864e+00 -8.473774e-02 4.276325e+00 2.627202e-01 4.069354e+00 -6.072171e-02 4.333034e+00 3.113178e-01 4.093284e+00 -3.967952e-02 4.366592e+00 3.492080e-01 4.104806e+00 -2.061110e-02 4.384094e+00 3.812318e-01 4.107826e+00 -1.777833e-03 4.390507e+00 4.111690e-01 4.106771e+00 1.952954e-02 4.402177e+00 4.536649e-01 4.122401e+00 7.640900e-02 4.478266e+00 6.559554e-01 4.071485e+00 1.496500e-01 3.988546e+00 4.574405e-02 3.999746e+00 4.986148e-02 3.989223e+00 6.249123e-02 3.956306e+00 6.869564e-02 3.908992e+00 6.946085e-02 3.852280e+00 6.756522e-02 
3.954764e+00 4.803399e-02 3.929865e+00 5.415130e-02 3.916983e+00 5.265696e-02 3.869838e+00 4.815790e-02 3.858770e+00 4.367782e-02 3.857623e+00 3.433112e-02 3.821971e+00 -7.606623e-03 3.644784e+00 -1.716472e-01 2.832706e+00 -1.277594e+00 3.296907e+00 -6.301546e-01 2.925585e+00 -1.247496e+00 3.359660e+00 -6.133298e-01 2.953916e+00 -1.229826e+00 3.365221e+00 -6.044647e-01 2.964635e+00 -1.210744e+00 3.363345e+00 -5.906526e-01 2.974985e+00 -1.184779e+00 3.361144e+00 -5.720829e-01 2.990087e+00 -1.150388e+00 3.361385e+00 -5.472140e-01 3.015017e+00 -1.103051e+00 3.364363e+00 -5.161822e-01 3.045805e+00 -1.051666e+00 3.373873e+00 -4.941890e-01 3.099229e+00 -1.060789e+00 3.614308e+00 -3.649989e-01 3.960252e+00 -8.243666e-02 4.046506e+00 9.150762e-03 4.056846e+00 3.976247e-02 4.042313e+00 4.868898e-02 4.016781e+00 4.940362e-02 3.985966e+00 4.800192e-02 
4.110666e+00 7.911909e-02 4.121633e+00 8.824753e-02 4.151299e+00 8.715646e-02 4.065789e+00 8.434512e-02 4.013134e+00 8.429730e-02 3.964528e+00 8.998528e-02 3.863672e+00 7.869460e-02 3.585414e+00 -1.018907e-01 2.660733e+00 -1.383141e+00 3.098748e+00 -6.211365e-01 2.611444e+00 -1.496477e+00 3.142656e+00 -6.901403e-01 2.551358e+00 -1.619499e+00 3.138396e+00 -7.530494e-01 2.500174e+00 -1.707346e+00 3.133556e+00 -7.934068e-01 2.469233e+00 -1.760599e+00 3.133277e+00 -8.145839e-01 2.456695e+00 -1.787066e+00 3.138426e+00 -8.200979e-01 2.460825e+00 -1.792902e+00 3.146352e+00 -8.188687e-01 2.460580e+00 -1.810596e+00 3.150557e+00 -8.542244e-01 2.424942e+00 -2.011778e+00 3.542353e+00 -6.447389e-01 4.034889e+00 -1.505193e-01 4.124125e+00 -3.513088e-03 4.134330e+00 4.506689e-02 4.128867e+00 6.335902e-02 4.119912e+00 7.098535e-02 4.112241e+00 7.501026e-02 
4.262741e+00 6.646964e-02 4.304164e+00 7.723707e-02 4.369569e+00 7.654626e-02 4.256516e+00 7.283646e-02 4.179312e+00 6.840307e-02 4.121736e+00 6.264871e-02 4.065231e+00 5.308232e-02 4.007575e+00 4.967744e-02 4.103518e+00 1.361638e-01 3.857963e+00 -2.975779e-02 3.986260e+00 -4.236337e-04 3.841419e+00 -9.681570e-02 3.953012e+00 -8.798510e-02 3.834274e+00 -1.422697e-01 3.926736e+00 -1.509149e-01 3.829356e+00 -1.745889e-01 3.905718e+00 -1.979341e-01 3.826773e+00 -1.989225e-01 3.888715e+00 -2.367689e-01 3.827877e+00 -2.198633e-01 3.875318e+00 -2.751281e-01 3.835672e+00 -2.417532e-01 3.868219e+00 -3.202409e-01 3.861537e+00 -2.473174e-01 3.881432e+00 -3.248074e-01 3.939709e+00 -2.061823e-01 4.102610e+00 -6.267554e-02 4.168814e+00 8.320856e-03 4.195906e+00 3.942414e-02 4.210154e+00 5.231441e-02 4.222068e+00 5.776950e-02 4.237686e+00 6.135876e-02 
4.407366e+00 9.177164e-02 4.478276e+00 1.038877e-01 4.578228e+00 1.035755e-01 4.438671e+00 9.768420e-02 4.336717e+00 8.604167e-02 4.264382e+00 6.120309e-02 4.222759e+00 1.247304e-02 4.255184e+00 -3.669785e-02 4.584806e+00 5.562928e-01 4.346739e+00 8.362700e-02 4.514245e+00 4.983149e-01 4.291901e+00 4.164037e-02 4.517573e+00 4.947783e-01 4.285859e+00 2.555428e-02 4.527531e+00 4.945033e-01 4.284410e+00 1.445333e-02 4.534172e+00 4.924639e-01 4.284797e+00 6.642030e-03 4.538118e+00 4.884682e-01 4.287733e+00 5.871986e-04 4.541129e+00 4.814263e-01 4.297363e+00 -3.842118e-03 4.557503e+00 4.828787e-01 4.331622e+00 1.999472e-02 4.626466e+00 6.370570e-01 4.303961e+00 1.291914e-01 4.207376e+00 2.606437e-02 4.238363e+00 3.703261e-02 4.268846e+00 5.603187e-02 4.294122e+00 6.883222e-02 4.321625e+00 7.718677e-02 4.357417e+00 8.402288e-02 
4.544853e+00 8.306049e-02 4.641333e+00 9.590329e-02 4.771231e+00 9.598015e-02 4.613758e+00 9.191612e-02 4.496561e+00 8.532598e-02 4.416420e+00 7.552188e-02 4.375949e+00 6.452189e-02 4.397224e+00 6.998570e-02 4.553438e+00 3.008762e-01 4.453153e+00 1.756664e-01 4.502473e+00 3.143499e-01 4.403459e+00 1.683499e-01 4.487047e+00 3.280938e-01 4.388203e+00 1.675048e-01 4.483838e+00 3.399015e-01 4.380935e+00 1.672503e-01 4.483082e+00 3.481159e-01 4.377717e+00 1.662985e-01 4.484088e+00 3.531782e-01 4.378847e+00 1.640871e-01 4.488644e+00 3.567218e-01 4.387491e+00 1.634785e-01 4.503682e+00 3.705385e-01 4.407697e+00 1.770495e-01 4.537815e+00 4.198671e-01 4.387550e+00 1.862450e-01 4.295400e+00 8.327638e-02 4.304995e+00 6.206333e-02 4.335812e+00 6.201216e-02 4.372667e+00 6.563421e-02 4.416751e+00 6.981773e-02 4.472289e+00 7.515567e-02 
4.675517e+00 1.040134e-01 4.796318e+00 1.171307e-01 4.954435e+00 1.175548e-01 4.777956e+00 1.114915e-01 4.642574e+00 1.019508e-01 4.547541e+00 9.185833e-02 4.494481e+00 9.420186e-02 4.490493e+00 1.423688e-01 4.554409e+00 2.422163e-01 4.526244e+00 2.309082e-01 4.524222e+00 2.643833e-01 4.476640e+00 2.322205e-01 4.494789e+00 2.654706e-01 4.452131e+00 2.303278e-01 4.482552e+00 2.661058e-01 4.440436e+00 2.289623e-01 4.477973e+00 2.666055e-01 4.436149e+00 2.282136e-01 4.478871e+00 2.675593e-01 4.438400e+00 2.286859e-01 4.485987e+00 2.708441e-01 4.448944e+00 2.347581e-01 4.502407e+00 2.859444e-01 4.466035e+00 2.564869e-01 4.519244e+00 3.000585e-01 4.435720e+00 1.952537e-01 4.374904e+00 1.178895e-01 4.376673e+00 8.732095e-02 4.407439e+00 8.037378e-02 4.452290e+00 8.224893e-02 4.509504e+00 8.740995e-02 4.582164e+00 9.456170e-02 
4.797116e+00 9.840492e-02 4.939166e+00 1.121420e-01 5.122267e+00 1.129474e-01 4.931742e+00 1.099196e-01 4.782717e+00 1.060479e-01 4.674473e+00 1.055361e-01 4.605961e+00 1.180105e-01 4.576842e+00 1.582706e-01 4.587435e+00 2.143685e-01 4.568202e+00 2.292243e-01 4.546024e+00 2.479218e-01 4.513924e+00 2.434796e-01 4.503842e+00 2.564582e-01 4.479913e+00 2.481193e-01 4.480561e+00 2.608404e-01 4.461498e+00 2.506033e-01 4.469039e+00 2.633151e-01 4.453461e+00 2.516022e-01 4.466414e+00 2.643994e-01 4.454492e+00 2.518474e-01 4.472697e+00 2.658460e-01 4.465164e+00 2.545098e-01 4.488097e+00 2.717299e-01 4.482000e+00 2.571007e-01 4.503614e+00 2.583181e-01 4.471158e+00 1.940428e-01 4.431181e+00 1.334464e-01 4.435579e+00 9.978385e-02 4.470693e+00 8.550336e-02 4.525082e+00 8.163202e-02 4.595815e+00 8.337845e-02 4.684893e+00 8.901787e-02 
4.912173e+00 1.162097e-01 5.074089e+00 1.300429e-01 5.280146e+00 1.311799e-01 5.073998e+00 1.270470e-01 4.908878e+00 1.217057e-01 4.784547e+00 1.209388e-01 4.699101e+00 1.355119e-01 4.650624e+00 1.750083e-01 4.639909e+00 2.179913e-01 4.619785e+00 2.388934e-01 4.590294e+00 2.487594e-01 4.557795e+00 2.497222e-01 4.537674e+00 2.510207e-01 4.515330e+00 2.489423e-01 4.507150e+00 2.495070e-01 4.492329e+00 2.471919e-01 4.492232e+00 2.479316e-01 4.482859e+00 2.458743e-01 4.489092e+00 2.471933e-01 4.484760e+00 2.460542e-01 4.496917e+00 2.491227e-01 4.497709e+00 2.507600e-01 4.514516e+00 2.565216e-01 4.516373e+00 2.548505e-01 4.530187e+00 2.394040e-01 4.511648e+00 1.919199e-01 4.485969e+00 1.429931e-01 4.494493e+00 1.119381e-01 4.534440e+00 9.805582e-02 4.597108e+00 9.507396e-02 4.679341e+00 9.832943e-02 4.782807e+00 1.055946e-01 
5.016993e+00 1.126676e-01 5.196298e+00 1.271673e-01 5.422862e+00 1.286611e-01 5.204262e+00 1.269811e-01 5.026293e+00 1.247733e-01 4.888211e+00 1.271208e-01 4.787516e+00 1.422565e-01 4.721969e+00 1.761463e-01 4.691905e+00 2.168749e-01 4.658446e+00 2.359386e-01 4.619494e+00 2.474777e-01 4.582024e+00 2.494444e-01 4.555014e+00 2.536136e-01 4.529990e+00 2.525037e-01 4.515797e+00 2.554421e-01 4.500344e+00 2.534033e-01 4.495252e+00 2.557495e-01 4.487086e+00 2.530894e-01 4.489281e+00 2.550854e-01 4.487822e+00 2.522753e-01 4.496829e+00 2.546919e-01 4.502137e+00 2.527430e-01 4.516922e+00 2.552952e-01 4.526159e+00 2.479218e-01 4.540232e+00 2.320655e-01 4.535758e+00 1.887697e-01 4.522280e+00 1.444024e-01 4.539739e+00 1.143531e-01 4.588274e+00 9.897329e-02 4.660911e+00 9.387865e-02 4.754962e+00 9.546998e-02 4.872116e+00 1.019204e-01 
5.115374e+00 1.281736e-01 5.310559e+00 1.430980e-01 5.555515e+00 1.449061e-01 5.323087e+00 1.426877e-01 5.130387e+00 1.382611e-01 4.976977e+00 1.358096e-01 4.861684e+00 1.436644e-01 4.785143e+00 1.745427e-01 4.750903e+00 2.417091e-01 4.714880e+00 2.423401e-01 4.661835e+00 2.625814e-01 4.621319e+00 2.449196e-01 4.586284e+00 2.610786e-01 4.561288e+00 2.416733e-01 4.541324e+00 2.581192e-01 4.527369e+00 2.383489e-01 4.517921e+00 2.552190e-01 4.512483e+00 2.356041e-01 4.511324e+00 2.529232e-01 4.513730e+00 2.340204e-01 4.520117e+00 2.520602e-01 4.530798e+00 2.349372e-01 4.544295e+00 2.542877e-01 4.561461e+00 2.369002e-01 4.574980e+00 2.482269e-01 4.578670e+00 1.931693e-01 4.559461e+00 1.424008e-01 4.583254e+00 1.150925e-01 4.641034e+00 1.043315e-01 4.723185e+00 1.030754e-01 4.827598e+00 1.075131e-01 4.956673e+00 1.160347e-01 
5.202765e+00 1.258048e-01 5.411811e+00 1.414919e-01 5.673160e+00 1.436218e-01 5.429487e+00 1.431875e-01 5.225085e+00 1.398588e-01 5.059181e+00 1.362944e-01 4.930886e+00 1.389102e-01 4.842881e+00 1.594497e-01 4.810433e+00 2.668141e-01 4.748364e+00 2.327357e-01 4.693385e+00 2.757073e-01 4.635396e+00 2.325336e-01 4.607490e+00 2.750880e-01 4.565887e+00 2.321434e-01 4.555871e+00 2.743834e-01 4.525556e+00 2.312302e-01 4.528165e+00 2.727372e-01 4.506966e+00 2.294937e-01 4.519517e+00 2.700793e-01 4.507174e+00 2.270520e-01 4.528726e+00 2.666290e-01 4.526485e+00 2.248085e-01 4.557655e+00 2.646546e-01 4.565706e+00 2.246176e-01 4.602435e+00 2.609823e-01 4.593633e+00 1.900201e-01 4.578214e+00 1.359453e-01 4.614699e+00 1.105871e-01 4.684148e+00 1.014015e-01 4.776612e+00 1.005349e-01 4.891352e+00 1.048070e-01 5.031631e+00 1.132538e-01 
5.283721e+00 1.396672e-01 5.504992e+00 1.562806e-01 5.780676e+00 1.587013e-01 5.524995e+00 1.591110e-01 5.307061e+00 1.547500e-01 5.124898e+00 1.438780e-01 4.978951e+00 1.212676e-01 4.884799e+00 8.636665e-02 4.888802e+00 3.822931e-01 4.798022e+00 1.743069e-01 4.738580e+00 3.571980e-01 4.656226e+00 1.522141e-01 4.645557e+00 3.530826e-01 4.579256e+00 1.447392e-01 4.590914e+00 3.513298e-01 4.534407e+00 1.392585e-01 4.561572e+00 3.487096e-01 4.513652e+00 1.350435e-01 4.552515e+00 3.454588e-01 4.513793e+00 1.318470e-01 4.562314e+00 3.411164e-01 4.535326e+00 1.285418e-01 4.595930e+00 3.373189e-01 4.586468e+00 1.274486e-01 4.664591e+00 3.862516e-01 4.633154e+00 1.882544e-01 4.586843e+00 1.100131e-01 4.642918e+00 9.842038e-02 4.727023e+00 1.008619e-01 4.829036e+00 1.066711e-01 4.952301e+00 1.147486e-01 5.101897e+00 1.255481e-01 
5.353176e+00 1.378612e-01 5.585022e+00 1.552797e-01 5.873292e+00 1.579785e-01 5.607773e+00 1.602886e-01 5.379322e+00 1.575812e-01 5.185224e+00 1.467939e-01 5.025527e+00 1.200321e-01 4.911080e+00 8.099346e-02 4.880161e+00 3.022502e-01 4.750743e+00 1.009817e-01 4.709181e+00 2.822145e-01 4.600873e+00 8.735134e-02 4.609194e+00 2.905304e-01 4.513413e+00 8.618400e-02 4.548470e+00 2.982328e-01 4.460792e+00 8.567818e-02 4.515314e+00 3.027446e-01 4.435155e+00 8.497797e-02 4.504749e+00 3.048008e-01 4.433220e+00 8.389884e-02 4.515649e+00 3.045804e-01 4.455775e+00 8.148052e-02 4.554877e+00 3.053228e-01 4.514729e+00 8.541930e-02 4.647982e+00 3.777018e-01 4.588677e+00 1.522065e-01 4.582599e+00 8.837966e-02 4.664420e+00 8.802435e-02 4.761548e+00 9.578511e-02 4.872306e+00 1.035470e-01 5.003638e+00 1.121845e-01 5.161841e+00 1.232340e-01 
5.416083e+00 1.504142e-01 5.656856e+00 1.687677e-01 5.955743e+00 1.717025e-01 5.681696e+00 1.765662e-01 5.442963e+00 1.795574e-01 5.231594e+00 1.834544e-01 5.031086e+00 1.856794e-01 4.794355e+00 1.645464e-01 4.399756e+00 -4.533009e-01 4.298325e+00 -1.357529e-01 4.175982e+00 -4.895960e-01 4.178732e+00 -1.456186e-01 4.046034e+00 -5.117680e-01 4.080093e+00 -1.591337e-01 3.957694e+00 -5.291361e-01 4.018542e+00 -1.686757e-01 3.908422e+00 -5.387573e-01 3.989096e+00 -1.733597e-01 3.892419e+00 -5.407761e-01 3.987352e+00 -1.729306e-01 3.907030e+00 -5.352521e-01 4.012092e+00 -1.694148e-01 3.949568e+00 -5.328997e-01 4.065303e+00 -1.777603e-01 4.030632e+00 -6.090874e-01 4.263979e+00 -1.939524e-01 4.559874e+00 5.718095e-03 4.694693e+00 7.117790e-02 4.800211e+00 9.625103e-02 4.915438e+00 1.100010e-01 5.052154e+00 1.215818e-01 5.216962e+00 1.344729e-01 
5.467159e+00 1.486221e-01 5.715485e+00 1.674038e-01 6.023366e+00 1.705481e-01 5.741818e+00 1.768942e-01 5.494471e+00 1.826013e-01 5.271003e+00 1.928709e-01 5.048846e+00 2.072536e-01 4.766910e+00 1.906117e-01 4.286538e+00 -6.177615e-01 4.172119e+00 -1.731594e-01 4.022132e+00 -6.819846e-01 4.047227e+00 -1.942422e-01 3.869207e+00 -7.329130e-01 3.940493e+00 -2.191980e-01 3.764149e+00 -7.710410e-01 3.874461e+00 -2.370610e-01 3.704876e+00 -7.949231e-01 3.843977e+00 -2.481966e-01 3.684612e+00 -8.074253e-01 3.844124e+00 -2.535610e-01 3.699728e+00 -8.107787e-01 3.873134e+00 -2.563576e-01 3.743644e+00 -8.220845e-01 3.928922e+00 -2.780840e-01 3.816018e+00 -9.661517e-01 4.174439e+00 -3.192600e-01 4.570468e+00 -2.486677e-02 4.720049e+00 6.346504e-02 4.829139e+00 9.352128e-02 4.948474e+00 1.081307e-01 5.090391e+00 1.196653e-01 5.261249e+00 1.324718e-01 
5.511513e+00 1.598719e-01 5.765877e+00 1.784723e-01 6.080800e+00 1.817407e-01 5.795827e+00 1.864511e-01 5.546637e+00 1.869170e-01 5.327882e+00 1.827511e-01 5.133913e+00 1.692627e-01 4.962102e+00 1.387633e-01 4.841784e+00 1.594299e-01 4.671521e+00 7.910764e-02 4.610396e+00 1.001550e-01 4.501696e+00 4.514873e-02 4.478466e+00 6.919441e-02 4.396735e+00 2.353693e-02 4.395668e+00 4.736459e-02 4.334187e+00 7.535836e-03 4.349892e+00 3.129023e-02 4.305017e+00 -4.564694e-03 4.334470e+00 1.919008e-02 4.304720e+00 -1.408194e-02 4.346886e+00 8.959517e-03 4.333180e+00 -2.309336e-02 4.390352e+00 -2.159085e-03 4.398373e+00 -2.778919e-02 4.481597e+00 8.493913e-03 4.519047e+00 6.279533e-03 4.633839e+00 5.181601e-02 4.744244e+00 8.434605e-02 4.854614e+00 1.038273e-01 4.978499e+00 1.172900e-01 5.124840e+00 1.294879e-01 5.300361e+00 1.431405e-01 
5.543884e+00 1.575556e-01 5.803017e+00 1.757754e-01 6.123457e+00 1.791631e-01 5.834766e+00 1.830606e-01 5.582490e+00 1.807711e-01 5.363897e+00 1.687422e-01 5.180996e+00 1.378497e-01 5.054850e+00 8.667493e-02 5.042389e+00 4.184102e-01 4.905567e+00 1.645051e-01 4.832941e+00 3.837119e-01 4.715248e+00 1.330806e-01 4.707451e+00 3.774104e-01 4.610219e+00 1.209439e-01 4.633079e+00 3.748326e-01 4.548284e+00 1.121500e-01 4.592500e+00 3.709262e-01 4.518804e+00 1.043233e-01 4.579239e+00 3.649797e-01 4.517663e+00 9.613087e-02 4.591669e+00 3.560640e-01 4.545864e+00 8.637511e-02 4.637115e+00 3.487208e-01 4.615930e+00 8.499667e-02 4.736396e+00 4.244084e-01 4.697220e+00 1.744686e-01 4.673322e+00 9.688377e-02 4.761208e+00 9.666493e-02 4.871902e+00 1.071505e-01 4.999002e+00 1.175291e-01 5.148986e+00 1.283161e-01 5.328443e+00 1.412155e-01 
5.569565e+00 1.680761e-01 5.831804e+00 1.858945e-01 6.155921e+00 1.893343e-01 5.867443e+00 1.929173e-01 5.616686e+00 1.913234e-01 5.402087e+00 1.844999e-01 5.225045e+00 1.730586e-01 5.094655e+00 1.653507e-01 5.029295e+00 3.084845e-01 4.924773e+00 2.253194e-01 4.837188e+00 3.018172e-01 4.750820e+00 2.089764e-01 4.708116e+00 2.946279e-01 4.646518e+00 1.987564e-01 4.630318e+00 2.889908e-01 4.585059e+00 1.903437e-01 4.587666e+00 2.829816e-01 4.555675e+00 1.826748e-01 4.573114e+00 2.763609e-01 4.553897e+00 1.752020e-01 4.584655e+00 2.690855e-01 4.580167e+00 1.685045e-01 4.626249e+00 2.659924e-01 4.640120e+00 1.700916e-01 4.704319e+00 2.921582e-01 4.714251e+00 1.857654e-01 4.717135e+00 1.303492e-01 4.789875e+00 1.188198e-01 4.893242e+00 1.214937e-01 5.019082e+00 1.287828e-01 5.170123e+00 1.387595e-01 5.351569e+00 1.516572e-01 
5.583132e+00 1.651571e-01 5.847319e+00 1.823504e-01 6.173628e+00 1.858361e-01 5.884134e+00 1.889798e-01 5.632647e+00 1.873580e-01 5.418256e+00 1.826917e-01 5.241586e+00 1.807405e-01 5.104814e+00 1.973824e-01 5.010335e+00 2.580941e-01 4.921943e+00 2.455442e-01 4.826901e+00 2.652327e-01 4.753679e+00 2.396536e-01 4.694247e+00 2.598469e-01 4.647698e+00 2.336276e-01 4.613451e+00 2.551779e-01 4.585230e+00 2.280945e-01 4.569108e+00 2.499088e-01 4.555388e+00 2.220056e-01 4.553944e+00 2.434535e-01 4.553614e+00 2.149265e-01 4.565880e+00 2.358979e-01 4.580212e+00 2.082705e-01 4.607596e+00 2.320300e-01 4.638109e+00 2.099274e-01 4.679000e+00 2.379305e-01 4.711422e+00 1.875529e-01 4.733064e+00 1.453040e-01 4.801479e+00 1.284061e-01 4.902312e+00 1.257726e-01 5.028211e+00 1.297785e-01 5.180396e+00 1.378001e-01 5.363391e+00 1.494993e-01 
5.590096e+00 1.752743e-01 5.854432e+00 1.923192e-01 6.181141e+00 1.958014e-01 5.893516e+00 1.996077e-01 5.644282e+00 1.999729e-01 5.431939e+00 1.992555e-01 5.255609e+00 2.020251e-01 5.114491e+00 2.158248e-01 5.007412e+00 2.442488e-01 4.916632e+00 2.458978e-01 4.827482e+00 2.525210e-01 4.757279e+00 2.434540e-01 4.698021e+00 2.474233e-01 4.653562e+00 2.369677e-01 4.617642e+00 2.410766e-01 4.592031e+00 2.301439e-01 4.573380e+00 2.343743e-01 4.562538e+00 2.231550e-01 4.557977e+00 2.273611e-01 4.560317e+00 2.160294e-01 4.568915e+00 2.203575e-01 4.584886e+00 2.098335e-01 4.607358e+00 2.156891e-01 4.637845e+00 2.063758e-01 4.673713e+00 2.096042e-01 4.713218e+00 1.816994e-01 4.749259e+00 1.547509e-01 4.816992e+00 1.409900e-01 4.913988e+00 1.374904e-01 5.037239e+00 1.404575e-01 5.188071e+00 1.480011e-01 5.370494e+00 1.596060e-01 
5.584842e+00 1.715478e-01 5.848263e+00 1.880491e-01 6.173891e+00 1.915149e-01 5.887038e+00 1.953289e-01 5.638445e+00 1.964235e-01 5.426565e+00 1.976173e-01 5.249735e+00 2.030090e-01 5.105909e+00 2.163799e-01 4.993647e+00 2.335609e-01 4.900754e+00 2.406807e-01 4.814698e+00 2.444349e-01 4.744710e+00 2.428327e-01 4.686099e+00 2.427442e-01 4.641252e+00 2.394849e-01 4.605351e+00 2.387315e-01 4.579580e+00 2.348630e-01 4.560788e+00 2.336050e-01 4.550008e+00 2.291326e-01 4.545291e+00 2.272743e-01 4.547816e+00 2.222619e-01 4.556312e+00 2.200463e-01 4.572323e+00 2.152200e-01 4.594518e+00 2.134464e-01 4.624561e+00 2.079097e-01 4.660506e+00 2.002407e-01 4.702617e+00 1.796121e-01 4.747494e+00 1.585130e-01 4.816462e+00 1.450430e-01 4.912301e+00 1.396646e-01 5.034410e+00 1.405547e-01 5.184384e+00 1.463975e-01 5.366047e+00 1.567443e-01 
5.573006e+00 1.812270e-01 5.833697e+00 1.978064e-01 6.156456e+00 2.012077e-01 5.872774e+00 2.055881e-01 5.627495e+00 2.077935e-01 5.418431e+00 2.100748e-01 5.243373e+00 2.149189e-01 5.099761e+00 2.236853e-01 4.985045e+00 2.332814e-01 4.890569e+00 2.383773e-01 4.808057e+00 2.402084e-01 4.740233e+00 2.391915e-01 4.684274e+00 2.375016e-01 4.640570e+00 2.346480e-01 4.606110e+00 2.320661e-01 4.580912e+00 2.286678e-01 4.562833e+00 2.257518e-01 4.552170e+00 2.220691e-01 4.547534e+00 2.189212e-01 4.549596e+00 2.150515e-01 4.557468e+00 2.117978e-01 4.572213e+00 2.079301e-01 4.593077e+00 2.043988e-01 4.621472e+00 1.988436e-01 4.656575e+00 1.903342e-01 4.699448e+00 1.759340e-01 4.749090e+00 1.616630e-01 4.818526e+00 1.520747e-01 4.911999e+00 1.482515e-01 5.031035e+00 1.496830e-01 5.178029e+00 1.557725e-01 5.356906e+00 1.662955e-01 