# vtk DataFile Version 2.0
Comment goes here
ASCII

DATASET STRUCTURED_POINTS
FIELD FieldData 1
TIME 1 1 double
0.09700000
DIMENSIONS    64   64   1

ORIGIN    0.000   0.000   0.000
SPACING   0.03125 0.03125   1.000

POINT_DATA   4096
SCALARS uX double
LOOKUP_TABLE default

-7.557209e+01 1.748211e+01 -2.189693e+01 3.350995e+01 -2.189669e+01 4.591290e+01 -1.535835e+01 3.444262e+01 -7.594552e+00 1.795474e+01 -9.067486e+00 1.377437e+01 -3.769588e+00 -1.940330e+00 9.252419e+00 1.230049e+01 7.873519e-01 1.664931e+01 -3.087862e+00 6.709160e+00 -1.037534e+01 -2.618325e+00 9.508221e+00 -7.257569e-01 -5.894036e+00 -1.168876e+01 -2.299802e+01 5.621741e+00 -6.532869e+00 -2.968901e+00 1.363387e+01 -3.863678e+01 3.262174e+01 1.626424e+01 3.423510e+01 4.916674e+01 1.967535e+01 5.209827e+01 2.711137e+01 2.696651e+01 3.415501e+01 6.611497e-02 1.801191e+01 1.810741e+01 -1.966323e+00 1.983864e+01 1.269810e+01 6.629889e+00 -5.296238e+00 -4.543794e+01 8.109502e+01 -2.877365e+01 1.419977e+01 -5.003462e+01 7.442259e+00 5.068387e+01 5.664957e+00 3.336674e+00 -7.178096e+00 1.357784e+01 -3.160886e+01 -2.803655e+01 -8.486319e+01 3.662730e+01 
7.615951e+01 5.788685e+01 -1.945312e+01 3.910999e+01 -1.174859e+01 2.936949e+01 -6.116358e+01 -9.165583e+00 -3.863947e+01 -1.421750e+01 1.078666e+01 -1.184062e+01 -7.937086e+00 -2.771321e+01 -2.908104e+01 -6.126195e+00 -3.991794e+01 1.112957e+01 -1.009261e+01 -4.160872e+00 1.489807e+01 -1.701438e+01 8.820589e+00 -6.825039e+00 -8.620956e+00 4.956665e+01 -1.641197e-01 4.700622e+01 -1.016393e+01 2.735026e+01 1.476063e+01 1.022349e+01 2.201654e+01 -5.320069e+01 -1.470944e+01 -7.044650e+01 1.577042e+01 -6.056627e+01 -1.538319e+01 -2.940574e+01 -2.933401e+01 -4.172510e+00 -5.455952e+01 1.607580e+01 -2.778347e+01 -8.440993e+00 -2.318707e+01 -2.916047e+01 1.612321e+01 -5.997496e+01 -3.993814e-01 -1.032225e+02 8.344603e+01 -2.913874e+01 -4.544017e+01 -6.353242e+01 -1.714200e+00 -2.617143e+01 4.916373e+01 -2.066994e+01 4.964656e+01 8.884543e+01 8.100822e+01 3.082916e+01 
1.171427e+02 -1.349088e+02 -8.565053e+00 -4.742765e+01 -9.867046e-01 -5.028683e+01 9.115657e+01 7.274865e+01 3.736069e+01 7.349102e+01 9.710437e+00 6.019883e+00 6.376485e+01 4.784311e+01 2.507222e+01 4.883222e+01 6.863613e+00 4.404239e+01 -3.542376e+01 -1.841157e+01 -3.288311e+01 1.082175e+01 -3.984264e+01 1.626683e+01 -3.999043e+01 -2.543282e+01 -5.823645e+01 -2.255701e+01 -5.114522e+01 -2.299510e+01 -4.302305e+01 -2.990591e+01 -4.233530e+01 -5.003900e-01 6.359943e+01 2.928898e+00 2.829548e+01 -1.488212e+01 -7.199759e-01 7.870233e+00 -1.241304e+01 5.949729e+01 -1.137619e+01 2.396381e+01 1.908701e+01 -6.403248e+00 6.464927e+01 1.884724e+01 9.056263e+01 5.613156e+01 7.681525e+01 6.893551e+01 -7.115151e+00 6.317746e+01 2.128000e+02 -7.665791e+00 1.689476e+02 -4.812741e+01 -1.809316e+01 2.310478e+01 -6.535934e+01 -2.370876e+02 -1.132983e+01 -2.088581e+02 
-3.353047e+01 5.752023e+01 3.684164e-01 -9.435980e+01 -1.350570e+01 -1.090847e+02 1.187769e+02 6.336874e+00 -2.634297e+01 -2.058210e+01 -9.127505e+01 2.597759e+01 1.208276e+02 1.737309e+02 1.655120e+02 2.118137e+02 1.748441e+02 6.916015e+01 3.867425e+01 -5.163173e+00 -5.705654e+01 3.024141e+01 -6.874511e+01 -4.513852e+01 -1.083117e+02 -1.091443e+02 -6.668257e+01 -6.694861e+01 -3.739135e+01 -6.035973e+01 -1.093188e+02 -6.842729e+01 -9.742278e+01 6.123494e+00 8.331794e+01 1.028394e+01 3.498883e+01 2.544769e+01 1.027598e+01 2.730419e+01 6.295082e+00 1.498661e+01 -8.696550e+00 2.268578e+01 8.509995e+00 -1.346187e+00 7.224070e+01 2.605148e+01 -9.028385e+00 8.835432e+01 -4.257389e+01 -3.498631e+00 2.277973e+01 1.365456e+02 9.019883e+01 1.167956e+02 1.266774e+01 -1.060066e+02 1.556480e+01 -9.087609e+00 2.556534e+01 -9.435368e+00 3.442705e+01 -6.711418e+01 
-1.191437e+02 2.576114e+01 -1.068629e+01 -3.617960e+01 3.739091e+00 -5.113736e+01 8.301757e+01 9.417606e+01 8.507337e+01 4.608955e+01 -4.889157e+01 1.907618e+01 -2.743384e+01 8.376485e+01 1.328699e+02 -4.734611e+01 -2.589354e+01 -8.207388e+01 -8.692450e+01 -5.713975e+01 -6.174347e+01 -5.748265e+01 -1.000011e+02 -5.873682e+01 -1.188549e+02 -2.878151e+01 -8.945053e+01 -9.980132e+01 -1.130216e+02 -1.237737e+02 -8.900705e+01 -6.329613e+01 -9.093898e+01 -4.729493e+01 -3.074793e+01 -9.487359e+01 -1.851847e+01 -4.611839e+01 -1.121596e+01 2.988971e+00 -1.972746e+00 7.152433e+00 -2.798587e+01 3.849769e+01 -4.441603e+01 2.697042e+01 1.509330e+01 -3.415958e+01 5.662270e+01 1.936187e+00 -1.328489e+02 -8.522849e+01 -4.729537e+01 -1.390573e+02 -2.627250e+02 -1.313026e+02 -1.467474e+02 1.276374e+02 -1.441674e+01 -7.576800e+01 -1.034809e+01 1.680094e+02 5.621647e-01 1.797294e+02 
-1.694368e+02 -1.763531e+02 -4.105657e+01 -3.092788e+01 1.027929e+01 4.537268e+01 -8.121239e+01 5.771649e+01 1.499320e+02 8.815856e+01 1.389892e+02 3.470312e+01 6.512011e+01 2.671326e+01 1.492060e+02 1.320677e+02 1.107749e+01 1.160322e+02 2.015448e+01 3.170330e+01 1.029194e+02 -1.024040e+02 5.580377e+01 1.655683e+01 -3.852312e+01 -1.339356e+01 -9.115432e+01 -7.072248e+01 -8.154690e+01 -2.925382e+01 4.340436e+00 -7.428299e-01 -2.328349e+01 -1.352702e+01 -9.046839e+01 -2.009337e+00 -1.297787e+01 -1.937875e+00 -5.461273e+01 -2.439525e+01 -1.606872e+01 4.176885e+01 6.993715e+01 3.799748e+01 3.573374e+00 1.617148e+00 7.039587e+00 -6.317478e+01 2.558192e+01 -5.883331e+01 1.135134e+02 6.980320e+01 -1.620832e+02 -8.663430e+01 5.463789e-01 -2.391617e+01 8.865740e+01 9.933390e+01 1.149517e+02 -7.271077e+01 -1.438717e+02 4.526184e+01 -1.002715e+02 -6.668373e+01 
2.435725e+02 2.095370e+02 2.590508e+02 2.273260e+02 1.412035e+01 2.267362e+02 6.034375e+01 -2.577433e+01 6.638170e+01 2.114297e+01 1.470424e+02 1.199804e+02 6.296073e+01 -2.084615e+01 -1.533320e+01 -1.003811e+00 -9.653196e+00 -6.687626e+01 -5.394981e+01 -2.345145e+01 9.220614e-01 -1.871608e+01 -4.275021e+01 -2.002617e+01 -1.115538e+01 -8.648475e+01 -9.631873e+00 -4.707809e+01 1.593680e+01 6.326804e+01 1.796155e+01 2.392940e+01 8.842358e+00 -3.176831e+01 -1.086348e+02 1.763258e+01 -6.109987e+01 3.518503e+01 -4.391567e+01 4.532373e+00 -4.129250e+01 -3.540996e+01 -6.077498e+00 1.525272e+01 -8.627305e+01 -2.057408e+01 1.747707e+01 6.550044e+01 -7.725499e+01 -6.364135e+01 1.968677e+01 3.047200e+01 -7.465624e+01 1.439549e+02 6.439973e+01 1.231063e+02 -1.240248e+01 2.117237e+01 -2.924722e+01 -1.072235e+02 -1.047754e+02 1.369080e+02 -2.593696e+01 9.272989e+01 
1.048365e+02 7.193394e+01 -1.062950e+02 1.903785e+02 -4.373181e+00 1.054568e+02 1.899999e+02 1.806079e+02 1.065880e+02 4.548726e+01 5.834963e+01 4.249116e+01 -4.850378e+01 8.393588e+00 -1.134184e+02 -1.482935e+02 -5.408048e+01 -1.433224e+02 6.551046e+01 8.107746e+01 6.285550e+01 7.907270e+01 -7.344025e+00 8.495688e+01 5.095404e+01 3.385282e+01 6.858315e+01 4.037359e+01 1.295848e+02 1.178098e+02 6.634603e+01 5.905258e+01 6.209830e+01 3.952028e+01 4.965824e+00 -1.670688e+01 -1.036298e+01 -1.376044e+01 3.298831e+01 2.198825e+01 -1.634389e+01 5.920554e+01 -2.811916e+00 -2.925581e+01 5.351469e+01 9.200811e+01 -2.616900e+01 8.049340e+01 3.684795e+01 8.148245e+01 9.299643e+01 2.837844e+01 1.161393e+02 -2.229107e+00 -4.447155e+01 -1.006720e+02 4.394550e+01 8.943222e+01 -9.588507e+01 6.781850e+01 2.002275e+02 -4.494127e+01 1.706617e+02 2.294261e+02 
5.585319e+01 5.051533e+01 -1.530099e+02 -1.770852e+01 8.212809e-01 2.057891e+01 8.831185e+01 1.975486e+02 1.472831e+01 8.688490e+00 7.713113e+01 1.220903e+02 7.712014e+01 3.557874e+01 4.639330e+01 4.541877e+01 1.087119e+02 1.602103e+02 1.827475e+02 8.953643e+01 -7.275884e+01 -2.987929e+01 3.120657e+00 3.445222e+01 -1.182678e+02 -2.768914e+01 9.991019e+00 3.474682e+01 3.835892e+01 9.689434e+01 8.266161e+01 1.075537e+02 4.199927e+01 1.610595e+02 3.851388e+01 7.616099e+01 4.622409e+01 9.088255e+01 1.068885e+02 6.409886e+01 5.690238e+01 1.291817e+02 2.112124e+01 -9.519282e-01 4.162746e+01 6.347843e+01 -1.905402e+02 -2.010328e+01 3.168112e+01 3.388013e+00 1.059073e+02 -3.194960e+01 7.982505e+01 3.852942e+01 9.024288e+01 6.518759e+01 9.183492e+01 -6.106814e+01 2.261301e+02 2.220701e+02 1.689998e+02 -2.124649e+01 1.338869e+02 -1.009817e+02 
1.003721e+02 -8.726012e+01 1.397928e+02 -1.367502e+00 -1.712189e+01 2.295585e+00 -1.737841e+02 -4.187109e+01 1.112932e+01 1.483601e+01 6.213350e+01 5.291841e+00 1.461071e+02 1.202775e+02 1.038611e+02 6.957330e+01 5.281456e+01 8.783358e+01 -1.070930e+01 -6.491695e+01 -5.312755e+01 6.116103e+00 -1.590382e+01 -2.152619e+01 1.611373e+01 4.158666e+01 2.610862e+01 8.434897e+01 -1.996420e+00 1.505954e+02 1.495587e+02 1.112969e+02 1.138220e+02 1.920793e+02 1.705053e+02 3.293872e+02 1.316391e+02 1.867924e+02 1.139867e+02 2.564933e+01 6.718477e+01 -6.110563e+00 6.582898e+00 -4.412356e+01 -8.088238e+00 -6.897557e+01 -8.125296e+01 9.064675e+01 2.062432e+01 7.668341e+01 -1.049431e+02 1.246671e+02 -9.387245e+01 1.235835e+02 -1.365139e+02 1.114439e+02 -1.125305e+02 -5.922117e+01 -3.746887e+01 3.967478e+01 -9.484039e+01 -3.123227e+01 -4.365149e+01 -9.994653e+01 
-1.992535e+02 -1.783291e+02 4.651138e+01 -1.379724e+02 -4.390186e+01 -1.713763e+02 -2.090615e+02 -2.825392e+02 -9.096073e+01 7.181445e+01 1.314813e+00 -1.205381e+02 5.466617e+01 9.806507e+01 -6.438583e+01 1.369802e+02 -8.705514e+01 1.271600e+02 -3.470587e+01 6.255033e+01 1.436795e+02 1.182671e+02 6.450451e+01 2.620179e+00 1.269657e+02 1.349343e+02 3.559260e+01 6.635902e+01 -3.229480e+01 6.941184e+00 1.956784e+01 5.375055e+01 4.614445e+01 -7.898102e+01 -3.322050e+00 6.801411e+01 7.504622e+01 3.344348e+01 -7.912324e+00 2.332266e+01 -2.982437e+01 -5.551737e+01 1.110568e+01 -6.236355e+01 4.349312e+01 -4.430428e+01 6.654868e+01 7.639290e+01 -1.364559e+02 5.154601e+01 -2.346897e+02 1.013230e+02 5.317936e+01 -5.144096e+01 2.814830e+00 -8.307627e+00 4.802321e+01 3.665481e+00 -4.774046e+01 1.038820e+02 2.498104e+01 1.230276e+02 -1.884993e+02 1.117788e+01 
6.688194e+00 -2.558248e+02 -8.600371e+01 -2.517914e+02 -6.401644e+00 -2.100238e+02 -1.605213e+02 -2.664056e+02 -1.873626e+02 1.697558e+01 -1.204120e+02 4.876076e+01 6.933826e+01 1.161555e+01 -6.976895e+01 3.473797e+01 8.467809e+01 1.620481e+02 -3.655517e+01 2.581425e+02 2.468132e+02 1.720465e+02 1.353975e+02 8.902650e+01 7.582349e+01 1.475634e+02 9.425176e+01 2.076857e+02 1.039152e+02 -6.967784e+01 -4.413102e+01 -1.921245e+01 -7.911992e+01 -1.662627e+02 -4.640102e+01 -1.230387e+02 3.986740e+00 -1.176500e+02 -7.238198e+01 6.815624e+01 5.043772e+01 -3.129790e+01 5.122797e+01 4.110513e+01 8.080995e+00 6.663551e+00 1.350375e+02 -1.294965e+02 8.348124e+01 -1.249949e+02 -3.008132e+01 -1.194811e+02 2.060040e+02 -4.929462e+01 -1.841269e+01 1.024338e+02 -1.157166e+01 1.569456e+02 4.747016e+01 1.715816e+02 6.220330e+01 1.077952e+02 -1.141508e+01 -6.129672e+01 
-8.414280e+00 -5.089437e+00 8.304376e+01 2.179896e+01 3.768891e+01 5.560860e+01 1.353669e+01 -4.804401e+01 -2.840759e+02 -7.833793e+01 -1.310862e+01 2.333580e+02 -5.120320e+00 9.134765e+00 5.873152e-01 9.066518e+00 1.067901e+02 1.636785e+02 9.977242e+01 2.190483e+02 2.733288e+02 2.352947e+02 1.334026e+02 1.249515e+01 1.388839e+02 -3.144931e+00 5.715454e+01 2.778054e+01 2.483397e+01 -7.200629e+01 -1.004070e+02 -7.339639e+01 -1.123318e+01 -8.541862e+00 1.994312e+01 -1.063882e+02 -2.398605e+00 -1.284207e+02 -3.498382e+01 -3.289141e+01 1.065340e+02 -2.210970e+01 6.551595e+01 -4.453847e+01 3.231280e+01 2.617716e+01 7.163254e+01 -3.014976e+01 5.184426e+01 6.172358e+01 3.824256e+00 7.386737e+01 -6.400915e+01 1.092537e+02 -1.172670e+01 -5.627310e+01 -1.546391e+02 3.528690e+01 -1.870334e+02 -1.878162e+02 3.974874e+01 -1.117112e+02 1.294445e+02 -4.793112e+01 
-1.203308e+02 1.545411e+02 3.096031e+01 -1.180453e+02 -8.771890e+00 -1.137791e+02 -5.855470e+01 -1.990252e+02 -7.683123e+01 -1.314072e+02 -3.688109e+01 -1.580703e+02 -1.579967e+02 -6.169192e+01 1.423739e+02 1.334347e+02 1.971215e+02 2.140577e+02 1.800778e+02 4.847271e+01 4.575699e+01 8.760241e+01 1.505047e+02 4.569534e+01 4.871610e+01 -3.479117e+01 3.264445e+01 -6.295864e+01 -9.843658e+01 -2.665314e+01 -7.053374e+01 -6.136769e+01 -2.696758e+01 -1.085940e+01 -1.919454e+01 -8.233091e+01 -4.529807e+01 6.244880e+01 7.953226e+01 -3.689645e+01 -2.620972e+01 -8.214466e+01 -8.311239e+01 -7.069328e+01 1.074322e+01 1.106176e+01 -4.461108e+01 -5.292243e+00 -1.309898e+02 1.121839e+02 -1.534865e+01 -2.252045e+01 1.781391e+01 -5.454475e+01 1.878612e+02 -1.594064e+01 -4.995036e+01 7.417632e+01 -5.617653e+01 -1.549287e+02 -7.190145e+01 -6.967624e+00 -2.365531e+01 8.080504e+01 
1.629755e+02 2.691561e+01 -4.208649e+01 7.275972e+01 5.773355e+01 5.582023e+01 -1.385418e+02 1.421426e+02 1.258795e+02 -5.937153e+00 2.693604e+01 -2.515493e+02 -2.262692e+02 -1.801343e+01 -5.946746e+01 8.156747e+01 5.367044e+00 2.509710e+01 -7.055917e+00 -1.979192e+01 -1.317874e+02 -5.183232e+01 9.222345e+01 1.398596e+02 6.145650e+01 7.265811e+01 3.473588e+01 3.683269e+01 -1.664077e+00 6.470961e+01 1.131683e+02 5.908983e+01 1.001699e+02 -1.501441e+01 4.222677e+01 8.247449e+00 -2.575277e+01 -5.115678e+01 7.012011e+00 -1.112979e+02 -8.022215e+01 -2.922576e+01 -1.242526e+02 2.399641e+01 -7.989160e+01 -1.281981e+01 -2.796763e+01 -1.286937e+01 -2.658199e+01 9.285073e+01 1.178610e+02 -6.596299e+01 8.118964e+01 6.698029e+01 5.155763e+01 1.578856e+02 1.119189e+02 -7.466584e+01 3.068226e+02 1.340124e+02 2.114385e+02 7.339500e+01 1.014272e+01 9.108917e+01 
1.003527e+02 3.527368e+01 1.025032e+02 1.155595e+02 4.437784e+01 7.675767e+01 1.590565e+02 1.655513e+02 -1.048466e+02 5.831703e+01 -6.246641e+01 -4.983531e+01 -2.345440e+02 5.069482e+01 -1.914859e+02 -6.218893e+01 -1.577485e+01 -7.229651e+00 1.174387e+02 4.894650e+01 -1.270126e+02 5.411907e+01 -6.802132e+01 5.057382e+01 4.184683e+01 1.181092e+02 -2.563351e+00 -2.217192e+01 2.814436e+01 -1.598300e+01 -1.331376e+01 -3.899844e+01 2.502209e+01 -6.523818e+01 -1.068005e+02 -8.096716e+01 -1.214377e+02 -1.183422e+02 -8.900741e+01 -1.079394e+02 2.035184e+01 4.270669e+01 -2.286139e+01 5.130171e+00 -1.416557e+02 -4.847092e+01 -1.588400e+02 -1.115858e+01 -8.964881e+01 -3.001852e+02 4.025600e+01 -2.921471e+01 -2.225619e+02 -7.666350e+01 8.335667e-01 2.137504e+02 2.583044e+02 2.518888e+01 1.355071e+02 6.758383e+01 2.031965e+02 -4.847407e+01 1.110456e+01 8.927329e+01 
5.108294e+01 8.136881e+01 1.801535e+00 1.320002e+02 3.531893e+00 1.141639e+02 9.342920e+01 7.406845e+01 2.402806e+01 -3.117087e+01 -3.002335e+02 -1.956715e+02 6.993593e+01 -5.413627e+01 -7.226610e+01 -4.705411e+00 -4.522396e+01 -1.824220e+01 7.802714e+01 -2.142394e+01 -1.444950e+02 -5.623239e+01 -4.085377e+01 -5.395228e+01 -8.953937e+01 1.061665e+02 -4.777834e+01 4.602914e+01 6.709560e+01 1.844268e+01 8.864639e+00 -7.023101e+01 -3.826100e+01 2.230763e+01 -1.040563e+02 -9.845953e+00 -9.463133e+01 7.414881e+01 -8.177212e+01 1.992515e+01 9.621909e+00 2.432851e+01 -3.273679e+01 1.337474e+01 -3.158327e+01 1.328728e+00 -7.683158e+01 4.227086e+01 -8.864010e+01 -1.609799e+02 -1.932819e+01 -1.286497e+02 1.740793e+02 -3.369229e+00 -2.245176e+02 -4.030014e+01 1.711354e+00 -5.390637e+01 -1.147295e+02 -1.782307e+01 -2.352497e+02 5.014576e+00 2.610059e+01 1.083107e+02 
-2.789561e+01 1.030517e+02 -4.770774e+01 8.968453e+00 3.886140e+01 1.405975e+01 -7.591641e+01 1.604223e+02 1.393149e+02 -5.674964e+01 -1.318413e+02 1.776313e+02 1.699545e+02 -4.204013e+01 -4.266601e+01 1.840429e+01 -1.891900e+02 1.105554e+01 -2.127163e+02 -7.551161e+01 -1.730984e+01 -1.972639e+02 3.876330e+01 -6.669966e+01 3.851754e+01 1.607922e+01 -3.981979e+01 -2.283578e+01 -8.712568e+00 2.090883e+01 -2.346433e+01 1.147416e+02 4.513855e+01 1.750597e+01 -4.460049e+01 -1.942122e+01 -2.992715e+01 -1.950081e+01 -6.310392e+01 2.425397e+01 -3.795644e+01 2.471566e+00 -7.732867e+01 5.887324e+01 1.940898e+01 5.770246e+01 1.193830e+02 1.278332e+02 9.151148e+01 2.071576e+02 6.553526e+01 2.094492e+01 6.066486e+01 7.907014e+01 3.203118e+01 -6.970011e+01 8.801370e+01 -1.514601e+02 -3.805311e+01 1.628641e+01 -2.043890e+01 9.297736e+01 8.253069e+01 1.026467e+02 
3.128468e+01 9.643728e+01 -5.791998e+01 -1.267176e+02 4.643577e+01 -1.105777e+02 9.940613e+01 -1.136090e+02 1.393463e+02 -6.823060e+01 1.670080e+02 9.354298e+01 -3.605676e+01 6.814681e+00 -4.873850e+01 -6.961665e+01 -5.241267e+01 -1.358246e+01 -1.781364e+02 -8.151231e+01 -8.381640e-01 -9.064611e+01 -1.593687e+01 -1.159153e+02 5.881398e+01 -5.641666e+01 4.273804e+01 1.246607e+01 3.487507e+01 -1.167519e+01 -2.338441e+01 3.118950e+01 -5.680052e+01 -4.077264e+01 1.517481e+01 2.528552e+01 2.773712e+01 7.448078e+00 1.249083e+01 4.718708e+01 -2.033673e+01 -1.922900e+01 3.190582e+01 6.833641e+01 4.488273e+01 5.480144e+01 -3.367309e+01 -4.414953e+01 1.136153e+02 6.694787e+01 1.239010e+00 1.818174e+02 -6.794592e+00 -1.158871e+02 3.512770e+02 -7.462495e+01 -5.599584e+01 2.318559e+01 -8.479446e+01 -3.426621e+01 6.736045e+01 1.190777e+02 -1.120153e+01 1.715108e+02 
-4.783015e+01 4.987229e+01 -1.034691e+02 1.113695e+02 3.732387e+01 9.717445e+01 1.982430e+02 -1.364054e+01 1.239598e+02 -1.510842e+01 2.379798e+02 1.369192e+00 -7.755064e+01 -7.281808e+01 -6.341546e+01 -7.574056e+01 -5.080311e+01 -1.016223e+02 7.498628e+01 -1.039414e+02 1.812812e+01 9.459571e+01 -3.024946e+01 1.991110e+01 -2.608149e+01 -5.861958e+01 6.015547e+01 4.102594e+01 3.614420e+01 2.097259e+01 3.517090e+01 -9.240547e+01 -9.488428e+01 -2.953627e+01 -9.958734e-01 -5.113654e+01 -3.088623e+01 -4.730351e+01 -2.304244e+01 5.983209e+01 -8.365839e+01 1.942922e+01 5.203804e+01 -2.656780e+01 6.317163e+01 2.611233e+01 2.728585e-01 -8.687976e+01 2.207946e+01 -1.273259e+02 -9.089616e+01 2.394365e+00 4.410131e+01 9.661022e+00 -1.002106e+02 -1.253344e+02 -2.003078e+02 -4.728625e+01 9.428791e+01 1.342142e+02 8.997496e+01 2.035948e+02 1.269409e+01 -2.992521e+01 
-1.964792e+02 6.590752e+00 3.496598e+01 -3.620526e+01 -1.924116e+01 -4.207430e+01 -2.852586e+01 -9.267123e+01 3.310559e+00 -9.576181e+01 -9.816247e+00 4.805892e+01 -4.777742e+01 -1.563006e+01 8.277775e+00 1.345883e+02 2.252476e+01 -8.749897e+01 1.156103e+02 -1.273500e+02 -1.336098e+01 -2.264776e+01 4.045067e+01 8.662165e+01 1.718464e+00 8.346996e+01 8.166553e+01 5.891321e+01 1.897013e+01 7.331151e+01 -1.656165e+01 3.067773e+01 1.595163e-01 3.648541e+01 6.537303e+01 7.242178e+01 3.049960e+01 9.914722e+00 4.464966e+00 5.869987e+01 8.552070e+00 7.043929e+00 9.976909e+01 8.177945e+01 1.486420e+02 3.848282e+01 1.446744e+02 4.545907e+01 2.024915e+02 5.550090e+01 1.775122e+02 6.620190e+01 6.844271e+01 -6.855656e+00 2.039066e+02 1.605750e+02 2.881988e+02 2.775259e+02 1.615467e+02 1.485568e+02 3.880908e+01 -5.475468e+01 -2.948687e+00 -1.276075e+02 
7.165844e+01 1.053040e+02 1.384188e+02 3.492465e+01 3.744106e+01 5.310164e+01 3.770729e+01 2.567176e+01 -1.000569e+02 2.343371e+02 1.089250e+02 9.919988e+01 -2.331267e+01 4.271983e+00 6.209926e+01 -7.439438e+01 -9.057421e+01 -1.268077e+02 -6.102271e+01 -2.868496e+01 -1.138457e+00 -9.964840e+01 -4.402485e+01 1.761044e+01 -8.169201e+01 -3.736057e+01 7.942965e-02 -1.795366e+01 -4.800933e+01 2.570701e+01 -3.408948e+00 6.220674e+01 2.197327e+01 4.756110e+01 1.904002e+01 8.342700e+01 2.613340e+01 1.155681e+02 -1.286900e+01 2.278629e+01 2.277977e+01 -1.719769e+01 2.806240e+01 -6.716548e+00 3.163330e+01 -9.218461e+01 5.535386e+01 -4.349536e+01 6.506831e+01 2.198014e+01 9.821155e+01 2.490782e+01 -3.329627e+01 7.325502e+01 3.933423e+01 1.010134e+02 -9.777194e+01 8.685245e+01 1.502423e+00 1.880244e+00 -2.479845e+02 -6.850729e+01 -2.868303e+01 9.425334e+01 
-1.520119e+01 -1.192852e+02 -5.509788e+01 -2.934543e+01 5.972314e-01 -1.236531e+01 -5.421967e+01 4.571424e+01 1.207225e+01 1.872188e+02 4.918110e+01 -2.248569e+01 -1.018742e+02 8.817516e+01 -2.882813e+01 -1.177528e+02 -4.305540e+01 -4.303116e+01 4.446666e+01 1.627020e+02 1.610784e+02 -2.944251e+01 -1.705912e+01 3.095199e+01 7.275428e+01 1.117018e+01 1.810302e+01 3.973970e+01 5.454408e+01 5.928376e+01 5.066732e+01 3.111256e+01 8.576277e+01 3.520226e+01 1.021046e+01 -2.922606e+01 -1.513337e+01 7.695894e+01 5.208632e+01 3.976353e+01 2.934813e+01 6.056047e+01 5.968436e+01 4.018319e+01 1.094860e+02 1.428700e+02 9.047255e+01 2.556891e+01 6.393623e+01 -3.781150e+00 5.155693e+01 -8.453945e+01 6.575392e-01 -6.482517e+01 -9.578094e+01 -8.249603e+01 -6.345926e+00 1.477396e+01 2.240472e+02 -2.836005e+01 -1.034133e+01 2.272861e+01 8.438117e+01 1.202086e+02 
7.296433e+01 6.535987e+01 5.181119e+01 1.165485e+02 1.841953e+01 1.314500e+02 -4.667483e+01 1.007129e+02 8.701427e+01 -5.371108e+01 -1.408968e+02 -6.076120e+01 -6.943834e+00 -4.322238e+00 -4.835348e+01 -2.707407e+00 2.888409e+01 -6.681393e+01 4.025273e+01 5.719438e+01 -8.586221e+00 -4.430024e+01 7.461754e+01 -7.222475e+00 7.565908e+01 3.767714e+01 -2.752666e+01 2.006168e+01 -6.177256e+00 -4.319492e+00 4.203187e+01 -4.422468e+00 4.311076e+01 5.316646e+01 4.305943e+01 1.326048e+01 9.994180e-01 -2.380133e+00 5.048563e+01 -8.668796e+01 5.124363e+01 -8.605078e+00 5.105113e+01 6.217745e+01 5.312950e+00 3.729760e+01 5.683731e+01 -3.979879e+01 5.042516e+01 7.292560e+01 1.261445e+02 5.708443e+01 1.476833e+02 -7.637744e+01 2.123744e+02 -1.826422e+01 -2.255277e+00 4.723899e+01 1.618777e+01 -4.015235e+01 5.956136e+01 -4.108142e+01 7.484651e+00 -1.061241e+02 
1.794486e+02 2.333210e+02 2.694094e+01 1.336778e+02 1.517548e+01 1.050213e+02 1.078871e+02 1.457241e+02 -1.096497e+01 1.028208e+02 3.840930e+01 1.137022e+02 1.005310e+02 -1.231215e+02 5.693995e+01 -3.633189e+01 -3.333920e+01 -1.824822e+01 -5.522902e+01 -3.106829e+01 -5.855403e+01 7.803255e+01 4.275814e+01 4.160691e+01 -1.211202e+01 3.159593e+00 -4.570750e+00 -6.474400e+00 6.060892e+00 6.380238e+00 8.774823e+01 2.811734e+01 2.437219e+01 2.327303e+01 -1.247929e+01 4.515200e+01 1.141956e+02 1.267634e+01 4.944513e+01 -5.702297e+01 9.719428e+01 2.898772e+01 1.150572e+02 1.308009e+01 2.995852e+01 -4.374163e+01 1.100692e+02 7.212705e+01 -2.108033e+01 9.069117e+01 -1.662495e+01 4.861004e+01 9.352311e+01 1.782169e+02 -3.896534e+01 7.250577e+01 -6.829761e+01 7.700511e+01 -2.224438e+02 1.415245e+02 1.484132e+02 2.054762e+02 1.298412e+01 -2.620250e+01 
-7.357555e+01 4.650465e+01 4.953531e+01 1.572169e+02 1.808203e+01 1.356791e+02 1.208742e+02 6.015666e+01 8.790067e+01 2.052286e+02 1.187926e+02 1.157544e+02 9.321694e+01 1.203580e+02 3.168948e+01 -3.198690e+00 -1.591859e+01 1.642732e+01 -3.069156e+01 -3.207791e+01 -6.021561e+01 7.375839e+01 -1.162981e+02 1.138218e+01 2.178996e+01 1.647550e+01 4.499859e+01 3.887266e+01 6.884506e+01 9.061649e+00 1.797629e+01 1.347645e+01 1.211385e+01 2.639394e+01 3.556087e+00 -2.927601e+01 7.622716e+01 8.368620e+01 1.284352e+02 1.146859e+02 8.291041e+01 4.504203e+01 5.550252e+01 -2.560233e+01 6.783259e+01 3.688656e+01 -2.674129e+01 1.788156e+02 -3.735358e+01 6.961698e+01 5.225878e+01 8.862689e+01 5.577056e+01 1.440536e+02 -6.859504e+01 -8.905527e+01 1.188611e+02 -1.229062e+02 -4.553695e+01 -1.368857e+02 -1.912983e+01 7.676660e+01 4.434076e+01 5.904587e+01 
1.206357e+01 4.906238e+01 -7.344149e+01 9.551607e+01 1.626878e+01 1.120582e+02 4.597928e+01 1.001477e+02 3.053096e+01 1.612254e+01 2.484030e+01 8.702183e+01 1.353349e+02 1.657901e+02 5.581119e+01 8.311978e+00 8.304775e+00 -3.556237e+01 -4.092018e+01 1.602666e+00 1.388732e+01 7.102762e+01 -3.249992e+01 4.510004e+01 5.094878e+01 3.503621e+01 1.084388e+02 3.334158e+01 3.882793e+01 4.059613e+01 4.722764e+01 1.634075e+01 2.936808e+01 4.795852e+01 1.533866e+02 6.732739e+00 2.905687e+01 2.025910e+01 9.741634e+01 1.144369e+02 1.765455e+01 -3.064461e+01 -3.702161e+01 -1.028382e+02 -7.506530e+01 -7.049415e+01 -8.055112e+00 -4.032354e+01 -9.679954e+00 -7.159238e+01 1.423878e+02 -2.606135e+01 -2.003399e+01 -1.001418e+01 1.227175e+02 5.141253e+00 7.852602e+01 5.992530e+01 -1.251590e+01 1.270943e+02 -4.083002e+01 3.596881e+01 4.784740e+01 9.515739e+01 
-1.313563e+02 6.188686e+01 -3.237491e+01 8.876480e+01 8.879869e+00 8.881414e+01 -1.119547e+02 1.135141e+02 -5.440193e+01 1.863331e+01 4.475062e+01 4.162434e+01 4.672884e+01 4.029424e+01 9.582014e+01 1.374568e+02 7.620481e+01 4.932182e+01 -5.891062e+01 2.808147e+00 1.043352e+01 5.258195e+01 3.650192e+01 2.351098e+01 2.012831e+01 2.574816e+01 3.202492e+01 -1.190606e+01 3.759401e+01 5.578947e+01 1.807080e+01 -2.249330e+00 2.531135e+01 -1.970397e+00 5.648512e+01 8.373035e+01 3.347997e+01 -1.767735e+01 -5.689062e+01 2.217867e+01 -7.621892e+01 1.355497e+01 4.702793e+01 9.095187e+01 7.598455e+01 3.789995e+01 7.791703e+01 -4.422765e+01 3.083956e+01 -1.806240e+01 -5.413109e+01 -9.779105e+01 3.712331e+01 -1.160204e+02 1.134322e+02 -4.702502e+00 -5.452547e+00 -3.369268e+01 -1.218015e+02 6.570932e+01 1.700480e+01 -6.492267e+01 -1.390455e+02 2.755634e+01 
-1.979295e+00 -2.672605e+00 1.156195e+02 1.494017e+02 1.821298e+01 1.403368e+02 -1.014981e+02 1.196134e+02 3.562321e+01 1.219346e+02 1.764935e+01 7.146951e+01 8.380010e+01 6.400621e+01 1.447075e+02 8.076694e+01 1.099988e+02 1.071389e+02 7.860988e+01 6.739756e+01 4.446655e+01 4.299592e+01 6.389649e+01 5.836088e+01 2.694485e+01 7.976205e+00 -4.194319e+01 -1.158920e+01 2.014072e+01 -5.311488e+00 3.350008e+01 1.424275e+00 6.172575e+01 3.853086e+01 1.056600e+01 4.499810e+01 -4.278283e-01 -9.001552e+00 4.420773e+00 -2.953364e+01 2.557181e+01 3.598177e+01 1.683378e+01 3.156107e+01 3.735461e+00 3.305297e+01 3.775620e-01 -1.703611e+00 -4.382104e+01 1.536546e+01 -6.878849e+01 5.631345e+01 5.093119e+01 -1.073887e+01 -6.049352e+01 -3.002246e+01 5.647407e+01 -5.607882e+01 1.547447e+02 -1.153164e+02 5.008611e+00 6.131799e+01 4.031232e+01 -9.252203e+01 
5.700068e+01 4.846515e+01 -2.858201e+01 -3.784066e+01 9.920689e+00 -1.699697e+01 9.041598e+01 6.376064e+01 5.529422e+01 -2.626690e+01 1.346868e+01 5.888717e+01 9.435740e+01 1.094190e+02 1.228937e+02 9.642194e+01 1.127550e+02 8.575853e+01 1.084272e+02 2.652250e+01 2.323234e+01 3.082896e+01 2.938531e+01 -5.046198e+00 -1.077526e+00 -1.460386e+01 -3.559671e+01 -3.790390e+00 -1.352956e+01 -1.595281e+01 2.944303e+01 3.502976e+01 6.266191e+01 1.641982e+00 1.594944e+01 2.135806e+01 7.476509e+01 3.673630e+01 5.209375e+01 -9.934873e+00 1.129107e+02 2.070856e+01 5.893738e+00 -4.657144e+01 -4.757639e+01 -5.097232e+00 1.232184e+01 5.283054e+01 6.651299e+01 7.132290e+00 8.844939e+01 5.893801e+01 3.957724e+01 3.374086e+01 1.155272e+01 4.501076e+01 6.969829e+01 1.311025e+02 2.802297e+01 1.253718e+02 3.920055e+01 2.212900e+01 4.424253e+01 -8.451337e+00 
-4.141329e+01 3.999667e+01 3.755736e+01 8.138458e+01 2.423894e+01 7.829022e+01 5.756802e+01 2.765430e+01 4.603515e+01 3.701537e+00 3.645552e+01 6.380195e+01 5.073094e+01 5.464167e+01 9.997284e+01 8.213382e+01 1.335584e+02 3.358078e+01 7.631390e+01 2.600704e+01 5.044209e+01 3.366425e+01 3.555566e+00 -4.631614e+00 2.518071e+01 -1.488294e+01 1.022365e+01 7.688906e-01 -7.015721e+00 -3.222924e+01 -1.001495e+01 9.005578e+00 3.679010e+01 3.996061e+01 3.133989e+01 -1.067167e+01 3.709447e+01 -2.056246e+01 1.747543e+01 -1.920185e+01 4.730318e+00 -2.374792e+01 -1.429227e+01 2.813161e+01 1.219980e+01 -7.405462e+01 -4.865452e+01 -1.535152e+01 4.421017e+01 -4.119336e+01 -4.579337e+01 6.142979e+00 -6.990553e+01 7.512987e+01 2.288944e+01 8.001471e+01 -3.498037e+01 6.014651e+01 -9.881315e+01 1.173882e+02 -2.366082e+01 -9.400987e+01 4.482311e+01 8.448304e+01 
8.664339e+01 9.054376e+01 1.257335e+02 9.485295e+01 1.460897e+01 7.889646e+01 3.296662e+00 1.568336e+01 6.078511e+01 3.421765e+01 4.195416e+01 5.809344e+01 9.416251e+01 2.318992e+01 9.303828e+01 3.183304e+01 2.558848e+01 -6.048481e+00 3.635535e+01 1.217020e+01 2.338387e+01 4.002681e+00 1.587179e+00 8.012832e+00 2.205670e+01 2.574287e+00 2.775419e+01 -6.789804e+00 2.726715e+01 -2.711837e+00 1.581927e+01 -4.128295e+00 1.027705e+01 1.514349e+01 9.084707e+01 5.519075e+01 4.324186e+01 -1.118927e+01 4.675519e+01 4.026116e+01 4.340301e+01 -4.709047e+00 6.047889e+01 5.427186e+01 7.762857e+01 6.890588e+01 3.781405e+01 -4.616269e+00 2.502322e-01 3.641947e+01 -7.403493e-01 4.314638e+01 9.853197e+00 2.993675e+01 -2.561217e+01 4.834241e+01 7.896813e+01 8.258889e+01 1.202423e+02 5.873197e+01 8.722901e+01 7.136628e+01 1.180200e+02 1.174529e+02 
1.825754e+01 1.523229e+01 -2.331778e+01 -2.007876e+01 1.562143e+01 -9.528779e+00 3.730699e+01 -1.891841e+01 3.642511e+01 4.795567e+01 4.186608e+01 2.733167e+00 7.342252e+01 -4.118791e+00 4.410313e+01 -4.576574e-01 1.324684e+01 -2.642887e-03 3.295252e+01 1.154630e+01 3.187097e+01 1.138275e+01 1.255234e+01 1.249049e+01 1.003424e+01 3.021385e+01 2.324455e+01 2.789640e+01 2.405461e+01 -6.950097e+00 1.709768e+01 1.271321e+01 -2.772876e+00 5.455892e+00 -7.156825e+00 1.642134e+01 2.550728e+00 4.146101e+01 -2.440943e+01 5.042731e+00 1.215704e+01 3.278388e+01 4.541221e+01 1.739863e+01 4.330012e+01 2.887367e+01 1.381492e+01 -1.892735e+01 2.392402e+01 3.502425e+01 7.048888e+01 -3.347209e+00 6.796798e+00 -5.911930e+00 -2.419620e+01 8.831377e+00 -4.221496e+01 -1.248530e+01 4.190325e+00 -5.131756e+01 6.093032e+01 5.241546e+01 3.353249e+01 9.304650e+01 
1.047855e+02 -1.393912e+01 1.996310e+01 5.401671e+01 2.124805e+01 6.130696e+01 5.196067e+01 5.157922e+00 3.684189e+01 5.675914e+00 6.146141e+01 -3.574511e+01 -4.413884e+01 -4.771295e+01 -4.716360e+00 -4.890203e+01 2.124160e+01 -6.026211e+00 1.956912e+01 8.849693e+00 2.486745e+01 5.697492e+00 1.619595e+01 6.164877e+00 1.203375e+01 1.453104e+01 1.990254e+01 2.457348e+01 1.666082e+01 1.246244e+01 1.287273e+01 2.598966e+01 3.818274e+01 5.254027e+01 1.639120e+01 1.824475e+01 5.860442e+00 2.216962e+01 3.340900e+01 3.038473e+01 -4.962043e+00 7.099877e+01 3.241844e+00 5.982292e+01 5.417956e+00 4.095546e+01 -1.807052e+01 7.451905e+01 1.648080e+01 8.142424e+01 -3.694073e+01 5.953421e+01 -5.251003e+01 9.503140e+01 6.942567e+00 4.982737e+01 5.590721e+01 4.471184e+01 6.498755e+01 5.831532e+01 1.684489e+01 5.558664e+01 1.057894e+02 8.038806e+01 