# vtk DataFile Version 2.0
Comment goes here
ASCII

DATASET STRUCTURED_POINTS
FIELD FieldData 1
TIME 1 1 double
0.09600000
DIMENSIONS    64   64   1

ORIGIN    0.000   0.000   0.000
SPACING   0.03125 0.03125   1.000

POINT_DATA   4096
SCALARS Omega double
LOOKUP_TABLE default

8.525819e+03 1.264142e+03 -4.911866e+03 1.503474e+03 3.273799e+03 -1.345049e+03 -2.542689e+03 4.891178e+02 -2.906531e+03 -8.148028e+02 9.795978e+02 -1.798265e+03 1.044689e+03 2.293476e+03 -1.206557e+03 4.837241e+02 -6.641628e+02 -1.805615e+03 1.284284e+03 1.530084e+03 -9.444301e+02 1.712172e+02 -1.445947e+03 2.455789e+03 -4.226867e+02 -3.219473e+03 2.331449e+03 -1.708060e+03 9.341566e+02 1.337190e+03 -4.541851e+03 8.648197e+02 -8.344824e+02 -3.996325e+02 4.025575e+01 -3.875720e+02 2.129832e+03 1.484175e+03 -1.852939e+03 -8.932071e+02 1.527336e+03 2.767050e+03 -2.081149e+03 -4.809302e+02 3.779684e+03 -1.089300e+03 -1.794532e+03 9.571411e+02 5.371575e+03 -7.131502e+03 2.439365e+03 -4.958617e+02 -3.298114e+03 3.841679e+03 -1.539336e+03 -2.946198e+03 -1.399119e+03 -4.676867e+02 6.082810e+03 -3.068435e+03 -2.626308e+03 4.569421e+03 -3.088066e+03 -1.778466e+02 
-1.081460e+04 -9.616581e+02 5.947310e+03 2.031360e+03 -1.399521e+03 -3.825750e+02 5.664341e+03 -2.023069e+03 4.067396e+03 3.881034e+03 -3.192373e+03 -7.355311e+02 -1.864468e+02 1.534048e+03 9.840549e+02 -2.187303e+03 6.807467e+02 1.245967e+03 -2.487635e+03 2.634928e+02 6.456060e+02 -2.401972e+03 2.056621e+02 -2.442537e+02 -7.901522e+02 -1.039230e+03 -4.207637e+02 -1.760450e+03 3.408956e+03 -1.271593e+03 -2.212884e+03 4.053216e+03 8.350308e+01 -1.322986e+03 1.020420e+03 -3.253863e+03 4.857274e+02 -2.514947e+03 7.634738e+02 -2.302712e+03 -2.203588e+03 3.664526e+02 -4.531872e+02 -2.637074e+03 2.031382e+02 1.074629e+03 -1.359481e+03 -2.756484e+03 -2.095000e+03 3.137521e+03 2.906927e+03 4.038339e+03 -1.804029e+03 3.885550e+03 -6.427499e+03 5.198282e+02 3.367541e+03 -1.825633e+03 -4.707740e+02 -3.251986e+03 3.924820e+03 -7.755949e+03 2.834437e+03 -2.993772e+03 
-9.042448e+03 5.855807e+03 -2.791731e+03 -1.106775e+04 2.044030e+03 -4.230609e+03 -1.297958e+03 -8.188444e+02 -7.553394e+02 7.808238e+02 2.787797e+03 5.285231e+03 -4.027369e+03 -2.593259e+03 4.010541e+01 -2.965142e+03 8.013184e+02 1.961973e+03 -4.621715e+03 -1.477825e+03 -1.030119e+03 5.231873e+02 4.385776e+03 9.865730e+02 2.216062e+03 4.862248e+03 1.315870e+03 1.292581e+03 3.419153e+03 3.411440e+03 4.363280e+03 2.756979e+03 -7.858391e+02 5.124789e+02 3.211578e+03 2.164975e+02 -8.039530e+02 -3.167249e+03 1.790295e+03 -2.932790e+03 -8.393051e+03 -3.357277e+03 -1.884724e+03 -2.998830e+03 -4.247620e+03 -2.798361e+02 -1.383682e+03 9.494267e+02 1.376541e+03 6.538317e+03 -8.248073e+03 -2.840371e+03 3.817081e+03 4.358634e+03 -2.672683e+03 1.651998e+03 4.312611e+03 -3.364389e+03 -1.075978e+04 6.023990e+03 -1.738101e+03 1.111841e+03 -1.947370e+03 -6.102242e+03 
1.919545e+04 -7.133658e+03 -1.295007e+04 -4.355492e+03 4.393360e+03 -3.710296e+03 -5.910543e+03 1.848122e+03 -3.051358e+03 -6.382557e+03 1.336903e+03 3.553844e+03 -2.680103e+03 -4.333481e+03 -2.765547e+02 -4.136767e+03 -2.951458e+03 -6.511867e+02 -3.929206e+03 -1.655094e+03 1.936403e+03 -3.118907e+03 -7.956251e+03 -8.162283e+03 -1.516607e+03 1.202440e+02 3.937521e+02 1.478571e+02 -1.113951e+03 1.103751e+03 4.492647e+02 9.538418e+02 -1.550546e+02 1.226256e+03 -2.177054e+02 4.720102e+02 -3.056277e+03 1.716666e+03 2.839640e+03 -1.837187e+03 -1.573530e+03 2.894272e+03 2.980478e+03 -2.164870e+03 -4.683308e+03 -2.605872e+03 -1.354415e+03 2.413026e+02 -7.312604e+03 -4.733326e+03 1.101178e+04 -8.096970e+03 -1.805913e+03 -4.240240e+03 7.030330e+03 -1.945560e+03 -1.952738e+04 2.694903e+03 7.714316e+02 3.196347e+03 -3.035702e+03 2.736070e+03 -1.103703e+04 1.410197e+04 
-1.970420e+02 -1.384390e+03 5.440723e+03 4.932290e+03 -2.011774e+02 4.787604e+02 7.008629e+03 -4.272518e+03 -4.219124e+03 -1.255741e+03 -4.743316e+03 6.879071e+02 -1.528648e+03 -1.118365e+03 4.023601e+03 7.399602e+03 3.041040e+03 1.448336e+03 3.204741e+03 -1.420186e+02 6.315974e+03 4.135703e+03 -1.183333e+03 -1.636959e+03 -2.556252e+03 -5.152345e+03 -7.896257e+02 1.851702e+02 -1.195986e+03 -3.159824e+03 -4.443462e+03 -2.945924e+03 -2.176114e+03 -1.718188e+02 -3.339987e+03 1.574031e+03 -4.050604e+03 -2.630525e+03 -2.058777e+03 4.769285e+03 5.357532e+03 -3.766194e+03 -3.225896e+03 1.430562e+03 3.174747e+02 -6.540643e+03 6.885878e+03 -1.086791e+03 6.599937e+01 -6.861154e+03 -3.776059e+03 -3.000632e+03 -3.704395e+03 -8.537297e+03 4.998207e+03 -5.180188e+03 1.314204e+03 1.594700e+04 1.668724e+04 -1.076354e+04 -1.299772e+04 -1.679860e+02 1.252194e+03 8.272768e+02 
-3.087470e+02 -1.230984e+03 2.646879e+03 5.460389e+02 1.250263e+03 7.095560e+03 -2.824145e+03 -5.011653e+03 -6.959274e+03 -1.333114e+02 -1.686778e+02 -4.365625e+03 -1.285008e+03 7.498240e+03 2.281521e+03 -1.755418e+03 -5.165216e+03 -1.700705e+03 3.827196e+03 -2.932151e+03 3.990376e+02 2.544711e+03 2.221856e+03 6.955884e+03 7.004383e+03 3.053043e+03 -3.712402e+03 -3.701541e+03 -1.225418e+03 -2.846619e+03 -4.464178e+03 -5.461353e+03 3.736321e+02 2.475542e+03 -3.783692e+02 -6.867032e+02 -9.700053e+02 -2.630261e+02 -3.088822e+03 2.970510e+03 5.732483e+03 3.367103e+03 -1.368637e+04 2.871631e+02 1.063245e+04 -3.605376e+03 -3.927951e+03 3.514931e+03 2.376464e+03 -6.831159e+03 -4.325241e+03 1.340750e+04 -8.427508e+03 1.166404e+03 1.252806e+04 -1.297729e+04 7.407141e+03 1.211668e+04 4.611575e+03 -7.495063e+03 -1.366495e+04 -8.152449e+02 -9.423196e+03 1.143836e+04 
6.565163e+03 -2.890372e+03 -8.408451e+03 -3.202635e+03 9.986648e+02 4.432866e+03 -4.678677e+02 -6.124907e+03 3.005377e+03 -1.902693e+03 -3.711073e+03 -2.888734e+03 -9.050544e+03 4.092581e+02 7.525369e+03 -2.458772e+03 -2.195242e+03 -8.150271e+02 2.510526e+02 -7.438341e+03 -2.722336e+03 2.909089e+02 -1.248787e+03 6.711835e+03 -3.351087e+02 -5.350120e+03 -1.012034e+04 -7.375571e+03 1.807918e+03 2.946716e+03 1.037897e+03 -3.376854e+03 -3.937462e+01 -1.739953e+03 4.574790e+03 1.472727e+02 -1.839474e+03 9.626411e+02 1.885113e+03 6.863818e+03 6.714972e+03 8.378832e+03 3.341544e+03 -2.450004e+03 1.496900e+03 6.411916e+03 -4.810481e+03 1.375460e+03 -1.059530e+04 -2.742315e+03 6.452078e+03 -1.441333e+03 -1.410033e+03 -2.849779e+03 -1.871993e+03 -2.345796e+03 -8.718954e+03 1.066038e+03 8.065987e+03 -2.353915e+03 5.643104e+03 -3.948049e+03 2.117423e+03 1.716436e+04 
3.761837e+03 5.589696e+02 -6.268680e+03 1.517887e+03 -8.403634e+01 -1.630010e+03 2.808966e+03 4.368713e+03 1.049343e+04 -3.840636e+03 -9.062010e+03 5.965471e+03 -4.812732e+03 -3.476346e+03 1.052166e+04 1.061258e+04 8.391219e+03 8.077150e+03 -9.924493e+03 -1.118238e+04 -3.638697e+02 2.486036e+03 4.858893e+03 -5.123495e+02 -9.408306e+03 -5.164791e+03 -8.684365e+03 -8.309221e+03 1.072338e+03 1.895955e+03 -4.032650e+02 -1.667660e+03 -4.103693e+03 -9.293983e+03 -2.697303e+03 2.796498e+03 -2.866820e+03 -1.411457e+02 6.084851e+03 4.686929e+03 -7.285932e+02 -3.918218e+03 5.763276e+02 2.092060e+03 4.481400e+03 1.073817e+04 5.012496e+03 1.215141e+03 8.199261e+03 -8.501859e+03 -8.003746e+02 9.224722e+02 -9.869812e+03 -1.078453e+03 3.002453e+03 -7.992016e+02 -7.469883e+03 -1.360490e+04 -8.152312e+03 -7.403180e+03 1.387878e+04 1.222353e+03 1.667572e+04 -1.513816e+03 
-8.167128e+03 -4.878971e+03 1.155642e+03 9.027795e+03 2.621999e+03 6.605749e+03 -1.301037e+03 -7.641803e+02 -2.163356e+03 3.007968e+03 9.476070e+03 -2.620629e+03 -5.749811e+03 -6.945159e+02 1.253085e+02 -5.008768e+03 -6.745225e+02 8.750543e+03 8.834859e+02 5.227413e+03 2.247646e+03 -1.130731e+03 2.012888e+03 -1.337251e+03 4.647643e+03 8.611236e+02 -4.690260e+03 -2.323545e+03 3.492026e+03 -5.077153e+02 -5.096774e+03 -3.290623e+03 -5.033338e+03 -2.215626e+03 -5.425585e+03 -4.069670e+03 -7.978379e+02 -3.508383e+03 2.839147e+03 -3.893177e+03 -4.067453e+03 -5.621357e+03 -2.675199e+03 4.241178e+03 -5.048291e+03 4.562711e+03 1.020136e+04 5.244392e+02 9.699083e+01 -3.317726e+03 -5.639411e+03 1.776616e+03 -4.544949e+02 8.659916e+03 -1.248062e+03 -4.329663e+03 9.687752e+03 2.845000e+02 -1.365244e+04 -1.004164e+04 5.427027e+03 4.752798e+03 -6.137478e+03 -1.592230e+04 
1.227792e+04 5.781339e+03 3.348113e+03 1.990961e+03 -9.631902e+02 -3.471237e+03 -3.259394e+03 1.465060e+04 2.300467e+03 -1.089609e+04 -3.259751e+03 -8.516316e+03 -4.976792e+03 -8.970810e+03 -6.248172e+03 8.759992e+02 6.042297e+03 6.121949e+03 3.400215e+03 -4.533288e+03 2.320789e+03 4.628913e+03 6.672673e+03 8.083040e+03 6.731907e+03 -4.559860e+03 4.440242e+03 7.997299e+03 3.240888e+03 -5.287391e+03 -7.789826e+03 4.441397e+03 5.419922e+03 5.088247e+03 5.872446e+03 2.222507e+03 -3.334039e+03 -1.576890e+03 5.469829e+03 -2.512117e+03 -2.913358e+03 1.065409e+04 5.450100e+03 -6.008523e+03 -3.102060e+03 3.475401e+03 -2.446272e+03 3.385572e+02 -3.885791e+02 -6.852883e+02 -2.546681e+03 4.527830e+03 7.063201e+00 -1.622771e+04 -5.340607e+01 1.256896e+04 -3.772183e+03 7.606186e+02 -1.525193e+04 4.195417e+03 7.524202e+03 -8.377087e+03 -2.504690e+03 -3.389688e+03 
-8.288591e+02 -9.766766e+03 9.492232e+03 2.151001e+03 -4.661206e+03 -3.115454e+03 4.429367e+03 -2.402482e+03 -7.861572e+02 -1.932902e+03 -1.002604e+04 -1.645066e+03 -5.192079e+03 -5.428482e+03 2.322200e+03 2.823466e+03 -3.098665e+03 -7.043360e+03 -5.944701e+03 -1.680702e+03 1.363796e+03 -1.247960e+03 4.793772e+03 6.889981e+03 5.319625e+03 2.807195e+03 -3.922640e+02 -2.969090e+03 -1.828695e+03 2.106580e+03 4.674937e+03 1.941689e+03 2.433030e+03 2.306457e+03 -2.729966e+03 3.849153e+03 2.279219e+03 -8.471302e+02 2.830638e+03 6.999707e+03 -1.971156e+03 1.896929e+03 1.814638e+02 5.758914e+03 8.405823e+03 -5.723408e+03 -8.115277e+03 1.997331e+03 4.373286e+03 7.523411e+03 -6.089393e+03 -5.973392e+03 4.743171e+03 -4.777302e+03 2.460127e+03 -2.738038e+03 -8.136186e+02 1.587500e+04 -8.070268e+02 -3.959702e+03 9.346492e+03 -6.614637e+03 -1.116673e+04 -1.526394e+03 
-1.601230e+04 -3.719986e+03 6.402321e+03 -2.637362e+03 -7.654899e+03 -3.240722e+03 9.008702e+02 1.145468e+03 5.163078e+03 5.796774e+03 -7.617047e+03 -5.759380e+03 1.289399e+04 9.595948e+03 4.861039e+03 2.625425e+03 -3.244970e+03 -8.599275e+03 -9.584735e+03 1.057188e+02 2.646945e+03 1.464016e+03 1.151255e+03 4.063101e+03 1.933510e+03 1.405533e+03 -1.605656e+03 1.051671e+03 1.217660e+03 -9.397117e+02 -3.417636e+03 -3.776845e+03 1.398273e+03 3.515604e+03 -2.371302e+03 -4.679468e+03 3.394493e+03 -6.697256e+01 8.623969e+03 -4.061593e+03 1.048299e+02 5.667789e+03 -5.785234e+03 -4.629553e+03 -4.317112e+01 4.583569e+03 -6.530597e+03 -1.410216e+03 -1.811825e+03 -2.883996e+03 -1.944187e+02 -4.998732e+03 4.926781e+03 -1.530118e+03 -9.106716e+02 -1.707570e+03 5.740838e+03 1.445417e+04 1.727589e+03 9.245768e+03 -4.957044e+03 -8.364343e+03 -2.975399e+03 -7.037238e+03 
8.026333e+02 2.205632e+03 -7.368900e+03 5.405740e+03 -5.297411e+03 9.529942e+03 1.227570e+04 8.409917e+02 5.226188e+03 1.046896e+04 -8.610812e+02 -2.878137e+03 1.153971e+04 1.243712e+04 7.613561e+03 3.203555e+03 -9.015399e+02 -4.144517e+03 -2.127973e+03 -1.422957e+03 1.981601e+03 3.937313e+03 -1.256880e+03 -1.360428e+03 -1.457809e+03 -5.119030e+02 -3.674640e+03 -1.799349e+02 -6.648856e+02 -1.551214e+03 -1.481523e+03 -2.107581e+03 -3.693865e+03 5.772634e+02 6.430530e+03 -6.630896e+02 -2.411652e+02 -3.688616e+03 -3.304077e+02 -1.845113e+03 -1.306460e+03 8.080628e+02 3.020604e+03 -7.415476e+02 1.567915e+03 5.060315e+03 -9.771833e+03 -3.101107e+03 8.166207e+03 4.142832e+03 4.573374e+03 -1.301288e+04 -1.469274e+04 1.018030e+04 3.304807e+03 -7.133621e+03 -1.260748e+03 2.435362e+03 8.116634e+02 1.070470e+04 -1.639276e+04 6.564447e+03 1.629171e+04 3.264459e+03 
4.015761e+03 7.680252e+03 2.836295e+03 1.537105e+03 -1.824977e+03 5.208111e+02 3.299395e+03 -3.161587e+03 4.493955e+03 1.126586e+04 -2.359968e+03 3.026782e+03 4.988282e+03 9.959784e+03 2.693438e+03 6.683980e+02 3.913053e+02 -1.780091e+03 -8.668262e+02 1.269603e+02 -1.530640e+03 -2.942475e+03 -2.870780e+03 -1.449761e+03 -6.250809e+02 2.301320e+03 3.294513e+02 -6.098250e+02 -1.370708e+03 -1.635876e+03 1.922274e+02 3.979285e+02 -1.321494e+03 -1.911433e+02 2.624069e+03 2.475937e+02 -6.929888e+03 -6.154243e+02 -1.698328e+03 7.768913e+03 -4.595659e+03 1.551489e+03 5.007482e+03 -6.719683e+02 2.547070e+03 -1.731299e+03 9.922336e+02 7.861428e+03 3.552310e+03 3.771838e+03 5.702094e+03 7.793792e+03 -8.672290e+02 7.887603e+02 5.443147e+02 5.790221e+03 4.902288e+02 -1.490930e+04 7.396926e+03 6.715288e+03 -1.018507e+03 -3.086418e+03 -4.021708e+03 -6.321208e+03 
-4.201325e+03 -1.126527e+04 2.158246e+03 -2.550534e+03 -1.186363e+01 -1.070520e+04 -7.770428e+03 1.935517e+03 -1.715122e+03 -6.289678e+02 2.901312e+02 -4.091301e+03 9.694191e+03 2.055474e+03 -4.434188e+03 -5.197377e+03 -3.308572e+03 -4.278657e+03 -1.025749e+03 7.049787e+02 -1.417059e+03 -1.516675e+03 -3.087114e+02 4.179814e+03 3.623440e+03 2.728656e+03 2.934120e+03 -1.422564e+03 -2.083022e+03 -1.267341e+03 -3.251433e+03 1.419209e+03 2.442825e+03 -7.205427e+02 7.475738e+02 1.430920e+03 -4.690098e+02 5.147332e+03 2.969093e+03 4.605990e+03 -2.514544e+03 -4.836241e+03 5.906965e+03 2.803135e+03 -2.237389e+03 2.161863e+03 3.221950e+03 -2.104682e+03 2.525611e+03 -5.139320e+03 7.601424e+03 3.256201e+03 1.043982e+03 2.890589e+03 -1.376212e+04 3.998779e+03 8.206086e+03 -4.458139e+03 -5.406047e+03 -7.262953e+03 1.149706e+03 -6.783387e+03 1.096651e+04 8.337785e+03 
-9.465337e+03 1.911423e+03 -4.387825e+03 -5.366856e+03 -1.685174e+03 2.966264e+03 2.032456e+03 -4.902789e+03 -1.397473e+04 -1.070789e+04 -4.862706e+03 2.917433e+02 1.242468e+04 -6.114303e+03 -9.434425e+03 -6.780605e+03 -5.347466e+03 -3.538916e+03 -1.665176e+03 -2.431231e+03 -2.132015e+02 1.566496e+03 -1.031479e+03 -1.479545e+02 2.487087e+03 2.191599e+03 6.308381e+02 -2.315960e+03 -1.246407e+03 1.260131e+03 6.223937e+02 -4.114531e+03 -1.834830e+01 3.640074e+03 -7.703479e+02 -3.734364e+02 3.223860e+03 -4.791736e+03 -1.410956e+03 1.939745e+03 -3.027285e+02 -6.334932e+03 -1.030257e+03 9.536417e+02 -5.094069e+03 -1.534371e+03 2.086049e+01 7.587661e+00 -7.628751e+01 -3.302915e+03 3.213904e+03 -3.155553e+03 -3.688949e+03 1.601533e+04 -3.494451e+03 -5.171916e+03 6.259739e+03 -1.031258e+03 -3.540527e+02 -5.369379e+03 4.566161e+03 6.842137e+03 8.612974e+03 -1.142864e+02 
1.804279e+04 1.335538e+04 -8.762427e+03 -2.388189e+03 -2.493457e+03 5.333481e+03 3.489760e+03 -4.029148e+02 -9.266162e+02 -2.264894e+03 -7.317450e+03 1.803050e+03 -2.644576e+03 -8.197355e+03 -5.593095e+03 1.508201e+03 1.805515e+03 -1.682500e+03 -3.937416e+03 -9.088305e+02 1.067919e+03 -1.446351e+02 -2.907463e+02 -8.790168e+00 4.317084e+02 -5.384457e+02 -1.950175e+03 -1.134933e+03 1.232383e+02 1.814935e+02 2.401742e+03 -5.011540e+02 -1.799382e+03 1.102568e+03 3.726353e+03 1.683728e+03 -2.409450e+03 -2.644658e+03 -1.560460e+03 1.433861e+03 2.723952e+03 -1.050205e+03 -1.379597e+03 -6.017819e+02 2.545757e+03 -2.247733e+03 -1.679958e+03 -2.117282e+03 -8.261430e+02 3.472932e+03 -2.721324e+03 -2.427049e+03 -6.758076e+03 -5.629616e+03 1.053908e+04 7.085068e+03 3.124474e+03 -6.500524e+03 4.728926e+03 7.524436e+03 1.557668e+04 8.822746e+03 -1.605235e+04 -8.463134e+03 
1.664970e+04 -4.209483e+03 -1.384554e+03 1.360756e+02 -5.598942e+03 2.787223e+03 4.333341e+03 6.610507e+03 5.070772e+03 -3.100165e+03 -6.690600e+03 2.860795e+03 -1.577543e+03 -3.550904e+03 1.505101e+03 5.774185e+03 3.500689e+03 -1.202335e+03 -3.362568e+03 -1.438097e+03 2.657393e+01 -4.022751e+01 -3.688252e+02 1.972638e+02 7.633914e+01 3.357026e+01 -4.817467e+02 -3.468040e+02 4.287945e+02 -2.134614e+02 -1.302281e+02 2.630381e+03 -1.930107e+03 -3.794989e+03 -1.025239e+03 1.048447e+03 4.494546e+03 1.239435e+03 2.822468e+03 1.436895e+03 -2.334445e+03 1.445732e+03 6.023648e+03 -7.287458e+02 3.238648e+03 4.277623e+03 1.268327e+03 2.207437e+03 3.672204e+03 7.726591e+01 -1.842212e+03 8.502974e+02 -1.806047e+03 -2.720526e+03 4.073115e+03 -1.662097e+03 1.980373e+03 -2.574120e+03 -7.690218e+03 6.866037e+03 1.280855e+04 8.976616e+03 5.974570e+03 1.563439e+04 
-1.148360e+04 8.901533e+02 5.899640e+03 1.072696e+03 -7.455854e+03 2.934246e+03 5.306534e+03 4.223955e+03 5.452026e+03 3.072593e+03 9.397640e+02 2.498950e+03 -2.415065e+03 -8.886018e+02 2.198478e+03 3.400452e+03 3.487441e+03 2.530286e+02 -1.353988e+03 -8.513611e+02 -5.707613e+01 5.103351e+01 -4.076542e+02 -4.823215e+02 -2.590340e+02 2.172665e+02 3.092631e+02 -5.864870e+02 -4.558866e+02 4.666657e+02 1.312066e+02 -8.601621e+02 -1.303750e+03 -1.105544e+03 -5.620868e+02 -2.557209e+03 -1.244144e+03 1.221341e+03 1.183237e+03 2.671133e+02 -6.834640e+02 -2.042154e+03 -1.309971e+03 2.240084e+02 1.725260e+02 1.350194e+03 -1.455051e+03 1.351692e+03 2.228893e+03 7.010790e+01 -3.154021e+02 -2.727731e+03 6.996004e+02 2.267256e+03 -2.032782e+03 1.964737e+03 -8.325349e+02 -1.815961e+03 -4.967747e+03 -3.112367e+02 1.050342e+04 1.352145e+04 5.427395e+03 1.427071e+04 
-1.693728e+03 1.388740e+03 1.067877e+04 4.135917e+03 -7.493783e+03 4.708926e+03 2.822007e+03 1.126186e+03 5.568462e+03 2.728104e+03 2.663318e+03 1.125716e+03 4.610136e+02 -4.140225e+02 -2.588019e+02 5.080204e+02 2.151330e+03 1.031482e+03 -4.160741e+02 -5.521241e+01 2.307896e+02 8.426189e+01 7.800265e+01 -1.602328e+02 -1.036648e+02 -3.910035e+00 5.414829e+02 3.809591e+02 3.073398e+02 -9.217917e+02 -1.122158e+03 3.534836e+02 1.676738e+03 1.467297e+03 -1.114126e+03 -2.205426e+03 -2.192245e+03 -4.922584e+02 -2.661483e+03 -5.043798e+02 1.139831e+03 -4.255344e+03 -3.896994e+03 -2.307698e+03 -3.360137e+03 1.914160e+02 -1.067885e+03 -2.220338e+02 1.941221e+03 9.915499e+02 5.978999e+01 -3.768457e+02 -9.270646e+02 3.459303e+03 5.551799e+02 -2.998471e+03 -3.618500e+03 -4.650596e+03 -5.699737e+03 -2.943048e+03 5.623771e+03 4.077902e+03 -9.264512e+03 5.838397e+03 
1.419374e+04 -9.703366e+03 9.393740e+03 -1.382380e+03 -1.045058e+04 1.567037e+03 4.801992e+02 -1.926475e+01 3.337272e+03 3.535660e+02 2.064101e+03 -7.604932e+01 1.963561e+02 2.521167e+02 -2.524744e+02 -2.456341e+02 6.781236e+02 4.504161e+02 -6.282624e+01 -2.187061e+01 1.338893e+01 1.700877e+01 -7.664561e+01 7.827556e+01 -5.867959e+01 1.020370e+02 -1.110296e+02 -2.953991e+02 -5.242634e+01 8.097337e+02 9.170309e+02 1.284432e+02 -3.811290e+02 5.081966e+01 4.078830e+02 1.990885e+03 2.896025e+03 9.791119e+02 1.227595e+03 1.125602e+03 2.374569e+02 5.287074e+02 1.934668e+03 2.121434e+03 2.608087e+03 -1.985202e+02 4.937984e+02 -1.297952e+02 -1.435263e+03 3.922867e+02 4.798778e+01 3.579650e+02 -1.431819e+03 -1.361481e+02 1.312355e+03 -2.452253e+03 -7.160253e+02 2.867941e+02 -5.295052e+03 -2.689790e+03 -2.156381e+03 -1.569384e+03 -2.998412e+03 1.184141e+02 
9.850650e+03 -2.012008e+03 -3.645308e+03 -5.080700e+03 -6.068224e+03 -3.186198e+02 -4.623838e+02 6.334923e+02 -1.241137e+03 3.652569e+02 2.065358e+03 -7.942399e+02 2.378485e+02 9.065414e+01 -8.966196e+01 -2.509260e+02 1.475910e+02 4.557277e+01 -8.851302e+01 1.153796e+01 2.645934e+01 2.887728e+01 2.755226e+00 -2.641911e+01 -1.251245e+01 -1.992746e+01 1.131622e+02 2.004863e+01 -3.378855e+02 -2.927680e+02 7.238460e+01 3.360579e+02 5.496151e+02 -8.974118e+01 -3.862177e+02 -1.027791e+03 -2.124877e+02 -2.112753e+02 1.080438e+02 4.050934e+02 -3.973963e+02 1.035322e+02 1.174966e+03 9.841651e+02 1.136565e+03 3.705946e+02 -3.502142e+02 -6.237217e+02 2.897884e+02 4.643885e+02 2.450255e+02 -1.368831e+03 -1.399529e+02 1.604018e+03 9.010862e+02 -3.031744e+02 2.646080e+03 3.006031e+03 3.126647e+03 -1.622506e+02 -2.362471e+03 2.293861e+03 1.230426e+03 -2.611033e+03 
9.267829e+03 9.306497e+03 -5.048788e+03 -5.662630e+03 -4.719462e+03 4.236523e+02 -9.873830e+02 2.227244e+03 -1.886822e+03 -2.034250e+03 1.630931e+03 -5.535016e+02 9.191381e+01 3.427542e+01 4.290996e+01 -1.029905e+02 2.218971e+01 -2.630592e+00 -1.249525e+01 -6.869320e+00 1.440609e+01 -2.111706e+01 1.383021e+01 3.812379e+00 4.001761e+00 -1.774021e+01 -2.584580e+01 1.736008e+00 1.049276e+02 -7.410276e+01 -1.575042e+02 -3.073378e+02 -3.983841e+02 -6.680579e+02 -1.382007e+03 -1.463109e+03 -7.454162e+02 1.533688e+02 -1.612586e+02 -2.488486e+01 7.679159e+01 -1.273618e+03 -1.583961e+03 -1.030068e+03 -2.423211e+02 4.294156e+01 -7.321599e+01 -1.410369e+02 -2.115149e+02 9.800360e+01 1.831140e+02 7.204375e+02 4.743419e+02 1.072954e+03 1.148337e+03 -2.097761e+01 -1.377242e+03 2.061552e+03 4.636593e+03 -5.432055e+02 -1.986412e+03 -1.520875e+03 5.037958e+03 3.674171e+03 
1.039588e+04 5.516002e+03 1.288979e+03 -3.324058e+03 -6.031328e+03 4.641427e+02 -9.039006e+02 2.477943e+03 -1.920175e+03 -3.206941e+03 1.001942e+03 -2.859494e+02 1.285355e+02 -2.649061e+01 5.433724e+01 -8.244755e+01 1.793375e+01 -3.385510e+01 -1.232418e+01 -1.053080e+01 3.321099e+00 -1.797964e+00 -2.765325e+00 5.980203e+00 -3.542716e+00 4.277964e+00 5.021060e+00 -4.563309e+00 3.118271e+00 1.161478e+02 6.617652e+01 1.663124e+02 1.419508e+02 2.975605e+02 6.820809e+02 1.088853e+03 6.906757e+02 4.410947e+01 2.529097e+02 1.985003e+02 1.541424e+02 5.828175e+02 7.709950e+02 5.231802e+02 1.337122e+02 -7.931792e+01 -4.587960e+01 -1.942405e+02 -2.751350e+02 -4.052934e+02 -5.322767e+02 -9.648142e+02 -1.935239e+03 -2.160294e+03 -1.118455e+03 -8.054462e+02 -4.278467e+02 -2.381425e+03 -1.152344e+03 1.104581e+03 8.726604e+02 -2.715038e+03 -4.173150e+03 2.782810e+03 
4.175437e+03 4.321482e+03 2.887148e+03 -1.187066e+03 -5.420791e+03 1.188773e+03 -1.633876e+03 1.170868e+03 -5.795579e+02 -2.458920e+03 -2.005382e+02 -7.383137e+00 7.969515e+01 -2.245921e+01 4.389696e+01 -3.687730e+01 6.872961e+00 -2.235871e+01 3.939929e+00 -1.098307e+01 6.569450e+00 -1.332680e+01 9.607244e+00 -6.807665e+00 5.340223e+00 -9.329519e+00 5.203974e-01 1.312953e+01 -1.092404e-01 -4.205667e+01 -3.638185e+01 -1.154697e+02 -6.987865e+01 -1.913610e+02 -2.409597e+02 -3.464376e+02 -2.470530e+02 -1.063604e+02 -8.986251e+01 -4.840287e+01 -6.962502e+01 -1.787419e+02 -1.943985e+02 -1.005051e+02 3.465810e+00 1.270061e+01 1.582235e+01 4.722032e+01 1.661910e+02 2.859483e+02 4.823987e+02 7.176499e+02 1.314681e+03 1.466634e+03 7.861194e+02 3.063036e+02 -2.048696e+02 6.522318e+02 8.503783e+02 -2.715602e+01 8.182668e+02 3.211394e+03 -7.683263e+03 -6.877190e+03 
-1.188550e+02 -1.259007e+03 1.471873e+03 9.584166e+02 -4.032793e+03 9.823801e+02 -1.127597e+03 2.016763e+02 -9.172143e+02 -1.595761e+03 -2.696595e+02 -3.955054e+01 1.631002e+01 -4.705323e+01 2.316892e+01 -5.093539e+01 1.115259e+01 -3.399596e+01 1.969992e+00 -1.617539e+01 2.576192e+00 -8.098064e+00 1.345204e+00 -1.637439e+00 1.415667e+00 -4.701075e-01 5.090596e+00 2.099121e+00 8.559590e+00 8.010632e+00 -1.680864e+01 -5.639923e+00 -6.474351e+00 2.747055e+01 5.983301e+01 1.009744e+02 6.010042e+01 2.932240e+01 3.134762e+01 2.437647e+01 3.220733e+01 6.314108e+00 2.308849e+01 2.623105e+01 -2.771777e+01 -1.966504e+01 -4.249893e+01 -3.627946e+01 -1.151535e+02 -2.037856e+02 -3.661914e+02 -5.111523e+02 -4.305487e+02 -4.644356e+01 2.132171e+02 3.946189e+02 3.742305e+02 1.358931e+02 6.668162e+01 3.027112e+02 1.040138e+03 4.792341e+03 1.016657e+03 -5.175827e+03 
2.160849e+03 -2.950654e+03 -6.248810e+03 -3.498753e+02 -1.610239e+03 3.758446e+02 -2.206021e+02 -1.126432e+02 -3.251603e+02 -8.831517e+02 -4.026534e+02 -7.415120e+01 -7.090468e+01 -3.585631e+01 -5.994780e+00 -3.033643e+01 6.356635e-02 -2.153274e+01 2.727081e+00 -1.224229e+01 3.397062e+00 -9.324897e+00 4.326451e+00 -5.962780e+00 2.593048e+00 -4.028044e+00 -5.898404e-01 4.780737e-01 -7.484047e+00 -7.232976e+00 -5.681115e+00 -9.904643e+00 5.560154e+00 -4.862902e+00 1.452765e+01 1.397558e+01 9.875721e+00 -1.068785e+01 -1.415809e+01 -6.341476e+00 -1.747044e+01 1.370166e-01 3.239870e+00 5.127461e+00 1.639541e+01 1.615557e+00 6.592354e+00 -5.658136e+00 -1.338148e+01 -3.683324e+01 -5.392430e+01 -4.553427e+01 -6.090043e+01 -2.038249e+02 -2.406802e+02 -2.495136e+02 -2.981454e+02 -2.306269e+02 2.594260e+02 5.998644e+02 1.742589e+03 5.128849e+03 6.367776e+03 -5.277135e+03 
4.280262e+03 -6.627362e+02 -9.471451e+03 -1.795686e+03 -8.627770e+02 3.952045e+02 1.852014e+02 -2.364476e+02 -1.848867e+02 -4.834172e+02 -1.737534e+02 -8.233294e+01 -5.442555e+01 -5.010999e+01 -8.293477e+00 -4.085055e+01 2.831908e+00 -2.845225e+01 2.804869e+00 -1.632952e+01 2.406182e+00 -9.283574e+00 1.658322e+00 -4.756768e+00 1.360742e+00 -2.926108e+00 1.448506e+00 -2.331431e+00 6.553975e-01 -5.478194e+00 -7.075473e+00 -1.442894e+01 -1.311699e+01 -1.370163e+01 -8.528424e+00 1.009870e+00 4.148561e+00 8.787988e+00 4.700892e+00 3.174812e+00 2.702444e+00 -5.082392e+00 -5.748628e+00 8.510819e-02 -1.240970e+01 -1.949121e+00 -1.309713e+01 3.663648e+00 -3.226159e+00 2.432363e+01 5.028597e+01 1.179687e+02 2.195263e+02 2.992790e+02 2.486059e+02 1.679079e+02 2.057944e+02 1.111769e+02 1.125767e+02 1.606671e+02 1.497142e+03 4.469341e+03 6.355707e+03 -3.024830e+03 
2.101898e+03 1.207438e+03 -4.746925e+03 -5.004292e+02 -1.364894e+03 1.014222e+03 2.843952e+02 -2.752903e+02 6.873235e+01 -2.697739e+02 -1.167050e+02 -7.626913e+01 -5.964748e+01 -4.095746e+01 -2.133024e+01 -2.753147e+01 -6.506919e+00 -1.840811e+01 -8.141338e-01 -1.126396e+01 9.782371e-01 -7.439920e+00 1.633772e+00 -4.762367e+00 1.003542e+00 -2.989122e+00 -4.044141e-01 -1.491021e+00 -2.523373e+00 -8.039505e-01 -3.385499e-01 2.661085e+00 6.180421e+00 6.839484e+00 1.010582e+01 7.411088e+00 4.776060e+00 -8.095451e-01 -3.500428e+00 -1.686006e+00 -4.689973e+00 3.697434e-01 -4.736178e-01 -1.811070e+00 -2.146649e+00 -7.346977e+00 -1.297279e+01 -2.199154e+01 -4.101676e+01 -6.356862e+01 -9.608269e+01 -1.158387e+02 -1.252703e+02 -1.171984e+02 -1.040569e+02 -7.825790e+01 -8.019515e+01 -9.557802e+01 1.562475e+01 9.197599e+01 7.106681e+02 2.410748e+03 4.104334e+03 -8.684840e+02 
-1.379719e+02 6.048870e+01 -8.982883e+02 3.045666e+02 -1.809511e+03 8.094845e+02 1.849471e+02 -2.457291e+02 4.098292e+01 -1.784182e+02 -3.642864e+01 -6.589029e+01 -2.631384e+01 -4.237250e+01 -9.687682e+00 -3.179084e+01 -8.732661e-01 -2.246104e+01 1.497789e+00 -1.432524e+01 1.761563e+00 -8.950074e+00 1.303139e+00 -5.607749e+00 7.548752e-01 -3.991669e+00 7.894067e-02 -3.608465e+00 -9.769412e-01 -4.918777e+00 -3.343937e+00 -7.197978e+00 -5.434154e+00 -6.214861e+00 -4.211239e+00 -7.974763e-01 1.308865e-01 3.234738e+00 1.677023e+00 2.478341e+00 1.297683e+00 1.086903e+00 -1.833232e-01 2.542602e+00 -2.836057e-02 5.295849e+00 5.414459e+00 1.617226e+01 2.448109e+01 4.497818e+01 6.379432e+01 7.996292e+01 8.759142e+01 7.181838e+01 6.841826e+01 4.494333e+01 6.902712e+01 5.164833e+01 9.424036e+01 9.081673e+01 3.537904e+02 1.150428e+03 2.588049e+03 -2.854001e+02 
-4.543199e+02 -3.598866e+02 7.871615e+02 -1.872908e+02 -2.259872e+03 5.757151e+02 2.116711e+02 -1.283387e+02 5.993869e+01 -1.082002e+02 -2.083723e+01 -5.021020e+01 -2.383211e+01 -3.159197e+01 -1.413650e+01 -2.154068e+01 -6.474959e+00 -1.437102e+01 -2.203878e+00 -9.100183e+00 -3.271248e-01 -5.750002e+00 3.920015e-01 -3.498938e+00 3.580619e-01 -1.928718e+00 2.302554e-03 -6.554256e-01 -2.146814e-01 7.520583e-01 9.638482e-01 2.644615e+00 2.973885e+00 3.775802e+00 3.561928e+00 2.946089e+00 1.423780e+00 3.108331e-01 -1.595414e+00 -1.018183e+00 -3.000888e+00 -1.639352e+00 -3.574796e+00 -3.583377e+00 -6.470699e+00 -7.320695e+00 -1.311418e+01 -1.478720e+01 -2.497758e+01 -2.852175e+01 -3.991411e+01 -3.931708e+01 -4.142253e+01 -3.270766e+01 -2.997452e+01 -2.987023e+01 -2.109000e+01 -3.738223e+01 -3.244828e+00 -1.815272e+01 1.083604e+02 4.237184e+02 1.475376e+03 -4.598309e+02 
-2.089146e+02 -2.862834e+01 1.740365e+03 -4.980075e+02 -2.596722e+03 2.468792e+02 1.338618e+02 -5.822095e+01 3.004457e+01 -7.749487e+01 -1.759523e+00 -4.397610e+01 -6.753700e+00 -3.083842e+01 -3.711647e+00 -2.320923e+01 -3.934065e-01 -1.684948e+01 1.071461e+00 -1.152897e+01 1.320415e+00 -7.753187e+00 9.699711e-01 -5.330454e+00 4.031656e-01 -4.018489e+00 -2.931494e-01 -3.530151e+00 -1.110534e+00 -3.713107e+00 -2.083720e+00 -3.952725e+00 -2.686095e+00 -3.025233e+00 -2.111088e+00 -7.543191e-01 -5.145343e-01 1.247862e+00 6.339696e-01 1.897270e+00 1.181835e+00 2.198458e+00 1.706052e+00 3.409868e+00 3.486119e+00 6.226634e+00 8.086040e+00 1.237677e+01 1.679561e+01 2.158533e+01 2.668774e+01 2.694441e+01 2.926217e+01 2.283888e+01 2.611277e+01 1.838237e+01 2.787508e+01 1.845772e+01 3.709509e+01 1.704966e+01 7.336695e+01 1.123140e+02 7.792973e+02 -3.614798e+02 
-8.786949e+01 1.822729e+02 2.283990e+03 -6.275222e+02 -2.776683e+03 1.714215e+02 1.493149e+02 -2.743826e+00 3.333117e+01 -4.326614e+01 6.367780e-01 -2.947292e+01 -6.849808e+00 -2.084958e+01 -6.243271e+00 -1.483027e+01 -3.815364e+00 -1.012021e+01 -1.765571e+00 -6.530979e+00 -5.625573e-01 -4.012274e+00 1.735572e-02 -2.240516e+00 2.058542e-01 -9.370396e-01 2.622465e-01 1.356927e-01 4.427583e-01 1.163360e+00 9.834827e-01 2.060025e+00 1.534252e+00 2.361023e+00 1.425431e+00 1.788780e+00 3.967128e-01 5.914668e-01 -1.042564e+00 -4.881504e-01 -2.259955e+00 -1.469324e+00 -3.491088e+00 -2.859160e+00 -5.592908e+00 -4.921365e+00 -8.900091e+00 -7.899248e+00 -1.302961e+01 -1.143130e+01 -1.615436e+01 -1.336219e+01 -1.546459e+01 -1.285221e+01 -1.192938e+01 -1.368595e+01 -7.387735e+00 -1.612892e+01 2.977756e+00 -1.562552e+01 3.929621e+01 -3.684331e+00 4.016204e+02 -1.584433e+02 
4.101775e+00 2.503052e+02 2.296197e+03 -5.680438e+02 -2.782947e+03 4.176276e+01 8.733157e+01 1.380711e+01 1.990458e+01 -2.934655e+01 5.449593e+00 -2.507004e+01 1.098657e+00 -1.992399e+01 5.270526e-01 -1.565103e+01 1.036089e+00 -1.182650e+01 1.333693e+00 -8.566610e+00 1.219588e+00 -6.119776e+00 8.111103e-01 -4.470146e+00 2.633329e-01 -3.489066e+00 -3.383728e-01 -2.994383e+00 -9.298045e-01 -2.789128e+00 -1.426595e+00 -2.541824e+00 -1.621875e+00 -1.856419e+00 -1.304040e+00 -7.063531e-01 -5.615334e-01 4.373420e-01 2.081638e-01 1.219533e+00 9.020481e-01 1.878124e+00 1.771206e+00 2.906601e+00 3.307605e+00 4.684131e+00 5.868161e+00 7.339588e+00 9.193553e+00 1.002057e+01 1.193905e+01 1.100588e+01 1.286827e+01 9.802319e+00 1.311504e+01 7.785047e+00 1.542343e+01 5.050530e+00 2.334274e+01 -2.410986e+00 5.059012e+01 -2.308050e+01 2.262026e+02 -8.995454e+01 