# vtk DataFile Version 2.0
Comment goes here
ASCII

DATASET STRUCTURED_POINTS
FIELD FieldData 1
TIME 1 1 double
0.03600000
DIMENSIONS    64   64   1

ORIGIN    0.000   0.000   0.000
SPACING   0.03125 0.03125   1.000

POINT_DATA   4096
SCALARS P double
LOOKUP_TABLE default

-3.550029e+01 -1.962992e+02 -1.992185e+01 -2.062716e+02 1.308961e+01 1.217403e+02 -2.148713e+01 1.197793e+02 -2.900732e+01 1.113770e+02 -2.739126e+01 9.758954e+01 -2.524509e+01 8.476171e+01 -2.464805e+01 7.329291e+01 -2.256246e+01 5.569332e+01 -1.599036e+01 3.982224e+01 -1.764976e+01 3.374061e+01 -2.384218e+01 2.411119e+01 -2.475607e+01 9.296786e+00 -2.244999e+01 -7.082597e+00 -1.924309e+01 -2.598027e+01 -1.520494e+01 -4.237455e+01 -1.714332e+01 -5.153195e+01 -2.460068e+01 -5.671343e+01 -3.614044e+01 -5.723739e+01 -4.932341e+01 -5.969838e+01 -6.050613e+01 -6.335174e+01 -6.849266e+01 -6.899123e+01 -7.624442e+01 -7.320094e+01 -8.426173e+01 -7.905588e+01 -8.819332e+01 -8.751168e+01 -8.587599e+01 -1.037615e+02 -7.480855e+01 -1.226865e+02 -6.639039e+01 -1.370652e+02 -6.049861e+01 -1.480569e+02 -5.704772e+01 -1.559603e+02 -5.165844e+01 -1.661179e+02 -4.488340e+01 -1.712994e+02 
-1.144483e+01 -1.301726e+02 -2.785163e+00 -1.363638e+02 2.109972e+01 1.088611e+02 -3.657308e+00 1.063331e+02 -7.894153e+00 1.002766e+02 -6.930392e+00 9.126978e+01 -6.015206e+00 8.295429e+01 -6.110677e+00 7.534711e+01 -5.507335e+00 6.392399e+01 -2.137896e+00 5.314071e+01 -3.178828e+00 4.778094e+01 -6.493005e+00 4.006355e+01 -6.808065e+00 2.964384e+01 -5.755753e+00 1.866779e+01 -4.376511e+00 6.200190e+00 -2.323393e+00 -5.173143e+00 -3.187039e+00 -1.302052e+01 -6.541151e+00 -1.916395e+01 -1.181965e+01 -2.287246e+01 -1.780944e+01 -2.794381e+01 -2.254853e+01 -3.371996e+01 -2.549483e+01 -4.061546e+01 -2.852465e+01 -4.627314e+01 -3.224786e+01 -5.247933e+01 -3.398738e+01 -5.962946e+01 -3.280232e+01 -7.067763e+01 -2.700546e+01 -8.280445e+01 -2.330512e+01 -9.198203e+01 -2.103260e+01 -9.939048e+01 -2.016756e+01 -1.049066e+02 -1.817693e+01 -1.118452e+02 -1.540682e+01 -1.150056e+02 
2.195425e+00 -8.839449e+01 4.335311e+00 -9.134662e+01 1.241976e+01 9.708943e+01 5.017014e+00 9.429491e+01 4.394316e+00 9.012992e+01 4.686868e+00 8.499014e+01 4.741308e+00 7.968154e+01 4.510922e+00 7.418864e+01 4.232777e+00 6.749678e+01 4.579602e+00 6.054313e+01 4.153236e+00 5.440661e+01 3.335410e+00 4.752006e+01 3.039217e+00 4.015312e+01 2.872198e+00 3.283854e+01 2.702390e+00 2.520735e+01 2.806908e+00 1.761326e+01 2.568212e+00 1.045721e+01 2.118663e+00 3.427495e+00 1.360382e+00 -3.179180e+00 4.728601e-01 -1.015077e+01 -1.928128e-01 -1.725986e+01 -4.626891e-01 -2.464956e+01 -7.497174e-01 -3.158753e+01 -1.301836e+00 -3.840764e+01 -1.427872e+00 -4.510314e+01 -1.031007e+00 -5.212582e+01 1.765495e-01 -5.889575e+01 7.652328e-01 -6.475888e+01 1.123345e+00 -7.013243e+01 1.154912e+00 -7.483026e+01 1.406051e+00 -7.963000e+01 1.788983e+00 -8.281003e+01 
2.471367e+00 -9.116434e+01 4.495683e+00 -9.485261e+01 5.943871e+00 9.983352e+01 5.217493e+00 9.648243e+01 4.502645e+00 9.200960e+01 4.391748e+00 8.670847e+01 4.378968e+00 8.105502e+01 4.281886e+00 7.504499e+01 4.113431e+00 6.825055e+01 4.187328e+00 6.126776e+01 3.924121e+00 5.463027e+01 3.470505e+00 4.762729e+01 3.245420e+00 4.019891e+01 3.147789e+00 3.256277e+01 3.085982e+00 2.472344e+01 3.040153e+00 1.699422e+01 2.687633e+00 9.672735e+00 1.997758e+00 2.681309e+00 1.006452e+00 -4.019119e+00 -6.821268e-02 -1.087342e+01 -9.345578e-01 -1.791175e+01 -1.469472e+00 -2.508468e+01 -1.908463e+00 -3.204494e+01 -2.395351e+00 -3.893287e+01 -2.531603e+00 -4.585686e+01 -2.071496e+00 -5.298483e+01 -1.126751e+00 -5.987200e+01 -4.369678e-01 -6.607926e+01 1.831253e-02 -7.170355e+01 2.965249e-01 -7.679073e+01 7.435719e-01 -8.169520e+01 1.465596e+00 -8.606185e+01 
2.798657e+00 -8.884112e+01 4.197752e+00 -9.230499e+01 5.541643e+00 9.790454e+01 5.002123e+00 9.454067e+01 4.635288e+00 9.025815e+01 4.621089e+00 8.528456e+01 4.660198e+00 7.990666e+01 4.624659e+00 7.413587e+01 4.367447e+00 6.762916e+01 4.283032e+00 6.091654e+01 4.000122e+00 5.431935e+01 3.571430e+00 4.744687e+01 3.207788e+00 4.027252e+01 2.901411e+00 3.295208e+01 2.655994e+00 2.548931e+01 2.488876e+00 1.804140e+01 2.224224e+00 1.078733e+01 1.822210e+00 3.678959e+00 1.248863e+00 -3.283663e+00 5.820545e-01 -1.032541e+01 -2.592464e-02 -1.746667e+01 -4.683514e-01 -2.467758e+01 -8.140985e-01 -3.173857e+01 -1.141312e+00 -3.870401e+01 -1.251553e+00 -4.554467e+01 -8.343318e-01 -5.223301e+01 -1.642735e-01 -5.861683e+01 3.702115e-01 -6.454348e+01 7.862489e-01 -7.007320e+01 1.106004e+00 -7.519765e+01 1.507789e+00 -8.004661e+01 2.053969e+00 -8.438300e+01 
2.612038e+00 -9.212415e+01 3.938424e+00 -9.613335e+01 5.046965e+00 1.005311e+02 4.786302e+00 9.675937e+01 4.451866e+00 9.216780e+01 4.335217e+00 8.694973e+01 4.366194e+00 8.131403e+01 4.459156e+00 7.528141e+01 4.285219e+00 6.845620e+01 4.082790e+00 6.153340e+01 3.872125e+00 5.470741e+01 3.596209e+00 4.768900e+01 3.287654e+00 4.036347e+01 3.015833e+00 3.282356e+01 2.794197e+00 2.515623e+01 2.573221e+00 1.753380e+01 2.213555e+00 1.016177e+01 1.662567e+00 3.008818e+00 9.167106e-01 -3.987119e+00 6.287466e-02 -1.099360e+01 -7.453036e-01 -1.811592e+01 -1.368087e+00 -2.529972e+01 -1.792946e+00 -3.239010e+01 -2.125369e+00 -3.949593e+01 -2.294760e+00 -4.652169e+01 -1.939032e+00 -5.333247e+01 -1.299235e+00 -5.983271e+01 -6.983300e-01 -6.599660e+01 -1.771163e-01 -7.180286e+01 3.016793e-01 -7.726364e+01 8.738450e-01 -8.246150e+01 1.628378e+00 -8.736514e+01 
2.857540e+00 -9.058937e+01 3.877376e+00 -9.471061e+01 4.894489e+00 9.942865e+01 4.689645e+00 9.549494e+01 4.506442e+00 9.095670e+01 4.495047e+00 8.592335e+01 4.621419e+00 8.051894e+01 4.836939e+00 7.470423e+01 4.518932e+00 6.785197e+01 4.249881e+00 6.117498e+01 4.024720e+00 5.449363e+01 3.731872e+00 4.763670e+01 3.297556e+00 4.050818e+01 2.867267e+00 3.319624e+01 2.538025e+00 2.575841e+01 2.293275e+00 1.829397e+01 2.040242e+00 1.098741e+01 1.715371e+00 3.796201e+00 1.245515e+00 -3.311868e+00 6.354689e-01 -1.041461e+01 -2.575803e-02 -1.760976e+01 -5.669000e-01 -2.485843e+01 -8.789922e-01 -3.198811e+01 -1.141737e+00 -3.919664e+01 -1.467167e+00 -4.632244e+01 -9.845161e-01 -5.262199e+01 -4.447116e-01 -5.875262e+01 8.236275e-02 -6.470876e+01 5.631281e-01 -7.042690e+01 1.008745e+00 -7.587162e+01 1.498674e+00 -8.105385e+01 2.096519e+00 -8.593660e+01 
2.424183e+00 -9.394670e+01 3.413870e+00 -9.855189e+01 4.344084e+00 1.021111e+02 4.264083e+00 9.775226e+01 4.141490e+00 9.287713e+01 4.121140e+00 8.757240e+01 4.251265e+00 8.198810e+01 4.613263e+00 7.628599e+01 4.846811e+00 6.843653e+01 4.007870e+00 6.176436e+01 3.906116e+00 5.496832e+01 3.743469e+00 4.801194e+01 3.258475e+00 4.070396e+01 2.822223e+00 3.318641e+01 2.499811e+00 2.554236e+01 2.280349e+00 1.784935e+01 1.960765e+00 1.044539e+01 1.542234e+00 3.197050e+00 9.552561e-01 -3.943472e+00 1.506038e-01 -1.102030e+01 -7.451517e-01 -1.825273e+01 -1.461774e+00 -2.560165e+01 -1.765462e+00 -3.271142e+01 -1.988859e+00 -4.012165e+01 -2.383595e+00 -4.795199e+01 -2.325806e+00 -5.385241e+01 -1.538230e+00 -6.007236e+01 -8.844070e-01 -6.625858e+01 -3.058759e-01 -7.225444e+01 2.477923e-01 -7.802154e+01 8.531903e-01 -8.356817e+01 1.569535e+00 -8.888350e+01 
2.649023e+00 -9.290221e+01 3.434005e+00 -9.773588e+01 4.228525e+00 1.016619e+02 4.206589e+00 9.705683e+01 4.173331e+00 9.212522e+01 4.227438e+00 8.692787e+01 4.429516e+00 8.166076e+01 4.984525e+00 7.664363e+01 5.494964e+00 6.787218e+01 4.194087e+00 6.147270e+01 4.151248e+00 5.483880e+01 4.015828e+00 4.807951e+01 3.333168e+00 4.091663e+01 2.762506e+00 3.354823e+01 2.376168e+00 2.602969e+01 2.224315e+00 1.836398e+01 2.003178e+00 1.105683e+01 1.766475e+00 3.834481e+00 1.386844e+00 -3.334319e+00 6.834566e-01 -1.040758e+01 -2.127670e-01 -1.769324e+01 -9.069921e-01 -2.516482e+01 -9.988688e-01 -3.215808e+01 -1.012429e+00 -3.969427e+01 -1.265598e+00 -4.812059e+01 -1.995661e+00 -5.288648e+01 -8.702946e-01 -5.897079e+01 -1.511546e-01 -6.510131e+01 4.003936e-01 -7.106246e+01 8.930788e-01 -7.682662e+01 1.401087e+00 -8.239386e+01 1.975404e+00 -8.775559e+01 
2.077973e+00 -9.619532e+01 2.831565e+00 -1.014633e+02 3.550469e+00 1.043604e+02 3.644581e+00 9.933420e+01 3.692292e+00 9.404090e+01 3.781299e+00 8.850776e+01 3.966796e+00 8.285080e+01 4.333395e+00 7.720797e+01 4.556436e+00 6.893861e+01 3.963177e+00 6.215895e+01 3.896269e+00 5.527154e+01 3.759091e+00 4.827408e+01 3.232590e+00 4.095289e+01 2.739957e+00 3.343565e+01 2.363539e+00 2.579903e+01 2.124147e+00 1.808396e+01 1.811428e+00 1.066536e+01 1.445681e+00 3.364771e+00 9.430105e-01 -3.860736e+00 1.996909e-01 -1.101535e+01 -6.733924e-01 -1.834613e+01 -1.364747e+00 -2.580745e+01 -1.576121e+00 -3.294987e+01 -1.698635e+00 -4.043835e+01 -2.036932e+00 -4.847364e+01 -2.576742e+00 -5.412803e+01 -1.654964e+00 -6.041262e+01 -9.640729e-01 -6.673849e+01 -3.804198e-01 -7.294813e+01 1.695838e-01 -7.900865e+01 7.423034e-01 -8.491377e+01 1.374614e+00 -9.065235e+01 
2.294228e+00 -9.546282e+01 2.880196e+00 -1.009951e+02 3.450724e+00 1.043715e+02 3.606212e+00 9.905947e+01 3.728495e+00 9.360413e+01 3.888915e+00 8.797827e+01 4.128932e+00 8.217795e+01 4.426059e+00 7.609611e+01 4.065824e+00 6.882351e+01 3.976031e+00 6.193906e+01 3.826466e+00 5.506015e+01 3.619996e+00 4.808085e+01 3.218966e+00 4.090025e+01 2.766956e+00 3.356167e+01 2.392993e+00 2.612359e+01 2.093394e+00 1.865208e+01 1.832549e+00 1.129205e+01 1.556608e+00 4.005624e+00 1.177913e+00 -3.239815e+00 6.720126e-01 -1.047039e+01 8.264834e-02 -1.776876e+01 -4.274523e-01 -2.510895e+01 -7.115179e-01 -3.234196e+01 -9.781513e-01 -3.966621e+01 -1.431357e+00 -4.692268e+01 -1.006724e+00 -5.323235e+01 -5.889474e-01 -5.950764e+01 -1.304318e-01 -6.575026e+01 3.290907e-01 -7.191911e+01 7.809620e-01 -7.798475e+01 1.245727e+00 -8.393576e+01 1.746144e+00 -8.976539e+01 
1.643346e+00 -9.863019e+01 2.187388e+00 -1.045517e+02 2.681163e+00 1.070166e+02 2.948805e+00 1.013032e+02 3.157940e+00 9.548077e+01 3.373566e+00 8.950384e+01 3.639414e+00 8.333871e+01 3.940083e+00 7.689091e+01 3.851395e+00 6.982735e+01 3.652083e+00 6.265440e+01 3.519684e+00 5.557028e+01 3.324879e+00 4.840449e+01 2.980484e+00 4.104950e+01 2.597735e+00 3.354783e+01 2.254691e+00 2.596562e+01 1.941736e+00 1.838733e+01 1.615595e+00 1.094574e+01 1.241439e+00 3.595376e+00 7.710607e-01 -3.698385e+00 1.974248e-01 -1.099076e+01 -4.186534e-01 -1.837299e+01 -9.358500e-01 -2.578627e+01 -1.252306e+00 -3.310603e+01 -1.498111e+00 -4.044553e+01 -1.774160e+00 -4.761168e+01 -1.649017e+00 -5.441912e+01 -1.277984e+00 -6.093567e+01 -8.457995e-01 -6.739401e+01 -3.834338e-01 -7.380475e+01 9.024641e-02 -8.014650e+01 5.816011e-01 -8.640575e+01 1.100154e+00 -9.257220e+01 
1.854009e+00 -9.809027e+01 2.247018e+00 -1.042786e+02 2.587893e+00 1.073357e+02 2.914804e+00 1.013281e+02 3.180232e+00 9.529832e+01 3.435330e+00 8.917880e+01 3.703387e+00 8.291234e+01 3.932284e+00 7.642122e+01 3.806429e+00 6.949146e+01 3.646245e+00 6.244745e+01 3.498304e+00 5.542571e+01 3.300519e+00 4.832579e+01 2.996740e+00 4.107760e+01 2.648502e+00 3.370216e+01 2.329718e+00 2.626247e+01 2.033268e+00 1.882655e+01 1.750940e+00 1.146235e+01 1.453100e+00 4.157343e+00 1.089568e+00 -3.119077e+00 6.625747e-01 -1.041253e+01 2.041267e-01 -1.775807e+01 -2.054206e-01 -2.511894e+01 -5.025143e-01 -3.240393e+01 -7.567024e-01 -3.963974e+01 -9.814892e-01 -4.673633e+01 -7.272841e-01 -5.351188e+01 -4.161680e-01 -6.002832e+01 -7.655740e-02 -6.646938e+01 2.901963e-01 -7.287654e+01 6.677960e-01 -7.924592e+01 1.053477e+00 -8.557197e+01 1.449933e+00 -9.185345e+01 
1.159302e+00 -1.010991e+02 1.500306e+00 -1.076349e+02 1.759950e+00 1.098716e+02 2.195260e+00 1.034965e+02 2.547588e+00 9.712773e+01 2.869414e+00 9.070244e+01 3.200031e+00 8.416744e+01 3.529188e+00 7.744691e+01 3.563425e+00 7.036023e+01 3.333701e+00 6.311439e+01 3.189539e+00 5.594017e+01 3.016567e+00 4.869313e+01 2.734223e+00 4.128104e+01 2.414163e+00 3.373672e+01 2.123004e+00 2.614508e+01 1.820438e+00 1.859146e+01 1.495955e+00 1.114241e+01 1.138676e+00 3.773196e+00 7.032115e-01 -3.555973e+00 2.144349e-01 -1.092016e+01 -2.896766e-01 -1.836138e+01 -7.210422e-01 -2.583391e+01 -1.007653e+00 -3.320463e+01 -1.235821e+00 -4.055821e+01 -1.482282e+00 -4.777880e+01 -1.426278e+00 -5.475422e+01 -1.112841e+00 -6.143452e+01 -7.605055e-01 -6.807878e+01 -3.828889e-01 -7.472025e+01 2.652731e-03 -8.134839e+01 3.916147e-01 -8.795546e+01 7.809690e-01 -9.453913e+01 
1.367379e+00 -1.006664e+02 1.568080e+00 -1.074566e+02 1.675033e+00 1.103868e+02 2.165773e+00 1.037314e+02 2.560187e+00 9.715221e+01 2.902486e+00 9.058276e+01 3.226105e+00 8.397240e+01 3.546709e+00 7.729374e+01 3.793076e+00 7.004279e+01 3.349724e+00 6.293737e+01 3.212369e+00 5.585809e+01 3.068938e+00 4.870013e+01 2.797139e+00 4.136950e+01 2.500660e+00 3.390747e+01 2.256654e+00 2.641200e+01 1.992732e+00 1.895472e+01 1.707676e+00 1.158618e+01 1.421337e+00 4.280525e+00 1.061724e+00 -2.997526e+00 6.686827e-01 -1.032849e+01 2.579751e-01 -1.773266e+01 -1.037271e-01 -2.518647e+01 -3.261171e-01 -3.248564e+01 -5.147439e-01 -3.980232e+01 -7.631387e-01 -4.718166e+01 -7.474690e-01 -5.393222e+01 -4.002104e-01 -6.054670e+01 -7.728844e-02 -6.719049e+01 2.384865e-01 -7.385368e+01 5.437945e-01 -8.052836e+01 8.373607e-01 -8.721590e+01 1.115643e+00 -9.392444e+01 
6.538326e-01 -1.034978e+02 7.963003e-01 -1.105961e+02 8.209316e-01 1.127704e+02 1.414128e+00 1.057850e+02 1.890013e+00 9.890146e+01 2.292731e+00 9.207522e+01 2.665390e+00 8.531336e+01 3.087528e+00 7.873986e+01 3.814779e+00 7.073829e+01 2.986775e+00 6.353232e+01 2.883111e+00 5.636742e+01 2.808835e+00 4.912328e+01 2.511575e+00 4.163298e+01 2.214247e+00 3.396982e+01 2.026318e+00 2.629740e+01 1.767429e+00 1.870575e+01 1.432503e+00 1.126212e+01 1.120258e+00 3.905558e+00 6.840091e-01 -3.402298e+00 2.278269e-01 -1.080583e+01 -2.479750e-01 -1.832349e+01 -6.588537e-01 -2.597540e+01 -8.141937e-01 -3.329708e+01 -9.209309e-01 -4.074518e+01 -1.101125e+00 -4.862889e+01 -1.740900e+00 -5.512226e+01 -1.141694e+00 -6.186398e+01 -7.299282e-01 -6.873478e+01 -3.954463e-01 -7.563190e+01 -9.418022e-02 -8.254820e+01 1.857896e-01 -8.949018e+01 4.404784e-01 -9.646853e+01 
8.645691e-01 -1.031089e+02 8.773983e-01 -1.104415e+02 7.571792e-01 1.133922e+02 1.401718e+00 1.061509e+02 1.914227e+00 9.907147e+01 2.334679e+00 9.211166e+01 2.697906e+00 8.527460e+01 3.064001e+00 7.863413e+01 3.612912e+00 7.066055e+01 3.076086e+00 6.343592e+01 2.990846e+00 5.629261e+01 2.921689e+00 4.909402e+01 2.654863e+00 4.168629e+01 2.383295e+00 3.412519e+01 2.210880e+00 2.655463e+01 1.981972e+00 1.905316e+01 1.695071e+00 1.167732e+01 1.438992e+00 4.371495e+00 1.080458e+00 -2.898023e+00 7.076593e-01 -1.025918e+01 3.145554e-01 -1.772304e+01 -2.619119e-02 -2.530416e+01 -1.413216e-01 -3.258262e+01 -2.168384e-01 -3.996120e+01 -3.717711e-01 -4.768652e+01 -1.041460e+00 -5.422187e+01 -4.764664e-01 -6.098573e+01 -9.760860e-02 -6.787683e+01 1.850675e-01 -7.480647e+01 4.169144e-01 -8.177677e+01 6.118111e-01 -8.880320e+01 7.663199e-01 -9.590570e+01 
1.503776e-01 -1.057511e+02 1.035683e-01 -1.133547e+02 -9.281449e-02 1.155898e+02 6.449959e-01 1.080527e+02 1.237737e+00 1.006877e+02 1.726424e+00 9.344396e+01 2.144791e+00 8.628021e+01 2.508049e+00 7.912164e+01 2.632134e+00 7.148714e+01 2.603420e+00 6.402392e+01 2.559259e+00 5.664905e+01 2.478625e+00 4.924341e+01 2.288459e+00 4.172698e+01 2.056005e+00 3.412280e+01 1.843764e+00 2.650746e+01 1.599620e+00 1.893940e+01 1.328281e+00 1.145276e+01 1.045162e+00 4.023524e+00 7.052884e-01 -3.380993e+00 3.429605e-01 -1.082805e+01 -2.682831e-02 -1.833370e+01 -3.484091e-01 -2.587736e+01 -5.531881e-01 -3.330878e+01 -7.277017e-01 -4.075438e+01 -9.805916e-01 -4.820241e+01 -1.097373e+00 -5.529719e+01 -8.514236e-01 -6.232247e+01 -6.091745e-01 -6.939705e+01 -3.850964e-01 -7.652247e+01 -1.874222e-01 -8.370389e+01 -2.247769e-02 -9.095489e+01 9.732579e-02 -9.829529e+01 
3.708135e-01 -1.053572e+02 2.063244e-01 -1.131712e+02 -1.233312e-01 1.162390e+02 6.597663e-01 1.084690e+02 1.285071e+00 1.009139e+02 1.792856e+00 9.351552e+01 2.217226e+00 8.621281e+01 2.577276e+00 7.890657e+01 2.737385e+00 7.146645e+01 2.688183e+00 6.399166e+01 2.653570e+00 5.662576e+01 2.577919e+00 4.924902e+01 2.420431e+00 4.179507e+01 2.228244e+00 3.427971e+01 2.044246e+00 2.675779e+01 1.837448e+00 1.927750e+01 1.610887e+00 1.186077e+01 1.372690e+00 4.487408e+00 1.096581e+00 -2.870673e+00 8.042952e-01 -1.026553e+01 5.104386e-01 -1.771097e+01 2.556771e-01 -2.517659e+01 8.295678e-02 -3.256431e+01 -6.243176e-02 -3.994154e+01 -2.474755e-01 -4.724319e+01 -3.089427e-01 -5.443318e+01 -1.544451e-01 -6.147813e+01 1.601806e-02 -6.856590e+01 1.758483e-01 -7.572069e+01 3.052689e-01 -8.295410e+01 3.921310e-01 -9.028568e+01 4.215401e-01 -9.774213e+01 
-3.312708e-01 -1.078033e+02 -5.542262e-01 -1.158521e+02 -9.556622e-01 1.182228e+02 -9.045151e-02 1.101920e+02 6.035308e-01 1.023789e+02 1.162416e+00 9.472332e+01 1.611050e+00 8.716411e+01 1.949832e+00 7.963240e+01 2.112230e+00 7.207649e+01 2.168113e+00 6.450041e+01 2.184531e+00 5.697048e+01 2.137645e+00 4.944135e+01 2.019841e+00 4.187804e+01 1.855257e+00 3.428558e+01 1.671029e+00 2.669460e+01 1.462990e+00 1.913524e+01 1.235434e+00 1.162223e+01 9.887985e-01 4.145607e+00 7.149965e-01 -3.315823e+00 4.265532e-01 -1.079167e+01 1.392854e-01 -1.829175e+01 -1.191020e-01 -2.579748e+01 -3.268012e-01 -3.326624e+01 -5.023411e-01 -4.070884e+01 -6.589512e-01 -4.811281e+01 -6.579282e-01 -5.545929e+01 -5.747054e-01 -6.272501e+01 -4.692243e-01 -7.000828e+01 -3.611280e-01 -7.734996e+01 -2.724442e-01 -8.477387e+01 -2.226428e-01 -9.230383e+01 -2.330666e-01 -9.996842e+01 
-9.400334e-02 -1.073657e+02 -4.216414e-01 -1.155986e+02 -9.421472e-01 1.188369e+02 -3.807089e-02 1.106011e+02 6.844629e-01 1.026179e+02 1.261721e+00 9.482598e+01 1.719219e+00 8.716461e+01 2.060649e+00 7.957808e+01 2.238585e+00 7.203222e+01 2.304964e+00 6.447569e+01 2.327285e+00 5.696764e+01 2.291539e+00 4.947478e+01 2.196386e+00 4.196747e+01 2.061377e+00 3.444673e+01 1.907120e+00 2.693371e+01 1.733608e+00 1.945039e+01 1.544690e+00 1.200550e+01 1.340608e+00 4.589535e+00 1.117412e+00 -2.816039e+00 8.839765e-01 -1.023479e+01 6.528752e-01 -1.767372e+01 4.448384e-01 -2.511575e+01 2.745986e-01 -3.252961e+01 1.323767e-01 -3.991686e+01 1.405466e-02 -4.726824e+01 1.320152e-04 -5.460485e+01 5.550178e-02 -6.188146e+01 1.200356e-01 -6.918016e+01 1.770726e-01 -7.654951e+01 2.061502e-01 -8.402042e+01 1.867675e-01 -9.162260e+01 9.623578e-02 -9.939046e+01 
-7.748769e-01 -1.096116e+02 -1.157550e+00 -1.180443e+02 -1.745315e+00 1.205907e+02 -7.694565e-01 1.121330e+02 1.179247e-02 1.039305e+02 6.324527e-01 9.592553e+01 1.116066e+00 8.806392e+01 1.470202e+00 8.029940e+01 1.684496e+00 7.259678e+01 1.801964e+00 6.492104e+01 1.859178e+00 5.728319e+01 1.852281e+00 4.966706e+01 1.784904e+00 4.205627e+01 1.670710e+00 3.444921e+01 1.525195e+00 2.685670e+01 1.354780e+00 1.929108e+01 1.164837e+00 1.175751e+01 9.571191e-01 4.249959e+00 7.326047e-01 -3.244734e+00 4.989272e-01 -1.074149e+01 2.675714e-01 -1.824610e+01 5.402771e-02 -2.575083e+01 -1.297887e-01 -3.324161e+01 -2.812143e-01 -4.071775e+01 -3.914037e-01 -4.818375e+01 -4.138054e-01 -5.563995e+01 -3.941789e-01 -6.307890e+01 -3.664947e-01 -7.054667e+01 -3.465290e-01 -7.808409e+01 -3.533194e-01 -8.572445e+01 -4.088394e-01 -9.350027e+01 -5.387810e-01 -1.014481e+02 
-5.141059e-01 -1.090995e+02 -9.876946e-01 -1.176881e+02 -1.678960e+00 1.211203e+02 -6.711187e-01 1.124894e+02 1.337021e-01 1.041442e+02 7.702657e-01 9.602818e+01 1.263388e+00 8.808858e+01 1.624016e+00 8.028088e+01 1.849897e+00 7.256543e+01 1.978705e+00 6.490086e+01 2.044062e+00 5.728778e+01 2.048890e+00 4.971015e+01 1.999677e+00 4.215186e+01 1.909154e+00 3.460843e+01 1.790596e+00 2.708539e+01 1.650782e+00 1.958984e+01 1.494767e+00 1.212333e+01 1.324533e+00 4.679072e+00 1.141717e+00 -2.754971e+00 9.522349e-01 -1.019144e+01 7.650413e-01 -1.763514e+01 5.919142e-01 -2.508006e+01 4.417332e-01 -3.251611e+01 3.176387e-01 -3.994284e+01 2.262422e-01 -4.736686e+01 1.928132e-01 -5.479860e+01 1.922906e-01 -6.223264e+01 1.908159e-01 -6.970802e+01 1.712836e-01 -7.726651e+01 1.152149e-01 -8.494539e+01 7.259481e-04 -9.278176e+01 -1.982872e-01 -1.008169e+02 
-1.166558e+00 -1.111439e+02 -1.689224e+00 -1.198979e+02 -2.440606e+00 1.226332e+02 -1.370706e+00 1.138198e+02 -5.150742e-01 1.052946e+02 1.609261e-01 9.700415e+01 6.834601e-01 8.889949e+01 1.069090e+00 8.093790e+01 1.329230e+00 7.308107e+01 1.493281e+00 6.529576e+01 1.585884e+00 5.756800e+01 1.614242e+00 4.988308e+01 1.585897e+00 4.222847e+01 1.511515e+00 3.459853e+01 1.402430e+00 2.699399e+01 1.266832e+00 1.941717e+01 1.110907e+00 1.186753e+01 9.385230e-01 4.339516e+00 7.534131e-01 -3.176051e+00 5.617590e-01 -1.068859e+01 3.719635e-01 -1.820327e+01 1.940173e-01 -2.571951e+01 3.661384e-02 -3.323495e+01 -9.393351e-02 -4.075233e+01 -1.900538e-01 -4.827944e+01 -2.399860e-01 -5.582147e+01 -2.669230e-01 -6.338623e+01 -2.955979e-01 -7.100266e+01 -3.433934e-01 -7.870568e+01 -4.290443e-01 -8.653095e+01 -5.752124e-01 -9.451611e+01 -8.096044e-01 -1.027036e+02 
-8.760533e-01 -1.105317e+02 -1.475326e+00 -1.194124e+02 -2.313833e+00 1.230364e+02 -1.219799e+00 1.140832e+02 -3.466554e-01 1.054445e+02 3.413543e-01 9.706765e+01 8.718509e-01 8.890386e+01 1.263961e+00 8.090923e+01 1.532669e+00 7.304256e+01 1.705751e+00 6.526826e+01 1.806712e+00 5.756733e+01 1.845922e+00 4.992252e+01 1.832731e+00 4.231952e+01 1.777907e+00 3.475005e+01 1.692028e+00 2.721131e+01 1.582983e+00 1.970217e+01 1.456594e+00 1.221957e+01 1.316605e+00 4.756888e+00 1.166471e+00 -2.694957e+00 1.011174e+00 -1.014479e+01 8.572696e-01 -1.759776e+01 7.123703e-01 -2.505456e+01 5.829505e-01 -3.251486e+01 4.735949e-01 -3.998272e+01 3.887360e-01 -4.746749e+01 3.333338e-01 -5.497908e+01 2.913899e-01 -6.252790e+01 2.399523e-01 -7.014163e+01 1.608834e-01 -7.785563e+01 3.520105e-02 -8.570784e+01 -1.598151e-01 -9.373916e+01 -4.520349e-01 -1.019957e+02 
-1.493941e+00 -1.123756e+02 -2.133947e+00 -1.213879e+02 -3.022449e+00 1.242995e+02 -1.876302e+00 1.152024e+02 -9.599749e-01 1.064205e+02 -2.369479e-01 9.790349e+01 3.223083e-01 8.960437e+01 7.406284e-01 8.148048e+01 1.037752e+00 7.349287e+01 1.237702e+00 6.560886e+01 1.360686e+00 5.780566e+01 1.418602e+00 5.006524e+01 1.421287e+00 4.237359e+01 1.378752e+00 3.472144e+01 1.300747e+00 2.710356e+01 1.195443e+00 1.951638e+01 1.069376e+00 1.195562e+01 9.275615e-01 4.415027e+00 7.746755e-01 -3.113245e+00 6.162109e-01 -1.063697e+01 4.586399e-01 -1.816207e+01 3.089785e-01 -2.569226e+01 1.735438e-01 -3.323110e+01 5.723231e-02 -4.078477e+01 -3.650908e-02 -4.836250e+01 -1.073752e-01 -5.597383e+01 -1.698015e-01 -6.363295e+01 -2.427235e-01 -7.136446e+01 -3.440673e-01 -7.919989e+01 -4.934176e-01 -8.717508e+01 -7.143168e-01 -9.533035e+01 -1.035798e+00 -1.037122e+02 
-1.168033e+00 -1.116425e+02 -1.870061e+00 -1.207514e+02 -2.828830e+00 1.245403e+02 -1.667615e+00 1.153372e+02 -7.409962e-01 1.064715e+02 -1.125760e-02 9.789315e+01 5.524320e-01 8.955462e+01 9.746459e-01 8.141200e+01 1.276849e+00 7.342465e+01 1.482800e+00 6.555805e+01 1.612577e+00 5.778660e+01 1.679560e+00 5.008981e+01 1.694715e+00 4.245151e+01 1.668368e+00 3.486007e+01 1.610021e+00 2.730766e+01 1.527514e+00 1.978827e+01 1.426990e+00 1.229572e+01 1.313094e+00 4.822658e+00 1.189941e+00 -2.639165e+00 1.062006e+00 -1.009766e+01 9.343200e-01 -1.755913e+01 8.121337e-01 -2.502824e+01 6.999218e-01 -3.250980e+01 6.007175e-01 -4.001122e+01 5.157338e-01 -4.754317e+01 4.429108e-01 -5.511795e+01 3.701372e-01 -6.275171e+01 2.798219e-01 -7.046962e+01 1.539846e-01 -7.830400e+01 -2.717526e-02 -8.629236e+01 -2.873158e-01 -9.447732e+01 -6.555491e-01 -1.029080e+02 
-1.746192e+00 -1.132891e+02 -2.478672e+00 -1.224961e+02 -3.474928e+00 1.255470e+02 -2.272213e+00 1.162376e+02 -1.310713e+00 1.072639e+02 -5.518557e-01 9.857752e+01 3.676435e-02 9.013221e+01 4.818213e-01 8.188531e+01 8.064847e-01 7.379802e+01 1.032998e+00 6.583724e+01 1.180074e+00 5.797666e+01 1.261496e+00 5.019528e+01 1.288456e+00 4.247666e+01 1.271005e+00 3.480841e+01 1.218297e+00 2.718143e+01 1.138239e+00 1.958846e+01 1.037430e+00 1.202266e+01 9.213191e-01 4.476702e+00 7.948257e-01 -3.057187e+00 6.629129e-01 -1.058669e+01 5.307334e-01 -1.811874e+01 4.033444e-01 -2.565969e+01 2.850061e-01 -3.321628e+01 1.784558e-01 -4.079705e+01 8.408677e-02 -4.841272e+01 -1.701159e-03 -5.607590e+01 -9.014634e-02 -6.380363e+01 -1.969607e-01 -7.161972e+01 -3.397399e-01 -7.955426e+01 -5.386936e-01 -8.764299e+01 -8.181864e-01 -9.592754e+01 -1.208254e+00 -1.044568e+02 
-1.380039e+00 -1.124180e+02 -2.159943e+00 -1.216906e+02 -3.209428e+00 1.255947e+02 -2.001924e+00 1.162136e+02 -1.038509e+00 1.071866e+02 -2.795449e-01 9.846500e+01 3.083900e-01 9.000202e+01 7.531069e-01 8.175395e+01 1.078733e+00 7.368076e+01 1.307702e+00 6.574786e+01 1.458935e+00 5.792702e+01 1.546985e+00 5.019527e+01 1.583712e+00 4.253423e+01 1.579434e+00 3.492956e+01 1.543197e+00 2.737018e+01 1.482619e+00 1.984701e+01 1.403889e+00 1.235174e+01 1.311973e+00 4.876067e+00 1.211135e+00 -2.588378e+00 1.105415e+00 -1.004967e+01 9.987672e-01 -1.751523e+01 8.948409e-01 -2.499209e+01 7.963922e-01 -3.248792e+01 7.046404e-01 -4.001223e+01 6.185096e-01 -4.757697e+01 5.333669e-01 -5.519655e+01 4.386903e-01 -6.288948e+01 3.195212e-01 -7.068056e+01 1.584698e-01 -7.860087e+01 -6.467839e-02 -8.668747e+01 -3.742863e-01 -9.498368e+01 -8.003391e-01 -1.035404e+02 
-1.914453e+00 -1.138720e+02 -2.713067e+00 -1.232097e+02 -3.785833e+00 1.263420e+02 -2.548182e+00 1.168913e+02 -1.559063e+00 1.077905e+02 -7.782084e-01 9.899205e+01 -1.711092e-01 9.045027e+01 2.911735e-01 8.212259e+01 6.333995e-01 7.397043e+01 8.773607e-01 6.596028e+01 1.041319e+00 5.806414e+01 1.139806e+00 5.025909e+01 1.184708e+00 4.252663e+01 1.186204e+00 3.485209e+01 1.153188e+00 2.722384e+01 1.093323e+00 1.963222e+01 1.013109e+00 1.206865e+01 9.180436e-01 4.524838e+00 8.129629e-01 -3.007396e+00 7.023342e-01 -1.053610e+01 5.903214e-01 -1.806910e+01 4.805656e-01 -2.561429e+01 3.756921e-01 -3.318023e+01 2.766675e-01 -4.077696e+01 1.819924e-01 -4.841649e+01 8.658864e-02 -5.611330e+01 -1.954125e-02 -6.388583e+01 -1.504048e-01 -7.175785e+01 -3.230369e-01 -7.975890e+01 -5.578395e-01 -8.792448e+01 -8.796657e-01 -9.629676e+01 -1.319186e+00 -1.049259e+02 
-1.504311e+00 -1.128487e+02 -2.335968e+00 -1.222206e+02 -3.445036e+00 1.261716e+02 -2.213937e+00 1.166841e+02 -1.232314e+00 1.075612e+02 -4.590607e-01 9.875503e+01 1.410496e-01 9.021915e+01 5.976773e-01 8.191019e+01 9.361634e-01 7.378856e+01 1.178573e+00 6.581950e+01 1.343421e+00 5.797362e+01 1.445663e+00 5.022644e+01 1.497554e+00 4.255796e+01 1.509419e+00 3.495194e+01 1.490051e+00 2.739528e+01 1.446825e+00 1.987697e+01 1.385817e+00 1.238729e+01 1.311987e+00 4.917173e+00 1.229486e+00 -2.542143e+00 1.141919e+00 -9.999117e+00 1.052413e+00 -1.746201e+01 9.634429e-01 -2.493920e+01 8.764214e-01 -3.243991e+01 7.911480e-01 -3.997493e+01 7.051269e-01 -4.755722e+01 6.126962e-01 -5.520246e+01 5.040530e-01 -6.293022e+01 3.656035e-01 -7.076525e+01 1.805931e-01 -7.873799e+01 -7.119630e-02 -8.688504e+01 -4.144325e-01 -9.524981e+01 -8.795510e-01 -1.038838e+02 
-1.992276e+00 -1.141169e+02 -2.829845e+00 -1.235211e+02 -3.946823e+00 1.266607e+02 -2.697536e+00 1.171397e+02 -1.700104e+00 1.079766e+02 -9.131120e-01 9.912404e+01 -3.006713e-01 9.053667e+01 1.674313e-01 8.217215e+01 5.167224e-01 7.399210e+01 7.688968e-01 6.596285e+01 9.420309e-01 5.805567e+01 1.050870e+00 5.024659e+01 1.107535e+00 4.251584e+01 1.122207e+00 3.484735e+01 1.103571e+00 2.722794e+01 1.059044e+00 1.964658e+01 9.949253e-01 1.209358e+01 9.165654e-01 4.559986e+00 8.285658e-01 -2.962779e+00 7.349263e-01 -1.048312e+01 6.390457e-01 -1.800943e+01 5.435291e-01 -2.555045e+01 4.498071e-01 -3.311572e+01 3.576114e-01 -4.071615e+01 2.643347e-01 -4.836458e+01 1.642941e-01 -5.607641e+01 4.807308e-02 -6.387070e+01 -9.735694e-02 -7.177115e+01 -2.884409e-01 -7.980680e+01 -5.454178e-01 -8.801275e+01 -8.932217e-01 -9.643106e+01 -1.362728e+00 -1.051122e+02 
-1.535673e+00 -1.129298e+02 -2.392337e+00 -1.223362e+02 -3.529077e+00 1.262530e+02 -2.298524e+00 1.167306e+02 -1.318828e+00 1.075775e+02 -5.479870e-01 9.874574e+01 5.032404e-02 9.018933e+01 5.067371e-01 8.186511e+01 8.471159e-01 7.373384e+01 1.093364e+00 6.576085e+01 1.263740e+00 5.791634e+01 1.373205e+00 5.017518e+01 1.434047e+00 4.251650e+01 1.456469e+00 3.492306e+01 1.449006e+00 2.738064e+01 1.418761e+00 1.987724e+01 1.371581e+00 1.240236e+01 1.312245e+00 4.946469e+00 1.244654e+00 -2.499435e+00 1.171984e+00 -9.944061e+00 1.096702e+00 -1.739610e+01 1.020415e+00 -2.486459e+01 9.435615e-01 -3.235948e+01 8.649685e-01 -3.989218e+01 7.813167e-01 -4.747619e+01 6.865364e-01 -5.512773e+01 5.712580e-01 -6.286666e+01 4.227326e-01 -7.071748e+01 2.248448e-01 -7.871002e+01 -4.230101e-02 -8.688018e+01 -4.032542e-01 -9.527090e+01 -8.884393e-01 -1.039335e+02 
-1.975874e+00 -1.140203e+02 -2.824923e+00 -1.234267e+02 -3.953427e+00 1.264900e+02 -2.717015e+00 1.169699e+02 -1.731855e+00 1.078093e+02 -9.559473e-01 9.896099e+01 -3.526469e-01 9.037952e+01 1.088594e-01 8.202284e+01 4.543613e-01 7.385289e+01 7.054052e-01 6.583618e+01 8.798180e-01 5.794395e+01 9.922119e-01 5.015194e+01 1.054596e+00 4.243997e+01 1.076956e+00 3.479136e+01 1.067694e+00 2.719232e+01 1.033921e+00 1.963119e+01 9.816641e-01 1.209782e+01 9.160239e-01 4.582988e+00 8.413095e-01 -2.922032e+00 7.611045e-01 -1.042576e+01 6.782252e-01 -1.793682e+01 5.945438e-01 -2.546426e+01 5.106793e-01 -3.301799e+01 4.255820e-01 -4.060925e+01 3.360442e-01 -4.825116e+01 2.361784e-01 -5.595937e+01 1.169708e-01 -6.375290e+01 -3.389969e-02 -7.165503e+01 -2.322424e-01 -7.969409e+01 -4.978408e-01 -8.790436e+01 -8.553084e-01 -9.632717e+01 -1.335274e+00 -1.050124e+02 