# vtk DataFile Version 2.0
Comment goes here
ASCII

DATASET STRUCTURED_POINTS
FIELD FieldData 1
TIME 1 1 double
0.05900000
DIMENSIONS    64   64   1

ORIGIN    0.000   0.000   0.000
SPACING   0.03125 0.03125   1.000

POINT_DATA   4096
SCALARS uX double
LOOKUP_TABLE default

7.032756e-01 -1.657894e+00 4.545951e-01 -1.484401e+00 1.179555e-01 -1.308647e+00 1.433849e-01 -1.092277e+00 8.575250e-02 -9.169501e-01 1.681956e-02 -7.887982e-01 -2.777881e-02 -7.079184e-01 -4.039338e-02 -6.561804e-01 -3.584592e-02 -6.128788e-01 -4.407161e-02 -5.604156e-01 -8.361208e-02 -4.762185e-01 -1.703784e-01 -3.406408e-01 -3.200846e-01 -1.481801e-01 -5.187768e-01 7.781285e-02 -7.344902e-01 3.051849e-01 -9.405248e-01 5.148576e-01 -1.125483e+00 6.979378e-01 -1.280499e+00 8.436891e-01 -1.393655e+00 9.393598e-01 -1.446051e+00 9.595902e-01 -1.410446e+00 8.788764e-01 -1.278781e+00 7.120409e-01 -1.088720e+00 5.029734e-01 -8.789327e-01 2.727580e-01 -6.622915e-01 2.117752e-02 -4.340740e-01 -2.556526e-01 -1.847192e-01 -5.464211e-01 6.484659e-02 -8.222273e-01 2.753450e-01 -1.047314e+00 4.236718e-01 -1.223312e+00 5.241413e-01 -1.377598e+00 5.969677e-01 -1.530138e+00 
-4.333041e-01 4.348346e-01 -2.280248e-01 3.565256e-01 8.195269e-02 2.704273e-01 -1.271945e-01 1.434770e-01 -2.136736e-01 5.744046e-02 -2.616160e-01 7.656373e-04 -3.075623e-01 -3.509887e-02 -3.659552e-01 -6.469236e-02 -4.358939e-01 -9.392879e-02 -4.804647e-01 -1.230020e-01 -4.891806e-01 -1.678749e-01 -4.634831e-01 -2.383815e-01 -3.978888e-01 -3.369146e-01 -3.073842e-01 -4.535965e-01 -2.084536e-01 -5.701771e-01 -1.102591e-01 -6.805898e-01 -1.542828e-02 -7.847453e-01 6.866652e-02 -8.741996e-01 1.316394e-01 -9.392826e-01 1.642422e-01 -9.673234e-01 1.547798e-01 -9.434213e-01 9.863204e-02 -8.714602e-01 1.877611e-02 -7.761412e-01 -5.897984e-02 -6.667761e-01 -1.252606e-01 -5.394748e-01 -1.836792e-01 -3.962017e-01 -2.584195e-01 -2.453408e-01 -3.410435e-01 -1.032315e-01 -4.050046e-01 9.054667e-03 -4.304714e-01 9.440115e-02 -4.234832e-01 1.719447e-01 -3.924628e-01 2.597675e-01 
1.379740e+00 6.579252e-01 1.152394e+00 5.573878e-01 8.959775e-01 4.540383e-01 1.489447e+00 3.870372e-01 1.880196e+00 2.864946e-01 2.165215e+00 2.050500e-01 2.378142e+00 1.735515e-01 2.547689e+00 1.932655e-01 2.707157e+00 2.316231e-01 2.818291e+00 2.433110e-01 2.901490e+00 2.224729e-01 2.995819e+00 1.521067e-01 3.122419e+00 2.962259e-02 3.286193e+00 -1.100695e-01 3.455848e+00 -2.478697e-01 3.605789e+00 -3.708556e-01 3.733166e+00 -4.690811e-01 3.839828e+00 -5.384948e-01 3.921790e+00 -5.780234e-01 3.969262e+00 -5.746792e-01 3.962725e+00 -5.145885e-01 3.886990e+00 -4.111174e-01 3.760133e+00 -2.980728e-01 3.600146e+00 -1.987501e-01 3.407501e+00 -1.151674e-01 3.163103e+00 -1.610178e-02 2.904997e+00 1.077579e-01 2.653389e+00 2.365658e-01 2.425027e+00 3.414829e-01 2.221490e+00 4.169868e-01 2.014253e+00 4.877215e-01 1.762736e+00 5.780889e-01 
3.385267e+00 -1.693746e-01 2.528999e+00 -2.946440e-01 1.253885e+00 -2.229741e-01 2.725077e+00 -1.500879e-01 3.499322e+00 -1.233507e-01 4.019168e+00 -1.152913e-01 4.430823e+00 -9.905092e-02 4.805326e+00 -2.472160e-02 5.170449e+00 1.866144e-01 5.457163e+00 3.020014e-01 5.590189e+00 3.468529e-01 5.685294e+00 3.731134e-01 5.755392e+00 4.015809e-01 5.808788e+00 4.340020e-01 5.838451e+00 4.667162e-01 5.843954e+00 5.025081e-01 5.831253e+00 5.480136e-01 5.810269e+00 5.969325e-01 5.792179e+00 6.369487e-01 5.785650e+00 6.578910e-01 5.798028e+00 6.549469e-01 5.820141e+00 6.386554e-01 5.816827e+00 6.254132e-01 5.759758e+00 6.000864e-01 5.636348e+00 5.269840e-01 5.455868e+00 4.033845e-01 5.238493e+00 2.606605e-01 5.051379e+00 1.593256e-01 4.863986e+00 1.088411e-01 4.626004e+00 8.589504e-02 4.310181e+00 6.008622e-02 3.886532e+00 1.684219e-03 
3.465480e+00 8.744510e-03 2.772502e+00 -1.697307e-01 1.755595e+00 -1.379728e-01 2.868905e+00 -1.684082e-01 3.590985e+00 -1.534618e-01 4.101371e+00 -1.432178e-01 4.506466e+00 -1.298162e-01 4.879025e+00 -7.460641e-02 5.285503e+00 2.643524e-01 5.523314e+00 3.641474e-01 5.627980e+00 4.055539e-01 5.720923e+00 4.260085e-01 5.803535e+00 4.412083e-01 5.880249e+00 4.477721e-01 5.929748e+00 4.514540e-01 5.951124e+00 4.634173e-01 5.951313e+00 4.911885e-01 5.939732e+00 5.265838e-01 5.925283e+00 5.573624e-01 5.915842e+00 5.730759e-01 5.921274e+00 5.716143e-01 5.933525e+00 5.696691e-01 5.918936e+00 5.804278e-01 5.852333e+00 5.928127e-01 5.715324e+00 5.719077e-01 5.453746e+00 4.154248e-01 5.220049e+00 2.767320e-01 5.034315e+00 1.979071e-01 4.850342e+00 1.673608e-01 4.620977e+00 1.575661e-01 4.321344e+00 1.375905e-01 3.936654e+00 7.432007e-02 
3.643550e+00 -1.200907e-01 3.023782e+00 -1.643451e-01 2.216587e+00 -1.699628e-01 3.008183e+00 -1.475158e-01 3.672285e+00 -1.283698e-01 4.152455e+00 -1.371206e-01 4.523829e+00 -1.961833e-01 4.894231e+00 -3.195553e-01 5.378092e+00 3.841568e-01 5.626512e+00 4.155250e-01 5.667380e+00 4.100058e-01 5.748348e+00 4.191225e-01 5.824045e+00 4.183344e-01 5.903420e+00 4.350550e-01 5.944503e+00 4.631847e-01 5.944544e+00 4.977554e-01 5.926886e+00 5.480282e-01 5.901612e+00 6.026968e-01 5.877582e+00 6.422982e-01 5.867431e+00 6.547258e-01 5.886247e+00 6.387316e-01 5.916774e+00 6.259573e-01 5.925082e+00 6.307065e-01 5.887938e+00 6.557306e-01 5.748613e+00 7.031242e-01 5.496334e+00 4.397070e-01 5.221142e+00 2.200087e-01 5.062789e+00 1.345307e-01 4.910179e+00 9.820186e-02 4.706491e+00 7.028348e-02 4.433793e+00 3.087506e-02 4.079856e+00 -3.348130e-02 
3.819633e+00 6.342487e-03 3.325041e+00 -4.932364e-02 2.679753e+00 -5.524759e-02 3.242735e+00 -8.526253e-02 3.771975e+00 -9.332956e-02 4.185217e+00 -1.159294e-01 4.515271e+00 -2.027075e-01 4.852752e+00 -3.368741e-01 5.354131e+00 3.292805e-01 5.524979e+00 2.910959e-01 5.597330e+00 3.274428e-01 5.691484e+00 3.457807e-01 5.774393e+00 3.321686e-01 5.880820e+00 3.451871e-01 5.936529e+00 3.730288e-01 5.939387e+00 4.015511e-01 5.927989e+00 4.515948e-01 5.910306e+00 5.047947e-01 5.890861e+00 5.404963e-01 5.880376e+00 5.456337e-01 5.902775e+00 5.133561e-01 5.941144e+00 5.070063e-01 5.959688e+00 5.380556e-01 5.949393e+00 6.616954e-01 5.816452e+00 1.138501e+00 5.421601e+00 4.126773e-01 5.144484e+00 1.383313e-01 5.054959e+00 1.167071e-01 4.935142e+00 1.280958e-01 4.752771e+00 1.287822e-01 4.509612e+00 1.108743e-01 4.202110e+00 7.228012e-02 
4.051712e+00 -5.016486e-02 3.629488e+00 -5.966837e-02 3.106587e+00 -6.550263e-02 3.501155e+00 -6.817041e-02 3.931050e+00 -4.954651e-02 4.283534e+00 -1.617286e-02 4.520858e+00 2.959764e-02 4.562429e+00 7.659909e-02 4.259278e+00 -9.547643e-01 4.271762e+00 -1.072478e+00 4.500598e+00 -1.024138e+00 4.608153e+00 -9.588880e-01 4.652471e+00 -8.749830e-01 4.645018e+00 -8.065367e-01 4.654814e+00 -7.529939e-01 4.691967e+00 -7.136557e-01 4.730708e+00 -6.942745e-01 4.761093e+00 -6.846727e-01 4.776413e+00 -6.622046e-01 4.766179e+00 -6.162346e-01 4.725817e+00 -5.536034e-01 4.685258e+00 -4.998877e-01 4.677949e+00 -4.601256e-01 4.729879e+00 -3.990410e-01 4.896163e+00 -2.670424e-01 4.886615e+00 -2.045076e-01 5.076843e+00 -4.164554e-02 5.109031e+00 3.998410e-02 5.021038e+00 6.423202e-02 4.864070e+00 5.920691e-02 4.651805e+00 3.544053e-02 4.382763e+00 -2.581766e-03 
4.273856e+00 4.163724e-02 3.944610e+00 2.931937e-02 3.532519e+00 2.361040e-02 3.797319e+00 6.099164e-03 4.100914e+00 2.005955e-02 4.347032e+00 9.529030e-02 4.433445e+00 2.501361e-01 4.150622e+00 3.688172e-01 3.112979e+00 -1.832594e+00 2.970578e+00 -2.028999e+00 3.201698e+00 -2.190787e+00 3.265941e+00 -2.233110e+00 3.252479e+00 -2.161041e+00 3.094457e+00 -2.119066e+00 3.027738e+00 -2.104055e+00 3.089165e+00 -2.113902e+00 3.189301e+00 -2.209675e+00 3.290283e+00 -2.331863e+00 3.367019e+00 -2.404722e+00 3.384063e+00 -2.381942e+00 3.277559e+00 -2.245368e+00 3.104626e+00 -2.148910e+00 3.003923e+00 -2.132386e+00 3.031325e+00 -2.277017e+00 3.359755e+00 -3.020806e+00 4.585587e+00 -1.066761e+00 5.210719e+00 -1.871415e-01 5.230323e+00 4.673258e-02 5.109131e+00 1.026081e-01 4.953290e+00 1.114700e-01 4.767095e+00 1.006959e-01 4.543015e+00 7.647971e-02 
4.516299e+00 7.872159e-03 4.249507e+00 1.881925e-02 3.925377e+00 1.354181e-02 4.090437e+00 8.798177e-04 4.311006e+00 6.194949e-03 4.512116e+00 4.436456e-02 4.622804e+00 1.293312e-01 4.568958e+00 2.143419e-01 4.416153e+00 -4.331283e-01 4.249147e+00 -6.345146e-01 4.352083e+00 -7.640588e-01 4.387488e+00 -8.509440e-01 4.373134e+00 -8.806534e-01 4.305061e+00 -9.042909e-01 4.264777e+00 -9.351933e-01 4.281378e+00 -9.754136e-01 4.323031e+00 -1.043399e+00 4.370463e+00 -1.120344e+00 4.406397e+00 -1.172670e+00 4.410035e+00 -1.180796e+00 4.357470e+00 -1.144804e+00 4.279389e+00 -1.127885e+00 4.232540e+00 -1.156711e+00 4.243467e+00 -1.266285e+00 4.403918e+00 -1.527681e+00 4.882974e+00 -7.259246e-01 5.236407e+00 -1.822149e-01 5.267276e+00 -3.338268e-05 5.187754e+00 5.008602e-02 5.069684e+00 5.714766e-02 4.920183e+00 4.638591e-02 4.736610e+00 2.714177e-02 
4.747827e+00 7.797258e-02 4.553714e+00 8.849180e-02 4.315001e+00 8.364222e-02 4.399884e+00 5.542984e-02 4.538193e+00 2.158509e-02 4.693482e+00 -3.039574e-02 4.849832e+00 -1.395212e-01 5.081099e+00 -2.983004e-01 5.570845e+00 5.784988e-01 5.716765e+00 5.795411e-01 5.711888e+00 5.649726e-01 5.765554e+00 5.260301e-01 5.825029e+00 4.621652e-01 5.918349e+00 4.359118e-01 5.963698e+00 4.329829e-01 5.957830e+00 4.336161e-01 5.943049e+00 4.558031e-01 5.929677e+00 4.788825e-01 5.922009e+00 4.820753e-01 5.927724e+00 4.570064e-01 5.966230e+00 4.013962e-01 6.019156e+00 3.809826e-01 6.046688e+00 4.108567e-01 6.039191e+00 5.489679e-01 5.950893e+00 1.019482e+00 5.536977e+00 2.635957e-01 5.342047e+00 4.508249e-02 5.302181e+00 5.693648e-02 5.250237e+00 8.663446e-02 5.164723e+00 1.000411e-01 5.050887e+00 9.928623e-02 4.911724e+00 8.969668e-02 
4.984094e+00 5.668609e-02 4.842406e+00 8.025923e-02 4.674097e+00 7.603905e-02 4.695632e+00 5.313276e-02 4.777866e+00 2.169452e-02 4.899545e+00 -3.212705e-02 5.055644e+00 -1.417212e-01 5.311073e+00 -2.949435e-01 5.677608e+00 3.893616e-01 5.897417e+00 4.936683e-01 5.858727e+00 4.862099e-01 5.881625e+00 4.750852e-01 5.926875e+00 4.486885e-01 5.996136e+00 4.463686e-01 6.034993e+00 4.604763e-01 6.030221e+00 4.811153e-01 6.009354e+00 5.156393e-01 5.986923e+00 5.535652e-01 5.970066e+00 5.748121e-01 5.970334e+00 5.683316e-01 6.003036e+00 5.387521e-01 6.046991e+00 5.293400e-01 6.071538e+00 5.586914e-01 6.055084e+00 6.514827e-01 5.909010e+00 8.577869e-01 5.739294e+00 4.358647e-01 5.464018e+00 1.304343e-01 5.384041e+00 6.230352e-02 5.345422e+00 6.100661e-02 5.288549e+00 6.498840e-02 5.207474e+00 6.316880e-02 5.105026e+00 5.795454e-02 
5.209543e+00 1.133677e-01 5.126511e+00 1.370273e-01 5.028128e+00 1.333703e-01 4.998809e+00 1.048271e-01 5.028526e+00 6.290374e-02 5.110635e+00 6.348706e-03 5.241006e+00 -5.848503e-02 5.443044e+00 -7.195932e-02 5.705262e+00 3.418798e-01 5.901088e+00 4.585183e-01 5.898632e+00 4.671615e-01 5.921000e+00 4.647980e-01 5.956984e+00 4.528030e-01 6.010127e+00 4.514395e-01 6.046168e+00 4.508176e-01 6.053666e+00 4.548409e-01 6.041764e+00 4.725572e-01 6.028338e+00 4.965149e-01 6.019113e+00 5.145276e-01 6.019009e+00 5.197024e-01 6.038379e+00 5.167993e-01 6.069111e+00 5.260486e-01 6.083650e+00 5.577333e-01 6.063220e+00 6.042753e-01 5.983013e+00 6.387336e-01 5.737044e+00 4.047759e-01 5.538921e+00 1.979860e-01 5.462872e+00 1.177169e-01 5.432202e+00 1.036598e-01 5.396647e+00 1.065330e-01 5.345929e+00 1.093102e-01 5.282310e+00 1.099958e-01 
5.432044e+00 1.008303e-01 5.392964e+00 1.324413e-01 5.353602e+00 1.295594e-01 5.278263e+00 1.109592e-01 5.262212e+00 7.990127e-02 5.299387e+00 2.697622e-02 5.387754e+00 -6.373638e-02 5.552633e+00 -1.394145e-01 5.733165e+00 3.030974e-01 5.972876e+00 4.364422e-01 5.946097e+00 4.196943e-01 5.961191e+00 4.197496e-01 5.990824e+00 4.092568e-01 6.034632e+00 4.285106e-01 6.060434e+00 4.516562e-01 6.053340e+00 4.716115e-01 6.027151e+00 4.927056e-01 6.007806e+00 5.145863e-01 5.999295e+00 5.266474e-01 6.005148e+00 5.230297e-01 6.030503e+00 5.150609e-01 6.061861e+00 5.256454e-01 6.079254e+00 5.520478e-01 6.064979e+00 6.120267e-01 5.962794e+00 7.680010e-01 5.841090e+00 4.553725e-01 5.598832e+00 1.762124e-01 5.543763e+00 9.771780e-02 5.539129e+00 8.548185e-02 5.526744e+00 8.632609e-02 5.501638e+00 8.809651e-02 5.468421e+00 9.108014e-02 
5.643872e+00 1.493137e-01 5.652801e+00 1.813979e-01 5.672494e+00 1.791807e-01 5.559587e+00 1.651920e-01 5.503303e+00 1.463176e-01 5.499038e+00 1.269734e-01 5.534862e+00 1.083523e-01 5.587595e+00 8.429857e-02 5.645533e+00 1.731760e-03 5.634787e+00 -4.900835e-02 5.664186e+00 -1.156541e-02 5.686171e+00 2.323570e-02 5.701872e+00 4.597612e-02 5.722563e+00 6.447467e-02 5.739565e+00 8.005165e-02 5.748357e+00 9.699498e-02 5.748623e+00 1.196012e-01 5.745725e+00 1.469115e-01 5.740022e+00 1.742002e-01 5.733651e+00 1.963844e-01 5.732299e+00 2.121385e-01 5.737335e+00 2.291662e-01 5.740842e+00 2.441853e-01 5.743944e+00 2.626035e-01 5.749369e+00 3.664627e-01 5.635898e+00 2.078102e-01 5.594396e+00 1.226993e-01 5.620321e+00 1.104967e-01 5.638101e+00 1.154458e-01 5.642836e+00 1.222672e-01 5.641556e+00 1.285839e-01 5.640285e+00 1.359510e-01 
5.848166e+00 1.426218e-01 5.894421e+00 1.780714e-01 5.964377e+00 1.766310e-01 5.816310e+00 1.725681e-01 5.721922e+00 1.750990e-01 5.666158e+00 2.088463e-01 5.605909e+00 3.110244e-01 5.437680e+00 4.073408e-01 5.216423e+00 -5.086148e-01 4.801408e+00 -8.044101e-01 4.880043e+00 -7.762417e-01 4.866979e+00 -7.723655e-01 4.838453e+00 -7.504195e-01 4.787957e+00 -7.898311e-01 4.761634e+00 -8.188817e-01 4.783205e+00 -8.187709e-01 4.834513e+00 -8.035183e-01 4.859102e+00 -7.830006e-01 4.855812e+00 -7.548244e-01 4.832594e+00 -7.198678e-01 4.789445e+00 -7.018514e-01 4.745426e+00 -7.247567e-01 4.726434e+00 -7.667145e-01 4.756445e+00 -8.601079e-01 4.910933e+00 -1.164549e+00 5.169383e+00 -5.289126e-01 5.617763e+00 -4.454865e-02 5.741896e+00 8.585350e-02 5.763598e+00 1.107445e-01 5.774901e+00 1.153295e-01 5.790629e+00 1.187104e-01 5.813891e+00 1.260632e-01 
6.041825e+00 1.849871e-01 6.128127e+00 2.201143e-01 6.248422e+00 2.193954e-01 6.067993e+00 2.173690e-01 5.937371e+00 2.206604e-01 5.840493e+00 2.504292e-01 5.740464e+00 3.315856e-01 5.578132e+00 4.035570e-01 5.433783e+00 -1.215608e-01 5.110946e+00 -3.403660e-01 5.110987e+00 -3.790382e-01 5.083058e+00 -4.235562e-01 5.046480e+00 -4.496254e-01 4.999692e+00 -5.147036e-01 4.973101e+00 -5.709663e-01 4.986455e+00 -6.027695e-01 5.026652e+00 -6.199740e-01 5.049226e+00 -6.305250e-01 5.050193e+00 -6.321356e-01 5.034731e+00 -6.252600e-01 5.003644e+00 -6.304711e-01 4.973408e+00 -6.702645e-01 4.966559e+00 -7.284347e-01 4.999974e+00 -8.262437e-01 5.123281e+00 -1.081994e+00 5.334147e+00 -5.391661e-01 5.719209e+00 -6.164720e-02 5.832933e+00 9.235308e-02 5.861597e+00 1.326432e-01 5.887291e+00 1.453444e-01 5.923786e+00 1.538632e-01 5.974163e+00 1.652345e-01 
6.225050e+00 1.811510e-01 6.343835e+00 2.154231e-01 6.506678e+00 2.154750e-01 6.298808e+00 2.127373e-01 6.141571e+00 2.038704e-01 6.026892e+00 1.863783e-01 5.950028e+00 1.414324e-01 5.936219e+00 7.954470e-02 5.972112e+00 4.074428e-01 6.058400e+00 4.714674e-01 5.995719e+00 4.280301e-01 5.987096e+00 4.054172e-01 5.983135e+00 3.776907e-01 5.989960e+00 3.743875e-01 5.989589e+00 3.711954e-01 5.976339e+00 3.629560e-01 5.957357e+00 3.530657e-01 5.949145e+00 3.426106e-01 5.949597e+00 3.289730e-01 5.957212e+00 3.101687e-01 5.974172e+00 2.905296e-01 5.996618e+00 2.801742e-01 6.017897e+00 2.725190e-01 6.031918e+00 2.904956e-01 6.021231e+00 4.406254e-01 5.949096e+00 2.150806e-01 5.882014e+00 1.214703e-01 5.910367e+00 1.272456e-01 5.953238e+00 1.383399e-01 6.000244e+00 1.441010e-01 6.057488e+00 1.499224e-01 6.130684e+00 1.606028e-01 
6.397948e+00 2.176150e-01 6.550615e+00 2.510497e-01 6.756135e+00 2.518195e-01 6.523815e+00 2.519765e-01 6.343079e+00 2.445699e-01 6.209390e+00 2.234216e-01 6.127540e+00 1.656112e-01 6.125776e+00 9.151926e-02 6.143784e+00 3.808427e-01 6.251009e+00 4.769932e-01 6.187643e+00 4.530808e-01 6.164558e+00 4.489426e-01 6.158750e+00 4.382452e-01 6.165113e+00 4.491609e-01 6.166862e+00 4.590718e-01 6.153350e+00 4.621855e-01 6.130758e+00 4.615672e-01 6.117542e+00 4.605201e-01 6.114185e+00 4.561621e-01 6.120026e+00 4.452793e-01 6.137121e+00 4.344964e-01 6.158706e+00 4.353094e-01 6.177282e+00 4.403228e-01 6.183646e+00 4.737843e-01 6.136617e+00 6.028200e-01 6.097662e+00 3.781528e-01 5.973951e+00 1.899648e-01 5.987007e+00 1.580506e-01 6.039735e+00 1.629610e-01 6.102470e+00 1.710768e-01 6.178940e+00 1.805940e-01 6.275504e+00 1.946373e-01 
6.558866e+00 2.156158e-01 6.739483e+00 2.459371e-01 6.980820e+00 2.473814e-01 6.729892e+00 2.477296e-01 6.532113e+00 2.411182e-01 6.385092e+00 2.301003e-01 6.289996e+00 2.196240e-01 6.248767e+00 2.316849e-01 6.235545e+00 3.403730e-01 6.267067e+00 4.062090e-01 6.232694e+00 4.278379e-01 6.208067e+00 4.376372e-01 6.193332e+00 4.427547e-01 6.186414e+00 4.522105e-01 6.178010e+00 4.595837e-01 6.162882e+00 4.635536e-01 6.143563e+00 4.668500e-01 6.130137e+00 4.694634e-01 6.125585e+00 4.693130e-01 6.129738e+00 4.657191e-01 6.142296e+00 4.625933e-01 6.158392e+00 4.631785e-01 6.170109e+00 4.673170e-01 6.171841e+00 4.720148e-01 6.157808e+00 4.699153e-01 6.130335e+00 3.663875e-01 6.078956e+00 2.550288e-01 6.087241e+00 2.014534e-01 6.135847e+00 1.825847e-01 6.207024e+00 1.782564e-01 6.298450e+00 1.820769e-01 6.413850e+00 1.937395e-01 
6.709535e+00 2.468695e-01 6.918776e+00 2.759890e-01 7.195899e+00 2.781032e-01 6.926305e+00 2.810887e-01 6.710609e+00 2.766500e-01 6.545504e+00 2.676765e-01 6.430077e+00 2.636948e-01 6.357702e+00 2.878673e-01 6.305573e+00 3.526290e-01 6.316241e+00 4.118787e-01 6.285153e+00 4.316005e-01 6.253724e+00 4.379097e-01 6.231844e+00 4.409845e-01 6.216732e+00 4.462762e-01 6.202979e+00 4.497530e-01 6.186612e+00 4.500444e-01 6.168947e+00 4.492681e-01 6.156410e+00 4.477684e-01 6.151948e+00 4.446092e-01 6.155540e+00 4.401730e-01 6.165953e+00 4.376063e-01 6.178808e+00 4.374937e-01 6.188543e+00 4.396052e-01 6.190084e+00 4.387039e-01 6.179797e+00 4.173848e-01 6.176463e+00 3.566358e-01 6.146160e+00 2.744447e-01 6.160024e+00 2.256615e-01 6.215753e+00 2.066072e-01 6.298827e+00 2.034054e-01 6.406136e+00 2.094516e-01 6.541082e+00 2.234628e-01 
6.847576e+00 2.466001e-01 7.080105e+00 2.726760e-01 7.387022e+00 2.754318e-01 7.102405e+00 2.817752e-01 6.871551e+00 2.834858e-01 6.689602e+00 2.852083e-01 6.553155e+00 2.942553e-01 6.455288e+00 3.181891e-01 6.387975e+00 3.581140e-01 6.356225e+00 3.940368e-01 6.317856e+00 4.176057e-01 6.282793e+00 4.314043e-01 6.254469e+00 4.403527e-01 6.232027e+00 4.472263e-01 6.212346e+00 4.513623e-01 6.193361e+00 4.531175e-01 6.175698e+00 4.539550e-01 6.163157e+00 4.539278e-01 6.158060e+00 4.524909e-01 6.160381e+00 4.498440e-01 6.168802e+00 4.470539e-01 6.180285e+00 4.433019e-01 6.190917e+00 4.362228e-01 6.199540e+00 4.194710e-01 6.206648e+00 3.873434e-01 6.210067e+00 3.419857e-01 6.210953e+00 2.876526e-01 6.239845e+00 2.455947e-01 6.301561e+00 2.214878e-01 6.392188e+00 2.118936e-01 6.510865e+00 2.134266e-01 6.660724e+00 2.248558e-01 
6.975226e+00 2.735303e-01 7.231483e+00 2.983695e-01 7.567866e+00 3.017276e-01 7.267906e+00 3.103939e-01 7.021801e+00 3.144643e-01 6.823078e+00 3.180980e-01 6.667677e+00 3.279596e-01 6.549044e+00 3.484218e-01 6.462327e+00 3.775112e-01 6.412612e+00 4.053184e-01 6.365803e+00 4.235561e-01 6.323677e+00 4.333430e-01 6.288915e+00 4.387355e-01 6.260740e+00 4.419567e-01 6.237054e+00 4.427031e-01 6.216208e+00 4.412947e-01 6.198350e+00 4.389020e-01 6.185870e+00 4.358290e-01 6.180477e+00 4.320342e-01 6.182058e+00 4.278810e-01 6.189270e+00 4.239353e-01 6.199636e+00 4.190801e-01 6.210478e+00 4.108777e-01 6.221109e+00 3.944429e-01 6.232842e+00 3.671926e-01 6.247893e+00 3.322110e-01 6.262542e+00 2.917396e-01 6.300849e+00 2.588638e-01 6.370934e+00 2.396249e-01 6.471780e+00 2.331163e-01 6.603424e+00 2.371531e-01 6.769208e+00 2.506611e-01 
7.089856e+00 2.742458e-01 7.364901e+00 2.966736e-01 7.725404e+00 3.006143e-01 7.412252e+00 3.128923e-01 7.152761e+00 3.218056e-01 6.939017e+00 3.303589e-01 6.767120e+00 3.426835e-01 6.632225e+00 3.605105e-01 6.530627e+00 3.823070e-01 6.457949e+00 4.020346e-01 6.398138e+00 4.180850e-01 6.348241e+00 4.294562e-01 6.307127e+00 4.370893e-01 6.273457e+00 4.418467e-01 6.245501e+00 4.439737e-01 6.222074e+00 4.440969e-01 6.203150e+00 4.430740e-01 6.190116e+00 4.411249e-01 6.184070e+00 4.381326e-01 6.184920e+00 4.340094e-01 6.191716e+00 4.284550e-01 6.202916e+00 4.200924e-01 6.217064e+00 4.067320e-01 6.234346e+00 3.858449e-01 6.255356e+00 3.579500e-01 6.278946e+00 3.267266e-01 6.309991e+00 2.944459e-01 6.361763e+00 2.666103e-01 6.441034e+00 2.477270e-01 6.550175e+00 2.392176e-01 6.691496e+00 2.409564e-01 6.869201e+00 2.527443e-01 
7.194010e+00 2.973781e-01 7.488109e+00 3.187675e-01 7.872128e+00 3.232278e-01 7.546427e+00 3.374054e-01 7.274505e+00 3.480814e-01 7.047310e+00 3.573540e-01 6.861063e+00 3.686043e-01 6.711685e+00 3.829295e-01 6.596125e+00 3.993076e-01 6.510623e+00 4.137902e-01 6.441488e+00 4.250027e-01 6.384375e+00 4.322073e-01 6.337446e+00 4.361003e-01 6.299130e+00 4.374111e-01 6.267865e+00 4.364324e-01 6.242490e+00 4.337176e-01 6.222698e+00 4.299974e-01 6.209223e+00 4.256060e-01 6.202714e+00 4.206140e-01 6.202991e+00 4.149906e-01 6.209221e+00 4.083753e-01 6.220243e+00 3.995565e-01 6.235205e+00 3.867817e-01 6.254540e+00 3.684843e-01 6.279375e+00 3.455984e-01 6.310470e+00 3.203536e-01 6.350595e+00 2.954172e-01 6.410687e+00 2.744563e-01 6.497927e+00 2.608642e-01 6.615897e+00 2.562339e-01 6.767747e+00 2.608846e-01 6.958125e+00 2.748266e-01 
7.284758e+00 2.980540e-01 7.593393e+00 3.176179e-01 7.996052e+00 3.225671e-01 7.659295e+00 3.394380e-01 7.376494e+00 3.530554e-01 7.137568e+00 3.644216e-01 6.939121e+00 3.760431e-01 6.777654e+00 3.887821e-01 6.649605e+00 4.019433e-01 6.549630e+00 4.134205e-01 6.469354e+00 4.229948e-01 6.404219e+00 4.301617e-01 6.351252e+00 4.348577e-01 6.308280e+00 4.372273e-01 6.273558e+00 4.374806e-01 6.245905e+00 4.360576e-01 6.224860e+00 4.334484e-01 6.210705e+00 4.298383e-01 6.203764e+00 4.251381e-01 6.203904e+00 4.190629e-01 6.210620e+00 4.110259e-01 6.223292e+00 4.000021e-01 6.241592e+00 3.848954e-01 6.265992e+00 3.652569e-01 6.297181e+00 3.424172e-01 6.335796e+00 3.187326e-01 6.386346e+00 2.963858e-01 6.456479e+00 2.775936e-01 6.552182e+00 2.647642e-01 6.677870e+00 2.596863e-01 6.837861e+00 2.633857e-01 7.037616e+00 2.764305e-01 
7.365101e+00 3.177801e-01 7.688280e+00 3.366259e-01 8.108757e+00 3.419925e-01 7.762344e+00 3.602432e-01 7.470141e+00 3.749394e-01 7.221286e+00 3.863078e-01 7.012499e+00 3.965436e-01 6.840673e+00 4.065357e-01 6.702527e+00 4.160489e-01 6.593293e+00 4.237151e-01 6.505407e+00 4.294001e-01 6.434153e+00 4.328599e-01 6.376338e+00 4.341101e-01 6.329621e+00 4.333287e-01 6.292203e+00 4.307516e-01 6.262808e+00 4.267810e-01 6.240765e+00 4.218595e-01 6.226011e+00 4.162226e-01 6.218599e+00 4.098757e-01 6.218325e+00 4.026144e-01 6.224777e+00 3.939546e-01 6.237556e+00 3.830988e-01 6.256639e+00 3.692775e-01 6.282706e+00 3.523522e-01 6.316856e+00 3.334625e-01 6.360514e+00 3.142672e-01 6.417254e+00 2.968631e-01 6.493764e+00 2.830608e-01 6.595989e+00 2.747026e-01 6.728789e+00 2.733187e-01 6.896976e+00 2.799274e-01 7.106400e+00 2.951152e-01 
7.431660e+00 3.176465e-01 7.765260e+00 3.351699e-01 8.199040e+00 3.409104e-01 7.844161e+00 3.609233e-01 7.543815e+00 3.772765e-01 7.286399e+00 3.895583e-01 7.068807e+00 3.997511e-01 6.888054e+00 4.088174e-01 6.740578e+00 4.168012e-01 6.621602e+00 4.231943e-01 6.525397e+00 4.280975e-01 6.447567e+00 4.314408e-01 6.384706e+00 4.331314e-01 6.334188e+00 4.331515e-01 6.294013e+00 4.315964e-01 6.262774e+00 4.286940e-01 6.239655e+00 4.246844e-01 6.224360e+00 4.196454e-01 6.216784e+00 4.134547e-01 6.216760e+00 4.058089e-01 6.224069e+00 3.962330e-01 6.238578e+00 3.841634e-01 6.260455e+00 3.692478e-01 6.290343e+00 3.517467e-01 6.329234e+00 3.328315e-01 6.378710e+00 3.141939e-01 6.442580e+00 2.975615e-01 6.526290e+00 2.844264e-01 6.635134e+00 2.763308e-01 6.774126e+00 2.747498e-01 6.948588e+00 2.808998e-01 7.164900e+00 2.956090e-01 
7.487992e+00 3.344269e-01 7.831732e+00 3.516004e-01 8.277816e+00 3.576393e-01 7.916240e+00 3.784932e-01 7.609473e+00 3.953461e-01 7.345374e+00 4.072455e-01 7.120858e+00 4.160780e-01 6.933142e+00 4.229311e-01 6.778864e+00 4.281370e-01 6.653603e+00 4.315167e-01 6.552005e+00 4.332622e-01 6.469729e+00 4.334597e-01 6.403326e+00 4.321404e-01 6.350092e+00 4.293712e-01 6.307951e+00 4.252933e-01 6.275395e+00 4.201392e-01 6.251453e+00 4.141469e-01 6.235627e+00 4.074335e-01 6.227654e+00 3.999488e-01 6.227315e+00 3.914808e-01 6.234440e+00 3.816772e-01 6.249028e+00 3.701411e-01 6.271421e+00 3.566800e-01 6.302444e+00 3.416048e-01 6.343363e+00 3.258814e-01 6.396078e+00 3.108363e-01 6.463998e+00 2.980130e-01 6.552127e+00 2.887339e-01 6.665669e+00 2.842803e-01 6.809797e+00 2.859017e-01 6.990088e+00 2.946872e-01 7.213177e+00 3.113753e-01 
7.530221e+00 3.330520e-01 7.880285e+00 3.493581e-01 8.334429e+00 3.556432e-01 7.967181e+00 3.775283e-01 7.655000e+00 3.952115e-01 7.385257e+00 4.074543e-01 7.154931e+00 4.161448e-01 6.961245e+00 4.224744e-01 6.800751e+00 4.269881e-01 6.669220e+00 4.298841e-01 6.562038e+00 4.314413e-01 6.475144e+00 4.318037e-01 6.405108e+00 4.309955e-01 6.349137e+00 4.290122e-01 6.305039e+00 4.258877e-01 6.271200e+00 4.217090e-01 6.246538e+00 4.165559e-01 6.230431e+00 4.104156e-01 6.222535e+00 4.031515e-01 6.222651e+00 3.945213e-01 6.230703e+00 3.842300e-01 6.246810e+00 3.720435e-01 6.271384e+00 3.579796e-01 6.305234e+00 3.424962e-01 6.349615e+00 3.265635e-01 6.406494e+00 3.114870e-01 6.479210e+00 2.986360e-01 6.572202e+00 2.892520e-01 6.690306e+00 2.845649e-01 6.838678e+00 2.858176e-01 7.023102e+00 2.941734e-01 7.250509e+00 3.104720e-01 
7.562430e+00 3.474165e-01 7.918288e+00 3.637516e-01 8.379350e+00 3.702049e-01 8.008343e+00 3.924017e-01 7.692591e+00 4.100774e-01 7.419162e+00 4.216697e-01 7.185002e+00 4.290389e-01 6.987431e+00 4.334823e-01 6.823123e+00 4.357183e-01 6.688046e+00 4.361173e-01 6.577778e+00 4.350467e-01 6.488323e+00 4.327529e-01 6.416257e+00 4.293633e-01 6.358754e+00 4.249583e-01 6.313568e+00 4.196296e-01 6.279006e+00 4.134961e-01 6.253884e+00 4.066642e-01 6.237457e+00 3.991651e-01 6.229288e+00 3.909281e-01 6.229141e+00 3.817939e-01 6.236972e+00 3.715651e-01 6.252977e+00 3.601066e-01 6.277686e+00 3.474967e-01 6.312048e+00 3.341635e-01 6.357489e+00 3.209195e-01 6.416110e+00 3.088423e-01 6.491081e+00 2.991321e-01 6.586625e+00 2.929010e-01 6.707500e+00 2.912251e-01 6.858907e+00 2.951881e-01 7.046744e+00 3.058232e-01 7.278080e+00 3.238591e-01 
7.580301e+00 3.445699e-01 7.938340e+00 3.604602e-01 8.402262e+00 3.670255e-01 8.028430e+00 3.896596e-01 7.709955e+00 4.075663e-01 7.433671e+00 4.191524e-01 7.196559e+00 4.263459e-01 6.995906e+00 4.305297e-01 6.828344e+00 4.325556e-01 6.689974e+00 4.329565e-01 6.576692e+00 4.321377e-01 6.484683e+00 4.303502e-01 6.410586e+00 4.277044e-01 6.351566e+00 4.242309e-01 6.305335e+00 4.199369e-01 6.270146e+00 4.148282e-01 6.244754e+00 4.088906e-01 6.228351e+00 4.020556e-01 6.220464e+00 3.941906e-01 6.220864e+00 3.851244e-01 6.229547e+00 3.747039e-01 6.246760e+00 3.628862e-01 6.273057e+00 3.498515e-01 6.309377e+00 3.360912e-01 6.357137e+00 3.224249e-01 6.418428e+00 3.099109e-01 6.496299e+00 2.996875e-01 6.594668e+00 2.928617e-01 6.718061e+00 2.905380e-01 6.871608e+00 2.938418e-01 7.061270e+00 3.038692e-01 7.294257e+00 3.214179e-01 
7.588339e+00 3.570527e-01 7.947862e+00 3.733470e-01 8.413393e+00 3.799444e-01 8.038691e+00 4.023669e-01 7.719389e+00 4.197815e-01 7.442268e+00 4.304636e-01 7.204249e+00 4.363198e-01 7.002629e+00 4.387985e-01 6.834083e+00 4.388523e-01 6.694790e+00 4.371123e-01 6.580731e+00 4.340547e-01 6.488126e+00 4.300033e-01 6.413620e+00 4.251460e-01 6.354362e+00 4.195851e-01 6.308034e+00 4.133868e-01 6.272837e+00 4.066031e-01 6.247464e+00 3.992621e-01 6.231040e+00 3.913456e-01 6.223034e+00 3.827825e-01 6.223203e+00 3.734702e-01 6.231560e+00 3.633239e-01 6.248409e+00 3.523527e-01 6.274386e+00 3.407480e-01 6.310532e+00 3.289489e-01 6.358370e+00 3.176514e-01 6.420052e+00 3.077503e-01 6.498556e+00 3.002399e-01 6.597685e+00 2.961088e-01 6.721902e+00 2.963442e-01 6.876331e+00 3.019516e-01 7.066960e+00 3.139189e-01 7.301036e+00 3.329537e-01 
7.581890e+00 3.525636e-01 7.939384e+00 3.688055e-01 8.402561e+00 3.753777e-01 8.027909e+00 3.977111e-01 7.708577e+00 4.148617e-01 7.431373e+00 4.252785e-01 7.193249e+00 4.309454e-01 6.991416e+00 4.333615e-01 6.822479e+00 4.335449e-01 6.682645e+00 4.321862e-01 6.568017e+00 4.297634e-01 6.474911e+00 4.265744e-01 6.400027e+00 4.227674e-01 6.340540e+00 4.183877e-01 6.294138e+00 4.134234e-01 6.259019e+00 4.078316e-01 6.233862e+00 4.015433e-01 6.217776e+00 3.944591e-01 6.210222e+00 3.864556e-01 6.210964e+00 3.774147e-01 6.220035e+00 3.672719e-01 6.237752e+00 3.560821e-01 6.264753e+00 3.440870e-01 6.302059e+00 3.317602e-01 6.351161e+00 3.198114e-01 6.414159e+00 3.091360e-01 6.493907e+00 3.007253e-01 6.594005e+00 2.955999e-01 6.718744e+00 2.948066e-01 6.873152e+00 2.994213e-01 7.063200e+00 3.105092e-01 7.296168e+00 3.288609e-01 
7.565754e+00 3.636559e-01 7.920443e+00 3.806639e-01 8.379956e+00 3.871305e-01 8.007299e+00 4.087264e-01 7.689842e+00 4.249012e-01 7.414597e+00 4.341431e-01 7.178434e+00 4.383980e-01 6.978491e+00 4.391898e-01 6.811329e+00 4.375876e-01 6.673140e+00 4.343363e-01 6.560031e+00 4.299621e-01 6.468315e+00 4.248133e-01 6.394688e+00 4.190943e-01 6.336317e+00 4.129084e-01 6.290875e+00 4.062991e-01 6.256535e+00 3.992755e-01 6.231948e+00 3.918197e-01 6.216186e+00 3.838867e-01 6.208688e+00 3.754113e-01 6.209212e+00 3.663317e-01 6.217813e+00 3.566298e-01 6.234849e+00 3.463844e-01 6.261020e+00 3.358241e-01 6.297419e+00 3.253632e-01 6.345604e+00 3.156059e-01 6.407709e+00 3.073151e-01 6.486549e+00 3.013537e-01 6.585663e+00 2.986287e-01 6.709280e+00 3.000816e-01 6.862390e+00 3.066888e-01 7.050931e+00 3.194286e-01 7.282141e+00 3.390342e-01 