# vtk DataFile Version 2.0
Comment goes here
ASCII

DATASET STRUCTURED_POINTS
FIELD FieldData 1
TIME 1 1 double
0.00900000
DIMENSIONS    64   64   1

ORIGIN    0.000   0.000   0.000
SPACING   0.03125 0.03125   1.000

POINT_DATA   4096
SCALARS uX double
LOOKUP_TABLE default

4.619021e-02 -3.808549e-01 2.263782e-01 -3.458719e-01 1.570144e-01 -2.571676e-01 5.077970e-02 -1.409298e-01 -5.805991e-02 -2.786017e-02 -1.490382e-01 5.822148e-02 -2.075793e-01 1.110271e-01 -2.360044e-01 1.370791e-01 -2.386338e-01 1.361803e-01 -2.194847e-01 1.174384e-01 -1.914137e-01 1.000087e-01 -1.744228e-01 9.736096e-02 -1.684985e-01 9.477388e-02 -1.559801e-01 8.405663e-02 -1.401446e-01 7.541182e-02 -1.269987e-01 6.709710e-02 -1.153894e-01 6.074976e-02 -1.035862e-01 4.940787e-02 -8.342643e-02 2.801638e-02 -5.318225e-02 -5.721881e-04 -2.160066e-02 -2.767100e-02 6.735293e-03 -5.323575e-02 3.616784e-02 -7.901053e-02 5.871319e-02 -9.251290e-02 6.566351e-02 -1.036053e-01 8.681585e-02 -1.416880e-01 1.345910e-01 -1.924185e-01 1.746418e-01 -2.160196e-01 1.728243e-01 -1.923562e-01 1.228159e-01 -1.213768e-01 2.898863e-02 -2.415619e-02 -6.790866e-02 3.686664e-02 
6.021048e-04 2.928312e-01 -2.978336e-01 3.104351e-01 -2.756493e-01 2.713421e-01 -2.189849e-01 2.070490e-01 -1.629977e-01 1.421222e-01 -1.151602e-01 8.883397e-02 -8.281858e-02 5.159758e-02 -6.585387e-02 2.828405e-02 -6.282431e-02 1.980486e-02 -6.893192e-02 1.996849e-02 -7.829880e-02 1.962307e-02 -7.966157e-02 8.438941e-03 -7.094300e-02 -4.028323e-03 -6.743474e-02 -8.013333e-03 -6.839945e-02 -1.289086e-02 -6.496275e-02 -2.244731e-02 -5.345673e-02 -3.957163e-02 -3.703546e-02 -5.587545e-02 -2.549795e-02 -6.768545e-02 -1.598423e-02 -8.293923e-02 2.443846e-03 -1.066731e-01 2.447977e-02 -1.257739e-01 3.791987e-02 -1.376395e-01 5.331860e-02 -1.564312e-01 8.114543e-02 -1.746766e-01 9.631661e-02 -1.692505e-01 8.699070e-02 -1.506173e-01 7.738572e-02 -1.451638e-01 8.891959e-02 -1.628431e-01 1.233989e-01 -2.027264e-01 1.789624e-01 -2.516260e-01 2.258665e-01 -2.528122e-01 
2.202443e-01 2.928258e-01 -5.895093e-02 2.872459e-01 -1.365715e-02 2.247350e-01 5.233151e-02 1.478986e-01 1.443640e-01 7.295081e-02 2.278625e-01 1.720801e-02 2.884177e-01 -1.470436e-02 3.282365e-01 -2.778019e-02 3.507753e-01 -2.367835e-02 3.552960e-01 -1.047409e-02 3.509969e-01 -1.261052e-03 3.544514e-01 -7.014048e-03 3.671353e-01 -1.449029e-02 3.730538e-01 -1.520926e-02 3.747994e-01 -1.837362e-02 3.789768e-01 -2.337714e-02 3.858309e-01 -3.210631e-02 3.938249e-01 -3.857396e-02 3.958206e-01 -3.934791e-02 3.920379e-01 -3.843098e-02 3.908513e-01 -4.258302e-02 3.931829e-01 -4.780271e-02 3.906379e-01 -5.082521e-02 3.893624e-01 -6.393865e-02 3.961702e-01 -7.914641e-02 3.831129e-01 -6.925718e-02 3.451028e-01 -4.260508e-02 3.099865e-01 -3.130053e-02 3.024986e-01 -5.067665e-02 3.254669e-01 -1.024090e-01 3.768744e-01 -1.722840e-01 4.249751e-01 -2.043468e-01 
2.022889e-01 -2.046205e-01 2.443127e-01 -1.579187e-01 -2.072148e-02 -1.191182e-01 1.484521e-01 -7.861956e-02 2.515413e-01 -4.716112e-02 3.223169e-01 -2.520045e-02 3.790519e-01 -1.000054e-02 4.299240e-01 3.780047e-03 4.804513e-01 1.067526e-02 5.203617e-01 1.144375e-02 5.514843e-01 1.157340e-02 5.706874e-01 1.795448e-02 5.797795e-01 2.205867e-02 5.920187e-01 1.835587e-02 6.055972e-01 1.533709e-02 6.145549e-01 1.497606e-02 6.165953e-01 2.057148e-02 6.125288e-01 2.670845e-02 6.097665e-01 2.958735e-02 6.082877e-01 3.259992e-02 6.018432e-01 3.850538e-02 5.931953e-01 4.051333e-02 5.881232e-01 3.750811e-02 5.771517e-01 3.902389e-02 5.483410e-01 3.845144e-02 5.148390e-01 2.117985e-02 4.999047e-01 1.743703e-03 4.845575e-01 -4.677946e-03 4.512349e-01 6.450871e-03 3.940289e-01 3.806563e-02 3.020150e-01 9.324426e-02 1.725653e-01 1.554394e-01 
2.842839e-01 -1.127266e-01 2.674275e-01 -8.582859e-02 3.877602e-02 -6.609042e-02 2.184267e-01 -4.914912e-02 3.173826e-01 -3.665649e-02 3.836029e-01 -2.789553e-02 4.349724e-01 -1.986225e-02 4.800771e-01 -7.467785e-03 5.263776e-01 1.817449e-03 5.582991e-01 6.442862e-03 5.810734e-01 9.869339e-03 5.955355e-01 1.571836e-02 6.039063e-01 1.861111e-02 6.144504e-01 1.609413e-02 6.253790e-01 1.377795e-02 6.332144e-01 1.305672e-02 6.361052e-01 1.669680e-02 6.335619e-01 2.193352e-02 6.301710e-01 2.606771e-02 6.266493e-01 3.026238e-02 6.204799e-01 3.474007e-02 6.140363e-01 3.602639e-02 6.093229e-01 3.406750e-02 6.004512e-01 3.341647e-02 5.780378e-01 2.883499e-02 5.427226e-01 1.377899e-02 5.228782e-01 2.376038e-03 5.051884e-01 -1.194906e-03 4.788226e-01 3.156393e-03 4.398081e-01 1.681862e-02 3.802488e-01 4.328799e-02 2.936853e-01 7.757465e-02 
2.630509e-01 -7.980287e-02 2.322273e-01 -9.279221e-02 1.201522e-01 -9.251624e-02 2.155653e-01 -6.910908e-02 2.925304e-01 -4.932867e-02 3.518733e-01 -3.427045e-02 3.999812e-01 -2.214671e-02 4.440642e-01 -3.650324e-03 5.013410e-01 8.223735e-03 5.339637e-01 1.245012e-02 5.569900e-01 1.583654e-02 5.725521e-01 2.085161e-02 5.827990e-01 2.266257e-02 5.947445e-01 2.013524e-02 6.060726e-01 1.759539e-02 6.148136e-01 1.638935e-02 6.188246e-01 1.970922e-02 6.165105e-01 2.559191e-02 6.124445e-01 3.084597e-02 6.078083e-01 3.619575e-02 6.016102e-01 3.964104e-02 5.973253e-01 3.996133e-02 5.929856e-01 3.952931e-02 5.854362e-01 3.941321e-02 5.683762e-01 3.084162e-02 5.211546e-01 9.740098e-03 5.008607e-01 1.632433e-03 4.816501e-01 1.092529e-03 4.519949e-01 8.778754e-03 4.076232e-01 2.374837e-02 3.482272e-01 3.880283e-02 2.854358e-01 2.772254e-02 
3.287698e-01 -4.573832e-02 2.803504e-01 -5.351290e-02 1.750112e-01 -5.343989e-02 2.732531e-01 -4.433497e-02 3.486016e-01 -3.753660e-02 4.041436e-01 -3.324829e-02 4.463591e-01 -2.908709e-02 4.835538e-01 -8.741522e-03 5.479150e-01 4.897528e-03 5.724654e-01 9.295437e-03 5.879585e-01 1.369247e-02 5.982781e-01 1.968029e-02 6.050189e-01 2.101829e-02 6.158513e-01 1.766809e-02 6.260833e-01 1.460696e-02 6.348179e-01 1.203195e-02 6.396674e-01 1.468694e-02 6.367905e-01 2.111468e-02 6.316104e-01 2.731029e-02 6.257356e-01 3.405787e-02 6.189612e-01 3.701432e-02 6.171188e-01 3.621455e-02 6.154445e-01 3.639954e-02 6.130170e-01 3.759534e-02 6.037361e-01 2.670005e-02 5.401011e-01 -8.855617e-04 5.226267e-01 -3.894868e-03 5.077655e-01 -2.349715e-03 4.858893e-01 1.957684e-03 4.544170e-01 8.890138e-03 4.121681e-01 1.569162e-02 3.631717e-01 9.690594e-03 
3.315735e-01 -4.490043e-02 2.992846e-01 -6.264450e-02 2.480616e-01 -6.284068e-02 3.004522e-01 -5.567796e-02 3.501311e-01 -4.660031e-02 3.917878e-01 -4.029823e-02 4.240771e-01 -4.061709e-02 4.442274e-01 -5.436840e-02 4.423666e-01 -6.855079e-02 4.542524e-01 -7.867293e-02 4.686984e-01 -8.711754e-02 4.814926e-01 -9.347328e-02 4.908787e-01 -9.552935e-02 4.947359e-01 -9.419583e-02 4.957575e-01 -9.166939e-02 4.947278e-01 -8.861867e-02 4.936337e-01 -8.769145e-02 4.952607e-01 -8.904214e-02 4.978831e-01 -9.057157e-02 4.996920e-01 -9.087727e-02 4.988423e-01 -8.679060e-02 4.927574e-01 -7.897282e-02 4.850657e-01 -6.992280e-02 4.775688e-01 -5.823310e-02 4.759307e-01 -3.896750e-02 4.996570e-01 -1.516450e-02 5.004112e-01 -6.394714e-03 4.887692e-01 -1.517267e-03 4.669674e-01 3.834925e-03 4.357911e-01 9.343003e-03 3.977013e-01 9.817284e-03 3.595886e-01 -5.590787e-03 
3.871453e-01 -2.824300e-02 3.492871e-01 -3.849603e-02 2.983946e-01 -3.865930e-02 3.513547e-01 -3.728745e-02 3.997157e-01 -3.588164e-02 4.379964e-01 -3.838510e-02 4.626130e-01 -5.416719e-02 4.594495e-01 -1.211763e-01 3.626488e-01 -1.769510e-01 3.520608e-01 -2.084341e-01 3.600915e-01 -2.350633e-01 3.718044e-01 -2.583752e-01 3.810175e-01 -2.651011e-01 3.724656e-01 -2.576229e-01 3.587986e-01 -2.476865e-01 3.427836e-01 -2.372402e-01 3.324273e-01 -2.391357e-01 3.397074e-01 -2.518748e-01 3.530029e-01 -2.647477e-01 3.655427e-01 -2.752538e-01 3.728828e-01 -2.695128e-01 3.608536e-01 -2.496309e-01 3.455818e-01 -2.284692e-01 3.321997e-01 -2.015709e-01 3.419857e-01 -1.381141e-01 4.908365e-01 -4.047674e-02 5.199380e-01 -1.481004e-02 5.173793e-01 -6.315343e-03 5.025538e-01 -1.903206e-03 4.797908e-01 1.042896e-03 4.507388e-01 8.959990e-04 4.183205e-01 -7.414535e-03 
4.039429e-01 -3.241060e-02 3.844754e-01 -4.487413e-02 3.642217e-01 -4.505838e-02 3.885406e-01 -4.417610e-02 4.159215e-01 -4.106978e-02 4.410986e-01 -3.961926e-02 4.602292e-01 -4.535378e-02 4.658488e-01 -7.448313e-02 4.310538e-01 -1.002785e-01 4.316026e-01 -1.162169e-01 4.403156e-01 -1.298291e-01 4.501024e-01 -1.414268e-01 4.577402e-01 -1.451833e-01 4.566317e-01 -1.421437e-01 4.522335e-01 -1.375240e-01 4.460943e-01 -1.325083e-01 4.420274e-01 -1.328082e-01 4.453739e-01 -1.378558e-01 4.512079e-01 -1.428995e-01 4.563454e-01 -1.464565e-01 4.585199e-01 -1.423264e-01 4.516650e-01 -1.313438e-01 4.428987e-01 -1.190196e-01 4.351695e-01 -1.033750e-01 4.386864e-01 -7.141635e-02 5.016983e-01 -2.514110e-02 5.123586e-01 -1.057380e-02 5.060357e-01 -4.631883e-03 4.913127e-01 -1.285600e-03 4.708810e-01 -5.911086e-05 4.471842e-01 -3.300595e-03 4.238202e-01 -1.433991e-02 
4.520258e-01 -2.168666e-02 4.308245e-01 -2.904771e-02 4.100708e-01 -2.919148e-02 4.343237e-01 -3.030620e-02 4.610608e-01 -3.035018e-02 4.856231e-01 -3.033256e-02 5.068778e-01 -2.843254e-02 5.293200e-01 -8.919237e-03 5.832100e-01 4.770436e-03 5.988051e-01 9.472342e-03 6.068118e-01 1.394925e-02 6.118487e-01 1.915849e-02 6.152929e-01 1.979862e-02 6.232675e-01 1.654938e-02 6.309567e-01 1.356718e-02 6.381083e-01 1.072447e-02 6.424673e-01 1.261904e-02 6.397844e-01 1.845976e-02 6.347276e-01 2.451235e-02 6.291573e-01 3.095282e-02 6.238417e-01 3.296190e-02 6.244847e-01 3.145076e-02 6.254641e-01 3.147352e-02 6.266449e-01 3.175959e-02 6.222837e-01 1.957210e-02 5.626022e-01 -7.461384e-03 5.485695e-01 -8.431152e-03 5.391734e-01 -6.188513e-03 5.271171e-01 -4.314619e-03 5.114122e-01 -3.724009e-03 4.926324e-01 -5.669103e-03 4.722963e-01 -1.175858e-02 
4.756621e-01 -2.572294e-02 4.700495e-01 -3.368437e-02 4.693482e-01 -3.382742e-02 4.738584e-01 -3.490309e-02 4.841109e-01 -3.391748e-02 4.966139e-01 -3.188698e-02 5.101956e-01 -2.722736e-02 5.285640e-01 -8.503795e-03 5.726233e-01 5.672456e-03 5.877283e-01 1.199102e-02 5.953704e-01 1.724819e-02 6.001186e-01 2.240650e-02 6.037362e-01 2.340414e-02 6.110713e-01 2.086595e-02 6.183964e-01 1.828700e-02 6.251182e-01 1.606302e-02 6.290771e-01 1.799483e-02 6.268844e-01 2.346437e-02 6.222785e-01 2.932197e-02 6.171390e-01 3.519964e-02 6.125615e-01 3.710589e-02 6.129806e-01 3.574778e-02 6.138110e-01 3.504508e-02 6.139523e-01 3.353532e-02 6.070068e-01 2.106272e-02 5.564524e-01 -2.963981e-03 5.410345e-01 -6.023862e-03 5.316256e-01 -5.133103e-03 5.213357e-01 -4.290055e-03 5.092118e-01 -4.998651e-03 4.963018e-01 -8.591117e-03 4.845397e-01 -1.592972e-02 
5.177082e-01 -1.778952e-02 5.117091e-01 -2.262243e-02 5.107330e-01 -2.273063e-02 5.149689e-01 -2.439621e-02 5.247140e-01 -2.490262e-02 5.366558e-01 -2.419381e-02 5.500117e-01 -2.029445e-02 5.678401e-01 -7.421398e-03 5.990693e-01 3.600312e-03 6.135015e-01 9.735838e-03 6.206337e-01 1.451080e-02 6.246671e-01 1.854391e-02 6.278396e-01 1.955583e-02 6.331873e-01 1.793498e-02 6.387954e-01 1.598374e-02 6.437997e-01 1.461790e-02 6.464643e-01 1.624177e-02 6.448154e-01 2.052499e-02 6.410455e-01 2.540170e-02 6.367779e-01 2.996134e-02 6.332735e-01 3.169238e-02 6.329603e-01 3.089961e-02 6.330405e-01 2.969069e-02 6.314286e-01 2.668665e-02 6.219941e-01 1.604645e-02 5.880546e-01 -7.151787e-04 5.726473e-01 -5.283795e-03 5.636153e-01 -5.698078e-03 5.552992e-01 -5.448762e-03 5.460693e-01 -5.950488e-03 5.360424e-01 -8.050037e-03 5.261776e-01 -1.220574e-02 
5.439661e-01 -2.091767e-02 5.505090e-01 -2.599537e-02 5.639243e-01 -2.609665e-02 5.535922e-01 -2.768398e-02 5.501898e-01 -2.781070e-02 5.511330e-01 -2.676108e-02 5.553475e-01 -2.298199e-02 5.654529e-01 -7.622745e-03 5.970457e-01 4.686087e-03 6.067363e-01 1.068356e-02 6.108401e-01 1.566740e-02 6.129689e-01 2.032061e-02 6.146496e-01 2.143659e-02 6.196261e-01 1.960964e-02 6.249062e-01 1.764639e-02 6.299014e-01 1.598512e-02 6.327302e-01 1.773758e-02 6.306968e-01 2.234755e-02 6.267590e-01 2.731905e-02 6.224854e-01 3.217630e-02 6.189242e-01 3.366087e-02 6.195377e-01 3.234345e-02 6.206193e-01 3.123821e-02 6.210379e-01 2.910917e-02 6.153851e-01 1.816615e-02 5.756164e-01 -1.982631e-03 5.638201e-01 -5.468471e-03 5.581041e-01 -5.596143e-03 5.531753e-01 -5.745759e-03 5.482989e-01 -7.050904e-03 5.442276e-01 -1.011598e-02 5.423068e-01 -1.503450e-02 
5.808366e-01 -1.466967e-02 5.874648e-01 -1.783489e-02 6.008590e-01 -1.790875e-02 5.901871e-01 -1.963281e-02 5.862571e-01 -2.066377e-02 5.863265e-01 -2.121613e-02 5.886732e-01 -2.104314e-02 5.930121e-01 -1.753393e-02 6.035803e-01 -1.484809e-02 6.077406e-01 -1.377326e-02 6.102389e-01 -1.277144e-02 6.118785e-01 -1.166510e-02 6.130483e-01 -1.139079e-02 6.148969e-01 -1.177788e-02 6.165717e-01 -1.202435e-02 6.179657e-01 -1.206182e-02 6.185810e-01 -1.097337e-02 6.176292e-01 -8.916726e-03 6.159983e-01 -6.610477e-03 6.141332e-01 -4.143228e-03 6.123121e-01 -2.494965e-03 6.116092e-01 -1.546531e-03 6.109254e-01 -4.737847e-04 6.100288e-01 3.377606e-04 6.076537e-01 -1.469349e-03 5.947768e-01 -6.272555e-03 5.903990e-01 -6.338430e-03 5.873473e-01 -5.888675e-03 5.843766e-01 -5.836532e-03 5.814918e-01 -6.572431e-03 5.792519e-01 -8.354013e-03 5.786169e-01 -1.120580e-02 
6.072944e-01 -1.692912e-02 6.239874e-01 -2.022131e-02 6.483093e-01 -2.028475e-02 6.264716e-01 -2.191581e-02 6.120087e-01 -2.286532e-02 6.024225e-01 -2.431394e-02 5.945496e-01 -3.015491e-02 5.807877e-01 -5.683346e-02 5.308777e-01 -7.899001e-02 5.204041e-01 -9.055527e-02 5.190167e-01 -1.003953e-01 5.202954e-01 -1.092469e-01 5.214710e-01 -1.112903e-01 5.158599e-01 -1.075738e-01 5.087317e-01 -1.029802e-01 5.010338e-01 -9.818711e-02 4.960850e-01 -9.869082e-02 4.986991e-01 -1.034678e-01 5.037672e-01 -1.081795e-01 5.087137e-01 -1.120282e-01 5.118793e-01 -1.092735e-01 5.073508e-01 -1.009922e-01 5.018485e-01 -9.265036e-02 4.971989e-01 -8.261615e-02 5.021653e-01 -5.792220e-02 5.664343e-01 -1.785326e-02 5.806426e-01 -8.325354e-03 5.838145e-01 -6.052938e-03 5.849504e-01 -6.048682e-03 5.865533e-01 -7.338447e-03 5.899608e-01 -9.775457e-03 5.964324e-01 -1.316307e-02 
6.395077e-01 -1.185373e-02 6.563990e-01 -1.393742e-02 6.808076e-01 -1.397846e-02 6.586946e-01 -1.555255e-02 6.438501e-01 -1.688825e-02 6.337384e-01 -1.890138e-02 6.252610e-01 -2.487210e-02 6.115948e-01 -4.835867e-02 5.679508e-01 -6.807927e-02 5.572048e-01 -7.874099e-02 5.547387e-01 -8.769415e-02 5.548594e-01 -9.559726e-02 5.549847e-01 -9.756511e-02 5.494241e-01 -9.449527e-02 5.425795e-01 -9.057595e-02 5.353653e-01 -8.652243e-02 5.306889e-01 -8.703350e-02 5.326356e-01 -9.126286e-02 5.368725e-01 -9.548695e-02 5.411033e-01 -9.890714e-02 5.437968e-01 -9.662393e-02 5.399555e-01 -8.954362e-02 5.353156e-01 -8.227140e-02 5.317280e-01 -7.329627e-02 5.371097e-01 -5.155789e-02 5.930625e-01 -1.676455e-02 6.069043e-01 -7.958990e-03 6.110068e-01 -5.695359e-03 6.133534e-01 -5.437172e-03 6.162439e-01 -6.141552e-03 6.208245e-01 -7.574620e-03 6.281628e-01 -9.583005e-03 
6.647397e-01 -1.341164e-02 6.897806e-01 -1.553607e-02 7.227843e-01 -1.556168e-02 6.920036e-01 -1.683012e-02 6.690090e-01 -1.742489e-02 6.520595e-01 -1.749095e-02 6.397527e-01 -1.658521e-02 6.321994e-01 -9.635043e-03 6.387168e-01 -4.289335e-03 6.351493e-01 -1.925753e-03 6.314397e-01 3.561320e-04 6.283552e-01 2.785730e-03 6.258643e-01 3.640887e-03 6.256424e-01 3.246730e-03 6.258867e-01 2.931660e-03 6.264815e-01 2.581218e-03 6.266245e-01 3.730371e-03 6.248879e-01 6.046351e-03 6.227736e-01 8.357183e-03 6.208150e-01 1.072015e-02 6.192617e-01 1.149676e-02 6.199870e-01 1.099000e-02 6.211650e-01 1.079754e-02 6.230155e-01 1.057376e-02 6.241499e-01 6.383685e-03 6.081090e-01 -2.960123e-03 6.083421e-01 -3.888012e-03 6.115186e-01 -4.233751e-03 6.162348e-01 -5.052918e-03 6.229771e-01 -6.471597e-03 6.325961e-01 -8.474187e-03 6.461236e-01 -1.090364e-02 
6.926087e-01 -9.220108e-03 7.177921e-01 -1.055309e-02 7.508579e-01 -1.056064e-02 7.199367e-01 -1.171833e-02 6.967521e-01 -1.246284e-02 6.795904e-01 -1.272478e-02 6.672425e-01 -1.156608e-02 6.605101e-01 -2.599080e-03 6.707068e-01 4.582208e-03 6.678326e-01 7.986634e-03 6.637842e-01 1.116298e-02 6.600564e-01 1.438682e-02 6.569927e-01 1.542306e-02 6.568573e-01 1.467014e-02 6.574371e-01 1.388198e-02 6.584804e-01 1.307059e-02 6.588437e-01 1.426213e-02 6.566786e-01 1.704076e-02 6.539206e-01 1.983655e-02 6.513767e-01 2.256467e-02 6.495087e-01 2.306073e-02 6.506905e-01 2.171758e-02 6.525143e-01 2.059725e-02 6.549218e-01 1.916685e-02 6.555205e-01 1.237097e-02 6.339190e-01 -8.839880e-04 6.329497e-01 -2.947613e-03 6.363640e-01 -3.471996e-03 6.417587e-01 -4.064280e-03 6.492833e-01 -4.971765e-03 6.596162e-01 -6.208136e-03 6.736775e-01 -7.687379e-03 
7.157361e-01 -1.026783e-02 7.475883e-01 -1.160202e-02 7.875699e-01 -1.159331e-02 7.497475e-01 -1.242913e-02 7.199977e-01 -1.253161e-02 6.970968e-01 -1.167874e-02 6.802533e-01 -9.147426e-03 6.697337e-01 -2.995784e-03 6.678146e-01 2.794730e-03 6.628343e-01 6.845629e-03 6.574659e-01 1.023023e-02 6.526871e-01 1.306806e-02 6.489717e-01 1.453263e-02 6.471481e-01 1.482219e-02 6.463090e-01 1.482359e-02 6.459612e-01 1.493188e-02 6.453217e-01 1.606171e-02 6.435933e-01 1.806784e-02 6.415437e-01 2.015094e-02 6.397837e-01 2.187785e-02 6.388209e-01 2.223670e-02 6.395426e-01 2.127757e-02 6.409241e-01 1.971913e-02 6.422564e-01 1.710774e-02 6.415604e-01 1.149540e-02 6.331499e-01 3.509624e-03 6.331089e-01 -1.499614e-05 6.376686e-01 -1.929850e-03 6.454763e-01 -3.448998e-03 6.565050e-01 -5.011547e-03 6.713003e-01 -6.735247e-03 6.907009e-01 -8.554446e-03 
7.394533e-01 -6.775922e-03 7.713020e-01 -7.578854e-03 8.112271e-01 -7.556089e-03 7.734218e-01 -8.306858e-03 7.436431e-01 -8.530113e-03 7.206411e-01 -7.964120e-03 7.035751e-01 -5.955735e-03 6.924287e-01 -1.355874e-03 6.878788e-01 3.164308e-03 6.822027e-01 6.502793e-03 6.764616e-01 9.263367e-03 6.713893e-01 1.151793e-02 6.673966e-01 1.272807e-02 6.649994e-01 1.303401e-02 6.635804e-01 1.308037e-02 6.626781e-01 1.325464e-02 6.616587e-01 1.419590e-02 6.599716e-01 1.580826e-02 6.581232e-01 1.750007e-02 6.566133e-01 1.884653e-02 6.558897e-01 1.912283e-02 6.565247e-01 1.832777e-02 6.578257e-01 1.690206e-02 6.591094e-01 1.447613e-02 6.587552e-01 9.806683e-03 6.538268e-01 3.657645e-03 6.546773e-01 5.090174e-04 6.597406e-01 -1.175924e-03 6.680234e-01 -2.367894e-03 6.795016e-01 -3.462950e-03 6.946670e-01 -4.587111e-03 7.143120e-01 -5.726438e-03 
7.599119e-01 -7.489374e-03 7.972683e-01 -8.290809e-03 8.428419e-01 -8.253567e-03 7.993948e-01 -8.773268e-03 7.641442e-01 -8.602079e-03 7.360847e-01 -7.540548e-03 7.144201e-01 -5.273061e-03 6.986329e-01 -1.558436e-03 6.880110e-01 2.335370e-03 6.789714e-01 5.675504e-03 6.711017e-01 8.498570e-03 6.644911e-01 1.076916e-02 6.592627e-01 1.227978e-02 6.555199e-01 1.313276e-02 6.528905e-01 1.369834e-02 6.509703e-01 1.429394e-02 6.493143e-01 1.525006e-02 6.476215e-01 1.652332e-02 6.460964e-01 1.777272e-02 6.450527e-01 1.864737e-02 6.447935e-01 1.873223e-02 6.455520e-01 1.793685e-02 6.469848e-01 1.636808e-02 6.486065e-01 1.383538e-02 6.496768e-01 9.973102e-03 6.497743e-01 5.460895e-03 6.532976e-01 2.236408e-03 6.605723e-01 -1.966091e-05 6.714907e-01 -1.794891e-03 6.862567e-01 -3.380863e-03 7.053884e-01 -4.889245e-03 7.296342e-01 -6.298092e-03 
7.796007e-01 -4.564649e-03 8.167524e-01 -5.002985e-03 8.620867e-01 -4.955191e-03 8.188430e-01 -5.433349e-03 7.837484e-01 -5.392740e-03 7.557493e-01 -4.641515e-03 7.339740e-01 -2.916652e-03 7.177536e-01 -9.689822e-05 7.061792e-01 2.933118e-03 6.966099e-01 5.600881e-03 6.884406e-01 7.866929e-03 6.816165e-01 9.684224e-03 6.761742e-01 1.091314e-02 6.721270e-01 1.163300e-02 6.691701e-01 1.212309e-02 6.669510e-01 1.264474e-02 6.651024e-01 1.343915e-02 6.633923e-01 1.447216e-02 6.619550e-01 1.547932e-02 6.610370e-01 1.616454e-02 6.608844e-01 1.620849e-02 6.616609e-01 1.552131e-02 6.631280e-01 1.415325e-02 6.649108e-01 1.197063e-02 6.665128e-01 8.784301e-03 6.679331e-01 5.175581e-03 6.722063e-01 2.491422e-03 6.799025e-01 6.278451e-04 6.910914e-01 -7.620927e-04 7.060297e-01 -1.915387e-03 7.252365e-01 -2.939027e-03 7.494527e-01 -3.842146e-03 
7.970203e-01 -5.084615e-03 8.387509e-01 -5.534762e-03 8.887430e-01 -5.475025e-03 8.408063e-01 -5.821403e-03 8.010883e-01 -5.571469e-03 7.686711e-01 -4.610392e-03 7.427023e-01 -2.843444e-03 7.223670e-01 -3.336236e-04 7.066484e-01 2.420779e-03 6.939463e-01 5.021013e-03 6.834825e-01 7.319084e-03 6.749161e-01 9.229118e-03 6.680673e-01 1.068015e-02 6.627758e-01 1.172708e-02 6.587609e-01 1.253934e-02 6.557130e-01 1.329329e-02 6.533449e-01 1.412317e-02 6.514850e-01 1.500508e-02 6.501704e-01 1.577135e-02 6.495404e-01 1.620844e-02 6.497489e-01 1.610545e-02 6.508861e-01 1.536573e-02 6.528571e-01 1.397597e-02 6.555072e-01 1.189311e-02 6.587492e-01 9.138599e-03 6.629632e-01 6.121078e-03 6.697402e-01 3.516549e-03 6.798351e-01 1.412172e-03 6.936574e-01 -3.233797e-04 7.116418e-01 -1.817980e-03 7.343621e-01 -3.130460e-03 7.625394e-01 -4.244907e-03 
8.127659e-01 -2.621673e-03 8.540507e-01 -2.819258e-03 9.035745e-01 -2.751968e-03 8.560670e-01 -3.091532e-03 8.167367e-01 -2.975185e-03 7.846189e-01 -2.297852e-03 7.588077e-01 -9.783587e-04 7.384332e-01 9.261566e-04 7.224849e-01 3.054798e-03 7.096214e-01 5.097494e-03 6.990768e-01 6.917610e-03 6.904637e-01 8.437246e-03 6.835563e-01 9.603331e-03 6.781625e-01 1.045808e-02 6.740204e-01 1.113080e-02 6.708519e-01 1.176004e-02 6.684083e-01 1.244502e-02 6.665423e-01 1.316393e-02 6.652699e-01 1.378248e-02 6.646976e-01 1.412529e-02 6.649507e-01 1.402352e-02 6.661060e-01 1.339306e-02 6.681146e-01 1.221602e-02 6.708917e-01 1.047159e-02 6.744427e-01 8.211845e-03 6.791781e-01 5.772066e-03 6.863154e-01 3.653322e-03 6.965761e-01 1.961307e-03 7.104137e-01 6.140405e-04 7.282937e-01 -4.874407e-04 7.508038e-01 -1.398942e-03 7.786739e-01 -2.124019e-03 
8.269016e-01 -3.051688e-03 8.720051e-01 -3.277416e-03 9.253889e-01 -3.200693e-03 8.739496e-01 -3.481331e-03 8.307089e-01 -3.263928e-03 7.947945e-01 -2.495174e-03 7.653419e-01 -1.166098e-03 7.414830e-01 6.296149e-04 7.222750e-01 2.649938e-03 7.066866e-01 4.663007e-03 6.939676e-01 6.523977e-03 6.836245e-01 8.144892e-03 6.753138e-01 9.480929e-03 6.687538e-01 1.055277e-02 6.636631e-01 1.143590e-02 6.597751e-01 1.221517e-02 6.568678e-01 1.294445e-02 6.548046e-01 1.360351e-02 6.535615e-01 1.410034e-02 6.531913e-01 1.431043e-02 6.537764e-01 1.411502e-02 6.553863e-01 1.344412e-02 6.580500e-01 1.227751e-02 6.618141e-01 1.062779e-02 6.668433e-01 8.581932e-03 6.735848e-01 6.374168e-03 6.828664e-01 4.300250e-03 6.953740e-01 2.480527e-03 7.116660e-01 9.151652e-04 7.322962e-01 -4.265288e-04 7.578872e-01 -1.556466e-03 7.891544e-01 -2.450873e-03 
8.387680e-01 -9.612049e-04 8.831511e-01 -1.007823e-03 9.358000e-01 -9.261579e-04 8.850579e-01 -1.221464e-03 8.424830e-01 -1.131574e-03 8.071617e-01 -6.074038e-04 7.781916e-01 3.632636e-04 7.546815e-01 1.709664e-03 7.357056e-01 3.252012e-03 7.203141e-01 4.810278e-03 7.077816e-01 6.264410e-03 6.976052e-01 7.540236e-03 6.894238e-01 8.601158e-03 6.829451e-01 9.461849e-03 6.778958e-01 1.017925e-02 6.740272e-01 1.081800e-02 6.711368e-01 1.141690e-02 6.690997e-01 1.195687e-02 6.678859e-01 1.236244e-02 6.675342e-01 1.253147e-02 6.681153e-01 1.236728e-02 6.696979e-01 1.181146e-02 6.723325e-01 1.084755e-02 6.760978e-01 9.493323e-03 6.811847e-01 7.831691e-03 6.880186e-01 6.054766e-03 6.973034e-01 4.393782e-03 7.096778e-01 2.956361e-03 7.257004e-01 1.752957e-03 7.459373e-01 7.615833e-04 7.710249e-01 -3.181865e-05 8.016937e-01 -6.176694e-04 
8.494571e-01 -1.374877e-03 8.970220e-01 -1.464649e-03 9.528714e-01 -1.375866e-03 8.988380e-01 -1.657197e-03 8.529731e-01 -1.522722e-03 8.144356e-01 -9.532849e-04 7.823748e-01 3.208086e-05 7.559416e-01 1.354991e-03 7.342800e-01 2.875960e-03 7.165566e-01 4.449666e-03 7.020762e-01 5.963443e-03 6.902998e-01 7.341132e-03 6.808088e-01 8.542033e-03 6.732613e-01 9.563900e-03 6.673615e-01 1.043381e-02 6.628561e-01 1.118548e-02 6.595466e-01 1.183553e-02 6.573049e-01 1.236445e-02 6.560808e-01 1.271677e-02 6.558878e-01 1.281875e-02 6.567798e-01 1.260089e-02 6.588329e-01 1.201948e-02 6.621425e-01 1.106487e-02 6.668549e-01 9.764151e-03 6.732229e-01 8.195998e-03 6.816656e-01 6.500815e-03 6.927687e-01 4.836519e-03 7.071333e-01 3.302210e-03 7.253436e-01 1.939603e-03 7.479997e-01 7.650050e-04 7.757507e-01 -2.037508e-04 8.093104e-01 -9.337782e-04 
8.574969e-01 4.212559e-04 9.040344e-01 4.611621e-04 9.588473e-01 5.525233e-04 9.058206e-01 2.450981e-04 8.609412e-01 2.620058e-04 8.233283e-01 6.225155e-04 7.920989e-01 1.315824e-03 7.663855e-01 2.284177e-03 7.453364e-01 3.422849e-03 7.281442e-01 4.619414e-03 7.141280e-01 5.783655e-03 7.027498e-01 6.853449e-03 6.935870e-01 7.795222e-03 6.862968e-01 8.605576e-03 6.805895e-01 9.303800e-03 6.762235e-01 9.914205e-03 6.730120e-01 1.044713e-02 6.708345e-01 1.088442e-02 6.696405e-01 1.117962e-02 6.694387e-01 1.127175e-02 6.702789e-01 1.110371e-02 6.722380e-01 1.063957e-02 6.754200e-01 9.872407e-03 6.799821e-01 8.827961e-03 6.861793e-01 7.575013e-03 6.944088e-01 6.229271e-03 7.052052e-01 4.918178e-03 7.191378e-01 3.725775e-03 7.367823e-01 2.689920e-03 7.587437e-01 1.824833e-03 7.856835e-01 1.142226e-03 8.183337e-01 6.631068e-04 
8.646303e-01 -2.942187e-05 9.138040e-01 -4.658964e-05 9.712592e-01 4.972288e-05 9.154960e-01 -2.686793e-04 8.678752e-01 -2.335853e-04 8.275751e-01 1.575779e-04 7.937630e-01 8.789894e-04 7.656177e-01 1.869752e-03 7.423402e-01 3.038791e-03 7.231795e-01 4.288018e-03 7.074782e-01 5.532548e-03 6.946877e-01 6.709005e-03 6.843585e-01 7.777963e-03 6.761200e-01 8.723625e-03 6.696643e-01 9.547423e-03 6.647406e-01 1.025578e-02 6.611574e-01 1.084699e-02 6.587878e-01 1.130196e-02 6.575697e-01 1.158408e-02 6.574998e-01 1.164788e-02 6.586226e-01 1.145176e-02 6.610236e-01 1.097028e-02 6.648323e-01 1.020187e-02 6.702402e-01 9.173325e-03 6.775280e-01 7.944255e-03 6.870875e-01 6.604226e-03 6.994133e-01 5.250917e-03 7.150531e-01 3.961374e-03 7.345848e-01 2.786869e-03 7.586218e-01 1.763589e-03 7.878243e-01 9.254178e-04 8.229056e-01 3.119655e-04 
8.688909e-01 1.541912e-03 9.166957e-01 1.620617e-03 9.727764e-01 1.717292e-03 9.183712e-01 1.367238e-03 8.720945e-01 1.294441e-03 8.330832e-01 1.504046e-03 8.004701e-01 1.979274e-03 7.734117e-01 2.675769e-03 7.511012e-01 3.525262e-03 7.327922e-01 4.452458e-03 7.178323e-01 5.390700e-03 7.056760e-01 6.289369e-03 6.958755e-01 7.116400e-03 6.880640e-01 7.858006e-03 6.819407e-01 8.513600e-03 6.772644e-01 9.086210e-03 6.738529e-01 9.572170e-03 6.715857e-01 9.954000e-03 6.704034e-01 1.020040e-02 6.703019e-01 1.027322e-02 6.713243e-01 1.013782e-02 6.735560e-01 9.773105e-03 6.771280e-01 9.178210e-03 6.822321e-01 8.376449e-03 6.891428e-01 7.418119e-03 6.982347e-01 6.376886e-03 7.099757e-01 5.332333e-03 7.248937e-01 4.348210e-03 7.435588e-01 3.467292e-03 7.665878e-01 2.718755e-03 7.946536e-01 2.128130e-03 8.284904e-01 1.724262e-03 
8.723938e-01 1.012542e-03 9.223580e-01 1.019478e-03 9.805984e-01 1.119009e-03 9.239468e-01 7.452258e-04 8.754183e-01 6.810762e-04 8.341987e-01 9.219896e-04 7.994646e-01 1.442230e-03 7.704125e-01 2.193704e-03 7.462743e-01 3.110872e-03 7.263370e-01 4.122439e-03 7.099650e-01 5.162783e-03 6.966112e-01 6.178805e-03 6.858152e-01 7.132733e-03 6.771943e-01 8.001723e-03 6.704341e-01 8.773889e-03 6.652838e-01 9.441492e-03 6.615546e-01 9.993769e-03 6.591191e-01 1.041216e-02 6.579108e-01 1.067018e-02 6.579196e-01 1.073803e-02 6.591876e-01 1.058977e-02 6.618070e-01 1.021070e-02 6.659235e-01 9.602844e-03 6.717466e-01 8.788287e-03 6.795631e-01 7.810126e-03 6.897458e-01 6.728620e-03 7.027488e-01 5.610276e-03 7.190885e-01 4.515529e-03 7.393319e-01 3.494599e-03 7.640942e-01 2.590744e-03 7.940407e-01 1.845774e-03 8.298868e-01 1.303933e-03 
8.729226e-01 2.422175e-03 9.211370e-01 2.501512e-03 9.776237e-01 2.599281e-03 9.227258e-01 2.190924e-03 8.759420e-01 2.025912e-03 8.364096e-01 2.103583e-03 8.032646e-01 2.407033e-03 7.756743e-01 2.901811e-03 7.528536e-01 3.539387e-03 7.340833e-01 4.265767e-03 7.187277e-01 5.030297e-03 7.062425e-01 5.791290e-03 6.961722e-01 6.518502e-03 6.881409e-01 7.192935e-03 6.818437e-01 7.803775e-03 6.770397e-01 8.343121e-03 6.735492e-01 8.800420e-03 6.712520e-01 9.158828e-03 6.700857e-01 9.395247e-03 6.700415e-01 9.484074e-03 6.711609e-01 9.403098e-03 6.735344e-01 9.139562e-03 6.773049e-01 8.694763e-03 6.826769e-01 8.086731e-03 6.899276e-01 7.350703e-03 6.994150e-01 6.535535e-03 7.115753e-01 5.694898e-03 7.269113e-01 4.877634e-03 7.459840e-01 4.124135e-03 7.694126e-01 3.468562e-03 7.978765e-01 2.943248e-03 8.321150e-01 2.582184e-03 
8.727410e-01 1.777377e-03 9.226914e-01 1.767201e-03 9.809128e-01 1.865748e-03 9.242073e-01 1.427647e-03 8.756131e-01 1.271603e-03 8.343075e-01 1.390370e-03 7.994627e-01 1.759682e-03 7.702782e-01 2.339420e-03 7.459971e-01 3.077968e-03 7.259219e-01 3.919326e-03 7.094285e-01 4.810205e-03 6.959735e-01 5.704951e-03 6.850946e-01 6.567865e-03 6.764060e-01 7.373095e-03 6.695927e-01 8.102293e-03 6.644054e-01 8.740760e-03 6.606575e-01 9.273469e-03 6.582232e-01 9.682490e-03 6.570348e-01 9.946936e-03 6.570804e-01 1.004549e-02 6.584018e-01 9.960555e-03 6.610941e-01 9.682744e-03 6.653091e-01 9.214458e-03 6.712609e-01 8.572012e-03 6.792341e-01 7.785771e-03 6.895875e-01 6.897512e-03 7.027530e-01 5.954988e-03 7.192285e-01 5.006289e-03 7.395722e-01 4.097409e-03 7.643992e-01 3.273156e-03 7.943803e-01 2.579356e-03 8.302381e-01 2.064183e-03 
8.695901e-01 3.084096e-03 9.173627e-01 3.129949e-03 9.734019e-01 3.224679e-03 9.188977e-01 2.749566e-03 8.724971e-01 2.495726e-03 8.333178e-01 2.460703e-03 8.004818e-01 2.628982e-03 7.731509e-01 2.972599e-03 7.505439e-01 3.454192e-03 7.319516e-01 4.032218e-03 7.167469e-01 4.666325e-03 7.043902e-01 5.321264e-03 6.944269e-01 5.968833e-03 6.864819e-01 6.587931e-03 6.802522e-01 7.162842e-03 6.755006e-01 7.680327e-03 6.720515e-01 8.126601e-03 6.697874e-01 8.485426e-03 6.686461e-01 8.738171e-03 6.686179e-01 8.865920e-03 6.697440e-01 8.852898e-03 6.721165e-01 8.690138e-03 6.758815e-01 8.378449e-03 6.812447e-01 7.930097e-03 6.884784e-01 7.368766e-03 6.979266e-01 6.727247e-03 7.100056e-01 6.043008e-03 7.252012e-01 5.353712e-03 7.440663e-01 4.695199e-03 7.672202e-01 4.102221e-03 7.953490e-01 3.610392e-03 8.292031e-01 3.257650e-03 