# vtk DataFile Version 2.0
Comment goes here
ASCII

DATASET STRUCTURED_POINTS
FIELD FieldData 1
TIME 1 1 double
0.01200000
DIMENSIONS    64   64   1

ORIGIN    0.000   0.000   0.000
SPACING   0.03125 0.03125   1.000

POINT_DATA   4096
SCALARS uX double
LOOKUP_TABLE default

1.790416e-01 -5.907000e-01 4.337540e-01 -5.793479e-01 3.710442e-01 -4.783198e-01 2.430803e-01 -3.389095e-01 1.051861e-01 -1.885335e-01 -3.235581e-02 -4.694079e-02 -1.498450e-01 6.398316e-02 -2.274052e-01 1.300537e-01 -2.582573e-01 1.522983e-01 -2.566422e-01 1.487838e-01 -2.419448e-01 1.359225e-01 -2.216927e-01 1.192301e-01 -2.036564e-01 1.097357e-01 -1.976676e-01 1.137818e-01 -2.036128e-01 1.223623e-01 -2.047552e-01 1.189631e-01 -1.953673e-01 1.087993e-01 -1.822623e-01 9.416994e-02 -1.658439e-01 8.078195e-02 -1.541962e-01 7.027567e-02 -1.404188e-01 5.607835e-02 -1.310834e-01 4.977068e-02 -1.236010e-01 3.294598e-02 -9.386266e-02 -1.567168e-02 -3.289428e-02 -9.271134e-02 4.100938e-02 -1.685430e-01 1.035990e-01 -2.207296e-01 1.274345e-01 -2.237726e-01 9.920119e-02 -1.810204e-01 3.475301e-02 -1.177125e-01 -2.524463e-02 -8.276449e-02 -3.718952e-02 -1.250304e-01 
5.471473e-02 2.911921e-01 -3.326574e-01 3.310907e-01 -3.183922e-01 2.829813e-01 -2.505044e-01 2.109484e-01 -1.863307e-01 1.335014e-01 -1.252372e-01 6.168986e-02 -7.744861e-02 7.667483e-03 -5.303287e-02 -2.248925e-02 -5.339102e-02 -3.069280e-02 -6.533722e-02 -2.867992e-02 -7.640408e-02 -2.573554e-02 -8.612458e-02 -2.284853e-02 -9.163055e-02 -2.534879e-02 -8.941409e-02 -3.504702e-02 -8.038518e-02 -4.717479e-02 -7.327900e-02 -5.347849e-02 -6.876246e-02 -5.957312e-02 -6.399214e-02 -6.315357e-02 -6.210301e-02 -6.759241e-02 -5.541460e-02 -7.624617e-02 -4.781331e-02 -8.519404e-02 -3.461560e-02 -1.014217e-01 -1.678802e-02 -1.152888e-01 -4.769284e-03 -1.169823e-01 8.441083e-04 -1.091520e-01 7.927172e-03 -1.073964e-01 2.314808e-02 -1.213248e-01 5.969592e-02 -1.633480e-01 1.242716e-01 -2.276524e-01 2.044363e-01 -2.978418e-01 2.725782e-01 -3.405593e-01 3.004944e-01 -3.116069e-01 
3.437067e-01 3.416290e-01 -2.195062e-02 3.572157e-01 2.500571e-02 2.924268e-01 1.007443e-01 2.014710e-01 2.122128e-01 1.070642e-01 3.274385e-01 2.216776e-02 4.278693e-01 -3.752824e-02 5.005033e-01 -6.288997e-02 5.414717e-01 -6.072665e-02 5.539650e-01 -4.733766e-02 5.548790e-01 -3.338717e-02 5.504676e-01 -2.025294e-02 5.474474e-01 -1.585789e-02 5.541543e-01 -2.421724e-02 5.701310e-01 -3.749458e-02 5.817723e-01 -4.164960e-02 5.848254e-01 -4.141472e-02 5.847842e-01 -3.787293e-02 5.813764e-01 -3.634788e-02 5.827862e-01 -3.929954e-02 5.834011e-01 -4.180174e-02 5.902189e-01 -5.590174e-02 6.016071e-01 -6.786122e-02 5.974830e-01 -6.194544e-02 5.674418e-01 -4.196379e-02 5.210219e-01 -2.716464e-02 4.849326e-01 -2.437488e-02 4.786416e-01 -5.268822e-02 5.095328e-01 -1.102430e-01 5.629130e-01 -1.802201e-01 6.067374e-01 -2.248642e-01 6.092751e-01 -1.968456e-01 
3.400825e-01 -2.374456e-01 3.892280e-01 -1.972629e-01 4.582288e-02 -1.513982e-01 2.760959e-01 -1.039486e-01 4.202169e-01 -6.550288e-02 5.163657e-01 -3.267769e-02 5.900528e-01 -5.484483e-03 6.604663e-01 1.784319e-02 7.376842e-01 2.974915e-02 7.938603e-01 3.289011e-02 8.315656e-01 3.471619e-02 8.592508e-01 3.445924e-02 8.804628e-01 3.387738e-02 8.959703e-01 3.515649e-02 9.051880e-01 3.736448e-02 9.139906e-01 3.555490e-02 9.213903e-01 3.658755e-02 9.230843e-01 3.872531e-02 9.233929e-01 4.229622e-02 9.188176e-01 4.729303e-02 9.150369e-01 4.797478e-02 9.087483e-01 5.237596e-02 8.966553e-01 5.481571e-02 8.837294e-01 4.554080e-02 8.646265e-01 2.050126e-02 8.223608e-01 -7.396944e-03 7.850660e-01 -1.889261e-02 7.403003e-01 -7.760693e-03 6.745155e-01 2.201756e-02 5.848935e-01 6.594759e-02 4.740424e-01 1.144950e-01 3.347613e-01 1.604721e-01 
4.573627e-01 -1.293465e-01 4.299190e-01 -1.052613e-01 1.260953e-01 -8.188211e-02 3.693310e-01 -6.104507e-02 5.055873e-01 -4.613493e-02 5.961655e-01 -3.342651e-02 6.659348e-01 -1.977529e-02 7.313809e-01 7.471257e-04 8.053821e-01 1.539082e-02 8.504773e-01 2.195980e-02 8.783750e-01 2.742245e-02 8.978905e-01 3.121647e-02 9.131229e-01 3.224888e-02 9.267584e-01 3.175846e-02 9.372600e-01 3.114685e-02 9.468690e-01 2.888718e-02 9.537133e-01 3.032576e-02 9.542444e-01 3.412537e-02 9.523916e-01 3.897940e-02 9.474543e-01 4.405311e-02 9.434922e-01 4.453600e-02 9.400758e-01 4.566301e-02 9.331873e-01 4.648943e-02 9.234750e-01 4.129941e-02 9.032337e-01 2.215559e-02 8.495846e-01 -3.748306e-03 8.109584e-01 -1.307674e-02 7.744997e-01 -8.407529e-03 7.285367e-01 5.539398e-03 6.686315e-01 2.690040e-02 5.925961e-01 5.240116e-02 4.903746e-01 7.812143e-02 
4.290680e-01 -1.001027e-01 3.839843e-01 -1.184478e-01 2.354712e-01 -1.187153e-01 3.666068e-01 -9.085522e-02 4.727698e-01 -6.642244e-02 5.532346e-01 -4.560600e-02 6.174563e-01 -2.628847e-02 6.795027e-01 7.191190e-03 7.730027e-01 2.874718e-02 8.144509e-01 3.327406e-02 8.427919e-01 3.681288e-02 8.638561e-01 4.060161e-02 8.798811e-01 4.048328e-02 8.963603e-01 3.769728e-02 9.095275e-01 3.522965e-02 9.209879e-01 3.203085e-02 9.288456e-01 3.368915e-02 9.287207e-01 3.914013e-02 9.252452e-01 4.537327e-02 9.193518e-01 5.206336e-02 9.130358e-01 5.377109e-02 9.103919e-01 5.332708e-02 9.061021e-01 5.341613e-02 9.015121e-01 5.070409e-02 8.904883e-01 2.939326e-02 8.113884e-01 -1.020575e-02 7.736121e-01 -1.529642e-02 7.357101e-01 -5.665992e-03 6.849373e-01 1.254384e-02 6.195042e-01 3.348042e-02 5.434318e-01 4.571791e-02 4.669231e-01 2.446561e-02 
5.218058e-01 -5.557262e-02 4.531515e-01 -6.670031e-02 3.102083e-01 -6.692880e-02 4.437593e-01 -5.623616e-02 5.465614e-01 -4.871221e-02 6.217990e-01 -4.405189e-02 6.786100e-01 -3.835100e-02 7.320160e-01 -6.962177e-04 8.445650e-01 2.422409e-02 8.711668e-01 2.619276e-02 8.883377e-01 3.076916e-02 9.011715e-01 3.786605e-02 9.106940e-01 3.816439e-02 9.261776e-01 3.303616e-02 9.396988e-01 2.839386e-02 9.523097e-01 2.306770e-02 9.609284e-01 2.525413e-02 9.585825e-01 3.297465e-02 9.528227e-01 4.092401e-02 9.454850e-01 4.954054e-02 9.380890e-01 5.048900e-02 9.392427e-01 4.766317e-02 9.399357e-01 4.903910e-02 9.432564e-01 5.404867e-02 9.455091e-01 3.422343e-02 8.304001e-01 -2.048464e-02 8.000896e-01 -2.143799e-02 7.747991e-01 -1.286950e-02 7.402397e-01 -1.745580e-03 6.944621e-01 9.618464e-03 6.380974e-01 1.623438e-02 5.740917e-01 5.691957e-03 
5.238187e-01 -5.897856e-02 4.785452e-01 -8.160302e-02 4.088973e-01 -8.185194e-02 4.808577e-01 -7.382224e-02 5.487402e-01 -6.337103e-02 6.043500e-01 -5.675864e-02 6.451876e-01 -6.107854e-02 6.659658e-01 -9.024581e-02 6.462589e-01 -1.176461e-01 6.633480e-01 -1.324911e-01 6.850820e-01 -1.452734e-01 7.046598e-01 -1.561299e-01 7.190569e-01 -1.596646e-01 7.235025e-01 -1.564997e-01 7.230050e-01 -1.514994e-01 7.204023e-01 -1.472007e-01 7.196492e-01 -1.481944e-01 7.245338e-01 -1.533970e-01 7.310864e-01 -1.586138e-01 7.361674e-01 -1.616795e-01 7.372784e-01 -1.576992e-01 7.295701e-01 -1.477616e-01 7.183151e-01 -1.368928e-01 7.071525e-01 -1.242630e-01 7.054733e-01 -9.528081e-02 7.561429e-01 -4.870267e-02 7.613583e-01 -2.700582e-02 7.427223e-01 -1.240137e-02 7.087643e-01 2.530317e-04 6.639809e-01 9.404240e-03 6.132831e-01 8.592632e-03 5.635757e-01 -1.238686e-02 
6.021151e-01 -3.646336e-02 5.486387e-01 -4.920192e-02 4.778949e-01 -4.941513e-02 5.498699e-01 -4.842875e-02 6.152934e-01 -4.829658e-02 6.657674e-01 -5.534487e-02 6.940448e-01 -8.750828e-02 6.719695e-01 -2.189764e-01 4.687890e-01 -3.240304e-01 4.667271e-01 -3.648294e-01 4.876608e-01 -4.020736e-01 5.099497e-01 -4.375062e-01 5.258620e-01 -4.461330e-01 5.109816e-01 -4.313492e-01 4.879773e-01 -4.130996e-01 4.622443e-01 -3.958060e-01 4.470784e-01 -4.014607e-01 4.611344e-01 -4.252024e-01 4.847034e-01 -4.494835e-01 5.073724e-01 -4.697422e-01 5.215468e-01 -4.627531e-01 5.025999e-01 -4.351663e-01 4.750934e-01 -4.102034e-01 4.435908e-01 -3.852357e-01 4.363353e-01 -2.839806e-01 7.250791e-01 -9.245260e-02 7.849631e-01 -3.961814e-02 7.845054e-01 -1.998028e-02 7.632164e-01 -9.342645e-03 7.308739e-01 -3.057516e-03 6.910366e-01 -2.754759e-03 6.467320e-01 -1.296994e-02 
6.229689e-01 -4.389105e-02 5.955987e-01 -5.949126e-02 5.670928e-01 -5.969443e-02 6.003670e-01 -5.922828e-02 6.373753e-01 -5.636631e-02 6.702900e-01 -5.666177e-02 6.926944e-01 -6.994637e-02 6.906892e-01 -1.274697e-01 6.120781e-01 -1.761124e-01 6.162019e-01 -1.982660e-01 6.318635e-01 -2.183540e-01 6.479472e-01 -2.367465e-01 6.598402e-01 -2.424200e-01 6.568660e-01 -2.368124e-01 6.487869e-01 -2.288806e-01 6.386746e-01 -2.213307e-01 6.329987e-01 -2.239897e-01 6.399950e-01 -2.347482e-01 6.511091e-01 -2.456559e-01 6.612965e-01 -2.540395e-01 6.666272e-01 -2.495412e-01 6.565848e-01 -2.350363e-01 6.421289e-01 -2.205277e-01 6.265146e-01 -2.043093e-01 6.239921e-01 -1.533099e-01 7.484643e-01 -6.249412e-02 7.728473e-01 -3.169825e-02 7.650251e-01 -1.722923e-02 7.434495e-01 -8.565185e-03 7.144259e-01 -4.775796e-03 6.821313e-01 -8.380101e-03 6.506462e-01 -2.216288e-02 
6.907987e-01 -2.902600e-02 6.603118e-01 -3.785404e-02 6.302531e-01 -3.802583e-02 6.632182e-01 -3.986806e-02 6.993758e-01 -4.081607e-02 7.322942e-01 -4.193220e-02 7.608144e-01 -3.926878e-02 7.941982e-01 -1.880878e-03 8.927561e-01 2.387367e-02 9.064792e-01 2.607965e-02 9.133931e-01 3.038426e-02 9.184651e-01 3.718565e-02 9.224286e-01 3.674912e-02 9.345420e-01 3.025885e-02 9.462951e-01 2.422800e-02 9.575789e-01 1.835537e-02 9.649170e-01 2.046512e-02 9.615158e-01 2.856939e-02 9.548630e-01 3.694571e-02 9.474955e-01 4.573227e-02 9.408233e-01 4.679280e-02 9.443236e-01 4.329470e-02 9.491588e-01 4.432998e-02 9.572353e-01 5.025622e-02 9.635523e-01 3.154670e-02 8.522705e-01 -2.284398e-02 8.286275e-01 -2.403325e-02 8.146859e-01 -1.799658e-02 7.971346e-01 -1.260623e-02 7.746889e-01 -9.777123e-03 7.483510e-01 -1.106281e-02 7.198294e-01 -1.781238e-02 
7.211943e-01 -3.540921e-02 7.127676e-01 -4.518481e-02 7.107242e-01 -4.533874e-02 7.168672e-01 -4.705980e-02 7.306211e-01 -4.633946e-02 7.472449e-01 -4.410794e-02 7.657752e-01 -3.668574e-02 7.942830e-01 -1.546662e-03 8.745768e-01 2.451148e-02 8.901744e-01 3.045822e-02 8.969725e-01 3.621425e-02 9.015452e-01 4.287221e-02 9.057404e-01 4.292793e-02 9.168092e-01 3.742828e-02 9.280640e-01 3.188382e-02 9.387197e-01 2.691893e-02 9.453436e-01 2.901759e-02 9.425399e-01 3.657958e-02 9.363222e-01 4.474431e-02 9.293394e-01 5.281806e-02 9.235660e-01 5.409310e-02 9.264791e-01 5.108858e-02 9.309987e-01 5.095465e-02 9.369368e-01 5.289377e-02 9.360695e-01 3.328026e-02 8.424280e-01 -1.452761e-02 8.155331e-01 -1.965488e-02 8.008066e-01 -1.615726e-02 7.854990e-01 -1.249592e-02 7.680919e-01 -1.156526e-02 7.500927e-01 -1.510282e-02 7.338156e-01 -2.372087e-02 
7.805989e-01 -2.419905e-02 7.710025e-01 -2.978644e-02 7.679889e-01 -2.991113e-02 7.737946e-01 -3.222183e-02 7.870553e-01 -3.323935e-02 8.034895e-01 -3.238229e-02 8.228100e-01 -2.551327e-02 8.515338e-01 -1.203101e-03 9.072357e-01 1.856000e-02 9.257135e-01 2.580815e-02 9.332222e-01 3.126958e-02 9.373100e-01 3.622901e-02 9.411782e-01 3.650921e-02 9.492958e-01 3.264774e-02 9.581147e-01 2.829575e-02 9.662719e-01 2.493592e-02 9.709645e-01 2.663687e-02 9.690766e-01 3.251308e-02 9.641507e-01 3.930737e-02 9.585888e-01 4.549473e-02 9.545634e-01 4.703700e-02 9.562091e-01 4.534080e-02 9.592935e-01 4.445388e-02 9.612397e-01 4.240045e-02 9.517125e-01 2.496775e-02 8.901330e-01 -7.505916e-03 8.630671e-01 -1.578236e-02 8.484844e-01 -1.537518e-02 8.358807e-01 -1.331453e-02 8.223054e-01 -1.236407e-02 8.077534e-01 -1.380843e-02 7.933502e-01 -1.806062e-02 
8.148374e-01 -2.896095e-02 8.230039e-01 -3.499620e-02 8.402752e-01 -3.509828e-02 8.261526e-01 -3.732323e-02 8.213557e-01 -3.782374e-02 8.224851e-01 -3.663408e-02 8.286467e-01 -3.036433e-02 8.457422e-01 -1.664414e-03 9.050946e-01 2.109132e-02 9.147287e-01 2.726604e-02 9.175533e-01 3.296150e-02 9.188990e-01 3.896249e-02 9.206536e-01 3.927821e-02 9.284011e-01 3.497165e-02 9.367857e-01 3.046837e-02 9.449454e-01 2.654379e-02 9.497598e-01 2.857835e-02 9.470642e-01 3.499756e-02 9.416973e-01 4.200737e-02 9.358481e-01 4.872449e-02 9.314295e-01 4.970556e-02 9.341953e-01 4.708199e-02 9.384279e-01 4.632127e-02 9.434895e-01 4.655850e-02 9.419966e-01 2.974146e-02 8.678490e-01 -1.022720e-02 8.466143e-01 -1.641714e-02 8.372470e-01 -1.527691e-02 8.296213e-01 -1.369598e-02 8.222837e-01 -1.387225e-02 8.162213e-01 -1.669735e-02 8.131459e-01 -2.214382e-02 
8.670226e-01 -1.998093e-02 8.748017e-01 -2.344693e-02 8.916042e-01 -2.352320e-02 8.771306e-01 -2.584175e-02 8.717811e-01 -2.750495e-02 8.719051e-01 -2.870666e-02 8.753172e-01 -2.882588e-02 8.821560e-01 -2.278691e-02 9.007632e-01 -1.834795e-02 9.055959e-01 -1.810142e-02 9.085204e-01 -1.751527e-02 9.105494e-01 -1.649804e-02 9.121812e-01 -1.678728e-02 9.151686e-01 -1.812317e-02 9.180505e-01 -1.929903e-02 9.206941e-01 -2.022581e-02 9.222891e-01 -1.932094e-02 9.215851e-01 -1.698663e-02 9.199753e-01 -1.425348e-02 9.180387e-01 -1.125255e-02 9.162427e-01 -9.571834e-03 9.163463e-01 -8.641634e-03 9.166271e-01 -6.945983e-03 9.170196e-01 -4.698581e-03 9.160946e-01 -7.275383e-03 8.925742e-01 -1.683799e-02 8.852536e-01 -1.641129e-02 8.803661e-01 -1.447199e-02 8.755693e-01 -1.292642e-02 8.708259e-01 -1.253639e-02 8.669112e-01 -1.369181e-02 8.650944e-01 -1.637500e-02 
9.017638e-01 -2.331752e-02 9.238225e-01 -2.701858e-02 9.561166e-01 -2.706889e-02 9.262970e-01 -2.928676e-02 9.063732e-01 -3.093737e-02 8.927522e-01 -3.402259e-02 8.802521e-01 -4.578160e-02 8.547734e-01 -9.783510e-02 7.567284e-01 -1.412134e-01 7.482929e-01 -1.559165e-01 7.506968e-01 -1.697584e-01 7.549817e-01 -1.833130e-01 7.576656e-01 -1.858155e-01 7.487180e-01 -1.793327e-01 7.376327e-01 -1.717405e-01 7.259137e-01 -1.644235e-01 7.191560e-01 -1.669345e-01 7.246256e-01 -1.761696e-01 7.337054e-01 -1.853926e-01 7.426770e-01 -1.929199e-01 7.483497e-01 -1.889952e-01 7.408987e-01 -1.773247e-01 7.307121e-01 -1.674958e-01 7.186238e-01 -1.587181e-01 7.158799e-01 -1.202768e-01 8.388469e-01 -4.051456e-02 8.663540e-01 -2.072453e-02 8.720551e-01 -1.489406e-02 8.734439e-01 -1.314646e-02 8.751366e-01 -1.351589e-02 8.792559e-01 -1.563956e-02 8.875471e-01 -1.916789e-02 
9.474622e-01 -1.590755e-02 9.694029e-01 -1.798765e-02 1.001481e+00 -1.801441e-02 9.714236e-01 -2.009268e-02 9.511543e-01 -2.217155e-02 9.370377e-01 -2.586065e-02 9.240225e-01 -3.727455e-02 8.995772e-01 -8.241449e-02 8.155568e-01 -1.204785e-01 8.054523e-01 -1.344638e-01 8.058375e-01 -1.472486e-01 8.083581e-01 -1.594502e-01 8.095958e-01 -1.620507e-01 8.010413e-01 -1.567902e-01 7.906217e-01 -1.504057e-01 7.798088e-01 -1.442962e-01 7.734979e-01 -1.466156e-01 7.778587e-01 -1.547926e-01 7.855986e-01 -1.630353e-01 7.933723e-01 -1.697207e-01 7.982543e-01 -1.665391e-01 7.919021e-01 -1.566427e-01 7.831392e-01 -1.481459e-01 7.731465e-01 -1.400621e-01 7.724772e-01 -1.060937e-01 8.790896e-01 -3.692423e-02 9.053280e-01 -1.874064e-02 9.122101e-01 -1.322512e-02 9.151772e-01 -1.138682e-02 9.184562e-01 -1.114245e-02 9.238891e-01 -1.201027e-02 9.329902e-01 -1.373495e-02 
9.807078e-01 -1.811005e-02 1.014231e+00 -2.025545e-02 1.058541e+00 -2.025232e-02 1.016613e+00 -2.182822e-02 9.852442e-01 -2.263945e-02 9.620840e-01 -2.283287e-02 9.452887e-01 -2.140612e-02 9.358641e-01 -8.429946e-03 9.532578e-01 1.615237e-03 9.458100e-01 3.342817e-03 9.396435e-01 5.727012e-03 9.350308e-01 8.699364e-03 9.316046e-01 9.035630e-03 9.319520e-01 7.388791e-03 9.329587e-01 5.863852e-03 9.345203e-01 4.328719e-03 9.353021e-01 5.480422e-03 9.331215e-01 8.380487e-03 9.304573e-01 1.131471e-02 9.279697e-01 1.431913e-02 9.261380e-01 1.462126e-02 9.279814e-01 1.331353e-02 9.305886e-01 1.320851e-02 9.349117e-01 1.466346e-02 9.401695e-01 8.798131e-03 9.083602e-01 -9.758379e-03 9.071727e-01 -1.088971e-02 9.110033e-01 -1.039133e-02 9.168902e-01 -1.046242e-02 9.254942e-01 -1.138363e-02 9.380295e-01 -1.314878e-02 9.559065e-01 -1.554376e-02 
1.020365e+00 -1.190656e-02 1.053780e+00 -1.300321e-02 1.097917e+00 -1.297998e-02 1.055943e+00 -1.437969e-02 1.024505e+00 -1.534115e-02 1.001331e+00 -1.568872e-02 9.849714e-01 -1.358198e-02 9.777415e-01 3.330494e-03 1.002738e+00 1.703141e-02 9.963807e-01 2.025877e-02 9.896351e-01 2.401117e-02 9.840844e-01 2.830140e-02 9.799420e-01 2.895554e-02 9.806699e-01 2.677770e-02 9.824107e-01 2.454963e-02 9.848401e-01 2.238156e-02 9.860315e-01 2.383775e-02 9.831658e-01 2.771734e-02 9.794577e-01 3.168146e-02 9.759746e-01 3.550092e-02 9.736001e-01 3.549385e-02 9.761908e-01 3.308600e-02 9.799275e-01 3.190611e-02 9.855070e-01 3.208949e-02 9.906598e-01 2.209522e-02 9.478797e-01 -4.394987e-03 9.439233e-01 -8.033265e-03 9.477422e-01 -8.202927e-03 9.543827e-01 -8.213828e-03 9.638686e-01 -8.604044e-03 9.771350e-01 -9.436600e-03 9.954475e-01 -1.061447e-02 
1.050862e+00 -1.329250e-02 1.093771e+00 -1.437389e-02 1.147779e+00 -1.432085e-02 1.096363e+00 -1.517357e-02 1.056004e+00 -1.502458e-02 1.025181e+00 -1.340008e-02 1.003102e+00 -8.854698e-03 9.909045e-01 2.403690e-03 9.934908e-01 1.256582e-02 9.867878e-01 1.806584e-02 9.790528e-01 2.246861e-02 9.723004e-01 2.611116e-02 9.673265e-01 2.751485e-02 9.654060e-01 2.703113e-02 9.649537e-01 2.610793e-02 9.651901e-01 2.543912e-02 9.648351e-01 2.660418e-02 9.626742e-01 2.919862e-02 9.599897e-01 3.197056e-02 9.576895e-01 3.419992e-02 9.566446e-01 3.425700e-02 9.583164e-01 3.256988e-02 9.610916e-01 3.049686e-02 9.640176e-01 2.738776e-02 9.637045e-01 1.840171e-02 9.460091e-01 3.446485e-03 9.430721e-01 -2.626930e-03 9.478617e-01 -5.278973e-03 9.575739e-01 -6.899722e-03 9.718695e-01 -8.379451e-03 9.914006e-01 -9.997099e-03 1.017272e+00 -1.171598e-02 
1.084754e+00 -8.067791e-03 1.127417e+00 -8.462181e-03 1.181142e+00 -8.392672e-03 1.129877e+00 -9.137752e-03 1.089631e+00 -9.154984e-03 1.058840e+00 -7.932512e-03 1.036614e+00 -4.194231e-03 1.023509e+00 4.297921e-03 1.021229e+00 1.220007e-02 1.014125e+00 1.688402e-02 1.006275e+00 2.048683e-02 9.993872e-01 2.332571e-02 9.942128e-01 2.446290e-02 9.915448e-01 2.414678e-02 9.903101e-01 2.343919e-02 9.897734e-01 2.301259e-02 9.889050e-01 2.396047e-02 9.868766e-01 2.602192e-02 9.845353e-01 2.825603e-02 9.826365e-01 2.996659e-02 9.819337e-01 3.001183e-02 9.833615e-01 2.863707e-02 9.858278e-01 2.669769e-02 9.883147e-01 2.354861e-02 9.878117e-01 1.597740e-02 9.765670e-01 4.629604e-03 9.750577e-01 -8.666091e-04 9.804716e-01 -3.326409e-03 9.907150e-01 -4.635872e-03 1.005466e+00 -5.592820e-03 1.025300e+00 -6.483058e-03 1.051269e+00 -7.344152e-03 
1.111683e+00 -8.929624e-03 1.162201e+00 -9.298365e-03 1.224010e+00 -9.201698e-03 1.164992e+00 -9.555256e-03 1.117249e+00 -8.905558e-03 1.079545e+00 -6.855467e-03 1.050969e+00 -2.775070e-03 1.031043e+00 3.806496e-03 1.018774e+00 1.031832e-02 1.007318e+00 1.525882e-02 9.968729e-01 1.912680e-02 9.880316e-01 2.203884e-02 9.811731e-01 2.368707e-02 9.765125e-01 2.426337e-02 9.734473e-01 2.439491e-02 9.713423e-01 2.462881e-02 9.694927e-01 2.553037e-02 9.674478e-01 2.700120e-02 9.655572e-01 2.849644e-02 9.643105e-01 2.945948e-02 9.642021e-01 2.926112e-02 9.655993e-01 2.786899e-02 9.679170e-01 2.550256e-02 9.702883e-01 2.172401e-02 9.711269e-01 1.539746e-02 9.686591e-01 7.526785e-03 9.713507e-01 2.158464e-03 9.798183e-01 -1.197613e-03 9.936628e-01 -3.459813e-03 1.012985e+00 -5.210743e-03 1.038402e+00 -6.711685e-03 1.070891e+00 -7.993729e-03 
1.139986e+00 -4.518050e-03 1.190026e+00 -4.433720e-03 1.251336e+00 -4.324165e-03 1.192697e+00 -4.652487e-03 1.145277e+00 -4.219341e-03 1.107753e+00 -2.660725e-03 1.079073e+00 5.301579e-04 1.058468e+00 5.571107e-03 1.044578e+00 1.065209e-02 1.032510e+00 1.463384e-02 1.021855e+00 1.774003e-02 1.012903e+00 2.004396e-02 1.005885e+00 2.135930e-02 1.000880e+00 2.184146e-02 9.974068e-01 2.196901e-02 9.949170e-01 2.219326e-02 9.928336e-01 2.292636e-02 9.908121e-01 2.409710e-02 9.890845e-01 2.528189e-02 9.880359e-01 2.601310e-02 9.880610e-01 2.581164e-02 9.894059e-01 2.461282e-02 9.916461e-01 2.252217e-02 9.940782e-01 1.920052e-02 9.955611e-01 1.395948e-02 9.954013e-01 7.704118e-03 9.993321e-01 3.213490e-03 1.008398e+00 3.942271e-04 1.022542e+00 -1.394806e-03 1.041973e+00 -2.621561e-03 1.067325e+00 -3.524866e-03 1.099578e+00 -4.173254e-03 
1.162801e+00 -5.088495e-03 1.219387e+00 -4.998187e-03 1.287381e+00 -4.865064e-03 1.222245e+00 -4.975057e-03 1.168424e+00 -4.205431e-03 1.124756e+00 -2.336076e-03 1.090153e+00 8.208411e-04 1.063530e+00 5.139243e-03 1.043341e+00 9.620838e-03 1.026854e+00 1.352899e-02 1.013096e+00 1.674569e-02 1.001789e+00 1.923008e-02 9.928160e-01 2.091682e-02 9.860119e-01 2.192776e-02 9.809712e-01 2.256587e-02 9.772294e-01 2.314257e-02 9.743494e-01 2.389501e-02 9.720794e-01 2.478907e-02 9.704918e-01 2.556312e-02 9.698056e-01 2.588724e-02 9.702562e-01 2.544798e-02 9.719578e-01 2.412522e-02 9.746950e-01 2.189359e-02 9.780992e-01 1.859625e-02 9.817950e-01 1.410072e-02 9.860998e-01 9.089714e-03 9.938747e-01 4.913722e-03 1.006414e+00 1.791159e-03 1.024278e+00 -5.152695e-04 1.048005e+00 -2.266028e-03 1.078331e+00 -3.611527e-03 1.116215e+00 -4.577781e-03 
1.185639e+00 -1.352799e-03 1.241443e+00 -9.613225e-04 1.308644e+00 -8.188649e-04 1.244176e+00 -9.626381e-04 1.190968e+00 -4.298589e-04 1.147779e+00 9.712442e-04 1.113424e+00 3.389702e-03 1.086723e+00 6.700757e-03 1.066151e+00 1.017883e-02 1.049494e+00 1.325651e-02 1.035738e+00 1.579533e-02 1.024490e+00 1.774857e-02 1.015542e+00 1.907643e-02 1.008673e+00 1.987834e-02 1.003513e+00 2.038980e-02 9.996478e-01 2.085784e-02 9.967028e-01 2.145980e-02 9.944628e-01 2.216646e-02 9.929637e-01 2.276917e-02 9.923710e-01 2.299764e-02 9.928707e-01 2.260080e-02 9.945527e-01 2.146719e-02 9.972760e-01 1.955948e-02 1.000793e+00 1.677234e-02 1.004918e+00 1.307237e-02 1.010104e+00 9.023840e-03 1.018482e+00 5.615686e-03 1.031265e+00 3.088857e-03 1.049095e+00 1.300677e-03 1.072571e+00 5.292480e-05 1.102466e+00 -7.871707e-04 1.139762e+00 -1.265672e-03 
1.203974e+00 -1.799693e-03 1.265254e+00 -1.427163e-03 1.338009e+00 -1.264925e-03 1.268055e+00 -1.315535e-03 1.209384e+00 -6.346348e-04 1.160862e+00 8.742940e-04 1.121332e+00 3.228390e-03 1.089586e+00 6.247130e-03 1.064232e+00 9.465362e-03 1.043675e+00 1.247722e-02 1.026873e+00 1.508929e-02 1.013213e+00 1.721144e-02 1.002287e+00 1.881159e-02 9.937418e-01 1.995451e-02 9.871906e-01 2.078907e-02 9.822508e-01 2.147552e-02 9.785977e-01 2.211953e-02 9.760344e-01 2.270122e-02 9.745320e-01 2.308421e-02 9.741703e-01 2.308102e-02 9.750624e-01 2.251529e-02 9.772810e-01 2.128507e-02 9.808069e-01 1.934749e-02 9.856142e-01 1.668156e-02 9.918295e-01 1.337811e-02 1.000049e+00 9.837467e-03 1.011638e+00 6.623347e-03 1.027697e+00 3.975522e-03 1.049044e+00 1.893416e-03 1.076440e+00 3.014736e-04 1.110724e+00 -8.550041e-04 1.152869e+00 -1.574926e-03 
1.221439e+00 1.382049e-03 1.281574e+00 1.957012e-03 1.353179e+00 2.125005e-03 1.284250e+00 2.008370e-03 1.226564e+00 2.457899e-03 1.178916e+00 3.556996e-03 1.140089e+00 5.321804e-03 1.108840e+00 7.609974e-03 1.083816e+00 1.007476e-02 1.063579e+00 1.240171e-02 1.047115e+00 1.442599e-02 1.033776e+00 1.606964e-02 1.023114e+00 1.730876e-02 1.014754e+00 1.819525e-02 1.008319e+00 1.884515e-02 1.003455e+00 1.938339e-02 9.998680e-01 1.988906e-02 9.973769e-01 2.034318e-02 9.959417e-01 2.063463e-02 9.956186e-01 2.060996e-02 9.965005e-01 2.012510e-02 9.986590e-01 1.909286e-02 1.002113e+00 1.747676e-02 1.006897e+00 1.527299e-02 1.013199e+00 1.258049e-02 1.021601e+00 9.727412e-03 1.033233e+00 7.150086e-03 1.049100e+00 5.060111e-03 1.070020e+00 3.477542e-03 1.096777e+00 2.349065e-03 1.130242e+00 1.625384e-03 1.171415e+00 1.293341e-03 
1.235050e+00 9.433377e-04 1.299764e+00 1.477647e-03 1.375988e+00 1.661634e-03 1.302433e+00 1.564078e-03 1.240117e+00 2.068300e-03 1.187924e+00 3.204254e-03 1.144692e+00 4.934673e-03 1.109237e+00 7.113359e-03 1.080325e+00 9.485167e-03 1.056742e+00 1.180480e-02 1.037508e+00 1.390848e-02 1.021902e+00 1.570310e-02 1.009374e+00 1.715260e-02 9.994734e-01 1.827996e-02 9.917946e-01 1.915269e-02 9.859834e-01 1.984626e-02 9.817567e-01 2.040544e-02 9.789313e-01 2.081350e-02 9.774356e-01 2.099389e-02 9.772849e-01 2.083949e-02 9.785447e-01 2.024819e-02 9.812977e-01 1.915419e-02 9.856372e-01 1.753612e-02 9.917176e-01 1.542135e-02 9.998498e-01 1.292347e-02 1.010623e+00 1.028229e-02 1.024936e+00 7.785388e-03 1.043704e+00 5.614157e-03 1.067781e+00 3.836865e-03 1.098012e+00 2.464874e-03 1.135294e+00 1.503195e-03 1.180614e+00 9.778276e-04 
1.247219e+00 3.682038e-03 1.310370e+00 4.354150e-03 1.385028e+00 4.540239e-03 1.312924e+00 4.363334e-03 1.252030e+00 4.653484e-03 1.201169e+00 5.438161e-03 1.159133e+00 6.691423e-03 1.124709e+00 8.302087e-03 1.096682e+00 1.007751e-02 1.073885e+00 1.182790e-02 1.055362e+00 1.342153e-02 1.040381e+00 1.478259e-02 1.028382e+00 1.588241e-02 1.018904e+00 1.673894e-02 1.011551e+00 1.740443e-02 1.005984e+00 1.793676e-02 1.001937e+00 1.836851e-02 9.992372e-01 1.868359e-02 9.978107e-01 1.881844e-02 9.976642e-01 1.868481e-02 9.988560e-01 1.819873e-02 1.001471e+00 1.730562e-02 1.005620e+00 1.598938e-02 1.011481e+00 1.427912e-02 1.019376e+00 1.227672e-02 1.029865e+00 1.017959e-02 1.043755e+00 8.218356e-03 1.061898e+00 6.546360e-03 1.085133e+00 5.227078e-03 1.114311e+00 4.273083e-03 1.150356e+00 3.685408e-03 1.194285e+00 3.477084e-03 
1.255940e+00 3.171666e-03 1.322901e+00 3.784623e-03 1.401386e+00 3.982931e-03 1.325412e+00 3.787440e-03 1.260636e+00 4.092751e-03 1.205960e+00 4.897777e-03 1.160235e+00 6.153208e-03 1.122317e+00 7.749201e-03 1.091078e+00 9.526648e-03 1.065449e+00 1.132508e-02 1.044510e+00 1.301895e-02 1.027507e+00 1.452567e-02 1.013831e+00 1.580394e-02 1.002979e+00 1.685035e-02 9.945280e-01 1.768808e-02 9.881298e-01 1.834666e-02 9.835142e-01 1.884044e-02 9.805000e-01 1.915357e-02 9.789963e-01 1.923997e-02 9.789915e-01 1.903739e-02 9.805357e-01 1.848725e-02 9.837292e-01 1.755299e-02 9.887269e-01 1.623117e-02 9.957684e-01 1.456042e-02 1.005227e+00 1.263474e-02 1.017658e+00 1.060596e-02 1.033786e+00 8.644769e-03 1.054419e+00 6.883822e-03 1.080389e+00 5.404076e-03 1.112567e+00 4.252545e-03 1.151875e+00 3.465974e-03 1.199310e+00 3.087247e-03 
1.262885e+00 5.568986e-03 1.327808e+00 6.276809e-03 1.404253e+00 6.473485e-03 1.330218e+00 6.195743e-03 1.267363e+00 6.306221e-03 1.214526e+00 6.807090e-03 1.170513e+00 7.663178e-03 1.134148e+00 8.792388e-03 1.104297e+00 1.007468e-02 1.079904e+00 1.138698e-02 1.060055e+00 1.263111e-02 1.043998e+00 1.374200e-02 1.031121e+00 1.468717e-02 1.020925e+00 1.546380e-02 1.012993e+00 1.608940e-02 1.006990e+00 1.658584e-02 1.002658e+00 1.696241e-02 9.998249e-01 1.720421e-02 9.984013e-01 1.727230e-02 9.983736e-01 1.711486e-02 9.997899e-01 1.668339e-02 1.002751e+00 1.594775e-02 1.007417e+00 1.490623e-02 1.014030e+00 1.359336e-02 1.022961e+00 1.208934e-02 1.034735e+00 1.051912e-02 1.050033e+00 9.021477e-03 1.069625e+00 7.706237e-03 1.094330e+00 6.641660e-03 1.125021e+00 5.866375e-03 1.162643e+00 5.407679e-03 1.208226e+00 5.295477e-03 
1.266603e+00 4.927685e-03 1.334664e+00 5.558141e-03 1.414250e+00 5.763258e-03 1.337020e+00 5.451296e-03 1.270960e+00 5.566592e-03 1.214972e+00 6.095617e-03 1.167919e+00 6.990522e-03 1.128687e+00 8.167531e-03 1.096198e+00 9.516858e-03 1.069454e+00 1.092550e-02 1.047566e+00 1.229710e-02 1.029778e+00 1.356113e-02 1.015458e+00 1.467459e-02 1.004078e+00 1.561949e-02 9.952058e-01 1.639520e-02 9.884917e-01 1.700691e-02 9.836698e-01 1.745356e-02 9.805587e-01 1.771995e-02 9.790595e-01 1.777637e-02 9.791505e-01 1.758584e-02 9.808788e-01 1.711523e-02 9.843581e-01 1.634664e-02 9.897740e-01 1.528606e-02 9.974030e-01 1.396986e-02 1.007636e+00 1.246895e-02 1.020999e+00 1.088453e-02 1.038143e+00 9.328577e-03 1.059813e+00 7.899924e-03 1.086819e+00 6.674875e-03 1.120031e+00 5.712291e-03 1.160385e+00 5.063980e-03 1.208885e+00 4.783136e-03 
1.268395e+00 7.077751e-03 1.333884e+00 7.774048e-03 1.410891e+00 7.973737e-03 1.336154e+00 7.580874e-03 1.272573e+00 7.517062e-03 1.218982e+00 7.774917e-03 1.174188e+00 8.320841e-03 1.137036e+00 9.093582e-03 1.106429e+00 1.001154e-02 1.081360e+00 1.098955e-02 1.060944e+00 1.195417e-02 1.044425e+00 1.285126e-02 1.031175e+00 1.364777e-02 1.020675e+00 1.432968e-02 1.012503e+00 1.489603e-02 1.006323e+00 1.534978e-02 1.001880e+00 1.568847e-02 9.990030e-01 1.589809e-02 9.975967e-01 1.595307e-02 9.976405e-01 1.582208e-02 9.991806e-01 1.547723e-02 1.002328e+00 1.490336e-02 1.007267e+00 1.410549e-02 1.014267e+00 1.311404e-02 1.023706e+00 1.198761e-02 1.036087e+00 1.080853e-02 1.052032e+00 9.667258e-03 1.072261e+00 8.643735e-03 1.097573e+00 7.799435e-03 1.128843e+00 7.180696e-03 1.167030e+00 6.826921e-03 1.213173e+00 6.777935e-03 
1.267027e+00 6.255479e-03 1.335057e+00 6.852997e-03 1.414603e+00 7.057353e-03 1.337282e+00 6.626735e-03 1.271108e+00 6.573703e-03 1.214972e+00 6.880885e-03 1.167731e+00 7.504712e-03 1.128274e+00 8.377975e-03 1.095549e+00 9.417726e-03 1.068583e+00 1.053821e-02 1.046510e+00 1.166277e-02 1.028574e+00 1.273099e-02 1.014137e+00 1.370094e-02 1.002666e+00 1.454775e-02 9.937227e-01 1.525886e-02 9.869595e-01 1.582717e-02 9.821138e-01 1.624421e-02 9.790054e-01 1.649567e-02 9.775334e-01 1.656107e-02 9.776732e-01 1.641763e-02 9.794724e-01 1.604660e-02 9.830518e-01 1.544028e-02 9.886101e-01 1.460777e-02 9.964359e-01 1.357889e-02 1.006920e+00 1.240530e-02 1.020567e+00 1.115654e-02 1.037988e+00 9.910241e-03 1.059893e+00 8.741256e-03 1.087072e+00 7.716484e-03 1.120395e+00 6.896291e-03 1.160807e+00 6.339004e-03 1.209323e+00 6.104631e-03 
1.263748e+00 8.247270e-03 1.328601e+00 8.890879e-03 1.404956e+00 9.085991e-03 1.330754e+00 8.576175e-03 1.267687e+00 8.353411e-03 1.214561e+00 8.408097e-03 1.170165e+00 8.710837e-03 1.133337e+00 9.214223e-03 1.102992e+00 9.858461e-03 1.078144e+00 1.058083e-02 1.057921e+00 1.132467e-02 1.041573e+00 1.204492e-02 1.028470e+00 1.271007e-02 1.018093e+00 1.330110e-02 1.010019e+00 1.380784e-02 1.003916e+00 1.422380e-02 9.995364e-01 1.454086e-02 9.967098e-01 1.474599e-02 9.953426e-01 1.482116e-02 9.954121e-01 1.474650e-02 9.969649e-01 1.450556e-02 1.000117e+00 1.409103e-02 1.005059e+00 1.350946e-02 1.012067e+00 1.278439e-02 1.021516e+00 1.195685e-02 1.033885e+00 1.108186e-02 1.049763e+00 1.022043e-02 1.069837e+00 9.430974e-03 1.094889e+00 8.765101e-03 1.125796e+00 8.268705e-03 1.163522e+00 7.985849e-03 1.209125e+00 7.962381e-03 