# vtk DataFile Version 2.0
Comment goes here
ASCII

DATASET STRUCTURED_POINTS
FIELD FieldData 1
TIME 1 1 double
0.05500000
DIMENSIONS    512   128   1

ORIGIN    0.000   0.000   0.000
SPACING   0.0019531 0.0019531   1.000

POINT_DATA   65536
SCALARS Omega double
LOOKUP_TABLE default

-1.545665e-09 -1.934988e-09 -1.553215e-09 -2.074711e-09 -1.303064e-09 -1.844692e-09 -2.430852e-10 -2.436742e-10 3.377102e-09 5.614521e-09 1.403995e-08 2.231026e-08 4.056426e-08 6.068092e-08 9.410090e-08 1.294362e-07 1.754617e-07 2.155676e-07 2.506144e-07 2.609445e-07 2.393603e-07 1.754329e-07 6.321493e-08 -8.349402e-08 -2.627647e-07 -4.439642e-07 -6.279359e-07 -7.958289e-07 -9.581253e-07 -1.116175e-06 -1.281060e-06 -1.463939e-06 -1.668819e-06 -1.914127e-06 -2.199911e-06 -2.552584e-06 -2.973599e-06 -3.505772e-06 -4.156621e-06 -4.990827e-06 -6.025703e-06 -7.351346e-06 -8.991048e-06 -1.105418e-05 -1.356806e-05 -1.664031e-05 -2.029311e-05 -2.461033e-05 -2.960446e-05 -3.531437e-05 -4.173933e-05 -4.888609e-05 -5.676095e-05 -6.540481e-05 -7.489433e-05 -8.532248e-05 -9.679838e-05 -1.094297e-04 -1.233845e-04 -1.388055e-04 -1.559288e-04 -1.749078e-04 -1.960194e-04 -2.195050e-04 -2.457351e-04 -2.750357e-04 -3.077420e-04 -3.442248e-04 -3.847978e-04 -4.297730e-04 -4.791826e-04 -5.328209e-04 -5.901823e-04 -6.503127e-04 -7.118535e-04 -7.725713e-04 -8.296513e-04 -8.799152e-04 -9.198467e-04 -9.466943e-04 -9.578953e-04 -9.534418e-04 -9.356772e-04 -9.091571e-04 -8.790198e-04 -8.474506e-04 -8.155431e-04 -7.833210e-04 -7.522630e-04 -7.243536e-04 -6.997080e-04 -6.778063e-04 -6.572892e-04 -6.386547e-04 -6.225816e-04 -6.085390e-04 -5.957567e-04 -5.830685e-04 -5.714700e-04 -5.615297e-04 -5.527028e-04 -5.443066e-04 -5.354712e-04 -5.277941e-04 -5.209419e-04 -5.151775e-04 -5.087635e-04 -5.022932e-04 -4.964276e-04 -4.913242e-04 -4.864599e-04 -4.805207e-04 -4.744856e-04 -4.689041e-04 -4.638453e-04 -4.583317e-04 -4.515214e-04 -4.447152e-04 -4.379353e-04 -4.314577e-04 -4.233817e-04 -4.140321e-04 -4.040742e-04 -3.938023e-04 -3.826058e-04 -3.687813e-04 -3.530935e-04 -3.361197e-04 -3.179754e-04 -2.973738e-04 -2.729494e-04 -2.459197e-04 -2.161859e-04 -1.839162e-04 -1.463621e-04 -1.032003e-04 -5.425804e-05 8.599971e-07 6.504032e-05 1.425400e-04 2.378884e-04 3.559226e-04 5.082961e-04 7.114569e-04 9.921687e-04 1.377079e-03 1.894822e-03 2.554636e-03 3.326891e-03 4.112084e-03 4.729137e-03 4.950040e-03 4.566957e-03 3.505602e-03 1.880099e-03 -1.735300e-06 -1.760166e-03 -3.062630e-03 -3.736821e-03 -3.772139e-03 -3.279149e-03 -2.414703e-03 -1.336343e-03 -1.909065e-04 8.756907e-04 1.707634e-03 2.156219e-03 2.122484e-03 1.611554e-03 7.560196e-04 -2.162742e-04 -1.064197e-03 -1.615187e-03 -1.804937e-03 -1.662948e-03 -1.270480e-03 -7.185830e-04 -9.037093e-05 5.387507e-04 1.089468e-03 1.477772e-03 1.628560e-03 1.507530e-03 1.146705e-03 6.477337e-04 1.459903e-04 -2.392976e-04 -4.435014e-04 -4.620581e-04 -3.322773e-04 -1.062089e-04 1.666635e-04 4.454638e-04 6.939665e-04 8.768002e-04 9.613206e-04 9.271503e-04 7.799947e-04 5.561677e-04 3.146171e-04 1.123813e-04 -1.467835e-05 -6.350674e-05 -5.586792e-05 -2.583121e-05 -2.931139e-06 -2.134553e-06 -1.759635e-05 -2.496572e-05 9.343308e-06 1.125565e-04 2.883741e-04 5.095613e-04 7.230337e-04 8.719546e-04 9.167930e-04 8.488890e-04 6.868775e-04 4.654228e-04 2.233249e-04 -9.662870e-07 -1.675455e-04 -2.324083e-04 -1.535215e-04 9.321119e-05 4.899403e-04 9.655460e-04 1.405042e-03 1.691051e-03 1.748228e-03 1.571236e-03 1.217015e-03 7.754746e-04 3.379076e-04 -2.014290e-05 -2.392463e-04 -2.702655e-04 -7.499714e-05 3.579581e-04 9.881960e-04 1.706008e-03 2.346194e-03 2.738354e-03 2.775593e-03 2.455400e-03 1.875169e-03 1.183107e-03 5.266491e-04 1.725934e-05 -2.733092e-04 -3.035467e-04 -5.349926e-05 4.676650e-04 1.201029e-03 2.020940e-03 2.744855e-03 3.183743e-03 3.214401e-03 2.832395e-03 2.150502e-03 1.346228e-03 5.949399e-04 2.437528e-05 -2.960537e-04 -3.416055e-04 -1.163219e-04 3.518161e-04 9.985729e-04 1.712046e-03 2.335720e-03 2.708094e-03 2.720215e-03 2.367274e-03 1.750756e-03 1.034765e-03 3.807892e-04 -9.853242e-05 -3.529510e-04 -3.806075e-04 -2.074218e-04 1.259385e-04 5.629920e-04 1.024925e-03 1.411696e-03 1.621970e-03 1.589942e-03 1.316821e-03 8.779510e-04 3.903663e-04 -3.131261e-05 -3.137397e-04 -4.332703e-04 -4.060179e-04 -2.671899e-04 -5.681323e-05 1.854770e-04 4.181899e-04 5.970282e-04 6.805233e-04 6.446995e-04 4.956457e-04 2.739205e-04 3.837049e-05 -1.558744e-04 -2.789272e-04 -3.311048e-04 -3.360223e-04 -3.254090e-04 -3.237282e-04 -3.385759e-04 -3.563815e-04 -3.484144e-04 -2.814886e-04 -1.371150e-04 7.601377e-05 3.167471e-04 5.272972e-04 6.545803e-04 6.711867e-04 5.794162e-04 4.047254e-04 1.827917e-04 -4.795136e-05 -2.479178e-04 -3.731688e-04 -3.764867e-04 -2.183918e-04 1.111790e-04 5.708872e-04 1.064931e-03 1.468208e-03 1.675525e-03 1.640154e-03 1.386785e-03 9.892811e-04 5.401077e-04 1.238413e-04 -1.900734e-04 -3.444772e-04 -2.898174e-04 7.080321e-06 5.406930e-04 1.239745e-03 1.962644e-03 2.529247e-03 2.788234e-03 2.675774e-03 2.237209e-03 1.596048e-03 9.029788e-04 2.899571e-04 -1.482688e-04 -3.510974e-04 -2.815824e-04 7.512190e-05 6.942197e-04 1.488902e-03 2.300619e-03 2.931902e-03 3.212165e-03 3.068880e-03 2.554284e-03 1.815449e-03 1.028598e-03 3.368751e-04 -1.822542e-04 -5.169898e-04 -6.991469e-04 -7.769433e-04 -7.951108e-04 -7.858187e-04 -7.688474e-04 -7.536621e-04 -7.430492e-04 -7.357705e-04 -7.300142e-04 -7.249130e-04 -7.201330e-04 -7.151975e-04 -7.090845e-04 -7.015679e-04 -6.930293e-04 -6.839196e-04 -6.740222e-04 -6.628028e-04 -6.504516e-04 -6.374534e-04 -6.241919e-04 -6.103173e-04 -5.956127e-04 -5.803968e-04 -5.651278e-04 -5.499783e-04 -5.345471e-04 -5.188497e-04 -5.031808e-04 -4.879127e-04 -4.729252e-04 -4.579084e-04 -4.429404e-04 -4.282899e-04 -4.141504e-04 -4.002616e-04 -3.864489e-04 -3.728536e-04 -3.597104e-04 -3.470782e-04 -3.346747e-04 -3.224762e-04 -3.106170e-04 -2.992896e-04 -2.883838e-04 -2.776991e-04 -2.672601e-04 -2.572059e-04 -2.476268e-04 -2.383459e-04 -2.292522e-04 -2.204146e-04 -2.119591e-04 -2.039005e-04 -1.960615e-04 -1.884216e-04 -1.810494e-04 -1.740482e-04 -1.673404e-04 -1.608084e-04 -1.544643e-04 -1.483855e-04 -1.426173e-04 -1.370499e-04 -1.316216e-04 -1.263703e-04 -1.213673e-04 -1.166125e-04 -1.120006e-04 -1.075196e-04 -1.032071e-04 -9.911997e-05 -9.520800e-05 -9.140531e-05 -8.771961e-05 -8.419537e-05 -8.085603e-05 -7.763616e-05 -7.450318e-05 -7.147911e-05 -6.860464e-05 -6.587577e-05 -6.323126e-05 -6.066507e-05 -5.819809e-05 -5.586221e-05 -5.362586e-05 -5.145313e-05 -4.934888e-05 -4.733912e-05 -4.543592e-05 -4.360129e-05 -4.181837e-05 -4.010005e-05 -3.846960e-05 -3.692282e-05 -3.542473e-05 -3.397251e-05 -3.257779e-05 -3.125879e-05 -2.999615e-05 -2.877097e-05 -2.758573e-05 -2.645631e-05 -2.538880e-05 -2.436235e-05 -2.336794e-05 -2.241323e-05 -2.151207e-05 -2.066144e-05 -1.984246e-05 -1.905131e-05 -1.829059e-05 -1.755991e-05 -1.682581e-05 -1.604257e-05 -1.515313e-05 -1.410676e-05 -1.284253e-05 -1.132275e-05 -9.562887e-06 -7.658575e-06 -5.771148e-06 -4.063341e-06 -2.657409e-06 -1.599382e-06 -8.725471e-07 -4.172614e-07 -1.597662e-07 -3.142445e-08 2.143198e-08 3.536660e-08 3.234546e-08 2.417295e-08 1.598527e-08 9.670919e-09 5.313104e-09 2.558226e-09 8.756383e-10 -1.082085e-10 -7.249538e-10 -1.043156e-09 -1.355678e-09 -1.400114e-09 -1.693774e-09 
2.311416e-06 6.226189e-07 -2.699022e-07 -5.953414e-06 -1.465382e-05 -3.789067e-05 -8.063352e-05 -1.718859e-04 -3.405926e-04 -6.628403e-04 -1.231682e-03 -2.228312e-03 -3.873995e-03 -6.523606e-03 -1.056176e-02 -1.649556e-02 -2.472940e-02 -3.563140e-02 -4.916714e-02 -6.500095e-02 -8.216953e-02 -9.940832e-02 -1.152197e-01 -1.284036e-01 -1.384822e-01 -1.456944e-01 -1.510896e-01 -1.556357e-01 -1.602658e-01 -1.654759e-01 -1.716398e-01 -1.789707e-01 -1.874299e-01 -1.969598e-01 -2.073984e-01 -2.189822e-01 -2.318959e-01 -2.464175e-01 -2.628111e-01 -2.813723e-01 -3.028410e-01 -3.273804e-01 -3.554814e-01 -3.868061e-01 -4.213126e-01 -4.584372e-01 -4.973085e-01 -5.369149e-01 -5.758929e-01 -6.133177e-01 -6.479588e-01 -6.787436e-01 -7.048479e-01 -7.261091e-01 -7.433006e-01 -7.574895e-01 -7.695813e-01 -7.802328e-01 -7.899009e-01 -7.992043e-01 -8.084666e-01 -8.178707e-01 -8.274039e-01 -8.372939e-01 -8.478590e-01 -8.593188e-01 -8.716882e-01 -8.849367e-01 -8.992379e-01 -9.146767e-01 -9.310752e-01 -9.478399e-01 -9.642695e-01 -9.796417e-01 -9.929466e-01 -1.002693e+00 -1.006885e+00 -1.003715e+00 -9.914725e-01 -9.690431e-01 -9.353731e-01 -8.909906e-01 -8.383120e-01 -7.817707e-01 -7.258377e-01 -6.727703e-01 -6.228290e-01 -5.755880e-01 -5.314411e-01 -4.915381e-01 -4.558807e-01 -4.236403e-01 -3.936703e-01 -3.658037e-01 -3.405148e-01 -3.174149e-01 -2.959467e-01 -2.752064e-01 -2.555743e-01 -2.373826e-01 -2.205199e-01 -2.044557e-01 -1.887770e-01 -1.739147e-01 -1.600643e-01 -1.471759e-01 -1.347049e-01 -1.225663e-01 -1.110791e-01 -1.003790e-01 -9.032769e-02 -8.048237e-02 -7.093133e-02 -6.191565e-02 -5.352992e-02 -4.555787e-02 -3.772920e-02 -3.019217e-02 -2.310688e-02 -1.653167e-02 -1.019393e-02 -3.986703e-03 1.963524e-03 7.526446e-03 1.273312e-02 1.782086e-02 2.280210e-02 2.755767e-02 3.198659e-02 3.618351e-02 4.030717e-02 4.432294e-02 4.812724e-02 5.165886e-02 5.505290e-02 5.839700e-02 6.164706e-02 6.471117e-02 6.758816e-02 7.041011e-02 7.322124e-02 7.597220e-02 7.860284e-02 8.117855e-02 8.383938e-02 8.664403e-02 8.958753e-02 9.265113e-02 9.586218e-02 9.911320e-02 1.020443e-01 1.041200e-01 1.048723e-01 1.041913e-01 1.023626e-01 1.000205e-01 9.791117e-02 9.670360e-02 9.674408e-02 9.799749e-02 1.001434e-01 1.028075e-01 1.057296e-01 1.087182e-01 1.115385e-01 1.138660e-01 1.153854e-01 1.159313e-01 1.155530e-01 1.145257e-01 1.132863e-01 1.123198e-01 1.119829e-01 1.123756e-01 1.133589e-01 1.147008e-01 1.162337e-01 1.178610e-01 1.194819e-01 1.209333e-01 1.220339e-01 1.226600e-01 1.227768e-01 1.224503e-01 1.218550e-01 1.212574e-01 1.209184e-01 1.209687e-01 1.213665e-01 1.219757e-01 1.226907e-01 1.234621e-01 1.242468e-01 1.249626e-01 1.255208e-01 1.258775e-01 1.260267e-01 1.259812e-01 1.257772e-01 1.255185e-01 1.253452e-01 1.253513e-01 1.255185e-01 1.257555e-01 1.259896e-01 1.261972e-01 1.263716e-01 1.264982e-01 1.265940e-01 1.267411e-01 1.270335e-01 1.274900e-01 1.280229e-01 1.285085e-01 1.288609e-01 1.290405e-01 1.290302e-01 1.288364e-01 1.285231e-01 1.281880e-01 1.279092e-01 1.277199e-01 1.276627e-01 1.278331e-01 1.283264e-01 1.291317e-01 1.300838e-01 1.309380e-01 1.314861e-01 1.316193e-01 1.313344e-01 1.307222e-01 1.299574e-01 1.292332e-01 1.286872e-01 1.283773e-01 1.283487e-01 1.286887e-01 1.294753e-01 1.306646e-01 1.320271e-01 1.332241e-01 1.339408e-01 1.340018e-01 1.334114e-01 1.323457e-01 1.310981e-01 1.299671e-01 1.291497e-01 1.287155e-01 1.286876e-01 1.291165e-01 1.300434e-01 1.313950e-01 1.329198e-01 1.342534e-01 1.350449e-01 1.350818e-01 1.343590e-01 1.330849e-01 1.316150e-01 1.303048e-01 1.293803e-01 1.289021e-01 1.288578e-01 1.292499e-01 1.300807e-01 1.312651e-01 1.325798e-01 1.337177e-01 1.343851e-01 1.343929e-01 1.337257e-01 1.325653e-01 1.312437e-01 1.300966e-01 1.293272e-01 1.289642e-01 1.289554e-01 1.292609e-01 1.298534e-01 1.306536e-01 1.314978e-01 1.321900e-01 1.325585e-01 1.324972e-01 1.319934e-01 1.311681e-01 1.302596e-01 1.295182e-01 1.290824e-01 1.289405e-01 1.290158e-01 1.292531e-01 1.296204e-01 1.300597e-01 1.304711e-01 1.307658e-01 1.308927e-01 1.308296e-01 1.305689e-01 1.301555e-01 1.297095e-01 1.293698e-01 1.292014e-01 1.291610e-01 1.291685e-01 1.291769e-01 1.291743e-01 1.291473e-01 1.290869e-01 1.290415e-01 1.291098e-01 1.293623e-01 1.297666e-01 1.302052e-01 1.305650e-01 1.307767e-01 1.308074e-01 1.306386e-01 1.302996e-01 1.298749e-01 1.294597e-01 1.291115e-01 1.288640e-01 1.287958e-01 1.290223e-01 1.296070e-01 1.304635e-01 1.313717e-01 1.320852e-01 1.324300e-01 1.323382e-01 1.318431e-01 1.310770e-01 1.302336e-01 1.294884e-01 1.289413e-01 1.286414e-01 1.286688e-01 1.291311e-01 1.300702e-01 1.313518e-01 1.326745e-01 1.336858e-01 1.341171e-01 1.338644e-01 1.330055e-01 1.317764e-01 1.304858e-01 1.293938e-01 1.286375e-01 1.282630e-01 1.283221e-01 1.288872e-01 1.299669e-01 1.314032e-01 1.328721e-01 1.339921e-01 1.344539e-01 1.341297e-01 1.331102e-01 1.316849e-01 1.302226e-01 1.290132e-01 1.281655e-01 1.276339e-01 1.273330e-01 1.271969e-01 1.271694e-01 1.271754e-01 1.271552e-01 1.271074e-01 1.270657e-01 1.270431e-01 1.270104e-01 1.269509e-01 1.268879e-01 1.268540e-01 1.268416e-01 1.268148e-01 1.267685e-01 1.267322e-01 1.267263e-01 1.267254e-01 1.266983e-01 1.266554e-01 1.266308e-01 1.266321e-01 1.266259e-01 1.265953e-01 1.265637e-01 1.265609e-01 1.265762e-01 1.265732e-01 1.265487e-01 1.265326e-01 1.265431e-01 1.265532e-01 1.265340e-01 1.264987e-01 1.264822e-01 1.264899e-01 1.264878e-01 1.264607e-01 1.264331e-01 1.264338e-01 1.264497e-01 1.264445e-01 1.264167e-01 1.263967e-01 1.264014e-01 1.264025e-01 1.263729e-01 1.263283e-01 1.263034e-01 1.263020e-01 1.262894e-01 1.262517e-01 1.262147e-01 1.262061e-01 1.262105e-01 1.261919e-01 1.261500e-01 1.261159e-01 1.261051e-01 1.260883e-01 1.260402e-01 1.259777e-01 1.259360e-01 1.259166e-01 1.258845e-01 1.258272e-01 1.257714e-01 1.257436e-01 1.257267e-01 1.256848e-01 1.256190e-01 1.255606e-01 1.255241e-01 1.254795e-01 1.254027e-01 1.253121e-01 1.252423e-01 1.251933e-01 1.251297e-01 1.250403e-01 1.249522e-01 1.248913e-01 1.248388e-01 1.247591e-01 1.246544e-01 1.245564e-01 1.244786e-01 1.243906e-01 1.242695e-01 1.241345e-01 1.240196e-01 1.239235e-01 1.238107e-01 1.236710e-01 1.235322e-01 1.234192e-01 1.233124e-01 1.231770e-01 1.230165e-01 1.228632e-01 1.227309e-01 1.225896e-01 1.224191e-01 1.222405e-01 1.220901e-01 1.219682e-01 1.218446e-01 1.217165e-01 1.216229e-01 1.216036e-01 1.216607e-01 1.217871e-01 1.220070e-01 1.223435e-01 1.227296e-01 1.229379e-01 1.225856e-01 1.211537e-01 1.180239e-01 1.125691e-01 1.043856e-01 9.353268e-02 8.063506e-02 6.673788e-02 5.300038e-02 4.041562e-02 2.963108e-02 2.092052e-02 1.424814e-02 9.374618e-03 5.968191e-03 3.680239e-03 2.201349e-03 1.277921e-03 7.211452e-04 3.956731e-04 2.115262e-04 1.103955e-04 5.635292e-05 2.863242e-05 1.434071e-05 7.885087e-06 4.246367e-06 3.348155e-06 2.038637e-06 
-3.179515e-06 -7.294196e-06 -1.015211e-05 -2.285090e-05 -4.253195e-05 -9.266148e-05 -1.852766e-04 -3.810987e-04 -7.448371e-04 -1.439295e-03 -2.671326e-03 -4.836072e-03 -8.430536e-03 -1.424523e-02 -2.316414e-02 -3.635183e-02 -5.478685e-02 -7.937846e-02 -1.101562e-01 -1.464415e-01 -1.860578e-01 -2.260359e-01 -2.626983e-01 -2.930266e-01 -3.156733e-01 -3.312446e-01 -3.423802e-01 -3.515797e-01 -3.610389e-01 -3.718190e-01 -3.847339e-01 -4.003763e-01 -4.186613e-01 -4.393256e-01 -4.617881e-01 -4.866488e-01 -5.144110e-01 -5.457197e-01 -5.809177e-01 -6.205885e-01 -6.665786e-01 -7.193677e-01 -7.801421e-01 -8.479454e-01 -9.229050e-01 -1.003932e+00 -1.089295e+00 -1.176450e+00 -1.262396e+00 -1.345135e+00 -1.422362e+00 -1.491295e+00 -1.549695e+00 -1.596577e+00 -1.634006e+00 -1.664751e+00 -1.691030e+00 -1.714025e+00 -1.734604e+00 -1.754373e+00 -1.774293e+00 -1.794653e+00 -1.815069e+00 -1.835992e+00 -1.858401e+00 -1.883004e+00 -1.909605e+00 -1.937913e+00 -1.968357e+00 -2.001606e+00 -2.037436e+00 -2.074402e+00 -2.110739e+00 -2.145173e+00 -2.175982e+00 -2.200044e+00 -2.212538e+00 -2.209140e+00 -2.186187e+00 -2.141187e+00 -2.070923e+00 -1.974785e+00 -1.857620e+00 -1.730321e+00 -1.605323e+00 -1.488188e+00 -1.378650e+00 -1.274099e+00 -1.175646e+00 -1.087002e+00 -1.008861e+00 -9.385493e-01 -8.725748e-01 -8.107001e-01 -7.549428e-01 -7.046236e-01 -6.579076e-01 -6.120775e-01 -5.683831e-01 -5.282884e-01 -4.915628e-01 -4.564323e-01 -4.215883e-01 -3.884465e-01 -3.579294e-01 -3.298363e-01 -3.023884e-01 -2.752820e-01 -2.496568e-01 -2.261234e-01 -2.041619e-01 -1.823476e-01 -1.609236e-01 -1.408239e-01 -1.224043e-01 -1.049122e-01 -8.745483e-02 -7.050888e-02 -5.474059e-02 -4.031641e-02 -2.633724e-02 -1.241952e-02 9.631883e-04 1.330181e-02 2.472455e-02 3.601471e-02 4.723818e-02 5.792445e-02 6.771468e-02 7.694196e-02 8.614662e-02 9.521628e-02 1.037353e-01 1.115072e-01 1.189835e-01 1.264764e-01 1.338044e-01 1.406155e-01 1.469085e-01 1.531235e-01 1.594092e-01 1.655425e-01 1.712714e-01 1.767786e-01 1.824733e-01 1.884730e-01 1.946427e-01 2.009027e-01 2.074603e-01 2.142748e-01 2.206371e-01 2.253372e-01 2.273331e-01 2.264285e-01 2.232785e-01 2.191991e-01 2.156917e-01 2.140902e-01 2.150373e-01 2.183107e-01 2.230732e-01 2.284941e-01 2.341770e-01 2.399449e-01 2.454412e-01 2.500049e-01 2.529732e-01 2.540470e-01 2.533724e-01 2.515118e-01 2.493319e-01 2.478171e-01 2.476741e-01 2.490110e-01 2.513836e-01 2.542150e-01 2.572130e-01 2.603238e-01 2.634416e-01 2.662424e-01 2.683497e-01 2.695537e-01 2.698285e-01 2.692987e-01 2.682761e-01 2.672992e-01 2.669209e-01 2.673790e-01 2.684806e-01 2.698480e-01 2.712768e-01 2.727636e-01 2.742933e-01 2.756912e-01 2.767593e-01 2.774459e-01 2.777927e-01 2.778162e-01 2.775299e-01 2.771222e-01 2.769176e-01 2.771289e-01 2.776657e-01 2.782662e-01 2.787825e-01 2.792337e-01 2.796435e-01 2.799387e-01 2.801034e-01 2.803279e-01 2.808683e-01 2.817777e-01 2.828256e-01 2.837324e-01 2.843715e-01 2.847288e-01 2.847717e-01 2.844701e-01 2.839437e-01 2.834184e-01 2.830397e-01 2.827886e-01 2.826740e-01 2.829097e-01 2.837721e-01 2.852855e-01 2.870869e-01 2.886579e-01 2.896192e-01 2.898218e-01 2.892813e-01 2.881545e-01 2.867829e-01 2.855616e-01 2.847234e-01 2.842690e-01 2.841960e-01 2.847024e-01 2.860464e-01 2.882131e-01 2.907394e-01 2.929322e-01 2.941935e-01 2.942314e-01 2.930814e-01 2.910860e-01 2.888291e-01 2.869004e-01 2.856232e-01 2.849949e-01 2.849563e-01 2.856307e-01 2.872121e-01 2.896432e-01 2.924377e-01 2.948707e-01 2.962749e-01 2.962696e-01 2.948599e-01 2.924574e-01 2.897814e-01 2.875381e-01 2.860997e-01 2.854362e-01 2.854133e-01 2.860585e-01 2.874853e-01 2.896090e-01 2.920027e-01 2.940675e-01 2.952570e-01 2.952264e-01 2.939372e-01 2.917384e-01 2.893118e-01 2.873416e-01 2.861704e-01 2.857173e-01 2.857791e-01 2.863015e-01 2.873286e-01 2.887675e-01 2.902943e-01 2.915298e-01 2.921787e-01 2.920578e-01 2.911133e-01 2.895509e-01 2.878655e-01 2.865915e-01 2.859720e-01 2.858744e-01 2.860668e-01 2.864686e-01 2.871019e-01 2.878897e-01 2.886117e-01 2.890938e-01 2.892867e-01 2.891801e-01 2.887209e-01 2.879451e-01 2.871047e-01 2.865267e-01 2.863402e-01 2.863835e-01 2.864417e-01 2.864530e-01 2.864547e-01 2.864186e-01 2.862664e-01 2.860770e-01 2.861037e-01 2.865418e-01 2.873040e-01 2.880995e-01 2.887062e-01 2.890512e-01 2.891073e-01 2.888074e-01 2.881776e-01 2.874054e-01 2.867023e-01 2.861319e-01 2.856654e-01 2.854290e-01 2.857206e-01 2.867460e-01 2.883367e-01 2.900101e-01 2.912752e-01 2.918431e-01 2.916265e-01 2.906803e-01 2.892491e-01 2.877298e-01 2.864655e-01 2.855705e-01 2.850230e-01 2.849462e-01 2.856325e-01 2.872664e-01 2.896111e-01 2.920444e-01 2.938670e-01 2.945912e-01 2.940529e-01 2.924063e-01 2.901152e-01 2.878016e-01 2.859550e-01 2.847364e-01 2.840984e-01 2.841026e-01 2.849740e-01 2.868424e-01 2.894416e-01 2.921265e-01 2.941520e-01 2.949411e-01 2.942631e-01 2.922957e-01 2.896228e-01 2.870042e-01 2.850018e-01 2.837341e-01 2.829865e-01 2.825525e-01 2.823617e-01 2.823636e-01 2.823987e-01 2.823199e-01 2.821546e-01 2.820336e-01 2.819957e-01 2.819270e-01 2.817615e-01 2.815843e-01 2.815084e-01 2.815019e-01 2.814349e-01 2.812907e-01 2.811811e-01 2.811777e-01 2.811882e-01 2.811019e-01 2.809593e-01 2.808851e-01 2.809013e-01 2.808864e-01 2.807783e-01 2.806652e-01 2.806538e-01 2.807019e-01 2.806802e-01 2.805791e-01 2.805120e-01 2.805432e-01 2.805745e-01 2.805021e-01 2.803763e-01 2.803226e-01 2.803552e-01 2.803497e-01 2.802506e-01 2.801507e-01 2.801524e-01 2.802055e-01 2.801812e-01 2.800767e-01 2.800073e-01 2.800313e-01 2.800461e-01 2.799539e-01 2.798125e-01 2.797473e-01 2.797653e-01 2.797401e-01 2.796219e-01 2.795073e-01 2.794950e-01 2.795274e-01 2.794768e-01 2.793457e-01 2.792511e-01 2.792460e-01 2.792245e-01 2.790940e-01 2.789181e-01 2.788212e-01 2.788039e-01 2.787383e-01 2.785800e-01 2.784284e-01 2.783789e-01 2.783676e-01 2.782679e-01 2.780870e-01 2.779432e-01 2.778852e-01 2.778043e-01 2.776127e-01 2.773782e-01 2.772238e-01 2.771441e-01 2.770109e-01 2.767837e-01 2.765649e-01 2.764461e-01 2.763587e-01 2.761771e-01 2.759130e-01 2.756853e-01 2.755393e-01 2.753645e-01 2.750771e-01 2.747479e-01 2.744981e-01 2.743173e-01 2.740773e-01 2.737416e-01 2.734146e-01 2.731847e-01 2.729803e-01 2.726779e-01 2.722938e-01 2.719481e-01 2.716852e-01 2.713955e-01 2.710023e-01 2.705814e-01 2.702579e-01 2.700240e-01 2.697630e-01 2.694559e-01 2.692306e-01 2.692064e-01 2.693616e-01 2.696423e-01 2.701296e-01 2.709511e-01 2.720088e-01 2.727878e-01 2.724149e-01 2.697219e-01 2.632667e-01 2.514883e-01 2.333007e-01 2.087745e-01 1.794312e-01 1.478264e-01 1.167385e-01 8.846949e-02 6.445055e-02 4.522017e-02 3.061422e-02 2.003038e-02 1.268586e-02 7.784926e-03 4.635176e-03 2.678592e-03 1.504092e-03 8.203349e-04 4.347764e-04 2.237226e-04 1.111966e-04 5.355312e-05 2.380933e-05 1.020323e-05 2.414891e-06 9.924469e-08 -3.041008e-06 
6.561928e-06 1.158649e-06 -2.627120e-06 -2.179235e-05 -5.322645e-05 -1.340227e-04 -2.867697e-04 -6.105493e-04 -1.218734e-03 -2.383985e-03 -4.468572e-03 -8.150914e-03 -1.431755e-02 -2.436676e-02 -3.993274e-02 -6.316726e-02 -9.602201e-02 -1.403483e-01 -1.965379e-01 -2.635803e-01 -3.376333e-01 -4.129480e-01 -4.821121e-01 -5.385570e-01 -5.791031e-01 -6.048998e-01 -6.218028e-01 -6.353756e-01 -6.498504e-01 -6.666887e-01 -6.872535e-01 -7.130448e-01 -7.441692e-01 -7.794960e-01 -8.172489e-01 -8.586376e-01 -9.052063e-01 -9.582261e-01 -1.017279e+00 -1.083094e+00 -1.159443e+00 -1.248077e+00 -1.350987e+00 -1.465907e+00 -1.593191e+00 -1.731978e+00 -1.879695e+00 -2.031335e+00 -2.180726e+00 -2.325148e+00 -2.461343e+00 -2.584735e+00 -2.689147e+00 -2.771302e+00 -2.834942e+00 -2.886572e+00 -2.931222e+00 -2.969904e+00 -3.003565e+00 -3.035370e+00 -3.068175e+00 -3.102454e+00 -3.136305e+00 -3.170032e+00 -3.206126e+00 -3.246750e+00 -3.291214e+00 -3.337797e+00 -3.387395e+00 -3.442280e+00 -3.503189e+00 -3.567017e+00 -3.629842e+00 -3.690065e+00 -3.746371e+00 -3.794259e+00 -3.824144e+00 -3.827219e+00 -3.797573e+00 -3.731542e+00 -3.621566e+00 -3.460897e+00 -3.254484e+00 -3.024800e+00 -2.801075e+00 -2.597383e+00 -2.409269e+00 -2.227022e+00 -2.051941e+00 -1.895512e+00 -1.761420e+00 -1.642367e+00 -1.528207e+00 -1.419068e+00 -1.321958e+00 -1.236905e+00 -1.158056e+00 -1.078138e+00 -1.000597e+00 -9.309965e-01 -8.690203e-01 -8.091403e-01 -7.476445e-01 -6.886236e-01 -6.358289e-01 -5.883608e-01 -5.409777e-01 -4.926246e-01 -4.470422e-01 -4.065419e-01 -3.692818e-01 -3.310827e-01 -2.925372e-01 -2.568920e-01 -2.253334e-01 -1.953934e-01 -1.644167e-01 -1.337906e-01 -1.059888e-01 -8.135184e-02 -5.715663e-02 -3.215652e-02 -7.975239e-03 1.360788e-02 3.312202e-02 5.293798e-02 7.331544e-02 9.257780e-02 1.095795e-01 1.254391e-01 1.418317e-01 1.584099e-01 1.736709e-01 1.870765e-01 2.000381e-01 2.135617e-01 2.269749e-01 2.390615e-01 2.498752e-01 2.607834e-01 2.722558e-01 2.834399e-01 2.934754e-01 3.029149e-01 3.129528e-01 3.238063e-01 3.347911e-01 3.456250e-01 3.571338e-01 3.697050e-01 3.819182e-01 3.909686e-01 3.945297e-01 3.922941e-01 3.857825e-01 3.776912e-01 3.709958e-01 3.683585e-01 3.709694e-01 3.780451e-01 3.874353e-01 3.973224e-01 4.072743e-01 4.174615e-01 4.273899e-01 4.356189e-01 4.407185e-01 4.421756e-01 4.403940e-01 4.364875e-01 4.321459e-01 4.293841e-01 4.296314e-01 4.328984e-01 4.378957e-01 4.432227e-01 4.484557e-01 4.538608e-01 4.594257e-01 4.644336e-01 4.680625e-01 4.699965e-01 4.702998e-01 4.691708e-01 4.671168e-01 4.652419e-01 4.647639e-01 4.661161e-01 4.686340e-01 4.713087e-01 4.737872e-01 4.763359e-01 4.790823e-01 4.815948e-01 4.833914e-01 4.844737e-01 4.850759e-01 4.851903e-01 4.846656e-01 4.838393e-01 4.835031e-01 4.841626e-01 4.854826e-01 4.867282e-01 4.876225e-01 4.884095e-01 4.892319e-01 4.897994e-01 4.899314e-01 4.900923e-01 4.909861e-01 4.927438e-01 4.947304e-01 4.962925e-01 4.973116e-01 4.979352e-01 4.980787e-01 4.975416e-01 4.965568e-01 4.956945e-01 4.952434e-01 4.949426e-01 4.946133e-01 4.947634e-01 4.961809e-01 4.990085e-01 5.023960e-01 5.052062e-01 5.067840e-01 5.070139e-01 5.059602e-01 5.038446e-01 5.013402e-01 4.993032e-01 4.981267e-01 4.975304e-01 4.972846e-01 4.978669e-01 5.000640e-01 5.039971e-01 5.086775e-01 5.126472e-01 5.147881e-01 5.146680e-01 5.124094e-01 5.086491e-01 5.045600e-01 5.013472e-01 4.995191e-01 4.987338e-01 4.986268e-01 4.995325e-01 5.021271e-01 5.064771e-01 5.115926e-01 5.159981e-01 5.184402e-01 5.182639e-01 5.155008e-01 5.109473e-01 5.060785e-01 5.023357e-01 5.002984e-01 4.995471e-01 4.995638e-01 5.004976e-01 5.028588e-01 5.066476e-01 5.109951e-01 5.147091e-01 5.168028e-01 5.166608e-01 5.141670e-01 5.099725e-01 5.055068e-01 5.022082e-01 5.006249e-01 5.002576e-01 5.004728e-01 5.012651e-01 5.029863e-01 5.055739e-01 5.083281e-01 5.104968e-01 5.116221e-01 5.114094e-01 5.096548e-01 5.066679e-01 5.035102e-01 5.013718e-01 5.006670e-01 5.008469e-01 5.012614e-01 5.018616e-01 5.029253e-01 5.043632e-01 5.056309e-01 5.063702e-01 5.066355e-01 5.064973e-01 5.057296e-01 5.042528e-01 5.026234e-01 5.016554e-01 5.016073e-01 5.019452e-01 5.021008e-01 5.020655e-01 5.020959e-01 5.021153e-01 5.017788e-01 5.011923e-01 5.010276e-01 5.018189e-01 5.033087e-01 5.047450e-01 5.057022e-01 5.062260e-01 5.063579e-01 5.058540e-01 5.046712e-01 5.032643e-01 5.021452e-01 5.013171e-01 5.004649e-01 4.997703e-01 5.000214e-01 5.018284e-01 5.048317e-01 5.079221e-01 5.101154e-01 5.110031e-01 5.105297e-01 5.087471e-01 5.060807e-01 5.033797e-01 5.013523e-01 5.000299e-01 4.990668e-01 4.986299e-01 4.995192e-01 5.023461e-01 5.066731e-01 5.111622e-01 5.144160e-01 5.155940e-01 5.144750e-01 5.113414e-01 5.070918e-01 5.030143e-01 5.000552e-01 4.982775e-01 4.972478e-01 4.970052e-01 4.982254e-01 5.014314e-01 5.061617e-01 5.110840e-01 5.147409e-01 5.160823e-01 5.147022e-01 5.109261e-01 5.059292e-01 5.013081e-01 4.981694e-01 4.965129e-01 4.956106e-01 4.949969e-01 4.947299e-01 4.948690e-01 4.950325e-01 4.948177e-01 4.943589e-01 4.940962e-01 4.941272e-01 4.940545e-01 4.936547e-01 4.932202e-01 4.931172e-01 4.932217e-01 4.931015e-01 4.927133e-01 4.924443e-01 4.925232e-01 4.926360e-01 4.924212e-01 4.920292e-01 4.918767e-01 4.920169e-01 4.920371e-01 4.917368e-01 4.914233e-01 4.914438e-01 4.916442e-01 4.915968e-01 4.912843e-01 4.910997e-01 4.912463e-01 4.913904e-01 4.911929e-01 4.908337e-01 4.907283e-01 4.909025e-01 4.909356e-01 4.906496e-01 4.903673e-01 4.904217e-01 4.906328e-01 4.905770e-01 4.902604e-01 4.900818e-01 4.902233e-01 4.903361e-01 4.901000e-01 4.897184e-01 4.896040e-01 4.897579e-01 4.897539e-01 4.894340e-01 4.891339e-01 4.891735e-01 4.893504e-01 4.892455e-01 4.888843e-01 4.886702e-01 4.887671e-01 4.888143e-01 4.885083e-01 4.880714e-01 4.879110e-01 4.880072e-01 4.879299e-01 4.875393e-01 4.871816e-01 4.871644e-01 4.872664e-01 4.870731e-01 4.866271e-01 4.863344e-01 4.863439e-01 4.862858e-01 4.858717e-01 4.853376e-01 4.850853e-01 4.850761e-01 4.848787e-01 4.843687e-01 4.839005e-01 4.837702e-01 4.837411e-01 4.834041e-01 4.828160e-01 4.823845e-01 4.822458e-01 4.820242e-01 4.814442e-01 4.807519e-01 4.803423e-01 4.801612e-01 4.797784e-01 4.790828e-01 4.784347e-01 4.781197e-01 4.778906e-01 4.773453e-01 4.765545e-01 4.759275e-01 4.755926e-01 4.751748e-01 4.744162e-01 4.735756e-01 4.730506e-01 4.727860e-01 4.723732e-01 4.717354e-01 4.712722e-01 4.713147e-01 4.717026e-01 4.721786e-01 4.729791e-01 4.746041e-01 4.770376e-01 4.792965e-01 4.797667e-01 4.764016e-01 4.665133e-01 4.468267e-01 4.147906e-01 3.703389e-01 3.166017e-01 2.588278e-01 2.025082e-01 1.519379e-01 1.095725e-01 7.612994e-02 5.107094e-02 3.313684e-02 2.083078e-02 1.270029e-02 7.520413e-03 4.327048e-03 2.422592e-03 1.320056e-03 7.012819e-04 3.639186e-04 1.847165e-04 9.322299e-05 4.633525e-05 2.508080e-05 1.331228e-05 1.016671e-05 6.056858e-06 