# vtk DataFile Version 2.0
Comment goes here
ASCII

DATASET STRUCTURED_POINTS
FIELD FieldData 1
TIME 1 1 double
0.00800000
DIMENSIONS    64   64   1

ORIGIN    0.000   0.000   0.000
SPACING   0.03125 0.03125   1.000

POINT_DATA   4096
SCALARS Omega double
LOOKUP_TABLE default

-3.808148e-02 2.085986e-01 -2.323683e-01 1.658133e-01 -2.202674e-01 1.385335e-01 -1.904974e-01 1.722074e-01 -2.088605e-01 2.014090e-01 -2.368803e-01 2.314182e-01 -2.565942e-01 2.614337e-01 -2.844147e-01 3.052057e-01 -3.186613e-01 3.506741e-01 -3.520626e-01 3.226313e-01 -2.361411e-01 1.443543e-01 -4.754614e-02 2.614871e-03 3.440179e-02 -5.536215e-03 1.036542e-01 -1.250318e-01 2.712047e-01 -2.923465e-01 3.843849e-01 -3.360583e-01 3.518669e-01 -2.938607e-01 3.207969e-01 -3.277723e-01 3.923635e-01 -4.080246e-01 4.261310e-01 -3.577392e-01 2.991748e-01 -1.794612e-01 1.722284e-01 -1.213546e-01 1.586874e-01 -1.195150e-01 1.198741e-01 -5.898660e-02 2.193502e-02 1.038855e-02 -3.557764e-02 5.543106e-02 -8.061911e-02 8.355283e-02 -9.526996e-02 6.375818e-02 -6.801048e-02 2.826996e-02 -4.102202e-02 6.630056e-03 -3.281597e-02 1.478060e-03 -1.041144e-02 -5.768487e-02 
-3.702317e+00 -1.146524e+01 5.047156e+00 -8.290311e+00 1.999313e+00 -5.988246e+00 -7.511926e-01 -2.964960e+00 -3.792277e+00 -2.372476e-01 -6.162563e+00 1.474394e+00 -7.516855e+00 2.373912e+00 -8.163721e+00 2.716653e+00 -8.228855e+00 2.415786e+00 -7.666409e+00 1.704687e+00 -7.110616e+00 1.547432e+00 -7.135115e+00 1.657830e+00 -7.061388e+00 1.467331e+00 -6.781339e+00 1.245469e+00 -6.385111e+00 8.288412e-01 -5.920600e+00 5.895961e-01 -5.789876e+00 5.749922e-01 -5.790374e+00 5.857642e-01 -5.611012e+00 3.474122e-01 -5.194079e+00 -4.367718e-02 -4.732030e+00 -4.339547e-01 -4.363517e+00 -6.206616e-01 -4.216663e+00 -6.607568e-01 -4.076542e+00 -7.434359e-01 -4.095896e+00 -3.973609e-01 -4.417730e+00 -4.092345e-01 -3.589574e+00 -1.764758e+00 -1.926799e+00 -3.076953e+00 -1.182350e+00 -2.871570e+00 -2.094973e+00 -1.073254e+00 -4.377303e+00 1.956951e+00 -8.630885e+00 7.269773e+00 
-2.036234e+00 1.457837e+01 -1.232504e+01 7.624425e+00 -4.479002e+00 6.241319e+00 -5.425501e+00 4.133158e+00 -5.787299e+00 2.502991e+00 -6.088640e+00 1.583202e+00 -6.566364e+00 9.976978e-01 -7.002871e+00 5.569619e-01 -7.363522e+00 3.526223e-01 -7.876600e+00 5.298669e-01 -8.477959e+00 4.396534e-01 -8.574444e+00 6.898629e-02 -8.528826e+00 -2.109409e-01 -8.481033e+00 -4.865830e-01 -8.540738e+00 -5.003910e-01 -8.605380e+00 -8.243989e-01 -8.156223e+00 -1.366145e+00 -7.644168e+00 -1.761036e+00 -7.503777e+00 -1.824069e+00 -7.468165e+00 -1.981090e+00 -7.148390e+00 -2.290774e+00 -6.830807e+00 -2.477728e+00 -6.572280e+00 -2.605152e+00 -6.375937e+00 -2.566557e+00 -6.020102e+00 -2.987866e+00 -5.201854e+00 -3.255483e+00 -5.198721e+00 -2.434384e+00 -5.772653e+00 -1.609827e+00 -5.668744e+00 -1.745337e+00 -4.399697e+00 -2.800454e+00 -2.093495e+00 -5.011255e+00 4.668517e+00 -1.350032e+01 
-3.521534e-01 9.540974e+00 -7.331851e+00 5.667527e+00 -6.349446e-01 4.073039e+00 -2.682285e+00 2.654510e+00 -2.326267e+00 1.328611e+00 -2.056022e+00 5.592005e-01 -2.053208e+00 1.090732e-01 -2.158944e+00 -1.669500e-01 -2.336685e+00 -2.096200e-01 -2.708588e+00 6.556930e-03 -3.102786e+00 -3.377730e-02 -3.122613e+00 -2.617747e-01 -3.099066e+00 -3.715404e-01 -3.113363e+00 -4.883190e-01 -3.191832e+00 -4.437312e-01 -3.294252e+00 -5.707958e-01 -3.096062e+00 -8.363436e-01 -2.840679e+00 -1.043208e+00 -2.791431e+00 -1.043256e+00 -2.843275e+00 -1.045879e+00 -2.781312e+00 -1.109720e+00 -2.701189e+00 -1.168253e+00 -2.593266e+00 -1.230370e+00 -2.521331e+00 -1.189375e+00 -2.349598e+00 -1.458744e+00 -1.879020e+00 -1.591306e+00 -2.030174e+00 -9.229330e-01 -2.626173e+00 -2.655924e-01 -2.706504e+00 -3.755580e-01 -1.892007e+00 -1.246078e+00 -3.006675e-01 -2.944097e+00 3.978796e+00 -8.163942e+00 
-1.499637e-02 4.174211e-02 -4.130068e-02 1.160240e-02 -8.755922e+00 -4.667266e-02 -9.541593e-04 2.273008e-03 -6.516941e-03 7.411871e-04 -7.293852e-03 8.964812e-06 -8.297405e-03 -5.326324e-04 -9.815725e-03 -5.601078e-04 -1.059283e-02 -7.674467e-04 -1.028016e-02 -1.632896e-03 -1.057474e-02 -1.748279e-03 -1.107255e-02 -1.423533e-03 -1.057048e-02 -2.259170e-03 -9.842439e-03 -3.244239e-03 -9.902622e-03 -3.034032e-03 -9.806582e-03 -2.686149e-03 -8.893836e-03 -3.342264e-03 -7.933428e-03 -4.295853e-03 -7.528551e-03 -4.442070e-03 -7.231566e-03 -4.360164e-03 -7.025078e-03 -4.230586e-03 -6.873603e-03 -4.000716e-03 -6.524695e-03 -3.943494e-03 -6.123384e-03 -3.922960e-03 -5.918794e-03 -3.505893e-03 -5.257876e-03 -3.674576e-03 -4.673778e-03 -3.804184e-03 -5.125986e-03 -1.947458e-03 -6.283681e-03 7.901122e-04 -6.409492e-03 1.401131e-03 -3.776722e-03 -5.162313e-03 2.064727e-02 -1.238796e-02 
-3.398039e-03 -2.311249e-02 -1.610188e-02 1.095854e-01 -7.753792e+00 -1.698787e-01 6.012410e-03 -2.073102e-03 3.992823e-03 -1.365279e-03 2.273047e-03 -9.423729e-04 1.361122e-03 -6.495276e-04 9.163092e-04 -3.201382e-04 6.636159e-04 -1.010418e-04 3.708089e-04 -2.447311e-04 2.028037e-04 -2.095621e-04 2.580573e-04 8.061553e-05 3.322556e-04 5.199514e-05 6.274504e-05 -2.171526e-04 -5.322616e-05 -1.180048e-04 1.105401e-04 1.611305e-04 1.653526e-04 1.170973e-04 2.887812e-05 -8.763069e-05 -7.835469e-05 -8.331906e-05 -7.440563e-05 -4.350620e-05 -7.741468e-05 -3.834656e-05 -7.893361e-05 1.214291e-05 -5.827913e-05 3.840316e-05 -9.988632e-05 -8.353852e-06 -9.408268e-05 1.498843e-04 -3.060205e-05 2.378096e-04 -2.377725e-04 3.997064e-06 -6.895151e-04 -2.253418e-04 -1.024981e-03 -2.474024e-05 -1.381628e-03 4.710278e-04 -2.203372e-03 2.529769e-03 3.329527e-03 1.939055e-02 
-8.330718e-03 -1.028974e-02 -1.459398e-02 3.076272e-01 -1.150270e+01 -3.974283e-01 7.686868e-03 -1.292409e-03 5.517125e-03 -1.101534e-03 3.059816e-03 -8.704489e-04 1.684666e-03 -6.931487e-04 9.720066e-04 -4.957563e-04 6.012173e-04 -3.495234e-04 3.320563e-04 -3.447891e-04 2.036745e-04 -2.550186e-04 2.327234e-04 -7.471733e-05 2.549774e-04 -6.357580e-05 9.077117e-05 -1.575074e-04 1.171243e-05 -8.354032e-05 1.001102e-04 7.402672e-05 1.422358e-04 7.339276e-05 5.759465e-05 -2.864934e-05 -3.731616e-05 -5.004481e-05 -6.670516e-05 -2.855000e-05 -7.023263e-05 -4.084276e-07 -5.836050e-05 4.925947e-05 -3.667610e-05 8.551290e-05 -4.663700e-05 9.282391e-05 -5.539727e-05 1.545071e-04 -8.679577e-05 1.709550e-04 -2.903517e-04 8.752467e-05 -5.799091e-04 9.777555e-05 -7.170780e-04 3.459165e-04 -8.394393e-04 6.178056e-04 -1.332771e-03 1.624723e-03 8.183391e-04 1.046999e-02 
-2.656350e-03 -3.888504e-03 -5.721101e-03 2.409686e-01 -1.047785e+01 -3.220562e-01 1.697290e-03 -1.189221e-03 2.860185e-03 -1.374382e-03 1.996343e-03 -1.103686e-03 1.340652e-03 -7.888805e-04 9.261437e-04 -5.089759e-04 6.597166e-04 -3.512718e-04 4.411138e-04 -3.139491e-04 3.044598e-04 -2.422050e-04 2.590635e-04 -1.195719e-04 2.288490e-04 -8.443954e-05 1.297611e-04 -1.171787e-04 7.425297e-05 -6.392610e-05 9.468556e-05 2.781455e-05 8.932090e-05 2.681781e-05 2.876136e-05 -2.734246e-05 -2.754827e-05 -2.929223e-05 -4.617100e-05 -2.406600e-06 -5.154346e-05 2.904069e-05 -5.378422e-05 6.677688e-05 -5.707491e-05 8.966577e-05 -7.569544e-05 9.151609e-05 -8.948805e-05 1.399544e-04 -1.185618e-04 2.072759e-04 -2.768148e-04 1.966795e-04 -5.561762e-04 2.051696e-04 -8.687664e-04 4.017858e-04 -1.159273e-03 9.773626e-04 -1.057649e-03 2.592133e-03 7.013373e-04 4.842489e-03 
-3.983537e-03 -1.365644e-03 -5.591375e-03 2.492305e-01 -1.281276e+01 -3.468121e-01 2.169381e-03 -1.034346e-03 3.543419e-03 -1.104756e-03 2.428174e-03 -9.407276e-04 1.525071e-03 -7.466568e-04 9.426027e-04 -5.765206e-04 6.216130e-04 -4.744578e-04 3.949459e-04 -4.087345e-04 2.609713e-04 -3.188851e-04 2.082629e-04 -2.115237e-04 1.768394e-04 -1.512712e-04 1.153039e-04 -1.271218e-04 7.778016e-05 -7.108158e-05 8.382735e-05 -5.910267e-06 7.428205e-05 4.665614e-06 2.582364e-05 -1.847626e-05 -2.521827e-05 -1.798481e-05 -4.969831e-05 9.160663e-06 -5.199894e-05 5.137836e-05 -4.576207e-05 9.602051e-05 -4.330869e-05 1.271334e-04 -5.328373e-05 1.369645e-04 -6.996584e-05 1.524945e-04 -1.076069e-04 2.085203e-04 -2.464574e-04 2.661819e-04 -4.366866e-04 3.741750e-04 -6.215418e-04 5.909825e-04 -8.405528e-04 9.687827e-04 -1.095365e-03 1.835119e-03 -1.104424e-03 3.225780e-03 
-8.579426e-04 -8.242205e-05 -9.817563e-04 1.904149e-01 -1.180701e+01 -2.806135e-01 -1.260288e-03 -9.222511e-04 1.295067e-03 -1.224806e-03 1.204822e-03 -1.091726e-03 9.208414e-04 -8.234527e-04 6.600849e-04 -5.648587e-04 5.368416e-04 -4.877368e-04 4.008224e-04 -4.252686e-04 2.854132e-04 -3.385149e-04 2.142432e-04 -2.379719e-04 1.744970e-04 -1.570950e-04 1.345857e-04 -1.101792e-04 1.030441e-04 -5.914987e-05 8.717169e-05 -1.771962e-05 5.463857e-05 -1.822049e-05 5.834870e-06 -2.918030e-05 -3.179429e-05 -1.545976e-05 -4.815422e-05 2.314650e-05 -4.556017e-05 8.004701e-05 -4.334087e-05 1.280603e-04 -5.480224e-05 1.542005e-04 -7.043382e-05 1.390267e-04 -7.276346e-05 1.022078e-04 -8.214009e-05 2.238054e-04 -2.232309e-04 3.312344e-04 -4.140206e-04 4.518196e-04 -6.046176e-04 6.850803e-04 -7.117340e-04 1.151227e-03 -5.412452e-04 1.911293e-03 -5.458223e-05 2.198539e-03 
-1.443515e-03 7.232648e-04 -1.214001e-03 1.838909e-01 -1.330388e+01 -2.840528e-01 -1.054112e-03 -1.117409e-03 1.595401e-03 -1.127562e-03 1.416398e-03 -9.595983e-04 9.914939e-04 -7.350894e-04 6.135205e-04 -5.716192e-04 5.469036e-04 -5.648939e-04 3.819747e-04 -4.999944e-04 2.462068e-04 -4.046585e-04 1.676402e-04 -3.030955e-04 1.356514e-04 -2.027448e-04 1.197028e-04 -1.297764e-04 1.006649e-04 -7.017082e-05 8.555950e-05 -3.146746e-05 4.828032e-05 -3.079900e-05 -3.491037e-06 -3.221209e-05 -4.005837e-05 -1.254067e-05 -5.550699e-05 3.212585e-05 -4.416026e-05 1.011190e-04 -3.283604e-05 1.574628e-04 -4.266063e-05 1.920021e-04 -5.968459e-05 1.779819e-04 -5.975899e-05 1.061336e-04 -1.132353e-05 2.299357e-04 -1.548978e-04 3.769622e-04 -3.144361e-04 5.385967e-04 -4.605657e-04 7.593072e-04 -6.044150e-04 1.086727e-03 -7.335936e-04 1.550636e-03 -8.562703e-04 1.824364e-03 
4.998567e-04 9.339686e-04 1.158301e-03 1.411239e-01 -1.230753e+01 -2.340101e-01 -3.014273e-03 -1.047039e-03 -2.807814e-05 -1.184713e-03 3.479417e-04 -1.061096e-03 3.409903e-04 -7.723138e-04 1.549377e-04 -4.030899e-04 3.849348e-04 -6.099986e-04 3.361858e-04 -5.666558e-04 2.239590e-04 -4.534739e-04 1.408025e-04 -3.391477e-04 1.246177e-04 -1.966344e-04 1.335513e-04 -1.089671e-04 1.167836e-04 -4.665918e-05 9.849005e-05 -2.141641e-05 3.912162e-05 -5.268445e-05 -2.696528e-05 -5.565665e-05 -5.699137e-05 -2.649328e-05 -6.983123e-05 3.063185e-05 -4.113889e-05 1.408127e-04 -2.284254e-05 2.134985e-04 -5.365003e-05 2.643897e-04 -8.378791e-05 2.112523e-04 -4.305103e-05 -1.082942e-04 1.101984e-04 2.371783e-04 -1.148067e-04 4.450811e-04 -2.594631e-04 6.082947e-04 -3.350210e-04 8.273055e-04 -3.109883e-04 1.153045e-03 -1.121792e-04 1.524834e-03 2.397369e-04 1.588646e-03 
1.567975e-04 1.307007e-03 9.062434e-04 1.329893e-01 -1.324150e+01 -2.317277e-01 -2.816789e-03 -1.304734e-03 1.466373e-04 -1.206699e-03 4.775812e-04 -9.807701e-04 3.377147e-04 -6.059206e-04 -1.125580e-04 -3.546344e-04 5.484549e-04 -7.144299e-04 3.588363e-04 -6.292264e-04 1.897303e-04 -4.997651e-04 8.977204e-05 -3.945423e-04 8.388544e-05 -2.276504e-04 1.291816e-04 -1.205527e-04 1.199153e-04 -5.004186e-05 1.104532e-04 -1.964043e-05 3.844137e-05 -6.432412e-05 -4.594624e-05 -6.615940e-05 -7.404500e-05 -3.077696e-05 -8.689500e-05 3.219265e-05 -3.702391e-05 1.644299e-04 -3.721782e-06 2.432508e-04 -4.427651e-05 3.122192e-04 -9.527614e-05 2.817108e-04 -9.231460e-05 -1.610250e-04 3.205560e-04 2.062696e-04 -4.466124e-05 4.742609e-04 -2.115975e-04 6.584714e-04 -2.812921e-04 8.557567e-04 -3.056405e-04 1.104431e-03 -2.726361e-04 1.378602e-03 -1.434775e-04 1.518331e-03 
1.377619e-03 1.272452e-03 2.202321e-03 1.013073e-01 -1.224182e+01 -1.928325e-01 -3.919798e-03 -1.252034e-03 -9.296404e-04 -1.254268e-03 -2.974021e-04 -1.119525e-03 -1.504292e-04 -7.293712e-04 -9.082800e-04 6.813632e-04 6.395971e-04 -6.485025e-04 5.213167e-04 -4.612824e-04 3.048204e-04 -2.540180e-04 1.540460e-04 -1.485511e-04 1.861035e-04 1.195353e-04 2.993009e-04 1.779955e-04 2.835242e-04 2.311754e-04 3.198417e-04 2.265336e-04 2.169180e-04 6.265555e-05 8.812120e-05 6.516400e-05 7.368525e-05 1.119162e-04 2.683725e-05 1.619470e-04 1.161583e-04 4.019053e-04 1.925498e-04 4.546264e-04 9.578574e-05 5.891245e-04 -1.404715e-05 6.276768e-04 5.715361e-05 -1.024158e-03 7.543319e-04 3.684362e-04 -8.790118e-05 6.154821e-04 -1.716186e-04 7.331359e-04 -1.200778e-04 8.958146e-04 1.796258e-05 1.117840e-03 2.886149e-04 1.340710e-03 7.255829e-04 1.421914e-03 
1.132306e-03 1.474436e-03 1.983970e-03 9.336916e-02 -1.276614e+01 -1.878497e-01 -3.664678e-03 -1.477722e-03 -7.482534e-04 -1.370583e-03 -9.007803e-05 -1.171410e-03 -7.751406e-06 -3.253997e-04 -2.014466e-03 5.085010e-02 9.961584e-02 7.831197e-02 9.070069e-02 8.401037e-02 8.458854e-02 9.070606e-02 7.931133e-02 9.940807e-02 7.375279e-02 9.935447e-02 8.076223e-02 9.204166e-02 8.753605e-02 8.637323e-02 9.585907e-02 7.915350e-02 1.019522e-01 7.975268e-02 9.632220e-02 8.689494e-02 8.912950e-02 9.287339e-02 8.251135e-02 1.002510e-01 7.612325e-02 9.923476e-02 8.250398e-02 9.043362e-02 8.813724e-02 8.413325e-02 9.533680e-02 7.844354e-02 1.040316e-01 5.150186e-02 1.682211e-03 2.779567e-04 -1.686459e-04 6.934572e-04 -2.309273e-04 7.924481e-04 -1.406974e-04 9.154982e-04 -2.225457e-05 1.090629e-03 1.653454e-04 1.283735e-03 5.025142e-04 1.425699e-03 
1.884207e-03 1.381615e-03 2.713712e-03 6.797122e-02 -1.175664e+01 -1.552393e-01 -4.245780e-03 -1.408009e-03 -1.428885e-03 -1.403251e-03 -5.351456e-04 -1.467759e-03 3.370257e-04 -1.703857e-03 -1.436249e-03 9.891219e-01 2.057997e+00 1.593514e+00 1.907719e+00 1.724037e+00 1.793686e+00 1.876711e+00 1.690890e+00 2.073678e+00 1.577418e+00 2.078332e+00 1.728824e+00 1.935160e+00 1.878995e+00 1.824822e+00 2.060643e+00 1.680920e+00 2.196044e+00 1.708664e+00 2.079124e+00 1.871372e+00 1.925941e+00 2.008257e+00 1.786153e+00 2.176386e+00 1.648655e+00 2.155647e+00 1.789062e+00 1.973783e+00 1.917586e+00 1.845212e+00 2.083968e+00 1.734249e+00 2.296635e+00 1.196126e+00 5.568938e-03 1.777895e-03 -9.267403e-04 9.694999e-04 -2.469791e-04 8.419883e-04 3.176719e-05 9.154527e-04 2.784207e-04 1.067116e-03 6.180282e-04 1.231456e-03 1.123852e-03 1.344074e-03 
1.676611e-03 1.479204e-03 2.516990e-03 6.014307e-02 -1.196784e+01 -1.481875e-01 -3.945102e-03 -1.555551e-03 -1.233583e-03 -1.604057e-03 -1.293653e-04 -2.181841e-03 1.788242e-03 -4.889163e-03 4.173189e-03 1.368033e+00 2.858489e+00 2.207009e+00 2.658172e+00 2.391781e+00 2.502756e+00 2.608098e+00 2.361384e+00 2.886323e+00 2.204119e+00 2.896290e+00 2.416205e+00 2.699332e+00 2.627353e+00 2.547771e+00 2.882443e+00 2.348666e+00 3.073305e+00 2.389070e+00 2.911050e+00 2.618572e+00 2.697362e+00 2.812151e+00 2.502358e+00 3.049689e+00 2.309925e+00 3.022982e+00 2.507095e+00 2.770295e+00 2.688391e+00 2.592424e+00 2.923645e+00 2.439174e+00 3.227093e+00 1.683012e+00 3.829383e-03 3.715752e-03 -1.846080e-03 1.375971e-03 -4.417883e-04 9.271736e-04 -1.424773e-05 9.186924e-04 2.321359e-04 1.038665e-03 5.198482e-04 1.196098e-03 9.614788e-04 1.346862e-03 
2.117471e-03 1.367934e-03 2.914520e-03 3.919534e-02 -1.094949e+01 -1.199979e-01 -4.222293e-03 -1.410492e-03 -1.754016e-03 -1.410394e-03 -8.372682e-04 -1.670402e-03 1.884162e-04 -2.762827e-03 3.303023e-03 -5.135235e-01 -1.058781e+00 -8.235013e-01 -9.754303e-01 -8.885024e-01 -9.146575e-01 -9.640563e-01 -8.609322e-01 -1.061883e+00 -8.020401e-01 -1.061994e+00 -8.784879e-01 -9.869812e-01 -9.541121e-01 -9.291749e-01 -1.045445e+00 -8.547295e-01 -1.113321e+00 -8.674837e-01 -1.053217e+00 -9.487660e-01 -9.749542e-01 -1.016809e+00 -9.038417e-01 -1.100376e+00 -8.338956e-01 -1.088500e+00 -9.044229e-01 -9.949322e-01 -9.688763e-01 -9.285524e-01 -1.051792e+00 -8.716043e-01 -1.155996e+00 -5.993717e-01 -3.694026e-03 8.522532e-04 -1.156471e-04 7.604673e-04 6.452021e-05 7.530447e-04 2.583846e-04 8.418719e-04 5.068244e-04 9.774089e-04 8.613624e-04 1.124855e-03 1.376028e-03 1.256824e-03 
1.919255e-03 1.387331e-03 2.719917e-03 3.200424e-02 -1.091481e+01 -1.118801e-01 -3.939918e-03 -1.357069e-03 -1.772531e-03 -1.123297e-03 -1.283008e-03 -6.258997e-04 -1.851810e-03 1.209540e-03 -1.705123e-03 -1.418239e+00 -2.958188e+00 -2.287331e+00 -2.747601e+00 -2.477435e+00 -2.585654e+00 -2.699803e+00 -2.438931e+00 -2.986088e+00 -2.276090e+00 -2.995139e+00 -2.495119e+00 -2.790687e+00 -2.712940e+00 -2.633171e+00 -2.976230e+00 -2.426725e+00 -3.173089e+00 -2.467784e+00 -3.005304e+00 -2.704012e+00 -2.784591e+00 -2.903147e+00 -2.583135e+00 -3.147673e+00 -2.384490e+00 -3.119251e+00 -2.587921e+00 -2.857671e+00 -2.774749e+00 -2.673214e+00 -3.016885e+00 -2.514157e+00 -3.328058e+00 -1.734772e+00 -5.449504e-03 -1.895318e-03 1.570092e-03 4.246051e-05 4.847322e-04 5.376672e-04 3.604975e-04 7.527043e-04 4.965123e-04 9.190025e-04 7.809283e-04 1.079038e-03 1.234146e-03 1.234607e-03 
2.150201e-03 1.266966e-03 2.900218e-03 1.724014e-02 -9.894592e+00 -8.989351e-02 -4.009215e-03 -1.199894e-03 -2.062123e-03 -9.446674e-04 -1.585404e-03 -4.058402e-04 -1.812530e-03 1.260993e-03 -1.981652e-03 -4.783507e-01 -1.001517e+00 -7.712832e-01 -9.335456e-01 -8.369288e-01 -8.796588e-01 -9.139293e-01 -8.302978e-01 -1.012757e+00 -7.754940e-01 -1.017368e+00 -8.504816e-01 -9.490421e-01 -9.251027e-01 -8.964076e-01 -1.015402e+00 -8.268186e-01 -1.082983e+00 -8.414316e-01 -1.026137e+00 -9.227234e-01 -9.511345e-01 -9.914690e-01 -8.824916e-01 -1.075888e+00 -8.148903e-01 -1.067199e+00 -8.847141e-01 -9.787119e-01 -9.487430e-01 -9.165293e-01 -1.032005e+00 -8.627244e-01 -1.140002e+00 -5.947637e-01 -1.990547e-03 -1.282686e-03 1.003886e-03 -2.189446e-06 5.323488e-04 4.457086e-04 5.128627e-04 6.741429e-04 6.893283e-04 8.443537e-04 1.009605e-03 9.964206e-04 1.484973e-03 1.136227e-03 
1.947268e-03 1.236695e-03 2.691072e-03 1.225032e-02 -9.664422e+00 -8.267515e-02 -3.679108e-03 -1.144644e-03 -1.947577e-03 -8.729882e-04 -1.487461e-03 -4.871741e-04 -1.300044e-03 1.263987e-05 -6.415342e-04 -2.354605e-03 -1.449328e-03 -2.495292e-04 -2.238191e-03 -2.045784e-04 -2.100454e-03 -4.990204e-04 -1.842489e-03 -8.527510e-04 -1.794332e-03 -1.350613e-03 -1.917610e-03 -1.421249e-03 -1.984014e-03 -1.518938e-03 -2.175642e-03 -1.460091e-03 -2.207703e-03 -1.307864e-03 -2.031345e-03 -1.519136e-03 -1.891971e-03 -1.779396e-03 -1.668192e-03 -2.089260e-03 -1.554590e-03 -2.525754e-03 -1.688128e-03 -2.507663e-03 -1.619124e-03 -2.572875e-03 -1.654329e-03 -2.343741e-03 -2.326320e-03 7.477403e-04 -3.031830e-04 -1.640585e-04 5.480650e-04 1.118683e-04 4.984454e-04 4.044967e-04 5.061471e-04 6.157057e-04 6.458369e-04 7.865857e-04 9.174725e-04 9.422577e-04 1.339495e-03 1.091252e-03 
2.032255e-03 1.115266e-03 2.716383e-03 3.444883e-03 -8.648864e+00 -6.670796e-02 -3.598646e-03 -1.027982e-03 -2.036172e-03 -8.025561e-04 -1.565009e-03 -5.409656e-04 -1.253776e-03 -3.981044e-04 -6.077789e-04 -1.612714e-03 1.804562e-04 -5.249647e-04 -1.759364e-04 -2.660627e-04 -1.935540e-04 -2.078464e-04 -1.212793e-04 -1.930531e-04 -1.608368e-04 -2.699421e-04 -1.567548e-04 -2.185062e-04 -1.042817e-04 -1.916281e-04 -8.810732e-05 -1.263718e-04 4.357943e-06 2.269710e-05 6.866088e-05 6.192586e-05 6.554163e-05 7.408744e-05 9.234292e-05 8.869944e-05 4.459382e-05 -2.141985e-05 7.892471e-06 -2.673321e-05 6.744365e-05 -3.077232e-05 4.606219e-05 1.476349e-04 -2.878921e-04 1.322584e-03 -1.111723e-04 1.610345e-04 4.246714e-04 2.003206e-04 4.928983e-04 3.894224e-04 5.760061e-04 5.640597e-04 7.539016e-04 7.175367e-04 1.043933e-03 8.583318e-04 1.462741e-03 9.903883e-04 
1.818397e-03 1.056314e-03 2.482841e-03 8.790971e-04 -8.260491e+00 -6.089049e-02 -3.230243e-03 -9.795729e-04 -1.837467e-03 -7.823398e-04 -1.370731e-03 -6.062614e-04 -9.933163e-04 -5.800594e-04 -4.905908e-04 -1.087996e-03 -1.852096e-05 -5.603602e-04 -1.458961e-04 -3.138876e-04 -1.528868e-04 -2.319405e-04 -1.124585e-04 -2.078441e-04 -1.263830e-04 -2.280698e-04 -1.228095e-04 -1.943398e-04 -9.048925e-05 -1.600012e-04 -6.399164e-05 -9.991064e-05 1.191048e-06 -5.048334e-06 5.152686e-05 3.864865e-05 6.214929e-05 5.756126e-05 7.308159e-05 6.372272e-05 4.384384e-05 1.629937e-05 2.190550e-05 1.680317e-05 4.626031e-05 5.581766e-05 1.430762e-05 2.549005e-04 -1.684887e-04 7.951932e-04 -5.436605e-05 3.143595e-04 2.791308e-04 2.743630e-04 4.086124e-04 3.875449e-04 5.120086e-04 5.276652e-04 6.744538e-04 6.659631e-04 9.302476e-04 7.998595e-04 1.303464e-03 9.301385e-04 
1.799221e-03 9.377772e-04 2.394862e-03 -3.525095e-03 -7.254937e+00 -4.940592e-02 -3.051097e-03 -8.832111e-04 -1.801454e-03 -7.259858e-04 -1.357817e-03 -5.996191e-04 -9.838487e-04 -5.843650e-04 -5.613874e-04 -8.039573e-04 -2.243643e-04 -5.103205e-04 -2.015264e-04 -3.319608e-04 -1.746599e-04 -2.477890e-04 -1.357420e-04 -2.079684e-04 -1.228565e-04 -1.992172e-04 -1.045590e-04 -1.664321e-04 -7.444182e-05 -1.313273e-04 -4.811913e-05 -8.240141e-05 -7.026820e-06 -1.669789e-05 2.502119e-05 2.076517e-05 3.663758e-05 4.111654e-05 4.573072e-05 5.136315e-05 3.594162e-05 3.541810e-05 2.868172e-05 4.996040e-05 3.928691e-05 9.887979e-05 2.141424e-05 2.443199e-04 -4.619281e-05 5.417609e-04 4.531620e-05 3.202478e-04 2.703649e-04 2.942178e-04 4.053987e-04 3.743733e-04 5.352342e-04 4.856440e-04 7.153645e-04 6.022847e-04 9.737641e-04 7.178056e-04 1.329496e-03 8.302320e-04 
1.573707e-03 8.615023e-04 2.135870e-03 -4.307275e-03 -6.736405e+00 -4.454442e-02 -2.666039e-03 -8.249733e-04 -1.570916e-03 -6.901987e-04 -1.161916e-03 -5.882742e-04 -8.203198e-04 -5.593377e-04 -4.924212e-04 -6.214112e-04 -2.402451e-04 -4.606317e-04 -1.797610e-04 -3.258184e-04 -1.463204e-04 -2.470673e-04 -1.153743e-04 -2.029153e-04 -9.896011e-05 -1.776487e-04 -8.174058e-05 -1.454825e-04 -5.912922e-05 -1.113829e-04 -3.633011e-05 -7.062129e-05 -7.255837e-06 -2.461262e-05 1.623979e-05 7.727057e-06 2.771684e-05 2.908579e-05 3.380040e-05 4.303677e-05 2.956590e-05 4.783448e-05 2.563014e-05 7.001196e-05 2.799315e-05 1.212002e-04 1.474281e-05 2.287083e-04 -1.257868e-05 3.768884e-04 6.023551e-05 3.061133e-04 2.085279e-04 3.011694e-04 3.292697e-04 3.613788e-04 4.518404e-04 4.510444e-04 6.139585e-04 5.513202e-04 8.419089e-04 6.551391e-04 1.155958e-03 7.594878e-04 
1.479390e-03 7.458797e-04 1.967543e-03 -6.096384e-03 -5.746018e+00 -3.577614e-02 -2.419004e-03 -7.324654e-04 -1.457340e-03 -6.247618e-04 -1.093208e-03 -5.386155e-04 -7.959704e-04 -4.842084e-04 -5.381605e-04 -4.607612e-04 -3.168262e-04 -3.943391e-04 -2.142934e-04 -3.126771e-04 -1.610377e-04 -2.454251e-04 -1.239862e-04 -1.955387e-04 -9.483252e-05 -1.556381e-04 -6.847561e-05 -1.199145e-04 -4.590444e-05 -8.754258e-05 -2.711446e-05 -5.680285e-05 -1.151669e-05 -2.830296e-05 1.660608e-07 -3.967368e-06 8.724607e-06 1.727181e-05 1.571896e-05 3.759500e-05 2.136677e-05 5.955975e-05 2.573246e-05 8.960913e-05 2.879543e-05 1.336928e-04 3.052681e-05 1.924074e-04 4.661396e-05 2.450717e-04 1.219176e-04 2.566261e-04 2.159759e-04 2.844118e-04 3.181945e-04 3.376154e-04 4.417607e-04 4.082631e-04 6.044111e-04 4.886578e-04 8.223077e-04 5.739264e-04 1.109779e-03 6.607308e-04 
1.245055e-03 6.574377e-04 1.688630e-03 -5.953516e-03 -5.119250e+00 -3.115975e-02 -2.027485e-03 -6.597521e-04 -1.214743e-03 -5.686203e-04 -9.002294e-04 -4.886372e-04 -6.591255e-04 -4.139480e-04 -4.756345e-04 -3.473626e-04 -2.758267e-04 -3.391346e-04 -1.770806e-04 -2.877203e-04 -1.298320e-04 -2.302516e-04 -1.001045e-04 -1.815470e-04 -7.228179e-05 -1.358027e-04 -4.680089e-05 -9.990019e-05 -2.920139e-05 -7.026953e-05 -1.559949e-05 -4.661949e-05 -9.367407e-06 -2.981705e-05 -5.770552e-06 -1.118752e-05 -1.759155e-07 9.259032e-06 5.240138e-06 3.255341e-05 1.402262e-05 6.368681e-05 2.005366e-05 9.637166e-05 1.971632e-05 1.345741e-04 2.310207e-05 1.645238e-04 5.128895e-05 1.580290e-04 1.281213e-04 2.138890e-04 1.737221e-04 2.623804e-04 2.468403e-04 3.111585e-04 3.512394e-04 3.681329e-04 4.918648e-04 4.337594e-04 6.793045e-04 5.057724e-04 9.262633e-04 5.814130e-04 
1.096743e-03 5.430231e-04 1.467251e-03 -6.706108e-03 -4.149841e+00 -2.355672e-02 -1.726918e-03 -5.655225e-04 -1.046603e-03 -5.005822e-04 -7.782260e-04 -4.374143e-04 -5.898567e-04 -3.350696e-04 -5.119248e-04 -1.392517e-04 -3.061405e-04 -2.900841e-04 -1.755539e-04 -2.812665e-04 -1.263629e-04 -2.278049e-04 -1.015316e-04 -1.749999e-04 -6.334008e-05 -1.094250e-04 -2.905152e-05 -7.132808e-05 -1.440532e-05 -4.289237e-05 -3.344664e-06 -2.903051e-05 -1.175537e-05 -3.519037e-05 -2.072480e-05 -2.467981e-05 -1.681058e-05 -4.580139e-06 -1.274591e-05 2.317276e-05 7.192996e-06 7.691530e-05 2.163450e-05 1.170080e-04 1.565173e-05 1.560990e-04 2.306160e-05 1.451303e-04 8.987925e-05 -2.336133e-05 1.975399e-04 1.681940e-04 1.604580e-04 2.483876e-04 2.112757e-04 2.857393e-04 3.115352e-04 3.227445e-04 4.446708e-04 3.689684e-04 6.137981e-04 4.232518e-04 8.279890e-04 4.824002e-04 
8.584493e-04 4.445102e-04 1.177337e-03 -6.448565e-03 -3.432679e+00 -1.849254e-02 -1.331835e-03 -4.801037e-04 -7.978396e-04 -4.348537e-04 -5.770203e-04 -3.830502e-04 -4.452234e-04 -2.616056e-04 -4.783349e-04 7.064493e-06 -2.442849e-04 -2.502203e-04 -1.248628e-04 -2.570369e-04 -9.053826e-05 -2.072646e-04 -7.872364e-05 -1.580850e-04 -4.046138e-05 -8.489242e-05 -3.869192e-06 -4.910376e-05 4.267485e-06 -2.378155e-05 1.199075e-05 -1.609559e-05 -8.907726e-06 -3.658958e-05 -2.887018e-05 -3.111597e-05 -2.688546e-05 -1.239481e-05 -2.615844e-05 1.518101e-05 3.107522e-07 7.901891e-05 1.833608e-05 1.193643e-04 4.081718e-06 1.581865e-04 6.743316e-06 1.319840e-04 8.436461e-05 -1.369528e-04 2.305616e-04 1.304029e-04 1.103636e-04 2.257976e-04 1.333071e-04 2.540527e-04 2.169776e-04 2.763967e-04 3.287046e-04 3.078207e-04 4.672863e-04 3.483462e-04 6.407774e-04 3.949955e-04 
6.719713e-04 3.295991e-04 9.247639e-04 -7.438457e-03 -2.491231e+00 -1.081629e-02 -9.872482e-04 -3.791062e-04 -5.921096e-04 -3.710605e-04 -3.939312e-04 -3.787022e-04 -2.671546e-04 -2.971308e-04 -5.948621e-04 6.053972e-04 -1.812722e-04 -2.468139e-04 2.351430e-05 -2.093330e-04 1.735862e-05 -1.212585e-04 -1.312280e-05 -6.834425e-05 4.527488e-05 6.349579e-05 1.058232e-04 7.848901e-05 1.028705e-04 1.023381e-04 1.303766e-04 9.706499e-05 8.659700e-05 1.934536e-05 4.096274e-05 2.984306e-05 4.663486e-05 5.640766e-05 2.535518e-05 8.027823e-05 7.242420e-05 2.048022e-04 1.156211e-04 2.347245e-04 7.111264e-05 3.093595e-04 4.964316e-05 3.172576e-04 2.115424e-04 -6.241789e-04 4.132149e-04 2.028480e-04 9.507336e-06 2.595639e-04 5.540113e-05 2.338787e-04 1.534311e-04 2.256817e-04 2.567772e-04 2.375778e-04 3.711206e-04 2.622602e-04 5.066513e-04 2.941808e-04 
4.356260e-04 2.221051e-04 6.335549e-04 -7.747440e-03 -1.698767e+00 -4.718593e-03 -5.934857e-04 -2.788780e-04 -3.471511e-04 -2.993873e-04 -1.778502e-04 -3.535151e-04 -5.050622e-05 -3.284334e-04 -6.049491e-04 2.332180e-02 4.713556e-02 3.642337e-02 4.392836e-02 3.947027e-02 4.134985e-02 4.311815e-02 3.895740e-02 4.773833e-02 3.646181e-02 4.800494e-02 4.004753e-02 4.475763e-02 4.351498e-02 4.226884e-02 4.778664e-02 3.893935e-02 5.086760e-02 3.955891e-02 4.812324e-02 4.332832e-02 4.462932e-02 4.655069e-02 4.137116e-02 5.049071e-02 3.827174e-02 5.015649e-02 4.159482e-02 4.598965e-02 4.451595e-02 4.309867e-02 4.835423e-02 4.048844e-02 5.334700e-02 2.699173e-02 6.244414e-04 2.658943e-04 -1.094428e-04 2.623861e-04 -3.841341e-05 1.991824e-04 6.147704e-05 1.704433e-04 1.466027e-04 1.678548e-04 2.295876e-04 1.796342e-04 3.229824e-04 1.989993e-04 
2.230857e-04 1.061885e-04 3.650821e-04 -9.754336e-03 -7.940472e-01 3.765661e-03 -2.218700e-04 -1.553902e-04 -1.396000e-04 -2.100991e-04 4.105818e-05 -4.093372e-04 5.324819e-04 -1.136585e-03 -1.539074e-04 4.841171e-01 1.023103e+00 7.933092e-01 9.492925e-01 8.584347e-01 8.938158e-01 9.353169e-01 8.429443e-01 1.033938e+00 7.878179e-01 1.035377e+00 8.642074e-01 9.646221e-01 9.393211e-01 9.101780e-01 1.030676e+00 8.385559e-01 1.097540e+00 8.547368e-01 1.038530e+00 9.361185e-01 9.625138e-01 1.005068e+00 8.926487e-01 1.089435e+00 8.248586e-01 1.078153e+00 8.959385e-01 9.875479e-01 9.604481e-01 9.237046e-01 1.044592e+00 8.684103e-01 1.151122e+00 6.049631e-01 2.696671e-03 1.124916e-03 -6.148213e-04 3.526968e-04 -1.448283e-04 1.562659e-04 9.173264e-07 1.009637e-04 6.777704e-05 8.736090e-05 1.167249e-04 8.852354e-05 1.660105e-04 9.595425e-05 
-4.789820e-06 -8.271828e-06 8.108819e-05 -1.104850e-02 6.035783e-02 1.123432e-02 1.582700e-04 -2.865306e-05 7.147977e-05 -9.600443e-05 2.166322e-04 -3.430163e-04 8.221387e-04 -1.376737e-03 2.062617e-04 6.780875e-01 1.433470e+00 1.111694e+00 1.329859e+00 1.202835e+00 1.252054e+00 1.310383e+00 1.180755e+00 1.448340e+00 1.103411e+00 1.450173e+00 1.210277e+00 1.350930e+00 1.315416e+00 1.274585e+00 1.443216e+00 1.174214e+00 1.536780e+00 1.196800e+00 1.454085e+00 1.310668e+00 1.347551e+00 1.407106e+00 1.249709e+00 1.525084e+00 1.154693e+00 1.509158e+00 1.254098e+00 1.382200e+00 1.344408e+00 1.292759e+00 1.462187e+00 1.215398e+00 1.611359e+00 8.469940e-01 3.311177e-03 1.398909e-03 -8.457138e-04 3.261325e-04 -2.151602e-04 9.004870e-05 -6.466796e-05 2.734912e-05 -2.393652e-05 6.953065e-06 -1.120572e-05 -1.349236e-06 -6.791838e-06 -5.471317e-06 
-2.336311e-04 -1.233944e-04 -1.957840e-04 -1.382022e-02 9.169449e-01 2.020635e-02 5.328353e-04 1.347688e-04 2.062125e-04 1.444993e-04 9.096279e-05 2.395088e-04 -2.013357e-04 7.017001e-04 -3.999745e-04 -2.449722e-01 -5.173426e-01 -4.008287e-01 -4.801618e-01 -4.338967e-01 -4.522563e-01 -4.729095e-01 -4.266355e-01 -5.229252e-01 -3.987394e-01 -5.238394e-01 -4.374068e-01 -4.881432e-01 -4.755186e-01 -4.607096e-01 -5.218140e-01 -4.245425e-01 -5.558011e-01 -4.327692e-01 -5.260308e-01 -4.740755e-01 -4.875734e-01 -5.091025e-01 -4.522623e-01 -5.519370e-01 -4.179008e-01 -5.463901e-01 -4.539209e-01 -5.005683e-01 -4.867236e-01 -4.683337e-01 -5.295085e-01 -4.404847e-01 -5.836519e-01 -3.063923e-01 -8.716535e-04 -6.274671e-04 2.686153e-04 -1.768711e-04 2.115427e-05 -8.896438e-05 -5.380989e-05 -7.698140e-05 -9.391687e-05 -8.351303e-05 -1.321729e-04 -9.519448e-05 -1.776577e-04 -1.086265e-04 