# vtk DataFile Version 2.0
Comment goes here
ASCII

DATASET STRUCTURED_POINTS
FIELD FieldData 1
TIME 1 1 double
0.20000000
DIMENSIONS    256   32   1

ORIGIN    0.000   0.000   0.000
SPACING   0.0078125 0.0078125   1.000

POINT_DATA   8192
SCALARS Omega double
LOOKUP_TABLE default

3.520308e-05 9.576131e-05 1.309048e-04 2.041034e-04 2.125253e-04 2.184398e-04 1.530571e-04 3.673358e-04 5.851503e-04 9.196994e-04 6.874409e-04 1.540223e-03 1.434489e-03 2.781154e-03 3.120361e-04 4.514758e-03 1.114230e-03 6.868766e-03 1.029561e-03 5.984262e-03 -4.997651e-03 1.564715e-02 9.699578e-04 1.443781e-02 7.933233e-03 1.572673e-02 2.393087e-03 1.444184e-02 -9.980255e-03 1.218540e-02 -2.146209e-02 1.372009e-02 7.330623e-04 4.027934e-02 3.634763e-02 6.063154e-02 3.979642e-02 7.081210e-02 -4.982310e-02 6.140421e-02 -1.093816e-01 3.756386e-02 -6.651818e-02 2.138287e-01 1.784656e-01 3.762231e-01 3.461567e-01 5.595594e-01 -1.882145e-01 6.915980e-01 -4.437950e-01 1.123147e+00 -6.266801e-01 3.110432e+00 3.812621e-01 6.518913e+00 6.420871e-01 1.087781e+01 -3.740623e+00 1.559201e+01 -2.014670e+01 4.896867e+01 4.800032e+01 8.104332e+01 -7.437113e+02 -2.329516e+03 -5.359448e+03 -7.176123e+03 3.150977e+03 7.840903e+03 2.092831e+03 1.105052e+02 1.108899e+02 -8.210951e+01 -2.717231e+01 -2.138219e+01 -1.670119e+01 -5.387433e+00 -8.782911e+00 -1.408138e+00 -3.773099e+00 -9.750404e-01 -1.439904e+00 -6.874016e-01 -6.010235e-01 -4.527468e-01 -3.893488e-01 -2.118584e-01 -3.282051e-01 -1.239980e-01 -2.301758e-01 -3.998775e-02 -1.260180e-01 -2.280377e-01 1.133839e-01 7.759130e-01 5.646537e-01 3.625315e-01 5.296992e-01 5.416576e-01 3.979340e-01 6.112074e-02 -2.143261e-01 -1.953276e-01 -2.231182e-01 -1.898764e-01 -1.828963e-01 -1.847056e-01 -1.418792e-01 -1.335351e-01 -1.165694e-01 -1.136613e-01 -1.219565e-01 -1.008912e-01 -1.090225e-01 -1.056603e-01 -1.118779e-01 -1.329269e-01 -1.100082e-01 -1.288269e-01 -1.267547e-01 -1.340768e-01 -1.440571e-01 -9.145101e-02 -7.935125e-02 -1.308760e-01 5.664399e-02 4.155217e-01 5.077606e-01 5.435161e-01 5.718638e-01 5.252698e-01 3.764402e-01 5.870319e-02 -1.712701e-01 -2.152092e-01 -2.422382e-01 -2.009493e-01 -1.875681e-01 -1.778258e-01 -1.418348e-01 -1.352420e-01 -1.115963e-01 -1.094824e-01 -1.123819e-01 -9.720039e-02 -1.064003e-01 -1.007418e-01 -1.049623e-01 -1.243254e-01 -1.043126e-01 -1.266324e-01 -1.182321e-01 -1.242311e-01 -1.362702e-01 -8.668185e-02 -7.380732e-02 -7.435770e-02 4.217575e-02 2.639869e-01 4.885666e-01 6.361254e-01 5.968113e-01 5.258930e-01 3.598416e-01 5.725830e-02 -1.481224e-01 -2.177721e-01 -2.483152e-01 -2.073417e-01 -1.929245e-01 -1.727223e-01 -1.407128e-01 -1.344349e-01 -1.102274e-01 -1.078817e-01 -1.071933e-01 -9.396058e-02 -1.043251e-01 -9.802040e-02 -1.018295e-01 -1.185192e-01 -9.990995e-02 -1.245164e-01 -1.131544e-01 -1.196404e-01 -1.293516e-01 -8.118718e-02 -7.179068e-02 -4.452601e-02 3.915745e-02 2.041416e-01 4.936127e-01 6.866380e-01 6.160318e-01 5.397588e-01 3.618807e-01 6.403168e-02 -1.221622e-01 -2.057810e-01 -2.330079e-01 -1.925004e-01 -1.777488e-01 -1.428666e-01 -1.159640e-01 -1.014664e-01 -7.543417e-02 -6.980039e-02 -5.380619e-02 -4.699154e-02 -4.219941e-02 -3.333565e-02 -3.120038e-02 -2.459563e-02 -2.186002e-02 -2.010150e-02 -1.597518e-02 -1.504787e-02 -1.175141e-02 -1.064368e-02 -9.606414e-03 -7.767102e-03 -7.203628e-03 -5.757697e-03 -5.202541e-03 -4.772335e-03 -3.803784e-03 -3.629966e-03 -2.903647e-03 -2.573464e-03 -2.339707e-03 -1.800049e-03 -1.750492e-03 -1.421553e-03 -1.244870e-03 -1.166317e-03 -8.769784e-04 -9.371655e-04 -7.211229e-04 -6.439494e-04 -5.978959e-04 -3.801763e-04 -4.335833e-04 -3.158041e-04 -2.504290e-04 -2.576492e-04 -1.589757e-04 -1.773953e-04 -1.658427e-04 -1.725686e-04 -1.594215e-04 -1.015548e-04 -5.764061e-05 -1.856788e-05 -4.851325e-06 1.672902e-05 
-1.449048e+00 -3.913047e+00 -8.038144e+00 -1.371706e+01 -2.114660e+01 -2.840826e+01 -3.084551e+01 -2.786487e+01 -2.912731e+01 -3.438843e+01 -4.157348e+01 -5.026950e+01 -6.798309e+01 -8.611684e+01 -8.374454e+01 -8.756165e+01 -1.031184e+02 -9.447816e+01 -1.088920e+02 -7.883614e+01 -4.616726e+01 -6.262018e+01 -3.019909e+01 -1.491404e+01 -3.276756e+01 -1.474508e+01 -1.854043e+01 -2.173343e+01 -1.155205e+01 -2.327676e+01 -1.107408e+01 -1.313271e+01 -1.585445e+01 -8.069632e+00 -1.876527e+01 -8.509142e+00 -1.202823e+01 -1.170024e+01 -5.673190e+00 -1.581158e+01 -6.936457e+00 -1.168523e+01 -9.282413e+00 -4.404228e+00 -1.349479e+01 -6.418466e+00 -1.190028e+01 -8.068890e+00 -6.836181e+00 -1.239941e+01 -1.064654e+01 -1.374036e+01 -1.289525e+01 -1.075354e+01 -1.621898e+01 -1.200487e+01 -2.002200e+01 -7.162434e+00 -2.395710e+01 1.146354e+01 -4.266351e+01 5.610566e+01 -2.509351e+02 -1.884874e+01 -5.051042e+02 -1.375034e+03 -2.433046e+03 -3.199033e+03 1.475322e+03 3.298398e+03 6.623766e+02 -1.191333e+03 3.139916e+02 1.123580e+01 4.113435e+01 5.228109e+01 3.907944e+01 4.268024e+01 3.734160e+01 3.086032e+01 3.300175e+01 2.699998e+01 2.288653e+01 2.299330e+01 1.598404e+01 2.077171e+01 1.344376e+01 1.569743e+01 1.266664e+01 1.145235e+01 1.302038e+01 9.027932e+00 1.266905e+01 8.581822e+00 9.699497e+00 1.265824e+01 1.169595e+01 1.376774e+01 9.508984e+00 1.238648e+01 1.186058e+01 9.212472e+00 1.217264e+01 8.852014e+00 1.054766e+01 9.396472e+00 8.873490e+00 1.192017e+01 8.978736e+00 1.112929e+01 9.767299e+00 9.846402e+00 1.209022e+01 9.437421e+00 1.186890e+01 1.033176e+01 1.080124e+01 1.200828e+01 9.787314e+00 1.264513e+01 1.083916e+01 1.160847e+01 1.217595e+01 1.042018e+01 1.343803e+01 1.110032e+01 1.225391e+01 1.405156e+01 1.378949e+01 1.605635e+01 1.335056e+01 1.517102e+01 1.507478e+01 1.272293e+01 1.466209e+01 1.233994e+01 1.343986e+01 1.295402e+01 1.221917e+01 1.436811e+01 1.226659e+01 1.385419e+01 1.316151e+01 1.291711e+01 1.448182e+01 1.240108e+01 1.440067e+01 1.341293e+01 1.349811e+01 1.452443e+01 1.257829e+01 1.484641e+01 1.360189e+01 1.395479e+01 1.460685e+01 1.293806e+01 1.534236e+01 1.371502e+01 1.432087e+01 1.592033e+01 1.589402e+01 1.798841e+01 1.563366e+01 1.691176e+01 1.704607e+01 1.476278e+01 1.625214e+01 1.422117e+01 1.506057e+01 1.486622e+01 1.406271e+01 1.579623e+01 1.390933e+01 1.534165e+01 1.487161e+01 1.449574e+01 1.587436e+01 1.393139e+01 1.571204e+01 1.492843e+01 1.484759e+01 1.587108e+01 1.400298e+01 1.598124e+01 1.493191e+01 1.511520e+01 1.583669e+01 1.420434e+01 1.630516e+01 1.494330e+01 1.535077e+01 1.680027e+01 1.690876e+01 1.893501e+01 1.668306e+01 1.778654e+01 1.791960e+01 1.575783e+01 1.703474e+01 1.502050e+01 1.585725e+01 1.569866e+01 1.493468e+01 1.650848e+01 1.463096e+01 1.605901e+01 1.561548e+01 1.522705e+01 1.655708e+01 1.463518e+01 1.635141e+01 1.559968e+01 1.548945e+01 1.652751e+01 1.468001e+01 1.657059e+01 1.553315e+01 1.569590e+01 1.642759e+01 1.478124e+01 1.674363e+01 1.543172e+01 1.588826e+01 1.628390e+01 1.495157e+01 1.684942e+01 1.526105e+01 1.606423e+01 1.611106e+01 1.518443e+01 1.689122e+01 1.505370e+01 1.626389e+01 1.598321e+01 1.539443e+01 1.685812e+01 1.491269e+01 1.644609e+01 1.585865e+01 1.556771e+01 1.676972e+01 1.485485e+01 1.661688e+01 1.574051e+01 1.578807e+01 1.671127e+01 1.476155e+01 1.638801e+01 1.558262e+01 1.808735e+01 1.938056e+01 1.257898e+01 6.666219e+00 3.318820e+00 1.285154e+00 7.209944e-02 
-1.756619e+00 -6.155294e+00 -1.487264e+01 -2.811495e+01 -4.602462e+01 -6.234897e+01 -6.078335e+01 -4.525848e+01 -4.244706e+01 -4.514638e+01 -5.648824e+01 -4.899289e+01 -7.155856e+01 -1.263690e+02 -1.028889e+02 -6.834807e+01 -1.040938e+02 -8.857750e+01 -1.149336e+02 -1.213191e+02 -2.885136e+01 -8.768223e+01 -7.012032e+01 -2.068643e+01 -7.106486e+01 -1.846627e+01 -4.034682e+01 -5.352204e+01 -1.254635e+01 -6.073950e+01 -1.395747e+01 -3.506454e+01 -4.153451e+01 -6.104238e+00 -5.272650e+01 -9.990527e+00 -3.677472e+01 -3.194646e+01 -4.325304e+00 -4.749588e+01 -8.549429e+00 -3.785620e+01 -2.581281e+01 -7.103909e+00 -4.458757e+01 -1.243481e+01 -4.118558e+01 -2.687540e+01 -2.088818e+01 -4.732972e+01 -3.052677e+01 -5.107839e+01 -4.452013e+01 -4.891617e+01 -6.319966e+01 -6.461412e+01 -7.661500e+01 -7.285993e+01 -1.007722e+02 -4.451295e+01 -8.207020e+01 3.308503e+01 -3.236697e+02 -3.245594e+01 -5.010424e+02 -1.125831e+03 -1.602558e+02 -2.571855e+03 1.031667e+02 1.656968e+03 1.538112e+02 -3.286510e+02 5.756119e+02 3.678335e+02 2.505225e+02 2.216934e+02 1.897889e+02 1.361768e+02 1.476243e+02 8.724138e+01 1.095180e+02 7.283150e+01 6.821185e+01 5.944175e+01 4.312869e+01 5.283515e+01 2.814079e+01 3.955124e+01 2.436406e+01 2.605475e+01 2.617205e+01 1.294851e+01 2.828515e+01 9.126163e+00 1.842644e+01 2.092319e+01 1.668003e+01 2.454927e+01 7.284321e+00 2.290389e+01 1.567845e+01 1.115204e+01 2.336832e+01 8.521992e+00 1.966387e+01 1.133440e+01 1.317901e+01 2.213318e+01 9.091371e+00 2.056075e+01 1.177334e+01 1.581901e+01 2.092767e+01 1.035065e+01 2.199241e+01 1.291351e+01 1.826012e+01 1.925707e+01 1.182435e+01 2.374476e+01 1.380232e+01 2.004271e+01 1.853467e+01 1.384208e+01 2.473236e+01 1.326462e+01 2.071842e+01 2.229042e+01 2.024516e+01 2.605131e+01 1.553718e+01 2.562262e+01 2.203794e+01 1.833248e+01 2.587711e+01 1.681088e+01 2.358889e+01 1.919523e+01 1.962613e+01 2.519008e+01 1.714428e+01 2.450427e+01 1.959455e+01 2.139589e+01 2.437219e+01 1.771793e+01 2.577868e+01 2.005946e+01 2.279146e+01 2.379479e+01 1.856580e+01 2.672959e+01 2.035840e+01 2.377238e+01 2.345347e+01 1.964637e+01 2.716189e+01 1.980437e+01 2.386941e+01 2.596899e+01 2.512051e+01 2.939054e+01 2.129589e+01 2.781266e+01 2.658857e+01 2.265898e+01 2.790301e+01 2.171261e+01 2.599803e+01 2.387928e+01 2.325631e+01 2.718407e+01 2.153098e+01 2.679725e+01 2.382539e+01 2.428587e+01 2.683097e+01 2.173077e+01 2.763529e+01 2.386855e+01 2.510930e+01 2.655175e+01 2.213883e+01 2.818350e+01 2.379439e+01 2.567501e+01 2.620570e+01 2.264539e+01 2.833754e+01 2.317606e+01 2.543272e+01 2.770320e+01 2.751478e+01 3.112867e+01 2.410245e+01 2.882250e+01 2.875977e+01 2.470143e+01 2.890358e+01 2.394192e+01 2.709932e+01 2.606003e+01 2.482858e+01 2.831620e+01 2.354194e+01 2.769152e+01 2.579935e+01 2.545267e+01 2.818043e+01 2.356506e+01 2.827164e+01 2.566268e+01 2.599704e+01 2.797277e+01 2.373376e+01 2.868401e+01 2.544502e+01 2.642909e+01 2.766025e+01 2.402371e+01 2.895134e+01 2.517308e+01 2.683520e+01 2.729836e+01 2.446639e+01 2.904178e+01 2.478051e+01 2.722898e+01 2.690373e+01 2.502534e+01 2.897567e+01 2.435215e+01 2.771538e+01 2.662204e+01 2.551994e+01 2.882702e+01 2.412292e+01 2.815475e+01 2.636226e+01 2.594183e+01 2.861239e+01 2.410472e+01 2.857502e+01 2.615514e+01 2.650345e+01 2.848058e+01 2.401464e+01 2.835582e+01 2.646310e+01 3.209398e+01 3.434253e+01 1.901393e+01 8.908568e+00 4.609111e+00 2.081111e+00 5.287589e-01 
-1.712342e+00 -5.976747e+00 -1.554118e+01 -3.221604e+01 -5.806061e+01 -8.478052e+01 -7.476565e+01 -4.350027e+01 -3.777415e+01 -3.353580e+01 -3.501631e+01 -7.413230e+00 4.510982e+01 1.389839e+01 6.338214e+00 6.489871e+01 3.155892e+01 4.803792e+01 6.439825e+01 -3.609722e+01 5.945701e+01 6.641016e+00 -7.251159e+01 4.371423e+00 -9.589189e+01 -5.228845e+00 -3.284639e+01 -7.913129e+01 1.753282e+00 -9.431623e+01 -1.065954e+01 -5.343673e+01 -7.228385e+01 2.746523e+00 -8.795551e+01 -9.054562e+00 -6.588508e+01 -5.965264e+01 2.186927e+00 -8.218675e+01 -9.001814e+00 -7.043771e+01 -4.848522e+01 -3.707790e+00 -7.871157e+01 -1.536111e+01 -7.344648e+01 -4.871293e+01 -2.046550e+01 -8.271785e+01 -3.664118e+01 -7.847876e+01 -7.057221e+01 -5.293507e+01 -1.040142e+02 -8.867533e+01 -1.018335e+02 -1.501560e+02 -1.031439e+02 -1.302302e+02 -1.238900e+02 -1.153999e+02 1.810093e+02 9.054115e+00 -1.434741e+01 6.558922e+02 1.038175e+03 -1.519761e+03 3.657916e+03 3.124666e+03 8.711341e+02 6.409597e+02 3.994529e+02 3.033370e+02 2.672656e+02 1.073051e+02 1.586457e+02 6.579952e+01 8.114849e+01 4.020395e+01 5.652610e+01 2.056099e+01 3.575538e+01 5.288411e+00 1.868991e+01 1.356625e+01 -7.114998e+00 1.819955e+01 -1.340332e+01 8.035482e+00 -4.862292e+00 -1.416790e+01 1.287946e+01 -2.389488e+01 4.022523e+00 -6.496288e+00 -1.292891e+01 1.315600e+00 -2.553427e+01 5.436405e+00 -1.621558e+01 -1.207201e+01 6.980067e+00 -1.896292e+01 5.516900e+00 -1.550236e+01 -3.663691e+00 6.119881e+00 -1.598826e+01 6.745687e+00 -1.402335e+01 3.784796e-01 2.197008e+00 -1.340438e+01 7.994108e+00 -1.201107e+01 3.338090e+00 -2.315519e+00 -1.001406e+01 9.724907e+00 -1.072244e+01 5.106500e+00 -4.754032e+00 -6.255061e+00 9.498987e+00 -1.233436e+01 5.976551e+00 -1.052578e+00 -4.648119e+00 1.034568e+00 -1.371996e+01 5.529688e+00 -6.734629e+00 -3.013730e+00 6.333543e+00 -7.060865e+00 6.966264e+00 -4.702032e+00 2.755909e+00 5.929448e+00 -4.834691e+00 8.055186e+00 -3.485694e+00 4.800265e+00 3.214889e+00 -3.135421e+00 9.115866e+00 -2.699494e+00 6.081511e+00 1.521827e+00 -1.052402e+00 9.658735e+00 -2.113947e+00 6.869783e+00 6.764987e-01 9.257274e-01 8.919768e+00 -3.259938e+00 6.885915e+00 2.487156e+00 1.030018e+00 3.072634e+00 -5.675910e+00 5.219235e+00 -4.671358e-01 1.498178e+00 6.142760e+00 7.852859e-02 7.453620e+00 1.874405e+00 5.673685e+00 6.211576e+00 1.690240e+00 8.522981e+00 2.397388e+00 6.620379e+00 5.135392e+00 2.620356e+00 8.992031e+00 2.641590e+00 7.211234e+00 4.588960e+00 3.677100e+00 9.109267e+00 2.830183e+00 7.552105e+00 4.221475e+00 4.478975e+00 8.336968e+00 1.910797e+00 6.948854e+00 4.304474e+00 3.757427e+00 4.403273e+00 -1.515397e+00 4.496071e+00 2.952414e+00 3.157661e+00 6.138606e+00 3.701217e+00 7.189199e+00 5.252201e+00 6.349673e+00 6.933169e+00 4.861596e+00 7.924652e+00 5.450414e+00 6.756803e+00 6.655379e+00 5.141162e+00 8.010006e+00 5.423757e+00 6.927884e+00 6.453190e+00 5.429147e+00 7.974100e+00 5.401293e+00 7.037794e+00 6.317765e+00 5.692717e+00 7.829575e+00 5.389898e+00 7.112812e+00 6.252599e+00 5.939103e+00 7.599120e+00 5.385437e+00 7.179707e+00 6.226986e+00 6.152832e+00 7.352088e+00 5.415626e+00 7.296746e+00 6.250683e+00 6.322301e+00 7.258729e+00 5.538193e+00 7.386378e+00 6.308290e+00 6.484930e+00 7.247710e+00 5.720175e+00 7.491252e+00 6.412576e+00 6.728703e+00 7.339094e+00 5.872674e+00 7.439169e+00 6.637408e+00 8.834881e+00 1.037832e+01 6.234749e+00 3.426068e+00 2.148813e+00 1.107093e+00 1.972172e-01 
-1.025834e+00 -3.466070e+00 -9.954059e+00 -2.219994e+01 -4.436661e+01 -7.212297e+01 -5.995307e+01 -2.852986e+01 -2.730190e+01 -2.854656e+01 -2.135932e+01 -1.297947e+01 2.755925e+01 -2.736803e+01 -5.504538e+00 -2.019255e+01 5.976207e+00 -1.644365e+01 6.563528e+00 -4.762431e+01 -8.790216e+00 5.392211e+01 -4.903006e+00 3.982710e+01 -5.844992e+01 4.956048e+00 -1.120905e+01 -5.309193e+01 3.860003e+00 -6.581023e+01 -7.459814e+00 -4.054168e+01 -6.004334e+01 -6.483813e+00 -6.611991e+01 -1.067586e+01 -5.420871e+01 -5.515132e+01 -8.516050e+00 -6.291117e+01 -1.145083e+01 -5.802830e+01 -4.633416e+01 -9.094254e+00 -5.912092e+01 -1.273864e+01 -5.590605e+01 -4.033733e+01 -7.914057e+00 -5.634382e+01 -1.260393e+01 -4.471603e+01 -3.846258e+01 -2.653779e+00 -5.826688e+01 -1.842168e+01 -3.386621e+01 -8.491511e+01 2.540855e+01 -1.053746e+02 -6.007564e+01 4.505749e+01 1.149692e+02 -9.171536e+02 4.235340e+02 1.088150e+03 5.493467e+01 8.584241e+02 6.447084e+03 4.280585e+03 -1.345572e+02 2.472422e+02 -1.422264e+02 -1.372356e+02 -5.669276e+01 -2.022440e+02 -1.119113e+02 -1.208487e+02 -1.393083e+02 -8.479619e+01 -9.772766e+01 -8.901204e+01 -5.924392e+01 -8.768995e+01 -4.517083e+01 -6.179853e+01 -5.791457e+01 -3.627661e+01 -5.836343e+01 -3.072484e+01 -4.710426e+01 -4.358593e+01 -2.524334e+01 -4.953127e+01 -2.373250e+01 -3.856177e+01 -4.338548e+01 -3.413372e+01 -4.913333e+01 -2.830905e+01 -4.657650e+01 -3.756795e+01 -2.595091e+01 -4.035287e+01 -2.247871e+01 -3.923723e+01 -2.679124e+01 -2.313720e+01 -3.599364e+01 -2.088691e+01 -3.696368e+01 -2.369790e+01 -2.624244e+01 -3.419949e+01 -2.070548e+01 -3.516480e+01 -2.209937e+01 -3.002891e+01 -3.185659e+01 -2.022327e+01 -3.400075e+01 -2.147462e+01 -3.218896e+01 -2.923190e+01 -2.109333e+01 -3.534921e+01 -2.096818e+01 -3.107910e+01 -3.377023e+01 -3.330300e+01 -4.067576e+01 -2.893571e+01 -3.987158e+01 -3.135516e+01 -2.759504e+01 -3.306269e+01 -2.334054e+01 -3.270206e+01 -2.372796e+01 -2.570774e+01 -2.976391e+01 -2.233308e+01 -3.100295e+01 -2.262259e+01 -2.803527e+01 -2.837929e+01 -2.235596e+01 -3.023894e+01 -2.240208e+01 -2.950166e+01 -2.674240e+01 -2.261640e+01 -2.958542e+01 -2.238058e+01 -3.006613e+01 -2.527602e+01 -2.374491e+01 -3.036201e+01 -2.233804e+01 -3.035142e+01 -3.137992e+01 -3.391200e+01 -3.591342e+01 -3.083042e+01 -3.650512e+01 -2.922220e+01 -2.942563e+01 -2.896942e+01 -2.470388e+01 -2.897779e+01 -2.314008e+01 -2.722979e+01 -2.592054e+01 -2.375220e+01 -2.775175e+01 -2.287969e+01 -2.805880e+01 -2.493891e+01 -2.411428e+01 -2.733590e+01 -2.306508e+01 -2.838213e+01 -2.402626e+01 -2.456105e+01 -2.686191e+01 -2.324714e+01 -2.832209e+01 -2.344112e+01 -2.555532e+01 -2.724217e+01 -2.356524e+01 -2.981081e+01 -3.035026e+01 -3.401847e+01 -3.321461e+01 -3.246412e+01 -3.438704e+01 -2.885119e+01 -3.032835e+01 -2.657604e+01 -2.599322e+01 -2.688316e+01 -2.369727e+01 -2.748172e+01 -2.382902e+01 -2.533630e+01 -2.594421e+01 -2.382041e+01 -2.758031e+01 -2.346498e+01 -2.599277e+01 -2.577109e+01 -2.433436e+01 -2.757572e+01 -2.331523e+01 -2.660077e+01 -2.549376e+01 -2.477606e+01 -2.732372e+01 -2.333167e+01 -2.713075e+01 -2.512358e+01 -2.521908e+01 -2.690138e+01 -2.357012e+01 -2.753169e+01 -2.459621e+01 -2.566429e+01 -2.638388e+01 -2.401256e+01 -2.773894e+01 -2.398717e+01 -2.617735e+01 -2.595401e+01 -2.444595e+01 -2.764729e+01 -2.352698e+01 -2.666874e+01 -2.552006e+01 -2.480828e+01 -2.736361e+01 -2.327374e+01 -2.711513e+01 -2.510477e+01 -2.525806e+01 -2.701537e+01 -2.291817e+01 -2.702235e+01 -2.567059e+01 -3.038428e+01 -3.044751e+01 -1.453797e+01 -5.519938e+00 -2.306043e+00 -8.288153e-01 -3.691970e-01 
-8.840589e-01 -1.669538e+00 -4.796493e+00 -1.124610e+01 -2.434428e+01 -4.252409e+01 -3.654086e+01 -2.021119e+01 -1.782023e+01 -1.796593e+01 -1.682689e+01 -2.953870e+01 -4.985011e+01 -7.760860e+01 -4.049778e+01 -6.932080e+01 -4.695559e+01 -6.238119e+01 -5.563453e+01 -4.221440e+01 -5.157142e+01 -8.006769e+01 -7.190505e+00 1.276894e+00 -1.906096e+01 2.624702e-01 -3.180932e+00 -1.361464e+01 -4.778230e+00 -1.948889e+01 -2.530098e+00 -1.606322e+01 -1.923365e+01 -1.297730e+01 -2.292604e+01 -8.509489e+00 -2.285606e+01 -2.065824e+01 -1.522460e+01 -2.283447e+01 -1.058527e+01 -2.437572e+01 -1.884470e+01 -1.381738e+01 -2.091302e+01 -9.931860e+00 -2.191756e+01 -1.428148e+01 -6.833982e+00 -1.649011e+01 -1.793307e+00 -1.207089e+01 -3.180601e+00 1.008317e+01 -6.654949e+00 1.944511e+01 8.140398e+00 9.142068e+00 5.773236e+01 -1.511449e+01 1.559050e+01 9.994464e+01 1.044936e+01 -8.339827e+01 2.476661e+02 -1.643403e+03 -5.864045e+02 4.091163e+03 3.236236e+03 2.803469e+03 -2.763501e+03 5.570742e+01 -3.787084e+02 -3.103765e+02 -2.335248e+02 -1.904222e+02 -1.754131e+02 -1.143301e+02 -1.419614e+02 -8.077466e+01 -9.557261e+01 -7.580209e+01 -6.053704e+01 -6.777862e+01 -4.414487e+01 -5.241493e+01 -4.386098e+01 -3.729839e+01 -4.154461e+01 -2.975120e+01 -3.685926e+01 -3.136247e+01 -2.856363e+01 -3.232877e+01 -2.356584e+01 -3.020739e+01 -3.102700e+01 -3.017352e+01 -3.071808e+01 -2.696674e+01 -3.351357e+01 -2.911482e+01 -2.832917e+01 -2.858567e+01 -2.470857e+01 -2.887340e+01 -2.407972e+01 -2.497097e+01 -2.580486e+01 -2.344145e+01 -2.730791e+01 -2.300355e+01 -2.550728e+01 -2.548700e+01 -2.379611e+01 -2.668927e+01 -2.292345e+01 -2.659266e+01 -2.519865e+01 -2.409429e+01 -2.622582e+01 -2.305958e+01 -2.717838e+01 -2.464411e+01 -2.458648e+01 -2.668066e+01 -2.296931e+01 -2.747311e+01 -2.763424e+01 -2.914416e+01 -2.890403e+01 -2.789706e+01 -3.228862e+01 -2.829794e+01 -2.904287e+01 -2.776760e+01 -2.581793e+01 -2.797904e+01 -2.421049e+01 -2.651219e+01 -2.547644e+01 -2.486948e+01 -2.675337e+01 -2.382461e+01 -2.702353e+01 -2.513117e+01 -2.521965e+01 -2.644709e+01 -2.410250e+01 -2.748761e+01 -2.478464e+01 -2.555946e+01 -2.616147e+01 -2.434297e+01 -2.756372e+01 -2.439167e+01 -2.603683e+01 -2.638238e+01 -2.430827e+01 -2.817025e+01 -2.799358e+01 -3.016779e+01 -2.845726e+01 -2.918332e+01 -3.221723e+01 -2.845361e+01 -3.012963e+01 -2.751532e+01 -2.686295e+01 -2.764769e+01 -2.475762e+01 -2.762440e+01 -2.518121e+01 -2.594303e+01 -2.654609e+01 -2.462566e+01 -2.771229e+01 -2.478653e+01 -2.630294e+01 -2.632993e+01 -2.496904e+01 -2.778439e+01 -2.452959e+01 -2.663247e+01 -2.606392e+01 -2.520791e+01 -2.759890e+01 -2.432768e+01 -2.703142e+01 -2.607897e+01 -2.520551e+01 -2.841074e+01 -2.826923e+01 -3.071330e+01 -2.805044e+01 -3.006895e+01 -3.202169e+01 -2.879114e+01 -3.075842e+01 -2.719771e+01 -2.761441e+01 -2.739873e+01 -2.535905e+01 -2.809827e+01 -2.488562e+01 -2.679077e+01 -2.643248e+01 -2.535493e+01 -2.798408e+01 -2.467651e+01 -2.725587e+01 -2.633827e+01 -2.581812e+01 -2.797287e+01 -2.469206e+01 -2.770026e+01 -2.619375e+01 -2.620538e+01 -2.778983e+01 -2.478798e+01 -2.804939e+01 -2.597453e+01 -2.655777e+01 -2.748944e+01 -2.502055e+01 -2.829042e+01 -2.563975e+01 -2.688366e+01 -2.712213e+01 -2.538559e+01 -2.840318e+01 -2.523938e+01 -2.724630e+01 -2.683869e+01 -2.574385e+01 -2.834839e+01 -2.495270e+01 -2.759197e+01 -2.657198e+01 -2.605673e+01 -2.816871e+01 -2.481533e+01 -2.791339e+01 -2.631876e+01 -2.644290e+01 -2.800191e+01 -2.462737e+01 -2.763929e+01 -2.618205e+01 -3.029576e+01 -3.191034e+01 -1.977542e+01 -1.049803e+01 -5.599453e+00 -2.731632e+00 -1.293180e+00 
-9.985911e-01 -9.102082e-01 -1.995530e+00 -4.712603e+00 -1.082339e+01 -2.078544e+01 -2.208295e+01 -1.785822e+01 -1.403186e+01 -1.106841e+01 -8.901606e+00 -1.090435e+01 -3.114463e+01 -3.304547e+01 -1.553775e+01 -1.551259e+01 -1.547918e+01 -1.550012e+01 -1.548434e+01 -1.547078e+01 -7.039172e+00 -6.810577e+01 -3.844008e+01 -2.878221e+01 -1.514290e+01 -7.999450e+00 -4.947910e+00 -8.459170e+00 -6.320806e+00 -7.023329e+00 -3.352797e-01 -2.801943e+00 -5.115899e+00 -6.442380e+00 -8.474032e+00 -3.459046e+00 -6.042290e+00 -5.741362e+00 -8.048061e+00 -9.518556e+00 -5.663772e+00 -7.995948e+00 -6.063661e+00 -8.516776e+00 -9.732406e+00 -7.023576e+00 -9.054359e+00 -5.912129e+00 -7.857787e+00 -9.431646e+00 -7.033413e+00 -9.052229e+00 -5.432641e+00 -5.620884e+00 -8.492784e+00 -3.424164e+00 -5.783478e+00 7.280243e-01 7.775319e+00 -5.645257e-01 1.050014e+01 1.453709e+01 3.247632e+01 4.578186e+01 -1.021978e+03 -1.964913e+03 -8.990540e+02 -2.227765e+02 -5.520774e+03 1.973045e+02 -2.374264e+03 -1.061687e+03 -1.633409e+02 -4.961797e+02 -7.869030e+01 -6.981615e+01 -4.824438e+01 -2.632118e+01 -3.202788e+01 -1.668193e+01 -2.183765e+01 -1.647660e+01 -1.535717e+01 -1.546844e+01 -1.174165e+01 -1.346329e+01 -1.260112e+01 -1.187498e+01 -1.273710e+01 -1.011299e+01 -1.209698e+01 -1.108665e+01 -1.134886e+01 -1.194848e+01 -9.541531e+00 -1.149554e+01 -1.111739e+01 -9.406878e+00 -5.260742e+00 -3.336882e+00 -7.695325e+00 -8.400569e+00 -1.099331e+01 -1.165430e+01 -1.121236e+01 -1.237622e+01 -1.091798e+01 -1.166269e+01 -1.155173e+01 -1.103334e+01 -1.189785e+01 -1.055516e+01 -1.158925e+01 -1.142357e+01 -1.124304e+01 -1.186512e+01 -1.072229e+01 -1.188658e+01 -1.143668e+01 -1.146133e+01 -1.181625e+01 -1.086740e+01 -1.201036e+01 -1.125275e+01 -1.156207e+01 -1.188604e+01 -1.069470e+01 -1.195390e+01 -1.147805e+01 -9.442165e+00 -5.544277e+00 -5.257431e+00 -8.860858e+00 -9.870291e+00 -1.195023e+01 -1.226790e+01 -1.220082e+01 -1.276384e+01 -1.171311e+01 -1.232692e+01 -1.195212e+01 -1.182163e+01 -1.221108e+01 -1.141889e+01 -1.225701e+01 -1.179857e+01 -1.190354e+01 -1.215452e+01 -1.155260e+01 -1.240792e+01 -1.177865e+01 -1.203230e+01 -1.211595e+01 -1.165986e+01 -1.242355e+01 -1.165284e+01 -1.208189e+01 -1.210077e+01 -1.146342e+01 -1.231077e+01 -1.189226e+01 -9.661693e+00 -5.834022e+00 -6.318516e+00 -9.435606e+00 -1.067878e+01 -1.251116e+01 -1.260513e+01 -1.273955e+01 -1.290835e+01 -1.219254e+01 -1.271185e+01 -1.215983e+01 -1.225140e+01 -1.235036e+01 -1.191226e+01 -1.256170e+01 -1.199036e+01 -1.228144e+01 -1.230522e+01 -1.201857e+01 -1.261804e+01 -1.197656e+01 -1.237527e+01 -1.227351e+01 -1.209326e+01 -1.257144e+01 -1.189545e+01 -1.239366e+01 -1.220315e+01 -1.188865e+01 -1.243923e+01 -1.215446e+01 -9.776131e+00 -5.947047e+00 -6.838124e+00 -9.644586e+00 -1.111804e+01 -1.278706e+01 -1.276161e+01 -1.302894e+01 -1.296229e+01 -1.250068e+01 -1.288894e+01 -1.226599e+01 -1.251079e+01 -1.243557e+01 -1.223092e+01 -1.270089e+01 -1.213710e+01 -1.255119e+01 -1.242985e+01 -1.235197e+01 -1.274352e+01 -1.218711e+01 -1.267459e+01 -1.246202e+01 -1.247364e+01 -1.275307e+01 -1.223842e+01 -1.276910e+01 -1.246466e+01 -1.256594e+01 -1.272276e+01 -1.230274e+01 -1.284159e+01 -1.244036e+01 -1.263604e+01 -1.267133e+01 -1.238373e+01 -1.288388e+01 -1.238665e+01 -1.268765e+01 -1.262649e+01 -1.245511e+01 -1.288521e+01 -1.234339e+01 -1.273706e+01 -1.258824e+01 -1.251806e+01 -1.285492e+01 -1.231757e+01 -1.277062e+01 -1.254541e+01 -1.257736e+01 -1.282763e+01 -1.225451e+01 -1.260479e+01 -1.238022e+01 -1.334618e+01 -1.380159e+01 -1.154048e+01 -8.465175e+00 -5.642297e+00 -3.358975e+00 -1.855287e+00 
-9.489609e-01 -6.412032e-01 -7.807535e-01 -1.681446e+00 -3.900459e+00 -8.638882e+00 -1.173654e+01 -1.220942e+01 -1.098138e+01 -9.174990e+00 -7.759336e+00 -3.041840e+00 -2.468545e+01 -3.639315e+01 -1.398118e+01 -1.387523e+01 -1.387470e+01 -1.387460e+01 -1.387465e+01 -1.387803e+01 -1.172220e+01 -2.748168e+01 -2.562973e+01 -2.407788e+01 -1.824143e+01 -1.306630e+01 -1.005755e+01 -9.116321e+00 -7.273327e+00 -5.338959e+00 -1.838116e+00 -8.876506e-01 -1.669299e+00 -2.552738e+00 -3.354887e+00 -1.749120e+00 -1.623491e+00 -1.693146e+00 -3.126645e+00 -3.956453e+00 -2.878463e+00 -2.816420e+00 -2.103077e+00 -3.541972e+00 -4.252756e+00 -3.611260e+00 -3.666225e+00 -2.290092e+00 -3.642219e+00 -4.264213e+00 -4.025800e+00 -4.413821e+00 -2.971902e+00 -3.928011e+00 -5.171039e+00 -4.285745e+00 -6.173548e+00 -2.843037e+00 -4.683649e+00 -5.411612e+00 -4.520992e+00 -1.449426e+01 -6.873218e+00 7.516948e+01 -5.196804e+02 -2.037169e+03 -5.169578e+03 -6.656096e+03 -8.871353e+03 -2.637386e+03 3.649196e+03 -2.130934e+03 1.111455e+02 -1.442665e+02 9.310882e+01 -1.882936e+01 3.081673e+00 -7.735013e+00 -6.222601e+00 -5.256770e+00 -6.110524e+00 -5.690721e+00 -5.556921e+00 -5.489889e+00 -4.603413e+00 -4.972340e+00 -5.037593e+00 -5.010562e+00 -5.227647e+00 -4.421732e+00 -4.890045e+00 -4.689555e+00 -4.962253e+00 -5.064577e+00 -4.139792e+00 -4.656660e+00 -5.327701e+00 6.881646e-01 1.593623e+01 2.003307e+01 1.201784e+01 5.916723e+00 2.793308e-01 -2.648614e+00 -4.029026e+00 -5.034713e+00 -4.852223e+00 -5.278100e+00 -5.260689e+00 -5.121139e+00 -5.315666e+00 -4.841906e+00 -5.205028e+00 -5.156255e+00 -5.180776e+00 -5.344054e+00 -4.957155e+00 -5.309250e+00 -5.184669e+00 -5.289784e+00 -5.364572e+00 -5.042588e+00 -5.328018e+00 -5.084511e+00 -5.229479e+00 -5.254306e+00 -4.711148e+00 -5.089541e+00 -5.480122e+00 1.689605e+00 1.549887e+01 1.725791e+01 9.705045e+00 3.825380e+00 -1.013472e+00 -3.464383e+00 -4.757421e+00 -5.476715e+00 -5.387378e+00 -5.631832e+00 -5.524216e+00 -5.487049e+00 -5.569249e+00 -5.313232e+00 -5.541208e+00 -5.418598e+00 -5.483995e+00 -5.548631e+00 -5.370663e+00 -5.601848e+00 -5.439362e+00 -5.542184e+00 -5.549638e+00 -5.414778e+00 -5.587915e+00 -5.362913e+00 -5.452884e+00 -5.404949e+00 -5.045470e+00 -5.288021e+00 -5.583840e+00 2.069595e+00 1.505301e+01 1.582014e+01 8.627356e+00 2.812132e+00 -1.630901e+00 -3.863562e+00 -5.113524e+00 -5.652421e+00 -5.661601e+00 -5.814375e+00 -5.674131e+00 -5.675550e+00 -5.676876e+00 -5.551132e+00 -5.696957e+00 -5.565852e+00 -5.642358e+00 -5.648704e+00 -5.583108e+00 -5.727175e+00 -5.584443e+00 -5.679978e+00 -5.648242e+00 -5.605948e+00 -5.692822e+00 -5.518657e+00 -5.574634e+00 -5.486679e+00 -5.216741e+00 -5.360774e+00 -5.662123e+00 2.253784e+00 1.488327e+01 1.523847e+01 8.228401e+00 2.371766e+00 -1.880064e+00 -4.037962e+00 -5.270675e+00 -5.715024e+00 -5.800681e+00 -5.891052e+00 -5.752553e+00 -5.767322e+00 -5.724623e+00 -5.675231e+00 -5.759388e+00 -5.651527e+00 -5.727811e+00 -5.703877e+00 -5.702339e+00 -5.781277e+00 -5.684027e+00 -5.773162e+00 -5.735708e+00 -5.752671e+00 -5.805879e+00 -5.714578e+00 -5.805841e+00 -5.753218e+00 -5.785512e+00 -5.810888e+00 -5.739707e+00 -5.832191e+00 -5.765380e+00 -5.810107e+00 -5.808521e+00 -5.763950e+00 -5.847986e+00 -5.764838e+00 -5.819226e+00 -5.799582e+00 -5.779952e+00 -5.852745e+00 -5.764858e+00 -5.830395e+00 -5.796737e+00 -5.799706e+00 -5.852671e+00 -5.767875e+00 -5.834972e+00 -5.794210e+00 -5.814154e+00 -5.857530e+00 -5.767937e+00 -5.800045e+00 -5.725264e+00 -5.927124e+00 -6.083834e+00 -5.713694e+00 -4.900312e+00 -3.804329e+00 -2.639273e+00 -1.691485e+00 