# vtk DataFile Version 2.0
Comment goes here
ASCII

DATASET STRUCTURED_POINTS
FIELD FieldData 1
TIME 1 1 double
0.03800000
DIMENSIONS    256   32   1

ORIGIN    0.000   0.000   0.000
SPACING   0.0078125 0.0078125   1.000

POINT_DATA   8192
SCALARS Omega double
LOOKUP_TABLE default

7.622077e-09 -3.680958e-09 3.483572e-08 -1.206845e-08 -3.764743e-08 -4.037197e-07 -1.298390e-06 -1.294637e-06 -3.471747e-07 -3.433710e-07 -6.780815e-07 -8.877855e-07 1.064462e-07 3.446313e-06 -2.989972e-05 -2.285578e-05 -1.669583e-05 -3.950061e-05 -2.459456e-05 -5.640294e-05 -5.292219e-05 -3.485727e-06 -2.650986e-05 -1.037583e-05 -3.207379e-05 -3.670421e-05 -2.623904e-05 -2.731312e-05 -2.876377e-05 -5.490387e-05 -6.678764e-05 -6.837596e-05 -5.486132e-05 -5.500256e-05 -9.135200e-05 -1.448841e-04 -1.827572e-04 -1.828846e-04 -2.271418e-04 -2.712633e-04 -3.957225e-04 -5.280941e-04 -4.492938e-04 -4.894397e-04 -4.957321e-04 -5.186854e-04 -7.129746e-04 -6.448460e-04 -7.190512e-04 -7.425351e-04 -1.052773e-03 -1.399498e-03 -1.304979e-03 -1.565457e-03 -1.312197e-03 -1.489055e-03 -2.051418e-03 -2.086998e-03 -2.103982e-03 1.025201e-03 3.434330e-03 -8.477167e-03 -1.095005e-02 2.852496e-02 3.389758e-02 -5.660498e-03 -1.021100e-02 3.434192e-03 4.399585e-03 2.873075e-04 -2.603510e-03 -1.913759e-03 -1.976304e-03 -1.833489e-03 -1.691275e-03 -2.165504e-03 -1.621726e-03 -1.610093e-03 -1.596826e-03 -1.263845e-03 -1.580855e-03 -1.270048e-03 -1.650254e-03 -1.714541e-03 -1.564313e-03 -2.227790e-03 -1.593618e-03 -1.898880e-03 -2.075823e-03 -2.144948e-03 -2.640854e-03 8.033253e-04 4.097664e-03 -2.149955e-03 -1.393493e-02 1.012973e-02 3.981541e-02 1.166155e-02 -1.317206e-02 -3.112798e-03 3.529444e-03 8.995038e-04 -2.427567e-03 -2.293344e-03 -2.139991e-03 -1.823454e-03 -1.646547e-03 -2.098571e-03 -1.556968e-03 -1.619979e-03 -1.546297e-03 -1.215798e-03 -1.527907e-03 -1.201993e-03 -1.638430e-03 -1.606636e-03 -1.538791e-03 -2.169699e-03 -1.464862e-03 -1.899906e-03 -1.945039e-03 -2.106478e-03 -2.482647e-03 1.126264e-03 4.145148e-03 -2.295584e-03 -1.603541e-02 1.118270e-02 4.522299e-02 1.136115e-02 -1.633605e-02 -3.147090e-03 4.048234e-03 8.161610e-04 -2.560680e-03 -2.352650e-03 -2.190016e-03 -1.815662e-03 -1.716156e-03 -2.112269e-03 -1.541495e-03 -1.677539e-03 -1.538051e-03 -1.261289e-03 -1.532683e-03 -1.186177e-03 -1.670642e-03 -1.565983e-03 -1.602310e-03 -2.161465e-03 -1.424644e-03 -1.960240e-03 -1.914565e-03 -2.150016e-03 -2.375207e-03 1.301400e-03 3.698099e-03 -3.040594e-03 -1.529491e-02 1.347559e-02 4.487473e-02 8.962297e-03 -1.667967e-02 -2.251743e-03 4.422003e-03 5.936614e-04 -2.626038e-03 -2.333350e-03 -2.193409e-03 -1.775953e-03 -1.769175e-03 -2.082505e-03 -1.504013e-03 -1.716875e-03 -1.510888e-03 -1.281941e-03 -1.504229e-03 -1.162035e-03 -1.677583e-03 -1.511746e-03 -1.641265e-03 -2.113805e-03 -1.383173e-03 -1.989124e-03 -1.857582e-03 -2.146045e-03 -2.210566e-03 1.432530e-03 3.217678e-03 -3.539849e-03 -1.388677e-02 1.545113e-02 4.330561e-02 6.791291e-03 -1.619481e-02 -1.195682e-03 4.802638e-03 4.924048e-04 -2.364982e-03 -2.054795e-03 -1.806749e-03 -1.345520e-03 -1.430785e-03 -1.463276e-03 -1.099486e-03 -1.237308e-03 -9.704932e-04 -7.929249e-04 -7.186075e-04 -5.463410e-04 -6.109575e-04 -4.637402e-04 -5.388772e-04 -5.259187e-04 -3.875430e-04 -4.692867e-04 -3.396337e-04 -2.728969e-04 -2.472064e-04 -1.633572e-04 -1.529022e-04 -1.082786e-04 -9.182312e-05 -7.198046e-05 -6.577447e-05 -6.212483e-05 -4.716376e-05 -5.144604e-05 -4.113660e-05 -3.944920e-05 -3.896145e-05 -2.858887e-05 -3.144608e-05 -2.479460e-05 -2.258177e-05 -2.162958e-05 -1.565524e-05 -1.710216e-05 -1.309077e-05 -1.188989e-05 -1.104294e-05 -8.101671e-06 -8.928696e-06 -6.623734e-06 -6.223239e-06 -5.642453e-06 -4.240974e-06 -4.748986e-06 -3.711094e-06 -4.257225e-06 -3.574196e-06 -7.630689e-07 4.623540e-08 1.208009e-08 -4.043574e-09 -9.922858e-09 
-2.964926e-03 -1.317882e-02 -7.506192e-02 -3.814266e-01 -1.369947e+00 -3.440619e+00 -4.911915e+00 -4.008390e+00 -4.137269e+00 -4.383646e+00 -6.038577e+00 -1.011323e+01 -1.321194e+01 -2.582091e+01 -2.953345e+01 -2.296255e+01 -3.239496e+01 -2.845340e+01 -3.245469e+01 -3.524053e+01 -1.582028e+01 -1.772274e+01 -1.473534e+01 -1.979771e+00 -4.621169e+00 -2.984104e+00 -2.766320e+00 -4.082313e+00 -1.306438e+00 -3.477072e+00 -1.728737e+00 -1.983180e+00 -2.557798e+00 -5.476577e-01 -2.472177e+00 -7.643468e-01 -1.372943e+00 -1.481521e+00 4.930012e-02 -1.601626e+00 -2.210009e-01 -1.053583e+00 -8.177311e-01 2.333919e-01 -1.058758e+00 1.804877e-01 -6.544240e-01 -2.271306e-01 4.696264e-01 -4.935732e-01 5.548728e-01 -1.954481e-01 2.915560e-01 6.829722e-01 8.749617e-03 9.026786e-01 2.602083e-01 7.324994e-01 8.806467e-01 4.558292e-01 1.268806e+00 6.063864e-01 9.708428e-01 1.278091e+00 1.092673e+00 1.367703e+00 7.604139e-01 1.313458e+00 1.264771e+00 9.881197e-01 1.497366e+00 1.044323e+00 1.374360e+00 1.299709e+00 1.142125e+00 1.575401e+00 1.191370e+00 1.491225e+00 1.417449e+00 1.315348e+00 1.684965e+00 1.343620e+00 1.618852e+00 1.543629e+00 1.479564e+00 1.784357e+00 1.465344e+00 1.765060e+00 1.670173e+00 1.649066e+00 1.912030e+00 1.593597e+00 1.959722e+00 1.793616e+00 1.753763e+00 2.140815e+00 1.930401e+00 2.138935e+00 1.831937e+00 1.918172e+00 2.131692e+00 1.762103e+00 2.147977e+00 1.912685e+00 1.985129e+00 2.118794e+00 1.803878e+00 2.216213e+00 1.924711e+00 2.057540e+00 2.124414e+00 1.876472e+00 2.282704e+00 1.923311e+00 2.122302e+00 2.113303e+00 1.942284e+00 2.294593e+00 1.889619e+00 2.186952e+00 2.099525e+00 2.004462e+00 2.305211e+00 1.895367e+00 2.292245e+00 2.099548e+00 1.989067e+00 2.390508e+00 2.178073e+00 2.403088e+00 2.001232e+00 2.100161e+00 2.308507e+00 1.905837e+00 2.318439e+00 2.023146e+00 2.116476e+00 2.213733e+00 1.909410e+00 2.327284e+00 1.975784e+00 2.151373e+00 2.166709e+00 1.964470e+00 2.344179e+00 1.930795e+00 2.195472e+00 2.129538e+00 2.002627e+00 2.317893e+00 1.890608e+00 2.241490e+00 2.098420e+00 2.047817e+00 2.304428e+00 1.900091e+00 2.331263e+00 2.082553e+00 2.025135e+00 2.385154e+00 2.189249e+00 2.421194e+00 1.977391e+00 2.133698e+00 2.283990e+00 1.925234e+00 2.336275e+00 1.994122e+00 2.143006e+00 2.181196e+00 1.943588e+00 2.330941e+00 1.935950e+00 2.178976e+00 2.135445e+00 1.994284e+00 2.330396e+00 1.897741e+00 2.221466e+00 2.099941e+00 2.023198e+00 2.292130e+00 1.871161e+00 2.260895e+00 2.067071e+00 2.063646e+00 2.270818e+00 1.893306e+00 2.341915e+00 2.044693e+00 2.043999e+00 2.355133e+00 2.187215e+00 2.415767e+00 1.939208e+00 2.150806e+00 2.242041e+00 1.941433e+00 2.332632e+00 1.948173e+00 2.160713e+00 2.144800e+00 1.968106e+00 2.321458e+00 1.896923e+00 2.202250e+00 2.107929e+00 2.011237e+00 2.310225e+00 1.873277e+00 2.243634e+00 2.075998e+00 2.042271e+00 2.275349e+00 1.863495e+00 2.278892e+00 2.042209e+00 2.075716e+00 2.239165e+00 1.873850e+00 2.304638e+00 2.002026e+00 2.102435e+00 2.188726e+00 1.898363e+00 2.312228e+00 1.948347e+00 2.128292e+00 2.134094e+00 1.936802e+00 2.301738e+00 1.887832e+00 2.161474e+00 2.090556e+00 1.977482e+00 2.291219e+00 1.860639e+00 2.219546e+00 2.071950e+00 2.014212e+00 2.267252e+00 1.836839e+00 2.227737e+00 2.017441e+00 2.040988e+00 2.221820e+00 1.776369e+00 2.133524e+00 2.008226e+00 2.552323e+00 2.636247e+00 1.078484e+00 2.365807e-01 3.897849e-02 3.861861e-03 -1.382667e-03 
4.441827e-03 -2.218432e-02 -2.424038e-01 -1.523819e+00 -6.431417e+00 -1.573248e+01 -1.642424e+01 -1.063958e+01 -1.304151e+01 -9.825859e+00 -1.608919e+01 -2.206261e+01 -1.414091e+01 -4.827289e+01 -5.355711e+01 -2.502890e+01 -5.187485e+01 -3.891438e+01 -3.972400e+01 -6.181727e+01 -1.195887e+01 -2.652209e+01 -3.495029e+01 -3.653410e-01 -1.857984e+01 -4.883489e+00 -7.089368e+00 -1.691862e+01 5.426030e-01 -1.589314e+01 -2.204398e+00 -7.836363e+00 -1.208017e+01 1.748937e+00 -1.311090e+01 2.822439e-02 -7.717141e+00 -7.861236e+00 2.458665e+00 -1.041764e+01 1.162641e+00 -7.520677e+00 -4.812571e+00 2.007401e+00 -8.557199e+00 1.797455e+00 -6.653583e+00 -2.393292e+00 1.552107e+00 -6.541866e+00 2.271090e+00 -5.222773e+00 -3.468063e-01 1.060803e+00 -4.398614e+00 2.881591e+00 -3.470512e+00 1.451579e+00 5.917244e-01 -2.241766e+00 3.749169e+00 -2.364431e+00 2.481664e+00 1.419150e+00 3.589392e-02 3.169160e+00 -1.741321e+00 3.437568e+00 5.348459e-01 3.700277e-01 3.739818e+00 -6.564144e-01 3.258819e+00 4.663596e-01 1.157454e+00 3.450215e+00 -5.850560e-02 3.284521e+00 8.441150e-01 1.844871e+00 3.242807e+00 6.755214e-01 3.375189e+00 1.425807e+00 2.448096e+00 3.106247e+00 1.417132e+00 3.610887e+00 2.062754e+00 2.997229e+00 3.255096e+00 2.170388e+00 3.988576e+00 2.493151e+00 3.325584e+00 4.194128e+00 3.188923e+00 3.898229e+00 2.988145e+00 3.861174e+00 3.976341e+00 3.171046e+00 4.350789e+00 3.482630e+00 3.970226e+00 4.087806e+00 3.462442e+00 4.511509e+00 3.668177e+00 4.175472e+00 4.201445e+00 3.725147e+00 4.674707e+00 3.775401e+00 4.350415e+00 4.243101e+00 3.923766e+00 4.702601e+00 3.765667e+00 4.518360e+00 4.247398e+00 4.094750e+00 4.737090e+00 3.803453e+00 4.746222e+00 4.226223e+00 4.045488e+00 4.912317e+00 4.321166e+00 4.909394e+00 4.049941e+00 4.278068e+00 4.775090e+00 3.857805e+00 4.799495e+00 4.145910e+00 4.349147e+00 4.581726e+00 3.891230e+00 4.825314e+00 4.038385e+00 4.437451e+00 4.471837e+00 4.020823e+00 4.871167e+00 3.940737e+00 4.543977e+00 4.383487e+00 4.107097e+00 4.802306e+00 3.849595e+00 4.653541e+00 4.304747e+00 4.215040e+00 4.766326e+00 3.856405e+00 4.838444e+00 4.225390e+00 4.135055e+00 4.897349e+00 4.365121e+00 4.974325e+00 4.012664e+00 4.350930e+00 4.731594e+00 3.902555e+00 4.840690e+00 4.087577e+00 4.404810e+00 4.514483e+00 3.959855e+00 4.832383e+00 3.950709e+00 4.489919e+00 4.403004e+00 4.073364e+00 4.838514e+00 3.862496e+00 4.586826e+00 4.316708e+00 4.131603e+00 4.744022e+00 3.796098e+00 4.674593e+00 4.233839e+00 4.222454e+00 4.693112e+00 3.824485e+00 4.837040e+00 4.144569e+00 4.143557e+00 4.825526e+00 4.339460e+00 4.954000e+00 3.925448e+00 4.349864e+00 4.651224e+00 3.905502e+00 4.825936e+00 3.993376e+00 4.411671e+00 4.455879e+00 3.987505e+00 4.824601e+00 3.881360e+00 4.518283e+00 4.374231e+00 4.095628e+00 4.816585e+00 3.829517e+00 4.622657e+00 4.297373e+00 4.174381e+00 4.737002e+00 3.802066e+00 4.711983e+00 4.208676e+00 4.255114e+00 4.649012e+00 3.809864e+00 4.768880e+00 4.096704e+00 4.304110e+00 4.519583e+00 3.837371e+00 4.776502e+00 3.956030e+00 4.344468e+00 4.386722e+00 3.901365e+00 4.752653e+00 3.816556e+00 4.409630e+00 4.292362e+00 3.993505e+00 4.746502e+00 3.765319e+00 4.557416e+00 4.266469e+00 4.082602e+00 4.715993e+00 3.707236e+00 4.571321e+00 4.150472e+00 4.151793e+00 4.642793e+00 3.599217e+00 4.388101e+00 4.121555e+00 5.314023e+00 5.828060e+00 2.539459e+00 5.895305e-01 1.065958e-01 1.874499e-02 6.107930e-03 
-1.037137e-02 -5.754024e-02 -3.932950e-01 -2.457771e+00 -1.207545e+01 -3.072557e+01 -2.547023e+01 -1.203573e+01 -1.859067e+01 -8.126797e+00 -1.550364e+01 -1.278020e+01 2.259659e+01 1.828316e-01 2.368757e+00 4.081344e+01 1.266010e+01 2.331539e+01 3.437035e+01 -1.362131e+01 3.768948e+01 1.594193e+01 -3.209138e+01 1.151869e+01 -3.257397e+01 -1.747130e+00 -4.589091e+00 -2.945443e+01 7.922003e+00 -2.981804e+01 8.636777e-01 -1.250678e+01 -2.314762e+01 7.803348e+00 -2.642041e+01 2.819832e+00 -1.616692e+01 -1.637638e+01 6.926441e+00 -2.282784e+01 3.960736e+00 -1.701496e+01 -1.042565e+01 5.024391e+00 -1.971854e+01 4.157650e+00 -1.634729e+01 -6.098881e+00 2.438579e+00 -1.660194e+01 3.786146e+00 -1.444485e+01 -2.632850e+00 -2.711517e-01 -1.291703e+01 3.754771e+00 -1.169019e+01 3.555580e-01 -2.946858e+00 -9.000552e+00 4.232400e+00 -1.037536e+01 2.170102e+00 -2.651162e+00 -5.847610e+00 1.869116e+00 -9.157852e+00 3.148534e+00 -5.275344e+00 -4.026176e+00 3.125435e+00 -7.333265e+00 2.450875e+00 -5.445359e+00 -2.378491e+00 1.981850e+00 -6.206809e+00 2.004420e+00 -4.825326e+00 -1.215544e+00 8.197406e-01 -4.807133e+00 1.620730e+00 -3.730787e+00 -3.056653e-01 -1.001856e-01 -3.266790e+00 1.485524e+00 -2.557458e+00 3.299488e-01 -4.364710e-01 -1.804840e+00 1.442548e+00 -2.042545e+00 5.886351e-01 9.381619e-01 -7.355329e-01 6.132349e-02 -8.983201e-01 1.200814e+00 3.167388e-01 9.094717e-02 1.297983e+00 1.225551e-01 1.120095e+00 6.781821e-01 6.748258e-01 1.349271e+00 5.827641e-01 1.266523e+00 9.472282e-01 9.924513e-01 1.392207e+00 8.725187e-01 1.372908e+00 1.115085e+00 1.186528e+00 1.403046e+00 1.031396e+00 1.464407e+00 1.195989e+00 1.301940e+00 1.409038e+00 1.090058e+00 1.506136e+00 1.110161e+00 1.172254e+00 1.399182e+00 1.013200e+00 1.335917e+00 1.123666e+00 1.222787e+00 1.492010e+00 1.175706e+00 1.492483e+00 1.339703e+00 1.367905e+00 1.481500e+00 1.253297e+00 1.536237e+00 1.313700e+00 1.419965e+00 1.438032e+00 1.303641e+00 1.555875e+00 1.276672e+00 1.467047e+00 1.400515e+00 1.344445e+00 1.526032e+00 1.248209e+00 1.515397e+00 1.355537e+00 1.382805e+00 1.479881e+00 1.204309e+00 1.533026e+00 1.198869e+00 1.215948e+00 1.383113e+00 1.066036e+00 1.407834e+00 1.150899e+00 1.234131e+00 1.505511e+00 1.190040e+00 1.509390e+00 1.338145e+00 1.369911e+00 1.475577e+00 1.255282e+00 1.539082e+00 1.286885e+00 1.408270e+00 1.424229e+00 1.283195e+00 1.543727e+00 1.238215e+00 1.439016e+00 1.383969e+00 1.295877e+00 1.508415e+00 1.202401e+00 1.465862e+00 1.337485e+00 1.309121e+00 1.464152e+00 1.147269e+00 1.467301e+00 1.186002e+00 1.130122e+00 1.353488e+00 9.898142e-01 1.374673e+00 1.118886e+00 1.123059e+00 1.515910e+00 1.094850e+00 1.485721e+00 1.321382e+00 1.266245e+00 1.509374e+00 1.172201e+00 1.554161e+00 1.287473e+00 1.324333e+00 1.484903e+00 1.222409e+00 1.580163e+00 1.258971e+00 1.385426e+00 1.451388e+00 1.271216e+00 1.557403e+00 1.231009e+00 1.439752e+00 1.391198e+00 1.303256e+00 1.506738e+00 1.188075e+00 1.462590e+00 1.303083e+00 1.291710e+00 1.431668e+00 1.129379e+00 1.457346e+00 1.210731e+00 1.260500e+00 1.372847e+00 1.097957e+00 1.464842e+00 1.153243e+00 1.254235e+00 1.357634e+00 1.116496e+00 1.493679e+00 1.131878e+00 1.296997e+00 1.354116e+00 1.126773e+00 1.507767e+00 1.079761e+00 1.298201e+00 1.340755e+00 1.155104e+00 1.543731e+00 1.088170e+00 1.281814e+00 1.306167e+00 1.619382e+00 2.619613e+00 1.880572e+00 6.139190e-01 1.176902e-01 1.590582e-02 -2.290340e-03 
-2.243691e-03 -3.179764e-02 -2.484921e-01 -1.542681e+00 -8.608346e+00 -2.202391e+01 -1.416575e+01 -3.422217e+00 -8.504951e+00 2.702676e-01 -1.357252e+00 8.530310e+00 2.843352e+01 -3.792324e+00 -3.390316e+00 2.014475e+00 8.829809e+00 5.192317e+00 5.242143e+00 -7.491895e+00 -4.753889e+00 3.735004e+01 1.691985e+00 1.769688e+01 -1.902673e+01 2.741732e+00 2.232150e+00 -1.735752e+01 8.330197e+00 -1.876326e+01 2.736411e+00 -6.792336e+00 -1.521817e+01 6.691175e+00 -1.762936e+01 2.542032e+00 -1.145410e+01 -1.177999e+01 4.830415e+00 -1.628266e+01 2.684119e+00 -1.250507e+01 -7.890646e+00 3.194045e+00 -1.445213e+01 2.281121e+00 -1.251225e+01 -5.248012e+00 6.834257e-01 -1.289004e+01 1.371761e+00 -1.176961e+01 -3.311959e+00 -1.985001e+00 -1.091689e+01 6.289722e-01 -1.048093e+01 -1.822465e+00 -4.707905e+00 -8.774001e+00 9.934563e-02 -1.027025e+01 -8.942070e-01 -5.166556e+00 -7.679518e+00 -2.267540e+00 -9.412988e+00 -8.090627e-01 -7.345099e+00 -5.756563e+00 -1.170406e+00 -8.310456e+00 -1.413365e+00 -7.347443e+00 -4.592949e+00 -2.115780e+00 -7.551480e+00 -1.909746e+00 -6.959324e+00 -3.943299e+00 -3.200133e+00 -6.692605e+00 -2.427849e+00 -6.304956e+00 -3.539962e+00 -4.088442e+00 -5.724948e+00 -2.856106e+00 -5.671349e+00 -3.443194e+00 -4.666301e+00 -4.913243e+00 -3.380697e+00 -5.600700e+00 -3.559641e+00 -4.235519e+00 -4.946443e+00 -4.945131e+00 -4.890936e+00 -3.517796e+00 -4.693565e+00 -3.922477e+00 -4.024287e+00 -4.276589e+00 -3.737953e+00 -4.405107e+00 -3.598868e+00 -4.167375e+00 -3.967831e+00 -3.829840e+00 -4.235778e+00 -3.564598e+00 -4.332273e+00 -3.766862e+00 -3.932733e+00 -4.093493e+00 -3.592301e+00 -4.354258e+00 -3.567183e+00 -4.045104e+00 -4.005863e+00 -3.681566e+00 -4.398131e+00 -3.554417e+00 -4.298318e+00 -4.090932e+00 -3.791913e+00 -4.658132e+00 -4.344029e+00 -4.732746e+00 -3.856028e+00 -4.042446e+00 -4.353048e+00 -3.527123e+00 -4.388687e+00 -3.700844e+00 -3.942933e+00 -4.104897e+00 -3.473840e+00 -4.363114e+00 -3.588197e+00 -3.994818e+00 -4.012984e+00 -3.584503e+00 -4.400071e+00 -3.507132e+00 -4.078507e+00 -3.942463e+00 -3.647019e+00 -4.342625e+00 -3.422427e+00 -4.164269e+00 -3.893839e+00 -3.744807e+00 -4.355114e+00 -3.489676e+00 -4.388828e+00 -3.986298e+00 -3.857599e+00 -4.658676e+00 -4.340860e+00 -4.733115e+00 -3.775970e+00 -4.124840e+00 -4.280547e+00 -3.570306e+00 -4.421618e+00 -3.626706e+00 -4.014448e+00 -4.024315e+00 -3.562354e+00 -4.367655e+00 -3.506219e+00 -4.078813e+00 -3.939198e+00 -3.678778e+00 -4.371326e+00 -3.451786e+00 -4.169505e+00 -3.874707e+00 -3.738571e+00 -4.287666e+00 -3.408890e+00 -4.252589e+00 -3.822940e+00 -3.845388e+00 -4.279109e+00 -3.519060e+00 -4.468330e+00 -3.896919e+00 -3.975955e+00 -4.604807e+00 -4.405067e+00 -4.747125e+00 -3.703513e+00 -4.265224e+00 -4.165774e+00 -3.698746e+00 -4.435249e+00 -3.530059e+00 -4.161157e+00 -3.911807e+00 -3.714681e+00 -4.346340e+00 -3.426036e+00 -4.236113e+00 -3.835163e+00 -3.803004e+00 -4.305290e+00 -3.398736e+00 -4.303952e+00 -3.774385e+00 -3.851906e+00 -4.225148e+00 -3.400573e+00 -4.357405e+00 -3.728523e+00 -3.921573e+00 -4.168417e+00 -3.464972e+00 -4.401433e+00 -3.684929e+00 -3.998423e+00 -4.086594e+00 -3.572956e+00 -4.410770e+00 -3.611219e+00 -4.088764e+00 -3.984121e+00 -3.698244e+00 -4.363412e+00 -3.502758e+00 -4.186422e+00 -3.881449e+00 -3.804821e+00 -4.319863e+00 -3.471479e+00 -4.339911e+00 -3.857432e+00 -3.917391e+00 -4.264099e+00 -3.464088e+00 -4.355509e+00 -3.718631e+00 -3.975354e+00 -4.118981e+00 -3.312146e+00 -4.132633e+00 -3.727126e+00 -4.912628e+00 -4.225097e+00 -7.438870e-01 1.201069e-01 4.351284e-02 9.314369e-03 2.289976e-03 
-2.254672e-03 -1.033162e-02 -7.329941e-02 -4.828595e-01 -2.470326e+00 -4.832029e+00 -5.887355e-01 1.997831e+00 9.771115e-01 3.436592e+00 4.046273e+00 4.205745e+00 -2.539260e+01 -2.411054e+01 -1.456291e+01 -2.460041e+01 -1.764371e+01 -1.981882e+01 -2.402484e+01 -1.056993e+01 -3.093456e+01 -2.930009e+01 7.599138e+00 6.257983e+00 -9.755822e-01 2.593193e+00 2.848642e+00 -9.868280e-01 2.446196e+00 -1.862948e+00 1.409287e+00 -4.335223e-01 -1.908499e+00 1.280467e+00 -2.347290e+00 4.446808e-01 -2.113210e+00 -2.024787e+00 3.273655e-01 -2.737295e+00 4.121248e-03 -2.469047e+00 -1.647964e+00 -1.305560e-01 -2.646938e+00 -3.888078e-01 -2.646059e+00 -1.482651e+00 -8.445480e-01 -2.713295e+00 -8.569971e-01 -2.796475e+00 -1.493447e+00 -1.604452e+00 -2.752500e+00 -1.340571e+00 -2.930740e+00 -1.663977e+00 -2.402366e+00 -2.785817e+00 -1.899729e+00 -3.286323e+00 -1.758273e+00 -2.709832e+00 -3.232054e+00 -2.681996e+00 -3.124775e+00 -2.076310e+00 -3.201476e+00 -2.628374e+00 -2.347774e+00 -3.029970e+00 -2.256084e+00 -3.115408e+00 -2.470282e+00 -2.542286e+00 -2.931847e+00 -2.414432e+00 -3.073562e+00 -2.478318e+00 -2.807509e+00 -2.882966e+00 -2.605359e+00 -3.050065e+00 -2.562857e+00 -3.032226e+00 -2.829879e+00 -2.830453e+00 -3.078257e+00 -2.743393e+00 -3.269237e+00 -2.856085e+00 -3.160539e+00 -3.228434e+00 -2.904056e+00 -3.513688e+00 -3.321881e+00 -3.652806e+00 -3.194642e+00 -3.130339e+00 -3.568935e+00 -2.941607e+00 -3.513995e+00 -3.192271e+00 -3.239523e+00 -3.508425e+00 -2.952580e+00 -3.625121e+00 -3.167829e+00 -3.354712e+00 -3.497186e+00 -3.054688e+00 -3.745626e+00 -3.144656e+00 -3.462757e+00 -3.465900e+00 -3.153445e+00 -3.765320e+00 -3.072708e+00 -3.572200e+00 -3.438039e+00 -3.258485e+00 -3.792644e+00 -3.085565e+00 -3.761427e+00 -3.462998e+00 -3.272352e+00 -3.958233e+00 -3.603198e+00 -3.993145e+00 -3.302241e+00 -3.469962e+00 -3.795462e+00 -3.103816e+00 -3.816918e+00 -3.288576e+00 -3.462767e+00 -3.618989e+00 -3.096000e+00 -3.819380e+00 -3.202462e+00 -3.517940e+00 -3.538667e+00 -3.190370e+00 -3.849949e+00 -3.129100e+00 -3.592348e+00 -3.476008e+00 -3.251968e+00 -3.802651e+00 -3.059989e+00 -3.669612e+00 -3.425629e+00 -3.332250e+00 -3.789452e+00 -3.086394e+00 -3.831776e+00 -3.427588e+00 -3.333672e+00 -3.951291e+00 -3.621212e+00 -4.021321e+00 -3.258987e+00 -3.529536e+00 -3.751198e+00 -3.139093e+00 -3.846566e+00 -3.237679e+00 -3.511373e+00 -3.561667e+00 -3.157874e+00 -3.824726e+00 -3.135160e+00 -3.569728e+00 -3.483769e+00 -3.246960e+00 -3.826454e+00 -3.075298e+00 -3.642895e+00 -3.424652e+00 -3.295380e+00 -3.758965e+00 -3.031949e+00 -3.710725e+00 -3.371977e+00 -3.371410e+00 -3.732232e+00 -3.083720e+00 -3.860651e+00 -3.362861e+00 -3.381220e+00 -3.905951e+00 -3.633885e+00 -4.016594e+00 -3.198800e+00 -3.581734e+00 -3.678678e+00 -3.190942e+00 -3.848075e+00 -3.166576e+00 -3.569942e+00 -3.499304e+00 -3.231226e+00 -3.815316e+00 -3.081147e+00 -3.643774e+00 -3.437210e+00 -3.311842e+00 -3.794799e+00 -3.049982e+00 -3.716443e+00 -3.383467e+00 -3.367717e+00 -3.731351e+00 -3.040542e+00 -3.776077e+00 -3.327568e+00 -3.427880e+00 -3.669921e+00 -3.066845e+00 -3.816554e+00 -3.262240e+00 -3.475919e+00 -3.584614e+00 -3.118309e+00 -3.822768e+00 -3.175980e+00 -3.525492e+00 -3.493815e+00 -3.194390e+00 -3.795104e+00 -3.080619e+00 -3.590885e+00 -3.420710e+00 -3.275516e+00 -3.773445e+00 -3.048031e+00 -3.705410e+00 -3.396632e+00 -3.351781e+00 -3.732259e+00 -3.019446e+00 -3.717983e+00 -3.296795e+00 -3.398582e+00 -3.641439e+00 -2.913095e+00 -3.548196e+00 -3.275809e+00 -4.209551e+00 -4.082479e+00 -1.324450e+00 -1.640164e-01 -9.942265e-03 2.573763e-04 -9.154948e-04 
7.089121e-04 -2.035635e-03 -1.739214e-02 -1.179353e-01 -5.143839e-01 -7.367547e-01 1.425064e-01 6.825724e-01 5.951185e-01 1.076770e+00 9.967960e-01 -1.746576e+00 -2.014329e+01 -9.185118e+00 -2.981559e+00 -2.988840e+00 -2.973793e+00 -2.979241e+00 -2.984572e+00 -2.965147e+00 -6.143199e+00 -2.833840e+01 -3.665560e+00 -1.593337e-02 5.235426e-01 7.997229e-01 6.405925e-01 -3.636601e-02 4.543465e-01 1.302693e-01 4.570765e-01 8.889323e-02 -2.940974e-01 9.477611e-02 -1.541577e-01 2.012534e-01 -1.465956e-01 -2.958248e-01 -1.136162e-01 -3.337736e-01 -2.952462e-03 -2.937317e-01 -2.818064e-01 -2.426154e-01 -4.267662e-01 -1.639945e-01 -3.964740e-01 -2.922058e-01 -3.577779e-01 -4.935251e-01 -3.008477e-01 -4.835028e-01 -3.362699e-01 -4.665831e-01 -5.361437e-01 -4.137576e-01 -5.487572e-01 -4.024941e-01 -5.633383e-01 -5.601178e-01 -5.221181e-01 -6.202964e-01 -4.343142e-01 -5.496030e-01 -5.387725e-01 -5.818909e-01 -6.114340e-01 -5.301847e-01 -6.779106e-01 -5.801787e-01 -6.289423e-01 -6.451857e-01 -5.919460e-01 -6.881802e-01 -5.882303e-01 -6.749923e-01 -6.591477e-01 -6.398323e-01 -7.059856e-01 -6.167906e-01 -7.227246e-01 -6.728144e-01 -6.847756e-01 -7.218217e-01 -6.535592e-01 -7.620473e-01 -6.809170e-01 -7.274614e-01 -7.370666e-01 -6.937831e-01 -7.937160e-01 -6.934238e-01 -7.826432e-01 -7.577443e-01 -6.980592e-01 -7.728673e-01 -6.816540e-01 -7.796166e-01 -7.333011e-01 -7.585269e-01 -8.351166e-01 -7.159699e-01 -8.296296e-01 -7.605735e-01 -7.765686e-01 -8.181510e-01 -7.186445e-01 -8.454766e-01 -7.565931e-01 -7.929655e-01 -8.124701e-01 -7.354782e-01 -8.589927e-01 -7.491474e-01 -8.085793e-01 -8.049389e-01 -7.544991e-01 -8.615463e-01 -7.362076e-01 -8.250968e-01 -7.985012e-01 -7.705425e-01 -8.605576e-01 -7.363556e-01 -8.558793e-01 -7.955473e-01 -7.505662e-01 -8.235579e-01 -7.228753e-01 -8.229052e-01 -7.513098e-01 -8.005211e-01 -8.595013e-01 -7.409688e-01 -8.645791e-01 -7.727033e-01 -8.041095e-01 -8.278600e-01 -7.403597e-01 -8.672721e-01 -7.589892e-01 -8.132418e-01 -8.141519e-01 -7.565239e-01 -8.693520e-01 -7.437445e-01 -8.254617e-01 -8.035730e-01 -7.695284e-01 -8.630804e-01 -7.322977e-01 -8.387510e-01 -7.949482e-01 -7.816238e-01 -8.569592e-01 -7.357481e-01 -8.661180e-01 -7.887074e-01 -7.607378e-01 -8.212986e-01 -7.249882e-01 -8.263267e-01 -7.438276e-01 -8.100545e-01 -8.512786e-01 -7.474721e-01 -8.695968e-01 -7.639014e-01 -8.117228e-01 -8.180409e-01 -7.520461e-01 -8.681319e-01 -7.468949e-01 -8.217754e-01 -8.053969e-01 -7.668141e-01 -8.650607e-01 -7.342626e-01 -8.340851e-01 -7.956011e-01 -7.772004e-01 -8.553402e-01 -7.274941e-01 -8.461357e-01 -7.867234e-01 -7.879352e-01 -8.470126e-01 -7.354957e-01 -8.708741e-01 -7.782820e-01 -7.690488e-01 -8.139166e-01 -7.256097e-01 -8.242702e-01 -7.342287e-01 -8.175193e-01 -8.390014e-01 -7.562011e-01 -8.687677e-01 -7.510808e-01 -8.186622e-01 -8.066667e-01 -7.627821e-01 -8.629126e-01 -7.354068e-01 -8.300344e-01 -7.956878e-01 -7.753077e-01 -8.561970e-01 -7.284126e-01 -8.427546e-01 -7.869356e-01 -7.855769e-01 -8.454748e-01 -7.270076e-01 -8.534335e-01 -7.773996e-01 -7.952638e-01 -8.335993e-01 -7.318477e-01 -8.616174e-01 -7.665368e-01 -8.041087e-01 -8.198491e-01 -7.424163e-01 -8.647442e-01 -7.523875e-01 -8.132937e-01 -8.058792e-01 -7.575445e-01 -8.611604e-01 -7.358704e-01 -8.246845e-01 -7.943506e-01 -7.703494e-01 -8.539492e-01 -7.265398e-01 -8.373179e-01 -7.845274e-01 -7.784699e-01 -8.401660e-01 -7.193227e-01 -8.404672e-01 -7.680660e-01 -7.832909e-01 -8.196761e-01 -6.947031e-01 -8.053230e-01 -7.691047e-01 -9.347850e-01 -8.798407e-01 -3.386372e-01 -6.472871e-02 -8.025339e-03 -2.670432e-04 5.368975e-04 
4.888660e-04 -4.840238e-04 3.311574e-04 -1.628687e-02 -6.588734e-02 -6.582756e-02 2.333055e-02 1.366881e-01 1.273190e-01 2.032273e-01 2.342543e-02 -1.600766e+00 -9.988154e+00 -9.680573e+00 -2.679644e+00 -2.664350e+00 -2.664292e+00 -2.664295e+00 -2.664314e+00 -2.670248e+00 -8.211444e+00 -1.140189e+01 -3.186271e+00 -6.693463e-01 1.134038e-01 2.033721e-01 7.700289e-02 -6.018112e-02 4.961928e-02 1.144616e-01 1.387272e-01 4.644714e-02 -1.057385e-01 -4.123682e-02 9.008881e-03 7.379617e-02 2.973403e-02 -7.615474e-02 -6.972839e-02 -4.483235e-02 1.728014e-02 -1.393162e-03 -5.927348e-02 -8.372039e-02 -7.633846e-02 -2.735014e-02 -3.256845e-02 -5.241185e-02 -8.818885e-02 -9.234388e-02 -5.982613e-02 -6.050377e-02 -5.736713e-02 -9.254945e-02 -9.980532e-02 -8.266684e-02 -8.129135e-02 -6.863196e-02 -9.644329e-02 -1.014055e-01 -9.950850e-02 -9.173976e-02 -1.330874e-02 4.430429e-01 9.983639e-01 6.072411e-01 2.076629e-02 -7.929601e-02 -1.097543e-01 -1.035502e-01 -1.164489e-01 -1.116938e-01 -1.068912e-01 -1.156702e-01 -1.054662e-01 -1.216785e-01 -1.152090e-01 -1.147701e-01 -1.202392e-01 -1.097520e-01 -1.265992e-01 -1.173846e-01 -1.209208e-01 -1.234209e-01 -1.150758e-01 -1.306587e-01 -1.182241e-01 -1.257552e-01 -1.252946e-01 -1.199927e-01 -1.331316e-01 -1.187710e-01 -1.307761e-01 -1.202287e-01 -5.634441e-02 3.818524e-01 8.932661e-01 5.252737e-01 -8.418840e-03 -1.124342e-01 -1.357286e-01 -1.213429e-01 -1.362644e-01 -1.270334e-01 -1.290822e-01 -1.340375e-01 -1.211296e-01 -1.375288e-01 -1.260818e-01 -1.305487e-01 -1.327856e-01 -1.230096e-01 -1.386918e-01 -1.246846e-01 -1.320704e-01 -1.315283e-01 -1.254293e-01 -1.389109e-01 -1.227990e-01 -1.337717e-01 -1.304729e-01 -1.271489e-01 -1.381751e-01 -1.222472e-01 -1.364203e-01 -1.227524e-01 -6.100818e-02 3.764281e-01 8.836388e-01 5.174389e-01 -1.023601e-02 -1.159281e-01 -1.369433e-01 -1.235248e-01 -1.390211e-01 -1.275028e-01 -1.312902e-01 -1.340735e-01 -1.232483e-01 -1.392500e-01 -1.256919e-01 -1.322393e-01 -1.323121e-01 -1.253057e-01 -1.393792e-01 -1.235287e-01 -1.336064e-01 -1.309860e-01 -1.270694e-01 -1.386915e-01 -1.220224e-01 -1.351764e-01 -1.298641e-01 -1.283539e-01 -1.374607e-01 -1.220402e-01 -1.375541e-01 -1.218028e-01 -6.223616e-02 3.767291e-01 8.832993e-01 5.170899e-01 -9.285505e-03 -1.170242e-01 -1.358515e-01 -1.244112e-01 -1.397273e-01 -1.263885e-01 -1.321512e-01 -1.328395e-01 -1.248409e-01 -1.394487e-01 -1.241077e-01 -1.332409e-01 -1.312858e-01 -1.266801e-01 -1.388891e-01 -1.223028e-01 -1.346944e-01 -1.300942e-01 -1.280801e-01 -1.377462e-01 -1.214308e-01 -1.362008e-01 -1.289634e-01 -1.291534e-01 -1.362487e-01 -1.220754e-01 -1.382721e-01 -1.206020e-01 -6.336137e-02 3.778012e-01 8.839136e-01 5.179286e-01 -8.084841e-03 -1.178724e-01 -1.343786e-01 -1.256095e-01 -1.397287e-01 -1.247352e-01 -1.328152e-01 -1.313959e-01 -1.261150e-01 -1.386766e-01 -1.224728e-01 -1.339803e-01 -1.299762e-01 -1.275168e-01 -1.375599e-01 -1.213629e-01 -1.354279e-01 -1.288215e-01 -1.286845e-01 -1.360755e-01 -1.211141e-01 -1.367885e-01 -1.276470e-01 -1.297419e-01 -1.344075e-01 -1.217022e-01 -1.378803e-01 -1.262547e-01 -1.307210e-01 -1.326037e-01 -1.231176e-01 -1.384586e-01 -1.244825e-01 -1.318159e-01 -1.309148e-01 -1.251674e-01 -1.381189e-01 -1.222637e-01 -1.330711e-01 -1.294389e-01 -1.265688e-01 -1.368669e-01 -1.207237e-01 -1.341935e-01 -1.278733e-01 -1.272935e-01 -1.347429e-01 -1.195913e-01 -1.345438e-01 -1.256915e-01 -1.272688e-01 -1.313900e-01 -1.156932e-01 -1.295686e-01 -1.262023e-01 -1.468734e-01 -1.373012e-01 -6.020002e-02 -1.473304e-02 -2.753597e-03 -4.702891e-04 -4.999224e-04 