# vtk DataFile Version 2.0
Comment goes here
ASCII

DATASET STRUCTURED_POINTS
FIELD FieldData 1
TIME 1 1 double
0.01900000
DIMENSIONS    256   32   1

ORIGIN    0.000   0.000   0.000
SPACING   0.0078125 0.0078125   1.000

POINT_DATA   8192
SCALARS Omega double
LOOKUP_TABLE default

4.830247e-10 -2.699833e-10 3.157816e-09 -8.394322e-11 -7.659083e-09 -9.129688e-08 -2.547434e-07 -2.750974e-07 -7.859892e-08 -5.073011e-08 -3.159722e-07 -8.119795e-07 -1.004927e-06 -2.307886e-06 -9.384191e-06 -6.762497e-06 -8.561462e-06 -1.166289e-05 -1.009684e-05 -1.851557e-05 -1.696025e-05 -1.472548e-05 -1.565082e-05 -8.939760e-06 -1.322907e-05 -1.106417e-05 -9.234539e-06 -7.932712e-06 -8.259192e-06 -1.368792e-05 -2.157021e-05 -2.691134e-05 -2.325815e-05 -3.464673e-05 -4.122170e-05 -5.463927e-05 -7.260197e-05 -5.536490e-05 -6.985000e-05 -7.526761e-05 -1.054221e-04 -1.426703e-04 -1.170464e-04 -1.556713e-04 -1.470873e-04 -1.914092e-04 -2.539630e-04 -2.192991e-04 -2.976875e-04 -2.588628e-04 -3.511794e-04 -4.459391e-04 -4.023915e-04 -5.560748e-04 -4.278747e-04 -5.196656e-04 -6.422229e-04 -5.727174e-04 -7.022358e-04 4.460744e-05 8.341912e-04 -1.424364e-03 -2.336427e-03 6.304248e-03 8.554964e-03 6.743541e-05 -1.493099e-03 9.878816e-04 9.025320e-04 -4.764258e-06 -6.999419e-04 -5.144839e-04 -5.289140e-04 -5.475569e-04 -4.383022e-04 -6.040293e-04 -4.495693e-04 -4.575605e-04 -4.791983e-04 -3.687778e-04 -5.119382e-04 -3.835721e-04 -4.617517e-04 -4.910867e-04 -4.266974e-04 -6.235775e-04 -4.431806e-04 -5.545062e-04 -5.888114e-04 -5.559177e-04 -7.357811e-04 1.007275e-04 1.097714e-03 -3.334857e-04 -4.022872e-03 3.151654e-03 1.184005e-02 2.571715e-03 -3.775161e-03 -6.821538e-05 1.041452e-03 1.227509e-04 -6.903433e-04 -5.573210e-04 -5.636718e-04 -5.456393e-04 -4.393539e-04 -5.977421e-04 -4.355748e-04 -4.691115e-04 -4.664417e-04 -3.735048e-04 -5.139009e-04 -3.735151e-04 -4.728030e-04 -4.710872e-04 -4.301431e-04 -6.154081e-04 -4.202644e-04 -5.675816e-04 -5.607148e-04 -5.464722e-04 -6.994353e-04 1.666960e-04 1.074251e-03 -2.892019e-04 -4.333729e-03 3.126483e-03 1.272213e-02 2.654886e-03 -4.392785e-03 -1.850443e-04 1.094897e-03 8.973046e-05 -7.018730e-04 -5.607466e-04 -5.856323e-04 -5.448811e-04 -4.541393e-04 -6.024155e-04 -4.258706e-04 -4.845654e-04 -4.588807e-04 -3.872139e-04 -5.147119e-04 -3.619968e-04 -4.879944e-04 -4.598595e-04 -4.426127e-04 -6.100044e-04 -4.069706e-04 -5.865873e-04 -5.469597e-04 -5.579456e-04 -6.794875e-04 2.248360e-04 1.005102e-03 -4.337037e-04 -4.312493e-03 3.637960e-03 1.288883e-02 2.082533e-03 -4.640127e-03 1.110843e-06 1.197866e-03 3.637471e-05 -7.158643e-04 -5.550788e-04 -5.943785e-04 -5.306676e-04 -4.699006e-04 -5.981368e-04 -4.121300e-04 -4.956159e-04 -4.462690e-04 -3.965804e-04 -5.053331e-04 -3.500961e-04 -4.938916e-04 -4.430212e-04 -4.489186e-04 -5.910450e-04 -3.938565e-04 -5.930967e-04 -5.260481e-04 -5.582184e-04 -6.413274e-04 2.630564e-04 8.809992e-04 -5.870123e-04 -3.898777e-03 4.210869e-03 1.237467e-02 1.519913e-03 -4.409366e-03 2.667302e-04 1.279863e-03 2.551086e-06 -6.457389e-04 -4.869339e-04 -5.220388e-04 -4.313406e-04 -3.941397e-04 -4.482515e-04 -2.996993e-04 -3.462687e-04 -2.783288e-04 -2.331299e-04 -2.453235e-04 -1.596024e-04 -1.850953e-04 -1.406307e-04 -1.293263e-04 -1.314071e-04 -8.618310e-05 -1.020611e-04 -7.337651e-05 -6.227244e-05 -5.903272e-05 -4.211061e-05 -5.090503e-05 -3.504201e-05 -3.273490e-05 -2.966032e-05 -1.814565e-05 -1.748324e-05 -1.127457e-05 -8.538561e-06 -6.452769e-06 -7.644208e-06 -8.247798e-06 -6.664734e-06 -1.071661e-05 -8.853328e-06 -9.049064e-06 -1.075427e-05 -6.737440e-06 -8.333571e-06 -6.529466e-06 -4.775408e-06 -5.070704e-06 -2.905732e-06 -3.103247e-06 -2.255188e-06 -1.683499e-06 -1.610418e-06 -1.041679e-06 -1.164962e-06 -9.025090e-07 -1.180352e-06 -1.075953e-06 -2.095769e-07 1.014187e-08 -8.068260e-10 -1.817998e-09 -1.634084e-09 
-3.309240e-04 -8.210237e-04 -4.533148e-03 -4.318548e-02 -2.822775e-01 -1.029624e+00 -1.684203e+00 -1.355050e+00 -1.562230e+00 -1.642647e+00 -2.189492e+00 -4.145335e+00 -4.746361e+00 -1.222711e+01 -1.548458e+01 -1.073321e+01 -1.516275e+01 -1.287068e+01 -1.435975e+01 -1.685607e+01 -7.618106e+00 -7.546316e+00 -6.114724e+00 -1.043114e+00 -1.747559e+00 -9.912255e-01 -1.092338e+00 -1.425617e+00 -4.484182e-01 -1.205703e+00 -4.630391e-01 -6.415516e-01 -7.911707e-01 -1.265182e-01 -7.808765e-01 -1.498776e-01 -4.391062e-01 -4.228947e-01 8.775877e-02 -4.656558e-01 7.793179e-02 -2.345327e-01 -1.357989e-01 2.462764e-01 -2.093466e-01 2.607471e-01 -3.361392e-02 8.563741e-02 3.417903e-01 -2.303836e-02 3.655477e-01 9.433652e-02 2.452366e-01 4.075508e-01 1.280308e-01 4.794886e-01 2.378539e-01 3.958409e-01 4.805815e-01 2.710696e-01 6.024954e-01 3.450078e-01 5.001177e-01 6.442434e-01 5.044943e-01 6.775382e-01 4.194663e-01 6.165935e-01 6.108204e-01 4.614096e-01 7.339204e-01 5.048414e-01 6.643324e-01 6.438317e-01 5.328656e-01 7.899655e-01 5.594355e-01 7.249415e-01 6.857030e-01 5.997559e-01 8.295982e-01 5.965091e-01 7.675027e-01 7.052586e-01 6.536876e-01 8.408249e-01 6.113906e-01 8.041092e-01 7.136612e-01 7.031702e-01 8.471408e-01 6.309111e-01 8.661205e-01 7.313207e-01 7.353476e-01 9.262306e-01 7.756117e-01 9.313673e-01 7.258100e-01 8.002631e-01 8.880555e-01 6.791720e-01 9.219506e-01 7.461689e-01 8.199245e-01 8.675744e-01 6.982825e-01 9.433130e-01 7.428043e-01 8.453417e-01 8.554640e-01 7.267254e-01 9.523658e-01 7.296341e-01 8.655059e-01 8.350016e-01 7.543779e-01 9.426461e-01 7.075549e-01 8.862042e-01 8.152599e-01 7.766701e-01 9.304597e-01 7.045086e-01 9.292193e-01 8.100053e-01 7.688806e-01 9.726704e-01 8.480686e-01 9.732452e-01 7.591012e-01 8.278637e-01 9.236854e-01 7.135099e-01 9.409478e-01 7.731555e-01 8.356819e-01 8.821481e-01 7.255962e-01 9.540142e-01 7.570105e-01 8.609943e-01 8.641699e-01 7.581803e-01 9.641234e-01 7.384632e-01 8.919932e-01 8.504083e-01 7.872984e-01 9.623257e-01 7.263290e-01 9.238005e-01 8.392859e-01 8.150598e-01 9.575812e-01 7.335796e-01 9.753083e-01 8.374853e-01 8.151961e-01 1.003582e+00 8.800745e-01 1.022144e+00 7.866954e-01 8.757433e-01 9.518151e-01 7.542283e-01 9.891254e-01 7.936303e-01 8.827279e-01 9.027582e-01 7.717757e-01 9.927511e-01 7.662758e-01 9.067038e-01 8.789593e-01 7.983328e-01 9.884903e-01 7.448542e-01 9.318694e-01 8.587053e-01 8.187386e-01 9.733022e-01 7.337708e-01 9.553606e-01 8.404869e-01 8.399991e-01 9.576027e-01 7.434188e-01 9.973195e-01 8.300423e-01 8.378620e-01 9.993068e-01 8.907721e-01 1.032308e+00 7.751024e-01 8.955660e-01 9.369757e-01 7.711979e-01 9.947425e-01 7.748293e-01 8.991974e-01 8.853032e-01 7.898572e-01 9.891706e-01 7.479476e-01 9.234404e-01 8.633776e-01 8.115295e-01 9.778416e-01 7.338890e-01 9.462646e-01 8.439484e-01 8.300384e-01 9.595757e-01 7.297647e-01 9.656877e-01 8.244075e-01 8.480779e-01 9.378758e-01 7.348103e-01 9.774494e-01 8.008236e-01 8.633923e-01 9.094207e-01 7.498148e-01 9.835655e-01 7.747938e-01 8.854617e-01 8.849586e-01 7.767118e-01 9.846577e-01 7.474622e-01 9.084325e-01 8.620945e-01 7.981885e-01 9.750719e-01 7.300016e-01 9.320765e-01 8.429074e-01 8.121607e-01 9.526818e-01 7.171530e-01 9.421846e-01 8.159701e-01 8.261710e-01 9.273640e-01 6.935861e-01 9.026042e-01 7.987964e-01 1.041865e+00 1.099533e+00 3.683411e-01 4.899383e-02 4.472273e-03 9.833531e-05 -2.814073e-04 
9.236359e-04 -2.442541e-04 -2.189249e-02 -2.857165e-01 -2.286441e+00 -7.411061e+00 -7.579654e+00 -4.414770e+00 -6.756782e+00 -4.267525e+00 -7.166930e+00 -1.133848e+01 -4.864366e+00 -2.535852e+01 -3.119839e+01 -1.295409e+01 -2.835253e+01 -2.093859e+01 -2.117104e+01 -3.556275e+01 -7.209559e+00 -1.272087e+01 -1.811703e+01 2.036846e-01 -9.132170e+00 -2.097999e+00 -2.869880e+00 -8.097585e+00 7.031067e-01 -7.468447e+00 -6.674999e-01 -3.171001e+00 -5.502204e+00 1.205307e+00 -5.869895e+00 2.985051e-01 -3.319593e+00 -3.502021e+00 1.405579e+00 -4.550773e+00 8.912182e-01 -2.949315e+00 -1.886434e+00 1.397543e+00 -3.359453e+00 1.307180e+00 -2.318603e+00 -6.314145e-01 1.206686e+00 -2.391012e+00 1.470304e+00 -1.775362e+00 2.405580e-01 9.286655e-01 -1.544549e+00 1.657721e+00 -1.114400e+00 9.167074e-01 6.703802e-01 -7.319809e-01 1.893291e+00 -8.594944e-01 1.219557e+00 1.386632e+00 3.070180e-01 1.383954e+00 -2.907930e-01 1.845154e+00 7.040845e-01 4.848281e-01 2.025583e+00 2.441022e-01 1.812747e+00 7.999705e-01 9.780843e-01 2.072201e+00 5.589246e-01 1.986430e+00 9.622218e-01 1.346162e+00 2.039006e+00 7.828286e-01 2.075878e+00 1.065385e+00 1.583964e+00 1.887767e+00 9.250257e-01 2.130063e+00 1.136285e+00 1.743168e+00 1.749367e+00 1.094008e+00 2.237727e+00 1.128002e+00 1.819536e+00 2.106940e+00 1.545339e+00 2.103461e+00 1.285750e+00 2.091536e+00 1.812103e+00 1.490138e+00 2.304112e+00 1.446530e+00 2.110172e+00 1.770475e+00 1.658564e+00 2.315506e+00 1.484594e+00 2.184845e+00 1.740949e+00 1.792375e+00 2.253732e+00 1.481781e+00 2.222273e+00 1.686206e+00 1.881553e+00 2.117614e+00 1.457265e+00 2.248268e+00 1.624382e+00 1.925376e+00 2.011075e+00 1.478066e+00 2.297737e+00 1.572172e+00 1.859535e+00 2.125053e+00 1.805917e+00 2.257299e+00 1.506217e+00 1.983340e+00 1.980703e+00 1.572466e+00 2.214197e+00 1.610512e+00 1.980618e+00 1.909453e+00 1.643271e+00 2.214370e+00 1.617582e+00 2.031270e+00 1.897405e+00 1.743983e+00 2.215247e+00 1.617415e+00 2.102765e+00 1.891749e+00 1.827929e+00 2.205897e+00 1.625636e+00 2.176957e+00 1.887688e+00 1.903096e+00 2.196999e+00 1.663297e+00 2.291051e+00 1.874689e+00 1.888749e+00 2.320486e+00 1.972646e+00 2.351137e+00 1.787756e+00 2.029469e+00 2.216844e+00 1.738422e+00 2.314069e+00 1.842614e+00 2.062914e+00 2.110116e+00 1.797773e+00 2.327968e+00 1.782381e+00 2.125749e+00 2.052172e+00 1.865257e+00 2.317466e+00 1.731552e+00 2.188006e+00 2.000451e+00 1.914455e+00 2.277319e+00 1.703489e+00 2.243925e+00 1.952466e+00 1.963571e+00 2.233778e+00 1.717433e+00 2.336096e+00 1.903996e+00 1.934742e+00 2.316463e+00 2.010967e+00 2.393106e+00 1.782997e+00 2.058445e+00 2.203462e+00 1.773043e+00 2.328285e+00 1.813094e+00 2.086162e+00 2.085638e+00 1.826686e+00 2.324580e+00 1.745265e+00 2.146337e+00 2.029665e+00 1.875517e+00 2.300483e+00 1.704166e+00 2.200883e+00 1.979622e+00 1.916271e+00 2.258046e+00 1.687403e+00 2.248188e+00 1.930920e+00 1.957731e+00 2.207748e+00 1.693461e+00 2.277357e+00 1.871183e+00 1.991638e+00 2.137767e+00 1.721801e+00 2.295291e+00 1.804541e+00 2.043168e+00 2.078649e+00 1.779938e+00 2.306902e+00 1.734259e+00 2.094766e+00 2.024048e+00 1.825660e+00 2.292753e+00 1.688308e+00 2.152291e+00 1.981656e+00 1.855283e+00 2.245670e+00 1.650765e+00 2.176876e+00 1.918452e+00 1.889095e+00 2.197163e+00 1.595484e+00 2.090727e+00 1.879366e+00 2.423249e+00 2.749107e+00 1.069028e+00 1.763881e-01 1.819135e-02 1.961501e-03 6.930738e-04 
-1.010769e-03 -4.622660e-03 -4.891920e-02 -5.755789e-01 -5.152587e+00 -1.642218e+01 -1.297477e+01 -5.178786e+00 -1.102853e+01 -3.096299e+00 -7.858819e+00 -8.444106e+00 1.325832e+01 -4.070997e-01 1.436243e+00 2.445791e+01 6.307933e+00 1.295768e+01 1.994300e+01 -8.360136e+00 2.164486e+01 9.537851e+00 -1.834087e+01 7.496577e+00 -1.715448e+01 -8.035952e-01 -1.403499e+00 -1.587029e+01 4.958443e+00 -1.535799e+01 5.331255e-01 -5.563722e+00 -1.193939e+01 4.523298e+00 -1.307567e+01 1.674636e+00 -7.366985e+00 -8.120018e+00 3.808703e+00 -1.099380e+01 2.135579e+00 -7.570162e+00 -4.979127e+00 2.756936e+00 -8.961899e+00 2.284105e+00 -6.942032e+00 -2.515470e+00 1.575743e+00 -7.138764e+00 2.191898e+00 -6.028522e+00 -8.153545e-01 3.025528e-01 -5.488985e+00 2.040862e+00 -4.920466e+00 2.940305e-01 -1.006751e+00 -3.928793e+00 1.964692e+00 -4.821460e+00 5.567721e-01 7.860472e-02 -2.297596e+00 -9.639131e-02 -3.560736e+00 1.713062e+00 -1.768581e+00 -1.427785e+00 1.505179e+00 -2.466021e+00 1.308046e+00 -1.692437e+00 -3.863998e-01 1.266907e+00 -1.853781e+00 1.433899e+00 -1.466891e+00 3.026392e-01 8.982059e-01 -1.398550e+00 1.434268e+00 -1.256637e+00 6.907262e-01 3.779715e-01 -1.036659e+00 1.373945e+00 -1.068131e+00 8.665398e-01 -7.109818e-02 -6.328766e-01 1.303070e+00 -1.194519e+00 8.648139e-01 4.757548e-01 -1.947437e-01 4.506557e-01 -7.061323e-01 1.274434e+00 -1.513486e-01 2.496763e-01 1.118900e+00 -3.251379e-01 1.199872e+00 -1.460454e-01 6.305144e-01 1.010310e+00 -1.826663e-01 1.258110e+00 -1.474574e-01 8.524117e-01 7.709851e-01 -9.474243e-02 1.247974e+00 -1.616605e-01 9.534683e-01 4.443018e-01 -9.741827e-03 1.205861e+00 -1.997281e-01 9.539115e-01 2.219933e-01 8.414290e-02 1.088477e+00 -3.129082e-01 8.046131e-01 2.932460e-01 1.412089e-01 6.865400e-01 -1.781715e-01 8.061736e-01 1.936561e-01 3.211859e-01 7.852837e-01 6.078329e-02 7.591933e-01 2.534006e-01 4.570454e-01 7.047439e-01 1.846868e-01 7.475999e-01 3.311677e-01 5.470750e-01 6.383538e-01 2.969073e-01 7.584270e-01 3.984449e-01 6.090058e-01 6.183757e-01 3.939902e-01 7.708738e-01 4.524315e-01 6.504330e-01 6.147789e-01 4.533077e-01 7.735400e-01 4.135780e-01 5.845148e-01 6.685455e-01 4.311783e-01 6.405756e-01 4.666443e-01 6.193813e-01 6.979132e-01 5.388989e-01 7.518639e-01 6.011552e-01 6.812944e-01 6.956730e-01 6.036090e-01 7.702359e-01 5.953344e-01 7.144479e-01 6.758531e-01 6.340412e-01 7.640248e-01 5.785740e-01 7.386045e-01 6.521441e-01 6.514302e-01 7.430621e-01 5.655807e-01 7.546556e-01 6.257985e-01 6.602594e-01 7.115216e-01 5.429474e-01 7.574437e-01 5.407037e-01 5.712381e-01 6.764562e-01 4.669633e-01 6.938008e-01 5.235580e-01 5.736574e-01 7.482606e-01 5.304856e-01 7.556263e-01 6.299880e-01 6.420562e-01 7.328729e-01 5.713060e-01 7.802536e-01 5.980431e-01 6.649576e-01 7.065631e-01 5.768084e-01 7.791427e-01 5.632029e-01 6.806835e-01 6.819438e-01 5.790936e-01 7.692956e-01 5.380489e-01 6.966261e-01 6.614771e-01 5.854137e-01 7.571068e-01 5.237747e-01 7.122291e-01 6.369426e-01 5.908577e-01 7.347115e-01 5.138117e-01 7.301142e-01 6.049936e-01 5.994345e-01 7.129489e-01 5.118842e-01 7.542188e-01 5.657503e-01 6.036560e-01 6.962103e-01 5.073283e-01 7.702370e-01 5.350420e-01 6.167520e-01 6.882554e-01 5.050539e-01 7.747020e-01 5.039465e-01 6.277235e-01 6.744462e-01 5.108877e-01 7.867769e-01 4.850334e-01 6.235397e-01 6.720636e-01 7.302873e-01 1.332408e+00 9.596260e-01 2.495337e-01 2.648379e-02 1.798962e-03 -5.125760e-04 
1.225883e-04 -2.173665e-03 -3.314006e-02 -3.720105e-01 -3.610661e+00 -1.117666e+01 -6.583715e+00 -8.534249e-01 -5.029079e+00 1.541796e+00 -5.860727e-01 3.926298e+00 1.704606e+01 -1.772203e+00 -1.192588e+00 1.576498e+00 5.414747e+00 3.269128e+00 3.484510e+00 -3.718619e+00 -1.981534e+00 2.269915e+01 5.798600e-01 9.709585e+00 -9.563488e+00 1.622410e+00 1.962611e+00 -9.371090e+00 5.169451e+00 -9.483414e+00 1.413955e+00 -2.876041e+00 -7.844761e+00 3.962579e+00 -8.706198e+00 1.588445e+00 -4.925994e+00 -5.673471e+00 2.821283e+00 -7.822182e+00 1.403400e+00 -5.655363e+00 -3.844314e+00 1.533821e+00 -6.847242e+00 1.049113e+00 -5.696265e+00 -2.398335e+00 3.228835e-01 -5.835005e+00 7.349753e-01 -5.251615e+00 -1.398111e+00 -8.930663e-01 -4.881559e+00 3.072770e-01 -4.733327e+00 -8.913413e-01 -2.194650e+00 -4.003724e+00 -9.347503e-02 -4.919203e+00 -9.339756e-01 -1.833597e+00 -3.346283e+00 -1.953005e+00 -4.134320e+00 -3.590929e-01 -3.202024e+00 -2.481797e+00 -8.395686e-01 -3.468136e+00 -8.090691e-01 -3.237901e+00 -1.839187e+00 -1.209231e+00 -3.120756e+00 -8.946585e-01 -3.166420e+00 -1.467376e+00 -1.631984e+00 -2.838509e+00 -1.016555e+00 -3.024984e+00 -1.288965e+00 -2.074963e+00 -2.557395e+00 -1.158419e+00 -2.867955e+00 -1.270143e+00 -2.442880e+00 -2.267595e+00 -1.386045e+00 -2.996670e+00 -1.369233e+00 -2.262420e+00 -2.325731e+00 -2.252005e+00 -2.619295e+00 -1.243940e+00 -2.626687e+00 -1.707271e+00 -1.713605e+00 -2.355392e+00 -1.363158e+00 -2.559713e+00 -1.467227e+00 -1.867027e+00 -2.223757e+00 -1.398106e+00 -2.511570e+00 -1.374272e+00 -2.075293e+00 -2.101554e+00 -1.461837e+00 -2.442581e+00 -1.366444e+00 -2.281521e+00 -1.953934e+00 -1.545289e+00 -2.393440e+00 -1.419180e+00 -2.398452e+00 -1.859875e+00 -1.749714e+00 -2.453313e+00 -1.508886e+00 -2.457358e+00 -2.228366e+00 -2.182697e+00 -2.198619e+00 -1.668269e+00 -2.380611e+00 -1.692475e+00 -1.993631e+00 -2.043206e+00 -1.715368e+00 -2.211086e+00 -1.621887e+00 -2.086014e+00 -1.904233e+00 -1.794516e+00 -2.102644e+00 -1.648389e+00 -2.164437e+00 -1.771975e+00 -1.876151e+00 -2.016179e+00 -1.686343e+00 -2.175342e+00 -1.669267e+00 -1.959890e+00 -1.948354e+00 -1.737793e+00 -2.169250e+00 -1.652056e+00 -2.109976e+00 -1.981261e+00 -1.802809e+00 -2.277157e+00 -2.098728e+00 -2.351746e+00 -1.805614e+00 -1.950722e+00 -2.098609e+00 -1.653278e+00 -2.166458e+00 -1.713562e+00 -1.916953e+00 -1.957794e+00 -1.654614e+00 -2.161467e+00 -1.640613e+00 -1.960775e+00 -1.904434e+00 -1.708396e+00 -2.154386e+00 -1.593678e+00 -2.014599e+00 -1.863936e+00 -1.752742e+00 -2.125445e+00 -1.572188e+00 -2.069500e+00 -1.831991e+00 -1.807730e+00 -2.105970e+00 -1.619664e+00 -2.189993e+00 -1.871905e+00 -1.880217e+00 -2.264621e+00 -2.109385e+00 -2.344960e+00 -1.733677e+00 -2.044327e+00 -2.022861e+00 -1.711123e+00 -2.181167e+00 -1.642144e+00 -1.995756e+00 -1.882513e+00 -1.733633e+00 -2.145618e+00 -1.590359e+00 -2.049008e+00 -1.839442e+00 -1.792846e+00 -2.114610e+00 -1.578348e+00 -2.103402e+00 -1.802426e+00 -1.845194e+00 -2.069644e+00 -1.587433e+00 -2.147837e+00 -1.762417e+00 -1.893984e+00 -2.017248e+00 -1.614084e+00 -2.167737e+00 -1.712142e+00 -1.933285e+00 -1.950196e+00 -1.665123e+00 -2.169339e+00 -1.661870e+00 -1.993148e+00 -1.897798e+00 -1.746935e+00 -2.155104e+00 -1.616409e+00 -2.058461e+00 -1.845072e+00 -1.815326e+00 -2.116217e+00 -1.594072e+00 -2.121577e+00 -1.798538e+00 -1.859293e+00 -2.046487e+00 -1.582945e+00 -2.141244e+00 -1.729414e+00 -1.898196e+00 -1.965352e+00 -1.531634e+00 -2.029284e+00 -1.678933e+00 -2.342428e+00 -2.012033e+00 -2.032213e-01 9.126319e-02 1.232756e-02 1.269160e-03 3.322948e-04 
-1.970523e-04 -5.059548e-04 -5.903591e-03 -7.135335e-02 -5.971565e-01 -1.324127e+00 5.379792e-01 1.376455e+00 8.310713e-01 2.242867e+00 2.427520e+00 3.551938e+00 -1.385718e+01 -1.342784e+01 -7.892810e+00 -1.398372e+01 -9.582278e+00 -1.100960e+01 -1.355231e+01 -5.624871e+00 -1.770682e+01 -1.587283e+01 5.012144e+00 3.238340e+00 1.770939e-01 1.403168e+00 1.764150e+00 -1.797570e-01 1.491083e+00 -4.717747e-01 7.278295e-01 1.357248e-01 -6.703407e-01 8.490161e-01 -8.258816e-01 3.835321e-01 -5.289229e-01 -6.818575e-01 3.665553e-01 -1.024888e+00 7.920080e-02 -9.189210e-01 -6.635401e-01 -7.977732e-02 -1.148038e+00 -2.121880e-01 -1.169773e+00 -6.485192e-01 -4.336685e-01 -1.173942e+00 -3.915233e-01 -1.221699e+00 -6.395670e-01 -7.532858e-01 -1.170486e+00 -6.116625e-01 -1.291459e+00 -7.264168e-01 -1.108161e+00 -1.178789e+00 -8.436034e-01 -1.435977e+00 -8.390930e-01 -1.288656e+00 -1.360227e+00 -1.261620e+00 -1.408494e+00 -9.231223e-01 -1.478654e+00 -1.124314e+00 -1.155498e+00 -1.385627e+00 -1.061363e+00 -1.528132e+00 -1.099699e+00 -1.309936e+00 -1.388350e+00 -1.168611e+00 -1.561273e+00 -1.117961e+00 -1.448676e+00 -1.371478e+00 -1.251281e+00 -1.542929e+00 -1.147810e+00 -1.542356e+00 -1.319846e+00 -1.321718e+00 -1.508008e+00 -1.200784e+00 -1.611378e+00 -1.280406e+00 -1.443499e+00 -1.537930e+00 -1.256590e+00 -1.703503e+00 -1.486354e+00 -1.673243e+00 -1.478096e+00 -1.342978e+00 -1.697618e+00 -1.253217e+00 -1.587545e+00 -1.454241e+00 -1.393482e+00 -1.651879e+00 -1.244459e+00 -1.647021e+00 -1.420482e+00 -1.441514e+00 -1.616012e+00 -1.270911e+00 -1.690059e+00 -1.371772e+00 -1.481515e+00 -1.562672e+00 -1.306543e+00 -1.696606e+00 -1.306638e+00 -1.521344e+00 -1.513909e+00 -1.341764e+00 -1.684620e+00 -1.280874e+00 -1.609284e+00 -1.507401e+00 -1.339824e+00 -1.746133e+00 -1.541276e+00 -1.733614e+00 -1.393383e+00 -1.444547e+00 -1.659939e+00 -1.265527e+00 -1.648787e+00 -1.387276e+00 -1.456984e+00 -1.573188e+00 -1.272968e+00 -1.675491e+00 -1.345898e+00 -1.502692e+00 -1.533361e+00 -1.325699e+00 -1.698237e+00 -1.304082e+00 -1.558835e+00 -1.503620e+00 -1.374728e+00 -1.696431e+00 -1.275785e+00 -1.616928e+00 -1.480817e+00 -1.423997e+00 -1.690074e+00 -1.288100e+00 -1.714394e+00 -1.486494e+00 -1.437911e+00 -1.779034e+00 -1.569765e+00 -1.816887e+00 -1.392056e+00 -1.549008e+00 -1.675028e+00 -1.323564e+00 -1.742257e+00 -1.386738e+00 -1.551633e+00 -1.582428e+00 -1.349762e+00 -1.745783e+00 -1.336780e+00 -1.592936e+00 -1.540008e+00 -1.396743e+00 -1.738176e+00 -1.299310e+00 -1.637284e+00 -1.504485e+00 -1.432635e+00 -1.711271e+00 -1.280149e+00 -1.679115e+00 -1.473525e+00 -1.471650e+00 -1.685993e+00 -1.302050e+00 -1.758323e+00 -1.465853e+00 -1.482071e+00 -1.773308e+00 -1.589805e+00 -1.832668e+00 -1.368461e+00 -1.590762e+00 -1.645694e+00 -1.358062e+00 -1.752953e+00 -1.352161e+00 -1.587062e+00 -1.548713e+00 -1.388732e+00 -1.739200e+00 -1.305511e+00 -1.630592e+00 -1.510334e+00 -1.429473e+00 -1.718186e+00 -1.283796e+00 -1.672240e+00 -1.476681e+00 -1.464676e+00 -1.684941e+00 -1.279945e+00 -1.707534e+00 -1.442706e+00 -1.499076e+00 -1.645793e+00 -1.292299e+00 -1.727506e+00 -1.400940e+00 -1.527707e+00 -1.593934e+00 -1.322562e+00 -1.736162e+00 -1.355821e+00 -1.569878e+00 -1.550855e+00 -1.375302e+00 -1.735373e+00 -1.310278e+00 -1.614162e+00 -1.509869e+00 -1.418248e+00 -1.715360e+00 -1.283407e+00 -1.659770e+00 -1.475679e+00 -1.446638e+00 -1.671339e+00 -1.264392e+00 -1.677442e+00 -1.425055e+00 -1.473421e+00 -1.621143e+00 -1.222464e+00 -1.601563e+00 -1.389535e+00 -1.846123e+00 -1.850914e+00 -5.096712e-01 -3.512650e-02 -9.746535e-04 2.983266e-05 -1.461762e-04 
1.527598e-04 -4.394151e-05 -8.883176e-04 -9.977332e-03 -6.470372e-02 -8.205649e-02 1.641593e-01 2.564534e-01 2.166959e-01 3.862068e-01 3.837563e-01 -4.694905e-01 -1.101021e+01 -4.917827e+00 -1.483819e+00 -1.491275e+00 -1.480975e+00 -1.485130e+00 -1.488155e+00 -1.476879e+00 -3.562801e+00 -1.571925e+01 -8.930590e-01 2.285376e-01 2.070337e-01 2.509369e-01 2.618377e-01 4.187700e-02 1.858022e-01 5.612834e-02 1.316898e-01 5.924321e-02 -5.175586e-02 7.373712e-02 -3.497210e-02 6.185827e-02 -2.642637e-02 -6.527202e-02 3.719853e-03 -8.734280e-02 3.404144e-03 -8.429635e-02 -7.319927e-02 -5.211644e-02 -1.209795e-01 -4.620207e-02 -1.252483e-01 -8.244122e-02 -9.697312e-02 -1.409188e-01 -8.348184e-02 -1.489899e-01 -9.459833e-02 -1.344838e-01 -1.516247e-01 -1.162802e-01 -1.662968e-01 -1.135415e-01 -1.695171e-01 -1.580760e-01 -1.490551e-01 -1.864027e-01 -1.284339e-01 -1.760029e-01 -1.529187e-01 -1.745792e-01 -1.875327e-01 -1.525188e-01 -2.118199e-01 -1.623004e-01 -1.897339e-01 -1.937969e-01 -1.711103e-01 -2.172358e-01 -1.643593e-01 -2.079178e-01 -1.969354e-01 -1.864387e-01 -2.216015e-01 -1.709546e-01 -2.234646e-01 -1.972025e-01 -1.991732e-01 -2.215120e-01 -1.796583e-01 -2.344239e-01 -1.938549e-01 -2.106131e-01 -2.198959e-01 -1.902161e-01 -2.418314e-01 -1.917241e-01 -2.277547e-01 -2.232307e-01 -1.922704e-01 -2.360798e-01 -1.922678e-01 -2.335650e-01 -2.120082e-01 -2.110779e-01 -2.503635e-01 -1.924175e-01 -2.437879e-01 -2.160463e-01 -2.174707e-01 -2.428971e-01 -1.932806e-01 -2.504281e-01 -2.123359e-01 -2.242559e-01 -2.383648e-01 -1.988731e-01 -2.550746e-01 -2.071405e-01 -2.307530e-01 -2.328646e-01 -2.061933e-01 -2.560425e-01 -2.006450e-01 -2.377392e-01 -2.282958e-01 -2.127960e-01 -2.550397e-01 -1.992248e-01 -2.501531e-01 -2.273054e-01 -2.095224e-01 -2.462610e-01 -2.034607e-01 -2.473169e-01 -2.119115e-01 -2.272555e-01 -2.531861e-01 -2.007566e-01 -2.565442e-01 -2.164141e-01 -2.299638e-01 -2.424810e-01 -2.029940e-01 -2.597085e-01 -2.114367e-01 -2.358659e-01 -2.372966e-01 -2.105026e-01 -2.614915e-01 -2.056742e-01 -2.428869e-01 -2.330966e-01 -2.172346e-01 -2.604366e-01 -2.018366e-01 -2.499970e-01 -2.296215e-01 -2.234058e-01 -2.584173e-01 -2.030770e-01 -2.617595e-01 -2.282150e-01 -2.202032e-01 -2.508280e-01 -2.087713e-01 -2.556138e-01 -2.130259e-01 -2.377206e-01 -2.547915e-01 -2.079694e-01 -2.651351e-01 -2.166269e-01 -2.390747e-01 -2.426377e-01 -2.119251e-01 -2.655017e-01 -2.097605e-01 -2.446535e-01 -2.369590e-01 -2.183271e-01 -2.639989e-01 -2.044240e-01 -2.506715e-01 -2.321992e-01 -2.234247e-01 -2.604090e-01 -2.018629e-01 -2.563047e-01 -2.279387e-01 -2.284783e-01 -2.565097e-01 -2.044829e-01 -2.662224e-01 -2.251276e-01 -2.254619e-01 -2.489501e-01 -2.104178e-01 -2.570579e-01 -2.098985e-01 -2.423980e-01 -2.504728e-01 -2.124089e-01 -2.660958e-01 -2.118256e-01 -2.432883e-01 -2.381427e-01 -2.168468e-01 -2.641281e-01 -2.052804e-01 -2.490423e-01 -2.329222e-01 -2.221957e-01 -2.609244e-01 -2.020613e-01 -2.545826e-01 -2.283438e-01 -2.268557e-01 -2.562984e-01 -2.014195e-01 -2.592521e-01 -2.236909e-01 -2.312787e-01 -2.507957e-01 -2.032477e-01 -2.624658e-01 -2.184061e-01 -2.355069e-01 -2.443124e-01 -2.077234e-01 -2.640324e-01 -2.123437e-01 -2.407220e-01 -2.381923e-01 -2.145659e-01 -2.632698e-01 -2.056188e-01 -2.464026e-01 -2.326065e-01 -2.199855e-01 -2.599805e-01 -2.014006e-01 -2.516472e-01 -2.273912e-01 -2.237435e-01 -2.541064e-01 -1.988203e-01 -2.543204e-01 -2.207986e-01 -2.265715e-01 -2.463438e-01 -1.923333e-01 -2.438886e-01 -2.172848e-01 -2.786437e-01 -2.760689e-01 -8.599957e-02 -9.486761e-03 -6.075145e-04 5.849036e-05 1.115686e-04 
6.223929e-05 -9.305811e-05 3.956419e-04 -5.928562e-04 -3.312181e-03 7.753735e-04 1.321935e-02 2.563810e-02 2.170040e-02 3.692963e-02 -5.954130e-03 -5.696594e-01 -5.275835e+00 -5.328261e+00 -1.336988e+00 -1.329490e+00 -1.329458e+00 -1.329462e+00 -1.329474e+00 -1.334220e+00 -4.816212e+00 -6.169144e+00 -8.691192e-01 -8.139796e-02 3.553025e-02 3.829969e-02 1.755503e-02 -8.020363e-03 1.315543e-02 2.184178e-02 2.382446e-02 9.218678e-03 -1.709376e-02 -3.299059e-03 2.799310e-03 1.340906e-02 5.655338e-03 -1.230805e-02 -9.003011e-03 -6.715969e-03 4.166835e-03 4.609814e-05 -9.333138e-03 -1.216957e-02 -1.228790e-02 -3.325946e-03 -5.400555e-03 -7.952369e-03 -1.364140e-02 -1.508906e-02 -8.842652e-03 -1.007675e-02 -8.492645e-03 -1.484929e-02 -1.624492e-02 -1.280401e-02 -1.346345e-02 -1.017246e-02 -1.587076e-02 -1.629654e-02 -1.593356e-02 -1.522094e-02 8.220985e-03 2.574613e-01 5.097138e-01 2.751144e-01 8.387341e-03 -1.304025e-02 -1.863874e-02 -1.591217e-02 -1.922591e-02 -1.833970e-02 -1.664193e-02 -1.934306e-02 -1.595582e-02 -2.035788e-02 -1.878181e-02 -1.815785e-02 -1.999193e-02 -1.648639e-02 -2.129241e-02 -1.889377e-02 -1.941444e-02 -2.037475e-02 -1.738810e-02 -2.201528e-02 -1.870415e-02 -2.049603e-02 -2.054220e-02 -1.841747e-02 -2.245385e-02 -1.846535e-02 -2.178880e-02 -1.981261e-02 1.922025e-04 2.306553e-01 4.631258e-01 2.462523e-01 3.659630e-03 -1.875921e-02 -2.311439e-02 -1.857698e-02 -2.304260e-02 -2.051856e-02 -2.083300e-02 -2.258088e-02 -1.866779e-02 -2.350217e-02 -2.023834e-02 -2.140704e-02 -2.228830e-02 -1.919839e-02 -2.386478e-02 -1.985021e-02 -2.199345e-02 -2.196091e-02 -1.991983e-02 -2.400931e-02 -1.937564e-02 -2.262768e-02 -2.168403e-02 -2.052719e-02 -2.394617e-02 -1.923784e-02 -2.353367e-02 -2.046779e-02 -1.779093e-03 2.244331e-01 4.517326e-01 2.392513e-01 2.837037e-03 -2.023241e-02 -2.384472e-02 -1.951700e-02 -2.427970e-02 -2.085077e-02 -2.200072e-02 -2.302217e-02 -1.968613e-02 -2.449896e-02 -2.039952e-02 -2.243608e-02 -2.255224e-02 -2.029524e-02 -2.459215e-02 -1.985286e-02 -2.295503e-02 -2.215528e-02 -2.082792e-02 -2.445531e-02 -1.948087e-02 -2.348423e-02 -2.180965e-02 -2.127273e-02 -2.417682e-02 -1.947658e-02 -2.425193e-02 -2.043496e-02 -2.451344e-03 2.234881e-01 4.496862e-01 2.378773e-01 2.847293e-03 -2.081732e-02 -2.376078e-02 -1.995131e-02 -2.471967e-02 -2.068259e-02 -2.248809e-02 -2.281509e-02 -2.025801e-02 -2.473353e-02 -2.008220e-02 -2.292446e-02 -2.233668e-02 -2.078600e-02 -2.459573e-02 -1.960833e-02 -2.341194e-02 -2.193884e-02 -2.120899e-02 -2.429655e-02 -1.938347e-02 -2.387659e-02 -2.157275e-02 -2.159199e-02 -2.390960e-02 -1.953071e-02 -2.454215e-02 -2.011558e-02 -2.819374e-03 2.238744e-01 4.499165e-01 2.379953e-01 3.145969e-03 -2.115230e-02 -2.336369e-02 -2.030852e-02 -2.479020e-02 -2.025591e-02 -2.280692e-02 -2.242684e-02 -2.065206e-02 -2.460774e-02 -1.968010e-02 -2.326171e-02 -2.198957e-02 -2.108431e-02 -2.432734e-02 -1.938908e-02 -2.371534e-02 -2.160410e-02 -2.145675e-02 -2.393004e-02 -1.932582e-02 -2.411376e-02 -2.121933e-02 -2.180884e-02 -2.345840e-02 -1.948278e-02 -2.441590e-02 -2.078836e-02 -2.215921e-02 -2.292663e-02 -1.986673e-02 -2.457739e-02 -2.027755e-02 -2.255980e-02 -2.239686e-02 -2.042681e-02 -2.450201e-02 -1.967898e-02 -2.300632e-02 -2.192343e-02 -2.084842e-02 -2.419817e-02 -1.928816e-02 -2.340444e-02 -2.146245e-02 -2.114814e-02 -2.370445e-02 -1.905850e-02 -2.362982e-02 -2.090768e-02 -2.131239e-02 -2.298080e-02 -1.845484e-02 -2.274643e-02 -2.067046e-02 -2.569824e-02 -2.547316e-02 -8.822036e-03 -1.308032e-03 -1.906492e-04 -4.421467e-05 -9.775974e-05 