# vtk DataFile Version 2.0
Comment goes here
ASCII

DATASET STRUCTURED_POINTS
FIELD FieldData 1
TIME 1 1 double
0.04400000
DIMENSIONS    64   64   1

ORIGIN    0.000   0.000   0.000
SPACING   0.03125 0.03125   1.000

POINT_DATA   4096
SCALARS Omega double
LOOKUP_TABLE default

-5.082815e-01 7.982838e-02 -1.101736e-01 1.773090e-01 -1.275792e-01 -4.411311e-01 -6.659152e-02 -1.246025e-01 -6.239089e-02 -8.619541e-02 -5.377558e-02 -1.738181e-02 -4.971880e-02 7.607145e-02 -5.006927e-02 1.928966e-01 -6.608469e-02 3.023655e-01 -8.270545e-02 4.348485e-01 2.474253e-03 4.985307e-01 9.749450e-04 5.340622e-01 -7.782105e-02 5.126584e-01 -5.243006e-02 5.532046e-01 -2.838026e-02 5.578570e-01 -1.755128e-02 5.438482e-01 -2.758676e-02 5.270480e-01 -8.951903e-03 4.631122e-01 5.364821e-02 3.782187e-01 1.380399e-01 3.078748e-01 2.139153e-01 1.872025e-01 2.654822e-01 7.869086e-02 2.760255e-01 4.613404e-02 2.432592e-01 -2.315326e-02 2.653890e-01 -1.463384e-01 2.917101e-01 -2.465623e-01 2.827222e-01 -3.272263e-01 2.753221e-01 -3.854288e-01 2.719757e-01 -4.510510e-01 3.128448e-01 -5.349415e-01 3.514993e-01 -6.111791e-01 5.369720e-01 -5.944165e-01 
3.289118e+00 -3.023872e+01 -7.679348e+00 -2.558670e+01 -9.722492e+00 -2.279406e+01 -1.136381e+01 -2.268916e+01 -1.400621e+01 -2.185813e+01 -1.704400e+01 -1.961871e+01 -2.115855e+01 -1.583629e+01 -2.635817e+01 -1.118419e+01 -3.191238e+01 -6.404236e+00 -3.702881e+01 -2.572704e+00 -4.092792e+01 4.077900e-03 -4.346699e+01 1.597865e+00 -4.501770e+01 2.627240e+00 -4.641352e+01 3.827830e+00 -4.836046e+01 5.875897e+00 -5.107054e+01 8.485989e+00 -5.381578e+01 1.093673e+01 -5.625466e+01 1.324159e+01 -5.847991e+01 1.520060e+01 -5.993424e+01 1.609020e+01 -6.003518e+01 1.566079e+01 -5.872524e+01 1.391189e+01 -5.613457e+01 1.107282e+01 -5.277973e+01 7.943650e+00 -4.944322e+01 5.163280e+00 -4.642480e+01 2.602141e+00 -4.333096e+01 -3.742243e-01 -3.921825e+01 -4.714038e+00 -3.322388e+01 -1.086306e+01 -2.578853e+01 -1.755431e+01 -1.833989e+01 -2.351489e+01 -1.224366e+01 -3.094220e+01 
-6.048926e+01 8.289510e+00 -3.059369e+01 5.587086e+00 -7.109165e+00 4.414732e+00 -3.471587e+01 3.850160e+00 -4.658686e+01 3.596950e+00 -5.418515e+01 2.622980e+00 -5.893742e+01 7.409588e-01 -6.164551e+01 -1.621876e+00 -6.307550e+01 -4.236163e+00 -6.382721e+01 -6.361275e+00 -6.486737e+01 -7.705608e+00 -6.608827e+01 -8.524996e+00 -6.729655e+01 -9.001291e+00 -6.831812e+01 -9.608884e+00 -6.869119e+01 -1.076149e+01 -6.819829e+01 -1.219192e+01 -6.748999e+01 -1.332941e+01 -6.675677e+01 -1.439519e+01 -6.571030e+01 -1.536484e+01 -6.482358e+01 -1.566424e+01 -6.442788e+01 -1.531429e+01 -6.436220e+01 -1.438195e+01 -6.474834e+01 -1.283490e+01 -6.530283e+01 -1.113734e+01 -6.550017e+01 -9.715445e+00 -6.499754e+01 -8.520344e+00 -6.391651e+01 -7.266908e+00 -6.273631e+01 -5.341951e+00 -6.196726e+01 -2.317056e+00 -6.117958e+01 1.033680e+00 -5.899100e+01 3.655851e+00 -5.245560e+01 9.073778e+00 
-3.248082e+01 8.993897e+00 -1.576857e+01 8.463784e+00 -2.157837e+01 5.951140e+00 -1.476055e+01 7.850711e+00 -2.144643e+01 7.039352e+00 -2.537359e+01 5.575278e+00 -2.748047e+01 3.399373e+00 -2.818312e+01 8.486300e-01 -2.805729e+01 -1.682350e+00 -2.759587e+01 -3.589987e+00 -2.720158e+01 -4.696657e+00 -2.720621e+01 -5.362135e+00 -2.750969e+01 -5.732417e+00 -2.756939e+01 -5.949535e+00 -2.716621e+01 -6.644106e+00 -2.627318e+01 -7.647377e+00 -2.534702e+01 -8.552396e+00 -2.453119e+01 -9.538008e+00 -2.367180e+01 -1.051574e+01 -2.305303e+01 -1.102704e+01 -2.293464e+01 -1.104788e+01 -2.325042e+01 -1.044598e+01 -2.388999e+01 -9.197364e+00 -2.466566e+01 -7.743606e+00 -2.524785e+01 -6.399023e+00 -2.540288e+01 -5.195284e+00 -2.530072e+01 -3.901992e+00 -2.540141e+01 -2.050094e+00 -2.611327e+01 6.798294e-01 -2.713318e+01 3.531224e+00 -2.741617e+01 5.890068e+00 -2.541835e+01 1.039445e+01 
-1.094197e+00 1.182642e+00 -1.716977e+00 -2.330186e+00 -3.718523e+01 3.681433e-01 1.649494e+00 -8.638225e-02 1.343552e-01 -6.236602e-02 -3.959900e-01 -4.321155e-02 -6.349544e-01 -3.145890e-02 -7.547893e-01 -2.588314e-02 -7.947096e-01 -3.345561e-02 -7.830570e-01 -5.274657e-02 -7.359188e-01 -8.073656e-02 -6.627439e-01 -1.184085e-01 -5.796145e-01 -1.627938e-01 -5.115282e-01 -2.074617e-01 -4.699226e-01 -2.422237e-01 -4.471496e-01 -2.494936e-01 -4.432893e-01 -2.194119e-01 -4.633570e-01 -1.635752e-01 -5.094779e-01 -1.062032e-01 -5.677751e-01 -6.598198e-02 -6.088482e-01 -5.950631e-02 -6.088968e-01 -7.804171e-02 -5.685619e-01 -1.183985e-01 -4.998138e-01 -1.827323e-01 -4.201946e-01 -2.461370e-01 -3.437364e-01 -2.814766e-01 -2.737553e-01 -2.641150e-01 -2.156180e-01 -1.909792e-01 -1.779359e-01 -6.706934e-02 -1.781204e-01 9.874903e-02 -2.311290e-01 3.051668e-01 -4.000968e-01 6.654906e-01 
-7.102631e-01 5.351212e-01 -1.353614e+00 -1.974837e+00 -4.826083e+01 -7.183021e-01 1.672818e+00 -4.291612e-01 9.297494e-01 -2.131829e-01 4.714407e-01 -1.334556e-01 2.431753e-01 -8.368889e-02 1.328877e-01 -5.082707e-02 8.251180e-02 -4.234049e-02 4.681375e-02 -3.530496e-02 2.834914e-02 -3.595307e-02 1.810016e-02 -3.085277e-02 7.707750e-03 -2.234655e-02 -2.411515e-03 -2.041534e-02 -5.458589e-03 -1.988577e-02 -1.087279e-02 -2.313787e-02 -1.848043e-02 -2.591977e-02 -2.199176e-02 -2.151226e-02 -1.959375e-02 -8.320639e-03 -1.050088e-02 1.065035e-02 1.822979e-03 2.750357e-02 3.120206e-03 3.461385e-02 -6.156831e-04 3.313112e-02 -3.008269e-03 2.618451e-02 -6.328463e-03 2.053004e-02 -1.768759e-02 2.589154e-02 -3.641304e-02 4.515803e-02 -6.243485e-02 7.397231e-02 -1.037596e-01 1.106703e-01 -1.691311e-01 1.638113e-01 -2.889313e-01 2.374412e-01 -5.502747e-01 3.803231e-01 
-7.981550e-01 4.232026e-01 -1.080929e+00 -2.346918e+00 -5.603109e+01 -8.101455e-01 1.339066e+00 -4.064334e-01 9.278306e-01 -2.506602e-01 5.064483e-01 -1.669508e-01 2.769412e-01 -1.027990e-01 1.650805e-01 -6.007948e-02 1.278583e-01 -5.099611e-02 9.876018e-02 -4.544111e-02 7.440037e-02 -3.740698e-02 5.459167e-02 -2.966375e-02 3.612278e-02 -2.627089e-02 1.781902e-02 -2.830196e-02 4.587303e-04 -3.279317e-02 -1.570306e-02 -3.750205e-02 -2.912737e-02 -3.805278e-02 -3.375574e-02 -2.899679e-02 -2.668231e-02 -9.258589e-03 -1.085705e-02 1.793467e-02 7.658412e-03 4.362882e-02 1.978092e-02 5.794803e-02 2.343782e-02 5.885518e-02 2.195658e-02 4.999899e-02 1.558216e-02 3.841231e-02 -9.177856e-03 4.256187e-02 -4.381217e-02 6.232096e-02 -8.772102e-02 9.052462e-02 -1.462561e-01 1.261782e-01 -2.290653e-01 1.769777e-01 -3.539226e-01 2.603256e-01 -5.610770e-01 3.702480e-01 
-6.891612e-01 4.257715e-01 -7.297439e-01 -2.098164e+00 -6.255249e+01 -9.190090e-01 7.442942e-01 -5.515766e-01 7.757464e-01 -3.349901e-01 5.006782e-01 -2.133249e-01 2.865956e-01 -1.318168e-01 1.546072e-01 -8.153951e-02 1.129603e-01 -8.985341e-02 7.409654e-02 -9.288348e-02 4.806257e-02 -8.035530e-02 3.362648e-02 -6.038921e-02 2.475669e-02 -3.979978e-02 1.873073e-02 -2.598906e-02 1.275430e-02 -2.007882e-02 4.256875e-03 -2.096835e-02 -6.931668e-03 -2.158375e-02 -1.515913e-02 -1.601657e-02 -1.648710e-02 -2.067613e-03 -1.128124e-02 1.861047e-02 -3.357291e-03 3.888205e-02 -5.746938e-04 5.100306e-02 -3.098877e-03 4.990216e-02 -3.493276e-03 3.693831e-02 7.748924e-03 2.191246e-02 1.066568e-03 4.072788e-02 -2.610588e-02 8.477459e-02 -6.490658e-02 1.321908e-01 -1.182917e-01 1.816202e-01 -1.956833e-01 2.415378e-01 -3.168811e-01 3.189058e-01 -5.050743e-01 3.968831e-01 
-6.053345e-01 4.008875e-01 -3.953853e-01 -2.341183e+00 -6.690513e+01 -8.869704e-01 3.963189e-01 -5.239825e-01 6.098920e-01 -3.349112e-01 4.290745e-01 -2.213195e-01 2.503176e-01 -1.329749e-01 1.349796e-01 -7.953487e-02 1.369496e-01 -1.125879e-01 9.998079e-02 -1.100378e-01 7.057369e-02 -8.884126e-02 5.165086e-02 -6.466370e-02 3.867405e-02 -4.339929e-02 2.902995e-02 -3.069570e-02 1.662253e-02 -2.672380e-02 1.442770e-03 -2.956210e-02 -1.567502e-02 -3.078594e-02 -2.722685e-02 -2.307753e-02 -2.759597e-02 -4.539750e-03 -1.889280e-02 2.313460e-02 -6.327982e-03 5.182176e-02 2.093811e-03 6.981585e-02 3.015217e-03 6.887723e-02 4.904151e-03 4.897288e-02 2.321518e-02 1.931667e-02 5.885318e-03 4.069724e-02 -2.931224e-02 8.752599e-02 -7.834608e-02 1.352501e-01 -1.401374e-01 1.843047e-01 -2.188386e-01 2.443081e-01 -3.246938e-01 3.197851e-01 -4.657714e-01 3.853009e-01 
-4.461121e-01 3.881142e-01 -6.927930e-02 -2.230511e+00 -7.043973e+01 -8.612292e-01 4.088539e-02 -5.946478e-01 3.986818e-01 -3.998412e-01 3.422224e-01 -2.586661e-01 2.031712e-01 -1.375053e-01 6.663436e-02 -5.555237e-02 1.071506e-01 -1.570067e-01 7.942375e-02 -1.686840e-01 5.001326e-02 -1.336544e-01 3.670518e-02 -9.179707e-02 3.234089e-02 -5.185390e-02 3.313080e-02 -2.579536e-02 2.772091e-02 -1.513404e-02 1.553208e-02 -1.993291e-02 -4.966973e-03 -2.531966e-02 -2.132968e-02 -2.132368e-02 -2.582209e-02 -5.242225e-03 -2.022250e-02 2.417507e-02 -9.724233e-03 5.807263e-02 -7.725546e-03 8.180278e-02 -1.809863e-02 8.045107e-02 -2.788879e-02 4.299470e-02 1.983894e-02 -3.040112e-02 4.468695e-02 2.113168e-02 2.978364e-03 1.098113e-01 -5.235298e-02 1.738885e-01 -1.106960e-01 2.257975e-01 -1.774308e-01 2.818533e-01 -2.629025e-01 3.452400e-01 -3.670420e-01 4.011762e-01 
-3.332890e-01 3.641440e-01 2.124831e-01 -2.317896e+00 -7.250919e+01 -8.482156e-01 -1.899603e-01 -5.981795e-01 2.363710e-01 -3.957872e-01 2.396763e-01 -2.452121e-01 1.244560e-01 -9.622818e-02 -1.816629e-02 -4.761516e-04 1.452651e-01 -2.334429e-01 1.043963e-01 -1.936467e-01 6.453917e-02 -1.437252e-01 4.582390e-02 -9.850636e-02 3.941198e-02 -5.342677e-02 4.268936e-02 -2.491665e-02 3.536542e-02 -1.344372e-02 1.921783e-02 -2.087804e-02 -9.425987e-03 -3.137569e-02 -3.229497e-02 -2.843263e-02 -3.723084e-02 -1.050382e-02 -2.868442e-02 2.486353e-02 -1.299974e-02 7.053877e-02 -6.832487e-03 1.041828e-01 -1.981697e-02 1.055725e-01 -3.468779e-02 5.347132e-02 4.593414e-02 -6.333920e-02 5.781464e-02 1.166172e-02 1.431533e-02 1.116464e-01 -5.382916e-02 1.765994e-01 -1.188293e-01 2.258836e-01 -1.800158e-01 2.793729e-01 -2.442294e-01 3.402602e-01 -3.078269e-01 3.955244e-01 
-1.840010e-01 3.462351e-01 4.745425e-01 -2.262787e+00 -7.389378e+01 -7.455397e-01 -3.676626e-01 -6.376010e-01 7.150414e-02 -4.550325e-01 1.564192e-01 -2.836452e-01 7.661499e-02 -4.584294e-02 -1.806426e-01 2.051703e-01 6.762768e-02 -3.833475e-01 1.142737e-01 -2.782055e-01 5.197372e-02 -1.914792e-01 3.522938e-02 -1.238771e-01 3.819937e-02 -5.115012e-02 5.306652e-02 -1.035273e-02 4.931384e-02 5.996549e-03 3.169583e-02 -1.420386e-02 -1.062676e-02 -3.807465e-02 -3.983180e-02 -3.913957e-02 -4.548358e-02 -2.312664e-02 -3.168177e-02 2.090625e-02 -2.770137e-03 8.724731e-02 2.954304e-04 1.419260e-01 -3.225671e-02 1.655166e-01 -1.104834e-01 9.343057e-02 -3.520271e-03 -2.718648e-01 2.019164e-01 -1.434919e-02 6.929518e-02 1.652774e-01 -4.055884e-02 2.238438e-01 -1.016015e-01 2.584277e-01 -1.418794e-01 3.007438e-01 -1.784420e-01 3.511915e-01 -2.063163e-01 3.994286e-01 
-8.438084e-02 3.260785e-01 6.855302e-01 -2.277550e+00 -7.428217e+01 -7.291904e-01 -4.985318e-01 -6.730993e-01 -3.386227e-02 -4.830900e-01 8.067541e-02 -2.855422e-01 -1.502510e-02 8.282576e-02 -4.360884e-01 5.665127e-01 1.567629e-01 -6.893792e-01 1.887557e-01 -2.306763e-01 5.469161e-02 -1.783726e-01 2.961585e-02 -1.282743e-01 3.458560e-02 -4.284930e-02 6.544163e-02 1.871581e-03 6.325176e-02 2.114074e-02 4.698781e-02 -8.660323e-04 -1.300762e-02 -4.402157e-02 -5.411308e-02 -4.886124e-02 -5.979573e-02 -3.463157e-02 -4.316010e-02 9.979304e-03 -3.547516e-03 9.958340e-02 6.212097e-03 1.756329e-01 -3.793577e-02 2.280163e-01 -1.717736e-01 1.321075e-01 3.614499e-02 -3.764344e-01 2.513541e-01 -2.670306e-02 1.067625e-01 1.829842e-01 -4.496549e-02 2.352806e-01 -1.133100e-01 2.602006e-01 -1.410190e-01 2.969660e-01 -1.541286e-01 3.450367e-01 -1.491081e-01 3.936614e-01 
3.723845e-02 3.009784e-01 8.855442e-01 -2.244057e+00 -7.400737e+01 -5.839745e-01 -5.690558e-01 -7.038200e-01 -1.441404e-01 -5.876438e-01 5.053029e-02 -4.512669e-01 7.520808e-02 1.271185e-01 -6.899982e-01 1.504419e+00 6.860391e-02 -7.236344e-01 5.283474e-01 8.055453e-02 8.604280e-02 3.962098e-02 5.420873e-02 4.941279e-02 7.269854e-02 1.608080e-01 1.117156e-01 1.589241e-01 1.123416e-01 1.491699e-01 9.636953e-02 5.687175e-02 6.466238e-04 -4.785700e-02 -3.615032e-02 -5.091336e-02 -4.792732e-02 -5.039997e-02 -2.769157e-02 -4.171650e-03 5.920901e-02 1.383678e-01 5.886122e-02 2.273568e-01 2.043866e-02 3.808969e-01 -2.993876e-01 5.949138e-01 -4.457414e-01 -1.336526e+00 9.240274e-01 2.124559e-01 1.123117e-01 3.464567e-01 -1.208302e-01 2.847141e-01 -1.334964e-01 2.761027e-01 -1.145384e-01 3.034215e-01 -9.455139e-02 3.454028e-01 -6.018094e-02 3.886541e-01 
1.125059e-01 2.773911e-01 1.030943e+00 -2.214528e+00 -7.307312e+01 -5.628272e-01 -6.242118e-01 -7.545095e-01 -1.754946e-01 -6.889923e-01 6.958716e-02 -6.537096e-01 7.337062e-02 6.639029e-02 -1.447355e+00 -2.529714e-01 6.057426e+00 6.605660e+00 3.254625e+00 4.298266e+00 1.974468e+00 3.747585e+00 1.769436e+00 3.454930e+00 1.667783e+00 3.178698e+00 1.800281e+00 2.719137e+00 1.826202e+00 2.240429e+00 1.917510e+00 1.765467e+00 1.784345e+00 1.464459e+00 1.630457e+00 1.372820e+00 1.482112e+00 1.324395e+00 1.299146e+00 1.310653e+00 1.220210e+00 1.275213e+00 1.222308e+00 1.107824e+00 1.209579e+00 9.856635e-01 8.127366e-01 1.010153e+00 1.135788e+00 -4.577218e+00 7.967228e-01 1.550773e-01 1.572061e-01 4.620603e-01 -1.912182e-01 3.144760e-01 -1.724739e-01 2.775638e-01 -1.185358e-01 2.968051e-01 -7.204603e-02 3.365607e-01 -1.300455e-02 3.797097e-01 
2.058290e-01 2.434321e-01 1.170429e+00 -2.149735e+00 -7.146598e+01 -4.090299e-01 -6.416381e-01 -7.305092e-01 -2.745049e-01 -7.985080e-01 4.823211e-03 -1.269470e+00 3.995035e-01 -2.091839e+00 7.975714e-01 -9.499005e+00 3.401308e+01 3.842408e+01 2.602293e+01 2.485080e+01 2.043901e+01 2.609803e+01 1.982233e+01 2.636205e+01 2.056180e+01 2.479391e+01 2.303654e+01 2.313079e+01 2.490944e+01 2.136449e+01 2.617616e+01 2.145562e+01 2.460373e+01 2.232312e+01 2.305012e+01 2.360667e+01 2.149088e+01 2.514450e+01 2.036614e+01 2.502149e+01 2.075984e+01 2.246581e+01 2.192028e+01 2.015015e+01 2.316684e+01 1.862570e+01 2.537366e+01 1.813080e+01 2.592154e+01 3.257103e+01 7.152766e+00 4.169857e+00 -1.172570e+00 3.856282e-01 -5.514477e-01 2.344836e-01 -2.093910e-01 2.543296e-01 -8.221413e-02 2.894794e-01 -1.230223e-02 3.293014e-01 6.247553e-02 3.676668e-01 
2.579507e-01 2.140924e-01 1.254291e+00 -2.058092e+00 -6.943848e+01 -3.975009e-01 -6.615114e-01 -7.202022e-01 -2.585132e-01 -8.272446e-01 1.980182e-01 -1.630116e+00 1.379852e+00 -4.013109e+00 3.700824e+00 -7.590744e+00 3.732176e+01 3.401567e+01 2.802139e+01 2.261485e+01 2.593268e+01 2.709455e+01 2.518171e+01 2.898381e+01 2.618201e+01 2.859049e+01 2.966617e+01 2.762532e+01 3.247956e+01 2.653465e+01 3.458044e+01 2.726297e+01 3.312054e+01 2.927233e+01 3.124371e+01 3.184869e+01 2.948088e+01 3.470582e+01 2.817834e+01 3.549105e+01 2.858303e+01 3.265083e+01 3.066104e+01 3.018129e+01 3.268740e+01 2.860876e+01 3.641119e+01 3.049595e+01 4.503991e+01 5.729251e+01 2.380808e+00 5.281349e+00 -2.429033e+00 4.520947e-01 -8.075158e-01 1.961171e-01 -2.431243e-01 2.296109e-01 -6.868683e-02 2.727199e-01 1.512657e-02 3.148541e-01 1.006132e-01 3.534092e-01 
3.264125e-01 1.761633e-01 1.331314e+00 -1.914010e+00 -6.678351e+01 -2.802744e-01 -6.366237e-01 -5.484182e-01 -3.068391e-01 -4.026254e-01 3.432317e-03 -2.263499e-01 3.588367e-01 -2.098464e-02 1.786756e+00 2.086987e+00 -2.535579e+01 -2.743832e+01 -1.328822e+01 -1.885005e+01 -1.198560e+01 -1.874557e+01 -1.119448e+01 -1.782374e+01 -1.141654e+01 -1.604830e+01 -1.273498e+01 -1.426005e+01 -1.347335e+01 -1.270634e+01 -1.384488e+01 -1.206424e+01 -1.278068e+01 -1.198831e+01 -1.170996e+01 -1.213439e+01 -1.080681e+01 -1.230059e+01 -1.013055e+01 -1.170202e+01 -1.003667e+01 -9.874472e+00 -1.049788e+01 -8.244937e+00 -1.077596e+01 -6.815710e+00 -1.141590e+01 -7.090615e+00 -1.182083e+01 -1.164466e+01 -1.607866e+00 3.226060e-01 -1.008735e-01 4.641455e-01 -4.232488e-03 3.133656e-01 8.055664e-03 2.685595e-01 3.574808e-02 2.773873e-01 8.387954e-02 3.058840e-01 1.636869e-01 3.358459e-01 
3.584079e-01 1.506851e-01 1.355835e+00 -1.750960e+00 -6.384586e+01 -2.773576e-01 -6.706492e-01 -4.660907e-01 -4.120220e-01 -1.523291e-01 -3.617679e-01 6.479067e-01 -9.164697e-01 2.470578e+00 -2.590686e+00 1.088000e+01 -4.174510e+01 -4.337629e+01 -3.304402e+01 -2.865349e+01 -2.733267e+01 -3.184423e+01 -2.670334e+01 -3.319717e+01 -2.774093e+01 -3.202079e+01 -3.131203e+01 -3.050057e+01 -3.419524e+01 -2.876663e+01 -3.633137e+01 -2.922057e+01 -3.461429e+01 -3.094184e+01 -3.265780e+01 -3.325157e+01 -3.072815e+01 -3.594210e+01 -2.928659e+01 -3.640273e+01 -2.975830e+01 -3.313024e+01 -3.174104e+01 -3.023540e+01 -3.380242e+01 -2.838633e+01 -3.763506e+01 -2.897606e+01 -4.322621e+01 -5.624509e+01 -4.690091e+00 -4.539392e+00 2.134528e+00 2.162842e-01 6.435646e-01 3.026319e-01 1.824946e-01 2.602401e-01 9.560715e-02 2.627762e-01 1.166253e-01 2.886907e-01 1.917770e-01 3.173512e-01 
3.994714e-01 1.178485e-01 1.379008e+00 -1.625305e+00 -6.042574e+01 -1.628848e-01 -6.526269e-01 -3.980642e-01 -4.982489e-01 -1.878999e-01 -4.963289e-01 2.142062e-01 -8.387853e-01 9.240708e-01 -1.522819e+00 4.635916e+00 -1.210120e+01 -9.703838e+00 -1.141497e+01 -6.596093e+00 -8.848238e+00 -7.951375e+00 -8.705862e+00 -9.007492e+00 -9.124096e+00 -9.297503e+00 -1.036218e+01 -9.279123e+00 -1.147232e+01 -9.035428e+00 -1.238954e+01 -9.503040e+00 -1.192652e+01 -1.035688e+01 -1.137400e+01 -1.146830e+01 -1.074496e+01 -1.276235e+01 -1.029158e+01 -1.328084e+01 -1.067029e+01 -1.258868e+01 -1.144087e+01 -1.188574e+01 -1.227735e+01 -1.174792e+01 -1.355026e+01 -1.196150e+01 -1.515015e+01 -1.975148e+01 -4.363804e+00 -3.853129e+00 8.297489e-01 -3.526703e-01 4.375733e-01 8.717686e-02 1.981564e-01 1.855473e-01 1.398423e-01 2.297191e-01 1.603550e-01 2.652704e-01 2.331032e-01 2.931766e-01 
4.092034e-01 9.361244e-02 1.358479e+00 -1.480211e+00 -5.681867e+01 -1.482882e-01 -6.621656e-01 -3.489926e-01 -5.436248e-01 -1.614631e-01 -5.538643e-01 1.320331e-02 -6.876362e-01 -1.891220e-01 -2.255966e-01 -2.077054e+00 3.085736e-01 1.590661e+00 -8.241065e-01 6.472392e-01 -3.557604e-01 5.057333e-01 -2.649053e-01 3.299995e-01 -2.109120e-01 1.177832e-02 -2.058585e-01 -8.776861e-02 -2.010862e-01 -1.397544e-01 -2.457642e-01 -2.827369e-02 -2.193618e-01 5.203542e-02 -2.032483e-01 -2.573075e-02 -1.828291e-01 -1.290129e-01 -1.376526e-01 -3.234030e-01 -1.535600e-01 -6.158708e-01 -1.482206e-01 -7.975007e-01 -1.300495e-01 -1.071690e+00 2.531730e-01 -1.218571e+00 -3.692501e-01 2.648903e+00 -6.137248e-01 -6.644509e-01 1.498767e-01 -3.679610e-01 2.720370e-01 -1.237775e-02 1.959381e-01 1.315456e-01 1.582118e-01 1.970739e-01 1.763683e-01 2.401676e-01 2.451732e-01 2.700692e-01 
4.234525e-01 6.609586e-02 1.333212e+00 -1.370977e+00 -5.285070e+01 -6.701735e-02 -6.093365e-01 -3.170900e-01 -5.325094e-01 -1.948389e-01 -4.949836e-01 -1.006468e-01 -4.758878e-01 -2.624276e-01 -4.941399e-02 -1.418001e+00 7.474137e-01 3.125725e-01 -2.189417e-01 -3.129951e-03 -7.475220e-02 -3.426595e-02 -6.967885e-02 -5.192543e-02 -7.661582e-02 -1.197603e-01 -7.903076e-02 -1.174786e-01 -6.701382e-02 -1.102271e-01 -4.680882e-02 -4.832247e-02 1.963153e-02 3.013230e-02 4.841262e-02 4.513973e-02 5.599097e-02 5.507621e-02 4.290561e-02 3.269394e-02 -9.291277e-03 -6.595281e-02 -1.023794e-02 -1.381585e-01 2.397220e-02 -2.387579e-01 1.957417e-01 -1.650643e-01 -6.265690e-02 1.272037e+00 -4.497702e-01 -8.005465e-02 5.763912e-02 -1.779047e-01 1.786909e-01 -1.408459e-02 1.685064e-01 1.003992e-01 1.635726e-01 1.680767e-01 1.926049e-01 2.137537e-01 2.626835e-01 2.428375e-01 
4.114788e-01 4.527234e-02 1.275913e+00 -1.255156e+00 -4.874285e+01 -5.061969e-02 -5.762132e-01 -3.010883e-01 -5.016942e-01 -2.142694e-01 -4.310057e-01 -1.918264e-01 -3.163097e-01 -3.380168e-01 6.530323e-02 -7.271758e-01 2.719561e-01 -8.848252e-03 -6.007349e-02 2.191373e-02 -5.469653e-02 -1.793836e-02 -5.496982e-02 -4.618516e-02 -5.516711e-02 -8.767404e-02 -6.062465e-02 -9.452679e-02 -5.074999e-02 -8.379087e-02 -3.512531e-02 -3.990437e-02 8.137204e-03 9.414679e-03 3.833336e-02 3.088739e-02 4.489052e-02 3.935721e-02 3.579744e-02 2.176859e-02 8.502734e-03 -3.512387e-02 4.383142e-03 -8.484141e-02 3.666866e-02 -1.058567e-01 1.134424e-01 7.220477e-02 -1.813407e-01 6.555148e-01 -1.979128e-01 1.042750e-01 7.079384e-03 -5.916728e-02 1.130554e-01 1.502418e-03 1.406730e-01 8.384721e-02 1.549577e-01 1.453120e-01 1.888220e-01 1.903687e-01 2.567766e-01 2.191014e-01 
4.024938e-01 2.516253e-02 1.207877e+00 -1.143831e+00 -4.434439e+01 -4.267053e-03 -5.049796e-01 -2.758556e-01 -4.517628e-01 -2.165520e-01 -3.666849e-01 -1.989859e-01 -2.512570e-01 -2.793492e-01 -1.238669e-02 -4.501886e-01 8.717576e-02 -1.138284e-01 -3.148581e-02 -3.837265e-02 -3.910091e-02 -4.393120e-02 -4.327113e-02 -5.568724e-02 -4.337759e-02 -7.373777e-02 -4.417127e-02 -7.418913e-02 -3.629983e-02 -6.289031e-02 -2.348720e-02 -3.138494e-02 2.643424e-03 2.224818e-04 2.243171e-02 1.706141e-02 2.873948e-02 2.343054e-02 2.462770e-02 1.180338e-02 1.125522e-02 -1.648659e-02 8.797544e-03 -3.721019e-02 2.188715e-02 -2.703505e-02 4.008036e-02 8.707882e-02 -1.013695e-01 3.623124e-01 -1.069221e-01 1.395611e-01 1.513833e-02 1.873791e-02 8.873550e-02 3.375301e-02 1.212313e-01 8.395304e-02 1.463384e-01 1.307977e-01 1.862785e-01 1.689555e-01 2.543699e-01 1.931762e-01 
3.724624e-01 1.095187e-02 1.118865e+00 -1.040037e+00 -3.983509e+01 8.744270e-03 -4.486569e-01 -2.638843e-01 -3.969305e-01 -2.181794e-01 -3.052951e-01 -2.046734e-01 -1.926908e-01 -2.396346e-01 -3.359941e-02 -2.935625e-01 5.186270e-03 -1.429038e-01 -2.521430e-02 -6.526442e-02 -3.108932e-02 -5.142662e-02 -3.257916e-02 -5.270162e-02 -3.138933e-02 -5.907489e-02 -3.158036e-02 -5.775937e-02 -2.661142e-02 -4.815562e-02 -1.815767e-02 -2.727485e-02 -1.350206e-03 -5.946003e-03 1.390958e-02 8.078443e-03 2.032313e-02 1.433445e-02 1.970625e-02 9.164461e-03 1.347826e-02 -4.579920e-03 1.024434e-02 -1.128095e-02 1.317615e-02 9.553494e-03 6.216267e-03 8.946222e-02 -8.405729e-02 2.133837e-01 -4.774753e-02 1.207197e-01 1.664656e-02 4.999764e-02 6.632724e-02 5.065237e-02 9.858857e-02 8.198665e-02 1.278978e-01 1.177244e-01 1.690183e-01 1.501973e-01 2.337487e-01 1.714108e-01 
3.448011e-01 -1.299726e-03 1.016655e+00 -9.237414e-01 -3.508376e+01 3.267615e-02 -3.738295e-01 -2.393981e-01 -3.387017e-01 -2.054578e-01 -2.543919e-01 -1.815522e-01 -1.725203e-01 -1.762024e-01 -9.207916e-02 -1.824493e-01 -4.818041e-02 -1.403636e-01 -3.050565e-02 -9.932328e-02 -2.548272e-02 -7.255510e-02 -2.190356e-02 -5.797408e-02 -1.980992e-02 -4.987749e-02 -1.860607e-02 -4.295585e-02 -1.605647e-02 -3.491088e-02 -1.201375e-02 -2.339144e-02 -4.102249e-03 -1.117572e-02 4.293338e-03 -9.736706e-04 1.012625e-02 6.268625e-03 1.294435e-02 9.625278e-03 1.192071e-02 1.117188e-02 7.469649e-03 1.752446e-02 -8.763437e-04 3.488371e-02 -1.857118e-02 6.947565e-02 -4.077049e-02 1.026977e-01 1.819281e-03 8.372776e-02 3.351292e-02 6.858695e-02 5.834597e-02 7.156030e-02 8.227087e-02 8.773898e-02 1.119526e-01 1.096913e-01 1.540817e-01 1.327321e-01 2.164110e-01 1.478374e-01 
3.013943e-01 -9.293033e-03 9.021660e-01 -8.225574e-01 -3.024971e+01 4.302703e-02 -3.076576e-01 -2.228496e-01 -2.786389e-01 -1.944121e-01 -2.022866e-01 -1.621987e-01 -1.432718e-01 -1.255683e-01 -1.131500e-01 -1.006004e-01 -6.464935e-02 -1.401308e-01 -2.718208e-02 -1.101311e-01 -1.986809e-02 -7.542392e-02 -1.327285e-02 -5.348208e-02 -1.046592e-02 -3.849843e-02 -8.572159e-03 -2.975465e-02 -8.057190e-03 -2.384836e-02 -7.521332e-03 -1.932517e-02 -5.495435e-03 -1.361688e-02 -1.339090e-03 -6.279265e-03 3.974746e-03 1.278950e-03 8.634356e-03 9.862961e-03 1.053386e-02 2.019931e-02 5.081069e-03 3.368948e-02 -1.006614e-02 4.833388e-02 -3.563887e-02 5.708358e-02 -2.120763e-02 3.130601e-02 3.080394e-02 5.126033e-02 3.968372e-02 7.202761e-02 4.533012e-02 7.882247e-02 6.116518e-02 8.642294e-02 8.867229e-02 9.951550e-02 1.286717e-01 1.162094e-01 1.857131e-01 1.275691e-01 
2.599316e-01 -1.625600e-02 7.758527e-01 -7.057938e-01 -2.521555e+01 5.692475e-02 -2.330627e-01 -1.994375e-01 -2.167441e-01 -1.859058e-01 -1.449028e-01 -1.467070e-01 -1.055289e-01 -5.579202e-02 -1.561792e-01 5.586649e-02 -1.449151e-01 -1.696100e-01 -1.141020e-02 -1.476166e-01 -7.032843e-03 -9.025358e-02 7.879702e-04 -5.452673e-02 3.135425e-03 -2.518898e-02 4.495440e-03 -1.317935e-02 1.353611e-03 -1.037858e-02 -4.186547e-03 -1.744029e-02 -9.943841e-03 -2.066528e-02 -1.071847e-02 -1.562614e-02 -5.054450e-03 -6.826378e-03 4.631087e-03 1.049052e-02 1.378936e-02 3.478721e-02 7.527917e-03 6.161592e-02 -1.826562e-02 8.041624e-02 -7.556163e-02 6.010827e-02 -2.531101e-02 -1.156857e-01 1.221311e-01 1.381365e-02 6.156468e-02 9.612770e-02 2.889814e-02 9.811505e-02 3.646441e-02 8.967280e-02 6.516226e-02 9.049324e-02 1.053524e-01 9.890444e-02 1.581775e-01 1.050130e-01 
2.080380e-01 -2.103342e-02 6.433257e-01 -6.041845e-01 -2.013022e+01 6.734577e-02 -1.621213e-01 -1.776817e-01 -1.532568e-01 -1.757307e-01 -8.791184e-02 -1.359609e-01 -6.610412e-02 -3.929015e-03 -1.783853e-01 2.236342e-01 -1.926250e-01 -2.500082e-01 1.871129e-02 -1.454740e-01 3.029062e-03 -8.518185e-02 1.013334e-02 -4.882918e-02 1.193989e-02 -1.152677e-02 1.458046e-02 9.529943e-04 9.727986e-03 2.177080e-03 7.336960e-04 -1.203251e-02 -1.167387e-02 -2.342136e-02 -1.673314e-02 -2.040171e-02 -1.155227e-02 -1.270624e-02 1.869931e-04 7.892991e-03 1.436464e-02 4.237870e-02 8.269466e-03 7.852986e-02 -2.352305e-02 1.045597e-01 -1.088215e-01 7.643714e-02 -2.296015e-02 -2.472642e-01 1.801433e-01 6.530268e-03 6.617771e-02 1.137407e-01 6.953112e-03 1.050660e-01 9.741276e-03 8.517745e-02 3.823759e-02 7.821127e-02 7.594964e-02 8.133958e-02 1.220429e-01 8.435188e-02 
1.582000e-01 -2.577530e-02 5.014042e-01 -4.843853e-01 -1.488208e+01 7.819370e-02 -9.202623e-02 -1.515287e-01 -9.401071e-02 -1.888770e-01 -1.503438e-02 -1.951913e-01 5.363427e-02 2.104918e-03 -1.140593e-01 8.241220e-01 -5.709233e-01 -6.012026e-01 2.172581e-01 -1.416875e-01 3.923652e-02 -6.860728e-02 3.457791e-02 -3.432322e-02 3.928694e-02 3.447107e-02 3.823132e-02 3.910841e-02 3.148279e-02 3.686521e-02 1.292957e-02 -2.500399e-03 -8.145667e-03 -3.042231e-02 -1.499399e-02 -2.074726e-02 -1.081466e-02 -1.454186e-02 9.929961e-03 1.557454e-02 4.486869e-02 7.306577e-02 3.975145e-02 1.254009e-01 1.330106e-02 1.926801e-01 -1.681095e-01 3.127300e-01 -2.325594e-01 -8.583276e-01 5.569254e-01 1.361913e-01 5.187012e-02 2.107252e-01 -6.456530e-02 1.215661e-01 -3.523652e-02 7.608653e-02 9.553892e-03 6.183624e-02 4.966787e-02 6.103972e-02 8.961343e-02 6.128207e-02 
1.027883e-01 -2.984467e-02 3.576923e-01 -3.768812e-01 -9.618662e+00 9.104307e-02 -2.162651e-02 -1.198691e-01 -3.264030e-02 -1.843875e-01 5.066620e-02 -2.348986e-01 1.368674e-01 -6.961864e-02 -2.959014e-02 3.065238e-01 4.308589e-01 4.590701e-01 1.065711e+00 5.215495e-01 5.819431e-01 5.772977e-01 5.679537e-01 6.293521e-01 5.863386e-01 6.934542e-01 6.621589e-01 6.782941e-01 7.156321e-01 6.507073e-01 7.587396e-01 6.175256e-01 7.282510e-01 6.251801e-01 6.888409e-01 6.927664e-01 6.705639e-01 7.562563e-01 6.709676e-01 8.128163e-01 7.363671e-01 8.346247e-01 7.877907e-01 8.539862e-01 8.363537e-01 9.055434e-01 6.742044e-01 1.079371e+00 8.055422e-01 -2.745023e-01 8.919758e-01 4.401388e-01 -6.363701e-03 2.736845e-01 -1.246495e-01 1.184097e-01 -6.963749e-02 5.998140e-02 -1.620641e-02 4.283672e-02 2.152192e-02 4.003049e-02 5.276209e-02 3.881654e-02 
5.023213e-02 -3.305701e-02 2.051741e-01 -2.353618e-01 -4.232270e+00 9.652446e-02 3.507162e-02 -6.575452e-02 -4.892822e-04 -1.829681e-01 7.134537e-02 -4.653463e-01 2.825564e-01 -1.176523e+00 1.392979e+00 -6.789314e+00 1.022982e+01 1.577192e+01 1.288331e+01 1.135232e+01 9.409420e+00 1.108107e+01 9.511656e+00 1.101959e+01 1.026329e+01 1.040366e+01 1.150536e+01 1.035948e+01 1.211712e+01 1.037992e+01 1.235492e+01 1.110236e+01 1.160781e+01 1.159014e+01 1.085395e+01 1.205457e+01 1.053840e+01 1.237049e+01 1.054041e+01 1.201620e+01 1.121398e+01 1.097725e+01 1.179197e+01 1.036752e+01 1.224023e+01 1.015869e+01 1.289342e+01 1.065218e+01 1.319872e+01 2.123933e+01 5.828350e+00 3.626688e+00 -7.161170e-01 2.536011e-01 -3.566411e-01 3.795340e-02 -1.127024e-01 2.029931e-02 -3.091927e-02 1.770402e-02 1.900125e-03 1.719503e-02 2.114764e-02 1.526292e-02 
-4.247875e-03 -3.661003e-02 5.588859e-02 -1.113360e-01 1.130197e+00 1.120280e-01 9.808790e-02 -1.064758e-02 3.940349e-02 -1.517184e-01 9.765855e-02 -5.325913e-01 3.859162e-01 -1.593960e+00 1.762900e+00 -8.642880e+00 1.541882e+01 2.246492e+01 1.720087e+01 1.584471e+01 1.331899e+01 1.584458e+01 1.341473e+01 1.562016e+01 1.439661e+01 1.467821e+01 1.611278e+01 1.456568e+01 1.685957e+01 1.454968e+01 1.712728e+01 1.544228e+01 1.602494e+01 1.602974e+01 1.491146e+01 1.656147e+01 1.445181e+01 1.688314e+01 1.438083e+01 1.632406e+01 1.517382e+01 1.480197e+01 1.589803e+01 1.393799e+01 1.642219e+01 1.348774e+01 1.716882e+01 1.433997e+01 1.911811e+01 2.969207e+01 5.955356e+00 3.996590e+00 -1.018348e+00 1.499167e-01 -4.152661e-01 -2.847688e-02 -1.226424e-01 -1.482270e-02 -4.156040e-02 -7.367513e-03 -1.898475e-02 -6.307137e-03 -1.255858e-02 -8.587411e-03 
-5.614284e-02 -3.779105e-02 -1.020008e-01 6.223162e-02 6.547764e+00 1.021504e-01 1.511797e-01 9.992477e-02 6.757336e-02 9.174498e-02 1.111344e-02 2.169825e-01 -1.309131e-01 5.989931e-01 -5.997843e-01 2.687594e+00 -5.063077e+00 -6.778867e+00 -5.288833e+00 -4.627465e+00 -4.332638e+00 -4.880365e+00 -4.415241e+00 -4.937051e+00 -4.795887e+00 -4.748119e+00 -5.458625e+00 -4.798629e+00 -5.807648e+00 -4.897128e+00 -6.000497e+00 -5.305120e+00 -5.689706e+00 -5.638474e+00 -5.362377e+00 -5.959887e+00 -5.260536e+00 -6.198373e+00 -5.296924e+00 -6.111131e+00 -5.661493e+00 -5.627223e+00 -6.032444e+00 -5.386213e+00 -6.314881e+00 -5.301143e+00 -6.690610e+00 -5.839056e+00 -7.814584e+00 -1.187217e+01 -2.040642e+00 -1.577202e+00 4.005001e-01 -9.677967e-02 1.470088e-01 -6.236176e-03 2.691615e-02 -1.267515e-02 -1.065014e-02 -2.074017e-02 -2.750316e-02 -2.638974e-02 -4.164562e-02 -3.147301e-02 