# vtk DataFile Version 2.0
Comment goes here
ASCII

DATASET STRUCTURED_POINTS
FIELD FieldData 1
TIME 1 1 double
0.05600000
DIMENSIONS    256   32   1

ORIGIN    0.000   0.000   0.000
SPACING   0.0078125 0.0078125   1.000

POINT_DATA   8192
SCALARS Omega double
LOOKUP_TABLE default

5.890265e-08 -3.177222e-08 2.666750e-07 -1.019717e-07 -1.906658e-07 -1.822955e-06 -5.387898e-06 -4.969911e-06 1.208262e-06 1.470147e-06 3.253945e-06 7.728486e-06 2.850632e-05 3.253613e-05 -1.500649e-04 -1.181938e-04 -7.205513e-05 -1.753856e-04 -1.370363e-04 -1.036637e-04 -2.468090e-05 6.874981e-05 -1.315822e-05 -4.059936e-05 -1.279153e-04 -1.693840e-04 -1.739827e-04 -2.172840e-04 -2.509012e-04 -3.811846e-04 -4.216767e-04 -4.838488e-04 -4.232723e-04 -3.360472e-04 -5.391099e-04 -6.325819e-04 -7.984069e-04 -7.456749e-04 -7.038864e-04 -9.635425e-04 -1.265384e-03 -1.753195e-03 -1.571835e-03 -1.425602e-03 -1.721056e-03 -2.319479e-03 -3.248494e-03 -3.243322e-03 -3.266375e-03 -3.286690e-03 -4.226648e-03 -5.821648e-03 -6.042255e-03 -6.443494e-03 -5.617216e-03 -6.598397e-03 -9.368966e-03 -9.336897e-03 -8.121063e-03 1.139822e-03 3.680239e-03 -3.110546e-02 2.503008e-03 1.161784e-01 6.822771e-02 -2.586738e-02 -5.366492e-04 1.686433e-02 1.148205e-02 -2.490544e-03 -1.151776e-02 -7.471355e-03 -7.776211e-03 -6.968673e-03 -6.873667e-03 -7.973282e-03 -6.120786e-03 -6.285329e-03 -6.015466e-03 -5.628852e-03 -6.848086e-03 -5.431944e-03 -6.063233e-03 -6.319664e-03 -6.087932e-03 -7.852995e-03 -6.135043e-03 -7.289744e-03 -8.059175e-03 -7.717462e-03 -8.906954e-03 3.457433e-04 6.416609e-03 -8.540981e-03 -9.743930e-03 5.197185e-02 8.284864e-02 2.435525e-02 -9.752495e-03 5.520378e-04 7.437534e-03 -1.287665e-03 -9.370433e-03 -8.179047e-03 -8.372672e-03 -7.014911e-03 -6.651126e-03 -7.544747e-03 -5.958430e-03 -6.315361e-03 -5.872855e-03 -5.430871e-03 -6.665754e-03 -5.186202e-03 -6.102969e-03 -6.025937e-03 -5.776634e-03 -7.638001e-03 -5.698044e-03 -7.343126e-03 -7.471208e-03 -7.162981e-03 -8.494192e-03 6.288634e-04 6.312756e-03 -3.998206e-03 -1.132674e-02 3.938495e-02 8.738826e-02 3.950497e-02 -1.083256e-02 -5.057842e-03 5.836289e-03 -1.254425e-03 -8.762429e-03 -8.306282e-03 -8.603752e-03 -7.065066e-03 -6.707386e-03 -7.386501e-03 -5.822326e-03 -6.383064e-03 -5.782906e-03 -5.491878e-03 -6.574038e-03 -5.003424e-03 -6.212163e-03 -5.878168e-03 -5.799404e-03 -7.516714e-03 -5.475524e-03 -7.523809e-03 -7.237827e-03 -7.209253e-03 -8.237018e-03 1.114570e-03 5.827918e-03 -3.873516e-03 -1.293771e-02 3.974524e-02 9.264208e-02 3.939633e-02 -1.459593e-02 -4.956044e-03 6.672192e-03 -1.504709e-03 -8.764035e-03 -8.326721e-03 -8.639742e-03 -6.991389e-03 -6.854616e-03 -7.263004e-03 -5.729336e-03 -6.441261e-03 -5.678724e-03 -5.602077e-03 -6.459621e-03 -4.888855e-03 -6.282302e-03 -5.732836e-03 -5.880720e-03 -7.331663e-03 -5.332564e-03 -7.592633e-03 -6.992285e-03 -7.190943e-03 -7.751877e-03 1.518820e-03 5.029718e-03 -4.200477e-03 -1.022969e-02 4.256089e-02 9.079498e-02 3.681900e-02 -1.405973e-02 -3.011187e-03 7.651245e-03 -1.558824e-03 -7.856195e-03 -7.562461e-03 -7.629084e-03 -5.804507e-03 -5.906934e-03 -5.466750e-03 -4.368688e-03 -4.493414e-03 -3.515235e-03 -3.371940e-03 -2.982205e-03 -2.328490e-03 -2.367265e-03 -1.791463e-03 -1.679386e-03 -1.384176e-03 -1.199585e-03 -1.247120e-03 -9.355856e-04 -8.857426e-04 -7.327701e-04 -6.036920e-04 -5.726548e-04 -4.367079e-04 -4.671143e-04 -3.790918e-04 -3.841381e-04 -4.209083e-04 -3.065628e-04 -3.349221e-04 -2.797356e-04 -2.153409e-04 -2.084402e-04 -1.397049e-04 -1.174382e-04 -9.075279e-05 -6.979713e-05 -5.046557e-05 -4.530857e-05 -3.919748e-05 -3.027991e-05 -3.466016e-05 -2.629392e-05 -2.678444e-05 -2.832090e-05 -2.188055e-05 -2.393843e-05 -2.013117e-05 -1.771719e-05 -1.916240e-05 -1.578523e-05 -1.850376e-05 -1.459601e-05 -3.478803e-06 2.535860e-07 1.848055e-07 2.823438e-08 -5.726476e-08 
-1.297620e-02 -6.332143e-02 -2.846071e-01 -1.035153e+00 -2.841274e+00 -6.047193e+00 -8.290616e+00 -6.783265e+00 -6.548047e+00 -7.317974e+00 -1.007320e+01 -1.573968e+01 -2.199619e+01 -3.765074e+01 -4.027518e+01 -3.392878e+01 -4.723460e+01 -4.242226e+01 -4.987540e+01 -4.931316e+01 -2.159955e+01 -2.777788e+01 -2.149231e+01 -2.187441e+00 -8.095541e+00 -4.979698e+00 -4.330623e+00 -6.666201e+00 -2.374179e+00 -6.127719e+00 -3.163074e+00 -3.525707e+00 -4.424208e+00 -1.087768e+00 -4.506426e+00 -1.787924e+00 -2.971256e+00 -2.892858e+00 -2.186491e-01 -3.228940e+00 -7.636787e-01 -2.331979e+00 -1.720829e+00 2.015290e-01 -2.243628e+00 2.503026e-03 -1.657135e+00 -6.747151e-01 6.988868e-01 -1.204260e+00 7.790562e-01 -7.821991e-01 2.427190e-01 9.852215e-01 -3.884124e-01 1.290684e+00 -1.153218e-01 8.987712e-01 1.019140e+00 2.690407e-01 1.830128e+00 3.361743e-01 1.458489e+00 1.828413e+00 1.388256e+00 2.053921e+00 8.275522e-01 2.019029e+00 1.544125e+00 1.299050e+00 2.342291e+00 1.256036e+00 2.156325e+00 1.643452e+00 1.667323e+00 2.510149e+00 1.563147e+00 2.387502e+00 1.860668e+00 2.005414e+00 2.604124e+00 1.818607e+00 2.587910e+00 2.077046e+00 2.313765e+00 2.668792e+00 2.049620e+00 2.809780e+00 2.296794e+00 2.600552e+00 2.768920e+00 2.316395e+00 3.142345e+00 2.521412e+00 2.849674e+00 3.288961e+00 3.027037e+00 3.408738e+00 2.669255e+00 3.087274e+00 3.109221e+00 2.681461e+00 3.298945e+00 2.748920e+00 3.086558e+00 3.027647e+00 2.757666e+00 3.337739e+00 2.797772e+00 3.157199e+00 3.047854e+00 2.871551e+00 3.353202e+00 2.825748e+00 3.224227e+00 3.065844e+00 2.989562e+00 3.359683e+00 2.847730e+00 3.310763e+00 3.096559e+00 3.100477e+00 3.396617e+00 2.936623e+00 3.503964e+00 3.187260e+00 3.205891e+00 3.743236e+00 3.511599e+00 3.786835e+00 3.216772e+00 3.353563e+00 3.564099e+00 3.077724e+00 3.582547e+00 3.209622e+00 3.356952e+00 3.455844e+00 3.111922e+00 3.636988e+00 3.202221e+00 3.437585e+00 3.447284e+00 3.211149e+00 3.681124e+00 3.174682e+00 3.523270e+00 3.440056e+00 3.299969e+00 3.699200e+00 3.159015e+00 3.608003e+00 3.431223e+00 3.379027e+00 3.706306e+00 3.204180e+00 3.783176e+00 3.470153e+00 3.440646e+00 3.969508e+00 3.742852e+00 4.056092e+00 3.414301e+00 3.554193e+00 3.760969e+00 3.261748e+00 3.785256e+00 3.349495e+00 3.526735e+00 3.588118e+00 3.274878e+00 3.788322e+00 3.276975e+00 3.579262e+00 3.535522e+00 3.337422e+00 3.777163e+00 3.218750e+00 3.636117e+00 3.492065e+00 3.390287e+00 3.747166e+00 3.190238e+00 3.689868e+00 3.450312e+00 3.441292e+00 3.714088e+00 3.230560e+00 3.831366e+00 3.456110e+00 3.496547e+00 3.954237e+00 3.755768e+00 4.077389e+00 3.383862e+00 3.589562e+00 3.718857e+00 3.292881e+00 3.794004e+00 3.295692e+00 3.554030e+00 3.544651e+00 3.308361e+00 3.773669e+00 3.219438e+00 3.601204e+00 3.491446e+00 3.355913e+00 3.745425e+00 3.178817e+00 3.655582e+00 3.450322e+00 3.399286e+00 3.704495e+00 3.162408e+00 3.695505e+00 3.400643e+00 3.438539e+00 3.652937e+00 3.175370e+00 3.739245e+00 3.354993e+00 3.484740e+00 3.601682e+00 3.217620e+00 3.767397e+00 3.293061e+00 3.521128e+00 3.534812e+00 3.267369e+00 3.749649e+00 3.207236e+00 3.560482e+00 3.475715e+00 3.315844e+00 3.727040e+00 3.154720e+00 3.598695e+00 3.421535e+00 3.350712e+00 3.680488e+00 3.127108e+00 3.644543e+00 3.379032e+00 3.399980e+00 3.632401e+00 3.029987e+00 3.485364e+00 3.393781e+00 4.256486e+00 4.350078e+00 2.010892e+00 5.668607e-01 1.254095e-01 1.990211e-02 -1.961384e-03 
1.006179e-03 -1.141048e-01 -7.521109e-01 -3.363904e+00 -1.079529e+01 -2.291355e+01 -2.428136e+01 -1.647432e+01 -1.804919e+01 -1.494313e+01 -2.376530e+01 -2.874235e+01 -2.255895e+01 -6.796328e+01 -6.944646e+01 -3.458649e+01 -6.771770e+01 -5.100591e+01 -5.538856e+01 -7.887075e+01 -1.521539e+01 -3.897208e+01 -4.630794e+01 -2.487889e+00 -2.712200e+01 -7.825354e+00 -1.117576e+01 -2.379822e+01 -1.284832e+00 -2.314950e+01 -4.570434e+00 -1.229342e+01 -1.735542e+01 9.616643e-01 -1.904516e+01 -1.770092e+00 -1.264988e+01 -1.192447e+01 2.044852e+00 -1.551837e+01 2.515463e-01 -1.173320e+01 -7.453284e+00 1.910627e+00 -1.267875e+01 1.542173e+00 -1.023068e+01 -3.689452e+00 1.976658e+00 -9.390043e+00 3.006210e+00 -7.747204e+00 -4.083246e-01 1.478062e+00 -6.532113e+00 3.923111e+00 -5.685080e+00 1.747037e+00 1.165189e-01 -4.084214e+00 4.874760e+00 -4.884661e+00 3.069148e+00 2.010376e+00 -7.145145e-01 3.698775e+00 -3.199708e+00 4.966417e+00 -1.760443e-02 1.462303e-01 5.487565e+00 -1.422205e+00 4.924640e+00 3.259671e-02 1.830360e+00 5.421962e+00 -4.605775e-01 5.280725e+00 5.018027e-01 3.026157e+00 4.967424e+00 4.051389e-01 5.504175e+00 1.177684e+00 4.038583e+00 4.411873e+00 1.404347e+00 5.918718e+00 1.987728e+00 4.951707e+00 4.131528e+00 2.621795e+00 6.620485e+00 2.436951e+00 5.653667e+00 5.623316e+00 4.476919e+00 6.290456e+00 3.132083e+00 6.493598e+00 4.651257e+00 4.401200e+00 6.744309e+00 3.687519e+00 6.377651e+00 4.428937e+00 4.923270e+00 6.577599e+00 3.876213e+00 6.456185e+00 4.446246e+00 5.307649e+00 6.212427e+00 4.031721e+00 6.479311e+00 4.519737e+00 5.605952e+00 5.828175e+00 4.253219e+00 6.563349e+00 4.634910e+00 5.823386e+00 5.716068e+00 4.633302e+00 6.788265e+00 4.739452e+00 5.923544e+00 6.642297e+00 5.784290e+00 6.755857e+00 5.081095e+00 6.298278e+00 6.185045e+00 5.315023e+00 6.733168e+00 5.429473e+00 6.278675e+00 6.112488e+00 5.591430e+00 6.824209e+00 5.587301e+00 6.473120e+00 6.210831e+00 5.894932e+00 6.892716e+00 5.664914e+00 6.682360e+00 6.282394e+00 6.145826e+00 6.945157e+00 5.738255e+00 6.882141e+00 6.319567e+00 6.347183e+00 6.968841e+00 5.868317e+00 7.218194e+00 6.334714e+00 6.401066e+00 7.473845e+00 6.757304e+00 7.567323e+00 6.266864e+00 6.642019e+00 7.163549e+00 6.047694e+00 7.228099e+00 6.307526e+00 6.680081e+00 6.849232e+00 6.153245e+00 7.269537e+00 6.168895e+00 6.823955e+00 6.731028e+00 6.302459e+00 7.247258e+00 6.041906e+00 6.962535e+00 6.621938e+00 6.425769e+00 7.173125e+00 5.975833e+00 7.081659e+00 6.501753e+00 6.526352e+00 7.066173e+00 6.009171e+00 7.328412e+00 6.401810e+00 6.524854e+00 7.402793e+00 6.813249e+00 7.693277e+00 6.224829e+00 6.671993e+00 7.095501e+00 6.087627e+00 7.246261e+00 6.200455e+00 6.701315e+00 6.776665e+00 6.178447e+00 7.244217e+00 6.046002e+00 6.819640e+00 6.655088e+00 6.283861e+00 7.190523e+00 5.943846e+00 6.945040e+00 6.550807e+00 6.372750e+00 7.099971e+00 5.887281e+00 7.028238e+00 6.423526e+00 6.452968e+00 6.987999e+00 5.902487e+00 7.131642e+00 6.320943e+00 6.560242e+00 6.882144e+00 5.988321e+00 7.206371e+00 6.182155e+00 6.639563e+00 6.729048e+00 6.076123e+00 7.167445e+00 5.984506e+00 6.718790e+00 6.592824e+00 6.179187e+00 7.133975e+00 5.867215e+00 6.802333e+00 6.470187e+00 6.251779e+00 7.044992e+00 5.811006e+00 6.926249e+00 6.401167e+00 6.386262e+00 6.979046e+00 5.635390e+00 6.617119e+00 6.406450e+00 8.240924e+00 8.852719e+00 4.145275e+00 1.159362e+00 2.724163e-01 6.175192e-02 1.903449e-02 
-3.833603e-02 -2.000854e-01 -1.046996e+00 -4.883659e+00 -1.851757e+01 -4.193418e+01 -3.562486e+01 -1.827641e+01 -2.434077e+01 -1.265189e+01 -2.160390e+01 -1.396258e+01 3.016672e+01 4.775504e-01 3.340644e+00 5.026917e+01 1.735193e+01 3.117374e+01 4.242966e+01 -1.638481e+01 4.649350e+01 1.761111e+01 -4.133987e+01 1.102037e+01 -4.410251e+01 -4.009358e+00 -8.432370e+00 -3.924050e+01 7.117747e+00 -4.023506e+01 -1.179480e+00 -1.866436e+01 -3.128234e+01 7.767779e+00 -3.540697e+01 1.330358e+00 -2.345336e+01 -2.266702e+01 7.227313e+00 -3.078812e+01 3.026218e+00 -2.421411e+01 -1.484818e+01 5.276184e+00 -2.664466e+01 3.706277e+00 -2.298161e+01 -8.629978e+00 2.564109e+00 -2.217398e+01 4.257319e+00 -2.015089e+01 -3.333112e+00 -7.463419e-01 -1.775653e+01 4.715432e+00 -1.703343e+01 1.451378e-01 -5.077558e+00 -1.360995e+01 5.061784e+00 -1.671106e+01 1.528577e+00 -3.486589e+00 -9.467714e+00 1.509344e-01 -1.391990e+01 4.302079e+00 -8.358055e+00 -6.092184e+00 4.393120e+00 -1.058004e+01 3.659784e+00 -8.566043e+00 -2.818941e+00 3.393353e+00 -9.094763e+00 3.704324e+00 -8.033218e+00 -8.295435e-01 1.633588e+00 -7.635341e+00 3.469925e+00 -6.909272e+00 6.790961e-01 -3.474029e-01 -5.747276e+00 3.561741e+00 -5.532811e+00 1.878058e+00 -1.782010e+00 -3.505066e+00 3.768945e+00 -5.422734e+00 2.543583e+00 -1.955575e-01 -1.869722e+00 1.159512e+00 -4.111309e+00 3.696870e+00 -2.129911e+00 -1.405774e-01 3.204068e+00 -2.729681e+00 3.439623e+00 -2.191645e+00 1.067344e+00 2.563605e+00 -2.291700e+00 3.363632e+00 -2.083925e+00 1.669741e+00 1.503664e+00 -1.840348e+00 3.146744e+00 -1.803579e+00 1.976800e+00 4.385263e-01 -1.198761e+00 2.978476e+00 -1.512734e+00 2.052578e+00 -2.246011e-02 -5.103494e-01 2.599823e+00 -1.667440e+00 1.744733e+00 8.201402e-01 -2.932851e-01 9.535098e-01 -7.895178e-01 1.980248e+00 4.773191e-01 7.128237e-01 1.981029e+00 3.039962e-01 1.936160e+00 8.821334e-01 1.306306e+00 1.935276e+00 8.092802e-01 2.024915e+00 1.207763e+00 1.623496e+00 1.873207e+00 1.171099e+00 2.118381e+00 1.446462e+00 1.838002e+00 1.900151e+00 1.447759e+00 2.195156e+00 1.596299e+00 1.956439e+00 1.900835e+00 1.555402e+00 2.177003e+00 1.390391e+00 1.690153e+00 1.889984e+00 1.196708e+00 1.720474e+00 1.489853e+00 1.712285e+00 2.141577e+00 1.717795e+00 2.161280e+00 2.004334e+00 2.021591e+00 2.199312e+00 1.933285e+00 2.276695e+00 2.006667e+00 2.131575e+00 2.154208e+00 2.017007e+00 2.279526e+00 1.952748e+00 2.206305e+00 2.090292e+00 2.078206e+00 2.232189e+00 1.912435e+00 2.254527e+00 1.988613e+00 2.080700e+00 2.105511e+00 1.783700e+00 2.194671e+00 1.650661e+00 1.706058e+00 1.755950e+00 1.267229e+00 1.950141e+00 1.523778e+00 1.580347e+00 2.180081e+00 1.641399e+00 2.162873e+00 1.979685e+00 1.897589e+00 2.224207e+00 1.795752e+00 2.278369e+00 1.946634e+00 1.967592e+00 2.177581e+00 1.831982e+00 2.282989e+00 1.858886e+00 2.013955e+00 2.105822e+00 1.839214e+00 2.247528e+00 1.772898e+00 2.040721e+00 2.025709e+00 1.838419e+00 2.203007e+00 1.723023e+00 2.084451e+00 1.971771e+00 1.860204e+00 2.162376e+00 1.713507e+00 2.136765e+00 1.902030e+00 1.870617e+00 2.096225e+00 1.699955e+00 2.164536e+00 1.811023e+00 1.876505e+00 2.052175e+00 1.716840e+00 2.188395e+00 1.741650e+00 1.896440e+00 2.006201e+00 1.721382e+00 2.189062e+00 1.698263e+00 1.953019e+00 2.013269e+00 1.795023e+00 2.227036e+00 1.679307e+00 1.898076e+00 1.943999e+00 2.504103e+00 3.722435e+00 2.653159e+00 9.698242e-01 2.399779e-01 4.541636e-02 -3.854673e-03 
-1.434013e-02 -1.137036e-01 -6.493484e-01 -3.048816e+00 -1.339173e+01 -3.122960e+01 -2.095770e+01 -6.327575e+00 -1.171417e+01 -2.239565e+00 -3.211288e+00 9.963499e+00 3.476139e+01 -4.263484e+00 -4.845129e+00 1.983538e+00 1.035865e+01 5.407092e+00 6.136882e+00 -1.053560e+01 -7.631227e+00 4.524715e+01 2.299396e+00 2.320728e+01 -2.534386e+01 2.357476e+00 9.662322e-01 -2.356455e+01 8.833231e+00 -2.523694e+01 2.083572e+00 -1.068131e+01 -2.102241e+01 6.910099e+00 -2.362296e+01 2.124165e+00 -1.622313e+01 -1.641070e+01 5.188843e+00 -2.175113e+01 2.000963e+00 -1.808053e+01 -1.157305e+01 3.236887e+00 -1.963857e+01 1.508526e+00 -1.806737e+01 -7.902200e+00 -1.283761e-01 -1.789688e+01 5.272369e-01 -1.737042e+01 -4.980110e+00 -3.660758e+00 -1.573655e+01 1.117691e-01 -1.570341e+01 -2.983324e+00 -7.438308e+00 -1.336305e+01 -4.729536e-01 -1.614760e+01 -2.645885e+00 -7.515232e+00 -1.213559e+01 -5.376269e+00 -1.472661e+01 -1.501229e+00 -1.130151e+01 -8.825686e+00 -1.853687e+00 -1.231580e+01 -2.156478e+00 -1.154770e+01 -6.595365e+00 -2.928489e+00 -1.147739e+01 -2.441187e+00 -1.128575e+01 -5.361024e+00 -4.493650e+00 -1.057149e+01 -2.898146e+00 -1.057134e+01 -4.556942e+00 -6.256227e+00 -9.376277e+00 -3.226325e+00 -9.785718e+00 -4.125689e+00 -7.731807e+00 -8.084634e+00 -3.848367e+00 -1.022979e+01 -4.208560e+00 -7.635288e+00 -8.399481e+00 -6.836388e+00 -9.528699e+00 -3.890466e+00 -8.809665e+00 -6.067317e+00 -4.735743e+00 -8.302282e+00 -4.005939e+00 -8.512328e+00 -5.138817e+00 -5.280414e+00 -7.895056e+00 -4.169600e+00 -8.296604e+00 -4.803014e+00 -6.080149e+00 -7.439368e+00 -4.425533e+00 -7.949338e+00 -4.735717e+00 -6.845857e+00 -6.856571e+00 -4.698600e+00 -7.666925e+00 -4.872609e+00 -7.227117e+00 -6.454829e+00 -5.431394e+00 -7.979396e+00 -5.390790e+00 -7.383541e+00 -7.706982e+00 -7.486187e+00 -7.378036e+00 -5.597160e+00 -7.194274e+00 -5.796774e+00 -6.095684e+00 -6.389697e+00 -5.551281e+00 -6.572551e+00 -5.403029e+00 -6.242831e+00 -5.970228e+00 -5.685248e+00 -6.304740e+00 -5.407731e+00 -6.399916e+00 -5.636763e+00 -5.843157e+00 -6.111953e+00 -5.473200e+00 -6.436020e+00 -5.403766e+00 -6.010359e+00 -5.984490e+00 -5.595667e+00 -6.477383e+00 -5.462238e+00 -6.484831e+00 -6.288372e+00 -6.039974e+00 -7.204618e+00 -7.142129e+00 -7.564242e+00 -6.125506e+00 -6.369109e+00 -6.465135e+00 -5.522745e+00 -6.529924e+00 -5.479372e+00 -5.976477e+00 -5.952113e+00 -5.382311e+00 -6.422602e+00 -5.290552e+00 -6.028665e+00 -5.852409e+00 -5.476128e+00 -6.383985e+00 -5.194548e+00 -6.119243e+00 -5.787156e+00 -5.561317e+00 -6.342091e+00 -5.160525e+00 -6.212922e+00 -5.753904e+00 -5.689404e+00 -6.362806e+00 -5.374756e+00 -6.617248e+00 -6.065993e+00 -6.186359e+00 -7.275466e+00 -7.137875e+00 -7.457912e+00 -6.031774e+00 -6.571184e+00 -6.334711e+00 -5.676560e+00 -6.553183e+00 -5.376921e+00 -6.166165e+00 -5.836794e+00 -5.595612e+00 -6.392645e+00 -5.217195e+00 -6.239394e+00 -5.737434e+00 -5.696284e+00 -6.315771e+00 -5.201246e+00 -6.354251e+00 -5.692013e+00 -5.809693e+00 -6.241075e+00 -5.240816e+00 -6.431954e+00 -5.624002e+00 -5.920458e+00 -6.151724e+00 -5.332191e+00 -6.516260e+00 -5.560520e+00 -6.042538e+00 -6.068970e+00 -5.467593e+00 -6.549310e+00 -5.468188e+00 -6.140194e+00 -5.952894e+00 -5.603898e+00 -6.453370e+00 -5.324104e+00 -6.243496e+00 -5.829948e+00 -5.726176e+00 -6.377473e+00 -5.264306e+00 -6.335286e+00 -5.726044e+00 -5.820521e+00 -6.256223e+00 -5.253068e+00 -6.435362e+00 -5.629878e+00 -5.910519e+00 -6.115928e+00 -5.043394e+00 -6.099204e+00 -5.741227e+00 -7.423462e+00 -6.486107e+00 -1.559042e+00 -3.197464e-04 4.821683e-02 1.857810e-02 4.765794e-03 
-9.525910e-03 -4.462405e-02 -2.370467e-01 -1.159603e+00 -4.892281e+00 -9.117294e+00 -2.713604e+00 1.778681e+00 4.717563e-01 3.255392e+00 3.892221e+00 1.857712e+00 -3.404574e+01 -3.132044e+01 -1.985586e+01 -3.193444e+01 -2.359557e+01 -2.646759e+01 -3.093870e+01 -1.454096e+01 -3.959215e+01 -3.809787e+01 8.669621e+00 8.811390e+00 -1.933686e+00 3.346537e+00 2.947351e+00 -2.245456e+00 2.845081e+00 -3.256169e+00 1.745173e+00 -1.651348e+00 -3.536758e+00 1.088895e+00 -3.963321e+00 5.222535e-01 -3.655504e+00 -3.416719e+00 8.301528e-02 -4.355926e+00 -3.709778e-01 -4.541455e+00 -2.949632e+00 -5.974602e-01 -4.428144e+00 -1.052551e+00 -4.861648e+00 -2.696171e+00 -1.851894e+00 -4.825498e+00 -1.929825e+00 -5.293575e+00 -2.688416e+00 -3.051561e+00 -4.956666e+00 -2.411094e+00 -5.226321e+00 -2.694117e+00 -4.073274e+00 -4.835330e+00 -2.996271e+00 -5.654760e+00 -2.944472e+00 -4.590741e+00 -5.498437e+00 -4.614509e+00 -5.728078e+00 -3.322778e+00 -5.447977e+00 -4.475391e+00 -3.663104e+00 -5.216855e+00 -3.577063e+00 -5.489297e+00 -4.148782e+00 -4.024094e+00 -5.163953e+00 -3.801173e+00 -5.459419e+00 -4.031653e+00 -4.441298e+00 -5.066103e+00 -4.021719e+00 -5.360138e+00 -4.046717e+00 -4.908627e+00 -4.948484e+00 -4.273317e+00 -5.326331e+00 -4.219089e+00 -5.378640e+00 -4.912985e+00 -4.795832e+00 -5.681277e+00 -4.519873e+00 -5.878616e+00 -5.774580e+00 -5.886201e+00 -5.705317e+00 -4.809791e+00 -5.956191e+00 -4.828484e+00 -5.200057e+00 -5.346412e+00 -4.795710e+00 -5.686027e+00 -4.639905e+00 -5.323401e+00 -5.211470e+00 -4.885518e+00 -5.552549e+00 -4.643578e+00 -5.460242e+00 -5.055934e+00 -4.980274e+00 -5.406957e+00 -4.721033e+00 -5.561303e+00 -4.892950e+00 -5.102352e+00 -5.318400e+00 -4.845169e+00 -5.633173e+00 -4.884918e+00 -5.466368e+00 -5.481300e+00 -5.071923e+00 -6.058434e+00 -5.848719e+00 -6.246961e+00 -5.430600e+00 -5.332577e+00 -5.812026e+00 -4.932357e+00 -5.667131e+00 -5.159842e+00 -5.259663e+00 -5.521458e+00 -4.879419e+00 -5.734486e+00 -5.069164e+00 -5.377655e+00 -5.463510e+00 -5.010845e+00 -5.812983e+00 -4.982123e+00 -5.517188e+00 -5.425757e+00 -5.142402e+00 -5.844673e+00 -4.929798e+00 -5.658436e+00 -5.399491e+00 -5.273970e+00 -5.871751e+00 -5.015998e+00 -5.986657e+00 -5.540917e+00 -5.473012e+00 -6.361286e+00 -6.049531e+00 -6.571811e+00 -5.482637e+00 -5.731756e+00 -5.971400e+00 -5.141749e+00 -6.014980e+00 -5.218332e+00 -5.566079e+00 -5.617518e+00 -5.113183e+00 -5.979330e+00 -5.081975e+00 -5.640985e+00 -5.528693e+00 -5.213216e+00 -5.954074e+00 -4.990062e+00 -5.732388e+00 -5.458894e+00 -5.297762e+00 -5.905573e+00 -4.947303e+00 -5.817588e+00 -5.397676e+00 -5.387882e+00 -5.870390e+00 -5.046431e+00 -6.085657e+00 -5.493599e+00 -5.580337e+00 -6.352566e+00 -6.075064e+00 -6.595071e+00 -5.431575e+00 -5.816715e+00 -5.898904e+00 -5.220012e+00 -6.034475e+00 -5.138073e+00 -5.645913e+00 -5.550283e+00 -5.208809e+00 -5.961431e+00 -5.008019e+00 -5.722555e+00 -5.464603e+00 -5.296232e+00 -5.910695e+00 -4.960269e+00 -5.821720e+00 -5.405834e+00 -5.380083e+00 -5.844447e+00 -4.952924e+00 -5.890837e+00 -5.329755e+00 -5.456874e+00 -5.763145e+00 -4.995611e+00 -5.967075e+00 -5.263353e+00 -5.547632e+00 -5.685787e+00 -5.086244e+00 -6.011031e+00 -5.169298e+00 -5.619540e+00 -5.579662e+00 -5.181816e+00 -5.963093e+00 -5.033737e+00 -5.696406e+00 -5.482232e+00 -5.276466e+00 -5.918064e+00 -4.961856e+00 -5.769952e+00 -5.393074e+00 -5.344623e+00 -5.831344e+00 -4.931296e+00 -5.853662e+00 -5.320744e+00 -5.427798e+00 -5.735176e+00 -4.763654e+00 -5.576585e+00 -5.343288e+00 -6.746950e+00 -6.504021e+00 -2.444982e+00 -4.595619e-01 -5.973860e-02 -4.690659e-03 -2.891878e-03 
1.946577e-04 -1.204077e-02 -7.212280e-02 -3.710621e-01 -1.389298e+00 -2.071596e+00 -4.857323e-01 7.398989e-01 7.613866e-01 1.480228e+00 1.316157e+00 -3.252687e+00 -2.645236e+01 -1.242619e+01 -4.394615e+00 -4.400656e+00 -4.383198e+00 -4.389923e+00 -4.395622e+00 -4.370987e+00 -7.833219e+00 -3.663814e+01 -7.402667e+00 -1.217951e+00 5.847407e-01 1.379755e+00 8.347732e-01 -4.177620e-01 4.810589e-01 2.820619e-02 8.492500e-01 -8.443330e-02 -8.410366e-01 -1.949748e-01 -5.091893e-01 3.528189e-01 -4.480791e-01 -7.366215e-01 -4.766788e-01 -8.065035e-01 -5.759663e-02 -7.070717e-01 -6.354047e-01 -6.647328e-01 -9.963398e-01 -3.811872e-01 -8.887960e-01 -5.872873e-01 -8.306130e-01 -1.127630e+00 -6.505237e-01 -1.051708e+00 -6.251342e-01 -9.976041e-01 -1.195065e+00 -8.446155e-01 -1.152015e+00 -7.170549e-01 -1.152610e+00 -1.204635e+00 -1.042043e+00 -1.300314e+00 -7.681450e-01 -1.012316e+00 -8.634806e-01 -1.014069e+00 -1.284672e+00 -9.821698e-01 -1.387917e+00 -1.175881e+00 -1.229503e+00 -1.342192e+00 -1.109922e+00 -1.405431e+00 -1.148955e+00 -1.303583e+00 -1.366254e+00 -1.203723e+00 -1.432768e+00 -1.171930e+00 -1.387850e+00 -1.380137e+00 -1.287045e+00 -1.450946e+00 -1.223567e+00 -1.469313e+00 -1.379606e+00 -1.360664e+00 -1.467812e+00 -1.292000e+00 -1.538413e+00 -1.384050e+00 -1.471096e+00 -1.523850e+00 -1.293513e+00 -1.389399e+00 -1.141741e+00 -1.353017e+00 -1.445802e+00 -1.430355e+00 -1.631114e+00 -1.406831e+00 -1.553782e+00 -1.501099e+00 -1.458974e+00 -1.577196e+00 -1.389578e+00 -1.575830e+00 -1.488007e+00 -1.490188e+00 -1.564112e+00 -1.416227e+00 -1.604599e+00 -1.474658e+00 -1.522850e+00 -1.554104e+00 -1.455725e+00 -1.624706e+00 -1.458764e+00 -1.557924e+00 -1.552126e+00 -1.494215e+00 -1.639404e+00 -1.471475e+00 -1.631298e+00 -1.574071e+00 -1.479154e+00 -1.489111e+00 -1.244081e+00 -1.465250e+00 -1.494462e+00 -1.585697e+00 -1.684407e+00 -1.511278e+00 -1.672207e+00 -1.550644e+00 -1.586480e+00 -1.622020e+00 -1.499926e+00 -1.677634e+00 -1.533561e+00 -1.604744e+00 -1.609567e+00 -1.529011e+00 -1.687769e+00 -1.515583e+00 -1.627910e+00 -1.601676e+00 -1.555376e+00 -1.688119e+00 -1.503703e+00 -1.651863e+00 -1.595756e+00 -1.578421e+00 -1.686950e+00 -1.518884e+00 -1.709584e+00 -1.603762e+00 -1.550763e+00 -1.535654e+00 -1.291212e+00 -1.514668e+00 -1.515996e+00 -1.645142e+00 -1.708063e+00 -1.554402e+00 -1.717911e+00 -1.564177e+00 -1.629286e+00 -1.633521e+00 -1.542911e+00 -1.706819e+00 -1.534529e+00 -1.640269e+00 -1.616033e+00 -1.563299e+00 -1.700796e+00 -1.514775e+00 -1.657454e+00 -1.603738e+00 -1.580414e+00 -1.689838e+00 -1.505608e+00 -1.675224e+00 -1.593255e+00 -1.596997e+00 -1.681022e+00 -1.524758e+00 -1.725362e+00 -1.594921e+00 -1.570435e+00 -1.530251e+00 -1.295514e+00 -1.518543e+00 -1.506109e+00 -1.659617e+00 -1.694835e+00 -1.570723e+00 -1.721025e+00 -1.547922e+00 -1.641146e+00 -1.620576e+00 -1.560900e+00 -1.701073e+00 -1.518693e+00 -1.653139e+00 -1.604815e+00 -1.577587e+00 -1.689752e+00 -1.507695e+00 -1.670894e+00 -1.593806e+00 -1.593138e+00 -1.675413e+00 -1.506072e+00 -1.686185e+00 -1.581229e+00 -1.606256e+00 -1.657888e+00 -1.513455e+00 -1.698971e+00 -1.566780e+00 -1.619207e+00 -1.639609e+00 -1.530209e+00 -1.705181e+00 -1.546827e+00 -1.631333e+00 -1.620511e+00 -1.552980e+00 -1.700066e+00 -1.521751e+00 -1.646781e+00 -1.605350e+00 -1.570978e+00 -1.688068e+00 -1.505601e+00 -1.660510e+00 -1.589306e+00 -1.582886e+00 -1.668477e+00 -1.495476e+00 -1.668493e+00 -1.569546e+00 -1.590877e+00 -1.637685e+00 -1.448693e+00 -1.605711e+00 -1.592400e+00 -1.880256e+00 -1.752011e+00 -8.034810e-01 -2.190935e-01 -4.258471e-02 -5.437817e-03 2.706452e-04 
1.036579e-03 -2.641312e-03 -9.191503e-03 -7.892704e-02 -2.743631e-01 -3.498124e-01 -1.382624e-01 1.833687e-01 2.338148e-01 3.947316e-01 1.101649e-01 -2.519295e+00 -1.385702e+01 -1.307877e+01 -3.949747e+00 -3.927197e+00 -3.927114e+00 -3.927113e+00 -3.927136e+00 -3.932238e+00 -1.040276e+01 -1.522246e+01 -6.268874e+00 -2.033230e+00 -8.542720e-03 4.379369e-01 1.279773e-01 -2.233358e-01 1.731025e-02 2.108363e-01 3.625581e-01 9.660540e-02 -3.078141e-01 -1.945615e-01 -4.080235e-02 1.905736e-01 6.689022e-02 -2.112957e-01 -2.415728e-01 -1.634956e-01 4.503394e-02 -1.176065e-03 -1.477475e-01 -2.578565e-01 -2.388216e-01 -7.188216e-02 -7.585660e-02 -1.119754e-01 -2.511366e-01 -2.754463e-01 -1.575391e-01 -1.472607e-01 -1.136365e-01 -2.461834e-01 -2.890598e-01 -2.181041e-01 -2.041059e-01 -1.386251e-01 -2.429065e-01 -2.814479e-01 -2.628923e-01 -2.295533e-01 5.706271e-02 1.216965e+00 2.962557e+00 2.166898e+00 4.141791e-01 -7.945481e-02 -2.569315e-01 -2.645875e-01 -3.040196e-01 -2.981834e-01 -2.559842e-01 -2.860103e-01 -2.615691e-01 -3.110711e-01 -3.071339e-01 -2.814148e-01 -2.999993e-01 -2.672791e-01 -3.198206e-01 -3.125006e-01 -3.021201e-01 -3.123112e-01 -2.804579e-01 -3.280147e-01 -3.132504e-01 -3.176270e-01 -3.206309e-01 -2.952881e-01 -3.337184e-01 -3.108258e-01 -3.306731e-01 -3.026395e-01 -8.703939e-02 1.038947e+00 2.580617e+00 1.831691e+00 2.756895e-01 -2.070521e-01 -3.360815e-01 -3.192128e-01 -3.509652e-01 -3.369632e-01 -3.334932e-01 -3.458338e-01 -3.189367e-01 -3.523227e-01 -3.354535e-01 -3.393875e-01 -3.458400e-01 -3.251515e-01 -3.566244e-01 -3.344553e-01 -3.453696e-01 -3.463169e-01 -3.333213e-01 -3.595097e-01 -3.323502e-01 -3.506600e-01 -3.465934e-01 -3.394509e-01 -3.600562e-01 -3.322736e-01 -3.555689e-01 -3.186619e-01 -1.252734e-01 9.971934e-01 2.472159e+00 1.743545e+00 2.404206e-01 -2.400842e-01 -3.533391e-01 -3.421954e-01 -3.690218e-01 -3.489897e-01 -3.546180e-01 -3.583847e-01 -3.399234e-01 -3.672401e-01 -3.448885e-01 -3.557389e-01 -3.556124e-01 -3.442773e-01 -3.682409e-01 -3.414645e-01 -3.583064e-01 -3.540609e-01 -3.481050e-01 -3.675209e-01 -3.389568e-01 -3.610755e-01 -3.525315e-01 -3.504895e-01 -3.652662e-01 -3.388426e-01 -3.634584e-01 -3.216721e-01 -1.336030e-01 9.916817e-01 2.453360e+00 1.727709e+00 2.343678e-01 -2.470432e-01 -3.548255e-01 -3.479013e-01 -3.734725e-01 -3.497910e-01 -3.587028e-01 -3.583951e-01 -3.455462e-01 -3.697073e-01 -3.438336e-01 -3.589580e-01 -3.553038e-01 -3.485351e-01 -3.685894e-01 -3.403735e-01 -3.611342e-01 -3.534957e-01 -3.509778e-01 -3.664699e-01 -3.385896e-01 -3.635412e-01 -3.516204e-01 -3.525258e-01 -3.634451e-01 -3.394138e-01 -3.652014e-01 -3.200158e-01 -1.359986e-01 9.943199e-01 2.455747e+00 1.730442e+00 2.368355e-01 -2.485813e-01 -3.525624e-01 -3.505204e-01 -3.738655e-01 -3.470494e-01 -3.599119e-01 -3.562437e-01 -3.482616e-01 -3.686189e-01 -3.410618e-01 -3.604290e-01 -3.535412e-01 -3.504600e-01 -3.665126e-01 -3.389989e-01 -3.628234e-01 -3.519352e-01 -3.525346e-01 -3.639211e-01 -3.386255e-01 -3.652969e-01 -3.503085e-01 -3.542637e-01 -3.610004e-01 -3.397383e-01 -3.672548e-01 -3.480632e-01 -3.556244e-01 -3.578304e-01 -3.423449e-01 -3.683094e-01 -3.449706e-01 -3.571024e-01 -3.550686e-01 -3.462070e-01 -3.677672e-01 -3.408910e-01 -3.588607e-01 -3.527983e-01 -3.487190e-01 -3.654418e-01 -3.379900e-01 -3.606494e-01 -3.504112e-01 -3.500661e-01 -3.617204e-01 -3.357871e-01 -3.609641e-01 -3.467839e-01 -3.499884e-01 -3.552899e-01 -3.263825e-01 -3.498788e-01 -3.528656e-01 -3.983609e-01 -3.683314e-01 -1.928503e-01 -6.442079e-02 -1.594315e-02 -3.066714e-03 -1.349070e-03 