# vtk DataFile Version 2.0
Comment goes here
ASCII

DATASET STRUCTURED_POINTS
FIELD FieldData 1
TIME 1 1 double
0.08900000
DIMENSIONS    256   32   1

ORIGIN    0.000   0.000   0.000
SPACING   0.0078125 0.0078125   1.000

POINT_DATA   8192
SCALARS Omega double
LOOKUP_TABLE default

5.743798e-07 1.842595e-07 2.351407e-06 2.566791e-07 -2.953999e-06 -1.149670e-05 2.637206e-05 6.207645e-05 7.715898e-05 1.082917e-04 1.468292e-04 2.186223e-04 5.642038e-04 1.983864e-04 -9.782080e-04 -1.072987e-03 -1.669362e-03 -2.038887e-03 -2.928122e-03 2.596037e-04 8.351093e-04 -2.271037e-03 -2.289090e-03 -7.855355e-04 -1.386933e-03 -1.258380e-03 -7.144881e-04 -1.027146e-03 -8.120934e-04 -1.417487e-03 -2.097304e-03 -1.829670e-03 -1.582145e-03 -9.898567e-04 -1.919810e-03 -3.103820e-03 -3.301036e-03 -2.540540e-03 -1.645661e-03 -2.824716e-03 -4.946351e-03 -6.316201e-03 -5.446378e-03 -4.431204e-03 -5.628177e-03 -8.987839e-03 -1.214574e-02 -1.199957e-02 -1.091140e-02 -1.137565e-02 -1.564614e-02 -2.150204e-02 -2.294931e-02 -2.289102e-02 -2.084539e-02 -2.458496e-02 -3.546965e-02 -3.288340e-02 -2.320270e-02 -2.591400e-03 -4.569063e-03 -9.352565e-02 7.188423e-02 3.972866e-01 1.884928e-01 -6.200112e-02 3.908509e-02 5.948830e-02 3.495676e-02 -1.601862e-02 -4.794824e-02 -2.984632e-02 -3.109242e-02 -2.861492e-02 -2.941475e-02 -3.251497e-02 -2.511131e-02 -2.507956e-02 -2.414121e-02 -2.305491e-02 -2.601074e-02 -2.111516e-02 -2.335019e-02 -2.441658e-02 -2.456931e-02 -2.944425e-02 -2.384217e-02 -2.733945e-02 -3.036992e-02 -2.850318e-02 -2.985963e-02 -6.102485e-03 2.682552e-03 -2.908058e-02 3.744433e-02 2.015373e-01 1.940287e-01 6.744069e-02 3.188839e-02 2.501177e-02 1.878151e-02 -1.386771e-02 -3.775634e-02 -3.202870e-02 -3.239073e-02 -2.704962e-02 -2.645122e-02 -2.835934e-02 -2.306903e-02 -2.333819e-02 -2.139806e-02 -2.016263e-02 -2.306767e-02 -1.914382e-02 -2.199953e-02 -2.168891e-02 -2.183022e-02 -2.705239e-02 -2.180610e-02 -2.608067e-02 -2.662627e-02 -2.528328e-02 -2.863728e-02 -5.096881e-03 7.173470e-03 -7.750543e-03 1.758391e-02 1.378996e-01 2.115028e-01 1.233785e-01 2.885167e-02 8.758568e-03 1.201857e-02 -1.348519e-02 -3.363371e-02 -3.214229e-02 -3.272379e-02 -2.669261e-02 -2.612225e-02 -2.684655e-02 -2.232778e-02 -2.306458e-02 -2.076728e-02 -1.994464e-02 -2.231656e-02 -1.850171e-02 -2.193455e-02 -2.099619e-02 -2.151800e-02 -2.628747e-02 -2.094470e-02 -2.610591e-02 -2.545408e-02 -2.468647e-02 -2.768921e-02 -4.205395e-03 7.245214e-03 -1.928342e-03 1.332391e-02 1.211099e-01 2.174111e-01 1.426620e-01 2.883716e-02 2.708066e-03 9.657492e-03 -1.401061e-02 -3.212632e-02 -3.211720e-02 -3.279001e-02 -2.659964e-02 -2.631665e-02 -2.599250e-02 -2.184677e-02 -2.295086e-02 -2.038390e-02 -1.999654e-02 -2.173961e-02 -1.804326e-02 -2.189929e-02 -2.046301e-02 -2.149839e-02 -2.550842e-02 -2.028636e-02 -2.604875e-02 -2.451447e-02 -2.440221e-02 -2.623206e-02 -3.136888e-03 6.283487e-03 1.963737e-04 1.498183e-02 1.205084e-01 2.204967e-01 1.460423e-01 2.913376e-02 5.014440e-03 1.141781e-02 -1.318853e-02 -2.837149e-02 -2.929213e-02 -2.927872e-02 -2.274779e-02 -2.257662e-02 -1.958143e-02 -1.655638e-02 -1.593143e-02 -1.267802e-02 -1.197255e-02 -9.961038e-03 -8.505630e-03 -8.313787e-03 -6.490806e-03 -6.143160e-03 -4.934790e-03 -4.362061e-03 -4.104260e-03 -3.239984e-03 -3.006662e-03 -2.391392e-03 -2.192987e-03 -2.010971e-03 -1.613383e-03 -1.609741e-03 -1.278208e-03 -1.223121e-03 -1.140216e-03 -8.830263e-04 -8.154895e-04 -6.557671e-04 -6.068765e-04 -5.224062e-04 -4.395280e-04 -4.580715e-04 -3.618384e-04 -3.406738e-04 -2.965797e-04 -2.362779e-04 -2.295285e-04 -1.826593e-04 -1.812622e-04 -1.544647e-04 -1.284159e-04 -1.325680e-04 -9.586721e-05 -5.871165e-05 -4.210275e-05 -1.892815e-05 2.141279e-05 -8.632597e-07 9.069184e-06 1.067976e-05 -1.301113e-05 -2.728058e-06 1.206462e-06 9.352052e-07 7.416793e-08 
-8.629156e-02 -3.617852e-01 -1.178825e+00 -3.051935e+00 -6.448188e+00 -1.147534e+01 -1.480796e+01 -1.220178e+01 -1.152010e+01 -1.396549e+01 -1.868704e+01 -2.677390e+01 -3.728340e+01 -5.480713e+01 -5.571648e+01 -5.279540e+01 -7.089136e+01 -6.453720e+01 -7.633487e+01 -6.525505e+01 -3.057270e+01 -4.478000e+01 -2.777705e+01 -2.208516e+00 -1.551082e+01 -8.693635e+00 -7.715836e+00 -1.140787e+01 -4.699665e+00 -1.114485e+01 -6.097103e+00 -6.542317e+00 -7.914219e+00 -2.763076e+00 -8.717875e+00 -4.102917e+00 -5.920032e+00 -5.573059e+00 -1.256006e+00 -6.666012e+00 -2.427422e+00 -5.011472e+00 -3.686472e+00 -2.190372e-01 -4.765976e+00 -1.040452e+00 -3.923212e+00 -2.108671e+00 3.491071e-01 -3.175402e+00 8.452204e-02 -2.751068e+00 -7.571700e-01 6.111734e-01 -1.834026e+00 1.064783e+00 -1.521357e+00 4.187001e-01 6.872508e-01 -5.594346e-01 2.147606e+00 -7.122845e-01 1.638618e+00 2.470968e+00 1.558056e+00 2.702525e+00 5.449362e-01 2.633507e+00 1.581630e+00 1.332683e+00 3.218712e+00 1.192797e+00 2.814243e+00 1.703082e+00 2.054883e+00 3.599295e+00 1.849159e+00 3.355121e+00 2.225406e+00 2.779385e+00 3.833075e+00 2.418259e+00 3.844005e+00 2.771844e+00 3.414602e+00 3.931448e+00 2.889792e+00 4.292786e+00 3.246420e+00 3.938190e+00 4.030266e+00 3.398765e+00 4.852737e+00 3.622647e+00 4.524270e+00 5.209467e+00 4.843578e+00 5.440582e+00 4.181981e+00 4.962648e+00 4.687362e+00 4.212247e+00 5.199399e+00 4.247403e+00 4.924071e+00 4.604819e+00 4.459074e+00 5.346924e+00 4.458663e+00 5.158540e+00 4.796396e+00 4.778981e+00 5.440052e+00 4.624519e+00 5.374311e+00 4.966912e+00 5.065408e+00 5.475714e+00 4.758466e+00 5.608495e+00 5.122728e+00 5.317498e+00 5.577374e+00 5.008391e+00 5.996349e+00 5.358711e+00 5.672732e+00 6.403498e+00 6.181526e+00 6.679888e+00 5.650780e+00 5.936069e+00 6.028978e+00 5.387727e+00 6.126817e+00 5.463638e+00 5.819556e+00 5.796915e+00 5.432502e+00 6.170209e+00 5.471832e+00 5.926224e+00 5.800382e+00 5.590932e+00 6.181835e+00 5.451928e+00 6.042665e+00 5.807307e+00 5.728590e+00 6.181632e+00 5.465288e+00 6.167630e+00 5.827214e+00 5.865567e+00 6.209800e+00 5.595550e+00 6.451926e+00 5.957753e+00 6.150337e+00 6.858877e+00 6.612003e+00 7.166454e+00 6.178176e+00 6.298366e+00 6.459262e+00 5.805416e+00 6.490480e+00 5.855129e+00 6.166132e+00 6.177849e+00 5.817796e+00 6.496673e+00 5.782517e+00 6.256139e+00 6.131700e+00 5.925840e+00 6.488024e+00 5.723762e+00 6.341308e+00 6.088455e+00 6.006652e+00 6.447387e+00 5.697745e+00 6.414312e+00 6.045198e+00 6.080508e+00 6.409617e+00 5.781202e+00 6.632959e+00 6.109774e+00 6.275429e+00 6.953751e+00 6.780213e+00 7.282967e+00 6.222510e+00 6.395081e+00 6.524198e+00 5.902799e+00 6.546036e+00 5.868324e+00 6.215075e+00 6.199075e+00 5.886669e+00 6.515338e+00 5.773391e+00 6.285410e+00 6.144619e+00 5.962536e+00 6.492009e+00 5.726651e+00 6.356441e+00 6.097292e+00 6.028612e+00 6.446720e+00 5.714159e+00 6.429247e+00 6.052156e+00 6.093594e+00 6.391656e+00 5.735756e+00 6.490404e+00 5.995461e+00 6.155737e+00 6.323537e+00 5.798638e+00 6.544406e+00 5.922993e+00 6.218673e+00 6.250054e+00 5.883766e+00 6.549887e+00 5.819856e+00 6.284713e+00 6.186536e+00 5.955458e+00 6.523154e+00 5.748427e+00 6.345561e+00 6.123062e+00 6.013952e+00 6.471528e+00 5.707016e+00 6.395092e+00 6.059142e+00 6.096420e+00 6.420702e+00 5.560301e+00 6.144436e+00 6.102175e+00 7.511079e+00 7.708695e+00 4.129467e+00 1.524001e+00 4.630967e-01 1.108912e-01 1.317702e-03 
-7.609904e-02 -6.266088e-01 -2.615402e+00 -8.074986e+00 -1.923361e+01 -3.455613e+01 -3.742746e+01 -2.679243e+01 -2.622995e+01 -2.483590e+01 -3.647962e+01 -3.901565e+01 -3.940889e+01 -9.663714e+01 -8.915149e+01 -4.829506e+01 -8.821414e+01 -6.781055e+01 -7.973702e+01 -1.008295e+02 -2.037994e+01 -5.985213e+01 -6.048995e+01 -5.827375e+00 -4.209763e+01 -1.251336e+01 -1.947407e+01 -3.503354e+01 -4.081968e+00 -3.555106e+01 -8.308045e+00 -2.026713e+01 -2.608653e+01 -7.906908e-01 -3.015953e+01 -4.483217e+00 -2.100423e+01 -1.857483e+01 1.073130e+00 -2.544550e+01 -1.484748e+00 -1.985346e+01 -1.223895e+01 1.737164e+00 -2.081372e+01 7.198859e-01 -1.767659e+01 -6.918112e+00 1.251951e+00 -1.660992e+01 2.422592e+00 -1.489644e+01 -2.619041e+00 -6.124770e-02 -1.267836e+01 3.920893e+00 -1.161043e+01 7.456432e-01 -2.057675e+00 -8.515756e+00 5.672457e+00 -1.055267e+01 3.128853e+00 1.481892e+00 -3.260890e+00 3.944497e+00 -7.230403e+00 6.247282e+00 -2.441493e+00 -1.934853e+00 7.004913e+00 -4.564294e+00 5.881717e+00 -2.410161e+00 1.059967e+00 7.129212e+00 -2.673871e+00 6.794056e+00 -1.258538e+00 3.462914e+00 6.657393e+00 -8.937358e-01 7.647547e+00 2.247325e-01 5.483328e+00 5.771713e+00 8.340980e-01 8.549289e+00 1.533527e+00 6.908516e+00 4.954135e+00 2.614156e+00 9.428205e+00 1.746778e+00 7.817416e+00 7.559751e+00 5.614084e+00 8.675773e+00 3.310250e+00 9.230361e+00 5.599774e+00 5.482297e+00 9.515214e+00 4.360137e+00 8.906215e+00 5.546016e+00 6.728963e+00 9.475667e+00 5.122689e+00 9.326355e+00 6.077491e+00 7.735082e+00 9.132314e+00 5.766262e+00 9.694254e+00 6.608713e+00 8.495587e+00 8.682867e+00 6.407130e+00 1.014200e+01 7.077213e+00 9.065951e+00 8.641833e+00 7.269496e+00 1.070970e+01 7.321408e+00 9.609623e+00 1.053058e+01 9.360368e+00 1.090589e+01 8.178693e+00 1.041607e+01 9.618200e+00 8.713595e+00 1.082739e+01 8.491056e+00 1.029020e+01 9.319307e+00 9.171115e+00 1.081942e+01 8.612269e+00 1.051004e+01 9.345547e+00 9.555643e+00 1.058459e+01 8.627845e+00 1.072166e+01 9.357857e+00 9.827502e+00 1.042873e+01 8.756890e+00 1.092143e+01 9.427874e+00 1.007273e+01 1.041304e+01 9.085132e+00 1.130241e+01 9.446960e+00 1.044371e+01 1.170149e+01 1.056108e+01 1.194116e+01 9.999127e+00 1.082618e+01 1.104324e+01 9.771474e+00 1.141606e+01 9.923221e+00 1.082188e+01 1.068060e+01 1.008234e+01 1.148380e+01 9.857718e+00 1.111016e+01 1.058810e+01 1.038205e+01 1.140757e+01 9.760191e+00 1.134206e+01 1.044938e+01 1.058926e+01 1.124779e+01 9.723948e+00 1.149335e+01 1.027781e+01 1.072488e+01 1.103991e+01 9.822169e+00 1.175305e+01 1.009298e+01 1.082782e+01 1.171005e+01 1.116152e+01 1.245280e+01 1.010948e+01 1.099009e+01 1.115241e+01 1.000466e+01 1.144288e+01 9.881907e+00 1.086574e+01 1.062221e+01 1.011082e+01 1.138183e+01 9.725252e+00 1.101075e+01 1.050597e+01 1.025653e+01 1.130306e+01 9.646682e+00 1.113084e+01 1.040439e+01 1.037987e+01 1.119953e+01 9.645407e+00 1.126233e+01 1.032065e+01 1.051161e+01 1.109621e+01 9.710204e+00 1.137330e+01 1.021861e+01 1.064238e+01 1.097388e+01 9.863983e+00 1.148770e+01 1.009762e+01 1.078914e+01 1.083990e+01 1.005100e+01 1.149259e+01 9.899060e+00 1.093826e+01 1.071551e+01 1.020757e+01 1.144781e+01 9.771016e+00 1.107619e+01 1.059163e+01 1.034458e+01 1.135934e+01 9.707583e+00 1.120250e+01 1.047772e+01 1.054355e+01 1.128550e+01 9.449185e+00 1.074961e+01 1.060319e+01 1.352070e+01 1.431707e+01 7.331019e+00 2.564316e+00 8.129492e-01 2.436764e-01 6.723320e-02 
-1.765144e-01 -8.052167e-01 -3.145761e+00 -1.056568e+01 -2.948271e+01 -5.712776e+01 -5.016932e+01 -2.828721e+01 -3.176010e+01 -2.032356e+01 -2.960596e+01 -1.351977e+01 3.933423e+01 2.673306e+00 4.816809e+00 6.139315e+01 2.368844e+01 4.047449e+01 5.317902e+01 -2.121611e+01 5.738019e+01 1.639903e+01 -5.530757e+01 1.044285e+01 -6.280937e+01 -5.878453e+00 -1.536429e+01 -5.447203e+01 6.850573e+00 -5.812695e+01 -3.372745e+00 -2.957626e+01 -4.471990e+01 8.372838e+00 -5.180466e+01 1.463447e-01 -3.663472e+01 -3.319367e+01 8.462693e+00 -4.619369e+01 2.464710e+00 -3.831309e+01 -2.282513e+01 6.207143e+00 -4.065466e+01 3.717668e+00 -3.678562e+01 -1.374582e+01 2.337988e+00 -3.509169e+01 4.568683e+00 -3.342664e+01 -6.636093e+00 -3.077628e+00 -2.947537e+01 5.216985e+00 -2.877583e+01 -1.531091e+00 -9.953627e+00 -2.305269e+01 6.101881e+00 -2.888442e+01 5.177939e-01 -7.431669e+00 -1.746902e+01 -2.138026e+00 -2.467861e+01 4.990675e+00 -1.574964e+01 -1.224284e+01 5.399266e+00 -1.911067e+01 3.667755e+00 -1.599416e+01 -6.547015e+00 4.115066e+00 -1.633015e+01 4.148020e+00 -1.468057e+01 -2.615895e+00 1.603613e+00 -1.354039e+01 4.537305e+00 -1.256400e+01 4.732904e-01 -1.611580e+00 -1.052625e+01 5.206803e+00 -1.063006e+01 2.306059e+00 -4.535256e+00 -7.503430e+00 5.249694e+00 -1.156264e+01 2.484569e+00 -2.196799e+00 -5.750157e+00 -1.065085e-01 -9.344389e+00 4.343732e+00 -5.560157e+00 -2.691791e+00 3.854535e+00 -6.402537e+00 3.680389e+00 -5.091442e+00 -1.324124e-01 3.040965e+00 -5.009634e+00 3.842930e+00 -4.244847e+00 1.340694e+00 1.596446e+00 -3.753986e+00 3.921797e+00 -3.298773e+00 2.196903e+00 1.203219e-01 -2.383565e+00 4.091403e+00 -2.533720e+00 2.642143e+00 -4.464573e-01 -9.816208e-01 3.787170e+00 -2.911423e+00 2.518721e+00 1.089882e+00 -7.488522e-01 8.627915e-01 -1.673721e+00 3.328823e+00 1.628623e-01 1.351684e+00 3.280973e+00 1.146973e-01 3.516539e+00 5.677873e-01 2.446627e+00 3.030846e+00 5.449787e-01 3.647570e+00 7.743244e-01 2.801003e+00 2.357245e+00 8.271305e-01 3.692444e+00 9.146123e-01 2.916392e+00 1.975925e+00 1.223315e+00 3.639800e+00 1.126094e+00 2.945443e+00 1.860440e+00 1.587876e+00 3.327664e+00 6.147681e-01 2.537366e+00 2.410148e+00 8.540012e-01 1.635002e+00 1.203344e+00 2.764856e+00 2.461570e+00 2.427632e+00 3.252354e+00 2.524059e+00 3.334570e+00 2.839601e+00 3.159956e+00 3.372596e+00 2.744696e+00 3.643954e+00 2.838080e+00 3.442438e+00 3.206760e+00 2.797298e+00 3.823223e+00 2.708330e+00 3.605858e+00 2.980352e+00 2.846464e+00 3.869997e+00 2.507360e+00 3.629877e+00 2.651994e+00 2.752307e+00 3.572845e+00 1.768643e+00 2.991348e+00 1.970290e+00 1.662752e+00 2.582848e+00 1.457950e+00 2.712562e+00 2.545820e+00 2.623481e+00 3.152590e+00 2.469159e+00 3.251354e+00 2.732091e+00 2.937062e+00 3.167679e+00 2.533162e+00 3.274260e+00 2.723168e+00 2.956460e+00 3.105416e+00 2.549457e+00 3.241283e+00 2.727196e+00 2.959414e+00 3.078124e+00 2.588996e+00 3.227041e+00 2.749792e+00 2.967263e+00 3.073716e+00 2.625169e+00 3.224095e+00 2.770447e+00 2.977339e+00 3.080293e+00 2.689421e+00 3.259896e+00 2.794969e+00 3.011369e+00 3.076623e+00 2.755516e+00 3.289343e+00 2.762677e+00 3.038058e+00 3.068161e+00 2.802190e+00 3.314196e+00 2.740748e+00 3.076017e+00 3.062359e+00 2.853939e+00 3.325578e+00 2.728220e+00 3.132251e+00 3.063754e+00 2.943395e+00 3.370857e+00 2.694642e+00 3.015786e+00 3.027420e+00 4.044469e+00 5.433825e+00 3.801012e+00 1.640216e+00 5.627871e-01 1.569132e-01 -3.510194e-03 
-8.813863e-02 -4.625581e-01 -1.929200e+00 -6.696047e+00 -2.182476e+01 -4.472865e+01 -3.126240e+01 -1.133336e+01 -1.624222e+01 -7.771311e+00 -6.818852e+00 1.058072e+01 4.178246e+01 -5.188461e+00 -7.580533e+00 1.007302e+00 1.102315e+01 4.612051e+00 7.082493e+00 -1.567751e+01 -1.161038e+01 5.517783e+01 2.277367e+00 3.195556e+01 -3.556399e+01 3.010808e+00 -1.279071e+00 -3.341141e+01 9.117219e+00 -3.717917e+01 1.087497e+00 -1.826186e+01 -3.140799e+01 6.852665e+00 -3.459903e+01 1.382433e+00 -2.620420e+01 -2.533648e+01 5.383304e+00 -3.233036e+01 1.046679e+00 -2.930771e+01 -1.903918e+01 2.507025e+00 -3.026465e+01 3.396021e-01 -2.943601e+01 -1.314320e+01 -1.215091e+00 -2.785373e+01 -2.883867e-01 -2.790698e+01 -8.567226e+00 -6.160791e+00 -2.521040e+01 -8.853004e-01 -2.537655e+01 -5.562769e+00 -1.242992e+01 -2.198401e+01 -1.499171e+00 -2.655376e+01 -5.402291e+00 -1.273313e+01 -2.084873e+01 -1.033372e+01 -2.550399e+01 -3.653060e+00 -1.906695e+01 -1.569743e+01 -3.316766e+00 -2.042568e+01 -4.287900e+00 -1.922806e+01 -1.164589e+01 -4.694533e+00 -1.895560e+01 -4.549527e+00 -1.867476e+01 -9.197219e+00 -7.139613e+00 -1.746640e+01 -4.913755e+00 -1.753483e+01 -7.443999e+00 -1.010647e+01 -1.571869e+01 -4.985715e+00 -1.642177e+01 -6.641921e+00 -1.281035e+01 -1.398459e+01 -5.827891e+00 -1.778315e+01 -7.408895e+00 -1.276934e+01 -1.531430e+01 -1.204871e+01 -1.720607e+01 -6.948782e+00 -1.476157e+01 -1.112155e+01 -7.488039e+00 -1.408623e+01 -6.999635e+00 -1.393334e+01 -9.162220e+00 -8.291245e+00 -1.315385e+01 -7.200236e+00 -1.338038e+01 -8.372987e+00 -9.640941e+00 -1.230433e+01 -7.452020e+00 -1.270564e+01 -8.083026e+00 -1.093692e+01 -1.132131e+01 -7.680966e+00 -1.222959e+01 -8.133077e+00 -1.160514e+01 -1.058709e+01 -8.734586e+00 -1.306255e+01 -9.000924e+00 -1.208165e+01 -1.302792e+01 -1.297008e+01 -1.289352e+01 -9.221477e+00 -1.216857e+01 -9.449548e+00 -9.566057e+00 -1.064610e+01 -8.561004e+00 -1.111339e+01 -8.496271e+00 -9.795408e+00 -1.017321e+01 -8.622578e+00 -1.079557e+01 -8.453498e+00 -1.032975e+01 -9.779017e+00 -8.781569e+00 -1.055786e+01 -8.580685e+00 -1.059227e+01 -9.382600e+00 -9.048534e+00 -1.033880e+01 -8.805462e+00 -1.072303e+01 -9.316708e+00 -9.922317e+00 -1.106298e+01 -9.864543e+00 -1.177276e+01 -1.226594e+01 -1.314278e+01 -1.130427e+01 -1.025960e+01 -1.092206e+01 -9.188463e+00 -1.025866e+01 -9.266512e+00 -9.314901e+00 -9.850002e+00 -8.581892e+00 -1.016106e+01 -8.874729e+00 -9.295896e+00 -9.714432e+00 -8.613897e+00 -1.028152e+01 -8.673984e+00 -9.383513e+00 -9.675492e+00 -8.678452e+00 -1.035101e+01 -8.546336e+00 -9.523997e+00 -9.676003e+00 -8.824990e+00 -1.048419e+01 -8.789862e+00 -1.025593e+01 -1.040488e+01 -9.835003e+00 -1.223155e+01 -1.206274e+01 -1.266602e+01 -1.098418e+01 -1.057580e+01 -1.083935e+01 -9.237631e+00 -1.040593e+01 -9.145389e+00 -9.514374e+00 -9.758966e+00 -8.887155e+00 -1.022134e+01 -8.822433e+00 -9.661637e+00 -9.606984e+00 -9.051547e+00 -1.018353e+01 -8.711125e+00 -9.865698e+00 -9.471153e+00 -9.214852e+00 -1.008056e+01 -8.678300e+00 -1.005892e+01 -9.337489e+00 -9.384451e+00 -9.956012e+00 -8.735383e+00 -1.020472e+01 -9.182369e+00 -9.549616e+00 -9.797401e+00 -8.874751e+00 -1.030352e+01 -9.002750e+00 -9.711342e+00 -9.639917e+00 -9.050062e+00 -1.025587e+01 -8.791466e+00 -9.887140e+00 -9.495214e+00 -9.205241e+00 -1.015890e+01 -8.666103e+00 -1.003043e+01 -9.345054e+00 -9.327440e+00 -1.002610e+01 -8.613695e+00 -1.013040e+01 -9.196880e+00 -9.476114e+00 -9.854397e+00 -8.307880e+00 -9.708266e+00 -9.505626e+00 -1.196558e+01 -1.083147e+01 -3.570064e+00 -5.306829e-01 -3.350576e-02 2.322259e-02 1.851819e-03 
-5.001308e-02 -2.035142e-01 -8.173233e-01 -2.934917e+00 -1.006109e+01 -1.813840e+01 -8.548006e+00 -1.542474e-01 -1.382326e+00 1.008619e+00 1.409089e+00 -3.815141e+00 -4.601150e+01 -4.231061e+01 -2.795759e+01 -4.228423e+01 -3.248656e+01 -3.579107e+01 -4.099009e+01 -2.036886e+01 -5.083028e+01 -4.947239e+01 8.580432e+00 1.096544e+01 -4.197057e+00 4.420504e+00 2.589340e+00 -4.704868e+00 1.969324e+00 -6.487654e+00 1.681392e+00 -4.679867e+00 -7.016060e+00 -6.848381e-01 -7.214213e+00 -2.836835e-01 -7.627600e+00 -6.765351e+00 -1.743985e+00 -7.607035e+00 -1.814134e+00 -8.948026e+00 -6.039124e+00 -2.832173e+00 -8.093920e+00 -3.018679e+00 -9.352971e+00 -5.274003e+00 -3.929026e+00 -8.396793e+00 -3.895071e+00 -9.296499e+00 -4.805061e+00 -5.344762e+00 -8.566984e+00 -4.557598e+00 -9.041845e+00 -4.775814e+00 -7.187160e+00 -8.629813e+00 -5.470563e+00 -9.896429e+00 -5.310629e+00 -7.947474e+00 -9.788889e+00 -8.692070e+00 -1.070448e+01 -6.263186e+00 -9.633670e+00 -8.151542e+00 -6.294202e+00 -8.936317e+00 -6.182718e+00 -9.460744e+00 -7.347373e+00 -6.669453e+00 -8.883717e+00 -6.556859e+00 -9.457167e+00 -7.089243e+00 -7.430878e+00 -8.883867e+00 -6.959858e+00 -9.362746e+00 -7.050568e+00 -8.319558e+00 -8.797969e+00 -7.253041e+00 -9.238729e+00 -7.220612e+00 -9.126934e+00 -8.708837e+00 -7.912611e+00 -9.883746e+00 -7.771646e+00 -9.814252e+00 -1.020764e+01 -1.031870e+01 -1.044345e+01 -8.411302e+00 -1.015043e+01 -8.561386e+00 -8.519119e+00 -9.161630e+00 -8.064937e+00 -9.602680e+00 -8.053162e+00 -8.693731e+00 -8.999333e+00 -8.243340e+00 -9.485045e+00 -8.045362e+00 -9.094488e+00 -8.880254e+00 -8.434752e+00 -9.338617e+00 -8.164707e+00 -9.454866e+00 -8.705998e+00 -8.633982e+00 -9.282928e+00 -8.368730e+00 -9.721093e+00 -8.727590e+00 -9.287367e+00 -9.784730e+00 -8.918202e+00 -1.058198e+01 -1.048298e+01 -1.118806e+01 -1.028600e+01 -9.570786e+00 -1.045070e+01 -8.919779e+00 -9.704720e+00 -9.242099e+00 -9.045722e+00 -9.725078e+00 -8.559263e+00 -9.709393e+00 -9.031018e+00 -9.116756e+00 -9.547449e+00 -8.653918e+00 -9.840232e+00 -8.847037e+00 -9.233521e+00 -9.421653e+00 -8.780525e+00 -9.886145e+00 -8.701716e+00 -9.388890e+00 -9.351419e+00 -8.945803e+00 -9.949132e+00 -8.796178e+00 -9.922947e+00 -9.722573e+00 -9.522253e+00 -1.085824e+01 -1.055409e+01 -1.157807e+01 -1.024330e+01 -1.005478e+01 -1.045321e+01 -9.126630e+00 -1.017333e+01 -9.200986e+00 -9.472930e+00 -9.706129e+00 -8.876145e+00 -1.009999e+01 -8.969277e+00 -9.556628e+00 -9.589710e+00 -9.009455e+00 -1.012712e+01 -8.833850e+00 -9.688215e+00 -9.504065e+00 -9.125253e+00 -1.008436e+01 -8.748279e+00 -9.811264e+00 -9.421778e+00 -9.248402e+00 -1.005278e+01 -8.888416e+00 -1.026325e+01 -9.699762e+00 -9.726534e+00 -1.094885e+01 -1.073392e+01 -1.165357e+01 -1.008931e+01 -1.027837e+01 -1.037910e+01 -9.260963e+00 -1.025137e+01 -9.056129e+00 -9.612025e+00 -9.556597e+00 -9.028180e+00 -1.006164e+01 -8.811955e+00 -9.700747e+00 -9.439872e+00 -9.153064e+00 -1.001213e+01 -8.740513e+00 -9.837237e+00 -9.358056e+00 -9.278791e+00 -9.934743e+00 -8.736598e+00 -9.973539e+00 -9.282235e+00 -9.404553e+00 -9.845522e+00 -8.792987e+00 -1.008048e+01 -9.186760e+00 -9.523963e+00 -9.736099e+00 -8.918814e+00 -1.016644e+01 -9.069743e+00 -9.647065e+00 -9.623047e+00 -9.076331e+00 -1.015358e+01 -8.905063e+00 -9.776999e+00 -9.522428e+00 -9.209114e+00 -1.009664e+01 -8.802324e+00 -9.891533e+00 -9.418449e+00 -9.316151e+00 -1.000241e+01 -8.750814e+00 -9.976166e+00 -9.306880e+00 -9.446241e+00 -9.889525e+00 -8.498830e+00 -9.571764e+00 -9.417920e+00 -1.161164e+01 -1.133832e+01 -5.163927e+00 -1.479969e+00 -3.470359e-01 -6.805593e-02 -2.219371e-02 
-1.234470e-02 -6.861051e-02 -2.940865e-01 -1.145877e+00 -3.885849e+00 -6.312919e+00 -3.596628e+00 -5.425016e-01 2.452998e-01 1.301949e+00 1.132214e+00 -5.572256e+00 -3.507218e+01 -1.774673e+01 -6.976634e+00 -6.976685e+00 -6.956687e+00 -6.964006e+00 -6.969872e+00 -6.936425e+00 -9.492477e+00 -4.777553e+01 -1.549917e+01 -5.835901e+00 -3.048305e-01 2.115605e+00 9.575334e-01 -1.441011e+00 -1.775345e-01 -5.277206e-01 1.504689e+00 -5.277712e-01 -2.131332e+00 -1.497650e+00 -1.599063e+00 3.582436e-01 -1.199528e+00 -1.817616e+00 -1.833969e+00 -2.083164e+00 -5.217272e-01 -1.695676e+00 -1.528122e+00 -2.010951e+00 -2.417783e+00 -1.216493e+00 -2.069853e+00 -1.343854e+00 -2.125374e+00 -2.629234e+00 -1.730491e+00 -2.358082e+00 -1.351943e+00 -2.295989e+00 -2.738401e+00 -2.092651e+00 -2.553570e+00 -1.522015e+00 -2.548377e+00 -2.744662e+00 -2.476208e+00 -2.895546e+00 -1.566045e+00 -2.045340e+00 -1.287517e+00 -1.574294e+00 -2.417015e+00 -2.006822e+00 -3.022853e+00 -2.651315e+00 -2.776350e+00 -2.961432e+00 -2.423214e+00 -3.046772e+00 -2.516854e+00 -2.816152e+00 -2.995985e+00 -2.617016e+00 -3.108520e+00 -2.529368e+00 -2.967594e+00 -3.049188e+00 -2.796341e+00 -3.155274e+00 -2.618196e+00 -3.136361e+00 -3.063193e+00 -2.929435e+00 -3.182252e+00 -2.747089e+00 -3.290520e+00 -3.057808e+00 -3.129824e+00 -3.326006e+00 -2.724310e+00 -2.758202e+00 -1.898139e+00 -2.279414e+00 -2.862951e+00 -2.976121e+00 -3.543399e+00 -3.147500e+00 -3.338636e+00 -3.314915e+00 -3.149112e+00 -3.433662e+00 -3.044004e+00 -3.337874e+00 -3.281801e+00 -3.207416e+00 -3.417464e+00 -3.085493e+00 -3.425664e+00 -3.277266e+00 -3.277404e+00 -3.408539e+00 -3.160830e+00 -3.503614e+00 -3.255002e+00 -3.340103e+00 -3.412765e+00 -3.236726e+00 -3.560052e+00 -3.270605e+00 -3.489655e+00 -3.487479e+00 -3.180744e+00 -3.036096e+00 -2.209114e+00 -2.596032e+00 -3.035529e+00 -3.367844e+00 -3.723581e+00 -3.405647e+00 -3.624513e+00 -3.463955e+00 -3.444613e+00 -3.556457e+00 -3.297493e+00 -3.581787e+00 -3.400172e+00 -3.453265e+00 -3.517677e+00 -3.336740e+00 -3.614229e+00 -3.367414e+00 -3.487912e+00 -3.502674e+00 -3.383466e+00 -3.628336e+00 -3.343777e+00 -3.529000e+00 -3.497590e+00 -3.429555e+00 -3.642514e+00 -3.369924e+00 -3.647726e+00 -3.537587e+00 -3.365391e+00 -3.125226e+00 -2.325122e+00 -2.718103e+00 -3.093436e+00 -3.517381e+00 -3.766955e+00 -3.519292e+00 -3.739938e+00 -3.505577e+00 -3.561055e+00 -3.584627e+00 -3.416287e+00 -3.673324e+00 -3.424678e+00 -3.557422e+00 -3.547958e+00 -3.445294e+00 -3.671721e+00 -3.391120e+00 -3.583519e+00 -3.530509e+00 -3.474415e+00 -3.657555e+00 -3.373162e+00 -3.611295e+00 -3.516029e+00 -3.503448e+00 -3.649179e+00 -3.407000e+00 -3.708915e+00 -3.536307e+00 -3.432628e+00 -3.130897e+00 -2.368284e+00 -2.740476e+00 -3.084133e+00 -3.571029e+00 -3.751265e+00 -3.572835e+00 -3.761056e+00 -3.490559e+00 -3.600682e+00 -3.566286e+00 -3.472730e+00 -3.674219e+00 -3.412743e+00 -3.599447e+00 -3.538095e+00 -3.498484e+00 -3.662162e+00 -3.399984e+00 -3.630413e+00 -3.529905e+00 -3.529304e+00 -3.647860e+00 -3.403070e+00 -3.660790e+00 -3.520253e+00 -3.554941e+00 -3.627909e+00 -3.417594e+00 -3.684313e+00 -3.503901e+00 -3.576367e+00 -3.604062e+00 -3.445582e+00 -3.699271e+00 -3.478327e+00 -3.595881e+00 -3.580538e+00 -3.483802e+00 -3.698454e+00 -3.442822e+00 -3.617662e+00 -3.562266e+00 -3.512640e+00 -3.683115e+00 -3.418118e+00 -3.638296e+00 -3.542887e+00 -3.532162e+00 -3.656282e+00 -3.401087e+00 -3.647629e+00 -3.516501e+00 -3.550618e+00 -3.616172e+00 -3.317462e+00 -3.532996e+00 -3.575037e+00 -4.098820e+00 -3.883235e+00 -2.214684e+00 -8.855179e-01 -2.775456e-01 -7.010022e-02 -1.589565e-02 
-1.359879e-03 -1.964390e-02 -7.213744e-02 -3.525979e-01 -1.177838e+00 -1.812780e+00 -1.360588e+00 -3.608069e-01 1.240525e-01 5.703513e-01 4.162789e-01 -3.227458e+00 -2.000237e+01 -1.893497e+01 -6.273171e+00 -6.235253e+00 -6.235113e+00 -6.235098e+00 -6.235128e+00 -6.236886e+00 -1.274872e+01 -2.008572e+01 -1.268588e+01 -6.589749e+00 -1.569498e+00 4.752241e-01 1.239888e-01 -6.975835e-01 -3.485980e-01 1.997258e-01 8.622333e-01 2.822413e-01 -7.788966e-01 -8.137788e-01 -4.163159e-01 3.255518e-01 1.347745e-01 -5.340325e-01 -8.473062e-01 -6.590959e-01 -6.617301e-02 -7.209634e-02 -3.753186e-01 -8.247870e-01 -8.031468e-01 -3.708256e-01 -2.856983e-01 -2.875821e-01 -7.616489e-01 -8.666693e-01 -5.842002e-01 -4.829598e-01 -2.993242e-01 -7.187176e-01 -8.824060e-01 -7.292095e-01 -6.363673e-01 -3.758761e-01 -6.906695e-01 -8.348673e-01 -8.306429e-01 -7.081581e-01 -6.778418e-03 1.861707e+00 6.512553e+00 6.513947e+00 2.883595e+00 7.278005e-01 -4.401085e-01 -7.016433e-01 -9.072211e-01 -8.999604e-01 -7.521855e-01 -8.281915e-01 -7.522263e-01 -9.056633e-01 -9.123226e-01 -8.219339e-01 -8.692970e-01 -7.582046e-01 -9.196461e-01 -9.291547e-01 -8.844161e-01 -9.108867e-01 -7.948826e-01 -9.407690e-01 -9.328088e-01 -9.271486e-01 -9.365886e-01 -8.378072e-01 -9.564128e-01 -9.138667e-01 -9.522289e-01 -8.880342e-01 -3.962618e-01 1.612639e+00 5.673893e+00 5.485206e+00 2.176581e+00 1.545166e-01 -7.523062e-01 -9.010664e-01 -1.024727e+00 -1.012326e+00 -9.795976e-01 -1.020514e+00 -9.399987e-01 -1.018480e+00 -9.996983e-01 -9.918636e-01 -1.020423e+00 -9.529549e-01 -1.033050e+00 -1.000482e+00 -1.010717e+00 -1.025348e+00 -9.765565e-01 -1.047630e+00 -9.967214e-01 -1.023990e+00 -1.027269e+00 -9.932726e-01 -1.050778e+00 -9.870010e-01 -1.026929e+00 -9.461706e-01 -5.241038e-01 1.520236e+00 5.315467e+00 5.086792e+00 1.922918e+00 -3.502950e-02 -8.404039e-01 -9.935245e-01 -1.090123e+00 -1.060410e+00 -1.057590e+00 -1.069681e+00 -1.019522e+00 -1.074673e+00 -1.039133e+00 -1.052656e+00 -1.059729e+00 -1.028015e+00 -1.080131e+00 -1.032905e+00 -1.059065e+00 -1.058281e+00 -1.039635e+00 -1.082777e+00 -1.028347e+00 -1.065043e+00 -1.055717e+00 -1.045370e+00 -1.077296e+00 -1.021058e+00 -1.059762e+00 -9.639303e-01 -5.664012e-01 1.492736e+00 5.183718e+00 4.950070e+00 1.840412e+00 -9.619960e-02 -8.621933e-01 -1.030038e+00 -1.115815e+00 -1.075501e+00 -1.083925e+00 -1.080318e+00 -1.051582e+00 -1.094562e+00 -1.049781e+00 -1.074012e+00 -1.069370e+00 -1.055546e+00 -1.093028e+00 -1.042997e+00 -1.077728e+00 -1.066901e+00 -1.061723e+00 -1.090044e+00 -1.039448e+00 -1.081102e+00 -1.062747e+00 -1.062921e+00 -1.080704e+00 -1.033941e+00 -1.071542e+00 -9.672137e-01 -5.823061e-01 1.490131e+00 5.149803e+00 4.924644e+00 1.826106e+00 -1.113139e-01 -8.624379e-01 -1.046090e+00 -1.122203e+00 -1.077053e+00 -1.092234e+00 -1.079820e+00 -1.065887e+00 -1.096791e+00 -1.051354e+00 -1.081809e+00 -1.070346e+00 -1.067816e+00 -1.092898e+00 -1.048210e+00 -1.086388e+00 -1.069752e+00 -1.073311e+00 -1.089989e+00 -1.048963e+00 -1.091817e+00 -1.069259e+00 -1.077620e+00 -1.086119e+00 -1.051895e+00 -1.096237e+00 -1.067082e+00 -1.080316e+00 -1.081285e+00 -1.057132e+00 -1.099108e+00 -1.062878e+00 -1.082435e+00 -1.077169e+00 -1.064669e+00 -1.099204e+00 -1.056109e+00 -1.084223e+00 -1.073877e+00 -1.069609e+00 -1.095757e+00 -1.050943e+00 -1.086638e+00 -1.070766e+00 -1.072462e+00 -1.089650e+00 -1.046803e+00 -1.086616e+00 -1.065795e+00 -1.073650e+00 -1.079193e+00 -1.025702e+00 -1.060421e+00 -1.083611e+00 -1.187595e+00 -1.120850e+00 -7.313997e-01 -3.498737e-01 -1.306454e-01 -3.883715e-02 -1.207430e-02 