# vtk DataFile Version 2.0
Comment goes here
ASCII

DATASET STRUCTURED_POINTS
FIELD FieldData 1
TIME 1 1 double
0.09200000
DIMENSIONS    64   64   1

ORIGIN    0.000   0.000   0.000
SPACING   0.03125 0.03125   1.000

POINT_DATA   4096
SCALARS Omega double
LOOKUP_TABLE default

1.047678e+03 1.012904e+03 -1.323074e+03 2.231807e+02 3.031023e+02 -5.753812e+01 9.702880e+01 -1.128517e+02 3.891410e+02 3.280502e+02 -7.558511e+02 4.160536e+02 2.376487e+02 -4.751226e+01 4.644675e+00 1.028699e+02 3.289948e+02 -1.427146e+02 -3.823581e+02 3.768243e+02 -4.817705e+01 2.567276e+02 -1.326075e+02 4.555856e+02 -6.458415e+01 2.053855e+02 -1.357156e+02 2.922701e+01 -4.106705e+02 1.676384e+02 -4.396592e+02 5.310378e+02 2.017916e+02 -3.878698e+02 5.941904e+02 6.632973e-01 1.666412e+02 9.644566e+00 8.330288e+02 9.346506e+01 -3.640722e+02 -2.973912e+00 4.709567e+02 -2.868822e+02 7.371873e+02 2.865994e+01 4.031535e+02 -2.835933e+01 -5.377401e+01 2.757540e+01 3.532298e+02 -1.055569e+01 -1.185999e+02 -3.333485e+02 -3.389512e+02 -4.048397e+02 5.650308e+02 8.555467e+02 1.400490e+02 -1.625371e+03 -4.539806e+03 7.169013e+02 1.783409e+03 -7.485200e+02 
2.724509e+03 -2.287359e+03 -1.443441e+01 6.453018e+02 2.667122e+02 -6.636778e+02 -1.231091e+02 -9.434881e+01 -4.365725e+02 -1.995226e+02 2.372451e+02 -1.038963e+02 6.490921e+02 -8.150842e+00 2.927554e+02 -3.455729e+02 3.334779e+02 -5.343965e+02 1.478725e+02 -2.978101e+02 1.771113e+02 -6.059179e+02 1.428369e+02 1.131839e+02 2.157092e+02 -4.986102e+01 2.277389e+01 1.598086e+02 -4.029950e+02 9.789392e+01 1.680742e+02 -2.048116e+02 -4.260924e+01 -4.311484e+02 3.669960e+02 -3.604699e+02 -3.277487e+02 9.083162e+01 2.043578e+02 -8.125143e+01 -3.481916e+02 3.279146e+02 -2.155116e+02 -5.231548e+01 6.553895e+01 -7.748051e+01 -6.193384e+02 -2.950749e+02 -7.358470e+01 -2.020656e+02 -5.662045e+02 6.230195e+02 -5.400339e+02 8.575077e+02 4.685752e+02 1.939248e+03 -2.598580e+02 1.711469e+03 2.309565e+03 4.380658e+03 6.714692e+03 -2.488798e+02 -5.197908e+03 3.341152e+03 
-2.380856e+01 -2.901852e+03 1.388601e+03 -2.263698e+02 -5.420882e+02 -3.697155e+02 -1.212457e+02 -1.714801e+03 -1.083399e+03 -1.324319e+03 -6.496017e+02 -1.051888e+03 1.734938e+02 -8.105623e+02 -3.224806e+02 -2.935325e+02 -2.470350e+02 -4.714708e+01 3.731136e+02 -4.065453e+02 7.293753e+02 -4.090854e+01 9.220232e+02 2.240066e+02 5.213033e+02 5.115573e+02 7.110799e+02 5.999365e+02 1.056691e+03 7.678800e+02 5.590438e+02 -5.552343e+02 -2.528563e+02 -6.582021e+02 -6.008103e+02 -5.036546e+02 -5.648747e+02 -5.356132e+02 -8.381040e+02 -4.264255e+02 -2.977724e+02 -6.446818e+01 -7.745489e+02 5.627635e+02 -3.415727e+02 1.428137e+02 -5.035406e+02 1.789455e+02 4.311797e+02 1.112167e+02 -2.248973e+02 5.643547e+02 2.062866e+02 2.881501e+02 -3.286946e+02 1.790707e+03 3.693042e+03 4.696385e+03 3.943802e+03 2.045721e+03 2.788366e+03 7.990022e+02 -1.817830e+03 -1.180607e+03 
-5.572435e+03 5.117312e+03 -4.114495e+03 -2.921198e+02 1.216217e+03 9.961752e+02 -3.039897e+02 -7.943590e+02 -1.062221e+03 -1.035805e+03 -1.009148e+03 -6.411546e+02 -2.708299e+02 -4.390506e+02 -1.803142e+02 -9.515225e+01 -7.707569e+01 -4.782282e+00 1.690389e+02 -1.482235e+02 2.625590e+02 1.057733e+02 3.694411e+02 8.520995e+01 1.769380e+02 2.466169e+02 2.696338e+02 1.786543e+02 5.507480e+02 1.415564e+02 2.127701e+02 -2.499029e+02 -4.485094e+01 -2.800734e+02 -3.065883e+02 -1.528192e+02 -1.409169e+02 -2.655552e+02 -3.601518e+02 -1.770832e+02 -1.003547e+02 -1.109213e+02 -2.586370e+02 2.079768e+02 -1.423682e+02 4.541030e+01 -6.593267e+01 1.391656e+02 2.326450e+02 7.013754e+01 1.626273e+02 2.547967e+02 6.381641e+02 5.306695e+02 6.608667e+02 -2.800195e+03 -1.451996e+03 3.635428e+03 -2.748895e+03 -8.879840e+03 -2.806670e+03 2.178820e+02 3.478690e+03 -5.887712e+03 
-1.013487e+04 2.376247e+03 7.133585e+03 7.044964e+02 -1.064318e+03 2.206676e+03 -1.741952e+03 1.312415e+03 6.837852e+02 9.154908e+01 -1.075748e+02 -2.289005e+02 -1.577582e+02 7.290937e+01 6.220710e+01 -5.374172e+01 -2.592112e+01 -8.638332e+01 -3.463998e+01 -2.712224e+01 -4.211006e+01 1.066732e+01 -3.485533e+01 1.963563e+01 5.063508e+00 -1.149578e+01 5.630333e+01 -4.155224e+01 4.894756e+01 -1.625099e+02 -8.545246e+00 1.366200e+02 6.289017e+00 1.379316e+01 -3.597716e+00 -1.205848e+01 -5.707776e+00 -3.288634e+01 -3.813761e+01 1.153556e+01 -7.760762e+00 2.129887e+01 2.405023e+01 2.402036e+01 3.794185e+00 5.863475e+00 -3.620977e+01 -7.365748e+01 -1.181546e+02 -1.056197e+02 -2.004791e+02 -1.890056e+02 -4.158396e+02 -1.447184e+03 4.983306e+02 2.383833e+03 3.220281e+02 -4.831787e+03 -1.205511e+04 -1.206883e+04 1.469237e+03 -3.498604e+03 9.031497e+03 6.750069e+03 
1.840624e+03 2.453726e+02 3.973301e+03 -1.002961e+03 -7.229269e+02 -4.780699e+03 1.634053e+03 5.205834e+03 5.164005e+02 1.000004e+01 1.455756e+02 7.154164e+02 6.248354e+02 -3.091191e+02 -2.250316e+02 -1.253627e+02 -5.807608e+01 -5.392886e+00 4.702947e+00 2.721091e+01 5.666667e+01 6.353643e+00 1.663485e+01 -1.688128e+01 -2.257210e+01 -8.398785e+01 2.038100e+01 -1.843775e+00 -1.655460e+02 -6.810297e+02 -5.507545e+02 2.464395e+02 7.540227e+01 6.746306e+01 6.707105e+01 -7.877945e+01 8.174774e+00 4.429824e+02 1.875213e+02 -3.324221e+01 -3.501884e+00 5.304327e+00 2.295756e+00 -3.682383e+00 1.568567e+01 -3.206427e+00 7.034715e+01 3.378990e+01 5.723925e+01 7.811926e+01 1.659078e+02 2.399907e+02 8.456406e+02 2.140059e+03 2.443482e+03 1.640058e+03 -2.624655e+03 -9.063938e+03 -1.231118e+04 -6.814594e+03 3.255815e+03 7.111874e+03 1.046272e+04 4.246419e+03 
4.613330e+03 1.614919e+03 -6.186299e+03 -7.650770e+02 -2.428820e+02 -1.115781e+04 6.703213e+03 1.074074e+04 5.563859e+02 -9.223223e+02 -6.244057e+02 8.058018e+01 -3.375087e+02 3.248428e+02 1.325980e+02 4.188258e+00 -4.121121e+01 -1.911698e+02 -6.087141e+01 -3.501094e+01 -8.741389e+01 -2.200276e+01 -5.622721e+01 1.474388e+01 3.460828e+01 -5.458942e+01 -2.375099e+01 -1.654848e+02 -5.692902e+02 -1.225790e+03 -4.259979e+02 6.011824e+02 4.398684e+02 2.542056e+02 -8.408549e+01 8.653749e+01 4.432682e+01 -1.087319e+03 -8.700518e+02 -9.121134e+01 2.967753e+01 4.781457e+01 8.755918e+01 8.152982e+01 2.864208e+01 3.361942e+01 -7.957651e+01 -1.200434e+02 -1.799906e+02 -1.556716e+02 -2.344078e+02 -4.144665e+02 2.108954e+02 4.479101e+02 -1.164181e+03 4.249055e+02 -1.798353e+03 -3.203360e+03 -1.932968e+03 5.798197e+02 3.646158e+03 1.172589e+04 6.345406e+02 -1.714507e+03 
-1.248052e+03 -6.732690e+02 -7.704742e+03 -1.076347e+03 -1.221778e+03 -1.184207e+04 3.629759e+03 1.507213e+04 4.430159e+03 1.074429e+03 8.706916e+02 5.998194e+02 -1.430816e+03 -9.592034e+02 -4.015795e+02 1.016867e+02 9.312035e+01 1.492760e+02 6.390392e+01 1.112488e+02 2.253655e+02 1.534186e+02 -2.585688e+00 -1.411588e+02 -1.622181e+02 -1.933396e+02 -2.478640e+01 -6.977413e+02 -2.003580e+03 -1.323434e+03 1.059486e+03 5.963891e+02 7.249559e+02 7.969186e+02 4.166775e+02 -9.012296e+02 1.268024e+03 1.160976e+03 -1.595400e+02 -3.387901e+02 -3.450493e+02 1.404475e+02 -3.040997e+01 -3.931329e+01 -1.912831e+00 -1.004404e+02 9.224260e+01 6.056915e+01 -5.310341e+00 1.961478e+02 -9.426034e+01 -2.112475e+02 5.992331e+02 -9.644570e+02 1.594376e+03 3.804861e+01 -2.426525e+03 -1.353331e+03 -4.117002e+03 -1.411637e+03 3.690988e+03 2.315844e+03 3.223781e+03 -1.674652e+03 
-4.015522e+03 4.709922e+03 1.486029e+03 -1.222724e+04 1.193640e+03 -2.304985e+03 -3.523518e+03 -4.686617e+02 -3.457030e+03 -2.358981e+03 9.226742e+02 3.853191e+03 2.728861e+03 -5.416731e+02 -5.149623e+02 2.681758e+02 3.810706e+02 -8.458201e+02 -5.540706e+02 -7.726062e+01 -2.575075e+02 -2.455018e+02 -1.083855e+02 1.290171e+02 -1.135377e+02 -3.149252e+02 -4.009951e+02 -1.717780e+03 -2.509258e+03 9.747421e+02 2.961928e+03 1.304079e+03 1.459927e+03 7.989340e+02 5.767681e+02 -2.400941e+02 4.902746e+02 3.838628e+03 1.172308e+03 5.363112e+02 1.277624e+03 -3.577722e+01 7.659211e+01 8.664873e+01 -4.473446e+00 5.635426e+01 -2.158162e+02 -1.771513e+02 -1.241920e+02 -2.629733e+02 -5.238487e+02 -1.093547e+03 1.849983e+02 3.659956e+02 3.003076e+03 -3.629440e+03 -2.478925e+03 8.557726e+03 3.458419e+03 -4.062347e+02 3.180820e+03 -6.665678e+03 -2.428718e+03 8.300007e+03 
-1.110313e+04 1.242262e+04 2.569961e+03 -9.628278e+03 -2.219925e+03 3.599186e+03 -3.593980e+02 -3.533263e+03 -9.174685e+02 2.916203e+03 4.012567e+03 -3.659795e+03 -6.467109e+03 4.597489e+02 8.960782e+01 4.442714e+02 -1.244666e+03 -1.618927e+03 3.588608e+02 5.114687e+02 3.585430e+02 5.974581e+02 2.063643e+02 -7.033935e+02 -6.238738e+02 2.420420e+01 -3.011792e+02 -3.413827e+03 -1.854742e+03 2.460245e+03 2.998556e+02 1.706552e+03 2.553579e+03 2.201672e+03 -7.230730e+02 1.152852e+03 1.577373e+03 -3.021849e+03 -6.365332e+03 -9.092020e+02 8.077118e+01 -3.192374e+02 -4.224258e+01 2.964604e+01 1.528832e+02 1.351160e+01 1.967749e+02 -3.134682e+02 -4.226447e+02 -7.304199e+02 -1.458060e+03 -1.524610e+03 6.730913e+02 9.960750e+01 -1.849257e+03 1.153211e+03 1.203256e+03 2.950017e+03 7.258541e+03 -2.680839e+03 -1.968928e+03 4.559676e+02 -1.944512e+03 2.715587e+03 
-2.557018e+03 5.510663e+03 -8.113499e+03 4.490131e+02 2.290094e+02 2.548136e+03 8.603018e+03 2.866076e+03 5.647212e+03 -2.152760e+02 -6.560308e+03 1.422956e+03 4.278483e+03 -3.717228e+03 -1.229507e+03 3.514318e+02 5.520185e+03 3.684830e+03 9.037374e+02 -7.882766e+02 -3.026972e+02 -4.903294e+02 -1.643913e+03 -1.601613e+03 6.277874e+02 2.268136e+03 6.227161e+02 -3.277178e+03 -1.167609e+03 -3.884138e+02 -2.227773e+03 2.694925e+03 3.790872e+03 3.196277e+03 3.758406e+02 -8.967295e+02 1.589791e+03 1.865698e+03 -9.646447e+02 -1.158670e+03 -1.990819e+03 -8.033146e+02 -4.113429e+02 -6.577586e+02 -3.339799e+02 -6.516532e+02 -1.072121e+02 -9.930449e+01 6.030478e+01 -2.786550e+03 -3.160601e+03 -3.968670e+02 -2.833474e+01 1.295549e+03 2.233188e+03 -3.940110e+03 2.684229e+03 -2.744738e+02 -9.982339e+03 -3.316356e+03 -6.367786e+03 -1.238804e+04 7.050173e+03 -5.700277e+02 
1.247290e+04 3.657022e+03 1.507776e+03 2.734094e+03 -1.878539e+03 -3.931707e+03 -3.981992e+01 1.257090e+03 -4.435181e+02 1.926335e+03 -6.879421e+03 -2.209474e+02 3.764219e+03 -9.105996e+02 5.758760e+03 2.813987e+02 -1.674597e+03 -3.784074e+03 -2.792882e+03 -9.687056e+02 -7.696777e+02 8.579747e+02 1.743425e+03 1.673391e+03 7.900640e+02 2.224338e+03 -4.728228e+02 -3.737368e+03 -6.165426e+03 -5.570765e+03 -3.654558e+02 2.379164e+03 2.507251e+03 -1.070978e+03 3.647176e+02 2.485066e+03 1.906276e+03 2.395609e+03 4.961521e+03 1.956124e+02 1.400435e+03 2.646097e+02 2.173381e+02 8.113756e+02 1.320119e+02 5.898578e+02 -6.809839e+02 -7.757017e+02 -1.001248e+03 -5.252866e+03 -4.532583e+03 6.228189e+02 -2.109391e+02 -9.852989e+02 7.330977e+02 9.363834e+02 -4.847245e+03 -1.904317e+03 7.993621e+03 2.714151e+02 -2.365392e+03 -1.832406e+03 -7.728322e+03 -8.185950e+03 
-9.734943e+02 1.154222e+04 5.180568e+03 -6.155094e+03 1.172150e+03 -6.949810e+03 -8.340257e+03 9.019262e+02 -6.635823e+03 2.510821e+03 7.930407e+03 8.173908e+02 -4.723377e+03 -1.436046e+03 -2.707916e+03 9.464185e+02 1.037110e+03 1.281871e+03 -2.042507e+03 -5.849232e+03 -4.825455e+03 8.778665e+02 -5.338147e+01 8.784028e+01 -2.387700e+03 -1.552482e+03 -3.814947e+03 -4.748732e+03 -8.672921e+03 -1.029621e+04 -3.855484e+03 9.837444e+02 -1.568205e+03 -8.586693e+02 3.044034e+03 -6.746709e+02 -1.152373e+02 -1.050871e+03 -1.023726e+03 1.365825e+02 -6.621779e+02 -1.924387e+03 -4.811607e+02 9.422966e+02 -2.269515e+02 4.028955e+02 -4.271738e+03 -5.015516e+02 1.924340e+03 -4.405042e+03 -1.928829e+03 -5.155679e+03 7.726159e+02 6.159695e+03 -4.248246e+02 -5.456189e+03 -2.820274e+03 7.493427e+03 6.416172e+03 -7.446159e+03 -5.949849e+03 6.904310e+02 -5.344627e+03 -1.188486e+04 
7.485589e+02 2.352352e+03 9.647366e+02 -3.220748e+03 -5.451256e+02 -2.810028e+03 -3.521298e+02 2.516746e+03 7.835262e+03 -6.175120e+03 -1.423674e+03 -5.266992e+03 -3.290242e+03 2.600908e+03 1.643552e+03 -5.574621e+03 1.700245e+03 5.387121e+03 2.062349e+03 -6.052120e+02 5.623771e+02 -9.518671e+02 -7.797090e+02 -2.982108e+03 -2.032762e+03 -1.007428e+03 -4.680523e+03 -1.879735e+03 1.655436e+03 -2.337357e+03 -8.251113e+03 -4.788296e+03 -7.944516e+02 3.722375e+03 3.108234e+03 -5.203258e+02 -3.689891e+03 -3.789942e+02 8.114764e+02 1.484205e+02 -1.662782e+03 1.495264e+03 1.433506e+03 -2.744492e+03 -9.466912e+02 1.122289e+02 -2.349726e+03 -5.757762e+03 -1.339351e+03 3.303740e+03 -1.727514e+02 7.178886e+03 3.119326e+03 -3.510394e+03 5.473348e+03 2.689372e+02 -7.526854e+03 -5.081004e+03 -4.441198e+03 -1.151913e+03 -3.481060e+01 5.147894e+03 -6.090746e+03 -6.595981e+03 
-9.879796e+03 -7.692828e+03 3.887475e+03 -1.364842e+03 -7.230960e+02 -8.871231e+03 8.374889e+03 1.016169e+04 6.255798e+03 1.519470e+03 8.875653e+02 -3.724888e+03 -4.664892e+03 -5.042432e+03 -1.105980e+03 -2.359832e+03 -4.105665e+03 -1.162369e+03 9.307097e+02 3.446912e+03 3.643377e+03 -2.224960e+03 -2.885576e+02 7.992056e+02 -1.392574e+02 -7.023338e+02 -3.203604e+03 3.766968e+02 2.048532e+03 4.519964e+03 3.173234e+03 -3.728753e+03 -9.491527e+02 1.332443e+03 5.538158e+02 1.613034e+03 -7.407833e+02 -9.438450e+02 8.612973e+02 -3.335211e+03 -7.193729e+02 -8.822030e+02 -8.035105e+02 2.750852e+03 -2.126212e+03 -4.789764e+03 9.456097e+03 -7.492616e+02 6.310463e+02 -2.137063e+03 -3.394959e+03 7.603122e+03 5.721767e+03 -9.175565e+03 6.174360e+02 7.366937e+02 -1.763069e+03 3.209898e+02 -9.849912e+03 1.029669e+04 1.406850e+04 3.366111e+03 1.517206e+04 9.514819e+03 
5.170422e+03 -4.011827e+03 -1.089507e+04 -6.038116e+03 -1.476166e+03 -2.936348e+03 -5.368005e+01 4.014678e+03 2.164832e+03 5.015377e+03 3.023968e+03 8.447215e+03 -7.867101e+03 -5.326367e+03 -1.406183e+03 2.033123e+03 3.779665e+03 2.455631e+03 -9.142482e+03 -8.818420e+03 -5.153229e+03 2.265118e+03 5.621082e+03 -4.411524e+03 -7.414467e+03 2.376637e+03 -3.541597e+02 -2.320914e+03 -2.266212e+03 1.980902e+03 6.887005e+03 3.270938e+03 -1.275352e+03 -2.661264e+03 3.989343e+02 1.585853e+03 -3.370809e+03 9.013100e+02 6.131903e+02 2.073896e+02 3.647985e+03 -7.606274e+02 -3.332078e+03 3.798492e+03 4.497477e+02 -1.044787e+03 4.966089e+02 2.113503e+03 3.521308e+03 1.205612e+03 8.962250e+03 -6.914486e+03 -6.774791e+03 -6.895672e+03 6.422715e+03 7.132734e+03 -5.599907e+03 -7.441774e+02 -2.412998e+03 1.260815e+03 1.434345e+03 -6.123657e+03 4.294278e+03 3.227897e+02 
6.460230e+00 5.075203e+03 -5.187659e+03 -1.946051e+03 -1.669324e+02 3.276570e+03 -9.587007e+03 8.280101e+02 1.070824e+04 4.298700e+03 7.277498e+02 -7.926216e+02 -1.611083e+03 8.184392e+02 -2.913516e+03 -8.436470e+02 3.868259e+03 4.327571e+03 1.489954e+03 2.527962e+02 3.538551e+03 5.329054e+02 -1.821363e+01 -2.927343e+03 -1.752104e+03 1.697591e+03 -3.114200e+03 1.948648e+02 -3.249276e+02 4.588222e+03 5.458499e+03 1.037831e+04 5.779541e+03 -1.924197e+03 -1.710292e+03 -5.529159e+03 -2.060689e+03 3.145398e+03 1.319236e+03 2.379500e+03 -3.092099e+02 -4.709884e+01 3.092310e+03 -3.109307e+03 -2.471137e+03 1.855052e+03 -2.059859e+03 2.953297e+03 -7.003865e+03 6.244987e+03 1.182801e+04 4.041408e+03 -1.043483e+04 9.898961e+03 -3.558950e+03 -8.820538e+02 3.835199e+03 -1.116796e+03 1.065473e+04 2.084310e+03 -2.710685e+03 -1.226894e+04 -1.804026e+04 -2.256675e+02 
-1.004556e+04 7.287426e+03 5.683072e+03 9.808391e+03 -4.883794e+03 3.104765e+03 7.326416e+03 -6.317612e+03 -4.557702e+03 -1.481214e+03 -3.232706e+02 -1.041217e+04 -3.205038e+03 8.430734e+03 5.322033e+03 2.569324e+03 1.853338e+03 4.122852e+03 1.000423e+04 7.977130e+03 1.876930e+03 -5.483059e+03 -8.973297e+01 6.254049e+03 1.101133e+03 -8.396636e+01 2.980848e+03 -9.625144e+02 -1.994222e+03 -1.599592e+03 8.897642e+02 3.855587e+03 3.291262e+03 5.347103e+03 1.549329e+03 -4.156271e+03 -2.262079e+03 -2.827927e+03 -3.003892e+03 -3.370108e+03 -1.742752e+03 8.289688e+02 4.258642e+03 -1.650964e+03 -4.213140e+03 -4.928567e+03 -1.386862e+03 -6.292036e+01 5.012022e+02 -3.448257e+03 -4.676400e+02 7.774935e+03 3.052395e+03 5.869819e+03 3.518753e+03 8.792030e+03 1.434843e+04 2.355269e+03 2.626303e+03 -4.798741e+03 -3.372219e+03 3.141279e+03 8.663416e+03 -4.242232e+03 
1.539392e+04 -7.345495e+02 -5.211534e+03 7.886224e+02 -2.401878e+03 -6.156288e+03 6.955211e+03 -1.734978e+03 -6.447876e+03 -1.790759e+03 -9.128904e+02 -6.644914e+02 -2.629558e+03 -5.073558e+03 -2.210750e+03 4.581563e+03 4.439408e+03 5.766780e+03 3.214891e+03 7.852014e+02 -5.199466e+02 1.532597e+03 4.465548e+01 1.630109e+03 -2.455794e+03 4.599574e+03 1.052307e+04 -8.470683e+03 -9.545164e+02 -3.241316e+03 -3.238153e+03 -2.423526e+03 9.365553e+02 6.453648e+03 -1.138294e+03 6.229666e+02 9.138999e+02 5.219114e+03 -2.188001e+03 -2.503359e+03 -1.059175e+03 1.993242e+03 -2.952133e+02 -2.645068e+03 -1.471769e+02 -4.312186e+02 -4.336705e+03 -4.136040e+03 1.988375e+03 1.027381e+03 -4.481292e+03 -4.171181e+03 4.393770e+03 1.003951e+04 -4.516951e+03 -6.531831e+03 9.764411e+03 -3.104359e+03 -8.059015e+02 -7.306820e+03 -1.551967e+04 -2.019694e+03 5.275229e+03 1.528280e+03 
-1.015417e+04 7.003197e+03 -2.418192e+03 -7.850979e+03 -8.705022e+03 -1.583619e+03 5.674341e+03 3.605021e+02 5.186748e+03 1.142152e+03 4.230502e+02 1.671478e+03 -6.412183e+02 -5.056079e+03 -2.675112e+03 4.528571e+03 8.897427e+02 -5.085437e+02 4.612666e+03 4.529964e+03 1.066764e+03 -8.569532e+02 -2.798006e+03 -1.952701e+02 -2.125112e+03 1.726138e+03 -2.711300e+03 -3.319074e+02 6.291667e+03 3.307165e+03 2.264692e+03 8.619613e+02 1.843622e+03 2.935822e+03 2.032791e+02 3.663105e+02 1.796435e+03 -1.126297e+02 2.691004e+03 -2.591174e+03 -2.211491e+03 2.396369e+03 -1.774433e+03 -1.884371e+03 5.522375e+02 4.138585e+03 -1.341290e+03 -5.369962e+03 -4.088069e+02 -1.250828e+03 -1.964916e+03 -3.609383e+03 -1.034954e+03 4.874519e+03 -9.628498e+03 -5.368954e+03 5.734624e+03 5.243326e+03 2.538202e+03 -2.654706e+03 -3.032851e+03 1.318157e+04 4.929275e+03 -1.915955e+04 
-1.751976e+04 -1.546331e+04 -2.178756e+03 7.701280e+03 -1.229331e+03 5.703705e+03 7.552393e+03 6.751481e+03 3.223764e+03 -1.348457e+03 -5.683981e+03 -2.516429e+03 -1.814959e+03 -2.483992e+03 -2.699985e+02 -2.303053e+02 -2.474556e+02 4.999366e+02 4.703750e+03 4.873742e+03 5.743893e+01 -4.650179e+03 -1.968082e+03 -1.904751e+02 4.027744e+03 -2.337731e+03 -7.935748e+03 2.753522e+03 3.217673e+03 3.679916e+03 3.947295e+03 2.317147e+03 2.729264e+03 3.428030e+03 4.100012e+03 9.407511e+02 -2.780510e+03 -7.113393e+03 4.164045e+03 1.292172e+03 3.630116e+02 -1.478751e+03 -1.130883e+03 -1.730534e+03 -1.792641e+02 3.267900e+03 8.110580e+02 -6.711709e+01 2.410176e+03 -7.741110e+02 3.809779e+03 1.495156e+03 1.520911e+03 -6.348900e+03 -1.965600e+03 2.252219e+03 -4.399520e+02 2.200438e+03 4.364628e+03 -9.837340e+03 2.865359e+02 1.373980e+04 3.442022e+03 6.419470e+03 
9.477277e+03 1.371598e+04 9.406424e+03 3.958429e+03 -6.186028e+03 -1.635956e+00 4.597074e+03 6.990965e+03 4.010814e+03 9.971473e+02 -6.228755e+00 -1.636047e+03 -9.816113e+02 -5.923904e+02 4.333941e+02 -2.939381e+03 -1.466419e+03 1.567556e+03 1.639096e+02 -2.062003e+03 -4.157812e+03 -2.139587e+03 -9.328727e+01 -1.245483e+03 -1.998305e+03 -4.723720e+03 2.401549e+03 -1.584158e+03 -1.163257e+02 -7.689103e+02 -1.682900e+03 2.569693e+03 3.698010e+03 1.212288e+03 2.502309e+03 1.609388e+03 -8.860507e+03 -4.269103e+03 2.616195e+03 2.715750e+03 1.453149e+03 -1.008833e+03 -5.160773e+02 -4.215800e+02 -1.818560e+03 2.174957e+03 7.218458e+03 2.188300e+03 -3.891489e+03 1.232666e+03 -4.098049e+03 6.735648e+03 -5.112052e+03 5.411654e+03 1.195066e+04 -5.779068e+03 7.046393e+02 2.846430e+03 -1.827033e+03 -9.470030e+03 1.029163e+03 1.362599e+04 -3.408773e+02 6.652967e+02 
1.534075e+04 3.455180e+03 1.029700e+04 7.958707e+03 -4.804861e+03 1.617441e+03 -3.687421e+03 9.610529e+03 8.259284e+03 9.194021e+02 5.458753e+02 -1.660329e+02 1.238964e+02 -7.981929e+01 -1.156921e+03 -3.064201e+03 -1.494760e+03 -1.406413e+03 -2.065373e+03 -2.149296e+03 -2.893685e+03 -7.580729e+02 2.309860e+03 1.989265e+03 2.746879e+03 2.999128e+03 1.619553e+03 1.039950e+03 2.271914e+03 3.797827e+03 3.225663e+03 -8.657506e+02 -2.994938e+03 -9.553916e+02 9.561142e+02 -1.620358e+03 -3.713316e+03 -1.238212e+03 -1.426501e+03 1.838117e+02 2.527627e+03 1.726715e+03 1.598047e+02 2.054958e+03 2.796686e+03 -6.508349e+02 -3.969859e+03 4.000161e+02 2.582461e+03 -2.604982e+01 -6.136363e+02 2.448439e+03 3.332199e+03 3.562273e+03 3.326884e+03 9.548265e+03 7.434148e+03 2.176272e+03 -1.037343e+04 -1.129054e+03 1.970399e+02 2.271810e+03 4.171884e+03 7.872513e+03 
6.586913e+03 -4.358598e+03 -1.674427e+03 4.129200e+03 -6.314678e+03 -1.165902e+03 2.287468e+03 1.121348e+04 2.573526e+03 -2.400700e+03 -4.358858e+03 -2.106742e+03 -7.413932e+02 2.527818e+01 -4.933749e+02 -3.115400e+02 -7.986022e+02 -5.384151e+02 6.252046e+02 -1.137640e+03 -3.970503e+02 1.423250e+03 6.879316e+02 -2.698238e+03 -1.706406e+03 -3.602667e+03 -3.831384e+03 -2.482035e+03 2.170335e+03 3.840259e+03 -8.304792e+01 -3.444590e+03 -2.715788e+03 3.627800e+03 2.448472e+03 -3.525328e+03 -1.046371e+02 2.137049e+03 -1.593237e+03 -2.676146e+03 1.661919e+03 -1.196889e+03 -3.027115e+03 -2.585096e+03 -3.989973e+03 -2.930449e+02 -9.575284e+02 7.822661e+01 8.581746e+02 3.284768e+03 2.694930e+03 -4.053885e+03 3.022576e+03 1.840347e+03 -1.697857e+03 1.302296e+03 -4.989660e+03 4.104686e+03 -6.626642e+03 2.601761e+03 8.398526e+03 6.131357e+03 -4.974697e+03 -1.345522e+04 
3.093107e+03 -5.496402e+02 -2.721863e+03 -1.557103e+03 -1.058941e+03 -3.530875e+03 9.615008e+02 -4.906354e+03 1.764326e+03 3.559293e+03 -2.721689e+03 -2.393010e+03 -1.569160e+03 -2.501035e+02 -6.352906e+02 -1.723989e+02 -3.557579e+02 -6.517227e+02 8.669588e+01 -4.131077e+02 -6.127420e+02 2.381795e+02 -1.925079e+03 2.134972e+02 -4.232020e+03 -3.997104e+03 -2.201834e+03 -7.542134e+03 -6.057233e+03 1.408492e+03 4.091719e+03 -3.212387e+03 -3.397134e+03 2.757920e+03 1.591421e+03 -1.241819e+03 2.063515e+03 2.636599e+03 3.952046e+03 2.351140e+03 -3.450250e+01 2.466861e+01 -1.943896e+03 -4.009724e+03 -1.558525e+03 -2.049222e+03 -2.715329e+03 -4.083984e+03 -1.467163e+03 -1.165109e+03 -1.284890e+03 4.027519e+03 -1.117963e+03 -2.285591e+03 -4.477753e+03 -6.194072e+02 3.456715e+03 -7.739884e+02 -1.755766e+03 1.215513e+03 3.485471e+03 4.419492e+03 -1.391133e+04 -8.773484e+03 
-1.900800e+03 -1.035779e+03 2.388200e+03 -3.769556e+03 -3.517595e+03 -3.323634e+03 1.643532e+03 -9.333053e+02 -1.748715e+02 1.914948e+03 4.306356e+03 -1.732499e+03 -2.051606e+03 -1.036833e+03 -4.928579e+02 -1.510966e+02 -1.669020e+02 -2.322954e+02 1.864427e+02 -1.079901e+02 -2.472663e+02 4.004229e+02 -1.353822e+03 4.644246e+02 -4.220616e+03 1.039829e+03 1.005621e+03 3.692360e+03 1.681311e+03 -1.472332e+03 -1.921331e+03 -1.227404e+03 -6.445401e+02 -3.545083e+03 -2.280669e+03 5.308494e+02 1.743898e+03 2.020819e+03 2.533670e+03 3.256206e+03 -9.357520e+02 3.116028e+03 2.828910e+03 4.997119e+02 6.201682e+03 2.905409e+03 2.805679e+03 -2.618684e+02 -2.949941e+03 -6.650647e+01 1.254885e+03 -9.432336e+02 -1.791784e+03 -1.162149e+03 1.191541e+03 -5.666385e+02 2.983824e+03 2.699670e+03 -5.422347e+02 -1.178619e+03 -2.590800e+02 -1.224965e+04 -2.005191e+03 6.413927e+03 
1.981656e+03 1.576115e+03 -3.362862e+03 -2.150829e+03 6.691527e+02 -1.818428e+03 -1.158662e+03 -8.100471e+02 6.093574e+02 1.488015e+03 5.165030e+03 -1.795818e+03 -1.866994e+03 -6.825016e+02 -2.876095e+02 -7.154210e+01 -4.876809e+01 -1.644850e+02 2.604988e+02 -7.007636e+02 1.261918e+03 -1.213364e+03 -4.108030e+02 2.713407e+03 -1.852004e+02 -1.404182e+03 -1.035886e+03 5.246158e+02 -1.114159e+03 -1.250946e+03 -3.307002e+03 2.276788e+02 -6.309285e+02 -1.322073e+03 -1.963199e+03 -5.106057e+02 -2.318335e+02 -7.256772e+02 7.432666e+02 1.950692e+03 6.631506e+02 1.208737e+03 -6.806487e+02 1.119132e+01 -2.597747e+03 -5.486421e+01 -6.172620e+02 -1.496490e+03 -9.036749e+02 1.419984e+03 1.897959e+03 9.512452e+02 5.645252e+02 -1.362438e+02 -1.540987e+03 4.061112e+03 -5.483014e+03 -6.041160e+03 -1.690466e+02 -3.507567e+03 -7.868172e+03 -7.856856e+03 8.148305e+03 -4.875863e+03 
3.801624e+03 3.487585e+03 -1.755225e+03 -4.933248e+03 -2.841219e+03 -4.205689e+03 -2.600520e+03 1.193702e+03 -1.528903e+00 5.761901e+02 1.803939e+03 -8.982651e+02 -5.993392e+02 -1.329746e+02 -1.643580e+02 5.603313e+01 -1.734904e+02 -8.763177e+01 1.159883e+02 1.470433e+02 5.921467e+00 6.304257e+02 -7.149431e+02 -1.658778e+02 2.740295e+02 1.127592e+03 1.391619e+03 -4.224056e+03 -3.505822e+03 -9.255735e+01 1.561427e+03 -1.810904e+02 -1.540514e+03 1.284567e+03 6.374516e+02 -4.728236e+02 2.461512e+03 3.693574e+01 1.289536e+03 6.744835e+02 -2.266507e+02 9.372581e+02 2.334623e+02 -4.839438e+03 -4.248301e+03 -5.763519e+02 7.013910e+02 -1.555175e+03 -2.163755e+03 -6.427015e+02 1.731575e+03 1.592987e+03 5.212054e+02 -1.841497e+02 1.991130e+03 1.751014e+03 3.223374e+03 -1.521875e+03 -3.519324e+03 1.780284e+03 -4.384393e+03 -2.142788e+03 6.514609e+03 -8.831355e+02 
1.649406e+03 -9.707089e+03 2.433735e+03 2.236510e+03 5.914857e+02 6.609134e+02 -3.688584e+03 1.572786e+03 1.224854e+03 1.761036e+03 -2.723051e+01 -7.889604e+01 -3.338633e+01 -2.338002e+02 2.059914e+02 -3.014651e+02 1.977089e+02 1.738318e+02 -7.537794e+02 1.712037e+02 -1.516358e+03 8.761519e+01 -1.138261e+03 -1.437658e+03 9.733656e+02 -1.590368e+03 1.082656e+03 -1.139607e+02 -1.873693e+02 1.928950e+03 1.447906e+03 -8.262105e+02 -8.779736e+02 3.090186e+02 1.135465e+03 -1.794303e+03 6.568858e+02 3.891386e+01 2.090586e+03 2.412135e+02 1.484532e+03 2.206394e+02 -3.375846e+02 -8.947189e+02 8.220347e+02 -3.978532e+02 2.032412e+03 -2.773649e+03 -1.356438e+03 3.959671e+03 2.593897e+03 2.171902e+02 4.957483e+02 -4.653558e+02 3.770973e+03 4.549062e+03 2.145531e+03 -8.460289e+03 -1.833215e+03 6.401736e+03 2.156067e+03 -1.006500e+04 -4.930831e+03 8.455483e+03 
-7.692589e+01 -2.147972e+03 4.027266e+03 6.175149e+03 -4.042751e+03 7.259000e+02 2.595078e+03 6.745509e+03 1.784450e+03 1.747585e+03 -3.153501e+02 -1.246475e+02 2.195346e+02 3.449813e+02 -5.017757e+01 4.912639e+01 1.684602e+02 -7.326272e+02 1.059966e+03 -1.619160e+03 7.199448e+02 -1.650682e+03 3.620395e+02 -2.562677e+03 -1.092716e+03 6.974389e+02 1.698877e+03 -7.532278e+02 -1.555281e+03 -1.777889e+03 -3.716097e+03 -1.528156e+03 1.684903e+02 -6.947528e+02 8.326104e+02 7.235251e+02 -3.127862e+02 1.787727e+03 2.448348e+03 -1.098364e+03 3.139880e+03 1.749127e+03 2.050017e+02 3.311847e+02 -3.006127e+03 -3.073918e+03 5.332171e+02 3.964744e+02 -3.738429e+03 5.409374e+02 3.140806e+03 5.173573e+02 8.457103e+01 1.652920e+03 -2.528091e+03 -2.300693e+03 1.716579e+03 -1.987877e+03 -4.667228e+03 1.264313e+03 -1.347346e+03 3.337487e+03 -1.494637e+03 -1.473102e+03 
1.867700e+03 5.875198e+03 4.328433e+03 -5.186982e+03 -1.654521e+03 -5.422131e+03 9.119159e+00 3.996754e+03 1.753226e+03 -9.152561e+02 7.818213e+02 3.060723e+01 -6.328278e+02 -9.358165e+02 -3.786368e+02 5.722965e+02 -1.241302e+03 1.492602e+03 3.835607e+02 -1.126296e+03 3.072362e+03 -2.525538e+03 4.336205e+01 1.615002e+03 -5.604249e+02 -1.052453e+03 -1.160661e+03 1.036998e+03 1.344973e+03 -1.755276e+03 -3.784803e+02 -5.304587e+02 6.841964e+02 -1.613241e+03 -2.696981e+03 6.384705e+02 -1.639900e+03 1.836320e+03 5.601297e+02 1.579084e+03 -8.915985e+02 3.889499e+03 1.095789e+03 -1.571254e+03 4.275410e+02 5.377192e+01 -1.436113e+03 5.971816e+02 -1.433890e+03 -2.727257e+02 4.982212e+03 1.747417e+03 2.666005e+02 -3.624783e+03 1.062837e+03 1.443642e+03 4.742541e+03 1.621336e+02 -7.644787e+03 4.971471e+03 -3.494588e+03 4.910503e+03 -2.538606e+03 7.463643e+03 
-2.273283e+02 -7.116848e+02 -4.784050e+03 5.209767e+03 -1.802930e+03 7.299832e+03 -2.905914e+03 -2.263921e+03 5.352380e+03 -2.458061e+03 6.896859e+02 1.621833e+03 1.067244e+03 9.435616e+02 4.858739e+02 -3.092361e+02 2.926614e+02 5.020500e+02 -2.466160e+03 2.354848e+03 -3.499255e+02 -7.899167e+02 1.880421e+03 1.609176e+03 -6.557908e+02 7.549775e+02 1.219957e+03 -2.919373e+02 5.468970e+02 -2.249732e+01 -1.115813e+02 4.738440e+02 -6.708585e+02 -9.600510e+02 -2.269733e+03 -7.730775e+02 -8.954463e+02 3.366179e+03 -3.989800e+03 -6.784302e+02 -1.268531e+03 2.320838e+03 -1.113875e+03 -2.041307e+03 1.683189e+03 -9.844110e+02 -3.356113e+03 -3.967825e+02 -2.128808e+03 -2.380702e+03 3.305924e+03 3.091759e+03 1.362468e+03 -2.677785e+03 -2.334198e+03 -3.144574e+02 -9.139900e+02 -1.709764e+03 -4.793226e+03 4.535334e+02 1.455252e+03 -1.051317e+03 4.096138e+03 7.497541e+01 
-8.180596e+03 -3.827848e+03 -5.532968e+03 3.908941e+03 2.803569e+03 4.223022e+03 -3.358674e+03 -4.379412e+03 2.594013e+03 -2.209702e+03 -1.460341e+03 4.863488e+03 2.143244e+03 5.085331e+02 -1.682913e+02 5.770927e+02 9.879674e+01 -1.404856e+03 1.837000e+03 2.389340e+03 -3.323473e+03 -1.294055e+02 3.027009e+03 9.882841e+02 -1.830544e+03 -7.883000e+02 5.148157e+02 -3.506254e+02 3.357952e+02 -1.653537e+03 -2.851951e+03 -9.164035e+02 -1.096789e+03 -2.280707e+02 2.262373e+03 -1.436783e+02 1.612353e+02 -8.911868e+02 1.832377e+03 -1.395283e+03 -4.805117e+03 -6.076102e+02 -2.505033e+03 8.683980e+02 2.386660e+03 -9.573835e+01 -5.399732e+02 -3.493901e+03 -2.798112e+02 7.600670e+02 1.176818e+03 2.782804e+03 5.561449e+02 4.738554e+03 -4.144006e+03 1.244959e+03 1.009563e+04 4.150217e+02 -2.671841e+03 -3.123448e+03 2.735091e+03 -7.858565e+02 1.228567e+03 -1.168839e+03 
1.330242e+03 -1.570915e+03 2.519865e+03 -5.356767e+03 -2.293843e+03 -5.725550e+03 -5.117883e+03 -6.355263e+03 5.184735e+02 2.053128e+03 -5.456521e+02 3.940710e+03 3.071279e+03 4.677798e+02 -4.083226e+01 -1.919322e+02 -1.561529e+02 1.705306e+02 -1.583021e+02 -1.118972e+03 3.020380e+02 9.047356e+02 4.106633e+01 -1.726446e+03 -1.155152e+03 5.468977e+02 7.378530e+02 -1.742683e+02 3.202914e+02 -6.158165e+02 -9.938220e+02 8.482643e+02 1.158678e+03 -2.869414e+03 3.053575e+03 2.477184e+03 -2.109826e+03 -2.194060e+03 5.176355e+03 -6.085013e+02 -2.169787e+03 1.279795e+03 4.370034e+03 1.690850e+03 -1.078526e+03 -1.659247e+02 9.423661e+02 -1.522694e+03 1.520033e+03 -8.600197e+02 -1.762681e+03 1.185278e+03 4.158895e+03 1.911355e+03 -7.584578e+02 -1.692849e+03 5.002651e+03 -5.589408e+03 -4.526463e+03 6.761928e+03 2.746115e+03 -4.554336e+03 -5.980250e+03 1.503366e+02 