# vtk DataFile Version 2.0
Comment goes here
ASCII

DATASET STRUCTURED_POINTS
FIELD FieldData 1
TIME 1 1 double
0.03400000
DIMENSIONS    256   32   1

ORIGIN    0.000   0.000   0.000
SPACING   0.0078125 0.0078125   1.000

POINT_DATA   8192
SCALARS Omega double
LOOKUP_TABLE default

5.518792e-09 -2.900649e-09 2.338070e-08 -1.255110e-08 -2.856247e-08 -2.830249e-07 -9.636292e-07 -9.708065e-07 -3.191004e-07 -2.782048e-07 -6.264502e-07 -9.901754e-07 -7.391525e-07 2.996693e-06 -1.861075e-05 -1.490564e-05 -8.922445e-06 -2.528631e-05 -1.409931e-05 -3.860022e-05 -3.822889e-05 1.597833e-06 -1.402755e-05 -8.142868e-06 -2.124246e-05 -2.757216e-05 -2.163040e-05 -2.350576e-05 -2.954937e-05 -4.635743e-05 -5.992537e-05 -6.764223e-05 -5.677162e-05 -6.118125e-05 -8.572492e-05 -9.822377e-05 -1.282183e-04 -8.720319e-05 -7.215375e-05 -1.021871e-04 -1.053569e-04 -1.530046e-04 -1.316520e-04 -1.397712e-04 -1.938405e-04 -3.613883e-04 -4.949210e-04 -5.051183e-04 -6.745347e-04 -5.977013e-04 -6.696574e-04 -8.748498e-04 -7.740997e-04 -9.624250e-04 -8.528864e-04 -1.082170e-03 -1.420851e-03 -1.247688e-03 -1.200515e-03 6.911464e-04 2.154741e-03 -6.305827e-03 -7.073168e-03 2.021934e-02 2.273803e-02 -3.039168e-03 -6.071632e-03 1.707600e-03 2.285064e-03 1.183006e-04 -1.615042e-03 -1.270432e-03 -1.309972e-03 -1.244439e-03 -1.001030e-03 -1.194104e-03 -9.476457e-04 -1.140224e-03 -1.161118e-03 -1.029861e-03 -1.461617e-03 -1.060247e-03 -1.071350e-03 -1.114034e-03 -8.621602e-04 -1.192798e-03 -9.032652e-04 -1.217482e-03 -1.316607e-03 -1.405175e-03 -1.734358e-03 8.218815e-04 3.555175e-03 -1.422687e-03 -1.360639e-02 6.124431e-03 3.398637e-02 8.911925e-03 -1.300681e-02 -2.735193e-03 3.056667e-03 9.774432e-04 -1.594628e-03 -1.523912e-03 -1.364659e-03 -1.171240e-03 -9.532629e-04 -1.140905e-03 -9.062302e-04 -1.131143e-03 -1.092598e-03 -1.026711e-03 -1.425103e-03 -9.948623e-04 -1.078777e-03 -1.059815e-03 -8.509639e-04 -1.160311e-03 -8.445920e-04 -1.217465e-03 -1.244178e-03 -1.407908e-03 -1.632775e-03 1.037212e-03 3.441950e-03 -1.904182e-03 -1.447030e-02 7.872634e-03 3.672418e-02 7.686959e-03 -1.468757e-02 -2.388661e-03 3.404029e-03 8.579162e-04 -1.687713e-03 -1.548093e-03 -1.402483e-03 -1.172412e-03 -9.909425e-04 -1.160491e-03 -9.117671e-04 -1.152898e-03 -1.067820e-03 -1.078929e-03 -1.427561e-03 -9.648731e-04 -1.122352e-03 -1.048025e-03 -8.752121e-04 -1.152562e-03 -8.275805e-04 -1.247910e-03 -1.221270e-03 -1.441863e-03 -1.560758e-03 1.170054e-03 3.095698e-03 -2.543924e-03 -1.382289e-02 9.838765e-03 3.627759e-02 5.632450e-03 -1.485012e-02 -1.647835e-03 3.676200e-03 6.892260e-04 -1.728469e-03 -1.528953e-03 -1.413063e-03 -1.150981e-03 -1.013929e-03 -1.147381e-03 -8.982267e-04 -1.158870e-03 -1.032978e-03 -1.113559e-03 -1.404979e-03 -9.331082e-04 -1.150145e-03 -1.022642e-03 -8.804272e-04 -1.117250e-03 -8.058960e-04 -1.254720e-03 -1.179348e-03 -1.440240e-03 -1.445161e-03 1.274448e-03 2.723056e-03 -2.993935e-03 -1.257911e-02 1.156671e-02 3.479426e-02 3.818595e-03 -1.430531e-02 -8.319056e-04 3.916713e-03 5.477551e-04 -1.638299e-03 -1.425449e-03 -1.347005e-03 -1.031112e-03 -9.299639e-04 -9.472758e-04 -7.073383e-04 -8.100503e-04 -6.421040e-04 -6.481009e-04 -6.718871e-04 -4.325416e-04 -4.239508e-04 -3.155221e-04 -2.021440e-04 -1.490232e-04 -1.258096e-04 -1.091500e-04 -8.262075e-05 -1.101905e-04 -9.151365e-05 -8.858579e-05 -1.072162e-04 -7.709687e-05 -8.383742e-05 -7.384909e-05 -5.805185e-05 -6.436145e-05 -4.404035e-05 -4.377712e-05 -3.693182e-05 -2.928327e-05 -3.004224e-05 -2.041298e-05 -2.129823e-05 -1.694450e-05 -1.435997e-05 -1.398023e-05 -9.740974e-06 -1.062941e-05 -8.097922e-06 -7.238739e-06 -6.791235e-06 -4.888194e-06 -5.475655e-06 -4.024997e-06 -3.799827e-06 -3.471559e-06 -2.571157e-06 -2.930104e-06 -2.275721e-06 -2.727924e-06 -2.330018e-06 -4.731983e-07 2.904567e-08 3.102881e-09 -3.369473e-09 -6.320828e-09 
-2.020962e-03 -8.329853e-03 -4.996477e-02 -2.820800e-01 -1.107740e+00 -2.916624e+00 -4.168885e+00 -3.392499e+00 -3.540545e+00 -3.657220e+00 -5.030336e+00 -8.410577e+00 -1.097573e+01 -2.346787e+01 -2.745868e+01 -2.051443e+01 -2.858965e+01 -2.501297e+01 -2.831698e+01 -3.120656e+01 -1.418140e+01 -1.547971e+01 -1.292179e+01 -2.016539e+00 -4.036199e+00 -2.584438e+00 -2.396254e+00 -3.490392e+00 -1.244351e+00 -3.002850e+00 -1.455330e+00 -1.630089e+00 -2.143791e+00 -6.255877e-01 -2.151526e+00 -8.391242e-01 -1.421355e+00 -1.383560e+00 -1.701686e-01 -1.429874e+00 -2.197422e-01 -8.536256e-01 -6.384627e-01 2.281825e-01 -7.640986e-01 2.346873e-01 -3.792215e-01 -7.039550e-02 5.081654e-01 -2.393741e-01 5.946770e-01 5.466079e-02 3.755346e-01 7.356726e-01 1.783575e-01 8.555921e-01 3.990174e-01 6.827591e-01 8.499717e-01 4.765484e-01 1.063794e+00 5.967821e-01 8.094634e-01 1.139234e+00 9.823388e-01 1.109577e+00 7.014905e-01 1.085434e+00 1.101282e+00 8.732780e-01 1.251180e+00 9.678387e-01 1.181666e+00 1.196011e+00 1.043689e+00 1.398825e+00 1.141356e+00 1.335143e+00 1.345606e+00 1.212807e+00 1.542869e+00 1.284285e+00 1.488671e+00 1.480914e+00 1.378166e+00 1.689186e+00 1.396435e+00 1.634477e+00 1.586036e+00 1.514969e+00 1.788659e+00 1.474913e+00 1.803141e+00 1.673521e+00 1.565535e+00 1.944507e+00 1.769619e+00 1.945625e+00 1.640791e+00 1.713397e+00 1.935129e+00 1.564468e+00 1.922008e+00 1.702360e+00 1.759897e+00 1.894068e+00 1.585921e+00 1.978395e+00 1.697713e+00 1.806193e+00 1.872116e+00 1.626503e+00 2.001460e+00 1.666789e+00 1.852396e+00 1.845395e+00 1.685875e+00 2.018765e+00 1.634593e+00 1.904333e+00 1.822773e+00 1.726072e+00 2.002873e+00 1.625108e+00 1.992601e+00 1.813526e+00 1.692586e+00 2.068625e+00 1.893209e+00 2.076133e+00 1.699656e+00 1.809890e+00 2.000909e+00 1.628414e+00 2.005682e+00 1.734290e+00 1.826155e+00 1.915168e+00 1.639190e+00 2.028953e+00 1.699319e+00 1.856510e+00 1.869548e+00 1.678830e+00 2.023811e+00 1.647571e+00 1.896125e+00 1.834627e+00 1.724611e+00 2.018939e+00 1.620287e+00 1.940934e+00 1.807472e+00 1.755566e+00 1.989935e+00 1.621737e+00 2.020064e+00 1.789424e+00 1.721610e+00 2.059719e+00 1.897480e+00 2.085888e+00 1.675126e+00 1.839037e+00 1.975304e+00 1.644550e+00 2.020377e+00 1.706900e+00 1.850078e+00 1.883915e+00 1.671160e+00 2.032312e+00 1.662859e+00 1.883598e+00 1.841559e+00 1.707099e+00 2.012503e+00 1.619300e+00 1.921775e+00 1.808473e+00 1.746283e+00 1.997055e+00 1.604432e+00 1.962099e+00 1.780612e+00 1.772423e+00 1.960803e+00 1.617906e+00 2.031502e+00 1.755295e+00 1.742901e+00 2.034791e+00 1.894365e+00 2.080035e+00 1.642666e+00 1.856943e+00 1.936188e+00 1.659987e+00 2.015647e+00 1.663730e+00 1.862520e+00 1.844126e+00 1.687789e+00 2.011235e+00 1.618879e+00 1.895282e+00 1.805276e+00 1.718623e+00 1.988505e+00 1.593802e+00 1.938989e+00 1.781527e+00 1.754936e+00 1.968925e+00 1.589800e+00 1.972543e+00 1.751983e+00 1.784120e+00 1.934673e+00 1.600234e+00 1.999391e+00 1.719042e+00 1.815774e+00 1.896957e+00 1.629572e+00 2.015783e+00 1.677634e+00 1.848063e+00 1.854239e+00 1.671436e+00 2.013359e+00 1.626521e+00 1.882176e+00 1.814654e+00 1.699057e+00 1.986555e+00 1.582753e+00 1.893119e+00 1.760690e+00 1.705916e+00 1.932311e+00 1.556834e+00 1.921729e+00 1.727205e+00 1.740394e+00 1.904414e+00 1.506656e+00 1.833141e+00 1.710959e+00 2.197291e+00 2.280889e+00 9.007376e-01 1.827565e-01 2.749734e-02 2.289696e-03 -1.139782e-03 
3.886366e-03 -1.302662e-02 -1.729760e-01 -1.208048e+00 -5.554765e+00 -1.411534e+01 -1.448374e+01 -9.272587e+00 -1.173375e+01 -8.284989e+00 -1.377877e+01 -1.885944e+01 -1.090205e+01 -4.453734e+01 -5.124146e+01 -2.266915e+01 -4.678687e+01 -3.552417e+01 -3.534401e+01 -5.647490e+01 -1.122783e+01 -2.359958e+01 -3.195693e+01 -3.920056e-01 -1.699230e+01 -4.410020e+00 -6.136556e+00 -1.537629e+01 3.254512e-01 -1.455394e+01 -2.062437e+00 -6.788527e+00 -1.090901e+01 1.151965e+00 -1.201093e+01 -5.719051e-01 -7.638682e+00 -7.528392e+00 1.616100e+00 -9.675687e+00 7.589925e-01 -6.647513e+00 -4.447856e+00 1.731957e+00 -7.336718e+00 1.564217e+00 -5.357690e+00 -1.909214e+00 1.607052e+00 -5.122715e+00 2.327932e+00 -3.843140e+00 2.002863e-01 1.410167e+00 -3.216464e+00 2.884539e+00 -2.559485e+00 1.506393e+00 7.550153e-01 -1.823239e+00 3.186357e+00 -2.115335e+00 1.838760e+00 1.287478e+00 -8.834340e-02 2.326379e+00 -1.572502e+00 2.558486e+00 4.471107e-01 6.192038e-02 2.846994e+00 -4.240319e-01 2.419327e+00 7.263544e-01 9.484557e-01 2.866131e+00 4.521611e-01 2.667302e+00 1.370284e+00 1.726639e+00 2.970857e+00 1.281610e+00 2.988027e+00 2.045458e+00 2.400881e+00 3.195001e+00 1.989745e+00 3.344025e+00 2.601666e+00 2.896994e+00 3.414618e+00 2.510743e+00 3.745913e+00 2.947387e+00 3.114664e+00 4.033373e+00 3.340275e+00 3.828807e+00 3.098864e+00 3.548601e+00 3.929928e+00 3.080839e+00 4.019759e+00 3.405205e+00 3.651236e+00 3.908837e+00 3.230994e+00 4.170741e+00 3.470790e+00 3.783870e+00 3.898975e+00 3.364892e+00 4.227800e+00 3.438800e+00 3.906370e+00 3.859913e+00 3.523878e+00 4.273862e+00 3.389895e+00 4.037058e+00 3.816268e+00 3.621067e+00 4.230141e+00 3.367123e+00 4.230997e+00 3.773727e+00 3.529132e+00 4.365182e+00 3.900618e+00 4.367362e+00 3.535064e+00 3.784945e+00 4.246584e+00 3.384196e+00 4.247296e+00 3.641222e+00 3.844672e+00 4.061887e+00 3.427800e+00 4.313448e+00 3.566258e+00 3.921294e+00 3.953174e+00 3.519207e+00 4.299016e+00 3.445483e+00 4.017631e+00 3.867886e+00 3.628407e+00 4.288282e+00 3.384084e+00 4.125097e+00 3.798448e+00 3.695597e+00 4.208835e+00 3.373806e+00 4.294028e+00 3.727727e+00 3.599068e+00 4.342214e+00 3.915841e+00 4.397387e+00 3.481493e+00 3.851563e+00 4.191341e+00 3.418574e+00 4.281230e+00 3.579778e+00 3.897457e+00 3.991388e+00 3.495275e+00 4.320527e+00 3.482686e+00 3.978585e+00 3.888662e+00 3.575459e+00 4.271700e+00 3.378519e+00 4.067722e+00 3.806226e+00 3.665724e+00 4.236538e+00 3.341426e+00 4.160229e+00 3.734154e+00 3.716192e+00 4.141211e+00 3.352123e+00 4.302246e+00 3.649185e+00 3.621559e+00 4.271456e+00 3.888501e+00 4.381003e+00 3.398661e+00 3.856410e+00 4.105858e+00 3.416208e+00 4.259201e+00 3.475460e+00 3.886136e+00 3.908676e+00 3.487602e+00 4.270686e+00 3.375286e+00 3.959887e+00 3.820466e+00 3.555833e+00 4.230976e+00 3.316292e+00 4.069755e+00 3.774201e+00 3.646704e+00 4.201982e+00 3.310446e+00 4.157197e+00 3.711126e+00 3.726292e+00 4.129857e+00 3.338639e+00 4.233017e+00 3.634698e+00 3.812310e+00 4.040003e+00 3.402110e+00 4.279241e+00 3.526215e+00 3.886647e+00 3.926725e+00 3.478819e+00 4.274488e+00 3.387358e+00 3.952081e+00 3.824309e+00 3.518944e+00 4.214961e+00 3.272462e+00 3.957746e+00 3.697133e+00 3.518846e+00 4.090583e+00 3.214788e+00 4.031436e+00 3.634013e+00 3.614663e+00 4.059320e+00 3.111532e+00 3.842341e+00 3.593232e+00 4.683513e+00 5.168839e+00 2.202823e+00 4.848356e-01 8.126074e-02 1.317871e-02 4.361208e-03 
-7.110419e-03 -3.961792e-02 -2.944537e-01 -2.011917e+00 -1.069159e+01 -2.811897e+01 -2.308463e+01 -1.084603e+01 -1.751932e+01 -7.010277e+00 -1.389440e+01 -1.188938e+01 2.209278e+01 9.331526e-01 1.660873e+00 3.899020e+01 1.222851e+01 2.039156e+01 3.207240e+01 -1.336709e+01 3.397098e+01 1.478235e+01 -3.000823e+01 1.109186e+01 -3.000198e+01 -1.617897e+00 -3.935108e+00 -2.747033e+01 7.303930e+00 -2.760727e+01 3.790832e-01 -1.119963e+01 -2.137673e+01 6.920159e+00 -2.409544e+01 2.307404e+00 -1.467579e+01 -1.514506e+01 5.989371e+00 -2.092477e+01 3.092920e+00 -1.514607e+01 -1.000205e+01 4.120627e+00 -1.756568e+01 3.214252e+00 -1.390840e+01 -5.437383e+00 2.156944e+00 -1.383517e+01 3.570677e+00 -1.179908e+01 -1.579563e+00 1.689173e-01 -1.048323e+01 3.803393e+00 -9.832526e+00 7.005470e-01 -2.407098e+00 -7.898376e+00 3.639907e+00 -9.483491e+00 1.206808e+00 -2.244088e+00 -5.629142e+00 8.759703e-01 -8.159889e+00 1.881524e+00 -4.468042e+00 -4.245052e+00 1.890522e+00 -6.166360e+00 1.025011e+00 -4.067509e+00 -2.523077e+00 1.132313e+00 -4.532349e+00 9.000779e-01 -3.003819e+00 -1.188459e+00 5.931992e-01 -2.918147e+00 9.235526e-01 -1.829672e+00 -1.961771e-01 3.327147e-01 -1.531296e+00 1.059856e+00 -8.579297e-01 4.263780e-01 3.416345e-01 -4.978612e-01 1.188680e+00 -4.212206e-01 6.736933e-01 1.152589e+00 1.753769e-01 5.316188e-01 1.571852e-01 1.054954e+00 8.814745e-01 5.848741e-01 1.219472e+00 7.243671e-01 1.083998e+00 1.040262e+00 8.746885e-01 1.297424e+00 9.245961e-01 1.184556e+00 1.130330e+00 1.022929e+00 1.325086e+00 1.009041e+00 1.256574e+00 1.166264e+00 1.127654e+00 1.341183e+00 1.041616e+00 1.316796e+00 1.166151e+00 1.175300e+00 1.310970e+00 1.028966e+00 1.354558e+00 1.078042e+00 1.051637e+00 1.279908e+00 1.007384e+00 1.256782e+00 1.035413e+00 1.108994e+00 1.352433e+00 1.053878e+00 1.334561e+00 1.189269e+00 1.216801e+00 1.325232e+00 1.110601e+00 1.383061e+00 1.172658e+00 1.262308e+00 1.283934e+00 1.151183e+00 1.382815e+00 1.127429e+00 1.306079e+00 1.244259e+00 1.195205e+00 1.371347e+00 1.100386e+00 1.348133e+00 1.201570e+00 1.213077e+00 1.318543e+00 1.062965e+00 1.372428e+00 1.085631e+00 1.081920e+00 1.265274e+00 1.022489e+00 1.283386e+00 1.024280e+00 1.128455e+00 1.342292e+00 1.058871e+00 1.349239e+00 1.171801e+00 1.226774e+00 1.306252e+00 1.119969e+00 1.386931e+00 1.142627e+00 1.266967e+00 1.264787e+00 1.149594e+00 1.371816e+00 1.096749e+00 1.300809e+00 1.223706e+00 1.176489e+00 1.351798e+00 1.068417e+00 1.327754e+00 1.177822e+00 1.173850e+00 1.295828e+00 1.021688e+00 1.333259e+00 1.062832e+00 1.023655e+00 1.211101e+00 9.568560e-01 1.272815e+00 9.771627e-01 1.033946e+00 1.327350e+00 9.590774e-01 1.316182e+00 1.118721e+00 1.114092e+00 1.302801e+00 9.950454e-01 1.368889e+00 1.082173e+00 1.136444e+00 1.281934e+00 1.008845e+00 1.385159e+00 1.045890e+00 1.178902e+00 1.273971e+00 1.043047e+00 1.400433e+00 1.039459e+00 1.232733e+00 1.263912e+00 1.095773e+00 1.390039e+00 1.053249e+00 1.294738e+00 1.233683e+00 1.150986e+00 1.347775e+00 1.060601e+00 1.336349e+00 1.158992e+00 1.171602e+00 1.272171e+00 1.035847e+00 1.342490e+00 1.048927e+00 1.153279e+00 1.209397e+00 9.883484e-01 1.332156e+00 9.714838e-01 1.124780e+00 1.179290e+00 9.684825e-01 1.322412e+00 9.534321e-01 1.157333e+00 1.180172e+00 1.006279e+00 1.351207e+00 9.199490e-01 1.120437e+00 1.158393e+00 1.436592e+00 2.358046e+00 1.688459e+00 5.371931e-01 9.625143e-02 1.168723e-02 -1.899505e-03 
-1.214871e-03 -2.165906e-02 -1.866884e-01 -1.264026e+00 -7.589211e+00 -2.001275e+01 -1.292853e+01 -3.208970e+00 -8.378582e+00 2.044356e-01 -1.691542e+00 6.348553e+00 2.630145e+01 -2.727367e+00 -2.660285e+00 1.939352e+00 8.283330e+00 4.893108e+00 4.614893e+00 -6.751484e+00 -3.850332e+00 3.455661e+01 1.237731e+00 1.639421e+01 -1.716546e+01 2.540916e+00 2.109099e+00 -1.617390e+01 7.951528e+00 -1.703085e+01 2.183197e+00 -6.124278e+00 -1.392498e+01 6.509608e+00 -1.553666e+01 2.869185e+00 -9.174638e+00 -1.015892e+01 4.860355e+00 -1.430625e+01 2.287483e+00 -1.086314e+01 -7.413835e+00 2.516491e+00 -1.291562e+01 1.547874e+00 -1.081818e+01 -4.807672e+00 3.141348e-01 -1.102011e+01 1.052956e+00 -1.004392e+01 -2.673328e+00 -1.879238e+00 -9.246571e+00 6.283721e-01 -9.137201e+00 -1.478271e+00 -4.156367e+00 -7.718498e+00 7.798919e-02 -9.178744e+00 -1.194707e+00 -4.332964e+00 -6.980202e+00 -2.328677e+00 -8.077380e+00 -1.135192e+00 -6.030086e+00 -5.363095e+00 -1.460767e+00 -6.931798e+00 -1.964599e+00 -5.834856e+00 -4.314542e+00 -2.346185e+00 -6.014422e+00 -2.382671e+00 -5.336482e+00 -3.655511e+00 -3.101784e+00 -5.109369e+00 -2.743180e+00 -4.782227e+00 -3.312687e+00 -3.695792e+00 -4.353246e+00 -3.032792e+00 -4.337579e+00 -3.202013e+00 -3.969463e+00 -3.794874e+00 -3.404204e+00 -4.274373e+00 -3.202683e+00 -3.826603e+00 -4.090072e+00 -4.313451e+00 -3.795413e+00 -3.320749e+00 -4.009137e+00 -3.250455e+00 -3.730764e+00 -3.502640e+00 -3.407897e+00 -3.791374e+00 -3.101941e+00 -3.836158e+00 -3.352799e+00 -3.462248e+00 -3.673257e+00 -3.102144e+00 -3.877064e+00 -3.211780e+00 -3.538282e+00 -3.580988e+00 -3.187349e+00 -3.919360e+00 -3.111088e+00 -3.639377e+00 -3.525338e+00 -3.257776e+00 -3.898339e+00 -3.100052e+00 -3.852204e+00 -3.581641e+00 -3.297986e+00 -4.128219e+00 -3.845375e+00 -4.159112e+00 -3.324333e+00 -3.571479e+00 -3.874241e+00 -3.094732e+00 -3.897695e+00 -3.264907e+00 -3.507441e+00 -3.658976e+00 -3.082873e+00 -3.924929e+00 -3.186683e+00 -3.552947e+00 -3.565222e+00 -3.154236e+00 -3.903679e+00 -3.082351e+00 -3.627665e+00 -3.500467e+00 -3.245640e+00 -3.903719e+00 -3.035185e+00 -3.719031e+00 -3.460524e+00 -3.311553e+00 -3.862368e+00 -3.069250e+00 -3.914238e+00 -3.512643e+00 -3.353941e+00 -4.115743e+00 -3.848247e+00 -4.166776e+00 -3.267681e+00 -3.636078e+00 -3.813658e+00 -3.134752e+00 -3.923816e+00 -3.204952e+00 -3.565353e+00 -3.588841e+00 -3.160802e+00 -3.928442e+00 -3.112949e+00 -3.623332e+00 -3.502968e+00 -3.230300e+00 -3.880294e+00 -3.031567e+00 -3.700181e+00 -3.443550e+00 -3.317392e+00 -3.858828e+00 -3.017935e+00 -3.789845e+00 -3.404078e+00 -3.386125e+00 -3.800818e+00 -3.090911e+00 -3.972186e+00 -3.436675e+00 -3.454213e+00 -4.089182e+00 -3.893167e+00 -4.157319e+00 -3.216373e+00 -3.758554e+00 -3.720483e+00 -3.255380e+00 -3.935728e+00 -3.134859e+00 -3.691040e+00 -3.486754e+00 -3.307942e+00 -3.887056e+00 -3.050643e+00 -3.764355e+00 -3.396668e+00 -3.386400e+00 -3.815814e+00 -3.022352e+00 -3.864749e+00 -3.348552e+00 -3.472185e+00 -3.761166e+00 -3.029175e+00 -3.919294e+00 -3.278541e+00 -3.519508e+00 -3.677914e+00 -3.055837e+00 -3.946141e+00 -3.213760e+00 -3.570642e+00 -3.608742e+00 -3.134504e+00 -3.953405e+00 -3.158848e+00 -3.645046e+00 -3.548454e+00 -3.266309e+00 -3.931904e+00 -3.108384e+00 -3.754656e+00 -3.488641e+00 -3.377387e+00 -3.860832e+00 -3.054469e+00 -3.795300e+00 -3.356659e+00 -3.401584e+00 -3.702068e+00 -3.006980e+00 -3.855574e+00 -3.273493e+00 -3.487136e+00 -3.624790e+00 -2.910904e+00 -3.645384e+00 -3.248282e+00 -4.356096e+00 -3.747893e+00 -5.988348e-01 1.315162e-01 3.963966e-02 7.321826e-03 1.726864e-03 
-1.485176e-03 -6.493581e-03 -5.088394e-02 -3.699560e-01 -2.019078e+00 -4.044263e+00 -3.943146e-01 1.829538e+00 8.046527e-01 3.018747e+00 3.471694e+00 3.449087e+00 -2.340379e+01 -2.215308e+01 -1.329706e+01 -2.293484e+01 -1.632253e+01 -1.790406e+01 -2.217809e+01 -9.353705e+00 -2.808397e+01 -2.656948e+01 7.191285e+00 5.739829e+00 -4.890394e-01 2.360540e+00 2.618573e+00 -7.489526e-01 2.408728e+00 -1.330549e+00 1.221535e+00 -2.853904e-01 -1.538708e+00 1.470539e+00 -1.661798e+00 8.052678e-01 -1.033502e+00 -1.324747e+00 6.956345e-01 -1.959823e+00 1.053638e-01 -1.872580e+00 -1.366685e+00 -1.598219e-01 -2.234841e+00 -4.413269e-01 -2.245802e+00 -1.350418e+00 -8.911559e-01 -2.359174e+00 -9.241021e-01 -2.482642e+00 -1.423752e+00 -1.597864e+00 -2.429053e+00 -1.315471e+00 -2.578182e+00 -1.530775e+00 -2.120350e+00 -2.366053e+00 -1.645111e+00 -2.725342e+00 -1.541485e+00 -2.194665e+00 -2.700027e+00 -2.268415e+00 -2.463693e+00 -1.744376e+00 -2.517904e+00 -2.156196e+00 -2.000161e+00 -2.429758e+00 -1.985627e+00 -2.531197e+00 -2.115816e+00 -2.282889e+00 -2.442577e+00 -2.205165e+00 -2.603390e+00 -2.195399e+00 -2.562628e+00 -2.466462e+00 -2.443127e+00 -2.686849e+00 -2.353848e+00 -2.839368e+00 -2.503195e+00 -2.678635e+00 -2.767073e+00 -2.523725e+00 -3.014578e+00 -2.537870e+00 -2.970383e+00 -2.892811e+00 -2.609577e+00 -3.230115e+00 -3.010341e+00 -3.308967e+00 -2.795532e+00 -2.844570e+00 -3.240063e+00 -2.603137e+00 -3.190674e+00 -2.830359e+00 -2.912369e+00 -3.151967e+00 -2.615492e+00 -3.286583e+00 -2.807826e+00 -2.987303e+00 -3.107127e+00 -2.676135e+00 -3.325146e+00 -2.746674e+00 -3.065468e+00 -3.058029e+00 -2.774967e+00 -3.357673e+00 -2.689094e+00 -3.155111e+00 -3.019469e+00 -2.842495e+00 -3.332695e+00 -2.676322e+00 -3.313692e+00 -3.022982e+00 -2.814031e+00 -3.466142e+00 -3.171536e+00 -3.485154e+00 -2.829384e+00 -3.023476e+00 -3.330165e+00 -2.684105e+00 -3.339958e+00 -2.854997e+00 -3.026616e+00 -3.172832e+00 -2.695697e+00 -3.375729e+00 -2.794300e+00 -3.075631e+00 -3.093728e+00 -2.762077e+00 -3.363845e+00 -2.705501e+00 -3.142915e+00 -3.034256e+00 -2.840886e+00 -3.357829e+00 -2.660386e+00 -3.220034e+00 -2.989901e+00 -2.893614e+00 -3.310482e+00 -2.668293e+00 -3.362486e+00 -2.979662e+00 -2.863603e+00 -3.451630e+00 -3.179025e+00 -3.500888e+00 -2.786842e+00 -3.074440e+00 -3.284944e+00 -2.713403e+00 -3.364127e+00 -2.807429e+00 -3.069331e+00 -3.117872e+00 -2.752636e+00 -3.380539e+00 -2.731874e+00 -3.124539e+00 -3.044526e+00 -2.813379e+00 -3.344233e+00 -2.658184e+00 -3.189819e+00 -2.988505e+00 -2.882209e+00 -3.320213e+00 -2.635518e+00 -3.260270e+00 -2.943418e+00 -2.928590e+00 -3.260410e+00 -2.666296e+00 -3.387238e+00 -2.920439e+00 -2.908597e+00 -3.413685e+00 -3.182873e+00 -3.490967e+00 -2.734657e+00 -3.119458e+00 -3.217385e+00 -2.756218e+00 -3.360541e+00 -2.739769e+00 -3.109444e+00 -3.049528e+00 -2.804361e+00 -3.347470e+00 -2.667281e+00 -3.169190e+00 -2.982452e+00 -2.864842e+00 -3.306038e+00 -2.632996e+00 -3.252280e+00 -2.945069e+00 -2.936295e+00 -3.272413e+00 -2.634981e+00 -3.312293e+00 -2.894337e+00 -2.991153e+00 -3.211052e+00 -2.659935e+00 -3.356647e+00 -2.838030e+00 -3.048449e+00 -3.145613e+00 -2.717106e+00 -3.378465e+00 -2.769562e+00 -3.106850e+00 -3.073903e+00 -2.796807e+00 -3.365067e+00 -2.689591e+00 -3.172514e+00 -3.008616e+00 -2.853439e+00 -3.312145e+00 -2.623922e+00 -3.193130e+00 -2.912644e+00 -2.867725e+00 -3.206050e+00 -2.587205e+00 -3.244714e+00 -2.853964e+00 -2.933362e+00 -3.153339e+00 -2.502013e+00 -3.081268e+00 -2.819139e+00 -3.674506e+00 -3.577382e+00 -1.112303e+00 -1.195432e-01 -5.178783e-03 3.497781e-04 -6.984788e-04 
6.051971e-04 -1.146704e-03 -1.106428e-02 -8.251595e-02 -3.819094e-01 -5.367305e-01 2.121153e-01 6.372761e-01 5.326158e-01 9.519670e-01 8.745721e-01 -1.460321e+00 -1.825271e+01 -8.159692e+00 -2.666591e+00 -2.674045e+00 -2.658301e+00 -2.663376e+00 -2.669926e+00 -2.651426e+00 -5.608957e+00 -2.584721e+01 -2.939855e+00 1.413036e-01 5.010615e-01 6.641832e-01 5.786242e-01 2.790622e-02 4.218520e-01 1.471253e-01 3.611737e-01 1.006887e-01 -1.986319e-01 1.151383e-01 -9.745482e-02 1.684481e-01 -7.060939e-02 -2.028837e-01 -4.533161e-02 -2.300594e-01 -6.250122e-03 -2.163663e-01 -2.209855e-01 -1.853930e-01 -3.300069e-01 -1.504137e-01 -3.229436e-01 -2.490561e-01 -2.973065e-01 -3.934265e-01 -2.651214e-01 -3.992906e-01 -2.942960e-01 -3.902519e-01 -4.303079e-01 -3.509937e-01 -4.459174e-01 -3.470912e-01 -4.590824e-01 -4.467738e-01 -4.274708e-01 -4.921227e-01 -3.755875e-01 -4.545961e-01 -4.469569e-01 -4.870443e-01 -4.897332e-01 -4.459580e-01 -5.460961e-01 -4.727813e-01 -5.242627e-01 -5.226259e-01 -5.023530e-01 -5.667588e-01 -4.905126e-01 -5.725739e-01 -5.431031e-01 -5.461161e-01 -5.895883e-01 -5.191968e-01 -6.151350e-01 -5.582338e-01 -5.851225e-01 -6.067493e-01 -5.523912e-01 -6.503660e-01 -5.672297e-01 -6.192210e-01 -6.185562e-01 -5.830594e-01 -6.713179e-01 -5.744782e-01 -6.612614e-01 -6.304504e-01 -5.792626e-01 -6.586600e-01 -5.840294e-01 -6.608062e-01 -6.024239e-01 -6.277572e-01 -6.946728e-01 -5.851282e-01 -6.897897e-01 -6.243132e-01 -6.396680e-01 -6.764454e-01 -5.860099e-01 -7.012158e-01 -6.184346e-01 -6.506483e-01 -6.675831e-01 -5.971159e-01 -7.070400e-01 -6.079835e-01 -6.621777e-01 -6.583633e-01 -6.133071e-01 -7.093462e-01 -5.962744e-01 -6.753267e-01 -6.508786e-01 -6.252484e-01 -7.051506e-01 -5.941170e-01 -7.002133e-01 -6.461042e-01 -6.060648e-01 -6.816793e-01 -6.035568e-01 -6.817109e-01 -6.062094e-01 -6.491345e-01 -7.014342e-01 -5.964261e-01 -7.069160e-01 -6.254301e-01 -6.537510e-01 -6.754424e-01 -5.979361e-01 -7.113173e-01 -6.143334e-01 -6.620612e-01 -6.630700e-01 -6.108243e-01 -7.105093e-01 -5.996624e-01 -6.729941e-01 -6.534005e-01 -6.236861e-01 -7.074115e-01 -5.907397e-01 -6.850080e-01 -6.456266e-01 -6.332997e-01 -7.001319e-01 -5.924606e-01 -7.078642e-01 -6.388829e-01 -6.142629e-01 -6.788107e-01 -6.044746e-01 -6.839461e-01 -5.992917e-01 -6.572091e-01 -6.936664e-01 -6.018376e-01 -7.111029e-01 -6.174934e-01 -6.604778e-01 -6.665637e-01 -6.081564e-01 -7.121086e-01 -6.037019e-01 -6.699468e-01 -6.554002e-01 -6.198890e-01 -7.070454e-01 -5.915943e-01 -6.809200e-01 -6.464862e-01 -6.307574e-01 -7.010810e-01 -5.867493e-01 -6.920290e-01 -6.386797e-01 -6.391596e-01 -6.919196e-01 -5.924634e-01 -7.124902e-01 -6.299878e-01 -6.220767e-01 -6.728696e-01 -6.047127e-01 -6.826500e-01 -5.914433e-01 -6.639384e-01 -6.831153e-01 -6.092956e-01 -7.104993e-01 -6.061902e-01 -6.660379e-01 -6.560743e-01 -6.165933e-01 -7.064936e-01 -5.928579e-01 -6.761244e-01 -6.459714e-01 -6.265294e-01 -6.988309e-01 -5.859014e-01 -6.871393e-01 -6.378497e-01 -6.363135e-01 -6.904195e-01 -5.851447e-01 -6.968521e-01 -6.294442e-01 -6.448658e-01 -6.795759e-01 -5.894107e-01 -7.042529e-01 -6.198999e-01 -6.536144e-01 -6.680259e-01 -5.993804e-01 -7.081783e-01 -6.081762e-01 -6.630656e-01 -6.564478e-01 -6.133442e-01 -7.059967e-01 -5.940612e-01 -6.733715e-01 -6.458939e-01 -6.230037e-01 -6.971808e-01 -5.837178e-01 -6.801553e-01 -6.334531e-01 -6.288890e-01 -6.836495e-01 -5.780941e-01 -6.863996e-01 -6.212897e-01 -6.334839e-01 -6.662983e-01 -5.582256e-01 -6.569741e-01 -6.191728e-01 -7.592758e-01 -7.185680e-01 -2.634445e-01 -4.517655e-02 -4.903908e-03 -2.711136e-05 4.400892e-04 
3.730001e-04 -3.262429e-04 7.978607e-04 -9.895691e-03 -4.267884e-02 -3.687411e-02 3.372216e-02 1.166704e-01 1.037925e-01 1.654914e-01 1.557467e-02 -1.368710e+00 -8.990035e+00 -8.715293e+00 -2.396846e+00 -2.383453e+00 -2.383399e+00 -2.383403e+00 -2.383423e+00 -2.389272e+00 -7.542363e+00 -1.037850e+01 -2.592464e+00 -4.740754e-01 1.027143e-01 1.532895e-01 6.627722e-02 -3.356570e-02 4.637187e-02 8.948866e-02 9.772621e-02 3.617732e-02 -7.104430e-02 -2.320801e-02 9.188906e-03 4.941951e-02 1.943188e-02 -5.335759e-02 -4.587493e-02 -3.018099e-02 8.009910e-03 -5.193349e-03 -4.427933e-02 -5.855235e-02 -5.408630e-02 -2.441154e-02 -2.897522e-02 -4.189133e-02 -6.465836e-02 -6.660478e-02 -4.755341e-02 -4.888972e-02 -4.730423e-02 -6.980408e-02 -7.279309e-02 -6.359528e-02 -6.324115e-02 -5.654207e-02 -7.426202e-02 -7.505464e-02 -7.551976e-02 -7.049500e-02 -2.135591e-02 3.102773e-01 6.986562e-01 4.046453e-01 -4.709287e-03 -6.717933e-02 -8.603032e-02 -7.865583e-02 -8.893184e-02 -8.472123e-02 -8.359665e-02 -9.011370e-02 -8.071892e-02 -9.346315e-02 -8.730756e-02 -8.877677e-02 -9.293651e-02 -8.398213e-02 -9.734414e-02 -8.871851e-02 -9.270495e-02 -9.447567e-02 -8.758691e-02 -1.001657e-01 -8.899503e-02 -9.578586e-02 -9.510337e-02 -9.077665e-02 -1.015370e-01 -8.901262e-02 -9.926564e-02 -9.133830e-02 -4.730871e-02 2.712844e-01 6.348395e-01 3.551478e-01 -2.195049e-02 -8.698338e-02 -1.024962e-01 -8.995229e-02 -1.025342e-01 -9.465100e-02 -9.635918e-02 -1.005715e-01 -8.968983e-02 -1.034069e-01 -9.365270e-02 -9.739020e-02 -9.930627e-02 -9.102767e-02 -1.041210e-01 -9.231888e-02 -9.852892e-02 -9.807931e-02 -9.287598e-02 -1.041697e-01 -9.068283e-02 -9.987414e-02 -9.708126e-02 -9.423359e-02 -1.035136e-01 -9.016593e-02 -1.020756e-01 -9.193927e-02 -4.953748e-02 2.692257e-01 6.314024e-01 3.522503e-01 -2.201808e-02 -8.870258e-02 -1.024562e-01 -9.087705e-02 -1.039268e-01 -9.433688e-02 -9.751535e-02 -9.997283e-02 -9.088355e-02 -1.042619e-01 -9.290164e-02 -9.840179e-02 -9.852460e-02 -9.257123e-02 -1.043475e-01 -9.112935e-02 -9.958707e-02 -9.739032e-02 -9.403183e-02 -1.038038e-01 -8.991210e-02 -1.009121e-01 -9.643288e-02 -9.512660e-02 -1.028251e-01 -8.991967e-02 -1.029488e-01 -9.107651e-02 -5.049378e-02 2.695635e-01 6.312759e-01 3.520467e-01 -2.118978e-02 -8.959932e-02 -1.015202e-01 -9.157963e-02 -1.044905e-01 -9.339404e-02 -9.825297e-02 -9.893377e-02 -9.217479e-02 -1.044235e-01 -9.160160e-02 -9.927794e-02 -9.766248e-02 -9.370299e-02 -1.039666e-01 -9.013905e-02 -1.005329e-01 -9.664788e-02 -9.489109e-02 -1.030698e-01 -8.944775e-02 -1.018073e-01 -9.569934e-02 -9.583502e-02 -1.018846e-01 -8.997254e-02 -1.036117e-01 -9.011128e-02 -5.146305e-02 2.702965e-01 6.315072e-01 3.524189e-01 -2.027837e-02 -9.038787e-02 -1.003745e-01 -9.259020e-02 -1.045731e-01 -9.207981e-02 -9.889560e-02 -9.780106e-02 -9.324777e-02 -1.038771e-01 -9.030611e-02 -9.997218e-02 -9.663129e-02 -9.440539e-02 -1.029415e-01 -8.936970e-02 -1.011169e-01 -9.558004e-02 -9.534947e-02 -1.016899e-01 -8.914318e-02 -1.022145e-01 -9.455315e-02 -9.621124e-02 -1.002703e-01 -8.959138e-02 -1.030638e-01 -9.334672e-02 -9.703000e-02 -9.873620e-02 -9.073012e-02 -1.035265e-01 -9.186885e-02 -9.798707e-02 -9.731036e-02 -9.240313e-02 -1.032649e-01 -9.005416e-02 -9.906564e-02 -9.604439e-02 -9.353476e-02 -1.022148e-01 -8.879330e-02 -1.000400e-01 -9.473681e-02 -9.424213e-02 -1.006002e-01 -8.792935e-02 -1.004046e-01 -9.293843e-02 -9.418551e-02 -9.781554e-02 -8.497205e-02 -9.659751e-02 -9.284482e-02 -1.088685e-01 -1.024046e-01 -4.279282e-02 -9.573037e-03 -1.687153e-03 -2.959507e-04 -3.880759e-04 