# vtk DataFile Version 2.0
Comment goes here
ASCII

DATASET STRUCTURED_POINTS
FIELD FieldData 1
TIME 1 1 double
0.01500000
DIMENSIONS    256   32   1

ORIGIN    0.000   0.000   0.000
SPACING   0.0078125 0.0078125   1.000

POINT_DATA   8192
SCALARS Omega double
LOOKUP_TABLE default

1.004758e-11 7.938182e-13 7.552477e-11 -1.207345e-11 -2.729642e-10 -3.473359e-09 -1.173452e-08 -1.175842e-08 -8.736598e-09 -9.180844e-09 -1.415545e-08 -2.826629e-08 -3.617341e-08 -6.776642e-08 -1.594823e-07 -1.214082e-07 -2.138245e-07 -2.792984e-07 -3.623833e-07 -6.978687e-07 -5.828880e-07 -3.849394e-07 -4.003456e-07 -2.397636e-07 -3.303941e-07 -3.686370e-07 -4.963939e-07 -4.562752e-07 -6.309617e-07 -7.730960e-07 -8.310564e-07 -1.193056e-06 -9.661459e-07 -1.431575e-06 -1.559966e-06 -1.768750e-06 -2.547218e-06 -1.996049e-06 -3.163304e-06 -3.120349e-06 -3.703253e-06 -5.093092e-06 -3.820561e-06 -6.172494e-06 -5.392461e-06 -5.316868e-06 -6.877889e-06 -2.085826e-06 -8.402227e-07 1.416812e-06 1.872696e-05 1.916337e-05 3.433672e-05 6.459934e-05 2.989121e-05 6.549164e-06 -1.016417e-05 -3.137281e-04 -5.330536e-04 6.414710e-05 1.087796e-03 8.515208e-05 -5.955870e-03 -1.273132e-03 9.994475e-03 1.600102e-03 -5.657791e-03 -8.465653e-04 7.580146e-04 2.627700e-04 -3.705526e-04 -3.176372e-04 -1.104982e-05 3.490708e-05 2.365066e-05 5.863629e-05 4.113230e-05 1.217193e-05 1.429550e-05 2.830449e-06 -3.234843e-07 2.205137e-06 1.522380e-05 1.496696e-05 3.451055e-05 6.020497e-05 2.521671e-05 9.591197e-06 -1.126821e-05 -3.257847e-04 -4.921046e-04 1.255915e-04 1.009634e-03 -1.615135e-04 -6.137558e-03 -4.539116e-04 1.063113e-02 9.705320e-04 -5.980325e-03 -6.558526e-04 8.399239e-04 2.214279e-04 -4.182973e-04 -3.245501e-04 -1.024946e-05 2.423566e-05 2.085054e-05 5.688110e-05 3.615877e-05 1.007713e-05 1.210760e-05 6.098653e-07 -2.474295e-06 1.203710e-06 1.358998e-05 1.248712e-05 3.621943e-05 5.710688e-05 2.190331e-05 1.252358e-05 -1.567421e-05 -3.352524e-04 -4.555056e-04 1.745070e-04 9.172383e-04 -4.200390e-04 -6.093366e-03 3.409462e-04 1.071013e-02 1.898939e-04 -6.096943e-03 -4.031336e-04 9.356378e-04 1.787705e-04 -4.563725e-04 -3.202612e-04 -4.511921e-06 2.003243e-05 2.284936e-05 5.927533e-05 3.400373e-05 1.100538e-05 1.250763e-05 1.060186e-07 -2.469054e-06 1.648513e-06 1.312916e-05 1.163869e-05 3.821125e-05 5.462051e-05 2.019727e-05 1.633206e-05 -2.097900e-05 -3.392909e-04 -4.171492e-04 2.148178e-04 8.211771e-04 -6.697313e-04 -5.970385e-03 1.118909e-03 1.061736e-02 -6.056323e-04 -6.134309e-03 -1.409347e-04 1.027234e-03 1.273820e-04 -4.925774e-04 -3.109705e-04 -6.274947e-08 1.623879e-05 2.603255e-05 6.138877e-05 3.146693e-05 1.253737e-05 1.295187e-05 -1.995249e-07 -2.159334e-06 2.236825e-06 1.277268e-05 1.130188e-05 3.998600e-05 5.216406e-05 1.967491e-05 2.077845e-05 -2.682528e-05 -3.386121e-04 -3.777043e-04 2.471413e-04 7.237499e-04 -9.038115e-04 -5.781641e-03 1.875449e-03 1.035321e-02 -1.405719e-03 -6.077279e-03 1.231523e-04 1.114980e-03 6.854728e-05 -5.227158e-04 -2.934254e-04 5.730151e-06 1.676842e-05 3.343658e-05 6.864497e-05 3.269404e-05 1.934918e-05 1.781516e-05 1.385491e-07 -1.154147e-06 -2.865369e-06 -6.919012e-06 -5.307044e-06 -5.559574e-06 -5.979992e-06 -3.853364e-06 -4.789088e-06 -3.491216e-06 -2.999503e-06 -3.005158e-06 -1.922140e-06 -2.325760e-06 -1.596998e-06 -1.451415e-06 -1.367606e-06 -9.292136e-07 -1.102905e-06 -7.257176e-07 -7.116725e-07 -6.333369e-07 -4.600315e-07 -5.267970e-07 -3.332348e-07 -3.579542e-07 -2.973087e-07 -2.299048e-07 -2.525673e-07 -1.579242e-07 -1.807517e-07 -1.416298e-07 -1.153298e-07 -1.221008e-07 -7.670743e-08 -9.198267e-08 -6.813760e-08 -5.900692e-08 -6.017054e-08 -3.888026e-08 -4.830476e-08 -3.570051e-08 -3.963827e-08 -3.798046e-08 -7.572693e-09 2.000877e-10 -3.036442e-11 -4.158088e-11 -3.898007e-11 
-1.801755e-04 -4.418653e-04 -1.375516e-03 -1.878505e-02 -1.833274e-01 -9.120165e-01 -1.849259e+00 -1.527263e+00 -1.681755e+00 -1.825057e+00 -1.883698e+00 -3.217228e+00 -3.426625e+00 -9.167391e+00 -1.158429e+01 -7.875881e+00 -1.117346e+01 -9.335569e+00 -1.102327e+01 -1.274827e+01 -5.827656e+00 -5.701646e+00 -4.350186e+00 -1.333202e+00 -1.496876e+00 -9.780376e-01 -1.041929e+00 -9.962581e-01 -5.148694e-01 -6.868166e-01 -4.463374e-01 -4.760217e-01 -4.526901e-01 -2.730270e-01 -3.655619e-01 -1.781144e-01 -1.957581e-01 -1.424290e-01 -1.513197e-03 -5.186121e-02 8.366473e-02 1.025432e-01 1.101202e-01 2.484965e-01 1.954108e-01 2.909804e-01 3.288560e-01 2.839185e-01 4.371566e-01 3.547125e-01 4.349936e-01 4.683214e-01 3.968009e-01 5.627236e-01 4.423213e-01 5.343046e-01 5.444188e-01 4.697913e-01 6.275337e-01 4.738834e-01 5.928406e-01 5.627289e-01 4.689677e-01 6.477314e-01 5.604448e-01 6.382914e-01 5.239424e-01 5.390780e-01 6.687091e-01 4.877948e-01 6.590182e-01 5.692027e-01 5.757044e-01 6.677925e-01 4.941172e-01 6.797473e-01 5.595627e-01 5.889862e-01 6.474763e-01 5.012632e-01 6.899251e-01 5.433523e-01 6.066386e-01 6.300260e-01 5.207277e-01 6.995013e-01 5.278006e-01 6.327225e-01 6.181155e-01 5.409606e-01 6.939676e-01 5.079433e-01 6.498963e-01 5.911449e-01 5.045424e-01 6.795005e-01 5.870273e-01 6.709457e-01 5.279476e-01 5.645387e-01 6.748081e-01 4.966052e-01 6.798302e-01 5.665509e-01 5.935044e-01 6.624994e-01 5.034262e-01 6.930851e-01 5.513676e-01 6.036634e-01 6.364756e-01 5.146511e-01 6.965309e-01 5.308885e-01 6.212919e-01 6.168692e-01 5.374687e-01 6.988601e-01 5.134919e-01 6.482828e-01 6.058331e-01 5.543106e-01 6.885518e-01 5.001333e-01 6.629707e-01 5.782454e-01 5.161632e-01 6.761851e-01 5.856930e-01 6.766398e-01 5.164001e-01 5.774564e-01 6.634460e-01 5.001448e-01 6.883229e-01 5.546560e-01 6.054886e-01 6.486671e-01 5.131992e-01 6.987544e-01 5.378744e-01 6.165498e-01 6.216220e-01 5.304978e-01 6.966108e-01 5.149974e-01 6.361403e-01 6.040032e-01 5.509844e-01 6.933167e-01 5.036332e-01 6.621549e-01 5.939004e-01 5.662594e-01 6.801690e-01 4.965304e-01 6.744689e-01 5.654170e-01 5.277529e-01 6.706709e-01 5.871764e-01 6.801995e-01 5.048751e-01 5.906302e-01 6.506789e-01 5.081269e-01 6.942694e-01 5.416784e-01 6.183724e-01 6.336928e-01 5.281080e-01 7.005565e-01 5.219385e-01 6.310682e-01 6.082879e-01 5.446127e-01 6.923831e-01 5.033821e-01 6.503464e-01 5.922418e-01 5.630643e-01 6.849644e-01 4.984539e-01 6.747109e-01 5.824032e-01 5.777578e-01 6.698252e-01 4.972524e-01 6.843679e-01 5.524614e-01 5.398103e-01 6.635008e-01 5.917246e-01 6.812044e-01 4.929454e-01 6.044687e-01 6.366892e-01 5.209189e-01 6.966586e-01 5.265937e-01 6.324602e-01 6.194499e-01 5.428109e-01 6.973442e-01 5.080594e-01 6.451529e-01 5.956945e-01 5.562732e-01 6.840999e-01 4.955938e-01 6.614714e-01 5.793296e-01 5.707192e-01 6.698512e-01 4.926894e-01 6.756087e-01 5.635818e-01 5.844657e-01 6.522634e-01 4.972272e-01 6.855755e-01 5.463172e-01 5.980487e-01 6.315681e-01 5.091733e-01 6.894374e-01 5.255825e-01 6.121272e-01 6.088799e-01 5.263070e-01 6.843845e-01 5.014782e-01 6.265628e-01 5.874504e-01 5.382294e-01 6.707915e-01 4.837248e-01 6.372096e-01 5.661231e-01 5.456994e-01 6.511707e-01 4.725771e-01 6.450657e-01 5.459965e-01 5.606842e-01 6.391344e-01 4.593228e-01 6.233690e-01 5.216263e-01 6.359928e-01 6.825057e-01 2.147656e-01 2.282340e-02 1.469131e-03 -3.856456e-05 -1.721016e-04 
6.406770e-04 4.599271e-04 -7.812250e-03 -1.916181e-01 -2.214726e+00 -8.167389e+00 -8.793171e+00 -5.065025e+00 -7.938490e+00 -4.895611e+00 -6.761750e+00 -1.010133e+01 -3.980175e+00 -2.161750e+01 -2.417244e+01 -1.071761e+01 -2.340604e+01 -1.569435e+01 -1.880959e+01 -2.831992e+01 -6.117462e+00 -1.020915e+01 -1.328493e+01 -1.669547e+00 -7.027891e+00 -2.703918e+00 -2.849195e+00 -5.809486e+00 -5.905591e-01 -4.775999e+00 -1.704603e+00 -2.388888e+00 -3.911035e+00 -5.409972e-01 -3.443858e+00 -1.092654e+00 -1.814868e+00 -2.255355e+00 -1.082338e-01 -1.877575e+00 -2.778168e-01 -7.379546e-01 -8.129827e-01 4.596917e-01 -5.620836e-01 4.291112e-01 2.024537e-01 1.573703e-01 9.477636e-01 3.117236e-01 9.226498e-01 8.216546e-01 7.304058e-01 1.294686e+00 8.096717e-01 1.250413e+00 1.175805e+00 1.052740e+00 1.486476e+00 1.034860e+00 1.428365e+00 1.285104e+00 1.121334e+00 1.604553e+00 1.299086e+00 1.508388e+00 1.243671e+00 1.315237e+00 1.626828e+00 1.169275e+00 1.621899e+00 1.383647e+00 1.410452e+00 1.641273e+00 1.203228e+00 1.675486e+00 1.367674e+00 1.446436e+00 1.592287e+00 1.225880e+00 1.701419e+00 1.330708e+00 1.493247e+00 1.550532e+00 1.277680e+00 1.727126e+00 1.294724e+00 1.563094e+00 1.523831e+00 1.330657e+00 1.714809e+00 1.243823e+00 1.598289e+00 1.449000e+00 1.246208e+00 1.674608e+00 1.415359e+00 1.647727e+00 1.304352e+00 1.384521e+00 1.661000e+00 1.215913e+00 1.679758e+00 1.395349e+00 1.462383e+00 1.638040e+00 1.235914e+00 1.711591e+00 1.355479e+00 1.486270e+00 1.569333e+00 1.263054e+00 1.719283e+00 1.303263e+00 1.531313e+00 1.519448e+00 1.321027e+00 1.726070e+00 1.260701e+00 1.602698e+00 1.493497e+00 1.364802e+00 1.701541e+00 1.224924e+00 1.631450e+00 1.417509e+00 1.275547e+00 1.664167e+00 1.412052e+00 1.664395e+00 1.275815e+00 1.416464e+00 1.632407e+00 1.224906e+00 1.701089e+00 1.365376e+00 1.492864e+00 1.603436e+00 1.260256e+00 1.725891e+00 1.321702e+00 1.518834e+00 1.531972e+00 1.302645e+00 1.719438e+00 1.263638e+00 1.568717e+00 1.486943e+00 1.354895e+00 1.712031e+00 1.236276e+00 1.637464e+00 1.463142e+00 1.394972e+00 1.680484e+00 1.215970e+00 1.660440e+00 1.385792e+00 1.304484e+00 1.648230e+00 1.415974e+00 1.675405e+00 1.246922e+00 1.449079e+00 1.600145e+00 1.244935e+00 1.716052e+00 1.332682e+00 1.525617e+00 1.565755e+00 1.297391e+00 1.730536e+00 1.281814e+00 1.555451e+00 1.498321e+00 1.337901e+00 1.708849e+00 1.234691e+00 1.604356e+00 1.457188e+00 1.385192e+00 1.691010e+00 1.223551e+00 1.668797e+00 1.433957e+00 1.424073e+00 1.654534e+00 1.217833e+00 1.685360e+00 1.353802e+00 1.334365e+00 1.628016e+00 1.427915e+00 1.680008e+00 1.216705e+00 1.483225e+00 1.564624e+00 1.276716e+00 1.721986e+00 1.294454e+00 1.560943e+00 1.529520e+00 1.333209e+00 1.722319e+00 1.246206e+00 1.589823e+00 1.465872e+00 1.365141e+00 1.687603e+00 1.213266e+00 1.629872e+00 1.423304e+00 1.400012e+00 1.651424e+00 1.204058e+00 1.663970e+00 1.382273e+00 1.432235e+00 1.606776e+00 1.211955e+00 1.686956e+00 1.336702e+00 1.462412e+00 1.553852e+00 1.235377e+00 1.694463e+00 1.280583e+00 1.491179e+00 1.494948e+00 1.267267e+00 1.681287e+00 1.212652e+00 1.517053e+00 1.439337e+00 1.281433e+00 1.649609e+00 1.156535e+00 1.531417e+00 1.386277e+00 1.282392e+00 1.608602e+00 1.115835e+00 1.543929e+00 1.345225e+00 1.314275e+00 1.605220e+00 1.089337e+00 1.508427e+00 1.312692e+00 1.518238e+00 1.891636e+00 8.150728e-01 1.333928e-01 8.868065e-03 7.054683e-04 3.281003e-04 
-4.108277e-04 -1.601778e-03 -2.152416e-02 -4.150839e-01 -5.370499e+00 -1.889521e+01 -1.476446e+01 -5.372161e+00 -1.309769e+01 -3.000471e+00 -8.129937e+00 -1.005330e+01 9.321722e+00 -5.460770e+00 1.611299e+00 1.739442e+01 1.486889e+00 1.144024e+01 1.237267e+01 -5.244737e+00 1.642215e+01 5.802961e+00 -1.259177e+01 3.483253e+00 -1.141699e+01 -2.213235e+00 -1.889777e+00 -1.114559e+01 1.292142e+00 -9.962444e+00 -2.337569e+00 -3.999764e+00 -8.701201e+00 2.433261e-01 -7.744149e+00 -1.979718e+00 -3.920894e+00 -5.635673e+00 -1.122641e-01 -5.053360e+00 -1.201148e+00 -2.653108e+00 -2.984430e+00 -6.727489e-02 -2.783430e+00 -4.784033e-01 -1.386496e+00 -1.267187e+00 9.893887e-02 -1.273436e+00 4.673474e-03 -5.118482e-01 -3.365990e-01 2.573638e-01 -4.062193e-01 2.865318e-01 -2.511691e-03 1.163338e-01 3.663348e-01 3.663972e-02 4.297276e-01 1.967804e-01 2.874749e-01 5.676550e-01 2.969900e-01 3.586521e-01 2.856912e-01 4.222198e-01 5.011289e-01 3.297347e-01 5.304870e-01 4.192597e-01 4.543642e-01 5.281021e-01 3.807328e-01 5.550485e-01 4.384800e-01 4.772497e-01 5.225303e-01 4.028959e-01 5.662067e-01 4.367727e-01 4.980170e-01 5.129792e-01 4.261477e-01 5.757215e-01 4.290489e-01 5.240105e-01 5.051203e-01 4.454926e-01 5.706269e-01 4.116183e-01 5.339580e-01 4.741216e-01 4.108535e-01 5.517768e-01 4.528210e-01 5.398406e-01 4.304998e-01 4.538544e-01 5.542913e-01 4.045985e-01 5.589572e-01 4.676809e-01 4.865835e-01 5.492723e-01 4.140982e-01 5.712704e-01 4.546506e-01 4.963224e-01 5.253253e-01 4.238416e-01 5.744176e-01 4.367483e-01 5.129289e-01 5.072632e-01 4.437145e-01 5.763175e-01 4.218805e-01 5.379868e-01 4.968786e-01 4.579861e-01 5.664645e-01 4.073320e-01 5.451348e-01 4.644625e-01 4.213826e-01 5.472076e-01 4.521813e-01 5.469453e-01 4.211301e-01 4.646156e-01 5.451905e-01 4.073442e-01 5.664589e-01 4.579417e-01 4.969610e-01 5.379702e-01 4.219252e-01 5.763472e-01 4.437153e-01 5.073395e-01 5.129025e-01 4.368102e-01 5.744331e-01 4.238784e-01 5.254251e-01 4.963029e-01 4.547928e-01 5.712839e-01 4.141852e-01 5.494367e-01 4.866047e-01 4.679960e-01 5.590561e-01 4.049082e-01 5.545379e-01 4.538111e-01 4.315101e-01 5.410096e-01 4.535996e-01 5.514737e-01 4.110877e-01 4.757400e-01 5.345192e-01 4.135304e-01 5.719479e-01 4.471129e-01 5.081142e-01 5.253742e-01 4.338604e-01 5.782729e-01 4.305554e-01 5.196052e-01 5.015791e-01 4.481917e-01 5.708577e-01 4.144317e-01 5.371956e-01 4.862653e-01 4.646592e-01 5.640421e-01 4.103212e-01 5.595995e-01 4.768434e-01 4.776714e-01 5.501455e-01 4.060166e-01 5.624184e-01 4.432251e-01 4.417806e-01 5.330320e-01 4.576671e-01 5.540120e-01 4.004070e-01 4.870664e-01 5.223864e-01 4.229131e-01 5.742513e-01 4.336093e-01 5.190768e-01 5.125720e-01 4.432857e-01 5.752473e-01 4.165895e-01 5.285865e-01 4.893048e-01 4.522173e-01 5.628564e-01 4.025486e-01 5.404985e-01 4.725225e-01 4.602623e-01 5.497481e-01 3.944638e-01 5.489416e-01 4.556849e-01 4.649444e-01 5.337357e-01 3.882007e-01 5.522574e-01 4.352599e-01 4.646786e-01 5.140262e-01 3.792755e-01 5.500766e-01 4.060552e-01 4.569599e-01 4.899949e-01 3.610348e-01 5.450014e-01 3.630670e-01 4.378035e-01 4.669218e-01 3.231989e-01 5.400459e-01 3.116414e-01 4.078462e-01 4.488139e-01 2.723184e-01 5.440456e-01 2.583373e-01 3.845451e-01 4.517021e-01 2.457631e-01 5.896151e-01 2.458758e-01 3.915670e-01 4.999205e-01 3.650659e-01 1.172681e+00 1.056270e+00 2.598940e-01 1.626316e-02 5.698809e-04 -3.249995e-04 
-4.067832e-05 -8.909414e-04 -1.610610e-02 -2.529112e-01 -3.703499e+00 -1.251787e+01 -6.553910e+00 1.073382e-01 -5.539552e+00 2.783957e+00 -1.116318e+00 8.324931e-01 1.335568e+01 -2.299888e-01 -7.868461e-01 1.215543e+00 4.627288e+00 2.509000e+00 3.277409e+00 -2.095464e+00 -2.354865e+00 1.678015e+01 1.879821e+00 6.480931e+00 -4.718191e+00 5.910533e-01 1.327626e+00 -6.015597e+00 2.143509e+00 -5.806425e+00 -7.471436e-01 -1.713887e+00 -5.374463e+00 9.236350e-01 -4.738136e+00 -9.908110e-01 -2.286001e+00 -3.769390e+00 -1.085368e-02 -3.527698e+00 -1.080835e+00 -2.167964e+00 -2.475555e+00 -6.906064e-01 -2.551545e+00 -1.141687e+00 -1.905961e+00 -1.711742e+00 -1.140595e+00 -1.918443e+00 -1.222538e+00 -1.695301e+00 -1.369654e+00 -1.418461e+00 -1.556051e+00 -1.327823e+00 -1.568348e+00 -1.264463e+00 -1.548654e+00 -1.333758e+00 -1.395264e+00 -1.478563e+00 -1.157045e+00 -1.470157e+00 -1.374566e+00 -1.587406e+00 -1.323007e+00 -1.255427e+00 -1.577685e+00 -1.168030e+00 -1.539149e+00 -1.350417e+00 -1.345540e+00 -1.567615e+00 -1.154229e+00 -1.581563e+00 -1.306013e+00 -1.366264e+00 -1.507933e+00 -1.158288e+00 -1.602917e+00 -1.258405e+00 -1.404629e+00 -1.463358e+00 -1.200481e+00 -1.626405e+00 -1.219661e+00 -1.468492e+00 -1.437684e+00 -1.249036e+00 -1.616423e+00 -1.171911e+00 -1.501760e+00 -1.372500e+00 -1.179558e+00 -1.584750e+00 -1.347829e+00 -1.561216e+00 -1.233765e+00 -1.311392e+00 -1.561579e+00 -1.142670e+00 -1.583626e+00 -1.309345e+00 -1.377508e+00 -1.538755e+00 -1.158899e+00 -1.611055e+00 -1.270785e+00 -1.397336e+00 -1.474096e+00 -1.183517e+00 -1.617224e+00 -1.221773e+00 -1.438160e+00 -1.428533e+00 -1.237922e+00 -1.624266e+00 -1.182651e+00 -1.505164e+00 -1.406709e+00 -1.280147e+00 -1.603588e+00 -1.151652e+00 -1.533093e+00 -1.341864e+00 -1.206439e+00 -1.575681e+00 -1.344132e+00 -1.575612e+00 -1.206730e+00 -1.341366e+00 -1.533897e+00 -1.151598e+00 -1.603279e+00 -1.280593e+00 -1.406196e+00 -1.505725e+00 -1.182305e+00 -1.624152e+00 -1.238405e+00 -1.428008e+00 -1.438686e+00 -1.221279e+00 -1.617319e+00 -1.183924e+00 -1.473586e+00 -1.397876e+00 -1.270276e+00 -1.611340e+00 -1.159085e+00 -1.538253e+00 -1.378052e+00 -1.308845e+00 -1.584123e+00 -1.142502e+00 -1.560901e+00 -1.312070e+00 -1.233185e+00 -1.561156e+00 -1.347762e+00 -1.585442e+00 -1.179953e+00 -1.371795e+00 -1.503160e+00 -1.171247e+00 -1.616746e+00 -1.249504e+00 -1.437013e+00 -1.470084e+00 -1.217995e+00 -1.628013e+00 -1.200510e+00 -1.462656e+00 -1.406931e+00 -1.255117e+00 -1.607296e+00 -1.156355e+00 -1.507472e+00 -1.369802e+00 -1.299273e+00 -1.591681e+00 -1.146675e+00 -1.568225e+00 -1.350358e+00 -1.336512e+00 -1.559876e+00 -1.143675e+00 -1.585040e+00 -1.281827e+00 -1.260970e+00 -1.543001e+00 -1.359093e+00 -1.589017e+00 -1.152090e+00 -1.404010e+00 -1.469786e+00 -1.202849e+00 -1.621836e+00 -1.214187e+00 -1.471494e+00 -1.436588e+00 -1.254856e+00 -1.620488e+00 -1.169307e+00 -1.498112e+00 -1.377872e+00 -1.286857e+00 -1.588215e+00 -1.141718e+00 -1.537661e+00 -1.340521e+00 -1.324147e+00 -1.555176e+00 -1.139019e+00 -1.573333e+00 -1.305344e+00 -1.361873e+00 -1.514237e+00 -1.157121e+00 -1.600144e+00 -1.268394e+00 -1.402773e+00 -1.466630e+00 -1.199317e+00 -1.612750e+00 -1.227910e+00 -1.450809e+00 -1.416278e+00 -1.264272e+00 -1.601212e+00 -1.188433e+00 -1.509022e+00 -1.369555e+00 -1.329496e+00 -1.565095e+00 -1.175738e+00 -1.565476e+00 -1.320994e+00 -1.393866e+00 -1.506340e+00 -1.187542e+00 -1.612982e+00 -1.264675e+00 -1.473904e+00 -1.450555e+00 -1.172101e+00 -1.562334e+00 -1.166536e+00 -1.605883e+00 -1.118041e+00 1.988489e-01 1.424051e-01 9.135798e-03 5.245523e-04 1.396463e-04 
-7.517723e-05 3.298074e-05 -1.560374e-03 -3.366293e-02 -4.633230e-01 -9.587770e-01 1.429821e+00 2.113715e+00 1.385429e+00 2.952430e+00 2.280960e+00 3.066867e+00 -9.542362e+00 -8.122320e+00 -5.962187e+00 -1.019508e+01 -6.320440e+00 -8.947678e+00 -9.505977e+00 -4.762857e+00 -1.448092e+01 -1.149075e+01 4.442015e+00 2.620971e+00 1.254366e+00 1.152414e+00 1.539083e+00 3.556713e-01 8.359920e-01 8.309053e-02 3.582422e-01 4.004728e-01 -1.335365e-01 4.366385e-01 -7.940847e-02 7.430860e-02 8.104927e-03 -2.644468e-01 -1.705806e-02 -3.282500e-01 -2.675979e-01 -3.925526e-01 -4.490172e-01 -4.553906e-01 -5.720292e-01 -5.736534e-01 -7.044202e-01 -6.200068e-01 -7.950302e-01 -7.471135e-01 -8.040350e-01 -9.017454e-01 -7.589504e-01 -1.024808e+00 -8.486492e-01 -9.739369e-01 -1.012873e+00 -8.649675e-01 -1.144310e+00 -8.775278e-01 -1.072729e+00 -1.033312e+00 -8.577605e-01 -1.170386e+00 -1.012958e+00 -1.165876e+00 -9.623382e-01 -9.764783e-01 -1.213870e+00 -8.849851e-01 -1.197583e+00 -1.034461e+00 -1.044911e+00 -1.214494e+00 -8.948893e-01 -1.234557e+00 -1.014405e+00 -1.067761e+00 -1.175375e+00 -9.065693e-01 -1.252781e+00 -9.836851e-01 -1.100024e+00 -1.143139e+00 -9.421518e-01 -1.270871e+00 -9.553910e-01 -1.149216e+00 -1.122501e+00 -9.798600e-01 -1.261724e+00 -9.185431e-01 -1.177315e+00 -1.071412e+00 -9.185817e-01 -1.234720e+00 -1.054904e+00 -1.217497e+00 -9.610689e-01 -1.023472e+00 -1.223266e+00 -8.974594e-01 -1.236066e+00 -1.026838e+00 -1.077178e+00 -1.203818e+00 -9.106303e-01 -1.259216e+00 -9.981359e-01 -1.094626e+00 -1.154704e+00 -9.306717e-01 -1.264934e+00 -9.602807e-01 -1.126952e+00 -1.118715e+00 -9.727609e-01 -1.269709e+00 -9.289510e-01 -1.177845e+00 -1.099714e+00 -1.004435e+00 -1.251871e+00 -9.040144e-01 -1.201465e+00 -1.047947e+00 -9.398070e-01 -1.227899e+00 -1.052376e+00 -1.228675e+00 -9.400571e-01 -1.046940e+00 -1.202229e+00 -9.041097e-01 -1.251553e+00 -1.004861e+00 -1.099318e+00 -1.178390e+00 -9.285799e-01 -1.269567e+00 -9.733031e-01 -1.118333e+00 -1.127375e+00 -9.597694e-01 -1.265057e+00 -9.311377e-01 -1.154259e+00 -1.095031e+00 -9.976484e-01 -1.259553e+00 -9.108917e-01 -1.203328e+00 -1.077655e+00 -1.026506e+00 -1.236562e+00 -8.972892e-01 -1.222721e+00 -1.024644e+00 -9.608770e-01 -1.216995e+00 -1.055184e+00 -1.235963e+00 -9.190253e-01 -1.070843e+00 -1.178635e+00 -9.189271e-01 -1.262338e+00 -9.809380e-01 -1.123102e+00 -1.150840e+00 -9.559619e-01 -1.272824e+00 -9.440504e-01 -1.145044e+00 -1.102837e+00 -9.857385e-01 -1.257308e+00 -9.098622e-01 -1.180357e+00 -1.073365e+00 -1.019913e+00 -1.244235e+00 -9.014224e-01 -1.226370e+00 -1.056393e+00 -1.047763e+00 -1.217624e+00 -8.985059e-01 -1.241056e+00 -1.001080e+00 -9.827251e-01 -1.203076e+00 -1.063782e+00 -1.238529e+00 -8.971466e-01 -1.095960e+00 -1.152810e+00 -9.426071e-01 -1.266581e+00 -9.532446e-01 -1.149145e+00 -1.124639e+00 -9.831149e-01 -1.266921e+00 -9.187385e-01 -1.171063e+00 -1.079722e+00 -1.007522e+00 -1.242140e+00 -8.959413e-01 -1.201008e+00 -1.049683e+00 -1.034397e+00 -1.216055e+00 -8.910540e-01 -1.227108e+00 -1.020913e+00 -1.060208e+00 -1.183838e+00 -9.001609e-01 -1.245657e+00 -9.896189e-01 -1.086131e+00 -1.146021e+00 -9.236511e-01 -1.253113e+00 -9.526547e-01 -1.113752e+00 -1.104903e+00 -9.581196e-01 -1.244122e+00 -9.109638e-01 -1.143470e+00 -1.066581e+00 -9.852068e-01 -1.219414e+00 -8.831234e-01 -1.167923e+00 -1.028953e+00 -1.006633e+00 -1.183331e+00 -8.700500e-01 -1.188597e+00 -9.936295e-01 -1.045002e+00 -1.161798e+00 -8.534256e-01 -1.154850e+00 -9.473316e-01 -1.177483e+00 -1.170991e+00 -2.817392e-01 -8.604577e-03 -1.046075e-04 -3.757944e-05 -7.911314e-05 
7.720661e-05 -1.402145e-05 -1.746362e-04 -3.449349e-03 -3.357809e-02 -6.895497e-03 2.452105e-01 2.940347e-01 2.385445e-01 3.844676e-01 3.257332e-01 -1.903275e-01 -7.707831e+00 -3.567380e+00 -1.168080e+00 -1.172907e+00 -1.161739e+00 -1.168429e+00 -1.168976e+00 -1.163033e+00 -3.330116e+00 -1.150125e+01 -3.705926e-01 2.298998e-01 2.264225e-01 1.705270e-01 2.238355e-01 1.114537e-01 1.190351e-01 8.380035e-02 5.822499e-02 6.426477e-02 1.502151e-02 3.281942e-02 8.895246e-03 -2.355708e-03 -1.010560e-02 -2.821754e-02 -3.198075e-02 -4.344374e-02 -5.141303e-02 -6.539365e-02 -6.164779e-02 -8.154452e-02 -7.923308e-02 -8.730515e-02 -1.012683e-01 -8.539007e-02 -1.157041e-01 -1.007103e-01 -1.114892e-01 -1.213625e-01 -1.018208e-01 -1.370306e-01 -1.113727e-01 -1.275746e-01 -1.307498e-01 -1.131172e-01 -1.469326e-01 -1.142292e-01 -1.398455e-01 -1.331983e-01 -1.080174e-01 -1.476780e-01 -1.350223e-01 -1.479044e-01 -1.196475e-01 -1.254364e-01 -1.540600e-01 -1.144656e-01 -1.498723e-01 -1.307607e-01 -1.321935e-01 -1.512630e-01 -1.148271e-01 -1.545195e-01 -1.288910e-01 -1.354255e-01 -1.474960e-01 -1.166143e-01 -1.568244e-01 -1.254899e-01 -1.390025e-01 -1.436279e-01 -1.205905e-01 -1.584027e-01 -1.217271e-01 -1.435427e-01 -1.402345e-01 -1.244803e-01 -1.566436e-01 -1.178388e-01 -1.493234e-01 -1.358426e-01 -1.140758e-01 -1.531689e-01 -1.385791e-01 -1.523020e-01 -1.189545e-01 -1.302648e-01 -1.542675e-01 -1.155550e-01 -1.536583e-01 -1.295796e-01 -1.354755e-01 -1.495553e-01 -1.165427e-01 -1.570263e-01 -1.268597e-01 -1.383006e-01 -1.448990e-01 -1.193902e-01 -1.580607e-01 -1.226962e-01 -1.419881e-01 -1.407539e-01 -1.241451e-01 -1.581535e-01 -1.185936e-01 -1.467887e-01 -1.376684e-01 -1.272839e-01 -1.553808e-01 -1.162103e-01 -1.520214e-01 -1.329267e-01 -1.166087e-01 -1.529249e-01 -1.383411e-01 -1.529836e-01 -1.163976e-01 -1.331693e-01 -1.518800e-01 -1.162956e-01 -1.554883e-01 -1.271048e-01 -1.379291e-01 -1.465855e-01 -1.186959e-01 -1.582090e-01 -1.239965e-01 -1.409945e-01 -1.417578e-01 -1.228387e-01 -1.580327e-01 -1.192868e-01 -1.451204e-01 -1.380562e-01 -1.270448e-01 -1.569260e-01 -1.164774e-01 -1.497463e-01 -1.352218e-01 -1.297870e-01 -1.535216e-01 -1.155081e-01 -1.543988e-01 -1.300464e-01 -1.191926e-01 -1.522305e-01 -1.386255e-01 -1.532212e-01 -1.139087e-01 -1.361276e-01 -1.492047e-01 -1.179924e-01 -1.567688e-01 -1.243842e-01 -1.405708e-01 -1.434141e-01 -1.219536e-01 -1.585451e-01 -1.205961e-01 -1.440459e-01 -1.389547e-01 -1.258872e-01 -1.570728e-01 -1.168013e-01 -1.481434e-01 -1.356003e-01 -1.296159e-01 -1.551012e-01 -1.153707e-01 -1.524406e-01 -1.328588e-01 -1.321702e-01 -1.512552e-01 -1.157353e-01 -1.564274e-01 -1.271443e-01 -1.219194e-01 -1.511831e-01 -1.394691e-01 -1.529254e-01 -1.114055e-01 -1.392302e-01 -1.462935e-01 -1.207313e-01 -1.572891e-01 -1.212062e-01 -1.434954e-01 -1.404441e-01 -1.251712e-01 -1.578278e-01 -1.176693e-01 -1.470773e-01 -1.363654e-01 -1.284501e-01 -1.553176e-01 -1.152360e-01 -1.506770e-01 -1.330428e-01 -1.315745e-01 -1.522582e-01 -1.147119e-01 -1.537830e-01 -1.298005e-01 -1.345447e-01 -1.485271e-01 -1.158429e-01 -1.560329e-01 -1.262517e-01 -1.375189e-01 -1.442074e-01 -1.186579e-01 -1.569960e-01 -1.220004e-01 -1.406841e-01 -1.395628e-01 -1.226967e-01 -1.560018e-01 -1.170826e-01 -1.440163e-01 -1.352050e-01 -1.256486e-01 -1.530510e-01 -1.136036e-01 -1.465145e-01 -1.307306e-01 -1.275227e-01 -1.484216e-01 -1.113848e-01 -1.477627e-01 -1.257250e-01 -1.290491e-01 -1.428557e-01 -1.068245e-01 -1.399404e-01 -1.188004e-01 -1.465718e-01 -1.470539e-01 -4.190039e-02 -3.415961e-03 -1.599878e-04 4.220473e-05 5.625036e-05 
5.406743e-05 -5.527812e-05 3.074615e-04 -9.658323e-05 -5.439536e-04 5.732210e-03 1.248542e-02 1.914288e-02 1.657675e-02 2.743499e-02 -1.441258e-04 -3.652086e-01 -3.801234e+00 -3.985017e+00 -1.053630e+00 -1.048305e+00 -1.048275e+00 -1.048286e+00 -1.048292e+00 -1.052725e+00 -4.153664e+00 -4.884907e+00 -5.203558e-01 -2.744440e-02 1.965499e-02 1.539183e-02 1.547660e-02 8.312158e-03 9.126284e-03 9.539514e-03 4.386935e-03 3.790462e-03 -5.555440e-04 1.278667e-04 1.185068e-04 -1.491438e-03 -2.482776e-03 -3.619185e-03 -4.634124e-03 -4.544708e-03 -5.237181e-03 -6.392228e-03 -5.703394e-03 -7.592717e-03 -6.919903e-03 -7.461459e-03 -8.450063e-03 -7.029273e-03 -9.350147e-03 -8.060653e-03 -8.751192e-03 -9.411856e-03 -7.893155e-03 -1.035727e-02 -8.494302e-03 -9.519268e-03 -9.722848e-03 -8.498969e-03 -1.079275e-02 -8.555331e-03 -1.028584e-02 -9.747023e-03 -6.480871e-03 1.394777e-02 3.718463e-02 1.484896e-02 -7.014049e-03 -9.061247e-03 -1.112962e-02 -8.456360e-03 -1.072779e-02 -9.493684e-03 -9.542326e-03 -1.078834e-02 -8.407345e-03 -1.100437e-02 -9.352970e-03 -9.769952e-03 -1.057103e-02 -8.538920e-03 -1.116978e-02 -9.132335e-03 -9.989259e-03 -1.030610e-02 -8.787284e-03 -1.125396e-02 -8.858263e-03 -1.023021e-02 -1.004038e-02 -9.048180e-03 -1.115777e-02 -8.631436e-03 -1.072325e-02 -9.755322e-03 -6.781484e-03 1.366301e-02 3.698535e-02 1.465250e-02 -6.901484e-03 -9.329609e-03 -1.107885e-02 -8.489217e-03 -1.093621e-02 -9.385020e-03 -9.723546e-03 -1.064415e-02 -8.504966e-03 -1.115093e-02 -9.204715e-03 -9.940495e-03 -1.038579e-02 -8.716174e-03 -1.124723e-02 -8.940134e-03 -1.017394e-02 -1.011274e-02 -9.018308e-03 -1.123812e-02 -8.644843e-03 -1.043576e-02 -9.875272e-03 -9.228867e-03 -1.107071e-02 -8.522996e-03 -1.089823e-02 -9.552582e-03 -6.946637e-03 1.363992e-02 3.699718e-02 1.464614e-02 -6.725887e-03 -9.527408e-03 -1.092299e-02 -8.536269e-03 -1.106464e-02 -9.224732e-03 -9.876547e-03 -1.044806e-02 -8.648637e-03 -1.123398e-02 -9.015985e-03 -1.011184e-02 -1.017998e-02 -8.945466e-03 -1.125126e-02 -8.711815e-03 -1.037460e-02 -9.938202e-03 -9.207652e-03 -1.116012e-02 -8.502043e-03 -1.062865e-02 -9.720653e-03 -9.389275e-03 -1.094514e-02 -8.478013e-03 -1.105500e-02 -9.352682e-03 -7.120273e-03 1.364502e-02 3.698188e-02 1.466709e-02 -6.560005e-03 -9.728538e-03 -1.074790e-02 -8.647692e-03 -1.115827e-02 -9.046422e-03 -1.004167e-02 -1.024033e-02 -8.865505e-03 -1.126157e-02 -8.789617e-03 -1.030653e-02 -9.997942e-03 -9.146160e-03 -1.119111e-02 -8.544922e-03 -1.057123e-02 -9.780032e-03 -9.374092e-03 -1.104142e-02 -8.426607e-03 -1.080698e-02 -9.570948e-03 -9.540038e-03 -1.079215e-02 -8.495529e-03 -1.119014e-02 -9.151136e-03 -7.307341e-03 1.367374e-02 3.693828e-02 1.472085e-02 -6.399163e-03 -9.938977e-03 -1.055802e-02 -8.829506e-03 -1.120334e-02 -8.836037e-03 -1.022668e-02 -1.004888e-02 -9.079569e-03 -1.122000e-02 -8.595777e-03 -1.050537e-02 -9.833885e-03 -9.316973e-03 -1.108226e-02 -8.444963e-03 -1.074924e-02 -9.625036e-03 -9.520948e-03 -1.088372e-02 -8.412133e-03 -1.096297e-02 -9.419282e-03 -9.715841e-03 -1.064255e-02 -8.491237e-03 -1.112374e-02 -9.190232e-03 -9.909338e-03 -1.036248e-02 -8.683430e-03 -1.120522e-02 -8.914962e-03 -1.011915e-02 -1.006612e-02 -8.957860e-03 -1.115653e-02 -8.588374e-03 -1.033665e-02 -9.785611e-03 -9.148606e-03 -1.096673e-02 -8.349941e-03 -1.049419e-02 -9.486507e-03 -9.247808e-03 -1.064039e-02 -8.168965e-03 -1.052291e-02 -9.102790e-03 -9.194175e-03 -1.011070e-02 -7.784091e-03 -9.934247e-03 -8.642407e-03 -1.051798e-02 -1.059625e-02 -3.380430e-03 -4.013255e-04 -6.827521e-05 -1.777064e-05 -5.309519e-05 