# vtk DataFile Version 2.0
Comment goes here
ASCII

DATASET STRUCTURED_POINTS
FIELD FieldData 1
TIME 1 1 double
0.00700000
DIMENSIONS    256   32   1

ORIGIN    0.000   0.000   0.000
SPACING   0.0078125 0.0078125   1.000

POINT_DATA   8192
SCALARS Omega double
LOOKUP_TABLE default

3.277975e-12 5.042065e-13 1.706545e-11 2.735753e-12 -8.387117e-12 -1.369146e-09 -6.141173e-09 -5.775583e-09 -4.822091e-09 -6.029216e-09 -6.133846e-09 -1.236330e-08 -1.350767e-08 -3.414981e-08 -6.068620e-08 -4.645105e-08 -7.888667e-08 -8.378795e-08 -1.095264e-07 -1.697429e-07 -1.346384e-07 -1.250486e-07 -1.086687e-07 -9.992503e-08 -1.205657e-07 -1.323838e-07 -1.974143e-07 -1.609479e-07 -2.558626e-07 -2.808643e-07 -3.224532e-07 -4.755790e-07 -3.656796e-07 -5.986364e-07 -5.975600e-07 -7.401589e-07 -1.051902e-06 -8.101274e-07 -1.380202e-06 -1.268686e-06 -1.602512e-06 -2.152886e-06 -1.523166e-06 -2.435235e-06 -1.971823e-06 -1.434574e-06 -1.824006e-06 1.008150e-07 1.544516e-06 1.344528e-06 3.995771e-06 4.087041e-06 -2.342404e-06 -7.181126e-06 -7.607294e-06 -2.024066e-05 -2.179420e-05 -2.311915e-05 -3.366238e-05 1.559442e-05 1.213031e-04 3.233633e-05 -7.184796e-04 -1.507986e-04 1.267098e-03 1.890650e-04 -6.842637e-04 -4.751035e-05 1.135035e-04 4.122712e-05 -1.862197e-05 -1.743837e-05 -1.336272e-05 -1.485393e-05 -4.927924e-06 -8.537551e-07 -4.576002e-08 5.653973e-06 6.942386e-06 4.281997e-06 6.300044e-06 4.449315e-06 5.413140e-06 5.340668e-06 -1.723444e-06 -5.401805e-06 -6.459871e-06 -1.839431e-05 -1.843967e-05 -2.044592e-05 -2.726689e-05 2.608303e-05 1.306882e-04 1.845607e-05 -8.461233e-04 -5.866357e-05 1.570880e-03 1.388466e-04 -8.379032e-04 -4.206534e-05 1.179925e-04 3.510089e-05 -2.532291e-05 -2.149108e-05 -1.757238e-05 -1.880552e-05 -6.984264e-06 -4.498867e-06 -2.282508e-06 4.162330e-06 4.924812e-06 3.228505e-06 4.878684e-06 3.351178e-06 4.666229e-06 4.237423e-06 -2.463120e-06 -5.536063e-06 -6.977970e-06 -1.911740e-05 -1.809935e-05 -2.107117e-05 -2.620826e-05 3.071359e-05 1.238689e-04 -1.350430e-05 -8.508543e-04 4.836116e-05 1.591770e-03 3.482524e-05 -8.517265e-04 -1.113603e-05 1.243997e-04 3.050592e-05 -2.652308e-05 -2.111513e-05 -1.826362e-05 -1.865002e-05 -6.828658e-06 -5.175476e-06 -2.275907e-06 4.392547e-06 4.737362e-06 3.324413e-06 4.851757e-06 3.217455e-06 4.796521e-06 3.967535e-06 -2.530648e-06 -4.922484e-06 -7.189107e-06 -1.936183e-05 -1.746907e-05 -2.160133e-05 -2.510732e-05 3.519039e-05 1.172124e-04 -4.466958e-05 -8.378992e-04 1.526208e-04 1.573125e-03 -7.185289e-05 -8.476933e-04 2.075115e-05 1.310298e-04 2.570283e-05 -2.780859e-05 -2.076951e-05 -1.892494e-05 -1.831360e-05 -6.708345e-06 -5.686268e-06 -2.065840e-06 4.674449e-06 4.644687e-06 3.480906e-06 4.887849e-06 3.188087e-06 4.995618e-06 3.758085e-06 -2.381885e-06 -4.142921e-06 -7.417152e-06 -1.935855e-05 -1.677060e-05 -2.214496e-05 -2.399460e-05 3.963637e-05 1.109326e-04 -7.366348e-05 -8.100067e-04 2.521125e-04 1.518492e-03 -1.775712e-04 -8.254467e-04 5.249040e-05 1.385491e-04 2.121765e-05 -2.813184e-05 -1.958948e-05 -1.821911e-05 -1.648281e-05 -5.332078e-06 -4.171821e-06 -6.916692e-07 5.975421e-06 5.449203e-06 2.211747e-06 2.754168e-06 6.845381e-07 -9.388126e-07 -7.602350e-07 -1.530870e-06 -1.879291e-06 -1.194534e-06 -1.700547e-06 -1.259670e-06 -1.037178e-06 -1.132070e-06 -6.502162e-07 -8.307064e-07 -5.706317e-07 -4.834710e-07 -4.925439e-07 -2.984193e-07 -3.812485e-07 -2.448208e-07 -2.307581e-07 -2.185374e-07 -1.428097e-07 -1.777150e-07 -1.068810e-07 -1.129729e-07 -9.859749e-08 -6.883580e-08 -8.263777e-08 -4.781983e-08 -5.528977e-08 -4.470385e-08 -3.315558e-08 -3.817160e-08 -2.183002e-08 -2.696079e-08 -2.028490e-08 -1.623644e-08 -1.783790e-08 -1.044183e-08 -1.356964e-08 -9.891248e-09 -1.044605e-08 -1.079620e-08 -2.288093e-09 1.402413e-11 -7.658379e-12 -4.865364e-12 -4.692104e-12 
-1.466467e-05 -3.090626e-05 -7.205792e-05 -1.767261e-03 -3.164935e-02 -2.074886e-01 -4.918311e-01 -4.183429e-01 -4.560923e-01 -5.236399e-01 -5.933091e-01 -1.224745e+00 -1.207815e+00 -3.513802e+00 -4.642011e+00 -3.068139e+00 -4.560853e+00 -3.709170e+00 -4.238151e+00 -5.019401e+00 -2.254645e+00 -2.239660e+00 -1.593214e+00 -3.920596e-01 -4.465106e-01 -2.907946e-01 -3.850373e-01 -3.217781e-01 -1.870987e-01 -2.524825e-01 -1.134378e-01 -1.314251e-01 -1.167989e-01 -4.658581e-02 -9.286035e-02 -3.061122e-02 -4.710374e-02 -4.332445e-02 -2.299530e-03 -3.509520e-02 8.812858e-03 -4.773486e-04 1.118490e-03 3.607203e-02 1.146329e-02 4.755093e-02 4.630369e-02 4.321072e-02 8.373388e-02 5.824779e-02 9.329451e-02 9.649638e-02 8.673253e-02 1.370249e-01 1.008364e-01 1.382711e-01 1.384186e-01 1.258258e-01 1.802705e-01 1.303322e-01 1.808091e-01 1.696684e-01 1.554027e-01 2.169113e-01 1.624165e-01 2.142829e-01 1.838664e-01 1.846518e-01 2.341132e-01 1.620057e-01 2.346546e-01 1.970302e-01 2.026246e-01 2.413275e-01 1.713108e-01 2.534687e-01 2.011667e-01 2.164018e-01 2.422125e-01 1.792395e-01 2.626172e-01 1.978713e-01 2.276302e-01 2.380348e-01 1.898926e-01 2.696413e-01 1.925012e-01 2.376086e-01 2.310719e-01 1.990227e-01 2.678358e-01 1.850588e-01 2.500775e-01 2.254569e-01 1.961550e-01 2.670574e-01 2.078240e-01 2.608464e-01 2.067522e-01 2.149208e-01 2.620963e-01 1.808552e-01 2.623847e-01 2.110982e-01 2.221202e-01 2.528465e-01 1.836752e-01 2.698925e-01 2.055610e-01 2.297208e-01 2.446843e-01 1.894990e-01 2.713164e-01 1.964810e-01 2.379361e-01 2.357598e-01 1.995758e-01 2.724289e-01 1.881562e-01 2.466360e-01 2.275156e-01 2.060576e-01 2.666826e-01 1.826011e-01 2.571761e-01 2.208034e-01 2.016595e-01 2.650768e-01 2.081813e-01 2.650923e-01 2.016824e-01 2.207616e-01 2.572134e-01 1.826022e-01 2.666767e-01 2.060955e-01 2.275058e-01 2.466764e-01 1.881505e-01 2.724487e-01 1.996261e-01 2.357722e-01 2.379943e-01 1.964916e-01 2.713813e-01 1.895692e-01 2.447396e-01 2.298190e-01 2.056230e-01 2.700354e-01 1.837902e-01 2.530012e-01 2.223037e-01 2.112785e-01 2.626757e-01 1.810717e-01 2.624604e-01 2.152852e-01 2.070894e-01 2.614486e-01 2.085633e-01 2.679198e-01 1.967425e-01 2.264114e-01 2.512183e-01 1.860988e-01 2.695705e-01 2.004150e-01 2.331772e-01 2.398062e-01 1.947773e-01 2.731706e-01 1.926108e-01 2.424451e-01 2.318473e-01 2.027245e-01 2.694887e-01 1.844990e-01 2.511447e-01 2.243603e-01 2.110469e-01 2.663299e-01 1.814331e-01 2.586861e-01 2.172378e-01 2.162244e-01 2.577124e-01 1.813775e-01 2.668160e-01 2.096708e-01 2.130697e-01 2.568207e-01 2.096276e-01 2.697199e-01 1.919236e-01 2.321287e-01 2.443568e-01 1.915329e-01 2.706055e-01 1.936150e-01 2.390737e-01 2.329649e-01 2.010674e-01 2.713204e-01 1.862708e-01 2.484415e-01 2.256667e-01 2.073664e-01 2.650568e-01 1.804207e-01 2.547294e-01 2.173062e-01 2.133900e-01 2.582067e-01 1.788782e-01 2.607129e-01 2.099645e-01 2.194068e-01 2.501412e-01 1.807072e-01 2.648842e-01 2.021247e-01 2.255646e-01 2.408385e-01 1.860052e-01 2.667805e-01 1.932590e-01 2.326437e-01 2.312305e-01 1.943005e-01 2.657669e-01 1.838380e-01 2.410281e-01 2.232027e-01 2.016694e-01 2.624025e-01 1.783863e-01 2.494781e-01 2.167666e-01 2.095553e-01 2.588555e-01 1.776970e-01 2.589043e-01 2.117425e-01 2.141126e-01 2.493767e-01 1.700789e-01 2.434582e-01 1.980010e-01 2.654986e-01 2.897637e-01 7.738216e-02 4.213685e-03 1.423170e-04 -6.064192e-06 -1.403232e-05 
4.678892e-05 3.982855e-05 -6.909187e-04 -2.890103e-02 -5.732726e-01 -2.396647e+00 -2.625844e+00 -1.489445e+00 -2.462441e+00 -1.493160e+00 -2.293552e+00 -4.083300e+00 -1.483508e+00 -8.550957e+00 -1.066433e+01 -4.367420e+00 -1.030384e+01 -7.128856e+00 -7.597247e+00 -1.270311e+01 -2.591525e+00 -4.361756e+00 -5.908642e+00 -3.402994e-02 -2.916283e+00 -8.361832e-01 -1.052432e+00 -2.522536e+00 9.471277e-02 -2.198397e+00 -2.430777e-01 -8.114857e-01 -1.508638e+00 3.680802e-01 -1.515629e+00 7.308040e-02 -7.734390e-01 -9.465286e-01 3.307291e-01 -1.166379e+00 1.372978e-01 -6.769539e-01 -5.825684e-01 2.492813e-01 -8.330609e-01 1.654673e-01 -4.629252e-01 -2.744434e-01 2.367667e-01 -4.751985e-01 2.431452e-01 -1.791431e-01 -6.251039e-04 3.033139e-01 -1.423589e-01 3.522885e-01 8.243163e-02 2.132396e-01 3.908556e-01 1.088318e-01 4.740818e-01 2.460286e-01 3.556409e-01 5.929259e-01 3.135772e-01 4.769676e-01 3.718688e-01 4.894442e-01 5.763646e-01 3.671507e-01 6.224972e-01 4.703060e-01 5.285503e-01 6.160075e-01 4.293059e-01 6.756292e-01 5.090566e-01 5.733641e-01 6.324211e-01 4.669706e-01 7.007347e-01 5.149940e-01 6.074374e-01 6.295098e-01 5.036629e-01 7.210582e-01 5.089945e-01 6.364913e-01 6.151403e-01 5.316774e-01 7.164357e-01 4.922077e-01 6.704169e-01 6.002960e-01 5.258282e-01 7.158792e-01 5.492934e-01 6.967413e-01 5.539047e-01 5.745274e-01 7.025438e-01 4.836498e-01 7.033501e-01 5.657091e-01 5.953317e-01 6.784267e-01 4.921934e-01 7.243828e-01 5.509286e-01 6.158651e-01 6.562168e-01 5.075053e-01 7.277521e-01 5.262164e-01 6.381467e-01 6.321729e-01 5.350814e-01 7.312699e-01 5.043895e-01 6.619988e-01 6.099728e-01 5.527206e-01 7.150704e-01 4.888299e-01 6.899337e-01 5.903068e-01 5.414104e-01 7.099758e-01 5.515918e-01 7.099682e-01 5.414442e-01 5.902625e-01 6.900176e-01 4.888529e-01 7.150769e-01 5.528056e-01 6.099888e-01 6.621002e-01 5.044420e-01 7.313521e-01 5.352209e-01 6.322788e-01 6.383139e-01 5.263792e-01 7.279630e-01 5.077592e-01 6.565127e-01 6.161753e-01 5.513621e-01 7.248216e-01 4.927203e-01 6.791387e-01 5.959557e-01 5.667418e-01 7.042363e-01 4.848460e-01 7.040903e-01 5.755022e-01 5.561691e-01 6.998140e-01 5.526091e-01 7.179944e-01 5.280732e-01 6.054513e-01 6.739006e-01 4.981477e-01 7.229581e-01 5.375642e-01 6.252751e-01 6.435791e-01 5.222278e-01 7.333288e-01 5.163511e-01 6.502791e-01 6.217099e-01 5.430781e-01 7.228600e-01 4.941121e-01 6.737178e-01 6.014004e-01 5.658708e-01 7.148136e-01 4.863282e-01 6.943415e-01 5.822692e-01 5.798670e-01 6.908111e-01 4.855656e-01 7.155536e-01 5.604273e-01 5.720760e-01 6.865614e-01 5.550339e-01 7.233594e-01 5.148188e-01 6.201204e-01 6.552869e-01 5.117562e-01 7.255117e-01 5.187321e-01 6.400586e-01 6.249177e-01 5.374118e-01 7.280457e-01 4.981257e-01 6.645829e-01 6.046837e-01 5.525300e-01 7.106751e-01 4.806786e-01 6.801205e-01 5.814670e-01 5.666993e-01 6.924010e-01 4.743119e-01 6.948698e-01 5.610902e-01 5.801253e-01 6.711683e-01 4.757266e-01 7.048910e-01 5.391400e-01 5.932161e-01 6.469517e-01 4.851910e-01 7.102518e-01 5.142236e-01 6.086065e-01 6.225034e-01 5.024234e-01 7.111154e-01 4.877673e-01 6.279807e-01 6.041688e-01 5.188417e-01 7.080143e-01 4.729164e-01 6.505162e-01 5.920734e-01 5.406642e-01 7.059917e-01 4.728030e-01 6.806733e-01 5.840747e-01 5.565956e-01 6.866647e-01 4.533712e-01 6.441961e-01 5.484867e-01 7.030491e-01 8.464632e-01 3.013558e-01 3.531252e-02 1.483907e-03 6.281029e-05 2.464244e-05 
-3.469313e-05 -1.124688e-04 -2.176032e-03 -7.226858e-02 -1.498068e+00 -5.779235e+00 -4.465225e+00 -1.537909e+00 -4.220645e+00 -8.255252e-01 -2.697632e+00 -3.609806e+00 4.016989e+00 -1.026913e+00 4.414753e-01 8.123724e+00 1.045800e+00 4.408478e+00 6.666088e+00 -3.100275e+00 7.656700e+00 2.852707e+00 -6.480705e+00 2.634865e+00 -5.610794e+00 -4.932767e-01 -4.039958e-01 -5.284662e+00 1.587855e+00 -4.800072e+00 3.552003e-02 -1.517451e+00 -3.710256e+00 1.405929e+00 -3.885565e+00 4.149183e-01 -1.974782e+00 -2.523390e+00 1.011148e+00 -3.216618e+00 3.564336e-01 -1.986321e+00 -1.726618e+00 5.204048e-01 -2.529187e+00 1.857013e-01 -1.662474e+00 -1.093150e+00 1.561999e-01 -1.787252e+00 9.885832e-02 -1.171973e+00 -5.849933e-01 -2.600056e-02 -1.102766e+00 1.022088e-01 -6.978176e-01 -2.290971e-01 -7.855586e-02 -5.715801e-01 1.577251e-01 -4.410775e-01 -2.878480e-02 2.495269e-01 -1.864174e-01 -7.726614e-02 -1.838269e-01 1.633083e-01 7.548335e-02 -4.048127e-02 2.047370e-01 1.793535e-02 1.489246e-01 1.356246e-01 7.410147e-02 2.244811e-01 9.949940e-02 1.821094e-01 1.751332e-01 1.284545e-01 2.331519e-01 1.392331e-01 2.022689e-01 1.942241e-01 1.604732e-01 2.413447e-01 1.577579e-01 2.170773e-01 1.999857e-01 1.791808e-01 2.409398e-01 1.608797e-01 2.300305e-01 1.954753e-01 1.762165e-01 2.424522e-01 1.763536e-01 2.308676e-01 1.845294e-01 1.928364e-01 2.400260e-01 1.648362e-01 2.400132e-01 1.943599e-01 2.036990e-01 2.327729e-01 1.693643e-01 2.480156e-01 1.888327e-01 2.108503e-01 2.246774e-01 1.741156e-01 2.490717e-01 1.803558e-01 2.187736e-01 2.164518e-01 1.840930e-01 2.504825e-01 1.738593e-01 2.279289e-01 2.089191e-01 1.913241e-01 2.443023e-01 1.677602e-01 2.372167e-01 1.981625e-01 1.833548e-01 2.392446e-01 1.802432e-01 2.392013e-01 1.833200e-01 1.982249e-01 2.372147e-01 1.678084e-01 2.443473e-01 1.913493e-01 2.090191e-01 2.279463e-01 1.740012e-01 2.505698e-01 1.841948e-01 2.166610e-01 2.188454e-01 1.806911e-01 2.492159e-01 1.743992e-01 2.251192e-01 2.110485e-01 1.895892e-01 2.482592e-01 1.701020e-01 2.336984e-01 2.042020e-01 1.960193e-01 2.404786e-01 1.667482e-01 2.418514e-01 1.931234e-01 1.886777e-01 2.353678e-01 1.806368e-01 2.423559e-01 1.785066e-01 2.034983e-01 2.318432e-01 1.706706e-01 2.472741e-01 1.862749e-01 2.142607e-01 2.216601e-01 1.798994e-01 2.513319e-01 1.778314e-01 2.228188e-01 2.130854e-01 1.861876e-01 2.474426e-01 1.697163e-01 2.308915e-01 2.058887e-01 1.942479e-01 2.447822e-01 1.678149e-01 2.385738e-01 1.994630e-01 2.000173e-01 2.357593e-01 1.667667e-01 2.451515e-01 1.879861e-01 1.934111e-01 2.294825e-01 1.805933e-01 2.448340e-01 1.731043e-01 2.068766e-01 2.253428e-01 1.727356e-01 2.476564e-01 1.785310e-01 2.165676e-01 2.148889e-01 1.805633e-01 2.488967e-01 1.687082e-01 2.230098e-01 2.064937e-01 1.816872e-01 2.429817e-01 1.590541e-01 2.254817e-01 1.974696e-01 1.813994e-01 2.374297e-01 1.511839e-01 2.271129e-01 1.890467e-01 1.787473e-01 2.315191e-01 1.425029e-01 2.275103e-01 1.794084e-01 1.740245e-01 2.254508e-01 1.330772e-01 2.299857e-01 1.679976e-01 1.693252e-01 2.206211e-01 1.251618e-01 2.392659e-01 1.555065e-01 1.666797e-01 2.223459e-01 1.207266e-01 2.528019e-01 1.488192e-01 1.721020e-01 2.306855e-01 1.273141e-01 2.694498e-01 1.508105e-01 1.907903e-01 2.396520e-01 1.401044e-01 2.775118e-01 1.473287e-01 1.949027e-01 2.333357e-01 2.072358e-01 4.636803e-01 3.540230e-01 7.713856e-02 3.352082e-03 7.439840e-05 -2.772824e-05 
6.701799e-06 -3.644644e-05 -1.613124e-03 -4.810385e-02 -1.039316e+00 -3.754326e+00 -1.845687e+00 1.595050e-01 -1.766438e+00 1.026960e+00 -1.533810e-01 1.167873e+00 6.118060e+00 -4.732344e-01 -2.160805e-01 7.195432e-01 2.098160e+00 1.116807e+00 1.749207e+00 -1.082271e+00 -7.936030e-01 8.474353e+00 2.483803e-01 3.188226e+00 -2.753580e+00 5.109940e-01 9.333547e-01 -2.901040e+00 1.735111e+00 -2.746558e+00 3.351512e-01 -7.192935e-01 -2.393931e+00 1.143615e+00 -2.572012e+00 3.605159e-01 -1.300985e+00 -1.729707e+00 7.308771e-01 -2.231139e+00 2.150491e-01 -1.429697e+00 -1.261247e+00 2.690489e-01 -1.853467e+00 -1.404758e-02 -1.326825e+00 -9.190276e-01 -1.373965e-01 -1.454994e+00 -2.153480e-01 -1.129496e+00 -6.864944e-01 -4.392870e-01 -1.098116e+00 -3.568139e-01 -9.261114e-01 -5.564503e-01 -6.188803e-01 -8.146248e-01 -4.561916e-01 -8.469037e-01 -5.150059e-01 -5.093275e-01 -6.400820e-01 -7.356579e-01 -7.181016e-01 -4.712513e-01 -6.909792e-01 -5.435185e-01 -6.030954e-01 -6.149061e-01 -5.412943e-01 -6.750689e-01 -4.941813e-01 -6.524762e-01 -5.725423e-01 -5.634391e-01 -6.514670e-01 -4.818646e-01 -6.764550e-01 -5.343173e-01 -5.862125e-01 -6.254409e-01 -4.943834e-01 -6.946833e-01 -5.047572e-01 -6.083849e-01 -5.993586e-01 -5.105218e-01 -6.888298e-01 -4.783637e-01 -6.392139e-01 -5.845473e-01 -5.067149e-01 -6.866156e-01 -5.370361e-01 -6.740635e-01 -5.350331e-01 -5.528602e-01 -6.710864e-01 -4.621990e-01 -6.722877e-01 -5.389432e-01 -5.683284e-01 -6.469628e-01 -4.685793e-01 -6.915796e-01 -5.254403e-01 -5.877944e-01 -6.263006e-01 -4.837303e-01 -6.947737e-01 -5.017703e-01 -6.087440e-01 -6.033258e-01 -5.095317e-01 -6.980151e-01 -4.798478e-01 -6.303968e-01 -5.820458e-01 -5.249380e-01 -6.831401e-01 -4.658210e-01 -6.573354e-01 -5.679484e-01 -5.195255e-01 -6.823333e-01 -5.356670e-01 -6.823526e-01 -5.195735e-01 -5.678984e-01 -6.574080e-01 -4.658057e-01 -6.831296e-01 -5.249801e-01 -5.819923e-01 -6.304698e-01 -4.797849e-01 -6.980414e-01 -5.095615e-01 -6.032675e-01 -6.088478e-01 -5.016432e-01 -6.948850e-01 -4.837130e-01 -6.262358e-01 -5.879473e-01 -5.251955e-01 -6.918679e-01 -4.684187e-01 -6.469046e-01 -5.685533e-01 -5.384638e-01 -6.729182e-01 -4.616050e-01 -6.711137e-01 -5.537770e-01 -5.333250e-01 -6.730260e-01 -5.365802e-01 -6.896076e-01 -5.070777e-01 -5.823122e-01 -6.418251e-01 -4.750699e-01 -6.903859e-01 -5.102443e-01 -5.965906e-01 -6.126963e-01 -4.970176e-01 -6.998189e-01 -4.914098e-01 -6.204846e-01 -5.930649e-01 -5.178665e-01 -6.900327e-01 -4.706877e-01 -6.428180e-01 -5.739373e-01 -5.394311e-01 -6.823565e-01 -4.624240e-01 -6.618242e-01 -5.555285e-01 -5.515835e-01 -6.602269e-01 -4.625546e-01 -6.827876e-01 -5.393498e-01 -5.493774e-01 -6.618657e-01 -5.398855e-01 -6.940483e-01 -4.954366e-01 -5.982164e-01 -6.241652e-01 -4.911016e-01 -6.933773e-01 -4.937581e-01 -6.139222e-01 -5.952930e-01 -5.168328e-01 -6.954805e-01 -4.773624e-01 -6.396501e-01 -5.776765e-01 -5.359401e-01 -6.786942e-01 -4.649312e-01 -6.577494e-01 -5.566868e-01 -5.554922e-01 -6.603906e-01 -4.655371e-01 -6.758536e-01 -5.389268e-01 -5.768556e-01 -6.385247e-01 -4.777035e-01 -6.890156e-01 -5.204965e-01 -6.002564e-01 -6.128245e-01 -5.017785e-01 -6.934676e-01 -5.002186e-01 -6.268868e-01 -5.854271e-01 -5.348412e-01 -6.838788e-01 -4.793081e-01 -6.567407e-01 -5.587139e-01 -5.630207e-01 -6.639221e-01 -4.675993e-01 -6.816674e-01 -5.327313e-01 -5.859380e-01 -6.417397e-01 -4.659468e-01 -7.015738e-01 -5.114008e-01 -5.933181e-01 -6.055745e-01 -4.435428e-01 -6.466532e-01 -4.694544e-01 -7.132257e-01 -5.984710e-01 1.654245e-02 4.543947e-02 2.109042e-03 6.629067e-05 1.336157e-05 
-7.275170e-06 3.250377e-07 -1.177868e-04 -4.518284e-03 -9.135765e-02 -1.698426e-01 5.263622e-01 6.706639e-01 4.809287e-01 9.450291e-01 8.994567e-01 1.779161e+00 -4.299831e+00 -4.555397e+00 -2.622609e+00 -4.738893e+00 -3.021874e+00 -3.835084e+00 -4.607819e+00 -1.914295e+00 -6.606280e+00 -4.875951e+00 2.239177e+00 9.405680e-01 4.220177e-01 4.874970e-01 7.139838e-01 2.030636e-01 4.537657e-01 1.210508e-01 1.806992e-01 1.282768e-01 -7.358965e-02 1.601648e-01 -1.102039e-01 5.120431e-02 -5.363760e-02 -1.123048e-01 5.340658e-02 -1.509237e-01 -1.572355e-02 -1.261291e-01 -1.237848e-01 -4.361184e-02 -1.769770e-01 -8.929430e-02 -1.841625e-01 -1.521436e-01 -1.523197e-01 -2.127143e-01 -1.769551e-01 -2.481640e-01 -2.012605e-01 -2.649133e-01 -2.533059e-01 -2.624793e-01 -3.028946e-01 -2.560660e-01 -3.523711e-01 -2.815423e-01 -3.427072e-01 -3.509410e-01 -3.046876e-01 -4.087153e-01 -3.228455e-01 -4.217276e-01 -3.684383e-01 -3.517048e-01 -4.522170e-01 -3.173986e-01 -4.477382e-01 -3.830967e-01 -3.882299e-01 -4.645289e-01 -3.305852e-01 -4.845204e-01 -3.879116e-01 -4.139989e-01 -4.648520e-01 -3.436988e-01 -5.022284e-01 -3.797198e-01 -4.353131e-01 -4.560730e-01 -3.633445e-01 -5.160717e-01 -3.686082e-01 -4.543305e-01 -4.423105e-01 -3.803578e-01 -5.124543e-01 -3.538182e-01 -4.781025e-01 -4.315840e-01 -3.760603e-01 -5.113219e-01 -3.964687e-01 -4.994734e-01 -3.964573e-01 -4.111885e-01 -5.012722e-01 -3.454567e-01 -5.019392e-01 -4.034052e-01 -4.247558e-01 -4.836565e-01 -3.509213e-01 -5.165240e-01 -3.929458e-01 -4.393142e-01 -4.680067e-01 -3.620230e-01 -5.190450e-01 -3.754080e-01 -4.550619e-01 -4.508937e-01 -3.814392e-01 -5.213849e-01 -3.595029e-01 -4.717130e-01 -4.350882e-01 -3.936966e-01 -5.101787e-01 -3.487634e-01 -4.917907e-01 -4.224460e-01 -3.865586e-01 -5.075365e-01 -3.970680e-01 -5.075733e-01 -3.865883e-01 -4.223942e-01 -4.918549e-01 -3.487727e-01 -5.101740e-01 -3.937503e-01 -4.350862e-01 -4.717785e-01 -3.595016e-01 -5.214249e-01 -3.815157e-01 -4.509290e-01 -4.551591e-01 -3.754364e-01 -5.191691e-01 -3.621362e-01 -4.681173e-01 -4.394851e-01 -3.930622e-01 -5.167981e-01 -3.511117e-01 -4.839455e-01 -4.250838e-01 -4.037214e-01 -5.025004e-01 -3.458086e-01 -5.019433e-01 -4.118818e-01 -3.969740e-01 -5.004887e-01 -3.977856e-01 -5.130907e-01 -3.771364e-01 -4.331990e-01 -4.803316e-01 -3.555023e-01 -5.157080e-01 -3.828443e-01 -4.459647e-01 -4.585774e-01 -3.722356e-01 -5.228005e-01 -3.680441e-01 -4.637412e-01 -4.433646e-01 -3.874108e-01 -5.155413e-01 -3.524146e-01 -4.804097e-01 -4.290053e-01 -4.034975e-01 -5.096887e-01 -3.465895e-01 -4.948780e-01 -4.153589e-01 -4.132331e-01 -4.929810e-01 -3.463957e-01 -5.103195e-01 -4.011270e-01 -4.085146e-01 -4.915594e-01 -3.998227e-01 -5.166314e-01 -3.679656e-01 -4.442010e-01 -4.671386e-01 -3.660575e-01 -5.176947e-01 -3.698648e-01 -4.574036e-01 -4.454423e-01 -3.845566e-01 -5.192608e-01 -3.560351e-01 -4.754928e-01 -4.315296e-01 -3.967343e-01 -5.070035e-01 -3.449042e-01 -4.875768e-01 -4.154423e-01 -4.085698e-01 -4.937947e-01 -3.422984e-01 -4.992530e-01 -4.014605e-01 -4.205857e-01 -4.782586e-01 -3.464305e-01 -5.074639e-01 -3.866128e-01 -4.330660e-01 -4.603318e-01 -3.575596e-01 -5.111586e-01 -3.699677e-01 -4.475260e-01 -4.418303e-01 -3.747707e-01 -5.088393e-01 -3.525296e-01 -4.647266e-01 -4.261997e-01 -3.903557e-01 -5.017073e-01 -3.429164e-01 -4.819522e-01 -4.134144e-01 -4.068274e-01 -4.940969e-01 -3.425651e-01 -5.007712e-01 -4.032931e-01 -4.161148e-01 -4.745936e-01 -3.276338e-01 -4.692944e-01 -3.752184e-01 -5.136954e-01 -5.379681e-01 -1.213719e-01 -8.044882e-04 7.637263e-05 1.939146e-07 -7.006650e-06 
6.654756e-06 9.823318e-07 -9.026129e-06 -2.478583e-04 -3.653185e-03 4.071378e-03 6.009242e-02 6.475309e-02 5.706948e-02 8.811695e-02 8.506455e-02 2.211925e-02 -3.595652e+00 -1.796210e+00 -5.374025e-01 -5.416748e-01 -5.365110e-01 -5.392859e-01 -5.393309e-01 -5.352021e-01 -1.446125e+00 -5.252912e+00 -1.350539e-04 6.812052e-02 5.767315e-02 4.387420e-02 6.015540e-02 3.101370e-02 3.412242e-02 2.508369e-02 1.693625e-02 1.764766e-02 5.240806e-03 1.038398e-02 3.177942e-03 3.278007e-03 8.336442e-04 -3.284643e-03 -8.769488e-04 -5.487570e-03 -4.953835e-03 -8.434145e-03 -8.395093e-03 -1.004837e-02 -1.166824e-02 -1.233327e-02 -1.587910e-02 -1.343258e-02 -1.891579e-02 -1.720799e-02 -1.963202e-02 -2.246895e-02 -1.876592e-02 -2.705571e-02 -2.178584e-02 -2.612064e-02 -2.734659e-02 -2.376675e-02 -3.310868e-02 -2.472257e-02 -3.210614e-02 -3.092004e-02 -2.657560e-02 -3.677963e-02 -2.929138e-02 -3.680000e-02 -3.108215e-02 -3.122263e-02 -3.963536e-02 -2.768000e-02 -3.919022e-02 -3.319010e-02 -3.373932e-02 -3.999145e-02 -2.858717e-02 -4.162839e-02 -3.329580e-02 -3.563776e-02 -3.976105e-02 -2.965333e-02 -4.294834e-02 -3.259813e-02 -3.723849e-02 -3.887615e-02 -3.116354e-02 -4.378880e-02 -3.154730e-02 -3.872617e-02 -3.767166e-02 -3.262737e-02 -4.355559e-02 -3.039745e-02 -4.075395e-02 -3.675637e-02 -3.153831e-02 -4.296382e-02 -3.435542e-02 -4.211812e-02 -3.318235e-02 -3.505702e-02 -4.259764e-02 -2.969231e-02 -4.263474e-02 -3.446359e-02 -3.618884e-02 -4.100516e-02 -3.004697e-02 -4.367658e-02 -3.349315e-02 -3.738786e-02 -3.971696e-02 -3.103052e-02 -4.401890e-02 -3.212259e-02 -3.867852e-02 -3.830217e-02 -3.257016e-02 -4.406253e-02 -3.073936e-02 -4.004902e-02 -3.700116e-02 -3.368279e-02 -4.328491e-02 -2.995202e-02 -4.182254e-02 -3.594933e-02 -3.239446e-02 -4.268122e-02 -3.436765e-02 -4.268998e-02 -3.236681e-02 -3.598457e-02 -4.179994e-02 -2.996157e-02 -4.330097e-02 -3.365728e-02 -3.703348e-02 -4.002225e-02 -3.075546e-02 -4.407261e-02 -3.255108e-02 -3.833658e-02 -3.865256e-02 -3.214732e-02 -4.402124e-02 -3.101962e-02 -3.975443e-02 -3.736470e-02 -3.352779e-02 -4.367687e-02 -3.004830e-02 -4.105105e-02 -3.617533e-02 -3.451428e-02 -4.264480e-02 -2.971179e-02 -4.266036e-02 -3.505859e-02 -3.324909e-02 -4.217081e-02 -3.443974e-02 -4.306363e-02 -3.157582e-02 -3.689754e-02 -4.085239e-02 -3.052284e-02 -4.375670e-02 -3.275357e-02 -3.793168e-02 -3.894069e-02 -3.181063e-02 -4.418167e-02 -3.144089e-02 -3.938874e-02 -3.768086e-02 -3.314288e-02 -4.371459e-02 -3.021303e-02 -4.077297e-02 -3.650644e-02 -3.438692e-02 -4.308699e-02 -2.967900e-02 -4.194965e-02 -3.537589e-02 -3.530342e-02 -4.185687e-02 -2.976924e-02 -4.336023e-02 -3.415550e-02 -3.417976e-02 -4.151364e-02 -3.464501e-02 -4.326849e-02 -3.079666e-02 -3.783628e-02 -3.978612e-02 -3.140609e-02 -4.393037e-02 -3.168372e-02 -3.888643e-02 -3.788119e-02 -3.283009e-02 -4.390215e-02 -3.045766e-02 -4.036547e-02 -3.672834e-02 -3.392710e-02 -4.304963e-02 -2.962377e-02 -4.145998e-02 -3.548791e-02 -3.492525e-02 -4.198598e-02 -2.941284e-02 -4.243738e-02 -3.434496e-02 -3.590680e-02 -4.071230e-02 -2.974435e-02 -4.312669e-02 -3.312287e-02 -3.691317e-02 -3.923986e-02 -3.063737e-02 -4.343085e-02 -3.172866e-02 -3.805131e-02 -3.769912e-02 -3.199654e-02 -4.320738e-02 -3.022480e-02 -3.936030e-02 -3.636000e-02 -3.316286e-02 -4.252480e-02 -2.931878e-02 -4.059444e-02 -3.518776e-02 -3.427287e-02 -4.162809e-02 -2.902777e-02 -4.168376e-02 -3.402326e-02 -3.482098e-02 -3.981638e-02 -2.785119e-02 -3.951057e-02 -3.195436e-02 -4.242174e-02 -4.473598e-02 -1.104533e-02 -3.731455e-04 -5.063972e-06 4.009588e-06 5.430419e-06 
2.932892e-06 -5.937539e-06 2.180050e-05 -5.038882e-06 -2.389915e-05 6.516825e-04 2.205521e-03 2.588825e-03 2.351352e-03 3.642330e-03 4.551759e-04 -8.525428e-02 -1.918584e+00 -2.001668e+00 -4.883839e-01 -4.858593e-01 -4.858464e-01 -4.858500e-01 -4.858528e-01 -4.880594e-01 -1.924975e+00 -2.284098e+00 -1.091398e-01 -1.573362e-03 3.002363e-03 2.100082e-03 2.107522e-03 9.905938e-04 1.257953e-03 1.402893e-03 8.722041e-04 7.730405e-04 4.158501e-06 2.214276e-04 2.904294e-04 1.680618e-04 6.166390e-05 -3.021709e-04 -3.302742e-04 -2.916370e-04 -3.391159e-04 -4.646072e-04 -5.268254e-04 -7.346344e-04 -6.497694e-04 -7.139819e-04 -8.395234e-04 -7.194072e-04 -1.045065e-03 -8.741208e-04 -9.870882e-04 -1.084360e-03 -8.918907e-04 -1.276903e-03 -1.001781e-03 -1.182941e-03 -1.216459e-03 -1.040588e-03 -1.428124e-03 -1.060691e-03 -1.352115e-03 -1.285207e-03 -8.020194e-04 8.071039e-03 1.741814e-02 8.157777e-03 -9.326600e-04 -1.225245e-03 -1.555734e-03 -1.094265e-03 -1.515231e-03 -1.291404e-03 -1.299243e-03 -1.528379e-03 -1.102777e-03 -1.572031e-03 -1.270720e-03 -1.350787e-03 -1.501060e-03 -1.132318e-03 -1.610661e-03 -1.237948e-03 -1.397924e-03 -1.458549e-03 -1.177932e-03 -1.627844e-03 -1.191712e-03 -1.446869e-03 -1.411708e-03 -1.230664e-03 -1.622054e-03 -1.151839e-03 -1.521946e-03 -1.372171e-03 -9.050823e-04 7.877904e-03 1.716423e-02 7.974845e-03 -9.507239e-04 -1.304542e-03 -1.589014e-03 -1.124997e-03 -1.583767e-03 -1.294885e-03 -1.352097e-03 -1.525207e-03 -1.132329e-03 -1.614379e-03 -1.255628e-03 -1.393377e-03 -1.478398e-03 -1.169536e-03 -1.632692e-03 -1.209460e-03 -1.438415e-03 -1.427706e-03 -1.221511e-03 -1.629429e-03 -1.157290e-03 -1.487846e-03 -1.382614e-03 -1.264982e-03 -1.608483e-03 -1.133277e-03 -1.556727e-03 -1.339437e-03 -9.345913e-04 7.883426e-03 1.716419e-02 7.960210e-03 -9.208907e-04 -1.337933e-03 -1.559794e-03 -1.133924e-03 -1.607151e-03 -1.265418e-03 -1.381572e-03 -1.489950e-03 -1.157261e-03 -1.628757e-03 -1.221844e-03 -1.426426e-03 -1.440189e-03 -1.209472e-03 -1.633285e-03 -1.169545e-03 -1.476331e-03 -1.394501e-03 -1.255297e-03 -1.615946e-03 -1.132450e-03 -1.523120e-03 -1.353149e-03 -1.294577e-03 -1.585907e-03 -1.124684e-03 -1.586564e-03 -1.306205e-03 -9.646964e-04 7.896592e-03 1.716221e-02 7.952765e-03 -8.920264e-04 -1.371726e-03 -1.526431e-03 -1.153941e-03 -1.623854e-03 -1.232915e-03 -1.413393e-03 -1.451686e-03 -1.194808e-03 -1.633296e-03 -1.182101e-03 -1.463361e-03 -1.405673e-03 -1.245025e-03 -1.622756e-03 -1.140392e-03 -1.512637e-03 -1.364270e-03 -1.285598e-03 -1.595214e-03 -1.119253e-03 -1.555099e-03 -1.324785e-03 -1.322756e-03 -1.558134e-03 -1.127016e-03 -1.612127e-03 -1.272671e-03 -9.969332e-04 7.915784e-03 1.715703e-02 7.952803e-03 -8.632719e-04 -1.407132e-03 -1.489673e-03 -1.186036e-03 -1.631400e-03 -1.194931e-03 -1.448148e-03 -1.415158e-03 -1.231710e-03 -1.625015e-03 -1.147667e-03 -1.499184e-03 -1.373223e-03 -1.274708e-03 -1.601960e-03 -1.121660e-03 -1.543023e-03 -1.333131e-03 -1.311718e-03 -1.565881e-03 -1.114979e-03 -1.579708e-03 -1.293416e-03 -1.347275e-03 -1.521337e-03 -1.127476e-03 -1.606231e-03 -1.250305e-03 -1.383186e-03 -1.469091e-03 -1.159581e-03 -1.618463e-03 -1.200105e-03 -1.422628e-03 -1.413243e-03 -1.206777e-03 -1.609353e-03 -1.143512e-03 -1.465047e-03 -1.361909e-03 -1.243213e-03 -1.579262e-03 -1.105297e-03 -1.500097e-03 -1.312314e-03 -1.269917e-03 -1.532024e-03 -1.081507e-03 -1.516520e-03 -1.253843e-03 -1.278075e-03 -1.456860e-03 -1.040677e-03 -1.454732e-03 -1.187801e-03 -1.515980e-03 -1.600378e-03 -4.261947e-04 -2.519026e-05 -4.343663e-06 -1.693648e-06 -4.861483e-06 