# vtk DataFile Version 2.0
Comment goes here
ASCII

DATASET STRUCTURED_POINTS
FIELD FieldData 1
TIME 1 1 double
0.05800000
DIMENSIONS    64   64   1

ORIGIN    0.000   0.000   0.000
SPACING   0.03125 0.03125   1.000

POINT_DATA   4096
SCALARS Omega double
LOOKUP_TABLE default

3.231570e+02 4.075987e+02 -2.389047e+02 -2.219464e+02 2.684014e+02 8.263507e+01 -3.358481e+02 2.897009e+02 -4.097000e+02 3.216883e+02 -1.221216e+02 2.272448e+02 -5.986433e+01 -3.234398e+01 -9.171971e+01 -3.214755e+01 6.556967e+00 7.913838e+01 -5.826028e+01 -1.403935e+02 1.090667e+01 1.366550e+02 -1.230442e+02 -8.478815e+01 -2.303907e+02 1.069916e+01 2.150403e+00 9.360768e+01 -7.861790e+01 -1.153852e+02 1.657889e+02 -1.078809e+02 2.958209e+02 -2.327531e+02 -4.777858e+01 -1.307835e+02 1.162339e+02 2.182818e+02 -1.435770e+02 2.480322e+02 -1.742943e+02 2.947452e+02 -1.688097e+02 -2.081345e+02 1.175881e+01 -5.525374e+01 2.311474e+02 -2.100314e+01 2.792179e+02 -1.102496e+02 5.846653e+00 -1.235943e+02 -5.087952e+01 -1.238422e+02 7.515595e+01 -2.067938e+02 4.028156e+02 -6.622139e+02 3.288230e+01 -1.975017e+01 -7.461879e+01 3.821250e+02 -2.549296e+02 -6.156882e+02 
7.843989e+01 1.079291e+03 -1.838694e+02 -1.413119e+01 -2.477045e+01 -2.546131e+02 1.540247e+02 -9.675816e+01 -7.901903e+01 -1.169050e+02 1.099484e+01 -1.021563e+01 7.360904e+01 -1.554822e+02 -1.138238e+02 8.958006e+01 2.068918e+02 2.489975e+02 -7.212546e+01 -1.854518e+02 -1.676794e+01 6.613644e+01 5.707812e+01 1.853973e+01 4.944161e+01 -7.771854e+01 8.476886e+01 3.021934e+01 -4.816946e+01 -1.013070e+02 -9.911271e+01 -1.015876e+02 -1.705641e+02 -1.680885e+02 -1.580294e+02 1.590742e+01 -7.386632e+01 -3.899231e+00 -4.882940e+01 3.064131e+01 -1.746980e+01 -1.114999e+02 -2.094822e+01 -6.406664e+01 3.558736e+01 6.267877e+01 3.102463e+01 1.797454e+02 4.799105e+01 7.516341e+01 -8.724962e+00 1.729529e+02 8.735493e+01 2.356841e+02 8.277480e+01 1.344487e+02 2.949810e+02 -1.017207e+02 -1.599306e+02 9.526180e+01 1.089580e+02 -3.169932e+02 -1.864762e+02 -1.236471e+03 
-1.061299e+02 1.086327e+03 3.732670e+02 -2.231290e+02 -6.297241e+01 -1.551267e+01 -2.763060e+01 -3.979836e+02 -5.506676e+00 -3.718145e+02 -6.400278e+01 -4.053341e+02 -2.497417e+01 -3.918021e+02 -1.487408e+02 -1.671514e+02 -6.424172e+01 -5.695171e+01 -2.375150e+02 -1.554501e+02 -2.054714e+02 9.808893e+00 4.906459e+01 -1.499896e+01 1.242525e+02 -1.871381e+02 4.779326e+01 -1.445325e+02 -6.792308e+01 -2.066974e+02 -2.837653e+02 -1.539246e+02 -3.727674e+02 -9.569918e+01 -2.809986e+02 1.402227e+00 -2.637138e+02 -1.728643e+02 -9.951488e+01 -1.818268e+02 -9.985130e+01 -4.437451e+02 -8.649478e+01 -3.343426e+02 -2.379879e+02 -1.823000e+02 -2.924064e+02 -2.362727e+01 -3.300856e+02 3.315455e+01 -2.535852e+02 7.349977e+01 3.723694e+00 3.203532e+02 1.522308e+02 5.218759e+02 4.260099e+02 8.392494e+02 6.477228e+02 6.620079e+02 7.492678e+02 6.516268e+02 1.367067e+03 -3.419724e+02 
1.028094e+02 1.594095e+02 2.629445e+02 1.562047e+02 9.746117e+00 7.473625e+01 -1.057610e+02 -1.884986e+02 -5.225587e+01 -1.263266e+02 -6.423037e+01 -1.679096e+02 -4.752682e+01 -1.588120e+02 -7.384991e+01 -1.004442e+02 -7.371456e+01 -7.511022e+01 -9.928851e+01 -4.999453e+01 -1.021948e+02 -1.545803e+01 -8.263127e+00 -1.973740e+01 2.360397e+01 -7.362523e+01 -1.128744e+01 -7.467700e+01 -3.152410e+01 -9.694015e+01 -1.050975e+02 -6.611679e+01 -1.264853e+02 -4.705830e+01 -1.102441e+02 -1.470108e+01 -1.164086e+02 -6.671186e+01 -5.990171e+01 -7.112321e+01 -5.237406e+01 -1.689719e+02 -5.046496e+01 -1.626163e+02 -1.124601e+02 -1.038582e+02 -1.146185e+02 -5.267670e+01 -1.369300e+02 -1.721562e+01 -9.947062e+01 -4.470709e+00 1.959222e+01 9.877317e+01 1.046864e+02 2.082432e+02 1.952154e+02 3.662789e+02 3.112461e+02 3.445134e+02 3.985620e+02 4.931361e+02 5.458484e+02 1.381722e+02 
1.761448e+00 -1.658814e+02 -3.236535e+01 3.381636e+02 2.088100e+02 -3.112551e+01 -1.269890e+02 -3.012175e+01 -2.159709e+01 -8.021695e+00 -5.527076e+00 -6.033825e-01 -2.113880e+00 -6.133773e-01 -1.251908e+00 -2.881680e+00 -7.424746e-01 -3.537138e+00 -2.162839e-01 -2.580874e+00 -1.739131e+00 -5.413984e-01 -1.403874e+00 4.332987e-01 -7.381947e-01 2.025893e-03 1.345496e+00 -9.592439e-01 2.903457e-01 -9.624034e-01 5.890788e-01 -5.137113e-01 1.073054e-01 3.484488e-01 -4.115413e-01 1.120987e+00 -8.366635e-01 1.853436e+00 -5.536980e-01 1.363441e+00 -1.100209e+00 1.335119e+00 3.237346e-01 -2.996762e+00 3.540229e+00 -1.387997e+00 2.972927e+00 -2.298500e-02 5.252632e+00 -4.617909e-01 5.747776e+00 -1.190299e-01 5.442705e+00 -1.828472e+00 3.970444e+00 -6.145483e+00 7.569161e-01 -8.150765e+00 -4.299547e+00 -1.609976e+01 -1.274302e+01 -2.891216e+01 2.998363e+01 1.358709e+02 
-8.571031e-01 -5.339802e+01 -2.352671e+01 5.617958e+02 3.037551e+02 -3.006234e+01 -4.182305e+01 -2.729484e+01 -2.502805e+01 -1.764184e+01 -7.825620e+00 -2.904177e+00 -3.641060e-01 1.070098e+00 6.803869e-01 2.317421e+00 1.093941e+00 3.191525e+00 2.499253e+00 2.862395e+00 3.293210e+00 1.738406e+00 1.929192e+00 -2.109220e-01 -9.839983e-01 -1.459635e+00 4.630384e-03 9.800919e-02 2.626463e-01 2.450988e+00 6.504062e-01 -3.004275e-02 -1.968809e+00 -1.893073e+00 7.305132e-01 -4.138279e-01 3.457632e-01 -1.974502e+00 -4.062577e+00 -3.779202e+00 -4.823626e+00 -3.025163e+00 -1.713768e+00 7.322294e-01 9.679999e-01 3.509940e-01 -5.336940e-01 -3.648117e+00 -3.197989e+00 -5.906485e+00 -2.118932e+00 -9.696085e-01 4.337643e+00 8.448184e+00 1.066562e+01 1.421965e+01 6.881225e+00 1.157435e+01 1.099003e+00 1.867314e+00 3.668845e+00 -1.311090e+01 2.082540e+01 -2.319575e+00 
2.963317e+01 -5.134723e+01 -7.670915e+01 5.740428e+02 5.358525e+02 -6.895510e+01 -1.454598e+02 -3.585832e+01 -2.691698e+01 -2.121266e+01 -1.139921e+01 -4.987063e+00 -1.804845e+00 -4.377063e-01 -9.183902e-01 -4.859703e-01 -2.497141e+00 -3.061705e+00 -6.021052e+00 -8.289562e+00 -6.797248e+00 -4.621168e+00 -3.421054e+00 -8.721038e-01 1.192308e-01 1.812879e+00 1.456192e+00 -5.594682e-01 -1.274064e+00 4.542036e-02 1.977741e+00 7.181456e+00 3.201856e+00 1.667468e+00 2.816809e+00 4.740461e+00 5.835132e+00 4.341977e+00 5.281765e+00 2.302801e+00 7.788486e-01 5.493055e-01 1.994959e-01 1.216720e+00 3.547023e+00 3.180696e+00 6.769832e+00 4.490615e+00 9.460039e+00 4.385737e+00 4.783989e+00 -2.438350e+00 -5.736281e+00 -1.590772e+01 -2.265478e+01 -2.430295e+01 -2.646450e+01 -1.276132e+01 -1.821312e+01 -7.081417e+00 1.606250e+01 -1.687856e+01 3.181344e+01 -1.307933e+01 
4.507239e+01 -6.273357e+01 -9.050919e+01 8.890520e+02 6.532851e+02 -7.837488e+01 -4.866432e+01 -1.381926e+01 -2.602696e+01 -2.679409e+01 -1.751899e+01 -7.591587e+00 -3.054205e+00 3.617435e-01 5.160878e-01 2.468846e+00 2.553830e+00 6.041665e+00 8.704077e+00 1.683593e+01 1.633034e+01 1.011257e+01 8.071539e+00 7.578419e-01 -7.140494e+00 -1.156736e+01 -1.925584e+01 -5.236596e+00 -2.822902e+00 4.264478e+00 9.074002e+00 -3.923936e+00 -2.140052e+01 -1.438485e+01 -3.351311e+00 -3.327936e+00 -3.698140e+00 -8.421757e+00 -1.438096e+01 -1.632655e+01 -1.616893e+01 -1.120257e+01 -3.189188e+00 1.443803e+00 6.454244e+00 5.708281e+00 -4.522746e-01 -8.825445e+00 -1.741564e+01 -2.071263e+01 -1.361821e+01 -1.977971e+00 1.949619e+01 4.495814e+01 6.908768e+01 7.571766e+01 5.865075e+01 4.237102e+01 3.801220e+01 1.787945e+00 -1.135934e+01 -2.853055e+01 2.394910e+01 -3.156046e+01 
2.571296e+01 -6.087595e+01 -2.057810e+02 9.284543e+02 9.614757e+02 -9.064679e+01 -1.756350e+02 -3.635177e+01 -2.600832e+01 -2.758408e+01 -1.973851e+01 -9.963842e+00 -4.219640e+00 -7.769296e-01 -5.324146e-01 9.542826e-01 -1.515878e+00 -2.577187e+00 -6.692659e+00 -2.660104e+01 -5.260880e+01 -2.883855e+01 -1.393716e+01 -7.060139e+00 -3.281932e+01 -1.202588e+02 -1.195318e+02 -3.384968e+01 -2.995369e+01 -8.808210e-01 4.305324e+01 8.341461e+01 2.745185e+01 -5.695932e+00 1.230384e+01 2.804189e+01 2.725367e+01 1.871878e+01 2.566245e+01 1.123717e+01 4.189432e+00 1.243369e+00 -2.414624e+00 2.056064e+00 9.308187e+00 7.831604e+00 1.800947e+01 1.812969e+01 3.542525e+01 2.483726e+01 8.999230e+00 -1.216769e+01 -3.904326e+01 -9.077784e+01 -1.493011e+02 -1.905193e+02 -1.875181e+02 -1.169757e+02 -8.425382e+01 -9.733949e+00 7.144618e+01 -3.214044e+01 1.814718e+01 -4.430409e+01 
-3.628045e+01 -7.275333e+01 -2.725648e+02 1.412386e+03 1.072013e+03 -1.112959e+02 -5.957794e+01 1.821196e+00 -1.536879e+01 -2.828407e+01 -2.695559e+01 -1.490987e+01 -8.040965e+00 -2.110017e+00 -8.063072e-01 -4.146789e-01 1.515540e+00 7.572602e+00 -6.940653e+00 -2.677842e+01 5.564139e+01 6.182443e+01 1.985793e+00 -1.764650e+01 -2.497303e+02 -6.399906e+02 -4.525595e+02 -1.411062e+02 -1.547495e+02 -5.866976e+01 8.435194e+01 2.741837e+01 -1.448512e+02 -1.125657e+02 -5.552167e+01 -7.022792e+01 -5.288490e+01 -4.488429e+01 -5.248789e+01 -6.147973e+01 -5.761045e+01 -3.866547e+01 -8.009467e+00 3.899585e+00 2.266416e+01 3.623771e+01 1.129140e+01 -1.597427e+01 -6.957322e+01 -9.725118e+01 -6.220418e+01 -1.100034e+00 9.803990e+01 2.344518e+02 3.330167e+02 3.663218e+02 3.837232e+02 3.420146e+02 1.656669e+02 -1.389877e+02 -2.464861e+02 -7.393530e+01 -1.348123e+02 -1.522580e+02 
-4.909143e+02 -9.651847e+00 -4.158651e+02 1.513666e+03 1.450928e+03 -8.321624e+01 -1.877500e+02 -4.825601e+01 -1.727086e+01 -2.657883e+01 -2.638260e+01 -1.701330e+01 -9.150668e+00 -2.099165e+00 -1.581162e+00 4.575382e+00 7.755753e+00 -8.920811e+00 2.711652e+01 1.824904e+02 1.118616e+02 -5.697369e+01 1.497962e+01 -1.864393e+02 -1.077748e+03 -1.610979e+03 -8.872118e+02 -3.385527e+02 -2.980878e+02 -2.351081e+02 3.124426e+02 1.276234e+02 -4.462934e+02 -3.062511e+02 3.605140e+01 2.031340e+02 1.500891e+02 9.200729e+01 8.375004e+01 3.479861e+01 1.047219e+00 1.025150e+00 -1.836982e+01 -3.623255e+00 2.440669e+01 1.561779e+01 4.220637e+01 8.486479e+01 1.839003e+02 1.486697e+02 3.511472e+01 -4.298693e+01 -5.966586e+01 -2.791812e+01 1.503550e+01 -1.786098e+02 -6.190747e+02 -7.383555e+02 -2.480960e+01 -2.344324e+02 -8.704973e+02 -3.209640e+02 -8.573024e+02 -7.812330e+02 
-1.556901e+03 -4.653174e+02 -4.911487e+02 2.274466e+03 1.386860e+03 -1.094885e+02 -5.293041e+01 1.935973e+01 5.500443e+00 -1.653380e+01 -3.045289e+01 -2.192428e+01 -1.466783e+01 -7.294263e+00 -3.617301e+00 -9.689256e-01 -2.875304e+01 2.623771e+00 1.685585e+01 -6.810923e+01 -3.200214e+02 -1.638858e+02 -1.125268e+02 -8.857827e+02 -2.036213e+03 -1.991842e+03 -6.560661e+02 -3.631051e+02 -5.577286e+01 -6.792931e+02 -3.345426e+02 1.763166e+03 2.047301e+03 9.206840e+02 4.312087e+02 5.315282e+01 -1.392763e+02 -3.646422e+02 -7.135651e+02 -7.429646e+02 -6.061281e+02 -2.087774e+02 -3.256901e+01 -3.366128e+00 2.822280e+01 1.479612e+02 1.218186e+02 6.910611e+01 -7.822931e+01 -3.892231e+02 -4.987111e+02 -3.119561e+02 -1.756946e+02 -2.673964e+02 -6.021095e+02 -9.087604e+02 -5.115542e+02 3.172387e+02 -8.443774e+02 -3.687804e+03 -2.652890e+03 -9.607183e+02 -2.513999e+03 -2.603361e+03 
-4.356417e+03 -3.175916e+03 -1.583542e+03 1.456906e+03 1.714167e+03 -4.717220e+00 -9.768822e+01 -8.189051e+01 -5.053244e+00 -1.872812e+01 -3.057528e+01 -2.579795e+01 -1.919043e+01 -8.034462e+00 7.650878e+00 -3.718203e+01 6.291458e+01 1.060828e+02 5.031280e+01 -3.885417e+02 -4.689368e+02 -6.787764e+01 -1.639886e+02 -1.448873e+03 -2.302522e+03 -1.244243e+03 1.095174e+03 8.844965e+02 8.202655e+02 2.160239e+03 1.650865e+03 -1.644150e+03 -4.082372e+03 -2.991297e+03 -1.131920e+03 -9.679092e+02 -1.831068e+03 -2.300229e+03 -3.133529e+03 -3.451323e+03 -2.639138e+03 -9.611366e+02 -3.330587e+02 -8.806816e+01 6.660246e+01 -1.967059e+01 3.503533e+01 4.990046e+02 7.034550e+02 1.783991e+02 1.985278e+01 1.408463e+02 6.410879e+02 1.689452e+03 2.123447e+03 1.996356e+03 1.281954e+03 -3.941162e+02 -3.417737e+03 -6.230771e+03 -3.318168e+03 -1.919282e+03 -4.131526e+03 -4.244093e+03 
-4.071151e+03 -1.021419e+04 -5.015970e+03 -1.821869e+03 7.511234e+02 2.022984e+01 -1.819623e+01 3.097706e+01 4.065929e+01 7.054498e+00 -1.977992e+01 -2.406458e+01 -1.914421e+01 -1.223779e+00 -5.489116e+01 7.191727e+01 1.281363e+01 -2.075730e+02 -2.798369e+02 3.440834e+01 6.868027e+02 7.180187e+02 -5.804825e+02 -2.218987e+03 -1.990739e+03 -7.268778e+02 1.559234e+03 3.210063e+03 2.175967e+03 1.849624e+03 1.403463e+03 5.429155e+02 -1.607060e+03 -2.027407e+03 -5.623434e+02 -9.990553e+02 -2.044197e+03 -4.056487e+03 -6.554633e+03 -9.443896e+03 -8.438616e+03 -4.949606e+03 -2.620975e+03 -1.097510e+03 -7.230072e+02 -8.815465e+01 3.653933e+02 4.440811e+02 9.577392e+02 1.181090e+03 -7.013740e+01 -6.475237e+02 -5.350889e+02 -1.348366e+03 -1.954792e+03 -2.155294e+03 -1.398391e+03 -2.044165e+03 -4.495092e+03 -7.979658e+03 -6.335564e+03 -3.303213e+03 -5.900871e+03 -1.823271e+02 
8.085167e+03 -1.355573e+03 -5.479065e+03 -1.234387e+03 1.543029e+03 4.401878e+02 3.338514e+02 -1.049652e+02 -4.366060e+01 -4.024273e+01 -4.442136e+01 -5.209062e+01 -1.896145e+01 -7.841869e+01 1.062823e+02 -7.465767e+01 -1.879208e+02 2.093780e+02 4.704030e+02 1.014141e+03 7.043896e+02 -1.813876e+02 -1.752302e+03 -2.636463e+03 -2.010705e+03 -1.954411e+03 -1.042393e+03 1.238685e+03 1.864631e+03 2.437052e+03 1.068990e+03 2.026301e+03 4.986746e+03 5.188568e+03 1.399272e+03 -2.472682e+03 -1.175497e+03 6.911772e+02 3.605176e+03 6.275253e+03 4.593979e+03 2.225726e+03 1.031553e+03 4.553622e+02 5.788050e+02 -7.155546e+02 -1.706324e+02 2.023076e+03 9.700270e+02 -1.779856e+03 -3.279169e+03 -2.393386e+03 -1.368768e+03 -1.250611e+03 -9.340726e+02 9.299996e+02 1.745954e+03 -6.453369e+02 -2.460922e+03 -4.313241e+03 -7.425616e+03 -3.562555e+03 -9.444027e+03 -7.414624e+03 
1.967665e+04 7.620205e+03 -1.328005e+04 2.599986e+03 -1.504120e+02 1.035360e+03 8.923417e+02 -8.766953e+02 -4.898854e+02 -1.172167e+02 1.094393e+01 1.628432e+01 -5.235245e+01 5.455945e+01 2.474646e+00 -2.934086e+02 2.505876e+02 3.261199e+02 8.835152e+01 -5.105116e+02 -1.244010e+03 -5.306619e+02 -1.061074e+03 -1.200803e+03 -8.232624e+02 -2.401889e+03 -3.512948e+03 -2.092047e+03 -8.140282e+02 1.315335e+03 3.096235e+03 2.782060e+03 3.526796e+03 1.056605e+03 -9.222237e+02 2.250893e+02 2.114951e+03 4.492156e+03 6.300895e+03 8.435879e+03 7.248679e+03 3.776152e+03 1.788621e+03 1.667079e+02 -7.571538e+02 -2.458640e+03 -3.915344e+03 -1.561240e+03 2.675159e+03 3.181698e+03 3.724179e+03 2.789453e+03 1.601362e+03 2.699066e+03 2.912408e+03 1.563135e+03 -3.325097e+03 -5.500858e+03 -4.492657e+03 1.568252e+03 -1.502610e+03 -5.535965e+03 -5.003232e+03 -5.359841e+03 
1.105348e+03 1.496693e+03 1.670316e+03 1.830358e+03 3.219476e+02 2.044189e+03 -4.484751e+02 -5.012402e+03 -4.538506e+03 -2.499092e+03 -1.088609e+03 -4.188160e+02 -1.444134e+02 3.879840e+01 -4.181190e+02 5.117571e+02 2.452806e+02 -6.567794e+02 -6.818400e+02 -4.026097e+02 1.105483e+03 1.229727e+03 -4.405675e+02 -9.596159e+02 1.247734e+02 6.633322e+02 -1.335971e+03 -1.747017e+03 -1.543802e+03 -1.022378e+03 2.294210e+02 1.242590e+03 2.077508e+03 1.212762e+03 4.008791e+02 -8.931817e+02 -2.107521e+03 -3.179802e+03 -1.511256e+03 -1.260202e+03 -8.914528e+02 -4.068424e+02 -1.709424e+03 -3.895051e+02 -1.998210e+03 -1.913957e+03 7.966546e+02 -1.005933e+03 -2.623174e+03 -4.511962e+03 -2.243771e+03 2.069203e+03 2.988548e+03 5.026855e+02 -2.162035e+03 -2.323546e+03 -4.583867e+03 -6.676550e+03 -9.242142e+03 -4.080214e+03 8.104765e+03 -6.589414e+03 -8.272888e+03 1.049414e+04 
9.417105e+03 2.519308e+04 2.419763e+04 -5.142232e+03 -9.207654e+03 -3.711413e+02 -1.359103e+03 -1.967399e+03 -1.613316e+03 1.272324e+02 4.722474e+02 2.211963e+02 8.699291e+01 -9.856377e+01 -1.446233e+00 2.904767e+02 -2.503225e+02 -1.488715e+02 4.708651e+00 4.881914e+02 1.383100e+03 4.967347e+02 -2.866086e+02 -7.243940e+02 -1.349575e+02 2.145474e+03 1.879330e+03 9.388538e+02 1.217478e+03 1.281170e+02 -9.465264e+02 -4.603710e+01 -1.425738e+02 4.558094e+02 -5.322383e+02 -4.533648e+02 4.249854e+02 4.736568e+02 1.596651e+03 8.769502e+02 6.854904e+02 2.227849e+03 6.338621e+02 1.689717e+03 1.682423e+03 7.479823e+02 4.668608e+03 6.204722e+03 7.479617e+02 -2.382514e+03 -3.551401e+03 -5.948195e+03 -4.704645e+03 -5.694766e+03 -4.709220e+03 -2.222046e+02 -5.208657e+03 -8.849384e+03 -1.247984e+03 -3.008136e+03 -3.102919e+03 3.373233e+03 -4.728471e+03 -8.613351e+03 
1.328380e+04 1.728462e+04 1.190033e+04 -1.006710e+04 -5.005588e+03 -2.162280e+03 1.323046e+03 6.299439e+03 6.273326e+03 2.873314e+03 1.025283e+03 2.937026e+02 1.418892e+02 -3.130219e+01 1.245834e+01 3.191202e+01 1.441956e+02 -4.704292e+02 -5.413853e+01 6.341304e+02 8.960218e+02 3.581030e+02 -7.503671e+02 -1.247034e+03 -1.146620e+03 4.936743e+02 2.387379e+03 1.019470e+03 4.756418e+02 1.106191e+03 5.676950e+02 2.653706e+02 4.462732e+02 2.808985e+02 3.426822e+02 3.092506e+02 7.146574e+01 9.840679e+02 3.429320e+02 1.171071e+03 6.799662e+02 6.140937e+02 1.352380e+03 6.900821e+02 2.050546e+03 1.513905e+03 3.599433e+03 5.856697e+03 1.889409e+03 5.438738e+02 1.597553e+03 2.859444e+03 -8.884805e+02 -8.025241e+03 -2.493736e+03 2.849919e+03 -4.827760e+03 -6.810565e+03 1.165143e+03 9.693581e+03 1.096062e+03 -5.185141e+03 4.148400e+03 1.456368e+04 
1.504649e+04 7.410589e+03 1.776896e+03 -4.559991e+03 -4.953782e+03 -1.342053e+02 8.268026e+02 1.154773e+03 1.626320e+03 5.069018e+02 6.015437e+01 -2.451745e+01 -2.497603e+01 -2.351106e+01 -3.998821e+01 4.107175e+01 -1.274730e+01 -1.808063e+01 5.951837e+01 -3.860695e+01 4.377232e+01 6.773304e+00 7.412792e+02 1.050816e+03 -4.833850e+02 -1.900421e+03 -1.129810e+03 -4.653967e+02 -3.479023e+02 -2.367413e+02 -4.463767e+01 -2.309390e+02 -1.958584e+02 -5.955223e+02 -5.934841e+02 -1.186614e+03 -1.265372e+03 -1.301476e+03 -1.515761e+03 -1.164622e+03 -1.873019e+03 -2.051366e+03 -1.957297e+03 -2.202500e+03 -7.011828e+02 4.374894e+02 2.955310e+03 4.160454e+03 3.293989e+03 3.380952e+03 4.307265e+03 5.525984e+03 1.264061e+03 1.319844e+03 4.096153e+03 4.411033e+03 8.637770e+03 7.403327e+03 -1.475784e+03 9.013464e+02 7.053338e+03 3.826290e+03 6.086168e+02 7.541843e+03 
1.077649e+04 1.195204e+03 -4.472498e+03 1.534093e+03 -2.380774e+03 -1.403917e+02 -5.388319e+02 3.461812e+02 4.722127e+02 1.821445e+02 7.507650e+00 -2.084338e+01 -2.049764e+01 -1.400656e+01 -2.187314e+01 1.449170e+01 -1.553870e+01 -1.329589e+01 4.368037e+01 3.937182e+01 -1.891250e+02 -3.385405e+02 -2.125026e+02 6.141261e+02 1.277422e+03 9.029284e+02 -6.966486e+01 -3.373325e+02 -3.467245e+02 -3.034077e+02 -1.772953e+02 -1.877288e+02 -1.246974e+02 -6.883873e+01 -7.505927e+01 -1.079136e+01 1.303936e+01 -8.379295e+01 -8.117670e+01 -3.043013e+02 -2.277062e+02 -3.185675e+02 -4.128054e+02 -9.846122e+02 -2.117179e+03 -1.887132e+03 -1.236994e+03 1.138497e+03 2.243209e+03 2.623161e+03 3.624313e+03 2.145956e+03 -2.946248e+01 2.338372e+03 6.298562e+03 5.210554e+03 2.843498e+03 1.445132e+03 2.400783e+03 3.545044e+03 7.295266e+03 4.885232e+03 9.493620e+02 2.966779e+03 
6.193109e+03 1.210930e+03 -5.540951e+03 -1.196448e+03 -2.508272e+03 5.836973e+02 4.322197e+02 3.201117e+02 1.299777e+02 5.184271e+00 -2.969177e-01 -2.845295e+01 -2.303610e+01 -2.018123e+01 -1.546266e+01 -1.072212e+01 2.633316e+00 -1.618565e+01 -1.998632e+00 1.523296e+00 -2.875747e+01 -4.427047e+01 -3.142999e+02 -8.480854e+02 -7.777866e+02 6.445104e+01 1.771398e+02 4.753717e+01 -3.085920e+01 1.267833e+02 1.042270e+02 8.811500e+01 -1.377786e+01 -8.034418e-01 3.499031e+01 1.007899e+02 2.516828e+02 2.779062e+02 5.164020e+02 5.471814e+02 8.213829e+02 1.259190e+03 1.390520e+03 1.909841e+03 1.554602e+03 4.512056e+02 -3.197034e+02 -1.249556e+01 4.807441e+02 9.794093e+02 1.408815e+03 9.561209e+02 5.505381e+02 -2.976521e+02 9.553740e+02 1.368764e+03 1.332099e+02 -2.652163e+03 -5.707255e+03 -6.048077e+03 -2.491659e+03 1.044606e+03 2.822542e+03 3.872234e+03 
2.808839e+03 -5.129973e+02 -5.324101e+03 -3.943327e+03 -8.119786e+02 1.469202e+01 -2.615289e+01 3.480773e+02 1.640947e+02 4.416795e+01 2.869267e+00 -1.647638e+01 -2.100848e+01 -1.810998e+01 -1.307679e+01 -8.544222e+00 -1.677963e+00 5.519884e-01 3.848453e+00 -4.120893e+00 2.563687e+01 7.263684e+01 1.219024e+02 1.939345e+02 -1.920446e+02 -1.135818e+03 -1.209043e+03 -1.495314e+03 -1.661766e+03 -8.371458e+02 -1.421626e+02 -4.258452e+01 -8.733055e+00 -8.166302e+00 -1.807423e+01 -2.223150e+01 -1.062415e+02 -1.275218e+02 -2.845297e+02 -3.712053e+02 -5.504846e+02 -7.406660e+02 -6.172199e+02 -4.829518e+02 1.773978e+02 6.550540e+02 5.419503e+02 4.812161e+01 -1.354680e+02 -5.952773e+01 1.283157e+02 1.884675e+02 1.726234e+02 -7.336772e+01 1.881597e+02 1.716540e+02 -1.651617e+03 -3.288811e+03 -1.341768e+03 1.273403e+03 7.329712e+02 -7.627032e+02 -8.056184e+02 9.730345e+02 
6.678191e+02 -1.185344e+03 -2.495069e+03 -3.474313e+03 -1.621199e+03 1.393099e+02 8.634803e+01 1.787854e+02 5.080340e+01 -8.075489e-01 -5.054470e+00 -2.109020e+01 -1.601725e+01 -1.809334e+01 -9.583449e+00 -8.893253e+00 -1.789285e+00 -1.352017e-01 -7.275458e+00 5.112609e+00 -3.110892e+01 -3.472061e+01 -1.580363e+02 1.659394e+02 -2.167852e+02 -2.362885e+03 -6.468548e+02 -1.423934e+03 -2.170345e+03 -8.883496e+02 1.023005e+02 9.174859e+01 1.642047e+01 2.882285e+01 4.052231e+01 4.077997e+01 5.022215e+01 3.358517e+01 6.816433e+00 8.134321e+00 -7.164463e+01 -5.739447e+01 -1.234016e+02 -2.288463e+02 -1.885958e+02 -2.643101e+02 -1.331195e+02 1.121674e+01 2.958150e+01 1.020308e+02 1.207665e+02 1.381755e+02 7.528970e+01 -1.012046e+01 -6.469076e+01 -2.182439e+02 -1.497746e+02 7.204784e+02 1.737525e+03 2.301750e+03 1.602099e+03 5.759815e+02 2.383738e+01 -7.000214e+01 
2.725018e+02 -7.452103e+02 -1.797982e+02 -1.487193e+03 -1.086212e+03 -9.762726e+01 -9.212841e+01 2.440465e+02 1.075870e+02 2.789142e+01 3.164685e+00 -1.163719e+01 -1.531587e+01 -1.582631e+01 -1.149737e+01 -9.670615e+00 -3.116354e+00 -5.279471e+00 -1.158097e-01 -4.768869e+00 -1.971357e+01 7.887514e+00 2.871618e+01 -5.605425e+02 -2.713572e+03 -3.985426e+03 -2.209175e+01 1.116636e+03 1.063347e+03 1.525086e+03 1.083687e+03 2.750209e+02 4.973006e+00 1.180554e-01 -9.048727e-01 2.715156e+00 -1.370433e+01 -2.740465e+01 -4.232094e+01 -5.109124e+01 -1.540022e+01 5.685690e+01 1.638770e+02 2.601559e+02 2.427066e+02 1.724017e+02 5.761287e+01 2.316535e+01 -1.863588e+01 -5.289927e+00 -7.825663e+00 7.384119e+00 -3.595923e+00 -4.523958e+01 -6.954585e+01 -1.153185e+02 -3.105174e+02 -9.763330e+02 -1.514001e+03 -1.072818e+03 -1.602187e+02 5.227707e+01 1.262207e+02 1.072932e+02 
1.916545e+01 -2.102388e+02 4.452316e+02 -7.314416e+02 -1.392541e+03 5.187426e+01 1.548227e+02 1.630132e+02 4.463768e+01 5.365931e+00 -5.440826e+00 -1.467434e+01 -1.208781e+01 -1.439331e+01 -6.080165e+00 -6.107324e+00 1.570810e+00 7.774039e+00 -3.589519e+00 4.914920e+01 -3.129219e+01 1.407201e+02 -6.954411e+02 -6.872929e+02 -5.184158e+03 -2.487796e+03 1.068309e+03 4.378772e+03 5.411504e+03 3.837659e+03 1.242005e+03 1.827454e+02 1.898794e+01 6.290429e+00 3.559217e+00 -5.030813e+00 -9.388140e+00 -1.565397e+01 -4.148626e+01 -4.062473e+01 -7.522754e+01 -9.331074e+01 -9.172497e+01 -1.157448e+02 -6.500433e+01 -5.828711e+01 -3.427755e+01 -1.362387e+00 1.138140e+01 3.532229e+01 4.292936e+01 4.354542e+01 1.747835e+01 6.558296e+00 1.389699e+00 5.480030e+01 1.371566e+02 2.727547e+02 3.657495e+02 2.454311e+02 4.116503e+01 -2.403694e+01 -1.254202e+01 -7.698128e+01 
8.107028e+01 -1.003384e+02 5.455860e+02 -1.425854e+02 -8.749971e+02 -3.182809e+01 1.078459e+01 1.971827e+02 8.346368e+01 2.176166e+01 2.394069e+00 -8.547529e+00 -1.139552e+01 -1.278699e+01 -1.100436e+01 -8.701539e+00 -9.592686e+00 -9.006777e+00 -1.663151e+01 -2.087879e+01 7.201011e+01 4.178010e+01 4.760584e+02 1.814623e+03 -3.466601e+03 -2.981468e+02 1.745929e+03 4.225738e+03 3.350479e+03 1.284472e+03 1.974540e+02 2.281360e+01 2.623305e+01 1.986697e+01 2.531008e+01 1.922254e+01 2.192659e+00 -1.214455e+01 -2.416603e+01 -2.296525e+01 9.601343e+00 3.162266e+01 5.975653e+01 6.100994e+01 4.838780e+01 3.929571e+01 1.485860e+01 1.598178e+01 -9.979983e-01 5.032746e+00 -4.595912e-01 -2.389346e+00 -5.717901e+00 -1.032558e+01 -2.288929e+01 -4.766345e+01 -8.020581e+01 -9.493121e+01 -6.335620e+01 -6.378714e+01 6.849144e+00 -1.330410e+01 5.751308e+01 1.718798e+01 
-3.750994e+00 -1.022142e+02 3.363705e+02 -2.579178e+02 -1.035381e+03 6.862514e+01 1.980018e+02 1.554359e+02 4.698010e+01 9.155276e+00 -3.503274e+00 -9.552432e+00 -8.901374e+00 -1.090330e+01 -3.005514e+00 -8.033520e+00 1.621580e+01 -2.832416e+01 8.171554e+01 -1.574488e+02 3.456172e+01 -2.102446e+02 1.792966e+02 -1.055019e+03 -5.135363e+02 7.940240e+01 7.372100e+02 8.802765e+02 3.956364e+02 8.485342e+01 2.667758e+01 -3.461518e+01 -4.858143e+01 -6.879373e+01 -2.592463e+01 -2.499876e+01 7.118627e+00 -2.302466e+00 -1.548193e+01 -6.412803e+00 -2.338978e+01 -2.901588e+01 -3.528601e+01 -3.972511e+01 -2.589622e+01 -2.937105e+01 -1.384995e+01 -7.569286e+00 2.660625e+00 1.308808e+01 1.512457e+01 1.769119e+01 5.677871e+00 -5.343422e+00 -1.632261e+01 -1.014472e+01 -2.072989e+01 -3.884255e+01 -6.744122e+01 -1.290183e+02 -7.207007e+01 -5.192479e+01 2.315340e+01 -2.865809e+01 
4.552134e+01 -8.949205e+01 3.654089e+02 1.182638e+01 -6.243841e+02 1.366093e+01 8.026315e+01 1.769347e+02 7.381130e+01 1.987787e+01 2.600198e+00 -5.908372e+00 -7.622694e+00 -9.928036e+00 -8.032708e+00 -5.108657e+00 -1.730778e+01 2.858461e+01 -1.136640e+02 5.719880e+01 -7.642618e+01 -1.075228e+03 8.173636e+02 -2.392229e+03 -1.419959e+03 -3.396575e+03 -9.154226e+02 7.638256e+01 1.508151e+01 6.977768e+01 -7.937540e+01 -2.327999e+02 -2.774130e+02 -2.955936e+02 -1.159374e+02 -6.110662e+01 -1.469421e+01 -3.742531e+01 -9.980287e+01 -1.284887e+02 -5.623820e+01 -3.145388e+01 -1.112646e+01 -1.656247e+00 -1.832381e+01 -3.394656e+00 -1.141100e+01 -1.187380e+01 -2.945378e+00 -8.705040e+00 -1.383469e-01 -2.614070e+00 -2.863741e+00 2.039191e+01 2.742887e+01 -5.916368e+01 -1.698728e+02 -3.319849e+02 -4.789087e+02 -8.548347e+02 -7.684701e+02 -3.363719e+02 -2.814692e+01 4.651246e+00 
1.207887e+01 -8.749164e+01 2.468032e+02 -2.360158e+02 -8.331462e+02 8.153450e+01 2.237962e+02 1.492607e+02 4.921776e+01 1.196346e+01 -1.067972e+00 -5.153108e+00 -6.267376e+00 -7.301533e+00 -1.482434e+00 -1.058581e+01 2.472253e+01 -3.015381e+01 1.153189e+02 -1.400719e+02 7.285388e+02 -1.186614e+03 1.911758e+03 -7.327046e+02 -3.053156e+03 -2.225607e+03 -5.302921e+02 -2.231774e+02 -3.772610e+01 -2.269664e+02 -7.187152e+02 -1.004926e+03 -1.015422e+03 -1.053830e+03 -7.718052e+02 -4.996846e+02 5.839849e+01 -9.890149e+01 -9.639932e+01 -3.790475e+01 -1.064976e+02 -1.282417e+02 -2.852947e+02 -1.790096e+02 -2.252782e+02 -2.041171e+02 -1.225618e+02 -1.816347e+02 -6.870259e+01 -8.886051e+01 -2.054815e+01 -1.850320e+01 -6.361723e+01 -5.774427e+00 -1.620819e+02 -5.920024e+02 -9.193057e+02 -1.486789e+03 -2.182260e+03 -3.017024e+03 -2.392413e+03 -6.589880e+02 1.647805e+02 1.231668e+02 
2.030364e+01 -8.510714e+01 2.732098e+02 -6.380693e+01 -5.653057e+02 4.413425e+01 1.325162e+02 1.648253e+02 6.771836e+01 1.955484e+01 3.514309e+00 -3.377316e+00 -4.215888e+00 -3.358223e+00 -1.759771e+01 3.036966e+01 -8.521705e+01 6.062416e+01 -1.290994e+02 1.113262e+02 -4.369949e+02 -5.306676e+02 1.221642e+03 6.763624e+02 -1.987066e+03 -1.230738e+03 -1.823237e+02 -5.262158e+01 -3.620826e+02 -9.674035e+02 -1.358028e+03 -1.619208e+03 -1.299871e+03 -9.776225e+02 -1.104916e+03 -1.631708e+03 -1.349040e+03 -1.372869e+03 -9.472631e+02 -5.899668e+02 -7.236737e+02 -6.587999e+02 -1.088985e+03 -7.082892e+02 -1.034117e+03 -9.513396e+02 -6.970093e+02 -8.917607e+02 -3.774207e+02 -6.937751e+02 -4.285696e+02 -6.199835e+02 -8.294400e+02 -8.057169e+02 -1.454461e+03 -2.056487e+03 -2.681550e+03 -3.653928e+03 -4.802397e+03 -5.567261e+03 -4.473828e+03 -1.830166e+03 -9.282976e+01 9.163161e+01 
-2.717329e+02 -1.400238e+02 2.132136e+02 -3.817567e+02 -8.581305e+02 1.001988e+02 2.597951e+02 1.435404e+02 4.944319e+01 1.363804e+01 1.541130e+00 -2.585360e+00 9.689823e-01 -1.889090e+01 4.095943e+01 -7.776672e+01 1.802085e+01 3.518242e+02 -1.014800e+03 1.145644e+03 -1.305864e+03 -9.680865e+01 8.286030e+02 5.702074e+02 -1.233672e+03 -1.383299e+03 -9.369416e+01 6.144742e+02 7.435676e+02 -4.701716e+02 -9.354674e+02 -6.842629e+02 -7.620382e+02 7.138168e+02 1.255969e+03 1.352671e+03 -1.795181e+03 -4.174470e+03 -4.548985e+03 -2.695571e+03 -2.082794e+03 -2.604619e+03 -2.161673e+03 -2.012894e+03 -2.556807e+03 -3.167284e+03 -3.248066e+03 -3.713353e+03 -3.003039e+03 -3.142944e+03 -3.242487e+03 -3.231864e+03 -3.381658e+03 -3.309732e+03 -3.676350e+03 -3.275710e+03 -3.273766e+03 -4.171137e+03 -4.425386e+03 -4.639513e+03 -6.285884e+03 -6.055527e+03 -3.184443e+03 -1.029194e+03 
8.599329e+02 7.420241e+01 2.620479e+02 -3.007971e+02 -7.246199e+02 7.414793e+01 1.893101e+02 1.520874e+02 6.299262e+01 1.671565e+01 3.404885e+00 5.987985e+00 -1.144765e+01 1.213479e+01 2.013744e+00 -1.100699e+02 4.276089e+02 -8.402985e+02 4.333873e+02 1.232196e+03 -1.863898e+03 -3.502920e+02 1.237493e+03 4.518635e+02 -2.166109e+02 1.705958e+02 3.189554e+02 4.355528e+02 7.251887e+02 1.737082e+02 -3.716344e+02 5.836129e+02 4.845126e+02 1.644916e+03 1.697609e+03 3.189144e+03 2.557449e+03 2.319156e+03 2.198358e+03 -2.894930e+02 -1.345187e+03 -3.181978e+03 -2.104624e+03 -1.462176e+02 1.500716e+02 -5.042323e+02 -1.992508e+03 -1.522622e+03 -2.412117e+03 -2.924977e+03 -3.215683e+03 -4.543604e+03 -4.136501e+03 -2.189729e+03 -3.462751e+03 -3.885899e+03 -1.284320e+03 -1.303057e+03 -3.080056e+03 -3.923214e+03 -6.324187e+03 -5.929272e+03 -1.124236e+03 1.440868e+03 
3.133058e+02 -5.353746e+01 2.451458e+02 -6.531803e+02 -1.093974e+03 1.293871e+02 3.052678e+02 1.340225e+02 4.804789e+01 1.211539e+01 3.969157e+00 2.033661e+00 3.672389e+00 -5.354953e+00 -5.537365e+01 2.854119e+02 -5.351336e+02 -2.548927e+01 1.884058e+03 -1.177927e+03 -1.085003e+03 1.942280e+03 2.028478e+03 7.155615e+01 -3.805180e+02 -5.821234e+02 -7.475558e+02 -2.073038e+02 -3.009687e+02 6.612907e+01 -2.140219e+02 -1.856147e+02 4.607547e+01 3.189081e+02 1.506452e+03 2.173776e+03 3.620840e+03 3.671374e+03 4.377542e+03 1.519970e+03 1.172135e+03 1.224930e+03 1.172263e+03 2.562831e+03 3.325979e+03 3.649080e+03 2.906353e+03 3.733601e+03 2.471131e+03 2.933106e+03 3.640796e+03 2.489081e+03 1.878833e+03 3.573822e+03 3.987037e+03 2.577063e+03 4.537943e+03 8.283846e+03 5.861799e+03 2.593454e+03 6.379754e+03 9.691948e+03 6.244314e+03 1.832902e+03 