# vtk DataFile Version 2.0
Comment goes here
ASCII

DATASET STRUCTURED_POINTS
FIELD FieldData 1
TIME 1 1 double
0.07100000
DIMENSIONS    256   32   1

ORIGIN    0.000   0.000   0.000
SPACING   0.0078125 0.0078125   1.000

POINT_DATA   8192
SCALARS Omega double
LOOKUP_TABLE default

2.435563e-07 -4.783508e-08 9.525281e-07 -1.358895e-07 1.346859e-06 -7.932985e-07 -2.107031e-05 -2.344616e-05 -1.001692e-06 -4.935714e-06 1.358455e-05 2.524183e-05 9.352805e-05 1.268179e-04 -3.707223e-04 -3.781554e-04 -1.809805e-04 -4.627090e-04 -5.770956e-04 1.145164e-04 5.005176e-04 1.279073e-04 1.396761e-04 -1.705242e-04 -4.026311e-04 -2.863598e-04 -4.120076e-04 -4.872551e-04 -4.425399e-04 -7.001009e-04 -6.953594e-04 -8.915096e-04 -9.289198e-04 -8.936764e-04 -1.301189e-03 -1.511627e-03 -1.964075e-03 -1.840789e-03 -1.569588e-03 -2.167786e-03 -2.802950e-03 -3.781385e-03 -3.693491e-03 -3.331615e-03 -3.937528e-03 -5.130863e-03 -7.059946e-03 -7.006457e-03 -6.385018e-03 -6.626820e-03 -8.627945e-03 -1.195992e-02 -1.275631e-02 -1.299622e-02 -1.149600e-02 -1.333659e-02 -1.933110e-02 -1.874878e-02 -1.468077e-02 3.882357e-04 1.248412e-03 -5.728939e-02 3.019884e-02 2.297415e-01 1.156257e-01 -4.220868e-02 1.462574e-02 3.356403e-02 1.961527e-02 -8.121773e-03 -2.528139e-02 -1.611888e-02 -1.660186e-02 -1.488310e-02 -1.517385e-02 -1.729221e-02 -1.326833e-02 -1.319167e-02 -1.252618e-02 -1.171782e-02 -1.360807e-02 -1.110192e-02 -1.246904e-02 -1.294516e-02 -1.286865e-02 -1.603200e-02 -1.293008e-02 -1.494104e-02 -1.649993e-02 -1.538878e-02 -1.688673e-02 -1.606155e-03 5.868230e-03 -1.648807e-02 9.639853e-03 1.123814e-01 1.276841e-01 4.178331e-02 6.165005e-03 9.168354e-03 1.140470e-02 -6.074492e-03 -1.976371e-02 -1.695822e-02 -1.766767e-02 -1.468297e-02 -1.438491e-02 -1.575760e-02 -1.265792e-02 -1.301160e-02 -1.192473e-02 -1.116369e-02 -1.309153e-02 -1.064969e-02 -1.248139e-02 -1.229391e-02 -1.223716e-02 -1.565372e-02 -1.211636e-02 -1.491477e-02 -1.519536e-02 -1.441278e-02 -1.679017e-02 -9.768942e-04 8.014592e-03 -5.558001e-03 -1.472313e-03 8.001574e-02 1.411528e-01 7.281694e-02 1.094529e-03 -1.834329e-03 8.493606e-03 -5.574768e-03 -1.828450e-02 -1.729734e-02 -1.789704e-02 -1.459886e-02 -1.429726e-02 -1.518293e-02 -1.229903e-02 -1.295705e-02 -1.167204e-02 -1.110097e-02 -1.274919e-02 -1.025210e-02 -1.251024e-02 -1.192433e-02 -1.214078e-02 -1.526548e-02 -1.160354e-02 -1.507939e-02 -1.461001e-02 -1.417781e-02 -1.611041e-02 -4.086303e-04 7.068436e-03 -3.228154e-03 -1.461326e-03 7.416853e-02 1.435112e-01 8.093667e-02 5.293325e-04 -4.456912e-03 7.641082e-03 -6.066410e-03 -1.761097e-02 -1.724116e-02 -1.799474e-02 -1.459330e-02 -1.450808e-02 -1.480192e-02 -1.203235e-02 -1.303243e-02 -1.151436e-02 -1.122184e-02 -1.250863e-02 -1.000559e-02 -1.262314e-02 -1.165938e-02 -1.220090e-02 -1.485727e-02 -1.119489e-02 -1.512957e-02 -1.404456e-02 -1.404728e-02 -1.520091e-02 3.599617e-04 6.223670e-03 -2.560691e-03 -1.711533e-04 7.542207e-02 1.457274e-01 8.059889e-02 -8.315499e-04 -2.133545e-03 9.712101e-03 -5.634486e-03 -1.560895e-02 -1.569539e-02 -1.594945e-02 -1.226087e-02 -1.235867e-02 -1.095905e-02 -9.068634e-03 -8.970699e-03 -7.068900e-03 -6.749030e-03 -5.711193e-03 -4.772992e-03 -4.823324e-03 -3.709858e-03 -3.631455e-03 -2.997616e-03 -2.543132e-03 -2.489255e-03 -1.911888e-03 -1.780457e-03 -1.437832e-03 -1.314080e-03 -1.297367e-03 -9.850391e-04 -9.758229e-04 -7.874976e-04 -6.885059e-04 -6.324417e-04 -4.940483e-04 -4.948850e-04 -3.969159e-04 -3.874700e-04 -3.631143e-04 -2.682187e-04 -2.518915e-04 -1.951341e-04 -1.335890e-04 -8.780650e-05 -7.787470e-05 -3.870588e-05 -3.386973e-05 -4.979535e-05 -2.886789e-05 -5.156574e-05 -6.292912e-05 -5.137784e-05 -6.940092e-05 -6.316400e-05 -5.186037e-05 -6.345960e-05 -4.794458e-05 -4.935399e-05 -3.905540e-05 -8.447797e-06 9.171293e-07 8.138567e-07 2.309248e-07 -1.146192e-07 
-3.425287e-02 -1.585238e-01 -6.046536e-01 -1.832317e+00 -4.362026e+00 -8.445256e+00 -1.123839e+01 -9.222421e+00 -8.820489e+00 -1.031220e+01 -1.394496e+01 -2.085482e+01 -2.935443e+01 -4.611062e+01 -4.768071e+01 -4.264029e+01 -5.857094e+01 -5.318661e+01 -6.310779e+01 -5.788765e+01 -2.574163e+01 -3.601419e+01 -2.529224e+01 -2.065911e+00 -1.128170e+01 -6.754215e+00 -5.856783e+00 -8.871552e+00 -3.402099e+00 -8.384092e+00 -4.483979e+00 -4.838504e+00 -6.014883e+00 -1.805561e+00 -6.380112e+00 -2.854972e+00 -4.346706e+00 -4.148213e+00 -6.588082e-01 -4.741713e+00 -1.507499e+00 -3.544334e+00 -2.609394e+00 6.897072e-02 -3.305704e+00 -4.082108e-01 -2.604458e+00 -1.311278e+00 5.002762e-01 -2.092076e+00 4.332184e-01 -1.684246e+00 -1.885789e-01 8.356402e-01 -9.841197e-01 1.279535e+00 -6.174602e-01 7.847453e-01 9.770646e-01 -1.284330e-02 2.014255e+00 -4.360073e-02 1.625333e+00 2.187708e+00 1.480759e+00 2.324133e+00 7.700586e-01 2.295880e+00 1.551121e+00 1.351412e+00 2.736820e+00 1.295819e+00 2.486230e+00 1.723814e+00 1.913088e+00 3.023895e+00 1.777218e+00 2.892368e+00 2.123657e+00 2.452222e+00 3.230001e+00 2.194965e+00 3.230936e+00 2.494133e+00 2.907166e+00 3.324298e+00 2.531968e+00 3.564983e+00 2.834088e+00 3.302372e+00 3.433120e+00 2.911567e+00 4.026277e+00 3.148126e+00 3.707184e+00 4.257661e+00 3.977496e+00 4.442148e+00 3.440877e+00 4.032129e+00 3.925984e+00 3.463629e+00 4.244387e+00 3.504846e+00 4.001119e+00 3.816662e+00 3.600063e+00 4.312559e+00 3.605647e+00 4.128268e+00 3.887709e+00 3.802663e+00 4.358229e+00 3.693324e+00 4.275540e+00 3.978090e+00 4.014667e+00 4.393604e+00 3.780427e+00 4.462215e+00 4.082717e+00 4.213388e+00 4.476799e+00 3.953405e+00 4.761348e+00 4.241249e+00 4.464180e+00 5.051529e+00 4.777537e+00 5.225271e+00 4.382469e+00 4.613556e+00 4.736095e+00 4.178922e+00 4.823272e+00 4.255540e+00 4.548500e+00 4.545866e+00 4.198001e+00 4.829682e+00 4.225632e+00 4.601206e+00 4.502053e+00 4.298745e+00 4.815944e+00 4.179529e+00 4.666120e+00 4.471841e+00 4.385104e+00 4.791502e+00 4.162734e+00 4.741907e+00 4.461314e+00 4.469760e+00 4.787196e+00 4.237014e+00 4.939245e+00 4.530010e+00 4.621944e+00 5.236603e+00 4.997907e+00 5.387202e+00 4.591335e+00 4.720849e+00 4.907585e+00 4.347404e+00 4.929650e+00 4.425208e+00 4.652181e+00 4.702341e+00 4.366175e+00 4.945462e+00 4.365706e+00 4.722885e+00 4.664239e+00 4.458124e+00 4.956870e+00 4.323035e+00 4.806867e+00 4.641151e+00 4.537104e+00 4.944409e+00 4.310425e+00 4.893605e+00 4.621826e+00 4.616598e+00 4.933306e+00 4.382139e+00 5.088856e+00 4.670155e+00 4.771377e+00 5.338109e+00 5.119836e+00 5.548008e+00 4.693629e+00 4.851483e+00 5.004523e+00 4.479533e+00 5.056184e+00 4.479497e+00 4.766892e+00 4.768783e+00 4.482746e+00 5.033185e+00 4.388303e+00 4.821826e+00 4.708044e+00 4.538718e+00 5.001216e+00 4.336638e+00 4.880398e+00 4.656741e+00 4.591508e+00 4.956606e+00 4.321463e+00 4.946402e+00 4.613783e+00 4.650715e+00 4.911300e+00 4.339281e+00 4.998670e+00 4.557753e+00 4.692896e+00 4.836845e+00 4.377971e+00 5.019263e+00 4.476489e+00 4.738767e+00 4.762281e+00 4.447158e+00 5.019367e+00 4.382236e+00 4.783336e+00 4.693318e+00 4.503286e+00 4.990858e+00 4.321858e+00 4.845902e+00 4.644570e+00 4.548316e+00 4.938252e+00 4.281598e+00 4.879510e+00 4.579953e+00 4.608478e+00 4.882646e+00 4.154996e+00 4.671752e+00 4.610125e+00 5.729362e+00 5.853079e+00 2.917705e+00 9.478013e-01 2.478049e-01 4.926908e-02 -1.253739e-03 
-1.814635e-02 -2.820507e-01 -1.452051e+00 -5.341765e+00 -1.462039e+01 -2.839939e+01 -3.040398e+01 -2.128306e+01 -2.221525e+01 -1.983148e+01 -3.005342e+01 -3.388374e+01 -3.030068e+01 -8.212915e+01 -7.949117e+01 -4.111936e+01 -7.796385e+01 -5.923314e+01 -6.714253e+01 -9.007662e+01 -1.751030e+01 -4.884260e+01 -5.369079e+01 -3.849493e+00 -3.398665e+01 -1.004138e+01 -1.493029e+01 -2.919911e+01 -2.489664e+00 -2.896559e+01 -6.210953e+00 -1.583214e+01 -2.146602e+01 2.550869e-01 -2.423795e+01 -3.026624e+00 -1.667818e+01 -1.517134e+01 1.678069e+00 -2.020372e+01 -5.962603e-01 -1.562945e+01 -9.805586e+00 1.955732e+00 -1.638230e+01 1.246900e+00 -1.359429e+01 -5.235444e+00 1.494075e+00 -1.288566e+01 2.564583e+00 -1.126435e+01 -1.552764e+00 7.501434e-01 -9.400748e+00 4.017444e+00 -8.216001e+00 1.326023e+00 -6.866881e-01 -6.035975e+00 5.169547e+00 -7.325838e+00 3.101392e+00 1.778707e+00 -2.035725e+00 3.617512e+00 -4.979163e+00 5.172431e+00 -1.243881e+00 -9.727856e-01 5.892685e+00 -2.752529e+00 5.037705e+00 -9.466519e-01 1.398701e+00 5.998840e+00 -1.177318e+00 5.798205e+00 8.576185e-02 3.286575e+00 5.765758e+00 2.387854e-01 6.385996e+00 1.186363e+00 4.730174e+00 5.194901e+00 1.538522e+00 7.053409e+00 2.270629e+00 5.857368e+00 4.808744e+00 3.012195e+00 7.953746e+00 2.854006e+00 6.751910e+00 6.676256e+00 5.445685e+00 7.776348e+00 3.719705e+00 7.714505e+00 5.553222e+00 5.191598e+00 8.100770e+00 4.435736e+00 7.570428e+00 5.326815e+00 5.884930e+00 7.973438e+00 4.772701e+00 7.728887e+00 5.512300e+00 6.471923e+00 7.676510e+00 5.140758e+00 7.969068e+00 5.859541e+00 7.066078e+00 7.434919e+00 5.647184e+00 8.406294e+00 6.255236e+00 7.627537e+00 7.490936e+00 6.327167e+00 8.965220e+00 6.458047e+00 8.154413e+00 8.835968e+00 7.857477e+00 9.223775e+00 6.948255e+00 8.641938e+00 8.033494e+00 7.310841e+00 9.028235e+00 7.048483e+00 8.599135e+00 7.679800e+00 7.606052e+00 8.922644e+00 7.005916e+00 8.709985e+00 7.534983e+00 7.873047e+00 8.620151e+00 6.921931e+00 8.821984e+00 7.406454e+00 8.050659e+00 8.357912e+00 6.946894e+00 8.911802e+00 7.341833e+00 8.176819e+00 8.202200e+00 7.123480e+00 9.112669e+00 7.268297e+00 8.273609e+00 9.033700e+00 8.296926e+00 9.445682e+00 7.476083e+00 8.442747e+00 8.480365e+00 7.480986e+00 8.899621e+00 7.521756e+00 8.394998e+00 8.214328e+00 7.690097e+00 8.922766e+00 7.514876e+00 8.562248e+00 8.197264e+00 7.931216e+00 8.934049e+00 7.518079e+00 8.757105e+00 8.201505e+00 8.137051e+00 8.923068e+00 7.567002e+00 8.951170e+00 8.190960e+00 8.314988e+00 8.883311e+00 7.698512e+00 9.261719e+00 8.140307e+00 8.474450e+00 9.500033e+00 8.756670e+00 9.895718e+00 8.161432e+00 8.589903e+00 9.078551e+00 7.885382e+00 9.218254e+00 8.022188e+00 8.593828e+00 8.690588e+00 7.995458e+00 9.230397e+00 7.846198e+00 8.727940e+00 8.551763e+00 8.107053e+00 9.165345e+00 7.716466e+00 8.851160e+00 8.425714e+00 8.214500e+00 9.074990e+00 7.677564e+00 9.005607e+00 8.331552e+00 8.354589e+00 8.990216e+00 7.712064e+00 9.130331e+00 8.200690e+00 8.445157e+00 8.824840e+00 7.776276e+00 9.174754e+00 8.016058e+00 8.546656e+00 8.658610e+00 7.915564e+00 9.185429e+00 7.807199e+00 8.639435e+00 8.498323e+00 8.027976e+00 9.134641e+00 7.679814e+00 8.790688e+00 8.401432e+00 8.133633e+00 9.038718e+00 7.598359e+00 8.877794e+00 8.267664e+00 8.280580e+00 8.951485e+00 7.364277e+00 8.483686e+00 8.317178e+00 1.065840e+01 1.135801e+01 5.572632e+00 1.747743e+00 4.790830e-01 1.255822e-01 3.686897e-02 
-8.455019e-02 -4.144525e-01 -1.863232e+00 -7.327014e+00 -2.368671e+01 -4.953572e+01 -4.279081e+01 -2.320849e+01 -2.835521e+01 -1.646559e+01 -2.585188e+01 -1.410489e+01 3.509703e+01 1.438113e+00 4.198919e+00 5.647179e+01 2.075889e+01 3.612639e+01 4.804692e+01 -1.867866e+01 5.230329e+01 1.760461e+01 -4.818000e+01 1.100321e+01 -5.309500e+01 -4.918820e+00 -1.158419e+01 -4.663850e+01 7.178650e+00 -4.881556e+01 -2.065159e+00 -2.372505e+01 -3.768392e+01 8.290125e+00 -4.321667e+01 1.018331e+00 -2.972979e+01 -2.772496e+01 8.012436e+00 -3.829328e+01 2.800005e+00 -3.100186e+01 -1.883469e+01 5.783131e+00 -3.332024e+01 3.806924e+00 -2.944518e+01 -1.100588e+01 2.462243e+00 -2.840021e+01 4.395718e+00 -2.653764e+01 -5.082652e+00 -1.894642e+00 -2.346482e+01 4.829704e+00 -2.250852e+01 -8.985877e-01 -7.325380e+00 -1.811546e+01 5.279932e+00 -2.218031e+01 8.150195e-01 -5.519713e+00 -1.344966e+01 -1.075039e+00 -1.879486e+01 3.899866e+00 -1.166677e+01 -9.306305e+00 4.285738e+00 -1.430593e+01 2.864703e+00 -1.154200e+01 -4.874205e+00 3.243576e+00 -1.181839e+01 3.263147e+00 -1.027212e+01 -1.801184e+00 1.456806e+00 -9.552701e+00 3.440442e+00 -8.617089e+00 3.150183e-01 -8.000539e-01 -7.258038e+00 3.779604e+00 -6.939391e+00 1.706877e+00 -2.577657e+00 -4.706902e+00 4.028431e+00 -6.803039e+00 2.374963e+00 -1.176114e+00 -3.132199e+00 1.100072e+00 -5.501546e+00 3.400579e+00 -2.926176e+00 -9.204908e-01 3.327998e+00 -3.558893e+00 3.248136e+00 -2.797089e+00 5.543688e-01 2.669727e+00 -2.888622e+00 3.176256e+00 -2.379747e+00 1.344648e+00 1.619379e+00 -2.092451e+00 3.157639e+00 -1.669516e+00 2.004983e+00 7.069273e-01 -9.706511e-01 3.409724e+00 -9.984470e-01 2.577924e+00 4.031980e-01 1.671502e-01 3.408320e+00 -1.228331e+00 2.699481e+00 1.324146e+00 3.607976e-01 1.612611e+00 -4.966442e-01 3.264282e+00 6.228951e-01 1.864989e+00 3.111136e+00 5.569972e-01 3.503519e+00 6.764572e-01 2.629930e+00 2.793428e+00 6.988463e-01 3.589868e+00 6.183803e-01 2.919296e+00 2.064080e+00 8.111911e-01 3.602508e+00 5.247030e-01 3.016490e+00 1.511660e+00 1.048612e+00 3.482554e+00 4.884983e-01 2.968482e+00 1.167004e+00 1.235802e+00 3.082869e+00 -7.361154e-03 2.433137e+00 1.282637e+00 6.771075e-01 1.771905e+00 3.583690e-01 2.336884e+00 1.454045e+00 1.686882e+00 2.505711e+00 1.375488e+00 2.576670e+00 1.794419e+00 2.144360e+00 2.490908e+00 1.687341e+00 2.658893e+00 1.971444e+00 2.335422e+00 2.467094e+00 1.914967e+00 2.730619e+00 2.115237e+00 2.481327e+00 2.489441e+00 2.099541e+00 2.788799e+00 2.190140e+00 2.545321e+00 2.429985e+00 2.094486e+00 2.669409e+00 1.800257e+00 2.104910e+00 2.083764e+00 1.326002e+00 2.163891e+00 1.744315e+00 1.941171e+00 2.634620e+00 2.046291e+00 2.675241e+00 2.475535e+00 2.408188e+00 2.767308e+00 2.294484e+00 2.842280e+00 2.449093e+00 2.480944e+00 2.711879e+00 2.311759e+00 2.845127e+00 2.338051e+00 2.511086e+00 2.643040e+00 2.321289e+00 2.823381e+00 2.274814e+00 2.571685e+00 2.594647e+00 2.361771e+00 2.791959e+00 2.238005e+00 2.633435e+00 2.515293e+00 2.372407e+00 2.719448e+00 2.200951e+00 2.678634e+00 2.430432e+00 2.391270e+00 2.651627e+00 2.215987e+00 2.731028e+00 2.327792e+00 2.400538e+00 2.587493e+00 2.225669e+00 2.750789e+00 2.257127e+00 2.448681e+00 2.559610e+00 2.259594e+00 2.748933e+00 2.204317e+00 2.496041e+00 2.521997e+00 2.320589e+00 2.775971e+00 2.156839e+00 2.405629e+00 2.454009e+00 3.215800e+00 4.569322e+00 3.248007e+00 1.282692e+00 3.720085e-01 8.586023e-02 -4.464223e-03 
-3.793250e-02 -2.371694e-01 -1.144537e+00 -4.588309e+00 -1.732572e+01 -3.790017e+01 -2.607938e+01 -8.861622e+00 -1.382000e+01 -4.339354e+00 -4.668726e+00 1.074276e+01 3.883084e+01 -4.738956e+00 -6.202299e+00 1.608372e+00 1.089700e+01 5.176445e+00 6.648025e+00 -1.294817e+01 -9.567104e+00 5.032265e+01 2.348873e+00 2.748527e+01 -3.040150e+01 2.618885e+00 -1.145574e-02 -2.827977e+01 9.164403e+00 -3.094011e+01 1.675125e+00 -1.434119e+01 -2.591438e+01 7.194216e+00 -2.878636e+01 2.082185e+00 -2.075946e+01 -2.044946e+01 5.581285e+00 -2.684505e+01 1.706295e+00 -2.329103e+01 -1.508584e+01 2.947105e+00 -2.474238e+01 1.027475e+00 -2.339051e+01 -1.016325e+01 -3.237716e-01 -2.245085e+01 4.348005e-01 -2.208336e+01 -6.630966e+00 -4.784306e+00 -2.026653e+01 -5.379917e-01 -2.033381e+01 -4.456358e+00 -9.903808e+00 -1.748027e+01 -1.083207e+00 -2.083823e+01 -4.163479e+00 -1.006587e+01 -1.613768e+01 -7.537624e+00 -1.946431e+01 -2.702317e+00 -1.443659e+01 -1.202404e+01 -2.716204e+00 -1.576014e+01 -3.545048e+00 -1.457306e+01 -9.031810e+00 -3.944823e+00 -1.441857e+01 -3.836376e+00 -1.408213e+01 -7.228549e+00 -5.848411e+00 -1.321429e+01 -4.209564e+00 -1.317636e+01 -6.113317e+00 -8.002753e+00 -1.186358e+01 -4.483444e+00 -1.226886e+01 -5.612263e+00 -9.830406e+00 -1.043791e+01 -5.235070e+00 -1.288703e+01 -5.873706e+00 -1.023960e+01 -1.148046e+01 -9.044267e+00 -1.241957e+01 -5.830010e+00 -1.119099e+01 -8.212009e+00 -6.241220e+00 -1.047836e+01 -5.689918e+00 -1.062164e+01 -7.022245e+00 -6.822435e+00 -9.929782e+00 -5.885574e+00 -1.020854e+01 -6.609175e+00 -7.744772e+00 -9.312036e+00 -6.139117e+00 -9.674430e+00 -6.429874e+00 -8.615641e+00 -8.512031e+00 -6.334915e+00 -9.309990e+00 -6.393836e+00 -9.110997e+00 -7.940716e+00 -7.065883e+00 -9.910092e+00 -6.985920e+00 -9.719963e+00 -9.731228e+00 -9.868791e+00 -9.752233e+00 -7.005360e+00 -9.575613e+00 -7.048174e+00 -7.591962e+00 -8.330081e+00 -6.539583e+00 -8.951394e+00 -6.389162e+00 -7.819543e+00 -8.024622e+00 -6.555896e+00 -8.763310e+00 -6.324513e+00 -8.314144e+00 -7.717049e+00 -6.664683e+00 -8.645645e+00 -6.393002e+00 -8.624391e+00 -7.399399e+00 -6.905597e+00 -8.553321e+00 -6.585097e+00 -8.822255e+00 -7.366573e+00 -7.651623e+00 -9.085519e+00 -7.418252e+00 -9.771377e+00 -9.673406e+00 -9.864734e+00 -8.987142e+00 -7.817485e+00 -8.833888e+00 -7.257930e+00 -8.083872e+00 -7.616225e+00 -7.326393e+00 -7.995714e+00 -6.914528e+00 -8.084539e+00 -7.205980e+00 -7.429414e+00 -7.751370e+00 -6.989428e+00 -8.118800e+00 -6.937666e+00 -7.596190e+00 -7.582523e+00 -7.078122e+00 -8.076829e+00 -6.783497e+00 -7.777673e+00 -7.482587e+00 -7.235606e+00 -8.111819e+00 -6.986237e+00 -8.346079e+00 -7.949924e+00 -8.061320e+00 -9.415905e+00 -9.455554e+00 -9.941509e+00 -8.151670e+00 -8.502072e+00 -8.177507e+00 -7.344964e+00 -8.302065e+00 -6.925684e+00 -7.812596e+00 -7.442300e+00 -7.148787e+00 -8.073180e+00 -6.722637e+00 -7.898487e+00 -7.331543e+00 -7.279642e+00 -7.981000e+00 -6.705333e+00 -8.030536e+00 -7.258572e+00 -7.418236e+00 -7.893933e+00 -6.752434e+00 -8.167055e+00 -7.204229e+00 -7.564639e+00 -7.830528e+00 -6.861011e+00 -8.257248e+00 -7.134862e+00 -7.676457e+00 -7.708437e+00 -7.001459e+00 -8.251760e+00 -7.001425e+00 -7.794433e+00 -7.581690e+00 -7.176336e+00 -8.190764e+00 -6.861586e+00 -7.914173e+00 -7.453733e+00 -7.318839e+00 -8.093637e+00 -6.793794e+00 -8.065281e+00 -7.366896e+00 -7.422811e+00 -7.967626e+00 -6.763263e+00 -8.123629e+00 -7.236632e+00 -7.539630e+00 -7.806500e+00 -6.509000e+00 -7.729202e+00 -7.433465e+00 -9.493314e+00 -8.406032e+00 -2.367682e+00 -1.824112e-01 2.956722e-02 2.428470e-02 5.403661e-03 
-2.263491e-02 -9.997294e-02 -4.563267e-01 -1.899145e+00 -7.212396e+00 -1.317963e+01 -5.180431e+00 1.078124e+00 -5.878914e-02 2.775984e+00 3.195566e+00 -4.637906e-01 -4.005375e+01 -3.672256e+01 -2.382924e+01 -3.716349e+01 -2.799012e+01 -3.110627e+01 -3.592178e+01 -1.736769e+01 -4.537217e+01 -4.396729e+01 8.927712e+00 1.011528e+01 -2.943175e+00 3.861660e+00 2.856559e+00 -3.324783e+00 2.591888e+00 -4.683313e+00 1.708942e+00 -3.083711e+00 -5.105090e+00 4.854479e-01 -5.355551e+00 2.720369e-01 -5.308298e+00 -4.810297e+00 -5.442490e-01 -5.762057e+00 -9.201689e-01 -6.410394e+00 -4.271753e+00 -1.526613e+00 -6.088812e+00 -1.908054e+00 -6.859433e+00 -3.762427e+00 -2.551007e+00 -6.286702e+00 -2.610612e+00 -6.861976e+00 -3.553037e+00 -3.981170e+00 -6.529721e+00 -3.405750e+00 -6.967593e+00 -3.695567e+00 -5.522692e+00 -6.544568e+00 -4.059926e+00 -7.507944e+00 -4.088821e+00 -6.072472e+00 -7.316978e+00 -6.320500e+00 -7.817693e+00 -4.483567e+00 -7.034283e+00 -5.977296e+00 -4.713545e+00 -6.739213e+00 -4.686932e+00 -7.086157e+00 -5.507322e+00 -5.134031e+00 -6.721067e+00 -5.043547e+00 -7.159521e+00 -5.395143e+00 -5.785877e+00 -6.729321e+00 -5.365812e+00 -7.100476e+00 -5.417573e+00 -6.453242e+00 -6.647545e+00 -5.663460e+00 -7.065500e+00 -5.610767e+00 -7.078630e+00 -6.616257e+00 -6.304165e+00 -7.595194e+00 -6.038233e+00 -7.779096e+00 -7.900772e+00 -7.951547e+00 -7.814326e+00 -6.488758e+00 -7.892668e+00 -6.510505e+00 -6.742045e+00 -7.077031e+00 -6.308442e+00 -7.480499e+00 -6.180627e+00 -6.874002e+00 -6.919190e+00 -6.408093e+00 -7.325841e+00 -6.174001e+00 -7.128669e+00 -6.782335e+00 -6.565717e+00 -7.211246e+00 -6.296174e+00 -7.401859e+00 -6.646975e+00 -6.784039e+00 -7.211105e+00 -6.495850e+00 -7.640147e+00 -6.688805e+00 -7.321275e+00 -7.575172e+00 -6.947854e+00 -8.381243e+00 -8.020265e+00 -8.631255e+00 -7.791875e+00 -7.276970e+00 -8.075679e+00 -6.760472e+00 -7.593775e+00 -7.131755e+00 -6.999033e+00 -7.585077e+00 -6.550157e+00 -7.608819e+00 -6.945594e+00 -7.044592e+00 -7.409676e+00 -6.620516e+00 -7.672679e+00 -6.758949e+00 -7.128032e+00 -7.277977e+00 -6.709868e+00 -7.666755e+00 -6.616156e+00 -7.248660e+00 -7.191922e+00 -6.828211e+00 -7.668218e+00 -6.669462e+00 -7.640557e+00 -7.399612e+00 -7.198475e+00 -8.347139e+00 -8.066406e+00 -8.712342e+00 -7.524758e+00 -7.504844e+00 -7.836476e+00 -6.816701e+00 -7.717770e+00 -6.904160e+00 -7.191992e+00 -7.324530e+00 -6.710249e+00 -7.680852e+00 -6.726620e+00 -7.282986e+00 -7.222514e+00 -6.839831e+00 -7.693275e+00 -6.627685e+00 -7.422425e+00 -7.164329e+00 -6.960909e+00 -7.670044e+00 -6.590347e+00 -7.568267e+00 -7.127550e+00 -7.098283e+00 -7.674327e+00 -6.739799e+00 -7.946049e+00 -7.335334e+00 -7.503376e+00 -8.428025e+00 -8.174637e+00 -8.902709e+00 -7.499778e+00 -7.810087e+00 -7.855164e+00 -7.022205e+00 -7.928598e+00 -6.868880e+00 -7.451685e+00 -7.333115e+00 -6.936438e+00 -7.809466e+00 -6.699364e+00 -7.532217e+00 -7.234652e+00 -7.038259e+00 -7.749290e+00 -6.642610e+00 -7.640266e+00 -7.163243e+00 -7.143251e+00 -7.680846e+00 -6.649930e+00 -7.760693e+00 -7.107872e+00 -7.260361e+00 -7.618496e+00 -6.709748e+00 -7.850119e+00 -7.027562e+00 -7.342953e+00 -7.503530e+00 -6.796544e+00 -7.872103e+00 -6.902019e+00 -7.432637e+00 -7.389912e+00 -6.930753e+00 -7.854833e+00 -6.760152e+00 -7.521539e+00 -7.280357e+00 -7.038725e+00 -7.795957e+00 -6.679537e+00 -7.641935e+00 -7.206749e+00 -7.124744e+00 -7.701409e+00 -6.630175e+00 -7.697860e+00 -7.094766e+00 -7.221468e+00 -7.586995e+00 -6.413887e+00 -7.348551e+00 -7.156521e+00 -8.931058e+00 -8.636938e+00 -3.570358e+00 -8.379690e-01 -1.507302e-01 -2.065475e-02 -7.684190e-03 
-2.823025e-03 -3.076556e-02 -1.541902e-01 -6.876981e-01 -2.428772e+00 -3.756712e+00 -1.572665e+00 4.240426e-01 7.123450e-01 1.596088e+00 1.375007e+00 -4.396998e+00 -3.085729e+01 -1.493492e+01 -5.569792e+00 -5.573669e+00 -5.554585e+00 -5.561815e+00 -5.567956e+00 -5.538996e+00 -8.772868e+00 -4.233079e+01 -1.093584e+01 -2.942967e+00 3.891053e-01 1.793682e+00 9.289509e-01 -8.312765e-01 2.938138e-01 -1.439878e-01 1.155390e+00 -2.815308e-01 -1.396869e+00 -6.635497e-01 -9.081453e-01 4.027534e-01 -7.537722e-01 -1.193116e+00 -9.797328e-01 -1.301201e+00 -2.099661e-01 -1.112249e+00 -1.012038e+00 -1.181893e+00 -1.569452e+00 -6.979459e-01 -1.380284e+00 -9.072613e-01 -1.336852e+00 -1.739023e+00 -1.060829e+00 -1.579995e+00 -9.317688e-01 -1.518369e+00 -1.830688e+00 -1.339922e+00 -1.735486e+00 -1.066992e+00 -1.740069e+00 -1.851488e+00 -1.617796e+00 -1.967579e+00 -1.121031e+00 -1.417131e+00 -1.049255e+00 -1.307097e+00 -1.842094e+00 -1.453178e+00 -2.080795e+00 -1.796553e+00 -1.853385e+00 -2.020456e+00 -1.665109e+00 -2.104295e+00 -1.732368e+00 -1.933899e+00 -2.060148e+00 -1.806237e+00 -2.154001e+00 -1.757616e+00 -2.060088e+00 -2.094982e+00 -1.928581e+00 -2.184640e+00 -1.825376e+00 -2.184166e+00 -2.099554e+00 -2.027055e+00 -2.207450e+00 -1.920245e+00 -2.295778e+00 -2.102562e+00 -2.182105e+00 -2.305542e+00 -1.913448e+00 -1.973319e+00 -1.490688e+00 -1.822172e+00 -2.127139e+00 -2.121778e+00 -2.461843e+00 -2.143162e+00 -2.309775e+00 -2.277693e+00 -2.175346e+00 -2.375450e+00 -2.090490e+00 -2.330665e+00 -2.257486e+00 -2.219269e+00 -2.361361e+00 -2.123126e+00 -2.388667e+00 -2.245326e+00 -2.270021e+00 -2.353526e+00 -2.178630e+00 -2.437822e+00 -2.223811e+00 -2.321708e+00 -2.356997e+00 -2.234902e+00 -2.474333e+00 -2.237333e+00 -2.434305e+00 -2.402252e+00 -2.201815e+00 -2.156298e+00 -1.670834e+00 -2.015765e+00 -2.211746e+00 -2.364405e+00 -2.563271e+00 -2.298778e+00 -2.499170e+00 -2.357403e+00 -2.364806e+00 -2.443300e+00 -2.248414e+00 -2.485449e+00 -2.317120e+00 -2.378027e+00 -2.413488e+00 -2.280568e+00 -2.498838e+00 -2.286259e+00 -2.403782e+00 -2.396880e+00 -2.314090e+00 -2.498346e+00 -2.266120e+00 -2.434365e+00 -2.388118e+00 -2.347835e+00 -2.500829e+00 -2.288672e+00 -2.520181e+00 -2.410549e+00 -2.307455e+00 -2.183352e+00 -1.731355e+00 -2.066197e+00 -2.222924e+00 -2.449714e+00 -2.563231e+00 -2.368156e+00 -2.553213e+00 -2.366931e+00 -2.433984e+00 -2.441837e+00 -2.327989e+00 -2.526004e+00 -2.323174e+00 -2.444718e+00 -2.421308e+00 -2.356670e+00 -2.524487e+00 -2.301983e+00 -2.469494e+00 -2.410899e+00 -2.381685e+00 -2.514843e+00 -2.293130e+00 -2.495542e+00 -2.403174e+00 -2.407282e+00 -2.511292e+00 -2.324857e+00 -2.571402e+00 -2.418161e+00 -2.367109e+00 -2.198974e+00 -1.765358e+00 -2.094700e+00 -2.231169e+00 -2.499228e+00 -2.567818e+00 -2.414839e+00 -2.581602e+00 -2.365553e+00 -2.472728e+00 -2.443304e+00 -2.372840e+00 -2.539265e+00 -2.319733e+00 -2.481283e+00 -2.423388e+00 -2.393096e+00 -2.526482e+00 -2.307015e+00 -2.503439e+00 -2.412368e+00 -2.413615e+00 -2.510506e+00 -2.306606e+00 -2.524941e+00 -2.400555e+00 -2.431799e+00 -2.491794e+00 -2.316553e+00 -2.541081e+00 -2.383678e+00 -2.445874e+00 -2.468447e+00 -2.336834e+00 -2.548774e+00 -2.359592e+00 -2.461367e+00 -2.447432e+00 -2.366698e+00 -2.545178e+00 -2.329134e+00 -2.478490e+00 -2.429605e+00 -2.389458e+00 -2.531214e+00 -2.309150e+00 -2.496575e+00 -2.412524e+00 -2.403588e+00 -2.506416e+00 -2.294723e+00 -2.503480e+00 -2.387972e+00 -2.415267e+00 -2.469490e+00 -2.229179e+00 -2.416164e+00 -2.429795e+00 -2.823479e+00 -2.641101e+00 -1.352308e+00 -4.505293e-01 -1.126642e-01 -2.122279e-02 -2.754084e-03 
9.651874e-04 -7.732533e-03 -3.026547e-02 -1.813028e-01 -6.059246e-01 -8.483191e-01 -5.063192e-01 8.409922e-02 2.697799e-01 5.341956e-01 2.433944e-01 -3.021976e+00 -1.680134e+01 -1.578427e+01 -5.006853e+00 -4.977667e+00 -4.977560e+00 -4.977555e+00 -4.977580e+00 -4.981293e+00 -1.169063e+01 -1.778102e+01 -9.144877e+00 -3.791789e+00 -4.455063e-01 5.682156e-01 1.580794e-01 -4.109220e-01 -9.247612e-02 2.517627e-01 5.840679e-01 1.612515e-01 -5.181283e-01 -4.206206e-01 -1.532430e-01 2.748322e-01 9.725474e-02 -3.540018e-01 -4.694610e-01 -3.360123e-01 2.800992e-02 -2.180616e-02 -2.465997e-01 -4.749557e-01 -4.476322e-01 -1.675685e-01 -1.500147e-01 -1.860526e-01 -4.489269e-01 -5.009128e-01 -3.073685e-01 -2.712960e-01 -1.891939e-01 -4.312347e-01 -5.179688e-01 -4.043745e-01 -3.670534e-01 -2.332444e-01 -4.211816e-01 -4.978965e-01 -4.740584e-01 -4.064083e-01 8.630546e-02 1.767632e+00 4.831694e+00 4.064112e+00 1.248969e+00 9.454670e-02 -3.941330e-01 -4.551551e-01 -5.357078e-01 -5.304217e-01 -4.477718e-01 -5.007422e-01 -4.546888e-01 -5.405629e-01 -5.432769e-01 -4.912249e-01 -5.252446e-01 -4.613520e-01 -5.539976e-01 -5.535714e-01 -5.276960e-01 -5.478425e-01 -4.833096e-01 -5.686390e-01 -5.551221e-01 -5.537497e-01 -5.626181e-01 -5.088221e-01 -5.794061e-01 -5.470824e-01 -5.726590e-01 -5.274725e-01 -1.599381e-01 1.518872e+00 4.197047e+00 3.418527e+00 9.070448e-01 -1.768194e-01 -5.472221e-01 -5.580042e-01 -6.146430e-01 -5.997270e-01 -5.838430e-01 -6.089928e-01 -5.599423e-01 -6.131631e-01 -5.949370e-01 -5.934536e-01 -6.093932e-01 -5.690264e-01 -6.217641e-01 -5.937886e-01 -6.046295e-01 -6.113842e-01 -5.830784e-01 -6.287223e-01 -5.900023e-01 -6.136414e-01 -6.123358e-01 -5.936290e-01 -6.302090e-01 -5.865151e-01 -6.191315e-01 -5.584882e-01 -2.328514e-01 1.440128e+00 3.969049e+00 3.205056e+00 8.051119e-01 -2.565868e-01 -5.845075e-01 -6.035165e-01 -6.504341e-01 -6.229205e-01 -6.260990e-01 -6.332860e-01 -6.020216e-01 -6.428799e-01 -6.132862e-01 -6.264352e-01 -6.283561e-01 -6.089789e-01 -6.451013e-01 -6.084739e-01 -6.308462e-01 -6.268185e-01 -6.163043e-01 -6.451190e-01 -6.052950e-01 -6.352319e-01 -6.250715e-01 -6.207357e-01 -6.418798e-01 -6.039879e-01 -6.355106e-01 -5.658089e-01 -2.563293e-01 1.423381e+00 3.897409e+00 3.145966e+00 7.770421e-01 -2.801758e-01 -5.912648e-01 -6.227377e-01 -6.621939e-01 -6.295747e-01 -6.395330e-01 -6.375250e-01 -6.200820e-01 -6.515947e-01 -6.178404e-01 -6.373118e-01 -6.324884e-01 -6.241253e-01 -6.503873e-01 -6.133666e-01 -6.402086e-01 -6.306176e-01 -6.279458e-01 -6.477775e-01 -6.110170e-01 -6.431740e-01 -6.281493e-01 -6.295729e-01 -6.427915e-01 -6.106033e-01 -6.412850e-01 -5.668375e-01 -2.638519e-01 1.425553e+00 3.888385e+00 3.140959e+00 7.737124e-01 -2.862004e-01 -5.904308e-01 -6.303142e-01 -6.649117e-01 -6.284944e-01 -6.432224e-01 -6.363405e-01 -6.266088e-01 -6.517623e-01 -6.162035e-01 -6.407908e-01 -6.317126e-01 -6.289478e-01 -6.488498e-01 -6.134343e-01 -6.439667e-01 -6.302244e-01 -6.320066e-01 -6.456665e-01 -6.131330e-01 -6.474431e-01 -6.286809e-01 -6.344463e-01 -6.419863e-01 -6.147587e-01 -6.502519e-01 -6.261062e-01 -6.361202e-01 -6.378774e-01 -6.184151e-01 -6.519697e-01 -6.222621e-01 -6.378311e-01 -6.344626e-01 -6.238009e-01 -6.514445e-01 -6.167283e-01 -6.396309e-01 -6.316583e-01 -6.273072e-01 -6.484373e-01 -6.126805e-01 -6.417062e-01 -6.287830e-01 -6.291088e-01 -6.433765e-01 -6.094880e-01 -6.418670e-01 -6.243260e-01 -6.293029e-01 -6.346645e-01 -5.946028e-01 -6.244480e-01 -6.365891e-01 -7.067567e-01 -6.568654e-01 -3.846640e-01 -1.547361e-01 -4.706909e-02 -1.112378e-02 -3.528013e-03 