# vtk DataFile Version 2.0
Comment goes here
ASCII

DATASET STRUCTURED_POINTS
FIELD FieldData 1
TIME 1 1 double
0.07000000
DIMENSIONS    64   64   1

ORIGIN    0.000   0.000   0.000
SPACING   0.03125 0.03125   1.000

POINT_DATA   4096
SCALARS Omega double
LOOKUP_TABLE default

1.586894e-01 4.544236e-01 -6.860635e-01 -4.754685e-02 -7.205622e-01 3.760814e-01 -5.072644e-01 1.758091e-01 -5.004401e-01 1.802412e-01 -4.130375e-01 1.853474e-01 -2.850381e-01 2.012988e-01 -1.345226e-01 2.082199e-01 4.706893e-02 1.789367e-01 2.367205e-01 2.801751e-01 4.404710e-01 4.432771e-01 4.602637e-01 4.853380e-01 3.775684e-01 2.802697e-01 4.597980e-01 3.623448e-01 4.679874e-01 4.687038e-01 4.192516e-01 4.023106e-01 4.523231e-01 2.701823e-01 5.468635e-01 2.426675e-01 5.757846e-01 3.232911e-01 5.308647e-01 3.521171e-01 4.938661e-01 1.881710e-01 5.166841e-01 1.739741e-01 4.710301e-01 2.203491e-01 3.673358e-01 1.483652e-01 2.567781e-01 1.982961e-02 2.280973e-01 -6.206543e-02 1.639920e-01 -1.381316e-01 1.171485e-01 -2.077106e-01 1.021272e-01 -2.821576e-01 1.158334e-01 -3.570216e-01 1.353344e-01 -4.274854e-01 2.629540e-01 -7.593004e-01 
-2.123560e+01 -3.509611e+01 -1.764965e+01 -3.345354e+01 -2.095502e+01 -3.160909e+01 -2.390577e+01 -3.091889e+01 -2.837044e+01 -3.070457e+01 -3.203476e+01 -2.892237e+01 -3.612689e+01 -2.613379e+01 -4.048767e+01 -2.275118e+01 -4.519651e+01 -1.875023e+01 -5.030934e+01 -1.416157e+01 -5.620440e+01 -8.715797e+00 -6.278555e+01 -2.282941e+00 -6.982317e+01 4.639793e+00 -7.660258e+01 1.034253e+01 -8.203077e+01 1.458027e+01 -8.584745e+01 1.740592e+01 -8.818370e+01 1.910226e+01 -8.988560e+01 2.036912e+01 -9.150920e+01 2.155782e+01 -9.287733e+01 2.238739e+01 -9.338744e+01 2.231358e+01 -9.261563e+01 2.080448e+01 -9.030445e+01 1.765428e+01 -8.589631e+01 1.268939e+01 -7.951680e+01 6.386041e+00 -7.224334e+01 -3.857276e-01 -6.449822e+01 -7.488309e+00 -5.602948e+01 -1.519073e+01 -4.670965e+01 -2.347209e+01 -3.678781e+01 -3.176231e+01 -2.684840e+01 -3.950934e+01 -1.565289e+01 -4.717114e+01 
-6.234453e+01 -1.328874e+00 -5.024394e+01 5.277032e+00 -7.423216e+00 4.972945e+00 -5.819203e+01 -7.948054e-01 -7.589335e+01 -1.213127e+00 -8.730681e+01 -2.040725e+00 -9.503447e+01 -3.231876e+00 -1.007613e+02 -4.591308e+00 -1.050591e+02 -6.251497e+00 -1.082440e+02 -8.139775e+00 -1.101015e+02 -1.072352e+01 -1.106834e+02 -1.383409e+01 -1.102116e+02 -1.698960e+01 -1.093050e+02 -1.962560e+01 -1.088234e+02 -2.157986e+01 -1.088503e+02 -2.258393e+01 -1.094696e+02 -2.304268e+01 -1.099678e+02 -2.365310e+01 -1.098559e+02 -2.457323e+01 -1.093573e+02 -2.529964e+01 -1.089541e+02 -2.545791e+01 -1.086626e+02 -2.514288e+01 -1.084197e+02 -2.404515e+01 -1.087255e+02 -2.179953e+01 -1.093859e+02 -1.886866e+01 -1.094994e+02 -1.593080e+01 -1.087679e+02 -1.289671e+01 -1.074148e+02 -9.440460e+00 -1.054678e+02 -5.400164e+00 -1.026838e+02 -8.534082e-01 -9.836138e+01 4.057157e+00 -9.662462e+01 1.151579e+01 
-2.975834e+01 1.244847e+00 -2.758406e+01 9.334506e+00 -3.888311e+01 4.991124e+00 -2.131267e+01 1.175662e+01 -3.320509e+01 1.020736e+01 -4.021194e+01 8.006041e+00 -4.451590e+01 5.566877e+00 -4.730341e+01 3.048394e+00 -4.907088e+01 4.997600e-01 -5.001237e+01 -2.194934e+00 -4.985081e+01 -4.795559e+00 -4.896432e+01 -7.877436e+00 -4.756623e+01 -1.163805e+01 -4.598592e+01 -1.433196e+01 -4.445290e+01 -1.600131e+01 -4.345048e+01 -1.704877e+01 -4.311329e+01 -1.747858e+01 -4.275534e+01 -1.774453e+01 -4.192083e+01 -1.806187e+01 -4.109023e+01 -1.819450e+01 -4.062133e+01 -1.803847e+01 -4.037179e+01 -1.731609e+01 -4.036664e+01 -1.590609e+01 -4.107618e+01 -1.370851e+01 -4.263121e+01 -1.104761e+01 -4.400075e+01 -8.401903e+00 -4.506832e+01 -5.746694e+00 -4.611065e+01 -2.917427e+00 -4.707322e+01 2.566488e-01 -4.760740e+01 3.405306e+00 -4.729330e+01 7.610505e+00 -4.984537e+01 1.184348e+01 
-3.649170e+00 2.320846e+00 -3.650387e+00 -7.958849e+00 -6.076484e+01 -2.534146e+00 8.746896e+00 1.010912e+00 1.853819e+00 6.470238e-01 -4.686745e-01 3.475435e-01 -1.361069e+00 1.470829e-01 -1.763272e+00 -7.485151e-03 -1.946060e+00 -1.179517e-01 -2.044629e+00 -2.079538e-01 -2.099380e+00 -2.218693e-01 -2.166386e+00 -2.074859e-01 -2.221244e+00 -2.415407e-01 -2.166221e+00 -2.458432e-01 -2.070472e+00 -2.873975e-01 -1.955252e+00 -3.707212e-01 -1.795003e+00 -4.419305e-01 -1.611992e+00 -4.943440e-01 -1.436210e+00 -5.715365e-01 -1.266229e+00 -7.086622e-01 -1.110248e+00 -8.757143e-01 -9.669875e-01 -1.006204e+00 -8.027792e-01 -1.058721e+00 -6.293467e-01 -1.035058e+00 -4.885474e-01 -9.228276e-01 -4.052933e-01 -7.384016e-01 -3.826503e-01 -4.808297e-01 -4.172514e-01 -1.612564e-01 -5.235290e-01 2.241019e-01 -7.319514e-01 6.552821e-01 -1.050556e+00 1.249746e+00 -1.771774e+00 2.879842e+00 
-2.974137e+00 2.300597e+00 -3.361179e+00 -7.520750e+00 -8.056607e+01 -4.302609e+00 7.080501e+00 -1.313441e+00 4.084649e+00 -1.586265e-01 2.015717e+00 -5.295391e-02 9.753211e-01 -7.610142e-02 4.741389e-01 -8.725037e-02 2.458445e-01 -8.950876e-02 1.244211e-01 -1.125340e-01 3.870222e-02 -1.634482e-01 2.104476e-02 -1.691953e-01 3.037821e-02 -6.594186e-02 -3.277253e-04 -3.966187e-02 -9.980309e-03 -3.954182e-02 -8.803048e-03 -2.237515e-02 -3.032699e-02 -7.534953e-03 -5.365334e-02 6.189248e-03 -6.377825e-02 1.797004e-02 -6.644294e-02 2.582583e-02 -6.270081e-02 4.154997e-02 -6.013185e-02 5.317844e-02 -5.145298e-02 4.731019e-02 -4.507125e-02 4.318293e-02 -6.660394e-02 6.862250e-02 -9.352287e-02 1.229938e-01 -1.560727e-01 2.256409e-01 -2.512596e-01 3.965484e-01 -4.026828e-01 6.371627e-01 -6.576051e-01 9.976253e-01 -1.124444e+00 1.362100e+00 -1.763671e+00 1.937903e+00 
-2.894457e+00 1.452561e+00 -1.790215e+00 -8.717537e+00 -9.071194e+01 -2.788601e+00 5.326837e+00 -1.745116e+00 3.931959e+00 -5.639482e-01 2.172074e+00 -2.437933e-01 1.095643e+00 -1.631524e-01 5.528176e-01 -1.579425e-01 3.374364e-01 -1.652185e-01 2.305327e-01 -2.217610e-01 1.383776e-01 -2.192517e-01 1.073592e-01 -1.640622e-01 1.090396e-01 -9.141673e-02 1.187447e-01 -3.966028e-02 1.173190e-01 -2.111270e-03 9.766937e-02 2.561200e-02 6.281371e-02 3.995909e-02 2.458748e-02 4.712936e-02 -7.863869e-03 6.033071e-02 -3.239853e-02 8.076583e-02 -5.122655e-02 9.749607e-02 -6.209331e-02 9.783609e-02 -6.090547e-02 8.672902e-02 -5.242681e-02 7.947662e-02 -6.545414e-02 1.003668e-01 -1.501847e-01 1.881253e-01 -2.451609e-01 3.375127e-01 -3.648667e-01 5.289285e-01 -5.543907e-01 7.566142e-01 -8.593728e-01 1.042189e+00 -1.322562e+00 1.380183e+00 -1.989261e+00 1.709415e+00 
-2.660346e+00 1.122721e+00 -1.309481e+00 -7.628654e+00 -1.025427e+02 -2.352806e+00 2.809423e+00 -2.598156e+00 3.041691e+00 -1.150100e+00 2.126303e+00 -4.884015e-01 1.189139e+00 -2.563376e-01 6.023701e-01 -2.230427e-01 3.533393e-01 -2.095934e-01 2.588262e-01 -3.237654e-01 1.373425e-01 -3.304342e-01 1.061577e-01 -2.539080e-01 1.015116e-01 -1.573488e-01 9.437889e-02 -8.999697e-02 8.257137e-02 -5.616011e-02 5.629223e-02 -3.394544e-02 1.558233e-02 -1.225035e-02 -2.147670e-02 1.717440e-02 -4.750665e-02 5.697508e-02 -6.411626e-02 1.011174e-01 -7.040038e-02 1.343293e-01 -6.851927e-02 1.411606e-01 -5.558940e-02 1.242968e-01 -3.534759e-02 1.177752e-01 -3.687740e-02 1.642394e-01 -5.240624e-02 2.413589e-01 -1.523387e-01 4.096670e-01 -2.845342e-01 6.542954e-01 -4.833826e-01 9.357114e-01 -7.922655e-01 1.251892e+00 -1.245745e+00 1.582433e+00 -1.854383e+00 1.928386e+00 
-2.109618e+00 6.712313e-01 1.759490e-01 -7.954108e+00 -1.077517e+02 -1.305421e+00 1.783128e+00 -2.421545e+00 2.092690e+00 -1.363980e+00 1.736325e+00 -6.307482e-01 1.011736e+00 -2.875204e-01 4.980421e-01 -2.860138e-01 3.366074e-01 -3.137148e-01 2.875757e-01 -4.981942e-01 1.520993e-01 -4.353961e-01 1.318348e-01 -2.879159e-01 1.360065e-01 -1.589268e-01 1.470737e-01 -7.379017e-02 1.422603e-01 -2.552021e-02 1.091982e-01 1.587432e-03 5.490026e-02 1.782058e-02 2.902812e-03 3.740460e-02 -3.900076e-02 7.517557e-02 -7.339586e-02 1.286204e-01 -9.487510e-02 1.706436e-01 -9.827126e-02 1.750095e-01 -8.205216e-02 1.393482e-01 -2.950574e-02 8.537358e-02 1.269327e-02 8.047720e-02 -1.217443e-01 2.203666e-01 -2.235304e-01 4.484607e-01 -3.404533e-01 7.052824e-01 -5.386669e-01 9.714679e-01 -8.363736e-01 1.257604e+00 -1.234131e+00 1.558370e+00 -1.721591e+00 1.786630e+00 
-1.655300e+00 3.716723e-01 9.391681e-01 -7.250983e+00 -1.148727e+02 -8.283391e-01 7.266721e-01 -2.693819e+00 1.133683e+00 -1.773008e+00 1.323063e+00 -8.100151e-01 8.422567e-01 -2.238222e-01 3.407031e-01 -2.572418e-01 1.739558e-01 -3.764849e-01 2.865897e-01 -7.436776e-01 1.332422e-01 -6.070920e-01 1.418848e-01 -3.726973e-01 1.476050e-01 -2.004963e-01 1.434132e-01 -1.031606e-01 1.251543e-01 -6.238730e-02 7.492177e-02 -4.327092e-02 6.002593e-03 -3.116049e-02 -4.329750e-02 -2.825467e-03 -6.958278e-02 6.483235e-02 -8.661635e-02 1.638978e-01 -9.719090e-02 2.427046e-01 -1.065610e-01 2.545165e-01 -1.077536e-01 1.673314e-01 -5.890379e-02 5.151089e-02 -1.248960e-02 1.019686e-01 5.602430e-02 1.715714e-01 -5.719267e-02 4.687630e-01 -2.034381e-01 8.143369e-01 -4.274553e-01 1.096029e+00 -7.238589e-01 1.354215e+00 -1.079095e+00 1.608914e+00 -1.479010e+00 1.746575e+00 
-1.030836e+00 -1.518862e-02 2.148752e+00 -7.086448e+00 -1.169451e+02 -1.089590e-01 3.849422e-01 -2.534058e+00 3.419710e-01 -1.905672e+00 7.845086e-01 -8.376378e-01 5.115308e-01 1.073750e-01 9.266447e-02 5.953780e-02 -1.489409e-02 -7.422950e-01 3.069107e-01 -1.160382e+00 1.605919e-01 -7.155315e-01 1.798434e-01 -3.805480e-01 1.741373e-01 -1.803376e-01 1.905211e-01 -7.005543e-02 1.882566e-01 -1.697925e-02 1.306496e-01 4.212244e-03 3.539589e-02 -7.092296e-04 -3.648189e-02 -3.984673e-04 -7.728906e-02 5.432917e-02 -1.108927e-01 1.764488e-01 -1.351286e-01 2.988599e-01 -1.503878e-01 3.409589e-01 -1.610584e-01 2.328836e-01 -4.145121e-02 -1.058917e-02 1.669478e-01 -1.697926e-01 -4.046743e-02 1.423056e-01 -9.359198e-02 5.286266e-01 -1.871483e-01 8.615429e-01 -4.110843e-01 1.112051e+00 -6.884512e-01 1.333569e+00 -9.703929e-01 1.551176e+00 -1.220073e+00 1.604474e+00 
-5.383563e-01 -3.282191e-01 2.901442e+00 -6.547139e+00 -1.206752e+02 3.892933e-01 7.172208e-02 -2.685313e+00 -2.259500e-01 -2.376547e+00 4.549127e-01 -1.103257e+00 3.591486e-01 6.549679e-01 -1.873485e-01 1.231514e+00 -8.350674e-01 -1.474061e+00 3.276877e-01 -1.774119e+00 2.041726e-01 -8.543073e-01 2.526857e-01 -3.938521e-01 2.254670e-01 -1.500268e-01 2.063769e-01 -4.670008e-02 1.817268e-01 -2.764626e-02 9.186092e-02 -2.734003e-02 -3.558029e-02 -6.046541e-02 -9.910327e-02 -8.032032e-02 -9.917087e-02 2.678183e-03 -8.543725e-02 2.163431e-01 -8.476507e-02 4.304271e-01 -1.270335e-01 5.572613e-01 -2.457618e-01 3.832653e-01 -2.316246e-01 -2.121918e-01 -4.067858e-02 -3.192881e-01 3.224530e-01 -1.758511e-01 2.807624e-01 6.364426e-01 1.127606e-02 1.068849e+00 -3.368436e-01 1.219513e+00 -6.133948e-01 1.354250e+00 -8.224104e-01 1.513607e+00 -9.601820e-01 1.480121e+00 
4.343001e-02 -6.927183e-01 3.804453e+00 -6.138889e+00 -1.203867e+02 8.965948e-01 1.158318e-02 -2.688035e+00 -7.250115e-01 -2.824645e+00 -2.246066e-02 -1.707135e+00 1.123003e-01 8.308247e-01 2.413933e-02 3.715516e+00 -2.399964e+00 -3.165861e+00 8.812681e-01 -1.865527e+00 4.909326e-01 -3.121621e-01 2.841009e-01 -1.755081e-01 2.063823e-01 -1.237653e-02 2.543675e-01 4.424578e-02 2.834200e-01 7.505508e-02 1.734046e-01 8.387494e-02 -1.867219e-02 -9.187495e-03 -1.203359e-01 -1.066821e-01 -1.289516e-01 -7.732570e-02 -1.243529e-01 1.670819e-01 -1.189780e-01 5.142947e-01 -1.593147e-01 7.930848e-01 -3.774481e-01 6.809680e-01 -2.842543e-01 -2.528401e-01 3.154373e-01 -1.373209e+00 2.830735e-01 -3.092143e-02 2.769451e-01 7.719501e-01 9.535067e-02 1.186399e+00 -3.199356e-01 1.253270e+00 -5.880743e-01 1.318236e+00 -7.072240e-01 1.435563e+00 -6.928202e-01 1.324174e+00 
5.147591e-01 -1.002269e+00 4.397543e+00 -5.578830e+00 -1.213130e+02 1.355265e+00 -8.386674e-02 -2.731437e+00 -1.038671e+00 -3.647873e+00 -1.149558e-01 -3.378786e+00 5.430947e-01 -1.462274e+00 1.677544e+00 2.436199e+00 -5.257733e+00 6.570812e-01 3.877814e+00 1.198185e+00 1.349590e+00 2.225514e+00 7.068748e-01 1.542268e+00 5.519190e-01 1.354185e+00 4.793611e-01 9.192910e-01 4.599213e-01 5.118876e-01 3.054277e-01 2.798512e-01 4.703452e-02 4.691311e-02 -5.058630e-02 -1.446585e-01 -5.218174e-03 -1.537571e-01 8.789946e-02 2.368139e-01 1.424833e-01 7.046466e-01 1.121774e-01 1.169597e+00 -3.185699e-01 1.719559e+00 -1.056930e+00 6.188744e-01 -9.179026e-01 -2.193387e+00 1.461451e+00 4.351257e-01 1.530611e+00 1.923149e+00 8.086466e-02 1.520560e+00 -5.614586e-01 1.215076e+00 -6.510679e-01 1.225624e+00 -5.985020e-01 1.335652e+00 -4.450546e-01 1.159175e+00 
1.027467e+00 -1.340931e+00 4.977786e+00 -4.925572e+00 -1.190847e+02 1.625020e+00 -6.833183e-02 -2.507172e+00 -1.263456e+00 -3.847450e+00 -7.037879e-01 -5.086548e+00 -3.995140e-01 -1.034916e+01 6.661996e+00 -2.066298e+01 -2.287212e-01 2.442413e+01 2.648745e+01 2.672012e+01 6.262751e+00 1.465124e+01 6.274873e+00 1.296145e+01 6.157496e+00 1.100394e+01 5.826276e+00 8.863644e+00 5.401770e+00 6.476935e+00 4.908620e+00 5.023352e+00 4.361330e+00 4.051974e+00 3.936513e+00 3.411828e+00 3.459464e+00 3.094952e+00 2.943174e+00 3.021131e+00 2.857242e+00 2.568306e+00 2.890988e+00 1.902406e+00 2.367136e+00 1.072918e+00 2.689253e+00 -4.893115e+00 5.320314e+00 -1.182191e+01 -2.820854e+00 -7.524670e+00 3.962092e-01 2.265586e+00 1.551328e-01 2.004399e+00 -7.390999e-01 1.193704e+00 -7.087448e-01 1.103995e+00 -4.950484e-01 1.213040e+00 -1.914040e-01 9.733315e-01 
1.466169e+00 -1.561977e+00 5.285305e+00 -4.049742e+00 -1.175711e+02 1.933818e+00 -2.814730e-01 -1.878440e+00 -1.791788e+00 -3.602488e+00 -1.232029e+00 -7.740132e+00 2.193653e+00 -2.410534e+01 2.005883e+01 -5.041137e+01 2.127735e+01 5.669982e+01 7.661259e+01 6.422440e+01 2.985465e+01 4.003213e+01 3.819634e+01 4.398004e+01 4.152642e+01 4.121635e+01 4.252047e+01 4.068810e+01 4.102630e+01 3.871205e+01 3.878276e+01 3.859639e+01 3.697543e+01 3.933213e+01 3.538484e+01 3.920674e+01 3.378631e+01 3.838043e+01 3.443228e+01 3.533150e+01 3.921227e+01 3.353815e+01 3.975290e+01 3.141693e+01 3.911555e+01 2.790297e+01 3.861483e+01 3.672683e+01 2.791725e+01 3.960869e+01 2.480812e+01 2.735851e+01 3.373860e+00 5.374587e+00 -2.495978e+00 5.758238e-01 -1.634985e+00 6.061716e-01 -7.531540e-01 9.312175e-01 -3.194236e-01 1.109150e+00 8.024609e-02 7.982148e-01 
1.894346e+00 -1.736529e+00 5.523259e+00 -3.255545e+00 -1.136959e+02 1.908809e+00 -2.001380e-01 -1.578195e+00 -1.381272e+00 -2.827584e+00 3.434950e-01 -5.560764e+00 5.361665e+00 -1.350500e+01 1.616493e+01 -2.972219e+01 2.467605e+01 2.477187e+01 4.716253e+01 1.710214e+01 3.082817e+01 2.088347e+01 3.988239e+01 2.961323e+01 4.354718e+01 3.162320e+01 4.732854e+01 3.570506e+01 4.759736e+01 3.762899e+01 4.677488e+01 4.120168e+01 4.596823e+01 4.590812e+01 4.504186e+01 4.895565e+01 4.393235e+01 5.115050e+01 4.497816e+01 5.074971e+01 5.213348e+01 5.026017e+01 5.481396e+01 5.047488e+01 5.509661e+01 4.832797e+01 6.157821e+01 6.074767e+01 5.916503e+01 1.420393e+02 2.443090e+01 4.365845e+01 -8.213707e+00 9.588865e-01 -5.997053e+00 -2.094896e+00 -2.167420e+00 -3.236910e-01 -6.291139e-01 6.475788e-01 -1.047905e-01 9.811965e-01 3.499281e-01 6.280172e-01 
2.246507e+00 -1.780233e+00 5.552066e+00 -2.436347e+00 -1.103081e+02 1.822949e+00 8.956524e-03 -1.134603e+00 -9.142383e-01 -6.624899e-01 6.491679e-02 3.142627e+00 -1.877888e-01 1.451580e+01 -1.016769e+01 3.454110e+01 -2.164436e+01 -6.425707e+01 -5.629978e+01 -5.523825e+01 -1.564990e+01 -4.059933e+01 -2.748613e+01 -4.100965e+01 -2.801039e+01 -3.606619e+01 -2.798725e+01 -3.312264e+01 -2.527991e+01 -2.888388e+01 -2.282967e+01 -2.612982e+01 -2.113267e+01 -2.429184e+01 -1.959524e+01 -2.181821e+01 -1.824739e+01 -1.918451e+01 -1.798062e+01 -1.610377e+01 -1.950933e+01 -1.289469e+01 -1.880693e+01 -9.785881e+00 -1.700414e+01 -5.970338e+00 -1.541387e+01 -4.545120e+00 -1.022842e+01 -4.493492e+00 -3.573263e+00 6.785010e+00 -2.018257e+00 2.425391e+00 -6.412114e-01 1.011229e+00 -1.341676e-01 8.119535e-01 5.001218e-02 9.083473e-01 2.138977e-01 9.653128e-01 6.273748e-01 4.797079e-01 
2.523726e+00 -1.716523e+00 5.498291e+00 -1.726657e+00 -1.049346e+02 1.799755e+00 -1.789686e-02 -1.068314e+00 -1.192981e+00 -5.631434e-01 -1.229500e+00 4.487942e+00 -5.067599e+00 2.256586e+01 -2.499179e+01 4.528760e+01 -1.745033e+01 -4.055741e+01 -7.690628e+01 -5.637117e+01 -3.898266e+01 -3.872247e+01 -4.557422e+01 -4.472037e+01 -5.029721e+01 -4.399117e+01 -5.294221e+01 -4.570699e+01 -5.263489e+01 -4.562376e+01 -5.111911e+01 -4.760537e+01 -4.978161e+01 -5.075295e+01 -4.851633e+01 -5.257821e+01 -4.704477e+01 -5.361266e+01 -4.811017e+01 -5.160471e+01 -5.543615e+01 -4.985676e+01 -5.748471e+01 -4.852556e+01 -5.764614e+01 -4.451360e+01 -6.381183e+01 -5.787406e+01 -5.647868e+01 -1.284725e+02 -2.501739e+01 -3.780955e+01 6.137234e+00 2.596292e+00 4.575949e+00 4.169533e+00 1.487331e+00 2.101302e+00 4.528901e-01 1.247321e+00 3.831642e-01 9.866713e-01 8.224010e-01 3.772387e-01 
2.741975e+00 -1.630473e+00 5.371159e+00 -1.096082e+00 -1.000097e+02 2.006433e+00 -2.253630e-01 -6.173625e-01 -1.738816e+00 -9.162315e-01 -2.147307e+00 1.795116e-01 -3.734320e+00 4.572909e+00 -1.081278e+01 1.273296e+01 -6.642608e+00 -2.199591e+00 -2.054206e+01 -5.576127e+00 -1.295126e+01 -4.960134e+00 -1.224158e+01 -6.372391e+00 -1.363437e+01 -7.750711e+00 -1.520706e+01 -9.346496e+00 -1.611130e+01 -1.082525e+01 -1.629942e+01 -1.304171e+01 -1.615845e+01 -1.543991e+01 -1.598650e+01 -1.746585e+01 -1.577404e+01 -1.914165e+01 -1.653811e+01 -1.962723e+01 -1.972146e+01 -2.053634e+01 -2.101615e+01 -2.157462e+01 -2.134906e+01 -2.217790e+01 -2.277732e+01 -3.033947e+01 -1.841127e+01 -3.930777e+01 -2.025729e+01 -2.979173e+01 -2.080265e+00 -5.557295e+00 2.135495e+00 1.081506e+00 1.357757e+00 1.408451e+00 7.066343e-01 1.119580e+00 6.164410e-01 9.167054e-01 1.040420e+00 2.726165e-01 
2.879216e+00 -1.478182e+00 5.156575e+00 -5.322518e-01 -9.357406e+01 2.051009e+00 -3.818574e-01 -2.655340e-01 -2.107872e+00 -4.991145e-01 -2.740014e+00 -4.978852e-01 -3.147285e+00 -3.648840e+00 -2.190356e+00 -7.522035e+00 2.327691e+00 1.598671e+00 -1.881473e+00 3.746464e+00 -1.543957e+00 6.774282e-01 -9.117755e-01 3.443696e-01 -5.032344e-01 -2.556146e-02 -3.967598e-01 1.029898e-01 -5.094671e-01 4.057424e-01 -5.383065e-01 3.979665e-01 -3.739433e-01 2.773599e-01 -2.868076e-01 -2.129447e-02 -2.087423e-01 -6.152355e-01 -5.789402e-02 -1.608003e+00 -8.169425e-02 -2.367209e+00 -2.432491e-01 -3.036257e+00 1.656931e-02 -3.677249e+00 -2.858008e-01 -6.821173e-01 -1.386802e+00 5.558590e+00 3.326320e-02 -5.312168e-01 -5.429460e-01 -3.428404e+00 5.823943e-01 -6.107785e-01 9.367109e-01 6.850764e-01 7.505515e-01 9.091117e-01 7.293589e-01 8.229732e-01 1.177615e+00 1.884552e-01 
2.933445e+00 -1.388800e+00 4.958697e+00 -3.345129e-01 -8.768979e+01 2.116748e+00 -3.130685e-01 -2.986387e-01 -1.963334e+00 -9.596438e-01 -2.285820e+00 -1.083749e+00 -1.982581e+00 -2.604725e+00 -4.914054e-01 -4.597502e+00 1.809483e+00 3.935055e-01 5.657002e-01 1.079997e+00 -4.758332e-01 -2.906854e-01 -5.135827e-01 -5.209139e-01 -3.798991e-01 -6.156391e-01 -2.942834e-01 -5.126326e-01 -2.375255e-01 -3.517215e-01 -1.134321e-01 -2.100027e-01 6.714068e-02 -2.582069e-02 1.400318e-01 1.530876e-01 1.066579e-01 1.794888e-01 5.947930e-02 -1.017885e-01 2.163682e-02 -4.681659e-01 2.999588e-02 -8.087877e-01 2.817982e-01 -8.054285e-01 2.995008e-01 9.582193e-01 -4.270487e-01 3.212167e+00 -2.361747e-01 1.022400e+00 -5.521705e-01 -1.394350e+00 1.290927e-01 -7.046659e-01 5.932381e-01 2.159236e-01 6.782117e-01 6.077491e-01 7.793121e-01 6.477806e-01 1.266844e+00 7.594872e-02 
2.921458e+00 -1.297986e+00 4.678890e+00 -9.748986e-02 -8.058570e+01 2.071566e+00 -2.858134e-01 -2.220533e-01 -1.827888e+00 -1.097321e+00 -1.939486e+00 -1.550169e+00 -1.277501e+00 -2.255439e+00 -1.714270e-01 -1.813320e+00 9.196474e-01 -8.854222e-01 4.338041e-02 4.823100e-01 -1.404517e-01 6.328637e-02 -3.006750e-01 -2.689908e-01 -2.819730e-01 -3.985997e-01 -2.375570e-01 -3.660889e-01 -2.089320e-01 -2.712300e-01 -1.116446e-01 -1.868321e-01 3.133356e-02 -5.788728e-02 1.012575e-01 7.360669e-02 1.046488e-01 9.776977e-02 9.983721e-02 -5.446437e-02 8.337858e-02 -2.680913e-01 9.451245e-02 -4.247266e-01 1.960666e-01 -1.279323e-01 -3.805621e-02 1.046839e+00 -4.346167e-01 2.049967e+00 -3.838510e-01 6.460542e-01 -1.689657e-01 -5.055879e-01 1.085013e-01 -4.611667e-01 4.291322e-01 6.352071e-02 6.028025e-01 4.294081e-01 7.752116e-01 5.134850e-01 1.295197e+00 -1.901752e-02 
2.825543e+00 -1.234677e+00 4.389682e+00 -6.264329e-02 -7.388767e+01 1.957684e+00 -1.148466e-01 -2.082795e-01 -1.509916e+00 -1.056859e+00 -1.564658e+00 -1.302609e+00 -1.012211e+00 -1.591207e+00 -3.475641e-01 -1.292396e+00 4.493114e-02 -9.066777e-01 -2.504793e-02 -5.978132e-02 -7.398105e-02 -1.195115e-01 -1.952867e-01 -2.839439e-01 -2.036395e-01 -3.452499e-01 -1.813201e-01 -3.127588e-01 -1.465072e-01 -2.276285e-01 -7.763406e-02 -1.425825e-01 9.691567e-03 -5.141016e-02 5.737866e-02 2.510865e-02 6.685228e-02 3.029037e-02 7.071986e-02 -5.301079e-02 7.006628e-02 -1.317815e-01 7.298346e-02 -1.273422e-01 8.200252e-02 1.560243e-01 -9.397119e-02 7.465861e-01 -3.012874e-01 8.560403e-01 -1.324092e-01 7.085843e-01 -1.085203e-02 6.184298e-02 1.237684e-01 -1.328253e-01 3.371705e-01 7.870040e-02 5.211346e-01 3.195727e-01 7.326224e-01 3.856485e-01 1.268896e+00 -1.132894e-01 
2.678462e+00 -1.171051e+00 4.045245e+00 -9.516001e-03 -6.622197e+01 1.824456e+00 -9.587731e-03 -2.034280e-01 -1.274139e+00 -1.053551e+00 -1.302061e+00 -1.204996e+00 -8.430995e-01 -1.206498e+00 -3.804053e-01 -9.660929e-01 -7.914077e-02 -8.235653e-01 -1.981126e-01 -3.274975e-01 -1.067449e-01 -2.135396e-01 -1.372048e-01 -2.406732e-01 -1.440194e-01 -2.561489e-01 -1.353271e-01 -2.307219e-01 -1.152644e-01 -1.799202e-01 -6.639380e-02 -1.242175e-01 -2.930673e-03 -6.107222e-02 4.010021e-02 -7.079651e-03 6.165258e-02 6.272884e-03 7.455173e-02 -2.630697e-02 7.078513e-02 -5.050404e-02 5.047579e-02 -4.006909e-03 8.091689e-03 2.030456e-01 -1.390046e-01 5.373032e-01 -2.509517e-01 6.439267e-01 -9.721198e-02 4.630512e-01 4.679905e-02 1.402516e-01 1.487847e-01 1.816056e-02 2.957383e-01 1.205252e-01 4.565855e-01 2.740431e-01 6.714157e-01 3.063368e-01 1.203411e+00 -1.786801e-01 
2.458197e+00 -1.098194e+00 3.660596e+00 -2.609762e-02 -5.876022e+01 1.621940e+00 1.198837e-01 -1.790885e-01 -9.990682e-01 -9.111279e-01 -1.066549e+00 -9.455319e-01 -7.651363e-01 -8.794077e-01 -4.807962e-01 -7.591673e-01 -3.400026e-01 -6.112505e-01 -2.361881e-01 -4.277215e-01 -1.181254e-01 -3.591493e-01 -1.010127e-01 -2.861054e-01 -8.840113e-02 -2.347334e-01 -8.445537e-02 -1.912227e-01 -6.958499e-02 -1.505864e-01 -3.868213e-02 -1.082793e-01 -3.664437e-03 -6.290914e-02 2.481302e-02 -2.527294e-02 4.352349e-02 -1.244009e-03 5.071991e-02 1.529032e-02 3.691120e-02 4.854109e-02 9.034361e-04 1.076845e-01 -5.355666e-02 1.987520e-01 -1.221920e-01 2.976661e-01 -1.430621e-01 3.191718e-01 -6.284245e-03 2.937737e-01 1.269205e-01 2.124384e-01 1.963533e-01 1.826829e-01 2.734567e-01 2.136628e-01 3.878878e-01 2.686009e-01 5.868690e-01 2.437706e-01 1.095712e+00 -2.268520e-01 
2.201654e+00 -1.023254e+00 3.248550e+00 -5.823166e-02 -5.058899e+01 1.438419e+00 2.158630e-01 -1.759682e-01 -7.782342e-01 -8.322235e-01 -8.672659e-01 -7.654245e-01 -6.644723e-01 -5.939595e-01 -4.645088e-01 -5.629599e-01 -3.719159e-01 -4.852140e-01 -2.701813e-01 -5.453455e-01 -1.353881e-01 -4.262862e-01 -7.741984e-02 -2.601862e-01 -4.906852e-02 -1.702773e-01 -4.753268e-02 -1.281962e-01 -3.861865e-02 -1.101744e-01 -2.000532e-02 -9.007310e-02 -3.869042e-03 -6.161701e-02 1.653587e-02 -3.521316e-02 3.610339e-02 -3.956616e-03 4.086250e-02 4.429099e-02 1.885109e-02 1.087276e-01 -3.285357e-02 1.674679e-01 -1.031942e-01 1.887004e-01 -1.272745e-01 1.583111e-01 -8.849235e-02 1.606551e-01 3.793705e-02 1.319324e-01 1.501948e-01 1.891034e-01 2.055117e-01 2.472407e-01 2.373620e-01 2.609246e-01 3.132947e-01 2.637453e-01 4.894591e-01 2.028153e-01 9.622307e-01 -2.506751e-01 
1.886274e+00 -9.309001e-01 2.784700e+00 -1.172621e-01 -4.245500e+01 1.202245e+00 2.876347e-01 -2.029931e-01 -5.300341e-01 -7.670759e-01 -6.138891e-01 -5.621032e-01 -5.357905e-01 -1.809074e-01 -5.069811e-01 -2.476932e-01 -5.229691e-01 -2.311989e-01 -4.536687e-01 -7.637538e-01 -8.673956e-02 -5.817858e-01 -1.502584e-04 -2.532876e-01 1.929405e-02 -1.126521e-01 -6.277211e-03 -7.090848e-02 -9.880812e-03 -8.705897e-02 -3.495019e-04 -9.052555e-02 -2.470911e-03 -7.064114e-02 8.448499e-03 -5.571125e-02 3.116789e-02 -1.503083e-02 3.870208e-02 8.266462e-02 4.382606e-03 2.063911e-01 -6.573395e-02 2.887577e-01 -1.770069e-01 2.254311e-01 -1.742588e-01 -6.668575e-02 -6.055178e-02 -1.262076e-01 1.065409e-01 -1.501121e-01 3.206714e-01 2.450102e-01 2.763484e-01 4.262581e-01 1.837941e-01 3.531803e-01 2.050539e-01 2.617966e-01 3.656922e-01 1.574235e-01 7.976669e-01 -2.622546e-01 
1.551658e+00 -8.407155e-01 2.311579e+00 -1.938911e-01 -3.386670e+01 9.905779e-01 3.488124e-01 -2.166731e-01 -3.156079e-01 -7.364250e-01 -3.812543e-01 -4.770097e-01 -3.552146e-01 2.056336e-01 -4.970341e-01 3.246361e-01 -6.128968e-01 -2.627415e-01 -5.873078e-01 -1.163686e+00 2.156564e-02 -5.489473e-01 6.037024e-02 -1.643883e-01 5.758243e-02 -2.505922e-02 2.139000e-02 -2.702904e-03 1.904333e-02 -4.567961e-02 2.258269e-02 -7.558726e-02 -2.546559e-03 -6.251946e-02 -3.821136e-03 -6.480041e-02 2.019438e-02 -3.961659e-02 3.204703e-02 9.391885e-02 -4.067350e-03 2.748652e-01 -8.369037e-02 3.873341e-01 -2.366980e-01 3.432950e-01 -2.256223e-01 -1.611546e-01 -2.546571e-02 -6.151425e-01 1.775927e-01 -2.875575e-01 4.096701e-01 3.809838e-01 2.735742e-01 5.500578e-01 9.727417e-02 3.849179e-01 9.189749e-02 2.365509e-01 2.402567e-01 1.158498e-01 6.218252e-01 -2.601369e-01 
1.178173e+00 -7.132775e-01 1.771452e+00 -2.405953e-01 -2.516284e+01 7.565802e-01 3.230443e-01 -2.873024e-01 -1.229427e-01 -9.290374e-01 -1.126710e-02 -8.009565e-01 1.735696e-01 7.121537e-01 -4.204261e-01 1.981542e+00 -8.375363e-01 -3.295683e-01 -1.460945e+00 -2.266224e+00 6.392440e-01 -4.086515e-01 3.091495e-01 8.157395e-02 1.641959e-01 1.765810e-01 6.147628e-02 1.373353e-01 4.361529e-02 5.941014e-04 5.963167e-02 -9.959067e-02 3.462480e-02 -4.131980e-02 1.709377e-02 -5.758065e-02 5.661559e-02 -8.150504e-02 1.212044e-01 1.448211e-01 7.899840e-02 4.397155e-01 2.178198e-02 5.892970e-01 -2.085231e-01 8.552125e-01 -4.633215e-01 -6.298733e-02 -9.174328e-02 -1.953063e+00 1.407128e-01 -8.730291e-01 1.165179e+00 1.222400e+00 2.742500e-01 8.933585e-01 -1.725452e-01 3.448972e-01 -1.095215e-01 1.363258e-01 9.501713e-02 4.451054e-02 4.367509e-01 -2.482114e-01 
8.005723e-01 -5.868785e-01 1.237675e+00 -2.994947e-01 -1.626676e+01 5.331573e-01 3.182301e-01 -2.699991e-01 4.107610e-02 -9.273979e-01 2.100403e-01 -1.160360e+00 6.656057e-01 -6.057593e-01 7.112997e-01 1.135838e+00 -9.896716e-01 -1.053681e+00 1.343361e+00 7.345515e-01 2.326678e+00 1.120934e+00 1.074385e+00 1.231586e+00 1.113071e+00 1.217738e+00 1.153579e+00 1.149583e+00 1.293532e+00 9.921715e-01 1.323746e+00 9.638446e-01 1.237147e+00 1.140747e+00 1.228166e+00 1.238933e+00 1.275981e+00 1.294183e+00 1.381936e+00 1.502679e+00 1.553091e+00 1.838919e+00 1.819842e+00 1.998860e+00 1.793525e+00 2.346935e+00 1.728423e+00 1.648956e+00 1.596803e+00 -4.999208e-01 1.611658e+00 5.468980e-01 1.487785e+00 2.171600e+00 6.299569e-02 9.949746e-01 -4.103741e-01 2.145272e-01 -2.544297e-01 2.538350e-02 -2.371769e-02 -1.965956e-02 2.552640e-01 -2.267850e-01 
4.061103e-01 -3.677036e-01 6.048554e-01 -1.794182e-01 -7.125852e+00 2.973987e-01 1.258836e-01 -9.307852e-02 -7.229343e-02 -8.898154e-01 1.348525e-01 -3.415926e+00 2.417048e+00 -1.007161e+01 6.449773e+00 -8.074000e+00 1.471672e+00 -8.689314e+00 1.843932e+01 3.066945e+01 2.306577e+01 1.636655e+01 1.349805e+01 1.525233e+01 1.718945e+01 1.628021e+01 1.862631e+01 1.706895e+01 1.922131e+01 1.791817e+01 1.804768e+01 1.823790e+01 1.729335e+01 1.783571e+01 1.704390e+01 1.787131e+01 1.680297e+01 1.771302e+01 1.722262e+01 1.686225e+01 1.857388e+01 1.764885e+01 2.108498e+01 1.838010e+01 2.194576e+01 1.876011e+01 2.054601e+01 2.415896e+01 1.637145e+01 3.117928e+01 1.783246e+01 3.346471e+01 6.481002e+00 6.627678e+00 -1.912411e+00 -2.675110e-01 -1.203728e+00 -4.700086e-01 -4.060226e-01 -1.791944e-01 -8.730638e-02 -7.415227e-02 1.035869e-01 -1.701872e-01 
1.392868e-02 -1.675171e-01 1.303041e-02 -1.497831e-01 1.925472e+00 5.569515e-02 4.847729e-02 1.445318e-04 -9.743753e-03 -8.095278e-01 2.461544e-01 -4.170843e+00 3.169924e+00 -1.323626e+01 8.811377e+00 -1.230197e+01 2.578500e+00 -8.463577e+00 3.010463e+01 4.610341e+01 3.005699e+01 2.203580e+01 1.898201e+01 2.286969e+01 2.494002e+01 2.409221e+01 2.685959e+01 2.516572e+01 2.736279e+01 2.582542e+01 2.531060e+01 2.584174e+01 2.378818e+01 2.478241e+01 2.329026e+01 2.444298e+01 2.273827e+01 2.410495e+01 2.272909e+01 2.261137e+01 2.428835e+01 2.319066e+01 2.737531e+01 2.399479e+01 2.795685e+01 2.365445e+01 2.715041e+01 2.828511e+01 2.200570e+01 4.788195e+01 2.181142e+01 4.100743e+01 4.593849e+00 5.175409e+00 -2.811109e+00 -1.212154e+00 -1.333618e+00 -7.861463e-01 -4.058105e-01 -2.779721e-01 -1.338746e-01 -1.096848e-01 -5.266123e-02 -1.129731e-01 
-3.914055e-01 1.242511e-01 -6.634617e-01 1.452415e-02 1.119042e+01 -3.594121e-01 1.235295e-02 1.207788e-01 2.924104e-01 4.256872e-01 1.404361e-01 1.123657e+00 -6.993062e-01 3.205055e+00 -2.300161e+00 3.472287e+00 -8.514830e-01 1.419873e+00 -8.190317e+00 -9.339341e+00 -6.267679e+00 -3.713811e+00 -5.412872e+00 -5.198676e+00 -6.928267e+00 -5.695312e+00 -7.761789e+00 -6.502145e+00 -8.285320e+00 -7.169893e+00 -8.059627e+00 -7.768124e+00 -7.899305e+00 -7.966921e+00 -8.056815e+00 -8.289918e+00 -8.174079e+00 -8.600202e+00 -8.493414e+00 -8.454231e+00 -9.525031e+00 -9.170310e+00 -1.109381e+01 -9.887839e+00 -1.170061e+01 -1.023150e+01 -1.176153e+01 -1.271674e+01 -1.035474e+01 -2.333471e+01 -1.018419e+01 -1.926483e+01 -1.420335e+00 -2.208504e+00 1.330982e+00 5.096162e-01 5.309247e-01 3.148558e-01 7.257703e-02 6.437163e-02 -8.801771e-02 -2.921979e-02 -1.869556e-01 -1.113403e-02 