# vtk DataFile Version 2.0
Comment goes here
ASCII

DATASET STRUCTURED_POINTS
FIELD FieldData 1
TIME 1 1 double
0.07300000
DIMENSIONS    64   64   1

ORIGIN    0.000   0.000   0.000
SPACING   0.03125 0.03125   1.000

POINT_DATA   4096
SCALARS Omega double
LOOKUP_TABLE default

1.449884e-01 1.592383e-01 -5.189844e-01 -2.315139e-01 -5.588497e-01 2.243532e-01 -2.999218e-01 -7.190384e-02 -2.673643e-01 -7.587064e-02 -1.972514e-01 -4.371145e-02 -8.772788e-02 -1.576637e-02 7.137054e-02 -1.913909e-02 2.827327e-01 -7.913703e-02 5.254757e-01 3.533978e-03 7.300785e-01 1.960016e-01 7.484923e-01 2.351034e-01 7.165495e-01 -5.225158e-02 8.528843e-01 2.071670e-02 8.464148e-01 1.839524e-01 7.500048e-01 1.782441e-01 7.062465e-01 1.255226e-01 6.897163e-01 2.156037e-01 6.210101e-01 4.075959e-01 4.979532e-01 5.086340e-01 3.696383e-01 3.847185e-01 3.252605e-01 4.380625e-01 2.458958e-01 5.264314e-01 1.269737e-01 4.640898e-01 -3.857620e-02 3.572164e-01 -1.101203e-01 2.952328e-01 -1.740547e-01 2.013203e-01 -2.062194e-01 1.262996e-01 -2.237939e-01 6.509512e-02 -2.401831e-01 3.644567e-02 -2.796431e-01 2.621943e-02 -2.768554e-01 -1.621508e-01 
-2.292154e+01 -3.517901e+01 -1.921121e+01 -3.570712e+01 -2.018922e+01 -3.565808e+01 -2.256660e+01 -3.472619e+01 -2.797456e+01 -3.369096e+01 -3.253450e+01 -3.125517e+01 -3.722191e+01 -2.793560e+01 -4.211150e+01 -2.410324e+01 -4.723690e+01 -1.958026e+01 -5.312714e+01 -1.385369e+01 -6.042178e+01 -6.997827e+00 -6.816093e+01 4.018709e-02 -7.514511e+01 6.342598e+00 -8.097756e+01 1.098220e+01 -8.547315e+01 1.452378e+01 -8.898753e+01 1.748308e+01 -9.177576e+01 1.975760e+01 -9.387414e+01 2.115567e+01 -9.532623e+01 2.197630e+01 -9.617313e+01 2.226339e+01 -9.604572e+01 2.159273e+01 -9.461464e+01 1.950897e+01 -9.196835e+01 1.649149e+01 -8.820428e+01 1.258846e+01 -8.304095e+01 7.499030e+00 -7.665673e+01 1.183183e+00 -6.879216e+01 -6.284679e+00 -5.967613e+01 -1.469004e+01 -4.952263e+01 -2.364935e+01 -3.897795e+01 -3.227553e+01 -2.861888e+01 -4.029818e+01 -1.666238e+01 -4.837075e+01 
-6.478075e+01 -4.680351e+00 -4.972794e+01 4.946367e+00 -7.978679e+00 6.348326e+00 -6.204582e+01 -8.248604e-01 -7.981092e+01 -1.883362e+00 -9.116800e+01 -2.880524e+00 -9.904362e+01 -4.066228e+00 -1.049289e+02 -5.329290e+00 -1.095671e+02 -6.829365e+00 -1.129189e+02 -9.050541e+00 -1.142421e+02 -1.238746e+01 -1.143902e+02 -1.565519e+01 -1.144628e+02 -1.807564e+01 -1.145489e+02 -1.991130e+01 -1.148155e+02 -2.146780e+01 -1.151036e+02 -2.270976e+01 -1.153093e+02 -2.375976e+01 -1.153994e+02 -2.460022e+01 -1.153666e+02 -2.539332e+01 -1.151326e+02 -2.594563e+01 -1.149438e+02 -2.586844e+01 -1.149659e+02 -2.521734e+01 -1.149720e+02 -2.426990e+01 -1.147826e+02 -2.283461e+01 -1.144310e+02 -2.079238e+01 -1.137671e+02 -1.816762e+01 -1.129674e+02 -1.491679e+01 -1.117191e+02 -1.108717e+01 -1.099139e+02 -6.644327e+00 -1.070162e+02 -1.926041e+00 -1.023040e+02 3.190721e+00 -1.008548e+02 1.287502e+01 
-3.123335e+01 -7.514246e-01 -2.767385e+01 9.243355e+00 -4.086152e+01 5.811060e+00 -2.293912e+01 1.334681e+01 -3.508941e+01 1.118690e+01 -4.212382e+01 8.575684e+00 -4.650988e+01 5.875185e+00 -4.934238e+01 3.212259e+00 -5.125271e+01 5.290079e-01 -5.215723e+01 -2.717261e+00 -5.155356e+01 -6.075097e+00 -5.026550e+01 -9.417052e+00 -4.909992e+01 -1.273404e+01 -4.818542e+01 -1.489364e+01 -4.717741e+01 -1.620926e+01 -4.631144e+01 -1.739000e+01 -4.569644e+01 -1.823868e+01 -4.508874e+01 -1.866253e+01 -4.429445e+01 -1.877985e+01 -4.367913e+01 -1.867646e+01 -4.345365e+01 -1.835100e+01 -4.347671e+01 -1.729121e+01 -4.358228e+01 -1.587829e+01 -4.386051e+01 -1.421029e+01 -4.469243e+01 -1.222650e+01 -4.549655e+01 -9.835431e+00 -4.652436e+01 -7.000867e+00 -4.772177e+01 -3.865320e+00 -4.891592e+01 -4.300850e-01 -4.952116e+01 2.773329e+00 -4.924039e+01 7.378713e+00 -5.210618e+01 1.116572e+01 
-3.981823e+00 2.279084e+00 -3.927096e+00 -8.710819e+00 -6.372068e+01 -3.766394e+00 1.009053e+01 1.389012e+00 2.277330e+00 9.160681e-01 -4.260697e-01 5.000339e-01 -1.466034e+00 2.333431e-01 -1.932691e+00 3.652144e-02 -2.154723e+00 -9.289888e-02 -2.280840e+00 -1.862925e-01 -2.357792e+00 -1.885348e-01 -2.432288e+00 -1.822252e-01 -2.472357e+00 -2.572518e-01 -2.387105e+00 -2.969381e-01 -2.251398e+00 -3.684824e-01 -2.109549e+00 -4.800169e-01 -1.936236e+00 -5.544669e-01 -1.744673e+00 -5.970123e-01 -1.555416e+00 -6.725811e-01 -1.369204e+00 -8.102778e-01 -1.198584e+00 -9.774708e-01 -1.035322e+00 -1.125199e+00 -8.518655e-01 -1.198070e+00 -6.609636e-01 -1.174777e+00 -5.106155e-01 -1.038339e+00 -4.183401e-01 -8.172843e-01 -3.883109e-01 -5.243377e-01 -4.179520e-01 -1.699771e-01 -5.300910e-01 2.584863e-01 -7.660891e-01 7.353957e-01 -1.145990e+00 1.410634e+00 -2.194515e+00 3.357674e+00 
-3.172022e+00 2.516939e+00 -3.609124e+00 -8.428261e+00 -8.425777e+01 -5.288915e+00 8.000811e+00 -1.441924e+00 4.670453e+00 -5.926757e-02 2.308641e+00 3.164947e-02 1.114427e+00 -3.364207e-02 5.363963e-01 -7.522255e-02 2.664340e-01 -8.476832e-02 1.406904e-01 -1.127569e-01 4.628222e-02 -1.747128e-01 2.564820e-02 -1.862799e-01 3.135992e-02 -7.520187e-02 -2.993618e-04 -4.623513e-02 -1.617973e-02 -5.029700e-02 -1.719805e-02 -3.123381e-02 -3.893991e-02 -8.758229e-03 -6.161545e-02 1.390398e-02 -7.214651e-02 2.516840e-02 -7.551784e-02 2.955344e-02 -6.961971e-02 4.941569e-02 -6.833777e-02 6.061223e-02 -5.943727e-02 5.196636e-02 -5.450556e-02 4.791727e-02 -7.983139e-02 8.076907e-02 -1.068617e-01 1.466980e-01 -1.759704e-01 2.633835e-01 -2.875958e-01 4.572317e-01 -4.643661e-01 7.347145e-01 -7.582429e-01 1.144329e+00 -1.279598e+00 1.515341e+00 -2.009458e+00 2.420954e+00 
-3.055118e+00 1.543908e+00 -1.766223e+00 -9.785293e+00 -9.490878e+01 -3.284771e+00 5.959752e+00 -2.022301e+00 4.456398e+00 -5.734025e-01 2.479386e+00 -1.913120e-01 1.248185e+00 -1.287616e-01 6.263848e-01 -1.528153e-01 3.655588e-01 -1.618546e-01 2.624396e-01 -2.326876e-01 1.588973e-01 -2.375263e-01 1.246010e-01 -1.814188e-01 1.252012e-01 -1.036779e-01 1.326097e-01 -4.867781e-02 1.268621e-01 -8.874553e-03 1.018356e-01 2.321075e-02 6.400994e-02 4.439444e-02 2.494536e-02 5.835711e-02 -8.614752e-03 7.687403e-02 -3.444218e-02 1.011742e-01 -5.314465e-02 1.194923e-01 -6.307522e-02 1.180960e-01 -6.273464e-02 1.039485e-01 -5.781501e-02 9.475711e-02 -8.060438e-02 1.215180e-01 -1.792276e-01 2.208366e-01 -2.895827e-01 3.895706e-01 -4.281527e-01 6.057821e-01 -6.451051e-01 8.661001e-01 -9.888302e-01 1.195578e+00 -1.506476e+00 1.584750e+00 -2.264855e+00 2.009729e+00 
-2.871459e+00 1.142452e+00 -1.284865e+00 -8.569035e+00 -1.071966e+02 -2.674396e+00 3.177426e+00 -2.983420e+00 3.408773e+00 -1.282208e+00 2.421552e+00 -4.855806e-01 1.360855e+00 -2.384429e-01 6.938330e-01 -2.307061e-01 3.816423e-01 -2.081033e-01 3.013678e-01 -3.481121e-01 1.550998e-01 -3.681650e-01 1.165027e-01 -2.866433e-01 1.124065e-01 -1.822567e-01 1.060845e-01 -1.065990e-01 9.150897e-02 -6.601184e-02 6.017086e-02 -3.764958e-02 1.605502e-02 -8.687079e-03 -2.394205e-02 2.880970e-02 -5.411755e-02 7.401246e-02 -7.494113e-02 1.199178e-01 -8.248960e-02 1.521194e-01 -7.917348e-02 1.560120e-01 -6.244033e-02 1.393985e-01 -4.297331e-02 1.412485e-01 -5.301343e-02 1.981552e-01 -6.582485e-02 2.894691e-01 -1.764943e-01 4.738272e-01 -3.281779e-01 7.522808e-01 -5.543339e-01 1.078739e+00 -9.058188e-01 1.441937e+00 -1.417243e+00 1.821291e+00 -2.107544e+00 2.240565e+00 
-2.240907e+00 5.764418e-01 3.774154e-01 -8.813017e+00 -1.126538e+02 -1.427019e+00 2.082201e+00 -2.738782e+00 2.298628e+00 -1.561451e+00 1.953147e+00 -6.663070e-01 1.151651e+00 -2.784616e-01 5.801413e-01 -3.157174e-01 3.437085e-01 -3.112833e-01 3.366035e-01 -5.507845e-01 1.667103e-01 -4.954288e-01 1.443348e-01 -3.276692e-01 1.530627e-01 -1.831879e-01 1.657300e-01 -8.829759e-02 1.578219e-01 -3.255405e-02 1.179240e-01 1.596025e-03 5.944222e-02 2.408838e-02 3.927500e-03 5.074486e-02 -4.391739e-02 9.674442e-02 -8.436235e-02 1.558351e-01 -1.072715e-01 1.971167e-01 -1.081047e-01 1.981600e-01 -8.602781e-02 1.590303e-01 -2.893135e-02 9.949217e-02 2.168183e-03 1.036864e-01 -1.490416e-01 2.589486e-01 -2.687919e-01 5.176525e-01 -3.992135e-01 8.102028e-01 -6.205082e-01 1.117885e+00 -9.561038e-01 1.449097e+00 -1.403705e+00 1.796196e+00 -1.942572e+00 2.041019e+00 
-1.763660e+00 2.033845e-01 1.176057e+00 -7.999272e+00 -1.201149e+02 -8.346989e-01 9.893586e-01 -3.009292e+00 1.217022e+00 -2.037136e+00 1.469407e+00 -8.710227e-01 9.553405e-01 -1.942141e-01 4.168139e-01 -2.933797e-01 1.440875e-01 -3.783477e-01 3.442071e-01 -8.434780e-01 1.406154e-01 -6.993624e-01 1.507622e-01 -4.259045e-01 1.646264e-01 -2.335295e-01 1.625648e-01 -1.244317e-01 1.407890e-01 -7.228387e-02 8.121330e-02 -4.444846e-02 8.979476e-03 -2.731794e-02 -4.300985e-02 8.781183e-03 -7.680448e-02 8.900866e-02 -1.030484e-01 1.965449e-01 -1.180026e-01 2.714796e-01 -1.256879e-01 2.736340e-01 -1.161917e-01 1.757356e-01 -6.331725e-02 7.241900e-02 -3.692006e-02 1.390304e-01 4.885512e-02 2.159393e-01 -7.331518e-02 5.282914e-01 -2.340708e-01 9.289028e-01 -4.834229e-01 1.262916e+00 -8.235255e-01 1.561492e+00 -1.231456e+00 1.850818e+00 -1.678931e+00 1.973044e+00 
-1.040299e+00 -2.704787e-01 2.499715e+00 -7.725182e+00 -1.222831e+02 8.702804e-03 6.700540e-01 -2.779660e+00 3.258034e-01 -2.214082e+00 8.384917e-01 -9.168676e-01 5.775991e-01 2.170669e-01 1.490087e-01 5.901724e-02 -1.186419e-01 -7.593578e-01 3.602254e-01 -1.378694e+00 1.662135e-01 -8.384979e-01 2.000001e-01 -4.275033e-01 2.000811e-01 -2.063968e-01 2.177619e-01 -8.679518e-02 2.109950e-01 -2.092244e-02 1.400748e-01 1.032815e-02 4.100129e-02 6.740109e-03 -3.391456e-02 1.036006e-02 -8.518845e-02 7.891823e-02 -1.313917e-01 2.164671e-01 -1.596767e-01 3.391406e-01 -1.739460e-01 3.767929e-01 -1.698776e-01 2.556848e-01 -2.911183e-02 -1.465207e-02 1.547309e-01 -1.776385e-01 -5.457029e-02 1.702821e-01 -1.296639e-01 6.050016e-01 -2.202104e-01 9.856398e-01 -4.629297e-01 1.280969e+00 -7.810665e-01 1.536584e+00 -1.105968e+00 1.779329e+00 -1.374854e+00 1.783105e+00 
-4.951655e-01 -6.522207e-01 3.293497e+00 -7.091079e+00 -1.262523e+02 5.881302e-01 3.868029e-01 -2.936718e+00 -2.747308e-01 -2.788460e+00 4.642339e-01 -1.255245e+00 4.107372e-01 8.766585e-01 -1.472499e-01 1.457877e+00 -1.092603e+00 -1.621902e+00 3.685139e-01 -2.162178e+00 2.192042e-01 -9.810231e-01 2.834014e-01 -4.230095e-01 2.575832e-01 -1.722367e-01 2.361091e-01 -6.784661e-02 2.050750e-01 -3.127931e-02 9.321561e-02 -1.883645e-02 -3.384344e-02 -5.969864e-02 -9.408154e-02 -8.074275e-02 -1.026701e-01 2.800429e-02 -1.037428e-01 2.723018e-01 -1.148133e-01 4.831021e-01 -1.616568e-01 6.087783e-01 -2.672208e-01 3.867702e-01 -2.376772e-01 -2.382261e-01 -7.586759e-02 -2.624891e-01 3.103755e-01 -2.111504e-01 2.994208e-01 6.795340e-01 3.509698e-02 1.224243e+00 -3.611199e-01 1.413026e+00 -6.965544e-01 1.560463e+00 -9.481509e-01 1.727961e+00 -1.092614e+00 1.614320e+00 
1.873566e-01 -1.088733e+00 4.262046e+00 -6.553163e+00 -1.259351e+02 1.178278e+00 3.430403e-01 -2.900537e+00 -8.297064e-01 -3.366414e+00 -9.604020e-02 -2.112610e+00 2.051235e-01 9.129349e-01 1.938750e-01 4.334590e+00 -3.080466e+00 -3.436828e+00 9.630253e-01 -2.416616e+00 6.203486e-01 -2.315984e-01 3.452447e-01 -1.039756e-01 2.421636e-01 8.476875e-04 2.941258e-01 3.293254e-02 3.207095e-01 9.023354e-02 1.763217e-01 1.153621e-01 -1.504051e-02 3.097635e-04 -1.146362e-01 -1.154307e-01 -1.371191e-01 -6.512341e-02 -1.505473e-01 2.250925e-01 -1.504571e-01 5.803545e-01 -2.013335e-01 8.894050e-01 -4.048772e-01 7.454938e-01 -2.492447e-01 -2.965409e-01 2.422362e-01 -1.617013e+00 3.464728e-01 -2.137475e-02 2.543012e-01 8.430000e-01 1.260973e-01 1.363871e+00 -3.306818e-01 1.458683e+00 -6.660957e-01 1.517509e+00 -8.181732e-01 1.627982e+00 -7.808640e-01 1.403799e+00 
7.238924e-01 -1.451565e+00 4.874358e+00 -5.872486e+00 -1.269741e+02 1.697399e+00 2.508322e-01 -2.910888e+00 -1.137157e+00 -4.332898e+00 -1.932139e-01 -4.237785e+00 7.461553e-01 -2.477246e+00 2.264688e+00 2.768324e+00 -6.756068e+00 6.985645e-01 4.828389e+00 1.534674e+00 1.787612e+00 3.030919e+00 8.482828e-01 2.025128e+00 6.601707e-01 1.614274e+00 5.742731e-01 1.037268e+00 5.451540e-01 6.025567e-01 3.298034e-01 3.704958e-01 7.762162e-02 7.228906e-02 -1.009970e-02 -1.665777e-01 2.729410e-02 -1.336653e-01 1.079640e-01 3.523132e-01 1.245607e-01 7.627245e-01 1.024499e-01 1.336006e+00 -3.542942e-01 1.968856e+00 -1.198654e+00 5.581280e-01 -8.763292e-01 -2.008925e+00 1.315527e+00 3.904989e-01 1.823613e+00 2.212575e+00 2.363166e-01 1.817674e+00 -6.054511e-01 1.421690e+00 -7.632661e-01 1.399625e+00 -7.133472e-01 1.498532e+00 -5.075224e-01 1.184789e+00 
1.333757e+00 -1.840931e+00 5.472195e+00 -5.045427e+00 -1.246137e+02 2.004209e+00 2.494880e-01 -2.533653e+00 -1.411871e+00 -4.422119e+00 -9.833681e-01 -6.384721e+00 -1.471162e-01 -1.412302e+01 8.557109e+00 -2.195409e+01 -3.489801e+00 2.217780e+01 3.157427e+01 3.369148e+01 7.700991e+00 1.656756e+01 7.409531e+00 1.509924e+01 7.327342e+00 1.275758e+01 6.715634e+00 1.004908e+01 6.197363e+00 7.460530e+00 5.593024e+00 5.927314e+00 5.061631e+00 4.700046e+00 4.531161e+00 3.898280e+00 3.919968e+00 3.556847e+00 3.319964e+00 3.446601e+00 3.261032e+00 2.697651e+00 3.216093e+00 1.954935e+00 2.665193e+00 8.483171e-01 3.569633e+00 -5.999295e+00 5.574679e+00 -1.148224e+01 -3.065994e+00 -9.946831e+00 -1.612608e-01 2.140101e+00 3.407456e-01 2.465456e+00 -7.906235e-01 1.413477e+00 -8.430246e-01 1.240272e+00 -6.006090e-01 1.335248e+00 -2.068245e-01 9.338565e-01 
1.841731e+00 -2.065467e+00 5.752443e+00 -3.981058e+00 -1.230706e+02 2.347840e+00 -3.653330e-02 -1.733615e+00 -2.017257e+00 -4.008636e+00 -1.455497e+00 -9.405359e+00 3.434610e+00 -2.936781e+01 2.272364e+01 -5.110886e+01 1.710551e+01 4.823457e+01 8.400482e+01 7.467811e+01 3.097172e+01 3.890052e+01 4.201000e+01 4.716262e+01 4.558738e+01 4.510350e+01 4.524842e+01 4.399724e+01 4.352773e+01 4.242597e+01 4.158621e+01 4.302932e+01 4.059945e+01 4.307561e+01 3.885517e+01 4.229337e+01 3.700325e+01 4.055577e+01 3.783019e+01 3.686447e+01 4.218884e+01 3.605862e+01 4.215239e+01 3.361381e+01 4.142369e+01 2.965541e+01 3.970741e+01 3.846057e+01 2.974675e+01 3.887302e+01 2.676066e+01 3.103765e+01 5.313179e+00 7.450179e+00 -2.515242e+00 8.600284e-01 -1.978195e+00 6.432137e-01 -9.501045e-01 1.010142e+00 -4.114257e-01 1.199712e+00 1.081718e-01 7.049602e-01 
2.350955e+00 -2.221098e+00 5.970051e+00 -3.061429e+00 -1.190023e+02 2.296602e+00 8.081912e-02 -1.424696e+00 -1.435592e+00 -3.029771e+00 4.655176e-01 -5.949088e+00 6.194140e+00 -1.422270e+01 1.727977e+01 -2.909611e+01 2.206083e+01 1.853700e+01 4.736315e+01 1.512426e+01 3.068535e+01 1.672051e+01 4.196892e+01 2.887510e+01 4.597668e+01 3.210347e+01 4.902906e+01 3.661812e+01 4.930697e+01 3.969210e+01 4.910941e+01 4.477218e+01 4.945328e+01 4.931450e+01 4.866226e+01 5.204420e+01 4.751510e+01 5.365935e+01 4.884277e+01 5.289347e+01 5.590309e+01 5.384153e+01 5.780882e+01 5.420892e+01 5.800510e+01 5.124972e+01 6.556108e+01 6.453570e+01 6.118912e+01 1.535644e+02 3.052285e+01 5.542856e+01 -8.523582e+00 1.866946e+00 -7.205529e+00 -2.867584e+00 -2.771450e+00 -6.818843e-01 -8.153851e-01 6.184674e-01 -1.464486e-01 1.033975e+00 4.417560e-01 4.858920e-01 
2.750256e+00 -2.215078e+00 5.957094e+00 -2.161840e+00 -1.155048e+02 2.143404e+00 3.514700e-01 -1.019217e+00 -8.333708e-01 -5.324584e-01 1.569444e-02 4.543414e+00 -1.262160e+00 1.923644e+01 -1.327918e+01 3.658862e+01 -1.577257e+01 -6.109258e+01 -6.621827e+01 -6.532543e+01 -1.464543e+01 -4.124888e+01 -3.170280e+01 -4.570416e+01 -3.181765e+01 -4.073045e+01 -3.057354e+01 -3.700039e+01 -2.752948e+01 -3.259431e+01 -2.524146e+01 -2.995662e+01 -2.389839e+01 -2.722094e+01 -2.207066e+01 -2.394824e+01 -2.040070e+01 -2.056265e+01 -2.001877e+01 -1.700319e+01 -2.126427e+01 -1.385763e+01 -2.001153e+01 -1.030380e+01 -1.788006e+01 -5.841312e+00 -1.583418e+01 -3.536434e+00 -1.005591e+01 -1.966983e+00 -3.082925e+00 9.639728e+00 -2.586989e+00 2.879452e+00 -9.593274e-01 9.838734e-01 -2.376091e-01 7.977957e-01 3.198374e-02 9.607659e-01 2.346903e-01 1.013454e+00 7.716097e-01 3.018253e-01 
3.063726e+00 -2.085313e+00 5.867090e+00 -1.392067e+00 -1.098511e+02 2.118092e+00 3.162044e-01 -9.746118e-01 -1.156658e+00 -5.699816e-01 -1.513913e+00 5.668581e+00 -6.791843e+00 2.693326e+01 -2.750815e+01 4.352762e+01 -1.256779e+01 -2.914955e+01 -8.027273e+01 -6.282112e+01 -4.165552e+01 -3.706797e+01 -4.875702e+01 -4.617455e+01 -5.405332e+01 -4.657536e+01 -5.549258e+01 -4.815828e+01 -5.514768e+01 -4.898321e+01 -5.416308e+01 -5.225866e+01 -5.395351e+01 -5.490135e+01 -5.273204e+01 -5.618879e+01 -5.112984e+01 -5.636945e+01 -5.252632e+01 -5.369299e+01 -5.960534e+01 -5.341949e+01 -6.081923e+01 -5.194746e+01 -6.099043e+01 -4.675987e+01 -6.770941e+01 -6.136880e+01 -5.960666e+01 -1.387174e+02 -2.987627e+01 -4.773129e+01 6.461501e+00 2.584074e+00 5.457767e+00 5.264300e+00 1.883470e+00 2.639368e+00 5.468111e-01 1.456884e+00 4.316161e-01 1.054079e+00 1.005555e+00 1.809700e-01 
3.306279e+00 -1.926368e+00 5.697042e+00 -6.701605e-01 -1.047141e+02 2.366858e+00 2.093424e-02 -4.111333e-01 -1.826793e+00 -9.915267e-01 -2.503628e+00 1.374836e-01 -4.504786e+00 5.068243e+00 -1.173922e+01 1.131294e+01 -5.966683e+00 3.293915e-01 -2.128632e+01 -4.966680e+00 -1.363179e+01 -4.492178e+00 -1.258319e+01 -5.671775e+00 -1.399734e+01 -7.242460e+00 -1.545833e+01 -9.006299e+00 -1.644482e+01 -1.100775e+01 -1.679651e+01 -1.384851e+01 -1.703772e+01 -1.633554e+01 -1.700478e+01 -1.841064e+01 -1.685948e+01 -1.999731e+01 -1.787351e+01 -2.037358e+01 -2.105702e+01 -2.198004e+01 -2.218375e+01 -2.327313e+01 -2.266817e+01 -2.393687e+01 -2.371924e+01 -3.286488e+01 -1.941752e+01 -4.177456e+01 -2.352770e+01 -3.618656e+01 -3.405764e+00 -7.703024e+00 2.302499e+00 1.217843e+00 1.669463e+00 1.759668e+00 8.577784e-01 1.325409e+00 7.192426e-01 9.856108e-01 1.272538e+00 6.944405e-02 
3.455225e+00 -1.685135e+00 5.442359e+00 -5.413754e-02 -9.794633e+01 2.436237e+00 -1.845209e-01 1.277877e-02 -2.281082e+00 -4.632165e-01 -3.185426e+00 -7.037118e-01 -3.580663e+00 -4.541869e+00 -2.255040e+00 -8.299543e+00 2.211174e+00 1.023662e+00 -1.841256e+00 4.473600e+00 -1.734685e+00 5.527246e-01 -1.002361e+00 1.809665e-01 -5.476622e-01 -2.419766e-02 -4.370357e-01 2.156128e-01 -5.632464e-01 4.970471e-01 -5.258885e-01 4.194094e-01 -3.650983e-01 3.020710e-01 -2.770295e-01 -2.655357e-02 -1.661682e-01 -7.649504e-01 9.237714e-03 -1.901510e+00 -6.385570e-02 -2.528763e+00 -2.326013e-01 -3.327436e+00 -3.153196e-03 -4.039222e+00 -5.401126e-01 -6.628634e-01 -1.385030e+00 5.413992e+00 1.538612e-01 1.088447e-01 -5.773947e-01 -4.150509e+00 5.072785e-01 -9.122156e-01 1.073589e+00 7.865319e-01 8.876752e-01 1.058749e+00 8.565443e-01 8.799431e-01 1.445170e+00 -1.352620e-02 
3.505253e+00 -1.542889e+00 5.225781e+00 1.263921e-01 -9.182881e+01 2.506427e+00 -1.207478e-01 -7.517209e-02 -2.092947e+00 -1.055915e+00 -2.610182e+00 -1.359799e+00 -2.219222e+00 -3.129311e+00 -4.931851e-01 -4.840638e+00 1.689486e+00 4.869312e-02 7.494648e-01 1.473329e+00 -4.717246e-01 -2.968492e-01 -5.890955e-01 -6.447367e-01 -4.323163e-01 -7.072140e-01 -3.408662e-01 -5.651815e-01 -2.736668e-01 -4.047876e-01 -1.118590e-01 -2.652592e-01 6.540819e-02 -3.937375e-02 1.280342e-01 1.736744e-01 1.043097e-01 1.724475e-01 7.024900e-02 -1.769306e-01 4.141561e-02 -5.121406e-01 5.500566e-02 -9.038197e-01 2.960956e-01 -8.752384e-01 2.899371e-01 1.215437e+00 -4.656737e-01 3.232082e+00 -1.211811e-01 1.529398e+00 -6.226869e-01 -1.576095e+00 3.254525e-03 -9.706505e-01 6.296428e-01 1.754115e-01 7.787913e-01 6.680010e-01 9.118073e-01 6.640170e-01 1.553796e+00 -1.327123e-01 
3.482318e+00 -1.405926e+00 4.920566e+00 3.552678e-01 -8.438404e+01 2.456487e+00 -1.082122e-01 4.181017e-03 -1.929478e+00 -1.225717e+00 -2.182929e+00 -1.887382e+00 -1.427035e+00 -2.592241e+00 -2.726528e-01 -1.930214e+00 9.664056e-01 -1.153059e+00 4.125603e-02 5.718344e-01 -1.304284e-01 1.099939e-01 -3.170562e-01 -3.060484e-01 -3.198192e-01 -4.414166e-01 -2.795674e-01 -3.965740e-01 -2.445646e-01 -3.112791e-01 -1.178450e-01 -2.295059e-01 2.522423e-02 -7.630165e-02 9.273471e-02 7.448152e-02 1.095817e-01 8.577987e-02 1.203211e-01 -9.290711e-02 1.013996e-01 -2.969315e-01 1.197296e-01 -4.616831e-01 1.977881e-01 -1.082652e-01 -8.836700e-02 1.188240e+00 -4.012968e-01 2.289141e+00 -4.437866e-01 7.930932e-01 -1.914658e-01 -5.643888e-01 6.636603e-02 -6.157690e-01 4.500467e-01 -3.959182e-03 6.817635e-01 4.422337e-01 9.060189e-01 4.983323e-01 1.592959e+00 -2.334721e-01 
3.358208e+00 -1.322123e+00 4.617423e+00 3.414381e-01 -7.741547e+01 2.307292e+00 7.617774e-02 -7.093978e-03 -1.557780e+00 -1.162957e+00 -1.749318e+00 -1.547426e+00 -1.142007e+00 -1.825626e+00 -4.534415e-01 -1.418783e+00 8.072395e-03 -1.094010e+00 -7.590520e-02 -8.159944e-02 -6.101456e-02 -1.193600e-01 -2.065125e-01 -3.225184e-01 -2.302382e-01 -3.897094e-01 -2.098705e-01 -3.487200e-01 -1.681993e-01 -2.606663e-01 -8.396111e-02 -1.713577e-01 4.767111e-03 -6.614829e-02 5.155813e-02 1.881920e-02 6.909852e-02 1.524772e-02 8.330212e-02 -7.855600e-02 8.441973e-02 -1.423292e-01 8.810420e-02 -1.186496e-01 7.448301e-02 2.166407e-01 -1.319360e-01 8.301751e-01 -2.929069e-01 9.001377e-01 -1.444789e-01 8.265323e-01 -3.634155e-03 1.081694e-01 1.078254e-01 -1.881664e-01 3.483048e-01 2.853732e-02 5.793385e-01 3.083770e-01 8.507337e-01 3.435526e-01 1.558474e+00 -3.333823e-01 
3.180012e+00 -1.242922e+00 4.253149e+00 3.558694e-01 -6.939138e+01 2.144737e+00 1.767904e-01 -2.111684e-02 -1.290864e+00 -1.156066e+00 -1.452986e+00 -1.409483e+00 -9.715592e-01 -1.378369e+00 -4.848458e-01 -1.088609e+00 -9.816020e-02 -9.604530e-01 -2.638764e-01 -3.985033e-01 -1.226248e-01 -2.477670e-01 -1.476649e-01 -2.723279e-01 -1.626926e-01 -2.843664e-01 -1.570803e-01 -2.558583e-01 -1.328081e-01 -2.058298e-01 -7.378807e-02 -1.479917e-01 -7.919772e-03 -7.694487e-02 3.774096e-02 -1.739055e-02 6.727058e-02 -6.106909e-03 8.715473e-02 -3.958956e-02 8.115484e-02 -5.109439e-02 5.764190e-02 1.190012e-02 -2.029897e-03 2.456076e-01 -1.693717e-01 6.022888e-01 -2.549139e-01 7.135078e-01 -1.190170e-01 5.271821e-01 5.017300e-02 1.631330e-01 1.526370e-01 -6.770225e-03 3.164270e-01 9.123792e-02 5.099141e-01 2.604169e-01 7.814395e-01 2.523881e-01 1.482918e+00 -3.990084e-01 
2.912709e+00 -1.164350e+00 3.849779e+00 2.865838e-01 -6.160337e+01 1.896444e+00 3.037149e-01 -1.522870e-02 -9.883068e-01 -9.792794e-01 -1.190383e+00 -1.094099e+00 -8.821309e-01 -1.019774e+00 -5.715760e-01 -8.597511e-01 -3.973926e-01 -7.157065e-01 -3.051398e-01 -4.832615e-01 -1.387566e-01 -4.203448e-01 -1.190665e-01 -3.330729e-01 -1.025703e-01 -2.675222e-01 -9.622896e-02 -2.177017e-01 -7.709991e-02 -1.740709e-01 -4.179863e-02 -1.269887e-01 -5.491139e-03 -7.664730e-02 2.594719e-02 -3.490160e-02 4.891983e-02 -7.576253e-03 5.702544e-02 1.570047e-02 3.816008e-02 6.324275e-02 -1.740487e-03 1.317565e-01 -6.469499e-02 2.271942e-01 -1.393673e-01 3.285107e-01 -1.529090e-01 3.438627e-01 -2.326529e-02 3.331885e-01 1.407098e-01 2.343241e-01 2.177320e-01 1.898563e-01 3.025722e-01 2.151482e-01 4.340932e-01 2.647696e-01 6.809080e-01 1.865773e-01 1.349338e+00 -4.404872e-01 
2.608236e+00 -1.085732e+00 3.416843e+00 2.048157e-01 -5.304512e+01 1.674237e+00 3.887917e-01 -3.360480e-02 -7.504989e-01 -8.845915e-01 -9.712854e-01 -8.724155e-01 -7.732159e-01 -7.000517e-01 -5.382064e-01 -6.458591e-01 -4.211678e-01 -5.550866e-01 -3.406491e-01 -6.159866e-01 -1.652619e-01 -5.138966e-01 -1.002522e-01 -3.060220e-01 -5.922012e-02 -1.922110e-01 -5.344962e-02 -1.460556e-01 -4.088449e-02 -1.284186e-01 -2.126319e-02 -1.048444e-01 -4.760194e-03 -7.377542e-02 1.987624e-02 -4.409293e-02 4.273465e-02 -5.898771e-03 4.473109e-02 5.364864e-02 1.464212e-02 1.317976e-01 -4.109800e-02 1.930082e-01 -1.148850e-01 2.039067e-01 -1.379110e-01 1.758739e-01 -1.091538e-01 1.826483e-01 2.580571e-02 1.481835e-01 1.635071e-01 1.913604e-01 2.340819e-01 2.620839e-01 2.718250e-01 2.793905e-01 3.544927e-01 2.691022e-01 5.697930e-01 1.480354e-01 1.189802e+00 -4.529301e-01 
2.231032e+00 -9.942687e-01 2.929649e+00 8.525250e-02 -4.453013e+01 1.392522e+00 4.475996e-01 -9.557761e-02 -4.838410e-01 -8.076830e-01 -6.898249e-01 -6.159883e-01 -6.366386e-01 -2.417771e-01 -5.658311e-01 -3.091177e-01 -5.540409e-01 -2.338043e-01 -5.669140e-01 -8.338816e-01 -1.272220e-01 -7.246246e-01 -1.931550e-02 -3.001531e-01 1.762046e-02 -1.249926e-01 -3.952380e-03 -8.614961e-02 -4.396459e-03 -1.067755e-01 2.943642e-03 -1.024398e-01 -1.008902e-03 -8.228413e-02 1.592165e-02 -6.576922e-02 4.157842e-02 -1.247633e-02 4.011578e-02 1.048771e-01 -8.852857e-03 2.482524e-01 -8.203481e-02 3.276599e-01 -1.939299e-01 2.180827e-01 -1.727390e-01 -7.783512e-02 -8.201979e-02 -1.182387e-01 6.362372e-02 -1.753098e-01 3.531932e-01 2.196590e-01 3.390035e-01 4.771662e-01 2.287205e-01 4.070527e-01 2.329814e-01 2.802178e-01 4.219631e-01 1.067093e-01 9.856028e-01 -4.476709e-01 
1.835804e+00 -9.068611e-01 2.432483e+00 -4.778607e-02 -3.552574e+01 1.139592e+00 4.900363e-01 -1.412263e-01 -2.574653e-01 -7.822993e-01 -4.261161e-01 -5.046528e-01 -4.358322e-01 2.229534e-01 -5.640284e-01 2.684585e-01 -5.834094e-01 -1.227623e-01 -7.774307e-01 -1.386616e+00 -2.280577e-03 -7.146831e-01 5.495255e-02 -1.775971e-01 6.156183e-02 -1.626105e-02 2.748687e-02 -9.464487e-03 2.986027e-02 -6.385689e-02 2.807769e-02 -8.383267e-02 -1.561010e-03 -7.062742e-02 4.757914e-03 -7.582234e-02 3.212591e-02 -3.864142e-02 3.241360e-02 1.234653e-01 -2.244046e-02 3.295455e-01 -1.022104e-01 4.440559e-01 -2.583885e-01 3.456647e-01 -2.194546e-01 -2.047021e-01 -5.648362e-02 -6.305829e-01 1.287316e-01 -3.721774e-01 4.583579e-01 3.657153e-01 3.529869e-01 6.372044e-01 1.391706e-01 4.588327e-01 1.033822e-01 2.592726e-01 2.743418e-01 6.873313e-02 7.716406e-01 -4.268660e-01 
1.390996e+00 -7.772671e-01 1.861802e+00 -1.538229e-01 -2.638832e+01 8.703700e-01 4.334725e-01 -2.684826e-01 -5.216637e-02 -1.041365e+00 1.397924e-02 -8.500995e-01 1.282795e-01 8.958341e-01 -5.754892e-01 1.859746e+00 -5.102156e-01 1.767230e-01 -1.968493e+00 -2.774377e+00 6.369170e-01 -6.688344e-01 3.943662e-01 1.758398e-01 1.773300e-01 2.289725e-01 7.326753e-02 1.391131e-01 5.739421e-02 -3.272451e-02 7.371171e-02 -1.037897e-01 3.753296e-02 -4.344452e-02 3.104323e-02 -7.546846e-02 8.431545e-02 -8.716392e-02 1.321925e-01 1.904933e-01 5.945703e-02 5.201987e-01 2.156318e-02 6.904706e-01 -2.423974e-01 8.977328e-01 -4.635102e-01 -2.080892e-01 -1.457799e-02 -1.855299e+00 -1.307305e-01 -1.279582e+00 1.334863e+00 1.296494e+00 4.664504e-01 1.130673e+00 -1.612777e-01 4.352113e-01 -1.461593e-01 1.396382e-01 9.478238e-02 -8.100733e-03 5.407886e-01 -3.911417e-01 
9.448755e-01 -6.483468e-01 1.297798e+00 -2.642378e-01 -1.705028e+01 6.088503e-01 3.953175e-01 -2.774153e-01 1.068369e-01 -1.061464e+00 2.756716e-01 -1.336627e+00 7.610163e-01 -6.270840e-01 5.213708e-01 1.225952e+00 -4.965507e-01 -1.432232e+00 6.524893e-01 7.133277e-01 2.820391e+00 1.140104e+00 1.162375e+00 1.421507e+00 1.179626e+00 1.317311e+00 1.235263e+00 1.168301e+00 1.380534e+00 9.927727e-01 1.396080e+00 1.030069e+00 1.309661e+00 1.234558e+00 1.315972e+00 1.324204e+00 1.380873e+00 1.378471e+00 1.500118e+00 1.618587e+00 1.675070e+00 1.980638e+00 2.018315e+00 2.165342e+00 1.993085e+00 2.481758e+00 1.970158e+00 1.755978e+00 1.708928e+00 -2.530019e-01 1.571365e+00 3.473967e-01 1.863452e+00 2.521963e+00 2.667875e-01 1.324486e+00 -4.491315e-01 2.803707e-01 -3.269178e-01 2.393512e-03 -4.751969e-02 -7.533166e-02 3.184154e-01 -3.431682e-01 
4.742093e-01 -4.004245e-01 6.198255e-01 -1.642285e-01 -7.426171e+00 3.541053e-01 1.266167e-01 -8.677433e-02 -7.988698e-02 -1.098392e+00 2.809695e-01 -4.361028e+00 3.085291e+00 -1.115938e+01 5.919783e+00 -7.207049e+00 2.916107e+00 -1.335076e+01 1.460775e+01 3.022443e+01 2.690369e+01 1.936027e+01 1.347262e+01 1.497064e+01 1.845220e+01 1.709812e+01 2.007327e+01 1.812829e+01 2.017881e+01 1.915043e+01 1.911183e+01 1.949923e+01 1.868489e+01 1.960819e+01 1.831665e+01 1.954999e+01 1.807470e+01 1.894604e+01 1.858930e+01 1.782442e+01 2.002730e+01 1.829427e+01 2.283688e+01 1.937901e+01 2.358360e+01 2.037025e+01 2.165550e+01 2.632818e+01 1.731337e+01 3.197024e+01 1.767117e+01 3.854896e+01 1.026973e+01 1.003292e+01 -1.888483e+00 -1.081909e-01 -1.531097e+00 -6.562949e-01 -5.467374e-01 -2.755811e-01 -1.229072e-01 -1.283495e-01 1.317758e-01 -2.428588e-01 
7.693105e-03 -1.773126e-01 -9.955835e-03 -1.714208e-01 2.081748e+00 7.349539e-02 2.859325e-03 -1.144281e-02 -4.376591e-02 -1.049850e+00 4.403827e-01 -5.398874e+00 4.100389e+00 -1.482470e+01 8.343473e+00 -1.109908e+01 3.724251e+00 -1.521710e+01 2.598513e+01 4.703140e+01 3.543484e+01 2.572287e+01 1.835491e+01 2.241749e+01 2.713783e+01 2.556328e+01 2.917017e+01 2.699917e+01 2.890149e+01 2.780297e+01 2.689242e+01 2.782919e+01 2.578961e+01 2.739366e+01 2.510538e+01 2.684922e+01 2.446754e+01 2.588936e+01 2.451817e+01 2.389363e+01 2.617915e+01 2.403938e+01 2.950334e+01 2.527898e+01 2.986494e+01 2.533002e+01 2.877184e+01 3.095304e+01 2.230250e+01 4.875260e+01 2.254051e+01 4.824933e+01 8.423149e+00 8.472333e+00 -3.107438e+00 -1.368101e+00 -1.729959e+00 -1.078096e+00 -5.423651e-01 -3.916594e-01 -1.692784e-01 -1.500769e-01 -5.878807e-02 -1.407311e-01 
-4.825801e-01 1.563918e-01 -7.315985e-01 -5.074575e-02 1.183317e+01 -4.239352e-01 -3.962859e-02 6.395995e-02 2.905889e-01 4.848761e-01 1.304644e-01 1.357412e+00 -8.548923e-01 3.451261e+00 -2.151656e+00 3.003652e+00 -9.527780e-01 3.066359e+00 -7.355999e+00 -9.496398e+00 -6.929924e+00 -3.614397e+00 -5.093768e+00 -4.882824e+00 -7.277290e+00 -5.679177e+00 -8.129735e+00 -6.602104e+00 -8.533579e+00 -7.435382e+00 -8.402897e+00 -8.150482e+00 -8.463146e+00 -8.620830e+00 -8.584478e+00 -8.979944e+00 -8.714893e+00 -9.151334e+00 -9.130016e+00 -8.879922e+00 -1.027473e+01 -9.517960e+00 -1.204761e+01 -1.043246e+01 -1.264745e+01 -1.103051e+01 -1.266903e+01 -1.403640e+01 -1.055173e+01 -2.428889e+01 -1.099639e+01 -2.361423e+01 -3.178589e+00 -3.631521e+00 1.585787e+00 6.088661e-01 7.256527e-01 4.620195e-01 1.241145e-01 1.204888e-01 -9.357607e-02 -8.309484e-03 -2.269574e-01 2.474567e-02 