# vtk DataFile Version 2.0
Comment goes here
ASCII

DATASET STRUCTURED_POINTS
FIELD FieldData 1
TIME 1 1 double
0.01900000
DIMENSIONS    64   64   1

ORIGIN    0.000   0.000   0.000
SPACING   0.03125 0.03125   1.000

POINT_DATA   4096
SCALARS Omega double
LOOKUP_TABLE default

1.071152e-01 -6.327022e-02 -1.160268e-01 -1.523386e-01 -1.640137e-02 -1.995064e-02 -1.647803e-01 -2.771116e-02 -8.339167e-03 1.656088e-02 2.573346e-02 5.615394e-02 6.968843e-02 1.184310e-01 1.066784e-01 1.829771e-01 1.472204e-01 2.617587e-01 1.518321e-01 3.473260e-01 1.515517e-01 4.011772e-01 1.615811e-01 4.286700e-01 1.845819e-01 4.225113e-01 2.333782e-01 3.725992e-01 3.026571e-01 3.017377e-01 3.726713e-01 2.499267e-01 4.086003e-01 2.418260e-01 3.828063e-01 2.917480e-01 3.153616e-01 3.450894e-01 2.700973e-01 3.389325e-01 2.819309e-01 2.914834e-01 3.072056e-01 2.246798e-01 3.006341e-01 1.878823e-01 2.573616e-01 1.540904e-01 1.940637e-01 1.236111e-01 1.141548e-01 9.297080e-02 5.702402e-02 2.396156e-02 3.681674e-02 -4.275926e-02 2.829669e-02 -9.352754e-02 2.705811e-02 -1.248779e-01 1.787110e-02 -1.370820e-01 7.175435e-03 -1.388348e-01 
-1.630478e+01 -1.673610e+01 -1.261536e+01 -1.412417e+01 -1.304269e+01 -1.334944e+01 -1.363110e+01 -1.362584e+01 -1.569103e+01 -1.467022e+01 -1.789198e+01 -1.548062e+01 -1.927711e+01 -1.624880e+01 -2.005417e+01 -1.718633e+01 -2.023104e+01 -1.835115e+01 -1.995649e+01 -1.958200e+01 -1.957400e+01 -2.050099e+01 -1.941053e+01 -2.107824e+01 -1.936969e+01 -2.136093e+01 -1.954943e+01 -2.134359e+01 -1.988565e+01 -2.104957e+01 -2.047707e+01 -2.049927e+01 -2.105932e+01 -2.015661e+01 -2.102743e+01 -2.057290e+01 -2.041848e+01 -2.110769e+01 -1.996422e+01 -2.116270e+01 -2.003147e+01 -2.065801e+01 -2.054640e+01 -1.988631e+01 -2.079653e+01 -1.960529e+01 -2.052419e+01 -1.941415e+01 -2.037377e+01 -1.894261e+01 -2.024409e+01 -1.861334e+01 -1.973508e+01 -1.844535e+01 -1.919201e+01 -1.823371e+01 -1.847175e+01 -1.814720e+01 -1.751299e+01 -1.798248e+01 -1.649857e+01 -1.763089e+01 -1.521855e+01 -1.605237e+01 
-1.774184e+01 -1.241380e+01 -1.583237e+01 2.812916e+00 2.135922e+00 2.548562e+00 2.190041e+00 -1.272457e+01 -1.316802e+01 -2.039572e+01 -2.004215e+01 -2.574053e+01 -2.493842e+01 -2.974918e+01 -2.869520e+01 -3.271646e+01 -3.179709e+01 -3.488446e+01 -3.439399e+01 -3.644073e+01 -3.649974e+01 -3.770327e+01 -3.800017e+01 -3.876394e+01 -3.916968e+01 -3.955226e+01 -4.003338e+01 -4.018337e+01 -4.065588e+01 -4.074710e+01 -4.089720e+01 -4.140367e+01 -4.083501e+01 -4.191127e+01 -4.100621e+01 -4.175730e+01 -4.143474e+01 -4.137838e+01 -4.165786e+01 -4.113672e+01 -4.147468e+01 -4.102835e+01 -4.084242e+01 -4.092098e+01 -4.027108e+01 -4.017241e+01 -3.987038e+01 -3.921524e+01 -3.900474e+01 -3.835227e+01 -3.780234e+01 -3.708919e+01 -3.674485e+01 -3.536811e+01 -3.542744e+01 -3.344347e+01 -3.387500e+01 -3.099917e+01 -3.208058e+01 -2.804886e+01 -2.965064e+01 -2.426156e+01 -2.720253e+01 -2.031941e+01 
-6.343052e+00 -3.382632e+00 -5.781318e+00 -8.947442e+00 -9.479357e+00 -9.333665e+00 -8.919462e+00 -4.494532e+00 -3.841904e+00 -7.784236e+00 -6.964046e+00 -1.034910e+01 -9.243815e+00 -1.225807e+01 -1.105039e+01 -1.361470e+01 -1.262531e+01 -1.451910e+01 -1.402165e+01 -1.509946e+01 -1.518653e+01 -1.558962e+01 -1.600093e+01 -1.604120e+01 -1.661723e+01 -1.641332e+01 -1.702966e+01 -1.676305e+01 -1.728861e+01 -1.712780e+01 -1.730539e+01 -1.758271e+01 -1.717343e+01 -1.791361e+01 -1.728279e+01 -1.775732e+01 -1.763438e+01 -1.746660e+01 -1.784528e+01 -1.734590e+01 -1.774390e+01 -1.740127e+01 -1.733355e+01 -1.750859e+01 -1.700898e+01 -1.719866e+01 -1.687242e+01 -1.676736e+01 -1.648170e+01 -1.643222e+01 -1.591990e+01 -1.586478e+01 -1.549424e+01 -1.503849e+01 -1.493271e+01 -1.410976e+01 -1.428042e+01 -1.288430e+01 -1.354498e+01 -1.140134e+01 -1.249852e+01 -9.473594e+00 -1.143342e+01 -7.851995e+00 
-3.697209e-02 -8.598874e-02 2.316477e-01 -1.326689e+01 -1.366720e+01 -1.262558e+01 -1.375165e+01 -6.799245e-01 7.750801e-03 -4.391957e-02 -1.581958e-02 -5.985005e-02 -4.192909e-02 -7.730522e-02 -6.090801e-02 -9.169825e-02 -7.716056e-02 -1.019559e-01 -9.295115e-02 -1.083621e-01 -1.081898e-01 -1.123707e-01 -1.216733e-01 -1.156466e-01 -1.316781e-01 -1.202026e-01 -1.369496e-01 -1.266564e-01 -1.386327e-01 -1.330315e-01 -1.400736e-01 -1.375009e-01 -1.411982e-01 -1.414929e-01 -1.413335e-01 -1.453242e-01 -1.419873e-01 -1.459231e-01 -1.455384e-01 -1.437927e-01 -1.489372e-01 -1.433076e-01 -1.491452e-01 -1.445550e-01 -1.480319e-01 -1.454012e-01 -1.468251e-01 -1.450261e-01 -1.452722e-01 -1.437685e-01 -1.421530e-01 -1.416802e-01 -1.378638e-01 -1.387657e-01 -1.317155e-01 -1.355497e-01 -1.245588e-01 -1.298819e-01 -1.176617e-01 -1.204736e-01 -1.117678e-01 -1.030544e-01 -1.203819e-01 -4.289854e-02 
-1.256830e-03 -5.030136e-02 7.757507e-01 -1.776430e+01 -1.858260e+01 -1.710445e+01 -1.815187e+01 -1.211757e+00 -3.260113e-02 -1.088848e-02 1.516691e-02 -1.221902e-03 8.162542e-03 5.840273e-04 4.345150e-03 6.550057e-04 2.258454e-03 5.330560e-04 1.120666e-03 3.579139e-04 5.728854e-04 1.304513e-04 3.313615e-04 -1.503437e-04 1.763733e-04 -4.087363e-04 -3.997138e-06 -5.458550e-04 -2.144250e-04 -5.787681e-04 -4.094704e-04 -6.235194e-04 -6.130528e-04 -6.721832e-04 -7.784806e-04 -7.037609e-04 -9.019064e-04 -8.425477e-04 -9.196198e-04 -1.036410e-03 -8.888281e-04 -1.212368e-03 -9.374242e-04 -1.288009e-03 -9.956200e-04 -1.288816e-03 -1.030590e-03 -1.274544e-03 -1.035049e-03 -1.366565e-03 -1.085485e-03 -1.664909e-03 -1.282553e-03 -2.130875e-03 -1.592181e-03 -2.786810e-03 -1.902959e-03 -3.891101e-03 -2.017209e-03 -6.048942e-03 -1.200310e-03 -1.057348e-02 4.125207e-03 -1.378965e-02 
9.068054e-03 -5.606227e-02 1.104033e+00 -1.799232e+01 -1.929624e+01 -1.709578e+01 -1.860792e+01 -1.602197e+00 -8.046769e-02 -1.670427e-02 7.491831e-03 -9.715562e-03 4.154399e-03 -6.178365e-03 2.277922e-03 -3.664671e-03 1.192451e-03 -2.098197e-03 2.576118e-04 -1.244914e-03 -2.291652e-04 -8.399283e-04 -3.434134e-04 -6.613369e-04 -2.892416e-04 -5.607331e-04 -1.668221e-04 -4.561842e-04 -3.568634e-05 -3.363619e-04 3.693661e-05 -2.405389e-04 5.519632e-05 -1.799160e-04 9.115024e-05 -1.280017e-04 1.497053e-04 -7.989164e-05 1.890564e-04 -3.193976e-05 2.314441e-04 -2.950694e-05 3.109740e-04 -5.420182e-05 3.893551e-04 -1.073718e-04 3.934570e-04 -2.248020e-04 3.448393e-04 -3.560012e-04 3.904842e-04 -2.505758e-04 7.256830e-04 -9.340257e-05 1.327148e-03 -1.970838e-04 2.253605e-03 -7.844521e-04 3.710883e-03 -2.051261e-03 5.912332e-03 -3.717926e-03 8.495130e-03 -4.385081e-03 
6.657842e-03 -8.929174e-02 1.622141e+00 -2.086963e+01 -2.257655e+01 -1.983124e+01 -2.146646e+01 -2.177752e+00 -1.365570e-01 -1.345495e-02 8.382862e-03 -2.429273e-03 7.017847e-03 -8.130751e-04 4.865902e-03 -5.451213e-04 3.153713e-03 8.211738e-05 1.874509e-03 5.748712e-04 1.193270e-03 6.515892e-04 9.297945e-04 4.108799e-04 8.596405e-04 1.196172e-04 8.101266e-04 -1.130133e-05 6.928353e-04 1.246314e-05 4.669225e-04 9.272465e-05 1.609491e-04 1.481238e-04 -6.590751e-05 1.384442e-04 -1.475963e-04 -1.906131e-06 -1.042731e-04 -2.823837e-04 -1.045824e-05 -5.557124e-04 6.087673e-05 -6.565800e-04 1.018426e-04 -5.631723e-04 1.227020e-04 -3.573778e-04 2.024387e-04 -2.635565e-04 2.837691e-04 -6.433719e-04 -9.158216e-05 -1.330464e-03 -4.796226e-04 -2.220150e-03 -5.807791e-04 -3.472543e-03 -2.042196e-04 -5.343487e-03 9.834192e-04 -7.793031e-03 3.275145e-03 -9.260771e-03 
7.191152e-03 -1.178386e-01 1.959882e+00 -2.062895e+01 -2.270343e+01 -1.931900e+01 -2.141745e+01 -2.546668e+00 -1.893505e-01 -1.468909e-02 1.140309e-03 -5.675406e-03 1.505055e-03 -4.780064e-03 1.612160e-03 -3.565615e-03 1.689159e-03 -2.332848e-03 3.921911e-04 -1.457355e-03 -3.494876e-04 -1.056998e-03 -5.144572e-04 -9.283863e-04 -4.474510e-04 -8.287213e-04 -2.550441e-04 -6.280597e-04 -4.435764e-05 -3.989088e-04 6.158293e-05 -2.786984e-04 5.445869e-05 -2.284037e-04 7.216813e-05 -1.278685e-04 1.763378e-04 -3.713518e-05 2.686669e-04 -3.536329e-05 3.307795e-04 -6.845699e-05 4.952057e-04 -6.079411e-05 6.841776e-04 -9.460583e-05 6.698005e-04 -3.421190e-04 4.482604e-04 -7.391044e-04 3.071415e-04 -3.809311e-04 7.777213e-04 7.775930e-05 1.528350e-03 1.233889e-04 2.416357e-03 -2.835599e-04 3.464397e-03 -1.017052e-03 4.548514e-03 -1.745730e-03 4.885527e-03 -1.978850e-03 
9.634092e-03 -1.669333e-01 2.465900e+00 -2.242749e+01 -2.489910e+01 -2.093182e+01 -2.320431e+01 -3.079678e+00 -2.554606e-01 -1.687770e-02 1.729066e-03 -6.091819e-04 3.802862e-03 -3.717168e-04 3.650164e-03 -1.575150e-03 3.188376e-03 -3.992375e-04 1.771180e-03 7.805195e-04 1.024830e-03 1.053140e-03 8.283559e-04 5.889460e-04 8.851134e-04 1.768469e-05 9.973568e-04 -1.539056e-04 1.008252e-03 -4.054511e-05 7.221677e-04 1.551549e-04 1.203014e-04 2.663635e-04 -2.563418e-04 3.053214e-04 -2.985584e-04 1.436990e-04 -1.742554e-04 -3.893427e-04 -2.348120e-05 -9.567712e-04 1.346698e-04 -1.122001e-03 2.671475e-04 -9.004480e-04 2.514780e-04 -3.827385e-04 3.316744e-04 1.549631e-04 7.634987e-04 -3.742055e-04 -2.200137e-04 -1.316703e-03 -8.523156e-04 -2.210049e-03 -8.261735e-04 -3.149252e-03 -3.158313e-04 -4.171279e-03 5.620022e-04 -4.855726e-03 1.492869e-03 -4.172532e-03 
1.011655e-02 -2.081612e-01 2.754627e+00 -2.179928e+01 -2.458961e+01 -2.009516e+01 -2.272319e+01 -3.370527e+00 -3.092350e-01 -1.908648e-02 -3.635881e-03 -1.719329e-03 -1.885001e-03 -2.235289e-03 -6.186915e-05 -2.788325e-03 3.070957e-03 -2.004322e-03 1.336050e-04 -1.025530e-03 -9.044986e-04 -7.840628e-04 -9.065035e-04 -9.831591e-04 -8.093812e-04 -1.099849e-03 -4.270859e-04 -7.685454e-04 4.284317e-05 -3.108881e-04 2.425186e-04 -2.299961e-04 3.112449e-05 -3.518213e-04 -3.240172e-05 -1.381079e-04 2.337834e-04 8.510883e-05 4.062013e-04 -4.019368e-05 3.046071e-04 -2.173092e-04 6.178573e-04 -7.543847e-05 1.181257e-03 6.455384e-05 1.185310e-03 -3.204320e-04 2.673658e-04 -1.419505e-03 -4.336270e-04 -3.016357e-04 3.295982e-04 8.232780e-04 1.317306e-03 8.930919e-04 2.042715e-03 5.060013e-04 2.549888e-03 1.035986e-04 2.664464e-03 7.527857e-05 1.713573e-03 5.742500e-04 
1.501514e-02 -2.650437e-01 3.194143e+00 -2.282452e+01 -2.597209e+01 -2.091641e+01 -2.370041e+01 -3.810419e+00 -3.775600e-01 -2.431226e-02 -2.932042e-03 2.303204e-03 2.051973e-04 2.211133e-03 6.538349e-04 -2.965892e-03 3.564389e-03 -7.124127e-04 9.614523e-04 1.513735e-03 3.040693e-04 2.001525e-03 4.205690e-04 8.545294e-04 6.198661e-04 -4.550257e-04 1.067726e-03 -5.016544e-04 1.512555e-03 -8.016609e-05 1.316913e-03 3.106611e-04 -1.500518e-04 3.438213e-04 -7.432136e-04 5.930355e-04 -5.313097e-04 6.464116e-04 -1.777454e-04 -4.521537e-04 -1.053709e-04 -1.751670e-03 1.772934e-04 -1.867999e-03 6.443852e-04 -1.367963e-03 4.851851e-04 -2.388002e-04 -2.663942e-04 1.505662e-03 2.018924e-03 4.296516e-04 -9.803855e-04 -1.150051e-03 -1.814207e-03 -1.906903e-03 -1.368586e-03 -2.349785e-03 -7.220275e-04 -2.557984e-03 -2.077076e-04 -2.084566e-03 -1.487862e-04 -7.158537e-04 
1.693971e-02 -3.092780e-01 3.401685e+00 -2.190958e+01 -2.530419e+01 -1.985433e+01 -2.287959e+01 -3.996708e+00 -4.261316e-01 -2.826400e-02 -6.804966e-03 1.322472e-03 -6.404953e-03 2.152100e-03 -7.704558e-03 1.464383e-03 1.160844e-02 2.572282e-03 3.125523e-04 1.459096e-03 -1.108976e-03 9.303738e-04 -7.403360e-04 -2.334558e-04 -1.422085e-03 -1.246898e-03 -6.959121e-04 -5.905272e-04 4.325646e-04 4.536971e-04 1.117053e-03 1.857731e-04 -8.021913e-05 -8.684037e-04 -3.266561e-04 -2.140065e-04 5.211767e-04 5.768711e-04 1.018068e-03 1.952659e-05 -2.526618e-04 -7.457643e-04 3.057399e-04 5.279297e-05 1.968656e-03 9.101047e-04 2.555852e-03 8.727983e-04 -3.946278e-03 5.303696e-04 -2.925848e-03 1.225508e-03 -4.703052e-04 2.779133e-03 1.248914e-03 1.910994e-03 1.683454e-03 1.185187e-03 1.623520e-03 9.810444e-04 1.049998e-03 1.464514e-03 -4.807758e-04 2.006986e-03 
2.311995e-02 -3.659042e-01 3.744036e+00 -2.235165e+01 -2.603409e+01 -2.007712e+01 -2.318480e+01 -4.311704e+00 -4.879247e-01 -3.511888e-02 -5.479986e-03 5.280073e-03 -2.986908e-03 1.315598e-02 -2.595299e-02 5.295723e-02 1.713298e-01 1.051092e-01 8.255516e-02 6.428585e-02 5.461663e-02 5.195719e-02 3.805546e-02 4.457056e-02 2.525136e-02 3.516512e-02 2.106743e-02 2.844098e-02 1.934945e-02 2.267783e-02 1.967043e-02 1.489138e-02 1.629588e-02 9.000370e-03 1.330031e-02 7.630174e-03 1.100437e-02 7.754281e-03 7.350877e-03 6.257991e-03 5.418881e-04 2.927758e-03 -2.287757e-03 1.193851e-03 -3.708206e-03 -1.549319e-03 -7.384913e-03 -3.497937e-03 -2.652725e-02 -5.884051e-03 1.584037e-03 1.653341e-03 -4.988978e-03 -1.919622e-03 -3.630623e-03 -1.877595e-03 -1.743100e-03 -1.621187e-03 -9.291890e-04 -1.166990e-03 -8.075079e-04 -3.314267e-05 -1.339810e-03 1.030081e-03 
2.605814e-02 -4.053326e-01 3.854492e+00 -2.122074e+01 -2.506113e+01 -1.884875e+01 -2.207644e+01 -4.380195e+00 -5.243380e-01 -4.031752e-02 -6.988162e-03 1.824713e-03 -1.142472e-02 3.053306e-02 -2.806026e-01 1.104671e+00 4.170927e+00 3.332917e+00 2.758460e+00 2.420330e+00 2.162785e+00 2.250481e+00 1.783478e+00 2.196567e+00 1.606306e+00 1.982551e+00 1.598204e+00 1.745768e+00 1.602847e+00 1.530250e+00 1.667453e+00 1.297124e+00 1.657729e+00 1.271713e+00 1.488722e+00 1.285616e+00 1.328267e+00 1.329522e+00 1.129304e+00 1.390009e+00 9.941227e-01 1.305567e+00 9.831723e-01 1.151991e+00 9.711716e-01 1.000095e+00 9.780223e-01 7.791347e-01 8.260812e-01 3.712467e-02 -3.260341e-02 3.153393e-02 3.568489e-03 6.900289e-03 2.869814e-03 2.219768e-03 1.855079e-03 1.184980e-03 1.000575e-03 1.354034e-03 -8.497094e-05 2.297083e-03 -1.818502e-03 2.409799e-03 
3.250833e-02 -4.545535e-01 4.084603e+00 -2.121072e+01 -2.524919e+01 -1.860661e+01 -2.180460e+01 -4.552258e+00 -5.721951e-01 -4.824783e-02 -5.193509e-03 4.046208e-03 -5.557289e-03 1.938304e-01 -1.440309e+00 8.683691e+00 3.548652e+01 3.216296e+01 2.880424e+01 2.732774e+01 2.506510e+01 2.817390e+01 2.263283e+01 2.912807e+01 2.290424e+01 2.735241e+01 2.479084e+01 2.545606e+01 2.654883e+01 2.356454e+01 2.876021e+01 2.205389e+01 2.837450e+01 2.384663e+01 2.623038e+01 2.550794e+01 2.438326e+01 2.756875e+01 2.227907e+01 2.881781e+01 2.251351e+01 2.704832e+01 2.443086e+01 2.520713e+01 2.628323e+01 2.374669e+01 2.943415e+01 2.359784e+01 3.523474e+01 2.756426e+01 4.486570e+00 3.678711e-01 -2.112279e-02 -8.827365e-03 -4.857412e-03 -2.561330e-03 -8.323744e-04 -1.193224e-03 -5.813247e-04 -1.872079e-04 -1.082505e-03 1.303136e-03 -2.050965e-03 1.567515e-03 
3.558609e-02 -4.831578e-01 4.092905e+00 -1.991835e+01 -2.401567e+01 -1.725763e+01 -2.045441e+01 -4.500985e+00 -5.917538e-01 -5.333892e-02 -1.576492e-03 -7.793345e-03 -3.094074e-03 3.763766e-02 -1.334966e+00 1.090665e+01 4.130171e+01 3.720394e+01 3.445188e+01 3.317224e+01 3.123326e+01 3.527139e+01 2.890203e+01 3.737016e+01 2.965263e+01 3.578238e+01 3.263985e+01 3.374222e+01 3.545927e+01 3.169911e+01 3.881580e+01 2.989405e+01 3.881858e+01 3.256953e+01 3.615066e+01 3.522667e+01 3.392761e+01 3.836272e+01 3.130171e+01 4.049905e+01 3.176732e+01 3.841349e+01 3.485321e+01 3.611243e+01 3.797064e+01 3.459566e+01 4.319517e+01 3.540304e+01 5.367583e+01 4.083119e+01 5.464490e+00 4.449650e-01 8.172860e-02 5.781630e-03 8.481814e-03 -4.295401e-04 2.243705e-03 2.722651e-04 4.807663e-04 1.360141e-03 -8.904460e-04 2.751841e-03 -2.579338e-03 2.157266e-03 
4.134999e-02 -5.193548e-01 4.206392e+00 -1.955383e+01 -2.374738e+01 -1.668598e+01 -1.974958e+01 -4.534216e+00 -6.217803e-01 -6.012954e-02 -1.614391e-03 -9.139098e-03 2.819252e-02 -4.340492e-02 7.886205e-01 -6.360931e+00 -2.286234e+01 -2.011420e+01 -1.745124e+01 -1.673148e+01 -1.494774e+01 -1.669752e+01 -1.318135e+01 -1.674950e+01 -1.296221e+01 -1.533130e+01 -1.372770e+01 -1.392470e+01 -1.439185e+01 -1.270016e+01 -1.523957e+01 -1.165748e+01 -1.483779e+01 -1.237585e+01 -1.345106e+01 -1.307297e+01 -1.233195e+01 -1.387307e+01 -1.112344e+01 -1.428200e+01 -1.099918e+01 -1.318982e+01 -1.175751e+01 -1.202181e+01 -1.241063e+01 -1.116989e+01 -1.358654e+01 -1.110768e+01 -1.611136e+01 -1.178478e+01 -1.307871e+00 -1.794741e-01 -2.295435e-02 -1.424236e-02 3.109860e-03 -2.910367e-03 1.352200e-03 -7.328277e-04 -1.571429e-04 5.949870e-04 -1.309586e-03 2.177520e-03 -2.486388e-03 1.417664e-03 
4.370991e-02 -5.329551e-01 4.114970e+00 -1.814433e+01 -2.229437e+01 -1.527337e+01 -1.823676e+01 -4.375866e+00 -6.267343e-01 -5.925849e-02 -7.155592e-03 -1.053965e-03 4.168734e-03 -2.085981e-01 1.675794e+00 -1.125632e+01 -4.513466e+01 -4.104751e+01 -3.761341e+01 -3.590527e+01 -3.350319e+01 -3.775918e+01 -3.072727e+01 -3.968292e+01 -3.138668e+01 -3.775944e+01 -3.434172e+01 -3.547884e+01 -3.713303e+01 -3.315973e+01 -4.053934e+01 -3.118883e+01 -4.036262e+01 -3.388616e+01 -3.752526e+01 -3.650867e+01 -3.511534e+01 -3.968217e+01 -3.228431e+01 -4.177886e+01 -3.271583e+01 -3.950869e+01 -3.576245e+01 -3.707063e+01 -3.881890e+01 -3.532433e+01 -4.397120e+01 -3.571469e+01 -5.406571e+01 -4.156557e+01 -5.889982e+00 -4.188899e-01 -1.273821e-02 -4.420375e-04 1.211572e-04 -1.031768e-03 -1.230261e-04 4.419571e-04 -6.182991e-04 1.741620e-03 -1.639764e-03 3.155894e-03 -3.016961e-03 1.630103e-03 
4.797430e-02 -5.523051e-01 4.114744e+00 -1.750035e+01 -2.164025e+01 -1.454049e+01 -1.735238e+01 -4.308465e+00 -6.388688e-01 -6.193022e-02 -8.983484e-03 4.955151e-03 -2.123260e-03 -5.638914e-02 6.736034e-01 -2.791175e+00 -1.303494e+01 -1.180826e+01 -1.117333e+01 -1.059986e+01 -1.018162e+01 -1.150526e+01 -9.536139e+00 -1.244052e+01 -9.951148e+00 -1.210725e+01 -1.108158e+01 -1.157823e+01 -1.217279e+01 -1.093999e+01 -1.350335e+01 -1.041319e+01 -1.360900e+01 -1.144572e+01 -1.281012e+01 -1.243587e+01 -1.208623e+01 -1.366496e+01 -1.119131e+01 -1.454137e+01 -1.146959e+01 -1.389969e+01 -1.264494e+01 -1.318731e+01 -1.386148e+01 -1.264039e+01 -1.588274e+01 -1.280732e+01 -1.942474e+01 -1.525003e+01 -2.757910e+00 -2.747628e-01 -1.370132e-02 2.790817e-03 6.411938e-04 1.165155e-03 -1.362908e-04 9.149903e-04 -9.196855e-04 1.572466e-03 -1.830765e-03 2.828716e-03 -2.811393e-03 9.772357e-04 
4.895263e-02 -5.485589e-01 3.931087e+00 -1.601014e+01 -2.000685e+01 -1.312989e+01 -1.579283e+01 -4.068694e+00 -6.251722e-01 -6.260227e-02 -9.679201e-03 3.445102e-03 -5.812014e-03 6.142927e-03 1.681536e-03 -5.539469e-02 -1.360461e-02 1.553328e-01 1.141304e-01 1.873916e-01 7.954575e-02 1.589420e-01 5.491441e-02 9.212969e-02 7.064427e-02 1.986326e-02 6.445198e-02 -1.672021e-02 4.136544e-02 -3.804626e-02 -1.222518e-04 -1.538537e-02 -7.467966e-02 7.882023e-04 -1.054222e-01 -1.544118e-02 -1.202767e-01 -4.566640e-02 -1.098112e-01 -1.115955e-01 -7.519355e-02 -1.646232e-01 -8.735384e-02 -1.793618e-01 -1.193689e-01 -1.843761e-01 -1.658594e-01 -1.307757e-01 -1.223873e-01 2.095305e-01 4.674622e-02 4.376810e-03 -3.745516e-03 1.605174e-03 -1.848467e-03 1.244401e-03 -1.296032e-03 1.592699e-03 -1.455139e-03 2.359672e-03 -2.178500e-03 3.464913e-03 -3.187508e-03 1.022220e-03 
5.115131e-02 -5.490864e-01 3.825245e+00 -1.514561e+01 -1.902773e+01 -1.231371e+01 -1.482858e+01 -3.922928e+00 -6.188840e-01 -6.383624e-02 -9.096347e-03 3.426781e-03 -3.118129e-03 3.146961e-03 2.056744e-03 -2.627162e-03 1.107059e-02 -5.880312e-03 1.068278e-03 -2.584844e-03 -1.555846e-03 -1.664759e-03 -2.204455e-03 -5.571713e-04 -2.329291e-04 1.139656e-03 7.129121e-04 2.414253e-04 -8.248409e-05 -6.435710e-04 -9.973443e-04 2.216243e-06 1.265247e-03 1.301669e-03 4.326868e-04 3.732009e-04 -1.006789e-03 -1.414054e-03 -1.864699e-03 -1.167458e-03 -8.381177e-05 3.358766e-04 1.531930e-04 -4.344958e-04 -1.111593e-03 -7.582980e-04 3.391815e-04 -3.189971e-03 1.768274e-02 -1.462791e-02 -9.924513e-03 1.233554e-03 -3.195862e-03 2.180873e-03 -1.498523e-03 1.744828e-03 -1.326812e-03 1.664203e-03 -1.624803e-03 2.135998e-03 -2.234750e-03 3.120700e-03 -2.925302e-03 4.309831e-04 
5.030258e-02 -5.274268e-01 3.560563e+00 -1.360461e+01 -1.725170e+01 -1.093476e+01 -1.327049e+01 -3.618478e+00 -5.873478e-01 -6.281611e-02 -8.927616e-03 2.219707e-03 -3.097757e-03 1.508392e-03 -1.860844e-03 -4.713870e-03 2.740661e-03 -9.314453e-04 9.155939e-04 7.816326e-04 -1.000659e-03 6.078114e-04 -1.651659e-03 7.153660e-05 -1.421118e-04 -1.445037e-04 7.444969e-04 -7.752688e-04 4.717389e-04 -1.249510e-03 -1.522321e-05 -1.244663e-04 8.805051e-05 1.231516e-03 -3.460912e-04 9.147135e-04 -1.104429e-03 -6.315441e-06 -1.159782e-03 -4.679352e-04 4.036878e-04 -3.166860e-04 6.748381e-04 -7.852916e-04 -2.277515e-04 -1.419752e-03 6.894808e-08 -1.126418e-03 4.899257e-03 -1.971123e-04 4.677858e-04 3.429046e-03 -1.395103e-03 2.093957e-03 -1.568287e-03 1.858158e-03 -1.527614e-03 2.070527e-03 -1.749870e-03 2.607274e-03 -2.339558e-03 3.458674e-03 -3.061459e-03 4.162561e-04 
5.013348e-02 -5.088776e-01 3.360641e+00 -1.256494e+01 -1.600073e+01 -1.005350e+01 -1.223046e+01 -3.401981e+00 -5.632643e-01 -6.174817e-02 -8.072759e-03 2.063104e-03 -1.818407e-03 1.824948e-03 -3.446792e-04 5.230639e-04 2.082539e-03 -1.005986e-04 6.987738e-04 -9.524942e-05 -3.311968e-04 -5.297522e-05 -6.316584e-04 1.182949e-04 -1.715026e-04 3.868095e-04 1.881786e-04 2.017520e-04 3.787028e-05 1.508443e-06 -6.801784e-05 1.885931e-04 3.776127e-04 4.507763e-04 2.865650e-04 1.852669e-04 -1.202260e-04 -2.675398e-04 -3.334209e-04 -1.177053e-04 -7.165257e-05 3.975458e-04 3.033232e-05 4.204937e-04 -1.146950e-04 1.808440e-04 5.789319e-04 -6.191067e-04 1.826428e-03 -2.091163e-03 -2.780281e-03 4.313250e-04 -2.185667e-03 1.257221e-03 -1.703191e-03 1.479811e-03 -1.625535e-03 1.706809e-03 -1.824992e-03 2.189292e-03 -2.279043e-03 3.004557e-03 -2.746427e-03 -8.970341e-05 
4.725251e-02 -4.703308e-01 3.028617e+00 -1.099717e+01 -1.411840e+01 -8.711125e+00 -1.067984e+01 -3.044389e+00 -5.155836e-01 -5.815678e-02 -7.712707e-03 1.283713e-03 -2.061257e-03 8.222410e-04 -1.366098e-03 -6.420273e-04 -2.638161e-05 -8.388005e-05 -2.139323e-04 3.005059e-04 -6.954439e-04 2.755143e-04 -8.003193e-04 6.331478e-05 -3.290534e-04 -1.395017e-04 8.127780e-05 -3.527661e-04 1.257210e-04 -4.071773e-04 1.580532e-05 -2.817323e-05 -8.397889e-05 3.910300e-04 -2.651958e-04 3.689286e-04 -4.687434e-04 8.711569e-05 -4.002994e-04 -1.337164e-04 2.313363e-05 -1.946477e-04 2.021385e-04 -2.699903e-04 1.053720e-04 -2.619257e-04 3.163809e-04 1.052743e-04 8.959363e-04 8.188049e-04 1.630057e-04 1.654516e-03 -6.740293e-04 1.679107e-03 -1.069092e-03 1.750238e-03 -1.296079e-03 1.983900e-03 -1.611849e-03 2.422260e-03 -2.138533e-03 3.095146e-03 -2.663359e-03 -9.277405e-05 
4.467744e-02 -4.339661e-01 2.748291e+00 -9.816840e+00 -1.264255e+01 -7.760229e+00 -9.542761e+00 -2.760854e+00 -4.744827e-01 -5.447457e-02 -6.755051e-03 1.357931e-03 -1.200023e-03 1.426138e-03 -5.443728e-04 8.583527e-04 1.205202e-04 3.600709e-04 3.667507e-05 2.578261e-04 -1.545839e-04 2.109474e-04 -1.968477e-04 1.767197e-04 -6.354155e-05 1.913090e-04 6.788307e-05 1.664626e-04 7.646125e-05 1.457712e-04 4.765549e-05 1.939187e-04 7.074887e-05 2.293689e-04 2.983936e-05 1.517832e-04 -7.449546e-05 1.572380e-05 -1.342057e-04 -3.759046e-05 -9.375275e-05 5.227673e-07 -4.373872e-05 -2.395594e-05 -1.497524e-05 -1.218651e-04 1.165578e-04 -2.530293e-04 1.031280e-04 -2.300114e-04 -9.097572e-04 3.375388e-04 -1.328798e-03 7.505113e-04 -1.394571e-03 1.055193e-03 -1.443877e-03 1.393444e-03 -1.622493e-03 1.873959e-03 -1.984541e-03 2.554946e-03 -2.303470e-03 -4.608324e-04 
3.982318e-02 -3.809023e-01 2.364156e+00 -8.241711e+00 -1.068903e+01 -6.449767e+00 -7.993887e+00 -2.360344e+00 -4.129954e-01 -4.845702e-02 -6.228885e-03 7.479935e-04 -1.625119e-03 7.330791e-04 -1.317344e-03 4.249767e-04 -3.655369e-04 2.134750e-04 -3.767127e-04 1.623262e-04 -4.951040e-04 6.864577e-05 -4.833751e-04 -3.965067e-05 -3.632435e-04 -8.681773e-05 -1.925449e-04 -7.248994e-05 -8.049733e-05 -3.405314e-05 -5.210068e-05 -7.015899e-06 -8.466510e-05 3.837301e-05 -1.119805e-04 8.444980e-05 -1.142461e-04 7.100304e-05 -1.183488e-04 1.121975e-05 -7.668940e-05 -1.372971e-05 7.824261e-05 2.627313e-05 2.503505e-04 1.056058e-04 3.343139e-04 1.898874e-04 2.080995e-04 3.448577e-04 -3.304708e-04 9.785713e-04 -5.025919e-04 1.308452e-03 -6.484093e-04 1.415737e-03 -8.830843e-04 1.591995e-03 -1.219154e-03 1.932793e-03 -1.684452e-03 2.453347e-03 -2.072514e-03 -4.078191e-04 
3.506042e-02 -3.292651e-01 2.018508e+00 -6.947445e+00 -9.030878e+00 -5.419395e+00 -6.738600e+00 -2.014045e+00 -3.563428e-01 -4.235202e-02 -5.041366e-03 9.201620e-04 -7.559505e-04 1.361252e-03 -7.481706e-04 1.214580e-03 -8.807159e-04 1.770903e-04 -2.514479e-04 2.905567e-04 -1.185664e-05 2.968093e-04 7.797851e-05 1.154806e-04 5.168896e-05 5.939932e-05 5.800645e-05 1.479353e-04 1.195045e-04 2.134834e-04 7.072946e-05 1.937778e-04 -1.257579e-04 1.298220e-04 -1.130238e-04 1.614455e-04 -6.132485e-05 1.771281e-04 -6.597887e-05 -5.538673e-05 -1.204143e-04 -2.595230e-04 -7.918138e-05 -3.197196e-04 1.182586e-05 -3.474707e-04 -8.677929e-05 -1.382770e-04 -3.050247e-04 1.011326e-03 -1.620475e-04 5.470584e-04 -9.396811e-04 3.400443e-04 -1.077292e-03 5.434227e-04 -1.067429e-03 9.002033e-04 -1.185229e-03 1.343498e-03 -1.463261e-03 1.889010e-03 -1.685115e-03 -5.947748e-04 
2.855112e-02 -2.651237e-01 1.598500e+00 -5.381549e+00 -7.040813e+00 -4.134219e+00 -5.185445e+00 -1.581120e+00 -2.840815e-01 -3.441750e-02 -4.273118e-03 2.430144e-04 -1.411051e-03 6.597885e-04 -2.327514e-03 2.095888e-03 -5.956402e-04 9.177033e-04 -3.939955e-04 7.156486e-05 -2.028553e-04 -1.287270e-04 -1.452999e-04 -1.638747e-04 -4.440130e-04 -3.160546e-05 -4.260523e-04 2.441728e-04 -2.210396e-04 3.950196e-04 -4.309997e-05 -1.246143e-05 -6.931558e-05 -3.277603e-04 8.141909e-05 -1.588835e-04 2.967080e-04 1.059356e-04 1.661515e-04 1.371888e-04 -3.106579e-04 1.591330e-04 -1.242484e-04 3.605322e-04 3.858428e-04 4.855639e-04 4.831712e-04 3.925130e-04 -1.366830e-03 9.018356e-04 -1.466680e-03 8.391286e-04 -3.480566e-04 1.143596e-03 -1.003514e-04 9.927034e-04 -3.496421e-04 1.033789e-03 -7.030495e-04 1.269211e-03 -1.099861e-03 1.644892e-03 -1.384567e-03 -4.721957e-04 
2.204791e-02 -2.017910e-01 1.203705e+00 -3.995501e+00 -5.240552e+00 -3.016205e+00 -3.796029e+00 -1.178106e+00 -2.142781e-01 -2.638163e-02 -2.816090e-03 3.891281e-04 3.047218e-06 1.823337e-03 -2.800522e-03 6.420598e-03 7.938674e-03 7.134986e-03 6.092531e-03 4.538436e-03 5.109198e-03 4.427384e-03 4.162549e-03 4.585746e-03 2.995265e-03 4.743108e-03 2.917356e-03 4.931203e-03 3.542091e-03 4.674890e-03 4.478201e-03 3.558313e-03 4.625471e-03 3.091644e-03 4.975452e-03 3.642616e-03 5.004949e-03 4.794397e-03 4.259339e-03 5.359482e-03 3.166533e-03 5.320216e-03 3.365964e-03 5.172686e-03 4.026639e-03 4.280202e-03 4.046412e-03 2.979537e-03 -5.438385e-04 2.855295e-03 -2.717114e-04 6.364281e-04 -1.157993e-03 -6.349814e-04 -8.646231e-04 -1.531238e-04 -5.932204e-04 3.335247e-04 -6.379189e-04 7.346352e-04 -8.375959e-04 1.126145e-03 -9.920898e-04 -4.654799e-04 
1.442356e-02 -1.307985e-01 7.647932e-01 -2.454467e+00 -3.249025e+00 -1.751471e+00 -2.235377e+00 -7.241013e-01 -1.349280e-01 -1.712691e-02 -1.618935e-03 -6.409920e-04 -1.046240e-03 5.034447e-03 -5.526982e-02 1.333406e-01 8.301327e-01 7.390516e-01 6.526587e-01 5.995290e-01 5.587249e-01 6.266570e-01 5.142872e-01 6.596182e-01 5.278467e-01 6.410137e-01 5.751617e-01 6.104894e-01 6.322700e-01 5.695817e-01 6.960670e-01 5.461048e-01 7.040509e-01 5.886530e-01 6.676837e-01 6.404456e-01 6.277120e-01 7.085172e-01 5.798285e-01 7.520632e-01 5.934390e-01 7.249136e-01 6.478268e-01 6.865911e-01 7.154762e-01 6.452196e-01 8.042924e-01 6.418156e-01 9.091713e-01 6.485856e-01 1.294970e-01 2.223899e-02 3.169084e-03 1.443526e-03 9.933988e-04 4.589662e-04 2.343562e-04 4.032608e-04 -2.036063e-04 5.580053e-04 -5.065240e-04 7.846533e-04 -6.862678e-04 -2.895866e-04 
6.806577e-03 -6.011334e-02 3.379382e-01 -9.967690e-01 -1.345995e+00 -5.461908e-01 -7.099873e-01 -2.744299e-01 -5.563702e-02 -7.783722e-03 -4.070249e-04 -3.724173e-05 -6.095892e-03 9.531197e-02 -6.340906e-01 2.018253e+00 1.447947e+01 1.499094e+01 1.315583e+01 1.299890e+01 1.142966e+01 1.346712e+01 1.070896e+01 1.358398e+01 1.128264e+01 1.280828e+01 1.223243e+01 1.204887e+01 1.326765e+01 1.121080e+01 1.414517e+01 1.108209e+01 1.368115e+01 1.206772e+01 1.275713e+01 1.299495e+01 1.187900e+01 1.409202e+01 1.112092e+01 1.433229e+01 1.169891e+01 1.340464e+01 1.271331e+01 1.256921e+01 1.388174e+01 1.184336e+01 1.532381e+01 1.239866e+01 1.807010e+01 1.608170e+01 3.369226e+00 3.180292e-01 1.296080e-02 -3.099990e-03 -8.049779e-04 -8.071313e-04 -7.855742e-05 -7.549758e-05 -1.175021e-04 1.991917e-04 -2.306775e-04 3.734036e-04 -3.116774e-04 -1.160699e-04 
-1.230990e-03 1.300983e-02 -1.023783e-01 5.032314e-01 6.107637e-01 6.966191e-01 8.519497e-01 1.871609e-01 2.633720e-02 2.494911e-03 1.039576e-03 1.145275e-04 -8.469423e-03 9.914080e-02 -8.393776e-01 3.120532e+00 2.055069e+01 2.117650e+01 1.853866e+01 1.840584e+01 1.617603e+01 1.904610e+01 1.514538e+01 1.917039e+01 1.590714e+01 1.802689e+01 1.721611e+01 1.691481e+01 1.862305e+01 1.572602e+01 1.979312e+01 1.549955e+01 1.911386e+01 1.684117e+01 1.776614e+01 1.810774e+01 1.652429e+01 1.957492e+01 1.544593e+01 1.987137e+01 1.619686e+01 1.854038e+01 1.758108e+01 1.734518e+01 1.915821e+01 1.635676e+01 2.112958e+01 1.722665e+01 2.514855e+01 2.212723e+01 4.350519e+00 4.104068e-01 4.652010e-02 3.937804e-03 2.316461e-03 -3.140937e-05 3.981865e-04 -1.018499e-04 7.582075e-05 -5.854934e-05 -4.668720e-06 -3.008006e-05 -3.067275e-05 6.912861e-05 
-9.221368e-03 8.624319e-02 -5.435801e-01 2.013060e+00 2.577418e+00 1.968670e+00 2.474087e+00 6.630465e-01 1.096663e-01 1.266603e-02 8.714794e-04 1.237586e-04 2.111946e-03 -2.344386e-02 2.679622e-01 -1.187743e+00 -6.994231e+00 -7.042914e+00 -6.204437e+00 -6.198647e+00 -5.507270e+00 -6.497743e+00 -5.199166e+00 -6.620993e+00 -5.498922e+00 -6.285481e+00 -6.006897e+00 -5.946366e+00 -6.553558e+00 -5.569240e+00 -7.030067e+00 -5.513409e+00 -6.853250e+00 -6.031140e+00 -6.413631e+00 -6.535034e+00 -6.008137e+00 -7.118079e+00 -5.644805e+00 -7.293173e+00 -5.947261e+00 -6.856707e+00 -6.504983e+00 -6.459222e+00 -7.143074e+00 -6.136511e+00 -7.953164e+00 -6.545508e+00 -9.576828e+00 -8.226372e+00 -1.489595e+00 -1.343939e-01 -1.946811e-02 -1.238161e-03 -5.302010e-04 2.773559e-04 1.252481e-04 9.216591e-06 2.043174e-04 -1.700805e-04 2.756732e-04 -3.189734e-04 3.156404e-04 3.379827e-04 