# vtk DataFile Version 2.0
Comment goes here
ASCII

DATASET STRUCTURED_POINTS
FIELD FieldData 1
TIME 1 1 double
0.07800000
DIMENSIONS    64   64   1

ORIGIN    0.000   0.000   0.000
SPACING   0.03125 0.03125   1.000

POINT_DATA   4096
SCALARS Omega double
LOOKUP_TABLE default

-1.335616e+03 1.213481e+03 -1.635438e+03 6.779780e+02 1.852840e+02 -4.540786e+02 5.813003e+01 -5.310685e+02 8.275158e+02 7.235459e+02 -1.289297e+02 -3.479888e+02 2.472126e+02 -4.676231e+02 2.001278e+02 -4.933365e+02 1.511321e+02 1.212677e+03 -5.417773e+02 9.035701e+02 3.683102e+02 2.178741e+02 -4.003170e+02 2.775077e+02 -7.491617e+02 2.279631e+02 -1.157139e+03 4.204301e+02 1.347018e+03 -3.314646e+03 8.691468e+02 -9.201961e+02 8.522744e+02 1.432749e+02 6.236328e+02 9.090050e+02 -8.959205e+02 6.330336e+02 5.243767e+01 -4.302770e+02 -8.198973e+02 -9.782018e+01 -1.308630e+03 2.640252e+03 -1.152138e+03 -1.296971e+03 -1.341278e+02 5.944259e+02 1.987002e+02 -1.301000e+02 2.990083e+02 -7.712404e+02 -3.889226e+02 -7.368031e+02 7.398659e+02 1.116662e+02 -1.895908e+03 6.121251e+02 1.109185e+02 6.605063e+02 1.666994e+03 -9.989786e+02 -4.874522e+02 3.046227e+03 
8.337363e+02 6.595518e+01 1.081856e+03 -7.991760e+02 5.033859e+02 4.789885e+02 -4.657563e+02 8.269812e+02 -1.832930e+03 -5.808271e+02 2.908088e+02 -4.618948e+02 -8.423269e+02 8.310174e+02 -8.534888e+02 -1.514012e+03 -6.757208e+02 -1.391916e+03 -1.559003e+02 -9.356235e+02 -1.065197e+03 4.029692e+01 9.860183e+02 5.126525e+01 -6.251411e+02 1.542564e+03 1.120609e+03 -4.954926e+02 -5.108459e+02 1.013470e+03 1.502348e+03 -1.055268e+03 -4.202994e+02 -1.954099e+02 -3.594966e+02 -8.715373e+01 6.118911e+02 -1.627674e+02 -6.234026e+02 1.456848e+03 -3.795238e+02 1.880379e+03 -6.531426e+02 -9.598176e+02 5.011926e+02 1.153227e+03 -5.848586e+02 2.498101e+02 6.793795e+02 -1.861629e+03 4.293424e+01 1.448504e+03 -9.343217e+01 1.466266e+03 -1.351474e+03 1.350794e+03 2.689817e+03 -2.141009e+03 6.090869e+02 -5.226149e+02 -1.277896e+03 -1.060777e+03 4.306577e+02 -3.123341e+03 
-3.829182e+03 -2.870373e+03 -9.168446e+02 1.480500e+02 8.797991e+02 -7.216723e+01 1.358756e+02 -1.782689e+02 1.515234e+03 2.673974e+02 -1.232711e+03 4.118170e+02 -1.060851e+03 -1.377165e+03 -1.067685e+03 1.122037e+01 -5.474735e+02 -1.108728e+03 -3.652539e+02 -1.666036e+03 -9.407266e+02 -1.457764e+03 -2.447529e+03 -2.808180e+03 -3.078667e+03 -6.252722e+02 -7.615863e+02 5.043476e+02 1.070057e+03 6.148896e+02 -3.816330e+03 1.923300e+02 -1.180262e+03 -2.193909e+02 1.644702e+03 1.213586e+03 -5.297962e+02 1.548970e+03 -1.010955e+03 2.308278e+03 1.577732e+03 8.210462e+02 1.753096e+03 -6.641740e+02 2.698555e+01 -4.744583e+02 1.213551e+03 3.575536e+02 -6.563788e+02 2.825923e+03 -7.787768e+02 1.754753e+03 -4.545867e+02 3.700187e+01 1.248828e+03 9.759381e+02 -2.555793e+02 9.845785e+02 1.420508e+03 -1.604958e+03 -5.728548e+02 -3.592317e+02 1.937142e+03 1.819696e+03 
-2.954380e+03 3.209850e+03 4.861036e+03 -2.295626e+03 -1.169351e+03 -7.684733e+01 7.572107e+02 -4.892327e+02 -8.445489e+02 -4.904822e+02 -3.654923e+01 9.593530e+02 8.165608e+00 -1.029464e+03 -1.541383e+03 1.662281e+03 2.416812e+02 7.263259e+02 -1.114180e+03 2.366484e+03 2.036322e+03 -1.995988e+03 -2.641540e+03 2.347306e+03 3.093744e+03 -1.879292e+02 -1.331885e+03 3.937477e+02 -1.427903e+03 -7.209254e+02 -1.480139e+03 2.411505e+03 3.239010e+03 -1.374627e+03 -2.514230e+02 -1.154723e+03 -6.860070e+02 3.244631e+02 8.496814e+02 -2.083722e+03 -1.089096e+03 -2.080605e+03 6.516065e+02 5.881523e+03 1.962337e+03 -1.455589e+02 -2.363450e+03 -5.697155e+02 2.853101e+02 1.333208e+03 -2.429033e+03 -3.052600e+03 4.124947e+02 1.684230e+03 -3.926557e+03 -5.031980e+03 -1.516907e+03 2.262355e+03 7.491398e+01 -1.558218e+02 7.256844e+02 5.596692e+03 -1.018289e+03 -2.207713e+03 
3.495595e+03 -4.092469e+03 3.496455e+03 8.424330e+02 -1.706635e+03 -8.864487e+02 -3.937435e+02 1.280936e+03 4.310687e+02 -7.570537e+02 1.515294e+02 2.495953e+02 9.406642e+02 2.345946e+03 6.238411e+02 6.075628e+01 2.319557e+02 -1.224181e+02 -1.038137e+03 -1.776981e+02 1.351254e+03 2.081182e+03 3.441301e+03 4.083122e+03 2.866591e+03 5.347496e+02 -1.253028e+02 5.876017e+01 -1.746720e+03 9.020992e+02 6.053515e+03 -8.004247e+02 -4.080765e+00 -1.718373e+03 -1.338917e+03 -2.905620e+03 2.351767e+03 -2.234730e+02 1.490935e+03 8.203945e+01 1.427614e+03 2.523914e+03 -3.238633e+02 -1.659871e+03 -2.516030e+03 8.127538e+02 3.327368e+03 -2.991148e+03 1.081422e+02 5.309276e+02 2.838066e+03 -1.985378e+03 -4.726590e+03 -1.939762e+03 1.819091e+03 -3.481884e+03 -6.074385e+03 -1.731351e+03 -2.817698e+03 -4.324160e+02 2.508729e+03 -2.636318e+03 -6.287734e+03 1.526138e+03 
-1.749706e+03 1.568314e+03 2.228427e+02 -3.447761e+01 1.636946e+02 -1.303227e+02 -1.766137e+02 -1.056682e+03 1.435621e+03 2.029454e+03 1.275872e+02 -1.317517e+03 -2.173122e+02 9.261865e+02 4.517836e+02 5.741750e+02 1.553687e+03 -4.258623e+01 1.168481e+03 -9.089142e+02 -4.715884e+02 -1.775323e+02 1.831499e+03 2.206136e+03 8.192848e+02 -1.028530e+03 -1.245612e+03 -1.552448e+03 3.943858e+02 -1.732289e+03 -9.184664e+02 1.748538e+03 4.193239e+03 2.653375e+02 -3.183453e+03 1.139338e+03 1.945157e+03 2.014230e+03 -2.322122e+03 -2.434406e+03 -6.803759e+02 -3.584507e+03 -4.558347e+03 -4.253393e+03 1.475960e+03 -1.176611e+01 5.516695e+02 1.256802e+03 -3.300222e+03 -6.482726e+02 -2.211121e+03 6.493485e+02 4.356151e+02 9.848274e+02 5.099074e+03 1.213981e+03 2.131213e+03 1.047214e+03 -6.409771e+03 -2.376563e+03 5.306545e+03 -2.630376e+03 -7.784792e+03 8.367229e+03 
-4.131668e+03 1.532419e+03 4.571822e+03 -2.084081e+03 -1.782993e+03 -6.557229e+02 2.716917e+02 -1.305324e+02 -7.792917e+02 -2.582481e+02 -9.544696e+02 -1.061971e+03 -2.205084e+02 1.627930e+03 -3.462046e+01 -2.268470e+02 -1.243769e+03 -1.445061e+03 2.082224e+03 8.176788e+02 4.105930e+02 7.025893e+02 5.075950e+02 5.083746e+01 2.259881e+02 -1.236679e+03 -1.596578e+03 -3.236272e+03 -2.262554e+03 -1.895547e+03 -1.487090e+03 1.851864e+03 1.240912e+02 1.699658e+03 3.732345e+02 1.743941e+03 1.305618e+03 -3.534110e+02 -2.882085e+03 -7.305733e+02 -2.521003e+03 -3.773885e+02 2.644586e+03 -4.297737e+03 -7.204407e+03 3.885246e+02 2.415963e+03 -6.469323e+02 -3.910161e+03 6.288330e+03 1.695893e+03 -3.749261e+03 -1.990439e+03 5.294492e+03 3.344005e+03 1.776040e+03 4.542381e+03 3.797469e+02 1.415563e+03 1.646482e+03 3.800782e+03 -4.612435e+02 1.488627e+03 8.450299e+02 
3.541604e+03 -2.180518e+03 -2.656359e+03 -4.441096e+02 5.304998e+02 -7.439316e+02 6.813192e+02 4.413851e+02 -2.820687e+03 -1.724285e+03 4.519016e+02 -1.898176e+03 2.712915e+02 2.288672e+03 7.932277e+01 1.309364e+03 -6.580958e+02 -7.762910e+02 4.410891e+02 1.565219e+03 8.354363e+02 1.226298e+03 4.911089e+02 -1.067740e+03 -2.442106e+02 -1.768535e+02 -1.249769e+02 -2.098512e+03 9.773566e+02 1.873771e+03 4.534624e+02 -1.701518e+03 -1.434928e+03 -3.697325e+00 1.721599e+03 -1.887647e+02 -2.417943e+03 1.357221e+03 2.486332e+03 -3.536279e+03 -2.598674e+03 2.075205e+03 1.977933e+03 2.500886e+03 1.213773e+03 -1.082766e+03 3.413522e+03 1.652096e+03 -8.773708e+02 -4.349939e+02 -4.371484e+03 -8.991741e+02 4.234645e+03 4.181201e+03 4.286389e+02 -5.279113e+03 8.229721e+01 1.539275e+03 1.866015e+03 4.742066e+03 3.505588e+03 -4.155790e+03 2.975866e+03 2.437825e+03 
1.049213e+03 -1.324768e+03 1.831274e+03 2.253483e+01 -1.184115e+03 -1.275695e+03 -5.598514e+02 1.200089e+03 3.904245e+02 -2.594220e+02 -1.502185e+03 -2.821017e+03 8.733745e+02 3.653428e+03 8.328778e+02 6.042658e+02 2.536281e+02 1.207349e+01 -1.595984e+03 -6.812232e+02 2.895103e+02 6.106348e+02 4.553823e+02 2.969032e+02 1.317967e+02 1.136950e+03 -7.362203e+02 2.108038e+02 3.775338e+03 -6.807866e+02 -2.162087e+02 1.011812e+03 -1.693903e+03 4.169432e+03 2.485507e+03 -2.005388e+03 -7.653788e+01 -1.223934e+03 -3.177869e+03 -3.963527e+03 9.706526e+02 7.482366e+02 1.510552e+03 -1.652885e+03 1.952226e+03 1.827265e+03 3.498131e+03 3.565198e+03 -4.510826e+03 -7.391402e+02 4.825693e+03 -6.274654e+02 -2.694506e+03 1.686222e+03 4.241862e+03 3.371014e+02 9.685217e+02 -2.203743e+03 -4.507720e+03 2.554281e+03 1.567924e+03 -4.770649e+01 -1.549062e+03 5.004806e+03 
1.468639e+03 -5.611135e+03 -1.891838e+03 1.368321e+03 1.457718e+02 -1.864949e+03 -1.345128e+03 2.834993e+03 1.854384e+03 1.529078e+03 -7.921648e+02 -1.631427e+03 -8.232897e+02 1.086529e+03 1.243647e+03 2.804890e+02 -1.976218e+03 1.706021e+03 -1.889449e+02 3.361751e+02 4.612568e+02 1.100248e+03 3.021189e+02 1.051169e+03 -1.007891e+03 -5.879880e+02 -1.811667e+03 -2.295133e+03 2.402433e+02 3.057196e+03 -7.616794e+02 -9.455430e+02 2.531831e+03 3.397649e+03 -2.332982e+03 -4.860599e+03 -5.735898e+02 1.932999e+03 3.346131e+03 3.091450e+03 -1.149608e+03 -2.317041e+03 1.732866e+03 2.201573e+03 -2.870335e+03 1.194770e+02 6.349383e+03 9.713703e+02 -4.436783e+03 -2.253367e+03 3.455006e+03 -3.431272e+03 2.308610e+03 2.771900e+03 -1.739094e+03 -1.138417e+03 -1.572314e+03 3.812698e+03 8.292550e+02 -1.216282e+03 -2.821294e+03 1.228928e+03 -4.287348e+03 -5.164283e+03 
-1.014088e+03 1.248164e+03 -7.817276e+02 -1.002327e+03 -3.896155e+02 -2.134765e+03 -1.050813e+03 3.320642e+03 2.835843e+03 1.882166e+03 -7.814028e+02 -1.160259e+03 -6.028125e+02 -2.699753e+03 2.026625e+03 1.707162e+03 1.434918e+03 2.595356e+03 1.584700e+03 9.277298e+02 -7.881269e+02 -3.416195e+02 -3.562425e+02 -1.845134e+03 5.750148e+01 -3.916499e+02 -6.336132e+02 2.861731e+03 -4.714833e+02 -1.514711e+03 1.405729e+03 -4.200020e+02 -1.978256e+02 -1.248132e+03 1.448032e+03 8.343233e+02 -1.361487e+03 -1.683079e+03 6.844677e+02 -2.596789e+02 -1.579609e+03 -1.955585e+03 -1.413438e+03 1.870650e+03 1.601233e+03 2.336728e+03 5.496959e+02 -5.189749e+03 4.032527e+01 -2.656307e+03 1.269643e+03 7.352393e+03 -8.376459e+03 -5.094154e+02 -2.771237e+03 -3.576813e+03 4.182988e+03 7.136694e+03 -4.109858e+03 -6.176122e+03 -3.429220e+01 2.719114e+03 -3.931489e+03 -6.666836e+03 
2.973746e+03 3.340477e+03 -2.793818e+02 1.052714e+03 -2.689481e+02 -2.505067e+03 -7.064109e+02 4.888121e+03 2.971747e+03 -1.723645e+03 2.659174e+03 -1.346541e+03 -3.625400e+03 -5.267019e+03 8.953026e+02 5.499232e+02 -8.576720e+02 -3.026502e+03 -1.152432e+03 -8.510687e+02 5.774780e+02 -1.772956e+03 -1.674359e+03 -1.360120e+03 -5.135813e+02 2.543619e+02 4.780996e+02 2.240582e+03 -1.010591e+03 -1.165996e+03 1.799743e+03 1.740901e+02 -3.127815e+02 -6.004811e+02 5.738081e+01 1.867496e+03 -9.531048e+02 -4.938858e+02 9.846533e+02 -1.920777e+03 -2.958680e+03 -7.840527e+02 -5.448494e+02 1.980129e+03 -3.371076e+02 -3.552592e+03 -1.659921e+03 2.565520e+03 2.691677e+03 9.758814e+02 -5.186543e+02 -4.089077e+02 -3.227467e+03 -6.319763e+02 1.882219e+03 -2.293013e+03 1.379357e+03 4.573238e+02 -6.555918e+03 -1.902636e+03 1.686748e+03 -6.542775e+02 7.741917e+03 4.045704e+03 
1.475359e+03 -4.126114e+03 -2.887559e+02 1.670981e+03 -9.155794e+02 -1.983805e+03 2.259261e+02 5.354082e+03 -1.227541e+03 -5.001637e+03 3.220156e+03 3.259125e+03 -5.228499e+02 -2.477572e+03 -3.764738e+03 -2.341667e+03 -1.365451e+03 -4.818949e+02 -1.717257e+03 -2.247376e+03 -2.132034e+03 -2.099051e+03 -7.843196e+02 -5.101706e+02 3.540254e+02 -1.651680e+03 -7.675915e+02 -2.297475e+03 -6.005364e+02 1.349565e+03 -3.567001e+03 -1.807793e+03 -1.291862e+03 -1.437611e+03 -1.856087e+03 2.672732e+03 2.689032e+03 -2.246364e+02 -4.153530e+03 6.127164e+03 1.719440e+03 -4.017255e+03 -2.177713e+03 1.661404e+02 -9.855142e+02 -6.020818e+02 3.524233e+03 4.098579e+02 -4.879222e+03 -4.428883e+02 -3.615127e+03 -2.500056e+03 2.741239e+03 -5.741901e+02 3.993106e+03 -6.272582e+03 5.095449e+03 -4.133782e+03 -1.684335e+03 4.321058e+02 3.384715e+03 -1.767452e+03 1.839100e+03 7.312801e+03 
1.901091e+03 -4.438414e+03 -2.687376e+03 -2.785543e+02 1.907258e+02 -1.505370e+03 2.878480e+02 2.220527e+03 -4.590599e+03 1.685103e+03 -1.550519e+03 3.127240e+03 4.019762e+02 -3.165566e+02 1.641795e+02 -4.855370e+02 1.426267e+02 1.179708e+03 -1.386803e+02 -2.835953e+02 9.806025e+01 -6.398786e+02 -1.730644e+03 -4.526739e+02 2.595307e+02 -4.868514e+02 1.270326e+02 4.281590e+01 1.709950e+03 -1.694087e+03 -8.737640e+02 1.759682e+03 1.011598e+03 2.744269e+03 -1.933106e+03 -1.927679e+03 4.191503e+03 -3.626179e+02 -2.894557e+03 1.289580e+02 1.706896e+03 -1.248785e+03 -1.602238e+03 -3.788307e+03 -7.387601e+02 3.537228e+03 -1.386778e+03 1.064896e+03 1.685593e+03 1.569605e+03 -3.615120e+03 4.220588e+02 6.090865e+02 -4.657256e+03 -5.100707e+03 6.124006e+03 5.906820e+03 4.662977e+03 -1.382861e+03 -5.789589e+03 2.121350e+03 2.071663e+03 -5.829420e+03 1.187399e+02 
3.593507e+03 -2.736459e+03 -1.592377e+02 -3.974762e+02 -1.204198e+03 -6.030465e+02 -6.469226e+02 -8.386973e+02 -8.639623e+02 6.097993e+02 -5.156249e+03 -6.697063e+02 5.309617e+02 3.275057e+03 2.405253e+03 1.731362e+03 3.043309e+03 1.751286e+03 2.733285e+03 1.957129e+03 1.206975e+03 8.808819e+02 -7.679711e+02 -1.830177e+03 -2.915459e+03 -1.806283e+03 -3.483203e+02 2.480462e+02 -2.781696e+02 2.329020e+03 2.281014e+03 1.576604e+03 1.392240e+03 3.101516e+01 -4.611954e+03 -3.195961e+03 1.880135e+03 -8.120085e+02 1.441512e+03 1.359185e+03 1.485721e+01 -5.802988e+02 9.376346e+02 -8.585786e+02 -5.084001e+02 4.812240e+03 2.552212e+03 -1.219561e+03 5.263555e+03 1.226904e+03 1.594189e+03 3.105388e+03 -2.942079e+02 1.046705e+03 -6.488326e+03 3.208183e+03 2.958481e+03 2.264354e+03 -3.393143e+03 1.326849e+03 1.701637e+03 6.888438e+03 3.086007e+03 -3.404045e+03 
3.043546e+01 7.399466e+03 -1.063153e+03 -1.447246e+03 -2.367683e+02 -3.718173e+01 -2.436860e+03 -4.568977e+03 3.037423e+03 1.645062e+03 2.505369e+02 -3.771344e+03 2.108116e+03 2.109840e+03 -7.811816e+02 2.854777e+03 2.283035e+03 1.232708e+03 1.630446e+03 2.180558e+03 -5.002768e+02 -8.168502e+02 2.195467e+02 5.679414e+00 -1.130936e+03 -1.964043e+03 -1.703215e+02 1.326183e+03 -1.321671e+03 5.295645e+02 1.867157e+03 -2.069150e+03 -4.146565e+02 1.523038e+03 1.858198e+03 -1.939519e+02 -1.586084e+03 3.131621e+03 -1.065099e+03 -3.256839e+03 1.280768e+03 3.645138e+03 -2.256330e+03 3.839465e+02 4.124083e+03 2.111229e+02 1.103538e+03 -2.177007e+03 3.173657e+03 -5.337652e+03 -1.934767e+03 -9.994239e+02 -6.315190e+03 3.174767e+03 5.059324e+03 7.138081e+02 -1.650765e+03 -3.536468e+03 1.608539e+03 7.071963e+03 -4.400169e+02 -5.120085e+03 6.946517e+02 -3.563178e+03 
-2.246509e+03 2.967064e+03 1.820208e+03 1.241426e+02 -1.163531e+03 -2.355773e+02 -1.489515e+03 -1.701446e+01 2.102086e+03 -9.667159e+02 1.443623e+03 -1.606051e+03 2.153574e+03 -1.776498e+03 -3.000902e+03 4.919333e+02 3.195628e+02 -2.606047e+02 -6.447955e+02 1.086106e+03 4.347983e+00 -1.067378e+03 -5.331294e+02 9.163069e+01 -2.149303e+02 -6.211158e+02 -6.219458e+02 1.256279e+03 3.275509e+03 -3.079251e+03 -1.192775e+03 -2.511324e+01 3.171489e+03 2.051682e+03 6.547082e+02 8.631663e+02 -2.345733e+03 5.006067e+03 1.914570e+03 -4.245616e+03 -1.712207e+03 3.328263e+03 -1.158752e+03 -8.640365e+02 6.913997e+02 -1.484738e+03 -3.360165e+03 -9.083567e+02 -2.843795e+03 4.282305e+02 -3.572527e+03 -5.182760e+03 4.817081e+03 7.528280e+02 -1.691092e+02 -1.189578e+03 -2.779519e+03 -3.231114e+03 5.162652e+03 -5.110136e+02 -6.225044e+03 -3.117873e+03 -1.947977e+03 2.187252e+03 
-5.759483e+02 -4.346653e+02 1.568386e+03 9.471012e+02 -7.479275e+02 -6.576601e+02 -1.998742e+03 -4.650596e+02 9.680944e+02 3.228410e+03 7.077821e+02 4.075624e+02 1.169200e+03 -2.601286e+02 8.261295e+02 1.648032e+03 -3.092513e+02 -2.479866e+02 6.775398e+02 -1.168841e+02 6.115925e+02 -5.867424e+01 -1.441016e+02 -1.137526e+02 1.993682e+03 -1.176567e+03 -1.463768e+03 -4.463929e+02 6.091436e+02 -6.868999e+02 -1.158941e+03 1.747104e+03 -2.291032e+03 -1.906012e+03 3.650674e+03 -1.545725e+01 -4.101303e+03 -1.360501e+03 2.726275e+03 2.628459e+02 -1.985986e+03 -4.025656e+03 2.249398e+03 7.540301e+02 9.491423e+02 6.115402e+03 -6.520673e+03 7.493169e+02 1.646403e+03 3.762042e+03 5.550562e+03 -4.195595e+03 -1.415345e+03 -2.188262e+03 6.077951e+03 -1.735231e+03 -3.650706e+02 3.924875e+03 1.592159e+03 1.783627e+03 -2.227788e+02 -4.515584e+03 2.348855e+03 1.181082e+03 
-2.817356e+03 -3.507227e+03 1.685369e+03 6.419692e+02 -1.278127e+03 -1.455142e+02 -2.574996e+03 -2.638523e+03 2.927213e+03 2.886046e+03 -3.524839e+02 -5.181717e+02 1.573864e+03 1.208329e+03 3.893518e+03 1.698143e+03 1.101187e+03 -7.671457e+02 4.939830e+02 1.095763e+02 3.262384e+01 7.783491e+02 -9.085574e+02 -9.888476e+02 -8.328864e+02 1.657952e+03 -2.531098e+03 -3.777111e+03 -1.754733e+03 3.142316e+03 2.175112e+03 -1.934131e+03 -1.158072e+03 -2.439921e+03 5.612504e+02 2.280525e+03 1.726859e+03 -8.703717e+02 1.818814e+03 3.525413e+03 -9.042457e+02 -1.212718e+03 -7.330450e+02 -2.910872e+03 1.291380e+03 2.886066e+03 1.606875e+03 -4.381696e+02 1.704210e+03 4.378433e+03 1.465843e+03 -2.819043e+03 4.724035e+03 1.227006e+03 -3.502420e+03 1.075271e+03 2.518996e+03 8.274107e+02 -7.801401e+03 2.508467e+03 3.697150e+03 -1.190133e+03 8.175292e+03 -9.254590e+02 
5.514789e+03 -1.723726e+01 -4.021839e+03 -6.684089e+02 4.059968e+01 -3.218778e+02 -2.038062e+03 -2.447602e+03 1.574181e+03 2.899484e+03 -9.031549e+01 -3.468355e+03 -1.787291e+02 2.839856e+02 1.499323e+02 4.158458e+02 1.928170e+02 3.613134e+02 7.017866e+02 -1.668547e+03 7.772948e+02 6.923246e+02 5.787346e+02 -4.805195e+02 -2.541791e+03 2.500516e+03 1.963764e+03 -1.322885e+03 -1.608518e+03 9.217548e+02 1.736764e+03 1.056299e+03 -5.620708e+02 -2.263921e+03 1.576387e+03 2.039514e+02 -1.723251e+03 -1.341029e+03 1.717733e+03 1.321648e+03 -3.138582e+02 -3.890476e+03 1.127359e+02 1.861290e+03 1.662434e+03 -3.643012e+03 1.203225e+03 -3.750831e+02 -2.959825e+03 -3.015511e+03 -1.024113e+03 -1.545846e+03 -1.289989e+03 -3.797492e+03 3.747959e+01 2.587280e+03 1.868922e+03 4.963560e+03 -1.037121e+03 -6.587194e+03 -1.820609e+03 1.196631e+03 -3.718082e+03 9.352186e+02 
7.403979e+03 1.452183e+02 6.343357e+02 -7.624894e+01 -6.639698e+02 -5.452752e+02 -1.548518e+03 3.124121e+02 5.711175e+02 1.124612e+03 -2.228707e+03 1.134081e+03 -1.203145e+03 2.038881e+03 1.206122e+03 2.558564e+03 2.076828e+02 5.776368e+02 5.951647e+02 -7.068384e+02 4.872202e+02 -8.046355e+02 2.781568e+02 1.718583e+03 2.846356e+02 -9.563014e+02 1.643208e+03 4.572920e+02 1.484472e+03 3.280173e+03 1.031119e+03 -1.375247e+03 6.484322e+02 1.730060e+03 -3.101458e+03 -5.948547e+03 7.813189e+01 -5.191807e+02 -1.214686e+03 8.622760e+02 6.263731e+02 -3.588738e+03 1.579353e+03 7.317245e+02 9.833629e+02 -2.489562e+03 1.147976e+03 -1.752928e+03 -1.526344e+03 -2.867279e+03 -1.144103e+03 -1.346383e+03 -1.017312e+03 9.870397e+02 -6.133170e+03 5.517554e+03 8.269258e+03 2.297944e+02 1.389018e+03 -3.470571e+03 2.979012e+03 -1.390431e+03 -8.553595e+03 5.534669e+03 
2.528027e+03 -5.277913e+03 -3.952338e+02 1.803319e+03 -9.359074e+02 -6.799678e+02 -2.329793e+03 -2.364761e+02 1.543892e+03 1.562490e+03 1.358350e+03 2.938444e+03 1.457406e+03 1.856240e+03 2.502527e+03 -6.268499e+01 -3.490638e+02 5.446379e+02 -3.907507e+02 6.285996e+02 1.019386e+03 -2.285986e+02 -5.735148e+02 -5.492242e+02 4.217270e+02 -1.081816e+03 -1.721102e+03 -6.424678e+01 5.170933e+02 -2.035796e+03 -5.391401e+02 1.525790e+03 -9.342940e+02 -4.444058e+02 2.950060e+03 8.140045e+02 -1.022158e+03 -9.783962e+02 1.216679e+03 3.558692e+03 -6.817950e+02 2.200476e+03 4.608847e+02 2.518458e+03 4.151586e+03 -6.169461e+03 -4.278312e+03 -3.574275e+02 -2.592996e+02 -2.850407e+03 -1.743834e+03 6.987907e+03 4.733163e+03 -1.116153e+03 -1.837391e+03 8.223647e+02 -5.344418e+03 -9.319297e+02 4.952749e+03 4.983188e+03 -1.293063e+03 -1.050190e+03 2.677091e+03 -4.011492e+02 
-7.875916e+03 -1.953847e+03 -3.096517e+03 -4.865489e+02 7.321711e+02 -1.543500e+02 -1.055376e+03 -1.703610e+03 1.755080e+03 2.821488e+03 4.831756e+03 1.253262e+00 6.135009e+02 -4.758470e+02 1.692358e+03 -7.489836e+02 -1.293068e+03 7.425318e+02 -3.247973e+02 -2.068733e+03 -1.125311e+02 3.677689e+02 -1.101327e+03 -9.170528e+02 1.652694e+03 2.397607e+03 1.051472e+02 6.120363e+01 1.936697e+01 -1.365100e+03 -1.977292e+03 -9.057339e+02 4.058557e+02 2.717370e+03 -2.185890e+02 2.373845e+03 1.651772e+03 -3.101409e+02 3.009227e+03 1.797591e+03 -2.362564e+03 -5.728844e+03 2.978976e+03 4.375213e+03 -2.344025e+03 4.423914e+03 -2.759936e+03 -9.540577e+02 3.095125e+02 5.202165e+03 -6.092633e+03 -5.251092e+03 2.894818e+02 1.932081e+02 2.814084e+03 -1.362585e+03 -3.155686e+03 -1.179654e+03 -1.966268e+03 -4.258194e+03 -8.949908e+03 2.039189e+02 6.569959e+03 -2.463249e+03 
1.640387e+03 1.902632e+03 8.361291e+02 8.497899e+02 -8.460714e+02 -1.309691e+02 -1.090599e+03 -1.785245e+03 7.173333e+02 1.457198e+03 1.896081e+03 -8.068548e+02 -1.168137e+03 -1.014489e+03 7.507121e+01 3.906190e+02 -1.990675e+01 2.046276e+03 7.137153e+02 -1.784602e+02 -9.754847e+02 -7.968032e+00 1.172171e+02 5.706797e+02 -2.082619e+03 -7.683032e+02 2.293480e+03 2.583687e+03 3.602845e+02 5.730858e+02 -1.240112e+03 6.279495e+02 4.120496e+02 -9.321657e+02 -4.530471e+02 -1.735734e+03 -3.397881e+03 -2.097232e+02 3.072952e+03 2.569568e+02 -2.139189e+03 -4.926543e+02 -5.852506e+02 -2.231429e+03 5.051830e+02 3.388672e+03 1.035242e+03 -2.568103e+02 -3.195510e+02 2.333440e+03 -3.165200e+03 -4.107380e+03 -1.886926e+03 8.433921e+03 1.453638e+03 -2.464297e+03 4.075725e+03 -9.739659e+02 -4.198507e+03 -2.367825e+03 -5.798544e+02 3.466554e+02 -1.971398e+03 -2.237092e+02 
5.051508e+03 1.443393e+03 4.792362e+02 2.264292e+03 -2.105352e+02 2.401917e+02 -1.064404e+03 -1.741184e+03 -3.331554e+03 3.953200e+02 -6.493227e+02 1.438785e+03 -2.263780e+03 -1.676044e+03 6.283722e+02 4.558930e+02 -2.272734e+02 9.774798e+02 2.723629e+02 7.160347e+02 6.863729e+02 1.483306e+03 8.210248e+02 -8.898941e+02 -1.516359e+03 -4.184077e+03 -9.284243e+02 8.745364e+02 9.251711e+02 3.155607e+03 5.689026e+01 2.554597e+02 3.967912e+03 1.478275e+03 -1.810420e+03 -1.168612e+03 3.555209e+02 -2.261329e+03 -2.450203e+03 -8.714950e+02 -7.953480e+01 3.047166e+03 -8.743159e+02 -1.739868e+03 -5.130206e+02 -1.394844e+03 9.828101e+02 -8.139663e+01 1.601614e+03 7.919884e+01 1.950185e+03 -9.088165e+02 -5.192963e+03 1.732467e+03 1.331442e+03 -1.049909e+03 1.254476e+03 -4.642034e+03 5.007747e+03 4.974154e+03 2.131208e+03 6.337409e+03 6.417551e+02 -7.255136e+02 
8.944995e+02 -7.609902e+03 -2.025538e+03 8.193947e+02 -3.402068e+02 2.892845e+02 -2.322421e+02 -2.272695e+03 -5.601187e+03 3.081712e+03 4.234136e+03 -1.798033e+03 -4.045320e+03 2.573338e+03 -1.009906e+02 -4.515145e+02 5.559557e+02 -1.525645e+03 -1.132773e+03 -1.929879e+02 4.944836e+01 -1.276415e+02 3.649559e+02 -2.346147e+02 3.159480e+02 6.126779e+02 3.590893e+02 2.297643e+02 2.767199e+02 -6.428932e+02 -2.481372e+02 1.490317e+03 -6.402897e+02 6.804622e+02 -2.872399e+01 -2.295415e+02 6.830686e+02 -1.461172e+03 -3.930210e+02 -1.294544e+03 6.320410e+01 -1.545876e+03 3.905497e+03 -1.571807e+03 -4.097169e+03 1.189800e+03 1.450352e+03 -7.441583e+02 -1.785443e+02 1.369266e+03 2.617710e+03 -2.454544e+03 -8.717866e+02 -6.736765e+03 8.111478e+02 2.937467e+03 -2.723009e+03 -1.484459e+03 -3.950038e+03 5.202967e+03 -3.330609e+03 2.650882e+03 5.865837e+03 4.444519e+03 
-1.263307e+03 -3.041413e+03 -5.371915e+03 -3.368253e+03 7.750659e+02 -5.927155e+01 8.553973e+02 -8.487856e+02 2.640188e+03 2.269971e+03 -9.450702e+02 -6.250675e+03 -9.265765e+02 1.863431e+03 3.302611e+03 1.224699e+03 1.219625e+02 -1.227525e+03 2.586308e+02 -8.861788e+02 -5.346217e+02 8.773935e+02 3.410551e+02 1.270793e+03 -1.266638e+03 2.644447e+03 1.489694e+03 -2.712773e+02 3.924693e+02 -2.592308e+03 -6.619460e+02 -2.389047e+03 -3.529071e+03 -1.188804e+03 -4.353411e+01 3.736929e+02 -6.516559e+02 6.661757e+02 2.680184e+03 -1.119445e+03 -1.582845e+03 -1.949193e+02 3.051708e+03 -1.138250e+03 -4.052219e+03 -3.865033e+02 2.609443e+02 3.035750e+03 1.327440e+03 -3.176233e+03 -1.942453e+03 8.899520e+02 6.507849e+03 -3.580766e+03 -2.178754e+03 3.503938e+03 -4.878188e+03 3.777415e+03 -2.477310e+03 -5.564474e+02 -6.816768e+02 1.580073e+02 1.684444e+03 -2.575899e+03 
-3.870895e+03 -3.726140e+03 4.065066e+03 2.302237e+03 -2.665737e+02 -1.360971e+02 -9.366144e+02 7.600163e+01 4.470321e+03 2.743359e+02 -7.800720e+02 -4.207789e+03 1.190577e+03 1.463129e+03 1.667298e+03 2.785182e+02 -6.145357e+02 -1.025916e+03 1.473479e+02 -5.852069e+02 -5.116844e+02 1.226494e+03 5.400469e+02 4.519729e+02 -8.656282e+02 -1.078866e+03 -1.438461e+03 -4.218750e+02 -2.168797e+02 -7.627734e+02 1.219295e+03 5.366983e+02 -2.437756e+03 -2.037006e+03 9.310553e+02 1.979361e+03 -2.374307e+03 2.337045e+01 -1.231401e+03 -1.840637e+02 1.227078e+03 6.672162e+02 -7.642786e+02 5.291555e+02 3.251818e+03 8.164759e+02 -1.366437e+03 4.812227e+02 -4.359190e+03 1.923124e+03 6.425947e+03 1.806931e+02 -3.930849e+03 6.662189e+03 2.627235e+03 -1.516907e+02 -2.326649e+03 -5.386333e+03 5.567159e+03 3.360100e+03 -1.922871e+03 -7.244042e+02 1.292960e+03 3.938499e+03 
2.337839e+03 -1.507843e+03 5.224066e+03 1.472989e+03 -2.179255e+03 -6.983511e+01 2.919636e+02 2.270915e+02 -3.824788e+03 2.020803e+03 -3.848984e+02 -1.834623e+03 1.558638e+03 -1.546050e+03 -6.532543e+02 6.287299e+02 -1.092171e+03 4.654689e+02 1.760340e+02 -3.660765e+02 -8.381206e+02 6.838551e+02 2.520293e+02 -1.690536e+03 -9.830694e+02 -4.938507e+02 -2.927189e+03 -2.823600e+03 9.538095e+02 1.543715e+03 9.159276e+02 -1.773273e+03 4.091740e+02 1.556660e+03 -1.226419e+03 -5.536685e+02 -1.077648e+03 -3.574848e+03 -1.405829e+03 2.673149e+03 3.698894e+02 -1.108477e+03 9.774754e+02 1.137041e+02 -2.051242e+03 -1.489611e+03 -6.876737e+02 3.847441e+02 3.065973e+03 -1.519907e+03 -1.756821e+03 4.358578e+03 1.023546e+03 1.564412e+03 -2.530072e+03 -6.307396e+02 1.009880e+03 -1.031605e+03 -2.477560e+03 -3.121557e+02 7.052515e+02 7.492521e+03 -5.394024e+02 1.726465e+03 
1.136759e+03 -6.707468e+02 -2.302597e+03 7.449387e+02 4.622176e+02 -1.330654e+02 -5.270595e+02 2.588225e+02 -1.362657e+03 -7.376188e+02 1.780527e+03 1.991732e+03 -1.960284e+03 -2.406796e+03 -1.742132e+03 1.727678e+03 -5.667363e+02 -1.133629e+02 4.046059e+02 4.042385e+02 1.820665e+03 -1.518565e+03 -2.331570e+03 9.956675e+02 3.271662e+03 8.214859e+02 -1.599046e+03 -8.466227e+02 1.328240e+03 -7.384214e+02 -5.635958e+02 4.224810e+02 4.147506e+02 1.307563e+03 1.159107e+03 -9.380807e+02 -9.407633e+02 -3.356495e+03 1.407480e+02 -8.125004e+02 1.753840e+02 5.413411e+02 -1.891927e+03 1.848722e+03 1.858298e+03 1.741985e+03 -6.444172e+02 -8.425069e+02 -1.006779e+03 -4.741777e+03 2.191673e+03 6.293486e+03 -3.180319e+03 -9.646264e+03 -1.480901e+03 1.154512e+03 4.698922e+03 2.235663e+03 4.413940e+03 -2.089482e+03 -1.449694e+02 -2.761843e+03 -1.631202e+03 -1.488169e+03 
1.524241e+03 2.351263e+03 2.852887e+03 -8.933970e+02 -1.990160e+03 5.657558e+02 -7.178645e+02 -2.821915e+03 3.008892e+03 9.009875e+02 -1.138350e+03 -5.430437e+02 -3.031310e+03 6.080529e+02 1.504601e+03 2.189756e+03 -7.349509e+02 -3.788896e+02 7.570672e+02 8.722575e+02 6.193999e+02 -1.326768e+03 -6.182964e+02 2.447463e+02 7.368248e+02 7.419088e+02 1.094144e+02 1.640248e+03 -1.253455e+02 -1.179111e+03 -6.667666e+02 2.225104e+03 7.772082e+02 -2.000919e+03 3.697240e+02 1.393732e+03 4.850827e+02 6.145792e+02 -9.751221e+02 -2.073031e+03 5.982809e+02 7.203983e+02 -1.082204e+03 -9.294048e+02 4.979229e+02 1.211670e+03 2.267077e+03 1.847409e+02 -2.484994e+01 -4.104668e+03 3.134804e+03 3.967350e+03 -5.253911e+03 -2.469833e+02 2.763342e+03 3.181810e+01 9.699622e+02 3.063721e+03 9.610224e+02 -4.787175e+03 -2.964464e+03 1.292007e+03 1.207372e+03 -1.595526e+03 
-1.512485e+03 1.498512e+02 -5.382539e+02 -3.352346e+02 3.656227e+02 1.720259e+02 -7.157972e+02 -3.055080e+02 1.423297e+03 2.340308e+02 -1.668852e+03 -1.447567e+03 1.973695e+03 2.299343e+02 3.724373e+02 3.595596e+02 -2.498640e+02 5.059732e+02 -3.352977e+02 -8.386375e+02 8.092416e+01 1.437568e+03 1.896156e+03 1.323434e+02 -1.277096e+03 3.424245e+02 -1.734597e+03 -1.212051e+03 -2.174500e+02 -4.254659e+01 1.492620e+03 -3.601337e+02 -1.472688e+03 -2.082835e+03 -1.210133e+03 2.810764e+03 -9.636534e+02 4.622940e+02 1.922062e+02 4.753155e+02 -3.137985e+03 5.500726e+02 1.460560e+02 -1.827174e+02 2.025266e+03 -6.216425e+02 -3.750991e+02 -9.547851e+02 9.138139e+02 2.246049e+03 -2.847584e+03 2.000289e+03 1.806582e+02 -3.933703e+03 1.509475e+03 2.714072e+03 -2.761312e+03 -1.468557e+03 -3.740817e+03 2.398524e+03 -1.151175e+03 4.768719e+03 1.341787e+03 -1.525061e+03 
-1.071003e+03 8.161682e+02 4.832540e+03 -6.690265e+02 -1.663863e+03 2.594524e+01 -1.094054e+03 -9.390701e+01 1.808654e+03 2.099881e+02 1.067951e+03 5.847950e+02 1.715506e+03 4.875418e+02 -1.829642e+02 -1.355815e+03 -9.472223e+02 2.703420e+02 -9.452869e+02 -4.027512e+02 4.060537e+02 -1.525707e+01 3.923025e+02 7.048763e+01 -4.464188e+02 -8.641244e+02 -1.242944e+03 -8.520890e+01 -4.589811e+02 -2.286650e+02 1.211244e+03 1.324788e+02 -1.993834e+02 1.804887e+03 1.145921e+03 -5.008843e+02 6.763020e+02 -1.305731e+03 -1.100716e+02 1.006334e+03 -8.383018e+02 7.285510e+02 1.116609e+03 1.351558e+02 -1.856683e+03 -2.764836e+03 7.459344e+02 1.736850e+03 -1.969574e+03 -3.084472e+00 -1.971606e+03 -6.742832e+02 1.643330e+03 2.276457e+03 4.876764e+03 -3.614791e+03 8.518218e+02 -2.016325e+03 -1.651693e+03 -9.245790e+02 3.389519e+03 3.166635e+03 -3.906693e+03 -1.830701e+03 
-1.357479e+03 1.812118e+03 1.443575e+03 -4.762364e+02 -3.534227e+02 5.512435e+02 -1.327906e+03 -3.412662e+03 1.285061e+03 3.006878e+03 1.132661e+03 6.562328e+01 -1.403733e+02 8.654356e+02 7.760691e+02 -5.516379e+02 -1.690798e+03 8.624046e+02 -3.165891e+02 -8.638096e+02 -2.107648e+02 -5.491953e+02 -6.684684e+02 5.069856e+01 4.491656e+02 -4.104761e+02 -9.608404e+01 -1.813218e+02 -9.973826e+02 4.963681e+02 -1.476998e+02 4.782160e+02 1.637668e+03 2.397698e+03 2.203042e+03 -1.167507e+03 -6.036363e+02 -7.891398e+02 -4.552882e+02 4.807455e+02 4.488728e+02 -2.489377e+03 -1.571914e+02 9.063922e+01 -1.535941e+03 -6.886753e+02 1.435303e+02 3.357918e+02 -4.290441e+02 -2.063650e+03 1.110455e+03 7.499655e+02 1.901990e+03 3.127055e+03 1.033746e+03 -4.494674e+03 1.844644e+03 2.392374e+02 -3.237963e+03 -3.202648e+03 4.241832e+03 -5.411199e+02 -2.020207e+03 -1.428911e+03 