# vtk DataFile Version 2.0
Comment goes here
ASCII

DATASET STRUCTURED_POINTS
FIELD FieldData 1
TIME 1 1 double
0.06500000
DIMENSIONS    256   32   1

ORIGIN    0.000   0.000   0.000
SPACING   0.0078125 0.0078125   1.000

POINT_DATA   8192
SCALARS Omega double
LOOKUP_TABLE default

5.044458e-08 1.876968e-07 3.756209e-07 5.657603e-07 2.195408e-07 -2.208347e-06 -8.152749e-06 -7.187021e-06 -7.329164e-06 -1.107521e-05 -6.422055e-06 -8.400345e-06 -4.176749e-05 -7.437188e-05 -2.338437e-04 -7.921626e-05 -1.457022e-04 -3.069253e-04 -3.757876e-05 -8.206155e-04 -7.024617e-04 4.075977e-04 -2.663049e-06 1.471644e-04 -2.103627e-05 -2.113215e-04 2.821110e-06 -2.405332e-05 -1.861655e-04 -4.007755e-04 -6.567502e-04 -5.581290e-04 -3.942436e-04 -3.746322e-04 -7.150156e-04 -1.129854e-03 -1.295945e-03 -1.046690e-03 -9.663284e-04 -1.408520e-03 -1.959677e-03 -2.608308e-03 -2.238908e-03 -2.091638e-03 -2.607243e-03 -3.588169e-03 -5.032849e-03 -4.750595e-03 -4.761623e-03 -4.981872e-03 -6.165055e-03 -8.684769e-03 -8.745526e-03 -9.335004e-03 -8.632926e-03 -9.701041e-03 -1.423043e-02 -1.291057e-02 -1.009640e-02 1.590402e-03 4.353385e-03 -4.575938e-02 1.781749e-02 1.834629e-01 9.448502e-02 -3.679818e-02 8.241295e-03 2.687583e-02 1.697570e-02 -5.894839e-03 -1.932211e-02 -1.253421e-02 -1.294837e-02 -1.157952e-02 -1.212698e-02 -1.371513e-02 -1.068672e-02 -1.064479e-02 -1.012897e-02 -9.676876e-03 -1.136978e-02 -9.214772e-03 -1.010740e-02 -1.050991e-02 -1.016094e-02 -1.265784e-02 -1.010019e-02 -1.153979e-02 -1.285181e-02 -1.182834e-02 -1.308389e-02 -6.962921e-04 6.027244e-03 -1.389721e-02 5.091076e-03 8.954321e-02 1.027337e-01 3.450404e-02 3.526798e-03 4.564905e-03 8.588785e-03 -4.285709e-03 -1.514495e-02 -1.312923e-02 -1.361390e-02 -1.131319e-02 -1.105135e-02 -1.229429e-02 -9.853420e-03 -1.030849e-02 -9.505538e-03 -8.827798e-03 -1.052460e-02 -8.392979e-03 -9.816328e-03 -9.668543e-03 -9.362914e-03 -1.206572e-02 -9.199877e-03 -1.140563e-02 -1.167129e-02 -1.114404e-02 -1.305773e-02 -1.023970e-04 7.576757e-03 -5.107227e-03 -6.383651e-03 6.365035e-02 1.194989e-01 5.778092e-02 -4.907726e-03 -3.313791e-03 7.306785e-03 -3.638662e-03 -1.399604e-02 -1.320754e-02 -1.368375e-02 -1.116853e-02 -1.091703e-02 -1.175312e-02 -9.468164e-03 -1.025519e-02 -9.253642e-03 -8.782233e-03 -1.025032e-02 -8.040512e-03 -9.904609e-03 -9.390563e-03 -9.321223e-03 -1.184376e-02 -8.815729e-03 -1.166853e-02 -1.130110e-02 -1.113561e-02 -1.272756e-02 4.114811e-04 6.807503e-03 -3.516620e-03 -7.259839e-03 5.908043e-02 1.227582e-01 6.309943e-02 -7.338643e-03 -5.182541e-03 7.498000e-03 -3.886910e-03 -1.370193e-02 -1.325401e-02 -1.374545e-02 -1.112255e-02 -1.108145e-02 -1.147026e-02 -9.271641e-03 -1.030769e-02 -9.093946e-03 -8.879888e-03 -1.003500e-02 -7.829180e-03 -9.980147e-03 -9.154528e-03 -9.420980e-03 -1.157802e-02 -8.575297e-03 -1.181342e-02 -1.094265e-02 -1.111370e-02 -1.205013e-02 1.013008e-03 5.937732e-03 -3.409756e-03 -5.126660e-03 6.166461e-02 1.232550e-01 6.122249e-02 -7.888014e-03 -2.756556e-03 9.148060e-03 -3.645806e-03 -1.206625e-02 -1.198389e-02 -1.213043e-02 -9.278661e-03 -9.502250e-03 -8.561236e-03 -7.020108e-03 -7.110634e-03 -5.589427e-03 -5.348084e-03 -4.622742e-03 -3.759678e-03 -3.857667e-03 -2.937163e-03 -2.741810e-03 -2.251309e-03 -1.940848e-03 -1.938135e-03 -1.486730e-03 -1.483165e-03 -1.232359e-03 -1.038651e-03 -1.020747e-03 -7.643533e-04 -7.310459e-04 -5.879172e-04 -5.552770e-04 -5.453395e-04 -4.074651e-04 -3.998589e-04 -3.211274e-04 -2.424698e-04 -1.903628e-04 -1.449019e-04 -9.464075e-05 -7.018959e-05 -8.044143e-05 -4.629412e-05 -6.717885e-05 -7.884001e-05 -6.323062e-05 -8.568634e-05 -7.859948e-05 -6.597370e-05 -7.943458e-05 -5.910080e-05 -5.553303e-05 -5.061830e-05 -3.645287e-05 -3.912144e-05 -3.029298e-05 -2.904059e-05 -2.248218e-05 -5.697463e-06 4.495582e-07 4.709340e-07 9.420756e-08 -1.709667e-08 
-2.380419e-02 -1.132430e-01 -4.594653e-01 -1.487334e+00 -3.724666e+00 -7.470932e+00 -1.008275e+01 -8.266581e+00 -7.805477e+00 -8.930186e+00 -1.228490e+01 -1.871711e+01 -2.640915e+01 -4.307096e+01 -4.511263e+01 -3.923048e+01 -5.401055e+01 -4.890968e+01 -5.808190e+01 -5.484451e+01 -2.414110e+01 -3.280031e+01 -2.398823e+01 -2.095580e+00 -9.935341e+00 -6.079323e+00 -5.305575e+00 -8.029993e+00 -2.958702e+00 -7.442293e+00 -3.986737e+00 -4.378831e+00 -5.418744e+00 -1.515924e+00 -5.618576e+00 -2.378544e+00 -3.720157e+00 -3.619158e+00 -4.813361e-01 -4.121739e+00 -1.174686e+00 -3.010268e+00 -2.223115e+00 1.571065e-01 -2.839410e+00 -2.290103e-01 -2.208141e+00 -1.017378e+00 6.516649e-01 -1.665245e+00 6.540431e-01 -1.226364e+00 2.518806e-02 9.111084e-01 -7.358913e-01 1.204393e+00 -4.901351e-01 7.726570e-01 8.921498e-01 5.180695e-02 1.893614e+00 6.183614e-02 1.583477e+00 2.088211e+00 1.430570e+00 2.231860e+00 8.727364e-01 2.247636e+00 1.601814e+00 1.375096e+00 2.612273e+00 1.317916e+00 2.387640e+00 1.719404e+00 1.855185e+00 2.863838e+00 1.735058e+00 2.739266e+00 2.058372e+00 2.327399e+00 3.042732e+00 2.096762e+00 3.054330e+00 2.392612e+00 2.737714e+00 3.143398e+00 2.388257e+00 3.327985e+00 2.660902e+00 3.061595e+00 3.212354e+00 2.678455e+00 3.658870e+00 2.857186e+00 3.385659e+00 3.893586e+00 3.516579e+00 3.961413e+00 3.128992e+00 3.611515e+00 3.519231e+00 3.114473e+00 3.825609e+00 3.172502e+00 3.615454e+00 3.466431e+00 3.269493e+00 3.927188e+00 3.292100e+00 3.780587e+00 3.575724e+00 3.481364e+00 4.015358e+00 3.390197e+00 3.937078e+00 3.667754e+00 3.675836e+00 4.058196e+00 3.452352e+00 4.080219e+00 3.728915e+00 3.821296e+00 4.095315e+00 3.566220e+00 4.307136e+00 3.826772e+00 3.950943e+00 4.529796e+00 4.285790e+00 4.630456e+00 3.859470e+00 4.082745e+00 4.234084e+00 3.694358e+00 4.273965e+00 3.782466e+00 4.011803e+00 4.048232e+00 3.705825e+00 4.282491e+00 3.760880e+00 4.070755e+00 4.023942e+00 3.808516e+00 4.299437e+00 3.736430e+00 4.154197e+00 4.021664e+00 3.911822e+00 4.318228e+00 3.740445e+00 4.252034e+00 4.033772e+00 4.013591e+00 4.344601e+00 3.821225e+00 4.467021e+00 4.114325e+00 4.156166e+00 4.737417e+00 4.486535e+00 4.861049e+00 4.143210e+00 4.259017e+00 4.466242e+00 3.924135e+00 4.482296e+00 4.010924e+00 4.208070e+00 4.269509e+00 3.937532e+00 4.491159e+00 3.940702e+00 4.270433e+00 4.221522e+00 4.013053e+00 4.488559e+00 3.885695e+00 4.342036e+00 4.186718e+00 4.081911e+00 4.471428e+00 3.865172e+00 4.415375e+00 4.156657e+00 4.149913e+00 4.451717e+00 3.926024e+00 4.598430e+00 4.192671e+00 4.267227e+00 4.796440e+00 4.580112e+00 4.964331e+00 4.169517e+00 4.350663e+00 4.497552e+00 4.005876e+00 4.554228e+00 4.005907e+00 4.279439e+00 4.277133e+00 4.007509e+00 4.522851e+00 3.914491e+00 4.327677e+00 4.215427e+00 4.059791e+00 4.493200e+00 3.867484e+00 4.386055e+00 4.169135e+00 4.109301e+00 4.450838e+00 3.849330e+00 4.433441e+00 4.116615e+00 4.150163e+00 4.390504e+00 3.862047e+00 4.483554e+00 4.067442e+00 4.207364e+00 4.341001e+00 3.912402e+00 4.521492e+00 4.002006e+00 4.249443e+00 4.269299e+00 3.974778e+00 4.515072e+00 3.912650e+00 4.299529e+00 4.210064e+00 4.019887e+00 4.474032e+00 3.844002e+00 4.332619e+00 4.142535e+00 4.062779e+00 4.429249e+00 3.810698e+00 4.371864e+00 4.087476e+00 4.116243e+00 4.373324e+00 3.697801e+00 4.192764e+00 4.119704e+00 5.138140e+00 5.246702e+00 2.542524e+00 7.841787e-01 1.929082e-01 3.541618e-02 -1.688350e-03 
-7.963254e-03 -2.029950e-01 -1.141320e+00 -4.509854e+00 -1.310147e+01 -2.636939e+01 -2.815982e+01 -1.944152e+01 -2.034057e+01 -1.742198e+01 -2.736868e+01 -3.169430e+01 -2.695985e+01 -7.723060e+01 -7.652904e+01 -3.867700e+01 -7.370674e+01 -5.582055e+01 -6.270786e+01 -8.604953e+01 -1.662404e+01 -4.502225e+01 -5.100769e+01 -3.232848e+00 -3.120769e+01 -9.291200e+00 -1.362898e+01 -2.724414e+01 -1.961140e+00 -2.658982e+01 -5.706048e+00 -1.464848e+01 -1.999336e+01 5.050587e-01 -2.218579e+01 -2.484234e+00 -1.489099e+01 -1.385815e+01 1.772525e+00 -1.829331e+01 -1.920530e-01 -1.391916e+01 -8.753273e+00 2.028141e+00 -1.481435e+01 1.360257e+00 -1.224231e+01 -4.605457e+00 1.845942e+00 -1.134406e+01 2.855291e+00 -9.621717e+00 -1.125817e+00 1.005108e+00 -8.306862e+00 3.592130e+00 -7.455682e+00 1.120948e+00 -7.208290e-01 -5.458627e+00 4.725219e+00 -6.449566e+00 3.032263e+00 2.040381e+00 -1.578384e+00 3.530850e+00 -3.954845e+00 5.105514e+00 -5.178431e-01 -4.088567e-01 5.697182e+00 -1.990980e+00 4.932667e+00 -3.669707e-01 1.648436e+00 5.801472e+00 -6.195764e-01 5.595865e+00 5.340430e-01 3.358644e+00 5.621226e+00 7.025572e-01 6.262845e+00 1.595147e+00 4.825768e+00 5.208211e+00 1.898593e+00 6.910434e+00 2.419337e+00 5.808078e+00 4.714521e+00 2.972269e+00 7.469115e+00 2.527244e+00 6.376909e+00 6.168653e+00 4.721213e+00 7.026907e+00 3.322329e+00 6.966241e+00 4.891234e+00 4.544509e+00 7.320330e+00 3.952949e+00 6.827780e+00 4.886447e+00 5.370784e+00 7.353690e+00 4.525823e+00 7.227368e+00 5.316053e+00 6.192514e+00 7.312984e+00 5.063920e+00 7.665132e+00 5.700282e+00 6.895652e+00 7.138671e+00 5.493571e+00 8.075527e+00 5.878917e+00 7.342813e+00 6.990290e+00 5.906139e+00 8.454974e+00 5.869559e+00 7.501533e+00 7.720951e+00 7.160421e+00 8.542951e+00 5.913936e+00 7.748327e+00 7.038478e+00 6.390102e+00 8.033417e+00 6.026529e+00 7.585544e+00 6.672090e+00 6.580405e+00 7.865052e+00 6.059042e+00 7.646471e+00 6.662479e+00 6.850932e+00 7.682095e+00 6.129867e+00 7.788898e+00 6.719693e+00 7.106161e+00 7.628961e+00 6.298751e+00 7.959553e+00 6.820517e+00 7.333183e+00 7.655361e+00 6.566643e+00 8.294362e+00 6.896121e+00 7.519670e+00 8.480749e+00 7.639224e+00 8.664070e+00 7.089110e+00 7.733371e+00 8.031618e+00 6.938582e+00 8.256183e+00 7.111618e+00 7.710682e+00 7.736977e+00 7.091539e+00 8.294055e+00 7.033534e+00 7.864911e+00 7.671856e+00 7.275364e+00 8.290509e+00 6.961816e+00 8.031609e+00 7.626344e+00 7.447840e+00 8.273423e+00 6.961596e+00 8.201475e+00 7.573881e+00 7.603491e+00 8.217079e+00 7.064912e+00 8.525635e+00 7.509111e+00 7.727981e+00 8.780696e+00 8.023799e+00 9.014358e+00 7.456356e+00 7.876292e+00 8.343856e+00 7.202039e+00 8.457089e+00 7.323447e+00 7.846570e+00 7.938757e+00 7.267647e+00 8.432123e+00 7.124349e+00 7.958496e+00 7.793641e+00 7.372118e+00 8.375705e+00 7.006504e+00 8.087816e+00 7.680455e+00 7.474323e+00 8.288770e+00 6.952174e+00 8.189552e+00 7.551003e+00 7.558242e+00 8.156578e+00 6.967315e+00 8.308724e+00 7.441670e+00 7.695860e+00 8.060963e+00 7.073940e+00 8.410228e+00 7.299655e+00 7.791994e+00 7.899726e+00 7.196335e+00 8.403869e+00 7.101596e+00 7.905942e+00 7.765258e+00 7.285491e+00 8.318043e+00 6.938945e+00 7.968327e+00 7.602204e+00 7.374802e+00 8.237194e+00 6.869482e+00 8.071076e+00 7.500628e+00 7.510904e+00 8.149613e+00 6.665849e+00 7.737108e+00 7.555306e+00 9.698567e+00 1.036057e+01 4.992980e+00 1.500492e+00 3.886737e-01 9.658356e-02 2.892081e-02 
-6.306383e-02 -3.170631e-01 -1.507307e+00 -6.312779e+00 -2.171785e+01 -4.696441e+01 -4.028565e+01 -2.127099e+01 -2.683292e+01 -1.478466e+01 -2.419925e+01 -1.412545e+01 3.354766e+01 9.479738e-01 3.686221e+00 5.434047e+01 1.967797e+01 3.443593e+01 4.593924e+01 -1.778408e+01 5.030078e+01 1.774866e+01 -4.563433e+01 1.105455e+01 -4.966341e+01 -4.727818e+00 -1.045164e+01 -4.395859e+01 7.086720e+00 -4.546329e+01 -1.866833e+00 -2.184002e+01 -3.529596e+01 7.999475e+00 -4.019598e+01 9.824624e-01 -2.719901e+01 -2.579690e+01 7.581592e+00 -3.520969e+01 2.895826e+00 -2.815172e+01 -1.707397e+01 5.636984e+00 -3.060219e+01 3.741906e+00 -2.687603e+01 -1.020788e+01 2.476804e+00 -2.593354e+01 4.188805e+00 -2.389381e+01 -4.632458e+00 -1.562646e+00 -2.129526e+01 4.357332e+00 -2.038779e+01 -1.008348e+00 -6.620176e+00 -1.645302e+01 4.686621e+00 -1.986807e+01 7.988630e-01 -4.438493e+00 -1.184385e+01 -1.027156e+00 -1.646981e+01 3.777767e+00 -9.967492e+00 -7.914639e+00 4.070348e+00 -1.235395e+01 2.867383e+00 -9.939487e+00 -4.035076e+00 3.141010e+00 -1.020030e+01 3.193041e+00 -8.795380e+00 -1.216917e+00 1.626416e+00 -7.981132e+00 3.594685e+00 -7.206285e+00 1.082353e+00 -2.631762e-01 -5.823518e+00 4.132901e+00 -5.967098e+00 2.383633e+00 -2.117152e+00 -3.969155e+00 4.140793e+00 -6.522037e+00 2.481927e+00 -1.166764e+00 -3.106995e+00 1.109903e+00 -5.369160e+00 3.112255e+00 -2.902594e+00 -1.286105e+00 2.929491e+00 -3.515191e+00 2.762295e+00 -2.493726e+00 3.930353e-01 2.468925e+00 -2.361172e+00 3.036003e+00 -1.747842e+00 1.686349e+00 1.801212e+00 -1.242758e+00 3.422279e+00 -1.064177e+00 2.677597e+00 9.835263e-01 -2.579466e-01 3.810624e+00 -8.046027e-01 3.204904e+00 3.636290e-01 4.193022e-01 3.692947e+00 -1.299428e+00 2.998121e+00 2.938004e-01 2.900330e-01 2.266362e+00 -1.169218e+00 2.984273e+00 -4.835156e-02 1.283520e+00 2.734438e+00 -3.179505e-01 2.998057e+00 3.750725e-02 1.820254e+00 2.271166e+00 -2.361332e-03 2.896815e+00 2.411743e-01 2.091245e+00 1.710580e+00 3.995918e-01 2.864620e+00 4.843947e-01 2.280023e+00 1.475587e+00 8.856962e-01 2.818372e+00 7.485570e-01 2.376717e+00 1.416892e+00 1.233003e+00 2.622916e+00 5.303633e-01 2.058250e+00 1.703483e+00 8.406728e-01 1.622973e+00 9.363591e-01 2.075420e+00 1.862918e+00 1.712931e+00 2.380707e+00 1.752100e+00 2.318253e+00 2.086784e+00 2.049113e+00 2.449066e+00 1.911515e+00 2.397942e+00 2.162823e+00 2.161318e+00 2.455278e+00 1.988176e+00 2.456500e+00 2.221450e+00 2.260064e+00 2.475079e+00 2.072698e+00 2.523651e+00 2.234602e+00 2.317374e+00 2.407052e+00 2.028854e+00 2.467275e+00 1.835340e+00 1.957006e+00 2.180731e+00 1.355545e+00 1.997039e+00 1.807584e+00 1.884625e+00 2.539039e+00 1.948041e+00 2.501360e+00 2.334015e+00 2.219684e+00 2.575551e+00 2.100689e+00 2.623794e+00 2.254839e+00 2.268050e+00 2.509575e+00 2.111264e+00 2.628426e+00 2.150396e+00 2.305970e+00 2.441245e+00 2.120862e+00 2.603423e+00 2.071963e+00 2.345340e+00 2.368227e+00 2.129199e+00 2.554329e+00 2.021027e+00 2.401974e+00 2.309687e+00 2.164600e+00 2.514797e+00 2.017062e+00 2.472272e+00 2.239345e+00 2.187668e+00 2.445812e+00 2.025654e+00 2.520600e+00 2.149096e+00 2.214733e+00 2.391765e+00 2.036257e+00 2.521704e+00 2.046648e+00 2.222907e+00 2.320597e+00 2.038428e+00 2.520470e+00 1.989923e+00 2.268158e+00 2.311013e+00 2.105820e+00 2.551333e+00 1.959612e+00 2.201761e+00 2.255667e+00 2.937671e+00 4.237776e+00 3.013481e+00 1.155674e+00 3.159724e-01 6.777112e-02 -4.321387e-03 
-2.671466e-02 -1.811093e-01 -9.287416e-01 -3.945147e+00 -1.581340e+01 -3.552769e+01 -2.414493e+01 -7.757570e+00 -1.333690e+01 -3.876440e+00 -4.313020e+00 1.022659e+01 3.737384e+01 -4.227653e+00 -5.404655e+00 1.836786e+00 1.068762e+01 5.252603e+00 6.491943e+00 -1.194901e+01 -8.729092e+00 4.854963e+01 2.327559e+00 2.575249e+01 -2.859527e+01 2.477009e+00 5.216753e-01 -2.645293e+01 8.904951e+00 -2.880744e+01 1.869193e+00 -1.270944e+01 -2.393088e+01 7.047098e+00 -2.679075e+01 1.871367e+00 -1.913963e+01 -1.895690e+01 5.380985e+00 -2.473449e+01 1.743897e+00 -2.123302e+01 -1.361316e+01 3.035021e+00 -2.272694e+01 1.208969e+00 -2.125275e+01 -9.418560e+00 -4.649879e-01 -2.081263e+01 1.677956e-01 -2.037406e+01 -6.191017e+00 -4.402505e+00 -1.847623e+01 -2.314665e-01 -1.817391e+01 -3.954574e+00 -8.630382e+00 -1.567564e+01 -9.630875e-01 -1.866642e+01 -3.848700e+00 -8.847796e+00 -1.432423e+01 -7.080697e+00 -1.751736e+01 -2.489637e+00 -1.301726e+01 -1.072300e+01 -2.592913e+00 -1.411046e+01 -3.232433e+00 -1.310760e+01 -8.085754e+00 -3.737026e+00 -1.295821e+01 -3.518487e+00 -1.265143e+01 -6.435007e+00 -5.396918e+00 -1.174339e+01 -3.779582e+00 -1.185601e+01 -5.233221e+00 -7.325061e+00 -1.048208e+01 -3.860834e+00 -1.119032e+01 -4.728720e+00 -9.081312e+00 -9.391876e+00 -4.484654e+00 -1.199891e+01 -5.283585e+00 -9.444289e+00 -1.033428e+01 -8.043311e+00 -1.154442e+01 -5.117727e+00 -1.015324e+01 -7.666498e+00 -5.695169e+00 -9.670517e+00 -5.264817e+00 -9.579611e+00 -6.465450e+00 -6.272147e+00 -8.909771e+00 -5.400365e+00 -9.161968e+00 -5.835816e+00 -7.095687e+00 -8.192360e+00 -5.484573e+00 -8.766025e+00 -5.477294e+00 -7.947068e+00 -7.496732e+00 -5.532634e+00 -8.624581e+00 -5.389717e+00 -8.533511e+00 -7.139424e+00 -6.187491e+00 -9.236308e+00 -5.889551e+00 -9.464003e+00 -8.933908e+00 -8.285497e+00 -9.119353e+00 -6.239637e+00 -9.022585e+00 -6.565343e+00 -6.818092e+00 -7.986276e+00 -5.910058e+00 -8.335706e+00 -6.054043e+00 -7.113158e+00 -7.567856e+00 -6.077646e+00 -8.020033e+00 -6.025738e+00 -7.531552e+00 -7.128296e+00 -6.280049e+00 -7.761376e+00 -6.097542e+00 -7.728802e+00 -6.729765e+00 -6.541550e+00 -7.550391e+00 -6.259784e+00 -7.832074e+00 -6.656872e+00 -7.220602e+00 -7.951283e+00 -6.952332e+00 -8.607910e+00 -8.630139e+00 -9.041332e+00 -7.785557e+00 -7.260751e+00 -7.804194e+00 -6.568497e+00 -7.472785e+00 -6.686557e+00 -6.823740e+00 -7.094992e+00 -6.321506e+00 -7.402272e+00 -6.382106e+00 -6.918801e+00 -6.920811e+00 -6.423296e+00 -7.384738e+00 -6.205996e+00 -7.066922e+00 -6.797189e+00 -6.531096e+00 -7.343605e+00 -6.115453e+00 -7.208972e+00 -6.721435e+00 -6.672236e+00 -7.368930e+00 -6.330817e+00 -7.721283e+00 -7.172379e+00 -7.348062e+00 -8.456418e+00 -8.526711e+00 -9.041638e+00 -7.217253e+00 -7.699531e+00 -7.416184e+00 -6.651310e+00 -7.603951e+00 -6.279270e+00 -7.150376e+00 -6.788514e+00 -6.520267e+00 -7.388308e+00 -6.110554e+00 -7.236981e+00 -6.682281e+00 -6.650377e+00 -7.307477e+00 -6.099834e+00 -7.368424e+00 -6.624990e+00 -6.781375e+00 -7.227884e+00 -6.139723e+00 -7.456801e+00 -6.548742e+00 -6.887220e+00 -7.118453e+00 -6.236141e+00 -7.546184e+00 -6.484070e+00 -7.035573e+00 -7.051629e+00 -6.396127e+00 -7.592536e+00 -6.390647e+00 -7.141828e+00 -6.930742e+00 -6.554159e+00 -7.513951e+00 -6.247916e+00 -7.268734e+00 -6.824517e+00 -6.663687e+00 -7.391875e+00 -6.167260e+00 -7.343734e+00 -6.695834e+00 -6.782283e+00 -7.284708e+00 -6.156210e+00 -7.427077e+00 -6.576740e+00 -6.878903e+00 -7.120467e+00 -5.923141e+00 -7.080088e+00 -6.754333e+00 -8.668202e+00 -7.637195e+00 -2.032100e+00 -1.005262e-01 4.001936e-02 2.244913e-02 5.423170e-03 
-1.645723e-02 -7.460691e-02 -3.595376e-01 -1.587410e+00 -6.268767e+00 -1.152023e+01 -4.073704e+00 1.462067e+00 -3.095693e-03 2.730822e+00 3.391509e+00 3.543758e-01 -3.775554e+01 -3.450350e+01 -2.225197e+01 -3.520533e+01 -2.634765e+01 -2.938341e+01 -3.402940e+01 -1.627830e+01 -4.319477e+01 -4.169004e+01 8.912003e+00 9.613512e+00 -2.591947e+00 3.699463e+00 3.034601e+00 -2.825148e+00 2.667576e+00 -4.156863e+00 1.798507e+00 -2.352342e+00 -4.398696e+00 7.641787e-01 -4.784657e+00 3.040668e-01 -4.753345e+00 -4.287553e+00 -2.545370e-01 -5.172100e+00 -7.414215e-01 -5.705105e+00 -3.758356e+00 -1.173471e+00 -5.442787e+00 -1.554719e+00 -6.028492e+00 -3.367570e+00 -2.370917e+00 -5.783971e+00 -2.450612e+00 -6.353957e+00 -3.242931e+00 -3.593664e+00 -5.863542e+00 -2.820952e+00 -6.053673e+00 -3.154570e+00 -4.692868e+00 -5.707436e+00 -3.516945e+00 -6.637258e+00 -3.683408e+00 -5.402551e+00 -6.462864e+00 -5.739334e+00 -7.054677e+00 -4.038608e+00 -6.420690e+00 -5.385733e+00 -4.313971e+00 -6.122929e+00 -4.254267e+00 -6.435985e+00 -4.968818e+00 -4.733249e+00 -6.112774e+00 -4.578161e+00 -6.503867e+00 -4.873292e+00 -5.325416e+00 -6.109268e+00 -4.914873e+00 -6.509867e+00 -4.926919e+00 -5.971649e+00 -6.046265e+00 -5.179919e+00 -6.476519e+00 -5.095262e+00 -6.500238e+00 -5.970163e+00 -5.650365e+00 -6.848504e+00 -5.485432e+00 -6.982327e+00 -6.916445e+00 -7.072403e+00 -6.969634e+00 -5.670766e+00 -6.943447e+00 -5.753264e+00 -6.015092e+00 -6.303111e+00 -5.622977e+00 -6.662972e+00 -5.522031e+00 -6.223454e+00 -6.212245e+00 -5.814785e+00 -6.642361e+00 -5.584099e+00 -6.548758e+00 -6.146611e+00 -6.024108e+00 -6.613521e+00 -5.732129e+00 -6.830775e+00 -6.035470e+00 -6.212380e+00 -6.598578e+00 -5.891288e+00 -6.991720e+00 -6.040655e+00 -6.651253e+00 -6.848293e+00 -6.162635e+00 -7.539952e+00 -7.234657e+00 -7.635058e+00 -6.827189e+00 -6.446066e+00 -7.166743e+00 -5.991146e+00 -6.733056e+00 -6.307278e+00 -6.201799e+00 -6.676739e+00 -5.811248e+00 -6.736139e+00 -6.124300e+00 -6.271103e+00 -6.528044e+00 -5.900306e+00 -6.801387e+00 -5.972093e+00 -6.394733e+00 -6.442020e+00 -6.025775e+00 -6.837717e+00 -5.883487e+00 -6.553046e+00 -6.401743e+00 -6.176845e+00 -6.884446e+00 -5.977362e+00 -6.961901e+00 -6.618044e+00 -6.527034e+00 -7.524891e+00 -7.217112e+00 -7.857886e+00 -6.696918e+00 -6.797387e+00 -7.073290e+00 -6.141849e+00 -7.040161e+00 -6.215056e+00 -6.544465e+00 -6.627719e+00 -6.069731e+00 -6.998528e+00 -6.056888e+00 -6.630330e+00 -6.535447e+00 -6.186092e+00 -6.988767e+00 -5.962534e+00 -6.751561e+00 -6.475471e+00 -6.300209e+00 -6.965110e+00 -5.930279e+00 -6.875447e+00 -6.431898e+00 -6.423132e+00 -6.957880e+00 -6.069315e+00 -7.228904e+00 -6.610305e+00 -6.751788e+00 -7.614026e+00 -7.349209e+00 -7.995302e+00 -6.662513e+00 -7.015583e+00 -7.078015e+00 -6.298487e+00 -7.173706e+00 -6.171451e+00 -6.724763e+00 -6.613444e+00 -6.234579e+00 -7.057035e+00 -6.010186e+00 -6.798390e+00 -6.514956e+00 -6.331925e+00 -7.003696e+00 -5.959730e+00 -6.906653e+00 -6.451658e+00 -6.430129e+00 -6.938083e+00 -5.956470e+00 -6.989529e+00 -6.374222e+00 -6.510150e+00 -6.842975e+00 -6.003500e+00 -7.075858e+00 -6.305308e+00 -6.623088e+00 -6.774177e+00 -6.113028e+00 -7.135761e+00 -6.208857e+00 -6.706027e+00 -6.662949e+00 -6.232553e+00 -7.106242e+00 -6.071398e+00 -6.804693e+00 -6.570149e+00 -6.319136e+00 -7.024492e+00 -5.972427e+00 -6.865671e+00 -6.457115e+00 -6.401747e+00 -6.943534e+00 -5.935130e+00 -6.935037e+00 -6.362991e+00 -6.488179e+00 -6.829597e+00 -5.742337e+00 -6.632713e+00 -6.424210e+00 -8.053337e+00 -7.773635e+00 -3.099559e+00 -6.709474e-01 -1.077037e-01 -1.239241e-02 -5.229137e-03 
-1.210694e-03 -2.196610e-02 -1.173741e-01 -5.515344e-01 -1.985356e+00 -3.024491e+00 -1.071856e+00 5.976379e-01 7.532659e-01 1.570706e+00 1.372463e+00 -3.961400e+00 -2.910102e+01 -1.388201e+01 -5.099607e+00 -5.104887e+00 -5.086444e+00 -5.093516e+00 -5.099485e+00 -5.072163e+00 -8.404987e+00 -4.014492e+01 -9.478231e+00 -2.175584e+00 4.995429e-01 1.640133e+00 9.059641e-01 -6.510951e-01 3.930213e-01 -6.099242e-02 1.035880e+00 -1.926458e-01 -1.162438e+00 -4.438901e-01 -7.274002e-01 3.856077e-01 -6.320695e-01 -1.004435e+00 -7.524806e-01 -1.087204e+00 -1.403570e-01 -9.441343e-01 -8.559071e-01 -9.577529e-01 -1.329201e+00 -5.592947e-01 -1.175411e+00 -7.758066e-01 -1.123105e+00 -1.486256e+00 -8.909703e-01 -1.369837e+00 -8.085281e-01 -1.303124e+00 -1.566777e+00 -1.122052e+00 -1.487529e+00 -9.182175e-01 -1.487366e+00 -1.577113e+00 -1.368196e+00 -1.685567e+00 -9.754206e-01 -1.247302e+00 -9.820659e-01 -1.202115e+00 -1.626376e+00 -1.263651e+00 -1.800013e+00 -1.539566e+00 -1.593171e+00 -1.742684e+00 -1.434722e+00 -1.819103e+00 -1.490644e+00 -1.676621e+00 -1.778384e+00 -1.558699e+00 -1.862980e+00 -1.515604e+00 -1.789805e+00 -1.805691e+00 -1.667286e+00 -1.890805e+00 -1.576777e+00 -1.897483e+00 -1.806374e+00 -1.751828e+00 -1.906662e+00 -1.656931e+00 -1.984493e+00 -1.803102e+00 -1.877309e+00 -1.977785e+00 -1.655513e+00 -1.726730e+00 -1.341522e+00 -1.635402e+00 -1.853799e+00 -1.824838e+00 -2.105399e+00 -1.828806e+00 -1.989416e+00 -1.951749e+00 -1.873784e+00 -2.043465e+00 -1.797085e+00 -2.021645e+00 -1.940955e+00 -1.920445e+00 -2.038401e+00 -1.831201e+00 -2.074965e+00 -1.930978e+00 -1.967162e+00 -2.032103e+00 -1.880479e+00 -2.112146e+00 -1.909030e+00 -2.009498e+00 -2.029119e+00 -1.925496e+00 -2.132395e+00 -1.916833e+00 -2.100047e+00 -2.058026e+00 -1.892017e+00 -1.875976e+00 -1.500543e+00 -1.791388e+00 -1.911001e+00 -2.031867e+00 -2.185558e+00 -1.959874e+00 -2.140438e+00 -2.009500e+00 -2.028210e+00 -2.086701e+00 -1.927996e+00 -2.134998e+00 -1.980079e+00 -2.045601e+00 -2.065877e+00 -1.961598e+00 -2.148807e+00 -1.957889e+00 -2.074112e+00 -2.056898e+00 -1.995954e+00 -2.152984e+00 -1.945706e+00 -2.106561e+00 -2.053968e+00 -2.028849e+00 -2.158464e+00 -1.969509e+00 -2.185047e+00 -2.074198e+00 -1.997957e+00 -1.916102e+00 -1.558378e+00 -1.851948e+00 -1.939788e+00 -2.122822e+00 -2.208937e+00 -2.031652e+00 -2.208448e+00 -2.034044e+00 -2.103034e+00 -2.107494e+00 -2.004407e+00 -2.188640e+00 -1.996520e+00 -2.113209e+00 -2.087909e+00 -2.028645e+00 -2.183933e+00 -1.975129e+00 -2.133839e+00 -2.076105e+00 -2.049702e+00 -2.173198e+00 -1.965781e+00 -2.155952e+00 -2.066900e+00 -2.071018e+00 -2.166900e+00 -1.992534e+00 -2.221835e+00 -2.076643e+00 -2.036531e+00 -1.924290e+00 -1.579612e+00 -1.867882e+00 -1.937603e+00 -2.153656e+00 -2.204750e+00 -2.061744e+00 -2.223004e+00 -2.023938e+00 -2.126225e+00 -2.100419e+00 -2.033943e+00 -2.190089e+00 -1.984903e+00 -2.135953e+00 -2.081705e+00 -2.052566e+00 -2.177607e+00 -1.972627e+00 -2.156093e+00 -2.070398e+00 -2.070877e+00 -2.162044e+00 -1.971411e+00 -2.174452e+00 -2.057668e+00 -2.086095e+00 -2.142682e+00 -1.980261e+00 -2.189716e+00 -2.042222e+00 -2.101385e+00 -2.123137e+00 -2.000090e+00 -2.197848e+00 -2.020212e+00 -2.115137e+00 -2.102402e+00 -2.027291e+00 -2.193821e+00 -1.991948e+00 -2.132109e+00 -2.085890e+00 -2.046707e+00 -2.178291e+00 -1.972234e+00 -2.147095e+00 -2.068011e+00 -2.060566e+00 -2.156567e+00 -1.959771e+00 -2.154168e+00 -2.045170e+00 -2.070643e+00 -2.121820e+00 -1.901968e+00 -2.077835e+00 -2.080541e+00 -2.431489e+00 -2.268745e+00 -1.114650e+00 -3.451199e-01 -7.874327e-02 -1.300734e-02 -1.014687e-03 
1.111036e-03 -5.234176e-03 -2.023967e-02 -1.349209e-01 -4.553579e-01 -6.161998e-01 -3.270199e-01 1.459042e-01 2.665608e-01 4.854969e-01 1.854197e-01 -2.855769e+00 -1.561408e+01 -1.466458e+01 -4.584057e+00 -4.557721e+00 -4.557624e+00 -4.557620e+00 -4.557644e+00 -4.561945e+00 -1.120447e+01 -1.680643e+01 -7.973049e+00 -3.020891e+00 -2.240243e-01 5.299080e-01 1.492768e-01 -3.301746e-01 -3.739391e-02 2.422880e-01 4.921728e-01 1.316197e-01 -4.309862e-01 -3.178833e-01 -9.806866e-02 2.431956e-01 8.440151e-02 -2.946882e-01 -3.676167e-01 -2.575541e-01 3.990148e-02 -1.233161e-02 -2.049872e-01 -3.790465e-01 -3.551706e-01 -1.223751e-01 -1.173689e-01 -1.544918e-01 -3.624121e-01 -4.021442e-01 -2.395794e-01 -2.170768e-01 -1.569523e-01 -3.510584e-01 -4.184974e-01 -3.213741e-01 -2.960918e-01 -1.926205e-01 -3.444994e-01 -4.039362e-01 -3.804827e-01 -3.281636e-01 8.334067e-02 1.584035e+00 4.107479e+00 3.270031e+00 8.544410e-01 -5.196950e-03 -3.432543e-01 -3.738513e-01 -4.344772e-01 -4.295434e-01 -3.637461e-01 -4.077349e-01 -3.703793e-01 -4.411554e-01 -4.412486e-01 -3.997385e-01 -4.277028e-01 -3.764744e-01 -4.530803e-01 -4.495074e-01 -4.295862e-01 -4.457424e-01 -3.945012e-01 -4.647976e-01 -4.505278e-01 -4.511676e-01 -4.575932e-01 -4.154271e-01 -4.728477e-01 -4.446894e-01 -4.674180e-01 -4.289695e-01 -1.200788e-01 1.356841e+00 3.569035e+00 2.754479e+00 6.078610e-01 -2.082450e-01 -4.614576e-01 -4.548008e-01 -4.999636e-01 -4.851164e-01 -4.747889e-01 -4.946143e-01 -4.547389e-01 -5.004774e-01 -4.822513e-01 -4.833302e-01 -4.950920e-01 -4.626856e-01 -5.073167e-01 -4.810814e-01 -4.924167e-01 -4.963423e-01 -4.741628e-01 -5.120491e-01 -4.777320e-01 -4.997949e-01 -4.967502e-01 -4.827603e-01 -5.126201e-01 -4.756450e-01 -5.049051e-01 -4.534530e-01 -1.785188e-01 1.290791e+00 3.387956e+00 2.593882e+00 5.383586e-01 -2.655390e-01 -4.886723e-01 -4.904363e-01 -5.273490e-01 -5.028553e-01 -5.074941e-01 -5.128784e-01 -4.880435e-01 -5.225852e-01 -4.961685e-01 -5.085301e-01 -5.092557e-01 -4.942527e-01 -5.244666e-01 -4.923347e-01 -5.123540e-01 -5.080146e-01 -5.002442e-01 -5.243680e-01 -4.897815e-01 -5.162732e-01 -5.066690e-01 -5.039183e-01 -5.218331e-01 -4.894537e-01 -5.178148e-01 -4.593534e-01 -1.961052e-01 1.280277e+00 3.339132e+00 2.553662e+00 5.190919e-01 -2.827393e-01 -4.942042e-01 -5.045725e-01 -5.368820e-01 -5.078437e-01 -5.176924e-01 -5.163079e-01 -5.010419e-01 -5.295191e-01 -4.988484e-01 -5.166777e-01 -5.121907e-01 -5.045821e-01 -5.282798e-01 -4.946845e-01 -5.191810e-01 -5.102562e-01 -5.076569e-01 -5.257275e-01 -4.924453e-01 -5.218422e-01 -5.079637e-01 -5.091735e-01 -5.215299e-01 -4.926668e-01 -5.216344e-01 -4.589822e-01 -2.008480e-01 1.282271e+00 3.337300e+00 2.553895e+00 5.198027e-01 -2.857846e-01 -4.923123e-01 -5.091381e-01 -5.381065e-01 -5.054588e-01 -5.196751e-01 -5.142723e-01 -5.052371e-01 -5.286319e-01 -4.961455e-01 -5.187485e-01 -5.105517e-01 -5.075745e-01 -5.260264e-01 -4.936253e-01 -5.215863e-01 -5.089464e-01 -5.101805e-01 -5.230145e-01 -4.932626e-01 -5.246591e-01 -5.073257e-01 -5.123213e-01 -5.196210e-01 -4.946841e-01 -5.271271e-01 -5.048422e-01 -5.138547e-01 -5.158572e-01 -4.978880e-01 -5.285084e-01 -5.012256e-01 -5.154454e-01 -5.126600e-01 -5.026619e-01 -5.279527e-01 -4.962416e-01 -5.172297e-01 -5.100366e-01 -5.057397e-01 -5.251720e-01 -4.926668e-01 -5.192832e-01 -5.073889e-01 -5.073714e-01 -5.206495e-01 -4.898683e-01 -5.195035e-01 -5.032176e-01 -5.074334e-01 -5.128166e-01 -4.772120e-01 -5.047337e-01 -5.130064e-01 -5.729019e-01 -5.307627e-01 -2.980828e-01 -1.119555e-01 -3.149053e-02 -6.848500e-03 -2.360771e-03 