# vtk DataFile Version 2.0
Comment goes here
ASCII

DATASET STRUCTURED_POINTS
FIELD FieldData 1
TIME 1 1 double
0.05300000
DIMENSIONS    256   32   1

ORIGIN    0.000   0.000   0.000
SPACING   0.0078125 0.0078125   1.000

POINT_DATA   8192
SCALARS Omega double
LOOKUP_TABLE default

5.453401e-08 -1.737168e-08 2.262028e-07 -1.088179e-07 -2.526253e-07 -1.473409e-06 -3.579741e-06 -3.202961e-06 1.382526e-06 2.684176e-06 2.936944e-06 7.851097e-06 2.075957e-05 5.344533e-05 -1.003996e-04 -6.180386e-05 -4.040530e-06 -1.285534e-04 -2.543469e-05 -1.843009e-04 -1.591919e-04 8.643029e-05 -4.725288e-05 -2.393473e-05 -1.266355e-04 -1.205545e-04 -7.331247e-05 -6.977046e-05 -5.341768e-05 -1.567275e-04 -1.738643e-04 -1.634512e-04 -1.393372e-04 -1.713703e-04 -3.152738e-04 -5.051928e-04 -6.671775e-04 -5.817586e-04 -5.932497e-04 -7.821866e-04 -9.488767e-04 -1.296264e-03 -1.180681e-03 -1.175116e-03 -1.405694e-03 -1.864088e-03 -2.618461e-03 -2.465344e-03 -2.523354e-03 -2.604433e-03 -3.224447e-03 -4.488249e-03 -4.589456e-03 -5.120338e-03 -4.622200e-03 -5.275535e-03 -7.505923e-03 -6.852827e-03 -5.682660e-03 1.580390e-03 4.221249e-03 -2.710439e-02 2.046522e-03 1.024233e-01 5.779313e-02 -2.298331e-02 5.409415e-04 1.418983e-02 9.317910e-03 -2.286180e-03 -9.476171e-03 -6.247621e-03 -6.684283e-03 -6.030146e-03 -6.075243e-03 -7.081640e-03 -5.460806e-03 -5.486291e-03 -5.233768e-03 -4.847319e-03 -5.862982e-03 -4.695700e-03 -5.278475e-03 -5.480711e-03 -5.236557e-03 -6.778105e-03 -5.257505e-03 -6.156711e-03 -6.766029e-03 -6.400663e-03 -7.386653e-03 5.402284e-04 6.057595e-03 -7.296349e-03 -1.035920e-02 4.424915e-02 7.445460e-02 2.208767e-02 -1.012543e-02 -3.152517e-04 6.318861e-03 -8.557941e-04 -7.782015e-03 -6.839801e-03 -7.072244e-03 -5.976531e-03 -5.625678e-03 -6.501591e-03 -5.082306e-03 -5.388098e-03 -5.019518e-03 -4.505688e-03 -5.543835e-03 -4.318964e-03 -5.230597e-03 -5.159798e-03 -4.921498e-03 -6.572338e-03 -4.807594e-03 -6.199997e-03 -6.277061e-03 -6.049995e-03 -7.204531e-03 8.778821e-04 6.132376e-03 -3.455535e-03 -1.242275e-02 3.326986e-02 7.931409e-02 3.464245e-02 -1.236001e-02 -5.130828e-03 5.629496e-03 -6.490385e-04 -7.421477e-03 -7.009039e-03 -7.220438e-03 -5.955345e-03 -5.652685e-03 -6.355066e-03 -4.947031e-03 -5.432578e-03 -4.920007e-03 -4.548469e-03 -5.455224e-03 -4.161329e-03 -5.303794e-03 -5.012662e-03 -4.960379e-03 -6.464972e-03 -4.614979e-03 -6.328555e-03 -6.072348e-03 -6.092996e-03 -6.943827e-03 1.315296e-03 5.603908e-03 -3.730840e-03 -1.325910e-02 3.478217e-02 8.321041e-02 3.342518e-02 -1.529587e-02 -4.598867e-03 6.390831e-03 -9.536968e-04 -7.464336e-03 -7.015820e-03 -7.261296e-03 -5.892074e-03 -5.792040e-03 -6.257259e-03 -4.865655e-03 -5.494406e-03 -4.830066e-03 -4.636174e-03 -5.354055e-03 -4.062079e-03 -5.338414e-03 -4.864994e-03 -5.016345e-03 -6.279899e-03 -4.475455e-03 -6.357168e-03 -5.851910e-03 -6.093460e-03 -6.540177e-03 1.635090e-03 4.809926e-03 -4.183278e-03 -1.089863e-02 3.730352e-02 8.123703e-02 3.081884e-02 -1.473673e-02 -2.643870e-03 7.419441e-03 -9.359171e-04 -6.588886e-03 -6.320642e-03 -6.429144e-03 -4.894951e-03 -4.983230e-03 -4.703232e-03 -3.672535e-03 -3.740665e-03 -2.925949e-03 -2.785690e-03 -2.468296e-03 -1.973189e-03 -2.135021e-03 -1.608627e-03 -1.475861e-03 -1.253482e-03 -1.021308e-03 -1.040436e-03 -7.881646e-04 -8.068258e-04 -6.884494e-04 -5.523922e-04 -5.558265e-04 -3.945517e-04 -3.086002e-04 -2.353089e-04 -2.008834e-04 -1.469554e-04 -1.288699e-04 -1.413006e-04 -1.062904e-04 -1.347719e-04 -1.314729e-04 -1.051991e-04 -1.274814e-04 -1.008812e-04 -9.351961e-05 -9.068607e-05 -6.423254e-05 -6.769955e-05 -5.175059e-05 -4.375583e-05 -3.887299e-05 -2.906423e-05 -2.924662e-05 -2.202486e-05 -2.035944e-05 -1.730252e-05 -1.436908e-05 -1.499154e-05 -1.237236e-05 -1.419982e-05 -1.116201e-05 -2.684757e-06 2.070643e-07 1.386106e-07 1.951962e-08 -4.159154e-08 
-1.041151e-02 -5.090637e-02 -2.373413e-01 -9.025562e-01 -2.565147e+00 -5.598175e+00 -7.772357e+00 -6.365601e+00 -6.100001e+00 -6.721905e+00 -9.318419e+00 -1.472778e+01 -2.048989e+01 -3.591848e+01 -3.880457e+01 -3.212503e+01 -4.471955e+01 -4.008138e+01 -4.702818e+01 -4.723520e+01 -2.072670e+01 -2.613584e+01 -2.055548e+01 -2.167015e+00 -7.471052e+00 -4.650442e+00 -4.103118e+00 -6.250077e+00 -2.102351e+00 -5.611334e+00 -2.874006e+00 -3.235662e+00 -4.090205e+00 -9.446968e-01 -4.134461e+00 -1.574245e+00 -2.682733e+00 -2.646722e+00 -1.656023e-01 -2.962384e+00 -5.575542e-01 -1.990291e+00 -1.452643e+00 4.237101e-01 -1.890438e+00 1.414445e-01 -1.405416e+00 -5.713336e-01 6.353353e-01 -1.121385e+00 6.973458e-01 -7.686538e-01 2.109648e-01 8.731139e-01 -3.785207e-01 1.200350e+00 -1.050125e-01 8.666313e-01 9.902326e-01 2.893340e-01 1.761940e+00 3.762598e-01 1.416972e+00 1.788066e+00 1.333774e+00 1.964390e+00 8.464816e-01 1.919582e+00 1.495710e+00 1.235886e+00 2.186050e+00 1.195108e+00 2.007362e+00 1.552691e+00 1.564660e+00 2.335904e+00 1.482529e+00 2.235327e+00 1.772088e+00 1.898028e+00 2.457549e+00 1.746432e+00 2.463428e+00 2.012634e+00 2.213908e+00 2.572447e+00 1.983348e+00 2.686711e+00 2.226429e+00 2.473644e+00 2.664206e+00 2.209227e+00 2.973357e+00 2.410488e+00 2.637395e+00 3.090426e+00 2.867573e+00 3.171114e+00 2.474784e+00 2.852854e+00 2.912386e+00 2.482956e+00 3.041815e+00 2.559519e+00 2.840305e+00 2.824099e+00 2.547947e+00 3.083783e+00 2.610751e+00 2.911275e+00 2.850614e+00 2.659468e+00 3.115794e+00 2.647779e+00 2.994517e+00 2.885557e+00 2.789276e+00 3.160551e+00 2.684674e+00 3.098325e+00 2.931362e+00 2.904790e+00 3.210481e+00 2.769127e+00 3.294207e+00 3.022689e+00 3.011309e+00 3.530062e+00 3.296187e+00 3.571394e+00 3.041980e+00 3.151962e+00 3.375892e+00 2.897195e+00 3.386432e+00 3.033731e+00 3.167565e+00 3.275707e+00 2.930314e+00 3.446073e+00 3.021747e+00 3.241616e+00 3.257940e+00 3.015865e+00 3.476135e+00 2.981014e+00 3.316652e+00 3.238353e+00 3.095371e+00 3.487585e+00 2.956583e+00 3.388286e+00 3.217078e+00 3.156797e+00 3.473847e+00 2.984566e+00 3.538990e+00 3.236859e+00 3.202688e+00 3.704610e+00 3.479791e+00 3.780391e+00 3.168642e+00 3.308089e+00 3.506067e+00 3.028775e+00 3.533478e+00 3.113916e+00 3.289990e+00 3.347751e+00 3.048116e+00 3.545405e+00 3.048843e+00 3.342385e+00 3.298868e+00 3.105820e+00 3.530202e+00 2.991364e+00 3.397980e+00 3.257297e+00 3.160955e+00 3.508352e+00 2.967261e+00 3.451661e+00 3.218569e+00 3.206304e+00 3.470543e+00 3.002107e+00 3.580591e+00 3.217318e+00 3.255662e+00 3.691420e+00 3.489430e+00 3.798359e+00 3.139766e+00 3.342151e+00 3.464955e+00 3.057783e+00 3.538473e+00 3.060210e+00 3.310605e+00 3.299140e+00 3.075608e+00 3.521497e+00 2.989380e+00 3.361468e+00 3.252686e+00 3.122630e+00 3.495875e+00 2.950818e+00 3.411210e+00 3.211079e+00 3.168327e+00 3.462653e+00 2.939875e+00 3.457102e+00 3.168777e+00 3.202972e+00 3.408234e+00 2.946843e+00 3.486613e+00 3.115042e+00 3.234737e+00 3.345262e+00 2.976166e+00 3.495783e+00 3.046013e+00 3.266242e+00 3.278626e+00 3.035888e+00 3.502158e+00 2.981331e+00 3.329015e+00 3.244786e+00 3.087498e+00 3.483103e+00 2.933547e+00 3.369469e+00 3.195228e+00 3.129406e+00 3.449379e+00 2.904620e+00 3.394418e+00 3.137777e+00 3.155826e+00 3.378234e+00 2.805647e+00 3.244498e+00 3.148904e+00 3.958883e+00 4.048631e+00 1.840782e+00 5.019375e-01 1.066808e-01 1.597869e-02 -1.957617e-03 
2.645155e-03 -9.166801e-02 -6.428515e-01 -3.012750e+00 -1.003771e+01 -2.178323e+01 -2.320882e+01 -1.577589e+01 -1.725713e+01 -1.388120e+01 -2.247861e+01 -2.767486e+01 -2.093917e+01 -6.516032e+01 -6.750176e+01 -3.303608e+01 -6.502853e+01 -4.901200e+01 -5.284792e+01 -7.620440e+01 -1.471350e+01 -3.705985e+01 -4.469329e+01 -2.115122e+00 -2.564106e+01 -7.400178e+00 -1.061803e+01 -2.273292e+01 -8.115005e-01 -2.176836e+01 -4.167529e+00 -1.150222e+01 -1.643136e+01 1.175032e+00 -1.791250e+01 -1.365255e+00 -1.175563e+01 -1.117985e+01 2.121778e+00 -1.468259e+01 6.701568e-01 -1.066657e+01 -6.736291e+00 2.483488e+00 -1.149299e+01 1.862230e+00 -9.362002e+00 -3.295017e+00 1.855246e+00 -8.946247e+00 2.831300e+00 -7.578934e+00 -4.426854e-01 1.251072e+00 -6.367566e+00 3.700772e+00 -5.506798e+00 1.707397e+00 1.728252e-01 -3.789313e+00 4.828070e+00 -4.280800e+00 3.345907e+00 1.664375e+00 -6.329027e-01 4.183770e+00 -2.951858e+00 4.696399e+00 -2.112028e-02 9.343809e-02 5.197480e+00 -1.531683e+00 4.577473e+00 -1.149762e-01 1.536436e+00 5.017944e+00 -5.807874e-01 4.877136e+00 4.607130e-01 2.790253e+00 4.694889e+00 4.817206e-01 5.281712e+00 1.334521e+00 4.005113e+00 4.400588e+00 1.630793e+00 5.837046e+00 2.158434e+00 4.964618e+00 4.132888e+00 2.714676e+00 6.484369e+00 2.526412e+00 5.454682e+00 5.084684e+00 4.350593e+00 6.217037e+00 2.785298e+00 6.019192e+00 4.272569e+00 4.001175e+00 6.232389e+00 3.257298e+00 5.841297e+00 4.016790e+00 4.404546e+00 6.022092e+00 3.479248e+00 5.857341e+00 4.111705e+00 4.768087e+00 5.722201e+00 3.734457e+00 5.914102e+00 4.316201e+00 5.125674e+00 5.534565e+00 4.072655e+00 6.065690e+00 4.556779e+00 5.402285e+00 5.546290e+00 4.488969e+00 6.358947e+00 4.747617e+00 5.576314e+00 6.464685e+00 5.584134e+00 6.440348e+00 5.073560e+00 5.950781e+00 6.088081e+00 5.142335e+00 6.438692e+00 5.370411e+00 5.990241e+00 6.016597e+00 5.389775e+00 6.583105e+00 5.484089e+00 6.183950e+00 6.066098e+00 5.642180e+00 6.638665e+00 5.486928e+00 6.372182e+00 6.079384e+00 5.860617e+00 6.681466e+00 5.502591e+00 6.541636e+00 6.060898e+00 6.008481e+00 6.642098e+00 5.564257e+00 6.828331e+00 6.028652e+00 6.031315e+00 7.064648e+00 6.385427e+00 7.165456e+00 5.914935e+00 6.242109e+00 6.767552e+00 5.680971e+00 6.816148e+00 5.941199e+00 6.293578e+00 6.474538e+00 5.789524e+00 6.884554e+00 5.817128e+00 6.437005e+00 6.366811e+00 5.925989e+00 6.853604e+00 5.691026e+00 6.576566e+00 6.264847e+00 6.064687e+00 6.807881e+00 5.641049e+00 6.703128e+00 6.155336e+00 6.160766e+00 6.687697e+00 5.670169e+00 6.935172e+00 6.046534e+00 6.172319e+00 7.009082e+00 6.435565e+00 7.266282e+00 5.856658e+00 6.301824e+00 6.676720e+00 5.721584e+00 6.826126e+00 5.807522e+00 6.310742e+00 6.359540e+00 5.800814e+00 6.824441e+00 5.662355e+00 6.433205e+00 6.259966e+00 5.903337e+00 6.779062e+00 5.572112e+00 6.547110e+00 6.162926e+00 6.007077e+00 6.716369e+00 5.542135e+00 6.653258e+00 6.061738e+00 6.081898e+00 6.593295e+00 5.541147e+00 6.717887e+00 5.929572e+00 6.145461e+00 6.449302e+00 5.586210e+00 6.735186e+00 5.768816e+00 6.209345e+00 6.294162e+00 5.709578e+00 6.764134e+00 5.627047e+00 6.359813e+00 6.225783e+00 5.817518e+00 6.740240e+00 5.517091e+00 6.446206e+00 6.118280e+00 5.914213e+00 6.691739e+00 5.460806e+00 6.513421e+00 6.003304e+00 5.976938e+00 6.554880e+00 5.270226e+00 6.217101e+00 6.007718e+00 7.733427e+00 8.332348e+00 3.870298e+00 1.054861e+00 2.386480e-01 5.227074e-02 1.626125e-02 
-3.186690e-02 -1.683648e-01 -9.133596e-01 -4.436537e+00 -1.744821e+01 -4.020523e+01 -3.410960e+01 -1.755704e+01 -2.376865e+01 -1.190421e+01 -2.083179e+01 -1.397495e+01 2.931878e+01 3.686132e-01 3.199805e+00 4.916176e+01 1.683097e+01 2.999850e+01 4.108705e+01 -1.583118e+01 4.527289e+01 1.746911e+01 -3.990038e+01 1.107498e+01 -4.216391e+01 -3.725751e+00 -7.840013e+00 -3.769450e+01 7.210101e+00 -3.846285e+01 -1.025058e+00 -1.762428e+01 -2.986695e+01 7.755776e+00 -3.366747e+01 1.708142e+00 -2.211418e+01 -2.143428e+01 7.239465e+00 -2.943027e+01 3.226365e+00 -2.286467e+01 -1.408753e+01 5.387875e+00 -2.511851e+01 3.966263e+00 -2.160585e+01 -7.794751e+00 2.692096e+00 -2.102268e+01 4.449432e+00 -1.928765e+01 -3.018282e+00 -6.422844e-01 -1.709970e+01 4.650201e+00 -1.632550e+01 2.689447e-01 -4.726454e+00 -1.281016e+01 5.162207e+00 -1.514429e+01 2.434056e+00 -4.424729e+00 -9.012651e+00 1.890227e+00 -1.333138e+01 3.949295e+00 -8.127701e+00 -5.937260e+00 4.303574e+00 -1.055002e+01 3.415039e+00 -8.425774e+00 -3.144753e+00 3.084595e+00 -9.012521e+00 3.274056e+00 -7.648761e+00 -1.029792e+00 1.510106e+00 -7.109146e+00 3.300296e+00 -6.217919e+00 9.086064e-01 -9.437465e-02 -4.924984e+00 3.703256e+00 -4.862848e+00 2.340272e+00 -1.452146e+00 -2.879728e+00 3.982444e+00 -4.774250e+00 2.915333e+00 -9.022937e-01 -1.679498e+00 2.025372e+00 -4.171965e+00 3.390098e+00 -2.299604e+00 -3.979600e-01 2.971570e+00 -3.070389e+00 3.062920e+00 -2.369135e+00 5.351024e-01 2.203552e+00 -2.560318e+00 2.804635e+00 -2.083360e+00 1.079546e+00 1.251013e+00 -1.894275e+00 2.567817e+00 -1.562739e+00 1.451924e+00 4.944378e-01 -1.053051e+00 2.460190e+00 -1.044827e+00 1.644279e+00 2.890987e-01 -2.745094e-01 2.225941e+00 -9.981840e-01 1.486727e+00 1.173310e+00 -2.065981e-03 8.946020e-01 -1.684975e-01 1.754394e+00 9.238926e-01 8.840358e-01 1.879166e+00 7.832448e-01 1.798409e+00 1.261811e+00 1.380375e+00 1.928153e+00 1.161950e+00 1.911987e+00 1.484777e+00 1.626699e+00 1.918897e+00 1.386336e+00 2.006564e+00 1.624983e+00 1.793480e+00 1.946414e+00 1.544155e+00 2.078898e+00 1.691305e+00 1.873965e+00 1.908824e+00 1.563067e+00 2.065283e+00 1.463385e+00 1.603219e+00 1.819760e+00 1.216504e+00 1.725042e+00 1.493958e+00 1.595286e+00 2.077845e+00 1.626580e+00 2.042878e+00 1.925415e+00 1.886952e+00 2.114185e+00 1.806882e+00 2.163772e+00 1.916371e+00 1.988875e+00 2.072365e+00 1.883111e+00 2.174254e+00 1.867094e+00 2.071721e+00 2.018136e+00 1.963659e+00 2.147165e+00 1.843196e+00 2.139826e+00 1.930371e+00 1.994028e+00 2.024930e+00 1.738656e+00 2.108053e+00 1.607203e+00 1.679459e+00 1.713604e+00 1.286678e+00 1.894359e+00 1.469813e+00 1.560952e+00 2.047175e+00 1.569359e+00 2.048945e+00 1.831312e+00 1.805434e+00 2.060762e+00 1.678226e+00 2.138257e+00 1.790860e+00 1.854893e+00 2.029092e+00 1.704554e+00 2.148881e+00 1.727681e+00 1.896081e+00 1.983365e+00 1.731159e+00 2.137031e+00 1.680918e+00 1.942019e+00 1.929237e+00 1.747636e+00 2.088758e+00 1.630311e+00 1.973401e+00 1.853330e+00 1.747517e+00 2.029992e+00 1.598817e+00 2.001793e+00 1.783716e+00 1.756942e+00 1.971143e+00 1.614754e+00 2.051283e+00 1.708018e+00 1.788245e+00 1.934592e+00 1.612886e+00 2.070317e+00 1.628584e+00 1.798309e+00 1.902818e+00 1.627681e+00 2.089849e+00 1.594988e+00 1.834728e+00 1.884679e+00 1.660619e+00 2.102843e+00 1.566440e+00 1.781933e+00 1.840506e+00 2.349780e+00 3.551732e+00 2.547451e+00 9.128885e-01 2.166745e-01 3.915388e-02 -3.640756e-03 
-1.127632e-02 -9.544147e-02 -5.681963e-01 -2.770426e+00 -1.258982e+01 -2.971467e+01 -1.964877e+01 -5.809345e+00 -1.156045e+01 -2.033375e+00 -3.115359e+00 9.634230e+00 3.397955e+01 -4.006485e+00 -4.517252e+00 2.006804e+00 1.020744e+01 5.419348e+00 5.914843e+00 -1.009973e+01 -7.152902e+00 4.423938e+01 2.336927e+00 2.226027e+01 -2.433680e+01 2.450405e+00 1.337802e+00 -2.252716e+01 8.551597e+00 -2.435128e+01 2.025141e+00 -1.004431e+01 -2.004143e+01 6.809004e+00 -2.253418e+01 2.271741e+00 -1.536155e+01 -1.549611e+01 5.258260e+00 -2.079299e+01 1.877989e+00 -1.747161e+01 -1.126982e+01 2.728935e+00 -1.903107e+01 1.562586e+00 -1.719834e+01 -7.185003e+00 3.017399e-01 -1.678444e+01 1.117205e+00 -1.621771e+01 -4.382728e+00 -3.114014e+00 -1.487922e+01 4.260747e-01 -1.481730e+01 -2.667965e+00 -6.949107e+00 -1.256977e+01 -2.518414e-01 -1.488767e+01 -1.925291e+00 -7.991962e+00 -1.150447e+01 -3.966666e+00 -1.411599e+01 -1.499567e+00 -1.084471e+01 -8.416179e+00 -1.576272e+00 -1.193863e+01 -1.959371e+00 -1.098952e+01 -6.460831e+00 -2.753320e+00 -1.103372e+01 -2.384866e+00 -1.060165e+01 -5.192823e+00 -4.261509e+00 -9.901187e+00 -2.793949e+00 -9.839220e+00 -4.212278e+00 -5.922544e+00 -8.610629e+00 -2.981950e+00 -9.144985e+00 -3.624986e+00 -7.310867e+00 -7.418358e+00 -3.481371e+00 -9.515149e+00 -3.560430e+00 -7.711609e+00 -7.979800e+00 -5.762494e+00 -9.031331e+00 -3.670294e+00 -8.434333e+00 -5.816907e+00 -4.383595e+00 -8.046420e+00 -3.793766e+00 -8.085799e+00 -5.068330e+00 -5.003771e+00 -7.594808e+00 -4.080969e+00 -7.764655e+00 -4.783551e+00 -5.735332e+00 -7.025815e+00 -4.400203e+00 -7.324047e+00 -4.731145e+00 -6.379176e+00 -6.385249e+00 -4.693986e+00 -6.961035e+00 -4.818603e+00 -6.621220e+00 -5.953173e+00 -5.347049e+00 -7.156806e+00 -5.260496e+00 -6.758644e+00 -7.086494e+00 -7.137114e+00 -6.609655e+00 -5.437351e+00 -6.552478e+00 -5.379843e+00 -5.868048e+00 -5.761959e+00 -5.375181e+00 -6.027808e+00 -5.083760e+00 -5.981575e+00 -5.449736e+00 -5.484962e+00 -5.826819e+00 -5.113296e+00 -6.059258e+00 -5.187331e+00 -5.616725e+00 -5.678997e+00 -5.197824e+00 -6.084930e+00 -5.024351e+00 -5.750240e+00 -5.579235e+00 -5.294983e+00 -6.085848e+00 -5.096903e+00 -6.151725e+00 -5.841537e+00 -5.697015e+00 -6.793971e+00 -6.663427e+00 -7.063563e+00 -5.692385e+00 -6.015317e+00 -6.065390e+00 -5.191221e+00 -6.173538e+00 -5.141552e+00 -5.675011e+00 -5.613181e+00 -5.103637e+00 -6.102793e+00 -4.989024e+00 -5.739539e+00 -5.524502e+00 -5.191054e+00 -6.043869e+00 -4.888107e+00 -5.823587e+00 -5.456944e+00 -5.276793e+00 -6.017236e+00 -4.856504e+00 -5.905142e+00 -5.419963e+00 -5.365490e+00 -6.010810e+00 -5.032577e+00 -6.253990e+00 -5.695911e+00 -5.801315e+00 -6.847299e+00 -6.653252e+00 -7.003063e+00 -5.645499e+00 -6.140966e+00 -5.982861e+00 -5.320463e+00 -6.179300e+00 -5.080559e+00 -5.804676e+00 -5.529160e+00 -5.281556e+00 -6.054627e+00 -4.944810e+00 -5.909367e+00 -5.443447e+00 -5.391406e+00 -5.982990e+00 -4.915595e+00 -6.015327e+00 -5.376864e+00 -5.503275e+00 -5.918970e+00 -4.944477e+00 -6.102657e+00 -5.312901e+00 -5.586148e+00 -5.817278e+00 -5.012461e+00 -6.148406e+00 -5.232919e+00 -5.673053e+00 -5.702057e+00 -5.116309e+00 -6.130491e+00 -5.108968e+00 -5.749720e+00 -5.572673e+00 -5.266714e+00 -6.102862e+00 -5.022378e+00 -5.921672e+00 -5.533849e+00 -5.417910e+00 -6.046612e+00 -4.983111e+00 -6.028461e+00 -5.433307e+00 -5.533666e+00 -5.959880e+00 -4.960414e+00 -6.075426e+00 -5.304526e+00 -5.574008e+00 -5.751685e+00 -4.741609e+00 -5.751612e+00 -5.380596e+00 -6.989216e+00 -6.075887e+00 -1.392603e+00 2.982434e-02 4.910275e-02 1.709561e-02 4.421067e-03 
-7.774668e-03 -3.667889e-02 -2.023214e-01 -1.029024e+00 -4.453158e+00 -8.317725e+00 -2.148228e+00 1.972616e+00 4.853998e-01 3.201018e+00 3.909065e+00 2.236887e+00 -3.267654e+01 -3.009924e+01 -1.903890e+01 -3.087855e+01 -2.270125e+01 -2.545907e+01 -2.986287e+01 -1.395767e+01 -3.832118e+01 -3.677433e+01 8.605110e+00 8.431561e+00 -1.795273e+00 3.287833e+00 3.065973e+00 -2.001716e+00 2.711841e+00 -3.151143e+00 1.674280e+00 -1.451613e+00 -3.278064e+00 1.123872e+00 -3.726448e+00 5.320507e-01 -3.396099e+00 -3.160075e+00 2.107136e-01 -4.068686e+00 -4.298809e-01 -4.429072e+00 -2.906337e+00 -8.399305e-01 -4.420639e+00 -1.025856e+00 -4.634938e+00 -2.472672e+00 -1.552770e+00 -4.401938e+00 -1.559904e+00 -4.724939e+00 -2.358530e+00 -2.646663e+00 -4.505748e+00 -2.103929e+00 -4.771503e+00 -2.464032e+00 -3.763059e+00 -4.486928e+00 -2.799301e+00 -5.294522e+00 -2.773352e+00 -4.358182e+00 -5.116171e+00 -4.300744e+00 -5.379124e+00 -3.086904e+00 -5.074181e+00 -4.146664e+00 -3.372287e+00 -4.831947e+00 -3.277471e+00 -5.026735e+00 -3.824649e+00 -3.709968e+00 -4.761113e+00 -3.512818e+00 -5.020017e+00 -3.744317e+00 -4.150435e+00 -4.700372e+00 -3.798765e+00 -5.018750e+00 -3.822549e+00 -4.679275e+00 -4.648152e+00 -4.084856e+00 -5.042839e+00 -3.996975e+00 -5.110104e+00 -4.612664e+00 -4.557959e+00 -5.337269e+00 -4.183369e+00 -5.516545e+00 -5.452920e+00 -5.443623e+00 -5.217938e+00 -4.466098e+00 -5.505469e+00 -4.463168e+00 -4.804109e+00 -4.916179e+00 -4.439364e+00 -5.207646e+00 -4.293071e+00 -4.920165e+00 -4.782772e+00 -4.534081e+00 -5.081098e+00 -4.310571e+00 -5.045556e+00 -4.644417e+00 -4.657105e+00 -4.975696e+00 -4.421932e+00 -5.175985e+00 -4.528992e+00 -4.812302e+00 -4.929157e+00 -4.559026e+00 -5.255956e+00 -4.544110e+00 -5.172252e+00 -5.090869e+00 -4.789537e+00 -5.691993e+00 -5.448384e+00 -5.877583e+00 -5.055893e+00 -5.038848e+00 -5.461525e+00 -4.625574e+00 -5.379357e+00 -4.838050e+00 -4.992741e+00 -5.214985e+00 -4.603693e+00 -5.460699e+00 -4.769646e+00 -5.104664e+00 -5.161714e+00 -4.724730e+00 -5.509750e+00 -4.678078e+00 -5.227914e+00 -5.116064e+00 -4.849163e+00 -5.533580e+00 -4.625567e+00 -5.346382e+00 -5.076400e+00 -4.951033e+00 -5.522121e+00 -4.686687e+00 -5.626633e+00 -5.178362e+00 -5.116525e+00 -5.964515e+00 -5.640597e+00 -6.137524e+00 -5.096412e+00 -5.350694e+00 -5.584107e+00 -4.791890e+00 -5.637389e+00 -4.872995e+00 -5.219795e+00 -5.268073e+00 -4.787613e+00 -5.627742e+00 -4.756260e+00 -5.299782e+00 -5.187339e+00 -4.881250e+00 -5.594057e+00 -4.664558e+00 -5.390418e+00 -5.119877e+00 -4.972632e+00 -5.561150e+00 -4.629486e+00 -5.475731e+00 -5.061303e+00 -5.049368e+00 -5.511114e+00 -4.712616e+00 -5.715807e+00 -5.134556e+00 -5.219984e+00 -5.951808e+00 -5.663086e+00 -6.167802e+00 -5.050685e+00 -5.424941e+00 -5.514135e+00 -4.861018e+00 -5.647713e+00 -4.790958e+00 -5.278489e+00 -5.190434e+00 -4.863124e+00 -5.589272e+00 -4.675224e+00 -5.366347e+00 -5.118970e+00 -4.952005e+00 -5.544256e+00 -4.629231e+00 -5.457542e+00 -5.057024e+00 -5.040990e+00 -5.492557e+00 -4.629608e+00 -5.538767e+00 -4.992816e+00 -5.107304e+00 -5.403156e+00 -4.657705e+00 -5.586994e+00 -4.908525e+00 -5.168731e+00 -5.300622e+00 -4.721274e+00 -5.592762e+00 -4.797426e+00 -5.228963e+00 -5.191322e+00 -4.835645e+00 -5.593409e+00 -4.702302e+00 -5.353953e+00 -5.144997e+00 -4.938505e+00 -5.557059e+00 -4.638557e+00 -5.432073e+00 -5.063459e+00 -5.021646e+00 -5.497218e+00 -4.605132e+00 -5.476194e+00 -4.962895e+00 -5.061321e+00 -5.354360e+00 -4.432467e+00 -5.212928e+00 -4.975664e+00 -6.302660e+00 -6.074341e+00 -2.237024e+00 -3.989056e-01 -4.761898e-02 -3.095241e-03 -2.377322e-03 
4.523331e-04 -9.538080e-03 -5.974675e-02 -3.183745e-01 -1.212551e+00 -1.796219e+00 -3.321522e-01 7.589527e-01 7.449823e-01 1.427721e+00 1.276795e+00 -3.019183e+00 -2.541422e+01 -1.184874e+01 -4.158706e+00 -4.165237e+00 -4.147467e+00 -4.154379e+00 -4.160776e+00 -4.137090e+00 -7.602372e+00 -3.541237e+01 -6.740405e+00 -9.541722e-01 5.930228e-01 1.292211e+00 8.164475e-01 -3.442420e-01 4.896877e-01 4.492093e-02 7.829575e-01 -5.768000e-02 -7.434482e-01 -1.289271e-01 -4.436219e-01 3.351369e-01 -3.932768e-01 -6.538427e-01 -3.958227e-01 -7.173016e-01 -4.166912e-02 -6.395643e-01 -5.754126e-01 -6.019982e-01 -9.100443e-01 -3.425504e-01 -8.138128e-01 -5.314513e-01 -7.432098e-01 -1.013176e+00 -5.709030e-01 -9.398258e-01 -5.614185e-01 -8.892060e-01 -1.068640e+00 -7.505261e-01 -1.034004e+00 -6.513746e-01 -1.039855e+00 -1.083155e+00 -9.367338e-01 -1.172347e+00 -7.090316e-01 -9.330428e-01 -8.090202e-01 -9.441645e-01 -1.168978e+00 -8.901929e-01 -1.249802e+00 -1.060477e+00 -1.110394e+00 -1.209177e+00 -1.006485e+00 -1.266635e+00 -1.040974e+00 -1.182991e+00 -1.232656e+00 -1.096076e+00 -1.297075e+00 -1.068165e+00 -1.266741e+00 -1.249696e+00 -1.177453e+00 -1.319665e+00 -1.120022e+00 -1.344184e+00 -1.252083e+00 -1.246342e+00 -1.335950e+00 -1.182314e+00 -1.402242e+00 -1.255264e+00 -1.342221e+00 -1.380175e+00 -1.180590e+00 -1.274729e+00 -1.068286e+00 -1.250731e+00 -1.307987e+00 -1.299085e+00 -1.470494e+00 -1.272156e+00 -1.408347e+00 -1.353225e+00 -1.325500e+00 -1.423303e+00 -1.261515e+00 -1.430949e+00 -1.343859e+00 -1.356607e+00 -1.414827e+00 -1.289858e+00 -1.460027e+00 -1.335591e+00 -1.390281e+00 -1.410435e+00 -1.329351e+00 -1.481439e+00 -1.325096e+00 -1.426199e+00 -1.412445e+00 -1.366322e+00 -1.496682e+00 -1.338902e+00 -1.494186e+00 -1.432056e+00 -1.354963e+00 -1.377364e+00 -1.162329e+00 -1.363280e+00 -1.366532e+00 -1.448400e+00 -1.535998e+00 -1.373192e+00 -1.529781e+00 -1.410811e+00 -1.448835e+00 -1.480599e+00 -1.364765e+00 -1.535299e+00 -1.394533e+00 -1.464705e+00 -1.467403e+00 -1.390708e+00 -1.542456e+00 -1.375936e+00 -1.484792e+00 -1.457930e+00 -1.413728e+00 -1.540432e+00 -1.363186e+00 -1.505726e+00 -1.450436e+00 -1.433449e+00 -1.536480e+00 -1.375021e+00 -1.556410e+00 -1.454435e+00 -1.408332e+00 -1.411851e+00 -1.197495e+00 -1.399741e+00 -1.378491e+00 -1.491375e+00 -1.549490e+00 -1.403819e+00 -1.561645e+00 -1.415804e+00 -1.478677e+00 -1.483455e+00 -1.396717e+00 -1.553345e+00 -1.388822e+00 -1.489779e+00 -1.466753e+00 -1.416207e+00 -1.547481e+00 -1.370142e+00 -1.506354e+00 -1.454790e+00 -1.432568e+00 -1.537084e+00 -1.361691e+00 -1.523749e+00 -1.444816e+00 -1.448263e+00 -1.528075e+00 -1.378816e+00 -1.569323e+00 -1.444465e+00 -1.425409e+00 -1.405030e+00 -1.201143e+00 -1.402902e+00 -1.368079e+00 -1.504741e+00 -1.536428e+00 -1.418787e+00 -1.564187e+00 -1.399742e+00 -1.489412e+00 -1.470309e+00 -1.413049e+00 -1.547334e+00 -1.373233e+00 -1.501940e+00 -1.455697e+00 -1.429144e+00 -1.536670e+00 -1.362690e+00 -1.518264e+00 -1.444444e+00 -1.443903e+00 -1.523033e+00 -1.361374e+00 -1.533548e+00 -1.432762e+00 -1.456145e+00 -1.505873e+00 -1.367696e+00 -1.544208e+00 -1.417758e+00 -1.467269e+00 -1.487044e+00 -1.382750e+00 -1.548935e+00 -1.398367e+00 -1.479649e+00 -1.469416e+00 -1.405997e+00 -1.546879e+00 -1.376328e+00 -1.496249e+00 -1.456348e+00 -1.422886e+00 -1.534862e+00 -1.360996e+00 -1.509890e+00 -1.441158e+00 -1.434484e+00 -1.516628e+00 -1.350750e+00 -1.514843e+00 -1.420139e+00 -1.440501e+00 -1.485719e+00 -1.307533e+00 -1.457320e+00 -1.439363e+00 -1.706488e+00 -1.590562e+00 -7.114577e-01 -1.849190e-01 -3.380778e-02 -3.859425e-03 4.646211e-04 
9.629688e-04 -2.046503e-03 -6.528617e-03 -6.406387e-02 -2.260291e-01 -2.814720e-01 -9.448320e-02 1.838832e-01 2.180691e-01 3.625053e-01 8.957540e-02 -2.385867e+00 -1.319661e+01 -1.248986e+01 -3.738067e+00 -3.716875e+00 -3.716797e+00 -3.716798e+00 -3.716821e+00 -3.722148e+00 -1.009491e+01 -1.464057e+01 -5.721128e+00 -1.749792e+00 3.699622e-02 4.019018e-01 1.194889e-01 -1.916257e-01 2.921438e-02 1.976165e-01 3.214431e-01 8.713167e-02 -2.700747e-01 -1.608798e-01 -2.691295e-02 1.719691e-01 6.153909e-02 -1.855838e-01 -2.060169e-01 -1.375605e-01 4.396617e-02 1.601323e-03 -1.302230e-01 -2.228663e-01 -2.055987e-01 -5.978462e-02 -6.466211e-02 -9.953216e-02 -2.189956e-01 -2.388448e-01 -1.352902e-01 -1.274224e-01 -1.014230e-01 -2.152818e-01 -2.509420e-01 -1.889287e-01 -1.775660e-01 -1.236368e-01 -2.129169e-01 -2.452071e-01 -2.286396e-01 -2.003811e-01 4.421184e-02 1.081354e+00 2.588787e+00 1.841046e+00 3.080069e-01 -8.948384e-02 -2.284642e-01 -2.321081e-01 -2.653409e-01 -2.595560e-01 -2.253901e-01 -2.509924e-01 -2.300088e-01 -2.725447e-01 -2.676896e-01 -2.476166e-01 -2.633694e-01 -2.356224e-01 -2.808617e-01 -2.726021e-01 -2.655337e-01 -2.738677e-01 -2.473078e-01 -2.881499e-01 -2.734755e-01 -2.789195e-01 -2.808120e-01 -2.602278e-01 -2.929770e-01 -2.719129e-01 -2.902488e-01 -2.655658e-01 -8.095157e-02 9.225816e-01 2.257431e+00 1.557754e+00 1.965453e-01 -1.967048e-01 -2.966891e-01 -2.795405e-01 -3.070915e-01 -2.938008e-01 -2.923848e-01 -3.027118e-01 -2.795676e-01 -3.088199e-01 -2.927599e-01 -2.975506e-01 -3.027713e-01 -2.852313e-01 -3.128447e-01 -2.920223e-01 -3.027196e-01 -3.030907e-01 -2.922783e-01 -3.153967e-01 -2.902246e-01 -3.073951e-01 -3.032496e-01 -2.974890e-01 -3.158598e-01 -2.903600e-01 -3.120732e-01 -2.796946e-01 -1.123057e-01 8.886082e-01 2.171606e+00 1.488139e+00 1.689181e-01 -2.234696e-01 -3.115117e-01 -2.981792e-01 -3.227947e-01 -3.041248e-01 -3.096420e-01 -3.131749e-01 -2.961061e-01 -3.215014e-01 -3.004548e-01 -3.106648e-01 -3.104872e-01 -2.999162e-01 -3.222236e-01 -2.971177e-01 -3.128909e-01 -3.088329e-01 -3.031940e-01 -3.213313e-01 -2.946570e-01 -3.153886e-01 -3.072946e-01 -3.053345e-01 -3.192376e-01 -2.945898e-01 -3.179574e-01 -2.813720e-01 -1.181848e-01 8.848436e-01 2.159856e+00 1.478363e+00 1.659937e-01 -2.280949e-01 -3.118084e-01 -3.020225e-01 -3.258469e-01 -3.039103e-01 -3.123930e-01 -3.123894e-01 -3.002611e-01 -3.229501e-01 -2.987442e-01 -3.129142e-01 -3.095737e-01 -3.030933e-01 -3.219277e-01 -2.955636e-01 -3.149698e-01 -3.078265e-01 -3.053206e-01 -3.199113e-01 -2.939316e-01 -3.172610e-01 -3.060823e-01 -3.068599e-01 -3.172273e-01 -2.948467e-01 -3.192803e-01 -2.795811e-01 -1.201300e-01 8.875813e-01 2.162441e+00 1.481211e+00 1.684349e-01 -2.294712e-01 -3.095771e-01 -3.043370e-01 -3.261238e-01 -3.012753e-01 -3.135333e-01 -3.103257e-01 -3.027376e-01 -3.219530e-01 -2.961419e-01 -3.143402e-01 -3.078922e-01 -3.048462e-01 -3.200185e-01 -2.942328e-01 -3.165663e-01 -3.063084e-01 -3.067320e-01 -3.175554e-01 -2.938593e-01 -3.188408e-01 -3.047137e-01 -3.083452e-01 -3.148273e-01 -2.948778e-01 -3.206330e-01 -3.025783e-01 -3.096554e-01 -3.118767e-01 -2.973128e-01 -3.216398e-01 -2.997220e-01 -3.111471e-01 -3.093229e-01 -3.008821e-01 -3.211214e-01 -2.959261e-01 -3.127890e-01 -3.071090e-01 -3.031701e-01 -3.189240e-01 -2.932476e-01 -3.145063e-01 -3.048479e-01 -3.043872e-01 -3.154322e-01 -2.912182e-01 -3.148212e-01 -3.014295e-01 -3.043539e-01 -3.095730e-01 -2.828768e-01 -3.048964e-01 -3.063626e-01 -3.473375e-01 -3.212422e-01 -1.639229e-01 -5.241569e-02 -1.239761e-02 -2.298958e-03 -1.137420e-03 