# vtk DataFile Version 2.0
Comment goes here
ASCII

DATASET STRUCTURED_POINTS
FIELD FieldData 1
TIME 1 1 double
0.01800000
DIMENSIONS    256   32   1

ORIGIN    0.000   0.000   0.000
SPACING   0.0078125 0.0078125   1.000

POINT_DATA   8192
SCALARS Omega double
LOOKUP_TABLE default

4.247868e-11 3.850718e-12 2.498336e-10 -4.700764e-11 -7.830858e-10 -8.724803e-09 -2.953135e-08 -2.976413e-08 -2.129042e-08 -2.169585e-08 -3.612736e-08 -6.964007e-08 -9.248154e-08 -1.598137e-07 -4.404999e-07 -3.242606e-07 -5.676384e-07 -7.925184e-07 -9.368457e-07 -1.955835e-06 -1.713776e-06 -1.084812e-06 -1.199717e-06 -7.401328e-07 -1.036219e-06 -1.165266e-06 -1.429329e-06 -1.331790e-06 -1.828754e-06 -2.254903e-06 -2.624023e-06 -3.551130e-06 -2.929159e-06 -4.196439e-06 -4.619939e-06 -5.630792e-06 -7.761759e-06 -6.277490e-06 -9.626270e-06 -9.588597e-06 -1.267862e-05 -1.694719e-05 -1.485203e-05 -2.495376e-05 -2.335196e-05 -3.738077e-05 -4.678056e-05 -4.892223e-05 -8.825921e-05 -7.542021e-05 -1.257554e-04 -1.397556e-04 -9.368919e-05 -1.423490e-04 -4.549287e-05 1.478397e-04 1.182136e-04 -4.132626e-05 -6.022798e-05 4.397937e-04 1.496827e-03 1.311811e-05 -6.572173e-03 -6.758893e-04 1.174672e-02 2.278978e-03 -6.198463e-03 -9.263016e-04 1.247155e-03 6.422228e-04 9.537126e-05 1.581105e-05 6.012789e-05 1.107284e-04 -2.118010e-05 -1.560907e-04 -1.200759e-04 -1.415054e-04 -1.592453e-04 -1.083291e-04 -1.550887e-04 -1.158741e-04 -1.532841e-04 -1.546169e-04 -1.054367e-04 -1.505780e-04 -3.614617e-05 1.420040e-04 1.074047e-04 -2.537636e-05 -1.292927e-05 4.933922e-04 1.448979e-03 -2.296174e-04 -7.057959e-03 1.986802e-04 1.319188e-02 1.822730e-03 -6.884639e-03 -8.190395e-04 1.292814e-03 5.878374e-04 3.868135e-05 -2.293362e-05 5.575840e-05 1.040509e-04 -4.138004e-05 -1.695383e-04 -1.250137e-04 -1.549510e-04 -1.639636e-04 -1.164865e-04 -1.621572e-04 -1.171043e-04 -1.607272e-04 -1.520745e-04 -1.136325e-04 -1.554947e-04 -2.744121e-05 1.289171e-04 8.896073e-05 -1.654515e-05 1.674388e-05 5.342042e-04 1.359739e-03 -5.254544e-04 -7.001561e-03 1.104743e-03 1.330176e-02 9.451745e-04 -7.035069e-03 -5.365539e-04 1.382039e-03 5.489059e-04 8.189913e-06 -3.625191e-05 7.230745e-05 1.156498e-04 -5.104877e-05 -1.680976e-04 -1.201349e-04 -1.604801e-04 -1.600743e-04 -1.204908e-04 -1.618553e-04 -1.137432e-04 -1.645783e-04 -1.466307e-04 -1.192908e-04 -1.564375e-04 -1.849471e-05 1.163477e-04 7.376586e-05 -3.826786e-06 4.606647e-05 5.730074e-04 1.271471e-03 -8.069923e-04 -6.851071e-03 1.979977e-03 1.318982e-02 3.790839e-05 -7.090277e-03 -2.378490e-04 1.472155e-03 5.073380e-04 -2.352209e-05 -4.634390e-05 9.090217e-05 1.260896e-04 -6.184635e-05 -1.650080e-04 -1.150178e-04 -1.663554e-04 -1.561205e-04 -1.237655e-04 -1.600697e-04 -1.112468e-04 -1.674557e-04 -1.412052e-04 -1.244144e-04 -1.557087e-04 -1.054560e-05 1.036338e-04 6.139609e-05 1.196905e-05 7.467862e-05 6.109400e-04 1.186622e-03 -1.067827e-03 -6.620864e-03 2.822542e-03 1.286640e-02 -8.845085e-04 -7.036537e-03 7.319663e-05 1.566914e-03 4.674229e-04 -4.752118e-05 -4.584465e-05 1.222462e-04 1.460262e-04 -5.809591e-05 -1.384857e-04 -9.238019e-05 -1.359816e-04 -1.177696e-04 -7.234171e-05 -8.161129e-05 -4.461021e-05 -4.256864e-05 -3.306135e-05 -2.199535e-05 -2.243669e-05 -1.350259e-05 -1.481952e-05 -1.089680e-05 -8.936309e-06 -8.869459e-06 -5.717909e-06 -6.756117e-06 -4.694628e-06 -4.223916e-06 -3.988942e-06 -2.709027e-06 -3.180317e-06 -2.108270e-06 -2.030904e-06 -1.816039e-06 -1.301267e-06 -1.477386e-06 -9.362569e-07 -9.823092e-07 -8.191516e-07 -6.224458e-07 -6.781612e-07 -4.238560e-07 -4.747875e-07 -3.728196e-07 -2.990604e-07 -3.138602e-07 -1.972128e-07 -2.319592e-07 -1.719794e-07 -1.475757e-07 -1.488612e-07 -9.648086e-08 -1.175724e-07 -8.702372e-08 -9.530618e-08 -8.999360e-08 -1.814203e-08 4.581868e-10 -6.789588e-11 -1.088173e-10 -1.099295e-10 
-3.217534e-04 -8.180002e-04 -3.430587e-03 -3.892098e-02 -2.937151e-01 -1.153529e+00 -1.898635e+00 -1.513036e+00 -1.752524e+00 -1.744323e+00 -2.228137e+00 -4.096205e+00 -4.448696e+00 -1.093308e+01 -1.355186e+01 -9.801841e+00 -1.431646e+01 -1.202882e+01 -1.393490e+01 -1.599858e+01 -7.337740e+00 -7.331751e+00 -5.674681e+00 -1.302319e+00 -1.582653e+00 -9.863272e-01 -9.346063e-01 -1.133776e+00 -6.324804e-01 -9.796087e-01 -6.320996e-01 -7.320151e-01 -7.322978e-01 -4.143687e-01 -6.413791e-01 -3.353604e-01 -4.139249e-01 -3.533940e-01 -1.490682e-01 -2.793821e-01 -5.917867e-02 -9.894852e-02 -4.151726e-02 1.173819e-01 3.621600e-02 1.988851e-01 1.987537e-01 2.118631e-01 3.698084e-01 2.868205e-01 4.124481e-01 4.276372e-01 3.963735e-01 5.633925e-01 4.504832e-01 5.723181e-01 5.759763e-01 5.369619e-01 7.121295e-01 5.535897e-01 7.023364e-01 6.652745e-01 5.944211e-01 7.909946e-01 6.595898e-01 7.781119e-01 6.682440e-01 6.808841e-01 8.293173e-01 6.190602e-01 8.175633e-01 7.133098e-01 7.135576e-01 8.162263e-01 6.223450e-01 8.375343e-01 7.011222e-01 7.414752e-01 8.093311e-01 6.410953e-01 8.629917e-01 6.919407e-01 7.651896e-01 7.923433e-01 6.620342e-01 8.679062e-01 6.694885e-01 7.892975e-01 7.731178e-01 6.963108e-01 8.810898e-01 6.605489e-01 8.329897e-01 7.631804e-01 6.731863e-01 8.744679e-01 7.382086e-01 8.602001e-01 7.011678e-01 7.329912e-01 8.647985e-01 6.475806e-01 8.631094e-01 7.277877e-01 7.466297e-01 8.250825e-01 6.423275e-01 8.632666e-01 7.000305e-01 7.650034e-01 8.034977e-01 6.613873e-01 8.760649e-01 6.809914e-01 7.855407e-01 7.805084e-01 6.836865e-01 8.699637e-01 6.543818e-01 8.086761e-01 7.608064e-01 7.132866e-01 8.748551e-01 6.518628e-01 8.500106e-01 7.491933e-01 6.871961e-01 8.689618e-01 7.373312e-01 8.695876e-01 6.876957e-01 7.479653e-01 8.507917e-01 6.518128e-01 8.744442e-01 7.139230e-01 7.602269e-01 8.092959e-01 6.538978e-01 8.697677e-01 6.843548e-01 7.799821e-01 7.861084e-01 6.803448e-01 8.762313e-01 6.619973e-01 8.029761e-01 7.656269e-01 6.994505e-01 8.637523e-01 6.427341e-01 8.246284e-01 7.473869e-01 7.273626e-01 8.638581e-01 6.476410e-01 8.644438e-01 7.345469e-01 7.009692e-01 8.602254e-01 7.388634e-01 8.759625e-01 6.741921e-01 7.629878e-01 8.348832e-01 6.614084e-01 8.825619e-01 6.983772e-01 7.747946e-01 7.921544e-01 6.714313e-01 8.717007e-01 6.657069e-01 7.967769e-01 7.705005e-01 6.971495e-01 8.712417e-01 6.480802e-01 8.197400e-01 7.519749e-01 7.135242e-01 8.542739e-01 6.365297e-01 8.390288e-01 7.343969e-01 7.405844e-01 8.504208e-01 6.487055e-01 8.768667e-01 7.196060e-01 7.154197e-01 8.491883e-01 7.435203e-01 8.792018e-01 6.602014e-01 7.786496e-01 8.174740e-01 6.768052e-01 8.861509e-01 6.798149e-01 7.905254e-01 7.756129e-01 6.882997e-01 8.673618e-01 6.491647e-01 8.127237e-01 7.554812e-01 7.109748e-01 8.616899e-01 6.394307e-01 8.353808e-01 7.392443e-01 7.286937e-01 8.453938e-01 6.358305e-01 8.515254e-01 7.201498e-01 7.440101e-01 8.237964e-01 6.402854e-01 8.621980e-01 6.987495e-01 7.586668e-01 7.983531e-01 6.532925e-01 8.656303e-01 6.730575e-01 7.738140e-01 7.708168e-01 6.724790e-01 8.589929e-01 6.434481e-01 7.897975e-01 7.453712e-01 6.858155e-01 8.431327e-01 6.218288e-01 8.020326e-01 7.205081e-01 6.928810e-01 8.187358e-01 6.041787e-01 8.003747e-01 6.884912e-01 6.949030e-01 7.866032e-01 5.929934e-01 7.987558e-01 6.894867e-01 8.751521e-01 9.365204e-01 3.084945e-01 3.804438e-02 3.009202e-03 -1.735834e-05 -2.972391e-04 
1.111812e-03 4.431986e-04 -1.855939e-02 -3.154560e-01 -2.619560e+00 -8.437499e+00 -8.477313e+00 -5.011010e+00 -7.728145e+00 -4.575873e+00 -7.859413e+00 -1.194936e+01 -5.563193e+00 -2.443126e+01 -2.735328e+01 -1.336751e+01 -2.899842e+01 -1.995385e+01 -2.259844e+01 -3.387054e+01 -6.969108e+00 -1.266379e+01 -1.681150e+01 -1.019505e+00 -7.838421e+00 -2.421665e+00 -2.431621e+00 -6.564125e+00 -2.994474e-01 -6.158310e+00 -1.574044e+00 -3.256810e+00 -5.029783e+00 -2.633975e-01 -5.027615e+00 -1.067644e+00 -2.966971e+00 -3.436967e+00 -1.505818e-01 -3.544771e+00 -5.652784e-01 -2.040208e+00 -1.894092e+00 1.616179e-01 -1.967178e+00 8.371501e-02 -8.451916e-01 -5.654331e-01 6.526997e-01 -6.054178e-01 7.117502e-01 1.858362e-01 3.776293e-01 1.113345e+00 3.410025e-01 1.205233e+00 8.951099e-01 1.008022e+00 1.518133e+00 9.428460e-01 1.599354e+00 1.286646e+00 1.310441e+00 1.899027e+00 1.368368e+00 1.681596e+00 1.436674e+00 1.596399e+00 1.912298e+00 1.379649e+00 1.930897e+00 1.629337e+00 1.666697e+00 1.906712e+00 1.435559e+00 1.984683e+00 1.630463e+00 1.751430e+00 1.910465e+00 1.503800e+00 2.053921e+00 1.626175e+00 1.816464e+00 1.877350e+00 1.562074e+00 2.064876e+00 1.576771e+00 1.876705e+00 1.831634e+00 1.651885e+00 2.103780e+00 1.560229e+00 1.985800e+00 1.810320e+00 1.608390e+00 2.087133e+00 1.716728e+00 2.044375e+00 1.675708e+00 1.740729e+00 2.064077e+00 1.531399e+00 2.060830e+00 1.730355e+00 1.770867e+00 1.964997e+00 1.518198e+00 2.056726e+00 1.659306e+00 1.819170e+00 1.914247e+00 1.567210e+00 2.091057e+00 1.614162e+00 1.870670e+00 1.856909e+00 1.620317e+00 2.072856e+00 1.546894e+00 1.925772e+00 1.805315e+00 1.695692e+00 2.089780e+00 1.542049e+00 2.028462e+00 1.778518e+00 1.643346e+00 2.071058e+00 1.715669e+00 2.071175e+00 1.643879e+00 1.777053e+00 2.029996e+00 1.542002e+00 2.089083e+00 1.696700e+00 1.804377e+00 1.926882e+00 1.546259e+00 2.072584e+00 1.621356e+00 1.856033e+00 1.871735e+00 1.613302e+00 2.091394e+00 1.568216e+00 1.913478e+00 1.820366e+00 1.658671e+00 2.057655e+00 1.519017e+00 1.964547e+00 1.772344e+00 1.730224e+00 2.062431e+00 1.532144e+00 2.063985e+00 1.743075e+00 1.677048e+00 2.047095e+00 1.719495e+00 2.089296e+00 1.610895e+00 1.813431e+00 1.990680e+00 1.565240e+00 2.109400e+00 1.658565e+00 1.840177e+00 1.885047e+00 1.588587e+00 2.077379e+00 1.576112e+00 1.897201e+00 1.833360e+00 1.654112e+00 2.079250e+00 1.534550e+00 1.954421e+00 1.786740e+00 1.692922e+00 2.034596e+00 1.504250e+00 1.999278e+00 1.740420e+00 1.762515e+00 2.029098e+00 1.534947e+00 2.094302e+00 1.706930e+00 1.711996e+00 2.016872e+00 1.730639e+00 2.099832e+00 1.576282e+00 1.850579e+00 1.947255e+00 1.601485e+00 2.118176e+00 1.612083e+00 1.877223e+00 1.843883e+00 1.626703e+00 2.066156e+00 1.533738e+00 1.933078e+00 1.795187e+00 1.682768e+00 2.055310e+00 1.509434e+00 1.988080e+00 1.754320e+00 1.723250e+00 2.015238e+00 1.496420e+00 2.024555e+00 1.704765e+00 1.755378e+00 1.961728e+00 1.499687e+00 2.046620e+00 1.648394e+00 1.783082e+00 1.898542e+00 1.519107e+00 2.051986e+00 1.579568e+00 1.808839e+00 1.829990e+00 1.548727e+00 2.038095e+00 1.498467e+00 1.833539e+00 1.769332e+00 1.562284e+00 2.008096e+00 1.435745e+00 1.851489e+00 1.716711e+00 1.565883e+00 1.965839e+00 1.389217e+00 1.845765e+00 1.659629e+00 1.577983e+00 1.916126e+00 1.396721e+00 1.885185e+00 1.700831e+00 2.090561e+00 2.488542e+00 1.042134e+00 1.789548e-01 1.586969e-02 1.470986e-03 6.247152e-04 
-8.075622e-04 -3.554961e-03 -4.420109e-02 -6.424440e-01 -5.927991e+00 -1.878349e+01 -1.476538e+01 -6.255027e+00 -1.306965e+01 -3.776167e+00 -9.848447e+00 -1.081617e+01 9.758568e+00 -5.012538e+00 1.218544e+00 1.894925e+01 1.861319e+00 1.270048e+01 1.525980e+01 -6.028871e+00 2.097616e+01 7.766553e+00 -1.613945e+01 4.722622e+00 -1.408757e+01 -1.921676e+00 -1.721214e+00 -1.301317e+01 2.821761e+00 -1.239962e+01 -9.675288e-01 -4.975725e+00 -1.042622e+01 1.896413e+00 -1.079391e+01 -1.004763e+00 -5.957337e+00 -7.845499e+00 7.593241e-01 -8.500704e+00 -1.069796e+00 -5.099932e+00 -5.123818e+00 6.987281e-02 -5.775861e+00 -7.369471e-01 -3.454302e+00 -2.783780e+00 -1.088320e-01 -3.365584e+00 -2.644473e-01 -1.911858e+00 -1.193089e+00 -3.535182e-02 -1.651093e+00 1.312579e-01 -8.141839e-01 -2.687828e-01 1.347061e-01 -5.794909e-01 4.196575e-01 -2.822964e-01 1.820929e-01 7.074156e-01 5.058018e-02 1.530322e-01 7.194537e-02 4.921247e-01 4.885846e-01 2.527173e-01 6.069186e-01 3.839545e-01 4.985906e-01 5.521020e-01 3.954282e-01 6.413239e-01 4.677979e-01 5.598418e-01 5.938176e-01 4.689177e-01 6.714952e-01 5.059982e-01 5.960366e-01 6.015183e-01 5.087744e-01 6.771541e-01 5.061314e-01 6.215655e-01 5.924024e-01 5.447220e-01 6.892579e-01 5.044390e-01 6.564172e-01 5.797401e-01 5.217581e-01 6.777025e-01 5.335980e-01 6.571180e-01 5.434055e-01 5.614175e-01 6.812919e-01 5.019173e-01 6.769446e-01 5.741604e-01 5.812695e-01 6.523149e-01 5.033734e-01 6.789261e-01 5.524562e-01 6.019607e-01 6.354051e-01 5.223328e-01 6.922759e-01 5.370135e-01 6.217351e-01 6.140045e-01 5.406107e-01 6.846987e-01 5.122256e-01 6.405401e-01 5.924949e-01 5.640274e-01 6.871289e-01 5.056458e-01 6.712624e-01 5.735441e-01 5.353342e-01 6.705620e-01 5.356894e-01 6.700216e-01 5.347734e-01 5.738463e-01 6.713358e-01 5.057184e-01 6.871841e-01 5.639513e-01 5.927052e-01 6.404631e-01 5.123896e-01 6.847778e-01 5.406169e-01 6.142627e-01 6.216817e-01 5.373020e-01 6.923626e-01 5.224885e-01 6.358201e-01 6.019985e-01 5.530703e-01 6.790731e-01 5.038496e-01 6.530764e-01 5.815449e-01 5.754698e-01 6.773243e-01 5.033364e-01 6.825888e-01 5.615298e-01 5.472375e-01 6.614899e-01 5.370400e-01 6.770698e-01 5.232428e-01 5.863981e-01 6.584814e-01 5.125953e-01 6.948415e-01 5.513150e-01 6.047113e-01 6.267139e-01 5.256646e-01 6.870705e-01 5.257928e-01 6.277581e-01 6.090034e-01 5.502045e-01 6.882968e-01 5.116904e-01 6.490644e-01 5.908454e-01 5.639808e-01 6.710205e-01 4.995524e-01 6.639505e-01 5.709261e-01 5.858454e-01 6.656567e-01 5.047244e-01 6.916558e-01 5.494261e-01 5.586091e-01 6.489807e-01 5.398447e-01 6.819623e-01 5.103048e-01 5.972810e-01 6.434266e-01 5.208463e-01 6.976789e-01 5.333021e-01 6.132212e-01 6.116817e-01 5.308994e-01 6.822982e-01 5.060332e-01 6.318253e-01 5.936451e-01 5.461248e-01 6.786520e-01 4.919350e-01 6.466429e-01 5.757066e-01 5.511717e-01 6.639776e-01 4.761500e-01 6.520075e-01 5.529480e-01 5.477530e-01 6.447503e-01 4.575449e-01 6.504270e-01 5.245983e-01 5.353868e-01 6.219316e-01 4.318848e-01 6.456943e-01 4.858490e-01 5.134814e-01 5.964946e-01 3.958548e-01 6.473455e-01 4.337238e-01 4.815891e-01 5.797848e-01 3.471273e-01 6.580518e-01 3.822031e-01 4.515413e-01 5.807994e-01 3.066304e-01 6.860059e-01 3.534905e-01 4.467389e-01 6.186186e-01 3.276928e-01 7.473594e-01 4.276745e-01 5.335080e-01 7.022482e-01 6.232812e-01 1.415722e+00 1.190057e+00 3.129031e-01 2.760283e-02 1.318383e-03 -5.564745e-04 
-6.450780e-05 -2.038321e-03 -3.090846e-02 -3.903806e-01 -4.098719e+00 -1.285837e+01 -7.719428e+00 -1.372718e+00 -6.338576e+00 1.140263e+00 -2.093208e+00 1.863607e+00 1.480764e+01 -9.526121e-01 -1.371894e+00 1.324644e+00 5.553199e+00 3.058344e+00 3.810776e+00 -3.142388e+00 -2.811150e+00 2.085146e+01 1.824784e+00 7.305376e+00 -7.236834e+00 4.442650e-01 8.418522e-01 -7.652415e+00 3.550921e+00 -7.225113e+00 5.541865e-01 -1.896870e+00 -6.281478e+00 2.450299e+00 -6.536312e+00 -2.981270e-03 -3.325952e+00 -5.044317e+00 1.029485e+00 -5.563695e+00 -6.180556e-01 -3.417852e+00 -3.677850e+00 -1.461105e-01 -4.297599e+00 -1.011979e+00 -2.985491e+00 -2.578821e+00 -9.848922e-01 -3.192005e+00 -1.255775e+00 -2.500793e+00 -1.912864e+00 -1.502783e+00 -2.398238e+00 -1.433569e+00 -2.136805e+00 -1.647448e+00 -1.842947e+00 -1.926352e+00 -1.616280e+00 -2.030078e+00 -1.519948e+00 -1.674703e+00 -1.738567e+00 -2.043973e+00 -1.818779e+00 -1.531436e+00 -1.952799e+00 -1.523448e+00 -1.840090e+00 -1.700551e+00 -1.615240e+00 -1.870376e+00 -1.428975e+00 -1.870232e+00 -1.602536e+00 -1.656663e+00 -1.827645e+00 -1.434025e+00 -1.927962e+00 -1.552637e+00 -1.700865e+00 -1.774860e+00 -1.464390e+00 -1.935073e+00 -1.486412e+00 -1.750633e+00 -1.724444e+00 -1.542773e+00 -1.974671e+00 -1.467827e+00 -1.855870e+00 -1.712675e+00 -1.517031e+00 -1.967589e+00 -1.636104e+00 -1.933068e+00 -1.580366e+00 -1.643625e+00 -1.930547e+00 -1.432535e+00 -1.932600e+00 -1.612101e+00 -1.657503e+00 -1.831371e+00 -1.412426e+00 -1.922832e+00 -1.541864e+00 -1.697867e+00 -1.784432e+00 -1.455918e+00 -1.953368e+00 -1.500469e+00 -1.743165e+00 -1.733306e+00 -1.504627e+00 -1.937017e+00 -1.439759e+00 -1.793823e+00 -1.689441e+00 -1.578542e+00 -1.958564e+00 -1.442330e+00 -1.895420e+00 -1.677848e+00 -1.547588e+00 -1.954070e+00 -1.632336e+00 -1.954117e+00 -1.548299e+00 -1.677242e+00 -1.896740e+00 -1.442327e+00 -1.958150e+00 -1.579261e+00 -1.688681e+00 -1.794630e+00 -1.439227e+00 -1.936857e+00 -1.505291e+00 -1.732513e+00 -1.743982e+00 -1.499694e+00 -1.953554e+00 -1.456494e+00 -1.783672e+00 -1.698751e+00 -1.541047e+00 -1.923381e+00 -1.412640e+00 -1.830671e+00 -1.658400e+00 -1.611110e+00 -1.933593e+00 -1.431922e+00 -1.929486e+00 -1.644930e+00 -1.578384e+00 -1.932250e+00 -1.635878e+00 -1.970436e+00 -1.518081e+00 -1.710739e+00 -1.859357e+00 -1.465300e+00 -1.976104e+00 -1.543313e+00 -1.722231e+00 -1.755154e+00 -1.479967e+00 -1.940324e+00 -1.462611e+00 -1.771507e+00 -1.707772e+00 -1.538890e+00 -1.942084e+00 -1.424506e+00 -1.822638e+00 -1.667049e+00 -1.573840e+00 -1.902183e+00 -1.398150e+00 -1.864039e+00 -1.628348e+00 -1.641920e+00 -1.902843e+00 -1.434074e+00 -1.959232e+00 -1.611164e+00 -1.611441e+00 -1.906115e+00 -1.647435e+00 -1.979158e+00 -1.487330e+00 -1.747192e+00 -1.819100e+00 -1.503953e+00 -1.984306e+00 -1.502633e+00 -1.761567e+00 -1.718053e+00 -1.524578e+00 -1.930835e+00 -1.429664e+00 -1.814550e+00 -1.675010e+00 -1.582060e+00 -1.921611e+00 -1.414730e+00 -1.870723e+00 -1.642035e+00 -1.630318e+00 -1.885665e+00 -1.416378e+00 -1.912982e+00 -1.602899e+00 -1.677433e+00 -1.837140e+00 -1.443144e+00 -1.944262e+00 -1.561469e+00 -1.729483e+00 -1.780125e+00 -1.500229e+00 -1.957195e+00 -1.516296e+00 -1.790848e+00 -1.719463e+00 -1.584179e+00 -1.937204e+00 -1.471724e+00 -1.863808e+00 -1.659607e+00 -1.663406e+00 -1.885489e+00 -1.452628e+00 -1.927051e+00 -1.590174e+00 -1.721524e+00 -1.796941e+00 -1.429735e+00 -1.928766e+00 -1.470379e+00 -1.718224e+00 -1.656216e+00 -1.357695e+00 -1.884674e+00 -1.428020e+00 -2.056799e+00 -1.588083e+00 1.000912e-01 1.598063e-01 1.542526e-02 1.123801e-03 2.664496e-04 
-1.540355e-04 -1.216141e-04 -3.930895e-03 -6.379283e-02 -6.646729e-01 -1.543022e+00 5.889184e-01 1.546034e+00 7.926501e-01 2.331460e+00 2.262471e+00 3.488870e+00 -1.130407e+01 -1.019167e+01 -6.935597e+00 -1.173832e+01 -7.600322e+00 -1.035507e+01 -1.158631e+01 -5.801685e+00 -1.749768e+01 -1.433954e+01 5.217857e+00 2.705390e+00 6.378643e-01 9.895884e-01 1.188513e+00 -5.685144e-02 1.140314e+00 -1.460119e-02 6.139996e-01 5.806554e-01 -1.645849e-01 7.475014e-01 -1.523111e-01 2.761935e-01 6.526727e-02 -3.049973e-01 2.719959e-01 -3.670335e-01 -7.456172e-02 -2.995280e-01 -4.442270e-01 -2.070130e-01 -5.795074e-01 -4.378545e-01 -6.392254e-01 -6.273072e-01 -6.616121e-01 -7.885942e-01 -7.636259e-01 -9.137695e-01 -8.093396e-01 -1.010204e+00 -9.378480e-01 -1.022226e+00 -1.099152e+00 -9.926021e-01 -1.281706e+00 -1.046216e+00 -1.244892e+00 -1.230428e+00 -1.075076e+00 -1.390492e+00 -1.182629e+00 -1.411442e+00 -1.222896e+00 -1.208603e+00 -1.481474e+00 -1.108840e+00 -1.453776e+00 -1.274871e+00 -1.266565e+00 -1.452945e+00 -1.104316e+00 -1.487437e+00 -1.245460e+00 -1.315896e+00 -1.439632e+00 -1.135443e+00 -1.534769e+00 -1.227147e+00 -1.358118e+00 -1.408053e+00 -1.171225e+00 -1.542516e+00 -1.184848e+00 -1.400664e+00 -1.372364e+00 -1.234423e+00 -1.569789e+00 -1.170350e+00 -1.481009e+00 -1.357884e+00 -1.202148e+00 -1.559414e+00 -1.300841e+00 -1.532078e+00 -1.252166e+00 -1.304494e+00 -1.538966e+00 -1.146587e+00 -1.537512e+00 -1.290987e+00 -1.324499e+00 -1.465102e+00 -1.135280e+00 -1.534597e+00 -1.238833e+00 -1.358024e+00 -1.427143e+00 -1.170218e+00 -1.558618e+00 -1.205268e+00 -1.394938e+00 -1.385717e+00 -1.209653e+00 -1.546374e+00 -1.156760e+00 -1.435748e+00 -1.349668e+00 -1.265003e+00 -1.558483e+00 -1.154229e+00 -1.512082e+00 -1.332671e+00 -1.227272e+00 -1.548693e+00 -1.299178e+00 -1.549800e+00 -1.227894e+00 -1.331308e+00 -1.513350e+00 -1.154344e+00 -1.557990e+00 -1.265802e+00 -1.349093e+00 -1.436576e+00 -1.156198e+00 -1.546131e+00 -1.210485e+00 -1.385149e+00 -1.395617e+00 -1.204478e+00 -1.558872e+00 -1.171000e+00 -1.426527e+00 -1.358742e+00 -1.238172e+00 -1.535295e+00 -1.135778e+00 -1.464535e+00 -1.325370e+00 -1.290533e+00 -1.538580e+00 -1.146533e+00 -1.538400e+00 -1.306471e+00 -1.251951e+00 -1.531953e+00 -1.301987e+00 -1.562223e+00 -1.203695e+00 -1.358129e+00 -1.484323e+00 -1.171852e+00 -1.572592e+00 -1.237642e+00 -1.375433e+00 -1.405592e+00 -1.187873e+00 -1.549430e+00 -1.176912e+00 -1.415554e+00 -1.367312e+00 -1.234936e+00 -1.549877e+00 -1.145942e+00 -1.456866e+00 -1.333979e+00 -1.263690e+00 -1.518321e+00 -1.124606e+00 -1.490490e+00 -1.301839e+00 -1.314510e+00 -1.514216e+00 -1.148415e+00 -1.561089e+00 -1.279698e+00 -1.277883e+00 -1.511108e+00 -1.310537e+00 -1.568926e+00 -1.178628e+00 -1.386203e+00 -1.452622e+00 -1.200055e+00 -1.579050e+00 -1.204281e+00 -1.404146e+00 -1.375770e+00 -1.218902e+00 -1.541586e+00 -1.147695e+00 -1.444984e+00 -1.340324e+00 -1.261228e+00 -1.532892e+00 -1.131666e+00 -1.486716e+00 -1.311779e+00 -1.294303e+00 -1.503803e+00 -1.126435e+00 -1.516392e+00 -1.277809e+00 -1.323454e+00 -1.464995e+00 -1.136511e+00 -1.536408e+00 -1.240181e+00 -1.352323e+00 -1.419413e+00 -1.163605e+00 -1.543431e+00 -1.196030e+00 -1.383540e+00 -1.370605e+00 -1.204242e+00 -1.531650e+00 -1.147012e+00 -1.418452e+00 -1.325895e+00 -1.237033e+00 -1.502596e+00 -1.114978e+00 -1.448058e+00 -1.281915e+00 -1.259881e+00 -1.456245e+00 -1.090538e+00 -1.449414e+00 -1.220596e+00 -1.268576e+00 -1.389555e+00 -1.072152e+00 -1.449154e+00 -1.218970e+00 -1.591010e+00 -1.577247e+00 -3.915874e-01 -1.472186e-02 7.680081e-05 -3.448244e-05 -1.496202e-04 
1.443737e-04 -3.163783e-05 -4.871972e-04 -7.896031e-03 -6.384230e-02 -6.032706e-02 2.402744e-01 3.346618e-01 2.664691e-01 4.523207e-01 4.011110e-01 -3.062030e-01 -9.209195e+00 -4.337220e+00 -1.406447e+00 -1.410765e+00 -1.400411e+00 -1.406640e+00 -1.407685e+00 -1.400616e+00 -3.838251e+00 -1.429640e+01 -6.332717e-01 2.514407e-01 2.534747e-01 2.059196e-01 2.401398e-01 9.948465e-02 1.551619e-01 9.142436e-02 8.983200e-02 9.044209e-02 1.353115e-02 6.296030e-02 1.723385e-02 1.824746e-02 4.296543e-03 -3.131945e-02 -1.445130e-02 -4.383404e-02 -4.419730e-02 -6.310102e-02 -7.008432e-02 -8.012858e-02 -9.066491e-02 -9.616777e-02 -1.147076e-01 -1.040691e-01 -1.331770e-01 -1.249557e-01 -1.362283e-01 -1.499273e-01 -1.313995e-01 -1.706948e-01 -1.460139e-01 -1.655156e-01 -1.709605e-01 -1.537355e-01 -1.956591e-01 -1.577701e-01 -1.894124e-01 -1.822633e-01 -1.558381e-01 -2.027482e-01 -1.804278e-01 -2.038002e-01 -1.730019e-01 -1.776939e-01 -2.142303e-01 -1.641216e-01 -2.098337e-01 -1.855157e-01 -1.862608e-01 -2.102324e-01 -1.641293e-01 -2.148419e-01 -1.824776e-01 -1.914901e-01 -2.068316e-01 -1.674721e-01 -2.194333e-01 -1.791943e-01 -1.965080e-01 -2.023506e-01 -1.725863e-01 -2.210234e-01 -1.741130e-01 -2.023229e-01 -1.980823e-01 -1.795135e-01 -2.218650e-01 -1.708853e-01 -2.116585e-01 -1.941137e-01 -1.693228e-01 -2.174052e-01 -1.914882e-01 -2.154026e-01 -1.755637e-01 -1.873677e-01 -2.184269e-01 -1.679372e-01 -2.178952e-01 -1.862602e-01 -1.923160e-01 -2.100822e-01 -1.675698e-01 -2.196101e-01 -1.809600e-01 -1.961044e-01 -2.044429e-01 -1.717230e-01 -2.218089e-01 -1.760467e-01 -2.007931e-01 -1.991410e-01 -1.775094e-01 -2.210700e-01 -1.702503e-01 -2.066645e-01 -1.950308e-01 -1.833609e-01 -2.202428e-01 -1.687824e-01 -2.154013e-01 -1.906025e-01 -1.726441e-01 -2.166441e-01 -1.912557e-01 -2.168696e-01 -1.723160e-01 -1.909946e-01 -2.152010e-01 -1.689654e-01 -2.204397e-01 -1.830497e-01 -1.954418e-01 -2.063069e-01 -1.703960e-01 -2.211386e-01 -1.772696e-01 -1.995352e-01 -2.004127e-01 -1.762742e-01 -2.217694e-01 -1.715640e-01 -2.048139e-01 -1.957123e-01 -1.812686e-01 -2.194814e-01 -1.674908e-01 -2.104318e-01 -1.919323e-01 -1.866364e-01 -2.176713e-01 -1.678362e-01 -2.186418e-01 -1.870397e-01 -1.759556e-01 -2.152045e-01 -1.916408e-01 -2.176935e-01 -1.691100e-01 -1.946512e-01 -2.115912e-01 -1.712694e-01 -2.222363e-01 -1.794615e-01 -1.987959e-01 -2.022811e-01 -1.746557e-01 -2.215509e-01 -1.728465e-01 -2.034194e-01 -1.968263e-01 -1.802699e-01 -2.204978e-01 -1.682902e-01 -2.087166e-01 -1.925846e-01 -1.845843e-01 -2.171227e-01 -1.660463e-01 -2.138666e-01 -1.889331e-01 -1.897094e-01 -2.145593e-01 -1.681412e-01 -2.214300e-01 -1.834227e-01 -1.794360e-01 -2.132780e-01 -1.927544e-01 -2.177917e-01 -1.658360e-01 -1.984807e-01 -2.076930e-01 -1.749650e-01 -2.229870e-01 -1.751996e-01 -2.024924e-01 -1.984885e-01 -1.788070e-01 -2.205291e-01 -1.690055e-01 -2.072572e-01 -1.934822e-01 -1.836371e-01 -2.182183e-01 -1.663394e-01 -2.123123e-01 -1.895775e-01 -1.877691e-01 -2.142828e-01 -1.656641e-01 -2.162741e-01 -1.853383e-01 -1.914842e-01 -2.092916e-01 -1.670656e-01 -2.190324e-01 -1.806092e-01 -1.951232e-01 -2.035127e-01 -1.706570e-01 -2.200686e-01 -1.749215e-01 -1.989794e-01 -1.973513e-01 -1.758590e-01 -2.185278e-01 -1.683652e-01 -2.031172e-01 -1.916200e-01 -1.796638e-01 -2.145013e-01 -1.637823e-01 -2.063097e-01 -1.857749e-01 -1.819464e-01 -2.081500e-01 -1.604593e-01 -2.068116e-01 -1.784329e-01 -1.831835e-01 -1.999240e-01 -1.559597e-01 -2.015229e-01 -1.744262e-01 -2.169019e-01 -2.143438e-01 -6.306937e-02 -5.884191e-03 -3.297749e-04 6.836668e-05 1.010610e-04 
9.545039e-05 -8.600357e-05 5.298201e-04 -3.114293e-04 -1.994548e-03 7.078771e-03 1.842189e-02 3.137029e-02 2.628481e-02 4.371500e-02 5.125115e-04 -4.868491e-01 -4.586428e+00 -4.761050e+00 -1.265717e+00 -1.259193e+00 -1.259163e+00 -1.259172e+00 -1.259180e+00 -1.264140e+00 -4.857730e+00 -5.840293e+00 -7.507899e-01 -5.401783e-02 2.983532e-02 2.580009e-02 2.236894e-02 9.218766e-03 1.389352e-02 1.567480e-02 9.509851e-03 6.841472e-03 -2.940541e-03 8.526725e-04 1.771521e-03 1.422802e-04 -1.601742e-03 -6.019258e-03 -6.091851e-03 -5.864912e-03 -6.579126e-03 -8.244926e-03 -8.796205e-03 -1.097285e-02 -1.027351e-02 -1.097368e-02 -1.239408e-02 -1.104727e-02 -1.424326e-02 -1.270565e-02 -1.372485e-02 -1.471678e-02 -1.282114e-02 -1.639598e-02 -1.390411e-02 -1.547891e-02 -1.581470e-02 -1.415640e-02 -1.757654e-02 -1.436299e-02 -1.692290e-02 -1.606761e-02 -1.054998e-02 2.939254e-02 7.405360e-02 3.218418e-02 -1.113201e-02 -1.528386e-02 -1.848384e-02 -1.450627e-02 -1.798335e-02 -1.612782e-02 -1.621025e-02 -1.808485e-02 -1.446761e-02 -1.840035e-02 -1.591601e-02 -1.655399e-02 -1.774936e-02 -1.468192e-02 -1.868275e-02 -1.560170e-02 -1.689933e-02 -1.736865e-02 -1.508504e-02 -1.883602e-02 -1.520486e-02 -1.731588e-02 -1.702053e-02 -1.553391e-02 -1.875415e-02 -1.487710e-02 -1.801187e-02 -1.646015e-02 -1.127806e-02 2.851737e-02 7.318885e-02 3.145932e-02 -1.112361e-02 -1.582660e-02 -1.856771e-02 -1.466280e-02 -1.842147e-02 -1.605403e-02 -1.655933e-02 -1.794412e-02 -1.466863e-02 -1.868587e-02 -1.573430e-02 -1.684483e-02 -1.750485e-02 -1.498187e-02 -1.883173e-02 -1.532596e-02 -1.719205e-02 -1.709475e-02 -1.545465e-02 -1.882384e-02 -1.488303e-02 -1.763216e-02 -1.677850e-02 -1.581865e-02 -1.862493e-02 -1.470893e-02 -1.828298e-02 -1.616712e-02 -1.153475e-02 2.851035e-02 7.320271e-02 3.141355e-02 -1.086001e-02 -1.611644e-02 -1.832666e-02 -1.474034e-02 -1.862110e-02 -1.580931e-02 -1.679055e-02 -1.764673e-02 -1.489203e-02 -1.881597e-02 -1.544585e-02 -1.709997e-02 -1.719471e-02 -1.533860e-02 -1.883836e-02 -1.497219e-02 -1.749268e-02 -1.683403e-02 -1.574569e-02 -1.870161e-02 -1.466231e-02 -1.792373e-02 -1.654503e-02 -1.606503e-02 -1.843033e-02 -1.463651e-02 -1.852537e-02 -1.587553e-02 -1.179715e-02 2.855325e-02 7.317721e-02 3.141542e-02 -1.060533e-02 -1.641019e-02 -1.805759e-02 -1.491809e-02 -1.876665e-02 -1.553462e-02 -1.703915e-02 -1.733343e-02 -1.522876e-02 -1.885940e-02 -1.509585e-02 -1.739078e-02 -1.692205e-02 -1.564809e-02 -1.874435e-02 -1.471310e-02 -1.778990e-02 -1.659793e-02 -1.599909e-02 -1.851662e-02 -1.454626e-02 -1.819499e-02 -1.631874e-02 -1.629500e-02 -1.819383e-02 -1.466201e-02 -1.873666e-02 -1.558055e-02 -1.207569e-02 2.863519e-02 7.310813e-02 3.147348e-02 -1.035166e-02 -1.671815e-02 -1.776844e-02 -1.520515e-02 -1.883533e-02 -1.520683e-02 -1.731698e-02 -1.704487e-02 -1.555743e-02 -1.879208e-02 -1.479329e-02 -1.768768e-02 -1.667447e-02 -1.590737e-02 -1.857247e-02 -1.455690e-02 -1.806013e-02 -1.636354e-02 -1.621447e-02 -1.826343e-02 -1.450456e-02 -1.838426e-02 -1.605070e-02 -1.650111e-02 -1.788579e-02 -1.462264e-02 -1.862334e-02 -1.569527e-02 -1.677823e-02 -1.744682e-02 -1.491246e-02 -1.873601e-02 -1.526297e-02 -1.707523e-02 -1.698440e-02 -1.532560e-02 -1.864113e-02 -1.474515e-02 -1.738208e-02 -1.654517e-02 -1.560297e-02 -1.832597e-02 -1.436556e-02 -1.760703e-02 -1.608013e-02 -1.574120e-02 -1.780700e-02 -1.408183e-02 -1.764920e-02 -1.550064e-02 -1.573595e-02 -1.707888e-02 -1.353894e-02 -1.688345e-02 -1.495676e-02 -1.797314e-02 -1.780654e-02 -5.967126e-03 -8.144894e-04 -1.356167e-04 -3.200722e-05 -9.099875e-05 