# vtk DataFile Version 2.0
Comment goes here
ASCII

DATASET STRUCTURED_POINTS
FIELD FieldData 1
TIME 1 1 double
0.05000000
DIMENSIONS    256   32   1

ORIGIN    0.000   0.000   0.000
SPACING   0.0078125 0.0078125   1.000

POINT_DATA   8192
SCALARS Omega double
LOOKUP_TABLE default

3.628438e-08 1.586111e-09 1.491927e-07 -5.835173e-08 -2.493640e-07 -1.494359e-06 -4.007465e-06 -3.775420e-06 -9.364863e-07 -6.098925e-07 -1.641681e-06 -2.777102e-07 1.137007e-06 1.415779e-05 -9.025318e-05 -5.789257e-05 -3.846806e-05 -1.262557e-04 -5.319803e-05 -2.316466e-04 -2.114738e-04 8.731118e-05 -3.126281e-05 1.206025e-05 -5.973086e-05 -1.046597e-04 -3.187079e-05 -4.828220e-05 -1.008621e-04 -1.786480e-04 -3.120776e-04 -3.179286e-04 -2.791710e-04 -3.025048e-04 -4.337281e-04 -5.410471e-04 -6.455479e-04 -4.825656e-04 -3.824152e-04 -5.670506e-04 -7.850753e-04 -1.067296e-03 -9.665787e-04 -9.699186e-04 -1.122625e-03 -1.470353e-03 -2.078681e-03 -1.905176e-03 -1.923267e-03 -1.998313e-03 -2.629054e-03 -3.675977e-03 -3.636127e-03 -4.063846e-03 -3.581013e-03 -3.982529e-03 -5.846093e-03 -5.136526e-03 -4.125802e-03 1.715704e-03 4.035292e-03 -2.389445e-02 2.042950e-04 8.758651e-02 4.751132e-02 -2.084196e-02 3.414060e-05 1.074280e-02 7.114446e-03 -2.078309e-03 -7.723687e-03 -5.236114e-03 -5.490743e-03 -4.973928e-03 -5.055308e-03 -6.018817e-03 -4.610877e-03 -4.536895e-03 -4.384343e-03 -3.876088e-03 -4.646682e-03 -3.747114e-03 -4.359884e-03 -4.542692e-03 -4.274646e-03 -5.595929e-03 -4.245277e-03 -4.903209e-03 -5.434397e-03 -5.092171e-03 -5.876552e-03 6.347534e-04 5.168987e-03 -6.547663e-03 -1.049946e-02 3.612814e-02 6.377466e-02 1.918929e-02 -9.872322e-03 -1.384740e-03 5.035064e-03 -4.181068e-04 -6.100088e-03 -5.484148e-03 -5.696471e-03 -4.811611e-03 -4.572825e-03 -5.398543e-03 -4.174070e-03 -4.414637e-03 -4.130565e-03 -3.563500e-03 -4.366967e-03 -3.443709e-03 -4.318192e-03 -4.246222e-03 -4.041231e-03 -5.461521e-03 -3.902048e-03 -4.988011e-03 -5.071635e-03 -4.936775e-03 -5.885208e-03 9.846379e-04 5.526518e-03 -3.394727e-03 -1.418615e-02 2.689847e-02 7.105757e-02 2.882503e-02 -1.423230e-02 -5.188113e-03 5.213936e-03 -6.803877e-05 -5.945694e-03 -5.666439e-03 -5.781573e-03 -4.751518e-03 -4.603053e-03 -5.272218e-03 -4.057295e-03 -4.456153e-03 -4.040744e-03 -3.599545e-03 -4.296608e-03 -3.330264e-03 -4.365750e-03 -4.114847e-03 -4.102317e-03 -5.382131e-03 -3.748419e-03 -5.088439e-03 -4.916700e-03 -4.986121e-03 -5.659318e-03 1.343855e-03 4.979915e-03 -3.928803e-03 -1.433433e-02 2.905848e-02 7.346557e-02 2.690039e-02 -1.627759e-02 -4.411241e-03 5.869472e-03 -3.744547e-04 -6.010165e-03 -5.668329e-03 -5.811682e-03 -4.699035e-03 -4.728659e-03 -5.193762e-03 -3.990772e-03 -4.527665e-03 -3.976403e-03 -3.668981e-03 -4.226519e-03 -3.265147e-03 -4.402006e-03 -4.001932e-03 -4.185481e-03 -5.267042e-03 -3.650650e-03 -5.151901e-03 -4.766568e-03 -5.006516e-03 -5.343303e-03 1.623546e-03 4.321834e-03 -4.364100e-03 -1.220022e-02 3.154043e-02 7.172022e-02 2.447563e-02 -1.573187e-02 -2.650288e-03 6.775530e-03 -4.546068e-04 -5.428289e-03 -5.173860e-03 -5.192318e-03 -3.933095e-03 -4.053710e-03 -3.874641e-03 -3.020564e-03 -3.167681e-03 -2.474609e-03 -2.226025e-03 -1.955106e-03 -1.555533e-03 -1.654279e-03 -1.247564e-03 -1.223508e-03 -1.058589e-03 -8.214798e-04 -8.107513e-04 -6.077933e-04 -5.883285e-04 -4.872142e-04 -4.592151e-04 -5.244342e-04 -3.855420e-04 -4.256473e-04 -3.696909e-04 -2.846990e-04 -2.964994e-04 -2.017392e-04 -1.688332e-04 -1.366066e-04 -1.037570e-04 -8.395583e-05 -6.625797e-05 -6.075456e-05 -4.604229e-05 -4.930344e-05 -4.057356e-05 -3.590723e-05 -3.939659e-05 -3.027615e-05 -3.139089e-05 -2.774394e-05 -2.238499e-05 -2.456086e-05 -1.840741e-05 -1.787800e-05 -1.575229e-05 -1.230644e-05 -1.335865e-05 -1.066587e-05 -1.194854e-05 -9.520786e-06 -2.134615e-06 2.003599e-07 1.090509e-07 1.080907e-08 -2.653399e-08 
-8.298813e-03 -4.044717e-02 -1.957964e-01 -7.808253e-01 -2.304354e+00 -5.131871e+00 -7.108516e+00 -5.815116e+00 -5.713163e+00 -6.261156e+00 -8.605464e+00 -1.364005e+01 -1.891647e+01 -3.410189e+01 -3.725111e+01 -3.028735e+01 -4.201800e+01 -3.760516e+01 -4.422748e+01 -4.515068e+01 -1.982956e+01 -2.446191e+01 -1.954217e+01 -2.171334e+00 -6.906484e+00 -4.336582e+00 -3.893235e+00 -5.861148e+00 -1.932559e+00 -5.194590e+00 -2.582924e+00 -2.897473e+00 -3.748084e+00 -8.616011e-01 -3.821737e+00 -1.406997e+00 -2.443806e+00 -2.437604e+00 -1.767641e-01 -2.757556e+00 -5.358444e-01 -1.894513e+00 -1.339773e+00 4.490152e-01 -1.687589e+00 3.029084e-01 -1.091763e+00 -3.846428e-01 7.963730e-01 -8.743520e-01 7.830680e-01 -5.563265e-01 2.842061e-01 8.983328e-01 -2.723472e-01 1.181904e+00 -1.465332e-02 8.648309e-01 9.992742e-01 3.179516e-01 1.638983e+00 3.673534e-01 1.350433e+00 1.709260e+00 1.182698e+00 1.759426e+00 8.178025e-01 1.763944e+00 1.376032e+00 1.152620e+00 2.020561e+00 1.139455e+00 1.871204e+00 1.477983e+00 1.484122e+00 2.189334e+00 1.429794e+00 2.124432e+00 1.728601e+00 1.821196e+00 2.360095e+00 1.701598e+00 2.348596e+00 1.959444e+00 2.098974e+00 2.457703e+00 1.895680e+00 2.529171e+00 2.128978e+00 2.310140e+00 2.521437e+00 2.070158e+00 2.744983e+00 2.256530e+00 2.413294e+00 2.868097e+00 2.646971e+00 2.892158e+00 2.291824e+00 2.605822e+00 2.698395e+00 2.290132e+00 2.792471e+00 2.387908e+00 2.608102e+00 2.635564e+00 2.357758e+00 2.845465e+00 2.443951e+00 2.694557e+00 2.679047e+00 2.482106e+00 2.922879e+00 2.501134e+00 2.797583e+00 2.729553e+00 2.612616e+00 2.982605e+00 2.536923e+00 2.917234e+00 2.784614e+00 2.736425e+00 3.052307e+00 2.616732e+00 3.110612e+00 2.868534e+00 2.827661e+00 3.322943e+00 3.081045e+00 3.360463e+00 2.863891e+00 2.958225e+00 3.189639e+00 2.717547e+00 3.195187e+00 2.853922e+00 2.972216e+00 3.083418e+00 2.735663e+00 3.232148e+00 2.822291e+00 3.030426e+00 3.049218e+00 2.813828e+00 3.263043e+00 2.778786e+00 3.095461e+00 3.020723e+00 2.876374e+00 3.253505e+00 2.743581e+00 3.162010e+00 2.996317e+00 2.937814e+00 3.244880e+00 2.768576e+00 3.299636e+00 3.007011e+00 2.970032e+00 3.438473e+00 3.208886e+00 3.505206e+00 2.929998e+00 3.069861e+00 3.258588e+00 2.804042e+00 3.291652e+00 2.885709e+00 3.054479e+00 3.107897e+00 2.817270e+00 3.289494e+00 2.814996e+00 3.098060e+00 3.054738e+00 2.876629e+00 3.285146e+00 2.765106e+00 3.152558e+00 3.016128e+00 2.921929e+00 3.253100e+00 2.739147e+00 3.208554e+00 2.983524e+00 2.974399e+00 3.229767e+00 2.776565e+00 3.331624e+00 2.980512e+00 3.013500e+00 3.419816e+00 3.212946e+00 3.518415e+00 2.901770e+00 3.106541e+00 3.224654e+00 2.835358e+00 3.301305e+00 2.838645e+00 3.078909e+00 3.066615e+00 2.849326e+00 3.274664e+00 2.764704e+00 3.121564e+00 3.015361e+00 2.893786e+00 3.250420e+00 2.726935e+00 3.165385e+00 2.971805e+00 2.931608e+00 3.210756e+00 2.714649e+00 3.212308e+00 2.934122e+00 2.969965e+00 3.165974e+00 2.724998e+00 3.243230e+00 2.885824e+00 3.006467e+00 3.112108e+00 2.763803e+00 3.270787e+00 2.833820e+00 3.057218e+00 3.067456e+00 2.827122e+00 3.280011e+00 2.767614e+00 3.094000e+00 3.011717e+00 2.857642e+00 3.235346e+00 2.710417e+00 3.130262e+00 2.960860e+00 2.887755e+00 3.189754e+00 2.674837e+00 3.141478e+00 2.898142e+00 2.928342e+00 3.142901e+00 2.595673e+00 3.020167e+00 2.917718e+00 3.676443e+00 3.763804e+00 1.679935e+00 4.417009e-01 8.996795e-02 1.265048e-02 -1.911098e-03 
3.745854e-03 -7.260607e-02 -5.446182e-01 -2.682280e+00 -9.314620e+00 -2.061756e+01 -2.169530e+01 -1.463063e+01 -1.661542e+01 -1.315536e+01 -2.124672e+01 -2.631018e+01 -1.904242e+01 -6.210492e+01 -6.533549e+01 -3.122981e+01 -6.166195e+01 -4.653082e+01 -5.037389e+01 -7.371921e+01 -1.435507e+01 -3.508297e+01 -4.286843e+01 -1.774980e+00 -2.425456e+01 -6.930245e+00 -1.011067e+01 -2.178012e+01 -5.728105e-01 -2.066610e+01 -3.720262e+00 -1.055063e+01 -1.547321e+01 1.234478e+00 -1.697588e+01 -1.093507e+00 -1.101266e+01 -1.055857e+01 2.008358e+00 -1.400031e+01 6.518710e-01 -1.026944e+01 -6.286392e+00 2.634583e+00 -1.071218e+01 2.391951e+00 -8.333826e+00 -2.670621e+00 2.405916e+00 -8.117571e+00 3.120715e+00 -6.889718e+00 -2.110361e-01 1.413623e+00 -5.922282e+00 3.733136e+00 -5.115950e+00 1.819053e+00 3.359655e-01 -3.524809e+00 4.625400e+00 -4.291900e+00 3.214150e+00 1.799155e+00 -8.622708e-01 3.562191e+00 -2.918120e+00 4.383632e+00 -2.025480e-01 -1.265221e-01 4.769539e+00 -1.541145e+00 4.186664e+00 -9.938734e-02 1.415005e+00 4.703907e+00 -4.089215e-01 4.694181e+00 6.823407e-01 2.865447e+00 4.645114e+00 7.778756e-01 5.237618e+00 1.526089e+00 4.050698e+00 4.346497e+00 1.736135e+00 5.701423e+00 2.119095e+00 4.808761e+00 3.946224e+00 2.528804e+00 6.092158e+00 2.246968e+00 4.999912e+00 4.612647e+00 3.895989e+00 5.683539e+00 2.418857e+00 5.414222e+00 3.872485e+00 3.519965e+00 5.636559e+00 2.943725e+00 5.222614e+00 3.746998e+00 3.929246e+00 5.471494e+00 3.273572e+00 5.290916e+00 3.980271e+00 4.369300e+00 5.382993e+00 3.670030e+00 5.445042e+00 4.293758e+00 4.772920e+00 5.345583e+00 4.041908e+00 5.685532e+00 4.602063e+00 5.118437e+00 5.485081e+00 4.450430e+00 6.039765e+00 4.819089e+00 5.304499e+00 6.264843e+00 5.404093e+00 6.198082e+00 5.044725e+00 5.644319e+00 5.971600e+00 4.978837e+00 6.170997e+00 5.266030e+00 5.702013e+00 5.847283e+00 5.145566e+00 6.270633e+00 5.284500e+00 5.857470e+00 5.824539e+00 5.363975e+00 6.344478e+00 5.247353e+00 6.021930e+00 5.790961e+00 5.525724e+00 6.327658e+00 5.205495e+00 6.180804e+00 5.749001e+00 5.672363e+00 6.301811e+00 5.250828e+00 6.448923e+00 5.699332e+00 5.672605e+00 6.638025e+00 5.969794e+00 6.745448e+00 5.557100e+00 5.861085e+00 6.371555e+00 5.325884e+00 6.422747e+00 5.574109e+00 5.903227e+00 6.079145e+00 5.399663e+00 6.446264e+00 5.424942e+00 6.016268e+00 5.959080e+00 5.540266e+00 6.449443e+00 5.319680e+00 6.153372e+00 5.867900e+00 5.652180e+00 6.378224e+00 5.266078e+00 6.291177e+00 5.782783e+00 5.778292e+00 6.307552e+00 5.319103e+00 6.528189e+00 5.682593e+00 5.794775e+00 6.598809e+00 6.007637e+00 6.807862e+00 5.510852e+00 5.958812e+00 6.302600e+00 5.397825e+00 6.454419e+00 5.464799e+00 5.954952e+00 5.974540e+00 5.446028e+00 6.408743e+00 5.285414e+00 6.041926e+00 5.851694e+00 5.528299e+00 6.363380e+00 5.194989e+00 6.133363e+00 5.753374e+00 5.610081e+00 6.284965e+00 5.167947e+00 6.245202e+00 5.672762e+00 5.699659e+00 6.191984e+00 5.184410e+00 6.316352e+00 5.559093e+00 5.781954e+00 6.071318e+00 5.258983e+00 6.387377e+00 5.441758e+00 5.901540e+00 5.977685e+00 5.393712e+00 6.428239e+00 5.296233e+00 5.979389e+00 5.849614e+00 5.444597e+00 6.328195e+00 5.161140e+00 6.056611e+00 5.735587e+00 5.511244e+00 6.241240e+00 5.077171e+00 6.077879e+00 5.593822e+00 5.607731e+00 6.166476e+00 4.926614e+00 5.851866e+00 5.636497e+00 7.258960e+00 7.840959e+00 3.601792e+00 9.542622e-01 2.077200e-01 4.388524e-02 1.377838e-02 
-2.626545e-02 -1.403771e-01 -7.909514e-01 -4.010068e+00 -1.642905e+01 -3.859485e+01 -3.251821e+01 -1.662354e+01 -2.323648e+01 -1.124665e+01 -2.012500e+01 -1.395287e+01 2.877958e+01 5.702503e-01 3.126247e+00 4.817819e+01 1.654950e+01 2.899133e+01 3.982772e+01 -1.552460e+01 4.356906e+01 1.719287e+01 -3.818670e+01 1.126744e+01 -4.018380e+01 -3.208958e+00 -7.236640e+00 -3.626541e+01 7.272000e+00 -3.684743e+01 -8.375334e-01 -1.653693e+01 -2.847544e+01 7.704996e+00 -3.210599e+01 1.978862e+00 -2.088658e+01 -2.031241e+01 7.173244e+00 -2.805777e+01 3.449345e+00 -2.168062e+01 -1.306686e+01 5.575937e+00 -2.379723e+01 4.488495e+00 -2.037175e+01 -7.031455e+00 3.027647e+00 -2.003134e+01 4.715445e+00 -1.838573e+01 -2.706772e+00 -4.078812e-01 -1.631719e+01 4.792263e+00 -1.556982e+01 5.921394e-01 -4.354745e+00 -1.216320e+01 5.202143e+00 -1.498282e+01 2.312334e+00 -3.661127e+00 -8.713425e+00 1.242231e+00 -1.301695e+01 3.898308e+00 -7.853485e+00 -6.082865e+00 3.907883e+00 -1.022764e+01 2.980801e+00 -7.897605e+00 -3.104351e+00 2.856162e+00 -8.268865e+00 3.181538e+00 -6.839098e+00 -5.677770e-01 1.655509e+00 -6.168948e+00 3.545805e+00 -5.536582e+00 1.444600e+00 1.463344e-01 -4.322758e+00 3.913782e+00 -4.616479e+00 2.562324e+00 -1.388123e+00 -2.829497e+00 3.895229e+00 -4.859572e+00 2.660398e+00 -1.176244e+00 -1.980073e+00 1.880159e+00 -4.304683e+00 2.849163e+00 -2.342836e+00 -8.776482e-01 2.497928e+00 -3.138965e+00 2.400641e+00 -2.185984e+00 4.206821e-02 1.802398e+00 -2.370807e+00 2.176431e+00 -1.645883e+00 6.831594e-01 1.141929e+00 -1.479440e+00 2.061863e+00 -9.638557e-01 1.149399e+00 7.073214e-01 -5.794123e-01 2.069810e+00 -3.652015e-01 1.443370e+00 6.954136e-01 1.515163e-01 1.983121e+00 -2.441613e-01 1.368933e+00 1.400185e+00 3.444611e-01 1.009436e+00 3.957802e-01 1.596472e+00 1.281621e+00 1.075513e+00 1.818506e+00 1.149020e+00 1.712248e+00 1.508281e+00 1.435553e+00 1.889419e+00 1.376249e+00 1.816622e+00 1.625468e+00 1.618235e+00 1.913044e+00 1.493711e+00 1.903644e+00 1.683404e+00 1.731197e+00 1.912662e+00 1.557635e+00 1.971565e+00 1.695339e+00 1.795719e+00 1.868268e+00 1.537103e+00 1.969168e+00 1.462584e+00 1.531580e+00 1.728891e+00 1.191754e+00 1.695898e+00 1.454626e+00 1.503750e+00 1.985005e+00 1.536994e+00 1.932959e+00 1.817906e+00 1.762096e+00 1.994112e+00 1.666978e+00 2.025069e+00 1.783381e+00 1.836264e+00 1.950685e+00 1.734934e+00 2.052090e+00 1.743039e+00 1.913860e+00 1.907192e+00 1.802867e+00 2.026751e+00 1.724245e+00 1.990268e+00 1.845492e+00 1.860456e+00 1.942233e+00 1.661153e+00 1.990836e+00 1.547895e+00 1.609991e+00 1.709138e+00 1.261805e+00 1.779099e+00 1.460245e+00 1.555421e+00 1.967292e+00 1.551214e+00 1.966741e+00 1.753739e+00 1.756725e+00 1.926543e+00 1.609967e+00 2.005537e+00 1.647872e+00 1.760870e+00 1.864915e+00 1.591404e+00 2.004987e+00 1.582908e+00 1.777723e+00 1.833031e+00 1.607230e+00 1.995563e+00 1.555386e+00 1.824009e+00 1.804177e+00 1.636352e+00 1.969320e+00 1.532772e+00 1.863591e+00 1.749316e+00 1.655918e+00 1.918958e+00 1.515439e+00 1.908473e+00 1.684988e+00 1.678433e+00 1.876566e+00 1.525666e+00 1.958472e+00 1.611959e+00 1.684752e+00 1.829141e+00 1.514928e+00 1.956054e+00 1.541443e+00 1.701646e+00 1.795954e+00 1.526684e+00 1.953953e+00 1.484040e+00 1.714605e+00 1.751190e+00 1.553147e+00 1.977172e+00 1.441196e+00 1.674102e+00 1.744059e+00 2.209577e+00 3.376066e+00 2.423588e+00 8.524587e-01 1.946614e-01 3.353510e-02 -3.403670e-03 
-8.706450e-03 -7.930959e-02 -4.936608e-01 -2.505149e+00 -1.182423e+01 -2.841832e+01 -1.889156e+01 -5.665141e+00 -1.124382e+01 -1.501079e+00 -3.041813e+00 8.890489e+00 3.311523e+01 -3.784227e+00 -4.305018e+00 1.961211e+00 9.714033e+00 5.160929e+00 5.693454e+00 -9.714923e+00 -6.849543e+00 4.302207e+01 2.442876e+00 2.150995e+01 -2.318028e+01 2.740778e+00 1.783526e+00 -2.147928e+01 8.506727e+00 -2.327623e+01 1.939629e+00 -9.590807e+00 -1.914642e+01 6.857363e+00 -2.140987e+01 2.449205e+00 -1.444323e+01 -1.456076e+01 5.479106e+00 -1.961533e+01 2.341708e+00 -1.615593e+01 -1.033061e+01 2.832796e+00 -1.813728e+01 1.591805e+00 -1.674167e+01 -6.892901e+00 3.270327e-02 -1.639508e+01 1.140864e+00 -1.573077e+01 -4.162533e+00 -2.952714e+00 -1.425351e+01 6.181159e-01 -1.416141e+01 -2.348424e+00 -6.589650e+00 -1.192115e+01 9.123063e-02 -1.442027e+01 -1.883924e+00 -7.130093e+00 -1.061460e+01 -3.859685e+00 -1.351873e+01 -1.093526e+00 -1.008056e+01 -8.107521e+00 -1.467874e+00 -1.133107e+01 -1.914770e+00 -1.019300e+01 -6.120119e+00 -2.605038e+00 -1.021466e+01 -2.238637e+00 -9.791652e+00 -4.693385e+00 -4.032079e+00 -9.071367e+00 -2.473718e+00 -9.184050e+00 -3.654745e+00 -5.560561e+00 -7.959786e+00 -2.614629e+00 -8.713370e+00 -3.207459e+00 -6.944377e+00 -7.044841e+00 -3.134544e+00 -9.135565e+00 -3.312557e+00 -7.338140e+00 -7.659652e+00 -5.262346e+00 -8.562971e+00 -3.538391e+00 -7.857944e+00 -5.687972e+00 -4.189566e+00 -7.598797e+00 -3.787466e+00 -7.415527e+00 -4.984769e+00 -4.768343e+00 -7.001763e+00 -4.099922e+00 -6.997375e+00 -4.711478e+00 -5.423468e+00 -6.382678e+00 -4.407297e+00 -6.539149e+00 -4.629892e+00 -5.878598e+00 -5.748212e+00 -4.691231e+00 -6.197899e+00 -4.705798e+00 -6.070086e+00 -5.392351e+00 -5.256320e+00 -6.350488e+00 -5.069970e+00 -6.265857e+00 -6.445851e+00 -6.692640e+00 -5.906689e+00 -5.254710e+00 -6.007327e+00 -4.965516e+00 -5.631045e+00 -5.224967e+00 -5.140541e+00 -5.553767e+00 -4.735751e+00 -5.661877e+00 -4.973067e+00 -5.213310e+00 -5.386328e+00 -4.801715e+00 -5.727811e+00 -4.789182e+00 -5.324381e+00 -5.276052e+00 -4.876081e+00 -5.706162e+00 -4.662273e+00 -5.450472e+00 -5.211319e+00 -4.992828e+00 -5.734242e+00 -4.760233e+00 -5.813586e+00 -5.451941e+00 -5.350670e+00 -6.382040e+00 -6.177026e+00 -6.580042e+00 -5.304360e+00 -5.655639e+00 -5.699540e+00 -4.872082e+00 -5.830309e+00 -4.834554e+00 -5.353069e+00 -5.284626e+00 -4.800569e+00 -5.736245e+00 -4.678840e+00 -5.410618e+00 -5.181097e+00 -4.905636e+00 -5.706453e+00 -4.596087e+00 -5.499535e+00 -5.115490e+00 -4.971588e+00 -5.642890e+00 -4.553454e+00 -5.588904e+00 -5.080679e+00 -5.071338e+00 -5.658230e+00 -4.712051e+00 -5.906508e+00 -5.332014e+00 -5.433027e+00 -6.354400e+00 -6.153499e+00 -6.574235e+00 -5.239584e+00 -5.735342e+00 -5.630299e+00 -4.961146e+00 -5.834439e+00 -4.768569e+00 -5.440349e+00 -5.227484e+00 -4.939380e+00 -5.710000e+00 -4.661169e+00 -5.548136e+00 -5.144666e+00 -5.073214e+00 -5.651969e+00 -4.633515e+00 -5.651480e+00 -5.060434e+00 -5.168422e+00 -5.564068e+00 -4.644215e+00 -5.747643e+00 -4.995448e+00 -5.257764e+00 -5.477234e+00 -4.702521e+00 -5.793212e+00 -4.914686e+00 -5.347061e+00 -5.382665e+00 -4.829203e+00 -5.830449e+00 -4.843114e+00 -5.485232e+00 -5.318021e+00 -5.002600e+00 -5.820569e+00 -4.747540e+00 -5.586713e+00 -5.209161e+00 -5.084828e+00 -5.683839e+00 -4.661448e+00 -5.672167e+00 -5.100543e+00 -5.163257e+00 -5.569683e+00 -4.627870e+00 -5.682754e+00 -4.964269e+00 -5.257379e+00 -5.434721e+00 -4.479511e+00 -5.438982e+00 -5.048306e+00 -6.581988e+00 -5.708742e+00 -1.253488e+00 5.311456e-02 4.914561e-02 1.557983e-02 4.038553e-03 
-6.278422e-03 -2.976462e-02 -1.709684e-01 -9.064122e-01 -4.032011e+00 -7.624077e+00 -1.948943e+00 1.871633e+00 6.159469e-01 3.362660e+00 3.944310e+00 2.394396e+00 -3.150007e+01 -2.899173e+01 -1.832675e+01 -2.992453e+01 -2.195637e+01 -2.455211e+01 -2.883427e+01 -1.335147e+01 -3.700564e+01 -3.548060e+01 8.480884e+00 8.094642e+00 -1.597481e+00 3.251194e+00 3.204518e+00 -1.717128e+00 2.717035e+00 -2.876904e+00 1.577381e+00 -1.377797e+00 -3.062017e+00 1.247155e+00 -3.415705e+00 5.890007e-01 -3.074897e+00 -2.859324e+00 4.362675e-01 -3.670847e+00 -1.693378e-01 -3.852768e+00 -2.593721e+00 -7.535442e-01 -4.166756e+00 -1.107441e+00 -4.583803e+00 -2.469907e+00 -1.732739e+00 -4.338025e+00 -1.555262e+00 -4.559878e+00 -2.254405e+00 -2.525295e+00 -4.239993e+00 -1.958288e+00 -4.474627e+00 -2.315586e+00 -3.543512e+00 -4.173553e+00 -2.524446e+00 -4.889478e+00 -2.632682e+00 -3.962917e+00 -4.536683e+00 -3.888675e+00 -4.929762e+00 -2.736150e+00 -4.542472e+00 -3.769121e+00 -3.078065e+00 -4.417955e+00 -3.004940e+00 -4.574335e+00 -3.517510e+00 -3.450062e+00 -4.387171e+00 -3.303489e+00 -4.673488e+00 -3.514960e+00 -3.967477e+00 -4.404255e+00 -3.612055e+00 -4.726925e+00 -3.600398e+00 -4.434950e+00 -4.344421e+00 -3.861367e+00 -4.727750e+00 -3.749452e+00 -4.776993e+00 -4.277287e+00 -4.232897e+00 -4.918026e+00 -3.862550e+00 -5.042389e+00 -5.007472e+00 -4.981530e+00 -4.719967e+00 -4.096654e+00 -4.986381e+00 -4.088500e+00 -4.420946e+00 -4.472630e+00 -4.104771e+00 -4.725462e+00 -3.953613e+00 -4.533874e+00 -4.354990e+00 -4.224423e+00 -4.642959e+00 -4.018569e+00 -4.710863e+00 -4.278365e+00 -4.382352e+00 -4.595168e+00 -4.149038e+00 -4.839396e+00 -4.198258e+00 -4.571329e+00 -4.597426e+00 -4.315735e+00 -4.957077e+00 -4.247724e+00 -4.923615e+00 -4.755489e+00 -4.523949e+00 -5.363791e+00 -5.064428e+00 -5.521026e+00 -4.711689e+00 -4.758759e+00 -5.145616e+00 -4.335097e+00 -5.104433e+00 -4.538161e+00 -4.713324e+00 -4.909811e+00 -4.309851e+00 -5.145510e+00 -4.453978e+00 -4.799817e+00 -4.839680e+00 -4.429181e+00 -5.197832e+00 -4.371807e+00 -4.907165e+00 -4.786824e+00 -4.527237e+00 -5.182783e+00 -4.307584e+00 -5.018351e+00 -4.747916e+00 -4.633367e+00 -5.183465e+00 -4.367519e+00 -5.273770e+00 -4.828464e+00 -4.767832e+00 -5.562767e+00 -5.215483e+00 -5.706736e+00 -4.727219e+00 -4.981137e+00 -5.212315e+00 -4.455609e+00 -5.276062e+00 -4.540845e+00 -4.869991e+00 -4.917400e+00 -4.447651e+00 -5.244981e+00 -4.415356e+00 -4.936516e+00 -4.828217e+00 -4.548360e+00 -5.234650e+00 -4.338656e+00 -5.027978e+00 -4.765910e+00 -4.623271e+00 -5.180646e+00 -4.299497e+00 -5.120519e+00 -4.717675e+00 -4.715783e+00 -5.156046e+00 -4.385252e+00 -5.348627e+00 -4.778943e+00 -4.858941e+00 -5.532464e+00 -5.231516e+00 -5.738294e+00 -4.681305e+00 -5.059962e+00 -5.154214e+00 -4.526924e+00 -5.295414e+00 -4.466320e+00 -4.931946e+00 -4.849760e+00 -4.525115e+00 -5.221615e+00 -4.345272e+00 -5.004502e+00 -4.769486e+00 -4.610326e+00 -5.180629e+00 -4.300159e+00 -5.084565e+00 -4.702989e+00 -4.684914e+00 -5.116038e+00 -4.297116e+00 -5.169984e+00 -4.647237e+00 -4.759360e+00 -5.043987e+00 -4.329713e+00 -5.221072e+00 -4.570678e+00 -4.829216e+00 -4.957265e+00 -4.410895e+00 -5.264629e+00 -4.492492e+00 -4.929059e+00 -4.891661e+00 -4.534607e+00 -5.274047e+00 -4.393050e+00 -5.002497e+00 -4.799829e+00 -4.593345e+00 -5.184294e+00 -4.306646e+00 -5.070819e+00 -4.714312e+00 -4.653223e+00 -5.100923e+00 -4.259068e+00 -5.086350e+00 -4.601211e+00 -4.722117e+00 -5.006508e+00 -4.124882e+00 -4.878051e+00 -4.632883e+00 -5.884955e+00 -5.674511e+00 -2.044315e+00 -3.439742e-01 -3.730609e-02 -1.887372e-03 -1.959683e-03 
6.222526e-04 -7.432704e-03 -4.885326e-02 -2.703396e-01 -1.049331e+00 -1.546046e+00 -2.121215e-01 7.559377e-01 7.319163e-01 1.382432e+00 1.237368e+00 -2.784792e+00 -2.443190e+01 -1.126614e+01 -3.926671e+00 -3.933769e+00 -3.916605e+00 -3.923129e+00 -3.929426e+00 -3.906647e+00 -7.406951e+00 -3.419756e+01 -6.101471e+00 -7.164326e-01 5.948702e-01 1.201013e+00 7.870784e-01 -2.766748e-01 4.997035e-01 6.969464e-02 7.187373e-01 -3.242477e-02 -6.507913e-01 -6.790948e-02 -3.796928e-01 3.170274e-01 -3.390077e-01 -5.743747e-01 -3.240221e-01 -6.323342e-01 -1.617818e-02 -5.526656e-01 -5.057299e-01 -5.162999e-01 -8.057379e-01 -3.020379e-01 -7.327665e-01 -4.844647e-01 -6.723172e-01 -9.135166e-01 -5.138114e-01 -8.516128e-01 -5.131985e-01 -8.033241e-01 -9.580332e-01 -6.740439e-01 -9.316043e-01 -5.947980e-01 -9.370685e-01 -9.690938e-01 -8.350118e-01 -1.045686e+00 -6.507568e-01 -8.497868e-01 -7.458394e-01 -8.629500e-01 -1.049303e+00 -8.022818e-01 -1.115075e+00 -9.508092e-01 -1.001047e+00 -1.084662e+00 -9.144901e-01 -1.140695e+00 -9.421758e-01 -1.075486e+00 -1.110522e+00 -1.000531e+00 -1.174565e+00 -9.733239e-01 -1.156670e+00 -1.128972e+00 -1.074251e+00 -1.194805e+00 -1.020662e+00 -1.220906e+00 -1.128585e+00 -1.132921e+00 -1.204991e+00 -1.074998e+00 -1.265731e+00 -1.129450e+00 -1.212931e+00 -1.237186e+00 -1.073544e+00 -1.158245e+00 -9.861858e-01 -1.146763e+00 -1.176691e+00 -1.175418e+00 -1.318427e+00 -1.146680e+00 -1.274468e+00 -1.216444e+00 -1.203408e+00 -1.282651e+00 -1.143178e+00 -1.299041e+00 -1.211804e+00 -1.235152e+00 -1.279860e+00 -1.173340e+00 -1.330235e+00 -1.208695e+00 -1.268622e+00 -1.279620e+00 -1.210743e+00 -1.350141e+00 -1.200690e+00 -1.303369e+00 -1.283268e+00 -1.245245e+00 -1.364946e+00 -1.213739e+00 -1.364279e+00 -1.298712e+00 -1.233632e+00 -1.268447e+00 -1.078680e+00 -1.260229e+00 -1.241651e+00 -1.315061e+00 -1.394704e+00 -1.240499e+00 -1.392776e+00 -1.276970e+00 -1.314884e+00 -1.344212e+00 -1.233271e+00 -1.395998e+00 -1.259907e+00 -1.328047e+00 -1.329590e+00 -1.256795e+00 -1.401763e+00 -1.241485e+00 -1.345587e+00 -1.318969e+00 -1.276426e+00 -1.396845e+00 -1.227922e+00 -1.364571e+00 -1.310781e+00 -1.294671e+00 -1.392613e+00 -1.237751e+00 -1.409635e+00 -1.311798e+00 -1.271196e+00 -1.289998e+00 -1.102180e+00 -1.284780e+00 -1.245335e+00 -1.344704e+00 -1.398987e+00 -1.261399e+00 -1.413576e+00 -1.275206e+00 -1.335111e+00 -1.340449e+00 -1.257083e+00 -1.405910e+00 -1.249672e+00 -1.345653e+00 -1.323969e+00 -1.276095e+00 -1.401310e+00 -1.232506e+00 -1.361499e+00 -1.312401e+00 -1.290724e+00 -1.389995e+00 -1.224187e+00 -1.378346e+00 -1.302928e+00 -1.306379e+00 -1.382118e+00 -1.239872e+00 -1.419789e+00 -1.300774e+00 -1.285599e+00 -1.281755e+00 -1.105293e+00 -1.286693e+00 -1.234543e+00 -1.357493e+00 -1.386361e+00 -1.275728e+00 -1.416198e+00 -1.260064e+00 -1.346121e+00 -1.328240e+00 -1.273177e+00 -1.401334e+00 -1.235386e+00 -1.357950e+00 -1.313712e+00 -1.288356e+00 -1.391191e+00 -1.225301e+00 -1.373179e+00 -1.302555e+00 -1.301498e+00 -1.377113e+00 -1.223608e+00 -1.387432e+00 -1.291195e+00 -1.313686e+00 -1.361495e+00 -1.230042e+00 -1.398065e+00 -1.277324e+00 -1.325125e+00 -1.344312e+00 -1.245308e+00 -1.404329e+00 -1.260122e+00 -1.338542e+00 -1.328796e+00 -1.267029e+00 -1.401420e+00 -1.238203e+00 -1.351567e+00 -1.313479e+00 -1.281634e+00 -1.388286e+00 -1.223132e+00 -1.364887e+00 -1.299021e+00 -1.291555e+00 -1.369545e+00 -1.213131e+00 -1.369497e+00 -1.278923e+00 -1.299257e+00 -1.343075e+00 -1.174851e+00 -1.317765e+00 -1.295079e+00 -1.541865e+00 -1.438317e+00 -6.266097e-01 -1.547251e-01 -2.650474e-02 -2.655288e-03 5.740032e-04 
8.791644e-04 -1.567987e-03 -4.369539e-03 -5.121475e-02 -1.839074e-01 -2.227137e-01 -5.866602e-02 1.803794e-01 2.012298e-01 3.302997e-01 7.186742e-02 -2.246395e+00 -1.255950e+01 -1.190745e+01 -3.529204e+00 -3.509296e+00 -3.509222e+00 -3.509223e+00 -3.509245e+00 -3.514787e+00 -9.801650e+00 -1.408252e+01 -5.191737e+00 -1.491967e+00 7.110441e-02 3.637870e-01 1.110337e-01 -1.627042e-01 3.809343e-02 1.832577e-01 2.828384e-01 7.858326e-02 -2.342802e-01 -1.311725e-01 -1.557666e-02 1.531007e-01 5.625621e-02 -1.615780e-01 -1.739273e-01 -1.147612e-01 4.146404e-02 3.427469e-03 -1.139011e-01 -1.905252e-01 -1.745605e-01 -4.912235e-02 -5.441370e-02 -8.836188e-02 -1.886686e-01 -2.046794e-01 -1.158142e-01 -1.100331e-01 -9.071333e-02 -1.868775e-01 -2.158942e-01 -1.630022e-01 -1.539306e-01 -1.104046e-01 -1.854898e-01 -2.119130e-01 -1.975648e-01 -1.738671e-01 3.084444e-02 9.456260e-01 2.231195e+00 1.543240e+00 2.209466e-01 -9.467465e-02 -2.019396e-01 -2.021426e-01 -2.302062e-01 -2.245696e-01 -1.979357e-01 -2.194435e-01 -2.010562e-01 -2.375665e-01 -2.319392e-01 -2.168993e-01 -2.299581e-01 -2.065521e-01 -2.451460e-01 -2.362429e-01 -2.319422e-01 -2.385312e-01 -2.168685e-01 -2.513888e-01 -2.370624e-01 -2.431459e-01 -2.441252e-01 -2.280254e-01 -2.554591e-01 -2.361824e-01 -2.528354e-01 -2.313940e-01 -7.618648e-02 8.073603e-01 1.949556e+00 1.307612e+00 1.323069e-01 -1.836076e-01 -2.601321e-01 -2.431786e-01 -2.671222e-01 -2.546222e-01 -2.549306e-01 -2.636211e-01 -2.434416e-01 -2.692284e-01 -2.539711e-01 -2.593403e-01 -2.635893e-01 -2.483962e-01 -2.728622e-01 -2.532999e-01 -2.636536e-01 -2.635923e-01 -2.543050e-01 -2.749690e-01 -2.515807e-01 -2.676154e-01 -2.634511e-01 -2.585627e-01 -2.751374e-01 -2.516307e-01 -2.718902e-01 -2.437558e-01 -1.007341e-01 7.803770e-01 1.884386e+00 1.254263e+00 1.115337e-01 -2.042739e-01 -2.721290e-01 -2.574867e-01 -2.801954e-01 -2.628758e-01 -2.681619e-01 -2.715471e-01 -2.557274e-01 -2.793141e-01 -2.595989e-01 -2.691391e-01 -2.689760e-01 -2.590760e-01 -2.797946e-01 -2.563917e-01 -2.711100e-01 -2.672871e-01 -2.619480e-01 -2.788524e-01 -2.540548e-01 -2.733808e-01 -2.657709e-01 -2.638807e-01 -2.769113e-01 -2.540179e-01 -2.760555e-01 -2.443136e-01 -1.047915e-01 7.781747e-01 1.877622e+00 1.248729e+00 1.106433e-01 -2.073556e-01 -2.716227e-01 -2.600861e-01 -2.822702e-01 -2.620334e-01 -2.700636e-01 -2.703062e-01 -2.589181e-01 -2.801337e-01 -2.575838e-01 -2.708122e-01 -2.677663e-01 -2.615701e-01 -2.791814e-01 -2.546675e-01 -2.727443e-01 -2.660926e-01 -2.636179e-01 -2.773110e-01 -2.531880e-01 -2.748772e-01 -2.644487e-01 -2.650828e-01 -2.748794e-01 -2.541104e-01 -2.770882e-01 -2.425106e-01 -1.064309e-01 7.807971e-01 1.880089e+00 1.251496e+00 1.129359e-01 -2.085669e-01 -2.694306e-01 -2.621337e-01 -2.824191e-01 -2.595362e-01 -2.711145e-01 -2.683179e-01 -2.611617e-01 -2.791824e-01 -2.551573e-01 -2.721526e-01 -2.661447e-01 -2.631763e-01 -2.774328e-01 -2.534177e-01 -2.742558e-01 -2.646335e-01 -2.649092e-01 -2.751419e-01 -2.530514e-01 -2.763168e-01 -2.630711e-01 -2.664038e-01 -2.726004e-01 -2.539837e-01 -2.779668e-01 -2.610615e-01 -2.676554e-01 -2.698588e-01 -2.562074e-01 -2.788591e-01 -2.583822e-01 -2.690405e-01 -2.674178e-01 -2.594209e-01 -2.782931e-01 -2.548655e-01 -2.706169e-01 -2.653275e-01 -2.615772e-01 -2.763403e-01 -2.524523e-01 -2.722656e-01 -2.632131e-01 -2.627109e-01 -2.731285e-01 -2.506418e-01 -2.726745e-01 -2.600634e-01 -2.626884e-01 -2.677842e-01 -2.432614e-01 -2.637813e-01 -2.638863e-01 -3.005323e-01 -2.781769e-01 -1.381907e-01 -4.220460e-02 -9.534924e-03 -1.711182e-03 -9.657875e-04 