# vtk DataFile Version 2.0
Comment goes here
ASCII

DATASET STRUCTURED_POINTS
FIELD FieldData 1
TIME 1 1 double
0.09800000
DIMENSIONS    256   256   1

ORIGIN    0.000   0.000   0.000
SPACING   0.0078125 0.0078125   1.000

POINT_DATA   65536
SCALARS Omega double
LOOKUP_TABLE default

8.846870e+02 7.044537e+03 8.913768e+03 4.857049e+02 7.049549e+03 -4.087971e+01 -1.860150e+03 1.115322e+04 -1.352912e+04 -4.960962e+03 2.030551e+04 1.402782e+04 -7.088781e+02 -1.136627e+04 1.787866e+04 8.123078e+03 -2.724032e+03 7.258344e+02 4.918633e+03 3.726879e+03 6.454675e+03 4.944903e+03 -5.250319e+02 1.132469e+03 1.197317e+03 -3.850477e+03 -2.784158e+03 2.009074e+03 -3.670673e+03 -9.994264e+03 2.541565e+03 -3.575275e+03 3.014218e+03 4.581386e+03 2.985533e+03 7.967304e+02 5.004237e+03 -8.963695e+03 -7.786648e+03 1.527167e+03 7.662303e+01 -3.215072e+03 2.253632e+03 3.319233e+03 -1.917616e+03 2.717207e+03 7.596773e+03 -3.069725e+03 -1.137580e+04 2.138559e+02 1.431105e+04 9.310748e+03 -2.587702e+03 1.077240e+03 1.185561e+04 2.063000e+02 7.140899e+03 6.861443e+03 3.584818e+03 2.916623e+03 5.870999e+03 -1.401360e+04 -5.073338e+03 1.675631e+03 -2.867709e+03 -2.057427e+02 -1.029869e+04 -7.130258e+03 6.332064e+03 8.410732e+02 3.847808e+02 2.016083e+03 -2.831795e+03 -1.019356e+04 -2.803665e+03 7.983324e+03 1.349521e+04 8.492436e+02 -1.411248e+04 -6.378485e+03 -6.317691e+03 -2.672377e+03 1.410389e+03 1.040875e+04 2.836274e+03 -1.713268e+03 5.619077e+03 5.006181e+03 -4.332240e+03 -3.991781e+03 6.800354e+02 -2.474238e+03 5.015548e+02 2.358850e+03 8.523144e+02 6.786407e+02 -1.679307e+03 -8.432832e+02 1.435382e+03 4.089854e+02 -3.433046e+03 -9.945194e+02 3.130147e+03 3.467087e+03 2.029609e+03 1.264710e+03 -4.441257e+02 2.645769e+03 -2.352463e+03 -2.576528e+03 4.608196e+03 1.396376e+04 2.792623e+03 -9.115763e+02 -4.377324e+03 -1.346504e+03 -3.610022e+03 -3.985886e+03 2.305098e+03 6.274614e+03 1.373646e+03 -6.428234e+03 -6.053833e+03 -7.851002e+02 -1.727685e+03 -1.560842e+03 3.052390e+03 3.135508e+03 -1.152376e+03 -2.072369e+03 -2.667887e+03 -4.029184e+03 -1.297552e+03 8.713919e+03 -9.178901e+02 -1.393907e+03 -7.369391e+02 2.792264e+03 1.288755e+03 -1.317721e+04 -5.573417e+02 3.250508e+03 -3.801179e+03 6.063594e+03 -1.047827e+04 1.019747e+03 -3.688374e+03 -6.822824e+02 9.633458e+03 1.438967e+03 -1.601973e+04 1.774372e+03 1.257563e+04 -1.365323e+03 -9.774126e+02 3.959419e+03 -1.144313e+03 -3.707982e+03 -7.114271e+03 -1.020520e+03 1.146498e+03 -3.635746e+03 -3.313443e+03 -4.321780e+02 4.711894e+03 2.053760e+03 -1.240821e+03 1.144771e+03 -3.044666e+03 -7.394152e+03 -1.090186e+02 2.523829e+03 -3.184047e+03 4.823556e+03 -1.108072e+02 -4.768050e+02 -8.333668e+02 -1.089056e+04 -3.934012e+03 1.178756e+04 5.816048e+03 -9.752631e+03 -1.137541e+04 -4.402274e+03 -2.899653e+03 -6.073908e+02 3.142104e+03 -4.961233e+03 -1.088384e+04 1.260146e+04 1.633249e+04 -5.632062e+03 5.746902e+03 9.569028e+03 9.535259e+02 2.301567e+03 -1.512470e+04 -4.447897e+03 1.280984e+04 -1.175223e+03 -6.262525e+03 -6.750137e+03 -9.755735e+02 6.091141e+03 -3.386352e+03 -5.652797e+03 3.770622e+03 9.018105e+03 1.318456e+03 -9.914868e+03 -8.819495e+03 -5.029397e+02 8.386508e+02 -7.196782e+02 4.526373e+03 4.866290e+03 4.704509e+02 -3.294932e+03 -4.683191e+03 4.809343e+03 -7.083956e+03 -5.680448e+03 1.994127e+02 2.580177e+03 -9.889329e+02 2.013521e+03 2.931943e+03 7.823781e+03 -3.430722e+03 -1.068603e+04 6.501098e+03 -4.018431e+03 -1.302509e+04 1.581729e+02 1.297831e+03 -5.736010e+03 6.192269e+03 2.578177e+02 -6.734259e+03 2.562432e+03 1.171832e+04 -4.042009e+03 -6.141517e+03 2.067346e+03 -1.693000e+04 -1.571131e+02 -3.025184e+01 -6.394264e+03 1.899210e+04 -5.865453e+03 -5.332132e+03 1.200000e+04 3.478004e+03 -1.409655e+04 -5.006450e+03 7.801003e+03 
4.270982e+02 -1.515125e+04 -1.017408e+04 7.191373e+03 -3.299610e+03 1.119463e+04 2.373466e+04 -4.205406e+03 -1.060432e+04 7.256746e+03 2.036771e+03 8.333974e+03 6.973853e+03 2.444739e+03 7.067640e+03 -1.369126e+03 1.171778e+03 -7.315475e+03 1.133173e+04 4.002155e+03 -2.410710e+03 7.667236e+03 4.145239e+02 -9.876966e+03 -1.530220e+03 -5.577621e+03 1.441111e+03 5.803998e+03 8.980423e+03 -2.252143e+03 1.613831e+03 -1.910680e+03 3.051166e+03 -4.060185e+03 1.999633e+02 9.915847e+02 -4.478803e+03 -4.370475e+03 4.911320e+02 -4.931676e+03 6.488066e+03 3.923586e+03 -5.520220e+03 1.916838e+03 5.219295e+02 1.663652e+03 5.832573e+03 2.616021e+03 1.281165e+03 -3.130013e+02 2.144453e+02 -1.981422e+03 -7.474977e+03 2.511350e+03 1.110707e+04 7.118620e+03 1.804696e+03 -3.889523e+03 -3.057006e+03 1.511714e+03 9.284774e+03 -6.771919e+03 3.123771e+02 6.782747e+03 3.217051e+03 -7.918941e+03 1.007088e+03 3.732737e+03 1.836033e+02 -5.518051e+03 2.111115e+03 1.919684e+03 1.253607e+03 2.714569e+03 -4.048612e+03 1.438647e+03 6.032390e+03 8.766758e+03 -7.396770e+03 -7.848543e+03 4.912286e+03 2.385728e+03 -6.390365e+03 9.991231e+03 4.769087e+03 -1.469995e+04 9.240048e+02 1.320820e+04 1.318062e+03 -4.177426e+03 1.054561e+03 -3.586819e+03 -3.389427e+03 9.891873e+01 -4.687445e+03 2.930934e+03 4.110013e+03 1.209500e+03 -4.178220e+02 -9.535392e+02 -3.357929e+03 -2.689246e+03 -5.446150e+03 8.465969e+02 -4.732564e+02 3.953825e+03 6.866840e+03 5.976433e+03 -2.839089e+02 -5.012954e+03 -1.295918e+03 5.697987e+03 -1.854050e+03 1.542973e+03 -9.050995e+03 -4.463247e+03 2.285366e+03 -7.736970e+03 -3.922821e+03 1.178359e+01 -7.343198e+02 -3.632048e+03 -4.877154e+03 -1.167121e+03 -6.999850e+02 7.913104e+02 5.519409e+03 -3.080274e+03 -4.448596e+03 -1.426891e+03 1.810750e+03 3.267329e+03 3.445513e+03 -2.500629e+03 -3.455344e+02 3.426687e+03 -3.736865e+03 -8.987176e+02 1.367059e+04 -3.307124e+03 9.740202e+02 8.760308e+03 1.083739e+04 -1.075202e+04 -3.022949e+03 1.425788e+04 -7.521385e+02 -7.228687e+01 8.883235e+03 -1.950335e+03 -1.583148e+04 -1.156443e+03 9.011164e+02 3.501328e+02 6.704662e+03 9.896695e+03 -1.107669e+03 -8.289448e+03 -8.077172e+02 6.888575e+02 -9.100564e+03 -8.116697e+03 -4.159014e+03 5.242454e+03 5.679180e+03 -5.673825e+03 -1.194847e+04 -6.888133e+02 -7.818002e+03 -1.155848e+04 -2.477542e+03 3.832717e+03 2.735724e+02 -3.162448e+03 1.645621e+03 1.060061e+03 3.011620e+03 5.503285e+03 -8.369686e+03 -4.481849e+03 -3.654915e+03 -1.970349e+03 -4.083099e+03 -2.491930e+03 -1.963556e+04 -7.739485e+03 8.320463e+03 -1.402295e+04 -4.081057e+03 1.165970e+03 9.861387e+03 -2.588176e+03 1.281687e+04 1.353274e+04 -1.053094e+04 -7.905228e+03 -8.091069e+03 -1.214493e+03 7.147764e+03 1.172324e+04 2.103897e+03 6.812497e+03 -8.585500e+03 2.146545e+03 4.658382e+02 1.029477e+03 2.931754e+03 7.559975e+03 9.869593e+03 5.692244e+03 -5.730738e+03 1.526586e+03 6.939795e+03 -2.834014e+03 -1.470115e+04 -5.063178e+02 1.219646e+04 7.252571e+03 6.056922e+03 -2.036313e+02 -1.363871e+04 -8.728562e+03 -1.351440e+03 1.541193e+04 -2.787062e+03 -9.205559e+03 4.544950e+03 7.688869e+03 -2.195025e+03 8.205798e+03 5.418589e+03 -5.782979e+03 8.890736e+02 3.855625e+03 -3.063189e+03 7.646963e+03 -1.173124e+03 -1.637890e+03 1.681183e+03 -9.349511e+03 -3.143252e+03 -5.261039e+03 1.017252e+04 3.186170e+03 2.446608e+03 -4.786424e+02 1.972524e+03 8.921137e+03 -8.097736e+03 7.539202e+03 7.545812e+03 -2.351070e+04 -8.836121e+03 -5.446686e+03 1.264849e+04 9.811734e+03 
-1.680067e+03 -2.107423e+04 -7.773697e+03 -6.939269e+03 -5.947608e+03 1.080585e+03 -6.189324e+03 -1.692158e+03 -3.270302e+03 5.078078e+03 1.668153e+03 5.278657e+03 3.066963e+03 -2.489930e+03 -2.807751e+03 -6.771493e+03 7.278561e+03 -3.911044e+02 3.668164e+03 -2.310844e+03 -5.144289e+03 1.030106e-01 -5.557013e+03 -5.315190e+03 -1.596875e+03 -8.268424e+03 -8.259442e+03 7.359483e+03 9.762055e+03 -1.637529e+03 3.634897e+02 6.091099e+03 1.141167e+03 -5.082859e+03 -1.969403e+03 4.449947e+03 -5.128862e+03 3.751369e+03 1.781188e+04 5.118457e+03 2.983046e+03 -7.634743e+03 2.189782e+03 -1.417992e+02 -3.510461e+03 7.503778e+03 6.718695e+03 1.906282e+03 2.284941e+03 -2.477894e+03 -1.737001e+04 -1.435347e+04 5.432101e+03 9.453553e+03 7.888728e+03 7.914585e+03 -1.365571e+04 -1.252390e+03 -7.542086e+03 -1.404043e+03 -2.444218e+03 9.982400e+03 8.491901e+03 1.189761e+03 9.676363e+02 4.776846e+02 6.265417e+03 8.460761e+03 -2.612471e+03 1.756133e+03 -4.484796e+03 -3.963777e+03 3.808032e+03 1.166971e+04 -6.523723e+03 -1.459408e+04 -5.709751e+03 -4.676696e+02 3.066197e+03 -9.459396e+01 8.401698e+03 8.275261e+03 -7.220398e+02 -7.472289e+03 -3.372850e+03 -3.281058e+03 7.332390e+02 4.713153e+03 8.842860e+03 -1.092372e+03 -9.399432e+03 1.716751e+03 2.896894e+02 -1.246549e+02 -6.236428e+02 3.365654e+03 7.422770e+03 -1.081912e+03 1.785233e+03 -1.844199e+03 -1.355641e+03 -6.234004e+03 -3.387948e+03 3.171698e+03 6.020220e+03 2.110197e+03 3.517406e+03 -2.922318e+03 -3.637216e+03 -7.598915e+02 1.475097e+03 -6.379635e+03 -7.672121e+03 -3.065549e+03 4.315803e+03 -1.428163e+03 -3.169583e+02 -5.076249e+03 -2.451160e+03 4.273889e+03 2.936805e+03 3.708908e+03 2.052664e+03 -2.168644e+03 -3.557553e+02 3.014418e+03 2.302377e+03 -1.880272e+03 -3.067553e+03 3.430212e+03 -2.142041e+03 -2.790803e+03 7.160351e+03 4.292745e+03 -4.110632e+03 -7.341057e+03 -1.571347e+03 -3.284038e+03 -6.093303e+03 7.034767e+02 -1.274456e+04 4.559584e+03 9.891392e+03 -1.729488e+03 1.010005e+04 -1.366384e+03 1.589787e+03 -1.854382e+03 -9.301246e+03 -7.930730e+03 9.337574e+03 -4.015294e+02 6.457742e+02 -3.552800e+03 -1.248387e+03 3.261634e+03 3.951753e+03 3.221671e+03 -2.312682e+03 -6.392982e+03 2.488264e+03 3.370715e+01 2.550044e+03 6.787959e+02 -1.243207e+04 -7.268903e+03 -1.654091e+03 1.994884e+03 -2.457424e+03 -4.284024e+03 -5.022219e+03 4.682900e+03 3.616587e+03 -2.042341e+03 -9.842307e+02 5.657673e+03 5.858972e+03 8.708373e+03 -9.517812e+03 -9.010181e+03 2.708257e+03 4.244452e+03 2.678568e+03 1.019854e+04 5.787471e+03 -8.435740e+03 -1.440188e+04 -1.633229e+04 -3.799979e+03 -1.707493e+04 -1.485970e+03 -8.716987e+02 -7.247673e+02 -4.649084e+03 4.417136e+03 7.818135e+02 6.185851e+03 -3.644268e+03 -1.276090e+04 5.212480e+03 1.192562e+04 -1.993620e+03 -1.578189e+04 -1.757016e+03 -6.425748e+03 -2.433371e+03 7.112459e+03 8.974666e+03 -3.526501e+03 3.682801e+02 4.629577e+03 4.449737e+03 4.701359e+02 3.343197e+03 -3.323828e+03 1.108544e+03 6.119174e+03 6.243974e+03 7.452878e+03 -7.048779e+03 -1.713281e+04 -8.346536e+03 6.299025e+03 8.269694e+03 4.051867e+02 -2.508639e+03 -4.956929e+03 -5.328170e+03 4.895433e+03 3.755179e+03 -8.045695e+03 -1.436481e+03 2.388479e+03 3.054480e+03 2.331119e+02 4.372531e+03 7.679786e+03 6.200426e+03 6.908262e+03 -4.992772e+03 -9.408483e+03 6.515672e+03 1.139909e+04 6.294472e+03 2.161225e+04 5.401496e+03 -6.219964e+03 -1.685144e+04 2.457090e+03 1.275267e+04 -1.869778e+04 -2.295756e+03 7.663499e+03 -2.580799e+02 -7.464386e+03 7.326971e+03 
-4.536791e+03 -1.032916e+04 -1.056776e+04 -8.041666e+03 3.929160e+02 -2.636530e+03 -2.671332e+03 -1.227107e+03 -1.110953e+04 -6.058050e+02 4.423834e+03 -3.661704e+03 -1.678433e+03 -9.595002e+03 -1.377001e+03 9.547816e+03 -9.497540e+03 -9.673259e+03 4.231720e+03 2.175355e+03 -2.365942e+03 1.383484e+02 -1.214248e+04 8.524632e+02 -8.642898e+03 2.702200e+03 3.657434e+02 3.768857e+03 4.272113e+03 1.713140e+02 6.699765e+02 -2.697348e+03 -5.688691e+03 4.921117e+03 4.110858e+03 -5.556154e+03 -1.864888e+03 -1.381856e+02 8.773303e+03 2.471100e+03 -2.444321e+03 3.937580e+03 -2.660228e+03 -1.062294e+02 -6.584193e+03 -3.902568e+03 3.681184e+03 2.034409e+03 -2.596176e+03 8.898742e+03 5.545149e+03 -3.040880e+03 5.014086e+03 6.610761e+03 2.255101e+03 3.037194e+03 -6.499520e+03 -5.366663e+03 -2.270914e+02 -4.282474e+03 -1.217262e+04 2.614716e+03 -4.205868e+02 2.654690e+03 -2.747186e+02 5.798785e+03 3.375522e+03 2.512267e+03 2.481233e+03 4.111689e+02 -4.935558e+03 -7.969540e+02 -2.205680e+03 -3.120074e+03 -1.198430e+03 -3.588905e+03 -6.139703e+03 -5.546391e+03 1.455426e+03 1.583897e+03 7.579030e+03 4.744678e+03 -1.899642e+03 -5.860700e+03 -1.769017e+03 3.510159e+03 -5.262847e+03 -2.653257e+03 1.909209e+03 -5.262349e+03 1.201809e+03 5.335792e+03 3.723543e+03 4.013741e+03 -5.474900e+02 -4.401157e+03 1.200171e+02 3.548496e+03 3.063431e+03 -1.954090e+03 9.101199e+02 -1.918789e+03 -4.119104e+03 1.151872e+01 2.971700e+03 4.315879e+03 6.560251e+01 -4.816372e+03 2.844351e+03 2.202405e+03 -3.245162e+03 -6.199473e+03 -3.803317e+03 -3.147662e+03 -2.735006e+03 3.461269e+03 6.639722e+03 -5.128911e+03 1.853826e+03 3.139665e+03 4.383567e+03 4.969970e+03 6.165452e+03 5.600194e+03 3.825005e+02 -1.279624e+03 3.381488e+03 1.130001e+03 2.204140e+03 2.145313e+03 -1.056448e+04 -3.209255e+01 2.517252e+03 -1.877030e+03 -8.992143e+02 -3.660381e+03 -2.211381e+03 6.637689e+02 -5.305658e+03 8.021602e+03 -8.888594e+02 -2.094269e+04 -9.108435e+03 1.322434e+04 -3.103821e+03 1.094536e+03 -1.490381e+03 -5.360344e+03 -5.662627e+03 4.443113e+03 1.174211e+04 -3.418162e+03 9.464988e+02 3.105742e+03 -5.274243e+02 -5.331784e+03 -2.929022e+02 -2.946471e+02 5.914711e+03 4.176697e+02 7.113405e+02 -2.071507e+03 1.341798e+04 5.323629e+03 -1.098084e+03 8.929979e+02 2.086391e+03 9.074683e+02 -1.102480e+02 -2.647950e+03 -3.339981e+03 7.122054e+03 1.560566e+03 -7.424670e+03 -7.664761e+03 -3.043159e+03 -3.114162e+03 1.597183e+03 5.585462e+03 7.604204e+03 -4.974207e+02 -4.971703e+03 2.917291e+03 1.002764e+04 8.544549e+03 -3.139490e+03 -8.158155e+03 1.448178e+03 -1.139386e+04 -1.413831e+04 -1.419970e+04 -7.546125e+03 -1.300797e+04 -4.459255e+03 8.116910e+03 -1.127618e+04 -1.634753e+03 -2.791297e+03 -7.276479e+03 -1.269703e+04 1.716478e+03 -9.276687e+03 -8.572882e+03 -4.597634e+03 7.269823e+03 -5.039495e+03 5.794884e+03 2.019695e+03 -7.873902e+03 -2.640098e+03 -8.889389e+03 1.713026e+03 9.041864e+03 -4.480740e+03 2.857220e+03 5.297421e+03 -3.388211e+03 7.929951e+02 -2.561269e+03 -1.473934e+03 -8.924873e+03 -9.621095e+03 4.961595e+03 -3.023209e+03 2.179188e+03 -7.012595e+03 2.665855e+02 -9.395959e+02 -4.211565e+03 3.313170e+03 3.177436e+03 -1.052061e+04 2.406314e+03 -2.436762e+03 3.418499e+03 3.227883e+03 -2.165524e+03 1.038538e+04 9.105484e+03 -3.256958e+03 -1.903144e+04 1.710827e+03 -3.452861e+03 1.680382e+04 9.188446e+03 1.268098e+04 1.010132e+04 -3.032331e+03 6.787533e+03 6.473478e+03 5.352623e+03 6.328908e+03 -2.387347e+03 -9.156762e+02 2.759187e+03 -1.223700e+04 
-8.694432e+03 -4.050357e+03 3.754258e+03 1.491424e+04 2.050085e+03 -1.786869e+03 -4.704791e+03 1.023471e+04 5.484873e+03 -4.464023e+03 -3.465170e+03 -3.775967e+03 -1.075450e+04 -6.481767e+02 -4.462834e+03 3.083024e+02 -7.271514e+03 -3.567351e+03 -7.685928e+03 -4.419604e+03 -3.875123e+03 -4.769297e+03 -2.358452e+03 9.694892e+03 -1.120616e+03 -5.061333e+03 1.044354e+04 5.198181e+03 -1.519441e+03 -3.070960e+03 3.597195e+02 3.160193e+03 -1.013397e+04 5.625756e+03 2.161267e+03 6.559886e+03 1.832543e+03 -6.747438e+03 -1.266618e+04 -5.107355e+03 -1.253564e+04 7.781578e+03 4.285013e+03 -1.010825e+03 3.331267e+03 -6.189467e+03 -4.185672e+03 3.373960e+03 5.210906e+03 6.087680e+03 5.214353e+03 1.953556e+03 4.864479e+03 2.041425e+03 -6.273012e+03 -5.821984e+03 2.714375e+03 -4.586479e+03 -3.689598e+03 1.333619e+03 -5.145827e+03 3.047453e+02 3.888442e+03 -7.557661e+03 -9.081802e+03 -8.703146e+03 1.768573e+03 -2.000270e+03 6.461791e+03 -2.272518e+03 -2.809247e+02 1.124202e+03 -2.547676e+03 -6.882441e+03 -1.051159e+03 -1.207800e+03 6.172569e+03 3.149141e+03 2.033886e+03 6.516036e+03 -4.394062e+03 -3.123009e+03 3.670236e+02 3.369464e+03 7.507553e+03 2.558753e+03 -1.963102e+03 -4.245439e+03 -1.136813e+03 -2.572605e+03 1.531830e+03 5.375858e+03 6.868489e+03 -1.943728e+03 -9.046537e+03 3.582614e+03 2.510725e+03 -2.089270e+03 -5.571364e+03 -2.566655e+02 7.189843e+02 -1.410453e+03 2.334466e+03 -1.987551e+03 6.560037e+02 2.984733e+03 2.093048e+03 4.761323e+03 3.460996e+03 5.975080e+03 1.826775e+03 -1.248553e+03 5.267942e+03 3.339155e+03 -1.890469e+03 6.251270e+03 -3.239179e+03 -4.429098e+03 9.345298e+03 -2.161786e+03 -2.442801e+03 -4.166846e+03 -3.587692e+01 1.573039e+03 5.379956e+03 2.839525e+03 5.443781e+03 1.018604e+03 7.761405e+03 6.244154e+03 8.994489e+02 1.404932e+03 -6.366452e+03 -7.354672e+02 3.324588e+03 -3.298128e+02 -5.019304e+03 -3.994597e+03 3.293292e+03 -4.470932e+03 9.805042e+03 1.907648e+03 -8.995295e+03 -6.382830e+03 2.738170e+03 4.888888e+03 -1.232743e+04 -5.074527e+02 6.255486e+03 1.249090e+04 4.198376e+03 -1.214365e+04 -1.057005e+03 9.857943e+03 -5.996318e+03 -8.882944e+02 -6.852810e+03 -9.423570e+01 3.446325e+03 -3.070711e+03 5.898266e+03 4.521449e+03 -2.164059e+03 8.545412e+02 7.290142e+03 -4.831889e+03 7.809855e+03 8.724422e+03 -4.738769e+03 -4.184365e+03 3.363436e+03 -3.722473e+03 3.292870e+03 5.152249e+03 2.990406e+03 -9.826669e+02 -3.188835e+03 1.791691e+03 1.297516e+03 -8.156462e+02 -5.663605e+03 4.280445e+03 1.192659e+03 5.059336e+03 4.370356e+03 -6.608166e+02 -8.576791e+03 1.187071e+04 -1.330592e+04 -1.371599e+04 -4.999468e+03 3.758006e+03 -4.947914e+03 9.786149e+03 6.162546e+03 -3.248793e+03 -2.854239e+03 -1.330390e+03 -6.124032e+02 -4.305315e+03 8.836169e+03 1.762061e+03 -3.626040e+03 -8.751557e+03 6.338681e+03 5.404473e+03 -1.112735e+04 -7.533531e+03 -4.422365e+03 -4.008392e+03 -2.343929e+03 -1.422922e+03 4.102591e+03 -7.031313e+03 -9.381108e+03 2.754339e+02 -4.346313e+03 5.112453e+02 1.045395e+03 5.337885e+03 -8.206216e+03 -3.531793e+03 7.263954e+03 -5.339601e+03 -1.339564e+04 -3.167375e+03 2.028835e+03 4.129042e+03 3.009954e+03 1.107963e+03 -2.758020e+03 -1.093363e+03 8.321640e+03 2.569792e+02 -3.114345e+03 2.735066e+03 -1.229327e+04 -8.868935e+03 -4.751069e+03 -1.658929e+03 -7.420782e+03 -6.635107e+03 -1.137359e+04 6.862962e+03 -5.583045e+03 4.421509e+03 6.230287e+03 1.550258e+04 8.777017e+03 -9.717679e+03 -1.213990e+04 1.607726e+03 -5.831135e+03 -5.046520e+03 9.279348e+03 -4.118486e+03 
-9.623993e+03 1.642521e+03 -7.962114e+02 -6.402383e+03 9.175171e+03 -3.653971e+03 -1.498267e+04 1.339674e+04 -2.034704e+03 1.557243e+02 9.377348e+03 -9.523948e+03 -3.115837e+03 2.446838e+02 -3.551928e+03 -4.673849e+03 -2.857181e+03 -1.113794e+02 -3.604589e+03 -3.410716e+03 -3.714602e+03 2.927083e+02 1.734896e+03 -9.928723e+03 2.210644e+03 -4.046674e+02 5.293528e+02 5.429671e+03 8.001022e+03 6.665521e+03 -2.672740e+03 -1.328857e+03 -3.958113e+03 -4.528079e+02 -1.712651e+03 5.290381e+03 1.184251e+04 1.562790e+03 -6.803072e+03 2.598157e+01 -2.931429e+03 -6.652561e+02 -1.726494e+03 5.287934e+02 -3.965993e+02 -1.091248e+04 5.877430e+02 3.784595e+03 1.173945e+04 1.013250e+03 2.165369e+03 -4.991261e+03 -9.299183e+03 5.611681e+03 4.430476e+02 6.368602e+03 2.190914e+03 -2.616273e+03 1.934204e+03 1.391370e+04 4.202806e+03 5.276901e+03 -3.539961e+03 -7.143227e+03 -6.852858e+03 -6.537187e+03 -4.675739e+03 -1.330412e+03 -5.442014e+03 -4.419819e+03 3.713290e+03 3.132765e+03 4.826948e+03 9.790945e+02 -7.858506e+03 1.253414e+02 1.137572e+03 -3.070296e+03 1.247967e+03 9.594908e+03 7.344463e+03 5.364433e+02 -5.052906e+03 7.430334e+03 6.071270e+03 2.635530e+03 3.055056e+03 -6.582771e+03 -4.887891e+03 5.923491e+03 -5.365336e+03 1.001992e+04 1.411189e+02 -3.092572e+03 -3.738267e+03 1.950618e+03 -1.038477e+03 1.361892e+03 -2.934423e+03 -4.666613e+03 -1.092250e+03 1.350723e+03 3.475187e+03 4.572408e+03 -5.204245e+02 -1.179833e+03 -3.325300e+03 2.171604e+03 -2.469907e+03 -6.601708e+03 -2.090979e+03 7.498916e+03 -1.320844e+03 -6.589322e+02 7.222949e+03 2.213000e+03 -4.302273e+02 -3.170972e+03 -6.713758e+03 2.586380e+03 6.015890e+02 2.694611e+03 -1.999801e+03 3.774402e+03 5.490660e+03 -1.799541e+03 6.761927e+03 7.239371e+03 4.715988e+02 4.641162e+03 5.453255e+03 -1.758955e+03 7.017713e+02 -1.102548e+03 -1.878696e+03 9.734439e+02 2.510506e+03 -6.313491e+03 5.065792e+03 -1.245504e+03 -6.138268e+03 1.049808e+03 5.701137e+03 -3.201587e+03 1.624013e+03 -8.838565e+03 -3.167574e+03 6.431703e+03 9.096969e+03 -9.941522e+03 -1.130884e+04 6.655093e+03 3.293990e+03 7.087975e+03 -8.125625e+03 5.337099e+03 -1.681079e+03 -1.774275e+02 1.267018e+04 -4.099672e+03 -2.091669e+03 2.714346e+03 -7.376755e+03 -2.899806e+03 2.472195e+03 -2.032943e+03 3.101398e+03 -7.057871e+03 -7.941163e+03 -1.949307e+03 9.771884e+03 6.097984e+03 -3.240769e+01 -1.284304e+02 3.092642e+03 5.875382e+03 4.834870e+03 -8.582367e+02 -4.054126e+03 8.814300e+01 1.712320e+03 -3.975536e+03 -7.349801e+03 -8.939600e+03 1.755168e+03 -1.957222e+04 4.230692e+03 -2.729587e+03 -6.031164e+03 -1.543537e+03 6.805607e+03 2.018592e+04 1.447567e+04 1.510988e+04 9.290722e+03 1.574386e+04 1.312141e+02 -1.337285e+04 -7.395294e+03 3.313291e+03 3.015408e+03 1.494369e+04 1.173992e+04 2.458920e+03 -1.213380e+04 -2.507351e+03 -4.647296e+03 -6.670509e+03 4.079787e+02 -7.559073e+03 -1.253319e+02 -1.655963e+03 -9.087654e+03 8.338661e+03 8.771625e+03 -7.207467e+03 4.190828e+03 1.493092e+03 -6.977300e+03 1.305268e+03 -3.485409e+02 -5.089880e+03 6.339889e+03 9.934524e+03 -1.811094e+03 4.000107e+03 5.299248e+03 3.756785e+03 7.909787e+02 5.618596e+03 -4.405050e+03 7.294625e+03 -4.523960e+02 -1.613996e+04 -1.202819e+04 1.932751e+04 1.252533e+04 -2.288841e+03 1.492011e+03 -8.552345e+03 -8.034300e+03 -1.101487e+04 -6.135211e+03 8.766402e+03 -5.847947e+03 -6.739439e+03 1.657713e+04 -1.414502e+04 4.376426e+02 1.362158e+04 -1.577729e+04 -4.489497e+02 -3.114204e+03 8.517245e+02 1.760471e+04 1.083431e+04 
-5.740748e+03 -3.282439e+03 9.640531e+03 -4.647498e+03 2.623280e+03 4.809614e+03 -1.143589e+04 -7.229758e+03 -4.229149e+03 -7.893367e+03 1.269491e+04 -8.855192e+03 -1.380567e+03 3.023425e+03 -1.022694e+02 -2.760252e+02 1.405955e+02 2.619842e+02 1.307698e+02 -1.252233e+02 -1.469683e+03 9.323737e+02 1.845548e+03 -6.704994e+03 -1.074624e+03 3.646886e+03 9.349492e+03 5.716825e+03 -1.162410e+04 -1.263403e+03 1.175178e+03 1.196100e+03 1.601489e+03 -7.120754e+03 4.470951e+02 -7.000665e+03 -1.054061e+04 9.228977e+03 1.459198e+04 -4.210839e+03 -7.687180e+02 -1.018403e+04 -1.458321e+04 -2.593011e+03 -3.806776e+03 2.580955e+03 3.378735e+03 1.249697e+03 -8.970436e+03 2.099955e+03 1.793399e+04 -1.988292e+03 -7.497214e+03 -6.482040e+03 -1.375575e+02 5.278710e+03 -2.161905e+03 1.462073e+02 1.832473e+03 6.700527e+03 4.199680e+03 5.311565e+03 -4.462373e+03 2.262505e+03 8.754270e+03 1.462157e+03 -6.382839e+02 4.646459e+02 -3.534891e+03 1.094074e+03 -6.717085e+02 -2.378976e+02 6.557541e+03 2.537158e+03 -3.764602e+03 -1.401909e+03 8.906295e+02 -1.049995e+03 -7.430271e+03 -4.435341e+02 1.998271e+03 5.574694e+03 4.013502e+03 -4.203164e+03 -8.879483e+03 6.989523e+03 5.016166e+03 -2.147309e+03 -2.136770e+03 4.890391e+03 -4.163027e+03 7.496653e+03 1.951064e+03 -5.104898e+03 -3.901175e+03 -4.405677e+03 -4.571608e+03 -4.295878e+03 3.587134e+03 4.151316e+03 -4.338345e+03 -3.473286e+03 7.979452e+02 1.293476e+04 -1.411844e+03 -6.326891e+03 -1.859781e+02 -6.178733e+03 -6.996510e+03 -4.928738e+03 -7.038716e+03 1.608822e+03 -3.312395e+03 -3.762401e+03 5.444761e+03 8.542218e+03 -6.531524e+03 -2.361658e+03 -1.740536e+03 -5.567874e+03 -3.501666e+03 1.254261e+04 -7.567939e+01 3.132930e+03 4.428958e+03 4.646108e+03 -6.281888e+03 -1.217926e+03 7.270533e+03 -1.116019e+03 -6.154638e+03 2.159224e+03 6.201632e+03 -7.901020e+03 -1.651212e+03 4.994892e+03 5.097679e+03 1.400745e+02 -9.867131e+02 -6.428829e+03 -4.371360e+02 6.188270e+03 1.771464e+03 1.966543e+03 -3.836678e+03 3.276409e+03 8.887839e+03 3.283231e+03 7.255928e+03 -5.468187e+03 -4.757330e+03 5.224000e+03 -5.875752e+03 -1.579856e+03 -9.473019e+02 5.806290e+03 4.889073e+03 -1.207260e+04 -2.701625e+02 5.803735e+03 7.963504e+03 -1.289924e+04 -2.216213e+03 2.348203e+03 -8.780481e+03 1.958074e+03 -2.309348e+03 7.432627e+02 7.397058e+03 -1.344617e+03 -1.313913e+03 2.037952e+03 -6.756026e+03 -3.257207e+03 1.428380e+03 -8.597476e+03 -1.824574e+03 -8.288300e+03 -5.293726e+02 1.624833e+02 4.068082e+03 -2.954155e+03 -5.047247e+03 -1.307592e+03 -5.327474e+03 -7.668914e+03 5.701388e+03 2.981339e+02 -3.131705e+03 1.207629e+04 2.032754e+02 1.003386e+04 1.538472e+04 1.763168e+04 1.519847e+04 1.077856e+04 -7.651020e+03 -1.761604e+03 -5.085352e+02 5.801173e+03 6.818215e+02 -3.710221e+03 -1.090088e+04 7.139067e+03 -1.708125e+03 -1.516649e+03 8.167313e+03 3.373168e+03 5.393498e+03 1.968811e+03 2.125636e+03 4.476421e+03 2.734367e+03 3.218490e+03 5.843619e+03 -2.672374e+03 1.259039e+04 5.903212e+03 8.573113e+02 -1.170725e+04 5.057136e+03 1.253602e+04 -6.759181e+03 1.929129e+03 8.365443e+03 4.258470e+03 -3.674711e+03 -2.623017e+02 2.737248e+03 1.267017e+04 6.104984e+03 -3.670901e+02 3.727800e+03 7.347259e+02 2.626207e+03 5.555739e+03 -2.338131e+03 3.446522e+02 6.155996e+03 -5.110460e+03 -1.120686e+04 -3.319374e+03 8.289221e+03 1.120030e+04 8.220778e+02 -3.887189e+03 -1.545594e+04 -7.641875e+03 1.210849e+04 9.334426e+03 3.912830e+03 -1.366682e+04 9.723857e+02 2.403874e+03 7.342257e+03 1.493597e+03 
9.999821e+03 -8.420009e+03 -2.543968e+03 -3.589818e+01 -3.964822e+03 -8.407128e+03 -4.647559e+03 1.649565e+03 -2.202481e+03 -8.842066e+03 -7.642510e+03 3.866689e+02 5.235316e+03 2.896461e+03 -8.774180e+01 -5.053373e+02 -6.215141e+02 -2.010925e+02 -1.450671e+01 -9.803131e+01 -1.286870e+03 -2.294514e+03 7.692005e+02 -3.382574e+03 -6.060875e+03 8.933780e+01 4.678240e+03 4.341540e+03 1.551443e+03 8.292781e+03 4.871728e+03 -7.054405e+03 5.985031e+03 -5.047487e+03 -2.002347e+03 4.342844e+03 -8.481832e+03 -1.063294e+04 5.050059e+03 4.497194e+03 -6.329786e+03 7.475045e+01 1.531293e+03 1.188911e+04 5.425969e+03 -7.161468e+03 -8.247462e+03 -5.309505e+03 -1.036361e+04 -2.031572e+03 4.318596e+03 6.691871e+02 2.975954e+03 -1.907764e+03 -7.185645e+02 -5.432890e+03 -4.693859e+03 8.625165e+03 -1.038722e+03 -1.725340e+04 5.143541e+03 -2.141013e+03 -5.295318e+03 1.831453e+03 8.875353e+03 3.694079e+02 3.300234e+03 1.230303e+03 2.035089e+03 -2.059753e+03 -7.372938e+02 -1.219380e+03 1.249774e+02 -3.539419e+03 -3.182022e+03 -4.992365e+03 -2.690733e+02 -4.118334e+03 -6.925786e+03 -6.736274e+03 -9.913889e+03 6.391656e+03 1.322032e+04 -9.407184e+02 -2.947973e+03 3.440776e+03 5.835631e+02 -2.409456e+03 6.336181e+03 -3.445292e+03 5.200867e+03 8.934283e+02 3.540484e+03 -3.599352e+03 1.882363e+03 -3.597462e+03 -1.844651e+03 -5.091285e+02 -4.054543e+02 -5.300739e+02 6.228821e+03 5.480631e+02 3.797699e+02 -3.339629e+02 -7.356243e+03 3.771981e+03 -5.357940e+02 -1.405242e+03 -2.927654e+03 3.701082e+03 -8.364244e+02 9.443432e+02 3.342379e+03 4.574850e+02 -8.459479e+02 1.114857e+02 -9.817358e+02 3.753335e+03 1.664557e+03 1.648805e+03 3.169807e+03 2.188380e+03 -7.651102e+03 -1.088187e+03 1.901598e+01 6.055657e+02 -7.756028e+03 1.001149e+03 2.752981e+03 7.811679e+02 -9.833452e+03 -1.662375e+03 4.870754e+03 3.873906e+03 -1.707688e+03 2.025626e+03 8.119492e+03 -6.288573e+03 -1.615076e+03 1.032507e+04 5.853709e+03 -2.474712e+03 -1.209155e+04 6.061898e+03 2.511728e+03 -2.030883e+03 -5.023350e+03 -1.077904e+03 5.675689e+03 6.849615e+03 -6.274969e+03 -8.320486e+02 -4.210567e+03 -1.964938e+03 -2.211273e+03 -1.988764e+02 -3.272666e+03 1.239942e+03 -2.397439e+02 -8.573896e+03 -6.867971e+03 1.096363e+03 5.064011e+03 4.539519e+03 -4.814831e+03 1.696608e+03 7.123025e+03 -5.155316e+03 -2.902422e+03 9.705160e+03 4.926098e+03 -5.573410e+03 -3.301149e+03 4.077678e+03 2.958732e+03 -1.549628e+03 -1.939205e+03 -1.407288e+03 -7.237745e+02 -4.455491e+03 3.506477e+03 2.105082e+03 -1.048728e+04 4.398365e+02 -9.204154e+03 2.827801e+03 -1.171668e+04 -1.886739e+03 -3.796724e+03 1.517604e+03 -1.083397e+03 -7.400617e+03 -3.284385e+03 3.038580e+03 2.506199e+02 1.111032e+04 6.988504e+03 1.769001e+03 7.895848e+02 5.734911e+03 -1.114300e+03 -7.958362e+03 -4.193319e+03 6.393343e+03 3.608722e+03 -4.111281e+03 2.793113e+03 6.908124e+03 2.727434e+03 -1.202571e+03 -6.525723e+03 4.926128e+03 1.207343e+04 2.692847e+02 1.396434e+02 -4.020085e+03 3.454003e+03 1.767932e+04 6.536392e+02 -9.432149e+03 6.959685e+02 1.857503e+02 -8.562398e+03 -8.197038e+03 3.313590e+02 -6.969633e+03 -9.515160e+02 -4.233410e+03 -3.257652e+03 -2.920366e+03 -2.035636e+02 7.107083e+03 5.286559e+03 -2.113791e+02 -5.089851e+03 -9.610273e+03 -7.981771e+03 -3.522390e+03 -4.721883e+03 7.551539e+03 5.799848e+03 -1.024309e+04 -9.134325e+03 -6.128491e+02 1.986713e+03 -6.465992e+03 -1.877476e+04 1.445319e+03 -1.069469e+04 -5.722616e+03 -4.510497e+03 8.019227e+03 1.772589e+03 -1.081356e+04 -3.005822e+03 1.458879e+04 