# vtk DataFile Version 2.0
Comment goes here
ASCII

DATASET STRUCTURED_POINTS
FIELD FieldData 1
TIME 1 1 double
0.06000000
DIMENSIONS    64   64   1

ORIGIN    0.000   0.000   0.000
SPACING   0.03125 0.03125   1.000

POINT_DATA   4096
SCALARS P double
LOOKUP_TABLE default

-3.840092e+01 -2.088045e+02 -2.885489e+01 -2.202949e+02 8.202500e+01 1.289854e+02 -3.154932e+01 1.235359e+02 -4.143053e+01 1.146012e+02 -4.600264e+01 1.008595e+02 -4.368269e+01 8.294619e+01 -3.693657e+01 6.322526e+01 -2.825643e+01 4.163680e+01 -1.898304e+01 2.128076e+01 -1.475059e+01 8.718927e+00 -2.065921e+01 4.993765e+00 -3.311176e+01 4.100907e+00 -4.431936e+01 -1.353110e+00 -4.796623e+01 -1.349813e+01 -4.834542e+01 -2.591203e+01 -4.972211e+01 -3.578098e+01 -5.463932e+01 -4.250228e+01 -5.985689e+01 -5.083366e+01 -6.246275e+01 -6.285542e+01 -6.026225e+01 -7.871414e+01 -5.703272e+01 -9.200196e+01 -5.879568e+01 -1.017821e+02 -6.275862e+01 -1.083179e+02 -7.087853e+01 -1.116723e+02 -7.818007e+01 -1.172133e+02 -8.312361e+01 -1.262387e+02 -8.311050e+01 -1.388805e+02 -8.082178e+01 -1.533385e+02 -7.241566e+01 -1.733381e+02 -5.858317e+01 -1.955928e+02 -4.409191e+01 -2.155252e+02 
-7.909136e+00 -1.342069e+02 -2.171050e+00 -1.429139e+02 7.982743e+01 1.161449e+02 -3.186643e+00 1.108948e+02 -9.136505e+00 1.041358e+02 -1.239238e+01 9.516249e+01 -1.220559e+01 8.413070e+01 -9.879783e+00 7.230937e+01 -6.678076e+00 5.931780e+01 -2.838541e+00 4.651407e+01 -1.099356e+00 3.742209e+01 -4.146000e+00 3.248249e+01 -1.019795e+01 2.879672e+01 -1.545869e+01 2.259996e+01 -1.656465e+01 1.285447e+01 -1.613100e+01 3.127448e+00 -1.627775e+01 -5.272295e+00 -1.838268e+01 -1.195575e+01 -2.067757e+01 -1.934442e+01 -2.182034e+01 -2.858278e+01 -2.041307e+01 -3.992817e+01 -1.861470e+01 -4.981511e+01 -1.938422e+01 -5.807225e+01 -2.085179e+01 -6.471983e+01 -2.446165e+01 -6.965027e+01 -2.747944e+01 -7.555514e+01 -2.957972e+01 -8.286973e+01 -2.929782e+01 -9.158833e+01 -2.843961e+01 -1.005887e+02 -2.449775e+01 -1.124060e+02 -1.762227e+01 -1.253206e+02 -1.021700e+01 -1.378440e+02 
8.598879e+00 -8.846173e+01 1.068941e+01 -9.238403e+01 3.815809e+01 1.011481e+02 1.110698e+01 9.745322e+01 9.255677e+00 9.277439e+01 7.696276e+00 8.736697e+01 6.646258e+00 8.133441e+01 5.902751e+00 7.504397e+01 5.272183e+00 6.832159e+01 4.945300e+00 6.127371e+01 4.640747e+00 5.449112e+01 3.868803e+00 4.798150e+01 2.836987e+00 4.144293e+01 1.958478e+00 3.449300e+01 1.790867e+00 2.696148e+01 1.791850e+00 1.943276e+01 1.697866e+00 1.205590e+01 1.301527e+00 4.973347e+00 9.461014e-01 -2.148170e+00 7.259082e-01 -9.493622e+00 1.007355e+00 -1.718373e+01 1.445994e+00 -2.451936e+01 1.597404e+00 -3.170657e+01 1.905702e+00 -3.870838e+01 1.930934e+00 -4.532005e+01 2.195799e+00 -5.187876e+01 2.509307e+00 -5.831533e+01 3.140210e+00 -6.456831e+01 3.586728e+00 -7.030890e+01 4.485990e+00 -7.617407e+01 5.981267e+00 -8.181390e+01 7.777105e+00 -8.747321e+01 
8.706364e+00 -9.338828e+01 1.140776e+01 -9.710629e+01 1.446509e+01 1.049435e+02 1.156746e+01 1.007448e+02 9.032560e+00 9.553206e+01 7.182968e+00 8.961736e+01 6.000661e+00 8.311262e+01 5.281238e+00 7.623243e+01 4.827393e+00 6.902839e+01 4.565286e+00 6.172410e+01 4.196560e+00 5.470836e+01 3.435548e+00 4.801042e+01 2.444576e+00 4.133885e+01 1.635751e+00 3.430996e+01 1.349160e+00 2.681745e+01 1.335898e+00 1.922121e+01 1.327564e+00 1.175391e+01 1.138243e+00 4.473510e+00 9.159258e-01 -2.853914e+00 8.189268e-01 -1.040788e+01 1.002615e+00 -1.815468e+01 1.204946e+00 -2.569790e+01 1.198875e+00 -3.299424e+01 1.152727e+00 -3.999248e+01 9.701467e-01 -4.667492e+01 8.766864e-01 -5.325120e+01 9.131879e-01 -5.977638e+01 1.264795e+00 -6.621578e+01 1.866865e+00 -7.247576e+01 3.047213e+00 -7.878484e+01 4.838633e+00 -8.488660e+01 6.918215e+00 -9.028575e+01 
8.721884e+00 -9.045825e+01 1.085617e+01 -9.402287e+01 1.361553e+01 1.012908e+02 1.120593e+01 9.751166e+01 9.247952e+00 9.277463e+01 7.736621e+00 8.735840e+01 6.623881e+00 8.142396e+01 5.787471e+00 7.513425e+01 5.119952e+00 6.852758e+01 4.606306e+00 6.170996e+01 4.129183e+00 5.489120e+01 3.523998e+00 4.811525e+01 2.841634e+00 4.127641e+01 2.263957e+00 3.421222e+01 1.953518e+00 2.689913e+01 1.773146e+00 1.952748e+01 1.596143e+00 1.220003e+01 1.352958e+00 4.957128e+00 1.135177e+00 -2.299073e+00 1.023641e+00 -9.642216e+00 1.111216e+00 -1.707010e+01 1.291015e+00 -2.438313e+01 1.441567e+00 -3.155842e+01 1.638351e+00 -3.856178e+01 1.813071e+00 -4.535479e+01 2.087750e+00 -5.201085e+01 2.461896e+00 -5.851342e+01 2.989084e+00 -6.481045e+01 3.608595e+00 -7.081720e+01 4.505748e+00 -7.662803e+01 5.747666e+00 -8.211202e+01 7.220758e+00 -8.704914e+01 
8.196056e+00 -9.518064e+01 1.046253e+01 -9.926408e+01 1.268641e+01 1.042667e+02 1.080223e+01 1.002705e+02 8.794564e+00 9.522701e+01 7.177208e+00 8.943724e+01 6.011705e+00 8.310179e+01 5.191907e+00 7.638259e+01 4.592338e+00 6.939525e+01 4.125126e+00 6.228881e+01 3.654008e+00 5.523731e+01 3.066735e+00 4.827167e+01 2.415970e+00 4.127993e+01 1.863843e+00 3.411523e+01 1.533564e+00 2.674332e+01 1.366393e+00 1.928491e+01 1.251099e+00 1.184528e+01 1.108445e+00 4.449482e+00 9.672592e-01 -2.973909e+00 8.866333e-01 -1.048085e+01 9.008707e-01 -1.803761e+01 9.298116e-01 -2.550424e+01 9.083895e-01 -3.280798e+01 8.764718e-01 -3.991020e+01 8.477054e-01 -4.681303e+01 9.047302e-01 -5.357877e+01 1.094474e+00 -6.023902e+01 1.498479e+00 -6.678239e+01 2.165162e+00 -7.317464e+01 3.209657e+00 -7.941749e+01 4.646630e+00 -8.536027e+01 6.361013e+00 -9.073039e+01 
8.110271e+00 -9.313227e+01 9.921380e+00 -9.751172e+01 1.191825e+01 1.019232e+02 1.037812e+01 9.786357e+01 8.771780e+00 9.306822e+01 7.432362e+00 8.763872e+01 6.391088e+00 8.172267e+01 5.571770e+00 7.544374e+01 4.893005e+00 6.887963e+01 4.323588e+00 6.210486e+01 3.822743e+00 5.523159e+01 3.314313e+00 4.830450e+01 2.801816e+00 4.129703e+01 2.353077e+00 3.415833e+01 2.027048e+00 2.689264e+01 1.790770e+00 1.957234e+01 1.591912e+00 1.225059e+01 1.399951e+00 4.944089e+00 1.237854e+00 -2.374994e+00 1.141270e+00 -9.726784e+00 1.137559e+00 -1.709146e+01 1.199068e+00 -2.439153e+01 1.296869e+00 -3.158444e+01 1.446884e+00 -3.864347e+01 1.643910e+00 -4.555445e+01 1.924586e+00 -5.232994e+01 2.309927e+00 -5.895272e+01 2.811893e+00 -6.538793e+01 3.440395e+00 -7.159795e+01 4.268850e+00 -7.757645e+01 5.337786e+00 -8.325306e+01 6.626813e+00 -8.849556e+01 
7.210979e+00 -9.765751e+01 9.000305e+00 -1.025701e+02 1.074976e+01 1.049637e+02 9.488164e+00 1.004893e+02 8.043761e+00 9.536628e+01 6.756787e+00 8.960906e+01 5.740630e+00 8.334944e+01 4.952111e+00 7.671919e+01 4.310821e+00 6.983161e+01 3.781502e+00 6.277442e+01 3.314102e+00 5.566661e+01 2.834529e+00 4.854678e+01 2.349078e+00 4.138150e+01 1.919542e+00 3.411889e+01 1.600892e+00 2.675031e+01 1.385782e+00 1.932171e+01 1.229960e+00 1.187861e+01 1.091866e+00 4.433151e+00 9.660270e-01 -3.034695e+00 8.652342e-01 -1.053661e+01 7.940944e-01 -1.804590e+01 7.332101e-01 -2.549799e+01 6.772016e-01 -3.284221e+01 6.520592e-01 -4.005169e+01 6.902851e-01 -4.711674e+01 8.436622e-01 -5.404382e+01 1.113075e+00 -6.085131e+01 1.538128e+00 -6.753838e+01 2.168025e+00 -7.408576e+01 3.059690e+00 -8.046501e+01 4.226936e+00 -8.659479e+01 5.628940e+00 -9.235477e+01 
7.032783e+00 -9.621584e+01 8.443375e+00 -1.014724e+02 9.938096e+00 1.037347e+02 8.960931e+00 9.897810e+01 7.854147e+00 9.386208e+01 6.834658e+00 8.828524e+01 5.985719e+00 8.229314e+01 5.272964e+00 7.596733e+01 4.631544e+00 6.938680e+01 4.059321e+00 6.256101e+01 3.597226e+00 5.559956e+01 3.166581e+00 4.855314e+01 2.748467e+00 4.142750e+01 2.366275e+00 3.421601e+01 2.051831e+00 2.693310e+01 1.806417e+00 1.961241e+01 1.608835e+00 1.227801e+01 1.438132e+00 4.933910e+00 1.293725e+00 -2.429465e+00 1.185872e+00 -9.812804e+00 1.123181e+00 -1.719263e+01 1.107578e+00 -2.452024e+01 1.147521e+00 -3.175897e+01 1.257532e+00 -3.889314e+01 1.440555e+00 -4.591421e+01 1.705291e+00 -5.282598e+01 2.084836e+00 -5.960402e+01 2.555365e+00 -6.621886e+01 3.126924e+00 -7.265421e+01 3.842534e+00 -7.890365e+01 4.732210e+00 -8.493995e+01 5.798290e+00 -9.071748e+01 
5.903168e+00 -1.004695e+02 7.217430e+00 -1.061834e+02 8.491620e+00 1.068547e+02 7.771850e+00 1.016451e+02 6.890701e+00 9.614544e+01 6.021827e+00 9.022940e+01 5.268406e+00 8.391073e+01 4.613643e+00 7.726046e+01 4.000555e+00 7.039256e+01 3.469572e+00 6.328051e+01 3.061826e+00 5.608499e+01 2.667585e+00 4.885087e+01 2.275168e+00 4.156863e+01 1.908234e+00 3.422050e+01 1.605410e+00 2.681221e+01 1.380719e+00 1.936743e+01 1.215453e+00 1.190448e+01 1.077231e+00 4.424384e+00 9.483497e-01 -3.080442e+00 8.222392e-01 -1.060886e+01 6.917928e-01 -1.813900e+01 5.607212e-01 -2.562828e+01 4.571515e-01 -3.304140e+01 4.154131e-01 -4.036606e+01 4.753497e-01 -4.757949e+01 7.041992e-01 -5.464924e+01 1.013402e+00 -6.160153e+01 1.419580e+00 -6.844724e+01 1.964089e+00 -7.518052e+01 2.686696e+00 -8.178771e+01 3.600380e+00 -8.823381e+01 4.685240e+00 -9.447100e+01 
5.646723e+00 -9.939289e+01 6.613377e+00 -1.054333e+02 7.583816e+00 1.064325e+02 7.148054e+00 1.008960e+02 6.581143e+00 9.526776e+01 5.988441e+00 8.938439e+01 5.447099e+00 8.319281e+01 4.930134e+00 7.671825e+01 4.367070e+00 7.008898e+01 3.782848e+00 6.311063e+01 3.405957e+00 5.601637e+01 3.051563e+00 4.885607e+01 2.696991e+00 4.162793e+01 2.350727e+00 3.433569e+01 2.045676e+00 2.700674e+01 1.806720e+00 1.966276e+01 1.622294e+00 1.230900e+01 1.465655e+00 4.934353e+00 1.326004e+00 -2.472823e+00 1.200592e+00 -9.911190e+00 1.085969e+00 -1.735653e+01 9.985114e-01 -2.475340e+01 9.736558e-01 -3.206324e+01 1.040017e+00 -3.928472e+01 1.199538e+00 -4.641386e+01 1.422037e+00 -5.347672e+01 1.797622e+00 -6.042682e+01 2.219558e+00 -6.722579e+01 2.694729e+00 -7.388867e+01 3.264780e+00 -8.043673e+01 3.951200e+00 -8.687323e+01 4.751300e+00 -9.319117e+01 
4.379923e+00 -1.033257e+02 5.201975e+00 -1.097521e+02 5.929654e+00 1.095710e+02 5.758999e+00 1.036095e+02 5.436820e+00 9.758657e+01 5.046897e+00 9.135501e+01 4.664246e+00 8.483922e+01 4.246430e+00 7.802008e+01 3.699963e+00 7.114123e+01 3.150166e+00 6.382387e+01 2.851688e+00 5.650865e+01 2.532870e+00 4.918504e+01 2.204531e+00 4.181231e+01 1.866950e+00 3.437777e+01 1.568253e+00 2.691002e+01 1.348118e+00 1.943099e+01 1.194258e+00 1.194163e+01 1.063060e+00 4.428619e+00 9.322977e-01 -3.117011e+00 7.870765e-01 -1.069579e+01 6.023735e-01 -1.829371e+01 3.907077e-01 -2.586372e+01 2.157070e-01 -3.337236e+01 1.273815e-01 -4.083384e+01 1.673390e-01 -4.820668e+01 4.995076e-01 -5.538962e+01 8.308088e-01 -6.245908e+01 1.183301e+00 -6.944608e+01 1.608572e+00 -7.636431e+01 2.146911e+00 -8.322425e+01 2.806194e+00 -9.001660e+01 3.564362e+00 -9.672228e+01 
4.063808e+00 -1.024514e+02 4.550878e+00 -1.091727e+02 4.921283e+00 1.097033e+02 5.051414e+00 1.034329e+02 5.028962e+00 9.724204e+01 4.924928e+00 9.097115e+01 4.810661e+00 8.448060e+01 4.620949e+00 7.768874e+01 4.198374e+00 7.104651e+01 3.453065e+00 6.369431e+01 3.229089e+00 5.644718e+01 2.949059e+00 4.920516e+01 2.651086e+00 4.188770e+01 2.323440e+00 3.449339e+01 2.010803e+00 2.709904e+01 1.783519e+00 1.972568e+01 1.626020e+00 1.235510e+01 1.483134e+00 4.954784e+00 1.346609e+00 -2.495186e+00 1.207575e+00 -1.000551e+01 1.038719e+00 -1.756738e+01 8.691200e-01 -2.507862e+01 7.628565e-01 -3.249023e+01 7.757945e-01 -3.982361e+01 9.191671e-01 -4.704165e+01 1.058650e+00 -5.427662e+01 1.463095e+00 -6.138070e+01 1.812397e+00 -6.831501e+01 2.161594e+00 -7.517484e+01 2.567485e+00 -8.201201e+01 3.034997e+00 -8.883686e+01 3.544814e+00 -9.564965e+01 
2.725617e+00 -1.060470e+02 3.036657e+00 -1.130938e+02 3.132803e+00 1.128018e+02 3.535368e+00 1.061501e+02 3.743097e+00 9.958327e+01 3.840547e+00 9.297960e+01 3.928255e+00 8.620789e+01 3.945127e+00 7.902847e+01 3.594371e+00 7.209840e+01 2.761135e+00 6.425732e+01 2.642468e+00 5.690710e+01 2.392189e+00 4.956000e+01 2.138903e+00 4.211799e+01 1.810385e+00 3.457159e+01 1.488895e+00 2.702879e+01 1.281651e+00 1.951581e+01 1.166631e+00 1.200010e+01 1.052040e+00 4.450761e+00 9.275430e-01 -3.136227e+00 7.800674e-01 -1.077399e+01 5.384903e-01 -1.848234e+01 2.172175e-01 -2.617243e+01 -6.575882e-02 -3.380768e+01 -2.409434e-01 -4.147184e+01 -2.988448e-01 -4.908154e+01 2.515303e-01 -5.627413e+01 6.099558e-01 -6.336805e+01 8.592846e-01 -7.043359e+01 1.134337e+00 -7.751617e+01 1.483114e+00 -8.463359e+01 1.892067e+00 -9.177114e+01 2.323310e+00 -9.891294e+01 
2.377827e+00 -1.052722e+02 2.366464e+00 -1.125786e+02 2.073874e+00 1.132765e+02 2.785035e+00 1.063461e+02 3.250859e+00 9.962299e+01 3.589767e+00 9.300831e+01 3.944221e+00 8.628826e+01 4.335801e+00 7.906673e+01 4.538740e+00 7.210540e+01 2.860497e+00 6.397721e+01 3.006849e+00 5.683643e+01 2.814365e+00 4.963040e+01 2.609231e+00 4.224759e+01 2.304246e+00 3.467450e+01 1.938782e+00 2.718815e+01 1.722830e+00 1.980178e+01 1.627711e+00 1.242283e+01 1.491650e+00 4.994820e+00 1.359322e+00 -2.483600e+00 1.219905e+00 -1.005093e+01 9.852295e-01 -1.780013e+01 7.229333e-01 -2.545965e+01 5.184973e-01 -3.299717e+01 4.668493e-01 -4.058416e+01 5.782625e-01 -4.790858e+01 6.113979e-01 -5.529758e+01 1.086032e+00 -6.237185e+01 1.318948e+00 -6.933182e+01 1.537668e+00 -7.637278e+01 1.786064e+00 -8.350201e+01 2.034969e+00 -9.069782e+01 2.247510e+00 -9.795455e+01 
1.021095e+00 -1.085379e+02 8.207974e-01 -1.161177e+02 2.612647e-01 1.162819e+02 1.247464e+00 1.090169e+02 1.907885e+00 1.019427e+02 2.350202e+00 9.497272e+01 2.710169e+00 8.803430e+01 3.308695e+00 8.129721e+01 4.173901e+00 7.212362e+01 1.872746e+00 6.415998e+01 2.292531e+00 5.736395e+01 2.212168e+00 5.003102e+01 2.105324e+00 4.254657e+01 1.777277e+00 3.477539e+01 1.349795e+00 2.714541e+01 1.162302e+00 1.964303e+01 1.151119e+00 1.209068e+01 1.051789e+00 4.477671e+00 9.397157e-01 -3.140477e+00 8.224164e-01 -1.080447e+01 5.066625e-01 -1.866787e+01 3.501897e-02 -2.648064e+01 -3.789218e-01 -3.421807e+01 -6.718410e-01 -4.228413e+01 -1.119943e+00 -5.081245e+01 -3.279003e-02 -5.725567e+01 4.058796e-01 -6.413973e+01 4.201195e-01 -7.121729e+01 5.491606e-01 -7.850933e+01 7.379943e-01 -8.592295e+01 9.143344e-01 -9.340461e+01 1.027611e+00 -1.009436e+02 
6.773757e-01 -1.077983e+02 1.820163e-01 -1.156061e+02 -7.280366e-01 1.169466e+02 5.451005e-01 1.093975e+02 1.428302e+00 1.021158e+02 2.042815e+00 9.512068e+01 2.595918e+00 8.866911e+01 3.728042e+00 8.357355e+01 6.486089e+00 7.200682e+01 1.914998e+00 6.323414e+01 2.669730e+00 5.740897e+01 2.743492e+00 5.021147e+01 2.663757e+00 4.286693e+01 2.470172e+00 3.480802e+01 1.893400e+00 2.719042e+01 1.611273e+00 1.989529e+01 1.688846e+00 1.251683e+01 1.495936e+00 5.022536e+00 1.373426e+00 -2.454359e+00 1.243481e+00 -9.958939e+00 8.796074e-01 -1.803791e+01 5.508769e-01 -2.587289e+01 2.255525e-01 -3.328050e+01 1.790030e-01 -4.131393e+01 -5.696818e-01 -5.035674e+01 -7.974399e-02 -5.659239e+01 5.403184e-01 -6.291080e+01 6.841713e-01 -7.003971e+01 8.510392e-01 -7.740143e+01 9.739385e-01 -8.485984e+01 1.012239e+00 -9.240222e+01 9.303018e-01 -1.000445e+02 
-6.523122e-01 -1.107538e+02 -1.332329e+00 -1.187930e+02 -2.475916e+00 1.197969e+02 -9.095083e-01 1.119772e+02 2.345044e-01 1.044636e+02 1.094151e+00 9.733016e+01 1.827763e+00 9.084542e+01 2.765894e+00 8.548353e+01 4.188669e+00 7.346946e+01 1.320491e+00 6.436820e+01 2.423364e+00 5.816928e+01 2.531836e+00 5.073622e+01 2.457359e+00 4.324282e+01 2.221277e+00 3.493360e+01 1.593661e+00 2.713041e+01 1.305979e+00 1.972734e+01 1.432127e+00 1.219305e+01 1.217843e+00 4.534672e+00 1.079527e+00 -3.070337e+00 9.127644e-01 -1.065868e+01 4.363722e-01 -1.893060e+01 6.546182e-02 -2.688977e+01 -2.589354e-01 -3.416810e+01 -1.318004e-02 -4.225749e+01 -3.760289e-01 -5.420445e+01 -1.390600e+00 -5.720147e+01 -7.478932e-01 -6.377268e+01 -3.176496e-01 -7.157877e+01 -7.995690e-02 -7.936045e+01 -6.543423e-03 -8.710900e+01 -5.847497e-02 -9.489836e+01 -2.548459e-01 -1.027737e+02 
-9.572699e-01 -1.100059e+02 -1.900053e+00 -1.182484e+02 -3.347138e+00 1.205805e+02 -1.521432e+00 1.125193e+02 -1.357270e-01 1.048187e+02 9.449556e-01 9.747706e+01 1.792713e+00 9.047268e+01 2.359888e+00 8.351552e+01 1.606778e+00 7.341500e+01 1.700562e+00 6.493279e+01 2.736668e+00 5.799559e+01 2.794169e+00 5.065391e+01 2.767256e+00 4.316713e+01 2.495515e+00 3.527188e+01 2.097035e+00 2.757137e+01 1.907899e+00 2.008677e+01 1.914334e+00 1.257616e+01 1.767131e+00 5.013646e+00 1.629669e+00 -2.540680e+00 1.473356e+00 -1.014196e+01 1.099764e+00 -1.813658e+01 7.364109e-01 -2.596454e+01 4.456976e-01 -3.346230e+01 3.780385e-01 -4.138025e+01 -1.979867e-01 -4.999765e+01 -7.422545e-01 -5.683040e+01 -2.222203e-01 -6.352482e+01 7.165246e-02 -7.088101e+01 2.278085e-01 -7.845158e+01 2.140843e-01 -8.613837e+01 3.320907e-02 -9.394477e+01 -3.390841e-01 -1.018947e+02 
-2.225197e+00 -1.126746e+02 -3.338864e+00 -1.211170e+02 -5.003862e+00 1.231939e+02 -2.930061e+00 1.148836e+02 -1.325418e+00 1.069132e+02 -3.635967e-02 9.922443e+01 1.033488e+00 9.157526e+01 1.781857e+00 8.343168e+01 2.121551e+00 7.559401e+01 1.196470e+00 6.665267e+01 2.019148e+00 5.887182e+01 2.147880e+00 5.116360e+01 2.126442e+00 4.336863e+01 1.897572e+00 3.540883e+01 1.570108e+00 2.758853e+01 1.408782e+00 1.991519e+01 1.369451e+00 1.224766e+01 1.255147e+00 4.543121e+00 1.118170e+00 -3.179866e+00 9.506882e-01 -1.096858e+01 6.072192e-01 -1.895923e+01 1.682496e-01 -2.687006e+01 -2.235406e-01 -3.468239e+01 -5.107582e-01 -4.277139e+01 -8.247878e-01 -5.104935e+01 -6.387546e-01 -5.793757e+01 -4.700808e-01 -6.516979e+01 -5.350292e-01 -7.265446e+01 -5.791502e-01 -8.037445e+01 -7.067274e-01 -8.824542e+01 -9.866661e-01 -9.624188e+01 -1.470750e+00 -1.043786e+02 
-2.462219e+00 -1.118876e+02 -3.810478e+00 -1.205089e+02 -5.743310e+00 1.239084e+02 -3.479514e+00 1.153382e+02 -1.719457e+00 1.070972e+02 -3.477786e-01 9.909775e+01 6.967429e-01 9.114393e+01 1.374401e+00 8.294462e+01 1.826191e+00 7.502924e+01 1.634059e+00 6.672994e+01 2.153787e+00 5.888212e+01 2.346910e+00 5.117746e+01 2.374129e+00 4.344773e+01 2.238116e+00 3.565013e+01 2.038426e+00 2.792207e+01 1.910092e+00 2.028548e+01 1.839535e+00 1.268171e+01 1.728834e+00 5.065295e+00 1.592111e+00 -2.583248e+00 1.418829e+00 -1.029976e+01 1.137947e+00 -1.814627e+01 7.967073e-01 -2.594537e+01 4.852664e-01 -3.365583e+01 2.443109e-01 -4.143096e+01 3.138736e-02 -4.906267e+01 1.233048e-02 -5.681570e+01 1.344723e-01 -6.431631e+01 4.264866e-03 -7.181700e+01 -1.729624e-01 -7.947185e+01 -4.351523e-01 -8.729824e+01 -8.581699e-01 -9.529705e+01 -1.509154e+00 -1.034859e+02 
-3.642715e+00 -1.142965e+02 -5.143832e+00 -1.230877e+02 -7.269652e+00 1.261930e+02 -4.800627e+00 1.173865e+02 -2.849364e+00 1.088656e+02 -1.307103e+00 1.005380e+02 -1.205610e-01 9.227159e+01 7.179590e-01 8.402219e+01 1.316966e+00 7.612677e+01 1.108385e+00 6.780975e+01 1.518017e+00 5.968615e+01 1.731367e+00 5.169462e+01 1.779326e+00 4.373845e+01 1.678665e+00 3.579128e+01 1.516901e+00 2.791605e+01 1.398922e+00 2.011797e+01 1.318025e+00 1.235823e+01 1.210046e+00 4.593760e+00 1.066774e+00 -3.198798e+00 8.752341e-01 -1.104277e+01 5.830678e-01 -1.895799e+01 2.140500e-01 -2.686070e+01 -1.405311e-01 -3.472730e+01 -4.280184e-01 -4.263791e+01 -6.230018e-01 -5.047017e+01 -4.868844e-01 -5.815412e+01 -4.462398e-01 -6.579186e+01 -6.372482e-01 -7.347620e+01 -9.140988e-01 -8.129171e+01 -1.281727e+00 -8.926750e+01 -1.806898e+00 -9.741299e+01 -2.565643e+00 -1.057470e+02 
-3.794186e+00 -1.134445e+02 -5.509612e+00 -1.223878e+02 -7.899433e+00 1.267609e+02 -5.269654e+00 1.177336e+02 -3.194978e+00 1.090003e+02 -1.568987e+00 1.004882e+02 -3.290390e-01 9.211140e+01 5.595777e-01 8.383527e+01 1.170144e+00 7.576493e+01 1.370842e+00 6.765737e+01 1.741953e+00 5.963832e+01 1.983377e+00 5.171659e+01 2.078510e+00 4.384352e+01 2.047446e+00 3.599964e+01 1.956388e+00 2.821192e+01 1.871402e+00 2.048376e+01 1.795739e+00 1.279249e+01 1.696263e+00 5.104513e+00 1.561319e+00 -2.607275e+00 1.379775e+00 -1.035992e+01 1.128170e+00 -1.815551e+01 8.283526e-01 -2.593703e+01 5.401920e-01 -3.368176e+01 3.002272e-01 -4.143511e+01 1.236743e-01 -4.917644e+01 5.366393e-02 -5.696806e+01 3.482962e-02 -6.473278e+01 -1.637150e-01 -7.248069e+01 -5.035594e-01 -8.030620e+01 -9.755004e-01 -8.827674e+01 -1.629406e+00 -9.643238e+01 -2.539256e+00 -1.048087e+02 
-4.875538e+00 -1.156199e+02 -6.725281e+00 -1.247002e+02 -9.286023e+00 1.287119e+02 -6.477872e+00 1.194955e+02 -4.241368e+00 1.105520e+02 -2.473257e+00 1.018298e+02 -1.108977e+00 9.328484e+01 -1.032321e-01 8.490664e+01 5.662598e-01 7.671754e+01 8.141328e-01 6.847703e+01 1.156009e+00 6.028863e+01 1.400999e+00 5.217484e+01 1.513116e+00 4.412280e+01 1.506023e+00 3.612437e+01 1.435762e+00 2.818813e+01 1.357105e+00 2.031117e+01 1.278603e+00 1.247442e+01 1.175759e+00 4.647965e+00 1.032861e+00 -3.191676e+00 8.371680e-01 -1.105750e+01 5.712959e-01 -1.894917e+01 2.541373e-01 -2.683996e+01 -5.670002e-02 -3.472022e+01 -3.188613e-01 -4.261681e+01 -4.993492e-01 -5.049401e+01 -5.267547e-01 -5.834146e+01 -6.003156e-01 -6.618263e+01 -8.409412e-01 -7.405365e+01 -1.232858e+00 -8.201041e+01 -1.774987e+00 -9.010519e+01 -2.510792e+00 -9.837831e+01 -3.513004e+00 -1.068682e+02 
-4.930954e+00 -1.146812e+02 -6.971113e+00 -1.238861e+02 -9.775877e+00 1.291206e+02 -6.823626e+00 1.197379e+02 -4.476132e+00 1.106491e+02 -2.620941e+00 1.018119e+02 -1.186984e+00 9.318975e+01 -1.197192e-01 8.475789e+01 6.234903e-01 7.650417e+01 1.052451e+00 6.832805e+01 1.433556e+00 6.021669e+01 1.711150e+00 5.218090e+01 1.861353e+00 4.421330e+01 1.900227e+00 3.630525e+01 1.872652e+00 2.845545e+01 1.821874e+00 2.065850e+01 1.759512e+00 1.289920e+01 1.671297e+00 5.152947e+00 1.543528e+00 -2.601546e+00 1.366259e+00 -1.037484e+01 1.132754e+00 -1.816342e+01 8.615854e-01 -2.594860e+01 5.939566e-01 -3.372692e+01 3.574123e-01 -4.152487e+01 1.608857e-01 -4.934619e+01 1.166862e-02 -5.720043e+01 -1.273522e-01 -6.507913e+01 -3.954328e-01 -7.297940e+01 -8.319702e-01 -8.094789e+01 -1.449181e+00 -8.904730e+01 -2.286869e+00 -9.733393e+01 -3.415319e+00 -1.058595e+02 
-5.906401e+00 -1.166465e+02 -8.058012e+00 -1.259553e+02 -1.100875e+01 1.307560e+02 -7.902129e+00 1.212374e+02 -5.419822e+00 1.120021e+02 -3.447010e+00 1.030190e+02 -1.912848e+00 9.426351e+01 -7.653226e-01 8.571246e+01 2.662981e-02 7.733574e+01 4.857138e-01 6.901295e+01 8.764840e-01 6.074949e+01 1.162304e+00 5.256116e+01 1.322722e+00 4.444567e+01 1.373066e+00 3.639652e+01 1.354011e+00 2.840812e+01 1.306083e+00 2.047447e+01 1.243352e+00 1.258252e+01 1.152460e+00 4.710027e+00 1.018597e+00 -3.162272e+00 8.310168e-01 -1.104535e+01 5.833999e-01 -1.893998e+01 2.942206e-01 -2.683898e+01 5.052825e-03 -3.474341e+01 -2.520914e-01 -4.266887e+01 -4.572472e-01 -5.060351e+01 -5.934428e-01 -5.854102e+01 -7.606776e-01 -6.649423e+01 -1.064921e+00 -7.448252e+01 -1.541008e+00 -8.254753e+01 -2.207111e+00 -9.074352e+01 -3.104508e+00 -9.912282e+01 -4.304279e+00 -1.077366e+02 
-5.854630e+00 -1.156059e+02 -8.165635e+00 -1.250120e+02 -1.132434e+01 1.309850e+02 -8.094515e+00 1.213481e+02 -5.517228e+00 1.120173e+02 -3.466228e+00 1.029576e+02 -1.865185e+00 9.414345e+01 -6.503837e-01 8.555624e+01 2.346624e-01 7.716916e+01 7.693092e-01 6.888732e+01 1.202783e+00 6.066704e+01 1.526520e+00 5.254432e+01 1.716759e+00 4.450988e+01 1.794428e+00 3.654890e+01 1.797924e+00 2.864789e+01 1.770000e+00 2.080005e+01 1.726959e+00 1.299387e+01 1.656126e+00 5.207774e+00 1.543183e+00 -2.576215e+00 1.378089e+00 -1.037021e+01 1.155791e+00 -1.817398e+01 8.933713e-01 -2.598106e+01 6.281874e-01 -3.379432e+01 3.853674e-01 -4.163244e+01 1.641227e-01 -4.950716e+01 -6.313816e-02 -5.742270e+01 -2.803696e-01 -6.538153e+01 -6.165636e-01 -7.336609e+01 -1.133594e+00 -8.142129e+01 -1.856583e+00 -8.961269e+01 -2.830218e+00 -9.800050e+01 -4.128325e+00 -1.066418e+02 
-6.715911e+00 -1.173839e+02 -9.110157e+00 -1.268617e+02 -1.238326e+01 1.323122e+02 -9.027625e+00 1.225869e+02 -6.344102e+00 1.131595e+02 -4.199653e+00 1.039963e+02 -2.519689e+00 9.507238e+01 -1.248931e+00 8.637353e+01 -3.258616e-01 7.788218e+01 2.116618e-01 6.945109e+01 6.743657e-01 6.109019e+01 1.008804e+00 5.284223e+01 1.202240e+00 4.468528e+01 1.279971e+00 3.660005e+01 1.280981e+00 2.857211e+01 1.251874e+00 2.059923e+01 1.211386e+00 1.267334e+01 1.141195e+00 4.772656e+00 1.025551e+00 -3.120398e+00 8.539769e-01 -1.102020e+01 6.164149e-01 -1.893213e+01 3.296977e-01 -2.685446e+01 3.750847e-02 -3.478911e+01 -2.301850e-01 -4.274822e+01 -4.636856e-01 -5.072776e+01 -6.720786e-01 -5.872943e+01 -8.953779e-01 -6.675249e+01 -1.260334e+00 -7.479832e+01 -1.809921e+00 -8.292153e+01 -2.567275e+00 -9.118615e+01 -3.580721e+00 -9.964656e+01 -4.927688e+00 -1.083557e+02 
-6.542533e+00 -1.162327e+02 -9.060234e+00 -1.257797e+02 -1.250044e+01 1.323215e+02 -9.048617e+00 1.225230e+02 -6.294621e+00 1.130476e+02 -4.087821e+00 1.038499e+02 -2.348487e+00 9.488968e+01 -1.016021e+00 8.617534e+01 2.897197e-02 7.772521e+01 5.720536e-01 6.932809e+01 1.053937e+00 6.096950e+01 1.428007e+00 5.278844e+01 1.640651e+00 4.471890e+01 1.729668e+00 3.672532e+01 1.731694e+00 2.878347e+01 1.712913e+00 2.090023e+01 1.695134e+00 1.306894e+01 1.651129e+00 5.261061e+00 1.562314e+00 -2.538082e+00 1.417145e+00 -1.034993e+01 1.199464e+00 -1.817899e+01 9.209584e-01 -2.601933e+01 6.393919e-01 -3.387401e+01 3.869809e-01 -4.174269e+01 1.597328e-01 -4.965192e+01 -1.545253e-01 -5.762612e+01 -4.112711e-01 -6.564161e+01 -8.048046e-01 -7.364232e+01 -1.388007e+00 -8.172730e+01 -2.181922e+00 -8.997546e+01 -3.245004e+00 -9.843815e+01 -4.661382e+00 -1.071662e+02 
-7.279024e+00 -1.178456e+02 -9.847282e+00 -1.274332e+02 -1.336356e+01 1.333361e+02 -9.820810e+00 1.234929e+02 -6.994950e+00 1.139673e+02 -4.722637e+00 1.047121e+02 -2.919865e+00 9.567498e+01 -1.544279e+00 8.685091e+01 -4.719701e-01 7.834725e+01 3.223343e-02 6.973621e+01 5.610475e-01 6.126534e+01 9.389237e-01 5.300308e+01 1.147975e+00 4.484059e+01 1.227169e+00 3.673855e+01 1.213221e+00 2.867635e+01 1.188315e+00 2.067731e+01 1.180167e+00 1.273975e+01 1.141997e+00 4.827771e+00 1.054312e+00 -3.070890e+00 9.087596e-01 -1.097868e+01 6.743510e-01 -1.891155e+01 3.594451e-01 -2.686755e+01 4.282828e-02 -3.484795e+01 -2.437657e-01 -4.285170e+01 -4.935234e-01 -5.086492e+01 -7.552414e-01 -5.892612e+01 -9.987632e-01 -6.696300e+01 -1.422344e+00 -7.499059e+01 -2.028520e+00 -8.312461e+01 -2.839167e+00 -9.143364e+01 -3.920970e+00 -9.995632e+01 -5.362745e+00 -1.087363e+02 
-6.966811e+00 -1.165791e+02 -9.618591e+00 -1.262072e+02 -1.325585e+01 1.330774e+02 -9.655648e+00 1.231992e+02 -6.798438e+00 1.136728e+02 -4.493544e+00 1.044554e+02 -2.640179e+00 9.545016e+01 -1.213169e+00 8.660250e+01 2.973573e-02 7.825170e+01 5.492322e-01 6.950946e+01 9.761906e-01 6.103498e+01 1.408879e+00 5.290342e+01 1.629239e+00 4.485459e+01 1.710115e+00 3.684892e+01 1.662645e+00 2.885406e+01 1.635634e+00 2.094503e+01 1.656732e+00 1.311849e+01 1.656310e+00 5.302874e+00 1.602424e+00 -2.491004e+00 1.489469e+00 -1.030172e+01 1.275893e+00 -1.815361e+01 9.372424e-01 -2.602956e+01 6.282462e-01 -3.395208e+01 3.791282e-01 -4.187725e+01 1.749300e-01 -4.980962e+01 -2.305460e-01 -5.789438e+01 -5.483312e-01 -6.583978e+01 -9.903116e-01 -7.375227e+01 -1.593273e+00 -8.183947e+01 -2.403977e+00 -9.013610e+01 -3.506215e+00 -9.865882e+01 -4.989447e+00 -1.074483e+02 
-7.566804e+00 -1.180483e+02 -1.023233e+01 -1.276872e+02 -1.389848e+01 1.337707e+02 -1.025033e+01 1.238852e+02 -7.362313e+00 1.143478e+02 -5.033808e+00 1.051238e+02 -3.152915e+00 9.612819e+01 -1.656637e+00 8.727499e+01 -4.136639e-01 7.877756e+01 4.093135e-02 6.956989e+01 4.880762e-01 6.120036e+01 9.398984e-01 5.305047e+01 1.158586e+00 4.494577e+01 1.224425e+00 3.683639e+01 1.134795e+00 2.871189e+01 1.094428e+00 2.069117e+01 1.142965e+00 1.277900e+01 1.156813e+00 4.865826e+00 1.106537e+00 -3.023689e+00 1.002889e+00 -1.090567e+01 7.734703e-01 -1.884258e+01 3.711573e-01 -2.683579e+01 2.236526e-02 -3.488119e+01 -2.630994e-01 -4.297239e+01 -5.276071e-01 -5.118881e+01 -8.312428e-01 -5.922743e+01 -1.139281e+00 -6.705703e+01 -1.601847e+00 -7.498104e+01 -2.196085e+00 -8.312998e+01 -2.997309e+00 -9.149159e+01 -4.096729e+00 -1.000672e+02 -5.582402e+00 -1.088946e+02 
-7.099425e+00 -1.166605e+02 -9.803006e+00 -1.263135e+02 -1.352094e+01 1.332128e+02 -9.876910e+00 1.233074e+02 -7.010147e+00 1.137633e+02 -4.717159e+00 1.045851e+02 -2.855469e+00 9.585781e+01 -1.229238e+00 8.754212e+01 4.694866e-03 7.879204e+01 1.279364e+00 6.858735e+01 6.462972e-01 6.090927e+01 1.450734e+00 5.294090e+01 1.688122e+00 4.499879e+01 1.768302e+00 3.696750e+01 1.564472e+00 2.883233e+01 1.510380e+00 2.088515e+01 1.585779e+00 1.315050e+01 1.678513e+00 5.321812e+00 1.671658e+00 -2.469494e+00 1.592204e+00 -1.020440e+01 1.421529e+00 -1.804812e+01 8.919025e-01 -2.598230e+01 5.548153e-01 -3.392089e+01 4.886880e-01 -4.180378e+01 1.782495e-01 -5.060075e+01 -1.262557e-01 -5.847070e+01 -1.044036e+00 -6.562465e+01 -1.244228e+00 -7.356336e+01 -1.708737e+00 -8.175888e+01 -2.476245e+00 -9.012228e+01 -3.580127e+00 -9.868583e+01 -5.085623e+00 -1.075051e+02 
-7.554200e+00 -1.180037e+02 -1.023041e+01 -1.276407e+02 -1.391879e+01 1.335895e+02 -1.027986e+01 1.237041e+02 -7.422798e+00 1.141667e+02 -5.141616e+00 1.050027e+02 -3.276229e+00 9.637250e+01 -1.571462e+00 8.829672e+01 -2.221068e-01 7.936301e+01 1.276265e+00 6.838985e+01 -1.307195e-02 6.103547e+01 9.913493e-01 5.301586e+01 1.213542e+00 4.502976e+01 1.275364e+00 3.688820e+01 9.878665e-01 2.860574e+01 9.226840e-01 2.055977e+01 1.018354e+00 1.277620e+01 1.142025e+00 4.846130e+00 1.143397e+00 -3.044159e+00 1.062726e+00 -1.084319e+01 8.926778e-01 -1.877266e+01 2.792458e-01 -2.681158e+01 -7.211887e-02 -3.481722e+01 -5.485317e-02 -4.273139e+01 -3.561254e-01 -5.220498e+01 -5.891529e-01 -5.967783e+01 -1.702146e+00 -6.660379e+01 -1.815544e+00 -7.467356e+01 -2.236035e+00 -8.297579e+01 -2.985572e+00 -9.140329e+01 -4.075299e+00 -1.000056e+02 -5.563007e+00 -1.088454e+02 