# vtk DataFile Version 2.0
Comment goes here
ASCII

DATASET STRUCTURED_POINTS
FIELD FieldData 1
TIME 1 1 double
0.03100000
DIMENSIONS    256   32   1

ORIGIN    0.000   0.000   0.000
SPACING   0.0078125 0.0078125   1.000

POINT_DATA   8192
SCALARS P double
LOOKUP_TABLE default

-1.441726e+00 -1.426325e+00 -1.427576e+00 -1.399359e+00 -1.389680e+00 -1.341556e+00 -1.313963e+00 -1.228024e+00 -1.239302e+00 -1.112371e+00 -1.170182e+00 -1.027312e+00 -1.080900e+00 -9.725544e-01 -1.003179e+00 -8.228750e-01 -9.671083e-01 -6.836399e-01 -8.373830e-01 -6.279515e-01 -6.002783e-01 -5.575552e-01 -4.932833e-01 -3.721477e-01 -4.915961e-01 -2.330325e-01 -4.330213e-01 -2.033076e-01 -2.867177e-01 -2.321936e-01 -1.383281e-01 -2.191217e-01 -8.339440e-02 -1.222103e-01 -9.811400e-02 7.465905e-03 -8.873201e-02 9.196965e-02 8.597493e-04 9.953874e-02 1.372935e-01 1.123029e-01 2.391776e-01 1.896891e-01 2.635915e-01 3.068256e-01 2.731971e-01 3.938822e-01 3.171455e-01 4.062422e-01 3.886764e-01 3.854970e-01 4.385683e-01 3.806228e-01 4.273133e-01 4.085823e-01 3.811170e-01 4.367964e-01 3.501491e-01 4.264887e-01 3.650032e-01 3.832831e-01 3.997194e-01 3.563985e-01 4.126553e-01 3.765752e-01 3.920268e-01 4.263723e-01 3.812173e-01 4.619086e-01 4.112411e-01 4.649831e-01 4.671187e-01 4.683302e-01 5.121322e-01 4.980291e-01 5.271009e-01 5.468649e-01 5.354552e-01 5.871860e-01 5.575702e-01 6.031869e-01 5.918960e-01 6.084321e-01 6.190275e-01 6.183925e-01 6.277938e-01 6.352096e-01 6.257324e-01 6.469190e-01 6.244555e-01 6.461925e-01 6.267856e-01 6.359428e-01 6.251378e-01 6.250558e-01 6.138716e-01 6.155970e-01 5.976658e-01 6.044085e-01 5.805834e-01 5.872878e-01 5.651711e-01 5.660334e-01 5.479075e-01 5.447318e-01 5.263353e-01 5.247168e-01 5.016580e-01 5.035346e-01 4.777362e-01 4.795868e-01 4.554388e-01 4.533889e-01 4.327418e-01 4.273958e-01 4.073981e-01 4.027084e-01 3.793371e-01 3.783924e-01 3.515924e-01 3.519860e-01 3.258180e-01 3.232612e-01 3.010374e-01 2.942733e-01 2.741485e-01 2.673722e-01 2.445575e-01 2.410248e-01 2.147983e-01 2.141240e-01 1.873820e-01 1.848789e-01 1.620103e-01 1.554121e-01 1.356356e-01 1.278285e-01 1.070212e-01 1.020980e-01 7.741233e-02 7.594985e-02 4.973829e-02 4.814983e-02 2.418374e-02 1.915968e-02 -1.066015e-03 -9.048538e-03 -2.835016e-02 -3.558724e-02 -5.785565e-02 -6.119068e-02 -8.690210e-02 -8.848261e-02 -1.137318e-01 -1.178415e-01 -1.391659e-01 -1.475478e-01 -1.663307e-01 -1.750819e-01 -1.960965e-01 -2.017680e-01 -2.262211e-01 -2.286187e-01 -2.540455e-01 -2.577312e-01 -2.795910e-01 -2.873300e-01 -3.057024e-01 -3.151322e-01 -3.339429e-01 -3.409618e-01 -3.634356e-01 -3.666601e-01 -3.911627e-01 -3.939639e-01 -4.166211e-01 -4.225747e-01 -4.413556e-01 -4.505637e-01 -4.680082e-01 -4.767767e-01 -4.968904e-01 -5.017534e-01 -5.254530e-01 -5.282798e-01 -5.516602e-01 -5.568102e-01 -5.762993e-01 -5.857204e-01 -6.025314e-01 -6.123347e-01 -6.313223e-01 -6.380306e-01 -6.604625e-01 -6.638381e-01 -6.871626e-01 -6.920152e-01 -7.116264e-01 -7.207135e-01 -7.368190e-01 -7.475262e-01 -7.645735e-01 -7.726039e-01 -7.938208e-01 -7.980269e-01 -8.213552e-01 -8.258784e-01 -8.469001e-01 -8.553698e-01 -8.723683e-01 -8.840846e-01 -9.004517e-01 -9.111936e-01 -9.308801e-01 -9.378706e-01 -9.613119e-01 -9.667393e-01 -9.900647e-01 -9.978397e-01 -1.017558e+00 -1.029392e+00 -1.046014e+00 -1.059037e+00 -1.076086e+00 -1.086369e+00 -1.106796e+00 -1.113026e+00 -1.135388e+00 -1.140634e+00 -1.160862e+00 -1.169012e+00 -1.184582e+00 -1.195423e+00 -1.209359e+00 -1.218638e+00 -1.235167e+00 -1.240433e+00 -1.259635e+00 -1.264002e+00 -1.282677e+00 -1.289994e+00 -1.305841e+00 -1.317257e+00 -1.331522e+00 -1.342677e+00 -1.359493e+00 -1.365999e+00 -1.386999e+00 -1.391172e+00 -1.414801e+00 -1.419004e+00 -1.433096e+00 -1.431349e+00 -1.441874e+00 -1.434515e+00 
-1.774594e+00 -1.853499e+00 -1.767082e+00 -1.839620e+00 -1.735878e+00 -1.795943e+00 -1.654453e+00 -1.692566e+00 -1.574879e+00 -1.586713e+00 -1.485161e+00 -1.505279e+00 -1.319287e+00 -1.460409e+00 -1.124518e+00 -1.112985e+00 -8.888374e-01 -7.769373e-01 -5.527676e-01 -5.328759e-01 -1.580788e-01 -2.406383e-01 -3.579602e-02 4.772581e-02 -5.320116e-02 2.262455e-01 -2.231527e-02 2.632610e-01 1.133541e-01 2.247484e-01 2.549598e-01 2.261661e-01 2.964115e-01 3.206642e-01 2.621350e-01 4.500836e-01 2.554073e-01 5.310819e-01 3.395005e-01 5.228229e-01 4.757761e-01 5.206735e-01 5.742776e-01 5.911888e-01 5.844015e-01 7.059508e-01 5.812804e-01 7.882766e-01 6.179831e-01 7.879666e-01 6.871374e-01 7.545256e-01 7.341151e-01 7.395947e-01 7.140654e-01 7.629382e-01 6.571008e-01 7.871025e-01 6.167232e-01 7.689499e-01 6.279240e-01 7.130968e-01 6.601749e-01 6.756927e-01 6.681324e-01 6.887134e-01 6.361625e-01 7.344893e-01 6.155376e-01 7.633366e-01 6.402692e-01 7.544658e-01 6.925961e-01 7.468184e-01 7.322020e-01 7.687322e-01 7.373738e-01 8.115787e-01 7.369400e-01 8.447342e-01 7.525051e-01 8.507414e-01 7.819999e-01 8.462195e-01 8.032867e-01 8.478035e-01 8.043058e-01 8.576703e-01 7.944418e-01 8.618266e-01 7.865353e-01 8.527495e-01 7.833488e-01 8.334769e-01 7.760695e-01 8.146334e-01 7.569540e-01 7.973832e-01 7.346621e-01 7.789896e-01 7.110334e-01 7.538307e-01 6.899536e-01 7.245437e-01 6.669545e-01 6.955135e-01 6.391137e-01 6.682194e-01 6.078823e-01 6.397008e-01 5.779577e-01 6.082154e-01 5.500660e-01 5.743253e-01 5.218369e-01 5.407349e-01 4.906286e-01 5.086693e-01 4.561817e-01 4.771634e-01 4.222044e-01 4.432972e-01 3.906528e-01 4.069236e-01 3.603288e-01 3.700089e-01 3.276389e-01 3.358609e-01 2.915591e-01 3.017048e-01 2.554025e-01 2.676640e-01 2.220468e-01 2.305655e-01 1.911239e-01 1.934254e-01 1.590546e-01 1.583272e-01 1.243098e-01 1.253720e-01 8.833248e-02 9.193977e-02 5.475502e-02 5.668421e-02 2.362338e-02 2.010842e-02 -7.118131e-03 -1.565900e-02 -4.020000e-02 -4.959207e-02 -7.601629e-02 -8.235645e-02 -1.113063e-01 -1.170590e-01 -1.439266e-01 -1.540131e-01 -1.749141e-01 -1.916460e-01 -2.078204e-01 -2.264729e-01 -2.440324e-01 -2.609829e-01 -2.805646e-01 -2.949147e-01 -3.143863e-01 -3.318436e-01 -3.454940e-01 -3.691344e-01 -3.772668e-01 -4.044944e-01 -4.115845e-01 -4.376017e-01 -4.474576e-01 -4.705301e-01 -4.811432e-01 -5.052626e-01 -5.122175e-01 -5.414557e-01 -5.424264e-01 -5.770453e-01 -5.748525e-01 -6.106983e-01 -6.100294e-01 -6.428354e-01 -6.448892e-01 -6.767622e-01 -6.769169e-01 -7.128903e-01 -7.071388e-01 -7.497503e-01 -7.391113e-01 -7.837144e-01 -7.743458e-01 -8.172796e-01 -8.099707e-01 -8.501613e-01 -8.427173e-01 -8.862060e-01 -8.727539e-01 -9.226413e-01 -9.036150e-01 -9.569778e-01 -9.374237e-01 -9.892639e-01 -9.729642e-01 -1.021811e+00 -1.006356e+00 -1.057041e+00 -1.037509e+00 -1.094236e+00 -1.068522e+00 -1.130683e+00 -1.102560e+00 -1.165219e+00 -1.139313e+00 -1.199044e+00 -1.175963e+00 -1.235306e+00 -1.210548e+00 -1.274065e+00 -1.243594e+00 -1.313360e+00 -1.277751e+00 -1.350496e+00 -1.313820e+00 -1.385044e+00 -1.350801e+00 -1.418910e+00 -1.385496e+00 -1.454056e+00 -1.416745e+00 -1.490353e+00 -1.446061e+00 -1.524553e+00 -1.476801e+00 -1.555109e+00 -1.508879e+00 -1.584006e+00 -1.539370e+00 -1.614984e+00 -1.568126e+00 -1.648747e+00 -1.596890e+00 -1.684087e+00 -1.628487e+00 -1.717318e+00 -1.662742e+00 -1.748067e+00 -1.696459e+00 -1.781394e+00 -1.731152e+00 -1.819011e+00 -1.755037e+00 -1.839117e+00 -1.768960e+00 -1.851090e+00 
-1.449495e+00 -1.437127e+00 -1.442094e+00 -1.419230e+00 -1.414778e+00 -1.373609e+00 -1.314184e+00 -1.229235e+00 -1.236663e+00 -1.097626e+00 -1.184581e+00 -1.014261e+00 -1.082400e+00 -1.051902e+00 -9.943915e-01 -8.096578e-01 -1.018774e+00 -6.468619e-01 -8.958457e-01 -6.501155e-01 -5.576630e-01 -6.237171e-01 -4.528649e-01 -3.502189e-01 -5.221661e-01 -1.883888e-01 -4.844095e-01 -1.764512e-01 -2.871037e-01 -2.523836e-01 -9.591614e-02 -2.666134e-01 -5.225633e-02 -1.387274e-01 -1.090951e-01 2.848571e-02 -1.321810e-01 1.268562e-01 -2.311423e-02 9.792687e-02 1.542009e-01 7.822991e-02 2.748023e-01 1.687831e-01 2.712086e-01 3.215321e-01 2.548018e-01 4.285190e-01 3.018784e-01 4.226091e-01 3.993123e-01 3.773043e-01 4.679558e-01 3.633542e-01 4.448950e-01 4.086934e-01 3.737514e-01 4.555700e-01 3.267654e-01 4.430928e-01 3.551700e-01 3.748730e-01 4.101407e-01 3.343259e-01 4.300738e-01 3.608668e-01 3.874371e-01 4.337418e-01 3.609353e-01 4.778882e-01 3.985145e-01 4.652729e-01 4.726871e-01 4.553599e-01 5.270286e-01 4.885142e-01 5.303034e-01 5.509352e-01 5.285805e-01 5.991918e-01 5.515001e-01 6.087720e-01 5.955920e-01 6.063129e-01 6.284367e-01 6.150574e-01 6.332662e-01 6.377029e-01 6.252812e-01 6.529748e-01 6.225744e-01 6.511359e-01 6.287166e-01 6.361125e-01 6.304571e-01 6.246351e-01 6.150046e-01 6.158419e-01 5.984595e-01 6.073906e-01 5.798809e-01 5.891532e-01 5.661310e-01 5.662214e-01 5.501290e-01 5.441474e-01 5.278184e-01 5.252298e-01 5.010446e-01 5.046883e-01 4.768439e-01 4.805752e-01 4.556303e-01 4.534411e-01 4.341380e-01 4.269568e-01 4.089913e-01 4.025895e-01 3.792341e-01 3.793688e-01 3.505331e-01 3.529808e-01 3.252627e-01 3.235793e-01 3.019820e-01 2.931064e-01 2.755934e-01 2.676678e-01 2.445938e-01 2.406947e-01 2.135902e-01 2.154188e-01 1.864496e-01 1.847962e-01 1.625643e-01 1.546285e-01 1.368209e-01 1.269670e-01 1.074581e-01 1.022412e-01 7.620150e-02 7.656151e-02 4.859817e-02 4.859805e-02 2.404145e-02 1.891528e-02 2.236314e-05 -9.654808e-03 -2.701553e-02 -3.598577e-02 -5.801988e-02 -6.041290e-02 -8.808684e-02 -8.762432e-02 -1.144624e-01 -1.174947e-01 -1.384290e-01 -1.487289e-01 -1.649222e-01 -1.749271e-01 -1.959800e-01 -2.022984e-01 -2.273894e-01 -2.273361e-01 -2.551201e-01 -2.576873e-01 -2.792269e-01 -2.880809e-01 -3.045731e-01 -3.160551e-01 -3.333687e-01 -3.410959e-01 -3.645711e-01 -3.660563e-01 -3.923829e-01 -3.934636e-01 -4.169596e-01 -4.227494e-01 -4.403262e-01 -4.512125e-01 -4.666792e-01 -4.773218e-01 -4.969746e-01 -5.010404e-01 -5.267128e-01 -5.274625e-01 -5.524582e-01 -5.564708e-01 -5.756501e-01 -5.869453e-01 -6.011603e-01 -6.122378e-01 -6.312343e-01 -6.386543e-01 -6.617844e-01 -6.625600e-01 -6.883504e-01 -6.921052e-01 -7.112782e-01 -7.216937e-01 -7.356355e-01 -7.484047e-01 -7.639813e-01 -7.724212e-01 -7.947649e-01 -7.967497e-01 -8.220078e-01 -8.247205e-01 -8.464669e-01 -8.552549e-01 -8.706404e-01 -8.846297e-01 -8.990584e-01 -9.113778e-01 -9.309552e-01 -9.368383e-01 -9.623538e-01 -9.657736e-01 -9.908477e-01 -9.977641e-01 -1.017180e+00 -1.030444e+00 -1.045279e+00 -1.060239e+00 -1.075804e+00 -1.086728e+00 -1.107869e+00 -1.112564e+00 -1.136951e+00 -1.140252e+00 -1.161740e+00 -1.169996e+00 -1.184057e+00 -1.197024e+00 -1.208846e+00 -1.219349e+00 -1.235836e+00 -1.239550e+00 -1.260352e+00 -1.262793e+00 -1.282618e+00 -1.289356e+00 -1.304588e+00 -1.318184e+00 -1.330380e+00 -1.343729e+00 -1.359721e+00 -1.365076e+00 -1.386854e+00 -1.389899e+00 -1.419720e+00 -1.427045e+00 -1.438092e+00 -1.436151e+00 -1.446606e+00 -1.440621e+00 
-1.788971e+00 -1.872301e+00 -1.795803e+00 -1.878841e+00 -1.798976e+00 -1.887826e+00 -1.771974e+00 -1.803480e+00 -1.717644e+00 -1.761940e+00 -1.701573e+00 -1.746801e+00 -1.631972e+00 -1.735600e+00 -1.131652e+00 -1.084744e+00 -6.365337e-01 -4.250362e-01 -7.853648e-02 2.060004e-01 5.786985e-01 6.092888e-01 8.344078e-01 9.203204e-01 7.530717e-01 9.474576e-01 7.589606e-01 9.638419e-01 8.472274e-01 9.337517e-01 9.015267e-01 9.151032e-01 8.791160e-01 9.617191e-01 8.631920e-01 1.013217e+00 8.602465e-01 1.050444e+00 9.114889e-01 1.053019e+00 9.813835e-01 1.041783e+00 1.018506e+00 1.075392e+00 1.018804e+00 1.128431e+00 1.005395e+00 1.155077e+00 1.018123e+00 1.144168e+00 1.047726e+00 1.112361e+00 1.056167e+00 1.094063e+00 1.028483e+00 1.096578e+00 9.840035e-01 1.091496e+00 9.520791e-01 1.063448e+00 9.491007e-01 1.017027e+00 9.488162e-01 9.924723e-01 9.370321e-01 9.749580e-01 9.033220e-01 9.917158e-01 8.814569e-01 9.894419e-01 8.854376e-01 9.727561e-01 9.025571e-01 9.569201e-01 9.103840e-01 9.583561e-01 8.999294e-01 9.693347e-01 8.890348e-01 9.744826e-01 8.880807e-01 9.648708e-01 8.942644e-01 9.494984e-01 8.937753e-01 9.385864e-01 8.784817e-01 9.324258e-01 8.590376e-01 9.206729e-01 8.434724e-01 8.997983e-01 8.316919e-01 8.719159e-01 8.138405e-01 8.493943e-01 7.843781e-01 8.231032e-01 7.534801e-01 8.000498e-01 7.263377e-01 7.673420e-01 7.046159e-01 7.338849e-01 6.795391e-01 7.027222e-01 6.473106e-01 6.762909e-01 6.111130e-01 6.468353e-01 5.805508e-01 6.133441e-01 5.546228e-01 5.768412e-01 5.279601e-01 5.424285e-01 4.962445e-01 5.113784e-01 4.576668e-01 4.821064e-01 4.220983e-01 4.476829e-01 3.921670e-01 4.092203e-01 3.651411e-01 3.692245e-01 3.322654e-01 3.379548e-01 2.921117e-01 3.006548e-01 2.518328e-01 2.695069e-01 2.183062e-01 2.293672e-01 1.908724e-01 1.903732e-01 1.606982e-01 1.551077e-01 1.247040e-01 1.249274e-01 8.507775e-02 9.312976e-02 5.179080e-02 5.773556e-02 2.332346e-02 1.944624e-02 -4.211924e-03 -1.684814e-02 -3.666406e-02 -4.965973e-02 -7.587363e-02 -7.918903e-02 -1.129533e-01 -1.137545e-01 -1.439527e-01 -1.522298e-01 -1.712874e-01 -1.931542e-01 -2.036918e-01 -2.253229e-01 -2.437754e-01 -2.629889e-01 -2.843647e-01 -2.935055e-01 -3.188038e-01 -3.330228e-01 -3.466561e-01 -3.723708e-01 -3.761682e-01 -4.082077e-01 -4.112082e-01 -4.392472e-01 -4.508707e-01 -4.699349e-01 -4.848216e-01 -5.046023e-01 -5.137908e-01 -5.424809e-01 -5.405593e-01 -5.791704e-01 -5.721889e-01 -6.123732e-01 -6.105563e-01 -6.412991e-01 -6.479938e-01 -6.749849e-01 -6.790309e-01 -7.124601e-01 -7.060585e-01 -7.532619e-01 -7.372601e-01 -7.854525e-01 -7.765058e-01 -8.229474e-01 -8.165123e-01 -8.522956e-01 -8.510098e-01 -8.907283e-01 -8.788474e-01 -9.296484e-01 -9.072471e-01 -9.652953e-01 -9.412409e-01 -9.965184e-01 -9.801925e-01 -1.026116e+00 -1.014583e+00 -1.060376e+00 -1.044526e+00 -1.099217e+00 -1.071751e+00 -1.137837e+00 -1.104549e+00 -1.171858e+00 -1.143103e+00 -1.201535e+00 -1.181917e+00 -1.235886e+00 -1.215508e+00 -1.275302e+00 -1.244187e+00 -1.316649e+00 -1.275869e+00 -1.352994e+00 -1.312244e+00 -1.384005e+00 -1.351876e+00 -1.415512e+00 -1.386796e+00 -1.451373e+00 -1.416325e+00 -1.491309e+00 -1.443764e+00 -1.527420e+00 -1.476003e+00 -1.557612e+00 -1.511626e+00 -1.584544e+00 -1.543365e+00 -1.614967e+00 -1.571583e+00 -1.649559e+00 -1.597549e+00 -1.689007e+00 -1.628995e+00 -1.723468e+00 -1.666326e+00 -1.750527e+00 -1.699225e+00 -1.781276e+00 -1.746458e+00 -1.837852e+00 -1.765489e+00 -1.847612e+00 -1.777650e+00 -1.861311e+00 
-1.469013e+00 -1.465491e+00 -1.483446e+00 -1.480683e+00 -1.515537e+00 -1.530169e+00 -1.605873e+00 -1.556566e+00 -1.606480e+00 -1.600555e+00 -1.603574e+00 -1.560541e+00 -1.557595e+00 -1.226447e+00 -9.518475e-01 -5.468506e-01 -2.341747e-01 2.862448e-01 4.375750e-01 1.178974e+00 1.064921e+00 1.757632e+00 1.686411e+00 1.867502e+00 1.840530e+00 1.730116e+00 1.899561e+00 1.742911e+00 1.808856e+00 1.814863e+00 1.668294e+00 1.835563e+00 1.596401e+00 1.746301e+00 1.666138e+00 1.618825e+00 1.726194e+00 1.562713e+00 1.681141e+00 1.624703e+00 1.570171e+00 1.663644e+00 1.485866e+00 1.614000e+00 1.506496e+00 1.504017e+00 1.526742e+00 1.415320e+00 1.495066e+00 1.414766e+00 1.412303e+00 1.435627e+00 1.334284e+00 1.431561e+00 1.319868e+00 1.371389e+00 1.345020e+00 1.297055e+00 1.357471e+00 1.266272e+00 1.307758e+00 1.285707e+00 1.227623e+00 1.301660e+00 1.176880e+00 1.238750e+00 1.182179e+00 1.164920e+00 1.186365e+00 1.105437e+00 1.143250e+00 1.103309e+00 1.071657e+00 1.100024e+00 1.014073e+00 1.063663e+00 9.993132e-01 1.001772e+00 9.899105e-01 9.502216e-01 9.607858e-01 9.285814e-01 9.121901e-01 9.130115e-01 8.675547e-01 8.870283e-01 8.374095e-01 8.473459e-01 8.166362e-01 8.077797e-01 7.929444e-01 7.758606e-01 7.610061e-01 7.499697e-01 7.238990e-01 7.251407e-01 6.911048e-01 6.901108e-01 6.557493e-01 6.579900e-01 6.293399e-01 6.245692e-01 6.045641e-01 5.957252e-01 5.772753e-01 5.694445e-01 5.467661e-01 5.459419e-01 5.158915e-01 5.198519e-01 4.901300e-01 4.916232e-01 4.678164e-01 4.624234e-01 4.445329e-01 4.355281e-01 4.174589e-01 4.112179e-01 3.856626e-01 3.877408e-01 3.567869e-01 3.600668e-01 3.323066e-01 3.293479e-01 3.093162e-01 2.977252e-01 2.807081e-01 2.717397e-01 2.460007e-01 2.395413e-01 2.110042e-01 2.134591e-01 1.820851e-01 1.817266e-01 1.590513e-01 1.509079e-01 1.346089e-01 1.232464e-01 1.056488e-01 9.994679e-02 7.368266e-02 7.573739e-02 4.673743e-02 4.861164e-02 2.393842e-02 1.906562e-02 1.894985e-03 -8.826540e-03 -2.432286e-02 -3.382527e-02 -5.596825e-02 -5.653665e-02 -8.580074e-02 -8.355804e-02 -1.108356e-01 -1.139349e-01 -1.335869e-01 -1.462107e-01 -1.614520e-01 -1.727947e-01 -1.960365e-01 -2.051151e-01 -2.311027e-01 -2.305643e-01 -2.607525e-01 -2.616881e-01 -2.841835e-01 -2.927503e-01 -3.080812e-01 -3.209931e-01 -3.362521e-01 -3.451430e-01 -3.682670e-01 -3.685854e-01 -3.959794e-01 -3.951286e-01 -4.194866e-01 -4.244436e-01 -4.411261e-01 -4.530249e-01 -4.667399e-01 -4.788373e-01 -4.978647e-01 -5.014235e-01 -5.285130e-01 -5.278496e-01 -5.543580e-01 -5.575793e-01 -5.774425e-01 -5.904633e-01 -6.044836e-01 -6.181513e-01 -6.387371e-01 -6.512436e-01 -6.738046e-01 -6.761078e-01 -7.049480e-01 -7.062698e-01 -7.297486e-01 -7.374702e-01 -7.530076e-01 -7.670794e-01 -7.798766e-01 -7.928341e-01 -8.113058e-01 -8.154999e-01 -8.406972e-01 -8.407425e-01 -8.662120e-01 -8.701157e-01 -8.878466e-01 -9.008735e-01 -9.126656e-01 -9.276724e-01 -9.423829e-01 -9.494818e-01 -9.735187e-01 -9.739392e-01 -1.000102e+00 -1.002842e+00 -1.021692e+00 -1.033972e+00 -1.045478e+00 -1.060845e+00 -1.073856e+00 -1.083328e+00 -1.105209e+00 -1.107252e+00 -1.132935e+00 -1.135744e+00 -1.157283e+00 -1.167654e+00 -1.181447e+00 -1.196940e+00 -1.209538e+00 -1.222502e+00 -1.239770e+00 -1.245368e+00 -1.267349e+00 -1.269507e+00 -1.291955e+00 -1.296415e+00 -1.313681e+00 -1.327805e+00 -1.339181e+00 -1.355716e+00 -1.369508e+00 -1.377760e+00 -1.397504e+00 -1.400798e+00 -1.435493e+00 -1.440272e+00 -1.447404e+00 -1.445777e+00 -1.457304e+00 -1.455382e+00 
-1.808984e+00 -1.898177e+00 -1.834017e+00 -1.927247e+00 -1.873136e+00 -1.978652e+00 -1.959830e+00 -2.041249e+00 -1.994675e+00 -2.105231e+00 -2.025803e+00 -2.122639e+00 -2.084076e+00 -2.024363e+00 -1.253640e+00 -9.217019e-01 9.373877e-03 9.272051e-02 1.011922e+00 1.396822e+00 1.907079e+00 2.519633e+00 2.178942e+00 2.433041e+00 2.318534e+00 2.308395e+00 2.352516e+00 2.291873e+00 2.245970e+00 2.334926e+00 2.113665e+00 2.340516e+00 2.049968e+00 2.245651e+00 2.085719e+00 2.125317e+00 2.118259e+00 2.061894e+00 2.059685e+00 2.089835e+00 1.948756e+00 2.108057e+00 1.865786e+00 2.048034e+00 1.863549e+00 1.937403e+00 1.866945e+00 1.848767e+00 1.824916e+00 1.830347e+00 1.739431e+00 1.834505e+00 1.662605e+00 1.816677e+00 1.639374e+00 1.751248e+00 1.650035e+00 1.677329e+00 1.648631e+00 1.640206e+00 1.593865e+00 1.644439e+00 1.515723e+00 1.639524e+00 1.459794e+00 1.574823e+00 1.450331e+00 1.494048e+00 1.439725e+00 1.430790e+00 1.389369e+00 1.412521e+00 1.314825e+00 1.394455e+00 1.252782e+00 1.348118e+00 1.226210e+00 1.280481e+00 1.204352e+00 1.221448e+00 1.165785e+00 1.187554e+00 1.110806e+00 1.159851e+00 1.059622e+00 1.123325e+00 1.022383e+00 1.075205e+00 9.929325e-01 1.027903e+00 9.603929e-01 9.879352e-01 9.204291e-01 9.538076e-01 8.771403e-01 9.178888e-01 8.377091e-01 8.737442e-01 7.967134e-01 8.321029e-01 7.627470e-01 7.928253e-01 7.294278e-01 7.570411e-01 6.951286e-01 7.229085e-01 6.599205e-01 6.896540e-01 6.253360e-01 6.553218e-01 5.931732e-01 6.200945e-01 5.626696e-01 5.847427e-01 5.316391e-01 5.505799e-01 4.986404e-01 5.176661e-01 4.637311e-01 4.848406e-01 4.300813e-01 4.500342e-01 3.984895e-01 4.135758e-01 3.671251e-01 3.766687e-01 3.323736e-01 3.404876e-01 2.931313e-01 3.001048e-01 2.535151e-01 2.638876e-01 2.184071e-01 2.269697e-01 1.869934e-01 1.904442e-01 1.554903e-01 1.556687e-01 1.218704e-01 1.230224e-01 8.694102e-02 9.029145e-02 5.416884e-02 5.609689e-02 2.365697e-02 2.070906e-02 -6.473838e-03 -1.396541e-02 -3.876406e-02 -4.711761e-02 -7.353396e-02 -7.946106e-02 -1.076309e-01 -1.137823e-01 -1.394923e-01 -1.500478e-01 -1.706716e-01 -1.872662e-01 -2.050189e-01 -2.237541e-01 -2.441744e-01 -2.641643e-01 -2.838212e-01 -3.000694e-01 -3.192851e-01 -3.366807e-01 -3.509075e-01 -3.732941e-01 -3.821522e-01 -4.084222e-01 -4.153986e-01 -4.414612e-01 -4.503272e-01 -4.739184e-01 -4.835272e-01 -5.077826e-01 -5.144378e-01 -5.430676e-01 -5.444525e-01 -5.781494e-01 -5.764142e-01 -6.117953e-01 -6.109766e-01 -6.441788e-01 -6.455438e-01 -6.781916e-01 -6.780005e-01 -7.141780e-01 -7.094557e-01 -7.518319e-01 -7.434464e-01 -7.891361e-01 -7.824678e-01 -8.301178e-01 -8.222607e-01 -8.658351e-01 -8.588070e-01 -9.019431e-01 -8.914165e-01 -9.387215e-01 -9.224442e-01 -9.749355e-01 -9.549306e-01 -1.009105e+00 -9.896322e-01 -1.041348e+00 -1.024065e+00 -1.074448e+00 -1.056380e+00 -1.109705e+00 -1.086521e+00 -1.146089e+00 -1.117735e+00 -1.180518e+00 -1.151438e+00 -1.212364e+00 -1.186227e+00 -1.244971e+00 -1.218780e+00 -1.279909e+00 -1.248760e+00 -1.316075e+00 -1.279520e+00 -1.350231e+00 -1.312796e+00 -1.382273e+00 -1.347533e+00 -1.415132e+00 -1.380734e+00 -1.450496e+00 -1.412436e+00 -1.487428e+00 -1.444360e+00 -1.523305e+00 -1.477933e+00 -1.557434e+00 -1.512247e+00 -1.590105e+00 -1.545569e+00 -1.622876e+00 -1.577242e+00 -1.657123e+00 -1.607464e+00 -1.693498e+00 -1.639261e+00 -1.728549e+00 -1.673373e+00 -1.761189e+00 -1.707679e+00 -1.793890e+00 -1.743255e+00 -1.828979e+00 -1.766250e+00 -1.852249e+00 -1.787366e+00 -1.874744e+00 
-1.486746e+00 -1.490702e+00 -1.511513e+00 -1.517311e+00 -1.546852e+00 -1.556388e+00 -1.597838e+00 -1.596980e+00 -1.625394e+00 -1.639612e+00 -1.644128e+00 -1.674082e+00 -1.661743e+00 -1.765161e+00 -8.768012e-01 -7.245555e-01 -4.610592e-02 2.090120e-01 8.459603e-01 1.103525e+00 1.952847e+00 1.903995e+00 1.892630e+00 1.907103e+00 1.914667e+00 1.857314e+00 1.914749e+00 1.842047e+00 1.853339e+00 1.850540e+00 1.775332e+00 1.839709e+00 1.726773e+00 1.781210e+00 1.727408e+00 1.709546e+00 1.730620e+00 1.667138e+00 1.692030e+00 1.665101e+00 1.626646e+00 1.660270e+00 1.572779e+00 1.618829e+00 1.553118e+00 1.551774e+00 1.539233e+00 1.494418e+00 1.505083e+00 1.468962e+00 1.450567e+00 1.457616e+00 1.400311e+00 1.436947e+00 1.375021e+00 1.394752e+00 1.367731e+00 1.348162e+00 1.355107e+00 1.318651e+00 1.317724e+00 1.307917e+00 1.267238e+00 1.292398e+00 1.224852e+00 1.245159e+00 1.202032e+00 1.192449e+00 1.181992e+00 1.148270e+00 1.144447e+00 1.123958e+00 1.094616e+00 1.101245e+00 1.049901e+00 1.065845e+00 1.020778e+00 1.020056e+00 9.956701e-01 9.777298e-01 9.635886e-01 9.467798e-01 9.239148e-01 9.200493e-01 8.852365e-01 8.900067e-01 8.527960e-01 8.548584e-01 8.249503e-01 8.194694e-01 7.967074e-01 7.873904e-01 7.652999e-01 7.581781e-01 7.314159e-01 7.282507e-01 6.965294e-01 6.918909e-01 6.616484e-01 6.594221e-01 6.324677e-01 6.285284e-01 6.050946e-01 5.998015e-01 5.772509e-01 5.726437e-01 5.485114e-01 5.464906e-01 5.200243e-01 5.197220e-01 4.934184e-01 4.921874e-01 4.682170e-01 4.644681e-01 4.427382e-01 4.376310e-01 4.157614e-01 4.117881e-01 3.873523e-01 3.860546e-01 3.597969e-01 3.588796e-01 3.337690e-01 3.304123e-01 3.078978e-01 3.014786e-01 2.793265e-01 2.725777e-01 2.462334e-01 2.388857e-01 2.126037e-01 2.099300e-01 1.837867e-01 1.809717e-01 1.578829e-01 1.525132e-01 1.319152e-01 1.254171e-01 1.044201e-01 9.984105e-02 7.609746e-02 7.416004e-02 4.935887e-02 4.742061e-02 2.426799e-02 1.986658e-02 -5.901133e-04 -7.160074e-03 -2.702964e-02 -3.309417e-02 -5.525755e-02 -5.849155e-02 -8.303185e-02 -8.530386e-02 -1.092092e-01 -1.135978e-01 -1.349505e-01 -1.427025e-01 -1.632312e-01 -1.718062e-01 -1.962132e-01 -2.055115e-01 -2.298883e-01 -2.342317e-01 -2.589489e-01 -2.629744e-01 -2.849779e-01 -2.915088e-01 -3.107595e-01 -3.188610e-01 -3.379970e-01 -3.446939e-01 -3.663475e-01 -3.701854e-01 -3.933893e-01 -3.967071e-01 -4.187505e-01 -4.242256e-01 -4.435324e-01 -4.515408e-01 -4.697703e-01 -4.778089e-01 -4.979079e-01 -5.032409e-01 -5.260173e-01 -5.298847e-01 -5.525973e-01 -5.580651e-01 -5.785303e-01 -5.874934e-01 -6.066499e-01 -6.171456e-01 -6.395914e-01 -6.512418e-01 -6.734866e-01 -6.798880e-01 -7.032456e-01 -7.084252e-01 -7.298793e-01 -7.371633e-01 -7.555804e-01 -7.651912e-01 -7.824416e-01 -7.916846e-01 -8.107570e-01 -8.170837e-01 -8.385441e-01 -8.432654e-01 -8.647606e-01 -8.709268e-01 -8.897025e-01 -8.990307e-01 -9.156051e-01 -9.257246e-01 -9.432502e-01 -9.508215e-01 -9.713674e-01 -9.766067e-01 -9.979035e-01 -1.004005e+00 -1.022784e+00 -1.032107e+00 -1.048276e+00 -1.058846e+00 -1.075513e+00 -1.084158e+00 -1.103787e+00 -1.109986e+00 -1.131049e+00 -1.137579e+00 -1.157134e+00 -1.166382e+00 -1.183216e+00 -1.194391e+00 -1.210539e+00 -1.220875e+00 -1.238521e+00 -1.246275e+00 -1.265621e+00 -1.272011e+00 -1.291434e+00 -1.298957e+00 -1.316438e+00 -1.327193e+00 -1.342709e+00 -1.354362e+00 -1.370668e+00 -1.379719e+00 -1.398632e+00 -1.405294e+00 -1.427055e+00 -1.432765e+00 -1.447824e+00 -1.451708e+00 -1.466560e+00 -1.470151e+00 
-1.826269e+00 -1.919609e+00 -1.860190e+00 -1.957278e+00 -1.903609e+00 -2.005358e+00 -1.960176e+00 -2.059815e+00 -2.006768e+00 -2.113919e+00 -2.051528e+00 -2.157897e+00 -2.103930e+00 -2.205883e+00 -1.088475e+00 -1.008757e+00 4.084706e-02 1.420367e-01 1.152459e+00 1.344483e+00 2.324033e+00 2.504088e+00 2.292520e+00 2.445654e+00 2.308194e+00 2.375170e+00 2.297049e+00 2.337403e+00 2.234745e+00 2.322678e+00 2.159607e+00 2.295577e+00 2.108698e+00 2.233490e+00 2.091757e+00 2.161567e+00 2.076186e+00 2.110937e+00 2.029788e+00 2.090085e+00 1.963314e+00 2.068317e+00 1.906159e+00 2.019164e+00 1.874243e+00 1.950601e+00 1.847547e+00 1.889779e+00 1.805879e+00 1.853138e+00 1.749288e+00 1.828212e+00 1.696887e+00 1.796559e+00 1.664069e+00 1.749288e+00 1.645175e+00 1.699432e+00 1.622105e+00 1.662890e+00 1.580740e+00 1.640388e+00 1.529625e+00 1.612686e+00 1.480279e+00 1.553716e+00 1.443977e+00 1.497551e+00 1.414340e+00 1.448615e+00 1.371493e+00 1.413534e+00 1.318864e+00 1.379584e+00 1.269895e+00 1.336005e+00 1.232384e+00 1.284577e+00 1.198032e+00 1.235679e+00 1.158554e+00 1.195377e+00 1.113496e+00 1.158694e+00 1.069413e+00 1.119764e+00 1.030541e+00 1.077222e+00 9.953899e-01 1.034865e+00 9.601101e-01 9.955677e-01 9.227902e-01 9.590079e-01 8.840465e-01 9.212845e-01 8.412228e-01 8.713043e-01 7.978348e-01 8.320340e-01 7.629621e-01 7.949899e-01 7.293883e-01 7.593366e-01 6.955543e-01 7.245564e-01 6.614464e-01 6.901963e-01 6.277146e-01 6.556080e-01 5.949739e-01 6.207464e-01 5.629570e-01 5.859367e-01 5.308254e-01 5.516296e-01 4.979824e-01 5.178323e-01 4.645706e-01 4.840615e-01 4.316115e-01 4.496787e-01 3.994779e-01 4.148094e-01 3.674892e-01 3.798856e-01 3.338749e-01 3.439035e-01 2.936006e-01 2.968507e-01 2.520406e-01 2.608572e-01 2.181783e-01 2.259396e-01 1.862076e-01 1.910999e-01 1.541886e-01 1.568085e-01 1.213622e-01 1.232089e-01 8.811419e-02 8.962819e-02 5.555719e-02 5.553610e-02 2.384111e-02 2.103978e-02 -7.750453e-03 -1.322318e-02 -4.012403e-02 -4.694023e-02 -7.332208e-02 -8.043550e-02 -1.063085e-01 -1.145334e-01 -1.384611e-01 -1.492567e-01 -1.703324e-01 -1.842264e-01 -2.037627e-01 -2.202869e-01 -2.439512e-01 -2.673231e-01 -2.855188e-01 -3.031890e-01 -3.194919e-01 -3.379926e-01 -3.515241e-01 -3.728636e-01 -3.834569e-01 -4.072988e-01 -4.161654e-01 -4.410325e-01 -4.494333e-01 -4.745550e-01 -4.821657e-01 -5.085494e-01 -5.140496e-01 -5.430518e-01 -5.456472e-01 -5.775011e-01 -5.779465e-01 -6.114403e-01 -6.111477e-01 -6.450145e-01 -6.443644e-01 -6.790718e-01 -6.768149e-01 -7.138038e-01 -7.088669e-01 -7.490352e-01 -7.422926e-01 -7.855082e-01 -7.825413e-01 -8.328696e-01 -8.243494e-01 -8.687963e-01 -8.588434e-01 -9.035716e-01 -8.913372e-01 -9.386589e-01 -9.233313e-01 -9.736207e-01 -9.559008e-01 -1.007856e+00 -9.892487e-01 -1.041449e+00 -1.022529e+00 -1.075307e+00 -1.055011e+00 -1.109914e+00 -1.086763e+00 -1.144844e+00 -1.118833e+00 -1.179094e+00 -1.151755e+00 -1.212502e+00 -1.184999e+00 -1.246094e+00 -1.217489e+00 -1.280479e+00 -1.249138e+00 -1.315253e+00 -1.281018e+00 -1.349421e+00 -1.313812e+00 -1.382947e+00 -1.347168e+00 -1.416792e+00 -1.380146e+00 -1.451595e+00 -1.412644e+00 -1.487015e+00 -1.445217e+00 -1.522120e+00 -1.478325e+00 -1.556483e+00 -1.511674e+00 -1.590238e+00 -1.544629e+00 -1.624014e+00 -1.576906e+00 -1.658384e+00 -1.608761e+00 -1.693391e+00 -1.641167e+00 -1.727989e+00 -1.674396e+00 -1.761732e+00 -1.707719e+00 -1.795145e+00 -1.740321e+00 -1.828189e+00 -1.769105e+00 -1.858048e+00 -1.796934e+00 -1.887696e+00 