# vtk DataFile Version 2.0
Comment goes here
ASCII

DATASET STRUCTURED_POINTS
FIELD FieldData 1
TIME 1 1 double
0.00900000
DIMENSIONS    256   256   1

ORIGIN    0.000   0.000   0.000
SPACING   0.0078125 0.0078125   1.000

POINT_DATA   65536
SCALARS P double
LOOKUP_TABLE default

-1.823868e+02 -1.668859e+02 -1.799873e+02 -1.627362e+02 -1.757524e+02 -1.562575e+02 -1.694895e+02 -1.481791e+02 -1.644449e+02 -1.558053e+02 -2.055232e+02 -2.273739e+02 -2.536326e+02 -2.275938e+02 -2.287841e+02 -1.857428e+02 -1.743510e+02 -1.028395e+02 -1.015641e+02 4.236885e+01 -6.823040e+00 1.157630e+02 1.441615e+02 1.627707e+02 1.671801e+02 1.778781e+02 1.767479e+02 1.822989e+02 1.818031e+02 1.837565e+02 1.842055e+02 1.843688e+02 1.851825e+02 1.845349e+02 1.854152e+02 1.842719e+02 1.852047e+02 1.836266e+02 1.846287e+02 1.827149e+02 1.836559e+02 1.816224e+02 1.823202e+02 1.803496e+02 1.807321e+02 1.788060e+02 1.789998e+02 1.769791e+02 1.771429e+02 1.749442e+02 1.750676e+02 1.728203e+02 1.727394e+02 1.706343e+02 1.702086e+02 1.682986e+02 1.676178e+02 1.657535e+02 1.650114e+02 1.630248e+02 1.623029e+02 1.601734e+02 1.593777e+02 1.574300e+02 1.563224e+02 1.545596e+02 1.532785e+02 1.516422e+02 1.501018e+02 1.484091e+02 1.469575e+02 1.451316e+02 1.437158e+02 1.418607e+02 1.402675e+02 1.386270e+02 1.366844e+02 1.352945e+02 1.331313e+02 1.317840e+02 1.296498e+02 1.281277e+02 1.261183e+02 1.244920e+02 1.224260e+02 1.209349e+02 1.185725e+02 1.173778e+02 1.147286e+02 1.136886e+02 1.109847e+02 1.098583e+02 1.072840e+02 1.059659e+02 1.034770e+02 1.022797e+02 9.952277e+01 9.857870e+01 9.569080e+01 9.489613e+01 9.168880e+01 9.090181e+01 8.781953e+01 8.686671e+01 8.392235e+01 8.287176e+01 7.984251e+01 7.898682e+01 7.562390e+01 7.508278e+01 7.146622e+01 7.103760e+01 6.743610e+01 6.684598e+01 6.343624e+01 6.268626e+01 5.931206e+01 5.864490e+01 5.503006e+01 5.468447e+01 5.074993e+01 5.062991e+01 4.660599e+01 4.644702e+01 4.257126e+01 4.220255e+01 3.848819e+01 3.818685e+01 3.423760e+01 3.421320e+01 3.015195e+01 3.029045e+01 2.586138e+01 2.606971e+01 2.175064e+01 2.180429e+01 1.765946e+01 1.758006e+01 1.340669e+01 1.349007e+01 9.008448e+00 9.436688e+00 4.667876e+00 5.271609e+00 4.698414e-01 9.639238e-01 -3.640353e+00 -3.326973e+00 -7.845486e+00 -7.484700e+00 -1.219891e+01 -1.151409e+01 -1.656815e+01 -1.560324e+01 -2.078891e+01 -1.980539e+01 -2.486810e+01 -2.407279e+01 -2.895216e+01 -2.811512e+01 -3.320634e+01 -3.208221e+01 -3.728164e+01 -3.597418e+01 -4.157424e+01 -4.013152e+01 -4.566495e+01 -4.432782e+01 -4.969645e+01 -4.848766e+01 -5.385929e+01 -5.250652e+01 -5.815764e+01 -5.644045e+01 -6.240989e+01 -6.045313e+01 -6.651311e+01 -6.458800e+01 -7.048907e+01 -6.871556e+01 -7.452519e+01 -7.269924e+01 -7.868406e+01 -7.652615e+01 -8.286157e+01 -8.037288e+01 -8.688374e+01 -8.430263e+01 -9.074848e+01 -8.828349e+01 -9.457884e+01 -9.204691e+01 -9.855637e+01 -9.572467e+01 -1.023598e+02 -9.929031e+01 -1.063440e+02 -1.030586e+02 -1.101143e+02 -1.068332e+02 -1.137856e+02 -1.105597e+02 -1.175389e+02 -1.141328e+02 -1.213849e+02 -1.175763e+02 -1.251762e+02 -1.210471e+02 -1.288017e+02 -1.245843e+02 -1.322709e+02 -1.280831e+02 -1.357466e+02 -1.314116e+02 -1.392845e+02 -1.345591e+02 -1.428076e+02 -1.376738e+02 -1.461708e+02 -1.408237e+02 -1.493503e+02 -1.439571e+02 -1.524702e+02 -1.469233e+02 -1.556107e+02 -1.496860e+02 -1.587419e+02 -1.523352e+02 -1.617210e+02 -1.549620e+02 -1.645002e+02 -1.575526e+02 -1.671329e+02 -1.599780e+02 -1.697244e+02 -1.621685e+02 -1.722706e+02 -1.641506e+02 -1.746586e+02 -1.660263e+02 -1.768032e+02 -1.677877e+02 -1.787078e+02 -1.693138e+02 -1.804424e+02 -1.704696e+02 -1.819424e+02 -1.712274e+02 -1.830593e+02 -1.716060e+02 -1.837547e+02 -1.715290e+02 -1.839563e+02 -1.708352e+02 -1.835719e+02 -1.693952e+02 
-2.015228e+02 -2.001532e+02 -2.005133e+02 -1.988253e+02 -1.977476e+02 -1.954030e+02 -1.924064e+02 -1.889411e+02 -1.836002e+02 -1.916973e+02 -2.140631e+02 -2.550886e+02 -2.613291e+02 -2.843499e+02 -2.494214e+02 -2.691297e+02 -1.638071e+02 -1.069256e+02 2.056515e+01 1.424029e+02 1.469341e+02 1.688184e+02 1.859199e+02 1.987838e+02 1.948383e+02 2.086742e+02 2.012597e+02 2.122065e+02 2.045170e+02 2.127645e+02 2.051265e+02 2.123399e+02 2.044680e+02 2.113923e+02 2.033488e+02 2.099601e+02 2.020391e+02 2.081428e+02 2.005398e+02 2.061262e+02 1.987247e+02 2.040306e+02 1.965945e+02 2.018542e+02 1.942750e+02 1.994375e+02 1.919116e+02 1.967432e+02 1.895266e+02 1.938542e+02 1.869538e+02 1.909603e+02 1.841140e+02 1.881057e+02 1.810442e+02 1.851499e+02 1.779796e+02 1.819721e+02 1.749947e+02 1.785853e+02 1.719543e+02 1.750406e+02 1.687080e+02 1.718360e+02 1.651263e+02 1.684212e+02 1.618732e+02 1.651138e+02 1.582461e+02 1.613046e+02 1.548708e+02 1.574787e+02 1.514097e+02 1.537098e+02 1.476539e+02 1.500967e+02 1.436739e+02 1.464062e+02 1.397916e+02 1.424763e+02 1.360980e+02 1.382973e+02 1.324028e+02 1.341896e+02 1.284821e+02 1.302650e+02 1.242803e+02 1.264273e+02 1.201067e+02 1.224045e+02 1.161328e+02 1.181514e+02 1.122921e+02 1.137361e+02 1.083935e+02 1.097935e+02 1.039907e+02 1.057686e+02 1.001487e+02 1.019263e+02 9.572795e+01 9.752538e+01 9.173945e+01 9.305968e+01 8.775293e+01 8.866605e+01 8.347324e+01 8.451721e+01 7.891169e+01 8.040420e+01 7.446829e+01 7.607576e+01 7.027463e+01 7.145629e+01 6.620183e+01 6.688825e+01 6.193412e+01 6.253609e+01 5.736934e+01 5.839502e+01 5.277469e+01 5.410525e+01 4.842089e+01 4.958258e+01 4.429233e+01 4.485453e+01 4.020004e+01 4.061567e+01 3.551694e+01 3.639078e+01 3.149656e+01 3.236974e+01 2.676930e+01 2.780316e+01 2.255617e+01 2.314304e+01 1.841729e+01 1.853634e+01 1.400516e+01 1.419076e+01 9.286869e+00 9.969664e+00 4.661034e+00 5.564039e+00 2.863529e-01 8.699767e-01 -3.874559e+00 -3.831147e+00 -8.194885e+00 -8.307354e+00 -1.279895e+01 -1.250567e+01 -1.749176e+01 -1.680601e+01 -2.193241e+01 -2.132352e+01 -2.611181e+01 -2.607187e+01 -3.018687e+01 -3.036535e+01 -3.486694e+01 -3.457513e+01 -3.886444e+01 -3.858112e+01 -4.361434e+01 -4.307758e+01 -4.783089e+01 -4.766820e+01 -5.191501e+01 -5.223227e+01 -5.623586e+01 -5.655055e+01 -6.084311e+01 -6.067383e+01 -6.540261e+01 -6.494377e+01 -6.971717e+01 -6.946799e+01 -7.376803e+01 -7.404406e+01 -7.793240e+01 -7.839126e+01 -8.234280e+01 -8.243990e+01 -8.686525e+01 -8.653795e+01 -9.113590e+01 -9.081809e+01 -9.514553e+01 -9.531283e+01 -9.900939e+01 -9.940321e+01 -1.034171e+02 -1.033884e+02 -1.072037e+02 -1.071596e+02 -1.116660e+02 -1.113331e+02 -1.156233e+02 -1.155575e+02 -1.194069e+02 -1.197659e+02 -1.233703e+02 -1.237429e+02 -1.275523e+02 -1.274892e+02 -1.317035e+02 -1.313306e+02 -1.356045e+02 -1.353553e+02 -1.392374e+02 -1.394099e+02 -1.429252e+02 -1.432242e+02 -1.467814e+02 -1.467571e+02 -1.507094e+02 -1.502934e+02 -1.544109e+02 -1.539734e+02 -1.578337e+02 -1.577459e+02 -1.612050e+02 -1.613096e+02 -1.646920e+02 -1.646023e+02 -1.682739e+02 -1.677821e+02 -1.716752e+02 -1.710450e+02 -1.748160e+02 -1.743910e+02 -1.777814e+02 -1.775921e+02 -1.807975e+02 -1.805282e+02 -1.838752e+02 -1.832500e+02 -1.868269e+02 -1.859891e+02 -1.895035e+02 -1.887654e+02 -1.919319e+02 -1.914017e+02 -1.943010e+02 -1.936780e+02 -1.965380e+02 -1.956149e+02 -1.983944e+02 -1.973216e+02 -1.998618e+02 -1.987666e+02 -2.009229e+02 -1.997543e+02 -2.015305e+02 -2.002937e+02 
-1.828523e+02 -1.676402e+02 -1.807742e+02 -1.640785e+02 -1.773023e+02 -1.593413e+02 -1.746931e+02 -1.548381e+02 -1.722879e+02 -1.643268e+02 -2.063763e+02 -2.081967e+02 -2.510594e+02 -2.435492e+02 -2.494208e+02 -2.247277e+02 -2.076737e+02 -1.548509e+02 -1.399622e+02 8.568420e+01 5.363892e+01 1.137480e+02 1.560566e+02 1.733089e+02 1.684233e+02 1.830151e+02 1.768367e+02 1.851533e+02 1.824930e+02 1.847165e+02 1.845939e+02 1.847630e+02 1.852075e+02 1.848192e+02 1.853142e+02 1.844745e+02 1.851599e+02 1.836783e+02 1.847359e+02 1.826691e+02 1.837979e+02 1.816071e+02 1.823638e+02 1.804934e+02 1.806614e+02 1.790009e+02 1.789408e+02 1.770866e+02 1.772519e+02 1.748886e+02 1.752598e+02 1.727376e+02 1.728744e+02 1.706969e+02 1.701464e+02 1.684716e+02 1.674969e+02 1.659039e+02 1.650335e+02 1.630720e+02 1.624902e+02 1.599070e+02 1.594849e+02 1.574651e+02 1.562139e+02 1.545720e+02 1.533717e+02 1.519920e+02 1.500007e+02 1.484374e+02 1.470542e+02 1.450532e+02 1.439725e+02 1.417527e+02 1.404278e+02 1.387256e+02 1.365899e+02 1.355172e+02 1.329742e+02 1.319602e+02 1.296785e+02 1.280454e+02 1.263133e+02 1.243122e+02 1.226197e+02 1.208818e+02 1.185055e+02 1.175171e+02 1.145118e+02 1.138478e+02 1.108639e+02 1.098825e+02 1.073741e+02 1.056025e+02 1.036442e+02 1.022096e+02 9.934310e+01 9.855101e+01 9.586920e+01 9.529490e+01 9.151345e+01 9.099038e+01 8.787239e+01 8.679170e+01 8.419367e+01 8.270207e+01 8.005294e+01 7.901219e+01 7.552215e+01 7.528575e+01 7.125273e+01 7.124584e+01 6.737770e+01 6.677671e+01 6.359930e+01 6.246664e+01 5.952246e+01 5.849664e+01 5.499529e+01 5.478161e+01 5.049421e+01 5.078540e+01 4.640219e+01 4.648844e+01 4.259396e+01 4.181567e+01 3.868797e+01 3.805508e+01 3.402776e+01 3.414897e+01 3.038875e+01 3.068561e+01 2.563697e+01 2.618625e+01 2.175206e+01 2.174644e+01 1.791500e+01 1.738606e+01 1.364187e+01 1.345014e+01 8.927816e+00 9.607555e+00 4.439194e+00 5.485940e+00 3.386164e-01 9.307962e-01 -3.514057e+00 -3.559156e+00 -7.639857e+00 -7.693924e+00 -1.219596e+01 -1.145987e+01 -1.683114e+01 -1.546188e+01 -2.103380e+01 -1.974530e+01 -2.489540e+01 -2.444596e+01 -2.874353e+01 -2.827755e+01 -3.342133e+01 -3.218032e+01 -3.701491e+01 -3.561309e+01 -4.182570e+01 -4.001231e+01 -4.571376e+01 -4.436577e+01 -4.947716e+01 -4.868571e+01 -5.362949e+01 -5.260709e+01 -5.820811e+01 -5.631044e+01 -6.263924e+01 -6.025848e+01 -6.669461e+01 -6.459296e+01 -7.040525e+01 -6.894906e+01 -7.434559e+01 -7.294095e+01 -7.866113e+01 -7.651577e+01 -8.311594e+01 -8.025962e+01 -8.713924e+01 -8.424155e+01 -9.081259e+01 -8.862369e+01 -9.438317e+01 -9.220058e+01 -9.875513e+01 -9.586801e+01 -1.021178e+02 -9.899765e+01 -1.066090e+02 -1.029753e+02 -1.102130e+02 -1.068686e+02 -1.136256e+02 -1.107585e+02 -1.173546e+02 -1.142820e+02 -1.214238e+02 -1.175000e+02 -1.254022e+02 -1.209067e+02 -1.290033e+02 -1.245988e+02 -1.322328e+02 -1.283104e+02 -1.356152e+02 -1.316462e+02 -1.392610e+02 -1.345701e+02 -1.430133e+02 -1.375718e+02 -1.464093e+02 -1.407909e+02 -1.493976e+02 -1.441561e+02 -1.523864e+02 -1.471784e+02 -1.555615e+02 -1.497961e+02 -1.589082e+02 -1.522982e+02 -1.619657e+02 -1.549341e+02 -1.646542e+02 -1.577141e+02 -1.671207e+02 -1.602504e+02 -1.697048e+02 -1.623917e+02 -1.724141e+02 -1.642141e+02 -1.749404e+02 -1.660889e+02 -1.770786e+02 -1.680242e+02 -1.788734e+02 -1.697492e+02 -1.806701e+02 -1.709193e+02 -1.823397e+02 -1.715937e+02 -1.834640e+02 -1.719629e+02 -1.841124e+02 -1.719499e+02 -1.842646e+02 -1.712230e+02 -1.838984e+02 -1.698822e+02 
-2.023484e+02 -2.014073e+02 -2.019843e+02 -2.012337e+02 -2.009840e+02 -2.013755e+02 -2.002328e+02 -1.977143e+02 -1.973910e+02 -2.120785e+02 -2.273176e+02 -2.577119e+02 -2.668062e+02 -2.816678e+02 -2.269699e+02 -2.290030e+02 -1.284206e+02 -1.091412e+02 -2.303688e+01 5.454732e+01 1.044395e+02 1.324606e+02 1.573948e+02 1.892950e+02 1.904635e+02 2.089532e+02 2.009642e+02 2.137308e+02 2.060009e+02 2.128992e+02 2.061494e+02 2.122613e+02 2.048180e+02 2.115034e+02 2.034044e+02 2.101098e+02 2.021330e+02 2.081186e+02 2.008670e+02 2.059762e+02 1.990830e+02 2.039562e+02 1.967535e+02 2.020737e+02 1.942286e+02 1.997412e+02 1.918834e+02 1.968856e+02 1.897887e+02 1.937365e+02 1.873277e+02 1.908267e+02 1.843559e+02 1.882421e+02 1.809504e+02 1.854462e+02 1.778176e+02 1.821818e+02 1.751059e+02 1.786508e+02 1.723701e+02 1.746256e+02 1.688313e+02 1.721217e+02 1.651900e+02 1.684324e+02 1.619069e+02 1.657407e+02 1.581353e+02 1.612600e+02 1.550858e+02 1.573375e+02 1.518493e+02 1.535610e+02 1.478460e+02 1.503221e+02 1.434939e+02 1.467816e+02 1.395764e+02 1.426919e+02 1.362343e+02 1.381180e+02 1.327644e+02 1.339308e+02 1.287606e+02 1.302683e+02 1.241210e+02 1.267140e+02 1.197855e+02 1.226307e+02 1.160413e+02 1.181573e+02 1.125843e+02 1.131816e+02 1.085286e+02 1.098627e+02 1.038953e+02 1.057658e+02 1.003102e+02 1.026687e+02 9.549757e+01 9.753295e+01 9.189179e+01 9.290373e+01 8.821296e+01 8.842469e+01 8.371304e+01 8.464968e+01 7.869043e+01 8.076373e+01 7.416352e+01 7.633780e+01 7.028536e+01 7.127489e+01 6.653007e+01 6.656999e+01 6.224518e+01 6.240159e+01 5.723281e+01 5.864737e+01 5.238524e+01 5.434183e+01 4.820866e+01 4.960139e+01 4.449895e+01 4.425720e+01 4.036691e+01 4.054712e+01 3.533953e+01 3.635023e+01 3.174959e+01 3.314234e+01 2.645687e+01 2.784380e+01 2.263363e+01 2.299852e+01 1.886229e+01 1.825178e+01 1.428932e+01 1.422409e+01 9.077732e+00 1.029436e+01 4.324526e+00 5.855808e+00 1.781073e-01 7.267510e-01 -3.584232e+00 -4.177764e+00 -7.872390e+00 -8.541192e+00 -1.288829e+01 -1.230153e+01 -1.790543e+01 -1.657156e+01 -2.221393e+01 -2.127620e+01 -2.598066e+01 -2.666607e+01 -2.999779e+01 -3.051931e+01 -3.509210e+01 -3.467062e+01 -3.855493e+01 -3.783532e+01 -4.398138e+01 -4.302176e+01 -4.783442e+01 -4.779301e+01 -5.151622e+01 -5.253384e+01 -5.593364e+01 -5.662353e+01 -6.101817e+01 -6.039811e+01 -6.575364e+01 -6.465570e+01 -6.991931e+01 -6.957147e+01 -7.353290e+01 -7.440649e+01 -7.763103e+01 -7.869092e+01 -8.239499e+01 -8.230140e+01 -8.728019e+01 -8.632978e+01 -9.145119e+01 -9.075381e+01 -9.508848e+01 -9.588533e+01 -9.882365e+01 -9.959613e+01 -1.036802e+02 -1.035772e+02 -1.069014e+02 -1.065083e+02 -1.120730e+02 -1.113037e+02 -1.157188e+02 -1.156796e+02 -1.190941e+02 -1.200820e+02 -1.231042e+02 -1.239170e+02 -1.277046e+02 -1.272932e+02 -1.320675e+02 -1.311044e+02 -1.358680e+02 -1.354579e+02 -1.390875e+02 -1.397831e+02 -1.426940e+02 -1.435499e+02 -1.468115e+02 -1.466813e+02 -1.510612e+02 -1.500948e+02 -1.547576e+02 -1.539667e+02 -1.578229e+02 -1.580936e+02 -1.610272e+02 -1.616906e+02 -1.646356e+02 -1.647003e+02 -1.685772e+02 -1.676668e+02 -1.720502e+02 -1.709914e+02 -1.750035e+02 -1.746789e+02 -1.776951e+02 -1.780096e+02 -1.807360e+02 -1.808282e+02 -1.841167e+02 -1.832612e+02 -1.872520e+02 -1.860170e+02 -1.898788e+02 -1.890987e+02 -1.920811e+02 -1.920467e+02 -1.945858e+02 -1.943194e+02 -1.971567e+02 -1.960995e+02 -1.990054e+02 -1.978522e+02 -2.004408e+02 -1.994593e+02 -2.014261e+02 -2.003584e+02 -2.020874e+02 -2.010779e+02 
-1.847040e+02 -1.702551e+02 -1.840538e+02 -1.688300e+02 -1.836170e+02 -1.685048e+02 -1.842086e+02 -1.637091e+02 -1.815294e+02 -1.689159e+02 -1.913678e+02 -1.813462e+02 -2.126714e+02 -1.879999e+02 -1.629002e+02 -1.338149e+02 -1.502619e+02 -1.185560e+02 -1.667605e+02 6.031694e+00 -1.414963e+01 7.273298e+01 1.232762e+02 1.672166e+02 1.641207e+02 1.812003e+02 1.765533e+02 1.841969e+02 1.826750e+02 1.845236e+02 1.849759e+02 1.848378e+02 1.855812e+02 1.850203e+02 1.856291e+02 1.847289e+02 1.854450e+02 1.839202e+02 1.850416e+02 1.828799e+02 1.841039e+02 1.818146e+02 1.826184e+02 1.807535e+02 1.808502e+02 1.792768e+02 1.791132e+02 1.773168e+02 1.774849e+02 1.750387e+02 1.755177e+02 1.728672e+02 1.730906e+02 1.708871e+02 1.702599e+02 1.686990e+02 1.675810e+02 1.660986e+02 1.651900e+02 1.632216e+02 1.627442e+02 1.599647e+02 1.597392e+02 1.578652e+02 1.564924e+02 1.546681e+02 1.534194e+02 1.522716e+02 1.500645e+02 1.485209e+02 1.472196e+02 1.451037e+02 1.441949e+02 1.418006e+02 1.405565e+02 1.388882e+02 1.366028e+02 1.357137e+02 1.329816e+02 1.320882e+02 1.298010e+02 1.280474e+02 1.264951e+02 1.242975e+02 1.227563e+02 1.209581e+02 1.184953e+02 1.176732e+02 1.144608e+02 1.139657e+02 1.109002e+02 1.099206e+02 1.075427e+02 1.054945e+02 1.037527e+02 1.023963e+02 9.945651e+01 9.858641e+01 9.590466e+01 9.558671e+01 9.149642e+01 9.101464e+01 8.798138e+01 8.676918e+01 8.438425e+01 8.266827e+01 8.014351e+01 7.911274e+01 7.546526e+01 7.544258e+01 7.118729e+01 7.134327e+01 6.743290e+01 6.672360e+01 6.374536e+01 6.238827e+01 5.963792e+01 5.849835e+01 5.494629e+01 5.490390e+01 5.038186e+01 5.087751e+01 4.637220e+01 4.649024e+01 4.271511e+01 4.163293e+01 3.873457e+01 3.810976e+01 3.404168e+01 3.414525e+01 3.043521e+01 3.098242e+01 2.556937e+01 2.618895e+01 2.181868e+01 2.169290e+01 1.808476e+01 1.730834e+01 1.372623e+01 1.349885e+01 8.844612e+00 9.737201e+00 4.336494e+00 5.576168e+00 3.353612e-01 8.603156e-01 -3.391632e+00 -3.674632e+00 -7.533043e+00 -7.747724e+00 -1.225325e+01 -1.136649e+01 -1.697675e+01 -1.538449e+01 -2.110846e+01 -1.975525e+01 -2.481625e+01 -2.467132e+01 -2.873336e+01 -2.832609e+01 -3.348886e+01 -3.222482e+01 -3.695476e+01 -3.532971e+01 -4.193508e+01 -4.002301e+01 -4.569276e+01 -4.443824e+01 -4.933453e+01 -4.879632e+01 -5.354837e+01 -5.261760e+01 -5.830227e+01 -5.621169e+01 -6.277178e+01 -6.018114e+01 -6.675352e+01 -6.467244e+01 -7.031449e+01 -6.909765e+01 -7.425612e+01 -7.304639e+01 -7.872227e+01 -7.646449e+01 -8.328761e+01 -8.020713e+01 -8.725414e+01 -8.426409e+01 -9.078853e+01 -8.889422e+01 -9.442416e+01 -9.237367e+01 -9.893474e+01 -9.597882e+01 -1.020565e+02 -9.876359e+01 -1.067698e+02 -1.030183e+02 -1.102582e+02 -1.069718e+02 -1.135336e+02 -1.109150e+02 -1.172998e+02 -1.143724e+02 -1.215363e+02 -1.174609e+02 -1.255776e+02 -1.208762e+02 -1.291288e+02 -1.247090e+02 -1.322055e+02 -1.285109e+02 -1.355750e+02 -1.318196e+02 -1.393390e+02 -1.345921e+02 -1.432076e+02 -1.375634e+02 -1.465945e+02 -1.408749e+02 -1.494436e+02 -1.443777e+02 -1.523801e+02 -1.474113e+02 -1.556183e+02 -1.499207e+02 -1.591140e+02 -1.523502e+02 -1.622018e+02 -1.550251e+02 -1.648202e+02 -1.579568e+02 -1.671837e+02 -1.605568e+02 -1.697902e+02 -1.626660e+02 -1.726430e+02 -1.643827e+02 -1.752671e+02 -1.662831e+02 -1.774113e+02 -1.683795e+02 -1.791320e+02 -1.702902e+02 -1.810220e+02 -1.715203e+02 -1.829034e+02 -1.721897e+02 -1.841086e+02 -1.726620e+02 -1.848443e+02 -1.728881e+02 -1.851302e+02 -1.723438e+02 -1.850757e+02 -1.714907e+02 
-2.039754e+02 -2.034459e+02 -2.047357e+02 -2.047570e+02 -2.059144e+02 -2.073713e+02 -2.083989e+02 -2.089745e+02 -2.091447e+02 -2.173024e+02 -2.176212e+02 -2.361372e+02 -2.491084e+02 -2.704189e+02 -2.103087e+02 -2.026942e+02 -1.061098e+02 -8.668809e+01 -3.355179e+01 -2.784612e+01 6.361432e+01 1.668829e+02 1.870307e+02 1.930596e+02 1.950285e+02 2.049195e+02 2.009156e+02 2.102662e+02 2.043798e+02 2.117398e+02 2.052304e+02 2.118027e+02 2.046997e+02 2.111352e+02 2.036406e+02 2.098689e+02 2.023608e+02 2.081530e+02 2.008756e+02 2.062017e+02 1.990628e+02 2.041479e+02 1.969268e+02 2.020014e+02 1.945932e+02 1.996060e+02 1.922130e+02 1.969257e+02 1.898180e+02 1.940337e+02 1.872412e+02 1.911312e+02 1.843975e+02 1.882747e+02 1.813050e+02 1.853297e+02 1.782142e+02 1.821637e+02 1.752153e+02 1.787758e+02 1.721862e+02 1.752186e+02 1.690479e+02 1.721218e+02 1.653840e+02 1.685535e+02 1.620856e+02 1.652747e+02 1.583876e+02 1.614699e+02 1.550268e+02 1.576147e+02 1.515898e+02 1.538098e+02 1.478463e+02 1.501949e+02 1.438209e+02 1.465312e+02 1.398969e+02 1.426259e+02 1.361934e+02 1.384107e+02 1.325271e+02 1.342599e+02 1.286351e+02 1.303164e+02 1.244081e+02 1.265093e+02 1.201855e+02 1.225189e+02 1.161831e+02 1.182646e+02 1.123580e+02 1.137838e+02 1.085968e+02 1.098853e+02 1.040337e+02 1.057970e+02 1.002908e+02 1.020025e+02 9.573376e+01 9.762551e+01 9.177082e+01 9.312101e+01 8.783424e+01 8.867564e+01 8.359039e+01 8.452058e+01 7.897729e+01 8.045305e+01 7.448018e+01 7.616865e+01 7.026879e+01 7.151643e+01 6.623991e+01 6.689144e+01 6.201707e+01 6.250735e+01 5.744337e+01 5.840430e+01 5.278360e+01 5.416053e+01 4.838943e+01 4.964907e+01 4.427072e+01 4.483189e+01 4.032394e+01 4.058566e+01 3.544596e+01 3.636084e+01 3.161048e+01 3.238593e+01 2.670982e+01 2.785887e+01 2.252009e+01 2.316348e+01 1.844066e+01 1.849800e+01 1.407500e+01 1.413623e+01 9.313860e+00 9.964979e+00 4.628456e+00 5.609017e+00 2.247702e-01 8.999014e-01 -3.892024e+00 -3.867508e+00 -8.161665e+00 -8.385018e+00 -1.275750e+01 -1.254986e+01 -1.752250e+01 -1.680009e+01 -2.201015e+01 -2.129717e+01 -2.619074e+01 -2.614231e+01 -3.013305e+01 -3.048794e+01 -3.501654e+01 -3.464914e+01 -3.877855e+01 -3.861907e+01 -4.371524e+01 -4.307032e+01 -4.791578e+01 -4.768511e+01 -5.194218e+01 -5.230902e+01 -5.621762e+01 -5.665354e+01 -6.085055e+01 -6.073283e+01 -6.547251e+01 -6.495609e+01 -6.982283e+01 -6.947967e+01 -7.383800e+01 -7.412443e+01 -7.795436e+01 -7.851604e+01 -8.234801e+01 -8.254187e+01 -8.694058e+01 -8.659564e+01 -9.125920e+01 -9.085700e+01 -9.528384e+01 -9.545052e+01 -9.905615e+01 -9.964074e+01 -1.036622e+02 -1.035269e+02 -1.071795e+02 -1.072711e+02 -1.118185e+02 -1.114095e+02 -1.157676e+02 -1.156446e+02 -1.195046e+02 -1.199084e+02 -1.234346e+02 -1.239152e+02 -1.276296e+02 -1.276314e+02 -1.318396e+02 -1.314399e+02 -1.357740e+02 -1.354634e+02 -1.393840e+02 -1.395787e+02 -1.430391e+02 -1.434315e+02 -1.468863e+02 -1.469537e+02 -1.508713e+02 -1.504621e+02 -1.546119e+02 -1.541325e+02 -1.580325e+02 -1.579573e+02 -1.613789e+02 -1.615636e+02 -1.648575e+02 -1.648672e+02 -1.684828e+02 -1.680317e+02 -1.719275e+02 -1.712945e+02 -1.750873e+02 -1.746792e+02 -1.780428e+02 -1.779331e+02 -1.810647e+02 -1.809017e+02 -1.841817e+02 -1.836310e+02 -1.871932e+02 -1.863960e+02 -1.899139e+02 -1.892345e+02 -1.923710e+02 -1.919626e+02 -1.948021e+02 -1.943210e+02 -1.971465e+02 -1.963491e+02 -1.991240e+02 -1.982004e+02 -2.007561e+02 -1.998756e+02 -2.020701e+02 -2.012002e+02 -2.031264e+02 -2.023618e+02 
-1.869120e+02 -1.730916e+02 -1.871166e+02 -1.726226e+02 -1.875938e+02 -1.726100e+02 -1.891678e+02 -1.725383e+02 -1.898663e+02 -1.744561e+02 -1.932517e+02 -1.786962e+02 -2.062656e+02 -1.880656e+02 -1.487787e+02 -1.232814e+02 -9.394529e+01 -6.059606e+01 -2.312238e+01 3.272943e+01 1.270549e+02 1.290084e+02 1.649534e+02 1.616253e+02 1.731723e+02 1.762882e+02 1.793246e+02 1.818874e+02 1.832994e+02 1.839797e+02 1.853604e+02 1.848776e+02 1.861740e+02 1.851726e+02 1.862952e+02 1.849549e+02 1.860084e+02 1.843028e+02 1.853832e+02 1.833641e+02 1.843621e+02 1.822498e+02 1.829668e+02 1.809678e+02 1.813202e+02 1.794023e+02 1.795515e+02 1.775310e+02 1.776836e+02 1.754431e+02 1.755898e+02 1.732881e+02 1.732199e+02 1.710989e+02 1.706330e+02 1.687570e+02 1.680128e+02 1.661857e+02 1.654162e+02 1.634247e+02 1.627301e+02 1.605507e+02 1.598063e+02 1.578698e+02 1.567225e+02 1.549238e+02 1.535961e+02 1.520082e+02 1.503925e+02 1.487079e+02 1.472638e+02 1.453923e+02 1.440260e+02 1.421087e+02 1.405353e+02 1.388978e+02 1.368979e+02 1.355682e+02 1.333279e+02 1.320223e+02 1.298710e+02 1.283104e+02 1.263539e+02 1.246533e+02 1.226360e+02 1.211148e+02 1.187240e+02 1.175797e+02 1.148528e+02 1.138754e+02 1.111300e+02 1.100068e+02 1.074687e+02 1.060750e+02 1.036631e+02 1.024539e+02 9.968194e+01 9.873371e+01 9.582864e+01 9.509935e+01 9.179773e+01 9.103435e+01 8.796063e+01 8.695845e+01 8.408508e+01 8.295186e+01 7.996880e+01 7.910152e+01 7.569010e+01 7.521697e+01 7.151573e+01 7.114645e+01 6.751740e+01 6.689636e+01 6.354909e+01 6.271260e+01 5.941048e+01 5.869070e+01 5.506892e+01 5.476840e+01 5.075401e+01 5.070718e+01 4.662900e+01 4.648341e+01 4.263911e+01 4.218403e+01 3.855897e+01 3.822223e+01 3.427722e+01 3.426105e+01 3.020549e+01 3.040945e+01 2.587636e+01 2.611858e+01 2.180169e+01 2.180938e+01 1.774300e+01 1.756898e+01 1.346121e+01 1.351242e+01 8.999026e+00 9.488764e+00 4.636372e+00 5.307228e+00 4.650725e-01 9.404988e-01 -3.602580e+00 -3.382242e+00 -7.813827e+00 -7.526500e+00 -1.222513e+01 -1.151085e+01 -1.663807e+01 -1.560053e+01 -2.084677e+01 -1.984414e+01 -2.488356e+01 -2.418048e+01 -2.896473e+01 -2.818650e+01 -3.325634e+01 -3.212222e+01 -3.729332e+01 -3.593182e+01 -4.163523e+01 -4.015579e+01 -4.569295e+01 -4.439791e+01 -4.968572e+01 -4.858098e+01 -5.387029e+01 -5.257536e+01 -5.823376e+01 -5.647355e+01 -6.251681e+01 -6.049681e+01 -6.660274e+01 -6.468993e+01 -7.053251e+01 -6.885935e+01 -7.456984e+01 -7.283883e+01 -7.878402e+01 -7.662259e+01 -8.301435e+01 -8.046783e+01 -8.703510e+01 -8.444159e+01 -9.086926e+01 -8.850908e+01 -9.470560e+01 -9.226330e+01 -9.873110e+01 -9.589650e+01 -1.024736e+02 -9.937636e+01 -1.065172e+02 -1.032076e+02 -1.102633e+02 -1.070299e+02 -1.138953e+02 -1.107898e+02 -1.176662e+02 -1.143534e+02 -1.215776e+02 -1.177639e+02 -1.254115e+02 -1.212465e+02 -1.290328e+02 -1.248436e+02 -1.324627e+02 -1.283962e+02 -1.359403e+02 -1.317334e+02 -1.395304e+02 -1.348489e+02 -1.431139e+02 -1.379648e+02 -1.464936e+02 -1.411661e+02 -1.496463e+02 -1.443726e+02 -1.527613e+02 -1.473731e+02 -1.559452e+02 -1.501288e+02 -1.591526e+02 -1.527797e+02 -1.621766e+02 -1.554558e+02 -1.649631e+02 -1.581390e+02 -1.675958e+02 -1.606408e+02 -1.702362e+02 -1.628755e+02 -1.728824e+02 -1.648902e+02 -1.753719e+02 -1.668550e+02 -1.775961e+02 -1.687746e+02 -1.795772e+02 -1.704916e+02 -1.814598e+02 -1.718290e+02 -1.831779e+02 -1.727909e+02 -1.845345e+02 -1.734757e+02 -1.855482e+02 -1.738637e+02 -1.862332e+02 -1.738506e+02 -1.866621e+02 -1.735653e+02 
-2.057815e+02 -2.053642e+02 -2.071747e+02 -2.071467e+02 -2.088694e+02 -2.094108e+02 -2.111014e+02 -2.122422e+02 -2.143740e+02 -2.177269e+02 -2.210012e+02 -2.251223e+02 -2.315458e+02 -2.251893e+02 -1.615439e+02 -1.536794e+02 -6.633914e+01 -5.527912e+01 4.078204e+01 4.978843e+01 1.897120e+02 2.008834e+02 1.955680e+02 2.049843e+02 2.001805e+02 2.089607e+02 2.030325e+02 2.113594e+02 2.047988e+02 2.121902e+02 2.053452e+02 2.120544e+02 2.049714e+02 2.112835e+02 2.040309e+02 2.100251e+02 2.027381e+02 2.083900e+02 2.011703e+02 2.064921e+02 1.993304e+02 2.044124e+02 1.972405e+02 2.021719e+02 1.949617e+02 1.997353e+02 1.925621e+02 1.970955e+02 1.900599e+02 1.942941e+02 1.874093e+02 1.914093e+02 1.845797e+02 1.884694e+02 1.815939e+02 1.854355e+02 1.785409e+02 1.822596e+02 1.754622e+02 1.789449e+02 1.723255e+02 1.755490e+02 1.690784e+02 1.722073e+02 1.656365e+02 1.687260e+02 1.622033e+02 1.652315e+02 1.586559e+02 1.615502e+02 1.551452e+02 1.577935e+02 1.515724e+02 1.540262e+02 1.478510e+02 1.502871e+02 1.440016e+02 1.465009e+02 1.401476e+02 1.425888e+02 1.363415e+02 1.385477e+02 1.325239e+02 1.344960e+02 1.285946e+02 1.304988e+02 1.245302e+02 1.265305e+02 1.204413e+02 1.224812e+02 1.164154e+02 1.183161e+02 1.124489e+02 1.140942e+02 1.084561e+02 1.100026e+02 1.042634e+02 1.058979e+02 1.001912e+02 1.018184e+02 9.595258e+01 9.755045e+01 9.182823e+01 9.319894e+01 8.770359e+01 8.885677e+01 8.345000e+01 8.459849e+01 7.906235e+01 8.036068e+01 7.468967e+01 7.602638e+01 7.041063e+01 7.156136e+01 6.618825e+01 6.708817e+01 6.188796e+01 6.269978e+01 5.745871e+01 5.840313e+01 5.299453e+01 5.406190e+01 4.861961e+01 4.961465e+01 4.435517e+01 4.510138e+01 4.011103e+01 4.073273e+01 3.566419e+01 3.642394e+01 3.138743e+01 3.215244e+01 2.690354e+01 2.770576e+01 2.256685e+01 2.317099e+01 1.827121e+01 1.864351e+01 1.386615e+01 1.421635e+01 9.326293e+00 9.853439e+00 4.796406e+00 5.420318e+00 3.709423e-01 8.652050e-01 -3.955071e+00 -3.713022e+00 -8.329057e+00 -8.197580e+00 -1.281939e+01 -1.255765e+01 -1.735852e+01 -1.693047e+01 -2.180171e+01 -2.139493e+01 -2.611394e+01 -2.593179e+01 -3.037417e+01 -3.033106e+01 -3.482234e+01 -3.462114e+01 -3.907794e+01 -3.886990e+01 -4.355743e+01 -4.326654e+01 -4.787840e+01 -4.774209e+01 -5.212723e+01 -5.221481e+01 -5.645904e+01 -5.658486e+01 -6.090913e+01 -6.085855e+01 -6.535798e+01 -6.517261e+01 -6.969890e+01 -6.958626e+01 -7.391563e+01 -7.402904e+01 -7.814843e+01 -7.837246e+01 -8.247271e+01 -8.257635e+01 -8.684319e+01 -8.676202e+01 -9.111401e+01 -9.101453e+01 -9.524956e+01 -9.532888e+01 -9.931159e+01 -9.951546e+01 -1.035209e+02 -1.035544e+02 -1.075249e+02 -1.075446e+02 -1.117305e+02 -1.116385e+02 -1.157735e+02 -1.157761e+02 -1.197179e+02 -1.198999e+02 -1.237051e+02 -1.239137e+02 -1.277675e+02 -1.278078e+02 -1.318154e+02 -1.317024e+02 -1.357419e+02 -1.356496e+02 -1.395296e+02 -1.395957e+02 -1.432937e+02 -1.434241e+02 -1.470994e+02 -1.471057e+02 -1.509137e+02 -1.507380e+02 -1.546161e+02 -1.543953e+02 -1.581700e+02 -1.580611e+02 -1.616501e+02 -1.616193e+02 -1.651366e+02 -1.650268e+02 -1.686245e+02 -1.683336e+02 -1.720107e+02 -1.716242e+02 -1.752436e+02 -1.749033e+02 -1.783495e+02 -1.780867e+02 -1.814145e+02 -1.811109e+02 -1.844493e+02 -1.839886e+02 -1.873824e+02 -1.868014e+02 -1.901405e+02 -1.895615e+02 -1.927208e+02 -1.921955e+02 -1.951775e+02 -1.946074e+02 -1.974867e+02 -1.967899e+02 -1.995620e+02 -1.987854e+02 -2.013927e+02 -2.006162e+02 -2.030030e+02 -2.022601e+02 -2.044389e+02 -2.038033e+02 