# vtk DataFile Version 2.0
Comment goes here
ASCII

DATASET STRUCTURED_POINTS
FIELD FieldData 1
TIME 1 1 double
0.09700000
DIMENSIONS    64   64   1

ORIGIN    0.000   0.000   0.000
SPACING   0.03125 0.03125   1.000

POINT_DATA   4096
SCALARS P double
LOOKUP_TABLE default

3.492341e+03 -2.945215e+02 1.653748e+04 3.344710e+04 1.089463e+04 1.078233e+04 6.127828e+03 -1.490690e+04 -1.599812e+04 -2.186300e+04 -8.355698e+03 -5.676043e+03 -1.290709e+04 -1.184751e+04 -1.069588e+04 -8.307069e+03 -1.174503e+04 -1.262569e+04 -1.675715e+04 -1.968373e+04 -2.471672e+04 -3.106666e+04 -4.092817e+04 -4.600380e+04 -4.503000e+04 -5.084424e+04 -5.021176e+04 -5.191644e+04 -5.108814e+04 -5.252696e+04 -5.711514e+04 -5.729585e+04 -5.723263e+04 -5.686736e+04 -5.487315e+04 -5.332707e+04 -5.074971e+04 -4.797535e+04 -4.872869e+04 -4.701863e+04 -3.831910e+04 -3.460305e+04 -3.364937e+04 -3.182965e+04 -2.500975e+04 -2.168122e+04 -2.267779e+04 -1.459492e+04 -3.246717e+03 5.201379e+03 8.193117e+03 1.310793e+04 9.906723e+03 2.244696e+04 2.250629e+04 2.055835e+02 -2.963994e+04 -2.774201e+04 2.984359e+03 -1.620615e+04 -2.584691e+04 -1.304768e+04 -1.509722e+04 -2.202435e+03 
6.781256e+03 1.283264e+04 1.459368e+04 2.962995e+04 1.411111e+04 1.689040e+04 8.003718e+03 -6.425669e+03 -5.181602e+03 -9.581017e+03 3.884937e+03 -1.366116e+03 -2.585042e+03 -4.582701e+03 -3.076958e+01 1.815429e+03 7.916785e+03 2.719592e+03 3.238880e+02 -3.087042e+03 -5.747017e+03 -6.251222e+03 -7.162519e+03 -1.143994e+04 -5.842609e+03 -1.306747e+04 -1.221550e+04 -1.550924e+04 -1.237454e+04 -1.468954e+04 -1.799900e+04 -1.936795e+04 -1.945818e+04 -2.070235e+04 -1.824527e+04 -2.216422e+04 -1.823414e+04 -1.496425e+04 -1.484978e+04 -1.261335e+04 -8.741509e+03 -7.961502e+03 -7.269368e+03 -8.365049e+03 -6.900311e+03 -3.896274e+03 -8.194205e+03 -4.705704e+03 4.059481e+03 6.586887e+03 8.366271e+03 1.285516e+04 1.217119e+04 2.275386e+04 2.149238e+04 8.077828e+03 -1.140253e+04 -7.534175e+03 1.254880e+04 6.860739e+03 2.293735e+03 1.058094e+04 6.505963e+03 1.342971e+04 
1.058274e+04 1.188942e+04 1.029226e+04 1.969663e+04 1.113537e+04 1.446996e+04 7.360743e+03 6.546536e+03 6.724267e+02 -1.759474e+03 2.039457e+03 -1.562241e+03 -4.081070e+02 -1.393276e+03 2.496102e+03 4.158693e+03 1.053862e+04 7.294985e+03 6.642438e+03 4.792757e+03 4.079714e+03 5.632513e+03 9.713396e+03 8.393457e+03 1.207919e+04 7.496101e+03 8.304662e+03 4.937849e+03 6.931945e+03 6.559332e+03 5.106047e+03 3.920190e+03 1.758536e+03 4.962671e+01 1.180721e+03 -2.282331e+03 7.580662e+01 2.713028e+03 3.067112e+03 4.765197e+03 4.911582e+03 4.034805e+03 3.235893e+03 1.867839e+03 8.587922e+02 2.002875e+03 -1.789255e+03 -9.528500e+02 1.304423e+03 1.692723e+03 1.431262e+03 5.167498e+03 3.887675e+03 7.860056e+03 6.325312e+03 2.122688e+03 -5.127729e+03 1.248605e+03 2.414055e+03 -2.053154e+03 2.646546e+03 4.112618e+03 7.932595e+03 1.019977e+04 
1.928662e+02 1.442530e+04 5.879337e+03 1.866075e+04 1.601526e+04 1.649233e+04 4.792205e+03 -4.787230e+03 4.186902e+03 -7.575560e+02 6.693864e+03 -6.935701e+02 5.108290e+03 2.494958e+03 6.368425e+03 4.719994e+03 9.991552e+03 6.238889e+03 7.698857e+03 5.085753e+03 6.018149e+03 5.054926e+03 8.478604e+03 6.034350e+03 9.421081e+03 5.432108e+03 7.184000e+03 3.783063e+03 5.880941e+03 3.698656e+03 4.599576e+03 2.283984e+03 2.506332e+03 7.372166e+01 2.005174e+03 -8.898034e+02 1.546611e+03 1.850872e+03 2.866158e+03 4.025219e+03 4.239492e+03 4.280311e+03 3.894595e+03 3.627505e+03 2.881587e+03 4.090053e+03 2.479081e+03 3.220824e+03 4.908810e+03 5.415682e+03 5.950967e+03 9.152610e+03 7.266278e+03 1.174243e+04 8.269575e+03 1.231707e+04 -6.485742e+03 -2.560980e+03 1.780166e+04 1.408213e+04 7.006253e+03 8.977543e+03 6.795137e+03 1.253756e+04 
-3.113613e+03 2.015552e+04 1.131044e+04 6.299402e+03 1.238716e+04 7.180630e+03 -8.323455e+03 -1.081011e+04 9.999282e+02 -1.256602e+03 4.149818e+03 -1.065575e+03 1.979136e+03 1.701192e+03 4.824191e+03 3.870114e+03 7.565183e+03 5.027286e+03 6.786218e+03 5.107765e+03 6.336107e+03 5.686064e+03 7.874175e+03 6.516859e+03 8.578853e+03 6.079429e+03 7.327762e+03 5.192484e+03 6.098360e+03 4.854901e+03 4.742470e+03 3.310418e+03 3.479145e+03 2.188901e+03 3.280011e+03 1.130677e+03 1.944299e+03 2.538866e+03 2.561406e+03 3.198098e+03 3.047144e+03 3.140249e+03 2.281698e+03 2.521378e+03 1.276671e+03 2.232931e+03 5.258523e+02 1.651240e+03 1.357634e+03 2.731481e+03 1.844833e+03 4.282139e+03 2.590094e+03 6.132737e+03 1.393246e+03 1.145583e+04 -7.779269e+03 -1.371796e+04 -1.096415e+04 -1.421137e+04 7.418118e+03 -4.765432e+03 6.694697e+03 -6.414482e+03 
-1.259217e+04 1.083158e+04 1.767838e+04 1.351289e+04 3.152288e+04 1.518258e+04 4.399628e+03 -7.045998e+02 7.699177e+03 -6.279610e+02 6.897184e+03 5.318822e+02 4.845561e+03 2.207981e+03 6.720188e+03 3.525452e+03 7.982443e+03 4.730931e+03 7.208843e+03 4.451916e+03 6.696178e+03 4.457738e+03 7.020763e+03 4.576350e+03 6.976177e+03 4.247468e+03 6.128872e+03 3.446435e+03 5.213110e+03 2.843713e+03 4.307992e+03 1.747408e+03 3.864351e+03 1.377736e+03 4.070314e+03 1.381454e+03 3.029047e+03 1.760703e+03 2.395548e+03 3.544406e+03 3.115375e+03 3.991242e+03 3.179330e+03 3.904718e+03 3.278726e+03 4.520193e+03 3.717670e+03 4.737269e+03 5.116593e+03 5.550258e+03 6.297444e+03 7.598238e+03 5.405197e+03 8.468673e+03 3.559758e+03 1.291017e+04 -4.756904e+03 -8.782457e+03 -3.921315e+03 -7.142661e+03 7.186298e+03 1.339253e+03 1.371510e+03 -9.499249e+03 
1.116247e+04 1.799058e+04 1.696783e+04 2.003763e+04 1.697715e+04 8.863400e+03 6.813583e+03 1.916738e+03 5.115753e+03 6.113957e+02 3.438153e+03 2.095083e+03 7.140809e+03 3.861724e+03 6.587210e+03 3.822293e+03 7.188217e+03 3.916270e+03 6.326425e+03 4.749147e+03 6.390394e+03 5.347725e+03 6.848996e+03 5.825957e+03 7.044314e+03 5.225281e+03 6.250294e+03 4.712615e+03 5.241457e+03 3.671774e+03 3.970399e+03 2.311488e+03 4.093071e+03 3.506068e+03 5.748043e+03 2.028923e+03 1.973129e+03 2.881488e+03 9.862384e+02 2.195478e+03 2.193883e+03 3.004106e+03 1.570955e+03 2.752590e+03 1.448189e+03 2.707129e+03 1.057367e+03 2.471948e+03 1.768009e+03 2.925015e+03 2.297018e+03 2.095583e+03 2.494577e+03 3.857883e+03 2.917054e+03 8.307961e+03 9.285890e+03 1.176088e+04 -7.865675e+03 6.677570e+03 -1.886807e+03 1.084411e+04 -9.085889e+02 -2.162226e+04 
-3.536820e+04 -1.138857e+04 1.587596e+04 1.038108e+04 1.012457e+04 1.079759e+04 7.814902e+03 4.693247e+03 5.187829e+03 -1.283341e+03 5.987044e+03 7.527290e+02 5.112441e+03 3.317313e+03 6.747674e+03 4.274317e+03 6.257597e+03 4.065821e+03 6.524107e+03 3.733530e+03 6.623489e+03 3.734431e+03 5.877917e+03 3.582992e+03 5.303576e+03 3.484178e+03 5.164364e+03 2.887923e+03 4.994818e+03 2.122453e+03 4.010017e+03 9.740206e+02 4.281880e+03 3.035152e+02 3.222780e+03 2.925276e+03 2.537379e+03 2.408005e+03 -3.532739e+02 2.657935e+03 2.783465e+03 2.637235e+03 2.702213e+03 3.769014e+03 3.517879e+03 4.768254e+03 3.718459e+03 5.465424e+03 2.822638e+03 4.619156e+03 7.423129e+03 5.022424e+03 5.001046e+03 1.093802e+04 -2.918849e+03 8.847484e+03 -4.386288e+03 7.521913e+03 -6.344209e+03 3.296011e+03 -9.680435e+03 4.053771e+03 -2.018066e+04 7.222713e+03 
-1.095626e+04 -1.664895e+04 9.972775e+03 -1.804371e+03 7.637060e+03 7.749096e+03 8.835242e+03 -6.605276e+00 1.302438e+03 -1.114569e+03 1.518523e+03 -2.256622e+03 6.623014e+03 1.375074e+03 7.376817e+03 3.748789e+03 6.205315e+03 4.462300e+03 5.798166e+03 3.927300e+03 5.391282e+03 4.768683e+03 6.010609e+03 5.649651e+03 6.327030e+03 4.669740e+03 5.372184e+03 4.524270e+03 4.506251e+03 3.119291e+03 3.960430e+03 3.986990e+02 2.532631e+03 -5.255900e+03 9.888384e+01 -3.574574e+03 -5.604048e+03 -1.333946e+03 -9.747041e+02 2.848167e+03 7.142493e+02 4.237608e+03 1.971468e+03 2.238252e+03 1.800661e+03 2.976407e+03 7.110855e+02 2.683097e+03 -8.668294e+01 1.717297e+03 -2.104339e+03 -3.720275e+03 1.263735e+03 7.780539e+03 -3.023266e+03 8.416643e+02 -6.493760e+02 9.612555e+03 -6.213926e+03 9.449131e+03 -2.319910e+04 9.560579e+03 -6.013264e+03 2.032169e+04 
-1.020724e+04 -7.206990e+03 1.319081e+04 1.885320e+03 1.709325e+04 8.516802e+03 6.600714e+03 -2.486934e+03 1.172482e+04 1.037417e+04 6.158693e+03 2.968962e+03 7.424763e+03 2.294421e+03 7.222487e+03 6.109340e+03 5.149579e+03 2.659261e+03 6.027447e+03 2.095031e+03 7.135838e+03 2.883675e+03 4.423415e+03 2.322889e+03 1.693876e+03 2.882610e+03 3.961918e+03 2.772102e+03 4.028564e+03 1.602241e+03 3.686480e+03 -3.412562e+02 2.282220e+03 -2.012358e+03 -5.696612e+01 -3.262339e+03 -1.335902e+03 1.524463e+02 -1.292588e+02 2.410134e+03 1.426139e+03 3.871218e+03 2.501540e+03 3.729194e+03 4.076139e+03 4.396484e+03 4.055826e+03 4.904690e+03 3.373736e+03 -2.266293e+02 1.278320e+03 3.570436e+03 8.224953e+03 5.430700e+03 -1.981948e+04 1.166143e+04 -7.596324e+03 1.149482e+04 -1.024590e+04 1.850077e+04 -9.500701e+03 1.247410e+04 -2.544847e+04 -9.104490e+03 
2.323458e+04 8.719862e+02 6.852103e+03 1.980257e+03 9.864964e+02 -1.966857e+03 -9.051395e+02 -4.836032e+03 1.260582e+04 -1.049703e+03 4.935215e+03 3.354853e+03 3.377223e+03 5.088070e+03 5.807369e+03 2.524674e+03 5.280794e+03 4.773181e+03 4.228054e+03 1.194909e+03 3.818121e+03 3.358929e+03 4.784649e+03 3.343441e+03 2.993701e+03 4.969296e+03 4.581104e+03 5.150964e+03 3.219676e+03 4.079728e+03 3.489495e+03 9.985738e+02 2.942791e+03 6.954780e+02 8.990257e+02 3.808118e+03 5.247556e+03 1.196143e+03 2.230654e+03 2.262432e+03 3.445776e+03 2.360005e+03 3.327170e+03 1.477326e+03 2.258597e+03 2.251698e+03 -5.959951e+02 -1.387332e+03 4.116868e+02 -9.424128e+03 -9.180956e+03 -7.651991e+03 -1.710415e+03 -1.755828e+04 2.948614e+02 4.915727e+03 -1.814389e+03 4.950045e+03 4.780743e+03 1.782450e+04 -2.842765e+04 2.348445e+04 -1.660083e+04 -1.412291e+04 
7.891471e+03 9.634664e+02 -1.267130e+04 -6.696987e+03 -1.835638e+04 4.137786e+02 2.542592e+02 -9.185776e+03 1.871160e+03 -1.804028e+03 -1.797484e+03 1.454472e+03 -9.342735e+02 -1.151370e+03 2.805518e+03 -2.299909e+02 3.251148e+03 1.377472e+03 7.267314e+03 -1.068970e+03 4.411162e+03 2.935217e+03 3.632494e+03 2.469826e+03 -2.317870e+03 1.852843e+03 3.806719e+03 1.520895e+03 3.129316e+03 1.525754e+02 3.628951e+03 -2.390058e+03 3.474106e+03 9.409498e+02 3.050898e+03 3.652321e+03 5.050910e+03 2.326318e+03 1.832928e+03 1.808669e+03 2.982396e+03 2.214286e+03 1.970536e+03 2.446706e+03 2.291296e+03 2.221372e+03 2.583105e+03 4.351550e+03 1.575662e+03 -9.120502e+03 -4.615006e+03 3.119661e+03 1.703143e+03 -6.576756e+03 -1.581377e+04 4.178557e+03 -1.608562e+04 6.890985e+03 -1.588283e+04 1.028870e+04 -1.799059e+03 1.318676e+04 1.867165e+04 1.778764e+04 
5.356272e+03 7.928896e+03 -1.122579e+04 -2.078989e+04 1.659964e+04 -2.431318e+03 1.464946e+04 1.431539e+04 1.262500e+04 1.597085e+03 8.167065e+03 2.902528e+03 6.500163e+03 -1.829479e+03 7.699732e+03 8.302331e+02 4.454783e+03 -9.572103e+02 4.937561e+03 8.886712e+02 5.006052e+03 3.151803e+03 6.876111e+03 4.440209e+03 4.022334e+03 7.962822e+03 5.378547e+03 5.354837e+03 4.313697e+03 4.013282e+03 6.213650e+02 1.119075e+03 3.540889e+03 1.864724e+03 -5.412789e+02 3.164301e+03 4.668816e+03 -1.542609e+03 4.941296e+03 1.900360e+03 5.431333e+03 -1.022311e+02 3.076944e+03 2.366582e+03 1.803771e+03 1.076232e+02 -1.456549e+02 2.522902e+03 -3.127647e+02 8.031129e+03 5.578831e+03 -8.499305e+03 -1.382644e+03 -1.651162e+04 1.985891e+03 3.453124e+03 -1.346923e+04 -1.355654e+04 -1.663331e+04 1.291423e+04 -1.717364e+04 1.277946e+04 -6.791177e+03 1.454434e+03 
1.493944e+04 1.682756e+04 1.293527e+04 -1.001117e+04 2.465227e+04 2.033916e+03 6.589066e+03 -2.007190e+02 4.488820e+03 -1.351898e+03 3.629305e+03 2.223840e+03 5.759786e+03 1.412073e+03 7.921651e+03 1.621452e+03 6.894536e+03 3.781112e+03 8.277698e+03 -3.253330e+03 -1.561190e+03 -1.090534e+02 3.545145e+02 -1.307394e+03 -6.272487e+03 5.032011e+03 4.375999e+03 2.687740e+03 2.307490e+03 -1.556816e+03 6.017673e+03 3.660620e+03 7.185484e+03 4.071354e+03 3.640125e+03 1.188316e+03 4.093414e+02 -1.789950e+03 5.870425e+03 1.462205e+03 3.384649e+03 2.719813e+03 4.335023e+03 1.107481e+03 2.042205e+03 5.179329e+02 1.569206e+03 2.593111e+03 1.916019e+03 1.403711e+03 3.533583e+03 -3.349578e+02 4.706010e+03 1.071854e+04 8.173439e+03 2.096878e+03 1.582601e+04 7.867328e+03 -3.512401e+04 2.318563e+04 1.471201e+04 2.851760e+04 9.670720e+03 8.065199e+03 
1.186609e+04 1.318020e+03 -4.547282e+03 -2.177757e+04 2.195290e+04 4.413501e+03 1.233640e+04 5.233493e+03 1.203549e+04 8.460623e+03 9.750671e+03 6.941765e+03 1.169636e+04 6.293848e+03 1.152601e+04 4.593183e+03 1.137713e+04 -4.999593e+03 5.364729e+03 3.055363e+03 7.078339e+02 5.479787e+02 2.765347e+03 8.021616e+02 -1.055915e+04 -3.144402e+03 -1.130051e+03 1.008969e+03 -4.815716e+03 -2.599766e+03 -3.613508e+03 -2.048582e+03 -2.889925e+03 4.905042e+03 -1.253125e+03 -5.042423e+03 3.931302e+03 -1.067632e+04 2.831891e+03 4.152157e+03 5.822930e+03 2.014794e+03 1.235588e+03 1.438255e+03 -1.347023e+03 -1.908874e+03 -2.229250e+02 1.235500e+03 3.555732e+03 2.287272e+03 5.549665e+03 -3.840441e+03 2.018982e+03 -6.946757e+03 4.148234e+03 -6.647139e+03 1.076042e+04 -5.148165e+04 -7.914199e+04 -2.624839e+04 -1.715427e+04 6.146047e+03 -2.909035e+04 5.255946e+03 
-1.928830e+03 2.044753e+03 -3.507157e+03 1.931386e+03 1.544849e+04 -8.707327e+02 8.364046e+03 -6.004805e+03 -2.898222e+02 2.746778e+03 3.060058e+03 2.176581e+03 3.984562e+03 3.103368e+03 7.425286e+03 1.002707e+03 5.066454e+03 -5.753496e+03 -7.947000e+03 8.814005e+03 7.944600e+02 6.095567e+03 3.493866e+03 -1.517176e+03 -3.613891e+03 8.277993e+03 4.857449e+03 6.533816e+03 -3.517920e+03 -1.111890e+04 -6.112152e+03 -9.945523e+03 5.601374e+02 -7.966069e+03 -1.200857e+03 -2.075651e+03 1.294013e+04 1.722778e+03 -1.758897e+03 5.546170e+03 8.648474e+02 2.829437e+03 4.999235e+03 2.256142e+03 4.831411e+03 -3.470785e+03 3.473948e+03 7.201227e+02 -1.712705e+03 -1.579811e+03 2.705440e+03 -1.364011e+02 -2.754419e+03 3.861966e+03 6.806303e+03 -1.178594e+04 4.946701e+03 -3.237802e+04 -6.867149e+04 -1.327292e+04 -1.879141e+04 -1.945740e+03 -6.204163e+03 7.376470e+03 
1.249019e+04 -1.836417e+04 1.866975e+03 -2.525382e+03 1.233854e+04 6.281694e+03 1.377010e+04 -1.553144e+03 6.320279e+03 8.754959e+03 1.145097e+04 4.731212e+03 7.874764e+03 3.572159e+03 9.886801e+03 3.757556e+03 4.159121e+03 2.995834e+03 -5.472684e+03 2.207040e+03 2.488781e+03 3.950035e+03 9.800331e+01 -2.266172e+03 1.391341e+03 2.576213e+03 1.570151e+03 -4.477985e+03 -2.176119e+03 3.630239e+03 -8.202234e+02 -1.493904e+03 -7.339581e+03 -6.156481e+03 -7.694600e+03 -3.216643e+03 4.193866e+02 -2.090982e+03 2.283065e+03 -3.178995e+02 1.110222e+03 -3.545651e+03 2.914730e+03 1.816886e+03 5.950373e+03 6.882105e+02 4.021980e+03 7.038655e+02 7.255678e+03 -6.128142e+02 2.303270e+03 2.231789e+03 -2.393558e+03 -2.377172e+03 -2.673965e+03 -1.376969e+04 -2.278525e+04 1.931659e+04 1.089063e+04 4.609500e+03 -6.532071e+03 -1.288555e+04 -2.273656e+04 -1.783252e+04 
-2.471482e+04 3.104463e+03 1.875684e+03 2.816936e+02 5.635216e+03 1.350711e+03 -1.991822e+03 -1.137239e+04 -2.644467e+01 -1.041895e+04 -8.207673e+03 -6.058448e+03 5.087530e+03 -6.622243e+03 5.611303e+03 2.012074e+03 7.227678e+03 3.619134e+03 4.365429e+03 -1.595212e+03 6.923873e+02 -1.970260e+03 2.460958e+02 1.753262e+03 -3.458556e+03 9.478261e+02 -2.959565e+03 -3.117894e+03 -3.903960e+03 -1.418229e+03 -1.299453e+03 -3.672314e+03 1.117169e+04 -3.661186e+03 -7.436324e+03 -6.837485e+03 3.472932e+03 -1.012842e+04 -1.532248e+03 1.641294e+03 3.985090e+03 1.303661e+03 1.392596e+02 2.124937e+03 4.645341e+03 -4.935126e+03 6.194923e+03 -3.722159e+03 -5.080142e+03 3.391614e+03 6.458452e+03 -1.040966e+03 -2.786028e+03 4.679559e+03 1.401938e+03 -1.434191e+03 -3.123099e+03 -2.332058e+03 -3.293583e+04 -1.777415e+04 -9.619653e+03 1.065174e+03 5.037025e+03 2.420618e+03 
4.251663e+03 4.529101e+03 -4.624414e+03 -2.619970e+03 1.621268e+04 3.636400e+03 1.064758e+04 -1.338322e+04 5.041960e+03 1.546041e+03 9.912182e+02 2.386817e+03 7.337213e+03 3.697637e+03 6.909658e+03 2.365277e+03 1.927415e+03 5.073029e+03 6.316993e+03 4.237871e+03 5.888714e+03 2.084240e+03 3.963253e+03 9.247154e+03 -1.918061e+03 -9.125714e+02 4.551986e+02 -1.362785e+03 -2.389423e+03 1.371514e+03 7.264839e+02 -7.301315e+02 1.030424e+04 -3.038474e+03 -8.134260e+03 -6.047895e+02 3.017253e+03 -3.380675e+03 -8.412451e+03 -3.566205e+03 -3.832703e+03 1.886697e+03 2.718858e+03 -6.119385e+02 1.546284e+03 -2.604707e+03 3.992434e+03 -4.650696e+02 2.686240e+03 5.598732e+03 -2.774630e+03 4.281072e+03 -2.630134e+02 2.829645e+03 -2.618643e+02 -3.133640e+03 1.729736e+03 9.046181e+03 -1.413112e+04 -1.060028e+04 -1.710856e+04 -1.262764e+04 -9.082315e+03 -9.306500e+03 
-5.051529e+03 -1.874491e+04 2.550086e+02 -4.987857e+03 1.269489e+04 -1.088839e+04 1.270688e+04 -6.246571e+03 7.690050e+03 7.508811e+03 6.100268e+03 1.706874e+03 4.046118e+03 -2.963011e+03 3.714407e+03 -4.405588e+03 -1.012706e+03 -1.518395e+03 4.115075e+03 1.540319e+03 2.611876e+03 8.223915e+02 6.719974e+02 2.591335e+03 4.848291e+03 -1.562809e+03 3.557571e+02 -1.785226e+03 -4.321294e+03 1.990166e+02 3.579178e+03 2.296543e+03 7.378754e+03 3.522041e+03 1.245697e+03 1.185618e+03 2.624356e+02 4.360963e+03 1.252798e+03 -4.898426e+03 -3.625098e+03 1.250661e+03 1.586193e+01 1.049350e+03 5.283521e+03 5.853907e+03 4.612270e+03 1.974205e+03 -6.230676e+01 1.710784e+03 -2.804598e+02 2.705901e+03 -1.167756e+03 -1.924783e+03 -2.108338e+03 -5.714765e+03 6.599515e+02 2.059281e+03 -1.847094e+04 -1.448306e+04 -3.864397e+03 -3.500345e+03 1.132329e+04 1.012499e+04 
7.115976e+02 3.260653e+03 -4.348519e+04 -1.483303e+04 3.363182e+04 -3.075479e+03 1.621412e+04 -8.833044e+03 2.911242e+03 5.236887e+03 4.254976e+03 1.094015e+04 4.817881e+03 5.965220e+03 7.597791e+03 5.348844e+03 5.130314e+03 5.004722e+03 7.955893e+03 3.502220e+03 6.830546e+03 5.307852e+03 7.924909e+02 5.755585e+03 1.478915e+03 1.398227e+03 -1.650654e+02 -2.759497e+03 3.407546e+02 1.614712e+03 2.533084e+03 -1.726713e+03 1.022057e+04 -8.054601e+03 -6.470160e+03 -7.449681e+03 -7.951060e+03 -5.439269e+03 1.781394e+03 -2.038870e+03 3.616915e+03 2.078155e+03 5.208534e+03 8.872762e+02 4.077650e+02 -3.287949e+02 2.405144e+03 1.540624e+03 2.537632e+03 3.387444e+03 9.845921e+02 4.002813e+03 -5.056050e+03 2.464951e+03 7.869843e+02 -4.403594e+03 -7.101180e+03 1.345766e+03 2.294801e+03 -9.542678e+03 -9.517308e+03 -2.535523e+04 -1.034224e+04 -3.098469e+04 
8.261281e+03 1.835261e+04 4.316622e+03 -2.268410e+04 2.435581e+04 -4.469877e+03 1.116829e+04 3.285812e+03 4.195165e+03 -1.988822e+03 6.172917e+03 5.745395e+03 2.946459e+03 4.572769e+03 5.188400e+03 3.301960e+03 3.923477e+03 4.494341e+03 3.811799e+03 2.356457e+03 2.355369e+03 4.868715e+03 1.253887e+03 6.965745e+03 4.385156e+03 4.387196e+03 2.785835e+03 -6.715739e+03 -5.584047e+03 1.214509e+03 3.128258e+03 1.162657e+03 4.264221e+02 -4.199147e+03 -5.755165e+03 -5.162332e+03 -8.647498e+03 -4.376559e+03 -2.070723e+03 -2.792901e+03 2.689596e+03 8.157070e+02 2.815161e+03 -8.661590e+01 1.740399e+03 2.145170e+03 2.044475e+03 9.194210e+02 2.785347e+03 6.850076e+01 -8.183308e+03 2.365792e+01 -5.192834e+02 -1.291102e+02 -1.111809e+04 -1.149611e+03 3.771359e+03 8.587474e+02 -4.710317e+03 -3.063106e+03 4.712693e+03 -2.832942e+03 -5.126874e+04 -2.074005e+04 
1.089728e+04 1.461412e+04 -5.323569e+03 -2.946803e+03 1.418912e+04 -1.112920e+03 5.146443e+03 7.495815e+02 1.331427e+04 2.143841e+03 8.472269e+03 2.965197e+03 4.421286e+03 6.714097e+03 7.115407e+03 5.593680e+03 5.764150e+03 4.763228e+03 5.973900e+03 2.927294e+03 3.546934e+03 3.748123e+03 2.940425e+03 5.222476e+03 7.510714e+02 1.770981e+03 -1.393905e+03 -6.773168e+03 -6.960437e+03 6.789418e+01 5.038163e+03 2.164607e+03 8.081626e+03 6.256532e+02 -2.934599e+03 -2.159375e+03 -5.199527e+03 -6.259319e+02 -3.265062e+03 -3.413997e+03 7.578176e+03 -1.047284e+03 8.221326e+03 5.276277e+03 -8.948567e+02 1.620571e+03 -9.943662e-01 1.616755e+01 -1.294015e+03 -2.651738e+03 -5.825365e+02 -2.747319e+03 -2.259471e+03 2.281107e+03 3.278530e+02 -7.203426e+03 -4.813780e+01 -1.032848e+04 1.139097e+04 -1.444104e+04 -8.077633e+03 8.129698e+03 -2.643466e+04 -7.430165e+03 
-3.117453e+04 -1.555367e+04 -3.396978e+03 -1.150711e+04 -1.439351e+03 -7.871140e+03 3.878001e+03 -9.284483e+03 7.670526e+03 5.187767e+02 6.094047e+03 5.170974e+03 8.206549e+03 5.174545e+03 6.018397e+03 4.069573e+03 4.299140e+03 3.699685e+03 3.345616e+03 3.594880e+03 1.439945e+03 1.302093e+03 8.019187e+02 4.784612e+02 9.187881e+02 -2.655199e+03 -2.336534e+03 2.493349e+02 3.127763e+03 -1.346508e+03 4.003187e+02 -2.873118e+03 1.054650e+03 -2.048684e+03 1.923763e+03 3.616196e+03 -4.672092e+03 2.413159e+03 -6.066268e+03 -2.091324e+03 8.165867e+03 6.337041e+02 5.923738e+03 3.224962e+03 -1.150240e+03 1.291060e+03 7.514965e+02 2.080458e+03 -1.458238e+03 9.400278e+02 2.819419e+03 2.147127e+03 -4.738659e+03 2.365666e+03 -6.036509e+02 6.463679e+02 -1.213097e+04 -1.746271e+03 5.961883e+03 -1.472382e+04 -3.952721e+03 -1.770429e+04 7.953799e+02 -1.051589e+04 
-2.749571e+04 -1.175598e+03 2.224271e+03 -8.850449e+03 3.491619e+03 -4.642418e+03 3.725602e+03 -4.023033e+03 3.689626e+03 -1.210111e+03 4.833879e+03 2.934754e+03 5.679930e+03 5.778783e+03 6.058105e+03 4.025981e+03 4.426137e+03 3.618797e+03 3.844364e+03 3.787571e+03 1.752743e+03 2.056436e+03 2.215671e+03 2.886970e+03 2.530649e+02 2.004926e+03 -3.270608e+02 -9.833140e+02 1.810568e+02 -6.452880e+02 4.036938e+03 -1.256930e+02 4.526247e+03 -2.709399e+03 -2.021135e+03 2.494345e+03 6.917308e+02 4.643035e+03 4.679644e+03 4.942323e+03 2.059514e+03 -1.221334e+02 1.850041e+03 1.992506e+02 -5.350464e+03 -3.356171e+03 -5.534826e+03 -5.968141e+03 4.508070e+03 2.612180e+02 1.193527e+03 -1.928096e+03 6.314261e+01 -1.395646e+03 -4.990753e+03 4.446323e+03 3.175073e+02 3.927905e+03 -1.235799e+03 -2.149009e+04 -1.830182e+04 -1.063189e+04 -1.047463e+04 1.919285e+04 
-6.018198e+03 1.809101e+04 -9.982080e+02 7.409699e+02 6.080862e+03 -8.258801e+02 8.861837e+03 4.111362e+03 9.373675e+03 3.566292e+03 8.170859e+03 4.136012e+03 8.821013e+03 7.604726e+03 5.589085e+03 3.579504e+03 3.294631e+03 2.670235e+03 2.012474e+03 2.914567e+03 1.759402e+03 6.350202e+02 1.307151e+03 1.276405e+03 1.784158e+03 2.203264e+03 4.772730e+02 -5.539575e+03 -2.398750e+03 -1.402055e+03 2.786982e+03 -2.711994e+02 2.831047e+03 -4.330842e+03 -3.404318e+03 1.108978e+03 -1.519226e+03 1.666289e+03 -1.652159e+03 -3.084654e+02 -1.394656e+03 -2.981693e+02 2.274560e+01 -9.848019e+02 -6.148282e+03 -1.687811e+03 -9.813097e+03 -4.108756e+03 4.260389e+03 1.402189e+03 -1.073946e+03 -3.849581e+02 -1.134573e+03 -4.677619e+03 -1.157234e+04 -3.649985e+03 -5.039112e+03 -7.275467e+03 -4.400501e+03 -1.727031e+04 -1.708147e+04 -5.120482e+03 -2.438307e+04 1.824094e+04 
-5.647393e+03 4.853894e+03 2.508345e+03 -1.028038e+03 5.324095e+03 -3.030749e+03 4.610133e+03 -1.561727e+03 4.848253e+03 3.232095e+03 6.512667e+03 6.925021e+03 9.357853e+03 3.144603e+03 -2.187255e+03 -1.353599e+02 6.487460e+02 1.233074e+03 1.490302e+03 1.963880e+03 2.207860e+03 1.508422e+03 1.787881e+03 1.109833e+03 5.582541e+02 1.093987e+03 -1.942378e+03 -3.454490e+03 -3.186503e+03 6.939584e+02 4.200901e+03 3.460292e+03 1.513976e+03 2.775910e+03 3.734729e+03 3.820730e+03 2.839256e+03 3.877631e+03 3.743466e+03 1.964378e+03 4.560401e+01 -1.854778e+03 -6.943522e+03 -7.363286e+03 -9.192794e+03 -4.294405e+03 -2.361696e+03 -6.473035e+03 -1.971302e+02 -1.374648e+03 1.125276e+03 4.692008e+02 2.765669e+03 5.627790e+03 4.398501e+03 8.455434e+01 7.545227e+02 -1.851014e+02 -2.368461e+03 -7.230500e+03 -2.752195e+03 4.210437e+03 5.481974e+03 -1.235096e+03 
-2.124540e+04 1.508858e+04 2.146235e+03 2.873343e+03 1.448407e+04 -4.240504e+02 9.984232e+03 1.950566e+03 7.485419e+03 2.646362e+03 7.110751e+03 2.845129e+03 7.238385e+03 -6.998502e+02 -7.169694e+03 -2.830259e+03 -7.144286e+02 3.246511e+01 1.046338e+03 1.412218e+03 2.158483e+03 2.366500e+03 1.981761e+03 8.070144e+02 1.111379e+03 2.104896e+03 2.186516e+03 1.707822e+03 3.149208e+03 9.177594e+02 -1.194644e+03 -1.197323e+03 1.409865e+02 -1.648286e+03 -1.011005e+03 8.186197e+02 1.834165e+02 1.599138e+03 1.263761e+03 8.400926e+02 -1.283271e+03 -2.747471e+03 -5.530337e+03 -9.297626e+03 -7.597612e+03 5.891111e+02 4.689410e+03 2.200634e+02 6.796239e+02 -1.001484e+03 2.958483e+03 -9.862860e+02 6.610519e+02 -5.450835e+03 -1.878592e+04 -6.499513e+03 -6.826359e+02 -7.767542e+02 -1.409293e+03 -7.112300e+03 2.694843e+03 -4.228315e+03 2.132348e+03 2.708368e+03 
-1.698682e+03 -2.412509e+03 -2.182249e+03 -5.699755e+03 -2.356830e+03 -2.156361e+03 3.477662e+03 -1.216391e+03 2.724820e+03 -1.505491e+03 1.771560e+03 -4.093019e+03 1.341996e+03 -1.021749e+04 -1.242223e+04 -6.161541e+03 -2.685901e+03 -2.019955e+03 8.782604e+02 1.499894e+03 1.076126e+03 1.450755e+03 -5.649253e+02 1.647543e+03 -6.535433e+02 6.149115e+02 -6.375453e+02 2.820822e+02 -7.899816e+02 2.101930e+03 -5.367369e+02 8.613080e+02 2.646713e+03 3.258835e+03 2.744509e+03 2.681297e+03 2.439193e+03 3.126585e+03 2.534580e+03 2.371408e+03 1.460474e+03 7.616309e+02 9.937427e+01 -1.079258e+03 -6.387128e+02 2.535349e+03 2.735410e+00 -1.831084e+03 -9.949243e+02 2.922616e+03 4.294111e+03 4.297806e+03 -3.344234e+03 -1.703983e+03 -7.032582e+03 -1.393801e+03 1.416289e+03 -2.239095e+03 1.861140e+03 -1.414156e+02 2.619587e+03 1.625940e+03 3.877975e+03 -1.725844e+04 
-3.378096e+04 4.604291e+03 7.457538e+03 -1.708268e+03 9.077719e+03 -4.655795e+03 6.932947e+03 2.233604e+03 5.012536e+03 -1.897433e+03 3.045025e+03 -2.849936e+03 3.177447e+03 -1.000814e+04 -6.116084e+03 -5.835157e+03 -1.228370e+03 -1.278900e+03 1.121422e+03 1.042881e+03 1.203283e+03 9.674304e+02 1.250500e+03 1.488116e+03 7.568226e+02 1.312521e+03 2.225941e+03 6.470452e+02 1.693155e+03 1.306350e+03 2.054317e+02 1.104811e+03 3.198586e+02 -5.651151e+02 1.330201e+02 3.476273e+02 -9.238637e+00 1.078300e+03 8.483434e+02 7.290174e+02 -2.169860e+03 -6.453159e+02 -7.703444e+02 -3.505212e+03 -5.219428e+03 -1.533392e+03 -2.627492e+03 -7.139482e+03 -3.962248e+03 -1.473434e+03 1.406400e+02 9.578340e+02 -1.099317e+03 -2.297837e+03 -5.939245e+03 -4.408014e+03 -2.007500e+03 -2.391411e+03 -1.536457e+03 -5.130334e+03 -1.889714e+03 -4.169210e+03 -2.161427e+03 -1.093454e+03 
-2.892136e+03 -2.335227e+02 -2.190394e+04 -9.597959e+03 1.172156e+04 -4.597157e+03 -4.844720e+03 -3.048001e+03 -5.064514e+03 -5.319114e+03 -1.555280e+03 -5.528798e+03 -3.606713e+02 -4.137456e+03 7.041489e+01 -2.245308e+03 6.374265e+02 8.602901e+02 5.063717e+02 1.064428e+03 7.084983e+02 1.783305e+03 1.288788e+03 1.522294e+03 3.732678e+02 3.206964e+02 -1.257298e+02 1.305053e+03 -7.337454e+02 1.507358e+03 1.069793e+03 1.768065e+03 2.175054e+03 2.373128e+03 2.043164e+03 2.697801e+03 1.807684e+03 2.183404e+03 1.825736e+03 3.174033e+03 2.240633e+03 1.965137e+03 3.907128e+03 2.394166e+03 4.161260e+02 2.575395e+03 9.541508e+02 7.297623e+01 1.345834e+03 1.762576e+03 1.276833e+03 5.143273e+03 -3.078840e+03 2.352660e+03 7.855357e+02 -3.664481e+03 -6.630481e+03 -1.749451e+03 6.054830e+03 3.431695e+03 1.649322e+03 -1.798221e+03 3.484845e+03 1.130530e+04 
-8.858129e+03 -1.512399e+03 -1.368251e+04 -2.175028e+04 5.586008e+03 1.076411e+03 2.159142e+03 1.211180e+02 -1.185817e+03 -6.012171e+03 -2.344790e+03 -5.755708e+03 -4.302034e+02 -5.247711e+03 -1.742374e+03 -3.668440e+02 8.947352e+02 5.320661e+02 1.201648e+03 1.622237e+03 1.594574e+03 1.634219e+03 2.028229e+03 1.543773e+03 1.762676e+03 1.089563e+03 1.408818e+03 1.975088e+03 1.626332e+03 9.987409e+02 9.150497e+02 2.764819e+02 2.812968e+02 2.980995e+02 -5.839942e+02 6.237421e+02 -1.240770e+03 1.074696e+03 -1.471160e+03 9.544328e+02 -1.620252e+03 2.348128e+02 -1.675718e+03 -6.423502e+03 -5.045294e+03 -2.475416e+03 -1.931332e+03 -2.560491e+03 -1.801643e+03 -2.747132e+03 -3.307880e+03 -2.452008e+03 -6.415058e+03 6.061267e+02 -5.470605e+03 -7.393909e+03 -1.113424e+04 -8.647077e+03 -2.695499e+03 -4.774384e+03 -3.715506e+03 -6.403255e+03 -1.376318e+02 -2.405899e+03 
-1.575011e+02 -6.113686e+03 -4.195732e+02 -2.395711e+03 -6.868184e+03 -7.860721e+02 -1.597893e+03 -2.372524e+03 -4.175759e+03 -5.275178e+03 -4.757067e+03 -6.470049e+03 7.087260e+01 -1.853139e+02 4.068802e+03 5.169859e+03 3.053037e+03 2.135062e+03 1.631822e+03 1.538448e+03 1.170732e+03 1.859575e+03 1.382415e+03 1.494288e+03 7.588728e+02 1.716580e+03 6.835279e+02 1.375315e+03 6.771140e+02 1.912484e+03 2.727198e+02 1.606928e+03 1.591841e+03 2.621123e+03 1.795857e+03 2.569556e+03 1.016261e+03 1.850509e+03 3.069520e+02 3.094856e+03 -1.164334e+02 1.903690e+03 -1.401930e+03 -1.624114e+03 -1.957724e+03 1.719306e+03 -8.927576e+02 2.062794e+03 1.398671e+03 2.768794e+03 2.135198e+03 2.453674e+02 7.592791e+02 4.464266e+03 -4.644122e+03 2.785398e+03 -4.934721e+02 3.279118e+02 -4.208340e+03 -2.832439e+02 -6.248893e+03 -1.006985e+03 -1.426502e+03 5.284772e+03 
-5.620287e+03 -7.888806e+03 7.520179e+03 1.255387e+04 -7.116682e+03 4.128989e+02 -4.225277e+02 -1.920119e+03 -2.150497e+03 -4.532267e+03 -3.384299e+03 -7.247814e+03 -1.087852e+03 -2.710923e+03 3.432560e+03 2.930100e+03 2.268548e+03 1.921036e+03 2.448045e+03 1.426466e+03 8.409821e+02 1.622333e+03 1.317903e+03 1.124331e+03 8.254229e+02 1.411628e+03 9.557257e+02 1.257533e+03 9.980584e+02 1.368161e+03 1.063415e+03 8.821277e+02 4.958063e+02 3.977173e+02 3.144550e+02 3.370558e+02 2.532176e+02 4.235679e+00 -1.333993e+03 -6.408724e+01 -5.158372e+02 -1.484271e+02 -2.416206e+03 -2.619764e+03 -3.603633e+03 1.036770e+02 -1.162590e+03 -2.787343e+03 -1.826812e+03 -2.270431e+03 -2.784150e+03 -3.755784e+03 -4.238673e+03 -3.028927e+03 -5.327630e+03 -2.328136e+02 -6.265655e+03 -9.090016e+03 -3.205697e+03 -7.656831e+02 -5.500724e+03 -7.062415e+03 3.867195e+02 -6.140514e+03 