# vtk DataFile Version 2.0
Comment goes here
ASCII

DATASET STRUCTURED_POINTS
FIELD FieldData 1
TIME 1 1 double
0.09900000
DIMENSIONS    256   256   1

ORIGIN    0.000   0.000   0.000
SPACING   0.0078125 0.0078125   1.000

POINT_DATA   65536
SCALARS P double
LOOKUP_TABLE default

-2.295948e+03 -2.004667e+03 -1.937657e+03 -3.206927e+03 1.058727e+03 1.286145e+03 1.363374e+03 1.109907e+03 -5.185916e+02 6.964596e+02 1.881425e+03 -2.625542e+01 -2.866545e+02 -1.603302e+03 -2.020353e+02 -1.091657e+02 -1.031414e+03 7.013155e+02 -3.040755e+03 1.605509e+03 -1.301773e+03 2.185627e+03 2.521155e+02 3.196405e+03 3.134704e+02 1.979372e+03 1.751844e+03 3.326294e+03 2.708079e+03 1.255745e+03 2.706717e+03 2.522073e+03 2.562272e+03 1.202825e+03 3.964372e+03 2.829737e+03 3.931378e+03 3.346149e+03 3.250119e+03 4.326650e+03 4.271027e+03 4.461917e+03 2.946336e+03 2.306840e+03 2.531351e+03 2.340381e+03 4.181484e+03 4.215873e+03 2.903151e+03 1.289001e+03 4.550783e+03 1.226610e+03 2.373446e+03 2.052746e+03 3.582816e+03 2.404568e+03 3.208196e+03 2.201287e+03 2.162486e+03 3.669782e+03 2.125689e+03 3.828034e+03 9.432010e+02 2.319706e+03 3.385926e+03 3.172664e+03 4.255422e+03 4.149667e+03 4.478900e+03 3.798219e+03 4.447377e+03 3.230341e+03 4.342124e+03 2.767050e+03 3.746656e+03 2.407986e+03 3.734180e+03 7.817944e+02 3.074605e+02 4.593621e+03 2.273139e+03 2.744717e+03 2.420493e+03 3.746631e+03 1.862350e+03 4.126407e+03 2.008780e+03 3.805831e+03 1.433681e+03 2.929837e+03 2.092001e+03 3.511167e+03 2.415235e+03 3.507758e+03 1.855117e+03 2.857075e+03 1.988530e+03 3.020271e+03 1.824826e+03 2.875858e+03 1.596396e+03 3.283698e+03 1.663699e+03 2.605040e+03 1.502145e+03 3.087012e+03 1.603530e+03 2.829510e+03 -3.548072e+02 3.724491e+03 3.202166e+03 1.939001e+03 1.682894e+03 3.549514e+03 1.932157e+03 3.786587e+03 1.558194e+03 3.297861e+03 1.835582e+03 3.382539e+03 2.582589e+03 3.089203e+03 2.618734e+03 3.289087e+03 2.274070e+03 3.356299e+03 2.777875e+03 2.274743e+03 2.129279e+03 3.277283e+03 2.319806e+03 2.848244e+03 2.904001e+03 2.711614e+03 2.631263e+03 2.289921e+03 2.298662e+03 2.328530e+03 3.035241e+03 3.259551e+03 2.912669e+03 3.602008e+03 3.160834e+03 4.267132e+03 3.240837e+03 4.798231e+03 3.591583e+03 6.272581e+03 3.352457e+03 3.125330e+03 2.395617e+03 5.280910e+03 1.578986e+03 3.668446e+03 3.740250e+03 4.846045e+03 4.977636e+03 5.707882e+03 4.845940e+03 4.977709e+03 4.444185e+03 3.554717e+03 3.504296e+03 3.837104e+03 4.269557e+03 4.079976e+03 4.969026e+03 4.531358e+03 4.874668e+03 4.546096e+03 5.895196e+03 4.414643e+03 6.554841e+03 4.023275e+03 6.057154e+03 2.883986e+03 6.506696e+03 2.443018e+03 5.248251e+03 1.958501e+03 5.154455e+03 1.140899e+02 6.111712e+03 -2.254777e+03 1.909151e+03 1.545040e+03 3.862616e+03 -1.168361e+03 8.191778e+02 -4.143806e+03 -2.621712e+02 -5.849103e+03 -1.828137e+02 4.077244e+03 2.292051e+03 -5.164917e+03 -7.728588e+02 6.849268e+03 8.232329e+02 9.226979e+02 1.716010e+03 3.639381e+03 2.226835e+03 2.255695e+03 7.256604e+02 9.634094e+02 2.606072e+03 2.522182e+03 7.236097e+02 2.883475e+03 3.329342e+02 6.219025e+02 2.356277e+03 1.437989e+03 2.707293e+03 2.071846e+03 2.202985e+03 1.736639e+03 3.102819e+03 1.773311e+03 2.676150e+03 1.496269e+03 1.588025e+03 -2.492155e+01 1.721586e+03 5.135693e+02 2.978458e+02 3.051671e+02 2.385923e+03 3.993234e+02 1.976604e+03 -1.672119e+03 -5.443933e+02 2.458666e+02 -1.472859e+03 -2.778625e+03 5.960309e+02 3.232765e+03 2.243505e+02 1.173330e+03 -1.610887e+03 1.263511e+03 -2.639190e+03 -6.529195e+02 -2.926403e+03 -1.689621e+03 -9.186212e+02 -1.885401e+03 1.257152e+03 -2.130248e+03 1.784540e+02 -2.451875e+03 -1.796582e+03 -1.593881e+03 -8.386197e+02 -5.218977e+03 
-2.721357e+03 -1.295525e+03 -3.422947e+02 -1.900743e+03 -6.014620e+02 -1.298527e+03 -1.369331e+03 5.156840e+02 -6.762351e+02 -3.351694e+03 -2.637549e+03 -3.144996e+03 -6.120651e+02 -1.553095e+03 -2.316342e+03 3.334248e+02 -3.605987e+03 -6.114832e+02 -1.770935e+03 -5.097281e+02 -8.134265e+02 2.191343e+02 -1.104477e+03 3.766407e+02 1.889691e+03 2.597942e+03 4.702358e+02 1.901302e+03 1.033303e+03 1.039856e+03 2.649812e+03 1.220759e+03 2.114280e+03 7.718422e+02 1.012457e+03 9.154834e+02 1.705385e+03 -3.570650e+01 1.317007e+03 2.505646e+03 1.387146e+03 1.665097e+03 8.592446e+02 1.143384e+03 4.407905e+02 7.991303e+02 1.090073e+03 2.234656e+03 2.115840e+03 1.351324e+03 1.960859e+03 1.337676e+03 -1.669274e+03 -1.620861e+02 2.232139e+03 1.315740e+03 2.064341e+03 1.814207e+03 1.429118e+03 1.287732e+03 7.116636e+02 1.516895e+03 -5.357931e+02 -1.384806e+03 2.602735e+03 1.121291e+03 1.660120e+03 9.734463e+02 2.344902e+03 2.102994e+03 2.628108e+03 1.773154e+03 2.645212e+03 1.588062e+03 2.049210e+03 1.685327e+03 2.052958e+03 1.281073e+03 2.133461e+03 1.644512e+03 -1.053859e+02 4.082269e+03 1.637460e+02 2.682512e+03 1.120527e+03 3.311429e+03 2.005006e+03 3.509207e+03 1.180880e+03 2.582875e+03 7.288709e+02 2.137649e+03 1.806594e+03 2.877148e+03 1.546487e+03 3.025648e+03 1.934598e+03 3.263396e+03 1.937022e+03 3.307203e+03 1.466950e+03 3.123996e+03 1.410900e+03 2.766634e+03 1.415740e+03 2.853241e+03 1.524219e+03 2.970892e+03 1.416609e+03 3.354167e+03 1.760749e+03 2.952041e+03 1.959889e+03 4.225049e+03 2.936949e+03 3.760953e+03 2.159437e+03 4.489104e+03 2.816252e+03 3.744808e+03 3.147830e+03 3.618018e+03 3.663319e+03 2.793610e+03 2.080867e+03 3.684891e+03 2.963246e+03 3.899514e+03 2.578166e+03 3.332009e+03 1.717046e+03 1.257709e+03 3.087940e+03 3.138183e+03 2.276179e+03 2.512472e+03 4.210252e+02 1.425392e+03 2.691707e+03 2.588974e+03 1.407790e+03 2.404288e+03 1.940388e+03 3.566150e+03 2.143801e+03 3.152030e+03 2.454474e+03 5.360107e+03 1.517091e+03 2.757880e+03 6.074621e+02 3.187871e+03 2.328219e+03 1.914571e+03 1.826068e+03 1.221457e+03 2.304152e+03 3.437346e+03 1.948620e+03 3.678400e+03 1.897230e+03 2.692325e+03 3.510955e+03 2.936592e+03 3.980623e+03 2.306693e+03 3.345429e+03 3.078744e+03 3.625517e+03 1.977481e+03 3.387448e+03 1.496190e+03 4.550500e+03 5.439421e+02 4.169938e+03 7.781894e+02 4.144474e+03 1.812542e+02 4.324113e+03 1.168747e+02 3.710448e+03 -3.264532e+02 2.270816e+03 1.783137e+03 4.276175e+03 -4.398437e+03 1.793899e+03 7.209115e+02 1.418586e+03 -3.583387e+03 5.841160e+02 -1.249918e+03 5.227514e+03 -7.787906e+02 5.870103e+03 -9.233880e+02 -4.199383e+03 -9.882888e+02 -8.812530e+02 1.280279e+03 -9.916722e+02 2.426725e+03 -1.105519e+03 1.850398e+03 -1.186735e+03 -1.961702e+03 1.085526e+02 2.062626e+01 -1.629354e+03 9.267406e+02 -8.121769e+02 -1.004668e+03 5.170123e+01 8.012301e+02 -1.845776e+02 3.183806e+01 1.634909e+02 6.627493e+02 -7.571897e+01 -7.266637e+02 1.071897e+03 -4.882009e+02 1.641409e+03 -1.137390e+03 8.946029e+02 -1.188764e+03 -1.215899e+03 -2.854226e+03 2.071218e+02 3.237477e+02 -3.704926e+02 -1.142635e+03 -7.277077e+02 -2.223293e+03 -4.137015e+03 -3.073490e+03 -4.337513e+03 -4.701324e+02 -1.935882e+02 -2.384038e+03 -1.133632e+03 -1.291450e+03 -1.589706e+01 9.651028e+02 -1.581927e+03 -2.572233e+03 3.057610e+01 -3.099632e+03 8.932389e+02 -2.408121e+03 4.585426e+02 -2.486632e+03 -1.513514e+03 -2.679669e+03 -3.195997e+03 -4.905323e+03 
2.636243e+03 -1.352672e+03 3.007688e+03 -1.128755e+03 1.081036e+03 -4.775013e+02 1.638879e+03 7.317526e+02 -2.023619e+02 2.699405e+03 -1.020460e+03 3.458832e+03 1.942014e+03 3.280672e+03 2.575236e+03 7.416119e+02 6.144211e+02 2.239460e+03 1.741901e+03 1.093597e+03 -2.911272e+02 1.345021e+03 3.833265e+02 5.202651e+03 -6.477633e+02 1.354688e+03 7.742784e+02 1.605403e+03 3.340377e+03 4.137442e+03 3.073313e+03 2.805581e+03 2.639526e+03 3.384469e+03 3.814659e+03 2.058641e+03 4.298405e+03 2.505644e+03 1.535945e+03 3.358927e+03 2.842539e+03 3.027219e+03 2.198978e+03 3.573951e+03 3.159667e+03 3.270798e+03 3.971556e+03 3.289886e+03 2.330770e+03 3.171323e+03 2.316014e+03 1.683342e+03 1.143773e+03 -8.612139e+01 3.368764e+03 2.467019e+03 3.818578e+03 2.969646e+03 2.556119e+03 2.386822e+03 4.065079e+03 4.217112e+03 1.982785e+03 2.713541e+03 3.833505e+03 3.787673e+03 3.687525e+03 3.169246e+03 2.880598e+03 3.528232e+03 4.427289e+03 3.478859e+03 3.558255e+03 1.790297e+03 2.775109e+03 2.407918e+03 3.902554e+03 3.911231e+03 3.321412e+03 3.189887e+03 5.804489e+02 5.322709e+03 1.613985e+03 3.942071e+03 2.702461e+03 3.968732e+03 3.343538e+03 4.105531e+03 2.093799e+03 3.011820e+03 1.342916e+03 2.852105e+03 1.962252e+03 2.962199e+03 2.081348e+03 3.329624e+03 1.745462e+03 3.352040e+03 1.911029e+03 3.206742e+03 2.076389e+03 3.905333e+03 2.106530e+03 3.728759e+03 1.820510e+03 2.588934e+03 7.397235e+02 3.376862e+03 1.878243e+03 2.916894e+03 1.857011e+03 1.789743e+03 1.427171e+03 2.717910e+03 2.343030e+03 2.968389e+03 1.395475e+03 3.968338e+03 2.237672e+03 3.564412e+03 2.564353e+03 2.865794e+03 3.423692e+03 1.282479e+03 8.699512e+02 2.914839e+03 1.791920e+03 3.731074e+03 2.528953e+03 2.696962e+03 5.508362e+02 3.142704e+03 3.815214e+03 3.981021e+03 2.475950e+03 3.920113e+03 1.267697e+03 3.152174e+03 3.311837e+03 3.597400e+03 3.585999e+03 3.085292e+03 2.680683e+03 3.414590e+03 3.930617e+03 4.540434e+03 3.833070e+03 3.933205e+03 1.854108e+03 3.819446e+03 3.012301e+03 5.244216e+03 4.111682e+03 4.351581e+03 4.496971e+03 2.566686e+03 3.024360e+03 4.517147e+03 3.183384e+03 3.678587e+03 4.338322e+03 2.474053e+03 4.324305e+03 3.010850e+03 5.428050e+03 6.400758e+03 4.322304e+03 3.919463e+03 5.120647e+03 4.401283e+03 4.922582e+03 3.449337e+03 4.337205e+03 2.840718e+03 6.968935e+03 2.959498e+03 6.682720e+03 2.531420e+03 4.828886e+03 2.283725e+03 6.829832e+03 4.412828e+02 5.167721e+03 -5.364665e+03 7.286799e+03 -2.664861e+02 -1.895824e+03 1.639968e+03 3.341488e+03 -8.493053e+02 2.348869e+03 -3.140915e+03 3.007884e+03 2.318943e+03 3.151899e+03 -2.888976e+03 3.748613e+02 3.569478e+03 7.298048e+02 2.207330e+03 2.931746e+03 3.875532e+03 2.145535e+03 3.508795e+03 2.156385e+03 3.003445e+03 2.427420e+03 2.538278e+03 1.037537e+03 2.498738e+03 2.171102e+03 2.434186e+03 1.915371e+03 1.209122e+03 1.975329e+03 1.712554e+03 2.385259e+03 2.949178e+03 3.465361e+03 8.685770e+02 2.834182e+03 6.880913e+02 2.304896e+03 6.044119e+02 1.354357e+03 1.286623e+03 -1.446126e+03 -1.230661e+02 1.032043e+03 7.468762e+02 1.332452e+03 4.603410e+02 1.635743e+02 -2.259570e+03 -4.432934e+02 3.814546e+02 2.786524e+02 9.751509e+02 -1.076165e+03 1.490665e+03 -7.006667e+02 2.857266e+03 -6.493611e+02 2.385288e+03 -5.952637e+02 -3.409906e+03 2.750691e+03 2.102977e+02 2.122772e+03 -2.432207e+03 1.209456e+03 2.544829e+02 -3.984986e+03 2.851582e+03 -3.199048e+03 -1.279210e+03 
-2.328230e+02 -1.188440e+02 -1.975478e+03 -3.354022e+03 -2.643294e+03 -3.397833e+03 -2.219226e+03 1.512126e+02 -1.140317e+03 1.355076e+03 -1.508723e+03 -4.116658e+03 -1.446635e+03 -1.586439e+03 -1.540274e+03 -1.273992e+03 -1.930057e+03 -2.003819e+03 -7.739346e+02 -7.979278e+02 -1.068168e+03 -1.533516e+03 -2.015086e+03 2.588441e+03 -1.678257e+03 -8.634451e+02 5.249138e+01 2.421832e+02 1.455109e+03 1.197545e+03 1.422477e+03 1.894035e+03 1.977966e+03 2.196884e+02 1.003351e+03 1.368904e+03 -1.991953e+02 3.067459e+03 3.429964e+02 1.506552e+03 6.858893e+02 1.480379e+03 -3.619828e+02 1.034992e+03 -1.649337e+02 6.410925e+02 2.182979e+03 -9.317273e+02 6.104986e+02 -3.631187e+02 1.629658e+03 6.408910e+02 7.216301e+02 3.892766e+02 1.858138e+03 1.049021e+03 2.144003e+03 1.692531e+03 3.351454e+02 2.219805e+03 1.269699e+03 2.738136e+03 2.272185e+03 2.382378e+03 2.671409e+03 2.162983e+03 2.815073e+03 2.863312e+03 2.187487e+03 1.280367e+03 1.582339e+03 2.373890e+03 2.052584e+03 1.521855e+03 2.915142e+03 2.262298e+03 2.849293e+03 1.837012e+03 2.402065e+03 2.688067e+03 1.967438e+03 2.825127e+03 2.055251e+03 3.182237e+03 6.749504e+02 2.709994e+03 1.789329e+03 2.914654e+03 1.527474e+03 2.816658e+03 2.036662e+03 3.229174e+03 1.992868e+03 2.949640e+03 1.718772e+03 2.576774e+03 1.717990e+03 3.198831e+03 1.504866e+03 3.706877e+03 1.939961e+03 3.546588e+03 1.967194e+03 3.446191e+03 2.373813e+03 3.342655e+03 1.797437e+03 2.638282e+03 1.922983e+03 3.759707e+03 2.060338e+03 3.069838e+03 2.534699e+03 3.189859e+03 1.656722e+03 3.862235e+03 2.932643e+03 3.958507e+03 2.872951e+03 3.562068e+03 3.065040e+03 3.441734e+03 3.261637e+03 2.639908e+03 2.574788e+03 3.493260e+03 3.050858e+03 4.321446e+03 4.049986e+03 3.211405e+03 3.059599e+03 4.572091e+03 1.593379e+03 4.026563e+03 1.866707e+03 3.423161e+03 2.076714e+03 3.443414e+03 3.885315e+03 4.603319e+03 1.764211e+03 2.597888e+03 1.175695e+03 4.394336e+03 1.334921e+03 3.684308e+03 2.740241e+03 2.408126e+03 -4.982624e+02 3.639767e+03 2.592865e+03 3.229532e+03 2.426687e+03 2.921120e+03 2.368937e+03 2.837817e+03 2.521141e+03 3.036076e+03 2.038557e+03 3.344796e+03 3.037885e+03 1.322571e+03 -8.111541e+01 2.074519e+03 5.695633e+02 3.335031e+03 2.424678e+03 2.140577e+03 4.508134e+03 2.439113e+03 3.536316e+03 1.732200e+03 4.235938e+03 1.628839e+03 4.611601e+03 1.048446e+03 4.654105e+03 7.663185e+02 4.279244e+03 -1.269062e+03 4.513011e+03 -1.438625e+03 5.086004e+03 -4.941047e+03 -3.705330e+02 -3.807090e+03 9.235888e+02 -6.091429e+01 5.341434e+03 -7.886988e+02 6.489794e+02 -1.151277e+03 -9.935263e+01 3.169119e+02 6.634535e+02 1.066736e+03 -5.767646e+02 1.388882e+03 -1.368725e+03 -7.230527e+02 -2.094732e+03 -1.691831e+02 1.007399e+03 8.816225e+01 -3.273254e+03 6.855196e+02 -1.698352e+02 7.529668e+02 -1.804679e+03 3.109692e+03 -2.535748e+02 2.590027e+03 1.715060e+02 1.834469e+03 1.362475e+02 9.101872e+02 9.583997e+02 9.615063e+02 -4.165603e+02 -3.501968e+02 2.763951e+03 -3.200511e+00 3.456471e+03 1.109904e+03 -5.379583e+01 -8.250040e+01 -7.651682e+02 -2.962162e+03 1.597389e+02 -8.835633e+02 -3.836236e+02 -6.517859e+02 -2.623601e+03 3.180794e+02 -1.577188e+03 -4.844912e+01 -1.936737e+03 -1.443915e+02 -1.918535e+03 -6.574225e+02 -1.723132e+03 -1.303540e+03 6.297648e+02 -1.043395e+03 4.846439e+02 -2.368833e+03 1.523637e+03 -3.102319e+03 4.021797e+02 -2.214187e+02 -2.857841e+03 -3.555239e+03 4.514542e+02 3.128041e+03 -8.008959e+02 -1.911214e+03 
2.495270e+02 -3.834482e+02 2.760038e+03 -1.966772e+03 1.974507e+02 -7.958033e+02 -6.136324e+02 -1.030572e+03 4.377253e+02 2.620750e+03 6.209363e+02 -1.045326e+02 2.267034e+01 -5.699156e+02 1.588437e+03 8.570079e+02 3.426523e+02 2.109640e+03 2.286545e+03 2.529687e+03 3.024118e+03 3.032785e+03 3.181340e+03 4.142808e+03 3.326652e+03 4.833244e+03 2.964862e+03 4.150356e+03 2.855065e+03 2.432046e+03 2.514512e+03 3.401041e+03 2.939280e+03 1.785447e+03 2.695712e+03 1.947127e+03 2.347838e+03 2.943310e+03 3.218094e+03 2.573387e+03 1.929576e+03 4.077614e+03 3.783571e+03 3.423784e+03 3.186276e+03 2.986904e+03 3.042011e+03 3.420416e+03 2.993783e+03 4.115198e+03 4.049559e+03 4.318147e+03 5.952461e+03 2.351897e+03 3.681288e+03 2.859887e+03 3.821631e+03 2.295874e+03 1.315037e+03 2.477009e+03 3.608596e+03 4.056476e+03 3.108652e+03 3.094560e+03 2.845881e+03 3.373420e+03 3.434277e+03 2.880408e+03 3.614303e+03 4.435061e+03 3.738091e+03 2.341902e+03 4.261389e+03 3.778978e+03 2.613898e+03 1.279044e+03 3.897246e+03 3.647297e+03 2.892222e+03 3.203541e+03 1.882304e+03 4.004726e+03 1.384723e+03 2.312690e+03 1.847833e+03 2.118214e+03 3.494129e+03 3.185687e+03 1.378914e+03 2.742781e+03 1.729700e+03 2.697026e+03 1.855234e+03 3.227482e+03 2.017298e+03 3.470575e+03 1.464044e+03 3.098059e+03 2.010690e+03 3.833182e+03 2.293658e+03 3.735731e+03 2.206877e+03 3.170745e+03 9.102334e+02 3.082247e+03 1.476387e+03 2.331805e+03 1.249072e+03 2.174869e+03 2.321936e+03 2.264285e+03 2.400820e+03 7.528053e+02 1.812960e+03 2.095240e+03 2.278466e+03 3.035952e+03 2.507184e+03 2.591644e+03 1.682466e+03 2.801048e+03 3.743101e+03 2.525258e+03 2.510188e+03 2.227526e+03 1.764618e+03 5.029955e+03 3.702569e+03 2.471044e+03 2.038628e+03 2.375073e+03 2.518381e+03 2.550601e+03 1.083940e+03 3.099119e+03 2.734353e+03 4.070234e+03 2.616415e+03 1.369074e+03 1.029994e+03 5.863534e+03 3.390543e+03 6.792485e+03 3.210283e+03 3.032646e+03 2.024331e+03 3.861251e+03 2.101000e+03 1.638777e+03 3.591237e+03 4.147854e+03 4.068887e+03 4.307022e+03 3.444426e+03 4.838568e+03 3.427494e+03 3.655960e+03 3.294032e+03 6.841195e+03 4.177720e+03 8.887826e+02 2.929356e+02 3.284795e+03 2.996989e+03 3.876784e+03 3.931259e+03 4.153147e+03 5.110584e+03 4.647094e+03 5.461804e+03 3.816714e+03 5.985554e+03 3.947744e+03 6.295046e+03 3.074068e+03 6.580559e+03 3.232751e+03 7.351042e+03 2.441596e+03 7.268947e+03 2.329251e+03 6.831019e+03 4.082331e+03 5.499095e+03 3.037747e+03 6.747854e+03 1.741436e+03 4.875302e+03 -2.788967e+03 1.953197e+03 1.726321e+03 6.197313e+03 7.628756e+02 1.488720e+03 -1.024090e+02 8.988333e+02 5.172407e+03 -9.180862e+02 2.841785e+03 4.285963e+03 1.701264e+03 2.430101e+03 2.701468e+02 2.529638e+03 2.594306e+03 1.510241e+03 -3.815588e+02 1.684226e+03 2.208349e+03 1.855637e+03 1.786007e+03 1.693852e+03 7.539441e+02 1.315826e+03 -7.919411e+02 1.709853e+03 4.526008e+02 1.017318e+03 -2.903960e+03 2.165830e+03 5.145117e+02 2.489616e+03 5.841625e+02 6.958898e+02 9.990712e+01 1.489205e+03 -6.737912e+02 1.469834e+03 -3.555484e+02 6.112241e+02 -6.133925e+02 2.575036e+02 2.220314e+03 7.585576e+02 2.168937e+03 1.235757e+03 3.084029e+03 1.200197e+03 1.090225e+03 2.441928e+03 2.924192e+03 -6.233641e+02 1.462631e+03 5.839061e+02 4.779355e+02 4.657011e+02 1.567873e+02 -1.702308e+03 6.075873e+02 -2.490872e+03 -9.077459e+02 1.159499e+03 8.757691e+02 -6.980368e+02 1.735960e+03 
2.098242e+02 -3.284866e+03 -3.459005e+02 -2.531882e+03 -9.494490e+02 -3.014591e+03 -2.388741e+03 -1.294423e+03 1.108073e+03 2.729885e+03 1.737982e+03 1.327819e+03 -1.549418e+03 -2.014699e+03 3.001423e+03 5.894148e+02 -4.928878e+02 -4.510917e+02 -1.443559e+03 5.561894e+02 -1.077258e+03 1.579454e+02 -6.137609e+02 5.630962e+02 -1.664233e+03 1.505736e+03 6.545211e+02 1.038086e+03 2.097828e+03 1.513540e+03 9.244830e+02 2.364606e+03 2.082083e+03 1.780596e+03 2.696672e+03 2.260404e+03 3.138498e+03 1.776857e+03 1.802649e+03 1.767974e+03 6.175886e+02 1.980020e+03 1.924431e+03 1.246274e+03 1.600774e+03 1.287344e+03 1.679308e+03 7.287278e+02 1.109081e+03 1.768338e+03 2.184319e+03 -5.562391e+02 1.189690e+03 1.052524e+03 2.017577e+02 1.633901e+03 2.049776e+03 1.627332e+03 -4.568229e+02 2.303547e+03 3.476321e+03 2.101652e+03 1.865672e+03 1.721359e+03 2.242778e+03 1.376151e+03 1.869782e+03 2.262052e+03 1.448352e+03 2.117918e+03 2.379502e+03 2.757711e+03 7.020722e+02 1.246035e+03 2.037634e+03 1.500428e+03 1.447736e+03 2.171048e+03 1.819267e+03 2.377454e+03 1.849718e+03 3.397579e+03 1.403794e+03 2.871195e+03 1.428372e+03 2.332937e+03 2.503067e+03 2.605336e+03 2.135742e+03 1.666566e+03 1.442230e+03 2.633630e+03 1.201684e+03 3.196758e+03 1.477114e+03 3.600515e+03 1.181877e+03 2.334548e+03 1.710657e+03 3.544709e+03 1.960920e+03 3.316783e+03 2.024967e+03 3.248132e+03 1.520101e+03 3.321813e+03 2.421019e+03 3.074136e+03 1.946043e+03 3.269169e+03 2.486572e+03 3.237525e+03 3.029103e+03 3.055636e+03 2.591387e+03 3.155309e+03 1.984549e+03 3.333963e+03 2.753545e+03 2.885485e+03 2.228533e+03 2.405241e+03 2.747396e+03 2.723933e+03 2.825515e+03 2.310264e+03 1.508983e+03 4.136401e+03 1.966621e+03 2.797822e+03 -1.387651e+03 4.879347e+03 2.996504e+03 4.202036e+03 8.214484e+02 3.057358e+03 1.600036e+03 1.746371e+03 1.284663e+03 7.867103e+02 9.599624e+02 6.058216e+03 -2.452971e+02 8.368529e+02 -1.471915e+03 3.187608e+03 7.070395e+02 1.886100e+03 3.665421e+03 4.882246e+03 7.485375e+02 4.576868e+03 1.327385e+03 2.810191e+03 2.061525e+03 3.997380e+03 1.670723e+03 4.300438e+03 3.797958e+03 2.999442e+03 2.288076e+02 1.401698e+03 3.931387e+03 -1.047269e+03 3.157904e+03 2.574738e+03 3.029343e+03 2.052761e+03 2.772428e+03 2.345687e+03 3.555069e+03 2.351922e+03 4.358669e+03 1.514116e+03 4.347653e+03 9.840956e+02 3.736250e+03 7.893779e+02 4.202543e+03 -6.640590e+02 4.116579e+03 -3.950856e+02 4.456284e+03 -3.428837e+03 1.226173e+03 -1.394983e+01 2.922079e+03 -2.152130e+03 -9.223101e+00 -3.247134e+03 2.751659e+03 2.233668e+03 1.110005e+03 2.169780e+03 -2.994903e+03 -7.995235e+02 -2.513082e+03 -2.679582e+03 -4.684542e+03 -3.518870e+03 -3.315163e+02 -1.786085e+02 -1.848261e+03 -9.840993e+02 -6.695251e+02 -1.584297e+02 -5.504965e+02 1.466441e+03 2.310039e+03 1.834338e+03 -1.248136e+02 1.604904e+03 1.176223e+02 5.986743e+02 1.394569e+03 -5.550569e+01 5.470600e+02 2.058306e+03 4.641207e+03 1.701638e+03 7.803730e+02 1.682923e+03 1.415190e+03 3.023312e+03 2.138231e+03 -7.382872e+02 8.771833e+02 -2.366374e+03 -1.897816e+03 -5.267526e+01 -4.197380e+03 -3.228113e+01 -1.117677e+03 -6.075405e+02 -1.421558e+03 -1.590411e+03 -3.138993e+03 -2.369887e+03 -1.030338e+03 -4.581946e+03 -3.666372e+03 -4.875887e+03 3.563164e+02 -4.958724e+03 -2.786418e+03 -1.679603e+03 1.225408e+03 -3.403178e+03 -7.947636e+02 -1.408101e+03 5.821901e+02 -7.939452e+02 -7.715185e+02 2.693488e+03 -1.258440e+03 -1.940374e+03 
3.646116e+03 9.161040e+02 -4.732101e+03 -2.090422e+03 7.125116e+02 -1.147687e+03 -2.367677e+01 -1.894819e+02 2.625445e+02 1.026292e+03 1.573328e+02 2.169102e+02 1.592731e+03 1.104006e+03 2.014605e+03 2.010729e+03 1.675373e+03 2.075255e+03 2.323473e+03 3.021620e+03 2.960337e+03 4.192951e+03 3.112376e+03 4.040493e+03 3.550659e+03 2.852462e+03 3.532075e+03 3.952415e+03 2.881244e+03 2.442475e+03 1.733352e+03 3.173877e+03 3.326696e+03 1.481561e+03 3.683249e+03 4.061485e+03 2.918926e+03 3.427640e+03 4.152908e+03 4.484391e+03 2.932098e+03 3.777316e+03 3.357736e+03 2.237292e+03 3.516988e+03 2.687920e+03 4.065087e+03 1.505504e+03 3.604103e+03 3.054434e+03 3.619618e+03 1.986022e+03 1.479776e+03 2.358874e+03 1.743726e+03 2.605670e+03 1.966018e+03 3.148016e+03 1.277179e+03 3.001008e+03 2.589898e+03 2.169430e+03 2.678656e+03 2.916915e+03 3.702260e+03 3.549597e+03 3.903938e+03 3.919290e+03 3.178009e+03 3.263658e+03 3.271609e+03 3.112601e+03 2.532641e+03 1.430235e+03 4.448455e+03 2.391314e+03 3.256010e+03 2.591298e+03 3.035745e+03 2.746558e+03 2.826270e+03 3.082108e+03 2.484628e+03 4.182603e+03 3.076558e+03 3.791077e+03 2.131884e+03 2.827955e+03 1.880020e+03 2.895343e+03 1.918615e+03 3.171159e+03 1.379130e+03 2.201950e+03 1.487989e+03 3.666902e+03 1.084158e+03 2.538590e+03 1.450719e+03 2.989743e+03 1.719226e+03 3.559644e+03 2.278442e+03 3.449043e+03 1.647098e+03 2.474423e+03 1.290691e+03 2.483642e+03 1.504022e+03 2.733432e+03 2.174057e+03 2.996670e+03 2.109352e+03 2.328262e+03 2.982212e+03 2.674906e+03 3.433651e+03 2.826332e+03 2.330018e+03 4.360125e+03 3.216960e+03 1.728216e+03 2.797543e+03 1.983645e+03 2.898064e+03 1.579405e+03 2.152652e+03 -1.385057e+02 2.497204e+03 -1.503964e+03 1.365933e+03 6.198006e+03 -9.164458e+02 3.487110e+03 3.275168e+02 4.024695e+03 1.308233e+03 4.286372e+03 1.738601e+03 2.078043e+03 2.450890e+03 6.253900e+03 1.305763e+02 1.350201e+03 4.129965e+03 5.659013e+03 3.232724e+03 4.220583e+03 1.977098e+03 4.620787e+03 2.339873e+03 3.906393e+03 4.353055e+03 4.968157e+03 4.775371e+03 4.733735e+03 4.015375e+03 3.679534e+03 4.464152e+03 4.101350e+03 5.059251e+03 4.279080e+03 6.459222e+03 5.496530e+03 4.297478e+03 4.249269e+03 4.844665e+03 3.873025e+03 4.131817e+03 3.918097e+03 4.714532e+03 3.162355e+03 6.138924e+03 3.751665e+03 6.340999e+03 3.425201e+03 6.253012e+03 2.373301e+03 7.019234e+03 2.281141e+03 6.658388e+03 2.732386e+03 7.166685e+03 2.267956e+03 2.997248e+03 3.424599e+03 4.128649e+03 2.956385e+03 6.626765e+03 7.400678e+02 6.032392e+03 1.353428e+03 8.370696e+02 4.623754e+03 5.052889e+03 2.928258e+03 5.716870e+03 5.871983e+03 6.894249e+03 5.837371e+03 5.399127e+03 3.875473e+03 3.738298e+03 3.380699e+03 3.069716e+03 2.663576e+03 1.459933e+03 1.416481e+03 -1.971425e+03 1.098229e+03 3.641008e+03 1.446782e+03 3.040708e+03 8.317759e+02 3.957563e+02 9.896059e+02 -4.667470e+02 1.008364e+03 -5.425246e+02 -8.003743e+01 1.281991e+03 -3.978397e+02 1.405217e+03 2.645289e+02 1.218347e+03 3.108815e+02 2.150696e+03 -1.296684e+03 3.556516e+02 4.359354e+02 6.304330e+01 -3.068625e+03 -5.456853e+02 1.054206e+03 3.790005e+02 2.317756e+03 1.724976e+03 -1.228098e+03 7.638321e+02 -4.933610e+02 -8.106681e+02 -5.905480e+03 1.556400e+03 7.683630e+02 -2.587005e+03 -1.881481e+03 1.979286e+03 -2.343587e+03 -3.226091e+03 -4.618874e+02 -1.355725e+03 -4.107484e+03 -7.184641e+02 1.849039e+03 -2.483305e+03 -1.744475e+03 
8.045806e+02 -3.217556e+02 -6.942095e+02 -6.884722e+03 -2.732161e+03 -3.498166e+03 -6.539327e+03 -2.400998e+03 4.262741e+02 1.176026e+02 -3.361273e+02 -9.429059e+02 -1.663207e+01 1.171644e+03 1.220478e+03 6.643544e+02 3.773917e+02 1.825688e+02 5.460236e+02 8.339832e+02 1.793901e+03 1.225650e+03 2.105420e+03 1.760902e+03 1.540292e+03 1.672843e+03 1.095559e+03 1.569182e+03 1.902821e+03 6.848179e+02 -1.191321e+03 -1.328311e+02 9.949349e+02 1.552882e+03 7.441842e+02 7.207201e+02 1.372990e+03 1.755777e+03 2.258240e+03 1.111876e+03 5.137699e+02 1.886233e+03 1.452786e+03 3.579292e+01 3.239130e+02 -3.590461e+02 1.697336e+02 2.461131e+03 9.179054e+02 1.230785e+03 2.091155e+03 2.483775e+03 3.352575e+03 1.465861e+03 1.870588e+03 3.340075e+03 2.082248e+03 2.371371e+03 3.211001e+02 5.360565e+02 3.344995e+03 1.655829e+03 2.603505e+03 1.919613e+03 2.163463e+03 1.977861e+03 2.296207e+03 1.067556e+03 3.160100e+03 2.864922e+03 1.502690e+03 2.725034e+03 7.780216e+02 6.421521e+02 3.265693e+03 1.357694e+03 1.501958e+03 2.368740e+03 1.579236e+03 9.821301e+02 1.454792e+03 2.697096e+03 9.549452e+02 1.772423e+03 1.047991e+03 2.405701e+03 1.013440e+03 2.905477e+03 3.828943e+02 2.361005e+03 1.187150e+03 2.597408e+03 1.713768e+02 2.382869e+03 2.061767e+02 3.711110e+03 6.879932e+02 2.767576e+03 1.207462e+03 2.985027e+03 1.427526e+03 3.225159e+03 -1.016224e+03 1.662840e+03 1.760211e+03 2.068877e+03 1.408367e+03 1.422097e+03 1.686558e+03 2.255964e+03 1.419619e+03 2.943131e+03 2.906962e+03 3.218874e+03 3.337364e+03 2.975620e+03 2.282414e+03 1.708156e+03 2.834343e+03 3.594204e+03 2.043675e+03 2.580272e+03 2.580970e+03 3.254909e+03 3.372953e+03 3.247999e+03 3.542431e+03 2.449718e+03 3.087652e+03 9.688253e+02 3.058553e+03 2.197490e+03 1.025327e+03 2.539702e+03 9.386137e+02 2.754851e+03 8.386253e+02 4.207792e+03 2.323473e+02 3.454777e+03 2.627017e+03 2.684213e+03 1.838690e+03 5.181028e+03 3.619452e+03 4.351437e+03 2.863595e+03 2.704970e+03 2.489354e+03 2.208502e+03 2.852638e+03 1.675842e+02 -1.158839e+03 3.602030e+03 1.254776e+03 4.345437e+03 2.413903e+03 4.459439e+03 7.403779e+02 2.108547e+03 4.346106e+01 1.585300e+03 2.554445e+03 1.652597e+03 2.700548e+03 1.636736e+03 4.190484e+03 2.824197e+03 3.793676e+03 2.060689e+03 3.003911e+03 1.813569e+03 3.979491e+03 1.393083e+03 4.244407e+03 1.584328e+03 4.461404e+03 6.988143e+02 4.969106e+03 1.029220e+03 4.617874e+03 7.181251e+02 4.819515e+03 1.696569e+03 3.480664e+03 -2.458618e+03 1.469817e+03 -3.260813e+03 1.959669e+01 -6.045998e+03 -3.041677e+03 -7.697828e+03 2.460077e+03 -6.722687e+03 -1.227040e+04 -4.108509e+03 -1.692295e+03 -8.286580e+02 -1.429975e+02 -2.380351e+01 -6.952208e+02 -1.930059e+02 -1.257413e+03 7.113804e+02 6.965958e+02 3.685384e+01 -1.190223e+03 -2.965448e+03 -1.487665e+03 -3.706906e+03 1.026287e+03 -9.404183e+00 1.124168e+03 4.130133e+03 1.584219e+03 -7.481182e+02 1.961560e+03 -2.731536e+03 -8.009621e+02 -1.587688e+03 -1.654530e+02 -1.043432e+03 -1.698146e+03 1.296718e+03 1.748770e+03 1.179516e+03 2.050378e+03 -3.825118e+03 -2.983196e+03 -2.152615e+02 -1.941544e+03 2.639879e+01 -2.111404e+03 7.262068e+02 -6.491348e+03 -2.037913e+03 3.152964e+03 -2.433215e+03 -1.313004e+03 -4.808871e+03 1.504301e+03 -4.526893e+03 -3.641971e+03 1.883364e+03 -7.828879e+02 -2.471637e+03 -1.648988e+03 -4.024690e+02 -1.312005e+03 1.091831e+03 -4.784237e+03 4.011871e+02 -6.905908e+02 2.274499e+03 -3.562387e+03 -4.533787e+03 