# vtk DataFile Version 2.0
Comment goes here
ASCII

DATASET STRUCTURED_POINTS
FIELD FieldData 1
TIME 1 1 double
0.07400000
DIMENSIONS    64   64   1

ORIGIN    0.000   0.000   0.000
SPACING   0.03125 0.03125   1.000

POINT_DATA   4096
SCALARS P double
LOOKUP_TABLE default

-1.866422e+01 -1.867554e+02 -9.618271e+00 -1.904526e+02 2.330523e+01 1.429826e+02 4.503747e+00 1.288026e+02 1.467664e+00 1.161317e+02 -3.342703e+00 1.043084e+02 -5.265610e+00 8.895417e+01 -2.933288e+00 7.083743e+01 -9.107081e-01 5.678154e+01 -5.217079e+00 5.111928e+01 -1.537741e+01 4.847775e+01 -2.505646e+01 4.271272e+01 -3.106456e+01 3.313462e+01 -3.256900e+01 1.966395e+01 -3.185474e+01 7.090634e+00 -3.362454e+01 -2.407619e+00 -3.743484e+01 -1.238420e+01 -4.025476e+01 -2.193191e+01 -4.394800e+01 -3.123830e+01 -4.825282e+01 -4.029813e+01 -4.997744e+01 -5.394087e+01 -4.654028e+01 -7.005836e+01 -4.272096e+01 -8.697808e+01 -3.893758e+01 -1.010481e+02 -3.972356e+01 -1.099057e+02 -4.392075e+01 -1.165273e+02 -4.830121e+01 -1.241827e+02 -4.980197e+01 -1.360827e+02 -4.673658e+01 -1.475233e+02 -4.536172e+01 -1.564460e+02 -4.217282e+01 -1.659591e+02 -3.711295e+01 -1.754499e+02 
3.276085e+00 -1.273602e+02 8.165979e+00 -1.302171e+02 3.024949e+01 1.203831e+02 1.401884e+01 1.113231e+02 1.034679e+01 1.031232e+02 6.110643e+00 9.536458e+01 3.862330e+00 8.541075e+01 4.367111e+00 7.358073e+01 5.094405e+00 6.360439e+01 2.828053e+00 5.782490e+01 -2.199887e+00 5.340621e+01 -6.761678e+00 4.713359e+01 -9.393934e+00 3.895681e+01 -9.811798e+00 2.878739e+01 -9.158053e+00 1.926113e+01 -9.964901e+00 1.149005e+01 -1.192181e+01 3.283052e+00 -1.318446e+01 -4.804159e+00 -1.489832e+01 -1.260577e+01 -1.708721e+01 -1.993713e+01 -1.809137e+01 -2.972009e+01 -1.664504e+01 -4.067430e+01 -1.496974e+01 -5.208984e+01 -1.295930e+01 -6.201510e+01 -1.319150e+01 -6.947050e+01 -1.500067e+01 -7.573366e+01 -1.681828e+01 -8.246362e+01 -1.705077e+01 -9.137587e+01 -1.477721e+01 -9.970692e+01 -1.361396e+01 -1.063669e+02 -1.143443e+01 -1.130866e+02 -8.586239e+00 -1.194823e+02 
1.428974e+01 -9.467606e+01 1.653830e+01 -9.743430e+01 2.411544e+01 1.066478e+02 1.712389e+01 1.015069e+02 1.436029e+01 9.598273e+01 1.171916e+01 9.020941e+01 9.772979e+00 8.370774e+01 8.632080e+00 7.659369e+01 7.794581e+00 6.950410e+01 6.743796e+00 6.284001e+01 5.445639e+00 5.621013e+01 4.353037e+00 4.912362e+01 3.597079e+00 4.174638e+01 3.175728e+00 3.407914e+01 2.942856e+00 2.658809e+01 2.425182e+00 1.938065e+01 1.722053e+00 1.200445e+01 1.308299e+00 4.628640e+00 8.769657e-01 -2.623940e+00 2.829116e-01 -9.622482e+00 -2.111992e-01 -1.698982e+01 -2.325477e-01 -2.436757e+01 -9.399248e-02 -3.184714e+01 3.848583e-01 -3.917735e+01 7.426871e-01 -4.619788e+01 1.163834e+00 -5.298161e+01 1.839602e+00 -5.969294e+01 2.965273e+00 -6.660812e+01 4.717764e+00 -7.313906e+01 6.327476e+00 -7.901920e+01 8.275691e+00 -8.446756e+01 1.022839e+01 -8.947060e+01 
1.381232e+01 -9.451425e+01 1.760791e+01 -9.781367e+01 2.232421e+01 1.063663e+02 1.811561e+01 1.016352e+02 1.443887e+01 9.601345e+01 1.152860e+01 8.997471e+01 9.442937e+00 8.335818e+01 8.109387e+00 7.630196e+01 7.106275e+00 6.927586e+01 6.032551e+00 6.254629e+01 4.863771e+00 5.587153e+01 3.858800e+00 4.887614e+01 3.164269e+00 4.154024e+01 2.780370e+00 3.395076e+01 2.528587e+00 2.641568e+01 2.111541e+00 1.904707e+01 1.553593e+00 1.168066e+01 1.059235e+00 4.340303e+00 5.612253e-01 -2.951869e+00 1.383558e-02 -1.020304e+01 -4.028605e-01 -1.766084e+01 -4.589986e-01 -2.521506e+01 -2.930873e-01 -3.280882e+01 4.663455e-02 -4.020126e+01 3.354720e-01 -4.723230e+01 6.083948e-01 -5.397498e+01 1.043633e+00 -6.062148e+01 1.860777e+00 -6.726529e+01 3.164358e+00 -7.358835e+01 4.683346e+00 -7.939913e+01 6.618092e+00 -8.476237e+01 9.137216e+00 -8.968433e+01 
1.338431e+01 -9.483982e+01 1.651097e+01 -9.876991e+01 2.047034e+01 1.055647e+02 1.702294e+01 1.011992e+02 1.398083e+01 9.587423e+01 1.152140e+01 9.000645e+01 9.653528e+00 8.363529e+01 8.301696e+00 7.688552e+01 7.222382e+00 7.001802e+01 6.187346e+00 6.317977e+01 5.181436e+00 5.626248e+01 4.308387e+00 4.912774e+01 3.617216e+00 4.180540e+01 3.100147e+00 3.433311e+01 2.686690e+00 2.687715e+01 2.219124e+00 1.950035e+01 1.703506e+00 1.209764e+01 1.260609e+00 4.704321e+00 8.471870e-01 -2.632064e+00 4.300148e-01 -9.904772e+00 1.078662e-01 -1.725810e+01 1.270740e-02 -2.463930e+01 1.090092e-01 -3.201819e+01 4.020380e-01 -3.929387e+01 7.759221e-01 -4.639697e+01 1.286477e+00 -5.334403e+01 2.026196e+00 -6.018338e+01 3.074814e+00 -6.693320e+01 4.464838e+00 -7.338735e+01 6.042224e+00 -7.940995e+01 7.908737e+00 -8.503067e+01 1.010136e+01 -9.012520e+01 
1.250133e+01 -9.628878e+01 1.609735e+01 -1.006887e+02 1.953031e+01 1.050529e+02 1.683875e+01 1.009539e+02 1.373955e+01 9.575830e+01 1.113926e+01 8.985700e+01 9.172964e+00 8.344376e+01 7.729596e+00 7.669713e+01 6.588203e+00 6.984081e+01 5.550147e+00 6.297164e+01 4.609673e+00 5.603831e+01 3.805386e+00 4.892348e+01 3.171718e+00 4.160617e+01 2.699344e+00 3.414209e+01 2.308312e+00 2.665659e+01 1.889701e+00 1.920955e+01 1.430402e+00 1.177231e+01 9.810115e-01 4.349096e+00 5.440588e-01 -3.053177e+00 1.306090e-01 -1.045482e+01 -1.828371e-01 -1.792276e+01 -3.091862e-01 -2.542808e+01 -2.600012e-01 -3.291166e+01 -6.097841e-02 -4.026427e+01 2.332781e-01 -4.740724e+01 6.366765e-01 -5.434941e+01 1.205939e+00 -6.114380e+01 2.032538e+00 -6.779949e+01 3.183042e+00 -7.420281e+01 4.649749e+00 -8.026246e+01 6.546560e+00 -8.596958e+01 9.039226e+00 -9.133252e+01 
1.195476e+01 -9.734362e+01 1.479178e+01 -1.022442e+02 1.772597e+01 1.050152e+02 1.551004e+01 1.007544e+02 1.303745e+01 9.569174e+01 1.086386e+01 8.996756e+01 9.144846e+00 8.374515e+01 7.812970e+00 7.717983e+01 6.722852e+00 7.042533e+01 5.732364e+00 6.352485e+01 4.885703e+00 5.648740e+01 4.155517e+00 4.929266e+01 3.532240e+00 4.196031e+01 3.007246e+00 3.453254e+01 2.550539e+00 2.707757e+01 2.104089e+00 1.962894e+01 1.656549e+00 1.216967e+01 1.240115e+00 4.714074e+00 8.566801e-01 -2.716003e+00 5.089331e-01 -1.011923e+01 2.454389e-01 -1.752918e+01 1.307106e-01 -2.493547e+01 1.816316e-01 -3.231123e+01 3.980668e-01 -3.960856e+01 7.516475e-01 -4.679350e+01 1.261249e+00 -5.386617e+01 1.981775e+00 -6.082516e+01 2.937372e+00 -6.763803e+01 4.133925e+00 -7.421427e+01 5.555086e+00 -8.048788e+01 7.254458e+00 -8.644357e+01 9.318431e+00 -9.205281e+01 
1.080088e+01 -9.938382e+01 1.369312e+01 -1.046850e+02 1.638484e+01 1.054347e+02 1.456716e+01 1.008596e+02 1.235560e+01 9.571838e+01 1.025583e+01 8.995379e+01 8.537621e+00 8.369381e+01 7.187465e+00 7.710776e+01 6.097779e+00 7.034954e+01 5.113157e+00 6.341553e+01 4.330578e+00 5.634306e+01 3.662786e+00 4.912689e+01 3.087388e+00 4.177635e+01 2.600309e+00 3.432943e+01 2.171711e+00 2.684113e+01 1.756459e+00 1.934283e+01 1.338428e+00 1.183630e+01 9.296518e-01 4.329828e+00 5.381976e-01 -3.169011e+00 1.780241e-01 -1.066680e+01 -1.117152e-01 -1.818080e+01 -2.803670e-01 -2.569867e+01 -3.078371e-01 -3.318653e+01 -1.867511e-01 -4.058571e+01 9.845552e-02 -4.783799e+01 5.604773e-01 -5.493504e+01 1.172368e+00 -6.188079e+01 1.960395e+00 -6.867901e+01 2.985692e+00 -7.528948e+01 4.298454e+00 -8.167331e+01 5.979552e+00 -8.782219e+01 8.123081e+00 -9.373889e+01 
1.003780e+01 -1.006189e+02 1.227366e+01 -1.063326e+02 1.452304e+01 1.061911e+02 1.308050e+01 1.012397e+02 1.141125e+01 9.597014e+01 9.765269e+00 9.023427e+01 8.349020e+00 8.406112e+01 7.183962e+00 7.757464e+01 6.216281e+00 7.089375e+01 5.268470e+00 6.394938e+01 4.580882e+00 5.681839e+01 3.977914e+00 4.954559e+01 3.418947e+00 4.216941e+01 2.916536e+00 3.472823e+01 2.464605e+00 2.725212e+01 2.035839e+00 1.975274e+01 1.618859e+00 1.222761e+01 1.226625e+00 4.691671e+00 8.648949e-01 -2.835260e+00 5.391295e-01 -1.034161e+01 2.810237e-01 -1.782676e+01 1.419495e-01 -2.528626e+01 1.522295e-01 -3.270721e+01 3.226479e-01 -4.006487e+01 6.449311e-01 -4.734332e+01 1.107220e+00 -5.454678e+01 1.775024e+00 -6.166184e+01 2.627745e+00 -6.864043e+01 3.646458e+00 -7.543391e+01 4.847322e+00 -8.202115e+01 6.277536e+00 -8.840724e+01 7.993071e+00 -9.460482e+01 
8.672080e+00 -1.028215e+02 1.079624e+01 -1.089008e+02 1.277469e+01 1.073069e+02 1.167907e+01 1.019150e+02 1.033710e+01 9.636548e+01 8.916415e+00 9.047179e+01 7.615702e+00 8.419036e+01 6.496566e+00 7.763841e+01 5.595797e+00 7.095520e+01 4.638179e+00 6.394718e+01 4.048525e+00 5.673869e+01 3.505276e+00 4.941421e+01 2.976761e+00 4.200480e+01 2.498584e+00 3.453430e+01 2.072405e+00 2.702058e+01 1.668885e+00 1.947216e+01 1.272508e+00 1.189176e+01 8.914272e-01 4.296735e+00 5.279982e-01 -3.297175e+00 1.820175e-01 -1.088458e+01 -1.257548e-01 -1.846719e+01 -3.435916e-01 -2.604063e+01 -4.409663e-01 -3.359689e+01 -3.938894e-01 -4.110021e+01 -1.253154e-01 -4.847277e+01 3.871006e-01 -5.572016e+01 1.005359e+00 -6.281472e+01 1.710064e+00 -6.979260e+01 2.576465e+00 -7.664875e+01 3.661227e+00 -8.337407e+01 5.020410e+00 -8.997597e+01 6.695163e+00 -9.646546e+01 
7.720502e+00 -1.040005e+02 9.257594e+00 -1.104197e+02 1.073360e+01 1.085930e+02 1.004820e+01 1.028370e+02 9.205698e+00 9.703703e+01 8.257434e+00 9.102188e+01 7.316501e+00 8.468923e+01 6.431902e+00 7.815070e+01 5.715114e+00 7.153645e+01 4.728082e+00 6.449789e+01 4.297062e+00 5.722311e+01 3.826991e+00 4.984243e+01 3.309300e+00 4.240359e+01 2.832373e+00 3.493593e+01 2.406361e+00 2.743632e+01 1.995024e+00 1.988998e+01 1.587369e+00 1.228828e+01 1.209381e+00 4.657993e+00 8.624158e-01 -2.976585e+00 5.337906e-01 -1.059300e+01 2.443823e-01 -1.816822e+01 6.083007e-02 -2.570532e+01 2.072910e-02 -3.320093e+01 1.534919e-01 -4.063667e+01 4.590896e-01 -4.802189e+01 8.349770e-01 -5.536474e+01 1.446227e+00 -6.266867e+01 2.189593e+00 -6.984448e+01 3.005197e+00 -7.686559e+01 3.932422e+00 -8.376209e+01 5.018336e+00 -9.057242e+01 6.285116e+00 -9.732295e+01 
6.216680e+00 -1.061588e+02 7.544057e+00 -1.129129e+02 8.654029e+00 1.101721e+02 8.327350e+00 1.039894e+02 7.820371e+00 9.784352e+01 7.184287e+00 9.158563e+01 6.479040e+00 8.504387e+01 5.693403e+00 7.835030e+01 5.134582e+00 7.179001e+01 4.064419e+00 6.458875e+01 3.815738e+00 5.716828e+01 3.378245e+00 4.973051e+01 2.854341e+00 4.226322e+01 2.387554e+00 3.476987e+01 1.993936e+00 2.723080e+01 1.609769e+00 1.962753e+01 1.218079e+00 1.195766e+01 8.553473e-01 4.261406e+00 5.153574e-01 -3.436250e+00 1.645654e-01 -1.112260e+01 -1.981056e-01 -1.879095e+01 -4.831917e-01 -2.644611e+01 -6.642247e-01 -3.411672e+01 -7.268321e-01 -4.179539e+01 -4.779762e-01 -4.930184e+01 1.312931e-01 -5.670153e+01 7.530266e-01 -6.389270e+01 1.328934e+00 -7.102145e+01 1.990497e+00 -7.809706e+01 2.790492e+00 -8.513277e+01 3.767199e+00 -9.215349e+01 4.924459e+00 -9.917240e+01 
5.130369e+00 -1.071704e+02 5.902591e+00 -1.141991e+02 6.410718e+00 1.117681e+02 6.560709e+00 1.052914e+02 6.517603e+00 9.891024e+01 6.353413e+00 9.247484e+01 6.093993e+00 8.574592e+01 5.641295e+00 7.893466e+01 5.337685e+00 7.247324e+01 4.021612e+00 6.510879e+01 4.104060e+00 5.762508e+01 3.740668e+00 5.013957e+01 3.193379e+00 4.264239e+01 2.737961e+00 3.517241e+01 2.373500e+00 2.766969e+01 1.979226e+00 2.007295e+01 1.546168e+00 1.236768e+01 1.172474e+00 4.627441e+00 8.480802e-01 -3.128945e+00 5.094394e-01 -1.087763e+01 1.524792e-01 -1.855046e+01 -9.890968e-02 -2.619089e+01 -2.255755e-01 -3.380287e+01 -1.500168e-01 -4.132175e+01 2.289486e-01 -4.883405e+01 4.520805e-01 -5.631937e+01 1.041729e+00 -6.382697e+01 1.659442e+00 -7.114566e+01 2.223827e+00 -7.832545e+01 2.837605e+00 -8.548376e+01 3.542526e+00 -9.267809e+01 4.322231e+00 -9.992139e+01 
3.558197e+00 -1.091816e+02 4.062843e+00 -1.165130e+02 4.139908e+00 1.136469e+02 4.647186e+00 1.067661e+02 4.866670e+00 1.000306e+02 4.973918e+00 9.336211e+01 5.062836e+00 8.643356e+01 4.913670e+00 7.927693e+01 4.930895e+00 7.295998e+01 3.317063e+00 6.503983e+01 3.690181e+00 5.753872e+01 3.280823e+00 5.005425e+01 2.677328e+00 4.254042e+01 2.232947e+00 3.506239e+01 1.942510e+00 2.752572e+01 1.585072e+00 1.985152e+01 1.154878e+00 1.204795e+01 8.055722e-01 4.227630e+00 5.086564e-01 -3.588421e+00 1.528339e-01 -1.138590e+01 -3.194566e-01 -1.913720e+01 -6.838220e-01 -2.686873e+01 -9.746546e-01 -3.468570e+01 -1.250972e+00 -4.270856e+01 -9.866391e-01 -5.047022e+01 -2.009380e-01 -5.793396e+01 4.803654e-01 -6.503136e+01 8.660283e-01 -7.221172e+01 1.259438e+00 -7.943806e+01 1.734283e+00 -8.674875e+01 2.308083e+00 -9.415903e+01 2.940124e+00 -1.016563e+02 
2.404148e+00 -1.099829e+02 2.385955e+00 -1.175349e+02 1.840633e+00 1.153546e+02 2.863562e+00 1.082369e+02 3.457066e+00 1.013467e+02 3.870597e+00 9.459365e+01 4.284261e+00 8.755365e+01 4.894585e+00 8.031228e+01 5.363033e+00 7.340875e+01 2.890631e+00 6.495018e+01 3.948383e+00 5.806057e+01 3.739879e+00 5.046112e+01 3.011690e+00 4.287177e+01 2.585006e+00 3.547545e+01 2.399102e+00 2.803330e+01 2.017680e+00 2.035590e+01 1.463559e+00 1.246060e+01 1.083716e+00 4.592849e+00 8.153069e-01 -3.289794e+00 4.899456e-01 -1.120177e+01 1.795458e-02 -1.893744e+01 -2.982809e-01 -2.666053e+01 -5.816666e-01 -3.448460e+01 -7.450620e-01 -4.221764e+01 -1.369928e-02 -4.988436e+01 3.683672e-02 -5.760999e+01 6.255970e-01 -6.510624e+01 1.018996e+00 -7.233188e+01 1.285953e+00 -7.958093e+01 1.591720e+00 -8.699658e+01 1.925519e+00 -9.456450e+01 2.220780e+00 -1.022511e+02 
8.304096e-01 -1.118062e+02 5.297399e-01 -1.196327e+02 -3.561629e-01 1.174473e+02 1.000686e+00 1.099180e+02 1.781365e+00 1.025840e+02 2.204691e+00 9.544673e+01 2.608080e+00 8.867822e+01 3.930300e+00 8.214471e+01 4.739147e+00 7.326533e+01 2.549708e+00 6.335987e+01 3.151638e+00 5.846325e+01 3.315111e+00 5.042048e+01 2.414722e+00 4.278395e+01 1.988907e+00 3.543731e+01 1.991980e+00 2.803075e+01 1.649965e+00 2.022563e+01 1.044132e+00 1.214995e+01 7.150824e-01 4.171075e+00 5.235275e-01 -3.792956e+00 1.902963e-01 -1.171625e+01 -5.184410e-01 -1.948495e+01 -9.165659e-01 -2.714792e+01 -1.311566e+00 -3.494700e+01 -2.148729e+00 -4.366317e+01 -1.496700e+00 -5.339084e+01 -8.067081e-01 -5.930177e+01 2.898085e-01 -6.593911e+01 3.100553e-01 -7.304013e+01 3.484511e-01 -8.042739e+01 5.300126e-01 -8.808625e+01 7.353855e-01 -9.590501e+01 8.635987e-01 -1.038344e+02 
-3.150858e-01 -1.123915e+02 -1.075429e+00 -1.204090e+02 -2.471411e+00 1.191631e+02 -6.291309e-01 1.113641e+02 5.759129e-01 1.038386e+02 1.397094e+00 9.680199e+01 2.239375e+00 9.073081e+01 3.742508e+00 8.559420e+01 5.397923e+00 7.490953e+01 3.881519e+00 6.226522e+01 3.110025e+00 6.008064e+01 4.544235e+00 5.064198e+01 2.975438e+00 4.291270e+01 2.432947e+00 3.582511e+01 2.729467e+00 2.865814e+01 2.248823e+00 2.081283e+01 1.289507e+00 1.246820e+01 9.004969e-01 4.487386e+00 7.164346e-01 -3.512731e+00 4.929578e-01 -1.159319e+01 -1.275308e-01 -1.937276e+01 -5.091325e-01 -2.694883e+01 -9.867965e-01 -3.463769e+01 -2.354862e+00 -4.350644e+01 -1.348022e+00 -5.158224e+01 -5.516335e-01 -6.045371e+01 1.036017e-01 -6.595452e+01 9.662639e-02 -7.287133e+01 1.431710e-01 -8.043933e+01 2.509137e-01 -8.825724e+01 2.662584e-01 -9.620774e+01 1.010381e-01 -1.042724e+02 
-1.830138e+00 -1.140222e+02 -2.872285e+00 -1.222915e+02 -4.621568e+00 1.213659e+02 -2.327742e+00 1.132944e+02 -6.865506e-01 1.056048e+02 5.563928e-01 9.849516e+01 1.557753e+00 9.216566e+01 2.311374e+00 8.596768e+01 2.073365e+00 7.633600e+01 1.997416e+00 6.332935e+01 3.267371e+00 6.011672e+01 4.172380e+00 5.088948e+01 2.883372e+00 4.302424e+01 2.407551e+00 3.581570e+01 2.740833e+00 2.857900e+01 2.242053e+00 2.064254e+01 1.168158e+00 1.216315e+01 7.411874e-01 4.100061e+00 5.307805e-01 -4.019994e+00 2.773993e-01 -1.222242e+01 -4.116598e-01 -1.991207e+01 -7.924719e-01 -2.726244e+01 -1.214554e+00 -3.440055e+01 -2.497211e+00 -4.345544e+01 2.564019e-01 -5.826660e+01 -9.436660e-01 -6.059668e+01 -1.764811e+00 -6.443103e+01 -1.132182e+00 -7.270295e+01 -7.614020e-01 -8.107673e+01 -6.818203e-01 -8.927190e+01 -8.223329e-01 -9.745045e+01 -1.183946e+00 -1.057085e+02 
-2.904100e+00 -1.144054e+02 -4.359612e+00 -1.228389e+02 -6.603748e+00 1.231473e+02 -3.830475e+00 1.149115e+02 -1.747451e+00 1.070799e+02 -1.090987e-01 9.964841e+01 1.063090e+00 9.242482e+01 1.601066e+00 8.478274e+01 9.805818e-01 7.613750e+01 -1.155108e-01 6.522946e+01 3.709943e+00 5.946002e+01 3.408647e+00 5.138458e+01 2.921547e+00 4.361171e+01 2.681120e+00 3.614171e+01 2.769143e+00 2.861968e+01 2.418465e+00 2.071962e+01 1.713854e+00 1.255339e+01 1.338939e+00 4.526512e+00 1.108820e+00 -3.527103e+00 7.953548e-01 -1.161857e+01 1.857483e-01 -1.945680e+01 -1.574097e-01 -2.712452e+01 -5.330574e-01 -3.484173e+01 -1.476653e+00 -4.328506e+01 -6.324948e-02 -5.132203e+01 -1.416590e+00 -6.056333e+01 -1.600855e+00 -6.622593e+01 -1.155145e+00 -7.355404e+01 -9.171010e-01 -8.143941e+01 -9.589151e-01 -8.949460e+01 -1.286178e+00 -9.767539e+01 -1.915552e+00 -1.059938e+02 
-4.323683e+00 -1.158459e+02 -6.047074e+00 -1.245118e+02 -8.621701e+00 1.252963e+02 -5.518952e+00 1.167729e+02 -3.177903e+00 1.086342e+02 -1.323968e+00 1.007470e+02 4.005566e-02 9.261948e+01 7.690237e-01 8.441671e+01 2.057963e+00 7.688561e+01 7.207925e-01 6.800058e+01 2.408445e+00 5.994667e+01 2.802906e+00 5.178989e+01 2.429479e+00 4.381705e+01 2.228353e+00 3.611034e+01 2.187944e+00 2.839225e+01 1.883068e+00 2.043949e+01 1.344455e+00 1.228723e+01 9.938548e-01 4.186628e+00 7.533077e-01 -3.917236e+00 3.922183e-01 -1.201306e+01 -2.431329e-01 -1.989404e+01 -6.394900e-01 -2.770373e+01 -1.080363e+00 -3.569409e+01 -1.865938e+00 -4.430071e+01 -1.389829e+00 -5.363072e+01 -1.335653e+00 -6.002581e+01 -1.107093e+00 -6.693012e+01 -1.424941e+00 -7.440520e+01 -1.604906e+00 -8.229374e+01 -1.852165e+00 -9.045817e+01 -2.329898e+00 -9.878906e+01 -3.127073e+00 -1.072637e+02 
-5.277371e+00 -1.160414e+02 -7.366221e+00 -1.248503e+02 -1.032437e+01 1.268243e+02 -6.922503e+00 1.180430e+02 -4.316073e+00 1.095717e+02 -2.312722e+00 1.012853e+02 -8.616428e-01 9.293687e+01 9.043889e-02 8.466458e+01 1.193400e+00 7.677196e+01 7.640555e-01 6.824680e+01 2.113497e+00 6.016759e+01 2.472771e+00 5.213325e+01 2.431693e+00 4.421531e+01 2.357712e+00 3.641706e+01 2.305246e+00 2.861046e+01 2.082964e+00 2.069567e+01 1.709674e+00 1.266597e+01 1.399861e+00 4.633672e+00 1.132165e+00 -3.410689e+00 7.895951e-01 -1.146665e+01 3.031303e-01 -1.940385e+01 -7.809474e-02 -2.730141e+01 -4.509650e-01 -3.525186e+01 -8.442156e-01 -4.313566e+01 -5.597700e-01 -5.092658e+01 -9.239076e-01 -5.919727e+01 -7.852633e-01 -6.702247e+01 -1.083805e+00 -7.473248e+01 -1.496620e+00 -8.256809e+01 -1.994073e+00 -9.063584e+01 -2.711589e+00 -9.892031e+01 -3.771722e+00 -1.074004e+02 
-6.556645e+00 -1.173099e+02 -8.889624e+00 -1.263308e+02 -1.216537e+01 1.286910e+02 -8.498396e+00 1.196121e+02 -5.649778e+00 1.107920e+02 -3.429189e+00 1.021250e+02 -1.764762e+00 9.354792e+01 -4.554365e-01 8.529261e+01 8.896704e-01 7.727603e+01 6.228162e-01 6.917427e+01 1.414166e+00 6.080764e+01 1.878029e+00 5.255411e+01 1.937331e+00 4.443457e+01 1.906198e+00 3.644538e+01 1.833938e+00 2.848424e+01 1.633810e+00 2.047185e+01 1.319685e+00 1.238394e+01 1.021250e+00 4.288084e+00 7.309691e-01 -3.802141e+00 3.598385e-01 -1.187278e+01 -1.310387e-01 -1.988012e+01 -5.658483e-01 -2.787466e+01 -9.996475e-01 -3.594723e+01 -1.471522e+00 -4.413014e+01 -1.495568e+00 -5.218476e+01 -1.335406e+00 -6.000985e+01 -1.198547e+00 -6.768655e+01 -1.567176e+00 -7.546336e+01 -2.108088e+00 -8.340273e+01 -2.767513e+00 -9.156061e+01 -3.643200e+00 -9.993913e+01 -4.864267e+00 -1.085275e+02 
-7.362354e+00 -1.173276e+02 -1.004406e+01 -1.264601e+02 -1.374558e+01 1.298677e+02 -9.796237e+00 1.205939e+02 -6.718499e+00 1.115727e+02 -4.305087e+00 1.027467e+02 -2.444310e+00 9.409240e+01 -1.017922e+00 8.568183e+01 1.296508e-01 7.743343e+01 5.264391e-01 6.919760e+01 1.292910e+00 6.099065e+01 1.766020e+00 5.282405e+01 1.965628e+00 4.474411e+01 2.026933e+00 3.674303e+01 2.005952e+00 2.877173e+01 1.875627e+00 2.078285e+01 1.648829e+00 1.275137e+01 1.394048e+00 4.703379e+00 1.115786e+00 -3.348003e+00 7.755663e-01 -1.138588e+01 3.678699e-01 -1.937047e+01 -1.032706e-02 -2.732199e+01 -3.561123e-01 -3.526610e+01 -6.559495e-01 -4.318643e+01 -7.798247e-01 -5.111789e+01 -9.849081e-01 -5.919014e+01 -1.074900e+00 -6.727338e+01 -1.411983e+00 -7.532048e+01 -2.012821e+00 -8.337882e+01 -2.833686e+00 -9.155667e+01 -3.921503e+00 -9.992219e+01 -5.386232e+00 -1.085069e+02 
-8.484207e+00 -1.184460e+02 -1.138791e+01 -1.277569e+02 -1.537974e+01 1.314406e+02 -1.118335e+01 1.219301e+02 -7.886183e+00 1.126724e+02 -5.274706e+00 1.036429e+02 -3.217272e+00 9.485375e+01 -1.583541e+00 8.633093e+01 -3.173055e-01 7.801406e+01 1.497682e-01 6.976254e+01 7.764960e-01 6.143895e+01 1.257274e+00 5.314562e+01 1.500410e+00 4.492157e+01 1.592324e+00 3.677603e+01 1.578620e+00 2.867750e+01 1.462221e+00 2.058929e+01 1.256733e+00 1.248474e+01 1.004583e+00 4.376824e+00 7.119249e-01 -3.720757e+00 3.539044e-01 -1.179787e+01 -7.045899e-02 -1.984829e+01 -4.912866e-01 -2.788925e+01 -8.960903e-01 -3.595553e+01 -1.269225e+00 -4.404296e+01 -1.445884e+00 -5.206545e+01 -1.488596e+00 -6.007290e+01 -1.585333e+00 -6.804824e+01 -1.979279e+00 -7.606913e+01 -2.639861e+00 -8.417230e+01 -3.548149e+00 -9.241437e+01 -4.748953e+00 -1.008478e+02 -6.345837e+00 -1.095113e+02 
-9.134707e+00 -1.182872e+02 -1.236135e+01 -1.276794e+02 -1.677566e+01 1.323327e+02 -1.229536e+01 1.227057e+02 -8.776540e+00 1.133447e+02 -5.980567e+00 1.042250e+02 -3.772849e+00 9.534668e+01 -2.054545e+00 8.669754e+01 -7.567943e-01 7.823516e+01 4.098681e-02 6.989911e+01 7.416755e-01 6.161582e+01 1.276921e+00 5.336791e+01 1.599212e+00 4.517627e+01 1.756545e+00 3.704848e+01 1.796415e+00 2.896833e+01 1.734526e+00 2.090818e+01 1.582445e+00 1.284386e+01 1.366217e+00 4.774887e+00 1.098302e+00 -3.288751e+00 7.758005e-01 -1.133335e+01 4.105150e-01 -1.934665e+01 4.848966e-02 -2.733592e+01 -2.881252e-01 -3.532099e+01 -5.958728e-01 -4.331018e+01 -8.545455e-01 -5.130992e+01 -1.126276e+00 -5.938632e+01 -1.412405e+00 -6.753764e+01 -1.858476e+00 -7.572279e+01 -2.572112e+00 -8.393195e+01 -3.588247e+00 -9.221971e+01 -4.949177e+00 -1.006616e+02 -6.747687e+00 -1.093259e+02 
-1.009449e+01 -1.192726e+02 -1.350863e+01 -1.288076e+02 -1.817565e+01 1.336426e+02 -1.346814e+01 1.238420e+02 -9.759130e+00 1.143205e+02 -6.798745e+00 1.050549e+02 -4.442513e+00 9.604923e+01 -2.590633e+00 8.729224e+01 -1.210403e+00 7.874563e+01 -3.891631e-01 7.033792e+01 2.858772e-01 6.194207e+01 8.409880e-01 5.358730e+01 1.180921e+00 4.528657e+01 1.349523e+00 3.704995e+01 1.395549e+00 2.886941e+01 1.342500e+00 2.072414e+01 1.198508e+00 1.259163e+01 9.801013e-01 4.466654e+00 7.011563e-01 -3.645502e+00 3.626801e-01 -1.174048e+01 -2.634113e-02 -1.982027e+01 -4.288867e-01 -2.789499e+01 -8.161582e-01 -3.598139e+01 -1.170525e+00 -4.407387e+01 -1.432903e+00 -5.213551e+01 -1.643154e+00 -6.021285e+01 -1.923980e+00 -6.832568e+01 -2.409593e+00 -7.648264e+01 -3.172381e+00 -8.469666e+01 -4.247522e+00 -9.301375e+01 -5.684097e+00 -1.014992e+02 -7.578680e+00 -1.102214e+02 
-1.058168e+01 -1.189471e+02 -1.427174e+01 -1.285363e+02 -1.930714e+01 1.342761e+02 -1.434371e+01 1.244097e+02 -1.044091e+01 1.148323e+02 -7.331102e+00 1.055039e+02 -4.860142e+00 9.642882e+01 -2.912097e+00 8.759150e+01 -1.428680e+00 7.894487e+01 -4.062654e-01 7.053487e+01 3.166462e-01 6.214087e+01 9.560182e-01 5.378539e+01 1.357769e+00 4.549847e+01 1.570437e+00 3.728702e+01 1.657974e+00 2.914111e+01 1.646286e+00 2.103351e+01 1.535690e+00 1.294100e+01 1.340931e+00 4.852536e+00 1.085773e+00 -3.229274e+00 7.805912e-01 -1.129752e+01 4.378058e-01 -1.934838e+01 8.294360e-02 -2.738344e+01 -2.545973e-01 -3.541404e+01 -5.776250e-01 -4.345016e+01 -9.030005e-01 -5.148818e+01 -1.264430e+00 -5.956594e+01 -1.712853e+00 -6.778698e+01 -2.260965e+00 -7.605166e+01 -3.084993e+00 -8.432611e+01 -4.251253e+00 -9.266712e+01 -5.810774e+00 -1.011575e+02 -7.862534e+00 -1.098797e+02 
-1.136907e+01 -1.198171e+02 -1.519855e+01 -1.295163e+02 -2.043512e+01 1.353205e+02 -1.528058e+01 1.253303e+02 -1.122565e+01 1.156397e+02 -7.988612e+00 1.061964e+02 -5.413238e+00 9.701066e+01 -3.377229e+00 8.808822e+01 -1.833811e+00 7.934316e+01 -8.338822e-01 7.087090e+01 -9.954782e-02 6.235052e+01 5.916819e-01 5.390648e+01 9.884027e-01 4.553634e+01 1.190401e+00 3.724227e+01 1.276560e+00 2.901942e+01 1.272788e+00 2.084458e+01 1.165801e+00 1.269470e+01 9.639570e-01 4.556913e+00 6.978984e-01 -3.570374e+00 3.772377e-01 -1.169030e+01 6.364577e-03 -1.980732e+01 -3.903591e-01 -2.792373e+01 -7.720747e-01 -3.604571e+01 -1.131835e+00 -4.416737e+01 -1.449402e+00 -5.225048e+01 -1.777649e+00 -6.035255e+01 -2.195767e+00 -6.856353e+01 -2.763364e+00 -7.679634e+01 -3.629067e+00 -8.504950e+01 -4.839697e+00 -9.339479e+01 -6.447842e+00 -1.019124e+02 -8.561052e+00 -1.106793e+02 
-1.167453e+01 -1.193475e+02 -1.572026e+01 -1.290734e+02 -2.126132e+01 1.356671e+02 -1.589138e+01 1.256589e+02 -1.168407e+01 1.159595e+02 -8.333240e+00 1.064834e+02 -5.675478e+00 9.725021e+01 -3.546928e+00 8.830798e+01 -1.873971e+00 7.945884e+01 -7.000540e-01 7.111918e+01 -8.373273e-03 6.254785e+01 8.097362e-01 5.406508e+01 1.248273e+00 4.569871e+01 1.465648e+00 3.743512e+01 1.579984e+00 2.926633e+01 1.613123e+00 2.113945e+01 1.522560e+00 1.303280e+01 1.322591e+00 4.933290e+00 1.071916e+00 -3.163036e+00 7.810481e-01 -1.126186e+01 4.515083e-01 -1.936566e+01 9.500146e-02 -2.745854e+01 -2.464529e-01 -3.553868e+01 -5.715458e-01 -4.361070e+01 -9.329984e-01 -5.166916e+01 -1.358434e+00 -5.967703e+01 -1.969427e+00 -6.802789e+01 -2.574564e+00 -7.633018e+01 -3.507196e+00 -8.458080e+01 -4.794835e+00 -9.291849e+01 -6.489401e+00 -1.014359e+02 -8.714104e+00 -1.102034e+02 
-1.227101e+01 -1.201221e+02 -1.639869e+01 -1.299273e+02 -2.207536e+01 1.364166e+02 -1.656758e+01 1.263301e+02 -1.226091e+01 1.165665e+02 -8.823811e+00 1.070184e+02 -6.094908e+00 9.768877e+01 -3.918388e+00 8.869494e+01 -2.181448e+00 7.974593e+01 -1.118419e+00 7.133546e+01 -3.886082e-01 6.257539e+01 5.365350e-01 5.408850e+01 9.218122e-01 4.566968e+01 1.101992e+00 3.734032e+01 1.210783e+00 2.911390e+01 1.261673e+00 2.093716e+01 1.173403e+00 1.278325e+01 9.546152e-01 4.643264e+00 6.914015e-01 -3.485735e+00 3.890631e-01 -1.162655e+01 2.891440e-02 -1.979322e+01 -3.722183e-01 -2.796385e+01 -7.539426e-01 -3.614591e+01 -1.125976e+00 -4.432978e+01 -1.467258e+00 -5.240752e+01 -1.870563e+00 -6.047878e+01 -2.401812e+00 -6.880704e+01 -3.022153e+00 -7.702548e+01 -3.994398e+00 -8.522668e+01 -5.304988e+00 -9.356409e+01 -7.016218e+00 -1.021114e+02 -9.265581e+00 -1.109218e+02 
-1.236573e+01 -1.195384e+02 -1.664102e+01 -1.293422e+02 -2.254739e+01 1.364221e+02 -1.688841e+01 1.263609e+02 -1.249194e+01 1.166557e+02 -8.978029e+00 1.071616e+02 -6.191872e+00 9.780407e+01 -3.974639e+00 8.885623e+01 -2.079605e+00 7.980384e+01 -7.812230e-01 7.164055e+01 -2.073466e-01 6.261309e+01 8.642780e-01 5.420581e+01 1.268123e+00 4.578131e+01 1.419555e+00 3.747594e+01 1.543990e+00 2.934003e+01 1.652114e+00 2.122051e+01 1.564174e+00 1.310484e+01 1.295029e+00 5.006070e+00 1.033394e+00 -3.075953e+00 7.615606e-01 -1.118835e+01 4.474209e-01 -1.936585e+01 1.052085e-01 -2.751959e+01 -2.354688e-01 -3.568947e+01 -5.670870e-01 -4.384761e+01 -9.477259e-01 -5.190776e+01 -1.328590e+00 -5.974376e+01 -2.173908e+00 -6.836657e+01 -2.842919e+00 -7.649275e+01 -3.874393e+00 -8.461955e+01 -5.204775e+00 -9.296039e+01 -6.946882e+00 -1.015260e+02 -9.260134e+00 -1.103424e+02 
-1.274687e+01 -1.202367e+02 -1.703931e+01 -1.300911e+02 -2.299434e+01 1.368384e+02 -1.727231e+01 1.267331e+02 -1.284695e+01 1.170033e+02 -9.315623e+00 1.075076e+02 -6.490741e+00 9.816799e+01 -4.226263e+00 8.919669e+01 -2.328707e+00 8.024025e+01 -1.228010e+00 7.127603e+01 -6.337091e-01 6.232319e+01 6.839443e-01 5.424333e+01 9.756332e-01 4.571294e+01 1.055646e+00 3.732312e+01 1.177091e+00 2.915309e+01 1.337680e+00 2.100200e+01 1.250656e+00 1.284401e+01 9.290267e-01 4.707975e+00 6.516928e-01 -3.387217e+00 3.772033e-01 -1.150450e+01 3.042126e-02 -1.974306e+01 -3.593443e-01 -2.795125e+01 -7.189739e-01 -3.619468e+01 -1.124320e+00 -4.462141e+01 -1.499822e+00 -5.279181e+01 -1.838423e+00 -6.073576e+01 -2.621716e+00 -6.910062e+01 -3.294965e+00 -7.702947e+01 -4.325122e+00 -8.513201e+01 -5.622688e+00 -9.351685e+01 -7.339667e+00 -1.021346e+02 -9.641073e+00 -1.109970e+02 
-1.260060e+01 -1.195630e+02 -1.695820e+01 -1.293930e+02 -2.299507e+01 1.364914e+02 -1.726071e+01 1.263907e+02 -1.284682e+01 1.166769e+02 -9.327030e+00 1.073369e+02 -6.420433e+00 9.837830e+01 -4.132910e+00 8.941084e+01 -2.455350e+00 8.117747e+01 -5.256941e-01 7.060905e+01 -9.696181e-03 6.177053e+01 7.397322e-01 5.474877e+01 1.501275e+00 4.576667e+01 1.415916e+00 3.734851e+01 1.508944e+00 2.936286e+01 1.805560e+00 2.127963e+01 1.730504e+00 1.313849e+01 1.199953e+00 5.026235e+00 9.117970e-01 -2.992962e+00 6.743386e-01 -1.099815e+01 3.688534e-01 -1.933038e+01 1.538194e-01 -2.750409e+01 -1.212893e-01 -3.558848e+01 -4.757604e-01 -4.423193e+01 -1.260293e+00 -5.245393e+01 -6.602794e-01 -6.049114e+01 -2.579890e+00 -6.864055e+01 -3.476455e+00 -7.606842e+01 -4.220406e+00 -8.435236e+01 -5.400207e+00 -9.284883e+01 -7.109374e+00 -1.014921e+02 -9.444194e+00 -1.103455e+02 
-1.274811e+01 -1.201951e+02 -1.705112e+01 -1.300510e+02 -2.302631e+01 1.365693e+02 -1.732842e+01 1.264383e+02 -1.295631e+01 1.167029e+02 -9.462776e+00 1.074097e+02 -6.521748e+00 9.858876e+01 -4.209222e+00 8.967382e+01 -2.567809e+00 8.185411e+01 -7.869237e-02 7.003971e+01 -5.348514e-02 6.147365e+01 3.722482e-01 5.499049e+01 1.310430e+00 4.554618e+01 1.041733e+00 3.702785e+01 1.097792e+00 2.909879e+01 1.463043e+00 2.098184e+01 1.371137e+00 1.278410e+01 7.185433e-01 4.633547e+00 4.174629e-01 -3.399172e+00 1.784089e-01 -1.138316e+01 -1.465230e-01 -1.979391e+01 -3.296676e-01 -2.799031e+01 -5.800583e-01 -3.599907e+01 -8.853525e-01 -4.484652e+01 -1.774664e+00 -5.360329e+01 -7.983067e-01 -6.148528e+01 -2.964850e+00 -6.897781e+01 -3.908767e+00 -7.633885e+01 -4.545844e+00 -8.477794e+01 -5.665987e+00 -9.336547e+01 -7.338748e+00 -1.020586e+02 -9.636579e+00 -1.109478e+02 