# vtk DataFile Version 2.0
Comment goes here
ASCII

DATASET STRUCTURED_POINTS
FIELD FieldData 1
TIME 1 1 double
1.10000000
DIMENSIONS    512   128   1

ORIGIN    0.000   0.000   0.000
SPACING   0.0019531 0.0019531   1.000

POINT_DATA   65536
SCALARS P double
LOOKUP_TABLE default

2.907678e-01 3.919649e-01 3.327971e-01 3.895528e-01 3.413396e-01 3.572492e-01 3.327595e-01 3.106305e-01 3.206077e-01 2.608163e-01 3.129854e-01 2.138147e-01 3.138906e-01 1.722813e-01 3.249926e-01 1.371017e-01 3.467175e-01 1.080973e-01 3.783898e-01 8.368971e-02 4.174037e-01 5.968948e-02 4.580586e-01 2.862028e-02 4.924232e-01 -1.723455e-02 5.157589e-01 -7.875769e-02 5.316914e-01 -1.483183e-01 5.473924e-01 -2.184877e-01 5.670556e-01 -2.858482e-01 5.915757e-01 -3.496291e-01 6.200143e-01 -4.097523e-01 6.506563e-01 -4.657482e-01 6.809858e-01 -5.166406e-01 7.080305e-01 -5.610664e-01 7.289767e-01 -5.979737e-01 7.417849e-01 -6.270350e-01 7.458649e-01 -6.483401e-01 7.417994e-01 -6.621389e-01 7.309634e-01 -6.681105e-01 7.151578e-01 -6.658095e-01 6.957797e-01 -6.555782e-01 6.744183e-01 -6.384545e-01 6.524749e-01 -6.163497e-01 6.310167e-01 -5.910261e-01 6.107528e-01 -5.639913e-01 5.917760e-01 -5.361233e-01 5.740352e-01 -5.078655e-01 5.572612e-01 -4.795079e-01 5.414152e-01 -4.512385e-01 5.265793e-01 -4.233443e-01 5.129528e-01 -3.960224e-01 5.007549e-01 -3.694770e-01 4.901032e-01 -3.438384e-01 4.810277e-01 -3.192208e-01 4.734133e-01 -2.957272e-01 4.670574e-01 -2.734163e-01 4.617576e-01 -2.522518e-01 4.573246e-01 -2.322135e-01 4.536062e-01 -2.132273e-01 4.505912e-01 -1.952820e-01 4.482536e-01 -1.783685e-01 4.466377e-01 -1.623913e-01 4.456539e-01 -1.472556e-01 4.451887e-01 -1.327472e-01 4.451186e-01 -1.187685e-01 4.453220e-01 -1.052229e-01 4.458343e-01 -9.214901e-02 4.466603e-01 -7.961786e-02 4.478866e-01 -6.761341e-02 4.494423e-01 -5.611223e-02 4.512292e-01 -4.494304e-02 4.531238e-01 -3.404438e-02 4.550061e-01 -2.334352e-02 4.569227e-01 -1.291294e-02 4.588989e-01 -2.857162e-03 4.610534e-01 6.804690e-03 4.633424e-01 1.606873e-02 4.656931e-01 2.509242e-02 4.679894e-01 3.393320e-02 4.701157e-01 4.266612e-02 4.721229e-01 5.121155e-02 4.740493e-01 5.945526e-02 4.760344e-01 6.735894e-02 4.780556e-01 7.490395e-02 4.800606e-01 8.223951e-02 4.819352e-01 8.942633e-02 4.835630e-01 9.654741e-02 4.849901e-01 1.035231e-01 4.862598e-01 1.102365e-01 4.875232e-01 1.166347e-01 4.887726e-01 1.226878e-01 4.899709e-01 1.285372e-01 4.910027e-01 1.342479e-01 4.917479e-01 1.399109e-01 4.922431e-01 1.454485e-01 4.925316e-01 1.507435e-01 4.927701e-01 1.557294e-01 4.929620e-01 1.603659e-01 4.930818e-01 1.647851e-01 4.930104e-01 1.690548e-01 4.926224e-01 1.732728e-01 4.919409e-01 1.773633e-01 4.910051e-01 1.812085e-01 4.899729e-01 1.847277e-01 4.888541e-01 1.878685e-01 4.876313e-01 1.907506e-01 4.861789e-01 1.934405e-01 4.843627e-01 1.960392e-01 4.821877e-01 1.984691e-01 4.796829e-01 2.006093e-01 4.769993e-01 2.023594e-01 4.741467e-01 2.036488e-01 4.711074e-01 2.045756e-01 4.677413e-01 2.051951e-01 4.638955e-01 2.055992e-01 4.595440e-01 2.056959e-01 4.546888e-01 2.053453e-01 4.494549e-01 2.044082e-01 4.438276e-01 2.027706e-01 4.377612e-01 2.004775e-01 4.310668e-01 1.975329e-01 4.235310e-01 1.939700e-01 4.150431e-01 1.896216e-01 4.055103e-01 1.842550e-01 3.949468e-01 1.776024e-01 3.832119e-01 1.694005e-01 3.701143e-01 1.595224e-01 3.552955e-01 1.477951e-01 3.383720e-01 1.340856e-01 3.190862e-01 1.181086e-01 2.972763e-01 9.962279e-02 2.730398e-01 7.854580e-02 2.465833e-01 5.510676e-02 2.184472e-01 3.011733e-02 1.895419e-01 4.966932e-03 1.614044e-01 -1.811464e-02 1.364689e-01 -3.600436e-02 1.182107e-01 -4.452776e-02 1.111276e-01 -3.888059e-02 1.200538e-01 -1.491925e-02 1.480004e-01 2.745555e-02 1.924644e-01 8.159925e-02 2.451601e-01 1.392805e-01 2.982521e-01 1.945661e-01 3.469594e-01 2.443329e-01 3.890865e-01 2.871652e-01 4.239762e-01 3.227407e-01 4.518375e-01 3.513857e-01 4.731221e-01 3.737646e-01 4.884684e-01 3.907916e-01 4.986622e-01 4.032962e-01 5.045527e-01 4.120603e-01 5.070859e-01 4.177306e-01 5.070479e-01 4.208886e-01 5.051177e-01 4.221543e-01 5.016955e-01 4.220662e-01 4.970616e-01 4.211410e-01 4.914588e-01 4.196468e-01 4.851175e-01 4.177473e-01 4.783555e-01 4.154497e-01 4.713814e-01 4.127504e-01 4.643739e-01 4.097524e-01 4.572953e-01 4.065810e-01 4.500649e-01 4.034374e-01 4.426179e-01 4.003525e-01 4.349500e-01 3.973176e-01 4.272051e-01 3.941957e-01 4.194786e-01 3.908755e-01 4.118798e-01 3.873727e-01 4.043202e-01 3.837589e-01 3.966855e-01 3.802065e-01 3.888718e-01 3.767362e-01 3.808477e-01 3.733401e-01 3.727370e-01 3.698706e-01 3.646333e-01 3.662070e-01 3.566546e-01 3.623476e-01 3.487186e-01 3.583573e-01 3.407177e-01 3.544106e-01 3.325367e-01 3.505386e-01 3.241352e-01 3.467483e-01 3.156271e-01 3.428914e-01 3.071100e-01 3.388447e-01 2.987141e-01 3.345919e-01 2.903663e-01 3.301922e-01 2.819683e-01 3.258215e-01 2.733948e-01 3.215214e-01 2.645965e-01 3.173139e-01 2.556765e-01 3.130515e-01 2.467346e-01 3.086092e-01 2.379126e-01 3.039556e-01 2.291472e-01 2.991426e-01 2.203506e-01 2.943459e-01 2.113878e-01 2.896168e-01 2.022000e-01 2.849930e-01 1.928778e-01 2.803287e-01 1.835222e-01 2.754979e-01 1.742854e-01 2.704536e-01 1.651151e-01 2.652387e-01 1.559354e-01 2.600266e-01 1.466018e-01 2.548784e-01 1.370453e-01 2.498477e-01 1.273428e-01 2.447920e-01 1.175950e-01 2.395851e-01 1.079642e-01 2.341640e-01 9.841034e-02 2.285607e-01 8.887101e-02 2.229442e-01 7.919288e-02 2.173853e-01 6.929651e-02 2.119541e-01 5.924352e-02 2.065129e-01 4.913328e-02 2.009369e-01 3.913777e-02 1.951465e-01 2.923041e-02 1.891616e-01 1.936427e-02 1.831441e-01 9.378408e-03 1.771737e-01 -8.167321e-04 1.713376e-01 -1.117547e-02 1.655043e-01 -2.160083e-02 1.595518e-01 -3.191245e-02 1.533851e-01 -4.212351e-02 1.470120e-01 -5.226503e-02 1.405862e-01 -6.250334e-02 1.341947e-01 -7.293598e-02 1.279401e-01 -8.353241e-02 1.216975e-01 -9.419830e-02 1.153492e-01 -1.047457e-01 1.087855e-01 -1.151742e-01 1.020026e-01 -1.254982e-01 9.514483e-02 -1.358867e-01 8.830487e-02 -1.464425e-01 8.159936e-02 -1.571485e-01 7.491055e-02 -1.679124e-01 6.812597e-02 -1.785387e-01 6.112310e-02 -1.890123e-01 5.388669e-02 -1.993288e-01 4.655127e-02 -2.096554e-01 3.921401e-02 -2.200955e-01 3.200457e-02 -2.306412e-01 2.481379e-02 -2.411992e-01 1.753712e-02 -2.515630e-01 1.004268e-02 -2.616980e-01 2.307231e-03 -2.715747e-01 -5.541262e-03 -2.813474e-01 -1.339815e-02 -2.911067e-01 -2.111604e-02 -3.008375e-01 -2.878536e-02 -3.104272e-01 -3.648699e-02 -3.196355e-01 -4.433643e-02 -3.283756e-01 -5.232998e-02 -3.365444e-01 -6.029302e-02 -3.442054e-01 -6.803634e-02 -3.513187e-01 -7.527242e-02 -3.576764e-01 -8.187150e-02 -3.628707e-01 -8.756805e-02 -3.662084e-01 -9.195313e-02 -3.669433e-01 -9.428200e-02 -3.641075e-01 -9.347403e-02 -3.568570e-01 -8.859267e-02 -3.446432e-01 -7.928435e-02 -3.276016e-01 -6.629363e-02 -3.065118e-01 -5.062881e-02 -2.819088e-01 -3.262804e-02 -2.534598e-01 -1.161682e-02 -2.198388e-01 1.403117e-02 -1.788366e-01 4.669919e-02 -1.275706e-01 8.919042e-02 -6.295887e-02 1.439350e-01 1.706516e-02 2.111900e-01 1.109176e-01 2.857790e-01 2.090633e-01 3.533564e-01 
3.798813e-01 6.861331e-01 4.246393e-01 6.906579e-01 4.441563e-01 6.704826e-01 4.484676e-01 6.360173e-01 4.478632e-01 5.961242e-01 4.495754e-01 5.563928e-01 4.578086e-01 5.197694e-01 4.747498e-01 4.875837e-01 5.013907e-01 4.601214e-01 5.376839e-01 4.363645e-01 5.818199e-01 4.128547e-01 6.290161e-01 3.827925e-01 6.719347e-01 3.384551e-01 7.056082e-01 2.780571e-01 7.330706e-01 2.081607e-01 7.610904e-01 1.353948e-01 7.937100e-01 6.255403e-02 8.319169e-01 -1.021486e-02 8.747849e-01 -8.365051e-02 9.205364e-01 -1.580468e-01 9.663000e-01 -2.333412e-01 1.008337e+00 -3.089134e-01 1.042856e+00 -3.844096e-01 1.066301e+00 -4.599019e-01 1.076462e+00 -5.350687e-01 1.071952e+00 -6.089911e-01 1.052553e+00 -6.789041e-01 1.019377e+00 -7.414296e-01 9.743136e-01 -7.937923e-01 9.207993e-01 -8.347160e-01 8.624768e-01 -8.647723e-01 8.028316e-01 -8.850854e-01 7.444870e-01 -8.972213e-01 6.889099e-01 -9.023069e-01 6.369317e-01 -9.012732e-01 5.886763e-01 -8.949207e-01 5.443442e-01 -8.839727e-01 5.040535e-01 -8.692622e-01 4.680094e-01 -8.514143e-01 4.363666e-01 -8.310397e-01 4.091343e-01 -8.085935e-01 3.862217e-01 -7.845371e-01 3.673286e-01 -7.593689e-01 3.520307e-01 -7.335746e-01 3.398596e-01 -7.075471e-01 3.303152e-01 -6.816631e-01 3.229319e-01 -6.561647e-01 3.174063e-01 -6.313117e-01 3.134554e-01 -6.072975e-01 3.109394e-01 -5.841903e-01 3.096042e-01 -5.620133e-01 3.092243e-01 -5.406116e-01 3.095639e-01 -5.199323e-01 3.104125e-01 -4.998711e-01 3.117361e-01 -4.804779e-01 3.134823e-01 -4.618219e-01 3.157302e-01 -4.439012e-01 3.183855e-01 -4.267017e-01 3.213527e-01 -4.100347e-01 3.244815e-01 -3.938309e-01 3.276293e-01 -3.779719e-01 3.308204e-01 -3.625188e-01 3.340597e-01 -3.475586e-01 3.374865e-01 -3.331197e-01 3.410557e-01 -3.192133e-01 3.447169e-01 -3.056690e-01 3.483406e-01 -2.924246e-01 3.518003e-01 -2.793628e-01 3.551286e-01 -2.665543e-01 3.583486e-01 -2.540980e-01 3.616214e-01 -2.420460e-01 3.649268e-01 -2.304284e-01 3.682395e-01 -2.190916e-01 3.714357e-01 -2.079748e-01 3.743916e-01 -1.969578e-01 3.771337e-01 -1.861134e-01 3.796908e-01 -1.755438e-01 3.822325e-01 -1.653187e-01 3.847544e-01 -1.554806e-01 3.872478e-01 -1.458908e-01 3.895901e-01 -1.364871e-01 3.916563e-01 -1.271451e-01 3.934621e-01 -1.179363e-01 3.950359e-01 -1.089624e-01 3.965497e-01 -1.003077e-01 3.980101e-01 -9.202493e-02 3.994206e-01 -8.398960e-02 4.006572e-01 -7.613856e-02 4.015920e-01 -6.834384e-02 4.022261e-01 -6.067490e-02 4.025842e-01 -5.323247e-02 4.028354e-01 -4.611466e-02 4.029929e-01 -3.938535e-02 4.030685e-01 -3.293640e-02 4.029338e-01 -2.670658e-02 4.024547e-01 -2.056807e-02 4.016135e-01 -1.459127e-02 4.004251e-01 -8.878763e-03 3.990484e-01 -3.546928e-03 3.974963e-01 1.323660e-03 3.957801e-01 5.816898e-03 3.937588e-01 9.982061e-03 3.912825e-01 1.393506e-02 3.883026e-01 1.759169e-02 3.848080e-01 2.083236e-02 3.809282e-01 2.350365e-02 3.766520e-01 2.548415e-02 3.719623e-01 2.680303e-02 3.666713e-01 2.745786e-02 3.605709e-01 2.750206e-02 3.535275e-01 2.677406e-02 3.454329e-01 2.505648e-02 3.362943e-01 2.205885e-02 3.259573e-01 1.749250e-02 3.142280e-01 1.118119e-02 3.007063e-01 2.889097e-03 2.849481e-01 -7.586438e-03 2.665860e-01 -2.064109e-02 2.453152e-01 -3.665561e-02 2.210629e-01 -5.589662e-02 1.938421e-01 -7.835109e-02 1.640023e-01 -1.034353e-01 1.322977e-01 -1.299417e-01 1.001588e-01 -1.557094e-01 6.998126e-02 -1.773767e-01 4.557034e-02 -1.899582e-01 3.232772e-02 -1.871178e-01 3.726402e-02 -1.618425e-01 6.669416e-02 -1.116707e-01 1.195564e-01 -4.516114e-02 1.837225e-01 2.576241e-02 2.478149e-01 9.300450e-02 3.056737e-01 1.529589e-01 3.549039e-01 2.041984e-01 3.950975e-01 2.466673e-01 4.268678e-01 2.809367e-01 4.509649e-01 3.079189e-01 4.682914e-01 3.287812e-01 4.798517e-01 3.445851e-01 4.866865e-01 3.563136e-01 4.898935e-01 3.647663e-01 4.903835e-01 3.706374e-01 4.889350e-01 3.746041e-01 4.860155e-01 3.772437e-01 4.819564e-01 3.790977e-01 4.770041e-01 3.804500e-01 4.713895e-01 3.814886e-01 4.654118e-01 3.822128e-01 4.592710e-01 3.826172e-01 4.531563e-01 3.827706e-01 4.470284e-01 3.827810e-01 4.408179e-01 3.828436e-01 4.344337e-01 3.829882e-01 4.278603e-01 3.832268e-01 4.212168e-01 3.834147e-01 4.145918e-01 3.834448e-01 4.081100e-01 3.833017e-01 4.016876e-01 3.830459e-01 3.952297e-01 3.828467e-01 3.886118e-01 3.827281e-01 3.817975e-01 3.827078e-01 3.748872e-01 3.826348e-01 3.679696e-01 3.823979e-01 3.611793e-01 3.819657e-01 3.544405e-01 3.813943e-01 3.476688e-01 3.808536e-01 3.407303e-01 3.803783e-01 3.335826e-01 3.800016e-01 3.263148e-01 3.795740e-01 3.190196e-01 3.789844e-01 3.118420e-01 3.781875e-01 3.047161e-01 3.772344e-01 2.975686e-01 3.762941e-01 2.902573e-01 3.754109e-01 2.827330e-01 3.746333e-01 2.750726e-01 3.738136e-01 2.673706e-01 3.728414e-01 2.597812e-01 3.716569e-01 2.522485e-01 3.703049e-01 2.447113e-01 3.689512e-01 2.370191e-01 3.676494e-01 2.291155e-01 3.664625e-01 2.210636e-01 3.652460e-01 2.129584e-01 3.638909e-01 2.049624e-01 3.623223e-01 1.970303e-01 3.605771e-01 1.891136e-01 3.588160e-01 1.810545e-01 3.571012e-01 1.727886e-01 3.555110e-01 1.643638e-01 3.539050e-01 1.558746e-01 3.521764e-01 1.474909e-01 3.502350e-01 1.391790e-01 3.481081e-01 1.309052e-01 3.459492e-01 1.225043e-01 3.438287e-01 1.139040e-01 3.418406e-01 1.051359e-01 3.398502e-01 9.629261e-02 3.377544e-01 8.755123e-02 3.354473e-01 7.889072e-02 3.329454e-01 7.029374e-02 3.303922e-01 6.158922e-02 3.278662e-01 5.269703e-02 3.254770e-01 4.363217e-02 3.230968e-01 3.448463e-02 3.206275e-01 2.543737e-02 3.179489e-01 1.648194e-02 3.150669e-01 7.617532e-03 3.121142e-01 -1.330673e-03 3.091754e-01 -1.044839e-02 3.063746e-01 -1.973633e-02 3.035909e-01 -2.910702e-02 3.007325e-01 -3.837227e-02 2.976658e-01 -4.752776e-02 2.943865e-01 -5.655713e-02 2.910160e-01 -6.563624e-02 2.876437e-01 -7.485356e-02 2.844062e-01 -8.422342e-02 2.811903e-01 -9.365992e-02 2.779115e-01 -1.029693e-01 2.744247e-01 -1.121331e-01 2.707162e-01 -1.211158e-01 2.668962e-01 -1.300896e-01 2.630578e-01 -1.391407e-01 2.593493e-01 -1.482916e-01 2.556669e-01 -1.574540e-01 2.519362e-01 -1.664248e-01 2.480052e-01 -1.751658e-01 2.438552e-01 -1.836155e-01 2.395899e-01 -1.919299e-01 2.353107e-01 -2.001782e-01 2.311830e-01 -2.083715e-01 2.271239e-01 -2.163984e-01 2.230861e-01 -2.240202e-01 2.189407e-01 -2.311436e-01 2.147024e-01 -2.376306e-01 2.105276e-01 -2.435384e-01 2.066068e-01 -2.487969e-01 2.032470e-01 -2.532121e-01 2.005894e-01 -2.563714e-01 1.989332e-01 -2.575822e-01 1.986806e-01 -2.560983e-01 2.005814e-01 -2.509346e-01 2.056924e-01 -2.412558e-01 2.149140e-01 -2.265310e-01 2.285483e-01 -2.069497e-01 2.458037e-01 -1.833297e-01 2.656604e-01 -1.562143e-01 2.877625e-01 -1.253120e-01 3.126833e-01 -8.945807e-02 3.417789e-01 -4.682215e-02 3.768932e-01 4.766430e-03 4.199215e-01 6.725708e-02 4.720294e-01 1.412966e-01 5.322732e-01 2.243806e-01 5.956477e-01 3.085635e-01 6.516103e-01 
2.114735e-01 3.125531e-01 2.512590e-01 3.144854e-01 2.716075e-01 2.966870e-01 2.795207e-01 2.664552e-01 2.825994e-01 2.304882e-01 2.866125e-01 1.934180e-01 2.952346e-01 1.579876e-01 3.105912e-01 1.256706e-01 3.337955e-01 9.706211e-02 3.650251e-01 7.161536e-02 4.028108e-01 4.649513e-02 4.427102e-01 1.538106e-02 4.773531e-01 -2.953675e-02 5.015362e-01 -8.988446e-02 5.192287e-01 -1.575777e-01 5.376502e-01 -2.253431e-01 5.604138e-01 -2.902680e-01 5.879403e-01 -3.521739e-01 6.189724e-01 -4.113923e-01 6.519076e-01 -4.674274e-01 6.841217e-01 -5.191652e-01 7.124040e-01 -5.646757e-01 7.338373e-01 -6.024933e-01 7.462142e-01 -6.322215e-01 7.493925e-01 -6.538468e-01 7.443217e-01 -6.678983e-01 7.326798e-01 -6.737681e-01 7.165939e-01 -6.707646e-01 6.969044e-01 -6.594254e-01 6.752828e-01 -6.408264e-01 6.531033e-01 -6.174598e-01 6.314714e-01 -5.911268e-01 6.112468e-01 -5.635127e-01 5.923204e-01 -5.353537e-01 5.747019e-01 -5.069316e-01 5.579068e-01 -4.784880e-01 5.419646e-01 -4.501000e-01 5.269644e-01 -4.221459e-01 5.131608e-01 -3.947698e-01 5.008356e-01 -3.682155e-01 4.900997e-01 -3.425814e-01 4.810122e-01 -3.179752e-01 4.734300e-01 -2.945145e-01 4.671095e-01 -2.722804e-01 4.618434e-01 -2.511809e-01 4.574315e-01 -2.312297e-01 4.536701e-01 -2.122955e-01 4.506237e-01 -1.943968e-01 4.482248e-01 -1.775690e-01 4.466173e-01 -1.616740e-01 4.456576e-01 -1.466765e-01 4.452243e-01 -1.322460e-01 4.451879e-01 -1.183416e-01 4.453497e-01 -1.048014e-01 4.458374e-01 -9.171386e-02 4.466008e-01 -7.921084e-02 4.478439e-01 -6.723603e-02 4.494330e-01 -5.583621e-02 4.512666e-01 -4.471250e-02 4.532083e-01 -3.386274e-02 4.550559e-01 -2.313788e-02 4.569494e-01 -1.266532e-02 4.588578e-01 -2.609417e-03 4.610257e-01 7.046306e-03 4.633445e-01 1.622503e-02 4.657469e-01 2.521373e-02 4.680958e-01 3.401241e-02 4.701926e-01 4.278032e-02 4.721770e-01 5.137958e-02 4.740317e-01 5.963945e-02 4.760257e-01 6.755052e-02 4.780723e-01 7.502014e-02 4.801334e-01 8.232470e-02 4.820663e-01 8.947096e-02 4.836721e-01 9.663238e-02 4.850789e-01 1.036686e-01 4.862761e-01 1.104107e-01 4.875459e-01 1.168269e-01 4.888182e-01 1.228137e-01 4.900785e-01 1.286355e-01 4.911756e-01 1.343069e-01 4.919088e-01 1.400150e-01 4.923892e-01 1.456193e-01 4.926081e-01 1.509558e-01 4.928540e-01 1.559713e-01 4.930695e-01 1.605527e-01 4.932597e-01 1.649499e-01 4.932636e-01 1.691846e-01 4.928774e-01 1.734549e-01 4.921912e-01 1.776205e-01 4.911938e-01 1.815232e-01 4.901744e-01 1.850870e-01 4.890847e-01 1.881885e-01 4.879452e-01 1.910589e-01 4.865823e-01 1.937227e-01 4.847869e-01 1.963850e-01 4.826222e-01 1.989023e-01 4.800686e-01 2.011194e-01 4.774077e-01 2.029323e-01 4.745928e-01 2.042004e-01 4.716511e-01 2.051270e-01 4.683879e-01 2.057282e-01 4.645788e-01 2.062029e-01 4.602467e-01 2.063909e-01 4.553456e-01 2.061238e-01 4.501283e-01 2.052484e-01 4.445245e-01 2.035805e-01 4.385376e-01 2.012616e-01 4.319147e-01 1.982552e-01 4.243689e-01 1.946984e-01 4.158229e-01 1.903433e-01 4.061234e-01 1.849171e-01 3.953895e-01 1.781022e-01 3.833888e-01 1.695212e-01 3.699247e-01 1.590739e-01 3.544832e-01 1.464449e-01 3.364859e-01 1.314567e-01 3.155492e-01 1.135509e-01 2.912419e-01 9.221233e-02 2.635225e-01 6.707857e-02 2.322740e-01 3.803735e-02 1.978356e-01 5.754980e-03 1.609621e-01 -2.853716e-02 1.231800e-01 -6.246946e-02 8.723946e-02 -9.221073e-02 5.765552e-02 -1.117280e-01 4.107224e-02 -1.127512e-01 4.684005e-02 -8.528994e-02 8.353117e-02 -2.604512e-02 1.482848e-01 4.997135e-02 2.226858e-01 1.267924e-01 2.930833e-01 1.960961e-01 3.539361e-01 2.554422e-01 4.038378e-01 3.042928e-01 4.432260e-01 3.432701e-01 4.733602e-01 3.733558e-01 4.952764e-01 3.957074e-01 5.100769e-01 4.117946e-01 5.189520e-01 4.227674e-01 5.230219e-01 4.297089e-01 5.235891e-01 4.334416e-01 5.215791e-01 4.346330e-01 5.178562e-01 4.340633e-01 5.128099e-01 4.322934e-01 5.067096e-01 4.299713e-01 4.998051e-01 4.272954e-01 4.922754e-01 4.244407e-01 4.845258e-01 4.213292e-01 4.767101e-01 4.178801e-01 4.690791e-01 4.142236e-01 4.614922e-01 4.104432e-01 4.538227e-01 4.068470e-01 4.459720e-01 4.033905e-01 4.378814e-01 4.000964e-01 4.297831e-01 3.967443e-01 4.217359e-01 3.931654e-01 4.139463e-01 3.894061e-01 4.062365e-01 3.855116e-01 3.984692e-01 3.817754e-01 3.905073e-01 3.781552e-01 3.822757e-01 3.746942e-01 3.739875e-01 3.711610e-01 3.657085e-01 3.673872e-01 3.576655e-01 3.633956e-01 3.496888e-01 3.592293e-01 3.416597e-01 3.551863e-01 3.334219e-01 3.512386e-01 3.248945e-01 3.474555e-01 3.162751e-01 3.436001e-01 3.076370e-01 3.395070e-01 2.992257e-01 3.351755e-01 2.908801e-01 3.306442e-01 2.825012e-01 3.262124e-01 2.739132e-01 3.218649e-01 2.650282e-01 3.176964e-01 2.560260e-01 3.134650e-01 2.469850e-01 3.090092e-01 2.381672e-01 3.043036e-01 2.294209e-01 2.993801e-01 2.206678e-01 2.945363e-01 2.117129e-01 2.897696e-01 2.024605e-01 2.851993e-01 1.930705e-01 2.805805e-01 1.836242e-01 2.757565e-01 1.743988e-01 2.706763e-01 1.652533e-01 2.653630e-01 1.561321e-01 2.601093e-01 1.468210e-01 2.549254e-01 1.372158e-01 2.499557e-01 1.274543e-01 2.449540e-01 1.176192e-01 2.397698e-01 1.080019e-01 2.343257e-01 9.847394e-02 2.286339e-01 8.900500e-02 2.229785e-01 7.936177e-02 2.173830e-01 6.943135e-02 2.120179e-01 5.932723e-02 2.066375e-01 4.913236e-02 2.010997e-01 3.915115e-02 1.953000e-01 2.926987e-02 1.892375e-01 1.948591e-02 1.831847e-01 9.548221e-03 1.771779e-01 -6.645972e-04 1.714138e-01 -1.106431e-02 1.656493e-01 -2.156901e-02 1.597528e-01 -3.186272e-02 1.535934e-01 -4.204456e-02 1.471580e-01 -5.208930e-02 1.407054e-01 -6.226267e-02 1.342829e-01 -7.269178e-02 1.281114e-01 -8.331316e-02 1.219515e-01 -9.404623e-02 1.156834e-01 -1.045649e-01 1.091516e-01 -1.149532e-01 1.023312e-01 -1.251578e-01 9.546577e-02 -1.354554e-01 8.861207e-02 -1.459753e-01 8.201309e-02 -1.566772e-01 7.543414e-02 -1.674814e-01 6.876952e-02 -1.780521e-01 6.184053e-02 -1.884568e-01 5.461175e-02 -1.986123e-01 4.731116e-02 -2.088005e-01 4.000336e-02 -2.191476e-01 3.295197e-02 -2.296312e-01 2.592965e-02 -2.401693e-01 1.884787e-02 -2.504136e-01 1.151016e-02 -2.604092e-01 3.874313e-03 -2.700371e-01 -3.842792e-03 -2.795713e-01 -1.156530e-02 -2.891203e-01 -1.900475e-02 -2.986606e-01 -2.636922e-02 -3.080894e-01 -3.371430e-02 -3.170228e-01 -4.122512e-02 -3.254509e-01 -4.891685e-02 -3.331740e-01 -5.652895e-02 -3.403803e-01 -6.390349e-02 -3.470516e-01 -7.061645e-02 -3.529831e-01 -7.667165e-02 -3.577986e-01 -8.180030e-02 -3.606843e-01 -8.568821e-02 -3.609907e-01 -8.761918e-02 -3.576228e-01 -8.633066e-02 -3.497116e-01 -8.071675e-02 -3.365116e-01 -7.007612e-02 -3.179912e-01 -5.533456e-02 -2.951480e-01 -3.781900e-02 -2.687838e-01 -1.812221e-02 -2.388247e-01 4.135973e-03 -2.043359e-01 3.006595e-02 -1.638182e-01 6.113212e-02 -1.156036e-01 9.867712e-02 -5.842921e-02 1.432023e-01 7.631158e-03 1.932691e-01 7.980244e-02 2.441740e-01 1.512588e-01 2.873395e-01 
3.135120e-01 6.208995e-01 3.545869e-01 6.268340e-01 3.809872e-01 6.164050e-01 3.971035e-01 5.944571e-01 4.085521e-01 5.660751e-01 4.201352e-01 5.351749e-01 4.352724e-01 5.043359e-01 4.562138e-01 4.751514e-01 4.844159e-01 4.485340e-01 5.206155e-01 4.244900e-01 5.641474e-01 4.009215e-01 6.113686e-01 3.718751e-01 6.549167e-01 3.286051e-01 6.886273e-01 2.681797e-01 7.168395e-01 1.992745e-01 7.471532e-01 1.287720e-01 7.827036e-01 5.864158e-02 8.241259e-01 -1.184857e-02 8.700239e-01 -8.438578e-02 9.191494e-01 -1.589586e-01 9.685174e-01 -2.356681e-01 1.013631e+00 -3.127457e-01 1.050719e+00 -3.894562e-01 1.075247e+00 -4.663867e-01 1.086019e+00 -5.430328e-01 1.081513e+00 -6.196595e-01 1.061535e+00 -6.920965e-01 1.027604e+00 -7.561875e-01 9.803123e-01 -8.085427e-01 9.242807e-01 -8.477504e-01 8.632977e-01 -8.758260e-01 8.015993e-01 -8.939452e-01 7.421383e-01 -9.045463e-01 6.859313e-01 -9.084229e-01 6.339383e-01 -9.064098e-01 5.855252e-01 -8.992129e-01 5.410839e-01 -8.873513e-01 5.005700e-01 -8.719660e-01 4.643415e-01 -8.534822e-01 4.326475e-01 -8.326495e-01 4.054554e-01 -8.097580e-01 3.827821e-01 -7.852334e-01 3.642464e-01 -7.596169e-01 3.493508e-01 -7.334681e-01 3.376184e-01 -7.071022e-01 3.284847e-01 -6.810098e-01 3.213605e-01 -6.552836e-01 3.160771e-01 -6.302659e-01 3.122328e-01 -6.062083e-01 3.099384e-01 -5.831026e-01 3.088012e-01 -5.611006e-01 3.086324e-01 -5.397738e-01 3.091587e-01 -5.192175e-01 3.100236e-01 -4.991256e-01 3.113793e-01 -4.796809e-01 3.130315e-01 -4.610411e-01 3.153566e-01 -4.431496e-01 3.180935e-01 -4.261491e-01 3.211985e-01 -4.095649e-01 3.244578e-01 -3.934886e-01 3.275740e-01 -3.775797e-01 3.307496e-01 -3.620483e-01 3.338444e-01 -3.470662e-01 3.373074e-01 -3.326235e-01 3.409215e-01 -3.188905e-01 3.447069e-01 -3.054151e-01 3.484524e-01 -2.922902e-01 3.518782e-01 -2.791624e-01 3.551794e-01 -2.662580e-01 3.582387e-01 -2.537502e-01 3.615285e-01 -2.416704e-01 3.648595e-01 -2.302041e-01 3.682956e-01 -2.189294e-01 3.716156e-01 -2.079301e-01 3.745483e-01 -1.968402e-01 3.772628e-01 -1.858913e-01 3.796552e-01 -1.752483e-01 3.822032e-01 -1.649776e-01 3.847389e-01 -1.552715e-01 3.873595e-01 -1.457398e-01 3.898316e-01 -1.364525e-01 3.918908e-01 -1.270335e-01 3.936743e-01 -1.177146e-01 3.950871e-01 -1.086474e-01 3.966023e-01 -9.993050e-02 3.980706e-01 -9.175913e-02 3.996162e-01 -8.377602e-02 4.009926e-01 -7.603754e-02 4.019417e-01 -6.815987e-02 4.025654e-01 -6.037370e-02 4.027735e-01 -5.281546e-02 4.030281e-01 -4.561558e-02 4.031949e-01 -3.897215e-02 4.034194e-01 -3.256356e-02 4.034404e-01 -2.643591e-02 4.030039e-01 -2.020302e-02 4.021720e-01 -1.409665e-02 4.008534e-01 -8.240515e-03 3.994904e-01 -2.800913e-03 3.979565e-01 2.015403e-03 3.964086e-01 6.486331e-03 3.945635e-01 1.056493e-02 3.921614e-01 1.462641e-02 3.892129e-01 1.842511e-02 3.856085e-01 2.183464e-02 3.817502e-01 2.463411e-02 3.774954e-01 2.658281e-02 3.729818e-01 2.788494e-02 3.678694e-01 2.845052e-02 3.618479e-01 2.858948e-02 3.548218e-01 2.797258e-02 3.465826e-01 2.637590e-02 3.373861e-01 2.340667e-02 3.269228e-01 1.862319e-02 3.151019e-01 1.195651e-02 3.012826e-01 2.986670e-03 2.847862e-01 -8.404308e-03 2.651196e-01 -2.298873e-02 2.416271e-01 -4.146599e-02 2.141628e-01 -6.447735e-02 1.822740e-01 -9.252231e-02 1.460396e-01 -1.252432e-01 1.058872e-01 -1.618177e-01 6.303795e-02 -2.001867e-01 1.976773e-02 -2.366937e-01 -1.938975e-02 -2.645127e-01 -4.733333e-02 -2.740009e-01 -5.151526e-02 -2.489937e-01 -1.509775e-02 -1.784207e-01 6.493788e-02 -8.285972e-02 1.583162e-01 1.277089e-02 2.442004e-01 9.690527e-02 3.162970e-01 1.679617e-01 3.740726e-01 2.257523e-01 4.187719e-01 2.716525e-01 4.526548e-01 3.070771e-01 4.770428e-01 3.335075e-01 4.933534e-01 3.528869e-01 5.030494e-01 3.666138e-01 5.074621e-01 3.760470e-01 5.081764e-01 3.821374e-01 5.062296e-01 3.856418e-01 5.026828e-01 3.874261e-01 4.979080e-01 3.880633e-01 4.922187e-01 3.883334e-01 4.858132e-01 3.883657e-01 4.788403e-01 3.884239e-01 4.717529e-01 3.883134e-01 4.646494e-01 3.879306e-01 4.579124e-01 3.873627e-01 4.512903e-01 3.866567e-01 4.446862e-01 3.862400e-01 4.379006e-01 3.859878e-01 4.308487e-01 3.860344e-01 4.238032e-01 3.860372e-01 4.167820e-01 3.858252e-01 4.101427e-01 3.853957e-01 4.036039e-01 3.847727e-01 3.970817e-01 3.843720e-01 3.903328e-01 3.840801e-01 3.832700e-01 3.840682e-01 3.761372e-01 3.839809e-01 3.689680e-01 3.836612e-01 3.621449e-01 3.830716e-01 3.553958e-01 3.822407e-01 3.486698e-01 3.815828e-01 3.416959e-01 3.810022e-01 3.343888e-01 3.807061e-01 3.269645e-01 3.803294e-01 3.194687e-01 3.797289e-01 3.123034e-01 3.788310e-01 3.052048e-01 3.776655e-01 2.981544e-01 3.766394e-01 2.908530e-01 3.756730e-01 2.832161e-01 3.750064e-01 2.754282e-01 3.742662e-01 2.675445e-01 3.733232e-01 2.599825e-01 3.720677e-01 2.524878e-01 3.705275e-01 2.450754e-01 3.690984e-01 2.374185e-01 3.677162e-01 2.294320e-01 3.666532e-01 2.212671e-01 3.655292e-01 2.129861e-01 3.642307e-01 2.050198e-01 3.626108e-01 1.971243e-01 3.606936e-01 1.893507e-01 3.588589e-01 1.813445e-01 3.570587e-01 1.730195e-01 3.555974e-01 1.644913e-01 3.540902e-01 1.558273e-01 3.524415e-01 1.474699e-01 3.504660e-01 1.391883e-01 3.481819e-01 1.310720e-01 3.459484e-01 1.227396e-01 3.437345e-01 1.141032e-01 3.418772e-01 1.052407e-01 3.399899e-01 9.622307e-02 3.379966e-01 8.750297e-02 3.356740e-01 7.886464e-02 3.330321e-01 7.043889e-02 3.304046e-01 6.181883e-02 3.277782e-01 5.291567e-02 3.255219e-01 4.376806e-02 3.232494e-01 3.444975e-02 3.209071e-01 2.542154e-02 3.182343e-01 1.648307e-02 3.152341e-01 7.805535e-03 3.122130e-01 -1.039690e-03 3.091730e-01 -1.013913e-02 3.065124e-01 -1.949245e-02 3.038464e-01 -2.902313e-02 3.011455e-01 -3.826446e-02 2.981136e-01 -4.740056e-02 2.947478e-01 -5.622066e-02 2.913263e-01 -6.517040e-02 2.878645e-01 -7.433026e-02 2.847869e-01 -8.373569e-02 2.817116e-01 -9.330674e-02 2.786353e-01 -1.025720e-01 2.752295e-01 -1.116971e-01 2.714862e-01 -1.204315e-01 2.676564e-01 -1.292304e-01 2.637671e-01 -1.381629e-01 2.602657e-01 -1.472926e-01 2.567773e-01 -1.565328e-01 2.533268e-01 -1.654046e-01 2.495619e-01 -1.740487e-01 2.454730e-01 -1.821710e-01 2.412916e-01 -1.902195e-01 2.370598e-01 -1.982383e-01 2.332502e-01 -2.062931e-01 2.295090e-01 -2.142726e-01 2.259013e-01 -2.216656e-01 2.220888e-01 -2.285544e-01 2.180896e-01 -2.345646e-01 2.141793e-01 -2.400556e-01 2.104781e-01 -2.449515e-01 2.075794e-01 -2.491331e-01 2.053190e-01 -2.522427e-01 2.040454e-01 -2.533679e-01 2.039082e-01 -2.519854e-01 2.056165e-01 -2.468390e-01 2.105529e-01 -2.370892e-01 2.199246e-01 -2.218208e-01 2.346992e-01 -2.009295e-01 2.537127e-01 -1.756660e-01 2.753705e-01 -1.470154e-01 2.989496e-01 -1.150077e-01 3.247193e-01 -7.885948e-02 3.535757e-01 -3.736349e-02 3.866034e-01 1.067684e-02 4.246037e-01 6.591799e-02 4.674979e-01 1.277635e-01 5.135805e-01 1.935215e-01 5.588319e-01 2.578528e-01 5.969216e-01 