# vtk DataFile Version 2.0
Comment goes here
ASCII

DATASET STRUCTURED_POINTS
FIELD FieldData 1
TIME 1 1 double
0.09200000
DIMENSIONS    256   32   1

ORIGIN    0.000   0.000   0.000
SPACING   0.0078125 0.0078125   1.000

POINT_DATA   8192
SCALARS P double
LOOKUP_TABLE default

-1.881993e+00 -1.867172e+00 -1.876363e+00 -1.858144e+00 -1.879505e+00 -1.858928e+00 -1.869268e+00 -1.751820e+00 -1.807103e+00 -1.650528e+00 -1.761251e+00 -1.609550e+00 -1.716627e+00 -1.643557e+00 -1.774178e+00 -1.499319e+00 -1.828486e+00 -1.416980e+00 -1.668844e+00 -1.375321e+00 -1.240917e+00 -1.211911e+00 -1.117815e+00 -8.630696e-01 -1.118343e+00 -6.502143e-01 -9.627704e-01 -6.575029e-01 -7.228820e-01 -7.192494e-01 -5.077004e-01 -6.591265e-01 -4.564875e-01 -4.812733e-01 -5.089143e-01 -2.910034e-01 -4.897846e-01 -2.172795e-01 -3.526365e-01 -2.699652e-01 -1.814374e-01 -2.871564e-01 -8.951993e-02 -1.940147e-01 -1.307863e-01 -4.997872e-02 -1.678136e-01 4.628277e-02 -1.130279e-01 1.674529e-02 4.333911e-03 -3.243374e-02 1.020700e-01 -8.665556e-03 9.413456e-02 8.632336e-02 4.581761e-02 1.831883e-01 4.676497e-02 1.989366e-01 1.211005e-01 1.559148e-01 2.161684e-01 1.430433e-01 2.475430e-01 1.946078e-01 2.149759e-01 2.786011e-01 1.905207e-01 3.234324e-01 2.253574e-01 2.974158e-01 2.976272e-01 2.676102e-01 3.451727e-01 2.845311e-01 3.267165e-01 3.411571e-01 2.921703e-01 3.849126e-01 2.904275e-01 3.707984e-01 3.294475e-01 3.320806e-01 3.680169e-01 3.161800e-01 3.620071e-01 3.406278e-01 3.240866e-01 3.739563e-01 2.990275e-01 3.758389e-01 3.110201e-01 3.399088e-01 3.399787e-01 3.087277e-01 3.435232e-01 3.094738e-01 3.139982e-01 3.323243e-01 2.822973e-01 3.414805e-01 2.776346e-01 3.170094e-01 2.949711e-01 2.859338e-01 3.040574e-01 2.734123e-01 2.829959e-01 2.819169e-01 2.505568e-01 2.874348e-01 2.305087e-01 2.686983e-01 2.305768e-01 2.346528e-01 2.317869e-01 2.077509e-01 2.146939e-01 1.989089e-01 1.797472e-01 1.952935e-01 1.477548e-01 1.778251e-01 1.315521e-01 1.409973e-01 1.231842e-01 1.048040e-01 1.031305e-01 8.203529e-02 6.796597e-02 6.936361e-02 3.124933e-02 5.100028e-02 6.622169e-03 1.878852e-02 -7.028818e-03 -1.583585e-02 -2.290412e-02 -4.174671e-02 -5.158539e-02 -5.736043e-02 -8.575642e-02 -7.430333e-02 -1.139235e-01 -1.016039e-01 -1.325854e-01 -1.359063e-01 -1.509492e-01 -1.670808e-01 -1.781413e-01 -1.902642e-01 -2.139304e-01 -2.118027e-01 -2.477518e-01 -2.402176e-01 -2.739730e-01 -2.775127e-01 -2.976179e-01 -3.139543e-01 -3.290930e-01 -3.448797e-01 -3.668151e-01 -3.717034e-01 -4.040695e-01 -4.019941e-01 -4.348824e-01 -4.383025e-01 -4.613263e-01 -4.746360e-01 -4.899698e-01 -5.060493e-01 -5.246933e-01 -5.330340e-01 -5.613267e-01 -5.621934e-01 -5.943035e-01 -5.970233e-01 -6.226074e-01 -6.344007e-01 -6.515541e-01 -6.681308e-01 -6.846104e-01 -6.964677e-01 -7.207058e-01 -7.244836e-01 -7.537495e-01 -7.566642e-01 -7.819524e-01 -7.930876e-01 -8.103120e-01 -8.280420e-01 -8.457202e-01 -8.606984e-01 -8.849850e-01 -8.934606e-01 -9.231008e-01 -9.305068e-01 -9.572650e-01 -9.708302e-01 -9.906109e-01 -1.010025e+00 -1.026830e+00 -1.045497e+00 -1.066184e+00 -1.077958e+00 -1.104891e+00 -1.111697e+00 -1.138852e+00 -1.147926e+00 -1.167896e+00 -1.183739e+00 -1.197363e+00 -1.214555e+00 -1.229817e+00 -1.240786e+00 -1.263056e+00 -1.269125e+00 -1.293047e+00 -1.302566e+00 -1.321190e+00 -1.338856e+00 -1.353372e+00 -1.374054e+00 -1.391343e+00 -1.408440e+00 -1.432752e+00 -1.444815e+00 -1.472852e+00 -1.484448e+00 -1.509579e+00 -1.526009e+00 -1.543448e+00 -1.564924e+00 -1.578162e+00 -1.598212e+00 -1.614727e+00 -1.627126e+00 -1.649663e+00 -1.658013e+00 -1.680101e+00 -1.692610e+00 -1.708321e+00 -1.728024e+00 -1.740348e+00 -1.760541e+00 -1.777026e+00 -1.790513e+00 -1.814407e+00 -1.823766e+00 -1.852522e+00 -1.859328e+00 -1.872494e+00 -1.871920e+00 -1.881434e+00 -1.874132e+00 
-2.347019e+00 -2.485830e+00 -2.349539e+00 -2.494703e+00 -2.359910e+00 -2.517203e+00 -2.340764e+00 -2.417624e+00 -2.263018e+00 -2.330785e+00 -2.190910e+00 -2.306338e+00 -2.049807e+00 -2.477651e+00 -2.010068e+00 -1.967716e+00 -1.813665e+00 -1.654840e+00 -1.359910e+00 -1.397665e+00 -6.073083e-01 -7.924595e-01 -4.900206e-01 -2.569386e-01 -4.897892e-01 6.368490e-03 -3.750163e-01 1.334482e-02 -1.537155e-01 -5.735474e-02 4.783235e-02 -1.318066e-02 8.075391e-02 1.642923e-01 1.610482e-03 3.545490e-01 -3.794869e-03 4.206719e-01 1.260199e-01 3.465912e-01 2.957288e-01 3.076905e-01 3.830504e-01 3.914194e-01 3.239058e-01 5.332456e-01 2.675934e-01 6.245151e-01 3.113079e-01 5.769172e-01 4.272828e-01 5.076277e-01 5.228939e-01 5.163764e-01 5.028468e-01 6.068665e-01 4.374634e-01 6.986366e-01 4.241135e-01 7.026346e-01 4.944375e-01 6.400270e-01 5.888362e-01 6.115271e-01 6.085017e-01 6.524508e-01 5.626727e-01 7.297359e-01 5.212945e-01 7.659608e-01 5.483351e-01 7.228650e-01 6.173591e-01 6.765492e-01 6.600654e-01 6.820579e-01 6.289266e-01 7.324050e-01 5.810093e-01 7.685341e-01 5.682845e-01 7.400651e-01 6.023951e-01 6.854171e-01 6.360130e-01 6.560606e-01 6.209133e-01 6.729031e-01 5.703691e-01 6.984952e-01 5.337120e-01 6.897468e-01 5.386951e-01 6.380766e-01 5.632503e-01 5.923326e-01 5.563724e-01 5.823392e-01 5.162939e-01 5.967333e-01 4.723399e-01 5.964108e-01 4.594518e-01 5.580384e-01 4.708849e-01 5.134202e-01 4.732653e-01 4.891470e-01 4.415558e-01 4.888079e-01 3.981326e-01 4.849734e-01 3.684537e-01 4.540889e-01 3.620261e-01 4.067053e-01 3.566603e-01 3.675049e-01 3.309980e-01 3.491562e-01 2.851942e-01 3.363552e-01 2.433909e-01 3.083599e-01 2.194662e-01 2.578994e-01 2.050185e-01 2.090109e-01 1.750785e-01 1.753950e-01 1.308145e-01 1.533966e-01 8.405558e-02 1.248343e-01 5.134021e-02 8.044403e-02 3.067451e-02 3.357819e-02 7.192149e-03 -3.506395e-03 -3.102913e-02 -2.886934e-02 -7.494894e-02 -5.614628e-02 -1.119685e-01 -9.497332e-02 -1.380031e-01 -1.415216e-01 -1.637738e-01 -1.840578e-01 -1.992332e-01 -2.171737e-01 -2.444666e-01 -2.483471e-01 -2.870215e-01 -2.872013e-01 -3.208488e-01 -3.365805e-01 -3.510895e-01 -3.849284e-01 -3.929747e-01 -4.274808e-01 -4.396555e-01 -4.644859e-01 -4.865141e-01 -5.056227e-01 -5.253547e-01 -5.535573e-01 -5.593527e-01 -6.015476e-01 -5.959754e-01 -6.438887e-01 -6.395489e-01 -6.808747e-01 -6.853818e-01 -7.203934e-01 -7.269463e-01 -7.664096e-01 -7.628410e-01 -8.157462e-01 -7.994111e-01 -8.607144e-01 -8.406288e-01 -8.990991e-01 -8.859399e-01 -9.369412e-01 -9.276195e-01 -9.796283e-01 -9.633853e-01 -1.027757e+00 -9.983406e-01 -1.074162e+00 -1.043727e+00 -1.118157e+00 -1.091950e+00 -1.161193e+00 -1.139342e+00 -1.209267e+00 -1.181181e+00 -1.260905e+00 -1.222114e+00 -1.311350e+00 -1.266548e+00 -1.357479e+00 -1.314568e+00 -1.400013e+00 -1.362056e+00 -1.444225e+00 -1.404176e+00 -1.491588e+00 -1.440659e+00 -1.538899e+00 -1.477950e+00 -1.580506e+00 -1.519005e+00 -1.616711e+00 -1.561275e+00 -1.655500e+00 -1.599454e+00 -1.700218e+00 -1.635109e+00 -1.747990e+00 -1.675243e+00 -1.794015e+00 -1.721844e+00 -1.838770e+00 -1.772123e+00 -1.885641e+00 -1.820647e+00 -1.936215e+00 -1.865413e+00 -1.989211e+00 -1.906990e+00 -2.039445e+00 -1.949916e+00 -2.083425e+00 -1.995316e+00 -2.122486e+00 -2.039060e+00 -2.164213e+00 -2.077533e+00 -2.210344e+00 -2.113376e+00 -2.257493e+00 -2.153681e+00 -2.301336e+00 -2.199266e+00 -2.342290e+00 -2.245928e+00 -2.388649e+00 -2.295230e+00 -2.438590e+00 -2.322115e+00 -2.462234e+00 -2.338363e+00 -2.477535e+00 
-1.893521e+00 -1.883482e+00 -1.898487e+00 -1.891807e+00 -1.928513e+00 -1.936012e+00 -1.897101e+00 -1.749479e+00 -1.801766e+00 -1.627423e+00 -1.777296e+00 -1.588217e+00 -1.713893e+00 -1.796072e+00 -1.802294e+00 -1.463370e+00 -1.939916e+00 -1.407654e+00 -1.828296e+00 -1.478250e+00 -1.157777e+00 -1.353328e+00 -1.126793e+00 -8.073245e-01 -1.199456e+00 -5.875957e-01 -1.048073e+00 -6.457316e-01 -7.103218e-01 -7.728590e-01 -4.458943e-01 -7.480007e-01 -4.271619e-01 -4.905221e-01 -5.364050e-01 -2.411096e-01 -5.688981e-01 -1.808192e-01 -3.765274e-01 -2.818897e-01 -1.451871e-01 -3.544621e-01 -4.780710e-02 -2.280598e-01 -1.280715e-01 -2.515330e-02 -2.189498e-01 8.967303e-02 -1.544455e-01 2.749394e-02 1.500859e-02 -7.082324e-02 1.409632e-01 -5.438313e-02 1.135242e-01 8.648802e-02 2.127171e-02 2.160080e-01 7.050228e-04 2.240949e-01 1.106243e-01 1.404826e-01 2.462346e-01 1.083311e-01 2.727633e-01 1.773228e-01 2.135857e-01 2.953420e-01 1.547907e-01 3.506744e-01 2.039302e-01 2.991151e-01 3.087374e-01 2.412732e-01 3.723835e-01 2.632300e-01 3.358305e-01 3.486271e-01 2.755085e-01 4.102319e-01 2.677514e-01 3.826477e-01 3.294032e-01 3.195059e-01 3.873198e-01 2.935796e-01 3.776216e-01 3.373262e-01 3.186801e-01 3.894976e-01 2.790181e-01 3.935695e-01 3.024045e-01 3.369988e-01 3.530777e-01 2.918466e-01 3.563881e-01 2.980231e-01 3.157026e-01 3.385948e-01 2.680392e-01 3.565112e-01 2.669405e-01 3.206035e-01 2.991865e-01 2.766715e-01 3.181010e-01 2.627329e-01 2.886655e-01 2.833672e-01 2.439213e-01 2.985431e-01 2.194018e-01 2.757964e-01 2.294749e-01 2.306763e-01 2.405321e-01 1.976143e-01 2.231924e-01 1.959949e-01 1.776711e-01 2.016324e-01 1.385113e-01 1.866832e-01 1.264701e-01 1.394030e-01 1.291116e-01 9.744169e-02 1.084765e-01 7.650802e-02 6.923383e-02 7.236434e-02 2.567105e-02 5.790729e-02 2.089909e-03 2.077190e-02 -5.274048e-03 -1.990260e-02 -1.656490e-02 -4.673758e-02 -4.914220e-02 -5.675842e-02 -8.916197e-02 -6.969075e-02 -1.193105e-01 -9.875176e-02 -1.335063e-01 -1.382419e-01 -1.473429e-01 -1.719711e-01 -1.744060e-01 -1.916235e-01 -2.150665e-01 -2.084678e-01 -2.516225e-01 -2.353646e-01 -2.750111e-01 -2.771497e-01 -2.917781e-01 -3.153652e-01 -3.266844e-01 -3.471503e-01 -3.667360e-01 -3.702089e-01 -4.076337e-01 -3.997933e-01 -4.374113e-01 -4.387782e-01 -4.610237e-01 -4.779709e-01 -4.879939e-01 -5.094692e-01 -5.246376e-01 -5.332292e-01 -5.642974e-01 -5.604090e-01 -5.982182e-01 -5.965694e-01 -6.239569e-01 -6.375880e-01 -6.508979e-01 -6.727561e-01 -6.840176e-01 -6.984635e-01 -7.234412e-01 -7.236440e-01 -7.578544e-01 -7.550997e-01 -7.833018e-01 -7.941978e-01 -8.059271e-01 -8.287935e-01 -8.444169e-01 -8.613964e-01 -8.857019e-01 -8.917630e-01 -9.258232e-01 -9.296957e-01 -9.579405e-01 -9.718811e-01 -9.894972e-01 -1.012428e+00 -1.025975e+00 -1.047458e+00 -1.067190e+00 -1.077730e+00 -1.107686e+00 -1.110770e+00 -1.141358e+00 -1.148348e+00 -1.167483e+00 -1.186053e+00 -1.195557e+00 -1.216203e+00 -1.229015e+00 -1.238738e+00 -1.264023e+00 -1.265653e+00 -1.292858e+00 -1.300465e+00 -1.317742e+00 -1.338539e+00 -1.349293e+00 -1.373289e+00 -1.388958e+00 -1.406067e+00 -1.432806e+00 -1.442156e+00 -1.473548e+00 -1.482828e+00 -1.509751e+00 -1.526869e+00 -1.542032e+00 -1.566991e+00 -1.576682e+00 -1.599247e+00 -1.615148e+00 -1.625045e+00 -1.651108e+00 -1.655436e+00 -1.679901e+00 -1.691629e+00 -1.705143e+00 -1.728493e+00 -1.737130e+00 -1.760597e+00 -1.776177e+00 -1.787942e+00 -1.813450e+00 -1.822229e+00 -1.861773e+00 -1.873270e+00 -1.880766e+00 -1.879707e+00 -1.888733e+00 -1.883457e+00 
-2.367694e+00 -2.513999e+00 -2.393483e+00 -2.558447e+00 -2.466252e+00 -2.679984e+00 -2.506025e+00 -2.520776e+00 -2.397226e+00 -2.497118e+00 -2.407590e+00 -2.560080e+00 -2.403983e+00 -2.649980e+00 -1.831101e+00 -1.844944e+00 -1.292489e+00 -1.135984e+00 -6.403278e-01 -1.896991e-01 4.388537e-01 3.789094e-01 8.106926e-01 1.021072e+00 6.730678e-01 1.041604e+00 7.317184e-01 1.006969e+00 9.419282e-01 9.635522e-01 1.001131e+00 9.807051e-01 9.275187e-01 1.157790e+00 9.045002e-01 1.241106e+00 8.800616e-01 1.168193e+00 1.017844e+00 1.149127e+00 1.107401e+00 1.102709e+00 1.060208e+00 1.195379e+00 1.041915e+00 1.278604e+00 9.885795e-01 1.252420e+00 1.039124e+00 1.219502e+00 1.110979e+00 1.162668e+00 1.109493e+00 1.176533e+00 1.082225e+00 1.238725e+00 1.032548e+00 1.252280e+00 1.019931e+00 1.219019e+00 1.072255e+00 1.170012e+00 1.099282e+00 1.149745e+00 1.073300e+00 1.160910e+00 1.019244e+00 1.186942e+00 9.807623e-01 1.162348e+00 1.002504e+00 1.126366e+00 1.028256e+00 1.082370e+00 1.014707e+00 1.085350e+00 9.838617e-01 1.103321e+00 9.413321e-01 1.092820e+00 9.294114e-01 1.054384e+00 9.399977e-01 1.006315e+00 9.337422e-01 9.794523e-01 9.008555e-01 9.816111e-01 8.561644e-01 9.736559e-01 8.228666e-01 9.405134e-01 8.204769e-01 8.914528e-01 8.166359e-01 8.536142e-01 7.813170e-01 8.240295e-01 7.271646e-01 8.143339e-01 6.860074e-01 7.840857e-01 6.711434e-01 7.409641e-01 6.626423e-01 6.989422e-01 6.410048e-01 6.749675e-01 6.005399e-01 6.601508e-01 5.591987e-01 6.357462e-01 5.314262e-01 5.935778e-01 5.162970e-01 5.473896e-01 4.940165e-01 5.101903e-01 4.536417e-01 4.882288e-01 4.076926e-01 4.614454e-01 3.692474e-01 4.197013e-01 3.459686e-01 3.648586e-01 3.194081e-01 3.216450e-01 2.722450e-01 2.775437e-01 2.152866e-01 2.474481e-01 1.707732e-01 2.048593e-01 1.416590e-01 1.553308e-01 1.151811e-01 1.105278e-01 8.175366e-02 7.655711e-02 3.502984e-02 4.725884e-02 -9.635424e-03 1.015588e-02 -4.442550e-02 -3.859777e-02 -7.134755e-02 -8.593155e-02 -1.040201e-01 -1.261861e-01 -1.485903e-01 -1.569995e-01 -1.959719e-01 -1.931252e-01 -2.360521e-01 -2.395676e-01 -2.657340e-01 -2.935968e-01 -2.987181e-01 -3.380870e-01 -3.520892e-01 -3.896066e-01 -4.124687e-01 -4.273805e-01 -4.582122e-01 -4.753331e-01 -4.918739e-01 -5.281848e-01 -5.252228e-01 -5.755799e-01 -5.657838e-01 -6.140296e-01 -6.155819e-01 -6.487361e-01 -6.625628e-01 -6.914373e-01 -7.013268e-01 -7.441805e-01 -7.332862e-01 -7.958725e-01 -7.724284e-01 -8.382096e-01 -8.191364e-01 -8.718717e-01 -8.679643e-01 -9.112502e-01 -9.085082e-01 -9.589409e-01 -9.398361e-01 -1.012761e+00 -9.745364e-01 -1.057906e+00 -1.028509e+00 -1.110274e+00 -1.090362e+00 -1.150915e+00 -1.139109e+00 -1.202993e+00 -1.175981e+00 -1.258917e+00 -1.212467e+00 -1.309953e+00 -1.257804e+00 -1.351976e+00 -1.310319e+00 -1.389119e+00 -1.359511e+00 -1.434046e+00 -1.399411e+00 -1.486652e+00 -1.431350e+00 -1.538055e+00 -1.469962e+00 -1.580175e+00 -1.516827e+00 -1.613257e+00 -1.565623e+00 -1.653016e+00 -1.605853e+00 -1.702114e+00 -1.637884e+00 -1.755824e+00 -1.675815e+00 -1.802830e+00 -1.723483e+00 -1.842416e+00 -1.778243e+00 -1.884110e+00 -1.826536e+00 -1.933986e+00 -1.866710e+00 -1.991560e+00 -1.902751e+00 -2.043269e+00 -1.946113e+00 -2.085427e+00 -1.997185e+00 -2.120323e+00 -2.045140e+00 -2.163024e+00 -2.083547e+00 -2.213530e+00 -2.114980e+00 -2.265944e+00 -2.154590e+00 -2.311060e+00 -2.204307e+00 -2.345247e+00 -2.248906e+00 -2.386655e+00 -2.318532e+00 -2.467661e+00 -2.337212e+00 -2.474369e+00 -2.350441e+00 -2.492089e+00 
-1.919945e+00 -1.922574e+00 -1.952952e+00 -1.969275e+00 -2.044655e+00 -2.104148e+00 -2.183953e+00 -2.058791e+00 -2.122319e+00 -2.072248e+00 -2.106891e+00 -2.021008e+00 -2.104386e+00 -1.629444e+00 -1.285431e+00 -8.600371e-01 -4.410303e-01 1.567723e-01 3.157811e-01 1.517030e+00 1.238190e+00 2.330321e+00 2.233522e+00 2.512099e+00 2.404305e+00 2.273754e+00 2.516098e+00 2.248328e+00 2.444986e+00 2.362688e+00 2.232814e+00 2.456719e+00 2.098070e+00 2.410499e+00 2.205949e+00 2.219372e+00 2.292212e+00 2.035097e+00 2.285693e+00 2.117667e+00 2.123013e+00 2.197660e+00 1.935597e+00 2.212291e+00 1.988046e+00 2.072669e+00 2.061384e+00 1.894885e+00 2.090570e+00 1.907231e+00 1.972144e+00 1.973461e+00 1.810510e+00 2.010300e+00 1.788966e+00 1.918283e+00 1.844994e+00 1.773940e+00 1.880969e+00 1.707364e+00 1.813376e+00 1.746752e+00 1.673701e+00 1.781186e+00 1.589372e+00 1.708546e+00 1.577686e+00 1.588817e+00 1.611247e+00 1.479009e+00 1.581531e+00 1.489456e+00 1.476957e+00 1.512307e+00 1.371104e+00 1.496327e+00 1.365507e+00 1.408601e+00 1.385502e+00 1.312299e+00 1.382358e+00 1.287117e+00 1.309780e+00 1.301562e+00 1.218249e+00 1.301147e+00 1.173334e+00 1.242030e+00 1.179899e+00 1.157416e+00 1.182195e+00 1.097424e+00 1.139552e+00 1.094759e+00 1.056363e+00 1.095821e+00 9.869467e-01 1.035769e+00 9.461882e-01 9.569273e-01 9.401893e-01 8.809623e-01 9.109010e-01 8.580794e-01 8.459369e-01 8.512903e-01 7.797438e-01 8.310995e-01 7.492040e-01 7.758984e-01 7.395329e-01 7.134612e-01 7.234015e-01 6.740479e-01 6.769428e-01 6.591448e-01 6.177952e-01 6.423114e-01 5.685997e-01 6.033917e-01 5.487286e-01 5.467761e-01 5.324364e-01 4.936988e-01 4.998801e-01 4.637425e-01 4.406717e-01 4.425666e-01 3.798777e-01 3.909460e-01 3.275273e-01 3.365535e-01 3.025874e-01 2.796472e-01 2.762636e-01 2.439022e-01 2.331001e-01 2.218566e-01 1.844397e-01 1.982016e-01 1.441882e-01 1.584051e-01 1.173074e-01 1.100650e-01 9.275397e-02 6.531706e-02 5.810168e-02 3.667359e-02 1.364086e-02 1.186451e-02 -3.187612e-02 -1.841540e-02 -6.381520e-02 -6.129407e-02 -8.971533e-02 -1.078384e-01 -1.186173e-01 -1.467038e-01 -1.632630e-01 -1.777624e-01 -2.159712e-01 -2.277110e-01 -2.744204e-01 -2.695932e-01 -3.076020e-01 -3.162481e-01 -3.344576e-01 -3.569429e-01 -3.679386e-01 -3.878151e-01 -4.085055e-01 -4.143597e-01 -4.505884e-01 -4.457239e-01 -4.842336e-01 -4.855096e-01 -5.121048e-01 -5.291895e-01 -5.406498e-01 -5.646885e-01 -5.788747e-01 -5.927198e-01 -6.212252e-01 -6.202183e-01 -6.584211e-01 -6.576254e-01 -6.891541e-01 -7.008374e-01 -7.184853e-01 -7.441595e-01 -7.586210e-01 -7.823527e-01 -8.086420e-01 -8.339359e-01 -8.691441e-01 -8.715583e-01 -9.100764e-01 -9.149703e-01 -9.407891e-01 -9.583875e-01 -9.702318e-01 -9.955349e-01 -1.006920e+00 -1.024806e+00 -1.048843e+00 -1.052418e+00 -1.086544e+00 -1.088492e+00 -1.117783e+00 -1.130828e+00 -1.146324e+00 -1.171292e+00 -1.182364e+00 -1.206555e+00 -1.224538e+00 -1.237705e+00 -1.268155e+00 -1.272958e+00 -1.306438e+00 -1.312962e+00 -1.337019e+00 -1.356818e+00 -1.367451e+00 -1.394796e+00 -1.403291e+00 -1.423371e+00 -1.445593e+00 -1.450349e+00 -1.482248e+00 -1.484820e+00 -1.511212e+00 -1.527198e+00 -1.538446e+00 -1.565843e+00 -1.573986e+00 -1.598811e+00 -1.616636e+00 -1.628453e+00 -1.658121e+00 -1.663567e+00 -1.693435e+00 -1.703610e+00 -1.722097e+00 -1.746268e+00 -1.754133e+00 -1.782988e+00 -1.792815e+00 -1.808627e+00 -1.829727e+00 -1.837447e+00 -1.883974e+00 -1.890902e+00 -1.891956e+00 -1.891644e+00 -1.902245e+00 -1.903411e+00 
-2.392291e+00 -2.545333e+00 -2.436440e+00 -2.602865e+00 -2.516881e+00 -2.706435e+00 -2.638482e+00 -2.747660e+00 -2.656452e+00 -2.798046e+00 -2.698280e+00 -2.822948e+00 -2.809261e+00 -2.789924e+00 -1.687066e+00 -1.443115e+00 -1.541029e-01 -2.127481e-01 1.136465e+00 1.636532e+00 2.498467e+00 3.450719e+00 2.885344e+00 3.332940e+00 3.107352e+00 3.142180e+00 3.195756e+00 3.088917e+00 3.064939e+00 3.160432e+00 2.876952e+00 3.224242e+00 2.769040e+00 3.123960e+00 2.820197e+00 2.942727e+00 2.883733e+00 2.806187e+00 2.826000e+00 2.832209e+00 2.663415e+00 2.889574e+00 2.522098e+00 2.859214e+00 2.527444e+00 2.711404e+00 2.579240e+00 2.567977e+00 2.574008e+00 2.546457e+00 2.446759e+00 2.586484e+00 2.309911e+00 2.593191e+00 2.268584e+00 2.484671e+00 2.299423e+00 2.351045e+00 2.314055e+00 2.279025e+00 2.229529e+00 2.289851e+00 2.096925e+00 2.295908e+00 2.006964e+00 2.205824e+00 1.976641e+00 2.080447e+00 1.987861e+00 1.976537e+00 1.939184e+00 1.959470e+00 1.831693e+00 1.961976e+00 1.733432e+00 1.926056e+00 1.707204e+00 1.829788e+00 1.709170e+00 1.733988e+00 1.689221e+00 1.692718e+00 1.609196e+00 1.686958e+00 1.518436e+00 1.668341e+00 1.465458e+00 1.597316e+00 1.455168e+00 1.508448e+00 1.442406e+00 1.442136e+00 1.388001e+00 1.420815e+00 1.300925e+00 1.400125e+00 1.225249e+00 1.327349e+00 1.173628e+00 1.238776e+00 1.150777e+00 1.158891e+00 1.108206e+00 1.120553e+00 1.036892e+00 1.096899e+00 9.671685e-01 1.060774e+00 9.267098e-01 9.953107e-01 9.036168e-01 9.256949e-01 8.741054e-01 8.759243e-01 8.184290e-01 8.460648e-01 7.536823e-01 8.141908e-01 6.997514e-01 7.623478e-01 6.687037e-01 6.972041e-01 6.400348e-01 6.371125e-01 5.957212e-01 5.961287e-01 5.302529e-01 5.571964e-01 4.634885e-01 4.923708e-01 4.036069e-01 4.257002e-01 3.656110e-01 3.621133e-01 3.264631e-01 3.160158e-01 2.747125e-01 2.801545e-01 2.198576e-01 2.415952e-01 1.737048e-01 1.898653e-01 1.372365e-01 1.327924e-01 1.009965e-01 8.060554e-02 5.577722e-02 3.984675e-02 3.927097e-03 1.317350e-03 -4.631493e-02 -4.302579e-02 -8.626467e-02 -9.596931e-02 -1.226928e-01 -1.500367e-01 -1.636900e-01 -1.978058e-01 -2.171265e-01 -2.446279e-01 -2.761741e-01 -3.069365e-01 -3.394222e-01 -3.629639e-01 -3.838802e-01 -4.177541e-01 -4.233315e-01 -4.665796e-01 -4.667521e-01 -5.089488e-01 -5.141283e-01 -5.495961e-01 -5.609048e-01 -5.943998e-01 -6.023514e-01 -6.440252e-01 -6.409132e-01 -6.945253e-01 -6.811930e-01 -7.395824e-01 -7.269740e-01 -7.807256e-01 -7.744569e-01 -8.229917e-01 -8.180290e-01 -8.711826e-01 -8.584109e-01 -9.225186e-01 -8.999628e-01 -9.737334e-01 -9.499200e-01 -1.026188e+00 -1.006949e+00 -1.090129e+00 -1.071679e+00 -1.143001e+00 -1.121764e+00 -1.194840e+00 -1.164268e+00 -1.245387e+00 -1.204789e+00 -1.292217e+00 -1.248554e+00 -1.334856e+00 -1.294838e+00 -1.377023e+00 -1.339219e+00 -1.423574e+00 -1.380622e+00 -1.473358e+00 -1.421588e+00 -1.522632e+00 -1.466327e+00 -1.569908e+00 -1.514140e+00 -1.615985e+00 -1.563112e+00 -1.663169e+00 -1.609929e+00 -1.712134e+00 -1.652685e+00 -1.763295e+00 -1.693485e+00 -1.811631e+00 -1.736386e+00 -1.854480e+00 -1.782715e+00 -1.895186e+00 -1.826677e+00 -1.939767e+00 -1.866479e+00 -1.988634e+00 -1.905578e+00 -2.036659e+00 -1.949052e+00 -2.082273e+00 -1.996260e+00 -2.126754e+00 -2.043861e+00 -2.173155e+00 -2.088740e+00 -2.221828e+00 -2.130018e+00 -2.272442e+00 -2.171475e+00 -2.320052e+00 -2.215495e+00 -2.362086e+00 -2.261650e+00 -2.405714e+00 -2.310214e+00 -2.449531e+00 -2.334345e+00 -2.477506e+00 -2.361007e+00 -2.508143e+00 
-1.941868e+00 -1.953547e+00 -1.982311e+00 -2.000304e+00 -2.045328e+00 -2.068511e+00 -2.118006e+00 -2.096737e+00 -2.137665e+00 -2.129360e+00 -2.158874e+00 -2.174713e+00 -2.214529e+00 -2.341809e+00 -1.187307e+00 -1.016803e+00 -1.306912e-01 1.889618e-01 1.025052e+00 1.417396e+00 2.579206e+00 2.495522e+00 2.497448e+00 2.548314e+00 2.545072e+00 2.474851e+00 2.573817e+00 2.440170e+00 2.499447e+00 2.462766e+00 2.392086e+00 2.486767e+00 2.318112e+00 2.429867e+00 2.318156e+00 2.326693e+00 2.336551e+00 2.241909e+00 2.298300e+00 2.228342e+00 2.205704e+00 2.242305e+00 2.120977e+00 2.217323e+00 2.097983e+00 2.134119e+00 2.107474e+00 2.050400e+00 2.092634e+00 2.017099e+00 2.018851e+00 2.021021e+00 1.937645e+00 2.012421e+00 1.896525e+00 1.949012e+00 1.893813e+00 1.869661e+00 1.886672e+00 1.816585e+00 1.831881e+00 1.802550e+00 1.750740e+00 1.787933e+00 1.681022e+00 1.718897e+00 1.638080e+00 1.639311e+00 1.622804e+00 1.572643e+00 1.584359e+00 1.544377e+00 1.517587e+00 1.530375e+00 1.454093e+00 1.499682e+00 1.421976e+00 1.440367e+00 1.407151e+00 1.379851e+00 1.382941e+00 1.342802e+00 1.330648e+00 1.325013e+00 1.271509e+00 1.302624e+00 1.228924e+00 1.255971e+00 1.207393e+00 1.198916e+00 1.186537e+00 1.151884e+00 1.145906e+00 1.124767e+00 1.087700e+00 1.097244e+00 1.028145e+00 1.037607e+00 9.774641e-01 9.768083e-01 9.471404e-01 9.224705e-01 9.113952e-01 8.873286e-01 8.625732e-01 8.617792e-01 8.137641e-01 8.312870e-01 7.776880e-01 7.870662e-01 7.514708e-01 7.397174e-01 7.231143e-01 7.008799e-01 6.826677e-01 6.722009e-01 6.365402e-01 6.436683e-01 5.948477e-01 6.060593e-01 5.639789e-01 5.610273e-01 5.355843e-01 5.174359e-01 4.996973e-01 4.815433e-01 4.519954e-01 4.456639e-01 3.979058e-01 3.907235e-01 3.446419e-01 3.414216e-01 3.084211e-01 2.957076e-01 2.750227e-01 2.587218e-01 2.362950e-01 2.280652e-01 1.953258e-01 1.969559e-01 1.576238e-01 1.595758e-01 1.251639e-01 1.184649e-01 9.377156e-02 7.907742e-02 5.844577e-02 4.557406e-02 1.911656e-02 1.427253e-02 -2.011751e-02 -1.935577e-02 -5.450205e-02 -5.782867e-02 -8.617816e-02 -9.790323e-02 -1.198727e-01 -1.360407e-01 -1.610034e-01 -1.750614e-01 -2.106317e-01 -2.281787e-01 -2.646300e-01 -2.716744e-01 -3.032822e-01 -3.125820e-01 -3.362522e-01 -3.500579e-01 -3.705225e-01 -3.834520e-01 -4.074320e-01 -4.151411e-01 -4.447310e-01 -4.487296e-01 -4.791315e-01 -4.856165e-01 -5.112730e-01 -5.236746e-01 -5.439063e-01 -5.589352e-01 -5.799175e-01 -5.913166e-01 -6.174991e-01 -6.237157e-01 -6.534066e-01 -6.597065e-01 -6.870555e-01 -6.984717e-01 -7.210736e-01 -7.383499e-01 -7.606098e-01 -7.803381e-01 -8.092818e-01 -8.343782e-01 -8.643969e-01 -8.766178e-01 -9.061674e-01 -9.164730e-01 -9.409398e-01 -9.550736e-01 -9.740830e-01 -9.909817e-01 -1.009430e+00 -1.023942e+00 -1.046628e+00 -1.056441e+00 -1.082722e+00 -1.091938e+00 -1.116646e+00 -1.130003e+00 -1.149994e+00 -1.167955e+00 -1.186015e+00 -1.204173e+00 -1.224662e+00 -1.239129e+00 -1.264030e+00 -1.275246e+00 -1.301340e+00 -1.313171e+00 -1.335699e+00 -1.352124e+00 -1.369387e+00 -1.388706e+00 -1.404790e+00 -1.421665e+00 -1.442049e+00 -1.453644e+00 -1.477536e+00 -1.488206e+00 -1.510271e+00 -1.525564e+00 -1.542512e+00 -1.562295e+00 -1.577740e+00 -1.597091e+00 -1.615786e+00 -1.630884e+00 -1.653854e+00 -1.666378e+00 -1.689606e+00 -1.703850e+00 -1.722952e+00 -1.742072e+00 -1.756927e+00 -1.777783e+00 -1.792906e+00 -1.809693e+00 -1.829533e+00 -1.842215e+00 -1.866956e+00 -1.876301e+00 -1.890173e+00 -1.898311e+00 -1.913361e+00 -1.922445e+00 
-2.412494e+00 -2.569510e+00 -2.462853e+00 -2.627351e+00 -2.530077e+00 -2.699984e+00 -2.607680e+00 -2.757572e+00 -2.661611e+00 -2.811472e+00 -2.720537e+00 -2.862903e+00 -2.806966e+00 -2.920544e+00 -1.478209e+00 -1.438479e+00 -2.881816e-02 4.404483e-02 1.439876e+00 1.701262e+00 3.067203e+00 3.381000e+00 3.036399e+00 3.325902e+00 3.087647e+00 3.230790e+00 3.104504e+00 3.172458e+00 3.030252e+00 3.162220e+00 2.930482e+00 3.152083e+00 2.858491e+00 3.080129e+00 2.837069e+00 2.978056e+00 2.828075e+00 2.895963e+00 2.773736e+00 2.862498e+00 2.682110e+00 2.849236e+00 2.601706e+00 2.803821e+00 2.564212e+00 2.717370e+00 2.551121e+00 2.634681e+00 2.517278e+00 2.588268e+00 2.441218e+00 2.569194e+00 2.362192e+00 2.538676e+00 2.312710e+00 2.468062e+00 2.291726e+00 2.387533e+00 2.266585e+00 2.328219e+00 2.206117e+00 2.297944e+00 2.127016e+00 2.263866e+00 2.049901e+00 2.167123e+00 1.984227e+00 2.086251e+00 1.954073e+00 2.017454e+00 1.906093e+00 1.974858e+00 1.837100e+00 1.942746e+00 1.771467e+00 1.897249e+00 1.728360e+00 1.830798e+00 1.698392e+00 1.764334e+00 1.660856e+00 1.715608e+00 1.602742e+00 1.681208e+00 1.540077e+00 1.642990e+00 1.490258e+00 1.586828e+00 1.456124e+00 1.523556e+00 1.422591e+00 1.469007e+00 1.374546e+00 1.429773e+00 1.313810e+00 1.387742e+00 1.245180e+00 1.302036e+00 1.176004e+00 1.236336e+00 1.136043e+00 1.176860e+00 1.091580e+00 1.130446e+00 1.037171e+00 1.090674e+00 9.829176e-01 1.046730e+00 9.382324e-01 9.927590e-01 9.006528e-01 9.367945e-01 8.610795e-01 8.875450e-01 8.125573e-01 8.457115e-01 7.601871e-01 8.037738e-01 7.118579e-01 7.550082e-01 6.714686e-01 7.013551e-01 6.329133e-01 6.499128e-01 5.890227e-01 6.049984e-01 5.370102e-01 5.574884e-01 4.733660e-01 4.768735e-01 4.035409e-01 4.204465e-01 3.600635e-01 3.680452e-01 3.180800e-01 3.213125e-01 2.718997e-01 2.784853e-01 2.241753e-01 2.347396e-01 1.791665e-01 1.864023e-01 1.376344e-01 1.357477e-01 9.636456e-02 8.684270e-02 5.205046e-02 4.192435e-02 5.244393e-03 -1.674954e-03 -4.079415e-02 -4.715078e-02 -8.324022e-02 -9.545886e-02 -1.238108e-01 -1.438758e-01 -1.657341e-01 -1.900842e-01 -2.125688e-01 -2.394728e-01 -2.723146e-01 -3.177341e-01 -3.417666e-01 -3.694965e-01 -3.865579e-01 -4.179997e-01 -4.278578e-01 -4.645143e-01 -4.704212e-01 -5.088630e-01 -5.146871e-01 -5.526549e-01 -5.589305e-01 -5.979707e-01 -6.014738e-01 -6.451654e-01 -6.429348e-01 -6.926443e-01 -6.850391e-01 -7.383214e-01 -7.290157e-01 -7.824776e-01 -7.736067e-01 -8.269454e-01 -8.169024e-01 -8.733107e-01 -8.588293e-01 -9.207309e-01 -9.009948e-01 -9.681854e-01 -9.467348e-01 -1.019720e+00 -1.005833e+00 -1.098566e+00 -1.076015e+00 -1.149498e+00 -1.122910e+00 -1.197204e+00 -1.165466e+00 -1.244406e+00 -1.207273e+00 -1.290400e+00 -1.250297e+00 -1.335045e+00 -1.294374e+00 -1.379676e+00 -1.338099e+00 -1.425959e+00 -1.380996e+00 -1.473699e+00 -1.423970e+00 -1.521634e+00 -1.468429e+00 -1.569002e+00 -1.514322e+00 -1.615975e+00 -1.560721e+00 -1.663313e+00 -1.606186e+00 -1.711344e+00 -1.649973e+00 -1.759796e+00 -1.692823e+00 -1.806949e+00 -1.736174e+00 -1.851948e+00 -1.780361e+00 -1.896035e+00 -1.823748e+00 -1.941343e+00 -1.865748e+00 -1.988201e+00 -1.907595e+00 -2.035127e+00 -1.951058e+00 -2.081357e+00 -1.996116e+00 -2.127264e+00 -2.041495e+00 -2.173861e+00 -2.085843e+00 -2.221390e+00 -2.128832e+00 -2.269343e+00 -2.171630e+00 -2.315946e+00 -2.215120e+00 -2.360374e+00 -2.258999e+00 -2.404101e+00 -2.301397e+00 -2.445972e+00 -2.336493e+00 -2.483946e+00 -2.372178e+00 -2.523711e+00 