# vtk DataFile Version 2.0
Comment goes here
ASCII

DATASET STRUCTURED_POINTS
FIELD FieldData 1
TIME 1 1 double
0.09400000
DIMENSIONS    256   256   1

ORIGIN    0.000   0.000   0.000
SPACING   0.0078125 0.0078125   1.000

POINT_DATA   65536
SCALARS P double
LOOKUP_TABLE default

2.050197e+03 3.455084e+02 1.463945e+03 -7.033978e+02 5.844425e+02 -7.120930e+02 2.134643e+02 -1.019971e+02 1.998667e+03 3.960291e+02 3.612207e+03 -4.248714e+02 2.513229e+03 1.157006e+03 1.428997e+03 4.218333e+02 2.345179e+03 4.488867e+02 2.093939e+02 -9.762011e+01 2.574930e+03 2.346113e+03 2.171678e+03 1.398576e+03 3.993768e+03 7.811344e+02 7.522884e+02 -1.489620e+03 -4.464590e+02 3.053509e+02 1.159688e+03 2.489172e+03 2.194048e+03 1.598807e+03 1.200273e+03 2.381879e+03 3.039384e+03 7.478157e+02 3.610192e+03 1.574913e+03 4.039391e+03 1.639147e+03 3.097687e+03 1.246002e+03 3.937313e+03 1.863072e+03 4.211943e+03 2.479467e+03 4.284914e+03 2.291697e+03 4.418302e+03 9.087000e+02 3.404068e+03 2.713466e+03 5.242941e+03 1.966581e+03 1.835400e+03 -8.240078e+02 3.099470e+03 2.177058e+03 4.427751e+03 2.401518e+03 1.342104e+03 4.807913e+02 3.869230e+03 2.196670e+03 3.883981e+03 3.397833e+03 3.549700e+03 2.537598e+03 3.539824e+03 3.482563e+03 3.680226e+03 3.333426e+03 3.873398e+03 3.151812e+03 3.990104e+03 3.084446e+03 4.202552e+03 3.483953e+03 3.778138e+03 3.212075e+03 4.026927e+03 3.545605e+03 3.782370e+03 3.558039e+03 3.785663e+03 3.551075e+03 3.731385e+03 3.365666e+03 3.180857e+03 3.348484e+03 3.009775e+03 3.295238e+03 2.866119e+03 2.923744e+03 2.407531e+03 3.361131e+03 2.816160e+03 3.627076e+03 2.927475e+03 3.563216e+03 2.708609e+03 3.679108e+03 2.468592e+03 4.189684e+03 3.363312e+03 5.580672e+03 2.418931e+03 2.613680e+03 1.390572e+03 3.470878e+03 2.123223e+03 3.513537e+03 2.182781e+03 3.862303e+03 2.195066e+03 3.884471e+03 1.874809e+03 4.026930e+03 1.579764e+03 2.487883e+03 2.253115e+03 3.686295e+03 2.501391e+03 4.053090e+03 1.964570e+03 3.728120e+03 1.618991e+03 3.609896e+03 2.087505e+03 3.941363e+03 1.826109e+03 4.086964e+03 1.789658e+03 4.396615e+03 1.179809e+03 2.573582e+03 5.549262e+02 4.506659e+03 1.640917e+03 5.857731e+02 -1.580289e+02 3.061924e+03 3.884740e+02 -1.260625e+03 -2.235758e+03 -5.655539e+03 -8.767075e+02 8.204751e+03 -1.105529e+03 2.842017e+03 -1.358410e+03 1.954170e+03 -6.751548e+02 2.492868e+03 1.258528e+02 2.617025e+03 7.655212e+02 2.743256e+03 1.292141e+03 2.153083e+03 1.457440e+03 3.007695e+03 2.766589e+03 3.321122e+03 2.090930e+03 3.593154e+03 1.695090e+03 3.218670e+03 2.761101e+03 4.272338e+03 3.050912e+03 3.791668e+03 2.271528e+03 6.083818e+03 2.894276e+03 6.253966e+03 3.466061e+03 4.702265e+03 3.101089e+03 4.870482e+03 3.310952e+03 4.452197e+03 2.919721e+03 3.204131e+03 2.345899e+03 3.266171e+03 2.137571e+03 2.525553e+03 -1.552066e+03 3.289753e+03 -1.710116e+03 -4.084017e+03 -6.729583e+03 5.468715e+02 5.092376e+02 5.916177e+02 8.650704e+01 1.630895e+03 1.923604e+03 1.730612e+03 1.288383e+03 1.649375e+03 1.118221e+03 1.479253e+03 9.702811e+01 1.507834e+03 -1.854872e+03 2.634219e+01 -2.520233e+03 -1.820096e+03 -5.233715e+02 -3.595253e+02 1.226879e+03 8.707789e+02 1.908758e+03 9.034632e+02 1.917413e+03 8.385158e+02 1.448769e+03 2.092756e+02 1.440503e+03 4.852949e+02 1.721791e+03 6.538735e+02 1.453511e+03 1.221419e+03 1.608030e+03 1.741746e+03 1.766474e+03 1.724334e+03 2.303602e+03 1.055243e+03 2.056956e+03 1.083545e+03 1.028240e+03 1.103421e+03 8.040416e+02 5.514101e+02 1.172420e+03 1.237259e+03 1.577486e+03 -1.793217e+02 1.474403e+03 -8.729227e+02 -1.961391e+03 -8.267251e+02 -1.337836e+02 1.878503e+03 4.446208e+02 -7.765103e+02 1.553727e+03 -1.104154e+03 5.628019e+02 4.842162e+01 
1.152625e+03 -6.407035e+00 6.742173e+02 -5.902623e+02 7.978916e+02 -1.022449e+03 5.163850e+02 -1.436492e+03 7.774998e+02 7.596892e+02 9.799029e+02 -3.407178e+03 -1.170479e+03 -1.238996e+03 -6.562140e+02 -9.596821e+02 5.331023e+02 -4.010204e+02 3.056549e+02 2.525831e+02 2.466731e+03 1.460567e+03 3.532590e+03 6.391014e+02 4.103650e+03 -1.853398e+02 -4.104755e+02 -6.434478e+03 -3.321150e+03 -1.502725e+03 -1.555434e+03 2.051932e+03 2.421996e+03 7.889862e+02 3.213778e+03 -1.762427e+02 3.797285e+03 2.247684e+03 3.841786e+03 2.867530e+03 4.230694e+03 2.394030e+03 3.833094e+03 2.750645e+03 4.197521e+03 2.510304e+03 4.123689e+03 1.198632e+03 2.942734e+03 2.291916e+03 2.268313e+03 8.302171e+02 3.200099e+03 2.913726e+03 5.254241e+03 2.935357e+03 1.559042e+03 5.750418e+02 2.635877e+03 1.806154e+03 3.990168e+03 1.710535e+03 -2.238377e+02 -4.834235e+02 4.138789e+03 1.707008e+03 3.453485e+03 1.928738e+03 2.791084e+03 1.603800e+03 1.678393e+03 1.942697e+03 1.804512e+03 2.664843e+03 2.540324e+03 1.593038e+03 3.463859e+03 3.391463e+03 3.447593e+03 2.794389e+03 2.879194e+03 2.544719e+03 2.872587e+03 2.522786e+03 3.061206e+03 2.781299e+03 3.268962e+03 3.104731e+03 3.108386e+03 2.768495e+03 2.623871e+03 2.658707e+03 2.426274e+03 2.603444e+03 2.100558e+03 2.250769e+03 2.448510e+03 2.850100e+03 3.176447e+03 3.060695e+03 2.707471e+03 3.336867e+03 2.808321e+03 3.500640e+03 2.513258e+03 3.610704e+03 2.881621e+03 4.029541e+03 3.494383e+03 3.764232e+03 2.611736e+03 3.701224e+03 2.308864e+03 3.538716e+03 1.867032e+03 3.263930e+03 1.861718e+03 3.006988e+03 8.157341e+02 2.905363e+03 -3.644681e+02 2.210215e+03 8.993599e+02 2.917017e+03 6.012254e+02 2.460334e+03 1.251289e+03 2.921301e+03 1.695673e+03 3.691556e+03 1.988534e+03 3.777238e+03 1.686344e+03 3.340916e+03 1.859659e+03 4.124887e+03 1.344063e+03 3.042495e+03 -9.540927e+01 3.130381e+03 -1.313161e+02 3.048204e+03 2.654046e+03 5.048434e+03 2.082883e+03 9.520479e+02 -1.658082e+02 -5.422672e+02 1.716779e+03 4.757444e+03 1.941527e+03 2.805146e+03 1.110319e+02 2.095057e+03 -1.800221e+02 1.464072e+03 -7.994787e+02 1.950619e+03 3.480422e+02 1.451160e+03 6.406132e+02 1.121835e+03 9.746333e+02 2.514795e+03 7.392107e+02 2.910697e+03 1.624774e+03 4.666443e+02 2.733168e+03 2.512237e+03 3.210459e+02 1.029889e+03 9.315449e+02 2.784791e+03 -2.798404e+02 1.987031e+03 -2.836710e+02 3.528976e+03 -2.945656e+02 1.772937e+03 1.699902e+03 3.260223e+03 2.124459e+03 2.491221e+03 2.218390e+03 2.130990e+03 1.536794e+03 1.015079e+03 7.276294e+02 -1.535513e+03 -1.777663e+03 9.679296e+02 -6.068154e+02 -4.209959e+03 -7.778785e+03 -5.715317e+03 -1.848427e+02 2.118842e+03 2.684388e+02 -7.338248e+02 9.903920e+02 3.575801e+02 3.691446e+02 1.664078e+03 2.817241e+03 1.439026e+03 1.316559e+03 1.586943e+03 1.230028e+03 7.018799e+02 1.635601e+03 8.002786e+01 1.741822e+03 -3.355722e+02 1.585851e+03 6.363647e+02 2.015654e+03 8.418760e+02 1.759480e+03 5.704767e+02 1.707963e+03 -8.724869e+00 1.163925e+03 3.544682e+02 1.279287e+03 6.904829e+02 1.369058e+03 9.384989e+02 1.579442e+03 9.660054e+02 1.440811e+03 8.387259e+02 1.306683e+03 4.466362e+02 1.539191e+03 4.429423e+02 8.857761e+02 3.291987e+02 7.457199e+02 8.248314e+01 2.743220e+02 -4.968966e+02 -1.523926e+03 -1.339397e+03 3.073806e+02 2.195454e+02 3.079323e+02 -1.960287e+03 1.429534e+03 3.048141e+02 8.497733e+02 8.704585e+02 1.235153e+03 -4.098107e+02 2.437410e+03 -1.557646e+02 
1.554266e+03 4.297056e+02 1.138666e+03 -1.802254e+02 8.445682e+02 -4.170937e+01 9.871455e+02 -6.083302e+02 1.754997e+03 4.140728e+02 2.646527e+03 -3.302904e+03 -7.479671e+02 1.555215e+01 6.843783e+02 1.143264e+03 3.443986e+03 -1.150518e+03 1.605620e+03 2.741236e+03 4.262857e+03 2.351650e+03 3.906055e+03 2.176883e+03 4.599303e+03 -7.891697e+02 -3.321563e+03 -4.728585e+03 -1.993770e+03 1.464964e+03 -6.269954e+02 1.208269e+03 2.026997e+03 1.136660e+03 1.227697e+03 1.369657e+03 9.086200e+02 3.251206e+02 4.684774e+03 1.541848e+03 3.677054e+03 1.703320e+03 4.438852e+03 2.499851e+03 5.498730e+03 2.484493e+03 5.088226e+03 2.244854e+03 5.035350e+03 3.918278e+03 3.608378e+03 2.521251e+02 3.817833e+03 2.646928e+03 4.009940e+03 2.516123e+03 4.160236e+03 1.972677e+03 4.788183e+03 2.818504e+03 5.885804e+03 2.139626e+03 5.836820e+02 -2.274284e+03 4.083894e+03 7.544662e+02 3.331575e+03 1.791054e+03 3.473998e+03 2.631357e+03 2.730214e+03 2.200978e+03 2.644354e+03 3.244406e+03 3.112295e+03 2.701852e+03 3.611065e+03 3.552239e+03 3.453754e+03 3.697377e+03 3.869596e+03 3.647191e+03 4.194684e+03 3.241050e+03 3.620277e+03 3.582039e+03 3.966627e+03 3.128149e+03 4.078525e+03 1.998909e+03 2.132673e+03 3.486873e+03 2.860122e+03 3.550290e+03 2.534159e+03 3.101883e+03 2.412071e+03 3.144161e+03 2.982534e+03 3.382231e+03 2.786423e+03 3.441231e+03 2.601847e+03 3.495937e+03 1.823896e+03 3.680961e+03 2.462620e+03 3.586615e+03 3.001511e+03 4.246700e+03 3.089730e+03 3.995088e+03 2.456759e+03 3.921577e+03 2.391291e+03 3.832516e+03 2.231658e+03 3.717160e+03 2.213169e+03 3.028046e+03 1.437969e+03 4.197680e+03 1.611200e+03 3.709113e+03 1.166824e+03 2.803853e+03 1.875023e+03 4.182010e+03 1.918979e+03 4.005937e+03 2.568909e+03 3.874922e+03 2.251720e+03 3.885198e+03 2.031688e+03 4.052638e+03 1.294293e+03 2.635053e+03 1.172806e+03 1.430006e+03 1.565416e+03 2.776451e+03 3.005814e+02 1.440911e+03 1.347571e+03 5.650216e+02 1.795492e+03 -6.139620e+02 1.988457e+03 2.965743e+03 9.011919e+02 3.857877e+03 7.278790e+02 2.918686e+03 6.147529e+01 2.146190e+03 -1.375526e+01 2.991705e+03 9.611769e+02 2.498523e+03 1.074299e+03 2.942584e+03 7.495855e+02 3.560492e+03 2.352835e+03 3.955537e+03 2.888896e+03 4.458320e+03 2.982605e+03 2.547452e+03 2.418663e+03 3.256786e+03 2.423676e+03 5.088778e+03 3.222474e+03 2.996933e+03 1.719934e+03 5.416172e+03 2.811616e+03 4.417977e+03 3.682203e+03 3.877145e+03 3.789388e+03 6.435424e+03 3.513404e+03 4.177921e+03 3.310653e+03 4.600356e+03 2.793914e+03 2.308836e+03 -2.661362e+02 4.609451e+03 1.104740e+03 -2.537757e+02 -3.544438e+03 3.350233e+03 2.513584e+03 2.402282e+03 2.182154e+03 3.441081e+03 2.114355e+03 2.639550e+03 1.803894e+03 -2.932288e+02 1.220821e+03 1.511936e+03 1.525766e+03 1.763016e+03 3.480878e+02 6.584211e+02 2.090264e+03 7.408558e+02 2.656805e+03 7.800600e+02 2.106280e+03 3.470301e+02 1.403201e+03 -3.523984e+02 1.135782e+03 2.891690e+02 1.643479e+03 1.042389e+03 1.801339e+03 8.487707e+02 2.240855e+03 1.540407e+03 1.950012e+03 1.877255e+03 2.278433e+03 2.025692e+03 2.394333e+03 2.152385e+03 2.698025e+03 1.645680e+03 1.882803e+03 1.712596e+03 1.588818e+03 1.279082e+03 1.154675e+03 1.132922e+03 6.692711e+02 1.096000e+03 -1.455560e+03 -1.306035e+03 5.273264e+02 3.994753e+01 9.939241e+01 -7.434665e+02 7.665864e+02 -5.515587e+02 1.122413e+03 2.893279e+02 1.692801e+03 4.645251e+02 5.705888e+02 4.938443e+02 
4.090022e+02 -1.051908e+03 5.026683e+01 -1.003666e+03 8.973090e+02 -7.212531e+02 7.500902e+02 -1.276351e+03 -1.663788e+02 -1.680934e+03 2.025999e+03 -3.171256e+03 -6.063540e+02 -1.656413e+03 -1.260981e+03 -1.387605e+03 7.329864e+01 -1.799440e+03 7.997191e+01 2.199171e+03 3.383700e+03 2.055397e+03 4.485839e+03 1.757881e+03 5.996483e+03 2.572493e+03 -4.107543e+01 -9.274970e+03 -4.392166e+03 2.108186e+03 4.080838e+03 4.226515e+03 2.833473e+03 3.228229e+01 1.653926e+03 2.624524e+02 2.386254e+03 3.821257e+02 3.997410e+03 2.007697e+03 4.764817e+03 2.947854e+03 3.524595e+03 1.952622e+03 3.638168e+03 1.104433e+03 4.060801e+03 1.511557e+02 2.100238e+03 2.010669e+03 3.972107e+03 2.015179e+03 3.714809e+03 -2.080035e+02 1.498320e+03 1.302893e+03 3.054516e+03 1.325374e+03 3.380185e+03 1.634089e+03 3.764581e+03 6.999316e+02 1.806977e+03 2.919863e+02 3.061601e+03 7.585698e+02 2.645100e+03 1.231137e+03 2.839973e+03 2.159401e+03 3.034408e+03 2.191499e+03 3.479192e+03 2.921500e+03 2.516674e+03 1.659883e+03 2.643006e+03 2.489386e+03 2.990731e+03 3.176184e+03 2.834995e+03 3.092908e+03 3.056089e+03 2.765920e+03 3.341778e+03 2.697107e+03 2.951789e+03 1.686463e+03 3.167471e+03 6.842036e+02 6.027549e+02 2.253056e+03 1.968237e+03 2.702625e+03 2.021479e+03 2.687432e+03 2.624742e+03 2.793725e+03 3.194143e+03 3.114440e+03 2.830219e+03 3.306782e+03 3.040272e+03 3.475795e+03 2.817636e+03 3.668767e+03 3.399989e+03 4.467569e+03 3.131543e+03 3.762182e+03 2.520222e+03 3.800913e+03 2.317110e+03 3.704387e+03 2.074266e+03 3.441016e+03 2.042512e+03 2.965364e+03 2.018665e+03 3.212964e+03 2.126274e+03 2.963017e+03 1.388922e+03 2.700771e+03 1.359015e+03 2.587993e+03 1.755401e+03 3.737580e+03 1.549098e+03 3.336399e+03 1.809122e+03 3.359628e+03 1.346288e+03 2.860587e+03 1.398982e+03 3.573471e+03 8.098927e+02 2.760797e+03 1.364144e+03 2.071928e+03 -2.304283e+03 3.003902e+03 4.408444e+02 2.386016e+03 1.082513e+03 2.825364e+03 1.873203e+02 -3.471031e+02 1.106278e+03 5.981712e+02 -2.012451e+02 1.696810e+03 -7.503629e+01 2.260031e+03 -3.816302e+02 2.405807e+03 8.757061e+02 2.447035e+03 5.867834e+02 2.930147e+03 1.186537e+03 1.037037e+03 8.374115e+02 1.575009e+03 1.200996e+03 2.995453e+03 1.569403e+03 1.598906e+03 2.261684e+03 2.536076e+03 2.128025e+03 2.981581e+03 1.140344e+03 3.765907e+03 4.247897e+02 3.572507e+03 8.753794e+02 2.748431e+03 7.173193e+02 2.451423e+03 1.055484e+03 2.430280e+03 1.274451e+02 2.323165e+03 2.388428e+02 1.489025e+03 5.980321e+02 1.052163e+03 -7.107680e+02 -1.035530e+03 -4.102788e+03 -4.936834e+02 -5.214905e+03 -1.737939e+03 -6.909882e+03 -6.658151e+03 -9.007014e+03 -1.399848e+03 -4.462007e+03 -3.244624e+02 1.068618e+03 1.314342e+03 1.756846e+03 1.075330e+03 -3.089011e+02 1.314798e+03 1.755521e+03 7.487720e+02 1.480724e+03 6.580590e+02 1.265907e+03 4.077996e+02 3.177706e+03 1.948141e+02 2.203107e+03 -8.720919e+02 1.558033e+03 -3.908042e+02 3.213246e+02 5.185431e+02 4.297758e+02 4.713321e+02 9.623884e+02 4.200552e+02 1.380333e+03 8.696899e+02 1.585233e+03 9.420876e+02 1.638218e+03 1.064120e+03 1.921083e+03 1.397056e+03 1.609746e+03 4.295087e+02 9.710068e+02 3.071531e+00 2.999334e+02 1.519755e+02 6.102973e+02 9.022373e+02 8.592976e+02 2.036424e+03 4.128880e+02 -6.832090e+02 -5.188209e+02 1.696408e+02 5.186109e+02 -7.139959e+02 1.074206e+03 4.211881e+02 8.481771e+02 7.285112e+02 3.070597e+02 1.378716e+02 4.029844e+02 -6.794008e+02 
1.414851e+03 -2.728110e+02 1.140029e+03 -1.096614e+03 9.665717e+02 4.245129e+02 2.028855e+03 -7.919260e+02 1.971978e+03 -5.553656e+02 2.109370e+03 -6.286843e+02 1.463136e+03 1.691516e+01 1.819404e+03 7.082236e+02 2.906869e+03 4.214071e+02 3.096733e+03 3.032721e+03 3.596708e+03 4.008681e+03 3.528745e+03 4.578730e+03 7.864351e+03 7.011352e+03 9.542066e+03 3.829921e+03 -3.705839e+02 1.237521e+03 5.272615e+03 3.807614e+03 4.052857e+03 5.932676e+03 1.469342e+03 -3.532084e+02 1.100141e+03 8.419304e+02 5.137021e+03 9.152990e+02 3.653127e+03 1.461546e+03 5.737987e+03 2.331904e+03 4.651285e+03 2.536739e+03 5.453613e+03 2.968537e+03 3.513957e+03 3.062646e+03 4.419492e+03 1.401544e+03 4.843354e+03 4.216652e+03 2.321087e+03 3.489299e+03 4.805175e+03 2.790209e+03 4.281688e+03 3.805900e+03 3.744242e+03 3.005935e+03 3.700928e+03 2.112673e+03 3.637246e+03 3.167849e+02 1.882699e+03 1.037361e+03 3.307434e+03 2.888917e+03 3.578633e+03 2.462943e+03 2.905995e+03 2.042574e+03 3.021505e+03 1.967393e+03 4.382285e+03 2.404827e+03 3.247195e+03 2.424750e+03 3.071908e+03 3.248407e+03 4.354345e+03 3.669077e+03 4.406150e+03 3.502315e+03 3.955104e+03 3.806100e+03 4.072507e+03 2.794006e+03 2.900710e+03 3.322558e+03 3.145767e+03 3.523479e+03 3.090533e+03 3.315578e+03 2.576409e+03 2.862767e+03 2.319523e+03 3.385115e+03 1.304628e+03 2.829507e+03 3.191886e+03 2.904760e+03 2.947461e+03 2.832111e+03 1.806804e+03 3.130364e+03 2.572921e+03 3.846641e+03 2.925749e+03 3.759108e+03 2.629964e+03 3.998375e+03 2.547087e+03 4.235611e+03 2.699049e+03 3.725266e+03 2.618598e+03 3.915329e+03 2.756467e+03 3.455755e+03 1.898430e+03 2.924387e+03 1.838398e+03 3.555066e+03 2.290179e+03 3.940306e+03 1.729522e+03 3.996862e+03 2.127276e+03 3.626334e+03 1.971832e+03 3.378614e+03 2.040718e+03 3.254813e+03 1.256942e+03 2.661299e+03 9.276293e+02 3.586925e+02 1.938696e+02 2.365885e+03 6.366780e+01 1.429866e+03 -1.424853e+03 -1.217684e+03 -9.705067e+02 -5.897254e+02 -1.063667e+03 1.873819e+03 -8.224402e+00 1.624592e+03 -1.133667e+03 2.276980e+03 -6.827016e+02 2.913576e+03 9.322028e+02 2.414596e+03 7.594661e+02 2.761497e+03 -3.022699e+02 2.230643e+03 1.037244e+03 3.497891e+03 1.642367e+03 3.910874e+03 1.583556e+03 3.198202e+03 1.602669e+03 3.603038e+03 1.975144e+03 4.879076e+03 1.731052e+03 4.806218e+03 2.107316e+03 4.644481e+03 2.844182e+03 5.068059e+03 2.448665e+03 4.621277e+03 3.304230e+03 4.261896e+03 2.560586e+03 4.852974e+03 3.205093e+03 3.589838e+03 2.890621e+03 3.817515e+03 7.884620e+02 1.214411e+03 -6.749704e+02 -7.656075e+02 4.162628e+02 -1.633240e+03 -1.584913e+03 -4.823030e+02 8.842194e+01 -3.360822e+03 2.766282e+03 -3.746639e+03 1.685984e+03 1.152643e+03 2.486379e+03 2.208302e+03 2.571457e+03 9.512944e+02 1.456012e+03 1.083782e+03 5.557678e+02 2.627929e+02 1.511607e+03 7.606165e+02 2.584601e+03 7.875120e+02 2.026547e+03 7.859843e+01 -5.216605e+02 -3.969798e+02 1.593129e+03 -8.122602e+00 1.175346e+03 7.162506e+02 1.320733e+03 1.354877e+03 1.832591e+03 1.561097e+03 2.138806e+03 1.910086e+03 2.671889e+03 2.447072e+03 2.754248e+03 3.043722e+03 3.597450e+03 2.353878e+03 2.446658e+03 2.073995e+03 7.457065e+02 5.710931e+02 4.154519e+02 1.262366e+03 1.176021e+02 2.614255e+03 -1.849443e+02 5.210660e+02 4.626572e+02 7.043137e+02 4.185696e+02 8.523104e+02 1.086307e+03 3.074083e+01 1.062294e+03 8.503979e+02 1.855301e+03 1.092539e+03 1.180736e+03 -4.934383e+02 
7.356413e+02 3.897119e+02 1.654157e+03 -9.822762e+02 -6.362999e+02 -1.605225e+03 7.524982e+02 -1.365861e+03 5.167738e+02 -1.579032e+03 8.514229e+02 -8.921594e+02 5.758386e+02 -9.732052e+02 -7.650960e+02 -1.268415e+03 2.286186e+02 -1.222995e+03 8.173648e+02 1.011542e+03 3.140363e+03 3.692723e+03 4.799114e+03 2.720380e+03 5.419939e+03 4.201234e+03 4.079525e+03 -1.322061e+03 -1.422294e+03 2.294623e+03 4.004998e+03 3.459814e+03 1.884075e+03 7.815414e+03 2.882814e+03 -7.953280e+03 -6.716605e+02 -9.754414e+02 6.392321e+02 -1.144866e+03 3.012029e+03 -2.116561e+03 3.172097e+03 -4.318471e+02 1.574324e+03 8.938114e+02 1.945760e+03 1.699977e+03 3.680865e+03 2.245196e+03 3.131382e+03 1.187199e+03 3.343284e+03 2.531929e+03 2.514202e+03 1.016732e+03 1.899802e+03 1.904203e+03 2.508781e+03 1.749898e+03 2.867338e+03 2.512172e+03 1.539180e+03 1.250783e+03 2.237446e+03 -2.423723e+02 9.782651e+02 9.930078e+02 3.219799e+03 1.931797e+03 2.485426e+03 1.709389e+03 2.237527e+03 -7.644629e+02 2.800231e+03 5.575402e+02 2.628546e+03 2.010329e+03 2.427315e+03 1.316537e+03 2.445878e+03 2.567960e+03 2.553502e+03 2.657248e+03 4.243795e+03 2.771253e+03 2.851162e+03 2.629034e+03 1.674922e+03 9.498764e+02 2.714629e+03 2.418921e+03 2.735737e+03 2.630605e+03 1.891787e+03 2.654075e+03 2.295020e+03 2.102883e+03 1.096318e+03 2.143665e+03 1.041041e+03 8.816798e+02 3.198021e+03 2.255616e+03 2.652929e+03 2.508273e+03 1.902104e+03 3.161620e+03 2.455277e+03 3.711204e+03 2.333042e+03 3.766548e+03 2.362012e+03 4.024170e+03 1.381287e+03 3.163209e+03 1.535794e+03 1.881790e+03 1.346221e+03 2.838396e+03 2.177355e+03 3.621093e+03 1.350327e+03 2.206732e+03 1.105992e+03 3.070596e+03 1.333599e+03 3.186255e+03 1.346700e+03 2.889570e+03 8.065312e+02 2.167638e+03 2.127142e+03 2.532004e+03 1.244112e+03 3.156695e+03 1.401493e+03 2.752884e+03 1.362558e+03 2.563605e+03 1.487971e+03 2.625720e+03 6.189081e+02 1.204883e+03 -1.093014e+03 -2.360888e+03 -7.129129e+02 4.831674e+02 -5.188018e+02 2.614666e+03 1.108397e+03 1.441759e+03 6.375026e+02 2.341322e+03 2.374895e+02 2.908951e+03 1.162157e+03 2.516661e+03 3.135240e+02 1.402759e+03 1.229771e+02 2.620733e+03 -3.066968e+02 1.785586e+03 7.022812e+02 2.574251e+03 1.192398e+03 2.718757e+03 5.073363e+02 2.621431e+03 1.678661e+03 3.251519e+03 1.364588e+03 3.787224e+03 8.514678e+02 2.964611e+03 3.624830e+02 2.606994e+03 1.130702e+03 2.467343e+03 1.333951e+03 2.253550e+03 3.863814e+00 3.073360e+03 3.530258e+02 5.395727e+02 -1.652053e+02 4.813231e+02 -9.540518e+02 -7.551048e+02 -4.081622e+03 -3.144599e+03 -4.913563e+03 -7.950078e+02 -8.646717e+02 2.447757e+02 -3.180628e+02 -1.425266e+02 1.206992e+03 6.824489e+00 3.177430e+02 1.213222e+03 1.784066e+03 1.185250e+03 2.093681e+03 1.445959e+03 2.836944e+03 1.764018e+03 1.486994e+02 -2.089772e+02 1.295440e+03 -2.845144e+02 2.822899e+03 1.121352e+03 1.863887e+03 -3.003402e+02 7.650950e+02 5.513766e+01 1.803004e+03 2.771082e+02 1.280361e+03 5.627669e+02 1.179140e+03 5.357787e+02 1.200761e+03 9.343424e+02 1.613165e+03 1.004528e+03 1.814408e+03 1.001757e+03 2.177217e+03 1.747008e+03 2.201133e+03 1.214913e+03 2.647889e+03 8.533577e+01 -8.610571e+02 -5.337740e+02 -3.412073e+02 -1.142627e+02 4.471365e+02 1.638915e+03 5.645145e+02 -5.765366e+02 1.198727e+02 -3.072753e+02 -2.525022e+02 -4.636522e+02 1.562988e+02 1.288308e+03 1.653228e+03 1.364126e+03 1.739059e+03 7.803253e+02 5.351329e+02 1.970822e+02 
4.924428e+02 4.800994e+02 1.240742e+03 -7.066549e+02 -1.105708e+02 -1.788146e+03 8.541387e+02 -1.295679e+03 1.010222e+03 -5.494648e+01 1.774932e+03 -5.165918e+02 1.554555e+03 -3.043472e+02 2.474571e+03 7.415897e+02 3.503844e+03 1.591525e+03 4.494681e+03 2.820934e+03 5.033120e+03 2.840848e+03 6.167934e+03 4.519112e+03 6.346215e+03 4.698036e+03 6.303338e+03 2.185591e+03 3.614595e+03 3.843493e+03 5.413343e+03 4.184650e+03 2.466793e+03 1.568726e+03 -2.031414e+03 -7.162024e+02 1.865338e+02 2.183470e+03 4.633555e+03 2.013254e+03 3.859152e+03 1.668287e+03 4.940317e+03 9.920586e+02 3.617303e+03 1.008860e+03 3.364598e+03 4.206076e+03 4.640097e+03 2.158198e+03 3.981954e+03 2.858131e+03 3.963040e+03 2.603325e+03 3.518729e+03 2.523105e+03 3.218320e+03 2.047585e+03 3.014538e+03 1.814585e+03 2.863859e+03 1.020445e+03 1.605001e+03 1.238333e+03 6.966327e+02 -5.663550e+02 3.684541e+03 3.074382e+03 3.422267e+03 2.883164e+03 3.814477e+03 3.349820e+03 3.950738e+03 2.008274e+03 3.835021e+03 2.645076e+03 3.873380e+03 3.030179e+03 4.224592e+03 2.324685e+03 3.944132e+03 3.184734e+03 2.908270e+03 2.475198e+03 5.083948e+03 3.924959e+03 3.727828e+03 3.412020e+03 1.872728e+03 2.868458e+03 3.332606e+03 2.997614e+03 3.487327e+03 3.636401e+03 2.790528e+03 3.584518e+03 2.601568e+03 4.033861e+03 2.689320e+03 1.491692e+03 3.257991e+03 -7.818998e+02 1.385476e+03 3.408875e+03 2.017188e+03 3.360721e+03 2.436884e+03 3.494184e+03 2.782048e+03 3.223839e+03 2.691749e+03 3.764896e+03 2.263461e+03 4.005786e+03 8.950315e+02 2.781995e+03 1.212472e+03 2.890420e+03 1.814563e+03 3.929072e+03 3.254144e+03 3.501829e+03 1.556234e+03 2.539930e+03 1.387804e+03 3.436205e+03 1.540436e+03 3.491100e+03 2.188425e+03 3.376059e+03 1.343258e+03 2.880873e+03 2.525306e+03 3.272796e+03 1.708282e+03 3.358965e+03 1.396458e+03 2.407147e+03 8.891239e+02 2.739071e+03 7.371566e+02 2.401493e+03 1.420529e+03 1.835069e+03 1.550359e+03 1.119111e+03 5.927858e+02 -3.764399e+03 -3.793977e+03 -2.596554e+03 8.587008e+02 2.085956e+03 3.622544e+02 3.001456e+03 9.240753e+02 2.994748e+03 1.229049e+03 2.241057e+03 2.528300e+02 3.196531e+03 8.513548e+02 4.187845e+03 2.929962e+03 3.467418e+03 1.360225e+03 4.179417e+03 2.657200e+03 3.562507e+03 3.779011e+03 5.003961e+03 2.561764e+03 5.317253e+03 2.896047e+03 4.449468e+03 3.298506e+03 5.902638e+03 2.728418e+03 4.192005e+03 3.004854e+03 4.361831e+03 2.815440e+03 3.892374e+03 1.058502e+03 2.306243e+03 1.628128e+03 2.255394e+03 2.459840e+03 2.224635e+03 2.257964e+03 2.562458e+03 1.860099e+03 1.543502e+03 7.278727e+02 2.658117e+03 1.121476e+03 3.945637e+03 4.756512e+03 3.738153e+03 3.664258e+03 1.110100e+03 1.408030e+03 2.488830e+03 3.419601e+03 1.045463e+03 2.086183e+03 1.124867e+03 2.523380e+03 1.804231e+02 -1.956545e+03 -2.693969e+02 1.163225e+03 1.015109e+01 2.483580e+03 1.078087e+03 2.645159e+03 1.908078e+03 -1.184526e+02 -8.806131e+01 1.833968e+03 3.586625e+02 1.289823e+03 1.035945e+03 1.085918e+03 1.516494e+03 2.160288e+03 1.618170e+03 2.380399e+03 2.201137e+03 2.990812e+03 2.662557e+03 2.480806e+03 2.513005e+03 2.839500e+03 3.063230e+03 3.837025e+03 4.391805e+01 -2.094618e+03 -2.481882e+03 -5.660697e+02 6.528180e+01 6.546158e+02 1.699393e+03 6.528571e+02 9.413013e+02 -2.661937e+02 6.820668e+02 -1.899773e+01 8.039737e+02 2.074915e+02 8.726492e+02 1.203366e+03 4.722150e+02 1.563874e+03 4.548586e+02 2.485499e+02 3.481077e+02 
1.044147e+03 -6.678020e+01 1.463614e+03 -6.800018e+02 9.949192e+02 -9.338116e+02 7.928008e+02 -7.721391e+02 8.187113e+02 -1.587338e+03 1.271814e+03 -1.531356e+03 4.291630e+02 -1.416791e+03 7.069417e+02 -6.417912e+02 1.668899e+03 2.320434e+02 3.210383e+03 1.602271e+03 5.760023e+03 2.351704e+03 3.099606e+03 2.692223e+03 3.133305e+03 2.668107e+03 3.089062e+03 4.580990e+02 1.029190e+03 1.802890e+03 2.057620e+03 2.437137e+03 -6.436339e+01 -2.107689e+03 -2.083683e+03 -4.064563e+03 1.557797e+03 1.449817e+03 3.080834e+03 -1.356922e+03 4.860641e+02 -3.056595e+03 1.590420e+03 -2.993875e+03 3.852559e+02 -2.005294e+03 9.412044e+02 1.828069e+03 1.415131e+03 9.139091e+01 2.463192e+03 2.036081e+03 2.440402e+03 2.669591e+03 3.103287e+03 2.254119e+03 3.600020e+03 1.419927e+03 2.567731e+03 1.188616e+03 2.307890e+03 -2.688568e+02 -9.412922e+01 -1.435066e+03 -5.288092e+01 7.181012e+02 2.063872e+03 1.645388e+03 2.587725e+03 2.769581e+03 3.032945e+03 3.158507e+03 2.753456e+03 2.628065e+03 3.477005e+03 2.847695e+03 3.485110e+03 3.379193e+03 3.365357e+03 2.632194e+03 2.671750e+03 3.027384e+03 3.471168e+03 4.018734e+03 3.935210e+03 3.059028e+03 2.452518e+03 2.230900e+03 2.518811e+03 1.965808e+03 2.414982e+03 2.971258e+03 2.521693e+03 2.738338e+03 2.093394e+03 2.649639e+03 1.943010e+03 1.653300e+03 1.314924e+03 2.891219e+03 3.890231e+03 1.174183e+03 3.113527e+02 3.735830e+03 2.021917e+03 4.187954e+03 2.385004e+03 3.815306e+03 2.532722e+03 4.000285e+03 2.247190e+03 3.339324e+03 2.696474e+03 3.468022e+03 7.620478e+02 3.004519e+03 1.528027e+03 2.340104e+03 1.434568e+03 1.754500e+03 1.958868e+03 2.753232e+03 1.440238e+03 2.489213e+03 1.588918e+03 3.219253e+03 1.297369e+03 3.280452e+03 1.651708e+03 3.915482e+03 6.192651e+02 3.374908e+03 2.783939e+03 2.063445e+03 8.380311e+02 2.780939e+03 1.082349e+03 2.458266e+03 1.362378e+03 2.428829e+03 1.265423e+03 2.851667e+03 2.456243e+03 1.260918e+03 7.798568e+02 -1.268713e+03 1.966988e+03 -8.001113e+02 -2.758197e+03 -3.825714e+03 -9.942959e+02 1.551344e+03 -9.616900e+02 1.778303e+03 1.429594e+02 2.481943e+03 4.067998e+02 1.550332e+03 -1.837302e+02 1.239731e+03 6.483053e+02 1.340117e+03 1.351382e+03 1.772517e+03 2.013753e+02 1.629715e+03 1.688923e+03 2.224936e+03 1.339106e+03 1.875040e+03 6.183653e+01 2.944425e+03 5.160014e+02 3.186568e+03 -1.957207e+02 2.599368e+03 2.620656e+02 2.670662e+03 2.806063e+02 2.505382e+03 1.630949e+01 2.244544e+03 7.271488e+02 1.447111e+03 1.239217e+03 1.318694e+03 1.231954e+03 9.266200e+02 -3.659485e+02 7.934680e+02 -1.259928e+03 8.507976e+02 -2.825844e+03 8.413909e+02 -9.553162e+02 6.290341e+02 -3.066267e+03 -1.574950e+03 2.340998e+03 -7.435804e+02 6.999452e+02 -7.817393e+02 2.665199e+03 -6.919375e+02 1.580718e+03 1.410429e+03 2.768308e+03 1.456747e+03 2.591462e+02 8.875688e+02 1.983313e+03 -3.285181e+01 2.189316e+03 7.237648e+02 1.772486e+03 1.273263e+03 -1.533021e+02 -2.305537e+03 2.001745e+02 -1.211155e+03 2.915128e+02 -2.677471e+02 8.741951e+02 1.229119e+03 1.512431e+03 1.016172e+03 1.428974e+03 1.145852e+03 1.630663e+03 6.371176e+02 1.250311e+03 1.987787e+03 3.014788e+03 3.506883e+03 3.089903e+03 -3.830423e+02 -4.718195e+03 -2.219868e+03 -3.396392e+02 -9.049010e+02 2.048227e+02 1.973495e+03 9.001300e+02 1.666789e+03 -2.475973e+02 -2.317824e+01 1.234144e+02 -9.142885e+02 -1.250526e+03 1.362312e+03 1.434298e+03 2.303895e+03 1.204302e+03 1.305488e+03 6.036589e+02 -5.001390e+02 