# vtk DataFile Version 2.0
Comment goes here
ASCII

DATASET STRUCTURED_POINTS
FIELD FieldData 1
TIME 1 1 double
0.08900000
DIMENSIONS    64   64   1

ORIGIN    0.000   0.000   0.000
SPACING   0.03125 0.03125   1.000

POINT_DATA   4096
SCALARS P double
LOOKUP_TABLE default

-5.391790e+03 1.387836e+03 -1.528789e+03 -1.870158e+03 -8.045659e+03 -6.674665e+03 -6.389324e+03 -7.446632e+03 7.247572e+02 -2.088110e+03 1.579599e+03 -4.151807e+02 3.296397e+03 1.618862e+02 5.313690e+03 2.864113e+03 9.652526e+03 7.584720e+03 1.188957e+04 1.008307e+04 1.236077e+04 8.781190e+03 1.239062e+04 1.196240e+04 1.491411e+04 1.353719e+04 1.408255e+04 1.004583e+04 1.225756e+04 1.129601e+04 1.146529e+04 6.870955e+03 7.099716e+03 2.679177e+03 -3.341379e+03 -5.302234e+03 -6.282309e+03 -5.070183e+03 -7.199796e+03 -6.618894e+03 -1.004036e+04 -1.239601e+04 -1.960422e+04 -1.954719e+04 -2.046083e+04 -1.840766e+04 -1.634310e+04 -9.065311e+03 -8.011073e+03 8.304627e+02 -2.671971e+03 2.801750e+03 -3.088772e+03 -7.140833e+02 -7.820618e+03 -4.275935e+03 -1.151776e+04 -1.016145e+04 -1.874547e+04 -1.023716e+04 -1.577598e+04 -1.421106e+04 -2.106195e+04 -4.912317e+03 
8.349921e+03 1.645364e+04 1.036039e+04 1.044731e+04 -3.338524e+02 -1.210627e+03 3.012714e+01 3.443233e+02 8.849244e+03 3.141269e+03 6.476735e+03 1.542834e+03 5.535383e+03 -1.464035e+03 3.629002e+03 -1.859716e+03 7.111838e+03 3.689197e+03 1.042828e+04 8.094015e+03 1.044062e+04 6.832972e+03 9.120511e+03 9.551743e+03 1.286668e+04 1.055226e+04 1.257480e+04 8.396760e+03 9.712201e+03 8.493342e+03 1.074157e+04 1.057421e+04 1.117614e+04 1.079657e+04 8.839263e+03 9.113241e+03 6.044706e+03 8.117501e+03 4.731326e+03 4.582150e+03 -8.120955e+02 -2.128976e+03 -8.169147e+03 -9.038548e+03 -8.178115e+03 -2.716952e+03 -1.824944e+03 6.132534e+03 8.270444e+03 1.891307e+04 1.290763e+04 1.878083e+04 1.432034e+04 2.074267e+04 1.209708e+04 1.297831e+04 7.381837e+03 1.247406e+04 2.506177e+03 8.827018e+03 5.478091e+02 6.028085e+03 -3.593406e+03 1.327308e+04 
-7.548331e+02 7.458983e+03 -5.463074e+02 4.657715e+03 -5.046929e+03 -8.047002e+03 -3.525646e+03 -5.444450e+03 1.463499e+03 -3.982394e+03 2.818203e+01 -5.332099e+03 -1.226033e+03 -7.369729e+03 -2.282839e+03 -9.007238e+03 -4.611956e+02 -4.911859e+03 2.446339e+03 -2.245047e+02 3.514052e+03 6.420698e+02 3.113217e+03 2.621411e+03 6.505299e+03 4.071232e+03 7.298473e+03 3.853430e+03 6.216472e+03 4.671617e+03 6.382709e+03 6.758160e+03 9.408602e+03 9.952886e+03 1.103494e+04 1.176716e+04 9.015403e+03 9.202987e+03 7.185021e+03 7.727848e+03 4.372891e+03 4.239040e+03 -2.179790e+02 -2.591940e+03 -3.156516e+03 2.093057e+03 3.413064e+03 9.249447e+03 1.112927e+04 1.682257e+04 1.174565e+04 1.734797e+04 1.283206e+04 1.958007e+04 1.243360e+04 1.333546e+04 7.579689e+03 1.135198e+04 2.528848e+03 6.291973e+03 -2.850569e+03 5.036611e+03 -5.778309e+03 8.339029e+03 
8.246319e+03 1.745708e+04 8.753505e+03 1.531787e+04 7.550974e+03 2.342423e+03 7.039840e+03 1.764029e+03 8.328503e+03 8.457436e+02 6.717149e+03 -7.809750e+02 5.107454e+03 -2.438427e+03 3.795168e+03 -3.674621e+03 4.299518e+03 -1.026017e+03 6.006804e+03 2.189024e+03 6.753509e+03 3.621396e+03 6.902524e+03 5.212011e+03 8.808913e+03 6.383356e+03 9.328372e+03 6.714056e+03 8.694922e+03 7.401995e+03 8.792570e+03 9.160326e+03 1.041553e+04 1.138997e+04 1.122440e+04 1.235418e+04 9.632022e+03 1.060589e+04 7.857981e+03 9.033324e+03 5.415143e+03 6.292121e+03 2.607809e+03 3.365162e+03 1.862046e+03 7.222028e+03 6.763992e+03 1.337111e+04 1.241158e+04 1.930198e+04 1.442299e+04 2.157074e+04 1.574891e+04 2.338895e+04 1.588274e+04 2.038700e+04 1.293239e+04 1.943220e+04 9.530460e+03 1.669057e+04 6.075250e+03 1.589022e+04 3.791429e+03 1.817169e+04 
-3.275817e+03 7.167846e+03 -1.699887e+03 6.489385e+03 -2.032056e+03 -7.769702e+03 -9.753936e+02 -6.972400e+03 6.085415e+02 -6.074996e+03 5.565143e+02 -6.093498e+03 1.454201e+02 -6.487225e+03 -5.409411e+01 -6.393739e+03 7.698193e+02 -4.450024e+03 2.133173e+03 -1.944897e+03 3.163132e+03 -2.627787e+02 3.914611e+03 1.416271e+03 5.452369e+03 2.845827e+03 6.351506e+03 3.803936e+03 6.576854e+03 5.007312e+03 7.101396e+03 6.490228e+03 8.151777e+03 8.035808e+03 8.578056e+03 8.717197e+03 7.705887e+03 7.977635e+03 6.377474e+03 6.876746e+03 4.599556e+03 5.156845e+03 2.672410e+03 3.534699e+03 2.147684e+03 5.688738e+03 4.864681e+03 9.649263e+03 8.132309e+03 1.345299e+04 9.282810e+03 1.480638e+04 9.351821e+03 1.496257e+04 7.889018e+03 1.243906e+04 4.288182e+03 1.001575e+04 8.003795e+01 7.251095e+03 -3.572656e+03 6.373019e+03 -4.579579e+03 7.049771e+03 
6.521323e+03 1.979856e+04 9.480059e+03 1.864770e+04 1.024813e+04 2.852274e+03 1.059352e+04 9.423014e+02 9.638062e+03 -5.282354e+02 7.893331e+03 -1.592144e+03 6.399875e+03 -2.270562e+03 5.390337e+03 -2.356437e+03 5.244359e+03 -1.035018e+03 5.777047e+03 8.860051e+02 6.396679e+03 2.584364e+03 7.092920e+03 4.225591e+03 8.174439e+03 5.598045e+03 8.803968e+03 6.601052e+03 8.881599e+03 7.615338e+03 8.983004e+03 8.737199e+03 9.307499e+03 9.788980e+03 9.238023e+03 1.016081e+04 8.389882e+03 9.519439e+03 7.140254e+03 8.536807e+03 5.657402e+03 7.374859e+03 4.522504e+03 7.059708e+03 4.889229e+03 9.588772e+03 7.551830e+03 1.369266e+04 1.071648e+04 1.749858e+04 1.247454e+04 1.970741e+04 1.299684e+04 2.062455e+04 1.225710e+04 1.967389e+04 1.019813e+04 1.900338e+04 7.729891e+03 1.810326e+04 5.731176e+03 1.835443e+04 5.163670e+03 1.966604e+04 
-7.446334e+03 5.720015e+03 -3.619713e+03 5.531779e+03 -2.611743e+03 -1.093524e+04 2.172693e+02 -9.007898e+03 1.238378e+03 -7.396616e+03 1.437643e+03 -6.545602e+03 1.283808e+03 -6.133096e+03 1.134148e+03 -5.676890e+03 1.422191e+03 -4.541903e+03 2.195871e+03 -2.843028e+03 3.079370e+03 -1.150964e+03 3.953547e+03 4.871400e+02 5.039763e+03 2.065466e+03 6.005728e+03 3.501220e+03 6.604451e+03 4.893229e+03 7.154699e+03 6.067667e+03 7.428609e+03 6.928185e+03 7.398258e+03 7.049885e+03 6.835085e+03 7.017962e+03 5.987857e+03 6.580575e+03 4.945109e+03 5.961755e+03 4.120832e+03 5.874001e+03 4.213641e+03 7.480087e+03 5.693568e+03 1.020651e+04 7.337007e+03 1.245317e+04 7.861646e+03 1.324925e+04 7.117871e+03 1.275392e+04 4.907418e+03 1.066230e+04 7.272358e+02 7.900097e+03 -3.958113e+03 5.418632e+03 -7.666091e+03 4.787806e+03 -6.622397e+03 4.923827e+03 
1.704861e+03 2.144680e+04 9.649136e+03 1.825867e+04 1.292420e+04 1.192590e+03 1.486022e+04 -5.487679e+02 1.164304e+04 -2.314975e+03 8.822915e+03 -2.742796e+03 7.212489e+03 -2.681115e+03 6.115432e+03 -2.443035e+03 5.466937e+03 -1.683723e+03 5.435110e+03 -2.508515e+02 5.943836e+03 1.545424e+03 6.840249e+03 3.407007e+03 7.896157e+03 5.071855e+03 8.692889e+03 6.422662e+03 8.870514e+03 7.622317e+03 8.864684e+03 8.327417e+03 8.578131e+03 8.813768e+03 8.079521e+03 8.949274e+03 7.527323e+03 8.717852e+03 6.584250e+03 8.175300e+03 5.527693e+03 7.611025e+03 4.980185e+03 7.962044e+03 5.660688e+03 1.042750e+04 7.824850e+03 1.422622e+04 1.028210e+04 1.711607e+04 1.145847e+04 1.867418e+04 1.089793e+04 1.893283e+04 9.049090e+03 1.765436e+04 6.140618e+03 1.730006e+04 3.847453e+03 1.688088e+04 1.984524e+03 1.797994e+04 3.310452e+03 2.117330e+04 
-1.780407e+04 9.840086e+02 -7.035259e+03 -3.473449e+03 -3.231729e+03 -1.808317e+04 1.600824e+03 -1.131211e+04 2.888445e+03 -8.186635e+03 2.754040e+03 -6.646810e+03 2.409743e+03 -5.884868e+03 1.869666e+03 -5.678404e+03 1.583514e+03 -5.204753e+03 2.146597e+03 -3.750975e+03 2.995310e+03 -2.006419e+03 3.784252e+03 -3.822023e+02 4.736521e+03 1.392474e+03 5.886590e+03 3.130739e+03 6.496604e+03 4.746611e+03 7.175923e+03 5.728869e+03 6.832003e+03 6.368012e+03 6.571996e+03 5.434351e+03 6.220210e+03 6.363845e+03 5.743690e+03 6.391054e+03 5.006350e+03 6.191888e+03 4.575257e+03 6.456413e+03 4.833535e+03 8.097550e+03 6.222470e+03 1.121337e+04 7.597040e+03 1.276025e+04 7.504767e+03 1.259950e+04 5.876031e+03 1.141557e+04 2.914037e+03 8.127870e+03 -4.266437e+03 3.388570e+03 -1.204071e+04 -1.475768e+03 -2.229274e+04 -4.435830e+03 -1.239646e+04 2.148929e+03 
-1.315095e+04 2.225632e+04 6.622215e+03 7.115613e+03 2.721172e+04 -2.733032e+03 2.372154e+04 -1.710660e+03 1.332564e+04 -5.340772e+03 8.560333e+03 -4.372295e+03 7.506142e+03 -3.279278e+03 6.361152e+03 -3.077123e+03 5.034221e+03 -3.049453e+03 4.503882e+03 -1.815375e+03 5.046967e+03 3.116955e+02 6.274354e+03 2.515283e+03 7.605859e+03 4.525992e+03 8.752490e+03 6.157805e+03 8.608748e+03 7.694947e+03 8.762768e+03 7.947739e+03 7.943715e+03 8.096876e+03 6.965753e+03 7.928381e+03 6.892353e+03 8.105746e+03 5.999124e+03 7.728072e+03 4.857488e+03 6.945981e+03 4.274723e+03 6.900906e+03 5.017750e+03 9.986275e+03 7.662794e+03 1.544112e+04 1.077723e+04 1.770124e+04 1.165219e+04 1.833049e+04 9.437917e+03 1.791462e+04 5.678883e+03 1.293848e+04 1.486440e+02 1.458259e+04 -4.751359e+03 7.184373e+03 -1.874120e+04 6.255794e+03 -6.497205e+03 2.215016e+04 
-4.024263e+04 -5.750984e+03 -1.564704e+04 -2.686143e+04 2.047661e+04 -3.115583e+04 6.030442e+03 -1.146670e+04 6.847345e+03 -7.989742e+03 4.370166e+03 -6.073716e+03 3.634627e+03 -5.208916e+03 2.286962e+03 -6.002693e+03 9.151350e+02 -6.839631e+03 1.763138e+03 -4.993722e+03 2.913448e+03 -2.870137e+03 3.383989e+03 -1.496557e+03 4.134646e+03 5.672862e+02 5.748393e+03 2.478687e+03 5.835854e+03 4.036888e+03 7.083971e+03 5.014444e+03 5.739725e+03 5.951369e+03 4.851573e+03 1.721300e+03 5.822052e+03 6.236896e+03 5.634286e+03 6.304480e+03 4.594140e+03 5.885987e+03 4.015013e+03 5.315010e+03 4.013280e+03 6.879135e+03 5.952627e+03 1.338809e+04 8.896173e+03 1.433213e+04 7.974764e+03 1.206007e+04 3.414926e+03 7.192794e+03 -3.515571e+03 7.849627e+02 -1.064698e+04 -4.758861e+03 -2.610692e+04 -2.083568e+04 -7.411209e+04 -4.114071e+04 -2.455151e+04 -1.067336e+04 
-1.841095e+04 2.369212e+04 5.608017e+03 5.190249e+03 8.658973e+04 -7.851012e+03 4.572260e+04 2.628746e+03 9.622127e+03 -1.382942e+04 4.589807e+03 -6.257090e+03 7.789704e+03 -3.047736e+03 6.645299e+03 -3.608650e+03 3.738065e+03 -5.708296e+03 2.360242e+03 -4.395525e+03 3.444771e+03 -1.186399e+03 5.073228e+03 1.189396e+03 6.586862e+03 3.582491e+03 8.859576e+03 5.354212e+03 6.957522e+03 6.013367e+03 8.197122e+03 6.772285e+03 6.964922e+03 7.601147e+03 6.365022e+03 7.292345e+03 3.863310e+03 6.863604e+03 5.198506e+03 7.355572e+03 3.627129e+03 5.568894e+03 2.145101e+03 2.945799e+03 2.342296e+03 6.899371e+03 5.918466e+03 1.872315e+04 1.223113e+04 1.890088e+04 1.307927e+04 1.798284e+04 8.936693e+03 1.620183e+04 2.646968e+03 7.764397e+03 -8.382834e+03 7.931308e+03 -1.647629e+04 -1.005347e+04 -7.141976e+04 -5.088023e+04 -9.720009e+04 2.764607e+04 
-1.569013e+04 4.722624e+04 -1.305038e+04 -2.543527e+04 3.630818e+04 -6.493755e+04 1.476545e+04 -6.100026e+03 3.885526e+03 -9.851238e+03 4.051473e+03 -4.570765e+03 5.078431e+03 -3.270261e+03 2.477044e+03 -6.361396e+03 -1.766799e+03 -1.092614e+04 7.850466e+02 -6.791577e+03 3.322859e+03 -3.420403e+03 2.258764e+03 -3.009065e+03 2.490793e+03 8.615085e+01 3.584785e+03 2.444125e+02 3.941299e+03 -1.667457e+03 4.955924e+03 9.861320e+02 3.055710e+03 1.649358e+03 2.102038e+03 -3.743086e+03 5.426681e+03 7.926539e+03 6.575828e+03 6.929584e+03 3.601456e+03 5.801305e+03 1.442475e+03 3.254976e+02 -1.896950e+02 -9.836656e+02 3.475367e+01 1.813534e+04 1.225176e+04 1.761652e+04 1.156342e+04 1.352832e+04 8.311983e+03 1.177169e+04 1.563078e+03 1.507639e+03 -1.140410e+04 -7.747666e+03 -2.200372e+04 -2.846535e+04 -8.098154e+04 -1.079914e+05 -7.337428e+04 -1.841106e+04 
-4.409919e+02 4.696707e+04 -5.306008e+03 -1.089785e+04 8.456140e+03 -1.336448e+04 -1.721997e+03 -1.015826e+04 -4.395761e+04 -6.276638e+04 -8.287034e+03 -3.883255e+03 1.169759e+04 7.907482e+02 8.127633e+03 -2.905568e+03 4.252663e+02 -1.200005e+04 -2.275913e+03 -9.203656e+03 1.130977e+03 -1.964226e+03 3.264339e+03 -4.872433e+02 4.706801e+03 2.425210e+03 6.393178e+03 4.920732e+03 5.022978e+03 4.140667e+03 7.771153e+03 3.818442e+03 7.562127e+03 4.091730e+03 -4.038329e+03 -2.237994e+02 9.120470e+02 6.091239e+03 7.548816e+03 8.103734e+03 2.639207e+03 4.588160e+03 -2.652685e+03 -5.187051e+03 -3.502022e+03 -2.502634e+03 1.326718e+02 2.870148e+04 1.564331e+04 1.770122e+04 8.829757e+03 1.041781e+04 1.703736e+03 1.357834e+04 -2.043816e+03 1.071516e+04 -5.337579e+03 5.598818e+03 -1.137099e+04 -1.608788e+04 1.816422e+04 -1.576667e+04 -7.805791e+04 -4.521423e+04 
-2.542684e+04 8.353133e+04 -6.786834e+04 -4.944356e+04 -2.897951e+04 -3.434231e+04 -6.419740e+03 -5.084834e+04 -5.967284e+04 -6.333458e+04 -9.766904e+03 -3.485457e+03 8.489242e+03 1.205060e+03 3.209501e+03 -5.485209e+03 -1.160910e+04 -2.323973e+04 -3.459864e+02 -8.245515e+03 5.112948e+03 -3.529982e+03 2.050043e+03 -4.325252e+03 2.782247e+03 -4.899363e+02 3.448473e+03 -1.647052e+03 7.270338e+03 -1.582221e+03 7.218551e+03 -9.234505e+02 9.019051e+03 3.898561e+03 6.975088e+03 5.201756e+03 4.546189e+02 3.828615e+03 6.565524e+03 8.854148e+03 2.325502e+03 7.730086e+03 2.368147e+03 -2.345253e+03 -4.003332e+03 -5.980490e+03 -2.979911e+03 1.917303e+04 1.496280e+04 1.217413e+04 9.393568e+03 1.106695e+04 9.226663e+03 1.171796e+04 -5.484753e+02 5.940887e+03 -1.289892e+04 -1.999924e+03 -1.757053e+04 -4.531993e+04 -6.035075e+04 -9.884692e+04 -9.567996e+04 -1.848464e+05 
-2.132636e+05 -4.261848e+03 -8.946778e+04 -2.748923e+03 -4.350979e+04 -3.518306e+04 -1.872542e+04 -3.742250e+04 -3.060677e+04 -1.921462e+04 1.915510e+02 7.087755e+03 1.184166e+04 7.331034e+03 1.070340e+04 2.334136e+03 -1.246876e+04 -3.702647e+04 -1.620966e+04 -1.692880e+04 1.154825e+03 1.979171e+03 5.312440e+03 8.574800e+02 6.020242e+03 1.810306e+03 4.474627e+03 7.349798e+02 4.492734e+03 -1.138415e+03 -4.490288e+03 7.802893e+02 4.718763e+03 -2.567813e+03 -9.606581e+02 1.695153e+03 -6.964934e+02 8.371591e+03 1.004319e+04 7.324280e+03 5.513347e+03 2.978816e+03 3.173162e+03 -3.042931e+01 -5.197595e+03 -3.870598e+03 2.516398e+03 1.357567e+04 1.693904e+03 -5.450245e+02 -1.110841e+03 4.674762e+03 2.335396e+03 1.007930e+04 -1.741231e+03 8.384536e+03 -7.951683e+03 1.260108e+04 -1.306793e+04 1.414074e+04 -1.074540e+05 -3.167869e+04 -1.115113e+05 -1.819050e+05 
-6.647026e+04 -2.200832e+05 -1.251586e+05 -1.105811e+05 -7.494539e+04 -5.920623e+04 -4.362980e+04 -6.593638e+04 -5.593825e+04 -5.643315e+04 -7.777659e+03 4.075237e+02 9.703260e+03 6.368669e+03 9.412918e+03 5.639182e+03 -5.652206e+04 -7.384107e+04 3.937254e+03 3.739068e+03 1.361740e+04 2.675823e+03 5.224791e+03 -9.943627e+02 4.857333e+03 3.189449e+02 4.941483e+03 -6.149775e+02 7.149739e+03 -7.484386e+03 2.313600e+03 -2.852932e+03 -1.535678e+03 -2.714105e+03 1.657949e+03 4.552837e+03 6.064421e+03 1.026467e+04 1.151647e+04 1.428089e+04 1.210272e+04 1.479592e+04 6.551070e+03 7.837131e+02 -9.187230e+03 -6.689092e+03 -4.028551e+03 4.950170e+03 -7.148206e+03 -5.287376e+03 7.856231e+03 1.598235e+04 6.033384e+03 9.613965e+03 -7.463820e+03 1.997230e+04 -6.138260e+03 1.780521e+04 2.934952e+03 2.862356e+04 6.191581e+04 3.590839e+04 4.794701e+04 -7.975487e+04 
-1.074428e+05 -2.262077e+05 -6.673460e+04 -5.904837e+04 -4.746678e+04 -2.101731e+04 -1.911481e+04 -1.865637e+04 -7.684469e+03 -1.425459e+04 -4.512577e+03 -4.687609e+03 1.136517e+04 2.119625e+04 4.192017e+04 3.341532e+04 -5.616345e+04 -1.332358e+05 -5.513718e+04 -2.411526e+04 4.192493e+03 1.263782e+04 1.575461e+04 9.653007e+03 1.088544e+04 5.259709e+03 7.550194e+03 3.255937e+03 -8.405718e+02 5.048024e+03 9.481603e+03 2.238531e+03 4.513276e+03 1.726759e+03 3.487388e+03 2.187802e+03 1.807143e+02 1.109658e+04 1.896646e+03 7.175519e+03 1.084791e+04 1.470975e+04 4.710207e+03 5.641515e+03 -7.194982e+03 -3.786482e+03 -6.803244e+03 -6.593787e+02 -9.252395e+03 -5.763935e+03 4.778240e+02 -1.555394e+03 -3.879044e+03 2.414753e+03 3.659249e+02 1.953480e+04 -8.015294e+03 2.717652e+02 -3.446990e+04 9.363764e+04 -6.586324e+04 -1.935541e+05 -4.206587e+04 -1.734647e+05 
-8.979797e+04 4.386832e+04 5.338276e+04 -7.349374e+04 -3.834047e+04 -2.725650e+04 -4.422082e+04 -4.609815e+04 -1.881374e+04 -2.848122e+04 -5.473895e+03 -1.508118e+04 -1.513683e+01 -3.933959e+03 1.574088e+04 5.743886e+03 1.758292e+03 -1.865271e+04 -3.755280e+04 -4.515890e+04 -1.913559e+04 -1.081596e+04 4.339248e+03 4.232880e+01 7.123488e+03 1.736427e+03 9.057257e+03 -2.208382e+03 4.589639e+03 7.813598e+02 6.617428e+03 5.670023e+03 1.428325e+03 3.767290e+03 5.488114e+03 8.557943e+03 5.462670e+03 9.748701e+03 7.478826e+03 7.548243e+03 4.779591e+03 -2.887025e+03 -1.212646e+03 6.106762e+03 -1.030474e+03 2.521433e+03 -5.173093e+03 -1.383221e+03 -1.301281e+04 -1.151512e+04 -4.145633e+03 4.811493e+03 8.446937e+03 2.245704e+04 -1.623769e+03 1.898552e+04 4.711540e+02 3.372016e+04 -1.932697e+04 8.346122e+04 -1.933487e+05 1.324240e+04 -9.771650e+03 -2.360060e+04 
-2.013319e+04 -1.338727e+05 5.307905e+04 1.073384e+04 8.538541e+03 -3.297871e+04 -3.243066e+04 -4.458507e+04 -2.073907e+04 -1.323055e+04 -1.164584e+03 1.154519e+03 9.202022e+03 8.605523e+03 9.134641e+03 -1.455711e+03 -4.400553e+04 -7.777031e+04 -3.523305e+04 -3.030631e+04 -7.118171e+03 -4.098330e+03 6.206192e+03 3.806363e+03 9.069029e+03 4.415024e+03 7.487209e+03 3.505072e+03 5.180542e+02 2.883158e+03 7.562202e+03 1.577749e+03 3.354508e+03 3.540438e+03 4.596925e+03 7.224628e+03 6.387699e+03 7.203779e+03 1.266257e+03 5.504702e+03 1.173498e+04 -4.279618e+03 -1.639937e+04 4.483299e+03 3.948399e+03 4.019713e+03 -5.117782e+03 -2.126122e+03 -8.514431e+03 1.057405e+02 3.004309e+02 9.732709e+03 2.260445e+01 2.022596e+04 -2.422364e+03 8.775617e+03 8.552757e+03 3.097540e+03 -1.256219e+04 -2.730906e+04 1.199663e+04 1.263418e+03 -1.554112e+05 -2.964039e+04 
-8.696553e+04 2.945403e+04 3.362350e+04 -2.037228e+04 8.135061e+04 -1.394432e+04 -1.910781e+04 -3.490067e+04 -2.623464e+03 -1.282465e+04 4.953584e+03 -7.237375e+03 7.274295e+03 -2.804954e+03 6.870896e+03 -3.483634e+03 4.948241e+03 -1.039427e+04 -5.079796e+03 -1.351751e+04 -2.584974e+03 -6.628885e+03 3.461536e+03 -1.420445e+03 5.768682e+03 1.153443e+03 7.498457e+03 2.191851e+03 6.340907e+03 4.047814e+03 5.440780e+03 4.590016e+03 5.616684e+03 7.590075e+03 8.105259e+03 9.434972e+03 6.914530e+03 6.936749e+03 5.580414e+03 8.359291e+01 1.191432e+04 7.084604e+03 -5.292629e+03 5.966337e+02 1.457339e+01 2.506683e+03 9.010546e+02 6.087555e+03 -3.929704e+02 2.385569e+03 -3.611194e+02 6.568906e+03 5.739545e+03 2.137801e+04 3.092702e+03 2.196635e+04 1.684885e+04 -6.958498e+01 9.471871e+03 6.806713e+04 -1.081441e+03 -1.376040e+04 6.474246e+04 8.824744e+04 
-7.961779e+03 -9.775038e+04 -3.268379e+04 -8.546286e+04 1.105682e+04 -4.338310e+03 -1.037176e+04 -1.542166e+04 -6.400389e+03 -3.930527e+03 2.247276e+03 -1.733304e+02 6.185612e+03 1.786593e+03 3.267464e+03 -1.091938e+04 -2.314139e+04 -3.808262e+04 -1.968810e+04 -2.254403e+04 -7.242322e+03 -8.971306e+03 8.455303e+02 -2.346901e+03 3.327220e+03 1.637785e+02 3.395881e+03 1.232866e+03 4.511145e+03 2.492561e+03 3.943728e+03 5.971396e+02 4.476398e+03 6.860130e+03 8.214260e+03 9.127247e+03 9.790413e+03 1.047363e+04 1.147942e+04 1.078631e+04 7.062094e+03 -2.460142e+03 -7.811619e+03 3.698464e+03 3.269445e+03 7.011766e+03 1.658977e+03 5.316985e+03 1.334149e+03 6.855450e+03 3.026800e+03 9.418203e+03 3.279087e+03 1.194097e+04 -6.850642e+02 4.915285e+03 1.704034e+03 -4.573765e+03 -1.572942e+03 -2.191653e+04 -1.417853e+04 -6.627487e+03 -7.351592e+04 2.746116e+03 
-7.835999e+03 -1.350023e+04 1.075594e+04 -2.054523e+04 4.026500e+04 -1.377215e+04 1.087367e+04 -1.366908e+04 1.182381e+04 -6.402819e+03 9.748165e+03 -4.106255e+03 8.955887e+03 -2.089522e+03 8.066519e+03 -1.913329e+03 5.695945e+03 -6.249609e+03 2.599757e+03 -5.642235e+03 2.476293e+03 -4.092358e+03 3.576145e+03 -1.735949e+03 4.418607e+03 3.140052e+01 5.527684e+03 2.979407e+03 7.568242e+03 4.665931e+03 3.753740e+03 1.464284e+03 6.456227e+03 1.092024e+04 1.043844e+04 1.129099e+04 9.152382e+03 1.027415e+04 5.567233e+03 6.150142e+03 3.657899e+03 6.187450e+03 5.597749e+03 8.388505e+03 3.885923e+03 5.805375e+03 2.720860e+03 7.677225e+03 2.906040e+03 7.381597e+03 2.846023e+03 9.690122e+03 5.372532e+03 1.580349e+04 5.564535e+03 1.524933e+04 7.261530e+03 1.427830e+04 4.538044e+03 2.697768e+04 3.495974e+02 6.443401e+03 1.505308e+04 5.893903e+04 
-3.803321e+04 -3.775301e+04 -3.485177e+03 9.157692e+03 -3.411199e+03 -7.546643e+03 -1.903564e+03 -4.181425e+03 6.565065e+03 -3.623346e+03 4.645899e+03 -2.475072e+03 3.888964e+03 -3.503802e+03 1.251303e+02 -1.058638e+04 -1.046722e+04 -2.065906e+04 -1.067274e+04 -1.606459e+04 -5.349254e+03 -9.231344e+03 -5.210304e+02 -4.696964e+03 1.024622e+03 -3.397843e+03 -8.054010e+01 9.691979e+02 6.962044e+03 2.197856e+03 -1.212515e+03 -7.787090e+03 9.033447e+02 1.055827e+04 1.061212e+04 1.020380e+04 9.647608e+03 1.051086e+04 9.564107e+03 1.007047e+04 7.263009e+03 7.195741e+03 3.238725e+03 6.607554e+03 3.438417e+03 7.713850e+03 4.453211e+03 8.515856e+03 4.578339e+03 8.894526e+03 4.864322e+03 9.632881e+03 4.671394e+03 9.008950e+03 2.350482e+03 4.719880e+03 9.185147e+02 1.046286e+03 -9.040879e+03 -4.539861e+03 -1.930324e+04 -1.269283e+01 -2.384488e+04 2.117679e+03 
-1.584085e+04 1.517011e+04 1.186664e+04 2.473571e+04 8.766627e+03 -2.404007e+03 1.115469e+04 -4.766235e+03 1.213237e+04 -3.704878e+03 1.036872e+04 -2.773522e+03 9.221408e+03 -1.944321e+03 8.106376e+03 -1.929255e+03 6.390092e+03 -3.598908e+03 4.824857e+03 -3.562412e+03 3.813262e+03 -3.527230e+03 3.065550e+03 -4.000603e+03 1.412782e+03 -6.568445e+03 -4.886556e+03 -6.227176e+03 2.988513e+03 -1.386136e+03 -4.629311e+03 -8.180794e+03 -1.261238e+03 1.015636e+04 1.161206e+04 1.111087e+04 9.376166e+03 1.062010e+04 8.239594e+03 9.556851e+03 6.849524e+03 8.354264e+03 5.453698e+03 7.812832e+03 3.906203e+03 7.350296e+03 4.047071e+03 8.688902e+03 4.591916e+03 9.427315e+03 4.845772e+03 1.118445e+04 5.686698e+03 1.376573e+04 5.876469e+03 1.413370e+04 4.834750e+03 1.298049e+04 2.900903e+02 5.311500e+03 4.986413e+03 1.803874e+04 9.613538e+03 1.837376e+04 
-2.198527e+04 -3.625349e+04 -1.516139e+04 -5.142595e+03 -5.285065e+03 -7.463891e+03 5.239791e+02 -4.310831e+03 4.852751e+03 -3.918293e+03 4.558981e+03 -3.836663e+03 3.167673e+03 -5.170365e+03 2.440060e+02 -8.815134e+03 -4.381297e+03 -1.280328e+04 -5.381862e+03 -1.159349e+04 -3.593762e+03 -8.749160e+03 -1.511953e+03 -7.394172e+03 -1.291222e+03 -1.225876e+04 -6.203517e+03 -1.274891e+04 -5.115736e+03 -1.331852e+04 -1.699830e+04 -1.803819e+04 -7.410794e+03 3.035955e+03 7.341134e+03 8.469138e+03 8.183244e+03 9.141644e+03 7.573858e+03 8.707247e+03 6.194736e+03 7.597496e+03 5.026738e+03 7.938059e+03 5.450889e+03 9.054265e+03 5.938453e+03 9.713159e+03 6.299506e+03 9.786598e+03 6.293594e+03 9.593392e+03 5.545848e+03 8.258384e+03 4.176004e+03 5.833601e+03 3.699668e+03 4.315627e+03 4.302449e+03 1.728464e+02 -1.283981e+04 -1.250843e+04 -1.457152e+04 -3.795110e+04 
-7.048966e+03 -1.502596e+04 -4.620201e+03 8.187387e+03 7.206539e+03 -1.001120e+03 9.743319e+03 -1.854885e+03 1.054752e+04 -2.028397e+03 9.893911e+03 -1.806906e+03 9.004395e+03 -1.542656e+03 7.968729e+03 -1.599794e+03 6.709153e+03 -2.166898e+03 5.580874e+03 -2.269308e+03 4.614062e+03 -2.387196e+03 3.988223e+03 -2.395747e+03 3.285429e+03 -5.889900e+03 -2.083531e+03 -6.103062e+03 -5.423797e+03 -1.617974e+04 -1.627768e+04 -1.479913e+04 -1.015119e+04 1.684618e+01 5.564485e+03 8.759897e+03 8.382164e+03 1.030069e+04 8.166647e+03 1.010244e+04 7.675718e+03 9.620844e+03 6.305680e+03 8.772804e+03 4.736959e+03 8.331717e+03 4.882112e+03 9.789443e+03 6.148589e+03 1.056070e+04 6.041854e+03 1.146207e+04 5.922648e+03 1.232766e+04 5.191097e+03 1.150871e+04 2.242766e+03 6.189914e+03 -3.241498e+03 9.077729e+03 5.522197e+03 7.481825e+03 3.409679e+03 -6.988891e+03 
-7.200310e+03 -5.570014e+03 1.134134e+03 -3.443201e+03 1.455518e+03 -7.617363e+03 3.237730e+03 -5.109092e+03 4.950409e+03 -4.269431e+03 4.755567e+03 -4.306688e+03 3.431142e+03 -5.264444e+03 1.294530e+03 -7.123829e+03 -1.151153e+03 -8.826792e+03 -2.156378e+03 -8.491943e+03 -1.817886e+03 -7.111300e+03 -1.010970e+03 -5.389511e+03 6.379602e+02 -4.530156e+03 -1.888279e+03 -1.357394e+03 -1.911387e+03 -8.598758e+03 -1.016387e+04 -8.867065e+03 -1.657693e+03 2.943611e+03 5.614954e+03 7.386785e+03 6.682825e+03 8.510622e+03 6.225276e+03 7.854224e+03 5.801521e+03 7.576338e+03 5.730698e+03 8.301421e+03 5.946092e+03 9.414012e+03 6.790959e+03 1.093566e+04 8.255403e+03 1.043157e+04 7.540784e+03 1.000180e+04 6.538333e+03 8.480060e+03 4.638937e+03 5.870764e+03 1.285650e+03 -1.833344e+03 -7.578232e+03 -1.219642e+03 -8.014980e+03 -4.968036e+03 -8.852044e+03 -7.055070e+03 
-3.129395e+02 7.798624e+03 6.164268e+03 8.358656e+03 7.659227e+03 -6.467958e+02 9.513038e+03 -7.403530e+02 1.000631e+04 -9.355748e+02 9.586648e+03 -9.871897e+02 8.799010e+03 -9.751684e+02 7.842919e+03 -1.052380e+03 6.796450e+03 -1.269141e+03 5.796636e+03 -1.275216e+03 4.987633e+03 -1.738839e+03 4.417574e+03 -1.360398e+03 4.989222e+03 -7.629642e+02 1.913454e+03 1.701012e+03 4.181650e+03 1.058166e+03 9.804412e+01 -8.615422e+02 1.104051e+03 4.015564e+03 6.297092e+03 8.524772e+03 8.122647e+03 1.024753e+04 7.535339e+03 1.035003e+04 8.116570e+03 9.976524e+03 6.505963e+03 8.664270e+03 4.339478e+03 8.332006e+03 5.266896e+03 1.171157e+04 8.538288e+03 1.115017e+04 6.824844e+03 1.079536e+04 5.732511e+03 1.071304e+04 4.326231e+03 1.018454e+04 -5.301299e+02 -4.887579e+02 -1.266108e+04 6.892122e+03 4.437735e+03 1.336935e+04 -4.393524e+03 2.339774e+03 
-2.670522e+03 -8.814308e+03 -8.562466e+03 -1.029164e+03 -1.519399e+03 -7.246521e+03 5.025221e+03 -4.909804e+03 6.527426e+03 -4.069710e+03 5.799881e+03 -4.097660e+03 4.276083e+03 -4.708410e+03 2.490836e+03 -5.671051e+03 8.814108e+02 -6.433979e+03 1.067502e+00 -6.203116e+03 1.966422e+02 -5.148954e+03 -6.708362e+02 -4.623678e+03 1.711448e+03 -1.637194e+03 3.051657e+03 3.026516e+02 2.393946e+03 -2.301067e+01 -1.718422e+02 -1.048337e+03 1.489847e+03 2.848607e+03 5.512257e+03 6.990751e+03 5.412410e+03 9.505481e+03 6.112272e+03 7.763715e+03 6.257798e+03 6.674114e+03 5.315426e+03 7.381380e+03 3.877976e+03 7.966901e+03 6.452550e+03 1.288362e+04 1.222812e+04 1.028726e+04 7.967337e+03 1.052266e+04 7.506040e+03 8.393256e+03 5.136036e+03 7.175569e+03 -3.736469e+02 -6.566319e+03 -1.363395e+04 2.935341e+03 -1.930677e+04 -8.304975e+03 -1.201608e+04 -3.514396e+03 
4.635499e+03 -7.342483e+03 -2.007828e+03 1.005488e+04 5.381632e+03 -6.010066e+02 9.743425e+03 -2.655070e+01 1.027077e+04 -1.503627e+02 9.628881e+03 -3.015062e+02 8.701447e+03 -4.080838e+02 7.742133e+03 -5.401175e+02 6.842033e+03 -6.957329e+02 5.727336e+03 -6.851493e+02 4.468897e+03 -1.194248e+03 5.502517e+03 -2.886601e+03 2.940270e+03 3.800092e+02 5.377991e+03 1.705106e+03 4.762179e+03 2.697834e+03 2.799406e+03 1.841387e+03 3.418080e+03 4.120367e+03 6.422584e+03 8.520208e+03 8.407450e+03 1.013933e+04 6.098849e+03 1.127084e+04 8.452487e+03 7.691017e+03 4.691041e+03 5.621077e+03 5.285176e+02 4.853350e+03 3.586318e+03 1.344478e+04 1.125054e+04 9.016396e+03 6.400474e+03 8.472153e+03 4.797658e+03 7.844152e+03 3.123797e+03 8.261164e+03 -7.645555e+02 4.158862e+03 2.033308e+03 1.959902e+04 1.036647e+04 3.287941e+04 -2.290107e+04 -1.630083e+04 
1.705196e+04 -4.158625e+04 -4.019087e+04 5.141876e+03 2.972159e+03 -6.502972e+03 1.154138e+04 -3.700906e+03 1.008424e+04 -3.196752e+03 7.515402e+03 -3.427921e+03 5.298162e+03 -3.894878e+03 3.505895e+03 -4.405633e+03 2.140268e+03 -4.577541e+03 1.015537e+03 -4.261964e+03 1.438506e+03 -4.096391e+03 1.168022e+03 -1.604935e+03 -5.412599e+01 -4.061631e+02 3.176958e+03 1.131016e+02 2.634128e+03 -3.640723e+01 1.828419e+03 3.875675e+02 2.718443e+03 1.497836e+03 4.394312e+03 1.770704e+03 -1.614763e+03 3.913549e+03 5.051943e+03 4.779142e+03 9.093414e+03 4.495120e+03 1.879596e+03 2.577714e+03 -3.401490e+03 4.800748e+02 -1.939644e+02 1.459693e+03 5.228222e+03 2.544239e+03 5.087362e+03 1.039892e+04 8.905415e+03 4.852139e+03 3.920252e+03 1.348173e+04 4.947976e+03 -2.492694e+03 -4.200743e+03 1.177058e+04 -2.945920e+04 -1.995643e+04 -3.416460e+04 8.419651e+03 
-1.299199e+04 -7.135631e+04 -4.287230e+04 1.900079e+04 9.076235e+03 -4.618695e+02 1.325145e+04 7.411068e+02 1.168679e+04 5.142844e+02 9.953321e+03 2.909503e+02 8.599122e+03 1.202616e+02 7.530842e+03 3.493440e+01 6.597178e+03 3.086995e+02 5.466227e+03 -2.514604e+02 4.627016e+03 6.267850e+02 3.508875e+03 7.598914e+02 4.476821e+03 5.893683e+02 3.886251e+03 1.456324e+03 4.074747e+03 2.557164e+03 3.805434e+03 2.799967e+03 4.489408e+03 2.851948e+03 4.585736e+03 -1.090670e+03 -1.606583e+03 5.214165e+03 -2.871842e+03 6.029858e+03 3.695577e+03 6.166826e+02 2.222813e+03 2.956089e+03 -4.627126e+02 -8.257270e+02 -3.998750e+03 -3.116834e+03 -2.472082e+03 1.725504e+03 3.141119e+03 8.665713e+02 -1.274240e+03 2.421547e+03 -4.903790e+02 5.449512e+03 -4.644167e+03 -9.878850e+03 -9.585205e+03 -1.206889e+04 -3.298571e+04 -2.619883e+04 -5.486036e+04 -3.344625e+04 
-9.240465e+03 -8.568763e+04 -7.973549e+04 2.360182e+04 6.471931e+04 -6.649112e+03 2.754891e+04 -6.672622e+02 1.440022e+04 -1.832499e+03 8.757544e+03 -2.631690e+03 5.868636e+03 -3.082518e+03 4.081335e+03 -3.324552e+03 2.825583e+03 -3.376446e+03 2.389321e+03 -3.276254e+03 2.365092e+03 -3.915413e+03 1.632002e+03 -3.498943e+03 2.184340e+03 -8.015025e+02 2.550365e+03 -2.533325e+02 2.556730e+03 1.389248e+03 2.668850e+03 1.385151e+03 1.222351e+03 1.129908e+03 3.403684e+03 1.689142e+03 2.384933e+03 3.660265e+03 5.223462e+03 5.977788e+03 -3.862925e+02 5.247637e+02 3.276886e+03 4.983688e+03 5.875447e+03 4.242510e+03 6.779052e+03 6.607017e+03 -9.126704e+03 -6.022007e+02 -3.132048e+02 -7.516011e+03 -4.853336e+03 6.099225e+03 8.443362e+03 8.729422e+03 1.145023e+04 1.978020e+04 3.901297e+03 -2.336328e+04 -7.153626e+04 -7.233944e+04 -8.651964e+04 -3.638431e+04 