# vtk DataFile Version 2.0
Comment goes here
ASCII

DATASET STRUCTURED_POINTS
FIELD FieldData 1
TIME 1 1 double
0.05500000
DIMENSIONS    256   256   1

ORIGIN    0.000   0.000   0.000
SPACING   0.0078125 0.0078125   1.000

POINT_DATA   65536
SCALARS P double
LOOKUP_TABLE default

-1.783460e+02 -4.248513e+01 -5.478993e+01 1.674166e+02 -1.516164e+02 -9.654793e-01 -1.093951e+02 6.009408e+01 1.251477e+01 1.390541e+02 -7.762505e+02 8.123075e+01 -1.385831e+02 -7.011920e+01 -1.328600e+02 -3.104992e+02 -1.274724e+02 9.456302e+01 1.329652e-01 3.702312e+02 6.307325e+02 6.159225e+02 -1.742741e+02 4.149392e+02 4.613400e+02 4.956324e+02 5.797408e+02 4.031871e+02 5.607225e+02 7.420382e+02 5.772059e+02 3.940564e+02 3.021659e+02 1.938065e+02 3.487351e+02 3.767114e+02 4.979478e+02 5.342192e+02 5.631089e+02 5.081530e+02 5.698893e+02 4.184388e+02 3.971761e+02 4.367142e+02 5.087807e+02 5.607119e+02 3.968812e+02 3.855361e+02 4.175213e+02 2.874666e+02 4.685696e+02 3.094571e+02 2.233729e+02 2.553061e+02 2.808864e+02 4.111106e+02 5.635236e+02 4.718979e+02 4.957933e+02 4.558031e+02 4.208863e+02 5.071079e+02 4.731009e+02 4.823318e+02 4.920736e+02 5.757195e+02 4.446011e+02 3.878598e+02 5.584906e+02 5.253170e+02 3.689780e+02 4.754110e+02 3.672818e+02 4.322391e+02 3.398567e+02 4.985319e+02 3.151952e+02 4.088172e+02 2.715803e+02 3.867411e+02 2.264374e+02 3.946511e+02 2.486878e+02 3.757209e+02 2.228563e+02 3.729427e+02 2.049993e+02 2.966713e+02 2.127042e+02 3.187530e+02 1.894060e+02 3.432799e+02 1.923695e+02 3.232499e+02 1.695212e+02 3.418440e+02 1.801123e+02 2.989250e+02 2.017680e+02 3.688279e+02 1.431633e+02 3.442111e+02 1.599325e+02 2.875975e+02 7.389617e+01 2.816152e+02 6.068288e+01 2.751167e+02 7.735114e+01 2.981991e+02 4.306867e+01 2.346040e+02 -1.902836e+01 3.378562e+02 -4.812621e+00 3.488728e+02 -5.284868e+00 2.092804e+02 5.526066e+00 3.117751e+02 -5.063650e+00 2.553492e+02 -1.737701e+01 2.226931e+02 -3.493502e+01 2.111311e+02 -5.870827e+01 1.961869e+02 2.822623e+02 4.718997e+01 4.042844e+02 -8.857381e+02 -9.352591e+02 -2.136734e+02 -4.818682e+01 -6.277176e+02 -6.031101e+02 -3.923624e+02 -1.646198e+03 -1.186304e+03 -1.339104e+03 -4.931687e+02 -5.699246e+02 1.018132e+01 5.794740e+01 -2.162305e+02 -8.893846e+02 -1.319104e+03 -1.576837e+03 3.687596e+02 -7.559597e+02 -1.535136e+03 2.416772e+02 -6.716654e+02 3.721361e+02 -4.710102e+02 2.132790e+02 -5.489672e+02 -2.200234e+02 -6.145474e+02 8.847355e+01 -5.992523e+02 -1.762319e+00 -1.621314e+03 1.110974e+03 -5.160961e+02 1.018887e+03 -2.970956e+02 -7.109427e+02 -6.530155e+02 9.423016e+02 1.226587e+01 3.291178e+02 7.374284e+02 1.164695e+01 4.861208e+02 8.598209e+02 -8.104354e+02 7.235566e+02 8.909667e+02 -2.157612e+03 -2.687361e+02 -8.925799e+02 -7.493316e+02 1.236999e+03 3.669602e+01 1.018682e+02 -7.524870e+02 -2.064114e+02 7.752075e+02 -3.011092e+01 3.913036e+02 -1.092044e+03 -1.686779e+03 -1.680227e+02 -1.162003e+03 -1.292567e+03 2.028245e+02 -1.098266e+01 -1.139116e+03 -2.896479e+02 -7.766874e+02 -2.507268e+02 -7.859595e+02 -8.456714e+01 7.791480e+02 -4.509603e+02 -4.931561e-01 -1.939701e+03 -2.475664e+03 1.906449e+02 1.720371e+02 1.277631e+03 1.062729e+02 -2.865471e+02 -2.717850e+02 -1.431477e+03 -1.656008e+03 -2.439298e+02 6.456540e+02 -3.892264e+02 1.862052e+01 -7.622743e+02 5.626791e+01 2.097198e+02 -8.511653e+02 -1.267858e+03 -1.338880e+03 -2.724912e+02 -7.980106e+02 -3.760532e+02 1.941883e+02 -4.700118e+02 -1.456871e+03 -1.325504e+03 -4.115115e+02 -2.862130e+02 1.539309e+02 2.117798e+01 -1.134392e+03 -1.283877e+03 -1.650321e+03 -2.155348e+03 -1.336918e+03 -2.987607e+02 -1.817845e+03 -3.974922e+03 1.234004e+02 1.367721e+03 5.390531e+02 3.096312e+02 1.635808e+02 -3.816072e+00 1.145823e+02 -1.951631e+02 1.732074e+02 
-2.084522e+02 8.636894e+01 -2.259319e+02 8.635488e+01 -1.402725e+02 7.390653e+01 -2.362862e+02 1.035237e+02 -2.732349e+02 2.984278e+02 -8.530269e+01 3.452263e+02 -7.341392e+01 -7.796745e+01 -4.298723e+02 4.477483e+02 1.316183e+02 1.103914e+02 5.264569e+01 2.383257e+02 3.210196e+02 -6.213276e+01 -3.695967e+02 1.282924e+02 2.328364e+01 2.413905e+02 2.362263e+02 3.299560e+02 4.095982e+02 4.356422e+01 4.017574e+01 5.111866e+02 -7.554276e+01 3.152075e+02 4.839607e+02 -3.429891e+00 3.146386e+02 1.936538e+02 3.972923e+02 1.588320e+02 2.750366e+02 2.283659e+02 3.607623e+02 2.947451e+02 3.330948e+02 1.364615e+02 2.089082e+02 2.521189e+02 2.580780e+02 2.200666e+02 3.123441e+02 1.989533e+02 2.714624e+02 -1.401897e+01 1.191551e+02 1.695463e+02 2.032575e+02 2.293932e+02 2.475236e+02 2.200274e+02 1.570618e+02 2.376030e+02 2.750475e+02 2.546491e+02 2.953693e+02 2.430627e+02 2.554789e+02 1.948646e+02 4.177868e+02 3.707561e+02 2.787468e+02 3.225281e+02 2.239979e+02 3.064282e+02 1.890392e+02 3.424115e+02 1.930969e+02 3.364887e+02 2.111830e+02 3.419640e+02 1.843979e+02 3.204484e+02 2.002837e+02 2.980649e+02 1.447498e+02 3.178624e+02 1.859110e+02 3.112585e+02 1.684947e+02 3.130600e+02 1.858290e+02 3.343360e+02 1.761204e+02 3.548092e+02 2.085934e+02 3.715591e+02 2.214779e+02 3.576122e+02 1.894637e+02 3.749938e+02 2.275021e+02 3.757102e+02 1.534080e+02 3.588068e+02 1.424047e+02 3.307483e+02 1.063293e+02 3.143348e+02 1.099069e+02 3.268856e+02 7.883521e+01 3.316093e+02 1.439605e+02 3.181072e+02 1.294110e+02 3.624936e+02 -3.777537e+01 3.543556e+02 2.457735e+01 3.427384e+02 -5.543812e-01 2.481455e+02 -5.232589e+01 2.574735e+02 1.816387e+01 3.201205e+02 -6.288190e+01 2.919680e+02 -1.336450e+02 6.470162e+01 -1.259859e+02 1.640907e+02 1.710494e+02 6.525593e+02 -3.327670e+01 6.177548e+01 -7.617487e+02 -2.515214e+02 2.243619e+02 -1.168194e+03 -1.379486e+02 2.407688e+02 2.318496e+02 -8.879376e+01 -1.172738e+03 -1.934078e+03 -5.792552e+02 -2.876455e+03 -1.266546e+03 -2.584334e+02 -5.147137e+02 -7.150316e+02 1.179482e+01 -8.922473e+02 5.823530e+02 -5.524052e+02 2.933637e+02 -4.024328e+02 1.629132e+02 -6.181079e+02 2.647780e+02 -2.529603e+02 3.691455e+02 -1.112512e+03 9.633044e+02 -1.193237e+03 2.117517e+02 1.062242e+02 -4.797601e+02 -1.005716e+03 -1.737470e+02 2.748355e+02 -6.437683e+00 -2.484641e+02 -2.367477e+02 -6.415210e+01 5.534128e+00 -2.084477e+02 -6.888334e+02 -6.527910e+02 -3.313346e+02 -1.699847e+02 -2.613605e+03 -2.289306e+03 1.442322e+02 -6.608075e+02 -8.791540e+02 3.297147e+02 -1.046292e+03 -7.987545e+02 -5.723908e+02 5.813670e+02 -9.459073e+02 4.356339e+02 6.267668e+02 6.285885e+02 -1.120022e+03 3.591520e+02 -1.312006e+03 3.137725e+02 -3.581592e+02 -8.825899e+02 -5.228650e+02 -1.817816e+03 -1.014349e+03 -1.270184e+03 -1.230380e+03 -8.566396e+02 -9.232335e+02 -1.423006e+03 -2.120394e+03 -6.303890e+02 -4.151692e+02 -1.120208e+03 7.016024e+02 -7.055933e+02 9.935233e+00 -1.477949e+03 -6.485136e+02 -8.965793e+02 5.401509e+02 -4.239614e+02 -1.027233e+02 -2.969248e+01 5.089382e+02 -1.027366e+03 -1.247189e+03 -7.903558e+02 -6.590537e+02 -4.393138e+02 -5.329572e+02 6.105109e+01 8.688381e+01 1.778073e+02 -3.383316e+02 7.472621e+01 1.432343e+02 4.095421e+02 -4.067418e+01 -8.106346e+02 -1.232474e+03 -1.692103e+03 -1.768826e+03 -5.818230e+02 -1.032218e+03 -1.542968e+03 -3.335409e+03 -1.028340e+03 8.477200e+02 4.976179e+02 2.739764e+02 1.157847e+02 -3.797569e+01 1.522866e+02 -3.338394e+02 9.813136e+01 
-1.046345e+02 4.843575e+01 -7.931990e+01 7.210552e+01 -3.099448e+01 6.071669e+01 -1.501962e+02 -2.056318e+02 -2.580515e+02 8.301020e+00 -1.267204e+02 -1.802363e+01 3.262085e+02 6.382657e+01 8.741029e+01 3.755545e+02 3.145276e+02 6.261198e+02 9.105947e+01 4.102105e+02 5.978176e+01 1.441115e+02 -5.471700e+01 3.056995e+02 3.288693e+02 5.938266e+02 3.150969e+02 4.683696e+02 2.944233e+02 6.410011e+02 7.524272e+02 8.084190e+02 3.429226e+02 9.100665e+01 1.867004e+02 2.502662e+02 4.438146e+02 4.217504e+02 5.867384e+02 3.979477e+02 5.734276e+02 3.764489e+02 3.493274e+02 4.639423e+02 4.610462e+02 5.133546e+02 4.451117e+02 3.361002e+02 4.658120e+02 3.409893e+02 4.304945e+02 4.110375e+02 4.665441e+02 1.666606e+02 5.060570e+02 4.101560e+02 5.062212e+02 4.221770e+02 5.131901e+02 4.473652e+02 4.759103e+02 4.892413e+02 4.868578e+02 4.086581e+02 4.943935e+02 4.774034e+02 3.593887e+02 2.703251e+02 2.936602e+02 7.242285e+02 2.653512e+02 5.181593e+02 3.000456e+02 4.693207e+02 2.732487e+02 4.725672e+02 2.679144e+02 4.328929e+02 2.546707e+02 3.900203e+02 2.437729e+02 3.774084e+02 2.499707e+02 3.507748e+02 1.407139e+02 3.350730e+02 1.873001e+02 3.453723e+02 2.056104e+02 3.544046e+02 2.014726e+02 3.329087e+02 1.985075e+02 3.401539e+02 1.613515e+02 3.136381e+02 1.662865e+02 2.844311e+02 1.522265e+02 3.682770e+02 1.299815e+02 2.969848e+02 1.304466e+02 3.431581e+02 1.026612e+02 3.783374e+02 8.485236e+01 3.443964e+02 6.129536e+01 3.208731e+02 5.248714e+01 2.967604e+02 -1.403165e+01 3.104210e+02 4.869139e+00 2.201424e+02 3.482631e+01 3.585021e+02 -2.251965e+01 3.334727e+02 -4.240536e+01 1.281213e+02 -1.368505e+02 1.586347e+02 -1.170552e+01 2.602958e+02 -6.565112e+01 1.034769e+02 -4.346401e+01 -9.971482e+01 -3.684725e+02 -5.123051e+01 -7.944911e+02 1.456702e+02 -3.775075e+02 1.877740e+02 -5.516357e+02 -2.479396e+02 9.465138e+02 -4.586470e+02 -2.464876e+01 -2.807140e+02 -6.486335e+02 -1.018175e+02 -7.307105e+02 -1.867526e+03 6.233226e+02 -1.415085e+03 5.451460e+02 -1.613678e+02 4.076124e+02 -6.086269e+01 1.294414e+02 -7.780172e+02 5.732771e+02 -4.159600e+02 3.496047e+02 -6.047715e+02 3.481565e+02 -9.937777e+02 -3.914700e+02 -7.213747e+02 7.989324e+02 -6.661520e+02 7.804074e+02 -6.559758e+02 4.650212e+02 4.145898e+02 -3.904522e+02 -1.612762e+03 4.981419e+01 2.047380e+02 4.829463e+02 -2.217716e+02 -1.085218e+02 -2.287857e+02 1.287398e+03 -7.043493e+01 9.036532e+02 -5.146415e+02 2.773686e+01 -4.778983e+02 -3.732690e+02 3.383198e+02 4.994151e+02 -5.385221e+02 -8.276380e+02 -2.741641e+02 -7.594614e+02 -6.577884e+02 -6.111913e+02 5.630216e+02 -8.324281e+02 -4.859744e+02 -4.366439e+02 -1.634649e+03 2.930755e+02 -7.452930e+02 -1.123500e+03 -3.980116e+01 -9.848487e+02 -2.816348e+02 -6.869801e+02 -9.585597e+02 -8.764426e+02 -8.508387e+02 -1.584626e+03 -8.508395e+02 -2.654231e+03 3.892925e+02 -4.064625e+02 1.536150e+01 -3.317173e+02 3.031677e+01 -2.101924e+02 -4.793197e+02 -4.564339e+02 -1.517756e+03 -1.480628e+03 -5.003622e+02 -2.942566e+02 1.308417e+01 -1.174295e+02 7.617990e+01 6.887138e+01 -8.842530e+02 -3.927843e+02 -6.362684e+02 -3.115224e+02 -5.568351e+01 -2.974064e+02 -6.211264e+02 -1.722655e+02 -4.442874e+02 -8.061947e+02 -5.167177e+02 -2.974399e+02 -1.786235e+02 -3.774267e+02 -1.745858e+02 -3.221441e+02 -1.362556e+03 -6.902747e+02 3.625314e+02 6.890197e+01 -2.271680e+03 -5.935394e+03 -2.671261e+03 -2.758601e+02 -3.859514e+02 2.362062e+01 -4.527872e+01 6.895464e+01 3.175792e+01 -3.233076e+02 2.297072e+02 
-1.634990e+02 4.380304e+01 -1.395667e+02 1.185252e+02 1.309625e+00 2.366636e+02 1.856183e+01 1.006789e+02 -2.328529e+02 1.984606e+02 -1.916079e+02 2.421732e+02 -6.750206e+02 -1.800602e+02 -5.651694e+02 1.822838e+02 -2.125379e+02 3.013975e+02 -2.015092e+02 2.354886e+02 9.292172e+01 -6.989791e+01 -2.572480e+01 1.883502e+02 1.771870e+02 4.620355e+02 1.347039e+02 2.214754e+02 3.880669e+02 4.996041e+02 3.314598e+02 2.454477e+02 4.363138e+02 2.476587e+02 2.599425e+02 3.310895e+02 3.075146e+02 2.137371e+02 3.046326e+02 2.615208e+02 4.533912e+02 4.454975e+01 1.857449e+02 8.511072e+01 3.799815e+02 1.136193e+02 -7.105347e+01 3.443235e+00 3.998414e+02 1.500026e+02 2.230157e+02 6.924419e+01 -5.695516e+01 -6.128329e+01 8.965551e+01 1.670743e+02 2.344186e+02 2.211562e+02 2.835094e+02 2.117226e+02 4.393869e+00 2.596315e+02 1.324319e+02 1.587639e+02 1.347763e+02 7.989314e+01 2.181845e+02 -5.117341e+02 -2.455807e+02 4.575105e+02 1.443358e+00 3.109942e+02 1.583975e+02 3.333676e+02 9.587251e+01 3.574969e+02 1.108381e+02 3.209710e+02 2.058978e+02 3.471664e+02 1.721906e+02 3.421702e+02 2.059355e+02 3.113125e+02 1.516132e+02 3.388012e+02 1.701733e+02 3.170654e+02 1.848454e+02 3.428690e+02 1.678245e+02 3.373782e+02 2.039788e+02 3.549061e+02 1.986221e+02 3.691391e+02 2.122044e+02 3.191696e+02 1.776337e+02 4.420124e+02 2.334445e+02 3.573737e+02 1.478919e+02 3.291695e+02 1.843089e+02 3.330686e+02 8.685620e+01 3.852701e+02 1.125742e+02 3.444575e+02 1.028289e+02 3.766623e+02 8.719876e+01 4.012219e+02 3.230479e+01 3.807663e+02 6.730874e+01 3.987106e+02 6.798809e+01 4.304290e+02 -5.383256e+01 1.817302e+02 -6.051616e+01 2.554075e+02 3.875408e+01 2.649190e+02 -1.185609e+02 2.414096e+02 -1.629344e+02 1.949542e+02 -1.192857e+02 3.673919e+02 -4.662805e+01 4.345980e+02 -3.001017e+02 -1.762250e+01 2.628862e+02 3.881961e+01 3.477755e+01 -2.655093e+02 8.121741e+01 2.572576e+02 -3.365033e+02 -1.554720e+02 -1.321642e+03 -2.924357e+02 8.415110e+02 -5.932259e+02 3.770064e+02 -2.685415e+02 4.283279e+02 -1.117569e+03 4.381402e+02 -3.528113e+02 3.754201e+02 -6.026619e+02 3.209960e+02 -3.964421e+02 7.403484e+02 -6.964396e+02 1.136254e+02 -7.833754e+02 5.806849e+02 -5.296274e+02 4.596905e+02 -3.843887e+02 8.840030e+02 -2.874619e+02 2.316673e+02 -6.054353e+02 -1.748661e+02 2.064391e+02 3.035689e+02 -2.099873e+02 4.448379e+02 -9.977276e+02 1.599620e+03 -1.120990e+03 2.619524e+02 -9.554113e+02 1.034971e+03 -7.345486e+01 -5.291966e+02 -8.667597e+02 1.135180e+03 -4.481594e+02 -1.377380e+03 8.148502e+02 -1.130204e+03 2.911127e+02 -3.452098e+02 7.394000e+02 6.593753e+02 6.707735e+02 -1.478447e+03 7.390088e+01 7.415246e+01 6.683523e+02 -8.226225e+02 8.362564e+02 -8.874020e+02 -4.470885e+02 -1.163041e+03 -5.494838e+02 -1.790704e+03 -1.444958e+02 -1.421950e+03 -2.123975e+02 -1.198095e+03 7.777364e+02 -1.163892e+03 -2.851813e+03 -9.775579e+02 -1.073678e+03 -1.421990e+02 -4.608072e+02 -3.883636e+01 -1.727282e+03 -8.712126e+02 -3.782964e+02 4.258111e+02 -1.962535e+02 -4.687417e+02 1.971852e+02 7.212847e+02 -1.004495e+03 -1.134241e+03 -1.673273e+02 -1.213862e+03 -1.474727e+03 -8.077201e+02 -1.616587e+02 2.215996e+02 2.416039e+02 -1.447934e+02 4.759576e+01 1.575746e+02 3.981035e+01 -2.782856e+02 -7.495240e+02 -1.034071e+03 -1.602620e+03 -2.036882e+03 -6.428474e+02 1.703295e+02 -3.193947e+02 -8.784806e+02 -7.507438e+01 -1.334332e+02 8.282956e+01 3.858489e+01 2.377483e+02 -4.362933e+01 1.911333e+02 -2.301842e+02 3.225555e+02 
-3.025967e+02 2.178843e+01 -1.072578e+02 2.233725e+01 -1.532930e+02 8.776216e+01 -1.727500e+02 6.824621e+01 -1.811941e+02 -2.260060e+02 -1.243189e+02 1.068781e+02 1.654299e+02 -4.740683e+02 -4.910688e+02 2.447959e+02 1.070600e+02 3.693419e+02 7.712078e+01 3.972369e+02 8.064823e+01 2.587429e+02 2.363660e+02 4.236450e+02 3.997178e+02 6.530763e+02 3.859083e+02 3.970766e+02 3.102772e+02 5.456321e+02 2.340313e+02 6.401671e+02 5.166725e+02 4.623460e+02 4.156853e+02 2.403574e+02 3.785073e+02 3.012388e+02 3.774017e+02 3.889293e+02 5.714784e+02 3.531492e+02 6.269363e+02 4.020096e+02 3.984130e+02 8.338299e+01 2.406036e+02 2.111759e+01 2.270547e+02 3.623983e+02 3.931727e+02 4.336107e+02 3.070328e+02 2.196185e+02 2.044094e+02 1.437943e+02 4.530057e+02 1.592678e+02 4.698559e+02 4.243184e+02 3.254148e+02 5.355608e+02 3.683712e+02 4.828671e+02 3.047917e+02 4.070550e+02 3.393207e+02 2.747235e+02 -4.906498e+02 3.543217e+02 1.259075e+00 3.164080e+02 1.680181e+02 4.168117e+02 2.024269e+02 4.255279e+02 2.009039e+02 3.971924e+02 2.408577e+02 3.267530e+02 2.385448e+02 3.531796e+02 2.101570e+02 3.690014e+02 1.932990e+02 3.583945e+02 1.671359e+02 3.587375e+02 2.091409e+02 3.669095e+02 1.904292e+02 3.671117e+02 1.813263e+02 3.500440e+02 1.379031e+02 3.036583e+02 1.569288e+02 2.852698e+02 1.445078e+02 4.119433e+02 2.210339e+02 3.122455e+02 7.404888e+01 2.764617e+02 8.297317e+01 3.175648e+02 -1.218872e+01 3.376397e+02 6.731790e+00 3.128086e+02 1.495377e+01 2.937990e+02 -2.156309e+00 3.209204e+02 6.474974e+00 3.270967e+02 5.840451e+01 3.724252e+02 -1.833912e+01 3.567121e+02 -5.161091e+01 1.148620e+02 -2.491275e+02 2.087028e+02 -1.983602e+01 1.601170e+02 -1.196523e+02 2.081785e+02 -1.759918e+02 2.504265e+01 -2.816231e+02 -7.140757e+01 -8.318644e+02 5.254856e+02 -1.432060e+03 5.993416e+01 -1.504294e+03 5.060724e+02 -4.793625e+02 6.768476e+01 -1.073690e+03 -2.604522e+02 -1.392314e+03 -1.260759e+03 2.785494e+02 -5.954256e+02 8.219930e+02 -9.821161e+02 1.497568e+02 -3.597610e+02 3.990838e+02 -1.946493e+02 3.185330e+02 -7.529540e+02 4.141425e+02 -6.443974e+02 4.706305e+02 -5.395708e+02 -2.358922e+01 -5.433108e+02 6.693809e+02 -2.820173e+02 4.301495e+02 -9.065894e+02 -2.178893e+02 -6.101884e+02 7.280167e+02 -3.895284e+02 7.760074e+02 -1.430663e+02 3.210623e+02 -7.845651e+02 1.013321e+03 -5.636012e+02 4.975963e+01 -1.244524e+03 2.344638e+02 -7.361031e+02 -7.693680e+02 -1.710609e+03 -8.631615e+02 -1.500972e+03 5.451634e+02 -8.607381e+02 9.502847e+02 -3.632610e+02 -1.551833e+02 4.613637e+02 -9.284257e+02 -1.466662e+02 -5.647122e+02 7.030331e+02 -1.447657e+03 -2.332755e+03 1.087934e+02 -4.062000e+02 9.911078e+02 7.192725e+02 -6.915421e+02 -7.043435e+01 -7.617688e+02 -4.671268e+02 -1.452338e+03 -7.361256e+02 -1.215867e+03 -1.709051e+03 -7.349375e+02 5.499290e+02 -7.176968e+02 1.243840e+03 -1.516984e+03 5.145882e+01 1.331202e+03 2.733180e+02 6.280682e+02 -3.774367e+02 -9.066257e+02 5.375727e+02 -1.167710e+00 7.482909e+02 3.104979e+01 3.070712e+02 -1.052948e+03 5.561939e+02 1.683175e+02 -8.784310e+02 -5.045418e+02 -7.641410e+02 -9.583089e+02 -1.006144e+03 -6.170847e+02 -2.421189e+02 -9.128677e+02 -6.283079e+02 -5.179123e+02 -6.494721e+02 -3.991471e+02 -4.302532e+02 -3.861898e+02 -4.687905e+02 -6.420285e+02 -6.308639e+02 -4.439699e+02 -4.214613e+02 -6.575571e+02 -1.202562e+03 -2.539427e+03 -1.152701e+03 -7.023699e+02 -2.886799e+02 -3.147855e+02 -1.878015e+02 -2.496474e+02 -2.483204e+02 -4.978476e+02 -1.501868e+01 
-2.150272e+02 2.447179e+02 -1.462428e+02 1.043344e+02 -1.938760e+02 2.147495e+02 -1.201365e+02 1.307229e+02 -2.909976e+02 -2.829092e+01 -1.830365e+02 3.033354e+02 5.417219e+02 5.074864e+02 -2.691993e+02 6.654992e+02 1.603160e+02 2.923174e+02 -1.604294e+02 1.736816e+02 1.649871e+02 2.758218e+02 2.290600e+02 3.195237e+02 2.024722e+02 3.175412e+02 2.467965e+02 2.036320e+02 2.800069e+02 4.287121e+02 4.841476e+02 5.861512e+02 1.934448e+02 2.885515e+02 1.823651e+02 3.934549e+02 4.305501e+02 1.994058e+02 1.778635e+02 3.502277e+02 2.338956e+02 1.695123e+02 3.400452e+02 9.091532e+01 -3.651476e+01 3.416132e+01 5.172606e+02 -4.966845e+01 6.000984e+01 1.187716e+02 5.176887e+01 3.165781e+02 1.501090e+02 3.085706e+02 2.654209e+02 1.806763e+02 4.275138e+02 2.578677e+02 5.616073e+00 3.104076e+02 2.485154e+02 3.263042e+02 2.428127e+02 2.597566e+02 2.430709e+02 4.458034e+02 3.473513e+02 -2.490538e+02 -1.175292e+02 -2.055280e+02 1.084093e+01 2.297990e+02 9.972962e+01 4.197150e+02 1.096395e+02 3.466391e+02 1.325203e+02 3.694958e+02 1.004476e+02 3.395229e+02 1.925303e+02 3.254105e+02 1.658213e+02 3.290371e+02 1.840594e+02 2.970295e+02 1.501918e+02 3.521177e+02 1.922454e+02 3.564499e+02 2.051189e+02 3.601709e+02 1.935380e+02 3.782670e+02 1.642047e+02 3.254459e+02 1.623999e+02 2.505993e+02 -2.297095e+00 2.924634e+02 -4.825883e+01 2.492221e+02 -1.223278e+01 3.235484e+02 8.356800e+01 4.005818e+02 1.301307e+02 3.885671e+02 1.201203e+02 3.519207e+02 1.188295e+02 3.901624e+02 9.046850e+01 4.131108e+02 6.140872e+01 3.802661e+02 1.171154e+02 4.106955e+02 8.666233e+01 3.953418e+02 5.462980e+01 2.983156e+02 -3.361472e+01 3.098040e+02 -9.683300e+00 2.818369e+02 -6.107285e+01 3.499185e+02 -8.548823e+01 3.748475e+02 2.918164e+01 5.957367e+02 -1.475086e+02 7.236334e+02 -1.914064e+02 1.805635e+01 4.686603e+01 -1.199109e+02 -2.888462e+02 2.360876e+01 -4.558826e+02 -8.964444e+02 -1.334112e+03 -1.779435e+02 -7.537821e+01 -3.622608e+02 -3.806949e+02 -1.101209e+02 3.534224e+02 -2.864781e+02 9.011378e+02 -1.510756e+03 9.007638e+02 -7.842961e+02 3.730450e+02 -2.626274e+02 5.908589e+02 -5.571692e+02 1.288750e+02 -6.770621e+02 5.570032e+02 -4.691437e+02 6.717348e+02 -1.214770e+03 1.028234e+03 -1.248234e+03 1.057704e+03 -7.293004e+02 -8.053842e+01 -1.125752e+03 -8.547662e+02 1.931802e+01 9.383790e+02 -3.504923e+02 -4.041751e+02 -1.210951e+02 -2.410071e+02 5.949697e+02 -3.847085e+02 1.248729e+03 -7.125667e+02 -4.252442e+02 -3.673121e+02 -1.488624e+03 9.675357e+02 -1.787375e+03 -1.223106e+03 1.429017e+03 -3.415750e+02 1.812965e+02 -1.535871e+03 7.090411e+02 -3.803257e+03 -1.198201e+03 -1.507406e+03 5.336746e+01 9.504924e+02 1.912284e+02 -1.254742e+03 2.101209e+03 -1.312826e+03 -2.109357e+03 -8.723409e+02 -8.077763e+02 -1.537046e+03 -7.410345e+01 -2.427496e+03 1.959267e+02 -2.399924e+03 -7.607266e+02 -1.708521e+03 2.193055e+02 -9.248667e+02 -7.438695e+02 -1.425092e+02 -7.077157e+02 -7.419071e+02 2.499187e+02 -3.478309e+02 1.592403e+02 -4.063821e+02 9.288536e+02 -6.204564e+02 7.544692e+02 -1.943295e+03 -2.533963e+03 -7.284097e+02 5.534614e+01 -1.181662e+03 -1.104949e+03 -6.356113e+02 -3.169376e+02 -4.376190e+02 -6.848586e+02 -4.549759e+02 -3.933561e+02 -1.198453e+02 -2.650213e+02 -3.125948e+02 -7.567471e+02 -7.585541e+02 -9.071120e+02 -9.134205e+02 -4.399676e+02 -3.021907e+02 -8.065525e+01 -4.453755e+02 1.960608e+02 -2.397412e+02 9.481625e+01 -1.526519e+02 -6.512241e+01 -3.506939e+02 -2.034354e+02 -4.583686e+02 -7.988835e+00 
-4.417202e+02 8.044488e+01 -2.419555e+02 -1.555387e+01 -1.267522e+02 7.739243e+01 -2.163731e+02 -1.830591e+02 -1.359705e+02 -3.677714e+02 -5.079553e+02 -9.101286e+01 -2.211277e+02 -1.000153e+02 -1.699207e+02 1.569816e+02 3.216321e+01 2.820649e+02 1.219232e+02 3.384259e+02 2.046291e+02 3.533725e+02 1.615115e+02 4.695251e+02 2.877011e+02 5.021637e+02 2.962983e+02 2.276147e+02 3.566048e+02 1.931078e+02 3.843562e+02 1.549538e+02 5.475286e+01 2.678090e+02 3.446921e+02 3.361589e+02 3.224824e+02 3.729723e+02 2.461875e+02 1.012648e+02 5.788000e+02 1.840127e+02 6.041954e+02 2.927013e+02 4.125412e+02 5.349984e+02 2.213480e+02 3.644887e+02 5.907223e+02 2.352663e+02 2.604033e+02 4.997916e+02 3.533278e+02 2.942925e+02 4.680174e+02 1.659301e+01 2.991176e+02 4.198341e+02 3.010816e+02 2.291851e+02 3.356842e+02 3.815848e+02 3.232885e+02 3.384269e+02 3.761260e+02 -2.343515e+02 4.846886e+01 1.545896e+02 -5.265487e+02 -4.123249e+00 6.634840e+01 3.482334e+02 1.575338e+02 4.169808e+02 2.431102e+02 3.977440e+02 2.233965e+02 3.889410e+02 2.435623e+02 4.350376e+02 1.932396e+02 3.672009e+02 2.283124e+02 3.819458e+02 1.947315e+02 3.257498e+02 1.458105e+02 3.449819e+02 2.030993e+02 3.777864e+02 1.956972e+02 3.644672e+02 1.843032e+02 3.450338e+02 1.402104e+02 2.856118e+02 1.392513e+02 3.803771e+02 1.054731e+02 2.659128e+02 -4.328507e+01 2.609915e+02 -7.498780e+01 2.350807e+02 2.894154e+01 3.054175e+02 2.525356e+01 3.212061e+02 4.236291e+01 3.136016e+02 2.306256e+01 3.044265e+02 -1.945288e+01 3.299187e+02 1.897915e+00 3.305718e+02 -7.276966e+01 3.038765e+02 -7.873991e+01 2.649039e+02 -1.856211e+01 2.184765e+02 -1.738717e+02 2.063227e+02 -7.933271e+01 1.707345e+02 -5.734922e+00 2.277300e+02 -1.491415e+02 2.016166e+02 -3.299224e+02 1.810230e+02 -5.737805e+02 -5.584272e+01 -6.097170e+02 3.574448e+02 -1.449224e+01 6.642374e+02 -9.977296e+01 6.515582e+02 2.600294e+02 9.347809e+02 -4.150545e+00 5.271669e+02 8.500342e+01 -6.401159e+02 5.044626e+01 -2.005299e+03 3.911389e+02 -7.699376e+02 -4.309560e+02 -5.461733e+02 8.973548e+02 -1.082345e+03 3.286353e+02 -3.086675e+02 9.715353e+00 -7.972181e+02 1.940340e+02 -6.656875e+02 4.496428e+02 -4.059186e+02 5.566141e+02 -1.139390e+03 5.072673e+02 -6.726973e+02 1.048846e+03 -1.497669e+03 1.210269e+02 -4.115311e+02 2.199371e+01 1.470390e+02 4.879328e+02 1.091923e+02 6.948195e+01 1.043407e+02 6.890701e+02 -4.844457e+02 -5.952200e+00 9.906131e+01 -4.947813e+02 4.977211e+02 7.106430e+02 -9.352105e+02 2.903397e+02 -2.602263e+03 -4.846531e+03 8.178898e+02 -2.117155e+03 -1.262504e+02 -9.477637e+02 9.723171e+02 -7.291987e+02 -1.244623e+03 -7.972400e+01 -6.257572e+02 -8.019571e+02 1.117911e+03 -1.042655e+03 1.664100e+02 -3.191332e+03 -6.206271e+02 -5.985986e+01 2.104767e+02 -4.212810e+02 -1.660255e+03 -1.681444e+03 7.546020e+01 -6.019971e+02 -5.310848e+01 -9.183649e+02 2.451074e+02 -1.254820e+03 -1.546398e+02 6.850955e+02 4.455480e+02 -2.279905e+01 5.447708e+02 -5.329022e+01 5.540222e+02 -4.273726e+02 4.566894e+02 -1.709470e+03 1.802985e+03 -3.408181e+03 -4.791649e+03 -1.831294e+03 -1.391275e+03 -1.112560e+03 -1.475419e+03 -5.433071e+02 -9.480262e+02 -4.835756e+02 -7.398845e+02 -3.002477e+02 -4.590747e+02 -2.451104e+02 -4.458927e+02 -2.676460e+02 -4.672323e+02 -3.284567e+02 -4.740461e+02 -5.980349e+02 -5.047398e+02 -8.073637e+02 -7.673476e+02 -1.341972e+03 -7.269544e+02 -7.610228e+02 -3.642735e+02 -3.876399e+02 -2.110923e+02 -4.548606e+02 -3.736163e+02 -4.824414e+02 -1.593627e+02 
-1.451622e+02 2.209503e+02 -1.305089e+02 1.581717e+02 -2.720624e+02 2.183702e+02 -1.543485e+02 2.401107e+02 1.553383e+02 6.250232e+01 -7.687893e+01 2.796935e+02 2.461429e+02 5.683993e+02 5.774341e+01 4.851372e+02 1.224989e+02 3.501383e+02 1.164738e+02 2.949072e+02 2.900947e+02 3.248772e+02 3.022169e+02 3.508347e+02 3.284587e+02 2.057493e+02 4.855009e+02 2.038922e+02 7.507463e+01 -2.245239e+02 1.483115e+01 -1.965277e+02 3.591909e+02 2.648694e+02 2.552517e+02 4.674149e+02 5.187742e+02 3.440679e+02 5.071389e+02 1.702656e+02 4.182039e+02 2.477367e+02 4.498521e+02 1.498532e+02 8.547946e+01 2.343064e+02 3.934194e+02 3.373311e+02 3.031724e+01 2.901639e+02 1.090164e+02 2.015199e+02 1.463063e+02 1.086355e+02 3.619399e+02 1.242937e+02 -7.500184e+01 3.178011e+02 6.269636e+01 3.353118e+02 1.614257e+02 2.979918e+02 1.065595e+02 5.678065e+01 -9.478791e+01 -1.181019e+02 -5.433452e+02 -1.279351e+03 -1.275055e+02 4.696447e+02 -7.825148e+01 3.005657e+02 -1.667877e+01 4.062205e+02 -5.254982e+01 2.040351e+02 3.393917e+01 3.498927e+02 1.129600e+02 3.549685e+02 1.512093e+02 2.666459e+02 1.323978e+02 3.378087e+02 1.610518e+02 3.206973e+02 1.372005e+02 3.621858e+02 1.916831e+02 3.767187e+02 2.071515e+02 4.101622e+02 2.508772e+02 3.507905e+02 1.279313e+02 2.980324e+02 1.643901e+02 3.396045e+02 1.878490e+02 4.472594e+02 2.168713e+02 2.990531e+02 1.364678e+02 3.701820e+02 4.511178e+01 3.445201e+02 8.677435e+01 3.563531e+02 1.038512e+02 3.974496e+02 9.037652e+01 3.848802e+02 8.250328e+01 4.273303e+02 6.426828e+01 3.905300e+02 1.011784e+02 3.885203e+02 9.342193e+01 3.896360e+02 4.394855e+01 3.002541e+02 -3.833716e+01 3.205085e+02 1.841884e+01 3.775204e+02 -1.938322e+01 2.754997e+02 -1.150173e+02 4.291552e+02 -1.140369e+02 4.106361e+02 -3.618076e+02 -4.582615e+02 -4.267821e+02 3.494383e+02 -3.911796e+02 -9.331477e+02 -3.446603e+02 -4.693196e+02 3.875274e+02 -3.481543e+01 -1.980510e+03 3.099268e+02 2.059718e+02 -3.759419e+02 9.029288e+02 6.638040e+01 -4.454912e+02 -6.655341e+02 7.451888e+02 -5.536298e+02 6.855548e+02 -4.291307e+02 2.864835e+02 -1.588417e+02 2.676154e+02 8.627126e+01 4.278153e+02 -3.731783e+02 5.866680e+02 -2.169877e+02 2.592286e+02 -6.986591e+02 -7.061436e+01 -8.611730e+02 2.247053e+02 -1.111039e+03 3.601075e+02 -5.459969e+02 2.501113e+02 -8.303451e+02 1.029969e+03 2.657858e+02 6.027404e+02 -1.018979e+03 5.665732e+01 -5.027450e+02 2.550460e+02 -1.352409e+02 -6.239901e+02 -1.139173e+03 8.700186e+02 -3.668147e+02 6.127280e+02 -3.294856e+03 -1.173983e+03 1.431434e+02 -7.109078e+02 2.033987e+02 -2.057347e+03 8.076041e+02 -1.113033e+03 1.395473e+02 -4.537287e+01 -1.404762e+02 -1.691176e+03 -2.407462e+03 -1.940424e+03 -2.838523e+03 -1.929927e+03 -1.397078e+01 -1.226102e+03 -7.781688e+02 -1.122644e+03 -1.141835e+03 -1.351881e+03 -1.520369e+02 -1.825339e+03 -5.686005e+02 -4.519392e+02 -1.162195e+03 -1.258341e+03 -3.909850e+02 -9.193863e+02 -3.818147e+02 -7.378963e+02 -1.006373e+02 -1.846358e+02 2.804424e+02 -2.476632e+02 7.823712e+02 -1.877386e+03 2.061956e+02 -5.519596e+03 -3.449393e+03 -1.877249e+03 -1.485364e+03 -1.714386e+03 -1.373586e+03 -2.257286e+02 -4.561967e+02 -3.623593e+02 -6.532376e+02 -5.702357e+02 -4.370436e+02 -1.049830e+02 -3.498640e+02 -2.802213e+02 -5.446208e+02 -5.973937e+02 -6.027134e+02 -6.945825e+02 -3.134329e+02 -3.213211e+02 -2.104974e+02 -3.013453e+02 -1.597454e+01 -2.395807e+02 1.216595e+02 -2.304887e+02 3.753811e+01 -1.424410e+02 -2.427833e+01 -1.787321e+02 -5.060840e+01 