# vtk DataFile Version 2.0
Comment goes here
ASCII

DATASET STRUCTURED_POINTS
FIELD FieldData 1
TIME 1 1 double
0.06000000
DIMENSIONS    256   32   1

ORIGIN    0.000   0.000   0.000
SPACING   0.0078125 0.0078125   1.000

POINT_DATA   8192
SCALARS P double
LOOKUP_TABLE default

-1.696365e+00 -1.679809e+00 -1.684899e+00 -1.658030e+00 -1.660138e+00 -1.619380e+00 -1.606022e+00 -1.497479e+00 -1.531941e+00 -1.379945e+00 -1.462212e+00 -1.304979e+00 -1.375233e+00 -1.270819e+00 -1.344315e+00 -1.106295e+00 -1.343447e+00 -9.906272e-01 -1.197300e+00 -9.403509e-01 -8.636186e-01 -8.224527e-01 -7.434599e-01 -5.538932e-01 -7.308492e-01 -3.730970e-01 -6.188499e-01 -3.476839e-01 -4.219499e-01 -3.811682e-01 -2.351776e-01 -3.378133e-01 -1.664932e-01 -1.958377e-01 -1.865261e-01 -3.289648e-02 -1.701180e-01 4.593870e-02 -6.311394e-02 2.587791e-02 8.107888e-02 1.931917e-02 1.688537e-01 9.117806e-02 1.562032e-01 2.081886e-01 1.401859e-01 2.985747e-01 1.875575e-01 3.044004e-01 2.919320e-01 2.883270e-01 3.862426e-01 3.194133e-01 4.056388e-01 4.056438e-01 3.925747e-01 4.905399e-01 4.080401e-01 5.178890e-01 4.686708e-01 5.020821e-01 5.361938e-01 4.979928e-01 5.596697e-01 5.323208e-01 5.458192e-01 5.858808e-01 5.338285e-01 6.168648e-01 5.579695e-01 6.074154e-01 6.037178e-01 5.947152e-01 6.329496e-01 6.050893e-01 6.219276e-01 6.313570e-01 5.967149e-01 6.437572e-01 5.825115e-01 6.200926e-01 5.840029e-01 5.778032e-01 5.814973e-01 5.444927e-01 5.542991e-01 5.353453e-01 5.105337e-01 5.358576e-01 4.788595e-01 5.233364e-01 4.771558e-01 4.950727e-01 4.912380e-01 4.760480e-01 4.925172e-01 4.804298e-01 4.793144e-01 4.955511e-01 4.666944e-01 5.016621e-01 4.675837e-01 4.893126e-01 4.734206e-01 4.716989e-01 4.687231e-01 4.580159e-01 4.460909e-01 4.458574e-01 4.144859e-01 4.254390e-01 3.831781e-01 3.899710e-01 3.552455e-01 3.446459e-01 3.244256e-01 3.000342e-01 2.828788e-01 2.639164e-01 2.311312e-01 2.315958e-01 1.819433e-01 1.926767e-01 1.460053e-01 1.428431e-01 1.191357e-01 9.592312e-02 8.798441e-02 6.297862e-02 4.523614e-02 4.293372e-02 4.748358e-03 2.101096e-02 -2.179853e-02 -1.168791e-02 -3.592540e-02 -4.539578e-02 -5.090524e-02 -6.867674e-02 -7.619429e-02 -8.052203e-02 -1.049192e-01 -9.241310e-02 -1.268112e-01 -1.131845e-01 -1.391174e-01 -1.396841e-01 -1.512579e-01 -1.624264e-01 -1.710106e-01 -1.777429e-01 -1.974102e-01 -1.927385e-01 -2.217408e-01 -2.139730e-01 -2.402653e-01 -2.417157e-01 -2.584771e-01 -2.685508e-01 -2.830550e-01 -2.912357e-01 -3.120493e-01 -3.128240e-01 -3.398501e-01 -3.383502e-01 -3.636035e-01 -3.677176e-01 -3.866263e-01 -3.962606e-01 -4.129250e-01 -4.215801e-01 -4.427187e-01 -4.456613e-01 -4.718410e-01 -4.725479e-01 -4.980160e-01 -5.028515e-01 -5.227671e-01 -5.330240e-01 -5.504973e-01 -5.607007e-01 -5.818427e-01 -5.871223e-01 -6.136865e-01 -6.165594e-01 -6.431926e-01 -6.496183e-01 -6.713137e-01 -6.838621e-01 -7.021498e-01 -7.161097e-01 -7.377180e-01 -7.472869e-01 -7.741706e-01 -7.796338e-01 -8.079292e-01 -8.149359e-01 -8.385060e-01 -8.509245e-01 -8.692165e-01 -8.840817e-01 -9.024487e-01 -9.140269e-01 -9.372805e-01 -9.432112e-01 -9.700703e-01 -9.751303e-01 -9.996315e-01 -1.009414e+00 -1.027994e+00 -1.042608e+00 -1.059364e+00 -1.073055e+00 -1.093881e+00 -1.102160e+00 -1.128369e+00 -1.133902e+00 -1.159845e+00 -1.168543e+00 -1.188906e+00 -1.203303e+00 -1.219493e+00 -1.234664e+00 -1.252694e+00 -1.263248e+00 -1.286483e+00 -1.292800e+00 -1.317932e+00 -1.325254e+00 -1.347376e+00 -1.359878e+00 -1.376790e+00 -1.392833e+00 -1.408895e+00 -1.422781e+00 -1.443178e+00 -1.451725e+00 -1.477023e+00 -1.483705e+00 -1.507985e+00 -1.518559e+00 -1.536739e+00 -1.552235e+00 -1.567495e+00 -1.582561e+00 -1.601038e+00 -1.610113e+00 -1.634078e+00 -1.639392e+00 -1.666736e+00 -1.671244e+00 -1.686487e+00 -1.684354e+00 -1.695909e+00 -1.687585e+00 
-2.101746e+00 -2.207959e+00 -2.098120e+00 -2.202395e+00 -2.080635e+00 -2.182066e+00 -2.018626e+00 -2.069911e+00 -1.935243e+00 -1.965756e+00 -1.840140e+00 -1.902839e+00 -1.659656e+00 -1.936015e+00 -1.520324e+00 -1.489185e+00 -1.296363e+00 -1.163020e+00 -8.905365e-01 -9.143235e-01 -3.184239e-01 -4.575997e-01 -1.971738e-01 -4.302329e-02 -1.938697e-01 1.850443e-01 -1.152604e-01 2.222776e-01 6.644434e-02 1.791959e-01 2.430772e-01 2.090941e-01 2.971763e-01 3.503530e-01 2.536858e-01 5.139992e-01 2.493726e-01 5.869533e-01 3.493661e-01 5.481011e-01 4.926027e-01 5.231333e-01 5.760537e-01 5.860644e-01 5.468949e-01 7.001178e-01 5.152658e-01 7.864902e-01 5.533535e-01 7.781248e-01 6.566823e-01 7.457658e-01 7.487424e-01 7.644502e-01 7.565409e-01 8.459669e-01 7.297328e-01 9.249600e-01 7.343121e-01 9.410088e-01 7.900217e-01 9.101288e-01 8.544624e-01 8.933001e-01 8.659869e-01 9.186413e-01 8.439289e-01 9.650509e-01 8.195239e-01 9.876540e-01 8.367479e-01 9.651600e-01 8.774200e-01 9.401597e-01 9.004723e-01 9.407301e-01 8.791267e-01 9.593923e-01 8.439871e-01 9.636976e-01 8.213509e-01 9.290855e-01 8.171451e-01 8.749834e-01 8.089805e-01 8.305317e-01 7.738171e-01 8.134212e-01 7.200945e-01 8.066305e-01 6.792511e-01 7.851731e-01 6.716491e-01 7.449363e-01 6.817612e-01 7.148552e-01 6.730505e-01 7.105209e-01 6.515948e-01 7.166398e-01 6.292034e-01 7.136382e-01 6.232255e-01 6.901690e-01 6.226859e-01 6.620008e-01 6.108058e-01 6.389179e-01 5.795542e-01 6.182130e-01 5.397526e-01 5.890080e-01 5.010058e-01 5.439059e-01 4.667676e-01 4.884850e-01 4.296597e-01 4.340646e-01 3.810606e-01 3.894995e-01 3.210425e-01 3.492719e-01 2.639261e-01 3.020521e-01 2.215390e-01 2.416466e-01 1.890965e-01 1.845175e-01 1.513061e-01 1.419318e-01 9.942705e-02 1.142294e-01 5.063231e-02 8.379915e-02 1.715052e-02 4.077385e-02 -2.923509e-03 -3.408052e-03 -2.451887e-02 -3.619597e-02 -5.822825e-02 -5.632205e-02 -9.545215e-02 -7.695290e-02 -1.249320e-01 -1.075815e-01 -1.435539e-01 -1.446511e-01 -1.624220e-01 -1.772440e-01 -1.899111e-01 -2.012133e-01 -2.248299e-01 -2.249466e-01 -2.568706e-01 -2.554481e-01 -2.820561e-01 -2.935415e-01 -3.065889e-01 -3.303474e-01 -3.397033e-01 -3.624631e-01 -3.766193e-01 -3.927991e-01 -4.121717e-01 -4.277983e-01 -4.427058e-01 -4.669466e-01 -4.724995e-01 -5.051135e-01 -5.061766e-01 -5.395612e-01 -5.439387e-01 -5.724877e-01 -5.807180e-01 -6.086330e-01 -6.139177e-01 -6.485882e-01 -6.453008e-01 -6.884423e-01 -6.801109e-01 -7.253312e-01 -7.191171e-01 -7.604921e-01 -7.586593e-01 -7.989450e-01 -7.953015e-01 -8.413381e-01 -8.301298e-01 -8.853365e-01 -8.675553e-01 -9.269461e-01 -9.114601e-01 -9.675615e-01 -9.555355e-01 -1.008798e+00 -9.967362e-01 -1.053565e+00 -1.033937e+00 -1.099047e+00 -1.071421e+00 -1.141522e+00 -1.111988e+00 -1.180451e+00 -1.154589e+00 -1.218472e+00 -1.194922e+00 -1.259689e+00 -1.231461e+00 -1.303625e+00 -1.266435e+00 -1.346347e+00 -1.304852e+00 -1.385905e+00 -1.347009e+00 -1.423741e+00 -1.389214e+00 -1.464610e+00 -1.427918e+00 -1.508833e+00 -1.463768e+00 -1.553423e+00 -1.501338e+00 -1.594090e+00 -1.541953e+00 -1.631414e+00 -1.583267e+00 -1.669729e+00 -1.621858e+00 -1.711319e+00 -1.658175e+00 -1.755583e+00 -1.694317e+00 -1.798100e+00 -1.733602e+00 -1.837161e+00 -1.775521e+00 -1.874905e+00 -1.817093e+00 -1.916217e+00 -1.855294e+00 -1.961007e+00 -1.890770e+00 -2.004636e+00 -1.928587e+00 -2.044553e+00 -1.969738e+00 -2.081375e+00 -2.010591e+00 -2.121066e+00 -2.052113e+00 -2.165047e+00 -2.078260e+00 -2.187786e+00 -2.094079e+00 -2.202278e+00 
-1.705646e+00 -1.692951e+00 -1.702706e+00 -1.684012e+00 -1.696155e+00 -1.673755e+00 -1.617844e+00 -1.495623e+00 -1.530556e+00 -1.361383e+00 -1.481191e+00 -1.292467e+00 -1.372652e+00 -1.389831e+00 -1.348470e+00 -1.072064e+00 -1.423616e+00 -9.697455e-01 -1.308994e+00 -1.003133e+00 -8.062396e-01 -9.287008e-01 -7.278102e-01 -5.174215e-01 -7.863579e-01 -3.223337e-01 -6.839303e-01 -3.260449e-01 -4.161161e-01 -4.167626e-01 -1.878498e-01 -4.033832e-01 -1.334570e-01 -2.073277e-01 -2.012217e-01 4.390449e-03 -2.260039e-01 8.227992e-02 -8.444681e-02 2.209282e-02 1.079589e-01 -2.582560e-02 2.073833e-01 6.520211e-02 1.599161e-01 2.222358e-01 1.064783e-01 3.327793e-01 1.564609e-01 3.171323e-01 2.994373e-01 2.657504e-01 4.192405e-01 2.903079e-01 4.223501e-01 4.089408e-01 3.806656e-01 5.177661e-01 3.852940e-01 5.392259e-01 4.680130e-01 4.988459e-01 5.604722e-01 4.819127e-01 5.747986e-01 5.262903e-01 5.511238e-01 5.993026e-01 5.192525e-01 6.372678e-01 5.515252e-01 6.130631e-01 6.149020e-01 5.866923e-01 6.531932e-01 5.999180e-01 6.311334e-01 6.400808e-01 5.930056e-01 6.611524e-01 5.755838e-01 6.303441e-01 5.870111e-01 5.742169e-01 5.933512e-01 5.322247e-01 5.622812e-01 5.305382e-01 5.045019e-01 5.416867e-01 4.632569e-01 5.307323e-01 4.694435e-01 4.911568e-01 5.000125e-01 4.656886e-01 4.979336e-01 4.768000e-01 4.809541e-01 4.999131e-01 4.607331e-01 5.107359e-01 4.660630e-01 4.927637e-01 4.792178e-01 4.703656e-01 4.776209e-01 4.575843e-01 4.505985e-01 4.500269e-01 4.143090e-01 4.326082e-01 3.813711e-01 3.949794e-01 3.567519e-01 3.443151e-01 3.296499e-01 2.953736e-01 2.876132e-01 2.615280e-01 2.293933e-01 2.342328e-01 1.746097e-01 1.979076e-01 1.408969e-01 1.411452e-01 1.211962e-01 8.947849e-02 9.402280e-02 5.581928e-02 4.390489e-02 4.398519e-02 -1.937686e-03 2.632853e-02 -2.743713e-02 -1.060902e-02 -3.503943e-02 -5.009069e-02 -4.556609e-02 -7.407753e-02 -7.450431e-02 -8.049691e-02 -1.083792e-01 -8.812772e-02 -1.315914e-01 -1.102039e-01 -1.391878e-01 -1.415219e-01 -1.474923e-01 -1.663952e-01 -1.679612e-01 -1.784165e-01 -1.988936e-01 -1.902412e-01 -2.251682e-01 -2.108450e-01 -2.409209e-01 -2.421905e-01 -2.548317e-01 -2.703778e-01 -2.815393e-01 -2.921548e-01 -3.125115e-01 -3.107678e-01 -3.414711e-01 -3.364393e-01 -3.633461e-01 -3.676107e-01 -3.845237e-01 -3.973632e-01 -4.109642e-01 -4.219167e-01 -4.431399e-01 -4.442956e-01 -4.734140e-01 -4.710309e-01 -4.987319e-01 -5.028499e-01 -5.213129e-01 -5.342037e-01 -5.487164e-01 -5.614995e-01 -5.817638e-01 -5.860117e-01 -6.151359e-01 -6.152175e-01 -6.442560e-01 -6.490902e-01 -6.704465e-01 -6.849688e-01 -6.994212e-01 -7.162244e-01 -7.377593e-01 -7.471049e-01 -7.754409e-01 -7.780931e-01 -8.092364e-01 -8.146288e-01 -8.377769e-01 -8.518716e-01 -8.673987e-01 -8.851134e-01 -9.013797e-01 -9.139736e-01 -9.382786e-01 -9.417392e-01 -9.717683e-01 -9.741314e-01 -1.000260e+00 -1.010111e+00 -1.026516e+00 -1.043977e+00 -1.057764e+00 -1.073704e+00 -1.093992e+00 -1.100840e+00 -1.129969e+00 -1.132581e+00 -1.161101e+00 -1.168612e+00 -1.188302e+00 -1.205204e+00 -1.218447e+00 -1.236295e+00 -1.252694e+00 -1.262931e+00 -1.287743e+00 -1.291407e+00 -1.318767e+00 -1.323993e+00 -1.347120e+00 -1.360393e+00 -1.375172e+00 -1.394077e+00 -1.407580e+00 -1.423125e+00 -1.443314e+00 -1.450143e+00 -1.478490e+00 -1.482290e+00 -1.509128e+00 -1.519221e+00 -1.535788e+00 -1.553982e+00 -1.566158e+00 -1.583982e+00 -1.601333e+00 -1.609283e+00 -1.634282e+00 -1.638233e+00 -1.673722e+00 -1.681817e+00 -1.692762e+00 -1.690271e+00 -1.701572e+00 -1.694935e+00 
-2.118665e+00 -2.230585e+00 -2.133745e+00 -2.253337e+00 -2.166472e+00 -2.315401e+00 -2.167916e+00 -2.182321e+00 -2.084359e+00 -2.144295e+00 -2.070996e+00 -2.164739e+00 -2.007202e+00 -2.178580e+00 -1.427653e+00 -1.397595e+00 -8.982238e-01 -7.299603e-01 -2.956388e-01 7.847002e-02 5.893387e-01 5.737802e-01 9.061196e-01 1.044024e+00 8.006074e-01 1.062651e+00 8.339450e-01 1.071284e+00 9.764326e-01 1.038222e+00 1.027569e+00 1.046080e+00 1.010579e+00 1.156990e+00 9.992052e-01 1.227553e+00 9.801134e-01 1.205382e+00 1.059216e+00 1.194154e+00 1.128570e+00 1.161455e+00 1.118961e+00 1.207140e+00 1.096904e+00 1.255283e+00 1.070021e+00 1.264399e+00 1.098843e+00 1.265316e+00 1.158359e+00 1.236756e+00 1.183522e+00 1.241521e+00 1.170242e+00 1.281472e+00 1.140528e+00 1.298646e+00 1.131463e+00 1.279583e+00 1.157440e+00 1.247671e+00 1.171906e+00 1.226648e+00 1.151785e+00 1.225990e+00 1.119016e+00 1.233730e+00 1.091759e+00 1.220423e+00 1.096019e+00 1.194239e+00 1.105655e+00 1.166336e+00 1.097554e+00 1.158493e+00 1.069107e+00 1.156032e+00 1.034523e+00 1.136872e+00 1.012888e+00 1.097310e+00 9.997701e-01 1.049818e+00 9.751694e-01 1.012771e+00 9.325755e-01 9.916074e-01 8.863649e-01 9.681679e-01 8.512158e-01 9.330586e-01 8.373104e-01 8.943064e-01 8.277008e-01 8.609326e-01 7.965464e-01 8.414175e-01 7.606313e-01 8.252728e-01 7.341422e-01 8.042589e-01 7.208880e-01 7.716787e-01 7.070129e-01 7.391369e-01 6.813881e-01 7.143767e-01 6.424438e-01 6.885680e-01 6.031162e-01 6.526288e-01 5.696830e-01 6.040221e-01 5.384790e-01 5.536689e-01 4.995589e-01 5.085831e-01 4.481914e-01 4.714138e-01 3.948514e-01 4.299694e-01 3.489025e-01 3.801034e-01 3.147161e-01 3.236481e-01 2.794356e-01 2.775683e-01 2.322689e-01 2.305929e-01 1.768116e-01 1.998007e-01 1.328631e-01 1.595562e-01 1.032441e-01 1.141155e-01 7.802124e-02 7.185246e-02 4.664625e-02 4.087278e-02 5.744456e-03 1.525891e-02 -3.198841e-02 -1.488736e-02 -6.102231e-02 -5.403184e-02 -8.308222e-02 -9.381702e-02 -1.102172e-01 -1.270891e-01 -1.472363e-01 -1.525807e-01 -1.864164e-01 -1.830677e-01 -2.186939e-01 -2.210162e-01 -2.435063e-01 -2.643133e-01 -2.723854e-01 -3.019428e-01 -3.154197e-01 -3.404538e-01 -3.626028e-01 -3.734230e-01 -4.001078e-01 -4.141649e-01 -4.287663e-01 -4.581437e-01 -4.585373e-01 -4.983222e-01 -4.956348e-01 -5.315229e-01 -5.395948e-01 -5.632808e-01 -5.787385e-01 -6.016352e-01 -6.110335e-01 -6.465549e-01 -6.395853e-01 -6.894823e-01 -6.752788e-01 -7.262139e-01 -7.188711e-01 -7.576500e-01 -7.620955e-01 -7.959457e-01 -7.979788e-01 -8.405864e-01 -8.284392e-01 -8.888835e-01 -8.642845e-01 -9.297006e-01 -9.132490e-01 -9.743399e-01 -9.651039e-01 -1.012149e+00 -1.007275e+00 -1.058433e+00 -1.040664e+00 -1.106966e+00 -1.074166e+00 -1.150510e+00 -1.114607e+00 -1.187224e+00 -1.161248e+00 -1.220977e+00 -1.203914e+00 -1.262025e+00 -1.239143e+00 -1.309435e+00 -1.269387e+00 -1.354840e+00 -1.306498e+00 -1.393992e+00 -1.351592e+00 -1.426976e+00 -1.397735e+00 -1.466323e+00 -1.436307e+00 -1.512690e+00 -1.467775e+00 -1.561827e+00 -1.503651e+00 -1.602990e+00 -1.545921e+00 -1.636652e+00 -1.590506e+00 -1.671772e+00 -1.629100e+00 -1.712480e+00 -1.663085e+00 -1.760588e+00 -1.695142e+00 -1.805110e+00 -1.734129e+00 -1.842352e+00 -1.778841e+00 -1.875288e+00 -1.823889e+00 -1.916142e+00 -1.861954e+00 -1.965333e+00 -1.892754e+00 -2.011901e+00 -1.929245e+00 -2.052083e+00 -1.973586e+00 -2.083430e+00 -2.013444e+00 -2.119950e+00 -2.070711e+00 -2.188251e+00 -2.090584e+00 -2.197611e+00 -2.104017e+00 -2.214043e+00 
-1.728135e+00 -1.726202e+00 -1.750689e+00 -1.754896e+00 -1.809310e+00 -1.846968e+00 -1.928433e+00 -1.835328e+00 -1.894607e+00 -1.860101e+00 -1.875651e+00 -1.806316e+00 -1.830327e+00 -1.412190e+00 -1.084203e+00 -6.440789e-01 -2.859915e-01 2.707421e-01 4.202043e-01 1.404221e+00 1.202797e+00 2.099259e+00 2.012532e+00 2.230517e+00 2.165230e+00 2.031536e+00 2.236432e+00 2.030597e+00 2.149422e+00 2.119557e+00 1.973350e+00 2.177371e+00 1.893325e+00 2.106503e+00 1.980055e+00 1.951591e+00 2.037539e+00 1.829499e+00 1.996094e+00 1.891347e+00 1.858858e+00 1.940617e+00 1.727215e+00 1.913018e+00 1.754072e+00 1.787755e+00 1.807985e+00 1.671972e+00 1.810221e+00 1.697053e+00 1.718182e+00 1.743326e+00 1.609272e+00 1.741755e+00 1.586572e+00 1.650360e+00 1.605836e+00 1.539829e+00 1.599441e+00 1.485147e+00 1.529007e+00 1.494356e+00 1.428376e+00 1.494896e+00 1.375779e+00 1.435250e+00 1.352634e+00 1.349168e+00 1.358102e+00 1.280239e+00 1.321340e+00 1.273725e+00 1.249756e+00 1.272111e+00 1.185342e+00 1.245207e+00 1.167575e+00 1.186059e+00 1.163527e+00 1.126315e+00 1.149719e+00 1.101462e+00 1.105159e+00 1.099446e+00 1.049208e+00 1.094947e+00 1.014610e+00 1.056888e+00 1.011912e+00 9.986311e-01 1.006403e+00 9.527078e-01 9.672871e-01 9.407496e-01 9.015124e-01 9.194077e-01 8.481289e-01 8.680652e-01 8.066570e-01 8.067804e-01 7.869178e-01 7.558058e-01 7.525294e-01 7.262599e-01 7.060751e-01 7.026179e-01 6.604789e-01 6.761879e-01 6.270512e-01 6.390218e-01 6.043817e-01 5.977049e-01 5.851571e-01 5.623574e-01 5.559746e-01 5.411519e-01 5.166140e-01 5.259360e-01 4.771920e-01 5.008701e-01 4.565565e-01 4.595797e-01 4.437507e-01 4.166303e-01 4.194933e-01 3.918564e-01 3.736908e-01 3.756663e-01 3.185144e-01 3.347237e-01 2.831669e-01 2.884288e-01 2.617855e-01 2.381051e-01 2.369548e-01 2.074844e-01 1.956579e-01 1.870397e-01 1.492509e-01 1.637865e-01 1.140147e-01 1.251621e-01 9.099113e-02 8.107358e-02 6.763375e-02 4.283606e-02 3.355927e-02 1.644307e-02 -7.746308e-03 -8.218841e-03 -4.813865e-02 -3.891365e-02 -7.777725e-02 -7.806382e-02 -1.030435e-01 -1.180239e-01 -1.319373e-01 -1.522541e-01 -1.710920e-01 -1.834209e-01 -2.161040e-01 -2.249579e-01 -2.627856e-01 -2.626365e-01 -2.962175e-01 -3.017269e-01 -3.239735e-01 -3.381631e-01 -3.537636e-01 -3.699458e-01 -3.882464e-01 -3.973405e-01 -4.258238e-01 -4.253672e-01 -4.586519e-01 -4.582559e-01 -4.868784e-01 -4.949894e-01 -5.130136e-01 -5.295429e-01 -5.441274e-01 -5.593932e-01 -5.805762e-01 -5.849489e-01 -6.165627e-01 -6.151296e-01 -6.467239e-01 -6.502858e-01 -6.728122e-01 -6.892624e-01 -7.047617e-01 -7.244054e-01 -7.459103e-01 -7.655067e-01 -7.935557e-01 -7.962095e-01 -8.303853e-01 -8.313807e-01 -8.587222e-01 -8.689920e-01 -8.847358e-01 -9.035621e-01 -9.158472e-01 -9.323054e-01 -9.529054e-01 -9.575892e-01 -9.884946e-01 -9.881600e-01 -1.018402e+00 -1.024366e+00 -1.043337e+00 -1.060740e+00 -1.072382e+00 -1.092232e+00 -1.107860e+00 -1.117496e+00 -1.145781e+00 -1.146357e+00 -1.177963e+00 -1.181160e+00 -1.203931e+00 -1.219707e+00 -1.232360e+00 -1.252822e+00 -1.265667e+00 -1.279473e+00 -1.301799e+00 -1.305377e+00 -1.333913e+00 -1.335208e+00 -1.361569e+00 -1.371708e+00 -1.386649e+00 -1.406545e+00 -1.417082e+00 -1.435654e+00 -1.452763e+00 -1.460769e+00 -1.489932e+00 -1.491482e+00 -1.521720e+00 -1.529082e+00 -1.547340e+00 -1.565894e+00 -1.576541e+00 -1.597859e+00 -1.611587e+00 -1.621844e+00 -1.644791e+00 -1.649288e+00 -1.690766e+00 -1.696274e+00 -1.702491e+00 -1.700680e+00 -1.713315e+00 -1.711822e+00 
-2.140166e+00 -2.257967e+00 -2.173706e+00 -2.299302e+00 -2.230426e+00 -2.374096e+00 -2.336415e+00 -2.427392e+00 -2.359952e+00 -2.481156e+00 -2.389456e+00 -2.497294e+00 -2.464879e+00 -2.419359e+00 -1.435939e+00 -1.130878e+00 -2.077446e-02 -2.141406e-02 1.116982e+00 1.541724e+00 2.256353e+00 3.032437e+00 2.580712e+00 2.916584e+00 2.749816e+00 2.751043e+00 2.796873e+00 2.717212e+00 2.675776e+00 2.771810e+00 2.519673e+00 2.803629e+00 2.444792e+00 2.704904e+00 2.485822e+00 2.556907e+00 2.521422e+00 2.456516e+00 2.453251e+00 2.475610e+00 2.316992e+00 2.503624e+00 2.207339e+00 2.452709e+00 2.206039e+00 2.328599e+00 2.236159e+00 2.224556e+00 2.216219e+00 2.216451e+00 2.116475e+00 2.238418e+00 2.014087e+00 2.218012e+00 1.977372e+00 2.118692e+00 1.978046e+00 2.010578e+00 1.957383e+00 1.949218e+00 1.878120e+00 1.937395e+00 1.778597e+00 1.918167e+00 1.716020e+00 1.843483e+00 1.678638e+00 1.751570e+00 1.666544e+00 1.679149e+00 1.617961e+00 1.654368e+00 1.541778e+00 1.636793e+00 1.474949e+00 1.596323e+00 1.445118e+00 1.529084e+00 1.428851e+00 1.464919e+00 1.402981e+00 1.429518e+00 1.350912e+00 1.414098e+00 1.292660e+00 1.395292e+00 1.253502e+00 1.347278e+00 1.239039e+00 1.284409e+00 1.221244e+00 1.232868e+00 1.173332e+00 1.205960e+00 1.102950e+00 1.170770e+00 1.042784e+00 1.105541e+00 9.918906e-01 1.036354e+00 9.585446e-01 9.769538e-01 9.138536e-01 9.363996e-01 8.600734e-01 9.011794e-01 8.090667e-01 8.624013e-01 7.695002e-01 8.152705e-01 7.383089e-01 7.666791e-01 7.086845e-01 7.249178e-01 6.708031e-01 6.940936e-01 6.264964e-01 6.670285e-01 5.848382e-01 6.307823e-01 5.573000e-01 5.831508e-01 5.344930e-01 5.358395e-01 5.003832e-01 5.027392e-01 4.491644e-01 4.716326e-01 3.906212e-01 4.197431e-01 3.474724e-01 3.630291e-01 3.156638e-01 3.078601e-01 2.800645e-01 2.686291e-01 2.318161e-01 2.369871e-01 1.810295e-01 2.010104e-01 1.405197e-01 1.526108e-01 1.084554e-01 1.008168e-01 7.457715e-02 5.529509e-02 3.131489e-02 1.863804e-02 -1.643790e-02 -1.778473e-02 -6.132603e-02 -6.036572e-02 -9.795628e-02 -1.080962e-01 -1.326413e-01 -1.551789e-01 -1.719230e-01 -1.975703e-01 -2.189970e-01 -2.411005e-01 -2.704315e-01 -2.953766e-01 -3.230835e-01 -3.446680e-01 -3.652780e-01 -3.913095e-01 -4.034564e-01 -4.349027e-01 -4.422251e-01 -4.756742e-01 -4.829627e-01 -5.146233e-01 -5.245407e-01 -5.542186e-01 -5.639744e-01 -5.960465e-01 -6.012676e-01 -6.393972e-01 -6.377657e-01 -6.818198e-01 -6.762984e-01 -7.218756e-01 -7.171333e-01 -7.599104e-01 -7.579291e-01 -7.995713e-01 -7.959974e-01 -8.419792e-01 -8.325152e-01 -8.870637e-01 -8.730873e-01 -9.334805e-01 -9.206459e-01 -9.864114e-01 -9.733489e-01 -1.030010e+00 -1.017459e+00 -1.072781e+00 -1.055465e+00 -1.116499e+00 -1.091032e+00 -1.159029e+00 -1.128797e+00 -1.198557e+00 -1.169680e+00 -1.236137e+00 -1.210681e+00 -1.275890e+00 -1.248956e+00 -1.318584e+00 -1.284653e+00 -1.362187e+00 -1.321706e+00 -1.403397e+00 -1.361953e+00 -1.441482e+00 -1.404028e+00 -1.480500e+00 -1.443551e+00 -1.522590e+00 -1.480004e+00 -1.566905e+00 -1.516823e+00 -1.608997e+00 -1.555893e+00 -1.647728e+00 -1.596632e+00 -1.685166e+00 -1.635864e+00 -1.724490e+00 -1.672519e+00 -1.767089e+00 -1.707700e+00 -1.809605e+00 -1.745300e+00 -1.849443e+00 -1.785857e+00 -1.887384e+00 -1.827640e+00 -1.927581e+00 -1.866900e+00 -1.971103e+00 -1.903253e+00 -2.015064e+00 -1.940587e+00 -2.056483e+00 -1.980346e+00 -2.094107e+00 -2.021058e+00 -2.133399e+00 -2.063630e+00 -2.174133e+00 -2.089027e+00 -2.200938e+00 -2.113635e+00 -2.227933e+00 
-1.747113e+00 -1.753337e+00 -1.778865e+00 -1.788640e+00 -1.826039e+00 -1.840235e+00 -1.887318e+00 -1.873927e+00 -1.908021e+00 -1.909499e+00 -1.921753e+00 -1.947758e+00 -1.948722e+00 -2.082553e+00 -1.018203e+00 -8.555787e-01 -5.954134e-02 2.277988e-01 9.694145e-01 1.295905e+00 2.306787e+00 2.236331e+00 2.234517e+00 2.257405e+00 2.261094e+00 2.190951e+00 2.266253e+00 2.165629e+00 2.195798e+00 2.179277e+00 2.104724e+00 2.183968e+00 2.049845e+00 2.125477e+00 2.049431e+00 2.038702e+00 2.052347e+00 1.972733e+00 2.006872e+00 1.960132e+00 1.926034e+00 1.958203e+00 1.856307e+00 1.920670e+00 1.833830e+00 1.847058e+00 1.833372e+00 1.783638e+00 1.811162e+00 1.762589e+00 1.751068e+00 1.758910e+00 1.687365e+00 1.735433e+00 1.649910e+00 1.673905e+00 1.631928e+00 1.605045e+00 1.605513e+00 1.556591e+00 1.551329e+00 1.532273e+00 1.485860e+00 1.505033e+00 1.431040e+00 1.445628e+00 1.389810e+00 1.383852e+00 1.365430e+00 1.333818e+00 1.327940e+00 1.305694e+00 1.277375e+00 1.283783e+00 1.230912e+00 1.252100e+00 1.200907e+00 1.207769e+00 1.179698e+00 1.164566e+00 1.154883e+00 1.134555e+00 1.118039e+00 1.115420e+00 1.077673e+00 1.095191e+00 1.045797e+00 1.061391e+00 1.025600e+00 1.019406e+00 1.004161e+00 9.817288e-01 9.681611e-01 9.539824e-01 9.197099e-01 9.210257e-01 8.694379e-01 8.681758e-01 8.230962e-01 8.181973e-01 7.899255e-01 7.749011e-01 7.546010e-01 7.407437e-01 7.150418e-01 7.108084e-01 6.763294e-01 6.801891e-01 6.430134e-01 6.457716e-01 6.150620e-01 6.103490e-01 5.888126e-01 5.782667e-01 5.589825e-01 5.521529e-01 5.257017e-01 5.285305e-01 4.935729e-01 5.008567e-01 4.681943e-01 4.672686e-01 4.456393e-01 4.333485e-01 4.176027e-01 4.049219e-01 3.796267e-01 3.760716e-01 3.341029e-01 3.313623e-01 2.931031e-01 2.898851e-01 2.630702e-01 2.504496e-01 2.331570e-01 2.184328e-01 1.973957e-01 1.908404e-01 1.595666e-01 1.617257e-01 1.258336e-01 1.266953e-01 9.671775e-02 8.909971e-02 6.746050e-02 5.390914e-02 3.399408e-02 2.319393e-02 -2.494827e-03 -6.532363e-03 -3.823452e-02 -3.873311e-02 -6.996314e-02 -7.408197e-02 -9.982220e-02 -1.098620e-01 -1.316098e-01 -1.441666e-01 -1.686148e-01 -1.801002e-01 -2.123761e-01 -2.263629e-01 -2.580487e-01 -2.648576e-01 -2.936134e-01 -3.007623e-01 -3.248699e-01 -3.347644e-01 -3.561161e-01 -3.666375e-01 -3.889758e-01 -3.968824e-01 -4.227198e-01 -4.273595e-01 -4.549331e-01 -4.595904e-01 -4.853044e-01 -4.931188e-01 -5.150098e-01 -5.258925e-01 -5.463388e-01 -5.567479e-01 -5.794600e-01 -5.861795e-01 -6.123774e-01 -6.169371e-01 -6.432682e-01 -6.498261e-01 -6.732047e-01 -6.846875e-01 -7.064894e-01 -7.214326e-01 -7.476234e-01 -7.665879e-01 -7.927234e-01 -8.017758e-01 -8.287762e-01 -8.352280e-01 -8.595875e-01 -8.688298e-01 -8.888799e-01 -9.012717e-01 -9.198504e-01 -9.315902e-01 -9.529515e-01 -9.608378e-01 -9.858152e-01 -9.918237e-01 -1.016654e+00 -1.024936e+00 -1.045897e+00 -1.058304e+00 -1.076427e+00 -1.089876e+00 -1.109330e+00 -1.119485e+00 -1.143139e+00 -1.150074e+00 -1.175053e+00 -1.182901e+00 -1.204849e+00 -1.216942e+00 -1.235100e+00 -1.249171e+00 -1.267042e+00 -1.278945e+00 -1.299907e+00 -1.308127e+00 -1.331459e+00 -1.338809e+00 -1.361199e+00 -1.371677e+00 -1.390186e+00 -1.404242e+00 -1.421026e+00 -1.434870e+00 -1.454019e+00 -1.464361e+00 -1.487598e+00 -1.495696e+00 -1.519333e+00 -1.529421e+00 -1.549093e+00 -1.563109e+00 -1.579722e+00 -1.594721e+00 -1.612201e+00 -1.623704e+00 -1.644952e+00 -1.653457e+00 -1.678241e+00 -1.685065e+00 -1.701356e+00 -1.706345e+00 -1.722823e+00 -1.727867e+00 
-2.157865e+00 -2.279377e+00 -2.199216e+00 -2.325787e+00 -2.252900e+00 -2.384100e+00 -2.318739e+00 -2.439112e+00 -2.366309e+00 -2.490866e+00 -2.413522e+00 -2.536099e+00 -2.477019e+00 -2.587982e+00 -1.273450e+00 -1.210847e+00 3.403585e-02 1.166309e-01 1.331040e+00 1.550961e+00 2.737066e+00 2.981690e+00 2.706158e+00 2.919146e+00 2.732788e+00 2.830918e+00 2.727790e+00 2.781002e+00 2.657184e+00 2.766483e+00 2.570753e+00 2.745529e+00 2.511818e+00 2.677430e+00 2.491111e+00 2.590196e+00 2.472987e+00 2.521989e+00 2.417600e+00 2.490937e+00 2.336988e+00 2.468487e+00 2.267838e+00 2.418660e+00 2.232868e+00 2.343236e+00 2.213816e+00 2.276282e+00 2.177656e+00 2.239294e+00 2.113484e+00 2.216189e+00 2.047620e+00 2.177922e+00 2.001709e+00 2.111366e+00 1.970475e+00 2.039970e+00 1.932827e+00 1.984945e+00 1.874898e+00 1.948316e+00 1.809080e+00 1.908010e+00 1.744354e+00 1.825258e+00 1.684724e+00 1.759974e+00 1.649511e+00 1.704921e+00 1.605037e+00 1.665248e+00 1.550537e+00 1.630109e+00 1.499328e+00 1.587495e+00 1.460562e+00 1.535735e+00 1.428685e+00 1.485516e+00 1.393988e+00 1.445677e+00 1.350642e+00 1.414169e+00 1.305372e+00 1.381528e+00 1.266990e+00 1.338833e+00 1.236965e+00 1.290434e+00 1.205684e+00 1.245757e+00 1.163611e+00 1.208332e+00 1.112245e+00 1.165599e+00 1.052778e+00 1.090831e+00 9.916104e-01 1.035372e+00 9.507067e-01 9.857218e-01 9.085667e-01 9.425607e-01 8.631123e-01 9.023437e-01 8.185938e-01 8.613648e-01 7.785171e-01 8.178696e-01 7.424195e-01 7.742815e-01 7.073815e-01 7.338472e-01 6.699294e-01 6.978384e-01 6.306197e-01 6.634139e-01 5.929717e-01 6.259871e-01 5.602015e-01 5.849061e-01 5.292181e-01 5.444558e-01 4.942603e-01 5.084355e-01 4.523153e-01 4.700329e-01 3.985437e-01 4.039702e-01 3.435896e-01 3.560702e-01 3.067481e-01 3.110217e-01 2.696827e-01 2.707412e-01 2.279007e-01 2.329968e-01 1.846522e-01 1.933975e-01 1.444501e-01 1.493374e-01 1.071750e-01 1.036082e-01 6.930475e-02 5.995573e-02 2.819822e-02 1.942037e-02 -1.474075e-02 -2.067745e-02 -5.655000e-02 -6.272729e-02 -9.537565e-02 -1.064752e-01 -1.329628e-01 -1.497180e-01 -1.717886e-01 -1.912293e-01 -2.140217e-01 -2.355676e-01 -2.673299e-01 -3.032295e-01 -3.259379e-01 -3.492712e-01 -3.672232e-01 -3.920743e-01 -4.054606e-01 -4.338042e-01 -4.439442e-01 -4.745904e-01 -4.833629e-01 -5.147887e-01 -5.231651e-01 -5.552549e-01 -5.622835e-01 -5.965696e-01 -6.005422e-01 -6.384228e-01 -6.384936e-01 -6.798724e-01 -6.770817e-01 -7.202878e-01 -7.163655e-01 -7.598600e-01 -7.554110e-01 -7.996975e-01 -7.932200e-01 -8.402340e-01 -8.302164e-01 -8.814870e-01 -8.692205e-01 -9.259281e-01 -9.200581e-01 -9.922408e-01 -9.777042e-01 -1.035517e+00 -1.018814e+00 -1.076070e+00 -1.056298e+00 -1.117026e+00 -1.093083e+00 -1.157853e+00 -1.130867e+00 -1.197817e+00 -1.169946e+00 -1.237284e+00 -1.209240e+00 -1.277556e+00 -1.247664e+00 -1.318983e+00 -1.285288e+00 -1.360780e+00 -1.323393e+00 -1.401762e+00 -1.362684e+00 -1.441745e+00 -1.402592e+00 -1.481998e+00 -1.441679e+00 -1.523358e+00 -1.479689e+00 -1.565416e+00 -1.517672e+00 -1.606691e+00 -1.556388e+00 -1.646663e+00 -1.595608e+00 -1.686071e+00 -1.634282e+00 -1.726138e+00 -1.671982e+00 -1.767305e+00 -1.709247e+00 -1.808543e+00 -1.747394e+00 -1.848947e+00 -1.786743e+00 -1.888833e+00 -1.826558e+00 -1.929521e+00 -1.865557e+00 -1.971388e+00 -1.903583e+00 -2.013416e+00 -1.941788e+00 -2.054378e+00 -1.980729e+00 -2.093902e+00 -2.019848e+00 -2.133170e+00 -2.057951e+00 -2.171480e+00 -2.090855e+00 -2.206085e+00 -2.123104e+00 -2.240964e+00 