# vtk DataFile Version 2.0
Comment goes here
ASCII

DATASET STRUCTURED_POINTS
FIELD FieldData 1
TIME 1 1 double
0.05800000
DIMENSIONS    64   64   1

ORIGIN    0.000   0.000   0.000
SPACING   0.03125 0.03125   1.000

POINT_DATA   4096
SCALARS P double
LOOKUP_TABLE default

-3.958179e+01 -2.077742e+02 -2.787972e+01 -2.159231e+02 7.937855e+01 1.317430e+02 -2.556691e+01 1.250305e+02 -3.240049e+01 1.191190e+02 -3.818497e+01 1.103042e+02 -3.898024e+01 9.669142e+01 -3.291956e+01 7.770100e+01 -2.278344e+01 5.716799e+01 -1.244268e+01 3.792077e+01 -7.196768e+00 2.412184e+01 -7.785437e+00 1.583642e+01 -1.380640e+01 1.252276e+01 -2.370905e+01 8.306744e+00 -3.030094e+01 -4.142333e-01 -3.348847e+01 -1.248577e+01 -3.393316e+01 -2.470637e+01 -3.693599e+01 -3.440748e+01 -4.064442e+01 -4.445899e+01 -4.517953e+01 -5.233146e+01 -5.176881e+01 -6.194611e+01 -5.466262e+01 -7.690625e+01 -5.387199e+01 -9.312512e+01 -5.419743e+01 -1.045932e+02 -6.201414e+01 -1.082842e+02 -7.377731e+01 -1.105300e+02 -8.418576e+01 -1.158903e+02 -8.594311e+01 -1.308333e+02 -7.697165e+01 -1.542169e+02 -6.348772e+01 -1.764665e+02 -5.310307e+01 -1.949522e+02 -4.228685e+01 -2.111298e+02 
-9.806520e+00 -1.341328e+02 -2.678285e+00 -1.410619e+02 7.665350e+01 1.171643e+02 -1.971752e+00 1.111388e+02 -6.478851e+00 1.058378e+02 -1.036406e+01 9.909710e+01 -1.179135e+01 9.011266e+01 -9.807961e+00 7.834712e+01 -5.777786e+00 6.576519e+01 -1.523508e+00 5.350284e+01 4.527934e-01 4.363854e+01 8.570296e-02 3.612993e+01 -2.639959e+00 3.107866e+01 -7.261968e+00 2.543211e+01 -9.883874e+00 1.742404e+01 -1.081847e+01 7.691750e+00 -1.023554e+01 -2.005076e+00 -1.129356e+01 -1.015933e+01 -1.261251e+01 -1.861073e+01 -1.437474e+01 -2.559931e+01 -1.748822e+01 -3.343696e+01 -1.862801e+01 -4.418288e+01 -1.770333e+01 -5.566810e+01 -1.709071e+01 -6.470933e+01 -2.047689e+01 -6.945710e+01 -2.588778e+01 -7.338695e+01 -3.080450e+01 -7.848170e+01 -3.151977e+01 -8.820988e+01 -2.693373e+01 -1.019591e+02 -2.036737e+01 -1.145811e+02 -1.574751e+01 -1.251213e+02 -1.040125e+01 -1.354175e+02 
7.273224e+00 -8.862375e+01 9.613997e+00 -9.214378e+01 3.604642e+01 1.014667e+02 9.680854e+00 9.780679e+01 7.878870e+00 9.344834e+01 6.204566e+00 8.832179e+01 4.898446e+00 8.258641e+01 4.152226e+00 7.612641e+01 3.790989e+00 6.933638e+01 3.610185e+00 6.224818e+01 3.406394e+00 5.512754e+01 3.247088e+00 4.796987e+01 2.899220e+00 4.104006e+01 2.219733e+00 3.395187e+01 1.949237e+00 2.647759e+01 1.895119e+00 1.871032e+01 2.158757e+00 1.098914e+01 2.020322e+00 3.658768e+00 1.885742e+00 -3.749901e+00 1.702742e+00 -1.073549e+01 1.245819e+00 -1.775078e+01 1.254053e+00 -2.522622e+01 1.771721e+00 -3.283032e+01 2.451644e+00 -4.006839e+01 2.512032e+00 -4.645102e+01 2.313576e+00 -5.257801e+01 2.117776e+00 -5.852324e+01 2.451082e+00 -6.479308e+01 3.453524e+00 -7.123128e+01 4.632122e+00 -7.691588e+01 5.448495e+00 -8.186740e+01 6.759314e+00 -8.690826e+01 
7.344333e+00 -9.325647e+01 9.997198e+00 -9.683445e+01 1.259320e+01 1.050167e+02 1.004526e+01 1.008971e+02 7.695164e+00 9.595073e+01 5.834599e+00 9.034547e+01 4.527060e+00 8.411503e+01 3.816261e+00 7.725327e+01 3.543230e+00 7.002687e+01 3.450762e+00 6.263617e+01 3.299348e+00 5.529529e+01 3.031541e+00 4.808655e+01 2.592352e+00 4.104824e+01 2.062992e+00 3.388413e+01 1.804417e+00 2.638942e+01 1.799593e+00 1.863107e+01 1.985913e+00 1.088508e+01 1.998594e+00 3.370897e+00 1.923951e+00 -4.059697e+00 1.724714e+00 -1.128657e+01 1.363092e+00 -1.858371e+01 1.234679e+00 -2.616892e+01 1.388717e+00 -3.378730e+01 1.552870e+00 -4.099491e+01 1.318574e+00 -4.750961e+01 8.444364e-01 -5.369676e+01 4.779679e-01 -5.987264e+01 7.038604e-01 -6.638183e+01 1.676203e+00 -7.306105e+01 3.029014e+00 -7.931028e+01 4.393035e+00 -8.494778e+01 5.968713e+00 -8.995886e+01 
7.602440e+00 -9.040556e+01 9.641712e+00 -9.385934e+01 1.205077e+01 1.016148e+02 9.792668e+00 9.790194e+01 7.906168e+00 9.333305e+01 6.381334e+00 8.808980e+01 5.216959e+00 8.228605e+01 4.420839e+00 7.597382e+01 3.901295e+00 6.930491e+01 3.548685e+00 6.237539e+01 3.267302e+00 5.531027e+01 3.006705e+00 4.818035e+01 2.688303e+00 4.106139e+01 2.314811e+00 3.382764e+01 2.074156e+00 2.640730e+01 1.956531e+00 1.885217e+01 1.937351e+00 1.130546e+01 1.835161e+00 3.889425e+00 1.705160e+00 -3.463928e+00 1.548696e+00 -1.068082e+01 1.365201e+00 -1.789334e+01 1.368288e+00 -2.521259e+01 1.591598e+00 -3.251813e+01 1.887285e+00 -3.958674e+01 2.025591e+00 -4.626116e+01 2.084560e+00 -5.268659e+01 2.211392e+00 -5.896345e+01 2.606250e+00 -6.521927e+01 3.330195e+00 -7.135338e+01 4.234681e+00 -7.705376e+01 5.189813e+00 -8.223583e+01 6.364723e+00 -8.693155e+01 
7.078894e+00 -9.490868e+01 9.178015e+00 -9.887195e+01 1.120880e+01 1.043311e+02 9.416612e+00 1.004286e+02 7.525256e+00 9.555374e+01 5.958933e+00 8.995816e+01 4.806364e+00 8.378174e+01 4.048072e+00 7.711656e+01 3.583439e+00 7.010993e+01 3.286370e+00 6.290453e+01 3.032800e+00 5.563601e+01 2.753542e+00 4.837775e+01 2.426395e+00 4.113938e+01 2.098544e+00 3.382041e+01 1.881379e+00 2.634450e+01 1.789428e+00 1.874246e+01 1.776568e+00 1.112870e+01 1.725945e+00 3.597000e+00 1.621495e+00 -3.863186e+00 1.451991e+00 -1.124797e+01 1.237560e+00 -1.864320e+01 1.102083e+00 -2.609612e+01 1.073403e+00 -3.349317e+01 1.060622e+00 -4.064649e+01 9.540928e-01 -4.745304e+01 8.181682e-01 -5.402205e+01 8.117630e-01 -6.050727e+01 1.135956e+00 -6.702016e+01 1.867656e+00 -7.347699e+01 2.900351e+00 -7.964284e+01 4.114280e+00 -8.536253e+01 5.527145e+00 -9.052481e+01 
7.140486e+00 -9.301910e+01 8.804877e+00 -9.730219e+01 1.062246e+01 1.022485e+02 9.109598e+00 9.824325e+01 7.554907e+00 9.353951e+01 6.247147e+00 8.820871e+01 5.231001e+00 8.236141e+01 4.476610e+00 7.608315e+01 3.914987e+00 6.946730e+01 3.494443e+00 6.258842e+01 3.171724e+00 5.553931e+01 2.889359e+00 4.838739e+01 2.605639e+00 4.117218e+01 2.325158e+00 3.386645e+01 2.102378e+00 2.645647e+01 1.944153e+00 1.897589e+01 1.830516e+00 1.149119e+01 1.706622e+00 4.056636e+00 1.572461e+00 -3.327063e+00 1.434782e+00 -1.064950e+01 1.316222e+00 -1.794575e+01 1.289996e+00 -2.523352e+01 1.377289e+00 -3.245395e+01 1.528207e+00 -3.950921e+01 1.673435e+00 -4.633695e+01 1.835759e+00 -5.297233e+01 2.086738e+00 -5.945579e+01 2.498472e+00 -6.581284e+01 3.101633e+00 -7.198775e+01 3.865449e+00 -7.786139e+01 4.767057e+00 -8.336627e+01 5.855105e+00 -8.845649e+01 
6.266601e+00 -9.727866e+01 7.895743e+00 -1.020496e+02 9.502859e+00 1.049694e+02 8.287265e+00 1.006052e+02 6.919571e+00 9.560399e+01 5.701996e+00 8.997518e+01 4.748615e+00 8.382016e+01 4.046356e+00 7.723843e+01 3.528493e+00 7.033698e+01 3.155379e+00 6.320571e+01 2.868913e+00 5.595571e+01 2.601988e+00 4.865179e+01 2.331536e+00 4.131076e+01 2.074089e+00 3.390444e+01 1.869566e+00 2.641180e+01 1.729337e+00 1.885328e+01 1.630752e+00 1.128083e+01 1.526385e+00 3.738177e+00 1.394132e+00 -3.765297e+00 1.227440e+00 -1.123102e+01 1.041090e+00 -1.868017e+01 8.823706e-01 -2.611124e+01 7.772206e-01 -3.346597e+01 7.123950e-01 -4.066230e+01 6.755404e-01 -4.765067e+01 7.129599e-01 -5.445353e+01 8.692981e-01 -6.114049e+01 1.225978e+00 -6.775244e+01 1.828467e+00 -7.424915e+01 2.657324e+00 -8.053052e+01 3.677551e+00 -8.650641e+01 4.883433e+00 -9.210616e+01 
6.196942e+00 -9.604899e+01 7.478448e+00 -1.011990e+02 8.842330e+00 1.039973e+02 7.876172e+00 9.930656e+01 6.802733e+00 9.425322e+01 5.826016e+00 8.873589e+01 5.028726e+00 8.278435e+01 4.392006e+00 7.646135e+01 3.856322e+00 6.983818e+01 3.420229e+00 6.293324e+01 3.102567e+00 5.584690e+01 2.831628e+00 4.864399e+01 2.572606e+00 4.135797e+01 2.322013e+00 3.399465e+01 2.099989e+00 2.656523e+01 1.915937e+00 1.909660e+01 1.760456e+00 1.162254e+01 1.610913e+00 4.167481e+00 1.461999e+00 -3.261517e+00 1.319213e+00 -1.065803e+01 1.197600e+00 -1.802182e+01 1.129913e+00 -2.533932e+01 1.138936e+00 -3.257214e+01 1.219688e+00 -3.967621e+01 1.353798e+00 -4.662398e+01 1.546954e+00 -5.342975e+01 1.844454e+00 -6.009532e+01 2.245082e+00 -6.661493e+01 2.762368e+00 -7.296559e+01 3.404646e+00 -7.910775e+01 4.179225e+00 -8.501225e+01 5.105959e+00 -9.066051e+01 
5.112501e+00 -9.999403e+01 6.303647e+00 -1.055537e+02 7.471874e+00 1.067624e+02 6.779261e+00 1.016788e+02 5.947263e+00 9.628788e+01 5.141778e+00 9.047037e+01 4.462260e+00 8.423180e+01 3.901395e+00 7.762634e+01 3.403348e+00 7.074901e+01 3.019510e+00 6.359504e+01 2.754475e+00 5.630986e+01 2.513657e+00 4.895350e+01 2.275194e+00 4.154145e+01 2.040038e+00 3.406802e+01 1.829497e+00 2.653772e+01 1.657106e+00 1.897122e+01 1.513140e+00 1.139510e+01 1.369664e+00 3.827920e+00 1.210019e+00 -3.723173e+00 1.028974e+00 -1.125418e+01 8.287998e-01 -1.876289e+01 6.325178e-01 -2.623279e+01 4.760723e-01 -3.362732e+01 3.832803e-01 -4.091091e+01 3.799584e-01 -4.804867e+01 5.294380e-01 -5.501582e+01 7.649444e-01 -6.186215e+01 1.114200e+00 -6.861229e+01 1.611387e+00 -7.525348e+01 2.267825e+00 -8.174896e+01 3.077587e+00 -8.805775e+01 4.031177e+00 -9.414578e+01 
4.945616e+00 -9.917565e+01 5.820507e+00 -1.051027e+02 6.704388e+00 1.065962e+02 6.267335e+00 1.011379e+02 5.715007e+00 9.556913e+01 5.156465e+00 8.973275e+01 4.668273e+00 8.357499e+01 4.229629e+00 7.711070e+01 3.762656e+00 7.044474e+01 3.315869e+00 6.341950e+01 3.047213e+00 5.623838e+01 2.805842e+00 4.896285e+01 2.568455e+00 4.160813e+01 2.326635e+00 3.418067e+01 2.093530e+00 2.670831e+01 1.888165e+00 1.921971e+01 1.706759e+00 1.173079e+01 1.530360e+00 4.245696e+00 1.357739e+00 -3.236573e+00 1.195704e+00 -1.070816e+01 1.046237e+00 -1.815517e+01 9.269759e-01 -2.554616e+01 8.702941e-01 -3.284399e+01 8.997060e-01 -4.002656e+01 1.018471e+00 -4.707962e+01 1.202496e+00 -5.404455e+01 1.526455e+00 -6.088617e+01 1.896165e+00 -6.758148e+01 2.322163e+00 -7.414447e+01 2.832585e+00 -8.058417e+01 3.439765e+00 -8.690090e+01 4.146612e+00 -9.309531e+01 
3.739749e+00 -1.027726e+02 4.483790e+00 -1.090412e+02 5.150844e+00 1.093629e+02 4.988326e+00 1.035356e+02 4.690766e+00 9.762217e+01 4.345093e+00 9.148099e+01 4.025953e+00 8.504185e+01 3.699708e+00 7.827903e+01 3.254519e+00 7.138722e+01 2.865135e+00 6.407346e+01 2.666710e+00 5.670615e+01 2.457074e+00 4.929656e+01 2.245103e+00 4.182687e+01 2.014020e+00 3.428521e+01 1.784588e+00 2.669894e+01 1.585555e+00 1.909834e+01 1.414458e+00 1.149564e+01 1.239013e+00 3.891080e+00 1.051310e+00 -3.715197e+00 8.516229e-01 -1.131612e+01 6.219105e-01 -1.890503e+01 3.688015e-01 -2.645757e+01 1.483676e-01 -3.394064e+01 1.095399e-02 -4.134514e+01 2.718375e-03 -4.863332e+01 2.783029e-01 -5.571276e+01 5.620328e-01 -6.267776e+01 8.734907e-01 -6.955921e+01 1.258496e+00 -7.636997e+01 1.745728e+00 -8.311107e+01 2.335340e+00 -8.976866e+01 3.009914e+00 -9.632653e+01 
3.501195e+00 -1.021956e+02 3.940289e+00 -1.088022e+02 4.277479e+00 1.097524e+02 4.387008e+00 1.035665e+02 4.359053e+00 9.743877e+01 4.269698e+00 9.121524e+01 4.192461e+00 8.476829e+01 4.075093e+00 7.801145e+01 3.732351e+00 7.132920e+01 3.167355e+00 6.398877e+01 2.999001e+00 5.667760e+01 2.789278e+00 4.934096e+01 2.582422e+00 4.192661e+01 2.348750e+00 3.441371e+01 2.093388e+00 2.687186e+01 1.865756e+00 1.934657e+01 1.666316e+00 1.183157e+01 1.453601e+00 4.310302e+00 1.244922e+00 -3.232225e+00 1.060681e+00 -1.078681e+01 8.775631e-01 -1.834505e+01 6.994786e-01 -2.585153e+01 5.676751e-01 -3.326276e+01 5.348949e-01 -4.055773e+01 6.438973e-01 -4.768200e+01 7.850018e-01 -5.481271e+01 1.159043e+00 -6.180059e+01 1.474832e+00 -6.862908e+01 1.793407e+00 -7.538817e+01 2.161658e+00 -8.211883e+01 2.580936e+00 -8.882818e+01 3.036040e+00 -9.551891e+01 
2.235443e+00 -1.054406e+02 2.515299e+00 -1.123325e+02 2.605838e+00 1.124734e+02 2.992548e+00 1.059573e+02 3.204218e+00 9.950262e+01 3.324401e+00 9.298838e+01 3.450437e+00 8.629827e+01 3.539121e+00 7.920996e+01 3.255803e+00 7.225056e+01 2.665434e+00 6.451523e+01 2.576066e+00 5.711412e+01 2.392629e+00 4.969080e+01 2.231965e+00 4.218402e+01 2.006778e+00 3.455135e+01 1.742233e+00 2.688409e+01 1.517158e+00 1.923804e+01 1.336881e+00 1.159716e+01 1.124801e+00 3.942623e+00 9.012029e-01 -3.728134e+00 6.921338e-01 -1.140114e+01 4.335807e-01 -1.909102e+01 1.015809e-01 -2.676271e+01 -2.160739e-01 -3.438531e+01 -4.460178e-01 -4.197593e+01 -5.372149e-01 -4.947394e+01 -1.478761e-02 -5.655246e+01 3.152127e-01 -6.354301e+01 5.438378e-01 -7.050151e+01 7.980485e-01 -7.747381e+01 1.117900e+00 -8.446959e+01 1.487694e+00 -9.147156e+01 1.874502e+00 -9.846503e+01 
1.954783e+00 -1.049941e+02 1.940028e+00 -1.121886e+02 1.672269e+00 1.132083e+02 2.337571e+00 1.063647e+02 2.782878e+00 9.970654e+01 3.122112e+00 9.313620e+01 3.494933e+00 8.646786e+01 3.925674e+00 7.930627e+01 4.158095e+00 7.234553e+01 2.830126e+00 6.436651e+01 2.909181e+00 5.710590e+01 2.728400e+00 4.979336e+01 2.599777e+00 4.236172e+01 2.408347e+00 3.469919e+01 2.109565e+00 2.703853e+01 1.847797e+00 1.947827e+01 1.654035e+00 1.193430e+01 1.372094e+00 4.369336e+00 1.097444e+00 -3.240792e+00 8.995759e-01 -1.086569e+01 6.897155e-01 -1.856520e+01 4.666353e-01 -2.621426e+01 2.503489e-01 -3.379875e+01 1.100302e-01 -4.134705e+01 1.931802e-01 -4.853473e+01 2.915476e-01 -5.578941e+01 7.505491e-01 -6.274501e+01 9.742841e-01 -6.961268e+01 1.186575e+00 -7.655998e+01 1.420027e+00 -8.358435e+01 1.647949e+00 -9.066560e+01 1.839319e+00 -9.780088e+01 
6.777312e-01 -1.079023e+02 4.908856e-01 -1.153342e+02 -2.173977e-02 1.158356e+02 9.202104e-01 1.087048e+02 1.570579e+00 1.017468e+02 2.033332e+00 9.487402e+01 2.437420e+00 8.800458e+01 3.041068e+00 8.127296e+01 3.901666e+00 7.230048e+01 2.071887e+00 6.461852e+01 2.364649e+00 5.758251e+01 2.271024e+00 5.016463e+01 2.243094e+00 4.268073e+01 2.057138e+00 3.486803e+01 1.708469e+00 2.707601e+01 1.444456e+00 1.940863e+01 1.306314e+00 1.171385e+01 1.023650e+00 3.980699e+00 7.306252e-01 -3.772155e+00 5.399825e-01 -1.149076e+01 2.659621e-01 -1.928086e+01 -1.556196e-01 -2.706782e+01 -5.897931e-01 -3.486482e+01 -9.870805e-01 -4.282677e+01 -1.476565e+00 -5.111137e+01 -3.119565e-01 -5.748815e+01 7.676652e-02 -6.427639e+01 1.055642e-01 -7.126130e+01 2.399283e-01 -7.844316e+01 4.204695e-01 -8.572962e+01 5.836715e-01 -9.307255e+01 6.860530e-01 -1.004632e+02 
3.899036e-01 -1.075138e+02 -6.823049e-02 -1.152147e+02 -9.075780e-01 1.167612e+02 2.929640e-01 1.093048e+02 1.140227e+00 1.020999e+02 1.749056e+00 9.515288e+01 2.310418e+00 8.868198e+01 3.402470e+00 8.347954e+01 6.132871e+00 7.216652e+01 2.195303e+00 6.403894e+01 2.718373e+00 5.766633e+01 2.662688e+00 5.034289e+01 2.671811e+00 4.308160e+01 2.658924e+00 3.502368e+01 2.246030e+00 2.712867e+01 1.834482e+00 1.960946e+01 1.752240e+00 1.204154e+01 1.283292e+00 4.413539e+00 8.659233e-01 -3.299716e+00 6.737189e-01 -1.090838e+01 4.157846e-01 -1.877070e+01 2.555439e-01 -2.656604e+01 -2.952351e-02 -3.422933e+01 -3.637919e-01 -4.213994e+01 -1.020427e+00 -5.099803e+01 -4.147872e-01 -5.692360e+01 1.812610e-01 -6.326016e+01 3.561069e-01 -7.032090e+01 5.327105e-01 -7.758220e+01 6.562821e-01 -8.493019e+01 6.961213e-01 -9.235718e+01 6.224523e-01 -9.988008e+01 
-8.567733e-01 -1.101096e+02 -1.483886e+00 -1.180092e+02 -2.537516e+00 1.192357e+02 -1.049876e+00 1.115474e+02 5.231383e-02 1.041455e+02 8.985500e-01 9.709123e+01 1.641735e+00 9.063424e+01 2.608494e+00 8.530040e+01 4.186208e+00 7.342340e+01 1.748611e+00 6.500414e+01 2.572068e+00 5.833935e+01 2.561256e+00 5.082144e+01 2.581923e+00 4.346362e+01 2.539901e+00 3.520434e+01 2.084099e+00 2.712386e+01 1.648778e+00 1.950631e+01 1.605994e+00 1.179772e+01 1.076329e+00 4.030868e+00 5.845503e-01 -3.821959e+00 3.474092e-01 -1.151570e+01 3.800857e-03 -1.949522e+01 -1.631732e-01 -2.739352e+01 -4.503583e-01 -3.505193e+01 -6.499477e-01 -4.299792e+01 -9.349972e-01 -5.429074e+01 -1.668670e+00 -5.735442e+01 -1.008231e+00 -6.399214e+01 -5.824502e-01 -7.165287e+01 -3.505096e-01 -7.928674e+01 -2.736429e-01 -8.689612e+01 -3.153166e-01 -9.454601e+01 -4.925600e-01 -1.022770e+02 
-1.118115e+00 -1.097285e+02 -1.987169e+00 -1.178693e+02 -3.321069e+00 1.202716e+02 -1.602419e+00 1.122992e+02 -2.871197e-01 1.046685e+02 7.513767e-01 9.737479e+01 1.590131e+00 9.040587e+01 2.202023e+00 8.352976e+01 1.628912e+00 7.352120e+01 1.954627e+00 6.533525e+01 2.746071e+00 5.820203e+01 2.768886e+00 5.077254e+01 2.794578e+00 4.330117e+01 2.641756e+00 3.537684e+01 2.308642e+00 2.748098e+01 2.017005e+00 1.980604e+01 1.883887e+00 1.212588e+01 1.513619e+00 4.430441e+00 1.142714e+00 -3.303359e+00 9.199567e-01 -1.098703e+01 6.282015e-01 -1.884643e+01 3.732471e-01 -2.664957e+01 9.166080e-02 -3.434686e+01 -2.005087e-01 -4.217389e+01 -7.379398e-01 -5.059944e+01 -1.041544e+00 -5.717009e+01 -5.191127e-01 -6.386922e+01 -2.177562e-01 -7.114724e+01 -5.662891e-02 -7.861607e+01 -5.719498e-02 -8.619591e+01 -2.150742e-01 -9.389235e+01 -5.520278e-01 -1.017295e+02 
-2.302396e+00 -1.120376e+02 -3.328053e+00 -1.203480e+02 -4.861280e+00 1.225170e+02 -2.898000e+00 1.143306e+02 -1.363714e+00 1.064671e+02 -1.157686e-01 9.887115e+01 9.467885e-01 9.133280e+01 1.749609e+00 8.332380e+01 2.084036e+00 7.549667e+01 1.454342e+00 6.677013e+01 2.147938e+00 5.895692e+01 2.245418e+00 5.121709e+01 2.268752e+00 4.344439e+01 2.126696e+00 3.545784e+01 1.832554e+00 2.750408e+01 1.584970e+00 1.968902e+01 1.410983e+00 1.188867e+01 1.110985e+00 4.073825e+00 7.955451e-01 -3.766553e+00 5.579206e-01 -1.159879e+01 2.571698e-01 -1.951463e+01 -1.317647e-01 -2.740261e+01 -5.384139e-01 -3.527372e+01 -9.126949e-01 -4.326694e+01 -1.237130e+00 -5.131372e+01 -9.468296e-01 -5.812911e+01 -7.641991e-01 -6.527530e+01 -7.937981e-01 -7.266343e+01 -8.149814e-01 -8.026862e+01 -9.208487e-01 -8.801371e+01 -1.170771e+00 -9.587859e+01 -1.610954e+00 -1.038793e+02 
-2.509074e+00 -1.116272e+02 -3.751157e+00 -1.201512e+02 -5.533852e+00 1.234878e+02 -3.400642e+00 1.150085e+02 -1.730219e+00 1.068472e+02 -4.139458e-01 9.892016e+01 6.122672e-01 9.104778e+01 1.318433e+00 8.293353e+01 1.774255e+00 7.505564e+01 1.717309e+00 6.683338e+01 2.183139e+00 5.897412e+01 2.356014e+00 5.123334e+01 2.404067e+00 4.347697e+01 2.308924e+00 3.561933e+01 2.112411e+00 2.777198e+01 1.916485e+00 2.000281e+01 1.739249e+00 1.226661e+01 1.490854e+00 4.534393e+00 1.225256e+00 -3.220243e+00 9.915758e-01 -1.098882e+01 7.222113e-01 -1.881033e+01 4.067307e-01 -2.660688e+01 8.604748e-02 -3.435541e+01 -2.075833e-01 -4.209210e+01 -4.189342e-01 -4.961591e+01 -3.474845e-01 -5.723076e+01 -2.072675e-01 -6.462832e+01 -2.997175e-01 -7.204436e+01 -4.390170e-01 -7.961218e+01 -6.643626e-01 -8.734392e+01 -1.043113e+00 -9.524276e+01 -1.635298e+00 -1.033284e+02 
-3.608160e+00 -1.136774e+02 -4.990674e+00 -1.223431e+02 -6.949782e+00 1.254221e+02 -4.613250e+00 1.167405e+02 -2.752790e+00 1.083380e+02 -1.266792e+00 1.001251e+02 -1.006871e-01 9.197409e+01 7.476945e-01 8.382137e+01 1.332768e+00 7.598179e+01 1.251742e+00 6.774375e+01 1.644351e+00 5.965160e+01 1.846449e+00 5.166656e+01 1.910088e+00 4.370965e+01 1.834968e+00 3.572805e+01 1.665716e+00 2.777470e+01 1.485155e+00 1.988201e+01 1.305796e+00 1.202519e+01 1.078752e+00 4.175215e+00 8.270654e-01 -3.687613e+00 5.753168e-01 -1.156082e+01 2.750394e-01 -1.945642e+01 -8.996886e-02 -2.734010e+01 -4.572649e-01 -3.519215e+01 -7.677379e-01 -4.303211e+01 -9.645945e-01 -5.075386e+01 -7.970756e-01 -5.832900e+01 -7.379376e-01 -6.586343e+01 -8.927831e-01 -7.344577e+01 -1.128492e+00 -8.115555e+01 -1.452960e+00 -8.901831e+01 -1.927039e+00 -9.704438e+01 -2.619478e+00 -1.052542e+02 
-3.742638e+00 -1.132074e+02 -5.322414e+00 -1.220572e+02 -7.525110e+00 1.262533e+02 -5.046845e+00 1.173197e+02 -3.080117e+00 1.086751e+02 -1.526785e+00 1.002473e+02 -3.261219e-01 9.194999e+01 5.516649e-01 8.373943e+01 1.155781e+00 7.571707e+01 1.403753e+00 6.764193e+01 1.768525e+00 5.962937e+01 2.000049e+00 5.169319e+01 2.096894e+00 4.379072e+01 2.069421e+00 3.589216e+01 1.958655e+00 2.802075e+01 1.818138e+00 2.019450e+01 1.661252e+00 1.240137e+01 1.467777e+00 4.620637e+00 1.248201e+00 -3.167483e+00 1.014793e+00 -1.096410e+01 7.468199e-01 -1.876764e+01 4.434711e-01 -2.655039e+01 1.455713e-01 -3.429331e+01 -1.073133e-01 -4.200942e+01 -2.758466e-01 -4.967341e+01 -3.048961e-01 -5.737102e+01 -2.958404e-01 -6.503726e+01 -4.585151e-01 -7.269366e+01 -7.516545e-01 -8.043246e+01 -1.169914e+00 -8.831552e+01 -1.760296e+00 -9.638104e+01 -2.590534e+00 -1.046648e+02 
-4.746169e+00 -1.150245e+02 -6.449532e+00 -1.239854e+02 -8.808737e+00 1.278706e+02 -6.154689e+00 1.187780e+02 -4.027899e+00 1.099553e+02 -2.334344e+00 1.013486e+02 -1.013459e+00 9.290986e+01 -2.755861e-02 8.462188e+01 6.334397e-01 7.650051e+01 9.267129e-01 6.831851e+01 1.273916e+00 6.016656e+01 1.515265e+00 5.206974e+01 1.627526e+00 4.401718e+01 1.617845e+00 3.599389e+01 1.524168e+00 2.800789e+01 1.392165e+00 2.006574e+01 1.237764e+00 1.215844e+01 1.049558e+00 4.267480e+00 8.295304e-01 -3.621788e+00 5.813182e-01 -1.151113e+01 2.900914e-01 -1.939807e+01 -3.972643e-02 -2.726972e+01 -3.623345e-01 -3.511689e+01 -6.323371e-01 -4.295118e+01 -8.102686e-01 -5.074394e+01 -8.205621e-01 -5.849447e+01 -8.712846e-01 -6.623449e+01 -1.076979e+00 -7.400275e+01 -1.422596e+00 -8.185635e+01 -1.908824e+00 -8.984576e+01 -2.576848e+00 -9.801010e+01 -3.493802e+00 -1.063877e+02 
-4.797180e+00 -1.144702e+02 -6.675341e+00 -1.235855e+02 -9.258198e+00 1.285449e+02 -6.479326e+00 1.192551e+02 -4.258367e+00 1.102559e+02 -2.493821e+00 1.015030e+02 -1.119189e+00 9.295670e+01 -8.597067e-02 8.458910e+01 6.394257e-01 7.638413e+01 1.078612e+00 6.823663e+01 1.458850e+00 6.013574e+01 1.727887e+00 5.209301e+01 1.869214e+00 4.410175e+01 1.894767e+00 3.615080e+01 1.838019e+00 2.823899e+01 1.736436e+00 2.036628e+01 1.606959e+00 1.252522e+01 1.445964e+00 4.701373e+00 1.252975e+00 -3.117003e+00 1.029220e+00 -1.093106e+01 7.701571e-01 -1.873554e+01 4.856517e-01 -2.652034e+01 2.085810e-01 -3.428382e+01 -3.121615e-02 -4.204355e+01 -2.168273e-01 -4.980268e+01 -3.372390e-01 -5.757954e+01 -4.432305e-01 -6.537108e+01 -6.718881e-01 -7.318345e+01 -1.057322e+00 -8.106755e+01 -1.611259e+00 -8.908492e+01 -2.371717e+00 -9.728977e+01 -3.404079e+00 -1.057327e+02 
-5.699096e+00 -1.160768e+02 -7.680092e+00 -1.252720e+02 -1.039682e+01 1.298596e+02 -7.466706e+00 1.204602e+02 -5.112636e+00 1.113421e+02 -3.231957e+00 1.024711e+02 -1.759207e+00 9.381861e+01 -6.485493e-01 8.535789e+01 1.256065e-01 7.705438e+01 5.987256e-01 6.878830e+01 9.932173e-01 6.056479e+01 1.273535e+00 5.239838e+01 1.425506e+00 4.428780e+01 1.461130e+00 3.622521e+01 1.412106e+00 2.820525e+01 1.314207e+00 2.022509e+01 1.186448e+00 1.227865e+01 1.025806e+00 4.353282e+00 8.286366e-01 -3.560221e+00 5.930523e-01 -1.146381e+01 3.154036e-01 -1.935572e+01 8.556843e-03 -2.723277e+01 -2.923890e-01 -3.509807e+01 -5.544822e-01 -4.296464e+01 -7.547677e-01 -5.082381e+01 -8.734966e-01 -5.867275e+01 -1.013048e+00 -6.652910e+01 -1.279085e+00 -7.441752e+01 -1.704498e+00 -8.238319e+01 -2.306646e+00 -9.048022e+01 -3.124697e+00 -9.875966e+01 -4.224837e+00 -1.072718e+02 
-5.654983e+00 -1.154208e+02 -7.782140e+00 -1.247409e+02 -1.068889e+01 1.303542e+02 -7.653945e+00 1.208069e+02 -5.220420e+00 1.115630e+02 -3.275467e+00 1.025865e+02 -1.748307e+00 9.384806e+01 -5.823461e-01 8.532589e+01 2.712225e-01 7.699356e+01 8.024869e-01 6.873899e+01 1.234742e+00 6.053491e+01 1.545276e+00 5.241089e+01 1.720380e+00 4.436010e+01 1.778161e+00 3.636827e+01 1.748698e+00 2.842106e+01 1.670205e+00 2.051145e+01 1.564554e+00 1.263363e+01 1.428769e+00 4.774927e+00 1.257846e+00 -3.070795e+00 1.048510e+00 -1.090441e+01 7.990060e-01 -1.872323e+01 5.222635e-01 -2.652458e+01 2.476445e-01 -3.431719e+01 1.082620e-03 -4.211878e+01 -2.093990e-01 -4.993629e+01 -4.064137e-01 -5.778348e+01 -5.836457e-01 -6.565982e+01 -8.754560e-01 -7.356069e+01 -1.336286e+00 -8.153663e+01 -1.989102e+00 -8.965224e+01 -2.876251e+00 -9.796573e+01 -4.066463e+00 -1.065329e+02 
-6.447991e+00 -1.168384e+02 -8.652419e+00 -1.262078e+02 -1.166428e+01 1.313713e+02 -8.506106e+00 1.217596e+02 -5.967148e+00 1.124443e+02 -3.929119e+00 1.033909e+02 -2.322906e+00 9.457012e+01 -1.100003e+00 8.596213e+01 -2.084487e-01 7.755268e+01 3.353848e-01 6.917817e+01 7.989461e-01 6.086355e+01 1.121447e+00 5.264124e+01 1.301544e+00 4.449533e+01 1.360933e+00 3.640803e+01 1.329819e+00 2.836267e+01 1.249598e+00 2.035431e+01 1.145576e+00 1.238021e+01 1.009910e+00 4.427679e+00 8.352071e-01 -3.507710e+00 6.168029e-01 -1.142740e+01 3.494676e-01 -1.933356e+01 4.676792e-02 -2.722753e+01 -2.572675e-01 -3.511913e+01 -5.328389e-01 -4.302217e+01 -7.618564e-01 -5.092881e+01 -9.460303e-01 -5.884570e+01 -1.134103e+00 -6.677221e+01 -1.455935e+00 -7.472105e+01 -1.949607e+00 -8.275045e+01 -2.636807e+00 -9.092276e+01 -3.563202e+00 -9.929077e+01 -4.800691e+00 -1.079067e+02 
-6.294488e+00 -1.160695e+02 -8.612175e+00 -1.255341e+02 -1.177627e+01 1.316476e+02 -8.538648e+00 1.219341e+02 -5.942735e+00 1.125413e+02 -3.854168e+00 1.034258e+02 -2.197995e+00 9.454431e+01 -9.220270e-01 8.589302e+01 7.526771e-02 7.751482e+01 6.140195e-01 6.913729e+01 1.102623e+00 6.080758e+01 1.453089e+00 5.262708e+01 1.647474e+00 4.454715e+01 1.717968e+00 3.653605e+01 1.686844e+00 2.856327e+01 1.612205e+00 2.062563e+01 1.527601e+00 1.272343e+01 1.416789e+00 4.835555e+00 1.269952e+00 -3.034816e+00 1.078658e+00 -1.088757e+01 8.357669e-01 -1.872584e+01 5.506764e-01 -2.654844e+01 2.599279e-01 -3.437662e+01 -6.600837e-03 -4.221717e+01 -2.282488e-01 -5.006492e+01 -5.014054e-01 -5.797684e+01 -7.046506e-01 -6.590482e+01 -1.048755e+00 -7.382593e+01 -1.570162e+00 -8.183939e+01 -2.289026e+00 -9.001843e+01 -3.260285e+00 -9.841274e+01 -4.561518e+00 -1.070729e+02 
-6.969359e+00 -1.173191e+02 -9.334659e+00 -1.268026e+02 -1.256896e+01 1.323619e+02 -9.241305e+00 1.226264e+02 -6.572374e+00 1.132067e+02 -4.417043e+00 1.040587e+02 -2.696065e+00 9.512815e+01 -1.372654e+00 8.639308e+01 -3.500855e-01 7.798544e+01 1.684440e-01 6.943426e+01 7.043372e-01 6.102216e+01 1.058314e+00 5.278064e+01 1.252132e+00 4.463310e+01 1.317438e+00 3.654347e+01 1.272945e+00 2.847983e+01 1.189198e+00 2.044985e+01 1.109899e+00 1.246075e+01 1.001693e+00 4.484435e+00 8.531065e-01 -3.470762e+00 6.566309e-01 -1.140105e+01 3.953609e-01 -1.932060e+01 7.612372e-02 -2.723372e+01 -2.517155e-01 -3.516443e+01 -5.595657e-01 -4.312066e+01 -8.121446e-01 -5.105767e+01 -1.033300e+00 -5.903150e+01 -1.228321e+00 -6.696607e+01 -1.602300e+00 -7.490213e+01 -2.146984e+00 -8.295021e+01 -2.883889e+00 -9.117272e+01 -3.875095e+00 -9.960784e+01 -5.202122e+00 -1.083002e+02 
-6.690058e+00 -1.164306e+02 -9.132235e+00 -1.259793e+02 -1.247654e+01 1.323745e+02 -9.105242e+00 1.225765e+02 -6.415419e+00 1.131261e+02 -4.237461e+00 1.039853e+02 -2.474169e+00 9.506448e+01 -1.100742e+00 8.627543e+01 7.756905e-02 7.801659e+01 5.846862e-01 6.930037e+01 1.061324e+00 6.087892e+01 1.443096e+00 5.272526e+01 1.644498e+00 4.466782e+01 1.721580e+00 3.666715e+01 1.645577e+00 2.866585e+01 1.545819e+00 2.070150e+01 1.487283e+00 1.279593e+01 1.407681e+00 4.875108e+00 1.293157e+00 -3.020391e+00 1.122434e+00 -1.087609e+01 8.869756e-01 -1.872429e+01 5.721261e-01 -2.655503e+01 2.552649e-01 -3.443732e+01 -4.225141e-02 -4.236521e+01 -2.573440e-01 -5.021950e+01 -5.987041e-01 -5.823300e+01 -8.292152e-01 -6.608038e+01 -1.216069e+00 -7.392787e+01 -1.754605e+00 -8.195274e+01 -2.490846e+00 -9.018364e+01 -3.500906e+00 -9.864036e+01 -4.866292e+00 -1.073654e+02 
-7.236786e+00 -1.175320e+02 -9.693095e+00 -1.270703e+02 -1.306490e+01 1.327771e+02 -9.643532e+00 1.229942e+02 -6.918828e+00 1.135557e+02 -4.712594e+00 1.044310e+02 -2.918391e+00 9.554119e+01 -1.476974e+00 8.677581e+01 -2.921794e-01 7.836771e+01 1.677544e-01 6.930526e+01 6.817907e-01 6.097927e+01 1.069829e+00 5.281077e+01 1.271663e+00 4.472176e+01 1.344669e+00 3.665557e+01 1.233043e+00 2.855958e+01 1.110897e+00 2.050226e+01 1.071205e+00 1.252554e+01 9.995903e-01 4.515329e+00 8.864905e-01 -3.469207e+00 7.143816e-01 -1.138047e+01 4.608717e-01 -1.928791e+01 9.635682e-02 -2.720441e+01 -2.616807e-01 -3.518665e+01 -6.129266e-01 -4.326267e+01 -9.042992e-01 -5.138064e+01 -1.133257e+00 -5.930648e+01 -1.351369e+00 -6.703982e+01 -1.759091e+00 -7.489043e+01 -2.292610e+00 -8.295944e+01 -3.023876e+00 -9.123466e+01 -4.034486e+00 -9.972313e+01 -5.404583e+00 -1.084650e+02 
-6.816323e+00 -1.165165e+02 -9.308267e+00 -1.260924e+02 -1.272843e+01 1.324958e+02 -9.318722e+00 1.226693e+02 -6.621201e+00 1.131996e+02 -4.455303e+00 1.040899e+02 -2.691275e+00 9.541431e+01 -1.134975e+00 8.718386e+01 1.266147e-01 7.841106e+01 1.173214e+00 6.855122e+01 8.631740e-01 6.079792e+01 1.491278e+00 5.272488e+01 1.701827e+00 4.477758e+01 1.834321e+00 3.680996e+01 1.614306e+00 2.872679e+01 1.437171e+00 2.070002e+01 1.421863e+00 1.287195e+01 1.394757e+00 4.885190e+00 1.344615e+00 -3.082304e+00 1.164149e+00 -1.086860e+01 9.606598e-01 -1.868034e+01 5.703139e-01 -2.650157e+01 2.253549e-01 -3.437856e+01 -9.441286e-03 -4.235551e+01 -3.340182e-01 -5.103913e+01 -5.971857e-01 -5.870287e+01 -1.250449e+00 -6.586599e+01 -1.428286e+00 -7.375617e+01 -1.850019e+00 -8.187916e+01 -2.552945e+00 -9.017154e+01 -3.568126e+00 -9.866825e+01 -4.956652e+00 -1.074244e+02 
-7.227641e+00 -1.174867e+02 -9.696176e+00 -1.270248e+02 -1.309099e+01 1.325897e+02 -9.679868e+00 1.228068e+02 -6.984995e+00 1.133687e+02 -4.824015e+00 1.042959e+02 -3.052952e+00 9.573072e+01 -1.415893e+00 8.776933e+01 2.725588e-03 7.877937e+01 1.151397e+00 6.833947e+01 3.612242e-01 6.085281e+01 1.118354e+00 5.272378e+01 1.314457e+00 4.475998e+01 1.458553e+00 3.673087e+01 1.160391e+00 2.854355e+01 9.474126e-01 2.042551e+01 9.469787e-01 1.256235e+01 9.322188e-01 4.476783e+00 8.978095e-01 -3.594535e+00 7.011085e-01 -1.142273e+01 4.952446e-01 -1.928690e+01 6.159974e-02 -2.717202e+01 -3.025900e-01 -3.509534e+01 -5.007021e-01 -4.311480e+01 -8.120523e-01 -5.240673e+01 -1.020879e+00 -5.963761e+01 -1.822416e+00 -6.661102e+01 -1.928822e+00 -7.460966e+01 -2.316834e+00 -8.281231e+01 -3.007465e+00 -9.114547e+01 -4.012484e+00 -9.965898e+01 -5.386884e+00 -1.084137e+02 