# vtk DataFile Version 2.0
Comment goes here
ASCII

DATASET STRUCTURED_POINTS
FIELD FieldData 1
TIME 1 1 double
0.09700000
DIMENSIONS    256   32   1

ORIGIN    0.000   0.000   0.000
SPACING   0.0078125 0.0078125   1.000

POINT_DATA   8192
SCALARS P double
LOOKUP_TABLE default

-1.903939e+00 -1.890082e+00 -1.898991e+00 -1.883734e+00 -1.908068e+00 -1.892609e+00 -1.905682e+00 -1.787732e+00 -1.844535e+00 -1.691592e+00 -1.806271e+00 -1.659795e+00 -1.772782e+00 -1.710816e+00 -1.842783e+00 -1.564778e+00 -1.906950e+00 -1.484356e+00 -1.741213e+00 -1.436856e+00 -1.290295e+00 -1.264768e+00 -1.162882e+00 -9.014890e-01 -1.170837e+00 -6.876271e-01 -1.011189e+00 -7.031294e-01 -7.665011e-01 -7.711972e-01 -5.490897e-01 -7.100081e-01 -5.036607e-01 -5.271426e-01 -5.625146e-01 -3.325268e-01 -5.435044e-01 -2.605330e-01 -3.991308e-01 -3.161408e-01 -2.199612e-01 -3.294582e-01 -1.226823e-01 -2.256070e-01 -1.615625e-01 -7.031521e-02 -1.898190e-01 3.648514e-02 -1.207974e-01 1.598986e-02 1.002913e-02 -2.245615e-02 1.177587e-01 1.399233e-02 1.171202e-01 1.168424e-01 7.582734e-02 2.165125e-01 8.061806e-02 2.321429e-01 1.538579e-01 1.881049e-01 2.472241e-01 1.743227e-01 2.748658e-01 2.207320e-01 2.345110e-01 2.982236e-01 2.031023e-01 3.348292e-01 2.327364e-01 3.026488e-01 3.007791e-01 2.697876e-01 3.468761e-01 2.860430e-01 3.287952e-01 3.455697e-01 2.976416e-01 3.949172e-01 3.018321e-01 3.864546e-01 3.461301e-01 3.514929e-01 3.866530e-01 3.364048e-01 3.800337e-01 3.586017e-01 3.392347e-01 3.888353e-01 3.108364e-01 3.879019e-01 3.211908e-01 3.505387e-01 3.506233e-01 3.204390e-01 3.547734e-01 3.220520e-01 3.252537e-01 3.438938e-01 2.924801e-01 3.512948e-01 2.850880e-01 3.232538e-01 2.981127e-01 2.863548e-01 3.017112e-01 2.672120e-01 2.741241e-01 2.701956e-01 2.342738e-01 2.710272e-01 2.081982e-01 2.473284e-01 2.052530e-01 2.083896e-01 2.052764e-01 1.776763e-01 1.859100e-01 1.667478e-01 1.458640e-01 1.609338e-01 1.072924e-01 1.389029e-01 8.490436e-02 9.347193e-02 7.166383e-02 4.725701e-02 4.978773e-02 1.797538e-02 5.782907e-03 6.640705e-03 -3.544437e-02 -7.893423e-03 -5.803116e-02 -3.767106e-02 -6.256026e-02 -6.873851e-02 -6.747999e-02 -8.563846e-02 -8.607197e-02 -8.760795e-02 -1.096575e-01 -9.095236e-02 -1.259905e-01 -1.071585e-01 -1.336150e-01 -1.326193e-01 -1.446070e-01 -1.570192e-01 -1.677736e-01 -1.774243e-01 -2.021157e-01 -2.009079e-01 -2.381776e-01 -2.343062e-01 -2.707031e-01 -2.785740e-01 -3.026791e-01 -3.234311e-01 -3.402896e-01 -3.633152e-01 -3.870342e-01 -3.946841e-01 -4.309712e-01 -4.281596e-01 -4.653508e-01 -4.669613e-01 -4.909970e-01 -5.044316e-01 -5.161828e-01 -5.331910e-01 -5.461673e-01 -5.529142e-01 -5.762088e-01 -5.722570e-01 -5.993560e-01 -5.963955e-01 -6.156106e-01 -6.220207e-01 -6.334065e-01 -6.432515e-01 -6.568075e-01 -6.611129e-01 -6.826514e-01 -6.831089e-01 -7.062775e-01 -7.117427e-01 -7.293182e-01 -7.435050e-01 -7.580666e-01 -7.740467e-01 -7.951004e-01 -8.052545e-01 -8.335515e-01 -8.405107e-01 -8.691855e-01 -8.813812e-01 -9.033843e-01 -9.237336e-01 -9.410882e-01 -9.637323e-01 -9.838317e-01 -1.002216e+00 -1.029487e+00 -1.041992e+00 -1.073764e+00 -1.085930e+00 -1.115100e+00 -1.132851e+00 -1.154657e+00 -1.178585e+00 -1.196285e+00 -1.220190e+00 -1.240339e+00 -1.258068e+00 -1.284443e+00 -1.296228e+00 -1.324450e+00 -1.336523e+00 -1.359661e+00 -1.378237e+00 -1.394055e+00 -1.417277e+00 -1.431284e+00 -1.451961e+00 -1.471668e+00 -1.484942e+00 -1.510107e+00 -1.520313e+00 -1.544139e+00 -1.559144e+00 -1.575251e+00 -1.597269e+00 -1.608707e+00 -1.630971e+00 -1.645694e+00 -1.661098e+00 -1.682834e+00 -1.693185e+00 -1.715948e+00 -1.728923e+00 -1.745306e+00 -1.765395e+00 -1.776363e+00 -1.798244e+00 -1.811091e+00 -1.826630e+00 -1.846887e+00 -1.856574e+00 -1.882494e+00 -1.887905e+00 -1.898259e+00 -1.897312e+00 -1.904672e+00 -1.897679e+00 
-2.376108e+00 -2.515286e+00 -2.379348e+00 -2.527069e+00 -2.395780e+00 -2.558319e+00 -2.384264e+00 -2.459169e+00 -2.304615e+00 -2.376944e+00 -2.239011e+00 -2.361229e+00 -2.108562e+00 -2.562669e+00 -2.077709e+00 -2.030482e+00 -1.886967e+00 -1.717676e+00 -1.427800e+00 -1.465063e+00 -6.429342e-01 -8.473180e-01 -5.320046e-01 -2.916110e-01 -5.383395e-01 -2.477702e-02 -4.197455e-01 -2.672103e-02 -1.921623e-01 -1.057538e-01 1.335042e-02 -6.203075e-02 4.050691e-02 1.214659e-01 -4.760587e-02 3.178969e-01 -5.486867e-02 3.831358e-01 8.314292e-02 3.046241e-01 2.627483e-01 2.681687e-01 3.564006e-01 3.629783e-01 2.981134e-01 5.175994e-01 2.495099e-01 6.204557e-01 3.078293e-01 5.812346e-01 4.381210e-01 5.207287e-01 5.432999e-01 5.412355e-01 5.287407e-01 6.394079e-01 4.701729e-01 7.346908e-01 4.606955e-01 7.395673e-01 5.303012e-01 6.759918e-01 6.250495e-01 6.473397e-01 6.411099e-01 6.811418e-01 5.853893e-01 7.519107e-01 5.363097e-01 7.808117e-01 5.590436e-01 7.323643e-01 6.249986e-01 6.823241e-01 6.664601e-01 6.859444e-01 6.340229e-01 7.388633e-01 5.879593e-01 7.807236e-01 5.810141e-01 7.577596e-01 6.209433e-01 7.063437e-01 6.568219e-01 6.768313e-01 6.408790e-01 6.911315e-01 5.864326e-01 7.145452e-01 5.457079e-01 7.036387e-01 5.497889e-01 6.499897e-01 5.765063e-01 6.051507e-01 5.695583e-01 5.959338e-01 5.289568e-01 6.091678e-01 4.828317e-01 6.075395e-01 4.674797e-01 5.655895e-01 4.754530e-01 5.147330e-01 4.728337e-01 4.839779e-01 4.346140e-01 4.788389e-01 3.835731e-01 4.708689e-01 3.479967e-01 4.350887e-01 3.390044e-01 3.826176e-01 3.326389e-01 3.396098e-01 3.048497e-01 3.193286e-01 2.539737e-01 3.046711e-01 2.055152e-01 2.726250e-01 1.753471e-01 2.133834e-01 1.548573e-01 1.532956e-01 1.261332e-01 1.118763e-01 6.890692e-02 9.220574e-02 1.797791e-02 6.767701e-02 -1.260929e-02 2.534691e-02 -2.356731e-02 -1.834477e-02 -3.592508e-02 -4.653961e-02 -6.449874e-02 -5.805672e-02 -9.824591e-02 -7.179083e-02 -1.234743e-01 -9.987046e-02 -1.384432e-01 -1.378902e-01 -1.572827e-01 -1.737912e-01 -1.892346e-01 -2.044113e-01 -2.331770e-01 -2.379462e-01 -2.780431e-01 -2.818524e-01 -3.185300e-01 -3.384386e-01 -3.581942e-01 -3.952477e-01 -4.041830e-01 -4.478669e-01 -4.617965e-01 -4.881711e-01 -5.147183e-01 -5.324515e-01 -5.570053e-01 -5.828500e-01 -5.899273e-01 -6.320138e-01 -6.230419e-01 -6.717889e-01 -6.622016e-01 -7.015608e-01 -7.017260e-01 -7.315280e-01 -7.334892e-01 -7.672667e-01 -7.573500e-01 -8.050063e-01 -7.832751e-01 -8.374492e-01 -8.156874e-01 -8.655818e-01 -8.508573e-01 -8.980902e-01 -8.829062e-01 -9.379177e-01 -9.136971e-01 -9.814817e-01 -9.500913e-01 -1.023737e+00 -9.978247e-01 -1.066582e+00 -1.045597e+00 -1.112385e+00 -1.090056e+00 -1.164767e+00 -1.131779e+00 -1.218314e+00 -1.177292e+00 -1.269055e+00 -1.228320e+00 -1.317963e+00 -1.282681e+00 -1.368025e+00 -1.335557e+00 -1.422735e+00 -1.385051e+00 -1.480900e+00 -1.432300e+00 -1.538009e+00 -1.481968e+00 -1.590494e+00 -1.534575e+00 -1.638666e+00 -1.587622e+00 -1.687226e+00 -1.636037e+00 -1.738356e+00 -1.679007e+00 -1.791550e+00 -1.721073e+00 -1.841820e+00 -1.766593e+00 -1.887153e+00 -1.816204e+00 -1.930493e+00 -1.863620e+00 -1.976783e+00 -1.905936e+00 -2.027219e+00 -1.944718e+00 -2.077012e+00 -1.986362e+00 -2.121718e+00 -2.032259e+00 -2.162168e+00 -2.078617e+00 -2.205064e+00 -2.120257e+00 -2.252343e+00 -2.157394e+00 -2.300859e+00 -2.196563e+00 -2.345330e+00 -2.239994e+00 -2.384693e+00 -2.285329e+00 -2.427641e+00 -2.332503e+00 -2.473193e+00 -2.354649e+00 -2.493736e+00 -2.368576e+00 -2.507443e+00 
-1.915753e+00 -1.907156e+00 -1.922410e+00 -1.919796e+00 -1.960856e+00 -1.975429e+00 -1.937900e+00 -1.784175e+00 -1.836257e+00 -1.666731e+00 -1.820148e+00 -1.634696e+00 -1.772477e+00 -1.871783e+00 -1.874143e+00 -1.528916e+00 -2.024726e+00 -1.478715e+00 -1.909091e+00 -1.543158e+00 -1.202381e+00 -1.412279e+00 -1.172428e+00 -8.400891e-01 -1.254241e+00 -6.215771e-01 -1.099001e+00 -6.930417e-01 -7.532310e-01 -8.283684e-01 -4.861668e-01 -8.052896e-01 -4.773297e-01 -5.395408e-01 -5.956919e-01 -2.836725e-01 -6.315300e-01 -2.278829e-01 -4.274873e-01 -3.329175e-01 -1.845503e-01 -4.035282e-01 -8.246959e-02 -2.629384e-01 -1.626244e-01 -4.576692e-02 -2.449548e-01 7.981856e-02 -1.626802e-01 2.706320e-02 2.313777e-02 -6.305627e-02 1.563464e-01 -3.296601e-02 1.325870e-01 1.155817e-01 4.944418e-02 2.472582e-01 3.356996e-02 2.563048e-01 1.418659e-01 1.720399e-01 2.787764e-01 1.426377e-01 3.020701e-01 2.005947e-01 2.296816e-01 3.123118e-01 1.633404e-01 3.597915e-01 2.099592e-01 3.047522e-01 3.122645e-01 2.428876e-01 3.745023e-01 2.615205e-01 3.347981e-01 3.491216e-01 2.753591e-01 4.169632e-01 2.746582e-01 3.959822e-01 3.436664e-01 3.363004e-01 4.038729e-01 3.093655e-01 3.930929e-01 3.497111e-01 3.288496e-01 4.002839e-01 2.839575e-01 4.027428e-01 3.076602e-01 3.437978e-01 3.631777e-01 3.005191e-01 3.660090e-01 3.081903e-01 3.247064e-01 3.471123e-01 2.740186e-01 3.645094e-01 2.708500e-01 3.252309e-01 3.005537e-01 2.740941e-01 3.147248e-01 2.534496e-01 2.787859e-01 2.701843e-01 2.256290e-01 2.820480e-01 1.951852e-01 2.545078e-01 2.036917e-01 2.039616e-01 2.147719e-01 1.671558e-01 1.960896e-01 1.643202e-01 1.453137e-01 1.691343e-01 9.888582e-02 1.510781e-01 8.014268e-02 9.375901e-02 7.471898e-02 3.775530e-02 6.163057e-02 5.957542e-03 1.136679e-03 7.126421e-03 -4.659416e-02 -1.914540e-03 -6.758477e-02 -3.740971e-02 -6.248298e-02 -7.582088e-02 -6.085758e-02 -9.289635e-02 -8.361814e-02 -8.679591e-02 -1.132155e-01 -8.460558e-02 -1.301868e-01 -1.023647e-01 -1.317140e-01 -1.329090e-01 -1.384371e-01 -1.589575e-01 -1.621577e-01 -1.758989e-01 -2.010727e-01 -1.958809e-01 -2.397517e-01 -2.281448e-01 -2.708807e-01 -2.780435e-01 -2.998508e-01 -3.250004e-01 -3.351679e-01 -3.701194e-01 -3.902187e-01 -3.939342e-01 -4.367012e-01 -4.266730e-01 -4.699137e-01 -4.679952e-01 -4.914064e-01 -5.087541e-01 -5.140326e-01 -5.375759e-01 -5.462950e-01 -5.531527e-01 -5.796413e-01 -5.699915e-01 -6.027060e-01 -5.955686e-01 -6.148443e-01 -6.240627e-01 -6.306628e-01 -6.449443e-01 -6.556145e-01 -6.592460e-01 -6.836575e-01 -6.797800e-01 -7.063900e-01 -7.095316e-01 -7.262049e-01 -7.432973e-01 -7.524312e-01 -7.729066e-01 -7.947979e-01 -8.040288e-01 -8.357064e-01 -8.382196e-01 -8.708130e-01 -8.819007e-01 -9.019566e-01 -9.256285e-01 -9.389654e-01 -9.647038e-01 -9.827761e-01 -1.001556e+00 -1.030469e+00 -1.039972e+00 -1.075297e+00 -1.084596e+00 -1.115884e+00 -1.133517e+00 -1.153518e+00 -1.180580e+00 -1.195051e+00 -1.221941e+00 -1.240411e+00 -1.257817e+00 -1.286459e+00 -1.295103e+00 -1.326606e+00 -1.335674e+00 -1.359719e+00 -1.379247e+00 -1.392286e+00 -1.419100e+00 -1.429388e+00 -1.452481e+00 -1.472555e+00 -1.483623e+00 -1.512395e+00 -1.518740e+00 -1.545650e+00 -1.559698e+00 -1.574200e+00 -1.599601e+00 -1.607051e+00 -1.632825e+00 -1.645776e+00 -1.660219e+00 -1.685012e+00 -1.691556e+00 -1.717947e+00 -1.728796e+00 -1.744637e+00 -1.767391e+00 -1.774761e+00 -1.800556e+00 -1.810750e+00 -1.825943e+00 -1.846856e+00 -1.855829e+00 -1.893100e+00 -1.901514e+00 -1.905869e+00 -1.904591e+00 -1.911637e+00 -1.907021e+00 
-2.397359e+00 -2.544779e+00 -2.425513e+00 -2.594315e+00 -2.507276e+00 -2.727914e+00 -2.552319e+00 -2.555671e+00 -2.430163e+00 -2.538214e+00 -2.451606e+00 -2.611197e+00 -2.469466e+00 -2.724529e+00 -1.871238e+00 -1.885305e+00 -1.318363e+00 -1.162257e+00 -6.537585e-01 -1.867435e-01 4.509650e-01 3.983596e-01 8.394659e-01 1.059576e+00 7.043742e-01 1.075470e+00 7.647508e-01 1.028507e+00 9.760252e-01 9.869572e-01 1.030007e+00 1.004794e+00 9.434730e-01 1.185283e+00 9.196799e-01 1.264904e+00 8.937651e-01 1.178764e+00 1.036709e+00 1.160488e+00 1.126240e+00 1.116701e+00 1.073976e+00 1.216859e+00 1.054217e+00 1.300559e+00 1.007416e+00 1.274625e+00 1.068813e+00 1.250549e+00 1.148561e+00 1.196171e+00 1.143155e+00 1.215699e+00 1.113054e+00 1.278343e+00 1.071932e+00 1.292240e+00 1.064519e+00 1.262348e+00 1.118453e+00 1.216968e+00 1.147621e+00 1.202807e+00 1.117775e+00 1.197534e+00 1.048099e+00 1.219043e+00 1.005182e+00 1.183215e+00 1.025109e+00 1.146939e+00 1.048737e+00 1.102617e+00 1.033862e+00 1.104620e+00 1.000085e+00 1.121370e+00 9.593077e-01 1.112404e+00 9.517892e-01 1.080439e+00 9.666113e-01 1.034934e+00 9.613449e-01 1.008099e+00 9.284065e-01 1.009010e+00 8.816238e-01 9.995288e-01 8.457819e-01 9.642857e-01 8.429633e-01 9.131723e-01 8.393572e-01 8.744374e-01 8.010949e-01 8.449691e-01 7.444265e-01 8.321959e-01 7.027188e-01 8.014090e-01 6.869353e-01 7.566061e-01 6.766711e-01 7.090467e-01 6.494546e-01 6.810208e-01 6.043121e-01 6.629036e-01 5.569881e-01 6.337131e-01 5.252975e-01 5.869394e-01 5.076401e-01 5.373103e-01 4.833384e-01 4.980361e-01 4.417952e-01 4.747445e-01 3.931546e-01 4.467180e-01 3.512567e-01 4.031130e-01 3.248716e-01 3.433662e-01 2.950819e-01 2.960676e-01 2.489057e-01 2.435018e-01 1.817515e-01 2.157796e-01 1.345209e-01 1.727119e-01 1.066732e-01 1.253952e-01 8.552116e-02 8.217821e-02 5.724682e-02 5.307787e-02 1.695090e-02 3.127329e-02 -2.094470e-02 2.721278e-03 -4.902433e-02 -3.851393e-02 -6.976731e-02 -8.201667e-02 -9.887981e-02 -1.190751e-01 -1.415069e-01 -1.487200e-01 -1.888749e-01 -1.862579e-01 -2.303295e-01 -2.353680e-01 -2.637394e-01 -2.957764e-01 -3.029318e-01 -3.419046e-01 -3.584385e-01 -4.035065e-01 -4.254401e-01 -4.400969e-01 -4.765295e-01 -4.935219e-01 -5.121835e-01 -5.475478e-01 -5.451235e-01 -5.956032e-01 -5.843816e-01 -6.327404e-01 -6.318050e-01 -6.639477e-01 -6.745941e-01 -7.012021e-01 -7.075099e-01 -7.469054e-01 -7.328136e-01 -7.913453e-01 -7.653181e-01 -8.272359e-01 -8.072667e-01 -8.555446e-01 -8.501923e-01 -8.915637e-01 -8.854256e-01 -9.371731e-01 -9.139738e-01 -9.887486e-01 -9.494376e-01 -1.032490e+00 -1.004502e+00 -1.083217e+00 -1.067297e+00 -1.126353e+00 -1.114137e+00 -1.180688e+00 -1.150730e+00 -1.237260e+00 -1.189409e+00 -1.287896e+00 -1.237285e+00 -1.332051e+00 -1.294329e+00 -1.373480e+00 -1.348235e+00 -1.424998e+00 -1.393518e+00 -1.485953e+00 -1.431751e+00 -1.544575e+00 -1.478372e+00 -1.593307e+00 -1.533156e+00 -1.633063e+00 -1.588740e+00 -1.678864e+00 -1.634345e+00 -1.731681e+00 -1.670171e+00 -1.787986e+00 -1.708971e+00 -1.837433e+00 -1.756061e+00 -1.877774e+00 -1.811576e+00 -1.918033e+00 -1.859584e+00 -1.965884e+00 -1.898474e+00 -2.022055e+00 -1.932985e+00 -2.074249e+00 -1.976092e+00 -2.116968e+00 -2.027622e+00 -2.152672e+00 -2.077793e+00 -2.196494e+00 -2.118730e+00 -2.249017e+00 -2.151077e+00 -2.302010e+00 -2.190088e+00 -2.347189e+00 -2.238232e+00 -2.380670e+00 -2.282626e+00 -2.420558e+00 -2.351621e+00 -2.499504e+00 -2.367684e+00 -2.504732e+00 -2.380039e+00 -2.522034e+00 
-1.942394e+00 -1.947160e+00 -1.978060e+00 -1.998390e+00 -2.077185e+00 -2.141676e+00 -2.217975e+00 -2.083627e+00 -2.145372e+00 -2.098551e+00 -2.137350e+00 -2.052430e+00 -2.150010e+00 -1.665676e+00 -1.297712e+00 -8.715410e-01 -4.363568e-01 1.598330e-01 3.203085e-01 1.536574e+00 1.242556e+00 2.361518e+00 2.256420e+00 2.548346e+00 2.440316e+00 2.313509e+00 2.561227e+00 2.284014e+00 2.493831e+00 2.407717e+00 2.280702e+00 2.512792e+00 2.140446e+00 2.471087e+00 2.254854e+00 2.274120e+00 2.347606e+00 2.078798e+00 2.341723e+00 2.163232e+00 2.170774e+00 2.247191e+00 1.973900e+00 2.261615e+00 2.021967e+00 2.110930e+00 2.096174e+00 1.925530e+00 2.125406e+00 1.938315e+00 2.003687e+00 1.999935e+00 1.832908e+00 2.032441e+00 1.803392e+00 1.936386e+00 1.860949e+00 1.794851e+00 1.902540e+00 1.733509e+00 1.843894e+00 1.779355e+00 1.708829e+00 1.819853e+00 1.621971e+00 1.738794e+00 1.602030e+00 1.619113e+00 1.636317e+00 1.501199e+00 1.606372e+00 1.512708e+00 1.502532e+00 1.540333e+00 1.397762e+00 1.529362e+00 1.393048e+00 1.439548e+00 1.416473e+00 1.340248e+00 1.413190e+00 1.317752e+00 1.339764e+00 1.333359e+00 1.249110e+00 1.336257e+00 1.206490e+00 1.280907e+00 1.217280e+00 1.196196e+00 1.222841e+00 1.134374e+00 1.178384e+00 1.130777e+00 1.088225e+00 1.127451e+00 1.014771e+00 1.065242e+00 9.704257e-01 9.836995e-01 9.671177e-01 9.065120e-01 9.382135e-01 8.838674e-01 8.721213e-01 8.765087e-01 8.016166e-01 8.566746e-01 7.697510e-01 7.988642e-01 7.596122e-01 7.309158e-01 7.429358e-01 6.884341e-01 6.926336e-01 6.735914e-01 6.289063e-01 6.571224e-01 5.783910e-01 6.166404e-01 5.602582e-01 5.581671e-01 5.473911e-01 5.051517e-01 5.181847e-01 4.802552e-01 4.645492e-01 4.709101e-01 3.926096e-01 4.210703e-01 3.545521e-01 3.618103e-01 3.303639e-01 2.968925e-01 3.026814e-01 2.630121e-01 2.517632e-01 2.419955e-01 1.956290e-01 2.147061e-01 1.548232e-01 1.673484e-01 1.273491e-01 1.147956e-01 9.806280e-02 6.923661e-02 5.818962e-02 3.674292e-02 1.162320e-02 7.740953e-03 -3.417953e-02 -2.366159e-02 -6.815867e-02 -6.442884e-02 -9.384208e-02 -1.088416e-01 -1.189002e-01 -1.476693e-01 -1.574728e-01 -1.715147e-01 -2.158111e-01 -2.196481e-01 -2.651545e-01 -2.615635e-01 -3.011050e-01 -3.137310e-01 -3.277892e-01 -3.543545e-01 -3.641109e-01 -3.843810e-01 -4.082108e-01 -4.119205e-01 -4.513036e-01 -4.474100e-01 -4.850992e-01 -4.903869e-01 -5.162825e-01 -5.346227e-01 -5.501192e-01 -5.730112e-01 -5.900920e-01 -6.078195e-01 -6.329722e-01 -6.399378e-01 -6.741640e-01 -6.760129e-01 -7.107779e-01 -7.163186e-01 -7.418357e-01 -7.622216e-01 -7.765663e-01 -8.039726e-01 -8.219668e-01 -8.543756e-01 -8.838687e-01 -8.902478e-01 -9.290689e-01 -9.293630e-01 -9.609232e-01 -9.722235e-01 -9.866880e-01 -1.011905e+00 -1.018462e+00 -1.043423e+00 -1.060330e+00 -1.068517e+00 -1.101980e+00 -1.101610e+00 -1.134951e+00 -1.144548e+00 -1.160526e+00 -1.186943e+00 -1.193687e+00 -1.220325e+00 -1.235044e+00 -1.246284e+00 -1.276943e+00 -1.279068e+00 -1.310149e+00 -1.319002e+00 -1.336684e+00 -1.360668e+00 -1.368060e+00 -1.395988e+00 -1.407088e+00 -1.425102e+00 -1.451309e+00 -1.456648e+00 -1.488344e+00 -1.495310e+00 -1.518980e+00 -1.539398e+00 -1.548761e+00 -1.578805e+00 -1.586315e+00 -1.611351e+00 -1.629568e+00 -1.640352e+00 -1.670289e+00 -1.676439e+00 -1.704116e+00 -1.718554e+00 -1.732474e+00 -1.759947e+00 -1.766253e+00 -1.795225e+00 -1.806673e+00 -1.822295e+00 -1.844559e+00 -1.854749e+00 -1.900411e+00 -1.911837e+00 -1.912348e+00 -1.914156e+00 -1.923748e+00 -1.926627e+00 
-2.422076e+00 -2.576589e+00 -2.468764e+00 -2.637790e+00 -2.554398e+00 -2.746637e+00 -2.677533e+00 -2.782945e+00 -2.692721e+00 -2.834424e+00 -2.740649e+00 -2.864012e+00 -2.863147e+00 -2.839134e+00 -1.690031e+00 -1.450952e+00 -1.245511e-01 -1.999410e-01 1.148563e+00 1.643389e+00 2.505694e+00 3.467731e+00 2.895444e+00 3.356989e+00 3.130059e+00 3.173280e+00 3.228132e+00 3.120496e+00 3.103633e+00 3.197372e+00 2.918537e+00 3.270061e+00 2.810104e+00 3.174717e+00 2.864712e+00 2.991934e+00 2.933277e+00 2.850769e+00 2.876060e+00 2.876123e+00 2.708668e+00 2.935176e+00 2.561650e+00 2.903523e+00 2.562759e+00 2.748856e+00 2.612960e+00 2.600398e+00 2.606032e+00 2.575758e+00 2.475317e+00 2.611494e+00 2.333376e+00 2.614041e+00 2.286461e+00 2.503548e+00 2.316033e+00 2.372976e+00 2.334483e+00 2.304408e+00 2.257457e+00 2.319326e+00 2.128747e+00 2.328482e+00 2.037518e+00 2.237127e+00 2.004048e+00 2.111402e+00 2.015210e+00 2.003338e+00 1.966350e+00 1.985710e+00 1.859817e+00 1.991405e+00 1.762594e+00 1.959714e+00 1.737663e+00 1.862874e+00 1.741825e+00 1.765173e+00 1.721491e+00 1.724358e+00 1.640553e+00 1.719321e+00 1.550722e+00 1.703645e+00 1.499459e+00 1.635902e+00 1.492580e+00 1.547183e+00 1.482545e+00 1.479357e+00 1.426424e+00 1.456884e+00 1.333689e+00 1.432861e+00 1.255230e+00 1.358349e+00 1.200914e+00 1.267968e+00 1.179320e+00 1.186377e+00 1.136702e+00 1.147551e+00 1.064063e+00 1.123887e+00 9.915234e-01 1.087911e+00 9.497634e-01 1.020125e+00 9.264955e-01 9.464210e-01 8.963451e-01 8.942234e-01 8.374846e-01 8.641585e-01 7.690391e-01 8.322795e-01 7.136290e-01 7.791157e-01 6.839395e-01 7.124952e-01 6.582797e-01 6.525912e-01 6.170468e-01 6.164331e-01 5.560699e-01 5.868431e-01 4.815848e-01 5.260819e-01 4.339394e-01 4.545534e-01 3.969744e-01 3.848333e-01 3.559727e-01 3.388756e-01 2.968380e-01 3.030888e-01 2.350656e-01 2.604406e-01 1.867515e-01 2.013551e-01 1.481664e-01 1.391245e-01 1.068048e-01 8.443151e-02 5.615189e-02 3.987607e-02 1.738845e-03 -2.788608e-03 -4.944996e-02 -4.858237e-02 -9.117334e-02 -9.995694e-02 -1.275402e-01 -1.522234e-01 -1.652772e-01 -1.985383e-01 -2.131569e-01 -2.403980e-01 -2.755557e-01 -2.984247e-01 -3.313360e-01 -3.559156e-01 -3.770183e-01 -4.139599e-01 -4.167957e-01 -4.633145e-01 -4.630727e-01 -5.054796e-01 -5.137676e-01 -5.476382e-01 -5.620878e-01 -5.965251e-01 -6.048160e-01 -6.497930e-01 -6.473080e-01 -7.023390e-01 -6.930839e-01 -7.512423e-01 -7.417330e-01 -7.989423e-01 -7.906797e-01 -8.460284e-01 -8.386666e-01 -8.940864e-01 -8.847841e-01 -9.438235e-01 -9.284232e-01 -9.974601e-01 -9.741107e-01 -1.052755e+00 -1.027020e+00 -1.115877e+00 -1.092435e+00 -1.166885e+00 -1.146431e+00 -1.215269e+00 -1.190186e+00 -1.265567e+00 -1.227756e+00 -1.314878e+00 -1.267793e+00 -1.359219e+00 -1.313611e+00 -1.399262e+00 -1.360666e+00 -1.442953e+00 -1.403038e+00 -1.492144e+00 -1.441301e+00 -1.542107e+00 -1.482860e+00 -1.587310e+00 -1.528913e+00 -1.628672e+00 -1.575642e+00 -1.673049e+00 -1.617984e+00 -1.721448e+00 -1.657230e+00 -1.770842e+00 -1.698845e+00 -1.817074e+00 -1.744663e+00 -1.860545e+00 -1.792712e+00 -1.905351e+00 -1.837555e+00 -1.953989e+00 -1.879327e+00 -2.004995e+00 -1.921058e+00 -2.053886e+00 -1.966505e+00 -2.099469e+00 -2.014534e+00 -2.143712e+00 -2.061502e+00 -2.191010e+00 -2.105113e+00 -2.241064e+00 -2.146352e+00 -2.291084e+00 -2.189593e+00 -2.338040e+00 -2.235673e+00 -2.381690e+00 -2.283098e+00 -2.428885e+00 -2.333504e+00 -2.476058e+00 -2.361260e+00 -2.505937e+00 -2.389447e+00 -2.537742e+00 
-1.964370e+00 -1.978386e+00 -2.007091e+00 -2.027974e+00 -2.073711e+00 -2.099545e+00 -2.147901e+00 -2.125129e+00 -2.166249e+00 -2.158290e+00 -2.191326e+00 -2.206383e+00 -2.255099e+00 -2.378829e+00 -1.206720e+00 -1.034955e+00 -1.359963e-01 1.847299e-01 1.026809e+00 1.423461e+00 2.590636e+00 2.508700e+00 2.510699e+00 2.569988e+00 2.565751e+00 2.500930e+00 2.601656e+00 2.468102e+00 2.531547e+00 2.495049e+00 2.426519e+00 2.525051e+00 2.353013e+00 2.471586e+00 2.355065e+00 2.367876e+00 2.376287e+00 2.280247e+00 2.338409e+00 2.265483e+00 2.242820e+00 2.279738e+00 2.154005e+00 2.253415e+00 2.127093e+00 2.165703e+00 2.134862e+00 2.078100e+00 2.118648e+00 2.041775e+00 2.042272e+00 2.042290e+00 1.956983e+00 2.031026e+00 1.911764e+00 1.966220e+00 1.908686e+00 1.888458e+00 1.904355e+00 1.838002e+00 1.853958e+00 1.826971e+00 1.775864e+00 1.815064e+00 1.706384e+00 1.745495e+00 1.660963e+00 1.664936e+00 1.645268e+00 1.595759e+00 1.606921e+00 1.567329e+00 1.540876e+00 1.555303e+00 1.478328e+00 1.526891e+00 1.447011e+00 1.467672e+00 1.433580e+00 1.406699e+00 1.409911e+00 1.370403e+00 1.357865e+00 1.353677e+00 1.299636e+00 1.333250e+00 1.258461e+00 1.288470e+00 1.238871e+00 1.231703e+00 1.219237e+00 1.183692e+00 1.177450e+00 1.155225e+00 1.116179e+00 1.125758e+00 1.054773e+00 1.065349e+00 1.002228e+00 1.002798e+00 9.719436e-01 9.471986e-01 9.359301e-01 9.114057e-01 8.860799e-01 8.852869e-01 8.353150e-01 8.542349e-01 7.979353e-01 8.082602e-01 7.708753e-01 7.581899e-01 7.415090e-01 7.173961e-01 6.989867e-01 6.880423e-01 6.506585e-01 6.592327e-01 6.081418e-01 6.210004e-01 5.781208e-01 5.755383e-01 5.516754e-01 5.328042e-01 5.180054e-01 5.001884e-01 4.725215e-01 4.696004e-01 4.176621e-01 4.173346e-01 3.689296e-01 3.658742e-01 3.336007e-01 3.166423e-01 2.986097e-01 2.786144e-01 2.554956e-01 2.467789e-01 2.099569e-01 2.125277e-01 1.697187e-01 1.705033e-01 1.349212e-01 1.256301e-01 9.998246e-02 8.367328e-02 6.107184e-02 4.720206e-02 1.947414e-02 1.318477e-02 -2.098418e-02 -2.156748e-02 -5.640750e-02 -5.946743e-02 -8.788641e-02 -9.840792e-02 -1.196901e-01 -1.352773e-01 -1.581625e-01 -1.710813e-01 -2.071657e-01 -2.215400e-01 -2.581511e-01 -2.653457e-01 -2.970353e-01 -3.082715e-01 -3.306504e-01 -3.465939e-01 -3.667823e-01 -3.805791e-01 -4.059663e-01 -4.137798e-01 -4.449358e-01 -4.501253e-01 -4.809925e-01 -4.897388e-01 -5.160103e-01 -5.300159e-01 -5.522062e-01 -5.683970e-01 -5.907535e-01 -6.050419e-01 -6.304382e-01 -6.406873e-01 -6.694770e-01 -6.775187e-01 -7.065211e-01 -7.163154e-01 -7.418607e-01 -7.576425e-01 -7.796069e-01 -8.009562e-01 -8.257273e-01 -8.538118e-01 -8.810438e-01 -8.950905e-01 -9.244008e-01 -9.333196e-01 -9.595755e-01 -9.715479e-01 -9.910919e-01 -1.008288e+00 -1.024323e+00 -1.041785e+00 -1.061072e+00 -1.073115e+00 -1.098162e+00 -1.107054e+00 -1.132274e+00 -1.144554e+00 -1.163990e+00 -1.182250e+00 -1.197950e+00 -1.216803e+00 -1.234919e+00 -1.248879e+00 -1.272250e+00 -1.282875e+00 -1.306649e+00 -1.319641e+00 -1.338819e+00 -1.357233e+00 -1.372506e+00 -1.392758e+00 -1.409265e+00 -1.426274e+00 -1.447827e+00 -1.460600e+00 -1.484320e+00 -1.497699e+00 -1.518473e+00 -1.536708e+00 -1.552405e+00 -1.574351e+00 -1.589011e+00 -1.609444e+00 -1.627715e+00 -1.643400e+00 -1.665720e+00 -1.679554e+00 -1.701127e+00 -1.717897e+00 -1.734684e+00 -1.756131e+00 -1.769761e+00 -1.791925e+00 -1.807113e+00 -1.825116e+00 -1.845083e+00 -1.860000e+00 -1.884195e+00 -1.896399e+00 -1.909571e+00 -1.920082e+00 -1.934335e+00 -1.945586e+00 
-2.442429e+00 -2.600988e+00 -2.495010e+00 -2.661349e+00 -2.565208e+00 -2.736745e+00 -2.644881e+00 -2.794276e+00 -2.700050e+00 -2.849237e+00 -2.762929e+00 -2.902786e+00 -2.855773e+00 -2.961737e+00 -1.495513e+00 -1.456580e+00 -2.388307e-02 4.366863e-02 1.450759e+00 1.710454e+00 3.083951e+00 3.401836e+00 3.054392e+00 3.351784e+00 3.112318e+00 3.261222e+00 3.135943e+00 3.205583e+00 3.065981e+00 3.199098e+00 2.968807e+00 3.193657e+00 2.898231e+00 3.124374e+00 2.878694e+00 3.022261e+00 2.871766e+00 2.938670e+00 2.817326e+00 2.904165e+00 2.723214e+00 2.890448e+00 2.639500e+00 2.843214e+00 2.598810e+00 2.753001e+00 2.583477e+00 2.666712e+00 2.547455e+00 2.617037e+00 2.468535e+00 2.594866e+00 2.386249e+00 2.561844e+00 2.333737e+00 2.490011e+00 2.311835e+00 2.410330e+00 2.288243e+00 2.352548e+00 2.230570e+00 2.324023e+00 2.153340e+00 2.291702e+00 2.078022e+00 2.197454e+00 2.011273e+00 2.115230e+00 1.980979e+00 2.044872e+00 1.932806e+00 2.001859e+00 1.864140e+00 1.970926e+00 1.799094e+00 1.927002e+00 1.756713e+00 1.860750e+00 1.727632e+00 1.793909e+00 1.690311e+00 1.745360e+00 1.632191e+00 1.711631e+00 1.570084e+00 1.674826e+00 1.521248e+00 1.619964e+00 1.488464e+00 1.556763e+00 1.455604e+00 1.501234e+00 1.406276e+00 1.460570e+00 1.342906e+00 1.416927e+00 1.273934e+00 1.332057e+00 1.203064e+00 1.264243e+00 1.162755e+00 1.203312e+00 1.117590e+00 1.155993e+00 1.062031e+00 1.115636e+00 1.006231e+00 1.071018e+00 9.603946e-01 1.015504e+00 9.220373e-01 9.574197e-01 8.814704e-01 9.065792e-01 8.311978e-01 8.640197e-01 7.770196e-01 8.216470e-01 7.278724e-01 7.722775e-01 6.880083e-01 7.182440e-01 6.508708e-01 6.674515e-01 6.085820e-01 6.250347e-01 5.581440e-01 5.815513e-01 4.956086e-01 5.050554e-01 4.290680e-01 4.463413e-01 3.862868e-01 3.909725e-01 3.425062e-01 3.426372e-01 2.922683e-01 2.981054e-01 2.402671e-01 2.511130e-01 1.922190e-01 1.983327e-01 1.477990e-01 1.437293e-01 1.029005e-01 9.177275e-02 5.502684e-02 4.386645e-02 5.775984e-03 -2.361236e-03 -4.177134e-02 -4.914676e-02 -8.532130e-02 -9.732874e-02 -1.259783e-01 -1.450244e-01 -1.666683e-01 -1.901722e-01 -2.115278e-01 -2.372020e-01 -2.692519e-01 -3.113567e-01 -3.365298e-01 -3.640292e-01 -3.812560e-01 -4.141048e-01 -4.234211e-01 -4.616816e-01 -4.678654e-01 -5.069962e-01 -5.143698e-01 -5.525291e-01 -5.605598e-01 -6.005869e-01 -6.052085e-01 -6.506781e-01 -6.497272e-01 -7.008848e-01 -6.954165e-01 -7.499398e-01 -7.423078e-01 -7.981634e-01 -7.894343e-01 -8.458950e-01 -8.359580e-01 -8.937215e-01 -8.811896e-01 -9.419324e-01 -9.250240e-01 -9.910482e-01 -9.699118e-01 -1.043797e+00 -1.026143e+00 -1.120325e+00 -1.096581e+00 -1.171078e+00 -1.144758e+00 -1.217856e+00 -1.187905e+00 -1.265007e+00 -1.228718e+00 -1.311791e+00 -1.270318e+00 -1.356855e+00 -1.313971e+00 -1.400595e+00 -1.358215e+00 -1.445530e+00 -1.401029e+00 -1.492428e+00 -1.442578e+00 -1.539722e+00 -1.485117e+00 -1.585498e+00 -1.529253e+00 -1.630033e+00 -1.573698e+00 -1.675445e+00 -1.616774e+00 -1.722356e+00 -1.658855e+00 -1.769761e+00 -1.701753e+00 -1.816238e+00 -1.746303e+00 -1.861873e+00 -1.791736e+00 -1.908034e+00 -1.836290e+00 -1.955678e+00 -1.879796e+00 -2.004250e+00 -1.923335e+00 -2.052218e+00 -1.968189e+00 -2.099001e+00 -2.014046e+00 -2.145329e+00 -2.059592e+00 -2.192636e+00 -2.103892e+00 -2.240962e+00 -2.147323e+00 -2.289266e+00 -2.191304e+00 -2.336360e+00 -2.236286e+00 -2.382191e+00 -2.281645e+00 -2.428146e+00 -2.325786e+00 -2.472247e+00 -2.362999e+00 -2.512023e+00 -2.400405e+00 -2.553368e+00 