# vtk DataFile Version 2.0
Comment goes here
ASCII

DATASET STRUCTURED_POINTS
FIELD FieldData 1
TIME 1 1 double
0.03700000
DIMENSIONS    256   32   1

ORIGIN    0.000   0.000   0.000
SPACING   0.0078125 0.0078125   1.000

POINT_DATA   8192
SCALARS P double
LOOKUP_TABLE default

-1.491321e+00 -1.478002e+00 -1.481692e+00 -1.456003e+00 -1.452252e+00 -1.406669e+00 -1.387620e+00 -1.291375e+00 -1.311819e+00 -1.171335e+00 -1.226443e+00 -1.065101e+00 -1.107096e+00 -9.709655e-01 -1.021529e+00 -8.151722e-01 -9.793413e-01 -6.693987e-01 -8.409961e-01 -5.947458e-01 -5.706493e-01 -5.084000e-01 -4.553983e-01 -3.103606e-01 -4.392159e-01 -1.627106e-01 -3.641926e-01 -1.302761e-01 -2.133714e-01 -1.600940e-01 -6.753999e-02 -1.451531e-01 -1.401300e-02 -5.075269e-02 -4.599480e-02 6.256306e-02 -5.538992e-02 1.145159e-01 1.217640e-02 9.155521e-02 1.187039e-01 7.397435e-02 1.883360e-01 1.171983e-01 1.753129e-01 2.080863e-01 1.497504e-01 2.806380e-01 1.798794e-01 2.845966e-01 2.689871e-01 2.741720e-01 3.559466e-01 3.074683e-01 3.860299e-01 3.894603e-01 3.866203e-01 4.673662e-01 4.027516e-01 4.943691e-01 4.487400e-01 4.763682e-01 4.923752e-01 4.564967e-01 4.960851e-01 4.617475e-01 4.589173e-01 4.797539e-01 4.151844e-01 4.755256e-01 4.007253e-01 4.319133e-01 4.122491e-01 3.842908e-01 4.162323e-01 3.692209e-01 3.867871e-01 3.888749e-01 3.516927e-01 4.090084e-01 3.451087e-01 4.006422e-01 3.733606e-01 3.825043e-01 4.059437e-01 3.838315e-01 4.160372e-01 4.137870e-01 4.106311e-01 4.481962e-01 4.141432e-01 4.647514e-01 4.375010e-01 4.632134e-01 4.645733e-01 4.635849e-01 4.756804e-01 4.758065e-01 4.739988e-01 4.904684e-01 4.692788e-01 4.949704e-01 4.709199e-01 4.867537e-01 4.736829e-01 4.759675e-01 4.693399e-01 4.685460e-01 4.557050e-01 4.615819e-01 4.392212e-01 4.490447e-01 4.244169e-01 4.295841e-01 4.100060e-01 4.082923e-01 3.919227e-01 3.885635e-01 3.692123e-01 3.695967e-01 3.447285e-01 3.476276e-01 3.213549e-01 3.215729e-01 2.991269e-01 2.940507e-01 2.747127e-01 2.681908e-01 2.465863e-01 2.436594e-01 2.176353e-01 2.176813e-01 1.907156e-01 1.888161e-01 1.655562e-01 1.590560e-01 1.392181e-01 1.312868e-01 1.106467e-01 1.056144e-01 8.085070e-02 7.942006e-02 5.232587e-02 5.070798e-02 2.574657e-02 2.000775e-02 -4.762917e-04 -9.393513e-03 -2.867280e-02 -3.632699e-02 -5.866247e-02 -6.221192e-02 -8.824827e-02 -9.009728e-02 -1.158531e-01 -1.204472e-01 -1.419285e-01 -1.509751e-01 -1.695123e-01 -1.791841e-01 -1.997952e-01 -2.057537e-01 -2.305332e-01 -2.332351e-01 -2.587026e-01 -2.631132e-01 -2.847817e-01 -2.936062e-01 -3.115722e-01 -3.218651e-01 -3.403059e-01 -3.478187e-01 -3.701584e-01 -3.737982e-01 -3.986520e-01 -4.021773e-01 -4.250270e-01 -4.325042e-01 -4.507029e-01 -4.615077e-01 -4.783849e-01 -4.878777e-01 -5.078382e-01 -5.131424e-01 -5.368277e-01 -5.405651e-01 -5.637949e-01 -5.705145e-01 -5.894351e-01 -6.006616e-01 -6.169053e-01 -6.285919e-01 -6.473379e-01 -6.552827e-01 -6.783566e-01 -6.832439e-01 -7.070569e-01 -7.140452e-01 -7.341687e-01 -7.458954e-01 -7.623347e-01 -7.759264e-01 -7.929134e-01 -8.040533e-01 -8.250234e-01 -8.321359e-01 -8.561239e-01 -8.625721e-01 -8.851123e-01 -8.948694e-01 -9.128121e-01 -9.262813e-01 -9.417148e-01 -9.550097e-01 -9.720428e-01 -9.813090e-01 -1.002062e+00 -1.007953e+00 -1.029273e+00 -1.036070e+00 -1.053520e+00 -1.064434e+00 -1.077871e+00 -1.090251e+00 -1.104168e+00 -1.113530e+00 -1.131544e+00 -1.137357e+00 -1.157149e+00 -1.163796e+00 -1.180942e+00 -1.191793e+00 -1.205192e+00 -1.218442e+00 -1.231870e+00 -1.243565e+00 -1.260543e+00 -1.268721e+00 -1.289414e+00 -1.296594e+00 -1.316547e+00 -1.327128e+00 -1.342102e+00 -1.356590e+00 -1.369603e+00 -1.383712e+00 -1.399824e+00 -1.409100e+00 -1.430037e+00 -1.436214e+00 -1.459146e+00 -1.465226e+00 -1.478541e+00 -1.478670e+00 -1.488897e+00 -1.483464e+00 
-1.828504e+00 -1.916048e+00 -1.825864e+00 -1.908179e+00 -1.803479e+00 -1.874617e+00 -1.734066e+00 -1.770230e+00 -1.654034e+00 -1.664163e+00 -1.548991e+00 -1.568248e+00 -1.354158e+00 -1.496161e+00 -1.165693e+00 -1.148547e+00 -9.400344e-01 -8.141315e-01 -5.823872e-01 -5.470031e-01 -1.289717e-01 -2.040567e-01 2.068351e-03 1.085675e-01 5.052421e-03 2.997777e-01 5.311395e-02 3.430577e-01 1.924329e-01 3.055429e-01 3.307536e-01 3.098225e-01 3.728157e-01 4.031790e-01 3.201328e-01 5.160924e-01 2.934933e-01 5.624131e-01 3.551308e-01 5.240548e-01 4.608511e-01 4.921684e-01 5.283327e-01 5.277156e-01 5.022283e-01 6.170050e-01 4.628639e-01 6.868133e-01 4.846117e-01 6.773363e-01 5.727366e-01 6.523618e-01 6.576570e-01 6.755190e-01 6.776963e-01 7.539122e-01 6.666031e-01 8.271307e-01 6.736369e-01 8.448582e-01 7.157378e-01 8.137984e-01 7.561857e-01 7.824590e-01 7.513932e-01 7.803465e-01 7.064743e-01 7.943069e-01 6.526806e-01 7.842353e-01 6.325242e-01 7.295446e-01 6.412677e-01 6.708093e-01 6.419072e-01 6.476977e-01 6.034796e-01 6.628885e-01 5.589797e-01 6.779632e-01 5.454136e-01 6.595305e-01 5.703091e-01 6.303994e-01 5.987409e-01 6.225068e-01 6.011674e-01 6.465368e-01 5.864043e-01 6.743833e-01 5.820064e-01 6.821464e-01 6.002996e-01 6.698597e-01 6.228713e-01 6.608622e-01 6.246368e-01 6.655123e-01 6.165307e-01 6.728860e-01 6.038731e-01 6.691190e-01 5.996014e-01 6.515071e-01 5.965786e-01 6.321390e-01 5.858818e-01 6.171149e-01 5.651980e-01 6.028938e-01 5.421372e-01 5.826376e-01 5.214540e-01 5.549204e-01 5.015104e-01 5.255471e-01 4.774773e-01 4.982151e-01 4.483600e-01 4.719899e-01 4.173489e-01 4.424318e-01 3.878248e-01 4.082584e-01 3.599560e-01 3.724691e-01 3.297609e-01 3.388572e-01 2.948050e-01 3.066888e-01 2.593105e-01 2.732159e-01 2.263392e-01 2.362936e-01 1.955288e-01 1.984108e-01 1.632616e-01 1.629665e-01 1.284986e-01 1.299844e-01 9.244506e-02 9.647162e-02 5.793324e-02 6.017104e-02 2.570634e-02 2.165326e-02 -6.043010e-03 -1.546558e-02 -4.008321e-02 -4.983636e-02 -7.625784e-02 -8.296158e-02 -1.121487e-01 -1.183662e-01 -1.458162e-01 -1.567016e-01 -1.775262e-01 -1.953785e-01 -2.108686e-01 -2.312850e-01 -2.477394e-01 -2.655168e-01 -2.851338e-01 -3.004398e-01 -3.193301e-01 -3.383243e-01 -3.510644e-01 -3.769361e-01 -3.837392e-01 -4.128920e-01 -4.186349e-01 -4.461823e-01 -4.547417e-01 -4.794479e-01 -4.892616e-01 -5.154017e-01 -5.213119e-01 -5.535480e-01 -5.524991e-01 -5.902983e-01 -5.860190e-01 -6.241248e-01 -6.216689e-01 -6.566374e-01 -6.569741e-01 -6.915835e-01 -6.900239e-01 -7.295267e-01 -7.213258e-01 -7.678367e-01 -7.545645e-01 -8.035073e-01 -7.916438e-01 -8.379190e-01 -8.292927e-01 -8.732883e-01 -8.640024e-01 -9.120367e-01 -8.967271e-01 -9.518837e-01 -9.306496e-01 -9.894958e-01 -9.672302e-01 -1.024924e+00 -1.005535e+00 -1.060258e+00 -1.042766e+00 -1.098328e+00 -1.077509e+00 -1.138469e+00 -1.110745e+00 -1.177619e+00 -1.145420e+00 -1.213923e+00 -1.181944e+00 -1.247540e+00 -1.218447e+00 -1.281728e+00 -1.251801e+00 -1.317799e+00 -1.281721e+00 -1.354329e+00 -1.311846e+00 -1.387905e+00 -1.344325e+00 -1.418502e+00 -1.378158e+00 -1.449708e+00 -1.409879e+00 -1.483946e+00 -1.439394e+00 -1.519990e+00 -1.469304e+00 -1.554392e+00 -1.501931e+00 -1.586964e+00 -1.536826e+00 -1.619431e+00 -1.572013e+00 -1.655017e+00 -1.605170e+00 -1.693820e+00 -1.636330e+00 -1.731472e+00 -1.669746e+00 -1.766543e+00 -1.706378e+00 -1.799680e+00 -1.743138e+00 -1.835328e+00 -1.779251e+00 -1.874409e+00 -1.804291e+00 -1.895963e+00 -1.819992e+00 -1.910126e+00 
-1.498482e+00 -1.488359e+00 -1.495471e+00 -1.476076e+00 -1.478408e+00 -1.445108e+00 -1.394153e+00 -1.293939e+00 -1.316850e+00 -1.165397e+00 -1.249454e+00 -1.062180e+00 -1.099954e+00 -1.037502e+00 -1.012290e+00 -8.014817e-01 -1.034461e+00 -6.409907e-01 -9.145468e-01 -6.199009e-01 -5.220314e-01 -5.774723e-01 -4.239036e-01 -2.875171e-01 -4.717885e-01 -1.184872e-01 -4.125490e-01 -1.028038e-01 -2.099376e-01 -1.812503e-01 -2.702747e-02 -1.929204e-01 2.338357e-02 -6.037229e-02 -5.551136e-02 9.096388e-02 -9.901842e-02 1.461133e-01 -8.395704e-03 9.010034e-02 1.363108e-01 4.024063e-02 2.241639e-01 9.111719e-02 1.819424e-01 2.167295e-01 1.201824e-01 3.110836e-01 1.482952e-01 2.921293e-01 2.701465e-01 2.517648e-01 3.819926e-01 2.812036e-01 4.006363e-01 3.913404e-01 3.787253e-01 4.916035e-01 3.859664e-01 5.163206e-01 4.492394e-01 4.762880e-01 5.117718e-01 4.414169e-01 5.114521e-01 4.524826e-01 4.620335e-01 4.899253e-01 3.989561e-01 4.937016e-01 3.868452e-01 4.333648e-01 4.153183e-01 3.670434e-01 4.317560e-01 3.509648e-01 3.891290e-01 3.880327e-01 3.369898e-01 4.227276e-01 3.274364e-01 4.058612e-01 3.714191e-01 3.732207e-01 4.175280e-01 3.698342e-01 4.243949e-01 4.119122e-01 4.065161e-01 4.574170e-01 4.041778e-01 4.739027e-01 4.357113e-01 4.622716e-01 4.740198e-01 4.578219e-01 4.793904e-01 4.744861e-01 4.764758e-01 4.954275e-01 4.662412e-01 5.010975e-01 4.703995e-01 4.877303e-01 4.768183e-01 4.739648e-01 4.733567e-01 4.678587e-01 4.566720e-01 4.638398e-01 4.381612e-01 4.522340e-01 4.242014e-01 4.307967e-01 4.120514e-01 4.080242e-01 3.946882e-01 3.886323e-01 3.707164e-01 3.714251e-01 3.445481e-01 3.499885e-01 3.207699e-01 3.224758e-01 3.001533e-01 2.931739e-01 2.768413e-01 2.677073e-01 2.467913e-01 2.440937e-01 2.164907e-01 2.191539e-01 1.898735e-01 1.890756e-01 1.661518e-01 1.577308e-01 1.399508e-01 1.299088e-01 1.106349e-01 1.054418e-01 7.974978e-02 8.016992e-02 5.113131e-02 5.140937e-02 2.558173e-02 1.963063e-02 7.169025e-04 -1.009959e-02 -2.733258e-02 -3.637758e-02 -5.825393e-02 -6.089314e-02 -8.883875e-02 -8.856145e-02 -1.166211e-01 -1.201791e-01 -1.412580e-01 -1.521594e-01 -1.679500e-01 -1.797616e-01 -1.995533e-01 -2.055872e-01 -2.320012e-01 -2.319787e-01 -2.597320e-01 -2.629762e-01 -2.844156e-01 -2.950679e-01 -3.109564e-01 -3.233617e-01 -3.403715e-01 -3.482130e-01 -3.713155e-01 -3.730913e-01 -3.999423e-01 -4.015139e-01 -4.253359e-01 -4.329152e-01 -4.494883e-01 -4.622808e-01 -4.770594e-01 -4.879324e-01 -5.074687e-01 -5.117472e-01 -5.374154e-01 -5.390127e-01 -5.644587e-01 -5.702483e-01 -5.886455e-01 -6.018333e-01 -6.152807e-01 -6.290761e-01 -6.472288e-01 -6.551513e-01 -6.798790e-01 -6.819567e-01 -7.079911e-01 -7.138441e-01 -7.336835e-01 -7.471127e-01 -7.613540e-01 -7.769429e-01 -7.923897e-01 -8.040565e-01 -8.255813e-01 -8.309895e-01 -8.572253e-01 -8.617620e-01 -8.856125e-01 -8.952161e-01 -9.119726e-01 -9.271591e-01 -9.405827e-01 -9.557885e-01 -9.717917e-01 -9.808420e-01 -1.003350e+00 -1.007125e+00 -1.030833e+00 -1.036073e+00 -1.053594e+00 -1.065921e+00 -1.077057e+00 -1.091680e+00 -1.103763e+00 -1.113354e+00 -1.132512e+00 -1.136112e+00 -1.158092e+00 -1.163042e+00 -1.180724e+00 -1.192472e+00 -1.203983e+00 -1.219204e+00 -1.230871e+00 -1.243542e+00 -1.260439e+00 -1.267361e+00 -1.290281e+00 -1.295261e+00 -1.317332e+00 -1.327659e+00 -1.341129e+00 -1.357762e+00 -1.368246e+00 -1.384581e+00 -1.399823e+00 -1.408238e+00 -1.430590e+00 -1.435339e+00 -1.464236e+00 -1.473448e+00 -1.483422e+00 -1.483314e+00 -1.493263e+00 -1.489225e+00 
-1.841499e+00 -1.933587e+00 -1.853028e+00 -1.947365e+00 -1.868143e+00 -1.977238e+00 -1.855216e+00 -1.872077e+00 -1.791036e+00 -1.826547e+00 -1.759591e+00 -1.800490e+00 -1.624800e+00 -1.725924e+00 -1.172338e+00 -1.149959e+00 -7.154974e-01 -5.084826e-01 -1.489516e-01 2.010310e-01 6.205688e-01 6.389403e-01 8.747219e-01 9.754496e-01 8.052006e-01 1.011235e+00 8.227373e-01 1.037186e+00 9.223706e-01 1.004073e+00 9.687000e-01 9.978261e-01 9.720338e-01 1.062622e+00 9.286691e-01 1.095285e+00 8.943636e-01 1.070602e+00 9.309236e-01 1.053126e+00 9.770410e-01 1.030342e+00 9.934100e-01 1.052783e+00 9.815518e-01 1.095875e+00 9.493729e-01 1.110203e+00 9.574661e-01 1.096908e+00 9.977756e-01 1.072355e+00 1.024957e+00 1.076971e+00 1.026296e+00 1.112382e+00 1.010470e+00 1.137323e+00 1.004136e+00 1.131776e+00 1.020306e+00 1.098432e+00 1.026182e+00 1.069174e+00 1.002705e+00 1.052970e+00 9.593359e-01 1.045806e+00 9.151365e-01 1.016414e+00 8.956045e-01 9.699844e-01 8.863535e-01 9.243191e-01 8.672404e-01 9.024228e-01 8.311179e-01 8.973648e-01 7.944939e-01 8.878528e-01 7.776516e-01 8.613736e-01 7.794175e-01 8.325040e-01 7.801356e-01 8.174236e-01 7.669975e-01 8.193443e-01 7.460879e-01 8.204542e-01 7.322279e-01 8.079787e-01 7.318985e-01 7.861235e-01 7.314939e-01 7.670913e-01 7.129822e-01 7.552651e-01 6.907910e-01 7.444650e-01 6.703831e-01 7.254216e-01 6.578964e-01 6.978583e-01 6.433600e-01 6.730309e-01 6.218730e-01 6.539753e-01 5.937240e-01 6.336255e-01 5.665548e-01 6.063296e-01 5.441169e-01 5.718966e-01 5.215627e-01 5.395194e-01 4.933631e-01 5.118492e-01 4.593962e-01 4.861785e-01 4.256970e-01 4.546588e-01 3.959701e-01 4.157031e-01 3.701356e-01 3.766761e-01 3.388544e-01 3.433278e-01 2.982971e-01 3.094552e-01 2.571763e-01 2.762324e-01 2.238100e-01 2.364263e-01 1.961836e-01 1.950024e-01 1.649190e-01 1.597347e-01 1.289010e-01 1.300629e-01 9.032004e-02 9.886038e-02 5.552563e-02 6.220681e-02 2.563640e-02 2.061163e-02 -3.077263e-03 -1.730024e-02 -3.701201e-02 -4.970269e-02 -7.543173e-02 -7.895395e-02 -1.128228e-01 -1.136199e-01 -1.456082e-01 -1.548957e-01 -1.735015e-01 -1.963931e-01 -2.062449e-01 -2.314877e-01 -2.475007e-01 -2.668953e-01 -2.903335e-01 -3.003747e-01 -3.249452e-01 -3.401936e-01 -3.535338e-01 -3.823845e-01 -3.844095e-01 -4.184789e-01 -4.199093e-01 -4.490453e-01 -4.585666e-01 -4.793663e-01 -4.939888e-01 -5.152942e-01 -5.244677e-01 -5.564398e-01 -5.522816e-01 -5.947852e-01 -5.854365e-01 -6.274024e-01 -6.231548e-01 -6.561025e-01 -6.606897e-01 -6.899778e-01 -6.936826e-01 -7.304375e-01 -7.214328e-01 -7.722527e-01 -7.535464e-01 -8.076795e-01 -7.944032e-01 -8.438624e-01 -8.378190e-01 -8.769599e-01 -8.732677e-01 -9.165532e-01 -9.030834e-01 -9.594128e-01 -9.337399e-01 -9.970516e-01 -9.694339e-01 -1.029726e+00 -1.009611e+00 -1.060694e+00 -1.048034e+00 -1.097998e+00 -1.080692e+00 -1.140266e+00 -1.109264e+00 -1.180160e+00 -1.142368e+00 -1.214910e+00 -1.180646e+00 -1.244454e+00 -1.219798e+00 -1.277934e+00 -1.253065e+00 -1.316473e+00 -1.280109e+00 -1.356648e+00 -1.309742e+00 -1.391107e+00 -1.344249e+00 -1.420009e+00 -1.382161e+00 -1.450137e+00 -1.415469e+00 -1.485581e+00 -1.443889e+00 -1.525046e+00 -1.471283e+00 -1.560484e+00 -1.503251e+00 -1.591648e+00 -1.539554e+00 -1.620303e+00 -1.577429e+00 -1.655108e+00 -1.611186e+00 -1.697969e+00 -1.638722e+00 -1.737773e+00 -1.670621e+00 -1.773204e+00 -1.709624e+00 -1.802179e+00 -1.747517e+00 -1.836137e+00 -1.794880e+00 -1.893430e+00 -1.814351e+00 -1.903892e+00 -1.827780e+00 -1.919349e+00 
-1.516025e+00 -1.514765e+00 -1.533281e+00 -1.533906e+00 -1.571585e+00 -1.593678e+00 -1.660816e+00 -1.590462e+00 -1.638835e+00 -1.606522e+00 -1.616834e+00 -1.549127e+00 -1.524170e+00 -1.183183e+00 -9.802251e-01 -5.820425e-01 -3.064899e-01 2.304873e-01 3.683006e-01 1.195258e+00 1.075115e+00 1.801178e+00 1.725588e+00 1.912429e+00 1.879801e+00 1.775690e+00 1.940217e+00 1.793390e+00 1.862761e+00 1.864952e+00 1.726515e+00 1.905972e+00 1.678273e+00 1.833256e+00 1.728075e+00 1.687983e+00 1.760509e+00 1.583431e+00 1.704950e+00 1.632497e+00 1.590267e+00 1.685804e+00 1.509179e+00 1.667198e+00 1.551806e+00 1.572853e+00 1.602305e+00 1.480398e+00 1.590665e+00 1.492626e+00 1.494426e+00 1.524924e+00 1.395863e+00 1.508386e+00 1.380094e+00 1.422250e+00 1.395335e+00 1.334617e+00 1.385254e+00 1.298161e+00 1.324620e+00 1.304648e+00 1.246889e+00 1.308668e+00 1.205503e+00 1.263436e+00 1.195748e+00 1.192832e+00 1.206311e+00 1.134265e+00 1.182725e+00 1.136548e+00 1.119270e+00 1.151512e+00 1.058065e+00 1.134730e+00 1.052700e+00 1.071493e+00 1.062603e+00 1.006345e+00 1.046016e+00 9.875109e-01 9.852341e-01 9.886147e-01 9.216665e-01 9.720550e-01 8.916801e-01 9.190969e-01 8.844365e-01 8.607777e-01 8.665545e-01 8.211686e-01 8.215467e-01 8.049980e-01 7.659343e-01 7.816988e-01 7.276364e-01 7.387330e-01 6.922885e-01 6.908957e-01 6.703058e-01 6.510392e-01 6.400516e-01 6.239015e-01 6.030492e-01 6.007808e-01 5.678035e-01 5.752948e-01 5.395377e-01 5.440349e-01 5.145548e-01 5.111513e-01 4.900169e-01 4.798548e-01 4.621231e-01 4.530306e-01 4.316806e-01 4.288570e-01 4.005605e-01 4.042412e-01 3.724456e-01 3.753890e-01 3.472252e-01 3.423482e-01 3.229098e-01 3.108725e-01 2.926858e-01 2.822778e-01 2.560666e-01 2.502182e-01 2.185101e-01 2.207128e-01 1.887523e-01 1.883668e-01 1.649467e-01 1.554634e-01 1.393842e-01 1.278802e-01 1.101880e-01 1.050287e-01 7.888975e-02 8.096792e-02 5.059394e-02 5.247104e-02 2.625184e-02 2.008780e-02 2.831592e-03 -9.311239e-03 -2.472094e-02 -3.410453e-02 -5.578819e-02 -5.637096e-02 -8.577379e-02 -8.323667e-02 -1.119353e-01 -1.157535e-01 -1.351749e-01 -1.486433e-01 -1.639324e-01 -1.780671e-01 -2.003822e-01 -2.101232e-01 -2.382308e-01 -2.384981e-01 -2.689897e-01 -2.699349e-01 -2.932905e-01 -3.032673e-01 -3.179414e-01 -3.317922e-01 -3.462229e-01 -3.555909e-01 -3.775748e-01 -3.788293e-01 -4.069235e-01 -4.064730e-01 -4.323693e-01 -4.385432e-01 -4.552812e-01 -4.690500e-01 -4.820014e-01 -4.949765e-01 -5.124791e-01 -5.172028e-01 -5.434541e-01 -5.431350e-01 -5.709150e-01 -5.747543e-01 -5.944622e-01 -6.086225e-01 -6.222141e-01 -6.392052e-01 -6.575430e-01 -6.721921e-01 -6.961882e-01 -6.995622e-01 -7.281264e-01 -7.296535e-01 -7.533023e-01 -7.628667e-01 -7.765407e-01 -7.924215e-01 -8.034727e-01 -8.171016e-01 -8.348673e-01 -8.393014e-01 -8.655666e-01 -8.664133e-01 -8.910630e-01 -8.980408e-01 -9.126618e-01 -9.280779e-01 -9.382581e-01 -9.536596e-01 -9.687579e-01 -9.756709e-01 -1.000013e+00 -1.002001e+00 -1.027032e+00 -1.032988e+00 -1.050404e+00 -1.065260e+00 -1.076593e+00 -1.093798e+00 -1.106399e+00 -1.118751e+00 -1.138786e+00 -1.143918e+00 -1.168194e+00 -1.172037e+00 -1.193383e+00 -1.203167e+00 -1.215907e+00 -1.231812e+00 -1.241006e+00 -1.256493e+00 -1.270028e+00 -1.278228e+00 -1.301430e+00 -1.304612e+00 -1.329935e+00 -1.337813e+00 -1.353355e+00 -1.369908e+00 -1.379111e+00 -1.398641e+00 -1.410233e+00 -1.421295e+00 -1.441834e+00 -1.446793e+00 -1.480126e+00 -1.486447e+00 -1.492039e+00 -1.492181e+00 -1.502747e+00 -1.502783e+00 
-1.858393e+00 -1.955463e+00 -1.885051e+00 -1.986399e+00 -1.925723e+00 -2.038440e+00 -2.006461e+00 -2.083028e+00 -2.023994e+00 -2.122974e+00 -2.038240e+00 -2.126539e+00 -2.073829e+00 -2.027382e+00 -1.305230e+00 -1.027386e+00 -1.489402e-01 -3.866200e-02 9.146947e-01 1.327125e+00 1.952118e+00 2.588115e+00 2.225254e+00 2.493898e+00 2.366139e+00 2.368060e+00 2.402281e+00 2.352526e+00 2.303034e+00 2.398122e+00 2.178140e+00 2.417429e+00 2.122629e+00 2.327679e+00 2.147692e+00 2.194492e+00 2.163623e+00 2.106375e+00 2.095139e+00 2.122793e+00 1.983354e+00 2.151976e+00 1.906500e+00 2.116364e+00 1.921754e+00 2.019389e+00 1.952717e+00 1.932659e+00 1.927223e+00 1.924005e+00 1.830569e+00 1.935754e+00 1.736293e+00 1.905093e+00 1.705666e+00 1.814388e+00 1.703576e+00 1.724744e+00 1.681459e+00 1.678384e+00 1.614753e+00 1.669913e+00 1.536617e+00 1.657802e+00 1.488513e+00 1.602411e+00 1.468235e+00 1.527951e+00 1.465701e+00 1.469499e+00 1.432949e+00 1.458980e+00 1.368436e+00 1.459233e+00 1.308391e+00 1.430641e+00 1.292441e+00 1.363751e+00 1.289103e+00 1.296576e+00 1.261951e+00 1.266909e+00 1.197914e+00 1.253382e+00 1.131858e+00 1.224132e+00 1.093530e+00 1.164129e+00 1.074226e+00 1.099809e+00 1.045842e+00 1.052275e+00 9.939789e-01 1.023651e+00 9.331048e-01 9.883800e-01 8.866978e-01 9.340892e-01 8.433956e-01 8.782290e-01 8.112919e-01 8.310122e-01 7.723340e-01 7.954915e-01 7.289585e-01 7.625513e-01 6.881632e-01 7.265010e-01 6.538206e-01 6.863264e-01 6.217397e-01 6.461291e-01 5.888351e-01 6.085934e-01 5.534215e-01 5.738145e-01 5.171422e-01 5.400636e-01 4.815329e-01 5.054609e-01 4.479882e-01 4.688554e-01 4.157802e-01 4.306287e-01 3.829746e-01 3.929845e-01 3.462316e-01 3.548534e-01 3.048031e-01 3.121024e-01 2.624574e-01 2.732967e-01 2.260383e-01 2.351137e-01 1.937122e-01 1.972460e-01 1.614085e-01 1.620221e-01 1.273559e-01 1.291641e-01 9.222897e-02 9.588032e-02 5.842923e-02 6.033149e-02 2.657379e-02 2.299194e-02 -4.818143e-03 -1.308837e-02 -3.809726e-02 -4.676506e-02 -7.307227e-02 -7.927387e-02 -1.075604e-01 -1.139654e-01 -1.401180e-01 -1.515452e-01 -1.719486e-01 -1.898833e-01 -2.074436e-01 -2.284863e-01 -2.487233e-01 -2.710130e-01 -2.910208e-01 -3.090304e-01 -3.280313e-01 -3.466069e-01 -3.605694e-01 -3.846519e-01 -3.923423e-01 -4.204757e-01 -4.258436e-01 -4.538353e-01 -4.609904e-01 -4.867614e-01 -4.954628e-01 -5.217953e-01 -5.279936e-01 -5.589899e-01 -5.592494e-01 -5.957787e-01 -5.920253e-01 -6.302495e-01 -6.267057e-01 -6.628608e-01 -6.618715e-01 -6.969955e-01 -6.953558e-01 -7.341024e-01 -7.274606e-01 -7.730664e-01 -7.623592e-01 -8.125424e-01 -8.029357e-01 -8.555997e-01 -8.457080e-01 -8.930368e-01 -8.835114e-01 -9.297172e-01 -9.164684e-01 -9.675842e-01 -9.473932e-01 -1.003962e+00 -9.799662e-01 -1.037630e+00 -1.014935e+00 -1.069894e+00 -1.049857e+00 -1.104304e+00 -1.082117e+00 -1.141022e+00 -1.112405e+00 -1.177265e+00 -1.144479e+00 -1.211145e+00 -1.179141e+00 -1.243594e+00 -1.214246e+00 -1.278170e+00 -1.247490e+00 -1.315230e+00 -1.279420e+00 -1.352949e+00 -1.312621e+00 -1.389173e+00 -1.347586e+00 -1.423840e+00 -1.383684e+00 -1.458198e+00 -1.418626e+00 -1.493602e+00 -1.451276e+00 -1.530276e+00 -1.482062e+00 -1.566142e+00 -1.513761e+00 -1.599865e+00 -1.547684e+00 -1.632195e+00 -1.583150e+00 -1.666749e+00 -1.617390e+00 -1.704612e+00 -1.649515e+00 -1.742816e+00 -1.682286e+00 -1.779226e+00 -1.717426e+00 -1.812767e+00 -1.753758e+00 -1.847245e+00 -1.790310e+00 -1.882981e+00 -1.813629e+00 -1.906965e+00 -1.835563e+00 -1.930541e+00 
-1.531003e+00 -1.536890e+00 -1.556384e+00 -1.563942e+00 -1.591635e+00 -1.601593e+00 -1.637949e+00 -1.629323e+00 -1.653234e+00 -1.657649e+00 -1.657958e+00 -1.685838e+00 -1.660415e+00 -1.790465e+00 -8.922271e-01 -7.481647e-01 -7.023248e-02 1.925236e-01 8.418019e-01 1.120289e+00 2.011682e+00 1.949283e+00 1.941817e+00 1.955911e+00 1.962289e+00 1.907903e+00 1.964205e+00 1.894715e+00 1.907002e+00 1.905953e+00 1.833697e+00 1.903611e+00 1.790666e+00 1.848203e+00 1.783245e+00 1.767430e+00 1.775044e+00 1.707645e+00 1.729136e+00 1.697955e+00 1.662311e+00 1.699932e+00 1.613773e+00 1.672605e+00 1.606168e+00 1.615581e+00 1.608344e+00 1.562622e+00 1.583704e+00 1.542466e+00 1.524729e+00 1.533797e+00 1.465042e+00 1.505624e+00 1.432793e+00 1.449219e+00 1.416076e+00 1.391610e+00 1.391190e+00 1.354191e+00 1.345872e+00 1.335441e+00 1.293952e+00 1.315427e+00 1.252809e+00 1.271468e+00 1.226164e+00 1.222674e+00 1.210950e+00 1.183069e+00 1.183662e+00 1.165534e+00 1.141486e+00 1.154502e+00 1.101398e+00 1.130066e+00 1.080278e+00 1.087235e+00 1.065965e+00 1.043278e+00 1.040362e+00 1.015190e+00 9.972099e-01 9.955033e-01 9.517581e-01 9.687169e-01 9.183814e-01 9.276651e-01 8.943062e-01 8.831607e-01 8.666540e-01 8.459206e-01 8.282318e-01 8.172073e-01 7.843867e-01 7.854118e-01 7.429898e-01 7.415663e-01 7.043997e-01 7.001829e-01 6.738922e-01 6.637793e-01 6.424014e-01 6.333505e-01 6.088751e-01 6.055106e-01 5.762541e-01 5.770496e-01 5.466506e-01 5.465937e-01 5.189581e-01 5.155576e-01 4.915781e-01 4.855595e-01 4.630871e-01 4.575234e-01 4.336981e-01 4.307308e-01 4.043714e-01 4.037512e-01 3.763355e-01 3.752522e-01 3.494815e-01 3.453437e-01 3.224362e-01 3.154589e-01 2.923220e-01 2.847904e-01 2.569310e-01 2.485451e-01 2.206086e-01 2.175345e-01 1.905123e-01 1.874766e-01 1.637754e-01 1.579432e-01 1.370727e-01 1.304050e-01 1.091287e-01 1.045920e-01 8.050251e-02 7.846290e-02 5.288459e-02 5.066845e-02 2.669902e-02 2.161077e-02 7.940281e-04 -6.499931e-03 -2.649430e-02 -3.285771e-02 -5.501389e-02 -5.844674e-02 -8.317956e-02 -8.562461e-02 -1.100068e-01 -1.149217e-01 -1.363838e-01 -1.449824e-01 -1.656870e-01 -1.758094e-01 -2.007437e-01 -2.118739e-01 -2.370558e-01 -2.423444e-01 -2.674231e-01 -2.719787e-01 -2.942466e-01 -3.015887e-01 -3.205969e-01 -3.294845e-01 -3.481812e-01 -3.555926e-01 -3.768352e-01 -3.814902e-01 -4.048796e-01 -4.089703e-01 -4.314815e-01 -4.379845e-01 -4.573008e-01 -4.665467e-01 -4.843080e-01 -4.933898e-01 -5.127128e-01 -5.190426e-01 -5.413026e-01 -5.459227e-01 -5.686858e-01 -5.749990e-01 -5.952304e-01 -6.054413e-01 -6.242041e-01 -6.368082e-01 -6.589205e-01 -6.731967e-01 -6.954969e-01 -7.033125e-01 -7.263216e-01 -7.324023e-01 -7.533490e-01 -7.618714e-01 -7.791573e-01 -7.900346e-01 -8.061277e-01 -8.163067e-01 -8.346376e-01 -8.417941e-01 -8.629230e-01 -8.688432e-01 -8.893806e-01 -8.974691e-01 -9.146042e-01 -9.256831e-01 -9.410915e-01 -9.522898e-01 -9.694065e-01 -9.779067e-01 -9.980931e-01 -1.004977e+00 -1.025459e+00 -1.033910e+00 -1.051759e+00 -1.063395e+00 -1.078946e+00 -1.091678e+00 -1.107591e+00 -1.118643e+00 -1.137044e+00 -1.145521e+00 -1.165429e+00 -1.173368e+00 -1.192043e+00 -1.202056e+00 -1.217591e+00 -1.229896e+00 -1.243956e+00 -1.256197e+00 -1.271895e+00 -1.281738e+00 -1.300725e+00 -1.309012e+00 -1.328645e+00 -1.338662e+00 -1.355146e+00 -1.368337e+00 -1.382350e+00 -1.396554e+00 -1.411339e+00 -1.422800e+00 -1.440860e+00 -1.449541e+00 -1.469967e+00 -1.477503e+00 -1.491037e+00 -1.496802e+00 -1.510220e+00 -1.515738e+00 
-1.872508e+00 -1.973129e+00 -1.906160e+00 -2.010112e+00 -1.947952e+00 -2.055065e+00 -1.999101e+00 -2.099971e+00 -2.035850e+00 -2.142334e+00 -2.070047e+00 -2.179413e+00 -2.113971e+00 -2.228616e+00 -1.123869e+00 -1.061816e+00 -1.727863e-02 8.953834e-02 1.130731e+00 1.335462e+00 2.381295e+00 2.571836e+00 2.345953e+00 2.511460e+00 2.361228e+00 2.439671e+00 2.351865e+00 2.401909e+00 2.292575e+00 2.389074e+00 2.220948e+00 2.366650e+00 2.171761e+00 2.304959e+00 2.149932e+00 2.226651e+00 2.127195e+00 2.166182e+00 2.075784e+00 2.140469e+00 2.009132e+00 2.123698e+00 1.957034e+00 2.085252e+00 1.935126e+00 2.025028e+00 1.921388e+00 1.968783e+00 1.887147e+00 1.936188e+00 1.827102e+00 1.912163e+00 1.766456e+00 1.873187e+00 1.725744e+00 1.813052e+00 1.697231e+00 1.752188e+00 1.663169e+00 1.707365e+00 1.614476e+00 1.677894e+00 1.561519e+00 1.646915e+00 1.512053e+00 1.586830e+00 1.472268e+00 1.535141e+00 1.447900e+00 1.491990e+00 1.414528e+00 1.464557e+00 1.369939e+00 1.441422e+00 1.327082e+00 1.407608e+00 1.297708e+00 1.359933e+00 1.273015e+00 1.311393e+00 1.239333e+00 1.274258e+00 1.192374e+00 1.243103e+00 1.143505e+00 1.206316e+00 1.103490e+00 1.158800e+00 1.070464e+00 1.108736e+00 1.034912e+00 1.064575e+00 9.915584e-01 1.027138e+00 9.442475e-01 9.869257e-01 8.942155e-01 9.273193e-01 8.451115e-01 8.801842e-01 8.080725e-01 8.377127e-01 7.705347e-01 7.996278e-01 7.315200e-01 7.631936e-01 6.933879e-01 7.260463e-01 6.576607e-01 6.876174e-01 6.233024e-01 6.491850e-01 5.889815e-01 6.119047e-01 5.539795e-01 5.759604e-01 5.187260e-01 5.407091e-01 4.839264e-01 5.053408e-01 4.501249e-01 4.694134e-01 4.171121e-01 4.331952e-01 3.840431e-01 3.972768e-01 3.490646e-01 3.597133e-01 3.059224e-01 3.076943e-01 2.605756e-01 2.699511e-01 2.255588e-01 2.340086e-01 1.928734e-01 1.982495e-01 1.602089e-01 1.632834e-01 1.268169e-01 1.290748e-01 9.299203e-02 9.470903e-02 5.957565e-02 5.950153e-02 2.683814e-02 2.368928e-02 -5.746622e-03 -1.169171e-02 -3.894456e-02 -4.616317e-02 -7.268579e-02 -8.020556e-02 -1.061789e-01 -1.148861e-01 -1.388745e-01 -1.504120e-01 -1.712794e-01 -1.862052e-01 -2.055417e-01 -2.237123e-01 -2.483272e-01 -2.754721e-01 -2.935267e-01 -3.127919e-01 -3.286180e-01 -3.484113e-01 -3.612890e-01 -3.841554e-01 -3.937232e-01 -4.193079e-01 -4.268919e-01 -4.536690e-01 -4.607276e-01 -4.879329e-01 -4.944056e-01 -5.229756e-01 -5.274087e-01 -5.587927e-01 -5.600047e-01 -5.944725e-01 -5.930739e-01 -6.292826e-01 -6.267956e-01 -6.634231e-01 -6.605885e-01 -6.979675e-01 -6.936714e-01 -7.334091e-01 -7.262204e-01 -7.694584e-01 -7.603094e-01 -8.073328e-01 -8.029058e-01 -8.592998e-01 -8.482631e-01 -8.964054e-01 -8.836174e-01 -9.316608e-01 -9.163564e-01 -9.672506e-01 -9.484302e-01 -1.002475e+00 -9.811496e-01 -1.036816e+00 -1.014758e+00 -1.070747e+00 -1.048384e+00 -1.105383e+00 -1.081139e+00 -1.140825e+00 -1.113288e+00 -1.176167e+00 -1.146026e+00 -1.210751e+00 -1.179724e+00 -1.244965e+00 -1.213691e+00 -1.279949e+00 -1.247149e+00 -1.315944e+00 -1.280250e+00 -1.352290e+00 -1.313803e+00 -1.388163e+00 -1.348076e+00 -1.423427e+00 -1.382719e+00 -1.458508e+00 -1.416864e+00 -1.493902e+00 -1.450028e+00 -1.529619e+00 -1.482473e+00 -1.564983e+00 -1.515202e+00 -1.599573e+00 -1.548791e+00 -1.633822e+00 -1.582969e+00 -1.668939e+00 -1.616836e+00 -1.705288e+00 -1.650119e+00 -1.741887e+00 -1.683628e+00 -1.777760e+00 -1.717892e+00 -1.812542e+00 -1.752358e+00 -1.847013e+00 -1.785700e+00 -1.880705e+00 -1.814855e+00 -1.911048e+00 -1.842995e+00 -1.941087e+00 