# vtk DataFile Version 2.0
Comment goes here
ASCII

DATASET STRUCTURED_POINTS
FIELD FieldData 1
TIME 1 1 double
0.02400000
DIMENSIONS    256   32   1

ORIGIN    0.000   0.000   0.000
SPACING   0.0078125 0.0078125   1.000

POINT_DATA   8192
SCALARS P double
LOOKUP_TABLE default

-1.355773e+00 -1.341122e+00 -1.344221e+00 -1.317304e+00 -1.309961e+00 -1.262783e+00 -1.238326e+00 -1.156270e+00 -1.164619e+00 -1.043507e+00 -1.089386e+00 -9.485087e-01 -9.826515e-01 -8.677216e-01 -8.757369e-01 -7.004779e-01 -8.163816e-01 -5.520664e-01 -6.799545e-01 -4.707713e-01 -4.449954e-01 -3.936174e-01 -3.302777e-01 -2.163435e-01 -3.059016e-01 -7.517257e-02 -2.388018e-01 -2.881881e-02 -9.924493e-02 -3.640488e-02 4.292542e-02 -7.581459e-03 1.147508e-01 9.052718e-02 1.171432e-01 2.057923e-01 1.274972e-01 2.716138e-01 1.929443e-01 2.664181e-01 2.868872e-01 2.558349e-01 3.462686e-01 2.935693e-01 3.418790e-01 3.676382e-01 3.264189e-01 4.249675e-01 3.490262e-01 4.273554e-01 4.110318e-01 4.133144e-01 4.676961e-01 4.250711e-01 4.773128e-01 4.715894e-01 4.585309e-01 5.145396e-01 4.522007e-01 5.194627e-01 4.778033e-01 4.967192e-01 5.106233e-01 4.842067e-01 5.209715e-01 5.005600e-01 5.068611e-01 5.297318e-01 4.895588e-01 5.412027e-01 4.932991e-01 5.232942e-01 5.120006e-01 5.000192e-01 5.212252e-01 4.955833e-01 5.054812e-01 5.100513e-01 4.841101e-01 5.212636e-01 4.776986e-01 5.111978e-01 4.885164e-01 4.913939e-01 4.975684e-01 4.796934e-01 4.892772e-01 4.831987e-01 4.693150e-01 4.893729e-01 4.550855e-01 4.850956e-01 4.574224e-01 4.714019e-01 4.672541e-01 4.634771e-01 4.694470e-01 4.691707e-01 4.660741e-01 4.803341e-01 4.650250e-01 4.861252e-01 4.708564e-01 4.844507e-01 4.755203e-01 4.813825e-01 4.722637e-01 4.771140e-01 4.612561e-01 4.667842e-01 4.464437e-01 4.487302e-01 4.284144e-01 4.254506e-01 4.062819e-01 4.005155e-01 3.808308e-01 3.760234e-01 3.540858e-01 3.530891e-01 3.294152e-01 3.311870e-01 3.094120e-01 3.103549e-01 2.940413e-01 2.932895e-01 2.797146e-01 2.821872e-01 2.653256e-01 2.729665e-01 2.542991e-01 2.613569e-01 2.482224e-01 2.470909e-01 2.412174e-01 2.360816e-01 2.261549e-01 2.282009e-01 2.053803e-01 2.161644e-01 1.862191e-01 1.926650e-01 1.696180e-01 1.613230e-01 1.484663e-01 1.301408e-01 1.161626e-01 1.022305e-01 7.592981e-02 7.160795e-02 3.509896e-02 3.315688e-02 -1.992292e-03 -1.137566e-02 -3.931351e-02 -5.660073e-02 -8.014457e-02 -9.902113e-02 -1.242117e-01 -1.392743e-01 -1.682923e-01 -1.800626e-01 -2.112362e-01 -2.195937e-01 -2.508337e-01 -2.589278e-01 -2.869582e-01 -2.973370e-01 -3.202181e-01 -3.331855e-01 -3.522533e-01 -3.648091e-01 -3.847821e-01 -3.920467e-01 -4.162425e-01 -4.180068e-01 -4.438548e-01 -4.453245e-01 -4.668484e-01 -4.733463e-01 -4.888938e-01 -4.986535e-01 -5.130542e-01 -5.199432e-01 -5.390681e-01 -5.405997e-01 -5.634614e-01 -5.637313e-01 -5.846863e-01 -5.895225e-01 -6.053373e-01 -6.139153e-01 -6.289528e-01 -6.361924e-01 -6.541872e-01 -6.572910e-01 -6.786410e-01 -6.803895e-01 -7.003147e-01 -7.051846e-01 -7.211257e-01 -7.290552e-01 -7.436421e-01 -7.508280e-01 -7.680322e-01 -7.717580e-01 -7.920528e-01 -7.944789e-01 -8.144014e-01 -8.193002e-01 -8.358762e-01 -8.443505e-01 -8.590997e-01 -8.679073e-01 -8.847208e-01 -8.901668e-01 -9.108331e-01 -9.139976e-01 -9.350224e-01 -9.401069e-01 -9.575425e-01 -9.665731e-01 -9.812722e-01 -9.911236e-01 -1.007047e+00 -1.014160e+00 -1.033652e+00 -1.037717e+00 -1.058364e+00 -1.062807e+00 -1.081121e+00 -1.088859e+00 -1.103819e+00 -1.114189e+00 -1.128808e+00 -1.137632e+00 -1.155401e+00 -1.160366e+00 -1.180758e+00 -1.184877e+00 -1.204368e+00 -1.211306e+00 -1.227017e+00 -1.237077e+00 -1.251271e+00 -1.260699e+00 -1.277453e+00 -1.282850e+00 -1.303250e+00 -1.306355e+00 -1.328459e+00 -1.331524e+00 -1.345671e+00 -1.343488e+00 -1.354653e+00 -1.347402e+00 
-1.658527e+00 -1.724303e+00 -1.653300e+00 -1.712769e+00 -1.625715e+00 -1.671734e+00 -1.550130e+00 -1.575317e+00 -1.472804e+00 -1.472716e+00 -1.379713e+00 -1.381704e+00 -1.203958e+00 -1.299352e+00 -9.796255e-01 -9.659921e-01 -7.497584e-01 -6.392021e-01 -4.306805e-01 -3.795838e-01 -4.949385e-02 -1.100452e-01 8.328445e-02 1.596017e-01 9.073530e-02 3.358278e-01 1.340276e-01 3.880046e-01 2.628929e-01 3.718869e-01 3.974083e-01 3.916293e-01 4.583753e-01 4.883211e-01 4.443643e-01 6.023675e-01 4.413543e-01 6.635539e-01 5.014978e-01 6.452489e-01 5.936778e-01 6.224553e-01 6.491417e-01 6.537899e-01 6.335168e-01 7.251204e-01 6.076124e-01 7.785296e-01 6.237259e-01 7.701123e-01 6.834902e-01 7.453327e-01 7.373866e-01 7.487053e-01 7.386679e-01 7.907814e-01 7.097426e-01 8.281272e-01 6.948057e-01 8.239129e-01 7.159052e-01 7.895820e-01 7.447287e-01 7.683262e-01 7.477766e-01 7.791566e-01 7.283505e-01 8.044158e-01 7.030497e-01 8.096084e-01 7.016607e-01 7.824137e-01 7.164454e-01 7.503296e-01 7.209299e-01 7.391059e-01 6.976838e-01 7.482573e-01 6.694699e-01 7.537340e-01 6.574817e-01 7.356293e-01 6.640433e-01 7.076668e-01 6.681912e-01 6.884867e-01 6.535755e-01 6.858653e-01 6.266696e-01 6.857478e-01 6.059093e-01 6.741394e-01 6.032351e-01 6.519799e-01 6.086478e-01 6.364177e-01 6.028137e-01 6.350351e-01 5.932334e-01 6.389682e-01 5.855277e-01 6.371846e-01 5.860523e-01 6.275405e-01 5.850292e-01 6.174366e-01 5.756688e-01 6.065806e-01 5.585234e-01 5.893182e-01 5.381394e-01 5.640465e-01 5.148023e-01 5.337485e-01 4.872551e-01 5.019732e-01 4.562779e-01 4.707870e-01 4.239235e-01 4.413503e-01 3.936459e-01 4.128812e-01 3.682368e-01 3.850156e-01 3.478198e-01 3.606537e-01 3.280772e-01 3.430647e-01 3.073335e-01 3.266951e-01 2.897216e-01 3.079582e-01 2.784322e-01 2.858021e-01 2.665083e-01 2.677235e-01 2.455580e-01 2.536146e-01 2.184106e-01 2.355088e-01 1.935848e-01 2.049193e-01 1.721683e-01 1.661074e-01 1.464044e-01 1.280315e-01 1.086190e-01 9.414258e-02 6.259266e-02 5.758390e-02 1.626863e-02 1.263204e-02 -2.545046e-02 -3.859421e-02 -6.750276e-02 -9.038748e-02 -1.133875e-01 -1.392324e-01 -1.628305e-01 -1.854951e-01 -2.119766e-01 -2.336120e-01 -2.608844e-01 -2.792110e-01 -3.055435e-01 -3.251973e-01 -3.466763e-01 -3.701987e-01 -3.848910e-01 -4.126530e-01 -4.219773e-01 -4.508018e-01 -4.599755e-01 -4.843022e-01 -4.970974e-01 -5.167057e-01 -5.300570e-01 -5.507502e-01 -5.579571e-01 -5.858251e-01 -5.850252e-01 -6.178802e-01 -6.145581e-01 -6.454151e-01 -6.463374e-01 -6.723715e-01 -6.762938e-01 -7.022280e-01 -7.026454e-01 -7.353458e-01 -7.281266e-01 -7.664653e-01 -7.579610e-01 -7.957996e-01 -7.889648e-01 -8.234590e-01 -8.193678e-01 -8.536082e-01 -8.461776e-01 -8.854552e-01 -8.721234e-01 -9.161826e-01 -9.001314e-01 -9.445347e-01 -9.303227e-01 -9.719003e-01 -9.599886e-01 -1.001375e+00 -9.875653e-01 -1.033139e+00 -1.014071e+00 -1.065068e+00 -1.042555e+00 -1.095225e+00 -1.073752e+00 -1.123820e+00 -1.105568e+00 -1.154238e+00 -1.135200e+00 -1.187374e+00 -1.162803e+00 -1.220905e+00 -1.191785e+00 -1.252139e+00 -1.223084e+00 -1.281611e+00 -1.255435e+00 -1.311663e+00 -1.285607e+00 -1.343519e+00 -1.313482e+00 -1.376561e+00 -1.341244e+00 -1.408853e+00 -1.371735e+00 -1.438963e+00 -1.404201e+00 -1.468166e+00 -1.435192e+00 -1.499461e+00 -1.464097e+00 -1.533034e+00 -1.491782e+00 -1.565872e+00 -1.521304e+00 -1.596303e+00 -1.553111e+00 -1.625149e+00 -1.584532e+00 -1.655928e+00 -1.615817e+00 -1.689757e+00 -1.638213e+00 -1.708818e+00 -1.651995e+00 -1.720799e+00 
-1.362512e+00 -1.350643e+00 -1.356977e+00 -1.335028e+00 -1.332077e+00 -1.291225e+00 -1.239939e+00 -1.159562e+00 -1.165548e+00 -1.034974e+00 -1.108255e+00 -9.425832e-01 -9.863109e-01 -9.318376e-01 -8.594783e-01 -6.854001e-01 -8.589921e-01 -5.212795e-01 -7.322585e-01 -4.805081e-01 -4.000838e-01 -4.488387e-01 -2.939717e-01 -1.994275e-01 -3.292766e-01 -3.453093e-02 -2.801984e-01 -3.928052e-03 -1.004101e-01 -5.464834e-02 7.523035e-02 -4.589077e-02 1.468640e-01 8.201180e-02 1.138891e-01 2.297585e-01 9.850148e-02 3.049688e-01 1.794626e-01 2.704796e-01 3.049316e-01 2.325361e-01 3.772408e-01 2.775795e-01 3.500894e-01 3.787829e-01 3.107260e-01 4.535954e-01 3.331949e-01 4.391323e-01 4.177769e-01 4.046955e-01 4.933786e-01 4.114319e-01 4.939749e-01 4.762018e-01 4.544045e-01 5.338175e-01 4.373190e-01 5.332387e-01 4.747041e-01 4.909650e-01 5.213153e-01 4.703630e-01 5.302997e-01 4.951261e-01 5.119791e-01 5.411241e-01 4.823348e-01 5.573877e-01 4.891433e-01 5.281976e-01 5.190952e-01 4.934787e-01 5.346610e-01 4.894987e-01 5.100585e-01 5.141251e-01 4.800381e-01 5.334689e-01 4.731086e-01 5.185482e-01 4.925465e-01 4.909214e-01 5.081311e-01 4.759465e-01 4.972305e-01 4.847806e-01 4.695578e-01 4.966300e-01 4.502056e-01 4.916641e-01 4.566291e-01 4.712558e-01 4.744684e-01 4.604663e-01 4.722388e-01 4.690504e-01 4.671749e-01 4.838873e-01 4.636788e-01 4.903519e-01 4.729403e-01 4.859328e-01 4.798970e-01 4.830610e-01 4.763269e-01 4.808578e-01 4.635119e-01 4.708329e-01 4.484256e-01 4.512715e-01 4.306922e-01 4.264271e-01 4.079834e-01 4.004226e-01 3.814014e-01 3.752655e-01 3.530915e-01 3.524988e-01 3.272531e-01 3.307350e-01 3.071861e-01 3.087972e-01 2.936722e-01 2.905611e-01 2.802693e-01 2.823778e-01 2.642297e-01 2.739861e-01 2.516650e-01 2.627124e-01 2.488673e-01 2.452436e-01 2.454276e-01 2.345345e-01 2.289472e-01 2.304982e-01 2.045344e-01 2.220439e-01 1.850111e-01 1.965887e-01 1.719509e-01 1.611564e-01 1.540927e-01 1.286078e-01 1.201249e-01 1.036506e-01 7.618407e-02 7.548647e-02 3.328635e-02 3.607727e-02 -1.733979e-03 -1.101757e-02 -3.755055e-02 -5.769485e-02 -7.860972e-02 -1.001383e-01 -1.242713e-01 -1.381103e-01 -1.682747e-01 -1.816288e-01 -2.133274e-01 -2.195724e-01 -2.526151e-01 -2.596712e-01 -2.883260e-01 -2.986320e-01 -3.208653e-01 -3.351603e-01 -3.520546e-01 -3.669469e-01 -3.853530e-01 -3.927963e-01 -4.183164e-01 -4.176045e-01 -4.463070e-01 -4.450713e-01 -4.674974e-01 -4.747147e-01 -4.879187e-01 -5.006397e-01 -5.119607e-01 -5.202111e-01 -5.395596e-01 -5.391644e-01 -5.648494e-01 -5.620426e-01 -5.848409e-01 -5.900032e-01 -6.029777e-01 -6.138770e-01 -6.281295e-01 -6.365977e-01 -6.540613e-01 -6.559418e-01 -6.799059e-01 -6.797133e-01 -7.004654e-01 -7.056169e-01 -7.201436e-01 -7.299839e-01 -7.427575e-01 -7.512532e-01 -7.684641e-01 -7.710526e-01 -7.932489e-01 -7.938608e-01 -8.151100e-01 -8.195667e-01 -8.352954e-01 -8.452831e-01 -8.581394e-01 -8.685704e-01 -8.844714e-01 -8.893369e-01 -9.116019e-01 -9.127255e-01 -9.357189e-01 -9.398404e-01 -9.568350e-01 -9.674258e-01 -9.801663e-01 -9.917077e-01 -1.006448e+00 -1.013739e+00 -1.034423e+00 -1.036767e+00 -1.059219e+00 -1.062166e+00 -1.081009e+00 -1.089089e+00 -1.102531e+00 -1.115084e+00 -1.127932e+00 -1.138070e+00 -1.156159e+00 -1.159646e+00 -1.181940e+00 -1.184200e+00 -1.205138e+00 -1.211926e+00 -1.226445e+00 -1.238313e+00 -1.250450e+00 -1.261464e+00 -1.277647e+00 -1.282150e+00 -1.303446e+00 -1.305487e+00 -1.332443e+00 -1.338194e+00 -1.349849e+00 -1.347579e+00 -1.358702e+00 -1.352712e+00 
-1.670916e+00 -1.740638e+00 -1.678259e+00 -1.747290e+00 -1.681108e+00 -1.754109e+00 -1.656110e+00 -1.675654e+00 -1.605273e+00 -1.634177e+00 -1.584880e+00 -1.606546e+00 -1.479906e+00 -1.557038e+00 -9.899905e-01 -9.317130e-01 -5.412756e-01 -3.499519e-01 -4.227077e-02 2.551443e-01 6.119787e-01 6.321775e-01 8.265127e-01 8.992388e-01 7.723686e-01 9.452357e-01 7.854168e-01 9.714065e-01 8.645947e-01 9.491146e-01 9.178876e-01 9.528608e-01 9.434968e-01 1.008254e+00 9.319638e-01 1.058675e+00 9.227224e-01 1.079488e+00 9.554617e-01 1.066784e+00 1.000202e+00 1.039478e+00 1.008453e+00 1.050332e+00 9.926642e-01 1.080217e+00 9.688262e-01 1.093895e+00 9.709808e-01 1.078160e+00 9.951318e-01 1.057467e+00 1.015703e+00 1.052186e+00 1.007316e+00 1.069004e+00 9.759940e-01 1.073229e+00 9.547764e-01 1.046519e+00 9.542849e-01 1.007425e+00 9.479762e-01 9.886958e-01 9.373112e-01 9.820436e-01 9.172785e-01 9.872388e-01 8.907009e-01 9.726148e-01 8.807050e-01 9.446322e-01 8.780047e-01 9.139068e-01 8.645614e-01 8.977598e-01 8.369954e-01 8.902976e-01 8.109854e-01 8.798368e-01 7.954541e-01 8.555884e-01 7.887421e-01 8.275461e-01 7.778854e-01 8.064002e-01 7.548311e-01 7.942738e-01 7.276892e-01 7.811346e-01 7.052172e-01 7.579364e-01 6.938495e-01 7.325313e-01 6.851708e-01 7.108512e-01 6.624891e-01 6.953780e-01 6.407937e-01 6.836465e-01 6.256640e-01 6.690339e-01 6.167741e-01 6.489697e-01 6.050429e-01 6.315959e-01 5.875637e-01 6.156405e-01 5.628122e-01 5.947646e-01 5.383000e-01 5.665391e-01 5.153770e-01 5.330276e-01 4.898107e-01 5.005155e-01 4.588157e-01 4.715784e-01 4.238994e-01 4.447670e-01 3.928657e-01 4.153476e-01 3.672563e-01 3.829341e-01 3.462356e-01 3.528041e-01 3.221421e-01 3.317507e-01 2.919561e-01 3.042164e-01 2.635393e-01 2.824347e-01 2.443658e-01 2.538878e-01 2.279995e-01 2.276151e-01 2.050924e-01 2.063553e-01 1.765124e-01 1.856046e-01 1.463018e-01 1.572755e-01 1.200345e-01 1.213752e-01 9.471418e-02 8.281264e-02 6.383034e-02 4.768064e-02 2.461740e-02 1.447385e-02 -1.893012e-02 -2.064942e-02 -5.861316e-02 -6.297409e-02 -9.497715e-02 -1.099265e-01 -1.302279e-01 -1.575089e-01 -1.718981e-01 -1.949526e-01 -2.196681e-01 -2.418954e-01 -2.675764e-01 -2.777595e-01 -3.077941e-01 -3.224566e-01 -3.408036e-01 -3.659313e-01 -3.737183e-01 -4.040832e-01 -4.091985e-01 -4.366145e-01 -4.480347e-01 -4.665672e-01 -4.834717e-01 -4.995370e-01 -5.129955e-01 -5.356376e-01 -5.382070e-01 -5.707834e-01 -5.664409e-01 -6.011553e-01 -5.990638e-01 -6.264266e-01 -6.320942e-01 -6.543090e-01 -6.613401e-01 -6.871557e-01 -6.858296e-01 -7.241898e-01 -7.125717e-01 -7.539941e-01 -7.479652e-01 -7.887528e-01 -7.842560e-01 -8.147006e-01 -8.164138e-01 -8.484244e-01 -8.417835e-01 -8.834654e-01 -8.667413e-01 -9.153372e-01 -8.960868e-01 -9.428979e-01 -9.296959e-01 -9.685525e-01 -9.611553e-01 -9.988323e-01 -9.880344e-01 -1.032993e+00 -1.011968e+00 -1.066720e+00 -1.040088e+00 -1.096806e+00 -1.073494e+00 -1.122747e+00 -1.108298e+00 -1.152771e+00 -1.138666e+00 -1.188355e+00 -1.163768e+00 -1.224960e+00 -1.191756e+00 -1.256276e+00 -1.223746e+00 -1.283569e+00 -1.259346e+00 -1.311989e+00 -1.290045e+00 -1.344130e+00 -1.316175e+00 -1.379123e+00 -1.341263e+00 -1.413618e+00 -1.372262e+00 -1.443359e+00 -1.408167e+00 -1.469833e+00 -1.440607e+00 -1.500473e+00 -1.469361e+00 -1.536622e+00 -1.494118e+00 -1.571605e+00 -1.522842e+00 -1.602254e+00 -1.556482e+00 -1.627720e+00 -1.587947e+00 -1.656705e+00 -1.628836e+00 -1.705565e+00 -1.647040e+00 -1.716046e+00 -1.659429e+00 -1.729601e+00 
-1.379376e+00 -1.375392e+00 -1.392845e+00 -1.389056e+00 -1.420470e+00 -1.430807e+00 -1.497196e+00 -1.448855e+00 -1.495317e+00 -1.483104e+00 -1.487469e+00 -1.436696e+00 -1.410387e+00 -1.107126e+00 -8.440469e-01 -4.551561e-01 -1.901328e-01 2.776365e-01 4.156098e-01 1.104753e+00 1.031819e+00 1.636872e+00 1.569297e+00 1.722085e+00 1.705502e+00 1.607779e+00 1.748203e+00 1.620485e+00 1.665309e+00 1.677067e+00 1.543866e+00 1.697802e+00 1.509027e+00 1.621490e+00 1.557184e+00 1.512964e+00 1.588525e+00 1.455764e+00 1.541615e+00 1.493051e+00 1.448210e+00 1.517411e+00 1.371272e+00 1.480749e+00 1.388565e+00 1.393855e+00 1.414018e+00 1.319735e+00 1.393056e+00 1.321134e+00 1.318054e+00 1.344045e+00 1.250484e+00 1.333899e+00 1.238697e+00 1.273020e+00 1.246026e+00 1.201318e+00 1.236137e+00 1.159444e+00 1.179137e+00 1.155493e+00 1.101594e+00 1.152771e+00 1.068087e+00 1.105910e+00 1.056781e+00 1.047528e+00 1.053624e+00 1.000718e+00 1.024420e+00 9.949735e-01 9.741024e-01 9.929663e-01 9.268733e-01 9.704282e-01 9.131471e-01 9.219206e-01 9.093371e-01 8.760119e-01 8.901819e-01 8.561574e-01 8.480596e-01 8.477682e-01 8.047109e-01 8.326739e-01 7.786619e-01 7.983411e-01 7.691415e-01 7.581127e-01 7.558383e-01 7.255279e-01 7.238808e-01 7.106010e-01 6.798380e-01 6.880911e-01 6.428802e-01 6.485797e-01 6.106095e-01 6.073999e-01 5.877322e-01 5.739558e-01 5.573161e-01 5.472499e-01 5.256830e-01 5.216164e-01 4.983368e-01 4.962095e-01 4.710590e-01 4.726690e-01 4.457881e-01 4.490394e-01 4.256068e-01 4.229310e-01 4.072155e-01 3.993156e-01 3.845822e-01 3.802292e-01 3.577611e-01 3.611513e-01 3.337818e-01 3.365084e-01 3.112564e-01 3.075743e-01 2.870479e-01 2.775529e-01 2.577682e-01 2.471609e-01 2.224847e-01 2.082734e-01 1.856677e-01 1.821129e-01 1.504104e-01 1.553511e-01 1.211636e-01 1.224755e-01 1.000138e-01 8.793249e-02 8.003171e-02 5.981150e-02 4.954369e-02 4.263852e-02 1.520319e-02 2.582373e-02 -1.172952e-02 -7.763237e-04 -2.599183e-02 -3.368125e-02 -4.106489e-02 -5.941533e-02 -6.584530e-02 -7.325590e-02 -9.653673e-02 -8.894437e-02 -1.207334e-01 -1.139867e-01 -1.364212e-01 -1.462695e-01 -1.568215e-01 -1.701029e-01 -1.906032e-01 -1.991402e-01 -2.226715e-01 -2.197437e-01 -2.492394e-01 -2.493866e-01 -2.676965e-01 -2.782301e-01 -2.892437e-01 -3.007022e-01 -3.165298e-01 -3.194436e-01 -3.455674e-01 -3.417130e-01 -3.688835e-01 -3.699419e-01 -3.886811e-01 -3.992744e-01 -4.106966e-01 -4.235172e-01 -4.384159e-01 -4.446215e-01 -4.681639e-01 -4.663937e-01 -4.935099e-01 -4.932814e-01 -5.157494e-01 -5.232428e-01 -5.381933e-01 -5.528578e-01 -5.676809e-01 -5.781574e-01 -6.016191e-01 -6.117989e-01 -6.364126e-01 -6.369386e-01 -6.636149e-01 -6.668990e-01 -6.866094e-01 -6.959879e-01 -7.096011e-01 -7.217513e-01 -7.355367e-01 -7.443627e-01 -7.640020e-01 -7.659564e-01 -7.903642e-01 -7.908327e-01 -8.131552e-01 -8.183028e-01 -8.336710e-01 -8.452699e-01 -8.574489e-01 -8.695688e-01 -8.853884e-01 -8.910296e-01 -9.146503e-01 -9.154799e-01 -9.408030e-01 -9.439778e-01 -9.626872e-01 -9.735466e-01 -9.858449e-01 -9.990862e-01 -1.011754e+00 -1.020876e+00 -1.040899e+00 -1.042883e+00 -1.066628e+00 -1.067855e+00 -1.088775e+00 -1.095565e+00 -1.109758e+00 -1.123599e+00 -1.134989e+00 -1.147947e+00 -1.164276e+00 -1.169047e+00 -1.191751e+00 -1.192682e+00 -1.216285e+00 -1.220777e+00 -1.237103e+00 -1.248990e+00 -1.260413e+00 -1.274112e+00 -1.287278e+00 -1.294116e+00 -1.313539e+00 -1.315734e+00 -1.346459e+00 -1.349777e+00 -1.357994e+00 -1.356028e+00 -1.367978e+00 -1.365597e+00 
-1.688060e+00 -1.762763e+00 -1.710909e+00 -1.788638e+00 -1.745017e+00 -1.832201e+00 -1.818773e+00 -1.883397e+00 -1.846472e+00 -1.934941e+00 -1.867203e+00 -1.940224e+00 -1.901872e+00 -1.829601e+00 -1.101976e+00 -8.046968e-01 -3.042839e-04 9.480409e-02 9.005311e-01 1.295736e+00 1.794121e+00 2.329300e+00 2.031223e+00 2.241715e+00 2.145412e+00 2.128849e+00 2.165060e+00 2.113599e+00 2.068888e+00 2.147601e+00 1.953833e+00 2.149765e+00 1.906866e+00 2.064826e+00 1.929657e+00 1.958445e+00 1.942206e+00 1.896889e+00 1.884875e+00 1.909585e+00 1.789774e+00 1.918982e+00 1.716970e+00 1.872380e+00 1.715790e+00 1.783636e+00 1.725132e+00 1.709136e+00 1.693911e+00 1.695581e+00 1.617284e+00 1.700399e+00 1.546916e+00 1.677317e+00 1.522893e+00 1.609899e+00 1.518962e+00 1.536549e+00 1.499182e+00 1.491823e+00 1.438633e+00 1.477736e+00 1.364349e+00 1.458674e+00 1.320030e+00 1.402139e+00 1.295518e+00 1.336843e+00 1.281559e+00 1.286839e+00 1.245227e+00 1.269727e+00 1.191321e+00 1.256833e+00 1.142396e+00 1.225153e+00 1.120971e+00 1.172170e+00 1.106901e+00 1.121563e+00 1.079287e+00 1.093197e+00 1.032516e+00 1.074594e+00 9.855208e-01 1.049562e+00 9.541144e-01 1.008172e+00 9.359135e-01 9.623114e-01 9.140929e-01 9.245118e-01 8.756439e-01 8.994112e-01 8.264750e-01 8.669880e-01 7.834832e-01 8.177640e-01 7.438525e-01 7.692812e-01 7.117643e-01 7.282737e-01 6.740573e-01 6.940477e-01 6.362283e-01 6.601759e-01 6.024247e-01 6.261470e-01 5.703513e-01 5.943427e-01 5.396339e-01 5.637795e-01 5.121778e-01 5.324841e-01 4.864820e-01 5.027158e-01 4.587072e-01 4.754932e-01 4.287006e-01 4.477656e-01 3.997046e-01 4.164507e-01 3.706933e-01 3.824277e-01 3.391418e-01 3.465984e-01 3.035958e-01 3.067498e-01 2.628029e-01 2.602929e-01 2.203248e-01 2.239483e-01 1.791224e-01 1.903242e-01 1.428743e-01 1.519744e-01 1.144121e-01 1.113582e-01 8.779729e-02 7.548385e-02 5.375055e-02 4.930651e-02 1.579914e-02 2.483710e-02 -1.687371e-02 -6.469138e-03 -3.910741e-02 -4.332958e-02 -6.017725e-02 -7.532330e-02 -8.760394e-02 -9.828369e-02 -1.204502e-01 -1.210109e-01 -1.493019e-01 -1.499422e-01 -1.725608e-01 -1.843411e-01 -1.987154e-01 -2.169984e-01 -2.354323e-01 -2.528719e-01 -2.711588e-01 -2.833076e-01 -3.022153e-01 -3.162936e-01 -3.279555e-01 -3.487578e-01 -3.554336e-01 -3.775150e-01 -3.865744e-01 -4.045318e-01 -4.181463e-01 -4.346113e-01 -4.462681e-01 -4.683922e-01 -4.728942e-01 -5.022990e-01 -5.020469e-01 -5.326368e-01 -5.346726e-01 -5.614751e-01 -5.678263e-01 -5.919422e-01 -5.977014e-01 -6.255822e-01 -6.259985e-01 -6.606484e-01 -6.558478e-01 -6.948149e-01 -6.912497e-01 -7.292957e-01 -7.302097e-01 -7.706051e-01 -7.696981e-01 -8.057178e-01 -8.023657e-01 -8.407821e-01 -8.324149e-01 -8.747073e-01 -8.621849e-01 -9.067487e-01 -8.931716e-01 -9.372405e-01 -9.250840e-01 -9.674411e-01 -9.560049e-01 -9.990283e-01 -9.851969e-01 -1.031829e+00 -1.013457e+00 -1.064475e+00 -1.043254e+00 -1.095903e+00 -1.075178e+00 -1.126363e+00 -1.107881e+00 -1.158110e+00 -1.139241e+00 -1.191728e+00 -1.168667e+00 -1.225925e+00 -1.198177e+00 -1.258294e+00 -1.228990e+00 -1.288608e+00 -1.261219e+00 -1.318683e+00 -1.292109e+00 -1.350223e+00 -1.321203e+00 -1.383298e+00 -1.349742e+00 -1.416670e+00 -1.380124e+00 -1.448337e+00 -1.412437e+00 -1.478402e+00 -1.444396e+00 -1.509372e+00 -1.474714e+00 -1.542400e+00 -1.503237e+00 -1.575903e+00 -1.532550e+00 -1.607884e+00 -1.563378e+00 -1.637337e+00 -1.594732e+00 -1.667170e+00 -1.626633e+00 -1.698607e+00 -1.648017e+00 -1.720236e+00 -1.667860e+00 -1.741186e+00 
-1.394671e+00 -1.397310e+00 -1.416979e+00 -1.420864e+00 -1.447795e+00 -1.454197e+00 -1.490963e+00 -1.487161e+00 -1.512440e+00 -1.521627e+00 -1.523641e+00 -1.547111e+00 -1.527479e+00 -1.620989e+00 -7.934508e-01 -6.495364e-01 -2.458687e-02 2.082510e-01 7.989806e-01 1.036670e+00 1.825915e+00 1.779400e+00 1.765552e+00 1.773185e+00 1.779224e+00 1.726698e+00 1.772921e+00 1.711644e+00 1.716244e+00 1.716004e+00 1.647717e+00 1.704832e+00 1.610511e+00 1.652659e+00 1.606009e+00 1.587886e+00 1.598880e+00 1.544976e+00 1.559601e+00 1.535461e+00 1.501055e+00 1.526370e+00 1.452465e+00 1.491793e+00 1.435815e+00 1.436839e+00 1.426743e+00 1.388729e+00 1.399319e+00 1.367692e+00 1.350686e+00 1.357755e+00 1.304722e+00 1.335045e+00 1.278856e+00 1.291308e+00 1.262872e+00 1.242672e+00 1.239397e+00 1.206185e+00 1.196933e+00 1.184426e+00 1.146682e+00 1.161146e+00 1.107192e+00 1.116681e+00 1.079308e+00 1.072562e+00 1.059045e+00 1.036811e+00 1.030253e+00 1.016433e+00 9.931648e-01 9.991797e-01 9.582380e-01 9.735118e-01 9.353795e-01 9.377431e-01 9.171696e-01 9.027637e-01 8.930268e-01 8.775572e-01 8.599365e-01 8.578413e-01 8.260949e-01 8.355153e-01 7.992735e-01 8.057031e-01 7.790299e-01 7.730332e-01 7.573218e-01 7.435525e-01 7.277326e-01 7.192586e-01 6.917857e-01 6.907196e-01 6.539836e-01 6.502487e-01 6.185553e-01 6.138108e-01 5.898206e-01 5.818756e-01 5.604569e-01 5.535691e-01 5.309978e-01 5.266871e-01 5.031824e-01 5.005602e-01 4.764532e-01 4.754730e-01 4.512909e-01 4.508062e-01 4.283691e-01 4.259849e-01 4.063536e-01 4.023123e-01 3.830655e-01 3.801975e-01 3.583766e-01 3.578375e-01 3.340883e-01 3.331719e-01 3.098558e-01 3.062341e-01 2.841297e-01 2.776259e-01 2.548497e-01 2.461674e-01 2.194060e-01 2.074478e-01 1.827302e-01 1.773704e-01 1.504092e-01 1.492426e-01 1.220144e-01 1.195584e-01 9.732543e-02 8.965957e-02 7.319514e-02 6.287353e-02 4.581109e-02 4.063632e-02 1.727851e-02 1.909865e-02 -7.917341e-03 -5.585158e-03 -2.805527e-02 -3.224182e-02 -4.767957e-02 -5.603512e-02 -7.046142e-02 -7.537396e-02 -9.532876e-02 -9.474846e-02 -1.180999e-01 -1.175208e-01 -1.383668e-01 -1.432649e-01 -1.612893e-01 -1.691977e-01 -1.920458e-01 -2.010330e-01 -2.230884e-01 -2.259622e-01 -2.484718e-01 -2.513658e-01 -2.702931e-01 -2.763258e-01 -2.928233e-01 -2.992177e-01 -3.175072e-01 -3.210378e-01 -3.428413e-01 -3.443678e-01 -3.664762e-01 -3.700072e-01 -3.890454e-01 -3.961262e-01 -4.126915e-01 -4.205749e-01 -4.384846e-01 -4.438730e-01 -4.649916e-01 -4.676887e-01 -4.900399e-01 -4.934565e-01 -5.139763e-01 -5.205757e-01 -5.386457e-01 -5.479661e-01 -5.669905e-01 -5.762877e-01 -6.006403e-01 -6.116815e-01 -6.345214e-01 -6.400278e-01 -6.621386e-01 -6.674849e-01 -6.868808e-01 -6.942005e-01 -7.112281e-01 -7.195348e-01 -7.365505e-01 -7.435984e-01 -7.626539e-01 -7.673713e-01 -7.880429e-01 -7.922363e-01 -8.120955e-01 -8.180886e-01 -8.355000e-01 -8.438313e-01 -8.600820e-01 -8.686373e-01 -8.862957e-01 -8.927273e-01 -9.130457e-01 -9.178424e-01 -9.387237e-01 -9.444274e-01 -9.629960e-01 -9.713231e-01 -9.874678e-01 -9.967940e-01 -1.012970e+00 -1.020794e+00 -1.039345e+00 -1.044711e+00 -1.064661e+00 -1.069716e+00 -1.088622e+00 -1.095802e+00 -1.112286e+00 -1.121942e+00 -1.137405e+00 -1.146811e+00 -1.163924e+00 -1.170648e+00 -1.190020e+00 -1.195272e+00 -1.214852e+00 -1.221359e+00 -1.238479e+00 -1.247553e+00 -1.262748e+00 -1.272455e+00 -1.288189e+00 -1.295635e+00 -1.313800e+00 -1.319065e+00 -1.339383e+00 -1.343770e+00 -1.358562e+00 -1.361383e+00 -1.376041e+00 -1.378531e+00 
-1.702921e+00 -1.781227e+00 -1.733391e+00 -1.814571e+00 -1.771486e+00 -1.856042e+00 -1.820127e+00 -1.902172e+00 -1.859188e+00 -1.947468e+00 -1.895240e+00 -1.983054e+00 -1.936387e+00 -2.024648e+00 -9.873322e-01 -9.120754e-01 4.187586e-02 1.424220e-01 1.065344e+00 1.249693e+00 2.169171e+00 2.319247e+00 2.133891e+00 2.259226e+00 2.140165e+00 2.192276e+00 2.123319e+00 2.155865e+00 2.065020e+00 2.139405e+00 1.997572e+00 2.112345e+00 1.952856e+00 2.055289e+00 1.933028e+00 1.989358e+00 1.911683e+00 1.940355e+00 1.866455e+00 1.916312e+00 1.806954e+00 1.893787e+00 1.756357e+00 1.851981e+00 1.728983e+00 1.794824e+00 1.707717e+00 1.743199e+00 1.672732e+00 1.711698e+00 1.621915e+00 1.688520e+00 1.572859e+00 1.655808e+00 1.539076e+00 1.607393e+00 1.513739e+00 1.556063e+00 1.482943e+00 1.515110e+00 1.438461e+00 1.485538e+00 1.388617e+00 1.453123e+00 1.339249e+00 1.392197e+00 1.298380e+00 1.344607e+00 1.270785e+00 1.304870e+00 1.237067e+00 1.276089e+00 1.196862e+00 1.249551e+00 1.158543e+00 1.216361e+00 1.129030e+00 1.175618e+00 1.102740e+00 1.135462e+00 1.071842e+00 1.102666e+00 1.034320e+00 1.074067e+00 9.964380e-01 1.043394e+00 9.640880e-01 1.007170e+00 9.366504e-01 9.690401e-01 9.081533e-01 9.338479e-01 8.739127e-01 9.025390e-01 8.348190e-01 8.672848e-01 7.884993e-01 8.112237e-01 7.434176e-01 7.699460e-01 7.093064e-01 7.326359e-01 6.749450e-01 6.978402e-01 6.404037e-01 6.638811e-01 6.071634e-01 6.304447e-01 5.751593e-01 5.980474e-01 5.444079e-01 5.664508e-01 5.152218e-01 5.351898e-01 4.868821e-01 5.047393e-01 4.580581e-01 4.751602e-01 4.285204e-01 4.453124e-01 3.990067e-01 4.140742e-01 3.692747e-01 3.815290e-01 3.384469e-01 3.478278e-01 3.049854e-01 3.107242e-01 2.612707e-01 2.570827e-01 2.160550e-01 2.209428e-01 1.799594e-01 1.872241e-01 1.467956e-01 1.520795e-01 1.163011e-01 1.163810e-01 8.637912e-02 8.284334e-02 5.437744e-02 5.290142e-02 2.147332e-02 2.399573e-02 -9.061366e-03 -6.769218e-03 -3.570723e-02 -3.892481e-02 -6.132957e-02 -6.914347e-02 -8.869983e-02 -9.608994e-02 -1.175401e-01 -1.224000e-01 -1.450067e-01 -1.504324e-01 -1.705593e-01 -1.801600e-01 -1.977554e-01 -2.115601e-01 -2.360561e-01 -2.584176e-01 -2.751282e-01 -2.892251e-01 -3.042461e-01 -3.190859e-01 -3.311631e-01 -3.490723e-01 -3.588789e-01 -3.783058e-01 -3.881240e-01 -4.073449e-01 -4.177863e-01 -4.376534e-01 -4.466198e-01 -4.694395e-01 -4.751504e-01 -5.014305e-01 -5.046843e-01 -5.323967e-01 -5.355276e-01 -5.628444e-01 -5.665866e-01 -5.938806e-01 -5.965822e-01 -6.260001e-01 -6.258579e-01 -6.585232e-01 -6.556302e-01 -6.907324e-01 -6.879871e-01 -7.248469e-01 -7.297262e-01 -7.753100e-01 -7.719564e-01 -8.095829e-01 -8.036483e-01 -8.420153e-01 -8.334222e-01 -8.741739e-01 -8.632162e-01 -9.058142e-01 -8.936072e-01 -9.369492e-01 -9.243895e-01 -9.680399e-01 -9.548677e-01 -9.996524e-01 -9.847380e-01 -1.031759e+00 -1.014368e+00 -1.063871e+00 -1.044603e+00 -1.095605e+00 -1.075698e+00 -1.127120e+00 -1.107130e+00 -1.159125e+00 -1.138108e+00 -1.191825e+00 -1.168416e+00 -1.224679e+00 -1.198670e+00 -1.256844e+00 -1.229358e+00 -1.288201e+00 -1.260417e+00 -1.319397e+00 -1.291026e+00 -1.351110e+00 -1.320975e+00 -1.383410e+00 -1.350770e+00 -1.415792e+00 -1.381218e+00 -1.447592e+00 -1.412355e+00 -1.478874e+00 -1.443411e+00 -1.510444e+00 -1.473819e+00 -1.542688e+00 -1.503598e+00 -1.575065e+00 -1.533539e+00 -1.606786e+00 -1.563945e+00 -1.637540e+00 -1.594402e+00 -1.667986e+00 -1.624088e+00 -1.698003e+00 -1.650525e+00 -1.725314e+00 -1.676127e+00 -1.752391e+00 