# vtk DataFile Version 2.0
Comment goes here
ASCII

DATASET STRUCTURED_POINTS
FIELD FieldData 1
TIME 1 1 double
0.00700000
DIMENSIONS    256   32   1

ORIGIN    0.000   0.000   0.000
SPACING   0.0078125 0.0078125   1.000

POINT_DATA   8192
SCALARS P double
LOOKUP_TABLE default

-1.090439e+00 -1.081074e+00 -1.085781e+00 -1.068184e+00 -1.066311e+00 -1.035511e+00 -1.023998e+00 -9.789942e-01 -9.869563e-01 -9.169271e-01 -9.458765e-01 -8.596079e-01 -8.767118e-01 -7.951624e-01 -7.817655e-01 -6.421642e-01 -7.093927e-01 -5.067113e-01 -5.741935e-01 -4.159073e-01 -3.699043e-01 -3.339928e-01 -2.584301e-01 -1.773943e-01 -2.210314e-01 -4.161883e-02 -1.532753e-01 2.191652e-02 -2.659526e-02 3.270186e-02 9.238423e-02 6.056756e-02 1.513736e-01 1.349415e-01 1.559953e-01 2.175050e-01 1.577308e-01 2.610170e-01 1.962899e-01 2.502221e-01 2.575123e-01 2.342260e-01 2.996047e-01 2.589326e-01 2.984920e-01 3.201250e-01 2.940865e-01 3.758860e-01 3.257783e-01 3.968202e-01 3.922442e-01 4.097475e-01 4.559312e-01 4.447091e-01 4.904664e-01 5.038032e-01 5.110509e-01 5.594537e-01 5.400236e-01 5.930701e-01 5.822358e-01 6.101589e-01 6.206045e-01 6.269704e-01 6.410100e-01 6.491509e-01 6.507282e-01 6.689490e-01 6.560239e-01 6.780649e-01 6.632476e-01 6.767883e-01 6.679274e-01 6.723408e-01 6.654504e-01 6.683084e-01 6.563166e-01 6.625078e-01 6.453015e-01 6.524006e-01 6.345461e-01 6.381481e-01 6.226994e-01 6.227340e-01 6.079011e-01 6.076210e-01 5.901569e-01 5.920316e-01 5.719265e-01 5.744130e-01 5.545816e-01 5.548993e-01 5.374082e-01 5.351402e-01 5.185675e-01 5.163512e-01 4.978500e-01 4.975522e-01 4.770271e-01 4.781494e-01 4.575127e-01 4.572417e-01 4.389739e-01 4.360915e-01 4.194807e-01 4.159792e-01 3.983873e-01 3.969289e-01 3.768434e-01 3.773023e-01 3.565607e-01 3.564850e-01 3.374946e-01 3.349644e-01 3.182446e-01 3.142712e-01 2.976971e-01 2.946782e-01 2.759394e-01 2.753444e-01 2.547705e-01 2.548102e-01 2.350772e-01 2.332031e-01 2.160557e-01 2.118653e-01 1.958322e-01 1.918507e-01 1.741287e-01 1.721084e-01 1.524208e-01 1.520945e-01 1.321847e-01 1.307511e-01 1.131491e-01 1.091256e-01 9.344146e-02 8.856135e-02 7.225027e-02 6.919047e-02 5.045098e-02 4.955678e-02 2.983891e-02 2.880918e-02 1.050532e-02 7.201673e-03 -8.656202e-03 -1.375120e-02 -2.905942e-02 -3.355907e-02 -5.078335e-02 -5.282172e-02 -7.215861e-02 -7.319324e-02 -9.203623e-02 -9.471434e-02 -1.110326e-01 -1.162005e-01 -1.310892e-01 -1.364025e-01 -1.526890e-01 -1.561614e-01 -1.744941e-01 -1.760201e-01 -1.949199e-01 -1.972013e-01 -2.140431e-01 -2.188988e-01 -2.335795e-01 -2.396640e-01 -2.545576e-01 -2.591895e-01 -2.763745e-01 -2.786284e-01 -2.971811e-01 -2.991582e-01 -3.166577e-01 -3.206925e-01 -3.356687e-01 -3.417873e-01 -3.558493e-01 -3.617102e-01 -3.774192e-01 -3.808630e-01 -3.988813e-01 -4.009956e-01 -4.188346e-01 -4.223071e-01 -4.377303e-01 -4.437817e-01 -4.575029e-01 -4.640219e-01 -4.788232e-01 -4.836267e-01 -5.005108e-01 -5.031553e-01 -5.208532e-01 -5.239277e-01 -5.397911e-01 -5.453425e-01 -5.588404e-01 -5.658674e-01 -5.792754e-01 -5.850317e-01 -6.005990e-01 -6.038089e-01 -6.208861e-01 -6.236450e-01 -6.396383e-01 -6.443931e-01 -6.577227e-01 -6.644705e-01 -6.769113e-01 -6.830420e-01 -6.972115e-01 -7.008271e-01 -7.171052e-01 -7.197520e-01 -7.354913e-01 -7.399494e-01 -7.530609e-01 -7.600337e-01 -7.718240e-01 -7.786896e-01 -7.921016e-01 -7.965947e-01 -8.126939e-01 -8.157031e-01 -8.320633e-01 -8.366225e-01 -8.507871e-01 -8.583599e-01 -8.705165e-01 -8.791427e-01 -8.921902e-01 -8.992012e-01 -9.149052e-01 -9.196783e-01 -9.368769e-01 -9.415925e-01 -9.578450e-01 -9.644627e-01 -9.784291e-01 -9.873531e-01 -9.999249e-01 -1.008896e+00 -1.022656e+00 -1.028083e+00 -1.044245e+00 -1.047234e+00 -1.064518e+00 -1.066996e+00 -1.078469e+00 -1.077406e+00 -1.086955e+00 -1.082543e+00 
-1.306977e+00 -1.346144e+00 -1.306731e+00 -1.341453e+00 -1.291963e+00 -1.317795e+00 -1.248007e+00 -1.269008e+00 -1.209657e+00 -1.214326e+00 -1.155814e+00 -1.158893e+00 -1.039369e+00 -1.078478e+00 -8.423122e-01 -8.162216e-01 -6.503059e-01 -5.435511e-01 -3.944958e-01 -3.129209e-01 -8.795968e-02 -1.249910e-01 3.815515e-02 9.298147e-02 6.001004e-02 2.525321e-01 1.127194e-01 3.171611e-01 2.342577e-01 3.192587e-01 3.475615e-01 3.397124e-01 3.971773e-01 4.125437e-01 3.898046e-01 4.937063e-01 3.820220e-01 5.335584e-01 4.167423e-01 5.129110e-01 4.766937e-01 4.876826e-01 5.164068e-01 5.077056e-01 5.063558e-01 5.673806e-01 4.935548e-01 6.203668e-01 5.205929e-01 6.326409e-01 5.856198e-01 6.371457e-01 6.465708e-01 6.662541e-01 6.740684e-01 7.221812e-01 6.873666e-01 7.733569e-01 7.109728e-01 8.003053e-01 7.500598e-01 8.100623e-01 7.852132e-01 8.209991e-01 7.980447e-01 8.383096e-01 8.040885e-01 8.536325e-01 8.040292e-01 8.573478e-01 8.074433e-01 8.501499e-01 8.082341e-01 8.403907e-01 8.013434e-01 8.317606e-01 7.876139e-01 8.214315e-01 7.725356e-01 8.065923e-01 7.581103e-01 7.873968e-01 7.426627e-01 7.672445e-01 7.240379e-01 7.476129e-01 7.021049e-01 7.275509e-01 6.797075e-01 7.051353e-01 6.585538e-01 6.806723e-01 6.377362e-01 6.560170e-01 6.150322e-01 6.327776e-01 5.900521e-01 6.091750e-01 5.650749e-01 5.852887e-01 5.417534e-01 5.594921e-01 5.195920e-01 5.334558e-01 4.962818e-01 5.086409e-01 4.710653e-01 4.851664e-01 4.454864e-01 4.610515e-01 4.214929e-01 4.356570e-01 3.988796e-01 4.094775e-01 3.760608e-01 3.842299e-01 3.517822e-01 3.601758e-01 3.259759e-01 3.364060e-01 3.007163e-01 3.111440e-01 2.772371e-01 2.846501e-01 2.545936e-01 2.584474e-01 2.305503e-01 2.339946e-01 2.046611e-01 2.094356e-01 1.787684e-01 1.849877e-01 1.547079e-01 1.587827e-01 1.320495e-01 1.322688e-01 1.085595e-01 1.069737e-01 8.328158e-02 8.316487e-02 5.743371e-02 5.907385e-02 3.308796e-02 3.377689e-02 1.018310e-02 7.513333e-03 -1.252191e-02 -1.801860e-02 -3.662891e-02 -4.231754e-02 -6.238022e-02 -6.600021e-02 -8.787804e-02 -9.106300e-02 -1.115746e-01 -1.174544e-01 -1.341882e-01 -1.438239e-01 -1.580213e-01 -1.685136e-01 -1.837998e-01 -1.930805e-01 -2.097938e-01 -2.173418e-01 -2.340857e-01 -2.433551e-01 -2.568458e-01 -2.699512e-01 -2.801318e-01 -2.954870e-01 -3.051606e-01 -3.194784e-01 -3.310379e-01 -3.433385e-01 -3.556092e-01 -3.683937e-01 -3.786802e-01 -3.945778e-01 -4.012171e-01 -4.202769e-01 -4.250790e-01 -4.447179e-01 -4.506513e-01 -4.682862e-01 -4.762653e-01 -4.930785e-01 -5.000721e-01 -5.192428e-01 -5.225883e-01 -5.456111e-01 -5.461004e-01 -5.704064e-01 -5.715810e-01 -5.947942e-01 -5.974801e-01 -6.187163e-01 -6.217212e-01 -6.442889e-01 -6.443128e-01 -6.706094e-01 -6.670765e-01 -6.959416e-01 -6.915323e-01 -7.195873e-01 -7.169345e-01 -7.427540e-01 -7.410415e-01 -7.671376e-01 -7.634547e-01 -7.926604e-01 -7.851397e-01 -8.175060e-01 -8.081636e-01 -8.406558e-01 -8.325534e-01 -8.628656e-01 -8.565089e-01 -8.864152e-01 -8.787134e-01 -9.114746e-01 -8.999106e-01 -9.364254e-01 -9.224762e-01 -9.596996e-01 -9.467893e-01 -9.820194e-01 -9.714725e-01 -1.005671e+00 -9.946845e-01 -1.031355e+00 -1.017050e+00 -1.057970e+00 -1.040470e+00 -1.083397e+00 -1.066049e+00 -1.107919e+00 -1.092791e+00 -1.132845e+00 -1.118609e+00 -1.159387e+00 -1.143271e+00 -1.187044e+00 -1.167485e+00 -1.214856e+00 -1.192798e+00 -1.241315e+00 -1.219714e+00 -1.265163e+00 -1.245433e+00 -1.289343e+00 -1.270060e+00 -1.315113e+00 -1.287697e+00 -1.330398e+00 -1.299648e+00 -1.341030e+00 
-1.094536e+00 -1.086828e+00 -1.093270e+00 -1.078216e+00 -1.077956e+00 -1.047615e+00 -1.021402e+00 -9.817830e-01 -9.889812e-01 -9.145829e-01 -9.602156e-01 -8.632401e-01 -8.897597e-01 -8.412651e-01 -7.711225e-01 -6.328724e-01 -7.412705e-01 -4.845500e-01 -6.089398e-01 -4.126174e-01 -3.246975e-01 -3.715325e-01 -2.220505e-01 -1.670245e-01 -2.362800e-01 -5.893161e-03 -1.829829e-01 4.819578e-02 -2.272726e-02 2.417774e-02 1.222211e-01 3.713385e-02 1.784463e-01 1.308317e-01 1.574582e-01 2.369654e-01 1.392058e-01 2.880646e-01 1.849105e-01 2.528101e-01 2.670081e-01 2.137660e-01 3.210702e-01 2.405691e-01 3.000505e-01 3.226923e-01 2.759313e-01 3.931582e-01 3.083184e-01 4.009028e-01 3.937090e-01 3.990160e-01 4.708932e-01 4.330184e-01 4.979362e-01 5.059814e-01 5.071163e-01 5.707369e-01 5.336039e-01 6.015127e-01 5.844652e-01 6.103491e-01 6.310050e-01 6.244503e-01 6.434067e-01 6.498316e-01 6.536621e-01 6.740666e-01 6.549480e-01 6.829795e-01 6.643051e-01 6.780046e-01 6.711464e-01 6.716152e-01 6.681705e-01 6.686710e-01 6.567808e-01 6.642064e-01 6.449833e-01 6.543130e-01 6.350553e-01 6.389235e-01 6.243454e-01 6.230078e-01 6.098732e-01 6.083393e-01 5.909822e-01 5.935593e-01 5.718027e-01 5.756751e-01 5.547209e-01 5.552512e-01 5.384446e-01 5.346574e-01 5.197238e-01 5.167087e-01 4.978425e-01 4.974910e-01 4.761454e-01 4.788618e-01 4.568483e-01 4.571320e-01 4.392294e-01 4.352389e-01 4.199466e-01 4.149513e-01 3.980218e-01 3.967224e-01 3.757391e-01 3.774558e-01 3.557810e-01 3.566640e-01 3.375773e-01 3.347387e-01 3.190664e-01 3.141572e-01 2.987898e-01 2.950369e-01 2.762327e-01 2.764494e-01 2.543600e-01 2.556714e-01 2.349672e-01 2.333011e-01 2.168470e-01 2.112183e-01 1.967944e-01 1.920985e-01 1.741298e-01 1.718589e-01 1.514640e-01 1.527444e-01 1.313934e-01 1.306603e-01 1.132585e-01 1.082703e-01 9.385554e-02 8.745939e-02 7.196720e-02 6.883291e-02 4.937018e-02 4.967735e-02 2.902637e-02 2.905197e-02 1.042810e-02 7.048185e-03 -7.864360e-03 -1.388182e-02 -2.792511e-02 -3.333763e-02 -5.036569e-02 -5.177106e-02 -7.257280e-02 -7.228471e-02 -9.225531e-02 -9.450038e-02 -1.103261e-01 -1.168063e-01 -1.300731e-01 -1.362693e-01 -1.526046e-01 -1.564966e-01 -1.753864e-01 -1.753646e-01 -1.957752e-01 -1.971717e-01 -2.140645e-01 -2.196789e-01 -2.331803e-01 -2.407989e-01 -2.547212e-01 -2.597178e-01 -2.773798e-01 -2.785129e-01 -2.980218e-01 -2.988539e-01 -3.168659e-01 -3.207535e-01 -3.349122e-01 -3.419272e-01 -3.546937e-01 -3.615935e-01 -3.768768e-01 -3.798835e-01 -3.992919e-01 -4.000646e-01 -4.191475e-01 -4.219972e-01 -4.371260e-01 -4.443255e-01 -4.564642e-01 -4.640367e-01 -4.786488e-01 -4.840134e-01 -5.013780e-01 -5.025339e-01 -5.217555e-01 -5.238094e-01 -5.399337e-01 -5.460552e-01 -5.584156e-01 -5.670146e-01 -5.793277e-01 -5.856197e-01 -6.015220e-01 -6.035759e-01 -6.217416e-01 -6.232640e-01 -6.399219e-01 -6.446199e-01 -6.570859e-01 -6.650859e-01 -6.762571e-01 -6.833382e-01 -6.973378e-01 -7.001963e-01 -7.178108e-01 -7.190809e-01 -7.358711e-01 -7.399878e-01 -7.524478e-01 -7.607378e-01 -7.710587e-01 -7.790581e-01 -7.919406e-01 -7.959884e-01 -8.133031e-01 -8.147954e-01 -8.323840e-01 -8.362123e-01 -8.502825e-01 -8.588363e-01 -8.695437e-01 -8.795043e-01 -8.916691e-01 -8.989913e-01 -9.152764e-01 -9.189597e-01 -9.373786e-01 -9.411143e-01 -9.580370e-01 -9.644522e-01 -9.779736e-01 -9.880273e-01 -9.993075e-01 -1.010074e+00 -1.023226e+00 -1.028102e+00 -1.044903e+00 -1.046930e+00 -1.067685e+00 -1.071682e+00 -1.081208e+00 -1.080048e+00 -1.089464e+00 -1.085861e+00 
-1.314587e+00 -1.356021e+00 -1.321397e+00 -1.360715e+00 -1.321662e+00 -1.357137e+00 -1.304815e+00 -1.331750e+00 -1.291162e+00 -1.308458e+00 -1.280643e+00 -1.284239e+00 -1.201661e+00 -1.236738e+00 -7.962272e-01 -7.310678e-01 -4.441278e-01 -2.780035e-01 -6.232963e-02 2.008601e-01 4.635344e-01 4.937388e-01 6.234785e-01 6.756452e-01 6.048846e-01 7.381167e-01 6.297238e-01 7.793346e-01 6.995830e-01 7.618610e-01 7.459010e-01 7.626340e-01 7.582911e-01 7.939885e-01 7.508593e-01 8.313389e-01 7.421011e-01 8.469308e-01 7.556706e-01 8.290346e-01 7.813264e-01 8.079300e-01 7.944604e-01 8.116919e-01 7.821583e-01 8.362200e-01 7.687838e-01 8.571092e-01 7.767087e-01 8.575286e-01 8.053494e-01 8.535731e-01 8.322425e-01 8.619785e-01 8.404791e-01 8.851778e-01 8.399124e-01 9.049170e-01 8.454354e-01 9.117691e-01 8.598558e-01 9.084942e-01 8.718436e-01 9.053701e-01 8.677240e-01 9.065480e-01 8.611361e-01 9.053202e-01 8.522211e-01 8.969406e-01 8.467286e-01 8.817829e-01 8.382636e-01 8.660347e-01 8.226804e-01 8.530706e-01 8.033458e-01 8.377426e-01 7.855096e-01 8.185611e-01 7.697270e-01 7.957827e-01 7.525374e-01 7.739826e-01 7.318889e-01 7.540562e-01 7.065957e-01 7.338867e-01 6.821706e-01 7.096808e-01 6.613285e-01 6.827782e-01 6.417751e-01 6.563727e-01 6.185464e-01 6.348683e-01 5.909908e-01 6.099258e-01 5.636403e-01 5.873740e-01 5.407251e-01 5.596451e-01 5.206792e-01 5.320127e-01 4.978940e-01 5.068832e-01 4.708925e-01 4.853530e-01 4.434648e-01 4.619365e-01 4.199629e-01 4.363196e-01 3.991694e-01 4.087925e-01 3.778365e-01 3.835869e-01 3.539087e-01 3.605797e-01 3.261207e-01 3.386055e-01 2.994798e-01 3.128990e-01 2.768992e-01 2.847625e-01 2.564785e-01 2.570041e-01 2.327512e-01 2.345634e-01 2.046692e-01 2.088820e-01 1.765850e-01 1.864489e-01 1.528409e-01 1.586907e-01 1.324096e-01 1.305390e-01 1.098258e-01 1.048076e-01 8.317612e-02 8.280694e-02 5.535861e-02 5.978045e-02 3.138354e-02 3.454678e-02 9.993949e-03 6.962764e-03 -1.085198e-02 -1.874845e-02 -3.442181e-02 -4.228476e-02 -6.196436e-02 -6.393616e-02 -8.915590e-02 -8.921529e-02 -1.121895e-01 -1.170825e-01 -1.325002e-01 -1.452011e-01 -1.557099e-01 -1.682049e-01 -1.836046e-01 -1.938357e-01 -2.118377e-01 -2.158892e-01 -2.360905e-01 -2.431756e-01 -2.568056e-01 -2.715153e-01 -2.789151e-01 -2.977177e-01 -3.049947e-01 -3.202622e-01 -3.329321e-01 -3.426545e-01 -3.573863e-01 -3.674858e-01 -3.792184e-01 -3.949124e-01 -3.996563e-01 -4.210626e-01 -4.228531e-01 -4.449964e-01 -4.499813e-01 -4.664598e-01 -4.776158e-01 -4.912710e-01 -5.010239e-01 -5.187382e-01 -5.213021e-01 -5.470026e-01 -5.439209e-01 -5.706562e-01 -5.714254e-01 -5.960143e-01 -5.997031e-01 -6.177489e-01 -6.242397e-01 -6.443078e-01 -6.452212e-01 -6.725027e-01 -6.665765e-01 -6.989514e-01 -6.919081e-01 -7.217008e-01 -7.194814e-01 -7.432134e-01 -7.440879e-01 -7.674186e-01 -7.659669e-01 -7.945329e-01 -7.859094e-01 -8.209112e-01 -8.088704e-01 -8.442489e-01 -8.349195e-01 -8.649077e-01 -8.609369e-01 -8.882629e-01 -8.836767e-01 -9.145842e-01 -9.035483e-01 -9.418383e-01 -9.255672e-01 -9.658885e-01 -9.505659e-01 -9.871899e-01 -9.774852e-01 -1.009699e+00 -1.001538e+00 -1.035355e+00 -1.023110e+00 -1.063738e+00 -1.044514e+00 -1.089935e+00 -1.069391e+00 -1.113506e+00 -1.097196e+00 -1.135652e+00 -1.123437e+00 -1.160755e+00 -1.146734e+00 -1.188321e+00 -1.167797e+00 -1.217270e+00 -1.191767e+00 -1.244564e+00 -1.221484e+00 -1.265872e+00 -1.247362e+00 -1.289147e+00 -1.278593e+00 -1.325951e+00 -1.293400e+00 -1.335064e+00 -1.304281e+00 -1.346568e+00 
-1.105016e+00 -1.102263e+00 -1.115034e+00 -1.110826e+00 -1.130228e+00 -1.129395e+00 -1.173663e+00 -1.153310e+00 -1.178310e+00 -1.161534e+00 -1.162532e+00 -1.099835e+00 -1.068790e+00 -8.358849e-01 -5.798972e-01 -2.964569e-01 -6.357328e-02 2.642458e-01 3.970425e-01 9.024513e-01 8.792206e-01 1.317053e+00 1.251201e+00 1.368786e+00 1.371269e+00 1.289811e+00 1.400314e+00 1.305706e+00 1.323843e+00 1.333752e+00 1.222912e+00 1.331774e+00 1.184384e+00 1.261659e+00 1.216702e+00 1.183034e+00 1.240386e+00 1.145078e+00 1.206533e+00 1.174233e+00 1.139353e+00 1.202559e+00 1.090771e+00 1.177354e+00 1.107986e+00 1.108410e+00 1.127996e+00 1.051559e+00 1.103036e+00 1.052103e+00 1.037487e+00 1.059106e+00 9.818340e-01 1.035080e+00 9.675984e-01 9.794085e-01 9.632192e-01 9.300202e-01 9.424885e-01 9.069039e-01 9.000509e-01 8.966270e-01 8.584298e-01 8.768643e-01 8.388992e-01 8.460606e-01 8.147096e-01 8.116286e-01 7.985565e-01 7.859470e-01 7.746964e-01 7.676610e-01 7.483649e-01 7.490323e-01 7.233549e-01 7.286417e-01 7.030787e-01 7.058205e-01 6.848705e-01 6.834827e-01 6.666934e-01 6.625054e-01 6.467455e-01 6.432579e-01 6.256443e-01 6.248976e-01 6.029347e-01 6.057766e-01 5.817126e-01 5.841336e-01 5.631332e-01 5.612842e-01 5.451951e-01 5.394206e-01 5.244077e-01 5.211297e-01 5.007730e-01 4.998332e-01 4.771368e-01 4.805620e-01 4.574205e-01 4.577235e-01 4.400758e-01 4.351168e-01 4.206731e-01 4.145648e-01 3.980526e-01 3.968811e-01 3.751678e-01 3.778142e-01 3.554266e-01 3.570204e-01 3.379058e-01 3.347691e-01 3.199624e-01 3.143556e-01 2.998808e-01 2.956967e-01 2.767602e-01 2.777476e-01 2.545551e-01 2.568052e-01 2.355399e-01 2.339072e-01 2.181332e-01 2.113363e-01 1.979303e-01 1.926718e-01 1.741507e-01 1.713283e-01 1.503666e-01 1.526684e-01 1.301541e-01 1.300998e-01 1.127452e-01 1.071957e-01 9.373363e-02 8.624649e-02 7.152900e-02 6.829568e-02 4.839950e-02 4.963918e-02 2.831067e-02 2.922011e-02 1.036869e-02 6.952411e-03 -7.149758e-03 -1.385034e-02 -2.690767e-02 -3.290689e-02 -4.982879e-02 -5.057988e-02 -7.246159e-02 -7.116543e-02 -9.183111e-02 -9.384940e-02 -1.091347e-01 -1.167086e-01 -1.289243e-01 -1.358091e-01 -1.525560e-01 -1.571122e-01 -1.764523e-01 -1.754705e-01 -1.970660e-01 -1.976647e-01 -2.147062e-01 -2.207107e-01 -2.333441e-01 -2.420408e-01 -2.551002e-01 -2.604260e-01 -2.783188e-01 -2.785980e-01 -2.987995e-01 -2.986930e-01 -3.171054e-01 -3.208452e-01 -3.343209e-01 -3.420163e-01 -3.537859e-01 -3.614207e-01 -3.764046e-01 -3.789756e-01 -3.994261e-01 -3.992113e-01 -4.191613e-01 -4.216100e-01 -4.365016e-01 -4.446667e-01 -4.558636e-01 -4.643955e-01 -4.792743e-01 -4.856213e-01 -5.032646e-01 -5.038137e-01 -5.243242e-01 -5.254950e-01 -5.424347e-01 -5.485689e-01 -5.606489e-01 -5.704382e-01 -5.819056e-01 -5.894458e-01 -6.050287e-01 -6.072684e-01 -6.261923e-01 -6.270275e-01 -6.453337e-01 -6.491780e-01 -6.627699e-01 -6.713458e-01 -6.822284e-01 -6.914547e-01 -7.041531e-01 -7.092319e-01 -7.268776e-01 -7.284313e-01 -7.475451e-01 -7.498258e-01 -7.656456e-01 -7.729398e-01 -7.842838e-01 -7.942664e-01 -8.048624e-01 -8.130227e-01 -8.279009e-01 -8.311016e-01 -8.496296e-01 -8.509264e-01 -8.688425e-01 -8.735560e-01 -8.859900e-01 -8.955550e-01 -9.049207e-01 -9.147138e-01 -9.266619e-01 -9.309454e-01 -9.481145e-01 -9.489492e-01 -9.666088e-01 -9.697066e-01 -9.826671e-01 -9.923436e-01 -1.001711e+00 -1.013918e+00 -1.026159e+00 -1.031525e+00 -1.048246e+00 -1.050511e+00 -1.074167e+00 -1.078319e+00 -1.085791e+00 -1.085251e+00 -1.095171e+00 -1.094047e+00 
-1.325729e+00 -1.370739e+00 -1.342801e+00 -1.388756e+00 -1.365284e+00 -1.415491e+00 -1.411082e+00 -1.451189e+00 -1.429179e+00 -1.473744e+00 -1.434869e+00 -1.450485e+00 -1.433631e+00 -1.327926e+00 -7.302255e-01 -5.431936e-01 7.986513e-02 1.680435e-01 7.190702e-01 1.114594e+00 1.418382e+00 1.809767e+00 1.601683e+00 1.744936e+00 1.691042e+00 1.658940e+00 1.698747e+00 1.648016e+00 1.614970e+00 1.662821e+00 1.517852e+00 1.649061e+00 1.473950e+00 1.577530e+00 1.486815e+00 1.497883e+00 1.494931e+00 1.454089e+00 1.455455e+00 1.467527e+00 1.388249e+00 1.481493e+00 1.338145e+00 1.449853e+00 1.341862e+00 1.380823e+00 1.348487e+00 1.321651e+00 1.316970e+00 1.309041e+00 1.250477e+00 1.302839e+00 1.191392e+00 1.270851e+00 1.166914e+00 1.211745e+00 1.152209e+00 1.157626e+00 1.123914e+00 1.125634e+00 1.077224e+00 1.105507e+00 1.031101e+00 1.078209e+00 1.004103e+00 1.040816e+00 9.746845e-01 1.001425e+00 9.515447e-01 9.699377e-01 9.219924e-01 9.454467e-01 8.909684e-01 9.208948e-01 8.623743e-01 8.941484e-01 8.379758e-01 8.660294e-01 8.147717e-01 8.388939e-01 7.910724e-01 8.135305e-01 7.662620e-01 7.891647e-01 7.410655e-01 7.649753e-01 7.157014e-01 7.401073e-01 6.911775e-01 7.141763e-01 6.677747e-01 6.878347e-01 6.444433e-01 6.621129e-01 6.196379e-01 6.374766e-01 5.933112e-01 6.114528e-01 5.669610e-01 5.862643e-01 5.428225e-01 5.600279e-01 5.199197e-01 5.338985e-01 4.961703e-01 5.088541e-01 4.709688e-01 4.850741e-01 4.456610e-01 4.608440e-01 4.218168e-01 4.357114e-01 3.991447e-01 4.099808e-01 3.763018e-01 3.850415e-01 3.522650e-01 3.610003e-01 3.268636e-01 3.371216e-01 3.018580e-01 3.118764e-01 2.783267e-01 2.856171e-01 2.554264e-01 2.595470e-01 2.310638e-01 2.347119e-01 2.046843e-01 2.087637e-01 1.782993e-01 1.839344e-01 1.539264e-01 1.578688e-01 1.310241e-01 1.316044e-01 1.074981e-01 1.063529e-01 8.249598e-02 8.247302e-02 5.708971e-02 5.843678e-02 3.304877e-02 3.349746e-02 1.020936e-02 7.760079e-03 -1.245664e-02 -1.737295e-02 -3.630719e-02 -4.158681e-02 -6.163087e-02 -6.535010e-02 -8.682438e-02 -9.040823e-02 -1.105256e-01 -1.165725e-01 -1.333777e-01 -1.427798e-01 -1.575498e-01 -1.678116e-01 -1.838466e-01 -1.937534e-01 -2.102971e-01 -2.184287e-01 -2.348623e-01 -2.443271e-01 -2.578634e-01 -2.706539e-01 -2.812186e-01 -2.961070e-01 -3.060153e-01 -3.201633e-01 -3.314517e-01 -3.440096e-01 -3.556901e-01 -3.687679e-01 -3.786929e-01 -3.944558e-01 -4.012404e-01 -4.197612e-01 -4.249231e-01 -4.441437e-01 -4.501283e-01 -4.678623e-01 -4.754941e-01 -4.927465e-01 -4.993899e-01 -5.187855e-01 -5.222666e-01 -5.451144e-01 -5.462502e-01 -5.704397e-01 -5.724504e-01 -5.964106e-01 -5.989602e-01 -6.209877e-01 -6.238009e-01 -6.466635e-01 -6.470550e-01 -6.730287e-01 -6.702608e-01 -6.988256e-01 -6.948214e-01 -7.232657e-01 -7.202598e-01 -7.470693e-01 -7.449706e-01 -7.716915e-01 -7.685895e-01 -7.974499e-01 -7.914228e-01 -8.233962e-01 -8.150524e-01 -8.484162e-01 -8.399034e-01 -8.723667e-01 -8.653575e-01 -8.967070e-01 -8.899779e-01 -9.221288e-01 -9.133484e-01 -9.485860e-01 -9.365764e-01 -9.744414e-01 -9.607079e-01 -9.989597e-01 -9.861904e-01 -1.022683e+00 -1.011389e+00 -1.047096e+00 -1.035166e+00 -1.072945e+00 -1.057485e+00 -1.098851e+00 -1.080349e+00 -1.123114e+00 -1.104630e+00 -1.145581e+00 -1.129081e+00 -1.168687e+00 -1.151957e+00 -1.193506e+00 -1.173697e+00 -1.219481e+00 -1.197121e+00 -1.244943e+00 -1.223112e+00 -1.269055e+00 -1.248714e+00 -1.293602e+00 -1.274247e+00 -1.319422e+00 -1.292944e+00 -1.337339e+00 -1.309496e+00 -1.354173e+00 
-1.115350e+00 -1.117410e+00 -1.131769e+00 -1.133888e+00 -1.152213e+00 -1.155033e+00 -1.179516e+00 -1.178469e+00 -1.193975e+00 -1.195428e+00 -1.196474e+00 -1.199770e+00 -1.187021e+00 -1.230519e+00 -5.797295e-01 -4.700773e-01 3.480006e-02 2.031297e-01 6.747977e-01 8.542703e-01 1.452579e+00 1.440937e+00 1.412679e+00 1.424041e+00 1.425138e+00 1.384258e+00 1.415392e+00 1.369836e+00 1.364920e+00 1.363560e+00 1.304015e+00 1.343164e+00 1.267670e+00 1.296635e+00 1.259975e+00 1.245858e+00 1.252263e+00 1.213941e+00 1.223378e+00 1.208624e+00 1.181064e+00 1.204784e+00 1.147243e+00 1.179815e+00 1.136645e+00 1.136607e+00 1.128269e+00 1.097370e+00 1.101909e+00 1.077921e+00 1.058582e+00 1.062550e+00 1.017606e+00 1.035286e+00 9.916262e-01 9.952840e-01 9.713660e-01 9.565793e-01 9.455456e-01 9.281439e-01 9.116054e-01 9.060644e-01 8.776851e-01 8.816345e-01 8.508154e-01 8.522305e-01 8.253361e-01 8.225122e-01 8.029617e-01 7.965866e-01 7.788723e-01 7.743769e-01 7.539998e-01 7.530594e-01 7.301221e-01 7.313092e-01 7.084499e-01 7.089230e-01 6.881026e-01 6.868712e-01 6.680049e-01 6.656846e-01 6.473806e-01 6.453820e-01 6.262694e-01 6.254916e-01 6.048358e-01 6.052753e-01 5.840258e-01 5.842071e-01 5.641694e-01 5.627354e-01 5.444573e-01 5.416735e-01 5.236084e-01 5.213355e-01 5.012455e-01 4.997088e-01 4.789727e-01 4.790375e-01 4.585646e-01 4.577109e-01 4.391498e-01 4.364810e-01 4.191452e-01 4.160905e-01 3.980806e-01 3.966311e-01 3.769536e-01 3.768781e-01 3.569150e-01 3.564570e-01 3.377602e-01 3.356148e-01 3.184855e-01 3.153389e-01 2.983060e-01 2.957240e-01 2.771222e-01 2.762001e-01 2.562091e-01 2.556749e-01 2.363689e-01 2.343800e-01 2.169672e-01 2.131986e-01 1.964421e-01 1.927818e-01 1.741534e-01 1.712266e-01 1.518586e-01 1.508112e-01 1.313296e-01 1.296306e-01 1.119272e-01 1.083348e-01 9.208905e-02 8.780885e-02 7.117729e-02 6.828646e-02 4.999343e-02 4.867461e-02 2.981573e-02 2.840008e-02 1.054666e-02 7.558672e-03 -8.601801e-03 -1.285527e-02 -2.863836e-02 -3.259214e-02 -4.976378e-02 -5.203414e-02 -7.080989e-02 -7.241799e-02 -9.077350e-02 -9.364208e-02 -1.101417e-01 -1.149223e-01 -1.305263e-01 -1.354840e-01 -1.527500e-01 -1.570361e-01 -1.750974e-01 -1.773348e-01 -1.957695e-01 -1.983947e-01 -2.152400e-01 -2.197386e-01 -2.349538e-01 -2.404173e-01 -2.557158e-01 -2.600633e-01 -2.769232e-01 -2.795414e-01 -2.972480e-01 -2.996805e-01 -3.166350e-01 -3.204883e-01 -3.357004e-01 -3.410283e-01 -3.556119e-01 -3.608882e-01 -3.766571e-01 -3.802996e-01 -3.978289e-01 -4.005586e-01 -4.179363e-01 -4.217000e-01 -4.373236e-01 -4.430751e-01 -4.575821e-01 -4.638479e-01 -4.797365e-01 -4.854276e-01 -5.021528e-01 -5.056576e-01 -5.230257e-01 -5.265816e-01 -5.426678e-01 -5.479780e-01 -5.622904e-01 -5.689103e-01 -5.829193e-01 -5.888189e-01 -6.041803e-01 -6.082917e-01 -6.248566e-01 -6.284001e-01 -6.446713e-01 -6.493527e-01 -6.639621e-01 -6.703556e-01 -6.839132e-01 -6.906183e-01 -7.048094e-01 -7.101527e-01 -7.260140e-01 -7.300957e-01 -7.465118e-01 -7.509076e-01 -7.661283e-01 -7.722920e-01 -7.858223e-01 -7.930931e-01 -8.062726e-01 -8.129221e-01 -8.275073e-01 -8.324115e-01 -8.483308e-01 -8.525004e-01 -8.681121e-01 -8.734626e-01 -8.871134e-01 -8.941980e-01 -9.065961e-01 -9.137830e-01 -9.269621e-01 -9.323464e-01 -9.472470e-01 -9.514241e-01 -9.665286e-01 -9.716551e-01 -9.852030e-01 -9.926632e-01 -1.005057e+00 -1.013324e+00 -1.026682e+00 -1.032928e+00 -1.048081e+00 -1.052811e+00 -1.069138e+00 -1.073501e+00 -1.085668e+00 -1.088603e+00 -1.100422e+00 -1.102827e+00 
-1.336051e+00 -1.384041e+00 -1.358851e+00 -1.408216e+00 -1.385716e+00 -1.436715e+00 -1.418630e+00 -1.468237e+00 -1.445199e+00 -1.495529e+00 -1.467573e+00 -1.514303e+00 -1.490567e+00 -1.545862e+00 -7.134370e-01 -6.617618e-01 8.547513e-02 1.682691e-01 8.687848e-01 1.026062e+00 1.732119e+00 1.819527e+00 1.693014e+00 1.766506e+00 1.690961e+00 1.711026e+00 1.669618e+00 1.679008e+00 1.616701e+00 1.658447e+00 1.556978e+00 1.628421e+00 1.516131e+00 1.579449e+00 1.496674e+00 1.527444e+00 1.478134e+00 1.490408e+00 1.444463e+00 1.473837e+00 1.401076e+00 1.458940e+00 1.364471e+00 1.428251e+00 1.344846e+00 1.383637e+00 1.326967e+00 1.341657e+00 1.295476e+00 1.313847e+00 1.250906e+00 1.289291e+00 1.207659e+00 1.255940e+00 1.175476e+00 1.212960e+00 1.148072e+00 1.170810e+00 1.116804e+00 1.136486e+00 1.079651e+00 1.107469e+00 1.042620e+00 1.077105e+00 1.010195e+00 1.041446e+00 9.795099e-01 1.007582e+00 9.520775e-01 9.769247e-01 9.236082e-01 9.493392e-01 8.948139e-01 9.226218e-01 8.671804e-01 8.955873e-01 8.413784e-01 8.683134e-01 8.165523e-01 8.415484e-01 7.918746e-01 8.156480e-01 7.669580e-01 7.903804e-01 7.419293e-01 7.653313e-01 7.169799e-01 7.400996e-01 6.924565e-01 7.145398e-01 6.684234e-01 6.889108e-01 6.444659e-01 6.635852e-01 6.199143e-01 6.383741e-01 5.936440e-01 6.107240e-01 5.674318e-01 5.853597e-01 5.431800e-01 5.599615e-01 5.194865e-01 5.345949e-01 4.955184e-01 5.096261e-01 4.710562e-01 4.850819e-01 4.465700e-01 4.604475e-01 4.226040e-01 4.354942e-01 3.990923e-01 4.103619e-01 3.755305e-01 3.854834e-01 3.514968e-01 3.609214e-01 3.269956e-01 3.363635e-01 3.026202e-01 3.113451e-01 2.787586e-01 2.859752e-01 2.551071e-01 2.606912e-01 2.308421e-01 2.355103e-01 2.046890e-01 2.079733e-01 1.785231e-01 1.827950e-01 1.542536e-01 1.575133e-01 1.306023e-01 1.321431e-01 1.067444e-01 1.071242e-01 8.237288e-02 8.256848e-02 5.787409e-02 5.801209e-02 3.384397e-02 3.313956e-02 1.028972e-02 8.013914e-03 -1.321124e-02 -1.692748e-02 -3.716662e-02 -4.154135e-02 -6.163887e-02 -6.606081e-02 -8.607162e-02 -9.100670e-02 -1.099899e-01 -1.163424e-01 -1.336251e-01 -1.416719e-01 -1.578238e-01 -1.669190e-01 -1.839433e-01 -1.944570e-01 -2.101370e-01 -2.195783e-01 -2.344750e-01 -2.448056e-01 -2.581564e-01 -2.701999e-01 -2.819571e-01 -2.952963e-01 -3.062599e-01 -3.199066e-01 -3.307684e-01 -3.444083e-01 -3.548715e-01 -3.692122e-01 -3.784822e-01 -3.943228e-01 -4.019504e-01 -4.193250e-01 -4.258434e-01 -4.440006e-01 -4.502851e-01 -4.685115e-01 -4.747803e-01 -4.934019e-01 -4.987773e-01 -5.187084e-01 -5.224319e-01 -5.440987e-01 -5.465844e-01 -5.694588e-01 -5.726861e-01 -5.970379e-01 -5.989352e-01 -6.221395e-01 -6.234038e-01 -6.473269e-01 -6.471987e-01 -6.727814e-01 -6.709946e-01 -6.980552e-01 -6.952699e-01 -7.228559e-01 -7.198630e-01 -7.474312e-01 -7.442292e-01 -7.722822e-01 -7.681623e-01 -7.975429e-01 -7.918398e-01 -8.228800e-01 -8.157980e-01 -8.478916e-01 -8.402322e-01 -8.725599e-01 -8.648845e-01 -8.973594e-01 -8.892466e-01 -9.225866e-01 -9.131657e-01 -9.481519e-01 -9.370139e-01 -9.734974e-01 -9.612020e-01 -9.983219e-01 -9.858073e-01 -1.022834e+00 -1.010277e+00 -1.047554e+00 -1.034156e+00 -1.072695e+00 -1.057489e+00 -1.097777e+00 -1.080923e+00 -1.122217e+00 -1.104772e+00 -1.146042e+00 -1.128655e+00 -1.170064e+00 -1.152068e+00 -1.194762e+00 -1.175251e+00 -1.219961e+00 -1.199100e+00 -1.245073e+00 -1.223845e+00 -1.269788e+00 -1.248560e+00 -1.294421e+00 -1.272602e+00 -1.318729e+00 -1.294344e+00 -1.340708e+00 -1.315039e+00 -1.362058e+00 