# vtk DataFile Version 2.0
Comment goes here
ASCII

DATASET STRUCTURED_POINTS
FIELD FieldData 1
TIME 1 1 double
0.10000000
DIMENSIONS    64   64   1

ORIGIN    0.000   0.000   0.000
SPACING   0.03125 0.03125   1.000

POINT_DATA   4096
SCALARS P double
LOOKUP_TABLE default

-1.125073e+03 -7.435565e+03 -5.104534e+03 5.324191e+03 3.116405e+03 -1.115355e+04 -5.929292e+03 9.951003e+02 9.078781e+02 -4.839481e+03 -1.446493e+04 1.342202e+03 -1.923384e+03 -1.608011e+04 -2.673904e+03 1.007475e+04 2.284886e+04 1.939379e+04 2.970552e+04 2.818068e+04 1.260763e+04 1.914004e+04 2.065262e+04 -7.539123e+02 -1.335211e+04 -6.425677e+03 -6.550847e+03 -1.574347e+03 5.660344e+03 -1.048976e+04 -2.025605e+04 -1.765410e+03 -1.048298e+04 -1.790270e+04 -1.888974e+04 1.883739e+03 1.077788e+04 -1.218775e+04 -1.472183e+04 -5.517079e+02 -5.708827e+03 -8.880371e+02 4.186951e+04 2.354500e+04 4.555259e+02 3.254982e+04 3.753612e+04 1.768282e+04 7.532607e+03 -4.339235e+02 -2.112563e+04 -2.571679e+04 -2.286872e+04 -5.746704e+03 -4.735067e+02 -2.875297e+04 -1.619755e+04 1.425638e+03 1.197045e+04 -1.024235e+04 -3.628608e+04 -2.471380e+04 -1.423547e+04 -1.133618e+04 
2.954016e+03 1.332230e+03 4.420096e+03 5.283782e+03 9.450698e+03 -2.287725e+03 -3.232156e+03 1.478062e+03 1.448956e+02 -1.883941e+03 -6.374517e+03 1.288319e+03 -2.702891e+03 -1.740370e+04 -2.917813e+03 5.842630e+02 6.651352e+03 1.010952e+04 9.565769e+03 1.407743e+04 3.283883e+03 4.633650e+03 9.994099e+03 1.730553e+02 -1.157568e+04 -8.715034e+03 -8.023270e+03 -9.724835e+02 2.556502e+03 -7.417061e+03 -1.091656e+04 4.306474e+03 -1.548579e+03 -4.696517e+03 -3.644241e+03 4.763290e+03 1.151826e+04 -3.370945e+03 -7.973327e+03 3.252164e+03 9.183790e+02 8.807626e+02 2.869376e+04 1.691411e+04 2.280391e+03 2.380956e+04 2.480317e+04 1.071522e+04 5.157793e+03 3.860940e+03 -9.934941e+03 -1.210909e+04 -5.836255e+03 7.176082e+02 5.262801e+03 -6.447497e+03 -4.509833e+03 7.363238e+03 1.154828e+04 3.064494e+03 -1.425052e+04 -1.351658e+04 -3.837741e+03 -2.522330e+03 
4.595366e+03 2.440122e+03 2.495965e+03 4.695122e+03 5.408376e+03 -5.654804e+02 -1.188333e+03 -2.734426e+03 -2.888746e+03 -3.189264e+03 -2.198011e+03 -3.909786e+03 -2.501725e+03 -1.043655e+04 -2.334527e+03 -6.399227e+03 -3.298387e+03 -1.821969e+03 -5.841690e+03 3.292272e+02 -3.969802e+03 -4.091915e+03 -7.068577e+02 -2.163317e+03 -7.853521e+03 -6.688322e+03 -1.259470e+04 -4.850309e+03 -3.037432e+03 -5.156537e+03 -5.708167e+03 6.448137e+02 1.278928e+03 1.611010e+03 -5.514207e+02 3.677963e+03 2.884236e+03 -8.943988e+02 -2.185389e+03 1.136538e+03 1.941979e+02 1.206348e+03 6.771752e+03 5.653657e+03 2.587479e+03 7.880262e+03 9.898542e+03 3.935785e+03 4.033270e+03 3.484173e+03 2.837144e+02 -3.860961e+02 -8.402215e+01 1.323350e+03 1.107311e+03 1.675972e+03 1.731485e+02 4.171729e+03 5.491920e+03 2.114638e+03 2.890947e+03 -2.955011e+03 7.598752e+03 4.969537e+03 
5.674965e+03 3.174659e+02 7.038583e+03 3.700478e+03 5.029678e+03 3.265349e+03 -1.064635e+03 -2.921605e+03 -2.130402e+03 3.018953e+02 -4.815861e+03 -3.353683e+03 -6.230380e+02 -8.409069e+03 -3.308736e+03 -5.847131e+03 -5.507366e+03 -1.466639e+03 -3.051526e+03 6.654048e+02 -1.868411e+03 -5.079161e+03 -3.936853e+03 1.716961e+03 -5.502626e+03 -3.997183e+03 -5.938319e+03 -6.294675e+03 -3.999476e+03 -2.605494e+03 -4.688698e+03 2.400057e+03 6.710878e+02 1.330508e+03 3.130122e+02 2.015981e+03 1.351987e+03 2.308233e+03 1.955141e+03 1.975413e+03 3.358978e+03 2.499121e+03 4.408783e+03 5.244861e+03 5.796729e+03 8.328055e+03 3.654993e+03 2.796448e+03 4.925897e+03 4.904118e+03 2.449836e+03 -1.200415e+03 1.076256e+03 1.217352e+03 -3.595608e+02 3.280862e+03 -2.558461e+03 3.304255e+03 4.822576e+03 1.068865e+03 3.445574e+03 -1.563589e+03 -4.948506e+03 2.186365e+03 
2.319307e+03 -1.773773e+03 1.088333e+03 2.954995e+03 2.222634e+03 -1.714249e+03 -3.090339e+03 -4.023172e+03 -3.563187e+03 -2.441507e+03 -1.688637e+03 -2.988621e+03 -1.941652e+03 -4.402844e+03 -1.572420e+03 -4.433159e+03 -6.238088e+03 -4.961844e+03 -7.925770e+03 -3.698921e+03 -3.877924e+03 -5.413065e+03 -6.630396e+03 -5.375657e+03 -8.956192e+03 -7.315744e+03 -4.925799e+03 -6.412044e+03 -7.617351e+03 -3.652427e+03 -7.346286e+03 -8.383526e+02 -4.697432e+02 1.903704e+03 -9.968648e+02 -9.148150e+02 3.536027e+02 2.009146e+03 1.704607e+03 -3.394186e+02 2.303095e+00 -4.376166e+02 9.124756e+02 -1.719207e+02 1.942528e+03 4.183472e+03 3.832592e+03 1.958798e+03 5.655327e+03 2.995538e+03 5.593063e+02 4.903379e+03 5.298502e+03 3.960132e+03 -6.231389e+03 1.417124e+03 2.773243e+03 -2.604872e+03 2.847459e+03 -1.354418e+03 2.730952e+03 -4.826668e+03 5.342666e+03 -2.982471e+03 
2.929848e+03 1.639387e+03 -6.781789e+02 1.291680e+03 1.832249e+02 -9.887398e+02 -3.125769e+03 -4.487789e+03 -2.828841e+03 -4.079082e+03 -3.413312e+03 -4.115966e+03 -1.724111e+03 -4.741100e+03 -2.172551e+03 -4.757417e+03 -1.220118e+03 5.263048e+02 -7.889430e+03 -2.312890e+03 -4.696699e+02 -1.840204e+03 -5.664345e+02 -3.656387e+03 -8.866532e+03 -3.308440e+03 -3.687677e+03 -5.596557e+03 -1.777359e+03 -3.488618e+03 -5.366583e+03 -1.533746e+03 -7.394797e+02 1.054024e+03 -1.576097e+02 -1.288865e+03 1.545716e+03 1.937286e+03 2.727179e+03 -1.757899e+03 -1.069318e+03 -4.590614e+01 3.250832e+03 1.699959e+03 2.477506e+03 2.392619e+03 1.321015e+03 -1.168875e+03 -6.255698e+02 1.470206e+03 -1.161165e+03 8.610184e+02 -1.725057e+03 -6.070661e+03 -1.229349e+02 -6.823482e+03 9.329363e+02 -7.908701e+02 1.662969e+03 -4.400552e+02 -8.283740e+02 6.638735e+02 4.814041e+02 -2.889261e+03 
4.551696e+03 9.901403e+02 4.074694e+03 1.431803e+03 2.543663e+03 7.081134e+02 1.536708e+03 -5.552639e+03 -3.171396e+03 -1.280934e+03 -1.707604e+03 4.864708e+02 -2.661199e+03 -2.843292e+03 -4.109693e+03 -7.694424e+03 -3.010464e+03 -8.060824e+02 -3.672462e+03 -2.084184e+03 -3.395854e+03 -3.149077e+03 -2.413238e+03 -1.909945e+03 -2.083089e+03 -1.747420e+03 -1.424266e+03 -2.138850e+03 -3.448965e+03 -4.637870e+02 -3.075936e+03 2.845397e+03 -1.213280e+03 -5.357714e+01 -1.121956e+03 3.284400e+03 -2.582762e+03 -2.419599e+03 1.217073e+03 4.772209e+02 5.008120e+03 -9.300536e+02 3.566632e+03 4.462004e+03 4.502098e+03 3.612381e+03 5.962806e+03 -4.696951e+02 3.391010e+03 3.868023e+03 1.540371e+03 4.619296e+03 5.469946e+02 1.483866e+03 5.576697e+02 2.770222e+03 -9.900304e+02 1.873705e+03 3.194114e+03 -1.073000e+03 2.783179e+03 1.005942e+03 3.184556e+03 2.540839e+03 
5.019569e+03 1.953808e+03 1.880918e+03 1.388698e+03 5.100998e+02 -3.320044e+01 5.307667e+02 -2.224857e+03 -6.787698e+03 -4.299312e+03 -3.595945e+03 -4.759760e+03 -6.177580e+03 -6.822709e+03 -6.462119e+03 -2.962762e+03 -3.832114e+03 -8.761762e+02 -5.167627e+03 -1.925003e+03 -2.080822e+03 -1.719025e+03 -3.213298e+03 -2.606133e+03 -4.962848e+03 -6.710469e+02 -4.750656e+03 -5.576440e+03 -3.612941e+03 -4.751954e+03 -2.975278e+03 -5.423736e+02 -2.701627e+03 -1.527929e+03 -3.975225e+03 1.898813e+03 -6.205926e+03 -5.162347e+03 8.217402e+02 -2.055467e+03 -2.684656e+03 -3.035073e+02 3.580043e+03 1.703045e+03 3.292398e+03 3.437309e+03 4.824815e+02 2.056479e+03 1.543387e+03 -1.773973e+03 -2.698681e+03 1.404851e+03 2.533146e+02 -2.683774e+02 1.094934e+03 2.330778e+03 2.400086e+03 -3.815805e+03 5.302542e+02 -3.721991e+03 6.929370e+02 -8.184155e+02 4.607835e+03 1.573315e+03 
1.559547e+03 -5.000105e+03 4.346277e+03 1.649171e+03 4.339758e+03 1.044861e+03 -1.697414e+02 -2.093897e+03 -1.548578e+03 -2.715008e+03 -1.348489e+03 -7.721311e+03 -9.990883e+03 -8.634791e+03 -7.837846e+03 -2.673108e+03 -5.229961e+03 -5.475274e+03 -4.024479e+03 -4.118484e+02 -2.847140e+03 -4.212278e+03 -2.820722e+03 -2.333974e+03 -3.262437e+03 -1.285216e+03 -3.234939e+03 -3.609087e+03 -1.077329e+03 -1.308434e+03 -4.455456e+03 3.382741e+03 1.787328e+03 4.404635e+03 -4.951211e+02 1.818182e+03 -9.686526e+02 -7.001116e+01 6.227586e+03 1.287150e+03 1.662909e+03 2.859567e+03 3.276971e+03 1.107050e+03 2.276853e+03 1.308841e+03 -5.996642e+02 -3.087748e+03 2.588887e+03 -1.046811e+03 8.676712e+01 5.752949e+03 -9.892050e+02 4.548742e+03 1.443559e+03 2.650664e+03 5.445611e+03 1.466295e+03 4.383827e+03 1.011481e+03 4.397676e+03 2.464585e+03 2.187531e+03 3.796632e+03 
-7.534857e+03 -2.096822e+03 -1.172679e+03 -1.923505e+02 1.232263e+03 8.677241e+02 7.911330e+02 2.933424e+02 -2.920906e+03 -1.539720e+03 -3.182827e+03 -6.168494e+03 -5.620975e+03 -9.744830e+02 3.036903e+02 -2.425131e+03 -6.577602e+03 -5.156639e+02 -5.284740e+03 -1.851267e+03 -5.724979e+03 -7.535336e+02 -4.718865e+03 -1.536137e+03 -5.922649e+03 -2.593896e+03 -4.631070e+03 -4.740584e+03 -1.184637e+03 -6.509806e+03 -5.242371e+03 6.647833e+02 -5.090762e+03 2.483643e+03 -4.208057e+03 -1.134512e+03 -4.838700e+03 -6.824454e+03 3.988707e+02 -2.873551e+03 2.823198e+02 -2.011710e+03 3.217464e+03 2.433131e+03 -1.178995e+03 1.719022e+02 -3.717358e+03 -4.679971e+03 -2.120730e+03 1.804462e+02 1.569966e+02 4.832525e+03 -8.720580e+01 -1.575677e+03 -5.564513e+02 2.349012e+01 -4.865789e+02 9.789558e+02 1.495738e+03 -1.508662e+02 1.157008e+03 5.307056e+02 2.674858e+03 8.978196e+01 
4.351304e+03 2.149505e+03 3.957892e+03 1.779070e+02 3.556830e+03 -2.245376e+03 -9.106939e+02 -4.609601e+03 -2.457234e+03 3.340055e+02 -2.820297e+03 -4.500464e+03 -4.961875e+03 -5.101465e+03 -3.123673e+03 -5.223841e+03 -3.038906e+03 8.748209e+01 -3.873337e+02 -1.730660e+03 -2.323206e+03 -1.397782e+03 -2.261037e+03 -3.545561e+02 -1.287747e+01 1.561135e+03 -1.852684e+03 2.508872e+03 -2.738135e+03 -4.337643e+03 -1.090041e+03 1.895144e+02 -5.470570e+03 1.748134e+03 -2.951299e+03 5.938943e+03 -5.086582e+03 -6.796782e+03 3.926248e+02 -4.277808e+02 4.157482e+03 2.216099e+03 3.980531e+03 2.972434e+03 4.702362e+03 2.722913e+03 -3.336375e+03 3.950527e+03 1.663992e+03 3.185436e+03 5.499662e+03 7.364993e+03 -2.627980e+03 4.066315e+03 9.057412e+02 -2.526125e+02 -8.698193e+02 2.877521e+02 4.513176e+03 1.537089e+03 2.630729e+03 1.796060e+03 3.749204e+03 -6.387271e+02 
-1.576329e+03 -1.360061e+01 1.711235e+02 -4.439188e+02 -6.134208e+02 -5.159411e+03 2.094588e+01 -5.394029e+03 -1.605079e+03 2.393107e+02 -4.768051e+03 -1.708337e+03 -3.807427e+03 -4.876437e+02 -1.555174e+03 -6.843362e+02 -3.534520e+03 -2.223032e+03 -2.895971e+03 -1.856571e+03 -4.687923e+03 -1.851065e+03 -3.005519e+03 -9.700816e+02 -7.244169e+03 -4.922650e+03 -4.508214e+03 -1.323904e+03 -8.204072e+03 -6.557808e+03 -2.978076e+03 -6.990325e+02 -5.719053e+03 3.095501e+03 -9.674124e+03 -8.437918e+03 -2.482367e+03 -6.585676e+03 1.067614e+03 -5.112652e+03 2.875580e+03 -4.825769e+03 3.035096e+03 -5.045848e+03 -5.790834e+02 -4.973191e+03 1.009113e+03 -1.072014e+04 4.534371e+00 -8.556701e+02 -5.232552e+01 -2.110799e+03 4.936147e+02 2.630917e+03 -1.382118e+03 -5.680880e+02 1.987108e+03 3.011283e+03 1.294720e+03 -2.127358e+02 -2.452771e+03 1.149369e+03 8.401363e+03 -8.221847e+03 
-3.750793e+03 6.097673e+02 3.047169e+03 9.288241e+02 5.810230e+03 -2.334690e+03 -1.933898e+02 -1.753226e+03 -6.063290e+03 -6.067230e+03 -5.846878e+03 -1.096306e+03 -5.741910e+03 -2.438819e+03 -2.193498e+01 3.329185e+02 -2.503454e+03 -1.685725e+03 -3.904325e+03 -3.445780e+03 -1.120324e+03 -5.611117e+01 -3.220079e+03 7.171868e+02 -4.752541e+03 -1.956920e+03 -1.650443e+03 1.007745e+03 -1.542429e+03 -2.364526e+03 -2.370829e+03 -1.857377e+03 -7.051892e+03 7.815480e+03 1.811022e+03 1.801459e+03 -6.152168e+03 -3.914880e+03 -3.504033e+03 3.742006e+01 1.050617e+03 2.435379e+02 4.998116e+03 3.097491e+03 6.370621e+03 4.393709e+03 8.110504e+03 6.167542e+03 -1.960840e+03 4.144774e+02 -5.329844e+03 1.021250e+03 2.929362e+03 1.921085e+03 8.589923e+01 2.006831e+03 -6.414293e+03 -1.360711e+03 6.654657e+03 -9.455908e+01 2.833773e+03 -8.810704e+03 -7.228712e+02 -5.807835e+03 
-3.543651e+03 -1.523881e+03 1.838935e+03 -3.692396e+02 4.472298e+03 4.217710e+03 4.350613e+02 1.958313e+03 8.196160e+02 -3.380463e+03 -5.804981e+03 -6.850081e+01 -3.277547e+03 -4.876920e+03 -2.018055e+03 -2.575106e+03 -4.144314e+03 -1.055529e+03 -5.536241e+03 -1.938867e+03 -5.153126e+03 -3.552729e+03 -2.950556e+03 -3.784341e+02 -3.235479e+03 -2.017194e+03 -5.950893e+03 -3.502772e+03 -7.468822e+03 -6.174147e+03 -1.118572e+04 -3.874202e+03 -1.538208e+04 -1.382701e+03 -7.138301e+03 -9.544788e+03 -7.772770e+03 -1.511799e+04 3.629586e+03 -1.451963e+02 1.677706e+03 8.411626e+02 4.951022e+03 -1.589151e+03 -2.465952e+03 1.521933e+02 -4.186682e+03 -3.559342e+03 2.198343e+03 -3.427402e+02 3.406644e+03 1.042410e+03 -3.776497e+03 8.808172e+02 3.256869e+03 -2.444838e+03 -3.455633e+03 -6.343005e+03 5.251809e+03 -3.632454e+03 4.815954e+03 -6.103494e+03 -8.077967e+03 8.101534e+01 
2.071835e+03 2.086924e+03 2.350073e+03 3.241280e+03 2.105925e+03 -1.295957e+02 3.259994e+02 -4.339397e+01 -2.227845e+03 -1.684788e+02 4.119938e+02 -2.604824e+03 2.049032e+03 -4.080831e+02 -6.610534e+03 -3.370702e+03 -1.690918e+03 -3.715768e+02 -7.457472e+02 1.186604e+03 -3.423011e+03 -1.314872e+03 -1.688140e+03 -6.410297e+02 -1.320001e+03 1.298802e+02 -6.714031e+03 -3.929578e+03 -5.277994e+03 1.962337e+03 -8.314801e+03 -3.152421e+03 -1.267724e+04 -1.862907e+03 -9.021318e+03 -1.071700e+04 -3.379061e+03 -1.046653e+04 3.791658e+02 5.543847e+03 7.358578e+03 2.348948e+03 5.411272e+03 -2.397749e+03 1.552776e+03 3.906891e+03 7.163496e+03 -1.968799e+02 6.751129e+03 -2.723901e+03 -4.868764e+03 -1.392812e+03 -6.163170e+03 -1.966057e+03 6.314416e+02 -3.320956e+03 1.967692e+03 3.898167e+03 -1.634075e+02 2.628296e+03 3.432148e+03 2.094651e+03 6.147376e+03 -1.619941e+03 
-7.172471e+02 -5.066376e+02 2.904514e+03 1.856498e+03 1.811027e+03 -8.728966e+02 3.264400e+02 -1.016130e+03 -1.200804e+03 -3.334167e+03 -2.928241e+03 -4.480825e+03 -2.547781e+03 -2.621910e+03 -1.605713e+03 -3.216118e+03 -4.190497e+03 -2.673392e+03 -2.630874e+03 -2.355284e+03 -1.848579e+03 -2.457154e+02 -3.639405e+03 -6.670702e+02 -3.420081e+03 -5.478297e+02 -4.209643e+03 -5.743847e+03 -9.448900e+02 1.549260e+03 4.189661e+02 -2.702586e+03 -5.787856e+03 -2.803173e+02 -6.350992e+03 -8.181457e+03 -1.601560e+03 -4.396938e+02 -8.209242e+02 6.090731e+03 2.729057e+03 2.718835e+03 -2.662653e+03 1.553803e+03 1.958044e+03 -1.603164e+02 6.438398e+03 -9.895777e+03 2.153447e+03 1.694761e+03 -5.200768e+03 4.967521e+02 2.453501e+03 5.928832e+03 1.673443e+01 -3.506854e+03 -7.011283e+03 -2.648893e+03 2.580121e+03 -9.369267e+02 -5.867962e+02 -4.842111e+03 -6.460263e+03 -3.684659e+03 
3.823812e+02 -2.646816e+03 3.168081e+03 1.978423e+03 4.641295e+03 -7.033134e+02 3.743428e+02 -3.741635e+02 -2.030591e+03 4.251580e+02 -3.085537e+03 -1.367967e+03 -1.077412e+02 -9.184950e+02 -3.587207e+03 2.044436e+03 -1.919965e+03 -1.357537e+03 9.845666e+02 -3.359874e+02 -2.719113e+03 -2.072075e+03 -2.187161e+03 1.242073e+03 -2.282024e+03 -1.166960e+03 1.434373e+02 3.420102e+03 -2.110399e+02 -1.739739e+02 -3.758174e+03 -3.584582e+03 -2.619252e+03 -4.972763e+03 -6.103039e+03 -8.655946e+03 -2.663878e+03 -1.770842e+03 1.628138e+03 3.687586e+03 -6.106644e+02 1.380522e+03 2.358541e+03 -5.613836e+03 -9.556838e+03 -6.927450e+02 1.590409e+02 3.588094e+03 -6.349733e+03 8.780665e+03 3.227799e+02 -6.689177e+03 4.220619e+03 -1.517708e+03 -7.607395e+03 6.825762e+03 1.124694e+03 -2.447077e+02 2.368988e+03 6.895003e+02 6.771116e+03 -5.287881e+03 4.209341e+03 4.755520e+03 
4.152359e+03 -4.016307e+03 1.743057e+03 -2.236798e+03 1.910430e+03 9.646299e+02 6.016519e+02 -4.665979e+02 -1.197208e+03 2.238331e+01 -2.894131e+03 -4.203958e+03 -4.039233e+02 -1.818926e+03 -2.354279e+02 -1.114275e+03 -6.104369e+03 -3.127887e+03 -3.616056e+03 -2.826095e+03 -1.428033e+03 -3.290988e+03 -2.232458e+03 -9.993194e+02 -1.330687e+03 -7.887983e+02 -2.998557e+03 -5.588212e+03 -4.785347e+03 -7.263651e+03 -3.546539e+03 1.360828e+03 -3.699000e+03 -9.534506e+02 1.667588e+03 -3.842180e+02 1.236868e+03 2.561254e+02 2.285111e+02 1.606679e+03 2.204578e+03 8.662875e+03 6.654693e+03 2.131907e+03 -2.306010e+03 4.481719e+03 4.817333e+03 -4.286252e+02 3.747302e+03 5.777211e+03 -1.258814e+04 -2.868791e+03 -8.699273e+02 -1.285966e+04 -4.803555e+03 -5.808048e+01 -3.557287e+03 6.297128e+02 4.328877e+02 -3.770953e+03 2.159345e+03 3.130678e+03 1.759848e+02 -2.731372e+03 
2.298138e+03 -4.111451e+03 4.926885e+03 4.677703e+03 4.708856e+03 1.704974e+03 -1.812207e+02 -2.636674e+02 -6.917909e+01 -7.331786e+02 -3.428226e+02 -1.651323e+03 1.337353e+03 -8.493360e+02 -1.137270e+03 -2.031038e+03 -2.428593e+03 -2.370210e+03 -3.961211e+03 -3.314794e+03 -2.481173e+03 -3.604220e+02 -2.088557e+03 6.205796e+02 -2.802688e+03 1.488179e+03 -1.522904e+03 -1.119326e+02 -4.258539e+03 -2.418529e+03 -4.207291e+03 1.955669e+03 -1.665729e+03 1.874266e+03 -1.437733e+03 -2.939999e+03 -9.700042e+02 -1.704840e+03 -1.753561e+02 1.830315e+02 -2.606448e+03 -3.526245e+03 -1.175233e+04 -1.807756e+03 -6.310888e+03 -7.561811e+02 1.445018e+03 5.464821e+02 3.204014e+03 -5.148150e+03 -9.665689e+02 3.538595e+03 1.787968e+03 4.558252e+03 4.986872e+03 5.021559e+03 -2.657077e+03 -7.117721e+02 -3.080146e+03 -7.119873e+03 4.672732e+03 -8.552436e+02 1.393603e+03 -4.193644e+03 
4.326088e+02 -2.223629e+03 -1.078028e+03 -3.356071e+02 5.611430e+03 -3.149940e+02 1.400518e+03 -8.438373e+01 -1.617699e+03 -2.297046e+03 -1.481170e+03 -4.615947e+03 -1.095376e+03 -2.445062e+03 -1.455402e+03 -3.841786e+02 -4.956185e+03 -2.818847e+03 -9.656779e+03 -4.789556e+03 -4.050180e+03 3.489626e+02 -5.285089e+03 -2.088585e+03 -9.137203e+02 -4.945752e+03 -4.015362e+03 -2.114226e+03 -6.089248e+03 -1.908394e+03 -4.052283e+03 -1.772652e+03 -2.957814e+03 -7.828663e+02 -2.680362e+03 -2.819107e+02 7.736988e+02 9.680797e+02 1.402825e+03 1.265168e+03 2.177215e+03 -8.695020e+03 -2.456281e+03 1.321427e+03 2.017848e+03 -1.847206e+03 3.738529e+02 3.727831e+02 -4.086224e+03 1.154076e+03 -1.788042e+03 -8.611005e+03 3.332455e+03 -4.158045e+03 -4.788731e+03 2.935767e+03 -4.300563e+03 -3.255648e+03 -1.234366e+03 -4.928488e+03 -2.019715e+03 -3.774547e+03 7.320118e+03 -5.537767e+03 
-3.358389e+03 6.948632e+02 6.524445e+03 -1.276772e+02 5.469907e+03 6.962782e+02 1.365248e+03 4.124509e+02 -9.216581e+02 -1.671130e+03 -1.265747e+03 -2.389362e+03 -2.601039e+03 -1.872730e+02 -1.535148e+03 -1.286350e+03 -3.686672e+03 -4.051542e+03 -5.479154e+03 -1.034486e+04 -5.953673e+03 1.876610e+03 -4.628018e+03 -2.458452e+03 7.159038e+02 -3.670175e+03 -1.631103e+03 -1.083271e+03 -2.961094e+03 1.740285e+03 -1.581035e+03 -1.849063e+03 -1.964015e+03 -7.367431e+02 -2.508721e+03 1.696306e+03 -1.218827e+03 -1.465905e+03 9.683980e+01 2.405838e+03 1.263409e+03 6.260608e+03 1.338536e+03 3.441020e+02 2.558310e+03 -2.711205e+03 -6.534610e+02 2.191954e+03 2.803938e+03 1.564134e+03 7.376077e+02 -1.679400e+03 3.256016e+03 -7.318490e+03 1.227519e+03 2.089437e+03 1.202193e+03 5.565370e+03 4.042550e+03 7.277589e+03 4.167865e+03 9.211639e+02 3.306990e+03 -3.776769e+03 
-4.470003e+03 -2.608011e+03 3.122888e+03 3.587911e+02 3.943430e+03 4.602272e+02 6.184372e+02 -1.598896e+02 -1.150469e+02 -4.778891e+02 2.617308e+01 -1.970482e+03 -1.150182e+03 -2.147508e+03 -5.080040e+02 -6.733637e+02 -2.789622e+03 -1.366851e+03 -3.728093e+03 -1.499150e+03 1.598146e+03 2.971865e+03 -8.119082e+02 4.197398e+02 -2.422555e+03 5.425305e+02 -4.068830e+01 -1.162169e+03 -4.405498e+03 -6.984162e+02 -2.457123e+03 -1.134695e+03 -1.371683e+03 -9.590687e+02 1.804994e+01 1.470226e+02 -1.613908e+03 -1.564069e+02 1.212048e+02 1.070396e+03 -1.253592e+03 2.181001e+01 -7.665913e+03 6.870960e+02 -3.146891e+03 -2.986855e+02 -5.946600e+03 -1.251043e+03 -7.541249e+02 -5.845527e+00 2.446549e+03 -7.811033e+02 4.469005e+02 3.046684e+03 4.672233e+03 8.214664e+02 1.196890e+03 -2.713430e+02 -1.662682e+03 -2.064749e+03 -4.364775e+03 -3.148101e+02 -3.748965e+03 -2.190130e+03 
-3.166759e+03 -7.288156e+03 1.194251e+03 -6.617051e+02 4.106481e+03 -3.608500e+02 4.533089e+02 -1.830926e+02 -1.101407e+03 -2.826091e+03 -3.653775e+02 -3.472746e+03 -9.122183e+02 -4.131882e+02 -1.055821e+03 -5.816975e+02 -2.047919e+03 -1.064454e+03 -4.487673e+03 -1.052620e+04 -5.147252e+03 1.007487e+03 -2.628545e+03 6.257830e+02 5.879902e+02 -4.550865e+02 -1.247415e+03 1.387916e+03 -1.122597e+03 -2.961421e+02 1.600506e+02 -4.435556e+02 -1.327510e+03 -6.162983e+02 -9.364794e+02 6.930523e+02 1.703048e+03 -1.285115e+03 -2.237678e+03 4.397115e+03 4.805779e+02 4.418184e+03 1.645187e+03 5.913313e+03 2.719856e+03 3.286183e+03 -3.742865e+03 -2.675634e+03 -6.489810e+01 7.036085e+02 6.330712e+02 1.877579e+03 3.131034e+03 -6.479306e+03 -5.145566e+02 3.261429e+03 1.811935e+03 4.630881e+03 1.550884e+03 4.108336e+03 -8.376408e+02 6.695616e+03 -6.535659e+03 -5.771308e+03 
-1.251882e+03 -2.732343e+03 1.035260e+03 -4.266141e+03 3.748795e+03 3.063844e+02 -1.994082e+02 -4.197512e+02 -2.063502e+03 -3.975376e+02 -1.684062e+03 -1.262236e+03 -9.113760e+02 -6.080906e+02 -7.001845e+01 -9.784619e+02 1.088993e+03 1.153550e+03 1.501225e+03 -3.261005e+03 -7.236476e+03 5.761337e+02 3.951355e+02 1.619547e+03 -2.374228e+03 -9.074567e+02 -2.515751e+03 -2.425423e+03 -2.835804e+03 -1.832844e+03 -1.137005e+03 -1.819194e+03 -1.827494e+03 -1.879343e+03 2.961183e+02 -1.037851e+03 7.734422e+02 -3.315552e+03 -5.664934e+03 2.353574e+02 -1.785074e+03 1.174063e+03 -2.073581e+03 1.532455e+03 -1.053391e+02 2.343879e+03 2.809991e+02 -1.135297e+03 1.460405e+03 4.001472e+02 4.454986e+02 9.272869e+02 3.131517e+03 3.263169e+03 9.230695e+02 1.708156e+03 2.478520e+03 1.571128e+03 -2.738829e+03 2.879926e+03 1.729759e+03 2.909301e+03 -4.832740e+03 -3.867045e+03 
3.476352e+03 8.021167e+02 -1.060947e+03 -1.987998e+03 1.527991e+03 -2.551820e+03 -8.422730e+02 -2.854754e+03 -1.506014e+03 -1.546546e+03 -9.128467e+02 -1.932123e+03 6.349029e+02 -3.051682e+03 -1.309818e+03 1.091251e+02 1.052890e+03 1.715307e+03 -2.686678e+03 -4.093330e+03 -2.658945e+03 -6.842733e+02 -3.048665e+03 -8.354404e+02 -7.733953e+02 2.129598e+02 -1.137396e+03 -1.152066e+03 1.486030e+02 -4.709518e+02 1.180225e+03 1.375321e+03 -1.348661e+02 8.086800e+01 9.623982e+02 7.771637e+02 8.910780e+02 2.283150e+03 7.029511e+02 -1.200027e+03 2.715238e+03 1.493167e+03 1.858901e+03 3.668847e+03 2.907696e+03 2.594088e+03 1.951094e+03 2.076030e+03 2.628021e+03 1.330039e+03 1.885423e+03 2.808625e+03 3.966551e+03 -2.417169e+03 2.363243e+03 -8.534649e+02 -5.398428e+03 3.953584e+01 6.450601e+01 1.504032e+03 2.638964e+03 -5.714813e+02 1.962417e+03 7.678761e+03 
1.567151e+03 -2.748085e+03 4.820480e+02 5.435738e+02 9.567850e+02 1.557901e+02 8.670922e+02 -3.581771e+02 1.246572e+03 -2.086963e+03 -7.986343e+02 -8.692432e+02 -1.068248e+03 -2.262951e+03 -2.650332e+03 -1.135486e+03 -1.541355e+03 -1.335552e+03 -1.266626e+03 -2.375159e+03 -3.912237e+02 -5.911154e+02 -2.775275e+03 -2.210589e+03 -1.793777e+03 3.427147e+02 -7.683698e+02 8.567209e+02 -1.106283e+03 -1.909417e+03 -1.108107e+03 -1.718461e+02 -4.320486e+02 -1.237665e+03 3.185818e+02 -8.324365e+02 -1.161238e+03 -1.716947e+01 -1.320842e+03 -1.557915e+03 -3.608095e+02 1.376187e+02 -3.563082e+03 8.487531e+02 -1.664282e+03 1.066993e+03 -5.982981e+02 -2.588421e+03 5.498140e+02 -2.711080e+03 1.156474e+03 -3.525721e+03 3.521225e+03 -3.365138e+03 -2.768031e+03 -5.099463e+03 -5.567212e+03 -2.308729e+03 7.960022e+02 -3.776769e+03 -3.938309e+03 -2.030235e+03 -7.755126e+02 -3.105072e+02 
2.511034e+03 -5.011809e+03 -2.973982e+03 4.836395e+02 -3.109377e+03 -2.087428e+03 1.170422e+03 -3.989700e+03 -4.745000e+02 1.084496e+03 -3.252648e+02 -1.209686e+03 -4.823237e+02 3.769304e+02 -5.001852e+02 -2.021082e+03 -1.033753e+03 -8.531577e+02 -1.196766e+03 -4.754988e+02 -2.955608e+03 -1.765677e+03 -2.101362e+03 -1.081246e+03 -1.663473e+03 1.673487e+03 -4.989053e+02 1.626290e+03 -1.824993e+02 2.192515e+01 -5.943947e+02 1.950960e+03 -3.487254e+02 -1.068505e+03 7.151701e+02 6.932187e+02 5.998083e+02 2.337764e+03 2.883988e+03 2.020793e+03 6.536272e+02 -9.274306e+02 -7.517340e+02 8.979580e+02 -7.906641e+02 1.775190e+03 3.444043e+03 4.646762e+03 2.731899e+03 2.193370e+03 1.346529e+03 3.443896e+03 4.287628e+03 -7.116497e+03 5.558334e+03 8.241355e+02 -2.848654e+03 2.118211e+03 5.461302e+02 3.380274e+03 1.010906e+03 4.064983e+03 -7.365241e+01 -1.648983e+03 
-9.471946e+02 -5.500177e+03 -3.696812e+03 -1.926622e+01 -1.928143e+03 -2.465976e+03 -1.113266e+03 -2.021108e+03 -2.348779e+03 -3.166697e+02 -2.395960e+03 -2.596954e+03 -8.887251e+01 -9.455699e+02 2.240564e+02 -2.735138e+03 -2.299750e+03 -2.895421e+03 -1.799432e+03 -2.061018e+03 -3.211459e+03 -3.024962e+03 -1.877523e+03 -2.310757e+03 -1.088295e+03 1.920694e+02 -7.609308e+02 2.118940e+02 -1.035838e+03 3.576225e+02 -2.580854e+02 4.518017e+02 -1.004686e+03 -7.188962e+02 -9.504868e+02 -1.102386e+03 1.073624e+03 -3.044806e+02 1.124494e+03 1.702934e+03 -1.470196e+02 3.806749e+03 1.194080e+03 2.566228e+03 -2.753851e+03 4.564511e+03 -7.938723e+03 -5.479983e+03 1.912588e+03 2.789618e+00 8.405442e+02 -2.370451e+03 -5.106689e+03 -1.039922e+03 2.519224e+03 3.483127e+02 2.121323e+03 3.312628e+02 -2.642047e+03 1.490702e+03 -5.400379e+03 1.191169e+02 -6.677101e+02 -4.843466e+03 
4.128427e+03 9.761589e+02 1.332213e+03 1.063495e+03 4.155005e+03 1.063384e+03 3.709758e+03 -8.073691e+02 -1.307347e+03 8.542268e+02 -5.462124e+02 3.980914e+02 6.097470e+02 1.048548e+02 -3.630268e+02 -9.227486e+02 -2.338938e+03 1.120008e+02 7.710048e+02 -3.451414e+00 -9.007865e+02 5.298200e+02 2.552245e+02 -1.121084e+03 -1.460118e+03 1.556494e+03 3.349177e+02 -5.278726e+02 -1.317488e+03 6.838704e+02 -9.571042e+01 1.055406e+03 9.561697e+01 6.592497e+02 -1.286089e+02 -5.411202e+02 -8.368441e+02 1.223671e+03 5.193418e+01 1.334978e+03 1.099354e+02 1.391342e+03 -5.527901e+02 3.286041e+03 -1.358413e+03 2.614756e+03 -5.877723e+03 -7.872427e+03 1.817602e+03 -7.154456e+02 2.901238e+03 -1.239506e+03 -3.967478e+03 -4.052892e+03 1.851829e+03 2.514878e+03 -1.191312e+03 2.660285e+03 1.364563e+03 3.505997e+03 -4.295403e+03 -6.340326e+03 5.334073e+03 1.865334e+03 
7.194901e+02 -1.530845e+03 1.660767e+01 -1.526882e+03 1.663173e+03 -3.935250e+03 9.993017e+02 -5.595858e+03 -1.174407e+03 -8.745171e+02 -2.289426e+03 -3.444450e+03 7.832563e+02 -8.303073e+02 2.110685e+02 -3.535672e+03 -4.909535e+03 -3.606237e+03 -9.999214e+02 -1.480624e+03 -3.314551e+03 -1.257691e+03 -2.100363e+03 -1.925213e+03 -2.215282e+03 -2.077368e+03 -1.229788e+03 -1.410720e+03 -1.482670e+03 -3.079120e+02 -1.198729e+03 -1.541337e+03 -9.966704e+02 -1.094011e+03 -6.110817e+02 -8.292780e+02 6.825247e+02 5.626997e+02 -7.226816e+02 1.798320e+03 5.349747e+02 1.555879e+03 4.737543e+02 4.318901e+03 1.315677e+03 4.587180e+03 5.175663e+03 4.223363e+03 1.782628e+03 3.087671e+03 -9.077115e+02 -6.182913e+03 4.454747e+03 2.927888e+02 2.835379e+03 1.410862e+03 1.956110e+03 -3.542913e+02 1.827942e+03 -1.105186e+03 3.746306e+03 -3.450285e+03 -4.170581e+03 -6.972493e+01 
2.411301e+03 3.040551e+03 2.818268e+03 -1.411852e+02 2.522742e+03 7.226205e+01 1.205230e+01 1.146058e+02 2.863077e+03 6.421575e+02 -9.813439e+02 -1.624297e+03 -8.432315e+02 -4.204180e+02 -1.101774e+03 -4.308777e+03 -4.340271e+03 -4.242796e+03 6.192294e+01 -4.296600e+02 -1.450293e+03 -6.930449e+02 -1.330694e+02 -1.763324e+03 -1.193595e+03 -6.509022e+02 -2.236105e+03 7.437162e+01 2.195044e+02 -5.074390e+02 -3.751625e+02 1.960769e+02 -8.002038e+02 -9.140100e+02 1.261399e+03 6.404248e+02 6.971808e+02 3.503093e+03 1.690674e+03 4.157644e+02 -1.176670e+03 7.197293e+02 3.921631e+02 1.595264e+03 -1.159063e+03 1.513267e+03 -1.661302e+02 -3.710088e+03 9.857137e+02 -5.070609e+03 4.683986e+01 -3.042011e+03 3.597988e+03 -1.415100e+03 3.333380e+03 -1.896412e+03 3.225809e+03 2.433031e+03 -4.327413e+03 -2.210724e+03 -4.219376e+02 -3.475687e+03 3.765422e+03 2.582668e+03 
1.748807e+03 -2.266960e+03 2.391394e+03 -2.094207e+02 1.965316e+03 -3.977291e+03 1.146602e+03 -4.438954e+03 -7.409934e+01 -7.995680e+02 -6.255864e+02 -1.431391e+03 4.212175e+02 -6.012987e+02 8.905682e+02 1.825771e+02 -2.023941e+03 3.284089e+03 -5.359296e+03 -5.752381e+03 -3.058998e+03 -1.038974e+03 1.052322e+03 -8.716929e+01 -1.207051e+03 -5.364959e+02 -8.615407e+02 -5.582843e+01 9.749052e+02 1.358487e+02 1.133676e+03 2.614939e+03 4.344138e+02 1.089518e+03 1.807827e+03 4.522121e+02 7.423454e+02 1.787544e+03 1.425344e+03 2.378294e+03 -1.095334e+02 6.382596e+02 9.222232e+02 3.633050e+03 1.372907e+03 3.636153e+03 6.644537e+02 2.976239e+03 4.493836e+03 4.404039e+03 -3.811477e+03 -5.824173e+01 4.900106e+03 1.281165e+03 3.224266e+03 2.704323e+03 3.824185e+03 4.814914e+02 -5.282137e+03 2.819777e+03 -3.402230e+02 3.579037e+00 3.493362e+03 -2.083340e+03 
1.506770e+02 1.572311e+03 1.871119e+03 2.366954e+01 3.977204e+03 9.929398e+02 1.839086e+03 1.249925e+02 -1.496677e+03 1.139053e+03 -7.829580e+02 -1.411831e+03 1.027416e+03 -4.658716e+02 8.739570e+02 -4.150622e+03 -1.965605e+03 2.695050e+03 -6.159851e+03 -4.771163e+03 -2.019277e+03 -8.823015e+02 -1.145556e+03 -1.228032e+03 -2.270712e+03 2.049172e+02 -1.577234e+03 7.128127e+02 -8.518118e+00 -8.876119e+02 1.465840e+02 4.700664e+02 2.305749e+02 -3.404231e+02 7.630011e+02 -1.599818e+03 -3.830857e+02 1.020034e+03 -9.016216e+02 1.015386e+03 -4.959252e+01 6.886758e+02 -2.392631e+03 1.643859e+03 -2.642918e+03 1.113326e+03 -2.399390e+02 2.396521e+03 4.422884e+02 1.874646e+03 -3.593447e+03 -5.912558e+03 3.027613e+03 -3.188333e+03 1.502706e+03 -1.963053e+03 -3.849827e+03 -4.324867e+03 -2.606060e+03 7.076031e+02 5.491917e+01 2.321882e+03 -1.723566e+02 1.294103e+03 
2.843057e+03 4.605939e+02 7.503009e+02 -2.224248e+03 1.318999e+03 -1.930733e+03 5.986205e+02 -2.086955e+03 -1.533670e+02 -9.851528e+02 -1.032751e+03 -1.554240e+02 -1.490202e+02 -8.916526e+02 -1.645640e+03 -1.283254e+03 -2.023172e+03 -1.522971e+03 -1.484841e+03 -3.247835e+02 -1.735943e+03 -1.191406e+02 -2.651116e+02 -1.259639e+03 -3.562799e+02 1.017020e+03 -4.949128e+02 9.929206e+02 -8.822924e+01 9.819309e+02 -2.460478e+02 1.760268e+03 2.780850e+02 1.633844e+03 2.280433e+02 1.106901e+03 6.607171e+02 2.089360e+03 1.355949e+03 3.689505e+03 1.081168e+03 2.026301e+03 7.698576e+02 2.112127e+03 -5.234158e+02 2.493385e+03 4.163281e+02 2.174582e+03 -1.871057e+03 4.658486e+02 -1.259101e+03 -1.317078e+03 2.158461e+03 -6.128995e+02 2.165327e+03 -8.127941e+02 5.154273e+02 3.608588e+03 -1.728983e+03 2.330286e+03 -3.719663e+02 1.894380e+03 2.254128e+03 2.562977e+03 