# vtk DataFile Version 2.0
Comment goes here
ASCII

DATASET STRUCTURED_POINTS
FIELD FieldData 1
TIME 1 1 double
0.06000000
DIMENSIONS    64   64   1

ORIGIN    0.000   0.000   0.000
SPACING   0.03125 0.03125   1.000

POINT_DATA   4096
VECTORS u double

2.142224 -44.539562 0.000000 -4.460653 14.585990 0.000000 -3.039207 -19.125883 0.000000 0.310104 -10.108754 0.000000 0.243142 -1.415152 0.000000 3.030216 5.518671 0.000000 0.767618 -0.882523 0.000000 5.241338 2.755902 0.000000 1.702833 -3.445667 0.000000 0.988935 1.966713 0.000000 -0.111247 3.256123 0.000000 -0.268181 -1.088869 0.000000 7.551234 1.128762 0.000000 0.047662 -0.803711 0.000000 9.954197 2.842734 0.000000 0.623213 -2.538181 0.000000 9.999289 4.306845 0.000000 0.396966 -0.119272 0.000000 8.342686 0.203511 0.000000 3.437746 0.981283 0.000000 6.380844 1.664501 0.000000 3.519641 0.174776 0.000000 3.431031 -1.129041 0.000000 2.096544 -4.132489 0.000000 -1.324346 -0.176204 0.000000 2.363636 -4.665316 0.000000 -1.087417 -0.750913 0.000000 0.123213 -0.617799 0.000000 -0.329828 -3.378008 0.000000 -1.313793 5.224745 0.000000 -3.299370 -0.212748 0.000000 -2.293705 1.158748 0.000000 -3.253349 -3.384861 0.000000 -2.310711 1.233313 0.000000 -2.971778 2.938113 0.000000 -1.879126 -2.291132 0.000000 -3.201505 -4.543582 0.000000 -4.536864 -5.689368 0.000000 -1.395253 -2.763724 0.000000 -0.971586 -8.861835 0.000000 -3.526308 -1.133399 0.000000 -0.092830 -14.498669 0.000000 -6.440292 1.619183 0.000000 -2.022088 -4.256042 0.000000 -8.531278 0.854266 0.000000 0.306063 0.718725 0.000000 -9.246541 -5.051018 0.000000 6.474657 -5.147934 0.000000 -5.751964 -1.073530 0.000000 8.130422 -9.804584 0.000000 -1.486689 -2.166678 0.000000 2.018402 -4.073737 0.000000 -1.238560 0.921744 0.000000 -1.994213 -10.971465 0.000000 -3.024223 0.271521 0.000000 -0.871599 -3.376098 0.000000 -5.006707 6.455768 0.000000 -0.670149 -4.961955 0.000000 2.374222 6.770762 0.000000 6.473265 -4.153426 0.000000 -2.432200 4.751171 0.000000 -7.064116 0.087241 0.000000 -3.381226 10.526516 0.000000 -7.284180 -8.778143 0.000000 
-0.993721 -36.762886 0.000000 14.399496 14.487312 0.000000 20.808950 -6.968830 0.000000 -8.329695 15.464014 0.000000 -6.749702 -5.545175 0.000000 -5.560413 4.584311 0.000000 -5.321174 -3.454192 0.000000 -5.020244 0.844049 0.000000 -4.093061 -1.726311 0.000000 -8.858064 2.400972 0.000000 -0.133671 0.995630 0.000000 -7.564980 -6.372781 0.000000 2.195662 2.719392 0.000000 -12.141092 -5.093878 0.000000 8.674938 2.635544 0.000000 -13.234264 -1.704944 0.000000 4.095945 3.112348 0.000000 -10.312661 1.413551 0.000000 1.459445 -2.592900 0.000000 -8.401934 0.219336 0.000000 4.855070 -0.045953 0.000000 -7.053087 2.021515 0.000000 3.895646 -3.286127 0.000000 -3.693189 0.804568 0.000000 -2.325297 -1.345199 0.000000 -3.120225 -2.984205 0.000000 -5.841766 0.951838 0.000000 -3.366143 0.820493 0.000000 -6.834317 0.262919 0.000000 -7.385603 6.688133 0.000000 -4.328553 1.905955 0.000000 -6.830363 2.127829 0.000000 -1.899773 -0.410631 0.000000 -8.881094 3.699205 0.000000 -0.766138 2.153413 0.000000 -1.060924 4.578035 0.000000 -3.181512 -0.448175 0.000000 0.885032 1.044468 0.000000 -5.204247 0.828700 0.000000 0.176759 1.264100 0.000000 -9.490072 3.284606 0.000000 4.659573 -2.745452 0.000000 -17.438433 10.079836 0.000000 4.351335 5.373891 0.000000 -17.347759 8.626963 0.000000 5.322514 9.230652 0.000000 -12.688436 1.146036 0.000000 4.806482 3.756733 0.000000 -9.005704 5.520461 0.000000 9.470239 -0.147329 0.000000 -8.394387 11.299223 0.000000 3.156997 -0.372366 0.000000 0.275474 7.250894 0.000000 2.706295 0.101680 0.000000 -3.260251 4.211445 0.000000 -1.944570 -1.068274 0.000000 3.475373 7.811360 0.000000 8.626617 -5.827036 0.000000 8.393472 -1.880997 0.000000 13.512572 0.374055 0.000000 12.258028 7.030834 0.000000 23.845032 -4.704588 0.000000 23.830743 -5.122184 0.000000 20.926508 5.655697 0.000000 
-82.038766 -38.012551 0.000000 -62.038284 -7.216681 0.000000 -48.250828 3.603308 0.000000 24.986379 17.449897 0.000000 13.068660 -4.184434 0.000000 15.834162 4.090143 0.000000 14.557772 -1.422691 0.000000 6.573814 1.527789 0.000000 8.921009 0.392153 0.000000 2.592752 -1.992677 0.000000 9.904322 1.963039 0.000000 1.096179 -3.418201 0.000000 3.631795 5.704874 0.000000 -0.633026 -7.282987 0.000000 0.848323 3.935906 0.000000 -1.715020 2.040812 0.000000 -3.156360 1.385242 0.000000 -0.577400 2.517228 0.000000 -4.539143 -1.707215 0.000000 -3.537378 -2.414343 0.000000 -5.042868 0.315654 0.000000 -4.273268 1.134200 0.000000 -4.755295 -4.488939 0.000000 -5.276726 2.088455 0.000000 -4.373239 -0.749169 0.000000 -4.168016 -1.148848 0.000000 -3.603904 -0.504995 0.000000 1.918827 0.374752 0.000000 1.032545 0.641452 0.000000 6.020538 2.718981 0.000000 9.263112 -0.767988 0.000000 10.420966 -1.270032 0.000000 11.963683 -1.334130 0.000000 9.809575 0.099677 0.000000 12.575394 -4.882057 0.000000 11.892111 0.124242 0.000000 12.572286 -6.489539 0.000000 11.045140 -3.666633 0.000000 10.094971 -2.055450 0.000000 8.346895 -4.576010 0.000000 8.052274 -5.616213 0.000000 8.239216 -6.550308 0.000000 1.702338 1.927421 0.000000 9.847978 -4.346716 0.000000 1.413195 -0.116912 0.000000 9.197233 -3.940598 0.000000 3.232936 -4.534986 0.000000 1.161095 -8.830666 0.000000 1.257195 -5.737288 0.000000 -3.130018 -10.415901 0.000000 -3.140922 4.146565 0.000000 -6.452419 -12.743599 0.000000 -6.209253 1.372446 0.000000 -10.884011 -7.435739 0.000000 -10.355487 4.922386 0.000000 -18.843610 -10.111722 0.000000 -17.909657 -4.115419 0.000000 -21.079266 -9.880054 0.000000 -30.347363 1.884807 0.000000 -33.018318 -8.017982 0.000000 -42.163643 -5.581289 0.000000 -40.898621 -11.485474 0.000000 -67.121957 13.445040 0.000000 -55.074362 16.046321 0.000000 
-126.809134 -29.798964 0.000000 -132.952080 -19.300627 0.000000 -101.259588 -93.993493 0.000000 59.374652 -45.855474 0.000000 31.001436 3.607042 0.000000 30.288183 3.095200 0.000000 31.567813 5.806156 0.000000 16.785488 6.480811 0.000000 23.021165 2.254751 0.000000 12.270152 1.417659 0.000000 17.415868 2.492203 0.000000 10.585260 -0.100254 0.000000 12.757843 4.448596 0.000000 11.391564 -2.310406 0.000000 5.024232 3.717538 0.000000 10.402935 2.299738 0.000000 3.631811 1.974729 0.000000 7.510812 2.796335 0.000000 1.445034 0.367078 0.000000 2.175440 0.723060 0.000000 -5.047412 0.689937 0.000000 -1.079690 1.733942 0.000000 -7.831725 -2.282669 0.000000 -6.778777 0.422513 0.000000 -7.129810 -2.453908 0.000000 -5.855446 -3.753540 0.000000 -3.694532 -5.135005 0.000000 2.423613 -3.815956 0.000000 2.329327 -3.838792 0.000000 10.041453 -1.542434 0.000000 9.647234 -2.494473 0.000000 13.697543 -0.572743 0.000000 10.775901 0.200761 0.000000 15.010565 3.087494 0.000000 10.300617 0.070877 0.000000 10.277198 4.581143 0.000000 8.877179 0.398795 0.000000 5.616378 3.521783 0.000000 6.288378 3.526945 0.000000 5.355892 3.306796 0.000000 4.818873 3.392285 0.000000 2.340551 3.604485 0.000000 3.467942 8.471074 0.000000 5.759000 5.663034 0.000000 5.246444 9.277708 0.000000 7.949513 7.410912 0.000000 8.424867 9.182174 0.000000 7.245831 5.732474 0.000000 8.731918 9.811575 0.000000 4.507125 4.250788 0.000000 6.701241 14.621624 0.000000 4.586491 2.695966 0.000000 -1.997167 11.682487 0.000000 -5.597831 4.247913 0.000000 -13.725847 12.171044 0.000000 -19.223609 6.485897 0.000000 -32.418640 10.047016 0.000000 -38.424426 6.610670 0.000000 -53.398353 10.058054 0.000000 -57.881252 12.190335 0.000000 -78.965590 14.911138 0.000000 -87.282458 20.253725 0.000000 -115.943830 9.053557 0.000000 -98.004150 20.572507 0.000000 
-106.018597 -3.064621 0.000000 -119.391584 -32.766227 0.000000 -91.194662 -188.723424 0.000000 45.364175 -114.811128 0.000000 26.356752 24.902035 0.000000 20.373177 3.523766 0.000000 27.489160 12.080003 0.000000 14.797930 10.074438 0.000000 20.305817 4.907490 0.000000 12.011632 3.612620 0.000000 14.971522 3.647931 0.000000 11.038134 1.239823 0.000000 10.663024 4.898570 0.000000 10.981849 0.450624 0.000000 4.713048 4.924535 0.000000 9.585660 3.433233 0.000000 1.880052 4.277366 0.000000 6.467313 4.704005 0.000000 -1.072727 3.628157 0.000000 2.056558 4.078103 0.000000 -5.678482 3.570783 0.000000 -1.682148 3.918513 0.000000 -8.501328 1.210148 0.000000 -6.378871 1.386539 0.000000 -8.457112 -1.672500 0.000000 -5.891613 -4.584126 0.000000 -2.732683 -8.784053 0.000000 5.455576 -5.649107 0.000000 5.055113 -6.976388 0.000000 14.309095 -4.598926 0.000000 13.974976 -4.424077 0.000000 19.376222 -2.398698 0.000000 18.256625 -2.647151 0.000000 20.319827 0.574961 0.000000 18.163631 -0.148690 0.000000 16.977169 1.547680 0.000000 16.094604 -1.828718 0.000000 13.385033 -1.077832 0.000000 13.315501 -1.794965 0.000000 11.965259 -3.106504 0.000000 11.898474 -2.600873 0.000000 9.928503 -5.199378 0.000000 11.325419 -1.491028 0.000000 10.729062 -6.125218 0.000000 10.998290 -2.307425 0.000000 9.799702 -7.119021 0.000000 9.390345 -3.831304 0.000000 5.234940 -9.137717 0.000000 3.763677 -2.998582 0.000000 -2.620136 -8.385224 0.000000 -4.333345 4.067198 0.000000 -8.551571 -4.045191 0.000000 -13.965799 11.556767 0.000000 -17.044457 4.292940 0.000000 -22.193811 18.548165 0.000000 -27.997595 8.581071 0.000000 -44.993154 15.085398 0.000000 -56.643456 11.099659 0.000000 -69.581226 21.341633 0.000000 -75.137648 17.549255 0.000000 -86.325351 23.819917 0.000000 -88.286926 25.492766 0.000000 -100.832687 24.166732 0.000000 -95.801661 26.911625 0.000000 
-78.532967 -6.209041 0.000000 -74.218759 -34.124561 0.000000 -58.980610 -258.749252 0.000000 -7.722668 -163.406888 0.000000 17.751048 28.598040 0.000000 2.263203 1.962791 0.000000 20.761456 11.381403 0.000000 9.506374 13.664155 0.000000 18.842791 5.041049 0.000000 11.562279 6.751954 0.000000 15.812106 3.465701 0.000000 11.770958 4.208244 0.000000 12.365604 4.504882 0.000000 11.767680 3.639570 0.000000 8.064242 5.113727 0.000000 10.542302 5.132734 0.000000 4.942821 5.093075 0.000000 7.521407 5.749114 0.000000 1.077184 4.777832 0.000000 2.509216 5.328815 0.000000 -4.840983 4.428643 0.000000 -3.380768 4.556789 0.000000 -10.152527 2.414054 0.000000 -9.726163 0.378296 0.000000 -13.128619 -2.941167 0.000000 -11.974456 -9.477970 0.000000 -5.209140 -16.482194 0.000000 4.359790 -11.603751 0.000000 3.380934 -12.692311 0.000000 12.494160 -10.462297 0.000000 11.549368 -7.561600 0.000000 15.674633 -4.854393 0.000000 13.367883 -0.742845 0.000000 17.237131 3.180488 0.000000 10.326272 3.413535 0.000000 8.669964 6.650170 0.000000 6.035633 3.990932 0.000000 5.676659 6.300886 0.000000 4.178776 4.946719 0.000000 4.207538 4.723824 0.000000 2.867453 5.429040 0.000000 3.359377 4.177540 0.000000 2.471167 7.670516 0.000000 5.374956 5.990163 0.000000 4.146900 10.207067 0.000000 7.039963 9.018857 0.000000 5.995909 13.746937 0.000000 8.456406 11.359142 0.000000 8.106258 17.666650 0.000000 11.296327 12.347810 0.000000 9.401874 20.553059 0.000000 12.622562 12.328419 0.000000 6.216066 20.175373 0.000000 6.034275 12.475925 0.000000 -5.909896 23.124182 0.000000 -13.167132 29.285240 0.000000 -28.973274 38.692877 0.000000 -26.966841 31.198741 0.000000 -47.031045 28.552246 0.000000 -57.001566 28.934460 0.000000 -80.385472 28.060416 0.000000 -90.157589 34.761060 0.000000 -110.518037 16.568291 0.000000 -85.788045 25.758417 0.000000 
-34.851869 -14.633908 0.000000 -36.648103 -52.318584 0.000000 -25.124296 -255.219514 0.000000 -43.375894 -191.542785 0.000000 12.056273 14.916164 0.000000 -10.208717 0.513358 0.000000 14.611226 4.836833 0.000000 7.162973 11.993102 0.000000 15.217827 2.851584 0.000000 11.949266 6.643305 0.000000 13.354445 3.439252 0.000000 12.468990 4.686325 0.000000 10.262531 4.901848 0.000000 11.539127 4.751986 0.000000 6.208812 6.149913 0.000000 9.299623 6.554655 0.000000 2.386490 7.298261 0.000000 5.820805 8.569641 0.000000 -1.868591 8.640347 0.000000 1.155928 9.996270 0.000000 -6.948128 9.460768 0.000000 -4.060620 9.230058 0.000000 -12.923726 7.555543 0.000000 -11.734277 4.362631 0.000000 -18.082218 0.575793 0.000000 -18.109766 -12.503605 0.000000 -4.365899 -25.118299 0.000000 8.217517 -14.239181 0.000000 6.657253 -15.110759 0.000000 18.798616 -12.767360 0.000000 19.243416 -7.604550 0.000000 24.617824 -4.217214 0.000000 26.381631 -4.209649 0.000000 25.539244 3.616572 0.000000 23.174031 8.418477 0.000000 19.501075 5.838318 0.000000 16.366825 1.164587 0.000000 15.175310 0.779024 0.000000 12.150439 -0.325844 0.000000 12.701238 -1.795181 0.000000 11.613475 -1.752711 0.000000 12.129770 -4.803092 0.000000 13.539410 -3.506607 0.000000 13.474094 -7.800950 0.000000 14.481188 -3.972432 0.000000 13.748225 -8.968030 0.000000 12.615565 -5.247747 0.000000 9.407461 -11.248066 0.000000 4.991902 -5.838504 0.000000 0.091940 -9.680840 0.000000 -5.536157 2.740964 0.000000 -9.134183 -0.859383 0.000000 -17.987066 18.145054 0.000000 -20.072135 16.418902 0.000000 -33.159286 37.749572 0.000000 -49.396848 31.644448 0.000000 -64.726871 28.885107 0.000000 -70.103265 29.157431 0.000000 -72.598556 51.376358 0.000000 -75.523409 50.903682 0.000000 -85.621228 56.975940 0.000000 -107.508638 55.625331 0.000000 -100.869824 19.797189 0.000000 -72.255273 -5.073444 0.000000 
-39.581116 -41.816211 0.000000 -28.198870 -43.852133 0.000000 -27.000945 -252.021461 0.000000 -36.931223 -200.587458 0.000000 11.426790 -4.569137 0.000000 -8.289479 -0.592162 0.000000 11.876536 -5.990288 0.000000 7.968645 13.057554 0.000000 15.579882 0.254757 0.000000 13.547958 8.615336 0.000000 14.956074 2.945977 0.000000 13.665714 7.300158 0.000000 12.685174 5.434745 0.000000 12.997353 7.693289 0.000000 9.910082 7.353231 0.000000 11.684435 8.955055 0.000000 7.092935 8.571893 0.000000 9.258298 10.004195 0.000000 3.277304 9.442708 0.000000 4.834049 10.408352 0.000000 -3.949916 9.645191 0.000000 -4.508760 10.532386 0.000000 -14.198161 10.087711 0.000000 -16.876812 5.536788 0.000000 -27.546928 3.434322 0.000000 -29.083518 -23.194289 0.000000 -1.320999 -42.809478 0.000000 9.627972 -22.626903 0.000000 7.112622 -23.273409 0.000000 21.367329 -23.048460 0.000000 20.161812 -13.380808 0.000000 19.321517 -11.992607 0.000000 19.990778 -1.664265 0.000000 22.771093 6.388088 0.000000 5.875826 9.451704 0.000000 -0.425252 13.457376 0.000000 0.947635 8.316697 0.000000 3.778997 10.517272 0.000000 0.570441 7.420791 0.000000 2.252298 5.260787 0.000000 -0.605615 6.000508 0.000000 1.305195 2.251606 0.000000 -0.276400 6.326192 0.000000 4.969423 5.048385 0.000000 2.555235 9.932936 0.000000 6.245338 10.884479 0.000000 3.300740 18.087702 0.000000 8.223085 18.982805 0.000000 6.471451 26.982171 0.000000 16.275523 22.875870 0.000000 12.397651 29.779182 0.000000 24.616517 24.779328 0.000000 20.808065 31.113325 0.000000 31.561644 27.648145 0.000000 46.811554 52.448896 0.000000 58.142088 60.852825 0.000000 21.360061 59.399294 0.000000 -1.969843 39.070426 0.000000 -19.398596 33.972390 0.000000 -45.500160 41.957132 0.000000 -65.104696 60.045645 0.000000 -73.398608 50.009657 0.000000 -64.398264 -18.685074 0.000000 -37.088454 -40.259539 0.000000 
-23.217118 -23.523493 0.000000 -16.851943 -64.898755 0.000000 -7.358424 -246.487161 0.000000 -21.996468 -229.970520 0.000000 9.148937 -13.725580 0.000000 -1.156470 0.063612 0.000000 9.890629 -11.421291 0.000000 11.418478 8.289756 0.000000 12.777820 -2.727728 0.000000 15.820465 7.267113 0.000000 13.607406 3.321496 0.000000 15.758325 6.957225 0.000000 11.137187 5.570208 0.000000 13.478936 7.527079 0.000000 7.506315 7.462831 0.000000 10.262879 9.371801 0.000000 3.281281 9.724399 0.000000 5.975920 12.385273 0.000000 -2.277184 13.064596 0.000000 -0.719495 17.223490 0.000000 -10.057911 18.803576 0.000000 -6.079666 19.478303 0.000000 -19.075317 19.923595 0.000000 -17.735938 17.711397 0.000000 -35.629212 12.782499 0.000000 -27.530326 -38.729534 0.000000 -3.669532 -63.829789 0.000000 9.928556 -22.672802 0.000000 8.700683 -26.850116 0.000000 31.957345 -25.816550 0.000000 32.523739 -5.558738 0.000000 31.047391 -4.046179 0.000000 38.474992 -7.659225 0.000000 47.324610 17.731524 0.000000 47.962652 31.614822 0.000000 32.144570 10.766510 0.000000 17.483823 -3.039662 0.000000 16.544237 1.156218 0.000000 8.443701 1.200855 0.000000 11.817404 -0.619125 0.000000 9.468935 -0.805608 0.000000 12.056188 -5.132307 0.000000 16.378237 -7.170836 0.000000 17.673126 -10.632586 0.000000 20.644427 -5.248347 0.000000 22.514542 -9.713535 0.000000 23.081278 -7.225494 0.000000 20.285963 -14.418776 0.000000 12.249243 -13.890941 0.000000 5.289150 -15.607040 0.000000 -0.888739 -5.600031 0.000000 -7.680529 -9.269797 0.000000 -13.238631 11.199928 0.000000 -23.520405 -9.584586 0.000000 -46.710538 11.169127 0.000000 -63.339723 57.095941 0.000000 -80.152342 88.997038 0.000000 -57.353702 69.916088 0.000000 -38.993297 94.906675 0.000000 -56.192401 96.609782 0.000000 -28.700094 84.874388 0.000000 -45.643592 54.918899 0.000000 7.605779 -16.512965 0.000000 -29.125857 -29.890593 0.000000 
34.598669 -54.090126 0.000000 44.104697 -59.710827 0.000000 29.158220 -246.876935 0.000000 -6.248956 -217.094818 0.000000 12.388987 -25.409136 0.000000 9.227630 -1.333854 0.000000 13.064410 -18.565235 0.000000 16.453340 10.170363 0.000000 16.928538 -4.147231 0.000000 20.422132 7.785750 0.000000 16.566503 3.008117 0.000000 16.699296 9.770378 0.000000 13.784095 7.714134 0.000000 14.929950 11.324161 0.000000 11.760764 10.569288 0.000000 13.701294 13.180090 0.000000 9.784706 12.858853 0.000000 12.540006 15.562660 0.000000 7.737845 16.138123 0.000000 9.824785 18.189079 0.000000 2.425988 15.005362 0.000000 0.769487 19.549792 0.000000 -14.735250 21.743984 0.000000 -14.145039 22.090684 0.000000 -36.767282 13.228710 0.000000 -4.093111 -55.153969 0.000000 -22.952512 -80.268359 0.000000 3.344256 -34.997119 0.000000 1.565877 -45.302199 0.000000 36.430839 -46.871516 0.000000 45.760731 -12.470854 0.000000 28.299847 -17.943860 0.000000 22.575819 -17.941484 0.000000 10.324730 -3.099571 0.000000 -20.911914 24.631744 0.000000 -27.835447 43.936204 0.000000 -6.537527 23.917030 0.000000 3.939085 19.557395 0.000000 -6.574002 12.147623 0.000000 -1.108236 4.235553 0.000000 -6.888392 5.761724 0.000000 -5.525069 -4.657696 0.000000 -3.055702 0.709254 0.000000 6.181633 0.782195 0.000000 0.918903 5.091520 0.000000 4.276493 8.447628 0.000000 -0.771246 20.316281 0.000000 3.874832 29.814841 0.000000 0.130517 41.978984 0.000000 14.798571 36.013852 0.000000 2.037368 42.748860 0.000000 39.521101 37.129220 0.000000 3.190386 46.953201 0.000000 -8.870289 61.120052 0.000000 -34.889369 92.268213 0.000000 -65.526014 94.294630 0.000000 -51.362023 53.413273 0.000000 -26.901584 -2.088619 0.000000 -39.973950 32.811089 0.000000 -21.557718 31.663929 0.000000 -56.784200 49.496836 0.000000 -34.469614 13.703784 0.000000 -73.907278 -35.202808 0.000000 -54.177579 -9.436642 0.000000 
131.508843 -121.805768 0.000000 134.537784 -59.458306 0.000000 109.472014 -196.133509 0.000000 39.464108 -213.201287 0.000000 12.017464 -29.202166 0.000000 23.161943 -0.611811 0.000000 11.351422 -18.647001 0.000000 21.409703 4.425628 0.000000 12.132267 -6.696520 0.000000 23.091641 7.629148 0.000000 17.358879 7.044332 0.000000 22.012552 9.739633 0.000000 13.816848 7.339555 0.000000 16.788653 9.550410 0.000000 9.614881 8.691487 0.000000 12.580066 11.347859 0.000000 6.277714 10.885686 0.000000 8.746675 14.432134 0.000000 0.674732 15.779817 0.000000 6.128551 22.535347 0.000000 -1.452024 27.858874 0.000000 -0.799377 36.639541 0.000000 -12.106146 34.838121 0.000000 -7.992589 39.743429 0.000000 -30.356917 2.730570 0.000000 11.369165 -52.544304 0.000000 -41.193749 -71.267156 0.000000 -18.252360 -47.191190 0.000000 -7.447834 -59.936698 0.000000 11.545186 -70.011405 0.000000 53.964503 2.572254 0.000000 24.170533 19.138733 0.000000 30.474853 10.315892 0.000000 52.640075 61.219258 0.000000 23.255746 69.774998 0.000000 20.476708 -3.607878 0.000000 -1.995989 -34.814194 0.000000 7.361304 1.192694 0.000000 0.944889 6.248176 0.000000 6.777364 -0.304735 0.000000 4.251244 3.611225 0.000000 5.434837 -8.964997 0.000000 19.249866 -18.877538 0.000000 24.177893 -14.607191 0.000000 28.813512 -3.343207 0.000000 33.421251 -8.023385 0.000000 42.708830 -6.823834 0.000000 50.222111 -15.320539 0.000000 32.245306 -24.814680 0.000000 18.829421 -17.513891 0.000000 17.332366 -30.322561 0.000000 23.383857 -10.422815 0.000000 36.747614 59.591318 0.000000 52.696833 28.495169 0.000000 79.152662 67.824852 0.000000 121.478219 73.568595 0.000000 137.330605 50.372608 0.000000 54.453728 58.528015 0.000000 61.035386 89.562809 0.000000 -27.943289 113.420031 0.000000 2.009083 97.786283 0.000000 -58.538866 72.041977 0.000000 -9.384462 3.195000 0.000000 -21.124839 -138.396540 0.000000 
98.036478 -209.752749 0.000000 60.756611 -37.673998 0.000000 68.073797 -151.803259 0.000000 62.893574 -119.640268 0.000000 22.267928 -9.106971 0.000000 32.658253 -0.667812 0.000000 26.584627 -16.812996 0.000000 37.108187 9.389518 0.000000 26.368249 -5.829169 0.000000 34.665619 2.559139 0.000000 20.820946 4.087206 0.000000 17.948687 13.312408 0.000000 14.288097 12.938034 0.000000 16.673194 15.526128 0.000000 13.333472 14.777874 0.000000 16.203781 16.517257 0.000000 11.464872 16.692243 0.000000 15.377678 21.165642 0.000000 13.082861 18.756247 0.000000 16.782087 20.315835 0.000000 8.847522 21.933290 0.000000 10.333252 30.203914 0.000000 -1.665313 28.937196 0.000000 -2.279224 40.341454 0.000000 -12.901948 -6.133044 0.000000 0.911953 -44.317137 0.000000 -36.038124 -50.646834 0.000000 -39.153224 -68.743033 0.000000 -4.770392 -75.099746 0.000000 -19.963616 -108.283853 0.000000 24.451787 -25.096201 0.000000 68.039588 5.545789 0.000000 41.060368 -46.411025 0.000000 61.784450 4.119536 0.000000 127.916237 56.795111 0.000000 117.903477 69.187939 0.000000 25.005146 37.032434 0.000000 36.692054 16.616517 0.000000 -19.489915 12.731564 0.000000 -0.510732 0.929198 0.000000 -18.653436 7.104251 0.000000 -6.529655 -19.656317 0.000000 4.305672 -18.033802 0.000000 13.473494 -8.781452 0.000000 -0.552389 -4.151839 0.000000 4.508525 -5.447690 0.000000 1.381810 3.515421 0.000000 -16.028853 40.278366 0.000000 -34.952705 73.371675 0.000000 -27.078926 50.926792 0.000000 -19.603826 38.194424 0.000000 10.483726 17.713971 0.000000 -21.592745 17.640225 0.000000 -46.276869 18.715004 0.000000 -37.744258 23.486828 0.000000 9.261780 36.116687 0.000000 38.144730 120.437764 0.000000 -24.605196 74.206600 0.000000 36.862002 115.208106 0.000000 6.338775 90.690232 0.000000 -15.479678 80.092413 0.000000 2.478092 25.097329 0.000000 32.835137 -72.616835 0.000000 43.509713 -150.329948 0.000000 
102.640346 -139.052666 0.000000 -80.852940 -29.495625 0.000000 93.929039 -198.270473 0.000000 38.577410 -167.395419 0.000000 7.880738 1.033155 0.000000 25.911096 -4.928510 0.000000 13.220367 -23.096935 0.000000 41.306876 4.642006 0.000000 12.781228 -4.253951 0.000000 35.848074 13.176451 0.000000 31.492777 23.761264 0.000000 34.633078 16.272482 0.000000 19.084769 8.615048 0.000000 19.239429 10.505035 0.000000 12.492323 9.160899 0.000000 13.509188 13.216459 0.000000 11.383545 11.711790 0.000000 14.294484 12.814145 0.000000 11.043754 14.375407 0.000000 7.102306 26.770686 0.000000 -6.038396 34.307709 0.000000 -8.897867 47.152376 0.000000 -4.568175 47.450597 0.000000 7.718519 50.980063 0.000000 3.837679 -0.460607 0.000000 -5.060498 -29.408127 0.000000 -9.459024 -31.201979 0.000000 -8.842122 -78.458922 0.000000 -14.682362 -79.126306 0.000000 -16.775639 -99.233584 0.000000 -35.874209 -85.430951 0.000000 30.839960 2.530152 0.000000 -23.489098 16.571031 0.000000 -23.399020 -25.636611 0.000000 -19.727466 13.655971 0.000000 -42.046388 99.303213 0.000000 -39.385483 46.397229 0.000000 -4.788604 45.687755 0.000000 -24.394853 43.450963 0.000000 17.720634 -1.141214 0.000000 4.458665 9.630148 0.000000 36.570374 -31.924105 0.000000 32.393727 -38.880688 0.000000 52.416455 -9.749131 0.000000 64.019611 5.621763 0.000000 38.022783 -9.957584 0.000000 42.283553 13.713545 0.000000 93.150347 21.013976 0.000000 109.349757 -13.764607 0.000000 85.440438 -32.862769 0.000000 46.462798 -67.885213 0.000000 -5.991453 -8.433897 0.000000 -94.631152 116.351913 0.000000 -44.116725 44.646682 0.000000 -40.321694 12.286204 0.000000 -59.742435 -2.320393 0.000000 -99.109755 84.239584 0.000000 -55.160960 59.810743 0.000000 -3.579237 58.618839 0.000000 -98.831766 165.761711 0.000000 8.521839 101.646966 0.000000 177.316571 23.727163 0.000000 111.467450 -37.836621 0.000000 106.535303 -203.597880 0.000000 
100.958811 -22.364506 0.000000 -5.019066 -28.962691 0.000000 61.270396 -271.233608 0.000000 11.921646 -33.591967 0.000000 18.406822 3.559344 0.000000 25.574871 -6.007442 0.000000 14.251322 -32.208776 0.000000 78.820626 9.828657 0.000000 66.922851 -0.370366 0.000000 53.523087 -16.152410 0.000000 8.349058 5.302202 0.000000 4.436410 25.720416 0.000000 9.269548 28.331683 0.000000 20.412656 22.118574 0.000000 12.938729 20.508115 0.000000 19.870011 17.626034 0.000000 16.263212 15.906948 0.000000 13.849231 21.505434 0.000000 8.666997 25.948425 0.000000 11.413032 37.397985 0.000000 20.049215 37.933463 0.000000 33.473505 28.733693 0.000000 44.700404 12.320810 0.000000 41.756605 31.935600 0.000000 23.619341 6.645974 0.000000 23.517389 -31.020433 0.000000 44.363235 -46.865210 0.000000 77.072199 -63.519696 0.000000 46.099832 -67.166229 0.000000 5.598174 -87.092006 0.000000 -24.242161 -72.711800 0.000000 0.075330 -6.839322 0.000000 19.082356 7.827954 0.000000 -2.546683 0.357905 0.000000 -20.114547 75.442478 0.000000 -32.349490 88.845955 0.000000 58.065284 -0.225349 0.000000 39.283583 1.625888 0.000000 46.783017 -9.777674 0.000000 40.667798 -27.924321 0.000000 49.215749 -11.745489 0.000000 59.793150 -47.591379 0.000000 39.137538 -33.879883 0.000000 56.098941 -40.407336 0.000000 95.103063 10.241833 0.000000 119.791000 16.288368 0.000000 114.233558 -51.612143 0.000000 215.305786 -26.787839 0.000000 178.001005 81.081583 0.000000 77.039296 113.813751 0.000000 16.653675 129.626315 0.000000 88.226840 158.807922 0.000000 52.093953 55.765498 0.000000 58.581394 -35.594455 0.000000 -53.609529 39.112537 0.000000 88.219465 94.904748 0.000000 45.302245 115.856289 0.000000 87.781660 -21.323917 0.000000 41.487680 158.878912 0.000000 207.730328 78.589156 0.000000 103.109490 -196.055923 0.000000 225.905119 -77.848282 0.000000 85.114477 -1.835568 0.000000 51.547283 -141.502844 0.000000 
145.311918 -82.486317 0.000000 129.977354 10.192791 0.000000 102.609625 -215.211184 0.000000 2.387948 -124.531845 0.000000 -2.712326 -12.620071 0.000000 23.424289 -0.773010 0.000000 -15.478056 -76.342689 0.000000 95.266921 -48.029522 0.000000 96.491470 21.043588 0.000000 103.833562 71.750243 0.000000 72.119756 72.847940 0.000000 51.274345 15.351993 0.000000 20.292300 -7.361198 0.000000 8.146541 6.835853 0.000000 10.452643 9.703544 0.000000 14.020245 9.891977 0.000000 7.093640 17.732570 0.000000 21.013231 20.410359 0.000000 22.086028 16.811606 0.000000 34.795680 15.388469 0.000000 37.665926 12.247237 0.000000 41.516519 22.501187 0.000000 47.666141 39.167497 0.000000 19.226372 72.061126 0.000000 15.199844 17.778610 0.000000 21.457241 -50.152021 0.000000 48.797093 -84.756789 0.000000 71.050599 -80.195519 0.000000 106.007120 -7.652281 0.000000 71.409142 -28.891591 0.000000 8.666604 -79.908107 0.000000 10.247632 -40.794365 0.000000 46.947976 19.193044 0.000000 23.292245 13.560292 0.000000 9.603322 43.458778 0.000000 67.281830 21.123381 0.000000 111.395675 -25.235845 0.000000 114.628480 56.970022 0.000000 105.073579 42.066748 0.000000 70.555287 -3.573946 0.000000 44.822544 -9.495204 0.000000 36.993118 -21.845894 0.000000 2.399967 -35.186478 0.000000 -16.438563 -65.714656 0.000000 10.231998 -58.070296 0.000000 76.384927 -29.088079 0.000000 2.300165 -81.801241 0.000000 32.749519 -42.753472 0.000000 106.300186 124.501882 0.000000 141.277441 128.484562 0.000000 166.294444 -79.072756 0.000000 321.817606 -43.874175 0.000000 491.648693 145.997359 0.000000 317.421536 150.350164 0.000000 339.457451 -17.351867 0.000000 150.942895 -101.232167 0.000000 291.480730 84.677388 0.000000 165.950751 63.625308 0.000000 81.532423 -61.329829 0.000000 209.151593 104.139901 0.000000 137.257664 83.472175 0.000000 206.911380 41.722176 0.000000 40.607561 136.521215 0.000000 148.882867 -219.442215 0.000000 
-232.910705 -3.458993 0.000000 257.974231 13.739603 0.000000 79.546100 -143.644202 0.000000 50.434624 71.729984 0.000000 13.855959 -17.476998 0.000000 40.245495 6.758288 0.000000 9.637415 -104.051408 0.000000 81.812119 -102.140868 0.000000 55.126152 -8.937008 0.000000 78.362043 8.219303 0.000000 115.400240 57.861419 0.000000 112.212154 77.547872 0.000000 54.605724 71.459487 0.000000 37.759127 31.958231 0.000000 26.601578 14.634411 0.000000 16.127395 20.985038 0.000000 26.180811 8.913961 0.000000 22.013745 6.513046 0.000000 17.878403 12.165976 0.000000 18.740832 21.818087 0.000000 4.744837 31.212624 0.000000 21.312828 18.733478 0.000000 28.596640 34.610956 0.000000 35.303983 64.401897 0.000000 50.410570 4.415105 0.000000 33.506968 -64.617682 0.000000 33.745489 -96.458567 0.000000 4.564078 -120.729722 0.000000 25.216761 -67.524772 0.000000 64.871534 10.248510 0.000000 -3.471795 -11.550290 0.000000 -1.705104 -45.120694 0.000000 3.651261 -5.216659 0.000000 15.091897 37.702559 0.000000 -1.027742 31.452894 0.000000 28.325837 -12.946399 0.000000 -46.757148 -47.572000 0.000000 -34.875833 7.947983 0.000000 -20.798703 34.295519 0.000000 2.008668 32.326715 0.000000 9.836769 21.816680 0.000000 33.689891 -5.168802 0.000000 52.501091 19.551798 0.000000 54.832152 -48.239368 0.000000 46.912532 -82.581656 0.000000 56.353116 24.220201 0.000000 31.497334 -7.976735 0.000000 -3.096839 -130.787860 0.000000 56.667815 -27.446339 0.000000 219.210698 53.819493 0.000000 204.292834 -50.913850 0.000000 108.589314 -166.546327 0.000000 211.608759 60.161567 0.000000 257.477726 116.596788 0.000000 76.485803 205.591178 0.000000 119.124812 142.881468 0.000000 -78.813238 100.848432 0.000000 27.089573 188.624390 0.000000 -69.891804 115.678070 0.000000 88.651394 22.863915 0.000000 -124.881720 -193.815710 0.000000 -134.049466 18.801820 0.000000 -71.561203 56.192946 0.000000 94.289164 -246.207201 0.000000 