# vtk DataFile Version 2.0
Comment goes here
ASCII

DATASET STRUCTURED_POINTS
FIELD FieldData 1
TIME 1 1 double
0.08300000
DIMENSIONS    64   64   1

ORIGIN    0.000   0.000   0.000
SPACING   0.03125 0.03125   1.000

POINT_DATA   4096
VECTORS u double

-2.913057 -29.453429 0.000000 2.019825 -23.177720 0.000000 14.582527 59.029531 0.000000 8.665732 -58.282902 0.000000 -4.733677 7.382014 0.000000 -8.427603 -0.027402 0.000000 3.404233 -7.616446 0.000000 -11.538480 -13.341188 0.000000 32.702404 -7.136956 0.000000 -20.674952 -10.629327 0.000000 21.769975 21.103422 0.000000 16.560530 26.154901 0.000000 7.869625 2.682541 0.000000 18.797176 19.819522 0.000000 -43.371017 6.012102 0.000000 34.099661 10.650427 0.000000 -29.249622 17.240785 0.000000 14.900050 -26.883064 0.000000 -20.532355 2.814428 0.000000 -5.483415 3.200997 0.000000 -3.317436 -11.989634 0.000000 1.219060 12.768862 0.000000 -41.212651 10.929390 0.000000 13.428821 29.644721 0.000000 -4.874998 7.244018 0.000000 8.840781 30.127541 0.000000 -5.624546 -16.004416 0.000000 -10.426777 -44.722783 0.000000 10.423711 -6.724475 0.000000 -34.418795 -4.034440 0.000000 45.667272 -3.579601 0.000000 -44.801886 -32.297821 0.000000 43.464415 -11.325492 0.000000 -18.710627 -62.983160 0.000000 49.109891 -20.582037 0.000000 -20.776187 8.448435 0.000000 -14.952159 -21.790142 0.000000 1.972063 -4.682825 0.000000 -62.175913 20.526386 0.000000 3.921367 39.663677 0.000000 -41.687313 52.294017 0.000000 25.014944 12.458400 0.000000 -8.043396 -27.637813 0.000000 -9.003421 -26.066169 0.000000 20.519372 48.052523 0.000000 -20.807162 -24.292057 0.000000 -6.996271 -49.566740 0.000000 -29.001213 6.008139 0.000000 3.806336 -33.971093 0.000000 -11.882512 22.823068 0.000000 -64.446331 -5.647584 0.000000 22.319565 -0.374277 0.000000 -39.752953 46.868390 0.000000 -31.594197 -5.705502 0.000000 -23.409026 11.351990 0.000000 15.624795 87.386416 0.000000 -43.656319 -62.142662 0.000000 25.673384 -0.768562 0.000000 -38.941731 4.321178 0.000000 24.227736 -28.498895 0.000000 -6.718713 44.218800 0.000000 -6.224582 28.949993 0.000000 3.324853 -76.431382 0.000000 -2.941656 55.188369 0.000000 
70.026168 -3.002408 0.000000 -12.305918 -64.601361 0.000000 6.784814 11.416551 0.000000 -24.933394 -0.725664 0.000000 44.981769 47.667454 0.000000 -23.789772 -33.918088 0.000000 46.582716 9.802235 0.000000 -64.762941 4.789943 0.000000 18.923124 -2.720603 0.000000 -42.117343 26.139255 0.000000 -12.535172 -52.332143 0.000000 -33.848552 -3.695957 0.000000 -32.064037 -5.034765 0.000000 -7.424644 11.558750 0.000000 9.022859 -3.587175 0.000000 -25.216084 -37.679740 0.000000 1.605788 7.534834 0.000000 -20.115698 3.430422 0.000000 -20.117794 19.893558 0.000000 -7.694970 -10.325255 0.000000 -23.574654 7.397336 0.000000 -22.537632 8.580184 0.000000 7.470452 -32.403558 0.000000 -43.821095 -23.638112 0.000000 6.731977 -30.218156 0.000000 -75.185033 -8.639689 0.000000 66.021235 11.259115 0.000000 -56.392688 36.282634 0.000000 74.362647 28.869301 0.000000 -18.874139 -28.044741 0.000000 21.218271 16.818888 0.000000 -3.286261 29.605849 0.000000 19.087476 12.921300 0.000000 -17.685772 55.466789 0.000000 -26.899182 15.066232 0.000000 1.572655 38.802506 0.000000 24.263985 -0.201884 0.000000 4.830315 29.448013 0.000000 35.923500 -36.299721 0.000000 29.563677 -53.424104 0.000000 -3.130700 -53.107420 0.000000 1.749335 -44.185807 0.000000 -38.908225 74.379330 0.000000 20.453201 -27.386187 0.000000 -64.186544 -12.164566 0.000000 26.611492 37.617161 0.000000 -5.022952 37.917110 0.000000 32.847373 6.979336 0.000000 -31.021969 -9.406781 0.000000 19.007994 40.973623 0.000000 43.697413 -45.074516 0.000000 -38.183888 2.345784 0.000000 6.919396 -24.593305 0.000000 63.637819 26.648646 0.000000 -31.642045 -60.689372 0.000000 47.986500 -32.480085 0.000000 9.182775 17.192683 0.000000 -9.887353 10.657827 0.000000 30.045313 -20.697506 0.000000 -32.229280 1.194427 0.000000 -29.779215 -33.207084 0.000000 -1.330903 -4.670027 0.000000 -8.802447 35.760682 0.000000 -23.900443 12.085329 0.000000 
101.750539 -41.047954 0.000000 -20.315125 40.063634 0.000000 16.018830 71.657007 0.000000 -56.954200 -96.479857 0.000000 -11.119433 6.238392 0.000000 -8.148637 -1.628349 0.000000 -43.875472 33.356723 0.000000 50.837061 14.318403 0.000000 28.204478 -29.782554 0.000000 29.859828 20.828970 0.000000 60.838796 12.834631 0.000000 75.096316 45.683766 0.000000 18.238831 -23.741368 0.000000 12.799763 -21.267375 0.000000 42.570303 23.803542 0.000000 -14.531918 18.067499 0.000000 51.121870 12.140400 0.000000 5.923285 -5.159483 0.000000 68.476578 -9.606300 0.000000 39.255203 6.657858 0.000000 35.858691 2.853028 0.000000 54.758561 -18.276244 0.000000 50.401295 32.212853 0.000000 37.939476 30.383196 0.000000 90.349155 38.607957 0.000000 8.072019 -29.161718 0.000000 54.205362 -34.796761 0.000000 -49.736664 -53.064195 0.000000 -5.687399 -44.243025 0.000000 -75.644090 49.109935 0.000000 2.234872 -19.167480 0.000000 4.121042 -30.167026 0.000000 -27.614128 3.074019 0.000000 44.428097 -16.996503 0.000000 47.297112 -39.840464 0.000000 54.667549 -42.714732 0.000000 -38.040264 -25.047802 0.000000 -19.652797 -16.342339 0.000000 2.410558 -4.206975 0.000000 -92.741268 78.717877 0.000000 21.761420 80.108358 0.000000 -9.945641 48.235924 0.000000 -2.511412 -46.341678 0.000000 110.236387 -0.787850 0.000000 9.835111 41.894232 0.000000 34.824758 -83.455648 0.000000 -50.699783 -55.802622 0.000000 46.818418 32.007155 0.000000 -42.563425 -20.131714 0.000000 18.236339 -51.896313 0.000000 18.039521 51.544298 0.000000 2.944054 36.403740 0.000000 25.968532 -54.953317 0.000000 -14.608747 32.855939 0.000000 5.723025 27.003309 0.000000 -46.402964 46.561595 0.000000 -32.932434 -4.268809 0.000000 34.048548 -21.631100 0.000000 -35.989790 26.663105 0.000000 28.755551 31.325633 0.000000 81.653768 13.320423 0.000000 38.976222 7.973225 0.000000 30.615052 -53.861842 0.000000 3.144781 -23.640246 0.000000 
-22.646703 20.457498 0.000000 -135.950652 21.130348 0.000000 21.045188 48.055626 0.000000 -23.825795 26.412598 0.000000 -9.285262 -1.138109 0.000000 -5.653611 -1.162049 0.000000 -13.617654 -49.183463 0.000000 -2.496020 -67.290008 0.000000 -18.772749 18.256631 0.000000 -77.718047 -6.495062 0.000000 53.481225 -97.568632 0.000000 138.126272 38.904007 0.000000 138.257341 57.261788 0.000000 43.525058 -12.772722 0.000000 84.380513 23.744506 0.000000 18.094170 -46.231307 0.000000 46.988743 -12.920369 0.000000 39.560674 -13.924287 0.000000 82.910064 -13.438361 0.000000 56.418419 22.292632 0.000000 85.272280 -8.106022 0.000000 18.805481 -5.962420 0.000000 9.634092 -15.584472 0.000000 17.866156 -63.585971 0.000000 17.755674 -0.350699 0.000000 71.642333 27.504104 0.000000 31.708781 69.067797 0.000000 46.563871 96.175394 0.000000 22.441019 54.776728 0.000000 87.776318 -35.967011 0.000000 28.307566 -62.946243 0.000000 42.005647 59.454849 0.000000 -4.611045 -27.385756 0.000000 40.294572 -19.444451 0.000000 -61.584356 4.826781 0.000000 -49.791602 124.139882 0.000000 -42.765277 74.118462 0.000000 -92.412687 -11.002808 0.000000 -109.484373 36.788749 0.000000 -124.015102 -72.774966 0.000000 18.323678 -135.903047 0.000000 -7.394041 -19.912975 0.000000 60.123355 -45.802699 0.000000 -24.817311 -39.732709 0.000000 64.355472 63.247064 0.000000 31.407680 98.152055 0.000000 -20.117424 25.923450 0.000000 38.468525 -1.157023 0.000000 37.187896 19.175298 0.000000 -46.860187 -19.629323 0.000000 -18.310492 -29.782232 0.000000 43.454457 -5.583227 0.000000 19.092576 -7.040503 0.000000 -66.967821 46.894153 0.000000 -34.522398 -28.895156 0.000000 4.895918 6.175373 0.000000 -16.580764 -63.258828 0.000000 -1.591804 13.715183 0.000000 18.470255 -15.404509 0.000000 55.068798 -116.449131 0.000000 78.772443 -43.427755 0.000000 122.627459 46.368689 0.000000 111.170666 71.592123 0.000000 11.058789 -59.050157 0.000000 
73.710339 105.961487 0.000000 -25.842670 -3.628257 0.000000 -28.602243 -40.467849 0.000000 -22.485563 -66.149407 0.000000 -11.533655 -11.933792 0.000000 -7.041847 2.704042 0.000000 -9.864867 30.199132 0.000000 -47.579696 19.473499 0.000000 -79.108570 45.439473 0.000000 15.525744 -51.425004 0.000000 22.588264 -203.009688 0.000000 55.018425 -39.092349 0.000000 151.151975 70.859846 0.000000 71.557390 32.609453 0.000000 95.409041 49.234429 0.000000 63.288552 55.459269 0.000000 35.190265 -9.326104 0.000000 56.604890 -41.080804 0.000000 34.643435 -26.464046 0.000000 80.795938 4.295643 0.000000 72.085611 40.465966 0.000000 90.667993 57.361944 0.000000 17.093189 33.152178 0.000000 35.312339 22.261614 0.000000 -10.585360 -15.168220 0.000000 47.498700 -43.114825 0.000000 -2.093240 -9.718299 0.000000 89.002849 -43.796432 0.000000 60.640036 -85.455471 0.000000 108.174829 43.243388 0.000000 19.881035 26.603191 0.000000 67.678478 2.751585 0.000000 -3.351755 4.785093 0.000000 38.038027 39.976808 0.000000 -51.524269 50.245710 0.000000 -14.188784 -61.533810 0.000000 57.495474 17.573282 0.000000 -9.760851 50.376756 0.000000 5.660780 27.395440 0.000000 12.866849 -49.090173 0.000000 -95.759843 -36.512703 0.000000 -42.464765 6.436246 0.000000 11.587764 -28.918408 0.000000 -54.115976 -5.019966 0.000000 -0.895159 -14.330758 0.000000 -131.538409 1.017248 0.000000 35.872367 -62.863467 0.000000 -65.659374 -25.298165 0.000000 -8.362139 65.196998 0.000000 -65.882391 3.602075 0.000000 -34.554314 -38.770346 0.000000 27.536303 -0.999329 0.000000 14.505058 55.468960 0.000000 21.673788 86.470914 0.000000 -31.623912 -44.860430 0.000000 22.556527 28.619961 0.000000 -12.407325 2.218913 0.000000 85.820942 -56.682119 0.000000 33.990019 -29.997497 0.000000 92.965652 -28.976555 0.000000 -2.103534 -54.238238 0.000000 -103.347911 -24.424997 0.000000 150.736721 57.706828 0.000000 44.411782 110.177123 0.000000 
86.913799 90.711950 0.000000 23.460929 123.442929 0.000000 133.634928 44.698519 0.000000 41.705843 9.344011 0.000000 -5.677257 -16.581824 0.000000 13.598289 -2.830837 0.000000 2.071154 -8.645615 0.000000 102.653818 1.953695 0.000000 19.178214 -44.848809 0.000000 63.962722 -108.191897 0.000000 46.578403 -137.061313 0.000000 23.781461 -89.659704 0.000000 44.773182 40.722822 0.000000 26.739286 42.970212 0.000000 47.627176 32.013344 0.000000 70.861966 13.987470 0.000000 76.217314 -6.236707 0.000000 7.102940 -13.377458 0.000000 -18.132953 -37.629409 0.000000 33.036657 -15.149544 0.000000 -8.938266 -17.978077 0.000000 45.288022 49.030001 0.000000 58.257384 39.771182 0.000000 75.528744 -35.907422 0.000000 54.974726 -12.537060 0.000000 34.524368 19.011983 0.000000 1.579620 27.563649 0.000000 98.425728 33.442119 0.000000 -1.910979 35.604747 0.000000 -63.429839 4.791990 0.000000 11.623501 -22.449892 0.000000 60.146362 82.687639 0.000000 29.753552 2.254695 0.000000 79.451637 28.728063 0.000000 14.869730 57.053591 0.000000 -0.350209 15.120139 0.000000 -51.802491 69.690529 0.000000 -7.405024 40.831885 0.000000 -0.148164 14.161049 0.000000 1.723379 28.645657 0.000000 -121.117622 -80.571432 0.000000 -23.678107 -127.260582 0.000000 6.288280 -34.151488 0.000000 3.219337 -27.249786 0.000000 -5.477491 140.669496 0.000000 -11.286526 61.384529 0.000000 -60.282441 -39.955585 0.000000 -68.514904 43.077483 0.000000 -103.912304 19.398316 0.000000 14.574457 6.562851 0.000000 -105.354240 -123.200926 0.000000 -104.932879 -54.642598 0.000000 -64.496808 -1.177989 0.000000 -42.300647 93.023123 0.000000 32.474190 -29.777894 0.000000 -21.234736 -13.041214 0.000000 88.749981 -126.523244 0.000000 4.043900 -32.682161 0.000000 4.323812 -22.549218 0.000000 9.204674 -80.355578 0.000000 23.782891 152.885809 0.000000 -17.355795 -106.471566 0.000000 -1.654361 -76.167571 0.000000 28.952462 17.976225 0.000000 
-20.998735 111.453019 0.000000 49.930092 -50.349386 0.000000 90.337239 -58.712763 0.000000 32.036673 73.162778 0.000000 -5.320375 16.173763 0.000000 9.004068 -5.044369 0.000000 -1.893085 -58.856397 0.000000 77.086349 2.366439 0.000000 14.047130 84.130569 0.000000 -57.345193 -78.825193 0.000000 45.347158 -162.828426 0.000000 16.698663 -37.287129 0.000000 -31.928593 67.902021 0.000000 -3.523311 29.755459 0.000000 -37.470906 5.111749 0.000000 20.694853 26.869131 0.000000 6.100232 54.432922 0.000000 23.117157 53.269463 0.000000 -9.729531 -52.397763 0.000000 -8.005015 -4.899044 0.000000 -16.013425 28.214601 0.000000 -0.592171 -9.833706 0.000000 23.838111 2.911455 0.000000 -35.392258 25.544272 0.000000 -48.982644 25.836156 0.000000 0.746917 10.280281 0.000000 -20.201059 -73.619659 0.000000 10.752280 -40.305833 0.000000 -5.665329 76.400095 0.000000 14.398584 29.708907 0.000000 -11.345167 -96.973009 0.000000 21.818704 -15.378465 0.000000 78.235031 -14.520182 0.000000 -21.941391 54.860630 0.000000 63.471427 130.047555 0.000000 24.562921 5.138410 0.000000 61.391982 24.628098 0.000000 16.734235 -1.277571 0.000000 66.189115 18.267038 0.000000 39.665921 71.879285 0.000000 68.284915 -11.111217 0.000000 10.468793 -120.969656 0.000000 -39.374573 -55.815852 0.000000 13.547868 6.745805 0.000000 21.783526 0.175105 0.000000 144.406897 55.822198 0.000000 29.972907 -5.635089 0.000000 82.329455 18.331697 0.000000 57.390180 -17.892364 0.000000 37.471394 5.044011 0.000000 36.087936 80.736991 0.000000 -138.685995 -41.856760 0.000000 91.139731 -7.163272 0.000000 3.367278 -10.500085 0.000000 38.572755 -65.926341 0.000000 -64.522357 -27.655830 0.000000 46.243142 -23.059723 0.000000 -87.887418 27.744050 0.000000 -12.669238 -35.158270 0.000000 -36.215793 -48.435634 0.000000 71.906985 -27.677769 0.000000 45.927338 1.012254 0.000000 -74.667693 11.398571 0.000000 -35.175029 21.608963 0.000000 
163.660231 5.606828 0.000000 52.256643 12.106955 0.000000 16.772067 62.591938 0.000000 -20.357852 105.001625 0.000000 -20.985177 6.450781 0.000000 -7.730049 -6.258127 0.000000 -40.890707 -76.727897 0.000000 9.198843 -13.986520 0.000000 -52.591382 89.582733 0.000000 40.847500 -139.491925 0.000000 -20.871175 -211.105168 0.000000 -64.243981 -12.383953 0.000000 -27.183700 60.944797 0.000000 16.690083 48.512525 0.000000 11.655074 7.795180 0.000000 46.623896 -29.583668 0.000000 13.953198 -8.659011 0.000000 46.505612 2.452306 0.000000 42.445554 -6.507236 0.000000 -12.800609 -8.865650 0.000000 23.419345 -25.390922 0.000000 16.477315 9.178466 0.000000 -26.090333 74.571269 0.000000 -25.259637 36.913333 0.000000 6.846252 -48.676235 0.000000 -8.317659 -9.769602 0.000000 43.685725 17.558286 0.000000 -32.753047 18.906389 0.000000 -23.314329 31.958443 0.000000 14.266148 10.471828 0.000000 -61.565912 -29.870011 0.000000 -41.567548 -6.892559 0.000000 -48.902687 46.014790 0.000000 -102.419017 43.491666 0.000000 -39.278213 10.549278 0.000000 -14.809322 17.199584 0.000000 -26.151667 77.519215 0.000000 -19.455059 36.034752 0.000000 -31.934535 -8.770636 0.000000 38.758694 26.549857 0.000000 34.831121 -51.374305 0.000000 52.072097 -19.601094 0.000000 -15.102285 -37.230563 0.000000 -24.252699 -88.407885 0.000000 -57.410242 9.810468 0.000000 26.163679 53.195147 0.000000 39.003747 22.121857 0.000000 38.892819 15.660210 0.000000 24.007800 64.256377 0.000000 -29.263103 27.865095 0.000000 -17.326394 52.956464 0.000000 76.609291 -109.694393 0.000000 14.263558 -143.231263 0.000000 102.964442 145.590099 0.000000 64.843498 38.111741 0.000000 57.362022 -20.711600 0.000000 -37.900590 -103.158183 0.000000 42.859392 26.230220 0.000000 67.694534 -74.220843 0.000000 25.835234 -164.931801 0.000000 71.983936 70.742677 0.000000 15.752353 40.103112 0.000000 100.640327 4.934796 0.000000 -32.373670 -35.692733 0.000000 
-39.140555 26.822707 0.000000 -9.543179 96.538778 0.000000 -30.311738 13.901731 0.000000 -9.786574 110.920022 0.000000 -11.027613 3.545960 0.000000 -3.452071 14.861161 0.000000 -38.368097 -75.785289 0.000000 -16.222095 14.067113 0.000000 -50.149871 52.481912 0.000000 117.411027 -110.545400 0.000000 13.241057 -57.736946 0.000000 -56.307569 -30.974604 0.000000 53.404041 -13.032043 0.000000 -24.113895 -9.083315 0.000000 32.782881 -24.822064 0.000000 -5.233908 24.571007 0.000000 11.290570 54.551206 0.000000 -1.880156 24.777107 0.000000 -41.804246 6.908458 0.000000 12.334840 14.127164 0.000000 -2.379085 -1.063323 0.000000 -22.205811 39.675972 0.000000 -25.519538 44.648407 0.000000 13.574280 -7.392313 0.000000 -35.197219 8.894177 0.000000 -33.604967 -26.559192 0.000000 -59.046043 -49.184270 0.000000 -46.318071 26.694221 0.000000 -19.303803 29.380900 0.000000 43.980520 67.960491 0.000000 34.457146 -41.139313 0.000000 36.348890 -28.041691 0.000000 -11.510085 46.331288 0.000000 -3.299864 45.236157 0.000000 -44.229624 42.437861 0.000000 19.145562 -7.988136 0.000000 -3.105337 29.273835 0.000000 -7.353834 4.505297 0.000000 12.177979 -39.946716 0.000000 7.739765 5.113629 0.000000 15.340371 -24.424620 0.000000 -57.593644 -71.036250 0.000000 64.473264 20.508943 0.000000 -22.983984 49.053763 0.000000 -45.785490 -50.241273 0.000000 15.519199 -40.591791 0.000000 108.408217 -18.364230 0.000000 50.619991 33.327645 0.000000 24.307133 50.263558 0.000000 62.588971 46.378206 0.000000 93.129915 -25.135403 0.000000 150.156048 -73.446713 0.000000 -51.019027 -33.518423 0.000000 101.473140 -61.080025 0.000000 -36.626008 -20.323921 0.000000 82.567441 75.088258 0.000000 40.560602 -8.557092 0.000000 34.031452 -77.851074 0.000000 46.881010 -18.134113 0.000000 -39.109539 -52.725036 0.000000 -3.616715 -17.594888 0.000000 117.652205 -27.644137 0.000000 151.119518 59.524594 0.000000 35.698686 -41.410941 0.000000 
-94.495961 50.848694 0.000000 30.152208 3.278138 0.000000 -29.455411 62.835332 0.000000 2.446733 85.717500 0.000000 3.437620 0.116277 0.000000 -2.211713 21.082357 0.000000 18.584549 -63.957872 0.000000 -57.256210 -2.204746 0.000000 -39.941514 -44.050388 0.000000 46.328626 -202.882853 0.000000 -8.429223 -37.386572 0.000000 -11.045887 -52.546936 0.000000 19.418764 28.751122 0.000000 17.367155 69.133685 0.000000 21.568718 -11.084806 0.000000 -2.349882 -8.091358 0.000000 -0.119665 -12.012763 0.000000 -16.508689 55.547121 0.000000 -35.254214 -20.722233 0.000000 5.775444 -48.290811 0.000000 -5.863258 9.149729 0.000000 -5.083536 32.318920 0.000000 -6.010554 38.791178 0.000000 -13.131722 46.591014 0.000000 -34.452565 -1.496988 0.000000 -1.273712 14.079223 0.000000 -39.287299 30.271391 0.000000 10.724076 -20.835851 0.000000 -4.896572 -58.340149 0.000000 -26.712252 -43.289121 0.000000 58.375217 -22.238381 0.000000 -43.773633 39.074672 0.000000 18.082102 85.663545 0.000000 12.627978 76.211205 0.000000 13.630002 -11.896148 0.000000 19.052701 -23.924703 0.000000 -8.912256 104.018611 0.000000 59.668299 20.751437 0.000000 -6.224675 -23.864235 0.000000 -51.675193 23.387465 0.000000 25.761353 13.959105 0.000000 -75.605784 -68.733987 0.000000 -23.106780 -71.840223 0.000000 -4.610257 21.850869 0.000000 -35.479252 -28.692716 0.000000 39.479161 -100.998560 0.000000 -101.034745 -12.978935 0.000000 -44.411090 99.761294 0.000000 1.968488 52.287397 0.000000 10.348941 -40.957687 0.000000 73.794106 -34.610614 0.000000 84.885461 34.454550 0.000000 149.009846 -94.548355 0.000000 79.010406 131.197079 0.000000 0.066373 57.017440 0.000000 66.624441 -97.898210 0.000000 99.624053 -54.622194 0.000000 12.590786 19.909812 0.000000 72.627264 -1.079852 0.000000 107.289846 -114.434076 0.000000 37.369548 -86.019066 0.000000 20.576022 -114.633121 0.000000 46.975231 86.888315 0.000000 -42.006236 154.567340 0.000000 
15.702771 -45.335737 0.000000 -145.412273 31.498229 0.000000 -71.123698 41.607206 0.000000 10.558005 78.026991 0.000000 17.115171 8.204406 0.000000 4.822107 -0.285768 0.000000 36.578366 -20.740792 0.000000 -99.645638 72.593175 0.000000 30.896208 -51.102924 0.000000 -103.570845 -142.057691 0.000000 -122.089035 -0.362433 0.000000 21.838885 -58.822591 0.000000 -29.166931 -41.445085 0.000000 47.437100 -11.233269 0.000000 2.335386 -5.105027 0.000000 30.042661 46.259390 0.000000 12.385299 68.710014 0.000000 16.547617 59.911655 0.000000 16.501961 -15.375675 0.000000 -10.993115 -15.263791 0.000000 -24.264830 9.795656 0.000000 -6.932388 39.823268 0.000000 5.611668 52.696593 0.000000 38.466650 21.049698 0.000000 14.938431 -2.963832 0.000000 -7.727000 -21.724458 0.000000 2.164949 -61.182058 0.000000 -27.290363 -7.696506 0.000000 -25.925671 66.817227 0.000000 -75.764864 4.688701 0.000000 -9.456644 -24.077932 0.000000 -126.231556 12.251423 0.000000 -13.437019 -10.070324 0.000000 -65.693828 49.688257 0.000000 -3.458338 36.013138 0.000000 -51.996753 14.554122 0.000000 36.421066 -11.341764 0.000000 -29.945394 1.817716 0.000000 38.545791 71.396777 0.000000 59.473543 -26.872399 0.000000 34.095150 -0.494030 0.000000 -25.000151 -22.168117 0.000000 -33.331038 -50.486583 0.000000 -60.432597 61.426235 0.000000 41.649154 -94.330691 0.000000 -94.141717 24.963702 0.000000 -107.418451 65.526021 0.000000 -67.362967 -69.675589 0.000000 78.889669 -4.496473 0.000000 -44.211946 -25.447413 0.000000 -30.197366 -99.671923 0.000000 28.485332 -148.662453 0.000000 -55.920514 -27.643368 0.000000 -17.121169 87.863448 0.000000 70.870176 -7.937956 0.000000 17.736396 -24.469423 0.000000 -2.954380 45.476562 0.000000 -98.086839 -50.854285 0.000000 121.924564 -112.833173 0.000000 -40.311312 -17.467319 0.000000 61.037463 69.118937 0.000000 -64.797357 -37.249820 0.000000 -62.916087 122.106851 0.000000 -80.479847 100.060250 0.000000 
-31.961056 115.781120 0.000000 -46.687813 90.104607 0.000000 -42.423278 -93.134946 0.000000 -22.865234 -2.521369 0.000000 11.799299 5.852175 0.000000 -10.409872 1.619162 0.000000 15.829144 40.509873 0.000000 -59.607700 3.477412 0.000000 78.825190 -40.125181 0.000000 -86.761250 -49.897610 0.000000 -60.909765 -162.796302 0.000000 -5.680259 -145.469040 0.000000 3.198725 3.152907 0.000000 -85.465686 37.631368 0.000000 -56.755327 6.309633 0.000000 -71.930321 -18.141271 0.000000 -65.861812 1.482281 0.000000 -13.988764 51.430459 0.000000 -35.145753 6.818499 0.000000 6.568231 -7.524020 0.000000 -19.663259 5.089002 0.000000 -2.684214 2.442421 0.000000 -36.592708 -6.607861 0.000000 2.980808 37.264251 0.000000 -22.225375 44.696662 0.000000 28.920070 26.852705 0.000000 -1.473390 49.834753 0.000000 -3.329033 7.254769 0.000000 33.047708 -9.865648 0.000000 14.368614 -59.758148 0.000000 -31.801579 28.228312 0.000000 -46.813850 43.055047 0.000000 -31.836726 25.125816 0.000000 -118.079020 66.232524 0.000000 -31.038409 -25.593222 0.000000 -30.978108 -63.804107 0.000000 20.062112 81.967252 0.000000 7.259977 18.626712 0.000000 13.984723 -113.283173 0.000000 75.308280 27.838106 0.000000 7.704122 98.432799 0.000000 -10.662863 -1.307799 0.000000 19.232610 -36.407778 0.000000 29.529428 -53.129323 0.000000 74.252929 5.016405 0.000000 -10.212285 48.069046 0.000000 54.970572 -39.757686 0.000000 16.686115 -86.546826 0.000000 -28.915351 29.136376 0.000000 11.840184 68.129348 0.000000 57.728381 -107.307892 0.000000 15.971830 60.177698 0.000000 -147.641381 -48.941853 0.000000 -83.945379 4.406389 0.000000 20.387217 22.159875 0.000000 -150.660958 -24.073654 0.000000 -38.889317 61.201041 0.000000 -74.790055 -104.969132 0.000000 -54.966475 -58.855379 0.000000 -21.956108 -53.546974 0.000000 -20.919792 -61.533020 0.000000 21.223319 9.320429 0.000000 -85.104223 102.570804 0.000000 -70.184757 75.948482 0.000000 
43.646477 -68.832681 0.000000 48.861731 41.960450 0.000000 49.073170 17.784627 0.000000 10.320853 23.804414 0.000000 18.977091 -4.250956 0.000000 6.260956 -4.315613 0.000000 27.529984 28.457037 0.000000 -25.308528 9.597129 0.000000 90.631884 -23.949374 0.000000 51.148097 -2.322735 0.000000 11.593354 -81.443424 0.000000 -48.586216 -122.931082 0.000000 -5.146919 38.340342 0.000000 -81.203622 48.720784 0.000000 -4.275737 -18.640391 0.000000 -39.263940 55.365875 0.000000 -47.792439 10.768456 0.000000 -57.186244 29.195596 0.000000 44.496870 -35.932670 0.000000 -9.458483 -30.746285 0.000000 29.597301 19.048102 0.000000 19.994695 56.752716 0.000000 -6.970949 47.031571 0.000000 -18.651164 6.682366 0.000000 -19.591260 -28.903094 0.000000 -28.547251 -42.476443 0.000000 13.941308 -28.932955 0.000000 6.327494 -42.217603 0.000000 -29.495142 49.119581 0.000000 -4.805599 69.537988 0.000000 -46.540180 37.104532 0.000000 -2.669537 12.286571 0.000000 0.367850 61.194847 0.000000 66.070365 48.889940 0.000000 24.864658 -51.087774 0.000000 25.106860 -36.546399 0.000000 27.664279 -49.579849 0.000000 55.056190 7.895105 0.000000 -16.060695 3.348474 0.000000 -48.995849 -20.591797 0.000000 10.946369 85.477114 0.000000 127.414292 -33.696605 0.000000 54.217842 -90.678874 0.000000 88.784840 6.405915 0.000000 -53.864592 -54.588978 0.000000 -6.119921 44.246059 0.000000 27.451689 38.627621 0.000000 22.552165 14.210334 0.000000 -20.127443 0.349458 0.000000 -52.628988 -112.091144 0.000000 -32.405986 -103.803568 0.000000 -70.752500 56.707309 0.000000 -12.468168 72.273841 0.000000 -167.937014 -80.165150 0.000000 -4.107970 58.777623 0.000000 -132.558974 34.807112 0.000000 19.134077 -30.394341 0.000000 114.406383 -34.777128 0.000000 -47.326666 -165.667119 0.000000 39.175920 -51.514001 0.000000 -34.583877 25.939509 0.000000 -47.234897 26.934611 0.000000 -53.468470 213.514927 0.000000 87.556446 46.917083 0.000000 
4.595278 154.475835 0.000000 -48.461695 84.677914 0.000000 -11.647419 -54.594069 0.000000 -4.581706 27.574711 0.000000 9.832763 9.912073 0.000000 2.952470 -6.933732 0.000000 10.878600 72.079358 0.000000 -2.598916 -59.624488 0.000000 1.470806 -116.581806 0.000000 28.467881 29.140920 0.000000 84.110944 -63.061989 0.000000 -39.694388 -128.728767 0.000000 7.142825 35.770313 0.000000 -25.144287 36.760186 0.000000 -8.201565 -35.630050 0.000000 9.410234 25.375432 0.000000 16.244734 19.404585 0.000000 20.476223 -40.858850 0.000000 27.977061 -40.909262 0.000000 13.542409 7.375549 0.000000 13.476421 -24.364176 0.000000 19.873108 39.010671 0.000000 19.732926 32.037998 0.000000 44.821978 49.884561 0.000000 -10.693052 54.592749 0.000000 -3.725182 -6.679862 0.000000 -39.310474 14.960009 0.000000 -31.070461 50.691219 0.000000 -102.523119 1.267444 0.000000 -2.226920 -42.713111 0.000000 10.289729 26.092250 0.000000 72.982191 -3.852983 0.000000 5.567953 -43.614086 0.000000 106.616170 41.735716 0.000000 25.462969 15.370283 0.000000 56.267760 -66.603728 0.000000 25.437844 52.017922 0.000000 -7.277810 62.351686 0.000000 54.776459 -9.231134 0.000000 -53.015863 0.831042 0.000000 -0.323769 -77.977342 0.000000 51.098384 -44.579272 0.000000 -5.537541 2.221674 0.000000 -44.074656 54.953110 0.000000 35.446402 99.921165 0.000000 -21.598621 -33.247235 0.000000 -11.386761 -68.429771 0.000000 23.827933 -38.967694 0.000000 -48.059392 104.317529 0.000000 -62.882000 80.407891 0.000000 -213.652569 -89.184380 0.000000 -89.307140 40.239879 0.000000 -95.188983 48.242661 0.000000 54.291539 -3.953809 0.000000 54.272341 -13.218165 0.000000 51.338295 -47.315701 0.000000 19.741930 -185.764316 0.000000 87.619009 -38.508389 0.000000 -9.895018 16.375084 0.000000 -16.949000 -66.289764 0.000000 -17.975965 24.877797 0.000000 131.181834 28.205023 0.000000 124.472988 -32.220539 0.000000 128.086357 -21.166466 0.000000 
-26.875117 107.715371 0.000000 31.626941 58.203147 0.000000 43.316402 -26.095362 0.000000 -12.539738 2.324232 0.000000 8.479221 -11.785131 0.000000 2.391089 -5.361450 0.000000 1.084394 34.008422 0.000000 74.143613 19.004923 0.000000 -15.610906 -55.016171 0.000000 9.531918 -84.962873 0.000000 38.280829 -13.281155 0.000000 -28.691525 -45.962962 0.000000 4.309305 23.790240 0.000000 -23.750913 64.065174 0.000000 19.856403 -53.194912 0.000000 18.210907 30.919576 0.000000 56.274470 -0.297533 0.000000 51.900054 17.463270 0.000000 18.460709 -28.998856 0.000000 47.239781 -16.245645 0.000000 -33.802627 12.717403 0.000000 -29.176186 50.496211 0.000000 -49.202172 22.082700 0.000000 -25.178974 37.108345 0.000000 -61.154407 19.644066 0.000000 -13.702507 -13.859022 0.000000 -76.010853 -1.587676 0.000000 2.493730 20.995042 0.000000 -43.529985 20.276040 0.000000 15.287633 -43.274860 0.000000 -32.146362 -38.104580 0.000000 -24.959790 17.008346 0.000000 -46.630079 27.560868 0.000000 -16.605973 28.994924 0.000000 28.543919 -0.739364 0.000000 -98.401484 -36.521274 0.000000 -15.567850 13.965721 0.000000 -35.600502 -21.443511 0.000000 32.529484 49.086527 0.000000 -36.363552 34.508431 0.000000 57.782865 -18.637132 0.000000 -146.190705 -28.482833 0.000000 -25.604241 4.494165 0.000000 -71.107945 -34.578028 0.000000 58.267184 -77.065012 0.000000 -15.404899 91.079223 0.000000 43.378258 -6.798934 0.000000 -58.828870 50.882965 0.000000 -124.528129 87.059391 0.000000 4.791777 53.502033 0.000000 10.992977 -77.378428 0.000000 -73.245931 -61.756278 0.000000 31.914305 -71.324838 0.000000 14.844599 -229.626473 0.000000 17.543301 61.730868 0.000000 46.663030 69.337523 0.000000 -77.471366 -66.675055 0.000000 49.183479 -5.140179 0.000000 -9.638370 -61.099110 0.000000 21.458381 -43.433055 0.000000 14.498685 -122.191325 0.000000 38.040740 -115.514342 0.000000 -61.086965 216.610404 0.000000 -38.730311 166.794794 0.000000 