# vtk DataFile Version 2.0
Comment goes here
ASCII

DATASET STRUCTURED_POINTS
FIELD FieldData 1
TIME 1 1 double
0.07400000
DIMENSIONS    64   64   1

ORIGIN    0.000   0.000   0.000
SPACING   0.03125 0.03125   1.000

POINT_DATA   4096
VECTORS u double

0.549863 -0.003413 0.000000 -1.774157 0.002653 0.000000 0.364182 0.003490 0.000000 -1.745565 -0.001200 0.000000 0.121881 -0.005807 0.000000 -1.709622 -0.005406 0.000000 0.384643 0.006972 0.000000 -1.587001 -0.004839 0.000000 0.485011 0.005892 0.000000 -1.489253 -0.006413 0.000000 0.499304 0.005575 0.000000 -1.386597 -0.007418 0.000000 0.455417 0.005414 0.000000 -1.263223 -0.008043 0.000000 0.362007 0.005641 0.000000 -1.106896 -0.008473 0.000000 0.216141 0.005831 0.000000 -0.904150 -0.008982 0.000000 0.017095 0.003637 0.000000 -0.658719 -0.008482 0.000000 -0.220146 0.003073 0.000000 -0.392068 -0.004006 0.000000 -0.468108 0.006530 0.000000 -0.132024 -0.002194 0.000000 -0.695682 0.011312 0.000000 0.092960 -0.006347 0.000000 -0.884830 0.006765 0.000000 0.280338 -0.005689 0.000000 -1.042026 0.005873 0.000000 0.442551 -0.004043 0.000000 -1.176072 0.008649 0.000000 0.582341 -0.004327 0.000000 -1.284510 0.009063 0.000000 0.691646 -0.005306 0.000000 -1.363151 0.006627 0.000000 0.771550 -0.004829 0.000000 -1.416745 0.004221 0.000000 0.825720 -0.001894 0.000000 -1.442281 0.004296 0.000000 0.843754 0.000737 0.000000 -1.427409 0.006807 0.000000 0.812889 0.000344 0.000000 -1.367981 0.003535 0.000000 0.738920 0.001589 0.000000 -1.276903 0.002242 0.000000 0.635315 0.004063 0.000000 -1.162433 0.003840 0.000000 0.498248 0.006549 0.000000 -1.015750 0.003044 0.000000 0.311349 0.006414 0.000000 -0.823084 0.000034 0.000000 0.063394 0.007075 0.000000 -0.579500 -0.002071 0.000000 -0.243213 0.006787 0.000000 -0.294488 -0.003533 0.000000 -0.592312 0.005933 0.000000 0.003151 -0.004205 0.000000 -0.954484 0.004967 0.000000 0.288873 -0.004436 0.000000 -1.314860 0.004205 0.000000 0.547174 -0.004571 0.000000 -1.655110 0.002874 0.000000 0.744084 -0.004124 0.000000 -1.930204 -0.001184 0.000000 
-0.201384 -0.095730 0.000000 0.171723 0.089956 0.000000 0.064911 -0.011670 0.000000 0.153069 0.115568 0.000000 0.382120 -0.005134 0.000000 0.135001 -0.136239 0.000000 -0.041963 -0.057998 0.000000 0.018176 -0.056113 0.000000 -0.257121 -0.043778 0.000000 -0.036613 -0.012655 0.000000 -0.378371 -0.045676 0.000000 -0.070960 0.016779 0.000000 -0.445878 -0.055803 0.000000 -0.105463 0.041671 0.000000 -0.475798 -0.072480 0.000000 -0.151970 0.068169 0.000000 -0.471181 -0.096214 0.000000 -0.222527 0.095760 0.000000 -0.432038 -0.116751 0.000000 -0.318624 0.115501 0.000000 -0.363918 -0.127590 0.000000 -0.431396 0.117095 0.000000 -0.282746 -0.126147 0.000000 -0.538471 0.104381 0.000000 -0.210129 -0.110559 0.000000 -0.621723 0.087753 0.000000 -0.154283 -0.087493 0.000000 -0.694637 0.070944 0.000000 -0.107593 -0.074382 0.000000 -0.762725 0.057698 0.000000 -0.068025 -0.064661 0.000000 -0.819942 0.044458 0.000000 -0.039813 -0.048991 0.000000 -0.862339 0.030482 0.000000 -0.024326 -0.033201 0.000000 -0.895417 0.019344 0.000000 -0.014968 -0.020824 0.000000 -0.922123 0.005585 0.000000 -0.013554 -0.005243 0.000000 -0.930601 -0.014550 0.000000 -0.029559 0.015298 0.000000 -0.910338 -0.034519 0.000000 -0.065899 0.036744 0.000000 -0.870775 -0.048381 0.000000 -0.112715 0.049570 0.000000 -0.817704 -0.059228 0.000000 -0.164641 0.062667 0.000000 -0.744811 -0.075360 0.000000 -0.225666 0.086927 0.000000 -0.643852 -0.096442 0.000000 -0.303473 0.118066 0.000000 -0.510706 -0.120642 0.000000 -0.399039 0.147712 0.000000 -0.345686 -0.139705 0.000000 -0.507271 0.169279 0.000000 -0.156877 -0.144678 0.000000 -0.610969 0.176071 0.000000 0.038204 -0.137937 0.000000 -0.694243 0.175583 0.000000 0.231413 -0.123983 0.000000 -0.743410 0.166009 0.000000 0.405288 -0.092498 0.000000 -0.723577 0.132968 0.000000 0.513254 0.105207 0.000000 
1.999563 0.338117 0.000000 0.532670 -0.263641 0.000000 1.620762 0.022144 0.000000 0.529771 -0.318410 0.000000 1.147104 0.012261 0.000000 0.516838 0.418677 0.000000 1.887261 0.123796 0.000000 0.641052 0.210319 0.000000 2.309020 0.060681 0.000000 0.644154 0.114837 0.000000 2.600996 0.039923 0.000000 0.593520 0.060089 0.000000 2.832777 0.039917 0.000000 0.516254 0.021877 0.000000 3.038948 0.052147 0.000000 0.418264 -0.013090 0.000000 3.241972 0.076388 0.000000 0.293295 -0.048125 0.000000 3.456789 0.099733 0.000000 0.144241 -0.076602 0.000000 3.680312 0.115845 0.000000 -0.008298 -0.085179 0.000000 3.889271 0.113605 0.000000 -0.154799 -0.074811 0.000000 4.064224 0.094564 0.000000 -0.282908 -0.062194 0.000000 4.204608 0.079680 0.000000 -0.374624 -0.052379 0.000000 4.323547 0.073960 0.000000 -0.442742 -0.043612 0.000000 4.422628 0.065866 0.000000 -0.498590 -0.032539 0.000000 4.497131 0.051460 0.000000 -0.532080 -0.020793 0.000000 4.550551 0.039705 0.000000 -0.544528 -0.014187 0.000000 4.591958 0.030928 0.000000 -0.541202 -0.003308 0.000000 4.609683 0.012774 0.000000 -0.519135 0.016741 0.000000 4.590817 -0.013457 0.000000 -0.475234 0.036684 0.000000 4.538788 -0.036028 0.000000 -0.406178 0.048405 0.000000 4.463303 -0.050829 0.000000 -0.328129 0.055990 0.000000 4.362506 -0.069053 0.000000 -0.244380 0.067573 0.000000 4.221548 -0.097915 0.000000 -0.141919 0.084221 0.000000 4.036537 -0.133113 0.000000 -0.009798 0.102642 0.000000 3.798086 -0.167090 0.000000 0.151567 0.115018 0.000000 3.505917 -0.192342 0.000000 0.330844 0.109632 0.000000 3.176946 -0.199286 0.000000 0.507501 0.088241 0.000000 2.822767 -0.197645 0.000000 0.674247 0.053371 0.000000 2.436772 -0.178446 0.000000 0.830551 -0.016960 0.000000 2.024916 -0.112089 0.000000 0.880998 -0.523378 0.000000 
4.161621 0.252598 0.000000 0.175123 0.468757 0.000000 3.164340 -0.008772 0.000000 -0.185633 0.589226 0.000000 1.653223 0.007799 0.000000 -0.182790 -0.876396 0.000000 3.719971 -0.182212 0.000000 0.007080 -0.477872 0.000000 4.724820 -0.046879 0.000000 0.074837 -0.304631 0.000000 5.359982 0.004958 0.000000 0.111463 -0.215001 0.000000 5.820021 0.021463 0.000000 0.146508 -0.164500 0.000000 6.175230 0.025509 0.000000 0.188922 -0.134856 0.000000 6.454388 0.028756 0.000000 0.245664 -0.119057 0.000000 6.669188 0.032303 0.000000 0.313272 -0.108022 0.000000 6.827534 0.024950 0.000000 0.387882 -0.091864 0.000000 6.946427 0.020355 0.000000 0.456568 -0.070573 0.000000 7.043165 0.017549 0.000000 0.507499 -0.052631 0.000000 7.122893 0.004223 0.000000 0.547139 -0.047995 0.000000 7.184821 -0.006265 0.000000 0.583119 -0.041383 0.000000 7.229513 -0.008812 0.000000 0.615112 -0.030045 0.000000 7.261106 -0.015502 0.000000 0.641179 -0.022937 0.000000 7.281825 -0.020754 0.000000 0.664585 -0.022064 0.000000 7.287964 -0.024149 0.000000 0.687391 -0.012140 0.000000 7.281705 -0.027310 0.000000 0.702690 0.004316 0.000000 7.267755 -0.028602 0.000000 0.705382 0.017511 0.000000 7.243795 -0.032313 0.000000 0.699220 0.027103 0.000000 7.201240 -0.028478 0.000000 0.691510 0.041569 0.000000 7.133015 -0.021083 0.000000 0.681823 0.065598 0.000000 7.036827 -0.015534 0.000000 0.664950 0.088568 0.000000 6.912792 -0.014055 0.000000 0.636936 0.117809 0.000000 6.761514 -0.013652 0.000000 0.596294 0.152463 0.000000 6.578075 -0.009998 0.000000 0.542749 0.184293 0.000000 6.346453 -0.000587 0.000000 0.479471 0.216242 0.000000 6.049521 0.008837 0.000000 0.396169 0.262012 0.000000 5.670412 0.009704 0.000000 0.282492 0.319357 0.000000 5.173345 0.082521 0.000000 0.132848 0.130560 0.000000 
4.326735 0.295842 0.000000 0.335825 0.733640 0.000000 3.500322 0.382900 0.000000 -0.040667 1.192707 0.000000 2.269044 0.009418 0.000000 -0.046734 -1.648071 0.000000 3.750935 -0.066074 0.000000 -0.085515 -0.794530 0.000000 4.710425 -0.007075 0.000000 -0.018444 -0.520325 0.000000 5.364391 0.003297 0.000000 0.056167 -0.399950 0.000000 5.845163 0.004872 0.000000 0.128029 -0.333332 0.000000 6.217706 0.009733 0.000000 0.198498 -0.292248 0.000000 6.515332 0.019647 0.000000 0.270278 -0.262925 0.000000 6.752719 0.032126 0.000000 0.341461 -0.234948 0.000000 6.934978 0.041235 0.000000 0.403076 -0.204072 0.000000 7.076138 0.044919 0.000000 0.458804 -0.171549 0.000000 7.188233 0.043633 0.000000 0.510927 -0.141921 0.000000 7.275666 0.040040 0.000000 0.548925 -0.114307 0.000000 7.335326 0.037980 0.000000 0.576653 -0.088303 0.000000 7.374179 0.033874 0.000000 0.602492 -0.064132 0.000000 7.399495 0.025393 0.000000 0.623662 -0.041512 0.000000 7.411471 0.016299 0.000000 0.641447 -0.020326 0.000000 7.406732 0.008122 0.000000 0.656579 0.002951 0.000000 7.391149 -0.002525 0.000000 0.668175 0.030691 0.000000 7.366874 -0.016148 0.000000 0.676251 0.060645 0.000000 7.327686 -0.029866 0.000000 0.675874 0.090960 0.000000 7.266853 -0.043118 0.000000 0.670506 0.124215 0.000000 7.182462 -0.059366 0.000000 0.662382 0.163761 0.000000 7.075360 -0.081042 0.000000 0.651354 0.208256 0.000000 6.938290 -0.105099 0.000000 0.635291 0.253921 0.000000 6.768327 -0.126448 0.000000 0.614131 0.298457 0.000000 6.562870 -0.138797 0.000000 0.589326 0.341254 0.000000 6.310477 -0.136008 0.000000 0.561236 0.385174 0.000000 5.996357 -0.114342 0.000000 0.521913 0.432480 0.000000 5.610444 -0.064769 0.000000 0.445913 0.480107 0.000000 5.140304 0.037554 0.000000 0.370821 0.488346 0.000000 
4.662562 0.287593 0.000000 0.120863 1.295170 0.000000 3.874531 0.367721 0.000000 0.008922 1.820504 0.000000 2.860845 0.013866 0.000000 -0.000654 -2.358286 0.000000 3.913229 -0.143431 0.000000 -0.029707 -1.437362 0.000000 4.847105 -0.113950 0.000000 0.021382 -0.958597 0.000000 5.505833 -0.069653 0.000000 0.078214 -0.695773 0.000000 5.980356 -0.050399 0.000000 0.134879 -0.537043 0.000000 6.340710 -0.044960 0.000000 0.195470 -0.432482 0.000000 6.623102 -0.043025 0.000000 0.263025 -0.356444 0.000000 6.845130 -0.038879 0.000000 0.333085 -0.290281 0.000000 7.011400 -0.036666 0.000000 0.402461 -0.233024 0.000000 7.136527 -0.035373 0.000000 0.466352 -0.182667 0.000000 7.232455 -0.034574 0.000000 0.520686 -0.140064 0.000000 7.304282 -0.033776 0.000000 0.565005 -0.107655 0.000000 7.355422 -0.033992 0.000000 0.603760 -0.080236 0.000000 7.388977 -0.034652 0.000000 0.638769 -0.055361 0.000000 7.407964 -0.036671 0.000000 0.669123 -0.034914 0.000000 7.415052 -0.038539 0.000000 0.695981 -0.017325 0.000000 7.411046 -0.039281 0.000000 0.720980 0.003444 0.000000 7.397185 -0.038906 0.000000 0.742003 0.028591 0.000000 7.374450 -0.036678 0.000000 0.755312 0.056699 0.000000 7.340199 -0.031936 0.000000 0.759049 0.087936 0.000000 7.288740 -0.023111 0.000000 0.752994 0.125961 0.000000 7.214575 -0.012959 0.000000 0.736361 0.172700 0.000000 7.113754 -0.004506 0.000000 0.708298 0.225639 0.000000 6.984823 0.002008 0.000000 0.668689 0.287772 0.000000 6.830236 0.007507 0.000000 0.618003 0.357919 0.000000 6.646806 0.014807 0.000000 0.556432 0.436687 0.000000 6.423620 0.027504 0.000000 0.484071 0.530362 0.000000 6.145533 0.048160 0.000000 0.397937 0.647925 0.000000 5.791829 0.085704 0.000000 0.292750 0.789497 0.000000 5.328439 0.157613 0.000000 0.171428 0.944129 0.000000 
4.880055 0.346407 0.000000 0.253689 1.521671 0.000000 4.256040 0.494842 0.000000 0.155745 2.206393 0.000000 3.431302 0.018994 0.000000 0.145626 -2.700454 0.000000 4.151819 -0.037021 0.000000 0.036980 -1.728407 0.000000 4.884249 -0.058164 0.000000 0.027076 -1.179052 0.000000 5.476364 -0.053535 0.000000 0.071379 -0.874474 0.000000 5.931134 -0.051793 0.000000 0.134542 -0.693686 0.000000 6.287379 -0.050858 0.000000 0.204741 -0.574640 0.000000 6.574388 -0.047909 0.000000 0.279410 -0.484952 0.000000 6.809829 -0.037934 0.000000 0.350447 -0.401219 0.000000 6.989003 -0.028142 0.000000 0.415474 -0.329198 0.000000 7.124806 -0.018972 0.000000 0.471674 -0.267477 0.000000 7.229052 -0.010701 0.000000 0.516742 -0.213748 0.000000 7.308190 -0.004279 0.000000 0.551809 -0.165447 0.000000 7.363843 -0.000775 0.000000 0.579368 -0.121859 0.000000 7.400185 -0.001135 0.000000 0.602582 -0.083119 0.000000 7.422508 -0.004961 0.000000 0.622371 -0.048599 0.000000 7.433106 -0.010559 0.000000 0.639637 -0.016320 0.000000 7.432176 -0.016877 0.000000 0.655173 0.016811 0.000000 7.421169 -0.023548 0.000000 0.668462 0.053426 0.000000 7.399533 -0.029457 0.000000 0.677789 0.094896 0.000000 7.363531 -0.033604 0.000000 0.680801 0.142419 0.000000 7.308756 -0.037063 0.000000 0.677305 0.198380 0.000000 7.232661 -0.042733 0.000000 0.667719 0.264583 0.000000 7.133453 -0.052979 0.000000 0.652573 0.337187 0.000000 7.007442 -0.065490 0.000000 0.631130 0.408507 0.000000 6.850049 -0.075762 0.000000 0.604180 0.481886 0.000000 6.660536 -0.077226 0.000000 0.572097 0.564440 0.000000 6.434550 -0.063647 0.000000 0.533699 0.663261 0.000000 6.163467 -0.028208 0.000000 0.484606 0.786184 0.000000 5.835317 0.040418 0.000000 0.419660 0.943497 0.000000 5.425964 0.158876 0.000000 0.339092 1.154223 0.000000 
5.224027 0.372996 0.000000 0.170907 1.919184 0.000000 4.668580 0.465665 0.000000 0.168958 2.645242 0.000000 3.977570 0.023984 0.000000 0.158942 -3.078803 0.000000 4.498915 -0.034784 0.000000 0.081866 -2.169792 0.000000 5.106380 -0.104047 0.000000 0.061978 -1.550712 0.000000 5.648590 -0.113957 0.000000 0.090612 -1.150543 0.000000 6.079685 -0.113562 0.000000 0.143039 -0.893287 0.000000 6.418933 -0.115158 0.000000 0.207709 -0.719491 0.000000 6.689526 -0.117695 0.000000 0.282762 -0.591884 0.000000 6.911996 -0.109916 0.000000 0.357273 -0.469455 0.000000 7.072789 -0.101693 0.000000 0.426850 -0.368828 0.000000 7.190106 -0.091574 0.000000 0.486408 -0.286913 0.000000 7.278228 -0.079642 0.000000 0.533931 -0.219203 0.000000 7.344086 -0.068842 0.000000 0.571834 -0.163308 0.000000 7.390797 -0.061552 0.000000 0.604169 -0.116578 0.000000 7.421132 -0.057866 0.000000 0.633572 -0.077684 0.000000 7.438431 -0.056460 0.000000 0.660647 -0.045512 0.000000 7.445802 -0.055805 0.000000 0.685736 -0.016395 0.000000 7.444728 -0.054817 0.000000 0.709100 0.014451 0.000000 7.435990 -0.052196 0.000000 0.729296 0.050228 0.000000 7.419371 -0.046005 0.000000 0.743220 0.092700 0.000000 7.391818 -0.034948 0.000000 0.747775 0.142712 0.000000 7.348579 -0.019615 0.000000 0.740444 0.202055 0.000000 7.284251 -0.003372 0.000000 0.719877 0.271908 0.000000 7.191578 0.010640 0.000000 0.687709 0.351650 0.000000 7.068032 0.023452 0.000000 0.643884 0.445166 0.000000 6.922834 0.034457 0.000000 0.591026 0.547432 0.000000 6.757636 0.046890 0.000000 0.530396 0.662672 0.000000 6.564801 0.065901 0.000000 0.462854 0.801445 0.000000 6.333092 0.097253 0.000000 0.388360 0.976076 0.000000 6.047361 0.150651 0.000000 0.307641 1.198849 0.000000 5.686834 0.238181 0.000000 0.227021 1.490039 0.000000 
5.492869 0.402521 0.000000 0.274797 2.077118 0.000000 5.061307 0.496791 0.000000 0.270717 2.897403 0.000000 4.503382 0.029009 0.000000 0.260786 -3.221799 0.000000 4.854062 0.040055 0.000000 0.162709 -2.335872 0.000000 5.282368 -0.038276 0.000000 0.100320 -1.721263 0.000000 5.718650 -0.082169 0.000000 0.102014 -1.305569 0.000000 6.099364 -0.104220 0.000000 0.147464 -1.032933 0.000000 6.415597 -0.115529 0.000000 0.216611 -0.845234 0.000000 6.677845 -0.122962 0.000000 0.299785 -0.707422 0.000000 6.913027 -0.112445 0.000000 0.380467 -0.562012 0.000000 7.079095 -0.097718 0.000000 0.449489 -0.446515 0.000000 7.199225 -0.078529 0.000000 0.502250 -0.355599 0.000000 7.289781 -0.058225 0.000000 0.539486 -0.279607 0.000000 7.357294 -0.042182 0.000000 0.566232 -0.212158 0.000000 7.404562 -0.033110 0.000000 0.587562 -0.152194 0.000000 7.435096 -0.030539 0.000000 0.606532 -0.100417 0.000000 7.453662 -0.032035 0.000000 0.623471 -0.055970 0.000000 7.463804 -0.035648 0.000000 0.638472 -0.015246 0.000000 7.466494 -0.040242 0.000000 0.652706 0.025549 0.000000 7.461782 -0.043744 0.000000 0.666664 0.070045 0.000000 7.447498 -0.043381 0.000000 0.678862 0.122449 0.000000 7.418954 -0.038159 0.000000 0.686084 0.185658 0.000000 7.372137 -0.029732 0.000000 0.684627 0.262708 0.000000 7.305083 -0.022166 0.000000 0.672513 0.357256 0.000000 7.216686 -0.020810 0.000000 0.652371 0.460734 0.000000 7.105480 -0.021665 0.000000 0.622877 0.553706 0.000000 6.964000 -0.022905 0.000000 0.585486 0.647084 0.000000 6.797367 -0.016597 0.000000 0.541876 0.757275 0.000000 6.609587 0.003895 0.000000 0.494398 0.894970 0.000000 6.397197 0.046286 0.000000 0.443602 1.071915 0.000000 6.150395 0.121137 0.000000 0.388000 1.304025 0.000000 5.854440 0.239496 0.000000 0.327189 1.617030 0.000000 
5.826610 0.425388 0.000000 0.231721 2.350746 0.000000 5.460603 0.469745 0.000000 0.270939 3.203167 0.000000 5.005122 0.033915 0.000000 0.261664 -3.429482 0.000000 5.247684 0.063294 0.000000 0.181488 -2.598099 0.000000 5.572846 -0.041658 0.000000 0.120218 -1.986995 0.000000 5.937440 -0.115650 0.000000 0.111040 -1.531257 0.000000 6.277047 -0.159012 0.000000 0.149102 -1.209521 0.000000 6.568253 -0.184305 0.000000 0.220524 -0.981739 0.000000 6.806163 -0.200869 0.000000 0.311929 -0.827066 0.000000 7.036256 -0.190598 0.000000 0.406993 -0.635522 0.000000 7.176736 -0.170715 0.000000 0.478667 -0.488959 0.000000 7.271771 -0.144334 0.000000 0.528045 -0.377469 0.000000 7.344683 -0.116878 0.000000 0.561847 -0.286715 0.000000 7.400825 -0.095588 0.000000 0.586854 -0.210576 0.000000 7.440384 -0.082881 0.000000 0.609205 -0.147111 0.000000 7.465169 -0.076836 0.000000 0.632191 -0.096250 0.000000 7.479135 -0.073399 0.000000 0.655369 -0.055654 0.000000 7.486356 -0.070806 0.000000 0.677559 -0.019085 0.000000 7.488311 -0.069052 0.000000 0.698997 0.019163 0.000000 7.485900 -0.066153 0.000000 0.719210 0.064512 0.000000 7.478831 -0.058203 0.000000 0.735370 0.121244 0.000000 7.462307 -0.042170 0.000000 0.743285 0.189529 0.000000 7.431044 -0.018158 0.000000 0.737759 0.269110 0.000000 7.380060 0.008743 0.000000 0.715049 0.360305 0.000000 7.294985 0.030781 0.000000 0.679873 0.462856 0.000000 7.171045 0.052946 0.000000 0.625517 0.586646 0.000000 7.034183 0.071848 0.000000 0.563327 0.714065 0.000000 6.894210 0.090501 0.000000 0.497834 0.850453 0.000000 6.743153 0.113379 0.000000 0.432054 1.013834 0.000000 6.572452 0.148049 0.000000 0.368339 1.222878 0.000000 6.370950 0.206252 0.000000 0.308456 1.494804 0.000000 6.126098 0.298992 0.000000 0.257089 1.851610 0.000000 
6.104140 0.427890 0.000000 0.310735 2.443125 0.000000 5.834848 0.457572 0.000000 0.351106 3.352884 0.000000 5.487063 0.038284 0.000000 0.342458 -3.464361 0.000000 5.617261 0.120231 0.000000 0.252392 -2.661034 0.000000 5.815595 0.022995 0.000000 0.159714 -2.085857 0.000000 6.079404 -0.072991 0.000000 0.114593 -1.645176 0.000000 6.358586 -0.142282 0.000000 0.134085 -1.324139 0.000000 6.614990 -0.186951 0.000000 0.219198 -1.083144 0.000000 6.824599 -0.214367 0.000000 0.332098 -0.937515 0.000000 7.083837 -0.207509 0.000000 0.454676 -0.702492 0.000000 7.215177 -0.169392 0.000000 0.522587 -0.541550 0.000000 7.301142 -0.127908 0.000000 0.557266 -0.428510 0.000000 7.370484 -0.092026 0.000000 0.575789 -0.335749 0.000000 7.422955 -0.067189 0.000000 0.587342 -0.251716 0.000000 7.458679 -0.055461 0.000000 0.598848 -0.176980 0.000000 7.480457 -0.053524 0.000000 0.613150 -0.114384 0.000000 7.493729 -0.055214 0.000000 0.627579 -0.063191 0.000000 7.503173 -0.057838 0.000000 0.639175 -0.017201 0.000000 7.509552 -0.061680 0.000000 0.649425 0.027959 0.000000 7.513661 -0.063957 0.000000 0.661489 0.077114 0.000000 7.512153 -0.059541 0.000000 0.676877 0.138972 0.000000 7.496163 -0.046074 0.000000 0.692597 0.216921 0.000000 7.459267 -0.024206 0.000000 0.700656 0.313692 0.000000 7.399529 0.000544 0.000000 0.690066 0.442331 0.000000 7.321660 0.014365 0.000000 0.665288 0.584673 0.000000 7.226696 0.032692 0.000000 0.626886 0.690568 0.000000 7.096591 0.039285 0.000000 0.569620 0.787058 0.000000 6.949235 0.048896 0.000000 0.504136 0.908331 0.000000 6.804468 0.069675 0.000000 0.446387 1.065672 0.000000 6.659892 0.110001 0.000000 0.399545 1.273417 0.000000 6.502622 0.181020 0.000000 0.359664 1.548876 0.000000 6.320529 0.290862 0.000000 0.325518 1.916518 0.000000 
6.417969 0.440171 0.000000 0.284568 2.620038 0.000000 6.206596 0.429374 0.000000 0.348176 3.550952 0.000000 5.944972 0.042563 0.000000 0.340557 -3.559680 0.000000 6.002167 0.153360 0.000000 0.262895 -2.796432 0.000000 6.127734 0.051020 0.000000 0.169807 -2.250803 0.000000 6.324500 -0.070530 0.000000 0.101127 -1.810440 0.000000 6.560153 -0.178503 0.000000 0.089158 -1.465925 0.000000 6.797917 -0.269418 0.000000 0.190324 -1.191347 0.000000 6.961539 -0.313769 0.000000 0.362465 -1.086304 0.000000 7.251491 -0.313175 0.000000 0.536197 -0.766863 0.000000 7.324361 -0.238627 0.000000 0.577598 -0.574923 0.000000 7.371976 -0.179013 0.000000 0.590927 -0.446811 0.000000 7.425316 -0.135401 0.000000 0.599359 -0.339186 0.000000 7.470647 -0.107142 0.000000 0.604553 -0.246301 0.000000 7.501095 -0.094388 0.000000 0.613323 -0.168889 0.000000 7.518370 -0.091138 0.000000 0.630360 -0.109521 0.000000 7.527936 -0.087827 0.000000 0.651958 -0.065099 0.000000 7.534698 -0.082402 0.000000 0.672494 -0.025464 0.000000 7.538743 -0.079302 0.000000 0.691277 0.015054 0.000000 7.543336 -0.078217 0.000000 0.709047 0.066020 0.000000 7.551250 -0.073591 0.000000 0.726048 0.137234 0.000000 7.552602 -0.057890 0.000000 0.740813 0.226425 0.000000 7.538865 -0.026217 0.000000 0.746138 0.328848 0.000000 7.508666 0.019332 0.000000 0.731194 0.438174 0.000000 7.427757 0.055559 0.000000 0.709311 0.557821 0.000000 7.280996 0.091348 0.000000 0.620594 0.716751 0.000000 7.139903 0.129114 0.000000 0.533159 0.861420 0.000000 7.030203 0.155984 0.000000 0.454156 0.995220 0.000000 6.930635 0.171128 0.000000 0.388509 1.158410 0.000000 6.831053 0.194892 0.000000 0.338765 1.380148 0.000000 6.718525 0.246132 0.000000 0.302046 1.676897 0.000000 6.583012 0.333138 0.000000 0.279068 2.067999 0.000000 
6.685666 0.422390 0.000000 0.348501 2.654498 0.000000 6.551650 0.393964 0.000000 0.418812 3.614508 0.000000 6.383557 0.045903 0.000000 0.412395 -3.521555 0.000000 6.348789 0.197893 0.000000 0.338517 -2.786601 0.000000 6.379112 0.116082 0.000000 0.222103 -2.282624 0.000000 6.490593 -0.004311 0.000000 0.089262 -1.880828 0.000000 6.675743 -0.130313 0.000000 -0.015036 -1.561903 0.000000 6.896772 -0.288117 0.000000 0.082203 -1.246766 0.000000 7.001293 -0.386507 0.000000 0.427285 -1.227467 0.000000 7.388061 -0.381242 0.000000 0.674280 -0.775361 0.000000 7.387850 -0.210793 0.000000 0.651817 -0.589166 0.000000 7.410722 -0.141236 0.000000 0.625619 -0.481850 0.000000 7.462824 -0.100458 0.000000 0.613625 -0.381080 0.000000 7.500613 -0.072383 0.000000 0.605167 -0.282164 0.000000 7.522462 -0.064231 0.000000 0.605603 -0.194255 0.000000 7.533151 -0.070561 0.000000 0.618685 -0.123950 0.000000 7.540580 -0.076812 0.000000 0.636065 -0.069952 0.000000 7.548969 -0.078373 0.000000 0.646551 -0.021246 0.000000 7.556230 -0.080463 0.000000 0.648507 0.023366 0.000000 7.570660 -0.081726 0.000000 0.647955 0.069200 0.000000 7.591099 -0.076542 0.000000 0.659509 0.137621 0.000000 7.598296 -0.060839 0.000000 0.685418 0.230657 0.000000 7.579462 -0.029531 0.000000 0.721809 0.343891 0.000000 7.521648 0.015489 0.000000 0.744483 0.523240 0.000000 7.445378 0.036248 0.000000 0.715770 0.731434 0.000000 7.367539 0.121409 0.000000 0.677434 0.831662 0.000000 7.222867 0.126720 0.000000 0.553042 0.896758 0.000000 7.080509 0.127899 0.000000 0.439343 1.007899 0.000000 6.990682 0.135322 0.000000 0.377448 1.165254 0.000000 6.926928 0.159746 0.000000 0.348600 1.385944 0.000000 6.861388 0.217739 0.000000 0.333940 1.684389 0.000000 6.782732 0.313840 0.000000 0.329115 2.081561 0.000000 
6.975519 0.420785 0.000000 0.333525 2.754054 0.000000 6.890884 0.359063 0.000000 0.417967 3.719045 0.000000 6.798064 0.048980 0.000000 0.412989 -3.524913 0.000000 6.707945 0.227238 0.000000 0.366177 -2.826755 0.000000 6.685292 0.167434 0.000000 0.272508 -2.362284 0.000000 6.733609 0.062311 0.000000 0.118019 -1.995590 0.000000 6.862872 -0.074205 0.000000 -0.125036 -1.686954 0.000000 7.097928 -0.366657 0.000000 -0.184224 -1.295868 0.000000 7.180968 -0.658851 0.000000 0.569236 -1.473073 0.000000 7.658486 -0.560170 0.000000 0.873368 -0.766652 0.000000 7.458734 -0.216164 0.000000 0.670786 -0.597795 0.000000 7.455863 -0.152815 0.000000 0.630377 -0.498913 0.000000 7.512897 -0.123407 0.000000 0.623738 -0.376975 0.000000 7.550260 -0.098684 0.000000 0.611809 -0.268149 0.000000 7.567646 -0.094824 0.000000 0.603128 -0.179578 0.000000 7.576285 -0.104220 0.000000 0.618374 -0.116950 0.000000 7.583607 -0.105208 0.000000 0.648932 -0.073488 0.000000 7.591270 -0.092887 0.000000 0.676505 -0.032725 0.000000 7.591616 -0.081259 0.000000 0.694987 0.000623 0.000000 7.597885 -0.077664 0.000000 0.698915 0.045582 0.000000 7.629342 -0.085145 0.000000 0.700992 0.130037 0.000000 7.662251 -0.083798 0.000000 0.715586 0.245258 0.000000 7.679335 -0.062609 0.000000 0.741248 0.386662 0.000000 7.698130 -0.003341 0.000000 0.777400 0.514444 0.000000 7.622270 0.084272 0.000000 0.899624 0.635660 0.000000 7.359149 0.129684 0.000000 0.626245 0.861423 0.000000 7.190371 0.253506 0.000000 0.479757 1.003779 0.000000 7.133215 0.269684 0.000000 0.372402 1.085046 0.000000 7.108791 0.233023 0.000000 0.317091 1.222164 0.000000 7.095007 0.223740 0.000000 0.297431 1.445689 0.000000 7.070553 0.260793 0.000000 0.292225 1.755552 0.000000 7.030797 0.337963 0.000000 0.298691 2.165066 0.000000 
7.224268 0.387556 0.000000 0.387900 2.739133 0.000000 7.202513 0.309522 0.000000 0.480889 3.707328 0.000000 7.193658 0.050881 0.000000 0.477538 -3.431436 0.000000 7.023736 0.244705 0.000000 0.463104 -2.763949 0.000000 6.916294 0.209752 0.000000 0.402821 -2.330940 0.000000 6.871070 0.150177 0.000000 0.239153 -2.010091 0.000000 6.931524 0.112742 0.000000 -0.126010 -1.796960 0.000000 7.137750 -0.228929 0.000000 -0.390031 -1.329806 0.000000 7.265138 -1.139967 0.000000 0.481062 -1.704986 0.000000 7.802874 -0.685373 0.000000 0.903438 -0.575609 0.000000 7.413853 -0.008211 0.000000 0.530564 -0.586296 0.000000 7.450863 -0.100828 0.000000 0.503822 -0.538884 0.000000 7.545659 -0.093819 0.000000 0.525252 -0.418443 0.000000 7.571702 -0.060454 0.000000 0.543664 -0.299551 0.000000 7.574491 -0.055551 0.000000 0.560224 -0.202894 0.000000 7.572264 -0.085806 0.000000 0.597601 -0.131272 0.000000 7.579397 -0.107371 0.000000 0.639682 -0.077615 0.000000 7.590638 -0.105946 0.000000 0.665411 -0.021592 0.000000 7.586979 -0.098946 0.000000 0.662955 0.017098 0.000000 7.606044 -0.085654 0.000000 0.617400 0.037742 0.000000 7.666372 -0.078619 0.000000 0.604794 0.104712 0.000000 7.714403 -0.075433 0.000000 0.623882 0.213573 0.000000 7.744073 -0.055193 0.000000 0.642807 0.325096 0.000000 7.726022 -0.020664 0.000000 0.813979 0.599100 0.000000 7.611850 -0.085976 0.000000 0.874345 0.994555 0.000000 7.519925 0.394788 0.000000 0.777546 1.000439 0.000000 7.246703 0.273208 0.000000 0.424678 0.953915 0.000000 7.142813 0.235254 0.000000 0.282097 1.032323 0.000000 7.166133 0.190632 0.000000 0.274493 1.179037 0.000000 7.200563 0.179406 0.000000 0.294285 1.410398 0.000000 7.218403 0.222946 0.000000 0.313996 1.724144 0.000000 7.225167 0.307374 0.000000 0.338008 2.136840 0.000000 
7.487171 0.370892 0.000000 0.381848 2.775809 0.000000 7.507539 0.266074 0.000000 0.475776 3.727900 0.000000 7.564960 0.052331 0.000000 0.473624 -3.354991 0.000000 7.352999 0.241672 0.000000 0.487857 -2.719313 0.000000 7.209583 0.227717 0.000000 0.500368 -2.317059 0.000000 7.121875 0.225979 0.000000 0.511601 -2.056043 0.000000 7.072775 0.290958 0.000000 0.498929 -1.893180 0.000000 7.004965 -0.102635 0.000000 0.238756 -1.423256 0.000000 7.100300 -1.529945 0.000000 -0.194911 -2.010809 0.000000 6.746175 -0.982546 0.000000 -0.713932 -0.377631 0.000000 6.872677 0.156710 0.000000 -0.522229 -0.634805 0.000000 7.061685 -0.126073 0.000000 -0.317023 -0.593709 0.000000 7.171300 -0.144837 0.000000 -0.165758 -0.403018 0.000000 7.242435 -0.117096 0.000000 -0.013997 -0.270939 0.000000 7.275954 -0.111383 0.000000 0.112646 -0.177351 0.000000 7.303478 -0.141597 0.000000 0.237029 -0.124083 0.000000 7.333413 -0.147288 0.000000 0.350861 -0.084730 0.000000 7.365965 -0.118616 0.000000 0.430763 -0.029066 0.000000 7.383318 -0.078803 0.000000 0.484468 -0.018441 0.000000 7.410191 -0.032108 0.000000 0.491776 -0.014746 0.000000 7.489143 -0.072540 0.000000 0.526948 0.082006 0.000000 7.564799 -0.102887 0.000000 0.622337 0.215588 0.000000 7.620192 -0.081534 0.000000 0.722857 0.404712 0.000000 7.718311 -0.174513 0.000000 1.144908 0.628616 0.000000 7.680989 0.023907 0.000000 2.076422 0.727585 0.000000 7.551001 0.226483 0.000000 1.163626 1.134645 0.000000 7.169488 0.606374 0.000000 0.314924 1.107669 0.000000 7.186722 0.412264 0.000000 0.163110 1.061725 0.000000 7.305355 0.240627 0.000000 0.212290 1.187735 0.000000 7.381955 0.203949 0.000000 0.260534 1.427849 0.000000 7.424214 0.241081 0.000000 0.290805 1.748788 0.000000 7.456516 0.313951 0.000000 0.322236 2.165964 0.000000 