# vtk DataFile Version 2.0
Comment goes here
ASCII

DATASET STRUCTURED_POINTS
FIELD FieldData 1
TIME 1 1 double
0.08400000
DIMENSIONS    256   32   1

ORIGIN    0.000   0.000   0.000
SPACING   0.0078125 0.0078125   1.000

POINT_DATA   8192
VECTORS u double

-0.024107 -0.000000 0.000000 -0.068010 0.000001 0.000000 -0.132402 0.000003 0.000000 -0.213624 0.000005 0.000000 -0.316683 0.000008 0.000000 -0.413722 0.000011 0.000000 -0.481034 0.000015 0.000000 -0.447029 0.000002 0.000000 -0.497122 0.000005 0.000000 -0.477139 -0.000004 0.000000 -0.543534 -0.000006 0.000000 -0.596010 -0.000008 0.000000 -0.626856 -0.000012 0.000000 -0.766288 -0.000014 0.000000 -0.813474 -0.000032 0.000000 -0.721553 -0.000065 0.000000 -0.898772 -0.000058 0.000000 -0.840434 -0.000070 0.000000 -0.844455 -0.000098 0.000000 -0.919749 -0.000050 0.000000 -0.584312 -0.000013 0.000000 -0.675868 -0.000127 0.000000 -0.663895 -0.000055 0.000000 -0.333878 -0.000113 0.000000 -0.568350 -0.000169 0.000000 -0.360874 -0.000128 0.000000 -0.362732 -0.000203 0.000000 -0.478023 -0.000134 0.000000 -0.234006 -0.000152 0.000000 -0.478576 -0.000169 0.000000 -0.258912 -0.000106 0.000000 -0.339598 -0.000139 0.000000 -0.369148 -0.000102 0.000000 -0.194493 -0.000051 0.000000 -0.399565 -0.000065 0.000000 -0.197788 0.000014 0.000000 -0.305479 0.000039 0.000000 -0.289552 0.000008 0.000000 -0.154564 0.000158 0.000000 -0.335030 0.000054 0.000000 -0.141237 0.000159 0.000000 -0.270640 0.000197 0.000000 -0.214403 0.000056 0.000000 -0.126514 0.000331 0.000000 -0.269928 0.000136 0.000000 -0.097840 0.000279 0.000000 -0.228975 0.000341 0.000000 -0.152027 0.000089 0.000000 -0.101979 0.000497 0.000000 -0.211954 0.000165 0.000000 -0.061087 0.000427 0.000000 -0.189709 0.000442 0.000000 -0.097434 0.000184 0.000000 -0.086505 0.000611 0.000000 -0.158501 0.000128 0.000000 -0.034734 0.000477 0.000000 -0.152202 0.000280 0.000000 -0.055218 -0.000139 0.000000 -0.076747 0.000173 0.000000 -0.112549 -0.000490 0.000000 -0.010761 -0.000063 0.000000 -0.118346 -0.001149 0.000000 -0.016650 -0.005444 0.000000 -0.055331 -0.001136 0.000000 -0.064207 0.007851 0.000000 0.003682 0.003371 0.000000 -0.084968 -0.001480 0.000000 0.009361 0.000688 0.000000 -0.047396 0.000995 0.000000 -0.033165 0.001481 0.000000 0.020004 0.000645 0.000000 -0.056171 0.000285 0.000000 0.029537 0.000480 0.000000 -0.031658 0.000100 0.000000 -0.001496 0.000314 0.000000 0.030670 0.000238 0.000000 -0.027565 0.000136 0.000000 0.047121 0.000337 0.000000 -0.012112 0.000278 0.000000 0.025598 0.000284 0.000000 0.040235 0.000491 0.000000 -0.002446 0.000216 0.000000 0.061942 0.000492 0.000000 0.004813 0.000319 0.000000 0.048467 0.000238 0.000000 0.044636 0.000460 0.000000 0.020434 -0.000010 0.000000 0.072044 0.000311 0.000000 0.021511 0.000009 0.000000 0.065555 -0.000233 0.000000 0.050544 -0.000056 0.000000 0.040742 -0.000812 0.000000 0.083228 -0.000341 0.000000 0.037486 -0.000889 0.000000 0.082825 -0.002749 0.000000 0.063210 -0.000772 0.000000 0.063518 0.003191 0.000000 0.089875 0.002317 0.000000 0.053412 0.000441 0.000000 0.092362 0.000887 0.000000 0.068026 0.000940 0.000000 0.074792 0.001287 0.000000 0.095149 0.000532 0.000000 0.064728 0.000313 0.000000 0.099626 0.000274 0.000000 0.074367 -0.000118 0.000000 0.087398 0.000138 0.000000 0.098539 -0.000173 0.000000 0.076851 -0.000139 0.000000 0.105752 -0.000093 0.000000 0.083374 -0.000228 0.000000 0.098003 -0.000077 0.000000 0.103179 -0.000124 0.000000 0.087728 -0.000150 0.000000 0.113208 0.000003 0.000000 0.091934 -0.000150 0.000000 0.109277 -0.000035 0.000000 0.107154 -0.000052 0.000000 0.099624 -0.000246 0.000000 0.119755 -0.000048 0.000000 0.101630 -0.000327 0.000000 0.118089 -0.000387 0.000000 0.113466 -0.000416 0.000000 0.109199 -0.000974 0.000000 0.127038 -0.000579 0.000000 0.109033 -0.000942 0.000000 0.126624 -0.001780 0.000000 0.119888 -0.001386 0.000000 0.119851 0.000685 0.000000 0.130457 0.001846 0.000000 0.114765 0.001174 0.000000 0.128514 0.000880 0.000000 0.120126 0.000795 0.000000 0.119913 0.001143 0.000000 0.129089 0.000471 0.000000 0.115737 0.000355 0.000000 0.129137 0.000280 0.000000 0.119832 -0.000067 0.000000 0.123228 0.000188 0.000000 0.128624 -0.000108 0.000000 0.119412 -0.000043 0.000000 0.130441 -0.000008 0.000000 0.123094 -0.000117 0.000000 0.126717 0.000015 0.000000 0.130884 -0.000014 0.000000 0.123074 -0.000046 0.000000 0.134470 0.000108 0.000000 0.126513 -0.000045 0.000000 0.132295 0.000061 0.000000 0.133474 0.000037 0.000000 0.128870 -0.000165 0.000000 0.138179 0.000034 0.000000 0.131751 -0.000266 0.000000 0.136841 -0.000312 0.000000 0.137992 -0.000387 0.000000 0.133526 -0.000949 0.000000 0.143720 -0.000586 0.000000 0.135660 -0.000956 0.000000 0.142976 -0.001671 0.000000 0.142709 -0.001525 0.000000 0.140967 0.000120 0.000000 0.147289 0.001529 0.000000 0.139173 0.001296 0.000000 0.144203 0.000866 0.000000 0.142112 0.000740 0.000000 0.139072 0.001088 0.000000 0.145390 0.000408 0.000000 0.137097 0.000384 0.000000 0.144024 0.000241 0.000000 0.139271 -0.000049 0.000000 0.139834 0.000186 0.000000 0.143319 -0.000124 0.000000 0.136694 -0.000007 0.000000 0.143281 -0.000016 0.000000 0.138349 -0.000111 0.000000 0.139578 0.000017 0.000000 0.142404 -0.000040 0.000000 0.135407 -0.000047 0.000000 0.143641 0.000083 0.000000 0.136608 -0.000069 0.000000 0.140480 0.000053 0.000000 0.140562 -0.000005 0.000000 0.135996 -0.000165 0.000000 0.142870 0.000018 0.000000 0.136895 -0.000293 0.000000 0.140360 -0.000301 0.000000 0.140905 -0.000430 0.000000 0.136290 -0.000941 0.000000 0.144497 -0.000595 0.000000 0.137333 -0.001030 0.000000 0.142921 -0.001630 0.000000 0.142963 -0.001604 0.000000 0.141029 -0.000153 0.000000 0.146185 0.001417 0.000000 0.139482 0.001323 0.000000 0.142382 0.000805 0.000000 0.142090 0.000729 0.000000 0.138053 0.001018 0.000000 0.143898 0.000314 0.000000 0.137315 0.000411 0.000000 0.141796 0.000161 0.000000 0.140090 -0.000044 0.000000 0.138690 0.000157 0.000000 0.142943 -0.000184 0.000000 0.137594 0.000035 0.000000 0.141645 -0.000091 0.000000 0.140592 -0.000112 0.000000 0.138784 -0.000011 0.000000 0.143710 -0.000131 0.000000 0.137133 0.000007 0.000000 0.143005 -0.000052 0.000000 0.140092 -0.000043 0.000000 0.140157 0.000012 0.000000 0.143236 -0.000062 0.000000 0.138036 0.000019 0.000000 0.143081 -0.000036 0.000000 0.140695 -0.000031 0.000000 0.140194 -0.000017 0.000000 0.143761 -0.000058 0.000000 0.137751 -0.000025 0.000000 0.144302 -0.000050 0.000000 0.139848 -0.000037 0.000000 0.141476 -0.000027 0.000000 0.142836 -0.000030 0.000000 0.138804 -0.000005 0.000000 0.144112 -0.000018 0.000000 0.139992 -0.000007 0.000000 0.141505 -0.000007 0.000000 0.143027 -0.000012 0.000000 0.138826 -0.000007 0.000000 0.145082 -0.000011 0.000000 0.138808 -0.000004 0.000000 0.142766 -0.000009 0.000000 0.141909 -0.000006 0.000000 0.139868 -0.000006 0.000000 0.144339 -0.000009 0.000000 0.138794 -0.000005 0.000000 0.142609 -0.000007 0.000000 0.141808 -0.000001 0.000000 0.139519 0.000002 0.000000 0.144378 0.000009 0.000000 0.137651 0.000016 0.000000 0.143244 0.000019 0.000000 0.140394 0.000023 0.000000 0.140118 0.000024 0.000000 0.143019 0.000018 0.000000 0.136712 0.000017 0.000000 0.141694 0.000011 0.000000 0.139728 0.000000 0.000000 0.143449 -0.000001 0.000000 0.139478 -0.000011 0.000000 0.110575 -0.000012 0.000000 0.083351 -0.000008 0.000000 0.059767 -0.000007 0.000000 0.035850 -0.000003 0.000000 0.010811 -0.000002 0.000000 
-0.006163 0.039410 0.000000 -0.050194 0.054148 0.000000 -0.107439 0.072809 0.000000 -0.192181 0.092145 0.000000 -0.290900 0.100057 0.000000 -0.399583 0.082189 0.000000 -0.447435 0.016670 0.000000 -0.419675 0.008047 0.000000 -0.459536 0.015060 0.000000 -0.456571 0.023207 0.000000 -0.514915 0.059431 0.000000 -0.601124 0.041661 0.000000 -0.593802 0.085141 0.000000 -0.874836 0.093317 0.000000 -0.882958 -0.022369 0.000000 -0.777128 0.042622 0.000000 -0.928796 0.059423 0.000000 -0.843853 -0.027197 0.000000 -0.846234 0.039561 0.000000 -0.908563 -0.130105 0.000000 -0.617512 -0.121961 0.000000 -0.592272 0.039641 0.000000 -0.672750 -0.171061 0.000000 -0.285983 -0.047906 0.000000 -0.559112 0.013298 0.000000 -0.298881 -0.102960 0.000000 -0.343396 0.058346 0.000000 -0.440931 -0.064510 0.000000 -0.198665 0.000113 0.000000 -0.447993 0.012264 0.000000 -0.220122 -0.069601 0.000000 -0.311169 0.054960 0.000000 -0.347787 -0.072667 0.000000 -0.157073 0.015147 0.000000 -0.381468 0.001567 0.000000 -0.162107 -0.047034 0.000000 -0.287660 0.045911 0.000000 -0.269451 -0.075461 0.000000 -0.125823 0.022901 0.000000 -0.321483 -0.006628 0.000000 -0.112944 -0.032035 0.000000 -0.257845 0.036778 0.000000 -0.196633 -0.072027 0.000000 -0.104016 0.028114 0.000000 -0.260480 -0.014219 0.000000 -0.075644 -0.020189 0.000000 -0.219673 0.027444 0.000000 -0.137004 -0.063431 0.000000 -0.084126 0.030499 0.000000 -0.206698 -0.020300 0.000000 -0.042667 -0.010677 0.000000 -0.184368 0.018643 0.000000 -0.083269 -0.051414 0.000000 -0.074641 0.031228 0.000000 -0.154547 -0.025733 0.000000 -0.021199 -0.002565 0.000000 -0.148256 0.010646 0.000000 -0.044366 -0.037758 0.000000 -0.069054 0.029067 0.000000 -0.111334 -0.033278 0.000000 0.000343 0.003428 0.000000 -0.120333 0.002169 0.000000 -0.007979 -0.038004 0.000000 -0.047793 0.022150 0.000000 -0.061886 -0.019961 0.000000 0.005883 0.014577 0.000000 -0.087145 -0.005238 0.000000 0.016659 -0.018590 0.000000 -0.046221 0.022241 0.000000 -0.033248 -0.032213 0.000000 0.026309 0.012027 0.000000 -0.058881 -0.004647 0.000000 0.034655 -0.011846 0.000000 -0.033778 0.015523 0.000000 -0.000442 -0.030904 0.000000 0.033780 0.013254 0.000000 -0.030354 -0.008137 0.000000 0.049337 -0.007390 0.000000 -0.014604 0.011025 0.000000 0.024998 -0.025901 0.000000 0.041953 0.014539 0.000000 -0.007401 -0.010652 0.000000 0.063633 -0.003105 0.000000 0.000034 0.007070 0.000000 0.048293 -0.019660 0.000000 0.042614 0.014553 0.000000 0.015876 -0.013694 0.000000 0.071323 -0.000113 0.000000 0.016821 0.003364 0.000000 0.063244 -0.014619 0.000000 0.047131 0.012578 0.000000 0.034435 -0.017003 0.000000 0.082097 0.001680 0.000000 0.029391 -0.000407 0.000000 0.080117 -0.016009 0.000000 0.059049 0.008743 0.000000 0.057963 -0.009419 0.000000 0.083792 0.007727 0.000000 0.045755 -0.001149 0.000000 0.088106 -0.006710 0.000000 0.062159 0.009629 0.000000 0.068098 -0.012286 0.000000 0.091564 0.005440 0.000000 0.056918 -0.002059 0.000000 0.095617 -0.004626 0.000000 0.066851 0.005901 0.000000 0.082102 -0.011981 0.000000 0.093068 0.005056 0.000000 0.069936 -0.003789 0.000000 0.100024 -0.003367 0.000000 0.076576 0.003612 0.000000 0.091389 -0.009986 0.000000 0.097727 0.005005 0.000000 0.079444 -0.005174 0.000000 0.108014 -0.002083 0.000000 0.083655 0.001816 0.000000 0.103456 -0.007616 0.000000 0.099415 0.004819 0.000000 0.092257 -0.006516 0.000000 0.112914 -0.000948 0.000000 0.093899 0.000603 0.000000 0.110627 -0.006158 0.000000 0.105789 0.004223 0.000000 0.100303 -0.007619 0.000000 0.120477 -0.000189 0.000000 0.098994 -0.000430 0.000000 0.119220 -0.007255 0.000000 0.110757 0.001831 0.000000 0.111716 -0.004430 0.000000 0.121207 0.004657 0.000000 0.105288 0.002096 0.000000 0.119784 -0.002040 0.000000 0.111732 0.004960 0.000000 0.110843 -0.003357 0.000000 0.121519 0.002439 0.000000 0.106284 0.000219 0.000000 0.121718 -0.001839 0.000000 0.110451 0.002801 0.000000 0.115630 -0.004233 0.000000 0.119843 0.001760 0.000000 0.111175 -0.000987 0.000000 0.121803 -0.001855 0.000000 0.114814 0.001717 0.000000 0.117930 -0.003881 0.000000 0.122825 0.001805 0.000000 0.113689 -0.001845 0.000000 0.126752 -0.001589 0.000000 0.116957 0.001048 0.000000 0.124428 -0.003385 0.000000 0.123858 0.001799 0.000000 0.120499 -0.002484 0.000000 0.129027 -0.001300 0.000000 0.122978 0.000501 0.000000 0.127517 -0.003280 0.000000 0.128925 0.001465 0.000000 0.123662 -0.003670 0.000000 0.135094 -0.001365 0.000000 0.124837 -0.000298 0.000000 0.133969 -0.005176 0.000000 0.132304 -0.000654 0.000000 0.131719 -0.002135 0.000000 0.136544 0.002599 0.000000 0.129301 0.002864 0.000000 0.134006 -0.000801 0.000000 0.132859 0.003154 0.000000 0.129186 -0.000580 0.000000 0.136389 0.001272 0.000000 0.127134 0.000967 0.000000 0.135453 -0.000916 0.000000 0.129218 0.001965 0.000000 0.131505 -0.001859 0.000000 0.133380 0.001404 0.000000 0.128033 -0.000016 0.000000 0.133750 -0.000849 0.000000 0.129463 0.001715 0.000000 0.130185 -0.002008 0.000000 0.133497 0.002041 0.000000 0.125678 -0.000669 0.000000 0.135233 -0.000495 0.000000 0.126553 0.001518 0.000000 0.132147 -0.001888 0.000000 0.130370 0.002282 0.000000 0.127365 -0.001282 0.000000 0.133188 -0.000324 0.000000 0.127766 0.001060 0.000000 0.130676 -0.002147 0.000000 0.131478 0.001794 0.000000 0.126235 -0.002587 0.000000 0.135431 -0.000824 0.000000 0.126321 0.000042 0.000000 0.133566 -0.004401 0.000000 0.132200 -0.000792 0.000000 0.131616 -0.001777 0.000000 0.135246 0.002354 0.000000 0.129541 0.003276 0.000000 0.131840 -0.000689 0.000000 0.132799 0.002755 0.000000 0.127918 0.000081 0.000000 0.134625 0.000556 0.000000 0.127376 0.001380 0.000000 0.132874 -0.001296 0.000000 0.130104 0.001438 0.000000 0.130055 -0.001284 0.000000 0.132827 0.000320 0.000000 0.128996 0.000675 0.000000 0.131698 -0.001595 0.000000 0.131812 0.001302 0.000000 0.129030 -0.001564 0.000000 0.134762 0.000684 0.000000 0.127452 0.000368 0.000000 0.134152 -0.001529 0.000000 0.130222 0.001381 0.000000 0.131461 -0.001552 0.000000 0.133182 0.000995 0.000000 0.129474 0.000105 0.000000 0.133042 -0.001363 0.000000 0.131957 0.001413 0.000000 0.130316 -0.001545 0.000000 0.134840 0.001161 0.000000 0.128066 -0.000293 0.000000 0.135347 -0.001098 0.000000 0.130034 0.001376 0.000000 0.132694 -0.001520 0.000000 0.132854 0.001307 0.000000 0.130222 -0.000638 0.000000 0.134010 -0.000611 0.000000 0.131342 0.001299 0.000000 0.131561 -0.001523 0.000000 0.134214 0.001328 0.000000 0.129101 -0.001033 0.000000 0.136139 -0.000001 0.000000 0.129118 0.001155 0.000000 0.133954 -0.001559 0.000000 0.132053 0.001444 0.000000 0.131273 -0.001220 0.000000 0.134319 0.000527 0.000000 0.130334 0.000860 0.000000 0.132690 -0.001514 0.000000 0.133223 0.001543 0.000000 0.129818 -0.001284 0.000000 0.135669 0.000943 0.000000 0.128154 0.000584 0.000000 0.134641 -0.001353 0.000000 0.130809 0.001587 0.000000 0.131855 -0.001287 0.000000 0.133391 0.001721 0.000000 0.129000 0.000680 0.000000 0.132387 -0.001496 0.000000 0.132576 -0.000878 0.000000 0.135358 0.000124 0.000000 0.135446 0.016425 0.000000 0.108863 0.028050 0.000000 0.087856 0.025396 0.000000 0.066170 0.023745 0.000000 0.047618 0.024475 0.000000 0.022853 0.029977 0.000000 
0.001132 0.073046 0.000000 -0.030009 0.101277 0.000000 -0.078801 0.141990 0.000000 -0.144384 0.183465 0.000000 -0.235322 0.207411 0.000000 -0.331556 0.156547 0.000000 -0.340988 0.020107 0.000000 -0.272532 0.012102 0.000000 -0.314500 0.036900 0.000000 -0.231312 0.055376 0.000000 -0.254019 0.144547 0.000000 -0.177470 0.078878 0.000000 -0.025713 0.273700 0.000000 -0.051670 0.289142 0.000000 -0.025381 -0.097740 0.000000 0.142486 0.045773 0.000000 0.088373 0.066667 0.000000 0.102235 -0.082632 0.000000 0.193309 0.064612 0.000000 -0.089139 -0.228773 0.000000 0.042043 -0.316304 0.000000 -0.061053 0.055111 0.000000 -0.325371 -0.306344 0.000000 -0.116231 -0.113751 0.000000 -0.399191 0.012728 0.000000 -0.187716 -0.215844 0.000000 -0.211969 0.141847 0.000000 -0.368781 -0.144866 0.000000 -0.089519 0.006911 0.000000 -0.386080 0.021289 0.000000 -0.127847 -0.136930 0.000000 -0.247966 0.127525 0.000000 -0.293521 -0.154198 0.000000 -0.081787 0.033631 0.000000 -0.335994 0.004970 0.000000 -0.094787 -0.093795 0.000000 -0.248207 0.107382 0.000000 -0.231667 -0.161829 0.000000 -0.069323 0.052190 0.000000 -0.294613 -0.012825 0.000000 -0.063443 -0.063479 0.000000 -0.237844 0.083885 0.000000 -0.169535 -0.153773 0.000000 -0.065754 0.064179 0.000000 -0.249567 -0.028237 0.000000 -0.042762 -0.040528 0.000000 -0.216693 0.061701 0.000000 -0.119696 -0.135459 0.000000 -0.065481 0.070192 0.000000 -0.208709 -0.041294 0.000000 -0.025953 -0.021904 0.000000 -0.193150 0.041044 0.000000 -0.075951 -0.109543 0.000000 -0.071767 0.071889 0.000000 -0.167475 -0.053314 0.000000 -0.015195 -0.005814 0.000000 -0.166801 0.023447 0.000000 -0.044027 -0.079341 0.000000 -0.082791 0.067141 0.000000 -0.130962 -0.069887 0.000000 -0.007887 0.008936 0.000000 -0.151156 0.007173 0.000000 -0.022355 -0.077983 0.000000 -0.075925 0.052771 0.000000 -0.097588 -0.045825 0.000000 -0.023249 0.028631 0.000000 -0.128129 -0.012256 0.000000 -0.002950 -0.040237 0.000000 -0.085628 0.050901 0.000000 -0.064318 -0.071048 0.000000 -0.000539 0.026278 0.000000 -0.099211 -0.008061 0.000000 0.007338 -0.024623 0.000000 -0.077265 0.035197 0.000000 -0.035230 -0.067244 0.000000 -0.000087 0.030150 0.000000 -0.076839 -0.015421 0.000000 0.015682 -0.015412 0.000000 -0.065317 0.024618 0.000000 -0.013084 -0.056273 0.000000 -0.001876 0.032890 0.000000 -0.057066 -0.021464 0.000000 0.022425 -0.006943 0.000000 -0.053878 0.015659 0.000000 0.004942 -0.042342 0.000000 -0.007990 0.032877 0.000000 -0.037723 -0.028720 0.000000 0.025650 -0.000634 0.000000 -0.041773 0.008088 0.000000 0.016331 -0.030543 0.000000 -0.011917 0.028752 0.000000 -0.021047 -0.035778 0.000000 0.027938 0.004704 0.000000 -0.034787 0.001091 0.000000 0.024599 -0.032407 0.000000 -0.007737 0.021381 0.000000 -0.009044 -0.021552 0.000000 0.017614 0.014525 0.000000 -0.023791 -0.003873 0.000000 0.029665 -0.015517 0.000000 -0.007645 0.020948 0.000000 0.007912 -0.028118 0.000000 0.028449 0.011711 0.000000 -0.008721 -0.003740 0.000000 0.034757 -0.009660 0.000000 -0.001679 0.013397 0.000000 0.020445 -0.026079 0.000000 0.027704 0.011993 0.000000 0.002123 -0.007094 0.000000 0.036901 -0.006733 0.000000 0.005387 0.008407 0.000000 0.028520 -0.021228 0.000000 0.027208 0.011820 0.000000 0.011775 -0.010437 0.000000 0.040400 -0.004208 0.000000 0.012342 0.004409 0.000000 0.036976 -0.015795 0.000000 0.026545 0.011147 0.000000 0.022986 -0.013744 0.000000 0.043359 -0.001690 0.000000 0.020047 0.001960 0.000000 0.042638 -0.012276 0.000000 0.028696 0.009909 0.000000 0.030476 -0.015662 0.000000 0.045148 0.000730 0.000000 0.022504 0.000315 0.000000 0.045417 -0.013543 0.000000 0.028009 0.006118 0.000000 0.031501 -0.009765 0.000000 0.039027 0.008274 0.000000 0.025563 0.002597 0.000000 0.044536 -0.005563 0.000000 0.030419 0.009737 0.000000 0.038755 -0.008644 0.000000 0.043145 0.005030 0.000000 0.031685 0.000155 0.000000 0.046894 -0.003887 0.000000 0.032852 0.006021 0.000000 0.043026 -0.009204 0.000000 0.041895 0.004347 0.000000 0.035983 -0.002003 0.000000 0.046584 -0.003648 0.000000 0.036301 0.003756 0.000000 0.044982 -0.007996 0.000000 0.042257 0.004226 0.000000 0.039805 -0.003973 0.000000 0.048576 -0.003160 0.000000 0.039467 0.002279 0.000000 0.048818 -0.006840 0.000000 0.043309 0.003966 0.000000 0.045470 -0.005334 0.000000 0.050081 -0.002445 0.000000 0.043991 0.001243 0.000000 0.051269 -0.006260 0.000000 0.045861 0.003468 0.000000 0.048371 -0.007117 0.000000 0.051515 -0.001760 0.000000 0.044123 0.000169 0.000000 0.052422 -0.009138 0.000000 0.044824 0.000724 0.000000 0.046789 -0.004119 0.000000 0.047093 0.003947 0.000000 0.046041 0.003834 0.000000 0.052179 -0.002692 0.000000 0.047541 0.005560 0.000000 0.052460 -0.002441 0.000000 0.051828 0.002460 0.000000 0.049583 0.001319 0.000000 0.054983 -0.001842 0.000000 0.048215 0.003899 0.000000 0.054716 -0.003976 0.000000 0.050459 0.003348 0.000000 0.050536 -0.000378 0.000000 0.054088 -0.001446 0.000000 0.048132 0.003455 0.000000 0.053998 -0.004017 0.000000 0.049414 0.004467 0.000000 0.049973 -0.001783 0.000000 0.053893 -0.000792 0.000000 0.046930 0.003017 0.000000 0.054319 -0.003764 0.000000 0.047616 0.004777 0.000000 0.050926 -0.002983 0.000000 0.052254 -0.000382 0.000000 0.047392 0.002219 0.000000 0.053002 -0.004013 0.000000 0.047321 0.004011 0.000000 0.049856 -0.004894 0.000000 0.050745 -0.000681 0.000000 0.044963 0.000835 0.000000 0.050941 -0.007509 0.000000 0.044195 0.000346 0.000000 0.045704 -0.003198 0.000000 0.045444 0.003492 0.000000 0.046129 0.004729 0.000000 0.048990 -0.002453 0.000000 0.047787 0.004652 0.000000 0.050027 -0.000809 0.000000 0.049633 0.000856 0.000000 0.049906 0.002162 0.000000 0.051238 -0.002567 0.000000 0.049545 0.002775 0.000000 0.051823 -0.002565 0.000000 0.049668 0.000874 0.000000 0.051508 0.001163 0.000000 0.050503 -0.002906 0.000000 0.050826 0.002556 0.000000 0.051125 -0.002962 0.000000 0.050524 0.001446 0.000000 0.051324 0.000617 0.000000 0.050893 -0.002821 0.000000 0.050797 0.002648 0.000000 0.051637 -0.002949 0.000000 0.050359 0.001926 0.000000 0.052310 0.000159 0.000000 0.050276 -0.002520 0.000000 0.052071 0.002695 0.000000 0.051012 -0.002900 0.000000 0.051544 0.002192 0.000000 0.051918 -0.000532 0.000000 0.051016 -0.002018 0.000000 0.051940 0.002616 0.000000 0.051575 -0.002847 0.000000 0.051329 0.002442 0.000000 0.052493 -0.001161 0.000000 0.050506 -0.001138 0.000000 0.052835 0.002442 0.000000 0.050770 -0.002880 0.000000 0.052266 0.002449 0.000000 0.051668 -0.001931 0.000000 0.051335 -0.000027 0.000000 0.052412 0.002180 0.000000 0.051217 -0.002944 0.000000 0.051907 0.002675 0.000000 0.052063 -0.002272 0.000000 0.050937 0.000930 0.000000 0.053000 0.001624 0.000000 0.050453 -0.002896 0.000000 0.052614 0.002871 0.000000 0.051233 -0.002445 0.000000 0.051676 0.001673 0.000000 0.052348 0.001044 0.000000 0.050900 -0.002636 0.000000 0.052215 0.002810 0.000000 0.051539 -0.002559 0.000000 0.051442 0.002873 0.000000 0.052832 0.001022 0.000000 0.050683 -0.003566 0.000000 0.052565 -0.002972 0.000000 0.051147 -0.002870 0.000000 0.055102 0.026484 0.000000 0.060465 0.047578 0.000000 0.057925 0.042685 0.000000 0.052665 0.040231 0.000000 0.040668 0.043314 0.000000 0.025740 0.053778 0.000000 
0.042201 0.095159 0.000000 0.026782 0.134082 0.000000 0.010047 0.187185 0.000000 -0.012912 0.248666 0.000000 -0.037254 0.287228 0.000000 -0.074166 0.187855 0.000000 -0.041897 -0.042354 0.000000 -0.012352 -0.018440 0.000000 -0.024849 -0.026160 0.000000 0.016207 -0.037275 0.000000 0.050541 0.005589 0.000000 0.114902 -0.186645 0.000000 0.191597 -0.040658 0.000000 0.208120 0.092985 0.000000 0.234850 -0.216525 0.000000 0.113701 -0.071132 0.000000 0.279886 0.099674 0.000000 0.179178 -0.132133 0.000000 0.202215 0.230934 0.000000 0.245246 0.021162 0.000000 -0.026354 -0.150047 0.000000 0.306803 0.407054 0.000000 0.077273 -0.115884 0.000000 0.117166 0.025914 0.000000 -0.036106 0.084783 0.000000 0.016081 -0.290182 0.000000 0.011795 0.239412 0.000000 -0.052849 -0.186959 0.000000 0.024166 0.017411 0.000000 -0.064730 0.050591 0.000000 0.005907 -0.207715 0.000000 -0.031733 0.220635 0.000000 -0.054956 -0.238846 0.000000 0.007842 0.057619 0.000000 -0.063390 0.014567 0.000000 0.003337 -0.134820 0.000000 -0.045619 0.182791 0.000000 -0.048271 -0.254345 0.000000 0.002170 0.085848 0.000000 -0.062604 -0.012508 0.000000 0.004229 -0.088803 0.000000 -0.053452 0.142870 0.000000 -0.034739 -0.244117 0.000000 -0.005130 0.108146 0.000000 -0.056892 -0.037211 0.000000 -0.000038 -0.053064 0.000000 -0.055013 0.104377 0.000000 -0.027442 -0.214643 0.000000 -0.011960 0.119512 0.000000 -0.055692 -0.059827 0.000000 -0.001574 -0.026237 0.000000 -0.057262 0.068641 0.000000 -0.017669 -0.172797 0.000000 -0.022187 0.122752 0.000000 -0.048230 -0.082305 0.000000 -0.004509 -0.003240 0.000000 -0.051760 0.039478 0.000000 -0.012454 -0.121768 0.000000 -0.028960 0.116002 0.000000 -0.043803 -0.108182 0.000000 -0.007952 0.023623 0.000000 -0.054946 0.016636 0.000000 -0.012035 -0.113235 0.000000 -0.041713 0.097383 0.000000 -0.044751 -0.072637 0.000000 -0.025625 0.045119 0.000000 -0.053728 -0.025537 0.000000 -0.013639 -0.061091 0.000000 -0.043386 0.083609 0.000000 -0.031760 -0.117302 0.000000 -0.015533 0.046921 0.000000 -0.045302 -0.012525 0.000000 -0.010062 -0.033792 0.000000 -0.043415 0.058091 0.000000 -0.022858 -0.108082 0.000000 -0.020381 0.054863 0.000000 -0.039694 -0.023906 0.000000 -0.013297 -0.018912 0.000000 -0.041626 0.039791 0.000000 -0.020655 -0.089342 0.000000 -0.023645 0.058522 0.000000 -0.037742 -0.034952 0.000000 -0.013264 -0.006293 0.000000 -0.041743 0.024552 0.000000 -0.016159 -0.065548 0.000000 -0.030237 0.057218 0.000000 -0.031724 -0.047334 0.000000 -0.017253 0.003938 0.000000 -0.038058 0.012684 0.000000 -0.017217 -0.044476 0.000000 -0.032961 0.049956 0.000000 -0.030227 -0.056858 0.000000 -0.020079 0.015419 0.000000 -0.040740 0.002932 0.000000 -0.017607 -0.043059 0.000000 -0.040563 0.042386 0.000000 -0.033056 -0.034770 0.000000 -0.032454 0.022474 0.000000 -0.038329 -0.013201 0.000000 -0.021191 -0.022857 0.000000 -0.037696 0.031383 0.000000 -0.024363 -0.048380 0.000000 -0.024671 0.022073 0.000000 -0.032988 -0.008367 0.000000 -0.018102 -0.011668 0.000000 -0.035753 0.020213 0.000000 -0.019180 -0.041364 0.000000 -0.027916 0.023378 0.000000 -0.028251 -0.012986 0.000000 -0.021120 -0.006632 0.000000 -0.032445 0.011992 0.000000 -0.020040 -0.031806 0.000000 -0.028653 0.021750 0.000000 -0.027168 -0.018366 0.000000 -0.021135 -0.002649 0.000000 -0.032346 0.005240 0.000000 -0.018167 -0.021819 0.000000 -0.032196 0.018809 0.000000 -0.022365 -0.023330 0.000000 -0.024618 0.001990 0.000000 -0.029001 0.001323 0.000000 -0.020489 -0.014807 0.000000 -0.031735 0.016385 0.000000 -0.022971 -0.024071 0.000000 -0.026447 0.007782 0.000000 -0.031698 -0.000700 0.000000 -0.020695 -0.012759 0.000000 -0.038516 0.015747 0.000000 -0.028933 -0.015449 0.000000 -0.035402 0.010595 0.000000 -0.029123 -0.003413 0.000000 -0.025163 -0.006896 0.000000 -0.033336 0.010742 0.000000 -0.021445 -0.016084 0.000000 -0.028497 0.009509 0.000000 -0.026103 -0.003530 0.000000 -0.021908 -0.003005 0.000000 -0.030864 0.006670 0.000000 -0.018243 -0.013276 0.000000 -0.030587 0.008803 0.000000 -0.022246 -0.005675 0.000000 -0.024969 -0.002173 0.000000 -0.027513 0.003319 0.000000 -0.020738 -0.009837 0.000000 -0.029819 0.006983 0.000000 -0.022055 -0.008164 0.000000 -0.024785 -0.001252 0.000000 -0.027709 0.000806 0.000000 -0.019724 -0.007227 0.000000 -0.031609 0.005147 0.000000 -0.018606 -0.009256 0.000000 -0.027957 0.000180 0.000000 -0.024649 -0.000688 0.000000 -0.022519 -0.005150 0.000000 -0.030070 0.004362 0.000000 -0.020459 -0.009324 0.000000 -0.029296 0.002884 0.000000 -0.027465 -0.001205 0.000000 -0.023422 -0.005878 0.000000 -0.036557 0.004979 0.000000 -0.026771 -0.004404 0.000000 -0.037527 0.003347 0.000000 -0.025326 -0.002222 0.000000 -0.027134 -0.002301 0.000000 -0.030850 0.002873 0.000000 -0.020469 -0.004866 0.000000 -0.030131 0.004149 0.000000 -0.022644 -0.002188 0.000000 -0.023662 0.000452 0.000000 -0.028531 0.002232 0.000000 -0.018038 -0.004104 0.000000 -0.031537 0.005584 0.000000 -0.019237 -0.003645 0.000000 -0.026339 0.001555 0.000000 -0.025582 0.001805 0.000000 -0.020753 -0.003291 0.000000 -0.029941 0.006066 0.000000 -0.019899 -0.005148 0.000000 -0.025807 0.002548 0.000000 -0.026278 0.001091 0.000000 -0.019938 -0.002574 0.000000 -0.031287 0.005676 0.000000 -0.017492 -0.005920 0.000000 -0.028791 0.003210 0.000000 -0.023612 0.000312 0.000000 -0.023103 -0.002076 0.000000 -0.029452 0.004940 0.000000 -0.020287 -0.006011 0.000000 -0.030026 0.004069 0.000000 -0.026511 -0.000154 0.000000 -0.024605 -0.003633 0.000000 -0.035912 0.004444 0.000000 -0.027466 -0.003026 0.000000 -0.037851 0.001929 0.000000 -0.024246 -0.000270 0.000000 -0.028687 -0.002347 0.000000 -0.029471 0.001718 0.000000 -0.021778 -0.001765 0.000000 -0.030560 0.000677 0.000000 -0.021551 -0.000224 0.000000 -0.025532 -0.000936 0.000000 -0.026966 0.000853 0.000000 -0.019857 -0.001407 0.000000 -0.031444 0.000635 0.000000 -0.018295 -0.000160 0.000000 -0.028485 -0.000914 0.000000 -0.024017 0.000679 0.000000 -0.022858 -0.001261 0.000000 -0.029505 0.000486 0.000000 -0.019575 -0.000001 0.000000 -0.028194 -0.001002 0.000000 -0.024845 0.000637 0.000000 -0.022308 -0.001114 0.000000 -0.030541 0.000322 0.000000 -0.017588 0.000188 0.000000 -0.030732 -0.001124 0.000000 -0.021814 0.000677 0.000000 -0.024880 -0.001018 0.000000 -0.027531 0.000255 0.000000 -0.019438 0.000235 0.000000 -0.029550 -0.001119 0.000000 -0.022367 0.000818 0.000000 -0.024257 -0.000909 0.000000 -0.028140 0.000389 0.000000 -0.018476 0.000185 0.000000 -0.031669 -0.000954 0.000000 -0.019454 0.001034 0.000000 -0.027330 -0.000954 0.000000 -0.025230 0.000430 0.000000 -0.021667 -0.000102 0.000000 -0.030193 -0.000744 0.000000 -0.020205 0.001273 0.000000 -0.027036 -0.001054 0.000000 -0.025906 0.000597 0.000000 -0.021094 -0.000250 0.000000 -0.031448 -0.000409 0.000000 -0.017748 0.001343 0.000000 -0.029899 -0.001129 0.000000 -0.023073 0.000764 0.000000 -0.023785 -0.000345 0.000000 -0.028794 -0.000172 0.000000 -0.018994 0.001360 0.000000 -0.028671 -0.001220 0.000000 -0.023447 0.000948 0.000000 -0.022905 -0.000514 0.000000 -0.029142 0.000428 0.000000 -0.015927 0.001439 0.000000 -0.029410 -0.001230 0.000000 -0.022404 -0.001341 0.000000 -0.034046 -0.002412 0.000000 -0.024921 0.007107 0.000000 0.018216 0.025227 0.000000 0.044149 0.033196 0.000000 0.055693 0.041002 0.000000 0.057948 0.051400 0.000000 0.051682 0.069513 0.000000 