# vtk DataFile Version 2.0
Comment goes here
ASCII

DATASET STRUCTURED_POINTS
FIELD FieldData 1
TIME 1 1 double
0.04700000
DIMENSIONS    256   256   1

ORIGIN    0.000   0.000   0.000
SPACING   0.0078125 0.0078125   1.000

POINT_DATA   65536
VECTORS u double

-9.426798 -22.990386 0.000000 11.112513 -18.162206 0.000000 4.525734 -19.943441 0.000000 2.244079 -19.249806 0.000000 -4.790454 -26.377918 0.000000 12.352803 -4.966593 0.000000 -6.945994 -5.701763 0.000000 5.678733 -40.871437 0.000000 -11.021654 -26.275320 0.000000 -10.231360 -42.878808 0.000000 -10.386506 -47.721426 0.000000 4.323616 -15.503778 0.000000 -8.077138 -45.484758 0.000000 -0.989160 -29.775888 0.000000 -35.789862 -20.149612 0.000000 4.315937 7.188997 0.000000 -39.183819 16.968410 0.000000 -2.770837 -0.363463 0.000000 -31.247362 -29.866583 0.000000 -17.347778 9.701706 0.000000 -50.719525 15.750961 0.000000 -13.370014 -9.954639 0.000000 -48.981963 -4.857753 0.000000 -7.880673 18.121654 0.000000 7.168256 5.640052 0.000000 36.636743 -27.268368 0.000000 -12.704182 11.582564 0.000000 -10.963991 -10.678195 0.000000 37.998649 -19.321814 0.000000 -3.724855 -2.474030 0.000000 7.484216 -10.990069 0.000000 -35.005136 -8.577842 0.000000 18.415305 -34.387904 0.000000 -21.852693 -45.720531 0.000000 39.566845 -32.679146 0.000000 29.798620 -4.337488 0.000000 51.616928 -33.457187 0.000000 24.886078 -1.331864 0.000000 13.024635 6.485452 0.000000 -6.776747 -62.601793 0.000000 64.644735 -31.897352 0.000000 31.839150 -32.223026 0.000000 27.247563 -14.303969 0.000000 18.004249 -8.065771 0.000000 46.535251 -31.002007 0.000000 40.402125 -18.938730 0.000000 -0.975093 -30.505458 0.000000 27.092594 29.052917 0.000000 37.404565 22.991075 0.000000 36.153844 -26.207850 0.000000 -5.102177 -7.355845 0.000000 1.476121 4.091330 0.000000 -8.339559 16.114508 0.000000 9.456701 2.159644 0.000000 -14.236941 2.425580 0.000000 18.709185 19.923855 0.000000 44.718721 8.557512 0.000000 -24.743887 3.370173 0.000000 32.422141 -1.876189 0.000000 19.455340 4.230943 0.000000 -27.391424 13.427854 0.000000 15.848827 8.763974 0.000000 -30.250911 5.074397 0.000000 -17.815059 13.636199 0.000000 4.349618 0.256726 0.000000 -9.915511 -9.476564 0.000000 -10.689926 10.577863 0.000000 -0.062036 -5.422150 0.000000 6.686051 -4.954899 0.000000 2.585353 4.242275 0.000000 23.899241 7.610849 0.000000 -10.109772 2.098899 0.000000 -2.357769 1.403169 0.000000 -11.549779 3.435548 0.000000 11.139844 16.356952 0.000000 3.976288 9.408020 0.000000 3.868912 2.358838 0.000000 0.974269 6.411817 0.000000 -2.575644 -10.760080 0.000000 -6.190828 -12.007958 0.000000 1.360651 3.059649 0.000000 -5.239060 -0.946175 0.000000 0.363058 7.016758 0.000000 -0.386377 1.834364 0.000000 0.725250 -1.409712 0.000000 3.535947 14.642874 0.000000 4.667305 1.755411 0.000000 -0.149044 3.296677 0.000000 -10.169748 -11.628209 0.000000 -8.316127 -0.939231 0.000000 -0.350446 -0.188163 0.000000 -14.142664 -5.306087 0.000000 4.385022 6.711647 0.000000 -3.141072 16.208770 0.000000 2.456643 6.368164 0.000000 2.084807 2.586384 0.000000 -0.348906 -2.169926 0.000000 8.884020 -10.022830 0.000000 -5.992753 -13.093477 0.000000 -11.878236 0.975066 0.000000 2.274371 15.516605 0.000000 -5.986673 -14.475094 0.000000 2.823412 -0.406648 0.000000 4.642761 2.444968 0.000000 0.135046 -0.675532 0.000000 0.466357 -3.831356 0.000000 18.796601 -10.041515 0.000000 9.318199 -0.950111 0.000000 -3.009650 -6.354863 0.000000 14.886974 5.372602 0.000000 12.890299 -5.975972 0.000000 24.417406 -10.966114 0.000000 28.684152 2.601202 0.000000 28.684302 -3.009342 0.000000 37.628770 -11.467454 0.000000 36.866806 -14.319034 0.000000 26.073643 -11.596925 0.000000 10.551611 -3.064221 0.000000 -4.750934 -8.522939 0.000000 -7.701768 -14.303164 0.000000 -9.243866 -14.060909 0.000000 -4.365596 -16.829426 0.000000 2.651773 -3.809028 0.000000 -4.407382 10.294218 0.000000 -3.707360 4.211070 0.000000 12.362845 1.714755 0.000000 -13.476761 -3.073400 0.000000 10.534646 -13.228104 0.000000 2.716680 1.809358 0.000000 20.128327 -2.993421 0.000000 -8.575814 -2.983831 0.000000 13.666567 3.105742 0.000000 5.756488 10.222110 0.000000 8.743104 2.308690 0.000000 14.162782 -5.439627 0.000000 -11.519339 27.753049 0.000000 -4.955530 -7.187070 0.000000 0.179638 -0.676626 0.000000 16.010882 22.549405 0.000000 -9.200504 -3.295966 0.000000 4.178314 -12.619290 0.000000 0.618946 -8.936573 0.000000 -3.527128 6.205921 0.000000 9.800774 -10.881708 0.000000 -11.004370 3.783222 0.000000 14.998964 12.947966 0.000000 -6.321921 9.924579 0.000000 -4.108822 -0.282661 0.000000 -23.642199 9.223698 0.000000 0.180522 106.339640 0.000000 3.691140 67.498888 0.000000 10.993502 14.725693 0.000000 28.229742 -15.849735 0.000000 13.039470 -43.819381 0.000000 16.116845 8.684430 0.000000 -18.333205 18.840635 0.000000 -5.865899 45.484678 0.000000 -33.010690 4.464032 0.000000 7.426712 27.574364 0.000000 -15.625464 -0.646130 0.000000 46.333279 -26.018955 0.000000 58.343497 24.251338 0.000000 41.041352 5.662753 0.000000 7.639986 -38.705714 0.000000 -22.165995 -39.285704 0.000000 32.775889 14.199549 0.000000 91.322781 4.828490 0.000000 22.499473 -6.309960 0.000000 83.881362 25.755177 0.000000 -28.644684 3.177167 0.000000 38.867102 13.130919 0.000000 24.522921 44.304831 0.000000 67.198853 -51.846001 0.000000 71.679911 -76.717903 0.000000 90.699510 -26.231951 0.000000 79.171138 17.532609 0.000000 52.335935 -38.681385 0.000000 41.710690 -34.358639 0.000000 11.975462 -8.081640 0.000000 -13.656984 3.544332 0.000000 -38.692747 -36.143947 0.000000 -47.677242 -42.876520 0.000000 -28.740059 50.311856 0.000000 -35.120890 -42.306275 0.000000 -19.167137 16.361391 0.000000 17.858403 -1.936826 0.000000 44.341160 -68.681182 0.000000 69.465379 21.709593 0.000000 11.415582 29.634459 0.000000 -3.401212 45.558244 0.000000 -18.621572 8.349686 0.000000 -17.391115 -24.615546 0.000000 33.201177 28.099523 0.000000 0.147344 47.095452 0.000000 7.057406 46.749901 0.000000 5.156140 -8.404666 0.000000 -35.934741 -51.211244 0.000000 -19.112901 3.615777 0.000000 22.838600 2.724259 0.000000 20.259116 -40.912236 0.000000 52.790053 -20.671060 0.000000 5.932876 29.126805 0.000000 34.332029 15.097892 0.000000 -3.479677 -19.334061 0.000000 26.276884 34.684331 0.000000 -60.529798 2.850844 0.000000 13.037687 22.779501 0.000000 -7.745463 33.658469 0.000000 19.966652 -19.759836 0.000000 -13.916718 -43.098356 0.000000 15.740086 -11.410890 0.000000 5.106917 45.900722 0.000000 6.865235 -19.192466 0.000000 6.098495 -25.946165 0.000000 30.976850 -4.337390 0.000000 20.134066 19.002271 0.000000 30.098746 8.436700 0.000000 26.504816 -12.488100 0.000000 -3.025979 4.727907 0.000000 -6.204732 28.557483 0.000000 -19.691058 19.683879 0.000000 -4.071711 9.571887 0.000000 -12.456380 -5.361479 0.000000 -13.820551 32.666064 0.000000 0.466091 2.009104 0.000000 20.393721 -6.418626 0.000000 17.694493 -10.061786 0.000000 -9.203739 4.010048 0.000000 9.705408 26.592644 0.000000 17.881581 -13.023955 0.000000 46.618179 13.635902 0.000000 5.204420 8.691453 0.000000 8.542325 15.036183 0.000000 10.596469 3.984252 0.000000 -2.723922 -9.544069 0.000000 -15.053143 20.702653 0.000000 14.457293 1.267309 0.000000 -22.087152 -7.602223 0.000000 5.859638 2.428189 0.000000 -7.713063 -0.292885 0.000000 -17.643248 -29.916045 0.000000 -11.405240 -29.678861 0.000000 -20.719718 10.630854 0.000000 2.273127 2.343962 0.000000 23.474323 12.853378 0.000000 -3.811869 -0.685445 0.000000 12.020704 -3.487229 0.000000 -0.776290 -20.541863 0.000000 -7.076884 -1.768681 0.000000 -4.787397 -15.387821 0.000000 15.931002 -21.396945 0.000000 8.938021 -11.667838 0.000000 -4.989040 -10.579433 0.000000 0.669997 -16.860976 0.000000 -2.143502 -32.261257 0.000000 -2.410769 -35.178344 0.000000 
3.711342 -31.463753 0.000000 21.055337 -30.946658 0.000000 -2.774644 -30.344469 0.000000 6.061075 -28.987089 0.000000 11.974996 -25.785115 0.000000 1.416438 -13.962787 0.000000 20.342782 -7.968268 0.000000 14.776713 -28.675634 0.000000 7.708399 -11.281690 0.000000 15.866640 -20.224650 0.000000 -2.226562 -37.530858 0.000000 17.774744 -33.620071 0.000000 7.490503 -41.921368 0.000000 -14.458017 14.014989 0.000000 -18.885912 0.878414 0.000000 -4.924866 -3.956291 0.000000 -5.606050 -18.891351 0.000000 -17.576730 -24.462269 0.000000 8.958436 7.826823 0.000000 -37.066479 11.422400 0.000000 -4.041253 -22.558357 0.000000 -19.316019 6.371994 0.000000 -8.741920 -16.801052 0.000000 2.585491 -25.225147 0.000000 3.557397 11.553094 0.000000 6.833248 18.562393 0.000000 8.422029 4.221786 0.000000 11.458200 -23.225623 0.000000 11.332266 -15.002516 0.000000 -3.348775 8.624218 0.000000 6.720339 18.783756 0.000000 3.125996 -39.073007 0.000000 1.094951 -34.813046 0.000000 18.840530 -36.458131 0.000000 -7.008888 -41.558083 0.000000 -6.996731 -31.199702 0.000000 35.739282 -29.275982 0.000000 9.953252 22.100939 0.000000 19.906539 -5.794790 0.000000 -19.432633 -108.237374 0.000000 -42.772907 -51.967005 0.000000 -1.425157 9.756833 0.000000 -30.745562 -12.883358 0.000000 20.045175 -31.210305 0.000000 -31.602187 -36.130224 0.000000 5.154763 9.902441 0.000000 -37.289576 -22.081303 0.000000 -4.404241 -22.008639 0.000000 10.636516 3.699728 0.000000 -5.257880 26.686575 0.000000 6.907139 5.103770 0.000000 -2.508977 6.708178 0.000000 18.080783 12.391860 0.000000 1.907766 -3.653785 0.000000 8.232617 4.732390 0.000000 1.013792 1.353283 0.000000 22.197811 47.771577 0.000000 -6.347470 7.510742 0.000000 4.796701 -29.505126 0.000000 -16.874038 20.777285 0.000000 6.157114 -0.334216 0.000000 6.176107 10.624456 0.000000 -1.503334 28.191653 0.000000 -2.678220 4.463480 0.000000 -6.068107 -11.248901 0.000000 -17.201432 -1.118400 0.000000 0.382826 -7.598600 0.000000 -8.266660 -4.617537 0.000000 -1.931697 10.008019 0.000000 -9.672330 -24.067214 0.000000 -3.317939 8.126489 0.000000 -2.174691 1.387047 0.000000 0.996401 -6.719528 0.000000 -14.498529 7.586420 0.000000 -2.377140 4.993626 0.000000 -0.844469 12.306157 0.000000 -8.075719 5.272121 0.000000 2.830823 7.782246 0.000000 -4.182772 0.492349 0.000000 2.121824 -5.917433 0.000000 -8.301219 6.122426 0.000000 -2.242895 8.268945 0.000000 -4.570821 1.112350 0.000000 4.996748 -2.036737 0.000000 -2.972405 -4.052934 0.000000 -1.291904 -2.664299 0.000000 4.838999 -1.302576 0.000000 6.176591 10.410189 0.000000 10.511762 -2.250047 0.000000 0.717732 -7.292811 0.000000 12.554689 1.995884 0.000000 -7.033881 -2.059509 0.000000 -2.835301 2.143706 0.000000 -8.970958 5.202681 0.000000 10.448393 -11.746242 0.000000 13.045290 1.008493 0.000000 16.583994 0.886013 0.000000 12.300134 5.178406 0.000000 4.948275 13.617801 0.000000 -9.368987 3.792594 0.000000 2.507276 -2.789116 0.000000 3.338165 -14.845524 0.000000 -14.670936 -10.430481 0.000000 10.275729 -2.269028 0.000000 6.677521 8.106870 0.000000 -1.663670 -14.250191 0.000000 10.634564 -8.251533 0.000000 4.697961 11.338752 0.000000 4.481595 -3.035192 0.000000 7.627132 -3.929062 0.000000 2.933850 -12.517569 0.000000 14.831086 -12.308070 0.000000 14.480254 -4.223688 0.000000 17.226915 -14.986342 0.000000 6.951249 -22.914677 0.000000 7.792646 -0.202803 0.000000 -6.376028 -3.180995 0.000000 -8.882500 -2.079970 0.000000 1.137500 8.705578 0.000000 -7.279195 7.652905 0.000000 -10.883564 -8.135460 0.000000 -4.370065 -21.875078 0.000000 -10.018397 -3.868498 0.000000 5.417102 -2.515146 0.000000 12.791997 -7.189719 0.000000 16.187119 5.985131 0.000000 25.873615 5.023723 0.000000 -5.382847 -16.959459 0.000000 12.883970 -6.347957 0.000000 -2.539220 6.941155 0.000000 -11.509627 -9.439463 0.000000 3.293373 -12.804694 0.000000 1.176571 9.626894 0.000000 10.526671 9.740879 0.000000 -4.335085 6.555720 0.000000 19.190988 20.271886 0.000000 6.214098 4.388532 0.000000 -10.659484 -8.847356 0.000000 -0.245954 17.078361 0.000000 -0.423558 14.236233 0.000000 10.473770 -7.586084 0.000000 14.198819 2.805604 0.000000 -1.534396 4.557674 0.000000 0.859495 10.992040 0.000000 -8.804625 -9.892160 0.000000 -1.030970 -11.584302 0.000000 9.755509 11.628436 0.000000 -0.829067 8.824323 0.000000 -12.568993 20.083583 0.000000 -15.691397 99.286149 0.000000 55.291239 67.335460 0.000000 9.308527 -34.020406 0.000000 36.378502 -2.811355 0.000000 -2.403583 7.372197 0.000000 23.206518 14.162780 0.000000 -18.617174 -15.549755 0.000000 37.435149 17.744235 0.000000 -7.072052 -15.421871 0.000000 41.652051 -12.192235 0.000000 38.839878 0.930772 0.000000 33.806670 -36.975141 0.000000 34.477755 16.017862 0.000000 101.250461 29.369012 0.000000 5.127989 11.919884 0.000000 72.072201 -49.866419 0.000000 8.860007 -42.005337 0.000000 45.674303 -55.575597 0.000000 -62.695787 -9.049965 0.000000 25.473647 96.842055 0.000000 17.960520 57.052141 0.000000 31.131686 -4.543535 0.000000 31.125626 -27.505189 0.000000 59.358346 -41.571684 0.000000 28.657574 -52.794704 0.000000 -3.643892 -2.673053 0.000000 -5.907440 6.676345 0.000000 21.024153 -38.469779 0.000000 -18.149236 9.024852 0.000000 -1.673786 -10.295405 0.000000 -0.103757 37.309107 0.000000 -4.179990 22.344953 0.000000 -25.946149 -37.543343 0.000000 7.702861 -4.782950 0.000000 -15.839374 23.545857 0.000000 -100.549948 -19.433544 0.000000 18.817477 -14.376937 0.000000 -21.278977 6.801428 0.000000 -17.246945 -8.936147 0.000000 5.008381 1.532829 0.000000 -15.107432 -10.688809 0.000000 54.923528 3.063671 0.000000 -20.167881 -51.166359 0.000000 17.119654 17.458894 0.000000 -35.565866 48.668080 0.000000 25.470011 14.363445 0.000000 13.897312 0.789222 0.000000 2.820106 2.373955 0.000000 -20.805145 -24.392380 0.000000 33.499045 -9.337604 0.000000 -2.611364 11.046972 0.000000 -6.216351 17.026289 0.000000 -35.271007 5.331748 0.000000 30.358359 0.046170 0.000000 -29.873617 2.421455 0.000000 9.861676 39.928871 0.000000 5.622983 26.139607 0.000000 2.896084 -42.645833 0.000000 31.160849 17.643468 0.000000 7.155534 20.002778 0.000000 -3.171475 -15.995616 0.000000 -56.227040 -5.972426 0.000000 -20.752879 1.259938 0.000000 -10.613632 -26.672512 0.000000 0.113483 -12.466184 0.000000 -21.358721 13.251835 0.000000 -10.298159 4.178989 0.000000 -4.931904 18.443315 0.000000 8.845902 21.569970 0.000000 -5.145789 -3.592365 0.000000 31.237966 -7.887358 0.000000 29.787262 -4.377176 0.000000 -4.261570 34.902541 0.000000 -2.829105 22.693124 0.000000 -7.439969 8.867280 0.000000 6.490839 -18.893013 0.000000 5.056380 -14.914363 0.000000 8.963566 18.553363 0.000000 -18.621864 28.645779 0.000000 -23.009134 -22.051490 0.000000 -10.240315 -13.098327 0.000000 -7.211912 26.847036 0.000000 10.841431 -1.241185 0.000000 18.892455 14.641730 0.000000 9.700002 13.442394 0.000000 17.623014 15.609927 0.000000 3.781740 -14.460610 0.000000 18.747314 -8.821658 0.000000 -8.185675 7.256838 0.000000 42.635646 2.095497 0.000000 -2.655338 3.586612 0.000000 22.736753 -31.142774 0.000000 -22.515358 -33.021723 0.000000 4.996907 -9.443721 0.000000 6.370431 -34.448769 0.000000 8.716962 4.435885 0.000000 5.552278 -4.274588 0.000000 6.690914 -5.260404 0.000000 2.735374 8.915029 0.000000 16.111933 -3.407107 0.000000 17.333794 -15.531925 0.000000 -0.178711 -22.501258 0.000000 6.999856 0.239061 0.000000 0.162124 -13.142260 0.000000 14.558554 -17.457881 0.000000 -7.745138 -16.915373 0.000000 2.599369 -30.562775 0.000000 
-0.043333 -41.446354 0.000000 7.091462 -11.676220 0.000000 -17.613586 -4.949178 0.000000 -7.122529 -33.999446 0.000000 -6.318561 -21.733282 0.000000 -35.023270 -13.334379 0.000000 -15.144813 -19.062038 0.000000 -28.989369 -28.237055 0.000000 -29.580661 -27.365247 0.000000 -9.797428 -32.943846 0.000000 1.162401 -49.629531 0.000000 -1.100754 -25.220843 0.000000 -11.661287 -13.251997 0.000000 6.385103 -3.399474 0.000000 6.948977 -29.682763 0.000000 -3.988280 -6.090865 0.000000 16.502983 29.620274 0.000000 -16.499434 -14.927950 0.000000 -2.864210 -10.376834 0.000000 -7.285377 22.701395 0.000000 28.026685 -1.999499 0.000000 -11.164874 -5.253972 0.000000 45.197777 -26.759263 0.000000 -17.415983 5.822338 0.000000 10.116489 1.392295 0.000000 10.013668 -32.133000 0.000000 21.720860 6.957612 0.000000 29.947615 -13.588432 0.000000 -8.778106 -4.514839 0.000000 11.433363 2.137897 0.000000 26.033354 -17.464840 0.000000 33.671213 -2.952453 0.000000 2.212184 -50.102437 0.000000 20.848996 -37.616691 0.000000 9.349494 -6.841886 0.000000 33.329661 -47.085658 0.000000 1.724466 -50.407170 0.000000 -0.143873 14.500879 0.000000 66.417540 35.871338 0.000000 8.446670 0.077653 0.000000 -49.268627 -49.904828 0.000000 -22.681341 -44.250371 0.000000 12.663938 -35.774301 0.000000 2.080092 -7.209146 0.000000 -6.767319 -16.111595 0.000000 -35.490546 -13.251340 0.000000 12.276218 -20.946454 0.000000 -49.674205 -18.873175 0.000000 -28.218187 23.844714 0.000000 -10.037789 -22.478474 0.000000 -29.363447 -10.104748 0.000000 15.654031 -7.082313 0.000000 -5.807222 11.697765 0.000000 -7.350391 12.007810 0.000000 10.255343 3.319554 0.000000 2.786644 5.958661 0.000000 10.226624 15.918773 0.000000 11.025370 20.771283 0.000000 25.591244 8.650379 0.000000 -18.174330 2.870530 0.000000 11.673309 -9.622291 0.000000 2.346633 16.424422 0.000000 6.879918 13.928724 0.000000 35.043879 18.200972 0.000000 11.898257 14.779938 0.000000 21.986248 -15.927497 0.000000 21.143830 1.643090 0.000000 8.165297 -3.107627 0.000000 12.385526 -3.549229 0.000000 -0.442744 5.628517 0.000000 -3.096900 0.113211 0.000000 11.053981 -2.215442 0.000000 -7.593966 13.727006 0.000000 2.356067 6.809089 0.000000 0.575866 2.702892 0.000000 12.433878 15.106600 0.000000 9.278551 -1.316454 0.000000 5.686941 2.518870 0.000000 0.787986 -10.051081 0.000000 15.713108 -7.889510 0.000000 5.751657 7.424368 0.000000 7.110048 -4.676573 0.000000 9.442216 -0.222885 0.000000 4.531834 0.235948 0.000000 8.351253 4.878940 0.000000 2.614780 6.831471 0.000000 3.312454 -5.713083 0.000000 3.702469 -2.376086 0.000000 5.340334 -6.169351 0.000000 0.382611 -2.982158 0.000000 4.699341 7.563451 0.000000 -3.155731 10.083903 0.000000 1.331325 8.648725 0.000000 -0.361328 2.925076 0.000000 4.314048 -15.648084 0.000000 -4.352961 -3.549217 0.000000 6.810971 -1.424770 0.000000 0.252915 1.612889 0.000000 5.880397 8.575644 0.000000 12.267830 3.416065 0.000000 10.596540 2.809453 0.000000 12.467315 2.703118 0.000000 13.955498 -7.344213 0.000000 0.682018 -18.903488 0.000000 2.018143 11.263868 0.000000 17.461130 -7.788400 0.000000 0.140884 -16.403146 0.000000 16.154674 5.202858 0.000000 6.964145 -9.284034 0.000000 1.393944 6.920346 0.000000 -0.729005 -13.179926 0.000000 10.018966 -22.512517 0.000000 -1.952634 0.205373 0.000000 4.756304 4.519662 0.000000 -5.030285 -2.033184 0.000000 -15.166499 -0.991757 0.000000 -7.086912 5.078221 0.000000 -11.084580 -10.577749 0.000000 -8.565786 -10.126244 0.000000 6.558284 -2.282100 0.000000 -11.756101 -16.970039 0.000000 10.023922 -17.694592 0.000000 -5.876308 -13.596196 0.000000 11.405643 -12.516176 0.000000 7.413014 -6.558947 0.000000 -0.793614 -11.366863 0.000000 20.676516 18.496566 0.000000 -6.607911 -0.238459 0.000000 1.654263 -1.034268 0.000000 -10.207755 21.400176 0.000000 -4.044235 -8.816424 0.000000 -4.819734 -9.580456 0.000000 3.332625 2.988812 0.000000 -18.654721 7.820346 0.000000 10.954563 -14.103944 0.000000 5.572903 17.203867 0.000000 25.909580 22.663402 0.000000 7.220311 5.783426 0.000000 12.268597 12.313479 0.000000 19.361569 -14.015690 0.000000 21.074223 -27.241666 0.000000 6.595397 3.071592 0.000000 13.200328 19.545245 0.000000 -6.073881 -3.611479 0.000000 0.828148 5.673687 0.000000 -5.908552 -5.612168 0.000000 4.415796 9.722677 0.000000 -13.158099 22.041841 0.000000 -21.059146 24.086028 0.000000 15.378137 38.479408 0.000000 44.521609 42.498963 0.000000 49.970538 33.638430 0.000000 -10.782699 -4.137625 0.000000 0.416613 -30.647397 0.000000 -8.515121 24.898020 0.000000 32.671038 4.612004 0.000000 2.848018 33.939557 0.000000 66.648416 0.247131 0.000000 -33.345785 -18.337566 0.000000 54.351059 7.199251 0.000000 19.234083 -21.656832 0.000000 -1.680962 -43.192453 0.000000 26.415024 35.012519 0.000000 21.522165 -9.527454 0.000000 32.870733 -43.017722 0.000000 34.393294 40.597447 0.000000 7.451763 76.384284 0.000000 -36.452934 13.890696 0.000000 -15.727541 -54.901131 0.000000 98.773003 -2.480873 0.000000 60.811039 -0.034186 0.000000 83.251089 16.078171 0.000000 -8.970151 -49.377949 0.000000 11.745252 -13.715665 0.000000 -14.796337 8.333063 0.000000 5.955606 -7.135436 0.000000 53.869415 -26.439589 0.000000 17.126845 -11.660699 0.000000 -2.422904 -26.127119 0.000000 -31.921900 6.050535 0.000000 34.592794 -10.301555 0.000000 -40.948905 -54.759371 0.000000 -4.458754 40.205081 0.000000 14.716015 65.946533 0.000000 85.090207 -18.295461 0.000000 -4.613070 -81.207796 0.000000 70.150572 -32.616761 0.000000 24.598824 -4.577765 0.000000 71.150571 27.494947 0.000000 8.030931 -4.356904 0.000000 36.623136 13.410135 0.000000 -22.552431 13.188328 0.000000 -28.261954 43.497507 0.000000 38.991234 38.745095 0.000000 4.508638 -2.713276 0.000000 8.789462 14.245239 0.000000 7.083252 -16.508787 0.000000 10.688766 -27.063161 0.000000 -4.303053 -15.469522 0.000000 -3.239440 -1.196840 0.000000 -11.017432 11.988583 0.000000 -11.133864 -7.447905 0.000000 -19.999375 9.700503 0.000000 -0.491826 1.162622 0.000000 16.954337 -0.812269 0.000000 28.831542 9.816436 0.000000 -15.372297 -2.758365 0.000000 4.123073 29.399019 0.000000 2.835998 14.572488 0.000000 -3.147661 20.284218 0.000000 -11.136282 6.170513 0.000000 10.181924 0.287314 0.000000 17.917248 -40.058828 0.000000 -20.125777 -15.201075 0.000000 3.996591 6.074252 0.000000 -14.610729 2.575454 0.000000 3.888602 -10.707361 0.000000 23.305414 -12.274215 0.000000 12.999393 -17.664157 0.000000 14.079251 -6.375567 0.000000 7.286625 55.183415 0.000000 3.275741 42.188254 0.000000 -24.915203 -2.183080 0.000000 16.892222 23.346120 0.000000 36.170336 -10.487244 0.000000 19.782536 -8.891353 0.000000 -2.951861 13.616458 0.000000 9.901060 35.982748 0.000000 24.388454 18.211094 0.000000 -17.696872 -28.821177 0.000000 -1.293224 -7.445844 0.000000 -40.411609 -17.412914 0.000000 -15.101793 16.177612 0.000000 -29.592066 5.253693 0.000000 -5.483503 -3.625807 0.000000 -2.528733 19.578353 0.000000 -11.263374 13.234724 0.000000 -24.726530 -31.490555 0.000000 -0.736842 -3.102148 0.000000 0.209440 19.606008 0.000000 6.816700 -10.056025 0.000000 -20.570352 -11.939015 0.000000 -22.911715 -18.254936 0.000000 0.527924 -1.376093 0.000000 -15.682443 13.671531 0.000000 -0.532090 1.340602 0.000000 -25.144767 -0.670325 0.000000 -13.989332 -29.962881 0.000000 -1.749467 -16.367101 0.000000 -2.869479 0.902823 0.000000 -18.611323 -11.063007 0.000000 1.303438 -12.008672 0.000000 -1.290223 -18.138131 0.000000 9.306447 -8.953714 0.000000 -9.989719 -20.302073 0.000000 -15.223413 -46.634824 0.000000 
-10.211605 -53.778629 0.000000 -21.100743 -13.376405 0.000000 -3.764646 -16.130479 0.000000 -6.322005 -40.282114 0.000000 -18.305731 2.115627 0.000000 -17.658203 -5.136534 0.000000 -13.290777 -14.002170 0.000000 -4.220287 -14.239786 0.000000 -0.129554 -30.473631 0.000000 -12.585537 -50.967712 0.000000 0.877740 -46.227532 0.000000 -6.943492 -20.796383 0.000000 12.392668 -49.407225 0.000000 13.627482 -4.595274 0.000000 2.924521 11.251798 0.000000 -16.675191 -13.510297 0.000000 -3.853309 -6.380197 0.000000 10.492383 -5.095077 0.000000 -21.568678 -1.387234 0.000000 1.285678 -19.468495 0.000000 -2.053798 -18.678860 0.000000 -5.324301 -10.799098 0.000000 1.195017 -10.549944 0.000000 -11.666103 9.856140 0.000000 4.697497 -15.876557 0.000000 -14.496256 6.958023 0.000000 7.632616 -15.712160 0.000000 5.099810 7.273343 0.000000 6.220739 3.511736 0.000000 40.746500 -26.187243 0.000000 10.803272 -3.454094 0.000000 24.172443 -15.251837 0.000000 40.390888 -21.990829 0.000000 -1.023361 -43.595441 0.000000 6.922408 -54.038748 0.000000 11.901428 -23.574675 0.000000 -22.229097 4.197552 0.000000 -7.639661 -42.592134 0.000000 32.768921 -14.385333 0.000000 34.706519 7.448792 0.000000 36.225043 -20.838994 0.000000 -15.781302 -52.175732 0.000000 29.583386 -37.644791 0.000000 -43.915751 -11.779048 0.000000 18.266227 1.440414 0.000000 -26.044619 -9.141096 0.000000 14.129911 -7.897644 0.000000 -14.210280 18.485766 0.000000 -15.481008 -35.936688 0.000000 4.356981 27.831834 0.000000 -20.174332 -20.588050 0.000000 1.647995 -16.848047 0.000000 22.471302 35.396282 0.000000 22.796455 -19.716350 0.000000 -7.387328 -5.404644 0.000000 9.712571 1.382003 0.000000 -1.497717 39.532851 0.000000 -7.207313 -7.853878 0.000000 0.492682 -0.305425 0.000000 -0.577624 34.695220 0.000000 0.009084 -20.855179 0.000000 -14.861360 15.417847 0.000000 18.406847 -4.505593 0.000000 -8.821916 -0.554859 0.000000 18.533088 1.808730 0.000000 -4.804758 -10.363973 0.000000 -3.770008 6.222351 0.000000 13.213067 4.140768 0.000000 -16.095958 18.616061 0.000000 -0.336776 -8.584789 0.000000 6.057236 -3.370237 0.000000 -3.052986 5.884113 0.000000 -1.356906 1.978386 0.000000 -3.158788 -0.583411 0.000000 -4.709902 -5.084185 0.000000 5.339615 3.603472 0.000000 10.503461 12.019059 0.000000 6.735600 16.272810 0.000000 14.862499 -9.533819 0.000000 7.378308 -10.881104 0.000000 12.096246 14.725486 0.000000 0.002020 4.578386 0.000000 4.075273 3.690564 0.000000 -7.178106 -0.945775 0.000000 13.232502 -2.135880 0.000000 -0.470064 2.374500 0.000000 0.243684 -2.390265 0.000000 4.954189 8.382309 0.000000 3.450578 1.069811 0.000000 -2.841928 -6.651818 0.000000 0.548963 5.534226 0.000000 -3.148207 1.308507 0.000000 0.921101 -0.650697 0.000000 -4.972454 2.219957 0.000000 16.493133 -7.754609 0.000000 -3.477402 -1.488430 0.000000 0.904776 -3.719863 0.000000 -3.717027 6.108980 0.000000 6.270347 1.602886 0.000000 9.555686 -0.923549 0.000000 11.397795 -2.988601 0.000000 2.553079 -18.204481 0.000000 7.391649 1.354816 0.000000 -3.574147 9.668326 0.000000 -2.017225 -8.672242 0.000000 16.560452 -12.372932 0.000000 -0.455692 -6.945077 0.000000 10.822769 4.515491 0.000000 7.117164 11.725538 0.000000 10.462459 3.764088 0.000000 10.559052 -21.142590 0.000000 -10.914372 -11.084441 0.000000 -1.783988 1.038974 0.000000 -9.475634 -11.908691 0.000000 16.436402 -2.991875 0.000000 0.321730 1.853824 0.000000 16.735147 -7.262914 0.000000 19.398089 -0.601096 0.000000 14.438424 -8.937286 0.000000 1.463407 10.843220 0.000000 6.096083 -11.601097 0.000000 6.998401 -27.754871 0.000000 8.343592 -5.250219 0.000000 1.454054 -15.804468 0.000000 4.407694 5.009537 0.000000 -10.316721 -7.278371 0.000000 -17.858369 10.838020 0.000000 -2.547876 2.062794 0.000000 0.950207 -2.748113 0.000000 12.022804 12.639653 0.000000 22.663219 -14.827483 0.000000 5.617024 -20.181555 0.000000 -2.352727 23.461881 0.000000 7.491464 2.118941 0.000000 -6.332204 -17.671904 0.000000 -18.118375 5.316869 0.000000 -4.064059 2.741125 0.000000 3.026363 4.793627 0.000000 12.895027 4.937103 0.000000 -4.940913 5.430607 0.000000 -1.400705 5.180088 0.000000 -5.828555 10.679500 0.000000 3.684740 17.226952 0.000000 12.323396 23.364220 0.000000 -7.443377 -10.057489 0.000000 4.926538 -15.171950 0.000000 -13.584116 18.877983 0.000000 8.443028 34.299266 0.000000 8.411990 -8.452653 0.000000 31.565829 33.705394 0.000000 3.708382 32.743058 0.000000 35.019785 21.283902 0.000000 23.085708 46.742571 0.000000 17.798362 5.104619 0.000000 16.724564 -18.091645 0.000000 8.880755 -26.912893 0.000000 13.833161 -16.233142 0.000000 70.951837 20.771932 0.000000 3.138756 0.105122 0.000000 14.997186 -51.649095 0.000000 27.585988 19.056880 0.000000 -14.735819 8.836921 0.000000 -60.395472 6.165885 0.000000 4.540473 5.464175 0.000000 -67.166411 -62.737548 0.000000 -0.399411 -16.586367 0.000000 -26.229994 15.270631 0.000000 61.784417 14.129338 0.000000 -52.914459 -38.383881 0.000000 42.828238 -19.486438 0.000000 -3.354981 10.978379 0.000000 -8.860226 42.276001 0.000000 -19.063150 29.934153 0.000000 -58.537285 -46.968518 0.000000 -10.868504 3.116594 0.000000 5.910714 -61.989407 0.000000 11.398792 -49.641019 0.000000 -47.427566 65.317170 0.000000 -27.563593 38.753340 0.000000 -19.266182 0.293409 0.000000 3.937190 31.371959 0.000000 17.130348 1.508205 0.000000 2.680850 -60.447869 0.000000 1.449290 -66.003104 0.000000 51.082249 -0.104459 0.000000 -11.516225 0.562698 0.000000 -42.905270 -22.410466 0.000000 -51.598829 -9.936146 0.000000 -47.325933 18.100722 0.000000 -36.291339 23.838626 0.000000 -18.922899 33.647033 0.000000 -27.658478 13.718731 0.000000 9.792374 -44.084770 0.000000 26.346487 15.897487 0.000000 23.407957 44.565217 0.000000 9.281093 -1.785392 0.000000 24.463537 0.474650 0.000000 1.377682 -13.006075 0.000000 -22.484898 4.590602 0.000000 51.263286 17.761350 0.000000 -66.546392 24.920714 0.000000 13.227844 14.313691 0.000000 -33.678600 -10.595868 0.000000 24.139270 -34.532257 0.000000 5.835639 10.605503 0.000000 -4.718537 58.466241 0.000000 -3.275365 -17.937364 0.000000 3.944301 -0.564827 0.000000 19.634067 27.273513 0.000000 8.576557 -2.023337 0.000000 32.492799 -19.302011 0.000000 20.357343 -27.793592 0.000000 6.456372 3.635188 0.000000 19.817614 1.454472 0.000000 -15.386210 7.736787 0.000000 7.821671 4.286978 0.000000 20.127309 -19.472828 0.000000 15.536581 12.459179 0.000000 15.233419 5.633797 0.000000 3.515375 -2.174590 0.000000 41.140757 6.426334 0.000000 31.644866 67.104368 0.000000 24.804636 9.076643 0.000000 6.924244 -52.218258 0.000000 0.831057 -21.783327 0.000000 -4.171737 24.207834 0.000000 -22.439363 28.434839 0.000000 -10.983390 1.305464 0.000000 1.758126 5.546442 0.000000 -1.995667 12.583351 0.000000 -0.368704 49.561773 0.000000 -6.814209 12.567384 0.000000 -31.795579 3.822187 0.000000 -1.801895 3.824105 0.000000 5.343239 -11.453406 0.000000 -5.680127 -8.680740 0.000000 4.326631 13.376139 0.000000 22.419033 -3.269695 0.000000 -17.109282 -22.840474 0.000000 5.909027 -3.966929 0.000000 -3.900061 -10.362981 0.000000 -4.347611 -3.293307 0.000000 -8.478512 -30.541998 0.000000 -14.735774 -41.678041 0.000000 12.360564 5.495900 0.000000 5.678719 5.187736 0.000000 23.718040 8.196837 0.000000 4.304851 -14.480272 0.000000 -11.738318 -14.526959 0.000000 -6.906936 1.329931 0.000000 -12.357409 -26.674176 0.000000 14.910511 -17.082040 0.000000 12.954420 -21.145269 0.000000 1.316307 -8.758385 0.000000 17.069076 7.614487 0.000000 -11.392990 -40.509161 0.000000 