# vtk DataFile Version 2.0
Comment goes here
ASCII

DATASET STRUCTURED_POINTS
FIELD FieldData 1
TIME 1 1 double
0.02200000
DIMENSIONS    256   32   1

ORIGIN    0.000   0.000   0.000
SPACING   0.0078125 0.0078125   1.000

POINT_DATA   8192
VECTORS u double

-0.007703 0.000000 0.000000 -0.016650 0.000000 0.000000 -0.030866 0.000000 0.000000 -0.048293 0.000000 0.000000 -0.073234 0.000001 0.000000 -0.100081 0.000001 0.000000 -0.121840 0.000001 0.000000 -0.103772 -0.000000 0.000000 -0.133814 -0.000000 0.000000 -0.113276 -0.000001 0.000000 -0.134491 -0.000001 0.000000 -0.156326 -0.000002 0.000000 -0.145712 -0.000003 0.000000 -0.207472 -0.000004 0.000000 -0.239313 -0.000006 0.000000 -0.172388 -0.000009 0.000000 -0.236668 -0.000009 0.000000 -0.212662 -0.000008 0.000000 -0.194095 -0.000010 0.000000 -0.265476 -0.000005 0.000000 -0.146981 -0.000001 0.000000 -0.159642 -0.000008 0.000000 -0.185330 0.000001 0.000000 -0.076207 -0.000004 0.000000 -0.146179 -0.000008 0.000000 -0.086082 -0.000005 0.000000 -0.081008 -0.000016 0.000000 -0.126238 -0.000012 0.000000 -0.040055 -0.000017 0.000000 -0.122801 -0.000021 0.000000 -0.050382 -0.000017 0.000000 -0.077217 -0.000026 0.000000 -0.088101 -0.000020 0.000000 -0.032625 -0.000023 0.000000 -0.095463 -0.000028 0.000000 -0.033452 -0.000021 0.000000 -0.065516 -0.000028 0.000000 -0.063164 -0.000028 0.000000 -0.022956 -0.000018 0.000000 -0.075330 -0.000027 0.000000 -0.018315 -0.000013 0.000000 -0.055171 -0.000011 0.000000 -0.040908 -0.000021 0.000000 -0.017284 0.000012 0.000000 -0.055767 -0.000018 0.000000 -0.008541 0.000011 0.000000 -0.043205 0.000021 0.000000 -0.024185 -0.000011 0.000000 -0.011895 0.000072 0.000000 -0.039694 0.000009 0.000000 -0.000889 0.000071 0.000000 -0.032889 0.000086 0.000000 -0.010703 0.000028 0.000000 -0.008386 0.000168 0.000000 -0.025391 0.000032 0.000000 0.004468 0.000147 0.000000 -0.022704 0.000126 0.000000 -0.000637 0.000038 0.000000 -0.005266 0.000195 0.000000 -0.013768 -0.000024 0.000000 0.008772 0.000106 0.000000 -0.014426 0.000066 0.000000 0.006893 -0.000504 0.000000 -0.001327 0.000095 0.000000 -0.003677 0.001369 0.000000 0.010481 0.000739 0.000000 -0.007089 -0.000007 0.000000 0.011376 0.000262 0.000000 0.001249 0.000251 0.000000 0.003151 0.000291 0.000000 0.013580 0.000212 0.000000 -0.000386 0.000170 0.000000 0.015360 0.000167 0.000000 0.005177 0.000135 0.000000 0.009545 0.000127 0.000000 0.015614 0.000116 0.000000 0.005621 0.000081 0.000000 0.018140 0.000081 0.000000 0.009192 0.000066 0.000000 0.014171 0.000039 0.000000 0.017534 0.000060 0.000000 0.010342 0.000013 0.000000 0.020616 0.000036 0.000000 0.012619 0.000013 0.000000 0.018337 -0.000011 0.000000 0.019083 0.000028 0.000000 0.015005 -0.000053 0.000000 0.022824 0.000007 0.000000 0.016453 -0.000046 0.000000 0.021852 -0.000074 0.000000 0.021408 -0.000028 0.000000 0.018988 -0.000168 0.000000 0.025567 -0.000053 0.000000 0.019640 -0.000066 0.000000 0.025041 -0.000200 0.000000 0.023597 -0.000174 0.000000 0.022642 0.000301 0.000000 0.026813 0.000479 0.000000 0.021719 0.000194 0.000000 0.026244 0.000135 0.000000 0.024277 0.000109 0.000000 0.023526 0.000189 0.000000 0.027310 0.000065 0.000000 0.022677 0.000060 0.000000 0.027032 0.000057 0.000000 0.024475 -0.000014 0.000000 0.024784 0.000046 0.000000 0.027349 -0.000015 0.000000 0.023780 -0.000002 0.000000 0.027485 0.000007 0.000000 0.025271 -0.000022 0.000000 0.025834 0.000004 0.000000 0.027973 -0.000005 0.000000 0.024776 -0.000018 0.000000 0.028638 0.000010 0.000000 0.026049 -0.000018 0.000000 0.027555 -0.000011 0.000000 0.028535 0.000009 0.000000 0.026336 -0.000053 0.000000 0.029751 0.000009 0.000000 0.027311 -0.000053 0.000000 0.028987 -0.000062 0.000000 0.029579 -0.000042 0.000000 0.027546 -0.000167 0.000000 0.031230 -0.000072 0.000000 0.028071 -0.000098 0.000000 0.030477 -0.000224 0.000000 0.030248 -0.000287 0.000000 0.029160 0.000125 0.000000 0.031700 0.000361 0.000000 0.028453 0.000172 0.000000 0.030802 0.000108 0.000000 0.029871 0.000082 0.000000 0.028748 0.000175 0.000000 0.031439 0.000048 0.000000 0.027917 0.000064 0.000000 0.030865 0.000054 0.000000 0.028834 -0.000009 0.000000 0.028886 0.000051 0.000000 0.030580 -0.000013 0.000000 0.027545 0.000008 0.000000 0.030400 0.000012 0.000000 0.028150 -0.000014 0.000000 0.028647 0.000012 0.000000 0.029883 -0.000000 0.000000 0.026889 -0.000011 0.000000 0.030231 0.000017 0.000000 0.027295 -0.000014 0.000000 0.028767 -0.000002 0.000000 0.028991 0.000010 0.000000 0.026882 -0.000049 0.000000 0.029801 0.000013 0.000000 0.027170 -0.000057 0.000000 0.028639 -0.000055 0.000000 0.028835 -0.000050 0.000000 0.026869 -0.000167 0.000000 0.030025 -0.000074 0.000000 0.027131 -0.000120 0.000000 0.029028 -0.000240 0.000000 0.028994 -0.000305 0.000000 0.027864 0.000087 0.000000 0.029991 0.000320 0.000000 0.027500 0.000162 0.000000 0.028941 0.000094 0.000000 0.028903 0.000079 0.000000 0.027445 0.000167 0.000000 0.029925 0.000033 0.000000 0.027422 0.000067 0.000000 0.029195 0.000043 0.000000 0.028629 -0.000009 0.000000 0.027973 0.000048 0.000000 0.029829 -0.000019 0.000000 0.027721 0.000013 0.000000 0.029373 0.000009 0.000000 0.028897 -0.000013 0.000000 0.028264 0.000015 0.000000 0.030179 -0.000003 0.000000 0.027729 -0.000008 0.000000 0.029982 0.000016 0.000000 0.028842 -0.000018 0.000000 0.028898 -0.000001 0.000000 0.030154 0.000000 0.000000 0.028134 -0.000053 0.000000 0.030213 0.000008 0.000000 0.029122 -0.000068 0.000000 0.029147 -0.000054 0.000000 0.030460 -0.000060 0.000000 0.028244 -0.000165 0.000000 0.030858 -0.000065 0.000000 0.029094 -0.000127 0.000000 0.029737 -0.000209 0.000000 0.030658 -0.000300 0.000000 0.029132 0.000017 0.000000 0.031078 0.000312 0.000000 0.029212 0.000187 0.000000 0.029715 0.000080 0.000000 0.030477 0.000093 0.000000 0.028526 0.000164 0.000000 0.030978 0.000023 0.000000 0.028744 0.000080 0.000000 0.029928 0.000028 0.000000 0.029914 -0.000006 0.000000 0.028796 0.000044 0.000000 0.030730 -0.000032 0.000000 0.028621 0.000029 0.000000 0.029934 -0.000006 0.000000 0.029800 -0.000005 0.000000 0.028731 0.000018 0.000000 0.030780 -0.000017 0.000000 0.028216 0.000018 0.000000 0.030266 -0.000003 0.000000 0.029331 0.000000 0.000000 0.029011 0.000010 0.000000 0.030411 -0.000010 0.000000 0.028248 0.000008 0.000000 0.030202 -0.000006 0.000000 0.029233 -0.000001 0.000000 0.028937 0.000003 0.000000 0.030370 -0.000004 0.000000 0.027997 0.000007 0.000000 0.030458 -0.000002 0.000000 0.028749 -0.000000 0.000000 0.029211 0.000001 0.000000 0.029888 -0.000005 0.000000 0.028168 0.000000 0.000000 0.030297 -0.000004 0.000000 0.028588 -0.000002 0.000000 0.029168 -0.000003 0.000000 0.029751 -0.000006 0.000000 0.028042 -0.000004 0.000000 0.030424 -0.000008 0.000000 0.028025 -0.000007 0.000000 0.029448 -0.000008 0.000000 0.029247 -0.000007 0.000000 0.028245 -0.000006 0.000000 0.030146 -0.000004 0.000000 0.027887 -0.000001 0.000000 0.029366 -0.000000 0.000000 0.029076 0.000003 0.000000 0.028051 0.000003 0.000000 0.030032 0.000004 0.000000 0.027430 0.000005 0.000000 0.029466 0.000004 0.000000 0.028537 0.000004 0.000000 0.028040 0.000003 0.000000 0.029524 0.000002 0.000000 0.026999 0.000002 0.000000 0.029016 0.000001 0.000000 0.027924 -0.000000 0.000000 0.028424 -0.000000 0.000000 0.027999 -0.000001 0.000000 0.020761 -0.000001 0.000000 0.014978 -0.000000 0.000000 0.010531 -0.000000 0.000000 0.005236 -0.000000 0.000000 0.000255 0.000000 0.000000 
-0.001551 0.008453 0.000000 -0.011189 0.011582 0.000000 -0.022673 0.015822 0.000000 -0.041849 0.021185 0.000000 -0.065349 0.025894 0.000000 -0.100926 0.024304 0.000000 -0.115362 0.001846 0.000000 -0.100436 0.005987 0.000000 -0.127272 0.004752 0.000000 -0.116113 0.000337 0.000000 -0.134148 0.021524 0.000000 -0.182664 0.005609 0.000000 -0.155945 0.025571 0.000000 -0.274509 0.046798 0.000000 -0.307659 -0.017546 0.000000 -0.250886 -0.001329 0.000000 -0.322444 0.020131 0.000000 -0.289014 -0.021291 0.000000 -0.276428 0.026397 0.000000 -0.322704 -0.023560 0.000000 -0.205485 -0.052918 0.000000 -0.165617 0.019164 0.000000 -0.217681 -0.041717 0.000000 -0.064343 -0.019581 0.000000 -0.158293 0.004927 0.000000 -0.072694 -0.032592 0.000000 -0.078491 0.020060 0.000000 -0.120202 -0.020489 0.000000 -0.031614 -0.001737 0.000000 -0.117579 0.005140 0.000000 -0.042406 -0.022810 0.000000 -0.069608 0.018830 0.000000 -0.085486 -0.022318 0.000000 -0.021917 0.003656 0.000000 -0.093119 0.000382 0.000000 -0.024828 -0.014996 0.000000 -0.061370 0.014825 0.000000 -0.059521 -0.021311 0.000000 -0.014390 0.006063 0.000000 -0.073205 -0.002351 0.000000 -0.010990 -0.010094 0.000000 -0.052195 0.011282 0.000000 -0.037017 -0.018969 0.000000 -0.010282 0.007442 0.000000 -0.053764 -0.004396 0.000000 -0.002367 -0.006271 0.000000 -0.040617 0.007842 0.000000 -0.020404 -0.015672 0.000000 -0.005868 0.007834 0.000000 -0.038159 -0.005501 0.000000 0.004884 -0.003325 0.000000 -0.031045 0.005000 0.000000 -0.006435 -0.012223 0.000000 -0.003992 0.007536 0.000000 -0.023378 -0.006391 0.000000 0.009232 -0.001167 0.000000 -0.020473 0.002710 0.000000 0.003170 -0.008655 0.000000 -0.001534 0.006824 0.000000 -0.012062 -0.007015 0.000000 0.013586 0.000520 0.000000 -0.013057 0.001067 0.000000 0.011003 -0.007231 0.000000 0.002413 0.005345 0.000000 -0.000964 -0.004229 0.000000 0.013440 0.002550 0.000000 -0.005210 -0.000618 0.000000 0.014924 -0.003997 0.000000 0.003868 0.004330 0.000000 0.005228 -0.005908 0.000000 0.017431 0.001944 0.000000 0.001221 -0.000761 0.000000 0.018869 -0.002641 0.000000 0.007040 0.003021 0.000000 0.012213 -0.005106 0.000000 0.018602 0.002068 0.000000 0.007683 -0.001194 0.000000 0.020944 -0.001710 0.000000 0.011408 0.002045 0.000000 0.016415 -0.004138 0.000000 0.020606 0.001975 0.000000 0.011949 -0.001532 0.000000 0.023679 -0.001100 0.000000 0.014322 0.001154 0.000000 0.021047 -0.003241 0.000000 0.021303 0.001707 0.000000 0.017115 -0.001919 0.000000 0.025253 -0.000695 0.000000 0.018579 0.000461 0.000000 0.024053 -0.002523 0.000000 0.023783 0.001446 0.000000 0.020683 -0.002228 0.000000 0.028396 -0.000322 0.000000 0.021223 0.000271 0.000000 0.027656 -0.002204 0.000000 0.025687 0.000967 0.000000 0.025116 -0.001244 0.000000 0.028904 0.001035 0.000000 0.023670 0.000451 0.000000 0.028287 -0.001230 0.000000 0.026481 0.001418 0.000000 0.025284 -0.001351 0.000000 0.029781 0.000447 0.000000 0.024279 0.000163 0.000000 0.029461 -0.000867 0.000000 0.026117 0.001082 0.000000 0.027052 -0.001402 0.000000 0.029278 0.000472 0.000000 0.025863 -0.000080 0.000000 0.029414 -0.000742 0.000000 0.027372 0.000795 0.000000 0.027656 -0.001347 0.000000 0.030271 0.000523 0.000000 0.026396 -0.000352 0.000000 0.030998 -0.000620 0.000000 0.027659 0.000525 0.000000 0.029854 -0.001246 0.000000 0.030235 0.000632 0.000000 0.028428 -0.000653 0.000000 0.031604 -0.000453 0.000000 0.029335 0.000352 0.000000 0.030803 -0.001163 0.000000 0.031635 0.000721 0.000000 0.029169 -0.000970 0.000000 0.033561 -0.000278 0.000000 0.029562 0.000353 0.000000 0.032723 -0.001324 0.000000 0.032039 0.000303 0.000000 0.031519 -0.000574 0.000000 0.033500 0.000792 0.000000 0.030408 0.000609 0.000000 0.032573 -0.000678 0.000000 0.031930 0.001057 0.000000 0.030424 -0.000630 0.000000 0.033615 0.000422 0.000000 0.029472 0.000318 0.000000 0.033091 -0.000428 0.000000 0.030368 0.000955 0.000000 0.031083 -0.000831 0.000000 0.032281 0.000644 0.000000 0.029585 0.000089 0.000000 0.032190 -0.000293 0.000000 0.030168 0.000856 0.000000 0.030417 -0.000854 0.000000 0.032015 0.000878 0.000000 0.028479 -0.000185 0.000000 0.032512 -0.000179 0.000000 0.028846 0.000720 0.000000 0.031025 -0.000842 0.000000 0.030607 0.000965 0.000000 0.028960 -0.000445 0.000000 0.031605 -0.000104 0.000000 0.029172 0.000546 0.000000 0.030418 -0.000854 0.000000 0.030876 0.000877 0.000000 0.028490 -0.000737 0.000000 0.032311 -0.000147 0.000000 0.028636 0.000449 0.000000 0.031228 -0.001183 0.000000 0.030811 0.000211 0.000000 0.030201 -0.000391 0.000000 0.031776 0.000574 0.000000 0.029526 0.000677 0.000000 0.030646 -0.000683 0.000000 0.031050 0.000777 0.000000 0.029086 -0.000367 0.000000 0.032061 0.000002 0.000000 0.029052 0.000402 0.000000 0.031326 -0.000584 0.000000 0.030270 0.000577 0.000000 0.030106 -0.000561 0.000000 0.031493 0.000093 0.000000 0.029834 0.000234 0.000000 0.031047 -0.000582 0.000000 0.031012 0.000535 0.000000 0.029937 -0.000625 0.000000 0.032303 0.000263 0.000000 0.029373 0.000091 0.000000 0.032122 -0.000533 0.000000 0.030475 0.000526 0.000000 0.031038 -0.000647 0.000000 0.031781 0.000394 0.000000 0.030239 -0.000073 0.000000 0.031870 -0.000460 0.000000 0.031197 0.000487 0.000000 0.030807 -0.000689 0.000000 0.032525 0.000432 0.000000 0.029872 -0.000337 0.000000 0.033012 -0.000430 0.000000 0.030675 0.000501 0.000000 0.031829 -0.000994 0.000000 0.032419 -0.000061 0.000000 0.031441 -0.000189 0.000000 0.032845 0.000342 0.000000 0.031277 0.000867 0.000000 0.031309 -0.000628 0.000000 0.032653 0.000642 0.000000 0.030116 -0.000108 0.000000 0.033062 -0.000130 0.000000 0.030401 0.000578 0.000000 0.031979 -0.000582 0.000000 0.031585 0.000536 0.000000 0.030882 -0.000373 0.000000 0.032383 0.000040 0.000000 0.030755 0.000423 0.000000 0.031548 -0.000600 0.000000 0.031952 0.000592 0.000000 0.030361 -0.000471 0.000000 0.032923 0.000236 0.000000 0.029874 0.000278 0.000000 0.032368 -0.000561 0.000000 0.031015 0.000628 0.000000 0.031117 -0.000527 0.000000 0.032093 0.000370 0.000000 0.030371 0.000114 0.000000 0.031850 -0.000498 0.000000 0.031392 0.000632 0.000000 0.030582 -0.000564 0.000000 0.032534 0.000466 0.000000 0.029649 -0.000035 0.000000 0.032587 -0.000378 0.000000 0.030437 0.000623 0.000000 0.031325 -0.000568 0.000000 0.031579 0.000517 0.000000 0.030290 -0.000204 0.000000 0.031969 -0.000214 0.000000 0.030748 0.000563 0.000000 0.030815 -0.000584 0.000000 0.031922 0.000557 0.000000 0.029694 -0.000339 0.000000 0.032588 0.000001 0.000000 0.029708 0.000480 0.000000 0.031578 -0.000619 0.000000 0.030956 0.000594 0.000000 0.030387 -0.000455 0.000000 0.031867 0.000176 0.000000 0.030064 0.000389 0.000000 0.031034 -0.000595 0.000000 0.031302 0.000661 0.000000 0.029720 -0.000474 0.000000 0.032282 0.000315 0.000000 0.029129 0.000288 0.000000 0.031688 -0.000550 0.000000 0.030300 0.000717 0.000000 0.030302 -0.000490 0.000000 0.031324 0.000522 0.000000 0.029357 0.000255 0.000000 0.030795 -0.000462 0.000000 0.030532 0.000296 0.000000 0.030548 -0.000037 0.000000 0.031429 0.003830 0.000000 0.023639 0.006510 0.000000 0.018757 0.005115 0.000000 0.013762 0.004871 0.000000 0.009956 0.005138 0.000000 0.004377 0.006470 0.000000 
-0.002583 0.015566 0.000000 -0.009260 0.021122 0.000000 -0.021136 0.030660 0.000000 -0.037164 0.042677 0.000000 -0.064020 0.059078 0.000000 -0.103449 0.050013 0.000000 -0.107418 -0.000489 0.000000 -0.074599 0.011910 0.000000 -0.109849 0.015677 0.000000 -0.065607 0.006875 0.000000 -0.087285 0.066550 0.000000 -0.074585 0.021794 0.000000 -0.012945 0.091842 0.000000 -0.025455 0.151710 0.000000 -0.006571 -0.023629 0.000000 0.063551 0.014776 0.000000 0.022300 0.038119 0.000000 0.032112 -0.046023 0.000000 0.070023 0.033681 0.000000 -0.034875 -0.070948 0.000000 0.035957 -0.157088 0.000000 -0.007970 0.012188 0.000000 -0.108523 -0.101273 0.000000 -0.010720 -0.059392 0.000000 -0.125877 0.008343 0.000000 -0.051850 -0.079807 0.000000 -0.048689 0.047492 0.000000 -0.120354 -0.046888 0.000000 -0.005984 -0.002640 0.000000 -0.120333 0.010771 0.000000 -0.027244 -0.047987 0.000000 -0.063914 0.043053 0.000000 -0.087333 -0.047712 0.000000 -0.007497 0.007609 0.000000 -0.098531 0.002882 0.000000 -0.015529 -0.031770 0.000000 -0.062579 0.034665 0.000000 -0.063018 -0.047007 0.000000 -0.005350 0.013665 0.000000 -0.081712 -0.003427 0.000000 -0.005602 -0.021023 0.000000 -0.058669 0.026016 0.000000 -0.041331 -0.041934 0.000000 -0.006609 0.016760 0.000000 -0.064340 -0.007933 0.000000 -0.000441 -0.013137 0.000000 -0.050702 0.018058 0.000000 -0.025036 -0.034759 0.000000 -0.007501 0.017828 0.000000 -0.049488 -0.010744 0.000000 0.003258 -0.007043 0.000000 -0.042640 0.011405 0.000000 -0.012313 -0.027024 0.000000 -0.009757 0.017111 0.000000 -0.035903 -0.013192 0.000000 0.004799 -0.002758 0.000000 -0.034133 0.006188 0.000000 -0.003676 -0.018901 0.000000 -0.012197 0.015427 0.000000 -0.024732 -0.015144 0.000000 0.005850 0.001101 0.000000 -0.028103 0.002649 0.000000 0.001822 -0.015974 0.000000 -0.010059 0.012062 0.000000 -0.015182 -0.009658 0.000000 0.001926 0.004985 0.000000 -0.021211 -0.001491 0.000000 0.005175 -0.008817 0.000000 -0.011320 0.009946 0.000000 -0.007427 -0.013271 0.000000 0.005681 0.004219 0.000000 -0.013800 -0.001268 0.000000 0.007235 -0.005652 0.000000 -0.008542 0.006791 0.000000 -0.000972 -0.011435 0.000000 0.005519 0.004645 0.000000 -0.008052 -0.002261 0.000000 0.008416 -0.003644 0.000000 -0.005265 0.004596 0.000000 0.003241 -0.009158 0.000000 0.005377 0.004526 0.000000 -0.003461 -0.003060 0.000000 0.009384 -0.002338 0.000000 -0.002185 0.002645 0.000000 0.006789 -0.006993 0.000000 0.005097 0.003960 0.000000 0.001258 -0.004002 0.000000 0.010240 -0.001456 0.000000 0.001376 0.001153 0.000000 0.009512 -0.005278 0.000000 0.005873 0.003343 0.000000 0.005163 -0.004781 0.000000 0.011521 -0.000593 0.000000 0.003774 0.000674 0.000000 0.011710 -0.004664 0.000000 0.006908 0.002367 0.000000 0.007459 -0.002917 0.000000 0.010729 0.001924 0.000000 0.005703 0.000811 0.000000 0.011951 -0.002676 0.000000 0.007400 0.003112 0.000000 0.009599 -0.003111 0.000000 0.011622 0.001070 0.000000 0.007336 0.000381 0.000000 0.012604 -0.001780 0.000000 0.007871 0.002395 0.000000 0.010979 -0.003115 0.000000 0.011194 0.001174 0.000000 0.008636 -0.000137 0.000000 0.012538 -0.001502 0.000000 0.008777 0.001735 0.000000 0.011768 -0.002895 0.000000 0.011234 0.001255 0.000000 0.009808 -0.000745 0.000000 0.013097 -0.001252 0.000000 0.009655 0.001126 0.000000 0.013108 -0.002587 0.000000 0.011242 0.001435 0.000000 0.011561 -0.001422 0.000000 0.013624 -0.000898 0.000000 0.010888 0.000748 0.000000 0.014107 -0.002362 0.000000 0.011776 0.001593 0.000000 0.012658 -0.002093 0.000000 0.014287 -0.000465 0.000000 0.011133 0.000741 0.000000 0.014891 -0.002700 0.000000 0.011782 0.000917 0.000000 0.012972 -0.001336 0.000000 0.013490 0.001472 0.000000 0.011765 0.001099 0.000000 0.014826 -0.001414 0.000000 0.011836 0.002231 0.000000 0.013972 -0.001509 0.000000 0.013954 0.001000 0.000000 0.011931 0.000587 0.000000 0.015120 -0.000843 0.000000 0.011336 0.001999 0.000000 0.014356 -0.001862 0.000000 0.013068 0.001485 0.000000 0.011936 0.000099 0.000000 0.014521 -0.000570 0.000000 0.011022 0.001758 0.000000 0.014021 -0.001835 0.000000 0.012232 0.001938 0.000000 0.011672 -0.000508 0.000000 0.014145 -0.000350 0.000000 0.010510 0.001473 0.000000 0.013978 -0.001764 0.000000 0.011302 0.002075 0.000000 0.011981 -0.001047 0.000000 0.013421 -0.000199 0.000000 0.010641 0.001130 0.000000 0.013546 -0.001758 0.000000 0.011083 0.001878 0.000000 0.011927 -0.001602 0.000000 0.012992 -0.000220 0.000000 0.010371 0.000962 0.000000 0.013196 -0.002415 0.000000 0.010863 0.000722 0.000000 0.011575 -0.000878 0.000000 0.011786 0.000995 0.000000 0.011229 0.001293 0.000000 0.012630 -0.001430 0.000000 0.011516 0.001639 0.000000 0.012425 -0.000844 0.000000 0.012353 0.000067 0.000000 0.011927 0.000802 0.000000 0.012900 -0.001176 0.000000 0.011856 0.001212 0.000000 0.012945 -0.001174 0.000000 0.012220 0.000252 0.000000 0.012598 0.000459 0.000000 0.012743 -0.001169 0.000000 0.012418 0.001096 0.000000 0.012952 -0.001277 0.000000 0.012538 0.000561 0.000000 0.012830 0.000174 0.000000 0.013000 -0.001085 0.000000 0.012596 0.001066 0.000000 0.013306 -0.001308 0.000000 0.012555 0.000799 0.000000 0.013323 -0.000141 0.000000 0.012900 -0.000950 0.000000 0.013036 0.000995 0.000000 0.013205 -0.001382 0.000000 0.012850 0.000876 0.000000 0.013191 -0.000652 0.000000 0.012977 -0.000868 0.000000 0.012759 0.001055 0.000000 0.013052 -0.001953 0.000000 0.012467 0.000088 0.000000 0.012583 -0.000410 0.000000 0.012456 0.000476 0.000000 0.013223 0.001723 0.000000 0.012553 -0.001296 0.000000 0.013302 0.001287 0.000000 0.013034 -0.000245 0.000000 0.012974 -0.000263 0.000000 0.013507 0.001163 0.000000 0.012920 -0.001156 0.000000 0.013383 0.001091 0.000000 0.013268 -0.000754 0.000000 0.012946 0.000095 0.000000 0.013687 0.000864 0.000000 0.012706 -0.001203 0.000000 0.013576 0.001182 0.000000 0.012969 -0.000953 0.000000 0.013166 0.000470 0.000000 0.013389 0.000573 0.000000 0.012816 -0.001144 0.000000 0.013357 0.001251 0.000000 0.013005 -0.001067 0.000000 0.012996 0.000736 0.000000 0.013416 0.000250 0.000000 0.012562 -0.001027 0.000000 0.013497 0.001267 0.000000 0.012680 -0.001140 0.000000 0.013201 0.000929 0.000000 0.013084 -0.000047 0.000000 0.012718 -0.000790 0.000000 0.013292 0.001262 0.000000 0.012745 -0.001141 0.000000 0.013063 0.001031 0.000000 0.013102 -0.000389 0.000000 0.012555 -0.000462 0.000000 0.013424 0.001151 0.000000 0.012430 -0.001177 0.000000 0.013258 0.001116 0.000000 0.012706 -0.000670 0.000000 0.012776 -0.000022 0.000000 0.013137 0.001003 0.000000 0.012433 -0.001256 0.000000 0.013085 0.001183 0.000000 0.012639 -0.000917 0.000000 0.012649 0.000320 0.000000 0.013157 0.000832 0.000000 0.012127 -0.001238 0.000000 0.013241 0.001317 0.000000 0.012271 -0.000978 0.000000 0.012850 0.000594 0.000000 0.012827 0.000599 0.000000 0.012153 -0.001167 0.000000 0.013081 0.001390 0.000000 0.012174 -0.001021 0.000000 0.012799 0.000947 0.000000 0.012739 0.000531 0.000000 0.012075 -0.001174 0.000000 0.013097 0.000246 0.000000 0.012178 -0.000896 0.000000 0.013790 0.006909 0.000000 0.014797 0.012671 0.000000 0.012257 0.009876 0.000000 0.010442 0.008801 0.000000 0.006831 0.009385 0.000000 0.003577 0.011507 0.000000 
0.008043 0.021290 0.000000 0.003918 0.030135 0.000000 -0.000559 0.043726 0.000000 -0.007132 0.064068 0.000000 -0.013932 0.092179 0.000000 -0.024714 0.067702 0.000000 -0.014111 -0.027003 0.000000 -0.001480 0.008418 0.000000 -0.011191 -0.004240 0.000000 0.013110 -0.022227 0.000000 0.013125 0.030502 0.000000 0.046307 -0.068731 0.000000 0.067812 -0.023559 0.000000 0.065878 0.040424 0.000000 0.108369 -0.106552 0.000000 0.044878 -0.030200 0.000000 0.121706 0.051569 0.000000 0.081941 -0.069014 0.000000 0.077807 0.093385 0.000000 0.116459 0.010505 0.000000 0.005857 -0.079824 0.000000 0.121892 0.163644 0.000000 0.037879 -0.038967 0.000000 0.043306 -0.002228 0.000000 -0.012991 0.046057 0.000000 0.005015 -0.109780 0.000000 0.007529 0.088564 0.000000 -0.022771 -0.063194 0.000000 0.014552 -0.001759 0.000000 -0.026111 0.026401 0.000000 0.003389 -0.079229 0.000000 -0.009095 0.078919 0.000000 -0.019314 -0.078734 0.000000 0.007492 0.014854 0.000000 -0.024137 0.008415 0.000000 0.002939 -0.050948 0.000000 -0.013204 0.062313 0.000000 -0.015013 -0.078540 0.000000 0.004610 0.024757 0.000000 -0.022612 -0.002099 0.000000 0.003365 -0.033137 0.000000 -0.016404 0.047011 0.000000 -0.009839 -0.071030 0.000000 0.000389 0.030451 0.000000 -0.018843 -0.010564 0.000000 0.001859 -0.019909 0.000000 -0.015947 0.032437 0.000000 -0.006885 -0.058873 0.000000 -0.001920 0.032286 0.000000 -0.016296 -0.016259 0.000000 0.001778 -0.010173 0.000000 -0.015573 0.020571 0.000000 -0.003627 -0.045107 0.000000 -0.005688 0.031125 0.000000 -0.012897 -0.020947 0.000000 -0.000932 -0.002936 0.000000 -0.014455 0.011185 0.000000 -0.003456 -0.030592 0.000000 -0.008574 0.027880 0.000000 -0.011284 -0.025062 0.000000 -0.002237 0.003892 0.000000 -0.014393 0.005095 0.000000 -0.002520 -0.025275 0.000000 -0.010479 0.022349 0.000000 -0.009132 -0.016214 0.000000 -0.005907 0.008579 0.000000 -0.012024 -0.003866 0.000000 -0.003030 -0.013888 0.000000 -0.010497 0.016932 0.000000 -0.006616 -0.022909 0.000000 -0.004618 0.008317 0.000000 -0.010411 -0.002315 0.000000 -0.002779 -0.007899 0.000000 -0.010735 0.011228 0.000000 -0.004482 -0.019167 0.000000 -0.006414 0.009149 0.000000 -0.008297 -0.004091 0.000000 -0.004000 -0.004497 0.000000 -0.009493 0.007221 0.000000 -0.004343 -0.014780 0.000000 -0.006862 0.008676 0.000000 -0.007600 -0.005539 0.000000 -0.004102 -0.002376 0.000000 -0.009319 0.003749 0.000000 -0.003387 -0.010523 0.000000 -0.008410 0.007238 0.000000 -0.005604 -0.007061 0.000000 -0.005574 -0.000813 0.000000 -0.007815 0.001189 0.000000 -0.004107 -0.007020 0.000000 -0.008420 0.005796 0.000000 -0.005251 -0.007876 0.000000 -0.006106 0.001067 0.000000 -0.008137 0.000081 0.000000 -0.003570 -0.005338 0.000000 -0.009849 0.005218 0.000000 -0.005818 -0.005064 0.000000 -0.008311 0.002791 0.000000 -0.006494 -0.000771 0.000000 -0.005109 -0.002927 0.000000 -0.008671 0.003769 0.000000 -0.004095 -0.005574 0.000000 -0.007096 0.002710 0.000000 -0.006328 -0.000818 0.000000 -0.004506 -0.001402 0.000000 -0.008449 0.002707 0.000000 -0.003054 -0.004725 0.000000 -0.008090 0.002815 0.000000 -0.004946 -0.001424 0.000000 -0.005639 -0.000883 0.000000 -0.007225 0.001566 0.000000 -0.003795 -0.003803 0.000000 -0.007830 0.002483 0.000000 -0.004872 -0.002216 0.000000 -0.005575 -0.000467 0.000000 -0.007260 0.000514 0.000000 -0.003423 -0.002832 0.000000 -0.008714 0.002180 0.000000 -0.003487 -0.003035 0.000000 -0.006811 0.000220 0.000000 -0.006084 -0.000132 0.000000 -0.004401 -0.002052 0.000000 -0.008195 0.002170 0.000000 -0.003826 -0.003480 0.000000 -0.007063 0.001248 0.000000 -0.006663 -0.000251 0.000000 -0.004064 -0.001974 0.000000 -0.009533 0.002222 0.000000 -0.004884 -0.002282 0.000000 -0.008940 0.001999 0.000000 -0.005218 -0.000727 0.000000 -0.005446 -0.000749 0.000000 -0.008065 0.001911 0.000000 -0.003481 -0.002749 0.000000 -0.007628 0.002463 0.000000 -0.005350 -0.000848 0.000000 -0.004833 0.000167 0.000000 -0.007915 0.001719 0.000000 -0.002765 -0.002562 0.000000 -0.008467 0.003065 0.000000 -0.004170 -0.001364 0.000000 -0.005956 0.000621 0.000000 -0.006770 0.001355 0.000000 -0.003798 -0.002064 0.000000 -0.008041 0.003227 0.000000 -0.004279 -0.002098 0.000000 -0.005886 0.000983 0.000000 -0.006924 0.000887 0.000000 -0.003585 -0.001633 0.000000 -0.008709 0.002962 0.000000 -0.003223 -0.002564 0.000000 -0.007128 0.001236 0.000000 -0.005816 0.000421 0.000000 -0.004757 -0.001297 0.000000 -0.008008 0.002496 0.000000 -0.003862 -0.002645 0.000000 -0.007403 0.001408 0.000000 -0.006337 0.000244 0.000000 -0.004695 -0.001675 0.000000 -0.009244 0.001832 0.000000 -0.005162 -0.001313 0.000000 -0.009270 0.000920 0.000000 -0.004808 -0.000167 0.000000 -0.006206 -0.000970 0.000000 -0.007439 0.000981 0.000000 -0.003970 -0.001204 0.000000 -0.007956 0.000500 0.000000 -0.004807 -0.000146 0.000000 -0.005741 -0.000512 0.000000 -0.007100 0.000533 0.000000 -0.003482 -0.000925 0.000000 -0.008611 0.000439 0.000000 -0.003513 -0.000290 0.000000 -0.006920 -0.000402 0.000000 -0.005850 0.000326 0.000000 -0.004554 -0.000745 0.000000 -0.007868 0.000386 0.000000 -0.003697 -0.000370 0.000000 -0.006770 -0.000300 0.000000 -0.005967 0.000220 0.000000 -0.004304 -0.000607 0.000000 -0.008284 0.000377 0.000000 -0.002815 -0.000418 0.000000 -0.007879 -0.000173 0.000000 -0.004886 0.000182 0.000000 -0.005449 -0.000502 0.000000 -0.007440 0.000445 0.000000 -0.003670 -0.000464 0.000000 -0.007986 0.000003 0.000000 -0.005440 0.000427 0.000000 -0.005398 -0.000702 0.000000 -0.008723 0.000408 0.000000 -0.005125 -0.000177 0.000000 -0.009500 -0.000298 0.000000 -0.004043 0.000770 0.000000 -0.006915 -0.000707 0.000000 -0.006771 0.000161 0.000000 -0.004265 0.000220 0.000000 -0.008145 -0.000604 0.000000 -0.004127 0.000631 0.000000 -0.006391 -0.000458 0.000000 -0.006443 0.000189 0.000000 -0.003915 0.000065 0.000000 -0.008575 -0.000379 0.000000 -0.003012 0.000663 0.000000 -0.007514 -0.000488 0.000000 -0.005279 0.000329 0.000000 -0.005004 -0.000061 0.000000 -0.007673 -0.000184 0.000000 -0.003459 0.000628 0.000000 -0.007293 -0.000528 0.000000 -0.005499 0.000439 0.000000 -0.004805 -0.000166 0.000000 -0.008016 -0.000041 0.000000 -0.002818 0.000547 0.000000 -0.008336 -0.000579 0.000000 -0.004467 0.000514 0.000000 -0.005948 -0.000269 0.000000 -0.006995 0.000062 0.000000 -0.003635 0.000447 0.000000 -0.007908 -0.000585 0.000000 -0.004655 0.000597 0.000000 -0.005684 -0.000339 0.000000 -0.007061 0.000160 0.000000 -0.003269 0.000304 0.000000 -0.008622 -0.000537 0.000000 -0.003524 0.000689 0.000000 -0.006860 -0.000418 0.000000 -0.005875 0.000281 0.000000 -0.004432 0.000143 0.000000 -0.007900 -0.000430 0.000000 -0.003737 0.000823 0.000000 -0.006756 -0.000566 0.000000 -0.006026 0.000389 0.000000 -0.004344 -0.000019 0.000000 -0.008426 -0.000342 0.000000 -0.002907 0.000911 0.000000 -0.007891 -0.000680 0.000000 -0.004923 0.000517 0.000000 -0.005383 -0.000082 0.000000 -0.007354 -0.000241 0.000000 -0.003422 0.000985 0.000000 -0.007520 -0.000804 0.000000 -0.005052 0.000695 0.000000 -0.005097 -0.000208 0.000000 -0.007425 -0.000043 0.000000 -0.002508 0.000979 0.000000 -0.007858 -0.000820 0.000000 -0.004051 0.000194 0.000000 -0.007715 -0.000730 0.000000 -0.005549 0.001211 0.000000 0.006498 0.008043 0.000000 0.011329 0.009470 0.000000 0.012856 0.010296 0.000000 0.012612 0.012003 0.000000 0.010541 0.015884 0.000000 