# vtk DataFile Version 2.0
Comment goes here
ASCII

DATASET STRUCTURED_POINTS
FIELD FieldData 1
TIME 1 1 double
0.09800000
DIMENSIONS    256   256   1

ORIGIN    0.000   0.000   0.000
SPACING   0.0078125 0.0078125   1.000

POINT_DATA   65536
VECTORS u double

-32.682765 12.280944 0.000000 -129.445052 -27.722042 0.000000 -124.242165 19.213511 0.000000 -57.214633 -8.418019 0.000000 -107.523666 -7.793070 0.000000 -25.167696 26.635058 0.000000 19.434020 -24.431892 0.000000 -38.789187 -1.440756 0.000000 -85.654504 64.463991 0.000000 4.112652 -136.559969 0.000000 -38.450158 -34.068728 0.000000 -20.007602 52.499909 0.000000 -37.554657 101.517236 0.000000 -55.923874 -54.196311 0.000000 -41.219898 -48.461807 0.000000 -66.313722 61.987647 0.000000 -25.966107 14.868401 0.000000 -99.544727 -5.476539 0.000000 -26.446464 -31.439885 0.000000 -64.870669 30.732355 0.000000 -58.754010 -9.657132 0.000000 19.487025 30.416141 0.000000 -67.923594 13.943355 0.000000 -49.910611 25.900366 0.000000 -23.343057 23.075185 0.000000 -44.737845 19.550805 0.000000 -11.310664 -13.215468 0.000000 -11.691181 -23.278612 0.000000 43.297172 38.293229 0.000000 -21.656556 -16.939458 0.000000 47.060219 -40.300701 0.000000 -32.534702 2.173941 0.000000 10.269654 -40.600494 0.000000 -51.376017 -0.955303 0.000000 3.280642 12.785499 0.000000 -23.283021 -10.530450 0.000000 4.429488 38.206319 0.000000 -43.947989 24.749418 0.000000 19.114159 -24.750928 0.000000 -21.755588 -28.559484 0.000000 -10.061124 3.283737 0.000000 7.242866 -20.275127 0.000000 -56.161191 -46.942252 0.000000 3.303337 5.114344 0.000000 -22.514648 -21.731304 0.000000 -15.990385 -26.697798 0.000000 -20.765287 13.692287 0.000000 0.639075 63.116021 0.000000 21.197284 -15.272320 0.000000 0.138752 -86.483318 0.000000 1.783382 -42.685458 0.000000 5.689168 6.605357 0.000000 -30.869809 -7.299642 0.000000 2.981568 -55.731226 0.000000 23.341083 18.832027 0.000000 11.763301 28.435740 0.000000 -26.385381 8.070686 0.000000 -16.646161 36.730877 0.000000 -26.980121 40.326458 0.000000 -15.273141 7.739316 0.000000 12.767146 72.521629 0.000000 -10.471703 37.175418 0.000000 -18.661415 -8.747769 0.000000 25.301090 32.933241 0.000000 14.851177 24.085444 0.000000 -29.411968 27.010219 0.000000 -12.692598 28.101645 0.000000 0.777043 -36.789177 0.000000 -8.136425 -25.427674 0.000000 -48.459354 22.794946 0.000000 -33.528189 7.226673 0.000000 -20.772358 13.912983 0.000000 -29.658076 30.217920 0.000000 -0.911122 2.233550 0.000000 -24.880344 -41.701747 0.000000 23.355830 -50.321385 0.000000 -22.233653 -3.265790 0.000000 44.599559 79.574293 0.000000 -3.722272 -11.179534 0.000000 -15.697287 -49.990813 0.000000 30.857198 -65.236771 0.000000 36.426885 -70.770210 0.000000 -36.189318 -64.905792 0.000000 31.189553 -35.811167 0.000000 16.993385 7.048516 0.000000 -33.530027 -23.385695 0.000000 2.738195 -30.822832 0.000000 42.030874 28.388918 0.000000 10.348733 25.833098 0.000000 6.747048 -8.827510 0.000000 -3.248328 -20.745563 0.000000 -7.264811 -13.737107 0.000000 -14.903526 -20.315464 0.000000 -2.876799 -9.918798 0.000000 -22.568217 5.872342 0.000000 16.394006 3.097536 0.000000 2.330040 20.055052 0.000000 15.825488 -0.403582 0.000000 -0.499779 3.985997 0.000000 -18.802705 19.350553 0.000000 -27.991288 14.978532 0.000000 4.931970 -28.355417 0.000000 -22.691875 -32.131635 0.000000 36.866937 -10.625040 0.000000 -0.479427 -9.563365 0.000000 32.266643 18.135672 0.000000 14.210974 -8.858076 0.000000 8.626724 7.670762 0.000000 -4.988464 5.073163 0.000000 -0.961669 -33.752402 0.000000 -80.811046 -46.338859 0.000000 -9.647620 -3.645449 0.000000 -33.817325 32.218818 0.000000 -3.415216 6.409473 0.000000 -56.590812 12.905626 0.000000 -50.946926 -5.737105 0.000000 -20.546012 6.220534 0.000000 -29.661088 -41.230752 0.000000 -18.211400 -39.452092 0.000000 -4.608135 -12.392237 0.000000 -0.473677 29.142583 0.000000 11.611486 18.365293 0.000000 -3.989435 -30.492443 0.000000 12.121022 -29.002721 0.000000 32.007294 -20.148832 0.000000 27.133787 -35.649370 0.000000 42.306629 -26.375817 0.000000 36.905588 9.988628 0.000000 0.337025 8.744712 0.000000 15.835998 16.283751 0.000000 13.642134 10.883832 0.000000 -3.178071 -16.559893 0.000000 11.708528 -31.596781 0.000000 -36.686943 -13.131356 0.000000 -21.832967 46.417424 0.000000 14.867269 -0.878331 0.000000 5.962263 9.621349 0.000000 8.377123 14.013127 0.000000 57.259441 45.030697 0.000000 -13.064915 32.021850 0.000000 30.372727 -88.163139 0.000000 14.748881 -15.215258 0.000000 34.278836 -38.256612 0.000000 -20.483551 -3.630316 0.000000 -30.573899 4.552802 0.000000 64.770056 -27.787247 0.000000 -22.308840 -2.776799 0.000000 35.735069 -56.695272 0.000000 7.003915 -19.167291 0.000000 -39.003214 32.183487 0.000000 -81.002707 -26.360522 0.000000 4.818814 -96.436369 0.000000 -44.636091 -2.883965 0.000000 -11.766712 34.139779 0.000000 17.260641 -19.314268 0.000000 15.089086 18.829542 0.000000 16.687550 27.144949 0.000000 -40.104754 33.749046 0.000000 18.705754 4.474469 0.000000 -48.263035 -30.818488 0.000000 -35.741307 -3.320713 0.000000 -64.862849 0.459944 0.000000 -6.147972 -5.286597 0.000000 4.494140 -13.603520 0.000000 -11.060754 5.140336 0.000000 -38.060106 32.727642 0.000000 -56.595261 -5.962048 0.000000 -53.248662 12.339827 0.000000 -75.956015 26.404869 0.000000 -42.507068 -28.335005 0.000000 -43.059005 -52.345810 0.000000 -7.018129 -10.797514 0.000000 -6.440377 -10.231401 0.000000 13.258161 -16.252863 0.000000 1.919456 19.567028 0.000000 37.356610 10.052943 0.000000 11.571479 22.816706 0.000000 20.919908 31.334514 0.000000 -25.291795 -56.399815 0.000000 -4.886087 -31.236070 0.000000 -49.997971 59.262584 0.000000 -19.943063 38.384786 0.000000 -58.501862 -13.538019 0.000000 -33.198718 -32.298619 0.000000 -79.201763 -21.956338 0.000000 -100.662454 -23.803966 0.000000 -11.142222 -8.764419 0.000000 -109.864265 -4.939184 0.000000 -45.048417 -106.637808 0.000000 -39.940820 -171.678373 0.000000 -7.242922 -36.941070 0.000000 14.178999 -18.477197 0.000000 23.368606 -108.121732 0.000000 35.051130 8.422869 0.000000 -50.554893 -35.167437 0.000000 -46.453824 18.122867 0.000000 -29.059360 0.671125 0.000000 -4.793754 -99.140568 0.000000 25.963306 -23.321300 0.000000 88.128740 20.572435 0.000000 69.331465 -11.238236 0.000000 63.234627 -11.728773 0.000000 1.767541 -70.850208 0.000000 33.894042 -37.028076 0.000000 31.586232 1.691367 0.000000 66.566008 -69.787205 0.000000 45.944201 -82.880633 0.000000 92.884380 -31.541840 0.000000 70.020364 18.255579 0.000000 49.881271 -9.560914 0.000000 18.436340 -68.437094 0.000000 39.424453 -94.844107 0.000000 57.668513 -59.398649 0.000000 47.485826 -78.882215 0.000000 -26.847294 -75.344120 0.000000 16.081572 -56.111767 0.000000 63.601693 -38.717974 0.000000 62.980693 -27.881150 0.000000 9.204304 -67.915058 0.000000 -6.239896 -42.398016 0.000000 -58.947930 -18.500092 0.000000 -44.358929 -99.485022 0.000000 -81.336912 -76.866909 0.000000 -3.695531 -58.800924 0.000000 -39.300901 -53.379307 0.000000 -18.714856 -48.809820 0.000000 13.347669 -45.026722 0.000000 13.830671 -24.465757 0.000000 -5.056506 42.276783 0.000000 34.124949 -42.579164 0.000000 18.593625 -46.775019 0.000000 -7.640380 7.298959 0.000000 -14.137036 -55.882429 0.000000 3.706233 -107.069548 0.000000 -48.444839 -23.247921 0.000000 41.648403 -75.738091 0.000000 -71.476398 -51.302445 0.000000 5.599117 0.405994 0.000000 -24.039584 -51.440073 0.000000 -58.765792 -88.154944 0.000000 -49.378994 -46.444933 0.000000 -48.395366 -3.724948 0.000000 1.325822 -56.902462 0.000000 16.915899 -25.058604 0.000000 4.832149 -2.813371 0.000000 13.302883 -81.314064 0.000000 -8.865763 54.860017 0.000000 68.339806 -98.572043 0.000000 -93.934971 -27.001832 0.000000 -1.115529 84.886846 0.000000 -42.751707 -28.228437 0.000000 -141.195614 -12.031137 0.000000 -25.603953 81.052772 0.000000 -97.980492 22.463775 0.000000 15.284905 -81.559113 0.000000 -57.946800 -12.851552 0.000000 
-79.869619 83.365806 0.000000 -164.597807 32.346518 0.000000 -115.549155 -85.343006 0.000000 -95.146854 -68.963903 0.000000 -122.468890 -42.517021 0.000000 -63.910505 -89.361668 0.000000 -99.970988 39.897751 0.000000 -81.016742 97.027741 0.000000 -58.127178 -36.033728 0.000000 -21.275966 -69.322687 0.000000 -125.560069 -11.196467 0.000000 -63.833289 -55.343777 0.000000 -69.568384 22.708086 0.000000 -21.373836 -8.153082 0.000000 -123.389995 13.125058 0.000000 -84.718346 32.811056 0.000000 -44.011430 25.007413 0.000000 -52.428821 -32.046261 0.000000 -72.094223 -50.586472 0.000000 -74.361449 74.125537 0.000000 -91.172468 12.862115 0.000000 -67.189835 25.877862 0.000000 -74.504324 63.750667 0.000000 -61.226311 11.189913 0.000000 -34.831785 -33.924480 0.000000 -45.296976 -44.113324 0.000000 -13.629824 -63.355621 0.000000 11.316966 -36.149981 0.000000 25.388819 29.118947 0.000000 26.103878 43.245091 0.000000 -13.193103 16.781871 0.000000 24.326285 12.512803 0.000000 -24.421483 7.258880 0.000000 -30.522730 16.661399 0.000000 -30.705857 2.242631 0.000000 9.533105 24.133932 0.000000 -36.973162 17.790375 0.000000 29.582841 -28.573391 0.000000 55.829644 -4.671567 0.000000 2.449987 -24.850911 0.000000 -10.353422 -44.006837 0.000000 -25.059008 36.260481 0.000000 -27.948211 -0.374043 0.000000 -27.077630 -25.872213 0.000000 -32.955540 -3.246784 0.000000 -1.413746 -48.323403 0.000000 -22.273777 -15.636500 0.000000 5.406850 21.879566 0.000000 17.646212 0.412221 0.000000 -28.218806 3.753481 0.000000 -102.224736 6.993516 0.000000 -93.803540 16.403138 0.000000 -12.184277 -39.967170 0.000000 -9.648720 -56.848818 0.000000 -54.992309 -3.851018 0.000000 5.742568 41.339203 0.000000 -117.668309 74.364066 0.000000 -32.300298 35.679102 0.000000 -89.557649 14.042104 0.000000 -11.341363 -17.684974 0.000000 -57.426365 38.929251 0.000000 62.409494 22.529307 0.000000 16.035371 -28.767992 0.000000 -1.798366 -1.247581 0.000000 11.395744 42.002572 0.000000 -3.508716 -4.238713 0.000000 43.840733 -26.848376 0.000000 42.461206 2.280473 0.000000 -19.753374 19.741521 0.000000 -2.612723 -7.654984 0.000000 -21.323661 -25.742467 0.000000 -15.234736 10.535916 0.000000 3.820203 -4.229556 0.000000 43.527180 22.404352 0.000000 -27.404229 -0.115421 0.000000 -62.616136 -40.023226 0.000000 -52.992477 -35.884057 0.000000 0.498531 24.615153 0.000000 59.247054 11.238708 0.000000 38.375456 -62.763229 0.000000 55.911154 -62.877450 0.000000 32.958823 6.851534 0.000000 -6.201350 -41.736728 0.000000 -48.578371 -45.908143 0.000000 -24.622581 56.587410 0.000000 -14.923978 -5.114697 0.000000 -17.377812 -89.513491 0.000000 -3.499831 -14.454533 0.000000 33.102269 35.841735 0.000000 15.517350 -7.736652 0.000000 -28.041652 -26.375040 0.000000 18.532690 12.814449 0.000000 -5.027921 -28.566288 0.000000 -3.555019 -0.086128 0.000000 -9.320896 -6.704711 0.000000 9.395996 -39.268393 0.000000 31.091758 5.679571 0.000000 -1.112575 9.564764 0.000000 10.738410 12.897411 0.000000 -11.059443 13.061541 0.000000 16.858639 9.338225 0.000000 -9.231754 5.840217 0.000000 0.990773 -28.001600 0.000000 9.981279 -43.365084 0.000000 32.284585 -39.029323 0.000000 12.972472 -45.898315 0.000000 37.677227 -9.764062 0.000000 -7.387586 13.626168 0.000000 11.843085 37.416946 0.000000 0.292352 -1.750710 0.000000 -7.947759 -37.844226 0.000000 -57.659822 19.837026 0.000000 -29.585694 14.379817 0.000000 -16.201513 5.592628 0.000000 15.687791 17.845506 0.000000 3.906851 -63.121911 0.000000 9.774649 17.420058 0.000000 -2.069735 5.592772 0.000000 -6.577608 -52.500575 0.000000 9.321063 -19.232961 0.000000 10.838815 -13.989176 0.000000 49.362105 -0.418923 0.000000 40.122669 -23.523868 0.000000 22.553182 -23.012627 0.000000 28.605156 -2.029147 0.000000 33.105499 -33.933334 0.000000 15.093902 11.114645 0.000000 3.950613 27.881357 0.000000 7.030578 -23.065269 0.000000 26.485494 -16.844428 0.000000 14.777295 -26.836266 0.000000 8.002132 -30.920800 0.000000 25.315582 20.167386 0.000000 -18.233837 3.924193 0.000000 -20.848213 6.940207 0.000000 -34.386349 13.095351 0.000000 -33.745809 23.632783 0.000000 -29.749995 -52.983529 0.000000 -45.127600 2.770233 0.000000 33.708836 40.004466 0.000000 -30.272718 -18.675069 0.000000 1.966418 -14.554641 0.000000 36.239092 20.200319 0.000000 -35.772357 37.798063 0.000000 54.493018 -81.661919 0.000000 -19.077937 -13.541479 0.000000 -1.761092 34.439646 0.000000 -23.601527 -33.757798 0.000000 -59.723781 -21.412526 0.000000 -49.481400 53.273962 0.000000 38.900567 -13.022892 0.000000 -50.829617 -61.127346 0.000000 -62.185257 -38.868809 0.000000 -34.249285 -19.079623 0.000000 -46.715928 -25.217220 0.000000 -26.695885 28.637419 0.000000 -14.263781 62.750791 0.000000 -14.562357 -0.654075 0.000000 12.428736 -24.418401 0.000000 -48.194487 16.492516 0.000000 12.589457 15.573854 0.000000 -25.674135 -37.525055 0.000000 2.845205 -43.827456 0.000000 -22.673410 -32.895595 0.000000 -57.110941 30.915001 0.000000 -38.492765 65.667257 0.000000 0.787201 -8.728943 0.000000 -3.253337 -13.411659 0.000000 8.963595 32.235302 0.000000 5.663185 -34.215089 0.000000 -6.024146 -70.378327 0.000000 3.425312 -21.896303 0.000000 26.027873 22.896952 0.000000 -2.364733 -4.110776 0.000000 7.028607 -30.275158 0.000000 41.932115 1.125629 0.000000 18.082981 -41.293509 0.000000 67.868432 36.953369 0.000000 -11.173918 27.660490 0.000000 -34.210165 -14.061936 0.000000 -4.451595 4.941115 0.000000 63.490618 3.379015 0.000000 38.883338 -7.490009 0.000000 69.611056 28.890207 0.000000 9.742610 8.580819 0.000000 -26.535652 -118.920557 0.000000 -86.585848 -20.580123 0.000000 -53.528520 -35.642274 0.000000 -30.970351 -106.754390 0.000000 -100.216763 -126.206164 0.000000 -79.391169 -88.116835 0.000000 19.017420 -71.883226 0.000000 -9.026350 -131.807728 0.000000 6.274490 33.388015 0.000000 70.418165 28.522327 0.000000 25.591704 -8.985823 0.000000 98.563899 -35.771683 0.000000 33.433311 -59.650289 0.000000 -24.088107 -56.306567 0.000000 55.530057 7.582458 0.000000 73.989724 -19.075325 0.000000 43.708039 7.812253 0.000000 -21.043101 -8.926975 0.000000 2.506522 -83.040327 0.000000 4.814657 -17.382144 0.000000 46.025536 -63.589112 0.000000 27.846621 -69.555519 0.000000 44.434197 -43.848525 0.000000 19.208306 -49.321312 0.000000 73.174540 4.877237 0.000000 81.391954 -27.540483 0.000000 67.309234 -98.126440 0.000000 42.321602 -23.197545 0.000000 53.595347 -7.754378 0.000000 7.346912 -80.349659 0.000000 29.348996 -131.442908 0.000000 39.480452 -70.880773 0.000000 44.199206 -27.783076 0.000000 46.374954 -17.487810 0.000000 -30.201673 22.564244 0.000000 -38.447204 -20.969930 0.000000 -18.413327 -125.277466 0.000000 0.994604 -139.134201 0.000000 13.738821 -58.347084 0.000000 -23.462430 31.966511 0.000000 -18.601421 -60.350772 0.000000 -33.237841 -107.720518 0.000000 -29.305911 -21.709724 0.000000 12.409338 -40.068541 0.000000 59.557312 -74.661837 0.000000 -29.347253 29.191538 0.000000 31.169059 -37.860082 0.000000 47.942473 -76.841269 0.000000 28.872091 -31.965691 0.000000 -9.731411 -60.304668 0.000000 44.121707 -50.797725 0.000000 -19.487677 13.642247 0.000000 18.225532 -29.742606 0.000000 7.357246 18.969267 0.000000 -27.454747 -0.361639 0.000000 -83.162867 -59.566326 0.000000 10.149899 -103.855543 0.000000 30.046029 -87.112759 0.000000 9.664771 -46.571786 0.000000 87.283956 -13.134998 0.000000 -2.771664 -36.215972 0.000000 -41.221180 -13.482691 0.000000 -32.739296 8.268695 0.000000 -109.968337 8.522432 0.000000 12.470700 -30.257685 0.000000 -125.421562 123.603427 0.000000 -58.392082 68.483061 0.000000 -56.651691 -29.130098 0.000000 -4.233313 -67.542030 0.000000 -66.156906 -28.035011 0.000000 -72.338724 58.236013 0.000000 
-65.245669 104.540027 0.000000 -61.415604 7.957495 0.000000 -66.582617 -50.237442 0.000000 -126.753858 -1.498284 0.000000 -76.365026 -39.029419 0.000000 -117.668998 4.137156 0.000000 -165.030651 -7.325654 0.000000 -49.011191 -43.284567 0.000000 -86.312487 4.723215 0.000000 -84.436737 -69.127077 0.000000 -56.295792 8.488595 0.000000 -116.321394 -3.491776 0.000000 -99.330408 59.057782 0.000000 -103.705951 -0.374700 0.000000 -110.687642 14.882703 0.000000 -33.038769 -17.390918 0.000000 -109.132456 -17.421123 0.000000 -60.834309 22.606255 0.000000 -97.332895 -9.507257 0.000000 -63.955753 49.810600 0.000000 -69.334338 -16.828746 0.000000 -49.424978 13.747997 0.000000 -89.088478 7.979831 0.000000 6.741828 -13.772173 0.000000 -54.736612 7.145850 0.000000 12.981335 -1.651156 0.000000 -25.864685 -69.829410 0.000000 -9.904083 -62.297255 0.000000 -17.626865 23.506317 0.000000 1.196100 21.642464 0.000000 -8.888172 -38.523109 0.000000 -12.203326 13.402320 0.000000 -33.256218 14.248521 0.000000 7.048130 5.329071 0.000000 7.628748 -27.270337 0.000000 -23.228788 -4.263145 0.000000 21.703462 18.156582 0.000000 1.878749 -68.053388 0.000000 15.162702 2.381926 0.000000 15.966585 37.623582 0.000000 -50.325766 30.792733 0.000000 -10.430363 -2.680338 0.000000 -32.040452 -44.923629 0.000000 -29.520001 10.121673 0.000000 -53.120986 -47.395189 0.000000 -54.374664 -37.379562 0.000000 -41.696275 6.871692 0.000000 -24.187525 23.196032 0.000000 -16.947006 18.353336 0.000000 11.610692 33.387630 0.000000 11.082332 22.899276 0.000000 -10.311801 -83.435103 0.000000 12.674745 -91.454463 0.000000 -0.142128 -12.923193 0.000000 -52.018943 3.440739 0.000000 -21.250049 91.111741 0.000000 -60.243856 46.113552 0.000000 -16.194326 8.620217 0.000000 -32.578474 19.367522 0.000000 -14.006521 -24.391968 0.000000 -92.093175 -1.229228 0.000000 27.642286 -36.286318 0.000000 -47.319195 55.460091 0.000000 -9.908766 37.572867 0.000000 -38.406380 25.795794 0.000000 25.470544 -5.434770 0.000000 -21.909164 -17.868277 0.000000 -10.957073 26.804930 0.000000 -20.940684 19.646255 0.000000 -7.723798 24.365232 0.000000 -48.323462 19.848687 0.000000 -29.254506 -11.230881 0.000000 -37.377256 -28.543996 0.000000 -39.212130 33.457981 0.000000 -24.048355 64.441569 0.000000 -34.891658 -24.733137 0.000000 -51.851372 -66.380456 0.000000 -45.258273 -32.665238 0.000000 24.473881 -49.056459 0.000000 32.820032 -46.654914 0.000000 23.717499 -59.820138 0.000000 20.290610 -8.657706 0.000000 10.900466 16.631402 0.000000 -26.599296 -17.389936 0.000000 -16.730150 -26.605877 0.000000 50.055804 -30.630464 0.000000 -21.039217 -42.246980 0.000000 -38.991994 -22.091164 0.000000 -3.528105 6.815917 0.000000 9.802552 52.316411 0.000000 0.825257 -23.760903 0.000000 46.587984 -36.750838 0.000000 25.155689 1.772246 0.000000 17.439172 -5.625823 0.000000 11.490841 -7.078673 0.000000 -17.017558 -37.315118 0.000000 -13.055759 30.563622 0.000000 4.144885 19.949766 0.000000 9.525467 13.932866 0.000000 -7.462840 13.230324 0.000000 17.255032 13.150842 0.000000 9.611620 -12.487551 0.000000 13.198916 -51.344667 0.000000 12.611137 -41.918852 0.000000 4.381973 -12.554559 0.000000 -0.246613 12.743030 0.000000 -33.558912 11.501982 0.000000 -37.574032 33.504905 0.000000 -15.929266 -2.606775 0.000000 2.104564 -13.961559 0.000000 -38.974591 11.613315 0.000000 -46.454616 17.992487 0.000000 -19.092187 -9.239491 0.000000 -24.058479 -38.864012 0.000000 16.116448 -7.202739 0.000000 18.365853 0.176036 0.000000 12.459821 12.197121 0.000000 21.308429 -24.878495 0.000000 18.256952 -50.842891 0.000000 33.719146 -29.808660 0.000000 29.814109 -10.898459 0.000000 58.827546 -10.918561 0.000000 49.622399 -3.683521 0.000000 51.852004 -17.485208 0.000000 32.023853 -30.701149 0.000000 27.913354 -22.138115 0.000000 17.880561 2.779069 0.000000 50.854962 18.051952 0.000000 25.120548 -13.790169 0.000000 34.360171 8.537034 0.000000 -28.727206 29.367194 0.000000 -7.226433 -27.098179 0.000000 -7.282614 -5.360812 0.000000 -10.841798 33.032439 0.000000 -7.262835 62.569936 0.000000 -21.982135 12.019265 0.000000 -1.728108 4.984995 0.000000 1.557035 25.394917 0.000000 -63.355538 -18.428134 0.000000 17.163593 17.166968 0.000000 -39.405447 -56.420721 0.000000 -83.255544 -81.727068 0.000000 -82.702733 -0.517837 0.000000 45.654480 -21.884241 0.000000 -34.679857 -12.141618 0.000000 -41.907677 28.466862 0.000000 -30.772996 1.746792 0.000000 -18.987620 1.267417 0.000000 -44.764871 6.712583 0.000000 -0.139591 -66.440861 0.000000 51.962823 -25.012305 0.000000 -2.957675 4.649455 0.000000 -16.668312 -19.464297 0.000000 -3.585949 18.670450 0.000000 -39.782668 -26.867668 0.000000 -51.578759 -13.622605 0.000000 4.703390 15.011421 0.000000 2.248680 7.056529 0.000000 48.472926 38.106599 0.000000 -19.034178 -30.979208 0.000000 52.437428 -25.841066 0.000000 2.559230 10.204196 0.000000 63.466077 -8.287321 0.000000 -2.676751 46.352626 0.000000 -1.235088 20.959690 0.000000 10.949471 -25.170501 0.000000 51.020614 -41.201476 0.000000 -1.521708 4.163433 0.000000 25.396837 17.488347 0.000000 35.480556 -13.347265 0.000000 7.971374 -50.107937 0.000000 26.370950 -42.849533 0.000000 7.070581 -4.441356 0.000000 9.499301 2.746403 0.000000 -18.556965 -24.729821 0.000000 9.774799 -1.001431 0.000000 0.342652 -3.119611 0.000000 3.885074 60.591413 0.000000 54.469245 45.678782 0.000000 42.423423 -37.958393 0.000000 24.551028 -38.438199 0.000000 -1.587488 -4.950148 0.000000 30.807757 -19.658458 0.000000 21.808521 -3.157891 0.000000 79.793033 74.190370 0.000000 -8.893939 72.524492 0.000000 -57.871169 18.228449 0.000000 23.070137 -60.554681 0.000000 -71.845792 -59.949565 0.000000 -39.521553 -123.257555 0.000000 -107.004152 -156.175253 0.000000 10.928358 -88.842016 0.000000 -71.623753 -95.378802 0.000000 -16.067940 -71.021647 0.000000 71.617221 -54.484652 0.000000 12.771350 -10.022867 0.000000 46.699122 -7.170482 0.000000 -6.352178 23.511438 0.000000 -18.487766 -45.418047 0.000000 -57.815597 -77.505397 0.000000 36.687872 0.583782 0.000000 -33.062289 83.304053 0.000000 45.063392 -29.648691 0.000000 -8.100887 -62.885834 0.000000 43.758727 -41.827647 0.000000 -1.692938 -92.819168 0.000000 19.876138 -81.289294 0.000000 -5.006023 -22.903525 0.000000 -35.466262 -10.484764 0.000000 -17.279207 -71.744562 0.000000 4.975438 -62.571789 0.000000 19.914486 -55.773755 0.000000 39.606280 -45.684761 0.000000 34.615189 -43.907525 0.000000 79.169581 -51.097768 0.000000 33.461675 -88.245307 0.000000 -23.308123 -53.568185 0.000000 3.052229 -34.775652 0.000000 -35.087789 6.485821 0.000000 -6.540277 42.424142 0.000000 6.315133 -30.288438 0.000000 -26.139419 -138.926831 0.000000 6.709713 -109.019056 0.000000 -73.406186 -34.343891 0.000000 2.243249 -21.039065 0.000000 -14.565027 -39.034409 0.000000 -19.026134 -34.322232 0.000000 -38.655927 -70.112936 0.000000 -23.711347 -46.586439 0.000000 -24.830564 -0.822573 0.000000 -29.270076 -18.386767 0.000000 -23.314148 -69.990767 0.000000 -22.134420 -53.585461 0.000000 -40.001304 -49.395664 0.000000 -19.414544 -38.497537 0.000000 -3.888482 -65.981825 0.000000 -32.091212 -25.406269 0.000000 36.518167 -26.438928 0.000000 -20.927096 -5.759795 0.000000 8.784727 2.365169 0.000000 -103.759584 -84.049580 0.000000 6.261934 -116.933845 0.000000 -100.336123 -56.417333 0.000000 41.109752 -82.296531 0.000000 -23.040284 9.623064 0.000000 20.433979 47.191072 0.000000 4.798215 84.827649 0.000000 -49.047832 -29.824886 0.000000 -5.934224 -72.211828 0.000000 -3.834561 100.340071 0.000000 -61.914266 42.634346 0.000000 73.425487 -80.801008 0.000000 -23.564659 26.894003 0.000000 -11.780939 31.968989 0.000000 -56.569759 -13.453702 0.000000 -99.854320 0.861161 0.000000 