# vtk DataFile Version 2.0
Comment goes here
ASCII

DATASET STRUCTURED_POINTS
FIELD FieldData 1
TIME 1 1 double
0.04200000
DIMENSIONS    256   32   1

ORIGIN    0.000   0.000   0.000
SPACING   0.0078125 0.0078125   1.000

POINT_DATA   8192
VECTORS u double

-0.013135 0.000003 0.000000 -0.032082 0.000005 0.000000 -0.061010 0.000006 0.000000 -0.097697 0.000010 0.000000 -0.148268 0.000012 0.000000 -0.200488 0.000017 0.000000 -0.238874 0.000016 0.000000 -0.212703 0.000011 0.000000 -0.254698 0.000010 0.000000 -0.228123 -0.000003 0.000000 -0.266770 -0.000013 0.000000 -0.302720 -0.000014 0.000000 -0.301875 -0.000023 0.000000 -0.404266 -0.000024 0.000000 -0.448708 -0.000011 0.000000 -0.353584 0.000004 0.000000 -0.464354 0.000003 0.000000 -0.428121 -0.000002 0.000000 -0.409470 0.000004 0.000000 -0.513194 -0.000004 0.000000 -0.299501 -0.000037 0.000000 -0.327446 0.000027 0.000000 -0.363963 0.000032 0.000000 -0.158551 0.000054 0.000000 -0.286875 0.000091 0.000000 -0.174644 0.000083 0.000000 -0.167874 0.000096 0.000000 -0.245982 0.000048 0.000000 -0.093831 0.000072 0.000000 -0.241828 0.000082 0.000000 -0.111848 0.000068 0.000000 -0.159823 0.000070 0.000000 -0.179920 0.000003 0.000000 -0.076619 0.000024 0.000000 -0.194812 -0.000007 0.000000 -0.078741 -0.000024 0.000000 -0.139995 0.000019 0.000000 -0.134096 -0.000008 0.000000 -0.056983 0.000033 0.000000 -0.158351 0.000032 0.000000 -0.048693 0.000039 0.000000 -0.121146 0.000054 0.000000 -0.091993 0.000010 0.000000 -0.044437 0.000063 0.000000 -0.122185 0.000015 0.000000 -0.027720 0.000044 0.000000 -0.098858 0.000056 0.000000 -0.058741 0.000004 0.000000 -0.033285 0.000105 0.000000 -0.091334 0.000011 0.000000 -0.010765 0.000097 0.000000 -0.078905 0.000080 0.000000 -0.031037 0.000007 0.000000 -0.026565 0.000157 0.000000 -0.063525 -0.000054 0.000000 0.000664 0.000088 0.000000 -0.059743 -0.000009 0.000000 -0.010295 -0.000161 0.000000 -0.021957 -0.000045 0.000000 -0.040204 -0.000355 0.000000 0.010336 -0.000225 0.000000 -0.043192 -0.000413 0.000000 0.006916 -0.002020 0.000000 -0.013227 -0.000389 0.000000 -0.017722 0.003429 0.000000 0.014935 0.001395 0.000000 -0.027505 -0.000543 0.000000 0.017991 0.000360 0.000000 -0.009018 0.000333 0.000000 -0.002550 0.000580 0.000000 0.022109 0.000200 0.000000 -0.013406 0.000151 0.000000 0.026972 0.000167 0.000000 -0.001411 -0.000017 0.000000 0.011999 0.000123 0.000000 0.026275 0.000006 0.000000 -0.000270 0.000000 0.000000 0.033738 0.000057 0.000000 0.007020 -0.000018 0.000000 0.023304 0.000034 0.000000 0.029781 0.000037 0.000000 0.010535 -0.000018 0.000000 0.039302 0.000050 0.000000 0.014161 -0.000032 0.000000 0.032952 -0.000033 0.000000 0.031580 0.000009 0.000000 0.020719 -0.000145 0.000000 0.043133 -0.000013 0.000000 0.021507 -0.000131 0.000000 0.039993 -0.000183 0.000000 0.034139 -0.000088 0.000000 0.029134 -0.000356 0.000000 0.047269 -0.000160 0.000000 0.027841 -0.000228 0.000000 0.046448 -0.000939 0.000000 0.038727 -0.000400 0.000000 0.038042 0.001328 0.000000 0.049063 0.000981 0.000000 0.033918 0.000169 0.000000 0.049681 0.000376 0.000000 0.040454 0.000330 0.000000 0.042140 0.000502 0.000000 0.051155 0.000278 0.000000 0.038349 0.000222 0.000000 0.052547 0.000246 0.000000 0.042794 0.000121 0.000000 0.047108 0.000195 0.000000 0.052272 0.000159 0.000000 0.042994 0.000124 0.000000 0.054595 0.000186 0.000000 0.045930 0.000131 0.000000 0.050736 0.000134 0.000000 0.053673 0.000199 0.000000 0.046362 0.000085 0.000000 0.056859 0.000205 0.000000 0.048116 0.000136 0.000000 0.054303 0.000118 0.000000 0.054136 0.000226 0.000000 0.049910 0.000010 0.000000 0.058238 0.000194 0.000000 0.050856 0.000037 0.000000 0.056616 -0.000023 0.000000 0.055793 0.000058 0.000000 0.052630 -0.000295 0.000000 0.060413 -0.000059 0.000000 0.053116 -0.000186 0.000000 0.059372 -0.000613 0.000000 0.058101 -0.000509 0.000000 0.056721 0.000487 0.000000 0.061458 0.000885 0.000000 0.055513 0.000455 0.000000 0.060177 0.000380 0.000000 0.058515 0.000351 0.000000 0.056849 0.000485 0.000000 0.061747 0.000276 0.000000 0.056251 0.000232 0.000000 0.061082 0.000224 0.000000 0.058634 0.000106 0.000000 0.058542 0.000172 0.000000 0.061889 0.000106 0.000000 0.057716 0.000084 0.000000 0.061746 0.000122 0.000000 0.059757 0.000069 0.000000 0.059707 0.000089 0.000000 0.062749 0.000107 0.000000 0.058370 0.000030 0.000000 0.063124 0.000117 0.000000 0.060146 0.000040 0.000000 0.061352 0.000050 0.000000 0.062931 0.000096 0.000000 0.059673 -0.000060 0.000000 0.063789 0.000089 0.000000 0.061249 -0.000073 0.000000 0.062225 -0.000085 0.000000 0.063960 -0.000070 0.000000 0.060495 -0.000361 0.000000 0.065429 -0.000122 0.000000 0.061980 -0.000271 0.000000 0.063967 -0.000483 0.000000 0.065133 -0.000558 0.000000 0.062950 0.000090 0.000000 0.066327 0.000829 0.000000 0.062847 0.000590 0.000000 0.063953 0.000326 0.000000 0.064909 0.000313 0.000000 0.061739 0.000437 0.000000 0.065868 0.000184 0.000000 0.062151 0.000188 0.000000 0.064291 0.000140 0.000000 0.064072 0.000030 0.000000 0.062431 0.000118 0.000000 0.065625 0.000004 0.000000 0.062375 0.000035 0.000000 0.064543 0.000041 0.000000 0.064388 -0.000014 0.000000 0.062822 0.000033 0.000000 0.066288 0.000008 0.000000 0.062239 -0.000019 0.000000 0.065776 0.000044 0.000000 0.064277 -0.000025 0.000000 0.064143 0.000014 0.000000 0.066396 0.000023 0.000000 0.063148 -0.000082 0.000000 0.066520 0.000044 0.000000 0.064986 -0.000117 0.000000 0.064978 -0.000098 0.000000 0.067224 -0.000133 0.000000 0.063670 -0.000371 0.000000 0.068144 -0.000155 0.000000 0.065137 -0.000318 0.000000 0.066585 -0.000473 0.000000 0.067784 -0.000635 0.000000 0.065693 -0.000006 0.000000 0.068756 0.000805 0.000000 0.065131 0.000579 0.000000 0.066216 0.000263 0.000000 0.066775 0.000281 0.000000 0.063849 0.000397 0.000000 0.067568 0.000115 0.000000 0.063503 0.000177 0.000000 0.065962 0.000081 0.000000 0.064995 0.000003 0.000000 0.063867 0.000090 0.000000 0.066472 -0.000050 0.000000 0.062933 0.000048 0.000000 0.065559 -0.000006 0.000000 0.064518 -0.000014 0.000000 0.063580 0.000029 0.000000 0.066333 -0.000033 0.000000 0.062206 0.000023 0.000000 0.066053 -0.000009 0.000000 0.063695 -0.000011 0.000000 0.064213 0.000010 0.000000 0.065667 -0.000025 0.000000 0.062573 0.000006 0.000000 0.066035 -0.000016 0.000000 0.063780 -0.000016 0.000000 0.064328 -0.000009 0.000000 0.065713 -0.000023 0.000000 0.062452 -0.000009 0.000000 0.066609 -0.000018 0.000000 0.063093 -0.000011 0.000000 0.065071 -0.000008 0.000000 0.064848 -0.000008 0.000000 0.063028 -0.000001 0.000000 0.066158 -0.000004 0.000000 0.062844 0.000002 0.000000 0.064856 0.000002 0.000000 0.064326 0.000005 0.000000 0.062727 0.000007 0.000000 0.065885 0.000007 0.000000 0.061592 0.000010 0.000000 0.064913 0.000007 0.000000 0.062867 0.000006 0.000000 0.062667 0.000005 0.000000 0.064511 0.000002 0.000000 0.060887 0.000003 0.000000 0.063925 0.000000 0.000000 0.061967 0.000000 0.000000 0.061644 0.000001 0.000000 0.063590 -0.000001 0.000000 0.059547 0.000002 0.000000 0.063277 0.000001 0.000000 0.060505 0.000002 0.000000 0.060964 0.000003 0.000000 0.062090 -0.000001 0.000000 0.058337 0.000001 0.000000 0.061651 -0.000003 0.000000 0.059523 -0.000007 0.000000 0.061532 -0.000006 0.000000 0.059510 -0.000011 0.000000 0.045143 -0.000008 0.000000 0.033262 -0.000005 0.000000 0.023599 -0.000002 0.000000 0.013207 -0.000000 0.000000 0.002623 0.000002 0.000000 
-0.002606 0.017355 0.000000 -0.022398 0.023942 0.000000 -0.046995 0.032813 0.000000 -0.086592 0.043637 0.000000 -0.135319 0.051407 0.000000 -0.199380 0.045320 0.000000 -0.225294 0.006124 0.000000 -0.203713 0.007921 0.000000 -0.240118 0.007721 0.000000 -0.227604 0.006030 0.000000 -0.262080 0.037283 0.000000 -0.332900 0.017533 0.000000 -0.302698 0.050740 0.000000 -0.495731 0.073378 0.000000 -0.533279 -0.025370 0.000000 -0.449359 0.007816 0.000000 -0.559923 0.037258 0.000000 -0.506272 -0.027458 0.000000 -0.489692 0.042543 0.000000 -0.556002 -0.054998 0.000000 -0.362778 -0.092915 0.000000 -0.313323 0.032266 0.000000 -0.392462 -0.084407 0.000000 -0.133439 -0.038482 0.000000 -0.297812 0.008149 0.000000 -0.145889 -0.059404 0.000000 -0.161330 0.035770 0.000000 -0.231717 -0.036979 0.000000 -0.077437 -0.002007 0.000000 -0.230106 0.009099 0.000000 -0.095031 -0.040926 0.000000 -0.145969 0.034112 0.000000 -0.173115 -0.041605 0.000000 -0.057312 0.007472 0.000000 -0.189099 0.001051 0.000000 -0.062056 -0.027440 0.000000 -0.132271 0.027699 0.000000 -0.126394 -0.041517 0.000000 -0.041761 0.012160 0.000000 -0.153879 -0.004114 0.000000 -0.035062 -0.018564 0.000000 -0.115907 0.021702 0.000000 -0.084518 -0.038353 0.000000 -0.032205 0.015158 0.000000 -0.118740 -0.008352 0.000000 -0.016656 -0.011623 0.000000 -0.094834 0.015563 0.000000 -0.051922 -0.032791 0.000000 -0.023123 0.016408 0.000000 -0.089272 -0.011257 0.000000 -0.000884 -0.006108 0.000000 -0.076542 0.010223 0.000000 -0.023804 -0.026156 0.000000 -0.019543 0.016439 0.000000 -0.061190 -0.013656 0.000000 0.008426 -0.001751 0.000000 -0.057217 0.005530 0.000000 -0.004253 -0.018997 0.000000 -0.016719 0.015017 0.000000 -0.038747 -0.016430 0.000000 0.017705 0.001473 0.000000 -0.042936 0.001415 0.000000 0.012929 -0.017510 0.000000 -0.007666 0.011780 0.000000 -0.014740 -0.009822 0.000000 0.018017 0.006565 0.000000 -0.026616 -0.002507 0.000000 0.023265 -0.009075 0.000000 -0.006499 0.010567 0.000000 -0.000754 -0.015007 0.000000 0.027477 0.005552 0.000000 -0.012827 -0.002361 0.000000 0.031669 -0.005875 0.000000 -0.000452 0.007409 0.000000 0.014797 -0.013740 0.000000 0.030006 0.006115 0.000000 0.000861 -0.003756 0.000000 0.037103 -0.003593 0.000000 0.008317 0.005184 0.000000 0.025375 -0.011349 0.000000 0.033263 0.006424 0.000000 0.010747 -0.004782 0.000000 0.042869 -0.001750 0.000000 0.014464 0.003145 0.000000 0.035708 -0.008731 0.000000 0.033273 0.006152 0.000000 0.021661 -0.005911 0.000000 0.045549 -0.000358 0.000000 0.022383 0.001484 0.000000 0.041806 -0.006442 0.000000 0.035678 0.005435 0.000000 0.029308 -0.006867 0.000000 0.050034 0.000625 0.000000 0.027288 0.000309 0.000000 0.048569 -0.006561 0.000000 0.040071 0.003703 0.000000 0.039236 -0.003534 0.000000 0.049552 0.003194 0.000000 0.034124 -0.000298 0.000000 0.051027 -0.003028 0.000000 0.041260 0.004029 0.000000 0.042480 -0.004882 0.000000 0.052980 0.002111 0.000000 0.038152 -0.000539 0.000000 0.054272 -0.002013 0.000000 0.042666 0.002797 0.000000 0.048352 -0.004566 0.000000 0.053053 0.002201 0.000000 0.043555 -0.001057 0.000000 0.055395 -0.001281 0.000000 0.046475 0.002050 0.000000 0.051231 -0.003742 0.000000 0.054820 0.002395 0.000000 0.046153 -0.001517 0.000000 0.058257 -0.000656 0.000000 0.047849 0.001420 0.000000 0.055506 -0.002881 0.000000 0.054136 0.002459 0.000000 0.050460 -0.002031 0.000000 0.058725 -0.000222 0.000000 0.051212 0.000896 0.000000 0.056918 -0.002430 0.000000 0.056227 0.002146 0.000000 0.052352 -0.002562 0.000000 0.061427 -0.000179 0.000000 0.052376 0.000467 0.000000 0.060085 -0.003172 0.000000 0.058085 0.000703 0.000000 0.057379 -0.001100 0.000000 0.061124 0.001625 0.000000 0.055595 0.001055 0.000000 0.060139 -0.001246 0.000000 0.058884 0.001936 0.000000 0.056641 -0.001165 0.000000 0.062333 0.000514 0.000000 0.055882 0.000506 0.000000 0.061746 -0.001005 0.000000 0.058244 0.001336 0.000000 0.059187 -0.001474 0.000000 0.061675 0.000503 0.000000 0.058156 0.000136 0.000000 0.061635 -0.000901 0.000000 0.060136 0.001079 0.000000 0.059593 -0.001408 0.000000 0.063180 0.000779 0.000000 0.058063 -0.000165 0.000000 0.063720 -0.000759 0.000000 0.059739 0.000928 0.000000 0.061955 -0.001329 0.000000 0.062495 0.000963 0.000000 0.060114 -0.000478 0.000000 0.063543 -0.000646 0.000000 0.061516 0.000751 0.000000 0.061976 -0.001377 0.000000 0.064126 0.000877 0.000000 0.060093 -0.001051 0.000000 0.065821 -0.000747 0.000000 0.061312 0.000585 0.000000 0.064230 -0.002066 0.000000 0.064594 -0.000154 0.000000 0.063404 -0.000508 0.000000 0.065859 0.001012 0.000000 0.062903 0.001796 0.000000 0.063376 -0.000827 0.000000 0.065184 0.001338 0.000000 0.061302 -0.000074 0.000000 0.066066 -0.000090 0.000000 0.061760 0.000921 0.000000 0.064589 -0.000861 0.000000 0.063639 0.000917 0.000000 0.062847 -0.000675 0.000000 0.065137 0.000009 0.000000 0.062800 0.000561 0.000000 0.064116 -0.000969 0.000000 0.064732 0.000835 0.000000 0.062483 -0.000916 0.000000 0.066552 0.000297 0.000000 0.061912 0.000233 0.000000 0.066094 -0.000963 0.000000 0.063851 0.000794 0.000000 0.064545 -0.001028 0.000000 0.065857 0.000542 0.000000 0.063561 -0.000129 0.000000 0.066030 -0.000823 0.000000 0.065240 0.000696 0.000000 0.064558 -0.001148 0.000000 0.067309 0.000597 0.000000 0.063238 -0.000783 0.000000 0.068338 -0.000771 0.000000 0.064473 0.000588 0.000000 0.066690 -0.001790 0.000000 0.067091 -0.000306 0.000000 0.066157 -0.000509 0.000000 0.068226 0.001231 0.000000 0.065128 0.001879 0.000000 0.065528 -0.000687 0.000000 0.067002 0.001388 0.000000 0.063364 -0.000029 0.000000 0.067687 0.000217 0.000000 0.063097 0.000933 0.000000 0.066200 -0.000706 0.000000 0.064535 0.001011 0.000000 0.064256 -0.000662 0.000000 0.065947 0.000393 0.000000 0.063359 0.000498 0.000000 0.065110 -0.000804 0.000000 0.064862 0.000968 0.000000 0.063235 -0.000876 0.000000 0.066599 0.000648 0.000000 0.061891 0.000166 0.000000 0.066367 -0.000753 0.000000 0.063293 0.000908 0.000000 0.064620 -0.000972 0.000000 0.065182 0.000793 0.000000 0.063028 -0.000174 0.000000 0.065589 -0.000618 0.000000 0.064147 0.000838 0.000000 0.063975 -0.000974 0.000000 0.065992 0.000915 0.000000 0.062163 -0.000455 0.000000 0.066914 -0.000337 0.000000 0.062720 0.000759 0.000000 0.065477 -0.000884 0.000000 0.064386 0.001014 0.000000 0.063512 -0.000654 0.000000 0.065696 0.000089 0.000000 0.063255 0.000653 0.000000 0.064505 -0.000739 0.000000 0.064651 0.001071 0.000000 0.062465 -0.000771 0.000000 0.066193 0.000575 0.000000 0.061279 0.000497 0.000000 0.065344 -0.000630 0.000000 0.062468 0.001129 0.000000 0.063191 -0.000817 0.000000 0.064085 0.000892 0.000000 0.061406 0.000296 0.000000 0.063615 -0.000540 0.000000 0.062428 0.001141 0.000000 0.061422 -0.000810 0.000000 0.064056 0.001047 0.000000 0.059355 0.000159 0.000000 0.063863 -0.000478 0.000000 0.060285 0.001158 0.000000 0.061707 -0.000789 0.000000 0.061916 0.001312 0.000000 0.059277 0.000221 0.000000 0.061598 -0.000597 0.000000 0.060762 0.000052 0.000000 0.062129 0.000001 0.000000 0.062378 0.008183 0.000000 0.048090 0.013115 0.000000 0.038670 0.010768 0.000000 0.028751 0.010026 0.000000 0.021007 0.010488 0.000000 0.009771 0.013173 0.000000 
-0.002304 0.032172 0.000000 -0.016349 0.044394 0.000000 -0.039848 0.064200 0.000000 -0.072154 0.088334 0.000000 -0.122789 0.112800 0.000000 -0.187313 0.089992 0.000000 -0.193357 0.004349 0.000000 -0.144078 0.014835 0.000000 -0.188403 0.023900 0.000000 -0.125103 0.021959 0.000000 -0.152413 0.105283 0.000000 -0.119170 0.040604 0.000000 -0.015897 0.162807 0.000000 -0.033699 0.230557 0.000000 -0.008234 -0.046383 0.000000 0.105558 0.026648 0.000000 0.051901 0.056916 0.000000 0.065244 -0.070233 0.000000 0.125431 0.049734 0.000000 -0.047175 -0.126918 0.000000 0.053371 -0.242716 0.000000 -0.016648 0.029712 0.000000 -0.184105 -0.179852 0.000000 -0.036378 -0.094596 0.000000 -0.226996 0.012541 0.000000 -0.097841 -0.136400 0.000000 -0.100809 0.085924 0.000000 -0.214313 -0.083845 0.000000 -0.026638 -0.001539 0.000000 -0.219284 0.017677 0.000000 -0.058116 -0.084069 0.000000 -0.126514 0.078153 0.000000 -0.162409 -0.088654 0.000000 -0.025958 0.016008 0.000000 -0.185149 0.004737 0.000000 -0.037647 -0.056851 0.000000 -0.125785 0.064357 0.000000 -0.121758 -0.090518 0.000000 -0.020169 0.027519 0.000000 -0.157753 -0.006667 0.000000 -0.018925 -0.037933 0.000000 -0.119598 0.049509 0.000000 -0.083657 -0.083692 0.000000 -0.020535 0.034285 0.000000 -0.128897 -0.015534 0.000000 -0.008066 -0.023862 0.000000 -0.106424 0.035322 0.000000 -0.053820 -0.071707 0.000000 -0.021502 0.037455 0.000000 -0.103302 -0.022229 0.000000 0.000283 -0.012633 0.000000 -0.092638 0.023000 0.000000 -0.029499 -0.056992 0.000000 -0.026097 0.037543 0.000000 -0.079149 -0.028023 0.000000 0.004300 -0.003885 0.000000 -0.077679 0.012669 0.000000 -0.012483 -0.040659 0.000000 -0.032291 0.034449 0.000000 -0.058221 -0.034779 0.000000 0.007041 0.003965 0.000000 -0.067818 0.004363 0.000000 -0.001023 -0.037290 0.000000 -0.027958 0.027281 0.000000 -0.039005 -0.022253 0.000000 -0.001717 0.013271 0.000000 -0.054753 -0.005792 0.000000 0.007922 -0.019757 0.000000 -0.033156 0.024353 0.000000 -0.022655 -0.033396 0.000000 0.008343 0.012273 0.000000 -0.039800 -0.004042 0.000000 0.012497 -0.012207 0.000000 -0.028535 0.016855 0.000000 -0.008279 -0.030335 0.000000 0.007869 0.013942 0.000000 -0.028155 -0.007097 0.000000 0.015754 -0.007400 0.000000 -0.022523 0.011710 0.000000 0.001848 -0.024912 0.000000 0.006561 0.014665 0.000000 -0.018508 -0.009625 0.000000 0.017991 -0.003667 0.000000 -0.016922 0.007129 0.000000 0.009968 -0.018841 0.000000 0.003715 0.014055 0.000000 -0.008895 -0.012421 0.000000 0.018938 -0.000735 0.000000 -0.010780 0.003612 0.000000 0.015138 -0.013477 0.000000 0.002286 0.012410 0.000000 -0.001137 -0.014712 0.000000 0.019660 0.001860 0.000000 -0.007453 0.001238 0.000000 0.018412 -0.013723 0.000000 0.004724 0.008932 0.000000 0.004562 -0.008153 0.000000 0.014810 0.006092 0.000000 -0.001730 -0.001306 0.000000 0.020500 -0.006760 0.000000 0.004509 0.008876 0.000000 0.011414 -0.011217 0.000000 0.019190 0.004606 0.000000 0.004226 -0.001070 0.000000 0.022237 -0.004268 0.000000 0.006869 0.006041 0.000000 0.016603 -0.010192 0.000000 0.018633 0.004955 0.000000 0.008901 -0.002218 0.000000 0.022877 -0.002733 0.000000 0.009715 0.004294 0.000000 0.019609 -0.008211 0.000000 0.018217 0.005278 0.000000 0.012353 -0.003352 0.000000 0.023755 -0.001491 0.000000 0.011808 0.002887 0.000000 0.022294 -0.006169 0.000000 0.017143 0.005271 0.000000 0.016119 -0.004579 0.000000 0.023811 -0.000557 0.000000 0.014289 0.001844 0.000000 0.023417 -0.005039 0.000000 0.017469 0.004623 0.000000 0.018282 -0.005495 0.000000 0.023736 -0.000084 0.000000 0.014892 0.001156 0.000000 0.023784 -0.006323 0.000000 0.017928 0.002197 0.000000 0.018910 -0.002552 0.000000 0.020879 0.002669 0.000000 0.017582 0.001440 0.000000 0.023860 -0.002909 0.000000 0.019217 0.003849 0.000000 0.022199 -0.002964 0.000000 0.023343 0.001035 0.000000 0.020097 0.000819 0.000000 0.024920 -0.002137 0.000000 0.020404 0.002665 0.000000 0.024145 -0.003260 0.000000 0.023111 0.001137 0.000000 0.022053 0.000124 0.000000 0.024874 -0.001859 0.000000 0.021852 0.002111 0.000000 0.024711 -0.002955 0.000000 0.023412 0.001637 0.000000 0.023065 -0.000510 0.000000 0.025473 -0.001559 0.000000 0.022492 0.001804 0.000000 0.025714 -0.002706 0.000000 0.023303 0.001938 0.000000 0.024564 -0.001108 0.000000 0.025335 -0.001312 0.000000 0.023681 0.001494 0.000000 0.025762 -0.002696 0.000000 0.023894 0.001813 0.000000 0.024807 -0.002056 0.000000 0.025365 -0.001341 0.000000 0.023387 0.001321 0.000000 0.025501 -0.003766 0.000000 0.022862 0.000268 0.000000 0.023729 -0.001175 0.000000 0.023928 0.001329 0.000000 0.024349 0.003074 0.000000 0.024731 -0.001955 0.000000 0.024846 0.002386 0.000000 0.025484 -0.000445 0.000000 0.025295 -0.000274 0.000000 0.025628 0.001664 0.000000 0.025868 -0.001738 0.000000 0.025426 0.001772 0.000000 0.026369 -0.001381 0.000000 0.025292 0.000051 0.000000 0.026481 0.001056 0.000000 0.025685 -0.001891 0.000000 0.026225 0.001619 0.000000 0.026252 -0.001787 0.000000 0.025967 0.000579 0.000000 0.026644 0.000439 0.000000 0.026348 -0.001895 0.000000 0.026432 0.001524 0.000000 0.027082 -0.001991 0.000000 0.026110 0.001007 0.000000 0.027643 -0.000256 0.000000 0.026512 -0.001635 0.000000 0.027257 0.001355 0.000000 0.027270 -0.002167 0.000000 0.026662 0.001188 0.000000 0.027504 -0.001400 0.000000 0.026803 -0.001390 0.000000 0.026463 0.001330 0.000000 0.027059 -0.003091 0.000000 0.024907 -0.000103 0.000000 0.026009 -0.001141 0.000000 0.025698 0.001834 0.000000 0.026531 0.003277 0.000000 0.026107 -0.001611 0.000000 0.026496 0.002445 0.000000 0.027064 -0.000288 0.000000 0.026418 0.000382 0.000000 0.027013 0.001665 0.000000 0.026951 -0.001356 0.000000 0.026274 0.001946 0.000000 0.027379 -0.001323 0.000000 0.025850 0.000848 0.000000 0.027114 0.000885 0.000000 0.026288 -0.001509 0.000000 0.026329 0.001861 0.000000 0.026743 -0.001708 0.000000 0.025930 0.001311 0.000000 0.026650 0.000255 0.000000 0.026411 -0.001411 0.000000 0.025929 0.001737 0.000000 0.027014 -0.001879 0.000000 0.025538 0.001567 0.000000 0.027125 -0.000401 0.000000 0.026011 -0.001136 0.000000 0.026391 0.001597 0.000000 0.026748 -0.001855 0.000000 0.025894 0.001789 0.000000 0.026958 -0.000930 0.000000 0.026287 -0.000574 0.000000 0.026122 0.001426 0.000000 0.027109 -0.001674 0.000000 0.025443 0.001956 0.000000 0.027346 -0.001311 0.000000 0.025668 0.000254 0.000000 0.026395 0.001192 0.000000 0.026530 -0.001394 0.000000 0.025472 0.002045 0.000000 0.026729 -0.001534 0.000000 0.025427 0.001193 0.000000 0.025741 0.000859 0.000000 0.026278 -0.001182 0.000000 0.024625 0.002159 0.000000 0.026427 -0.001612 0.000000 0.024394 0.001787 0.000000 0.025548 0.000474 0.000000 0.025085 -0.001021 0.000000 0.024410 0.002193 0.000000 0.025208 -0.001626 0.000000 0.024060 0.002066 0.000000 0.024597 0.000195 0.000000 0.024374 -0.000929 0.000000 0.023739 0.002158 0.000000 0.024402 -0.001627 0.000000 0.023469 0.002429 0.000000 0.024178 0.000319 0.000000 0.023416 -0.001488 0.000000 0.023664 -0.000538 0.000000 0.023454 -0.001622 0.000000 0.025286 0.014028 0.000000 0.027589 0.023699 0.000000 0.025400 0.019335 0.000000 0.022469 0.017661 0.000000 0.016257 0.018979 0.000000 0.009514 0.023615 0.000000 
0.018095 0.043218 0.000000 0.010085 0.061486 0.000000 0.001484 0.088619 0.000000 -0.010850 0.126578 0.000000 -0.023390 0.166565 0.000000 -0.043250 0.115888 0.000000 -0.024970 -0.037111 0.000000 -0.005320 0.002968 0.000000 -0.017227 -0.011254 0.000000 0.016256 -0.029960 0.000000 0.027281 0.031350 0.000000 0.078681 -0.118983 0.000000 0.115357 -0.034730 0.000000 0.118435 0.065715 0.000000 0.169262 -0.164628 0.000000 0.075290 -0.052319 0.000000 0.194821 0.077572 0.000000 0.131012 -0.100988 0.000000 0.127647 0.154962 0.000000 0.181343 0.017062 0.000000 0.000247 -0.123442 0.000000 0.200035 0.269742 0.000000 0.061507 -0.064678 0.000000 0.072855 0.004409 0.000000 -0.026649 0.069611 0.000000 0.008227 -0.185592 0.000000 0.009099 0.152243 0.000000 -0.037475 -0.111151 0.000000 0.020415 0.002964 0.000000 -0.045244 0.040577 0.000000 0.004790 -0.133695 0.000000 -0.018519 0.138405 0.000000 -0.034105 -0.142161 0.000000 0.009785 0.030213 0.000000 -0.042562 0.012740 0.000000 0.003646 -0.086804 0.000000 -0.026437 0.111809 0.000000 -0.027842 -0.147134 0.000000 0.005708 0.048154 0.000000 -0.040609 -0.005358 0.000000 0.004751 -0.056719 0.000000 -0.031529 0.086434 0.000000 -0.019016 -0.137416 0.000000 -0.000675 0.060397 0.000000 -0.035341 -0.020821 0.000000 0.002398 -0.034096 0.000000 -0.031347 0.061317 0.000000 -0.013870 -0.117714 0.000000 -0.004672 0.065891 0.000000 -0.032011 -0.033042 0.000000 0.002141 -0.016772 0.000000 -0.031581 0.040006 0.000000 -0.008072 -0.092697 0.000000 -0.011427 0.066089 0.000000 -0.026464 -0.044053 0.000000 -0.001200 -0.003220 0.000000 -0.028879 0.022314 0.000000 -0.006316 -0.064385 0.000000 -0.016039 0.060755 0.000000 -0.023100 -0.055762 0.000000 -0.003194 0.011069 0.000000 -0.029464 0.009478 0.000000 -0.005035 -0.057370 0.000000 -0.020659 0.049762 0.000000 -0.020246 -0.036063 0.000000 -0.011522 0.022314 0.000000 -0.026606 -0.012146 0.000000 -0.005654 -0.030672 0.000000 -0.022121 0.041145 0.000000 -0.014925 -0.056506 0.000000 -0.007832 0.022697 0.000000 -0.022993 -0.006516 0.000000 -0.004519 -0.017140 0.000000 -0.022373 0.028185 0.000000 -0.010204 -0.050144 0.000000 -0.010945 0.025992 0.000000 -0.019185 -0.011641 0.000000 -0.006364 -0.009226 0.000000 -0.020573 0.019089 0.000000 -0.009237 -0.040432 0.000000 -0.012294 0.026781 0.000000 -0.017818 -0.016212 0.000000 -0.006578 -0.003336 0.000000 -0.020641 0.011168 0.000000 -0.007253 -0.029368 0.000000 -0.016121 0.025015 0.000000 -0.014430 -0.021134 0.000000 -0.009417 0.001527 0.000000 -0.018488 0.005283 0.000000 -0.008353 -0.019508 0.000000 -0.017139 0.021710 0.000000 -0.013616 -0.024241 0.000000 -0.010672 0.006942 0.000000 -0.019351 0.001557 0.000000 -0.007915 -0.018739 0.000000 -0.019712 0.017553 0.000000 -0.013951 -0.013620 0.000000 -0.015819 0.009486 0.000000 -0.016354 -0.005988 0.000000 -0.009694 -0.009267 0.000000 -0.017979 0.013115 0.000000 -0.010304 -0.019563 0.000000 -0.012846 0.009299 0.000000 -0.015033 -0.003586 0.000000 -0.008751 -0.004655 0.000000 -0.017615 0.008431 0.000000 -0.007933 -0.016330 0.000000 -0.014900 0.009903 0.000000 -0.012352 -0.005302 0.000000 -0.010600 -0.002095 0.000000 -0.015520 0.005319 0.000000 -0.008725 -0.012245 0.000000 -0.014775 0.009652 0.000000 -0.011925 -0.007055 0.000000 -0.010505 -0.000112 0.000000 -0.015564 0.002881 0.000000 -0.007902 -0.008216 0.000000 -0.016589 0.008634 0.000000 -0.009397 -0.008699 0.000000 -0.012728 0.001609 0.000000 -0.013558 0.001291 0.000000 -0.009703 -0.005610 0.000000 -0.015999 0.007281 0.000000 -0.010052 -0.008829 0.000000 -0.013655 0.003211 0.000000 -0.014777 0.000419 0.000000 -0.009798 -0.006208 0.000000 -0.018742 0.005577 0.000000 -0.012403 -0.004052 0.000000 -0.017808 0.002953 0.000000 -0.012228 -0.001926 0.000000 -0.012007 -0.002881 0.000000 -0.015767 0.003597 0.000000 -0.009211 -0.005291 0.000000 -0.014740 0.002616 0.000000 -0.011631 -0.001072 0.000000 -0.010812 -0.001311 0.000000 -0.015057 0.002111 0.000000 -0.007721 -0.004181 0.000000 -0.016070 0.002595 0.000000 -0.009385 -0.001627 0.000000 -0.012705 -0.000700 0.000000 -0.013012 0.001242 0.000000 -0.009370 -0.002968 0.000000 -0.015252 0.002426 0.000000 -0.009464 -0.002226 0.000000 -0.012479 -0.000187 0.000000 -0.013210 0.000688 0.000000 -0.008894 -0.002140 0.000000 -0.016252 0.002112 0.000000 -0.007647 -0.002509 0.000000 -0.014442 0.000236 0.000000 -0.011373 0.000323 0.000000 -0.010782 -0.001589 0.000000 -0.015081 0.001833 0.000000 -0.008911 -0.002522 0.000000 -0.015015 0.000673 0.000000 -0.012635 0.000449 0.000000 -0.011031 -0.001541 0.000000 -0.018088 0.001618 0.000000 -0.011769 -0.001574 0.000000 -0.018366 0.000392 0.000000 -0.010526 0.000993 0.000000 -0.013343 -0.001325 0.000000 -0.014521 0.000586 0.000000 -0.009229 -0.000523 0.000000 -0.015411 -0.000234 0.000000 -0.010095 0.000349 0.000000 -0.011971 -0.000658 0.000000 -0.013690 0.000416 0.000000 -0.008209 -0.000541 0.000000 -0.016294 -0.000103 0.000000 -0.007987 0.000168 0.000000 -0.013774 -0.000713 0.000000 -0.011653 0.000268 0.000000 -0.009993 -0.000658 0.000000 -0.015001 -0.000095 0.000000 -0.008412 -0.000148 0.000000 -0.013444 -0.000752 0.000000 -0.011995 0.000059 0.000000 -0.009525 -0.000706 0.000000 -0.015758 -0.000019 0.000000 -0.006958 -0.000531 0.000000 -0.015238 -0.000437 0.000000 -0.010296 -0.000062 0.000000 -0.011369 -0.000553 0.000000 -0.014485 0.000364 0.000000 -0.008553 -0.000925 0.000000 -0.015611 0.000269 0.000000 -0.011665 0.000333 0.000000 -0.011539 -0.000233 0.000000 -0.017629 0.000744 0.000000 -0.011760 -0.001301 0.000000 -0.018476 0.000709 0.000000 -0.009607 0.001470 0.000000 -0.013913 -0.000652 0.000000 -0.013903 0.000431 0.000000 -0.009436 0.000049 0.000000 -0.015575 0.000269 0.000000 -0.009362 0.000399 0.000000 -0.012468 0.000033 0.000000 -0.013135 0.000584 0.000000 -0.008601 -0.000238 0.000000 -0.016307 0.000658 0.000000 -0.007503 0.000060 0.000000 -0.014344 -0.000019 0.000000 -0.011322 0.000512 0.000000 -0.010437 -0.000477 0.000000 -0.014947 0.000741 0.000000 -0.008249 -0.000315 0.000000 -0.013919 -0.000033 0.000000 -0.011721 0.000305 0.000000 -0.009967 -0.000581 0.000000 -0.015576 0.000683 0.000000 -0.007032 -0.000648 0.000000 -0.015660 0.000115 0.000000 -0.010001 0.000101 0.000000 -0.011753 -0.000477 0.000000 -0.013952 0.000706 0.000000 -0.008314 -0.000848 0.000000 -0.015063 0.000498 0.000000 -0.010471 -0.000063 0.000000 -0.011390 -0.000206 0.000000 -0.014432 0.000776 0.000000 -0.007686 -0.000879 0.000000 -0.016487 0.001040 0.000000 -0.008647 -0.000209 0.000000 -0.013279 0.000185 0.000000 -0.012570 0.000872 0.000000 -0.009554 -0.000726 0.000000 -0.015458 0.001563 0.000000 -0.009023 -0.000354 0.000000 -0.012982 0.000486 0.000000 -0.012905 0.000980 0.000000 -0.009154 -0.000586 0.000000 -0.016252 0.001770 0.000000 -0.007457 -0.000395 0.000000 -0.014776 0.000599 0.000000 -0.011056 0.001018 0.000000 -0.010949 -0.000461 0.000000 -0.014627 0.001657 0.000000 -0.008371 -0.000155 0.000000 -0.014217 0.000381 0.000000 -0.011348 0.001130 0.000000 -0.010571 -0.000519 0.000000 -0.014860 0.001536 0.000000 -0.006735 0.000274 0.000000 -0.014914 -0.000083 0.000000 -0.010102 0.000014 0.000000 -0.016253 -0.001621 0.000000 -0.011853 0.004048 0.000000 0.010612 0.013001 0.000000 0.022156 0.015888 0.000000 0.026291 0.019169 0.000000 0.026568 0.023443 0.000000 0.022837 0.031733 0.000000 