# vtk DataFile Version 2.0
Comment goes here
ASCII

DATASET STRUCTURED_POINTS
FIELD FieldData 1
TIME 1 1 double
0.03800000
DIMENSIONS    256   32   1

ORIGIN    0.000   0.000   0.000
SPACING   0.0078125 0.0078125   1.000

POINT_DATA   8192
VECTORS u double

-0.011698 -0.000000 0.000000 -0.028712 0.000000 0.000000 -0.054765 0.000001 0.000000 -0.087593 0.000002 0.000000 -0.133137 0.000003 0.000000 -0.180610 0.000006 0.000000 -0.215847 0.000009 0.000000 -0.190718 0.000011 0.000000 -0.231204 0.000014 0.000000 -0.204975 0.000017 0.000000 -0.240356 0.000016 0.000000 -0.273998 0.000023 0.000000 -0.270303 0.000014 0.000000 -0.366315 0.000022 0.000000 -0.409511 0.000034 0.000000 -0.317703 0.000046 0.000000 -0.419982 0.000052 0.000000 -0.385724 0.000028 0.000000 -0.365846 0.000037 0.000000 -0.466125 -0.000002 0.000000 -0.269809 -0.000065 0.000000 -0.293515 0.000003 0.000000 -0.329764 0.000002 0.000000 -0.141937 0.000011 0.000000 -0.259225 0.000030 0.000000 -0.156941 0.000009 0.000000 -0.150289 0.000018 0.000000 -0.222770 -0.000001 0.000000 -0.082411 0.000004 0.000000 -0.218604 0.000044 0.000000 -0.099129 0.000040 0.000000 -0.143260 0.000055 0.000000 -0.161740 0.000048 0.000000 -0.067254 0.000056 0.000000 -0.175122 0.000044 0.000000 -0.069145 0.000043 0.000000 -0.124875 0.000029 0.000000 -0.119822 0.000002 0.000000 -0.049622 0.000005 0.000000 -0.141595 -0.000043 0.000000 -0.041936 -0.000048 0.000000 -0.107451 -0.000059 0.000000 -0.081216 -0.000089 0.000000 -0.038324 -0.000052 0.000000 -0.108377 -0.000058 0.000000 -0.023073 -0.000030 0.000000 -0.087083 -0.000011 0.000000 -0.051176 -0.000022 0.000000 -0.028326 0.000033 0.000000 -0.080375 -0.000029 0.000000 -0.008024 0.000032 0.000000 -0.068935 0.000006 0.000000 -0.026199 -0.000045 0.000000 -0.022219 0.000057 0.000000 -0.055130 -0.000105 0.000000 0.002149 0.000010 0.000000 -0.051600 -0.000076 0.000000 -0.007638 -0.000185 0.000000 -0.017914 -0.000093 0.000000 -0.034212 -0.000345 0.000000 0.010689 -0.000233 0.000000 -0.036659 -0.000374 0.000000 0.007549 -0.001792 0.000000 -0.010047 -0.000425 0.000000 -0.014183 0.002949 0.000000 0.014612 0.001089 0.000000 -0.022550 -0.000565 0.000000 0.017279 0.000252 0.000000 -0.006120 0.000152 0.000000 -0.000620 0.000462 0.000000 0.021054 0.000100 0.000000 -0.009866 0.000081 0.000000 0.025330 0.000108 0.000000 0.000853 -0.000078 0.000000 0.012333 0.000073 0.000000 0.024901 -0.000105 0.000000 0.001890 -0.000075 0.000000 0.031368 -0.000076 0.000000 0.008465 -0.000177 0.000000 0.022292 -0.000088 0.000000 0.028116 -0.000160 0.000000 0.011409 -0.000147 0.000000 0.036213 -0.000086 0.000000 0.014667 -0.000123 0.000000 0.030678 -0.000053 0.000000 0.029659 -0.000030 0.000000 0.020226 -0.000083 0.000000 0.039520 0.000011 0.000000 0.021019 -0.000116 0.000000 0.036775 -0.000140 0.000000 0.031990 -0.000153 0.000000 0.027469 -0.000400 0.000000 0.043188 -0.000265 0.000000 0.026538 -0.000362 0.000000 0.042359 -0.000939 0.000000 0.036026 -0.000540 0.000000 0.035209 0.001003 0.000000 0.044778 0.000769 0.000000 0.031798 0.000121 0.000000 0.045066 0.000276 0.000000 0.037540 0.000199 0.000000 0.038624 0.000421 0.000000 0.046551 0.000152 0.000000 0.035597 0.000141 0.000000 0.047598 0.000155 0.000000 0.039544 0.000003 0.000000 0.042928 0.000123 0.000000 0.047577 0.000030 0.000000 0.039606 0.000040 0.000000 0.049443 0.000090 0.000000 0.042301 0.000024 0.000000 0.046133 0.000072 0.000000 0.048976 0.000094 0.000000 0.042571 0.000025 0.000000 0.051648 0.000129 0.000000 0.044268 0.000066 0.000000 0.049452 0.000072 0.000000 0.049554 0.000155 0.000000 0.045727 -0.000016 0.000000 0.053038 0.000143 0.000000 0.046622 0.000003 0.000000 0.051551 -0.000041 0.000000 0.050968 0.000022 0.000000 0.047966 -0.000287 0.000000 0.054953 -0.000086 0.000000 0.048356 -0.000195 0.000000 0.053932 -0.000590 0.000000 0.052830 -0.000487 0.000000 0.051435 0.000432 0.000000 0.055790 0.000721 0.000000 0.050329 0.000372 0.000000 0.054639 0.000327 0.000000 0.053041 0.000278 0.000000 0.051544 0.000431 0.000000 0.056069 0.000220 0.000000 0.050862 0.000203 0.000000 0.055530 0.000198 0.000000 0.052992 0.000084 0.000000 0.053098 0.000160 0.000000 0.056118 0.000088 0.000000 0.052052 0.000079 0.000000 0.056140 0.000113 0.000000 0.053774 0.000059 0.000000 0.054156 0.000086 0.000000 0.056707 0.000095 0.000000 0.052514 0.000025 0.000000 0.057361 0.000109 0.000000 0.053896 0.000036 0.000000 0.055693 0.000047 0.000000 0.056674 0.000094 0.000000 0.053688 -0.000054 0.000000 0.057979 0.000088 0.000000 0.054789 -0.000064 0.000000 0.056640 -0.000074 0.000000 0.057507 -0.000062 0.000000 0.054577 -0.000329 0.000000 0.059554 -0.000121 0.000000 0.055441 -0.000238 0.000000 0.058432 -0.000495 0.000000 0.058578 -0.000552 0.000000 0.057058 0.000189 0.000000 0.060271 0.000714 0.000000 0.056211 0.000430 0.000000 0.058637 0.000264 0.000000 0.058063 0.000247 0.000000 0.056079 0.000393 0.000000 0.059700 0.000151 0.000000 0.055345 0.000171 0.000000 0.058716 0.000131 0.000000 0.056663 0.000029 0.000000 0.056422 0.000118 0.000000 0.058636 0.000010 0.000000 0.054969 0.000046 0.000000 0.058239 0.000052 0.000000 0.056049 0.000003 0.000000 0.056140 0.000049 0.000000 0.058135 0.000022 0.000000 0.054167 -0.000005 0.000000 0.058393 0.000054 0.000000 0.055121 -0.000020 0.000000 0.056559 0.000013 0.000000 0.057286 0.000017 0.000000 0.054449 -0.000089 0.000000 0.058168 0.000028 0.000000 0.055321 -0.000125 0.000000 0.056677 -0.000108 0.000000 0.057580 -0.000133 0.000000 0.054714 -0.000351 0.000000 0.059150 -0.000164 0.000000 0.055526 -0.000301 0.000000 0.057915 -0.000524 0.000000 0.058336 -0.000566 0.000000 0.056719 0.000108 0.000000 0.059629 0.000604 0.000000 0.056116 0.000415 0.000000 0.057781 0.000218 0.000000 0.057844 0.000226 0.000000 0.055555 0.000367 0.000000 0.058985 0.000093 0.000000 0.055117 0.000179 0.000000 0.057708 0.000085 0.000000 0.056561 0.000010 0.000000 0.055704 0.000100 0.000000 0.058044 -0.000047 0.000000 0.054692 0.000049 0.000000 0.057163 -0.000007 0.000000 0.056075 -0.000022 0.000000 0.055137 0.000020 0.000000 0.057660 -0.000046 0.000000 0.053721 0.000008 0.000000 0.057138 -0.000022 0.000000 0.055058 -0.000023 0.000000 0.055139 -0.000001 0.000000 0.056747 -0.000028 0.000000 0.053576 0.000005 0.000000 0.056599 -0.000013 0.000000 0.054909 -0.000005 0.000000 0.054638 0.000002 0.000000 0.056696 -0.000008 0.000000 0.053089 0.000006 0.000000 0.056942 -0.000002 0.000000 0.054381 0.000002 0.000000 0.055090 0.000004 0.000000 0.056326 0.000001 0.000000 0.053605 0.000006 0.000000 0.056987 0.000001 0.000000 0.054655 0.000002 0.000000 0.055250 0.000001 0.000000 0.056773 -0.000000 0.000000 0.053816 -0.000000 0.000000 0.057881 0.000001 0.000000 0.054376 0.000003 0.000000 0.056283 0.000003 0.000000 0.056680 0.000006 0.000000 0.054713 0.000008 0.000000 0.058083 0.000010 0.000000 0.054748 0.000013 0.000000 0.056750 0.000013 0.000000 0.057057 0.000012 0.000000 0.054999 0.000012 0.000000 0.058604 0.000005 0.000000 0.054517 0.000003 0.000000 0.057584 0.000000 0.000000 0.056621 -0.000006 0.000000 0.055628 -0.000005 0.000000 0.058192 -0.000007 0.000000 0.054241 -0.000006 0.000000 0.057262 -0.000006 0.000000 0.056105 -0.000006 0.000000 0.057095 -0.000004 0.000000 0.056027 -0.000006 0.000000 0.042575 -0.000005 0.000000 0.031209 -0.000003 0.000000 0.022201 -0.000002 0.000000 0.012387 -0.000001 0.000000 0.002722 -0.000001 0.000000 
-0.001998 0.015717 0.000000 -0.019838 0.021533 0.000000 -0.041828 0.029441 0.000000 -0.077367 0.039187 0.000000 -0.121173 0.046510 0.000000 -0.180163 0.041359 0.000000 -0.203831 0.005062 0.000000 -0.183018 0.007686 0.000000 -0.218372 0.007141 0.000000 -0.205453 0.004589 0.000000 -0.236900 0.034523 0.000000 -0.304594 0.014991 0.000000 -0.273955 0.046160 0.000000 -0.454477 0.069609 0.000000 -0.492707 -0.024290 0.000000 -0.412811 0.005268 0.000000 -0.517027 0.034050 0.000000 -0.466955 -0.027051 0.000000 -0.450351 0.040246 0.000000 -0.514298 -0.048024 0.000000 -0.334090 -0.086381 0.000000 -0.284801 0.029992 0.000000 -0.360443 -0.075772 0.000000 -0.119415 -0.035247 0.000000 -0.271129 0.007545 0.000000 -0.131398 -0.054452 0.000000 -0.144669 0.032938 0.000000 -0.210357 -0.033945 0.000000 -0.067622 -0.002083 0.000000 -0.208337 0.008408 0.000000 -0.084174 -0.037629 0.000000 -0.130631 0.031361 0.000000 -0.155918 -0.037955 0.000000 -0.049588 0.006747 0.000000 -0.170212 0.000988 0.000000 -0.054114 -0.025080 0.000000 -0.117929 0.025367 0.000000 -0.113060 -0.037625 0.000000 -0.035696 0.010893 0.000000 -0.137708 -0.003891 0.000000 -0.029593 -0.017123 0.000000 -0.102706 0.019578 0.000000 -0.074501 -0.034661 0.000000 -0.027061 0.013525 0.000000 -0.105244 -0.007688 0.000000 -0.012959 -0.010680 0.000000 -0.083349 0.014039 0.000000 -0.044996 -0.029401 0.000000 -0.018933 0.014637 0.000000 -0.078435 -0.010185 0.000000 0.001055 -0.005679 0.000000 -0.066677 0.009099 0.000000 -0.019557 -0.023395 0.000000 -0.015687 0.014553 0.000000 -0.052828 -0.012274 0.000000 0.009342 -0.001707 0.000000 -0.049110 0.004871 0.000000 -0.002007 -0.016970 0.000000 -0.012913 0.013295 0.000000 -0.032654 -0.014574 0.000000 0.017642 0.001177 0.000000 -0.036135 0.001310 0.000000 0.013231 -0.015541 0.000000 -0.004701 0.010314 0.000000 -0.011176 -0.008643 0.000000 0.017700 0.005493 0.000000 -0.021322 -0.002291 0.000000 0.022276 -0.008134 0.000000 -0.003477 0.009047 0.000000 0.001348 -0.013150 0.000000 0.026197 0.004651 0.000000 -0.008972 -0.002129 0.000000 0.029873 -0.005288 0.000000 0.002082 0.006370 0.000000 0.015190 -0.011964 0.000000 0.028555 0.005089 0.000000 0.003322 -0.003326 0.000000 0.034684 -0.003370 0.000000 0.010071 0.004339 0.000000 0.024496 -0.009915 0.000000 0.031619 0.005271 0.000000 0.012058 -0.004204 0.000000 0.039805 -0.001711 0.000000 0.015407 0.002642 0.000000 0.033579 -0.007535 0.000000 0.031582 0.005216 0.000000 0.021566 -0.004991 0.000000 0.042030 -0.000336 0.000000 0.022263 0.001300 0.000000 0.038765 -0.005559 0.000000 0.033775 0.004583 0.000000 0.028063 -0.005948 0.000000 0.046079 0.000327 0.000000 0.026545 0.000167 0.000000 0.044749 -0.005833 0.000000 0.037726 0.002937 0.000000 0.036884 -0.003113 0.000000 0.045789 0.002617 0.000000 0.032570 -0.000145 0.000000 0.046691 -0.002722 0.000000 0.038818 0.003342 0.000000 0.039410 -0.004114 0.000000 0.048640 0.001597 0.000000 0.035940 -0.000445 0.000000 0.049597 -0.001856 0.000000 0.039935 0.002288 0.000000 0.044543 -0.003912 0.000000 0.048722 0.001670 0.000000 0.040663 -0.000912 0.000000 0.050611 -0.001259 0.000000 0.043337 0.001666 0.000000 0.047062 -0.003265 0.000000 0.050508 0.001880 0.000000 0.042912 -0.001318 0.000000 0.053403 -0.000703 0.000000 0.044546 0.001170 0.000000 0.051060 -0.002555 0.000000 0.050050 0.002051 0.000000 0.046776 -0.001744 0.000000 0.053963 -0.000249 0.000000 0.047483 0.000794 0.000000 0.052338 -0.002153 0.000000 0.051893 0.001904 0.000000 0.048243 -0.002234 0.000000 0.056416 -0.000166 0.000000 0.048210 0.000438 0.000000 0.055166 -0.002889 0.000000 0.053418 0.000664 0.000000 0.052621 -0.000959 0.000000 0.056051 0.001385 0.000000 0.051016 0.000907 0.000000 0.055172 -0.001144 0.000000 0.053932 0.001744 0.000000 0.051907 -0.001118 0.000000 0.057160 0.000499 0.000000 0.051059 0.000416 0.000000 0.056704 -0.000902 0.000000 0.053148 0.001259 0.000000 0.054259 -0.001420 0.000000 0.056460 0.000594 0.000000 0.052995 0.000051 0.000000 0.056603 -0.000750 0.000000 0.054642 0.001041 0.000000 0.054626 -0.001380 0.000000 0.057646 0.000920 0.000000 0.052759 -0.000308 0.000000 0.058508 -0.000568 0.000000 0.054024 0.000874 0.000000 0.056855 -0.001328 0.000000 0.056795 0.001123 0.000000 0.054640 -0.000693 0.000000 0.058353 -0.000412 0.000000 0.055545 0.000648 0.000000 0.057023 -0.001370 0.000000 0.058181 0.001049 0.000000 0.054765 -0.001312 0.000000 0.060558 -0.000443 0.000000 0.055305 0.000449 0.000000 0.059316 -0.002084 0.000000 0.058761 0.000025 0.000000 0.058153 -0.000627 0.000000 0.060360 0.001263 0.000000 0.056810 0.001241 0.000000 0.058824 -0.000785 0.000000 0.058837 0.001445 0.000000 0.056310 -0.000455 0.000000 0.060493 0.000451 0.000000 0.055491 0.000610 0.000000 0.059661 -0.000567 0.000000 0.056742 0.001134 0.000000 0.057464 -0.000884 0.000000 0.058760 0.000715 0.000000 0.055884 0.000230 0.000000 0.058533 -0.000491 0.000000 0.056865 0.001041 0.000000 0.056502 -0.000991 0.000000 0.058945 0.001008 0.000000 0.054402 -0.000136 0.000000 0.059402 -0.000410 0.000000 0.055227 0.000899 0.000000 0.057623 -0.001052 0.000000 0.057347 0.001094 0.000000 0.055402 -0.000514 0.000000 0.058424 -0.000359 0.000000 0.056090 0.000662 0.000000 0.056975 -0.001172 0.000000 0.058255 0.000923 0.000000 0.054910 -0.001088 0.000000 0.060042 -0.000457 0.000000 0.055428 0.000433 0.000000 0.058743 -0.001944 0.000000 0.058507 -0.000063 0.000000 0.057743 -0.000520 0.000000 0.059703 0.001012 0.000000 0.056809 0.001342 0.000000 0.057875 -0.000762 0.000000 0.058693 0.001264 0.000000 0.055729 -0.000234 0.000000 0.059747 0.000241 0.000000 0.055339 0.000773 0.000000 0.058557 -0.000677 0.000000 0.056743 0.000973 0.000000 0.056669 -0.000653 0.000000 0.058177 0.000434 0.000000 0.055682 0.000484 0.000000 0.057357 -0.000704 0.000000 0.057007 0.000982 0.000000 0.055409 -0.000770 0.000000 0.058544 0.000656 0.000000 0.054020 0.000272 0.000000 0.058054 -0.000690 0.000000 0.055314 0.000976 0.000000 0.056116 -0.000842 0.000000 0.056968 0.000753 0.000000 0.054591 0.000082 0.000000 0.056810 -0.000679 0.000000 0.055908 0.000977 0.000000 0.054885 -0.000889 0.000000 0.057661 0.000766 0.000000 0.053387 -0.000114 0.000000 0.057851 -0.000647 0.000000 0.054697 0.000929 0.000000 0.056022 -0.000967 0.000000 0.056615 0.000744 0.000000 0.054591 -0.000323 0.000000 0.057186 -0.000523 0.000000 0.055702 0.000871 0.000000 0.055438 -0.001058 0.000000 0.057794 0.000717 0.000000 0.054067 -0.000554 0.000000 0.058824 -0.000279 0.000000 0.054729 0.000802 0.000000 0.057165 -0.001149 0.000000 0.057017 0.000791 0.000000 0.055674 -0.000694 0.000000 0.058344 -0.000007 0.000000 0.055841 0.000681 0.000000 0.056906 -0.001142 0.000000 0.058168 0.000888 0.000000 0.055239 -0.000761 0.000000 0.059667 0.000246 0.000000 0.054898 0.000513 0.000000 0.058566 -0.001052 0.000000 0.057050 0.000972 0.000000 0.056770 -0.000791 0.000000 0.058611 0.000686 0.000000 0.055651 0.000460 0.000000 0.057644 -0.000938 0.000000 0.057853 0.000078 0.000000 0.058127 0.000035 0.000000 0.059265 0.007254 0.000000 0.045789 0.012404 0.000000 0.036336 0.010184 0.000000 0.026936 0.009409 0.000000 0.019573 0.009738 0.000000 0.009261 0.012041 0.000000 
-0.002162 0.029098 0.000000 -0.014805 0.039830 0.000000 -0.036093 0.057530 0.000000 -0.065263 0.079346 0.000000 -0.111542 0.102799 0.000000 -0.172020 0.082664 0.000000 -0.177695 0.002863 0.000000 -0.130741 0.014552 0.000000 -0.174333 0.022450 0.000000 -0.113703 0.018544 0.000000 -0.140479 0.099156 0.000000 -0.111663 0.037078 0.000000 -0.015526 0.149897 0.000000 -0.032411 0.218774 0.000000 -0.007459 -0.041631 0.000000 0.098960 0.024365 0.000000 0.046633 0.054196 0.000000 0.059598 -0.066648 0.000000 0.115772 0.047381 0.000000 -0.044546 -0.116262 0.000000 0.051749 -0.229562 0.000000 -0.014066 0.026355 0.000000 -0.170056 -0.165384 0.000000 -0.030285 -0.089303 0.000000 -0.208098 0.012013 0.000000 -0.089031 -0.126452 0.000000 -0.090375 0.078977 0.000000 -0.197097 -0.077048 0.000000 -0.021993 -0.002017 0.000000 -0.200912 0.016596 0.000000 -0.052024 -0.077666 0.000000 -0.114374 0.071799 0.000000 -0.148347 -0.080994 0.000000 -0.021924 0.014349 0.000000 -0.168846 0.004569 0.000000 -0.033196 -0.052240 0.000000 -0.113514 0.058976 0.000000 -0.110717 -0.082231 0.000000 -0.017008 0.024653 0.000000 -0.143200 -0.006146 0.000000 -0.016129 -0.035051 0.000000 -0.107499 0.044849 0.000000 -0.075226 -0.075733 0.000000 -0.017408 0.030690 0.000000 -0.116091 -0.014160 0.000000 -0.006169 -0.021924 0.000000 -0.095219 0.032026 0.000000 -0.048004 -0.064438 0.000000 -0.018421 0.033472 0.000000 -0.092483 -0.020017 0.000000 0.001205 -0.011727 0.000000 -0.082315 0.020619 0.000000 -0.025699 -0.051034 0.000000 -0.022368 0.033328 0.000000 -0.070019 -0.025134 0.000000 0.004926 -0.003709 0.000000 -0.068481 0.011273 0.000000 -0.010286 -0.036382 0.000000 -0.027832 0.030554 0.000000 -0.051175 -0.030899 0.000000 0.007097 0.003248 0.000000 -0.059594 0.004037 0.000000 -0.000389 -0.033226 0.000000 -0.023840 0.023982 0.000000 -0.033861 -0.019452 0.000000 -0.000923 0.011235 0.000000 -0.047358 -0.005141 0.000000 0.007724 -0.017593 0.000000 -0.028079 0.021080 0.000000 -0.018924 -0.029212 0.000000 0.008223 0.010420 0.000000 -0.033771 -0.003594 0.000000 0.011854 -0.010946 0.000000 -0.023809 0.014605 0.000000 -0.006265 -0.026400 0.000000 0.007787 0.011762 0.000000 -0.023376 -0.006204 0.000000 0.014650 -0.006824 0.000000 -0.018297 0.010011 0.000000 0.002717 -0.021635 0.000000 0.006851 0.012278 0.000000 -0.014602 -0.008333 0.000000 0.016822 -0.003436 0.000000 -0.013116 0.006103 0.000000 0.010066 -0.016228 0.000000 0.004654 0.011982 0.000000 -0.006025 -0.010531 0.000000 0.017800 -0.000685 0.000000 -0.007628 0.003149 0.000000 0.014583 -0.011652 0.000000 0.003559 0.010549 0.000000 0.000611 -0.012704 0.000000 0.018358 0.001253 0.000000 -0.004793 0.000968 0.000000 0.017214 -0.012121 0.000000 0.005454 0.007325 0.000000 0.005260 -0.007060 0.000000 0.013983 0.005083 0.000000 0.000089 -0.000780 0.000000 0.018739 -0.005972 0.000000 0.005468 0.007480 0.000000 0.011308 -0.009401 0.000000 0.017813 0.003622 0.000000 0.005412 -0.000816 0.000000 0.020465 -0.003840 0.000000 0.007650 0.005057 0.000000 0.015877 -0.008664 0.000000 0.017468 0.003910 0.000000 0.009518 -0.001849 0.000000 0.021114 -0.002584 0.000000 0.010201 0.003573 0.000000 0.018545 -0.007099 0.000000 0.017309 0.004244 0.000000 0.012570 -0.002870 0.000000 0.022091 -0.001505 0.000000 0.012067 0.002409 0.000000 0.021073 -0.005432 0.000000 0.016518 0.004439 0.000000 0.015900 -0.003929 0.000000 0.022316 -0.000564 0.000000 0.014167 0.001628 0.000000 0.022146 -0.004451 0.000000 0.016769 0.004118 0.000000 0.017643 -0.004810 0.000000 0.022301 -0.000054 0.000000 0.014406 0.001055 0.000000 0.022417 -0.005798 0.000000 0.017166 0.002058 0.000000 0.018089 -0.002201 0.000000 0.019620 0.002327 0.000000 0.016777 0.001251 0.000000 0.022587 -0.002589 0.000000 0.018087 0.003542 0.000000 0.021073 -0.002797 0.000000 0.021940 0.001069 0.000000 0.018893 0.000658 0.000000 0.023616 -0.001891 0.000000 0.018968 0.002529 0.000000 0.022904 -0.003152 0.000000 0.021668 0.001352 0.000000 0.020547 -0.000064 0.000000 0.023659 -0.001534 0.000000 0.020060 0.002036 0.000000 0.023510 -0.002918 0.000000 0.021739 0.001962 0.000000 0.021376 -0.000837 0.000000 0.024236 -0.001155 0.000000 0.020397 0.001689 0.000000 0.024523 -0.002724 0.000000 0.021370 0.002309 0.000000 0.022764 -0.001612 0.000000 0.024135 -0.000817 0.000000 0.021339 0.001266 0.000000 0.024771 -0.002710 0.000000 0.021719 0.002196 0.000000 0.023195 -0.002705 0.000000 0.024249 -0.000660 0.000000 0.020926 0.001004 0.000000 0.024868 -0.003951 0.000000 0.021195 0.000611 0.000000 0.022586 -0.001410 0.000000 0.022508 0.002056 0.000000 0.022091 0.001966 0.000000 0.024582 -0.001763 0.000000 0.022198 0.002761 0.000000 0.024547 -0.001262 0.000000 0.023876 0.000970 0.000000 0.022932 0.001002 0.000000 0.025351 -0.001120 0.000000 0.022070 0.002226 0.000000 0.025234 -0.001900 0.000000 0.022983 0.001590 0.000000 0.023247 0.000273 0.000000 0.024659 -0.000928 0.000000 0.022003 0.002034 0.000000 0.024680 -0.002031 0.000000 0.022507 0.002122 0.000000 0.022905 -0.000462 0.000000 0.024442 -0.000770 0.000000 0.021501 0.001759 0.000000 0.024753 -0.002107 0.000000 0.021756 0.002237 0.000000 0.023431 -0.001166 0.000000 0.023707 -0.000661 0.000000 0.021963 0.001325 0.000000 0.024280 -0.002272 0.000000 0.021906 0.001931 0.000000 0.023232 -0.002138 0.000000 0.023400 -0.000682 0.000000 0.021321 0.000998 0.000000 0.023813 -0.003603 0.000000 0.021180 0.000433 0.000000 0.022082 -0.001088 0.000000 0.021711 0.001538 0.000000 0.022414 0.002243 0.000000 0.023159 -0.001666 0.000000 0.022531 0.002372 0.000000 0.023578 -0.000687 0.000000 0.022995 0.000484 0.000000 0.023201 0.001369 0.000000 0.023724 -0.001320 0.000000 0.022622 0.001898 0.000000 0.023959 -0.001335 0.000000 0.022495 0.000940 0.000000 0.023457 0.000870 0.000000 0.022957 -0.001332 0.000000 0.022722 0.001926 0.000000 0.023107 -0.001516 0.000000 0.022431 0.001343 0.000000 0.022783 0.000498 0.000000 0.022617 -0.001316 0.000000 0.022200 0.001915 0.000000 0.022727 -0.001656 0.000000 0.021892 0.001497 0.000000 0.022697 0.000164 0.000000 0.021729 -0.001331 0.000000 0.022513 0.001920 0.000000 0.021795 -0.001751 0.000000 0.022316 0.001490 0.000000 0.022093 -0.000184 0.000000 0.021799 -0.001312 0.000000 0.022450 0.001831 0.000000 0.021732 -0.001914 0.000000 0.022419 0.001432 0.000000 0.022250 -0.000565 0.000000 0.021671 -0.001109 0.000000 0.023177 0.001750 0.000000 0.021324 -0.002092 0.000000 0.023356 0.001371 0.000000 0.021930 -0.001029 0.000000 0.022589 -0.000661 0.000000 0.023314 0.001661 0.000000 0.021781 -0.002284 0.000000 0.023712 0.001498 0.000000 0.022362 -0.001320 0.000000 0.022986 -0.000156 0.000000 0.023917 0.001451 0.000000 0.021801 -0.002315 0.000000 0.024512 0.001679 0.000000 0.022285 -0.001486 0.000000 0.023842 0.000346 0.000000 0.023816 0.001104 0.000000 0.022437 -0.002151 0.000000 0.024562 0.001790 0.000000 0.022737 -0.001566 0.000000 0.024016 0.001112 0.000000 0.024125 0.000961 0.000000 0.022718 -0.002208 0.000000 0.024728 -0.000489 0.000000 0.023064 -0.001416 0.000000 0.025993 0.012332 0.000000 0.028139 0.022925 0.000000 0.024399 0.018850 0.000000 0.021127 0.016761 0.000000 0.014956 0.017674 0.000000 0.008722 0.021570 0.000000 
0.016192 0.039243 0.000000 0.008880 0.055464 0.000000 0.001005 0.079899 0.000000 -0.010293 0.114636 0.000000 -0.021812 0.153267 0.000000 -0.039988 0.107512 0.000000 -0.023288 -0.036217 0.000000 -0.004703 0.004324 0.000000 -0.016433 -0.009897 0.000000 0.015841 -0.029264 0.000000 0.024492 0.032484 0.000000 0.073193 -0.109961 0.000000 0.106771 -0.033093 0.000000 0.108694 0.061541 0.000000 0.159601 -0.155661 0.000000 0.070218 -0.048824 0.000000 0.182803 0.073412 0.000000 0.123313 -0.096190 0.000000 0.119062 0.144390 0.000000 0.171251 0.015999 0.000000 0.002149 -0.116862 0.000000 0.186595 0.251797 0.000000 0.058124 -0.059553 0.000000 0.067579 0.002796 0.000000 -0.024145 0.066291 0.000000 0.007621 -0.172175 0.000000 0.008979 0.141004 0.000000 -0.034931 -0.102327 0.000000 0.019553 0.001731 0.000000 -0.041907 0.038439 0.000000 0.004483 -0.124166 0.000000 -0.016808 0.127684 0.000000 -0.031483 -0.130405 0.000000 0.009412 0.027245 0.000000 -0.039390 0.012260 0.000000 0.003446 -0.080411 0.000000 -0.023975 0.102888 0.000000 -0.025550 -0.134131 0.000000 0.005508 0.043376 0.000000 -0.037433 -0.004770 0.000000 0.004380 -0.052823 0.000000 -0.028747 0.078676 0.000000 -0.017340 -0.124753 0.000000 -0.000595 0.054389 0.000000 -0.032385 -0.018927 0.000000 0.002163 -0.031552 0.000000 -0.028558 0.055875 0.000000 -0.012658 -0.106199 0.000000 -0.004265 0.059116 0.000000 -0.029085 -0.029812 0.000000 0.002051 -0.015848 0.000000 -0.028423 0.036004 0.000000 -0.007081 -0.083341 0.000000 -0.010093 0.058873 0.000000 -0.023542 -0.039568 0.000000 -0.000831 -0.003245 0.000000 -0.025720 0.020083 0.000000 -0.005594 -0.057618 0.000000 -0.014460 0.054183 0.000000 -0.020734 -0.049503 0.000000 -0.003169 0.009596 0.000000 -0.026667 0.008796 0.000000 -0.004808 -0.051294 0.000000 -0.018807 0.043787 0.000000 -0.017983 -0.031560 0.000000 -0.010517 0.018989 0.000000 -0.023589 -0.010938 0.000000 -0.005040 -0.027413 0.000000 -0.019612 0.035695 0.000000 -0.013063 -0.049452 0.000000 -0.007140 0.019498 0.000000 -0.020312 -0.005760 0.000000 -0.004196 -0.015250 0.000000 -0.020048 0.024489 0.000000 -0.009076 -0.043559 0.000000 -0.010284 0.022199 0.000000 -0.017059 -0.010189 0.000000 -0.006125 -0.008449 0.000000 -0.018485 0.016271 0.000000 -0.008299 -0.035063 0.000000 -0.011326 0.022591 0.000000 -0.015645 -0.014174 0.000000 -0.005974 -0.003198 0.000000 -0.018131 0.009397 0.000000 -0.006123 -0.025305 0.000000 -0.014166 0.021306 0.000000 -0.012118 -0.018137 0.000000 -0.008017 0.001268 0.000000 -0.015652 0.004517 0.000000 -0.006873 -0.016746 0.000000 -0.014689 0.018554 0.000000 -0.011418 -0.020747 0.000000 -0.009360 0.005731 0.000000 -0.016782 0.001310 0.000000 -0.007024 -0.016081 0.000000 -0.017897 0.014892 0.000000 -0.012599 -0.011642 0.000000 -0.014706 0.007788 0.000000 -0.014502 -0.004901 0.000000 -0.008970 -0.008101 0.000000 -0.016170 0.010774 0.000000 -0.009044 -0.016459 0.000000 -0.011727 0.007493 0.000000 -0.013124 -0.003097 0.000000 -0.007848 -0.004094 0.000000 -0.015588 0.006876 0.000000 -0.006786 -0.013730 0.000000 -0.013454 0.008029 0.000000 -0.010615 -0.004558 0.000000 -0.009520 -0.001942 0.000000 -0.013641 0.004235 0.000000 -0.007570 -0.010373 0.000000 -0.013291 0.007854 0.000000 -0.010293 -0.006100 0.000000 -0.009458 -0.000200 0.000000 -0.013777 0.002189 0.000000 -0.006887 -0.007007 0.000000 -0.015025 0.007224 0.000000 -0.008064 -0.007542 0.000000 -0.011536 0.001483 0.000000 -0.012005 0.000964 0.000000 -0.008554 -0.004754 0.000000 -0.014462 0.006407 0.000000 -0.008697 -0.007766 0.000000 -0.012305 0.003072 0.000000 -0.013139 0.000321 0.000000 -0.008656 -0.005649 0.000000 -0.016920 0.004992 0.000000 -0.010700 -0.003413 0.000000 -0.016132 0.002697 0.000000 -0.010830 -0.002061 0.000000 -0.010572 -0.002453 0.000000 -0.014207 0.003258 0.000000 -0.007918 -0.004971 0.000000 -0.013302 0.002679 0.000000 -0.010306 -0.001260 0.000000 -0.009500 -0.000977 0.000000 -0.013643 0.001971 0.000000 -0.006540 -0.004120 0.000000 -0.014537 0.002951 0.000000 -0.008229 -0.001940 0.000000 -0.011184 -0.000263 0.000000 -0.011752 0.001190 0.000000 -0.007997 -0.003059 0.000000 -0.013785 0.003054 0.000000 -0.008286 -0.002806 0.000000 -0.010955 0.000410 0.000000 -0.011996 0.000586 0.000000 -0.007536 -0.002300 0.000000 -0.014827 0.002882 0.000000 -0.006606 -0.003458 0.000000 -0.012814 0.001014 0.000000 -0.010357 0.000012 0.000000 -0.009251 -0.001751 0.000000 -0.013828 0.002624 0.000000 -0.007719 -0.003842 0.000000 -0.013357 0.001826 0.000000 -0.011574 -0.000170 0.000000 -0.009240 -0.002354 0.000000 -0.016406 0.002307 0.000000 -0.010322 -0.001939 0.000000 -0.016507 0.001758 0.000000 -0.009363 -0.000834 0.000000 -0.011391 -0.000892 0.000000 -0.013461 0.001480 0.000000 -0.007750 -0.002133 0.000000 -0.013834 0.002067 0.000000 -0.009207 -0.000866 0.000000 -0.010171 0.000295 0.000000 -0.012837 0.001251 0.000000 -0.006767 -0.001797 0.000000 -0.014829 0.002702 0.000000 -0.007280 -0.001446 0.000000 -0.011850 0.000752 0.000000 -0.011019 0.001020 0.000000 -0.008398 -0.001496 0.000000 -0.013754 0.002784 0.000000 -0.007656 -0.002072 0.000000 -0.011588 0.000993 0.000000 -0.011351 0.000588 0.000000 -0.008025 -0.001307 0.000000 -0.014549 0.002416 0.000000 -0.006309 -0.002465 0.000000 -0.013401 0.001109 0.000000 -0.009747 0.000089 0.000000 -0.009859 -0.001115 0.000000 -0.013375 0.001971 0.000000 -0.007723 -0.002582 0.000000 -0.013849 0.001453 0.000000 -0.010896 0.000019 0.000000 -0.010125 -0.001802 0.000000 -0.015900 0.001669 0.000000 -0.010403 -0.001051 0.000000 -0.016836 0.000680 0.000000 -0.008802 -0.000105 0.000000 -0.012322 -0.000878 0.000000 -0.012722 0.000844 0.000000 -0.008462 -0.000699 0.000000 -0.014169 0.000617 0.000000 -0.008571 0.000044 0.000000 -0.011215 -0.000097 0.000000 -0.012021 0.000738 0.000000 -0.007670 -0.000527 0.000000 -0.014800 0.000936 0.000000 -0.006722 0.000022 0.000000 -0.012875 0.000031 0.000000 -0.010182 0.000831 0.000000 -0.009323 -0.000479 0.000000 -0.013413 0.000980 0.000000 -0.007399 0.000086 0.000000 -0.012531 -0.000106 0.000000 -0.010538 0.000867 0.000000 -0.009069 -0.000535 0.000000 -0.014027 0.000782 0.000000 -0.006422 0.000246 0.000000 -0.014246 -0.000495 0.000000 -0.008910 0.000911 0.000000 -0.010857 -0.000691 0.000000 -0.012355 0.000468 0.000000 -0.007693 0.000403 0.000000 -0.013667 -0.001003 0.000000 -0.009242 0.000996 0.000000 -0.010656 -0.000937 0.000000 -0.012643 0.000226 0.000000 -0.007213 0.000425 0.000000 -0.014907 -0.001450 0.000000 -0.007462 0.001218 0.000000 -0.012487 -0.001237 0.000000 -0.010736 0.000111 0.000000 -0.009006 0.000214 0.000000 -0.013788 -0.001663 0.000000 -0.007752 0.001610 0.000000 -0.012255 -0.001547 0.000000 -0.010930 0.000211 0.000000 -0.008652 0.000032 0.000000 -0.014413 -0.001563 0.000000 -0.006273 0.001866 0.000000 -0.013876 -0.001737 0.000000 -0.009148 0.000403 0.000000 -0.010212 -0.000090 0.000000 -0.012804 -0.001285 0.000000 -0.007058 0.001918 0.000000 -0.013213 -0.001797 0.000000 -0.009415 0.000672 0.000000 -0.009693 -0.000246 0.000000 -0.013046 -0.000702 0.000000 -0.005498 0.001758 0.000000 -0.013713 -0.001540 0.000000 -0.008275 -0.000268 0.000000 -0.014597 -0.001230 0.000000 -0.010237 0.002179 0.000000 0.010833 0.013998 0.000000 0.020657 0.017195 0.000000 0.024115 0.018852 0.000000 0.024095 0.022144 0.000000 0.020592 0.029159 0.000000 