# vtk DataFile Version 2.0
Comment goes here
ASCII

DATASET STRUCTURED_POINTS
FIELD FieldData 1
TIME 1 1 double
0.07000000
DIMENSIONS    64   64   1

ORIGIN    0.000   0.000   0.000
SPACING   0.03125 0.03125   1.000

POINT_DATA   4096
VECTORS u double

0.557296 -0.032893 0.000000 -1.705478 0.012260 0.000000 0.350291 0.001774 0.000000 -1.597965 -0.000680 0.000000 0.037261 -0.004438 0.000000 -1.504799 -0.007892 0.000000 0.253245 0.007480 0.000000 -1.398077 -0.006403 0.000000 0.369976 0.006266 0.000000 -1.337591 -0.007044 0.000000 0.412086 0.005764 0.000000 -1.261560 -0.007653 0.000000 0.387962 0.005569 0.000000 -1.158495 -0.008052 0.000000 0.316735 0.005723 0.000000 -1.030281 -0.008397 0.000000 0.207683 0.005714 0.000000 -0.875098 -0.008739 0.000000 0.065635 0.003598 0.000000 -0.690601 -0.008906 0.000000 -0.112797 0.004103 0.000000 -0.471776 -0.005260 0.000000 -0.328614 0.007705 0.000000 -0.223718 -0.003347 0.000000 -0.568522 0.011478 0.000000 0.030628 -0.006866 0.000000 -0.798847 0.007143 0.000000 0.256681 -0.005973 0.000000 -0.988431 0.006012 0.000000 0.436093 -0.003896 0.000000 -1.127380 0.007931 0.000000 0.565597 -0.004318 0.000000 -1.220618 0.008650 0.000000 0.657636 -0.005856 0.000000 -1.288777 0.007513 0.000000 0.731952 -0.006153 0.000000 -1.347094 0.006747 0.000000 0.796874 -0.005264 0.000000 -1.395099 0.008266 0.000000 0.842875 -0.004818 0.000000 -1.416981 0.011217 0.000000 0.849777 -0.005412 0.000000 -1.394669 0.008910 0.000000 0.801947 -0.003554 0.000000 -1.316081 0.006733 0.000000 0.687008 -0.000219 0.000000 -1.170097 0.006692 0.000000 0.499684 0.002382 0.000000 -0.966216 0.005320 0.000000 0.257407 0.002761 0.000000 -0.731308 0.002278 0.000000 -0.014517 0.004587 0.000000 -0.483355 -0.000862 0.000000 -0.308525 0.006081 0.000000 -0.222179 -0.004045 0.000000 -0.627339 0.007419 0.000000 0.050654 -0.006839 0.000000 -0.966338 0.008743 0.000000 0.321997 -0.009264 0.000000 -1.306333 0.010126 0.000000 0.564375 -0.011446 0.000000 -1.618645 0.010832 0.000000 0.739881 -0.013709 0.000000 -1.857098 0.016320 0.000000 
-0.216434 -0.108987 0.000000 0.220984 0.099886 0.000000 0.006084 -0.049888 0.000000 0.167463 0.148879 0.000000 0.356568 -0.032834 0.000000 0.116654 -0.112771 0.000000 -0.023170 -0.048727 0.000000 0.018548 -0.064365 0.000000 -0.238241 -0.024525 0.000000 -0.017003 -0.026674 0.000000 -0.363890 -0.032153 0.000000 -0.046310 0.006907 0.000000 -0.429134 -0.045784 0.000000 -0.082738 0.030807 0.000000 -0.457609 -0.058842 0.000000 -0.127900 0.050279 0.000000 -0.459716 -0.072963 0.000000 -0.185748 0.067698 0.000000 -0.439647 -0.086540 0.000000 -0.260509 0.086144 0.000000 -0.393815 -0.103638 0.000000 -0.357610 0.100452 0.000000 -0.319930 -0.119188 0.000000 -0.470193 0.109405 0.000000 -0.226818 -0.123644 0.000000 -0.583433 0.107401 0.000000 -0.136197 -0.106576 0.000000 -0.686189 0.087495 0.000000 -0.065970 -0.084392 0.000000 -0.766118 0.062224 0.000000 -0.022224 -0.061738 0.000000 -0.815843 0.039679 0.000000 -0.004887 -0.042483 0.000000 -0.845558 0.027247 0.000000 0.001833 -0.031630 0.000000 -0.872112 0.021886 0.000000 0.011117 -0.025767 0.000000 -0.899825 0.015375 0.000000 0.020497 -0.016633 0.000000 -0.917109 0.001033 0.000000 0.018467 0.001339 0.000000 -0.911718 -0.020696 0.000000 -0.001774 0.028960 0.000000 -0.882361 -0.047395 0.000000 -0.043114 0.060209 0.000000 -0.819531 -0.079254 0.000000 -0.113988 0.092488 0.000000 -0.715531 -0.106951 0.000000 -0.209689 0.118619 0.000000 -0.581882 -0.120071 0.000000 -0.312693 0.133001 0.000000 -0.435311 -0.124351 0.000000 -0.411267 0.142608 0.000000 -0.278736 -0.127569 0.000000 -0.506473 0.153101 0.000000 -0.109398 -0.129972 0.000000 -0.598061 0.161041 0.000000 0.071231 -0.126197 0.000000 -0.677938 0.159507 0.000000 0.251690 -0.109128 0.000000 -0.724314 0.143980 0.000000 0.408062 -0.072972 0.000000 -0.700460 0.104983 0.000000 0.490860 0.108503 0.000000 
1.873890 0.236983 0.000000 0.559902 -0.210258 0.000000 1.496983 0.055295 0.000000 0.511100 -0.351164 0.000000 1.087630 0.046371 0.000000 0.453049 0.371846 0.000000 1.802179 0.105586 0.000000 0.553910 0.208669 0.000000 2.186684 0.041817 0.000000 0.571013 0.118605 0.000000 2.450789 0.035070 0.000000 0.532755 0.057591 0.000000 2.669829 0.041997 0.000000 0.464189 0.020423 0.000000 2.865644 0.050886 0.000000 0.379989 -0.006290 0.000000 3.049730 0.063562 0.000000 0.284254 -0.028807 0.000000 3.230169 0.078359 0.000000 0.176693 -0.054738 0.000000 3.417864 0.101204 0.000000 0.055426 -0.079145 0.000000 3.608962 0.120288 0.000000 -0.087909 -0.096459 0.000000 3.797915 0.124718 0.000000 -0.244413 -0.097488 0.000000 3.972851 0.109899 0.000000 -0.369166 -0.076200 0.000000 4.116536 0.085941 0.000000 -0.453636 -0.047643 0.000000 4.218084 0.057656 0.000000 -0.503409 -0.021655 0.000000 4.279935 0.038365 0.000000 -0.524786 -0.012575 0.000000 4.324054 0.034067 0.000000 -0.533695 -0.015437 0.000000 4.365157 0.034460 0.000000 -0.539366 -0.014643 0.000000 4.394720 0.025550 0.000000 -0.537025 -0.002788 0.000000 4.398491 0.005826 0.000000 -0.517702 0.014829 0.000000 4.369509 -0.020448 0.000000 -0.469377 0.037786 0.000000 4.299570 -0.056097 0.000000 -0.386832 0.070655 0.000000 4.173473 -0.097308 0.000000 -0.268690 0.098084 0.000000 3.991017 -0.128329 0.000000 -0.126373 0.105765 0.000000 3.777478 -0.144293 0.000000 0.022376 0.103161 0.000000 3.540605 -0.157437 0.000000 0.173932 0.101287 0.000000 3.273437 -0.173383 0.000000 0.332861 0.099007 0.000000 2.971792 -0.187467 0.000000 0.499753 0.088620 0.000000 2.638579 -0.189723 0.000000 0.662026 0.056502 0.000000 2.280102 -0.167819 0.000000 0.809936 -0.013022 0.000000 1.901159 -0.096507 0.000000 0.873386 -0.467706 0.000000 
3.933612 0.204497 0.000000 0.115130 0.476793 0.000000 3.012234 -0.001086 0.000000 -0.170897 0.558232 0.000000 1.541124 0.025217 0.000000 -0.131839 -0.827320 0.000000 3.447344 -0.149589 0.000000 0.007607 -0.448870 0.000000 4.412983 -0.041628 0.000000 0.053067 -0.290779 0.000000 5.032358 0.006106 0.000000 0.086505 -0.212134 0.000000 5.476437 0.022782 0.000000 0.124730 -0.165008 0.000000 5.817631 0.025358 0.000000 0.168102 -0.133807 0.000000 6.088479 0.022771 0.000000 0.217095 -0.112741 0.000000 6.303841 0.021022 0.000000 0.269587 -0.101551 0.000000 6.467244 0.017629 0.000000 0.331008 -0.090647 0.000000 6.584660 0.024147 0.000000 0.398438 -0.079548 0.000000 6.664870 0.032861 0.000000 0.463000 -0.067535 0.000000 6.721377 0.018178 0.000000 0.515738 -0.056189 0.000000 6.768681 0.000078 0.000000 0.553658 -0.039324 0.000000 6.811304 -0.011965 0.000000 0.575786 -0.022172 0.000000 6.850166 -0.021107 0.000000 0.589764 -0.016872 0.000000 6.876033 -0.022721 0.000000 0.605852 -0.019217 0.000000 6.882193 -0.020096 0.000000 0.626255 -0.014187 0.000000 6.871210 -0.018974 0.000000 0.644310 -0.002738 0.000000 6.848378 -0.017984 0.000000 0.654623 0.008287 0.000000 6.813413 -0.019365 0.000000 0.656211 0.022543 0.000000 6.765665 -0.022336 0.000000 0.645032 0.046844 0.000000 6.708331 -0.025654 0.000000 0.617903 0.075504 0.000000 6.634401 -0.023697 0.000000 0.582081 0.093468 0.000000 6.528770 -0.015748 0.000000 0.546720 0.112522 0.000000 6.385617 -0.008948 0.000000 0.510623 0.139599 0.000000 6.204968 -0.005828 0.000000 0.466656 0.171673 0.000000 5.982346 -0.005851 0.000000 0.408034 0.207016 0.000000 5.705493 -0.002766 0.000000 0.329644 0.249349 0.000000 5.351177 -0.003930 0.000000 0.228513 0.305971 0.000000 4.882568 0.041533 0.000000 0.108580 0.135771 0.000000 
4.073265 0.230432 0.000000 0.270064 0.711120 0.000000 3.306924 0.341322 0.000000 -0.046063 1.119945 0.000000 2.132710 0.007313 0.000000 -0.032625 -1.534373 0.000000 3.509963 -0.033860 0.000000 -0.070414 -0.756971 0.000000 4.418220 -0.003642 0.000000 -0.018044 -0.500770 0.000000 5.042596 0.001632 0.000000 0.048287 -0.386489 0.000000 5.500789 0.003772 0.000000 0.116635 -0.320771 0.000000 5.855629 0.007514 0.000000 0.184377 -0.277138 0.000000 6.139912 0.014568 0.000000 0.249394 -0.244170 0.000000 6.368804 0.025867 0.000000 0.309533 -0.218141 0.000000 6.545749 0.039783 0.000000 0.361569 -0.196561 0.000000 6.681570 0.052858 0.000000 0.413475 -0.176669 0.000000 6.784294 0.060157 0.000000 0.468587 -0.153995 0.000000 6.859999 0.057161 0.000000 0.508545 -0.123503 0.000000 6.913360 0.048021 0.000000 0.534227 -0.090266 0.000000 6.952468 0.035528 0.000000 0.552587 -0.060517 0.000000 6.981444 0.024386 0.000000 0.565357 -0.038443 0.000000 6.995832 0.017980 0.000000 0.577168 -0.021597 0.000000 6.992517 0.014057 0.000000 0.589892 -0.003661 0.000000 6.976613 0.007494 0.000000 0.601088 0.020044 0.000000 6.949870 -0.004486 0.000000 0.609623 0.049794 0.000000 6.907256 -0.022035 0.000000 0.612132 0.085534 0.000000 6.846080 -0.044918 0.000000 0.606168 0.127989 0.000000 6.768541 -0.070179 0.000000 0.591261 0.172013 0.000000 6.673017 -0.092507 0.000000 0.571978 0.211396 0.000000 6.546938 -0.108932 0.000000 0.553223 0.246314 0.000000 6.385427 -0.121341 0.000000 0.535052 0.281936 0.000000 6.188235 -0.129416 0.000000 0.514857 0.321630 0.000000 5.949108 -0.128845 0.000000 0.487752 0.365473 0.000000 5.655183 -0.111333 0.000000 0.449974 0.410818 0.000000 5.290759 -0.066687 0.000000 0.381954 0.455587 0.000000 4.845037 0.023426 0.000000 0.298577 0.481251 0.000000 
4.391405 0.233010 0.000000 0.080826 1.243134 0.000000 3.649213 0.315041 0.000000 -0.006457 1.732446 0.000000 2.684561 0.011780 0.000000 -0.015749 -2.204572 0.000000 3.678043 -0.111799 0.000000 -0.025284 -1.357128 0.000000 4.553386 -0.093999 0.000000 0.017925 -0.915155 0.000000 5.175940 -0.060224 0.000000 0.066981 -0.670326 0.000000 5.627128 -0.045567 0.000000 0.119378 -0.519848 0.000000 5.971299 -0.042384 0.000000 0.175719 -0.418089 0.000000 6.242957 -0.042246 0.000000 0.235798 -0.341633 0.000000 6.457652 -0.039117 0.000000 0.296430 -0.278496 0.000000 6.620049 -0.034408 0.000000 0.357836 -0.226468 0.000000 6.740053 -0.027759 0.000000 0.418511 -0.182271 0.000000 6.826547 -0.022251 0.000000 0.474863 -0.143240 0.000000 6.887408 -0.021780 0.000000 0.521813 -0.109550 0.000000 6.931406 -0.025604 0.000000 0.559123 -0.078432 0.000000 6.963276 -0.030324 0.000000 0.587914 -0.051148 0.000000 6.984426 -0.033877 0.000000 0.611095 -0.031260 0.000000 6.993641 -0.034531 0.000000 0.632885 -0.015902 0.000000 6.989938 -0.032821 0.000000 0.655383 0.001716 0.000000 6.974143 -0.030169 0.000000 0.676502 0.024005 0.000000 6.947646 -0.026520 0.000000 0.691671 0.050900 0.000000 6.909714 -0.021874 0.000000 0.696161 0.083720 0.000000 6.858334 -0.016373 0.000000 0.685991 0.124383 0.000000 6.791635 -0.010747 0.000000 0.660377 0.171029 0.000000 6.704196 -0.004415 0.000000 0.623446 0.219547 0.000000 6.588892 0.003007 0.000000 0.580528 0.274032 0.000000 6.445048 0.009223 0.000000 0.532598 0.336791 0.000000 6.270676 0.014367 0.000000 0.477245 0.410800 0.000000 6.058902 0.021254 0.000000 0.411461 0.500942 0.000000 5.796624 0.035011 0.000000 0.333295 0.613772 0.000000 5.461650 0.064091 0.000000 0.240512 0.751693 0.000000 5.018872 0.124909 0.000000 0.135776 0.907543 0.000000 
4.594872 0.285382 0.000000 0.208252 1.453312 0.000000 4.006336 0.428604 0.000000 0.121342 2.084597 0.000000 3.231372 0.016605 0.000000 0.112029 -2.527856 0.000000 3.914818 -0.024325 0.000000 0.029539 -1.632314 0.000000 4.604849 -0.046851 0.000000 0.025677 -1.123324 0.000000 5.161390 -0.047424 0.000000 0.066289 -0.837676 0.000000 5.590257 -0.048624 0.000000 0.124631 -0.664942 0.000000 5.927747 -0.048828 0.000000 0.189999 -0.548797 0.000000 6.201130 -0.045510 0.000000 0.258065 -0.458864 0.000000 6.424338 -0.034765 0.000000 0.321120 -0.380538 0.000000 6.595295 -0.021623 0.000000 0.378371 -0.316565 0.000000 6.724401 -0.007818 0.000000 0.429514 -0.263162 0.000000 6.821477 0.003805 0.000000 0.473133 -0.214856 0.000000 6.893763 0.010210 0.000000 0.507195 -0.167502 0.000000 6.945102 0.010711 0.000000 0.532023 -0.122136 0.000000 6.980278 0.006736 0.000000 0.550500 -0.081667 0.000000 7.003220 0.001205 0.000000 0.565219 -0.047658 0.000000 7.014547 -0.003810 0.000000 0.578489 -0.017894 0.000000 7.014111 -0.008440 0.000000 0.591391 0.012134 0.000000 7.003023 -0.013625 0.000000 0.603093 0.046541 0.000000 6.980654 -0.019655 0.000000 0.611650 0.087725 0.000000 6.943837 -0.026526 0.000000 0.614317 0.136913 0.000000 6.889917 -0.034747 0.000000 0.608887 0.194688 0.000000 6.817947 -0.044565 0.000000 0.594966 0.259453 0.000000 6.725667 -0.055576 0.000000 0.575194 0.326700 0.000000 6.607295 -0.066014 0.000000 0.551774 0.390158 0.000000 6.457974 -0.073410 0.000000 0.526090 0.456309 0.000000 6.277972 -0.074063 0.000000 0.496947 0.533403 0.000000 6.064423 -0.063061 0.000000 0.461668 0.627751 0.000000 5.809103 -0.033167 0.000000 0.416673 0.745792 0.000000 5.498938 0.026095 0.000000 0.357584 0.898364 0.000000 5.111076 0.128163 0.000000 0.285671 1.108718 0.000000 
4.917005 0.310429 0.000000 0.133227 1.831671 0.000000 4.392460 0.401951 0.000000 0.126466 2.507410 0.000000 3.741751 0.021092 0.000000 0.117528 -2.888019 0.000000 4.240554 -0.029310 0.000000 0.061277 -2.047159 0.000000 4.816561 -0.090137 0.000000 0.052626 -1.471696 0.000000 5.325772 -0.100837 0.000000 0.081067 -1.099194 0.000000 5.731322 -0.103909 0.000000 0.129455 -0.857338 0.000000 6.052878 -0.107751 0.000000 0.188947 -0.691472 0.000000 6.311981 -0.110312 0.000000 0.256778 -0.564841 0.000000 6.521873 -0.102172 0.000000 0.323222 -0.449453 0.000000 6.675256 -0.091658 0.000000 0.385306 -0.355574 0.000000 6.786674 -0.078903 0.000000 0.440333 -0.279346 0.000000 6.868129 -0.065870 0.000000 0.486893 -0.215527 0.000000 6.927403 -0.055842 0.000000 0.524772 -0.160888 0.000000 6.969426 -0.050432 0.000000 0.555351 -0.113608 0.000000 6.997602 -0.048802 0.000000 0.580892 -0.074091 0.000000 7.014508 -0.048596 0.000000 0.603650 -0.042587 0.000000 7.021890 -0.047801 0.000000 0.625310 -0.015465 0.000000 7.020445 -0.045723 0.000000 0.646389 0.012804 0.000000 7.010525 -0.041871 0.000000 0.665372 0.046374 0.000000 6.991998 -0.035077 0.000000 0.678661 0.087717 0.000000 6.962803 -0.024541 0.000000 0.681809 0.137640 0.000000 6.919852 -0.010942 0.000000 0.670812 0.196352 0.000000 6.859579 0.003174 0.000000 0.644517 0.263308 0.000000 6.775456 0.015358 0.000000 0.606847 0.337920 0.000000 6.661782 0.026427 0.000000 0.561409 0.423353 0.000000 6.526582 0.034907 0.000000 0.510831 0.516794 0.000000 6.370608 0.043510 0.000000 0.455151 0.624349 0.000000 6.187903 0.056534 0.000000 0.394025 0.756262 0.000000 5.968360 0.080006 0.000000 0.327382 0.923937 0.000000 5.696867 0.123180 0.000000 0.256290 1.139555 0.000000 5.353548 0.196822 0.000000 0.186191 1.423747 0.000000 
5.169124 0.338347 0.000000 0.229577 1.977857 0.000000 4.763952 0.435365 0.000000 0.217360 2.735306 0.000000 4.245015 0.025542 0.000000 0.208581 -3.026658 0.000000 4.580040 0.031926 0.000000 0.131125 -2.208321 0.000000 4.990158 -0.038200 0.000000 0.086917 -1.632534 0.000000 5.400922 -0.075866 0.000000 0.093827 -1.243227 0.000000 5.757658 -0.097012 0.000000 0.136942 -0.986498 0.000000 6.055836 -0.108319 0.000000 0.201405 -0.807900 0.000000 6.305899 -0.113341 0.000000 0.279072 -0.668757 0.000000 6.524085 -0.101209 0.000000 0.351534 -0.533920 0.000000 6.680323 -0.083707 0.000000 0.411822 -0.427983 0.000000 6.793892 -0.062845 0.000000 0.458357 -0.344618 0.000000 6.879163 -0.042754 0.000000 0.492866 -0.274130 0.000000 6.942662 -0.027669 0.000000 0.518218 -0.209524 0.000000 6.987228 -0.019868 0.000000 0.537290 -0.150312 0.000000 7.016195 -0.018805 0.000000 0.552977 -0.098573 0.000000 7.033699 -0.021553 0.000000 0.566837 -0.055040 0.000000 7.043004 -0.025471 0.000000 0.579456 -0.016449 0.000000 7.045318 -0.029519 0.000000 0.591619 0.022055 0.000000 7.040523 -0.032607 0.000000 0.603522 0.065068 0.000000 7.026372 -0.032945 0.000000 0.613760 0.116921 0.000000 6.998129 -0.029675 0.000000 0.619116 0.179865 0.000000 6.952034 -0.023751 0.000000 0.615324 0.254961 0.000000 6.886954 -0.018270 0.000000 0.599936 0.343575 0.000000 6.802452 -0.017906 0.000000 0.576139 0.440374 0.000000 6.696052 -0.020575 0.000000 0.545136 0.525359 0.000000 6.561005 -0.022832 0.000000 0.509041 0.612282 0.000000 6.403364 -0.018383 0.000000 0.469049 0.716109 0.000000 6.226572 -0.001935 0.000000 0.426633 0.847293 0.000000 6.026293 0.033476 0.000000 0.381577 1.017286 0.000000 5.792402 0.097187 0.000000 0.332296 1.241683 0.000000 5.511147 0.198262 0.000000 0.278757 1.545261 0.000000 
5.481501 0.359610 0.000000 0.188277 2.236843 0.000000 5.138967 0.414168 0.000000 0.213756 3.026347 0.000000 4.714359 0.029871 0.000000 0.205569 -3.223044 0.000000 4.947351 0.048147 0.000000 0.142532 -2.457277 0.000000 5.261472 -0.045929 0.000000 0.100289 -1.882460 0.000000 5.606449 -0.107747 0.000000 0.099447 -1.455930 0.000000 5.924648 -0.147023 0.000000 0.136308 -1.155515 0.000000 6.200153 -0.172215 0.000000 0.201876 -0.941536 0.000000 6.430341 -0.187978 0.000000 0.288042 -0.783027 0.000000 6.639678 -0.174634 0.000000 0.371457 -0.605691 0.000000 6.771142 -0.151947 0.000000 0.433627 -0.469143 0.000000 6.861636 -0.125438 0.000000 0.478327 -0.364617 0.000000 6.930445 -0.100379 0.000000 0.511652 -0.279026 0.000000 6.983009 -0.081194 0.000000 0.537136 -0.205455 0.000000 7.019718 -0.069503 0.000000 0.558195 -0.142574 0.000000 7.042383 -0.064489 0.000000 0.578278 -0.091595 0.000000 7.054568 -0.062456 0.000000 0.598697 -0.051892 0.000000 7.060333 -0.060421 0.000000 0.618871 -0.017780 0.000000 7.061353 -0.057886 0.000000 0.638536 0.017599 0.000000 7.058021 -0.053775 0.000000 0.656932 0.060525 0.000000 7.049746 -0.045314 0.000000 0.671207 0.115960 0.000000 7.032071 -0.029898 0.000000 0.676766 0.183735 0.000000 6.999986 -0.007150 0.000000 0.667654 0.261433 0.000000 6.949775 0.018561 0.000000 0.639827 0.347810 0.000000 6.871228 0.039155 0.000000 0.599321 0.444320 0.000000 6.754476 0.057430 0.000000 0.545369 0.558399 0.000000 6.627598 0.071003 0.000000 0.487177 0.674435 0.000000 6.495786 0.083501 0.000000 0.427453 0.801141 0.000000 6.352779 0.098950 0.000000 0.368671 0.956541 0.000000 6.190627 0.125062 0.000000 0.312458 1.157828 0.000000 5.998392 0.172461 0.000000 0.259946 1.420810 0.000000 5.764725 0.250361 0.000000 0.214608 1.765770 0.000000 
5.743675 0.364677 0.000000 0.260901 2.320391 0.000000 5.494778 0.409886 0.000000 0.286253 3.159914 0.000000 5.175121 0.033729 0.000000 0.278658 -3.259650 0.000000 5.300342 0.094964 0.000000 0.205467 -2.522442 0.000000 5.494065 0.004043 0.000000 0.136058 -1.977512 0.000000 5.744635 -0.075024 0.000000 0.105361 -1.561425 0.000000 6.005143 -0.133873 0.000000 0.126101 -1.262002 0.000000 6.248025 -0.173887 0.000000 0.202003 -1.038088 0.000000 6.453705 -0.199506 0.000000 0.314798 -0.878093 0.000000 6.685395 -0.184624 0.000000 0.420115 -0.665385 0.000000 6.807434 -0.145878 0.000000 0.477049 -0.518477 0.000000 6.889258 -0.107544 0.000000 0.506493 -0.413427 0.000000 6.956091 -0.076079 0.000000 0.524092 -0.326694 0.000000 7.007622 -0.053153 0.000000 0.536298 -0.246234 0.000000 7.042298 -0.040927 0.000000 0.546551 -0.172976 0.000000 7.062265 -0.038887 0.000000 0.558106 -0.110759 0.000000 7.072896 -0.041972 0.000000 0.570885 -0.060805 0.000000 7.079843 -0.045645 0.000000 0.582018 -0.017469 0.000000 7.085005 -0.049185 0.000000 0.591572 0.025387 0.000000 7.088679 -0.051002 0.000000 0.601695 0.073343 0.000000 7.087818 -0.047220 0.000000 0.613902 0.134595 0.000000 7.072921 -0.035233 0.000000 0.625982 0.211950 0.000000 7.036366 -0.014639 0.000000 0.630578 0.305172 0.000000 6.976681 0.009557 0.000000 0.617811 0.422122 0.000000 6.899315 0.022600 0.000000 0.588304 0.557126 0.000000 6.806813 0.033377 0.000000 0.547780 0.652237 0.000000 6.680791 0.035359 0.000000 0.492130 0.744094 0.000000 6.542883 0.041341 0.000000 0.433553 0.859116 0.000000 6.408715 0.056846 0.000000 0.384207 1.009445 0.000000 6.272820 0.089690 0.000000 0.344306 1.209521 0.000000 6.122820 0.149699 0.000000 0.309615 1.475350 0.000000 5.948541 0.243599 0.000000 0.278835 1.828485 0.000000 
6.037859 0.377543 0.000000 0.234454 2.485739 0.000000 5.844222 0.388817 0.000000 0.280438 3.346005 0.000000 5.603786 0.037466 0.000000 0.273726 -3.348265 0.000000 5.660436 0.121337 0.000000 0.210077 -2.651000 0.000000 5.784920 0.023480 0.000000 0.140575 -2.133030 0.000000 5.973293 -0.077051 0.000000 0.093243 -1.716438 0.000000 6.191724 -0.167763 0.000000 0.090081 -1.398398 0.000000 6.417639 -0.248117 0.000000 0.173409 -1.147216 0.000000 6.591064 -0.300773 0.000000 0.346745 -1.014717 0.000000 6.836711 -0.279951 0.000000 0.482318 -0.727730 0.000000 6.905836 -0.208880 0.000000 0.518444 -0.550967 0.000000 6.955003 -0.154883 0.000000 0.533058 -0.431450 0.000000 7.007206 -0.117978 0.000000 0.544903 -0.330558 0.000000 7.051972 -0.093399 0.000000 0.553631 -0.240130 0.000000 7.081159 -0.079756 0.000000 0.561811 -0.162541 0.000000 7.096065 -0.076044 0.000000 0.575561 -0.102226 0.000000 7.102201 -0.075235 0.000000 0.595117 -0.058839 0.000000 7.106083 -0.071554 0.000000 0.615115 -0.022942 0.000000 7.108993 -0.067440 0.000000 0.633265 0.013925 0.000000 7.112645 -0.063897 0.000000 0.649629 0.061387 0.000000 7.119298 -0.057521 0.000000 0.664338 0.130857 0.000000 7.119501 -0.041978 0.000000 0.676008 0.220290 0.000000 7.103164 -0.011745 0.000000 0.677041 0.321118 0.000000 7.068692 0.031328 0.000000 0.654531 0.425175 0.000000 6.995186 0.068662 0.000000 0.620951 0.536822 0.000000 6.852447 0.097954 0.000000 0.538298 0.684422 0.000000 6.725592 0.126653 0.000000 0.459920 0.812342 0.000000 6.622633 0.142078 0.000000 0.389000 0.935310 0.000000 6.528833 0.148296 0.000000 0.331949 1.092436 0.000000 6.433732 0.164962 0.000000 0.289084 1.307827 0.000000 6.324869 0.207153 0.000000 0.256881 1.595088 0.000000 6.194121 0.281141 0.000000 0.235403 1.970637 0.000000 
6.292433 0.365625 0.000000 0.292728 2.514028 0.000000 6.173725 0.363903 0.000000 0.343967 3.400349 0.000000 6.022755 0.040440 0.000000 0.338292 -3.316300 0.000000 5.993155 0.158613 0.000000 0.275484 -2.646926 0.000000 6.026124 0.073545 0.000000 0.184393 -2.165885 0.000000 6.132622 -0.027692 0.000000 0.084157 -1.779857 0.000000 6.300212 -0.130712 0.000000 0.005774 -1.487917 0.000000 6.509730 -0.257215 0.000000 0.075114 -1.211514 0.000000 6.636548 -0.372842 0.000000 0.421855 -1.123740 0.000000 6.959281 -0.320197 0.000000 0.601352 -0.734509 0.000000 6.967246 -0.182004 0.000000 0.588886 -0.567644 0.000000 6.992106 -0.122159 0.000000 0.566615 -0.465630 0.000000 7.044331 -0.087924 0.000000 0.556135 -0.371460 0.000000 7.085942 -0.061881 0.000000 0.552787 -0.275420 0.000000 7.108622 -0.049107 0.000000 0.552957 -0.187883 0.000000 7.116237 -0.052637 0.000000 0.561847 -0.116895 0.000000 7.118134 -0.061528 0.000000 0.578247 -0.064687 0.000000 7.122099 -0.065642 0.000000 0.590529 -0.020379 0.000000 7.128102 -0.067335 0.000000 0.594913 0.021736 0.000000 7.141020 -0.067366 0.000000 0.594641 0.066690 0.000000 7.162293 -0.061929 0.000000 0.602122 0.134392 0.000000 7.171500 -0.046903 0.000000 0.621693 0.228287 0.000000 7.152174 -0.015672 0.000000 0.648392 0.339644 0.000000 7.095056 0.032067 0.000000 0.670961 0.495628 0.000000 7.011697 0.056180 0.000000 0.637512 0.699865 0.000000 6.935124 0.116030 0.000000 0.586818 0.779092 0.000000 6.791620 0.113736 0.000000 0.467608 0.847053 0.000000 6.665237 0.112262 0.000000 0.372876 0.952916 0.000000 6.586880 0.113897 0.000000 0.324589 1.104546 0.000000 6.526534 0.132554 0.000000 0.301821 1.318383 0.000000 6.461479 0.181903 0.000000 0.288986 1.606097 0.000000 6.384104 0.265078 0.000000 0.282728 1.984747 0.000000 
6.564435 0.367542 0.000000 0.276090 2.604448 0.000000 6.492802 0.337578 0.000000 0.340434 3.496974 0.000000 6.410963 0.043142 0.000000 0.335973 -3.318665 0.000000 6.329163 0.184145 0.000000 0.292945 -2.683969 0.000000 6.311231 0.114571 0.000000 0.216235 -2.239528 0.000000 6.360406 0.023185 0.000000 0.097894 -1.884029 0.000000 6.475718 -0.089380 0.000000 -0.087008 -1.607915 0.000000 6.691777 -0.317456 0.000000 -0.168522 -1.274034 0.000000 6.823758 -0.647514 0.000000 0.586521 -1.337450 0.000000 7.184537 -0.459448 0.000000 0.736207 -0.735695 0.000000 7.033838 -0.196414 0.000000 0.606646 -0.575827 0.000000 7.037892 -0.132612 0.000000 0.574811 -0.483675 0.000000 7.091055 -0.107498 0.000000 0.568141 -0.372169 0.000000 7.133040 -0.090051 0.000000 0.563846 -0.262810 0.000000 7.150953 -0.079926 0.000000 0.554875 -0.170156 0.000000 7.155259 -0.084934 0.000000 0.563532 -0.104124 0.000000 7.155208 -0.091635 0.000000 0.591266 -0.062803 0.000000 7.158384 -0.083836 0.000000 0.618963 -0.028945 0.000000 7.159258 -0.071824 0.000000 0.638491 0.001007 0.000000 7.164651 -0.063624 0.000000 0.644665 0.040114 0.000000 7.193727 -0.065002 0.000000 0.646430 0.121650 0.000000 7.225667 -0.061549 0.000000 0.658483 0.239615 0.000000 7.237636 -0.038444 0.000000 0.679023 0.378236 0.000000 7.241533 0.008758 0.000000 0.699235 0.508535 0.000000 7.177738 0.102111 0.000000 0.766513 0.613395 0.000000 6.915130 0.148647 0.000000 0.537268 0.827925 0.000000 6.776932 0.245863 0.000000 0.409786 0.938725 0.000000 6.722688 0.236809 0.000000 0.316320 1.013667 0.000000 6.700441 0.196584 0.000000 0.272204 1.152782 0.000000 6.684307 0.187730 0.000000 0.256021 1.372883 0.000000 6.656782 0.219987 0.000000 0.250333 1.672463 0.000000 6.616077 0.287400 0.000000 0.253204 2.062308 0.000000 
6.802392 0.342738 0.000000 0.325468 2.585661 0.000000 6.791477 0.299560 0.000000 0.397795 3.482189 0.000000 6.788647 0.044902 0.000000 0.394736 -3.234499 0.000000 6.633308 0.201640 0.000000 0.376235 -2.628994 0.000000 6.535620 0.150255 0.000000 0.320871 -2.215060 0.000000 6.495290 0.090650 0.000000 0.183767 -1.895169 0.000000 6.541422 0.054189 0.000000 -0.128906 -1.703976 0.000000 6.738945 -0.175700 0.000000 -0.403897 -1.343495 0.000000 6.893464 -1.127886 0.000000 0.566924 -1.484519 0.000000 7.343733 -0.469883 0.000000 0.774696 -0.583810 0.000000 7.026409 -0.052443 0.000000 0.533540 -0.571698 0.000000 7.037240 -0.090324 0.000000 0.487364 -0.518794 0.000000 7.124739 -0.081254 0.000000 0.481197 -0.413445 0.000000 7.166807 -0.057586 0.000000 0.505991 -0.293333 0.000000 7.172304 -0.040136 0.000000 0.517900 -0.192189 0.000000 7.161741 -0.061294 0.000000 0.542213 -0.116844 0.000000 7.155271 -0.089262 0.000000 0.581809 -0.067863 0.000000 7.159817 -0.093339 0.000000 0.608498 -0.021252 0.000000 7.159078 -0.086864 0.000000 0.613821 0.016342 0.000000 7.173433 -0.073540 0.000000 0.578978 0.037614 0.000000 7.233842 -0.063694 0.000000 0.560076 0.102452 0.000000 7.286744 -0.058957 0.000000 0.574982 0.216318 0.000000 7.307179 -0.036212 0.000000 0.577725 0.335747 0.000000 7.296996 0.011855 0.000000 0.736669 0.559423 0.000000 7.164610 -0.011098 0.000000 0.817250 0.962473 0.000000 7.063092 0.345275 0.000000 0.656209 0.917291 0.000000 6.807531 0.241218 0.000000 0.337964 0.901297 0.000000 6.734824 0.205729 0.000000 0.237389 0.975163 0.000000 6.760978 0.158012 0.000000 0.239740 1.120680 0.000000 6.787316 0.148738 0.000000 0.257479 1.345909 0.000000 6.798469 0.187591 0.000000 0.272933 1.646802 0.000000 6.801765 0.262207 0.000000 0.290445 2.036390 0.000000 
7.049476 0.332519 0.000000 0.316757 2.615362 0.000000 7.078306 0.265251 0.000000 0.393167 3.499805 0.000000 7.136486 0.046201 0.000000 0.391247 -3.163325 0.000000 6.939222 0.202645 0.000000 0.397558 -2.586281 0.000000 6.804453 0.169936 0.000000 0.396145 -2.199198 0.000000 6.724408 0.160290 0.000000 0.379854 -1.930160 0.000000 6.689110 0.223293 0.000000 0.330553 -1.805439 0.000000 6.639872 -0.042466 0.000000 0.131295 -1.428552 0.000000 6.714905 -1.618335 0.000000 -0.197021 -1.787719 0.000000 6.482655 -0.667221 0.000000 -0.532101 -0.418371 0.000000 6.575394 0.044741 0.000000 -0.373400 -0.586658 0.000000 6.712000 -0.086436 0.000000 -0.221846 -0.571173 0.000000 6.806419 -0.101330 0.000000 -0.108579 -0.414238 0.000000 6.878665 -0.114845 0.000000 0.021065 -0.268307 0.000000 6.907952 -0.091835 0.000000 0.127241 -0.159593 0.000000 6.923254 -0.109247 0.000000 0.228274 -0.097654 0.000000 6.937600 -0.131232 0.000000 0.330678 -0.067350 0.000000 6.961043 -0.110524 0.000000 0.404569 -0.028206 0.000000 6.978786 -0.077148 0.000000 0.456637 -0.013347 0.000000 7.001655 -0.028782 0.000000 0.467413 -0.020295 0.000000 7.079572 -0.046100 0.000000 0.489240 0.068747 0.000000 7.162015 -0.076454 0.000000 0.570219 0.219180 0.000000 7.208014 -0.041187 0.000000 0.646805 0.388419 0.000000 7.294460 -0.150186 0.000000 1.013383 0.640920 0.000000 7.252597 0.021530 0.000000 1.854686 0.714913 0.000000 7.042064 0.309688 0.000000 0.894020 1.083487 0.000000 6.737491 0.564109 0.000000 0.232672 1.011432 0.000000 6.786794 0.337384 0.000000 0.143076 0.987513 0.000000 6.891991 0.194233 0.000000 0.188324 1.126444 0.000000 6.953799 0.169991 0.000000 0.225939 1.361729 0.000000 6.988600 0.204534 0.000000 0.249181 1.669168 0.000000 7.017614 0.269888 0.000000 0.272940 2.061681 0.000000 