# vtk DataFile Version 2.0
Comment goes here
ASCII

DATASET STRUCTURED_POINTS
FIELD FieldData 1
TIME 1 1 double
0.06600000
DIMENSIONS    256   256   1

ORIGIN    0.000   0.000   0.000
SPACING   0.0078125 0.0078125   1.000

POINT_DATA   65536
VECTORS u double

-30.466705 20.203094 0.000000 -6.369260 11.360616 0.000000 -10.483750 -32.726267 0.000000 -9.005645 -0.053570 0.000000 -26.781862 20.394692 0.000000 -38.008394 4.770041 0.000000 7.581907 11.065528 0.000000 -35.673283 -0.951485 0.000000 -8.517293 -19.840636 0.000000 -61.688627 -14.129361 0.000000 -20.753531 -25.478774 0.000000 -3.525768 -7.521056 0.000000 -20.737826 -3.472251 0.000000 -18.771001 8.986314 0.000000 -14.288462 -21.059800 0.000000 -3.357079 3.228749 0.000000 -9.526600 -10.471314 0.000000 -42.373945 4.381944 0.000000 -31.102302 0.931314 0.000000 -18.048584 12.932088 0.000000 -25.221071 21.317141 0.000000 -28.340055 10.844069 0.000000 1.948631 14.007225 0.000000 -23.955317 1.964324 0.000000 -2.222664 -14.774896 0.000000 -11.252540 -11.903454 0.000000 1.063662 6.671153 0.000000 0.996401 -6.353549 0.000000 0.572492 -21.669669 0.000000 -21.915384 -14.975975 0.000000 1.426435 7.366002 0.000000 -7.218518 -3.874393 0.000000 -12.549702 -16.221211 0.000000 -0.704419 -8.035110 0.000000 -6.316736 -5.547236 0.000000 -6.272053 -13.074078 0.000000 0.597246 -5.744461 0.000000 -2.983309 -15.704863 0.000000 -4.105817 -15.134303 0.000000 -1.181598 -13.642270 0.000000 5.023530 -2.293471 0.000000 -9.879432 -4.648048 0.000000 -9.309305 -13.761742 0.000000 -1.045648 -4.755488 0.000000 -14.671396 -5.247490 0.000000 7.219010 3.797855 0.000000 3.417318 -9.196571 0.000000 1.624423 -10.242255 0.000000 0.787596 -0.230189 0.000000 -5.510389 -6.267309 0.000000 11.431759 -8.867630 0.000000 -1.176054 -16.869541 0.000000 9.028677 -10.938844 0.000000 -3.114159 5.735448 0.000000 -15.842143 -0.780094 0.000000 -3.709103 -4.784744 0.000000 -10.580509 -1.668698 0.000000 -1.002729 -5.496933 0.000000 -11.491996 -3.567359 0.000000 -11.027460 1.121614 0.000000 -5.972167 -4.459592 0.000000 -21.904592 -7.297106 0.000000 -21.037175 2.594300 0.000000 -7.724020 -10.292880 0.000000 -2.527140 -14.347502 0.000000 -10.705997 -10.977406 0.000000 -11.480467 -10.979223 0.000000 -3.427382 -15.574460 0.000000 -3.928897 -12.189526 0.000000 -0.647713 -15.284841 0.000000 0.643861 -5.163543 0.000000 4.087041 9.558624 0.000000 15.529880 10.451030 0.000000 12.457588 -8.575422 0.000000 7.637015 -29.851494 0.000000 6.142122 -0.218184 0.000000 16.723342 -0.380195 0.000000 7.923355 -10.714789 0.000000 3.374196 2.392984 0.000000 13.126009 2.246351 0.000000 7.587477 -10.512355 0.000000 1.161141 -4.243182 0.000000 -5.129063 -2.911164 0.000000 -1.938855 -4.116561 0.000000 -8.562331 2.497410 0.000000 0.574545 7.058972 0.000000 1.208270 3.306959 0.000000 0.073790 5.691707 0.000000 0.374830 4.579927 0.000000 1.907084 2.644331 0.000000 2.825282 -2.366946 0.000000 3.241606 -3.919183 0.000000 4.006374 -3.324449 0.000000 6.574428 -1.301525 0.000000 3.734014 -7.249429 0.000000 1.116451 -0.109372 0.000000 7.697252 -4.201561 0.000000 7.566654 -4.641854 0.000000 -4.732062 6.186417 0.000000 11.768313 8.003330 0.000000 3.022668 -1.340116 0.000000 4.573852 3.775641 0.000000 3.906074 8.384981 0.000000 1.058351 14.472596 0.000000 8.562216 12.362585 0.000000 2.320464 9.273661 0.000000 1.571996 -1.370122 0.000000 4.912956 -5.301715 0.000000 11.443328 -3.448342 0.000000 3.122399 1.949683 0.000000 11.384797 -1.351633 0.000000 2.980342 -4.498457 0.000000 2.632493 -13.824375 0.000000 6.810272 -3.968121 0.000000 13.828884 0.537807 0.000000 6.372468 -5.174257 0.000000 13.334292 3.017869 0.000000 10.476657 -2.886254 0.000000 10.731198 -0.698347 0.000000 10.075822 -10.698902 0.000000 1.503338 -6.583730 0.000000 22.546162 -8.854422 0.000000 1.592357 -13.117447 0.000000 21.462813 -8.197311 0.000000 2.382050 -6.970113 0.000000 13.293430 -10.121683 0.000000 20.061568 -10.237932 0.000000 13.217591 -11.394178 0.000000 12.565385 20.083780 0.000000 34.308898 -12.054713 0.000000 34.025650 -16.397839 0.000000 33.121925 -8.260419 0.000000 23.657287 -9.818150 0.000000 5.847646 -17.068395 0.000000 20.010872 -30.889161 0.000000 7.604128 -12.490935 0.000000 26.308525 4.415921 0.000000 8.645114 23.042939 0.000000 9.279698 11.559338 0.000000 22.196941 13.824160 0.000000 18.180057 -25.002157 0.000000 41.974700 -49.155527 0.000000 14.786343 -26.852928 0.000000 15.881955 -59.018312 0.000000 -2.279674 0.546309 0.000000 10.086686 14.979762 0.000000 1.251447 -29.654918 0.000000 17.319792 -38.598571 0.000000 -9.123641 -7.520482 0.000000 3.695965 11.230071 0.000000 -14.361473 -11.539693 0.000000 0.911145 -18.273764 0.000000 -1.592673 -0.089786 0.000000 -15.877807 -8.171236 0.000000 1.190724 -5.383456 0.000000 -6.503412 19.639612 0.000000 7.525121 25.941232 0.000000 -1.344331 21.171126 0.000000 23.684508 0.500561 0.000000 3.535109 26.415992 0.000000 21.319733 6.630049 0.000000 19.258246 16.782562 0.000000 -8.743268 6.769469 0.000000 -0.828037 9.885172 0.000000 -1.571886 8.737367 0.000000 1.055365 35.058277 0.000000 3.010981 22.642327 0.000000 -14.037918 -11.801166 0.000000 10.875018 52.103894 0.000000 -7.780407 5.256655 0.000000 -20.431758 -5.979723 0.000000 -5.251010 13.393378 0.000000 6.140597 -5.417541 0.000000 9.928298 15.438604 0.000000 49.177826 35.406069 0.000000 18.075078 -34.286714 0.000000 22.473478 -19.673984 0.000000 66.223684 8.585570 0.000000 57.589357 -19.038055 0.000000 39.611029 7.988249 0.000000 -5.185500 -18.434507 0.000000 30.108497 -17.925164 0.000000 30.790045 -4.595627 0.000000 34.904675 19.962076 0.000000 42.739373 4.603236 0.000000 40.881075 -2.439069 0.000000 -23.074934 39.804830 0.000000 41.442217 -0.117871 0.000000 54.559935 -22.182104 0.000000 25.996879 13.127565 0.000000 37.592112 29.749293 0.000000 28.041517 -25.104256 0.000000 9.104546 -10.755225 0.000000 8.747178 10.788500 0.000000 -14.247538 -15.032257 0.000000 6.633256 -5.990228 0.000000 18.224071 12.335860 0.000000 -28.348897 2.067591 0.000000 7.302254 27.798178 0.000000 -13.873358 -6.932000 0.000000 6.658843 31.196373 0.000000 -3.924143 24.178573 0.000000 0.233708 -53.341418 0.000000 -35.562292 16.709986 0.000000 -32.838145 -44.234717 0.000000 -32.136551 -29.494973 0.000000 8.877863 15.710928 0.000000 -16.077610 33.366338 0.000000 1.064188 17.912284 0.000000 20.842562 -3.139600 0.000000 49.479864 -5.990891 0.000000 16.652864 -40.677467 0.000000 4.171879 -40.648547 0.000000 12.866589 2.929863 0.000000 -28.700458 -3.695983 0.000000 -3.877697 -11.987704 0.000000 -0.299386 2.669973 0.000000 -5.076963 12.557134 0.000000 -19.437151 -2.570349 0.000000 -0.110121 12.477483 0.000000 -39.617640 -16.069901 0.000000 12.883939 -13.687806 0.000000 -1.200832 7.429400 0.000000 8.612664 -27.396951 0.000000 -39.330371 -10.020998 0.000000 8.450174 1.472235 0.000000 12.367729 -31.560118 0.000000 -4.398013 10.286525 0.000000 20.287813 22.954864 0.000000 -13.905887 -6.568493 0.000000 36.691769 -19.710668 0.000000 -17.027060 -5.152362 0.000000 30.247961 -12.728332 0.000000 12.978489 -19.213312 0.000000 31.886636 -6.483385 0.000000 17.956871 10.753794 0.000000 28.991908 18.110266 0.000000 31.970146 19.207482 0.000000 26.472427 8.244594 0.000000 1.236575 -25.231134 0.000000 13.613179 -8.585876 0.000000 -5.600182 -12.438285 0.000000 -25.611743 -5.888358 0.000000 -1.020552 -6.992229 0.000000 -25.525207 21.693849 0.000000 15.392577 15.899219 0.000000 -23.780965 -10.458365 0.000000 -11.600492 5.747016 0.000000 2.553917 -16.305496 0.000000 -28.876702 12.007233 0.000000 20.543326 0.636940 0.000000 28.106094 9.324096 0.000000 19.408020 -10.471872 0.000000 14.309589 -4.934807 0.000000 8.012032 -16.988303 0.000000 -12.793167 -1.791999 0.000000 
4.081074 20.001519 0.000000 9.390904 -4.309669 0.000000 -10.915269 -20.540677 0.000000 2.357813 -5.938802 0.000000 6.315848 -1.946902 0.000000 -2.098802 -7.011061 0.000000 19.687358 -19.073716 0.000000 1.084654 4.789892 0.000000 -1.411589 27.832113 0.000000 5.041183 6.283883 0.000000 -22.450287 -28.368679 0.000000 -5.322108 5.544314 0.000000 -11.468177 -11.321145 0.000000 14.395272 3.863983 0.000000 3.021156 -15.392012 0.000000 -11.947669 -19.070840 0.000000 -6.565992 7.886383 0.000000 -20.607818 21.563206 0.000000 -0.759904 -28.577574 0.000000 -7.505779 -10.996343 0.000000 5.663577 16.801222 0.000000 -7.403452 -19.374297 0.000000 10.530410 17.145984 0.000000 3.358145 2.855961 0.000000 22.428958 -17.370351 0.000000 -1.904056 21.753042 0.000000 -0.063226 4.835181 0.000000 -1.753903 8.917393 0.000000 5.803123 -5.045944 0.000000 -17.434324 -12.355063 0.000000 -14.358888 -10.499126 0.000000 -6.568192 -14.526246 0.000000 -18.954617 -10.493044 0.000000 -21.197950 -16.975910 0.000000 -6.021521 -11.375011 0.000000 -8.019890 -18.116938 0.000000 -8.143851 -13.813275 0.000000 -0.430872 -8.065507 0.000000 -9.672044 -13.547847 0.000000 -0.112697 -25.193310 0.000000 -2.712864 -1.417515 0.000000 4.344848 8.540405 0.000000 0.425439 -17.918493 0.000000 -2.471670 -7.116470 0.000000 -7.182454 -13.570777 0.000000 8.293704 -11.537024 0.000000 8.439368 -3.072922 0.000000 -23.155568 -2.923987 0.000000 -1.499656 -4.240988 0.000000 3.152647 -13.408146 0.000000 3.166006 -12.666920 0.000000 7.411926 -10.389171 0.000000 5.851659 -7.775811 0.000000 -0.283643 6.546705 0.000000 3.593792 2.175944 0.000000 -7.256613 -4.099244 0.000000 4.757800 -2.823672 0.000000 -3.033861 8.619311 0.000000 -4.025210 1.108270 0.000000 5.391786 -6.337412 0.000000 0.975370 13.255011 0.000000 -10.719389 9.237038 0.000000 -2.250423 -15.132760 0.000000 -12.982567 -18.884811 0.000000 -11.285783 -8.556043 0.000000 -13.560817 -14.115255 0.000000 -2.728132 -28.602086 0.000000 9.334179 -19.327147 0.000000 17.037029 -7.844093 0.000000 7.442649 -24.080453 0.000000 -6.884843 3.243238 0.000000 -5.647766 -2.992116 0.000000 8.921554 -14.769079 0.000000 11.675040 -13.139738 0.000000 12.032202 -8.634820 0.000000 -18.532834 2.166853 0.000000 10.233899 -4.769747 0.000000 -12.578007 -1.391754 0.000000 9.880058 -5.867293 0.000000 -3.063015 4.094416 0.000000 -0.276924 5.439040 0.000000 -10.095635 3.245340 0.000000 -11.222371 -9.459412 0.000000 -10.237885 -0.048461 0.000000 -9.962981 2.290580 0.000000 -2.282338 0.648446 0.000000 -2.834562 2.477084 0.000000 2.019766 0.737301 0.000000 3.716806 0.357022 0.000000 1.331525 3.895916 0.000000 0.417748 -1.748649 0.000000 4.545565 -3.296630 0.000000 0.863805 -3.691752 0.000000 8.908913 -1.843479 0.000000 5.682046 -2.871907 0.000000 7.111326 -5.504998 0.000000 5.631237 -6.580689 0.000000 3.412814 7.731003 0.000000 0.963475 2.219014 0.000000 8.840142 0.775125 0.000000 9.300189 -3.861998 0.000000 7.881206 5.361423 0.000000 -3.708723 11.411679 0.000000 8.723137 6.664184 0.000000 8.806800 9.226542 0.000000 7.904880 6.536189 0.000000 9.988925 -2.124355 0.000000 10.529003 -3.622187 0.000000 14.465054 2.072274 0.000000 11.285001 -0.681404 0.000000 11.992600 -1.290899 0.000000 10.858110 1.521882 0.000000 8.707371 -8.229141 0.000000 5.250579 -9.441198 0.000000 6.796132 -3.324418 0.000000 7.812836 0.130469 0.000000 9.740670 -2.720728 0.000000 9.615931 -0.355485 0.000000 13.029757 -5.358954 0.000000 13.571070 -1.812261 0.000000 -1.946643 -7.503199 0.000000 12.125176 -4.253152 0.000000 0.538233 -8.430742 0.000000 16.393427 -13.343840 0.000000 11.304117 -2.735769 0.000000 8.119470 -19.476144 0.000000 11.355402 -6.195392 0.000000 9.352802 -1.712553 0.000000 21.027361 -9.102820 0.000000 21.014524 -15.340059 0.000000 15.313490 -9.371317 0.000000 25.782308 -14.024777 0.000000 5.021559 8.849388 0.000000 1.607654 -9.240406 0.000000 3.628390 -9.999383 0.000000 -21.152773 -20.759502 0.000000 1.974165 -17.525273 0.000000 -2.287707 -13.326858 0.000000 15.787153 -30.595777 0.000000 22.071552 -8.992966 0.000000 36.502334 -21.094197 0.000000 20.342576 -39.360742 0.000000 51.283862 -0.005165 0.000000 12.283527 0.548535 0.000000 -14.200895 -2.888197 0.000000 27.943567 -8.200292 0.000000 28.168307 -15.962639 0.000000 -10.149479 -4.700054 0.000000 -15.359974 20.494019 0.000000 -19.977851 3.787283 0.000000 5.549710 -2.104247 0.000000 -11.668452 -13.654213 0.000000 -1.869912 -11.732210 0.000000 4.259860 2.835242 0.000000 -8.607741 11.327082 0.000000 -4.351668 10.243079 0.000000 -0.569937 -5.944265 0.000000 13.000345 4.505332 0.000000 4.753887 5.889481 0.000000 -4.697656 -2.008142 0.000000 -2.420469 -10.557045 0.000000 -3.768055 52.056933 0.000000 2.875270 16.748047 0.000000 -11.237497 11.522544 0.000000 6.060921 6.723319 0.000000 4.550733 1.354696 0.000000 37.330642 25.890532 0.000000 23.089897 -3.680313 0.000000 30.318158 8.773550 0.000000 37.703788 29.745763 0.000000 19.123100 19.829516 0.000000 14.323694 -1.726409 0.000000 -7.383572 -5.625618 0.000000 -6.980296 -19.494655 0.000000 20.650455 7.843895 0.000000 30.313212 4.671323 0.000000 -36.862781 -23.196596 0.000000 -18.502542 -7.748709 0.000000 -15.237933 34.733100 0.000000 6.620690 28.700246 0.000000 18.679474 -4.039229 0.000000 6.126092 2.784957 0.000000 -9.862550 -0.795126 0.000000 9.248407 -7.254654 0.000000 -8.057052 10.354398 0.000000 -18.312368 48.310895 0.000000 -38.926103 5.651787 0.000000 -1.895697 -44.207199 0.000000 -20.063376 -14.034256 0.000000 10.368386 5.417108 0.000000 -6.025655 17.908443 0.000000 17.958103 17.339220 0.000000 -35.200262 9.596371 0.000000 0.573672 12.497511 0.000000 -20.395145 19.555629 0.000000 -10.090522 4.302870 0.000000 -23.280253 21.379791 0.000000 -19.072922 -11.291955 0.000000 -32.202585 -19.610616 0.000000 -34.903693 -13.658953 0.000000 -47.379723 4.389534 0.000000 23.488944 3.935991 0.000000 -26.687079 -10.869449 0.000000 12.902496 61.268191 0.000000 -28.196506 7.873826 0.000000 7.653261 -14.769130 0.000000 -38.761796 21.091374 0.000000 15.358165 -5.446808 0.000000 35.632688 -50.197432 0.000000 15.062260 -20.837563 0.000000 7.570524 0.943412 0.000000 8.618767 3.056911 0.000000 -34.883083 10.598856 0.000000 -5.343918 9.872799 0.000000 -9.873672 -7.316517 0.000000 7.197737 2.763348 0.000000 -38.741697 -4.428070 0.000000 10.571875 2.261422 0.000000 -29.614331 -13.265719 0.000000 5.588047 11.420337 0.000000 -11.270404 -26.288347 0.000000 -14.060036 -38.641637 0.000000 -20.754370 -7.885621 0.000000 -26.273899 0.471378 0.000000 -42.519140 14.168110 0.000000 6.227798 -35.483124 0.000000 -25.668239 -14.544154 0.000000 -36.396400 -1.411530 0.000000 -20.904645 -5.823444 0.000000 -35.849316 16.027005 0.000000 -4.438985 -7.031524 0.000000 -14.356751 -32.643597 0.000000 6.074773 -3.366974 0.000000 26.811722 12.342073 0.000000 20.580713 -22.112679 0.000000 -6.030608 -9.215214 0.000000 17.836227 -20.877885 0.000000 37.787244 -30.738197 0.000000 32.685581 23.873872 0.000000 1.481300 20.605292 0.000000 4.979040 -3.353475 0.000000 -11.610751 19.716471 0.000000 -3.800476 9.076368 0.000000 23.189561 4.511719 0.000000 -14.695805 -8.651331 0.000000 39.968292 11.612458 0.000000 16.980517 8.542333 0.000000 21.805213 -16.218088 0.000000 -26.560338 18.093226 0.000000 2.606693 3.521814 0.000000 -6.088177 -36.416392 0.000000 22.329025 17.157397 0.000000 -0.526317 -2.997907 0.000000 2.535520 -9.436171 0.000000 12.035975 5.851253 0.000000 18.221657 19.867805 0.000000 
-2.544955 29.033848 0.000000 -12.308908 26.356960 0.000000 -2.606798 -25.693177 0.000000 -16.939776 -17.284687 0.000000 -29.493730 24.851308 0.000000 -4.193465 -8.601470 0.000000 -30.879471 7.882071 0.000000 -34.262664 20.147462 0.000000 -26.570969 -23.797164 0.000000 -14.321235 6.909337 0.000000 -5.999235 -15.115483 0.000000 -5.992446 -18.503166 0.000000 -1.864555 -23.189631 0.000000 -23.232621 -5.503019 0.000000 -15.654588 5.283142 0.000000 -34.078158 12.815896 0.000000 -23.915721 -1.811165 0.000000 -13.228803 -1.424144 0.000000 -6.343646 -12.170725 0.000000 -18.985335 6.508607 0.000000 5.599747 21.214814 0.000000 -1.579585 5.977236 0.000000 -4.819889 3.245627 0.000000 12.528206 -9.934224 0.000000 -23.460101 -9.512695 0.000000 9.349207 10.588730 0.000000 -6.436251 6.521000 0.000000 10.069320 -12.219898 0.000000 -10.234210 -5.989249 0.000000 7.504256 5.186036 0.000000 -2.195203 -3.500130 0.000000 -3.320754 0.721335 0.000000 0.762254 -1.591452 0.000000 -5.191372 -20.968206 0.000000 -16.181218 -18.725296 0.000000 -4.419601 -10.951748 0.000000 -12.413554 -13.333480 0.000000 -13.859777 -14.176670 0.000000 -10.570930 -15.452478 0.000000 -11.216650 -20.601449 0.000000 -14.477958 -6.751016 0.000000 2.560650 -7.786351 0.000000 -0.877333 -6.945225 0.000000 -3.650796 2.852404 0.000000 2.135550 -16.012864 0.000000 -7.505225 -11.823967 0.000000 6.730851 22.252701 0.000000 -3.850987 -0.303232 0.000000 -4.004737 -26.538404 0.000000 2.256466 -10.932970 0.000000 -11.478166 -13.126909 0.000000 -6.289577 -19.555195 0.000000 3.745279 -3.243274 0.000000 -0.299310 7.993315 0.000000 8.071753 6.192876 0.000000 4.716038 -5.948752 0.000000 -1.126789 -5.891450 0.000000 0.768127 3.286077 0.000000 4.620097 -11.993006 0.000000 -0.635301 -3.878966 0.000000 3.189799 11.651583 0.000000 4.661391 -4.071313 0.000000 7.405857 4.857478 0.000000 -8.028955 -1.257521 0.000000 -16.289470 -13.769252 0.000000 -9.052088 -19.535057 0.000000 -3.096219 -33.874218 0.000000 -15.962358 -35.339621 0.000000 -1.839627 -10.297996 0.000000 -18.750531 8.637031 0.000000 -15.340941 7.926872 0.000000 15.760259 -6.247773 0.000000 0.033364 -6.871776 0.000000 0.816047 -11.686070 0.000000 -1.731434 0.356379 0.000000 -9.367556 1.580119 0.000000 0.088158 -6.335021 0.000000 -4.829039 -10.360948 0.000000 -2.007198 -7.122008 0.000000 -12.512236 12.403333 0.000000 -8.830953 -3.479735 0.000000 2.326709 6.702264 0.000000 4.545273 -2.768915 0.000000 2.395911 -5.375952 0.000000 4.035763 -5.458137 0.000000 0.610233 -0.069447 0.000000 -1.117059 -0.995145 0.000000 -1.243266 -0.859661 0.000000 2.147607 5.268167 0.000000 -0.422344 5.943389 0.000000 0.218848 -5.580985 0.000000 0.096973 -4.365240 0.000000 -2.500043 -7.687797 0.000000 2.076537 -6.119765 0.000000 -2.058746 -5.451842 0.000000 4.961185 -0.058563 0.000000 -4.740758 -0.503049 0.000000 2.956337 0.025907 0.000000 1.741429 0.759089 0.000000 7.130796 -0.333383 0.000000 3.918207 -0.381180 0.000000 -2.872669 16.784553 0.000000 0.439895 7.543050 0.000000 2.550354 1.957073 0.000000 3.835401 13.180841 0.000000 4.235138 8.091535 0.000000 4.538642 -3.994244 0.000000 3.994544 -9.777845 0.000000 7.261117 -4.204341 0.000000 11.720929 4.422137 0.000000 8.845514 -0.924742 0.000000 7.849351 -1.213227 0.000000 8.898041 -8.216844 0.000000 5.597896 -2.056883 0.000000 4.505208 -2.024450 0.000000 3.876063 -8.118794 0.000000 8.120035 1.214774 0.000000 9.722674 -6.175341 0.000000 11.073838 -4.653487 0.000000 16.751313 4.277499 0.000000 13.743540 -5.137835 0.000000 10.524676 -11.339299 0.000000 25.063257 -17.385698 0.000000 15.388587 -18.963194 0.000000 18.296456 1.303844 0.000000 27.678903 -10.172968 0.000000 17.829998 -11.471263 0.000000 11.923360 -21.066138 0.000000 35.151067 8.422057 0.000000 13.478599 -6.340841 0.000000 27.335627 -21.165622 0.000000 18.962960 2.031512 0.000000 34.337893 14.356504 0.000000 17.477653 -15.675225 0.000000 23.692454 -8.128734 0.000000 26.523355 -10.836710 0.000000 6.989670 -14.449145 0.000000 29.156168 9.229951 0.000000 5.958837 -12.799921 0.000000 19.585197 -6.891021 0.000000 15.852788 -23.273182 0.000000 -0.883051 -63.937056 0.000000 23.981205 -18.793880 0.000000 22.070750 6.466445 0.000000 27.175106 -15.113730 0.000000 16.111253 -27.389440 0.000000 21.881031 8.438128 0.000000 15.752417 4.929709 0.000000 9.157561 2.307889 0.000000 10.925254 -9.679612 0.000000 -1.123582 -19.849092 0.000000 11.219695 -10.854142 0.000000 -5.671095 -16.018098 0.000000 5.206442 -1.433407 0.000000 3.774218 3.228072 0.000000 6.701582 11.601808 0.000000 -8.918351 8.589219 0.000000 -20.041614 15.847302 0.000000 8.667630 18.198562 0.000000 12.063702 33.590348 0.000000 -14.032507 5.700448 0.000000 -5.768374 11.486824 0.000000 5.812712 14.238911 0.000000 -3.263417 6.699522 0.000000 0.738286 -7.050863 0.000000 -1.057318 3.788555 0.000000 12.994500 4.103163 0.000000 11.970883 -4.788682 0.000000 7.478192 37.490003 0.000000 18.664178 16.451713 0.000000 17.352486 17.400371 0.000000 14.241673 39.900050 0.000000 4.032892 15.886450 0.000000 4.370138 -12.595423 0.000000 -6.284393 -1.887439 0.000000 39.510996 23.226522 0.000000 -3.916656 29.141770 0.000000 -10.070255 -13.039278 0.000000 -56.131006 -44.161287 0.000000 13.020089 -25.929158 0.000000 3.480063 -17.939909 0.000000 27.760793 10.616860 0.000000 11.983900 -7.717942 0.000000 -25.377660 18.156578 0.000000 13.165230 32.164011 0.000000 12.985029 28.429981 0.000000 26.116025 23.388159 0.000000 31.594145 -18.980598 0.000000 -21.366222 -34.446187 0.000000 23.639670 -0.910156 0.000000 -19.542218 22.159576 0.000000 26.608899 4.070351 0.000000 -13.562074 6.629206 0.000000 36.255960 -4.016618 0.000000 -23.443487 -4.368062 0.000000 56.322592 -3.105119 0.000000 -11.156324 21.318260 0.000000 41.388474 10.989922 0.000000 -23.435266 43.628949 0.000000 -0.866101 8.245139 0.000000 -31.988463 -27.196264 0.000000 12.128971 3.485929 0.000000 -29.697076 -42.754970 0.000000 23.694212 18.219413 0.000000 -7.473323 -38.985482 0.000000 16.363502 -18.929683 0.000000 1.667862 8.006024 0.000000 49.015289 -41.028146 0.000000 20.485083 18.208189 0.000000 -0.375406 24.922564 0.000000 -12.703826 0.452602 0.000000 4.933939 1.776140 0.000000 -28.822392 -26.685862 0.000000 -24.613350 -22.079549 0.000000 -21.357249 -16.237637 0.000000 -9.866756 16.880321 0.000000 -25.125676 -0.704165 0.000000 3.263408 3.429767 0.000000 -25.087358 2.413478 0.000000 -6.039889 -5.866444 0.000000 28.935816 3.578181 0.000000 -0.826038 -4.203839 0.000000 -21.022422 19.643264 0.000000 -9.507300 -5.632182 0.000000 -13.713589 -42.522695 0.000000 -12.635536 -15.378666 0.000000 -50.731135 11.064081 0.000000 -39.225650 5.522932 0.000000 -17.781848 22.407779 0.000000 -6.653133 -23.034153 0.000000 9.477775 -41.203232 0.000000 -14.418952 -15.666120 0.000000 -23.228564 -53.896806 0.000000 9.061144 -33.719252 0.000000 0.370022 26.358945 0.000000 1.023626 13.498279 0.000000 13.223000 -25.707585 0.000000 -6.230731 4.358128 0.000000 -2.219831 44.550537 0.000000 -8.470948 2.475408 0.000000 5.938277 4.506175 0.000000 -14.032991 -3.658769 0.000000 16.068129 -40.688671 0.000000 16.161992 3.903100 0.000000 24.735858 4.915118 0.000000 24.550670 -15.777104 0.000000 34.309541 7.704713 0.000000 4.907927 49.287872 0.000000 -7.835640 2.893024 0.000000 28.418499 -8.464928 0.000000 -18.570665 -19.085392 0.000000 -6.502770 3.762235 0.000000 3.498439 9.321633 0.000000 -14.886699 -17.497099 0.000000 -5.203212 -32.674440 0.000000 10.659331 6.162902 0.000000 
8.353635 42.969758 0.000000 1.381386 -4.247826 0.000000 32.991430 -15.909809 0.000000 -28.517220 20.948130 0.000000 -7.312613 -14.693212 0.000000 -10.635108 -5.625320 0.000000 -14.794648 10.995483 0.000000 -11.965261 0.481389 0.000000 -1.112882 7.890684 0.000000 -6.434225 -14.287850 0.000000 -0.653197 -36.697467 0.000000 -18.800035 1.409633 0.000000 -29.643995 5.919030 0.000000 -30.480529 17.654016 0.000000 -32.394882 -4.546476 0.000000 -24.135217 -10.809707 0.000000 -18.264359 -12.962971 0.000000 -27.547446 3.991131 0.000000 -22.037349 -22.821043 0.000000 -37.575979 -22.939735 0.000000 -8.497553 -0.604528 0.000000 -2.769939 -8.954662 0.000000 -11.023666 3.038193 0.000000 -8.903723 21.496172 0.000000 -41.296204 -14.191352 0.000000 -11.883519 4.729192 0.000000 -18.649149 4.115068 0.000000 -4.968864 12.715352 0.000000 0.578037 -2.480879 0.000000 -1.976366 -20.394070 0.000000 -0.230595 0.325883 0.000000 -3.672263 -17.483703 0.000000 3.841902 -8.622425 0.000000 3.192257 -0.032439 0.000000 -8.082615 -12.146783 0.000000 -6.460772 -21.884602 0.000000 -2.766094 -4.373099 0.000000 -4.493450 -9.908131 0.000000 -1.281136 -16.190974 0.000000 -4.043364 -21.286282 0.000000 -18.415692 -15.194815 0.000000 -6.310243 -5.060220 0.000000 -15.638780 -11.707048 0.000000 -4.383327 -10.129354 0.000000 -4.726727 -9.716347 0.000000 2.297183 -16.132325 0.000000 -1.841560 -6.727160 0.000000 15.266417 7.811601 0.000000 1.473873 -10.348441 0.000000 14.714814 -5.934717 0.000000 -0.013024 -4.120877 0.000000 8.746765 -25.612616 0.000000 -7.419593 -13.766078 0.000000 10.047195 2.220231 0.000000 2.477473 -2.839405 0.000000 17.442018 5.099298 0.000000 0.165305 1.124238 0.000000 4.395404 2.872424 0.000000 1.617305 2.511699 0.000000 -8.677251 -4.907113 0.000000 -4.503902 7.958319 0.000000 -0.575857 5.020980 0.000000 -9.735661 -2.442413 0.000000 -3.537493 4.810516 0.000000 -13.355184 -7.532910 0.000000 -1.951268 -27.308506 0.000000 -17.296512 -21.691816 0.000000 -18.331930 -20.583739 0.000000 -22.976972 -5.055920 0.000000 -23.802610 -10.579139 0.000000 -7.563688 -31.267552 0.000000 -5.831400 -18.366420 0.000000 -8.198093 0.175132 0.000000 -5.248773 -11.374940 0.000000 2.283837 1.548783 0.000000 9.965257 0.347261 0.000000 -2.003208 -9.308264 0.000000 8.175641 0.703602 0.000000 -6.244030 1.815905 0.000000 -1.522022 10.918171 0.000000 -10.455656 -9.399905 0.000000 5.060863 -10.130886 0.000000 8.068533 -9.528614 0.000000 5.939189 0.461049 0.000000 6.761448 4.076258 0.000000 -0.022054 5.801268 0.000000 0.060965 4.330583 0.000000 -1.983606 -2.527365 0.000000 -0.122699 -0.463900 0.000000 4.617022 5.824676 0.000000 5.234957 -2.267965 0.000000 5.314483 -0.577740 0.000000 0.888016 -5.671316 0.000000 -2.923133 -2.284776 0.000000 -6.796009 -5.756555 0.000000 -4.912896 -2.822986 0.000000 -9.154166 -4.575841 0.000000 -2.086383 1.248816 0.000000 -10.888267 -1.955446 0.000000 6.810989 -1.401653 0.000000 -6.343454 6.141467 0.000000 -11.599588 8.839736 0.000000 2.452454 5.988656 0.000000 0.773990 3.268679 0.000000 5.824754 7.541758 0.000000 9.689832 5.832948 0.000000 8.538813 -1.883761 0.000000 6.974342 -6.344662 0.000000 4.164289 -5.654112 0.000000 6.685632 -2.265801 0.000000 11.390362 2.580680 0.000000 8.776522 1.469355 0.000000 13.014712 -5.977685 0.000000 7.609206 -5.048366 0.000000 12.603693 -1.602586 0.000000 14.810913 -3.484358 0.000000 5.606080 -8.567339 0.000000 19.957576 -3.309288 0.000000 6.554271 -12.387593 0.000000 21.715289 -4.481963 0.000000 13.041880 -1.276563 0.000000 14.210730 -15.572869 0.000000 20.033174 -13.294653 0.000000 15.541049 -6.577039 0.000000 14.985753 -15.026085 0.000000 17.291325 -19.009686 0.000000 22.509927 9.560151 0.000000 5.075984 -19.033622 0.000000 14.585129 -10.658059 0.000000 21.438437 -7.524619 0.000000 13.110270 -14.855678 0.000000 20.423208 -21.027043 0.000000 37.340290 10.334695 0.000000 36.721715 1.405033 0.000000 18.649043 -19.045084 0.000000 35.071903 -4.056717 0.000000 18.144124 -20.158086 0.000000 27.722032 -12.296025 0.000000 27.464843 -21.024806 0.000000 19.803786 -18.886917 0.000000 23.378642 -0.625950 0.000000 6.082736 -47.489159 0.000000 -5.344837 -22.958965 0.000000 2.748387 -2.645365 0.000000 17.763931 3.071299 0.000000 10.365122 -2.906218 0.000000 10.532258 -15.603803 0.000000 14.562817 8.023416 0.000000 9.765696 25.321181 0.000000 21.546350 14.068426 0.000000 4.716453 -2.398688 0.000000 6.873643 -9.106701 0.000000 12.456226 -5.718957 0.000000 -7.148818 -6.610071 0.000000 -3.459140 9.831942 0.000000 -16.360821 22.935648 0.000000 -1.097433 20.798931 0.000000 -14.472179 -13.080648 0.000000 -3.606593 -26.215835 0.000000 3.869908 20.691995 0.000000 20.755405 7.275031 0.000000 2.775137 32.211713 0.000000 22.628375 14.243090 0.000000 -11.330709 16.596970 0.000000 23.260268 4.517220 0.000000 -25.249744 -10.901519 0.000000 -3.241551 12.862330 0.000000 -16.227986 1.835995 0.000000 1.142728 2.080255 0.000000 30.692488 19.871469 0.000000 -4.773670 24.252022 0.000000 32.131872 11.593184 0.000000 14.876543 4.245917 0.000000 18.784719 -9.177370 0.000000 12.159620 -27.296963 0.000000 15.535156 2.303585 0.000000 34.889791 26.384655 0.000000 43.053824 44.465641 0.000000 15.754911 11.642755 0.000000 40.718136 -30.910823 0.000000 -2.242754 -18.779932 0.000000 -16.299307 -5.718880 0.000000 -8.894601 52.343327 0.000000 -56.944567 -8.435984 0.000000 33.007702 -28.008291 0.000000 -9.822513 35.360100 0.000000 33.610519 -12.957329 0.000000 2.406678 3.275048 0.000000 4.067047 -6.079781 0.000000 -37.448038 3.593104 0.000000 20.674122 14.939214 0.000000 -29.819556 11.359077 0.000000 9.852798 -0.050690 0.000000 -19.912700 22.378923 0.000000 8.708126 -0.511002 0.000000 -0.076802 -7.984293 0.000000 -13.017050 36.313908 0.000000 -0.902599 0.986987 0.000000 -28.867255 22.643959 0.000000 37.724771 -5.105755 0.000000 -20.108416 -8.605538 0.000000 30.130658 1.644604 0.000000 18.558485 -22.434689 0.000000 -24.293544 39.044438 0.000000 21.172433 15.204536 0.000000 -44.872634 -23.910315 0.000000 0.783319 -11.560413 0.000000 -39.727344 -24.264028 0.000000 4.132162 -0.806737 0.000000 27.541778 12.351346 0.000000 -6.289244 -4.365933 0.000000 11.590024 19.175477 0.000000 3.047966 40.146144 0.000000 -10.795450 2.407657 0.000000 -33.558555 -22.063110 0.000000 -41.437997 6.531775 0.000000 6.877960 -17.558235 0.000000 -16.596244 2.223104 0.000000 4.835740 -3.962421 0.000000 -36.921400 -42.602836 0.000000 40.447291 -31.502198 0.000000 11.618311 11.316601 0.000000 30.720907 0.795641 0.000000 11.054676 -6.837456 0.000000 20.850906 17.296346 0.000000 -31.249022 1.534422 0.000000 -17.355541 12.045960 0.000000 -30.635110 -34.360817 0.000000 7.779162 -38.395961 0.000000 7.488596 -11.232618 0.000000 12.035610 0.734296 0.000000 -11.728062 0.062741 0.000000 5.561486 -26.847070 0.000000 -14.767326 -11.256513 0.000000 16.460348 -14.075161 0.000000 51.414170 -22.068191 0.000000 17.148339 -13.623528 0.000000 19.710964 -15.295366 0.000000 10.549842 26.114089 0.000000 39.969740 12.447183 0.000000 12.471484 2.208567 0.000000 48.940883 9.586619 0.000000 25.106854 -21.118615 0.000000 7.759638 -4.156009 0.000000 16.695744 -17.040009 0.000000 2.506138 2.038775 0.000000 -25.644194 28.185076 0.000000 -7.576356 25.927093 0.000000 46.099069 -5.417346 0.000000 24.324191 14.256840 0.000000 20.812089 -1.495123 0.000000 1.097899 -4.911707 0.000000 -7.257547 5.386021 0.000000 22.375037 -0.734520 0.000000 4.916304 -19.694777 0.000000 -14.857765 17.209549 0.000000 