# vtk DataFile Version 2.0
Comment goes here
ASCII

DATASET STRUCTURED_POINTS
FIELD FieldData 1
TIME 1 1 double
0.00900000
DIMENSIONS    64   64   1

ORIGIN    0.000   0.000   0.000
SPACING   0.03125 0.03125   1.000

POINT_DATA   4096
VECTORS u double

0.048185 -0.006062 0.000000 -0.380068 0.003748 0.000000 0.227752 -0.000784 0.000000 -0.345060 0.001406 0.000000 0.158288 0.000136 0.000000 -0.256505 -0.000990 0.000000 0.052615 -0.000188 0.000000 -0.140730 -0.000481 0.000000 -0.055567 -0.000066 0.000000 -0.028117 -0.000272 0.000000 -0.146171 0.000096 0.000000 0.057722 -0.000562 0.000000 -0.204878 0.000594 0.000000 0.110438 -0.001143 0.000000 -0.234050 0.001294 0.000000 0.136321 -0.001753 0.000000 -0.237760 0.001874 0.000000 0.135220 -0.001894 0.000000 -0.219350 0.001709 0.000000 0.116383 -0.001610 0.000000 -0.191789 0.001320 0.000000 0.099043 -0.001209 0.000000 -0.175222 0.000816 0.000000 0.096590 -0.000489 0.000000 -0.169598 -0.000023 0.000000 0.094151 -0.000499 0.000000 -0.157207 0.001040 0.000000 0.083499 -0.001835 0.000000 -0.141431 0.002423 0.000000 0.074914 -0.002589 0.000000 -0.128365 0.002592 0.000000 0.066679 -0.002286 0.000000 -0.116847 0.002455 0.000000 0.060396 -0.002352 0.000000 -0.105132 0.002930 0.000000 0.049117 -0.002912 0.000000 -0.085095 0.002834 0.000000 0.027817 -0.001806 0.000000 -0.054998 0.000458 0.000000 -0.000689 0.000910 0.000000 -0.023507 -0.001919 0.000000 -0.027776 0.001373 0.000000 0.004862 -0.000427 0.000000 -0.053370 -0.000334 0.000000 0.034446 0.000887 0.000000 -0.079082 -0.000437 0.000000 0.057289 0.000108 0.000000 -0.092299 0.001114 0.000000 0.064864 -0.001481 0.000000 -0.102814 0.002409 0.000000 0.087045 -0.002442 0.000000 -0.140153 0.002631 0.000000 0.135435 -0.002576 0.000000 -0.190367 0.002726 0.000000 0.175666 -0.002611 0.000000 -0.213676 0.002572 0.000000 0.173839 -0.002177 0.000000 -0.189981 0.001797 0.000000 0.123953 -0.001282 0.000000 -0.119388 0.001081 0.000000 0.030661 -0.000869 0.000000 -0.023042 0.000907 0.000000 -0.065295 -0.001066 0.000000 0.036952 0.002429 0.000000 
-0.001300 0.206647 0.000000 0.286163 -0.091103 0.000000 -0.296575 -0.016921 0.000000 0.303331 0.033631 0.000000 -0.274230 -0.044639 0.000000 0.265007 0.053997 0.000000 -0.218457 -0.058162 0.000000 0.201187 0.054820 0.000000 -0.163525 -0.056428 0.000000 0.137003 0.045313 0.000000 -0.116475 -0.042292 0.000000 0.084640 0.028449 0.000000 -0.084255 -0.024927 0.000000 0.048731 0.012999 0.000000 -0.066406 -0.011148 0.000000 0.027387 0.000216 0.000000 -0.061602 0.002114 0.000000 0.020850 -0.010318 0.000000 -0.066758 0.010116 0.000000 0.022435 -0.013841 0.000000 -0.075797 0.008223 0.000000 0.022995 -0.007322 0.000000 -0.077133 0.000028 0.000000 0.012369 -0.001406 0.000000 -0.068483 0.000013 0.000000 0.000158 -0.004986 0.000000 -0.064923 0.004507 0.000000 -0.003852 -0.007381 0.000000 -0.065674 0.004396 0.000000 -0.008888 -0.007222 0.000000 -0.061967 0.005429 0.000000 -0.018560 -0.007657 0.000000 -0.050303 0.005427 0.000000 -0.035595 -0.008088 0.000000 -0.033926 0.007582 0.000000 -0.051616 -0.011432 0.000000 -0.022536 0.011662 0.000000 -0.063076 -0.015701 0.000000 -0.013154 0.015049 0.000000 -0.078024 -0.016588 0.000000 0.005234 0.014599 0.000000 -0.101630 -0.014879 0.000000 0.027353 0.013214 0.000000 -0.120862 -0.014870 0.000000 0.040799 0.012847 0.000000 -0.133180 -0.011468 0.000000 0.055731 0.006870 0.000000 -0.152974 -0.004142 0.000000 0.082008 0.005530 0.000000 -0.173022 -0.010989 0.000000 0.094278 0.018042 0.000000 -0.169704 -0.023276 0.000000 0.083095 0.023906 0.000000 -0.152334 -0.018857 0.000000 0.072770 0.010263 0.000000 -0.147451 0.002270 0.000000 0.084245 -0.013414 0.000000 -0.165300 0.026686 0.000000 0.118890 -0.037287 0.000000 -0.205077 0.048638 0.000000 0.174560 -0.050106 0.000000 -0.253679 0.049683 0.000000 0.221530 -0.031593 0.000000 -0.254809 -0.055534 0.000000 
0.222265 -0.547033 0.000000 0.302281 0.299024 0.000000 -0.055753 -0.017952 0.000000 0.296416 -0.020938 0.000000 -0.010351 0.038460 0.000000 0.232239 -0.056763 0.000000 0.056257 0.063631 0.000000 0.156279 -0.055414 0.000000 0.148505 0.064118 0.000000 0.081722 -0.047322 0.000000 0.231827 0.052460 0.000000 0.025471 -0.032782 0.000000 0.291380 0.036503 0.000000 -0.008478 -0.018992 0.000000 0.328510 0.022638 0.000000 -0.025391 -0.006557 0.000000 0.346444 0.008411 0.000000 -0.025115 0.003261 0.000000 0.348292 0.000124 0.000000 -0.014826 0.007430 0.000000 0.343268 0.000759 0.000000 -0.007828 0.000126 0.000000 0.346972 0.011443 0.000000 -0.015054 -0.009139 0.000000 0.359844 0.012188 0.000000 -0.022868 -0.004059 0.000000 0.365144 0.005050 0.000000 -0.022949 -0.001084 0.000000 0.365755 0.007458 0.000000 -0.025189 -0.006297 0.000000 0.368778 0.012264 0.000000 -0.029577 -0.013950 0.000000 0.375019 0.019490 0.000000 -0.038534 -0.018729 0.000000 0.383316 0.018951 0.000000 -0.046071 -0.014302 0.000000 0.386173 0.014294 0.000000 -0.048253 -0.011188 0.000000 0.383228 0.015406 0.000000 -0.048472 -0.017478 0.000000 0.382285 0.021687 0.000000 -0.052803 -0.020746 0.000000 0.383948 0.018805 0.000000 -0.057131 -0.013779 0.000000 0.380604 0.013206 0.000000 -0.058442 -0.015370 0.000000 0.379607 0.019902 0.000000 -0.068750 -0.025164 0.000000 0.389331 0.018566 0.000000 -0.079537 -0.009861 0.000000 0.382471 -0.005760 0.000000 -0.064736 0.013814 0.000000 0.348482 -0.019946 0.000000 -0.035267 0.013050 0.000000 0.315019 -0.007494 0.000000 -0.022852 -0.008904 0.000000 0.307767 0.015672 0.000000 -0.041897 -0.032848 0.000000 0.330161 0.038495 0.000000 -0.093351 -0.054588 0.000000 0.380392 0.047732 0.000000 -0.162621 -0.046063 0.000000 0.426855 0.000064 0.000000 -0.193879 0.225259 0.000000 
0.208215 -0.289513 0.000000 -0.185505 0.186915 0.000000 0.248788 -0.011055 0.000000 -0.139523 -0.011771 0.000000 -0.015889 0.019539 0.000000 -0.101097 -0.012611 0.000000 0.155087 0.017798 0.000000 -0.060794 -0.037428 0.000000 0.260002 0.018128 0.000000 -0.029634 -0.038008 0.000000 0.331841 0.013958 0.000000 -0.008902 -0.031104 0.000000 0.387557 0.009022 0.000000 0.002496 -0.024132 0.000000 0.433078 0.005765 0.000000 0.007950 -0.017718 0.000000 0.472130 0.001838 0.000000 0.006816 -0.012166 0.000000 0.506855 -0.000172 0.000000 0.002054 -0.008817 0.000000 0.536981 0.001225 0.000000 -0.001738 -0.011026 0.000000 0.556904 0.007255 0.000000 0.002053 -0.014279 0.000000 0.566647 0.007826 0.000000 0.005671 -0.010286 0.000000 0.577896 0.004588 0.000000 0.003291 -0.007992 0.000000 0.589477 0.006636 0.000000 0.002091 -0.010245 0.000000 0.596238 0.009817 0.000000 0.003040 -0.013898 0.000000 0.597061 0.014384 0.000000 0.008183 -0.016384 0.000000 0.593680 0.015119 0.000000 0.012190 -0.014289 0.000000 0.592551 0.013843 0.000000 0.012396 -0.012756 0.000000 0.592544 0.015269 0.000000 0.013155 -0.015645 0.000000 0.586461 0.018929 0.000000 0.018573 -0.016542 0.000000 0.576230 0.017542 0.000000 0.021981 -0.011525 0.000000 0.569231 0.014158 0.000000 0.021659 -0.010472 0.000000 0.558179 0.017179 0.000000 0.028027 -0.013865 0.000000 0.534984 0.016316 0.000000 0.036557 -0.004130 0.000000 0.517061 0.003242 0.000000 0.030496 0.010713 0.000000 0.510205 -0.005564 0.000000 0.016461 0.014606 0.000000 0.497335 -0.002152 0.000000 0.011824 0.009522 0.000000 0.463810 0.005631 0.000000 0.023183 0.004292 0.000000 0.405414 0.014167 0.000000 0.054488 -0.001593 0.000000 0.312065 0.019164 0.000000 0.109217 0.003220 0.000000 0.181474 -0.000336 0.000000 0.171170 0.149056 0.000000 
0.290316 -0.190358 0.000000 -0.095058 0.258450 0.000000 0.272258 -0.063934 0.000000 -0.068411 0.243738 0.000000 0.043598 0.000033 0.000000 -0.048865 -0.227738 0.000000 0.224974 0.023329 0.000000 -0.031862 -0.160330 0.000000 0.325784 0.032958 0.000000 -0.019205 -0.119161 0.000000 0.393350 0.031728 0.000000 -0.011070 -0.088498 0.000000 0.444281 0.025105 0.000000 -0.006379 -0.064513 0.000000 0.484265 0.017183 0.000000 -0.003254 -0.045609 0.000000 0.516635 0.009545 0.000000 -0.002445 -0.031464 0.000000 0.543617 0.004887 0.000000 -0.003121 -0.022695 0.000000 0.566116 0.004551 0.000000 -0.003540 -0.019797 0.000000 0.581908 0.007651 0.000000 -0.000446 -0.018881 0.000000 0.591354 0.008570 0.000000 0.002051 -0.015308 0.000000 0.600769 0.007431 0.000000 0.001204 -0.012664 0.000000 0.609442 0.008658 0.000000 0.001017 -0.013058 0.000000 0.614749 0.011315 0.000000 0.001925 -0.014773 0.000000 0.616198 0.014347 0.000000 0.005098 -0.015348 0.000000 0.614584 0.014944 0.000000 0.007903 -0.013174 0.000000 0.613188 0.014088 0.000000 0.009057 -0.011181 0.000000 0.611467 0.014647 0.000000 0.010661 -0.011396 0.000000 0.605862 0.016268 0.000000 0.014628 -0.010515 0.000000 0.597402 0.015398 0.000000 0.017442 -0.006780 0.000000 0.590021 0.013527 0.000000 0.017918 -0.004318 0.000000 0.579941 0.013535 0.000000 0.021635 -0.001968 0.000000 0.562443 0.010036 0.000000 0.026664 0.008062 0.000000 0.546225 0.000302 0.000000 0.024411 0.020670 0.000000 0.534302 -0.005912 0.000000 0.017982 0.025920 0.000000 0.518310 -0.002857 0.000000 0.015560 0.024622 0.000000 0.491252 0.004312 0.000000 0.019774 0.025547 0.000000 0.450805 0.007190 0.000000 0.033031 0.038760 0.000000 0.389725 -0.006996 0.000000 0.059185 0.084528 0.000000 0.301831 -0.061889 0.000000 0.093456 0.198518 0.000000 
0.269540 -0.100999 0.000000 -0.062676 0.204972 0.000000 0.237519 -0.037702 0.000000 -0.075447 0.216889 0.000000 0.124940 -0.000008 0.000000 -0.075173 -0.193987 0.000000 0.222482 0.000795 0.000000 -0.051331 -0.138238 0.000000 0.301682 0.005472 0.000000 -0.030922 -0.105574 0.000000 0.363093 0.005823 0.000000 -0.015528 -0.082036 0.000000 0.412205 0.004331 0.000000 -0.005383 -0.064115 0.000000 0.452750 0.002639 0.000000 0.000373 -0.050089 0.000000 0.487105 0.001029 0.000000 0.002241 -0.039149 0.000000 0.516464 0.000504 0.000000 0.001844 -0.031315 0.000000 0.540772 0.001644 0.000000 0.001471 -0.026818 0.000000 0.558756 0.004161 0.000000 0.003067 -0.023725 0.000000 0.571123 0.005329 0.000000 0.004698 -0.019701 0.000000 0.581405 0.005436 0.000000 0.004750 -0.016665 0.000000 0.589964 0.006822 0.000000 0.004965 -0.015552 0.000000 0.595410 0.008909 0.000000 0.006253 -0.015347 0.000000 0.597310 0.011211 0.000000 0.009012 -0.014770 0.000000 0.596602 0.012315 0.000000 0.011652 -0.012893 0.000000 0.595262 0.012689 0.000000 0.013288 -0.011036 0.000000 0.593033 0.013664 0.000000 0.015089 -0.010040 0.000000 0.588026 0.014963 0.000000 0.018013 -0.008082 0.000000 0.580627 0.014728 0.000000 0.020425 -0.004144 0.000000 0.572321 0.013682 0.000000 0.021983 -0.000392 0.000000 0.561123 0.013461 0.000000 0.024822 0.003633 0.000000 0.545555 0.011287 0.000000 0.027128 0.012088 0.000000 0.530136 0.005495 0.000000 0.024649 0.022636 0.000000 0.515907 0.000865 0.000000 0.019850 0.030597 0.000000 0.496550 0.000270 0.000000 0.019142 0.036580 0.000000 0.465322 0.001417 0.000000 0.026018 0.044740 0.000000 0.419168 0.000910 0.000000 0.040246 0.059486 0.000000 0.358104 -0.006989 0.000000 0.054848 0.091113 0.000000 0.293751 -0.034607 0.000000 0.043830 0.160572 0.000000 
0.335088 -0.083851 0.000000 -0.029589 0.290471 0.000000 0.285621 -0.051163 0.000000 -0.037035 0.356318 0.000000 0.179732 -0.000241 0.000000 -0.036953 -0.325280 0.000000 0.280170 -0.000513 0.000000 -0.026983 -0.239530 0.000000 0.358079 0.012548 0.000000 -0.018729 -0.180573 0.000000 0.416678 0.016335 0.000000 -0.012477 -0.137609 0.000000 0.462078 0.014960 0.000000 -0.008014 -0.105059 0.000000 0.498209 0.011428 0.000000 -0.004833 -0.079964 0.000000 0.527521 0.007677 0.000000 -0.002952 -0.060823 0.000000 0.551425 0.005284 0.000000 -0.001952 -0.047003 0.000000 0.570598 0.004924 0.000000 -0.001008 -0.037782 0.000000 0.584977 0.006055 0.000000 0.000714 -0.031248 0.000000 0.595353 0.006939 0.000000 0.002160 -0.025590 0.000000 0.603803 0.007379 0.000000 0.002609 -0.021224 0.000000 0.610561 0.008444 0.000000 0.003115 -0.018504 0.000000 0.614945 0.010027 0.000000 0.004213 -0.016673 0.000000 0.616759 0.011588 0.000000 0.006190 -0.014640 0.000000 0.616457 0.012305 0.000000 0.008284 -0.011833 0.000000 0.615052 0.012452 0.000000 0.010041 -0.008952 0.000000 0.612468 0.012845 0.000000 0.011959 -0.006389 0.000000 0.607820 0.013345 0.000000 0.014391 -0.003116 0.000000 0.601342 0.012985 0.000000 0.016395 0.001527 0.000000 0.593779 0.011969 0.000000 0.017697 0.006879 0.000000 0.583973 0.010695 0.000000 0.019452 0.013601 0.000000 0.570897 0.007730 0.000000 0.020853 0.023481 0.000000 0.556780 0.002780 0.000000 0.019772 0.034900 0.000000 0.542298 -0.001113 0.000000 0.017399 0.045277 0.000000 0.524357 -0.002148 0.000000 0.016722 0.055850 0.000000 0.499493 -0.002564 0.000000 0.019257 0.071702 0.000000 0.465665 -0.007038 0.000000 0.025084 0.099825 0.000000 0.421546 -0.021598 0.000000 0.031326 0.148881 0.000000 0.370992 -0.050872 0.000000 0.025274 0.222729 0.000000 
0.338077 -0.046135 0.000000 -0.029028 0.254439 0.000000 0.304698 -0.030256 0.000000 -0.046299 0.322778 0.000000 0.252722 -0.000091 0.000000 -0.046473 -0.294425 0.000000 0.307549 -0.009175 0.000000 -0.038147 -0.216147 0.000000 0.360135 -0.002782 0.000000 -0.027034 -0.164173 0.000000 0.405776 -0.000428 0.000000 -0.016824 -0.127436 0.000000 0.444598 -0.000132 0.000000 -0.008852 -0.100246 0.000000 0.477756 -0.000542 0.000000 -0.003330 -0.079401 0.000000 0.506196 -0.000852 0.000000 -0.000113 -0.063053 0.000000 0.530260 -0.000496 0.000000 0.001519 -0.050489 0.000000 0.549979 0.000700 0.000000 0.002625 -0.041198 0.000000 0.565270 0.002440 0.000000 0.003960 -0.034101 0.000000 0.576762 0.003883 0.000000 0.005146 -0.028151 0.000000 0.585765 0.004986 0.000000 0.005829 -0.023424 0.000000 0.592684 0.006316 0.000000 0.006556 -0.019936 0.000000 0.597233 0.007811 0.000000 0.007808 -0.017161 0.000000 0.599329 0.009234 0.000000 0.009721 -0.014468 0.000000 0.599402 0.010220 0.000000 0.011800 -0.011488 0.000000 0.598146 0.010932 0.000000 0.013687 -0.008451 0.000000 0.595599 0.011747 0.000000 0.015589 -0.005392 0.000000 0.591301 0.012531 0.000000 0.017649 -0.001605 0.000000 0.585272 0.012724 0.000000 0.019404 0.003418 0.000000 0.577675 0.012380 0.000000 0.020700 0.009414 0.000000 0.567846 0.011706 0.000000 0.021844 0.016709 0.000000 0.555435 0.009885 0.000000 0.022162 0.026205 0.000000 0.541567 0.006577 0.000000 0.020747 0.037119 0.000000 0.526319 0.003238 0.000000 0.018812 0.048538 0.000000 0.507176 0.000947 0.000000 0.018712 0.061444 0.000000 0.481229 -0.001118 0.000000 0.021502 0.078568 0.000000 0.447356 -0.004917 0.000000 0.025621 0.103605 0.000000 0.407276 -0.013231 0.000000 0.025417 0.141667 0.000000 0.367538 -0.028555 0.000000 0.009896 0.196476 0.000000 
0.393314 -0.044928 0.000000 -0.013350 0.323850 0.000000 0.354504 -0.033892 0.000000 -0.023134 0.408294 0.000000 0.302925 -0.000067 0.000000 -0.023272 -0.380107 0.000000 0.358288 -0.008838 0.000000 -0.020469 -0.292115 0.000000 0.409782 0.001435 0.000000 -0.016243 -0.226213 0.000000 0.453227 0.006124 0.000000 -0.012077 -0.176431 0.000000 0.489144 0.006988 0.000000 -0.008350 -0.138217 0.000000 0.518970 0.005906 0.000000 -0.005093 -0.108404 0.000000 0.543812 0.004459 0.000000 -0.002558 -0.084886 0.000000 0.563952 0.003652 0.000000 -0.000725 -0.066722 0.000000 0.579864 0.003818 0.000000 0.000755 -0.053073 0.000000 0.592052 0.004720 0.000000 0.002168 -0.042740 0.000000 0.601285 0.005753 0.000000 0.003273 -0.034593 0.000000 0.608519 0.006696 0.000000 0.003951 -0.028142 0.000000 0.614044 0.007717 0.000000 0.004616 -0.023053 0.000000 0.617712 0.008775 0.000000 0.005634 -0.018769 0.000000 0.619444 0.009674 0.000000 0.007173 -0.014713 0.000000 0.619434 0.010226 0.000000 0.008998 -0.010578 0.000000 0.618091 0.010565 0.000000 0.010858 -0.006405 0.000000 0.615529 0.010943 0.000000 0.012741 -0.002091 0.000000 0.611608 0.011285 0.000000 0.014578 0.002913 0.000000 0.606368 0.011230 0.000000 0.016044 0.009124 0.000000 0.599779 0.010673 0.000000 0.017014 0.016708 0.000000 0.591273 0.009552 0.000000 0.017619 0.026012 0.000000 0.580399 0.007412 0.000000 0.017529 0.037348 0.000000 0.567705 0.004195 0.000000 0.016417 0.050148 0.000000 0.553746 0.000823 0.000000 0.015094 0.064420 0.000000 0.537316 -0.002048 0.000000 0.014636 0.081797 0.000000 0.516694 -0.005354 0.000000 0.015416 0.105574 0.000000 0.490805 -0.011157 0.000000 0.016673 0.139904 0.000000 0.459702 -0.021393 0.000000 0.015754 0.188618 0.000000 0.425747 -0.035351 0.000000 0.007243 0.252190 0.000000 
0.410116 -0.025542 0.000000 -0.017869 0.293249 0.000000 0.389676 -0.020472 0.000000 -0.029858 0.374356 0.000000 0.368656 0.000047 0.000000 -0.030017 -0.349787 0.000000 0.395355 -0.011978 0.000000 -0.027771 -0.267641 0.000000 0.425708 -0.007009 0.000000 -0.022240 -0.207617 0.000000 0.455331 -0.004594 0.000000 -0.015871 -0.163353 0.000000 0.482670 -0.003859 0.000000 -0.009864 -0.130072 0.000000 0.507481 -0.003798 0.000000 -0.004721 -0.104243 0.000000 0.529659 -0.003387 0.000000 -0.000873 -0.083193 0.000000 0.548392 -0.002329 0.000000 0.001726 -0.066400 0.000000 0.563606 -0.000780 0.000000 0.003557 -0.053385 0.000000 0.575585 0.001027 0.000000 0.005014 -0.043334 0.000000 0.584895 0.002778 0.000000 0.006104 -0.035385 0.000000 0.592207 0.004309 0.000000 0.006863 -0.028949 0.000000 0.597767 0.005651 0.000000 0.007621 -0.023603 0.000000 0.601509 0.006793 0.000000 0.008708 -0.018893 0.000000 0.603378 0.007695 0.000000 0.010272 -0.014458 0.000000 0.603533 0.008396 0.000000 0.012141 -0.010144 0.000000 0.602320 0.009071 0.000000 0.014066 -0.005890 0.000000 0.599916 0.009864 0.000000 0.015927 -0.001471 0.000000 0.596307 0.010694 0.000000 0.017588 0.003636 0.000000 0.591485 0.011258 0.000000 0.018837 0.010008 0.000000 0.585261 0.011410 0.000000 0.019567 0.017919 0.000000 0.577153 0.011101 0.000000 0.019688 0.027583 0.000000 0.566776 0.009975 0.000000 0.018928 0.038899 0.000000 0.554378 0.007689 0.000000 0.017357 0.051077 0.000000 0.540617 0.004561 0.000000 0.015916 0.064968 0.000000 0.524592 0.001405 0.000000 0.015369 0.082066 0.000000 0.505059 -0.001898 0.000000 0.015640 0.104457 0.000000 0.481758 -0.006174 0.000000 0.015291 0.134709 0.000000 0.456090 -0.012312 0.000000 0.011285 0.175622 0.000000 0.431220 -0.020044 0.000000 0.000021 0.228909 0.000000 
0.457745 -0.027038 0.000000 -0.008280 0.344290 0.000000 0.435723 -0.021903 0.000000 -0.015266 0.429315 0.000000 0.414314 0.000091 0.000000 -0.015390 -0.406807 0.000000 0.440548 -0.011083 0.000000 -0.015404 -0.322469 0.000000 0.469679 -0.004096 0.000000 -0.013709 -0.255837 0.000000 0.497375 -0.000245 0.000000 -0.011236 -0.203770 0.000000 0.522337 0.000982 0.000000 -0.008207 -0.163028 0.000000 0.544737 0.000762 0.000000 -0.004625 -0.130582 0.000000 0.564814 0.000612 0.000000 -0.001452 -0.103620 0.000000 0.580711 0.001053 0.000000 0.000865 -0.081935 0.000000 0.592854 0.001987 0.000000 0.002593 -0.065052 0.000000 0.602085 0.003263 0.000000 0.003942 -0.052050 0.000000 0.609219 0.004663 0.000000 0.004819 -0.041905 0.000000 0.614944 0.005937 0.000000 0.005304 -0.033702 0.000000 0.619381 0.006958 0.000000 0.005765 -0.026795 0.000000 0.622415 0.007689 0.000000 0.006538 -0.020638 0.000000 0.623874 0.008111 0.000000 0.007874 -0.014868 0.000000 0.623746 0.008357 0.000000 0.009675 -0.009365 0.000000 0.622347 0.008640 0.000000 0.011651 -0.004000 0.000000 0.619951 0.009082 0.000000 0.013566 0.001517 0.000000 0.616717 0.009624 0.000000 0.015134 0.007734 0.000000 0.612741 0.009981 0.000000 0.016184 0.015349 0.000000 0.607694 0.009944 0.000000 0.016689 0.024817 0.000000 0.600942 0.009430 0.000000 0.016479 0.036389 0.000000 0.591721 0.008172 0.000000 0.015229 0.049747 0.000000 0.579892 0.005766 0.000000 0.013267 0.063909 0.000000 0.567660 0.002264 0.000000 0.011907 0.080445 0.000000 0.554453 -0.001501 0.000000 0.011290 0.101329 0.000000 0.539141 -0.005626 0.000000 0.011074 0.128876 0.000000 0.521121 -0.010808 0.000000 0.010423 0.165573 0.000000 0.500665 -0.017387 0.000000 0.007839 0.213488 0.000000 0.479045 -0.024087 0.000000 0.001536 0.273294 0.000000 
0.481252 -0.015726 0.000000 -0.012806 0.315271 0.000000 0.474833 -0.013486 0.000000 -0.020429 0.395765 0.000000 0.473459 0.000171 0.000000 -0.020554 -0.376021 0.000000 0.479800 -0.011964 0.000000 -0.020674 -0.296773 0.000000 0.492188 -0.008704 0.000000 -0.018280 -0.235313 0.000000 0.507263 -0.007067 0.000000 -0.014551 -0.188315 0.000000 0.523315 -0.006888 0.000000 -0.010011 -0.152473 0.000000 0.539867 -0.007380 0.000000 -0.004813 -0.124319 0.000000 0.556573 -0.006561 0.000000 -0.000377 -0.099090 0.000000 0.570044 -0.004646 0.000000 0.002707 -0.078543 0.000000 0.580468 -0.002508 0.000000 0.004870 -0.062617 0.000000 0.588573 -0.000322 0.000000 0.006443 -0.050467 0.000000 0.595028 0.001900 0.000000 0.007398 -0.041111 0.000000 0.600400 0.003824 0.000000 0.007898 -0.033386 0.000000 0.604666 0.005190 0.000000 0.008359 -0.026637 0.000000 0.607658 0.006020 0.000000 0.009133 -0.020353 0.000000 0.609143 0.006359 0.000000 0.010520 -0.014329 0.000000 0.609036 0.006595 0.000000 0.012426 -0.008745 0.000000 0.607687 0.007095 0.000000 0.014508 -0.003494 0.000000 0.605436 0.007949 0.000000 0.016465 0.001763 0.000000 0.602526 0.009127 0.000000 0.017935 0.007611 0.000000 0.599101 0.010207 0.000000 0.018786 0.015055 0.000000 0.594732 0.010905 0.000000 0.019035 0.024671 0.000000 0.588728 0.011311 0.000000 0.018413 0.036804 0.000000 0.580139 0.011225 0.000000 0.016508 0.050728 0.000000 0.568544 0.009651 0.000000 0.013832 0.063310 0.000000 0.557169 0.005922 0.000000 0.012115 0.078175 0.000000 0.545506 0.002022 0.000000 0.011192 0.097378 0.000000 0.532647 -0.001682 0.000000 0.010384 0.122477 0.000000 0.518510 -0.005524 0.000000 0.008607 0.155165 0.000000 0.504073 -0.009728 0.000000 0.004439 0.197242 0.000000 0.491110 -0.013742 0.000000 -0.003102 0.250209 0.000000 
0.522768 -0.017334 0.000000 -0.006134 0.350710 0.000000 0.516129 -0.014280 0.000000 -0.010773 0.430689 0.000000 0.514607 0.000216 0.000000 -0.010872 -0.413148 0.000000 0.520074 -0.010963 0.000000 -0.012041 -0.334857 0.000000 0.531135 -0.006490 0.000000 -0.011956 -0.270911 0.000000 0.544336 -0.003974 0.000000 -0.010952 -0.219822 0.000000 0.558141 -0.003557 0.000000 -0.008620 -0.179581 0.000000 0.572870 -0.004437 0.000000 -0.003759 -0.147287 0.000000 0.590010 -0.003824 0.000000 0.000521 -0.117091 0.000000 0.601230 -0.002031 0.000000 0.003054 -0.092360 0.000000 0.608760 -0.000176 0.000000 0.004820 -0.073157 0.000000 0.614222 0.001690 0.000000 0.006196 -0.058506 0.000000 0.618564 0.003707 0.000000 0.006762 -0.047277 0.000000 0.622658 0.005438 0.000000 0.006681 -0.037968 0.000000 0.626122 0.006497 0.000000 0.006602 -0.029787 0.000000 0.628691 0.006915 0.000000 0.006880 -0.022123 0.000000 0.629894 0.006723 0.000000 0.008115 -0.014761 0.000000 0.629331 0.006451 0.000000 0.010178 -0.008015 0.000000 0.627601 0.006558 0.000000 0.012506 -0.001750 0.000000 0.625212 0.007124 0.000000 0.014740 0.004428 0.000000 0.622567 0.008154 0.000000 0.016202 0.011159 0.000000 0.620186 0.009130 0.000000 0.016863 0.019718 0.000000 0.617313 0.009695 0.000000 0.017073 0.030820 0.000000 0.613081 0.010053 0.000000 0.016372 0.044978 0.000000 0.605649 0.010077 0.000000 0.013656 0.061343 0.000000 0.592469 0.008442 0.000000 0.009513 0.075283 0.000000 0.582538 0.003980 0.000000 0.007965 0.092108 0.000000 0.573682 -0.000577 0.000000 0.007527 0.114188 0.000000 0.564271 -0.004818 0.000000 0.007153 0.143012 0.000000 0.553839 -0.009031 0.000000 0.006108 0.180010 0.000000 0.542755 -0.013219 0.000000 0.003679 0.226451 0.000000 0.531995 -0.016546 0.000000 -0.000601 0.283152 0.000000 
0.548802 -0.010192 0.000000 -0.009877 0.321910 0.000000 0.554746 -0.008848 0.000000 -0.014799 0.397287 0.000000 0.567635 0.000271 0.000000 -0.014894 -0.381488 0.000000 0.558361 -0.010795 0.000000 -0.016074 -0.307833 0.000000 0.556116 -0.008789 0.000000 -0.015649 -0.248514 0.000000 0.558305 -0.008072 0.000000 -0.014037 -0.202120 0.000000 0.563518 -0.009220 0.000000 -0.010824 -0.167201 0.000000 0.572156 -0.012241 0.000000 -0.004157 -0.141459 0.000000 0.586725 -0.010841 0.000000 0.001481 -0.110310 0.000000 0.594746 -0.007179 0.000000 0.004618 -0.086073 0.000000 0.599655 -0.004274 0.000000 0.006781 -0.068079 0.000000 0.603215 -0.001698 0.000000 0.008495 -0.054809 0.000000 0.606249 0.001334 0.000000 0.009151 -0.045205 0.000000 0.609699 0.003904 0.000000 0.008969 -0.036850 0.000000 0.612837 0.005269 0.000000 0.008785 -0.029206 0.000000 0.615314 0.005742 0.000000 0.008945 -0.021556 0.000000 0.616502 0.005123 0.000000 0.010253 -0.013766 0.000000 0.615784 0.004532 0.000000 0.012537 -0.007015 0.000000 0.613956 0.004767 0.000000 0.015075 -0.001104 0.000000 0.611620 0.005715 0.000000 0.017491 0.004408 0.000000 0.609259 0.007665 0.000000 0.018897 0.009992 0.000000 0.607659 0.009546 0.000000 0.019329 0.017929 0.000000 0.605837 0.010694 0.000000 0.019366 0.028902 0.000000 0.602892 0.012012 0.000000 0.018412 0.044236 0.000000 0.596510 0.013941 0.000000 0.014876 0.063909 0.000000 0.582465 0.013794 0.000000 0.009345 0.073241 0.000000 0.574001 0.007469 0.000000 0.007513 0.087031 0.000000 0.567606 0.002460 0.000000 0.006888 0.106789 0.000000 0.561496 -0.001308 0.000000 0.006089 0.132909 0.000000 0.555536 -0.004479 0.000000 0.004315 0.166249 0.000000 0.550541 -0.007298 0.000000 0.000982 0.208002 0.000000 0.547829 -0.009462 0.000000 -0.004034 0.259436 0.000000 
0.585119 -0.011491 0.000000 -0.004914 0.344766 0.000000 0.591314 -0.009357 0.000000 -0.008063 0.417800 0.000000 0.604311 0.000311 0.000000 -0.008139 -0.403875 0.000000 0.594095 -0.009783 0.000000 -0.009914 -0.332612 0.000000 0.590535 -0.006915 0.000000 -0.011119 -0.273100 0.000000 0.590755 -0.005586 0.000000 -0.011993 -0.225035 0.000000 0.593068 -0.006770 0.000000 -0.011563 -0.188219 0.000000 0.598669 -0.011104 0.000000 -0.002386 -0.161856 0.000000 0.621117 -0.009462 0.000000 0.004246 -0.125111 0.000000 0.625431 -0.005169 0.000000 0.006006 -0.097270 0.000000 0.626732 -0.002339 0.000000 0.007426 -0.076716 0.000000 0.627481 -0.000024 0.000000 0.009248 -0.061540 0.000000 0.628155 0.003051 0.000000 0.009332 -0.050727 0.000000 0.630991 0.005620 0.000000 0.008041 -0.041105 0.000000 0.633746 0.006681 0.000000 0.007063 -0.032264 0.000000 0.636319 0.006755 0.000000 0.006248 -0.023311 0.000000 0.637670 0.005415 0.000000 0.007523 -0.014044 0.000000 0.636077 0.004167 0.000000 0.010409 -0.006187 0.000000 0.633509 0.004021 0.000000 0.013448 0.000585 0.000000 0.630724 0.004707 0.000000 0.016678 0.006789 0.000000 0.628144 0.006749 0.000000 0.018053 0.012759 0.000000 0.628111 0.008698 0.000000 0.017976 0.021540 0.000000 0.628281 0.009658 0.000000 0.018346 0.033766 0.000000 0.628417 0.011006 0.000000 0.018255 0.051360 0.000000 0.625319 0.013613 0.000000 0.013572 0.075388 0.000000 0.601751 0.013974 0.000000 0.003151 0.083746 0.000000 0.596339 0.005812 0.000000 0.002900 0.098503 0.000000 0.593455 0.000048 0.000000 0.003691 0.120299 0.000000 0.590401 -0.004019 0.000000 0.003898 0.148972 0.000000 0.587178 -0.007257 0.000000 0.003183 0.185005 0.000000 0.584483 -0.009886 0.000000 0.001386 0.229163 0.000000 0.583366 -0.011529 0.000000 -0.001468 0.282179 0.000000 
0.611287 -0.006745 0.000000 -0.007884 0.315716 0.000000 0.627608 -0.005700 0.000000 -0.011205 0.384290 0.000000 0.651574 0.000348 0.000000 -0.011273 -0.371272 0.000000 0.629974 -0.009021 0.000000 -0.013066 -0.304274 0.000000 0.615695 -0.007583 0.000000 -0.014192 -0.248735 0.000000 0.606379 -0.007198 0.000000 -0.015111 -0.204433 0.000000 0.600330 -0.009649 0.000000 -0.015108 -0.172803 0.000000 0.598651 -0.021418 0.000000 -0.005256 -0.163908 0.000000 0.618037 -0.017473 0.000000 0.001464 -0.114624 0.000000 0.617561 -0.008939 0.000000 0.002768 -0.087373 0.000000 0.615507 -0.005694 0.000000 0.004027 -0.068828 0.000000 0.613983 -0.003520 0.000000 0.006015 -0.055483 0.000000 0.612951 0.001251 0.000000 0.006176 -0.048041 0.000000 0.614809 0.005195 0.000000 0.004903 -0.039605 0.000000 0.616795 0.006247 0.000000 0.004053 -0.031778 0.000000 0.618923 0.006557 0.000000 0.003207 -0.022907 0.000000 0.620107 0.003849 0.000000 0.004559 -0.012173 0.000000 0.618308 0.001646 0.000000 0.007555 -0.004447 0.000000 0.615794 0.001727 0.000000 0.010596 0.001680 0.000000 0.613262 0.002486 0.000000 0.013967 0.006988 0.000000 0.611015 0.006290 0.000000 0.015362 0.010025 0.000000 0.611873 0.009623 0.000000 0.015310 0.017758 0.000000 0.613202 0.010325 0.000000 0.016109 0.028766 0.000000 0.615261 0.012103 0.000000 0.016800 0.047335 0.000000 0.614985 0.018624 0.000000 0.012464 0.087477 0.000000 0.590711 0.024215 0.000000 0.001150 0.078653 0.000000 0.588771 0.007721 0.000000 0.001687 0.089916 0.000000 0.589420 0.001669 0.000000 0.002749 0.109842 0.000000 0.590180 -0.001515 0.000000 0.002766 0.136132 0.000000 0.591571 -0.003764 0.000000 0.001584 0.168943 0.000000 0.594685 -0.005502 0.000000 -0.000783 0.209119 0.000000 0.600801 -0.006608 0.000000 -0.004132 0.257683 0.000000 