# vtk DataFile Version 2.0
Comment goes here
ASCII

DATASET STRUCTURED_POINTS
FIELD FieldData 1
TIME 1 1 double
0.06600000
DIMENSIONS    64   64   1

ORIGIN    0.000   0.000   0.000
SPACING   0.03125 0.03125   1.000

POINT_DATA   4096
VECTORS u double

0.549349 -0.020355 0.000000 -1.650255 0.012789 0.000000 0.341412 -0.004860 0.000000 -1.479357 0.001950 0.000000 -0.029351 0.001545 0.000000 -1.306494 -0.000251 0.000000 0.070921 -0.001561 0.000000 -1.128933 0.000542 0.000000 0.120493 -0.001009 0.000000 -1.052918 -0.000815 0.000000 0.178760 -0.000041 0.000000 -1.035174 -0.002652 0.000000 0.232197 0.001310 0.000000 -1.017383 -0.004599 0.000000 0.239006 0.002952 0.000000 -0.951231 -0.006288 0.000000 0.174084 0.004645 0.000000 -0.824731 -0.008599 0.000000 0.051268 0.005123 0.000000 -0.658017 -0.011341 0.000000 -0.101689 0.007318 0.000000 -0.473946 -0.008258 0.000000 -0.270686 0.009928 0.000000 -0.279173 -0.005265 0.000000 -0.453853 0.012295 0.000000 -0.075417 -0.008541 0.000000 -0.648195 0.009395 0.000000 0.135862 -0.009052 0.000000 -0.844902 0.009565 0.000000 0.340753 -0.007289 0.000000 -1.023202 0.010347 0.000000 0.514675 -0.006275 0.000000 -1.160780 0.009437 0.000000 0.642014 -0.006099 0.000000 -1.251737 0.007572 0.000000 0.726088 -0.005359 0.000000 -1.309012 0.005777 0.000000 0.782752 -0.003244 0.000000 -1.343095 0.004784 0.000000 0.811979 -0.000910 0.000000 -1.347528 0.004811 0.000000 0.801351 0.000873 0.000000 -1.309762 0.001877 0.000000 0.737945 0.003513 0.000000 -1.219521 -0.000348 0.000000 0.614662 0.006084 0.000000 -1.072373 0.000013 0.000000 0.429263 0.007055 0.000000 -0.871442 -0.000081 0.000000 0.185217 0.006045 0.000000 -0.626070 -0.000539 0.000000 -0.105403 0.005355 0.000000 -0.354048 -0.000801 0.000000 -0.416195 0.004150 0.000000 -0.088565 -0.001198 0.000000 -0.714671 0.003153 0.000000 0.147910 -0.001810 0.000000 -0.995038 0.002783 0.000000 0.357864 -0.002394 0.000000 -1.263444 0.002344 0.000000 0.537525 -0.002998 0.000000 -1.507417 0.001903 0.000000 0.662668 -0.004067 0.000000 -1.694935 0.003126 0.000000 
-0.317534 -0.041300 0.000000 0.363367 0.105159 0.000000 -0.153830 -0.085765 0.000000 0.284446 0.186294 0.000000 0.206374 -0.089274 0.000000 0.200289 -0.049595 0.000000 -0.081448 -0.088072 0.000000 0.062310 -0.025615 0.000000 -0.236604 -0.036407 0.000000 0.007593 -0.030853 0.000000 -0.351149 -0.005761 0.000000 -0.005106 -0.029840 0.000000 -0.438871 -0.004168 0.000000 -0.015216 -0.007954 0.000000 -0.486123 -0.027158 0.000000 -0.052725 0.026658 0.000000 -0.484340 -0.056253 0.000000 -0.122717 0.055203 0.000000 -0.447312 -0.074517 0.000000 -0.211556 0.070337 0.000000 -0.395491 -0.083388 0.000000 -0.307798 0.074666 0.000000 -0.330218 -0.090020 0.000000 -0.408966 0.079196 0.000000 -0.250301 -0.096013 0.000000 -0.512513 0.087788 0.000000 -0.163721 -0.097374 0.000000 -0.621142 0.089363 0.000000 -0.077479 -0.094963 0.000000 -0.725817 0.079843 0.000000 -0.000186 -0.081342 0.000000 -0.811946 0.059908 0.000000 0.056257 -0.058084 0.000000 -0.874036 0.037369 0.000000 0.088261 -0.036146 0.000000 -0.915050 0.021815 0.000000 0.104933 -0.023503 0.000000 -0.943467 0.011585 0.000000 0.112660 -0.012166 0.000000 -0.956388 -0.001885 0.000000 0.107048 0.004527 0.000000 -0.946036 -0.021206 0.000000 0.083242 0.029365 0.000000 -0.908996 -0.045127 0.000000 0.037142 0.056566 0.000000 -0.839073 -0.071404 0.000000 -0.036265 0.084279 0.000000 -0.731015 -0.097312 0.000000 -0.136659 0.113332 0.000000 -0.588506 -0.118823 0.000000 -0.256185 0.137950 0.000000 -0.419259 -0.132750 0.000000 -0.383713 0.149706 0.000000 -0.238457 -0.129876 0.000000 -0.498758 0.145211 0.000000 -0.067684 -0.115750 0.000000 -0.585969 0.137596 0.000000 0.089823 -0.102850 0.000000 -0.646000 0.132462 0.000000 0.239119 -0.087508 0.000000 -0.674043 0.120371 0.000000 0.367197 -0.058991 0.000000 -0.642927 0.091089 0.000000 0.437926 0.062953 0.000000 
1.704342 0.054204 0.000000 0.659061 -0.150915 0.000000 1.338836 0.074062 0.000000 0.577002 -0.358254 0.000000 1.019065 0.085701 0.000000 0.442641 0.287571 0.000000 1.729998 0.136418 0.000000 0.460068 0.155697 0.000000 2.132852 0.053708 0.000000 0.448816 0.113730 0.000000 2.374968 0.012658 0.000000 0.443859 0.085070 0.000000 2.537025 0.011420 0.000000 0.429108 0.042653 0.000000 2.683651 0.040461 0.000000 0.378344 -0.008071 0.000000 2.848620 0.074636 0.000000 0.290243 -0.045627 0.000000 3.029178 0.093962 0.000000 0.183403 -0.063162 0.000000 3.210892 0.103560 0.000000 0.076293 -0.073532 0.000000 3.379003 0.111097 0.000000 -0.038500 -0.085182 0.000000 3.536501 0.115841 0.000000 -0.166795 -0.095121 0.000000 3.694341 0.118024 0.000000 -0.288716 -0.095294 0.000000 3.849848 0.114240 0.000000 -0.400705 -0.084582 0.000000 3.984674 0.096477 0.000000 -0.491491 -0.062718 0.000000 4.084326 0.071528 0.000000 -0.546102 -0.038102 0.000000 4.148966 0.048586 0.000000 -0.567546 -0.022031 0.000000 4.190850 0.034194 0.000000 -0.573438 -0.010971 0.000000 4.213466 0.017705 0.000000 -0.566877 0.004702 0.000000 4.209616 -0.005541 0.000000 -0.543240 0.024678 0.000000 4.172581 -0.035163 0.000000 -0.493310 0.049613 0.000000 4.094772 -0.070271 0.000000 -0.413027 0.079491 0.000000 3.968544 -0.108044 0.000000 -0.301693 0.107449 0.000000 3.790098 -0.142590 0.000000 -0.158638 0.125571 0.000000 3.568894 -0.169786 0.000000 0.009542 0.132883 0.000000 3.311783 -0.181603 0.000000 0.185383 0.119195 0.000000 3.038534 -0.171970 0.000000 0.344610 0.090364 0.000000 2.762502 -0.159317 0.000000 0.486483 0.062814 0.000000 2.474775 -0.151691 0.000000 0.617777 0.030387 0.000000 2.165640 -0.131076 0.000000 0.739634 -0.029214 0.000000 1.830031 -0.074796 0.000000 0.816683 -0.322267 0.000000 
3.718707 0.116321 0.000000 0.027102 0.470665 0.000000 2.862627 -0.003705 0.000000 -0.194017 0.506065 0.000000 1.438581 0.045087 0.000000 -0.115411 -0.760528 0.000000 3.178440 -0.105500 0.000000 0.012150 -0.428468 0.000000 4.078773 -0.025154 0.000000 0.055988 -0.272969 0.000000 4.680769 -0.000804 0.000000 0.072375 -0.191898 0.000000 5.131178 0.010583 0.000000 0.090270 -0.154579 0.000000 5.475506 0.023606 0.000000 0.126337 -0.138312 0.000000 5.734881 0.031848 0.000000 0.180280 -0.125355 0.000000 5.930502 0.032323 0.000000 0.239266 -0.111377 0.000000 6.082392 0.023722 0.000000 0.297119 -0.093445 0.000000 6.199507 0.024773 0.000000 0.353023 -0.078302 0.000000 6.285017 0.032282 0.000000 0.405635 -0.070052 0.000000 6.343596 0.024548 0.000000 0.456201 -0.066144 0.000000 6.381876 0.017026 0.000000 0.503522 -0.054983 0.000000 6.406649 0.009444 0.000000 0.540964 -0.039744 0.000000 6.425790 -0.003473 0.000000 0.566363 -0.027271 0.000000 6.441345 -0.014702 0.000000 0.582557 -0.020069 0.000000 6.447026 -0.017612 0.000000 0.596534 -0.011031 0.000000 6.438884 -0.018727 0.000000 0.607150 0.001966 0.000000 6.418763 -0.019110 0.000000 0.611015 0.015829 0.000000 6.386783 -0.020565 0.000000 0.605878 0.032682 0.000000 6.343369 -0.023717 0.000000 0.589404 0.054823 0.000000 6.288663 -0.027055 0.000000 0.559956 0.081134 0.000000 6.218694 -0.029724 0.000000 0.519205 0.102380 0.000000 6.126191 -0.030229 0.000000 0.469665 0.124361 0.000000 6.006814 -0.026135 0.000000 0.417528 0.143373 0.000000 5.846901 -0.014016 0.000000 0.372284 0.160283 0.000000 5.632646 -0.004277 0.000000 0.328618 0.184877 0.000000 5.357753 0.001168 0.000000 0.272701 0.221628 0.000000 5.007224 -0.001486 0.000000 0.200303 0.276618 0.000000 4.543692 0.014040 0.000000 0.116566 0.188642 0.000000 
3.843344 0.143668 0.000000 0.196503 0.705165 0.000000 3.126856 0.295180 0.000000 -0.069080 1.065792 0.000000 1.997423 0.007096 0.000000 -0.034671 -1.452288 0.000000 3.283204 0.008857 0.000000 -0.060444 -0.744636 0.000000 4.130733 0.009869 0.000000 -0.012803 -0.488266 0.000000 4.724339 -0.003729 0.000000 0.039762 -0.365339 0.000000 5.168308 -0.006475 0.000000 0.094231 -0.301675 0.000000 5.510398 0.004395 0.000000 0.155758 -0.267447 0.000000 5.777410 0.020693 0.000000 0.220750 -0.241248 0.000000 5.987170 0.034976 0.000000 0.281740 -0.215053 0.000000 6.150699 0.045707 0.000000 0.330836 -0.190646 0.000000 6.280442 0.055192 0.000000 0.375907 -0.170692 0.000000 6.381985 0.063229 0.000000 0.422862 -0.153700 0.000000 6.456182 0.067458 0.000000 0.459043 -0.133574 0.000000 6.505251 0.066919 0.000000 0.487572 -0.109355 0.000000 6.537689 0.059035 0.000000 0.511149 -0.081860 0.000000 6.558617 0.046128 0.000000 0.526761 -0.053657 0.000000 6.568738 0.032392 0.000000 0.535728 -0.027712 0.000000 6.566025 0.020217 0.000000 0.543569 -0.002829 0.000000 6.551782 0.007090 0.000000 0.549954 0.024823 0.000000 6.526663 -0.009407 0.000000 0.553811 0.056658 0.000000 6.487271 -0.030025 0.000000 0.552653 0.093027 0.000000 6.431497 -0.053797 0.000000 0.543992 0.134197 0.000000 6.358960 -0.078596 0.000000 0.527882 0.177418 0.000000 6.268691 -0.101839 0.000000 0.505838 0.218074 0.000000 6.152968 -0.120246 0.000000 0.479912 0.252260 0.000000 6.008272 -0.129466 0.000000 0.453467 0.279108 0.000000 5.827875 -0.126727 0.000000 0.431625 0.304619 0.000000 5.601433 -0.115651 0.000000 0.410331 0.337707 0.000000 5.319415 -0.095773 0.000000 0.382538 0.380917 0.000000 4.967947 -0.058678 0.000000 0.330814 0.434318 0.000000 4.534149 0.008941 0.000000 0.249387 0.502718 0.000000 
4.122560 0.169205 0.000000 0.033582 1.187153 0.000000 3.429186 0.261878 0.000000 -0.034164 1.635498 0.000000 2.516258 0.010679 0.000000 -0.041801 -2.046309 0.000000 3.441568 -0.079727 0.000000 -0.024792 -1.275997 0.000000 4.249726 -0.072796 0.000000 0.017895 -0.866574 0.000000 4.836321 -0.053368 0.000000 0.056217 -0.635867 0.000000 5.271857 -0.043886 0.000000 0.096740 -0.496670 0.000000 5.605672 -0.037921 0.000000 0.146156 -0.405323 0.000000 5.864797 -0.033144 0.000000 0.204023 -0.335116 0.000000 6.064751 -0.028667 0.000000 0.263789 -0.274906 0.000000 6.217166 -0.025374 0.000000 0.321386 -0.223188 0.000000 6.333053 -0.020298 0.000000 0.375390 -0.179846 0.000000 6.418901 -0.014672 0.000000 0.425278 -0.144249 0.000000 6.478809 -0.011634 0.000000 0.470155 -0.115213 0.000000 6.518197 -0.011503 0.000000 0.510227 -0.087421 0.000000 6.541758 -0.014133 0.000000 0.544075 -0.060672 0.000000 6.553752 -0.019085 0.000000 0.571223 -0.037392 0.000000 6.557098 -0.023669 0.000000 0.593167 -0.017356 0.000000 6.551912 -0.025454 0.000000 0.612245 0.003211 0.000000 6.537407 -0.025111 0.000000 0.627905 0.027085 0.000000 6.513425 -0.022967 0.000000 0.636923 0.055221 0.000000 6.478847 -0.019407 0.000000 0.635117 0.088455 0.000000 6.431769 -0.015056 0.000000 0.619480 0.127361 0.000000 6.370199 -0.010945 0.000000 0.589691 0.171403 0.000000 6.290394 -0.007681 0.000000 0.548305 0.218103 0.000000 6.187334 -0.004303 0.000000 0.499487 0.269057 0.000000 6.059393 0.000310 0.000000 0.447115 0.323770 0.000000 5.899549 0.007827 0.000000 0.394120 0.386725 0.000000 5.697895 0.017016 0.000000 0.338382 0.466894 0.000000 5.443631 0.028961 0.000000 0.274981 0.573096 0.000000 5.119178 0.050237 0.000000 0.199525 0.710415 0.000000 4.695024 0.095467 0.000000 0.110041 0.879448 0.000000 
4.318158 0.220127 0.000000 0.159730 1.398539 0.000000 3.763876 0.362926 0.000000 0.081847 1.978721 0.000000 3.032616 0.014732 0.000000 0.073948 -2.377598 0.000000 3.682734 -0.008152 0.000000 0.018309 -1.552794 0.000000 4.328346 -0.032818 0.000000 0.021600 -1.074861 0.000000 4.850063 -0.042051 0.000000 0.056852 -0.800875 0.000000 5.256364 -0.046998 0.000000 0.107146 -0.635491 0.000000 5.576880 -0.045021 0.000000 0.166828 -0.526571 0.000000 5.834549 -0.037174 0.000000 0.231295 -0.441201 0.000000 6.041143 -0.024790 0.000000 0.291643 -0.367469 0.000000 6.200176 -0.011890 0.000000 0.344663 -0.306533 0.000000 6.322398 0.001188 0.000000 0.390486 -0.256540 0.000000 6.415971 0.013341 0.000000 0.429615 -0.213608 0.000000 6.485655 0.022582 0.000000 0.461490 -0.172963 0.000000 6.533628 0.026847 0.000000 0.486815 -0.132915 0.000000 6.564502 0.025187 0.000000 0.506921 -0.093854 0.000000 6.582836 0.018980 0.000000 0.522327 -0.057004 0.000000 6.591124 0.010448 0.000000 0.534000 -0.022526 0.000000 6.589926 0.001139 0.000000 0.543563 0.011676 0.000000 6.579316 -0.008570 0.000000 0.551059 0.048805 0.000000 6.558136 -0.018426 0.000000 0.555275 0.091235 0.000000 6.523563 -0.028219 0.000000 0.554095 0.140106 0.000000 6.473078 -0.038161 0.000000 0.545453 0.195767 0.000000 6.405261 -0.048807 0.000000 0.528748 0.257223 0.000000 6.318520 -0.060452 0.000000 0.505626 0.321133 0.000000 6.208457 -0.071428 0.000000 0.478121 0.380202 0.000000 6.070886 -0.077094 0.000000 0.449270 0.438953 0.000000 5.903855 -0.073731 0.000000 0.420550 0.506272 0.000000 5.702607 -0.059913 0.000000 0.389922 0.591971 0.000000 5.459525 -0.032372 0.000000 0.352548 0.705370 0.000000 5.163346 0.016778 0.000000 0.302520 0.858472 0.000000 4.795355 0.098424 0.000000 0.239074 1.075182 0.000000 
4.610505 0.248549 0.000000 0.092743 1.741435 0.000000 4.120175 0.339761 0.000000 0.081202 2.366758 0.000000 3.512664 0.018578 0.000000 0.073405 -2.696428 0.000000 3.983236 -0.024087 0.000000 0.039629 -1.921609 0.000000 4.521667 -0.076088 0.000000 0.041889 -1.388292 0.000000 4.996914 -0.088620 0.000000 0.068487 -1.042167 0.000000 5.379552 -0.094180 0.000000 0.110415 -0.817185 0.000000 5.685367 -0.097603 0.000000 0.164049 -0.662991 0.000000 5.931885 -0.097611 0.000000 0.226784 -0.541710 0.000000 6.126812 -0.089015 0.000000 0.289165 -0.433939 0.000000 6.270791 -0.078395 0.000000 0.346298 -0.345410 0.000000 6.377359 -0.066121 0.000000 0.396288 -0.273419 0.000000 6.456396 -0.053802 0.000000 0.439458 -0.213934 0.000000 6.513591 -0.043509 0.000000 0.476556 -0.163186 0.000000 6.552159 -0.036829 0.000000 0.508495 -0.118295 0.000000 6.575276 -0.034238 0.000000 0.536176 -0.079006 0.000000 6.586707 -0.034491 0.000000 0.560423 -0.045680 0.000000 6.589975 -0.035342 0.000000 0.581707 -0.016157 0.000000 6.586639 -0.035017 0.000000 0.600149 0.013822 0.000000 6.576593 -0.032608 0.000000 0.614688 0.048265 0.000000 6.558939 -0.027182 0.000000 0.622646 0.089794 0.000000 6.531372 -0.018228 0.000000 0.620375 0.138940 0.000000 6.490845 -0.006413 0.000000 0.604462 0.195178 0.000000 6.434313 0.005760 0.000000 0.573909 0.258144 0.000000 6.357025 0.015441 0.000000 0.532168 0.328166 0.000000 6.253295 0.023202 0.000000 0.483985 0.406628 0.000000 6.129937 0.029161 0.000000 0.432887 0.490802 0.000000 5.985084 0.036547 0.000000 0.380596 0.587973 0.000000 5.811917 0.047644 0.000000 0.327018 0.709976 0.000000 5.601436 0.066336 0.000000 0.270634 0.869275 0.000000 5.341251 0.100265 0.000000 0.210456 1.078406 0.000000 5.015620 0.158913 0.000000 0.148791 1.356645 0.000000 
4.850099 0.276175 0.000000 0.183543 1.888869 0.000000 4.470171 0.374467 0.000000 0.164617 2.586231 0.000000 3.987761 0.022529 0.000000 0.156963 -2.848170 0.000000 4.309361 0.025625 0.000000 0.099395 -2.091225 0.000000 4.700097 -0.035078 0.000000 0.070663 -1.550108 0.000000 5.085332 -0.068649 0.000000 0.080769 -1.183513 0.000000 5.419497 -0.088925 0.000000 0.120326 -0.941306 0.000000 5.699962 -0.098656 0.000000 0.179921 -0.773089 0.000000 5.936547 -0.099909 0.000000 0.252642 -0.636128 0.000000 6.136258 -0.087171 0.000000 0.319991 -0.511448 0.000000 6.281291 -0.069023 0.000000 0.374517 -0.413100 0.000000 6.388474 -0.048802 0.000000 0.416159 -0.335578 0.000000 6.470253 -0.029829 0.000000 0.447953 -0.270803 0.000000 6.531811 -0.014516 0.000000 0.472685 -0.211531 0.000000 6.574372 -0.005092 0.000000 0.492265 -0.156032 0.000000 6.600676 -0.002495 0.000000 0.508503 -0.105285 0.000000 6.615064 -0.005267 0.000000 0.522379 -0.060271 0.000000 6.621625 -0.010835 0.000000 0.533976 -0.019190 0.000000 6.622348 -0.017303 0.000000 0.543651 0.021722 0.000000 6.616977 -0.023109 0.000000 0.551665 0.066460 0.000000 6.603114 -0.026384 0.000000 0.557271 0.118803 0.000000 6.576169 -0.025948 0.000000 0.558219 0.180632 0.000000 6.532202 -0.022248 0.000000 0.550894 0.252299 0.000000 6.469983 -0.018255 0.000000 0.532609 0.334512 0.000000 6.389682 -0.018711 0.000000 0.505520 0.424863 0.000000 6.289186 -0.023246 0.000000 0.472172 0.503559 0.000000 6.162662 -0.025995 0.000000 0.435574 0.583805 0.000000 6.015609 -0.021441 0.000000 0.398019 0.679439 0.000000 5.849670 -0.006335 0.000000 0.360801 0.802452 0.000000 5.659881 0.024012 0.000000 0.322380 0.965555 0.000000 5.437244 0.076955 0.000000 0.279967 1.184103 0.000000 5.170616 0.160090 0.000000 0.232592 1.480297 0.000000 
5.137880 0.297598 0.000000 0.144635 2.121363 0.000000 4.820300 0.358687 0.000000 0.158165 2.849168 0.000000 4.429299 0.026231 0.000000 0.151037 -3.018028 0.000000 4.649569 0.033481 0.000000 0.104962 -2.312345 0.000000 4.948452 -0.047356 0.000000 0.078920 -1.773527 0.000000 5.271612 -0.098727 0.000000 0.084011 -1.376332 0.000000 5.568684 -0.133736 0.000000 0.118721 -1.097651 0.000000 5.827969 -0.157198 0.000000 0.178422 -0.899576 0.000000 6.049240 -0.170333 0.000000 0.258332 -0.741421 0.000000 6.237715 -0.156363 0.000000 0.333693 -0.578971 0.000000 6.360553 -0.132921 0.000000 0.389346 -0.452594 0.000000 6.447491 -0.107763 0.000000 0.430353 -0.355198 0.000000 6.514279 -0.085595 0.000000 0.462890 -0.275491 0.000000 6.565491 -0.068241 0.000000 0.489612 -0.205747 0.000000 6.600281 -0.056409 0.000000 0.512332 -0.144598 0.000000 6.620001 -0.050476 0.000000 0.533434 -0.093394 0.000000 6.628555 -0.048367 0.000000 0.554201 -0.052241 0.000000 6.630904 -0.046939 0.000000 0.573798 -0.016881 0.000000 6.629690 -0.044691 0.000000 0.591187 0.019193 0.000000 6.625153 -0.040622 0.000000 0.605445 0.062127 0.000000 6.616212 -0.032789 0.000000 0.614487 0.116740 0.000000 6.598565 -0.019176 0.000000 0.614752 0.182907 0.000000 6.567056 0.000912 0.000000 0.600963 0.257397 0.000000 6.518299 0.024046 0.000000 0.569007 0.338445 0.000000 6.445739 0.042530 0.000000 0.524024 0.428662 0.000000 6.337433 0.056550 0.000000 0.470084 0.533152 0.000000 6.220824 0.065758 0.000000 0.414299 0.637854 0.000000 6.097783 0.074103 0.000000 0.359355 0.753912 0.000000 5.962695 0.084863 0.000000 0.307577 0.899766 0.000000 5.808017 0.104756 0.000000 0.259274 1.091911 0.000000 5.624300 0.142678 0.000000 0.214011 1.345034 0.000000 5.402693 0.206288 0.000000 0.173376 1.677162 0.000000 
5.386754 0.304916 0.000000 0.212062 2.206448 0.000000 5.156426 0.360937 0.000000 0.224685 2.977233 0.000000 4.864141 0.029658 0.000000 0.218084 -3.068440 0.000000 4.985807 0.071699 0.000000 0.160547 -2.390108 0.000000 5.174844 -0.009035 0.000000 0.110474 -1.873267 0.000000 5.411651 -0.073740 0.000000 0.090966 -1.480585 0.000000 5.653926 -0.123635 0.000000 0.112505 -1.200591 0.000000 5.881582 -0.158357 0.000000 0.180378 -0.994360 0.000000 6.082391 -0.179819 0.000000 0.288580 -0.824604 0.000000 6.286255 -0.162532 0.000000 0.381646 -0.634286 0.000000 6.399538 -0.124675 0.000000 0.431428 -0.500039 0.000000 6.477593 -0.089809 0.000000 0.457799 -0.402365 0.000000 6.542541 -0.062366 0.000000 0.475202 -0.322016 0.000000 6.594484 -0.041238 0.000000 0.489335 -0.246320 0.000000 6.629181 -0.027812 0.000000 0.501406 -0.175752 0.000000 6.647723 -0.023597 0.000000 0.513338 -0.113839 0.000000 6.655727 -0.026034 0.000000 0.526005 -0.062621 0.000000 6.659475 -0.030431 0.000000 0.537027 -0.017975 0.000000 6.662229 -0.034692 0.000000 0.545204 0.026258 0.000000 6.664096 -0.037366 0.000000 0.551721 0.075400 0.000000 6.662170 -0.035426 0.000000 0.558200 0.136450 0.000000 6.647654 -0.026213 0.000000 0.564065 0.212141 0.000000 6.612432 -0.008458 0.000000 0.563986 0.301055 0.000000 6.554677 0.013700 0.000000 0.549034 0.407071 0.000000 6.478914 0.026273 0.000000 0.516003 0.533169 0.000000 6.389953 0.030695 0.000000 0.473402 0.620169 0.000000 6.269820 0.029789 0.000000 0.419106 0.706847 0.000000 6.142206 0.033504 0.000000 0.366555 0.814527 0.000000 6.018005 0.045442 0.000000 0.324534 0.957130 0.000000 5.889706 0.072315 0.000000 0.290924 1.149273 0.000000 5.746330 0.122218 0.000000 0.260981 1.405710 0.000000 5.580022 0.200725 0.000000 0.232957 1.745111 0.000000 
5.660043 0.318494 0.000000 0.186068 2.351691 0.000000 5.484238 0.346064 0.000000 0.216866 3.141453 0.000000 5.267425 0.032832 0.000000 0.211031 -3.139693 0.000000 5.321186 0.091018 0.000000 0.160720 -2.501382 0.000000 5.442341 0.002717 0.000000 0.110841 -2.010333 0.000000 5.620215 -0.079219 0.000000 0.079953 -1.618608 0.000000 5.821437 -0.155275 0.000000 0.084375 -1.325306 0.000000 6.031707 -0.225071 0.000000 0.154287 -1.100385 0.000000 6.212789 -0.278535 0.000000 0.317382 -0.945284 0.000000 6.415647 -0.249429 0.000000 0.427927 -0.692254 0.000000 6.484335 -0.182704 0.000000 0.461631 -0.530649 0.000000 6.534957 -0.134133 0.000000 0.478065 -0.420146 0.000000 6.586275 -0.102998 0.000000 0.492798 -0.327434 0.000000 6.631799 -0.082374 0.000000 0.506031 -0.240445 0.000000 6.661170 -0.068480 0.000000 0.517404 -0.163141 0.000000 6.674585 -0.062407 0.000000 0.531506 -0.101397 0.000000 6.677639 -0.061035 0.000000 0.550502 -0.055990 0.000000 6.677876 -0.057961 0.000000 0.570126 -0.019634 0.000000 6.678276 -0.052868 0.000000 0.586652 0.017325 0.000000 6.679723 -0.047139 0.000000 0.599285 0.064053 0.000000 6.683647 -0.039267 0.000000 0.608391 0.131256 0.000000 6.682137 -0.025041 0.000000 0.613888 0.218129 0.000000 6.664688 0.000991 0.000000 0.609550 0.315152 0.000000 6.627986 0.038998 0.000000 0.582122 0.414208 0.000000 6.560730 0.075561 0.000000 0.538560 0.517623 0.000000 6.425766 0.099151 0.000000 0.462307 0.653285 0.000000 6.310984 0.120055 0.000000 0.390408 0.765469 0.000000 6.214968 0.126653 0.000000 0.326680 0.878113 0.000000 6.127086 0.126884 0.000000 0.277432 1.028066 0.000000 6.036208 0.138366 0.000000 0.240827 1.235287 0.000000 5.931286 0.172620 0.000000 0.212676 1.511342 0.000000 5.806412 0.234311 0.000000 0.192330 1.870431 0.000000 
5.902083 0.311178 0.000000 0.239634 2.382253 0.000000 5.796389 0.330139 0.000000 0.274549 3.194047 0.000000 5.662721 0.035492 0.000000 0.269595 -3.122202 0.000000 5.638443 0.122010 0.000000 0.217400 -2.511263 0.000000 5.674935 0.040844 0.000000 0.147573 -2.051141 0.000000 5.776631 -0.042852 0.000000 0.073128 -1.681807 0.000000 5.928062 -0.128058 0.000000 0.017275 -1.410861 0.000000 6.120977 -0.228268 0.000000 0.068500 -1.175441 0.000000 6.268683 -0.342914 0.000000 0.393576 -1.027462 0.000000 6.528614 -0.273077 0.000000 0.531609 -0.702973 0.000000 6.547249 -0.158379 0.000000 0.527272 -0.550660 0.000000 6.573773 -0.106243 0.000000 0.510774 -0.453684 0.000000 6.624607 -0.077099 0.000000 0.502289 -0.367539 0.000000 6.671443 -0.054471 0.000000 0.504348 -0.275691 0.000000 6.697356 -0.039185 0.000000 0.508893 -0.189168 0.000000 6.704033 -0.037699 0.000000 0.517635 -0.116892 0.000000 6.702500 -0.045030 0.000000 0.533105 -0.062858 0.000000 6.701907 -0.050055 0.000000 0.546621 -0.018376 0.000000 6.705254 -0.051219 0.000000 0.551986 0.024811 0.000000 6.714827 -0.049999 0.000000 0.550112 0.071476 0.000000 6.732330 -0.044533 0.000000 0.550293 0.137961 0.000000 6.740470 -0.031710 0.000000 0.559768 0.229590 0.000000 6.721808 -0.004120 0.000000 0.577272 0.337757 0.000000 6.668981 0.041128 0.000000 0.596994 0.474327 0.000000 6.581515 0.069835 0.000000 0.563145 0.668133 0.000000 6.505766 0.106947 0.000000 0.502211 0.734951 0.000000 6.366563 0.101689 0.000000 0.390313 0.802863 0.000000 6.255717 0.097231 0.000000 0.311693 0.902408 0.000000 6.186625 0.094690 0.000000 0.273771 1.048009 0.000000 6.128811 0.108921 0.000000 0.255560 1.254194 0.000000 6.064442 0.150369 0.000000 0.244152 1.530584 0.000000 5.988830 0.221071 0.000000 0.236772 1.891480 0.000000 
6.155986 0.315632 0.000000 0.222206 2.457385 0.000000 6.096542 0.311149 0.000000 0.269076 3.275121 0.000000 6.027923 0.037786 0.000000 0.265152 -3.115415 0.000000 5.952106 0.143213 0.000000 0.227124 -2.537875 0.000000 5.937833 0.072545 0.000000 0.165781 -2.112029 0.000000 5.986186 -0.004774 0.000000 0.076230 -1.770039 0.000000 6.088963 -0.099422 0.000000 -0.058168 -1.518221 0.000000 6.280164 -0.276296 0.000000 -0.142744 -1.248092 0.000000 6.455203 -0.603611 0.000000 0.553235 -1.205215 0.000000 6.705960 -0.387462 0.000000 0.622338 -0.710889 0.000000 6.608798 -0.178367 0.000000 0.542860 -0.557173 0.000000 6.616388 -0.117636 0.000000 0.520564 -0.470979 0.000000 6.663802 -0.094512 0.000000 0.514505 -0.374270 0.000000 6.711444 -0.084434 0.000000 0.517561 -0.266358 0.000000 6.733413 -0.073025 0.000000 0.515060 -0.169818 0.000000 6.736647 -0.071150 0.000000 0.522432 -0.099864 0.000000 6.731851 -0.076504 0.000000 0.547159 -0.055397 0.000000 6.729907 -0.071477 0.000000 0.574248 -0.022981 0.000000 6.729316 -0.058233 0.000000 0.593103 0.007752 0.000000 6.732205 -0.045265 0.000000 0.598245 0.046550 0.000000 6.754526 -0.039448 0.000000 0.595148 0.123116 0.000000 6.782025 -0.034517 0.000000 0.599813 0.236790 0.000000 6.791699 -0.016512 0.000000 0.613547 0.367979 0.000000 6.786320 0.019276 0.000000 0.624662 0.501675 0.000000 6.730206 0.109410 0.000000 0.646646 0.593371 0.000000 6.478693 0.160085 0.000000 0.459012 0.792488 0.000000 6.361167 0.231952 0.000000 0.343514 0.876315 0.000000 6.311231 0.205273 0.000000 0.263317 0.947204 0.000000 6.291100 0.164806 0.000000 0.228014 1.085880 0.000000 6.273053 0.156577 0.000000 0.214407 1.299655 0.000000 6.243749 0.184029 0.000000 0.208366 1.586954 0.000000 6.203503 0.241691 0.000000 0.208425 1.957178 0.000000 
6.382856 0.297398 0.000000 0.267346 2.441697 0.000000 6.380293 0.283269 0.000000 0.321433 3.262665 0.000000 6.384189 0.039416 0.000000 0.318699 -3.046385 0.000000 6.242507 0.160038 0.000000 0.298254 -2.496989 0.000000 6.155255 0.102187 0.000000 0.248926 -2.099494 0.000000 6.120784 0.046699 0.000000 0.135534 -1.784584 0.000000 6.155721 0.006340 0.000000 -0.123289 -1.602062 0.000000 6.335352 -0.143692 0.000000 -0.398897 -1.350481 0.000000 6.525370 -1.038894 0.000000 0.597796 -1.278219 0.000000 6.865617 -0.342179 0.000000 0.670207 -0.605811 0.000000 6.630928 -0.078901 0.000000 0.512518 -0.558251 0.000000 6.623159 -0.083947 0.000000 0.466954 -0.501097 0.000000 6.696630 -0.071040 0.000000 0.440855 -0.415182 0.000000 6.756608 -0.057528 0.000000 0.466734 -0.297660 0.000000 6.771280 -0.036683 0.000000 0.484160 -0.192402 0.000000 6.757528 -0.045072 0.000000 0.503578 -0.112096 0.000000 6.742995 -0.069757 0.000000 0.537606 -0.060914 0.000000 6.739525 -0.077144 0.000000 0.565482 -0.017785 0.000000 6.739411 -0.070075 0.000000 0.574872 0.021923 0.000000 6.749217 -0.055141 0.000000 0.548386 0.049156 0.000000 6.798821 -0.041435 0.000000 0.519188 0.110461 0.000000 6.848329 -0.036375 0.000000 0.518199 0.219916 0.000000 6.864812 -0.017854 0.000000 0.515684 0.343136 0.000000 6.866130 0.030013 0.000000 0.650183 0.530442 0.000000 6.724347 0.047852 0.000000 0.758001 0.919646 0.000000 6.610858 0.294581 0.000000 0.544077 0.852476 0.000000 6.376818 0.217187 0.000000 0.265226 0.852799 0.000000 6.329867 0.177428 0.000000 0.196317 0.922539 0.000000 6.355733 0.129993 0.000000 0.203796 1.066056 0.000000 6.375045 0.122528 0.000000 0.219123 1.283498 0.000000 6.381019 0.156410 0.000000 0.231086 1.570829 0.000000 6.381604 0.221011 0.000000 0.243571 1.938997 0.000000 
6.614353 0.291856 0.000000 0.256879 2.459948 0.000000 6.650533 0.257062 0.000000 0.316824 3.271224 0.000000 6.711401 0.040520 0.000000 0.315139 -2.973732 0.000000 6.527239 0.163658 0.000000 0.315404 -2.450624 0.000000 6.400822 0.121873 0.000000 0.305235 -2.077558 0.000000 6.326600 0.108619 0.000000 0.272222 -1.804976 0.000000 6.298921 0.159400 0.000000 0.196437 -1.697852 0.000000 6.271613 -0.000687 0.000000 0.037412 -1.438110 0.000000 6.334224 -1.600304 0.000000 -0.152367 -1.545463 0.000000 6.190764 -0.459873 0.000000 -0.382612 -0.476200 0.000000 6.257245 -0.020678 0.000000 -0.252911 -0.549404 0.000000 6.347278 -0.072072 0.000000 -0.142514 -0.544450 0.000000 6.423964 -0.068414 0.000000 -0.062915 -0.434248 0.000000 6.499089 -0.110313 0.000000 0.045812 -0.281030 0.000000 6.530303 -0.090450 0.000000 0.140304 -0.156066 0.000000 6.537793 -0.090568 0.000000 0.225297 -0.085331 0.000000 6.540847 -0.110533 0.000000 0.315088 -0.051928 0.000000 6.554898 -0.099353 0.000000 0.385243 -0.022866 0.000000 6.572665 -0.067623 0.000000 0.435200 -0.002054 0.000000 6.592920 -0.018780 0.000000 0.448605 -0.003055 0.000000 6.659152 -0.010250 0.000000 0.453380 0.073608 0.000000 6.737161 -0.033528 0.000000 0.506697 0.220307 0.000000 6.779956 -0.013997 0.000000 0.569045 0.366661 0.000000 6.861752 -0.115224 0.000000 0.873635 0.643457 0.000000 6.821090 0.001592 0.000000 1.624114 0.706860 0.000000 6.546442 0.374010 0.000000 0.680653 1.026529 0.000000 6.314581 0.510804 0.000000 0.171322 0.923266 0.000000 6.383497 0.274182 0.000000 0.121271 0.921338 0.000000 6.474750 0.157327 0.000000 0.160371 1.066568 0.000000 6.525206 0.141250 0.000000 0.189642 1.293681 0.000000 6.554797 0.172066 0.000000 0.207491 1.586368 0.000000 6.581634 0.229207 0.000000 0.225295 1.955926 0.000000 