# vtk DataFile Version 2.0
Comment goes here
ASCII

DATASET STRUCTURED_POINTS
FIELD FieldData 1
TIME 1 1 double
0.04200000
DIMENSIONS    64   64   1

ORIGIN    0.000   0.000   0.000
SPACING   0.03125 0.03125   1.000

POINT_DATA   4096
VECTORS u double

0.683881 -0.012954 0.000000 -1.187347 0.005407 0.000000 0.373844 -0.008717 0.000000 -1.055691 0.005915 0.000000 0.141070 0.003929 0.000000 -0.953911 0.004668 0.000000 0.186133 -0.007688 0.000000 -0.878975 0.004420 0.000000 0.236429 -0.005695 0.000000 -0.865670 0.003333 0.000000 0.289975 -0.004335 0.000000 -0.847065 0.002027 0.000000 0.282750 -0.003188 0.000000 -0.758505 0.000569 0.000000 0.186747 -0.001596 0.000000 -0.597830 -0.001298 0.000000 0.026008 0.000426 0.000000 -0.400002 -0.002990 0.000000 -0.149717 0.001029 0.000000 -0.214769 -0.004270 0.000000 -0.296339 0.002167 0.000000 -0.070693 -0.002239 0.000000 -0.398277 0.002554 0.000000 0.030194 -0.000940 0.000000 -0.466293 0.003464 0.000000 0.106189 -0.003031 0.000000 -0.519373 0.003919 0.000000 0.171316 -0.004547 0.000000 -0.565159 0.005412 0.000000 0.227592 -0.005576 0.000000 -0.604011 0.006591 0.000000 0.272174 -0.006073 0.000000 -0.635178 0.007185 0.000000 0.305470 -0.006461 0.000000 -0.658638 0.007558 0.000000 0.325347 -0.006452 0.000000 -0.676176 0.007146 0.000000 0.346225 -0.006407 0.000000 -0.708083 0.006886 0.000000 0.379386 -0.005652 0.000000 -0.745385 0.006201 0.000000 0.403000 -0.003446 0.000000 -0.763646 0.004265 0.000000 0.398487 -0.001355 0.000000 -0.751412 0.002258 0.000000 0.365120 -0.000022 0.000000 -0.712881 0.001984 0.000000 0.305477 -0.000095 0.000000 -0.644687 0.002107 0.000000 0.211321 0.000051 0.000000 -0.545963 0.001779 0.000000 0.086859 0.000554 0.000000 -0.424615 0.000861 0.000000 -0.064267 0.001175 0.000000 -0.280802 -0.000328 0.000000 -0.240738 0.001761 0.000000 -0.117184 -0.001586 0.000000 -0.444814 0.002665 0.000000 0.068100 -0.003009 0.000000 -0.682822 0.003772 0.000000 0.276951 -0.004497 0.000000 -0.942876 0.004338 0.000000 0.478607 -0.007115 0.000000 -1.190274 0.011189 0.000000 
-0.593681 -0.011089 0.000000 0.372475 0.162498 0.000000 -0.254771 -0.070230 0.000000 0.291104 0.122610 0.000000 -0.025626 -0.064774 0.000000 0.240761 -0.016876 0.000000 -0.165710 -0.040228 0.000000 0.182724 -0.020948 0.000000 -0.262712 -0.009220 0.000000 0.167138 -0.023636 0.000000 -0.340242 -0.010956 0.000000 0.151025 0.005558 0.000000 -0.369063 -0.044608 0.000000 0.095773 0.048491 0.000000 -0.341705 -0.079250 0.000000 0.002991 0.079390 0.000000 -0.275481 -0.096429 0.000000 -0.108167 0.086107 0.000000 -0.199337 -0.089220 0.000000 -0.210383 0.072037 0.000000 -0.141072 -0.069759 0.000000 -0.288604 0.048899 0.000000 -0.103797 -0.048919 0.000000 -0.344551 0.030619 0.000000 -0.078937 -0.035985 0.000000 -0.390748 0.022843 0.000000 -0.058220 -0.028863 0.000000 -0.433220 0.018526 0.000000 -0.039641 -0.023852 0.000000 -0.469797 0.014285 0.000000 -0.022725 -0.017320 0.000000 -0.499303 0.009155 0.000000 -0.005291 -0.010478 0.000000 -0.524308 0.004385 0.000000 0.011492 -0.003328 0.000000 -0.539229 0.001234 0.000000 0.024328 -0.003593 0.000000 -0.551723 0.008466 0.000000 0.046352 -0.009881 0.000000 -0.570006 0.011544 0.000000 0.071280 -0.006120 0.000000 -0.579316 0.002538 0.000000 0.083587 0.006632 0.000000 -0.570074 -0.011072 0.000000 0.077465 0.019497 0.000000 -0.543782 -0.022454 0.000000 0.055688 0.030843 0.000000 -0.499810 -0.035734 0.000000 0.013531 0.046716 0.000000 -0.432488 -0.049613 0.000000 -0.045732 0.060567 0.000000 -0.346720 -0.059367 0.000000 -0.114305 0.072632 0.000000 -0.245952 -0.069080 0.000000 -0.190557 0.084389 0.000000 -0.133684 -0.077928 0.000000 -0.269881 0.097635 0.000000 -0.010484 -0.088048 0.000000 -0.350215 0.114278 0.000000 0.127432 -0.099478 0.000000 -0.431666 0.125541 0.000000 0.273464 -0.095755 0.000000 -0.495948 0.120423 0.000000 0.410978 -0.099047 0.000000 
0.741581 0.025549 0.000000 0.583550 -0.333503 0.000000 0.768156 0.072654 0.000000 0.487295 -0.223229 0.000000 0.585153 0.054271 0.000000 0.394668 0.144751 0.000000 0.962790 0.050349 0.000000 0.373876 0.101422 0.000000 1.187831 0.009891 0.000000 0.373851 0.080863 0.000000 1.329199 0.011778 0.000000 0.363314 0.030849 0.000000 1.466676 0.052064 0.000000 0.301432 -0.026789 0.000000 1.636038 0.091185 0.000000 0.191703 -0.067521 0.000000 1.828019 0.111584 0.000000 0.062461 -0.079135 0.000000 2.012752 0.103245 0.000000 -0.049162 -0.062535 0.000000 2.165158 0.080388 0.000000 -0.127217 -0.039513 0.000000 2.273448 0.058501 0.000000 -0.174637 -0.025801 0.000000 2.349259 0.049661 0.000000 -0.205888 -0.023749 0.000000 2.413187 0.046390 0.000000 -0.228751 -0.023126 0.000000 2.467702 0.041990 0.000000 -0.248985 -0.022491 0.000000 2.510778 0.036097 0.000000 -0.265982 -0.023508 0.000000 2.542013 0.032189 0.000000 -0.281718 -0.023244 0.000000 2.561507 0.022480 0.000000 -0.292980 -0.019288 0.000000 2.569247 0.019640 0.000000 -0.309075 -0.028430 0.000000 2.583940 0.025169 0.000000 -0.339530 -0.030580 0.000000 2.599066 0.015510 0.000000 -0.365662 -0.015753 0.000000 2.595090 -0.004977 0.000000 -0.369995 0.004766 0.000000 2.566963 -0.024034 0.000000 -0.352249 0.021755 0.000000 2.518020 -0.041988 0.000000 -0.315369 0.042061 0.000000 2.441907 -0.065215 0.000000 -0.252773 0.059314 0.000000 2.337097 -0.083989 0.000000 -0.170915 0.069128 0.000000 2.208752 -0.099907 0.000000 -0.074181 0.077427 0.000000 2.054247 -0.112596 0.000000 0.035132 0.081085 0.000000 1.873343 -0.124787 0.000000 0.159019 0.082999 0.000000 1.660410 -0.140925 0.000000 0.303562 0.085223 0.000000 1.405826 -0.150529 0.000000 0.466059 0.068620 0.000000 1.119083 -0.144629 0.000000 0.632407 0.108922 0.000000 
2.501977 0.037767 0.000000 -0.084114 0.135922 0.000000 1.733695 0.026025 0.000000 -0.112886 0.305613 0.000000 0.818231 0.027853 0.000000 -0.061171 -0.394513 0.000000 1.816357 -0.019436 0.000000 -0.034692 -0.245989 0.000000 2.418263 -0.009194 0.000000 -0.032352 -0.165004 0.000000 2.843898 -0.000419 0.000000 -0.028801 -0.131918 0.000000 3.147659 0.017274 0.000000 -0.001729 -0.120871 0.000000 3.359996 0.030480 0.000000 0.044989 -0.112591 0.000000 3.508816 0.032813 0.000000 0.099622 -0.098626 0.000000 3.619303 0.022403 0.000000 0.145270 -0.080369 0.000000 3.713343 0.008296 0.000000 0.175057 -0.059392 0.000000 3.797764 -0.001500 0.000000 0.190935 -0.045192 0.000000 3.869483 -0.004734 0.000000 0.202437 -0.041085 0.000000 3.923861 -0.006000 0.000000 0.213385 -0.035989 0.000000 3.963401 -0.003618 0.000000 0.223427 -0.028792 0.000000 3.990570 -0.000322 0.000000 0.232443 -0.022080 0.000000 4.005591 0.005257 0.000000 0.242948 -0.015109 0.000000 4.010440 0.007934 0.000000 0.249857 -0.006506 0.000000 4.009147 0.012502 0.000000 0.257205 -0.006227 0.000000 3.991624 0.020575 0.000000 0.271189 -0.003582 0.000000 3.961923 0.020012 0.000000 0.280873 0.006514 0.000000 3.929786 0.010964 0.000000 0.279574 0.017054 0.000000 3.895584 0.001751 0.000000 0.269712 0.026489 0.000000 3.853170 -0.006037 0.000000 0.253185 0.040379 0.000000 3.802890 -0.015880 0.000000 0.227235 0.055197 0.000000 3.741132 -0.021291 0.000000 0.196978 0.068978 0.000000 3.661831 -0.024102 0.000000 0.165017 0.085426 0.000000 3.562926 -0.024925 0.000000 0.132840 0.102975 0.000000 3.437552 -0.026252 0.000000 0.098281 0.124886 0.000000 3.278344 -0.030265 0.000000 0.053088 0.155105 0.000000 3.076952 -0.036957 0.000000 -0.007395 0.190988 0.000000 2.805159 -0.045924 0.000000 -0.090001 0.278456 0.000000 
2.497313 0.019662 0.000000 0.006795 0.434778 0.000000 1.903617 0.101426 0.000000 -0.046685 0.692235 0.000000 1.169761 0.002556 0.000000 -0.022570 -0.853375 0.000000 1.955359 0.023870 0.000000 -0.024162 -0.500484 0.000000 2.488674 0.007551 0.000000 -0.009840 -0.344772 0.000000 2.877569 0.008227 0.000000 0.010449 -0.272912 0.000000 3.166889 0.024992 0.000000 0.042194 -0.239126 0.000000 3.383541 0.044467 0.000000 0.081610 -0.216341 0.000000 3.548175 0.056951 0.000000 0.120863 -0.189622 0.000000 3.675583 0.057597 0.000000 0.151492 -0.156575 0.000000 3.776321 0.050602 0.000000 0.171211 -0.123934 0.000000 3.859523 0.042623 0.000000 0.183046 -0.097520 0.000000 3.926684 0.038160 0.000000 0.191121 -0.078127 0.000000 3.975549 0.035442 0.000000 0.196029 -0.062666 0.000000 4.010592 0.031948 0.000000 0.200296 -0.049660 0.000000 4.035245 0.027081 0.000000 0.204413 -0.038529 0.000000 4.050483 0.021685 0.000000 0.210385 -0.028092 0.000000 4.057972 0.015571 0.000000 0.215896 -0.017995 0.000000 4.060517 0.012292 0.000000 0.222150 -0.010908 0.000000 4.052227 0.011185 0.000000 0.232086 -0.000879 0.000000 4.034130 0.005826 0.000000 0.239827 0.016384 0.000000 4.009471 -0.003678 0.000000 0.239923 0.038968 0.000000 3.975588 -0.014172 0.000000 0.233054 0.064169 0.000000 3.928593 -0.025460 0.000000 0.220617 0.092341 0.000000 3.868930 -0.039266 0.000000 0.201228 0.121072 0.000000 3.794411 -0.053731 0.000000 0.179335 0.148429 0.000000 3.701882 -0.067947 0.000000 0.157614 0.176332 0.000000 3.590209 -0.080418 0.000000 0.137683 0.206458 0.000000 3.453689 -0.090227 0.000000 0.118564 0.242208 0.000000 3.284865 -0.095732 0.000000 0.096624 0.286615 0.000000 3.074411 -0.090046 0.000000 0.065998 0.340413 0.000000 2.804910 -0.062023 0.000000 0.015603 0.412104 0.000000 
2.583071 0.046574 0.000000 -0.069190 0.729619 0.000000 2.089800 0.079506 0.000000 -0.071648 1.039469 0.000000 1.501769 0.003737 0.000000 -0.074392 -1.180111 0.000000 2.082905 -0.017843 0.000000 -0.045760 -0.779304 0.000000 2.568993 -0.023516 0.000000 -0.027960 -0.553899 0.000000 2.939068 -0.020708 0.000000 -0.009326 -0.421238 0.000000 3.217095 -0.014472 0.000000 0.020003 -0.337523 0.000000 3.424526 -0.008936 0.000000 0.059499 -0.277225 0.000000 3.579498 -0.006440 0.000000 0.102513 -0.226034 0.000000 3.695951 -0.008226 0.000000 0.141132 -0.181106 0.000000 3.787210 -0.011422 0.000000 0.170955 -0.142594 0.000000 3.861244 -0.013335 0.000000 0.192310 -0.112354 0.000000 3.920937 -0.012809 0.000000 0.208607 -0.089949 0.000000 3.967217 -0.010909 0.000000 0.221987 -0.071032 0.000000 4.001650 -0.007884 0.000000 0.233102 -0.053445 0.000000 4.025480 -0.004440 0.000000 0.242277 -0.037317 0.000000 4.039594 -0.000715 0.000000 0.250168 -0.022598 0.000000 4.045462 0.002423 0.000000 0.256378 -0.009052 0.000000 4.044250 0.006248 0.000000 0.262483 0.002063 0.000000 4.033676 0.010639 0.000000 0.269462 0.014515 0.000000 4.014265 0.012271 0.000000 0.273636 0.031172 0.000000 3.987976 0.010868 0.000000 0.271792 0.050937 0.000000 3.954394 0.008620 0.000000 0.263374 0.073484 0.000000 3.911120 0.006401 0.000000 0.248299 0.100042 0.000000 3.856759 0.003508 0.000000 0.226001 0.129716 0.000000 3.789055 0.000603 0.000000 0.198650 0.161507 0.000000 3.706091 -0.002381 0.000000 0.167851 0.197099 0.000000 3.605973 -0.004994 0.000000 0.134318 0.239494 0.000000 3.484035 -0.007133 0.000000 0.097246 0.293711 0.000000 3.333335 -0.008324 0.000000 0.054425 0.365559 0.000000 3.143949 -0.006331 0.000000 0.005618 0.460489 0.000000 2.899820 0.004471 0.000000 -0.045037 0.586053 0.000000 
2.678463 0.043815 0.000000 0.014327 0.928049 0.000000 2.289757 0.103883 0.000000 -0.008248 1.280266 0.000000 1.826434 0.005300 0.000000 -0.011207 -1.434511 0.000000 2.265836 -0.004761 0.000000 -0.006289 -0.986572 0.000000 2.663616 -0.010248 0.000000 0.004871 -0.714847 0.000000 2.984509 -0.010408 0.000000 0.024187 -0.550940 0.000000 3.237386 -0.004337 0.000000 0.052529 -0.446557 0.000000 3.436730 0.004972 0.000000 0.087090 -0.371313 0.000000 3.594981 0.013937 0.000000 0.121495 -0.306075 0.000000 3.717947 0.018978 0.000000 0.150187 -0.247834 0.000000 3.813146 0.020778 0.000000 0.171088 -0.197968 0.000000 3.888553 0.021268 0.000000 0.185049 -0.157212 0.000000 3.948517 0.021862 0.000000 0.194243 -0.124407 0.000000 3.994546 0.022063 0.000000 0.200280 -0.097099 0.000000 4.028496 0.020833 0.000000 0.204968 -0.073490 0.000000 4.052069 0.017906 0.000000 0.209593 -0.052643 0.000000 4.066359 0.013793 0.000000 0.215076 -0.033960 0.000000 4.072816 0.009361 0.000000 0.220938 -0.016783 0.000000 4.072785 0.006187 0.000000 0.227049 -0.000334 0.000000 4.065368 0.004206 0.000000 0.233151 0.018532 0.000000 4.050691 0.001652 0.000000 0.236790 0.042673 0.000000 4.028923 -0.001834 0.000000 0.235651 0.072551 0.000000 3.998014 -0.005754 0.000000 0.228939 0.107443 0.000000 3.955171 -0.010386 0.000000 0.216227 0.146702 0.000000 3.898847 -0.016969 0.000000 0.197232 0.188776 0.000000 3.827140 -0.026380 0.000000 0.175018 0.231393 0.000000 3.739489 -0.037148 0.000000 0.152651 0.276450 0.000000 3.636052 -0.046885 0.000000 0.131637 0.328396 0.000000 3.513518 -0.053154 0.000000 0.111509 0.392908 0.000000 3.365861 -0.052912 0.000000 0.090130 0.476002 0.000000 3.185156 -0.041238 0.000000 0.064802 0.584542 0.000000 2.960723 -0.011368 0.000000 0.034222 0.728853 0.000000 
2.825368 0.066469 0.000000 -0.030426 1.118325 0.000000 2.504400 0.102080 0.000000 -0.037823 1.502792 0.000000 2.132812 0.006696 0.000000 -0.040857 -1.619513 0.000000 2.457948 -0.022761 0.000000 -0.029448 -1.177085 0.000000 2.790226 -0.034676 0.000000 -0.014384 -0.874792 0.000000 3.075326 -0.040023 0.000000 0.005998 -0.674116 0.000000 3.306343 -0.042814 0.000000 0.035116 -0.536866 0.000000 3.490797 -0.043497 0.000000 0.071924 -0.435476 0.000000 3.637820 -0.040845 0.000000 0.110397 -0.349000 0.000000 3.748737 -0.036918 0.000000 0.145305 -0.276306 0.000000 3.832810 -0.032323 0.000000 0.173271 -0.218001 0.000000 3.898745 -0.027296 0.000000 0.194333 -0.172317 0.000000 3.951595 -0.022003 0.000000 0.210216 -0.135979 0.000000 3.993586 -0.016946 0.000000 0.222455 -0.104983 0.000000 4.025449 -0.012571 0.000000 0.232251 -0.077017 0.000000 4.047518 -0.009065 0.000000 0.240568 -0.051607 0.000000 4.060228 -0.006198 0.000000 0.248123 -0.029055 0.000000 4.064759 -0.003439 0.000000 0.254983 -0.009020 0.000000 4.062331 0.000137 0.000000 0.261110 0.009479 0.000000 4.053199 0.004538 0.000000 0.265904 0.029193 0.000000 4.037864 0.008632 0.000000 0.267572 0.052940 0.000000 4.016478 0.012007 0.000000 0.264430 0.081846 0.000000 3.987673 0.015333 0.000000 0.255273 0.116326 0.000000 3.948911 0.019113 0.000000 0.238819 0.156366 0.000000 3.897833 0.022503 0.000000 0.214478 0.201423 0.000000 3.832108 0.022817 0.000000 0.185668 0.249157 0.000000 3.753536 0.019985 0.000000 0.154896 0.300537 0.000000 3.662710 0.016020 0.000000 0.123314 0.362027 0.000000 3.556472 0.012995 0.000000 0.090827 0.441368 0.000000 3.428826 0.013055 0.000000 0.056752 0.546264 0.000000 3.271765 0.018996 0.000000 0.021572 0.684921 0.000000 3.075020 0.035052 0.000000 -0.010961 0.868314 0.000000 
2.965270 0.063279 0.000000 0.027423 1.249017 0.000000 2.715386 0.111281 0.000000 0.013810 1.651854 0.000000 2.431487 0.008334 0.000000 0.010887 -1.759647 0.000000 2.667644 -0.016170 0.000000 0.011300 -1.318851 0.000000 2.923820 -0.025312 0.000000 0.017840 -0.999946 0.000000 3.158074 -0.030790 0.000000 0.033223 -0.781957 0.000000 3.359118 -0.033455 0.000000 0.059232 -0.631012 0.000000 3.529748 -0.031836 0.000000 0.094330 -0.518335 0.000000 3.675368 -0.024536 0.000000 0.130410 -0.416992 0.000000 3.786591 -0.015930 0.000000 0.159800 -0.331907 0.000000 3.868764 -0.007188 0.000000 0.180400 -0.263903 0.000000 3.932312 0.000205 0.000000 0.193560 -0.210062 0.000000 3.983438 0.005980 0.000000 0.201481 -0.166398 0.000000 4.024505 0.009823 0.000000 0.206141 -0.128962 0.000000 4.055797 0.011038 0.000000 0.209653 -0.095559 0.000000 4.077319 0.009589 0.000000 0.213696 -0.065353 0.000000 4.089381 0.006239 0.000000 0.219094 -0.038492 0.000000 4.093757 0.002501 0.000000 0.225443 -0.014355 0.000000 4.092254 0.000059 0.000000 0.231609 0.008798 0.000000 4.085763 -0.000588 0.000000 0.236246 0.033868 0.000000 4.074630 -0.000016 0.000000 0.237995 0.064058 0.000000 4.057790 0.001309 0.000000 0.236123 0.101356 0.000000 4.032557 0.003402 0.000000 0.229931 0.146205 0.000000 3.995307 0.006069 0.000000 0.217558 0.197781 0.000000 3.943407 0.007372 0.000000 0.196437 0.254501 0.000000 3.874749 0.002430 0.000000 0.170052 0.309965 0.000000 3.792259 -0.006375 0.000000 0.144185 0.367276 0.000000 3.701070 -0.015304 0.000000 0.121575 0.434634 0.000000 3.599271 -0.020667 0.000000 0.101889 0.520554 0.000000 3.481367 -0.018837 0.000000 0.083202 0.633063 0.000000 3.341054 -0.006058 0.000000 0.063726 0.781287 0.000000 3.171607 0.021165 0.000000 0.043644 0.978505 0.000000 
3.128697 0.082690 0.000000 -0.004152 1.368208 0.000000 2.930925 0.115693 0.000000 -0.010326 1.786691 0.000000 2.712722 0.009620 0.000000 -0.013031 -1.855670 0.000000 2.876946 -0.023174 0.000000 -0.010732 -1.433261 0.000000 3.075678 -0.041217 0.000000 -0.001754 -1.109046 0.000000 3.269944 -0.055406 0.000000 0.015464 -0.875159 0.000000 3.443632 -0.068823 0.000000 0.044132 -0.707496 0.000000 3.596042 -0.078595 0.000000 0.083697 -0.581096 0.000000 3.731686 -0.076925 0.000000 0.125154 -0.460223 0.000000 3.828274 -0.066308 0.000000 0.159904 -0.358479 0.000000 3.896834 -0.052923 0.000000 0.185358 -0.281549 0.000000 3.949633 -0.040456 0.000000 0.203550 -0.223443 0.000000 3.993072 -0.029924 0.000000 0.216440 -0.177045 0.000000 4.029477 -0.021606 0.000000 0.225455 -0.136275 0.000000 4.058091 -0.016084 0.000000 0.232435 -0.098539 0.000000 4.077860 -0.013108 0.000000 0.239036 -0.063669 0.000000 4.088169 -0.011596 0.000000 0.246264 -0.033432 0.000000 4.090560 -0.009787 0.000000 0.253951 -0.007517 0.000000 4.087100 -0.006030 0.000000 0.260800 0.015971 0.000000 4.079331 -0.000099 0.000000 0.265219 0.040326 0.000000 4.068320 0.006882 0.000000 0.265973 0.069780 0.000000 4.053479 0.013878 0.000000 0.262554 0.107079 0.000000 4.032139 0.021525 0.000000 0.254005 0.153577 0.000000 4.000066 0.031486 0.000000 0.237301 0.208266 0.000000 3.953227 0.043624 0.000000 0.208474 0.270081 0.000000 3.887125 0.049203 0.000000 0.174711 0.331648 0.000000 3.812386 0.045852 0.000000 0.141334 0.391726 0.000000 3.734332 0.038629 0.000000 0.110775 0.463826 0.000000 3.650013 0.032682 0.000000 0.082842 0.559272 0.000000 3.553232 0.031742 0.000000 0.056466 0.686578 0.000000 3.437695 0.038473 0.000000 0.031576 0.854368 0.000000 3.297717 0.055134 0.000000 0.010232 1.074651 0.000000 
3.282597 0.077664 0.000000 0.038970 1.446788 0.000000 3.138829 0.117455 0.000000 0.031889 1.870058 0.000000 2.986007 0.011038 0.000000 0.029421 -1.923871 0.000000 3.087837 -0.018469 0.000000 0.024879 -1.517584 0.000000 3.226182 -0.034290 0.000000 0.025241 -1.194212 0.000000 3.373457 -0.048008 0.000000 0.033993 -0.955645 0.000000 3.515818 -0.062123 0.000000 0.057148 -0.783422 0.000000 3.652477 -0.071400 0.000000 0.099106 -0.653979 0.000000 3.790388 -0.065993 0.000000 0.149666 -0.513580 0.000000 3.883929 -0.050680 0.000000 0.182219 -0.400467 0.000000 3.942940 -0.032642 0.000000 0.200046 -0.316703 0.000000 3.988395 -0.017987 0.000000 0.209085 -0.253500 0.000000 4.028051 -0.006910 0.000000 0.212669 -0.202804 0.000000 4.063476 0.000808 0.000000 0.213132 -0.157576 0.000000 4.092047 0.004058 0.000000 0.213496 -0.115327 0.000000 4.111375 0.002989 0.000000 0.216324 -0.075662 0.000000 4.119936 -0.000989 0.000000 0.222336 -0.040883 0.000000 4.120874 -0.005186 0.000000 0.230416 -0.010894 0.000000 4.117193 -0.006790 0.000000 0.237886 0.016567 0.000000 4.111277 -0.005007 0.000000 0.241955 0.044879 0.000000 4.104644 -0.000770 0.000000 0.241818 0.078899 0.000000 4.095471 0.004728 0.000000 0.239276 0.122696 0.000000 4.079946 0.011952 0.000000 0.235437 0.178278 0.000000 4.051454 0.022772 0.000000 0.227174 0.244620 0.000000 4.004106 0.036199 0.000000 0.203853 0.320602 0.000000 3.933775 0.036193 0.000000 0.165588 0.384704 0.000000 3.852156 0.027002 0.000000 0.131077 0.445330 0.000000 3.776041 0.015255 0.000000 0.106321 0.518954 0.000000 3.700729 0.007266 0.000000 0.088846 0.617335 0.000000 3.618274 0.007539 0.000000 0.074784 0.748600 0.000000 3.523063 0.018832 0.000000 0.061734 0.921265 0.000000 3.411676 0.042508 0.000000 0.049397 1.147526 0.000000 
3.445985 0.093116 0.000000 0.015218 1.511976 0.000000 3.344493 0.122774 0.000000 0.012069 1.939514 0.000000 3.242450 0.012087 0.000000 0.009910 -1.957500 0.000000 3.293799 -0.018632 0.000000 0.005242 -1.571606 0.000000 3.385687 -0.041579 0.000000 0.005765 -1.256321 0.000000 3.495383 -0.064158 0.000000 0.014707 -1.017520 0.000000 3.609068 -0.091978 0.000000 0.040342 -0.844156 0.000000 3.726336 -0.120553 0.000000 0.089420 -0.719006 0.000000 3.863986 -0.127485 0.000000 0.153022 -0.553765 0.000000 3.935543 -0.098861 0.000000 0.188160 -0.417490 0.000000 3.977034 -0.070751 0.000000 0.207701 -0.327004 0.000000 4.010285 -0.049495 0.000000 0.219992 -0.263100 0.000000 4.041584 -0.033508 0.000000 0.227131 -0.212469 0.000000 4.072424 -0.022070 0.000000 0.230166 -0.164846 0.000000 4.098521 -0.016447 0.000000 0.232211 -0.117867 0.000000 4.116607 -0.015936 0.000000 0.236300 -0.072231 0.000000 4.123602 -0.017608 0.000000 0.243911 -0.034370 0.000000 4.122413 -0.017866 0.000000 0.254010 -0.003836 0.000000 4.116656 -0.013500 0.000000 0.263235 0.021886 0.000000 4.109246 -0.004168 0.000000 0.268138 0.046959 0.000000 4.103022 0.007020 0.000000 0.267593 0.078953 0.000000 4.097520 0.016421 0.000000 0.264030 0.122604 0.000000 4.088597 0.025364 0.000000 0.258959 0.182068 0.000000 4.068206 0.039749 0.000000 0.247515 0.255614 0.000000 4.026835 0.066944 0.000000 0.211956 0.340413 0.000000 3.947775 0.087468 0.000000 0.164929 0.413266 0.000000 3.872187 0.080364 0.000000 0.123629 0.467841 0.000000 3.810943 0.063385 0.000000 0.093361 0.539138 0.000000 3.754889 0.050157 0.000000 0.071017 0.641727 0.000000 3.694287 0.045804 0.000000 0.052739 0.781788 0.000000 3.623640 0.051522 0.000000 0.036889 0.965756 0.000000 3.540697 0.067471 0.000000 0.023984 1.203730 0.000000 
3.600439 0.086430 0.000000 0.048918 1.548280 0.000000 3.542015 0.120604 0.000000 0.047192 1.972100 0.000000 3.490761 0.013197 0.000000 0.045352 -1.975220 0.000000 3.494292 -0.013802 0.000000 0.035810 -1.609472 0.000000 3.537228 -0.034813 0.000000 0.027015 -1.303907 0.000000 3.603818 -0.056950 0.000000 0.021634 -1.069330 0.000000 3.685193 -0.087758 0.000000 0.031613 -0.900690 0.000000 3.787494 -0.120479 0.000000 0.081408 -0.791630 0.000000 3.951400 -0.129595 0.000000 0.198995 -0.585136 0.000000 4.013752 -0.085818 0.000000 0.224980 -0.441959 0.000000 4.030731 -0.052183 0.000000 0.231614 -0.349954 0.000000 4.050442 -0.030278 0.000000 0.231922 -0.284799 0.000000 4.076602 -0.014049 0.000000 0.227004 -0.233643 0.000000 4.108244 -0.002227 0.000000 0.219413 -0.183673 0.000000 4.136374 0.002012 0.000000 0.213691 -0.133414 0.000000 4.155245 -0.001101 0.000000 0.215368 -0.082658 0.000000 4.158394 -0.008600 0.000000 0.224200 -0.039694 0.000000 4.153575 -0.015285 0.000000 0.236959 -0.005136 0.000000 4.145401 -0.016015 0.000000 0.248549 0.023977 0.000000 4.138181 -0.009910 0.000000 0.252090 0.051103 0.000000 4.136897 -0.000225 0.000000 0.246476 0.084401 0.000000 4.139118 0.008291 0.000000 0.240520 0.131618 0.000000 4.140990 0.017023 0.000000 0.240889 0.198670 0.000000 4.130919 0.034217 0.000000 0.248544 0.285991 0.000000 4.089094 0.071757 0.000000 0.239633 0.399662 0.000000 3.995348 0.083220 0.000000 0.159189 0.460292 0.000000 3.903125 0.068303 0.000000 0.105250 0.506573 0.000000 3.849663 0.045523 0.000000 0.081097 0.575008 0.000000 3.808828 0.029610 0.000000 0.070578 0.677937 0.000000 3.765951 0.025816 0.000000 0.064249 0.819246 0.000000 3.716572 0.034683 0.000000 0.058645 1.004208 0.000000 3.660584 0.055413 0.000000 0.053325 1.242238 0.000000 
3.756499 0.097523 0.000000 0.030543 1.570400 0.000000 3.733064 0.124500 0.000000 0.031445 1.990768 0.000000 3.722669 0.013927 0.000000 0.029974 -1.961032 0.000000 3.687525 -0.009089 0.000000 0.020006 -1.614542 0.000000 3.692487 -0.032784 0.000000 0.009301 -1.322911 0.000000 3.725431 -0.058777 0.000000 -0.000784 -1.098895 0.000000 3.778618 -0.101956 0.000000 0.003777 -0.946456 0.000000 3.859627 -0.170348 0.000000 0.051477 -0.882912 0.000000 4.060259 -0.245073 0.000000 0.233156 -0.616117 0.000000 4.068485 -0.124845 0.000000 0.233944 -0.434468 0.000000 4.066310 -0.077385 0.000000 0.239364 -0.346715 0.000000 4.073833 -0.049803 0.000000 0.243418 -0.289260 0.000000 4.090813 -0.028590 0.000000 0.241465 -0.244111 0.000000 4.118899 -0.014478 0.000000 0.234458 -0.192976 0.000000 4.145453 -0.010726 0.000000 0.228038 -0.136737 0.000000 4.164831 -0.017613 0.000000 0.228844 -0.075379 0.000000 4.167366 -0.026441 0.000000 0.239743 -0.029552 0.000000 4.159948 -0.030625 0.000000 0.256026 0.004338 0.000000 4.149036 -0.025091 0.000000 0.271292 0.029106 0.000000 4.138827 -0.007709 0.000000 0.277328 0.048244 0.000000 4.136595 0.012633 0.000000 0.270686 0.076732 0.000000 4.144343 0.022377 0.000000 0.263256 0.120732 0.000000 4.157376 0.024995 0.000000 0.263998 0.192139 0.000000 4.164656 0.032094 0.000000 0.276836 0.297440 0.000000 4.139253 0.075855 0.000000 0.244125 0.434158 0.000000 3.993727 0.167912 0.000000 0.151477 0.505489 0.000000 3.912903 0.134303 0.000000 0.091119 0.521303 0.000000 3.882043 0.087538 0.000000 0.064881 0.579973 0.000000 3.864005 0.060676 0.000000 0.053224 0.684604 0.000000 3.843208 0.052133 0.000000 0.045558 0.831167 0.000000 3.816901 0.057126 0.000000 0.038922 1.021744 0.000000 3.786696 0.072792 0.000000 0.033598 1.263875 0.000000 
3.904630 0.089485 0.000000 0.058202 1.571716 0.000000 3.916096 0.119701 0.000000 0.061994 1.982495 0.000000 3.946318 0.014668 0.000000 0.060912 -1.940075 0.000000 3.872837 -0.003833 0.000000 0.049505 -1.614434 0.000000 3.836198 -0.024108 0.000000 0.032065 -1.336852 0.000000 3.825059 -0.046865 0.000000 0.002290 -1.122516 0.000000 3.833926 -0.092319 0.000000 -0.042826 -0.981699 0.000000 3.891156 -0.168179 0.000000 -0.076765 -0.992262 0.000000 4.211372 -0.311274 0.000000 0.360869 -0.593363 0.000000 4.167219 -0.086606 0.000000 0.268641 -0.439783 0.000000 4.114772 -0.057603 0.000000 0.258026 -0.357477 0.000000 4.105113 -0.034332 0.000000 0.251586 -0.301780 0.000000 4.117802 -0.012096 0.000000 0.233130 -0.261730 0.000000 4.153418 0.004780 0.000000 0.215008 -0.210226 0.000000 4.186648 0.008433 0.000000 0.198815 -0.152792 0.000000 4.211079 -0.001907 0.000000 0.203167 -0.085193 0.000000 4.204272 -0.019499 0.000000 0.222737 -0.032276 0.000000 4.189366 -0.031569 0.000000 0.245290 0.005776 0.000000 4.172649 -0.031281 0.000000 0.268740 0.034186 0.000000 4.159054 -0.015946 0.000000 0.272768 0.053334 0.000000 4.162410 0.006416 0.000000 0.248590 0.076654 0.000000 4.180086 0.015721 0.000000 0.230732 0.118585 0.000000 4.210901 0.016281 0.000000 0.228477 0.191390 0.000000 4.252249 0.021379 0.000000 0.257801 0.311394 0.000000 4.249668 0.104468 0.000000 0.406350 0.545187 0.000000 4.015654 0.175868 0.000000 0.114227 0.541117 0.000000 3.913885 0.128660 0.000000 0.040175 0.537433 0.000000 3.915021 0.071760 0.000000 0.038918 0.593045 0.000000 3.920547 0.041268 0.000000 0.047048 0.698735 0.000000 3.918529 0.033482 0.000000 0.052739 0.845553 0.000000 3.912049 0.041319 0.000000 0.055504 1.034413 0.000000 3.905649 0.060738 0.000000 0.056831 1.272434 0.000000 
4.049603 0.096152 0.000000 0.044118 1.558934 0.000000 4.090097 0.120709 0.000000 0.050332 1.960547 0.000000 4.153894 0.015009 0.000000 0.049667 -1.887551 0.000000 4.048455 0.002317 0.000000 0.039921 -1.577903 0.000000 3.978912 -0.015344 0.000000 0.022855 -1.311772 0.000000 3.935609 -0.029001 0.000000 -0.012299 -1.107762 0.000000 3.914753 -0.056840 0.000000 -0.078228 -1.003686 0.000000 3.935459 -0.136410 0.000000 -0.112986 -1.203129 0.000000 4.114948 -0.682706 0.000000 0.107889 -0.571964 0.000000 4.048646 -0.032618 0.000000 0.031400 -0.382022 0.000000 4.037922 -0.066769 0.000000 0.058285 -0.337056 0.000000 4.031544 -0.043362 0.000000 0.078120 -0.301949 0.000000 4.040052 -0.010135 0.000000 0.084262 -0.279727 0.000000 4.071598 0.003643 0.000000 0.088070 -0.226206 0.000000 4.101439 0.005467 0.000000 0.092717 -0.161169 0.000000 4.124265 -0.021965 0.000000 0.111973 -0.068572 0.000000 4.118480 -0.046010 0.000000 0.144696 -0.014646 0.000000 4.104737 -0.053178 0.000000 0.178012 0.021055 0.000000 4.092391 -0.048541 0.000000 0.210958 0.042700 0.000000 4.083556 -0.011737 0.000000 0.224241 0.044887 0.000000 4.090136 0.036811 0.000000 0.205732 0.059057 0.000000 4.116205 0.040236 0.000000 0.198166 0.089917 0.000000 4.159484 0.027250 0.000000 0.212535 0.150791 0.000000 4.234550 0.002770 0.000000 0.294217 0.300022 0.000000 4.310213 -0.072693 0.000000 0.555463 0.668172 0.000000 3.938984 0.460035 0.000000 0.093267 0.607258 0.000000 3.902558 0.208354 0.000000 0.010158 0.520167 0.000000 3.948280 0.088795 0.000000 0.017524 0.574447 0.000000 3.978867 0.052545 0.000000 0.030339 0.686623 0.000000 3.996283 0.046443 0.000000 0.037225 0.837646 0.000000 4.009516 0.054360 0.000000 0.040003 1.028144 0.000000 4.025223 0.071465 0.000000 0.041575 1.264893 0.000000 