# vtk DataFile Version 2.0
Comment goes here
ASCII

DATASET STRUCTURED_POINTS
FIELD FieldData 1
TIME 1 1 double
0.04500000
DIMENSIONS    64   64   1

ORIGIN    0.000   0.000   0.000
SPACING   0.03125 0.03125   1.000

POINT_DATA   4096
VECTORS u double

0.741879 -0.015730 0.000000 -1.278426 0.002254 0.000000 0.411997 -0.006381 0.000000 -1.170423 0.004343 0.000000 0.203418 0.005660 0.000000 -1.105671 0.002783 0.000000 0.303764 -0.006277 0.000000 -1.052204 0.003068 0.000000 0.349258 -0.004710 0.000000 -0.981790 0.002486 0.000000 0.317085 -0.003701 0.000000 -0.858286 0.001374 0.000000 0.218852 -0.002513 0.000000 -0.702390 -0.000114 0.000000 0.089519 -0.000996 0.000000 -0.536747 -0.001925 0.000000 -0.048081 0.000913 0.000000 -0.378496 -0.003875 0.000000 -0.172060 0.001372 0.000000 -0.248337 -0.004888 0.000000 -0.265031 0.002276 0.000000 -0.150808 -0.002601 0.000000 -0.330371 0.003054 0.000000 -0.076149 -0.000831 0.000000 -0.380175 0.003559 0.000000 -0.013848 -0.001949 0.000000 -0.427485 0.002111 0.000000 0.057626 -0.002682 0.000000 -0.499661 0.003534 0.000000 0.161007 -0.003708 0.000000 -0.606297 0.005402 0.000000 0.287924 -0.004815 0.000000 -0.730966 0.006776 0.000000 0.421981 -0.005904 0.000000 -0.859463 0.007557 0.000000 0.545757 -0.006246 0.000000 -0.969720 0.007144 0.000000 0.631770 -0.006047 0.000000 -1.030023 0.006534 0.000000 0.653106 -0.005502 0.000000 -1.021844 0.007027 0.000000 0.605250 -0.004678 0.000000 -0.955026 0.006527 0.000000 0.506952 -0.003718 0.000000 -0.845054 0.005257 0.000000 0.374434 -0.002771 0.000000 -0.713185 0.005006 0.000000 0.233472 -0.002285 0.000000 -0.589162 0.004411 0.000000 0.108929 -0.001508 0.000000 -0.486921 0.002951 0.000000 -0.001076 -0.000009 0.000000 -0.389591 0.001157 0.000000 -0.132027 0.001341 0.000000 -0.254774 -0.000847 0.000000 -0.319539 0.002754 0.000000 -0.068398 -0.002917 0.000000 -0.556086 0.004381 0.000000 0.141842 -0.005115 0.000000 -0.806001 0.006134 0.000000 0.338203 -0.007083 0.000000 -1.037212 0.007162 0.000000 0.497107 -0.010095 0.000000 -1.253637 0.018337 0.000000 
-0.603248 0.004419 0.000000 0.341097 0.170258 0.000000 -0.209256 -0.056037 0.000000 0.260536 0.107969 0.000000 0.021393 -0.044427 0.000000 0.228494 -0.045614 0.000000 -0.166312 -0.028588 0.000000 0.190663 -0.018970 0.000000 -0.279161 -0.037460 0.000000 0.153615 0.018998 0.000000 -0.322850 -0.063183 0.000000 0.089919 0.050845 0.000000 -0.316229 -0.078069 0.000000 0.011347 0.064867 0.000000 -0.285443 -0.081322 0.000000 -0.071833 0.067240 0.000000 -0.243350 -0.075935 0.000000 -0.153072 0.059310 0.000000 -0.203422 -0.060222 0.000000 -0.221172 0.043668 0.000000 -0.178171 -0.044598 0.000000 -0.272627 0.028629 0.000000 -0.162824 -0.034347 0.000000 -0.312681 0.020001 0.000000 -0.151532 -0.028821 0.000000 -0.344994 0.019881 0.000000 -0.142936 -0.032139 0.000000 -0.381603 0.032283 0.000000 -0.120500 -0.047879 0.000000 -0.434441 0.048757 0.000000 -0.077941 -0.059512 0.000000 -0.496712 0.056965 0.000000 -0.025661 -0.062441 0.000000 -0.560192 0.058127 0.000000 0.031789 -0.056586 0.000000 -0.619348 0.048910 0.000000 0.084849 -0.037868 0.000000 -0.659557 0.025217 0.000000 0.113722 -0.006662 0.000000 -0.663891 -0.008252 0.000000 0.107712 0.026968 0.000000 -0.631888 -0.038212 0.000000 0.075701 0.051971 0.000000 -0.576912 -0.059284 0.000000 0.024230 0.068572 0.000000 -0.505072 -0.069455 0.000000 -0.038111 0.072042 0.000000 -0.428404 -0.065012 0.000000 -0.094561 0.063430 0.000000 -0.361843 -0.053455 0.000000 -0.134054 0.055660 0.000000 -0.306952 -0.049979 0.000000 -0.163632 0.064979 0.000000 -0.243131 -0.066799 0.000000 -0.208363 0.091634 0.000000 -0.147972 -0.090400 0.000000 -0.276375 0.114268 0.000000 -0.026831 -0.100163 0.000000 -0.349041 0.119181 0.000000 0.100099 -0.091427 0.000000 -0.404296 0.108648 0.000000 0.216708 -0.071295 0.000000 -0.432636 0.101374 0.000000 0.339566 -0.117003 0.000000 
0.816658 -0.017261 0.000000 0.580094 -0.391738 0.000000 0.858539 0.074180 0.000000 0.499086 -0.226306 0.000000 0.632327 0.037703 0.000000 0.435395 0.190488 0.000000 1.005149 0.031554 0.000000 0.448159 0.115918 0.000000 1.246340 0.032337 0.000000 0.416770 0.046174 0.000000 1.457387 0.059995 0.000000 0.336232 -0.005247 0.000000 1.662263 0.076058 0.000000 0.233081 -0.030900 0.000000 1.853422 0.082184 0.000000 0.126471 -0.044018 0.000000 2.027174 0.082152 0.000000 0.029984 -0.043803 0.000000 2.175552 0.069472 0.000000 -0.039676 -0.030139 0.000000 2.292222 0.053732 0.000000 -0.082561 -0.017948 0.000000 2.376635 0.043108 0.000000 -0.110141 -0.012123 0.000000 2.438350 0.035871 0.000000 -0.127852 -0.010545 0.000000 2.492507 0.038720 0.000000 -0.145604 -0.025118 0.000000 2.558226 0.056371 0.000000 -0.188090 -0.046268 0.000000 2.640440 0.067674 0.000000 -0.250239 -0.057094 0.000000 2.726345 0.070256 0.000000 -0.321954 -0.063355 0.000000 2.809345 0.066713 0.000000 -0.395271 -0.059306 0.000000 2.876988 0.047353 0.000000 -0.451113 -0.034920 0.000000 2.908309 0.010868 0.000000 -0.468819 0.000508 0.000000 2.890016 -0.024977 0.000000 -0.445723 0.027333 0.000000 2.830409 -0.048449 0.000000 -0.392102 0.047752 0.000000 2.741925 -0.066582 0.000000 -0.315177 0.059570 0.000000 2.635712 -0.071662 0.000000 -0.233224 0.054165 0.000000 2.529982 -0.062151 0.000000 -0.164574 0.037985 0.000000 2.434671 -0.051939 0.000000 -0.110527 0.029569 0.000000 2.335753 -0.062665 0.000000 -0.045272 0.046072 0.000000 2.197627 -0.096006 0.000000 0.058693 0.070766 0.000000 2.005819 -0.124058 0.000000 0.194731 0.077048 0.000000 1.777294 -0.132046 0.000000 0.335621 0.061389 0.000000 1.532770 -0.123692 0.000000 0.464575 0.035502 0.000000 1.273442 -0.132952 0.000000 0.604776 0.188949 0.000000 
2.711836 0.029101 0.000000 -0.074762 0.128378 0.000000 1.861499 0.024972 0.000000 -0.108789 0.334180 0.000000 0.895042 0.019264 0.000000 -0.073327 -0.418435 0.000000 1.994023 -0.041352 0.000000 -0.056897 -0.260161 0.000000 2.642080 -0.006071 0.000000 -0.040095 -0.192048 0.000000 3.068999 0.017355 0.000000 -0.005237 -0.154031 0.000000 3.367919 0.025082 0.000000 0.037574 -0.126292 0.000000 3.591463 0.025287 0.000000 0.082069 -0.106511 0.000000 3.763267 0.020552 0.000000 0.125304 -0.089068 0.000000 3.899135 0.009439 0.000000 0.159086 -0.073003 0.000000 4.013592 -0.001714 0.000000 0.181818 -0.055784 0.000000 4.110377 -0.006767 0.000000 0.196808 -0.041714 0.000000 4.190232 -0.011110 0.000000 0.204843 -0.034276 0.000000 4.255758 -0.014388 0.000000 0.211743 -0.033435 0.000000 4.299285 -0.005393 0.000000 0.228389 -0.033458 0.000000 4.318688 0.002637 0.000000 0.251304 -0.028940 0.000000 4.322210 0.009274 0.000000 0.277346 -0.024874 0.000000 4.310941 0.016731 0.000000 0.306014 -0.018732 0.000000 4.288887 0.017974 0.000000 0.328879 -0.006104 0.000000 4.267634 0.011045 0.000000 0.335072 0.010041 0.000000 4.253166 0.003871 0.000000 0.324900 0.021396 0.000000 4.238249 -0.001650 0.000000 0.305470 0.029200 0.000000 4.218992 -0.008353 0.000000 0.276931 0.036758 0.000000 4.190528 -0.009911 0.000000 0.245759 0.040718 0.000000 4.140960 -0.005220 0.000000 0.221987 0.041856 0.000000 4.061522 0.001613 0.000000 0.208740 0.048939 0.000000 3.954776 -0.000276 0.000000 0.194731 0.071327 0.000000 3.834111 -0.012331 0.000000 0.165637 0.101407 0.000000 3.699457 -0.021770 0.000000 0.124052 0.128363 0.000000 3.530170 -0.021709 0.000000 0.078804 0.153097 0.000000 3.299827 -0.020306 0.000000 0.032957 0.188033 0.000000 2.981007 -0.038828 0.000000 -0.044371 0.339781 0.000000 
2.698182 0.013130 0.000000 0.027132 0.458599 0.000000 2.047319 0.108208 0.000000 -0.038676 0.740151 0.000000 1.269025 0.002241 0.000000 -0.023377 -0.908493 0.000000 2.121915 0.015124 0.000000 -0.035887 -0.532140 0.000000 2.698001 0.015536 0.000000 -0.015195 -0.380744 0.000000 3.103894 0.025137 0.000000 0.020610 -0.304167 0.000000 3.404416 0.033247 0.000000 0.060869 -0.254444 0.000000 3.636966 0.037689 0.000000 0.101555 -0.215822 0.000000 3.819549 0.038917 0.000000 0.139018 -0.179671 0.000000 3.962798 0.035690 0.000000 0.168217 -0.144596 0.000000 4.074949 0.030999 0.000000 0.188304 -0.114733 0.000000 4.165114 0.028118 0.000000 0.203249 -0.091978 0.000000 4.238001 0.027836 0.000000 0.212560 -0.076071 0.000000 4.294538 0.031820 0.000000 0.215750 -0.068645 0.000000 4.334038 0.039725 0.000000 0.221739 -0.065671 0.000000 4.358149 0.044759 0.000000 0.229434 -0.060616 0.000000 4.371763 0.044213 0.000000 0.238467 -0.052086 0.000000 4.375285 0.038046 0.000000 0.250696 -0.037252 0.000000 4.370302 0.024488 0.000000 0.262538 -0.013667 0.000000 4.360984 0.004675 0.000000 0.268532 0.014977 0.000000 4.348811 -0.014805 0.000000 0.268629 0.042249 0.000000 4.328596 -0.029019 0.000000 0.263445 0.067010 0.000000 4.296379 -0.038043 0.000000 0.250926 0.088034 0.000000 4.250671 -0.040490 0.000000 0.233943 0.103734 0.000000 4.186755 -0.038379 0.000000 0.217039 0.117423 0.000000 4.099389 -0.038692 0.000000 0.203801 0.136315 0.000000 3.988847 -0.048655 0.000000 0.190504 0.166736 0.000000 3.861089 -0.066912 0.000000 0.171269 0.205420 0.000000 3.713722 -0.082473 0.000000 0.147814 0.246335 0.000000 3.532937 -0.086798 0.000000 0.125067 0.291732 0.000000 3.300085 -0.077845 0.000000 0.100003 0.354322 0.000000 2.997198 -0.055624 0.000000 0.047502 0.458119 0.000000 
2.785967 0.049471 0.000000 -0.057386 0.779240 0.000000 2.254701 0.090780 0.000000 -0.069615 1.112474 0.000000 1.626897 0.003965 0.000000 -0.073538 -1.271324 0.000000 2.258371 -0.028842 0.000000 -0.051086 -0.836247 0.000000 2.783337 -0.026764 0.000000 -0.026643 -0.597942 0.000000 3.171190 -0.018450 0.000000 0.005415 -0.454553 0.000000 3.459382 -0.015176 0.000000 0.043798 -0.358842 0.000000 3.679848 -0.015400 0.000000 0.084770 -0.289094 0.000000 3.851765 -0.016911 0.000000 0.124186 -0.232317 0.000000 3.985676 -0.019760 0.000000 0.158060 -0.185154 0.000000 4.091761 -0.021801 0.000000 0.184621 -0.145949 0.000000 4.176725 -0.021712 0.000000 0.204691 -0.114601 0.000000 4.244488 -0.020421 0.000000 0.219770 -0.090813 0.000000 4.297295 -0.017577 0.000000 0.233103 -0.072935 0.000000 4.333885 -0.011382 0.000000 0.248718 -0.057570 0.000000 4.354017 -0.005058 0.000000 0.266455 -0.042554 0.000000 4.360775 0.000241 0.000000 0.284902 -0.028396 0.000000 4.356951 0.004502 0.000000 0.302603 -0.013749 0.000000 4.346273 0.006132 0.000000 0.315848 0.003213 0.000000 4.333401 0.005051 0.000000 0.320392 0.022214 0.000000 4.319816 0.003774 0.000000 0.315435 0.041611 0.000000 4.302097 0.003535 0.000000 0.302686 0.061418 0.000000 4.276370 0.004165 0.000000 0.283370 0.082465 0.000000 4.238162 0.007072 0.000000 0.260549 0.104634 0.000000 4.181591 0.011684 0.000000 0.237925 0.129223 0.000000 4.102607 0.014851 0.000000 0.216933 0.159480 0.000000 4.002963 0.013021 0.000000 0.193476 0.199085 0.000000 3.886770 0.006903 0.000000 0.162424 0.248774 0.000000 3.751862 0.001685 0.000000 0.123809 0.309148 0.000000 3.587182 0.001039 0.000000 0.080584 0.385950 0.000000 3.377770 0.004758 0.000000 0.033894 0.490920 0.000000 3.110825 0.013673 0.000000 -0.019454 0.638798 0.000000 
2.886883 0.051062 0.000000 0.030604 0.989865 0.000000 2.469414 0.120437 0.000000 0.000928 1.367956 0.000000 1.973139 0.006164 0.000000 -0.002887 -1.539968 0.000000 2.444881 -0.007328 0.000000 -0.005322 -1.057106 0.000000 2.874032 -0.008907 0.000000 0.007067 -0.768597 0.000000 3.215723 -0.006921 0.000000 0.032580 -0.592359 0.000000 3.483847 -0.005135 0.000000 0.066122 -0.474909 0.000000 3.697832 -0.003283 0.000000 0.103370 -0.387740 0.000000 3.870794 -0.000499 0.000000 0.138944 -0.313582 0.000000 4.006869 0.001816 0.000000 0.168561 -0.250680 0.000000 4.112349 0.004439 0.000000 0.190855 -0.199697 0.000000 4.195335 0.008048 0.000000 0.206675 -0.159741 0.000000 4.261345 0.012757 0.000000 0.216941 -0.128879 0.000000 4.312662 0.018487 0.000000 0.223285 -0.105235 0.000000 4.349747 0.024111 0.000000 0.229279 -0.085803 0.000000 4.373821 0.027022 0.000000 0.236183 -0.067373 0.000000 4.387088 0.025766 0.000000 0.244356 -0.048263 0.000000 4.391290 0.020345 0.000000 0.253648 -0.026574 0.000000 4.388466 0.011242 0.000000 0.261964 -0.000794 0.000000 4.380681 0.000131 0.000000 0.266626 0.028561 0.000000 4.368155 -0.009847 0.000000 0.266646 0.059969 0.000000 4.348267 -0.016270 0.000000 0.261857 0.092737 0.000000 4.317595 -0.018728 0.000000 0.251735 0.126241 0.000000 4.273148 -0.017669 0.000000 0.236867 0.160305 0.000000 4.211810 -0.015755 0.000000 0.218785 0.196407 0.000000 4.130765 -0.017700 0.000000 0.200111 0.235960 0.000000 4.030789 -0.025199 0.000000 0.181256 0.282929 0.000000 3.914927 -0.035860 0.000000 0.161061 0.340328 0.000000 3.781092 -0.043857 0.000000 0.139708 0.411014 0.000000 3.621077 -0.043574 0.000000 0.117571 0.501144 0.000000 3.424265 -0.031154 0.000000 0.092392 0.621267 0.000000 3.181506 -0.002276 0.000000 0.059536 0.782977 0.000000 
3.046526 0.078403 0.000000 -0.017206 1.196709 0.000000 2.702954 0.120456 0.000000 -0.029363 1.608749 0.000000 2.303153 0.007780 0.000000 -0.032880 -1.743067 0.000000 2.651823 -0.026407 0.000000 -0.025381 -1.265398 0.000000 3.009780 -0.039153 0.000000 -0.008069 -0.939633 0.000000 3.313541 -0.043963 0.000000 0.018176 -0.722678 0.000000 3.558317 -0.048719 0.000000 0.052393 -0.572827 0.000000 3.756010 -0.052647 0.000000 0.091501 -0.462056 0.000000 3.917409 -0.052485 0.000000 0.129906 -0.368392 0.000000 4.042079 -0.049377 0.000000 0.163804 -0.290633 0.000000 4.137929 -0.044095 0.000000 0.190845 -0.228935 0.000000 4.213195 -0.037532 0.000000 0.211478 -0.180610 0.000000 4.273054 -0.030687 0.000000 0.227298 -0.142130 0.000000 4.319767 -0.023921 0.000000 0.240553 -0.110020 0.000000 4.353161 -0.017376 0.000000 0.253635 -0.081644 0.000000 4.373275 -0.011962 0.000000 0.267473 -0.055821 0.000000 4.381583 -0.007932 0.000000 0.281785 -0.032597 0.000000 4.380659 -0.004791 0.000000 0.295240 -0.010925 0.000000 4.373681 -0.002184 0.000000 0.305275 0.010998 0.000000 4.363480 0.000389 0.000000 0.309292 0.034740 0.000000 4.350857 0.003754 0.000000 0.306265 0.061499 0.000000 4.333763 0.008324 0.000000 0.296574 0.092089 0.000000 4.308559 0.014288 0.000000 0.280711 0.126912 0.000000 4.270948 0.021940 0.000000 0.259243 0.165973 0.000000 4.216721 0.029766 0.000000 0.233388 0.210267 0.000000 4.142741 0.033526 0.000000 0.206458 0.259457 0.000000 4.052787 0.031876 0.000000 0.178498 0.314948 0.000000 3.950000 0.027098 0.000000 0.148262 0.382608 0.000000 3.832351 0.023038 0.000000 0.115542 0.469163 0.000000 3.692652 0.023176 0.000000 0.080984 0.582763 0.000000 3.521493 0.029937 0.000000 0.045178 0.733678 0.000000 3.309732 0.046528 0.000000 0.009708 0.933421 0.000000 
3.196668 0.077976 0.000000 0.043882 1.333436 0.000000 2.929311 0.132594 0.000000 0.026781 1.767756 0.000000 2.622157 0.009680 0.000000 0.023383 -1.888638 0.000000 2.872898 -0.014827 0.000000 0.019046 -1.415063 0.000000 3.147859 -0.026219 0.000000 0.024530 -1.072357 0.000000 3.399111 -0.033165 0.000000 0.041914 -0.837135 0.000000 3.614503 -0.039353 0.000000 0.070882 -0.672602 0.000000 3.798278 -0.042391 0.000000 0.108915 -0.549139 0.000000 3.956906 -0.038904 0.000000 0.148003 -0.438253 0.000000 4.079708 -0.032082 0.000000 0.180069 -0.346530 0.000000 4.170885 -0.022602 0.000000 0.202823 -0.274963 0.000000 4.241459 -0.012584 0.000000 0.217581 -0.219600 0.000000 4.298208 -0.003063 0.000000 0.226371 -0.175592 0.000000 4.343542 0.005231 0.000000 0.231542 -0.138629 0.000000 4.377251 0.011029 0.000000 0.235984 -0.105917 0.000000 4.399313 0.013184 0.000000 0.241561 -0.075681 0.000000 4.410718 0.011454 0.000000 0.248875 -0.047339 0.000000 4.413908 0.006889 0.000000 0.257261 -0.019596 0.000000 4.411435 0.001208 0.000000 0.264638 0.009407 0.000000 4.405161 -0.003886 0.000000 0.268764 0.041184 0.000000 4.395168 -0.006819 0.000000 0.268663 0.077062 0.000000 4.378950 -0.006580 0.000000 0.264477 0.117941 0.000000 4.352702 -0.002864 0.000000 0.256123 0.163852 0.000000 4.312503 0.003799 0.000000 0.242263 0.214532 0.000000 4.255619 0.010100 0.000000 0.221013 0.270387 0.000000 4.179890 0.009230 0.000000 0.195655 0.325914 0.000000 4.088009 0.002761 0.000000 0.170722 0.385716 0.000000 3.986920 -0.005624 0.000000 0.148072 0.457977 0.000000 3.875573 -0.011137 0.000000 0.127590 0.550713 0.000000 3.747774 -0.009016 0.000000 0.108014 0.672304 0.000000 3.596330 0.004652 0.000000 0.087501 0.833027 0.000000 3.414928 0.033194 0.000000 0.065103 1.046184 0.000000 
3.374340 0.099624 0.000000 0.010648 1.464065 0.000000 3.162414 0.137557 0.000000 0.002604 1.915904 0.000000 2.925013 0.011178 0.000000 -0.000533 -1.993808 0.000000 3.099041 -0.022070 0.000000 -0.001401 -1.540359 0.000000 3.311867 -0.044637 0.000000 0.007388 -1.190886 0.000000 3.520066 -0.061347 0.000000 0.026685 -0.938070 0.000000 3.706122 -0.077686 0.000000 0.058135 -0.756602 0.000000 3.870512 -0.090681 0.000000 0.100235 -0.620684 0.000000 4.019189 -0.091573 0.000000 0.144250 -0.491194 0.000000 4.127216 -0.081444 0.000000 0.180727 -0.381811 0.000000 4.204887 -0.066849 0.000000 0.206884 -0.299509 0.000000 4.265201 -0.052290 0.000000 0.225365 -0.237360 0.000000 4.314534 -0.039476 0.000000 0.238493 -0.187464 0.000000 4.354780 -0.029092 0.000000 0.248347 -0.143728 0.000000 4.384675 -0.021818 0.000000 0.257466 -0.103706 0.000000 4.403274 -0.017539 0.000000 0.267579 -0.067226 0.000000 4.410816 -0.015246 0.000000 0.279127 -0.035787 0.000000 4.410084 -0.013177 0.000000 0.290975 -0.008453 0.000000 4.404445 -0.009561 0.000000 0.300421 0.017272 0.000000 4.396516 -0.003737 0.000000 0.304832 0.044733 0.000000 4.387238 0.003855 0.000000 0.303131 0.077718 0.000000 4.374642 0.012510 0.000000 0.295759 0.118337 0.000000 4.354424 0.022641 0.000000 0.282915 0.167111 0.000000 4.321398 0.035800 0.000000 0.262374 0.222857 0.000000 4.271050 0.051016 0.000000 0.231214 0.285996 0.000000 4.197921 0.058884 0.000000 0.197195 0.351338 0.000000 4.114550 0.056808 0.000000 0.164156 0.416037 0.000000 4.027478 0.049749 0.000000 0.133589 0.493955 0.000000 3.934448 0.043521 0.000000 0.105211 0.596962 0.000000 3.828864 0.042751 0.000000 0.078176 0.734207 0.000000 3.703873 0.050451 0.000000 0.052226 0.915080 0.000000 3.553909 0.068926 0.000000 0.028710 1.151681 0.000000 
3.539151 0.096038 0.000000 0.056145 1.545362 0.000000 3.385035 0.140638 0.000000 0.047938 2.005157 0.000000 3.217179 0.012817 0.000000 0.045069 -2.062665 0.000000 3.323578 -0.013959 0.000000 0.036625 -1.627889 0.000000 3.470793 -0.035007 0.000000 0.034615 -1.280557 0.000000 3.628986 -0.052463 0.000000 0.042775 -1.023191 0.000000 3.782344 -0.070803 0.000000 0.066947 -0.836992 0.000000 3.929780 -0.084490 0.000000 0.111702 -0.697816 0.000000 4.079275 -0.082919 0.000000 0.168560 -0.546280 0.000000 4.183849 -0.068560 0.000000 0.206020 -0.424201 0.000000 4.249876 -0.048759 0.000000 0.226360 -0.335277 0.000000 4.301171 -0.031065 0.000000 0.236524 -0.268934 0.000000 4.345952 -0.016191 0.000000 0.240199 -0.215838 0.000000 4.385061 -0.004624 0.000000 0.240513 -0.168523 0.000000 4.415403 0.001911 0.000000 0.241255 -0.124516 0.000000 4.434734 0.003070 0.000000 0.245168 -0.083223 0.000000 4.442458 -0.000094 0.000000 0.252593 -0.046607 0.000000 4.442638 -0.004958 0.000000 0.262255 -0.013957 0.000000 4.438859 -0.008238 0.000000 0.270768 0.017336 0.000000 4.433953 -0.008298 0.000000 0.274717 0.050462 0.000000 4.428802 -0.005119 0.000000 0.273451 0.089659 0.000000 4.420116 0.000793 0.000000 0.269184 0.138159 0.000000 4.402746 0.009980 0.000000 0.263977 0.196878 0.000000 4.370140 0.024340 0.000000 0.254728 0.264880 0.000000 4.317449 0.041261 0.000000 0.230785 0.343515 0.000000 4.242301 0.043249 0.000000 0.192126 0.409284 0.000000 4.152510 0.035799 0.000000 0.156258 0.472789 0.000000 4.068314 0.024944 0.000000 0.130123 0.551007 0.000000 3.985980 0.017240 0.000000 0.111615 0.656298 0.000000 3.896901 0.018019 0.000000 0.096756 0.797295 0.000000 3.794806 0.030602 0.000000 0.082805 0.982991 0.000000 3.676136 0.056710 0.000000 0.068963 1.225753 0.000000 
3.716294 0.112442 0.000000 0.031355 1.618182 0.000000 3.606904 0.145764 0.000000 0.028198 2.083760 0.000000 3.493337 0.014047 0.000000 0.025691 -2.100206 0.000000 3.546308 -0.013626 0.000000 0.017953 -1.687574 0.000000 3.643708 -0.042626 0.000000 0.016544 -1.349078 0.000000 3.761454 -0.069507 0.000000 0.024699 -1.091428 0.000000 3.883999 -0.101859 0.000000 0.050708 -0.904037 0.000000 4.010972 -0.135436 0.000000 0.101676 -0.770180 0.000000 4.161171 -0.148431 0.000000 0.174293 -0.595767 0.000000 4.242441 -0.118904 0.000000 0.213670 -0.447838 0.000000 4.289552 -0.087188 0.000000 0.234260 -0.350804 0.000000 4.328527 -0.062454 0.000000 0.246818 -0.282141 0.000000 4.365019 -0.043151 0.000000 0.253601 -0.226573 0.000000 4.399215 -0.029407 0.000000 0.256495 -0.174071 0.000000 4.426252 -0.022559 0.000000 0.259461 -0.123037 0.000000 4.443198 -0.021453 0.000000 0.265739 -0.074949 0.000000 4.447965 -0.022671 0.000000 0.276260 -0.035967 0.000000 4.444817 -0.022838 0.000000 0.289508 -0.004674 0.000000 4.438182 -0.018073 0.000000 0.301004 0.022178 0.000000 4.431547 -0.007686 0.000000 0.306332 0.049884 0.000000 4.427341 0.005121 0.000000 0.304362 0.086404 0.000000 4.423692 0.016776 0.000000 0.298055 0.135706 0.000000 4.414598 0.027849 0.000000 0.290324 0.199718 0.000000 4.391760 0.045049 0.000000 0.275917 0.275548 0.000000 4.346530 0.074958 0.000000 0.237397 0.361144 0.000000 4.260005 0.097543 0.000000 0.188917 0.441129 0.000000 4.177117 0.092677 0.000000 0.145750 0.500233 0.000000 4.109245 0.075883 0.000000 0.113960 0.576289 0.000000 4.047652 0.062029 0.000000 0.090768 0.686041 0.000000 3.981885 0.057610 0.000000 0.071972 0.836302 0.000000 3.905886 0.064402 0.000000 0.055499 1.033751 0.000000 3.817255 0.082767 0.000000 0.041540 1.288666 0.000000 
3.881189 0.106223 0.000000 0.066931 1.654753 0.000000 3.818001 0.143795 0.000000 0.065790 2.118724 0.000000 3.758962 0.015324 0.000000 0.063652 -2.115636 0.000000 3.760371 -0.006221 0.000000 0.050700 -1.725289 0.000000 3.804741 -0.033599 0.000000 0.038387 -1.398303 0.000000 3.876147 -0.060618 0.000000 0.029354 -1.145736 0.000000 3.964513 -0.096812 0.000000 0.036078 -0.963965 0.000000 4.075654 -0.135459 0.000000 0.084756 -0.848015 0.000000 4.249554 -0.155536 0.000000 0.223789 -0.627550 0.000000 4.324301 -0.107936 0.000000 0.256627 -0.471312 0.000000 4.343378 -0.069349 0.000000 0.263937 -0.374252 0.000000 4.367451 -0.043622 0.000000 0.264028 -0.305425 0.000000 4.398952 -0.022974 0.000000 0.257304 -0.250034 0.000000 4.433985 -0.007518 0.000000 0.248014 -0.195560 0.000000 4.463121 -0.001055 0.000000 0.241970 -0.141462 0.000000 4.480728 -0.003208 0.000000 0.244934 -0.087990 0.000000 4.482134 -0.010615 0.000000 0.254931 -0.043460 0.000000 4.476594 -0.018206 0.000000 0.269597 -0.007322 0.000000 4.468750 -0.019733 0.000000 0.282645 0.023972 0.000000 4.463727 -0.013626 0.000000 0.286066 0.054668 0.000000 4.465464 -0.003149 0.000000 0.279261 0.093308 0.000000 4.469394 0.007100 0.000000 0.270776 0.147253 0.000000 4.469014 0.017711 0.000000 0.270116 0.219715 0.000000 4.453381 0.038747 0.000000 0.278866 0.310111 0.000000 4.403274 0.079780 0.000000 0.271219 0.430040 0.000000 4.308991 0.091729 0.000000 0.188262 0.492173 0.000000 4.206884 0.078966 0.000000 0.128323 0.540661 0.000000 4.146997 0.056733 0.000000 0.101189 0.612599 0.000000 4.102526 0.040432 0.000000 0.089830 0.722065 0.000000 4.056699 0.036815 0.000000 0.083375 0.873294 0.000000 4.004270 0.047075 0.000000 0.077650 1.071623 0.000000 3.944998 0.070669 0.000000 0.071936 1.326714 0.000000 
4.050034 0.117448 0.000000 0.047894 1.681369 0.000000 4.023840 0.146905 0.000000 0.050267 2.142799 0.000000 4.008735 0.016184 0.000000 0.048563 -2.101615 0.000000 3.969353 -0.000674 0.000000 0.036044 -1.731945 0.000000 3.973337 -0.030313 0.000000 0.022188 -1.420484 0.000000 4.008717 -0.060474 0.000000 0.007724 -1.179794 0.000000 4.066711 -0.108583 0.000000 0.006100 -1.015178 0.000000 4.155641 -0.184114 0.000000 0.042518 -0.944080 0.000000 4.372325 -0.287463 0.000000 0.268662 -0.670514 0.000000 4.386050 -0.151742 0.000000 0.267927 -0.466915 0.000000 4.382829 -0.094499 0.000000 0.271838 -0.374877 0.000000 4.395388 -0.062545 0.000000 0.275892 -0.313642 0.000000 4.418106 -0.036426 0.000000 0.271827 -0.261605 0.000000 4.449261 -0.020118 0.000000 0.262759 -0.203207 0.000000 4.476051 -0.016514 0.000000 0.255855 -0.140645 0.000000 4.493511 -0.024417 0.000000 0.258389 -0.076355 0.000000 4.493299 -0.032668 0.000000 0.271520 -0.030427 0.000000 4.484547 -0.037504 0.000000 0.291181 0.003169 0.000000 4.473469 -0.031121 0.000000 0.309375 0.027202 0.000000 4.465080 -0.011107 0.000000 0.316103 0.048147 0.000000 4.466194 0.011926 0.000000 0.307945 0.082474 0.000000 4.477261 0.025261 0.000000 0.296915 0.136085 0.000000 4.489805 0.028509 0.000000 0.296028 0.215351 0.000000 4.493718 0.036299 0.000000 0.308774 0.325655 0.000000 4.463592 0.082606 0.000000 0.274355 0.455428 0.000000 4.305980 0.180500 0.000000 0.177915 0.543235 0.000000 4.218329 0.152616 0.000000 0.111137 0.560121 0.000000 4.184038 0.103017 0.000000 0.081779 0.620760 0.000000 4.164666 0.073388 0.000000 0.069657 0.731867 0.000000 4.142570 0.064065 0.000000 0.062318 0.888731 0.000000 4.114566 0.070127 0.000000 0.055990 1.093023 0.000000 4.082399 0.088481 0.000000 0.050788 1.352475 0.000000 
4.207752 0.109117 0.000000 0.077164 1.680946 0.000000 4.219108 0.141422 0.000000 0.083084 2.133828 0.000000 4.248060 0.017029 0.000000 0.081836 -2.076253 0.000000 4.167306 0.006298 0.000000 0.068614 -1.729274 0.000000 4.126163 -0.019743 0.000000 0.048089 -1.433682 0.000000 4.113492 -0.046153 0.000000 0.011883 -1.203730 0.000000 4.123890 -0.095188 0.000000 -0.048407 -1.052895 0.000000 4.191065 -0.171876 0.000000 -0.117851 -1.064700 0.000000 4.520584 -0.381681 0.000000 0.406310 -0.641275 0.000000 4.492211 -0.107201 0.000000 0.308093 -0.468090 0.000000 4.429087 -0.073260 0.000000 0.292514 -0.386811 0.000000 4.424969 -0.047677 0.000000 0.286083 -0.328144 0.000000 4.446066 -0.018909 0.000000 0.262419 -0.281189 0.000000 4.484813 0.001550 0.000000 0.240727 -0.222350 0.000000 4.518088 0.005848 0.000000 0.224053 -0.158922 0.000000 4.538750 -0.005741 0.000000 0.233053 -0.087777 0.000000 4.527945 -0.023746 0.000000 0.253202 -0.034708 0.000000 4.512648 -0.037868 0.000000 0.279357 0.003756 0.000000 4.496062 -0.037926 0.000000 0.305967 0.032360 0.000000 4.486399 -0.020354 0.000000 0.309288 0.053553 0.000000 4.495735 0.005009 0.000000 0.283352 0.082241 0.000000 4.518948 0.018130 0.000000 0.258869 0.134709 0.000000 4.547131 0.018597 0.000000 0.251818 0.215803 0.000000 4.583815 0.026001 0.000000 0.286738 0.340237 0.000000 4.563005 0.114199 0.000000 0.457117 0.587652 0.000000 4.335636 0.188169 0.000000 0.146081 0.579823 0.000000 4.215585 0.145745 0.000000 0.055214 0.574953 0.000000 4.215617 0.086091 0.000000 0.052410 0.631971 0.000000 4.222655 0.052553 0.000000 0.062029 0.744161 0.000000 4.221345 0.044154 0.000000 0.069155 0.901298 0.000000 4.215025 0.053403 0.000000 0.072930 1.103789 0.000000 4.208670 0.075870 0.000000 0.074989 1.359079 0.000000 
4.364396 0.115274 0.000000 0.062703 1.670013 0.000000 4.406431 0.140984 0.000000 0.071794 2.113847 0.000000 4.471679 0.017433 0.000000 0.071034 -2.020861 0.000000 4.357121 0.012548 0.000000 0.060906 -1.690802 0.000000 4.281100 -0.009789 0.000000 0.042561 -1.407813 0.000000 4.234273 -0.024268 0.000000 0.003418 -1.190193 0.000000 4.213157 -0.048293 0.000000 -0.073086 -1.082353 0.000000 4.235235 -0.114670 0.000000 -0.128569 -1.273599 0.000000 4.401052 -0.811625 0.000000 0.096456 -0.642141 0.000000 4.339369 -0.053525 0.000000 0.013442 -0.403791 0.000000 4.334251 -0.078920 0.000000 0.047223 -0.370759 0.000000 4.336966 -0.056114 0.000000 0.073956 -0.334738 0.000000 4.354131 -0.012762 0.000000 0.081324 -0.300352 0.000000 4.389203 0.001575 0.000000 0.087392 -0.236481 0.000000 4.419651 0.000159 0.000000 0.097108 -0.161307 0.000000 4.439659 -0.033417 0.000000 0.125074 -0.065550 0.000000 4.430506 -0.052817 0.000000 0.162141 -0.015130 0.000000 4.417214 -0.063660 0.000000 0.202115 0.019755 0.000000 4.406004 -0.057730 0.000000 0.241069 0.036865 0.000000 4.402036 -0.014428 0.000000 0.256621 0.038811 0.000000 4.415728 0.037862 0.000000 0.238750 0.059261 0.000000 4.450325 0.049744 0.000000 0.226556 0.107903 0.000000 4.492978 0.035559 0.000000 0.239403 0.178667 0.000000 4.567234 0.001380 0.000000 0.336055 0.346465 0.000000 4.635201 -0.087773 0.000000 0.658800 0.682797 0.000000 4.249719 0.491535 0.000000 0.127061 0.663286 0.000000 4.201786 0.243483 0.000000 0.019884 0.560088 0.000000 4.253658 0.105821 0.000000 0.027052 0.613723 0.000000 4.288507 0.063769 0.000000 0.042707 0.733177 0.000000 4.307747 0.056938 0.000000 0.051749 0.895051 0.000000 4.321974 0.066353 0.000000 0.055987 1.099377 0.000000 4.338684 0.086422 0.000000 0.058745 1.353393 0.000000 