# vtk DataFile Version 2.0
Comment goes here
ASCII

DATASET STRUCTURED_POINTS
FIELD FieldData 1
TIME 1 1 double
0.09100000
DIMENSIONS    64   64   1

ORIGIN    0.000   0.000   0.000
SPACING   0.03125 0.03125   1.000

POINT_DATA   4096
VECTORS u double

-3.925026 3.145590 0.000000 9.207063 14.308612 0.000000 3.114537 1.123700 0.000000 29.250736 -13.370255 0.000000 -17.733685 7.074157 0.000000 9.614374 -24.352049 0.000000 18.015059 -48.738294 0.000000 -28.872767 26.316484 0.000000 -2.126368 97.424845 0.000000 -31.300533 -29.666970 0.000000 -27.148051 14.070621 0.000000 -9.169530 -34.783479 0.000000 -53.188232 1.892263 0.000000 13.947379 42.187268 0.000000 -10.170480 4.055197 0.000000 -12.064520 22.005163 0.000000 -10.924367 10.025411 0.000000 20.313278 11.207845 0.000000 -38.056772 -4.520547 0.000000 16.578780 24.011697 0.000000 -36.730556 -40.389782 0.000000 27.841028 6.585798 0.000000 2.965463 23.135389 0.000000 17.953914 1.592987 0.000000 15.431486 38.051675 0.000000 16.189220 10.225091 0.000000 21.729813 35.772953 0.000000 -4.647292 -49.051808 0.000000 62.276252 -41.254061 0.000000 -22.018529 32.578326 0.000000 61.349476 -23.198931 0.000000 -19.576651 -32.209630 0.000000 50.886370 -17.499873 0.000000 -28.925922 -16.223228 0.000000 51.194697 5.634876 0.000000 -18.698038 8.309581 0.000000 17.609673 -14.186322 0.000000 23.495873 -39.735827 0.000000 -3.827061 27.650767 0.000000 39.342727 56.492975 0.000000 -46.905095 3.271505 0.000000 50.301641 18.760420 0.000000 -42.693004 -42.407762 0.000000 44.927768 -21.094604 0.000000 -2.574138 2.499836 0.000000 29.113755 47.385915 0.000000 35.039826 -47.784404 0.000000 -10.526122 -14.395303 0.000000 35.218787 55.018054 0.000000 -1.485617 2.276541 0.000000 12.222626 72.947479 0.000000 28.390356 -7.639375 0.000000 -2.280654 27.823118 0.000000 44.734769 4.694221 0.000000 12.961684 -67.606295 0.000000 7.731396 -5.737087 0.000000 78.009769 26.711241 0.000000 -25.541759 29.324847 0.000000 24.744217 -30.824848 0.000000 -9.929746 -7.198376 0.000000 12.170004 -36.722732 0.000000 6.798578 20.985415 0.000000 -11.205426 -24.953111 0.000000 15.222862 19.678435 0.000000 
15.912952 39.866988 0.000000 -32.885871 0.762099 0.000000 13.387726 -29.377385 0.000000 -49.706902 27.521059 0.000000 30.076413 -6.032605 0.000000 -35.571591 7.790259 0.000000 2.815294 70.875745 0.000000 -30.851299 -26.751014 0.000000 24.896936 -61.400504 0.000000 22.621976 15.849059 0.000000 31.606008 6.382710 0.000000 27.503456 20.958013 0.000000 10.833723 -4.454191 0.000000 34.215517 -52.661397 0.000000 -15.560925 -12.802444 0.000000 52.555683 0.122940 0.000000 -33.980276 -54.906113 0.000000 37.041329 18.392380 0.000000 -13.118249 -1.876175 0.000000 24.528297 -16.268833 0.000000 19.575272 34.207642 0.000000 -21.974031 -35.348481 0.000000 -14.306635 -2.586371 0.000000 -18.136938 -30.568420 0.000000 -22.193336 -19.867424 0.000000 -28.437869 -33.588690 0.000000 -12.199801 -15.281371 0.000000 -11.902162 19.999969 0.000000 6.736953 34.466104 0.000000 -55.652974 -20.473338 0.000000 66.819743 2.787406 0.000000 -100.051938 54.588193 0.000000 57.444337 18.118529 0.000000 -54.736446 32.133208 0.000000 -5.282899 -9.824611 0.000000 -26.385999 3.360019 0.000000 5.458422 -11.278909 0.000000 -43.251900 40.609982 0.000000 -1.121061 -43.686817 0.000000 -10.014030 -9.183905 0.000000 14.925559 -27.338165 0.000000 13.949308 3.676772 0.000000 -12.853551 19.620682 0.000000 0.522997 14.246968 0.000000 -41.250205 -14.464437 0.000000 -20.272605 -40.088125 0.000000 -12.911657 49.806068 0.000000 -19.442665 14.670896 0.000000 -11.261631 -30.580202 0.000000 11.770135 -25.179899 0.000000 -24.935818 -54.039374 0.000000 6.549090 -9.515916 0.000000 -15.094942 -25.642538 0.000000 -1.911202 -1.645152 0.000000 -12.224055 64.598195 0.000000 -27.228962 -16.638596 0.000000 -57.728323 -13.679857 0.000000 22.723448 15.283659 0.000000 7.834734 3.545838 0.000000 -5.459745 22.457556 0.000000 2.425223 1.869040 0.000000 -28.489808 10.485728 0.000000 18.596123 -3.186052 0.000000 -62.578609 -31.528250 0.000000 
-24.943725 -26.547148 0.000000 51.679622 16.833839 0.000000 -10.299827 17.944731 0.000000 -1.401813 -30.058942 0.000000 2.598365 -7.061153 0.000000 -2.076703 2.909070 0.000000 12.578863 -53.458586 0.000000 70.955155 4.234842 0.000000 -20.845667 43.951570 0.000000 -0.616810 -36.376041 0.000000 -90.561789 9.189141 0.000000 16.389283 -14.011194 0.000000 14.569172 -4.819798 0.000000 -42.212304 68.581915 0.000000 -0.582698 -14.284968 0.000000 -33.620514 40.424515 0.000000 -3.422478 25.539765 0.000000 -26.574402 -9.654182 0.000000 -23.924035 7.992484 0.000000 -8.204943 -8.681825 0.000000 -22.621235 6.112547 0.000000 55.085118 40.467706 0.000000 -9.016945 19.298296 0.000000 76.098031 9.479688 0.000000 29.434467 48.352606 0.000000 53.868953 0.231555 0.000000 20.989597 19.237245 0.000000 -29.332974 -67.988563 0.000000 -36.294165 2.496751 0.000000 -21.606804 -27.504464 0.000000 -53.966554 21.200034 0.000000 5.420620 -22.834224 0.000000 -9.108305 -62.815366 0.000000 20.411388 46.504008 0.000000 69.055491 -22.715570 0.000000 14.814057 -2.431740 0.000000 17.414834 2.679579 0.000000 75.125249 -33.156344 0.000000 -30.475051 -5.587103 0.000000 12.750434 40.446354 0.000000 26.325325 -20.691832 0.000000 -69.298617 46.539530 0.000000 40.166634 -28.981451 0.000000 15.913074 7.302051 0.000000 96.799005 23.295439 0.000000 -25.981987 19.047367 0.000000 33.169507 -48.614344 0.000000 51.564313 -16.045328 0.000000 -6.675736 23.805254 0.000000 17.083807 15.950728 0.000000 21.428938 78.168524 0.000000 -12.042651 -17.480251 0.000000 -10.842347 36.283410 0.000000 -38.998096 1.823334 0.000000 -15.896799 -42.288535 0.000000 112.323157 39.767181 0.000000 -25.417917 -23.241169 0.000000 35.645196 -36.238210 0.000000 -39.397492 -2.641656 0.000000 21.916522 -1.788866 0.000000 -13.966463 -13.692669 0.000000 39.794512 4.814515 0.000000 17.755899 9.135690 0.000000 58.124776 22.361607 0.000000 
63.649106 46.312142 0.000000 33.553395 -13.881799 0.000000 61.236467 23.704050 0.000000 6.366400 14.622868 0.000000 -15.610294 -5.357715 0.000000 -1.127380 -2.190240 0.000000 -27.791981 -2.156113 0.000000 -90.922810 6.673516 0.000000 -11.623062 10.171461 0.000000 -1.778225 85.565182 0.000000 -61.415101 -10.623383 0.000000 -38.036616 -84.172948 0.000000 -5.443217 54.147395 0.000000 -66.465427 -37.509527 0.000000 5.772154 -21.394234 0.000000 -40.478163 2.962720 0.000000 30.091233 -61.952226 0.000000 58.222720 38.893937 0.000000 56.256120 -20.245633 0.000000 -9.056905 -17.571634 0.000000 24.247912 -29.082420 0.000000 -46.746246 -48.952771 0.000000 74.649989 -23.599284 0.000000 11.752447 -69.019832 0.000000 157.490222 2.361655 0.000000 110.267174 -25.143819 0.000000 118.355414 67.920556 0.000000 69.647764 77.283730 0.000000 121.748046 26.739935 0.000000 54.387977 -2.800948 0.000000 32.563561 -24.240019 0.000000 116.203811 9.729944 0.000000 8.660294 3.127762 0.000000 -30.629638 -46.030588 0.000000 -21.738434 -4.227280 0.000000 -32.710905 55.000676 0.000000 33.681685 -71.590101 0.000000 26.903707 88.499867 0.000000 14.837417 18.687999 0.000000 -16.641431 -65.984281 0.000000 5.336145 54.710886 0.000000 -42.771368 -10.164536 0.000000 44.879451 -65.591009 0.000000 -3.105931 -42.385404 0.000000 10.428780 27.430624 0.000000 10.381512 23.541373 0.000000 93.491493 -27.740233 0.000000 41.439405 54.516139 0.000000 32.054267 3.900304 0.000000 -9.386738 -53.284574 0.000000 76.268332 -24.912916 0.000000 56.291245 22.755369 0.000000 -20.647109 1.312908 0.000000 57.522680 3.409300 0.000000 72.885471 -86.723058 0.000000 -11.933533 -7.117478 0.000000 64.051711 62.998104 0.000000 -18.184718 29.263235 0.000000 -10.084176 17.274512 0.000000 -36.776226 -2.973473 0.000000 -10.769595 -16.008950 0.000000 -24.187498 -21.236634 0.000000 81.687234 -21.516316 0.000000 54.377233 11.171374 0.000000 
40.850148 -5.723310 0.000000 41.958341 19.246478 0.000000 -11.358996 45.131726 0.000000 2.297558 46.787819 0.000000 -6.054334 0.432626 0.000000 0.270148 15.090757 0.000000 -26.670578 36.336845 0.000000 -125.098226 -11.934077 0.000000 -58.168205 -45.193015 0.000000 -78.691350 13.415998 0.000000 96.749537 45.447531 0.000000 -39.526416 -69.983078 0.000000 37.242101 23.609013 0.000000 -24.739509 57.366544 0.000000 -22.423122 -40.272232 0.000000 -19.219212 16.105436 0.000000 24.758647 -73.161118 0.000000 19.347342 -35.819069 0.000000 105.714332 75.272109 0.000000 40.806706 23.326382 0.000000 82.043354 43.801888 0.000000 17.960521 -9.934371 0.000000 65.663844 -39.200398 0.000000 14.104509 -73.360545 0.000000 25.523090 -50.162120 0.000000 -5.982856 39.366363 0.000000 40.699534 59.856656 0.000000 8.294626 -71.381195 0.000000 118.724749 17.756537 0.000000 66.586225 61.680021 0.000000 79.589743 -40.615800 0.000000 23.685935 1.069043 0.000000 -28.467953 84.018083 0.000000 -22.981477 76.902736 0.000000 -28.259936 -20.634302 0.000000 4.197483 -57.851859 0.000000 36.444646 -56.935034 0.000000 25.341583 -14.312076 0.000000 83.950423 37.958035 0.000000 6.588612 49.947627 0.000000 63.805437 5.438105 0.000000 79.566362 6.996224 0.000000 17.505281 -68.646888 0.000000 40.221887 41.752723 0.000000 14.739977 9.807996 0.000000 1.707423 -64.015347 0.000000 85.255140 -79.672237 0.000000 30.714539 45.391897 0.000000 -30.805792 74.631396 0.000000 53.040585 -28.263337 0.000000 -30.266035 12.490542 0.000000 89.009538 79.435190 0.000000 111.970413 35.051974 0.000000 28.595127 -91.709246 0.000000 118.387511 27.167678 0.000000 -133.521936 48.600941 0.000000 54.323465 -16.989984 0.000000 -72.353529 37.897677 0.000000 112.862849 15.949852 0.000000 -14.043621 -1.103446 0.000000 86.320959 -26.281397 0.000000 -17.230630 -87.642314 0.000000 154.050422 -69.429041 0.000000 26.073973 40.399735 0.000000 
48.514394 30.427775 0.000000 -28.408650 38.327345 0.000000 -44.619545 63.364833 0.000000 8.552694 9.318206 0.000000 2.598554 -3.330306 0.000000 9.854108 18.426004 0.000000 12.891437 123.212261 0.000000 -37.756232 38.171143 0.000000 -58.086716 -36.235415 0.000000 -125.533302 -69.352560 0.000000 40.372446 -49.788316 0.000000 18.748787 -24.665512 0.000000 38.846795 39.360488 0.000000 26.357002 22.155696 0.000000 -10.001799 -26.914530 0.000000 10.698872 -44.219048 0.000000 8.262141 -100.518780 0.000000 -37.898986 -42.061748 0.000000 -20.875057 -41.704998 0.000000 57.569372 6.099343 0.000000 17.843998 -6.236235 0.000000 41.713081 -32.573261 0.000000 -12.097957 -19.743272 0.000000 -10.442419 -28.879078 0.000000 -70.250896 22.449020 0.000000 42.780613 -40.320264 0.000000 77.852314 53.643074 0.000000 30.934371 -0.741485 0.000000 -45.283554 -31.551664 0.000000 -39.797012 36.334057 0.000000 -35.343682 18.660271 0.000000 48.495444 117.787641 0.000000 -112.317095 49.795173 0.000000 100.335975 -46.238605 0.000000 -66.878597 -31.406240 0.000000 66.091970 -9.703907 0.000000 -81.342240 -92.734201 0.000000 24.873156 40.994090 0.000000 -87.299049 37.440969 0.000000 81.953453 -45.839296 0.000000 -26.814664 -18.266863 0.000000 106.894850 36.135620 0.000000 33.480220 -26.246535 0.000000 -18.702204 -39.620099 0.000000 139.038609 65.945088 0.000000 -2.542545 -46.973790 0.000000 41.169931 -56.747348 0.000000 -49.676404 170.577071 0.000000 -21.984309 -18.425742 0.000000 31.213272 -53.824332 0.000000 -1.307317 -60.881870 0.000000 50.773991 -119.481079 0.000000 8.869427 61.727318 0.000000 22.599891 -3.007798 0.000000 -15.518419 75.394006 0.000000 135.919718 56.946567 0.000000 13.109733 1.829698 0.000000 36.995976 -29.276148 0.000000 89.422406 -41.035396 0.000000 43.130852 23.568416 0.000000 14.959221 -12.821941 0.000000 42.111905 -88.966097 0.000000 60.382536 -64.820918 0.000000 -37.495504 124.371648 0.000000 
-0.466457 -14.810164 0.000000 -7.907665 112.380417 0.000000 30.138686 8.170383 0.000000 18.635551 -0.430280 0.000000 15.442604 -0.868788 0.000000 13.708908 4.797874 0.000000 41.326358 83.947185 0.000000 7.888316 59.044076 0.000000 -28.665508 42.584055 0.000000 -8.035218 -85.043164 0.000000 -47.081052 -98.834558 0.000000 -3.623027 -68.457427 0.000000 -4.810670 16.000798 0.000000 37.357711 106.215137 0.000000 -4.407304 -24.614102 0.000000 67.891311 -2.158504 0.000000 33.747053 -24.563260 0.000000 -38.470449 -6.681871 0.000000 -37.435466 -20.196248 0.000000 15.216232 -15.392672 0.000000 17.443168 59.658178 0.000000 15.470522 20.007583 0.000000 28.538803 12.955102 0.000000 -54.592748 -15.207606 0.000000 19.172461 -103.385152 0.000000 -38.796000 -108.736847 0.000000 -77.748931 71.702898 0.000000 33.439459 51.754673 0.000000 -3.446545 88.487920 0.000000 -2.927920 51.740150 0.000000 63.148962 -128.908255 0.000000 -13.807196 78.042456 0.000000 102.538128 32.177551 0.000000 73.420296 31.464238 0.000000 49.754490 13.609703 0.000000 29.647758 -43.388216 0.000000 -3.464570 -15.716219 0.000000 -94.310250 -8.355267 0.000000 20.841649 -19.122263 0.000000 22.982617 -10.536759 0.000000 -10.084549 -19.503293 0.000000 2.238578 -53.298660 0.000000 72.807463 56.950166 0.000000 -32.043291 -63.805666 0.000000 7.130396 -6.351663 0.000000 -25.855918 33.853331 0.000000 -79.854139 -32.538378 0.000000 50.949445 108.546138 0.000000 -16.651642 -6.258280 0.000000 50.779350 -48.940329 0.000000 9.088172 -7.070177 0.000000 -99.777865 69.258446 0.000000 -20.529477 63.226075 0.000000 -8.426496 -67.321400 0.000000 -52.571909 -86.152149 0.000000 30.321993 19.972789 0.000000 -26.003280 81.933758 0.000000 162.978363 -38.414996 0.000000 -33.240093 9.814976 0.000000 73.467602 73.359738 0.000000 -30.399082 -25.262450 0.000000 65.354379 -133.065629 0.000000 -111.503976 10.178369 0.000000 -73.965958 52.267877 0.000000 
45.837838 -35.630519 0.000000 36.370205 7.722202 0.000000 32.613762 36.821617 0.000000 13.871485 24.014288 0.000000 17.381325 1.596337 0.000000 14.332782 -7.457750 0.000000 38.283349 129.032854 0.000000 12.921112 108.163009 0.000000 25.278802 -20.311881 0.000000 20.019408 -50.937016 0.000000 -21.448515 -54.200507 0.000000 -27.323080 -66.935894 0.000000 -135.403831 -1.620250 0.000000 36.114327 21.752329 0.000000 -33.285419 -57.448130 0.000000 -20.687854 -82.373405 0.000000 10.868344 5.842980 0.000000 -12.402335 29.120770 0.000000 -35.001201 -95.391679 0.000000 -28.303033 -48.779290 0.000000 13.436280 -6.490525 0.000000 -28.842788 -43.668896 0.000000 86.130260 50.319998 0.000000 19.413101 -19.512737 0.000000 45.036040 6.652272 0.000000 -72.595935 56.601129 0.000000 -14.986392 -18.592386 0.000000 -62.297651 -75.043871 0.000000 8.457836 4.815715 0.000000 19.840824 -30.261449 0.000000 7.509160 29.539548 0.000000 -47.992948 78.398474 0.000000 51.881838 -37.432319 0.000000 32.958313 6.545034 0.000000 31.888262 12.366298 0.000000 -0.045642 43.515153 0.000000 53.210090 31.223807 0.000000 -51.684942 16.687871 0.000000 39.570676 -79.851898 0.000000 -17.963056 -14.913098 0.000000 86.912286 2.477176 0.000000 -10.829506 -46.756391 0.000000 -39.335456 8.035334 0.000000 53.859191 26.056968 0.000000 -40.855033 59.757715 0.000000 43.537960 40.010745 0.000000 -53.321071 -133.552711 0.000000 5.706130 107.374574 0.000000 -40.370971 -18.255647 0.000000 6.485340 -79.564145 0.000000 -52.571480 89.675345 0.000000 -65.648771 -89.863430 0.000000 76.334487 -29.624051 0.000000 -75.584657 29.034634 0.000000 -64.791961 36.645517 0.000000 -70.240118 30.377938 0.000000 23.495769 -130.826672 0.000000 -8.382633 -22.039335 0.000000 -7.020414 48.475364 0.000000 -63.136051 20.727405 0.000000 123.032057 -4.708718 0.000000 26.969889 -7.861203 0.000000 -28.247445 74.499419 0.000000 65.905521 13.334129 0.000000 
-49.504687 14.725152 0.000000 -42.387777 125.604492 0.000000 -56.714329 30.669103 0.000000 14.778589 14.802158 0.000000 17.380600 -1.330085 0.000000 13.569895 -16.104150 0.000000 25.168358 85.358855 0.000000 78.087107 72.048623 0.000000 52.897454 35.485758 0.000000 -12.485997 -38.315848 0.000000 53.300212 -51.492070 0.000000 83.485066 45.497889 0.000000 -17.728016 -47.436608 0.000000 56.447530 4.096726 0.000000 18.040963 32.188078 0.000000 -15.132680 -46.312267 0.000000 -19.367753 -32.848779 0.000000 18.049067 39.187674 0.000000 -31.963305 -4.295551 0.000000 -9.303098 -63.830153 0.000000 23.357928 60.197933 0.000000 -50.715349 -52.686397 0.000000 26.943405 -35.300787 0.000000 -13.940258 25.886614 0.000000 36.872863 -11.376116 0.000000 62.353971 -48.714414 0.000000 103.700726 61.404615 0.000000 7.766840 28.310444 0.000000 -5.635600 6.349444 0.000000 32.761444 52.688826 0.000000 -30.463342 -61.074482 0.000000 -17.948367 33.669778 0.000000 -23.591827 -48.773710 0.000000 -6.255983 51.457814 0.000000 4.107797 46.613657 0.000000 -83.762344 -64.710044 0.000000 51.303973 35.923081 0.000000 15.710201 5.284147 0.000000 56.982327 -52.844149 0.000000 -46.665272 -57.878369 0.000000 70.620525 -26.636842 0.000000 -40.893293 72.949081 0.000000 15.985382 -7.738531 0.000000 -32.368077 -62.286088 0.000000 -28.058805 3.969567 0.000000 16.220320 46.319368 0.000000 35.686031 5.293453 0.000000 -76.970189 95.596039 0.000000 78.251859 -7.037491 0.000000 -24.581187 -36.739820 0.000000 56.636391 65.063935 0.000000 70.400140 -59.647521 0.000000 -67.753529 73.161961 0.000000 -36.025941 73.805048 0.000000 -23.790097 -91.496688 0.000000 39.182694 -68.314940 0.000000 27.425994 20.076273 0.000000 21.488781 -7.898814 0.000000 27.090498 64.568393 0.000000 48.997216 -56.692733 0.000000 38.199714 -115.368389 0.000000 -12.024434 18.213873 0.000000 48.537052 -28.757264 0.000000 -18.008574 -21.817406 0.000000 
-95.757263 -11.251316 0.000000 -118.898101 14.931844 0.000000 21.936284 -20.344749 0.000000 12.539048 -50.080642 0.000000 10.616470 2.805032 0.000000 9.886606 -15.245508 0.000000 6.167113 64.515641 0.000000 62.730910 80.433914 0.000000 134.269976 70.261223 0.000000 144.759110 -51.339774 0.000000 68.468018 -150.171571 0.000000 139.780854 4.092334 0.000000 96.077421 25.417286 0.000000 26.019930 -14.016650 0.000000 50.027572 14.132079 0.000000 23.922435 -44.964688 0.000000 -26.748404 -27.338766 0.000000 25.383401 41.716322 0.000000 32.305094 -68.039514 0.000000 29.523892 -104.100523 0.000000 30.618339 34.921726 0.000000 54.243618 -47.254372 0.000000 -36.406646 13.544907 0.000000 23.387631 -29.442194 0.000000 20.938008 -69.641957 0.000000 9.762857 -10.226734 0.000000 7.140587 35.994745 0.000000 74.873937 34.292455 0.000000 0.419194 -20.178889 0.000000 91.137587 -5.433707 0.000000 -3.987592 80.249359 0.000000 23.355259 71.526959 0.000000 -6.469143 -49.124703 0.000000 -28.574044 -21.154590 0.000000 82.979983 89.872659 0.000000 -9.331569 -3.681023 0.000000 14.217424 -68.248739 0.000000 8.685597 11.009516 0.000000 31.444726 -17.476425 0.000000 -41.744909 -28.551296 0.000000 -11.181962 -3.294804 0.000000 12.691618 7.878752 0.000000 42.655684 -0.489882 0.000000 -46.592345 70.101154 0.000000 20.046266 11.169318 0.000000 -11.374682 -23.734091 0.000000 13.559942 -40.362202 0.000000 7.614302 64.808747 0.000000 -17.056694 -70.644649 0.000000 -37.778052 -57.948677 0.000000 16.775784 -5.305981 0.000000 -64.747035 34.526490 0.000000 46.562144 76.802030 0.000000 13.119836 -14.928798 0.000000 54.872928 -38.563118 0.000000 -57.943863 -20.838154 0.000000 82.504762 -113.132759 0.000000 48.373475 -21.703839 0.000000 20.097936 20.966929 0.000000 160.852652 9.618189 0.000000 10.227414 56.312931 0.000000 19.499908 -18.198541 0.000000 -29.623417 80.483560 0.000000 -108.704313 111.375868 0.000000 
78.667029 24.918940 0.000000 137.882068 7.910945 0.000000 106.748730 -100.768047 0.000000 2.723810 26.121972 0.000000 7.657713 1.322357 0.000000 5.682918 -11.654793 0.000000 -5.131026 32.514551 0.000000 28.302621 -56.054239 0.000000 10.943813 -46.542442 0.000000 50.453093 27.486110 0.000000 -41.561698 -46.513814 0.000000 -55.588298 17.888486 0.000000 7.863698 66.324316 0.000000 -57.778098 50.146574 0.000000 74.136009 34.285573 0.000000 9.084344 30.463709 0.000000 18.737422 -34.309745 0.000000 -19.986733 -19.865823 0.000000 1.840489 -8.436042 0.000000 -15.512769 -62.143398 0.000000 -43.873761 35.478207 0.000000 3.230503 14.338588 0.000000 -27.290020 -4.444800 0.000000 25.449690 -31.458040 0.000000 -35.833788 2.248658 0.000000 -37.687688 -34.916994 0.000000 -3.470014 -3.706465 0.000000 -14.148704 35.031837 0.000000 7.276345 -9.914207 0.000000 -35.280449 57.095612 0.000000 -58.844069 6.707846 0.000000 93.818110 36.151329 0.000000 11.273535 3.155593 0.000000 22.589559 -37.991312 0.000000 -22.815238 27.371182 0.000000 63.657049 4.052514 0.000000 -51.041488 17.905915 0.000000 31.737047 -11.943155 0.000000 17.851973 -2.413643 0.000000 -35.966702 -15.251681 0.000000 -54.611976 -81.073369 0.000000 -65.100942 19.111435 0.000000 -102.401612 51.545432 0.000000 1.529121 -39.676670 0.000000 65.547606 -31.248096 0.000000 -54.008692 52.805692 0.000000 21.146448 -13.695531 0.000000 -10.162040 126.212675 0.000000 100.004802 38.354862 0.000000 -79.460121 -70.572298 0.000000 87.149420 92.032918 0.000000 -11.284960 -89.433881 0.000000 3.442814 -4.704910 0.000000 3.016234 65.494264 0.000000 7.089784 -20.432989 0.000000 -84.605690 -95.946773 0.000000 10.868440 -86.241065 0.000000 -110.513496 54.508012 0.000000 -60.464649 -47.910784 0.000000 -59.736649 -46.822211 0.000000 106.073669 25.984355 0.000000 -73.748089 58.064704 0.000000 35.860030 99.446957 0.000000 -14.772007 44.316440 0.000000 
104.971928 -163.905391 0.000000 127.786450 -13.149857 0.000000 66.610277 114.813509 0.000000 6.685599 49.010375 0.000000 -0.384706 -0.154077 0.000000 8.365432 -2.456769 0.000000 -43.474494 41.895937 0.000000 72.513332 64.359075 0.000000 -47.279709 48.110752 0.000000 -88.345749 1.165737 0.000000 -107.520085 -44.130180 0.000000 -44.083734 -45.333062 0.000000 -62.543073 27.607086 0.000000 -18.275096 -80.288960 0.000000 -47.105485 -52.730363 0.000000 -34.254935 10.433899 0.000000 -45.650628 1.732311 0.000000 -61.824538 58.613255 0.000000 28.875102 -72.513478 0.000000 -55.874475 -58.386274 0.000000 26.526505 16.178454 0.000000 7.643866 -63.838114 0.000000 12.854818 -8.674280 0.000000 -58.688568 -20.898426 0.000000 -12.959494 -6.504579 0.000000 14.251295 -42.590509 0.000000 -36.505499 12.455761 0.000000 15.628585 23.546096 0.000000 9.887599 0.952856 0.000000 -7.314127 60.686708 0.000000 -44.366384 -48.849200 0.000000 31.760149 1.409355 0.000000 83.175711 22.103849 0.000000 -22.726621 12.934183 0.000000 17.759747 48.805169 0.000000 10.052214 24.545227 0.000000 59.985814 -36.328737 0.000000 53.046566 -57.883945 0.000000 38.383509 50.227324 0.000000 -29.414009 43.912653 0.000000 -16.673278 25.839437 0.000000 -108.466082 55.668388 0.000000 -33.950777 -67.119944 0.000000 -75.477067 -97.848064 0.000000 -127.544714 66.707131 0.000000 24.566988 20.667067 0.000000 -1.043654 -84.208854 0.000000 21.574655 -14.049608 0.000000 71.442086 -1.346569 0.000000 60.605018 -45.093295 0.000000 25.166993 -73.481142 0.000000 7.314884 118.233096 0.000000 -74.693210 62.500836 0.000000 -7.689642 -18.575767 0.000000 159.749285 49.058806 0.000000 112.581883 -24.616810 0.000000 5.816830 -87.224953 0.000000 7.669533 49.629250 0.000000 0.633340 -29.809918 0.000000 34.367428 -156.920129 0.000000 -45.399153 70.324371 0.000000 81.647315 52.015099 0.000000 23.286616 21.507478 0.000000 114.857345 68.568869 0.000000 
61.832895 11.989835 0.000000 -9.565479 46.272596 0.000000 -5.773563 20.332804 0.000000 7.216454 93.116955 0.000000 -6.085371 -0.357476 0.000000 7.339369 31.434996 0.000000 -28.773753 -31.633349 0.000000 94.554266 -52.249025 0.000000 125.584325 114.316639 0.000000 16.861355 87.726487 0.000000 20.821291 -90.775828 0.000000 -90.682957 -27.088526 0.000000 -34.472952 40.515678 0.000000 17.494321 34.708986 0.000000 -32.420405 50.265412 0.000000 44.115046 29.008853 0.000000 -27.224929 -6.740142 0.000000 44.976196 -94.391554 0.000000 -6.632237 -14.386104 0.000000 -24.433399 -59.794801 0.000000 -31.352224 -28.040134 0.000000 -12.305682 28.010275 0.000000 -55.494902 61.887634 0.000000 -5.255848 -5.643728 0.000000 -30.020640 -70.691205 0.000000 22.093023 -11.370989 0.000000 -16.407052 -5.083755 0.000000 14.143796 -11.361261 0.000000 22.459298 13.028505 0.000000 7.990758 111.349595 0.000000 -27.355364 -32.366430 0.000000 -56.997869 -91.390766 0.000000 18.727187 57.642363 0.000000 -60.380295 27.424653 0.000000 75.339440 -5.407653 0.000000 -24.444600 -38.173553 0.000000 5.145106 -25.088437 0.000000 -67.375802 9.659151 0.000000 24.107683 80.046932 0.000000 20.721722 39.805107 0.000000 37.393575 -2.021296 0.000000 -79.925328 36.388933 0.000000 39.023484 18.556418 0.000000 -100.481281 53.917268 0.000000 -8.951120 -131.292151 0.000000 -82.484330 -73.695368 0.000000 13.126478 -10.703199 0.000000 -81.799855 53.726935 0.000000 -58.607668 -0.675500 0.000000 22.028728 -24.297205 0.000000 -71.796125 145.323052 0.000000 -130.051824 10.426321 0.000000 48.464455 10.299616 0.000000 26.514834 -168.948230 0.000000 27.942647 -140.704514 0.000000 24.501839 57.985681 0.000000 58.741249 18.671285 0.000000 -34.126836 59.691502 0.000000 125.458142 -74.608679 0.000000 -67.775151 -0.789718 0.000000 25.021649 -21.295533 0.000000 35.870845 -10.621065 0.000000 35.994674 66.236928 0.000000 -14.654591 -37.368873 0.000000 
17.653736 -168.994503 0.000000 -28.997272 54.456601 0.000000 -0.314497 98.031577 0.000000 10.481126 49.322183 0.000000 30.012735 -0.276991 0.000000 12.291476 20.231612 0.000000 81.104538 -45.318960 0.000000 10.201365 -89.999003 0.000000 100.099695 125.803663 0.000000 180.360516 105.928772 0.000000 47.557173 63.414132 0.000000 14.655956 9.961181 0.000000 16.784921 -80.570193 0.000000 -65.111247 -82.341507 0.000000 17.939054 -79.351088 0.000000 43.699089 5.238422 0.000000 84.607026 0.871161 0.000000 35.152084 38.020563 0.000000 -10.448960 -3.103883 0.000000 2.849368 -33.666286 0.000000 -35.224585 4.050736 0.000000 -11.704562 -39.695436 0.000000 33.992508 -15.724114 0.000000 13.147761 -46.372688 0.000000 -31.114072 -33.853450 0.000000 -5.918887 -56.204097 0.000000 -34.340300 20.404989 0.000000 -5.114043 -15.320253 0.000000 -0.556098 7.105893 0.000000 6.206052 110.501369 0.000000 61.101174 16.139427 0.000000 2.194741 -44.673196 0.000000 -42.060682 25.486275 0.000000 8.946573 -43.678069 0.000000 58.384689 12.869473 0.000000 9.458092 94.739560 0.000000 -19.054951 6.602465 0.000000 -11.612400 -76.846522 0.000000 13.935008 -37.870200 0.000000 104.339437 30.626762 0.000000 8.323287 126.486487 0.000000 42.437893 54.038478 0.000000 32.319068 -46.563992 0.000000 28.023379 -49.873460 0.000000 46.646724 48.710180 0.000000 0.547483 -1.410530 0.000000 -71.339598 -84.893329 0.000000 -31.893904 57.684539 0.000000 34.516445 -105.175151 0.000000 -36.203572 -31.904839 0.000000 47.090387 78.599410 0.000000 31.936439 -2.027484 0.000000 17.792952 -94.065822 0.000000 39.861308 1.946041 0.000000 -60.508349 51.071800 0.000000 17.575399 -55.415412 0.000000 -87.869285 -28.596278 0.000000 -21.596537 -17.087643 0.000000 -126.815115 3.838397 0.000000 -183.070634 -56.483636 0.000000 13.764087 -33.321625 0.000000 -26.957001 41.042073 0.000000 70.879317 72.032914 0.000000 -46.075896 42.730649 0.000000 
-6.815701 -5.088789 0.000000 -80.655101 64.240829 0.000000 26.650437 -19.145594 0.000000 15.029368 62.789723 0.000000 13.233050 -2.167826 0.000000 12.279234 -19.656808 0.000000 29.342172 -29.543237 0.000000 9.113632 -71.244182 0.000000 -90.351116 -55.842512 0.000000 91.112727 140.269008 0.000000 46.670416 74.928731 0.000000 110.930069 3.683726 0.000000 33.112112 120.282881 0.000000 44.052000 33.554854 0.000000 -5.420057 -58.544924 0.000000 5.947993 -37.659120 0.000000 42.975637 1.806863 0.000000 6.221814 0.664433 0.000000 12.548973 17.916611 0.000000 -48.236835 -35.019176 0.000000 -5.582972 -13.486203 0.000000 38.920088 -41.206818 0.000000 17.310493 37.035311 0.000000 47.496809 59.462853 0.000000 35.872355 -51.624558 0.000000 -2.365338 -8.144761 0.000000 -61.374890 -5.888598 0.000000 31.814802 -45.145463 0.000000 -50.706198 1.708410 0.000000 5.895322 49.692323 0.000000 74.604129 -28.355119 0.000000 63.713790 11.771090 0.000000 -19.688510 50.890530 0.000000 15.897743 -73.020718 0.000000 -56.869326 -5.919171 0.000000 -3.673145 39.266087 0.000000 67.045183 -4.017945 0.000000 48.485917 -23.330809 0.000000 -103.313577 -35.904905 0.000000 -12.169528 45.416828 0.000000 -34.470742 59.880248 0.000000 68.971071 12.393152 0.000000 -8.011544 32.970932 0.000000 -28.175822 39.589611 0.000000 -26.477369 -103.816255 0.000000 91.681415 44.290954 0.000000 21.424430 21.738188 0.000000 11.967024 -52.129108 0.000000 74.333886 3.634168 0.000000 -108.161620 -36.871148 0.000000 -23.782458 77.183041 0.000000 3.375954 39.723756 0.000000 -4.291702 2.374747 0.000000 -46.332393 -90.646930 0.000000 132.964283 -118.418605 0.000000 47.005407 85.346618 0.000000 -28.071868 57.843221 0.000000 -24.134986 98.637333 0.000000 -23.234123 86.865418 0.000000 108.061679 -141.368920 0.000000 37.923668 -177.409165 0.000000 48.869826 -67.736295 0.000000 -24.075677 85.355823 0.000000 109.796880 15.856708 0.000000 