# vtk DataFile Version 2.0
Comment goes here
ASCII

DATASET STRUCTURED_POINTS
FIELD FieldData 1
TIME 1 1 double
0.03300000
DIMENSIONS    256   256   1

ORIGIN    0.000   0.000   0.000
SPACING   0.0078125 0.0078125   1.000

POINT_DATA   65536
VECTORS u double

-13.314582 -13.433982 0.000000 -27.556767 -53.973245 0.000000 -29.364647 -6.879686 0.000000 -59.621368 -17.108514 0.000000 -4.740296 32.686971 0.000000 -24.813942 2.737623 0.000000 -6.024507 -42.092387 0.000000 -32.273172 -82.153081 0.000000 3.272586 -47.107717 0.000000 -13.327729 -9.149815 0.000000 -58.642260 -55.932462 0.000000 -20.533716 -21.691330 0.000000 -46.207575 -31.797851 0.000000 -12.815432 -4.135997 0.000000 -9.458437 -32.951738 0.000000 31.460999 -3.073316 0.000000 -30.463352 3.571417 0.000000 5.291803 2.047060 0.000000 -41.309414 1.386503 0.000000 0.765529 -7.253083 0.000000 -21.022118 2.781510 0.000000 -18.482574 -16.152055 0.000000 -1.028664 3.919209 0.000000 -13.825900 -13.400152 0.000000 -2.250254 10.306531 0.000000 7.801112 -0.795917 0.000000 -0.832735 18.930175 0.000000 4.849697 8.126321 0.000000 8.715600 18.134536 0.000000 7.701491 20.513951 0.000000 -27.415199 -17.207584 0.000000 1.297619 -40.228281 0.000000 -28.780598 -29.719332 0.000000 -39.491325 -16.032757 0.000000 -31.764648 13.802826 0.000000 -24.696015 -4.427567 0.000000 -23.973290 -89.834734 0.000000 -25.187314 -6.985285 0.000000 -72.974780 7.444224 0.000000 96.077210 -38.127869 0.000000 -25.888566 -35.573590 0.000000 -58.561879 -71.536439 0.000000 45.963551 66.442439 0.000000 -8.452393 88.704636 0.000000 38.925312 60.613275 0.000000 -24.088086 -9.279510 0.000000 -27.568037 -131.066305 0.000000 5.887349 -0.718780 0.000000 3.500518 14.759456 0.000000 -2.033546 -10.722846 0.000000 11.407768 22.468320 0.000000 1.642274 -61.436551 0.000000 10.960675 10.094178 0.000000 35.655518 9.644824 0.000000 -0.637719 -35.966310 0.000000 42.518597 102.762015 0.000000 -18.534900 40.002204 0.000000 25.287048 -33.156495 0.000000 28.614903 31.361965 0.000000 -27.315176 -63.576181 0.000000 9.765349 -69.285858 0.000000 64.446090 -60.085962 0.000000 14.916185 -41.115145 0.000000 -12.467409 -9.151560 0.000000 22.912188 13.753128 0.000000 3.491980 25.240083 0.000000 7.276109 -9.764709 0.000000 17.057736 14.536945 0.000000 21.577358 6.387421 0.000000 -34.598038 -1.080398 0.000000 15.883299 -36.672277 0.000000 -9.473799 -7.684742 0.000000 -2.716924 32.422122 0.000000 -8.863010 16.432394 0.000000 7.852824 14.939473 0.000000 6.467356 10.357113 0.000000 1.450957 14.457045 0.000000 18.420987 -4.236371 0.000000 12.418840 -6.069978 0.000000 22.190595 14.560545 0.000000 17.248914 17.659858 0.000000 33.061009 16.479699 0.000000 30.944072 -0.069315 0.000000 6.674034 -2.246082 0.000000 0.861193 -19.457019 0.000000 0.103296 -6.676808 0.000000 -6.945979 9.576372 0.000000 2.181749 5.572011 0.000000 2.989408 8.103573 0.000000 -11.971353 11.158800 0.000000 3.526113 -1.980383 0.000000 -3.981012 -4.299485 0.000000 5.428810 2.354824 0.000000 12.417261 -11.998538 0.000000 12.201764 9.286735 0.000000 19.653680 23.775189 0.000000 20.464276 13.926028 0.000000 7.755611 -65.336149 0.000000 -11.616920 -45.125216 0.000000 -4.634011 41.070870 0.000000 -0.965923 -24.343499 0.000000 -29.625472 1.352496 0.000000 17.168045 6.566411 0.000000 -10.917036 -18.307599 0.000000 36.874119 -33.171283 0.000000 7.550916 -6.798740 0.000000 -25.428852 19.534076 0.000000 -1.141570 3.017165 0.000000 -4.488948 13.566617 0.000000 -2.565601 6.078530 0.000000 -23.363612 -49.360026 0.000000 11.182945 -17.645722 0.000000 -0.868144 -24.670082 0.000000 21.120356 -36.200794 0.000000 7.053790 -40.777193 0.000000 19.074666 -22.138276 0.000000 -11.231832 13.855937 0.000000 -4.076474 21.567197 0.000000 -44.258662 46.757153 0.000000 -51.143340 -5.266825 0.000000 -11.074732 -3.015314 0.000000 -13.126794 43.296372 0.000000 -6.798658 15.078361 0.000000 -10.926957 19.090741 0.000000 6.889599 -1.901340 0.000000 8.532510 8.144906 0.000000 25.513231 28.933309 0.000000 0.754159 2.328957 0.000000 13.728819 -7.708789 0.000000 6.846438 -6.693573 0.000000 23.351991 -0.651567 0.000000 11.879444 11.605435 0.000000 12.767676 7.515974 0.000000 -4.787167 -9.751342 0.000000 8.334236 12.359438 0.000000 35.751251 -5.440125 0.000000 -19.226140 -3.179004 0.000000 -4.214312 1.468824 0.000000 -6.582938 -11.415510 0.000000 26.312317 8.712094 0.000000 24.068507 30.463628 0.000000 23.114566 -21.155944 0.000000 -6.180651 -37.064206 0.000000 61.845675 11.001072 0.000000 19.699995 9.904644 0.000000 -15.463225 -7.278900 0.000000 11.269884 14.655083 0.000000 -12.642210 46.084351 0.000000 -7.258420 7.568509 0.000000 -8.227644 -13.143724 0.000000 -0.515162 26.447756 0.000000 12.645301 34.808476 0.000000 0.342542 2.668621 0.000000 19.335708 16.023780 0.000000 4.653831 27.031821 0.000000 33.792842 7.811056 0.000000 31.985772 22.473970 0.000000 -13.092851 -34.940871 0.000000 -20.724358 -19.435061 0.000000 9.701755 22.086865 0.000000 4.483519 -10.683309 0.000000 -13.529175 20.863473 0.000000 -8.730106 27.338030 0.000000 -7.545679 -52.290414 0.000000 37.419094 16.459222 0.000000 31.176361 -40.055011 0.000000 -29.327444 -42.306369 0.000000 -17.273331 -59.100683 0.000000 -58.183764 11.145167 0.000000 -36.552116 12.819220 0.000000 -50.032107 88.681087 0.000000 30.426235 75.617949 0.000000 -6.013851 -75.166316 0.000000 -85.020640 -6.615413 0.000000 31.410911 -39.311408 0.000000 2.946091 -13.087371 0.000000 -50.010923 -36.996514 0.000000 -9.373881 31.455811 0.000000 -35.222811 -30.228871 0.000000 -49.728089 -23.533758 0.000000 -21.155240 41.088206 0.000000 -81.812701 -9.138288 0.000000 -24.391187 -14.964539 0.000000 -41.384711 -65.668796 0.000000 -55.290260 -17.911855 0.000000 -66.468359 46.606235 0.000000 -5.864932 29.515900 0.000000 -15.089795 36.684044 0.000000 39.257753 61.710792 0.000000 13.530461 58.853435 0.000000 -30.189398 39.863711 0.000000 -21.594953 -34.204980 0.000000 -69.473124 -97.260889 0.000000 9.941579 23.135262 0.000000 -39.850621 -79.973675 0.000000 82.974243 -83.143685 0.000000 -56.838054 62.717925 0.000000 19.046695 -30.236581 0.000000 -41.720505 -11.118679 0.000000 -43.992720 121.696307 0.000000 -13.462106 121.832701 0.000000 -56.816046 90.970957 0.000000 -40.640516 102.153009 0.000000 -20.367755 98.186889 0.000000 -46.330049 61.454764 0.000000 -46.550164 1.023214 0.000000 162.196809 30.260942 0.000000 66.342033 -0.045327 0.000000 -43.010838 12.886155 0.000000 -105.376237 -70.740067 0.000000 111.512344 -93.535917 0.000000 -66.557426 98.450980 0.000000 -30.469367 66.594120 0.000000 -45.755560 -26.427651 0.000000 44.282054 -67.836339 0.000000 1.822469 -36.407085 0.000000 -21.124939 -83.546931 0.000000 24.827436 -53.224289 0.000000 32.832293 7.255906 0.000000 20.857886 11.352487 0.000000 48.032102 -10.424823 0.000000 36.130238 -6.320675 0.000000 32.119211 -0.719783 0.000000 -9.338458 -13.049009 0.000000 22.114965 -8.913975 0.000000 -91.911966 23.324267 0.000000 -42.051621 28.188717 0.000000 -77.953084 28.847725 0.000000 -84.952636 22.084320 0.000000 -56.844936 -3.037420 0.000000 -27.046871 -17.941405 0.000000 -20.060231 -37.852109 0.000000 -19.014996 7.961011 0.000000 -17.773474 -24.600481 0.000000 30.911048 -82.926075 0.000000 -29.150219 -1.892312 0.000000 -8.900766 13.447199 0.000000 26.652179 -34.918087 0.000000 -18.517075 -4.797211 0.000000 11.030061 -54.264310 0.000000 -2.861863 -3.147666 0.000000 -1.290086 25.472709 0.000000 68.780269 -27.823839 0.000000 55.516549 1.738086 0.000000 -15.534321 30.526575 0.000000 4.475133 -7.401479 0.000000 -43.578184 -48.921865 0.000000 12.839916 -66.327938 0.000000 -19.070240 -15.710694 0.000000 7.277499 0.520758 0.000000 -5.352665 17.727565 0.000000 0.758423 20.075832 0.000000 -38.687980 4.665946 0.000000 -21.453282 -33.831420 0.000000 -20.438760 -64.456207 0.000000 -37.925696 -38.741625 0.000000 
-48.337126 -0.041348 0.000000 -68.810124 -21.782102 0.000000 -44.388743 0.937757 0.000000 -67.536688 -49.790663 0.000000 -24.155328 -4.232103 0.000000 -3.554186 5.855910 0.000000 19.835602 -44.018886 0.000000 -16.965565 -87.248301 0.000000 -47.745716 -61.966450 0.000000 -41.471196 9.257470 0.000000 -59.045370 -82.760577 0.000000 1.884706 -59.482321 0.000000 -23.223458 -7.334622 0.000000 -7.130710 3.088257 0.000000 -29.002247 -18.806665 0.000000 -17.959600 2.928946 0.000000 -29.647739 -18.597049 0.000000 -7.635984 22.890260 0.000000 -39.930272 -2.230018 0.000000 -7.396131 -15.291366 0.000000 -30.630494 22.565427 0.000000 -14.386480 -29.381790 0.000000 -16.408227 19.559556 0.000000 -13.543926 -5.163817 0.000000 -3.661854 -9.325361 0.000000 19.373735 -1.386164 0.000000 3.253181 7.745363 0.000000 23.745324 -11.473563 0.000000 8.086082 16.085364 0.000000 35.227098 36.454095 0.000000 4.654364 -16.646403 0.000000 23.745062 -33.570189 0.000000 10.739926 -13.737506 0.000000 -9.367408 -42.524989 0.000000 -18.841295 -4.115393 0.000000 39.292330 -42.257417 0.000000 5.042945 -32.494014 0.000000 -6.825500 17.479740 0.000000 15.268135 -120.620435 0.000000 10.198985 -46.015362 0.000000 49.245348 73.226858 0.000000 -17.580079 -82.449682 0.000000 13.804225 -31.930576 0.000000 26.395283 -7.559680 0.000000 91.805299 18.536996 0.000000 33.266133 102.807644 0.000000 18.167245 -33.943281 0.000000 -46.680273 -7.182415 0.000000 51.363364 2.362421 0.000000 37.149718 -13.979866 0.000000 24.308809 16.991741 0.000000 43.888407 -26.014073 0.000000 -36.780302 -31.915679 0.000000 66.527301 6.654027 0.000000 -32.320836 -9.805532 0.000000 18.701852 24.716702 0.000000 52.872910 -16.226715 0.000000 64.430417 -63.301827 0.000000 68.314924 31.816864 0.000000 34.464576 -31.934211 0.000000 2.710823 -13.050159 0.000000 32.503335 79.729121 0.000000 -16.968092 38.468120 0.000000 -0.751489 -14.266312 0.000000 -19.677495 7.199879 0.000000 -13.897381 17.828522 0.000000 16.411896 -16.372952 0.000000 8.093222 1.842863 0.000000 -5.091648 51.654211 0.000000 1.216862 20.183480 0.000000 -14.979279 -18.937903 0.000000 -54.192182 1.860673 0.000000 -28.221801 -5.519880 0.000000 -13.654359 -27.186281 0.000000 -27.588768 -11.071653 0.000000 -14.520566 19.806053 0.000000 15.836038 -6.273482 0.000000 29.762305 -23.029663 0.000000 5.474144 -7.794784 0.000000 -9.744168 10.362157 0.000000 12.684905 4.416932 0.000000 4.152721 -3.654561 0.000000 4.219327 17.423783 0.000000 -5.020169 25.935590 0.000000 -5.542871 -5.008104 0.000000 -2.931660 12.589643 0.000000 -5.794151 17.138125 0.000000 -0.088712 -7.141556 0.000000 1.673090 3.042395 0.000000 2.669139 -10.638242 0.000000 0.836850 -22.029029 0.000000 8.329946 5.755446 0.000000 14.133407 -0.722937 0.000000 11.626860 -3.640376 0.000000 4.189244 -6.847898 0.000000 32.129028 7.496685 0.000000 28.349346 34.133760 0.000000 23.563773 -5.602473 0.000000 -9.030456 -38.569028 0.000000 13.005782 7.530310 0.000000 5.395757 8.802775 0.000000 -14.206042 11.915508 0.000000 5.798819 -30.175253 0.000000 49.088863 -57.983839 0.000000 -3.822029 -45.113923 0.000000 24.818012 43.393128 0.000000 -25.819209 14.912740 0.000000 30.905490 -7.165202 0.000000 7.004185 0.133410 0.000000 54.563778 2.612264 0.000000 27.146407 -14.300553 0.000000 27.547770 -17.840361 0.000000 44.419924 -7.256116 0.000000 3.655299 -11.068421 0.000000 11.481608 -7.059819 0.000000 -8.965604 -6.503787 0.000000 1.173831 -10.427254 0.000000 -37.787196 45.709159 0.000000 2.825917 51.580009 0.000000 -7.015888 -21.288559 0.000000 -20.511413 -16.293808 0.000000 -5.948409 -0.951892 0.000000 -23.402565 -1.225035 0.000000 10.815555 -9.640516 0.000000 15.480637 4.402710 0.000000 -13.683972 -9.255402 0.000000 10.499488 20.957631 0.000000 11.895134 20.077436 0.000000 21.773068 3.391884 0.000000 0.488087 -7.437613 0.000000 11.810856 -16.930783 0.000000 19.904594 17.973110 0.000000 19.567602 59.703270 0.000000 -1.288895 4.405560 0.000000 15.435741 -12.216095 0.000000 6.478406 17.178177 0.000000 4.741374 3.202816 0.000000 -6.623689 -2.948353 0.000000 8.978727 -20.109566 0.000000 -14.243831 -55.020596 0.000000 21.635533 -30.933024 0.000000 -3.147256 -1.767481 0.000000 26.477979 20.087581 0.000000 -30.336349 23.377426 0.000000 -25.074432 47.593006 0.000000 -1.203034 -3.409723 0.000000 -10.416727 12.202049 0.000000 -0.054501 43.447831 0.000000 6.916071 1.637832 0.000000 -0.111074 6.745146 0.000000 6.039094 -2.814233 0.000000 -5.023226 -3.014120 0.000000 10.441603 17.765388 0.000000 -15.082191 15.086690 0.000000 20.265760 -15.929599 0.000000 -54.855204 -2.276659 0.000000 0.876819 45.415249 0.000000 -19.115507 24.668881 0.000000 -5.040154 0.877321 0.000000 -32.672289 -2.040726 0.000000 -33.081051 9.328451 0.000000 0.612905 34.094705 0.000000 -39.424563 30.017206 0.000000 14.886564 -49.592759 0.000000 -12.319016 -66.184286 0.000000 42.790354 31.881246 0.000000 -25.684647 46.470626 0.000000 -47.008810 -48.792449 0.000000 -24.708600 -7.470062 0.000000 25.712259 -35.425352 0.000000 -49.389551 2.542564 0.000000 90.011945 48.005367 0.000000 22.134667 44.627427 0.000000 12.987513 2.246492 0.000000 -11.966985 -72.009115 0.000000 18.631700 39.957551 0.000000 -21.674177 -3.590484 0.000000 12.820607 41.304339 0.000000 25.399436 51.429822 0.000000 -2.275894 -43.168327 0.000000 -36.141234 16.259081 0.000000 -33.770079 17.278111 0.000000 -21.793053 -12.975630 0.000000 -39.280625 14.825326 0.000000 -84.459059 19.695956 0.000000 -92.046093 -74.878112 0.000000 -56.665787 -11.846022 0.000000 -47.208225 51.530228 0.000000 -35.182821 45.342614 0.000000 -85.791835 59.152326 0.000000 7.212172 -29.479472 0.000000 38.565175 -50.040568 0.000000 -59.057448 -43.829188 0.000000 6.899157 33.202005 0.000000 -59.507244 4.800153 0.000000 -172.018953 -12.505019 0.000000 -117.609504 -25.845315 0.000000 -34.406166 -57.889996 0.000000 -122.643864 43.556047 0.000000 -103.126275 -7.095485 0.000000 58.546518 63.019787 0.000000 -6.631192 143.984560 0.000000 27.493659 62.254251 0.000000 -59.935730 22.063061 0.000000 -75.894793 7.238898 0.000000 50.147365 -119.322383 0.000000 49.224573 -126.730214 0.000000 32.405152 73.289089 0.000000 2.693966 110.285228 0.000000 42.749181 -45.497006 0.000000 -80.973883 -100.581225 0.000000 -46.357848 91.409957 0.000000 70.171446 98.110427 0.000000 46.350632 -11.643069 0.000000 43.936620 -66.276024 0.000000 9.763345 -45.249754 0.000000 23.141338 -48.277011 0.000000 -31.234544 -38.971806 0.000000 3.760524 -17.121942 0.000000 -17.639953 -0.146309 0.000000 27.310612 -12.567421 0.000000 -45.777244 -19.395466 0.000000 -14.863165 19.364411 0.000000 -41.685188 13.699533 0.000000 -47.586974 53.923133 0.000000 -81.404449 40.143218 0.000000 -70.798495 -4.681315 0.000000 -67.258337 27.914031 0.000000 -68.660088 -44.631893 0.000000 -68.983918 -44.814890 0.000000 -32.168355 -49.153355 0.000000 14.118390 -52.010829 0.000000 11.837280 -1.038237 0.000000 36.899860 -25.740768 0.000000 8.462621 -30.693334 0.000000 -54.035487 30.224441 0.000000 9.161649 11.489700 0.000000 -25.175946 -10.410876 0.000000 -4.091581 -8.007088 0.000000 5.574336 -43.480656 0.000000 -31.170866 -19.754154 0.000000 24.577510 -50.176958 0.000000 21.381131 -33.115271 0.000000 -20.111275 35.954862 0.000000 -33.465001 40.707409 0.000000 -3.800482 33.262102 0.000000 -8.831576 -27.246555 0.000000 6.170699 -58.400864 0.000000 -11.725494 -21.156520 0.000000 -20.011528 -35.725267 0.000000 -26.871695 10.151668 0.000000 -15.015404 28.199134 0.000000 -9.134896 5.522767 0.000000 0.270785 -27.512113 0.000000 -21.996137 -7.129100 0.000000 -81.272814 -25.223487 0.000000 
-30.699524 -25.896671 0.000000 -39.325032 -57.921628 0.000000 -19.209268 -8.153122 0.000000 -33.855256 -37.341929 0.000000 -47.559608 -31.295531 0.000000 5.353801 -41.253306 0.000000 -0.309157 -28.681009 0.000000 26.807545 -14.571763 0.000000 -56.802806 -22.602086 0.000000 -28.350481 2.149839 0.000000 -19.561169 -99.288364 0.000000 -50.830185 -57.513241 0.000000 -16.768657 -22.782435 0.000000 7.150509 1.642792 0.000000 -28.734373 -22.122848 0.000000 2.128783 -2.427824 0.000000 -18.149840 -6.752199 0.000000 -20.674738 12.329593 0.000000 -11.114833 1.146650 0.000000 -22.036782 -16.552860 0.000000 -12.626197 9.771858 0.000000 5.858888 -30.374322 0.000000 -18.827761 3.076655 0.000000 -3.509803 -26.146526 0.000000 -23.341718 -22.611130 0.000000 8.516872 -7.710952 0.000000 -14.893546 14.558586 0.000000 24.647814 3.293421 0.000000 -3.230016 6.652763 0.000000 36.388516 23.945669 0.000000 31.603539 -5.725549 0.000000 26.823538 -46.313843 0.000000 15.384615 3.393139 0.000000 28.747474 13.548463 0.000000 11.439371 -34.856912 0.000000 17.449784 -28.311806 0.000000 -16.760085 -43.716904 0.000000 -15.925088 -17.210475 0.000000 8.487968 -9.580260 0.000000 -84.708577 -72.105082 0.000000 31.074346 -7.794526 0.000000 34.736873 -36.095316 0.000000 6.920932 22.467077 0.000000 -1.661614 10.703562 0.000000 -34.810597 53.742425 0.000000 -57.225809 64.358544 0.000000 -5.593997 -51.119900 0.000000 -50.979819 -33.914898 0.000000 20.160048 -69.070534 0.000000 -19.479258 16.331708 0.000000 35.269327 15.729630 0.000000 31.380479 -0.347440 0.000000 20.274780 -12.544716 0.000000 10.828757 5.185358 0.000000 65.262732 11.859140 0.000000 2.319380 17.568269 0.000000 32.297644 -5.726361 0.000000 3.362709 -48.598509 0.000000 -2.074229 61.327806 0.000000 10.539370 2.027920 0.000000 -18.506636 -67.324617 0.000000 7.588724 -40.407047 0.000000 13.460133 -7.860322 0.000000 66.739136 -6.442157 0.000000 27.567770 26.899020 0.000000 42.688599 -10.849309 0.000000 14.594601 -31.755312 0.000000 11.092730 36.040490 0.000000 2.674757 13.263781 0.000000 56.195230 8.807233 0.000000 -15.146710 18.736768 0.000000 11.694465 5.557781 0.000000 13.622118 -8.115701 0.000000 -3.780217 15.799360 0.000000 -13.370880 15.805680 0.000000 -17.065142 -33.067693 0.000000 2.835787 -29.825826 0.000000 3.036046 6.125523 0.000000 6.078667 33.436495 0.000000 -7.412686 7.349784 0.000000 13.736582 3.762969 0.000000 -8.161066 24.945277 0.000000 -4.454236 9.103574 0.000000 -9.812917 7.516116 0.000000 -1.573704 -21.545527 0.000000 -15.080660 -6.425528 0.000000 6.656669 6.733424 0.000000 13.169126 -1.895230 0.000000 6.230626 5.345721 0.000000 19.861330 11.995039 0.000000 5.467688 -7.641189 0.000000 2.701526 -17.596041 0.000000 9.382669 -0.942090 0.000000 5.657251 -2.054375 0.000000 -6.725551 -11.215433 0.000000 -14.639291 -0.384913 0.000000 5.464725 22.491283 0.000000 15.239932 -27.956348 0.000000 0.945318 -34.567224 0.000000 7.584817 26.644657 0.000000 16.975499 2.868325 0.000000 38.075210 0.949435 0.000000 20.796835 -56.728494 0.000000 0.406808 -8.686751 0.000000 -4.263924 -8.900432 0.000000 -6.527778 15.198441 0.000000 12.663861 13.446597 0.000000 -19.481997 -29.806229 0.000000 0.920664 -10.091671 0.000000 -10.446383 -14.063693 0.000000 22.470802 -22.344018 0.000000 -7.948912 -34.919239 0.000000 -11.091458 -0.777610 0.000000 -3.041007 -3.262477 0.000000 20.293624 -28.156291 0.000000 6.221603 -11.830499 0.000000 -17.328860 42.677528 0.000000 -27.640020 19.915111 0.000000 30.675792 15.985846 0.000000 -6.206338 18.070505 0.000000 5.453185 -4.082794 0.000000 -21.050065 46.187523 0.000000 -22.334109 -1.685603 0.000000 -4.899265 -19.792460 0.000000 7.783351 22.598186 0.000000 -8.850206 13.126055 0.000000 -23.173746 3.354204 0.000000 23.447920 -8.944622 0.000000 -10.397983 3.698257 0.000000 27.746535 3.268638 0.000000 17.305851 -20.068073 0.000000 23.036061 3.848690 0.000000 11.944615 28.709463 0.000000 23.681344 -5.619481 0.000000 18.962371 4.592137 0.000000 22.672730 5.254242 0.000000 31.934496 9.923091 0.000000 0.460292 -2.768528 0.000000 17.944128 -3.795369 0.000000 -16.905116 -3.944712 0.000000 -35.792808 19.367054 0.000000 -41.019579 -25.998390 0.000000 -27.929056 -9.875114 0.000000 -25.423478 62.553482 0.000000 -20.843402 -19.228671 0.000000 10.910370 -21.936605 0.000000 -6.379469 13.506551 0.000000 5.604018 28.751553 0.000000 13.017637 7.625081 0.000000 4.294273 -12.266747 0.000000 -1.993052 31.359908 0.000000 -0.733375 30.405967 0.000000 11.344012 12.727586 0.000000 17.041398 6.199623 0.000000 -28.306203 66.804833 0.000000 -35.310729 27.199997 0.000000 11.552421 -13.265727 0.000000 -8.964284 -29.023898 0.000000 36.619839 -5.878278 0.000000 -6.575578 50.127761 0.000000 14.903566 -43.968503 0.000000 -63.578108 27.206985 0.000000 8.972239 13.064371 0.000000 -34.039462 -79.395960 0.000000 0.222294 -11.444567 0.000000 -36.370927 -26.689380 0.000000 62.732615 47.492795 0.000000 -1.283971 -60.076730 0.000000 -35.738203 -61.575901 0.000000 16.770067 37.500171 0.000000 -13.545290 24.381402 0.000000 42.855650 4.093730 0.000000 -15.674658 1.858115 0.000000 33.172114 27.486239 0.000000 -3.693165 -44.955595 0.000000 -20.079088 -3.380180 0.000000 14.440853 -31.185421 0.000000 13.571559 -15.617802 0.000000 73.185210 -15.132370 0.000000 19.623548 38.006912 0.000000 25.562381 72.582391 0.000000 15.772317 -23.486470 0.000000 30.949514 -9.453993 0.000000 35.130253 -3.002790 0.000000 17.375211 34.853613 0.000000 -7.057609 18.812963 0.000000 -29.498770 -15.321968 0.000000 7.882030 15.201078 0.000000 -9.922927 100.294402 0.000000 25.671507 16.458442 0.000000 12.256247 -84.493299 0.000000 62.739173 32.064640 0.000000 32.271167 -65.594871 0.000000 41.072173 23.585058 0.000000 32.652267 98.944435 0.000000 -24.561391 -25.041425 0.000000 -6.203333 -74.894862 0.000000 85.011680 -25.202220 0.000000 -60.316881 57.601430 0.000000 23.105894 -59.494076 0.000000 -67.163026 25.337618 0.000000 20.491859 122.023816 0.000000 60.677653 155.457547 0.000000 71.453514 201.575341 0.000000 -28.874229 -48.628331 0.000000 5.987364 -124.096153 0.000000 -100.844573 48.003156 0.000000 -101.305160 46.485280 0.000000 -55.820550 2.542126 0.000000 69.808279 12.927782 0.000000 -72.199193 -4.428887 0.000000 8.853539 -52.694349 0.000000 67.425927 -26.114361 0.000000 58.494366 -0.192825 0.000000 73.718299 -31.249052 0.000000 65.229546 -15.611802 0.000000 26.238532 -42.549042 0.000000 -8.384959 -33.843475 0.000000 -15.261736 -6.338685 0.000000 -20.304218 -12.197601 0.000000 -24.378106 17.712468 0.000000 -47.776079 35.853102 0.000000 -18.160532 -4.811839 0.000000 -6.153413 19.674800 0.000000 -22.883692 30.805286 0.000000 -28.113261 46.535789 0.000000 -34.749605 14.042605 0.000000 4.154964 26.709319 0.000000 -16.320544 23.809901 0.000000 -36.046946 -39.529153 0.000000 -21.792550 -101.043712 0.000000 2.025860 -81.857745 0.000000 -6.048030 -14.820460 0.000000 20.746512 -21.225821 0.000000 12.292478 8.009273 0.000000 -19.640372 -2.591340 0.000000 21.414299 -15.412342 0.000000 13.295929 -21.664857 0.000000 17.717620 -35.547492 0.000000 24.099069 -27.185025 0.000000 17.159800 -22.150841 0.000000 41.641527 -27.079288 0.000000 -10.165910 16.864946 0.000000 39.199715 56.584218 0.000000 3.448613 14.215783 0.000000 28.419432 -32.034904 0.000000 26.593670 -58.893046 0.000000 -22.787132 -63.434020 0.000000 -56.722352 10.471534 0.000000 -45.009976 15.666959 0.000000 -68.792707 12.731441 0.000000 -39.274852 2.339033 0.000000 -14.464732 -10.620243 0.000000 -56.007783 -20.970179 0.000000 -15.729156 17.087392 0.000000 -37.930576 -12.400636 0.000000 