# vtk DataFile Version 2.0
Comment goes here
ASCII

DATASET STRUCTURED_POINTS
FIELD FieldData 1
TIME 1 1 double
0.08800000
DIMENSIONS    256   32   1

ORIGIN    0.000   0.000   0.000
SPACING   0.0078125 0.0078125   1.000

POINT_DATA   8192
VECTORS u double

-0.022186 0.000009 0.000000 -0.067497 0.000009 0.000000 -0.134002 0.000009 0.000000 -0.217675 0.000009 0.000000 -0.323708 0.000010 0.000000 -0.423119 0.000012 0.000000 -0.492594 0.000016 0.000000 -0.458027 0.000007 0.000000 -0.508558 0.000001 0.000000 -0.489425 -0.000005 0.000000 -0.557583 -0.000008 0.000000 -0.610048 -0.000013 0.000000 -0.642446 -0.000015 0.000000 -0.782216 -0.000004 0.000000 -0.830358 -0.000005 0.000000 -0.739849 -0.000006 0.000000 -0.917949 -0.000003 0.000000 -0.859662 -0.000003 0.000000 -0.862012 -0.000005 0.000000 -0.936256 -0.000002 0.000000 -0.596968 -0.000002 0.000000 -0.687985 0.000005 0.000000 -0.676722 0.000002 0.000000 -0.341259 0.000001 0.000000 -0.584310 -0.000007 0.000000 -0.369383 -0.000010 0.000000 -0.372189 0.000004 0.000000 -0.491665 0.000012 0.000000 -0.240603 0.000024 0.000000 -0.494350 0.000001 0.000000 -0.267335 0.000003 0.000000 -0.351422 0.000007 0.000000 -0.381940 -0.000009 0.000000 -0.201350 0.000021 0.000000 -0.414801 0.000001 0.000000 -0.205221 0.000019 0.000000 -0.317741 0.000016 0.000000 -0.300464 -0.000022 0.000000 -0.160505 0.000047 0.000000 -0.349378 0.000006 0.000000 -0.147175 0.000048 0.000000 -0.283023 0.000040 0.000000 -0.223756 -0.000016 0.000000 -0.131965 0.000093 0.000000 -0.283047 0.000027 0.000000 -0.103015 0.000117 0.000000 -0.241452 0.000093 0.000000 -0.160120 -0.000002 0.000000 -0.107828 0.000170 0.000000 -0.224421 -0.000044 0.000000 -0.065891 0.000161 0.000000 -0.202528 0.000063 0.000000 -0.104752 -0.000027 0.000000 -0.093389 0.000168 0.000000 -0.170037 -0.000195 0.000000 -0.038931 0.000088 0.000000 -0.164071 -0.000212 0.000000 -0.061071 -0.000537 0.000000 -0.084189 -0.000444 0.000000 -0.122649 -0.000942 0.000000 -0.014744 -0.000726 0.000000 -0.130060 -0.001887 0.000000 -0.021699 -0.006404 0.000000 -0.063646 -0.001180 0.000000 -0.073829 0.008669 0.000000 -0.000971 0.002816 0.000000 -0.095860 -0.001878 0.000000 0.005265 0.000756 0.000000 -0.056118 0.000960 0.000000 -0.040335 0.001629 0.000000 0.017162 0.000523 0.000000 -0.065333 0.000231 0.000000 0.027264 0.000420 0.000000 -0.039401 -0.000088 0.000000 -0.006345 0.000257 0.000000 0.028604 -0.000023 0.000000 -0.035254 -0.000062 0.000000 0.045954 0.000104 0.000000 -0.019374 -0.000093 0.000000 0.022233 0.000056 0.000000 0.038077 0.000039 0.000000 -0.009001 -0.000103 0.000000 0.061816 0.000105 0.000000 -0.001609 -0.000089 0.000000 0.047023 -0.000015 0.000000 0.042398 0.000033 0.000000 0.015625 -0.000214 0.000000 0.073154 0.000022 0.000000 0.016108 -0.000275 0.000000 0.065818 -0.000416 0.000000 0.047995 -0.000434 0.000000 0.037193 -0.000987 0.000000 0.084918 -0.000761 0.000000 0.032291 -0.001362 0.000000 0.084240 -0.003677 0.000000 0.061167 -0.001308 0.000000 0.061526 0.003996 0.000000 0.091315 0.002143 0.000000 0.049008 -0.000095 0.000000 0.094825 0.000856 0.000000 0.065041 0.000851 0.000000 0.074036 0.001357 0.000000 0.097412 0.000519 0.000000 0.061129 0.000302 0.000000 0.103043 0.000339 0.000000 0.071543 -0.000061 0.000000 0.088386 0.000235 0.000000 0.100858 -0.000042 0.000000 0.074240 -0.000021 0.000000 0.110004 0.000053 0.000000 0.080536 -0.000097 0.000000 0.100097 0.000033 0.000000 0.104364 -0.000005 0.000000 0.085122 -0.000084 0.000000 0.116926 0.000085 0.000000 0.087839 -0.000079 0.000000 0.111055 0.000015 0.000000 0.105674 0.000025 0.000000 0.096327 -0.000198 0.000000 0.121827 0.000007 0.000000 0.096246 -0.000281 0.000000 0.119003 -0.000375 0.000000 0.110155 -0.000432 0.000000 0.105975 -0.001002 0.000000 0.128155 -0.000740 0.000000 0.104020 -0.001195 0.000000 0.128261 -0.002503 0.000000 0.117976 -0.001515 0.000000 0.118919 0.001529 0.000000 0.131934 0.001734 0.000000 0.112399 0.000849 0.000000 0.131993 0.000956 0.000000 0.119262 0.000813 0.000000 0.121820 0.001222 0.000000 0.132629 0.000449 0.000000 0.115762 0.000320 0.000000 0.134567 0.000248 0.000000 0.120579 -0.000101 0.000000 0.127581 0.000175 0.000000 0.132940 -0.000119 0.000000 0.121089 -0.000042 0.000000 0.136853 -0.000002 0.000000 0.124269 -0.000104 0.000000 0.132026 0.000034 0.000000 0.134313 -0.000017 0.000000 0.124851 -0.000050 0.000000 0.140297 0.000092 0.000000 0.126657 -0.000063 0.000000 0.137021 0.000046 0.000000 0.134876 0.000015 0.000000 0.129872 -0.000180 0.000000 0.142195 0.000016 0.000000 0.130615 -0.000295 0.000000 0.140177 -0.000339 0.000000 0.137697 -0.000438 0.000000 0.133851 -0.001005 0.000000 0.146116 -0.000694 0.000000 0.134140 -0.001149 0.000000 0.145536 -0.001998 0.000000 0.142379 -0.001625 0.000000 0.141751 0.000399 0.000000 0.148945 0.001595 0.000000 0.138660 0.001303 0.000000 0.146569 0.000997 0.000000 0.142291 0.000842 0.000000 0.140583 0.001173 0.000000 0.147471 0.000446 0.000000 0.138095 0.000392 0.000000 0.146962 0.000255 0.000000 0.141116 -0.000038 0.000000 0.142810 0.000201 0.000000 0.146609 -0.000085 0.000000 0.139788 0.000019 0.000000 0.147470 0.000033 0.000000 0.142336 -0.000065 0.000000 0.144099 0.000058 0.000000 0.147371 0.000005 0.000000 0.140376 -0.000032 0.000000 0.149318 0.000112 0.000000 0.142478 -0.000050 0.000000 0.146522 0.000066 0.000000 0.147143 0.000036 0.000000 0.142598 -0.000143 0.000000 0.149941 0.000067 0.000000 0.144315 -0.000254 0.000000 0.147707 -0.000265 0.000000 0.148850 -0.000406 0.000000 0.144118 -0.000961 0.000000 0.152833 -0.000636 0.000000 0.145798 -0.001143 0.000000 0.151484 -0.001772 0.000000 0.151914 -0.001673 0.000000 0.149866 -0.000095 0.000000 0.155318 0.001544 0.000000 0.148402 0.001481 0.000000 0.151362 0.000952 0.000000 0.150988 0.000862 0.000000 0.146842 0.001123 0.000000 0.152870 0.000372 0.000000 0.145862 0.000428 0.000000 0.150764 0.000162 0.000000 0.148569 -0.000052 0.000000 0.147430 0.000142 0.000000 0.151545 -0.000197 0.000000 0.145873 0.000026 0.000000 0.150422 -0.000110 0.000000 0.148651 -0.000134 0.000000 0.147286 -0.000041 0.000000 0.151842 -0.000189 0.000000 0.145027 -0.000046 0.000000 0.151464 -0.000135 0.000000 0.147636 -0.000121 0.000000 0.148423 -0.000071 0.000000 0.150862 -0.000151 0.000000 0.145725 -0.000042 0.000000 0.151206 -0.000118 0.000000 0.147997 -0.000079 0.000000 0.148275 -0.000067 0.000000 0.151178 -0.000101 0.000000 0.145330 -0.000034 0.000000 0.152245 -0.000093 0.000000 0.147015 -0.000058 0.000000 0.149475 -0.000066 0.000000 0.150091 -0.000088 0.000000 0.146450 -0.000049 0.000000 0.151868 -0.000096 0.000000 0.147215 -0.000056 0.000000 0.149400 -0.000074 0.000000 0.150238 -0.000074 0.000000 0.146422 -0.000048 0.000000 0.152612 -0.000082 0.000000 0.145977 -0.000039 0.000000 0.150601 -0.000064 0.000000 0.149064 -0.000055 0.000000 0.147544 -0.000040 0.000000 0.151779 -0.000071 0.000000 0.146081 -0.000035 0.000000 0.150341 -0.000064 0.000000 0.149007 -0.000053 0.000000 0.147162 -0.000045 0.000000 0.151808 -0.000065 0.000000 0.144953 -0.000033 0.000000 0.150958 -0.000055 0.000000 0.147624 -0.000039 0.000000 0.147750 -0.000035 0.000000 0.150437 -0.000045 0.000000 0.144052 -0.000022 0.000000 0.149313 -0.000036 0.000000 0.147131 -0.000022 0.000000 0.151310 -0.000016 0.000000 0.146976 -0.000018 0.000000 0.116899 0.000002 0.000000 0.088692 0.000007 0.000000 0.064250 0.000010 0.000000 0.039607 0.000010 0.000000 0.013809 0.000010 0.000000 
-0.003647 0.040663 0.000000 -0.049065 0.055917 0.000000 -0.108241 0.075098 0.000000 -0.195550 0.094862 0.000000 -0.297106 0.102732 0.000000 -0.408281 0.084457 0.000000 -0.458019 0.017471 0.000000 -0.429657 0.007989 0.000000 -0.469455 0.015698 0.000000 -0.467287 0.024507 0.000000 -0.527131 0.060303 0.000000 -0.613009 0.042416 0.000000 -0.607473 0.086066 0.000000 -0.891549 0.093949 0.000000 -0.898907 -0.021184 0.000000 -0.794274 0.043792 0.000000 -0.946739 0.059905 0.000000 -0.863446 -0.027968 0.000000 -0.866719 0.038293 0.000000 -0.927693 -0.132526 0.000000 -0.634735 -0.124135 0.000000 -0.605352 0.039884 0.000000 -0.686726 -0.173361 0.000000 -0.293093 -0.046206 0.000000 -0.573316 0.014050 0.000000 -0.305560 -0.106077 0.000000 -0.352597 0.061143 0.000000 -0.452919 -0.065779 0.000000 -0.204701 0.001368 0.000000 -0.461721 0.013361 0.000000 -0.227474 -0.071466 0.000000 -0.321899 0.057306 0.000000 -0.359673 -0.075049 0.000000 -0.163181 0.016448 0.000000 -0.395130 0.001931 0.000000 -0.168409 -0.048512 0.000000 -0.298795 0.047633 0.000000 -0.279463 -0.078649 0.000000 -0.131116 0.024501 0.000000 -0.334557 -0.006668 0.000000 -0.117807 -0.033133 0.000000 -0.269047 0.038323 0.000000 -0.205104 -0.075561 0.000000 -0.108821 0.029735 0.000000 -0.272495 -0.014463 0.000000 -0.079942 -0.020682 0.000000 -0.231023 0.028636 0.000000 -0.144190 -0.066823 0.000000 -0.089318 0.032331 0.000000 -0.218371 -0.021035 0.000000 -0.046659 -0.010777 0.000000 -0.196283 0.019499 0.000000 -0.089644 -0.054578 0.000000 -0.080880 0.032876 0.000000 -0.165405 -0.027393 0.000000 -0.024631 -0.002781 0.000000 -0.159193 0.010982 0.000000 -0.049306 -0.040347 0.000000 -0.075719 0.030580 0.000000 -0.120920 -0.035421 0.000000 -0.003023 0.003624 0.000000 -0.131661 0.001948 0.000000 -0.012329 -0.040770 0.000000 -0.055235 0.024459 0.000000 -0.071467 -0.020804 0.000000 0.000988 0.014519 0.000000 -0.097655 -0.006054 0.000000 0.013313 -0.019575 0.000000 -0.054381 0.023754 0.000000 -0.040011 -0.034980 0.000000 0.024076 0.012887 0.000000 -0.067637 -0.004983 0.000000 0.033024 -0.012602 0.000000 -0.041090 0.016615 0.000000 -0.004807 -0.033776 0.000000 0.032202 0.014402 0.000000 -0.037781 -0.008776 0.000000 0.048589 -0.007831 0.000000 -0.021580 0.011741 0.000000 0.021970 -0.028667 0.000000 0.040209 0.015666 0.000000 -0.013904 -0.011986 0.000000 0.063913 -0.003567 0.000000 -0.006210 0.007309 0.000000 0.047246 -0.021998 0.000000 0.040663 0.015789 0.000000 0.011140 -0.015555 0.000000 0.072767 -0.000105 0.000000 0.011531 0.003507 0.000000 0.063795 -0.016210 0.000000 0.044725 0.014107 0.000000 0.030728 -0.019253 0.000000 0.083954 0.002121 0.000000 0.023576 -0.000722 0.000000 0.081418 -0.018647 0.000000 0.057412 0.009840 0.000000 0.055674 -0.010155 0.000000 0.084381 0.008745 0.000000 0.040861 -0.002355 0.000000 0.090847 -0.007468 0.000000 0.058911 0.011144 0.000000 0.067173 -0.014831 0.000000 0.094020 0.006853 0.000000 0.052930 -0.002646 0.000000 0.099226 -0.004930 0.000000 0.063648 0.007183 0.000000 0.083063 -0.014442 0.000000 0.095453 0.007002 0.000000 0.066869 -0.004626 0.000000 0.104356 -0.003094 0.000000 0.073267 0.004831 0.000000 0.093401 -0.011881 0.000000 0.098831 0.007482 0.000000 0.076234 -0.006376 0.000000 0.111858 -0.001252 0.000000 0.078963 0.002860 0.000000 0.105226 -0.008874 0.000000 0.097626 0.007443 0.000000 0.088390 -0.008239 0.000000 0.115060 0.000157 0.000000 0.087885 0.001239 0.000000 0.111377 -0.007176 0.000000 0.102033 0.006298 0.000000 0.096343 -0.009826 0.000000 0.121421 0.000582 0.000000 0.092747 -0.000954 0.000000 0.120457 -0.009669 0.000000 0.108808 0.003004 0.000000 0.109803 -0.005078 0.000000 0.121362 0.005200 0.000000 0.102015 0.000631 0.000000 0.123007 -0.002713 0.000000 0.110065 0.005758 0.000000 0.112092 -0.005481 0.000000 0.124692 0.003358 0.000000 0.105451 -0.000763 0.000000 0.126811 -0.002227 0.000000 0.110366 0.003310 0.000000 0.119503 -0.006024 0.000000 0.123644 0.003092 0.000000 0.112017 -0.002029 0.000000 0.127792 -0.001595 0.000000 0.115128 0.002286 0.000000 0.122709 -0.004983 0.000000 0.125590 0.003568 0.000000 0.114544 -0.003050 0.000000 0.132209 -0.000791 0.000000 0.116125 0.001579 0.000000 0.128682 -0.004030 0.000000 0.124440 0.003636 0.000000 0.120656 -0.003805 0.000000 0.132606 -0.000246 0.000000 0.120881 0.000816 0.000000 0.130273 -0.003721 0.000000 0.127776 0.002932 0.000000 0.123040 -0.005048 0.000000 0.136890 -0.000521 0.000000 0.122043 -0.000563 0.000000 0.135705 -0.006143 0.000000 0.131036 0.000131 0.000000 0.131373 -0.002784 0.000000 0.136984 0.003299 0.000000 0.127556 0.002456 0.000000 0.135520 -0.001032 0.000000 0.132046 0.003678 0.000000 0.129718 -0.001451 0.000000 0.137702 0.001565 0.000000 0.127123 0.000544 0.000000 0.137608 -0.001323 0.000000 0.130136 0.001961 0.000000 0.133606 -0.002564 0.000000 0.135790 0.001389 0.000000 0.130187 -0.000437 0.000000 0.137013 -0.001242 0.000000 0.132537 0.001598 0.000000 0.133690 -0.002454 0.000000 0.137535 0.001865 0.000000 0.129613 -0.001013 0.000000 0.139946 -0.000917 0.000000 0.131419 0.001352 0.000000 0.137181 -0.002233 0.000000 0.135941 0.002045 0.000000 0.132973 -0.001505 0.000000 0.139188 -0.000680 0.000000 0.134200 0.000968 0.000000 0.136896 -0.002364 0.000000 0.138373 0.001592 0.000000 0.132910 -0.002786 0.000000 0.142587 -0.001162 0.000000 0.133537 -0.000171 0.000000 0.140837 -0.004782 0.000000 0.139792 -0.000998 0.000000 0.139067 -0.001817 0.000000 0.142908 0.002431 0.000000 0.137133 0.003495 0.000000 0.139494 -0.000550 0.000000 0.140501 0.002973 0.000000 0.135511 0.000150 0.000000 0.142464 0.000735 0.000000 0.134772 0.001397 0.000000 0.140770 -0.001259 0.000000 0.137439 0.001548 0.000000 0.137741 -0.001358 0.000000 0.140288 0.000543 0.000000 0.136186 0.000583 0.000000 0.139364 -0.001503 0.000000 0.138758 0.001422 0.000000 0.136399 -0.001627 0.000000 0.141762 0.000929 0.000000 0.134177 0.000153 0.000000 0.141540 -0.001439 0.000000 0.136576 0.001398 0.000000 0.138651 -0.001678 0.000000 0.139620 0.001194 0.000000 0.136055 -0.000205 0.000000 0.140057 -0.001255 0.000000 0.138125 0.001387 0.000000 0.137278 -0.001653 0.000000 0.141131 0.001369 0.000000 0.134486 -0.000560 0.000000 0.142212 -0.000937 0.000000 0.135995 0.001330 0.000000 0.139595 -0.001602 0.000000 0.138904 0.001422 0.000000 0.136760 -0.000933 0.000000 0.140621 -0.000482 0.000000 0.137421 0.001181 0.000000 0.138315 -0.001586 0.000000 0.140289 0.001413 0.000000 0.135533 -0.001232 0.000000 0.142536 0.000138 0.000000 0.135082 0.000969 0.000000 0.140690 -0.001609 0.000000 0.138005 0.001473 0.000000 0.137837 -0.001396 0.000000 0.140559 0.000657 0.000000 0.136475 0.000687 0.000000 0.139253 -0.001529 0.000000 0.139261 0.001536 0.000000 0.136284 -0.001445 0.000000 0.141943 0.001036 0.000000 0.134262 0.000394 0.000000 0.141247 -0.001392 0.000000 0.136833 0.001565 0.000000 0.138370 -0.001441 0.000000 0.139615 0.001801 0.000000 0.135229 0.000542 0.000000 0.138876 -0.001577 0.000000 0.138906 -0.001022 0.000000 0.142091 0.000062 0.000000 0.141913 0.017187 0.000000 0.114309 0.029146 0.000000 0.092845 0.026334 0.000000 0.070623 0.024555 0.000000 0.051665 0.025232 0.000000 0.026235 0.030908 0.000000 
0.003996 0.075309 0.000000 -0.028047 0.104603 0.000000 -0.078350 0.146494 0.000000 -0.145857 0.188874 0.000000 -0.239173 0.212741 0.000000 -0.337212 0.160925 0.000000 -0.347381 0.021392 0.000000 -0.277536 0.011442 0.000000 -0.319102 0.037631 0.000000 -0.234972 0.057671 0.000000 -0.257298 0.145714 0.000000 -0.177829 0.080329 0.000000 -0.024384 0.278524 0.000000 -0.051547 0.291429 0.000000 -0.025778 -0.097279 0.000000 0.144740 0.047827 0.000000 0.089386 0.069169 0.000000 0.102734 -0.080023 0.000000 0.195280 0.064242 0.000000 -0.097170 -0.231986 0.000000 0.037342 -0.322342 0.000000 -0.067535 0.051996 0.000000 -0.339193 -0.312258 0.000000 -0.124022 -0.113410 0.000000 -0.414386 0.012461 0.000000 -0.193938 -0.220729 0.000000 -0.219855 0.147363 0.000000 -0.382077 -0.147885 0.000000 -0.093486 0.008825 0.000000 -0.400866 0.022774 0.000000 -0.133190 -0.139818 0.000000 -0.258296 0.132205 0.000000 -0.305454 -0.158727 0.000000 -0.085540 0.035478 0.000000 -0.349293 0.005230 0.000000 -0.098758 -0.096316 0.000000 -0.258835 0.111069 0.000000 -0.240762 -0.167700 0.000000 -0.072058 0.055141 0.000000 -0.306859 -0.013303 0.000000 -0.066288 -0.065462 0.000000 -0.249060 0.087337 0.000000 -0.177246 -0.160242 0.000000 -0.068943 0.067484 0.000000 -0.261104 -0.028853 0.000000 -0.045025 -0.041355 0.000000 -0.227516 0.064341 0.000000 -0.125126 -0.141706 0.000000 -0.068687 0.074351 0.000000 -0.219339 -0.042702 0.000000 -0.027654 -0.021926 0.000000 -0.204067 0.043048 0.000000 -0.080456 -0.115430 0.000000 -0.076413 0.075929 0.000000 -0.177666 -0.056444 0.000000 -0.017248 -0.006123 0.000000 -0.177531 0.024463 0.000000 -0.047791 -0.084011 0.000000 -0.089211 0.071170 0.000000 -0.140224 -0.073637 0.000000 -0.010127 0.010015 0.000000 -0.162445 0.007419 0.000000 -0.025997 -0.082830 0.000000 -0.081864 0.057958 0.000000 -0.105383 -0.047554 0.000000 -0.027683 0.029004 0.000000 -0.138646 -0.014203 0.000000 -0.004880 -0.042518 0.000000 -0.093317 0.054283 0.000000 -0.070257 -0.076828 0.000000 -0.001983 0.028150 0.000000 -0.107512 -0.008717 0.000000 0.006440 -0.026128 0.000000 -0.084539 0.037743 0.000000 -0.039004 -0.073035 0.000000 -0.001245 0.032951 0.000000 -0.084229 -0.016450 0.000000 0.015498 -0.016098 0.000000 -0.072438 0.026526 0.000000 -0.015610 -0.061732 0.000000 -0.003530 0.035913 0.000000 -0.063725 -0.023807 0.000000 0.022776 -0.007588 0.000000 -0.060529 0.016578 0.000000 0.004052 -0.046888 0.000000 -0.010338 0.036140 0.000000 -0.042853 -0.032319 0.000000 0.026953 -0.000370 0.000000 -0.047829 0.008697 0.000000 0.016844 -0.033610 0.000000 -0.015340 0.032633 0.000000 -0.025369 -0.040215 0.000000 0.029251 0.006391 0.000000 -0.042305 0.001174 0.000000 0.024989 -0.037512 0.000000 -0.010042 0.024436 0.000000 -0.012493 -0.022972 0.000000 0.016031 0.016957 0.000000 -0.030229 -0.006561 0.000000 0.032366 -0.017194 0.000000 -0.012443 0.024525 0.000000 0.006350 -0.033753 0.000000 0.030044 0.014762 0.000000 -0.014184 -0.004904 0.000000 0.037777 -0.010380 0.000000 -0.006754 0.016102 0.000000 0.020711 -0.031569 0.000000 0.028926 0.016153 0.000000 -0.002724 -0.008925 0.000000 0.040606 -0.006345 0.000000 -0.000155 0.010858 0.000000 0.029996 -0.025531 0.000000 0.026831 0.017162 0.000000 0.006816 -0.013111 0.000000 0.043733 -0.002644 0.000000 0.005414 0.006552 0.000000 0.038252 -0.018648 0.000000 0.023060 0.016862 0.000000 0.017313 -0.017632 0.000000 0.045082 0.000511 0.000000 0.011588 0.003401 0.000000 0.042701 -0.014523 0.000000 0.022871 0.014602 0.000000 0.024574 -0.020390 0.000000 0.045112 0.002856 0.000000 0.013053 -0.000231 0.000000 0.044869 -0.018564 0.000000 0.024345 0.009139 0.000000 0.027155 -0.011025 0.000000 0.035863 0.009522 0.000000 0.019090 -0.000796 0.000000 0.046559 -0.007094 0.000000 0.025855 0.011728 0.000000 0.037946 -0.013405 0.000000 0.044126 0.007090 0.000000 0.027896 -0.001799 0.000000 0.050012 -0.004667 0.000000 0.029467 0.007206 0.000000 0.044761 -0.013103 0.000000 0.042990 0.007368 0.000000 0.033668 -0.004189 0.000000 0.050547 -0.003113 0.000000 0.033040 0.004979 0.000000 0.047817 -0.010428 0.000000 0.041961 0.008148 0.000000 0.037679 -0.006669 0.000000 0.052136 -0.001488 0.000000 0.035084 0.003464 0.000000 0.051221 -0.008269 0.000000 0.040764 0.008041 0.000000 0.042722 -0.008346 0.000000 0.051917 -0.000209 0.000000 0.038295 0.002038 0.000000 0.052177 -0.007235 0.000000 0.041447 0.006795 0.000000 0.044865 -0.010119 0.000000 0.051214 0.000303 0.000000 0.037472 0.000036 0.000000 0.051689 -0.010990 0.000000 0.040088 0.002707 0.000000 0.042803 -0.005549 0.000000 0.044422 0.005412 0.000000 0.040428 0.002768 0.000000 0.051173 -0.003494 0.000000 0.043317 0.006644 0.000000 0.049858 -0.004483 0.000000 0.050303 0.003041 0.000000 0.046038 0.000487 0.000000 0.054171 -0.002758 0.000000 0.045750 0.003964 0.000000 0.053404 -0.005453 0.000000 0.049611 0.003334 0.000000 0.048992 -0.001204 0.000000 0.053908 -0.002317 0.000000 0.047544 0.003258 0.000000 0.053767 -0.004941 0.000000 0.049767 0.004082 0.000000 0.050106 -0.002443 0.000000 0.054612 -0.001694 0.000000 0.047977 0.002715 0.000000 0.055161 -0.004455 0.000000 0.049193 0.004244 0.000000 0.052467 -0.003391 0.000000 0.053888 -0.001160 0.000000 0.049748 0.002039 0.000000 0.054780 -0.004438 0.000000 0.049885 0.003580 0.000000 0.052266 -0.005175 0.000000 0.053071 -0.001263 0.000000 0.047758 0.000606 0.000000 0.053168 -0.008026 0.000000 0.046873 0.000098 0.000000 0.048144 -0.003211 0.000000 0.047747 0.003478 0.000000 0.049004 0.004895 0.000000 0.051705 -0.002416 0.000000 0.050768 0.004845 0.000000 0.053153 -0.000840 0.000000 0.052651 0.001111 0.000000 0.053014 0.002122 0.000000 0.054453 -0.002506 0.000000 0.052409 0.002976 0.000000 0.055091 -0.002707 0.000000 0.052467 0.001358 0.000000 0.054406 0.000950 0.000000 0.053664 -0.002682 0.000000 0.053321 0.002831 0.000000 0.054227 -0.003045 0.000000 0.052968 0.002033 0.000000 0.053900 0.000176 0.000000 0.053872 -0.002533 0.000000 0.052850 0.002768 0.000000 0.054550 -0.003115 0.000000 0.052341 0.002445 0.000000 0.054670 -0.000479 0.000000 0.052875 -0.002188 0.000000 0.053811 0.002700 0.000000 0.053629 -0.003072 0.000000 0.053216 0.002691 0.000000 0.054082 -0.001115 0.000000 0.053327 -0.001603 0.000000 0.053495 0.002558 0.000000 0.054057 -0.002974 0.000000 0.052853 0.002746 0.000000 0.054700 -0.001766 0.000000 0.052563 -0.000757 0.000000 0.054484 0.002251 0.000000 0.053164 -0.002942 0.000000 0.053827 0.002707 0.000000 0.053903 -0.002294 0.000000 0.053255 0.000369 0.000000 0.054130 0.001807 0.000000 0.053596 -0.002987 0.000000 0.053472 0.002798 0.000000 0.054355 -0.002595 0.000000 0.052734 0.001291 0.000000 0.054863 0.001271 0.000000 0.052722 -0.002850 0.000000 0.054245 0.002916 0.000000 0.053433 -0.002727 0.000000 0.053409 0.001958 0.000000 0.054165 0.000663 0.000000 0.053001 -0.002626 0.000000 0.053784 0.002838 0.000000 0.053582 -0.002817 0.000000 0.053087 0.003096 0.000000 0.054659 0.000717 0.000000 0.052617 -0.003713 0.000000 0.054244 -0.003237 0.000000 0.052983 -0.003023 0.000000 0.056716 0.027764 0.000000 0.062457 0.049070 0.000000 0.060802 0.043692 0.000000 0.056117 0.041190 0.000000 0.044285 0.044399 0.000000 0.029196 0.055322 0.000000 
0.046581 0.097905 0.000000 0.030821 0.138262 0.000000 0.013629 0.192908 0.000000 -0.010080 0.255685 0.000000 -0.035329 0.294087 0.000000 -0.073599 0.192665 0.000000 -0.040756 -0.042205 0.000000 -0.010976 -0.020290 0.000000 -0.024103 -0.026867 0.000000 0.016896 -0.037297 0.000000 0.052749 0.003160 0.000000 0.116872 -0.190498 0.000000 0.195096 -0.040216 0.000000 0.211192 0.095344 0.000000 0.238085 -0.217471 0.000000 0.117460 -0.071372 0.000000 0.285106 0.101912 0.000000 0.185394 -0.133862 0.000000 0.210431 0.238197 0.000000 0.251245 0.025411 0.000000 -0.021326 -0.153770 0.000000 0.316947 0.416419 0.000000 0.071205 -0.116875 0.000000 0.119414 0.028986 0.000000 -0.046890 0.083967 0.000000 0.012687 -0.300608 0.000000 0.008067 0.249281 0.000000 -0.062531 -0.192148 0.000000 0.022350 0.020157 0.000000 -0.075139 0.053066 0.000000 0.002774 -0.214036 0.000000 -0.037674 0.229569 0.000000 -0.063368 -0.247804 0.000000 0.006075 0.060287 0.000000 -0.071690 0.015149 0.000000 0.001234 -0.138970 0.000000 -0.051956 0.189636 0.000000 -0.054741 -0.265427 0.000000 0.000892 0.090598 0.000000 -0.069627 -0.012437 0.000000 0.002130 -0.090932 0.000000 -0.060868 0.149281 0.000000 -0.040504 -0.255679 0.000000 -0.007711 0.113593 0.000000 -0.063672 -0.038381 0.000000 -0.001538 -0.054271 0.000000 -0.061017 0.108737 0.000000 -0.030812 -0.225651 0.000000 -0.013217 0.126544 0.000000 -0.060758 -0.062069 0.000000 -0.001833 -0.026048 0.000000 -0.062133 0.072302 0.000000 -0.019739 -0.182232 0.000000 -0.024165 0.130086 0.000000 -0.053230 -0.086558 0.000000 -0.006289 -0.002916 0.000000 -0.057782 0.041526 0.000000 -0.015329 -0.128666 0.000000 -0.033356 0.123012 0.000000 -0.049199 -0.114506 0.000000 -0.009606 0.025845 0.000000 -0.060528 0.017818 0.000000 -0.014439 -0.121350 0.000000 -0.044180 0.103845 0.000000 -0.045832 -0.074985 0.000000 -0.026848 0.047781 0.000000 -0.058728 -0.028856 0.000000 -0.014826 -0.064903 0.000000 -0.046784 0.089131 0.000000 -0.034608 -0.126314 0.000000 -0.016671 0.050143 0.000000 -0.048987 -0.013406 0.000000 -0.010972 -0.035575 0.000000 -0.047073 0.062059 0.000000 -0.024914 -0.117070 0.000000 -0.021611 0.059627 0.000000 -0.042920 -0.025519 0.000000 -0.013765 -0.019623 0.000000 -0.044695 0.042849 0.000000 -0.021959 -0.097575 0.000000 -0.024749 0.063781 0.000000 -0.040666 -0.038292 0.000000 -0.013762 -0.006764 0.000000 -0.044998 0.026032 0.000000 -0.017087 -0.072188 0.000000 -0.032129 0.062694 0.000000 -0.034362 -0.052846 0.000000 -0.017891 0.004871 0.000000 -0.041270 0.013616 0.000000 -0.017985 -0.048699 0.000000 -0.035489 0.056320 0.000000 -0.032739 -0.063844 0.000000 -0.020663 0.019056 0.000000 -0.044430 0.003540 0.000000 -0.018511 -0.050909 0.000000 -0.042908 0.047322 0.000000 -0.035217 -0.036228 0.000000 -0.034339 0.026480 0.000000 -0.041585 -0.018689 0.000000 -0.021237 -0.025254 0.000000 -0.040284 0.037159 0.000000 -0.025697 -0.057318 0.000000 -0.025274 0.027387 0.000000 -0.035825 -0.010380 0.000000 -0.018040 -0.012359 0.000000 -0.038760 0.024249 0.000000 -0.019958 -0.050122 0.000000 -0.028963 0.030437 0.000000 -0.030937 -0.016306 0.000000 -0.021056 -0.005663 0.000000 -0.035606 0.015441 0.000000 -0.020430 -0.038867 0.000000 -0.030018 0.030662 0.000000 -0.029763 -0.023278 0.000000 -0.020878 0.000149 0.000000 -0.035727 0.008340 0.000000 -0.018318 -0.026519 0.000000 -0.034352 0.028382 0.000000 -0.024879 -0.030261 0.000000 -0.024731 0.005883 0.000000 -0.032538 0.003620 0.000000 -0.020967 -0.018459 0.000000 -0.034356 0.024425 0.000000 -0.025484 -0.032067 0.000000 -0.026934 0.012103 0.000000 -0.035565 -0.000710 0.000000 -0.021997 -0.020961 0.000000 -0.041038 0.020718 0.000000 -0.030862 -0.016596 0.000000 -0.037900 0.013265 0.000000 -0.032762 -0.010065 0.000000 -0.025545 -0.009478 0.000000 -0.035967 0.014372 0.000000 -0.022796 -0.023753 0.000000 -0.029584 0.013408 0.000000 -0.028751 -0.006650 0.000000 -0.022316 -0.003798 0.000000 -0.033764 0.008561 0.000000 -0.019047 -0.019547 0.000000 -0.032172 0.014186 0.000000 -0.024557 -0.009585 0.000000 -0.025316 -0.000968 0.000000 -0.030341 0.005017 0.000000 -0.021160 -0.013904 0.000000 -0.031589 0.013706 0.000000 -0.024119 -0.013225 0.000000 -0.024904 0.001804 0.000000 -0.030653 0.002495 0.000000 -0.019953 -0.009710 0.000000 -0.033845 0.012134 0.000000 -0.020529 -0.014958 0.000000 -0.028383 0.004181 0.000000 -0.027639 0.000557 0.000000 -0.023118 -0.006873 0.000000 -0.032576 0.010244 0.000000 -0.022570 -0.014815 0.000000 -0.030171 0.006872 0.000000 -0.030760 -0.001038 0.000000 -0.024591 -0.008759 0.000000 -0.039380 0.009016 0.000000 -0.029362 -0.007118 0.000000 -0.039564 0.005674 0.000000 -0.028305 -0.004295 0.000000 -0.028452 -0.003921 0.000000 -0.033168 0.004993 0.000000 -0.022393 -0.008436 0.000000 -0.031551 0.005385 0.000000 -0.024974 -0.003324 0.000000 -0.024969 -0.001035 0.000000 -0.030560 0.002728 0.000000 -0.019689 -0.006425 0.000000 -0.033166 0.005801 0.000000 -0.021085 -0.004734 0.000000 -0.027887 0.000206 0.000000 -0.027234 0.001739 0.000000 -0.022386 -0.004677 0.000000 -0.031406 0.005526 0.000000 -0.021486 -0.005857 0.000000 -0.027381 0.001213 0.000000 -0.027797 0.000803 0.000000 -0.021558 -0.003450 0.000000 -0.032929 0.004739 0.000000 -0.018875 -0.006200 0.000000 -0.030609 0.002039 0.000000 -0.024954 0.000075 0.000000 -0.024812 -0.002501 0.000000 -0.031019 0.004106 0.000000 -0.021691 -0.005972 0.000000 -0.031918 0.003346 0.000000 -0.028059 -0.000269 0.000000 -0.026555 -0.003897 0.000000 -0.037995 0.004026 0.000000 -0.029288 -0.002691 0.000000 -0.040329 0.001571 0.000000 -0.025871 -0.000462 0.000000 -0.030628 -0.002314 0.000000 -0.031219 0.001525 0.000000 -0.023161 -0.001733 0.000000 -0.032322 0.000874 0.000000 -0.022840 -0.000404 0.000000 -0.027008 -0.000655 0.000000 -0.028559 0.000910 0.000000 -0.021007 -0.001416 0.000000 -0.033213 0.001228 0.000000 -0.019410 -0.000613 0.000000 -0.029892 -0.000417 0.000000 -0.025403 0.000858 0.000000 -0.023915 -0.001274 0.000000 -0.030952 0.001256 0.000000 -0.020611 -0.000751 0.000000 -0.029339 -0.000388 0.000000 -0.026211 0.000719 0.000000 -0.023293 -0.001169 0.000000 -0.032140 0.001074 0.000000 -0.018668 -0.000740 0.000000 -0.032244 -0.000396 0.000000 -0.023338 0.000634 0.000000 -0.026295 -0.001058 0.000000 -0.029373 0.000916 0.000000 -0.020816 -0.000671 0.000000 -0.031214 -0.000350 0.000000 -0.024047 0.000600 0.000000 -0.025646 -0.000960 0.000000 -0.030012 0.000778 0.000000 -0.019798 -0.000643 0.000000 -0.033537 -0.000265 0.000000 -0.020994 0.000581 0.000000 -0.028821 -0.000929 0.000000 -0.026902 0.000675 0.000000 -0.022894 -0.000659 0.000000 -0.031703 -0.000090 0.000000 -0.021532 0.000628 0.000000 -0.028306 -0.000951 0.000000 -0.027463 0.000714 0.000000 -0.022214 -0.000657 0.000000 -0.033037 0.000149 0.000000 -0.018900 0.000698 0.000000 -0.031217 -0.000910 0.000000 -0.024442 0.000825 0.000000 -0.025055 -0.000609 0.000000 -0.030369 0.000304 0.000000 -0.020340 0.000801 0.000000 -0.030212 -0.001011 0.000000 -0.025090 0.000984 0.000000 -0.024373 -0.000743 0.000000 -0.030990 0.000725 0.000000 -0.017296 0.001012 0.000000 -0.031250 -0.001162 0.000000 -0.024201 -0.001387 0.000000 -0.036307 -0.002410 0.000000 -0.026829 0.007712 0.000000 0.018389 0.025059 0.000000 0.046294 0.032674 0.000000 0.059148 0.041072 0.000000 0.062160 0.052154 0.000000 0.056107 0.071197 0.000000 