# vtk DataFile Version 2.0
Comment goes here
ASCII

DATASET STRUCTURED_POINTS
FIELD FieldData 1
TIME 1 1 double
0.05000000
DIMENSIONS    256   32   1

ORIGIN    0.000   0.000   0.000
SPACING   0.0078125 0.0078125   1.000

POINT_DATA   8192
VECTORS u double

-0.014300 -0.000004 0.000000 -0.037697 -0.000008 0.000000 -0.072961 -0.000011 0.000000 -0.117858 -0.000019 0.000000 -0.178687 -0.000025 0.000000 -0.240342 -0.000036 0.000000 -0.284789 -0.000038 0.000000 -0.256473 -0.000007 0.000000 -0.301035 -0.000005 0.000000 -0.274159 0.000013 0.000000 -0.319003 0.000026 0.000000 -0.359253 0.000032 0.000000 -0.364454 0.000061 0.000000 -0.477928 0.000065 0.000000 -0.523440 0.000041 0.000000 -0.424260 0.000033 0.000000 -0.551101 0.000015 0.000000 -0.510786 -0.000010 0.000000 -0.496008 -0.000021 0.000000 -0.602438 -0.000019 0.000000 -0.356606 -0.000013 0.000000 -0.394853 -0.000021 0.000000 -0.429117 -0.000048 0.000000 -0.191488 -0.000033 0.000000 -0.341418 0.000001 0.000000 -0.210093 0.000007 0.000000 -0.203603 -0.000001 0.000000 -0.291847 -0.000024 0.000000 -0.118143 -0.000020 0.000000 -0.288140 0.000005 0.000000 -0.138571 0.000005 0.000000 -0.193702 -0.000014 0.000000 -0.216581 -0.000029 0.000000 -0.096874 -0.000027 0.000000 -0.234357 -0.000023 0.000000 -0.099479 -0.000009 0.000000 -0.170910 -0.000000 0.000000 -0.163330 0.000003 0.000000 -0.073142 0.000037 0.000000 -0.191908 0.000005 0.000000 -0.063707 0.000031 0.000000 -0.148739 0.000044 0.000000 -0.113971 0.000008 0.000000 -0.057546 0.000065 0.000000 -0.149640 0.000014 0.000000 -0.038180 0.000044 0.000000 -0.122621 0.000028 0.000000 -0.074628 -0.000034 0.000000 -0.044068 0.000064 0.000000 -0.113465 -0.000034 0.000000 -0.017602 0.000061 0.000000 -0.099184 0.000050 0.000000 -0.041726 -0.000012 0.000000 -0.036261 0.000124 0.000000 -0.080808 -0.000084 0.000000 -0.003691 0.000043 0.000000 -0.076653 -0.000087 0.000000 -0.016824 -0.000265 0.000000 -0.030963 -0.000191 0.000000 -0.052994 -0.000480 0.000000 0.008373 -0.000394 0.000000 -0.056807 -0.000655 0.000000 0.004344 -0.002797 0.000000 -0.020043 -0.000653 0.000000 -0.025530 0.004452 0.000000 0.014310 0.001592 0.000000 -0.037659 -0.000948 0.000000 0.018447 0.000350 0.000000 -0.015139 0.000317 0.000000 -0.006732 0.000675 0.000000 0.023789 0.000190 0.000000 -0.020331 0.000108 0.000000 0.029849 0.000156 0.000000 -0.005795 -0.000090 0.000000 0.011282 0.000076 0.000000 0.029037 -0.000051 0.000000 -0.004277 -0.000051 0.000000 0.038468 0.000022 0.000000 0.004530 -0.000028 0.000000 0.025597 0.000044 0.000000 0.033484 0.000065 0.000000 0.009294 0.000027 0.000000 0.045734 0.000109 0.000000 0.013451 0.000033 0.000000 0.037789 0.000037 0.000000 0.035476 0.000072 0.000000 0.021825 -0.000082 0.000000 0.050523 0.000027 0.000000 0.022346 -0.000130 0.000000 0.046659 -0.000205 0.000000 0.038417 -0.000212 0.000000 0.032477 -0.000511 0.000000 0.055830 -0.000392 0.000000 0.030410 -0.000530 0.000000 0.055133 -0.001581 0.000000 0.044607 -0.000776 0.000000 0.044167 0.001815 0.000000 0.058265 0.001028 0.000000 0.038382 -0.000066 0.000000 0.059770 0.000369 0.000000 0.046632 0.000286 0.000000 0.049797 0.000571 0.000000 0.061228 0.000234 0.000000 0.044099 0.000186 0.000000 0.063476 0.000216 0.000000 0.049502 0.000042 0.000000 0.056215 0.000174 0.000000 0.062493 0.000077 0.000000 0.050006 0.000063 0.000000 0.066168 0.000115 0.000000 0.053417 0.000045 0.000000 0.061143 0.000076 0.000000 0.064086 0.000090 0.000000 0.054584 0.000013 0.000000 0.069117 0.000093 0.000000 0.056299 0.000020 0.000000 0.065891 0.000017 0.000000 0.064469 0.000064 0.000000 0.059292 -0.000088 0.000000 0.070856 0.000027 0.000000 0.059760 -0.000115 0.000000 0.068995 -0.000169 0.000000 0.066364 -0.000179 0.000000 0.063096 -0.000468 0.000000 0.073586 -0.000326 0.000000 0.062880 -0.000442 0.000000 0.072844 -0.001036 0.000000 0.069559 -0.000843 0.000000 0.068741 0.000676 0.000000 0.074954 0.000839 0.000000 0.066250 0.000316 0.000000 0.074242 0.000297 0.000000 0.069986 0.000201 0.000000 0.069472 0.000460 0.000000 0.075402 0.000093 0.000000 0.067393 0.000110 0.000000 0.075420 0.000069 0.000000 0.070057 -0.000091 0.000000 0.071762 0.000069 0.000000 0.075245 -0.000115 0.000000 0.069285 -0.000043 0.000000 0.076107 -0.000051 0.000000 0.071274 -0.000114 0.000000 0.073340 -0.000029 0.000000 0.075825 -0.000105 0.000000 0.070331 -0.000085 0.000000 0.077615 -0.000057 0.000000 0.071770 -0.000126 0.000000 0.075492 -0.000073 0.000000 0.075777 -0.000106 0.000000 0.072214 -0.000173 0.000000 0.078262 -0.000095 0.000000 0.073157 -0.000234 0.000000 0.076612 -0.000235 0.000000 0.076783 -0.000300 0.000000 0.073455 -0.000525 0.000000 0.079988 -0.000382 0.000000 0.074156 -0.000503 0.000000 0.078769 -0.000878 0.000000 0.078341 -0.000896 0.000000 0.076739 0.000199 0.000000 0.080810 0.000751 0.000000 0.075553 0.000484 0.000000 0.078886 0.000259 0.000000 0.077947 0.000192 0.000000 0.075705 0.000427 0.000000 0.080252 0.000046 0.000000 0.074983 0.000113 0.000000 0.079223 0.000032 0.000000 0.076923 -0.000099 0.000000 0.076637 0.000056 0.000000 0.079542 -0.000138 0.000000 0.075279 -0.000029 0.000000 0.079118 -0.000061 0.000000 0.076963 -0.000114 0.000000 0.076771 -0.000029 0.000000 0.079562 -0.000112 0.000000 0.074797 -0.000075 0.000000 0.079716 -0.000054 0.000000 0.076292 -0.000118 0.000000 0.077549 -0.000059 0.000000 0.078847 -0.000100 0.000000 0.075306 -0.000157 0.000000 0.079538 -0.000076 0.000000 0.076653 -0.000224 0.000000 0.077582 -0.000210 0.000000 0.079248 -0.000293 0.000000 0.075416 -0.000506 0.000000 0.080648 -0.000355 0.000000 0.076775 -0.000506 0.000000 0.078902 -0.000826 0.000000 0.080217 -0.000918 0.000000 0.077762 0.000051 0.000000 0.081242 0.000733 0.000000 0.077449 0.000533 0.000000 0.078471 0.000253 0.000000 0.079607 0.000237 0.000000 0.075963 0.000430 0.000000 0.080490 0.000056 0.000000 0.076242 0.000163 0.000000 0.078498 0.000038 0.000000 0.078479 -0.000057 0.000000 0.076403 0.000068 0.000000 0.080046 -0.000120 0.000000 0.076245 0.000019 0.000000 0.078481 -0.000056 0.000000 0.078698 -0.000067 0.000000 0.076383 -0.000007 0.000000 0.080570 -0.000092 0.000000 0.075726 -0.000010 0.000000 0.079404 -0.000055 0.000000 0.078165 -0.000047 0.000000 0.077168 -0.000019 0.000000 0.080166 -0.000057 0.000000 0.076061 -0.000005 0.000000 0.079469 -0.000034 0.000000 0.078325 -0.000016 0.000000 0.077121 -0.000005 0.000000 0.080429 -0.000017 0.000000 0.075674 0.000010 0.000000 0.080297 -0.000008 0.000000 0.077599 0.000003 0.000000 0.077956 0.000004 0.000000 0.079836 -0.000006 0.000000 0.076305 0.000006 0.000000 0.080368 -0.000007 0.000000 0.077658 -0.000002 0.000000 0.078148 -0.000004 0.000000 0.080038 -0.000011 0.000000 0.076381 -0.000005 0.000000 0.081209 -0.000014 0.000000 0.076889 -0.000011 0.000000 0.079226 -0.000013 0.000000 0.079424 -0.000013 0.000000 0.077231 -0.000010 0.000000 0.080992 -0.000012 0.000000 0.076931 -0.000006 0.000000 0.079401 -0.000010 0.000000 0.079367 -0.000008 0.000000 0.077163 -0.000008 0.000000 0.081095 -0.000010 0.000000 0.076155 -0.000006 0.000000 0.079941 -0.000008 0.000000 0.078309 -0.000004 0.000000 0.077508 -0.000004 0.000000 0.080076 -0.000004 0.000000 0.075370 -0.000001 0.000000 0.078977 -0.000004 0.000000 0.077469 -0.000001 0.000000 0.079212 -0.000002 0.000000 0.077219 -0.000002 0.000000 0.059387 0.000001 0.000000 0.043983 0.000001 0.000000 0.031451 0.000001 0.000000 0.018310 -0.000000 0.000000 0.005003 -0.000002 0.000000 
-0.002285 0.021347 0.000000 -0.026486 0.029323 0.000000 -0.056868 0.040071 0.000000 -0.104985 0.052846 0.000000 -0.163709 0.061218 0.000000 -0.237668 0.053009 0.000000 -0.267886 0.008023 0.000000 -0.244563 0.008117 0.000000 -0.282737 0.008838 0.000000 -0.271084 0.008995 0.000000 -0.311233 0.042571 0.000000 -0.387202 0.022754 0.000000 -0.358981 0.059404 0.000000 -0.574826 0.079565 0.000000 -0.609290 -0.026794 0.000000 -0.518738 0.013871 0.000000 -0.640564 0.043282 0.000000 -0.579870 -0.027559 0.000000 -0.564717 0.045803 0.000000 -0.633816 -0.069726 0.000000 -0.416823 -0.103796 0.000000 -0.368890 0.036236 0.000000 -0.452786 -0.101740 0.000000 -0.161593 -0.043889 0.000000 -0.349772 0.009311 0.000000 -0.174896 -0.068889 0.000000 -0.195059 0.040877 0.000000 -0.273650 -0.042762 0.000000 -0.098499 -0.001881 0.000000 -0.273224 0.010225 0.000000 -0.117901 -0.047208 0.000000 -0.177244 0.038988 0.000000 -0.207517 -0.048451 0.000000 -0.074287 0.008854 0.000000 -0.226719 0.001274 0.000000 -0.079443 -0.031736 0.000000 -0.161523 0.031921 0.000000 -0.153635 -0.048881 0.000000 -0.055473 0.014328 0.000000 -0.186110 -0.004719 0.000000 -0.047510 -0.021555 0.000000 -0.142335 0.025176 0.000000 -0.104823 -0.045592 0.000000 -0.043410 0.017902 0.000000 -0.145360 -0.009673 0.000000 -0.025204 -0.013464 0.000000 -0.117857 0.018247 0.000000 -0.066480 -0.039320 0.000000 -0.032438 0.019489 0.000000 -0.111041 -0.013275 0.000000 -0.006197 -0.007072 0.000000 -0.096471 0.012122 0.000000 -0.033321 -0.031460 0.000000 -0.028338 0.019707 0.000000 -0.078333 -0.016347 0.000000 0.005104 -0.001973 0.000000 -0.073994 0.006545 0.000000 -0.009965 -0.023047 0.000000 -0.025228 0.018011 0.000000 -0.051687 -0.020056 0.000000 0.016519 0.001763 0.000000 -0.057098 0.001498 0.000000 0.010864 -0.021843 0.000000 -0.013789 0.014069 0.000000 -0.022643 -0.011652 0.000000 0.016981 0.008000 0.000000 -0.037340 -0.003600 0.000000 0.024245 -0.011144 0.000000 -0.012853 0.012875 0.000000 -0.005235 -0.018802 0.000000 0.029481 0.006910 0.000000 -0.020354 -0.003012 0.000000 0.034752 -0.007151 0.000000 -0.005413 0.009130 0.000000 0.013845 -0.017363 0.000000 0.032792 0.007707 0.000000 -0.003819 -0.004791 0.000000 0.041757 -0.004384 0.000000 0.005184 0.006397 0.000000 0.027290 -0.014432 0.000000 0.036820 0.008222 0.000000 0.008635 -0.006096 0.000000 0.049149 -0.001954 0.000000 0.012886 0.004010 0.000000 0.040180 -0.010960 0.000000 0.036608 0.008085 0.000000 0.021871 -0.007586 0.000000 0.052527 -0.000177 0.000000 0.022295 0.001858 0.000000 0.047866 -0.008168 0.000000 0.039161 0.006983 0.000000 0.031565 -0.009148 0.000000 0.058082 0.000809 0.000000 0.028466 -0.000044 0.000000 0.056556 -0.008960 0.000000 0.045411 0.004567 0.000000 0.044416 -0.004558 0.000000 0.057492 0.004100 0.000000 0.037361 -0.001056 0.000000 0.060478 -0.003913 0.000000 0.046379 0.005195 0.000000 0.049100 -0.006752 0.000000 0.062347 0.003014 0.000000 0.042663 -0.001010 0.000000 0.064463 -0.002522 0.000000 0.048143 0.003623 0.000000 0.056541 -0.006337 0.000000 0.062369 0.003168 0.000000 0.049371 -0.001792 0.000000 0.066068 -0.001587 0.000000 0.052765 0.002550 0.000000 0.060616 -0.005257 0.000000 0.064274 0.003379 0.000000 0.053062 -0.002506 0.000000 0.069646 -0.000748 0.000000 0.054712 0.001641 0.000000 0.066141 -0.004053 0.000000 0.063272 0.003395 0.000000 0.058618 -0.003263 0.000000 0.070337 -0.000152 0.000000 0.058843 0.000870 0.000000 0.068191 -0.003398 0.000000 0.065553 0.002868 0.000000 0.061468 -0.004016 0.000000 0.073552 -0.000080 0.000000 0.060565 0.000076 0.000000 0.072426 -0.004481 0.000000 0.068328 0.001074 0.000000 0.068076 -0.001851 0.000000 0.073069 0.002228 0.000000 0.064863 0.000598 0.000000 0.073036 -0.001711 0.000000 0.068975 0.002493 0.000000 0.067963 -0.002271 0.000000 0.074832 0.001058 0.000000 0.065581 0.000039 0.000000 0.074979 -0.001304 0.000000 0.068216 0.001689 0.000000 0.071252 -0.002535 0.000000 0.073748 0.001096 0.000000 0.068384 -0.000489 0.000000 0.074783 -0.001051 0.000000 0.070291 0.001256 0.000000 0.071985 -0.002300 0.000000 0.074979 0.001395 0.000000 0.068606 -0.000980 0.000000 0.077079 -0.000767 0.000000 0.069900 0.000938 0.000000 0.074941 -0.002057 0.000000 0.073909 0.001553 0.000000 0.071347 -0.001394 0.000000 0.076769 -0.000515 0.000000 0.072027 0.000641 0.000000 0.075083 -0.001971 0.000000 0.075536 0.001367 0.000000 0.071621 -0.002062 0.000000 0.079117 -0.000602 0.000000 0.071821 0.000250 0.000000 0.077727 -0.003004 0.000000 0.076414 -0.000005 0.000000 0.075758 -0.000979 0.000000 0.078639 0.001474 0.000000 0.074108 0.001442 0.000000 0.076984 -0.001071 0.000000 0.076761 0.001686 0.000000 0.073894 -0.000750 0.000000 0.079128 0.000326 0.000000 0.073115 0.000571 0.000000 0.078287 -0.000982 0.000000 0.074999 0.001146 0.000000 0.075827 -0.001263 0.000000 0.077630 0.000511 0.000000 0.074352 0.000173 0.000000 0.077374 -0.000908 0.000000 0.075917 0.001045 0.000000 0.075116 -0.001323 0.000000 0.078465 0.000868 0.000000 0.073047 -0.000150 0.000000 0.078805 -0.000791 0.000000 0.074394 0.000968 0.000000 0.076713 -0.001314 0.000000 0.076857 0.001042 0.000000 0.074402 -0.000479 0.000000 0.077712 -0.000696 0.000000 0.075539 0.000805 0.000000 0.075792 -0.001427 0.000000 0.077973 0.000877 0.000000 0.073533 -0.001138 0.000000 0.079497 -0.000902 0.000000 0.074518 0.000514 0.000000 0.077598 -0.002563 0.000000 0.078194 -0.000480 0.000000 0.076714 -0.000444 0.000000 0.079004 0.001020 0.000000 0.076093 0.001932 0.000000 0.076334 -0.000960 0.000000 0.078514 0.001402 0.000000 0.074013 -0.000037 0.000000 0.079259 -0.000164 0.000000 0.074466 0.001111 0.000000 0.077354 -0.001123 0.000000 0.076674 0.000948 0.000000 0.075426 -0.000725 0.000000 0.078119 -0.000069 0.000000 0.075401 0.000799 0.000000 0.076528 -0.001288 0.000000 0.077790 0.000974 0.000000 0.074553 -0.000938 0.000000 0.079539 0.000229 0.000000 0.074035 0.000579 0.000000 0.078296 -0.001273 0.000000 0.076429 0.001070 0.000000 0.076165 -0.001015 0.000000 0.078320 0.000495 0.000000 0.075205 0.000349 0.000000 0.077509 -0.001165 0.000000 0.077456 0.001160 0.000000 0.075249 -0.001055 0.000000 0.079459 0.000706 0.000000 0.073945 0.000080 0.000000 0.079181 -0.000970 0.000000 0.075893 0.001175 0.000000 0.076906 -0.001112 0.000000 0.078035 0.000819 0.000000 0.075394 -0.000258 0.000000 0.078414 -0.000684 0.000000 0.076819 0.001109 0.000000 0.076224 -0.001193 0.000000 0.079112 0.000872 0.000000 0.074592 -0.000589 0.000000 0.080149 -0.000268 0.000000 0.075220 0.000981 0.000000 0.078152 -0.001280 0.000000 0.077683 0.000985 0.000000 0.076302 -0.000794 0.000000 0.079130 0.000139 0.000000 0.076162 0.000791 0.000000 0.077479 -0.001228 0.000000 0.078564 0.001110 0.000000 0.075389 -0.000872 0.000000 0.080214 0.000494 0.000000 0.074558 0.000571 0.000000 0.079031 -0.001085 0.000000 0.076717 0.001213 0.000000 0.076828 -0.000887 0.000000 0.078462 0.001065 0.000000 0.075040 0.000549 0.000000 0.077406 -0.001054 0.000000 0.077511 -0.000119 0.000000 0.078460 0.000123 0.000000 0.079241 0.009911 0.000000 0.061944 0.016619 0.000000 0.049499 0.013969 0.000000 0.036964 0.012838 0.000000 0.026982 0.013224 0.000000 0.013123 0.016303 0.000000 
-0.001161 0.039605 0.000000 -0.018415 0.054575 0.000000 -0.046715 0.078488 0.000000 -0.085590 0.106821 0.000000 -0.144932 0.132658 0.000000 -0.217466 0.104142 0.000000 -0.224151 0.006857 0.000000 -0.169955 0.014844 0.000000 -0.215330 0.026516 0.000000 -0.146861 0.028509 0.000000 -0.174414 0.116144 0.000000 -0.132637 0.047781 0.000000 -0.016253 0.187685 0.000000 -0.036435 0.250373 0.000000 -0.010006 -0.056048 0.000000 0.116959 0.031307 0.000000 0.061554 0.061148 0.000000 0.076080 -0.075857 0.000000 0.143366 0.053925 0.000000 -0.052515 -0.147914 0.000000 0.055126 -0.264939 0.000000 -0.022601 0.035942 0.000000 -0.211361 -0.207345 0.000000 -0.049839 -0.103047 0.000000 -0.263367 0.013304 0.000000 -0.115571 -0.154706 0.000000 -0.122074 0.098752 0.000000 -0.247531 -0.096585 0.000000 -0.037370 -0.000446 0.000000 -0.254844 0.019408 0.000000 -0.071318 -0.095975 0.000000 -0.150941 0.089602 0.000000 -0.189995 -0.102985 0.000000 -0.035513 0.019174 0.000000 -0.216822 0.005133 0.000000 -0.047896 -0.065205 0.000000 -0.150348 0.074192 0.000000 -0.144009 -0.106046 0.000000 -0.028107 0.032513 0.000000 -0.185958 -0.007957 0.000000 -0.026076 -0.043744 0.000000 -0.143236 0.057357 0.000000 -0.100314 -0.098916 0.000000 -0.027732 0.040602 0.000000 -0.153337 -0.018192 0.000000 -0.012976 -0.027459 0.000000 -0.128321 0.041304 0.000000 -0.065904 -0.085453 0.000000 -0.028603 0.044625 0.000000 -0.124402 -0.026276 0.000000 -0.002978 -0.014510 0.000000 -0.112672 0.027174 0.000000 -0.037599 -0.068144 0.000000 -0.033997 0.045136 0.000000 -0.096732 -0.033526 0.000000 0.002054 -0.004296 0.000000 -0.095532 0.014981 0.000000 -0.017716 -0.049030 0.000000 -0.041690 0.041531 0.000000 -0.072596 -0.042227 0.000000 0.005371 0.005016 0.000000 -0.084633 0.005000 0.000000 -0.004205 -0.046106 0.000000 -0.035793 0.032854 0.000000 -0.049475 -0.026317 0.000000 -0.005348 0.016289 0.000000 -0.068825 -0.008212 0.000000 0.007724 -0.024138 0.000000 -0.042742 0.029797 0.000000 -0.029662 -0.041659 0.000000 0.008188 0.015309 0.000000 -0.050915 -0.005163 0.000000 0.013265 -0.014786 0.000000 -0.037512 0.020817 0.000000 -0.012353 -0.038129 0.000000 0.007688 0.017613 0.000000 -0.037189 -0.009017 0.000000 0.017419 -0.008980 0.000000 -0.030417 0.014439 0.000000 0.000265 -0.031592 0.000000 0.006140 0.018720 0.000000 -0.025367 -0.012301 0.000000 0.020597 -0.004142 0.000000 -0.023627 0.009001 0.000000 0.010544 -0.023686 0.000000 0.002497 0.018382 0.000000 -0.013755 -0.016000 0.000000 0.021916 -0.000398 0.000000 -0.016406 0.004530 0.000000 0.016911 -0.017071 0.000000 0.000284 0.016090 0.000000 -0.004264 -0.019431 0.000000 0.022743 0.002707 0.000000 -0.012773 0.000995 0.000000 0.021041 -0.018525 0.000000 0.004056 0.011364 0.000000 0.003271 -0.010266 0.000000 0.015945 0.008083 0.000000 -0.005411 -0.003051 0.000000 0.024647 -0.008650 0.000000 0.002691 0.011663 0.000000 0.012155 -0.015397 0.000000 0.022568 0.006671 0.000000 0.002057 -0.001930 0.000000 0.026706 -0.005264 0.000000 0.005400 0.007964 0.000000 0.018815 -0.014052 0.000000 0.021728 0.007247 0.000000 0.007838 -0.003636 0.000000 0.027639 -0.003279 0.000000 0.008789 0.005496 0.000000 0.022948 -0.011433 0.000000 0.020860 0.007645 0.000000 0.012354 -0.005359 0.000000 0.028809 -0.001557 0.000000 0.011337 0.003525 0.000000 0.026567 -0.008542 0.000000 0.019038 0.007587 0.000000 0.017194 -0.007154 0.000000 0.028866 -0.000197 0.000000 0.014286 0.002031 0.000000 0.028175 -0.006879 0.000000 0.019078 0.006544 0.000000 0.020300 -0.008467 0.000000 0.028749 0.000577 0.000000 0.015069 0.000684 0.000000 0.029049 -0.008799 0.000000 0.020189 0.003507 0.000000 0.021736 -0.004065 0.000000 0.024620 0.004051 0.000000 0.018633 0.000349 0.000000 0.029755 -0.003815 0.000000 0.020972 0.005274 0.000000 0.026395 -0.005397 0.000000 0.028255 0.002475 0.000000 0.021973 -0.000037 0.000000 0.031041 -0.002566 0.000000 0.022228 0.003636 0.000000 0.029101 -0.005463 0.000000 0.027505 0.002754 0.000000 0.024417 -0.001078 0.000000 0.030895 -0.001959 0.000000 0.023771 0.002684 0.000000 0.030060 -0.004717 0.000000 0.027174 0.003275 0.000000 0.025929 -0.002185 0.000000 0.031493 -0.001352 0.000000 0.024485 0.002012 0.000000 0.031503 -0.004082 0.000000 0.026537 0.003488 0.000000 0.028110 -0.003034 0.000000 0.031149 -0.000775 0.000000 0.025883 0.001452 0.000000 0.031658 -0.003744 0.000000 0.026844 0.003162 0.000000 0.028708 -0.004106 0.000000 0.030824 -0.000581 0.000000 0.025333 0.000887 0.000000 0.031340 -0.005471 0.000000 0.026159 0.001072 0.000000 0.027712 -0.002025 0.000000 0.027908 0.002402 0.000000 0.026998 0.002139 0.000000 0.030818 -0.002395 0.000000 0.027713 0.003282 0.000000 0.030556 -0.001940 0.000000 0.030209 0.000825 0.000000 0.028882 0.000955 0.000000 0.031966 -0.001853 0.000000 0.028363 0.002361 0.000000 0.031878 -0.002575 0.000000 0.029612 0.001337 0.000000 0.030004 0.000227 0.000000 0.031437 -0.001626 0.000000 0.028997 0.002144 0.000000 0.031547 -0.002578 0.000000 0.029585 0.001956 0.000000 0.030017 -0.000416 0.000000 0.031473 -0.001401 0.000000 0.028800 0.001974 0.000000 0.031821 -0.002521 0.000000 0.028989 0.002211 0.000000 0.030759 -0.001012 0.000000 0.030648 -0.001213 0.000000 0.029443 0.001697 0.000000 0.031059 -0.002644 0.000000 0.029215 0.001966 0.000000 0.030120 -0.002030 0.000000 0.030065 -0.001340 0.000000 0.028322 0.001393 0.000000 0.029988 -0.004502 0.000000 0.027989 -0.000034 0.000000 0.028024 -0.000758 0.000000 0.027729 0.001354 0.000000 0.029459 0.003203 0.000000 0.029013 -0.002168 0.000000 0.030027 0.002557 0.000000 0.029869 -0.000315 0.000000 0.029910 -0.000397 0.000000 0.030742 0.002068 0.000000 0.029956 -0.002171 0.000000 0.030719 0.001871 0.000000 0.030539 -0.001377 0.000000 0.030055 -0.000095 0.000000 0.031484 0.001610 0.000000 0.029509 -0.002446 0.000000 0.031551 0.001908 0.000000 0.030013 -0.001756 0.000000 0.030844 0.000426 0.000000 0.031163 0.001234 0.000000 0.029900 -0.002449 0.000000 0.031443 0.002083 0.000000 0.030275 -0.001909 0.000000 0.030781 0.000903 0.000000 0.031472 0.000806 0.000000 0.029540 -0.002285 0.000000 0.032021 0.002244 0.000000 0.029725 -0.002008 0.000000 0.031483 0.001288 0.000000 0.030866 0.000289 0.000000 0.030094 -0.001955 0.000000 0.031737 0.002277 0.000000 0.030030 -0.002138 0.000000 0.031389 0.001507 0.000000 0.031056 -0.000372 0.000000 0.030030 -0.001432 0.000000 0.032272 0.002188 0.000000 0.029642 -0.002298 0.000000 0.032137 0.001622 0.000000 0.030534 -0.001042 0.000000 0.030965 -0.000642 0.000000 0.031997 0.001986 0.000000 0.030136 -0.002476 0.000000 0.032050 0.001836 0.000000 0.030883 -0.001457 0.000000 0.031022 0.000129 0.000000 0.032359 0.001645 0.000000 0.029890 -0.002412 0.000000 0.032533 0.002082 0.000000 0.030461 -0.001658 0.000000 0.031601 0.000821 0.000000 0.031807 0.001177 0.000000 0.030289 -0.002167 0.000000 0.032119 0.002199 0.000000 0.030632 -0.001750 0.000000 0.031374 0.001785 0.000000 0.031849 0.001056 0.000000 0.030178 -0.002475 0.000000 0.032043 -0.001055 0.000000 0.030497 -0.001732 0.000000 0.033690 0.016515 0.000000 0.036687 0.029743 0.000000 0.033176 0.024981 0.000000 0.029278 0.022518 0.000000 0.021574 0.023840 0.000000 0.013153 0.029265 0.000000 
0.022951 0.052915 0.000000 0.013376 0.074878 0.000000 0.003108 0.107246 0.000000 -0.011449 0.151063 0.000000 -0.026330 0.193095 0.000000 -0.049945 0.132228 0.000000 -0.029004 -0.039488 0.000000 -0.007115 -0.000704 0.000000 -0.019239 -0.014257 0.000000 0.016381 -0.031921 0.000000 0.032447 0.028347 0.000000 0.088169 -0.135407 0.000000 0.131567 -0.036798 0.000000 0.137514 0.073319 0.000000 0.186571 -0.180189 0.000000 0.084823 -0.057690 0.000000 0.216940 0.084161 0.000000 0.144881 -0.109371 0.000000 0.144561 0.174399 0.000000 0.199542 0.018514 0.000000 -0.003622 -0.133710 0.000000 0.225280 0.302724 0.000000 0.066848 -0.074503 0.000000 0.082696 0.008117 0.000000 -0.031345 0.075043 0.000000 0.009092 -0.210181 0.000000 0.008832 0.172837 0.000000 -0.042576 -0.127466 0.000000 0.021319 0.005432 0.000000 -0.051696 0.044173 0.000000 0.004697 -0.151111 0.000000 -0.022344 0.157665 0.000000 -0.039625 -0.163879 0.000000 0.009546 0.035680 0.000000 -0.048834 0.013656 0.000000 0.003353 -0.098210 0.000000 -0.031522 0.128034 0.000000 -0.032726 -0.171122 0.000000 0.005304 0.056277 0.000000 -0.046691 -0.006749 0.000000 0.004594 -0.064278 0.000000 -0.037271 0.099414 0.000000 -0.022733 -0.161096 0.000000 -0.001702 0.070925 0.000000 -0.041165 -0.024429 0.000000 0.002051 -0.038480 0.000000 -0.037131 0.071176 0.000000 -0.016811 -0.139038 0.000000 -0.006231 0.077986 0.000000 -0.037846 -0.038901 0.000000 0.001705 -0.018801 0.000000 -0.037584 0.046743 0.000000 -0.009954 -0.110135 0.000000 -0.013603 0.078840 0.000000 -0.031471 -0.052399 0.000000 -0.001652 -0.003173 0.000000 -0.034318 0.026315 0.000000 -0.007857 -0.076890 0.000000 -0.019356 0.072891 0.000000 -0.028056 -0.067117 0.000000 -0.004325 0.013799 0.000000 -0.035589 0.011075 0.000000 -0.006641 -0.070683 0.000000 -0.024584 0.059339 0.000000 -0.024494 -0.042097 0.000000 -0.013925 0.027349 0.000000 -0.032121 -0.016672 0.000000 -0.006632 -0.037226 0.000000 -0.026329 0.050260 0.000000 -0.018119 -0.069732 0.000000 -0.009141 0.028164 0.000000 -0.027797 -0.008089 0.000000 -0.005424 -0.020554 0.000000 -0.026970 0.034748 0.000000 -0.012680 -0.062563 0.000000 -0.012810 0.032544 0.000000 -0.023560 -0.014523 0.000000 -0.007496 -0.011157 0.000000 -0.025009 0.023551 0.000000 -0.011356 -0.050989 0.000000 -0.014522 0.033855 0.000000 -0.021907 -0.020553 0.000000 -0.007533 -0.003694 0.000000 -0.024947 0.014063 0.000000 -0.008561 -0.037084 0.000000 -0.018617 0.032384 0.000000 -0.017604 -0.027005 0.000000 -0.010341 0.002474 0.000000 -0.022215 0.006863 0.000000 -0.009569 -0.024858 0.000000 -0.020031 0.028158 0.000000 -0.016680 -0.031607 0.000000 -0.012136 0.009318 0.000000 -0.023780 0.001657 0.000000 -0.009607 -0.025790 0.000000 -0.023600 0.022337 0.000000 -0.017549 -0.016447 0.000000 -0.019246 0.012783 0.000000 -0.020745 -0.009758 0.000000 -0.011450 -0.012015 0.000000 -0.022051 0.017687 0.000000 -0.012859 -0.026629 0.000000 -0.015041 0.013112 0.000000 -0.018802 -0.005148 0.000000 -0.010162 -0.005866 0.000000 -0.021477 0.011514 0.000000 -0.009790 -0.022665 0.000000 -0.017277 0.014144 0.000000 -0.015544 -0.007703 0.000000 -0.012134 -0.002539 0.000000 -0.019072 0.007240 0.000000 -0.010494 -0.017328 0.000000 -0.017401 0.013973 0.000000 -0.015007 -0.010454 0.000000 -0.012117 0.000268 0.000000 -0.019275 0.003883 0.000000 -0.009522 -0.011754 0.000000 -0.019875 0.012768 0.000000 -0.012118 -0.013091 0.000000 -0.014769 0.002756 0.000000 -0.017106 0.001561 0.000000 -0.011496 -0.008190 0.000000 -0.019375 0.010742 0.000000 -0.012691 -0.013687 0.000000 -0.015875 0.005151 0.000000 -0.018557 -0.000224 0.000000 -0.011645 -0.009600 0.000000 -0.022584 0.008388 0.000000 -0.015322 -0.006282 0.000000 -0.021179 0.005331 0.000000 -0.015737 -0.004537 0.000000 -0.013971 -0.004050 0.000000 -0.019455 0.005853 0.000000 -0.011337 -0.009554 0.000000 -0.017293 0.005479 0.000000 -0.014782 -0.002748 0.000000 -0.012520 -0.001559 0.000000 -0.018645 0.003629 0.000000 -0.009435 -0.007812 0.000000 -0.018928 0.005780 0.000000 -0.012146 -0.003880 0.000000 -0.014625 -0.000405 0.000000 -0.016333 0.002092 0.000000 -0.011151 -0.005702 0.000000 -0.018214 0.005526 0.000000 -0.012105 -0.005299 0.000000 -0.014395 0.000676 0.000000 -0.016602 0.000928 0.000000 -0.010536 -0.004109 0.000000 -0.019595 0.004947 0.000000 -0.009932 -0.006006 0.000000 -0.016718 0.001712 0.000000 -0.014562 0.000133 0.000000 -0.012642 -0.002931 0.000000 -0.018413 0.004316 0.000000 -0.011253 -0.006042 0.000000 -0.017459 0.002774 0.000000 -0.016087 -0.000266 0.000000 -0.012983 -0.003830 0.000000 -0.021791 0.003623 0.000000 -0.014566 -0.002729 0.000000 -0.021893 0.002189 0.000000 -0.013636 -0.001468 0.000000 -0.015487 -0.001787 0.000000 -0.017987 0.001949 0.000000 -0.011302 -0.003246 0.000000 -0.018214 0.002000 0.000000 -0.012954 -0.001185 0.000000 -0.013983 -0.000463 0.000000 -0.017084 0.001233 0.000000 -0.010023 -0.002513 0.000000 -0.019423 0.002385 0.000000 -0.010501 -0.001651 0.000000 -0.016022 0.000099 0.000000 -0.014789 0.000935 0.000000 -0.011974 -0.001911 0.000000 -0.018066 0.002398 0.000000 -0.010904 -0.002038 0.000000 -0.015670 0.000426 0.000000 -0.015155 0.000620 0.000000 -0.011486 -0.001504 0.000000 -0.018979 0.002103 0.000000 -0.009256 -0.002137 0.000000 -0.017845 0.000620 0.000000 -0.013202 0.000394 0.000000 -0.013749 -0.001198 0.000000 -0.017522 0.001816 0.000000 -0.011120 -0.001989 0.000000 -0.018415 0.000896 0.000000 -0.014770 0.000591 0.000000 -0.014262 -0.002230 0.000000 -0.020914 0.001485 0.000000 -0.014980 -0.000183 0.000000 -0.022279 -0.000415 0.000000 -0.012278 0.000648 0.000000 -0.016864 -0.001527 0.000000 -0.016625 0.000546 0.000000 -0.012117 0.000079 0.000000 -0.018490 -0.001037 0.000000 -0.011744 0.001065 0.000000 -0.015388 -0.001101 0.000000 -0.015639 0.000365 0.000000 -0.011163 -0.000061 0.000000 -0.019208 -0.001015 0.000000 -0.009522 0.001344 0.000000 -0.017434 -0.001355 0.000000 -0.013397 0.000470 0.000000 -0.013213 -0.000231 0.000000 -0.017537 -0.000921 0.000000 -0.010391 0.001523 0.000000 -0.017011 -0.001553 0.000000 -0.013894 0.000696 0.000000 -0.012778 -0.000352 0.000000 -0.018225 -0.000702 0.000000 -0.009132 0.001589 0.000000 -0.018932 -0.001714 0.000000 -0.011929 0.000975 0.000000 -0.014830 -0.000517 0.000000 -0.016240 -0.000435 0.000000 -0.010673 0.001470 0.000000 -0.018084 -0.001840 0.000000 -0.012406 0.001239 0.000000 -0.014391 -0.000764 0.000000 -0.016615 -0.000207 0.000000 -0.010057 0.001101 0.000000 -0.019523 -0.001900 0.000000 -0.010340 0.001497 0.000000 -0.016529 -0.001058 0.000000 -0.014404 -0.000020 0.000000 -0.012228 0.000582 0.000000 -0.018134 -0.001731 0.000000 -0.010787 0.001810 0.000000 -0.016205 -0.001333 0.000000 -0.014794 0.000238 0.000000 -0.011830 0.000234 0.000000 -0.019002 -0.001338 0.000000 -0.009087 0.001923 0.000000 -0.018190 -0.001402 0.000000 -0.012751 0.000540 0.000000 -0.013778 0.000059 0.000000 -0.017134 -0.000853 0.000000 -0.010137 0.001883 0.000000 -0.017424 -0.001397 0.000000 -0.013190 0.000869 0.000000 -0.013216 -0.000143 0.000000 -0.017499 -0.000151 0.000000 -0.008199 0.001745 0.000000 -0.018021 -0.001248 0.000000 -0.012045 -0.000439 0.000000 -0.019903 -0.001524 0.000000 -0.014136 0.003721 0.000000 0.013189 0.017134 0.000000 0.027266 0.021378 0.000000 0.032606 0.024439 0.000000 0.033055 0.029349 0.000000 0.028676 0.039038 0.000000 