# vtk DataFile Version 2.0
Comment goes here
ASCII

DATASET STRUCTURED_POINTS
FIELD FieldData 1
TIME 1 1 double
0.05000000
DIMENSIONS    64   64   1

ORIGIN    0.000   0.000   0.000
SPACING   0.03125 0.03125   1.000

POINT_DATA   4096
VECTORS u double

0.784782 -0.015572 0.000000 -1.467429 0.002455 0.000000 0.522617 0.001701 0.000000 -1.432524 -0.000206 0.000000 0.355605 -0.001492 0.000000 -1.364300 -0.004002 0.000000 0.409493 0.003123 0.000000 -1.201789 -0.003272 0.000000 0.335733 0.002730 0.000000 -1.002548 -0.003757 0.000000 0.202251 0.002716 0.000000 -0.803452 -0.004238 0.000000 0.065618 0.002732 0.000000 -0.636592 -0.004326 0.000000 -0.045522 0.002275 0.000000 -0.508238 -0.003956 0.000000 -0.121989 0.001645 0.000000 -0.421227 -0.003732 0.000000 -0.165403 -0.000265 0.000000 -0.365095 -0.002946 0.000000 -0.189079 -0.000512 0.000000 -0.322542 -0.000210 0.000000 -0.211610 0.001700 0.000000 -0.270260 0.000613 0.000000 -0.259883 0.004201 0.000000 -0.183207 -0.002090 0.000000 -0.355471 0.002589 0.000000 -0.041088 -0.003204 0.000000 -0.508045 0.003996 0.000000 0.149514 -0.003424 0.000000 -0.702734 0.005029 0.000000 0.370007 -0.002859 0.000000 -0.918906 0.004536 0.000000 0.592148 -0.002032 0.000000 -1.119380 0.003455 0.000000 0.774865 -0.001087 0.000000 -1.267775 0.001332 0.000000 0.886674 0.001140 0.000000 -1.330803 -0.001949 0.000000 0.895911 0.004287 0.000000 -1.282279 -0.003329 0.000000 0.789335 0.005987 0.000000 -1.137316 -0.003297 0.000000 0.611101 0.005475 0.000000 -0.951139 -0.002583 0.000000 0.412219 0.004867 0.000000 -0.758119 -0.001428 0.000000 0.210524 0.004411 0.000000 -0.569608 -0.000822 0.000000 0.014638 0.003269 0.000000 -0.390996 -0.000132 0.000000 -0.173194 0.002213 0.000000 -0.227335 0.000681 0.000000 -0.347310 0.000683 0.000000 -0.086780 0.001382 0.000000 -0.501681 -0.000659 0.000000 0.024621 0.002140 0.000000 -0.640052 -0.002096 0.000000 0.129401 0.003051 0.000000 -0.803804 -0.003194 0.000000 0.267280 0.003123 0.000000 -1.022619 -0.003394 0.000000 0.455366 0.001271 0.000000 -1.311153 0.004285 0.000000 
-0.608438 0.064960 0.000000 0.324656 0.130068 0.000000 -0.191404 -0.015755 0.000000 0.273894 0.079406 0.000000 0.019270 -0.027960 0.000000 0.240227 -0.028951 0.000000 -0.160440 -0.078873 0.000000 0.146263 0.034484 0.000000 -0.223248 -0.097289 0.000000 0.050751 0.065025 0.000000 -0.232096 -0.097742 0.000000 -0.034945 0.067325 0.000000 -0.227858 -0.082110 0.000000 -0.099023 0.054957 0.000000 -0.227407 -0.062922 0.000000 -0.144340 0.037501 0.000000 -0.237202 -0.041805 0.000000 -0.170785 0.020931 0.000000 -0.257751 -0.025095 0.000000 -0.186714 0.011248 0.000000 -0.280805 -0.019077 0.000000 -0.199324 0.009041 0.000000 -0.298794 -0.025473 0.000000 -0.215282 0.020691 0.000000 -0.300956 -0.043742 0.000000 -0.246865 0.045651 0.000000 -0.277411 -0.068415 0.000000 -0.312584 0.072821 0.000000 -0.218762 -0.091349 0.000000 -0.406836 0.092030 0.000000 -0.132479 -0.106016 0.000000 -0.519565 0.102296 0.000000 -0.027700 -0.107201 0.000000 -0.636327 0.095372 0.000000 0.073933 -0.088927 0.000000 -0.733434 0.071987 0.000000 0.150559 -0.056294 0.000000 -0.793733 0.033396 0.000000 0.185449 -0.008337 0.000000 -0.801385 -0.019946 0.000000 0.165817 0.047441 0.000000 -0.748615 -0.068548 0.000000 0.100084 0.083054 0.000000 -0.660261 -0.088957 0.000000 0.017604 0.093422 0.000000 -0.562949 -0.092560 0.000000 -0.065955 0.094930 0.000000 -0.463320 -0.091061 0.000000 -0.145022 0.093071 0.000000 -0.366812 -0.086938 0.000000 -0.216958 0.090728 0.000000 -0.272896 -0.081125 0.000000 -0.279086 0.085901 0.000000 -0.184782 -0.070969 0.000000 -0.325070 0.077791 0.000000 -0.107455 -0.057435 0.000000 -0.347471 0.071139 0.000000 -0.041487 -0.054963 0.000000 -0.357061 0.084977 0.000000 0.037542 -0.072346 0.000000 -0.375213 0.113441 0.000000 0.145910 -0.097465 0.000000 -0.410903 0.148250 0.000000 0.302462 -0.167607 0.000000 
0.993643 -0.037765 0.000000 0.617167 -0.414580 0.000000 0.988605 0.052463 0.000000 0.589405 -0.210880 0.000000 0.717866 0.032175 0.000000 0.545126 0.175708 0.000000 1.155468 0.097087 0.000000 0.496963 0.059537 0.000000 1.496986 0.098242 0.000000 0.384765 0.005091 0.000000 1.783830 0.088412 0.000000 0.261657 -0.008476 0.000000 2.013929 0.066810 0.000000 0.160425 -0.004778 0.000000 2.191091 0.047592 0.000000 0.087056 0.005839 0.000000 2.321119 0.028089 0.000000 0.047093 0.016817 0.000000 2.411967 0.015664 0.000000 0.033701 0.020108 0.000000 2.480680 0.012097 0.000000 0.033339 0.017779 0.000000 2.532727 0.017659 0.000000 0.026433 0.002775 0.000000 2.586284 0.035783 0.000000 -0.004731 -0.025634 0.000000 2.668410 0.068308 0.000000 -0.066604 -0.061853 0.000000 2.785577 0.098249 0.000000 -0.163016 -0.089708 0.000000 2.923557 0.117758 0.000000 -0.285163 -0.107638 0.000000 3.071748 0.121298 0.000000 -0.414823 -0.103665 0.000000 3.206684 0.100562 0.000000 -0.524450 -0.077713 0.000000 3.305080 0.061630 0.000000 -0.594138 -0.033750 0.000000 3.346793 0.005703 0.000000 -0.602409 0.023919 0.000000 3.310795 -0.056099 0.000000 -0.539641 0.071719 0.000000 3.204651 -0.091651 0.000000 -0.436212 0.087955 0.000000 3.072038 -0.099896 0.000000 -0.325725 0.088427 0.000000 2.933017 -0.101057 0.000000 -0.216818 0.083478 0.000000 2.789688 -0.097330 0.000000 -0.111555 0.075205 0.000000 2.643610 -0.094048 0.000000 -0.010044 0.064341 0.000000 2.493672 -0.087434 0.000000 0.083156 0.046667 0.000000 2.343131 -0.075944 0.000000 0.161240 0.021743 0.000000 2.196346 -0.063828 0.000000 0.223571 0.007494 0.000000 2.033458 -0.075977 0.000000 0.299947 0.014958 0.000000 1.817319 -0.105245 0.000000 0.418706 0.032296 0.000000 1.518921 -0.155282 0.000000 0.611297 0.201820 0.000000 
3.007257 0.059090 0.000000 -0.052657 0.135106 0.000000 2.078823 0.012007 0.000000 -0.132344 0.350144 0.000000 1.032891 0.016318 0.000000 -0.104434 -0.466553 0.000000 2.268619 -0.030710 0.000000 -0.047140 -0.307034 0.000000 2.953132 0.014910 0.000000 0.006905 -0.221819 0.000000 3.401232 0.025366 0.000000 0.057071 -0.162774 0.000000 3.729816 0.019122 0.000000 0.097634 -0.122205 0.000000 3.987707 0.010447 0.000000 0.130973 -0.092527 0.000000 4.198873 -0.001842 0.000000 0.154552 -0.069917 0.000000 4.374668 -0.011704 0.000000 0.170597 -0.057466 0.000000 4.519051 -0.018715 0.000000 0.181478 -0.043005 0.000000 4.637828 -0.018567 0.000000 0.189345 -0.032866 0.000000 4.730417 -0.012578 0.000000 0.199984 -0.036475 0.000000 4.793667 -0.006542 0.000000 0.222929 -0.044346 0.000000 4.825156 0.005063 0.000000 0.257554 -0.045950 0.000000 4.831676 0.016131 0.000000 0.301123 -0.045895 0.000000 4.817089 0.022458 0.000000 0.349017 -0.039563 0.000000 4.791921 0.020700 0.000000 0.390227 -0.026410 0.000000 4.765511 0.013394 0.000000 0.417562 -0.008317 0.000000 4.745332 -0.000066 0.000000 0.421984 0.016052 0.000000 4.739396 -0.015327 0.000000 0.398302 0.037596 0.000000 4.741928 -0.020375 0.000000 0.361956 0.043657 0.000000 4.732716 -0.017065 0.000000 0.326768 0.046461 0.000000 4.703771 -0.013977 0.000000 0.291997 0.052267 0.000000 4.653057 -0.012192 0.000000 0.258821 0.059141 0.000000 4.578678 -0.010783 0.000000 0.226676 0.068813 0.000000 4.478968 -0.007299 0.000000 0.198695 0.079571 0.000000 4.346724 -0.000293 0.000000 0.178958 0.089351 0.000000 4.169562 0.008808 0.000000 0.169073 0.107924 0.000000 3.942646 0.008601 0.000000 0.150620 0.143793 0.000000 3.663669 -0.005318 0.000000 0.107100 0.200933 0.000000 3.314597 -0.044341 0.000000 0.003398 0.357671 0.000000 
3.021640 0.018290 0.000000 0.073293 0.513854 0.000000 2.306937 0.132150 0.000000 -0.036629 0.835052 0.000000 1.443065 0.004264 0.000000 -0.026076 -1.060020 0.000000 2.407968 0.039793 0.000000 -0.030905 -0.624977 0.000000 3.037373 0.044196 0.000000 0.006490 -0.443009 0.000000 3.478666 0.038247 0.000000 0.050796 -0.337060 0.000000 3.811176 0.026246 0.000000 0.092921 -0.262669 0.000000 4.071813 0.014253 0.000000 0.132801 -0.205327 0.000000 4.280773 0.004510 0.000000 0.166092 -0.158977 0.000000 4.448199 -0.000380 0.000000 0.192582 -0.124276 0.000000 4.578091 0.001217 0.000000 0.211458 -0.100998 0.000000 4.682374 0.009791 0.000000 0.225902 -0.089814 0.000000 4.766474 0.025144 0.000000 0.238904 -0.088884 0.000000 4.826826 0.045364 0.000000 0.249367 -0.093342 0.000000 4.864939 0.063624 0.000000 0.262109 -0.096228 0.000000 4.887447 0.074190 0.000000 0.278067 -0.093051 0.000000 4.895703 0.073404 0.000000 0.295998 -0.078497 0.000000 4.894118 0.059351 0.000000 0.312276 -0.051303 0.000000 4.886758 0.034295 0.000000 0.324756 -0.013571 0.000000 4.875698 0.001281 0.000000 0.329392 0.029855 0.000000 4.864183 -0.032416 0.000000 0.323602 0.069188 0.000000 4.849059 -0.055305 0.000000 0.312739 0.097167 0.000000 4.817986 -0.064708 0.000000 0.300618 0.117371 0.000000 4.767813 -0.066286 0.000000 0.285682 0.134192 0.000000 4.698697 -0.064154 0.000000 0.267240 0.149584 0.000000 4.608138 -0.061903 0.000000 0.246411 0.164050 0.000000 4.494987 -0.059452 0.000000 0.226056 0.178912 0.000000 4.355899 -0.056208 0.000000 0.209325 0.198905 0.000000 4.181660 -0.053943 0.000000 0.198210 0.234410 0.000000 3.964458 -0.057524 0.000000 0.185722 0.293935 0.000000 3.695548 -0.061725 0.000000 0.158875 0.381368 0.000000 3.361801 -0.051579 0.000000 0.084446 0.509160 0.000000 
3.115375 0.070243 0.000000 -0.036909 0.849809 0.000000 2.533149 0.121928 0.000000 -0.067779 1.214017 0.000000 1.846402 0.005766 0.000000 -0.071724 -1.431456 0.000000 2.540356 -0.025881 0.000000 -0.038599 -0.936439 0.000000 3.115220 -0.022485 0.000000 0.003357 -0.663112 0.000000 3.537057 -0.018940 0.000000 0.045807 -0.495283 0.000000 3.855318 -0.023004 0.000000 0.086007 -0.382842 0.000000 4.105623 -0.029432 0.000000 0.122725 -0.301487 0.000000 4.308099 -0.035133 0.000000 0.153703 -0.237343 0.000000 4.470899 -0.038194 0.000000 0.178978 -0.187357 0.000000 4.600481 -0.037591 0.000000 0.199410 -0.147288 0.000000 4.702832 -0.033012 0.000000 0.216889 -0.116966 0.000000 4.780865 -0.025580 0.000000 0.234663 -0.096827 0.000000 4.835485 -0.017004 0.000000 0.256644 -0.082460 0.000000 4.867517 -0.007680 0.000000 0.283828 -0.068458 0.000000 4.879857 0.000173 0.000000 0.314799 -0.054152 0.000000 4.876310 0.004528 0.000000 0.346453 -0.037979 0.000000 4.863333 0.004422 0.000000 0.373984 -0.019050 0.000000 4.847492 0.000914 0.000000 0.392910 0.002744 0.000000 4.833619 -0.004702 0.000000 0.398613 0.027567 0.000000 4.823622 -0.009536 0.000000 0.389000 0.052720 0.000000 4.812994 -0.009513 0.000000 0.368329 0.074730 0.000000 4.792449 -0.004944 0.000000 0.342109 0.096634 0.000000 4.755634 0.000959 0.000000 0.312593 0.121383 0.000000 4.698836 0.006250 0.000000 0.281575 0.149700 0.000000 4.619158 0.010046 0.000000 0.250792 0.181964 0.000000 4.515607 0.013057 0.000000 0.221513 0.218660 0.000000 4.384922 0.016438 0.000000 0.194367 0.263590 0.000000 4.221256 0.019922 0.000000 0.167672 0.325126 0.000000 4.019463 0.021089 0.000000 0.133945 0.412703 0.000000 3.773642 0.021529 0.000000 0.085409 0.534680 0.000000 3.473907 0.030089 0.000000 0.018319 0.697832 0.000000 
3.244223 0.073518 0.000000 0.061856 1.096080 0.000000 2.782056 0.163021 0.000000 0.019601 1.521799 0.000000 2.226320 0.008209 0.000000 0.015316 -1.753975 0.000000 2.747372 0.006667 0.000000 0.009502 -1.199841 0.000000 3.223858 0.002241 0.000000 0.026565 -0.864846 0.000000 3.602556 -0.004203 0.000000 0.056821 -0.655321 0.000000 3.901060 -0.013954 0.000000 0.093045 -0.512973 0.000000 4.141164 -0.022465 0.000000 0.131420 -0.407803 0.000000 4.337805 -0.026469 0.000000 0.166980 -0.321778 0.000000 4.494602 -0.025655 0.000000 0.196685 -0.253857 0.000000 4.616276 -0.019216 0.000000 0.219641 -0.203349 0.000000 4.711598 -0.007687 0.000000 0.236719 -0.167847 0.000000 4.786317 0.007369 0.000000 0.249727 -0.143503 0.000000 4.841860 0.023383 0.000000 0.260421 -0.125374 0.000000 4.879468 0.036440 0.000000 0.271286 -0.108568 0.000000 4.902216 0.043219 0.000000 0.283578 -0.089504 0.000000 4.912591 0.041750 0.000000 0.296979 -0.065520 0.000000 4.914017 0.031820 0.000000 0.309674 -0.035462 0.000000 4.909726 0.015369 0.000000 0.319508 0.000302 0.000000 4.901580 -0.004421 0.000000 0.324098 0.039851 0.000000 4.889972 -0.022803 0.000000 0.322232 0.079816 0.000000 4.871826 -0.034635 0.000000 0.315260 0.117712 0.000000 4.840829 -0.038487 0.000000 0.304299 0.154186 0.000000 4.793233 -0.036770 0.000000 0.288780 0.190990 0.000000 4.727568 -0.033136 0.000000 0.268760 0.229261 0.000000 4.641738 -0.031121 0.000000 0.246502 0.267601 0.000000 4.534826 -0.030172 0.000000 0.224821 0.309597 0.000000 4.406476 -0.029062 0.000000 0.205425 0.362571 0.000000 4.252590 -0.027247 0.000000 0.188119 0.436202 0.000000 4.067109 -0.023798 0.000000 0.168679 0.539756 0.000000 3.843091 -0.013189 0.000000 0.140830 0.681103 0.000000 3.572400 0.015511 0.000000 0.100695 0.867692 0.000000 
3.419821 0.109082 0.000000 0.008108 1.311976 0.000000 3.041665 0.164184 0.000000 -0.009131 1.769752 0.000000 2.598229 0.010051 0.000000 -0.013375 -1.952508 0.000000 2.971732 -0.020067 0.000000 -0.005479 -1.412925 0.000000 3.364044 -0.039549 0.000000 0.017880 -1.041811 0.000000 3.699287 -0.049196 0.000000 0.049476 -0.793787 0.000000 3.972031 -0.059227 0.000000 0.085843 -0.622946 0.000000 4.196098 -0.067807 0.000000 0.124056 -0.498128 0.000000 4.383346 -0.070693 0.000000 0.159695 -0.394139 0.000000 4.531253 -0.067898 0.000000 0.190511 -0.309032 0.000000 4.645749 -0.060548 0.000000 0.215295 -0.242610 0.000000 4.734668 -0.050089 0.000000 0.235357 -0.191685 0.000000 4.802744 -0.038589 0.000000 0.253324 -0.152369 0.000000 4.852013 -0.027698 0.000000 0.271826 -0.120068 0.000000 4.883353 -0.018545 0.000000 0.292302 -0.091206 0.000000 4.898560 -0.012119 0.000000 0.314733 -0.064527 0.000000 4.900645 -0.008874 0.000000 0.337699 -0.039404 0.000000 4.894323 -0.008272 0.000000 0.358351 -0.014758 0.000000 4.884419 -0.008921 0.000000 0.373242 0.010890 0.000000 4.874225 -0.009292 0.000000 0.379220 0.039174 0.000000 4.864294 -0.007670 0.000000 0.374830 0.070866 0.000000 4.851218 -0.002541 0.000000 0.361189 0.105726 0.000000 4.828820 0.006017 0.000000 0.340123 0.144231 0.000000 4.791732 0.016478 0.000000 0.312481 0.187048 0.000000 4.736117 0.026270 0.000000 0.279976 0.235530 0.000000 4.658303 0.032304 0.000000 0.247135 0.288876 0.000000 4.561335 0.034737 0.000000 0.215883 0.347011 0.000000 4.445545 0.035835 0.000000 0.186606 0.417476 0.000000 4.307865 0.037228 0.000000 0.157948 0.510607 0.000000 4.143533 0.040530 0.000000 0.126325 0.636721 0.000000 3.946717 0.049378 0.000000 0.088619 0.805372 0.000000 3.709589 0.070224 0.000000 0.046251 1.026009 0.000000 
3.596231 0.111661 0.000000 0.076456 1.474235 0.000000 3.298225 0.180259 0.000000 0.056159 1.965236 0.000000 2.948390 0.012454 0.000000 0.051980 -2.127477 0.000000 3.219675 -0.001229 0.000000 0.042257 -1.592154 0.000000 3.523385 -0.021119 0.000000 0.046426 -1.200089 0.000000 3.803911 -0.035800 0.000000 0.064790 -0.928065 0.000000 4.045407 -0.050321 0.000000 0.095500 -0.737040 0.000000 4.252077 -0.060677 0.000000 0.135623 -0.595051 0.000000 4.431800 -0.062108 0.000000 0.177694 -0.469685 0.000000 4.573464 -0.056471 0.000000 0.212683 -0.368353 0.000000 4.678833 -0.044000 0.000000 0.237680 -0.292268 0.000000 4.759814 -0.027750 0.000000 0.253938 -0.235924 0.000000 4.823588 -0.010598 0.000000 0.264308 -0.192772 0.000000 4.872534 0.004882 0.000000 0.271824 -0.156714 0.000000 4.907008 0.015964 0.000000 0.279257 -0.123774 0.000000 4.928071 0.020788 0.000000 0.288215 -0.091589 0.000000 4.937715 0.018784 0.000000 0.298843 -0.059198 0.000000 4.939425 0.011168 0.000000 0.309844 -0.025559 0.000000 4.936508 0.000477 0.000000 0.318970 0.010497 0.000000 4.930927 -0.010399 0.000000 0.324095 0.049782 0.000000 4.922409 -0.018413 0.000000 0.324273 0.092892 0.000000 4.907392 -0.020993 0.000000 0.319800 0.140110 0.000000 4.880206 -0.017422 0.000000 0.310796 0.191274 0.000000 4.836653 -0.009128 0.000000 0.295443 0.246605 0.000000 4.775501 -0.000631 0.000000 0.272237 0.307076 0.000000 4.695116 0.001720 0.000000 0.244690 0.364568 0.000000 4.595444 0.001080 0.000000 0.217598 0.425388 0.000000 4.482886 0.000215 0.000000 0.193896 0.500250 0.000000 4.356502 0.001411 0.000000 0.173581 0.600535 0.000000 4.210990 0.007825 0.000000 0.153743 0.736572 0.000000 4.040317 0.024516 0.000000 0.130944 0.918232 0.000000 3.838261 0.057878 0.000000 0.104257 1.157461 0.000000 
3.792976 0.136883 0.000000 0.041259 1.609982 0.000000 3.558474 0.184481 0.000000 0.033258 2.119587 0.000000 3.289750 0.014229 0.000000 0.029409 -2.223793 0.000000 3.471057 -0.010344 0.000000 0.025104 -1.716634 0.000000 3.701266 -0.043718 0.000000 0.033733 -1.322337 0.000000 3.931604 -0.067559 0.000000 0.054196 -1.035283 0.000000 4.140029 -0.089937 0.000000 0.086746 -0.829617 0.000000 4.326278 -0.107930 0.000000 0.129634 -0.677851 0.000000 4.496935 -0.112764 0.000000 0.175764 -0.535803 0.000000 4.624583 -0.102887 0.000000 0.213893 -0.414402 0.000000 4.716489 -0.085545 0.000000 0.240389 -0.323590 0.000000 4.787112 -0.066347 0.000000 0.258805 -0.255460 0.000000 4.842767 -0.048958 0.000000 0.272809 -0.201315 0.000000 4.885277 -0.035213 0.000000 0.285328 -0.154542 0.000000 4.914068 -0.025979 0.000000 0.298739 -0.112269 0.000000 4.929432 -0.021076 0.000000 0.314205 -0.074171 0.000000 4.933064 -0.019502 0.000000 0.331486 -0.041115 0.000000 4.929207 -0.019273 0.000000 0.348600 -0.011842 0.000000 4.922288 -0.018047 0.000000 0.362197 0.016471 0.000000 4.915292 -0.014417 0.000000 0.369244 0.047692 0.000000 4.908812 -0.007848 0.000000 0.368326 0.085883 0.000000 4.899539 0.001932 0.000000 0.359583 0.132912 0.000000 4.880974 0.015021 0.000000 0.343342 0.187784 0.000000 4.847289 0.031831 0.000000 0.317328 0.248200 0.000000 4.794644 0.049476 0.000000 0.280492 0.315914 0.000000 4.715741 0.059851 0.000000 0.242246 0.388547 0.000000 4.624971 0.061829 0.000000 0.206164 0.459570 0.000000 4.527356 0.059537 0.000000 0.174253 0.543859 0.000000 4.420649 0.057542 0.000000 0.146088 0.656119 0.000000 4.299256 0.060367 0.000000 0.119175 0.807393 0.000000 4.157598 0.072177 0.000000 0.091589 1.007428 0.000000 3.990611 0.096911 0.000000 0.064365 1.268039 0.000000 
3.980796 0.134767 0.000000 0.091619 1.708737 0.000000 3.807321 0.188261 0.000000 0.084388 2.233960 0.000000 3.610532 0.016303 0.000000 0.080829 -2.308784 0.000000 3.722365 0.003075 0.000000 0.066274 -1.822362 0.000000 3.882539 -0.029747 0.000000 0.059717 -1.430427 0.000000 4.059282 -0.056263 0.000000 0.065274 -1.136490 0.000000 4.232200 -0.082872 0.000000 0.088976 -0.923289 0.000000 4.398026 -0.103565 0.000000 0.135847 -0.765708 0.000000 4.564659 -0.108238 0.000000 0.201332 -0.597333 0.000000 4.688308 -0.094600 0.000000 0.246079 -0.460259 0.000000 4.765494 -0.070495 0.000000 0.269449 -0.362891 0.000000 4.824726 -0.046166 0.000000 0.279714 -0.291579 0.000000 4.874760 -0.024601 0.000000 0.282731 -0.235282 0.000000 4.916179 -0.007637 0.000000 0.283316 -0.185505 0.000000 4.946586 0.002553 0.000000 0.285461 -0.139138 0.000000 4.964519 0.005322 0.000000 0.291386 -0.095222 0.000000 4.970888 0.001502 0.000000 0.300917 -0.055341 0.000000 4.970342 -0.005946 0.000000 0.312530 -0.018640 0.000000 4.966999 -0.013120 0.000000 0.322649 0.017494 0.000000 4.963973 -0.017446 0.000000 0.328203 0.056262 0.000000 4.961709 -0.017495 0.000000 0.328807 0.102165 0.000000 4.955527 -0.012250 0.000000 0.325826 0.158676 0.000000 4.937184 -0.001181 0.000000 0.321004 0.224959 0.000000 4.899614 0.016886 0.000000 0.310184 0.299250 0.000000 4.841530 0.036206 0.000000 0.284257 0.385978 0.000000 4.764217 0.039965 0.000000 0.244433 0.455339 0.000000 4.666339 0.037162 0.000000 0.204806 0.523003 0.000000 4.571809 0.032126 0.000000 0.175148 0.606958 0.000000 4.478804 0.029576 0.000000 0.154674 0.721927 0.000000 4.378532 0.034738 0.000000 0.138596 0.878230 0.000000 4.264477 0.052102 0.000000 0.123112 1.085219 0.000000 4.132766 0.085103 0.000000 0.107093 1.355096 0.000000 
4.177625 0.152356 0.000000 0.066043 1.783457 0.000000 4.055342 0.191713 0.000000 0.065788 2.316376 0.000000 3.921892 0.017788 0.000000 0.062685 -2.335626 0.000000 3.972041 0.004211 0.000000 0.050072 -1.876808 0.000000 4.074170 -0.037160 0.000000 0.044672 -1.499081 0.000000 4.203879 -0.073117 0.000000 0.049594 -1.208201 0.000000 4.341704 -0.113639 0.000000 0.073306 -0.995443 0.000000 4.485804 -0.154802 0.000000 0.124028 -0.844484 0.000000 4.653750 -0.178249 0.000000 0.211299 -0.659452 0.000000 4.753366 -0.147635 0.000000 0.257446 -0.491588 0.000000 4.808625 -0.108915 0.000000 0.278506 -0.382822 0.000000 4.854624 -0.076612 0.000000 0.289417 -0.305494 0.000000 4.895542 -0.051976 0.000000 0.294556 -0.242734 0.000000 4.930877 -0.035798 0.000000 0.297496 -0.184948 0.000000 4.956642 -0.028124 0.000000 0.302276 -0.130202 0.000000 4.970848 -0.027001 0.000000 0.311615 -0.080540 0.000000 4.972941 -0.029033 0.000000 0.325941 -0.040569 0.000000 4.968160 -0.030886 0.000000 0.343200 -0.008498 0.000000 4.961448 -0.028166 0.000000 0.358301 0.019498 0.000000 4.956692 -0.019971 0.000000 0.366734 0.049955 0.000000 4.956421 -0.008453 0.000000 0.367327 0.092065 0.000000 4.957578 0.004913 0.000000 0.361762 0.151256 0.000000 4.950133 0.019844 0.000000 0.352830 0.225353 0.000000 4.924824 0.042652 0.000000 0.333401 0.306284 0.000000 4.876490 0.075403 0.000000 0.289694 0.393227 0.000000 4.781417 0.099676 0.000000 0.237895 0.486425 0.000000 4.691621 0.101456 0.000000 0.190167 0.554100 0.000000 4.615795 0.089195 0.000000 0.154443 0.636865 0.000000 4.546099 0.078016 0.000000 0.129401 0.756391 0.000000 4.471829 0.076446 0.000000 0.109895 0.921448 0.000000 4.386832 0.087662 0.000000 0.092613 1.139140 0.000000 4.288779 0.112930 0.000000 0.077364 1.420009 0.000000 
4.362398 0.146088 0.000000 0.105239 1.831021 0.000000 4.289174 0.188516 0.000000 0.107848 2.367409 0.000000 4.213566 0.019406 0.000000 0.105188 -2.358933 0.000000 4.210457 0.015689 0.000000 0.086579 -1.924492 0.000000 4.256093 -0.024348 0.000000 0.067480 -1.560135 0.000000 4.335871 -0.061184 0.000000 0.050480 -1.274316 0.000000 4.437280 -0.106584 0.000000 0.048831 -1.067389 0.000000 4.564512 -0.154287 0.000000 0.091845 -0.933654 0.000000 4.747249 -0.195508 0.000000 0.267501 -0.696949 0.000000 4.847200 -0.140748 0.000000 0.312702 -0.515518 0.000000 4.869318 -0.091555 0.000000 0.319525 -0.408890 0.000000 4.898527 -0.057077 0.000000 0.315128 -0.332497 0.000000 4.933674 -0.029741 0.000000 0.303385 -0.270617 0.000000 4.968797 -0.010577 0.000000 0.291803 -0.211270 0.000000 4.996679 -0.002228 0.000000 0.286221 -0.153344 0.000000 5.011416 -0.004017 0.000000 0.290790 -0.097315 0.000000 5.011618 -0.012823 0.000000 0.302071 -0.050560 0.000000 5.005982 -0.023206 0.000000 0.318426 -0.011928 0.000000 4.999115 -0.028220 0.000000 0.332470 0.022249 0.000000 4.997098 -0.025879 0.000000 0.337240 0.056534 0.000000 5.004091 -0.018088 0.000000 0.333812 0.101007 0.000000 5.014853 -0.006685 0.000000 0.327784 0.166121 0.000000 5.015019 0.007751 0.000000 0.329213 0.250268 0.000000 4.990346 0.036315 0.000000 0.338428 0.347584 0.000000 4.928683 0.079912 0.000000 0.330323 0.481052 0.000000 4.841003 0.091765 0.000000 0.247954 0.545134 0.000000 4.727015 0.084891 0.000000 0.176734 0.598829 0.000000 4.657524 0.067849 0.000000 0.142460 0.676653 0.000000 4.607536 0.054618 0.000000 0.128598 0.796198 0.000000 4.556903 0.054244 0.000000 0.121604 0.963226 0.000000 4.499084 0.069384 0.000000 0.115755 1.183272 0.000000 4.433589 0.100351 0.000000 0.109940 1.466250 0.000000 
4.550399 0.157058 0.000000 0.085965 1.856681 0.000000 4.519387 0.189103 0.000000 0.093563 2.391984 0.000000 4.495297 0.020449 0.000000 0.091453 -2.332518 0.000000 4.445525 0.022819 0.000000 0.075048 -1.922443 0.000000 4.444915 -0.018060 0.000000 0.055324 -1.578859 0.000000 4.483163 -0.056117 0.000000 0.031572 -1.309610 0.000000 4.549471 -0.111989 0.000000 0.014434 -1.122676 0.000000 4.654230 -0.197817 0.000000 0.021507 -1.027220 0.000000 4.887300 -0.353904 0.000000 0.334579 -0.759403 0.000000 4.917520 -0.192835 0.000000 0.329917 -0.513705 0.000000 4.909456 -0.115738 0.000000 0.328345 -0.412032 0.000000 4.928296 -0.072215 0.000000 0.327352 -0.340641 0.000000 4.954000 -0.040233 0.000000 0.317212 -0.277857 0.000000 4.983753 -0.024216 0.000000 0.305278 -0.212830 0.000000 5.008237 -0.022542 0.000000 0.298329 -0.144939 0.000000 5.022367 -0.031570 0.000000 0.302711 -0.080742 0.000000 5.020271 -0.040314 0.000000 0.318617 -0.034933 0.000000 5.011440 -0.047241 0.000000 0.342017 -0.001632 0.000000 5.000999 -0.042210 0.000000 0.363414 0.021515 0.000000 4.994712 -0.024741 0.000000 0.373255 0.042963 0.000000 5.001443 -0.005025 0.000000 0.369176 0.081303 0.000000 5.022644 0.010941 0.000000 0.359907 0.151090 0.000000 5.039527 0.018415 0.000000 0.360493 0.250026 0.000000 5.037668 0.033437 0.000000 0.370412 0.367947 0.000000 5.002974 0.083508 0.000000 0.334671 0.480907 0.000000 4.828156 0.182044 0.000000 0.233155 0.600413 0.000000 4.734705 0.172676 0.000000 0.155175 0.623591 0.000000 4.696345 0.123469 0.000000 0.118301 0.686853 0.000000 4.675658 0.091879 0.000000 0.104280 0.807024 0.000000 4.651933 0.083440 0.000000 0.097257 0.979267 0.000000 4.621381 0.093510 0.000000 0.091662 1.204634 0.000000 4.586161 0.118745 0.000000 0.087294 1.491200 0.000000 
4.725201 0.147417 0.000000 0.118224 1.862033 0.000000 4.734274 0.180918 0.000000 0.130443 2.391499 0.000000 4.758069 0.021516 0.000000 0.128905 -2.309161 0.000000 4.664978 0.032094 0.000000 0.113690 -1.923882 0.000000 4.615939 -0.004623 0.000000 0.088405 -1.598383 0.000000 4.601130 -0.037433 0.000000 0.040419 -1.340624 0.000000 4.616060 -0.089445 0.000000 -0.050856 -1.172148 0.000000 4.705290 -0.161360 0.000000 -0.186779 -1.166724 0.000000 5.027849 -0.508580 0.000000 0.480036 -0.727168 0.000000 5.041080 -0.136086 0.000000 0.378713 -0.507454 0.000000 4.958810 -0.089982 0.000000 0.352225 -0.427730 0.000000 4.963772 -0.056085 0.000000 0.336438 -0.358202 0.000000 4.988632 -0.019601 0.000000 0.301862 -0.300369 0.000000 5.022730 0.001357 0.000000 0.277186 -0.235754 0.000000 5.053857 0.004721 0.000000 0.263545 -0.167475 0.000000 5.068072 -0.008399 0.000000 0.277917 -0.095218 0.000000 5.056601 -0.028729 0.000000 0.298451 -0.041729 0.000000 5.042813 -0.046605 0.000000 0.327791 -0.001487 0.000000 5.026978 -0.049617 0.000000 0.354130 0.028536 0.000000 5.020190 -0.035720 0.000000 0.356554 0.049803 0.000000 5.037004 -0.014008 0.000000 0.336215 0.079806 0.000000 5.078520 0.002584 0.000000 0.314269 0.149238 0.000000 5.113834 0.007165 0.000000 0.305796 0.252126 0.000000 5.135687 0.026396 0.000000 0.344968 0.382278 0.000000 5.082482 0.115653 0.000000 0.538791 0.655870 0.000000 4.883008 0.193280 0.000000 0.218843 0.638586 0.000000 4.734006 0.162871 0.000000 0.092726 0.637189 0.000000 4.730683 0.104723 0.000000 0.083697 0.697340 0.000000 4.740619 0.068640 0.000000 0.094667 0.819923 0.000000 4.740608 0.061266 0.000000 0.103878 0.993778 0.000000 4.734190 0.074980 0.000000 0.109472 1.218491 0.000000 4.727146 0.104718 0.000000 0.113377 1.502012 0.000000 
4.899848 0.152211 0.000000 0.103907 1.847608 0.000000 4.943808 0.176885 0.000000 0.120426 2.368189 0.000000 5.010444 0.021986 0.000000 0.119510 -2.239426 0.000000 4.878713 0.038035 0.000000 0.110403 -1.873404 0.000000 4.790279 0.007224 0.000000 0.091752 -1.564050 0.000000 4.737192 -0.008131 0.000000 0.048432 -1.324540 0.000000 4.716707 -0.020714 0.000000 -0.041360 -1.211906 0.000000 4.739693 -0.061894 0.000000 -0.125791 -1.349779 0.000000 4.872740 -1.020719 0.000000 0.071560 -0.772634 0.000000 4.817605 -0.091512 0.000000 -0.024810 -0.431436 0.000000 4.828103 -0.089250 0.000000 0.025379 -0.416994 0.000000 4.848641 -0.056428 0.000000 0.059430 -0.365501 0.000000 4.871977 -0.005657 0.000000 0.069717 -0.311955 0.000000 4.905072 0.000460 0.000000 0.084489 -0.243957 0.000000 4.934621 -0.008901 0.000000 0.107109 -0.159153 0.000000 4.949651 -0.045942 0.000000 0.147117 -0.069271 0.000000 4.940318 -0.060848 0.000000 0.190809 -0.021145 0.000000 4.929844 -0.076581 0.000000 0.238044 0.014203 0.000000 4.920795 -0.068549 0.000000 0.280069 0.028303 0.000000 4.919932 -0.027165 0.000000 0.298771 0.026149 0.000000 4.941500 0.015314 0.000000 0.291075 0.039787 0.000000 4.999432 0.032887 0.000000 0.286981 0.115776 0.000000 5.054373 0.026888 0.000000 0.305663 0.228173 0.000000 5.116988 -0.005735 0.000000 0.420914 0.421152 0.000000 5.167616 -0.110315 0.000000 0.851078 0.680381 0.000000 4.780357 0.501992 0.000000 0.210031 0.749415 0.000000 4.709816 0.298793 0.000000 0.048416 0.626913 0.000000 4.771853 0.132498 0.000000 0.051752 0.676918 0.000000 4.814927 0.080909 0.000000 0.071522 0.807035 0.000000 4.837606 0.074229 0.000000 0.084040 0.985685 0.000000 4.853552 0.087916 0.000000 0.090901 1.211679 0.000000 4.871953 0.114840 0.000000 0.096262 1.493145 0.000000 