# vtk DataFile Version 2.0
Comment goes here
ASCII

DATASET STRUCTURED_POINTS
FIELD FieldData 1
TIME 1 1 double
0.09900000
DIMENSIONS    256   32   1

ORIGIN    0.000   0.000   0.000
SPACING   0.0078125 0.0078125   1.000

POINT_DATA   8192
VECTORS u double

-0.027503 -0.000000 0.000000 -0.080474 0.000001 0.000000 -0.157693 0.000005 0.000000 -0.253613 0.000007 0.000000 -0.372896 0.000014 0.000000 -0.482060 0.000019 0.000000 -0.557837 0.000028 0.000000 -0.522258 0.000012 0.000000 -0.573791 0.000016 0.000000 -0.558597 0.000009 0.000000 -0.631541 0.000007 0.000000 -0.686047 0.000006 0.000000 -0.725952 0.000000 0.000000 -0.871460 0.000000 0.000000 -0.921527 -0.000048 0.000000 -0.837180 -0.000109 0.000000 -1.024544 -0.000121 0.000000 -0.957891 -0.000137 0.000000 -0.965352 -0.000213 0.000000 -1.022630 -0.000108 0.000000 -0.669244 0.000013 0.000000 -0.774886 -0.000164 0.000000 -0.739646 -0.000132 0.000000 -0.391400 -0.000160 0.000000 -0.657091 -0.000248 0.000000 -0.417983 -0.000193 0.000000 -0.426845 -0.000180 0.000000 -0.549307 -0.000131 0.000000 -0.282249 -0.000052 0.000000 -0.553938 -0.000060 0.000000 -0.307806 0.000011 0.000000 -0.398837 0.000089 0.000000 -0.429915 0.000059 0.000000 -0.236524 0.000210 0.000000 -0.466405 0.000186 0.000000 -0.238862 0.000236 0.000000 -0.360311 0.000337 0.000000 -0.340193 0.000194 0.000000 -0.189778 0.000406 0.000000 -0.393869 0.000275 0.000000 -0.174568 0.000324 0.000000 -0.321346 0.000342 0.000000 -0.256222 0.000116 0.000000 -0.156628 0.000332 0.000000 -0.320636 0.000108 0.000000 -0.125021 0.000183 0.000000 -0.274918 0.000186 0.000000 -0.186027 -0.000063 0.000000 -0.128612 0.000256 0.000000 -0.255601 -0.000032 0.000000 -0.082819 0.000249 0.000000 -0.231211 0.000231 0.000000 -0.124551 0.000101 0.000000 -0.111234 0.000484 0.000000 -0.195017 0.000108 0.000000 -0.051659 0.000503 0.000000 -0.187808 0.000131 0.000000 -0.075177 -0.000291 0.000000 -0.099376 -0.000142 0.000000 -0.141548 -0.000897 0.000000 -0.022951 -0.000469 0.000000 -0.149491 -0.001935 0.000000 -0.030655 -0.007449 0.000000 -0.075435 -0.001814 0.000000 -0.086273 0.009602 0.000000 -0.005800 0.003780 0.000000 -0.110723 -0.001859 0.000000 0.001166 0.001069 0.000000 -0.065824 0.001518 0.000000 -0.048997 0.002119 0.000000 0.015170 0.000877 0.000000 -0.076414 0.000243 0.000000 0.025865 0.000431 0.000000 -0.047698 -0.000103 0.000000 -0.011496 0.000149 0.000000 0.027721 0.000044 0.000000 -0.043469 -0.000009 0.000000 0.046624 0.000274 0.000000 -0.025659 0.000183 0.000000 0.020287 0.000287 0.000000 0.038572 0.000498 0.000000 -0.013850 0.000219 0.000000 0.065107 0.000616 0.000000 -0.004955 0.000410 0.000000 0.049022 0.000410 0.000000 0.044630 0.000685 0.000000 0.014753 0.000128 0.000000 0.078974 0.000599 0.000000 0.015719 0.000201 0.000000 0.070828 -0.000080 0.000000 0.051438 0.000136 0.000000 0.039124 -0.000803 0.000000 0.092529 -0.000323 0.000000 0.033837 -0.001119 0.000000 0.091554 -0.004027 0.000000 0.066479 -0.001253 0.000000 0.066857 0.004530 0.000000 0.100450 0.002741 0.000000 0.053496 0.000147 0.000000 0.104611 0.001202 0.000000 0.071951 0.001393 0.000000 0.081807 0.001788 0.000000 0.108172 0.000904 0.000000 0.067969 0.000510 0.000000 0.114737 0.000481 0.000000 0.079974 0.000054 0.000000 0.098658 0.000269 0.000000 0.112739 -0.000020 0.000000 0.083070 -0.000048 0.000000 0.122969 -0.000006 0.000000 0.090097 -0.000163 0.000000 0.111814 -0.000057 0.000000 0.116627 -0.000126 0.000000 0.095053 -0.000211 0.000000 0.130541 -0.000069 0.000000 0.098089 -0.000255 0.000000 0.123938 -0.000134 0.000000 0.118096 -0.000179 0.000000 0.107703 -0.000348 0.000000 0.136147 -0.000167 0.000000 0.107870 -0.000467 0.000000 0.133267 -0.000533 0.000000 0.123618 -0.000628 0.000000 0.119064 -0.001227 0.000000 0.143658 -0.000869 0.000000 0.116933 -0.001405 0.000000 0.143821 -0.002621 0.000000 0.131937 -0.001688 0.000000 0.133325 0.001114 0.000000 0.148000 0.001982 0.000000 0.125882 0.001276 0.000000 0.147234 0.001148 0.000000 0.133198 0.001052 0.000000 0.135573 0.001454 0.000000 0.147280 0.000571 0.000000 0.128923 0.000391 0.000000 0.148999 0.000283 0.000000 0.134370 -0.000132 0.000000 0.141457 0.000178 0.000000 0.147619 -0.000163 0.000000 0.135378 -0.000062 0.000000 0.151742 -0.000028 0.000000 0.139792 -0.000158 0.000000 0.147212 0.000002 0.000000 0.150868 -0.000076 0.000000 0.141295 -0.000113 0.000000 0.157144 0.000041 0.000000 0.144727 -0.000135 0.000000 0.154533 0.000001 0.000000 0.153890 -0.000036 0.000000 0.148785 -0.000211 0.000000 0.161223 -0.000008 0.000000 0.150938 -0.000327 0.000000 0.159568 -0.000373 0.000000 0.158538 -0.000499 0.000000 0.154033 -0.001132 0.000000 0.166595 -0.000747 0.000000 0.155085 -0.001252 0.000000 0.165661 -0.002040 0.000000 0.163206 -0.001988 0.000000 0.162348 -0.000128 0.000000 0.169834 0.001902 0.000000 0.159084 0.001700 0.000000 0.166034 0.001162 0.000000 0.162463 0.001067 0.000000 0.159320 0.001401 0.000000 0.166562 0.000570 0.000000 0.156956 0.000469 0.000000 0.164982 0.000288 0.000000 0.160103 -0.000061 0.000000 0.160461 0.000201 0.000000 0.165098 -0.000133 0.000000 0.158255 0.000000 0.000000 0.165032 -0.000005 0.000000 0.161695 -0.000109 0.000000 0.161691 0.000030 0.000000 0.166751 -0.000049 0.000000 0.159389 -0.000073 0.000000 0.167758 0.000070 0.000000 0.163062 -0.000108 0.000000 0.165154 0.000035 0.000000 0.168071 -0.000025 0.000000 0.162921 -0.000182 0.000000 0.169904 0.000014 0.000000 0.166606 -0.000318 0.000000 0.167792 -0.000341 0.000000 0.171689 -0.000509 0.000000 0.165750 -0.001111 0.000000 0.174815 -0.000770 0.000000 0.169385 -0.001330 0.000000 0.173381 -0.002052 0.000000 0.176205 -0.001981 0.000000 0.173035 -0.000381 0.000000 0.179171 0.001622 0.000000 0.172969 0.001756 0.000000 0.174343 0.001165 0.000000 0.175650 0.001084 0.000000 0.169917 0.001382 0.000000 0.176632 0.000519 0.000000 0.169512 0.000547 0.000000 0.173728 0.000241 0.000000 0.172248 -0.000032 0.000000 0.170219 0.000179 0.000000 0.174823 -0.000192 0.000000 0.168715 0.000032 0.000000 0.173132 -0.000094 0.000000 0.171396 -0.000127 0.000000 0.169589 -0.000016 0.000000 0.174373 -0.000161 0.000000 0.166847 -0.000023 0.000000 0.173650 -0.000090 0.000000 0.169090 -0.000093 0.000000 0.170121 -0.000034 0.000000 0.172156 -0.000103 0.000000 0.166646 -0.000011 0.000000 0.172460 -0.000063 0.000000 0.168347 -0.000043 0.000000 0.169120 -0.000027 0.000000 0.171386 -0.000063 0.000000 0.165342 -0.000020 0.000000 0.172676 -0.000054 0.000000 0.166422 -0.000043 0.000000 0.169788 -0.000038 0.000000 0.169493 -0.000050 0.000000 0.166110 -0.000028 0.000000 0.171673 -0.000038 0.000000 0.166281 -0.000016 0.000000 0.169213 -0.000015 0.000000 0.169257 -0.000003 0.000000 0.165761 0.000011 0.000000 0.172073 0.000003 0.000000 0.164765 0.000014 0.000000 0.170216 0.000010 0.000000 0.167854 0.000004 0.000000 0.166823 0.000006 0.000000 0.170973 0.000003 0.000000 0.164926 0.000006 0.000000 0.169776 0.000006 0.000000 0.167931 0.000008 0.000000 0.166420 0.000012 0.000000 0.171123 0.000010 0.000000 0.163894 0.000014 0.000000 0.170496 0.000014 0.000000 0.166681 0.000011 0.000000 0.167193 0.000015 0.000000 0.169837 0.000007 0.000000 0.163123 0.000009 0.000000 0.168762 0.000003 0.000000 0.166296 -0.000008 0.000000 0.171118 -0.000008 0.000000 0.166323 -0.000021 0.000000 0.133399 -0.000019 0.000000 0.101513 -0.000013 0.000000 0.073270 -0.000010 0.000000 0.044614 -0.000005 0.000000 0.014441 -0.000003 0.000000 
-0.007110 0.047458 0.000000 -0.059715 0.065097 0.000000 -0.128792 0.086574 0.000000 -0.228014 0.107609 0.000000 -0.341720 0.114237 0.000000 -0.461955 0.092493 0.000000 -0.517130 0.020131 0.000000 -0.487701 0.007992 0.000000 -0.526687 0.018190 0.000000 -0.528238 0.028891 0.000000 -0.591895 0.063740 0.000000 -0.678834 0.047226 0.000000 -0.682705 0.092737 0.000000 -0.978905 0.097830 0.000000 -0.975434 -0.017137 0.000000 -0.868404 0.051450 0.000000 -1.026302 0.060288 0.000000 -0.936071 -0.029722 0.000000 -0.947030 0.032129 0.000000 -1.002445 -0.148166 0.000000 -0.691266 -0.123841 0.000000 -0.673974 0.034997 0.000000 -0.748191 -0.191903 0.000000 -0.335485 -0.041466 0.000000 -0.638833 0.012987 0.000000 -0.345816 -0.115348 0.000000 -0.402771 0.065455 0.000000 -0.503832 -0.072442 0.000000 -0.240236 0.002258 0.000000 -0.515981 0.012700 0.000000 -0.261510 -0.077549 0.000000 -0.365184 0.061139 0.000000 -0.402797 -0.081110 0.000000 -0.192798 0.018459 0.000000 -0.442861 0.001347 0.000000 -0.196430 -0.052809 0.000000 -0.338334 0.051009 0.000000 -0.315140 -0.085083 0.000000 -0.156267 0.027257 0.000000 -0.376081 -0.007335 0.000000 -0.140778 -0.035933 0.000000 -0.305093 0.041175 0.000000 -0.234368 -0.082262 0.000000 -0.130475 0.032554 0.000000 -0.308055 -0.015718 0.000000 -0.098533 -0.022682 0.000000 -0.262817 0.030685 0.000000 -0.167487 -0.073243 0.000000 -0.107932 0.035057 0.000000 -0.248221 -0.022965 0.000000 -0.060913 -0.011949 0.000000 -0.223812 0.021099 0.000000 -0.107264 -0.059890 0.000000 -0.097280 0.035785 0.000000 -0.189585 -0.029634 0.000000 -0.035586 -0.002965 0.000000 -0.182369 0.012025 0.000000 -0.061894 -0.044358 0.000000 -0.090334 0.033304 0.000000 -0.139615 -0.038877 0.000000 -0.010193 0.004249 0.000000 -0.151667 0.002417 0.000000 -0.020760 -0.045728 0.000000 -0.066785 0.025357 0.000000 -0.083826 -0.023220 0.000000 -0.003855 0.016981 0.000000 -0.113375 -0.006446 0.000000 0.009855 -0.021937 0.000000 -0.064541 0.026628 0.000000 -0.049253 -0.038309 0.000000 0.022046 0.014471 0.000000 -0.079755 -0.005309 0.000000 0.031645 -0.014008 0.000000 -0.050295 0.018467 0.000000 -0.010483 -0.037631 0.000000 0.031068 0.016001 0.000000 -0.047159 -0.009507 0.000000 0.048916 -0.008627 0.000000 -0.029018 0.013325 0.000000 0.019232 -0.031842 0.000000 0.040017 0.017587 0.000000 -0.020271 -0.013079 0.000000 0.066536 -0.003797 0.000000 -0.011075 0.008458 0.000000 0.048295 -0.024363 0.000000 0.041685 0.017912 0.000000 0.008560 -0.017022 0.000000 0.077593 0.000265 0.000000 0.009342 0.004414 0.000000 0.067551 -0.017778 0.000000 0.046547 0.016286 0.000000 0.030645 -0.021140 0.000000 0.090247 0.002844 0.000000 0.022664 -0.000252 0.000000 0.087024 -0.020931 0.000000 0.060998 0.010866 0.000000 0.058806 -0.011455 0.000000 0.091384 0.009853 0.000000 0.042798 -0.002472 0.000000 0.098864 -0.008373 0.000000 0.063623 0.012717 0.000000 0.072637 -0.016310 0.000000 0.102895 0.007714 0.000000 0.057294 -0.002920 0.000000 0.108990 -0.005596 0.000000 0.069717 0.008010 0.000000 0.091157 -0.016145 0.000000 0.105294 0.007743 0.000000 0.073222 -0.005202 0.000000 0.115228 -0.003527 0.000000 0.080391 0.005386 0.000000 0.102825 -0.013329 0.000000 0.108894 0.008247 0.000000 0.083550 -0.007185 0.000000 0.123288 -0.001577 0.000000 0.086638 0.003039 0.000000 0.115773 -0.010118 0.000000 0.107607 0.007979 0.000000 0.097163 -0.009339 0.000000 0.127034 -0.000142 0.000000 0.096883 0.001080 0.000000 0.123171 -0.008238 0.000000 0.112885 0.006699 0.000000 0.106742 -0.011056 0.000000 0.134483 0.000589 0.000000 0.102908 -0.001148 0.000000 0.133494 -0.010231 0.000000 0.119562 0.003429 0.000000 0.121353 -0.006618 0.000000 0.134990 0.005949 0.000000 0.112334 0.001533 0.000000 0.135320 -0.002765 0.000000 0.121163 0.006738 0.000000 0.122953 -0.005594 0.000000 0.136665 0.003767 0.000000 0.115723 -0.000593 0.000000 0.138550 -0.002513 0.000000 0.121357 0.003547 0.000000 0.130612 -0.006471 0.000000 0.135597 0.002837 0.000000 0.123505 -0.002155 0.000000 0.139866 -0.002237 0.000000 0.127895 0.002080 0.000000 0.135008 -0.005531 0.000000 0.139366 0.002877 0.000000 0.128125 -0.003262 0.000000 0.146185 -0.001656 0.000000 0.131366 0.001171 0.000000 0.143301 -0.004550 0.000000 0.140576 0.002886 0.000000 0.136737 -0.003840 0.000000 0.148635 -0.000968 0.000000 0.138358 0.000615 0.000000 0.146650 -0.003993 0.000000 0.145650 0.002494 0.000000 0.140267 -0.004980 0.000000 0.154340 -0.000916 0.000000 0.140048 -0.000415 0.000000 0.152664 -0.006031 0.000000 0.148340 -0.000508 0.000000 0.149015 -0.003442 0.000000 0.154938 0.003764 0.000000 0.144636 0.003626 0.000000 0.151669 -0.000779 0.000000 0.149208 0.004264 0.000000 0.145358 -0.000663 0.000000 0.153742 0.001622 0.000000 0.143000 0.001148 0.000000 0.152621 -0.001360 0.000000 0.146190 0.002114 0.000000 0.148290 -0.002318 0.000000 0.151305 0.000930 0.000000 0.145775 0.000007 0.000000 0.151512 -0.001727 0.000000 0.149051 0.001536 0.000000 0.148220 -0.002493 0.000000 0.154008 0.001096 0.000000 0.145691 -0.000585 0.000000 0.155312 -0.001746 0.000000 0.149124 0.001196 0.000000 0.152744 -0.002435 0.000000 0.153921 0.001140 0.000000 0.150367 -0.001057 0.000000 0.155977 -0.001708 0.000000 0.153621 0.000853 0.000000 0.153802 -0.002696 0.000000 0.158244 0.000738 0.000000 0.151472 -0.002482 0.000000 0.161356 -0.002234 0.000000 0.154064 -0.000274 0.000000 0.159523 -0.005367 0.000000 0.160912 -0.001923 0.000000 0.158980 -0.001921 0.000000 0.163407 0.001799 0.000000 0.158554 0.004238 0.000000 0.159130 -0.000386 0.000000 0.162072 0.003138 0.000000 0.155442 0.000870 0.000000 0.163068 0.000589 0.000000 0.155424 0.001911 0.000000 0.160652 -0.001195 0.000000 0.158081 0.001648 0.000000 0.157579 -0.001121 0.000000 0.160488 0.000521 0.000000 0.156114 0.000872 0.000000 0.159056 -0.001435 0.000000 0.158540 0.001632 0.000000 0.155762 -0.001493 0.000000 0.161292 0.001201 0.000000 0.153044 0.000348 0.000000 0.160802 -0.001207 0.000000 0.155009 0.001669 0.000000 0.157476 -0.001560 0.000000 0.157863 0.001632 0.000000 0.154078 -0.000155 0.000000 0.158375 -0.000912 0.000000 0.155491 0.001628 0.000000 0.155218 -0.001542 0.000000 0.158323 0.001824 0.000000 0.151569 -0.000661 0.000000 0.159749 -0.000593 0.000000 0.152376 0.001401 0.000000 0.157071 -0.001571 0.000000 0.155273 0.001790 0.000000 0.153573 -0.001118 0.000000 0.157497 -0.000124 0.000000 0.153535 0.001215 0.000000 0.155255 -0.001503 0.000000 0.156340 0.001724 0.000000 0.151989 -0.001394 0.000000 0.159075 0.000501 0.000000 0.150888 0.000944 0.000000 0.157470 -0.001533 0.000000 0.153788 0.001700 0.000000 0.154274 -0.001554 0.000000 0.156772 0.000952 0.000000 0.152410 0.000604 0.000000 0.155804 -0.001497 0.000000 0.155245 0.001686 0.000000 0.152651 -0.001584 0.000000 0.158324 0.001273 0.000000 0.150270 0.000328 0.000000 0.157925 -0.001380 0.000000 0.152920 0.001663 0.000000 0.154969 -0.001563 0.000000 0.156045 0.002042 0.000000 0.151475 0.000547 0.000000 0.155489 -0.001583 0.000000 0.155346 -0.001186 0.000000 0.159190 -0.000021 0.000000 0.158777 0.018837 0.000000 0.128831 0.032384 0.000000 0.104759 0.030052 0.000000 0.079558 0.028441 0.000000 0.057371 0.029410 0.000000 0.028031 0.036057 0.000000 
0.003597 0.087745 0.000000 -0.033183 0.121683 0.000000 -0.090409 0.168305 0.000000 -0.166034 0.212936 0.000000 -0.267738 0.233954 0.000000 -0.370361 0.175429 0.000000 -0.381651 0.025773 0.000000 -0.308548 0.009569 0.000000 -0.347318 0.040553 0.000000 -0.260119 0.065217 0.000000 -0.279664 0.150604 0.000000 -0.190298 0.090815 0.000000 -0.030979 0.300071 0.000000 -0.056575 0.292729 0.000000 -0.030526 -0.110549 0.000000 0.149282 0.050759 0.000000 0.095517 0.067546 0.000000 0.106199 -0.079409 0.000000 0.203989 0.066162 0.000000 -0.109595 -0.255872 0.000000 0.032539 -0.328458 0.000000 -0.081508 0.056761 0.000000 -0.372418 -0.338621 0.000000 -0.143540 -0.109519 0.000000 -0.449682 0.010083 0.000000 -0.215077 -0.236256 0.000000 -0.247507 0.157837 0.000000 -0.413514 -0.162666 0.000000 -0.111518 0.012098 0.000000 -0.435725 0.021214 0.000000 -0.151199 -0.150786 0.000000 -0.286410 0.141376 0.000000 -0.333619 -0.172328 0.000000 -0.101918 0.040274 0.000000 -0.381491 0.003818 0.000000 -0.114349 -0.104291 0.000000 -0.286529 0.119047 0.000000 -0.265147 -0.181872 0.000000 -0.086697 0.061346 0.000000 -0.336324 -0.015213 0.000000 -0.079277 -0.070664 0.000000 -0.275742 0.093932 0.000000 -0.197663 -0.174502 0.000000 -0.082597 0.074019 0.000000 -0.287820 -0.031834 0.000000 -0.056201 -0.045055 0.000000 -0.252411 0.069140 0.000000 -0.141581 -0.154948 0.000000 -0.081454 0.080990 0.000000 -0.242970 -0.047052 0.000000 -0.036755 -0.024160 0.000000 -0.226996 0.046582 0.000000 -0.093171 -0.126431 0.000000 -0.089024 0.082805 0.000000 -0.197908 -0.061586 0.000000 -0.024475 -0.006713 0.000000 -0.197478 0.026439 0.000000 -0.056522 -0.092327 0.000000 -0.101517 0.077580 0.000000 -0.156492 -0.081038 0.000000 -0.015281 0.011582 0.000000 -0.181370 0.008632 0.000000 -0.032432 -0.092331 0.000000 -0.093848 0.061252 0.000000 -0.119832 -0.053327 0.000000 -0.034297 0.033329 0.000000 -0.155745 -0.015569 0.000000 -0.008946 -0.047766 0.000000 -0.106049 0.060625 0.000000 -0.080961 -0.084468 0.000000 -0.005485 0.031380 0.000000 -0.121721 -0.009356 0.000000 0.003905 -0.029029 0.000000 -0.096443 0.042024 0.000000 -0.046384 -0.081215 0.000000 -0.004471 0.036720 0.000000 -0.096623 -0.017857 0.000000 0.013759 -0.017867 0.000000 -0.083475 0.029868 0.000000 -0.020859 -0.068747 0.000000 -0.006914 0.040001 0.000000 -0.073938 -0.026300 0.000000 0.022216 -0.008580 0.000000 -0.069859 0.018651 0.000000 0.001663 -0.052351 0.000000 -0.013791 0.040421 0.000000 -0.050150 -0.035780 0.000000 0.027662 -0.000183 0.000000 -0.055499 0.010244 0.000000 0.016331 -0.037285 0.000000 -0.019236 0.037042 0.000000 -0.030960 -0.044503 0.000000 0.030226 0.007659 0.000000 -0.050019 0.002104 0.000000 0.024996 -0.042361 0.000000 -0.013552 0.026966 0.000000 -0.017191 -0.025857 0.000000 0.014995 0.018749 0.000000 -0.036437 -0.007333 0.000000 0.033592 -0.019624 0.000000 -0.015905 0.027621 0.000000 0.004707 -0.037484 0.000000 0.031718 0.016246 0.000000 -0.017524 -0.005585 0.000000 0.040533 -0.011942 0.000000 -0.008805 0.017888 0.000000 0.021678 -0.035308 0.000000 0.031123 0.017914 0.000000 -0.004448 -0.009982 0.000000 0.044109 -0.007175 0.000000 -0.001573 0.012240 0.000000 0.031968 -0.028560 0.000000 0.028633 0.019149 0.000000 0.005778 -0.014605 0.000000 0.047322 -0.003157 0.000000 0.004322 0.007260 0.000000 0.040907 -0.021103 0.000000 0.024342 0.018431 0.000000 0.017592 -0.019775 0.000000 0.048945 0.000113 0.000000 0.011622 0.003397 0.000000 0.046433 -0.016535 0.000000 0.024586 0.015800 0.000000 0.026451 -0.022825 0.000000 0.049536 0.002965 0.000000 0.014070 -0.000417 0.000000 0.049452 -0.019275 0.000000 0.024192 0.010453 0.000000 0.028575 -0.014314 0.000000 0.039921 0.011001 0.000000 0.018556 0.000945 0.000000 0.049049 -0.007682 0.000000 0.026547 0.013420 0.000000 0.039324 -0.014048 0.000000 0.046761 0.007800 0.000000 0.028469 -0.001494 0.000000 0.052660 -0.005351 0.000000 0.030872 0.007806 0.000000 0.046499 -0.014062 0.000000 0.045529 0.006944 0.000000 0.035433 -0.004331 0.000000 0.053060 -0.004418 0.000000 0.036039 0.004700 0.000000 0.050303 -0.011469 0.000000 0.045750 0.006807 0.000000 0.041392 -0.006932 0.000000 0.055812 -0.003200 0.000000 0.040307 0.002748 0.000000 0.055518 -0.009209 0.000000 0.046465 0.006528 0.000000 0.048746 -0.008270 0.000000 0.057227 -0.001629 0.000000 0.045492 0.001659 0.000000 0.058110 -0.007665 0.000000 0.048590 0.005884 0.000000 0.051966 -0.009821 0.000000 0.057635 -0.000528 0.000000 0.045106 0.000424 0.000000 0.058101 -0.010332 0.000000 0.045376 0.001661 0.000000 0.048778 -0.006726 0.000000 0.050894 0.006281 0.000000 0.045996 0.004969 0.000000 0.055709 -0.003409 0.000000 0.049051 0.007378 0.000000 0.054787 -0.003133 0.000000 0.055431 0.002928 0.000000 0.051468 0.001590 0.000000 0.058596 -0.002902 0.000000 0.051367 0.004271 0.000000 0.057619 -0.004914 0.000000 0.054583 0.002382 0.000000 0.054228 -0.000207 0.000000 0.057709 -0.003281 0.000000 0.053707 0.003183 0.000000 0.057578 -0.004927 0.000000 0.055619 0.002479 0.000000 0.055779 -0.001376 0.000000 0.058853 -0.003363 0.000000 0.055348 0.002460 0.000000 0.059602 -0.004762 0.000000 0.056492 0.002352 0.000000 0.059249 -0.002237 0.000000 0.059235 -0.003239 0.000000 0.058707 0.001857 0.000000 0.060286 -0.004964 0.000000 0.058843 0.001821 0.000000 0.060002 -0.004223 0.000000 0.059952 -0.003362 0.000000 0.057530 0.000504 0.000000 0.059926 -0.008899 0.000000 0.056401 -0.001438 0.000000 0.055993 -0.002876 0.000000 0.054971 0.002047 0.000000 0.058591 0.006033 0.000000 0.058905 -0.002353 0.000000 0.060576 0.004772 0.000000 0.061760 0.000386 0.000000 0.061341 0.000536 0.000000 0.062989 0.002963 0.000000 0.062763 -0.002416 0.000000 0.062044 0.003040 0.000000 0.063991 -0.002227 0.000000 0.061128 0.001273 0.000000 0.063722 0.001464 0.000000 0.061954 -0.002520 0.000000 0.062043 0.003167 0.000000 0.062767 -0.002768 0.000000 0.060974 0.002557 0.000000 0.062267 0.000467 0.000000 0.061925 -0.002055 0.000000 0.060383 0.003233 0.000000 0.062739 -0.002888 0.000000 0.059344 0.003294 0.000000 0.062336 -0.000523 0.000000 0.060310 -0.001476 0.000000 0.060412 0.003114 0.000000 0.061220 -0.002860 0.000000 0.059392 0.003586 0.000000 0.061026 -0.001446 0.000000 0.060138 -0.000861 0.000000 0.059308 0.002635 0.000000 0.061162 -0.002935 0.000000 0.058320 0.003449 0.000000 0.061309 -0.002253 0.000000 0.058659 -0.000000 0.000000 0.060029 0.002226 0.000000 0.059760 -0.002819 0.000000 0.059036 0.003263 0.000000 0.060189 -0.002724 0.000000 0.058926 0.001104 0.000000 0.059511 0.001619 0.000000 0.059919 -0.002890 0.000000 0.058526 0.003200 0.000000 0.060541 -0.002978 0.000000 0.058142 0.001867 0.000000 0.060435 0.000974 0.000000 0.058788 -0.002830 0.000000 0.059543 0.003161 0.000000 0.059536 -0.003066 0.000000 0.058967 0.002391 0.000000 0.059940 0.000412 0.000000 0.059106 -0.002636 0.000000 0.059345 0.002967 0.000000 0.059803 -0.003110 0.000000 0.058780 0.003502 0.000000 0.060695 0.000564 0.000000 0.058702 -0.003868 0.000000 0.060107 -0.003709 0.000000 0.059146 -0.003439 0.000000 0.062813 0.030338 0.000000 0.069172 0.053998 0.000000 0.068013 0.049261 0.000000 0.063004 0.047378 0.000000 0.049733 0.051522 0.000000 0.032434 0.064477 0.000000 
0.052128 0.113075 0.000000 0.034788 0.159103 0.000000 0.015589 0.219425 0.000000 -0.010495 0.284937 0.000000 -0.038483 0.318564 0.000000 -0.079310 0.206406 0.000000 -0.042860 -0.041682 0.000000 -0.011070 -0.026341 0.000000 -0.025696 -0.030239 0.000000 0.016070 -0.038762 0.000000 0.055924 -0.006081 0.000000 0.120866 -0.201459 0.000000 0.210994 -0.040986 0.000000 0.230048 0.097376 0.000000 0.246953 -0.222994 0.000000 0.122887 -0.074592 0.000000 0.296996 0.103371 0.000000 0.189102 -0.138194 0.000000 0.223238 0.247924 0.000000 0.257468 0.023284 0.000000 -0.031976 -0.151928 0.000000 0.335643 0.439954 0.000000 0.075850 -0.129872 0.000000 0.130046 0.035798 0.000000 -0.037743 0.084525 0.000000 0.018355 -0.317523 0.000000 0.013352 0.263891 0.000000 -0.058120 -0.208431 0.000000 0.024590 0.024470 0.000000 -0.070460 0.052382 0.000000 0.005102 -0.226864 0.000000 -0.035943 0.243559 0.000000 -0.062742 -0.265602 0.000000 0.005878 0.066331 0.000000 -0.069526 0.013778 0.000000 0.001932 -0.147771 0.000000 -0.052239 0.201806 0.000000 -0.056064 -0.284916 0.000000 0.000009 0.098434 0.000000 -0.069004 -0.014755 0.000000 0.002438 -0.096515 0.000000 -0.061804 0.159561 0.000000 -0.042156 -0.275407 0.000000 -0.008941 0.122711 0.000000 -0.064414 -0.042115 0.000000 -0.002225 -0.058091 0.000000 -0.062950 0.116065 0.000000 -0.032702 -0.244200 0.000000 -0.014608 0.136445 0.000000 -0.062822 -0.067663 0.000000 -0.003304 -0.027923 0.000000 -0.065410 0.077515 0.000000 -0.021636 -0.197862 0.000000 -0.026251 0.140521 0.000000 -0.055851 -0.094183 0.000000 -0.007261 -0.003396 0.000000 -0.060207 0.044071 0.000000 -0.015923 -0.140319 0.000000 -0.034700 0.133274 0.000000 -0.051716 -0.125113 0.000000 -0.010358 0.029128 0.000000 -0.063591 0.019568 0.000000 -0.014494 -0.133251 0.000000 -0.047724 0.112756 0.000000 -0.052550 -0.082770 0.000000 -0.031150 0.052895 0.000000 -0.063575 -0.031797 0.000000 -0.017754 -0.071632 0.000000 -0.051867 0.098643 0.000000 -0.038674 -0.138873 0.000000 -0.019076 0.055231 0.000000 -0.053233 -0.014700 0.000000 -0.012521 -0.039285 0.000000 -0.051217 0.068756 0.000000 -0.027685 -0.129603 0.000000 -0.023830 0.066240 0.000000 -0.046919 -0.027737 0.000000 -0.015353 -0.021774 0.000000 -0.048662 0.047943 0.000000 -0.024367 -0.108403 0.000000 -0.026885 0.070666 0.000000 -0.044463 -0.042209 0.000000 -0.015281 -0.007876 0.000000 -0.048999 0.029010 0.000000 -0.019043 -0.080431 0.000000 -0.034987 0.069726 0.000000 -0.037910 -0.058475 0.000000 -0.019769 0.005614 0.000000 -0.045314 0.015745 0.000000 -0.019998 -0.054040 0.000000 -0.038919 0.063576 0.000000 -0.036519 -0.070603 0.000000 -0.023031 0.021903 0.000000 -0.049299 0.004978 0.000000 -0.020844 -0.057397 0.000000 -0.047698 0.053053 0.000000 -0.040491 -0.040003 0.000000 -0.039141 0.029099 0.000000 -0.047076 -0.021069 0.000000 -0.024535 -0.028904 0.000000 -0.045260 0.041602 0.000000 -0.029356 -0.063933 0.000000 -0.028403 0.029945 0.000000 -0.040064 -0.011735 0.000000 -0.020598 -0.014315 0.000000 -0.043200 0.026866 0.000000 -0.022772 -0.056073 0.000000 -0.032250 0.033869 0.000000 -0.034821 -0.018188 0.000000 -0.023657 -0.006401 0.000000 -0.039850 0.017526 0.000000 -0.023176 -0.043536 0.000000 -0.033460 0.034437 0.000000 -0.033600 -0.025874 0.000000 -0.023474 -0.000121 0.000000 -0.039948 0.009454 0.000000 -0.020891 -0.030137 0.000000 -0.038088 0.031295 0.000000 -0.028201 -0.033942 0.000000 -0.027409 0.005827 0.000000 -0.036269 0.003592 0.000000 -0.023438 -0.021202 0.000000 -0.037949 0.026682 0.000000 -0.028605 -0.036006 0.000000 -0.029762 0.012970 0.000000 -0.039524 -0.001064 0.000000 -0.024517 -0.020353 0.000000 -0.046297 0.024306 0.000000 -0.035274 -0.022347 0.000000 -0.042159 0.015968 0.000000 -0.037843 -0.007595 0.000000 -0.029427 -0.010756 0.000000 -0.040683 0.016464 0.000000 -0.026410 -0.025808 0.000000 -0.032989 0.014622 0.000000 -0.032531 -0.006492 0.000000 -0.025256 -0.004916 0.000000 -0.037367 0.009708 0.000000 -0.022140 -0.021128 0.000000 -0.035560 0.013903 0.000000 -0.027841 -0.009685 0.000000 -0.028689 -0.002843 0.000000 -0.033569 0.004836 0.000000 -0.024527 -0.015242 0.000000 -0.035015 0.011789 0.000000 -0.027249 -0.013324 0.000000 -0.028530 -0.000572 0.000000 -0.033820 0.001464 0.000000 -0.023291 -0.010708 0.000000 -0.037460 0.009659 0.000000 -0.023230 -0.014601 0.000000 -0.032175 0.002285 0.000000 -0.030425 -0.000268 0.000000 -0.026332 -0.007091 0.000000 -0.035842 0.008638 0.000000 -0.025239 -0.014025 0.000000 -0.033859 0.005944 0.000000 -0.033782 -0.000882 0.000000 -0.027393 -0.006301 0.000000 -0.043923 0.008816 0.000000 -0.033885 -0.008960 0.000000 -0.044051 0.006546 0.000000 -0.031890 -0.001189 0.000000 -0.032793 -0.003835 0.000000 -0.037301 0.005186 0.000000 -0.025765 -0.007043 0.000000 -0.035255 0.004942 0.000000 -0.028006 -0.002017 0.000000 -0.028360 -0.001259 0.000000 -0.033725 0.003091 0.000000 -0.022792 -0.005535 0.000000 -0.036687 0.004320 0.000000 -0.023878 -0.003119 0.000000 -0.031604 -0.001206 0.000000 -0.030041 0.001668 0.000000 -0.025901 -0.004404 0.000000 -0.034690 0.002895 0.000000 -0.024336 -0.003820 0.000000 -0.031210 -0.001315 0.000000 -0.030484 0.000448 0.000000 -0.025119 -0.003579 0.000000 -0.036114 0.001493 0.000000 -0.021482 -0.003799 0.000000 -0.034603 -0.001166 0.000000 -0.027261 -0.000198 0.000000 -0.028531 -0.002833 0.000000 -0.033914 0.001022 0.000000 -0.024443 -0.003591 0.000000 -0.035909 0.000239 0.000000 -0.030637 -0.000248 0.000000 -0.030414 -0.004238 0.000000 -0.041685 0.002010 0.000000 -0.032958 -0.000491 0.000000 -0.045722 -0.000799 0.000000 -0.029142 0.000304 0.000000 -0.034909 -0.002371 0.000000 -0.034669 0.000283 0.000000 -0.026054 0.000105 0.000000 -0.036008 -0.000640 0.000000 -0.025057 0.000489 0.000000 -0.030266 -0.000251 0.000000 -0.031356 0.000421 0.000000 -0.023526 -0.000205 0.000000 -0.036869 0.000789 0.000000 -0.021650 0.000046 0.000000 -0.033470 0.000245 0.000000 -0.028452 0.000819 0.000000 -0.026811 -0.000424 0.000000 -0.034757 0.001702 0.000000 -0.023163 -0.000602 0.000000 -0.032807 0.000677 0.000000 -0.029454 0.000855 0.000000 -0.026014 -0.000521 0.000000 -0.035937 0.002035 0.000000 -0.021060 -0.001122 0.000000 -0.035691 0.001013 0.000000 -0.026384 0.000718 0.000000 -0.028993 -0.000522 0.000000 -0.032837 0.002018 0.000000 -0.023258 -0.001407 0.000000 -0.034465 0.001126 0.000000 -0.027155 0.000378 0.000000 -0.028459 -0.000584 0.000000 -0.033737 0.001643 0.000000 -0.022408 -0.001456 0.000000 -0.037291 0.001156 0.000000 -0.024110 0.000114 0.000000 -0.031974 -0.000510 0.000000 -0.030505 0.001296 0.000000 -0.025760 -0.001284 0.000000 -0.035455 0.001179 0.000000 -0.024669 -0.000049 0.000000 -0.031533 -0.000548 0.000000 -0.031107 0.001078 0.000000 -0.025050 -0.001170 0.000000 -0.036856 0.001057 0.000000 -0.021769 -0.000042 0.000000 -0.034663 -0.000604 0.000000 -0.027805 0.000938 0.000000 -0.028049 -0.001008 0.000000 -0.033958 0.000868 0.000000 -0.023136 0.000188 0.000000 -0.033499 -0.000785 0.000000 -0.028288 0.000966 0.000000 -0.027269 -0.000997 0.000000 -0.034514 0.001150 0.000000 -0.019823 0.000625 0.000000 -0.034630 -0.000995 0.000000 -0.027435 -0.001630 0.000000 -0.040326 -0.002727 0.000000 -0.030211 0.008811 0.000000 0.019179 0.027184 0.000000 0.050617 0.036221 0.000000 0.065625 0.046721 0.000000 0.069298 0.059980 0.000000 0.062875 0.082192 0.000000 