# vtk DataFile Version 2.0
Comment goes here
ASCII

DATASET STRUCTURED_POINTS
FIELD FieldData 1
TIME 1 1 double
0.07300000
DIMENSIONS    256   32   1

ORIGIN    0.000   0.000   0.000
SPACING   0.0078125 0.0078125   1.000

POINT_DATA   8192
VECTORS u double

-0.019228 -0.000002 0.000000 -0.055680 -0.000003 0.000000 -0.109592 -0.000004 0.000000 -0.178190 -0.000006 0.000000 -0.267183 -0.000009 0.000000 -0.353118 -0.000012 0.000000 -0.413602 -0.000016 0.000000 -0.380937 -0.000011 0.000000 -0.429738 -0.000010 0.000000 -0.406213 -0.000002 0.000000 -0.466512 -0.000003 0.000000 -0.515743 -0.000000 0.000000 -0.538291 0.000011 0.000000 -0.671297 0.000008 0.000000 -0.717205 0.000012 0.000000 -0.620012 0.000022 0.000000 -0.783354 0.000024 0.000000 -0.732054 0.000030 0.000000 -0.729795 0.000032 0.000000 -0.821267 0.000031 0.000000 -0.507488 0.000022 0.000000 -0.580241 0.000024 0.000000 -0.590850 -0.000008 0.000000 -0.283148 0.000007 0.000000 -0.491676 0.000015 0.000000 -0.308838 0.000007 0.000000 -0.306468 0.000022 0.000000 -0.416332 -0.000009 0.000000 -0.191611 0.000014 0.000000 -0.415732 0.000013 0.000000 -0.216829 0.000009 0.000000 -0.290291 0.000042 0.000000 -0.318674 0.000027 0.000000 -0.159074 0.000052 0.000000 -0.345336 0.000024 0.000000 -0.162855 0.000021 0.000000 -0.260528 0.000049 0.000000 -0.247282 0.000021 0.000000 -0.124665 0.000053 0.000000 -0.288244 0.000006 0.000000 -0.112814 0.000019 0.000000 -0.230350 0.000002 0.000000 -0.180295 -0.000049 0.000000 -0.101077 0.000027 0.000000 -0.230659 -0.000015 0.000000 -0.075439 0.000045 0.000000 -0.194328 0.000022 0.000000 -0.125275 -0.000035 0.000000 -0.080940 0.000089 0.000000 -0.180166 -0.000061 0.000000 -0.044368 0.000096 0.000000 -0.160991 -0.000005 0.000000 -0.077995 -0.000089 0.000000 -0.069072 0.000076 0.000000 -0.133845 -0.000240 0.000000 -0.022400 -0.000012 0.000000 -0.128512 -0.000223 0.000000 -0.041247 -0.000479 0.000000 -0.061431 -0.000364 0.000000 -0.093703 -0.000797 0.000000 -0.002967 -0.000592 0.000000 -0.099817 -0.001342 0.000000 -0.008805 -0.004864 0.000000 -0.044767 -0.000887 0.000000 -0.053085 0.007058 0.000000 0.007313 0.002448 0.000000 -0.071698 -0.001451 0.000000 0.012727 0.000584 0.000000 -0.038575 0.000648 0.000000 -0.025466 0.001216 0.000000 0.021516 0.000347 0.000000 -0.046443 0.000161 0.000000 0.030153 0.000281 0.000000 -0.024975 -0.000121 0.000000 0.002042 0.000193 0.000000 0.030062 -0.000079 0.000000 -0.021978 -0.000081 0.000000 0.044443 0.000026 0.000000 -0.008872 -0.000133 0.000000 0.024846 0.000005 0.000000 0.037319 -0.000031 0.000000 -0.000654 -0.000117 0.000000 0.056597 0.000036 0.000000 0.005508 -0.000099 0.000000 0.044532 -0.000034 0.000000 0.040728 0.000000 0.000000 0.019367 -0.000192 0.000000 0.065209 -0.000010 0.000000 0.020039 -0.000250 0.000000 0.059437 -0.000353 0.000000 0.045582 -0.000362 0.000000 0.036941 -0.000820 0.000000 0.074560 -0.000618 0.000000 0.033465 -0.001029 0.000000 0.074067 -0.002795 0.000000 0.056384 -0.001114 0.000000 0.056486 0.003044 0.000000 0.079582 0.001662 0.000000 0.047016 -0.000086 0.000000 0.082326 0.000587 0.000000 0.059943 0.000485 0.000000 0.066461 0.000963 0.000000 0.084700 0.000259 0.000000 0.056957 0.000166 0.000000 0.089028 0.000188 0.000000 0.065361 -0.000143 0.000000 0.077780 0.000156 0.000000 0.087538 -0.000112 0.000000 0.067238 -0.000038 0.000000 0.094386 0.000017 0.000000 0.072370 -0.000115 0.000000 0.086691 0.000024 0.000000 0.090418 -0.000040 0.000000 0.075446 -0.000092 0.000000 0.099618 0.000033 0.000000 0.077737 -0.000107 0.000000 0.094848 -0.000030 0.000000 0.091246 -0.000024 0.000000 0.083695 -0.000203 0.000000 0.102968 -0.000022 0.000000 0.083895 -0.000259 0.000000 0.100575 -0.000316 0.000000 0.094611 -0.000350 0.000000 0.090772 -0.000833 0.000000 0.107777 -0.000570 0.000000 0.089729 -0.000888 0.000000 0.107551 -0.001858 0.000000 0.100587 -0.001194 0.000000 0.100632 0.001142 0.000000 0.110656 0.001415 0.000000 0.096080 0.000724 0.000000 0.110234 0.000722 0.000000 0.101655 0.000570 0.000000 0.102632 0.000936 0.000000 0.111336 0.000339 0.000000 0.098624 0.000289 0.000000 0.112403 0.000243 0.000000 0.102595 -0.000036 0.000000 0.107050 0.000195 0.000000 0.111679 -0.000044 0.000000 0.102568 0.000024 0.000000 0.114221 0.000049 0.000000 0.105329 -0.000057 0.000000 0.110395 0.000046 0.000000 0.112927 -0.000009 0.000000 0.105186 -0.000052 0.000000 0.116984 0.000055 0.000000 0.106877 -0.000079 0.000000 0.114222 -0.000005 0.000000 0.113219 -0.000018 0.000000 0.108772 -0.000187 0.000000 0.118334 -0.000017 0.000000 0.109557 -0.000270 0.000000 0.116425 -0.000303 0.000000 0.115077 -0.000379 0.000000 0.111358 -0.000848 0.000000 0.121167 -0.000565 0.000000 0.111692 -0.000891 0.000000 0.120173 -0.001503 0.000000 0.118025 -0.001321 0.000000 0.116904 0.000242 0.000000 0.122750 0.001296 0.000000 0.114320 0.001040 0.000000 0.120133 0.000677 0.000000 0.117280 0.000546 0.000000 0.115113 0.000865 0.000000 0.121032 0.000257 0.000000 0.113359 0.000289 0.000000 0.120094 0.000167 0.000000 0.115989 -0.000070 0.000000 0.116602 0.000152 0.000000 0.120246 -0.000129 0.000000 0.114590 -0.000006 0.000000 0.120503 -0.000025 0.000000 0.117098 -0.000108 0.000000 0.117786 0.000010 0.000000 0.121244 -0.000075 0.000000 0.115239 -0.000071 0.000000 0.122412 0.000015 0.000000 0.117410 -0.000115 0.000000 0.120043 -0.000018 0.000000 0.121247 -0.000061 0.000000 0.117058 -0.000189 0.000000 0.123058 -0.000032 0.000000 0.118734 -0.000297 0.000000 0.120938 -0.000292 0.000000 0.122411 -0.000411 0.000000 0.117935 -0.000839 0.000000 0.125212 -0.000546 0.000000 0.119427 -0.000911 0.000000 0.123560 -0.001346 0.000000 0.124245 -0.001350 0.000000 0.121984 -0.000088 0.000000 0.126648 0.001300 0.000000 0.120741 0.001182 0.000000 0.122845 0.000646 0.000000 0.123108 0.000585 0.000000 0.119061 0.000837 0.000000 0.124546 0.000213 0.000000 0.118606 0.000326 0.000000 0.122418 0.000109 0.000000 0.121177 -0.000065 0.000000 0.119599 0.000121 0.000000 0.123633 -0.000178 0.000000 0.118694 0.000030 0.000000 0.122352 -0.000083 0.000000 0.121449 -0.000097 0.000000 0.119695 -0.000004 0.000000 0.124173 -0.000124 0.000000 0.118131 -0.000001 0.000000 0.123522 -0.000056 0.000000 0.120679 -0.000050 0.000000 0.120815 0.000001 0.000000 0.123396 -0.000056 0.000000 0.118640 0.000015 0.000000 0.123323 -0.000021 0.000000 0.120739 -0.000009 0.000000 0.120548 0.000009 0.000000 0.123391 -0.000013 0.000000 0.117987 0.000017 0.000000 0.123992 -0.000000 0.000000 0.119537 0.000001 0.000000 0.121323 0.000009 0.000000 0.122192 -0.000006 0.000000 0.118668 0.000004 0.000000 0.123530 -0.000003 0.000000 0.119484 -0.000004 0.000000 0.121161 -0.000001 0.000000 0.122215 -0.000004 0.000000 0.118576 -0.000002 0.000000 0.124183 0.000002 0.000000 0.118374 0.000003 0.000000 0.122225 0.000007 0.000000 0.121205 0.000011 0.000000 0.119528 0.000013 0.000000 0.123509 0.000018 0.000000 0.118407 0.000016 0.000000 0.122056 0.000021 0.000000 0.121102 0.000022 0.000000 0.119204 0.000020 0.000000 0.123510 0.000019 0.000000 0.117384 0.000012 0.000000 0.122590 0.000010 0.000000 0.119840 0.000002 0.000000 0.119674 0.000000 0.000000 0.122276 0.000001 0.000000 0.116525 -0.000002 0.000000 0.121195 0.000001 0.000000 0.119276 0.000001 0.000000 0.122561 0.000002 0.000000 0.119029 0.000006 0.000000 0.093483 0.000004 0.000000 0.070294 0.000002 0.000000 0.050635 0.000001 0.000000 0.030699 -0.000000 0.000000 0.009963 -0.000001 0.000000 
-0.003160 0.032819 0.000000 -0.040097 0.045179 0.000000 -0.087649 0.061251 0.000000 -0.159909 0.078789 0.000000 -0.245557 0.087456 0.000000 -0.343813 0.073196 0.000000 -0.386237 0.013892 0.000000 -0.359481 0.008055 0.000000 -0.399503 0.012627 0.000000 -0.392820 0.018384 0.000000 -0.446345 0.054760 0.000000 -0.530249 0.035887 0.000000 -0.514008 0.077787 0.000000 -0.778160 0.089461 0.000000 -0.796840 -0.025634 0.000000 -0.695133 0.033096 0.000000 -0.839286 0.056046 0.000000 -0.762448 -0.026751 0.000000 -0.757426 0.044643 0.000000 -0.824150 -0.111125 0.000000 -0.554967 -0.120481 0.000000 -0.517926 0.041709 0.000000 -0.603350 -0.148560 0.000000 -0.241934 -0.049581 0.000000 -0.489232 0.012863 0.000000 -0.255715 -0.092591 0.000000 -0.291458 0.053772 0.000000 -0.385860 -0.057441 0.000000 -0.162220 -0.000288 0.000000 -0.390418 0.012622 0.000000 -0.184501 -0.062716 0.000000 -0.265996 0.050968 0.000000 -0.301937 -0.065578 0.000000 -0.127081 0.013387 0.000000 -0.330892 0.001907 0.000000 -0.132718 -0.042392 0.000000 -0.245607 0.042262 0.000000 -0.230992 -0.067909 0.000000 -0.099943 0.020534 0.000000 -0.277451 -0.005928 0.000000 -0.088814 -0.028933 0.000000 -0.219729 0.033734 0.000000 -0.165622 -0.064701 0.000000 -0.081504 0.025203 0.000000 -0.222992 -0.012844 0.000000 -0.056538 -0.018124 0.000000 -0.186513 0.024929 0.000000 -0.112645 -0.056739 0.000000 -0.065170 0.027540 0.000000 -0.175915 -0.018359 0.000000 -0.028398 -0.009477 0.000000 -0.156556 0.016815 0.000000 -0.065754 -0.046034 0.000000 -0.058490 0.028060 0.000000 -0.130392 -0.023549 0.000000 -0.010404 -0.002584 0.000000 -0.124842 0.009308 0.000000 -0.031624 -0.033906 0.000000 -0.054198 0.026064 0.000000 -0.092410 -0.029841 0.000000 0.007319 0.002954 0.000000 -0.101157 0.001843 0.000000 -0.000575 -0.033365 0.000000 -0.037230 0.020929 0.000000 -0.050618 -0.017392 0.000000 0.009548 0.012313 0.000000 -0.072856 -0.005035 0.000000 0.019747 -0.016362 0.000000 -0.036787 0.019708 0.000000 -0.024839 -0.028828 0.000000 0.027916 0.010709 0.000000 -0.048046 -0.004303 0.000000 0.035477 -0.010516 0.000000 -0.026021 0.013840 0.000000 0.003844 -0.027349 0.000000 0.033662 0.011896 0.000000 -0.023455 -0.007309 0.000000 0.047241 -0.006529 0.000000 -0.010072 0.009639 0.000000 0.025242 -0.023087 0.000000 0.039904 0.012723 0.000000 -0.003957 -0.009766 0.000000 0.059191 -0.003026 0.000000 0.002434 0.005938 0.000000 0.045551 -0.017620 0.000000 0.040098 0.012630 0.000000 0.016655 -0.012397 0.000000 0.065727 -0.000250 0.000000 0.017240 0.002730 0.000000 0.058637 -0.012997 0.000000 0.043892 0.011073 0.000000 0.032680 -0.015155 0.000000 0.074888 0.001453 0.000000 0.027482 -0.000543 0.000000 0.072975 -0.014683 0.000000 0.054500 0.007502 0.000000 0.053174 -0.007814 0.000000 0.075202 0.006675 0.000000 0.041845 -0.001848 0.000000 0.080173 -0.006136 0.000000 0.056236 0.008305 0.000000 0.062092 -0.011435 0.000000 0.083083 0.004891 0.000000 0.051539 -0.002118 0.000000 0.087107 -0.004078 0.000000 0.060126 0.005397 0.000000 0.074757 -0.010952 0.000000 0.084213 0.005122 0.000000 0.062678 -0.003489 0.000000 0.090944 -0.002550 0.000000 0.067831 0.003707 0.000000 0.082503 -0.008994 0.000000 0.087196 0.005581 0.000000 0.069610 -0.004700 0.000000 0.096823 -0.001093 0.000000 0.071858 0.002282 0.000000 0.091518 -0.006758 0.000000 0.085980 0.005597 0.000000 0.078800 -0.006033 0.000000 0.098729 -0.000028 0.000000 0.078634 0.001029 0.000000 0.095755 -0.005541 0.000000 0.089504 0.004728 0.000000 0.084481 -0.007284 0.000000 0.103829 0.000220 0.000000 0.082220 -0.000537 0.000000 0.102888 -0.007433 0.000000 0.094728 0.002133 0.000000 0.095119 -0.003616 0.000000 0.103818 0.003868 0.000000 0.089587 0.000808 0.000000 0.104468 -0.002267 0.000000 0.095930 0.004232 0.000000 0.096366 -0.003941 0.000000 0.106455 0.002230 0.000000 0.091901 -0.000345 0.000000 0.107686 -0.001803 0.000000 0.095871 0.002565 0.000000 0.102161 -0.004368 0.000000 0.105591 0.002163 0.000000 0.096959 -0.001271 0.000000 0.108356 -0.001332 0.000000 0.099607 0.001836 0.000000 0.104407 -0.003750 0.000000 0.107481 0.002595 0.000000 0.098490 -0.002085 0.000000 0.112053 -0.000771 0.000000 0.099960 0.001306 0.000000 0.109180 -0.003148 0.000000 0.106342 0.002749 0.000000 0.103104 -0.002713 0.000000 0.112120 -0.000317 0.000000 0.103447 0.000771 0.000000 0.110048 -0.002927 0.000000 0.108781 0.002322 0.000000 0.104345 -0.003767 0.000000 0.115492 -0.000484 0.000000 0.103746 -0.000154 0.000000 0.114131 -0.004687 0.000000 0.110601 0.000181 0.000000 0.110615 -0.002061 0.000000 0.115121 0.002742 0.000000 0.107395 0.002347 0.000000 0.112953 -0.000994 0.000000 0.110935 0.002909 0.000000 0.108104 -0.001053 0.000000 0.114954 0.001012 0.000000 0.106263 0.000667 0.000000 0.114314 -0.001214 0.000000 0.108859 0.001602 0.000000 0.110967 -0.001995 0.000000 0.113191 0.000836 0.000000 0.108714 -0.000157 0.000000 0.113712 -0.001285 0.000000 0.111061 0.001230 0.000000 0.111078 -0.002057 0.000000 0.115137 0.001192 0.000000 0.108332 -0.000656 0.000000 0.116624 -0.001052 0.000000 0.110256 0.001073 0.000000 0.114333 -0.001905 0.000000 0.113940 0.001469 0.000000 0.111187 -0.001059 0.000000 0.116060 -0.000776 0.000000 0.112468 0.000849 0.000000 0.113961 -0.001991 0.000000 0.115844 0.001252 0.000000 0.110720 -0.002109 0.000000 0.118865 -0.001044 0.000000 0.111480 0.000155 0.000000 0.116968 -0.003721 0.000000 0.116357 -0.000697 0.000000 0.115473 -0.001313 0.000000 0.118770 0.002083 0.000000 0.113756 0.003132 0.000000 0.115104 -0.000730 0.000000 0.116684 0.002337 0.000000 0.111743 0.000076 0.000000 0.118076 0.000315 0.000000 0.111504 0.001312 0.000000 0.116209 -0.001243 0.000000 0.114026 0.001278 0.000000 0.113656 -0.001123 0.000000 0.116346 0.000234 0.000000 0.112828 0.000663 0.000000 0.115176 -0.001467 0.000000 0.115430 0.001218 0.000000 0.112692 -0.001358 0.000000 0.117977 0.000647 0.000000 0.111222 0.000332 0.000000 0.117395 -0.001328 0.000000 0.113605 0.001302 0.000000 0.114844 -0.001351 0.000000 0.116153 0.001029 0.000000 0.112791 0.000059 0.000000 0.116108 -0.001068 0.000000 0.114735 0.001379 0.000000 0.113482 -0.001312 0.000000 0.117232 0.001268 0.000000 0.111068 -0.000279 0.000000 0.117813 -0.000773 0.000000 0.112496 0.001337 0.000000 0.115284 -0.001315 0.000000 0.115009 0.001322 0.000000 0.112793 -0.000663 0.000000 0.116273 -0.000409 0.000000 0.113553 0.001181 0.000000 0.114035 -0.001365 0.000000 0.116154 0.001290 0.000000 0.111618 -0.000986 0.000000 0.118010 0.000103 0.000000 0.111447 0.000983 0.000000 0.116166 -0.001408 0.000000 0.114143 0.001360 0.000000 0.113649 -0.001139 0.000000 0.116310 0.000579 0.000000 0.112640 0.000743 0.000000 0.114933 -0.001325 0.000000 0.115226 0.001449 0.000000 0.112261 -0.001184 0.000000 0.117535 0.000929 0.000000 0.110613 0.000472 0.000000 0.116706 -0.001217 0.000000 0.113005 0.001459 0.000000 0.114093 -0.001219 0.000000 0.115428 0.001576 0.000000 0.111420 0.000538 0.000000 0.114590 -0.001374 0.000000 0.114645 -0.000682 0.000000 0.117019 0.000124 0.000000 0.117186 0.014546 0.000000 0.093366 0.024372 0.000000 0.075394 0.021425 0.000000 0.056935 0.019798 0.000000 0.041630 0.020336 0.000000 0.020797 0.024963 0.000000 
0.001531 0.060891 0.000000 -0.024744 0.084487 0.000000 -0.066471 0.119808 0.000000 -0.123255 0.157902 0.000000 -0.204521 0.183896 0.000000 -0.294627 0.140668 0.000000 -0.303192 0.015652 0.000000 -0.238455 0.013255 0.000000 -0.282851 0.033329 0.000000 -0.203459 0.046840 0.000000 -0.228812 0.137426 0.000000 -0.163177 0.067663 0.000000 -0.019694 0.247922 0.000000 -0.045811 0.282840 0.000000 -0.018899 -0.083015 0.000000 0.137408 0.042467 0.000000 0.081366 0.067339 0.000000 0.097126 -0.081830 0.000000 0.181077 0.061735 0.000000 -0.075921 -0.202427 0.000000 0.047943 -0.306202 0.000000 -0.047104 0.048407 0.000000 -0.288803 -0.276000 0.000000 -0.094110 -0.114111 0.000000 -0.358578 0.013796 0.000000 -0.164080 -0.197767 0.000000 -0.182066 0.130167 0.000000 -0.332639 -0.129246 0.000000 -0.070636 0.004572 0.000000 -0.346962 0.022294 0.000000 -0.108770 -0.124413 0.000000 -0.217527 0.117479 0.000000 -0.262439 -0.138888 0.000000 -0.065103 0.029007 0.000000 -0.300132 0.005661 0.000000 -0.078310 -0.085265 0.000000 -0.217698 0.098323 0.000000 -0.204232 -0.145643 0.000000 -0.053832 0.046512 0.000000 -0.261709 -0.011123 0.000000 -0.049550 -0.057703 0.000000 -0.208853 0.076810 0.000000 -0.147586 -0.138274 0.000000 -0.051771 0.057397 0.000000 -0.220482 -0.024981 0.000000 -0.031170 -0.036434 0.000000 -0.189664 0.056129 0.000000 -0.101671 -0.121378 0.000000 -0.051964 0.063359 0.000000 -0.183059 -0.036833 0.000000 -0.016349 -0.019264 0.000000 -0.168944 0.037351 0.000000 -0.062758 -0.098156 0.000000 -0.058894 0.064714 0.000000 -0.146385 -0.048325 0.000000 -0.008004 -0.005562 0.000000 -0.145903 0.020997 0.000000 -0.034746 -0.071123 0.000000 -0.069950 0.060422 0.000000 -0.113623 -0.062314 0.000000 -0.002295 0.008154 0.000000 -0.132158 0.006552 0.000000 -0.015833 -0.068791 0.000000 -0.063375 0.049156 0.000000 -0.083193 -0.039720 0.000000 -0.017478 0.024685 0.000000 -0.111494 -0.011650 0.000000 0.001237 -0.035485 0.000000 -0.073313 0.045234 0.000000 -0.053924 -0.063487 0.000000 0.002958 0.023554 0.000000 -0.085488 -0.007399 0.000000 0.009983 -0.021745 0.000000 -0.066072 0.031512 0.000000 -0.028300 -0.059489 0.000000 0.002769 0.027219 0.000000 -0.065842 -0.013661 0.000000 0.016769 -0.013357 0.000000 -0.055861 0.021867 0.000000 -0.009207 -0.049971 0.000000 0.000511 0.029168 0.000000 -0.048561 -0.019403 0.000000 0.022090 -0.006355 0.000000 -0.045788 0.013540 0.000000 0.006623 -0.037697 0.000000 -0.005072 0.028896 0.000000 -0.031070 -0.025821 0.000000 0.025000 -0.000594 0.000000 -0.034788 0.006839 0.000000 0.017009 -0.027005 0.000000 -0.008575 0.025595 0.000000 -0.016297 -0.031816 0.000000 0.026869 0.004580 0.000000 -0.029476 0.000884 0.000000 0.023648 -0.029812 0.000000 -0.003653 0.018686 0.000000 -0.005445 -0.017658 0.000000 0.016476 0.012991 0.000000 -0.018796 -0.005057 0.000000 0.029511 -0.013804 0.000000 -0.004931 0.018566 0.000000 0.009814 -0.025884 0.000000 0.027667 0.010812 0.000000 -0.005743 -0.003858 0.000000 0.033993 -0.008399 0.000000 -0.000027 0.012207 0.000000 0.021287 -0.023931 0.000000 0.027031 0.011968 0.000000 0.003553 -0.006769 0.000000 0.036259 -0.005137 0.000000 0.005348 0.008325 0.000000 0.028416 -0.019340 0.000000 0.025600 0.012853 0.000000 0.010854 -0.009719 0.000000 0.038526 -0.002215 0.000000 0.009530 0.005198 0.000000 0.034522 -0.014152 0.000000 0.022673 0.012694 0.000000 0.018804 -0.012952 0.000000 0.039251 0.000145 0.000000 0.014340 0.002715 0.000000 0.037699 -0.011186 0.000000 0.022652 0.010925 0.000000 0.024201 -0.015159 0.000000 0.039188 0.001690 0.000000 0.015494 0.000053 0.000000 0.039129 -0.014366 0.000000 0.023769 0.006575 0.000000 0.026079 -0.007948 0.000000 0.032286 0.006947 0.000000 0.020643 0.000075 0.000000 0.040350 -0.005621 0.000000 0.025521 0.008672 0.000000 0.034541 -0.009589 0.000000 0.038635 0.004804 0.000000 0.027362 -0.000942 0.000000 0.043218 -0.003727 0.000000 0.028323 0.005489 0.000000 0.039762 -0.009525 0.000000 0.037924 0.005157 0.000000 0.031772 -0.002741 0.000000 0.043657 -0.002598 0.000000 0.031056 0.003892 0.000000 0.041981 -0.007829 0.000000 0.037343 0.005908 0.000000 0.034655 -0.004624 0.000000 0.044930 -0.001415 0.000000 0.032455 0.002794 0.000000 0.044602 -0.006387 0.000000 0.036391 0.006057 0.000000 0.038408 -0.005965 0.000000 0.044713 -0.000360 0.000000 0.034758 0.001801 0.000000 0.045218 -0.005636 0.000000 0.036780 0.005324 0.000000 0.039695 -0.007559 0.000000 0.044061 0.000034 0.000000 0.033795 0.000469 0.000000 0.044485 -0.008357 0.000000 0.034970 0.002195 0.000000 0.037584 -0.004278 0.000000 0.038895 0.004515 0.000000 0.035735 0.003207 0.000000 0.043325 -0.002862 0.000000 0.037624 0.005396 0.000000 0.042394 -0.003154 0.000000 0.042509 0.002098 0.000000 0.039525 0.000928 0.000000 0.045259 -0.002429 0.000000 0.039261 0.003277 0.000000 0.044785 -0.004180 0.000000 0.041914 0.002124 0.000000 0.041907 -0.000527 0.000000 0.044977 -0.002373 0.000000 0.040999 0.002526 0.000000 0.045202 -0.004067 0.000000 0.042485 0.002672 0.000000 0.043077 -0.001557 0.000000 0.045885 -0.001910 0.000000 0.041605 0.002176 0.000000 0.046632 -0.003701 0.000000 0.042247 0.003085 0.000000 0.045045 -0.002309 0.000000 0.045465 -0.001313 0.000000 0.042942 0.001802 0.000000 0.046305 -0.003669 0.000000 0.042690 0.002830 0.000000 0.044559 -0.003859 0.000000 0.044764 -0.001305 0.000000 0.041124 0.000986 0.000000 0.044746 -0.006223 0.000000 0.039673 0.000145 0.000000 0.040952 -0.002501 0.000000 0.040899 0.003016 0.000000 0.041799 0.004848 0.000000 0.043013 -0.002281 0.000000 0.043086 0.003946 0.000000 0.044319 -0.000555 0.000000 0.044043 0.000452 0.000000 0.044656 0.002192 0.000000 0.045058 -0.002412 0.000000 0.044323 0.002488 0.000000 0.045741 -0.002199 0.000000 0.044052 0.000650 0.000000 0.045887 0.001199 0.000000 0.044530 -0.002684 0.000000 0.045335 0.002387 0.000000 0.045224 -0.002552 0.000000 0.044809 0.001345 0.000000 0.045643 0.000580 0.000000 0.045013 -0.002439 0.000000 0.045049 0.002501 0.000000 0.045693 -0.002547 0.000000 0.044361 0.001996 0.000000 0.046197 0.000060 0.000000 0.044258 -0.001965 0.000000 0.045635 0.002617 0.000000 0.044821 -0.002489 0.000000 0.044906 0.002401 0.000000 0.045361 -0.000563 0.000000 0.044523 -0.001428 0.000000 0.045036 0.002530 0.000000 0.044960 -0.002504 0.000000 0.044399 0.002485 0.000000 0.045584 -0.001261 0.000000 0.043805 -0.000762 0.000000 0.045690 0.002234 0.000000 0.044088 -0.002603 0.000000 0.045188 0.002413 0.000000 0.044809 -0.001857 0.000000 0.044476 0.000173 0.000000 0.045367 0.001847 0.000000 0.044473 -0.002689 0.000000 0.044926 0.002528 0.000000 0.045193 -0.002154 0.000000 0.044128 0.001027 0.000000 0.045950 0.001393 0.000000 0.043782 -0.002565 0.000000 0.045568 0.002693 0.000000 0.044414 -0.002289 0.000000 0.044735 0.001666 0.000000 0.045294 0.000840 0.000000 0.044055 -0.002382 0.000000 0.045152 0.002616 0.000000 0.044544 -0.002422 0.000000 0.044473 0.002673 0.000000 0.045637 0.000836 0.000000 0.043747 -0.003224 0.000000 0.045405 -0.002428 0.000000 0.044094 -0.002539 0.000000 0.047709 0.023659 0.000000 0.052392 0.041796 0.000000 0.049895 0.036433 0.000000 0.045326 0.033764 0.000000 0.035003 0.036138 0.000000 0.022450 0.044789 0.000000 
0.036803 0.080013 0.000000 0.023257 0.113181 0.000000 0.008682 0.159762 0.000000 -0.011622 0.216839 0.000000 -0.032848 0.258827 0.000000 -0.066000 0.171867 0.000000 -0.037180 -0.042280 0.000000 -0.010094 -0.012286 0.000000 -0.022800 -0.022369 0.000000 0.016805 -0.035655 0.000000 0.045749 0.014478 0.000000 0.108280 -0.173232 0.000000 0.172608 -0.039579 0.000000 0.185699 0.088666 0.000000 0.222163 -0.208853 0.000000 0.106328 -0.067169 0.000000 0.263849 0.096328 0.000000 0.172556 -0.126462 0.000000 0.186769 0.217690 0.000000 0.235466 0.022009 0.000000 -0.015568 -0.149299 0.000000 0.285107 0.378456 0.000000 0.072462 -0.101553 0.000000 0.106296 0.020194 0.000000 -0.042081 0.082834 0.000000 0.011475 -0.269103 0.000000 0.008352 0.222331 0.000000 -0.054995 -0.168871 0.000000 0.022521 0.014035 0.000000 -0.066833 0.050756 0.000000 0.004037 -0.192151 0.000000 -0.031958 0.204636 0.000000 -0.054151 -0.218002 0.000000 0.008009 0.051080 0.000000 -0.063570 0.015115 0.000000 0.002492 -0.124827 0.000000 -0.044321 0.168184 0.000000 -0.045995 -0.231775 0.000000 0.003232 0.078010 0.000000 -0.061392 -0.010209 0.000000 0.003724 -0.081788 0.000000 -0.051869 0.131769 0.000000 -0.033213 -0.221783 0.000000 -0.004956 0.098100 0.000000 -0.055552 -0.033445 0.000000 0.000399 -0.048943 0.000000 -0.052038 0.095429 0.000000 -0.025049 -0.194439 0.000000 -0.010293 0.108928 0.000000 -0.052342 -0.053975 0.000000 0.000124 -0.023592 0.000000 -0.052900 0.063224 0.000000 -0.015517 -0.156084 0.000000 -0.019889 0.111686 0.000000 -0.045033 -0.074439 0.000000 -0.004134 -0.003065 0.000000 -0.049166 0.036051 0.000000 -0.012167 -0.109860 0.000000 -0.027948 0.104940 0.000000 -0.041076 -0.097496 0.000000 -0.007256 0.021489 0.000000 -0.051301 0.015381 0.000000 -0.011189 -0.102148 0.000000 -0.036915 0.088288 0.000000 -0.037742 -0.063289 0.000000 -0.021520 0.040614 0.000000 -0.048603 -0.023750 0.000000 -0.011279 -0.054543 0.000000 -0.038946 0.074868 0.000000 -0.028105 -0.105099 0.000000 -0.013453 0.042273 0.000000 -0.041018 -0.011327 0.000000 -0.008647 -0.029931 0.000000 -0.039387 0.052123 0.000000 -0.020109 -0.096191 0.000000 -0.018000 0.049438 0.000000 -0.035500 -0.021310 0.000000 -0.011170 -0.016510 0.000000 -0.037014 0.035616 0.000000 -0.017869 -0.079460 0.000000 -0.020778 0.052077 0.000000 -0.033517 -0.031345 0.000000 -0.011462 -0.005799 0.000000 -0.037321 0.021405 0.000000 -0.013992 -0.058336 0.000000 -0.027009 0.050323 0.000000 -0.027903 -0.042470 0.000000 -0.015108 0.003468 0.000000 -0.033760 0.010721 0.000000 -0.014840 -0.039209 0.000000 -0.029348 0.044379 0.000000 -0.026337 -0.050599 0.000000 -0.017477 0.014633 0.000000 -0.036167 0.002678 0.000000 -0.015289 -0.040506 0.000000 -0.035505 0.036595 0.000000 -0.028433 -0.027942 0.000000 -0.028633 0.020025 0.000000 -0.033087 -0.014882 0.000000 -0.017641 -0.020001 0.000000 -0.032985 0.028001 0.000000 -0.020563 -0.044033 0.000000 -0.021441 0.020449 0.000000 -0.028804 -0.008444 0.000000 -0.015124 -0.009794 0.000000 -0.031710 0.018104 0.000000 -0.015811 -0.038010 0.000000 -0.024429 0.022855 0.000000 -0.024481 -0.012717 0.000000 -0.017700 -0.004344 0.000000 -0.028844 0.011550 0.000000 -0.016515 -0.029245 0.000000 -0.025174 0.023143 0.000000 -0.023745 -0.017626 0.000000 -0.017679 0.000231 0.000000 -0.029120 0.006286 0.000000 -0.014919 -0.019900 0.000000 -0.028645 0.021315 0.000000 -0.019590 -0.022611 0.000000 -0.020879 0.004437 0.000000 -0.026105 0.002580 0.000000 -0.017228 -0.013853 0.000000 -0.028266 0.018226 0.000000 -0.020212 -0.023820 0.000000 -0.022717 0.008927 0.000000 -0.028589 -0.000478 0.000000 -0.018199 -0.015707 0.000000 -0.033941 0.015183 0.000000 -0.024671 -0.012133 0.000000 -0.031496 0.009304 0.000000 -0.025822 -0.007255 0.000000 -0.021177 -0.007145 0.000000 -0.029308 0.010040 0.000000 -0.018170 -0.017055 0.000000 -0.024858 0.009409 0.000000 -0.022927 -0.004928 0.000000 -0.018522 -0.002765 0.000000 -0.027535 0.006021 0.000000 -0.015106 -0.013969 0.000000 -0.026971 0.010153 0.000000 -0.019335 -0.007004 0.000000 -0.021192 -0.000616 0.000000 -0.024620 0.003512 0.000000 -0.017193 -0.010037 0.000000 -0.026415 0.009921 0.000000 -0.019220 -0.009673 0.000000 -0.020941 0.001429 0.000000 -0.025067 0.001634 0.000000 -0.016272 -0.007084 0.000000 -0.028364 0.008943 0.000000 -0.016217 -0.011035 0.000000 -0.023922 0.003333 0.000000 -0.022406 0.000267 0.000000 -0.018938 -0.004949 0.000000 -0.027002 0.007845 0.000000 -0.017974 -0.011048 0.000000 -0.025256 0.005416 0.000000 -0.024911 -0.000578 0.000000 -0.020066 -0.005861 0.000000 -0.032754 0.007082 0.000000 -0.023538 -0.005987 0.000000 -0.032564 0.004590 0.000000 -0.022466 -0.002084 0.000000 -0.023407 -0.002882 0.000000 -0.027166 0.003840 0.000000 -0.018046 -0.005938 0.000000 -0.026332 0.003881 0.000000 -0.020201 -0.002083 0.000000 -0.020705 -0.000950 0.000000 -0.025125 0.002075 0.000000 -0.015927 -0.004648 0.000000 -0.027706 0.003714 0.000000 -0.016775 -0.003220 0.000000 -0.023314 -0.000377 0.000000 -0.022116 0.001004 0.000000 -0.018356 -0.003542 0.000000 -0.026112 0.003318 0.000000 -0.017167 -0.004057 0.000000 -0.022912 0.000419 0.000000 -0.022658 0.000326 0.000000 -0.017633 -0.002547 0.000000 -0.027455 0.003057 0.000000 -0.014918 -0.004277 0.000000 -0.025706 0.001326 0.000000 -0.020189 0.000009 0.000000 -0.020475 -0.001740 0.000000 -0.025746 0.002998 0.000000 -0.017431 -0.004183 0.000000 -0.026747 0.002392 0.000000 -0.022748 0.000173 0.000000 -0.021768 -0.002270 0.000000 -0.031565 0.003098 0.000000 -0.023590 -0.002539 0.000000 -0.033113 0.001235 0.000000 -0.020417 0.001018 0.000000 -0.025230 -0.002016 0.000000 -0.025417 0.001031 0.000000 -0.018770 -0.000881 0.000000 -0.026901 -0.000021 0.000000 -0.018406 0.000298 0.000000 -0.022443 -0.000910 0.000000 -0.023409 0.000595 0.000000 -0.017110 -0.000852 0.000000 -0.027730 0.000087 0.000000 -0.015431 0.000185 0.000000 -0.025069 -0.000915 0.000000 -0.020633 0.000524 0.000000 -0.019694 -0.000833 0.000000 -0.025703 0.000228 0.000000 -0.016484 0.000129 0.000000 -0.024523 -0.000734 0.000000 -0.021331 0.000623 0.000000 -0.019090 -0.000663 0.000000 -0.026726 0.000524 0.000000 -0.014782 0.000162 0.000000 -0.027004 -0.000505 0.000000 -0.018807 0.000817 0.000000 -0.021694 -0.000583 0.000000 -0.024240 0.000727 0.000000 -0.016734 0.000104 0.000000 -0.026040 -0.000448 0.000000 -0.019485 0.000900 0.000000 -0.021147 -0.000679 0.000000 -0.024816 0.000698 0.000000 -0.015914 -0.000069 0.000000 -0.028078 -0.000514 0.000000 -0.016832 0.000898 0.000000 -0.023992 -0.000863 0.000000 -0.022065 0.000569 0.000000 -0.018709 -0.000273 0.000000 -0.026453 -0.000455 0.000000 -0.017351 0.000985 0.000000 -0.023568 -0.000967 0.000000 -0.022568 0.000640 0.000000 -0.018117 -0.000341 0.000000 -0.027599 -0.000178 0.000000 -0.015037 0.001089 0.000000 -0.026128 -0.000943 0.000000 -0.019881 0.000817 0.000000 -0.020605 -0.000352 0.000000 -0.025182 0.000048 0.000000 -0.016303 0.001152 0.000000 -0.025168 -0.001075 0.000000 -0.020417 0.000971 0.000000 -0.019974 -0.000540 0.000000 -0.025729 0.000482 0.000000 -0.013666 0.001263 0.000000 -0.026072 -0.001142 0.000000 -0.019438 -0.001029 0.000000 -0.029990 -0.002179 0.000000 -0.021803 0.006247 0.000000 0.016667 0.022185 0.000000 0.039111 0.028491 0.000000 0.048743 0.034690 0.000000 0.050549 0.043212 0.000000 0.044924 0.058435 0.000000 