# vtk DataFile Version 2.0
Comment goes here
ASCII

DATASET STRUCTURED_POINTS
FIELD FieldData 1
TIME 1 1 double
0.09700000
DIMENSIONS    64   64   1

ORIGIN    0.000   0.000   0.000
SPACING   0.03125 0.03125   1.000

POINT_DATA   4096
VECTORS u double

-39.069775 -11.029693 0.000000 38.439278 37.166259 0.000000 -9.987383 -7.649030 0.000000 -18.152393 10.913865 0.000000 21.893102 -17.736334 0.000000 -11.933456 -35.183417 0.000000 1.218407 2.195644 0.000000 39.153009 11.547752 0.000000 -10.399064 -4.731090 0.000000 47.378639 -6.021914 0.000000 -12.327847 0.298955 0.000000 24.342871 -4.235700 0.000000 -8.382866 -1.902111 0.000000 22.130456 -11.018731 0.000000 -13.488180 -1.689471 0.000000 22.663633 2.841962 0.000000 -14.109926 11.538709 0.000000 34.780867 -1.848904 0.000000 -19.478428 8.577336 0.000000 34.532869 3.563981 0.000000 -10.462248 1.033942 0.000000 16.796688 8.227251 0.000000 -1.638731 -8.622814 0.000000 -3.410873 4.540447 0.000000 3.452127 -8.987321 0.000000 -12.679085 12.887314 0.000000 10.731781 -1.228243 0.000000 -4.940353 2.155721 0.000000 -2.168802 5.539456 0.000000 -1.328656 -0.451747 0.000000 -14.061002 -3.972751 0.000000 -2.741309 -5.889114 0.000000 0.750166 -4.056754 0.000000 -6.423896 0.516258 0.000000 -0.448591 -10.683484 0.000000 -7.673109 20.781590 0.000000 -9.918103 -3.455195 0.000000 4.381052 -7.974880 0.000000 6.194549 -1.730527 0.000000 -1.338541 -0.930901 0.000000 -4.457404 0.151804 0.000000 5.510621 -8.812812 0.000000 -3.555110 -2.763097 0.000000 -3.460205 -2.131153 0.000000 -1.497526 4.265234 0.000000 -4.582259 -17.717020 0.000000 -20.336996 10.931078 0.000000 -6.234965 -17.513578 0.000000 -22.253856 1.504531 0.000000 -13.707051 -2.458321 0.000000 -19.585229 -7.280947 0.000000 -19.583865 -4.222426 0.000000 -28.890007 -15.426242 0.000000 -18.433044 -12.810638 0.000000 -23.786687 -9.909426 0.000000 -12.033279 -27.061343 0.000000 -20.471172 -22.831915 0.000000 -38.512179 -30.235625 0.000000 16.274551 -24.204462 0.000000 -23.428150 89.266277 0.000000 6.347811 33.469134 0.000000 -14.602563 -17.390879 0.000000 8.302644 43.899825 0.000000 -0.717718 -9.455181 0.000000 
-27.983561 -77.368396 0.000000 18.730370 -35.830287 0.000000 -32.905845 34.541572 0.000000 59.895467 -19.748404 0.000000 -27.969093 15.646489 0.000000 48.192729 24.798653 0.000000 -65.716962 -22.141973 0.000000 11.084191 -12.710838 0.000000 -45.493099 21.383741 0.000000 11.207968 -10.863255 0.000000 -17.522730 32.155161 0.000000 23.250047 -7.227215 0.000000 -21.532852 14.304183 0.000000 25.108561 -1.914541 0.000000 -9.093302 11.459701 0.000000 3.199819 -2.250652 0.000000 -0.473464 -6.213892 0.000000 3.035596 5.304715 0.000000 -14.797850 -11.777092 0.000000 14.418554 -2.527010 0.000000 -20.807235 -3.441686 0.000000 18.112529 -3.839298 0.000000 -10.925524 -2.737874 0.000000 7.431646 4.587011 0.000000 -4.017745 -4.463202 0.000000 -1.917386 4.728278 0.000000 8.148906 -9.616836 0.000000 7.115641 13.679293 0.000000 -3.591678 -5.750607 0.000000 27.649231 9.059020 0.000000 -9.938800 6.875925 0.000000 17.789932 -14.521270 0.000000 -12.015641 2.069661 0.000000 9.696815 -1.449248 0.000000 -11.119846 -3.843434 0.000000 -3.072213 16.492593 0.000000 6.811885 -6.344633 0.000000 -6.582183 -12.148253 0.000000 4.590435 0.371068 0.000000 -6.859476 7.230857 0.000000 4.613719 -4.762879 0.000000 -5.051071 -0.183941 0.000000 -2.482605 5.403621 0.000000 -4.439971 1.562424 0.000000 0.177677 9.307349 0.000000 -7.452959 3.884175 0.000000 -7.356506 11.823825 0.000000 15.869533 4.075497 0.000000 -23.039893 12.496983 0.000000 21.123627 5.453001 0.000000 -6.146224 15.420737 0.000000 4.336693 6.669948 0.000000 17.761953 13.348539 0.000000 -7.091033 4.196438 0.000000 1.353570 8.594572 0.000000 -9.409877 18.561771 0.000000 24.146517 48.123760 0.000000 3.984135 3.821822 0.000000 42.497352 12.476390 0.000000 -26.561749 -70.009025 0.000000 60.900066 -44.643980 0.000000 -36.632040 22.231864 0.000000 12.357271 -76.581142 0.000000 8.607947 75.456847 0.000000 
-10.233533 -21.152115 0.000000 -50.105341 42.088543 0.000000 46.251114 -48.814127 0.000000 -104.075621 5.977113 0.000000 0.188610 -6.033596 0.000000 -87.240945 2.564452 0.000000 111.690866 39.304182 0.000000 -6.713968 -8.676110 0.000000 42.650042 -4.854867 0.000000 -31.384002 -33.992283 0.000000 -22.030633 -11.743124 0.000000 -15.197940 -0.225578 0.000000 -42.463252 -3.760625 0.000000 -22.606142 -23.458280 0.000000 -44.493542 20.219271 0.000000 -10.413218 -5.777876 0.000000 -34.613143 11.702932 0.000000 -0.955774 12.475482 0.000000 -25.848351 -2.805622 0.000000 0.342886 9.573366 0.000000 -26.792159 -2.660034 0.000000 7.060773 -1.654460 0.000000 -24.420716 2.058070 0.000000 8.494652 -2.367332 0.000000 -14.797297 0.361710 0.000000 7.703269 0.720662 0.000000 -10.290866 -10.261270 0.000000 4.324000 13.896305 0.000000 -1.926813 -14.994135 0.000000 5.075593 5.895375 0.000000 9.574469 5.886548 0.000000 19.595073 -3.812272 0.000000 -2.375646 4.036364 0.000000 21.310192 -0.379538 0.000000 -1.230474 2.085544 0.000000 22.976451 2.849859 0.000000 14.571505 0.054775 0.000000 20.192943 -5.753430 0.000000 6.834938 -1.453234 0.000000 19.121443 -0.954185 0.000000 13.156835 -1.656602 0.000000 11.177067 -1.716489 0.000000 12.970561 -3.374197 0.000000 9.711692 -4.791435 0.000000 14.509329 7.278221 0.000000 3.458078 -10.182838 0.000000 20.275015 -12.391414 0.000000 5.604355 -1.830191 0.000000 20.732808 -3.749562 0.000000 1.546361 -19.351990 0.000000 29.654285 9.505987 0.000000 1.761385 -28.130604 0.000000 38.520197 -3.998517 0.000000 6.171018 3.597745 0.000000 37.908369 -7.590582 0.000000 22.756643 -49.854291 0.000000 41.887233 -36.225926 0.000000 -39.013250 -48.586459 0.000000 -47.965546 6.341422 0.000000 -62.307522 70.863563 0.000000 -44.975575 43.539426 0.000000 48.423992 31.151916 0.000000 -14.833040 -1.340163 0.000000 34.177505 30.885651 0.000000 
-153.440261 6.914450 0.000000 3.744296 -92.314934 0.000000 -157.349073 88.511851 0.000000 12.619309 26.314100 0.000000 3.272204 -1.188187 0.000000 30.790518 -86.703603 0.000000 136.628195 -102.668950 0.000000 145.364059 56.329986 0.000000 100.028243 46.053775 0.000000 98.125088 53.817420 0.000000 53.080463 15.969099 0.000000 80.252837 13.205404 0.000000 21.567230 21.712385 0.000000 34.031657 0.115749 0.000000 1.939242 -0.733222 0.000000 20.064228 -12.131051 0.000000 -7.484978 -15.671336 0.000000 13.985921 -3.460077 0.000000 -11.983439 -13.075752 0.000000 -6.013142 -1.583202 0.000000 -19.907143 -10.159573 0.000000 -14.257486 -6.210742 0.000000 -27.362605 -4.171753 0.000000 -10.887363 -5.036408 0.000000 -31.980772 -3.671819 0.000000 -7.845767 0.221847 0.000000 -32.639101 -6.237566 0.000000 -12.163135 5.315240 0.000000 -21.846865 -6.502200 0.000000 -18.882190 -2.442262 0.000000 -6.842862 -7.643555 0.000000 8.940598 -2.571155 0.000000 -13.372410 0.354542 0.000000 12.429224 -2.594420 0.000000 -11.258965 -5.509693 0.000000 22.645289 0.690613 0.000000 -0.871437 -3.561126 0.000000 24.637559 -4.411686 0.000000 -3.106551 1.442569 0.000000 13.111420 0.908960 0.000000 0.490415 3.181497 0.000000 1.332791 0.002334 0.000000 -0.413410 6.868996 0.000000 -9.935104 0.023656 0.000000 -2.541673 15.560963 0.000000 -11.070958 -1.881511 0.000000 -5.827802 9.677548 0.000000 -28.180642 3.617705 0.000000 -2.447157 16.554977 0.000000 -38.452618 -3.468477 0.000000 -14.662005 15.205713 0.000000 -43.809234 -2.195964 0.000000 -36.647755 8.938906 0.000000 -57.454643 4.808267 0.000000 -48.046380 -7.991053 0.000000 -29.323151 14.582906 0.000000 -134.762129 109.893653 0.000000 -164.105359 93.674601 0.000000 -4.611535 35.770661 0.000000 -36.677060 -72.998996 0.000000 24.533220 -155.375494 0.000000 -49.714435 -7.910672 0.000000 -39.039420 -62.334654 0.000000 -13.808338 70.857340 0.000000 
4.586159 -38.704749 0.000000 39.092758 45.997356 0.000000 -68.025877 -57.689140 0.000000 95.878119 -154.644164 0.000000 -3.586848 -24.204805 0.000000 107.407650 -130.791540 0.000000 7.488041 -75.269359 0.000000 21.282371 27.923841 0.000000 36.578410 42.384104 0.000000 26.800078 12.955497 0.000000 -4.680799 6.129127 0.000000 -45.918255 31.287655 0.000000 -62.763829 42.460555 0.000000 -23.540911 -3.830292 0.000000 -35.409505 34.186700 0.000000 -3.888888 3.646343 0.000000 -18.219366 17.781239 0.000000 14.562157 16.973943 0.000000 -12.803028 17.193441 0.000000 3.238260 17.497070 0.000000 -19.613335 5.584310 0.000000 -4.749524 5.801001 0.000000 -21.816854 -1.312053 0.000000 -5.489431 2.250835 0.000000 -22.945870 -2.679885 0.000000 -3.183778 1.378992 0.000000 -24.109369 -5.943902 0.000000 -5.528494 3.104069 0.000000 -18.961753 -8.275080 0.000000 -8.990628 -9.108629 0.000000 -3.165184 -21.936240 0.000000 11.710712 2.717276 0.000000 -9.928918 0.547738 0.000000 10.600401 -2.492983 0.000000 -7.464319 -8.130521 0.000000 29.486037 -7.537669 0.000000 -3.626681 -1.937495 0.000000 31.200053 -3.518316 0.000000 3.691167 10.072905 0.000000 16.245124 -4.551151 0.000000 -0.250088 10.122027 0.000000 10.984835 -0.812664 0.000000 9.475414 7.893699 0.000000 3.301009 -2.663171 0.000000 12.407994 8.414075 0.000000 0.818362 -6.896709 0.000000 13.928621 4.718270 0.000000 -14.097147 -5.210835 0.000000 13.520701 6.522414 0.000000 -30.771697 -7.137142 0.000000 8.015086 14.862603 0.000000 -26.820549 -6.144854 0.000000 -15.699546 9.646893 0.000000 -36.586025 14.996371 0.000000 -42.164707 -35.722074 0.000000 13.700548 36.861458 0.000000 -24.789938 98.556282 0.000000 61.427003 -178.737053 0.000000 236.246239 -121.086878 0.000000 151.570474 41.718808 0.000000 158.246005 56.576801 0.000000 15.614748 94.724556 0.000000 85.987098 -37.246259 0.000000 36.970797 145.286492 0.000000 
296.892215 4.792488 0.000000 84.786404 -19.702898 0.000000 181.810330 31.726490 0.000000 11.356950 -38.124929 0.000000 -2.911596 -12.717718 0.000000 -41.211011 -97.778492 0.000000 -100.176937 -16.543670 0.000000 -47.388002 27.239617 0.000000 -24.971196 40.536068 0.000000 54.743368 95.076629 0.000000 -15.085498 88.687432 0.000000 45.860723 71.288434 0.000000 25.562080 -0.664959 0.000000 15.377141 -27.238575 0.000000 5.803856 -20.385245 0.000000 21.945983 -29.321190 0.000000 -8.141745 -34.122382 0.000000 0.711522 -8.876415 0.000000 -23.770102 -1.751855 0.000000 -16.128442 5.227106 0.000000 -28.229435 -2.171788 0.000000 -16.291500 -4.007223 0.000000 -29.083679 -3.431847 0.000000 -14.860638 -3.907392 0.000000 -32.589151 -5.977472 0.000000 -12.284953 1.385346 0.000000 -31.211817 -3.892851 0.000000 -12.111854 0.167624 0.000000 -27.741044 -3.040066 0.000000 -2.442835 -18.238831 0.000000 -7.319325 -28.344894 0.000000 6.178684 4.192580 0.000000 -15.605233 1.464852 0.000000 4.554860 -5.059018 0.000000 -20.604464 -24.395329 0.000000 32.777732 -3.147026 0.000000 4.346278 -5.275142 0.000000 39.179406 -11.729533 0.000000 8.871943 16.397498 0.000000 10.853817 4.850214 0.000000 8.786089 8.441785 0.000000 -1.803428 -9.723168 0.000000 -3.918021 14.552822 0.000000 -8.668574 -2.908924 0.000000 -5.706439 18.043610 0.000000 -10.703040 -3.402138 0.000000 -3.708700 24.593057 0.000000 -21.971179 4.025625 0.000000 -5.701518 33.229526 0.000000 -32.049185 2.037138 0.000000 -13.098828 11.254566 0.000000 -46.615275 21.518668 0.000000 -0.538956 18.704382 0.000000 -53.483120 31.273428 0.000000 5.817857 -58.277626 0.000000 -28.548571 -2.791863 0.000000 127.838057 62.167198 0.000000 152.549160 -167.361576 0.000000 -2.472207 -54.372810 0.000000 -40.448916 5.001238 0.000000 -6.334040 -19.419768 0.000000 106.846890 64.348235 0.000000 186.489577 -83.690703 0.000000 120.041741 152.258279 0.000000 
139.197234 -3.449413 0.000000 81.281380 161.079241 0.000000 104.026909 15.740315 0.000000 -63.212162 30.077762 0.000000 15.939176 28.363155 0.000000 -91.241301 -33.526199 0.000000 -46.462115 -69.092367 0.000000 -59.048204 -47.281899 0.000000 -20.996297 -59.747267 0.000000 57.127475 3.069799 0.000000 33.250268 15.011772 0.000000 31.214133 -9.359922 0.000000 5.329852 72.944137 0.000000 -2.759965 15.927932 0.000000 5.851426 27.617858 0.000000 -5.042273 17.591945 0.000000 -2.980398 39.015700 0.000000 26.433935 32.602300 0.000000 -1.428279 34.033405 0.000000 7.150221 21.956403 0.000000 -19.123009 5.747369 0.000000 -6.363523 6.655245 0.000000 -23.296206 -2.742916 0.000000 -8.249115 5.756307 0.000000 -20.141543 -5.255569 0.000000 2.223422 0.001658 0.000000 -24.507748 -6.117001 0.000000 1.641887 -0.366704 0.000000 -20.639256 -17.944099 0.000000 9.139020 -29.530347 0.000000 -11.199140 -30.557759 0.000000 -4.636059 11.003184 0.000000 -21.296647 2.171562 0.000000 -13.167215 2.506248 0.000000 -33.042382 -36.353393 0.000000 59.459500 -32.488411 0.000000 -2.183471 -8.339169 0.000000 32.319052 -8.043981 0.000000 -31.355672 38.398493 0.000000 8.368411 -4.465297 0.000000 -18.032699 22.779272 0.000000 9.920650 11.891447 0.000000 18.017834 14.758845 0.000000 7.916573 -0.874754 0.000000 11.878012 10.448541 0.000000 7.961827 -8.894447 0.000000 19.543304 15.986409 0.000000 -3.540804 -3.218018 0.000000 21.533444 16.600420 0.000000 -52.056662 0.260169 0.000000 -11.680691 29.428693 0.000000 -71.789352 -18.704727 0.000000 34.416746 16.514737 0.000000 -52.060283 8.639558 0.000000 47.316391 -60.656622 0.000000 5.965308 -85.158742 0.000000 47.014034 -82.541449 0.000000 38.546858 -48.426789 0.000000 -114.200976 71.911198 0.000000 102.184846 45.580641 0.000000 -22.643009 -90.719005 0.000000 225.186934 -98.099061 0.000000 -10.511691 -50.441110 0.000000 274.589932 34.883855 0.000000 
-261.077962 198.101040 0.000000 -187.378401 15.467426 0.000000 -39.442416 176.220032 0.000000 -62.147660 49.962804 0.000000 5.843844 15.311421 0.000000 -21.717608 -35.377201 0.000000 -7.734236 -48.736767 0.000000 -105.216118 1.773799 0.000000 34.784395 -75.639612 0.000000 -27.375800 40.830063 0.000000 -44.584600 114.600774 0.000000 -66.091254 99.208851 0.000000 -63.251685 33.309139 0.000000 12.325660 -27.760150 0.000000 -35.338338 -18.102938 0.000000 41.583997 -20.489365 0.000000 -12.988762 -65.598590 0.000000 -21.438319 -10.428535 0.000000 -24.713251 17.531859 0.000000 -24.921904 22.921836 0.000000 -30.726729 11.341956 0.000000 -14.202547 0.165974 0.000000 -31.210279 -1.546254 0.000000 -23.244890 -7.062055 0.000000 -40.004833 -16.450009 0.000000 -8.775069 5.751551 0.000000 -31.924276 -3.311316 0.000000 -10.534265 -3.700868 0.000000 -27.099568 -10.537199 0.000000 -5.282724 -27.678947 0.000000 -41.938875 -14.569815 0.000000 -26.606647 14.290087 0.000000 -19.682678 9.996008 0.000000 -38.144341 6.686716 0.000000 -78.473031 -97.022043 0.000000 74.162320 -34.005937 0.000000 22.146115 21.865306 0.000000 56.011676 17.442668 0.000000 73.875958 40.348138 0.000000 27.255842 -8.472758 0.000000 18.399505 6.889547 0.000000 -11.693012 -45.773701 0.000000 -23.671702 16.556899 0.000000 -4.997272 3.230897 0.000000 -9.324761 17.998357 0.000000 2.830666 -11.067429 0.000000 1.572819 36.095688 0.000000 4.848509 2.035485 0.000000 -15.515438 81.745385 0.000000 -42.704375 35.251273 0.000000 1.898761 30.987256 0.000000 -81.757722 -24.578769 0.000000 40.137715 -1.024688 0.000000 -21.959240 18.373784 0.000000 62.707501 -116.303217 0.000000 35.676064 -2.489506 0.000000 0.556475 29.585648 0.000000 27.438756 -6.146566 0.000000 -38.533858 -118.010798 0.000000 31.739439 -86.556729 0.000000 50.131310 -142.421856 0.000000 107.771879 52.216917 0.000000 -117.196792 -133.093700 0.000000 25.356294 2.549355 0.000000 
-2.852510 209.285283 0.000000 14.146580 -60.556305 0.000000 16.352763 -109.490427 0.000000 13.974959 -15.208499 0.000000 -8.819269 -12.066897 0.000000 19.851477 -19.948119 0.000000 -15.448880 14.406143 0.000000 -65.085326 -89.800530 0.000000 -87.175557 -137.587585 0.000000 -36.161594 82.438793 0.000000 -88.182671 53.727226 0.000000 -11.968503 9.307163 0.000000 53.794627 -5.472776 0.000000 32.235353 -11.985415 0.000000 28.851937 -1.640480 0.000000 19.327624 -4.757631 0.000000 -13.937759 102.038017 0.000000 1.031330 44.326789 0.000000 -10.874913 37.516990 0.000000 -5.220648 27.969882 0.000000 -26.132609 -4.971989 0.000000 -8.485925 7.138795 0.000000 -42.004265 6.299427 0.000000 -15.869045 14.550861 0.000000 -23.201782 -19.725391 0.000000 29.022646 -8.078899 0.000000 -21.528389 -4.357805 0.000000 11.349844 -5.191412 0.000000 -8.345165 -23.195639 0.000000 -29.206372 -14.691040 0.000000 -28.888435 -9.233836 0.000000 -5.260113 -11.253013 0.000000 5.964630 13.709256 0.000000 -30.816794 61.296600 0.000000 -4.482248 -148.660054 0.000000 1.555246 -133.107556 0.000000 59.105135 9.811475 0.000000 -30.609302 -59.773824 0.000000 46.860128 67.154327 0.000000 -7.185213 51.011156 0.000000 53.942708 61.728126 0.000000 -20.195624 53.962653 0.000000 28.935599 8.063105 0.000000 32.656406 -15.221695 0.000000 -0.989758 2.620603 0.000000 27.165988 -19.792027 0.000000 19.307526 13.968566 0.000000 32.741527 13.870239 0.000000 18.588773 64.153303 0.000000 87.189392 -17.154031 0.000000 21.235668 68.482040 0.000000 -38.771528 -56.943681 0.000000 -14.253250 -43.283745 0.000000 -43.319665 -13.930228 0.000000 -34.449724 -118.291926 0.000000 21.647960 -23.007715 0.000000 -43.434334 -74.304140 0.000000 38.951280 -9.336457 0.000000 1.256469 67.610514 0.000000 134.026760 -43.084527 0.000000 25.396808 -166.751445 0.000000 21.711083 69.229041 0.000000 82.974764 31.974475 0.000000 -26.163516 178.765025 0.000000 
163.620065 157.790944 0.000000 134.557095 -3.737847 0.000000 -14.224211 176.391653 0.000000 48.458636 75.134836 0.000000 -2.406109 9.434903 0.000000 -24.547534 -28.747589 0.000000 107.776232 36.200036 0.000000 120.400930 73.500476 0.000000 -53.755957 -104.563344 0.000000 33.465496 41.837177 0.000000 77.735538 90.407684 0.000000 49.199700 -42.768447 0.000000 7.030426 -10.894717 0.000000 -96.164723 -2.817460 0.000000 14.668601 -5.195209 0.000000 -13.898508 22.300331 0.000000 -15.261647 -47.302295 0.000000 -27.739483 -13.491381 0.000000 32.444799 23.783837 0.000000 -13.837787 38.179531 0.000000 -9.750329 14.607232 0.000000 -32.331289 16.037630 0.000000 -43.005740 5.836865 0.000000 -35.313633 -25.864538 0.000000 -57.332497 -61.341699 0.000000 23.231208 4.078158 0.000000 -22.882423 14.361486 0.000000 10.465201 -16.884092 0.000000 -14.784360 30.019016 0.000000 7.788759 -7.135678 0.000000 -19.755529 -38.516074 0.000000 -29.786319 -20.562978 0.000000 -13.092358 35.552689 0.000000 -42.150605 17.133594 0.000000 26.449139 -129.394082 0.000000 -106.692301 -97.593320 0.000000 -15.546551 54.029854 0.000000 -89.545979 29.687676 0.000000 -89.663680 16.924049 0.000000 -47.311283 -15.555338 0.000000 -76.547903 19.899958 0.000000 -5.521859 -20.766592 0.000000 -40.197686 -36.295132 0.000000 14.029057 33.156254 0.000000 -12.734617 23.488775 0.000000 16.924568 -31.364713 0.000000 13.264013 30.520149 0.000000 12.066920 2.754238 0.000000 0.142387 27.297520 0.000000 133.876367 32.604378 0.000000 73.505779 156.948176 0.000000 75.055742 10.910149 0.000000 69.820914 3.523449 0.000000 93.270734 38.570258 0.000000 -119.821467 -181.270841 0.000000 58.339455 6.495104 0.000000 -66.436964 12.282328 0.000000 20.993829 -50.837369 0.000000 -31.675612 -213.086279 0.000000 27.285381 -110.697068 0.000000 -42.857828 -30.106179 0.000000 -158.021331 -5.361039 0.000000 147.882575 -85.219102 0.000000 -8.362772 88.376629 0.000000 
-32.260703 66.365416 0.000000 -201.210862 117.287971 0.000000 -92.523269 -23.391968 0.000000 -74.733446 -27.026601 0.000000 16.266798 60.939273 0.000000 -41.589841 -130.130460 0.000000 65.615593 -130.542321 0.000000 49.415417 71.731659 0.000000 9.877483 -50.652152 0.000000 101.911213 -49.052701 0.000000 52.577482 37.993022 0.000000 78.972555 80.012274 0.000000 -22.944568 139.891648 0.000000 -11.119730 -19.623589 0.000000 4.642632 -83.906696 0.000000 51.964422 25.172617 0.000000 62.522377 115.878992 0.000000 20.835624 -3.379657 0.000000 -74.517012 23.615293 0.000000 -45.683393 70.165010 0.000000 -64.485606 13.521514 0.000000 10.540873 40.394205 0.000000 -13.358807 9.281771 0.000000 15.850970 28.877619 0.000000 -20.063327 -78.270232 0.000000 12.723974 -42.528973 0.000000 -18.769972 8.408202 0.000000 4.855726 -13.289476 0.000000 29.178110 -20.519197 0.000000 -12.414625 -9.719871 0.000000 -37.618430 28.341242 0.000000 -53.466983 -17.916184 0.000000 -18.757156 26.073542 0.000000 -5.533145 21.755102 0.000000 42.063961 -84.118358 0.000000 -70.689450 -91.111866 0.000000 -4.460191 -7.334847 0.000000 -46.337527 14.343305 0.000000 40.387902 24.919632 0.000000 59.215063 37.895379 0.000000 23.855410 19.938702 0.000000 55.278217 17.612436 0.000000 1.415439 -11.487811 0.000000 65.570870 -42.684764 0.000000 19.963375 -0.274908 0.000000 22.122632 -45.790657 0.000000 47.260723 18.826214 0.000000 74.181873 26.991865 0.000000 -7.760274 -57.656143 0.000000 157.284926 -90.517423 0.000000 -1.079221 127.302665 0.000000 112.359909 -53.258815 0.000000 65.437181 -61.498737 0.000000 156.867169 175.712152 0.000000 -2.330837 -83.360647 0.000000 103.746892 -76.392218 0.000000 143.864584 -36.958515 0.000000 -14.969109 -44.097809 0.000000 9.309210 61.318962 0.000000 -55.541834 -31.902311 0.000000 -261.332052 18.555267 0.000000 -36.163472 -121.511362 0.000000 -240.756373 -117.684085 0.000000 -244.217881 163.027535 0.000000 
77.954584 114.783925 0.000000 -49.942999 56.524719 0.000000 1.258273 49.914238 0.000000 -90.138929 -33.655231 0.000000 1.387656 -23.708702 0.000000 31.787876 -78.096384 0.000000 -61.575405 -54.805222 0.000000 -28.056032 129.238586 0.000000 55.406184 -157.059140 0.000000 -35.873330 -0.862822 0.000000 -4.667901 113.346342 0.000000 -25.635872 32.753604 0.000000 -46.172573 79.197568 0.000000 13.561718 -30.404660 0.000000 -36.626980 -68.279360 0.000000 -18.119283 -35.579414 0.000000 50.004315 -16.173498 0.000000 73.899532 123.548009 0.000000 -11.198571 90.302854 0.000000 73.076108 28.148125 0.000000 -32.293119 -41.617034 0.000000 26.100807 -35.089169 0.000000 -18.339995 0.526768 0.000000 23.595438 -19.160017 0.000000 -29.144516 -58.214703 0.000000 -72.366094 2.784802 0.000000 -18.541076 22.229734 0.000000 -29.984815 -64.832174 0.000000 10.067782 47.289368 0.000000 -61.040761 59.660863 0.000000 10.673194 2.536284 0.000000 -59.857842 -39.424252 0.000000 -14.041088 -12.381149 0.000000 9.569565 -43.687523 0.000000 62.727644 -64.237778 0.000000 -6.685232 -51.069168 0.000000 28.211031 29.677931 0.000000 1.188800 -15.160416 0.000000 37.675838 -88.628541 0.000000 -10.219410 0.977153 0.000000 62.052694 23.836804 0.000000 -15.919687 1.673380 0.000000 -16.637006 -46.587785 0.000000 -13.555881 14.608317 0.000000 -5.592462 66.937013 0.000000 -16.623267 -58.662060 0.000000 5.023721 -21.539092 0.000000 14.181045 57.775235 0.000000 98.515932 -55.805534 0.000000 -190.945185 25.923325 0.000000 81.346259 201.873194 0.000000 20.229118 -55.606253 0.000000 13.842693 -40.983811 0.000000 96.209793 106.338275 0.000000 13.206563 -128.150565 0.000000 108.376317 -139.700317 0.000000 7.956887 130.998329 0.000000 0.365485 83.718006 0.000000 73.979999 -172.513553 0.000000 84.218145 159.944193 0.000000 4.944875 -49.484541 0.000000 80.049942 -25.936717 0.000000 -54.365249 122.835307 0.000000 29.834595 -120.119042 0.000000 
33.959461 146.143010 0.000000 83.805214 193.984282 0.000000 221.748402 16.803962 0.000000 243.267810 -27.155983 0.000000 -1.383383 -60.987533 0.000000 197.610660 -67.167399 0.000000 -44.851926 -70.698412 0.000000 27.229484 -45.249930 0.000000 23.838614 -42.834854 0.000000 -65.675818 11.021384 0.000000 27.139825 27.755564 0.000000 31.753674 121.516946 0.000000 2.415170 100.694058 0.000000 74.879361 -29.169182 0.000000 -10.973964 -52.225695 0.000000 11.335968 -61.458679 0.000000 -12.517073 23.860177 0.000000 -64.997774 57.823228 0.000000 -18.003483 24.438716 0.000000 -57.944047 91.259558 0.000000 -9.277682 60.496816 0.000000 -41.321060 26.441081 0.000000 48.424915 11.787140 0.000000 63.710249 39.682139 0.000000 140.830403 17.691299 0.000000 57.336456 -53.132413 0.000000 68.354306 -33.973077 0.000000 -6.793925 -41.898334 0.000000 -7.188623 10.536749 0.000000 33.315967 -10.325282 0.000000 91.235199 27.158323 0.000000 91.915107 6.798097 0.000000 81.331120 -43.353865 0.000000 71.303510 -55.013629 0.000000 117.470569 -67.863562 0.000000 6.968491 -56.595253 0.000000 69.531309 -15.208879 0.000000 100.344806 4.878498 0.000000 8.942887 36.327842 0.000000 21.725414 13.518523 0.000000 10.621519 25.638979 0.000000 48.291615 96.302136 0.000000 37.439018 -13.851617 0.000000 -17.296110 -53.729307 0.000000 -15.676977 2.792478 0.000000 -19.238000 -56.406841 0.000000 -76.996842 -11.978099 0.000000 64.090694 -66.500346 0.000000 22.693193 147.470087 0.000000 98.674917 -73.347750 0.000000 20.408215 -83.871638 0.000000 237.253955 14.244750 0.000000 -37.894946 -137.479413 0.000000 265.565105 176.348282 0.000000 89.772561 -95.527171 0.000000 73.526003 -71.142541 0.000000 83.723691 71.052317 0.000000 214.142494 -110.120921 0.000000 47.731065 -22.533698 0.000000 -45.418698 37.132812 0.000000 251.942957 22.723470 0.000000 37.432328 -62.201237 0.000000 99.842574 -67.468738 0.000000 19.097128 30.707702 0.000000 
-43.605676 50.075840 0.000000 136.767642 -131.264222 0.000000 -68.491947 -109.548359 0.000000 168.796588 189.476554 0.000000 10.594335 21.948448 0.000000 74.535373 -34.627841 0.000000 -118.953097 115.575955 0.000000 22.820617 60.548046 0.000000 -128.329062 -64.153838 0.000000 -5.470031 -4.164033 0.000000 -94.676054 15.916850 0.000000 -7.068695 57.478258 0.000000 80.736036 36.071881 0.000000 43.386488 -17.015525 0.000000 19.859109 -4.735967 0.000000 -14.951582 -34.036305 0.000000 -55.165326 60.160244 0.000000 20.659133 129.034419 0.000000 93.628233 83.249128 0.000000 -55.740819 19.422324 0.000000 66.222936 -58.240021 0.000000 11.256237 -92.791766 0.000000 31.310571 -104.504541 0.000000 113.646363 -111.565506 0.000000 149.295906 -51.840910 0.000000 62.258355 75.260900 0.000000 9.074123 86.360115 0.000000 -43.354246 10.710755 0.000000 7.842560 7.179475 0.000000 -23.399033 -38.762958 0.000000 95.089459 -56.062856 0.000000 122.487683 -29.520174 0.000000 39.180329 8.230448 0.000000 -5.888703 -79.826971 0.000000 -16.302359 0.097241 0.000000 -12.453208 -3.129908 0.000000 43.486248 -63.698383 0.000000 35.766811 45.428005 0.000000 -27.239874 -10.009149 0.000000 90.361118 -0.701478 0.000000 -8.324487 -2.729397 0.000000 45.370677 -25.144120 0.000000 51.870747 18.999940 0.000000 37.357657 67.724312 0.000000 36.579856 68.878903 0.000000 -18.634884 2.657806 0.000000 -7.044900 -104.867786 0.000000 5.475932 -41.914800 0.000000 -23.953140 -90.389757 0.000000 97.929687 28.208302 0.000000 5.594515 63.294155 0.000000 96.239867 2.696909 0.000000 94.942012 -69.294961 0.000000 21.132638 -21.329232 0.000000 318.023198 63.888537 0.000000 -119.286839 -133.651447 0.000000 113.517721 -9.618161 0.000000 -128.648405 119.710632 0.000000 -238.935501 87.047639 0.000000 -18.325120 -44.267699 0.000000 -15.620021 -132.335568 0.000000 115.293264 126.163666 0.000000 -56.787590 141.170507 0.000000 -36.826388 -54.235929 0.000000 
83.659141 -27.451019 0.000000 155.147913 218.870553 0.000000 -161.473664 -15.224984 0.000000 -114.663302 -106.242265 0.000000 -32.197791 33.273682 0.000000 -107.599355 62.380032 0.000000 -106.824285 -18.983656 0.000000 -24.616581 -35.873964 0.000000 -50.519237 -14.544206 0.000000 -60.860906 -22.631624 0.000000 -71.074916 29.354228 0.000000 -39.434263 -53.895143 0.000000 23.744086 50.238875 0.000000 14.772658 31.707744 0.000000 25.678451 6.112375 0.000000 68.229439 13.565756 0.000000 6.289593 -11.750538 0.000000 128.478764 -90.970331 0.000000 128.222136 100.838668 0.000000 66.024199 118.664856 0.000000 143.010802 -6.500240 0.000000 57.910795 61.353446 0.000000 76.955371 -90.602986 0.000000 33.687944 -78.303195 0.000000 39.937956 69.079307 0.000000 -102.955513 87.089370 0.000000 46.812440 71.639524 0.000000 37.619992 -40.666771 0.000000 92.826933 -9.418464 0.000000 49.418479 -97.572181 0.000000 123.611794 -118.728393 0.000000 108.817846 62.707228 0.000000 -65.256071 85.022521 0.000000 51.477130 0.469059 0.000000 -63.847606 -61.299056 0.000000 -3.484536 -116.383860 0.000000 -42.078386 -63.428898 0.000000 -74.107967 75.604620 0.000000 -6.980618 -18.266465 0.000000 7.472784 -5.396864 0.000000 29.251259 70.629420 0.000000 29.419739 36.106902 0.000000 -40.117318 -5.838597 0.000000 28.494753 -38.438417 0.000000 -33.712677 58.785019 0.000000 75.695517 -12.782085 0.000000 -5.020802 -36.088914 0.000000 -21.297883 -49.592105 0.000000 51.043372 55.016333 0.000000 -68.612978 -102.895405 0.000000 139.791657 -82.181818 0.000000 -54.541183 -75.102747 0.000000 166.556848 -62.372183 0.000000 36.568228 -46.732904 0.000000 134.984025 44.892306 0.000000 146.466585 133.362936 0.000000 108.702907 80.413884 0.000000 -28.776450 242.332301 0.000000 -34.338266 -132.856983 0.000000 127.456154 -186.182668 0.000000 129.590308 -110.894913 0.000000 183.229794 -21.033668 0.000000 280.198767 84.650913 0.000000 160.926129 17.525788 0.000000 