# vtk DataFile Version 2.0
Comment goes here
ASCII

DATASET STRUCTURED_POINTS
FIELD FieldData 1
TIME 1 1 double
0.09200000
DIMENSIONS    64   64   1

ORIGIN    0.000   0.000   0.000
SPACING   0.03125 0.03125   1.000

POINT_DATA   4096
VECTORS u double

-4.217876 -19.152909 0.000000 29.198032 27.477080 0.000000 -32.818929 -1.683155 0.000000 17.914442 -4.941335 0.000000 12.250589 4.557811 0.000000 -10.116462 1.134139 0.000000 2.006826 3.276891 0.000000 13.706615 -3.127761 0.000000 -7.584367 -5.261282 0.000000 7.793875 7.704721 0.000000 9.115206 -3.114759 0.000000 5.900530 -16.566226 0.000000 10.737871 -0.613558 0.000000 -1.028408 -0.522924 0.000000 7.096157 -7.039411 0.000000 -12.467621 -0.598194 0.000000 9.029205 -6.452712 0.000000 -25.726398 9.492150 0.000000 8.959530 -11.456114 0.000000 -20.154616 -4.982218 0.000000 -3.635055 -7.819302 0.000000 -21.808273 3.625284 0.000000 -1.563417 -14.699640 0.000000 -14.472213 3.003578 0.000000 0.276893 -7.472155 0.000000 -14.817708 0.887594 0.000000 -9.949148 -6.623175 0.000000 -13.341528 2.260777 0.000000 -17.941086 -5.664713 0.000000 -15.147127 -0.540252 0.000000 4.601017 1.164527 0.000000 -9.420868 -11.227237 0.000000 4.293419 14.404524 0.000000 -7.173294 -9.072820 0.000000 2.662262 -1.269353 0.000000 -4.302122 6.145157 0.000000 -6.798343 -0.608092 0.000000 4.646474 -2.094439 0.000000 -4.162732 0.366288 0.000000 3.461162 18.555668 0.000000 -4.894900 2.808431 0.000000 9.214652 -6.532760 0.000000 -0.488821 7.527558 0.000000 -0.935450 -8.552961 0.000000 -1.021347 6.442723 0.000000 -1.247244 -1.451854 0.000000 -11.875713 10.000458 0.000000 -3.233465 -4.868205 0.000000 -4.876491 6.016284 0.000000 -0.477830 -14.993861 0.000000 -16.129580 5.710240 0.000000 31.280791 -7.776649 0.000000 -12.031269 -1.849108 0.000000 37.171765 -9.857268 0.000000 8.268209 -14.494334 0.000000 31.423091 -27.896811 0.000000 -4.274402 -11.998332 0.000000 39.227139 17.900026 0.000000 33.787161 54.033036 0.000000 23.039968 48.670995 0.000000 92.775230 -19.818542 0.000000 6.390895 -71.177085 0.000000 -32.990986 37.646473 0.000000 29.804393 4.251652 0.000000 
-33.094680 46.744820 0.000000 -24.690051 29.974293 0.000000 40.792420 -26.691096 0.000000 -12.805645 -6.923105 0.000000 3.379840 3.505605 0.000000 -10.857629 2.168151 0.000000 2.905438 -13.006365 0.000000 -14.202241 8.758720 0.000000 -9.760786 3.962486 0.000000 -20.405205 -2.425083 0.000000 1.218345 6.707557 0.000000 -19.615526 -4.219640 0.000000 2.021651 7.176609 0.000000 -12.388948 11.318907 0.000000 -1.796310 9.532937 0.000000 -5.967040 8.876321 0.000000 -1.783983 4.338628 0.000000 -3.096496 9.256541 0.000000 14.588861 -0.099663 0.000000 -11.157189 3.756566 0.000000 15.826847 0.367229 0.000000 -4.960029 10.425481 0.000000 19.041172 -14.369730 0.000000 -2.946269 11.814807 0.000000 13.916555 -3.897263 0.000000 4.121890 10.727154 0.000000 16.892564 -5.233810 0.000000 7.406826 8.861585 0.000000 25.091451 0.530467 0.000000 7.757885 -3.576791 0.000000 20.456803 8.144362 0.000000 -6.682969 -2.528245 0.000000 0.375080 4.744283 0.000000 0.130886 -8.894928 0.000000 -15.406960 -4.084437 0.000000 -1.394563 7.244333 0.000000 -15.738000 -9.592292 0.000000 -4.251872 -2.194143 0.000000 -26.598110 -1.723099 0.000000 -3.956324 11.066412 0.000000 -9.279912 -5.662794 0.000000 1.899154 0.116517 0.000000 -21.715693 5.586864 0.000000 11.354262 -7.470789 0.000000 -22.930374 8.756117 0.000000 2.297917 2.022069 0.000000 -21.107212 10.441504 0.000000 -0.956034 -11.678058 0.000000 -8.794911 3.824988 0.000000 -4.858043 2.006452 0.000000 -22.706116 -2.165472 0.000000 1.196830 2.703220 0.000000 -17.169546 5.903945 0.000000 0.171447 7.029340 0.000000 -13.468951 9.415266 0.000000 18.902247 29.411176 0.000000 18.830286 12.162364 0.000000 7.663912 -50.274031 0.000000 20.152485 -5.411472 0.000000 -14.915998 -89.751858 0.000000 89.693160 11.377572 0.000000 -14.711399 121.263937 0.000000 -9.056478 -48.889303 0.000000 26.355884 -56.398991 0.000000 
-88.126421 31.893026 0.000000 98.722062 -46.410019 0.000000 -68.814176 -13.567560 0.000000 7.779779 32.471245 0.000000 4.672331 2.609795 0.000000 14.851429 1.608541 0.000000 16.291717 6.621504 0.000000 36.572266 9.538464 0.000000 8.517611 0.941682 0.000000 23.009106 -3.274411 0.000000 -7.507172 -3.904438 0.000000 12.863099 -17.369533 0.000000 -14.291841 -7.840136 0.000000 1.837348 3.295038 0.000000 -13.643644 -13.461319 0.000000 3.936374 -0.610521 0.000000 -11.432944 -9.323256 0.000000 3.235093 -6.880694 0.000000 -5.782478 -3.395421 0.000000 -1.074595 -6.220205 0.000000 -8.035598 -14.016462 0.000000 1.324636 0.410960 0.000000 -9.101396 -16.713400 0.000000 -11.073738 8.128194 0.000000 -14.292584 -14.540314 0.000000 -13.037940 -2.088414 0.000000 -13.238086 -9.908111 0.000000 -17.565290 -5.938110 0.000000 -5.192271 -6.015772 0.000000 -13.651602 4.094396 0.000000 -4.855073 15.605381 0.000000 -0.020225 8.854486 0.000000 0.589813 7.590668 0.000000 10.944759 6.709219 0.000000 -4.135726 0.256096 0.000000 12.719392 6.476198 0.000000 4.247478 2.249218 0.000000 6.838690 8.765671 0.000000 -3.674540 0.070740 0.000000 4.599682 1.237469 0.000000 5.917178 -3.047047 0.000000 -0.030351 5.903021 0.000000 5.393349 -1.927550 0.000000 5.503521 -7.338280 0.000000 4.375327 15.499068 0.000000 5.280675 -3.275016 0.000000 13.132807 13.254409 0.000000 8.592202 -17.180506 0.000000 13.407062 9.918293 0.000000 6.160807 -1.082655 0.000000 19.954971 -0.344633 0.000000 0.411490 -13.313219 0.000000 26.046967 -0.823725 0.000000 -12.911144 -13.557863 0.000000 1.364097 -33.225134 0.000000 -87.032799 -60.196048 0.000000 -67.718488 -0.759997 0.000000 -85.313537 16.577827 0.000000 -150.038508 76.612946 0.000000 -233.962139 -20.869680 0.000000 -115.877216 -20.023141 0.000000 -38.320994 27.572553 0.000000 114.215318 -3.420809 0.000000 -83.383453 28.289853 0.000000 
-106.306517 -135.360694 0.000000 111.215112 10.662048 0.000000 32.886129 64.251187 0.000000 17.519823 -80.409611 0.000000 6.397652 -3.566046 0.000000 16.261297 -9.451235 0.000000 18.413215 -34.727202 0.000000 87.293021 16.532825 0.000000 45.138747 17.525646 0.000000 57.518634 13.599700 0.000000 27.723330 16.853564 0.000000 42.191754 2.565029 0.000000 11.842856 18.202361 0.000000 32.650014 10.670710 0.000000 14.453168 7.433911 0.000000 16.516806 6.665621 0.000000 7.385532 5.039909 0.000000 5.778032 3.606074 0.000000 -8.070251 4.210024 0.000000 3.630850 6.009687 0.000000 -23.127944 -2.032001 0.000000 -5.100183 11.491278 0.000000 -30.868044 -1.971356 0.000000 -14.773596 17.005995 0.000000 -28.881509 -1.933061 0.000000 -23.218241 9.672656 0.000000 -31.399629 -0.706460 0.000000 -26.196865 0.815770 0.000000 -30.919214 -3.383221 0.000000 -18.613461 -3.913990 0.000000 -9.723345 -5.487015 0.000000 20.004458 -7.973131 0.000000 14.033335 -6.220701 0.000000 33.933944 -4.169388 0.000000 21.910664 -5.859071 0.000000 32.076970 -1.138871 0.000000 21.856141 -3.711589 0.000000 27.045476 5.727875 0.000000 18.255186 0.515909 0.000000 19.577483 1.474694 0.000000 13.996413 -1.032761 0.000000 7.047913 0.640347 0.000000 13.452315 0.052992 0.000000 -6.391837 -6.452767 0.000000 2.481187 8.978963 0.000000 -8.872597 -6.735411 0.000000 -3.541415 7.129976 0.000000 -15.476243 -11.952313 0.000000 -19.645793 6.256383 0.000000 -22.072015 -4.541457 0.000000 -20.880601 3.583845 0.000000 -34.554429 -3.388777 0.000000 -30.307100 19.226579 0.000000 -50.239345 31.712210 0.000000 -39.563721 83.536922 0.000000 -60.551795 98.493761 0.000000 -135.210983 10.443102 0.000000 -208.487215 32.045990 0.000000 -263.782669 143.237130 0.000000 -239.409629 -123.913151 0.000000 -36.137487 -184.263573 0.000000 -48.046708 -108.828596 0.000000 105.275196 -3.826844 0.000000 135.457628 145.942748 0.000000 
124.870078 56.135542 0.000000 -21.498062 -185.602665 0.000000 97.270104 80.127728 0.000000 -41.779967 58.959722 0.000000 -0.382842 3.868322 0.000000 -78.570679 -10.407023 0.000000 61.275135 -64.410221 0.000000 138.472554 -17.187068 0.000000 71.973275 30.716069 0.000000 87.074819 14.141007 0.000000 44.529917 11.422442 0.000000 54.284057 -1.489059 0.000000 10.740709 1.701604 0.000000 18.509564 0.684726 0.000000 -6.379097 2.671889 0.000000 7.489387 6.457115 0.000000 -9.675261 1.415519 0.000000 2.704100 8.575089 0.000000 -13.943797 -1.248239 0.000000 1.947348 8.837488 0.000000 -18.963943 -5.285428 0.000000 -5.225549 8.151060 0.000000 -26.676749 -7.039987 0.000000 -16.361065 6.141659 0.000000 -32.684550 -6.095669 0.000000 -27.224896 0.429707 0.000000 -38.947082 -6.929486 0.000000 -31.407944 -6.418526 0.000000 -44.343781 -13.599176 0.000000 -24.602671 -17.101473 0.000000 -22.212341 -23.012538 0.000000 14.865019 -14.902193 0.000000 7.196739 -6.338818 0.000000 28.810980 -1.168110 0.000000 18.056559 2.113070 0.000000 24.418072 6.530721 0.000000 19.921530 7.280712 0.000000 27.663392 12.366626 0.000000 14.581765 7.538734 0.000000 14.118715 5.496242 0.000000 11.355000 9.482523 0.000000 7.987980 6.447119 0.000000 14.465050 11.512199 0.000000 1.430940 3.632848 0.000000 12.990695 17.979828 0.000000 0.593545 2.747585 0.000000 12.036696 19.858055 0.000000 -0.979240 -1.076127 0.000000 6.277606 16.514065 0.000000 -0.895328 0.152153 0.000000 10.943444 12.137781 0.000000 0.129432 -3.886721 0.000000 21.262696 14.861191 0.000000 18.232355 -4.301242 0.000000 26.841478 -22.912684 0.000000 14.885583 35.451214 0.000000 -43.416539 147.175424 0.000000 -179.733781 145.149513 0.000000 -134.191741 107.535360 0.000000 -6.472832 -248.514862 0.000000 74.624236 -211.386062 0.000000 128.498109 -113.840130 0.000000 151.568525 -186.925145 0.000000 153.064717 239.871566 0.000000 
101.648454 39.202085 0.000000 -13.308110 38.262021 0.000000 -168.400542 84.533092 0.000000 -102.770606 17.243335 0.000000 3.550795 33.224667 0.000000 -189.934496 -71.109212 0.000000 120.505165 -251.770435 0.000000 100.393364 5.834685 0.000000 33.730248 68.923381 0.000000 32.503189 41.043059 0.000000 18.816689 49.644325 0.000000 46.777198 36.354237 0.000000 23.876526 53.976854 0.000000 29.063464 27.790516 0.000000 16.337614 18.454088 0.000000 18.619293 9.961785 0.000000 11.123576 9.825196 0.000000 8.513231 7.874611 0.000000 -5.642854 4.966776 0.000000 1.288801 11.029833 0.000000 -21.182492 5.140896 0.000000 -7.521450 19.204084 0.000000 -30.698988 9.164160 0.000000 -15.056505 23.013796 0.000000 -34.909931 8.930769 0.000000 -23.333572 15.935188 0.000000 -41.766820 3.476589 0.000000 -30.269541 6.212469 0.000000 -44.661383 -10.188494 0.000000 -17.869956 -26.045430 0.000000 -6.989988 -44.954704 0.000000 28.139426 -37.382211 0.000000 27.374355 -20.166663 0.000000 41.523760 -15.029208 0.000000 29.834352 -1.466163 0.000000 37.998267 -3.003842 0.000000 28.048783 -6.956909 0.000000 29.358894 11.067641 0.000000 13.768403 14.060586 0.000000 20.800299 4.701459 0.000000 15.432336 5.097974 0.000000 7.746410 -2.469703 0.000000 9.134905 6.610033 0.000000 -1.425480 -4.978412 0.000000 1.358787 9.816358 0.000000 -7.360838 -5.781413 0.000000 -5.102016 8.702761 0.000000 -14.216640 -6.193222 0.000000 -11.032851 6.172471 0.000000 -19.847071 -9.207294 0.000000 -12.389531 2.559085 0.000000 -20.018167 -13.708029 0.000000 -4.731648 1.123656 0.000000 2.435804 26.133428 0.000000 -30.956929 86.883694 0.000000 -39.453224 168.751778 0.000000 -45.639441 205.062466 0.000000 53.859428 122.821191 0.000000 95.997064 -30.023820 0.000000 195.970911 -332.729127 0.000000 6.709945 -319.234513 0.000000 195.076960 -185.772885 0.000000 -105.481661 -28.393452 0.000000 -43.360985 172.641195 0.000000 
-124.548107 26.082668 0.000000 8.497158 84.446331 0.000000 -172.079896 169.590224 0.000000 -30.403329 -112.991614 0.000000 -43.552460 91.032211 0.000000 -64.772074 -127.361393 0.000000 36.090714 -354.738080 0.000000 133.801755 69.587849 0.000000 74.906614 98.606243 0.000000 67.170761 29.054566 0.000000 30.742618 -2.851566 0.000000 13.903060 -6.548896 0.000000 -36.875222 19.415337 0.000000 2.306743 8.223638 0.000000 -10.143349 13.116060 0.000000 6.695666 11.671153 0.000000 -8.132681 11.521581 0.000000 -1.817264 25.341519 0.000000 -11.082509 5.976191 0.000000 0.420786 24.377126 0.000000 -14.331360 3.524823 0.000000 -1.599388 17.667555 0.000000 -23.906714 0.495068 0.000000 -15.539376 10.352602 0.000000 -38.352402 2.181398 0.000000 -27.429835 7.286595 0.000000 -49.943615 0.006482 0.000000 -44.957791 -3.523963 0.000000 -66.255057 -25.998761 0.000000 -16.804526 -54.772868 0.000000 0.873032 -69.021921 0.000000 24.250594 -49.266536 0.000000 24.837101 -19.723152 0.000000 43.295040 -3.628107 0.000000 25.889984 5.638563 0.000000 23.851041 8.316290 0.000000 33.482090 15.920085 0.000000 20.994489 26.647006 0.000000 -3.504496 16.097329 0.000000 7.233742 3.832309 0.000000 4.402705 22.536411 0.000000 9.168518 12.744550 0.000000 11.812857 20.684090 0.000000 4.867414 11.408966 0.000000 11.207339 23.915186 0.000000 -0.319651 9.208388 0.000000 7.228189 26.713857 0.000000 -5.621400 4.854708 0.000000 -0.313920 22.144495 0.000000 -9.391168 1.508833 0.000000 -3.926530 12.308877 0.000000 -16.305418 -11.544604 0.000000 8.251614 -7.592780 0.000000 -29.761317 21.924040 0.000000 16.742209 18.976345 0.000000 30.560743 50.133725 0.000000 74.693820 53.862772 0.000000 151.676065 3.513008 0.000000 179.706601 -34.576123 0.000000 130.228584 -159.227742 0.000000 18.092027 -210.492112 0.000000 -25.152975 -1.648524 0.000000 -143.937632 51.512800 0.000000 -44.740924 32.741451 0.000000 
-134.979794 -14.035996 0.000000 29.266990 85.793810 0.000000 20.805225 123.433578 0.000000 -133.511305 -111.284101 0.000000 4.361142 67.593412 0.000000 61.658459 -150.752385 0.000000 -101.496377 -450.344264 0.000000 -117.558840 -32.981215 0.000000 -41.577150 135.554376 0.000000 -11.309473 85.207055 0.000000 22.238583 102.912026 0.000000 64.007840 103.972076 0.000000 59.743353 65.573171 0.000000 2.461511 1.058644 0.000000 11.497757 14.065165 0.000000 16.763048 7.951117 0.000000 27.369643 18.338125 0.000000 14.915956 10.824439 0.000000 -2.802784 2.728727 0.000000 1.025617 14.278684 0.000000 -22.428695 7.161069 0.000000 -9.176033 28.779438 0.000000 -34.499741 23.104149 0.000000 -14.291668 37.459484 0.000000 -40.138955 20.821228 0.000000 -22.096648 27.526401 0.000000 -51.092941 21.004545 0.000000 -45.931984 22.523911 0.000000 -60.329649 -38.341759 0.000000 15.718749 -93.173519 0.000000 25.141214 -86.009824 0.000000 39.864295 -61.346280 0.000000 45.521008 -39.211109 0.000000 50.997627 -16.082091 0.000000 47.034091 17.977836 0.000000 42.871196 -10.595948 0.000000 43.609072 -4.100357 0.000000 97.493565 48.054226 0.000000 45.331946 27.821333 0.000000 32.940090 -3.205742 0.000000 22.489732 3.163197 0.000000 2.905678 -9.879855 0.000000 2.326872 10.911137 0.000000 -3.289998 -4.372894 0.000000 -2.631920 15.003423 0.000000 -6.663381 -1.802263 0.000000 -4.482164 14.004510 0.000000 -11.283290 1.348887 0.000000 -3.129316 9.942239 0.000000 -19.953214 -5.594684 0.000000 -10.792480 9.473334 0.000000 -14.015666 -25.886173 0.000000 15.556031 14.579556 0.000000 1.010545 17.642832 0.000000 70.014069 26.561634 0.000000 -31.123391 110.800167 0.000000 20.136896 83.947144 0.000000 165.630564 17.808410 0.000000 54.066784 -8.576339 0.000000 -16.183808 -171.114553 0.000000 -63.595694 -163.852954 0.000000 -275.786198 -23.743226 0.000000 -110.750475 -8.805503 0.000000 38.365559 153.251670 0.000000 
-114.002748 35.181237 0.000000 188.046042 -71.338688 0.000000 112.388580 332.368519 0.000000 -18.971792 -96.547532 0.000000 -6.659609 -104.137553 0.000000 157.419410 -21.503874 0.000000 -72.998056 -175.520781 0.000000 -222.307646 9.668621 0.000000 -83.790028 -7.643123 0.000000 -32.623411 -34.761167 0.000000 -4.910585 -78.168880 0.000000 -60.924509 -44.053666 0.000000 -50.362655 80.961666 0.000000 10.748952 56.469234 0.000000 21.847843 -1.185477 0.000000 4.613209 -4.200733 0.000000 -11.079381 13.368673 0.000000 -26.756414 55.513947 0.000000 -11.622258 19.866529 0.000000 -2.099922 44.003036 0.000000 -13.915947 13.726473 0.000000 4.755031 29.738601 0.000000 -15.065063 5.610703 0.000000 -8.999873 15.991817 0.000000 -38.146856 9.986378 0.000000 -15.162793 18.240581 0.000000 -53.396954 23.841818 0.000000 -60.695265 5.712746 0.000000 -56.728736 -87.649493 0.000000 18.242009 -140.243731 0.000000 -33.517585 -93.167467 0.000000 33.774993 -69.646330 0.000000 24.791548 -30.856484 0.000000 50.676574 -5.141189 0.000000 5.333780 13.764994 0.000000 58.099698 11.741308 0.000000 12.880746 -38.702284 0.000000 -19.644835 24.924132 0.000000 -44.793214 80.650804 0.000000 3.749985 26.674523 0.000000 19.294177 52.570824 0.000000 8.138487 32.907409 0.000000 19.220442 26.879766 0.000000 11.416781 16.367758 0.000000 13.897522 27.288568 0.000000 4.958963 11.058632 0.000000 4.614177 31.333766 0.000000 -13.469243 3.501860 0.000000 -6.925594 30.814419 0.000000 -22.119312 9.171998 0.000000 -18.326747 6.371329 0.000000 2.003774 -37.893115 0.000000 14.328552 -22.618991 0.000000 42.499323 -32.533999 0.000000 10.251028 51.110280 0.000000 85.568215 100.010898 0.000000 133.359862 -142.891184 0.000000 143.735745 -30.416880 0.000000 248.096253 147.238249 0.000000 63.179296 -41.565264 0.000000 -65.223371 49.110278 0.000000 -14.845761 45.506256 0.000000 -168.429066 -262.638956 0.000000 54.694305 56.970770 0.000000 
-12.319107 -147.387733 0.000000 32.084129 -140.597519 0.000000 -97.280452 330.451412 0.000000 194.184848 7.764088 0.000000 4.802302 -108.797791 0.000000 134.336802 -84.413938 0.000000 149.895979 -70.617207 0.000000 79.610177 -22.189243 0.000000 130.057458 -54.129860 0.000000 65.601081 6.327612 0.000000 -44.721052 131.213125 0.000000 -17.686050 149.424147 0.000000 -10.287572 -6.100291 0.000000 -45.831064 -71.151855 0.000000 -16.987067 20.200909 0.000000 14.556211 40.878341 0.000000 63.267411 49.707748 0.000000 74.277566 11.367316 0.000000 20.315720 -21.927766 0.000000 -0.285651 16.572373 0.000000 -20.598908 0.306116 0.000000 -1.947939 29.928554 0.000000 -41.472430 36.859054 0.000000 -17.979564 60.541278 0.000000 -30.794081 26.984148 0.000000 11.441616 42.776499 0.000000 -38.558584 66.537017 0.000000 -50.062024 25.855693 0.000000 -49.457478 -117.279034 0.000000 -50.720607 -116.384669 0.000000 -89.381886 -101.542807 0.000000 20.670330 -119.655413 0.000000 18.780720 -56.112690 0.000000 45.685732 3.375676 0.000000 27.868583 10.554713 0.000000 5.409801 -18.142914 0.000000 26.149735 73.644176 0.000000 -23.067623 105.728186 0.000000 -26.186889 4.426512 0.000000 -28.659340 -67.293133 0.000000 -51.128866 -1.225304 0.000000 -20.549304 -9.806120 0.000000 -18.999785 7.632842 0.000000 -8.296742 0.950026 0.000000 -7.661455 21.461241 0.000000 -6.140324 7.481082 0.000000 1.449574 32.432717 0.000000 -0.730680 12.888658 0.000000 10.302821 18.592307 0.000000 -27.960469 5.806468 0.000000 -25.117050 -14.649751 0.000000 25.340677 -58.541471 0.000000 9.352754 -25.915994 0.000000 51.865089 21.720356 0.000000 14.866742 -16.507257 0.000000 1.715134 -12.308667 0.000000 44.641923 25.779614 0.000000 -79.097869 -96.927981 0.000000 -173.232761 71.980110 0.000000 -88.922111 142.205071 0.000000 -175.325395 -85.827897 0.000000 -170.930562 79.462468 0.000000 52.508930 -78.345570 0.000000 -182.564711 98.825353 0.000000 
340.519937 -179.467603 0.000000 -110.528471 13.622657 0.000000 100.127602 170.267800 0.000000 143.546388 -198.630286 0.000000 39.907690 -44.289506 0.000000 -29.349152 -166.597551 0.000000 11.689013 -120.794156 0.000000 15.008662 29.507143 0.000000 2.068609 6.365973 0.000000 -29.543098 140.017343 0.000000 -112.599480 5.118252 0.000000 30.499288 -78.487146 0.000000 133.255667 109.106679 0.000000 8.315848 63.168729 0.000000 128.277550 -61.572752 0.000000 6.353086 -84.455210 0.000000 37.201193 -46.352682 0.000000 2.791016 98.465638 0.000000 -28.845999 94.429746 0.000000 -11.832831 84.917664 0.000000 -22.968701 15.388762 0.000000 3.966839 50.612123 0.000000 2.649892 21.642328 0.000000 25.087315 5.313468 0.000000 -16.919519 -19.434802 0.000000 22.877314 26.005084 0.000000 -51.494060 85.345458 0.000000 -31.147117 16.611639 0.000000 -83.047703 -86.990910 0.000000 -119.787070 -100.319323 0.000000 -55.529305 -164.558404 0.000000 -27.454401 -177.808936 0.000000 -11.776069 -55.871886 0.000000 -20.260515 -14.229053 0.000000 29.007251 54.040925 0.000000 49.135904 13.460157 0.000000 38.166050 -10.224859 0.000000 100.003081 77.260756 0.000000 180.018725 86.242520 0.000000 54.923294 51.616500 0.000000 71.732991 44.460787 0.000000 36.948970 0.778329 0.000000 32.616749 14.627204 0.000000 23.392302 5.029428 0.000000 10.873379 25.132151 0.000000 15.085964 1.947604 0.000000 -2.276679 25.924123 0.000000 -7.717888 -5.351388 0.000000 12.407513 58.044208 0.000000 -9.710127 44.591869 0.000000 8.454078 -46.929816 0.000000 86.025632 -72.362918 0.000000 52.522171 -49.143403 0.000000 45.682591 -38.047987 0.000000 91.800538 101.260236 0.000000 55.779395 70.235717 0.000000 -26.462941 -62.078181 0.000000 5.560164 187.457804 0.000000 33.570498 157.062491 0.000000 72.923736 -39.472631 0.000000 -4.907991 131.118728 0.000000 -35.861410 -182.328069 0.000000 -27.534179 -251.004807 0.000000 -184.072064 121.798808 0.000000 
39.318356 -220.931326 0.000000 37.403112 99.794817 0.000000 197.560293 76.376553 0.000000 -48.435774 67.984000 0.000000 22.521946 64.097749 0.000000 -101.426325 -56.195262 0.000000 -191.687921 -114.975020 0.000000 27.640560 -12.568838 0.000000 -112.383070 -9.578100 0.000000 77.808108 120.995701 0.000000 146.793717 71.170739 0.000000 -2.632404 -96.431000 0.000000 -136.036907 16.083149 0.000000 15.816238 -66.173737 0.000000 -87.766806 22.163671 0.000000 7.811790 131.954698 0.000000 -98.823301 53.269818 0.000000 -15.241909 77.414508 0.000000 -49.715844 -7.303918 0.000000 -30.059350 10.695075 0.000000 -35.985878 -15.493554 0.000000 34.951218 4.309960 0.000000 15.973469 15.738578 0.000000 41.044113 80.110689 0.000000 -49.339180 29.194148 0.000000 -25.536600 77.351040 0.000000 -86.871784 120.561448 0.000000 -17.574763 57.409335 0.000000 -93.412858 -28.639081 0.000000 -104.012238 -143.903067 0.000000 -27.635686 -193.875477 0.000000 -39.075959 -163.408649 0.000000 -54.568874 -63.306576 0.000000 -44.168774 -37.407643 0.000000 32.067754 -58.841706 0.000000 -2.810388 -27.301713 0.000000 -9.411588 22.776999 0.000000 -43.206385 -36.124489 0.000000 8.459150 49.506300 0.000000 1.975782 40.992601 0.000000 22.459139 16.749019 0.000000 -0.175725 29.310122 0.000000 10.960246 21.189510 0.000000 43.318116 22.693396 0.000000 10.130464 29.767579 0.000000 35.379970 20.631139 0.000000 0.851341 55.236569 0.000000 37.595935 -1.795534 0.000000 56.477029 20.584546 0.000000 41.224865 9.759903 0.000000 55.465695 -110.385511 0.000000 47.931277 -102.609564 0.000000 45.438606 14.427047 0.000000 121.296933 -17.558011 0.000000 -16.423793 -26.604062 0.000000 84.633596 105.954812 0.000000 -5.900276 75.998845 0.000000 157.197417 -156.961420 0.000000 223.733002 4.616538 0.000000 92.406401 180.683561 0.000000 79.805789 22.957250 0.000000 221.198212 102.088656 0.000000 -84.000022 69.865084 0.000000 -75.400777 -269.228763 0.000000 
-70.012761 -292.271493 0.000000 -41.784450 -144.619280 0.000000 -25.919216 256.106686 0.000000 -39.613318 -23.591939 0.000000 33.137101 8.701045 0.000000 37.309737 47.612316 0.000000 57.804182 -249.861042 0.000000 41.837446 -49.797708 0.000000 163.353029 -43.801575 0.000000 -69.190189 -119.159445 0.000000 99.937624 85.558764 0.000000 -10.779089 204.343478 0.000000 -71.750744 90.658037 0.000000 71.308844 14.898628 0.000000 -33.516489 -53.568304 0.000000 19.871812 -73.398715 0.000000 87.323291 -23.298982 0.000000 178.721935 49.358180 0.000000 78.989707 109.247187 0.000000 40.521635 71.187698 0.000000 18.751039 -49.621806 0.000000 -18.424451 -1.347225 0.000000 -30.513429 15.549433 0.000000 -66.044069 70.626118 0.000000 -69.058167 47.145910 0.000000 -24.776513 63.537688 0.000000 -41.884342 77.383621 0.000000 53.237863 23.152713 0.000000 100.979051 -0.553435 0.000000 63.149326 -166.096495 0.000000 -52.193901 -229.494684 0.000000 -45.583253 -150.875747 0.000000 -42.478231 -50.779070 0.000000 51.140499 -100.865681 0.000000 16.318330 12.682538 0.000000 -24.561998 54.939498 0.000000 -89.798985 30.171138 0.000000 -22.993211 59.390018 0.000000 -52.959265 41.060353 0.000000 9.940237 37.616511 0.000000 -27.476679 46.612295 0.000000 24.851352 12.277222 0.000000 12.416392 -28.866637 0.000000 -18.740604 5.859210 0.000000 0.560378 33.070296 0.000000 3.688838 11.226726 0.000000 17.858141 23.708158 0.000000 6.111444 -60.977076 0.000000 86.540937 54.415279 0.000000 187.623919 45.603203 0.000000 179.371019 -53.636229 0.000000 171.912007 -62.335830 0.000000 150.757420 -122.509059 0.000000 66.232663 23.814413 0.000000 169.494758 137.923573 0.000000 99.858339 59.712201 0.000000 13.573663 -134.642002 0.000000 53.197696 -42.175475 0.000000 -128.385838 221.853507 0.000000 74.301004 104.454583 0.000000 64.334092 2.326917 0.000000 125.571804 -18.522258 0.000000 84.168542 45.594183 0.000000 36.753403 -1.519571 0.000000 
-42.937961 -142.393473 0.000000 -135.607590 55.701271 0.000000 -5.197848 74.205421 0.000000 88.851956 8.927683 0.000000 20.466811 -12.825305 0.000000 74.374708 -80.862343 0.000000 232.168107 -119.502729 0.000000 177.329640 -118.117685 0.000000 232.994147 101.449535 0.000000 50.242127 184.411105 0.000000 -25.353812 12.759639 0.000000 -48.620054 75.257368 0.000000 -30.270679 -66.004784 0.000000 -38.657213 -104.407991 0.000000 -6.819415 73.600703 0.000000 -21.070046 11.114917 0.000000 -40.885779 -105.580305 0.000000 37.187348 85.748092 0.000000 99.770356 130.896381 0.000000 176.648687 70.933743 0.000000 193.070163 43.452532 0.000000 45.255798 53.574429 0.000000 91.283153 63.358196 0.000000 67.150573 118.655427 0.000000 92.803627 -12.073408 0.000000 101.731208 50.177215 0.000000 111.177410 42.547072 0.000000 201.283955 -85.454058 0.000000 259.395478 -38.550544 0.000000 310.559631 9.269885 0.000000 228.552813 -85.142898 0.000000 78.155632 -173.124319 0.000000 93.453992 -160.030328 0.000000 72.959667 -96.204205 0.000000 -2.379219 16.860791 0.000000 56.845141 78.815602 0.000000 2.241263 21.208211 0.000000 33.362255 -72.964210 0.000000 50.668508 16.572852 0.000000 -1.008684 15.510015 0.000000 38.505970 1.837904 0.000000 44.619528 -10.582949 0.000000 34.614778 64.781467 0.000000 46.361511 34.549410 0.000000 29.682448 7.338137 0.000000 0.836864 3.333376 0.000000 195.631176 52.813964 0.000000 99.650029 -70.478330 0.000000 42.786028 -160.927930 0.000000 208.488489 -83.070180 0.000000 68.078502 -94.673598 0.000000 301.288399 -73.995964 0.000000 83.300358 120.106391 0.000000 -3.251366 -36.295349 0.000000 46.025532 -60.229738 0.000000 153.079814 261.875907 0.000000 68.479151 122.659488 0.000000 45.353760 -15.001919 0.000000 -30.647667 -16.486771 0.000000 338.264760 -12.036369 0.000000 328.694481 -28.313550 0.000000 221.313542 82.254206 0.000000 267.041852 158.683485 0.000000 329.537474 -115.047460 0.000000 
53.951038 172.873572 0.000000 27.792454 -182.359393 0.000000 -132.988841 31.647139 0.000000 74.652712 -49.256599 0.000000 -22.582575 23.178293 0.000000 106.259033 -164.088979 0.000000 42.556950 -352.815974 0.000000 105.493077 -50.623748 0.000000 -23.822083 83.285938 0.000000 228.064942 139.188513 0.000000 79.763542 184.420945 0.000000 239.643499 209.260345 0.000000 -45.775979 80.695196 0.000000 48.357565 -8.552635 0.000000 -20.715570 -71.155472 0.000000 189.104607 -39.332352 0.000000 55.691178 -81.556376 0.000000 78.503568 -91.297954 0.000000 -64.721429 -30.214153 0.000000 -9.096466 -22.112109 0.000000 -33.756844 81.771083 0.000000 60.972907 100.439785 0.000000 83.299384 -6.345342 0.000000 44.906077 69.105644 0.000000 -10.488767 12.565275 0.000000 92.808216 45.163904 0.000000 115.017082 -22.169126 0.000000 89.623711 -125.065355 0.000000 92.238271 -109.829111 0.000000 162.641774 -135.253830 0.000000 281.106447 2.909315 0.000000 178.797811 -15.776926 0.000000 84.095108 -45.583105 0.000000 -4.616812 -5.032470 0.000000 -2.926503 28.797064 0.000000 12.305788 50.319016 0.000000 -10.960599 53.654024 0.000000 -3.941430 10.962774 0.000000 -15.202317 75.431293 0.000000 -14.070993 49.779049 0.000000 50.354257 0.984082 0.000000 -5.659116 16.168414 0.000000 -32.045347 -30.608620 0.000000 95.346815 10.791541 0.000000 28.512543 78.594943 0.000000 42.150360 -154.722002 0.000000 90.904327 -75.105007 0.000000 152.229651 91.868072 0.000000 157.658517 -54.423182 0.000000 47.394470 20.310729 0.000000 199.242198 -146.436138 0.000000 -61.988368 -77.557686 0.000000 -6.499841 182.030706 0.000000 105.296163 61.089239 0.000000 125.581758 -18.407607 0.000000 265.938991 37.258582 0.000000 207.124234 -26.915948 0.000000 231.614191 56.951344 0.000000 152.154586 -71.057493 0.000000 134.468816 -254.887565 0.000000 160.800330 119.278135 0.000000 -9.174519 43.130371 0.000000 267.538512 -62.629749 0.000000 147.925252 308.460243 0.000000 