# vtk DataFile Version 2.0
Comment goes here
ASCII

DATASET STRUCTURED_POINTS
FIELD FieldData 1
TIME 1 1 double
1.05000000
DIMENSIONS    512   128   1

ORIGIN    0.000   0.000   0.000
SPACING   0.0019531 0.0019531   1.000

POINT_DATA   65536
VECTORS u double

0.084864 0.066925 0.000000 0.071934 0.054885 0.000000 0.070766 0.042154 0.000000 0.051996 0.029623 0.000000 0.047682 0.018487 0.000000 0.025563 0.008851 0.000000 0.020965 0.001161 0.000000 -0.002111 -0.004954 0.000000 -0.004926 -0.009384 0.000000 -0.027540 -0.012630 0.000000 -0.027394 -0.014633 0.000000 -0.048753 -0.015887 0.000000 -0.044815 -0.016289 0.000000 -0.064180 -0.016331 0.000000 -0.055447 -0.015865 0.000000 -0.071699 -0.015437 0.000000 -0.056663 -0.014878 0.000000 -0.068097 -0.014842 0.000000 -0.044729 -0.015137 0.000000 -0.049296 -0.016504 0.000000 -0.015639 -0.018642 0.000000 -0.012022 -0.022224 0.000000 0.032209 -0.026634 0.000000 0.042464 -0.032191 0.000000 0.093570 -0.037814 0.000000 0.104140 -0.043379 0.000000 0.153930 -0.047732 0.000000 0.155831 -0.050801 0.000000 0.196318 -0.052134 0.000000 0.184519 -0.051977 0.000000 0.212873 -0.050458 0.000000 0.187486 -0.047930 0.000000 0.204818 -0.044679 0.000000 0.168368 -0.040985 0.000000 0.177228 -0.037085 0.000000 0.132682 -0.033123 0.000000 0.135161 -0.029279 0.000000 0.084806 -0.025558 0.000000 0.081975 -0.022149 0.000000 0.027983 -0.018902 0.000000 0.020134 -0.016089 0.000000 -0.035622 -0.013388 0.000000 -0.048982 -0.011196 0.000000 -0.104767 -0.009014 0.000000 -0.123890 -0.007385 0.000000 -0.178190 -0.005644 0.000000 -0.203085 -0.004474 0.000000 -0.254942 -0.003080 0.000000 -0.284753 -0.002268 0.000000 -0.332971 -0.001138 0.000000 -0.366297 -0.000604 0.000000 -0.409800 0.000321 0.000000 -0.445078 0.000629 0.000000 -0.482342 0.001380 0.000000 -0.517942 0.001500 0.000000 -0.547841 0.002099 0.000000 -0.582889 0.002071 0.000000 -0.605232 0.002525 0.000000 -0.638831 0.002391 0.000000 -0.654104 0.002716 0.000000 -0.685685 0.002518 0.000000 -0.695158 0.002734 0.000000 -0.724334 0.002503 0.000000 -0.729202 0.002633 0.000000 -0.755798 0.002393 0.000000 -0.757222 0.002461 0.000000 -0.781394 0.002223 0.000000 -0.780120 0.002248 0.000000 -0.802048 0.002022 0.000000 -0.798604 0.002018 0.000000 -0.818605 0.001810 0.000000 -0.813386 0.001785 0.000000 -0.831582 0.001597 0.000000 -0.824896 0.001558 0.000000 -0.841357 0.001393 0.000000 -0.833538 0.001344 0.000000 -0.848234 0.001200 0.000000 -0.839513 0.001147 0.000000 -0.852408 0.001022 0.000000 -0.843013 0.000968 0.000000 -0.854123 0.000861 0.000000 -0.844217 0.000809 0.000000 -0.853602 0.000717 0.000000 -0.843357 0.000669 0.000000 -0.851172 0.000593 0.000000 -0.840768 0.000549 0.000000 -0.847211 0.000487 0.000000 -0.836803 0.000448 0.000000 -0.842070 0.000398 0.000000 -0.831762 0.000364 0.000000 -0.836053 0.000325 0.000000 -0.825947 0.000296 0.000000 -0.829427 0.000265 0.000000 -0.819564 0.000241 0.000000 -0.822322 0.000217 0.000000 -0.812771 0.000196 0.000000 -0.814891 0.000178 0.000000 -0.805696 0.000160 0.000000 -0.807199 0.000146 0.000000 -0.798354 0.000131 0.000000 -0.799335 0.000121 0.000000 -0.790824 0.000108 0.000000 -0.791361 0.000100 0.000000 -0.783090 0.000089 0.000000 -0.783276 0.000084 0.000000 -0.775217 0.000074 0.000000 -0.775129 0.000070 0.000000 -0.767227 0.000062 0.000000 -0.766861 0.000059 0.000000 -0.759150 0.000051 0.000000 -0.758522 0.000050 0.000000 -0.751033 0.000043 0.000000 -0.750094 0.000042 0.000000 -0.742823 0.000036 0.000000 -0.741628 0.000036 0.000000 -0.734567 0.000031 0.000000 -0.733156 0.000031 0.000000 -0.726209 0.000026 0.000000 -0.724655 0.000026 0.000000 -0.717803 0.000022 0.000000 -0.716169 0.000022 0.000000 -0.709357 0.000018 0.000000 -0.707616 0.000019 0.000000 -0.700891 0.000015 0.000000 -0.699044 0.000016 0.000000 -0.692450 0.000013 0.000000 -0.690423 0.000013 0.000000 -0.683969 0.000010 0.000000 -0.681800 0.000011 0.000000 -0.675493 0.000008 0.000000 -0.673207 0.000009 0.000000 -0.666954 0.000006 0.000000 -0.664617 0.000007 0.000000 -0.658403 0.000005 0.000000 -0.656075 0.000005 0.000000 -0.649844 0.000003 0.000000 -0.647491 0.000004 0.000000 -0.641296 0.000002 0.000000 -0.638913 0.000002 0.000000 -0.632803 0.000000 0.000000 -0.630302 0.000001 0.000000 -0.624296 -0.000001 0.000000 -0.621707 -0.000000 0.000000 -0.615821 -0.000002 0.000000 -0.613158 -0.000001 0.000000 -0.607299 -0.000003 0.000000 -0.604626 -0.000002 0.000000 -0.598783 -0.000004 0.000000 -0.596160 -0.000003 0.000000 -0.590271 -0.000004 0.000000 -0.587666 -0.000004 0.000000 -0.581786 -0.000005 0.000000 -0.579189 -0.000005 0.000000 -0.573372 -0.000006 0.000000 -0.570690 -0.000006 0.000000 -0.564956 -0.000007 0.000000 -0.562212 -0.000006 0.000000 -0.556587 -0.000007 0.000000 -0.553786 -0.000007 0.000000 -0.548179 -0.000008 0.000000 -0.545386 -0.000008 0.000000 -0.539783 -0.000009 0.000000 -0.537061 -0.000009 0.000000 -0.531398 -0.000010 0.000000 -0.528714 -0.000009 0.000000 -0.523044 -0.000010 0.000000 -0.520393 -0.000010 0.000000 -0.514771 -0.000011 0.000000 -0.512052 -0.000011 0.000000 -0.506503 -0.000012 0.000000 -0.503734 -0.000012 0.000000 -0.498290 -0.000014 0.000000 -0.495470 -0.000014 0.000000 -0.490040 -0.000015 0.000000 -0.487234 -0.000015 0.000000 -0.481805 -0.000016 0.000000 -0.479079 -0.000016 0.000000 -0.473581 -0.000018 0.000000 -0.470905 -0.000018 0.000000 -0.465390 -0.000020 0.000000 -0.462761 -0.000020 0.000000 -0.457284 -0.000022 0.000000 -0.454597 -0.000022 0.000000 -0.449187 -0.000024 0.000000 -0.446456 -0.000025 0.000000 -0.441150 -0.000027 0.000000 -0.438368 -0.000028 0.000000 -0.433076 -0.000030 0.000000 -0.430307 -0.000032 0.000000 -0.425014 -0.000035 0.000000 -0.422330 -0.000036 0.000000 -0.416962 -0.000040 0.000000 -0.414334 -0.000042 0.000000 -0.408943 -0.000047 0.000000 -0.406371 -0.000049 0.000000 -0.401011 -0.000055 0.000000 -0.398386 -0.000059 0.000000 -0.393087 -0.000066 0.000000 -0.390420 -0.000071 0.000000 -0.385226 -0.000080 0.000000 -0.382505 -0.000087 0.000000 -0.377325 -0.000098 0.000000 -0.374614 -0.000107 0.000000 -0.369434 -0.000121 0.000000 -0.366807 -0.000132 0.000000 -0.361548 -0.000149 0.000000 -0.358979 -0.000163 0.000000 -0.353690 -0.000184 0.000000 -0.351184 -0.000202 0.000000 -0.345918 -0.000228 0.000000 -0.343362 -0.000250 0.000000 -0.338151 -0.000281 0.000000 -0.335552 -0.000308 0.000000 -0.330444 -0.000345 0.000000 -0.327785 -0.000378 0.000000 -0.322690 -0.000422 0.000000 -0.320033 -0.000461 0.000000 -0.314937 -0.000513 0.000000 -0.312357 -0.000558 0.000000 -0.307175 -0.000619 0.000000 -0.304647 -0.000670 0.000000 -0.299425 -0.000740 0.000000 -0.296957 -0.000797 0.000000 -0.291745 -0.000874 0.000000 -0.289220 -0.000938 0.000000 -0.284048 -0.001019 0.000000 -0.281468 -0.001088 0.000000 -0.276387 -0.001172 0.000000 -0.273726 -0.001241 0.000000 -0.268646 -0.001325 0.000000 -0.265962 -0.001388 0.000000 -0.260867 -0.001467 0.000000 -0.258234 -0.001519 0.000000 -0.253034 -0.001581 0.000000 -0.250425 -0.001615 0.000000 -0.245160 -0.001648 0.000000 -0.242589 -0.001655 0.000000 -0.237301 -0.001640 0.000000 -0.234651 -0.001602 0.000000 -0.229375 -0.001520 0.000000 -0.226651 -0.001416 0.000000 -0.221450 -0.001243 0.000000 -0.218636 -0.001042 0.000000 -0.213441 -0.000744 0.000000 -0.210623 -0.000418 0.000000 -0.205457 0.000042 0.000000 -0.202769 0.000522 0.000000 -0.197597 0.001177 0.000000 -0.195110 0.001832 0.000000 -0.190069 0.002690 0.000000 -0.187950 0.003503 0.000000 -0.183229 0.004474 0.000000 -0.181521 0.005325 0.000000 -0.177268 0.006150 0.000000 -0.176008 0.006791 0.000000 -0.172262 0.007088 0.000000 -0.171175 0.007207 0.000000 -0.167574 0.006746 0.000000 -0.166208 0.006211 0.000000 -0.162314 0.005299 0.000000 -0.160536 0.004408 0.000000 -0.156107 0.003448 0.000000 -0.153968 0.002549 0.000000 -0.149112 0.001778 0.000000 -0.146799 0.001085 0.000000 -0.141729 0.000583 0.000000 -0.139287 0.000143 0.000000 -0.134186 -0.000124 0.000000 -0.131713 -0.000356 0.000000 -0.126738 -0.000458 0.000000 -0.124250 -0.000552 0.000000 -0.119356 -0.000569 0.000000 -0.116912 -0.000586 0.000000 -0.112094 -0.000571 0.000000 -0.109766 -0.000552 0.000000 -0.104916 -0.000529 0.000000 -0.102676 -0.000500 0.000000 -0.097809 -0.000476 0.000000 -0.095679 -0.000447 0.000000 -0.090820 -0.000420 0.000000 -0.088678 -0.000394 0.000000 -0.083863 -0.000363 0.000000 -0.081698 -0.000339 0.000000 -0.077003 -0.000304 0.000000 -0.074775 -0.000278 0.000000 -0.070124 -0.000241 0.000000 -0.067885 -0.000212 0.000000 -0.063274 -0.000177 0.000000 -0.061112 -0.000143 0.000000 -0.056438 -0.000111 0.000000 -0.054343 -0.000077 0.000000 -0.049626 -0.000049 0.000000 -0.047639 -0.000016 0.000000 -0.042911 0.000009 0.000000 -0.040908 0.000039 0.000000 -0.036210 0.000061 0.000000 -0.034178 0.000084 0.000000 -0.029596 0.000105 0.000000 -0.027485 0.000123 0.000000 -0.022947 0.000141 0.000000 -0.020806 0.000154 0.000000 -0.016308 0.000168 0.000000 -0.014230 0.000180 0.000000 -0.009662 0.000190 0.000000 -0.007644 0.000199 0.000000 -0.003020 0.000206 0.000000 -0.001108 0.000214 0.000000 0.003544 0.000218 0.000000 0.005470 0.000224 0.000000 0.010106 0.000227 0.000000 0.012062 0.000230 0.000000 0.016587 0.000233 0.000000 0.018630 0.000234 0.000000 0.023110 0.000236 0.000000 0.025191 0.000237 0.000000 0.029625 0.000238 0.000000 0.031650 0.000238 0.000000 0.036150 0.000237 0.000000 0.038117 0.000238 0.000000 0.042675 0.000236 0.000000 0.044530 0.000236 0.000000 0.049122 0.000234 0.000000 0.050985 0.000234 0.000000 0.055567 0.000232 0.000000 0.057457 0.000230 0.000000 0.061930 0.000229 0.000000 0.063906 0.000226 0.000000 0.068331 0.000225 0.000000 0.070352 0.000222 0.000000 0.074722 0.000220 0.000000 0.076692 0.000217 0.000000 0.081122 0.000214 0.000000 0.083037 0.000212 0.000000 0.087526 0.000209 0.000000 0.089323 0.000206 0.000000 0.093852 0.000203 0.000000 0.095650 0.000200 0.000000 0.100176 0.000197 0.000000 0.101996 0.000194 0.000000 0.106414 0.000191 0.000000 0.108323 0.000187 0.000000 0.112690 0.000184 0.000000 0.114649 0.000180 0.000000 0.118955 0.000177 0.000000 0.120870 0.000174 0.000000 0.125230 0.000170 0.000000 0.127092 0.000167 0.000000 0.131511 0.000163 0.000000 0.133252 0.000160 0.000000 0.137718 0.000156 0.000000 0.139453 0.000153 0.000000 0.143921 0.000149 0.000000 0.145674 0.000145 0.000000 0.150038 0.000142 0.000000 0.151880 0.000138 0.000000 0.156190 0.000135 0.000000 0.158088 0.000131 0.000000 0.162330 0.000128 0.000000 0.164191 0.000125 0.000000 0.168482 0.000122 0.000000 0.170293 0.000118 0.000000 0.174644 0.000115 0.000000 0.176332 0.000112 0.000000 0.180733 0.000109 0.000000 0.182408 0.000106 0.000000 0.186820 0.000103 0.000000 0.188508 0.000100 0.000000 0.192817 0.000098 0.000000 0.194594 0.000095 0.000000 0.198847 0.000093 0.000000 0.200685 0.000090 0.000000 0.204862 0.000088 0.000000 0.206672 0.000086 0.000000 0.210892 0.000083 0.000000 0.212657 0.000081 0.000000 0.216936 0.000079 0.000000 0.218575 0.000078 0.000000 0.222911 0.000076 0.000000 0.224530 0.000074 0.000000 0.228882 0.000073 0.000000 0.230508 0.000071 0.000000 0.234762 0.000070 0.000000 0.236475 0.000069 0.000000 0.240669 0.000068 0.000000 0.242449 0.000067 0.000000 0.246558 0.000066 0.000000 0.248319 0.000066 0.000000 0.252464 0.000065 0.000000 0.254186 0.000065 0.000000 0.258389 0.000064 0.000000 0.259985 0.000064 0.000000 0.264248 0.000064 0.000000 0.265818 0.000064 0.000000 0.270104 0.000064 0.000000 0.271674 0.000065 0.000000 0.275864 0.000065 0.000000 0.277518 0.000066 0.000000 0.281645 0.000066 0.000000 0.283371 0.000067 0.000000 0.287402 0.000068 0.000000 0.289121 0.000069 0.000000 0.293179 0.000070 0.000000 0.294867 0.000071 0.000000 0.298979 0.000072 0.000000 0.300541 0.000074 0.000000 0.304717 0.000075 0.000000 0.306248 0.000077 0.000000 0.310451 0.000079 0.000000 0.311974 0.000081 0.000000 0.316084 0.000083 0.000000 0.317689 0.000085 0.000000 0.321730 0.000087 0.000000 0.323413 0.000089 0.000000 0.327347 0.000092 0.000000 0.329034 0.000095 0.000000 0.332982 0.000097 0.000000 0.334646 0.000100 0.000000 0.338641 0.000103 0.000000 0.340182 0.000106 0.000000 0.344240 0.000109 0.000000 0.345747 0.000113 0.000000 0.349833 0.000116 0.000000 0.351327 0.000120 0.000000 0.355319 0.000123 0.000000 0.356894 0.000128 0.000000 0.360808 0.000131 0.000000 0.362466 0.000136 0.000000 0.366259 0.000140 0.000000 0.367932 0.000145 0.000000 0.371722 0.000149 0.000000 0.373381 0.000155 0.000000 0.377205 0.000159 0.000000 0.378747 0.000166 0.000000 0.382626 0.000170 0.000000 0.384132 0.000178 0.000000 0.388032 0.000183 0.000000 0.389523 0.000190 0.000000 0.393320 0.000196 0.000000 0.394892 0.000204 0.000000 0.398595 0.000211 0.000000 0.400257 0.000220 0.000000 0.403814 0.000227 0.000000 0.405504 0.000237 0.000000 0.409030 0.000245 0.000000 0.410718 0.000257 0.000000 0.414252 0.000266 0.000000 0.415828 0.000279 0.000000 0.419393 0.000289 0.000000 0.420936 0.000304 0.000000 0.424499 0.000316 0.000000 0.426025 0.000333 0.000000 0.429456 0.000347 0.000000 0.431063 0.000366 0.000000 0.434364 0.000383 0.000000 0.436066 0.000405 0.000000 0.439173 0.000424 0.000000 0.440913 0.000451 0.000000 0.443933 0.000473 0.000000 0.445677 0.000505 0.000000 0.448643 0.000531 0.000000 0.450277 0.000568 0.000000 0.453206 0.000600 0.000000 0.454798 0.000644 0.000000 0.457647 0.000683 0.000000 0.459202 0.000735 0.000000 0.461827 0.000782 0.000000 0.463431 0.000844 0.000000 0.465804 0.000901 0.000000 0.467454 0.000975 0.000000 0.469474 0.001045 0.000000 0.471081 0.001133 0.000000 0.472794 0.001219 0.000000 0.474270 0.001325 0.000000 0.475623 0.001428 0.000000 0.476756 0.001556 0.000000 0.477627 0.001681 0.000000 0.478319 0.001834 0.000000 0.478446 0.001984 0.000000 0.478436 0.002166 0.000000 0.477318 0.002345 0.000000 0.476254 0.002559 0.000000 0.473308 0.002773 0.000000 0.470525 0.003024 0.000000 0.464838 0.003277 0.000000 0.459317 0.003574 0.000000 0.449923 0.003879 0.000000 0.440597 0.004237 0.000000 0.426610 0.004615 0.000000 0.412782 0.005067 0.000000 0.394072 0.005560 0.000000 0.376325 0.006156 0.000000 0.353946 0.006827 0.000000 0.333844 0.007651 0.000000 0.309432 0.008607 0.000000 0.288730 0.009801 0.000000 0.263834 0.011232 0.000000 0.243989 0.013042 0.000000 0.219798 0.015267 0.000000 0.201900 0.018090 0.000000 0.179299 0.021579 0.000000 0.164221 0.025943 0.000000 0.143983 0.031233 0.000000 0.132592 0.037588 0.000000 0.115546 0.044914 0.000000 0.108777 0.053091 0.000000 0.095728 0.061671 0.000000 0.094300 0.070065 0.000000 0.085458 0.077352 0.000000 0.088985 0.082515 0.000000 0.082824 0.084498 0.000000 0.088659 0.082569 0.000000 0.081219 0.076494 0.000000 
0.087596 0.071285 0.000000 0.075653 0.061264 0.000000 0.075954 0.051182 0.000000 0.059113 0.040112 0.000000 0.056808 0.030667 0.000000 0.036612 0.021292 0.000000 0.033772 0.014227 0.000000 0.012101 0.007398 0.000000 0.010540 0.002879 0.000000 -0.011251 -0.001704 0.000000 -0.010281 -0.004243 0.000000 -0.031283 -0.007299 0.000000 -0.026800 -0.008649 0.000000 -0.046165 -0.011027 0.000000 -0.037061 -0.012090 0.000000 -0.053635 -0.014758 0.000000 -0.038374 -0.016582 0.000000 -0.050484 -0.020647 0.000000 -0.027034 -0.024342 0.000000 -0.032642 -0.030787 0.000000 0.001055 -0.037003 0.000000 0.003425 -0.045849 0.000000 0.048000 -0.053636 0.000000 0.057169 -0.062689 0.000000 0.109325 -0.068587 0.000000 0.119029 -0.073551 0.000000 0.170281 -0.073604 0.000000 0.170714 -0.071936 0.000000 0.212283 -0.066333 0.000000 0.197954 -0.059951 0.000000 0.227079 -0.051547 0.000000 0.198367 -0.043387 0.000000 0.216686 -0.034578 0.000000 0.176446 -0.026590 0.000000 0.187014 -0.018672 0.000000 0.138412 -0.011506 0.000000 0.143598 -0.004818 0.000000 0.088836 0.001553 0.000000 0.089797 0.006712 0.000000 0.031014 0.012457 0.000000 0.028110 0.016089 0.000000 -0.032884 0.021535 0.000000 -0.040275 0.023690 0.000000 -0.101747 0.028741 0.000000 -0.113932 0.029592 0.000000 -0.174276 0.034202 0.000000 -0.191510 0.034133 0.000000 -0.249743 0.037955 0.000000 -0.271455 0.036950 0.000000 -0.326105 0.039789 0.000000 -0.351338 0.037988 0.000000 -0.401121 0.039820 0.000000 -0.428902 0.037046 0.000000 -0.471883 0.037871 0.000000 -0.501031 0.034360 0.000000 -0.535793 0.034581 0.000000 -0.565888 0.030838 0.000000 -0.592088 0.030460 0.000000 -0.622251 0.026860 0.000000 -0.640318 0.026069 0.000000 -0.669874 0.023043 0.000000 -0.681247 0.021955 0.000000 -0.709537 0.019495 0.000000 -0.715524 0.018243 0.000000 -0.742086 0.016350 0.000000 -0.744043 0.015127 0.000000 -0.768824 0.013605 0.000000 -0.767602 0.012440 0.000000 -0.790575 0.011188 0.000000 -0.786805 0.010163 0.000000 -0.808190 0.009120 0.000000 -0.802355 0.008145 0.000000 -0.822153 0.007271 0.000000 -0.814621 0.006325 0.000000 -0.832834 0.005634 0.000000 -0.824025 0.004671 0.000000 -0.840554 0.004111 0.000000 -0.830732 0.003131 0.000000 -0.845493 0.002700 0.000000 -0.834931 0.001732 0.000000 -0.847909 0.001396 0.000000 -0.836787 0.000464 0.000000 -0.848006 0.000226 0.000000 -0.836515 -0.000621 0.000000 -0.846106 -0.000757 0.000000 -0.834451 -0.001497 0.000000 -0.842587 -0.001545 0.000000 -0.830944 -0.002180 0.000000 -0.837800 -0.002166 0.000000 -0.826287 -0.002694 0.000000 -0.832056 -0.002621 0.000000 -0.820794 -0.003060 0.000000 -0.825645 -0.002960 0.000000 -0.814672 -0.003350 0.000000 -0.818693 -0.003209 0.000000 -0.808091 -0.003552 0.000000 -0.811381 -0.003385 0.000000 -0.801195 -0.003714 0.000000 -0.803766 -0.003547 0.000000 -0.793993 -0.003825 0.000000 -0.795961 -0.003663 0.000000 -0.786591 -0.003900 0.000000 -0.788032 -0.003784 0.000000 -0.778955 -0.003972 0.000000 -0.779978 -0.003867 0.000000 -0.771171 -0.004015 0.000000 -0.771869 -0.003937 0.000000 -0.763256 -0.004086 0.000000 -0.763626 -0.003991 0.000000 -0.755244 -0.004130 0.000000 -0.755319 -0.004019 0.000000 -0.747198 -0.004181 0.000000 -0.746913 -0.004072 0.000000 -0.739047 -0.004206 0.000000 -0.738470 -0.004100 0.000000 -0.730861 -0.004213 0.000000 -0.730028 -0.004155 0.000000 -0.722558 -0.004232 0.000000 -0.721553 -0.004183 0.000000 -0.714213 -0.004228 0.000000 -0.713109 -0.004207 0.000000 -0.705820 -0.004264 0.000000 -0.704590 -0.004219 0.000000 -0.697406 -0.004276 0.000000 -0.696062 -0.004209 0.000000 -0.689027 -0.004303 0.000000 -0.687476 -0.004231 0.000000 -0.680599 -0.004305 0.000000 -0.678892 -0.004231 0.000000 -0.672191 -0.004292 0.000000 -0.670343 -0.004264 0.000000 -0.663707 -0.004292 0.000000 -0.661792 -0.004271 0.000000 -0.655217 -0.004270 0.000000 -0.653306 -0.004277 0.000000 -0.646713 -0.004291 0.000000 -0.644768 -0.004273 0.000000 -0.638217 -0.004290 0.000000 -0.636247 -0.004246 0.000000 -0.629789 -0.004307 0.000000 -0.627683 -0.004255 0.000000 -0.621336 -0.004300 0.000000 -0.619137 -0.004240 0.000000 -0.612931 -0.004278 0.000000 -0.610640 -0.004264 0.000000 -0.604466 -0.004270 0.000000 -0.602155 -0.004262 0.000000 -0.596013 -0.004238 0.000000 -0.593753 -0.004260 0.000000 -0.587558 -0.004253 0.000000 -0.585310 -0.004248 0.000000 -0.579126 -0.004245 0.000000 -0.576898 -0.004213 0.000000 -0.570777 -0.004257 0.000000 -0.568450 -0.004214 0.000000 -0.562416 -0.004247 0.000000 -0.560027 -0.004192 0.000000 -0.554118 -0.004221 0.000000 -0.551657 -0.004212 0.000000 -0.545767 -0.004209 0.000000 -0.543307 -0.004207 0.000000 -0.537435 -0.004172 0.000000 -0.535048 -0.004202 0.000000 -0.529105 -0.004184 0.000000 -0.526755 -0.004187 0.000000 -0.520805 -0.004172 0.000000 -0.518500 -0.004148 0.000000 -0.512596 -0.004183 0.000000 -0.510212 -0.004146 0.000000 -0.504382 -0.004172 0.000000 -0.501950 -0.004120 0.000000 -0.496240 -0.004146 0.000000 -0.493744 -0.004139 0.000000 -0.488046 -0.004134 0.000000 -0.485557 -0.004134 0.000000 -0.479873 -0.004095 0.000000 -0.477469 -0.004129 0.000000 -0.471704 -0.004106 0.000000 -0.469348 -0.004114 0.000000 -0.463565 -0.004093 0.000000 -0.461270 -0.004074 0.000000 -0.455523 -0.004105 0.000000 -0.453160 -0.004072 0.000000 -0.447477 -0.004096 0.000000 -0.445074 -0.004045 0.000000 -0.439509 -0.004072 0.000000 -0.437042 -0.004066 0.000000 -0.431488 -0.004062 0.000000 -0.429029 -0.004063 0.000000 -0.423488 -0.004024 0.000000 -0.421118 -0.004063 0.000000 -0.415490 -0.004039 0.000000 -0.413173 -0.004053 0.000000 -0.407520 -0.004029 0.000000 -0.405274 -0.004017 0.000000 -0.399648 -0.004049 0.000000 -0.397342 -0.004022 0.000000 -0.391774 -0.004050 0.000000 -0.389430 -0.004003 0.000000 -0.383980 -0.004039 0.000000 -0.381570 -0.004039 0.000000 -0.376131 -0.004045 0.000000 -0.373726 -0.004053 0.000000 -0.368300 -0.004025 0.000000 -0.365984 -0.004075 0.000000 -0.360468 -0.004064 0.000000 -0.358206 -0.004092 0.000000 -0.352660 -0.004082 0.000000 -0.350477 -0.004088 0.000000 -0.344949 -0.004138 0.000000 -0.342710 -0.004133 0.000000 -0.337234 -0.004184 0.000000 -0.334959 -0.004160 0.000000 -0.329599 -0.004226 0.000000 -0.327253 -0.004252 0.000000 -0.321904 -0.004294 0.000000 -0.319555 -0.004333 0.000000 -0.314219 -0.004345 0.000000 -0.311953 -0.004432 0.000000 -0.306522 -0.004465 0.000000 -0.304304 -0.004535 0.000000 -0.298833 -0.004573 0.000000 -0.296692 -0.004625 0.000000 -0.291227 -0.004727 0.000000 -0.289022 -0.004769 0.000000 -0.283592 -0.004875 0.000000 -0.281340 -0.004897 0.000000 -0.276013 -0.005019 0.000000 -0.273669 -0.005085 0.000000 -0.268337 -0.005179 0.000000 -0.265963 -0.005247 0.000000 -0.260629 -0.005299 0.000000 -0.258304 -0.005401 0.000000 -0.252854 -0.005449 0.000000 -0.250543 -0.005514 0.000000 -0.245023 -0.005526 0.000000 -0.242756 -0.005543 0.000000 -0.237198 -0.005564 0.000000 -0.234833 -0.005518 0.000000 -0.229266 -0.005470 0.000000 -0.226814 -0.005324 0.000000 -0.221310 -0.005195 0.000000 -0.218725 -0.004986 0.000000 -0.213190 -0.004690 0.000000 -0.210555 -0.004344 0.000000 -0.205023 -0.003828 0.000000 -0.202476 -0.003349 0.000000 -0.196886 -0.002614 0.000000 -0.194505 -0.001900 0.000000 -0.189025 -0.000891 0.000000 -0.187066 0.000066 0.000000 -0.181958 0.001204 0.000000 -0.180582 0.002260 0.000000 -0.176113 0.003280 0.000000 -0.175496 0.004138 0.000000 -0.171815 0.004514 0.000000 -0.171576 0.004675 0.000000 -0.168197 0.004080 0.000000 -0.167484 0.003386 0.000000 -0.163647 0.002297 0.000000 -0.162242 0.001159 0.000000 -0.157610 0.000063 0.000000 -0.155670 -0.001011 0.000000 -0.150453 -0.001833 0.000000 -0.148297 -0.002597 0.000000 -0.142822 -0.003138 0.000000 -0.140550 -0.003570 0.000000 -0.135060 -0.003839 0.000000 -0.132807 -0.003998 0.000000 -0.127494 -0.004105 0.000000 -0.125264 -0.004157 0.000000 -0.120065 -0.004157 0.000000 -0.117905 -0.004141 0.000000 -0.112821 -0.004077 0.000000 -0.110794 -0.004080 0.000000 -0.105686 -0.004021 0.000000 -0.103747 -0.004007 0.000000 -0.098628 -0.003936 0.000000 -0.096813 -0.003908 0.000000 -0.091699 -0.003892 0.000000 -0.089866 -0.003849 0.000000 -0.084786 -0.003833 0.000000 -0.082938 -0.003752 0.000000 -0.077987 -0.003749 0.000000 -0.076067 -0.003703 0.000000 -0.071154 -0.003673 0.000000 -0.069218 -0.003626 0.000000 -0.064359 -0.003552 0.000000 -0.062504 -0.003551 0.000000 -0.057575 -0.003486 0.000000 -0.055781 -0.003473 0.000000 -0.050811 -0.003393 0.000000 -0.049138 -0.003366 0.000000 -0.044154 -0.003349 0.000000 -0.042460 -0.003305 0.000000 -0.037498 -0.003298 0.000000 -0.035784 -0.003217 0.000000 -0.030948 -0.003236 0.000000 -0.029147 -0.003197 0.000000 -0.024348 -0.003195 0.000000 -0.022512 -0.003161 0.000000 -0.017767 -0.003117 0.000000 -0.015996 -0.003140 0.000000 -0.011174 -0.003101 0.000000 -0.009454 -0.003120 0.000000 -0.004578 -0.003060 0.000000 -0.002979 -0.003067 0.000000 0.001931 -0.003069 0.000000 0.003549 -0.003056 0.000000 0.008452 -0.003068 0.000000 0.010092 -0.003010 0.000000 0.014875 -0.003050 0.000000 0.016608 -0.003026 0.000000 0.021353 -0.003044 0.000000 0.023131 -0.003020 0.000000 0.027814 -0.002992 0.000000 0.029535 -0.003024 0.000000 0.034290 -0.002996 0.000000 0.035961 -0.003025 0.000000 0.040772 -0.002970 0.000000 0.042317 -0.002988 0.000000 0.047168 -0.002993 0.000000 0.048724 -0.002989 0.000000 0.053576 -0.003004 0.000000 0.055149 -0.002951 0.000000 0.059881 -0.002996 0.000000 0.061550 -0.002975 0.000000 0.066240 -0.002998 0.000000 0.067959 -0.002974 0.000000 0.072578 -0.002951 0.000000 0.074246 -0.002983 0.000000 0.078932 -0.002958 0.000000 0.080552 -0.002990 0.000000 0.085294 -0.002935 0.000000 0.086782 -0.002957 0.000000 0.091570 -0.002961 0.000000 0.093063 -0.002962 0.000000 0.097858 -0.002977 0.000000 0.099363 -0.002926 0.000000 0.104042 -0.002973 0.000000 0.105643 -0.002951 0.000000 0.110277 -0.002979 0.000000 0.111934 -0.002952 0.000000 0.116490 -0.002933 0.000000 0.118102 -0.002964 0.000000 0.122720 -0.002941 0.000000 0.124288 -0.002974 0.000000 0.128961 -0.002918 0.000000 0.130393 -0.002944 0.000000 0.135118 -0.002945 0.000000 0.136549 -0.002949 0.000000 0.141288 -0.002962 0.000000 0.142726 -0.002913 0.000000 0.147351 -0.002961 0.000000 0.148886 -0.002938 0.000000 0.153464 -0.002969 0.000000 0.155060 -0.002939 0.000000 0.159553 -0.002924 0.000000 0.161112 -0.002952 0.000000 0.165660 -0.002930 0.000000 0.167179 -0.002963 0.000000 0.171783 -0.002905 0.000000 0.173164 -0.002933 0.000000 0.177825 -0.002930 0.000000 0.179198 -0.002938 0.000000 0.183879 -0.002947 0.000000 0.185253 -0.002899 0.000000 0.189825 -0.002946 0.000000 0.191294 -0.002920 0.000000 0.195817 -0.002953 0.000000 0.197353 -0.002918 0.000000 0.201783 -0.002906 0.000000 0.203291 -0.002930 0.000000 0.207769 -0.002910 0.000000 0.209242 -0.002941 0.000000 0.213775 -0.002880 0.000000 0.215108 -0.002910 0.000000 0.219703 -0.002902 0.000000 0.221022 -0.002912 0.000000 0.225644 -0.002917 0.000000 0.226957 -0.002869 0.000000 0.231473 -0.002913 0.000000 0.232879 -0.002885 0.000000 0.237343 -0.002919 0.000000 0.238821 -0.002878 0.000000 0.243184 -0.002870 0.000000 0.244644 -0.002888 0.000000 0.249047 -0.002869 0.000000 0.250479 -0.002898 0.000000 0.254935 -0.002835 0.000000 0.256226 -0.002866 0.000000 0.260749 -0.002853 0.000000 0.262020 -0.002864 0.000000 0.266576 -0.002864 0.000000 0.267833 -0.002816 0.000000 0.272286 -0.002858 0.000000 0.273634 -0.002825 0.000000 0.278032 -0.002861 0.000000 0.279456 -0.002812 0.000000 0.283743 -0.002808 0.000000 0.285160 -0.002820 0.000000 0.289477 -0.002804 0.000000 0.290875 -0.002829 0.000000 0.295241 -0.002765 0.000000 0.296500 -0.002796 0.000000 0.300935 -0.002779 0.000000 0.302168 -0.002790 0.000000 0.306640 -0.002785 0.000000 0.307853 -0.002736 0.000000 0.312226 -0.002775 0.000000 0.313526 -0.002739 0.000000 0.317838 -0.002775 0.000000 0.319220 -0.002720 0.000000 0.323410 -0.002719 0.000000 0.324795 -0.002723 0.000000 0.329003 -0.002710 0.000000 0.330378 -0.002730 0.000000 0.334627 -0.002666 0.000000 0.335867 -0.002694 0.000000 0.340184 -0.002674 0.000000 0.341394 -0.002684 0.000000 0.345750 -0.002675 0.000000 0.346935 -0.002623 0.000000 0.351190 -0.002660 0.000000 0.352461 -0.002617 0.000000 0.356647 -0.002655 0.000000 0.358004 -0.002590 0.000000 0.362053 -0.002594 0.000000 0.363426 -0.002587 0.000000 0.367476 -0.002576 0.000000 0.368849 -0.002587 0.000000 0.372927 -0.002524 0.000000 0.374169 -0.002545 0.000000 0.378306 -0.002523 0.000000 0.379520 -0.002526 0.000000 0.383688 -0.002514 0.000000 0.384874 -0.002454 0.000000 0.388933 -0.002489 0.000000 0.390204 -0.002434 0.000000 0.394179 -0.002472 0.000000 0.395543 -0.002391 0.000000 0.399357 -0.002397 0.000000 0.400750 -0.002372 0.000000 0.404537 -0.002363 0.000000 0.405941 -0.002355 0.000000 0.409729 -0.002291 0.000000 0.411012 -0.002293 0.000000 0.414834 -0.002266 0.000000 0.416091 -0.002250 0.000000 0.419920 -0.002230 0.000000 0.421149 -0.002147 0.000000 0.424842 -0.002174 0.000000 0.426156 -0.002089 0.000000 0.429728 -0.002120 0.000000 0.431141 -0.002002 0.000000 0.434506 -0.002001 0.000000 0.435959 -0.001932 0.000000 0.439240 -0.001912 0.000000 0.440712 -0.001854 0.000000 0.443934 -0.001772 0.000000 0.445288 -0.001717 0.000000 0.448477 -0.001664 0.000000 0.449798 -0.001581 0.000000 0.452918 -0.001524 0.000000 0.454195 -0.001362 0.000000 0.457089 -0.001339 0.000000 0.458421 -0.001152 0.000000 0.461075 -0.001118 0.000000 0.462464 -0.000869 0.000000 0.464756 -0.000778 0.000000 0.466110 -0.000538 0.000000 0.468106 -0.000387 0.000000 0.469352 -0.000103 0.000000 0.470994 0.000171 0.000000 0.471905 0.000538 0.000000 0.473082 0.000882 0.000000 0.473584 0.001405 0.000000 0.474051 0.001905 0.000000 0.473878 0.002706 0.000000 0.473130 0.003412 0.000000 0.471955 0.004537 0.000000 0.469439 0.005608 0.000000 0.466610 0.007225 0.000000 0.461397 0.008846 0.000000 0.455880 0.010989 0.000000 0.446997 0.013193 0.000000 0.437702 0.015840 0.000000 0.424208 0.018465 0.000000 0.410370 0.021269 0.000000 0.392104 0.023715 0.000000 0.374341 0.026135 0.000000 0.352430 0.027976 0.000000 0.332392 0.029805 0.000000 0.308543 0.031053 0.000000 0.288033 0.032475 0.000000 0.263820 0.033468 0.000000 0.244300 0.034910 0.000000 0.220896 0.036151 0.000000 0.203427 0.038166 0.000000 0.181677 0.040240 0.000000 0.167082 0.043418 0.000000 0.147689 0.046877 0.000000 0.136741 0.051658 0.000000 0.120402 0.056724 0.000000 0.113875 0.062974 0.000000 0.101194 0.068994 0.000000 0.099585 0.075411 0.000000 0.090565 0.080365 0.000000 0.093382 0.084290 0.000000 0.086597 0.085156 0.000000 0.091602 0.083744 0.000000 0.083873 0.078506 0.000000 