# vtk DataFile Version 2.0
Comment goes here
ASCII

DATASET STRUCTURED_POINTS
FIELD FieldData 1
TIME 1 1 double
0.10000000
DIMENSIONS    256   32   1

ORIGIN    0.000   0.000   0.000
SPACING   0.0078125 0.0078125   1.000

POINT_DATA   8192
VECTORS u double

-0.027774 0.000002 0.000000 -0.081353 0.000004 0.000000 -0.159427 0.000006 0.000000 -0.256298 0.000009 0.000000 -0.376592 0.000012 0.000000 -0.486465 0.000016 0.000000 -0.562616 0.000016 0.000000 -0.526915 0.000003 0.000000 -0.578636 0.000002 0.000000 -0.563778 -0.000008 0.000000 -0.637190 -0.000011 0.000000 -0.691999 -0.000015 0.000000 -0.732596 -0.000009 0.000000 -0.878452 -0.000008 0.000000 -0.928742 -0.000045 0.000000 -0.844773 -0.000082 0.000000 -1.032500 -0.000104 0.000000 -0.965260 -0.000083 0.000000 -0.972787 -0.000163 0.000000 -1.028817 -0.000057 0.000000 -0.674607 0.000080 0.000000 -0.781098 -0.000033 0.000000 -0.744386 -0.000113 0.000000 -0.395305 -0.000085 0.000000 -0.662811 -0.000122 0.000000 -0.421642 -0.000102 0.000000 -0.430972 -0.000007 0.000000 -0.553802 -0.000046 0.000000 -0.285328 0.000075 0.000000 -0.558610 0.000044 0.000000 -0.310801 0.000060 0.000000 -0.402483 0.000196 0.000000 -0.433629 0.000095 0.000000 -0.239160 0.000269 0.000000 -0.470681 0.000254 0.000000 -0.241557 0.000259 0.000000 -0.363940 0.000405 0.000000 -0.343683 0.000230 0.000000 -0.192383 0.000446 0.000000 -0.397886 0.000352 0.000000 -0.176989 0.000379 0.000000 -0.324780 0.000421 0.000000 -0.259029 0.000204 0.000000 -0.158832 0.000404 0.000000 -0.324101 0.000183 0.000000 -0.127014 0.000255 0.000000 -0.278112 0.000210 0.000000 -0.188463 -0.000036 0.000000 -0.130444 0.000251 0.000000 -0.258480 -0.000094 0.000000 -0.084327 0.000188 0.000000 -0.233751 0.000111 0.000000 -0.126245 -0.000040 0.000000 -0.112638 0.000385 0.000000 -0.197107 0.000018 0.000000 -0.052589 0.000468 0.000000 -0.189833 0.000190 0.000000 -0.076342 -0.000203 0.000000 -0.100754 -0.000006 0.000000 -0.143344 -0.000741 0.000000 -0.023724 -0.000323 0.000000 -0.151398 -0.001844 0.000000 -0.031408 -0.007358 0.000000 -0.076621 -0.001690 0.000000 -0.087584 0.009713 0.000000 -0.006305 0.003848 0.000000 -0.112436 -0.001915 0.000000 0.000384 0.000978 0.000000 -0.067360 0.001431 0.000000 -0.050434 0.002025 0.000000 0.014276 0.000889 0.000000 -0.078259 0.000286 0.000000 0.025076 0.000539 0.000000 -0.049209 0.000128 0.000000 -0.012519 0.000368 0.000000 0.027196 0.000338 0.000000 -0.044688 0.000253 0.000000 0.046386 0.000532 0.000000 -0.026608 0.000409 0.000000 0.019840 0.000434 0.000000 0.038411 0.000662 0.000000 -0.014630 0.000287 0.000000 0.065175 0.000687 0.000000 -0.005632 0.000452 0.000000 0.048872 0.000406 0.000000 0.044514 0.000713 0.000000 0.014285 0.000117 0.000000 0.079266 0.000612 0.000000 0.015357 0.000236 0.000000 0.071074 -0.000054 0.000000 0.051523 0.000206 0.000000 0.039063 -0.000735 0.000000 0.093086 -0.000233 0.000000 0.033680 -0.001054 0.000000 0.092072 -0.003998 0.000000 0.066637 -0.001168 0.000000 0.066985 0.004631 0.000000 0.101019 0.002855 0.000000 0.053395 0.000215 0.000000 0.105141 0.001316 0.000000 0.071992 0.001541 0.000000 0.081957 0.001887 0.000000 0.108689 0.001086 0.000000 0.067941 0.000635 0.000000 0.115321 0.000640 0.000000 0.080147 0.000241 0.000000 0.099114 0.000384 0.000000 0.113454 0.000194 0.000000 0.083461 0.000085 0.000000 0.123928 0.000167 0.000000 0.090682 0.000034 0.000000 0.112745 0.000070 0.000000 0.117639 0.000105 0.000000 0.095804 -0.000072 0.000000 0.131802 0.000121 0.000000 0.098855 -0.000066 0.000000 0.125115 -0.000002 0.000000 0.119129 0.000032 0.000000 0.108582 -0.000235 0.000000 0.137489 -0.000001 0.000000 0.108692 -0.000324 0.000000 0.134566 -0.000423 0.000000 0.124685 -0.000473 0.000000 0.120131 -0.001154 0.000000 0.145179 -0.000742 0.000000 0.117962 -0.001311 0.000000 0.145398 -0.002545 0.000000 0.133183 -0.001600 0.000000 0.134761 0.001174 0.000000 0.149733 0.002124 0.000000 0.127090 0.001355 0.000000 0.149060 0.001213 0.000000 0.134502 0.001144 0.000000 0.137101 0.001507 0.000000 0.148934 0.000642 0.000000 0.130006 0.000419 0.000000 0.150692 0.000310 0.000000 0.135311 -0.000101 0.000000 0.142742 0.000183 0.000000 0.148796 -0.000141 0.000000 0.136061 -0.000059 0.000000 0.152957 -0.000020 0.000000 0.140255 -0.000144 0.000000 0.148074 0.000007 0.000000 0.151518 -0.000053 0.000000 0.141681 -0.000101 0.000000 0.157982 0.000066 0.000000 0.145046 -0.000109 0.000000 0.155267 0.000023 0.000000 0.154486 -0.000005 0.000000 0.149378 -0.000194 0.000000 0.162159 0.000018 0.000000 0.151691 -0.000306 0.000000 0.160651 -0.000352 0.000000 0.159643 -0.000478 0.000000 0.155242 -0.001121 0.000000 0.168086 -0.000724 0.000000 0.156532 -0.001237 0.000000 0.167373 -0.002034 0.000000 0.164943 -0.001973 0.000000 0.164211 -0.000082 0.000000 0.171834 0.001957 0.000000 0.161005 0.001726 0.000000 0.168201 0.001193 0.000000 0.164471 0.001095 0.000000 0.161454 0.001424 0.000000 0.168713 0.000589 0.000000 0.158889 0.000467 0.000000 0.167183 0.000287 0.000000 0.161897 -0.000063 0.000000 0.162466 0.000195 0.000000 0.166931 -0.000133 0.000000 0.159855 -0.000004 0.000000 0.166880 -0.000003 0.000000 0.163032 -0.000105 0.000000 0.163285 0.000035 0.000000 0.168077 -0.000033 0.000000 0.160560 -0.000061 0.000000 0.169139 0.000094 0.000000 0.164008 -0.000083 0.000000 0.166369 0.000060 0.000000 0.169051 0.000004 0.000000 0.163871 -0.000162 0.000000 0.170985 0.000037 0.000000 0.167480 -0.000303 0.000000 0.168821 -0.000327 0.000000 0.172668 -0.000498 0.000000 0.166716 -0.001106 0.000000 0.175900 -0.000764 0.000000 0.170466 -0.001336 0.000000 0.174513 -0.002076 0.000000 0.177521 -0.001974 0.000000 0.174257 -0.000334 0.000000 0.180509 0.001631 0.000000 0.174476 0.001765 0.000000 0.175724 0.001198 0.000000 0.177346 0.001094 0.000000 0.171430 0.001394 0.000000 0.178330 0.000516 0.000000 0.171330 0.000531 0.000000 0.175384 0.000228 0.000000 0.174273 -0.000050 0.000000 0.172019 0.000166 0.000000 0.176853 -0.000202 0.000000 0.170812 0.000023 0.000000 0.175092 -0.000097 0.000000 0.173687 -0.000132 0.000000 0.171642 -0.000018 0.000000 0.176667 -0.000157 0.000000 0.169095 -0.000023 0.000000 0.175845 -0.000083 0.000000 0.171471 -0.000085 0.000000 0.172315 -0.000029 0.000000 0.174520 -0.000096 0.000000 0.168919 -0.000009 0.000000 0.174732 -0.000064 0.000000 0.170690 -0.000046 0.000000 0.171343 -0.000034 0.000000 0.173702 -0.000066 0.000000 0.167539 -0.000025 0.000000 0.174889 -0.000054 0.000000 0.168589 -0.000038 0.000000 0.171903 -0.000032 0.000000 0.171589 -0.000035 0.000000 0.168167 -0.000011 0.000000 0.173739 -0.000020 0.000000 0.168285 0.000004 0.000000 0.171237 0.000003 0.000000 0.171222 0.000007 0.000000 0.167712 0.000019 0.000000 0.174017 0.000002 0.000000 0.166634 0.000006 0.000000 0.172153 0.000001 0.000000 0.169686 -0.000010 0.000000 0.168703 -0.000006 0.000000 0.172819 -0.000011 0.000000 0.166717 -0.000006 0.000000 0.171634 -0.000006 0.000000 0.169694 -0.000005 0.000000 0.168233 0.000000 0.000000 0.172908 -0.000001 0.000000 0.165631 0.000005 0.000000 0.172289 0.000007 0.000000 0.168378 0.000008 0.000000 0.168936 0.000012 0.000000 0.171531 0.000009 0.000000 0.164790 0.000011 0.000000 0.170453 0.000005 0.000000 0.167931 -0.000002 0.000000 0.172833 -0.000003 0.000000 0.167968 -0.000015 0.000000 0.134815 -0.000015 0.000000 0.102651 -0.000009 0.000000 0.074120 -0.000006 0.000000 0.045156 -0.000002 0.000000 0.014644 -0.000001 0.000000 
-0.007220 0.048001 0.000000 -0.060397 0.065830 0.000000 -0.130263 0.087479 0.000000 -0.230418 0.108592 0.000000 -0.345052 0.115097 0.000000 -0.465959 0.093032 0.000000 -0.521405 0.020245 0.000000 -0.491823 0.008016 0.000000 -0.530859 0.018438 0.000000 -0.532721 0.029274 0.000000 -0.596771 0.064106 0.000000 -0.683974 0.047698 0.000000 -0.688709 0.093244 0.000000 -0.985657 0.098093 0.000000 -0.981449 -0.016856 0.000000 -0.874298 0.051820 0.000000 -1.032392 0.060164 0.000000 -0.941849 -0.029970 0.000000 -0.953278 0.031578 0.000000 -1.008124 -0.149170 0.000000 -0.695880 -0.123732 0.000000 -0.679257 0.034828 0.000000 -0.753041 -0.193045 0.000000 -0.338721 -0.040891 0.000000 -0.643947 0.013011 0.000000 -0.348807 -0.116029 0.000000 -0.406582 0.066064 0.000000 -0.507797 -0.072870 0.000000 -0.242870 0.002483 0.000000 -0.520186 0.012773 0.000000 -0.264020 -0.078015 0.000000 -0.368490 0.061621 0.000000 -0.406130 -0.081581 0.000000 -0.194991 0.018805 0.000000 -0.446794 0.001450 0.000000 -0.198688 -0.053113 0.000000 -0.341678 0.051479 0.000000 -0.318352 -0.085562 0.000000 -0.158559 0.027555 0.000000 -0.379807 -0.007348 0.000000 -0.142850 -0.036176 0.000000 -0.308266 0.041444 0.000000 -0.236885 -0.082789 0.000000 -0.132455 0.032947 0.000000 -0.311308 -0.015750 0.000000 -0.100253 -0.022746 0.000000 -0.265850 0.030924 0.000000 -0.169721 -0.073895 0.000000 -0.109599 0.035274 0.000000 -0.250972 -0.023193 0.000000 -0.062222 -0.012174 0.000000 -0.226225 0.021064 0.000000 -0.108744 -0.060611 0.000000 -0.098514 0.035883 0.000000 -0.191519 -0.029970 0.000000 -0.036262 -0.003039 0.000000 -0.184204 0.012210 0.000000 -0.062845 -0.044588 0.000000 -0.091589 0.033760 0.000000 -0.141363 -0.039011 0.000000 -0.010892 0.004459 0.000000 -0.153530 0.002502 0.000000 -0.021384 -0.045988 0.000000 -0.068013 0.025757 0.000000 -0.085180 -0.023449 0.000000 -0.004351 0.017268 0.000000 -0.115180 -0.006375 0.000000 0.009101 -0.022136 0.000000 -0.066083 0.026858 0.000000 -0.050648 -0.038742 0.000000 0.021256 0.014689 0.000000 -0.081601 -0.005319 0.000000 0.030986 -0.014067 0.000000 -0.051776 0.018833 0.000000 -0.011470 -0.037894 0.000000 0.030584 0.016404 0.000000 -0.048438 -0.009380 0.000000 0.048682 -0.008496 0.000000 -0.030048 0.013657 0.000000 0.018746 -0.032093 0.000000 0.039825 0.017922 0.000000 -0.021172 -0.013130 0.000000 0.066584 -0.003777 0.000000 -0.011855 0.008609 0.000000 0.048098 -0.024654 0.000000 0.041517 0.018102 0.000000 0.007983 -0.017242 0.000000 0.077858 0.000221 0.000000 0.008902 0.004472 0.000000 0.067749 -0.017982 0.000000 0.046578 0.016511 0.000000 0.030473 -0.021305 0.000000 0.090730 0.002987 0.000000 0.022344 -0.000168 0.000000 0.087442 -0.021067 0.000000 0.061004 0.011144 0.000000 0.058756 -0.011560 0.000000 0.091804 0.010079 0.000000 0.042507 -0.002398 0.000000 0.099299 -0.008329 0.000000 0.063501 0.013058 0.000000 0.072640 -0.016455 0.000000 0.103326 0.007994 0.000000 0.057083 -0.002829 0.000000 0.109477 -0.005533 0.000000 0.069709 0.008269 0.000000 0.091471 -0.016305 0.000000 0.105884 0.008002 0.000000 0.073417 -0.005194 0.000000 0.116069 -0.003447 0.000000 0.080784 0.005605 0.000000 0.103609 -0.013420 0.000000 0.109757 0.008579 0.000000 0.084083 -0.007174 0.000000 0.124422 -0.001389 0.000000 0.087174 0.003276 0.000000 0.116796 -0.010123 0.000000 0.108442 0.008349 0.000000 0.097810 -0.009387 0.000000 0.128224 0.000055 0.000000 0.097463 0.001248 0.000000 0.124289 -0.008254 0.000000 0.113728 0.006978 0.000000 0.107565 -0.011216 0.000000 0.135837 0.000740 0.000000 0.103671 -0.001074 0.000000 0.134860 -0.010258 0.000000 0.120522 0.003585 0.000000 0.122540 -0.006809 0.000000 0.136495 0.006219 0.000000 0.113222 0.001564 0.000000 0.136934 -0.002759 0.000000 0.122205 0.006981 0.000000 0.124251 -0.005717 0.000000 0.138122 0.004064 0.000000 0.116531 -0.000588 0.000000 0.140069 -0.002418 0.000000 0.122034 0.003783 0.000000 0.131694 -0.006586 0.000000 0.136572 0.003161 0.000000 0.123926 -0.002174 0.000000 0.140900 -0.002121 0.000000 0.128106 0.002269 0.000000 0.135662 -0.005623 0.000000 0.139810 0.003139 0.000000 0.128246 -0.003345 0.000000 0.146841 -0.001597 0.000000 0.131428 0.001249 0.000000 0.143818 -0.004668 0.000000 0.140940 0.002989 0.000000 0.137071 -0.003993 0.000000 0.149356 -0.001023 0.000000 0.138860 0.000562 0.000000 0.147490 -0.004149 0.000000 0.146511 0.002454 0.000000 0.141212 -0.005163 0.000000 0.155591 -0.001009 0.000000 0.141213 -0.000506 0.000000 0.154120 -0.006165 0.000000 0.149803 -0.000566 0.000000 0.150576 -0.003524 0.000000 0.156605 0.003795 0.000000 0.146241 0.003566 0.000000 0.153557 -0.000796 0.000000 0.150919 0.004307 0.000000 0.147226 -0.000710 0.000000 0.155622 0.001743 0.000000 0.144647 0.001119 0.000000 0.154584 -0.001292 0.000000 0.147693 0.002210 0.000000 0.150059 -0.002345 0.000000 0.152871 0.001133 0.000000 0.147104 -0.000006 0.000000 0.153126 -0.001594 0.000000 0.150109 0.001667 0.000000 0.149576 -0.002483 0.000000 0.155075 0.001325 0.000000 0.146587 -0.000601 0.000000 0.156470 -0.001608 0.000000 0.149786 0.001306 0.000000 0.153719 -0.002427 0.000000 0.154631 0.001303 0.000000 0.151047 -0.001087 0.000000 0.156811 -0.001648 0.000000 0.154221 0.000894 0.000000 0.154569 -0.002736 0.000000 0.158962 0.000783 0.000000 0.152155 -0.002528 0.000000 0.162174 -0.002282 0.000000 0.154840 -0.000302 0.000000 0.160377 -0.005511 0.000000 0.161983 -0.001953 0.000000 0.159870 -0.001875 0.000000 0.164374 0.001657 0.000000 0.159768 0.004220 0.000000 0.160202 -0.000445 0.000000 0.163487 0.003080 0.000000 0.156652 0.000881 0.000000 0.164475 0.000433 0.000000 0.156971 0.001913 0.000000 0.162014 -0.001312 0.000000 0.159839 0.001559 0.000000 0.159093 -0.001136 0.000000 0.162230 0.000364 0.000000 0.157947 0.000899 0.000000 0.160706 -0.001534 0.000000 0.160561 0.001581 0.000000 0.157518 -0.001496 0.000000 0.163302 0.001108 0.000000 0.155012 0.000397 0.000000 0.162700 -0.001266 0.000000 0.157108 0.001679 0.000000 0.159378 -0.001546 0.000000 0.159935 0.001600 0.000000 0.156071 -0.000107 0.000000 0.160346 -0.000947 0.000000 0.157557 0.001649 0.000000 0.157150 -0.001536 0.000000 0.160362 0.001834 0.000000 0.153485 -0.000615 0.000000 0.161681 -0.000579 0.000000 0.154262 0.001455 0.000000 0.158906 -0.001530 0.000000 0.157079 0.001832 0.000000 0.155355 -0.001085 0.000000 0.159273 -0.000080 0.000000 0.155259 0.001257 0.000000 0.156991 -0.001465 0.000000 0.158017 0.001770 0.000000 0.153653 -0.001375 0.000000 0.160728 0.000540 0.000000 0.152467 0.000938 0.000000 0.159132 -0.001524 0.000000 0.155330 0.001714 0.000000 0.155885 -0.001572 0.000000 0.158333 0.000982 0.000000 0.153925 0.000586 0.000000 0.157387 -0.001495 0.000000 0.156731 0.001696 0.000000 0.154190 -0.001606 0.000000 0.159835 0.001300 0.000000 0.151730 0.000314 0.000000 0.159455 -0.001367 0.000000 0.154336 0.001685 0.000000 0.156447 -0.001564 0.000000 0.157459 0.002082 0.000000 0.152876 0.000552 0.000000 0.156913 -0.001565 0.000000 0.156723 -0.001192 0.000000 0.160646 -0.000021 0.000000 0.160176 0.018993 0.000000 0.130037 0.032642 0.000000 0.105800 0.030339 0.000000 0.080391 0.028743 0.000000 0.057972 0.029736 0.000000 0.028333 0.036465 0.000000 
0.003733 0.088733 0.000000 -0.033418 0.123046 0.000000 -0.091207 0.170027 0.000000 -0.167484 0.214798 0.000000 -0.269881 0.235553 0.000000 -0.372919 0.176370 0.000000 -0.384329 0.025880 0.000000 -0.310834 0.009457 0.000000 -0.349363 0.040900 0.000000 -0.261875 0.065905 0.000000 -0.281109 0.151242 0.000000 -0.191033 0.091922 0.000000 -0.031505 0.301673 0.000000 -0.057039 0.292733 0.000000 -0.030986 -0.111403 0.000000 0.149448 0.050861 0.000000 0.095751 0.067447 0.000000 0.106214 -0.079197 0.000000 0.204416 0.066113 0.000000 -0.110813 -0.257455 0.000000 0.032234 -0.328788 0.000000 -0.082735 0.057128 0.000000 -0.375339 -0.340650 0.000000 -0.145175 -0.109179 0.000000 -0.452868 0.009965 0.000000 -0.216835 -0.237466 0.000000 -0.249782 0.158983 0.000000 -0.416374 -0.163758 0.000000 -0.112932 0.012463 0.000000 -0.438818 0.021194 0.000000 -0.152617 -0.151636 0.000000 -0.288796 0.142306 0.000000 -0.336047 -0.173405 0.000000 -0.103167 0.040932 0.000000 -0.384562 0.003951 0.000000 -0.115822 -0.104856 0.000000 -0.289287 0.120070 0.000000 -0.267769 -0.182889 0.000000 -0.088184 0.061900 0.000000 -0.339201 -0.015357 0.000000 -0.080539 -0.071162 0.000000 -0.278155 0.094456 0.000000 -0.199351 -0.175607 0.000000 -0.083661 0.074827 0.000000 -0.290207 -0.032019 0.000000 -0.057117 -0.045203 0.000000 -0.254833 0.069678 0.000000 -0.143324 -0.156288 0.000000 -0.082759 0.081501 0.000000 -0.245395 -0.047471 0.000000 -0.037819 -0.024558 0.000000 -0.229226 0.046632 0.000000 -0.094437 -0.127752 0.000000 -0.090254 0.083160 0.000000 -0.199741 -0.062233 0.000000 -0.025111 -0.006848 0.000000 -0.199347 0.026772 0.000000 -0.057207 -0.092819 0.000000 -0.102679 0.078513 0.000000 -0.158070 -0.081438 0.000000 -0.015679 0.011843 0.000000 -0.182914 0.008649 0.000000 -0.032682 -0.092875 0.000000 -0.095131 0.062106 0.000000 -0.121334 -0.053949 0.000000 -0.034719 0.033847 0.000000 -0.157566 -0.015366 0.000000 -0.009491 -0.048118 0.000000 -0.107370 0.061180 0.000000 -0.082045 -0.085315 0.000000 -0.005854 0.031842 0.000000 -0.123313 -0.009444 0.000000 0.003504 -0.029286 0.000000 -0.097817 0.042584 0.000000 -0.047273 -0.081992 0.000000 -0.004875 0.037306 0.000000 -0.097958 -0.017845 0.000000 0.013537 -0.017858 0.000000 -0.084651 0.030345 0.000000 -0.021428 -0.069439 0.000000 -0.007303 0.040580 0.000000 -0.075111 -0.026472 0.000000 0.022024 -0.008630 0.000000 -0.070995 0.018937 0.000000 0.001184 -0.052966 0.000000 -0.014334 0.040829 0.000000 -0.051126 -0.036223 0.000000 0.027518 -0.000307 0.000000 -0.056413 0.010345 0.000000 0.016140 -0.037730 0.000000 -0.019724 0.037482 0.000000 -0.031521 -0.044886 0.000000 0.030330 0.007896 0.000000 -0.050766 0.002234 0.000000 0.025082 -0.042659 0.000000 -0.014011 0.027518 0.000000 -0.017614 -0.026168 0.000000 0.015035 0.019103 0.000000 -0.037212 -0.007280 0.000000 0.033701 -0.019678 0.000000 -0.016504 0.028200 0.000000 0.004294 -0.037938 0.000000 0.031729 0.016643 0.000000 -0.018256 -0.005517 0.000000 0.040586 -0.011987 0.000000 -0.009353 0.018247 0.000000 0.021503 -0.035790 0.000000 0.031186 0.018248 0.000000 -0.004844 -0.010101 0.000000 0.044397 -0.007200 0.000000 -0.001849 0.012494 0.000000 0.032208 -0.028903 0.000000 0.028826 0.019631 0.000000 0.005662 -0.014737 0.000000 0.047843 -0.002970 0.000000 0.004121 0.007560 0.000000 0.041331 -0.021270 0.000000 0.024435 0.019017 0.000000 0.017531 -0.020018 0.000000 0.049485 0.000346 0.000000 0.011412 0.003612 0.000000 0.046910 -0.016688 0.000000 0.024641 0.016251 0.000000 0.026544 -0.023263 0.000000 0.050164 0.003152 0.000000 0.014004 -0.000334 0.000000 0.050157 -0.019396 0.000000 0.024315 0.010720 0.000000 0.028915 -0.014799 0.000000 0.040577 0.011443 0.000000 0.018563 0.000916 0.000000 0.049889 -0.007770 0.000000 0.026615 0.013827 0.000000 0.039911 -0.014410 0.000000 0.047437 0.008362 0.000000 0.028442 -0.001528 0.000000 0.053522 -0.005193 0.000000 0.030647 0.008274 0.000000 0.046934 -0.014354 0.000000 0.045776 0.007627 0.000000 0.035031 -0.004387 0.000000 0.053506 -0.004200 0.000000 0.035402 0.005094 0.000000 0.050328 -0.011697 0.000000 0.045482 0.007363 0.000000 0.040711 -0.007132 0.000000 0.055865 -0.003116 0.000000 0.039558 0.002914 0.000000 0.055336 -0.009489 0.000000 0.046094 0.006742 0.000000 0.048252 -0.008610 0.000000 0.057238 -0.001771 0.000000 0.045160 0.001559 0.000000 0.058155 -0.008003 0.000000 0.048627 0.005801 0.000000 0.052061 -0.010201 0.000000 0.058020 -0.000725 0.000000 0.045374 0.000234 0.000000 0.058689 -0.010624 0.000000 0.045976 0.001571 0.000000 0.049397 -0.006884 0.000000 0.051459 0.006292 0.000000 0.046608 0.004774 0.000000 0.056632 -0.003484 0.000000 0.049692 0.007425 0.000000 0.055773 -0.003279 0.000000 0.056297 0.003168 0.000000 0.052168 0.001505 0.000000 0.059659 -0.002759 0.000000 0.051828 0.004461 0.000000 0.058554 -0.004983 0.000000 0.055161 0.002822 0.000000 0.054614 -0.000259 0.000000 0.058505 -0.003008 0.000000 0.053750 0.003445 0.000000 0.058156 -0.004931 0.000000 0.055747 0.002957 0.000000 0.055778 -0.001456 0.000000 0.059252 -0.003105 0.000000 0.055057 0.002668 0.000000 0.059810 -0.004785 0.000000 0.056327 0.002676 0.000000 0.059045 -0.002341 0.000000 0.059319 -0.003138 0.000000 0.058386 0.001939 0.000000 0.060256 -0.005069 0.000000 0.058699 0.001916 0.000000 0.059790 -0.004317 0.000000 0.059940 -0.003449 0.000000 0.057357 0.000461 0.000000 0.059873 -0.009219 0.000000 0.056644 -0.001467 0.000000 0.055849 -0.002725 0.000000 0.054831 0.001733 0.000000 0.058780 0.005937 0.000000 0.058980 -0.002522 0.000000 0.061058 0.004644 0.000000 0.061968 0.000406 0.000000 0.061794 0.000196 0.000000 0.063628 0.002992 0.000000 0.063111 -0.002640 0.000000 0.062920 0.002871 0.000000 0.064503 -0.002225 0.000000 0.061923 0.000944 0.000000 0.064638 0.001548 0.000000 0.062553 -0.002711 0.000000 0.063138 0.003057 0.000000 0.063474 -0.002759 0.000000 0.061948 0.002348 0.000000 0.063249 0.000578 0.000000 0.062672 -0.002180 0.000000 0.061466 0.003237 0.000000 0.063518 -0.002856 0.000000 0.060314 0.003212 0.000000 0.063281 -0.000421 0.000000 0.061103 -0.001550 0.000000 0.061420 0.003150 0.000000 0.062020 -0.002838 0.000000 0.060303 0.003599 0.000000 0.061914 -0.001345 0.000000 0.060939 -0.000832 0.000000 0.060184 0.002737 0.000000 0.061958 -0.002849 0.000000 0.059101 0.003515 0.000000 0.062113 -0.002205 0.000000 0.059389 0.000076 0.000000 0.060770 0.002287 0.000000 0.060497 -0.002755 0.000000 0.059708 0.003344 0.000000 0.060911 -0.002692 0.000000 0.059579 0.001188 0.000000 0.060147 0.001602 0.000000 0.060596 -0.002862 0.000000 0.059079 0.003237 0.000000 0.061182 -0.003009 0.000000 0.058674 0.001949 0.000000 0.060973 0.000940 0.000000 0.059365 -0.002812 0.000000 0.060013 0.003192 0.000000 0.060095 -0.003104 0.000000 0.059441 0.002460 0.000000 0.060442 0.000384 0.000000 0.059642 -0.002600 0.000000 0.059782 0.003017 0.000000 0.060332 -0.003110 0.000000 0.059220 0.003580 0.000000 0.061177 0.000557 0.000000 0.059194 -0.003842 0.000000 0.060529 -0.003736 0.000000 0.059614 -0.003456 0.000000 0.063220 0.030594 0.000000 0.069632 0.054361 0.000000 0.068600 0.049638 0.000000 0.063634 0.047822 0.000000 0.050295 0.052055 0.000000 0.032851 0.065192 0.000000 
0.052767 0.114269 0.000000 0.035303 0.160770 0.000000 0.015922 0.221545 0.000000 -0.010392 0.287266 0.000000 -0.038701 0.320532 0.000000 -0.079887 0.207481 0.000000 -0.043545 -0.041839 0.000000 -0.011541 -0.026950 0.000000 -0.026051 -0.030521 0.000000 0.015859 -0.038981 0.000000 0.056344 -0.006736 0.000000 0.121659 -0.201906 0.000000 0.212595 -0.040749 0.000000 0.231663 0.097575 0.000000 0.247946 -0.223344 0.000000 0.123612 -0.074917 0.000000 0.298111 0.103397 0.000000 0.189793 -0.138635 0.000000 0.224665 0.248606 0.000000 0.258167 0.023011 0.000000 -0.032131 -0.151810 0.000000 0.338105 0.442402 0.000000 0.076200 -0.130606 0.000000 0.131023 0.036638 0.000000 -0.037732 0.084671 0.000000 0.018504 -0.319115 0.000000 0.013457 0.265604 0.000000 -0.058505 -0.209720 0.000000 0.024513 0.024927 0.000000 -0.070928 0.052458 0.000000 0.004927 -0.228037 0.000000 -0.036390 0.245051 0.000000 -0.063409 -0.267209 0.000000 0.005489 0.067319 0.000000 -0.070264 0.014105 0.000000 0.001456 -0.148388 0.000000 -0.053138 0.203427 0.000000 -0.056941 -0.286665 0.000000 -0.000344 0.098987 0.000000 -0.069509 -0.014993 0.000000 0.002294 -0.097222 0.000000 -0.062204 0.160256 0.000000 -0.042407 -0.277283 0.000000 -0.008758 0.123803 0.000000 -0.064514 -0.042294 0.000000 -0.002115 -0.058120 0.000000 -0.063259 0.117131 0.000000 -0.033173 -0.245969 0.000000 -0.015091 0.137346 0.000000 -0.063611 -0.068133 0.000000 -0.003893 -0.028343 0.000000 -0.066402 0.077682 0.000000 -0.022459 -0.199583 0.000000 -0.027330 0.141188 0.000000 -0.056950 -0.095113 0.000000 -0.008239 -0.003434 0.000000 -0.061449 0.044306 0.000000 -0.016480 -0.141255 0.000000 -0.035326 0.134624 0.000000 -0.052277 -0.126012 0.000000 -0.010336 0.029303 0.000000 -0.063841 0.019505 0.000000 -0.014398 -0.133771 0.000000 -0.048074 0.114409 0.000000 -0.053115 -0.083861 0.000000 -0.031231 0.053501 0.000000 -0.063935 -0.031603 0.000000 -0.017599 -0.072333 0.000000 -0.051757 0.099413 0.000000 -0.038614 -0.140258 0.000000 -0.018626 0.055957 0.000000 -0.053220 -0.014677 0.000000 -0.012355 -0.039563 0.000000 -0.051373 0.069610 0.000000 -0.027814 -0.130836 0.000000 -0.023822 0.067090 0.000000 -0.047193 -0.027792 0.000000 -0.015351 -0.021803 0.000000 -0.048956 0.048622 0.000000 -0.024568 -0.109442 0.000000 -0.027113 0.071605 0.000000 -0.044941 -0.042457 0.000000 -0.015543 -0.007893 0.000000 -0.049598 0.029449 0.000000 -0.019419 -0.081315 0.000000 -0.035513 0.070413 0.000000 -0.038526 -0.059094 0.000000 -0.020287 0.005507 0.000000 -0.046056 0.015849 0.000000 -0.020483 -0.054670 0.000000 -0.039586 0.064172 0.000000 -0.037046 -0.071358 0.000000 -0.023280 0.022232 0.000000 -0.049760 0.005080 0.000000 -0.020964 -0.057822 0.000000 -0.047990 0.053840 0.000000 -0.040623 -0.040605 0.000000 -0.039189 0.029677 0.000000 -0.047403 -0.021064 0.000000 -0.024562 -0.029037 0.000000 -0.045501 0.042465 0.000000 -0.029586 -0.064688 0.000000 -0.028537 0.030544 0.000000 -0.040437 -0.011685 0.000000 -0.020726 -0.014436 0.000000 -0.043549 0.027352 0.000000 -0.023006 -0.056844 0.000000 -0.032490 0.034348 0.000000 -0.035184 -0.018405 0.000000 -0.023902 -0.006442 0.000000 -0.040288 0.017793 0.000000 -0.023424 -0.044096 0.000000 -0.033805 0.035126 0.000000 -0.033981 -0.026191 0.000000 -0.023693 0.000152 0.000000 -0.040407 0.009787 0.000000 -0.021081 -0.030438 0.000000 -0.038474 0.032149 0.000000 -0.028535 -0.034436 0.000000 -0.027619 0.006174 0.000000 -0.036683 0.003823 0.000000 -0.023592 -0.021483 0.000000 -0.038280 0.027344 0.000000 -0.028888 -0.036739 0.000000 -0.029945 0.013280 0.000000 -0.039917 -0.001067 0.000000 -0.024500 -0.020569 0.000000 -0.046595 0.024827 0.000000 -0.035599 -0.023071 0.000000 -0.042381 0.016571 0.000000 -0.038169 -0.007749 0.000000 -0.029621 -0.010810 0.000000 -0.041190 0.016959 0.000000 -0.026611 -0.026539 0.000000 -0.033228 0.015534 0.000000 -0.032937 -0.006673 0.000000 -0.025366 -0.004623 0.000000 -0.037890 0.010371 0.000000 -0.022310 -0.021715 0.000000 -0.035863 0.015065 0.000000 -0.028282 -0.009904 0.000000 -0.028830 -0.002491 0.000000 -0.034078 0.005446 0.000000 -0.024754 -0.015703 0.000000 -0.035342 0.012755 0.000000 -0.027708 -0.013728 0.000000 -0.028705 -0.000443 0.000000 -0.034294 0.001777 0.000000 -0.023549 -0.011205 0.000000 -0.037798 0.010074 0.000000 -0.023621 -0.015137 0.000000 -0.032424 0.002069 0.000000 -0.030794 -0.000356 0.000000 -0.026607 -0.007615 0.000000 -0.036133 0.008549 0.000000 -0.025535 -0.014556 0.000000 -0.034111 0.005677 0.000000 -0.034066 -0.001175 0.000000 -0.027540 -0.006767 0.000000 -0.044124 0.008726 0.000000 -0.034069 -0.009008 0.000000 -0.044368 0.006584 0.000000 -0.032123 -0.001607 0.000000 -0.033016 -0.003880 0.000000 -0.037668 0.005167 0.000000 -0.025922 -0.007315 0.000000 -0.035553 0.005348 0.000000 -0.028277 -0.002243 0.000000 -0.028548 -0.000952 0.000000 -0.034153 0.003314 0.000000 -0.022948 -0.005677 0.000000 -0.037080 0.005073 0.000000 -0.024210 -0.003350 0.000000 -0.031824 -0.000730 0.000000 -0.030506 0.002016 0.000000 -0.026106 -0.004480 0.000000 -0.035090 0.003704 0.000000 -0.024708 -0.004106 0.000000 -0.031426 -0.000888 0.000000 -0.030947 0.000748 0.000000 -0.025344 -0.003697 0.000000 -0.036496 0.002068 0.000000 -0.021836 -0.004079 0.000000 -0.034852 -0.000989 0.000000 -0.027655 -0.000043 0.000000 -0.028818 -0.003048 0.000000 -0.034240 0.001249 0.000000 -0.024807 -0.003769 0.000000 -0.036184 0.000151 0.000000 -0.031007 -0.000236 0.000000 -0.030753 -0.004798 0.000000 -0.041931 0.002071 0.000000 -0.033318 -0.000062 0.000000 -0.046178 -0.001274 0.000000 -0.029478 0.000070 0.000000 -0.035252 -0.002723 0.000000 -0.034862 0.000092 0.000000 -0.026338 0.000145 0.000000 -0.036208 -0.001227 0.000000 -0.025188 0.000596 0.000000 -0.030512 -0.000604 0.000000 -0.031427 0.000167 0.000000 -0.023714 -0.000138 0.000000 -0.037006 0.000229 0.000000 -0.021710 0.000268 0.000000 -0.033716 -0.000034 0.000000 -0.028512 0.000660 0.000000 -0.027060 -0.000307 0.000000 -0.034978 0.001333 0.000000 -0.023339 -0.000327 0.000000 -0.033186 0.000517 0.000000 -0.029689 0.000834 0.000000 -0.026364 -0.000394 0.000000 -0.036309 0.001837 0.000000 -0.021323 -0.000896 0.000000 -0.036169 0.000914 0.000000 -0.026692 0.000732 0.000000 -0.029423 -0.000418 0.000000 -0.033267 0.001940 0.000000 -0.023554 -0.001251 0.000000 -0.034886 0.001151 0.000000 -0.027437 0.000436 0.000000 -0.028732 -0.000448 0.000000 -0.034032 0.001677 0.000000 -0.022605 -0.001372 0.000000 -0.037609 0.001263 0.000000 -0.024320 0.000149 0.000000 -0.032218 -0.000403 0.000000 -0.030751 0.001355 0.000000 -0.025931 -0.001245 0.000000 -0.035692 0.001305 0.000000 -0.024865 -0.000079 0.000000 -0.031774 -0.000456 0.000000 -0.031400 0.001128 0.000000 -0.025300 -0.001167 0.000000 -0.037232 0.001191 0.000000 -0.022051 -0.000105 0.000000 -0.035024 -0.000535 0.000000 -0.028163 0.000966 0.000000 -0.028380 -0.001034 0.000000 -0.034363 0.000953 0.000000 -0.023442 0.000114 0.000000 -0.033849 -0.000707 0.000000 -0.028629 0.000995 0.000000 -0.027537 -0.001002 0.000000 -0.034842 0.001237 0.000000 -0.020042 0.000579 0.000000 -0.034906 -0.000917 0.000000 -0.027722 -0.001613 0.000000 -0.040686 -0.002711 0.000000 -0.030532 0.008975 0.000000 0.019210 0.027261 0.000000 0.051004 0.036336 0.000000 0.066245 0.047048 0.000000 0.070021 0.060520 0.000000 0.063596 0.083027 0.000000 