# vtk DataFile Version 2.0
Comment goes here
ASCII

DATASET STRUCTURED_POINTS
FIELD FieldData 1
TIME 1 1 double
1.10000000
DIMENSIONS    512   128   1

ORIGIN    0.000   0.000   0.000
SPACING   0.0019531 0.0019531   1.000

POINT_DATA   65536
SCALARS uMag double
LOOKUP_TABLE default

6.203013e-02 4.762622e-02 3.516625e-02 3.102798e-02 2.908654e-02 4.808585e-02 5.347142e-02 7.643865e-02 8.073537e-02 1.030776e-01 1.044089e-01 1.252686e-01 1.227135e-01 1.412847e-01 1.336179e-01 1.484719e-01 1.337682e-01 1.427063e-01 1.184514e-01 1.189958e-01 8.329207e-02 7.467788e-02 3.394206e-02 3.076904e-02 6.253003e-02 8.051735e-02 1.315995e-01 1.401435e-01 1.817321e-01 1.747434e-01 2.029585e-01 1.811344e-01 1.976431e-01 1.643211e-01 1.722792e-01 1.309819e-01 1.328247e-01 8.618472e-02 8.313620e-02 3.408668e-02 2.663979e-02 2.946169e-02 4.086159e-02 9.239049e-02 1.098683e-01 1.605120e-01 1.834866e-01 2.319145e-01 2.595692e-01 3.045731e-01 3.356025e-01 3.761374e-01 4.090522e-01 4.436722e-01 4.769030e-01 5.045765e-01 5.372915e-01 5.578869e-01 5.892453e-01 6.032579e-01 6.327409e-01 6.413891e-01 6.686428e-01 6.730537e-01 6.979179e-01 6.991773e-01 7.217950e-01 7.205906e-01 7.411214e-01 7.379338e-01 7.566683e-01 7.518509e-01 7.688950e-01 7.627181e-01 7.781326e-01 7.708965e-01 7.846440e-01 7.765522e-01 7.885914e-01 7.798525e-01 7.901913e-01 7.809548e-01 7.896487e-01 7.800766e-01 7.872753e-01 7.775364e-01 7.834350e-01 7.736776e-01 7.784706e-01 7.687922e-01 7.726735e-01 7.631741e-01 7.663042e-01 7.570260e-01 7.594829e-01 7.504981e-01 7.523613e-01 7.437141e-01 7.450001e-01 7.366841e-01 7.374860e-01 7.294856e-01 7.298798e-01 7.220988e-01 7.221735e-01 7.145879e-01 7.144186e-01 7.069770e-01 7.065514e-01 6.992899e-01 6.986223e-01 6.915753e-01 6.906149e-01 6.837758e-01 6.825768e-01 6.759393e-01 6.745444e-01 6.680099e-01 6.664887e-01 6.600397e-01 6.584540e-01 6.520395e-01 6.503580e-01 6.440262e-01 6.422475e-01 6.360458e-01 6.340957e-01 6.280300e-01 6.259475e-01 6.200254e-01 6.178376e-01 6.119635e-01 6.097343e-01 6.038945e-01 6.016834e-01 5.958252e-01 5.935946e-01 5.877710e-01 5.855144e-01 5.797791e-01 5.774093e-01 5.717759e-01 5.693230e-01 5.638084e-01 5.612892e-01 5.557993e-01 5.532762e-01 5.477983e-01 5.453328e-01 5.398099e-01 5.373633e-01 5.318499e-01 5.294151e-01 5.239678e-01 5.214495e-01 5.160866e-01 5.135088e-01 5.082548e-01 5.056268e-01 5.003880e-01 4.977720e-01 4.925355e-01 4.899965e-01 4.847006e-01 4.822007e-01 4.768999e-01 4.744334e-01 4.691854e-01 4.666514e-01 4.614784e-01 4.588961e-01 4.538285e-01 4.512011e-01 4.461458e-01 4.435356e-01 4.384790e-01 4.359547e-01 4.308305e-01 4.283563e-01 4.232176e-01 4.207905e-01 4.156958e-01 4.132104e-01 4.081844e-01 4.056558e-01 4.007350e-01 3.981610e-01 3.932524e-01 3.906952e-01 3.857849e-01 3.833171e-01 3.783339e-01 3.759222e-01 3.709176e-01 3.685625e-01 3.635946e-01 3.611873e-01 3.562833e-01 3.538348e-01 3.490371e-01 3.465401e-01 3.417561e-01 3.392726e-01 3.344880e-01 3.320943e-01 3.272335e-01 3.248992e-01 3.200114e-01 3.177414e-01 3.128839e-01 3.105663e-01 3.057688e-01 3.034111e-01 2.987218e-01 2.963117e-01 2.916388e-01 2.892378e-01 2.845672e-01 2.822550e-01 2.775064e-01 2.752553e-01 2.704750e-01 2.682942e-01 2.635371e-01 2.613112e-01 2.566071e-01 2.543386e-01 2.497388e-01 2.474071e-01 2.428169e-01 2.404770e-01 2.358785e-01 2.336042e-01 2.289073e-01 2.266619e-01 2.219020e-01 2.196881e-01 2.149071e-01 2.125997e-01 2.078146e-01 2.054128e-01 2.006713e-01 1.981625e-01 1.933807e-01 1.908366e-01 1.860326e-01 1.835685e-01 1.787142e-01 1.763606e-01 1.715495e-01 1.693907e-01 1.647349e-01 1.627096e-01 1.583068e-01 1.564089e-01 1.523135e-01 1.504291e-01 1.464547e-01 1.446488e-01 1.407675e-01 1.391428e-01 1.351875e-01 1.336190e-01 1.295195e-01 1.279296e-01 1.236724e-01 1.219067e-01 1.175298e-01 1.156032e-01 1.112198e-01 1.091593e-01 1.047463e-01 1.026474e-01 9.824350e-02 9.621941e-02 9.176969e-02 8.981765e-02 8.536414e-02 8.351981e-02 7.910558e-02 7.725391e-02 7.290820e-02 7.103806e-02 6.682877e-02 6.490124e-02 6.074040e-02 5.880256e-02 5.467627e-02 5.281543e-02 4.861880e-02 4.682101e-02 4.257088e-02 4.087216e-02 3.660416e-02 3.488371e-02 3.063797e-02 2.887999e-02 2.474427e-02 2.290509e-02 1.880690e-02 1.693515e-02 1.287096e-02 1.106158e-02 6.926824e-03 5.175312e-03 9.830192e-04 6.647447e-04 4.882038e-03 6.544511e-03 1.074474e-02 1.244027e-02 1.652949e-02 1.830685e-02 2.235270e-02 2.416657e-02 2.816919e-02 2.992391e-02 3.399099e-02 3.568741e-02 3.981208e-02 4.139872e-02 4.555357e-02 4.714819e-02 5.129127e-02 5.291535e-02 5.694836e-02 5.865616e-02 6.264230e-02 6.439228e-02 6.832808e-02 7.002451e-02 7.402022e-02 7.566013e-02 7.971465e-02 8.124065e-02 8.533155e-02 8.685975e-02 9.094529e-02 9.249952e-02 9.647741e-02 9.811727e-02 1.020458e-01 1.037339e-01 1.076055e-01 1.092469e-01 1.131739e-01 1.147616e-01 1.187485e-01 1.202190e-01 1.242485e-01 1.257154e-01 1.297461e-01 1.312349e-01 1.351610e-01 1.367366e-01 1.406111e-01 1.422409e-01 1.460517e-01 1.476426e-01 1.515038e-01 1.530447e-01 1.569664e-01 1.583876e-01 1.623579e-01 1.637694e-01 1.677477e-01 1.691759e-01 1.730530e-01 1.745681e-01 1.783912e-01 1.799663e-01 1.837183e-01 1.852632e-01 1.890599e-01 1.905596e-01 1.944168e-01 1.957947e-01 1.997064e-01 2.010683e-01 2.049946e-01 2.063670e-01 2.101954e-01 2.116538e-01 2.154253e-01 2.169491e-01 2.206409e-01 2.221445e-01 2.258742e-01 2.273386e-01 2.311276e-01 2.324692e-01 2.363178e-01 2.376373e-01 2.415066e-01 2.428295e-01 2.466041e-01 2.480110e-01 2.517247e-01 2.532022e-01 2.568262e-01 2.582947e-01 2.619477e-01 2.633846e-01 2.670936e-01 2.684086e-01 2.721804e-01 2.734682e-01 2.772654e-01 2.785500e-01 2.822546e-01 2.836212e-01 2.872600e-01 2.887021e-01 2.922400e-01 2.936839e-01 2.972398e-01 2.986602e-01 3.022656e-01 3.035664e-01 3.072344e-01 3.085047e-01 3.121995e-01 3.134613e-01 3.170627e-01 3.184054e-01 3.219332e-01 3.233568e-01 3.267692e-01 3.282061e-01 3.316209e-01 3.330436e-01 3.364954e-01 3.378029e-01 3.413103e-01 3.425864e-01 3.461149e-01 3.473790e-01 3.508065e-01 3.521518e-01 3.554902e-01 3.569229e-01 3.601232e-01 3.615816e-01 3.647581e-01 3.662129e-01 3.694014e-01 3.707478e-01 3.739700e-01 3.752859e-01 3.785074e-01 3.798092e-01 3.829045e-01 3.842873e-01 3.872588e-01 3.887338e-01 3.915224e-01 3.930322e-01 3.957437e-01 3.972563e-01 3.999217e-01 4.013261e-01 4.039623e-01 4.053263e-01 4.078901e-01 4.092197e-01 4.115699e-01 4.129480e-01 4.150592e-01 4.164815e-01 4.182556e-01 4.196328e-01 4.211170e-01 4.223597e-01 4.234992e-01 4.243974e-01 4.250665e-01 4.255185e-01 4.254488e-01 4.251828e-01 4.238626e-01 4.225036e-01 4.193264e-01 4.161722e-01 4.101877e-01 4.041717e-01 3.943691e-01 3.843865e-01 3.698582e-01 3.552205e-01 3.358755e-01 3.172304e-01 2.942089e-01 2.732134e-01 2.482485e-01 2.267473e-01 2.014834e-01 1.810363e-01 1.568084e-01 1.387187e-01 1.168205e-01 1.026301e-01 8.517378e-02 7.755356e-02 6.841569e-02 6.994276e-02 7.041586e-02 7.729275e-02 8.067378e-02 8.539365e-02 8.413096e-02 8.166476e-02 7.221756e-02 
6.886674e-02 5.599858e-02 4.581725e-02 3.689653e-02 3.047560e-02 4.009262e-02 4.168025e-02 6.184825e-02 6.442964e-02 8.594270e-02 8.635896e-02 1.070690e-01 1.039606e-01 1.227428e-01 1.147663e-01 1.301973e-01 1.155727e-01 1.257551e-01 1.026826e-01 1.060548e-01 7.576773e-02 7.473702e-02 5.853285e-02 6.801604e-02 9.908504e-02 1.140449e-01 1.588054e-01 1.630819e-01 2.009624e-01 1.892194e-01 2.156938e-01 1.892202e-01 2.057558e-01 1.680353e-01 1.776806e-01 1.321451e-01 1.372206e-01 8.635525e-02 8.806475e-02 3.605857e-02 3.555214e-02 3.516481e-02 4.123481e-02 9.490703e-02 1.054495e-01 1.611611e-01 1.764203e-01 2.306538e-01 2.501562e-01 3.011297e-01 3.240414e-01 3.704268e-01 3.958102e-01 4.357439e-01 4.624856e-01 4.946737e-01 5.223964e-01 5.465541e-01 5.744371e-01 5.910114e-01 6.184297e-01 6.288005e-01 6.551239e-01 6.605257e-01 6.853060e-01 6.870139e-01 7.101805e-01 7.089793e-01 7.304870e-01 7.269559e-01 7.470003e-01 7.415707e-01 7.601394e-01 7.531394e-01 7.702274e-01 7.620355e-01 7.775385e-01 7.683909e-01 7.822199e-01 7.723677e-01 7.844998e-01 7.741065e-01 7.845612e-01 7.738059e-01 7.827094e-01 7.717833e-01 7.793075e-01 7.683791e-01 7.746958e-01 7.638746e-01 7.691722e-01 7.585772e-01 7.630193e-01 7.526888e-01 7.563527e-01 7.463702e-01 7.493507e-01 7.397636e-01 7.420693e-01 7.328717e-01 7.346133e-01 7.257979e-01 7.270531e-01 7.185061e-01 7.193773e-01 7.110811e-01 7.116598e-01 7.035416e-01 7.038154e-01 6.959162e-01 6.959164e-01 6.882686e-01 6.879287e-01 6.805235e-01 6.799121e-01 6.727523e-01 6.719064e-01 6.648741e-01 6.638730e-01 6.569592e-01 6.558773e-01 6.490087e-01 6.478102e-01 6.410418e-01 6.397404e-01 6.331189e-01 6.316197e-01 6.251508e-01 6.235057e-01 6.172087e-01 6.154354e-01 6.091962e-01 6.073662e-01 6.011826e-01 5.993668e-01 5.931632e-01 5.913181e-01 5.851559e-01 5.832898e-01 5.772226e-01 5.752262e-01 5.692678e-01 5.671834e-01 5.613646e-01 5.591973e-01 5.534062e-01 5.512253e-01 5.454619e-01 5.433401e-01 5.375246e-01 5.354163e-01 5.296121e-01 5.275256e-01 5.217892e-01 5.196065e-01 5.139565e-01 5.117138e-01 5.061895e-01 5.038830e-01 4.983736e-01 4.960718e-01 4.905781e-01 4.883568e-01 4.827942e-01 4.806084e-01 4.750403e-01 4.729006e-01 4.673846e-01 4.651669e-01 4.597248e-01 4.574607e-01 4.521390e-01 4.498177e-01 4.445061e-01 4.421957e-01 4.368953e-01 4.346753e-01 4.292966e-01 4.271235e-01 4.217289e-01 4.196169e-01 4.142640e-01 4.120845e-01 4.067975e-01 4.045783e-01 3.994103e-01 3.971344e-01 3.919755e-01 3.897103e-01 3.845619e-01 3.823908e-01 3.771586e-01 3.750404e-01 3.697851e-01 3.677381e-01 3.625167e-01 3.604092e-01 3.552477e-01 3.531038e-01 3.480617e-01 3.458587e-01 3.408269e-01 3.386315e-01 3.336116e-01 3.315110e-01 3.264044e-01 3.243599e-01 3.192251e-01 3.172603e-01 3.121532e-01 3.101337e-01 3.050823e-01 3.030289e-01 2.980991e-01 2.959842e-01 2.910678e-01 2.889573e-01 2.840569e-01 2.820413e-01 2.770542e-01 2.750971e-01 2.700790e-01 2.682094e-01 2.632136e-01 2.612937e-01 2.563475e-01 2.543937e-01 2.495653e-01 2.475416e-01 2.427188e-01 2.406828e-01 2.358635e-01 2.338961e-01 2.289675e-01 2.270174e-01 2.220215e-01 2.201047e-01 2.150774e-01 2.130424e-01 2.079876e-01 2.058431e-01 2.008169e-01 1.985410e-01 1.934416e-01 1.911079e-01 1.859803e-01 1.837247e-01 1.785505e-01 1.764155e-01 1.713055e-01 1.694206e-01 1.644874e-01 1.627827e-01 1.581445e-01 1.566126e-01 1.523275e-01 1.507372e-01 1.465357e-01 1.450126e-01 1.409675e-01 1.396950e-01 1.356003e-01 1.344040e-01 1.301517e-01 1.289346e-01 1.244742e-01 1.230306e-01 1.183973e-01 1.167587e-01 1.121023e-01 1.103116e-01 1.056125e-01 1.037784e-01 9.909972e-02 9.735103e-02 9.263353e-02 9.095513e-02 8.624791e-02 8.469275e-02 8.003601e-02 7.847041e-02 7.388181e-02 7.230693e-02 6.786782e-02 6.623314e-02 6.183557e-02 6.018762e-02 5.583465e-02 5.427058e-02 4.983985e-02 4.833142e-02 4.384765e-02 4.245167e-02 3.795182e-02 3.652710e-02 3.204598e-02 3.058916e-02 2.623718e-02 2.469758e-02 2.038944e-02 1.881829e-02 1.458081e-02 1.310133e-02 8.883062e-03 7.521287e-03 3.828986e-03 3.141104e-03 4.456561e-03 5.556887e-03 9.639821e-03 1.096316e-02 1.519721e-02 1.665453e-02 2.090337e-02 2.241585e-02 2.662356e-02 2.808672e-02 3.237600e-02 3.379093e-02 3.814043e-02 3.943119e-02 4.382394e-02 4.512701e-02 4.952035e-02 5.084122e-02 5.511844e-02 5.653252e-02 6.076876e-02 6.223132e-02 6.640124e-02 6.781097e-02 7.204725e-02 7.340921e-02 7.770180e-02 7.893507e-02 8.327119e-02 8.451091e-02 8.885194e-02 9.010645e-02 9.433217e-02 9.567999e-02 9.986235e-02 1.012641e-01 1.053737e-01 1.067285e-01 1.108989e-01 1.122092e-01 1.164364e-01 1.176152e-01 1.218909e-01 1.230705e-01 1.273575e-01 1.285479e-01 1.327227e-01 1.340067e-01 1.381363e-01 1.394799e-01 1.435302e-01 1.448343e-01 1.489400e-01 1.502037e-01 1.543666e-01 1.554968e-01 1.597134e-01 1.608385e-01 1.650731e-01 1.662039e-01 1.703299e-01 1.715537e-01 1.756328e-01 1.769214e-01 1.809141e-01 1.821720e-01 1.862139e-01 1.874367e-01 1.915353e-01 1.926231e-01 1.967808e-01 1.978573e-01 2.020397e-01 2.031155e-01 2.071931e-01 2.083604e-01 2.123886e-01 2.136256e-01 2.175591e-01 2.187756e-01 2.227511e-01 2.239389e-01 2.279695e-01 2.290219e-01 2.331164e-01 2.341515e-01 2.382767e-01 2.393039e-01 2.433278e-01 2.444439e-01 2.484150e-01 2.496056e-01 2.534720e-01 2.546536e-01 2.585528e-01 2.597139e-01 2.636645e-01 2.646914e-01 2.687088e-01 2.697138e-01 2.737664e-01 2.747566e-01 2.787105e-01 2.797871e-01 2.836837e-01 2.848391e-01 2.886200e-01 2.897777e-01 2.935802e-01 2.947258e-01 2.985727e-01 2.995870e-01 3.035003e-01 3.044897e-01 3.084394e-01 3.094086e-01 3.132592e-01 3.143133e-01 3.180991e-01 3.192371e-01 3.228929e-01 3.240450e-01 3.277065e-01 3.288562e-01 3.325492e-01 3.335728e-01 3.373250e-01 3.383231e-01 3.421058e-01 3.430803e-01 3.467565e-01 3.478161e-01 3.514123e-01 3.525621e-01 3.560058e-01 3.571826e-01 3.606057e-01 3.617913e-01 3.652205e-01 3.662876e-01 3.697539e-01 3.707972e-01 3.742719e-01 3.752902e-01 3.786334e-01 3.797369e-01 3.829658e-01 3.841648e-01 3.871970e-01 3.884327e-01 3.913913e-01 3.926432e-01 3.955502e-01 3.966860e-01 3.995668e-01 4.006712e-01 4.034891e-01 4.045509e-01 4.071511e-01 4.082679e-01 4.106409e-01 4.118091e-01 4.138353e-01 4.149652e-01 4.167105e-01 4.177277e-01 4.191323e-01 4.198106e-01 4.207603e-01 4.210229e-01 4.212657e-01 4.208369e-01 4.198597e-01 4.183923e-01 4.156226e-01 4.124335e-01 4.069138e-01 4.009335e-01 3.916610e-01 3.817797e-01 3.678116e-01 3.532880e-01 3.345041e-01 3.160141e-01 2.936099e-01 2.728800e-01 2.486578e-01 2.275926e-01 2.032589e-01 1.834807e-01 1.604540e-01 1.433511e-01 1.230275e-01 1.101529e-01 9.448959e-02 8.790560e-02 7.944011e-02 8.024396e-02 7.897443e-02 8.399941e-02 8.504228e-02 8.874212e-02 8.643985e-02 8.485495e-02 7.635064e-02 
7.689222e-02 6.457316e-02 5.688020e-02 4.461105e-02 3.715953e-02 3.431313e-02 3.128993e-02 4.413334e-02 4.425094e-02 6.298401e-02 6.212622e-02 8.142236e-02 7.766665e-02 9.566080e-02 8.763128e-02 1.029371e-01 8.936485e-02 1.007718e-01 8.183975e-02 8.980532e-02 7.348940e-02 8.390274e-02 9.212803e-02 1.096136e-01 1.426711e-01 1.573374e-01 1.948096e-01 1.955479e-01 2.253432e-01 2.099592e-01 2.297855e-01 2.013715e-01 2.129706e-01 1.754525e-01 1.815775e-01 1.385250e-01 1.410234e-01 9.555468e-02 9.537462e-02 5.667735e-02 5.637427e-02 5.848350e-02 6.572830e-02 1.064932e-01 1.206684e-01 1.683379e-01 1.887790e-01 2.360787e-01 2.615679e-01 3.058963e-01 3.350674e-01 3.753456e-01 4.065945e-01 4.408557e-01 4.723618e-01 4.993986e-01 5.308062e-01 5.505139e-01 5.808096e-01 5.936385e-01 6.223537e-01 6.299255e-01 6.565774e-01 6.599988e-01 6.843034e-01 6.848533e-01 7.070289e-01 7.052885e-01 7.254057e-01 7.218148e-01 7.403048e-01 7.351824e-01 7.520687e-01 7.456237e-01 7.609865e-01 7.535789e-01 7.673225e-01 7.590988e-01 7.711467e-01 7.623425e-01 7.726938e-01 7.634141e-01 7.720933e-01 7.624959e-01 7.696722e-01 7.599349e-01 7.658219e-01 7.561029e-01 7.608914e-01 7.512589e-01 7.551577e-01 7.457396e-01 7.489324e-01 7.397255e-01 7.422469e-01 7.333508e-01 7.353124e-01 7.267824e-01 7.281303e-01 7.199372e-01 7.208111e-01 7.129757e-01 7.134377e-01 7.057859e-01 7.059359e-01 6.984942e-01 6.984454e-01 6.911049e-01 6.907862e-01 6.836271e-01 6.830994e-01 6.761766e-01 6.753040e-01 6.685879e-01 6.674828e-01 6.610151e-01 6.597021e-01 6.532959e-01 6.518603e-01 6.455562e-01 6.441038e-01 6.377852e-01 6.362207e-01 6.299846e-01 6.283594e-01 6.222753e-01 6.204215e-01 6.144714e-01 6.124909e-01 6.067362e-01 6.046336e-01 5.988845e-01 5.967417e-01 5.910460e-01 5.889712e-01 5.832043e-01 5.810927e-01 5.753594e-01 5.732616e-01 5.676382e-01 5.653680e-01 5.598431e-01 5.574956e-01 5.521454e-01 5.497106e-01 5.443428e-01 5.419032e-01 5.365683e-01 5.342379e-01 5.288028e-01 5.264735e-01 5.210457e-01 5.187713e-01 5.134307e-01 5.110127e-01 5.057517e-01 5.032801e-01 4.981874e-01 4.956414e-01 4.905218e-01 4.879849e-01 4.828903e-01 4.804832e-01 4.752721e-01 4.728859e-01 4.676663e-01 4.653599e-01 4.602137e-01 4.577793e-01 4.527016e-01 4.502251e-01 4.453154e-01 4.427668e-01 4.378275e-01 4.352911e-01 4.303749e-01 4.279785e-01 4.229357e-01 4.205705e-01 4.155087e-01 4.132401e-01 4.082419e-01 4.058544e-01 4.009170e-01 3.984927e-01 3.937258e-01 3.912267e-01 3.864306e-01 3.839414e-01 3.791693e-01 3.768245e-01 3.719195e-01 3.696112e-01 3.646791e-01 3.624801e-01 3.576038e-01 3.552923e-01 3.504705e-01 3.481247e-01 3.434774e-01 3.410522e-01 3.363779e-01 3.339578e-01 3.293106e-01 3.270366e-01 3.222529e-01 3.200185e-01 3.152019e-01 3.130884e-01 3.083212e-01 3.061014e-01 3.013844e-01 2.991327e-01 2.945960e-01 2.922611e-01 2.877023e-01 2.853682e-01 2.808431e-01 2.786570e-01 2.739955e-01 2.718525e-01 2.671556e-01 2.651455e-01 2.604930e-01 2.583829e-01 2.537753e-01 2.516351e-01 2.472081e-01 2.449765e-01 2.405213e-01 2.382742e-01 2.338426e-01 2.317180e-01 2.271275e-01 2.250015e-01 2.203382e-01 2.182863e-01 2.136094e-01 2.113792e-01 2.066559e-01 2.043032e-01 1.996452e-01 1.971229e-01 1.923214e-01 1.897035e-01 1.848512e-01 1.823219e-01 1.773559e-01 1.748970e-01 1.699629e-01 1.677882e-01 1.630388e-01 1.610333e-01 1.566454e-01 1.549001e-01 1.510631e-01 1.492243e-01 1.454376e-01 1.437242e-01 1.402022e-01 1.389486e-01 1.353594e-01 1.341674e-01 1.303593e-01 1.291134e-01 1.250350e-01 1.234338e-01 1.191137e-01 1.172588e-01 1.129409e-01 1.108978e-01 1.065012e-01 1.044047e-01 1.000538e-01 9.809887e-02 9.368042e-02 9.178316e-02 8.737762e-02 8.566099e-02 8.133276e-02 7.956369e-02 7.529753e-02 7.351993e-02 6.947556e-02 6.761497e-02 6.358079e-02 6.169434e-02 5.772716e-02 5.598350e-02 5.189122e-02 5.018639e-02 4.602667e-02 4.449331e-02 4.034035e-02 3.873320e-02 3.459452e-02 3.294845e-02 2.902782e-02 2.728358e-02 2.339715e-02 2.161575e-02 1.784875e-02 1.625845e-02 1.254286e-02 1.110700e-02 7.836352e-03 6.935909e-03 5.851862e-03 6.146792e-03 8.462278e-03 9.597968e-03 1.304165e-02 1.458155e-02 1.829796e-02 1.997371e-02 2.368654e-02 2.532775e-02 2.921401e-02 3.083216e-02 3.480453e-02 3.623797e-02 4.028820e-02 4.177377e-02 4.585003e-02 4.733946e-02 5.124351e-02 5.287479e-02 5.676246e-02 5.846221e-02 6.224012e-02 6.385577e-02 6.775168e-02 6.933657e-02 7.329945e-02 7.468682e-02 7.870810e-02 8.013937e-02 8.418550e-02 8.561909e-02 8.948524e-02 9.105653e-02 9.490218e-02 9.654858e-02 1.002756e-01 1.018408e-01 1.056772e-01 1.072155e-01 1.111202e-01 1.124560e-01 1.164225e-01 1.177953e-01 1.217941e-01 1.231653e-01 1.269857e-01 1.284940e-01 1.322918e-01 1.338825e-01 1.375528e-01 1.390705e-01 1.428431e-01 1.443389e-01 1.481808e-01 1.494703e-01 1.533804e-01 1.546993e-01 1.586498e-01 1.599611e-01 1.637370e-01 1.651846e-01 1.689356e-01 1.704724e-01 1.740860e-01 1.755607e-01 1.792690e-01 1.807277e-01 1.845054e-01 1.857548e-01 1.896078e-01 1.908788e-01 1.947806e-01 1.960359e-01 1.997675e-01 2.011573e-01 2.048612e-01 2.063465e-01 2.099016e-01 2.113381e-01 2.149789e-01 2.164070e-01 2.201159e-01 2.213327e-01 2.251237e-01 2.263543e-01 2.302023e-01 2.314074e-01 2.350900e-01 2.364268e-01 2.400778e-01 2.415159e-01 2.450047e-01 2.464095e-01 2.499733e-01 2.513790e-01 2.550068e-01 2.562013e-01 2.599167e-01 2.611182e-01 2.648972e-01 2.660636e-01 2.696814e-01 2.709766e-01 2.745580e-01 2.759599e-01 2.793648e-01 2.807485e-01 2.842154e-01 2.856097e-01 2.891334e-01 2.903183e-01 2.939317e-01 2.951190e-01 2.987992e-01 2.999430e-01 3.034635e-01 3.047342e-01 3.082107e-01 3.095939e-01 3.128769e-01 3.142574e-01 3.175850e-01 3.189870e-01 3.223580e-01 3.235553e-01 3.270111e-01 3.282087e-01 3.317275e-01 3.328754e-01 3.362296e-01 3.375039e-01 3.407992e-01 3.421930e-01 3.452702e-01 3.466778e-01 3.497719e-01 3.512136e-01 3.543255e-01 3.555700e-01 3.587473e-01 3.599927e-01 3.632136e-01 3.644053e-01 3.674400e-01 3.687575e-01 3.717003e-01 3.731439e-01 3.758238e-01 3.772948e-01 3.799386e-01 3.814532e-01 3.840587e-01 3.853805e-01 3.879921e-01 3.893078e-01 3.918978e-01 3.931434e-01 3.954686e-01 3.968128e-01 3.989411e-01 4.003767e-01 4.021031e-01 4.035046e-01 4.050030e-01 4.063408e-01 4.075414e-01 4.084970e-01 4.093178e-01 4.099351e-01 4.101636e-01 4.101495e-01 4.092184e-01 4.083351e-01 4.057929e-01 4.034043e-01 3.982317e-01 3.932081e-01 3.844465e-01 3.756216e-01 3.621926e-01 3.485780e-01 3.302571e-01 3.126546e-01 2.908078e-01 2.711539e-01 2.477311e-01 2.280148e-01 2.047630e-01 1.865916e-01 1.649111e-01 1.496050e-01 1.308052e-01 1.196940e-01 1.053225e-01 9.976787e-02 9.127850e-02 9.154764e-02 8.843669e-02 9.212940e-02 9.093419e-02 9.407675e-02 9.059603e-02 9.008126e-02 8.185741e-02 
8.565756e-02 7.400686e-02 6.905563e-02 5.554572e-02 4.984405e-02 3.819686e-02 3.325671e-02 3.087232e-02 2.772962e-02 3.844683e-02 3.544875e-02 5.167894e-02 4.643751e-02 6.335213e-02 5.457467e-02 7.048007e-02 5.830651e-02 7.323658e-02 6.271987e-02 7.950789e-02 8.400819e-02 1.058095e-01 1.313561e-01 1.542080e-01 1.902816e-01 2.029828e-01 2.352563e-01 2.282529e-01 2.513548e-01 2.274773e-01 2.433579e-01 2.085494e-01 2.196373e-01 1.780970e-01 1.868135e-01 1.423630e-01 1.498852e-01 1.064112e-01 1.123167e-01 8.191531e-02 8.588188e-02 8.954916e-02 9.203436e-02 1.278690e-01 1.326414e-01 1.808527e-01 1.909992e-01 2.418119e-01 2.565455e-01 3.052401e-01 3.239403e-01 3.692215e-01 3.908689e-01 4.295001e-01 4.524296e-01 4.828880e-01 5.081022e-01 5.301199e-01 5.561235e-01 5.699321e-01 5.962339e-01 6.042336e-01 6.297694e-01 6.329693e-01 6.569588e-01 6.571612e-01 6.797453e-01 6.774055e-01 6.982626e-01 6.938879e-01 7.136279e-01 7.075748e-01 7.259470e-01 7.183773e-01 7.354735e-01 7.269486e-01 7.425313e-01 7.331197e-01 7.470348e-01 7.370785e-01 7.493090e-01 7.388501e-01 7.493330e-01 7.385390e-01 7.474499e-01 7.365353e-01 7.440837e-01 7.332438e-01 7.395772e-01 7.288461e-01 7.341911e-01 7.237757e-01 7.283572e-01 7.181680e-01 7.219549e-01 7.121534e-01 7.153469e-01 7.059994e-01 7.084174e-01 6.994604e-01 7.013491e-01 6.928842e-01 6.942661e-01 6.859725e-01 6.869807e-01 6.789945e-01 6.798179e-01 6.718983e-01 6.723708e-01 6.646774e-01 6.649756e-01 6.575792e-01 6.574021e-01 6.502328e-01 6.498152e-01 6.430148e-01 6.423250e-01 6.355399e-01 6.346972e-01 6.280948e-01 6.272856e-01 6.206020e-01 6.196225e-01 6.130446e-01 6.120708e-01 6.056860e-01 6.043673e-01 5.981160e-01 5.966836e-01 5.907398e-01 5.891303e-01 5.831293e-01 5.814599e-01 5.755855e-01 5.740494e-01 5.680209e-01 5.663981e-01 5.604149e-01 5.588882e-01 5.530458e-01 5.512366e-01 5.454800e-01 5.436167e-01 5.381443e-01 5.361402e-01 5.305801e-01 5.285542e-01 5.230982e-01 5.212542e-01 5.156066e-01 5.137167e-01 5.080822e-01 5.063388e-01 5.008170e-01 4.988231e-01 4.933609e-01 4.913422e-01 4.861577e-01 4.840105e-01 4.787260e-01 4.765704e-01 4.713822e-01 4.694333e-01 4.640326e-01 4.620579e-01 4.566513e-01 4.548543e-01 4.495437e-01 4.475141e-01 4.422464e-01 4.402067e-01 4.352180e-01 4.330510e-01 4.279583e-01 4.257843e-01 4.207869e-01 4.188320e-01 4.136099e-01 4.116386e-01 4.063980e-01 4.046260e-01 3.994698e-01 3.974761e-01 3.923507e-01 3.903542e-01 3.855124e-01 3.833848e-01 3.784387e-01 3.762997e-01 3.714514e-01 3.695372e-01 3.644568e-01 3.625300e-01 3.574218e-01 3.557111e-01 3.506781e-01 3.487536e-01 3.437417e-01 3.418185e-01 3.370963e-01 3.350366e-01 3.302123e-01 3.281344e-01 3.234128e-01 3.215625e-01 3.166053e-01 3.147438e-01 3.097525e-01 3.081224e-01 3.031995e-01 3.013637e-01 2.964547e-01 2.946246e-01 2.900139e-01 2.880437e-01 2.833365e-01 2.813428e-01 2.767475e-01 2.749854e-01 2.701568e-01 2.683861e-01 2.635226e-01 2.620004e-01 2.572021e-01 2.554841e-01 2.506943e-01 2.489879e-01 2.445003e-01 2.426501e-01 2.380598e-01 2.361726e-01 2.316845e-01 2.300050e-01 2.252627e-01 2.235203e-01 2.187025e-01 2.171323e-01 2.123186e-01 2.104511e-01 2.055276e-01 2.035367e-01 1.987546e-01 1.965248e-01 1.914718e-01 1.890776e-01 1.840006e-01 1.817538e-01 1.765092e-01 1.742905e-01 1.691066e-01 1.673574e-01 1.623762e-01 1.607905e-01 1.562113e-01 1.550442e-01 1.512282e-01 1.496432e-01 1.455997e-01 1.441070e-01 1.406108e-01 1.398934e-01 1.363298e-01 1.356579e-01 1.318454e-01 1.312098e-01 1.270371e-01 1.258536e-01 1.213045e-01 1.198107e-01 1.153420e-01 1.136118e-01 1.089928e-01 1.071822e-01 1.026788e-01 1.011099e-01 9.649283e-02 9.492887e-02 9.033794e-02 8.907091e-02 8.459913e-02 8.319907e-02 7.874568e-02 7.736922e-02 7.326310e-02 7.176430e-02 6.759000e-02 6.602854e-02 6.199384e-02 6.066833e-02 5.642864e-02 5.507387e-02 5.075359e-02 4.968953e-02 4.540740e-02 4.418127e-02 3.986282e-02 3.861229e-02 3.465100e-02 3.326859e-02 2.927274e-02 2.779914e-02 2.397792e-02 2.279575e-02 1.893347e-02 1.777817e-02 1.406138e-02 1.326981e-02 1.041340e-02 9.797420e-03 8.700946e-03 8.508285e-03 1.000166e-02 1.072960e-02 1.367636e-02 1.476898e-02 1.806890e-02 1.928813e-02 2.306484e-02 2.433238e-02 2.824965e-02 2.921568e-02 3.334915e-02 3.444587e-02 3.868218e-02 3.969594e-02 4.368831e-02 4.495055e-02 4.899381e-02 5.035222e-02 5.416541e-02 5.541268e-02 5.944554e-02 6.072147e-02 6.480305e-02 6.574335e-02 6.993330e-02 7.099454e-02 7.526676e-02 7.625487e-02 8.024422e-02 8.145768e-02 8.549197e-02 8.681190e-02 9.060539e-02 9.180380e-02 9.579772e-02 9.703311e-02 1.010790e-01 1.019727e-01 1.061190e-01 1.071260e-01 1.113634e-01 1.122972e-01 1.162491e-01 1.174014e-01 1.213982e-01 1.226662e-01 1.264130e-01 1.275655e-01 1.315009e-01 1.326983e-01 1.366879e-01 1.375394e-01 1.416327e-01 1.425889e-01 1.467836e-01 1.476608e-01 1.515735e-01 1.526651e-01 1.566220e-01 1.578370e-01 1.615323e-01 1.626440e-01 1.665170e-01 1.676822e-01 1.716095e-01 1.724255e-01 1.764633e-01 1.773747e-01 1.815241e-01 1.823470e-01 1.862203e-01 1.872534e-01 1.911694e-01 1.923322e-01 1.959726e-01 1.970489e-01 2.008554e-01 2.019950e-01 2.058537e-01 2.066419e-01 2.106188e-01 2.114934e-01 2.155918e-01 2.163656e-01 2.201948e-01 2.211738e-01 2.250431e-01 2.261569e-01 2.297343e-01 2.307821e-01 2.345122e-01 2.356349e-01 2.394120e-01 2.401834e-01 2.440854e-01 2.449354e-01 2.489669e-01 2.497033e-01 2.534725e-01 2.544093e-01 2.582149e-01 2.592911e-01 2.627879e-01 2.638182e-01 2.674524e-01 2.685692e-01 2.722414e-01 2.730094e-01 2.768104e-01 2.776514e-01 2.815862e-01 2.823021e-01 2.859791e-01 2.868917e-01 2.905985e-01 2.916558e-01 2.950344e-01 2.960660e-01 2.995625e-01 3.006933e-01 3.042126e-01 3.050003e-01 3.086452e-01 3.095036e-01 3.132796e-01 3.140037e-01 3.175201e-01 3.184389e-01 3.219713e-01 3.230414e-01 3.262195e-01 3.272848e-01 3.305512e-01 3.317301e-01 3.349925e-01 3.358383e-01 3.392077e-01 3.401250e-01 3.436075e-01 3.443851e-01 3.475901e-01 3.485603e-01 3.517497e-01 3.528792e-01 3.556703e-01 3.568126e-01 3.596377e-01 3.609065e-01 3.636734e-01 3.646180e-01 3.674337e-01 3.684464e-01 3.713149e-01 3.721774e-01 3.746969e-01 3.757284e-01 3.781365e-01 3.793078e-01 3.811952e-01 3.823343e-01 3.840839e-01 3.852741e-01 3.867510e-01 3.874797e-01 3.886739e-01 3.892214e-01 3.900058e-01 3.899898e-01 3.896891e-01 3.890761e-01 3.874954e-01 3.857376e-01 3.817203e-01 3.776021e-01 3.703094e-01 3.626470e-01 3.507559e-01 3.380836e-01 3.210973e-01 3.043773e-01 2.839286e-01 2.654006e-01 2.436490e-01 2.253871e-01 2.040852e-01 1.876100e-01 1.680405e-01 1.544930e-01 1.377384e-01 1.281278e-01 1.152598e-01 1.103939e-01 1.021313e-01 1.019036e-01 9.759208e-02 1.002475e-01 9.743890e-02 1.001811e-01 9.582193e-02 9.628336e-02 8.832232e-02 