# vtk DataFile Version 2.0
Comment goes here
ASCII

DATASET STRUCTURED_POINTS
FIELD FieldData 1
TIME 1 1 double
0.07900000
DIMENSIONS    256   256   1

ORIGIN    0.000   0.000   0.000
SPACING   0.0078125 0.0078125   1.000

POINT_DATA   65536
SCALARS uX double
LOOKUP_TABLE default

-6.230067e+00 -1.740017e+01 3.960286e+00 -2.831891e+01 -2.282496e+01 -1.382493e+01 -1.830723e+01 -1.267207e+01 -2.751033e+01 -4.970510e+01 -4.585640e+00 -7.545996e+01 -1.162022e+01 -3.227114e+01 -1.644608e+01 -4.487222e+01 -2.029964e+01 -8.713719e+01 -2.386524e+01 -6.733985e+01 -6.502371e+01 -1.515709e+01 -6.229355e+01 -2.546786e+01 -1.707671e+01 -3.388509e+01 -5.126934e+00 -1.637249e+01 -9.814654e+00 -7.782017e+00 1.175663e+01 4.210187e+01 3.382914e+01 1.593912e+01 -2.259461e+01 2.992191e+01 2.873178e+01 2.273516e+01 5.781278e+00 1.450952e+01 -6.212486e+00 1.010541e+01 -7.759739e+00 1.108185e+01 3.212555e+00 1.579747e-01 2.318718e+00 -8.911798e-01 6.184188e+00 7.488218e+00 4.214538e+00 2.199049e+00 1.998388e+00 -3.204821e+00 5.971883e+00 2.306507e+00 -2.125135e+00 2.557385e+00 1.482745e+00 6.251985e+00 -2.017590e+01 2.448594e+01 1.753791e+01 1.250282e+01 1.096704e+01 6.546827e+00 -1.611685e+00 4.184884e+01 4.953105e+01 7.058888e+01 4.727420e+01 6.471098e+01 4.468041e+01 1.480330e+01 2.895363e+00 3.913879e+00 1.886813e+00 -2.969455e+01 5.381366e+00 1.788272e+01 1.302098e+01 1.270390e+01 3.046966e+01 3.847091e+00 2.280383e+01 1.250037e+01 1.075536e+01 -1.998334e+01 -2.310085e+01 -1.251264e+01 6.957039e+00 -6.628228e+00 -1.500001e+00 -1.228425e+01 -1.412481e+01 3.057794e+00 3.540801e+01 -1.220728e+00 -6.105004e+00 -2.139699e+01 5.721765e+00 7.594949e+00 2.284070e+00 5.342849e+00 1.252670e+01 1.622966e+01 -5.285992e+00 2.067587e+01 -1.503641e+01 9.064767e+00 -2.111641e+01 -2.008085e+01 -2.411801e+01 -1.444679e+01 -9.126919e+00 -1.913979e+01 -1.622514e-01 9.008514e+00 -1.884823e+01 2.063107e+01 -1.379954e+01 1.367873e+01 -1.094934e+01 -2.231029e-01 -1.298505e+01 9.100612e+00 -1.425966e+01 -7.872490e+00 2.564468e+01 7.119476e+00 1.415212e+01 -9.734545e+00 1.019602e+01 2.631684e+01 2.767398e+01 -8.109416e+00 1.015010e+01 4.330489e+00 -7.836780e+00 1.835282e+01 -1.116125e+01 4.677337e+01 4.570836e-02 -3.877396e+00 1.475983e+01 -7.117306e+00 2.788973e+01 -1.324992e+01 4.842957e+00 1.739737e+00 9.209307e+00 -7.248794e+00 -3.670341e+01 -2.389963e+01 -6.042840e+00 -1.105708e+01 -1.853459e+00 -2.628068e+01 -1.294501e+01 -9.803902e+00 -2.262375e+01 -1.431068e+01 2.037012e+00 -3.442556e+01 -7.865428e+00 -1.227763e+00 -1.268634e+01 -4.869367e+00 -6.143903e+00 -4.137947e+00 -5.612142e+00 -1.504850e+01 1.397609e+01 -4.305930e+00 -9.305344e+00 -6.800730e+00 -3.367828e+01 -5.491858e+01 -8.867207e+01 -6.569379e+01 -8.103680e+01 -4.960246e+01 -5.108634e+01 -1.172688e+01 -5.207340e+01 7.876370e+00 1.405685e+01 1.373901e+01 9.759576e+00 -1.625250e+01 4.034608e+01 4.807418e+00 6.336199e+00 -2.650442e+01 8.794212e+00 1.404542e+01 -3.569367e+01 2.145543e+00 -4.928006e+00 1.156683e+01 1.996033e+01 -3.337587e+00 -1.711306e+01 -3.226527e+00 -1.190545e+00 -3.545029e+01 -6.450766e+01 -1.046415e+01 -5.916588e+01 5.919290e+00 -5.780741e+01 2.239435e+01 1.192710e+01 2.043726e+01 2.715397e+01 2.545404e+01 2.578539e+01 -3.006438e+00 1.716086e+01 -7.028358e-01 1.932320e+00 -1.651137e+01 -8.289223e+00 4.328378e+00 5.430806e+00 -9.030133e+00 2.997169e+01 2.329403e+00 2.660463e+01 1.395660e+01 1.789797e+01 2.533424e+00 9.114382e+01 -1.967432e+01 4.244258e+00 -5.320221e+01 6.201196e+01 -1.896585e+01 1.446859e+01 7.071609e+00 4.096797e+00 -1.887977e-01 3.288795e+01 -3.464882e+01 -2.938308e+01 -5.899463e+01 -1.243188e+00 -2.583060e+01 -2.910351e+01 -4.633534e+01 -1.073240e+00 -9.261104e+00 -2.631248e+01 -2.028891e+00 -3.495988e+01 -2.026380e+01 
-3.563734e+01 3.628183e+00 2.003109e+00 -2.827131e+01 -3.233593e+01 -2.045088e+01 -2.247988e+01 -1.359289e+01 1.871206e+00 -6.727786e+01 -3.075913e+01 -8.333639e+01 -2.849999e+01 -4.978656e+01 -3.287286e+01 -7.118637e+01 -6.328818e+01 -4.919628e+01 -2.253564e+01 -3.396184e+01 -6.255924e+01 6.578381e+00 -2.327075e+01 -3.906682e+01 -2.579579e+01 -1.798240e+01 -7.766209e+00 -3.205788e+01 5.472773e+00 -7.718381e+00 -1.684135e+01 1.859029e+01 9.149108e+00 -2.890028e+00 -3.080513e+01 2.632715e+01 -5.826669e+00 -1.674416e+01 -1.493688e+01 2.446147e+01 -9.001296e-01 1.054313e+01 -4.509903e+00 8.324652e-02 -1.895454e+00 -3.232314e-01 2.834468e+00 -1.889068e+00 -5.888789e+00 2.748425e+00 1.264115e+00 -2.680301e+00 -2.397798e+00 -1.571506e+00 3.186139e+00 -4.451042e+00 3.189373e+00 1.669873e+00 5.716641e+00 2.621334e+00 1.542811e+01 9.500669e+00 3.143539e+01 1.994463e+00 2.256487e+01 3.018560e+01 -9.842794e+00 -2.013004e+01 4.424013e+01 3.985547e+01 6.281431e+01 3.304299e+01 6.595569e+00 8.282588e+00 1.587099e+01 2.975962e+01 -1.111202e+01 1.640030e+01 4.874993e+00 1.565874e+01 5.049001e+00 1.246031e+01 1.546278e+01 1.585872e+01 2.480812e+00 9.661623e+00 1.455294e+01 2.546000e+01 1.184245e+00 1.261380e+01 -3.026478e+00 1.895612e+01 2.980542e+01 -2.682331e+01 3.435075e+00 -2.768028e+01 9.564166e-01 -3.524301e+01 -1.606135e+01 -5.648619e+00 2.198339e+00 8.934119e+00 -1.141669e+00 -3.853477e+00 -1.157831e+01 -2.117995e+00 1.109183e+01 5.093571e-01 -5.065745e+00 8.592966e+00 -3.070943e-01 5.566558e+00 7.039650e+00 9.186683e-01 -1.536093e+01 -1.323243e+01 -1.502721e+01 -7.197241e+00 -8.268700e+00 -2.439790e+01 -5.665202e-01 -7.100016e+00 -1.627475e+01 1.523174e+01 -2.467624e+00 1.324704e+01 -1.451210e+00 6.513153e+00 -1.442682e+01 -6.857392e+00 -1.445791e+01 5.198766e+00 -3.129246e+01 1.159222e+01 -1.603883e+01 4.259671e+00 6.482487e+00 -5.231671e+00 -2.655066e+01 -2.672612e+00 1.440020e+01 -2.118743e+01 -7.150749e+00 3.019771e-01 6.294974e+00 -3.099362e+01 6.521581e+00 -8.805075e+00 -7.984872e+00 -1.488294e+01 -1.912923e+01 -5.487903e+01 -2.394748e+01 -7.438601e+01 -2.896561e+01 -4.955154e+01 -2.315672e+01 -4.621740e+01 3.363839e+01 -1.688929e-01 3.938316e+00 -9.585066e+00 1.714565e+01 4.981829e+00 1.501954e+01 6.310741e+00 -8.902473e+00 3.874670e+01 -9.373852e+00 5.392248e-01 4.039106e+00 -5.532429e+00 2.260778e+00 -1.343712e+01 -2.001607e+01 -3.367597e+01 -3.978949e+01 -3.471468e+01 -2.933400e+01 -2.619615e+01 -3.601688e+01 -6.641494e+01 -3.867365e+01 -2.988250e+01 -2.691229e+01 -2.007220e+01 -3.082541e+01 -1.092638e+01 1.158405e+01 -6.679971e+00 -1.813975e+00 -2.228641e+01 -4.482698e+00 5.737905e+00 7.501909e+00 1.110706e+01 -2.954920e+01 2.992761e+01 -1.682356e+01 5.465061e+01 -1.217231e+01 -6.332189e-01 -1.711561e+01 -1.838690e+01 -2.876640e+01 -5.103687e+01 -6.335982e+01 -2.162458e+01 -4.537031e+01 -3.068090e+01 -4.067367e+01 3.623244e+00 3.356232e-01 2.828217e+00 -1.096118e+01 1.705388e+01 7.140565e+00 1.389404e+01 2.179622e+01 1.529711e+01 -3.221242e+00 -1.578431e+01 9.969589e+00 -2.460809e+01 4.084627e+01 2.398208e+01 2.399491e+01 -2.619124e+01 9.118475e+01 -3.872135e+01 6.827675e+01 -1.430403e+00 5.651536e+01 7.664358e+00 3.931418e+01 5.558855e+01 5.529033e+01 6.650090e+01 3.380250e+01 2.589057e+01 1.047781e+01 -1.916420e+01 3.355136e+01 -4.609699e+01 -3.082244e+01 -8.577817e+00 -1.557416e+01 -2.507432e+01 -1.036581e+01 -3.289056e+01 -3.097486e+01 1.592498e+01 1.505188e+00 -1.819184e+01 -3.412092e+01 -3.912753e+01 
-1.776291e+01 -1.675123e+01 -1.401382e+01 -4.415392e+01 -5.058750e+01 -4.833357e+01 7.827539e-01 -1.855905e+01 4.021604e+01 -2.794426e+01 -5.047939e-02 -2.113841e+01 -3.179622e+01 -5.769832e+01 -3.595818e+01 -5.381003e+01 -1.050878e+01 -2.836604e+01 -5.173576e+01 -2.759697e+01 -3.172789e+01 -2.033415e+01 -1.771422e+01 -2.306043e+01 -1.861081e+01 -9.651385e+00 -1.247227e+01 1.128344e+01 -1.573139e+01 -1.616255e+00 -1.044713e+01 -1.280310e+01 -1.062177e+01 -1.842624e+01 -3.371869e-01 3.301378e+01 -1.500562e+01 -1.857629e+01 -9.788768e+00 4.901506e+00 -8.629260e+00 9.579642e+00 1.789603e+00 -2.756641e-01 5.996816e-01 3.927244e+00 3.697025e+00 1.362145e+00 -3.361488e+00 -7.777661e+00 -1.784390e+00 -9.220538e-01 1.645777e-01 -2.565030e+00 -8.921328e+00 2.528817e+00 4.480007e+00 6.028494e+00 -4.220499e+00 3.103651e+00 1.396048e+01 5.594122e+00 1.053603e+01 2.321444e+01 2.648401e+01 3.359165e+01 5.043074e+01 -8.255051e-01 3.641737e+01 -4.001989e+00 1.863298e+01 -4.268582e+01 -9.064572e-02 -5.079422e+00 2.976192e+01 2.062238e+01 5.925703e+00 -8.262234e-02 5.893231e+00 5.077325e+00 -1.088581e+01 6.917203e+00 -1.198028e+01 6.621094e+00 -6.393274e+00 1.258402e+01 -3.088161e+00 1.393422e+01 6.993802e+00 1.439903e+01 -3.490799e+01 -9.885505e+00 -1.085328e+01 -1.267505e+01 2.741255e+01 -1.776120e+01 -2.201806e+01 -2.161135e+01 1.387832e+01 2.438076e+00 1.663434e+01 -1.105235e+01 9.532739e+00 -9.080447e+00 -1.121688e+01 1.287358e+01 -8.589420e+00 9.699354e+00 4.850315e-01 -3.289050e+00 -8.420239e+00 3.660409e+00 -1.293420e+01 -1.214186e+01 -1.662342e+01 -1.283573e+01 -3.595157e+01 -1.997372e+01 -1.761043e+01 -7.740224e+00 -2.192241e+01 -6.345486e-01 7.972285e+00 1.731990e+01 2.028129e+01 1.527749e+01 8.378614e+00 2.631611e+01 2.326921e+01 2.972681e+01 6.655350e+00 6.230602e+00 1.367675e+01 7.586468e+00 -6.045241e-01 3.890175e+01 -2.936150e+00 -1.296430e+01 -6.030776e+00 9.517369e+00 -1.452512e-02 -1.257906e+00 -3.215569e+00 -4.652274e+00 -1.706639e+01 -2.124239e+01 -1.864803e+01 -5.707639e+01 -4.658989e+01 -7.438865e+01 -6.367961e+01 -5.168177e+01 -6.056391e+01 -5.358859e+01 -7.107499e+01 -4.761230e+01 -3.247635e+01 -2.760165e+01 1.574995e+01 -1.009235e+01 -2.033903e+01 -6.295176e+00 1.646478e+01 5.521700e+00 2.528176e+01 5.886531e+00 1.476159e+01 2.654513e+01 2.697663e+01 -2.251249e-01 1.725299e+01 1.801402e+01 -1.049829e+01 6.658238e+00 3.882026e+00 2.696923e+00 -2.651278e-01 -6.226215e+00 -5.839006e-01 1.788197e+00 -3.212587e+00 -4.096082e+01 -4.014799e+01 -4.268138e+01 1.868076e+01 -3.606943e+01 1.279695e+01 2.046578e+01 2.396269e+01 2.796816e+01 5.934823e+00 9.539897e+00 -6.452128e+00 1.541141e+01 -6.524859e+00 1.371938e+01 2.367999e+01 1.616756e+01 -1.640974e+01 4.775184e+01 -4.362593e+00 8.672423e+00 -1.746247e+01 -1.135790e+01 -2.234588e+00 -1.187716e+01 1.387813e+01 -5.263773e+00 2.310506e+01 -3.761577e+01 -1.067090e+01 -1.056454e+01 -7.907893e+00 -3.570575e+00 5.068060e+00 -3.448507e+00 -3.073768e+01 -1.304579e+00 4.431915e+00 2.170723e+00 3.765389e+00 -1.021756e+00 1.605715e+01 -1.950493e+01 3.894404e+01 -4.335207e+01 2.102522e+01 -1.524578e+00 3.582716e+01 -1.741609e+01 2.271543e+01 3.662968e+00 1.023285e+00 1.835849e+01 2.297702e+01 3.332989e+01 -6.850703e+01 4.128934e+01 -3.165115e+01 1.855763e+01 -9.458811e+00 -2.164352e+01 7.943056e-01 5.723854e+00 7.236892e+00 1.980849e+01 -3.350788e+01 -7.607227e+00 -1.864231e+01 1.491290e+01 -2.266543e+01 -2.434990e+01 1.034468e+01 -3.453204e+01 -1.601787e+01 -5.152515e+01 
4.324939e+00 -5.571841e+01 -1.734987e+01 -3.010373e+01 -1.486052e+01 -1.158468e+01 -3.695361e+00 1.723555e+00 9.148430e+00 3.098038e+01 2.001256e+01 1.909508e+01 1.576052e+01 -4.063550e+01 -2.802184e+01 -4.943793e+01 -2.265270e+01 -2.625253e+01 -6.646323e+01 -4.600607e+01 -2.907497e+01 -6.489111e+01 1.127857e+01 -7.141829e+00 -2.396676e+01 9.811546e-01 -2.493774e+01 -8.873630e+00 -3.346674e+01 -3.146491e+00 -3.883411e-01 -2.523210e+01 -6.779371e+00 -2.478838e+01 3.429822e+01 2.430247e+01 -7.140338e+00 -3.382880e-01 -4.553500e+00 -1.058687e+01 -2.124568e+01 -2.188648e+00 4.879255e+00 -4.511773e+00 5.443046e+00 -2.267440e+00 -3.213119e+00 -3.793253e+00 3.706387e+00 -6.332234e+00 -1.531020e+00 3.171345e+00 2.020821e+00 2.999912e+00 -1.310613e+00 2.819795e+00 3.564177e+00 2.053899e+00 -1.057602e+01 -8.143880e+00 -1.862232e+01 -2.444210e+00 -1.286029e+01 3.297154e+01 1.512280e+01 1.887901e+01 3.116666e+01 1.440448e+01 2.939438e+01 -1.022482e+01 -5.710657e+00 -1.533471e+01 -2.126972e+00 -2.740404e+01 1.202097e+00 -1.159676e+01 1.244481e+01 1.079558e+01 2.612050e+01 8.085282e+00 2.084047e+01 2.357059e+01 1.358656e+01 1.234207e+01 5.986964e+00 -6.048847e+00 5.357235e+00 -1.557114e-01 2.637290e+00 1.644650e+01 -1.195517e+01 -9.008904e+00 -1.365017e+01 1.078224e+01 1.597507e+01 2.702791e+00 1.488850e+01 1.707448e+01 1.249092e+01 -8.928090e+00 -1.800922e+01 -3.357246e+01 1.195360e+01 -2.503014e+01 3.703552e+01 6.125073e+00 1.177125e+01 2.406928e+00 1.262608e+01 1.931612e+01 -4.932370e+00 3.051514e+00 -5.269319e+00 4.386036e+00 8.598467e+00 1.687873e+01 3.075651e+00 -5.426935e+00 1.205036e+00 1.213839e+00 -1.891613e+01 1.523896e-02 -1.266199e+00 9.890812e+00 1.182905e+01 1.932971e+01 1.372653e+01 1.866271e+01 1.711440e+01 3.949458e+01 5.666506e+01 3.096713e+01 4.524243e+01 3.846733e+01 2.691246e+01 3.054917e+01 1.117202e+01 -1.413394e+00 1.081677e+01 5.253952e+00 3.023650e+01 2.137047e+01 2.778201e+01 1.538132e+01 6.177119e+00 -7.147331e+00 -8.477201e+00 -1.590254e+01 -4.805390e+00 -2.891503e+01 3.421668e+01 -6.367967e+00 3.113236e+01 9.550254e+00 -3.416417e+01 9.103480e+00 2.714334e+01 4.296374e+01 9.751760e+00 2.587311e-01 7.859873e+00 -5.739729e+00 1.670430e+01 8.988362e+00 9.346427e+00 1.804504e+01 2.255643e+01 -2.526573e+00 1.415233e+01 -2.616419e-01 6.390360e+00 -1.757215e+01 -2.341564e+01 4.987825e+00 -8.926497e+00 -9.801003e+00 8.232634e+00 1.077603e+01 1.505804e+01 1.455571e+01 1.494633e+01 3.158821e+01 2.718196e+01 1.301714e+01 4.317657e+01 7.800096e+00 5.039645e+01 3.847006e+01 2.390595e+01 3.449942e+00 1.519821e+01 1.986543e+01 7.411620e+00 2.233829e+01 -1.269556e+01 -1.724362e+01 -2.731773e+01 -6.460273e+00 -4.700423e+01 3.330300e+00 -5.417345e+01 -1.475941e+01 3.308909e+01 -3.275997e+00 -1.463562e+01 2.357954e+01 2.303438e+01 5.014982e+01 3.007193e+01 2.518243e+00 1.363467e+01 -2.005974e+01 1.977268e+00 1.510375e+01 1.473683e+01 -2.887906e+00 1.255955e+00 4.343146e+00 -1.438330e+01 -7.534764e+00 2.328379e+01 2.082126e+01 8.558775e+00 1.741262e+01 1.439610e+01 -3.576807e+01 1.862198e+01 2.455331e+01 -1.385027e+01 1.122850e+01 1.212161e+01 7.877405e+00 1.369729e+01 1.947439e+01 2.006340e+01 1.759943e+00 -7.024014e+01 -2.325966e+01 -6.573840e+01 -1.260823e+01 -3.728365e+01 -1.269915e+00 -2.913534e+01 2.171555e+01 -3.323413e+00 -1.831223e+01 -2.992225e+01 -1.626072e+01 -2.870280e+01 -3.125563e+01 -2.328007e+01 -6.718016e+01 -3.472672e+01 -5.877920e+01 -2.080347e+01 -4.424406e+01 
-1.443826e+01 -5.180997e+01 -3.088765e+01 -2.419546e+01 -3.569575e+01 -4.594811e+01 -3.762420e+01 -4.201218e+01 -1.829098e+01 1.723592e+01 -7.959626e+00 7.507192e+00 -2.389116e+01 -5.157738e+01 -1.585313e+01 -4.734933e+01 -4.326267e+01 -7.139866e+00 -8.889010e+00 -2.724750e+01 -9.210004e+00 -5.374151e+01 1.948454e+01 -2.541421e+01 -1.092485e+01 -2.620754e+01 -2.592402e+01 -3.121978e+01 -1.267554e+01 -1.637382e+01 -1.904071e+01 -1.240492e+01 -3.408667e+00 -1.565620e+01 2.257757e+01 -1.881388e+01 -1.275918e+00 4.758441e+00 1.440001e+00 -4.987365e+00 -2.076875e+01 -1.770985e+01 -1.045259e+00 -5.603761e+00 3.998318e+00 -3.066312e-01 8.390522e-01 -7.489650e-01 2.924738e+00 -3.624311e+00 -3.085936e+00 -3.318604e+00 5.657987e+00 5.467230e+00 4.317671e+00 1.664992e+00 4.635545e+00 1.023473e+01 5.830563e+00 5.500558e+00 -2.349265e+00 3.846040e+00 1.772900e+00 9.476260e+00 7.698679e+00 2.714248e+01 1.532680e+01 3.513579e+01 2.403856e+01 4.406485e+00 -1.670250e+01 2.628373e+01 -3.328283e+01 -9.371500e+00 1.713764e+01 -1.199208e+00 -6.982144e+00 7.378742e-01 -3.384672e+00 1.442122e+01 1.373257e+01 8.438499e+00 3.810678e+00 2.720954e+01 8.512758e+00 1.282637e+01 7.398453e+00 2.516415e+01 2.368415e+01 1.720831e+01 3.739426e+01 -6.929396e+00 -2.790215e+00 -1.020147e+01 3.411559e+00 -1.035441e+01 1.604211e+01 2.340679e+01 2.728266e+01 1.711396e+01 -8.174226e-02 -1.142004e+01 1.495527e+01 9.422075e+00 -5.345736e-01 -7.973563e+00 5.579869e+00 -6.013425e+00 4.752586e+01 2.058042e+01 1.814943e+01 9.036501e+00 2.388783e+01 1.065133e+01 3.363797e+01 8.011861e+00 2.941877e+01 -9.138740e+00 4.507824e+00 8.890966e+00 2.019883e+00 -8.266370e+00 -1.356580e+01 -8.466702e+00 -2.501997e+00 1.970756e+01 3.369890e+01 4.646456e+01 1.713456e+01 -9.186961e+00 2.237989e+01 3.497188e+01 1.430821e+01 3.755972e+01 -1.365231e+00 -2.939005e+01 1.875601e+01 2.024759e+01 -1.426659e+01 8.007058e+00 -2.865411e+00 -2.182535e+01 -2.300978e+01 -5.751647e+01 -2.062004e+01 -4.506055e+01 -4.890886e+01 -4.020165e+01 -4.234018e+01 -6.091631e+01 -3.825885e+01 -5.025983e+01 -3.004711e+01 -4.156787e+01 -4.536502e+01 5.051627e+01 6.323109e+01 9.571847e+01 2.880494e+01 2.260321e+01 4.916878e+01 3.452224e+01 -1.024570e+01 1.167868e+01 -1.196679e+01 1.876867e+01 1.738641e+01 -2.156532e+00 1.661183e+01 -2.530510e+00 1.955386e+01 -9.484255e+00 3.103195e+00 5.140103e+00 5.014655e+00 -3.023269e+00 7.615136e+00 -7.632968e+00 1.862208e+01 -2.367869e+01 -1.335626e+01 -1.796428e+01 1.603820e+01 1.705417e+01 5.934740e+01 3.829188e+00 2.921401e+01 2.475124e+01 -2.885358e+00 2.375161e+01 6.914098e+00 1.070791e+01 3.029503e+01 4.134280e+01 -2.073859e+00 3.353999e+01 8.971026e+00 -1.451547e+01 1.555560e+01 5.090139e+00 -2.411577e+01 -9.259454e+00 1.253281e+01 4.614246e+00 -9.517085e+00 2.233163e+01 -1.947313e+01 -2.214128e+01 -1.524120e+01 3.558523e+00 -6.637365e+00 -6.334627e+00 3.743185e-01 -1.822595e+01 -1.326375e+01 -2.129888e-01 -2.638346e+00 1.243052e+01 -1.449180e+01 -5.333150e+00 -1.326309e+01 4.077887e+00 2.915650e+00 3.530285e+00 9.218700e+00 6.820874e+01 1.664543e+01 -1.207772e+01 8.052687e+00 -3.256753e+00 2.865616e+01 -1.877969e+01 3.407619e-01 1.496216e+01 8.489394e+00 3.566098e+01 -6.159374e+00 -1.016400e+00 -2.011268e+01 -3.111156e+01 -3.514940e+01 9.453993e+00 -3.010044e+00 1.062352e+01 1.141874e+01 -1.448780e+01 2.102153e+01 -1.302755e+01 2.151139e+01 -1.552354e+01 1.393831e+01 -2.486498e+01 -4.293660e+01 -6.132548e+01 -4.063423e+01 -5.373201e+01 
4.605826e+00 1.375689e+01 -2.760789e+01 -2.872170e+01 -4.356124e+01 -7.319183e+01 -1.679367e+01 -1.289369e+01 1.381877e+01 -1.293697e+01 2.753263e+01 2.879811e+01 -4.938629e+01 -2.810346e+00 -6.094950e+00 4.669387e+00 -3.369421e+00 2.414984e+00 6.734495e+00 1.805946e+00 1.900797e+00 5.960453e+00 -2.308633e+01 -1.398983e+00 -8.948997e+00 -2.302604e+01 -2.403852e+01 -1.071306e+01 -8.785699e+00 -1.381018e+01 -1.329949e+01 -8.896833e+00 3.848680e-01 -8.961646e+00 8.069733e+00 -2.593655e+01 2.600522e+01 -6.054488e+00 -7.905330e+00 -8.682245e+00 -1.113236e+01 -2.737932e+01 -8.726244e+00 -7.719156e+00 -7.580133e+00 -2.030980e+00 2.328004e+00 1.719255e+00 5.825358e+00 3.769848e+00 3.009020e+00 -6.285983e-01 8.676602e+00 -4.026996e+00 3.188798e+00 -3.998043e+00 9.694848e+00 9.986335e+00 1.088658e+01 6.019872e+00 4.022474e+00 2.426311e-01 -1.064421e+01 3.963313e-01 -7.430076e+00 1.220475e+01 4.982846e+00 -1.192709e-01 -1.373962e-01 1.707241e+01 2.513013e-01 1.309036e+01 2.165745e+01 3.947762e+01 1.787284e+01 -3.116678e+00 8.388481e+00 5.173503e+00 -3.179761e+00 -6.557691e+00 -1.020763e+01 -9.976949e+00 -1.799579e+01 -1.237041e+01 -8.675779e+00 8.487648e+00 8.526563e+00 -1.504685e+01 3.659784e+00 6.493201e+00 3.708947e+01 3.911083e+01 3.568011e+01 4.054599e+01 -2.546949e+00 -1.609845e+00 8.985398e+00 2.578106e+01 2.774432e+01 1.750832e+01 3.405624e+01 6.497884e+00 3.021793e+01 1.030617e+01 -8.479300e-01 1.617453e+01 2.858748e+01 9.323180e+00 2.387385e+01 -5.288838e-01 8.759124e+00 1.230352e+01 -6.816544e+00 1.395611e+01 -3.746166e-01 3.189030e+01 -1.106223e+01 -3.666955e+00 6.520815e+00 2.562234e+01 -1.613255e+01 -2.896817e+01 -1.110387e+01 -1.024996e+01 -8.311254e+00 1.026129e+01 4.824379e+00 7.819491e+00 9.956718e+00 5.862146e-01 -8.495176e+00 -1.284973e+01 -8.156444e+00 -3.727091e+00 1.395876e+01 -1.742316e+01 -9.358283e+00 -1.124795e+01 5.823830e+00 4.531002e+00 -1.494949e+01 -2.514505e+01 -8.040024e+00 -4.721498e+01 -1.182188e+01 -1.968433e+01 -3.321261e+01 -2.323257e+01 -2.917625e-01 -3.784127e+01 -3.306784e+01 -2.533485e+01 4.738294e+01 -2.172071e+01 5.058857e+01 -1.738456e-01 2.808616e+01 7.567628e+01 2.758367e+01 1.352661e+01 4.358338e+01 5.706619e+01 2.635896e+01 3.221405e+01 2.428748e+00 4.134346e+01 1.903890e+01 3.545178e+01 4.440482e+00 -9.251317e+00 1.454079e+01 -1.215446e+01 1.430216e+01 -1.532387e+01 -2.181136e+00 1.033406e+01 3.929810e+00 2.136314e+01 4.207520e+01 1.714464e+01 2.248869e+01 -4.415266e+01 4.289820e+00 -4.299788e+00 2.587687e+00 1.350067e+01 4.407120e+01 3.634638e+01 2.035047e+01 2.951740e+01 1.995182e+01 6.867952e+01 4.642501e+01 3.937671e+01 7.631750e+01 4.309603e+01 5.482927e+01 -1.192866e+01 2.233282e+01 -5.255459e+01 1.377493e+01 -2.608155e+01 -1.253652e+01 -3.072724e+01 -3.148447e+01 -3.676812e+01 1.153286e+01 -1.507627e+01 1.538516e+01 7.001426e+00 -3.680874e+00 -2.907986e+01 -1.136469e+01 -1.407558e+01 1.429436e+01 -1.138180e+01 -1.472264e+01 2.468424e+01 3.595483e-01 1.248452e+01 -4.905130e-01 -1.658736e+00 8.236916e+00 1.031754e+01 2.255007e+01 1.714064e+01 -1.955667e+01 -6.939860e+00 -1.185172e+01 1.329442e+01 1.211135e+01 3.592206e+01 2.402604e+00 4.938773e+01 4.310938e+01 5.870634e+01 -2.661998e+00 2.599694e+01 4.006426e+00 1.391493e+01 -1.686219e+01 2.905103e+00 -3.840161e+01 -3.654120e+00 -2.507254e+01 1.710560e+00 -6.544827e+00 4.302414e+00 -7.485678e+00 6.487362e+00 -1.737083e+01 -1.473242e+01 -6.901606e+00 -2.680725e+01 -5.847561e+00 -1.172286e+01 
-3.498400e+01 -3.113961e+01 -3.816915e+01 -5.525539e+01 -2.378059e+01 -3.838068e+00 2.178228e+01 -7.948349e+00 -4.206713e-01 -5.553901e+01 9.430118e+00 -3.812576e+00 -2.576446e+01 1.344653e+00 -8.890200e+00 6.741286e-01 -6.505756e-01 1.200283e+00 -9.541286e-03 -2.629478e+00 -1.112389e+00 -1.571460e+01 -8.783152e+00 -8.022571e+00 -1.425427e+01 -1.854381e+01 -8.650961e+00 -1.037866e+01 -3.136051e+00 -1.339237e+01 -4.399819e+00 -1.002132e+01 -7.555849e+00 -1.014623e+01 -1.377393e+00 -2.323048e+01 1.770591e+01 -1.334769e+01 -2.865661e+00 -2.780696e+01 2.720019e+01 -8.449936e+00 7.465007e+00 6.218056e-01 1.501808e+00 -4.894946e-01 4.719391e+00 -3.861976e+00 2.467648e+00 3.573182e+00 1.172110e+00 2.270838e+00 -3.470712e+00 -5.915640e+00 1.953040e+00 -7.350690e+00 -1.617494e+00 2.352652e+00 6.359989e+00 8.763432e+00 8.802811e+00 1.215022e+01 2.542483e+00 8.716420e+00 -8.068579e+00 1.167205e+01 -6.879939e+00 -1.201392e+01 9.597024e+00 2.383446e+01 2.041488e+01 1.057103e+01 3.312786e+01 4.693065e+00 -3.347467e+01 1.279529e+01 1.220678e+01 1.047727e+01 6.542783e-01 3.377119e+00 9.406841e+00 1.599567e+01 8.339948e+00 -1.223070e+01 -1.437318e+00 -5.169973e+00 3.092467e+01 3.586730e+00 1.305358e+01 -3.651756e-02 1.983193e+01 1.147951e+01 2.028695e+01 9.114527e-01 -8.429411e+00 1.725693e+00 5.332784e+00 1.228124e+00 -8.333205e+00 1.986838e+01 2.713105e+01 4.395178e+01 2.196824e+01 1.849108e+01 3.471663e+01 1.250716e+01 3.680083e+01 1.145225e+01 -1.601042e+01 4.893546e+00 -6.796264e+00 7.010532e+00 -6.591546e+00 1.431651e+00 -2.010786e+01 -8.517658e+00 -4.057876e+01 5.664485e+00 2.857563e+01 -1.162501e+00 2.498632e+01 -2.306978e+01 1.156924e+01 -2.767948e+01 -1.453167e+01 -3.848871e+01 -6.662366e+00 -4.862602e+00 -1.392389e+01 -3.531800e+00 -2.649982e+01 -1.393180e+01 8.720863e+00 -1.849167e+01 4.050127e+00 -3.771085e+00 -2.893084e+01 -3.030791e+01 6.365796e+00 -6.972094e+00 2.898781e+01 -4.464832e+00 6.810832e+00 2.086478e+01 -2.742761e+01 1.463781e+01 7.358891e+00 -2.796836e+01 7.438553e+00 -1.409177e+01 4.883229e+00 -1.398855e+01 8.805388e+01 -7.956033e+00 1.084871e+02 -1.553529e+01 -1.197257e+01 -7.390283e+00 -8.020256e-01 -2.179848e+00 2.077527e+00 -1.378824e+01 -3.969107e+00 -7.734160e+00 -1.078605e+01 2.138108e+01 -1.475040e+01 3.030456e+01 -2.246894e+01 2.900765e+01 -9.120424e+00 -6.519179e+00 1.673337e+01 1.532228e+01 2.368373e+01 9.582235e+00 1.345878e+01 2.400182e+01 5.932153e+00 1.352125e+01 -1.076100e-01 3.313510e+01 3.600710e+01 -2.033592e+01 -5.689271e+00 4.417327e+01 1.662819e+01 1.670838e+01 2.129564e+01 2.482057e+01 3.603548e+01 2.214203e+01 1.553072e+00 -1.199607e+01 4.112530e+01 -1.468625e+00 1.096807e+01 1.911500e+01 -7.522515e+00 -2.345884e+01 2.348740e+01 1.430893e+01 3.175207e+00 4.098391e+00 1.385488e+00 -1.435773e+01 4.991488e+01 2.061307e+01 3.313493e+01 1.684550e+01 1.256774e+01 -2.576247e+01 -2.233593e+00 -2.446496e+01 -1.639443e+01 -1.254279e+01 -9.278888e+00 4.203172e+00 -7.476107e+00 1.047799e+01 1.195055e+01 2.936718e+01 1.717472e+01 8.756375e+00 6.953808e+00 -2.380658e+01 -4.611732e+00 3.857582e+01 -2.604964e+01 4.670154e+01 1.793126e+01 5.403794e+01 6.076795e+01 9.395077e+01 7.114277e+01 2.018039e+01 -2.268641e+01 1.252653e+01 -5.178034e+00 2.105320e+01 9.330226e+00 1.870966e+01 -1.431520e+01 1.990007e+00 -1.393630e+01 6.238102e+00 -1.390611e+01 -4.359488e+00 -2.253233e+01 7.196321e+00 -9.210007e+00 -1.488516e+01 -2.179472e+00 5.114657e+00 3.777688e+00 -2.983558e+01 
-4.033732e+01 -6.896875e+01 -3.413607e+01 -3.812613e+01 -2.641694e+01 -2.071531e+01 -3.489776e+01 -3.767505e+01 -3.385017e+01 -2.517061e+01 1.038821e+01 -4.950263e+01 8.597953e+00 1.417616e+00 5.849857e+00 8.107823e+00 3.353731e+00 3.616045e+00 4.289883e+00 1.006038e+00 3.076881e+00 -1.939976e+00 -4.515162e-01 -7.721358e-01 -6.416438e+00 -6.888058e+00 3.650820e+00 -1.588958e+00 4.030240e+00 -9.382981e+00 -3.503639e+00 -7.611514e+00 -5.222027e+00 -1.709236e+01 -1.591974e+01 -2.472911e+01 -4.484812e+01 -3.921951e+01 1.093878e-02 -4.675776e+01 2.382697e+01 -1.169904e+01 6.757862e+00 -2.021451e+00 -8.432086e-01 -3.502051e+00 5.176827e+00 -1.331884e+00 5.969549e+00 5.317184e+00 2.138663e+00 1.697121e+00 2.653370e+00 9.736320e-01 -5.167582e+00 -5.049689e+00 -1.045297e+01 -1.819519e+00 -7.941043e+00 1.591994e+00 2.553579e+00 8.020821e+00 2.298706e+00 -4.867582e+00 5.640174e+00 -1.148593e+01 1.854599e+01 1.673471e+01 1.832872e+01 2.474986e+01 1.039769e+01 3.924808e+01 -3.022657e+00 2.114699e+01 2.100161e+01 4.925575e+01 2.730650e+01 2.892654e+01 3.579663e+01 3.198824e+01 2.516134e+01 1.454829e+01 -3.608704e-01 2.211995e+01 1.095793e+01 1.086784e+00 1.365955e+01 3.135132e+01 2.050741e+01 1.886606e+01 -2.986055e+00 1.326548e+00 -1.345111e+01 -3.842430e+01 7.501323e+00 1.650728e+01 1.099782e+00 -2.553547e+01 4.682148e+00 -4.234906e+00 -5.820770e+00 8.346822e+00 -2.910719e+01 1.313286e+01 3.766239e+00 2.180752e+01 -6.204386e+00 8.876859e-01 1.431983e+01 1.109446e+00 1.571472e+01 -4.440800e+00 -5.041643e-01 -1.001703e+01 1.237367e+01 -1.794756e+01 1.265173e+01 1.855061e+01 2.788818e+00 -1.212024e+00 4.819043e+00 9.911465e+00 1.958435e+01 -8.659336e+00 -1.761323e+01 -5.934708e+00 4.548463e+00 3.013941e+00 -8.093778e+00 -1.652416e+01 -6.676082e+00 -8.035622e+00 1.868520e+01 -3.760207e+01 -1.113613e+01 -1.599399e+01 -1.874748e+01 -1.893250e+01 -9.875117e+00 -8.517711e-01 -1.188387e+00 -1.187677e+01 -1.553592e+01 -1.372902e+01 -3.263954e+00 -2.506162e+01 -3.913070e+00 -1.510750e+01 -1.368813e+01 -1.670242e+01 -2.669133e+01 -9.329733e+00 8.686298e-01 -3.653223e+01 3.254053e+01 -4.170882e+01 -4.359817e+00 -8.017120e+01 1.308620e+01 1.011758e+01 6.208294e+00 -4.989766e+01 1.736475e+00 -1.994539e+01 1.446081e+01 -2.370888e+01 -8.786792e+00 -2.248596e+01 9.413045e+00 1.635192e+01 1.158480e+01 2.664912e+00 4.596518e+00 1.569884e+00 3.167161e+01 1.129599e+01 2.452386e+01 1.264349e+01 3.580591e+01 -1.135939e+00 -2.776630e+01 2.371500e+01 -3.155624e+01 -4.551633e+00 -4.463087e+01 4.374207e+01 -1.734785e+01 4.949418e+00 4.379773e+01 5.542369e+01 -1.416190e+01 -2.790543e+01 -2.199025e+01 -3.207535e+01 -3.339457e+01 -1.776189e+01 -2.699081e+01 2.351898e+01 -2.327210e+01 1.214046e+01 1.170514e+01 -9.176501e+00 -1.824035e+01 1.703077e+01 9.776831e+00 1.106274e+01 -6.821753e+00 9.745965e+00 -1.653722e+00 -3.547301e+00 2.831413e+01 3.439870e+01 8.782243e+00 -9.380239e-01 2.053711e-01 1.734925e+01 -1.556681e+01 -2.252169e+01 2.179894e+01 3.121848e-01 1.195360e+01 2.666010e-01 1.647447e+00 -3.096015e+00 5.352019e+00 -2.521537e+00 3.246374e+00 -4.067882e+00 -5.938758e+00 -1.924649e+01 1.794146e+01 8.684262e+00 3.400097e+01 4.690910e+00 -8.067220e+00 -5.094505e+00 -3.498814e+00 1.544123e+01 -1.602031e+01 -6.168330e+00 -5.471396e-01 1.132162e+01 -9.366504e+00 -7.642817e+00 -9.032755e+00 -6.981528e+00 -2.182617e+01 -1.292550e+01 -1.680217e+01 -9.991693e+00 -3.021446e+00 -1.503732e+01 -9.104754e+00 -9.870871e+00 4.462410e-01 -2.894829e+01 