# vtk DataFile Version 2.0
Comment goes here
ASCII

DATASET STRUCTURED_POINTS
FIELD FieldData 1
TIME 1 1 double
0.01500000
DIMENSIONS    512   128   1

ORIGIN    0.000   0.000   0.000
SPACING   0.0019531 0.0019531   1.000

POINT_DATA   65536
SCALARS uX double
LOOKUP_TABLE default

1.012223e-02 9.284193e-03 8.556761e-03 7.601666e-03 6.764333e-03 5.672106e-03 4.704856e-03 3.452296e-03 2.332161e-03 8.930218e-04 -4.053299e-04 -2.059265e-03 -3.561483e-03 -5.457442e-03 -7.184875e-03 -9.342983e-03 -1.130421e-02 -1.372712e-02 -1.590540e-02 -1.856463e-02 -2.090537e-02 -2.373154e-02 -2.614355e-02 -2.903869e-02 -3.143281e-02 -3.432345e-02 -3.668876e-02 -3.958607e-02 -4.200989e-02 -4.497255e-02 -4.752321e-02 -5.062108e-02 -5.336261e-02 -5.670112e-02 -5.965482e-02 -6.328261e-02 -6.646037e-02 -7.043101e-02 -7.388562e-02 -7.816158e-02 -8.192330e-02 -8.643822e-02 -9.058274e-02 -9.526042e-02 -9.973740e-02 -1.044725e-01 -1.091777e-01 -1.139169e-01 -1.186411e-01 -1.232109e-01 -1.277042e-01 -1.319582e-01 -1.360719e-01 -1.397835e-01 -1.433331e-01 -1.463133e-01 -1.492685e-01 -1.515507e-01 -1.538995e-01 -1.555514e-01 -1.572858e-01 -1.584555e-01 -1.596338e-01 -1.603974e-01 -1.610458e-01 -1.614302e-01 -1.616401e-01 -1.616561e-01 -1.614531e-01 -1.610608e-01 -1.604347e-01 -1.596588e-01 -1.585552e-01 -1.573592e-01 -1.556673e-01 -1.540058e-01 -1.516898e-01 -1.494615e-01 -1.464661e-01 -1.435246e-01 -1.399054e-01 -1.362203e-01 -1.320370e-01 -1.276208e-01 -1.229609e-01 -1.180920e-01 -1.132154e-01 -1.081879e-01 -1.032572e-01 -9.822884e-02 -9.345475e-02 -8.857385e-02 -8.409660e-02 -7.936895e-02 -7.524339e-02 -7.073676e-02 -6.698846e-02 -6.274254e-02 -5.928584e-02 -5.534716e-02 -5.215772e-02 -4.855751e-02 -4.558925e-02 -4.228394e-02 -3.954666e-02 -3.651731e-02 -3.402478e-02 -3.120668e-02 -2.894777e-02 -2.633250e-02 -2.429877e-02 -2.188282e-02 -2.001561e-02 -1.780544e-02 -1.608489e-02 -1.408652e-02 -1.248650e-02 -1.066742e-02 -9.191660e-03 -7.534737e-03 -6.192328e-03 -4.658635e-03 -3.442246e-03 -2.023872e-03 -9.283939e-04 3.767110e-04 1.383521e-03 2.574640e-03 3.503750e-03 4.578322e-03 5.442326e-03 6.420228e-03 7.217433e-03 8.109180e-03 8.833052e-03 9.659502e-03 1.031601e-02 1.108112e-02 1.167366e-02 1.237600e-02 1.292273e-02 1.356273e-02 1.406877e-02 1.464402e-02 1.511300e-02 1.563540e-02 1.606423e-02 1.653850e-02 1.691905e-02 1.735350e-02 1.768801e-02 1.808028e-02 1.836801e-02 1.871184e-02 1.896550e-02 1.926707e-02 1.950150e-02 1.977213e-02 1.999846e-02 2.025414e-02 2.047198e-02 2.071512e-02 2.091472e-02 2.114633e-02 2.132809e-02 2.154283e-02 2.170411e-02 2.189248e-02 2.203794e-02 2.220142e-02 2.233569e-02 2.248056e-02 2.260882e-02 2.274796e-02 2.287054e-02 2.300615e-02 2.311574e-02 2.324790e-02 2.334748e-02 2.347221e-02 2.356123e-02 2.366984e-02 2.375186e-02 2.384480e-02 2.392105e-02 2.400037e-02 2.407252e-02 2.414901e-02 2.421693e-02 2.429326e-02 2.435028e-02 2.442667e-02 2.447684e-02 2.455023e-02 2.459455e-02 2.465693e-02 2.470027e-02 2.475172e-02 2.479510e-02 2.483473e-02 2.487697e-02 2.491418e-02 2.495383e-02 2.499188e-02 2.502226e-02 2.506214e-02 2.508780e-02 2.512748e-02 2.515040e-02 2.518360e-02 2.520985e-02 2.523821e-02 2.526750e-02 2.528825e-02 2.531430e-02 2.533304e-02 2.535371e-02 2.537349e-02 2.538472e-02 2.540790e-02 2.541599e-02 2.544137e-02 2.544881e-02 2.547040e-02 2.548359e-02 2.550263e-02 2.552085e-02 2.553284e-02 2.554841e-02 2.555687e-02 2.556685e-02 2.557577e-02 2.557702e-02 2.559098e-02 2.559033e-02 2.560904e-02 2.560873e-02 2.562602e-02 2.563261e-02 2.564821e-02 2.566110e-02 2.566824e-02 2.567948e-02 2.567995e-02 2.568561e-02 2.568471e-02 2.568243e-02 2.568742e-02 2.568430e-02 2.569597e-02 2.569373e-02 2.570578e-02 2.571078e-02 2.572196e-02 2.573341e-02 2.573620e-02 2.574596e-02 2.574186e-02 2.574491e-02 2.573915e-02 2.573401e-02 2.573486e-02 2.572910e-02 2.573754e-02 2.573236e-02 2.574186e-02 2.574344e-02 2.575223e-02 2.575994e-02 2.576092e-02 2.576764e-02 2.576320e-02 2.576381e-02 2.575813e-02 2.575090e-02 2.575209e-02 2.574384e-02 2.575275e-02 2.574369e-02 2.575366e-02 2.574993e-02 2.575864e-02 2.576072e-02 2.576133e-02 2.576484e-02 2.576052e-02 2.576172e-02 2.575561e-02 2.575108e-02 2.575115e-02 2.574542e-02 2.575269e-02 2.574447e-02 2.575262e-02 2.574795e-02 2.575446e-02 2.575488e-02 2.575336e-02 2.575692e-02 2.575149e-02 2.575545e-02 2.574846e-02 2.574737e-02 2.574560e-02 2.574221e-02 2.574642e-02 2.573904e-02 2.574351e-02 2.573879e-02 2.574149e-02 2.574197e-02 2.573812e-02 2.574363e-02 2.573983e-02 2.574737e-02 2.574530e-02 2.574554e-02 2.574753e-02 2.574138e-02 2.574729e-02 2.573474e-02 2.574070e-02 2.573047e-02 2.573530e-02 2.573104e-02 2.573002e-02 2.573274e-02 2.573192e-02 2.573890e-02 2.573825e-02 2.573906e-02 2.573919e-02 2.573273e-02 2.573462e-02 2.572108e-02 2.572355e-02 2.571255e-02 2.571541e-02 2.571099e-02 2.570922e-02 2.571282e-02 2.571155e-02 2.572017e-02 2.571801e-02 2.572014e-02 2.571679e-02 2.570960e-02 2.570654e-02 2.569113e-02 2.568919e-02 2.567665e-02 2.567622e-02 2.567095e-02 2.566663e-02 2.567003e-02 2.566635e-02 2.567460e-02 2.567001e-02 2.567056e-02 2.566508e-02 2.565373e-02 2.564810e-02 2.562655e-02 2.562202e-02 2.560223e-02 2.559868e-02 2.558476e-02 2.557546e-02 2.556859e-02 2.555723e-02 2.555494e-02 2.554245e-02 2.553735e-02 2.552983e-02 2.552158e-02 2.552027e-02 2.550570e-02 2.550727e-02 2.549342e-02 2.549503e-02 2.548483e-02 2.547962e-02 2.547537e-02 2.546706e-02 2.546716e-02 2.545655e-02 2.545416e-02 2.544784e-02 2.544227e-02 2.544187e-02 2.542947e-02 2.543232e-02 2.541991e-02 2.542311e-02 2.541359e-02 2.541005e-02 2.540631e-02 2.539921e-02 2.540001e-02 2.538968e-02 2.538852e-02 2.538181e-02 2.537757e-02 2.537646e-02 2.536497e-02 2.536736e-02 2.535515e-02 2.535815e-02 2.534803e-02 2.534437e-02 2.533976e-02 2.533211e-02 2.533211e-02 2.532034e-02 2.531879e-02 2.530996e-02 2.530538e-02 2.530169e-02 2.528947e-02 2.528937e-02 2.527576e-02 2.527639e-02 2.526405e-02 2.525802e-02 2.525081e-02 2.524033e-02 2.523769e-02 2.522217e-02 2.521827e-02 2.520488e-02 2.519794e-02 2.518905e-02 2.517408e-02 2.516862e-02 2.515155e-02 2.514673e-02 2.513005e-02 2.511839e-02 2.510634e-02 2.508960e-02 2.508191e-02 2.505910e-02 2.505025e-02 2.502853e-02 2.501651e-02 2.499838e-02 2.497786e-02 2.496263e-02 2.493926e-02 2.492421e-02 2.490029e-02 2.487789e-02 2.485792e-02 2.482955e-02 2.481353e-02 2.477781e-02 2.476051e-02 2.472447e-02 2.470371e-02 2.466990e-02 2.464008e-02 2.460802e-02 2.457447e-02 2.454147e-02 2.450620e-02 2.446453e-02 2.443207e-02 2.438248e-02 2.435274e-02 2.429303e-02 2.426039e-02 2.419650e-02 2.415764e-02 2.409047e-02 2.403773e-02 2.396417e-02 2.389917e-02 2.381194e-02 2.373075e-02 2.361439e-02 2.351202e-02 2.335476e-02 2.321667e-02 2.299853e-02 2.279970e-02 2.250655e-02 2.222596e-02 2.184875e-02 2.148019e-02 2.103499e-02 2.061556e-02 2.014409e-02 1.972065e-02 1.925639e-02 1.885516e-02 1.840940e-02 1.803380e-02 1.760094e-02 1.724115e-02 1.680769e-02 1.644911e-02 1.599958e-02 1.562724e-02 1.514674e-02 1.474683e-02 1.422160e-02 1.378147e-02 1.319846e-02 1.270606e-02 1.205226e-02 1.149530e-02 1.075698e-02 
9.966507e-03 9.107713e-03 8.404040e-03 7.425602e-03 6.615221e-03 5.496638e-03 4.559937e-03 3.277423e-03 2.191796e-03 7.182688e-04 -5.413833e-04 -2.235372e-03 -3.694712e-03 -5.638189e-03 -7.318916e-03 -9.534490e-03 -1.144573e-02 -1.393901e-02 -1.606396e-02 -1.880874e-02 -2.108991e-02 -2.401603e-02 -2.635344e-02 -2.935707e-02 -3.164774e-02 -3.464942e-02 -3.687707e-02 -3.989439e-02 -4.215973e-02 -4.525767e-02 -4.762393e-02 -5.087264e-02 -5.340282e-02 -5.692456e-02 -5.962618e-02 -6.346716e-02 -6.633565e-02 -7.056668e-02 -7.365303e-02 -7.822915e-02 -8.154879e-02 -8.639831e-02 -9.004746e-02 -9.508848e-02 -9.900957e-02 -1.041187e-01 -1.082235e-01 -1.133601e-01 -1.174489e-01 -1.224108e-01 -1.262493e-01 -1.308935e-01 -1.343881e-01 -1.384588e-01 -1.414424e-01 -1.447198e-01 -1.472074e-01 -1.497315e-01 -1.517205e-01 -1.535494e-01 -1.550231e-01 -1.563223e-01 -1.573334e-01 -1.581808e-01 -1.587323e-01 -1.591578e-01 -1.593417e-01 -1.593629e-01 -1.591965e-01 -1.587653e-01 -1.582413e-01 -1.573912e-01 -1.564667e-01 -1.551518e-01 -1.537187e-01 -1.518896e-01 -1.499357e-01 -1.474861e-01 -1.449534e-01 -1.417189e-01 -1.386641e-01 -1.346314e-01 -1.310854e-01 -1.262626e-01 -1.222496e-01 -1.169594e-01 -1.127262e-01 -1.072983e-01 -1.029596e-01 -9.754500e-02 -9.330850e-02 -8.807885e-02 -8.408406e-02 -7.902396e-02 -7.531930e-02 -7.051158e-02 -6.713607e-02 -6.262172e-02 -5.947085e-02 -5.530086e-02 -5.236644e-02 -4.857833e-02 -4.581344e-02 -4.234553e-02 -3.977594e-02 -3.661202e-02 -3.426447e-02 -3.132146e-02 -2.918731e-02 -2.646045e-02 -2.454101e-02 -2.202596e-02 -2.025193e-02 -1.795659e-02 -1.631496e-02 -1.424935e-02 -1.271147e-02 -1.083388e-02 -9.409741e-03 -7.705031e-03 -6.409477e-03 -4.829279e-03 -3.654899e-03 -2.193398e-03 -1.139413e-03 2.051576e-04 1.177687e-03 2.403636e-03 3.303028e-03 4.404753e-03 5.245701e-03 6.247616e-03 7.026013e-03 7.937258e-03 8.643460e-03 9.489905e-03 1.013045e-02 1.091512e-02 1.149103e-02 1.221202e-02 1.274545e-02 1.340294e-02 1.389789e-02 1.448719e-02 1.494857e-02 1.548400e-02 1.590761e-02 1.639262e-02 1.676767e-02 1.721283e-02 1.754084e-02 1.794151e-02 1.821705e-02 1.856328e-02 1.879971e-02 1.909928e-02 1.931818e-02 1.958855e-02 1.980716e-02 2.006765e-02 2.028397e-02 2.053360e-02 2.073322e-02 2.097238e-02 2.115468e-02 2.137636e-02 2.153551e-02 2.172709e-02 2.186693e-02 2.202969e-02 2.215664e-02 2.230107e-02 2.242531e-02 2.256738e-02 2.268957e-02 2.282913e-02 2.293897e-02 2.307551e-02 2.317610e-02 2.330522e-02 2.339418e-02 2.350531e-02 2.358534e-02 2.367870e-02 2.375086e-02 2.382990e-02 2.389940e-02 2.397754e-02 2.404523e-02 2.412368e-02 2.418054e-02 2.425915e-02 2.430965e-02 2.438551e-02 2.442943e-02 2.449341e-02 2.453555e-02 2.458791e-02 2.462913e-02 2.466842e-02 2.470921e-02 2.474689e-02 2.478661e-02 2.482515e-02 2.485526e-02 2.489539e-02 2.492110e-02 2.496107e-02 2.498366e-02 2.501684e-02 2.504353e-02 2.507324e-02 2.510345e-02 2.512539e-02 2.515083e-02 2.517004e-02 2.518952e-02 2.520890e-02 2.521845e-02 2.524113e-02 2.524852e-02 2.527373e-02 2.528072e-02 2.530230e-02 2.531646e-02 2.533754e-02 2.535772e-02 2.537172e-02 2.538708e-02 2.539551e-02 2.540362e-02 2.541103e-02 2.540999e-02 2.542285e-02 2.542135e-02 2.544003e-02 2.543942e-02 2.545744e-02 2.546538e-02 2.548412e-02 2.549955e-02 2.550945e-02 2.552094e-02 2.552059e-02 2.552390e-02 2.552004e-02 2.551508e-02 2.551809e-02 2.551430e-02 2.552571e-02 2.552367e-02 2.553655e-02 2.554352e-02 2.555791e-02 2.557254e-02 2.557807e-02 2.558865e-02 2.558365e-02 2.558390e-02 2.557486e-02 2.556653e-02 2.556535e-02 2.555886e-02 2.556714e-02 2.556234e-02 2.557256e-02 2.557614e-02 2.558758e-02 2.559823e-02 2.560145e-02 2.560898e-02 2.560413e-02 2.560199e-02 2.559359e-02 2.558329e-02 2.558300e-02 2.557418e-02 2.558333e-02 2.557449e-02 2.558526e-02 2.558274e-02 2.559367e-02 2.559729e-02 2.559964e-02 2.560322e-02 2.559892e-02 2.559818e-02 2.558987e-02 2.558347e-02 2.558233e-02 2.557689e-02 2.558442e-02 2.557665e-02 2.558531e-02 2.558139e-02 2.558939e-02 2.559036e-02 2.558981e-02 2.559311e-02 2.558798e-02 2.559106e-02 2.558272e-02 2.558072e-02 2.557808e-02 2.557523e-02 2.557933e-02 2.557219e-02 2.557627e-02 2.557183e-02 2.557451e-02 2.557506e-02 2.557078e-02 2.557658e-02 2.557369e-02 2.558243e-02 2.558168e-02 2.558197e-02 2.558424e-02 2.557755e-02 2.558299e-02 2.556913e-02 2.557423e-02 2.556318e-02 2.556787e-02 2.556300e-02 2.556191e-02 2.556483e-02 2.556598e-02 2.557485e-02 2.557665e-02 2.557828e-02 2.557833e-02 2.557105e-02 2.557114e-02 2.555575e-02 2.555642e-02 2.554446e-02 2.554693e-02 2.554213e-02 2.554063e-02 2.554502e-02 2.554645e-02 2.555786e-02 2.555885e-02 2.556251e-02 2.555895e-02 2.555034e-02 2.554451e-02 2.552643e-02 2.552199e-02 2.550832e-02 2.550727e-02 2.550210e-02 2.549803e-02 2.550304e-02 2.550209e-02 2.551395e-02 2.551273e-02 2.551528e-02 2.551024e-02 2.549691e-02 2.548868e-02 2.546366e-02 2.545683e-02 2.543550e-02 2.543150e-02 2.541715e-02 2.540746e-02 2.540047e-02 2.538938e-02 2.538727e-02 2.537475e-02 2.536931e-02 2.536195e-02 2.535387e-02 2.535277e-02 2.533789e-02 2.533938e-02 2.532563e-02 2.532754e-02 2.531734e-02 2.531187e-02 2.530758e-02 2.529954e-02 2.529982e-02 2.528913e-02 2.528645e-02 2.528027e-02 2.527492e-02 2.527471e-02 2.526202e-02 2.526480e-02 2.525253e-02 2.525605e-02 2.524651e-02 2.524273e-02 2.523898e-02 2.523215e-02 2.523316e-02 2.522269e-02 2.522130e-02 2.521470e-02 2.521074e-02 2.520973e-02 2.519800e-02 2.520028e-02 2.518826e-02 2.519153e-02 2.518141e-02 2.517745e-02 2.517287e-02 2.516544e-02 2.516567e-02 2.515367e-02 2.515196e-02 2.514315e-02 2.513892e-02 2.513522e-02 2.512282e-02 2.512252e-02 2.510917e-02 2.510996e-02 2.509768e-02 2.509123e-02 2.508416e-02 2.507375e-02 2.507143e-02 2.505553e-02 2.505159e-02 2.503806e-02 2.503159e-02 2.502251e-02 2.500748e-02 2.500165e-02 2.498500e-02 2.498011e-02 2.496366e-02 2.495133e-02 2.493962e-02 2.492270e-02 2.491553e-02 2.489204e-02 2.488339e-02 2.486123e-02 2.484992e-02 2.483127e-02 2.481095e-02 2.479498e-02 2.477235e-02 2.475680e-02 2.473346e-02 2.470992e-02 2.469070e-02 2.466160e-02 2.464656e-02 2.460957e-02 2.459293e-02 2.455586e-02 2.453628e-02 2.450131e-02 2.447223e-02 2.443870e-02 2.440652e-02 2.437217e-02 2.433823e-02 2.429446e-02 2.426358e-02 2.421225e-02 2.418443e-02 2.412237e-02 2.409146e-02 2.402544e-02 2.398899e-02 2.391960e-02 2.386909e-02 2.379305e-02 2.373134e-02 2.364192e-02 2.356458e-02 2.344559e-02 2.334814e-02 2.318903e-02 2.305701e-02 2.283663e-02 2.264378e-02 2.234757e-02 2.207210e-02 2.168878e-02 2.132212e-02 2.086730e-02 2.044941e-02 1.996811e-02 1.954870e-02 1.907594e-02 1.868153e-02 1.822807e-02 1.786128e-02 1.742055e-02 1.707086e-02 1.662867e-02 1.628118e-02 1.582167e-02 1.546143e-02 1.496953e-02 1.458291e-02 1.404471e-02 1.361934e-02 1.302168e-02 1.254577e-02 1.187550e-02 1.133709e-02 1.058028e-02 
1.021840e-02 9.389034e-03 8.670209e-03 7.725154e-03 6.897829e-03 5.817204e-03 4.861437e-03 3.622001e-03 2.514531e-03 1.089504e-03 -1.960241e-04 -1.836341e-03 -3.327889e-03 -5.213779e-03 -6.936927e-03 -9.093699e-03 -1.106329e-02 -1.350043e-02 -1.570600e-02 -1.839987e-02 -2.078614e-02 -2.366117e-02 -2.611763e-02 -2.904934e-02 -3.144879e-02 -3.433380e-02 -3.665539e-02 -3.952332e-02 -4.191285e-02 -4.484047e-02 -4.735902e-02 -5.040409e-02 -5.313486e-02 -5.644883e-02 -5.939646e-02 -6.299734e-02 -6.614858e-02 -7.013780e-02 -7.357701e-02 -7.788598e-02 -8.160963e-02 -8.616247e-02 -9.033180e-02 -9.506177e-02 -9.959057e-02 -1.043520e-01 -1.091614e-01 -1.139866e-01 -1.188353e-01 -1.234778e-01 -1.280448e-01 -1.324115e-01 -1.366168e-01 -1.404223e-01 -1.439867e-01 -1.469500e-01 -1.499113e-01 -1.521594e-01 -1.545120e-01 -1.560899e-01 -1.577954e-01 -1.589268e-01 -1.600919e-01 -1.608422e-01 -1.614451e-01 -1.618241e-01 -1.620211e-01 -1.620569e-01 -1.618591e-01 -1.614547e-01 -1.608556e-01 -1.600977e-01 -1.590495e-01 -1.578764e-01 -1.562025e-01 -1.545913e-01 -1.523028e-01 -1.501477e-01 -1.471248e-01 -1.441987e-01 -1.405498e-01 -1.368585e-01 -1.326321e-01 -1.280775e-01 -1.232887e-01 -1.182736e-01 -1.133163e-01 -1.082106e-01 -1.031752e-01 -9.807334e-02 -9.322962e-02 -8.834610e-02 -8.384182e-02 -7.908076e-02 -7.494281e-02 -7.041662e-02 -6.671135e-02 -6.244247e-02 -5.899831e-02 -5.504430e-02 -5.187811e-02 -4.829988e-02 -4.532699e-02 -4.203146e-02 -3.928751e-02 -3.629073e-02 -3.380395e-02 -3.099031e-02 -2.873588e-02 -2.612254e-02 -2.411834e-02 -2.169931e-02 -1.984227e-02 -1.762925e-02 -1.592196e-02 -1.394001e-02 -1.233823e-02 -1.052791e-02 -9.047694e-03 -7.410417e-03 -6.071690e-03 -4.542029e-03 -3.328261e-03 -1.910887e-03 -8.315902e-04 4.740727e-04 1.475446e-03 2.668096e-03 3.591098e-03 4.656067e-03 5.521458e-03 6.494570e-03 7.295850e-03 8.177826e-03 8.899889e-03 9.725561e-03 1.038189e-02 1.114946e-02 1.173486e-02 1.243951e-02 1.298643e-02 1.363086e-02 1.413865e-02 1.471172e-02 1.518690e-02 1.571121e-02 1.614912e-02 1.662333e-02 1.700717e-02 1.744638e-02 1.778284e-02 1.817791e-02 1.845280e-02 1.878391e-02 1.901243e-02 1.929091e-02 1.950314e-02 1.975499e-02 1.997634e-02 2.022994e-02 2.045611e-02 2.070297e-02 2.090916e-02 2.114937e-02 2.133953e-02 2.156366e-02 2.172653e-02 2.191336e-02 2.205293e-02 2.220502e-02 2.232871e-02 2.246165e-02 2.258687e-02 2.272561e-02 2.285396e-02 2.299313e-02 2.310536e-02 2.324374e-02 2.334841e-02 2.348123e-02 2.357248e-02 2.368232e-02 2.376347e-02 2.385236e-02 2.392282e-02 2.399408e-02 2.406390e-02 2.413970e-02 2.421177e-02 2.429017e-02 2.434702e-02 2.442730e-02 2.447884e-02 2.455851e-02 2.460179e-02 2.466578e-02 2.470808e-02 2.475941e-02 2.480066e-02 2.483392e-02 2.487584e-02 2.491079e-02 2.495449e-02 2.499193e-02 2.502111e-02 2.506149e-02 2.508692e-02 2.512865e-02 2.514938e-02 2.518096e-02 2.520930e-02 2.523987e-02 2.527488e-02 2.529484e-02 2.532170e-02 2.533909e-02 2.535939e-02 2.537691e-02 2.538286e-02 2.540532e-02 2.541104e-02 2.543798e-02 2.544235e-02 2.546297e-02 2.547894e-02 2.550279e-02 2.552889e-02 2.554312e-02 2.556033e-02 2.556629e-02 2.557399e-02 2.557769e-02 2.557215e-02 2.558404e-02 2.558063e-02 2.560159e-02 2.559811e-02 2.561692e-02 2.562653e-02 2.565046e-02 2.567216e-02 2.568403e-02 2.569824e-02 2.569400e-02 2.569615e-02 2.568590e-02 2.567606e-02 2.567679e-02 2.567153e-02 2.568513e-02 2.568075e-02 2.569503e-02 2.570426e-02 2.572429e-02 2.574586e-02 2.575344e-02 2.576779e-02 2.575888e-02 2.575698e-02 2.574089e-02 2.572684e-02 2.572337e-02 2.571551e-02 2.572630e-02 2.571939e-02 2.573118e-02 2.573696e-02 2.575329e-02 2.577019e-02 2.577452e-02 2.578576e-02 2.577809e-02 2.577380e-02 2.575906e-02 2.574338e-02 2.574144e-02 2.573176e-02 2.574399e-02 2.573285e-02 2.574569e-02 2.574396e-02 2.575949e-02 2.576661e-02 2.576941e-02 2.577518e-02 2.576903e-02 2.576775e-02 2.575352e-02 2.574406e-02 2.574120e-02 2.573653e-02 2.574689e-02 2.573718e-02 2.574775e-02 2.574371e-02 2.575554e-02 2.575795e-02 2.575677e-02 2.576142e-02 2.575507e-02 2.575964e-02 2.574663e-02 2.574330e-02 2.573925e-02 2.573757e-02 2.574387e-02 2.573439e-02 2.573925e-02 2.573395e-02 2.573816e-02 2.573907e-02 2.573141e-02 2.573936e-02 2.573590e-02 2.575001e-02 2.574948e-02 2.574993e-02 2.575247e-02 2.574484e-02 2.575145e-02 2.573271e-02 2.573793e-02 2.572435e-02 2.573063e-02 2.572480e-02 2.572109e-02 2.572567e-02 2.572814e-02 2.574335e-02 2.574732e-02 2.575084e-02 2.575013e-02 2.574172e-02 2.574036e-02 2.571939e-02 2.571878e-02 2.570409e-02 2.570806e-02 2.570236e-02 2.569898e-02 2.570565e-02 2.570966e-02 2.572874e-02 2.573294e-02 2.574006e-02 2.573528e-02 2.572454e-02 2.571541e-02 2.569032e-02 2.568371e-02 2.566701e-02 2.566746e-02 2.566193e-02 2.565618e-02 2.566472e-02 2.566626e-02 2.568719e-02 2.568903e-02 2.569612e-02 2.569082e-02 2.567428e-02 2.566275e-02 2.562931e-02 2.562080e-02 2.559597e-02 2.559431e-02 2.557912e-02 2.556767e-02 2.556192e-02 2.555002e-02 2.555139e-02 2.553596e-02 2.553094e-02 2.552292e-02 2.551613e-02 2.551659e-02 2.549854e-02 2.550157e-02 2.548628e-02 2.549126e-02 2.548009e-02 2.547300e-02 2.546965e-02 2.546093e-02 2.546451e-02 2.545074e-02 2.544870e-02 2.544169e-02 2.543791e-02 2.543900e-02 2.542327e-02 2.542765e-02 2.541385e-02 2.542063e-02 2.540981e-02 2.540474e-02 2.540173e-02 2.539450e-02 2.539863e-02 2.538498e-02 2.538445e-02 2.537687e-02 2.537473e-02 2.537477e-02 2.536010e-02 2.536403e-02 2.535047e-02 2.535715e-02 2.534543e-02 2.534049e-02 2.533641e-02 2.532885e-02 2.533199e-02 2.531678e-02 2.531604e-02 2.530616e-02 2.530391e-02 2.530106e-02 2.528579e-02 2.528718e-02 2.527226e-02 2.527662e-02 2.526241e-02 2.525532e-02 2.524846e-02 2.523827e-02 2.523857e-02 2.521954e-02 2.521658e-02 2.520203e-02 2.519760e-02 2.518928e-02 2.517138e-02 2.516737e-02 2.514906e-02 2.514799e-02 2.512924e-02 2.511672e-02 2.510485e-02 2.508860e-02 2.508367e-02 2.505734e-02 2.504953e-02 2.502658e-02 2.501721e-02 2.499944e-02 2.497614e-02 2.496230e-02 2.493777e-02 2.492649e-02 2.490034e-02 2.487728e-02 2.485734e-02 2.482964e-02 2.481625e-02 2.477703e-02 2.476085e-02 2.472356e-02 2.470557e-02 2.467201e-02 2.463957e-02 2.460888e-02 2.457431e-02 2.454515e-02 2.450766e-02 2.446563e-02 2.443322e-02 2.438473e-02 2.435781e-02 2.429514e-02 2.426420e-02 2.419985e-02 2.416480e-02 2.409921e-02 2.404568e-02 2.397577e-02 2.391274e-02 2.383323e-02 2.375453e-02 2.364408e-02 2.354899e-02 2.340172e-02 2.327612e-02 2.306506e-02 2.287675e-02 2.258812e-02 2.231067e-02 2.192556e-02 2.153868e-02 2.107289e-02 2.063027e-02 2.014223e-02 1.970580e-02 1.923596e-02 1.883304e-02 1.839010e-02 1.801940e-02 1.759328e-02 1.724081e-02 1.681508e-02 1.646399e-02 1.602190e-02 1.565646e-02 1.518285e-02 1.478926e-02 1.427055e-02 1.383647e-02 1.325996e-02 1.277369e-02 1.212676e-02 1.157642e-02 1.084569e-02 
1.015836e-02 9.317224e-03 8.630365e-03 7.672430e-03 6.881660e-03 5.786865e-03 4.872769e-03 3.617343e-03 2.556812e-03 1.112737e-03 -1.212558e-04 -1.786212e-03 -3.223859e-03 -5.144717e-03 -6.816323e-03 -9.026281e-03 -1.095435e-02 -1.347377e-02 -1.565616e-02 -1.847093e-02 -2.085183e-02 -2.388131e-02 -2.632111e-02 -2.940355e-02 -3.171001e-02 -3.469390e-02 -3.682072e-02 -3.977285e-02 -4.197451e-02 -4.500183e-02 -4.730480e-02 -5.043096e-02 -5.295317e-02 -5.642792e-02 -5.913356e-02 -6.290333e-02 -6.572044e-02 -6.999565e-02 -7.306553e-02 -7.771268e-02 -8.093539e-02 -8.586612e-02 -8.957138e-02 -9.473441e-02 -9.874249e-02 -1.038908e-01 -1.081935e-01 -1.135295e-01 -1.178502e-01 -1.229534e-01 -1.268838e-01 -1.317811e-01 -1.354394e-01 -1.397276e-01 -1.426958e-01 -1.459332e-01 -1.484229e-01 -1.508876e-01 -1.528930e-01 -1.545567e-01 -1.559782e-01 -1.571992e-01 -1.582064e-01 -1.590236e-01 -1.594839e-01 -1.598920e-01 -1.600576e-01 -1.601263e-01 -1.599672e-01 -1.595031e-01 -1.590217e-01 -1.582163e-01 -1.573993e-01 -1.561341e-01 -1.547131e-01 -1.529896e-01 -1.510927e-01 -1.488070e-01 -1.462190e-01 -1.429990e-01 -1.399133e-01 -1.358721e-01 -1.323041e-01 -1.271628e-01 -1.229073e-01 -1.172905e-01 -1.129444e-01 -1.073675e-01 -1.028242e-01 -9.724053e-02 -9.286615e-02 -8.765284e-02 -8.361100e-02 -7.846993e-02 -7.472773e-02 -6.987995e-02 -6.660943e-02 -6.204514e-02 -5.890375e-02 -5.469719e-02 -5.181020e-02 -4.808424e-02 -4.529446e-02 -4.184368e-02 -3.924803e-02 -3.616754e-02 -3.382907e-02 -3.089154e-02 -2.875681e-02 -2.603472e-02 -2.418485e-02 -2.166230e-02 -1.990193e-02 -1.759704e-02 -1.598438e-02 -1.396072e-02 -1.241318e-02 -1.055123e-02 -9.112558e-03 -7.456461e-03 -6.168421e-03 -4.594304e-03 -3.421004e-03 -1.961383e-03 -9.464261e-04 3.999571e-04 1.364047e-03 2.595671e-03 3.480485e-03 4.558118e-03 5.403648e-03 6.396744e-03 7.185469e-03 8.071482e-03 8.772328e-03 9.616884e-03 1.025779e-02 1.104605e-02 1.160175e-02 1.232512e-02 1.285722e-02 1.352250e-02 1.401608e-02 1.459483e-02 1.506504e-02 1.560115e-02 1.604043e-02 1.651889e-02 1.689670e-02 1.734967e-02 1.768397e-02 1.809341e-02 1.834846e-02 1.867723e-02 1.887527e-02 1.914144e-02 1.932776e-02 1.956874e-02 1.978421e-02 2.004439e-02 2.027800e-02 2.053106e-02 2.073782e-02 2.098962e-02 2.118425e-02 2.142250e-02 2.158095e-02 2.177011e-02 2.190013e-02 2.204515e-02 2.215520e-02 2.227883e-02 2.239985e-02 2.254249e-02 2.267675e-02 2.282014e-02 2.293088e-02 2.307593e-02 2.318339e-02 2.332645e-02 2.341611e-02 2.352822e-02 2.360683e-02 2.369415e-02 2.375709e-02 2.382062e-02 2.388719e-02 2.396459e-02 2.404182e-02 2.412244e-02 2.417659e-02 2.426044e-02 2.431284e-02 2.439993e-02 2.444019e-02 2.450538e-02 2.454611e-02 2.459936e-02 2.463780e-02 2.466439e-02 2.470492e-02 2.473947e-02 2.478824e-02 2.482583e-02 2.485177e-02 2.489317e-02 2.491832e-02 2.496389e-02 2.498021e-02 2.500953e-02 2.503856e-02 2.507318e-02 2.511378e-02 2.513232e-02 2.515889e-02 2.517540e-02 2.519676e-02 2.521210e-02 2.521202e-02 2.523421e-02 2.523872e-02 2.526882e-02 2.526846e-02 2.528687e-02 2.530438e-02 2.533424e-02 2.536846e-02 2.538418e-02 2.540219e-02 2.540573e-02 2.541252e-02 2.541105e-02 2.539831e-02 2.540876e-02 2.540425e-02 2.542868e-02 2.542064e-02 2.543887e-02 2.545041e-02 2.548302e-02 2.551378e-02 2.552958e-02 2.554613e-02 2.553744e-02 2.553700e-02 2.551795e-02 2.550003e-02 2.549792e-02 2.549217e-02 2.550932e-02 2.550112e-02 2.551566e-02 2.552762e-02 2.555680e-02 2.558819e-02 2.559984e-02 2.561832e-02 2.560505e-02 2.559898e-02 2.557284e-02 2.554963e-02 2.554328e-02 2.553535e-02 2.555015e-02 2.553994e-02 2.555237e-02 2.556091e-02 2.558531e-02 2.561087e-02 2.561763e-02 2.563318e-02 2.562285e-02 2.561457e-02 2.559043e-02 2.556612e-02 2.556199e-02 2.555314e-02 2.556998e-02 2.555564e-02 2.556963e-02 2.556933e-02 2.559204e-02 2.560420e-02 2.560776e-02 2.561582e-02 2.560856e-02 2.560574e-02 2.558295e-02 2.556765e-02 2.556284e-02 2.556079e-02 2.557563e-02 2.556306e-02 2.557472e-02 2.557102e-02 2.558878e-02 2.559321e-02 2.559074e-02 2.559631e-02 2.558986e-02 2.559601e-02 2.557665e-02 2.556974e-02 2.556435e-02 2.556556e-02 2.557556e-02 2.556257e-02 2.556745e-02 2.556139e-02 2.556876e-02 2.556947e-02 2.555654e-02 2.556560e-02 2.556299e-02 2.558466e-02 2.558523e-02 2.558471e-02 2.558738e-02 2.557961e-02 2.558753e-02 2.556208e-02 2.556612e-02 2.555019e-02 2.555939e-02 2.555199e-02 2.554349e-02 2.554884e-02 2.555447e-02 2.557894e-02 2.558714e-02 2.559224e-02 2.559040e-02 2.558082e-02 2.557718e-02 2.554800e-02 2.554460e-02 2.552726e-02 2.553415e-02 2.552691e-02 2.551963e-02 2.552787e-02 2.553670e-02 2.556682e-02 2.557698e-02 2.558808e-02 2.558180e-02 2.556804e-02 2.555387e-02 2.551839e-02 2.550787e-02 2.548821e-02 2.549173e-02 2.548535e-02 2.547611e-02 2.548766e-02 2.549408e-02 2.552755e-02 2.553524e-02 2.554798e-02 2.554284e-02 2.552190e-02 2.550485e-02 2.545940e-02 2.544748e-02 2.541985e-02 2.542265e-02 2.540706e-02 2.539271e-02 2.538800e-02 2.537678e-02 2.538278e-02 2.536379e-02 2.535763e-02 2.534927e-02 2.534517e-02 2.534786e-02 2.532511e-02 2.532885e-02 2.531267e-02 2.532228e-02 2.530988e-02 2.529965e-02 2.529681e-02 2.528879e-02 2.529662e-02 2.527894e-02 2.527604e-02 2.526852e-02 2.526774e-02 2.527062e-02 2.525032e-02 2.525550e-02 2.524092e-02 2.525243e-02 2.524002e-02 2.523209e-02 2.522951e-02 2.522324e-02 2.523144e-02 2.521361e-02 2.521254e-02 2.520429e-02 2.520549e-02 2.520690e-02 2.518780e-02 2.519254e-02 2.517834e-02 2.518978e-02 2.517615e-02 2.516857e-02 2.516483e-02 2.515844e-02 2.516545e-02 2.514583e-02 2.514483e-02 2.513412e-02 2.513549e-02 2.513358e-02 2.511407e-02 2.511620e-02 2.510082e-02 2.510988e-02 2.509355e-02 2.508394e-02 2.507739e-02 2.506847e-02 2.507253e-02 2.504885e-02 2.504593e-02 2.503033e-02 2.502983e-02 2.502201e-02 2.500012e-02 2.499668e-02 2.497818e-02 2.498162e-02 2.496070e-02 2.494563e-02 2.493416e-02 2.491913e-02 2.491800e-02 2.488669e-02 2.487930e-02 2.485498e-02 2.484993e-02 2.483213e-02 2.480523e-02 2.479158e-02 2.476729e-02 2.476011e-02 2.473199e-02 2.470609e-02 2.468684e-02 2.466003e-02 2.465074e-02 2.460601e-02 2.459079e-02 2.455154e-02 2.453846e-02 2.450414e-02 2.446877e-02 2.443756e-02 2.440397e-02 2.437817e-02 2.433945e-02 2.429394e-02 2.426308e-02 2.421483e-02 2.419315e-02 2.412442e-02 2.409604e-02 2.402939e-02 2.400140e-02 2.393532e-02 2.388204e-02 2.381278e-02 2.375543e-02 2.368215e-02 2.360936e-02 2.350101e-02 2.341801e-02 2.327997e-02 2.317414e-02 2.296833e-02 2.279732e-02 2.251236e-02 2.224553e-02 2.184705e-02 2.144130e-02 2.094253e-02 2.047585e-02 1.996023e-02 1.951474e-02 1.903142e-02 1.863452e-02 1.818767e-02 1.783140e-02 1.740487e-02 1.707009e-02 1.664375e-02 1.631120e-02 1.586678e-02 1.552016e-02 1.504216e-02 1.466793e-02 1.414289e-02 1.372930e-02 1.314480e-02 1.268084e-02 1.202450e-02 1.149897e-02 1.075761e-02 