# vtk DataFile Version 2.0
Comment goes here
ASCII

DATASET STRUCTURED_POINTS
FIELD FieldData 1
TIME 1 1 double
0.03900000
DIMENSIONS    64   64   1

ORIGIN    0.000   0.000   0.000
SPACING   0.03125 0.03125   1.000

POINT_DATA   4096
SCALARS uX double
LOOKUP_TABLE default

7.427229e-01 -1.205582e+00 4.631139e-01 -1.062668e+00 2.298510e-01 -9.614243e-01 2.662490e-01 -8.837379e-01 2.856566e-01 -8.305845e-01 2.915638e-01 -7.865986e-01 2.859187e-01 -7.352065e-01 2.437925e-01 -6.329280e-01 1.253193e-01 -4.576833e-01 -5.692076e-02 -2.399163e-01 -2.630114e-01 -1.989293e-02 -4.551621e-01 1.669120e-01 -5.982488e-01 2.922227e-01 -6.779518e-01 3.552830e-01 -6.991286e-01 3.588712e-01 -6.693681e-01 3.214840e-01 -6.193096e-01 2.729896e-01 -5.713601e-01 2.312414e-01 -5.409023e-01 2.120211e-01 -5.431450e-01 2.302137e-01 -5.889452e-01 2.906018e-01 -6.728208e-01 3.767297e-01 -7.655541e-01 4.468121e-01 -8.132389e-01 4.482984e-01 -7.766851e-01 3.574176e-01 -6.547881e-01 1.898237e-01 -4.780984e-01 -1.647554e-02 -2.790700e-01 -2.406974e-01 -7.522001e-02 -4.724603e-01 1.303819e-01 -7.150062e-01 3.358052e-01 -9.615336e-01 5.345516e-01 -1.210599e+00 
-4.948035e-01 3.113884e-01 -2.101257e-01 2.313419e-01 5.614949e-03 1.885922e-01 -1.333843e-01 1.479159e-01 -2.224893e-01 1.244081e-01 -2.825342e-01 1.080650e-01 -3.260272e-01 9.076114e-02 -3.438426e-01 4.557261e-02 -3.141330e-01 -4.001926e-02 -2.467734e-01 -1.485695e-01 -1.648385e-01 -2.593093e-01 -8.603475e-02 -3.538332e-01 -2.864337e-02 -4.184397e-01 -1.272783e-04 -4.541714e-01 2.421727e-03 -4.583734e-01 -2.024863e-02 -4.394576e-01 -5.094368e-02 -4.151072e-01 -7.701820e-02 -3.934581e-01 -9.190574e-02 -3.824353e-01 -8.833872e-02 -3.902630e-01 -6.102882e-02 -4.188084e-01 -1.352996e-02 -4.605426e-01 4.001741e-02 -4.955565e-01 7.251778e-02 -4.956791e-01 6.377753e-02 -4.499635e-01 1.418879e-02 -3.659068e-01 -5.857232e-02 -2.645993e-01 -1.368972e-01 -1.556157e-01 -2.109795e-01 -4.500533e-02 -2.782857e-01 7.034046e-02 -3.374907e-01 1.866646e-01 -3.861994e-01 3.131924e-01 
6.931922e-01 5.485365e-01 6.951124e-01 4.455880e-01 5.323463e-01 3.709490e-01 8.693728e-01 3.494968e-01 1.086817e+00 3.243540e-01 1.243794e+00 3.015998e-01 1.362367e+00 2.787072e-01 1.475367e+00 2.237320e-01 1.622502e+00 1.210590e-01 1.799260e+00 -5.179694e-03 1.982951e+00 -1.302780e-01 2.146067e+00 -2.324746e-01 2.267287e+00 -2.919314e-01 2.341953e+00 -3.110092e-01 2.373585e+00 -2.943281e-01 2.364484e+00 -2.551190e-01 2.336399e+00 -2.154571e-01 2.304723e+00 -1.853127e-01 2.279173e+00 -1.732800e-01 2.271240e+00 -1.899374e-01 2.289894e+00 -2.386590e-01 2.332375e+00 -3.071629e-01 2.381417e+00 -3.668877e-01 2.398936e+00 -3.798074e-01 2.355337e+00 -3.304607e-01 2.248793e+00 -2.315941e-01 2.099836e+00 -1.119071e-01 1.928341e+00 1.504018e-02 1.742146e+00 1.432449e-01 1.537531e+00 2.778452e-01 1.308683e+00 4.193744e-01 1.046922e+00 5.822208e-01 
2.292742e+00 -9.201402e-02 1.598247e+00 -9.979392e-02 7.366316e-01 -5.960741e-02 1.658473e+00 -3.915417e-02 2.214486e+00 -2.483937e-02 2.597622e+00 -1.351784e-02 2.886255e+00 -4.924233e-03 3.107824e+00 1.635964e-02 3.263725e+00 5.772792e-02 3.368932e+00 1.070902e-01 3.442418e+00 1.548905e-01 3.497436e+00 1.928737e-01 3.545660e+00 2.151530e-01 3.590592e+00 2.254487e-01 3.632187e+00 2.220666e-01 3.674290e+00 2.100602e-01 3.708074e+00 1.998619e-01 3.729293e+00 1.925983e-01 3.737645e+00 1.897269e-01 3.730411e+00 1.950432e-01 3.704384e+00 2.093103e-01 3.659939e+00 2.296411e-01 3.600505e+00 2.466459e-01 3.539015e+00 2.446679e-01 3.483801e+00 2.207860e-01 3.431017e+00 1.820634e-01 3.368474e+00 1.424300e-01 3.284803e+00 1.056084e-01 3.171813e+00 7.249735e-02 3.022944e+00 3.582892e-02 2.827898e+00 -7.910131e-03 2.569450e+00 -8.005118e-02 
2.292383e+00 -6.634272e-03 1.752394e+00 -4.029034e-02 1.065202e+00 -2.195623e-02 1.793215e+00 -2.222730e-02 2.285838e+00 -3.014272e-03 2.639951e+00 1.928071e-02 2.910750e+00 3.954496e-02 3.122678e+00 6.420509e-02 3.283445e+00 9.476893e-02 3.404029e+00 1.242713e-01 3.493585e+00 1.492824e-01 3.562780e+00 1.681909e-01 3.618495e+00 1.783820e-01 3.662391e+00 1.827266e-01 3.696992e+00 1.822111e-01 3.726578e+00 1.790404e-01 3.748177e+00 1.781592e-01 3.761098e+00 1.791451e-01 3.766309e+00 1.813220e-01 3.762559e+00 1.857507e-01 3.747660e+00 1.922766e-01 3.720193e+00 1.987019e-01 3.678715e+00 2.014406e-01 3.627407e+00 1.939299e-01 3.569076e+00 1.758986e-01 3.501162e+00 1.520521e-01 3.418239e+00 1.297407e-01 3.315493e+00 1.107253e-01 3.187978e+00 9.520669e-02 3.029479e+00 7.970808e-02 2.829622e+00 5.955126e-02 2.576412e+00 1.645475e-02 
2.369599e+00 -7.096703e-02 1.917235e+00 -6.964081e-02 1.371197e+00 -7.170689e-02 1.910420e+00 -4.494288e-02 2.357242e+00 -2.523466e-02 2.696754e+00 -7.226885e-03 2.957886e+00 1.279119e-02 3.159753e+00 4.004746e-02 3.311148e+00 7.569035e-02 3.420333e+00 1.150433e-01 3.498633e+00 1.526073e-01 3.556640e+00 1.836057e-01 3.603114e+00 2.050294e-01 3.643044e+00 2.170031e-01 3.678412e+00 2.199380e-01 3.709924e+00 2.166844e-01 3.734749e+00 2.118257e-01 3.750813e+00 2.079907e-01 3.757096e+00 2.070752e-01 3.751839e+00 2.105081e-01 3.733055e+00 2.179748e-01 3.700223e+00 2.267375e-01 3.655213e+00 2.313081e-01 3.602880e+00 2.250777e-01 3.546400e+00 2.059145e-01 3.484113e+00 1.770934e-01 3.411320e+00 1.442880e-01 3.322303e+00 1.103914e-01 3.210975e+00 7.611117e-02 3.070496e+00 3.968954e-02 2.891727e+00 -1.282737e-04 2.662885e+00 -4.497161e-02 
2.461189e+00 7.339896e-03 2.103353e+00 -1.107972e-02 1.674457e+00 -1.348576e-02 2.084555e+00 -6.734195e-03 2.451356e+00 5.928098e-03 2.746410e+00 2.412667e-02 2.982154e+00 4.632007e-02 3.171634e+00 7.288060e-02 3.322260e+00 1.014208e-01 3.437575e+00 1.281006e-01 3.524304e+00 1.505102e-01 3.590953e+00 1.670350e-01 3.643688e+00 1.770543e-01 3.685557e+00 1.819507e-01 3.718494e+00 1.833754e-01 3.744051e+00 1.834443e-01 3.761792e+00 1.843978e-01 3.771755e+00 1.866092e-01 3.774450e+00 1.896878e-01 3.769622e+00 1.933008e-01 3.756325e+00 1.967015e-01 3.733323e+00 1.983506e-01 3.699326e+00 1.958564e-01 3.654648e+00 1.862943e-01 3.599576e+00 1.690338e-01 3.532403e+00 1.473709e-01 3.451576e+00 1.259166e-01 3.355720e+00 1.068067e-01 3.241301e+00 9.000004e-02 3.102730e+00 7.336278e-02 2.932659e+00 5.366640e-02 2.722665e+00 2.646822e-02 
2.594297e+00 -3.472260e-02 2.298576e+00 -4.121904e-02 1.956780e+00 -4.371994e-02 2.260920e+00 -3.147593e-02 2.567200e+00 -1.628690e-02 2.829843e+00 2.145047e-03 3.045459e+00 2.585207e-02 3.220422e+00 5.592447e-02 3.359802e+00 8.972889e-02 3.462934e+00 1.240359e-01 3.537946e+00 1.552647e-01 3.594315e+00 1.804976e-01 3.639185e+00 1.982477e-01 3.676671e+00 2.086896e-01 3.708328e+00 2.130359e-01 3.734203e+00 2.135796e-01 3.753039e+00 2.130171e-01 3.763979e+00 2.131056e-01 3.766713e+00 2.146500e-01 3.760799e+00 2.177057e-01 3.745636e+00 2.213944e-01 3.720727e+00 2.236703e-01 3.686042e+00 2.212733e-01 3.642434e+00 2.104794e-01 3.590330e+00 1.895104e-01 3.528224e+00 1.618396e-01 3.456403e+00 1.316258e-01 3.373644e+00 1.013280e-01 3.275788e+00 7.159708e-02 3.156823e+00 4.183372e-02 3.009591e+00 1.169069e-02 2.825826e+00 -1.720596e-02 
2.726205e+00 1.874560e-02 2.495484e+00 6.651577e-03 2.235610e+00 4.195990e-03 2.457942e+00 6.687558e-03 2.695289e+00 1.424313e-02 2.911414e+00 2.856601e-02 3.098237e+00 5.085228e-02 3.258369e+00 8.074381e-02 3.394884e+00 1.119563e-01 3.498434e+00 1.387489e-01 3.574414e+00 1.596713e-01 3.632622e+00 1.737867e-01 3.679157e+00 1.815737e-01 3.716832e+00 1.848200e-01 3.746611e+00 1.858164e-01 3.768659e+00 1.867698e-01 3.782640e+00 1.891471e-01 3.789338e+00 1.929618e-01 3.789918e+00 1.972423e-01 3.785120e+00 2.007693e-01 3.774868e+00 2.024756e-01 3.757586e+00 2.014604e-01 3.730761e+00 1.965968e-01 3.692429e+00 1.858933e-01 3.641736e+00 1.666683e-01 3.576531e+00 1.419818e-01 3.499487e+00 1.181418e-01 3.414521e+00 9.807602e-02 3.319275e+00 8.147227e-02 3.208529e+00 6.630528e-02 3.076630e+00 5.036858e-02 2.918010e+00 3.288901e-02 
2.875146e+00 -1.198935e-02 2.693031e+00 -1.802357e-02 2.494740e+00 -2.029202e-02 2.649831e+00 -1.652618e-02 2.834167e+00 -7.257392e-03 3.013579e+00 8.578114e-03 3.175061e+00 3.383055e-02 3.317854e+00 6.882440e-02 3.444163e+00 1.058840e-01 3.533418e+00 1.388656e-01 3.596186e+00 1.661815e-01 3.643869e+00 1.864470e-01 3.682668e+00 1.995174e-01 3.715626e+00 2.064952e-01 3.743205e+00 2.095151e-01 3.764614e+00 2.110497e-01 3.778486e+00 2.131184e-01 3.784939e+00 2.164524e-01 3.784916e+00 2.205021e-01 3.779282e+00 2.241047e-01 3.768548e+00 2.259847e-01 3.751797e+00 2.248939e-01 3.726796e+00 2.192717e-01 3.691441e+00 2.060868e-01 3.644258e+00 1.807302e-01 3.581430e+00 1.492719e-01 3.511804e+00 1.179608e-01 3.439652e+00 8.970795e-02 3.361408e+00 6.450689e-02 3.270994e+00 4.128374e-02 3.162761e+00 1.957882e-02 3.032033e+00 7.142636e-04 
3.019950e+00 2.772461e-02 2.887419e+00 2.094775e-02 2.749751e+00 1.886208e-02 2.847118e+00 1.645111e-02 2.976384e+00 1.816229e-02 3.112674e+00 2.686258e-02 3.244740e+00 4.800107e-02 3.372378e+00 8.600381e-02 3.500618e+00 1.299719e-01 3.586299e+00 1.584319e-01 3.642282e+00 1.778271e-01 3.686068e+00 1.881979e-01 3.723262e+00 1.911619e-01 3.755409e+00 1.899359e-01 3.781791e+00 1.880598e-01 3.800805e+00 1.885645e-01 3.810649e+00 1.926020e-01 3.813261e+00 1.990745e-01 3.811123e+00 2.056987e-01 3.806431e+00 2.098655e-01 3.800666e+00 2.102191e-01 3.791597e+00 2.072171e-01 3.774329e+00 2.018221e-01 3.743715e+00 1.933268e-01 3.698199e+00 1.722442e-01 3.630549e+00 1.365928e-01 3.554097e+00 1.055169e-01 3.483095e+00 8.405700e-02 3.412384e+00 6.948703e-02 3.334595e+00 5.805231e-02 3.244787e+00 4.731789e-02 3.140207e+00 3.676287e-02 
3.169343e+00 4.289707e-03 3.076454e+00 6.355565e-04 2.986005e+00 -1.186465e-03 3.035854e+00 -4.058432e-03 3.121934e+00 -2.437737e-03 3.223462e+00 6.551717e-03 3.328925e+00 3.059913e-02 3.438305e+00 7.641400e-02 3.565030e+00 1.313198e-01 3.629781e+00 1.627637e-01 3.669957e+00 1.862995e-01 3.702872e+00 2.010077e-01 3.732035e+00 2.073430e-01 3.759330e+00 2.080177e-01 3.783342e+00 2.068533e-01 3.801682e+00 2.074923e-01 3.810989e+00 2.119095e-01 3.812510e+00 2.192610e-01 3.809093e+00 2.270287e-01 3.803286e+00 2.321801e-01 3.797740e+00 2.328392e-01 3.791406e+00 2.294106e-01 3.778895e+00 2.233572e-01 3.754077e+00 2.131576e-01 3.713527e+00 1.817804e-01 3.638867e+00 1.378808e-01 3.567865e+00 1.002324e-01 3.510792e+00 7.324036e-02 3.458300e+00 5.356000e-02 3.401270e+00 3.757540e-02 3.334819e+00 2.369398e-02 3.257208e+00 1.223487e-02 
3.314725e+00 3.524468e-02 3.261386e+00 3.283151e-02 3.217636e+00 3.127282e-02 3.223191e+00 2.379486e-02 3.264387e+00 1.709140e-02 3.326220e+00 1.370071e-02 3.401362e+00 2.485273e-02 3.496568e+00 7.415375e-02 3.650043e+00 1.735110e-01 3.701406e+00 1.916360e-01 3.722604e+00 2.070165e-01 3.746745e+00 2.112994e-01 3.772234e+00 2.050136e-01 3.798855e+00 1.951562e-01 3.823350e+00 1.870560e-01 3.841331e+00 1.864781e-01 3.846134e+00 1.941920e-01 3.842691e+00 2.057853e-01 3.835718e+00 2.173517e-01 3.829408e+00 2.229296e-01 3.829496e+00 2.200985e-01 3.833201e+00 2.132099e-01 3.831694e+00 2.068412e-01 3.813376e+00 2.094221e-01 3.778624e+00 2.035718e-01 3.685959e+00 1.280978e-01 3.600636e+00 8.101038e-02 3.551022e+00 6.102132e-02 3.512139e+00 5.285077e-02 3.471011e+00 4.811480e-02 3.423867e+00 4.372374e-02 3.370893e+00 3.923491e-02 
3.457661e+00 1.698506e-02 3.437190e+00 1.655832e-02 3.431244e+00 1.531418e-02 3.400254e+00 6.973397e-03 3.405876e+00 -1.716633e-03 3.436316e+00 -9.095989e-03 3.485198e+00 -1.382328e-03 3.560480e+00 5.260330e-02 3.745391e+00 1.992707e-01 3.746385e+00 1.966753e-01 3.752089e+00 2.161160e-01 3.767063e+00 2.252775e-01 3.783422e+00 2.206223e-01 3.805213e+00 2.104074e-01 3.827844e+00 2.009827e-01 3.846464e+00 1.991688e-01 3.851419e+00 2.083265e-01 3.845884e+00 2.224846e-01 3.836611e+00 2.371179e-01 3.827794e+00 2.453440e-01 3.827366e+00 2.425615e-01 3.836288e+00 2.340590e-01 3.843970e+00 2.272950e-01 3.837827e+00 2.355357e-01 3.819662e+00 2.095104e-01 3.682553e+00 1.220296e-01 3.606417e+00 6.901402e-02 3.577243e+00 4.700539e-02 3.559464e+00 3.734134e-02 3.539154e+00 3.085072e-02 3.513951e+00 2.503997e-02 3.485495e+00 2.014915e-02 
3.597233e+00 4.232762e-02 3.608764e+00 4.432628e-02 3.639829e+00 4.340473e-02 3.573417e+00 3.304063e-02 3.540883e+00 1.752687e-02 3.530961e+00 -7.910070e-03 3.538454e+00 -4.271513e-02 3.588660e+00 -4.926209e-02 3.898473e+00 3.199154e-01 3.828184e+00 2.158628e-01 3.800203e+00 2.372418e-01 3.806886e+00 2.385867e-01 3.818313e+00 2.145819e-01 3.841697e+00 1.921615e-01 3.868662e+00 1.728220e-01 3.891902e+00 1.726843e-01 3.889528e+00 1.924627e-01 3.875392e+00 2.129810e-01 3.859622e+00 2.359988e-01 3.846194e+00 2.453831e-01 3.852340e+00 2.315242e-01 3.876839e+00 2.159483e-01 3.903240e+00 1.966044e-01 3.906771e+00 2.063273e-01 3.938286e+00 3.546525e-01 3.700442e+00 8.214442e-02 3.611124e+00 2.223644e-02 3.611720e+00 2.347245e-02 3.615248e+00 3.178919e-02 3.612041e+00 3.751356e-02 3.604977e+00 4.033040e-02 3.598325e+00 4.152038e-02 
3.730123e+00 2.822930e-02 3.768959e+00 3.205457e-02 3.830971e+00 3.148733e-02 3.734440e+00 2.179209e-02 3.671025e+00 5.535041e-03 3.630919e+00 -2.635382e-02 3.610142e+00 -8.303965e-02 3.629104e+00 -9.973507e-02 3.821755e+00 1.141358e-01 3.733525e+00 2.372383e-02 3.731848e+00 6.992839e-02 3.738203e+00 9.108477e-02 3.743377e+00 8.643048e-02 3.763100e+00 8.235540e-02 3.787668e+00 7.999342e-02 3.809921e+00 9.189728e-02 3.808858e+00 1.220632e-01 3.795604e+00 1.506847e-01 3.783518e+00 1.811221e-01 3.773996e+00 1.984521e-01 3.783321e+00 1.912827e-01 3.816502e+00 1.846813e-01 3.855792e+00 1.768275e-01 3.878640e+00 2.281805e-01 3.987877e+00 4.647300e-01 3.628460e+00 6.022374e-02 3.598758e+00 -3.849408e-03 3.638697e+00 4.937163e-03 3.665342e+00 1.688186e-02 3.680714e+00 2.320051e-02 3.692612e+00 2.564004e-02 3.707110e+00 2.671215e-02 
3.860101e+00 4.997468e-02 3.924894e+00 5.671255e-02 4.016778e+00 5.649191e-02 3.893487e+00 4.901495e-02 3.799908e+00 3.641861e-02 3.718615e+00 1.131057e-02 3.613637e+00 -5.770587e-02 3.388699e+00 -2.780939e-01 2.568666e+00 -1.119671e+00 2.677993e+00 -1.073385e+00 2.716077e+00 -1.182366e+00 2.707003e+00 -1.207152e+00 2.684045e+00 -1.155495e+00 2.630711e+00 -1.088706e+00 2.573048e+00 -1.027826e+00 2.533856e+00 -1.009480e+00 2.557944e+00 -1.039347e+00 2.614963e+00 -1.079255e+00 2.673817e+00 -1.117970e+00 2.718833e+00 -1.118095e+00 2.716898e+00 -1.057548e+00 2.677668e+00 -9.731212e-01 2.651397e+00 -8.740252e-01 2.696842e+00 -8.294504e-01 2.745625e+00 -9.118566e-01 3.301264e+00 -3.232732e-01 3.590566e+00 -1.015942e-01 3.685856e+00 -2.059182e-02 3.727681e+00 1.370563e-02 3.755353e+00 3.020686e-02 3.782064e+00 3.913476e-02 3.814896e+00 4.493002e-02 
3.980693e+00 3.926663e-02 4.068130e+00 4.757122e-02 4.185609e+00 4.770321e-02 4.037461e+00 4.271596e-02 3.916205e+00 3.574240e-02 3.799567e+00 2.421638e-02 3.636212e+00 -2.428971e-02 3.296461e+00 -2.893181e-01 2.233847e+00 -1.364800e+00 2.321912e+00 -1.305250e+00 2.340994e+00 -1.511294e+00 2.307602e+00 -1.598552e+00 2.259441e+00 -1.566278e+00 2.162324e+00 -1.504674e+00 2.054546e+00 -1.444761e+00 1.971884e+00 -1.443712e+00 1.988754e+00 -1.519746e+00 2.063881e+00 -1.612864e+00 2.145077e+00 -1.708394e+00 2.209084e+00 -1.744700e+00 2.198500e+00 -1.679702e+00 2.116092e+00 -1.577183e+00 2.044158e+00 -1.451209e+00 2.083415e+00 -1.442334e+00 2.046981e+00 -1.717693e+00 3.203922e+00 -5.405389e-01 3.627805e+00 -1.564498e-01 3.736456e+00 -3.838233e-02 3.784865e+00 3.200326e-03 3.823523e+00 2.020163e-02 3.864893e+00 2.841857e-02 3.915288e+00 3.380037e-02 
4.098573e+00 5.836625e-02 4.207102e+00 6.841083e-02 4.348835e+00 6.881196e-02 4.184070e+00 6.350222e-02 4.049106e+00 5.427095e-02 3.931746e+00 3.952006e-02 3.815124e+00 1.395799e-02 3.688965e+00 -2.157151e-02 3.640529e+00 -7.164276e-02 3.481460e+00 -1.596876e-01 3.453987e+00 -2.202887e-01 3.425592e+00 -2.721252e-01 3.392243e+00 -3.064002e-01 3.359180e+00 -3.270208e-01 3.327304e+00 -3.411643e-01 3.303149e+00 -3.599197e-01 3.295943e+00 -3.865898e-01 3.300453e+00 -4.171251e-01 3.311381e+00 -4.469528e-01 3.320302e+00 -4.652626e-01 3.317325e+00 -4.667522e-01 3.308621e+00 -4.565911e-01 3.307625e+00 -4.375687e-01 3.336644e+00 -4.079787e-01 3.382743e+00 -3.976069e-01 3.548500e+00 -2.166776e-01 3.710733e+00 -8.515597e-02 3.791713e+00 -1.947028e-02 3.845781e+00 1.343522e-02 3.894874e+00 3.118341e-02 3.949026e+00 4.211345e-02 4.014857e+00 5.037393e-02 
4.205246e+00 5.002361e-02 4.332601e+00 6.030033e-02 4.495491e+00 6.099398e-02 4.314360e+00 5.501377e-02 4.164851e+00 4.285572e-02 4.041603e+00 1.902533e-02 3.946502e+00 -2.148083e-02 3.920125e+00 -3.714258e-02 4.226523e+00 3.826707e-01 4.069358e+00 2.636430e-01 3.990328e+00 2.884414e-01 3.958701e+00 2.850533e-01 3.939328e+00 2.505912e-01 3.942267e+00 2.192126e-01 3.954646e+00 1.918070e-01 3.967542e+00 1.861201e-01 3.954388e+00 2.046155e-01 3.930952e+00 2.229585e-01 3.910987e+00 2.443874e-01 3.897094e+00 2.500379e-01 3.908864e+00 2.267629e-01 3.947934e+00 2.028459e-01 3.994620e+00 1.750503e-01 4.020494e+00 2.001599e-01 4.114180e+00 4.357615e-01 3.802993e+00 3.417981e-02 3.776635e+00 -2.108079e-02 3.837489e+00 -3.829600e-03 3.897326e+00 1.474029e-02 3.956898e+00 2.700900e-02 4.023864e+00 3.531803e-02 4.104605e+00 4.233128e-02 
4.309481e+00 6.723203e-02 4.453793e+00 7.867488e-02 4.636304e+00 7.961122e-02 4.445467e+00 7.516680e-02 4.289110e+00 6.670899e-02 4.165677e+00 5.373103e-02 4.079638e+00 3.959705e-02 4.055590e+00 5.031886e-02 4.195215e+00 2.490598e-01 4.113777e+00 2.266283e-01 4.046338e+00 2.461175e-01 4.010280e+00 2.485714e-01 3.989137e+00 2.321994e-01 3.984258e+00 2.129317e-01 3.987603e+00 1.953586e-01 3.992079e+00 1.909895e-01 3.982003e+00 2.023246e-01 3.965186e+00 2.172637e-01 3.950203e+00 2.342422e-01 3.941516e+00 2.416357e-01 3.951638e+00 2.321470e-01 3.979658e+00 2.192645e-01 4.011915e+00 2.064555e-01 4.029134e+00 2.178978e-01 4.066867e+00 2.958353e-01 3.913144e+00 9.346399e-02 3.870416e+00 3.009975e-02 3.906753e+00 2.475893e-02 3.961124e+00 3.236706e-02 4.025026e+00 4.126506e-02 4.101117e+00 4.961010e-02 4.194086e+00 5.793351e-02 
4.401198e+00 6.078249e-02 4.560992e+00 7.187575e-02 4.760870e+00 7.306441e-02 4.558894e+00 6.856887e-02 4.392521e+00 6.112239e-02 4.262352e+00 5.345115e-02 4.172532e+00 5.734937e-02 4.135578e+00 1.059668e-01 4.180890e+00 2.034513e-01 4.136500e+00 2.199961e-01 4.076783e+00 2.379046e-01 4.035762e+00 2.422992e-01 4.009457e+00 2.338563e-01 3.996876e+00 2.205527e-01 3.992378e+00 2.087503e-01 3.989535e+00 2.049364e-01 3.979018e+00 2.114600e-01 3.964894e+00 2.231657e-01 3.953046e+00 2.354015e-01 3.947992e+00 2.410722e-01 3.957114e+00 2.361534e-01 3.979447e+00 2.260700e-01 4.004663e+00 2.180327e-01 4.020142e+00 2.250468e-01 4.031830e+00 2.136929e-01 3.949760e+00 1.157411e-01 3.922399e+00 5.855350e-02 3.952946e+00 3.974650e-02 4.009079e+00 3.737257e-02 4.080208e+00 4.048490e-02 4.166554e+00 4.560634e-02 4.271825e+00 5.222371e-02 
4.490721e+00 7.639350e-02 4.663895e+00 8.843105e-02 4.879371e+00 8.984242e-02 4.670219e+00 8.741459e-02 4.497538e+00 8.373442e-02 4.361713e+00 8.240574e-02 4.264278e+00 9.242363e-02 4.208696e+00 1.304678e-01 4.199760e+00 1.881376e-01 4.162050e+00 2.097222e-01 4.110713e+00 2.254773e-01 4.070854e+00 2.300141e-01 4.043536e+00 2.246852e-01 4.027038e+00 2.149998e-01 4.017258e+00 2.061264e-01 4.009401e+00 2.028272e-01 3.997983e+00 2.063716e-01 3.985843e+00 2.138421e-01 3.976900e+00 2.216479e-01 3.974821e+00 2.250441e-01 3.983777e+00 2.219741e-01 4.001504e+00 2.151840e-01 4.020571e+00 2.080590e-01 4.032664e+00 2.038067e-01 4.039352e+00 1.861921e-01 4.002855e+00 1.237716e-01 3.986647e+00 7.916110e-02 4.013408e+00 5.886382e-02 4.067780e+00 5.304323e-02 4.141901e+00 5.434807e-02 4.234988e+00 5.929909e-02 4.349737e+00 6.668843e-02 
4.566794e+00 7.133572e-02 4.752423e+00 8.303006e-02 4.981885e+00 8.466783e-02 4.763851e+00 8.296469e-02 4.582246e+00 8.145906e-02 4.437619e+00 8.487844e-02 4.330073e+00 1.015051e-01 4.259741e+00 1.392859e-01 4.225023e+00 1.798944e-01 4.182492e+00 2.042325e-01 4.131990e+00 2.208527e-01 4.089261e+00 2.276043e-01 4.057496e+00 2.260679e-01 4.035804e+00 2.201306e-01 4.020921e+00 2.141533e-01 4.009008e+00 2.115949e-01 3.996495e+00 2.138197e-01 3.984897e+00 2.193055e-01 3.977215e+00 2.249463e-01 3.976290e+00 2.273616e-01 3.984492e+00 2.248624e-01 3.999909e+00 2.184063e-01 4.016694e+00 2.098910e-01 4.029089e+00 1.981347e-01 4.036026e+00 1.688183e-01 4.019398e+00 1.248601e-01 4.018220e+00 8.786717e-02 4.049492e+00 6.594506e-02 4.107937e+00 5.615088e-02 4.188342e+00 5.395923e-02 4.289784e+00 5.646192e-02 4.414511e+00 6.235992e-02 
4.640797e+00 8.529086e-02 4.836698e+00 9.776724e-02 5.078143e+00 9.959866e-02 4.853760e+00 9.918459e-02 4.665755e+00 9.929716e-02 4.514022e+00 1.041365e-01 4.397576e+00 1.196728e-01 4.314686e+00 1.494574e-01 4.261590e+00 1.805539e-01 4.213105e+00 2.018094e-01 4.162413e+00 2.157647e-01 4.119034e+00 2.212576e-01 4.085720e+00 2.197942e-01 4.061488e+00 2.146456e-01 4.043600e+00 2.094426e-01 4.029051e+00 2.068830e-01 4.015572e+00 2.078828e-01 4.004407e+00 2.112924e-01 3.997886e+00 2.147482e-01 3.998179e+00 2.158487e-01 4.006462e+00 2.134526e-01 4.020580e+00 2.079458e-01 4.035948e+00 1.998756e-01 4.048550e+00 1.872596e-01 4.057665e+00 1.622752e-01 4.055831e+00 1.271045e-01 4.062835e+00 9.628546e-02 4.096405e+00 7.653060e-02 4.156599e+00 6.716669e-02 4.240495e+00 6.527596e-02 4.347484e+00 6.842955e-02 4.479586e+00 7.527073e-02 
4.700742e+00 8.101116e-02 4.906325e+00 9.330129e-02 5.158623e+00 9.532738e-02 4.926644e+00 9.559212e-02 4.730672e+00 9.707999e-02 4.570637e+00 1.040505e-01 4.445272e+00 1.213951e-01 4.352703e+00 1.501379e-01 4.288932e+00 1.787792e-01 4.233102e+00 2.001492e-01 4.178523e+00 2.145261e-01 4.131592e+00 2.211874e-01 4.094537e+00 2.215440e-01 4.066596e+00 2.183442e-01 4.045357e+00 2.146981e-01 4.028257e+00 2.128411e-01 4.013537e+00 2.136359e-01 4.002043e+00 2.162729e-01 3.995725e+00 2.187541e-01 3.996316e+00 2.191206e-01 4.004478e+00 2.162961e-01 4.018316e+00 2.101879e-01 4.033953e+00 2.007114e-01 4.048279e+00 1.853182e-01 4.060400e+00 1.585726e-01 4.066113e+00 1.264526e-01 4.081535e+00 9.790800e-02 4.121076e+00 7.812424e-02 4.186643e+00 6.741094e-02 4.276569e+00 6.387708e-02 4.390575e+00 6.562275e-02 4.530662e+00 7.148794e-02 
4.758651e+00 9.330181e-02 4.971728e+00 1.062679e-01 5.232698e+00 1.084506e-01 4.994967e+00 1.089136e-01 4.792949e+00 1.097678e-01 4.626348e+00 1.147533e-01 4.494008e+00 1.287910e-01 4.394452e+00 1.548330e-01 4.324984e+00 1.845010e-01 4.265174e+00 2.039191e-01 4.206159e+00 2.154181e-01 4.156703e+00 2.193386e-01 4.117930e+00 2.175894e-01 4.088462e+00 2.131170e-01 4.065667e+00 2.089698e-01 4.047067e+00 2.069784e-01 4.031177e+00 2.075035e-01 4.019133e+00 2.094834e-01 4.012913e+00 2.109472e-01 4.014166e+00 2.102970e-01 4.023289e+00 2.069404e-01 4.038182e+00 2.012799e-01 4.054903e+00 1.937097e-01 4.070491e+00 1.821631e-01 4.084869e+00 1.605647e-01 4.094707e+00 1.284389e-01 4.111854e+00 1.004235e-01 4.154276e+00 8.238964e-02 4.223443e+00 7.373932e-02 4.317475e+00 7.208667e-02 4.436268e+00 7.544237e-02 4.582002e+00 8.266891e-02 
4.802141e+00 8.929428e-02 5.022306e+00 1.022256e-01 5.291159e+00 1.045633e-01 5.046993e+00 1.052872e-01 4.838191e+00 1.063316e-01 4.664678e+00 1.113339e-01 4.525644e+00 1.253176e-01 4.420436e+00 1.522757e-01 4.348082e+00 1.853467e-01 4.281768e+00 2.050158e-01 4.216888e+00 2.166563e-01 4.163575e+00 2.209217e-01 4.121671e+00 2.197074e-01 4.089659e+00 2.158892e-01 4.064790e+00 2.124544e-01 4.044617e+00 2.110550e-01 4.027563e+00 2.119540e-01 4.014708e+00 2.140280e-01 4.008088e+00 2.152525e-01 4.009325e+00 2.141029e-01 4.018885e+00 2.100550e-01 4.034924e+00 2.036829e-01 4.053427e+00 1.957298e-01 4.071461e+00 1.841981e-01 4.089008e+00 1.619406e-01 4.099314e+00 1.274774e-01 4.119780e+00 9.841244e-02 4.167697e+00 8.022249e-02 4.242666e+00 7.141416e-02 4.342407e+00 6.934594e-02 4.467018e+00 7.215588e-02 4.618900e+00 7.890843e-02 
4.843603e+00 1.001872e-01 5.068652e+00 1.138217e-01 5.343111e+00 1.162765e-01 5.093915e+00 1.165649e-01 4.879527e+00 1.153539e-01 4.699776e+00 1.150784e-01 4.554889e+00 1.211701e-01 4.447259e+00 1.456151e-01 4.382863e+00 2.006669e-01 4.314648e+00 2.160600e-01 4.239623e+00 2.230672e-01 4.183167e+00 2.227735e-01 4.139963e+00 2.170967e-01 4.107709e+00 2.100831e-01 4.082710e+00 2.053278e-01 4.061929e+00 2.042219e-01 4.043234e+00 2.060930e-01 4.028731e+00 2.088477e-01 4.021182e+00 2.098371e-01 4.022760e+00 2.074921e-01 4.034276e+00 2.017750e-01 4.053753e+00 1.949756e-01 4.075645e+00 1.896298e-01 4.095801e+00 1.861479e-01 4.116602e+00 1.794818e-01 4.120651e+00 1.285683e-01 4.134589e+00 9.357975e-02 4.186842e+00 7.792466e-02 4.267435e+00 7.334103e-02 4.371707e+00 7.477034e-02 4.500219e+00 8.008488e-02 4.656033e+00 8.859030e-02 
4.870445e+00 9.616601e-02 5.100075e+00 1.098925e-01 5.379565e+00 1.124592e-01 5.125134e+00 1.127416e-01 4.905076e+00 1.108765e-01 4.719389e+00 1.086968e-01 4.568995e+00 1.115406e-01 4.458823e+00 1.340515e-01 4.406354e+00 2.102755e-01 4.325978e+00 2.196552e-01 4.242896e+00 2.261439e-01 4.183692e+00 2.257755e-01 4.138037e+00 2.194053e-01 4.104486e+00 2.118445e-01 4.078678e+00 2.071243e-01 4.057362e+00 2.065422e-01 4.037720e+00 2.095397e-01 4.021855e+00 2.132723e-01 4.013318e+00 2.147129e-01 4.014510e+00 2.121492e-01 4.026670e+00 2.052141e-01 4.048721e+00 1.972468e-01 4.073944e+00 1.921981e-01 4.097728e+00 1.914584e-01 4.125900e+00 1.899178e-01 4.115296e+00 1.250172e-01 4.129725e+00 8.655365e-02 4.189069e+00 7.202805e-02 4.276133e+00 6.882632e-02 4.385523e+00 7.090090e-02 4.518454e+00 7.629410e-02 4.678520e+00 8.465817e-02 
4.895267e+00 1.061288e-01 5.127229e+00 1.206819e-01 5.409450e+00 1.233268e-01 5.151235e+00 1.236523e-01 4.926135e+00 1.200461e-01 4.732711e+00 1.110266e-01 4.571762e+00 9.360867e-02 4.457296e+00 7.210705e-02 4.461396e+00 2.749846e-01 4.358964e+00 2.372959e-01 4.253335e+00 2.360291e-01 4.195942e+00 2.305199e-01 4.149475e+00 2.156033e-01 4.117992e+00 2.026617e-01 4.094125e+00 1.961076e-01 4.073543e+00 1.974462e-01 4.051191e+00 2.042721e-01 4.031563e+00 2.102620e-01 4.020536e+00 2.122687e-01 4.021457e+00 2.079825e-01 4.036069e+00 1.957636e-01 4.065244e+00 1.852255e-01 4.096943e+00 1.801166e-01 4.123096e+00 1.789867e-01 4.175626e+00 2.755372e-01 4.116682e+00 1.076168e-01 4.120546e+00 6.317167e-02 4.195079e+00 6.151001e-02 4.290692e+00 6.750118e-02 4.404038e+00 7.480907e-02 4.539277e+00 8.321315e-02 4.701285e+00 9.342346e-02 
4.905354e+00 1.019448e-01 5.139422e+00 1.166312e-01 5.423904e+00 1.193415e-01 5.161990e+00 1.198570e-01 4.932333e+00 1.159865e-01 4.732718e+00 1.050557e-01 4.563074e+00 8.105891e-02 4.438002e+00 4.900618e-02 4.449388e+00 2.655370e-01 4.323084e+00 2.065679e-01 4.216185e+00 2.048690e-01 4.159720e+00 1.982875e-01 4.110158e+00 1.818951e-01 4.076456e+00 1.688815e-01 4.050308e+00 1.632363e-01 4.027808e+00 1.649931e-01 4.004154e+00 1.717856e-01 3.983541e+00 1.767521e-01 3.972506e+00 1.772035e-01 3.973520e+00 1.717122e-01 3.987556e+00 1.582684e-01 4.017613e+00 1.476900e-01 4.051059e+00 1.439514e-01 4.080772e+00 1.485791e-01 4.155328e+00 2.760487e-01 4.073983e+00 7.890667e-02 4.099364e+00 4.485817e-02 4.188188e+00 5.192568e-02 4.290465e+00 6.193771e-02 4.407371e+00 7.063199e-02 4.545107e+00 7.928200e-02 4.709282e+00 8.935904e-02 
4.913411e+00 1.113573e-01 5.147320e+00 1.267184e-01 5.431768e+00 1.294528e-01 5.168920e+00 1.310820e-01 4.936824e+00 1.298994e-01 4.728690e+00 1.262986e-01 4.529469e+00 1.139772e-01 4.301681e+00 6.432213e-02 3.917949e+00 -3.409573e-01 3.784808e+00 -3.460248e-01 3.728063e+00 -3.893543e-01 3.636919e+00 -4.066933e-01 3.560049e+00 -3.971963e-01 3.487453e+00 -3.856727e-01 3.431317e+00 -3.860666e-01 3.398639e+00 -4.026885e-01 3.396131e+00 -4.310728e-01 3.410288e+00 -4.575696e-01 3.424539e+00 -4.722248e-01 3.429308e+00 -4.693340e-01 3.421779e+00 -4.470833e-01 3.406228e+00 -4.240662e-01 3.414790e+00 -4.109862e-01 3.470859e+00 -4.058025e-01 3.520549e+00 -5.216059e-01 3.837941e+00 -1.596198e-01 4.071345e+00 -1.232498e-02 4.193026e+00 3.989780e-02 4.299146e+00 6.241343e-02 4.416212e+00 7.562391e-02 4.553690e+00 8.649489e-02 4.717575e+00 9.790417e-02 
4.906678e+00 1.068057e-01 5.140249e+00 1.220597e-01 5.424221e+00 1.248015e-01 5.160292e+00 1.267725e-01 4.926252e+00 1.267336e-01 4.713269e+00 1.261766e-01 4.498877e+00 1.173306e-01 4.219646e+00 5.236338e-02 3.635007e+00 -6.535163e-01 3.506993e+00 -6.261599e-01 3.474628e+00 -6.871163e-01 3.366228e+00 -7.060124e-01 3.278172e+00 -6.797675e-01 3.188936e+00 -6.521439e-01 3.120641e+00 -6.458001e-01 3.085007e+00 -6.664990e-01 3.093950e+00 -7.071570e-01 3.126149e+00 -7.447670e-01 3.153951e+00 -7.635424e-01 3.162836e+00 -7.547802e-01 3.148502e+00 -7.145400e-01 3.114979e+00 -6.747282e-01 3.114727e+00 -6.528880e-01 3.183842e+00 -6.466895e-01 3.221771e+00 -8.679985e-01 3.728831e+00 -2.564186e-01 4.049931e+00 -3.483852e-02 4.184455e+00 3.361463e-02 4.292135e+00 5.920777e-02 4.409531e+00 7.256279e-02 4.547152e+00 8.293097e-02 4.711023e+00 9.377261e-02 
4.897907e+00 1.158388e-01 5.128911e+00 1.309128e-01 5.410084e+00 1.335842e-01 5.149823e+00 1.342496e-01 4.921095e+00 1.308367e-01 4.719390e+00 1.219152e-01 4.537255e+00 1.012900e-01 4.362428e+00 6.041705e-02 4.172154e+00 -5.396420e-02 4.038734e+00 -8.743984e-02 3.962637e+00 -1.063943e-01 3.890896e+00 -1.152852e-01 3.830367e+00 -1.155061e-01 3.780888e+00 -1.134007e-01 3.743934e+00 -1.135652e-01 3.720359e+00 -1.179396e-01 3.710428e+00 -1.247685e-01 3.709240e+00 -1.310955e-01 3.712512e+00 -1.339166e-01 3.717338e+00 -1.315488e-01 3.723293e+00 -1.246153e-01 3.734938e+00 -1.162302e-01 3.759887e+00 -1.082757e-01 3.804077e+00 -9.660278e-02 3.874025e+00 -7.594955e-02 3.958325e+00 -2.652367e-02 4.081798e+00 2.237831e-02 4.187463e+00 5.148941e-02 4.291569e+00 6.873904e-02 4.407421e+00 8.073801e-02 4.543117e+00 9.129696e-02 4.704718e+00 1.025603e-01 