# vtk DataFile Version 2.0
Comment goes here
ASCII

DATASET STRUCTURED_POINTS
FIELD FieldData 1
TIME 1 1 double
0.03400000
DIMENSIONS    256   32   1

ORIGIN    0.000   0.000   0.000
SPACING   0.0078125 0.0078125   1.000

POINT_DATA   8192
SCALARS uX double
LOOKUP_TABLE default

-1.279364e-02 -2.822940e-02 -5.189500e-02 -8.181339e-02 -1.233743e-01 -1.671712e-01 -1.992695e-01 -1.760414e-01 -2.134955e-01 -1.877842e-01 -2.186711e-01 -2.487515e-01 -2.427351e-01 -3.316124e-01 -3.752032e-01 -2.848957e-01 -3.786006e-01 -3.490966e-01 -3.248807e-01 -4.219853e-01 -2.446555e-01 -2.659323e-01 -3.019405e-01 -1.299563e-01 -2.383337e-01 -1.445812e-01 -1.385813e-01 -2.058427e-01 -7.617311e-02 -2.017754e-01 -9.156739e-02 -1.317926e-01 -1.493531e-01 -6.354051e-02 -1.618368e-01 -6.510370e-02 -1.157466e-01 -1.112900e-01 -4.815473e-02 -1.306506e-01 -4.060138e-02 -9.853967e-02 -7.578082e-02 -3.761271e-02 -9.838807e-02 -2.303159e-02 -7.709538e-02 -4.604828e-02 -2.539390e-02 -6.846208e-02 -5.801765e-03 -5.587856e-02 -1.961757e-02 -1.560781e-02 -4.247778e-02 5.747836e-03 -3.878658e-02 -2.553881e-03 -1.115076e-02 -2.522774e-02 1.125104e-02 -2.823973e-02 6.998009e-03 -7.925247e-03 -1.154708e-02 1.105364e-02 -1.913924e-02 1.185649e-02 -5.630196e-03 -2.515335e-03 1.401298e-02 -8.358964e-03 1.685236e-02 1.288494e-03 8.257579e-03 1.785394e-02 3.961444e-03 2.250046e-02 1.120029e-02 1.828002e-02 2.401677e-02 1.557582e-02 2.923221e-02 2.097503e-02 2.779472e-02 3.030302e-02 2.618350e-02 3.514030e-02 3.009786e-02 3.491013e-02 3.669826e-02 3.386494e-02 4.083493e-02 3.685013e-02 4.065975e-02 4.216869e-02 4.048391e-02 4.431177e-02 4.168631e-02 4.395678e-02 4.528410e-02 4.288553e-02 4.717065e-02 4.442111e-02 4.650228e-02 4.704991e-02 4.533864e-02 4.869731e-02 4.637767e-02 4.782854e-02 4.847229e-02 4.650573e-02 5.003579e-02 4.690356e-02 4.925611e-02 4.875388e-02 4.790705e-02 5.045205e-02 4.759491e-02 4.988039e-02 4.928288e-02 4.838971e-02 5.104345e-02 4.759961e-02 5.094765e-02 4.920406e-02 4.919747e-02 5.125739e-02 4.894250e-02 5.132543e-02 4.928095e-02 4.938260e-02 5.114069e-02 4.788140e-02 5.137537e-02 4.876395e-02 4.979375e-02 5.038453e-02 4.825629e-02 5.119709e-02 4.869924e-02 4.982193e-02 5.023355e-02 4.824802e-02 5.142587e-02 4.802791e-02 5.047762e-02 4.960526e-02 4.892230e-02 5.113426e-02 4.815199e-02 5.062267e-02 4.963435e-02 4.899953e-02 5.130016e-02 4.789394e-02 5.138961e-02 4.926245e-02 4.960084e-02 5.128857e-02 4.911480e-02 5.156489e-02 4.917574e-02 4.967006e-02 5.099361e-02 4.802066e-02 5.149730e-02 4.854531e-02 4.999483e-02 5.010695e-02 4.840708e-02 5.115874e-02 4.836305e-02 4.994490e-02 4.988049e-02 4.829998e-02 5.120441e-02 4.766791e-02 5.046733e-02 4.918749e-02 4.883183e-02 5.075064e-02 4.777083e-02 5.044406e-02 4.913144e-02 4.874096e-02 5.076296e-02 4.744532e-02 5.101103e-02 4.862963e-02 4.916905e-02 5.061398e-02 4.853111e-02 5.099535e-02 4.840992e-02 4.904869e-02 5.020737e-02 4.734548e-02 5.079824e-02 4.764713e-02 4.923681e-02 4.930985e-02 4.764041e-02 5.041999e-02 4.747740e-02 4.918546e-02 4.923255e-02 4.753248e-02 5.061259e-02 4.698201e-02 4.984329e-02 4.877093e-02 4.819602e-02 5.037149e-02 4.733881e-02 5.006647e-02 4.894681e-02 4.840324e-02 5.059954e-02 4.723906e-02 5.074997e-02 4.840398e-02 4.908551e-02 4.998316e-02 4.761885e-02 5.054296e-02 4.809456e-02 4.893238e-02 4.957528e-02 4.724358e-02 5.049693e-02 4.698243e-02 4.908627e-02 4.852766e-02 4.723661e-02 4.970471e-02 4.650331e-02 4.856523e-02 4.804766e-02 4.672725e-02 4.938970e-02 4.582273e-02 4.878481e-02 4.734729e-02 4.686646e-02 4.872925e-02 4.523043e-02 4.802069e-02 4.658446e-02 4.766588e-02 4.668092e-02 3.506609e-02 2.540565e-02 1.761693e-02 8.927429e-03 2.585235e-04 
-3.899302e-03 -2.015830e-02 -4.003170e-02 -7.248872e-02 -1.122959e-01 -1.668925e-01 -1.879952e-01 -1.690867e-01 -2.016366e-01 -1.889721e-01 -2.158538e-01 -2.800102e-01 -2.493674e-01 -4.185986e-01 -4.585139e-01 -3.797704e-01 -4.766429e-01 -4.305378e-01 -4.098002e-01 -4.716582e-01 -3.057458e-01 -2.591719e-01 -3.334139e-01 -1.079716e-01 -2.505643e-01 -1.211845e-01 -1.330017e-01 -1.951474e-01 -6.190443e-02 -1.932286e-01 -7.780662e-02 -1.201649e-01 -1.445055e-01 -4.697801e-02 -1.581568e-01 -5.133569e-02 -1.097227e-01 -1.055050e-01 -3.502496e-02 -1.277142e-01 -2.920542e-02 -9.442013e-02 -7.005618e-02 -2.713772e-02 -9.600462e-02 -1.389051e-02 -7.390760e-02 -4.081809e-02 -1.688967e-02 -6.697963e-02 2.326477e-03 -5.402895e-02 -1.385969e-02 -9.834700e-03 -4.054076e-02 1.216477e-02 -3.672817e-02 2.363488e-03 -6.738655e-03 -2.388418e-02 1.755191e-02 -2.761480e-02 1.191700e-02 -3.734121e-03 -8.603535e-03 1.446920e-02 -1.807096e-02 1.619731e-02 -3.012852e-03 -7.917834e-04 1.864060e-02 -7.431384e-03 2.078044e-02 2.773120e-03 1.071171e-02 2.102049e-02 5.555534e-03 2.520347e-02 1.314569e-02 2.004836e-02 2.702711e-02 1.653975e-02 3.206422e-02 2.214407e-02 3.007136e-02 3.200689e-02 2.780536e-02 3.690858e-02 3.177673e-02 3.632208e-02 3.856280e-02 3.482277e-02 4.298085e-02 3.766907e-02 4.246012e-02 4.375568e-02 4.241681e-02 4.513939e-02 4.307812e-02 4.510196e-02 4.692238e-02 4.384661e-02 4.877113e-02 4.531337e-02 4.810435e-02 4.793629e-02 4.693557e-02 4.960632e-02 4.793253e-02 4.874559e-02 4.998120e-02 4.744389e-02 5.153512e-02 4.780108e-02 5.078533e-02 4.959412e-02 4.947575e-02 5.126786e-02 4.912539e-02 5.073273e-02 5.073857e-02 4.926511e-02 5.243685e-02 4.845956e-02 5.247681e-02 4.999642e-02 5.056949e-02 5.215263e-02 5.079030e-02 5.220916e-02 5.063683e-02 5.019344e-02 5.265882e-02 4.874740e-02 5.276286e-02 4.962351e-02 5.124705e-02 5.120981e-02 4.978779e-02 5.199080e-02 5.024007e-02 5.064836e-02 5.171585e-02 4.914130e-02 5.286863e-02 4.892122e-02 5.195506e-02 5.043895e-02 5.046186e-02 5.192525e-02 4.968303e-02 5.144478e-02 5.109150e-02 4.985535e-02 5.268349e-02 4.876020e-02 5.289508e-02 5.004936e-02 5.096665e-02 5.218703e-02 5.096039e-02 5.243618e-02 5.053086e-02 5.048031e-02 5.252124e-02 4.887522e-02 5.288448e-02 4.941193e-02 5.143698e-02 5.094279e-02 4.993119e-02 5.195833e-02 4.991180e-02 5.076459e-02 5.137998e-02 4.918747e-02 5.265856e-02 4.857201e-02 5.194302e-02 5.004209e-02 5.036713e-02 5.155851e-02 4.931477e-02 5.126699e-02 5.061421e-02 4.959258e-02 5.217288e-02 4.832732e-02 5.251515e-02 4.944482e-02 5.054198e-02 5.153754e-02 5.037883e-02 5.189960e-02 4.980083e-02 4.986208e-02 5.179392e-02 4.819382e-02 5.222920e-02 4.856172e-02 5.067643e-02 5.021867e-02 4.915206e-02 5.127076e-02 4.906414e-02 4.998473e-02 5.080049e-02 4.840195e-02 5.213904e-02 4.793047e-02 5.132424e-02 4.972866e-02 4.971784e-02 5.127656e-02 4.892618e-02 5.088743e-02 5.054457e-02 4.926501e-02 5.214288e-02 4.817427e-02 5.222421e-02 4.936031e-02 5.060212e-02 5.088960e-02 4.920511e-02 5.139508e-02 4.970789e-02 4.981137e-02 5.114942e-02 4.818381e-02 5.204071e-02 4.795943e-02 5.063800e-02 4.949133e-02 4.884445e-02 5.064428e-02 4.816917e-02 4.946068e-02 4.972462e-02 4.767182e-02 5.105076e-02 4.685527e-02 5.045651e-02 4.842263e-02 4.866352e-02 4.983035e-02 4.720499e-02 4.911751e-02 4.888017e-02 4.937469e-02 5.032668e-02 3.841518e-02 3.038149e-02 2.208707e-02 1.558778e-02 6.244997e-03 
-4.071975e-03 -1.555128e-02 -3.492541e-02 -6.151904e-02 -1.038578e-01 -1.598427e-01 -1.649653e-01 -1.215973e-01 -1.626996e-01 -1.060278e-01 -1.306278e-01 -1.063894e-01 -1.703681e-02 -2.971578e-02 -1.069733e-02 9.110161e-02 3.955380e-02 4.607459e-02 1.043200e-01 -4.885443e-02 4.568455e-02 -1.402306e-02 -1.604835e-01 -2.314622e-02 -1.933413e-01 -8.087970e-02 -8.246736e-02 -1.839690e-01 -1.782727e-02 -1.878138e-01 -4.762985e-02 -1.054588e-01 -1.385063e-01 -1.885946e-02 -1.575107e-01 -2.968284e-02 -1.043023e-01 -1.030902e-01 -1.548786e-02 -1.340632e-01 -1.580257e-02 -9.962714e-02 -7.209022e-02 -1.798802e-02 -1.083957e-01 -7.867934e-03 -8.635614e-02 -4.523365e-02 -1.727837e-02 -8.222823e-02 1.601290e-03 -7.063641e-02 -2.095243e-02 -1.766297e-02 -5.856624e-02 7.213815e-03 -5.707561e-02 -6.066513e-03 -2.188708e-02 -4.249964e-02 8.101734e-03 -5.041943e-02 6.631239e-04 -2.158392e-02 -3.030108e-02 -1.878277e-04 -4.207605e-02 3.214678e-03 -2.553135e-02 -2.039949e-02 2.654760e-03 -3.120252e-02 4.055286e-03 -2.084872e-02 -1.016844e-02 1.921274e-03 -1.958639e-02 6.062716e-03 -1.259666e-02 -1.392103e-03 3.706485e-03 -8.509886e-03 9.310852e-03 -4.142323e-03 6.385628e-03 6.138740e-03 1.605118e-03 1.214158e-02 3.908967e-03 1.163096e-02 9.841256e-03 8.774357e-03 1.504382e-02 9.195384e-03 1.555779e-02 1.433824e-02 1.349259e-02 1.464109e-02 1.406327e-02 1.749069e-02 1.609511e-02 1.716886e-02 1.824929e-02 1.725160e-02 1.919175e-02 1.794653e-02 1.946752e-02 1.901557e-02 1.935660e-02 1.982326e-02 1.949461e-02 2.025845e-02 1.993223e-02 2.015816e-02 2.060879e-02 1.998110e-02 2.108182e-02 2.002155e-02 2.105901e-02 2.058918e-02 2.070408e-02 2.105054e-02 2.052346e-02 2.100832e-02 2.086547e-02 2.045301e-02 2.120995e-02 2.013688e-02 2.054134e-02 2.012012e-02 2.116280e-02 2.068240e-02 2.091763e-02 2.125401e-02 2.078685e-02 2.127442e-02 2.117380e-02 2.086851e-02 2.165846e-02 2.056554e-02 2.163711e-02 2.089837e-02 2.120442e-02 2.136444e-02 2.087138e-02 2.141328e-02 2.116302e-02 2.095301e-02 2.161688e-02 2.058109e-02 2.171974e-02 2.085182e-02 2.124331e-02 2.128721e-02 2.083951e-02 2.133687e-02 2.096640e-02 2.074572e-02 2.128371e-02 2.025198e-02 2.066038e-02 2.022311e-02 2.130820e-02 2.065474e-02 2.103338e-02 2.122213e-02 2.078042e-02 2.133746e-02 2.106206e-02 2.093334e-02 2.152139e-02 2.052135e-02 2.163506e-02 2.070991e-02 2.121744e-02 2.114237e-02 2.078788e-02 2.131972e-02 2.089491e-02 2.090162e-02 2.129060e-02 2.045073e-02 2.150688e-02 2.048023e-02 2.112085e-02 2.081541e-02 2.066165e-02 2.096167e-02 2.048439e-02 2.055359e-02 2.061699e-02 1.991760e-02 2.009124e-02 1.980113e-02 2.098115e-02 1.978806e-02 2.082267e-02 2.036580e-02 2.025659e-02 2.096516e-02 2.008250e-02 2.080146e-02 2.053044e-02 2.015467e-02 2.124657e-02 1.972074e-02 2.121461e-02 2.012034e-02 2.062254e-02 2.093155e-02 2.000362e-02 2.106554e-02 2.038375e-02 2.057929e-02 2.126935e-02 1.990741e-02 2.155173e-02 2.025821e-02 2.111171e-02 2.106606e-02 2.040356e-02 2.133631e-02 2.061040e-02 2.085212e-02 2.118683e-02 2.012984e-02 2.138210e-02 2.009517e-02 2.088414e-02 2.041453e-02 2.020454e-02 2.066654e-02 1.989641e-02 2.035869e-02 2.013077e-02 1.982311e-02 2.063455e-02 1.933412e-02 2.063838e-02 1.960548e-02 2.017079e-02 2.028282e-02 1.941431e-02 2.043114e-02 1.953156e-02 2.001804e-02 2.019394e-02 1.920089e-02 2.047956e-02 1.945563e-02 2.172791e-02 2.341691e-02 2.015160e-02 1.714189e-02 1.151303e-02 5.841030e-03 
1.268524e-02 5.972318e-03 -1.197181e-03 -1.153962e-02 -2.206752e-02 -3.854984e-02 -2.374472e-02 -6.511123e-03 -1.772082e-02 1.163353e-02 1.873614e-02 6.221887e-02 9.661019e-02 9.988044e-02 1.511157e-01 6.403076e-02 1.694299e-01 1.148800e-01 1.052388e-01 1.571547e-01 1.411874e-03 1.708583e-01 5.539544e-02 6.256782e-02 -1.977287e-02 8.473286e-03 9.347805e-03 -3.077338e-02 2.001153e-02 -3.696854e-02 5.217786e-03 -1.421897e-02 -2.709907e-02 1.256566e-02 -3.257638e-02 7.409418e-03 -1.664458e-02 -1.984055e-02 8.591069e-03 -3.205176e-02 5.603495e-03 -2.455532e-02 -1.545975e-02 -1.487946e-04 -2.940860e-02 1.871665e-03 -2.509984e-02 -1.173804e-02 -4.197963e-03 -2.606057e-02 1.345510e-03 -2.527852e-02 -6.493706e-03 -9.699748e-03 -2.081092e-02 -1.115130e-03 -2.299960e-02 -4.769517e-03 -1.290402e-02 -1.795693e-02 -2.263051e-03 -2.301501e-02 -2.420200e-03 -1.542423e-02 -1.670336e-02 -7.676030e-03 -1.900506e-02 -4.568313e-03 -1.638711e-02 -1.207581e-02 -6.505746e-03 -1.763676e-02 -4.875831e-03 -1.662204e-02 -9.003507e-03 -9.734482e-03 -1.421351e-02 -7.146002e-03 -1.454128e-02 -8.547779e-03 -1.055164e-02 -1.257171e-02 -7.583019e-03 -1.408781e-02 -7.141354e-03 -1.297394e-02 -9.528255e-03 -9.861138e-03 -1.176169e-02 -8.058539e-03 -1.254293e-02 -8.794199e-03 -1.047007e-02 -1.186982e-02 -7.108044e-03 -1.374703e-02 -9.389466e-03 -1.363929e-02 -9.075839e-03 -9.168308e-03 -1.238192e-02 -7.005242e-03 -1.166758e-02 -9.079812e-03 -8.514616e-03 -1.219920e-02 -5.715825e-03 -1.306028e-02 -7.326088e-03 -9.948261e-03 -1.043864e-02 -6.770546e-03 -1.222356e-02 -7.347125e-03 -9.682492e-03 -1.061248e-02 -6.518825e-03 -1.332777e-02 -5.811254e-03 -1.142360e-02 -9.047306e-03 -8.005823e-03 -1.213229e-02 -6.511792e-03 -1.155831e-02 -9.732895e-03 -7.237298e-03 -1.373170e-02 -8.602803e-03 -1.374630e-02 -7.319497e-03 -9.655787e-03 -1.164515e-02 -6.464164e-03 -1.211617e-02 -8.011328e-03 -8.955737e-03 -1.146116e-02 -5.688896e-03 -1.330933e-02 -6.480453e-03 -1.047246e-02 -9.719955e-03 -7.114294e-03 -1.224037e-02 -6.630708e-03 -1.023381e-02 -9.976794e-03 -6.921637e-03 -1.314212e-02 -5.381083e-03 -1.191454e-02 -8.510804e-03 -8.414615e-03 -1.183402e-02 -6.342574e-03 -1.195092e-02 -9.215978e-03 -7.704745e-03 -1.350373e-02 -8.630326e-03 -1.390297e-02 -6.843995e-03 -1.016166e-02 -1.119596e-02 -6.710089e-03 -1.232776e-02 -7.545227e-03 -9.478823e-03 -1.091341e-02 -6.180464e-03 -1.336026e-02 -5.967611e-03 -1.103591e-02 -9.178755e-03 -7.624254e-03 -1.209499e-02 -6.279793e-03 -1.075015e-02 -9.485159e-03 -7.410496e-03 -1.286189e-02 -5.243094e-03 -1.237181e-02 -8.055415e-03 -8.917628e-03 -1.145292e-02 -6.423830e-03 -1.230668e-02 -8.733644e-03 -8.332402e-03 -1.318947e-02 -8.831807e-03 -1.400297e-02 -6.421681e-03 -1.085000e-02 -1.063895e-02 -7.265182e-03 -1.243655e-02 -7.048799e-03 -1.015006e-02 -1.023689e-02 -6.806744e-03 -1.313954e-02 -5.486626e-03 -1.164577e-02 -8.495682e-03 -8.279884e-03 -1.181167e-02 -6.135887e-03 -1.145854e-02 -8.959709e-03 -8.070842e-03 -1.242458e-02 -5.205775e-03 -1.284916e-02 -7.420926e-03 -9.507050e-03 -1.087840e-02 -6.274609e-03 -1.222568e-02 -7.776246e-03 -9.195250e-03 -1.121260e-02 -5.851753e-03 -1.338035e-02 -6.325137e-03 -1.087384e-02 -9.653624e-03 -7.574883e-03 -1.245379e-02 -6.722710e-03 -1.072262e-02 -9.883612e-03 -7.257164e-03 -1.287782e-02 -5.193225e-03 -1.177412e-02 -7.813427e-03 -8.282515e-03 -1.094420e-02 -5.759560e-03 -1.133610e-02 -8.199048e-03 -8.150128e-03 -1.147597e-02 -4.546360e-03 -1.188917e-02 -7.035375e-03 -1.258856e-02 -9.044699e-03 9.364829e-03 1.765451e-02 2.033133e-02 2.007519e-02 1.673804e-02 
1.999765e-02 2.219118e-02 2.394331e-02 3.815985e-02 5.758132e-02 1.047035e-01 1.015242e-01 7.198418e-02 7.670846e-02 4.405111e-02 1.439729e-02 1.329379e-02 -2.007826e-01 -1.532289e-01 -1.450962e-01 -2.968166e-01 -1.945906e-01 -2.182980e-01 -2.866616e-01 -8.422572e-02 -2.688238e-01 -1.910039e-01 7.463868e-02 -7.254462e-02 1.136349e-01 1.307539e-02 4.392500e-02 1.133469e-01 1.394342e-03 1.243919e-01 2.871890e-02 6.615496e-02 1.009829e-01 5.341993e-03 1.174762e-01 1.915747e-02 7.863637e-02 7.769866e-02 1.006540e-02 1.017231e-01 1.320884e-02 7.540171e-02 5.792424e-02 1.233627e-02 8.577643e-02 8.225814e-03 6.873821e-02 3.906904e-02 1.527309e-02 6.785348e-02 3.937729e-03 5.843875e-02 2.332121e-02 1.723406e-02 5.282817e-02 7.775280e-04 5.080532e-02 1.329572e-02 2.346801e-02 4.257331e-02 2.128089e-03 4.814983e-02 1.164533e-02 2.506124e-02 3.506006e-02 1.021439e-02 4.512650e-02 9.150641e-03 2.994679e-02 2.887914e-02 8.092406e-03 3.626895e-02 9.330183e-03 2.684035e-02 2.233051e-02 8.781406e-03 2.910971e-02 8.019127e-03 2.225278e-02 1.611851e-02 8.933575e-03 2.158207e-02 6.749055e-03 1.655474e-02 1.143093e-02 7.447558e-03 1.568817e-02 4.634754e-03 1.227860e-02 7.707022e-03 6.323734e-03 1.123073e-02 3.542253e-03 9.549145e-03 6.970038e-03 3.721508e-03 8.775412e-03 4.517503e-03 8.160415e-03 4.484187e-03 3.247147e-03 6.353764e-03 1.516772e-03 4.751034e-03 3.108829e-03 1.809750e-03 5.096091e-03 2.353556e-04 4.166553e-03 1.903551e-03 1.807715e-03 3.977478e-03 1.580738e-04 3.766854e-03 1.474718e-03 1.602229e-03 3.474623e-03 -3.489103e-04 4.120481e-03 5.845109e-04 2.210686e-03 2.820739e-03 2.918163e-04 4.244867e-03 7.502497e-04 2.954706e-03 4.250335e-03 1.040698e-03 4.691141e-03 1.138134e-03 4.290093e-03 2.924396e-03 7.126317e-04 4.154937e-03 1.668825e-04 2.727146e-03 1.977294e-03 4.673181e-04 3.825836e-03 -6.097506e-04 3.215399e-03 1.125987e-03 1.225846e-03 3.142585e-03 -2.922196e-04 3.434968e-03 9.056558e-04 1.436934e-03 2.934436e-03 -4.961299e-04 3.990239e-03 1.788255e-04 2.246857e-03 2.437013e-03 3.386692e-04 4.151427e-03 4.720961e-04 3.128339e-03 3.902364e-03 1.163722e-03 4.606555e-03 9.599350e-04 4.532781e-03 2.606503e-03 9.421010e-04 4.026887e-03 1.545475e-05 3.009999e-03 1.690730e-03 7.935636e-04 3.593683e-03 -6.325015e-04 3.566997e-03 8.658682e-04 1.578393e-03 2.950886e-03 -1.545089e-04 3.731846e-03 7.364002e-04 1.785507e-03 2.831811e-03 -2.474415e-04 4.220488e-03 1.223684e-04 2.602033e-03 2.431454e-03 6.686444e-04 4.348272e-03 5.579213e-04 3.525195e-03 3.961516e-03 1.571847e-03 4.884287e-03 1.116308e-03 4.999237e-03 2.795936e-03 1.358679e-03 4.316200e-03 2.521100e-04 3.562015e-03 2.000332e-03 1.234347e-03 3.976419e-03 -2.868641e-04 4.149855e-03 1.279337e-03 1.934012e-03 3.386871e-03 8.661170e-05 4.119449e-03 1.041268e-03 1.910958e-03 3.189258e-03 -1.445882e-04 4.402184e-03 2.851881e-04 2.505161e-03 2.411566e-03 4.019215e-04 3.977272e-03 1.523676e-04 2.606844e-03 2.152992e-03 5.401044e-04 4.026136e-03 -3.547419e-04 3.466651e-03 1.473627e-03 1.469442e-03 3.583915e-03 2.300933e-05 3.935424e-03 1.553053e-03 1.874614e-03 3.860349e-03 1.198802e-04 4.816827e-03 1.347979e-03 2.784883e-03 3.600125e-03 7.704350e-04 4.700081e-03 1.113764e-03 2.623803e-03 3.122073e-03 3.547227e-04 4.701504e-03 4.451982e-04 2.045790e-03 -5.752476e-04 -1.606020e-03 9.695888e-03 1.642176e-02 2.061841e-02 2.089821e-02 2.152685e-02 
3.584195e-02 3.898404e-02 4.483950e-02 5.978242e-02 8.075594e-02 1.228909e-01 1.085045e-01 7.521447e-02 8.333745e-02 4.715125e-02 2.304609e-02 2.349688e-02 -1.153483e-01 3.858992e-02 3.785566e-02 3.662513e-02 3.753620e-02 3.735241e-02 3.555573e-02 3.761017e-02 3.548564e-02 -1.858080e-01 5.469010e-02 -8.337321e-02 1.094353e-01 1.467488e-02 4.131592e-02 1.130117e-01 8.227515e-03 1.290487e-01 3.942727e-02 7.731303e-02 1.105924e-01 2.033702e-02 1.266845e-01 3.448123e-02 9.112896e-02 9.188715e-02 2.973883e-02 1.162555e-01 3.460541e-02 9.426854e-02 7.836574e-02 3.696785e-02 1.061001e-01 3.351937e-02 9.243500e-02 6.334326e-02 4.405398e-02 9.190074e-02 3.366874e-02 8.556231e-02 5.225050e-02 4.882632e-02 8.101080e-02 3.309657e-02 8.122154e-02 4.426589e-02 5.712557e-02 7.195441e-02 3.728835e-02 7.930168e-02 4.476653e-02 6.054763e-02 7.090064e-02 4.755448e-02 7.677990e-02 4.299498e-02 6.418141e-02 5.945949e-02 4.390813e-02 6.726604e-02 4.372433e-02 6.062885e-02 5.459795e-02 4.525206e-02 6.217557e-02 4.340060e-02 5.824757e-02 4.957433e-02 4.777563e-02 5.566807e-02 4.484681e-02 5.373291e-02 4.774899e-02 4.771494e-02 5.209390e-02 4.431711e-02 5.167339e-02 4.539608e-02 4.887352e-02 4.845405e-02 4.651042e-02 5.023290e-02 4.767577e-02 4.957745e-02 5.230839e-02 5.044159e-02 5.011299e-02 4.620293e-02 4.834123e-02 4.530701e-02 4.655703e-02 4.550691e-02 4.551955e-02 4.572281e-02 4.499394e-02 4.540783e-02 4.553616e-02 4.451280e-02 4.613002e-02 4.381675e-02 4.633025e-02 4.410875e-02 4.554977e-02 4.489493e-02 4.480562e-02 4.547624e-02 4.477357e-02 4.485075e-02 4.572834e-02 4.412891e-02 4.664712e-02 4.428160e-02 4.695953e-02 4.624313e-02 4.731616e-02 4.910916e-02 5.038644e-02 4.941928e-02 4.751120e-02 4.633799e-02 4.708415e-02 4.429631e-02 4.663885e-02 4.416476e-02 4.561183e-02 4.490469e-02 4.462208e-02 4.543013e-02 4.476168e-02 4.467044e-02 4.560009e-02 4.377724e-02 4.629077e-02 4.364444e-02 4.572947e-02 4.455723e-02 4.487346e-02 4.539760e-02 4.452616e-02 4.501832e-02 4.550182e-02 4.423001e-02 4.655472e-02 4.417284e-02 4.709417e-02 4.606383e-02 4.743637e-02 4.907258e-02 5.038093e-02 4.943235e-02 4.737529e-02 4.648053e-02 4.694480e-02 4.438702e-02 4.668309e-02 4.404208e-02 4.576236e-02 4.475015e-02 4.479460e-02 4.544007e-02 4.463377e-02 4.485625e-02 4.546182e-02 4.397119e-02 4.626530e-02 4.357583e-02 4.593535e-02 4.443672e-02 4.509531e-02 4.534098e-02 4.454378e-02 4.524520e-02 4.539501e-02 4.450626e-02 4.647174e-02 4.430104e-02 4.733143e-02 4.595048e-02 4.782584e-02 4.907615e-02 5.063658e-02 4.953926e-02 4.734311e-02 4.698988e-02 4.679510e-02 4.488782e-02 4.685936e-02 4.403140e-02 4.636000e-02 4.457570e-02 4.543801e-02 4.551845e-02 4.469692e-02 4.554290e-02 4.528279e-02 4.473256e-02 4.629959e-02 4.380689e-02 4.670073e-02 4.428599e-02 4.589575e-02 4.525819e-02 4.479906e-02 4.584272e-02 4.506945e-02 4.504618e-02 4.598653e-02 4.392427e-02 4.674608e-02 4.402906e-02 4.605294e-02 4.492826e-02 4.504286e-02 4.580505e-02 4.495105e-02 4.533122e-02 4.581469e-02 4.450583e-02 4.674522e-02 4.410420e-02 4.660023e-02 4.483960e-02 4.579792e-02 4.568645e-02 4.498681e-02 4.574451e-02 4.537459e-02 4.486352e-02 4.608215e-02 4.380317e-02 4.652794e-02 4.394649e-02 4.558403e-02 4.441820e-02 4.389563e-02 4.438605e-02 4.346805e-02 4.403929e-02 4.219933e-02 3.507727e-02 3.472667e-02 3.378571e-02 3.446476e-02 3.444467e-02 
3.913314e-02 4.411171e-02 4.931390e-02 6.160817e-02 7.320753e-02 9.234526e-02 8.223637e-02 6.272363e-02 6.729986e-02 4.025080e-02 4.094584e-02 2.907882e-02 5.548928e-02 6.104513e-02 5.940351e-02 6.073782e-02 5.995160e-02 6.014485e-02 6.011178e-02 5.854433e-02 6.065196e-02 5.289989e-02 3.298475e-02 -5.478195e-03 6.817724e-02 3.021587e-02 4.073693e-02 8.236787e-02 2.724827e-02 9.530573e-02 4.696490e-02 6.980967e-02 8.627381e-02 4.006531e-02 9.727051e-02 4.674295e-02 7.814553e-02 7.706189e-02 4.661886e-02 9.152779e-02 4.732885e-02 7.977639e-02 6.987434e-02 5.058759e-02 8.529459e-02 4.648431e-02 7.803145e-02 6.157166e-02 5.332137e-02 7.682196e-02 4.578623e-02 7.373461e-02 5.503684e-02 5.498888e-02 6.990586e-02 4.534877e-02 7.065158e-02 5.076295e-02 5.834529e-02 6.490479e-02 4.787568e-02 6.978811e-02 5.167212e-02 6.269242e-02 6.800208e-02 5.596452e-02 6.857215e-02 5.094904e-02 6.162872e-02 5.785806e-02 5.122980e-02 6.217443e-02 4.988377e-02 5.915491e-02 5.468713e-02 5.170741e-02 5.878927e-02 4.963330e-02 5.730777e-02 5.199838e-02 5.233578e-02 5.510735e-02 4.992523e-02 5.472502e-02 5.061446e-02 5.202579e-02 5.262398e-02 4.965679e-02 5.302390e-02 4.942700e-02 5.207364e-02 5.076756e-02 5.081679e-02 5.266756e-02 5.130580e-02 5.496089e-02 5.625544e-02 5.523239e-02 5.269203e-02 5.050486e-02 5.161532e-02 4.882366e-02 5.037035e-02 4.913161e-02 4.907393e-02 4.980966e-02 4.817554e-02 4.983767e-02 4.872490e-02 4.876340e-02 4.962188e-02 4.777894e-02 5.007751e-02 4.801259e-02 4.918928e-02 4.901445e-02 4.819994e-02 4.981569e-02 4.802996e-02 4.915057e-02 4.912667e-02 4.818109e-02 5.024014e-02 4.809083e-02 5.053479e-02 5.015875e-02 5.075107e-02 5.409010e-02 5.497841e-02 5.456007e-02 5.098126e-02 5.029195e-02 5.064152e-02 4.812019e-02 5.023011e-02 4.820356e-02 4.904605e-02 4.916562e-02 4.792559e-02 4.975824e-02 4.815652e-02 4.885303e-02 4.917675e-02 4.778963e-02 4.999480e-02 4.763660e-02 4.933291e-02 4.870769e-02 4.828890e-02 4.971202e-02 4.782198e-02 4.930021e-02 4.890694e-02 4.829764e-02 5.012472e-02 4.800439e-02 5.066398e-02 4.997269e-02 5.089590e-02 5.401625e-02 5.497935e-02 5.460068e-02 5.082304e-02 5.045468e-02 5.048735e-02 4.821068e-02 5.029491e-02 4.805754e-02 4.921836e-02 4.899037e-02 4.810507e-02 4.978093e-02 4.799992e-02 4.905247e-02 4.901666e-02 4.798492e-02 4.996756e-02 4.754209e-02 4.953945e-02 4.857181e-02 4.849691e-02 4.965181e-02 4.781520e-02 4.951310e-02 4.879252e-02 4.854041e-02 5.004419e-02 4.809952e-02 5.087490e-02 4.986569e-02 5.122830e-02 5.399057e-02 5.516841e-02 5.473041e-02 5.077001e-02 5.086012e-02 5.037217e-02 4.859254e-02 5.046663e-02 4.802125e-02 4.968305e-02 4.886592e-02 4.859077e-02 4.987729e-02 4.802763e-02 4.957214e-02 4.891599e-02 4.855472e-02 5.004859e-02 4.773100e-02 5.012280e-02 4.852593e-02 4.910705e-02 4.965942e-02 4.805810e-02 4.998239e-02 4.863744e-02 4.898381e-02 4.973050e-02 4.784312e-02 5.032889e-02 4.819420e-02 4.943924e-02 4.926540e-02 4.832474e-02 5.010643e-02 4.837258e-02 4.942098e-02 4.941138e-02 4.839729e-02 5.042058e-02 4.803097e-02 5.002297e-02 4.899091e-02 4.896867e-02 5.000103e-02 4.816573e-02 4.980513e-02 4.885037e-02 4.868770e-02 4.976952e-02 4.761603e-02 4.993022e-02 4.804263e-02 4.869834e-02 4.871538e-02 4.691237e-02 4.845206e-02 4.675705e-02 4.796321e-02 4.612153e-02 3.908540e-02 3.650474e-02 3.569385e-02 3.583756e-02 3.743803e-02 
5.134987e-02 5.541626e-02 6.121318e-02 7.033320e-02 7.913314e-02 9.080389e-02 8.834688e-02 7.722919e-02 8.028251e-02 6.657997e-02 6.536358e-02 6.804112e-02 7.725356e-02 7.923733e-02 7.821761e-02 7.861177e-02 7.826649e-02 7.836439e-02 7.778758e-02 7.767818e-02 7.776338e-02 7.548250e-02 8.371880e-02 2.902405e-02 8.546861e-02 4.991164e-02 6.216675e-02 8.594350e-02 4.980652e-02 9.443265e-02 6.214055e-02 7.682025e-02 8.888255e-02 5.690175e-02 9.635530e-02 6.049034e-02 8.248667e-02 8.108930e-02 6.128124e-02 9.097768e-02 6.055316e-02 8.205032e-02 7.582893e-02 6.244923e-02 8.635805e-02 5.843044e-02 8.069766e-02 6.846259e-02 6.386391e-02 7.871599e-02 5.761992e-02 7.610344e-02 6.364380e-02 6.308072e-02 7.362797e-02 5.571182e-02 7.394808e-02 5.910739e-02 6.512634e-02 6.858632e-02 5.742216e-02 7.199123e-02 6.049858e-02 7.015908e-02 7.667753e-02 6.557584e-02 7.248564e-02 5.876499e-02 6.673739e-02 6.324161e-02 5.959963e-02 6.646927e-02 5.841949e-02 6.430534e-02 6.174495e-02 5.900061e-02 6.458089e-02 5.722586e-02 6.341014e-02 5.877151e-02 5.970591e-02 6.082524e-02 5.772598e-02 6.039461e-02 5.806700e-02 5.819890e-02 5.932497e-02 5.630652e-02 5.937810e-02 5.595056e-02 5.831969e-02 5.666275e-02 5.710399e-02 5.783361e-02 5.800139e-02 6.188325e-02 6.605233e-02 6.255267e-02 5.898772e-02 5.615343e-02 5.728834e-02 5.487772e-02 5.651967e-02 5.510377e-02 5.578828e-02 5.550493e-02 5.532444e-02 5.547250e-02 5.562234e-02 5.484364e-02 5.612864e-02 5.427491e-02 5.633315e-02 5.438614e-02 5.580657e-02 5.494121e-02 5.519857e-02 5.533057e-02 5.507761e-02 5.490816e-02 5.562656e-02 5.425588e-02 5.613933e-02 5.411091e-02 5.618330e-02 5.544688e-02 5.709470e-02 6.065373e-02 6.466778e-02 6.164187e-02 5.742303e-02 5.563053e-02 5.625660e-02 5.411062e-02 5.611965e-02 5.422757e-02 5.555322e-02 5.486730e-02 5.497655e-02 5.524204e-02 5.511205e-02 5.477678e-02 5.572172e-02 5.416756e-02 5.618061e-02 5.408199e-02 5.582072e-02 5.467824e-02 5.519182e-02 5.521467e-02 5.491599e-02 5.495359e-02 5.545441e-02 5.429581e-02 5.604697e-02 5.404026e-02 5.623692e-02 5.532337e-02 5.716767e-02 6.059580e-02 6.465844e-02 6.166007e-02 5.732584e-02 5.571955e-02 5.616690e-02 5.415880e-02 5.615433e-02 5.414731e-02 5.566190e-02 5.477127e-02 5.507764e-02 5.525892e-02 5.503928e-02 5.490302e-02 5.563372e-02 5.428925e-02 5.617701e-02 5.405063e-02 5.595498e-02 5.461109e-02 5.533396e-02 5.520408e-02 5.494061e-02 5.510201e-02 5.541059e-02 5.447508e-02 5.603692e-02 5.413300e-02 5.640208e-02 5.530388e-02 5.741562e-02 6.062446e-02 6.482708e-02 6.180229e-02 5.734793e-02 5.602907e-02 5.615799e-02 5.445011e-02 5.632470e-02 5.420043e-02 5.602705e-02 5.476047e-02 5.544953e-02 5.539846e-02 5.515063e-02 5.531276e-02 5.565070e-02 5.473736e-02 5.632365e-02 5.427536e-02 5.641598e-02 5.468385e-02 5.584354e-02 5.534821e-02 5.524886e-02 5.556501e-02 5.552100e-02 5.500852e-02 5.615997e-02 5.435853e-02 5.651603e-02 5.451090e-02 5.603952e-02 5.514282e-02 5.540791e-02 5.563440e-02 5.541754e-02 5.529439e-02 5.602850e-02 5.471020e-02 5.661498e-02 5.450780e-02 5.643531e-02 5.503343e-02 5.582459e-02 5.560744e-02 5.536247e-02 5.552807e-02 5.569274e-02 5.486557e-02 5.620749e-02 5.421090e-02 5.626332e-02 5.432295e-02 5.547436e-02 5.458980e-02 5.431621e-02 5.428197e-02 5.373280e-02 5.308208e-02 5.231409e-02 4.787876e-02 4.734890e-02 4.598558e-02 4.733006e-02 4.829099e-02 