# vtk DataFile Version 2.0
Comment goes here
ASCII

DATASET STRUCTURED_POINTS
FIELD FieldData 1
TIME 1 1 double
0.05900000
DIMENSIONS    256   32   1

ORIGIN    0.000   0.000   0.000
SPACING   0.0078125 0.0078125   1.000

POINT_DATA   8192
SCALARS uX double
LOOKUP_TABLE default

-1.629273e-02 -4.469509e-02 -8.712506e-02 -1.412998e-01 -2.133977e-01 -2.850584e-01 -3.360708e-01 -3.058274e-01 -3.524610e-01 -3.262317e-01 -3.775043e-01 -4.217994e-01 -4.339653e-01 -5.569042e-01 -6.025022e-01 -5.021616e-01 -6.450590e-01 -6.004013e-01 -5.908091e-01 -6.945320e-01 -4.177354e-01 -4.694106e-01 -4.969828e-01 -2.278728e-01 -4.013720e-01 -2.494643e-01 -2.440738e-01 -3.420183e-01 -1.466646e-01 -3.393073e-01 -1.693787e-01 -2.319953e-01 -2.574204e-01 -1.209096e-01 -2.785025e-01 -1.240872e-01 -2.062681e-01 -1.965925e-01 -9.290265e-02 -2.300030e-01 -8.248463e-02 -1.808030e-01 -1.399828e-01 -7.425126e-02 -1.815171e-01 -5.226075e-02 -1.506133e-01 -9.417286e-02 -5.806449e-02 -1.393671e-01 -2.738841e-02 -1.229999e-01 -5.531670e-02 -4.851850e-02 -1.010683e-01 -1.020535e-02 -9.632233e-02 -2.554312e-02 -4.215452e-02 -6.822691e-02 4.712737e-03 -7.295958e-02 3.301949e-07 -2.901496e-02 -3.560920e-02 1.222967e-02 -5.026470e-02 1.690223e-02 -2.359596e-02 -1.331818e-02 2.352453e-02 -2.971863e-02 3.067259e-02 -1.245078e-02 8.542144e-03 3.020106e-02 -1.015304e-02 4.175698e-02 4.603494e-04 2.642901e-02 3.604108e-02 6.658444e-03 5.107862e-02 1.161260e-02 4.158988e-02 3.864563e-02 2.203090e-02 5.719524e-02 2.247303e-02 5.249028e-02 4.199844e-02 3.501472e-02 6.369882e-02 3.233101e-02 6.307024e-02 4.977639e-02 4.954254e-02 6.697728e-02 4.234423e-02 6.883316e-02 5.229996e-02 5.666554e-02 7.056789e-02 4.960623e-02 7.354156e-02 5.613341e-02 6.482561e-02 7.235421e-02 5.711975e-02 7.707586e-02 6.121026e-02 7.108566e-02 7.442357e-02 6.303525e-02 8.079061e-02 6.513105e-02 7.707593e-02 7.515743e-02 6.918334e-02 8.321033e-02 6.979436e-02 8.117816e-02 7.774984e-02 7.419783e-02 8.673134e-02 7.391428e-02 8.604786e-02 8.192963e-02 8.116306e-02 8.852701e-02 7.822226e-02 8.763603e-02 8.255305e-02 8.207969e-02 8.898159e-02 7.984774e-02 8.910816e-02 8.315928e-02 8.519255e-02 8.935580e-02 8.277948e-02 9.051541e-02 8.539680e-02 8.770389e-02 9.076080e-02 8.471678e-02 9.294930e-02 8.668332e-02 9.079465e-02 9.132677e-02 8.743885e-02 9.428303e-02 8.879110e-02 9.261163e-02 9.297874e-02 8.928229e-02 9.674250e-02 9.023990e-02 9.551215e-02 9.509505e-02 9.334936e-02 9.795294e-02 9.190575e-02 9.555896e-02 9.441635e-02 9.181628e-02 9.689674e-02 9.091620e-02 9.566090e-02 9.307463e-02 9.276474e-02 9.606218e-02 9.133181e-02 9.567108e-02 9.335088e-02 9.316147e-02 9.636778e-02 9.107814e-02 9.667295e-02 9.286905e-02 9.435841e-02 9.580272e-02 9.190887e-02 9.672334e-02 9.348135e-02 9.465642e-02 9.648419e-02 9.230177e-02 9.833388e-02 9.390305e-02 9.662831e-02 9.796873e-02 9.547872e-02 9.943944e-02 9.497477e-02 9.637738e-02 9.729815e-02 9.347723e-02 9.839086e-02 9.347210e-02 9.635749e-02 9.574395e-02 9.393313e-02 9.760002e-02 9.326154e-02 9.611648e-02 9.559477e-02 9.363024e-02 9.768751e-02 9.230819e-02 9.672909e-02 9.455220e-02 9.416273e-02 9.676367e-02 9.239302e-02 9.634638e-02 9.443393e-02 9.375289e-02 9.673856e-02 9.173252e-02 9.692613e-02 9.344612e-02 9.440976e-02 9.586802e-02 9.232014e-02 9.673723e-02 9.348782e-02 9.443689e-02 9.607711e-02 9.236776e-02 9.759449e-02 9.269964e-02 9.562036e-02 9.547352e-02 9.341027e-02 9.738575e-02 9.291454e-02 9.585210e-02 9.556477e-02 9.341382e-02 9.758476e-02 9.214722e-02 9.649671e-02 9.444476e-02 9.384710e-02 9.644483e-02 9.128226e-02 9.530830e-02 9.361742e-02 9.594885e-02 9.330792e-02 7.235452e-02 5.392472e-02 3.866642e-02 2.294198e-02 6.793219e-03 
-2.639497e-03 -3.176008e-02 -6.872204e-02 -1.263650e-01 -1.959521e-01 -2.801091e-01 -3.152240e-01 -2.903952e-01 -3.297474e-01 -3.196508e-01 -3.654732e-01 -4.454733e-01 -4.209486e-01 -6.584704e-01 -6.874804e-01 -5.913635e-01 -7.234624e-01 -6.556853e-01 -6.436738e-01 -7.133208e-01 -4.733925e-01 -4.290951e-01 -5.153781e-01 -1.932240e-01 -4.059951e-01 -2.070843e-01 -2.330857e-01 -3.191245e-01 -1.232633e-01 -3.205051e-01 -1.442040e-01 -2.125147e-01 -2.455174e-01 -9.463220e-02 -2.683959e-01 -1.001783e-01 -1.948624e-01 -1.844524e-01 -7.244645e-02 -2.224139e-01 -6.330582e-02 -1.728778e-01 -1.287924e-01 -5.801380e-02 -1.760896e-01 -3.704571e-02 -1.447895e-01 -8.439202e-02 -4.483447e-02 -1.363732e-01 -1.427488e-02 -1.197565e-01 -4.550966e-02 -3.957267e-02 -9.829681e-02 -2.057792e-04 -9.335489e-02 -1.768420e-02 -3.586975e-02 -6.699793e-02 1.367675e-02 -7.373728e-02 7.149440e-03 -2.225602e-02 -3.290451e-02 1.471334e-02 -5.054821e-02 2.313044e-02 -2.151484e-02 -1.219303e-02 2.948928e-02 -3.037228e-02 3.568879e-02 -1.266126e-02 1.077866e-02 3.386726e-02 -1.044779e-02 4.481279e-02 3.652510e-04 2.758817e-02 3.906387e-02 4.970513e-03 5.416573e-02 1.006522e-02 4.345445e-02 3.909072e-02 2.104421e-02 5.864439e-02 2.138506e-02 5.294292e-02 4.181832e-02 3.283265e-02 6.523335e-02 2.887356e-02 6.358678e-02 4.955308e-02 4.849453e-02 6.492946e-02 3.980757e-02 6.846219e-02 5.076767e-02 5.459849e-02 7.067275e-02 4.668502e-02 7.343782e-02 5.332635e-02 6.390187e-02 7.103233e-02 5.504738e-02 7.572344e-02 5.914892e-02 6.918911e-02 7.336335e-02 5.993519e-02 8.007630e-02 6.198023e-02 7.599111e-02 7.246568e-02 6.698161e-02 8.128022e-02 6.731301e-02 7.885976e-02 7.537762e-02 7.087077e-02 8.524712e-02 6.974275e-02 8.406129e-02 7.903133e-02 7.876370e-02 8.486480e-02 7.506850e-02 8.472681e-02 7.988664e-02 7.881363e-02 8.680988e-02 7.628425e-02 8.705353e-02 7.958739e-02 8.306413e-02 8.616069e-02 8.022721e-02 8.747617e-02 8.275733e-02 8.462450e-02 8.825043e-02 8.122731e-02 9.075735e-02 8.301940e-02 8.856557e-02 8.762530e-02 8.484953e-02 9.098336e-02 8.588166e-02 8.925868e-02 8.990260e-02 8.556550e-02 9.406789e-02 8.589101e-02 9.261469e-02 9.118172e-02 9.048076e-02 9.378328e-02 8.852612e-02 9.170120e-02 9.137893e-02 8.809851e-02 9.393867e-02 8.715537e-02 9.292528e-02 8.925375e-02 9.018561e-02 9.225112e-02 8.862703e-02 9.205841e-02 9.051429e-02 8.965216e-02 9.345357e-02 8.746290e-02 9.397300e-02 8.906809e-02 9.174685e-02 9.187593e-02 8.921563e-02 9.299452e-02 9.051586e-02 9.096554e-02 9.329736e-02 8.848767e-02 9.530392e-02 8.958875e-02 9.342366e-02 9.387533e-02 9.248977e-02 9.513485e-02 9.161729e-02 9.221931e-02 9.428501e-02 8.958443e-02 9.524311e-02 8.975456e-02 9.337539e-02 9.197131e-02 9.117245e-02 9.370169e-02 9.060015e-02 9.227404e-02 9.282097e-02 8.993796e-02 9.477917e-02 8.872042e-02 9.383540e-02 9.086559e-02 9.139221e-02 9.295485e-02 8.974118e-02 9.250556e-02 9.170857e-02 9.001947e-02 9.390588e-02 8.813178e-02 9.401967e-02 8.981395e-02 9.159525e-02 9.213912e-02 8.964089e-02 9.289211e-02 9.083192e-02 9.065221e-02 9.332561e-02 8.871884e-02 9.471723e-02 8.913902e-02 9.276663e-02 9.182099e-02 9.071173e-02 9.360554e-02 9.036666e-02 9.205916e-02 9.295908e-02 8.978542e-02 9.489034e-02 8.869992e-02 9.381444e-02 9.097282e-02 9.142615e-02 9.295061e-02 8.926390e-02 9.192650e-02 9.199730e-02 9.348472e-02 9.400658e-02 7.405135e-02 5.944153e-02 4.459056e-02 3.258386e-02 1.602170e-02 
-2.641836e-04 -2.104477e-02 -5.461433e-02 -1.006600e-01 -1.690739e-01 -2.493289e-01 -2.566959e-01 -1.979457e-01 -2.435434e-01 -1.701240e-01 -1.972635e-01 -1.459084e-01 -1.704817e-02 -3.990169e-02 -1.296643e-02 1.267890e-01 7.057082e-02 8.607691e-02 1.605274e-01 -6.020698e-02 5.413480e-02 -3.101034e-02 -2.416752e-01 -6.643157e-02 -3.021393e-01 -1.349400e-01 -1.458179e-01 -2.825510e-01 -5.013966e-02 -2.926634e-01 -8.625727e-02 -1.777870e-01 -2.196537e-01 -4.699731e-02 -2.508375e-01 -5.986534e-02 -1.774449e-01 -1.684209e-01 -3.801875e-02 -2.167409e-01 -3.519565e-02 -1.696058e-01 -1.193259e-01 -3.701911e-02 -1.804397e-01 -1.997883e-02 -1.528368e-01 -8.014159e-02 -3.762729e-02 -1.477921e-01 -7.962131e-03 -1.349572e-01 -4.741772e-02 -4.360611e-02 -1.163102e-01 -1.579184e-03 -1.152796e-01 -2.412525e-02 -5.254079e-02 -8.854095e-02 2.743717e-03 -1.031500e-01 -8.488731e-03 -4.630989e-02 -6.247152e-02 -9.849942e-03 -8.529782e-02 5.363453e-03 -5.442524e-02 -3.891351e-02 6.345937e-03 -6.404404e-02 1.223634e-02 -4.818327e-02 -1.813378e-02 6.148818e-03 -4.770951e-02 1.764225e-02 -3.965496e-02 -2.799094e-03 4.487029e-03 -3.363461e-02 2.175444e-02 -3.155494e-02 9.676466e-03 1.063695e-04 -1.980146e-02 2.362889e-02 -2.300940e-02 1.744179e-02 -2.734313e-03 -8.494787e-03 2.466939e-02 -1.877530e-02 2.235920e-02 1.277106e-03 2.104067e-04 1.651911e-02 -1.018955e-02 2.655254e-02 7.349406e-05 1.140211e-02 2.455721e-02 -6.345949e-04 2.939202e-02 3.619130e-03 1.972174e-02 2.368524e-02 6.435242e-03 3.061141e-02 7.771914e-03 2.476078e-02 2.259535e-02 1.198130e-02 3.206639e-02 1.109786e-02 2.924907e-02 2.060439e-02 1.813800e-02 3.245541e-02 1.502083e-02 3.151389e-02 2.090739e-02 2.213816e-02 3.242620e-02 1.599663e-02 3.241808e-02 2.198033e-02 2.347917e-02 2.731978e-02 2.011375e-02 3.304957e-02 2.326843e-02 2.915940e-02 3.176171e-02 2.460068e-02 3.475013e-02 2.533045e-02 3.272745e-02 3.136212e-02 2.803205e-02 3.506117e-02 2.774608e-02 3.437315e-02 3.156967e-02 3.030411e-02 3.631667e-02 2.904922e-02 3.651675e-02 3.132833e-02 3.317681e-02 3.641854e-02 3.095420e-02 3.709021e-02 3.195657e-02 3.402765e-02 3.629750e-02 3.020883e-02 3.676549e-02 3.086255e-02 3.251457e-02 3.282501e-02 3.185969e-02 3.609161e-02 3.276382e-02 3.585413e-02 3.554786e-02 3.406786e-02 3.743370e-02 3.355394e-02 3.734562e-02 3.493977e-02 3.541922e-02 3.694003e-02 3.445510e-02 3.716391e-02 3.512210e-02 3.566641e-02 3.726400e-02 3.441265e-02 3.775007e-02 3.460544e-02 3.668913e-02 3.655081e-02 3.523700e-02 3.710226e-02 3.495019e-02 3.609127e-02 3.603463e-02 3.390927e-02 3.602041e-02 3.335305e-02 3.360856e-02 3.328233e-02 3.514927e-02 3.508422e-02 3.590974e-02 3.628329e-02 3.607745e-02 3.697026e-02 3.654891e-02 3.663872e-02 3.721176e-02 3.600751e-02 3.762457e-02 3.593404e-02 3.715891e-02 3.640393e-02 3.642931e-02 3.693475e-02 3.603540e-02 3.662580e-02 3.638912e-02 3.593352e-02 3.705262e-02 3.523443e-02 3.704685e-02 3.544835e-02 3.647551e-02 3.621545e-02 3.551685e-02 3.663176e-02 3.555120e-02 3.625446e-02 3.638546e-02 3.518138e-02 3.729185e-02 3.496197e-02 3.713350e-02 3.580613e-02 3.611849e-02 3.712184e-02 3.551166e-02 3.713983e-02 3.631111e-02 3.618111e-02 3.773150e-02 3.525770e-02 3.781372e-02 3.592305e-02 3.686980e-02 3.722622e-02 3.572160e-02 3.737658e-02 3.613847e-02 3.659026e-02 3.733173e-02 3.551422e-02 3.730063e-02 3.581810e-02 3.920093e-02 4.284731e-02 3.967113e-02 3.544893e-02 2.668281e-02 1.662836e-02 
2.820796e-02 1.701103e-02 5.023722e-03 -1.185134e-02 -2.919749e-02 -5.671527e-02 -3.244441e-02 -8.359338e-03 -2.068824e-02 1.689867e-02 3.815372e-02 9.728056e-02 1.486100e-01 1.574742e-01 2.024203e-01 9.394829e-02 2.375451e-01 1.571477e-01 1.617881e-01 2.156329e-01 -8.605873e-03 2.504768e-01 7.045541e-02 9.267354e-02 -3.597108e-02 1.011691e-02 8.670110e-03 -4.766944e-02 2.217601e-02 -5.799416e-02 4.574641e-03 -2.626975e-02 -4.551423e-02 9.037082e-03 -5.513737e-02 3.133349e-03 -3.664632e-02 -3.799637e-02 4.518055e-03 -5.299858e-02 4.283574e-03 -4.323137e-02 -2.679500e-02 -2.706120e-03 -4.697724e-02 1.551930e-03 -4.307367e-02 -1.997873e-02 -7.681780e-03 -4.366872e-02 1.221573e-03 -4.370874e-02 -1.215342e-02 -1.617983e-02 -3.698924e-02 -2.688923e-03 -4.037567e-02 -9.628251e-03 -2.286071e-02 -3.323010e-02 -5.409556e-03 -4.183019e-02 -8.472175e-03 -2.951714e-02 -2.974155e-02 -1.693008e-02 -3.863406e-02 -8.485526e-03 -3.133707e-02 -2.204775e-02 -1.085243e-02 -3.296912e-02 -6.569304e-03 -3.161810e-02 -1.539720e-02 -1.469893e-02 -2.805168e-02 -8.881475e-03 -2.962331e-02 -1.385419e-02 -1.703918e-02 -2.644360e-02 -9.206035e-03 -2.993548e-02 -1.081065e-02 -2.217837e-02 -2.174211e-02 -1.237512e-02 -2.686208e-02 -1.165046e-02 -2.366970e-02 -2.037586e-02 -1.412535e-02 -2.847554e-02 -1.182655e-02 -2.830171e-02 -2.178918e-02 -2.288084e-02 -2.549160e-02 -1.387913e-02 -2.620443e-02 -1.584082e-02 -1.754540e-02 -2.263191e-02 -1.219397e-02 -2.540603e-02 -1.223658e-02 -2.020461e-02 -1.904976e-02 -1.459443e-02 -2.292378e-02 -1.311759e-02 -2.064191e-02 -1.849360e-02 -1.461064e-02 -2.308633e-02 -1.192251e-02 -2.340613e-02 -1.503722e-02 -1.741095e-02 -2.043133e-02 -1.390924e-02 -2.269848e-02 -1.554763e-02 -1.874454e-02 -2.224811e-02 -1.445428e-02 -2.690474e-02 -1.894364e-02 -2.530306e-02 -1.940279e-02 -1.705504e-02 -2.306978e-02 -1.413033e-02 -2.039279e-02 -1.775168e-02 -1.523829e-02 -2.186228e-02 -1.189898e-02 -2.225555e-02 -1.477776e-02 -1.763206e-02 -1.929762e-02 -1.379486e-02 -2.147802e-02 -1.470053e-02 -1.733382e-02 -1.959134e-02 -1.298297e-02 -2.290365e-02 -1.215421e-02 -1.979409e-02 -1.725520e-02 -1.530116e-02 -2.164190e-02 -1.372915e-02 -2.074451e-02 -1.924137e-02 -1.591840e-02 -2.597749e-02 -1.799469e-02 -2.615589e-02 -1.675054e-02 -1.867472e-02 -2.139957e-02 -1.387249e-02 -2.146288e-02 -1.560363e-02 -1.671050e-02 -2.009829e-02 -1.233461e-02 -2.271287e-02 -1.284150e-02 -1.903985e-02 -1.759584e-02 -1.455522e-02 -2.125982e-02 -1.330395e-02 -1.862540e-02 -1.802227e-02 -1.396809e-02 -2.229505e-02 -1.143198e-02 -2.101275e-02 -1.583462e-02 -1.644778e-02 -2.067806e-02 -1.356562e-02 -2.177953e-02 -1.780858e-02 -1.724979e-02 -2.498453e-02 -1.831068e-02 -2.656360e-02 -1.524484e-02 -2.014726e-02 -2.000547e-02 -1.460063e-02 -2.177436e-02 -1.420395e-02 -1.809105e-02 -1.863984e-02 -1.337891e-02 -2.259276e-02 -1.176624e-02 -2.038237e-02 -1.626023e-02 -1.567309e-02 -2.077339e-02 -1.277555e-02 -1.992506e-02 -1.688124e-02 -1.522510e-02 -2.160654e-02 -1.137718e-02 -2.208604e-02 -1.467343e-02 -1.755508e-02 -1.940781e-02 -1.312372e-02 -2.123621e-02 -1.523513e-02 -1.711510e-02 -1.985012e-02 -1.241818e-02 -2.289927e-02 -1.287518e-02 -1.951013e-02 -1.734551e-02 -1.480545e-02 -2.135719e-02 -1.330153e-02 -1.910742e-02 -1.773932e-02 -1.430165e-02 -2.233813e-02 -1.134580e-02 -2.135231e-02 -1.546863e-02 -1.647742e-02 -2.028751e-02 -1.249997e-02 -2.049119e-02 -1.597339e-02 -1.583812e-02 -2.070192e-02 -1.025215e-02 -2.114390e-02 -1.487023e-02 -2.382771e-02 -1.706134e-02 1.470447e-02 3.201699e-02 3.892867e-02 3.983687e-02 3.489372e-02 
4.359996e-02 4.684327e-02 5.064748e-02 7.204511e-02 1.010120e-01 1.598561e-01 1.601206e-01 1.208153e-01 1.173425e-01 7.454265e-02 3.068352e-02 3.345932e-03 -2.899439e-01 -2.178311e-01 -2.147049e-01 -4.113695e-01 -2.781935e-01 -3.201969e-01 -3.956531e-01 -1.236564e-01 -3.768396e-01 -2.580798e-01 1.058214e-01 -7.953117e-02 1.724850e-01 3.335799e-02 7.878359e-02 1.729142e-01 1.867409e-02 1.917387e-01 5.644410e-02 1.110422e-01 1.564437e-01 1.874075e-02 1.813116e-01 3.926680e-02 1.260919e-01 1.221389e-01 2.217626e-02 1.598628e-01 2.853335e-02 1.243502e-01 9.370844e-02 2.491864e-02 1.398734e-01 1.947036e-02 1.183443e-01 6.775042e-02 3.120857e-02 1.183616e-01 1.484569e-02 1.077672e-01 4.789891e-02 3.853268e-02 9.931261e-02 1.175888e-02 9.714901e-02 3.268751e-02 4.989939e-02 8.180402e-02 1.223718e-02 9.325920e-02 2.809449e-02 4.914757e-02 7.079110e-02 2.798002e-02 8.485264e-02 1.671082e-02 5.776711e-02 5.060803e-02 1.210037e-02 6.715615e-02 1.180424e-02 5.347593e-02 3.689523e-02 1.255433e-02 5.783073e-02 8.054027e-03 4.979661e-02 2.616064e-02 1.588134e-02 4.853568e-02 6.576478e-03 4.459281e-02 1.870505e-02 1.965276e-02 4.102250e-02 4.960818e-03 4.107323e-02 1.331119e-02 2.468460e-02 3.451797e-02 6.544349e-03 4.136140e-02 1.481362e-02 2.454944e-02 3.355859e-02 1.599097e-02 3.876192e-02 9.677648e-03 2.563056e-02 2.203872e-02 6.609682e-03 2.845769e-02 6.304804e-03 2.227037e-02 1.632272e-02 6.311394e-03 2.492792e-02 4.471117e-03 2.101200e-02 1.197811e-02 8.273952e-03 2.120282e-02 3.997712e-03 1.885965e-02 9.417198e-03 9.580859e-03 1.870769e-02 2.744838e-03 1.821243e-02 7.257994e-03 1.152965e-02 1.665982e-02 4.503280e-03 1.999204e-02 1.097796e-02 1.348365e-02 2.004389e-02 1.068860e-02 2.040952e-02 8.083124e-03 1.183303e-02 1.232486e-02 4.161559e-03 1.334588e-02 4.914725e-03 9.287525e-03 9.472025e-03 3.067190e-03 1.208266e-02 3.166040e-03 9.057697e-03 6.988976e-03 3.851574e-03 1.053930e-02 2.497559e-03 8.264364e-03 5.865228e-03 3.762390e-03 1.007364e-02 1.304254e-03 8.829978e-03 4.589252e-03 5.226230e-03 9.825734e-03 2.884034e-03 1.153109e-02 8.836563e-03 8.836510e-03 1.477262e-02 7.445996e-03 1.365060e-02 6.719069e-03 6.413356e-03 8.474029e-03 2.226986e-03 8.010264e-03 3.462426e-03 4.742282e-03 6.705723e-03 1.294396e-03 8.180358e-03 2.101287e-03 5.524724e-03 5.342390e-03 2.119736e-03 7.798308e-03 2.028202e-03 5.502631e-03 5.178122e-03 2.134497e-03 8.260984e-03 1.317915e-03 6.613005e-03 4.642128e-03 3.766600e-03 8.726710e-03 3.144907e-03 9.599588e-03 9.257177e-03 7.715444e-03 1.411029e-02 7.240786e-03 1.204114e-02 7.241152e-03 4.815459e-03 8.100435e-03 2.001541e-03 6.665859e-03 3.881931e-03 3.246374e-03 6.622688e-03 8.196108e-04 7.270719e-03 2.655003e-03 4.285775e-03 5.790673e-03 1.610084e-03 7.386374e-03 2.784438e-03 4.531744e-03 6.040427e-03 1.618491e-03 8.247852e-03 2.080040e-03 5.666168e-03 5.350192e-03 2.597675e-03 7.925239e-03 2.286586e-03 5.793204e-03 5.442949e-03 2.620055e-03 8.192427e-03 1.485658e-03 6.817776e-03 4.379975e-03 3.552117e-03 7.156291e-03 1.592809e-03 6.863661e-03 4.039231e-03 3.456702e-03 6.888533e-03 9.566063e-04 7.565068e-03 2.735710e-03 4.267355e-03 5.701493e-03 1.460819e-03 7.240137e-03 2.378600e-03 4.274221e-03 5.192949e-03 1.217389e-03 7.715667e-03 1.615345e-03 3.789808e-03 -7.176366e-04 -3.842091e-04 1.986352e-02 3.352185e-02 4.208985e-02 4.401216e-02 4.535585e-02 
7.087445e-02 7.673016e-02 8.797286e-02 1.131759e-01 1.482828e-01 2.093889e-01 1.896315e-01 1.421717e-01 1.450321e-01 9.989709e-02 5.977902e-02 4.541234e-02 -1.425275e-01 6.981869e-02 6.882385e-02 6.738425e-02 6.938027e-02 6.902720e-02 6.632275e-02 6.956361e-02 6.654041e-02 -2.463005e-01 7.907655e-02 -1.113060e-01 1.802645e-01 4.232248e-02 8.678977e-02 1.895008e-01 4.025977e-02 2.192990e-01 8.471980e-02 1.451651e-01 1.903253e-01 5.740804e-02 2.174633e-01 7.863622e-02 1.688844e-01 1.647433e-01 6.768626e-02 2.017283e-01 7.426909e-02 1.720892e-01 1.412574e-01 7.418510e-02 1.866840e-01 6.908578e-02 1.704289e-01 1.179869e-01 8.494833e-02 1.684690e-01 6.882015e-02 1.619243e-01 1.016938e-01 9.464502e-02 1.535436e-01 6.788974e-02 1.548052e-01 8.835204e-02 1.105789e-01 1.391277e-01 7.494760e-02 1.554453e-01 9.351530e-02 1.230108e-01 1.460089e-01 1.038108e-01 1.556849e-01 8.366239e-02 1.259531e-01 1.123299e-01 7.843499e-02 1.292113e-01 7.544075e-02 1.186112e-01 9.905063e-02 7.885690e-02 1.215632e-01 7.261854e-02 1.172088e-01 8.904416e-02 8.532596e-02 1.126539e-01 7.426439e-02 1.122497e-01 8.420871e-02 8.980334e-02 1.068450e-01 7.356818e-02 1.102473e-01 7.953769e-02 9.727765e-02 1.010315e-01 8.026207e-02 1.135327e-01 8.914939e-02 1.080927e-01 1.165318e-01 1.011888e-01 1.166983e-01 8.430823e-02 1.027792e-01 9.064563e-02 8.198207e-02 9.812424e-02 7.785532e-02 9.535708e-02 8.482755e-02 8.090719e-02 9.514700e-02 7.618009e-02 9.505416e-02 8.059575e-02 8.483813e-02 9.049941e-02 7.807629e-02 9.190264e-02 8.019043e-02 8.575431e-02 8.871602e-02 7.721994e-02 9.199962e-02 7.838399e-02 8.939026e-02 8.692788e-02 8.355705e-02 9.621535e-02 8.946407e-02 1.010368e-01 1.061522e-01 1.000702e-01 1.009259e-01 8.626613e-02 9.249835e-02 8.380908e-02 8.349913e-02 8.569191e-02 8.002672e-02 8.531100e-02 8.084882e-02 8.128480e-02 8.458742e-02 7.835374e-02 8.557659e-02 7.854790e-02 8.352136e-02 8.166063e-02 7.988369e-02 8.336891e-02 7.937066e-02 8.250218e-02 8.175655e-02 7.881050e-02 8.440791e-02 7.836392e-02 8.532394e-02 8.180363e-02 8.468474e-02 8.923432e-02 8.972701e-02 9.798747e-02 1.024551e-01 9.905055e-02 9.502034e-02 8.701097e-02 8.829402e-02 8.156407e-02 8.355197e-02 8.113140e-02 8.060299e-02 8.151797e-02 7.971462e-02 8.088979e-02 8.098878e-02 7.901499e-02 8.236400e-02 7.824938e-02 8.252906e-02 7.904526e-02 8.071022e-02 8.062091e-02 7.972081e-02 8.116590e-02 8.008839e-02 7.976996e-02 8.202757e-02 7.919568e-02 8.377483e-02 8.092124e-02 8.560963e-02 8.701153e-02 9.087195e-02 9.668836e-02 1.021946e-01 9.917954e-02 9.297938e-02 8.836984e-02 8.645529e-02 8.187821e-02 8.376558e-02 7.948463e-02 8.194867e-02 7.981554e-02 8.054752e-02 8.077964e-02 7.994443e-02 8.056160e-02 8.103085e-02 7.961645e-02 8.229505e-02 7.883221e-02 8.254277e-02 7.975869e-02 8.164534e-02 8.097339e-02 8.061471e-02 8.159172e-02 8.118094e-02 8.077549e-02 8.228219e-02 7.959628e-02 8.326445e-02 7.968108e-02 8.261874e-02 8.063868e-02 8.139219e-02 8.188493e-02 8.088864e-02 8.153620e-02 8.171056e-02 8.033812e-02 8.305671e-02 7.923458e-02 8.315845e-02 7.996151e-02 8.192781e-02 8.131857e-02 8.045940e-02 8.179674e-02 8.102395e-02 8.053103e-02 8.226341e-02 7.884590e-02 8.289433e-02 7.905775e-02 8.152601e-02 7.986907e-02 7.914523e-02 7.995027e-02 7.925327e-02 8.022654e-02 7.808983e-02 6.765643e-02 6.703714e-02 6.592034e-02 6.743345e-02 6.789374e-02 
7.951406e-02 8.839868e-02 9.913645e-02 1.212194e-01 1.442319e-01 1.767498e-01 1.588289e-01 1.286312e-01 1.290592e-01 9.336503e-02 8.900223e-02 7.361533e-02 1.022610e-01 1.087598e-01 1.069196e-01 1.085258e-01 1.077067e-01 1.080146e-01 1.077729e-01 1.060355e-01 1.085683e-01 9.909505e-02 6.232164e-02 8.402971e-03 1.271538e-01 6.846166e-02 8.939382e-02 1.516225e-01 7.012561e-02 1.761337e-01 9.857035e-02 1.392775e-01 1.611442e-01 9.131882e-02 1.809195e-01 1.005749e-01 1.550027e-01 1.487350e-01 9.953033e-02 1.720647e-01 9.897693e-02 1.560396e-01 1.352682e-01 1.028583e-01 1.621427e-01 9.578126e-02 1.535897e-01 1.217673e-01 1.073862e-01 1.507266e-01 9.467042e-02 1.479567e-01 1.116962e-01 1.116278e-01 1.407597e-01 9.396979e-02 1.430011e-01 1.042460e-01 1.192273e-01 1.329341e-01 9.937649e-02 1.451815e-01 1.116163e-01 1.376202e-01 1.528677e-01 1.279622e-01 1.500057e-01 1.063060e-01 1.278868e-01 1.169636e-01 9.985590e-02 1.263868e-01 9.547884e-02 1.207125e-01 1.076492e-01 9.929716e-02 1.207349e-01 9.381445e-02 1.190713e-01 1.021399e-01 1.021424e-01 1.154727e-01 9.433723e-02 1.162631e-01 9.897797e-02 1.043723e-01 1.113593e-01 9.433767e-02 1.144617e-01 9.669320e-02 1.080054e-01 1.087777e-01 9.941983e-02 1.186482e-01 1.067295e-01 1.249575e-01 1.325104e-01 1.229300e-01 1.245396e-01 1.037034e-01 1.122085e-01 1.028759e-01 9.923361e-02 1.067620e-01 9.514345e-02 1.057885e-01 9.810442e-02 9.826218e-02 1.041901e-01 9.446683e-02 1.050644e-01 9.609331e-02 1.000098e-01 1.016336e-01 9.535243e-02 1.033903e-01 9.559298e-02 1.005513e-01 1.000013e-01 9.533236e-02 1.028333e-01 9.504817e-02 1.023559e-01 9.985790e-02 1.001439e-01 1.078667e-01 1.059841e-01 1.193698e-01 1.252859e-01 1.210518e-01 1.143597e-01 1.036904e-01 1.054914e-01 9.831048e-02 9.911611e-02 9.896898e-02 9.576287e-02 9.942339e-02 9.528133e-02 9.765128e-02 9.758242e-02 9.520204e-02 9.904387e-02 9.446453e-02 9.852591e-02 9.605118e-02 9.591272e-02 9.787497e-02 9.468682e-02 9.808193e-02 9.555778e-02 9.573955e-02 9.791639e-02 9.467520e-02 9.951576e-02 9.655029e-02 1.003150e-01 1.034563e-01 1.058409e-01 1.168912e-01 1.226879e-01 1.200667e-01 1.104293e-01 1.037518e-01 1.026535e-01 9.682571e-02 9.881650e-02 9.600687e-02 9.597641e-02 9.688609e-02 9.453936e-02 9.715065e-02 9.520579e-02 9.553252e-02 9.687222e-02 9.424530e-02 9.774091e-02 9.431931e-02 9.635278e-02 9.604026e-02 9.487297e-02 9.716389e-02 9.446439e-02 9.627044e-02 9.637108e-02 9.516640e-02 9.851676e-02 9.598603e-02 1.008319e-01 1.020736e-01 1.065567e-01 1.160201e-01 1.224902e-01 1.201120e-01 1.091417e-01 1.045861e-01 1.015374e-01 9.709697e-02 9.896044e-02 9.502402e-02 9.688386e-02 9.589394e-02 9.520142e-02 9.717936e-02 9.466854e-02 9.664659e-02 9.621282e-02 9.532582e-02 9.783501e-02 9.445423e-02 9.778984e-02 9.585355e-02 9.646460e-02 9.747219e-02 9.524155e-02 9.784412e-02 9.630368e-02 9.655148e-02 9.784543e-02 9.510605e-02 9.864538e-02 9.569708e-02 9.747776e-02 9.712468e-02 9.593807e-02 9.829859e-02 9.590282e-02 9.737946e-02 9.721745e-02 9.585100e-02 9.864366e-02 9.510261e-02 9.811900e-02 9.636001e-02 9.655998e-02 9.789789e-02 9.529086e-02 9.778347e-02 9.637495e-02 9.617249e-02 9.783601e-02 9.449853e-02 9.795576e-02 9.517423e-02 9.616267e-02 9.622188e-02 9.349275e-02 9.578516e-02 9.379847e-02 9.581053e-02 9.285614e-02 8.070058e-02 7.511107e-02 7.296407e-02 7.317206e-02 7.586238e-02 
9.963572e-02 1.071387e-01 1.181817e-01 1.348091e-01 1.518582e-01 1.721145e-01 1.666085e-01 1.496848e-01 1.491874e-01 1.311742e-01 1.253227e-01 1.306504e-01 1.393686e-01 1.411734e-01 1.400876e-01 1.404437e-01 1.402599e-01 1.404060e-01 1.395393e-01 1.397091e-01 1.395531e-01 1.370983e-01 1.495008e-01 6.828486e-02 1.528568e-01 9.926145e-02 1.211667e-01 1.579183e-01 1.046824e-01 1.730092e-01 1.223135e-01 1.482169e-01 1.661831e-01 1.180271e-01 1.787116e-01 1.220780e-01 1.587556e-01 1.553585e-01 1.239486e-01 1.709756e-01 1.208129e-01 1.573819e-01 1.454672e-01 1.238398e-01 1.637689e-01 1.163660e-01 1.557113e-01 1.336626e-01 1.261699e-01 1.533851e-01 1.154297e-01 1.500060e-01 1.264251e-01 1.261207e-01 1.460416e-01 1.126507e-01 1.466823e-01 1.185268e-01 1.298155e-01 1.371760e-01 1.151597e-01 1.449606e-01 1.240517e-01 1.480208e-01 1.673557e-01 1.453681e-01 1.522687e-01 1.188409e-01 1.334021e-01 1.247378e-01 1.152550e-01 1.318802e-01 1.117581e-01 1.278235e-01 1.200912e-01 1.139804e-01 1.291609e-01 1.094601e-01 1.277017e-01 1.149740e-01 1.164852e-01 1.239859e-01 1.105363e-01 1.243576e-01 1.134233e-01 1.161359e-01 1.215763e-01 1.088556e-01 1.234634e-01 1.097697e-01 1.182706e-01 1.171694e-01 1.116697e-01 1.236771e-01 1.177727e-01 1.353633e-01 1.491456e-01 1.377864e-01 1.317295e-01 1.141976e-01 1.200632e-01 1.126898e-01 1.117838e-01 1.158700e-01 1.091764e-01 1.154143e-01 1.114322e-01 1.105721e-01 1.156294e-01 1.078757e-01 1.162037e-01 1.090103e-01 1.127380e-01 1.126904e-01 1.094607e-01 1.138243e-01 1.095057e-01 1.116271e-01 1.123010e-01 1.079174e-01 1.139186e-01 1.072528e-01 1.128884e-01 1.098417e-01 1.106992e-01 1.150290e-01 1.161099e-01 1.299013e-01 1.425798e-01 1.348794e-01 1.235761e-01 1.130429e-01 1.143925e-01 1.086765e-01 1.105056e-01 1.095709e-01 1.086809e-01 1.101469e-01 1.086709e-01 1.090766e-01 1.102708e-01 1.075374e-01 1.112399e-01 1.071172e-01 1.107695e-01 1.081568e-01 1.090377e-01 1.092459e-01 1.081657e-01 1.091328e-01 1.086440e-01 1.074180e-01 1.098485e-01 1.063547e-01 1.102723e-01 1.070565e-01 1.101304e-01 1.114751e-01 1.154712e-01 1.274997e-01 1.401304e-01 1.335050e-01 1.204079e-01 1.125635e-01 1.120000e-01 1.072672e-01 1.097854e-01 1.071800e-01 1.084271e-01 1.080529e-01 1.078132e-01 1.083277e-01 1.083851e-01 1.074366e-01 1.094672e-01 1.066953e-01 1.099513e-01 1.067995e-01 1.090841e-01 1.077903e-01 1.081048e-01 1.083321e-01 1.077866e-01 1.075983e-01 1.086673e-01 1.065818e-01 1.095031e-01 1.066074e-01 1.103656e-01 1.104775e-01 1.159060e-01 1.267960e-01 1.398805e-01 1.334476e-01 1.195004e-01 1.130704e-01 1.111984e-01 1.074137e-01 1.098301e-01 1.065197e-01 1.090322e-01 1.073695e-01 1.082665e-01 1.083575e-01 1.081039e-01 1.082479e-01 1.091022e-01 1.075540e-01 1.101712e-01 1.071154e-01 1.102725e-01 1.079463e-01 1.095445e-01 1.089804e-01 1.088642e-01 1.092947e-01 1.094503e-01 1.085822e-01 1.104168e-01 1.077412e-01 1.109564e-01 1.080216e-01 1.103244e-01 1.088958e-01 1.093970e-01 1.096327e-01 1.092990e-01 1.091572e-01 1.100691e-01 1.082088e-01 1.109344e-01 1.077030e-01 1.106934e-01 1.083864e-01 1.097291e-01 1.093067e-01 1.089283e-01 1.092918e-01 1.094674e-01 1.082973e-01 1.103180e-01 1.072351e-01 1.103800e-01 1.074442e-01 1.091797e-01 1.078861e-01 1.073773e-01 1.074023e-01 1.067716e-01 1.058095e-01 1.041030e-01 9.585547e-02 9.347793e-02 9.052689e-02 9.235640e-02 9.410154e-02 