# vtk DataFile Version 2.0
Comment goes here
ASCII

DATASET STRUCTURED_POINTS
FIELD FieldData 1
TIME 1 1 double
0.10000000
DIMENSIONS    512   128   1

ORIGIN    0.000   0.000   0.000
SPACING   0.0019531 0.0019531   1.000

POINT_DATA   65536
SCALARS uX double
LOOKUP_TABLE default

3.322079e-02 2.586192e-02 1.827369e-02 9.657801e-03 7.284286e-04 -9.400365e-03 -1.993780e-02 -3.186238e-02 -4.429371e-02 -5.830360e-02 -7.289977e-02 -8.924111e-02 -1.061877e-01 -1.249711e-01 -1.442524e-01 -1.653177e-01 -1.865684e-01 -2.093384e-01 -2.317194e-01 -2.551242e-01 -2.773297e-01 -2.999221e-01 -3.204435e-01 -3.407972e-01 -3.584702e-01 -3.757735e-01 -3.903556e-01 -4.047784e-01 -4.169716e-01 -4.293336e-01 -4.400589e-01 -4.512971e-01 -4.613962e-01 -4.723770e-01 -4.823928e-01 -4.936587e-01 -5.039551e-01 -5.159000e-01 -5.267795e-01 -5.394476e-01 -5.510586e-01 -5.643330e-01 -5.768052e-01 -5.904217e-01 -6.035274e-01 -6.171122e-01 -6.304652e-01 -6.437022e-01 -6.566793e-01 -6.690764e-01 -6.810642e-01 -6.922523e-01 -7.028688e-01 -7.124081e-01 -7.213753e-01 -7.290567e-01 -7.364676e-01 -7.424508e-01 -7.484120e-01 -7.529247e-01 -7.575613e-01 -7.609261e-01 -7.643859e-01 -7.667515e-01 -7.690970e-01 -7.705035e-01 -7.718185e-01 -7.722073e-01 -7.723895e-01 -7.715712e-01 -7.703821e-01 -7.681791e-01 -7.652308e-01 -7.612760e-01 -7.560377e-01 -7.498885e-01 -7.419543e-01 -7.330926e-01 -7.220890e-01 -7.100508e-01 -6.960098e-01 -6.808396e-01 -6.641109e-01 -6.463109e-01 -6.276862e-01 -6.085291e-01 -5.891103e-01 -5.695406e-01 -5.499204e-01 -5.305341e-01 -5.114841e-01 -4.927899e-01 -4.746480e-01 -4.566067e-01 -4.395381e-01 -4.223699e-01 -4.064438e-01 -3.901369e-01 -3.750695e-01 -3.597298e-01 -3.455248e-01 -3.311832e-01 -3.176526e-01 -3.041286e-01 -2.913446e-01 -2.786262e-01 -2.666035e-01 -2.544447e-01 -2.431400e-01 -2.315757e-01 -2.209924e-01 -2.099951e-01 -1.999090e-01 -1.895261e-01 -1.799365e-01 -1.702105e-01 -1.610089e-01 -1.518113e-01 -1.430544e-01 -1.343780e-01 -1.261107e-01 -1.177874e-01 -1.099869e-01 -1.020354e-01 -9.471627e-02 -8.713272e-02 -8.014054e-02 -7.295776e-02 -6.628773e-02 -5.954927e-02 -5.313129e-02 -4.675035e-02 -4.062209e-02 -3.459178e-02 -2.879789e-02 -2.300101e-02 -1.752762e-02 -1.197327e-02 -6.834670e-03 -1.528832e-03 3.380915e-03 8.411744e-03 1.309427e-02 1.780365e-02 2.229291e-02 2.672184e-02 3.096512e-02 3.508376e-02 3.899200e-02 4.282215e-02 4.633263e-02 4.980011e-02 5.284986e-02 5.594052e-02 5.867367e-02 6.151424e-02 6.414275e-02 6.689250e-02 6.958189e-02 7.233787e-02 7.505641e-02 7.776118e-02 8.038555e-02 8.299696e-02 8.543768e-02 8.786704e-02 9.005047e-02 9.225462e-02 9.424705e-02 9.628154e-02 9.819140e-02 1.001505e-01 1.020790e-01 1.040327e-01 1.059626e-01 1.078780e-01 1.097318e-01 1.115910e-01 1.133274e-01 1.150845e-01 1.166670e-01 1.182927e-01 1.197616e-01 1.212751e-01 1.226762e-01 1.241125e-01 1.254968e-01 1.268997e-01 1.282573e-01 1.296138e-01 1.308982e-01 1.322107e-01 1.334107e-01 1.346624e-01 1.357655e-01 1.369387e-01 1.379763e-01 1.390745e-01 1.400644e-01 1.410870e-01 1.420478e-01 1.430220e-01 1.439471e-01 1.448737e-01 1.457351e-01 1.466267e-01 1.474286e-01 1.482819e-01 1.490232e-01 1.498262e-01 1.505331e-01 1.512863e-01 1.519617e-01 1.526502e-01 1.532883e-01 1.539289e-01 1.545252e-01 1.551278e-01 1.556701e-01 1.562538e-01 1.567579e-01 1.573247e-01 1.577937e-01 1.583308e-01 1.587855e-01 1.592908e-01 1.597267e-01 1.601780e-01 1.605773e-01 1.609835e-01 1.613423e-01 1.617190e-01 1.620352e-01 1.624082e-01 1.627040e-01 1.630796e-01 1.633591e-01 1.637228e-01 1.640026e-01 1.643480e-01 1.646207e-01 1.649183e-01 1.651598e-01 1.654093e-01 1.656128e-01 1.658335e-01 1.660028e-01 1.662285e-01 1.663912e-01 1.666334e-01 1.667946e-01 1.670384e-01 1.672123e-01 1.674490e-01 1.676266e-01 1.678246e-01 1.679775e-01 1.681323e-01 1.682474e-01 1.683759e-01 1.684580e-01 1.685955e-01 1.686756e-01 1.688355e-01 1.689196e-01 1.690868e-01 1.691884e-01 1.693544e-01 1.694661e-01 1.696023e-01 1.696974e-01 1.698011e-01 1.698639e-01 1.699462e-01 1.699777e-01 1.700700e-01 1.700983e-01 1.702128e-01 1.702415e-01 1.703625e-01 1.704051e-01 1.705243e-01 1.705782e-01 1.706713e-01 1.707191e-01 1.707883e-01 1.708188e-01 1.708713e-01 1.708783e-01 1.709398e-01 1.709423e-01 1.710221e-01 1.710189e-01 1.711007e-01 1.711050e-01 1.711816e-01 1.711952e-01 1.712473e-01 1.712623e-01 1.712995e-01 1.713094e-01 1.713376e-01 1.713282e-01 1.713650e-01 1.713470e-01 1.713967e-01 1.713661e-01 1.714127e-01 1.713850e-01 1.714238e-01 1.714055e-01 1.714237e-01 1.714144e-01 1.714298e-01 1.714255e-01 1.714429e-01 1.714193e-01 1.714428e-01 1.714003e-01 1.714283e-01 1.713637e-01 1.713846e-01 1.713200e-01 1.713346e-01 1.712825e-01 1.712819e-01 1.712469e-01 1.712500e-01 1.712289e-01 1.712348e-01 1.711960e-01 1.711981e-01 1.711321e-01 1.711274e-01 1.710318e-01 1.710173e-01 1.709209e-01 1.709047e-01 1.708255e-01 1.708013e-01 1.707470e-01 1.707328e-01 1.706992e-01 1.706889e-01 1.706377e-01 1.706165e-01 1.705281e-01 1.704897e-01 1.703626e-01 1.703099e-01 1.701805e-01 1.701281e-01 1.700191e-01 1.699629e-01 1.698833e-01 1.698410e-01 1.697849e-01 1.697491e-01 1.696740e-01 1.696275e-01 1.695073e-01 1.694379e-01 1.692699e-01 1.691803e-01 1.690028e-01 1.689068e-01 1.687411e-01 1.686293e-01 1.684798e-01 1.683648e-01 1.682277e-01 1.681127e-01 1.679684e-01 1.678666e-01 1.677165e-01 1.676322e-01 1.674695e-01 1.673923e-01 1.672344e-01 1.671597e-01 1.670148e-01 1.669257e-01 1.667967e-01 1.667039e-01 1.665882e-01 1.664941e-01 1.663735e-01 1.662924e-01 1.661673e-01 1.661040e-01 1.659657e-01 1.659113e-01 1.657764e-01 1.657255e-01 1.656016e-01 1.655364e-01 1.654276e-01 1.653570e-01 1.652615e-01 1.651863e-01 1.650865e-01 1.650220e-01 1.649172e-01 1.648689e-01 1.647490e-01 1.647093e-01 1.645903e-01 1.645540e-01 1.644428e-01 1.643914e-01 1.642939e-01 1.642351e-01 1.641501e-01 1.640835e-01 1.639944e-01 1.639360e-01 1.638413e-01 1.637971e-01 1.636855e-01 1.636495e-01 1.635363e-01 1.635034e-01 1.633952e-01 1.633464e-01 1.632505e-01 1.631923e-01 1.631081e-01 1.630392e-01 1.629512e-01 1.628879e-01 1.627937e-01 1.627426e-01 1.626300e-01 1.625864e-01 1.624702e-01 1.624291e-01 1.623153e-01 1.622575e-01 1.621546e-01 1.620856e-01 1.619938e-01 1.619113e-01 1.618158e-01 1.617364e-01 1.616345e-01 1.615650e-01 1.614436e-01 1.613806e-01 1.612539e-01 1.611925e-01 1.610663e-01 1.609873e-01 1.608707e-01 1.607788e-01 1.606730e-01 1.605647e-01 1.604558e-01 1.603479e-01 1.602328e-01 1.601322e-01 1.599970e-01 1.599012e-01 1.597594e-01 1.596634e-01 1.595199e-01 1.594037e-01 1.592678e-01 1.591339e-01 1.590056e-01 1.588469e-01 1.587097e-01 1.585375e-01 1.583809e-01 1.581918e-01 1.579879e-01 1.577605e-01 1.574960e-01 1.571895e-01 1.568204e-01 1.563485e-01 1.557963e-01 1.550420e-01 1.541533e-01 1.529154e-01 1.514435e-01 1.494810e-01 1.471678e-01 1.442847e-01 1.410082e-01 1.372415e-01 1.332101e-01 1.288846e-01 1.245081e-01 1.200247e-01 1.156690e-01 1.113062e-01 1.071631e-01 1.030178e-01 9.910561e-02 9.512932e-02 9.135131e-02 8.741242e-02 8.361574e-02 7.954820e-02 7.556185e-02 7.119173e-02 6.684345e-02 6.199778e-02 5.711657e-02 5.162130e-02 4.603226e-02 3.970504e-02 
3.319799e-02 2.582640e-02 1.830625e-02 9.676911e-03 8.244373e-04 -9.319104e-03 -1.977057e-02 -3.171324e-02 -4.405103e-02 -5.808690e-02 -7.258644e-02 -8.897017e-02 -1.058257e-01 -1.246811e-01 -1.438896e-01 -1.650732e-01 -1.862819e-01 -2.092298e-01 -2.316014e-01 -2.552396e-01 -2.774425e-01 -3.002879e-01 -3.207498e-01 -3.413130e-01 -3.587947e-01 -3.762215e-01 -3.904692e-01 -4.049681e-01 -4.167660e-01 -4.292145e-01 -4.395096e-01 -4.508671e-01 -4.605156e-01 -4.716862e-01 -4.811970e-01 -4.927083e-01 -5.024111e-01 -5.146898e-01 -5.248823e-01 -5.379512e-01 -5.487568e-01 -5.624959e-01 -5.740916e-01 -5.882261e-01 -6.003697e-01 -6.144993e-01 -6.268361e-01 -6.406679e-01 -6.525765e-01 -6.655677e-01 -6.764596e-01 -6.882471e-01 -6.978140e-01 -7.078943e-01 -7.158844e-01 -7.240092e-01 -7.305963e-01 -7.369309e-01 -7.422296e-01 -7.469877e-01 -7.511157e-01 -7.546471e-01 -7.577398e-01 -7.601916e-01 -7.622833e-01 -7.637055e-01 -7.648886e-01 -7.652366e-01 -7.654053e-01 -7.644897e-01 -7.634198e-01 -7.610902e-01 -7.584229e-01 -7.543044e-01 -7.495195e-01 -7.431591e-01 -7.358965e-01 -7.267518e-01 -7.166206e-01 -7.041624e-01 -6.911780e-01 -6.754569e-01 -6.598914e-01 -6.414007e-01 -6.239552e-01 -6.041212e-01 -5.859075e-01 -5.657155e-01 -5.471882e-01 -5.272068e-01 -5.091778e-01 -4.899787e-01 -4.727639e-01 -4.542134e-01 -4.379686e-01 -4.203504e-01 -4.051817e-01 -3.884634e-01 -3.740063e-01 -3.583247e-01 -3.446434e-01 -3.300509e-01 -3.169221e-01 -3.031789e-01 -2.907323e-01 -2.778573e-01 -2.661343e-01 -2.538055e-01 -2.427638e-01 -2.310496e-01 -2.207297e-01 -2.095924e-01 -1.997110e-01 -1.892136e-01 -1.798058e-01 -1.700131e-01 -1.609417e-01 -1.516845e-01 -1.430362e-01 -1.343309e-01 -1.261689e-01 -1.177962e-01 -1.100927e-01 -1.020930e-01 -9.488700e-02 -8.725310e-02 -8.034606e-02 -7.312051e-02 -6.652863e-02 -5.977454e-02 -5.340552e-02 -4.700888e-02 -4.091728e-02 -3.488812e-02 -2.913191e-02 -2.331672e-02 -1.787673e-02 -1.229779e-02 -7.204983e-03 -1.865752e-03 3.019055e-03 8.087369e-03 1.275414e-02 1.749100e-02 2.199223e-02 2.645813e-02 3.072990e-02 3.487878e-02 3.881134e-02 4.267286e-02 4.617590e-02 4.962546e-02 5.257632e-02 5.557012e-02 5.814340e-02 6.086712e-02 6.337628e-02 6.607291e-02 6.874433e-02 7.152366e-02 7.428647e-02 7.703713e-02 7.971417e-02 8.237307e-02 8.484396e-02 8.728527e-02 8.943921e-02 9.160011e-02 9.352101e-02 9.548784e-02 9.733803e-02 9.926513e-02 1.011902e-01 1.031600e-01 1.051213e-01 1.070635e-01 1.089496e-01 1.108347e-01 1.125911e-01 1.143570e-01 1.159306e-01 1.175402e-01 1.189817e-01 1.204667e-01 1.218413e-01 1.232632e-01 1.246480e-01 1.260588e-01 1.274341e-01 1.288000e-01 1.300999e-01 1.314205e-01 1.326299e-01 1.338841e-01 1.349838e-01 1.361530e-01 1.371821e-01 1.382745e-01 1.392552e-01 1.402729e-01 1.412350e-01 1.422104e-01 1.431443e-01 1.440694e-01 1.449372e-01 1.458268e-01 1.466335e-01 1.474841e-01 1.482254e-01 1.490260e-01 1.497356e-01 1.504897e-01 1.511682e-01 1.518538e-01 1.524927e-01 1.531279e-01 1.537242e-01 1.543181e-01 1.548594e-01 1.554368e-01 1.559430e-01 1.565065e-01 1.569779e-01 1.575144e-01 1.579766e-01 1.584863e-01 1.589304e-01 1.593810e-01 1.597798e-01 1.601767e-01 1.605294e-01 1.608923e-01 1.612029e-01 1.615672e-01 1.618642e-01 1.622375e-01 1.625213e-01 1.628874e-01 1.631771e-01 1.635314e-01 1.638148e-01 1.641155e-01 1.643567e-01 1.645949e-01 1.647884e-01 1.649904e-01 1.651507e-01 1.653644e-01 1.655281e-01 1.657675e-01 1.659350e-01 1.661820e-01 1.663684e-01 1.666152e-01 1.668072e-01 1.670106e-01 1.671671e-01 1.673120e-01 1.674173e-01 1.675267e-01 1.675983e-01 1.677232e-01 1.678036e-01 1.679608e-01 1.680514e-01 1.682212e-01 1.683353e-01 1.685101e-01 1.686365e-01 1.687781e-01 1.688795e-01 1.689769e-01 1.690327e-01 1.690996e-01 1.691223e-01 1.692042e-01 1.692333e-01 1.693459e-01 1.693804e-01 1.695031e-01 1.695553e-01 1.696806e-01 1.697448e-01 1.698416e-01 1.698943e-01 1.699602e-01 1.699878e-01 1.700291e-01 1.700320e-01 1.700854e-01 1.700915e-01 1.701695e-01 1.701720e-01 1.702535e-01 1.702647e-01 1.703434e-01 1.703632e-01 1.704151e-01 1.704334e-01 1.704680e-01 1.704790e-01 1.705005e-01 1.704913e-01 1.705228e-01 1.705092e-01 1.705567e-01 1.705304e-01 1.705739e-01 1.705501e-01 1.705862e-01 1.705708e-01 1.705843e-01 1.705781e-01 1.705920e-01 1.705939e-01 1.706113e-01 1.705920e-01 1.706135e-01 1.705740e-01 1.705979e-01 1.705331e-01 1.705475e-01 1.704828e-01 1.704923e-01 1.704407e-01 1.704351e-01 1.704033e-01 1.704083e-01 1.703973e-01 1.704089e-01 1.703785e-01 1.703795e-01 1.703154e-01 1.703024e-01 1.702028e-01 1.701773e-01 1.700780e-01 1.700546e-01 1.699753e-01 1.699466e-01 1.698972e-01 1.698883e-01 1.698694e-01 1.698700e-01 1.698319e-01 1.698122e-01 1.697253e-01 1.696761e-01 1.695417e-01 1.694747e-01 1.693404e-01 1.692790e-01 1.691708e-01 1.691101e-01 1.690382e-01 1.690026e-01 1.689650e-01 1.689436e-01 1.688856e-01 1.688456e-01 1.687282e-01 1.686507e-01 1.684749e-01 1.683724e-01 1.681906e-01 1.680873e-01 1.679229e-01 1.678055e-01 1.676587e-01 1.675407e-01 1.674077e-01 1.672898e-01 1.671472e-01 1.670427e-01 1.668957e-01 1.668094e-01 1.666488e-01 1.665680e-01 1.664133e-01 1.663360e-01 1.661949e-01 1.661015e-01 1.659757e-01 1.658799e-01 1.657683e-01 1.656712e-01 1.655527e-01 1.654690e-01 1.653472e-01 1.652820e-01 1.651461e-01 1.650883e-01 1.649570e-01 1.649037e-01 1.647836e-01 1.647144e-01 1.646089e-01 1.645356e-01 1.644442e-01 1.643658e-01 1.642684e-01 1.642012e-01 1.641000e-01 1.640495e-01 1.639320e-01 1.638890e-01 1.637735e-01 1.637349e-01 1.636273e-01 1.635719e-01 1.634777e-01 1.634162e-01 1.633353e-01 1.632652e-01 1.631787e-01 1.631173e-01 1.630265e-01 1.629797e-01 1.628707e-01 1.628313e-01 1.627218e-01 1.626864e-01 1.625819e-01 1.625289e-01 1.624365e-01 1.623755e-01 1.622956e-01 1.622229e-01 1.621377e-01 1.620713e-01 1.619813e-01 1.619273e-01 1.618176e-01 1.617703e-01 1.616582e-01 1.616143e-01 1.615045e-01 1.614422e-01 1.613431e-01 1.612710e-01 1.611839e-01 1.610971e-01 1.610051e-01 1.609220e-01 1.608249e-01 1.607520e-01 1.606341e-01 1.605668e-01 1.604449e-01 1.603802e-01 1.602585e-01 1.601744e-01 1.600625e-01 1.599666e-01 1.598663e-01 1.597530e-01 1.596484e-01 1.595360e-01 1.594266e-01 1.593217e-01 1.591909e-01 1.590898e-01 1.589540e-01 1.588534e-01 1.587158e-01 1.585933e-01 1.584637e-01 1.583246e-01 1.582037e-01 1.580388e-01 1.579084e-01 1.577309e-01 1.575834e-01 1.573898e-01 1.571952e-01 1.569643e-01 1.567133e-01 1.564070e-01 1.560562e-01 1.555882e-01 1.550625e-01 1.543221e-01 1.534712e-01 1.522548e-01 1.508267e-01 1.488872e-01 1.466139e-01 1.437399e-01 1.404845e-01 1.367078e-01 1.326884e-01 1.283505e-01 1.239943e-01 1.195089e-01 1.151879e-01 1.108337e-01 1.067356e-01 1.026032e-01 9.874021e-02 9.477535e-02 9.104648e-02 8.711437e-02 8.336540e-02 7.929920e-02 7.535968e-02 7.098601e-02 6.668518e-02 6.183215e-02 5.700086e-02 5.149556e-02 4.596079e-02 3.962184e-02 
3.428742e-02 2.704242e-02 1.957455e-02 1.108951e-02 2.298291e-03 -7.681389e-03 -1.806380e-02 -2.982476e-02 -4.209211e-02 -5.593676e-02 -7.037983e-02 -8.658183e-02 -1.034232e-01 -1.221392e-01 -1.414180e-01 -1.625476e-01 -1.839576e-01 -2.069724e-01 -2.296975e-01 -2.535122e-01 -2.761692e-01 -2.991957e-01 -3.200543e-01 -3.406072e-01 -3.582292e-01 -3.753030e-01 -3.894058e-01 -4.032978e-01 -4.149077e-01 -4.266712e-01 -4.368336e-01 -4.474816e-01 -4.571349e-01 -4.676496e-01 -4.772659e-01 -4.880914e-01 -4.979658e-01 -5.095891e-01 -5.200666e-01 -5.324394e-01 -5.436078e-01 -5.566204e-01 -5.687995e-01 -5.821927e-01 -5.950830e-01 -6.084273e-01 -6.217086e-01 -6.348273e-01 -6.477686e-01 -6.600309e-01 -6.719135e-01 -6.830456e-01 -6.935421e-01 -7.029401e-01 -7.116233e-01 -7.189944e-01 -7.261248e-01 -7.317684e-01 -7.374403e-01 -7.415627e-01 -7.458928e-01 -7.489469e-01 -7.521354e-01 -7.542372e-01 -7.562960e-01 -7.574894e-01 -7.586197e-01 -7.588793e-01 -7.589757e-01 -7.580683e-01 -7.569323e-01 -7.548192e-01 -7.520995e-01 -7.483956e-01 -7.434660e-01 -7.377653e-01 -7.302941e-01 -7.220259e-01 -7.114472e-01 -6.998959e-01 -6.862396e-01 -6.714053e-01 -6.548696e-01 -6.370076e-01 -6.183846e-01 -5.992913e-01 -5.800960e-01 -5.607266e-01 -5.411893e-01 -5.219842e-01 -5.031756e-01 -4.848924e-01 -4.670421e-01 -4.492440e-01 -4.324717e-01 -4.156250e-01 -4.001446e-01 -3.840781e-01 -3.692875e-01 -3.541955e-01 -3.403368e-01 -3.263306e-01 -3.130016e-01 -2.997096e-01 -2.871330e-01 -2.747442e-01 -2.629446e-01 -2.509638e-01 -2.398434e-01 -2.284707e-01 -2.181715e-01 -2.073181e-01 -1.973947e-01 -1.871453e-01 -1.777581e-01 -1.682398e-01 -1.591495e-01 -1.500907e-01 -1.414395e-01 -1.329707e-01 -1.248338e-01 -1.166173e-01 -1.089213e-01 -1.010781e-01 -9.393873e-02 -8.643734e-02 -7.954399e-02 -7.243092e-02 -6.588344e-02 -5.927174e-02 -5.291433e-02 -4.661378e-02 -4.053425e-02 -3.463058e-02 -2.890517e-02 -2.316222e-02 -1.773475e-02 -1.222503e-02 -7.181400e-03 -1.896587e-03 2.983894e-03 8.017302e-03 1.267068e-02 1.735550e-02 2.187888e-02 2.633539e-02 3.064652e-02 3.477645e-02 3.873884e-02 4.261187e-02 4.612647e-02 4.952519e-02 5.235339e-02 5.517687e-02 5.754654e-02 6.007497e-02 6.243415e-02 6.502944e-02 6.769509e-02 7.049490e-02 7.332399e-02 7.611266e-02 7.884817e-02 8.155675e-02 8.406569e-02 8.650962e-02 8.861386e-02 9.069422e-02 9.251340e-02 9.436718e-02 9.613116e-02 9.799723e-02 9.992127e-02 1.019098e-01 1.039131e-01 1.058805e-01 1.077936e-01 1.097084e-01 1.114816e-01 1.132550e-01 1.148020e-01 1.163790e-01 1.177762e-01 1.192128e-01 1.205437e-01 1.219338e-01 1.233173e-01 1.247381e-01 1.261350e-01 1.275098e-01 1.288145e-01 1.301471e-01 1.313571e-01 1.326176e-01 1.336968e-01 1.348573e-01 1.358678e-01 1.369504e-01 1.379132e-01 1.389153e-01 1.398760e-01 1.408525e-01 1.417955e-01 1.427189e-01 1.435807e-01 1.444731e-01 1.452741e-01 1.461288e-01 1.468545e-01 1.476529e-01 1.483588e-01 1.491177e-01 1.497972e-01 1.504749e-01 1.511099e-01 1.517387e-01 1.523308e-01 1.529156e-01 1.534421e-01 1.540191e-01 1.545176e-01 1.550875e-01 1.555473e-01 1.560867e-01 1.565517e-01 1.570740e-01 1.575273e-01 1.579761e-01 1.583693e-01 1.587545e-01 1.590946e-01 1.594419e-01 1.597328e-01 1.600947e-01 1.603842e-01 1.607674e-01 1.610423e-01 1.614176e-01 1.617122e-01 1.620871e-01 1.623831e-01 1.626894e-01 1.629264e-01 1.631490e-01 1.633252e-01 1.635039e-01 1.636413e-01 1.638486e-01 1.640057e-01 1.642560e-01 1.644177e-01 1.646763e-01 1.648702e-01 1.651403e-01 1.653493e-01 1.655617e-01 1.657204e-01 1.658520e-01 1.659394e-01 1.660246e-01 1.660712e-01 1.661892e-01 1.662629e-01 1.664317e-01 1.665174e-01 1.666990e-01 1.668204e-01 1.670164e-01 1.671597e-01 1.673102e-01 1.674174e-01 1.675077e-01 1.675497e-01 1.675969e-01 1.675971e-01 1.676742e-01 1.676980e-01 1.678233e-01 1.678521e-01 1.679865e-01 1.680413e-01 1.681855e-01 1.682588e-01 1.683624e-01 1.684181e-01 1.684822e-01 1.685032e-01 1.685301e-01 1.685184e-01 1.685687e-01 1.685735e-01 1.686636e-01 1.686605e-01 1.687516e-01 1.687614e-01 1.688541e-01 1.688761e-01 1.689293e-01 1.689481e-01 1.689824e-01 1.689944e-01 1.690082e-01 1.689909e-01 1.690226e-01 1.690088e-01 1.690673e-01 1.690330e-01 1.690827e-01 1.690537e-01 1.690977e-01 1.690797e-01 1.690875e-01 1.690813e-01 1.690961e-01 1.691078e-01 1.691284e-01 1.691074e-01 1.691333e-01 1.690903e-01 1.691214e-01 1.690417e-01 1.690581e-01 1.689827e-01 1.689979e-01 1.689396e-01 1.689286e-01 1.688963e-01 1.689077e-01 1.689119e-01 1.689358e-01 1.689105e-01 1.689160e-01 1.688470e-01 1.688336e-01 1.687139e-01 1.686843e-01 1.685710e-01 1.685514e-01 1.684644e-01 1.684317e-01 1.683836e-01 1.683859e-01 1.683884e-01 1.684083e-01 1.683835e-01 1.683707e-01 1.682780e-01 1.682237e-01 1.680641e-01 1.679885e-01 1.678377e-01 1.677789e-01 1.676642e-01 1.676000e-01 1.675331e-01 1.675100e-01 1.674994e-01 1.675006e-01 1.674621e-01 1.674358e-01 1.673138e-01 1.672337e-01 1.670313e-01 1.669226e-01 1.667253e-01 1.666290e-01 1.664607e-01 1.663422e-01 1.661960e-01 1.660798e-01 1.659539e-01 1.658338e-01 1.656889e-01 1.655861e-01 1.654391e-01 1.653617e-01 1.651908e-01 1.651164e-01 1.649551e-01 1.648887e-01 1.647441e-01 1.646498e-01 1.645232e-01 1.644290e-01 1.643234e-01 1.642234e-01 1.641029e-01 1.640207e-01 1.638998e-01 1.638427e-01 1.636969e-01 1.636459e-01 1.635082e-01 1.634665e-01 1.633419e-01 1.632727e-01 1.631660e-01 1.630951e-01 1.630092e-01 1.629275e-01 1.628286e-01 1.627625e-01 1.626628e-01 1.626194e-01 1.624922e-01 1.624560e-01 1.623341e-01 1.623074e-01 1.621943e-01 1.621396e-01 1.620435e-01 1.619851e-01 1.619091e-01 1.618355e-01 1.617478e-01 1.616873e-01 1.615985e-01 1.615582e-01 1.614396e-01 1.614071e-01 1.612913e-01 1.612682e-01 1.611574e-01 1.611059e-01 1.610111e-01 1.609541e-01 1.608785e-01 1.608023e-01 1.607163e-01 1.606508e-01 1.605633e-01 1.605155e-01 1.603964e-01 1.603564e-01 1.602379e-01 1.602070e-01 1.600902e-01 1.600305e-01 1.599285e-01 1.598616e-01 1.597782e-01 1.596885e-01 1.595956e-01 1.595141e-01 1.594197e-01 1.593532e-01 1.592260e-01 1.591668e-01 1.590385e-01 1.589878e-01 1.588583e-01 1.587783e-01 1.586627e-01 1.585738e-01 1.584764e-01 1.583614e-01 1.582559e-01 1.581462e-01 1.580395e-01 1.579420e-01 1.578019e-01 1.577104e-01 1.575679e-01 1.574836e-01 1.573373e-01 1.572219e-01 1.570880e-01 1.569594e-01 1.568415e-01 1.566793e-01 1.565494e-01 1.563808e-01 1.562399e-01 1.560630e-01 1.558672e-01 1.556615e-01 1.554195e-01 1.551558e-01 1.548251e-01 1.544100e-01 1.539321e-01 1.532762e-01 1.525110e-01 1.513996e-01 1.500744e-01 1.482462e-01 1.460562e-01 1.432493e-01 1.399984e-01 1.362315e-01 1.321823e-01 1.278570e-01 1.235000e-01 1.190706e-01 1.147952e-01 1.105381e-01 1.065158e-01 1.025007e-01 9.872088e-02 9.487529e-02 9.122259e-02 8.740273e-02 8.371750e-02 7.975523e-02 7.586771e-02 7.159270e-02 6.733567e-02 6.258081e-02 5.778953e-02 5.238708e-02 4.689284e-02 4.066638e-02 
3.532648e-02 2.818237e-02 2.090176e-02 1.253466e-02 3.958275e-03 -5.884941e-03 -1.602470e-02 -2.763515e-02 -3.963983e-02 -5.333545e-02 -6.751795e-02 -8.360606e-02 -1.002326e-01 -1.189277e-01 -1.381056e-01 -1.593864e-01 -1.808877e-01 -2.042980e-01 -2.273467e-01 -2.517984e-01 -2.749234e-01 -2.986576e-01 -3.198317e-01 -3.408071e-01 -3.581801e-01 -3.751005e-01 -3.883047e-01 -4.016850e-01 -4.122927e-01 -4.235245e-01 -4.326814e-01 -4.428220e-01 -4.516141e-01 -4.618691e-01 -4.706174e-01 -4.812164e-01 -4.900802e-01 -5.017363e-01 -5.111468e-01 -5.236225e-01 -5.334850e-01 -5.466964e-01 -5.576997e-01 -5.713901e-01 -5.830422e-01 -5.966361e-01 -6.087931e-01 -6.224054e-01 -6.341853e-01 -6.468711e-01 -6.574525e-01 -6.691725e-01 -6.784596e-01 -6.882894e-01 -6.956269e-01 -7.031231e-01 -7.091405e-01 -7.148116e-01 -7.195423e-01 -7.234950e-01 -7.270253e-01 -7.299397e-01 -7.325205e-01 -7.344356e-01 -7.359431e-01 -7.369182e-01 -7.377249e-01 -7.377997e-01 -7.377600e-01 -7.366079e-01 -7.355767e-01 -7.333892e-01 -7.311177e-01 -7.274545e-01 -7.231821e-01 -7.176849e-01 -7.113184e-01 -7.033920e-01 -6.941127e-01 -6.826299e-01 -6.705295e-01 -6.555530e-01 -6.405413e-01 -6.218449e-01 -6.044477e-01 -5.847478e-01 -5.671712e-01 -5.474663e-01 -5.291181e-01 -5.094751e-01 -4.919794e-01 -4.737264e-01 -4.571384e-01 -4.390428e-01 -4.233753e-01 -4.064375e-01 -3.922596e-01 -3.760163e-01 -3.620742e-01 -3.468810e-01 -3.339394e-01 -3.200921e-01 -3.073287e-01 -2.940351e-01 -2.819879e-01 -2.698571e-01 -2.585927e-01 -2.466024e-01 -2.359053e-01 -2.245928e-01 -2.149078e-01 -2.040558e-01 -1.944777e-01 -1.842351e-01 -1.752672e-01 -1.659380e-01 -1.570710e-01 -1.480788e-01 -1.396322e-01 -1.313984e-01 -1.235102e-01 -1.153398e-01 -1.078306e-01 -1.000581e-01 -9.326118e-02 -8.579132e-02 -7.907161e-02 -7.197638e-02 -6.565934e-02 -5.919436e-02 -5.294216e-02 -4.670283e-02 -4.070954e-02 -3.498150e-02 -2.938389e-02 -2.368297e-02 -1.834118e-02 -1.287782e-02 -8.033800e-03 -2.765147e-03 2.033170e-03 7.075060e-03 1.161423e-02 1.622464e-02 2.073344e-02 2.519117e-02 2.952798e-02 3.360057e-02 3.757482e-02 4.149433e-02 4.502690e-02 4.839730e-02 5.100541e-02 5.362049e-02 5.565511e-02 5.793852e-02 6.005575e-02 6.253353e-02 6.520708e-02 6.806428e-02 7.099405e-02 7.380891e-02 7.661115e-02 7.938920e-02 8.194838e-02 8.440324e-02 8.640213e-02 8.837459e-02 9.002386e-02 9.171994e-02 9.334208e-02 9.512827e-02 9.706363e-02 9.909320e-02 1.011654e-01 1.031436e-01 1.050872e-01 1.070337e-01 1.088306e-01 1.106093e-01 1.120979e-01 1.136263e-01 1.149510e-01 1.163177e-01 1.175730e-01 1.189159e-01 1.203052e-01 1.217448e-01 1.231826e-01 1.245486e-01 1.258598e-01 1.271962e-01 1.284133e-01 1.296724e-01 1.307136e-01 1.318557e-01 1.328386e-01 1.339082e-01 1.348379e-01 1.358120e-01 1.367737e-01 1.377509e-01 1.387163e-01 1.396202e-01 1.404772e-01 1.413619e-01 1.421644e-01 1.430154e-01 1.437158e-01 1.445039e-01 1.452072e-01 1.459741e-01 1.466542e-01 1.473121e-01 1.479434e-01 1.485580e-01 1.491531e-01 1.497117e-01 1.502238e-01 1.507914e-01 1.512912e-01 1.518623e-01 1.523068e-01 1.528415e-01 1.533148e-01 1.538542e-01 1.543235e-01 1.547615e-01 1.551479e-01 1.555099e-01 1.558403e-01 1.561549e-01 1.564264e-01 1.567777e-01 1.570712e-01 1.574608e-01 1.577278e-01 1.581042e-01 1.584112e-01 1.588118e-01 1.591302e-01 1.594369e-01 1.596692e-01 1.598631e-01 1.600212e-01 1.601585e-01 1.602722e-01 1.604657e-01 1.606292e-01 1.608888e-01 1.610482e-01 1.613108e-01 1.615202e-01 1.618179e-01 1.620552e-01 1.622733e-01 1.624371e-01 1.625431e-01 1.626111e-01 1.626537e-01 1.626733e-01 1.627769e-01 1.628573e-01 1.630374e-01 1.631229e-01 1.633087e-01 1.634452e-01 1.636654e-01 1.638367e-01 1.639918e-01 1.641105e-01 1.641849e-01 1.642131e-01 1.642237e-01 1.641992e-01 1.642639e-01 1.642957e-01 1.644334e-01 1.644620e-01 1.646001e-01 1.646653e-01 1.648291e-01 1.649211e-01 1.650252e-01 1.650894e-01 1.651461e-01 1.651642e-01 1.651624e-01 1.651352e-01 1.651752e-01 1.651914e-01 1.652930e-01 1.652892e-01 1.653817e-01 1.653973e-01 1.655035e-01 1.655350e-01 1.655808e-01 1.656042e-01 1.656343e-01 1.656548e-01 1.656506e-01 1.656258e-01 1.656510e-01 1.656485e-01 1.657164e-01 1.656781e-01 1.657256e-01 1.656980e-01 1.657481e-01 1.657329e-01 1.657234e-01 1.657201e-01 1.657323e-01 1.657655e-01 1.657847e-01 1.657650e-01 1.657886e-01 1.657513e-01 1.657850e-01 1.656924e-01 1.657008e-01 1.656212e-01 1.656395e-01 1.655801e-01 1.655508e-01 1.655205e-01 1.655356e-01 1.655692e-01 1.656049e-01 1.655911e-01 1.655943e-01 1.655274e-01 1.655061e-01 1.653659e-01 1.653211e-01 1.651999e-01 1.651817e-01 1.650928e-01 1.650431e-01 1.649987e-01 1.650101e-01 1.650497e-01 1.650916e-01 1.650898e-01 1.650790e-01 1.649858e-01 1.649166e-01 1.647288e-01 1.646324e-01 1.644710e-01 1.644129e-01 1.642986e-01 1.642185e-01 1.641597e-01 1.641471e-01 1.641799e-01 1.642076e-01 1.642008e-01 1.641870e-01 1.640659e-01 1.639734e-01 1.637409e-01 1.636136e-01 1.634088e-01 1.633203e-01 1.631600e-01 1.630325e-01 1.628939e-01 1.627777e-01 1.626708e-01 1.625430e-01 1.623979e-01 1.622917e-01 1.621550e-01 1.620847e-01 1.619069e-01 1.618306e-01 1.616707e-01 1.616138e-01 1.614742e-01 1.613686e-01 1.612466e-01 1.611510e-01 1.610621e-01 1.609524e-01 1.608322e-01 1.607459e-01 1.606357e-01 1.605840e-01 1.604311e-01 1.603785e-01 1.602423e-01 1.602104e-01 1.600889e-01 1.600091e-01 1.599066e-01 1.598350e-01 1.597648e-01 1.596721e-01 1.595742e-01 1.595034e-01 1.594154e-01 1.593757e-01 1.592414e-01 1.592036e-01 1.590834e-01 1.590666e-01 1.589551e-01 1.588904e-01 1.587982e-01 1.587398e-01 1.586789e-01 1.585932e-01 1.585073e-01 1.584418e-01 1.583657e-01 1.583277e-01 1.582025e-01 1.581683e-01 1.580548e-01 1.580418e-01 1.579317e-01 1.578708e-01 1.577798e-01 1.577235e-01 1.576627e-01 1.575740e-01 1.574905e-01 1.574199e-01 1.573461e-01 1.572996e-01 1.571746e-01 1.571329e-01 1.570177e-01 1.569969e-01 1.568805e-01 1.568120e-01 1.567142e-01 1.566485e-01 1.565800e-01 1.564774e-01 1.563883e-01 1.563015e-01 1.562221e-01 1.561561e-01 1.560240e-01 1.559630e-01 1.558393e-01 1.557985e-01 1.556699e-01 1.555813e-01 1.554708e-01 1.553834e-01 1.553018e-01 1.551734e-01 1.550733e-01 1.549580e-01 1.548681e-01 1.547701e-01 1.546271e-01 1.545334e-01 1.543977e-01 1.543230e-01 1.541794e-01 1.540558e-01 1.539296e-01 1.538035e-01 1.537048e-01 1.535308e-01 1.534126e-01 1.532426e-01 1.531282e-01 1.529592e-01 1.527768e-01 1.525861e-01 1.523794e-01 1.521584e-01 1.518801e-01 1.515189e-01 1.511374e-01 1.505931e-01 1.499904e-01 1.490288e-01 1.479002e-01 1.462424e-01 1.442324e-01 1.415243e-01 1.383261e-01 1.345551e-01 1.305086e-01 1.261851e-01 1.218860e-01 1.175289e-01 1.133883e-01 1.092632e-01 1.054210e-01 1.015603e-01 9.796973e-02 9.427151e-02 9.079587e-02 8.710329e-02 8.357704e-02 7.972102e-02 7.597772e-02 7.179323e-02 6.767305e-02 6.300049e-02 5.834717e-02 5.302650e-02 4.767952e-02 4.154137e-02 