# vtk DataFile Version 2.0
Comment goes here
ASCII

DATASET STRUCTURED_POINTS
FIELD FieldData 1
TIME 1 1 double
0.07700000
DIMENSIONS    64   64   1

ORIGIN    0.000   0.000   0.000
SPACING   0.03125 0.03125   1.000

POINT_DATA   4096
SCALARS uX double
LOOKUP_TABLE default

5.070438e-01 -1.775061e+00 3.147725e-01 -1.736144e+00 6.641889e-02 -1.699494e+00 3.411419e-01 -1.567878e+00 4.534727e-01 -1.478722e+00 4.850817e-01 -1.390735e+00 4.506265e-01 -1.266803e+00 3.427784e-01 -1.087181e+00 1.629400e-01 -8.528107e-01 -6.577956e-02 -5.946335e-01 -3.018071e-01 -3.508786e-01 -5.127180e-01 -1.398057e-01 -6.930615e-01 4.420710e-02 -8.557443e-01 2.144148e-01 -1.005598e+00 3.724291e-01 -1.139509e+00 5.132113e-01 -1.254616e+00 6.321780e-01 -1.342619e+00 7.145158e-01 -1.389070e+00 7.525566e-01 -1.391462e+00 7.458234e-01 -1.355528e+00 7.031137e-01 -1.296674e+00 6.412741e-01 -1.226882e+00 5.643767e-01 -1.143454e+00 4.597774e-01 -1.027054e+00 2.992806e-01 -8.572103e-01 7.032145e-02 -6.321673e-01 -2.211034e-01 -3.629560e-01 -5.617953e-01 -7.098289e-02 -9.281716e-01 2.152518e-01 -1.295667e+00 4.744545e-01 -1.646829e+00 6.789991e-01 -1.946591e+00 
-2.468478e-01 2.554032e-01 -1.894841e-02 2.387795e-01 2.976753e-01 2.226290e-01 -1.396660e-01 8.511145e-02 -3.567286e-01 2.095561e-02 -4.760997e-01 -2.034097e-02 -5.335448e-01 -7.191077e-02 -5.373523e-01 -1.503191e-01 -4.931931e-01 -2.580503e-01 -4.164699e-01 -3.797909e-01 -3.314667e-01 -4.971877e-01 -2.541723e-01 -5.965456e-01 -1.875637e-01 -6.797256e-01 -1.262399e-01 -7.603360e-01 -7.096431e-02 -8.366325e-01 -2.414408e-02 -9.009233e-01 1.298579e-02 -9.536677e-01 3.669579e-02 -9.897077e-01 3.961840e-02 -1.004374e+00 2.105120e-02 -9.899476e-01 -1.966871e-02 -9.475358e-01 -7.065951e-02 -9.006794e-01 -1.186781e-01 -8.499634e-01 -1.669480e-01 -7.810866e-01 -2.267557e-01 -6.793536e-01 -3.068866e-01 -5.426248e-01 -4.044787e-01 -3.743987e-01 -5.124110e-01 -1.813490e-01 -6.181938e-01 2.322331e-02 -7.032563e-01 2.249374e-01 -7.510383e-01 4.086607e-01 -7.341102e-01 5.431482e-01 
2.062637e+00 5.725007e-01 1.665783e+00 5.636958e-01 1.199727e+00 5.446072e-01 1.966555e+00 6.903955e-01 2.400123e+00 7.032857e-01 2.693814e+00 6.559111e-01 2.930926e+00 5.649747e-01 3.159817e+00 4.334761e-01 3.400670e+00 2.682683e-01 3.651068e+00 9.417346e-02 3.885884e+00 -5.416367e-02 4.080264e+00 -1.759006e-01 4.234630e+00 -2.865938e-01 4.369624e+00 -3.777741e-01 4.493744e+00 -4.496948e-01 4.599891e+00 -5.094520e-01 4.684131e+00 -5.531169e-01 4.748972e+00 -5.684902e-01 4.787727e+00 -5.490770e-01 4.787223e+00 -5.016630e-01 4.746628e+00 -4.426318e-01 4.686891e+00 -3.739748e-01 4.618743e+00 -3.042493e-01 4.530257e+00 -2.314847e-01 4.397824e+00 -1.350318e-01 4.215520e+00 -3.803821e-03 3.977267e+00 1.560903e-01 3.683772e+00 3.338570e-01 3.345261e+00 5.143518e-01 2.976792e+00 6.833088e-01 2.575038e+00 8.411944e-01 2.144035e+00 8.868427e-01 
4.332350e+00 1.664155e-01 3.310077e+00 -2.321867e-01 1.736703e+00 -2.293796e-01 3.920726e+00 1.765200e-03 4.963042e+00 7.861092e-02 5.617117e+00 1.129394e-01 6.088602e+00 1.496577e-01 6.445038e+00 2.034368e-01 6.716761e+00 2.767515e-01 6.924395e+00 3.562552e-01 7.086018e+00 4.314191e-01 7.219202e+00 4.935252e-01 7.329796e+00 5.441718e-01 7.413251e+00 5.897528e-01 7.475662e+00 6.316806e-01 7.521571e+00 6.680166e-01 7.552152e+00 7.016977e-01 7.569558e+00 7.290640e-01 7.579727e+00 7.469476e-01 7.584298e+00 7.515060e-01 7.582740e+00 7.454241e-01 7.563383e+00 7.394316e-01 7.516709e+00 7.367134e-01 7.441029e+00 7.329816e-01 7.337973e+00 7.189001e-01 7.207863e+00 6.921557e-01 7.047876e+00 6.542404e-01 6.851252e+00 6.034025e-01 6.605509e+00 5.384765e-01 6.290590e+00 4.534974e-01 5.885113e+00 3.363619e-01 5.355015e+00 1.649324e-01 
4.525413e+00 3.553231e-01 3.670767e+00 -6.177470e-02 2.374778e+00 -6.871442e-02 3.939396e+00 -1.106097e-01 4.942044e+00 -3.522289e-02 5.620443e+00 4.500340e-02 6.116457e+00 1.233198e-01 6.496967e+00 2.040061e-01 6.797128e+00 2.883905e-01 7.035907e+00 3.700233e-01 7.222934e+00 4.363983e-01 7.371692e+00 4.936361e-01 7.489745e+00 5.507990e-01 7.578760e+00 5.972986e-01 7.638720e+00 6.312231e-01 7.678152e+00 6.608556e-01 7.703562e+00 6.873540e-01 7.713893e+00 7.086290e-01 7.709820e+00 7.209818e-01 7.697910e+00 7.266195e-01 7.678763e+00 7.314106e-01 7.641608e+00 7.312301e-01 7.578202e+00 7.272337e-01 7.489494e+00 7.205930e-01 7.378250e+00 7.098587e-01 7.236116e+00 6.930067e-01 7.058309e+00 6.720232e-01 6.841637e+00 6.486269e-01 6.576627e+00 6.205935e-01 6.246906e+00 5.805241e-01 5.841846e+00 5.012918e-01 5.346194e+00 4.329534e-01 
4.863612e+00 1.317996e-01 4.051705e+00 7.673614e-03 2.993138e+00 -2.229203e-03 4.087579e+00 -4.502947e-02 5.068848e+00 1.077504e-02 5.758050e+00 7.379601e-02 6.249835e+00 1.369200e-01 6.618215e+00 2.064486e-01 6.902828e+00 2.848023e-01 7.127078e+00 3.639185e-01 7.297719e+00 4.381680e-01 7.430180e+00 5.044196e-01 7.533116e+00 5.624415e-01 7.608422e+00 6.120898e-01 7.660574e+00 6.563445e-01 7.694407e+00 6.964579e-01 7.712962e+00 7.315806e-01 7.719433e+00 7.606960e-01 7.717175e+00 7.841169e-01 7.707671e+00 8.009499e-01 7.689836e+00 8.104246e-01 7.657495e+00 8.134269e-01 7.604060e+00 8.092730e-01 7.525179e+00 7.955392e-01 7.417928e+00 7.696500e-01 7.281306e+00 7.309119e-01 7.117093e+00 6.802565e-01 6.922233e+00 6.174303e-01 6.686525e+00 5.416196e-01 6.394003e+00 4.501284e-01 6.023854e+00 3.350776e-01 5.545802e+00 1.970220e-01 
5.098122e+00 2.740418e-01 4.452564e+00 1.703861e-01 3.584043e+00 1.595731e-01 4.334550e+00 3.067828e-02 5.100465e+00 1.431590e-02 5.720590e+00 6.197374e-02 6.194012e+00 1.315404e-01 6.561242e+00 2.097044e-01 6.854401e+00 2.934145e-01 7.096280e+00 3.732353e-01 7.281306e+00 4.454955e-01 7.422868e+00 5.074539e-01 7.531702e+00 5.582217e-01 7.613171e+00 5.994194e-01 7.670036e+00 6.323546e-01 7.707291e+00 6.596419e-01 7.730300e+00 6.827287e-01 7.741154e+00 7.016655e-01 7.741047e+00 7.164588e-01 7.731715e+00 7.276055e-01 7.711886e+00 7.351387e-01 7.676403e+00 7.375546e-01 7.620188e+00 7.343971e-01 7.541364e+00 7.257300e-01 7.438640e+00 7.113178e-01 7.308292e+00 6.901441e-01 7.144525e+00 6.630424e-01 6.945984e+00 6.303707e-01 6.709074e+00 5.901434e-01 6.425315e+00 5.378817e-01 6.082781e+00 4.678341e-01 5.657907e+00 3.769754e-01 
5.451425e+00 1.892148e-01 4.876713e+00 1.929194e-01 4.154805e+00 1.819612e-01 4.692408e+00 8.907217e-02 5.323488e+00 5.863384e-02 5.891183e+00 8.748324e-02 6.341052e+00 1.449767e-01 6.691160e+00 2.165934e-01 6.967296e+00 2.998895e-01 7.197485e+00 3.831186e-01 7.364514e+00 4.601876e-01 7.487577e+00 5.253906e-01 7.580668e+00 5.773759e-01 7.649602e+00 6.196482e-01 7.697877e+00 6.564173e-01 7.729209e+00 6.898193e-01 7.747329e+00 7.199061e-01 7.755514e+00 7.463676e-01 7.755852e+00 7.692788e-01 7.749306e+00 7.877374e-01 7.734900e+00 7.997866e-01 7.708267e+00 8.035730e-01 7.664142e+00 7.969584e-01 7.597005e+00 7.781881e-01 7.499090e+00 7.479239e-01 7.369273e+00 7.044749e-01 7.215868e+00 6.505439e-01 7.041684e+00 5.873787e-01 6.839207e+00 5.155977e-01 6.597032e+00 4.350266e-01 6.300307e+00 3.457346e-01 5.928820e+00 2.537761e-01 
5.737971e+00 3.006404e-01 5.287897e+00 3.038280e-01 4.699403e+00 2.929124e-01 5.063712e+00 1.787283e-01 5.505853e+00 1.002919e-01 5.960959e+00 9.763343e-02 6.358825e+00 1.463901e-01 6.686436e+00 2.213714e-01 6.955648e+00 3.105359e-01 7.201703e+00 4.005568e-01 7.375098e+00 4.793438e-01 7.500438e+00 5.400489e-01 7.594759e+00 5.830852e-01 7.664380e+00 6.146786e-01 7.712963e+00 6.403990e-01 7.744907e+00 6.627570e-01 7.765117e+00 6.817029e-01 7.776604e+00 6.974564e-01 7.780200e+00 7.115397e-01 7.776062e+00 7.248317e-01 7.761807e+00 7.361794e-01 7.732693e+00 7.426529e-01 7.684886e+00 7.408671e-01 7.616428e+00 7.292944e-01 7.525576e+00 7.104051e-01 7.411502e+00 6.815851e-01 7.265587e+00 6.435215e-01 7.091752e+00 5.976931e-01 6.894996e+00 5.463087e-01 6.673026e+00 4.904354e-01 6.416592e+00 4.285245e-01 6.111033e+00 3.594158e-01 
6.082977e+00 2.583700e-01 5.700880e+00 3.091133e-01 5.223706e+00 2.989079e-01 5.473172e+00 2.054168e-01 5.806063e+00 1.275936e-01 6.184427e+00 1.112020e-01 6.539106e+00 1.513185e-01 6.839653e+00 2.286792e-01 7.081913e+00 3.241710e-01 7.325816e+00 4.318278e-01 7.474827e+00 5.144965e-01 7.574200e+00 5.706390e-01 7.650359e+00 6.078544e-01 7.708592e+00 6.357687e-01 7.749609e+00 6.617026e-01 7.776033e+00 6.879360e-01 7.791941e+00 7.129652e-01 7.800808e+00 7.357420e-01 7.803903e+00 7.570392e-01 7.802490e+00 7.765633e-01 7.796227e+00 7.916555e-01 7.780085e+00 7.987356e-01 7.748989e+00 7.934755e-01 7.697206e+00 7.728517e-01 7.607146e+00 7.403809e-01 7.478874e+00 6.855136e-01 7.334075e+00 6.201958e-01 7.187112e+00 5.505150e-01 7.029297e+00 4.793990e-01 6.851800e+00 4.094117e-01 6.643769e+00 3.426459e-01 6.392212e+00 2.847073e-01 
6.375900e+00 3.431221e-01 6.091236e+00 3.956916e-01 5.722838e+00 3.861526e-01 5.857848e+00 2.825985e-01 6.060076e+00 1.698843e-01 6.332892e+00 1.122933e-01 6.624904e+00 1.320393e-01 6.888280e+00 2.257451e-01 7.100550e+00 3.362137e-01 7.377479e+00 4.771243e-01 7.517875e+00 5.583225e-01 7.607370e+00 6.008458e-01 7.678758e+00 6.231610e-01 7.732117e+00 6.374702e-01 7.768767e+00 6.525586e-01 7.792745e+00 6.697064e-01 7.809117e+00 6.848414e-01 7.820947e+00 6.959673e-01 7.828386e+00 7.057683e-01 7.832543e+00 7.178214e-01 7.829586e+00 7.331103e-01 7.811720e+00 7.483846e-01 7.773832e+00 7.559457e-01 7.714259e+00 7.447500e-01 7.635569e+00 7.231128e-01 7.539277e+00 6.865729e-01 7.407386e+00 6.288125e-01 7.253402e+00 5.582910e-01 7.100230e+00 4.933503e-01 6.948771e+00 4.399279e-01 6.786403e+00 3.945745e-01 6.599664e+00 3.562705e-01 
6.701083e+00 3.187205e-01 6.476892e+00 3.967634e-01 6.201446e+00 3.883923e-01 6.258231e+00 2.996601e-01 6.384424e+00 1.862124e-01 6.586397e+00 9.840323e-02 6.834101e+00 8.057803e-02 7.075923e+00 1.983145e-01 7.232935e+00 3.604684e-01 7.551271e+00 5.748914e-01 7.633913e+00 6.256535e-01 7.680248e+00 6.408742e-01 7.734259e+00 6.485857e-01 7.780206e+00 6.540329e-01 7.811864e+00 6.661587e-01 7.831922e+00 6.865127e-01 7.845107e+00 7.090092e-01 7.854247e+00 7.291219e-01 7.859007e+00 7.474552e-01 7.863949e+00 7.646466e-01 7.871720e+00 7.805272e-01 7.872764e+00 7.940154e-01 7.860567e+00 7.993186e-01 7.833223e+00 7.893151e-01 7.745095e+00 7.753908e-01 7.597953e+00 6.836206e-01 7.444950e+00 5.878397e-01 7.330009e+00 5.025230e-01 7.226330e+00 4.299110e-01 7.123515e+00 3.740207e-01 7.009004e+00 3.328117e-01 6.871400e+00 3.078415e-01 
6.981469e+00 3.876394e-01 6.835333e+00 4.734320e-01 6.655647e+00 4.664154e-01 6.616824e+00 3.840152e-01 6.645965e+00 2.460961e-01 6.760921e+00 8.423934e-02 6.958766e+00 -3.994908e-02 7.182189e+00 8.476626e-02 7.272558e+00 4.079225e-01 7.700094e+00 7.296818e-01 7.702234e+00 7.019135e-01 7.722355e+00 6.764403e-01 7.774041e+00 6.652809e-01 7.810380e+00 6.561664e-01 7.832546e+00 6.603572e-01 7.847584e+00 6.768251e-01 7.860961e+00 6.935912e-01 7.872570e+00 7.020139e-01 7.880664e+00 7.018584e-01 7.895636e+00 7.009156e-01 7.912825e+00 7.125766e-01 7.916227e+00 7.383980e-01 7.896057e+00 7.782556e-01 7.839159e+00 7.953653e-01 7.766714e+00 7.725487e-01 7.687720e+00 7.455994e-01 7.545814e+00 6.205275e-01 7.392255e+00 4.914382e-01 7.292475e+00 4.166901e-01 7.225735e+00 3.813701e-01 7.160562e+00 3.641747e-01 7.082129e+00 3.599834e-01 
7.282271e+00 3.752500e-01 7.187836e+00 4.760267e-01 7.089021e+00 4.706588e-01 6.991148e+00 4.220722e-01 6.964790e+00 3.150478e-01 7.011608e+00 1.283862e-01 7.151687e+00 -1.605391e-01 7.393610e+00 -1.906769e-01 7.443418e+00 5.095477e-01 7.994632e+00 9.901100e-01 7.779678e+00 7.221070e-01 7.764614e+00 6.779620e-01 7.823727e+00 6.727423e-01 7.859130e+00 6.583402e-01 7.877741e+00 6.547842e-01 7.892434e+00 6.752550e-01 7.906945e+00 7.063034e-01 7.917180e+00 7.331189e-01 7.916542e+00 7.506182e-01 7.923154e+00 7.520159e-01 7.953619e+00 7.507090e-01 7.984392e+00 7.613915e-01 8.005313e+00 7.852717e-01 8.036191e+00 8.347728e-01 7.945186e+00 1.000666e+00 7.690731e+00 6.990849e-01 7.492710e+00 5.313625e-01 7.434989e+00 4.141089e-01 7.409534e+00 3.487178e-01 7.397977e+00 3.252362e-01 7.377149e+00 3.199702e-01 7.339626e+00 3.294500e-01 
7.541222e+00 4.339566e-01 7.510498e+00 5.433570e-01 7.498651e+00 5.397949e-01 7.316636e+00 5.300265e-01 7.202142e+00 4.674536e-01 7.153853e+00 2.828733e-01 7.225604e+00 -1.167812e-01 7.429749e+00 -3.706524e-01 7.546007e+00 3.827331e-01 8.114699e+00 1.008333e+00 7.702002e+00 5.104631e-01 7.756844e+00 5.182686e-01 7.855380e+00 5.642065e-01 7.873517e+00 5.812322e-01 7.876438e+00 6.089936e-01 7.885448e+00 6.545561e-01 7.905789e+00 6.959582e-01 7.919507e+00 7.212792e-01 7.913924e+00 7.125839e-01 7.937646e+00 6.630887e-01 7.991396e+00 6.513640e-01 8.031413e+00 6.614690e-01 8.065652e+00 6.938014e-01 8.044607e+00 8.562770e-01 7.941128e+00 9.079478e-01 7.856706e+00 8.683435e-01 7.577472e+00 4.979249e-01 7.448336e+00 3.173146e-01 7.466923e+00 2.975351e-01 7.508237e+00 3.177638e-01 7.532774e+00 3.407071e-01 7.543387e+00 3.704193e-01 
7.814170e+00 4.310145e-01 7.828109e+00 5.379980e-01 7.886970e+00 5.356539e-01 7.662867e+00 5.572099e-01 7.512599e+00 5.850046e-01 7.416958e+00 6.263315e-01 7.351900e+00 6.461091e-01 7.276329e+00 3.282065e-01 7.382712e+00 -1.403000e-01 6.929977e+00 -8.764439e-01 7.072338e+00 -6.585646e-01 7.301201e+00 -4.070104e-01 7.421241e+00 -2.246741e-01 7.494073e+00 -5.066596e-02 7.534530e+00 9.886227e-02 7.575559e+00 2.421568e-01 7.620463e+00 3.653629e-01 7.660402e+00 4.531741e-01 7.680430e+00 5.117682e-01 7.713892e+00 5.234577e-01 7.788809e+00 5.670755e-01 7.854113e+00 6.609182e-01 7.915373e+00 7.782547e-01 8.026997e+00 1.224997e+00 7.986485e+00 2.219041e+00 7.926317e+00 1.403397e+00 7.495827e+00 3.937171e-01 7.481277e+00 1.759880e-01 7.608313e+00 2.245026e-01 7.698551e+00 2.819630e-01 7.748534e+00 3.185655e-01 7.784505e+00 3.570222e-01 
8.044820e+00 4.739216e-01 8.116934e+00 5.729245e-01 8.252131e+00 5.717995e-01 7.978584e+00 6.214032e-01 7.759395e+00 7.577091e-01 7.509096e+00 1.099515e+00 7.072622e+00 1.657206e+00 6.409853e+00 1.402465e+00 6.122091e+00 -1.229215e+00 4.135727e+00 -3.045498e+00 5.250530e+00 -2.340439e+00 5.138984e+00 -2.407977e+00 5.014328e+00 -2.395443e+00 5.082095e+00 -2.275327e+00 5.208488e+00 -2.170400e+00 5.310377e+00 -2.124142e+00 5.370088e+00 -2.079811e+00 5.417676e+00 -1.995646e+00 5.479823e+00 -1.868528e+00 5.476617e+00 -1.695617e+00 5.414869e+00 -1.582587e+00 5.413292e+00 -1.504868e+00 5.494079e+00 -1.416625e+00 5.713115e+00 -1.409815e+00 6.110852e+00 -1.248309e+00 6.502650e+00 -8.542001e-01 7.072531e+00 -3.420533e-01 7.524284e+00 2.721744e-02 7.733574e+00 2.032410e-01 7.829852e+00 2.865416e-01 7.898664e+00 3.376398e-01 7.969696e+00 3.898217e-01 
8.285233e+00 4.710286e-01 8.399572e+00 5.578123e-01 8.595561e+00 5.583208e-01 8.274228e+00 6.038379e-01 7.994749e+00 7.152359e-01 7.663127e+00 9.888773e-01 7.157135e+00 1.440025e+00 6.501835e+00 1.338199e+00 6.248919e+00 -2.165498e-01 4.746244e+00 -1.588359e+00 4.990502e+00 -1.528630e+00 4.864413e+00 -1.850194e+00 4.642025e+00 -2.081717e+00 4.569668e+00 -2.215699e+00 4.582320e+00 -2.345924e+00 4.604192e+00 -2.535860e+00 4.599745e+00 -2.716806e+00 4.589206e+00 -2.830698e+00 4.618668e+00 -2.873369e+00 4.567064e+00 -2.796382e+00 4.374608e+00 -2.787768e+00 4.226905e+00 -2.873501e+00 4.145925e+00 -2.983552e+00 4.063356e+00 -3.764036e+00 4.699630e+00 -5.672188e+00 5.854716e+00 -3.217933e+00 7.519927e+00 -6.887579e-01 7.981211e+00 1.275687e-01 8.031601e+00 2.902780e-01 8.046480e+00 3.185376e-01 8.099396e+00 3.422187e-01 8.183758e+00 3.874597e-01 
8.484308e+00 4.971852e-01 8.654501e+00 5.744997e-01 8.916068e+00 5.767168e-01 8.549896e+00 5.915333e-01 8.242512e+00 5.722227e-01 7.962565e+00 4.884265e-01 7.730461e+00 3.369808e-01 7.578871e+00 3.012471e-01 7.449335e+00 9.939379e-01 7.743160e+00 1.075302e+00 7.155789e+00 6.236264e-01 7.267311e+00 5.392507e-01 7.255281e+00 4.016226e-01 7.169991e+00 2.354428e-01 7.085541e+00 5.970542e-02 7.036281e+00 -1.056768e-01 7.006139e+00 -2.574403e-01 6.975275e+00 -3.983099e-01 6.939229e+00 -5.147468e-01 6.888606e+00 -6.142131e-01 6.830182e+00 -7.301823e-01 6.779260e+00 -8.635698e-01 6.741534e+00 -1.039742e+00 6.756201e+00 -1.281459e+00 6.835494e+00 -1.446063e+00 6.857167e+00 -1.442644e+00 7.419888e+00 -5.807266e-01 7.803857e+00 -2.286686e-02 7.987355e+00 2.046837e-01 8.099443e+00 2.951888e-01 8.209832e+00 3.501655e-01 8.338115e+00 4.104547e-01 
8.693435e+00 4.853309e-01 8.902970e+00 5.509948e-01 9.214899e+00 5.545130e-01 8.823579e+00 5.653970e-01 8.504781e+00 5.141902e-01 8.257917e+00 3.057753e-01 8.164712e+00 -1.152963e-01 8.229632e+00 -1.866851e-01 8.041279e+00 4.793248e-01 8.643619e+00 1.329435e+00 8.298198e+00 9.607500e-01 8.192811e+00 8.752619e-01 8.208570e+00 8.459134e-01 8.168834e+00 8.076837e-01 8.124162e+00 7.860073e-01 8.095371e+00 7.846939e-01 8.091071e+00 7.785156e-01 8.092611e+00 7.532290e-01 8.079346e+00 6.987044e-01 8.099252e+00 5.922131e-01 8.163023e+00 5.274646e-01 8.213426e+00 5.024928e-01 8.270785e+00 4.869016e-01 8.355977e+00 8.175449e-01 8.287267e+00 1.619746e+00 8.132040e+00 8.182582e-01 7.809960e+00 4.471265e-02 7.910635e+00 3.435422e-02 8.092190e+00 1.797948e-01 8.239435e+00 2.789361e-01 8.373224e+00 3.414207e-01 8.521610e+00 4.031394e-01 
8.861592e+00 4.962134e-01 9.123931e+00 5.455144e-01 9.491290e+00 5.497364e-01 9.094447e+00 5.477848e-01 8.778367e+00 5.043687e-01 8.545666e+00 3.929058e-01 8.437948e+00 2.103128e-01 8.455711e+00 2.042436e-01 8.386325e+00 5.893899e-01 8.618093e+00 9.010851e-01 8.355830e+00 8.286425e-01 8.244643e+00 7.808529e-01 8.218406e+00 7.531666e-01 8.192858e+00 7.305781e-01 8.163812e+00 7.236760e-01 8.140627e+00 7.352357e-01 8.128132e+00 7.485721e-01 8.121204e+00 7.506182e-01 8.112841e+00 7.331921e-01 8.130177e+00 6.907622e-01 8.178667e+00 6.708160e-01 8.221588e+00 6.808146e-01 8.256943e+00 7.265824e-01 8.265341e+00 8.862678e-01 8.222805e+00 1.009579e+00 8.309879e+00 9.345804e-01 8.093914e+00 4.418208e-01 8.043750e+00 2.297749e-01 8.149287e+00 2.375661e-01 8.299959e+00 2.965308e-01 8.464059e+00 3.559810e-01 8.648537e+00 4.201821e-01 
9.038023e+00 4.731859e-01 9.337372e+00 5.100136e-01 9.745908e+00 5.151548e-01 9.346334e+00 5.086076e-01 9.034230e+00 4.622618e-01 8.805833e+00 3.872039e-01 8.663486e+00 3.534840e-01 8.561342e+00 4.307194e-01 8.454588e+00 5.641345e-01 8.574052e+00 7.870413e-01 8.487131e+00 8.266032e-01 8.386462e+00 8.271345e-01 8.325343e+00 8.080852e-01 8.274584e+00 7.792982e-01 8.232163e+00 7.592917e-01 8.199337e+00 7.553187e-01 8.178492e+00 7.570206e-01 8.167608e+00 7.550862e-01 8.161973e+00 7.478101e-01 8.175161e+00 7.340601e-01 8.212945e+00 7.271122e-01 8.255712e+00 7.382493e-01 8.296788e+00 7.761386e-01 8.339578e+00 8.472040e-01 8.306458e+00 9.426535e-01 8.212315e+00 7.185037e-01 8.129600e+00 4.780804e-01 8.161368e+00 3.203716e-01 8.269157e+00 2.817534e-01 8.421234e+00 3.070079e-01 8.597343e+00 3.524449e-01 8.799816e+00 4.088705e-01 
9.178169e+00 4.828808e-01 9.521540e+00 5.100761e-01 9.978354e+00 5.162368e-01 9.572087e+00 5.244849e-01 9.251002e+00 5.118450e-01 9.002958e+00 4.840412e-01 8.822693e+00 4.787249e-01 8.686317e+00 5.307828e-01 8.576014e+00 6.170407e-01 8.563967e+00 7.146245e-01 8.481032e+00 7.711212e-01 8.398699e+00 7.873307e-01 8.337669e+00 7.813654e-01 8.289404e+00 7.669098e-01 8.247506e+00 7.561368e-01 8.212678e+00 7.512255e-01 8.187806e+00 7.461131e-01 8.174743e+00 7.363609e-01 8.172471e+00 7.245489e-01 8.185883e+00 7.164622e-01 8.212947e+00 7.196331e-01 8.240679e+00 7.346951e-01 8.263439e+00 7.563641e-01 8.282075e+00 7.627811e-01 8.294480e+00 7.574937e-01 8.312233e+00 7.021441e-01 8.283115e+00 5.661926e-01 8.287448e+00 4.315612e-01 8.361433e+00 3.629967e-01 8.499282e+00 3.554839e-01 8.683048e+00 3.825587e-01 8.907368e+00 4.292296e-01 
9.322418e+00 4.612177e-01 9.697211e+00 4.785852e-01 1.018875e+01 4.855649e-01 9.778349e+00 4.991343e-01 9.450121e+00 5.035408e-01 9.184110e+00 5.075182e-01 8.968852e+00 5.287696e-01 8.793843e+00 5.707883e-01 8.660710e+00 6.393327e-01 8.626174e+00 7.122131e-01 8.564445e+00 7.686400e-01 8.488000e+00 8.016210e-01 8.419541e+00 8.067706e-01 8.360073e+00 7.949996e-01 8.309077e+00 7.805416e-01 8.266699e+00 7.697576e-01 8.235789e+00 7.603142e-01 8.218384e+00 7.505211e-01 8.213459e+00 7.431595e-01 8.223179e+00 7.407791e-01 8.247260e+00 7.440196e-01 8.277551e+00 7.507459e-01 8.309332e+00 7.536712e-01 8.340468e+00 7.434273e-01 8.340697e+00 7.214677e-01 8.323658e+00 6.438395e-01 8.314281e+00 5.437449e-01 8.356343e+00 4.477853e-01 8.451562e+00 3.866817e-01 8.598718e+00 3.689785e-01 8.791904e+00 3.841613e-01 9.030210e+00 4.201811e-01 
9.435928e+00 4.764332e-01 9.845177e+00 4.884454e-01 1.037711e+01 4.964283e-01 9.952074e+00 5.207768e-01 9.609601e+00 5.414514e-01 9.325658e+00 5.585429e-01 9.089904e+00 5.822477e-01 8.898973e+00 6.164001e-01 8.752021e+00 6.657335e-01 8.661962e+00 7.099176e-01 8.580368e+00 7.536686e-01 8.500856e+00 7.832343e-01 8.430104e+00 7.915435e-01 8.369172e+00 7.849436e-01 8.316568e+00 7.730121e-01 8.272798e+00 7.608351e-01 8.240520e+00 7.481619e-01 8.222174e+00 7.350396e-01 8.217351e+00 7.249644e-01 8.225441e+00 7.211903e-01 8.243943e+00 7.232330e-01 8.267512e+00 7.259646e-01 8.293789e+00 7.208102e-01 8.323238e+00 7.033883e-01 8.348982e+00 6.815911e-01 8.375224e+00 6.366117e-01 8.398296e+00 5.692378e-01 8.441221e+00 4.941403e-01 8.527560e+00 4.357831e-01 8.669461e+00 4.099465e-01 8.866993e+00 4.158001e-01 9.119563e+00 4.439175e-01 
9.549096e+00 4.606704e-01 9.982968e+00 4.661550e-01 1.054320e+01 4.749220e-01 1.010935e+01 5.054590e-01 9.756800e+00 5.373307e-01 9.458799e+00 5.665706e-01 9.204997e+00 5.972764e-01 8.995557e+00 6.329249e-01 8.834676e+00 6.805544e-01 8.737021e+00 7.268273e-01 8.656459e+00 7.694651e-01 8.571409e+00 8.002332e-01 8.494204e+00 8.105332e-01 8.426961e+00 8.044679e-01 8.368575e+00 7.911321e-01 8.319308e+00 7.767839e-01 8.282157e+00 7.627459e-01 8.259875e+00 7.496908e-01 8.252263e+00 7.403528e-01 8.258617e+00 7.364717e-01 8.277600e+00 7.359982e-01 8.305175e+00 7.334007e-01 8.337535e+00 7.213562e-01 8.369997e+00 6.975387e-01 8.389089e+00 6.668942e-01 8.404349e+00 6.170166e-01 8.430723e+00 5.540804e-01 8.487843e+00 4.889119e-01 8.589312e+00 4.372133e-01 8.743177e+00 4.118473e-01 8.951258e+00 4.142964e-01 9.215787e+00 4.366790e-01 
9.636037e+00 4.804029e-01 1.009561e+01 4.830794e-01 1.068737e+01 4.926682e-01 1.023597e+01 5.254440e-01 9.869885e+00 5.592739e-01 9.560574e+00 5.889130e-01 9.294859e+00 6.189354e-01 9.072011e+00 6.489216e-01 8.897332e+00 6.870623e-01 8.768555e+00 7.317014e-01 8.684632e+00 7.766293e-01 8.590433e+00 8.019911e-01 8.504456e+00 8.076835e-01 8.431677e+00 7.994640e-01 8.369547e+00 7.843606e-01 8.318090e+00 7.676599e-01 8.279911e+00 7.507275e-01 8.257261e+00 7.339153e-01 8.249952e+00 7.199643e-01 8.256275e+00 7.119134e-01 8.274113e+00 7.094243e-01 8.300100e+00 7.083324e-01 8.330428e+00 7.013893e-01 8.363459e+00 6.848221e-01 8.397328e+00 6.644489e-01 8.434686e+00 6.302478e-01 8.485166e+00 5.761441e-01 8.541396e+00 5.110883e-01 8.638337e+00 4.586070e-01 8.793628e+00 4.340765e-01 9.008774e+00 4.376480e-01 9.284997e+00 4.596779e-01 
9.719532e+00 4.700074e-01 1.019635e+01 4.693575e-01 1.080913e+01 4.796216e-01 1.034716e+01 5.155281e-01 9.972593e+00 5.518733e-01 9.655812e+00 5.818454e-01 9.381994e+00 6.146379e-01 9.147940e+00 6.503608e-01 8.967109e+00 6.921562e-01 8.837820e+00 7.557934e-01 8.755711e+00 8.047988e-01 8.645798e+00 8.233022e-01 8.552596e+00 8.241976e-01 8.476839e+00 8.138767e-01 8.411426e+00 7.975694e-01 8.355609e+00 7.802727e-01 8.313205e+00 7.632845e-01 8.287557e+00 7.463101e-01 8.278421e+00 7.312491e-01 8.284463e+00 7.209044e-01 8.304917e+00 7.157882e-01 8.336385e+00 7.130892e-01 8.372673e+00 7.063543e-01 8.407650e+00 6.903865e-01 8.434444e+00 6.689968e-01 8.464446e+00 6.304401e-01 8.508895e+00 5.674600e-01 8.567787e+00 4.965843e-01 8.675582e+00 4.445910e-01 8.843774e+00 4.238057e-01 9.070223e+00 4.304302e-01 9.356454e+00 4.527179e-01 
9.779914e+00 4.938725e-01 1.027350e+01 4.937275e-01 1.090911e+01 5.047012e-01 1.042758e+01 5.400784e-01 1.003995e+01 5.678413e-01 9.717263e+00 5.797707e-01 9.440186e+00 6.021597e-01 9.192157e+00 6.351916e-01 9.003717e+00 6.624677e-01 8.849695e+00 7.718618e-01 8.801482e+00 8.483478e-01 8.665632e+00 8.393939e-01 8.557736e+00 8.260716e-01 8.476399e+00 8.117583e-01 8.405714e+00 7.930368e-01 8.346391e+00 7.730659e-01 8.303036e+00 7.529259e-01 8.277440e+00 7.313489e-01 8.269134e+00 7.087179e-01 8.276683e+00 6.898793e-01 8.300031e+00 6.800425e-01 8.335607e+00 6.820834e-01 8.372468e+00 6.947816e-01 8.402834e+00 7.015311e-01 8.438575e+00 6.916849e-01 8.477824e+00 6.788498e-01 8.553026e+00 6.008908e-01 8.589679e+00 4.943560e-01 8.692963e+00 4.358584e-01 8.871619e+00 4.261271e-01 9.109349e+00 4.445624e-01 9.405336e+00 4.741088e-01 
9.835116e+00 4.890387e-01 1.033778e+01 4.882711e-01 1.098656e+01 4.997972e-01 1.049390e+01 5.390683e-01 1.009824e+01 5.661477e-01 9.771221e+00 5.627260e-01 9.496445e+00 5.616305e-01 9.246405e+00 6.052434e-01 9.049591e+00 6.339808e-01 8.928601e+00 8.541057e-01 8.875135e+00 8.973760e-01 8.690874e+00 8.535167e-01 8.585462e+00 8.328575e-01 8.510239e+00 8.198912e-01 8.438653e+00 8.015950e-01 8.374443e+00 7.821427e-01 8.326803e+00 7.627256e-01 8.299768e+00 7.426002e-01 8.289978e+00 7.192501e-01 8.296497e+00 6.948928e-01 8.324124e+00 6.781041e-01 8.368838e+00 6.760551e-01 8.418085e+00 6.912837e-01 8.457607e+00 7.225728e-01 8.473105e+00 7.412251e-01 8.507185e+00 7.083259e-01 8.552916e+00 5.815285e-01 8.586487e+00 4.555220e-01 8.707869e+00 4.032020e-01 8.904147e+00 4.063988e-01 9.152594e+00 4.342623e-01 9.454701e+00 4.685236e-01 
9.868602e+00 5.164842e-01 1.037918e+01 5.191148e-01 1.104239e+01 5.313362e-01 1.053018e+01 5.830386e-01 1.011629e+01 6.151207e-01 9.775107e+00 5.702267e-01 9.507995e+00 4.794280e-01 9.259850e+00 5.115655e-01 9.040002e+00 4.792421e-01 8.937105e+00 9.823284e-01 8.971967e+00 1.036652e+00 8.669496e+00 8.376372e-01 8.573085e+00 8.093769e-01 8.506244e+00 8.140446e-01 8.425316e+00 8.011318e-01 8.353061e+00 7.792202e-01 8.304821e+00 7.523935e-01 8.279740e+00 7.301506e-01 8.269329e+00 6.984462e-01 8.274268e+00 6.547948e-01 8.307730e+00 6.202600e-01 8.363805e+00 6.095792e-01 8.424414e+00 6.434441e-01 8.458501e+00 7.685437e-01 8.458791e+00 8.157165e-01 8.514950e+00 8.912005e-01 8.595586e+00 5.873992e-01 8.547467e+00 3.683794e-01 8.697235e+00 3.568422e-01 8.920437e+00 3.997662e-01 9.178275e+00 4.471516e-01 9.483937e+00 4.906626e-01 
9.896004e+00 5.155636e-01 1.040767e+01 5.186723e-01 1.107555e+01 5.312336e-01 1.055501e+01 5.925298e-01 1.013232e+01 6.395679e-01 9.778979e+00 6.062528e-01 9.498746e+00 5.107603e-01 9.240530e+00 5.210184e-01 8.996028e+00 4.843124e-01 8.928532e+00 9.869726e-01 8.904392e+00 9.565090e-01 8.566505e+00 7.398217e-01 8.518248e+00 7.377742e-01 8.459621e+00 7.591002e-01 8.368864e+00 7.422942e-01 8.287940e+00 7.125100e-01 8.235569e+00 6.766941e-01 8.210287e+00 6.501719e-01 8.194644e+00 6.159592e-01 8.187834e+00 5.668173e-01 8.210667e+00 5.241582e-01 8.256124e+00 5.042957e-01 8.313080e+00 5.154550e-01 8.374122e+00 6.437975e-01 8.368234e+00 8.226918e-01 8.456685e+00 8.375412e-01 8.494979e+00 4.316057e-01 8.505040e+00 2.685193e-01 8.707293e+00 3.159867e-01 8.947980e+00 3.849839e-01 9.207985e+00 4.411602e-01 9.512362e+00 4.880123e-01 
9.900891e+00 5.383150e-01 1.041485e+01 5.415194e-01 1.108718e+01 5.541032e-01 1.056431e+01 6.359397e-01 1.013007e+01 7.618154e-01 9.722093e+00 9.251775e-01 9.306151e+00 1.053174e+00 8.958561e+00 9.517711e-01 8.626575e+00 8.725017e-01 8.170780e+00 -2.216692e-02 7.576245e+00 -2.577661e-01 7.595615e+00 -1.671580e-01 7.404610e+00 -2.507735e-01 7.245870e+00 -3.567261e-01 7.173870e+00 -4.204421e-01 7.143728e+00 -4.630659e-01 7.119084e+00 -4.920189e-01 7.087566e+00 -5.187373e-01 7.059645e+00 -5.264168e-01 7.035020e+00 -5.236864e-01 6.991929e+00 -5.501784e-01 6.948699e+00 -6.277873e-01 6.952074e+00 -7.698447e-01 7.054514e+00 -1.038364e+00 7.306116e+00 -1.233331e+00 7.524981e+00 -1.269805e+00 7.828809e+00 -5.007643e-01 8.437869e+00 9.907851e-02 8.749077e+00 3.216522e-01 8.972666e+00 4.069836e-01 9.217415e+00 4.609295e-01 9.517325e+00 5.085052e-01 
9.900161e+00 5.346660e-01 1.040869e+01 5.382306e-01 1.107606e+01 5.507216e-01 1.055478e+01 6.444725e-01 1.011704e+01 8.142131e-01 9.680714e+00 1.084409e+00 9.191233e+00 1.329200e+00 8.796189e+00 1.159555e+00 8.413772e+00 1.017937e+00 7.684980e+00 -7.300820e-01 6.793274e+00 -1.024810e+00 7.100190e+00 -7.148680e-01 6.810497e+00 -8.438086e-01 6.599122e+00 -1.001899e+00 6.557974e+00 -1.055347e+00 6.580343e+00 -1.071404e+00 6.592300e+00 -1.068989e+00 6.574299e+00 -1.074703e+00 6.558412e+00 -1.053459e+00 6.546777e+00 -1.008087e+00 6.493056e+00 -1.004020e+00 6.427325e+00 -1.078394e+00 6.416674e+00 -1.243357e+00 6.537092e+00 -1.651879e+00 6.934694e+00 -2.007608e+00 7.217959e+00 -1.993938e+00 7.668996e+00 -7.676565e-01 8.462763e+00 7.381922e-02 8.788713e+00 3.332615e-01 8.994930e+00 4.121668e-01 9.228278e+00 4.596358e-01 9.521818e+00 5.047906e-01 
9.876350e+00 5.488068e-01 1.038180e+01 5.551451e-01 1.104327e+01 5.674957e-01 1.052371e+01 6.413384e-01 1.009706e+01 7.395796e-01 9.713225e+00 8.369381e-01 9.351076e+00 8.857118e-01 9.046571e+00 8.093278e-01 8.751249e+00 7.429924e-01 8.456610e+00 2.897491e-01 7.994365e+00 4.563233e-02 7.928856e+00 9.550575e-02 7.821289e+00 6.471243e-02 7.723151e+00 3.590142e-02 7.668115e+00 2.704345e-02 7.641618e+00 2.621452e-02 7.627455e+00 2.802322e-02 7.620990e+00 3.232200e-02 7.620331e+00 3.811465e-02 7.627843e+00 3.935838e-02 7.646670e+00 3.109761e-02 7.680881e+00 1.601658e-02 7.743795e+00 6.197133e-04 7.850356e+00 3.412145e-02 7.949527e+00 1.696641e-01 8.104198e+00 1.689728e-01 8.201374e+00 8.829440e-02 8.430898e+00 1.956607e-01 8.695093e+00 3.174520e-01 8.939210e+00 4.015383e-01 9.195802e+00 4.634702e-01 9.497020e+00 5.156672e-01 