# vtk DataFile Version 2.0
Comment goes here
ASCII

DATASET STRUCTURED_POINTS
FIELD FieldData 1
TIME 1 1 double
0.00300000
DIMENSIONS    256   32   1

ORIGIN    0.000   0.000   0.000
SPACING   0.0078125 0.0078125   1.000

POINT_DATA   8192
SCALARS uX double
LOOKUP_TABLE default

-1.218172e-03 -2.014571e-03 -3.277967e-03 -4.841413e-03 -7.013419e-03 -9.499812e-03 -1.201392e-02 -1.003913e-02 -1.410913e-02 -1.173685e-02 -1.418570e-02 -1.732172e-02 -1.470127e-02 -2.177415e-02 -2.366819e-02 -1.813972e-02 -2.430349e-02 -2.028183e-02 -2.027512e-02 -2.407930e-02 -1.551875e-02 -1.729641e-02 -1.668027e-02 -1.114231e-02 -1.270842e-02 -1.014041e-02 -8.451322e-03 -9.798137e-03 -5.753918e-03 -7.634303e-03 -4.785774e-03 -4.747429e-03 -4.210292e-03 -2.638912e-03 -2.912667e-03 -1.690297e-03 -1.352788e-03 -1.170155e-03 -1.958391e-04 -4.272806e-04 3.085658e-04 4.037635e-04 5.548685e-04 9.990111e-04 9.241193e-04 1.221289e-03 1.350915e-03 1.305259e-03 1.641848e-03 1.497665e-03 1.694025e-03 1.746405e-03 1.675406e-03 1.915567e-03 1.763669e-03 1.898811e-03 1.928878e-03 1.835341e-03 2.058774e-03 1.857387e-03 2.024266e-03 1.986813e-03 1.893254e-03 2.076000e-03 1.935427e-03 2.062559e-03 1.969064e-03 1.963586e-03 2.121611e-03 1.902002e-03 2.109447e-03 1.988426e-03 1.996322e-03 2.101059e-03 1.909447e-03 2.117278e-03 1.977904e-03 2.010522e-03 2.092021e-03 1.911814e-03 2.137259e-03 1.953586e-03 2.041731e-03 2.064364e-03 1.937103e-03 2.136819e-03 1.943091e-03 2.061436e-03 2.050960e-03 1.955844e-03 2.147939e-03 1.925991e-03 2.100644e-03 2.028312e-03 1.949105e-03 2.111987e-03 1.964166e-03 2.099384e-03 1.978117e-03 1.996884e-03 2.127988e-03 1.914977e-03 2.131917e-03 1.984620e-03 2.018378e-03 2.094799e-03 1.919917e-03 2.130289e-03 1.967995e-03 2.029775e-03 2.078778e-03 1.925155e-03 2.143518e-03 1.940456e-03 2.060830e-03 2.047459e-03 1.953473e-03 2.135933e-03 1.929438e-03 2.079421e-03 2.034149e-03 1.970597e-03 2.141389e-03 1.918412e-03 2.115411e-03 2.012266e-03 1.963370e-03 2.106818e-03 1.962749e-03 2.106819e-03 1.963377e-03 2.012252e-03 2.115421e-03 1.918410e-03 2.141384e-03 1.970608e-03 2.034140e-03 2.079433e-03 1.929433e-03 2.135932e-03 1.953485e-03 2.047453e-03 2.060843e-03 1.940451e-03 2.143525e-03 1.925170e-03 2.078776e-03 2.029794e-03 1.967997e-03 2.130307e-03 1.919938e-03 2.094811e-03 2.018410e-03 1.984640e-03 2.131958e-03 1.915018e-03 2.128032e-03 1.996956e-03 1.978187e-03 2.099472e-03 1.964269e-03 2.112115e-03 1.949247e-03 2.028487e-03 2.100855e-03 1.926246e-03 2.148250e-03 1.956206e-03 2.051420e-03 2.061950e-03 1.943740e-03 2.137596e-03 1.937989e-03 2.065535e-03 2.042972e-03 1.955249e-03 2.139136e-03 1.914041e-03 2.094902e-03 2.013596e-03 1.982037e-03 2.121875e-03 1.914956e-03 2.108191e-03 2.003786e-03 1.998770e-03 2.120443e-03 1.915875e-03 2.138745e-03 1.982122e-03 1.994151e-03 2.090112e-03 1.969032e-03 2.115113e-03 1.935569e-03 2.046097e-03 2.084360e-03 1.938919e-03 2.151648e-03 1.941043e-03 2.069472e-03 2.044047e-03 1.958907e-03 2.134592e-03 1.925109e-03 2.082313e-03 2.025986e-03 1.969136e-03 2.131015e-03 1.906924e-03 2.107882e-03 1.997412e-03 1.994060e-03 2.108823e-03 1.910924e-03 2.114794e-03 1.984110e-03 2.003986e-03 2.096363e-03 1.906235e-03 2.130371e-03 1.954324e-03 2.027198e-03 2.062943e-03 1.919835e-03 2.122216e-03 1.932911e-03 2.032111e-03 2.034439e-03 1.917399e-03 2.111616e-03 1.887494e-03 2.037432e-03 1.981561e-03 1.909510e-03 2.065673e-03 1.842243e-03 2.004497e-03 1.920839e-03 1.860604e-03 1.997924e-03 1.763455e-03 1.936972e-03 1.822942e-03 1.766584e-03 1.886123e-03 1.637650e-03 1.825301e-03 1.667829e-03 1.681210e-03 1.648885e-03 1.131371e-03 7.168570e-04 3.965068e-04 -6.960593e-05 -4.928940e-04 
-6.524440e-04 -1.491671e-03 -2.452390e-03 -4.124834e-03 -6.040662e-03 -9.547027e-03 -1.126252e-02 -9.588192e-03 -1.327859e-02 -1.178345e-02 -1.368148e-02 -1.998261e-02 -1.541975e-02 -2.873114e-02 -3.116614e-02 -2.604183e-02 -3.354894e-02 -2.873132e-02 -2.899302e-02 -3.153721e-02 -2.160225e-02 -1.843867e-02 -1.998626e-02 -1.006462e-02 -1.344730e-02 -9.009504e-03 -8.105761e-03 -8.985610e-03 -5.201334e-03 -6.861122e-03 -4.328205e-03 -3.995771e-03 -3.866893e-03 -1.993783e-03 -2.534567e-03 -1.216615e-03 -9.462456e-04 -8.173095e-04 2.002675e-04 -9.424859e-05 6.362844e-04 7.387487e-04 8.328302e-04 1.323437e-03 1.202639e-03 1.501876e-03 1.644532e-03 1.552045e-03 1.939449e-03 1.744189e-03 1.967908e-03 2.005763e-03 1.927819e-03 2.181400e-03 2.017165e-03 2.146913e-03 2.196408e-03 2.066945e-03 2.341797e-03 2.089760e-03 2.305457e-03 2.241431e-03 2.116436e-03 2.319967e-03 2.227428e-03 2.314970e-03 2.199671e-03 2.203208e-03 2.408784e-03 2.129276e-03 2.384903e-03 2.224864e-03 2.253041e-03 2.351787e-03 2.153082e-03 2.370968e-03 2.232653e-03 2.249350e-03 2.362369e-03 2.136331e-03 2.414670e-03 2.184723e-03 2.304737e-03 2.309841e-03 2.185153e-03 2.392703e-03 2.191396e-03 2.305010e-03 2.313383e-03 2.186044e-03 2.427716e-03 2.154418e-03 2.381986e-03 2.277871e-03 2.172080e-03 2.356711e-03 2.256659e-03 2.349968e-03 2.205632e-03 2.239216e-03 2.413319e-03 2.141678e-03 2.409017e-03 2.218973e-03 2.276752e-03 2.343266e-03 2.164288e-03 2.385105e-03 2.220710e-03 2.270522e-03 2.346617e-03 2.151482e-03 2.421499e-03 2.169311e-03 2.326107e-03 2.290426e-03 2.204024e-03 2.391552e-03 2.175381e-03 2.325516e-03 2.294464e-03 2.202944e-03 2.420079e-03 2.145588e-03 2.398898e-03 2.258181e-03 2.188357e-03 2.354644e-03 2.255396e-03 2.354651e-03 2.188363e-03 2.258160e-03 2.398912e-03 2.145585e-03 2.420073e-03 2.202958e-03 2.294451e-03 2.325532e-03 2.175374e-03 2.391551e-03 2.204039e-03 2.290415e-03 2.326125e-03 2.169304e-03 2.421506e-03 2.151499e-03 2.346611e-03 2.270545e-03 2.220709e-03 2.385124e-03 2.164309e-03 2.343274e-03 2.276788e-03 2.218989e-03 2.409059e-03 2.141718e-03 2.413359e-03 2.239292e-03 2.205701e-03 2.350053e-03 2.256764e-03 2.356839e-03 2.172216e-03 2.278036e-03 2.382197e-03 2.154669e-03 2.428021e-03 2.186400e-03 2.313836e-03 2.305514e-03 2.192039e-03 2.393460e-03 2.186026e-03 2.310988e-03 2.305952e-03 2.186363e-03 2.416502e-03 2.138510e-03 2.365208e-03 2.252327e-03 2.236749e-03 2.375401e-03 2.158511e-03 2.358745e-03 2.260313e-03 2.235012e-03 2.395556e-03 2.142823e-03 2.425573e-03 2.220899e-03 2.224710e-03 2.343097e-03 2.261091e-03 2.356360e-03 2.157073e-03 2.299371e-03 2.363332e-03 2.169414e-03 2.431935e-03 2.168779e-03 2.334253e-03 2.285272e-03 2.209592e-03 2.390091e-03 2.171061e-03 2.330380e-03 2.286996e-03 2.202463e-03 2.407475e-03 2.130651e-03 2.380871e-03 2.234932e-03 2.251561e-03 2.362022e-03 2.155805e-03 2.369101e-03 2.240573e-03 2.242787e-03 2.368302e-03 2.130802e-03 2.408065e-03 2.186953e-03 2.290275e-03 2.310541e-03 2.168367e-03 2.379847e-03 2.184542e-03 2.277141e-03 2.301033e-03 2.148131e-03 2.392031e-03 2.114979e-03 2.309034e-03 2.224790e-03 2.166756e-03 2.324981e-03 2.092681e-03 2.258699e-03 2.188689e-03 2.099402e-03 2.285324e-03 1.992276e-03 2.225417e-03 2.068499e-03 2.042693e-03 2.150818e-03 1.909644e-03 2.093905e-03 1.974894e-03 1.968255e-03 2.039082e-03 1.414574e-03 1.046497e-03 6.741246e-04 3.397019e-04 -1.291555e-04 
-7.625510e-04 -1.361977e-03 -2.440123e-03 -3.925008e-03 -6.345356e-03 -1.101229e-02 -1.156426e-02 -7.746098e-03 -1.341071e-02 -7.595590e-03 -1.127393e-02 -1.157557e-02 -4.450142e-03 -9.020098e-03 -5.305448e-03 -1.112133e-03 -6.020825e-03 -2.959147e-03 -2.214308e-03 -7.615236e-03 -2.450821e-03 -6.222704e-03 -1.200410e-02 -6.574413e-03 -1.086639e-02 -8.540373e-03 -5.994066e-03 -9.560925e-03 -4.007151e-03 -7.094006e-03 -4.170626e-03 -3.910081e-03 -4.339638e-03 -2.062070e-03 -3.043053e-03 -1.682266e-03 -1.484347e-03 -1.556581e-03 -4.160249e-04 -9.465102e-04 -1.281246e-04 -2.139922e-04 -2.776870e-05 3.389736e-04 2.056371e-04 5.297324e-04 5.073426e-04 6.082075e-04 7.530073e-04 6.974797e-04 8.576167e-04 8.152703e-04 9.060111e-04 9.165231e-04 9.359698e-04 9.747823e-04 9.704257e-04 1.006432e-03 9.999426e-04 1.017744e-03 1.031968e-03 1.021919e-03 1.068702e-03 1.043016e-03 1.051406e-03 1.041034e-03 1.068364e-03 1.064532e-03 1.052186e-03 1.075747e-03 1.061113e-03 1.069487e-03 1.083006e-03 1.059438e-03 1.098385e-03 1.061606e-03 1.090706e-03 1.078685e-03 1.075441e-03 1.093875e-03 1.070374e-03 1.088591e-03 1.084183e-03 1.072143e-03 1.099869e-03 1.061764e-03 1.098459e-03 1.070802e-03 1.080354e-03 1.084411e-03 1.063652e-03 1.085833e-03 1.069392e-03 1.070639e-03 1.096679e-03 1.064428e-03 1.076982e-03 1.063471e-03 1.092085e-03 1.075343e-03 1.066001e-03 1.087166e-03 1.066572e-03 1.079992e-03 1.085936e-03 1.066481e-03 1.102062e-03 1.063429e-03 1.096115e-03 1.078386e-03 1.079712e-03 1.094223e-03 1.070888e-03 1.092161e-03 1.082303e-03 1.075671e-03 1.098372e-03 1.062536e-03 1.100896e-03 1.068590e-03 1.083485e-03 1.082272e-03 1.065120e-03 1.086871e-03 1.067714e-03 1.073121e-03 1.094582e-03 1.063881e-03 1.077108e-03 1.063873e-03 1.094578e-03 1.073135e-03 1.067707e-03 1.086873e-03 1.065124e-03 1.082266e-03 1.083493e-03 1.068585e-03 1.100901e-03 1.062540e-03 1.098369e-03 1.075681e-03 1.082299e-03 1.092171e-03 1.070891e-03 1.094223e-03 1.079724e-03 1.078385e-03 1.096131e-03 1.063435e-03 1.102072e-03 1.066502e-03 1.085945e-03 1.080023e-03 1.066591e-03 1.087199e-03 1.066047e-03 1.075369e-03 1.092155e-03 1.063548e-03 1.077061e-03 1.064493e-03 1.096771e-03 1.070798e-03 1.069517e-03 1.086045e-03 1.063870e-03 1.084666e-03 1.080718e-03 1.071137e-03 1.098994e-03 1.062291e-03 1.100530e-03 1.073037e-03 1.085022e-03 1.089944e-03 1.071613e-03 1.095603e-03 1.077584e-03 1.080824e-03 1.094028e-03 1.064626e-03 1.102753e-03 1.064661e-03 1.088307e-03 1.077737e-03 1.068365e-03 1.086938e-03 1.064656e-03 1.077486e-03 1.089616e-03 1.063490e-03 1.077029e-03 1.065319e-03 1.098854e-03 1.068305e-03 1.071644e-03 1.084635e-03 1.063172e-03 1.087166e-03 1.077973e-03 1.074039e-03 1.096853e-03 1.062927e-03 1.102241e-03 1.070910e-03 1.087591e-03 1.087960e-03 1.072720e-03 1.096572e-03 1.075721e-03 1.083375e-03 1.091935e-03 1.066962e-03 1.103356e-03 1.065296e-03 1.092605e-03 1.079941e-03 1.075221e-03 1.092946e-03 1.068394e-03 1.085468e-03 1.079722e-03 1.067499e-03 1.092359e-03 1.054911e-03 1.088740e-03 1.059894e-03 1.070309e-03 1.069136e-03 1.051279e-03 1.069406e-03 1.043896e-03 1.051780e-03 1.044108e-03 1.026728e-03 1.044523e-03 9.998273e-04 1.029592e-03 9.842810e-04 9.976281e-04 9.831607e-04 9.392020e-04 9.811886e-04 8.958375e-04 9.490324e-04 8.874611e-04 8.580611e-04 9.008745e-04 8.050981e-04 9.206202e-04 9.422636e-04 6.385310e-04 4.737088e-04 1.114488e-04 -1.767503e-04 
1.553382e-04 -2.210441e-04 -6.638648e-04 -1.306296e-03 -1.966716e-03 -3.281888e-03 -1.987937e-03 -5.751806e-04 -2.460246e-03 8.816037e-04 -8.040617e-06 3.851602e-03 6.754120e-03 5.062169e-03 1.177269e-02 4.589354e-03 1.206854e-02 7.295769e-03 8.381249e-03 1.084347e-02 -1.625371e-04 1.139610e-02 3.127462e-03 2.072300e-03 -6.578668e-04 -1.036476e-03 1.821822e-04 -1.860314e-03 -1.957693e-05 -1.223007e-03 -6.747364e-04 -5.476956e-04 -1.004644e-03 -3.950837e-04 -8.120727e-04 -5.199652e-04 -6.238960e-04 -5.885536e-04 -4.725526e-04 -6.210889e-04 -3.706071e-04 -6.733976e-04 -2.864091e-04 -5.930065e-04 -4.101490e-04 -3.892897e-04 -5.910123e-04 -2.102339e-04 -6.105542e-04 -3.341613e-04 -3.809645e-04 -5.670997e-04 -1.535664e-04 -6.752793e-04 -2.298723e-04 -4.656752e-04 -4.869308e-04 -2.315155e-04 -6.950302e-04 -2.412295e-04 -5.549605e-04 -5.134216e-04 -1.008872e-04 -6.047864e-04 -3.672109e-04 -5.951359e-04 -2.458413e-04 -3.430141e-04 -6.842920e-04 -1.772829e-04 -6.157065e-04 -3.627332e-04 -3.178125e-04 -6.170650e-04 -9.616725e-05 -6.465215e-04 -2.590832e-04 -3.823186e-04 -5.330369e-04 -1.390696e-04 -6.411187e-04 -2.400660e-04 -4.065734e-04 -5.084084e-04 -1.505680e-04 -6.852992e-04 -1.658880e-04 -5.037936e-04 -4.334784e-04 -2.560857e-04 -6.862146e-04 -1.985474e-04 -5.928242e-04 -4.628364e-04 -1.285704e-04 -6.117341e-04 -3.590110e-04 -6.050484e-04 -2.010007e-04 -3.802004e-04 -6.578638e-04 -1.721353e-04 -6.445320e-04 -3.266611e-04 -3.528475e-04 -5.839643e-04 -1.075080e-04 -6.671306e-04 -2.243062e-04 -4.212446e-04 -4.937710e-04 -1.657637e-04 -6.521151e-04 -2.033287e-04 -4.500203e-04 -4.642655e-04 -1.885176e-04 -6.811838e-04 -1.306366e-04 -5.465253e-04 -3.911586e-04 -2.920101e-04 -6.684053e-04 -1.799451e-04 -6.275030e-04 -4.204862e-04 -1.632499e-04 -6.109132e-04 -3.565572e-04 -6.109173e-04 -1.632575e-04 -4.204529e-04 -6.275274e-04 -1.799413e-04 -6.683940e-04 -2.920319e-04 -3.911354e-04 -5.465476e-04 -1.306208e-04 -6.811775e-04 -1.885369e-04 -4.642406e-04 -4.500439e-04 -2.033074e-04 -6.521182e-04 -1.657798e-04 -4.937468e-04 -4.212672e-04 -2.242842e-04 -6.671409e-04 -1.075143e-04 -5.839419e-04 -3.528663e-04 -3.266338e-04 -6.445445e-04 -1.721246e-04 -6.578371e-04 -3.802262e-04 -2.009765e-04 -6.050418e-04 -3.590034e-04 -6.117435e-04 -1.285562e-04 -4.627794e-04 -5.928383e-04 -1.984886e-04 -6.861939e-04 -2.560521e-04 -4.334036e-04 -5.037796e-04 -1.657527e-04 -6.852739e-04 -1.504399e-04 -5.082775e-04 -4.064919e-04 -2.397782e-04 -6.410849e-04 -1.386905e-04 -5.328115e-04 -3.820447e-04 -2.584677e-04 -6.464326e-04 -9.519257e-05 -6.166419e-04 -3.170462e-04 -3.613808e-04 -6.154429e-04 -1.748887e-04 -6.834506e-04 -3.413057e-04 -2.422039e-04 -5.942918e-04 -3.664063e-04 -6.072501e-04 -9.615921e-05 -5.082093e-04 -5.534335e-04 -2.287829e-04 -6.952039e-04 -2.177488e-04 -4.774610e-04 -4.596091e-04 -2.029694e-04 -6.773811e-04 -1.189277e-04 -5.487483e-04 -3.655109e-04 -2.737670e-04 -6.217445e-04 -1.218319e-04 -5.658345e-04 -3.438852e-04 -2.902347e-04 -6.159417e-04 -8.800936e-05 -6.327581e-04 -2.688204e-04 -3.661866e-04 -5.444713e-04 -1.305002e-04 -6.332710e-04 -2.517380e-04 -3.895988e-04 -5.216728e-04 -1.359437e-04 -6.783883e-04 -1.753897e-04 -4.762420e-04 -4.341353e-04 -2.161095e-04 -6.461554e-04 -1.571151e-04 -5.055067e-04 -4.048751e-04 -2.378967e-04 -6.505359e-04 -1.032298e-04 -5.807562e-04 -3.240456e-04 -3.138952e-04 -5.815306e-04 -1.256385e-04 -5.831510e-04 -2.982640e-04 -3.258102e-04 -5.466734e-04 -1.095513e-04 -6.341877e-04 -2.599932e-04 -5.643288e-04 -4.960075e-04 4.668214e-04 6.670217e-04 7.357379e-04 6.250318e-04 4.300710e-04 
4.966489e-04 6.684463e-04 6.261384e-04 1.597355e-03 2.568363e-03 7.037108e-03 6.479644e-03 3.571149e-03 5.957120e-03 2.190251e-03 1.136817e-03 4.061651e-03 -1.261194e-02 -8.161194e-03 -8.908339e-03 -1.753852e-02 -8.837813e-03 -1.406948e-02 -1.499208e-02 -6.437765e-03 -1.748672e-02 -9.066571e-03 4.480982e-03 -2.524770e-03 5.229880e-03 2.124738e-03 2.629314e-03 4.887584e-03 1.782600e-03 4.000318e-03 2.490965e-03 2.081817e-03 3.123266e-03 1.055834e-03 2.354232e-03 1.209981e-03 1.256384e-03 1.479062e-03 5.934368e-04 1.126580e-03 6.537866e-04 5.729189e-04 8.092955e-04 2.474611e-04 6.265384e-04 3.427190e-04 3.008912e-04 4.881715e-04 1.189310e-04 3.907253e-04 2.293671e-04 1.684681e-04 3.750083e-04 3.455285e-05 3.262039e-04 1.413274e-04 1.410700e-04 2.827875e-04 -9.279911e-06 2.780166e-04 6.363268e-05 1.087139e-04 3.265507e-04 3.468004e-05 1.803377e-04 5.052084e-05 2.434670e-04 1.926149e-04 -1.635949e-05 2.904487e-04 1.938600e-05 1.811750e-04 1.962891e-04 2.898569e-05 3.274364e-04 1.104414e-05 2.325630e-04 1.679383e-04 6.905654e-05 3.115362e-04 5.110083e-06 2.525102e-04 1.435276e-04 9.229274e-05 2.948001e-04 -1.234737e-05 2.851258e-04 9.389571e-05 1.256009e-04 2.405413e-04 -2.372413e-05 2.735496e-04 3.255272e-05 1.191350e-04 3.018174e-04 2.906178e-05 1.746109e-04 3.430862e-05 2.591840e-04 1.675505e-04 -5.529732e-06 2.889345e-04 8.234928e-07 1.990686e-04 1.739324e-04 4.658228e-05 3.191019e-04 -1.697051e-06 2.515730e-04 1.440962e-04 9.136738e-05 2.953762e-04 -1.740309e-06 2.734604e-04 1.173137e-04 1.182571e-04 2.724904e-04 -1.005099e-05 3.055374e-04 6.855872e-05 1.509366e-04 2.194387e-04 -1.320917e-05 2.843435e-04 1.223980e-05 1.439843e-04 2.814081e-04 3.021779e-05 1.760764e-04 3.020992e-05 2.814050e-04 1.440053e-04 1.222499e-05 2.843453e-04 -1.320371e-05 2.194259e-04 1.509481e-04 6.854621e-05 3.055458e-04 -1.004784e-05 2.724790e-04 1.182695e-04 1.173007e-04 2.734712e-04 -1.742877e-06 2.953658e-04 9.137857e-05 1.440832e-04 2.515819e-04 -1.704367e-06 3.190946e-04 4.659012e-05 1.739198e-04 1.990752e-04 8.129573e-07 2.889299e-04 -5.526433e-06 1.675251e-04 2.591680e-04 3.429088e-05 1.745881e-04 2.904586e-05 3.018104e-04 1.191185e-04 3.252433e-05 2.735101e-04 -2.376871e-05 2.404955e-04 1.255151e-04 9.384667e-05 2.850000e-04 -1.245172e-05 2.946761e-04 9.206025e-05 1.434042e-04 2.521488e-04 4.858543e-06 3.111948e-04 6.841956e-05 1.676322e-04 2.315301e-04 1.048848e-05 3.263570e-04 2.741420e-05 1.953190e-04 1.784764e-04 1.784824e-05 2.873051e-04 -2.057786e-05 1.901329e-04 2.348072e-04 4.115003e-05 1.701132e-04 3.097377e-05 3.208643e-04 9.227353e-05 5.570635e-05 2.558452e-04 -2.914207e-05 2.628617e-04 9.915546e-05 1.202831e-04 2.632184e-04 -7.634262e-06 3.130807e-04 6.829000e-05 1.681496e-04 2.323918e-04 1.654159e-05 3.214839e-04 4.950884e-05 1.912288e-04 2.136942e-04 2.969526e-05 3.323571e-04 2.030779e-05 2.264431e-04 1.791484e-04 6.241389e-05 3.182328e-04 1.137240e-05 2.471275e-04 1.572673e-04 8.630525e-05 3.087409e-04 -3.795505e-06 2.850831e-04 1.198961e-04 1.306076e-04 2.790680e-04 8.352647e-06 3.125797e-04 1.015886e-04 1.630728e-04 2.711445e-04 2.055511e-05 3.478155e-04 8.356369e-05 2.057542e-04 2.625287e-04 4.962743e-05 3.673533e-04 8.253350e-05 2.299011e-04 2.579388e-04 5.701205e-05 3.495278e-04 3.428772e-05 1.497194e-04 5.437947e-05 -1.686391e-04 3.671153e-04 5.735957e-04 7.298069e-04 6.393921e-04 6.741661e-04 
1.312643e-03 1.483741e-03 1.608683e-03 2.429266e-03 3.201671e-03 6.366471e-03 4.933751e-03 2.372742e-03 4.528775e-03 6.392820e-04 -3.877415e-05 9.818035e-04 -1.064996e-02 1.182004e-03 -6.980171e-04 -3.714604e-04 5.484624e-04 3.590048e-05 -4.362801e-04 -5.554472e-06 3.974636e-04 -1.247095e-02 1.824253e-03 -3.516449e-03 3.477899e-03 1.464009e-03 1.471742e-03 4.013861e-03 1.413550e-03 3.496976e-03 2.533810e-03 2.283080e-03 3.345527e-03 1.844343e-03 2.986463e-03 2.195164e-03 2.405327e-03 2.532642e-03 2.064082e-03 2.469772e-03 2.133640e-03 2.282349e-03 2.244792e-03 2.119333e-03 2.285454e-03 2.095923e-03 2.267470e-03 2.102505e-03 2.215859e-03 2.161010e-03 2.156475e-03 2.209936e-03 2.110798e-03 2.223262e-03 2.148008e-03 2.158412e-03 2.219101e-03 2.094781e-03 2.278004e-03 2.104420e-03 2.235948e-03 2.194054e-03 2.085771e-03 2.214792e-03 2.194863e-03 2.222382e-03 2.138841e-03 2.138057e-03 2.288264e-03 2.084597e-03 2.262389e-03 2.146768e-03 2.171364e-03 2.228430e-03 2.102456e-03 2.240055e-03 2.157809e-03 2.158081e-03 2.243342e-03 2.081027e-03 2.278739e-03 2.114649e-03 2.203600e-03 2.197021e-03 2.122538e-03 2.253209e-03 2.126073e-03 2.192488e-03 2.207345e-03 2.113632e-03 2.286973e-03 2.092923e-03 2.259637e-03 2.180754e-03 2.101346e-03 2.226700e-03 2.194634e-03 2.226322e-03 2.124352e-03 2.153544e-03 2.281164e-03 2.083980e-03 2.273838e-03 2.136173e-03 2.183310e-03 2.218390e-03 2.106751e-03 2.247664e-03 2.146933e-03 2.170464e-03 2.230868e-03 2.090307e-03 2.282480e-03 2.102837e-03 2.217063e-03 2.183416e-03 2.135324e-03 2.252038e-03 2.114445e-03 2.206168e-03 2.194823e-03 2.125193e-03 2.281549e-03 2.086637e-03 2.271182e-03 2.166920e-03 2.112406e-03 2.227393e-03 2.193905e-03 2.227395e-03 2.112412e-03 2.166906e-03 2.271192e-03 2.086634e-03 2.281543e-03 2.125204e-03 2.194811e-03 2.206180e-03 2.114438e-03 2.252036e-03 2.135334e-03 2.183404e-03 2.217076e-03 2.102828e-03 2.282483e-03 2.090316e-03 2.230857e-03 2.170479e-03 2.146924e-03 2.247673e-03 2.106757e-03 2.218383e-03 2.183326e-03 2.136164e-03 2.273853e-03 2.083984e-03 2.281161e-03 2.153569e-03 2.124346e-03 2.226331e-03 2.194648e-03 2.226739e-03 2.101381e-03 2.180758e-03 2.259698e-03 2.092939e-03 2.287027e-03 2.113699e-03 2.207379e-03 2.192614e-03 2.126103e-03 2.253361e-03 2.122658e-03 2.197125e-03 2.203865e-03 2.114714e-03 2.279122e-03 2.081237e-03 2.243608e-03 2.158649e-03 2.157918e-03 2.240977e-03 2.102749e-03 2.229088e-03 2.172473e-03 2.146917e-03 2.264358e-03 2.084810e-03 2.289534e-03 2.140406e-03 2.137439e-03 2.223583e-03 2.197013e-03 2.224236e-03 2.091172e-03 2.195442e-03 2.246883e-03 2.103250e-03 2.289733e-03 2.101287e-03 2.220844e-03 2.179278e-03 2.138351e-03 2.251214e-03 2.112227e-03 2.210498e-03 2.191818e-03 2.126121e-03 2.273460e-03 2.076498e-03 2.255369e-03 2.148585e-03 2.169614e-03 2.233883e-03 2.103695e-03 2.239561e-03 2.162752e-03 2.155783e-03 2.248148e-03 2.079913e-03 2.277464e-03 2.119429e-03 2.200341e-03 2.202227e-03 2.120428e-03 2.253565e-03 2.132408e-03 2.189909e-03 2.211246e-03 2.110538e-03 2.279559e-03 2.088653e-03 2.237679e-03 2.163063e-03 2.157984e-03 2.239454e-03 2.108728e-03 2.224225e-03 2.167829e-03 2.145872e-03 2.239150e-03 2.071486e-03 2.246731e-03 2.092563e-03 2.160248e-03 2.131812e-03 2.042171e-03 2.139268e-03 1.989420e-03 2.067465e-03 1.920554e-03 1.477985e-03 1.436415e-03 1.371176e-03 1.338065e-03 1.334750e-03 
1.483606e-03 1.764206e-03 1.878918e-03 2.529817e-03 2.803457e-03 3.849784e-03 3.299329e-03 2.080389e-03 2.995279e-03 7.991289e-04 1.045037e-03 1.733117e-05 5.929108e-04 2.808095e-03 1.842913e-03 2.560155e-03 2.342442e-03 2.362774e-03 2.426341e-03 1.849636e-03 2.718029e-03 2.002903e-04 -4.675717e-05 -3.635722e-04 1.702939e-03 1.420041e-03 1.398668e-03 2.705344e-03 1.599398e-03 2.675638e-03 2.218693e-03 2.189331e-03 2.638951e-03 1.972084e-03 2.533669e-03 2.082872e-03 2.266533e-03 2.214205e-03 2.071616e-03 2.212543e-03 2.035714e-03 2.145027e-03 2.048006e-03 2.056078e-03 2.085645e-03 1.994162e-03 2.107079e-03 1.961381e-03 2.085198e-03 2.006537e-03 2.015259e-03 2.066058e-03 1.956579e-03 2.088523e-03 1.983669e-03 2.025245e-03 2.054563e-03 1.960030e-03 2.111462e-03 1.965179e-03 2.070534e-03 2.046718e-03 1.936517e-03 2.074480e-03 2.029523e-03 2.074713e-03 1.981934e-03 1.997341e-03 2.113744e-03 1.948125e-03 2.092634e-03 2.004294e-03 2.008122e-03 2.079633e-03 1.944867e-03 2.089873e-03 1.994359e-03 2.014110e-03 2.073739e-03 1.943561e-03 2.105772e-03 1.973664e-03 2.037060e-03 2.050336e-03 1.962421e-03 2.101498e-03 1.965848e-03 2.046682e-03 2.041395e-03 1.973803e-03 2.113932e-03 1.955410e-03 2.087137e-03 2.034366e-03 1.948246e-03 2.080371e-03 2.028784e-03 2.079064e-03 1.969294e-03 2.009885e-03 2.106584e-03 1.947412e-03 2.101989e-03 1.994374e-03 2.018739e-03 2.070276e-03 1.948566e-03 2.096369e-03 1.984363e-03 2.025504e-03 2.062286e-03 1.951757e-03 2.109059e-03 1.962959e-03 2.049567e-03 2.037685e-03 1.973829e-03 2.100379e-03 1.955436e-03 2.059192e-03 2.029557e-03 1.984309e-03 2.108944e-03 1.949797e-03 2.097550e-03 2.021880e-03 1.958358e-03 2.080495e-03 2.028101e-03 2.080507e-03 1.958362e-03 2.021865e-03 2.097561e-03 1.949796e-03 2.108940e-03 1.984319e-03 2.029549e-03 2.059201e-03 1.955430e-03 2.100377e-03 1.973838e-03 2.037676e-03 2.049576e-03 1.962951e-03 2.109061e-03 1.951764e-03 2.062278e-03 2.025513e-03 1.984355e-03 2.096375e-03 1.948570e-03 2.070269e-03 2.018749e-03 1.994366e-03 2.101999e-03 1.947412e-03 2.106577e-03 2.009906e-03 1.969290e-03 2.079060e-03 2.028794e-03 2.080402e-03 1.948263e-03 2.034362e-03 2.087174e-03 1.955420e-03 2.113960e-03 1.973843e-03 2.041411e-03 2.046751e-03 1.965862e-03 2.101577e-03 1.962484e-03 2.050390e-03 2.037194e-03 1.973702e-03 2.105959e-03 1.943669e-03 2.073865e-03 2.014394e-03 1.994401e-03 2.090315e-03 1.944976e-03 2.079944e-03 2.008598e-03 2.004328e-03 2.093453e-03 1.948141e-03 2.114173e-03 1.998188e-03 1.981266e-03 2.076126e-03 2.030975e-03 2.078657e-03 1.938894e-03 2.047704e-03 2.075519e-03 1.964623e-03 2.116469e-03 1.962678e-03 2.054002e-03 2.034310e-03 1.976927e-03 2.099594e-03 1.953214e-03 2.062627e-03 2.025875e-03 1.984153e-03 2.100845e-03 1.939475e-03 2.084536e-03 2.004910e-03 2.005116e-03 2.083742e-03 1.945522e-03 2.088821e-03 1.998911e-03 2.011561e-03 2.078275e-03 1.942479e-03 2.104638e-03 1.978260e-03 2.033731e-03 2.055634e-03 1.960075e-03 2.102063e-03 1.971335e-03 2.043371e-03 2.045275e-03 1.968844e-03 2.107662e-03 1.950234e-03 2.067452e-03 2.020677e-03 1.990789e-03 2.091884e-03 1.947519e-03 2.073032e-03 2.005851e-03 1.994996e-03 2.074383e-03 1.929212e-03 2.070456e-03 1.959356e-03 1.980979e-03 2.004879e-03 1.877991e-03 1.999848e-03 1.855028e-03 1.930660e-03 1.847513e-03 1.525609e-03 1.421772e-03 1.407268e-03 1.375901e-03 1.475153e-03 
2.148489e-03 2.391989e-03 2.583710e-03 3.117012e-03 3.416930e-03 4.196502e-03 4.110693e-03 3.319165e-03 3.954854e-03 2.767150e-03 2.702470e-03 3.013777e-03 2.339879e-03 3.840502e-03 2.838577e-03 3.385643e-03 3.308737e-03 3.267688e-03 3.257227e-03 2.981276e-03 3.500090e-03 2.195476e-03 3.311099e-03 1.297358e-03 3.454809e-03 2.490733e-03 2.801391e-03 3.396289e-03 2.621048e-03 3.320955e-03 2.889231e-03 2.851090e-03 3.107502e-03 2.565379e-03 2.967623e-03 2.561969e-03 2.692375e-03 2.613145e-03 2.484130e-03 2.567437e-03 2.421306e-03 2.466730e-03 2.416083e-03 2.367435e-03 2.415197e-03 2.312414e-03 2.398688e-03 2.290441e-03 2.363502e-03 2.304128e-03 2.318783e-03 2.323643e-03 2.287731e-03 2.323730e-03 2.298030e-03 2.289424e-03 2.330689e-03 2.255766e-03 2.352749e-03 2.257404e-03 2.328150e-03 2.293198e-03 2.274979e-03 2.316235e-03 2.312004e-03 2.312397e-03 2.297078e-03 2.268611e-03 2.346722e-03 2.246423e-03 2.340206e-03 2.272494e-03 2.298817e-03 2.309091e-03 2.269216e-03 2.313008e-03 2.291233e-03 2.276197e-03 2.330822e-03 2.242726e-03 2.345223e-03 2.255972e-03 2.312854e-03 2.294686e-03 2.276258e-03 2.318305e-03 2.277948e-03 2.293521e-03 2.315885e-03 2.257037e-03 2.349493e-03 2.248858e-03 2.333781e-03 2.284415e-03 2.279396e-03 2.316498e-03 2.309987e-03 2.314100e-03 2.289707e-03 2.273349e-03 2.342584e-03 2.245442e-03 2.343951e-03 2.266946e-03 2.303979e-03 2.304536e-03 2.270547e-03 2.315813e-03 2.286194e-03 2.282023e-03 2.325410e-03 2.246120e-03 2.346751e-03 2.250959e-03 2.319252e-03 2.288373e-03 2.281244e-03 2.317745e-03 2.273452e-03 2.299477e-03 2.309621e-03 2.262038e-03 2.347097e-03 2.246471e-03 2.338491e-03 2.278704e-03 2.284372e-03 2.315635e-03 2.309629e-03 2.315640e-03 2.284371e-03 2.278707e-03 2.338491e-03 2.246472e-03 2.347098e-03 2.262037e-03 2.309623e-03 2.299475e-03 2.273452e-03 2.317746e-03 2.281243e-03 2.288374e-03 2.319250e-03 2.250959e-03 2.346751e-03 2.246120e-03 2.325412e-03 2.282021e-03 2.286195e-03 2.315812e-03 2.270547e-03 2.304537e-03 2.303978e-03 2.266947e-03 2.343950e-03 2.245440e-03 2.342583e-03 2.273346e-03 2.289705e-03 2.314096e-03 2.309988e-03 2.316508e-03 2.279400e-03 2.284417e-03 2.333789e-03 2.248856e-03 2.349498e-03 2.257040e-03 2.315879e-03 2.293534e-03 2.277931e-03 2.318316e-03 2.276255e-03 2.294665e-03 2.312876e-03 2.255917e-03 2.345243e-03 2.242688e-03 2.330754e-03 2.276223e-03 2.291051e-03 2.313039e-03 2.269020e-03 2.308894e-03 2.298751e-03 2.271956e-03 2.340139e-03 2.245742e-03 2.346066e-03 2.268241e-03 2.295487e-03 2.311889e-03 2.311099e-03 2.316719e-03 2.274722e-03 2.290667e-03 2.328390e-03 2.252802e-03 2.350765e-03 2.252028e-03 2.322302e-03 2.287262e-03 2.282952e-03 2.317398e-03 2.272355e-03 2.300469e-03 2.307018e-03 2.261041e-03 2.342978e-03 2.241092e-03 2.335721e-03 2.271441e-03 2.296495e-03 2.310085e-03 2.269289e-03 2.312447e-03 2.293462e-03 2.275079e-03 2.333094e-03 2.242715e-03 2.345156e-03 2.258587e-03 2.311789e-03 2.297713e-03 2.276200e-03 2.319272e-03 2.281097e-03 2.292691e-03 2.318279e-03 2.255655e-03 2.347971e-03 2.247501e-03 2.330936e-03 2.281423e-03 2.293210e-03 2.316151e-03 2.273458e-03 2.309594e-03 2.299430e-03 2.271575e-03 2.332659e-03 2.238672e-03 2.331932e-03 2.245744e-03 2.286465e-03 2.262851e-03 2.227072e-03 2.252734e-03 2.188169e-03 2.180136e-03 2.133041e-03 1.976746e-03 1.970308e-03 1.938210e-03 1.978189e-03 2.054014e-03 