# vtk DataFile Version 2.0
Comment goes here
ASCII

DATASET STRUCTURED_POINTS
FIELD FieldData 1
TIME 1 1 double
0.03800000
DIMENSIONS    256   32   1

ORIGIN    0.000   0.000   0.000
SPACING   0.0078125 0.0078125   1.000

POINT_DATA   8192
SCALARS uX double
LOOKUP_TABLE default

-1.169781e-02 -2.871204e-02 -5.476465e-02 -8.759327e-02 -1.331370e-01 -1.806096e-01 -2.158470e-01 -1.907183e-01 -2.312035e-01 -2.049751e-01 -2.403557e-01 -2.739983e-01 -2.703028e-01 -3.663151e-01 -4.095106e-01 -3.177035e-01 -4.199817e-01 -3.857242e-01 -3.658463e-01 -4.661253e-01 -2.698090e-01 -2.935151e-01 -3.297640e-01 -1.419369e-01 -2.592253e-01 -1.569408e-01 -1.502890e-01 -2.227696e-01 -8.241088e-02 -2.186037e-01 -9.912891e-02 -1.432601e-01 -1.617400e-01 -6.725412e-02 -1.751225e-01 -6.914541e-02 -1.248754e-01 -1.198224e-01 -4.962185e-02 -1.415946e-01 -4.193559e-02 -1.074507e-01 -8.121558e-02 -3.832408e-02 -1.083774e-01 -2.307283e-02 -8.708276e-02 -5.117599e-02 -2.832588e-02 -8.037506e-02 -8.023585e-03 -6.893548e-02 -2.619871e-02 -2.221889e-02 -5.512983e-02 2.148721e-03 -5.160027e-02 -7.637786e-03 -1.791389e-02 -3.421231e-02 1.068915e-02 -3.665876e-02 7.548680e-03 -1.004683e-02 -1.418273e-02 1.461225e-02 -2.255001e-02 1.727899e-02 -6.120049e-03 -6.199462e-04 2.105406e-02 -9.865741e-03 2.532976e-02 8.525697e-04 1.233322e-02 2.490081e-02 1.890407e-03 3.136802e-02 8.465449e-03 2.229233e-02 2.811647e-02 1.140903e-02 3.621268e-02 1.466667e-02 3.067760e-02 2.965912e-02 2.022554e-02 3.952015e-02 2.101854e-02 3.677495e-02 3.198951e-02 2.746890e-02 4.318760e-02 2.653792e-02 4.235930e-02 3.602600e-02 3.520878e-02 4.477792e-02 3.179810e-02 4.506631e-02 3.753986e-02 3.862442e-02 4.655085e-02 3.559730e-02 4.759752e-02 3.954437e-02 4.292779e-02 4.757694e-02 3.960594e-02 4.944345e-02 4.230101e-02 4.613345e-02 4.897587e-02 4.257108e-02 5.164843e-02 4.426799e-02 4.945226e-02 4.955353e-02 4.572700e-02 5.303775e-02 4.662186e-02 5.155063e-02 5.096845e-02 4.796614e-02 5.495287e-02 4.835636e-02 5.393215e-02 5.283017e-02 5.143457e-02 5.578974e-02 5.032850e-02 5.463936e-02 5.304141e-02 5.154393e-02 5.606896e-02 5.086203e-02 5.552972e-02 5.299166e-02 5.309792e-02 5.611755e-02 5.205157e-02 5.613959e-02 5.377449e-02 5.415649e-02 5.670661e-02 5.251414e-02 5.736119e-02 5.389649e-02 5.569338e-02 5.667431e-02 5.368810e-02 5.797888e-02 5.478925e-02 5.663975e-02 5.750676e-02 5.457692e-02 5.955446e-02 5.544134e-02 5.843159e-02 5.857809e-02 5.705771e-02 6.027064e-02 5.621137e-02 5.863689e-02 5.806314e-02 5.607923e-02 5.969968e-02 5.534471e-02 5.871591e-02 5.666260e-02 5.642220e-02 5.863640e-02 5.496854e-02 5.823924e-02 5.604883e-02 5.614050e-02 5.813540e-02 5.416676e-02 5.839277e-02 5.512089e-02 5.655935e-02 5.728622e-02 5.444948e-02 5.816775e-02 5.532090e-02 5.667672e-02 5.758006e-02 5.471447e-02 5.914972e-02 5.552560e-02 5.791492e-02 5.833617e-02 5.671896e-02 5.962908e-02 5.611647e-02 5.778133e-02 5.784352e-02 5.555459e-02 5.898458e-02 5.511727e-02 5.770818e-02 5.656147e-02 5.570385e-02 5.804360e-02 5.469182e-02 5.716305e-02 5.607452e-02 5.513728e-02 5.766043e-02 5.372112e-02 5.713822e-02 5.505799e-02 5.513885e-02 5.674676e-02 5.357572e-02 5.659894e-02 5.490927e-02 5.463803e-02 5.669644e-02 5.308943e-02 5.694157e-02 5.438062e-02 5.508968e-02 5.632601e-02 5.360519e-02 5.698693e-02 5.465497e-02 5.525003e-02 5.677307e-02 5.381562e-02 5.788074e-02 5.437620e-02 5.628273e-02 5.668018e-02 5.471327e-02 5.808334e-02 5.474753e-02 5.674951e-02 5.705696e-02 5.499940e-02 5.860381e-02 5.451714e-02 5.758448e-02 5.662061e-02 5.562773e-02 5.819234e-02 5.424123e-02 5.726208e-02 5.610473e-02 5.709458e-02 5.602677e-02 4.257477e-02 3.120856e-02 2.220083e-02 1.238673e-02 2.722325e-03 
-1.998196e-03 -1.983786e-02 -4.182823e-02 -7.736701e-02 -1.211727e-01 -1.801633e-01 -2.038312e-01 -1.830175e-01 -2.183725e-01 -2.054533e-01 -2.368997e-01 -3.045937e-01 -2.739547e-01 -4.544768e-01 -4.927074e-01 -4.128114e-01 -5.170268e-01 -4.669550e-01 -4.503509e-01 -5.142984e-01 -3.340905e-01 -2.848013e-01 -3.604429e-01 -1.194154e-01 -2.711293e-01 -1.313979e-01 -1.446686e-01 -2.103573e-01 -6.762166e-02 -2.083366e-01 -8.417435e-02 -1.306307e-01 -1.559183e-01 -4.958824e-02 -1.702117e-01 -5.411382e-02 -1.179291e-01 -1.130604e-01 -3.569620e-02 -1.377083e-01 -2.959324e-02 -1.027056e-01 -7.450146e-02 -2.706140e-02 -1.052442e-01 -1.295935e-02 -8.334948e-02 -4.499627e-02 -1.893327e-02 -7.843505e-02 1.055285e-03 -6.667658e-02 -1.955725e-02 -1.568702e-02 -5.282829e-02 9.342118e-03 -4.910995e-02 -2.007351e-03 -1.291253e-02 -3.265386e-02 1.764192e-02 -3.613504e-02 1.323098e-02 -4.700855e-03 -1.117564e-02 1.770005e-02 -2.132179e-02 2.227573e-02 -3.476699e-03 1.348126e-03 2.619702e-02 -8.971989e-03 2.987283e-02 2.082464e-03 1.518961e-02 2.855481e-02 3.322440e-03 3.468367e-02 1.007125e-02 2.449561e-02 3.161881e-02 1.205759e-02 3.980537e-02 1.540745e-02 3.357888e-02 3.158248e-02 2.156625e-02 4.202995e-02 2.226255e-02 3.876500e-02 3.377456e-02 2.806273e-02 4.607941e-02 2.654518e-02 4.474859e-02 3.772626e-02 3.688355e-02 4.578926e-02 3.256970e-02 4.669072e-02 3.881809e-02 3.941048e-02 4.864027e-02 3.594042e-02 4.959743e-02 3.993547e-02 4.454322e-02 4.872215e-02 4.066349e-02 5.061106e-02 4.333714e-02 4.706201e-02 5.050842e-02 4.291178e-02 5.340339e-02 4.454555e-02 5.106006e-02 5.005029e-02 4.677579e-02 5.396315e-02 4.748293e-02 5.233825e-02 5.189277e-02 4.824269e-02 5.641619e-02 4.821043e-02 5.516644e-02 5.341823e-02 5.262146e-02 5.605083e-02 5.101612e-02 5.517199e-02 5.393196e-02 5.190748e-02 5.716018e-02 5.105878e-02 5.670443e-02 5.314822e-02 5.425929e-02 5.646032e-02 5.299462e-02 5.660327e-02 5.464229e-02 5.462616e-02 5.764579e-02 5.275939e-02 5.850767e-02 5.402359e-02 5.685478e-02 5.679479e-02 5.463986e-02 5.835295e-02 5.554496e-02 5.702281e-02 5.818131e-02 5.476538e-02 6.055766e-02 5.530479e-02 5.931572e-02 5.876133e-02 5.815287e-02 6.035984e-02 5.681041e-02 5.882382e-02 5.883724e-02 5.630981e-02 6.049286e-02 5.549079e-02 5.966146e-02 5.674175e-02 5.746385e-02 5.875986e-02 5.588448e-02 5.853295e-02 5.686506e-02 5.650176e-02 5.894524e-02 5.440222e-02 5.940201e-02 5.522667e-02 5.762281e-02 5.734689e-02 5.540204e-02 5.842401e-02 5.609026e-02 5.697455e-02 5.825488e-02 5.491034e-02 6.004197e-02 5.542821e-02 5.874282e-02 5.850724e-02 5.774314e-02 5.970299e-02 5.680909e-02 5.787489e-02 5.869271e-02 5.572898e-02 5.974699e-02 5.533861e-02 5.855748e-02 5.674313e-02 5.666877e-02 5.817741e-02 5.568217e-02 5.735688e-02 5.700748e-02 5.540890e-02 5.854420e-02 5.401994e-02 5.805400e-02 5.531362e-02 5.611600e-02 5.696821e-02 5.459066e-02 5.680976e-02 5.590792e-02 5.488508e-02 5.766087e-02 5.338702e-02 5.785096e-02 5.469675e-02 5.602172e-02 5.661473e-02 5.459109e-02 5.718592e-02 5.570150e-02 5.543828e-02 5.779443e-02 5.406712e-02 5.882355e-02 5.472917e-02 5.716534e-02 5.701653e-02 5.567433e-02 5.834415e-02 5.584055e-02 5.690595e-02 5.816840e-02 5.523870e-02 5.966684e-02 5.489833e-02 5.856577e-02 5.704969e-02 5.676980e-02 5.861078e-02 5.565077e-02 5.764448e-02 5.785299e-02 5.812744e-02 5.926486e-02 4.578902e-02 3.633578e-02 2.693612e-02 1.957257e-02 9.260756e-03 
-2.161896e-03 -1.480500e-02 -3.609272e-02 -6.526284e-02 -1.115421e-01 -1.720200e-01 -1.776946e-01 -1.307408e-01 -1.743325e-01 -1.137028e-01 -1.404789e-01 -1.116633e-01 -1.552636e-02 -3.241075e-02 -7.458517e-03 9.895995e-02 4.663312e-02 5.959764e-02 1.157717e-01 -4.454642e-02 5.174925e-02 -1.406566e-02 -1.700556e-01 -3.028507e-02 -2.080984e-01 -8.903070e-02 -9.037526e-02 -1.970974e-01 -2.199271e-02 -2.009116e-01 -5.202428e-02 -1.143739e-01 -1.483475e-01 -2.192379e-02 -1.688458e-01 -3.319567e-02 -1.135144e-01 -1.107165e-01 -1.700840e-02 -1.431996e-01 -1.612915e-02 -1.074991e-01 -7.522649e-02 -1.740763e-02 -1.160907e-01 -6.168519e-03 -9.521861e-02 -4.800442e-02 -1.842146e-02 -9.248276e-02 1.205363e-03 -8.231453e-02 -2.569948e-02 -2.236832e-02 -7.001892e-02 4.925671e-03 -6.848057e-02 -1.028635e-02 -2.783239e-02 -5.117488e-02 7.096531e-03 -5.959362e-02 -3.887143e-04 -2.384044e-02 -3.386126e-02 -9.233822e-04 -4.735775e-02 7.723926e-03 -2.807857e-02 -1.892427e-02 8.223441e-03 -3.377073e-02 1.185379e-02 -2.380888e-02 -6.265457e-03 7.786794e-03 -2.337558e-02 1.464963e-02 -1.829688e-02 2.717308e-03 6.851482e-03 -1.460234e-02 1.682175e-02 -1.311595e-02 1.006596e-02 4.654193e-03 -6.024551e-03 1.780012e-02 -7.627933e-03 1.458280e-02 3.558953e-03 6.111316e-04 1.835771e-02 -4.793276e-03 1.721449e-02 5.454266e-03 5.260041e-03 1.398307e-02 8.911654e-05 1.873922e-02 5.468314e-03 1.130774e-02 1.781281e-02 5.412200e-03 2.046464e-02 7.649794e-03 1.587702e-02 1.746769e-02 9.517603e-03 2.111379e-02 1.020073e-02 1.854478e-02 1.730868e-02 1.257033e-02 2.209145e-02 1.206682e-02 2.107282e-02 1.651806e-02 1.589993e-02 2.231598e-02 1.416729e-02 2.214595e-02 1.676864e-02 1.764336e-02 2.230053e-02 1.440558e-02 2.241730e-02 1.716605e-02 1.808892e-02 1.961951e-02 1.677714e-02 2.258698e-02 1.808676e-02 2.107255e-02 2.194036e-02 1.889266e-02 2.361606e-02 1.896791e-02 2.290371e-02 2.166802e-02 2.054667e-02 2.365928e-02 2.006015e-02 2.350994e-02 2.173881e-02 2.137579e-02 2.423611e-02 2.039724e-02 2.452344e-02 2.137004e-02 2.276442e-02 2.413491e-02 2.133856e-02 2.477079e-02 2.171906e-02 2.319517e-02 2.424923e-02 2.092582e-02 2.486850e-02 2.119488e-02 2.258608e-02 2.250757e-02 2.209088e-02 2.458243e-02 2.219796e-02 2.454729e-02 2.387560e-02 2.293175e-02 2.535137e-02 2.207000e-02 2.523440e-02 2.298312e-02 2.324670e-02 2.465933e-02 2.200274e-02 2.468018e-02 2.250697e-02 2.290477e-02 2.444223e-02 2.150141e-02 2.475313e-02 2.175626e-02 2.343106e-02 2.370739e-02 2.196335e-02 2.427989e-02 2.190641e-02 2.323157e-02 2.339996e-02 2.132105e-02 2.381306e-02 2.117959e-02 2.208161e-02 2.171128e-02 2.241416e-02 2.315854e-02 2.253051e-02 2.357767e-02 2.299548e-02 2.320141e-02 2.372426e-02 2.262183e-02 2.395928e-02 2.249506e-02 2.345742e-02 2.295670e-02 2.272183e-02 2.310733e-02 2.243135e-02 2.278319e-02 2.261722e-02 2.219980e-02 2.272663e-02 2.189244e-02 2.269746e-02 2.172926e-02 2.251336e-02 2.179488e-02 2.231611e-02 2.209303e-02 2.179915e-02 2.244977e-02 2.173150e-02 2.241922e-02 2.225007e-02 2.167124e-02 2.317723e-02 2.132390e-02 2.335646e-02 2.193008e-02 2.258891e-02 2.331417e-02 2.178133e-02 2.371208e-02 2.236151e-02 2.298593e-02 2.391742e-02 2.180067e-02 2.451250e-02 2.228497e-02 2.384232e-02 2.381636e-02 2.243713e-02 2.456167e-02 2.273706e-02 2.401647e-02 2.412498e-02 2.271807e-02 2.472784e-02 2.306437e-02 2.599288e-02 2.813863e-02 2.439890e-02 2.112746e-02 1.495606e-02 8.721765e-03 
1.619238e-02 8.880198e-03 1.005209e-03 -1.029267e-02 -2.181190e-02 -3.998789e-02 -2.328827e-02 -4.703144e-03 -1.643346e-02 1.584115e-02 2.449237e-02 7.319349e-02 1.067706e-01 1.086944e-01 1.596011e-01 7.021843e-02 1.828034e-01 1.233127e-01 1.190617e-01 1.712508e-01 2.149254e-03 1.865954e-01 5.812360e-02 6.757944e-02 -2.414535e-02 7.620752e-03 8.979427e-03 -3.493110e-02 1.955260e-02 -4.190692e-02 4.482509e-03 -1.680784e-02 -3.148270e-02 9.411832e-03 -3.939014e-02 3.445693e-03 -2.397550e-02 -2.555043e-02 5.507909e-03 -3.743313e-02 4.380177e-03 -2.874687e-02 -1.734040e-02 -5.952772e-04 -3.238483e-02 2.163033e-03 -2.855804e-02 -1.265811e-02 -4.264575e-03 -2.908491e-02 2.051051e-03 -2.842282e-02 -7.080501e-03 -1.009336e-02 -2.354244e-02 -8.308707e-04 -2.572011e-02 -5.593966e-03 -1.446028e-02 -2.073411e-02 -3.169130e-03 -2.666665e-02 -4.808081e-03 -1.880714e-02 -1.798332e-02 -1.051686e-02 -2.358897e-02 -5.039709e-03 -1.961205e-02 -1.306318e-02 -7.139575e-03 -2.031192e-02 -4.196343e-03 -2.004754e-02 -9.076261e-03 -1.028434e-02 -1.705936e-02 -6.125113e-03 -1.848493e-02 -8.299235e-03 -1.132573e-02 -1.564501e-02 -5.973785e-03 -1.813051e-02 -6.123095e-03 -1.416631e-02 -1.211778e-02 -8.017362e-03 -1.565164e-02 -6.872951e-03 -1.468942e-02 -1.141818e-02 -9.359552e-03 -1.678167e-02 -7.023984e-03 -1.789658e-02 -1.259924e-02 -1.470622e-02 -1.450199e-02 -8.970036e-03 -1.617004e-02 -9.044032e-03 -1.172720e-02 -1.312434e-02 -7.847958e-03 -1.558819e-02 -6.785639e-03 -1.345406e-02 -1.061469e-02 -9.520038e-03 -1.364088e-02 -7.570221e-03 -1.329062e-02 -1.029312e-02 -9.458464e-03 -1.377680e-02 -6.887096e-03 -1.502533e-02 -8.063909e-03 -1.153598e-02 -1.200530e-02 -8.553528e-03 -1.446222e-02 -8.696666e-03 -1.230522e-02 -1.313867e-02 -8.655645e-03 -1.691967e-02 -1.069990e-02 -1.613231e-02 -1.083005e-02 -1.057229e-02 -1.420744e-02 -7.918329e-03 -1.330190e-02 -1.030610e-02 -9.499566e-03 -1.364311e-02 -6.539657e-03 -1.453723e-02 -8.228605e-03 -1.118417e-02 -1.175180e-02 -7.997064e-03 -1.378528e-02 -8.286019e-03 -1.095519e-02 -1.199580e-02 -7.536487e-03 -1.482664e-02 -6.605816e-03 -1.281356e-02 -1.035656e-02 -9.251457e-03 -1.382846e-02 -7.718934e-03 -1.335666e-02 -1.157442e-02 -9.240261e-03 -1.640589e-02 -1.032155e-02 -1.650723e-02 -9.363084e-03 -1.139117e-02 -1.346137e-02 -7.750053e-03 -1.383404e-02 -9.206631e-03 -1.017120e-02 -1.283738e-02 -6.767498e-03 -1.482859e-02 -7.279687e-03 -1.184958e-02 -1.101902e-02 -8.397944e-03 -1.375373e-02 -7.655651e-03 -1.158822e-02 -1.135128e-02 -8.024509e-03 -1.454869e-02 -6.308864e-03 -1.340082e-02 -9.747306e-03 -9.858969e-03 -1.337546e-02 -7.722674e-03 -1.384859e-02 -1.089580e-02 -1.012538e-02 -1.590028e-02 -1.040331e-02 -1.683634e-02 -8.802102e-03 -1.232198e-02 -1.272215e-02 -8.461839e-03 -1.416905e-02 -8.570841e-03 -1.121477e-02 -1.202098e-02 -7.670089e-03 -1.479964e-02 -6.721775e-03 -1.287471e-02 -1.018173e-02 -9.322927e-03 -1.341268e-02 -7.398640e-03 -1.253143e-02 -1.053824e-02 -9.069488e-03 -1.402716e-02 -6.422359e-03 -1.424564e-02 -8.910308e-03 -1.085686e-02 -1.235511e-02 -7.693148e-03 -1.366665e-02 -9.242310e-03 -1.065639e-02 -1.264326e-02 -7.212718e-03 -1.490660e-02 -7.462064e-03 -1.248737e-02 -1.073570e-02 -9.006030e-03 -1.378843e-02 -7.751800e-03 -1.225515e-02 -1.092956e-02 -8.652418e-03 -1.441324e-02 -6.272833e-03 -1.387642e-02 -9.147568e-03 -1.021248e-02 -1.280418e-02 -7.057555e-03 -1.321270e-02 -9.415233e-03 -9.692794e-03 -1.304641e-02 -5.498346e-03 -1.371297e-02 -8.274854e-03 -1.459662e-02 -1.023690e-02 1.083300e-02 2.065708e-02 2.411497e-02 2.409457e-02 2.059160e-02 
2.429421e-02 2.665315e-02 2.858973e-02 4.386205e-02 6.482597e-02 1.148228e-01 1.118715e-01 7.960882e-02 8.400535e-02 4.946619e-02 1.811228e-02 1.387439e-02 -2.169085e-01 -1.619919e-01 -1.596086e-01 -3.172134e-01 -2.097197e-01 -2.427273e-01 -3.064580e-01 -9.578124e-02 -2.913546e-01 -2.065833e-01 7.741678e-02 -7.290838e-02 1.206170e-01 1.625308e-02 4.885684e-02 1.203256e-01 4.534612e-03 1.315012e-01 3.264944e-02 7.151871e-02 1.068977e-01 6.067192e-03 1.229769e-01 2.053168e-02 8.218451e-02 8.116363e-02 9.971235e-03 1.063088e-01 1.383360e-02 8.001107e-02 6.016037e-02 1.216196e-02 9.097609e-02 7.970028e-03 7.502140e-02 4.180533e-02 1.685717e-02 7.555851e-02 5.795852e-03 6.736780e-02 2.830400e-02 2.172497e-02 6.199856e-02 4.216233e-03 5.979547e-02 1.816417e-02 2.884073e-02 5.004113e-02 4.792559e-03 5.621191e-02 1.502745e-02 2.811163e-02 4.200281e-02 1.436647e-02 5.018948e-02 8.411396e-03 3.289455e-02 2.937727e-02 5.474049e-03 3.886451e-02 5.415763e-03 2.974756e-02 2.090153e-02 5.603709e-03 3.279429e-02 3.283332e-03 2.728081e-02 1.449759e-02 7.694268e-03 2.710988e-02 2.807142e-03 2.416658e-02 1.024992e-02 9.764208e-03 2.268852e-02 1.975739e-03 2.208606e-02 7.044705e-03 1.244208e-02 1.887687e-02 2.740106e-03 2.185251e-02 7.977059e-03 1.255702e-02 1.824515e-02 7.419433e-03 2.047435e-02 5.304507e-03 1.249834e-02 1.196468e-02 2.791944e-03 1.452874e-02 3.262472e-03 1.048642e-02 8.856865e-03 2.321432e-03 1.262624e-02 2.038778e-03 9.854866e-03 6.363437e-03 3.186818e-03 1.060983e-02 1.583958e-03 8.661935e-03 4.829708e-03 3.533353e-03 9.452065e-03 5.789251e-04 8.546942e-03 3.493968e-03 4.651939e-03 8.680509e-03 1.565074e-03 9.967251e-03 5.987095e-03 6.065567e-03 1.079426e-02 4.699117e-03 1.034045e-02 4.075343e-03 5.018794e-03 6.512643e-03 1.125764e-03 6.455285e-03 2.114506e-03 3.742227e-03 4.989376e-03 3.779453e-04 6.145060e-03 9.780319e-04 4.053849e-03 3.595263e-03 9.566276e-04 5.616491e-03 6.307747e-04 3.920312e-03 3.018650e-03 9.698332e-04 5.625224e-03 -1.963119e-04 4.512138e-03 2.143974e-03 1.979456e-03 5.496181e-03 5.550891e-04 6.184602e-03 4.560880e-03 4.050282e-03 7.950545e-03 2.869955e-03 7.470947e-03 2.758541e-03 2.785328e-03 4.291056e-03 -2.558257e-05 4.328344e-03 8.173973e-04 2.263221e-03 3.302237e-03 -2.932064e-04 4.925113e-03 8.441313e-05 3.372421e-03 2.620252e-03 7.560650e-04 5.028162e-03 2.751955e-04 3.726177e-03 2.655651e-03 1.065417e-03 5.403672e-03 -9.811860e-05 4.536251e-03 2.219165e-03 2.200734e-03 5.499574e-03 9.966982e-04 6.319249e-03 4.881700e-03 4.392885e-03 8.324686e-03 3.294861e-03 7.507270e-03 3.354219e-03 2.870119e-03 4.650326e-03 4.736002e-04 4.431549e-03 1.549323e-03 2.197260e-03 3.835018e-03 1.013836e-04 5.030546e-03 9.537148e-04 3.170548e-03 3.455381e-03 9.600273e-04 5.248822e-03 1.336507e-03 3.488108e-03 3.832751e-03 1.099026e-03 5.882286e-03 1.037570e-03 4.207022e-03 3.530388e-03 1.740737e-03 5.656811e-03 1.267905e-03 4.141864e-03 3.640040e-03 1.574064e-03 5.776223e-03 6.572162e-04 4.651042e-03 2.895471e-03 1.998293e-03 4.988486e-03 5.204739e-04 4.514447e-03 2.580328e-03 1.740987e-03 4.750961e-03 -1.065152e-04 4.909643e-03 1.593922e-03 2.127209e-03 3.848395e-03 1.312046e-05 4.561067e-03 1.093186e-03 1.935358e-03 3.201928e-03 -4.174656e-04 4.488356e-03 7.663553e-05 1.305229e-03 -1.159885e-03 -2.265572e-03 1.072712e-02 1.923431e-02 2.437258e-02 2.504484e-02 2.585860e-02 
4.176547e-02 4.521286e-02 5.166076e-02 6.791111e-02 9.070541e-02 1.360729e-01 1.201451e-01 8.379441e-02 9.191555e-02 5.282800e-02 2.698920e-02 2.361809e-02 -1.223109e-01 4.341845e-02 4.226752e-02 4.120160e-02 4.290179e-02 4.267342e-02 4.053227e-02 4.323304e-02 4.104570e-02 -1.989439e-01 5.863863e-02 -8.775094e-02 1.208386e-01 1.922562e-02 4.769732e-02 1.245945e-01 1.323884e-02 1.424564e-01 4.617606e-02 8.727634e-02 1.226715e-01 2.643662e-02 1.410243e-01 4.212045e-02 1.042858e-01 1.035270e-01 3.576447e-02 1.293204e-01 4.032851e-02 1.064838e-01 8.697516e-02 4.159000e-02 1.182621e-01 3.777981e-02 1.055481e-01 7.124776e-02 4.988477e-02 1.052127e-01 3.885209e-02 9.968544e-02 6.082640e-02 5.660389e-02 9.472897e-02 3.910988e-02 9.507290e-02 5.249199e-02 6.705648e-02 8.492992e-02 4.467208e-02 9.486238e-02 5.584754e-02 7.463786e-02 8.792217e-02 6.127114e-02 9.323310e-02 4.978455e-02 7.593899e-02 6.743472e-02 4.822436e-02 7.800670e-02 4.626094e-02 7.165440e-02 6.017501e-02 4.901301e-02 7.354562e-02 4.500543e-02 7.093062e-02 5.430593e-02 5.309163e-02 6.775798e-02 4.647845e-02 6.752536e-02 5.185686e-02 5.528298e-02 6.433827e-02 4.616421e-02 6.641611e-02 4.920582e-02 5.963169e-02 6.087869e-02 5.063147e-02 6.805703e-02 5.523402e-02 6.621958e-02 7.034544e-02 6.146367e-02 6.924033e-02 5.246896e-02 6.233820e-02 5.526224e-02 5.191066e-02 5.912675e-02 4.944012e-02 5.793413e-02 5.253648e-02 5.106970e-02 5.769229e-02 4.835399e-02 5.791308e-02 5.009338e-02 5.326089e-02 5.485205e-02 4.968932e-02 5.591077e-02 5.025912e-02 5.332321e-02 5.423637e-02 4.906898e-02 5.636245e-02 4.926547e-02 5.567040e-02 5.344843e-02 5.307739e-02 5.886001e-02 5.605446e-02 6.238854e-02 6.494824e-02 6.144757e-02 6.092548e-02 5.366724e-02 5.704345e-02 5.179336e-02 5.285555e-02 5.278104e-02 5.069838e-02 5.303031e-02 5.061905e-02 5.137798e-02 5.256422e-02 4.957069e-02 5.354435e-02 4.926176e-02 5.285990e-02 5.083979e-02 5.076368e-02 5.219460e-02 5.011690e-02 5.211442e-02 5.125819e-02 5.002793e-02 5.310784e-02 4.939925e-02 5.400234e-02 5.116731e-02 5.367393e-02 5.576906e-02 5.601187e-02 6.114498e-02 6.323268e-02 6.091834e-02 5.836998e-02 5.382226e-02 5.542108e-02 5.064012e-02 5.286596e-02 5.092989e-02 5.071602e-02 5.173480e-02 4.999640e-02 5.138962e-02 5.127138e-02 4.972091e-02 5.266864e-02 4.909384e-02 5.279250e-02 5.004687e-02 5.111075e-02 5.156919e-02 5.029248e-02 5.194181e-02 5.084442e-02 5.052522e-02 5.256774e-02 4.985211e-02 5.371355e-02 5.105694e-02 5.424244e-02 5.521570e-02 5.676007e-02 6.088050e-02 6.338257e-02 6.129368e-02 5.784869e-02 5.474208e-02 5.482650e-02 5.124386e-02 5.330727e-02 5.044804e-02 5.181826e-02 5.105935e-02 5.089083e-02 5.157393e-02 5.092482e-02 5.096794e-02 5.198283e-02 5.027815e-02 5.273948e-02 5.007831e-02 5.251514e-02 5.098133e-02 5.187282e-02 5.176171e-02 5.137384e-02 5.195892e-02 5.190840e-02 5.135320e-02 5.259317e-02 5.059934e-02 5.322670e-02 5.064017e-02 5.279686e-02 5.123515e-02 5.190664e-02 5.218892e-02 5.136418e-02 5.205994e-02 5.183259e-02 5.115644e-02 5.293368e-02 5.005118e-02 5.326605e-02 5.039456e-02 5.234243e-02 5.151661e-02 5.089593e-02 5.225385e-02 5.102509e-02 5.130958e-02 5.203438e-02 4.964550e-02 5.292972e-02 4.942753e-02 5.186827e-02 5.008637e-02 4.966754e-02 5.047311e-02 4.914016e-02 5.018551e-02 4.801493e-02 4.020987e-02 4.017014e-02 3.926012e-02 4.013785e-02 4.017263e-02 
4.558583e-02 5.104093e-02 5.684920e-02 7.034656e-02 8.323834e-02 1.042289e-01 9.291372e-02 7.158319e-02 7.606971e-02 4.676386e-02 4.725549e-02 3.420683e-02 6.298753e-02 6.862284e-02 6.693083e-02 6.838660e-02 6.770719e-02 6.797496e-02 6.788037e-02 6.643133e-02 6.854164e-02 6.078662e-02 3.735397e-02 -3.343301e-03 7.782158e-02 3.612812e-02 4.765305e-02 9.327772e-02 3.345054e-02 1.080332e-01 5.451176e-02 8.031687e-02 9.807866e-02 4.795183e-02 1.111095e-01 5.539892e-02 9.126063e-02 8.878309e-02 5.469133e-02 1.046226e-01 5.476583e-02 9.206734e-02 7.955749e-02 5.772666e-02 9.753997e-02 5.309584e-02 9.065781e-02 7.064947e-02 6.128124e-02 8.953142e-02 5.293435e-02 8.696532e-02 6.426168e-02 6.423164e-02 8.268782e-02 5.300442e-02 8.382740e-02 5.972504e-02 6.906738e-02 7.747573e-02 5.689780e-02 8.491165e-02 6.417119e-02 8.033152e-02 8.844054e-02 7.236988e-02 8.560954e-02 6.029024e-02 7.365914e-02 6.717273e-02 5.790470e-02 7.312889e-02 5.524134e-02 6.988547e-02 6.216658e-02 5.802885e-02 6.982682e-02 5.456993e-02 6.892465e-02 5.903407e-02 5.970559e-02 6.647339e-02 5.503043e-02 6.702039e-02 5.732967e-02 6.075241e-02 6.398152e-02 5.512831e-02 6.592172e-02 5.614972e-02 6.276692e-02 6.254630e-02 5.836055e-02 6.835415e-02 6.214371e-02 7.297208e-02 7.648673e-02 7.058124e-02 7.041100e-02 5.999467e-02 6.471602e-02 5.930602e-02 5.838464e-02 6.143971e-02 5.593295e-02 6.126133e-02 5.697630e-02 5.782440e-02 6.005109e-02 5.555603e-02 6.081504e-02 5.589332e-02 5.868884e-02 5.853472e-02 5.613756e-02 5.979029e-02 5.579770e-02 5.882134e-02 5.776336e-02 5.617811e-02 5.963457e-02 5.566001e-02 5.996513e-02 5.792141e-02 5.912307e-02 6.266297e-02 6.206402e-02 7.000535e-02 7.276284e-02 6.989907e-02 6.514333e-02 6.012387e-02 6.126194e-02 5.700496e-02 5.840164e-02 5.747630e-02 5.634404e-02 5.814450e-02 5.564280e-02 5.759054e-02 5.684887e-02 5.604432e-02 5.803055e-02 5.525911e-02 5.813058e-02 5.600016e-02 5.659197e-02 5.737095e-02 5.557059e-02 5.786539e-02 5.585842e-02 5.654419e-02 5.749920e-02 5.560253e-02 5.875645e-02 5.645705e-02 5.927091e-02 6.068217e-02 6.193132e-02 6.890475e-02 7.160273e-02 6.943149e-02 6.339108e-02 6.010557e-02 6.007962e-02 5.630446e-02 5.826372e-02 5.621215e-02 5.637070e-02 5.716864e-02 5.532778e-02 5.747048e-02 5.592870e-02 5.620769e-02 5.732096e-02 5.524256e-02 5.798546e-02 5.543449e-02 5.689222e-02 5.685386e-02 5.577406e-02 5.768743e-02 5.558614e-02 5.693355e-02 5.708010e-02 5.598526e-02 5.853755e-02 5.642586e-02 5.968948e-02 6.029285e-02 6.252087e-02 6.870990e-02 7.172221e-02 6.972801e-02 6.306472e-02 6.078741e-02 5.973041e-02 5.678256e-02 5.860499e-02 5.594073e-02 5.717869e-02 5.680753e-02 5.601299e-02 5.767430e-02 5.579689e-02 5.712178e-02 5.701390e-02 5.613322e-02 5.811646e-02 5.562514e-02 5.794599e-02 5.670513e-02 5.697301e-02 5.784925e-02 5.616818e-02 5.805723e-02 5.694439e-02 5.709667e-02 5.802081e-02 5.606624e-02 5.860996e-02 5.642755e-02 5.778294e-02 5.742879e-02 5.663441e-02 5.833260e-02 5.646843e-02 5.773871e-02 5.736186e-02 5.658460e-02 5.848125e-02 5.585315e-02 5.824068e-02 5.665825e-02 5.706703e-02 5.786097e-02 5.593088e-02 5.797597e-02 5.655096e-02 5.677418e-02 5.767789e-02 5.532760e-02 5.797875e-02 5.560096e-02 5.662879e-02 5.640570e-02 5.450502e-02 5.630648e-02 5.436643e-02 5.592632e-02 5.377635e-02 4.579850e-02 4.278770e-02 4.175874e-02 4.192894e-02 4.366485e-02 
5.903227e-02 6.347765e-02 6.990442e-02 7.990688e-02 8.968543e-02 1.024631e-01 9.977340e-02 8.753377e-02 9.054328e-02 7.554096e-02 7.419042e-02 7.688168e-02 8.713995e-02 8.908700e-02 8.799630e-02 8.846339e-02 8.829278e-02 8.847146e-02 8.783083e-02 8.794121e-02 8.797938e-02 8.577403e-02 9.464852e-02 3.551792e-02 9.673085e-02 5.793811e-02 7.146072e-02 9.751562e-02 5.837523e-02 1.069143e-01 7.149790e-02 8.803641e-02 1.012370e-01 6.658481e-02 1.097808e-01 7.042647e-02 9.510365e-02 9.310877e-02 7.116493e-02 1.037721e-01 6.966577e-02 9.393428e-02 8.635318e-02 7.144016e-02 9.850389e-02 6.675962e-02 9.278623e-02 7.844501e-02 7.342190e-02 9.114312e-02 6.650641e-02 8.873698e-02 7.389746e-02 7.342233e-02 8.618133e-02 6.486306e-02 8.657550e-02 6.885714e-02 7.598146e-02 8.033492e-02 6.694583e-02 8.534608e-02 7.284566e-02 8.877173e-02 1.002349e-01 8.423331e-02 8.795442e-02 6.837585e-02 7.759424e-02 7.234196e-02 6.728572e-02 7.675460e-02 6.526769e-02 7.444841e-02 7.005588e-02 6.661612e-02 7.527773e-02 6.389739e-02 7.447693e-02 6.690555e-02 6.823971e-02 7.185866e-02 6.475287e-02 7.210827e-02 6.621005e-02 6.766348e-02 7.054582e-02 6.359762e-02 7.168430e-02 6.395390e-02 6.902046e-02 6.785930e-02 6.560506e-02 7.183789e-02 6.939137e-02 8.081382e-02 8.897293e-02 8.029749e-02 7.553386e-02 6.628844e-02 6.968791e-02 6.539545e-02 6.570172e-02 6.709738e-02 6.422849e-02 6.705593e-02 6.513113e-02 6.480673e-02 6.719656e-02 6.327701e-02 6.765393e-02 6.357281e-02 6.613018e-02 6.529287e-02 6.438562e-02 6.604431e-02 6.414341e-02 6.518501e-02 6.538388e-02 6.332261e-02 6.640569e-02 6.276439e-02 6.618028e-02 6.396652e-02 6.526785e-02 6.718090e-02 6.860962e-02 7.776142e-02 8.540649e-02 7.888203e-02 7.123102e-02 6.569749e-02 6.668885e-02 6.327403e-02 6.501727e-02 6.382702e-02 6.396141e-02 6.439508e-02 6.373157e-02 6.406007e-02 6.455943e-02 6.314097e-02 6.530318e-02 6.271075e-02 6.526567e-02 6.321257e-02 6.428631e-02 6.400709e-02 6.362363e-02 6.415024e-02 6.379329e-02 6.319452e-02 6.462143e-02 6.240573e-02 6.504279e-02 6.270677e-02 6.501348e-02 6.556338e-02 6.823100e-02 7.664014e-02 8.421992e-02 7.820570e-02 6.981321e-02 6.538950e-02 6.565611e-02 6.257382e-02 6.466355e-02 6.280012e-02 6.376313e-02 6.358299e-02 6.333054e-02 6.380296e-02 6.384620e-02 6.310169e-02 6.474311e-02 6.257966e-02 6.509055e-02 6.280198e-02 6.440100e-02 6.364123e-02 6.370343e-02 6.403166e-02 6.361794e-02 6.342300e-02 6.436834e-02 6.265347e-02 6.494729e-02 6.271616e-02 6.531253e-02 6.537116e-02 6.863930e-02 7.656686e-02 8.434564e-02 7.845243e-02 6.966214e-02 6.589754e-02 6.552047e-02 6.294425e-02 6.496587e-02 6.272130e-02 6.438385e-02 6.344261e-02 6.386359e-02 6.404930e-02 6.388815e-02 6.382167e-02 6.466528e-02 6.331072e-02 6.535174e-02 6.311944e-02 6.530047e-02 6.377012e-02 6.477315e-02 6.446801e-02 6.437659e-02 6.461489e-02 6.481339e-02 6.409274e-02 6.546472e-02 6.352628e-02 6.581849e-02 6.369230e-02 6.537467e-02 6.427923e-02 6.470424e-02 6.481030e-02 6.454875e-02 6.451167e-02 6.504213e-02 6.380754e-02 6.569009e-02 6.332688e-02 6.560439e-02 6.372482e-02 6.488959e-02 6.441832e-02 6.417683e-02 6.452944e-02 6.442845e-02 6.379846e-02 6.505908e-02 6.288357e-02 6.523064e-02 6.286439e-02 6.434868e-02 6.319271e-02 6.294012e-02 6.297299e-02 6.228908e-02 6.172247e-02 6.071940e-02 5.560285e-02 5.483742e-02 5.319555e-02 5.463796e-02 5.564972e-02 