# vtk DataFile Version 2.0
Comment goes here
ASCII

DATASET STRUCTURED_POINTS
FIELD FieldData 1
TIME 1 1 double
0.01800000
DIMENSIONS    256   32   1

ORIGIN    0.000   0.000   0.000
SPACING   0.0078125 0.0078125   1.000

POINT_DATA   8192
SCALARS uX double
LOOKUP_TABLE default

-1.138470e-02 -2.012897e-02 -3.358592e-02 -5.059383e-02 -7.421792e-02 -1.008222e-01 -1.218663e-01 -1.038094e-01 -1.345752e-01 -1.118554e-01 -1.318577e-01 -1.501303e-01 -1.340854e-01 -1.877729e-01 -2.025423e-01 -1.542769e-01 -2.093617e-01 -1.777809e-01 -1.733357e-01 -2.188460e-01 -1.241057e-01 -1.382799e-01 -1.466610e-01 -7.414073e-02 -1.137527e-01 -7.518976e-02 -6.717363e-02 -9.687852e-02 -4.053622e-02 -9.235704e-02 -4.706325e-02 -6.352968e-02 -6.949741e-02 -3.707519e-02 -7.192541e-02 -3.749941e-02 -5.261350e-02 -5.193804e-02 -2.940661e-02 -5.357808e-02 -2.552059e-02 -3.883789e-02 -3.204502e-02 -1.959283e-02 -3.178820e-02 -1.313189e-02 -2.086404e-02 -1.424255e-02 -6.914820e-03 -1.278263e-02 -8.092205e-04 -5.239565e-03 1.091706e-04 3.859942e-03 1.606526e-03 8.428968e-03 6.431237e-03 9.596329e-03 1.200045e-02 1.059219e-02 1.493346e-02 1.356033e-02 1.546535e-02 1.714413e-02 1.603337e-02 1.835975e-02 1.751798e-02 1.850835e-02 1.983433e-02 1.839890e-02 2.080512e-02 1.965304e-02 2.039107e-02 2.118961e-02 1.988985e-02 2.184829e-02 2.071896e-02 2.124817e-02 2.196358e-02 2.054374e-02 2.261404e-02 2.102266e-02 2.195451e-02 2.208143e-02 2.113290e-02 2.282305e-02 2.123798e-02 2.227494e-02 2.222692e-02 2.142354e-02 2.312680e-02 2.115849e-02 2.273827e-02 2.205916e-02 2.168287e-02 2.302852e-02 2.150424e-02 2.287592e-02 2.195273e-02 2.184707e-02 2.303216e-02 2.113824e-02 2.308133e-02 2.178698e-02 2.210418e-02 2.271453e-02 2.124279e-02 2.300044e-02 2.167463e-02 2.214579e-02 2.261618e-02 2.125053e-02 2.317570e-02 2.139176e-02 2.246326e-02 2.229971e-02 2.154821e-02 2.305720e-02 2.133632e-02 2.258934e-02 2.225158e-02 2.167468e-02 2.318248e-02 2.118749e-02 2.294154e-02 2.200257e-02 2.185948e-02 2.300636e-02 2.153335e-02 2.300617e-02 2.186311e-02 2.199806e-02 2.294592e-02 2.118741e-02 2.318076e-02 2.167991e-02 2.224845e-02 2.259444e-02 2.133468e-02 2.305764e-02 2.155368e-02 2.229802e-02 2.246910e-02 2.139067e-02 2.317951e-02 2.125735e-02 2.261713e-02 2.215446e-02 2.167713e-02 2.300947e-02 2.125302e-02 2.272140e-02 2.211937e-02 2.179768e-02 2.310034e-02 2.115732e-02 2.305323e-02 2.187728e-02 2.198423e-02 2.291371e-02 2.154848e-02 2.308065e-02 2.174092e-02 2.213112e-02 2.281884e-02 2.125739e-02 2.324206e-02 2.155284e-02 2.239386e-02 2.244661e-02 2.146140e-02 2.307347e-02 2.141458e-02 2.244987e-02 2.231916e-02 2.152011e-02 2.314106e-02 2.115623e-02 2.275374e-02 2.201741e-02 2.179680e-02 2.293380e-02 2.120629e-02 2.283251e-02 2.199120e-02 2.191436e-02 2.299405e-02 2.115812e-02 2.313970e-02 2.174535e-02 2.210315e-02 2.278921e-02 2.157992e-02 2.311525e-02 2.159782e-02 2.224862e-02 2.265001e-02 2.133616e-02 2.323535e-02 2.137499e-02 2.249164e-02 2.224581e-02 2.152371e-02 2.297832e-02 2.121868e-02 2.249097e-02 2.208781e-02 2.151172e-02 2.295520e-02 2.095344e-02 2.269846e-02 2.173526e-02 2.168419e-02 2.263573e-02 2.092695e-02 2.259390e-02 2.156005e-02 2.156253e-02 2.245282e-02 2.066445e-02 2.260853e-02 2.109426e-02 2.158360e-02 2.196209e-02 2.059287e-02 2.229603e-02 2.076117e-02 2.131031e-02 2.162722e-02 2.026005e-02 2.211863e-02 2.014486e-02 2.120263e-02 2.109587e-02 2.007765e-02 2.172772e-02 1.980262e-02 2.092449e-02 2.086848e-02 1.976763e-02 2.162177e-02 1.945245e-02 2.094256e-02 2.064905e-02 1.985288e-02 2.159315e-02 1.951418e-02 2.125386e-02 2.058168e-02 2.047283e-02 2.050430e-02 1.490438e-02 9.942668e-03 5.999911e-03 1.004990e-03 -3.816894e-03 
-6.171255e-03 -1.522066e-02 -2.639233e-02 -4.447182e-02 -6.731671e-02 -1.016790e-01 -1.160907e-01 -9.925448e-02 -1.285478e-01 -1.108379e-01 -1.304921e-01 -1.679059e-01 -1.418027e-01 -2.379193e-01 -2.570443e-01 -2.185661e-01 -2.830083e-01 -2.463932e-01 -2.463125e-01 -2.752252e-01 -1.761811e-01 -1.469501e-01 -1.764561e-01 -6.620856e-02 -1.240551e-01 -6.552864e-02 -6.512080e-02 -9.171412e-02 -3.436084e-02 -8.781527e-02 -4.148623e-02 -5.735833e-02 -6.733228e-02 -2.921666e-02 -6.965295e-02 -3.159856e-02 -4.877174e-02 -4.919349e-02 -2.341384e-02 -5.130669e-02 -2.084476e-02 -3.573639e-02 -2.927383e-02 -1.506650e-02 -2.945193e-02 -9.572230e-03 -1.797394e-02 -1.185420e-02 -3.170190e-03 -1.086891e-02 2.400012e-03 -3.054133e-03 2.672986e-03 6.422956e-03 3.792928e-03 1.074792e-02 8.755904e-03 1.158626e-02 1.452122e-02 1.233170e-02 1.740775e-02 1.529764e-02 1.771920e-02 1.931945e-02 1.823733e-02 1.995470e-02 1.954072e-02 2.030773e-02 2.202590e-02 2.006220e-02 2.297872e-02 2.132369e-02 2.247611e-02 2.286326e-02 2.192755e-02 2.353584e-02 2.277226e-02 2.291616e-02 2.405007e-02 2.218063e-02 2.472145e-02 2.266531e-02 2.402784e-02 2.373358e-02 2.317059e-02 2.447477e-02 2.326142e-02 2.390858e-02 2.426154e-02 2.305808e-02 2.521989e-02 2.278040e-02 2.483229e-02 2.370187e-02 2.367748e-02 2.471665e-02 2.365278e-02 2.456155e-02 2.395034e-02 2.348084e-02 2.513494e-02 2.275704e-02 2.516345e-02 2.342664e-02 2.413375e-02 2.434885e-02 2.325853e-02 2.464317e-02 2.371389e-02 2.378710e-02 2.468294e-02 2.287897e-02 2.526388e-02 2.302544e-02 2.452554e-02 2.394279e-02 2.358418e-02 2.470047e-02 2.335389e-02 2.421982e-02 2.428251e-02 2.331041e-02 2.526908e-02 2.280585e-02 2.503806e-02 2.363980e-02 2.385385e-02 2.469261e-02 2.368291e-02 2.469267e-02 2.385732e-02 2.363542e-02 2.504331e-02 2.280621e-02 2.526710e-02 2.331593e-02 2.427880e-02 2.422557e-02 2.335259e-02 2.470087e-02 2.358962e-02 2.394040e-02 2.453205e-02 2.302443e-02 2.526762e-02 2.288556e-02 2.468321e-02 2.379628e-02 2.371620e-02 2.465205e-02 2.326830e-02 2.435499e-02 2.414908e-02 2.343677e-02 2.518225e-02 2.277541e-02 2.515479e-02 2.350976e-02 2.398181e-02 2.460023e-02 2.369713e-02 2.476583e-02 2.373299e-02 2.377319e-02 2.491089e-02 2.287868e-02 2.533193e-02 2.318437e-02 2.442529e-02 2.407490e-02 2.348305e-02 2.471722e-02 2.344581e-02 2.409497e-02 2.438012e-02 2.315796e-02 2.522866e-02 2.278046e-02 2.482439e-02 2.365804e-02 2.383848e-02 2.457504e-02 2.322082e-02 2.446873e-02 2.401969e-02 2.355584e-02 2.507061e-02 2.277804e-02 2.524591e-02 2.337342e-02 2.410529e-02 2.447448e-02 2.372616e-02 2.479935e-02 2.358955e-02 2.389580e-02 2.473841e-02 2.296230e-02 2.532942e-02 2.300127e-02 2.452581e-02 2.387476e-02 2.354766e-02 2.462444e-02 2.324559e-02 2.413909e-02 2.414911e-02 2.314957e-02 2.504570e-02 2.257510e-02 2.477920e-02 2.338598e-02 2.374147e-02 2.431132e-02 2.296129e-02 2.426693e-02 2.362464e-02 2.320930e-02 2.454571e-02 2.228652e-02 2.470769e-02 2.274598e-02 2.365331e-02 2.364632e-02 2.263769e-02 2.399521e-02 2.283336e-02 2.297391e-02 2.374094e-02 2.189733e-02 2.426141e-02 2.180327e-02 2.329897e-02 2.281238e-02 2.214545e-02 2.348297e-02 2.189399e-02 2.261286e-02 2.304450e-02 2.141703e-02 2.384903e-02 2.111860e-02 2.308719e-02 2.240970e-02 2.198743e-02 2.339823e-02 2.174823e-02 2.303411e-02 2.307418e-02 2.252772e-02 2.370490e-02 1.754323e-02 1.311600e-02 8.681368e-03 4.898539e-03 -3.025549e-04 
-6.473915e-03 -1.303980e-02 -2.431693e-02 -4.010394e-02 -6.612044e-02 -1.064189e-01 -1.096699e-01 -7.763882e-02 -1.149053e-01 -6.948584e-02 -9.457035e-02 -8.644333e-02 -3.146001e-02 -5.251277e-02 -2.161341e-02 2.737694e-02 -7.089679e-03 1.894992e-02 3.779493e-02 -2.968396e-02 2.643913e-02 -1.550789e-02 -8.572594e-02 -2.119783e-02 -9.585935e-02 -4.945845e-02 -4.259966e-02 -9.226845e-02 -1.407143e-02 -8.920388e-02 -2.923290e-02 -5.090586e-02 -6.805835e-02 -1.716120e-02 -7.277431e-02 -2.525158e-02 -4.809413e-02 -5.281512e-02 -1.741644e-02 -5.740334e-02 -1.938853e-02 -3.954477e-02 -3.478406e-02 -1.503169e-02 -3.768541e-02 -1.244572e-02 -2.547834e-02 -1.882756e-02 -8.763155e-03 -2.029747e-02 -4.656250e-03 -1.270651e-02 -6.378199e-03 -2.721263e-03 -7.124492e-03 1.161660e-03 -2.993967e-03 1.297922e-03 2.207422e-03 9.722818e-04 5.258945e-03 2.762261e-03 5.965866e-03 6.482305e-03 5.761407e-03 6.311266e-03 6.289290e-03 8.043787e-03 7.628477e-03 8.074069e-03 8.716372e-03 8.373104e-03 9.241580e-03 8.834185e-03 9.486969e-03 9.353627e-03 9.546095e-03 9.722562e-03 9.621855e-03 9.955400e-03 9.799839e-03 9.940317e-03 1.008822e-02 9.862076e-03 1.032252e-02 9.865359e-03 1.031439e-02 1.006424e-02 1.014256e-02 1.025726e-02 1.001329e-02 1.027438e-02 1.014727e-02 1.008814e-02 1.039473e-02 9.939810e-03 1.023739e-02 9.951565e-03 1.034992e-02 1.019272e-02 1.012569e-02 1.036850e-02 1.011000e-02 1.028418e-02 1.033428e-02 1.010620e-02 1.054547e-02 1.004116e-02 1.047449e-02 1.021868e-02 1.025990e-02 1.041845e-02 1.013724e-02 1.038786e-02 1.029824e-02 1.018384e-02 1.050889e-02 1.003485e-02 1.053089e-02 1.014372e-02 1.030866e-02 1.032395e-02 1.010440e-02 1.037349e-02 1.017098e-02 1.017659e-02 1.040921e-02 9.974312e-03 1.027394e-02 9.972619e-03 1.040506e-02 1.018337e-02 1.016770e-02 1.037540e-02 1.010644e-02 1.032164e-02 1.031294e-02 1.014140e-02 1.053407e-02 1.003694e-02 1.050716e-02 1.018898e-02 1.029641e-02 1.039320e-02 1.013886e-02 1.041879e-02 1.026679e-02 1.021836e-02 1.048308e-02 1.004396e-02 1.055067e-02 1.011716e-02 1.033838e-02 1.029959e-02 1.011843e-02 1.038358e-02 1.014730e-02 1.020334e-02 1.038462e-02 9.983316e-03 1.027290e-02 9.968235e-03 1.042915e-02 1.015653e-02 1.019318e-02 1.035976e-02 1.009655e-02 1.034787e-02 1.028074e-02 1.017286e-02 1.050680e-02 1.003641e-02 1.053424e-02 1.015581e-02 1.032968e-02 1.036377e-02 1.014679e-02 1.043810e-02 1.023715e-02 1.024720e-02 1.045580e-02 1.005550e-02 1.056031e-02 1.009002e-02 1.036376e-02 1.026994e-02 1.013296e-02 1.038016e-02 1.011970e-02 1.022342e-02 1.034792e-02 9.984904e-03 1.025621e-02 9.957838e-03 1.043856e-02 1.010441e-02 1.020397e-02 1.030403e-02 1.006611e-02 1.034055e-02 1.020002e-02 1.016970e-02 1.040945e-02 9.993009e-03 1.048308e-02 1.003226e-02 1.028792e-02 1.020085e-02 1.006183e-02 1.030265e-02 1.002878e-02 1.013298e-02 1.017246e-02 9.900846e-03 1.029975e-02 9.783334e-03 1.017997e-02 9.870377e-03 9.950076e-03 9.996467e-03 9.726431e-03 9.957845e-03 9.711930e-03 9.754873e-03 9.805671e-03 9.430103e-03 9.895977e-03 9.251487e-03 9.770573e-03 9.284965e-03 9.400452e-03 9.557964e-03 8.966405e-03 9.609041e-03 8.936771e-03 9.271270e-03 9.416111e-03 8.569475e-03 9.766840e-03 8.520495e-03 9.545253e-03 9.256266e-03 8.641910e-03 1.001763e-02 8.619507e-03 9.944161e-03 9.545557e-03 8.994151e-03 1.038090e-02 9.192284e-03 1.111329e-02 1.175217e-02 8.536251e-03 6.409059e-03 2.731262e-03 -5.646197e-04 
2.962653e-03 -8.945264e-04 -5.399042e-03 -1.158676e-02 -1.853652e-02 -2.947486e-02 -1.994952e-02 -6.949482e-03 -1.830827e-02 6.144603e-03 1.677542e-03 3.174844e-02 4.905326e-02 5.445255e-02 8.107311e-02 3.748139e-02 1.074323e-01 6.639068e-02 7.335235e-02 9.689483e-02 3.117506e-03 9.845517e-02 3.354749e-02 2.978287e-02 -8.113217e-03 -8.246228e-04 1.047532e-03 -1.923407e-02 8.203465e-03 -1.815002e-02 1.829064e-03 -4.155691e-03 -1.226730e-02 5.422638e-03 -1.429876e-02 2.969739e-04 -6.890080e-03 -1.097224e-02 1.728414e-03 -1.360344e-02 -1.012033e-03 -8.957830e-03 -7.926740e-03 -2.412793e-03 -1.036809e-02 -3.096241e-03 -8.089415e-03 -6.276289e-03 -4.127942e-03 -8.231796e-03 -3.421193e-03 -7.629887e-03 -4.081511e-03 -5.860897e-03 -5.408033e-03 -4.622788e-03 -6.077816e-03 -4.069198e-03 -6.308168e-03 -4.607227e-03 -4.932831e-03 -5.921358e-03 -3.092494e-03 -6.550566e-03 -3.536422e-03 -6.366214e-03 -4.366098e-03 -4.007473e-03 -6.272998e-03 -2.978583e-03 -5.743322e-03 -4.411278e-03 -3.559041e-03 -6.099652e-03 -1.914084e-03 -6.218115e-03 -3.146966e-03 -4.330290e-03 -5.189102e-03 -2.517625e-03 -5.992914e-03 -3.309899e-03 -4.183249e-03 -5.273943e-03 -2.189384e-03 -6.519562e-03 -2.308113e-03 -5.159224e-03 -4.357863e-03 -3.323183e-03 -6.299529e-03 -2.780983e-03 -5.371296e-03 -4.684106e-03 -2.814837e-03 -6.702236e-03 -3.041143e-03 -6.389151e-03 -3.350911e-03 -4.099517e-03 -5.903878e-03 -2.543510e-03 -5.978357e-03 -3.859612e-03 -3.730146e-03 -5.760903e-03 -1.811912e-03 -6.380838e-03 -2.734182e-03 -4.583410e-03 -4.833062e-03 -2.644623e-03 -6.077231e-03 -2.948475e-03 -4.494180e-03 -4.911081e-03 -2.450557e-03 -6.488041e-03 -1.995389e-03 -5.473229e-03 -4.024268e-03 -3.586505e-03 -6.162769e-03 -2.609259e-03 -5.647540e-03 -4.384129e-03 -3.069897e-03 -6.569670e-03 -3.011642e-03 -6.566568e-03 -3.074430e-03 -4.375183e-03 -5.656289e-03 -2.607680e-03 -6.159614e-03 -3.592029e-03 -4.017545e-03 -5.479258e-03 -1.991200e-03 -6.486090e-03 -2.455715e-03 -4.904001e-03 -4.500463e-03 -2.942265e-03 -6.078047e-03 -2.648716e-03 -4.826341e-03 -4.589991e-03 -2.727341e-03 -6.383919e-03 -1.812955e-03 -5.754441e-03 -3.735703e-03 -3.851503e-03 -5.981971e-03 -2.539996e-03 -5.894009e-03 -4.106391e-03 -3.339958e-03 -6.390876e-03 -3.037184e-03 -6.701221e-03 -2.813073e-03 -4.666290e-03 -5.378636e-03 -2.761190e-03 -6.293957e-03 -3.313580e-03 -4.333830e-03 -5.159562e-03 -2.266741e-03 -6.515661e-03 -2.157094e-03 -5.234978e-03 -4.173215e-03 -3.229266e-03 -5.994249e-03 -2.432947e-03 -5.126254e-03 -4.295994e-03 -2.990708e-03 -6.228898e-03 -1.715959e-03 -6.001007e-03 -3.464354e-03 -4.115645e-03 -5.760361e-03 -2.555999e-03 -6.106180e-03 -3.835052e-03 -3.628291e-03 -6.170783e-03 -3.118882e-03 -6.787027e-03 -2.553503e-03 -4.986181e-03 -5.069386e-03 -3.018013e-03 -6.363993e-03 -3.022045e-03 -4.675698e-03 -4.838557e-03 -2.575365e-03 -6.463702e-03 -1.932450e-03 -5.569987e-03 -3.891369e-03 -3.551542e-03 -5.898002e-03 -2.385118e-03 -5.508619e-03 -4.132160e-03 -3.438837e-03 -6.203645e-03 -1.860985e-03 -6.353391e-03 -3.268029e-03 -4.353501e-03 -5.346601e-03 -2.527958e-03 -6.054852e-03 -3.450553e-03 -4.246437e-03 -5.466831e-03 -2.309635e-03 -6.697125e-03 -2.559131e-03 -5.234133e-03 -4.465493e-03 -3.284098e-03 -6.101008e-03 -2.713379e-03 -5.159118e-03 -4.494899e-03 -3.167334e-03 -6.352861e-03 -1.941473e-03 -5.990998e-03 -3.433119e-03 -3.947306e-03 -5.300833e-03 -2.177449e-03 -5.415003e-03 -3.219422e-03 -3.529130e-03 -5.188608e-03 -1.640697e-03 -6.279639e-03 -2.806077e-03 -5.659196e-03 -3.958941e-03 5.137255e-03 7.948406e-03 8.555468e-03 7.727880e-03 5.621858e-03 
7.082297e-03 8.681091e-03 9.549599e-03 1.906683e-02 3.175854e-02 6.835747e-02 6.525553e-02 4.325249e-02 5.602431e-02 2.974173e-02 1.900893e-02 3.135508e-02 -9.755933e-02 -5.572033e-02 -7.614912e-02 -1.518883e-01 -8.795631e-02 -1.305076e-01 -1.510011e-01 -5.910856e-02 -1.646114e-01 -1.087809e-01 3.668939e-02 -3.982392e-02 5.403030e-02 5.437053e-03 1.899651e-02 5.208256e-02 2.110536e-03 5.715356e-02 1.750249e-02 3.257931e-02 5.073870e-02 8.481876e-03 5.561395e-02 1.692881e-02 3.704356e-02 4.039663e-02 1.302987e-02 4.478275e-02 1.595787e-02 3.123419e-02 2.939367e-02 1.219891e-02 3.212266e-02 1.183063e-02 2.247824e-02 1.848242e-02 9.475545e-03 2.019563e-02 7.902063e-03 1.398689e-02 1.099412e-02 6.155234e-03 1.210480e-02 4.532576e-03 8.231216e-03 6.051178e-03 3.586495e-03 6.941138e-03 2.345895e-03 4.839923e-03 3.820388e-03 1.017490e-03 4.272879e-03 2.126091e-03 3.566465e-03 2.230831e-03 9.978610e-04 3.204595e-03 4.816351e-04 2.077303e-03 1.730771e-03 5.473401e-04 2.815926e-03 7.525910e-05 2.002283e-03 1.171072e-03 5.453061e-04 2.305256e-03 -1.326322e-04 1.826479e-03 9.190336e-04 5.428381e-04 2.149242e-03 -3.074257e-04 2.106958e-03 4.802064e-04 8.393220e-04 1.635462e-03 -3.661037e-04 2.032862e-03 2.017548e-04 9.454416e-04 1.877432e-03 -2.345182e-04 1.897722e-03 -2.902205e-05 1.548901e-03 1.284565e-03 -1.220285e-04 2.134848e-03 -1.924648e-04 1.275478e-03 1.161214e-03 8.441422e-05 2.301487e-03 -2.803487e-04 1.723803e-03 8.168526e-04 4.381395e-04 1.989459e-03 -3.131630e-04 1.807060e-03 6.430294e-04 6.145624e-04 1.893780e-03 -3.505843e-04 2.190880e-03 2.538632e-04 9.776313e-04 1.436086e-03 -3.113024e-04 2.090576e-03 2.170091e-05 1.100494e-03 1.705294e-03 -1.583246e-04 1.898802e-03 -1.551523e-04 1.704879e-03 1.107992e-03 1.739379e-05 2.091922e-03 -3.096944e-04 1.433136e-03 9.803079e-04 2.506136e-04 2.192571e-03 -3.497951e-04 1.890368e-03 6.171172e-04 6.396944e-04 1.809397e-03 -3.143363e-04 1.986066e-03 4.398946e-04 8.129387e-04 1.724944e-03 -2.835345e-04 2.298260e-03 8.420419e-05 1.156340e-03 1.273256e-03 -1.977101e-04 2.128808e-03 -1.255829e-04 1.272589e-03 1.536089e-03 -4.678182e-05 1.882855e-03 -2.398606e-04 1.868183e-03 9.262245e-04 1.844493e-04 2.002456e-03 -3.966292e-04 1.603851e-03 7.833004e-04 4.455499e-04 2.028418e-03 -3.716650e-04 2.072082e-03 4.141088e-04 8.419035e-04 1.637091e-03 -2.622329e-04 2.116276e-03 2.590934e-04 9.954429e-04 1.565560e-03 -1.857000e-04 2.355647e-03 -6.224901e-05 1.324804e-03 1.113017e-03 -5.874979e-05 2.118875e-03 -2.478491e-04 1.442331e-03 1.362798e-03 9.739509e-05 1.840861e-03 -2.913433e-04 2.038388e-03 7.410289e-04 3.806782e-04 1.871851e-03 -4.300458e-04 1.802737e-03 6.032629e-04 6.608581e-04 1.890383e-03 -3.166182e-04 2.252692e-03 2.707373e-04 1.047641e-03 1.532577e-03 -1.646090e-04 2.227938e-03 1.314064e-04 1.148449e-03 1.450911e-03 -1.140291e-04 2.414612e-03 -1.143178e-04 1.522548e-03 1.205694e-03 2.386782e-04 2.348511e-03 -5.589165e-05 1.706898e-03 1.220765e-03 4.260450e-04 2.481403e-03 -1.454815e-04 2.171623e-03 1.048270e-03 8.824285e-04 2.392617e-03 5.319508e-05 2.469931e-03 1.141520e-03 1.098349e-03 2.578916e-03 7.073342e-05 2.902372e-03 1.038075e-03 1.420464e-03 2.523775e-03 2.244016e-04 2.951493e-03 9.858790e-04 1.312819e-03 2.175345e-03 -2.151048e-04 2.250752e-03 -2.691998e-04 8.366373e-05 -5.145315e-04 -2.455801e-03 2.728536e-03 6.063115e-03 8.064500e-03 7.836851e-03 8.193208e-03 
1.571141e-02 1.764623e-02 2.056299e-02 2.966484e-02 4.163105e-02 7.139191e-02 6.129545e-02 3.793850e-02 5.187462e-02 2.130274e-02 1.636031e-02 1.847484e-02 -6.302917e-02 1.964573e-02 1.889194e-02 1.808357e-02 1.844305e-02 1.801412e-02 1.652813e-02 1.783119e-02 1.678324e-02 -1.095827e-01 2.444991e-02 -4.236679e-02 4.760742e-02 6.901195e-03 1.807267e-02 5.075703e-02 4.136098e-03 5.527376e-02 1.961271e-02 3.221388e-02 5.029052e-02 1.236442e-02 5.518867e-02 2.170070e-02 3.939085e-02 4.372585e-02 1.979107e-02 4.836868e-02 2.381959e-02 3.744698e-02 3.681821e-02 2.227765e-02 4.040858e-02 2.299657e-02 3.355449e-02 2.953627e-02 2.375640e-02 3.226332e-02 2.286725e-02 2.860586e-02 2.561915e-02 2.326313e-02 2.753490e-02 2.192230e-02 2.602271e-02 2.285868e-02 2.377364e-02 2.406116e-02 2.250587e-02 2.399854e-02 2.260491e-02 2.260538e-02 2.362143e-02 2.335049e-02 2.367075e-02 2.187959e-02 2.338365e-02 2.180309e-02 2.280170e-02 2.213892e-02 2.222541e-02 2.238453e-02 2.188045e-02 2.225470e-02 2.225868e-02 2.174988e-02 2.274137e-02 2.129257e-02 2.289616e-02 2.155560e-02 2.237974e-02 2.206589e-02 2.185173e-02 2.237935e-02 2.191561e-02 2.197443e-02 2.247837e-02 2.150592e-02 2.303695e-02 2.141633e-02 2.282299e-02 2.209172e-02 2.231031e-02 2.290269e-02 2.273640e-02 2.283115e-02 2.246721e-02 2.193428e-02 2.299482e-02 2.133952e-02 2.295449e-02 2.166521e-02 2.230422e-02 2.216622e-02 2.174915e-02 2.235839e-02 2.201263e-02 2.185843e-02 2.258807e-02 2.131081e-02 2.294858e-02 2.140248e-02 2.249170e-02 2.194651e-02 2.193042e-02 2.238595e-02 2.180583e-02 2.208048e-02 2.238414e-02 2.158596e-02 2.300703e-02 2.135868e-02 2.291509e-02 2.200833e-02 2.238408e-02 2.287203e-02 2.272743e-02 2.288110e-02 2.239067e-02 2.201145e-02 2.292083e-02 2.136043e-02 2.300631e-02 2.158978e-02 2.238086e-02 2.208414e-02 2.180409e-02 2.238554e-02 2.193304e-02 2.194298e-02 2.249544e-02 2.139977e-02 2.294932e-02 2.131292e-02 2.258479e-02 2.186259e-02 2.200933e-02 2.236039e-02 2.175007e-02 2.216295e-02 2.230842e-02 2.166001e-02 2.295745e-02 2.133603e-02 2.298909e-02 2.193313e-02 2.245568e-02 2.282115e-02 2.273485e-02 2.291975e-02 2.232079e-02 2.208922e-02 2.283842e-02 2.140861e-02 2.304071e-02 2.151141e-02 2.246271e-02 2.199423e-02 2.188707e-02 2.239129e-02 2.184581e-02 2.203361e-02 2.240854e-02 2.148355e-02 2.292716e-02 2.124825e-02 2.267209e-02 2.178529e-02 2.208406e-02 2.231853e-02 2.172040e-02 2.223611e-02 2.223621e-02 2.173289e-02 2.289506e-02 2.133962e-02 2.305449e-02 2.185838e-02 2.253530e-02 2.276113e-02 2.276251e-02 2.294372e-02 2.225363e-02 2.217969e-02 2.275085e-02 2.149634e-02 2.306098e-02 2.143456e-02 2.256685e-02 2.191201e-02 2.199779e-02 2.238227e-02 2.179449e-02 2.215289e-02 2.233769e-02 2.161230e-02 2.290166e-02 2.125818e-02 2.281696e-02 2.174219e-02 2.227230e-02 2.231125e-02 2.181410e-02 2.240067e-02 2.219307e-02 2.189571e-02 2.274808e-02 2.138743e-02 2.302347e-02 2.160070e-02 2.260925e-02 2.211320e-02 2.210647e-02 2.256071e-02 2.207811e-02 2.231588e-02 2.251743e-02 2.186545e-02 2.307322e-02 2.153144e-02 2.310395e-02 2.185143e-02 2.268720e-02 2.242874e-02 2.207140e-02 2.276301e-02 2.213541e-02 2.232792e-02 2.258920e-02 2.138445e-02 2.305981e-02 2.098504e-02 2.245499e-02 2.116425e-02 2.106194e-02 2.159919e-02 2.018945e-02 2.078038e-02 1.901427e-02 1.482894e-02 1.520788e-02 1.478834e-02 1.510735e-02 1.513464e-02 
1.740644e-02 2.045048e-02 2.304526e-02 3.029128e-02 3.611012e-02 4.814716e-02 4.299817e-02 3.065799e-02 3.813965e-02 1.841349e-02 2.290802e-02 1.432601e-02 2.746661e-02 3.108864e-02 2.994101e-02 3.079101e-02 3.025281e-02 3.025932e-02 3.023866e-02 2.898846e-02 3.058089e-02 2.472453e-02 9.356711e-03 -3.234767e-03 2.620970e-02 1.345952e-02 1.698038e-02 3.556561e-02 1.228719e-02 3.964028e-02 2.168226e-02 2.876921e-02 3.755873e-02 1.953233e-02 4.117285e-02 2.407336e-02 3.352135e-02 3.486974e-02 2.414898e-02 3.781492e-02 2.524594e-02 3.249357e-02 3.115959e-02 2.508886e-02 3.311113e-02 2.441360e-02 2.980752e-02 2.703609e-02 2.492222e-02 2.834523e-02 2.359450e-02 2.670807e-02 2.435175e-02 2.405479e-02 2.517389e-02 2.278542e-02 2.468017e-02 2.274275e-02 2.369288e-02 2.319375e-02 2.272633e-02 2.345336e-02 2.234018e-02 2.340144e-02 2.321216e-02 2.338969e-02 2.293773e-02 2.212273e-02 2.309704e-02 2.171051e-02 2.267989e-02 2.210333e-02 2.196450e-02 2.253148e-02 2.147719e-02 2.249089e-02 2.187147e-02 2.188961e-02 2.246236e-02 2.133621e-02 2.267818e-02 2.159789e-02 2.210496e-02 2.218977e-02 2.149845e-02 2.256423e-02 2.154643e-02 2.212588e-02 2.217335e-02 2.157065e-02 2.277883e-02 2.144474e-02 2.254570e-02 2.217066e-02 2.195155e-02 2.316064e-02 2.259028e-02 2.308848e-02 2.212579e-02 2.199459e-02 2.272129e-02 2.136873e-02 2.268184e-02 2.174139e-02 2.197920e-02 2.232097e-02 2.137942e-02 2.252247e-02 2.166999e-02 2.196438e-02 2.230933e-02 2.136158e-02 2.269915e-02 2.145950e-02 2.220378e-02 2.206358e-02 2.158019e-02 2.255489e-02 2.143912e-02 2.222823e-02 2.206858e-02 2.165455e-02 2.273874e-02 2.138778e-02 2.263659e-02 2.207775e-02 2.203218e-02 2.312291e-02 2.258089e-02 2.314182e-02 2.203994e-02 2.207987e-02 2.264240e-02 2.138963e-02 2.273792e-02 2.165827e-02 2.206602e-02 2.223144e-02 2.143721e-02 2.255409e-02 2.158302e-02 2.206070e-02 2.220663e-02 2.145652e-02 2.269975e-02 2.136390e-02 2.230636e-02 2.196742e-02 2.166670e-02 2.252425e-02 2.138027e-02 2.231762e-02 2.198197e-02 2.173672e-02 2.268347e-02 2.136502e-02 2.271494e-02 2.199251e-02 2.211479e-02 2.306938e-02 2.258904e-02 2.318183e-02 2.195968e-02 2.216901e-02 2.255439e-02 2.143947e-02 2.277783e-02 2.157199e-02 2.216043e-02 2.213194e-02 2.152551e-02 2.256260e-02 2.148852e-02 2.216195e-02 2.210801e-02 2.154702e-02 2.267476e-02 2.129498e-02 2.240106e-02 2.187937e-02 2.174905e-02 2.247696e-02 2.134940e-02 2.239680e-02 2.190052e-02 2.181855e-02 2.261561e-02 2.137030e-02 2.278399e-02 2.190970e-02 2.220544e-02 2.300507e-02 2.261827e-02 2.320850e-02 2.188302e-02 2.227115e-02 2.246117e-02 2.152869e-02 2.280367e-02 2.148742e-02 2.227405e-02 2.204155e-02 2.163677e-02 2.255711e-02 2.142917e-02 2.228487e-02 2.203283e-02 2.167067e-02 2.265606e-02 2.129685e-02 2.254428e-02 2.183887e-02 2.192070e-02 2.248047e-02 2.142563e-02 2.254898e-02 2.186250e-02 2.195582e-02 2.250276e-02 2.139211e-02 2.275985e-02 2.166987e-02 2.224109e-02 2.228390e-02 2.165708e-02 2.271875e-02 2.170605e-02 2.233542e-02 2.227026e-02 2.176881e-02 2.283519e-02 2.152979e-02 2.265571e-02 2.201994e-02 2.208750e-02 2.263536e-02 2.158744e-02 2.266956e-02 2.189316e-02 2.206178e-02 2.241868e-02 2.127605e-02 2.252925e-02 2.123498e-02 2.178694e-02 2.154108e-02 2.063323e-02 2.163779e-02 2.017785e-02 2.088855e-02 1.968186e-02 1.632521e-02 1.545430e-02 1.535729e-02 1.549187e-02 1.658550e-02 
2.420939e-02 2.664862e-02 2.983319e-02 3.523165e-02 4.015734e-02 4.746979e-02 4.725528e-02 3.933101e-02 4.494719e-02 3.340213e-02 3.594449e-02 3.510573e-02 3.884081e-02 4.045644e-02 3.962068e-02 3.993379e-02 3.956994e-02 3.951643e-02 3.907233e-02 3.878329e-02 3.908586e-02 3.693506e-02 3.826862e-02 1.364917e-02 3.898423e-02 2.376331e-02 2.890138e-02 3.896380e-02 2.371428e-02 4.195324e-02 2.945072e-02 3.432130e-02 4.026848e-02 2.742262e-02 4.297291e-02 3.008386e-02 3.743860e-02 3.747816e-02 3.053691e-02 3.965751e-02 3.071460e-02 3.568146e-02 3.460006e-02 3.004888e-02 3.589636e-02 2.895903e-02 3.328639e-02 3.049350e-02 2.942376e-02 3.122031e-02 2.802173e-02 2.979459e-02 2.832058e-02 2.757139e-02 2.871477e-02 2.637687e-02 2.814379e-02 2.618118e-02 2.713528e-02 2.636058e-02 2.628294e-02 2.637686e-02 2.607062e-02 2.662378e-02 2.740055e-02 2.653051e-02 2.632876e-02 2.522002e-02 2.617003e-02 2.493297e-02 2.586830e-02 2.510693e-02 2.545071e-02 2.530441e-02 2.518861e-02 2.523703e-02 2.537143e-02 2.488920e-02 2.567454e-02 2.459254e-02 2.576071e-02 2.471381e-02 2.544871e-02 2.503207e-02 2.511653e-02 2.521463e-02 2.513578e-02 2.497933e-02 2.546938e-02 2.465519e-02 2.575837e-02 2.458394e-02 2.562519e-02 2.500445e-02 2.543876e-02 2.604352e-02 2.663709e-02 2.603824e-02 2.553848e-02 2.491198e-02 2.570958e-02 2.454275e-02 2.570500e-02 2.473593e-02 2.534983e-02 2.506956e-02 2.504080e-02 2.517693e-02 2.518335e-02 2.488287e-02 2.553682e-02 2.456140e-02 2.573617e-02 2.460699e-02 2.548241e-02 2.493736e-02 2.513851e-02 2.519316e-02 2.506806e-02 2.502390e-02 2.539780e-02 2.469147e-02 2.573038e-02 2.455050e-02 2.566651e-02 2.494854e-02 2.548020e-02 2.602108e-02 2.662974e-02 2.606300e-02 2.548910e-02 2.495684e-02 2.566860e-02 2.455188e-02 2.573142e-02 2.469079e-02 2.539874e-02 2.502295e-02 2.506817e-02 2.519304e-02 2.513803e-02 2.493783e-02 2.548158e-02 2.460702e-02 2.573595e-02 2.456102e-02 2.553718e-02 2.488205e-02 2.518329e-02 2.517652e-02 2.504001e-02 2.506958e-02 2.534830e-02 2.473516e-02 2.570299e-02 2.453962e-02 2.570530e-02 2.490221e-02 2.552580e-02 2.599374e-02 2.663392e-02 2.608327e-02 2.544529e-02 2.500593e-02 2.562449e-02 2.457577e-02 2.575148e-02 2.464619e-02 2.545321e-02 2.497015e-02 2.511100e-02 2.519715e-02 2.509216e-02 2.499319e-02 2.542588e-02 2.465318e-02 2.572246e-02 2.452873e-02 2.558589e-02 2.483187e-02 2.522735e-02 2.515254e-02 2.502566e-02 2.511010e-02 2.530290e-02 2.478067e-02 2.567046e-02 2.454302e-02 2.574061e-02 2.485935e-02 2.557743e-02 2.596263e-02 2.665058e-02 2.609975e-02 2.540633e-02 2.506626e-02 2.557991e-02 2.462368e-02 2.576961e-02 2.461078e-02 2.552379e-02 2.492657e-02 2.517754e-02 2.520437e-02 2.507713e-02 2.507303e-02 2.539713e-02 2.473932e-02 2.573449e-02 2.455725e-02 2.568982e-02 2.483685e-02 2.535713e-02 2.519043e-02 2.510963e-02 2.523805e-02 2.532875e-02 2.493028e-02 2.568724e-02 2.464255e-02 2.583470e-02 2.477678e-02 2.557912e-02 2.512368e-02 2.527358e-02 2.536828e-02 2.528870e-02 2.519855e-02 2.560089e-02 2.489359e-02 2.591820e-02 2.475727e-02 2.586619e-02 2.500317e-02 2.555732e-02 2.534420e-02 2.526627e-02 2.539978e-02 2.537040e-02 2.505564e-02 2.563755e-02 2.456986e-02 2.570450e-02 2.442424e-02 2.524233e-02 2.450680e-02 2.446691e-02 2.443252e-02 2.390026e-02 2.360419e-02 2.315402e-02 2.115918e-02 2.135040e-02 2.088046e-02 2.179871e-02 2.248473e-02 