# vtk DataFile Version 2.0
Comment goes here
ASCII

DATASET STRUCTURED_POINTS
FIELD FieldData 1
TIME 1 1 double
0.07900000
DIMENSIONS    64   64   1

ORIGIN    0.000   0.000   0.000
SPACING   0.03125 0.03125   1.000

POINT_DATA   4096
SCALARS uX double
LOOKUP_TABLE default

4.929351e-01 -1.800672e+00 2.851010e-01 -1.738512e+00 1.638721e-02 -1.692441e+00 3.032849e-01 -1.566032e+00 4.376939e-01 -1.489186e+00 4.763847e-01 -1.393963e+00 4.251165e-01 -1.245384e+00 2.905823e-01 -1.043192e+00 9.883348e-02 -8.119532e-01 -1.127773e-01 -5.807223e-01 -3.209508e-01 -3.568956e-01 -5.214165e-01 -1.461542e-01 -7.047221e-01 4.064925e-02 -8.657176e-01 2.052918e-01 -1.010339e+00 3.619900e-01 -1.149488e+00 5.105446e-01 -1.270299e+00 6.282755e-01 -1.350497e+00 6.971485e-01 -1.381814e+00 7.188717e-01 -1.370745e+00 7.021643e-01 -1.331983e+00 6.606836e-01 -1.280856e+00 6.073570e-01 -1.220603e+00 5.337120e-01 -1.132774e+00 4.166788e-01 -1.003580e+00 2.473119e-01 -8.341404e-01 2.484709e-02 -6.217179e-01 -2.520948e-01 -3.711943e-01 -5.761308e-01 -9.265722e-02 -9.413441e-01 1.976688e-01 -1.319624e+00 4.594044e-01 -1.668685e+00 6.464430e-01 -1.953911e+00 
-2.803003e-01 3.264899e-01 -7.834308e-02 3.027916e-01 2.501297e-01 2.795253e-01 -1.973981e-01 1.329464e-01 -4.235089e-01 6.595051e-02 -5.390256e-01 1.028843e-02 -5.758663e-01 -6.708942e-02 -5.517638e-01 -1.711715e-01 -4.872562e-01 -2.893909e-01 -4.086798e-01 -4.050419e-01 -3.320137e-01 -5.178779e-01 -2.550656e-01 -6.229582e-01 -1.830048e-01 -7.110032e-01 -1.219686e-01 -7.889109e-01 -7.033786e-02 -8.650858e-01 -2.043946e-02 -9.353023e-01 2.043195e-02 -9.877226e-01 3.916524e-02 -1.016517e+00 3.364718e-02 -1.023732e+00 8.959053e-03 -1.006758e+00 -2.942513e-02 -9.692346e-01 -7.062105e-02 -9.318868e-01 -1.087102e-01 -8.869115e-01 -1.566251e-01 -8.124026e-01 -2.228165e-01 -7.056151e-01 -3.023743e-01 -5.720986e-01 -3.931231e-01 -4.111057e-01 -4.902894e-01 -2.268910e-01 -5.877257e-01 -2.051947e-02 -6.767019e-01 1.931537e-01 -7.291312e-01 3.839179e-01 -7.081556e-01 5.276287e-01 
2.097229e+00 6.137052e-01 1.691027e+00 5.872160e-01 1.238689e+00 5.576740e-01 2.024406e+00 7.291550e-01 2.455189e+00 7.553744e-01 2.752828e+00 6.973182e-01 3.010698e+00 5.783134e-01 3.267818e+00 4.187520e-01 3.526369e+00 2.459614e-01 3.771883e+00 8.534396e-02 3.991904e+00 -5.259345e-02 4.185076e+00 -1.778689e-01 4.348028e+00 -2.927760e-01 4.485727e+00 -3.806253e-01 4.608605e+00 -4.522947e-01 4.722479e+00 -5.193701e-01 4.814146e+00 -5.627823e-01 4.875149e+00 -5.683112e-01 4.905113e+00 -5.358752e-01 4.896100e+00 -4.811120e-01 4.853975e+00 -4.264164e-01 4.800269e+00 -3.669548e-01 4.740250e+00 -3.008321e-01 4.648617e+00 -2.178391e-01 4.504294e+00 -1.145613e-01 4.320319e+00 1.204661e-02 4.088258e+00 1.625900e-01 3.803961e+00 3.279514e-01 3.469581e+00 5.067493e-01 3.088737e+00 6.834855e-01 2.672860e+00 8.372927e-01 2.244560e+00 8.622282e-01 
4.458514e+00 1.365468e-01 3.415784e+00 -2.775595e-01 1.789775e+00 -2.667224e-01 4.054738e+00 -8.608213e-03 5.127696e+00 7.263009e-02 5.792072e+00 1.119291e-01 6.261003e+00 1.596571e-01 6.609586e+00 2.257093e-01 6.877562e+00 3.033072e-01 7.093414e+00 3.780903e-01 7.268364e+00 4.519082e-01 7.407705e+00 5.207831e-01 7.519984e+00 5.769294e-01 7.609262e+00 6.215259e-01 7.679763e+00 6.641439e-01 7.727712e+00 7.056747e-01 7.758416e+00 7.398828e-01 7.780510e+00 7.631820e-01 7.796033e+00 7.768570e-01 7.803928e+00 7.801438e-01 7.799966e+00 7.776552e-01 7.773042e+00 7.775800e-01 7.717913e+00 7.779187e-01 7.639853e+00 7.690683e-01 7.538702e+00 7.513297e-01 7.404124e+00 7.275326e-01 7.234633e+00 6.953266e-01 7.024412e+00 6.524213e-01 6.763859e+00 5.888144e-01 6.439374e+00 4.984651e-01 6.019107e+00 3.805808e-01 5.458299e+00 2.034876e-01 
4.663748e+00 3.543246e-01 3.789099e+00 -8.443764e-02 2.445788e+00 -8.776034e-02 4.064897e+00 -1.337051e-01 5.099648e+00 -5.320926e-02 5.793926e+00 3.481348e-02 6.295698e+00 1.228449e-01 6.677325e+00 2.131758e-01 6.979071e+00 3.034407e-01 7.224332e+00 3.865945e-01 7.419858e+00 4.559989e-01 7.572967e+00 5.200637e-01 7.692904e+00 5.828541e-01 7.786473e+00 6.318127e-01 7.852126e+00 6.681136e-01 7.893310e+00 7.016200e-01 7.919190e+00 7.293498e-01 7.931359e+00 7.495939e-01 7.928176e+00 7.596325e-01 7.915980e+00 7.642638e-01 7.894181e+00 7.717521e-01 7.852245e+00 7.749147e-01 7.782557e+00 7.719020e-01 7.690055e+00 7.617150e-01 7.577675e+00 7.491605e-01 7.431165e+00 7.338145e-01 7.246278e+00 7.149453e-01 7.019993e+00 6.952586e-01 6.743959e+00 6.681875e-01 6.405467e+00 6.247263e-01 5.989795e+00 5.438240e-01 5.471871e+00 4.825857e-01 
4.998718e+00 1.321693e-01 4.171729e+00 1.733342e-03 3.079435e+00 -8.744179e-03 4.202478e+00 -6.157711e-02 5.217543e+00 -2.125275e-03 5.926511e+00 6.852147e-02 6.426248e+00 1.401283e-01 6.796817e+00 2.172788e-01 7.083578e+00 3.004186e-01 7.314169e+00 3.820177e-01 7.492408e+00 4.595307e-01 7.630656e+00 5.311865e-01 7.737461e+00 5.943791e-01 7.816931e+00 6.471678e-01 7.873198e+00 6.941082e-01 7.909266e+00 7.372283e-01 7.929091e+00 7.734730e-01 7.937266e+00 8.018084e-01 7.936288e+00 8.240632e-01 7.926785e+00 8.405875e-01 7.906603e+00 8.512066e-01 7.869587e+00 8.560432e-01 7.810882e+00 8.526813e-01 7.728158e+00 8.375281e-01 7.617794e+00 8.105657e-01 7.475716e+00 7.727629e-01 7.303342e+00 7.242732e-01 7.098522e+00 6.634657e-01 6.852490e+00 5.866068e-01 6.550818e+00 4.904173e-01 6.171033e+00 3.680459e-01 5.683856e+00 2.187124e-01 
5.244691e+00 2.830887e-01 4.585376e+00 1.770842e-01 3.686529e+00 1.656250e-01 4.456741e+00 2.262054e-02 5.245378e+00 1.320028e-03 5.883718e+00 5.287460e-02 6.367736e+00 1.289649e-01 6.740566e+00 2.134278e-01 7.038003e+00 3.022527e-01 7.286485e+00 3.871154e-01 7.478092e+00 4.650499e-01 7.625224e+00 5.331428e-01 7.738174e+00 5.891941e-01 7.823526e+00 6.343553e-01 7.884221e+00 6.705657e-01 7.923989e+00 7.003824e-01 7.948521e+00 7.243917e-01 7.960298e+00 7.431488e-01 7.960179e+00 7.574496e-01 7.949735e+00 7.685254e-01 7.927376e+00 7.767234e-01 7.888116e+00 7.797836e-01 7.827304e+00 7.762104e-01 7.744360e+00 7.660918e-01 7.638358e+00 7.510938e-01 7.504290e+00 7.309048e-01 7.335466e+00 7.052286e-01 7.130106e+00 6.737533e-01 6.885295e+00 6.328376e-01 6.593741e+00 5.775648e-01 6.242631e+00 5.032544e-01 5.808096e+00 4.042683e-01 
5.602103e+00 1.991028e-01 5.015017e+00 2.065729e-01 4.271684e+00 1.949107e-01 4.820487e+00 9.106272e-02 5.467444e+00 5.286387e-02 6.051454e+00 8.283032e-02 6.512353e+00 1.451614e-01 6.868383e+00 2.216233e-01 7.148587e+00 3.091467e-01 7.385885e+00 3.983401e-01 7.559982e+00 4.817305e-01 7.689708e+00 5.526271e-01 7.787568e+00 6.093972e-01 7.860182e+00 6.556024e-01 7.911836e+00 6.955486e-01 7.945909e+00 7.310251e-01 7.965980e+00 7.617439e-01 7.975135e+00 7.881161e-01 7.975588e+00 8.108462e-01 7.968264e+00 8.291724e-01 7.951766e+00 8.412084e-01 7.921674e+00 8.450850e-01 7.873526e+00 8.379744e-01 7.802255e+00 8.183367e-01 7.700086e+00 7.878052e-01 7.565388e+00 7.448846e-01 7.405659e+00 6.917134e-01 7.224709e+00 6.285646e-01 7.015387e+00 5.548321e-01 6.766678e+00 4.699296e-01 6.463646e+00 3.741400e-01 6.086290e+00 2.732233e-01 
5.901522e+00 3.163675e-01 5.439620e+00 3.246590e-01 4.830961e+00 3.130353e-01 5.204464e+00 1.878085e-01 5.655413e+00 9.756012e-02 6.122132e+00 9.193912e-02 6.530311e+00 1.434518e-01 6.864329e+00 2.220315e-01 7.138169e+00 3.138760e-01 7.392162e+00 4.119842e-01 7.572643e+00 4.993640e-01 7.704907e+00 5.667870e-01 7.803945e+00 6.150085e-01 7.876917e+00 6.511434e-01 7.928811e+00 6.805611e-01 7.963776e+00 7.047867e-01 7.986118e+00 7.238642e-01 7.998065e+00 7.395063e-01 8.001103e+00 7.538389e-01 7.995500e+00 7.673810e-01 7.978706e+00 7.784992e-01 7.946171e+00 7.841453e-01 7.894229e+00 7.802978e-01 7.821287e+00 7.668894e-01 7.726432e+00 7.478928e-01 7.609893e+00 7.204940e-01 7.461342e+00 6.836897e-01 7.283005e+00 6.377901e-01 7.080492e+00 5.842921e-01 6.852679e+00 5.245764e-01 6.590677e+00 4.575242e-01 6.279985e+00 3.816016e-01 
6.252693e+00 2.757033e-01 5.860056e+00 3.339486e-01 5.368694e+00 3.230754e-01 5.622916e+00 2.202689e-01 5.960876e+00 1.303344e-01 6.347585e+00 1.086582e-01 6.711401e+00 1.503322e-01 7.016913e+00 2.307808e-01 7.261830e+00 3.261144e-01 7.514445e+00 4.453220e-01 7.672710e+00 5.386838e-01 7.779981e+00 6.006436e-01 7.860362e+00 6.415452e-01 7.921265e+00 6.734820e-01 7.965593e+00 7.031134e-01 7.995473e+00 7.308845e-01 8.013858e+00 7.554799e-01 8.022912e+00 7.780471e-01 8.025381e+00 7.997550e-01 8.022968e+00 8.192821e-01 8.014706e+00 8.334859e-01 7.995437e+00 8.396009e-01 7.961112e+00 8.323838e-01 7.905067e+00 8.106170e-01 7.810079e+00 7.784006e-01 7.678022e+00 7.241235e-01 7.527895e+00 6.583790e-01 7.376715e+00 5.874156e-01 7.214951e+00 5.135371e-01 7.033576e+00 4.393030e-01 6.822054e+00 3.672959e-01 6.567167e+00 3.039340e-01 
6.557139e+00 3.647201e-01 6.262506e+00 4.254547e-01 5.881125e+00 4.152861e-01 6.019326e+00 3.021238e-01 6.224073e+00 1.746209e-01 6.502093e+00 1.074998e-01 6.801799e+00 1.274025e-01 7.067858e+00 2.261787e-01 7.280918e+00 3.302278e-01 7.567718e+00 4.887250e-01 7.718598e+00 5.830948e-01 7.816194e+00 6.319804e-01 7.891096e+00 6.574825e-01 7.946505e+00 6.762945e-01 7.986712e+00 6.959726e-01 8.014867e+00 7.144148e-01 8.034067e+00 7.279075e-01 8.045350e+00 7.381830e-01 8.052137e+00 7.488053e-01 8.055001e+00 7.619297e-01 8.049056e+00 7.767177e-01 8.027565e+00 7.904408e-01 7.985319e+00 7.929370e-01 7.920845e+00 7.773248e-01 7.836916e+00 7.566688e-01 7.740137e+00 7.238733e-01 7.609331e+00 6.688124e-01 7.452378e+00 5.966357e-01 7.294214e+00 5.272109e-01 7.138623e+00 4.688984e-01 6.973570e+00 4.190896e-01 6.784777e+00 3.772274e-01 
6.888860e+00 3.422218e-01 6.656129e+00 4.298725e-01 6.372162e+00 4.209731e-01 6.428448e+00 3.242031e-01 6.555267e+00 1.956192e-01 6.760320e+00 9.292044e-02 7.015862e+00 7.060112e-02 7.258378e+00 1.996114e-01 7.409140e+00 3.469912e-01 7.739205e+00 5.950102e-01 7.839044e+00 6.599108e-01 7.892507e+00 6.774808e-01 7.947238e+00 6.842960e-01 7.993944e+00 6.934665e-01 8.030105e+00 7.109740e-01 8.055540e+00 7.325630e-01 8.071867e+00 7.523210e-01 8.079184e+00 7.714673e-01 8.083051e+00 7.911242e-01 8.087772e+00 8.090592e-01 8.093246e+00 8.230022e-01 8.090164e+00 8.346695e-01 8.075937e+00 8.348545e-01 8.044886e+00 8.235868e-01 7.949548e+00 8.132998e-01 7.800860e+00 7.224065e-01 7.641159e+00 6.234209e-01 7.524751e+00 5.358639e-01 7.419740e+00 4.594130e-01 7.315498e+00 3.992717e-01 7.200358e+00 3.545281e-01 7.062176e+00 3.277201e-01 
7.178914e+00 4.148602e-01 7.024774e+00 5.112007e-01 6.838351e+00 5.037787e-01 6.796311e+00 4.152085e-01 6.824962e+00 2.612039e-01 6.942257e+00 7.656501e-02 7.148863e+00 -6.314536e-02 7.371930e+00 8.171184e-02 7.448754e+00 3.821871e-01 7.890422e+00 7.602072e-01 7.912414e+00 7.357416e-01 7.938703e+00 7.167095e-01 7.988405e+00 7.014750e-01 8.024471e+00 6.963831e-01 8.052614e+00 7.081694e-01 8.075376e+00 7.259955e-01 8.092083e+00 7.380583e-01 8.099090e+00 7.434452e-01 8.108082e+00 7.442626e-01 8.123923e+00 7.471401e-01 8.136140e+00 7.590571e-01 8.134872e+00 7.831048e-01 8.109260e+00 8.131274e-01 8.048273e+00 8.168150e-01 7.966293e+00 7.985439e-01 7.889787e+00 7.864218e-01 7.756566e+00 6.672031e-01 7.598034e+00 5.291353e-01 7.491857e+00 4.451159e-01 7.423299e+00 4.046060e-01 7.358993e+00 3.850865e-01 7.281532e+00 3.811091e-01 
7.486198e+00 4.048237e-01 7.385071e+00 5.167260e-01 7.283118e+00 5.111090e-01 7.179476e+00 4.616325e-01 7.151005e+00 3.451143e-01 7.196972e+00 1.335267e-01 7.345190e+00 -1.905095e-01 7.592047e+00 -2.022829e-01 7.618736e+00 4.616465e-01 8.176082e+00 1.049753e+00 8.001027e+00 7.543520e-01 7.985976e+00 7.235170e-01 8.035537e+00 7.057509e-01 8.069623e+00 6.954153e-01 8.098323e+00 7.033240e-01 8.124119e+00 7.259805e-01 8.141586e+00 7.505118e-01 8.142834e+00 7.745710e-01 8.143190e+00 7.943318e-01 8.154066e+00 8.002398e-01 8.180268e+00 7.959446e-01 8.201194e+00 8.011508e-01 8.223448e+00 8.119242e-01 8.256775e+00 8.579335e-01 8.150147e+00 1.058572e+00 7.898142e+00 7.432940e-01 7.684936e+00 5.642160e-01 7.632285e+00 4.437488e-01 7.607903e+00 3.716494e-01 7.598226e+00 3.449912e-01 7.580369e+00 3.393120e-01 7.544910e+00 3.508625e-01 
7.753060e+00 4.667805e-01 7.716254e+00 5.874738e-01 7.703466e+00 5.837983e-01 7.512330e+00 5.780424e-01 7.393184e+00 5.145737e-01 7.343599e+00 3.149293e-01 7.424478e+00 -1.091923e-01 7.629546e+00 -3.638213e-01 7.738281e+00 3.327212e-01 8.247845e+00 1.041026e+00 7.912068e+00 4.641138e-01 7.984249e+00 5.624776e-01 8.058665e+00 5.817031e-01 8.075894e+00 6.060281e-01 8.094797e+00 6.552304e-01 8.123246e+00 7.052084e-01 8.145807e+00 7.438520e-01 8.138973e+00 7.607570e-01 8.142798e+00 7.468159e-01 8.178094e+00 7.116664e-01 8.219258e+00 7.107461e-01 8.248745e+00 7.042255e-01 8.280068e+00 7.267730e-01 8.261995e+00 8.414906e-01 8.130932e+00 9.118751e-01 8.062035e+00 9.205437e-01 7.796301e+00 5.524236e-01 7.652181e+00 3.447531e-01 7.666534e+00 3.143141e-01 7.712597e+00 3.339477e-01 7.742331e+00 3.589060e-01 7.756121e+00 3.928638e-01 
8.032025e+00 4.664292e-01 8.041472e+00 5.818969e-01 8.102080e+00 5.794272e-01 7.869397e+00 6.070699e-01 7.714816e+00 6.485944e-01 7.613694e+00 7.169584e-01 7.536633e+00 7.657537e-01 7.460359e+00 4.108576e-01 7.583643e+00 -5.726138e-02 7.092099e+00 -9.821168e-01 7.194646e+00 -7.721921e-01 7.458072e+00 -4.761242e-01 7.566567e+00 -2.892857e-01 7.646313e+00 -9.803032e-02 7.703166e+00 7.823897e-02 7.762463e+00 2.374588e-01 7.814726e+00 3.692401e-01 7.843266e+00 4.615201e-01 7.878063e+00 5.225401e-01 7.931603e+00 5.618466e-01 7.998529e+00 6.251149e-01 8.047623e+00 7.051863e-01 8.115189e+00 8.152880e-01 8.239103e+00 1.206451e+00 8.161737e+00 2.298415e+00 8.139819e+00 1.573380e+00 7.715003e+00 4.612214e-01 7.679397e+00 1.890425e-01 7.809936e+00 2.335788e-01 7.909448e+00 2.969929e-01 7.965011e+00 3.380012e-01 8.003535e+00 3.816815e-01 
8.268718e+00 5.103064e-01 8.338112e+00 6.152336e-01 8.476700e+00 6.140173e-01 8.194190e+00 6.716945e-01 7.965767e+00 8.339351e-01 7.692691e+00 1.232530e+00 7.213007e+00 1.844176e+00 6.562411e+00 1.520994e+00 6.368410e+00 -9.854167e-01 4.382433e+00 -3.130458e+00 5.357550e+00 -2.318783e+00 5.131145e+00 -2.594171e+00 5.070291e+00 -2.532487e+00 5.139129e+00 -2.442671e+00 5.221355e+00 -2.393195e+00 5.277999e+00 -2.344192e+00 5.337250e+00 -2.259837e+00 5.441548e+00 -2.140832e+00 5.503377e+00 -1.992299e+00 5.494715e+00 -1.829708e+00 5.477734e+00 -1.707579e+00 5.521859e+00 -1.578602e+00 5.629993e+00 -1.439133e+00 5.876467e+00 -1.329834e+00 6.329714e+00 -1.182827e+00 6.700995e+00 -8.343263e-01 7.229572e+00 -3.749706e-01 7.707118e+00 1.149069e-02 7.940938e+00 2.064728e-01 8.047843e+00 2.997150e-01 8.121114e+00 3.564558e-01 8.194455e+00 4.151634e-01 
8.513963e+00 5.087384e-01 8.627829e+00 5.989884e-01 8.829293e+00 5.995554e-01 8.496078e+00 6.499713e-01 8.204257e+00 7.750643e-01 7.851064e+00 1.074715e+00 7.317378e+00 1.543959e+00 6.678855e+00 1.401234e+00 6.475889e+00 1.855287e-02 5.026829e+00 -1.496808e+00 5.102217e+00 -1.431801e+00 4.919843e+00 -1.904635e+00 4.733064e+00 -2.120418e+00 4.650569e+00 -2.309972e+00 4.604619e+00 -2.528464e+00 4.558375e+00 -2.743899e+00 4.533764e+00 -2.903387e+00 4.583876e+00 -2.997437e+00 4.598400e+00 -3.031745e+00 4.517604e+00 -2.998750e+00 4.376384e+00 -3.000037e+00 4.302007e+00 -3.014092e+00 4.231318e+00 -3.046897e+00 4.148574e+00 -3.682566e+00 4.908852e+00 -5.858597e+00 6.029017e+00 -3.533829e+00 7.734462e+00 -7.772824e-01 8.224688e+00 1.396383e-01 8.272906e+00 3.188854e-01 8.279390e+00 3.440000e-01 8.329003e+00 3.663689e-01 8.413427e+00 4.158293e-01 
8.717355e+00 5.339747e-01 8.889352e+00 6.140669e-01 9.157966e+00 6.165045e-01 8.777892e+00 6.314479e-01 8.460092e+00 6.061176e-01 8.173072e+00 5.025217e-01 7.943679e+00 3.288408e-01 7.788650e+00 3.112200e-01 7.606480e+00 1.005156e+00 7.917310e+00 1.180710e+00 7.351803e+00 6.516636e-01 7.508909e+00 6.375600e-01 7.462045e+00 4.668665e-01 7.372396e+00 2.879895e-01 7.289889e+00 1.029281e-01 7.235717e+00 -7.987828e-02 7.191476e+00 -2.492992e-01 7.148517e+00 -4.018400e-01 7.108273e+00 -5.306319e-01 7.055311e+00 -6.402455e-01 6.997839e+00 -7.682738e-01 6.949317e+00 -9.047910e-01 6.919186e+00 -1.067234e+00 6.934573e+00 -1.286835e+00 7.048566e+00 -1.488850e+00 7.039961e+00 -1.595384e+00 7.604694e+00 -6.678432e-01 8.013865e+00 -4.036092e-02 8.210883e+00 2.154386e-01 8.326960e+00 3.135945e-01 8.439795e+00 3.721278e-01 8.570503e+00 4.383941e-01 
8.930724e+00 5.219055e-01 9.144135e+00 5.890434e-01 9.464845e+00 5.928389e-01 9.058886e+00 6.034311e-01 8.730500e+00 5.444815e-01 8.481680e+00 3.100031e-01 8.398501e+00 -1.356234e-01 8.452166e+00 -1.675174e-01 8.233329e+00 4.020265e-01 8.798541e+00 1.385589e+00 8.555075e+00 9.779742e-01 8.437317e+00 9.458134e-01 8.427277e+00 8.898011e-01 8.385488e+00 8.549484e-01 8.355293e+00 8.511604e-01 8.345170e+00 8.492908e-01 8.342209e+00 8.339365e-01 8.319977e+00 7.964608e-01 8.317829e+00 7.305308e-01 8.352725e+00 6.402521e-01 8.399331e+00 5.875343e-01 8.431363e+00 5.321248e-01 8.489988e+00 4.965978e-01 8.586241e+00 7.646956e-01 8.486456e+00 1.676068e+00 8.343661e+00 9.238105e-01 8.019150e+00 5.243758e-02 8.118926e+00 2.236350e-02 8.311438e+00 1.827746e-01 8.467602e+00 2.942459e-01 8.606154e+00 3.635428e-01 8.757466e+00 4.319954e-01 
9.101840e+00 5.296677e-01 9.370842e+00 5.785363e-01 9.748196e+00 5.829975e-01 9.339222e+00 5.786226e-01 9.015560e+00 5.296828e-01 8.780836e+00 4.069986e-01 8.676064e+00 2.163780e-01 8.684777e+00 2.291987e-01 8.596987e+00 5.756514e-01 8.837178e+00 9.380184e-01 8.578414e+00 8.649692e-01 8.483864e+00 8.266315e-01 8.442668e+00 7.912707e-01 8.414838e+00 7.734902e-01 8.394474e+00 7.783086e-01 8.381099e+00 7.917449e-01 8.370514e+00 7.981899e-01 8.352546e+00 7.950552e-01 8.348322e+00 7.751869e-01 8.372766e+00 7.394898e-01 8.412332e+00 7.247175e-01 8.444785e+00 7.233084e-01 8.476631e+00 7.556949e-01 8.484420e+00 8.789795e-01 8.416086e+00 1.025041e+00 8.533476e+00 1.017942e+00 8.331266e+00 4.952173e-01 8.265337e+00 2.449836e-01 8.368806e+00 2.461567e-01 8.525529e+00 3.105643e-01 8.695850e+00 3.764026e-01 8.885173e+00 4.475047e-01 
9.281564e+00 5.038089e-01 9.589788e+00 5.395456e-01 1.000977e+01 5.449705e-01 9.599073e+00 5.357808e-01 9.280752e+00 4.848793e-01 9.049956e+00 4.053650e-01 8.904031e+00 3.747366e-01 8.788405e+00 4.541557e-01 8.673959e+00 5.627640e-01 8.782478e+00 8.089685e-01 8.720143e+00 8.647645e-01 8.622368e+00 8.746209e-01 8.556996e+00 8.529228e-01 8.504037e+00 8.280645e-01 8.465981e+00 8.156706e-01 8.439158e+00 8.121686e-01 8.420104e+00 8.069266e-01 8.402633e+00 8.011873e-01 8.397493e+00 7.943002e-01 8.412782e+00 7.829024e-01 8.445604e+00 7.728670e-01 8.481027e+00 7.787742e-01 8.521323e+00 8.045902e-01 8.563926e+00 8.676124e-01 8.521225e+00 9.876603e-01 8.427444e+00 7.636482e-01 8.342872e+00 5.125096e-01 8.378786e+00 3.403467e-01 8.489725e+00 2.947124e-01 8.647627e+00 3.219806e-01 8.830131e+00 3.725801e-01 9.038182e+00 4.351096e-01 
9.423919e+00 5.106250e-01 9.778241e+00 5.360192e-01 1.024801e+01 5.425222e-01 9.831511e+00 5.502478e-01 9.504035e+00 5.371661e-01 9.251853e+00 5.084714e-01 9.066109e+00 5.037797e-01 8.920220e+00 5.548627e-01 8.803898e+00 6.335866e-01 8.790079e+00 7.390504e-01 8.706925e+00 8.061791e-01 8.631536e+00 8.275061e-01 8.569421e+00 8.231711e-01 8.520245e+00 8.135876e-01 8.480721e+00 8.084919e-01 8.449330e+00 8.043154e-01 8.426394e+00 7.949877e-01 8.410635e+00 7.825268e-01 8.407911e+00 7.705408e-01 8.421332e+00 7.630514e-01 8.444624e+00 7.642774e-01 8.467611e+00 7.759518e-01 8.486588e+00 7.873548e-01 8.501067e+00 7.829469e-01 8.506550e+00 7.830604e-01 8.532350e+00 7.416763e-01 8.511504e+00 6.076731e-01 8.516123e+00 4.635779e-01 8.588333e+00 3.857435e-01 8.727977e+00 3.753593e-01 8.916401e+00 4.041967e-01 9.146413e+00 4.547330e-01 
9.570505e+00 4.860814e-01 9.958173e+00 5.013092e-01 1.046425e+01 5.086742e-01 1.004376e+01 5.225442e-01 9.708676e+00 5.287833e-01 9.436944e+00 5.347190e-01 9.214356e+00 5.564763e-01 9.030214e+00 5.961458e-01 8.890352e+00 6.583366e-01 8.851424e+00 7.376299e-01 8.794285e+00 8.033339e-01 8.721478e+00 8.424910e-01 8.654406e+00 8.513077e-01 8.594749e+00 8.441953e-01 8.544867e+00 8.341518e-01 8.504490e+00 8.236061e-01 8.474818e+00 8.106396e-01 8.455317e+00 7.984277e-01 8.448803e+00 7.903708e-01 8.457446e+00 7.867788e-01 8.479163e+00 7.867214e-01 8.506003e+00 7.901074e-01 8.535769e+00 7.869122e-01 8.563521e+00 7.730087e-01 8.559891e+00 7.527190e-01 8.543254e+00 6.776981e-01 8.534317e+00 5.767490e-01 8.579079e+00 4.766910e-01 8.676669e+00 4.104357e-01 8.827228e+00 3.902818e-01 9.025469e+00 4.061942e-01 9.270065e+00 4.445674e-01 
9.685789e+00 4.999518e-01 1.010925e+01 5.094833e-01 1.065720e+01 5.179195e-01 1.022164e+01 5.436653e-01 9.871858e+00 5.674926e-01 9.581904e+00 5.871550e-01 9.339357e+00 6.114137e-01 9.141280e+00 6.444530e-01 8.988516e+00 6.914162e-01 8.894561e+00 7.383139e-01 8.810427e+00 7.877153e-01 8.733941e+00 8.221410e-01 8.664793e+00 8.345333e-01 8.603966e+00 8.322242e-01 8.551905e+00 8.239183e-01 8.509316e+00 8.124558e-01 8.478056e+00 7.976014e-01 8.458791e+00 7.823709e-01 8.452547e+00 7.711270e-01 8.459178e+00 7.659399e-01 8.475440e+00 7.651997e-01 8.496127e+00 7.641843e-01 8.519368e+00 7.531403e-01 8.545055e+00 7.313631e-01 8.567757e+00 7.094133e-01 8.596821e+00 6.685430e-01 8.624927e+00 6.037367e-01 8.670831e+00 5.273608e-01 8.757900e+00 4.649240e-01 8.901047e+00 4.355906e-01 9.102016e+00 4.402795e-01 9.360381e+00 4.687340e-01 
9.800476e+00 4.822476e-01 1.025016e+01 4.850528e-01 1.082800e+01 4.943242e-01 1.038306e+01 5.269243e-01 1.002252e+01 5.630083e-01 9.717920e+00 5.957022e-01 9.456951e+00 6.272369e-01 9.240079e+00 6.619878e-01 9.072843e+00 7.075267e-01 8.970095e+00 7.564712e-01 8.889022e+00 8.046715e-01 8.806153e+00 8.406743e-01 8.731069e+00 8.553217e-01 8.664064e+00 8.532670e-01 8.605754e+00 8.431683e-01 8.557031e+00 8.295857e-01 8.520329e+00 8.136098e-01 8.496931e+00 7.982024e-01 8.487466e+00 7.870403e-01 8.492302e+00 7.810093e-01 8.509827e+00 7.774857e-01 8.535357e+00 7.714660e-01 8.565176e+00 7.555296e-01 8.594402e+00 7.292733e-01 8.610792e+00 6.967102e-01 8.625975e+00 6.478307e-01 8.654047e+00 5.858483e-01 8.713596e+00 5.198724e-01 8.817045e+00 4.654989e-01 8.973382e+00 4.374947e-01 9.185673e+00 4.387606e-01 9.456758e+00 4.606793e-01 
9.888815e+00 5.018520e-01 1.036507e+01 5.015562e-01 1.097559e+01 5.116946e-01 1.051247e+01 5.464291e-01 1.013820e+01 5.845508e-01 9.822609e+00 6.182466e-01 9.550254e+00 6.498285e-01 9.321012e+00 6.794059e-01 9.140429e+00 7.166588e-01 9.004023e+00 7.602928e-01 8.917587e+00 8.115888e-01 8.826528e+00 8.426946e-01 8.742113e+00 8.525013e-01 8.668950e+00 8.473116e-01 8.606393e+00 8.349820e-01 8.555209e+00 8.195797e-01 8.517375e+00 8.011712e-01 8.494014e+00 7.815318e-01 8.485017e+00 7.651363e-01 8.490053e+00 7.550160e-01 8.506642e+00 7.501040e-01 8.530594e+00 7.459002e-01 8.557732e+00 7.349915e-01 8.587740e+00 7.156988e-01 8.618800e+00 6.924521e-01 8.655968e+00 6.600755e-01 8.712170e+00 6.102939e-01 8.772355e+00 5.455682e-01 8.869857e+00 4.898812e-01 9.026031e+00 4.619952e-01 9.244435e+00 4.637810e-01 9.526898e+00 4.845235e-01 
9.973247e+00 4.903692e-01 1.046798e+01 4.867125e-01 1.110090e+01 4.975742e-01 1.062646e+01 5.355357e-01 1.024329e+01 5.762131e-01 9.920226e+00 6.106169e-01 9.639479e+00 6.457834e-01 9.398453e+00 6.806702e-01 9.212424e+00 7.224592e-01 9.072792e+00 7.846194e-01 8.990515e+00 8.420142e-01 8.883503e+00 8.661401e-01 8.792210e+00 8.705881e-01 8.715541e+00 8.626678e-01 8.649417e+00 8.491763e-01 8.593692e+00 8.336857e-01 8.551389e+00 8.152421e-01 8.524491e+00 7.947939e-01 8.513141e+00 7.765342e-01 8.518360e+00 7.637010e-01 8.538568e+00 7.562726e-01 8.568750e+00 7.508767e-01 8.601574e+00 7.412756e-01 8.633370e+00 7.237231e-01 8.657134e+00 6.978550e-01 8.685819e+00 6.608487e-01 8.734353e+00 6.014903e-01 8.795867e+00 5.299129e-01 8.904221e+00 4.742531e-01 9.074123e+00 4.504644e-01 9.304795e+00 4.558483e-01 9.598149e+00 4.768975e-01 
1.003473e+01 5.151655e-01 1.054661e+01 5.119604e-01 1.120312e+01 5.235717e-01 1.070826e+01 5.603540e-01 1.031208e+01 5.913038e-01 9.984088e+00 6.075541e-01 9.700311e+00 6.338987e-01 9.445604e+00 6.638580e-01 9.254135e+00 6.947579e-01 9.080960e+00 7.922695e-01 9.035067e+00 8.872088e-01 8.907856e+00 8.843917e-01 8.799059e+00 8.744949e-01 8.714983e+00 8.600491e-01 8.643083e+00 8.437032e-01 8.584480e+00 8.268323e-01 8.541382e+00 8.061195e-01 8.514101e+00 7.791858e-01 8.503017e+00 7.512427e-01 8.511117e+00 7.299038e-01 8.535249e+00 7.192827e-01 8.569119e+00 7.210247e-01 8.601197e+00 7.317996e-01 8.628543e+00 7.332392e-01 8.661534e+00 7.169797e-01 8.694105e+00 7.065286e-01 8.782366e+00 6.430039e-01 8.823248e+00 5.322956e-01 8.923533e+00 4.657949e-01 9.102850e+00 4.524813e-01 9.344885e+00 4.705252e-01 9.647998e+00 4.993201e-01 
1.009055e+01 5.102409e-01 1.061227e+01 5.065094e-01 1.128295e+01 5.187205e-01 1.077600e+01 5.595392e-01 1.037138e+01 5.892060e-01 1.003961e+01 5.886726e-01 9.758588e+00 5.925421e-01 9.499819e+00 6.324836e-01 9.304570e+00 6.592236e-01 9.155411e+00 8.811879e-01 9.112525e+00 9.416442e-01 8.933204e+00 8.984945e-01 8.828910e+00 8.831495e-01 8.748991e+00 8.680135e-01 8.676385e+00 8.524885e-01 8.613543e+00 8.380115e-01 8.566601e+00 8.183781e-01 8.536132e+00 7.914874e-01 8.521877e+00 7.615083e-01 8.530614e+00 7.331846e-01 8.561264e+00 7.166004e-01 8.605206e+00 7.147379e-01 8.648736e+00 7.289197e-01 8.683101e+00 7.583915e-01 8.696487e+00 7.649861e-01 8.724720e+00 7.420945e-01 8.781466e+00 6.253689e-01 8.816021e+00 4.908408e-01 8.934630e+00 4.292686e-01 9.133238e+00 4.301952e-01 9.387350e+00 4.592125e-01 9.697318e+00 4.935240e-01 
1.012489e+01 5.396010e-01 1.065433e+01 5.394693e-01 1.133985e+01 5.524426e-01 1.081195e+01 6.066926e-01 1.038844e+01 6.403757e-01 1.004407e+01 5.938036e-01 9.773123e+00 5.103080e-01 9.513050e+00 5.360322e-01 9.304588e+00 4.960166e-01 9.146979e+00 9.958650e-01 9.207948e+00 1.093969e+00 8.923425e+00 8.774545e-01 8.818726e+00 8.696764e-01 8.741899e+00 8.595071e-01 8.660748e+00 8.491258e-01 8.593304e+00 8.357318e-01 8.547792e+00 8.144728e-01 8.515101e+00 7.802866e-01 8.496186e+00 7.354245e-01 8.509215e+00 6.845304e-01 8.549250e+00 6.550842e-01 8.602188e+00 6.540771e-01 8.656122e+00 6.917153e-01 8.678575e+00 7.987548e-01 8.687451e+00 8.221475e-01 8.714085e+00 9.244915e-01 8.837648e+00 6.611545e-01 8.779822e+00 4.002498e-01 8.922233e+00 3.760094e-01 9.150539e+00 4.214385e-01 9.414927e+00 4.727919e-01 9.727953e+00 5.173351e-01 
1.015267e+01 5.394013e-01 1.068348e+01 5.397519e-01 1.137423e+01 5.530995e-01 1.083708e+01 6.179635e-01 1.040389e+01 6.680181e-01 1.004699e+01 6.338651e-01 9.763357e+00 5.469390e-01 9.492431e+00 5.552142e-01 9.257283e+00 5.013338e-01 9.142413e+00 1.019717e+00 9.127804e+00 9.974808e-01 8.811394e+00 7.659648e-01 8.764530e+00 8.025297e-01 8.689972e+00 8.011441e-01 8.600394e+00 7.862473e-01 8.525565e+00 7.673924e-01 8.476780e+00 7.368620e-01 8.440974e+00 6.959834e-01 8.413997e+00 6.491203e-01 8.415635e+00 5.902246e-01 8.445392e+00 5.557701e-01 8.485924e+00 5.450618e-01 8.536865e+00 5.526444e-01 8.587765e+00 6.705035e-01 8.590313e+00 8.148734e-01 8.660467e+00 8.835300e-01 8.730151e+00 4.943549e-01 8.726756e+00 2.853062e-01 8.928604e+00 3.284673e-01 9.178003e+00 4.049589e-01 9.445214e+00 4.668748e-01 9.756793e+00 5.153100e-01 
1.015784e+01 5.633825e-01 1.069074e+01 5.634117e-01 1.138575e+01 5.767603e-01 1.084677e+01 6.656938e-01 1.040003e+01 8.066112e-01 9.980979e+00 9.866247e-01 9.559114e+00 1.114099e+00 9.215262e+00 1.031424e+00 8.853701e+00 9.702015e-01 8.474503e+00 8.637605e-02 7.826048e+00 -2.185108e-01 7.792765e+00 -1.287884e-01 7.588267e+00 -2.561297e-01 7.433404e+00 -3.540668e-01 7.347629e+00 -4.381005e-01 7.297996e+00 -5.116302e-01 7.260409e+00 -5.571941e-01 7.236394e+00 -5.657305e-01 7.219526e+00 -5.557294e-01 7.177803e+00 -5.442648e-01 7.120150e+00 -5.837639e-01 7.084921e+00 -6.783215e-01 7.110900e+00 -8.248161e-01 7.244661e+00 -1.070365e+00 7.503898e+00 -1.209117e+00 7.774426e+00 -1.321819e+00 8.004556e+00 -6.113531e-01 8.641055e+00 7.183045e-02 8.979447e+00 3.340051e-01 9.210043e+00 4.312022e-01 9.457737e+00 4.891645e-01 9.762831e+00 5.374190e-01 
1.015713e+01 5.601723e-01 1.068459e+01 5.605215e-01 1.137468e+01 5.737702e-01 1.083716e+01 6.768639e-01 1.038538e+01 8.690644e-01 9.932917e+00 1.166898e+00 9.434937e+00 1.406769e+00 9.052758e+00 1.266212e+00 8.618135e+00 1.167265e+00 8.032554e+00 -6.026813e-01 7.058076e+00 -9.882700e-01 7.270854e+00 -6.710420e-01 6.945386e+00 -9.053701e-01 6.753285e+00 -1.032399e+00 6.693320e+00 -1.116749e+00 6.685024e+00 -1.184700e+00 6.676818e+00 -1.205092e+00 6.679150e+00 -1.172669e+00 6.690270e+00 -1.116409e+00 6.652020e+00 -1.050070e+00 6.576065e+00 -1.066901e+00 6.525701e+00 -1.164123e+00 6.552329e+00 -1.326445e+00 6.722674e+00 -1.705976e+00 7.123859e+00 -1.961836e+00 7.482975e+00 -2.074122e+00 7.831474e+00 -9.248587e-01 8.664872e+00 3.914166e-02 9.023910e+00 3.483805e-01 9.235048e+00 4.385815e-01 9.469508e+00 4.887847e-01 9.767546e+00 5.341687e-01 
1.013303e+01 5.745927e-01 1.065694e+01 5.782716e-01 1.134058e+01 5.913765e-01 1.080500e+01 6.714718e-01 1.036681e+01 7.820551e-01 9.974151e+00 8.930441e-01 9.605984e+00 9.467268e-01 9.299573e+00 8.833638e-01 8.985924e+00 8.160716e-01 8.727691e+00 3.723344e-01 8.229159e+00 6.316567e-02 8.130459e+00 1.133083e-01 8.017262e+00 6.527107e-02 7.914384e+00 3.591583e-02 7.857238e+00 1.947383e-02 7.826144e+00 1.165154e-02 7.808410e+00 1.177876e-02 7.801928e+00 2.168442e-02 7.805177e+00 3.492482e-02 7.813466e+00 3.700601e-02 7.834689e+00 3.013788e-02 7.873587e+00 1.568419e-02 7.946055e+00 2.336965e-03 8.058715e+00 4.777574e-02 8.162040e+00 1.826092e-01 8.332123e+00 2.158543e-01 8.423127e+00 1.021619e-01 8.640667e+00 1.955055e-01 8.916707e+00 3.279386e-01 9.171207e+00 4.221582e-01 9.434340e+00 4.901277e-01 9.742138e+00 5.443515e-01 