# vtk DataFile Version 2.0
Comment goes here
ASCII

DATASET STRUCTURED_POINTS
FIELD FieldData 1
TIME 1 1 double
0.01500000
DIMENSIONS    64   64   1

ORIGIN    0.000   0.000   0.000
SPACING   0.03125 0.03125   1.000

POINT_DATA   4096
SCALARS uX double
LOOKUP_TABLE default

9.871338e-02 -5.902391e-01 4.270156e-01 -6.670172e-01 4.340962e-01 -6.026297e-01 3.182531e-01 -4.625392e-01 1.709774e-01 -2.983069e-01 1.861093e-02 -1.404031e-01 -1.132863e-01 -1.248372e-02 -2.115677e-01 7.912436e-02 -2.715164e-01 1.261090e-01 -2.871284e-01 1.272444e-01 -2.636429e-01 9.941182e-02 -2.245000e-01 6.920418e-02 -1.950860e-01 5.250524e-02 -1.797661e-01 4.597250e-02 -1.699598e-01 3.994714e-02 -1.607280e-01 3.837606e-02 -1.594559e-01 3.874302e-02 -1.488874e-01 1.962040e-02 -1.217194e-01 1.685008e-03 -1.175226e-01 1.649056e-02 -1.393452e-01 3.649838e-02 -1.461991e-01 2.846744e-02 -1.220861e-01 -9.430036e-03 -6.811990e-02 -7.506525e-02 -2.098895e-03 -1.339210e-01 3.929289e-02 -1.523716e-01 2.478760e-02 -1.089897e-01 -4.870006e-02 -2.075295e-02 -1.497211e-01 7.276975e-02 -2.304902e-01 1.109070e-01 -2.288920e-01 4.641271e-02 -1.166802e-01 -1.199303e-01 
-2.062090e-02 3.238243e-01 -3.984092e-01 3.985781e-01 -4.152951e-01 3.612392e-01 -3.422797e-01 2.768751e-01 -2.629933e-01 1.792082e-01 -1.817272e-01 8.336924e-02 -1.109068e-01 2.593364e-03 -5.580904e-02 -6.038756e-02 -1.806905e-02 -1.002382e-01 -1.933855e-03 -1.149697e-01 -7.038197e-03 -1.129927e-01 -2.044162e-02 -1.089145e-01 -2.802601e-02 -1.116857e-01 -2.812659e-02 -1.179956e-01 -2.703406e-02 -1.219672e-01 -2.550424e-02 -1.315700e-01 -1.358772e-02 -1.457217e-01 -6.860066e-03 -1.452305e-01 -1.402974e-02 -1.423779e-01 -7.750110e-03 -1.598068e-01 1.548175e-02 -1.806489e-01 2.909482e-02 -1.833171e-01 2.475438e-02 -1.694161e-01 4.686950e-03 -1.383098e-01 -2.377752e-02 -1.086802e-01 -4.196035e-02 -9.553947e-02 -3.384029e-02 -1.123438e-01 3.814981e-03 -1.512809e-01 5.676052e-02 -1.948076e-01 1.036547e-01 -2.140770e-01 1.132772e-01 -1.842617e-01 6.958064e-02 -1.064550e-01 
4.600059e-01 3.831959e-01 6.694803e-02 4.473098e-01 8.405594e-02 3.960247e-01 1.591939e-01 2.946010e-01 2.932972e-01 1.811760e-01 4.353601e-01 7.516242e-02 5.595254e-01 -8.280241e-03 6.569685e-01 -6.801228e-02 7.258259e-01 -9.914881e-02 7.611084e-01 -1.001579e-01 7.657987e-01 -8.279420e-02 7.570888e-01 -6.587957e-02 7.540971e-01 -6.048106e-02 7.596299e-01 -6.291762e-02 7.664078e-01 -6.475112e-02 7.711891e-01 -7.099780e-02 7.825690e-01 -8.005768e-02 7.848888e-01 -7.222492e-02 7.705361e-01 -6.447251e-02 7.732775e-01 -8.406282e-02 7.961391e-01 -1.081518e-01 8.053860e-01 -1.109248e-01 7.901535e-01 -9.303678e-02 7.511980e-01 -5.385412e-02 6.995556e-01 -1.831044e-02 6.608096e-01 -8.416100e-03 6.568129e-01 -4.072825e-02 6.905019e-01 -1.036871e-01 7.408689e-01 -1.723541e-01 7.769522e-01 -2.053641e-01 7.545509e-01 -1.674474e-01 6.534270e-01 -5.388889e-02 
4.921607e-01 -1.810673e-01 5.040740e-01 -1.857323e-01 1.217724e-01 -1.501253e-01 4.291866e-01 -1.002835e-01 6.195152e-01 -5.607187e-02 7.458759e-01 -1.841294e-02 8.384253e-01 9.630068e-03 9.106302e-01 3.074414e-02 9.689518e-01 4.295492e-02 1.020847e+00 4.435836e-02 1.070494e+00 3.860613e-02 1.113652e+00 3.350689e-02 1.144210e+00 3.362958e-02 1.163734e+00 3.616761e-02 1.178133e+00 3.639049e-02 1.189279e+00 4.002697e-02 1.189789e+00 4.704235e-02 1.191098e+00 4.291610e-02 1.200372e+00 3.659717e-02 1.196950e+00 4.523110e-02 1.178099e+00 5.618386e-02 1.162026e+00 5.599216e-02 1.151796e+00 4.738502e-02 1.145742e+00 2.786926e-02 1.140225e+00 8.877524e-03 1.124104e+00 -1.727324e-03 1.087731e+00 5.078371e-03 1.027197e+00 2.588366e-02 9.463998e-01 5.468822e-02 8.495529e-01 7.884117e-02 7.463202e-01 8.895709e-02 6.331542e-01 9.974378e-02 
6.546809e-01 -9.192245e-02 5.909898e-01 -8.734311e-02 2.304832e-01 -6.902764e-02 5.473432e-01 -4.456413e-02 7.254329e-01 -2.508370e-02 8.440668e-01 -9.275814e-03 9.321728e-01 2.575504e-03 1.000808e+00 1.278915e-02 1.055052e+00 2.050245e-02 1.099921e+00 2.417772e-02 1.138718e+00 2.489445e-02 1.170688e+00 2.573337e-02 1.193867e+00 2.841208e-02 1.209910e+00 3.138881e-02 1.222124e+00 3.245872e-02 1.231465e+00 3.503193e-02 1.233804e+00 3.945627e-02 1.235161e+00 3.788809e-02 1.239826e+00 3.466777e-02 1.237220e+00 3.866297e-02 1.225744e+00 4.333099e-02 1.214228e+00 4.234335e-02 1.203192e+00 3.770434e-02 1.191597e+00 2.750979e-02 1.178222e+00 1.668428e-02 1.158524e+00 8.260637e-03 1.128513e+00 6.838863e-03 1.085835e+00 1.155229e-02 1.030552e+00 2.149761e-02 9.613865e-01 3.249990e-02 8.796244e-01 4.072004e-02 7.787419e-01 4.900571e-02 
6.258281e-01 -8.715031e-02 5.427194e-01 -1.103181e-01 3.611776e-01 -1.109456e-01 5.393197e-01 -8.097018e-02 6.832628e-01 -5.096721e-02 7.922121e-01 -2.341511e-02 8.763141e-01 -3.403086e-04 9.435498e-01 1.777304e-02 9.990378e-01 2.979857e-02 1.046644e+00 3.527266e-02 1.088438e+00 3.604993e-02 1.123579e+00 3.557043e-02 1.150516e+00 3.613896e-02 1.169959e+00 3.748941e-02 1.184031e+00 3.868767e-02 1.193651e+00 4.091369e-02 1.198056e+00 4.359651e-02 1.200565e+00 4.338030e-02 1.202629e+00 4.279147e-02 1.198964e+00 4.603077e-02 1.188848e+00 4.945865e-02 1.177542e+00 4.815037e-02 1.167042e+00 4.148093e-02 1.156393e+00 3.001612e-02 1.142561e+00 1.856293e-02 1.120262e+00 1.191784e-02 1.084933e+00 1.381482e-02 1.034516e+00 2.315082e-02 9.701372e-01 3.561066e-02 8.943706e-01 4.383252e-02 8.109919e-01 3.962322e-02 7.204965e-01 1.119331e-02 
7.461841e-01 -3.997993e-02 6.426138e-01 -5.190569e-02 4.614343e-01 -5.229894e-02 6.386317e-01 -3.786751e-02 7.766668e-01 -2.430853e-02 8.803088e-01 -1.184592e-02 9.603279e-01 -7.108947e-04 1.023999e+00 9.314488e-03 1.075492e+00 1.743887e-02 1.117356e+00 2.288993e-02 1.151562e+00 2.611004e-02 1.178927e+00 2.837408e-02 1.199809e+00 3.053053e-02 1.215354e+00 3.241664e-02 1.226955e+00 3.376192e-02 1.235107e+00 3.548249e-02 1.239320e+00 3.750161e-02 1.241352e+00 3.799243e-02 1.242191e+00 3.805654e-02 1.239259e+00 3.970572e-02 1.232173e+00 4.098790e-02 1.223335e+00 3.953702e-02 1.213142e+00 3.515592e-02 1.200698e+00 2.781566e-02 1.184464e+00 1.953664e-02 1.162263e+00 1.266201e-02 1.132698e+00 9.588364e-03 1.094646e+00 1.043745e-02 1.047370e+00 1.392808e-02 9.899515e-01 1.706111e-02 9.217172e-01 1.561651e-02 8.403622e-01 2.895134e-03 
7.467657e-01 -5.184074e-02 6.745676e-01 -7.312426e-02 5.806264e-01 -7.339989e-02 6.815112e-01 -6.100849e-02 7.775786e-01 -4.298187e-02 8.595318e-01 -2.365293e-02 9.278721e-01 -5.314571e-03 9.854134e-01 1.065439e-02 1.034370e+00 2.278481e-02 1.075657e+00 3.040769e-02 1.110280e+00 3.435454e-02 1.138713e+00 3.628632e-02 1.161171e+00 3.751687e-02 1.178335e+00 3.851928e-02 1.191096e+00 3.946576e-02 1.199936e+00 4.081522e-02 1.205014e+00 4.241751e-02 1.207379e+00 4.344909e-02 1.207490e+00 4.442002e-02 1.204205e+00 4.603103e-02 1.197586e+00 4.681142e-02 1.189236e+00 4.480194e-02 1.179618e+00 3.942456e-02 1.167590e+00 3.125959e-02 1.150837e+00 2.257795e-02 1.126808e+00 1.627665e-02 1.094329e+00 1.459623e-02 1.052860e+00 1.698455e-02 1.002826e+00 2.045978e-02 9.455275e-01 2.030871e-02 8.828030e-01 1.114491e-02 8.158849e-01 -1.249092e-02 
8.464786e-01 -2.614310e-02 7.681998e-01 -3.638267e-02 6.724944e-01 -3.661206e-02 7.710389e-01 -3.062199e-02 8.627606e-01 -2.228842e-02 9.402783e-01 -1.290440e-02 1.004827e+00 -2.751863e-03 1.059341e+00 7.832302e-03 1.105517e+00 1.713114e-02 1.142383e+00 2.388482e-02 1.171181e+00 2.832583e-02 1.193612e+00 3.118549e-02 1.211071e+00 3.296934e-02 1.224719e+00 3.400027e-02 1.235203e+00 3.469510e-02 1.242677e+00 3.565986e-02 1.247013e+00 3.709361e-02 1.248716e+00 3.849391e-02 1.248290e+00 3.982434e-02 1.245446e+00 4.112733e-02 1.240389e+00 4.139661e-02 1.233811e+00 3.962542e-02 1.225332e+00 3.552074e-02 1.213579e+00 2.903532e-02 1.196633e+00 2.093795e-02 1.173321e+00 1.318888e-02 1.145378e+00 8.358418e-03 1.112752e+00 6.625905e-03 1.074426e+00 6.596175e-03 1.029323e+00 5.922908e-03 9.766379e-01 1.774515e-03 9.156083e-01 -8.651675e-03 
8.689458e-01 -3.789792e-02 8.246462e-01 -5.160539e-02 7.809991e-01 -5.182974e-02 8.309155e-01 -4.672150e-02 8.868349e-01 -3.621258e-02 9.407543e-01 -2.280091e-02 9.903360e-01 -7.850392e-03 1.035896e+00 7.412764e-03 1.077337e+00 2.032070e-02 1.111264e+00 2.924975e-02 1.138249e+00 3.470530e-02 1.159786e+00 3.774740e-02 1.177109e+00 3.916210e-02 1.191108e+00 3.962660e-02 1.202074e+00 3.985494e-02 1.209985e+00 4.048388e-02 1.214692e+00 4.182197e-02 1.216445e+00 4.356626e-02 1.215738e+00 4.539435e-02 1.212794e+00 4.687215e-02 1.208102e+00 4.696396e-02 1.202228e+00 4.479723e-02 1.194608e+00 4.011128e-02 1.183492e+00 3.297675e-02 1.166336e+00 2.416862e-02 1.141735e+00 1.595205e-02 1.112703e+00 1.126214e-02 1.079839e+00 9.710779e-03 1.042914e+00 8.903872e-03 1.002236e+00 5.682354e-03 9.587886e-01 -2.900218e-03 9.138339e-01 -1.833332e-02 
9.550554e-01 -2.109507e-02 9.091495e-01 -2.766727e-02 8.646182e-01 -2.786417e-02 9.117396e-01 -2.585110e-02 9.638146e-01 -2.132784e-02 1.013594e+00 -1.468035e-02 1.059560e+00 -5.188464e-03 1.103149e+00 7.627639e-03 1.144883e+00 1.943233e-02 1.175466e+00 2.726963e-02 1.197155e+00 3.219220e-02 1.213264e+00 3.513187e-02 1.226146e+00 3.619473e-02 1.237234e+00 3.593113e-02 1.246446e+00 3.536014e-02 1.253375e+00 3.537646e-02 1.257346e+00 3.673342e-02 1.258217e+00 3.906853e-02 1.256815e+00 4.161807e-02 1.253861e+00 4.358423e-02 1.250148e+00 4.383001e-02 1.246202e+00 4.200364e-02 1.240803e+00 3.821213e-02 1.231656e+00 3.184297e-02 1.215140e+00 2.203401e-02 1.188942e+00 1.077312e-02 1.162715e+00 3.970332e-03 1.136552e+00 1.033429e-03 1.108226e+00 -1.924778e-04 1.076166e+00 -1.818411e-03 1.039738e+00 -5.563769e-03 9.990456e-01 -1.231432e-02 
9.893919e-01 -3.062195e-02 9.720847e-01 -3.903443e-02 9.630097e-01 -3.921745e-02 9.758179e-01 -3.777221e-02 9.989804e-01 -3.229142e-02 1.026790e+00 -2.344700e-02 1.057102e+00 -1.070832e-02 1.090706e+00 6.478784e-03 1.127829e+00 2.189104e-02 1.153783e+00 3.163034e-02 1.171645e+00 3.752510e-02 1.185065e+00 4.088289e-02 1.196366e+00 4.178098e-02 1.206899e+00 4.097661e-02 1.216088e+00 3.984202e-02 1.223227e+00 3.944626e-02 1.227328e+00 4.083408e-02 1.227984e+00 4.361029e-02 1.226241e+00 4.672611e-02 1.223154e+00 4.910238e-02 1.219819e+00 4.935431e-02 1.216978e+00 4.726480e-02 1.213103e+00 4.318285e-02 1.205434e+00 3.633000e-02 1.189245e+00 2.522838e-02 1.160985e+00 1.209627e-02 1.134870e+00 4.751831e-03 1.110894e+00 1.652698e-03 1.086777e+00 -2.809231e-04 1.061680e+00 -3.622156e-03 1.036128e+00 -1.001371e-02 1.011429e+00 -1.966974e-02 
1.064882e+00 -1.865853e-02 1.047618e+00 -2.283075e-02 1.038516e+00 -2.298832e-02 1.048412e+00 -2.354850e-02 1.067819e+00 -2.248081e-02 1.091136e+00 -1.928220e-02 1.116958e+00 -1.099115e-02 1.149138e+00 8.199458e-03 1.195450e+00 2.580749e-02 1.217430e+00 3.369324e-02 1.228713e+00 3.813396e-02 1.236172e+00 4.102304e-02 1.243021e+00 4.075996e-02 1.251606e+00 3.816218e-02 1.259950e+00 3.541775e-02 1.267005e+00 3.374137e-02 1.270784e+00 3.541966e-02 1.270018e+00 3.945518e-02 1.266920e+00 4.401614e-02 1.263065e+00 4.777063e-02 1.260148e+00 4.829242e-02 1.260042e+00 4.627216e-02 1.260041e+00 4.337074e-02 1.257136e+00 3.802247e-02 1.243308e+00 2.485072e-02 1.204396e+00 3.895684e-03 1.179937e+00 -4.361533e-03 1.162487e+00 -6.349098e-03 1.145692e+00 -6.642915e-03 1.127245e+00 -7.445056e-03 1.106916e+00 -9.763724e-03 1.085552e+00 -1.376415e-02 
1.104342e+00 -2.612466e-02 1.110190e+00 -3.146286e-02 1.127231e+00 -3.159631e-02 1.111224e+00 -3.275500e-02 1.107151e+00 -3.165763e-02 1.110754e+00 -2.794846e-02 1.120913e+00 -1.813139e-02 1.142548e+00 7.007500e-03 1.189420e+00 2.929916e-02 1.204349e+00 3.797590e-02 1.209483e+00 4.295872e-02 1.212496e+00 4.654184e-02 1.216400e+00 4.610365e-02 1.224003e+00 4.263927e-02 1.232123e+00 3.906049e-02 1.239468e+00 3.660316e-02 1.243415e+00 3.848673e-02 1.241960e+00 4.334826e-02 1.238125e+00 4.882543e-02 1.233803e+00 5.347260e-02 1.231046e+00 5.403748e-02 1.232747e+00 5.164437e-02 1.235411e+00 4.889497e-02 1.235948e+00 4.382282e-02 1.224257e+00 2.865667e-02 1.177757e+00 2.482853e-03 1.154857e+00 -6.069365e-03 1.142105e+00 -7.631494e-03 1.131602e+00 -8.099048e-03 1.121485e+00 -9.888901e-03 1.112400e+00 -1.381937e-02 1.105969e+00 -1.964633e-02 
1.170846e+00 -1.707209e-02 1.177292e+00 -1.989206e-02 1.194740e+00 -1.999976e-02 1.176075e+00 -2.277697e-02 1.168351e+00 -2.568875e-02 1.166449e+00 -2.887260e-02 1.168194e+00 -2.769311e-02 1.181875e+00 9.054927e-03 1.270087e+00 4.207986e-02 1.269851e+00 4.352670e-02 1.264006e+00 4.550249e-02 1.259694e+00 4.995341e-02 1.258109e+00 4.742115e-02 1.266099e+00 4.034122e-02 1.274639e+00 3.420633e-02 1.283759e+00 2.858481e-02 1.288694e+00 3.172741e-02 1.284120e+00 3.929062e-02 1.277739e+00 4.719346e-02 1.271325e+00 5.517480e-02 1.267256e+00 5.514134e-02 1.273662e+00 5.127136e-02 1.282154e+00 5.069968e-02 1.293626e+00 5.160835e-02 1.296648e+00 3.663966e-02 1.204688e+00 -1.585536e-02 1.190216e+00 -1.913577e-02 1.187802e+00 -1.551966e-02 1.184758e+00 -1.262637e-02 1.180085e+00 -1.154329e-02 1.174943e+00 -1.221183e-02 1.171095e+00 -1.426434e-02 
1.211320e+00 -2.283755e-02 1.236458e+00 -2.641941e-02 1.274126e+00 -2.649563e-02 1.235114e+00 -2.988645e-02 1.208042e+00 -3.347879e-02 1.188336e+00 -3.833362e-02 1.173282e+00 -4.103610e-02 1.170918e+00 -5.040223e-03 1.254453e+00 2.665190e-02 1.242197e+00 2.504535e-02 1.229262e+00 2.623037e-02 1.220568e+00 3.136579e-02 1.215594e+00 2.923738e-02 1.221926e+00 2.244443e-02 1.229002e+00 1.693260e-02 1.237393e+00 1.128101e-02 1.242171e+00 1.496336e-02 1.237012e+00 2.303256e-02 1.230744e+00 3.121328e-02 1.224759e+00 4.005084e-02 1.221035e+00 4.035249e-02 1.229454e+00 3.712289e-02 1.240650e+00 3.900311e-02 1.257836e+00 4.448731e-02 1.271023e+00 3.263137e-02 1.169507e+00 -2.494405e-02 1.164924e+00 -2.410375e-02 1.171198e+00 -1.811807e-02 1.176039e+00 -1.463574e-02 1.180152e+00 -1.401649e-02 1.185808e+00 -1.570163e-02 1.195372e+00 -1.895221e-02 
1.269831e+00 -1.550466e-02 1.295586e+00 -1.743838e-02 1.333730e+00 -1.748464e-02 1.292992e+00 -2.179134e-02 1.263289e+00 -2.847942e-02 1.238102e+00 -4.239516e-02 1.206718e+00 -7.864553e-02 1.141227e+00 -1.933637e-01 9.340630e-01 -2.995141e-01 9.064772e-01 -3.373694e-01 9.099050e-01 -3.638859e-01 9.188979e-01 -3.851857e-01 9.227561e-01 -3.850031e-01 9.054017e-01 -3.695389e-01 8.840741e-01 -3.529517e-01 8.621924e-01 -3.388004e-01 8.518670e-01 -3.445084e-01 8.640062e-01 -3.618591e-01 8.827503e-01 -3.799599e-01 9.013367e-01 -3.939674e-01 9.125571e-01 -3.862750e-01 9.018761e-01 -3.633881e-01 8.887942e-01 -3.384459e-01 8.807236e-01 -3.054872e-01 9.100785e-01 -2.301323e-01 1.122556e+00 -8.665139e-02 1.189578e+00 -4.117125e-02 1.213944e+00 -2.405730e-02 1.225426e+00 -1.681275e-02 1.233281e+00 -1.386296e-02 1.241513e+00 -1.322294e-02 1.252822e+00 -1.396957e-02 
1.308809e+00 -1.984545e-02 1.349816e+00 -2.221107e-02 1.404074e+00 -2.221864e-02 1.347203e+00 -2.677264e-02 1.301773e+00 -3.381385e-02 1.261070e+00 -4.984917e-02 1.211000e+00 -9.800951e-02 1.107867e+00 -2.754329e-01 7.684284e-01 -4.397236e-01 7.256301e-01 -4.935667e-01 7.304845e-01 -5.333587e-01 7.434065e-01 -5.678431e-01 7.484929e-01 -5.679885e-01 7.183285e-01 -5.436345e-01 6.822653e-01 -5.179954e-01 6.449838e-01 -4.955695e-01 6.263982e-01 -5.063763e-01 6.456107e-01 -5.364338e-01 6.754387e-01 -5.678705e-01 7.052736e-01 -5.938576e-01 7.236107e-01 -5.841348e-01 7.041272e-01 -5.504276e-01 6.797366e-01 -5.160833e-01 6.597112e-01 -4.712912e-01 6.966136e-01 -3.545855e-01 1.062977e+00 -1.145354e-01 1.166074e+00 -4.793181e-02 1.202040e+00 -2.621186e-02 1.221180e+00 -1.831033e-02 1.237156e+00 -1.581066e-02 1.255128e+00 -1.597707e-02 1.278144e+00 -1.758714e-02 
1.359922e+00 -1.350914e-02 1.401279e+00 -1.456515e-02 1.455835e+00 -1.453515e-02 1.398891e+00 -1.847307e-02 1.353914e+00 -2.410505e-02 1.316168e+00 -3.362680e-02 1.279662e+00 -5.102277e-02 1.236841e+00 -8.035563e-02 1.185063e+00 -1.100753e-01 1.154054e+00 -1.302002e-01 1.139200e+00 -1.443262e-01 1.131244e+00 -1.539538e-01 1.124429e+00 -1.575151e-01 1.115279e+00 -1.563384e-01 1.105494e+00 -1.535346e-01 1.096861e+00 -1.515758e-01 1.092361e+00 -1.536390e-01 1.093713e+00 -1.586777e-01 1.098345e+00 -1.640426e-01 1.103813e+00 -1.672199e-01 1.107649e+00 -1.646455e-01 1.108078e+00 -1.567766e-01 1.109274e+00 -1.451330e-01 1.116224e+00 -1.275218e-01 1.139206e+00 -9.808275e-02 1.194654e+00 -5.761305e-02 1.230382e+00 -3.448304e-02 1.252603e+00 -2.260566e-02 1.269547e+00 -1.663556e-02 1.285963e+00 -1.380979e-02 1.304866e+00 -1.278136e-02 1.328701e+00 -1.282934e-02 
1.395805e+00 -1.668135e-02 1.449719e+00 -1.790316e-02 1.517370e+00 -1.783155e-02 1.447879e+00 -2.137979e-02 1.391193e+00 -2.567212e-02 1.344220e+00 -3.096368e-02 1.305499e+00 -3.230693e-02 1.285251e+00 1.060717e-02 1.366516e+00 4.930906e-02 1.339355e+00 4.894955e-02 1.312241e+00 5.053006e-02 1.291633e+00 5.586188e-02 1.277332e+00 5.262145e-02 1.277662e+00 4.388692e-02 1.280575e+00 3.645977e-02 1.286309e+00 2.917376e-02 1.288961e+00 3.260316e-02 1.281437e+00 4.119204e-02 1.273515e+00 4.999718e-02 1.266938e+00 5.926531e-02 1.264152e+00 5.869163e-02 1.275859e+00 5.376018e-02 1.291532e+00 5.385180e-02 1.314059e+00 5.719706e-02 1.331842e+00 4.143003e-02 1.227877e+00 -2.409594e-02 1.230314e+00 -2.544770e-02 1.248680e+00 -2.008910e-02 1.269146e+00 -1.643280e-02 1.291982e+00 -1.485140e-02 1.319244e+00 -1.473685e-02 1.353109e+00 -1.550723e-02 
1.439829e+00 -1.105984e-02 1.493696e+00 -1.123728e-02 1.561313e+00 -1.112966e-02 1.492762e+00 -1.366017e-02 1.437585e+00 -1.626647e-02 1.393652e+00 -1.811792e-02 1.360716e+00 -1.484216e-02 1.345616e+00 1.249839e-02 1.382560e+00 3.772449e-02 1.367653e+00 4.233217e-02 1.348184e+00 4.536256e-02 1.331557e+00 4.879687e-02 1.319768e+00 4.686944e-02 1.317177e+00 4.120263e-02 1.317610e+00 3.589539e-02 1.320044e+00 3.148710e-02 1.320578e+00 3.360213e-02 1.315451e+00 3.951891e-02 1.309782e+00 4.603834e-02 1.305422e+00 5.221925e-02 1.304588e+00 5.249223e-02 1.312631e+00 4.945057e-02 1.323776e+00 4.785413e-02 1.337060e+00 4.573474e-02 1.342308e+00 3.043219e-02 1.286361e+00 -9.274191e-03 1.283660e+00 -1.581791e-02 1.296124e+00 -1.495793e-02 1.313991e+00 -1.317074e-02 1.336028e+00 -1.186094e-02 1.363187e+00 -1.117730e-02 1.397112e+00 -1.097664e-02 
1.471539e+00 -1.337134e-02 1.535826e+00 -1.358157e-02 1.614220e+00 -1.343313e-02 1.535633e+00 -1.541227e-02 1.471052e+00 -1.671328e-02 1.419240e+00 -1.600312e-02 1.380751e+00 -9.243446e-03 1.360634e+00 1.165654e-02 1.368379e+00 3.106418e-02 1.354208e+00 3.904564e-02 1.334592e+00 4.356369e-02 1.316874e+00 4.663510e-02 1.303896e+00 4.591405e-02 1.297825e+00 4.228548e-02 1.295463e+00 3.845870e-02 1.295058e+00 3.581989e-02 1.293758e+00 3.734571e-02 1.289548e+00 4.184230e-02 1.285054e+00 4.703297e-02 1.282135e+00 5.135790e-02 1.282811e+00 5.182538e-02 1.289605e+00 4.947065e-02 1.299341e+00 4.657929e-02 1.309065e+00 4.111495e-02 1.309582e+00 2.573355e-02 1.282078e+00 -5.674466e-05 1.280075e+00 -9.796983e-03 1.293313e+00 -1.215612e-02 1.314654e+00 -1.237376e-02 1.342282e+00 -1.233379e-02 1.376668e+00 -1.252558e-02 1.419165e+00 -1.293565e-02 
1.508618e+00 -8.414295e-03 1.572409e+00 -7.861206e-03 1.650342e+00 -7.683507e-03 1.573070e+00 -8.896875e-03 1.510032e+00 -9.263252e-03 1.460109e+00 -7.514192e-03 1.423315e+00 -1.008781e-03 1.401656e+00 1.379261e-02 1.397100e+00 2.796834e-02 1.383574e+00 3.554991e-02 1.366949e+00 3.997588e-02 1.351607e+00 4.246605e-02 1.339861e+00 4.210302e-02 1.333046e+00 3.963456e-02 1.329405e+00 3.690350e-02 1.327504e+00 3.518127e-02 1.325399e+00 3.622384e-02 1.321922e+00 3.938555e-02 1.318549e+00 4.311869e-02 1.316665e+00 4.607045e-02 1.317693e+00 4.636711e-02 1.322828e+00 4.432549e-02 1.329942e+00 4.090556e-02 1.336381e+00 3.472560e-02 1.336445e+00 2.210609e-02 1.322367e+00 4.173313e-03 1.322508e+00 -4.819438e-03 1.334343e+00 -8.218042e-03 1.354234e+00 -9.155276e-03 1.380926e+00 -9.202284e-03 1.414708e+00 -9.001788e-03 1.456721e+00 -8.746714e-03 
1.535401e+00 -1.017566e-02 1.607893e+00 -9.629288e-03 1.694769e+00 -9.414673e-03 1.609148e+00 -1.022387e-02 1.538086e+00 -9.789253e-03 1.480821e+00 -6.907562e-03 1.437286e+00 2.793906e-04 1.408081e+00 1.290060e-02 1.391509e+00 2.525262e-02 1.373246e+00 3.342830e-02 1.354009e+00 3.855297e-02 1.336553e+00 4.141844e-02 1.322769e+00 4.184081e-02 1.313475e+00 4.046963e-02 1.307577e+00 3.869876e-02 1.303742e+00 3.772613e-02 1.300459e+00 3.867380e-02 1.296953e+00 4.120855e-02 1.294066e+00 4.416902e-02 1.292919e+00 4.631852e-02 1.294601e+00 4.637314e-02 1.299642e+00 4.424262e-02 1.306504e+00 4.019695e-02 1.312735e+00 3.320672e-02 1.314591e+00 2.156050e-02 1.310301e+00 7.386114e-03 1.314907e+00 -1.743339e-03 1.329978e+00 -6.388305e-03 1.353894e+00 -8.526248e-03 1.385809e+00 -9.513059e-03 1.425963e+00 -1.001154e-02 1.475343e+00 -1.024252e-02 
1.565609e+00 -5.879611e-03 1.637127e+00 -4.834741e-03 1.723056e+00 -4.599386e-03 1.638868e+00 -5.060660e-03 1.569236e+00 -4.388858e-03 1.513284e+00 -1.553003e-03 1.470531e+00 4.737617e-03 1.440602e+00 1.483068e-02 1.421060e+00 2.488133e-02 1.402568e+00 3.203640e-02 1.384390e+00 3.659098e-02 1.368072e+00 3.901966e-02 1.354981e+00 3.938000e-02 1.345683e+00 3.828198e-02 1.339423e+00 3.684021e-02 1.335119e+00 3.606857e-02 1.331609e+00 3.677413e-02 1.328336e+00 3.872545e-02 1.325861e+00 4.101920e-02 1.325045e+00 4.261432e-02 1.326689e+00 4.251240e-02 1.331022e+00 4.048478e-02 1.336823e+00 3.654226e-02 1.342137e+00 2.998316e-02 1.344545e+00 1.999948e-02 1.343886e+00 8.493540e-03 1.349820e+00 4.485257e-04 1.364603e+00 -3.966017e-03 1.387718e+00 -5.996063e-03 1.418752e+00 -6.726388e-03 1.458024e+00 -6.797797e-03 1.506497e+00 -6.497541e-03 
1.586936e+00 -7.345540e-03 1.665747e+00 -6.336590e-03 1.759126e+00 -6.070083e-03 1.667805e+00 -6.358241e-03 1.591171e+00 -5.335815e-03 1.528524e+00 -2.079880e-03 1.479355e+00 4.375181e-03 1.442948e+00 1.393517e-02 1.416583e+00 2.357567e-02 1.393274e+00 3.092001e-02 1.371625e+00 3.584581e-02 1.352559e+00 3.865857e-02 1.337121e+00 3.952183e-02 1.325682e+00 3.901096e-02 1.317591e+00 3.809372e-02 1.311840e+00 3.768599e-02 1.307396e+00 3.843996e-02 1.303777e+00 4.018324e-02 1.301378e+00 4.214724e-02 1.300914e+00 4.339276e-02 1.303040e+00 4.306439e-02 1.307853e+00 4.085880e-02 1.314327e+00 3.666101e-02 1.320804e+00 2.994619e-02 1.325606e+00 2.038326e-02 1.329456e+00 9.778590e-03 1.339334e+00 1.762528e-03 1.357875e+00 -3.143809e-03 1.385187e+00 -5.801299e-03 1.421133e+00 -7.121716e-03 1.466072e+00 -7.684752e-03 1.520905e+00 -7.749694e-03 
1.610341e+00 -3.660066e-03 1.687665e+00 -2.373201e-03 1.779560e+00 -2.094754e-03 1.689782e+00 -2.431793e-03 1.614568e+00 -1.711040e-03 1.553096e+00 9.482466e-04 1.504805e+00 6.616186e-03 1.469199e+00 1.557393e-02 1.444101e+00 2.462143e-02 1.421266e+00 3.114683e-02 1.399960e+00 3.536009e-02 1.381298e+00 3.764894e-02 1.366281e+00 3.808395e-02 1.355247e+00 3.723430e-02 1.347454e+00 3.606679e-02 1.341918e+00 3.545761e-02 1.337590e+00 3.609559e-02 1.333979e+00 3.775067e-02 1.331545e+00 3.964364e-02 1.330997e+00 4.086550e-02 1.333009e+00 4.054877e-02 1.337751e+00 3.850191e-02 1.344208e+00 3.473323e-02 1.350802e+00 2.869204e-02 1.355623e+00 1.973673e-02 1.358694e+00 9.403414e-03 1.368316e+00 2.061873e-03 1.386601e+00 -2.104218e-03 1.413345e+00 -4.108092e-03 1.448404e+00 -4.851928e-03 1.492212e+00 -4.885740e-03 1.545736e+00 -4.468761e-03 
1.625843e+00 -5.004986e-03 1.709279e+00 -3.803164e-03 1.807381e+00 -3.500223e-03 1.711434e+00 -3.884796e-03 1.630072e+00 -3.163354e-03 1.562594e+00 -4.905374e-04 1.508576e+00 5.262558e-03 1.467817e+00 1.463629e-02 1.438678e+00 2.411860e-02 1.411653e+00 3.083419e-02 1.386646e+00 3.526642e-02 1.364927e+00 3.784829e-02 1.347449e+00 3.854932e-02 1.334506e+00 3.792260e-02 1.325234e+00 3.694398e-02 1.318609e+00 3.646567e-02 1.313515e+00 3.722714e-02 1.309407e+00 3.895883e-02 1.306783e+00 4.086413e-02 1.306350e+00 4.204697e-02 1.308805e+00 4.160640e-02 1.314409e+00 3.942373e-02 1.322159e+00 3.560478e-02 1.330546e+00 2.957792e-02 1.337504e+00 2.047305e-02 1.342484e+00 9.658300e-03 1.355110e+00 2.163038e-03 1.377060e+00 -2.142048e-03 1.407916e+00 -4.382379e-03 1.447531e+00 -5.430500e-03 1.496369e+00 -5.776249e-03 1.555377e+00 -5.627002e-03 
1.642540e+00 -1.804243e-03 1.723917e+00 -4.877962e-04 1.819939e+00 -1.813559e-04 1.725766e+00 -9.430107e-04 1.645933e+00 -1.019973e-03 1.579540e+00 4.033297e-04 1.526282e+00 5.101185e-03 1.487338e+00 1.591940e-02 1.464932e+00 2.683138e-02 1.438417e+00 3.258157e-02 1.412865e+00 3.606813e-02 1.390867e+00 3.813260e-02 1.373573e+00 3.804035e-02 1.361530e+00 3.646601e-02 1.353200e+00 3.469654e-02 1.347487e+00 3.357837e-02 1.342859e+00 3.441279e-02 1.338468e+00 3.656114e-02 1.335371e+00 3.896149e-02 1.334419e+00 4.066473e-02 1.336607e+00 4.028700e-02 1.342766e+00 3.819621e-02 1.351471e+00 3.514811e-02 1.361252e+00 3.033768e-02 1.368401e+00 2.113373e-02 1.366833e+00 7.389929e-03 1.378176e+00 4.986535e-04 1.400210e+00 -2.397935e-03 1.430741e+00 -3.446861e-03 1.469396e+00 -3.628065e-03 1.516788e+00 -3.342981e-03 1.574032e+00 -2.731868e-03 
1.651968e+00 -3.125307e-03 1.738440e+00 -1.942559e-03 1.839606e+00 -1.618560e-03 1.740100e+00 -2.607940e-03 1.654859e+00 -2.995656e-03 1.583013e+00 -2.018433e-03 1.524420e+00 2.428458e-03 1.481147e+00 1.488448e-02 1.458698e+00 2.739941e-02 1.427984e+00 3.304592e-02 1.398357e+00 3.654734e-02 1.373043e+00 3.891724e-02 1.353214e+00 3.886876e-02 1.339619e+00 3.714683e-02 1.330198e+00 3.525435e-02 1.323820e+00 3.398238e-02 1.318655e+00 3.505730e-02 1.313577e+00 3.758283e-02 1.310029e+00 4.032536e-02 1.308927e+00 4.233677e-02 1.311429e+00 4.186424e-02 1.318820e+00 3.958474e-02 1.329368e+00 3.670564e-02 1.341739e+00 3.229191e-02 1.351343e+00 2.258206e-02 1.347717e+00 6.276012e-03 1.361595e+00 -6.305109e-04 1.387417e+00 -3.195308e-03 1.421968e+00 -4.118653e-03 1.464799e+00 -4.379189e-03 1.516602e+00 -4.278495e-03 1.578531e+00 -3.873945e-03 
1.662077e+00 -2.173494e-04 1.745842e+00 9.915878e-04 1.844263e+00 1.311798e-03 1.747008e+00 -2.357496e-04 1.663608e+00 -1.875396e-03 1.592615e+00 -3.398225e-03 1.533226e+00 -2.510266e-03 1.489101e+00 1.540005e-02 1.489902e+00 3.429781e-02 1.454461e+00 3.629560e-02 1.422132e+00 3.816977e-02 1.395701e+00 4.073535e-02 1.375548e+00 3.936920e-02 1.364017e+00 3.580180e-02 1.356258e+00 3.257786e-02 1.351884e+00 2.967033e-02 1.347857e+00 3.141142e-02 1.341651e+00 3.511015e-02 1.337035e+00 3.896513e-02 1.334705e+00 4.253265e-02 1.336195e+00 4.164835e-02 1.345177e+00 3.875876e-02 1.357643e+00 3.717576e-02 1.374362e+00 3.618071e-02 1.389854e+00 2.777633e-02 1.361743e+00 -1.557580e-03 1.377471e+00 -5.118575e-03 1.405441e+00 -4.535826e-03 1.440109e+00 -3.610575e-03 1.481751e+00 -2.801975e-03 1.531635e+00 -2.037835e-03 1.591224e+00 -1.205973e-03 
1.665266e+00 -1.554265e-03 1.753222e+00 -5.095600e-04 1.855859e+00 -1.783949e-04 1.754093e+00 -2.042021e-03 1.666004e+00 -4.241813e-03 1.589930e+00 -6.963290e-03 1.524646e+00 -8.273079e-03 1.473885e+00 9.529983e-03 1.475240e+00 2.850681e-02 1.433120e+00 2.825078e-02 1.396482e+00 2.914041e-02 1.367086e+00 3.167933e-02 1.344543e+00 3.020544e-02 1.331521e+00 2.662706e-02 1.322368e+00 2.360181e-02 1.317085e+00 2.058296e-02 1.312489e+00 2.253984e-02 1.305666e+00 2.629718e-02 1.300959e+00 3.006747e-02 1.298782e+00 3.380403e-02 1.300545e+00 3.281373e-02 1.310650e+00 3.006926e-02 1.324666e+00 2.950816e-02 1.344549e+00 3.066064e-02 1.365513e+00 2.444870e-02 1.334886e+00 -6.718878e-03 1.356345e+00 -7.855096e-03 1.389185e+00 -5.885005e-03 1.427837e+00 -4.467782e-03 1.473189e+00 -3.614326e-03 1.526828e+00 -2.991274e-03 1.590332e+00 -2.354892e-03 
1.668928e+00 1.276425e-03 1.753432e+00 2.358362e-03 1.852580e+00 2.680746e-03 1.753978e+00 4.300880e-04 1.668643e+00 -2.921102e-03 1.593815e+00 -9.476683e-03 1.524211e+00 -2.615241e-02 1.446017e+00 -7.921237e-02 1.307664e+00 -1.330686e-01 1.260499e+00 -1.520849e-01 1.234319e+00 -1.653956e-01 1.215983e+00 -1.757852e-01 1.198846e+00 -1.753963e-01 1.175441e+00 -1.681636e-01 1.153499e+00 -1.605023e-01 1.134186e+00 -1.542474e-01 1.123672e+00 -1.582731e-01 1.126379e+00 -1.675056e-01 1.134178e+00 -1.771310e-01 1.143978e+00 -1.844996e-01 1.151679e+00 -1.808879e-01 1.150926e+00 -1.704745e-01 1.151504e+00 -1.594606e-01 1.157145e+00 -1.450591e-01 1.185008e+00 -1.105884e-01 1.309782e+00 -3.747095e-02 1.365238e+00 -1.502476e-02 1.404146e+00 -6.984262e-03 1.442587e+00 -3.586707e-03 1.485955e+00 -1.845141e-03 1.536899e+00 -7.011393e-04 1.597318e+00 2.762322e-04 
1.665759e+00 -9.506647e-05 1.753639e+00 8.262380e-04 1.856177e+00 1.153876e-03 1.753996e+00 -1.299319e-03 1.664933e+00 -5.080512e-03 1.585828e+00 -1.322060e-02 1.509579e+00 -3.684731e-02 1.414184e+00 -1.229420e-01 1.206048e+00 -2.106522e-01 1.153130e+00 -2.378764e-01 1.128938e+00 -2.572338e-01 1.113286e+00 -2.730918e-01 1.096597e+00 -2.712716e-01 1.066614e+00 -2.584623e-01 1.037336e+00 -2.453566e-01 1.010457e+00 -2.343898e-01 9.964981e-01 -2.409168e-01 1.003301e+00 -2.560142e-01 1.016882e+00 -2.717733e-01 1.032508e+00 -2.842781e-01 1.043519e+00 -2.785507e-01 1.038546e+00 -2.620910e-01 1.034016e+00 -2.458293e-01 1.034526e+00 -2.254494e-01 1.067445e+00 -1.723796e-01 1.266734e+00 -5.118720e-02 1.340568e+00 -1.829486e-02 1.385292e+00 -7.956512e-03 1.427066e+00 -4.164517e-03 1.473366e+00 -2.523656e-03 1.527301e+00 -1.612781e-03 1.590864e+00 -8.828338e-04 