# vtk DataFile Version 2.0
Comment goes here
ASCII

DATASET STRUCTURED_POINTS
FIELD FieldData 1
TIME 1 1 double
0.08100000
DIMENSIONS    64   64   1

ORIGIN    0.000   0.000   0.000
SPACING   0.03125 0.03125   1.000

POINT_DATA   4096
SCALARS uX double
LOOKUP_TABLE default

5.209112e-01 -1.868339e+00 2.975829e-01 -1.802556e+00 2.523720e-02 -1.757443e+00 3.239840e-01 -1.623102e+00 4.566601e-01 -1.529413e+00 4.728775e-01 -1.402639e+00 3.863580e-01 -1.221155e+00 2.247867e-01 -1.005016e+00 2.983348e-02 -7.789377e-01 -1.739681e-01 -5.547848e-01 -3.757194e-01 -3.379346e-01 -5.690301e-01 -1.323503e-01 -7.507329e-01 5.927945e-02 -9.205567e-01 2.366852e-01 -1.074799e+00 3.979801e-01 -1.208023e+00 5.340951e-01 -1.309618e+00 6.325875e-01 -1.370497e+00 6.866890e-01 -1.388682e+00 7.015206e-01 -1.374169e+00 6.887985e-01 -1.340817e+00 6.524933e-01 -1.286068e+00 5.871177e-01 -1.205052e+00 4.928668e-01 -1.099531e+00 3.656329e-01 -9.637602e-01 1.924216e-01 -7.918356e-01 -2.668801e-02 -5.893069e-01 -2.898386e-01 -3.517279e-01 -6.055744e-01 -7.978731e-02 -9.650954e-01 2.008994e-01 -1.333924e+00 4.477530e-01 -1.672126e+00 6.225956e-01 -1.960936e+00 
-3.078743e-01 3.611847e-01 -9.641969e-02 3.369334e-01 2.359306e-01 3.115723e-01 -2.256638e-01 1.536589e-01 -4.542686e-01 7.578820e-02 -5.597769e-01 4.997455e-03 -5.805224e-01 -8.632812e-02 -5.454920e-01 -1.923578e-01 -4.850588e-01 -3.012138e-01 -4.165997e-01 -4.081498e-01 -3.475071e-01 -5.131692e-01 -2.784147e-01 -6.119407e-01 -2.103576e-01 -7.009115e-01 -1.455749e-01 -7.859448e-01 -8.788173e-02 -8.665214e-01 -3.906512e-02 -9.334500e-01 -4.274242e-03 -9.815395e-01 1.071112e-02 -1.009887e+00 4.575661e-03 -1.021350e+00 -1.422450e-02 -1.017383e+00 -3.746340e-02 -9.954138e-01 -6.901743e-02 -9.604687e-01 -1.120078e-01 -9.102511e-01 -1.638230e-01 -8.377050e-01 -2.255462e-01 -7.354848e-01 -3.005208e-01 -6.081680e-01 -3.811055e-01 -4.583470e-01 -4.677802e-01 -2.792268e-01 -5.603745e-01 -7.474868e-02 -6.424448e-01 1.347435e-01 -6.834303e-01 3.211138e-01 -6.554689e-01 4.792129e-01 
2.123346e+00 6.427841e-01 1.724325e+00 6.092169e-01 1.269679e+00 5.862276e-01 2.072884e+00 7.783462e-01 2.513582e+00 8.023865e-01 2.829243e+00 7.236802e-01 3.111415e+00 5.804491e-01 3.385509e+00 4.114266e-01 3.642955e+00 2.435188e-01 3.881271e+00 8.772573e-02 4.097018e+00 -4.606637e-02 4.286064e+00 -1.678511e-01 4.449564e+00 -2.867657e-01 4.596297e+00 -3.858458e-01 4.729404e+00 -4.629021e-01 4.842857e+00 -5.227263e-01 4.925038e+00 -5.551335e-01 4.978086e+00 -5.533059e-01 5.005021e+00 -5.175275e-01 4.999729e+00 -4.693416e-01 4.968717e+00 -4.261665e-01 4.918621e+00 -3.628944e-01 4.847985e+00 -2.834322e-01 4.747676e+00 -1.956452e-01 4.601810e+00 -9.280493e-02 4.416767e+00 2.951090e-02 4.191775e+00 1.679183e-01 3.915220e+00 3.259649e-01 3.580896e+00 4.984354e-01 3.200480e+00 6.643789e-01 2.786714e+00 8.038809e-01 2.359960e+00 8.216784e-01 
4.594864e+00 1.113271e-01 3.509479e+00 -3.206143e-01 1.838797e+00 -3.088965e-01 4.187267e+00 -1.535286e-02 5.283738e+00 8.071028e-02 5.950217e+00 1.301578e-01 6.414500e+00 1.861329e-01 6.761274e+00 2.529214e-01 7.037386e+00 3.248008e-01 7.264976e+00 3.957578e-01 7.448850e+00 4.666687e-01 7.597214e+00 5.330630e-01 7.716049e+00 5.911764e-01 7.805949e+00 6.418635e-01 7.874756e+00 6.887639e-01 7.925727e+00 7.290024e-01 7.962623e+00 7.609021e-01 7.989111e+00 7.836804e-01 8.007387e+00 7.987231e-01 8.014361e+00 8.088985e-01 8.003010e+00 8.158860e-01 7.971337e+00 8.166068e-01 7.920092e+00 8.132493e-01 7.843281e+00 8.068543e-01 7.736646e+00 7.926789e-01 7.596989e+00 7.722019e-01 7.417827e+00 7.465503e-01 7.196435e+00 7.053770e-01 6.926911e+00 6.415711e-01 6.588490e+00 5.537531e-01 6.144995e+00 4.405076e-01 5.553860e+00 2.516473e-01 
4.804257e+00 3.592975e-01 3.897087e+00 -1.011748e-01 2.510187e+00 -1.045452e-01 4.184101e+00 -1.515844e-01 5.248276e+00 -6.071988e-02 5.955697e+00 3.785833e-02 6.463199e+00 1.341920e-01 6.849417e+00 2.275921e-01 7.158937e+00 3.171239e-01 7.412663e+00 4.005059e-01 7.614818e+00 4.707275e-01 7.773730e+00 5.355095e-01 7.897854e+00 6.007351e-01 7.992915e+00 6.549206e-01 8.058565e+00 6.952596e-01 8.101071e+00 7.296868e-01 8.129541e+00 7.581109e-01 8.142890e+00 7.799238e-01 8.139643e+00 7.907695e-01 8.125762e+00 7.988747e-01 8.099230e+00 8.129450e-01 8.054158e+00 8.181814e-01 7.984785e+00 8.141504e-01 7.890800e+00 8.059765e-01 7.773963e+00 7.964611e-01 7.623222e+00 7.833479e-01 7.431222e+00 7.673854e-01 7.196370e+00 7.476325e-01 6.912329e+00 7.197081e-01 6.563018e+00 6.762937e-01 6.132596e+00 5.967602e-01 5.591452e+00 5.373766e-01 
5.132784e+00 1.380680e-01 4.286035e+00 1.484103e-04 3.160804e+00 -1.089805e-02 4.311533e+00 -7.330476e-02 5.357972e+00 -6.493090e-03 6.084277e+00 7.418309e-02 6.591906e+00 1.529235e-01 6.967704e+00 2.329660e-01 7.261326e+00 3.160085e-01 7.500590e+00 3.973583e-01 7.686383e+00 4.749389e-01 7.830524e+00 5.477682e-01 7.941480e+00 6.139572e-01 8.022645e+00 6.708255e-01 8.079192e+00 7.208776e-01 8.116604e+00 7.653446e-01 8.138858e+00 8.024461e-01 8.148886e+00 8.321929e-01 8.148327e+00 8.568085e-01 8.137328e+00 8.773452e-01 8.113851e+00 8.922724e-01 8.074378e+00 8.988124e-01 8.015495e+00 8.959390e-01 7.931597e+00 8.828266e-01 7.817004e+00 8.585702e-01 7.669215e+00 8.230045e-01 7.488780e+00 7.766287e-01 7.274753e+00 7.160243e-01 7.019316e+00 6.377815e-01 6.706565e+00 5.389996e-01 6.314394e+00 4.105189e-01 5.818022e+00 2.488978e-01 
5.388423e+00 2.978271e-01 4.711707e+00 1.902915e-01 3.782541e+00 1.781864e-01 4.571946e+00 2.143798e-02 5.381932e+00 -3.802249e-03 6.037626e+00 5.248903e-02 6.532936e+00 1.342447e-01 6.913728e+00 2.223101e-01 7.218632e+00 3.127777e-01 7.475301e+00 3.993623e-01 7.673727e+00 4.797006e-01 7.825631e+00 5.506794e-01 7.942319e+00 6.097968e-01 8.029860e+00 6.582209e-01 8.091632e+00 6.971988e-01 8.132520e+00 7.287999e-01 8.158495e+00 7.543122e-01 8.171282e+00 7.746885e-01 8.171095e+00 7.908357e-01 8.159172e+00 8.047281e-01 8.134069e+00 8.161704e-01 8.092621e+00 8.210382e-01 8.030799e+00 8.186087e-01 7.946376e+00 8.106639e-01 7.837302e+00 7.981590e-01 7.699310e+00 7.800156e-01 7.525153e+00 7.555640e-01 7.313036e+00 7.237529e-01 7.060705e+00 6.813515e-01 6.760272e+00 6.238104e-01 6.398799e+00 5.456676e-01 5.954143e+00 4.375295e-01 
5.749681e+00 2.148219e-01 5.148252e+00 2.262773e-01 4.383173e+00 2.139471e-01 4.942452e+00 9.963170e-02 5.603861e+00 5.403547e-02 6.203076e+00 8.547397e-02 6.675443e+00 1.519114e-01 7.039477e+00 2.315320e-01 7.326862e+00 3.208986e-01 7.573099e+00 4.120356e-01 7.755133e+00 4.980647e-01 7.889569e+00 5.722326e-01 7.991160e+00 6.317945e-01 8.066063e+00 6.803656e-01 8.118709e+00 7.223180e-01 8.153809e+00 7.594881e-01 8.175388e+00 7.918456e-01 8.186011e+00 8.199541e-01 8.186828e+00 8.448399e-01 8.178535e+00 8.658999e-01 8.160321e+00 8.805026e-01 8.128900e+00 8.858616e-01 8.080128e+00 8.802233e-01 8.007625e+00 8.629763e-01 7.901644e+00 8.352405e-01 7.762425e+00 7.939040e-01 7.596173e+00 7.410606e-01 7.408012e+00 6.768551e-01 7.191352e+00 6.007302e-01 6.934892e+00 5.119084e-01 6.624183e+00 4.098670e-01 6.240459e+00 2.995538e-01 
6.060922e+00 3.378466e-01 5.585389e+00 3.523596e-01 4.956196e+00 3.400417e-01 5.338594e+00 2.042944e-01 5.797733e+00 1.019783e-01 6.275495e+00 9.312246e-02 6.694672e+00 1.467977e-01 7.037135e+00 2.281131e-01 7.318801e+00 3.214226e-01 7.581618e+00 4.224176e-01 7.769856e+00 5.147544e-01 7.905837e+00 5.872996e-01 8.008238e+00 6.388288e-01 8.083486e+00 6.769022e-01 8.136373e+00 7.078524e-01 8.172304e+00 7.336701e-01 8.196019e+00 7.544272e-01 8.209405e+00 7.716369e-01 8.212609e+00 7.877646e-01 8.205785e+00 8.035937e-01 8.186831e+00 8.168707e-01 8.152334e+00 8.236567e-01 8.099455e+00 8.212899e-01 8.026110e+00 8.103406e-01 7.929189e+00 7.940288e-01 7.809596e+00 7.684056e-01 7.657352e+00 7.318136e-01 7.473691e+00 6.845893e-01 7.264780e+00 6.282529e-01 7.030127e+00 5.645501e-01 6.761465e+00 4.922395e-01 6.445072e+00 4.093161e-01 
6.418486e+00 2.988968e-01 6.013928e+00 3.652271e-01 5.508044e+00 3.536793e-01 5.766426e+00 2.417727e-01 6.109016e+00 1.393165e-01 6.503376e+00 1.119421e-01 6.876486e+00 1.548786e-01 7.188433e+00 2.379054e-01 7.440766e+00 3.336907e-01 7.703213e+00 4.581477e-01 7.871775e+00 5.580225e-01 7.981477e+00 6.251281e-01 8.064864e+00 6.678089e-01 8.127912e+00 7.000906e-01 8.172821e+00 7.304365e-01 8.203431e+00 7.598370e-01 8.223226e+00 7.864656e-01 8.234204e+00 8.106263e-01 8.237142e+00 8.339468e-01 8.233918e+00 8.554810e-01 8.224570e+00 8.714697e-01 8.204802e+00 8.781983e-01 8.170511e+00 8.728137e-01 8.114474e+00 8.546828e-01 8.015159e+00 8.262111e-01 7.880635e+00 7.730073e-01 7.724299e+00 7.052411e-01 7.567074e+00 6.313394e-01 7.400021e+00 5.538588e-01 7.213605e+00 4.751585e-01 6.997600e+00 3.978154e-01 6.738766e+00 3.289002e-01 
6.733628e+00 3.920974e-01 6.427704e+00 4.620246e-01 6.033237e+00 4.512209e-01 6.174238e+00 3.287693e-01 6.381641e+00 1.860588e-01 6.664471e+00 1.089468e-01 6.971805e+00 1.292734e-01 7.241811e+00 2.320426e-01 7.463561e+00 3.317273e-01 7.759612e+00 4.996135e-01 7.920969e+00 6.034718e-01 8.018963e+00 6.586111e-01 8.096408e+00 6.863179e-01 8.153672e+00 7.047374e-01 8.193842e+00 7.241347e-01 8.222872e+00 7.436286e-01 8.244138e+00 7.589439e-01 8.258232e+00 7.704939e-01 8.265358e+00 7.823288e-01 8.267079e+00 7.973749e-01 8.258972e+00 8.139890e-01 8.235054e+00 8.279085e-01 8.191989e+00 8.324126e-01 8.129454e+00 8.191792e-01 8.044983e+00 8.028533e-01 7.945485e+00 7.716889e-01 7.812880e+00 7.166778e-01 7.651350e+00 6.414342e-01 7.486888e+00 5.666277e-01 7.325943e+00 5.028817e-01 7.157279e+00 4.483728e-01 6.965851e+00 4.031025e-01 
7.072122e+00 3.715115e-01 6.829667e+00 4.694818e-01 6.537113e+00 4.600519e-01 6.592078e+00 3.553830e-01 6.719662e+00 2.109734e-01 6.927632e+00 9.254978e-02 7.190375e+00 6.756281e-02 7.431937e+00 2.062065e-01 7.589948e+00 3.386868e-01 7.933242e+00 6.181244e-01 8.048751e+00 6.908096e-01 8.095813e+00 7.098224e-01 8.152870e+00 7.154174e-01 8.201527e+00 7.217405e-01 8.236862e+00 7.381893e-01 8.262889e+00 7.614131e-01 8.281425e+00 7.841930e-01 8.292397e+00 8.048051e-01 8.296299e+00 8.250451e-01 8.299771e+00 8.439498e-01 8.304572e+00 8.590859e-01 8.302006e+00 8.693995e-01 8.288808e+00 8.721160e-01 8.260707e+00 8.687391e-01 8.157936e+00 8.650575e-01 8.012239e+00 7.754124e-01 7.842640e+00 6.681981e-01 7.720330e+00 5.754010e-01 7.611967e+00 4.940376e-01 7.505070e+00 4.292278e-01 7.388509e+00 3.808555e-01 7.249230e+00 3.524693e-01 
7.371149e+00 4.478045e-01 7.207930e+00 5.555409e-01 7.015020e+00 5.477222e-01 6.969169e+00 4.536400e-01 6.997828e+00 2.835626e-01 7.117446e+00 7.586857e-02 7.331130e+00 -7.464972e-02 7.549347e+00 8.899279e-02 7.634721e+00 3.482263e-01 8.096471e+00 7.996496e-01 8.126346e+00 7.720231e-01 8.141084e+00 7.483151e-01 8.194856e+00 7.363643e-01 8.232370e+00 7.277329e-01 8.257665e+00 7.364099e-01 8.281592e+00 7.544732e-01 8.302723e+00 7.692880e-01 8.315891e+00 7.765271e-01 8.323651e+00 7.771657e-01 8.338134e+00 7.806172e-01 8.348690e+00 7.930291e-01 8.344129e+00 8.156628e-01 8.316861e+00 8.537674e-01 8.259735e+00 8.567537e-01 8.183190e+00 8.450593e-01 8.100989e+00 8.381048e-01 7.969749e+00 7.212881e-01 7.804164e+00 5.729700e-01 7.689311e+00 4.781675e-01 7.617412e+00 4.316483e-01 7.553337e+00 4.097112e-01 7.476509e+00 4.065306e-01 
7.685102e+00 4.400708e-01 7.576318e+00 5.634967e-01 7.471401e+00 5.576425e-01 7.361065e+00 5.079910e-01 7.330358e+00 3.822277e-01 7.375610e+00 1.449205e-01 7.531154e+00 -2.046250e-01 7.771019e+00 -1.885919e-01 7.796542e+00 3.684322e-01 8.400780e+00 1.146998e+00 8.226778e+00 7.993928e-01 8.179314e+00 7.463327e-01 8.242649e+00 7.394706e-01 8.278349e+00 7.241529e-01 8.302325e+00 7.280677e-01 8.328964e+00 7.524479e-01 8.351941e+00 7.828695e-01 8.361737e+00 8.105212e-01 8.358129e+00 8.302368e-01 8.365499e+00 8.323604e-01 8.392464e+00 8.263899e-01 8.417041e+00 8.266400e-01 8.440956e+00 8.399791e-01 8.482732e+00 9.097849e-01 8.358128e+00 1.131768e+00 8.128519e+00 8.126280e-01 7.885277e+00 6.047931e-01 7.828793e+00 4.775014e-01 7.803369e+00 3.978157e-01 7.794590e+00 3.677259e-01 7.779496e+00 3.619965e-01 7.745959e+00 3.764809e-01 
7.959368e+00 5.050686e-01 7.915765e+00 6.369951e-01 7.902382e+00 6.332024e-01 7.701804e+00 6.317600e-01 7.578291e+00 5.683078e-01 7.528056e+00 3.554717e-01 7.614833e+00 -7.916126e-02 7.806188e+00 -3.260919e-01 7.922318e+00 2.382200e-01 8.474290e+00 1.125954e+00 8.095694e+00 4.634532e-01 8.160759e+00 5.366308e-01 8.268830e+00 6.134674e-01 8.281832e+00 6.351555e-01 8.290057e+00 6.775974e-01 8.321076e+00 7.276312e-01 8.356011e+00 7.688533e-01 8.365369e+00 7.966177e-01 8.357631e+00 7.828241e-01 8.390511e+00 7.422125e-01 8.432766e+00 7.310497e-01 8.460777e+00 7.183513e-01 8.492318e+00 7.626809e-01 8.468574e+00 8.895112e-01 8.359429e+00 9.343268e-01 8.287040e+00 9.835387e-01 8.017001e+00 6.132519e-01 7.854452e+00 3.767578e-01 7.861363e+00 3.331879e-01 7.911590e+00 3.519860e-01 7.946947e+00 3.796560e-01 7.964054e+00 4.190849e-01 
8.244499e+00 5.070986e-01 8.249016e+00 6.300806e-01 8.311386e+00 6.274532e-01 8.070271e+00 6.604195e-01 7.910605e+00 7.167027e-01 7.801071e+00 8.123263e-01 7.708794e+00 8.752215e-01 7.640444e+00 4.738258e-01 7.742490e+00 3.075671e-02 7.194248e+00 -1.109844e+00 7.310249e+00 -8.750869e-01 7.593925e+00 -5.619632e-01 7.728564e+00 -3.369843e-01 7.808433e+00 -1.263119e-01 7.865268e+00 5.746716e-02 7.930169e+00 2.253877e-01 7.995487e+00 3.654295e-01 8.043729e+00 4.709912e-01 8.070910e+00 5.446692e-01 8.119301e+00 5.801366e-01 8.188842e+00 6.392990e-01 8.239525e+00 7.207822e-01 8.303444e+00 8.481771e-01 8.435717e+00 1.303576e+00 8.362137e+00 2.357711e+00 8.401274e+00 1.770760e+00 7.938815e+00 5.362686e-01 7.872542e+00 2.022105e-01 8.004110e+00 2.416406e-01 8.114213e+00 3.128905e-01 8.176614e+00 3.599350e-01 8.217948e+00 4.102725e-01 
8.486970e+00 5.513552e-01 8.553633e+00 6.608462e-01 8.695523e+00 6.594995e-01 8.404660e+00 7.236407e-01 8.166446e+00 9.110255e-01 7.868859e+00 1.360529e+00 7.354463e+00 1.984574e+00 6.757071e+00 1.562766e+00 6.593801e+00 -6.423990e-01 4.362554e+00 -3.328759e+00 5.469657e+00 -2.342310e+00 5.295140e+00 -2.607307e+00 5.144870e+00 -2.658241e+00 5.236852e+00 -2.544078e+00 5.357968e+00 -2.461740e+00 5.415497e+00 -2.404456e+00 5.449020e+00 -2.325001e+00 5.517497e+00 -2.211412e+00 5.606580e+00 -2.054328e+00 5.614191e+00 -1.870829e+00 5.604249e+00 -1.724577e+00 5.659904e+00 -1.574387e+00 5.775796e+00 -1.456204e+00 6.028756e+00 -1.346890e+00 6.462200e+00 -1.162695e+00 6.858032e+00 -8.286284e-01 7.366157e+00 -4.176439e-01 7.872666e+00 -1.273745e-02 8.137486e+00 2.063700e-01 8.259084e+00 3.130470e-01 8.338402e+00 3.773826e-01 8.414264e+00 4.441745e-01 
8.737107e+00 5.507335e-01 8.850707e+00 6.432202e-01 9.057294e+00 6.438318e-01 8.712939e+00 6.973127e-01 8.409449e+00 8.326709e-01 8.037107e+00 1.148520e+00 7.487718e+00 1.606512e+00 6.891602e+00 1.417700e+00 6.680004e+00 3.189997e-01 5.247246e+00 -1.404280e+00 5.221645e+00 -1.358074e+00 5.098221e+00 -1.814609e+00 4.858262e+00 -2.133944e+00 4.783713e+00 -2.327267e+00 4.767559e+00 -2.536610e+00 4.719230e+00 -2.764431e+00 4.658577e+00 -2.946514e+00 4.648043e+00 -3.066918e+00 4.691491e+00 -3.111863e+00 4.630897e+00 -3.053955e+00 4.489065e+00 -3.028944e+00 4.408551e+00 -3.019288e+00 4.329147e+00 -3.095546e+00 4.210347e+00 -3.915425e+00 4.999377e+00 -6.074291e+00 5.997122e+00 -3.985968e+00 7.877610e+00 -9.093095e-01 8.443084e+00 1.414979e-01 8.504437e+00 3.478923e-01 8.506555e+00 3.718622e-01 8.553694e+00 3.935045e-01 8.638128e+00 4.481288e-01 
8.944783e+00 5.747619e-01 9.118888e+00 6.570234e-01 9.394309e+00 6.596912e-01 9.000694e+00 6.737405e-01 8.673548e+00 6.397686e-01 8.382506e+00 5.123084e-01 8.157902e+00 3.219660e-01 7.987034e+00 3.392846e-01 7.745876e+00 9.812395e-01 8.205898e+00 1.347575e+00 7.539097e+00 7.083164e-01 7.697836e+00 6.984495e-01 7.697423e+00 5.597667e-01 7.595987e+00 3.637479e-01 7.504037e+00 1.577421e-01 7.448993e+00 -3.861790e-02 7.404420e+00 -2.169082e-01 7.355546e+00 -3.802395e-01 7.305381e+00 -5.142859e-01 7.246182e+00 -6.348297e-01 7.187950e+00 -7.688000e-01 7.138970e+00 -9.073324e-01 7.100607e+00 -1.103275e+00 7.100409e+00 -1.364566e+00 7.188161e+00 -1.576126e+00 7.140360e+00 -1.803722e+00 7.751399e+00 -7.807056e-01 8.204134e+00 -6.778693e-02 8.424159e+00 2.250581e-01 8.548101e+00 3.337699e-01 8.664537e+00 3.968735e-01 8.797732e+00 4.700801e-01 
9.162618e+00 5.625867e-01 9.380107e+00 6.306562e-01 9.709195e+00 6.347213e-01 9.289295e+00 6.443450e-01 8.952711e+00 5.768601e-01 8.704729e+00 3.191838e-01 8.628571e+00 -1.263604e-01 8.649047e+00 -1.096764e-01 8.438661e+00 2.865659e-01 9.002743e+00 1.438537e+00 8.797047e+00 1.039426e+00 8.650348e+00 9.646222e-01 8.653404e+00 9.473599e-01 8.604281e+00 9.050572e-01 8.561472e+00 8.907846e-01 8.552133e+00 8.842619e-01 8.561880e+00 8.662262e-01 8.558514e+00 8.348603e-01 8.541602e+00 7.692420e-01 8.570526e+00 6.652188e-01 8.616722e+00 5.951862e-01 8.645532e+00 5.308500e-01 8.706275e+00 5.064017e-01 8.805495e+00 8.308052e-01 8.717209e+00 1.713551e+00 8.606820e+00 1.061506e+00 8.226494e+00 6.217927e-02 8.318140e+00 6.534582e-03 8.522591e+00 1.841612e-01 8.689884e+00 3.108955e-01 8.834250e+00 3.886304e-01 8.988435e+00 4.648750e-01 
9.336761e+00 5.667495e-01 9.612780e+00 6.148700e-01 9.999767e+00 6.195576e-01 9.579255e+00 6.123154e-01 9.248769e+00 5.581294e-01 9.012770e+00 4.272316e-01 8.908027e+00 2.391723e-01 8.898225e+00 2.733300e-01 8.812502e+00 5.457559e-01 9.077338e+00 9.872577e-01 8.813972e+00 9.113509e-01 8.698117e+00 8.606299e-01 8.664855e+00 8.316639e-01 8.632773e+00 8.108916e-01 8.605506e+00 8.125613e-01 8.592183e+00 8.260106e-01 8.587730e+00 8.347200e-01 8.579882e+00 8.336119e-01 8.570115e+00 8.113926e-01 8.591830e+00 7.703111e-01 8.630953e+00 7.481287e-01 8.660964e+00 7.417933e-01 8.691818e+00 7.922331e-01 8.695948e+00 9.316142e-01 8.644337e+00 1.050152e+00 8.783766e+00 1.119226e+00 8.571346e+00 5.563561e-01 8.484055e+00 2.631098e-01 8.582741e+00 2.552639e-01 8.745479e+00 3.258660e-01 8.922552e+00 3.993680e-01 9.116727e+00 4.784242e-01 
9.520019e+00 5.379723e-01 9.837276e+00 5.725197e-01 1.026822e+01 5.782183e-01 9.847076e+00 5.664058e-01 9.523244e+00 5.122250e-01 9.289975e+00 4.321537e-01 9.137394e+00 4.082165e-01 9.009064e+00 4.816191e-01 8.906800e+00 5.708499e-01 8.996404e+00 8.355072e-01 8.952109e+00 9.004893e-01 8.847736e+00 9.164086e-01 8.781293e+00 8.986349e-01 8.725935e+00 8.693621e-01 8.682672e+00 8.527489e-01 8.655011e+00 8.485278e-01 8.639195e+00 8.454596e-01 8.627679e+00 8.399408e-01 8.619731e+00 8.309662e-01 8.632642e+00 8.161248e-01 8.664639e+00 8.038003e-01 8.700754e+00 8.053454e-01 8.743438e+00 8.380500e-01 8.793752e+00 9.188951e-01 8.746706e+00 1.049003e+00 8.664035e+00 8.266919e-01 8.562834e+00 5.552985e-01 8.595628e+00 3.647341e-01 8.706814e+00 3.098015e-01 8.869593e+00 3.388861e-01 9.058363e+00 3.954513e-01 9.271742e+00 4.649340e-01 
9.664728e+00 5.413591e-01 1.003023e+01 5.650197e-01 1.051256e+01 5.718661e-01 1.008619e+01 5.793367e-01 9.752543e+00 5.667859e-01 9.496195e+00 5.389761e-01 9.304227e+00 5.364419e-01 9.150215e+00 5.858027e-01 9.035523e+00 6.596248e-01 9.019413e+00 7.666134e-01 8.936282e+00 8.393484e-01 8.856092e+00 8.667068e-01 8.793415e+00 8.640547e-01 8.742284e+00 8.527097e-01 8.699503e+00 8.459094e-01 8.667324e+00 8.415708e-01 8.645918e+00 8.328824e-01 8.633768e+00 8.194508e-01 8.630626e+00 8.057145e-01 8.642525e+00 7.975723e-01 8.663950e+00 7.983055e-01 8.684881e+00 8.073495e-01 8.703719e+00 8.223743e-01 8.724072e+00 8.212875e-01 8.733280e+00 8.275440e-01 8.765950e+00 7.941945e-01 8.744238e+00 6.564141e-01 8.745459e+00 5.012887e-01 8.813428e+00 4.123903e-01 8.953117e+00 3.981060e-01 9.145386e+00 4.287024e-01 9.380648e+00 4.834498e-01 
9.813819e+00 5.138510e-01 1.021436e+01 5.271396e-01 1.073453e+01 5.348928e-01 1.030426e+01 5.495876e-01 9.962503e+00 5.588866e-01 9.685146e+00 5.679870e-01 9.455802e+00 5.901560e-01 9.265720e+00 6.281549e-01 9.123802e+00 6.873195e-01 9.076321e+00 7.664962e-01 9.023488e+00 8.356310e-01 8.948680e+00 8.815464e-01 8.880533e+00 8.933986e-01 8.819692e+00 8.853112e-01 8.767214e+00 8.736410e-01 8.725397e+00 8.626109e-01 8.696046e+00 8.498029e-01 8.678564e+00 8.365510e-01 8.671838e+00 8.270980e-01 8.679268e+00 8.228588e-01 8.699819e+00 8.225485e-01 8.726989e+00 8.240415e-01 8.758982e+00 8.224217e-01 8.791462e+00 8.147929e-01 8.785693e+00 7.992000e-01 8.772507e+00 7.243056e-01 8.760015e+00 6.184709e-01 8.803497e+00 5.119046e-01 8.900759e+00 4.387994e-01 9.052884e+00 4.151361e-01 9.255092e+00 4.314689e-01 9.505340e+00 4.721928e-01 
9.931067e+00 5.259126e-01 1.036879e+01 5.331740e-01 1.093244e+01 5.420750e-01 1.048647e+01 5.696577e-01 1.012944e+01 5.974715e-01 9.833753e+00 6.205846e-01 9.585204e+00 6.459812e-01 9.381739e+00 6.792478e-01 9.225167e+00 7.252033e-01 9.127606e+00 7.705868e-01 9.041160e+00 8.214158e-01 8.961952e+00 8.601932e-01 8.891343e+00 8.750680e-01 8.829143e+00 8.727055e-01 8.775044e+00 8.634224e-01 8.731107e+00 8.512613e-01 8.699821e+00 8.359180e-01 8.681832e+00 8.196405e-01 8.675783e+00 8.074340e-01 8.681298e+00 8.019961e-01 8.695844e+00 8.009312e-01 8.715466e+00 7.981975e-01 8.739886e+00 7.870300e-01 8.769497e+00 7.683205e-01 8.793642e+00 7.505239e-01 8.826479e+00 7.122020e-01 8.856160e+00 6.465523e-01 8.902128e+00 5.668884e-01 8.987691e+00 4.990936e-01 9.130203e+00 4.652511e-01 9.333283e+00 4.681564e-01 9.596705e+00 4.965285e-01 
1.004732e+01 5.062564e-01 1.051268e+01 5.066208e-01 1.110779e+01 5.164082e-01 1.065189e+01 5.515588e-01 1.028350e+01 5.926554e-01 9.972809e+00 6.294807e-01 9.705843e+00 6.622501e-01 9.483346e+00 6.974841e-01 9.310868e+00 7.420167e-01 9.202209e+00 7.901799e-01 9.121211e+00 8.398169e-01 9.036352e+00 8.797253e-01 8.959288e+00 8.970474e-01 8.891175e+00 8.952086e-01 8.831017e+00 8.841865e-01 8.780569e+00 8.697049e-01 8.743286e+00 8.530586e-01 8.720583e+00 8.366200e-01 8.711341e+00 8.244753e-01 8.715349e+00 8.180158e-01 8.731807e+00 8.141372e-01 8.757408e+00 8.070236e-01 8.789275e+00 7.910410e-01 8.820995e+00 7.672537e-01 8.836623e+00 7.379030e-01 8.853602e+00 6.899581e-01 8.882193e+00 6.266295e-01 8.941662e+00 5.577249e-01 9.044632e+00 4.992142e-01 9.201417e+00 4.675106e-01 9.416473e+00 4.668683e-01 9.693312e+00 4.877048e-01 
1.013722e+01 5.252861e-01 1.063013e+01 5.221787e-01 1.125917e+01 5.328798e-01 1.078452e+01 5.699105e-01 1.040214e+01 6.131202e-01 1.008051e+01 6.519944e-01 9.802102e+00 6.857382e-01 9.567815e+00 7.156811e-01 9.382506e+00 7.535521e-01 9.240300e+00 7.939732e-01 9.150715e+00 8.473087e-01 9.059060e+00 8.824227e-01 8.971512e+00 8.949211e-01 8.896435e+00 8.900305e-01 8.831866e+00 8.763539e-01 8.778815e+00 8.592552e-01 8.740527e+00 8.396167e-01 8.717921e+00 8.189846e-01 8.709451e+00 8.017690e-01 8.713537e+00 7.911913e-01 8.728548e+00 7.858647e-01 8.751348e+00 7.806237e-01 8.779507e+00 7.690388e-01 8.811850e+00 7.511618e-01 8.844672e+00 7.320799e-01 8.884391e+00 7.011117e-01 8.944123e+00 6.533357e-01 9.005713e+00 5.868810e-01 9.101238e+00 5.265823e-01 9.256168e+00 4.942522e-01 9.476359e+00 4.934249e-01 9.764357e+00 5.120716e-01 
1.022254e+01 5.127169e-01 1.073508e+01 5.062117e-01 1.138786e+01 5.176827e-01 1.090118e+01 5.578805e-01 1.050963e+01 6.035329e-01 1.018063e+01 6.436781e-01 9.893343e+00 6.820317e-01 9.646474e+00 7.163075e-01 9.455814e+00 7.599354e-01 9.307773e+00 8.178574e-01 9.226937e+00 8.807260e-01 9.118604e+00 9.082250e-01 9.022425e+00 9.144317e-01 8.944245e+00 9.066515e-01 8.876008e+00 8.917079e-01 8.817953e+00 8.742483e-01 8.774964e+00 8.544404e-01 8.749042e+00 8.330222e-01 8.738625e+00 8.138371e-01 8.742924e+00 8.003521e-01 8.761734e+00 7.924550e-01 8.791180e+00 7.864781e-01 8.825901e+00 7.764459e-01 8.859361e+00 7.597358e-01 8.882721e+00 7.384053e-01 8.913007e+00 7.024736e-01 8.965334e+00 6.449804e-01 9.026942e+00 5.705254e-01 9.132884e+00 5.095463e-01 9.302127e+00 4.815356e-01 9.535500e+00 4.848254e-01 9.835307e+00 5.037763e-01 
1.028524e+01 5.380429e-01 1.081547e+01 5.318829e-01 1.149271e+01 5.441440e-01 1.098481e+01 5.821520e-01 1.058038e+01 6.166980e-01 1.024730e+01 6.396174e-01 9.956026e+00 6.721868e-01 9.695067e+00 6.979573e-01 9.502061e+00 7.338266e-01 9.317286e+00 8.175052e-01 9.270224e+00 9.295500e-01 9.148301e+00 9.288954e-01 9.030534e+00 9.195441e-01 8.943856e+00 9.064278e-01 8.869367e+00 8.875142e-01 8.807607e+00 8.668831e-01 8.764479e+00 8.433823e-01 8.739328e+00 8.159501e-01 8.730100e+00 7.878719e-01 8.736438e+00 7.654566e-01 8.758678e+00 7.540200e-01 8.790653e+00 7.548776e-01 8.822592e+00 7.650493e-01 8.851151e+00 7.681700e-01 8.888128e+00 7.592696e-01 8.920780e+00 7.440775e-01 9.018474e+00 6.948198e-01 9.060303e+00 5.778413e-01 9.153620e+00 5.010906e-01 9.330971e+00 4.827167e-01 9.576037e+00 4.995957e-01 9.885945e+00 5.268338e-01 
1.034156e+01 5.330970e-01 1.088235e+01 5.265123e-01 1.157475e+01 5.394210e-01 1.105381e+01 5.813709e-01 1.064070e+01 6.134709e-01 1.030470e+01 6.179428e-01 1.001637e+01 6.305575e-01 9.748030e+00 6.666293e-01 9.554105e+00 6.940503e-01 9.385026e+00 9.008544e-01 9.360124e+00 9.995425e-01 9.175135e+00 9.446234e-01 9.057901e+00 9.263101e-01 8.979089e+00 9.155656e-01 8.903172e+00 8.979685e-01 8.835911e+00 8.785855e-01 8.788776e+00 8.553689e-01 8.762152e+00 8.287110e-01 8.750990e+00 7.988856e-01 8.756824e+00 7.695109e-01 8.784963e+00 7.506193e-01 8.827273e+00 7.467043e-01 8.873089e+00 7.610246e-01 8.909255e+00 7.967866e-01 8.920898e+00 8.088647e-01 8.950359e+00 7.846952e-01 9.019993e+00 6.806696e-01 9.049738e+00 5.339855e-01 9.160457e+00 4.603208e-01 9.358703e+00 4.575426e-01 9.617403e+00 4.871736e-01 9.935047e+00 5.208493e-01 
1.037686e+01 5.641066e-01 1.092537e+01 5.613692e-01 1.163311e+01 5.751201e-01 1.108957e+01 6.312707e-01 1.065695e+01 6.649691e-01 1.031089e+01 6.176108e-01 1.003515e+01 5.504974e-01 9.758315e+00 5.770150e-01 9.557599e+00 5.257728e-01 9.372131e+00 9.709591e-01 9.457890e+00 1.196361e+00 9.173781e+00 9.198472e-01 9.044631e+00 9.028637e-01 8.973397e+00 9.149147e-01 8.886837e+00 8.993689e-01 8.811750e+00 8.764372e-01 8.767160e+00 8.449300e-01 8.743150e+00 8.147262e-01 8.730209e+00 7.743861e-01 8.735256e+00 7.221662e-01 8.772279e+00 6.881628e-01 8.823820e+00 6.768928e-01 8.875286e+00 7.133312e-01 8.899017e+00 8.510443e-01 8.913324e+00 8.675417e-01 8.931985e+00 9.467067e-01 9.095747e+00 7.551577e-01 9.016356e+00 4.406014e-01 9.143421e+00 3.983287e-01 9.375227e+00 4.454188e-01 9.646169e+00 5.008855e-01 9.966903e+00 5.460256e-01 
1.040491e+01 5.647707e-01 1.095503e+01 5.624961e-01 1.166853e+01 5.766571e-01 1.111479e+01 6.444371e-01 1.067157e+01 6.955458e-01 1.031289e+01 6.603734e-01 1.002538e+01 5.900389e-01 9.736963e+00 6.032000e-01 9.506518e+00 5.269434e-01 9.362432e+00 9.885978e-01 9.393573e+00 1.131021e+00 9.045070e+00 7.903578e-01 8.981107e+00 8.267695e-01 8.923497e+00 8.611048e-01 8.825539e+00 8.393294e-01 8.740923e+00 8.066837e-01 8.692951e+00 7.636669e-01 8.667970e+00 7.293290e-01 8.646851e+00 6.873233e-01 8.637570e+00 6.288735e-01 8.662402e+00 5.878834e-01 8.700536e+00 5.641662e-01 8.749906e+00 5.677627e-01 8.806289e+00 7.216091e-01 8.800384e+00 8.499609e-01 8.875464e+00 9.048103e-01 8.982469e+00 5.770997e-01 8.949804e+00 3.076843e-01 9.143970e+00 3.423581e-01 9.401816e+00 4.267742e-01 9.676791e+00 4.951003e-01 9.996033e+00 5.447975e-01 
1.041052e+01 5.895878e-01 1.096275e+01 5.864779e-01 1.168035e+01 6.006171e-01 1.112523e+01 6.970700e-01 1.066518e+01 8.536530e-01 1.023486e+01 1.047345e+00 9.811732e+00 1.162502e+00 9.477798e+00 1.091662e+00 9.089855e+00 1.046024e+00 8.748408e+00 2.434289e-01 8.039269e+00 -2.381313e-01 7.996366e+00 -8.067473e-02 7.810753e+00 -2.131228e-01 7.636425e+00 -3.518143e-01 7.552526e+00 -4.330544e-01 7.508157e+00 -4.948451e-01 7.460946e+00 -5.297409e-01 7.412715e+00 -5.512718e-01 7.378686e+00 -5.530515e-01 7.348958e+00 -5.476054e-01 7.299764e+00 -5.865970e-01 7.272927e+00 -6.722942e-01 7.303348e+00 -8.206268e-01 7.430705e+00 -1.124479e+00 7.690794e+00 -1.270020e+00 7.967519e+00 -1.361072e+00 8.116037e+00 -7.646980e-01 8.812119e+00 2.849165e-02 9.196290e+00 3.431063e-01 9.439977e+00 4.566319e-01 9.692210e+00 5.197308e-01 1.000313e+01 5.682795e-01 
1.040971e+01 5.869328e-01 1.095646e+01 5.840489e-01 1.166912e+01 5.980776e-01 1.111545e+01 7.115736e-01 1.064826e+01 9.284858e-01 1.017845e+01 1.249577e+00 9.680044e+00 1.461623e+00 9.323579e+00 1.335424e+00 8.846524e+00 1.276799e+00 8.339179e+00 -3.388901e-01 7.202588e+00 -1.146029e+00 7.458726e+00 -6.085467e-01 7.174392e+00 -8.569593e-01 6.928720e+00 -1.076312e+00 6.878212e+00 -1.149637e+00 6.887329e+00 -1.187142e+00 6.866060e+00 -1.182800e+00 6.826901e+00 -1.172572e+00 6.811084e+00 -1.135118e+00 6.799328e+00 -1.076474e+00 6.741134e+00 -1.086434e+00 6.704886e+00 -1.161897e+00 6.734162e+00 -1.322974e+00 6.894712e+00 -1.796142e+00 7.310039e+00 -2.045731e+00 7.673106e+00 -2.126100e+00 7.905961e+00 -1.143908e+00 8.823625e+00 -1.789533e-02 9.243247e+00 3.592707e-01 9.467404e+00 4.663017e-01 9.704827e+00 5.204297e-01 1.000799e+01 5.656436e-01 
1.038563e+01 6.015405e-01 1.092838e+01 6.026063e-01 1.163413e+01 6.164921e-01 1.108249e+01 7.029627e-01 1.063219e+01 8.258888e-01 1.023080e+01 9.483158e-01 9.859568e+00 1.000086e+00 9.554554e+00 9.461516e-01 9.223765e+00 8.765648e-01 8.977779e+00 4.715677e-01 8.452445e+00 6.607375e-02 8.326472e+00 1.348306e-01 8.231148e+00 8.649115e-02 8.120160e+00 4.380171e-02 8.058916e+00 2.961762e-02 8.028982e+00 2.616777e-02 8.008163e+00 2.911648e-02 7.997648e+00 3.783387e-02 7.997946e+00 4.748070e-02 8.009328e+00 4.997733e-02 8.034573e+00 4.123093e-02 8.077867e+00 2.691859e-02 8.152582e+00 1.527371e-02 8.270208e+00 7.218891e-02 8.365105e+00 1.987439e-01 8.544156e+00 2.460917e-01 8.642647e+00 1.181318e-01 8.839447e+00 1.925493e-01 9.128808e+00 3.371461e-01 9.396192e+00 4.436806e-01 9.667152e+00 5.187817e-01 9.982244e+00 5.748598e-01 