# vtk DataFile Version 2.0
Comment goes here
ASCII

DATASET STRUCTURED_POINTS
FIELD FieldData 1
TIME 1 1 double
0.03900000
DIMENSIONS    64   64   1

ORIGIN    0.000   0.000   0.000
SPACING   0.03125 0.03125   1.000

POINT_DATA   4096
SCALARS uX double
LOOKUP_TABLE default

7.395034e-01 -1.200332e+00 4.617686e-01 -1.061499e+00 2.323293e-01 -9.625741e-01 2.697563e-01 -8.855224e-01 2.888357e-01 -8.318663e-01 2.937773e-01 -7.871629e-01 2.873975e-01 -7.356345e-01 2.453012e-01 -6.340271e-01 1.275006e-01 -4.598848e-01 -5.397128e-02 -2.430860e-01 -2.596567e-01 -2.350562e-02 -4.520014e-01 1.633967e-01 -5.956315e-01 2.889409e-01 -6.756742e-01 3.519065e-01 -6.967047e-01 3.550181e-01 -6.664936e-01 3.171525e-01 -6.162648e-01 2.688840e-01 -5.691034e-01 2.285330e-01 -5.405539e-01 2.115723e-01 -5.451133e-01 2.318947e-01 -5.923909e-01 2.930937e-01 -6.760345e-01 3.783863e-01 -7.670969e-01 4.466844e-01 -8.126494e-01 4.465519e-01 -7.747948e-01 3.555266e-01 -6.535198e-01 1.898064e-01 -4.793970e-01 -1.321805e-02 -2.837082e-01 -2.341924e-01 -8.233170e-02 -4.642782e-01 1.228068e-01 -7.074172e-01 3.299198e-01 -9.562730e-01 5.315213e-01 -1.207906e+00 
-4.979604e-01 3.085271e-01 -2.109110e-01 2.300986e-01 2.911907e-03 1.881603e-01 -1.355960e-01 1.472130e-01 -2.237050e-01 1.229156e-01 -2.825073e-01 1.057452e-01 -3.249609e-01 8.802802e-02 -3.422124e-01 4.299863e-02 -3.123462e-01 -4.208353e-02 -2.448855e-01 -1.500985e-01 -1.627078e-01 -2.605391e-01 -8.335905e-02 -3.550307e-01 -2.536341e-02 -4.195347e-01 3.356781e-03 -4.548410e-01 5.627449e-03 -4.583333e-01 -1.766468e-02 -4.386171e-01 -4.899828e-02 -4.138500e-01 -7.515715e-02 -3.925550e-01 -8.941098e-02 -3.824701e-01 -8.503690e-02 -3.911046e-01 -5.760682e-02 -4.195844e-01 -1.110222e-02 -4.604040e-01 4.070530e-02 -4.940915e-01 7.118771e-02 -4.928835e-01 6.068174e-02 -4.464735e-01 1.039530e-02 -3.627592e-01 -6.194259e-02 -2.625488e-01 -1.393546e-01 -1.546851e-01 -2.128921e-01 -4.442445e-02 -2.806106e-01 7.169441e-02 -3.411983e-01 1.895580e-01 -3.916194e-01 3.173093e-01 
6.953302e-01 5.497942e-01 6.980389e-01 4.486589e-01 5.342060e-01 3.746943e-01 8.698436e-01 3.529860e-01 1.087386e+00 3.268044e-01 1.244983e+00 3.028622e-01 1.363939e+00 2.791591e-01 1.476658e+00 2.238746e-01 1.622926e+00 1.210865e-01 1.798640e+00 -5.461428e-03 1.981437e+00 -1.312661e-01 2.144046e+00 -2.344452e-01 2.265022e+00 -2.947100e-01 2.339361e+00 -3.140392e-01 2.370418e+00 -2.970759e-01 2.360599e+00 -2.573771e-01 2.332025e+00 -2.175839e-01 2.300610e+00 -1.880564e-01 2.276226e+00 -1.771457e-01 2.269842e+00 -1.946304e-01 2.289519e+00 -2.429748e-01 2.331894e+00 -3.097108e-01 2.379982e+00 -3.668983e-01 2.396258e+00 -3.773710e-01 2.351871e+00 -3.266832e-01 2.245788e+00 -2.280541e-01 2.098594e+00 -1.097806e-01 1.929372e+00 1.560494e-02 1.744852e+00 1.431932e-01 1.540549e+00 2.785948e-01 1.310605e+00 4.218650e-01 1.047088e+00 5.860076e-01 
2.295185e+00 -8.380140e-02 1.599213e+00 -9.399843e-02 7.393249e-01 -5.439736e-02 1.661097e+00 -3.449180e-02 2.216574e+00 -2.035111e-02 2.598893e+00 -9.250935e-03 2.886680e+00 -1.240652e-03 3.107502e+00 1.898865e-02 3.262686e+00 5.895213e-02 3.366996e+00 1.067720e-01 3.439344e+00 1.531476e-01 3.492971e+00 1.900160e-01 3.539832e+00 2.113979e-01 3.583830e+00 2.208574e-01 3.625026e+00 2.166555e-01 3.667184e+00 2.038997e-01 3.701253e+00 1.933035e-01 3.722598e+00 1.862803e-01 3.730769e+00 1.842723e-01 3.723342e+00 1.907411e-01 3.697642e+00 2.060260e-01 3.654341e+00 2.271533e-01 3.596640e+00 2.448204e-01 3.537124e+00 2.434455e-01 3.483716e+00 2.203881e-01 3.432026e+00 1.828881e-01 3.369828e+00 1.446873e-01 3.286119e+00 1.090860e-01 3.173199e+00 7.653326e-02 3.024876e+00 3.953540e-02 2.830953e+00 -5.329689e-03 2.574027e+00 -7.888491e-02 
2.295384e+00 -2.702641e-04 1.754640e+00 -3.483119e-02 1.067966e+00 -1.679557e-02 1.796098e+00 -1.742484e-02 2.288280e+00 1.506520e-03 2.641750e+00 2.339934e-02 2.911835e+00 4.299490e-02 3.123010e+00 6.666224e-02 3.282926e+00 9.595715e-02 3.402449e+00 1.240130e-01 3.490747e+00 1.475710e-01 3.558541e+00 1.652520e-01 3.612945e+00 1.744862e-01 3.655893e+00 1.780556e-01 3.689989e+00 1.768782e-01 3.719463e+00 1.731360e-01 3.741196e+00 1.718973e-01 3.754279e+00 1.729200e-01 3.759589e+00 1.755858e-01 3.756010e+00 1.808647e-01 3.741629e+00 1.884335e-01 3.715209e+00 1.959903e-01 3.675185e+00 1.998638e-01 3.625504e+00 1.933822e-01 3.568685e+00 1.763261e-01 3.501873e+00 1.534858e-01 3.419651e+00 1.321464e-01 3.317360e+00 1.139033e-01 3.190245e+00 9.878818e-02 3.032245e+00 8.324705e-02 2.833052e+00 6.268017e-02 2.580643e+00 1.911100e-02 
2.372215e+00 -6.542989e-02 1.919463e+00 -6.434175e-02 1.373934e+00 -6.643353e-02 1.912915e+00 -4.006555e-02 2.359328e+00 -2.065842e-02 2.698260e+00 -3.033206e-03 2.958718e+00 1.635327e-02 3.159856e+00 4.264697e-02 3.310422e+00 7.701416e-02 3.418566e+00 1.148500e-01 3.495588e+00 1.508315e-01 3.552147e+00 1.804740e-01 3.597269e+00 2.008787e-01 3.636236e+00 2.120886e-01 3.671118e+00 2.144049e-01 3.702535e+00 2.106444e-01 3.727468e+00 2.054933e-01 3.743644e+00 2.017253e-01 3.749979e+00 2.012895e-01 3.744863e+00 2.055440e-01 3.726582e+00 2.140395e-01 3.694816e+00 2.239335e-01 3.651379e+00 2.296278e-01 3.600816e+00 2.244399e-01 3.545913e+00 2.062954e-01 3.484733e+00 1.785292e-01 3.412585e+00 1.467462e-01 3.323929e+00 1.136755e-01 3.212912e+00 7.985184e-02 3.072855e+00 4.346330e-02 2.894618e+00 3.436414e-03 2.666135e+00 -4.128452e-02 
2.464309e+00 1.252433e-02 2.106114e+00 -5.881755e-03 1.677236e+00 -8.301484e-03 2.087275e+00 -1.789258e-03 2.453816e+00 1.059568e-02 2.748437e+00 2.838138e-02 2.983616e+00 4.992478e-02 3.172399e+00 7.553973e-02 3.322145e+00 1.028339e-01 3.436274e+00 1.279591e-01 3.521513e+00 1.486055e-01 3.586494e+00 1.636252e-01 3.637729e+00 1.726281e-01 3.678589e+00 1.768742e-01 3.711046e+00 1.778111e-01 3.736525e+00 1.774375e-01 3.754396e+00 1.780452e-01 3.764534e+00 1.801448e-01 3.767380e+00 1.834657e-01 3.762765e+00 1.877492e-01 3.749970e+00 1.922581e-01 3.728014e+00 1.953684e-01 3.695648e+00 1.944181e-01 3.652813e+00 1.861919e-01 3.599288e+00 1.700160e-01 3.533198e+00 1.492995e-01 3.453143e+00 1.286513e-01 3.357839e+00 1.101494e-01 3.243846e+00 9.370301e-02 3.105657e+00 7.719136e-02 2.935938e+00 5.750994e-02 2.726146e+00 3.053470e-02 
2.597121e+00 -2.964376e-02 2.301248e+00 -3.602385e-02 1.959565e+00 -3.852647e-02 2.263484e+00 -2.646709e-02 2.569470e+00 -1.152479e-02 2.831698e+00 6.530315e-03 3.046775e+00 2.962612e-02 3.221069e+00 5.878391e-02 3.359609e+00 9.135439e-02 3.461572e+00 1.240116e-01 3.535032e+00 1.532476e-01 3.589572e+00 1.768069e-01 3.632809e+00 1.935077e-01 3.669249e+00 2.033529e-01 3.700456e+00 2.072810e-01 3.726298e+00 2.074231e-01 3.745286e+00 2.065178e-01 3.756392e+00 2.064639e-01 3.759247e+00 2.082045e-01 3.753496e+00 2.119052e-01 3.738792e+00 2.167323e-01 3.714944e+00 2.205576e-01 3.682008e+00 2.197882e-01 3.640390e+00 2.103797e-01 3.589919e+00 1.905519e-01 3.528942e+00 1.638776e-01 3.457885e+00 1.345069e-01 3.375623e+00 1.048462e-01 3.278119e+00 7.550589e-02 3.159455e+00 4.591394e-02 3.012483e+00 1.586139e-02 2.828830e+00 -1.277173e-02 
2.729346e+00 2.379031e-02 2.498410e+00 1.184880e-02 2.238416e+00 9.392469e-03 2.460715e+00 1.180492e-02 2.697940e+00 1.919386e-02 2.913808e+00 3.319966e-02 3.100218e+00 5.491208e-02 3.259756e+00 8.388439e-02 3.395472e+00 1.138485e-01 3.497765e+00 1.389085e-01 3.571853e+00 1.573471e-01 3.627739e+00 1.694728e-01 3.672276e+00 1.762871e-01 3.708859e+00 1.791835e-01 3.738313e+00 1.799645e-01 3.760503e+00 1.805492e-01 3.774774e+00 1.824589e-01 3.781728e+00 1.858989e-01 3.782440e+00 1.901061e-01 3.777690e+00 1.941111e-01 3.767692e+00 1.970588e-01 3.751412e+00 1.980930e-01 3.726714e+00 1.955161e-01 3.690929e+00 1.865355e-01 3.641944e+00 1.683592e-01 3.577702e+00 1.445345e-01 3.501432e+00 1.213921e-01 3.417028e+00 1.018267e-01 3.322155e+00 8.553229e-02 3.211658e+00 7.053549e-02 3.079915e+00 5.473087e-02 2.921322e+00 3.749211e-02 
2.878102e+00 -6.883674e-03 2.695888e+00 -1.277569e-02 2.497570e+00 -1.504352e-02 2.652556e+00 -1.132448e-02 2.836744e+00 -2.179469e-03 3.015912e+00 1.339568e-02 3.177002e+00 3.813277e-02 3.319226e+00 7.224569e-02 3.444815e+00 1.081363e-01 3.532921e+00 1.393132e-01 3.593670e+00 1.636574e-01 3.638628e+00 1.816446e-01 3.675151e+00 1.937762e-01 3.706997e+00 2.005661e-01 3.734340e+00 2.035081e-01 3.755995e+00 2.046988e-01 3.770229e+00 2.062378e-01 3.776970e+00 2.090904e-01 3.777058e+00 2.129496e-01 3.771386e+00 2.169717e-01 3.760785e+00 2.201628e-01 3.745004e+00 2.213555e-01 3.722315e+00 2.182352e-01 3.689751e+00 2.068290e-01 3.644337e+00 1.825937e-01 3.582589e+00 1.520534e-01 3.513778e+00 1.214587e-01 3.442147e+00 9.370314e-02 3.364198e+00 6.880620e-02 3.273952e+00 4.575583e-02 3.165810e+00 2.418714e-02 3.035086e+00 5.526794e-03 
3.023134e+00 3.289346e-02 2.890418e+00 2.627045e-02 2.752587e+00 2.418570e-02 2.850045e+00 2.182616e-02 2.979357e+00 2.354256e-02 3.115596e+00 3.213954e-02 3.247434e+00 5.289551e-02 3.374608e+00 8.996397e-02 3.502305e+00 1.326510e-01 3.587076e+00 1.595648e-01 3.640382e+00 1.746930e-01 3.680320e+00 1.820865e-01 3.714514e+00 1.844390e-01 3.745670e+00 1.836000e-01 3.772190e+00 1.820418e-01 3.791855e+00 1.822024e-01 3.802327e+00 1.854740e-01 3.805371e+00 1.911141e-01 3.803320e+00 1.971106e-01 3.798249e+00 2.013406e-01 3.791994e+00 2.029769e-01 3.783535e+00 2.031225e-01 3.769487e+00 2.016757e-01 3.743353e+00 1.955535e-01 3.699447e+00 1.748410e-01 3.632308e+00 1.399008e-01 3.556671e+00 1.094616e-01 3.486200e+00 8.839941e-02 3.415732e+00 7.404136e-02 3.338024e+00 6.272367e-02 3.248208e+00 5.209593e-02 3.143548e+00 4.170494e-02 
3.172421e+00 9.556659e-03 3.079416e+00 6.034230e-03 2.988877e+00 4.213897e-03 3.038790e+00 1.413148e-03 3.124914e+00 3.083548e-03 3.226420e+00 1.205614e-02 3.331690e+00 3.584923e-02 3.440588e+00 8.077755e-02 3.566843e+00 1.345242e-01 3.631302e+00 1.647087e-01 3.668511e+00 1.827724e-01 3.696514e+00 1.939117e-01 3.722177e+00 1.998925e-01 3.748641e+00 2.013728e-01 3.773028e+00 2.008199e-01 3.792214e+00 2.010999e-01 3.802276e+00 2.045846e-01 3.804315e+00 2.108908e-01 3.800990e+00 2.177776e-01 3.794656e+00 2.228310e-01 3.788315e+00 2.248405e-01 3.782384e+00 2.250982e-01 3.773454e+00 2.234857e-01 3.753764e+00 2.156246e-01 3.714508e+00 1.846798e-01 3.640756e+00 1.415673e-01 3.570676e+00 1.045423e-01 3.514059e+00 7.789735e-02 3.461689e+00 5.838025e-02 3.404638e+00 4.247754e-02 3.338115e+00 2.867396e-02 3.260406e+00 1.733741e-02 
3.317972e+00 4.059916e-02 3.264437e+00 3.833441e-02 3.220498e+00 3.677754e-02 3.226315e+00 2.947537e-02 3.267770e+00 2.299354e-02 3.329837e+00 1.987899e-02 3.405039e+00 3.120432e-02 3.499805e+00 7.963266e-02 3.652814e+00 1.766003e-01 3.706027e+00 1.961329e-01 3.722534e+00 2.022178e-01 3.738906e+00 2.013119e-01 3.759556e+00 1.958794e-01 3.786282e+00 1.881418e-01 3.811996e+00 1.814499e-01 3.831575e+00 1.803496e-01 3.837513e+00 1.866784e-01 3.834848e+00 1.967363e-01 3.828025e+00 2.066677e-01 3.820596e+00 2.113571e-01 3.818343e+00 2.091059e-01 3.820930e+00 2.072662e-01 3.824769e+00 2.091475e-01 3.817047e+00 2.158749e-01 3.781281e+00 2.065870e-01 3.688261e+00 1.321382e-01 3.604243e+00 8.586383e-02 3.555041e+00 6.613496e-02 3.516118e+00 5.799265e-02 3.474827e+00 5.323826e-02 3.427499e+00 4.886214e-02 3.374337e+00 4.445270e-02 
3.460848e+00 2.243676e-02 3.440229e+00 2.214286e-02 3.434148e+00 2.090113e-02 3.403411e+00 1.274474e-02 3.409305e+00 4.296087e-03 3.440044e+00 -2.734815e-03 3.489093e+00 5.435395e-03 3.563860e+00 5.907936e-02 3.747466e+00 2.023936e-01 3.753591e+00 2.036868e-01 3.753561e+00 2.105626e-01 3.757599e+00 2.129818e-01 3.768550e+00 2.102682e-01 3.791369e+00 2.031652e-01 3.815711e+00 1.957911e-01 3.836175e+00 1.932551e-01 3.842430e+00 2.006489e-01 3.837869e+00 2.129588e-01 3.828836e+00 2.254466e-01 3.818702e+00 2.323738e-01 3.815226e+00 2.300046e-01 3.822252e+00 2.278569e-01 3.835842e+00 2.304511e-01 3.842994e+00 2.426534e-01 3.820782e+00 2.129254e-01 3.685516e+00 1.266548e-01 3.610697e+00 7.437481e-02 3.581650e+00 5.250164e-02 3.563596e+00 4.276427e-02 3.542979e+00 3.618846e-02 3.517521e+00 3.034784e-02 3.488858e+00 2.549875e-02 
3.600540e+00 4.784913e-02 3.611853e+00 5.000120e-02 3.642710e+00 4.908199e-02 3.576722e+00 3.900168e-02 3.544672e+00 2.389533e-02 3.535391e+00 -8.479880e-04 3.543610e+00 -3.423438e-02 3.593511e+00 -3.908931e-02 3.898287e+00 3.171833e-01 3.845070e+00 2.325465e-01 3.804924e+00 2.284660e-01 3.792672e+00 2.192835e-01 3.796923e+00 2.015917e-01 3.825417e+00 1.850210e-01 3.855394e+00 1.692966e-01 3.881674e+00 1.675610e-01 3.880883e+00 1.846801e-01 3.868207e+00 2.029545e-01 3.853176e+00 2.225901e-01 3.837833e+00 2.293971e-01 3.837481e+00 2.122784e-01 3.854705e+00 2.039423e-01 3.888838e+00 2.047959e-01 3.926752e+00 2.275275e-01 3.938708e+00 3.525611e-01 3.703081e+00 8.698253e-02 3.616804e+00 2.855316e-02 3.617061e+00 2.959257e-02 3.619956e+00 3.756701e-02 3.616253e+00 4.305761e-02 3.608820e+00 4.576625e-02 3.601878e+00 4.695602e-02 
3.733390e+00 3.383132e-02 3.772047e+00 3.780662e-02 3.833896e+00 3.724231e-02 3.737773e+00 2.784729e-02 3.674845e+00 1.198898e-02 3.635447e+00 -1.932594e-02 3.615661e+00 -7.496952e-02 3.635153e+00 -8.986656e-02 3.823387e+00 1.145839e-01 3.753751e+00 4.371767e-02 3.742110e+00 6.762791e-02 3.730546e+00 7.935401e-02 3.730642e+00 8.140842e-02 3.755432e+00 8.235308e-02 3.782010e+00 8.307805e-02 3.806120e+00 9.272698e-02 3.805713e+00 1.198030e-01 3.793327e+00 1.459200e-01 3.781531e+00 1.721663e-01 3.769677e+00 1.856468e-01 3.771200e+00 1.727554e-01 3.794684e+00 1.734071e-01 3.839930e+00 1.877168e-01 3.906291e+00 2.535489e-01 3.986288e+00 4.595820e-01 3.634325e+00 6.583204e-02 3.605957e+00 3.196755e-03 3.644582e+00 1.150357e-02 3.670203e+00 2.292891e-02 3.684927e+00 2.892308e-02 3.696402e+00 3.120633e-02 3.710602e+00 3.224815e-02 
3.863440e+00 5.559713e-02 3.928000e+00 6.249782e-02 4.019663e+00 6.227971e-02 3.896885e+00 5.518036e-02 3.803931e+00 4.312156e-02 3.723637e+00 1.881534e-02 3.620770e+00 -4.886261e-02 3.401784e+00 -2.638611e-01 2.598491e+00 -1.075915e+00 2.680531e+00 -1.054686e+00 2.758393e+00 -1.092670e+00 2.806910e+00 -1.083647e+00 2.811572e+00 -1.040585e+00 2.754128e+00 -9.860064e-01 2.690650e+00 -9.334579e-01 2.643281e+00 -9.115610e-01 2.661174e+00 -9.345903e-01 2.712642e+00 -9.685683e-01 2.768320e+00 -1.000831e+00 2.815946e+00 -9.994388e-01 2.823930e+00 -9.425394e-01 2.790126e+00 -8.881951e-01 2.734439e+00 -8.409138e-01 2.704242e+00 -8.275811e-01 2.774744e+00 -8.801479e-01 3.320202e+00 -3.076371e-01 3.600354e+00 -9.206819e-02 3.692477e+00 -1.330062e-02 3.732909e+00 2.002107e-02 3.759815e+00 3.605208e-02 3.786036e+00 4.476366e-02 3.818515e+00 5.049864e-02 
3.983996e+00 4.494152e-02 4.071235e+00 5.341385e-02 4.188537e+00 5.354872e-02 4.040871e+00 4.897981e-02 3.920217e+00 4.264801e-02 3.804575e+00 3.215739e-02 3.643475e+00 -1.476456e-02 3.310662e+00 -2.746508e-01 2.267590e+00 -1.311224e+00 2.318130e+00 -1.286287e+00 2.389059e+00 -1.394704e+00 2.438141e+00 -1.430443e+00 2.432158e+00 -1.409264e+00 2.331788e+00 -1.363933e+00 2.218786e+00 -1.314915e+00 2.126992e+00 -1.305959e+00 2.137268e+00 -1.368800e+00 2.205922e+00 -1.450084e+00 2.283893e+00 -1.531984e+00 2.354128e+00 -1.562014e+00 2.363519e+00 -1.497683e+00 2.296486e+00 -1.442903e+00 2.180420e+00 -1.405652e+00 2.080775e+00 -1.450825e+00 2.097020e+00 -1.663926e+00 3.228456e+00 -5.189968e-01 3.638084e+00 -1.454280e-01 3.742990e+00 -3.065050e-02 3.789976e+00 9.691061e-03 3.827883e+00 2.614695e-02 3.868777e+00 3.412046e-02 3.918840e+00 3.942814e-02 
4.101903e+00 6.399306e-02 4.210195e+00 7.418797e-02 4.351708e+00 7.459132e-02 4.187434e+00 6.964992e-02 4.053040e+00 6.096634e-02 3.936464e+00 4.708962e-02 3.821011e+00 2.284100e-02 3.696301e+00 -1.151077e-02 3.645674e+00 -5.992007e-02 3.496305e+00 -1.386790e-01 3.471594e+00 -1.956349e-01 3.447958e+00 -2.398995e-01 3.424340e+00 -2.697164e-01 3.397511e+00 -2.891999e-01 3.368373e+00 -3.025036e-01 3.344921e+00 -3.192025e-01 3.338003e+00 -3.427539e-01 3.342598e+00 -3.699649e-01 3.353877e+00 -3.969416e-01 3.364467e+00 -4.144004e-01 3.364311e+00 -4.181745e-01 3.356442e+00 -4.170493e-01 3.345312e+00 -4.151762e-01 3.352911e+00 -3.975359e-01 3.399015e+00 -3.809839e-01 3.563185e+00 -2.038859e-01 3.719724e+00 -7.602020e-02 3.798188e+00 -1.216649e-02 3.850988e+00 1.981523e-02 3.899340e+00 3.708717e-02 3.952999e+00 4.778410e-02 4.018471e+00 5.596477e-02 
4.208535e+00 5.566257e-02 4.335691e+00 6.608545e-02 4.498402e+00 6.678182e-02 4.317717e+00 6.115290e-02 4.168726e+00 4.950224e-02 4.046160e+00 2.649119e-02 3.951817e+00 -1.244995e-02 3.924925e+00 -2.628884e-02 4.225112e+00 3.801435e-01 4.089207e+00 2.828285e-01 3.996801e+00 2.788693e-01 3.942894e+00 2.635610e-01 3.915548e+00 2.368531e-01 3.924751e+00 2.120724e-01 3.940479e+00 1.888812e-01 3.956663e+00 1.811583e-01 3.945139e+00 1.965118e-01 3.923367e+00 2.123322e-01 3.904313e+00 2.295605e-01 3.888343e+00 2.316644e-01 3.892168e+00 2.031840e-01 3.921637e+00 1.879104e-01 3.976080e+00 1.855253e-01 4.047865e+00 2.271038e-01 4.112861e+00 4.301586e-01 3.807808e+00 3.995217e-02 3.783600e+00 -1.373549e-02 3.843365e+00 2.985312e-03 3.902250e+00 2.098109e-02 3.961187e+00 3.287856e-02 4.027718e+00 4.098899e-02 4.108140e+00 4.793307e-02 
4.312759e+00 7.275783e-02 4.456845e+00 8.431435e-02 4.639146e+00 8.525272e-02 4.448711e+00 8.106866e-02 4.292775e+00 7.294984e-02 4.169784e+00 6.040613e-02 4.084046e+00 4.683337e-02 4.059432e+00 5.782452e-02 4.197255e+00 2.515463e-01 4.124243e+00 2.356960e-01 4.049266e+00 2.392373e-01 4.000177e+00 2.339498e-01 3.972393e+00 2.209349e-01 3.969440e+00 2.056169e-01 3.974777e+00 1.906299e-01 3.981531e+00 1.851850e-01 3.972868e+00 1.943541e-01 3.957253e+00 2.071815e-01 3.942747e+00 2.213052e-01 3.932466e+00 2.266462e-01 3.937834e+00 2.156681e-01 3.961192e+00 2.097298e-01 4.000174e+00 2.129035e-01 4.042614e+00 2.336756e-01 4.067879e+00 2.961253e-01 3.916320e+00 9.825307e-02 3.875936e+00 3.635416e-02 3.912047e+00 3.099181e-02 3.965856e+00 3.831647e-02 4.029268e+00 4.697128e-02 4.104970e+00 5.516666e-02 4.197626e+00 6.343239e-02 
4.404428e+00 6.628560e-02 4.564037e+00 7.748490e-02 4.763745e+00 7.867598e-02 4.562119e+00 7.441209e-02 4.396103e+00 6.725925e-02 4.266267e+00 5.993228e-02 4.176585e+00 6.406357e-02 4.139222e+00 1.119389e-01 4.184321e+00 2.068023e-01 4.142541e+00 2.253026e-01 4.077440e+00 2.323145e-01 4.027255e+00 2.307428e-01 3.995437e+00 2.236826e-01 3.983090e+00 2.130583e-01 3.980009e+00 2.030520e-01 3.978940e+00 1.986046e-01 3.969705e+00 2.034486e-01 3.956500e+00 2.132938e-01 3.944841e+00 2.234352e-01 3.938466e+00 2.278638e-01 3.944658e+00 2.235138e-01 3.965314e+00 2.198209e-01 3.996692e+00 2.217948e-01 4.025343e+00 2.328085e-01 4.033961e+00 2.172258e-01 3.952900e+00 1.205416e-01 3.926907e+00 6.425028e-02 3.957595e+00 4.561341e-02 4.013439e+00 4.313095e-02 4.084224e+00 4.609639e-02 4.170262e+00 5.111493e-02 4.275274e+00 5.769487e-02 
4.493911e+00 8.173911e-02 4.666883e+00 9.384864e-02 4.882167e+00 9.526181e-02 4.673311e+00 9.297320e-02 4.500905e+00 8.943395e-02 4.365286e+00 8.819044e-02 4.267863e+00 9.809615e-02 4.211957e+00 1.353965e-01 4.202875e+00 1.912651e-01 4.165192e+00 2.123794e-01 4.109993e+00 2.213948e-01 4.064337e+00 2.216206e-01 4.032734e+00 2.162837e-01 4.015395e+00 2.078614e-01 4.006171e+00 1.998921e-01 3.999456e+00 1.961302e-01 3.988979e+00 1.984731e-01 3.977459e+00 2.045638e-01 3.968557e+00 2.110245e-01 3.965546e+00 2.138919e-01 3.972858e+00 2.118819e-01 3.990281e+00 2.097708e-01 4.014189e+00 2.096850e-01 4.034878e+00 2.090104e-01 4.041621e+00 1.898642e-01 4.005457e+00 1.282350e-01 3.990450e+00 8.435398e-02 4.017597e+00 6.432377e-02 4.071904e+00 5.851907e-02 4.145808e+00 5.975933e-02 4.238644e+00 6.464849e-02 4.353150e+00 7.201226e-02 
4.569936e+00 7.663586e-02 4.755400e+00 8.839564e-02 4.984710e+00 9.003553e-02 4.766923e+00 8.844615e-02 4.585538e+00 8.703830e-02 4.441049e+00 9.045529e-02 4.333464e+00 1.067962e-01 4.262850e+00 1.437107e-01 4.227801e+00 1.829113e-01 4.184226e+00 2.057495e-01 4.130490e+00 2.172525e-01 4.083098e+00 2.203994e-01 4.047677e+00 2.183009e-01 4.024807e+00 2.130384e-01 4.010172e+00 2.076076e-01 3.999122e+00 2.046892e-01 3.987411e+00 2.059598e-01 3.976312e+00 2.103466e-01 3.968630e+00 2.150848e-01 3.967061e+00 2.174439e-01 3.974435e+00 2.164594e-01 3.990420e+00 2.139624e-01 4.011197e+00 2.103566e-01 4.029149e+00 2.012454e-01 4.037607e+00 1.724879e-01 4.021781e+00 1.292408e-01 4.021523e+00 9.282951e-02 4.053231e+00 7.119120e-02 4.111739e+00 6.147443e-02 4.192029e+00 5.927006e-02 4.293294e+00 6.174370e-02 4.417832e+00 6.763318e-02 
4.643882e+00 9.041156e-02 4.839605e+00 1.029271e-01 5.080881e+00 1.047602e-01 4.856710e+00 1.043999e-01 4.668879e+00 1.045274e-01 4.517231e+00 1.092582e-01 4.400702e+00 1.244174e-01 4.317513e+00 1.533630e-01 4.263934e+00 1.831340e-01 4.214098e+00 2.026946e-01 4.160720e+00 2.128517e-01 4.113692e+00 2.153835e-01 4.077269e+00 2.129868e-01 4.051704e+00 2.079504e-01 4.033787e+00 2.029005e-01 4.019829e+00 1.999758e-01 4.006959e+00 2.002193e-01 3.996141e+00 2.028100e-01 3.989546e+00 2.057115e-01 3.989342e+00 2.069922e-01 3.997203e+00 2.060343e-01 4.012187e+00 2.037123e-01 4.030988e+00 1.995890e-01 4.048055e+00 1.896482e-01 4.059110e+00 1.656281e-01 4.058022e+00 1.312158e-01 4.065848e+00 1.009571e-01 4.099901e+00 8.150861e-02 4.160242e+00 7.226364e-02 4.244086e+00 7.039454e-02 4.350930e+00 7.353814e-02 4.482854e+00 8.037472e-02 
4.703781e+00 8.607374e-02 4.909223e+00 9.839922e-02 5.161387e+00 1.004273e-01 4.929579e+00 1.007305e-01 4.733742e+00 1.022090e-01 4.573750e+00 1.090296e-01 4.448269e+00 1.259400e-01 4.355368e+00 1.538226e-01 4.290981e+00 1.812055e-01 4.233661e+00 2.007711e-01 4.176600e+00 2.117940e-01 4.126273e+00 2.157288e-01 4.086294e+00 2.150153e-01 4.057002e+00 2.117243e-01 4.035681e+00 2.080965e-01 4.019101e+00 2.059020e-01 4.004936e+00 2.060614e-01 3.993750e+00 2.080532e-01 3.987360e+00 2.102082e-01 3.987579e+00 2.109469e-01 3.995592e+00 2.095930e-01 4.010483e+00 2.062621e-01 4.029186e+00 1.999985e-01 4.047152e+00 1.870721e-01 4.061345e+00 1.616659e-01 4.068036e+00 1.304172e-01 4.084259e+00 1.024415e-01 4.124295e+00 8.297391e-02 4.190057e+00 7.239980e-02 4.279984e+00 6.890857e-02 4.393893e+00 7.066030e-02 4.533846e+00 7.653053e-02 
4.761625e+00 9.817750e-02 4.974547e+00 1.111644e-01 5.235370e+00 1.133488e-01 4.997801e+00 1.138320e-01 4.795910e+00 1.146655e-01 4.629349e+00 1.195086e-01 4.496895e+00 1.331353e-01 4.397022e+00 1.582987e-01 4.327032e+00 1.866901e-01 4.265924e+00 2.047089e-01 4.204668e+00 2.130087e-01 4.151696e+00 2.142625e-01 4.109931e+00 2.114269e-01 4.079237e+00 2.067930e-01 4.056531e+00 2.025561e-01 4.038533e+00 2.002118e-01 4.023187e+00 2.001293e-01 4.011389e+00 2.015524e-01 4.004982e+00 2.028063e-01 4.005712e+00 2.024871e-01 4.014531e+00 2.003579e-01 4.030316e+00 1.971927e-01 4.050267e+00 1.927815e-01 4.069755e+00 1.841184e-01 4.086123e+00 1.635853e-01 4.096630e+00 1.322593e-01 4.114538e+00 1.048017e-01 4.157449e+00 8.707739e-02 4.226808e+00 7.856164e-02 4.320840e+00 7.694918e-02 4.439536e+00 8.030821e-02 4.585129e+00 8.753432e-02 
4.805074e+00 9.410497e-02 5.025117e+00 1.070566e-01 5.293855e+00 1.093964e-01 5.049822e+00 1.101386e-01 4.841121e+00 1.111624e-01 4.667627e+00 1.160291e-01 4.528455e+00 1.296146e-01 4.422902e+00 1.556777e-01 4.350049e+00 1.874824e-01 4.282611e+00 2.060019e-01 4.215581e+00 2.143041e-01 4.158393e+00 2.158011e-01 4.113324e+00 2.135317e-01 4.080193e+00 2.096069e-01 4.055593e+00 2.060840e-01 4.036146e+00 2.043500e-01 4.019667e+00 2.046663e-01 4.007072e+00 2.062458e-01 4.000242e+00 2.073595e-01 4.000890e+00 2.065698e-01 4.010084e+00 2.036580e-01 4.026911e+00 1.996276e-01 4.048736e+00 1.946333e-01 4.070711e+00 1.861402e-01 4.090018e+00 1.648504e-01 4.101045e+00 1.312241e-01 4.122330e+00 1.027319e-01 4.170737e+00 8.484679e-02 4.245895e+00 7.616737e-02 4.345647e+00 7.413811e-02 4.470184e+00 7.695315e-02 4.621954e+00 8.370757e-02 
4.846466e+00 1.048077e-01 5.071380e+00 1.184583e-01 5.345711e+00 1.209152e-01 5.096660e+00 1.212359e-01 4.882399e+00 1.200483e-01 4.702714e+00 1.197494e-01 4.557742e+00 1.256385e-01 4.449770e+00 1.491851e-01 4.385064e+00 2.023373e-01 4.316650e+00 2.181510e-01 4.239750e+00 2.208263e-01 4.177682e+00 2.171925e-01 4.130547e+00 2.107401e-01 4.097734e+00 2.040098e-01 4.073734e+00 1.992221e-01 4.054157e+00 1.978442e-01 4.036133e+00 1.989464e-01 4.021926e+00 2.011407e-01 4.014012e+00 2.021102e-01 4.014483e+00 1.998239e-01 4.024915e+00 1.946895e-01 4.044255e+00 1.900616e-01 4.070583e+00 1.883793e-01 4.096905e+00 1.900255e-01 4.118360e+00 1.823240e-01 4.122380e+00 1.322170e-01 4.137327e+00 9.787383e-02 4.190028e+00 8.249089e-02 4.270722e+00 7.798515e-02 4.374945e+00 7.941681e-02 4.503349e+00 8.471451e-02 4.659032e+00 9.320836e-02 
4.873270e+00 1.007160e-01 5.102795e+00 1.144614e-01 5.382187e+00 1.170302e-01 5.127882e+00 1.173537e-01 4.907936e+00 1.155302e-01 4.722316e+00 1.133735e-01 4.571840e+00 1.161222e-01 4.461261e+00 1.378064e-01 4.408395e+00 2.117416e-01 4.328817e+00 2.226070e-01 4.244080e+00 2.239315e-01 4.177571e+00 2.195839e-01 4.127448e+00 2.127050e-01 4.093788e+00 2.058119e-01 4.069484e+00 2.011248e-01 4.049759e+00 2.003391e-01 4.030810e+00 2.024316e-01 4.015329e+00 2.055625e-01 4.006400e+00 2.070800e-01 4.006155e+00 2.044602e-01 4.016886e+00 1.978698e-01 4.038185e+00 1.920842e-01 4.068542e+00 1.906430e-01 4.099906e+00 1.963401e-01 4.127189e+00 1.925950e-01 4.116969e+00 1.286900e-01 4.132543e+00 9.089465e-02 4.192264e+00 7.659879e-02 4.279362e+00 7.343586e-02 4.388677e+00 7.549029e-02 4.521502e+00 8.085659e-02 4.681456e+00 8.920577e-02 
4.898018e+00 1.104813e-01 5.129863e+00 1.250546e-01 5.411973e+00 1.277017e-01 5.153904e+00 1.280948e-01 4.928962e+00 1.245901e-01 4.735712e+00 1.157602e-01 4.574874e+00 9.879263e-02 4.459971e+00 7.753646e-02 4.462382e+00 2.735462e-01 4.365173e+00 2.438342e-01 4.259161e+00 2.339165e-01 4.187478e+00 2.223543e-01 4.135222e+00 2.080051e-01 4.105814e+00 1.969831e-01 4.085031e+00 1.903184e-01 4.067185e+00 1.920915e-01 4.045250e+00 1.970693e-01 4.026325e+00 2.022446e-01 4.014939e+00 2.050693e-01 4.013222e+00 1.998499e-01 4.025193e+00 1.866691e-01 4.049874e+00 1.770971e-01 4.089345e+00 1.768999e-01 4.132682e+00 1.927189e-01 4.176462e+00 2.755303e-01 4.118064e+00 1.111206e-01 4.124015e+00 6.776321e-02 4.198620e+00 6.615841e-02 4.294041e+00 7.204734e-02 4.407206e+00 7.926148e-02 4.542291e+00 8.760328e-02 4.704162e+00 9.778143e-02 
4.908067e+00 1.062191e-01 5.142046e+00 1.209303e-01 5.426447e+00 1.236431e-01 5.164661e+00 1.242395e-01 4.935154e+00 1.204928e-01 4.735739e+00 1.097972e-01 4.566297e+00 8.638073e-02 4.440865e+00 5.491134e-02 4.449800e+00 2.632773e-01 4.330998e+00 2.152424e-01 4.224528e+00 2.039224e-01 4.151095e+00 1.908821e-01 4.096404e+00 1.758827e-01 4.066061e+00 1.654183e-01 4.043476e+00 1.596862e-01 4.024033e+00 1.622028e-01 4.000518e+00 1.670646e-01 3.980750e+00 1.713171e-01 3.969547e+00 1.728588e-01 3.967728e+00 1.661414e-01 3.979082e+00 1.511437e-01 4.003455e+00 1.410427e-01 4.044343e+00 1.410407e-01 4.093283e+00 1.646077e-01 4.155722e+00 2.755774e-01 4.076301e+00 8.285874e-02 4.103314e+00 4.971633e-02 4.191849e+00 5.665620e-02 4.293785e+00 6.646948e-02 4.410463e+00 7.502785e-02 4.548042e+00 8.359913e-02 4.712096e+00 9.363878e-02 
4.916042e+00 1.154184e-01 5.149852e+00 1.308051e-01 5.434208e+00 1.335417e-01 5.171499e+00 1.352712e-01 4.939577e+00 1.342497e-01 4.731738e+00 1.309132e-01 4.533215e+00 1.190298e-01 4.307400e+00 7.149651e-02 3.927804e+00 -3.202219e-01 3.788217e+00 -3.364369e-01 3.737401e+00 -3.579452e-01 3.678703e+00 -3.592194e-01 3.618737e+00 -3.482727e-01 3.545307e+00 -3.392164e-01 3.483426e+00 -3.385989e-01 3.444642e+00 -3.546673e-01 3.440492e+00 -3.786227e-01 3.453367e+00 -4.027870e-01 3.469304e+00 -4.186664e-01 3.480610e+00 -4.148149e-01 3.479110e+00 -3.926990e-01 3.469701e+00 -3.765770e-01 3.457048e+00 -3.784931e-01 3.473847e+00 -4.085983e-01 3.534700e+00 -5.041933e-01 3.848931e+00 -1.500982e-01 4.076942e+00 -6.228814e-03 4.196997e+00 4.481299e-02 4.302509e+00 6.685721e-02 4.419276e+00 7.985172e-02 4.556569e+00 9.061612e-02 4.720319e+00 1.019762e-01 
4.909268e+00 1.107767e-01 5.142770e+00 1.260601e-01 5.426679e+00 1.288043e-01 5.162864e+00 1.308872e-01 4.928979e+00 1.310311e-01 4.716305e+00 1.307628e-01 4.502811e+00 1.223216e-01 4.226643e+00 6.027860e-02 3.649398e+00 -6.213856e-01 3.507615e+00 -6.166762e-01 3.483704e+00 -6.396675e-01 3.433755e+00 -6.309088e-01 3.373322e+00 -6.033839e-01 3.280522e+00 -5.810947e-01 3.201383e+00 -5.735372e-01 3.154763e+00 -5.940787e-01 3.160946e+00 -6.276121e-01 3.190595e+00 -6.618122e-01 3.220708e+00 -6.832499e-01 3.240227e+00 -6.729096e-01 3.235511e+00 -6.325761e-01 3.213132e+00 -6.031888e-01 3.178663e+00 -6.039020e-01 3.183073e+00 -6.569382e-01 3.242470e+00 -8.423425e-01 3.743424e+00 -2.444634e-01 4.056049e+00 -2.823342e-02 4.188403e+00 3.858453e-02 4.295391e+00 6.359519e-02 4.412485e+00 7.670591e-02 4.549937e+00 8.696093e-02 4.713697e+00 9.775290e-02 
4.900407e+00 1.195746e-01 5.131336e+00 1.346692e-01 5.412438e+00 1.373429e-01 5.152280e+00 1.380963e-01 4.923686e+00 1.348268e-01 4.722208e+00 1.261588e-01 4.540509e+00 1.060335e-01 4.366479e+00 6.646452e-02 4.176862e+00 -4.484732e-02 4.044537e+00 -7.862057e-02 3.971230e+00 -9.138794e-02 3.908037e+00 -9.522076e-02 3.853595e+00 -9.379050e-02 3.805050e+00 -9.169905e-02 3.766601e+00 -9.167214e-02 3.741293e+00 -9.573785e-02 3.730280e+00 -1.017787e-01 3.728717e+00 -1.077715e-01 3.732518e+00 -1.110033e-01 3.738520e+00 -1.092350e-01 3.745415e+00 -1.036413e-01 3.756308e+00 -9.793721e-02 3.775415e+00 -9.479265e-02 3.813282e+00 -8.903725e-02 3.880107e+00 -6.853852e-02 3.964829e+00 -2.019425e-02 4.086459e+00 2.747812e-02 4.191103e+00 5.591521e-02 4.294703e+00 7.281379e-02 4.410285e+00 8.462876e-02 4.545818e+00 9.509129e-02 4.707306e+00 1.063082e-01 