# vtk DataFile Version 2.0
Comment goes here
ASCII

DATASET STRUCTURED_POINTS
FIELD FieldData 1
TIME 1 1 double
0.03700000
DIMENSIONS    256   32   1

ORIGIN    0.000   0.000   0.000
SPACING   0.0078125 0.0078125   1.000

POINT_DATA   8192
SCALARS uX double
LOOKUP_TABLE default

-1.147346e-02 -2.794751e-02 -5.322946e-02 -8.503961e-02 -1.292777e-01 -1.754798e-01 -2.099248e-01 -1.851687e-01 -2.251810e-01 -1.991900e-01 -2.337631e-01 -2.667604e-01 -2.624512e-01 -3.566334e-01 -3.994984e-01 -3.086998e-01 -4.088215e-01 -3.751965e-01 -3.551022e-01 -4.543328e-01 -2.625070e-01 -2.852134e-01 -3.211771e-01 -1.378458e-01 -2.522669e-01 -1.524306e-01 -1.457563e-01 -2.167412e-01 -7.943487e-02 -2.125720e-01 -9.573151e-02 -1.388848e-01 -1.569410e-01 -6.469559e-02 -1.699835e-01 -6.645948e-02 -1.208593e-01 -1.159894e-01 -4.759384e-02 -1.373676e-01 -4.009533e-02 -1.041134e-01 -7.863210e-02 -3.694094e-02 -1.052326e-01 -2.207791e-02 -8.439605e-02 -4.936595e-02 -2.705827e-02 -7.768750e-02 -7.247322e-03 -6.649430e-02 -2.499896e-02 -2.108720e-02 -5.310726e-02 2.553552e-03 -4.959121e-02 -6.977722e-03 -1.693781e-02 -3.270999e-02 1.086624e-02 -3.503101e-02 7.916441e-03 -9.142767e-03 -1.320568e-02 1.467409e-02 -2.137742e-02 1.723853e-02 -5.444086e-03 -1.722653e-04 2.081894e-02 -9.178741e-03 2.486382e-02 1.141098e-03 1.220533e-02 2.433883e-02 2.097409e-03 3.065918e-02 8.562525e-03 2.201140e-02 2.776281e-02 1.161721e-02 3.571133e-02 1.487809e-02 3.030532e-02 2.936209e-02 2.012217e-02 3.881403e-02 2.086299e-02 3.603847e-02 3.145244e-02 2.700480e-02 4.226337e-02 2.615035e-02 4.149080e-02 3.540459e-02 3.461033e-02 4.390290e-02 3.130480e-02 4.423348e-02 3.685986e-02 3.790614e-02 4.561076e-02 3.483771e-02 4.657094e-02 3.860735e-02 4.191363e-02 4.644410e-02 3.858557e-02 4.828837e-02 4.121171e-02 4.501914e-02 4.777527e-02 4.146738e-02 5.044539e-02 4.308527e-02 4.827197e-02 4.828898e-02 4.450296e-02 5.175704e-02 4.528031e-02 5.027585e-02 4.956627e-02 4.665796e-02 5.361520e-02 4.696541e-02 5.264818e-02 5.130351e-02 5.007111e-02 5.448119e-02 4.883899e-02 5.332790e-02 5.151446e-02 5.019369e-02 5.465120e-02 4.934083e-02 5.422067e-02 5.138867e-02 5.171049e-02 5.459652e-02 5.042303e-02 5.472906e-02 5.201744e-02 5.269447e-02 5.504136e-02 5.085612e-02 5.589794e-02 5.212975e-02 5.428488e-02 5.501772e-02 5.212772e-02 5.657864e-02 5.304179e-02 5.531703e-02 5.576992e-02 5.301788e-02 5.801529e-02 5.350101e-02 5.688550e-02 5.633312e-02 5.508249e-02 5.832881e-02 5.374100e-02 5.647148e-02 5.537833e-02 5.359575e-02 5.707813e-02 5.254878e-02 5.609507e-02 5.381831e-02 5.371112e-02 5.588301e-02 5.226504e-02 5.557220e-02 5.349189e-02 5.360464e-02 5.571364e-02 5.190650e-02 5.606018e-02 5.311817e-02 5.443782e-02 5.539170e-02 5.265226e-02 5.627205e-02 5.371693e-02 5.489654e-02 5.596427e-02 5.311226e-02 5.740928e-02 5.396943e-02 5.610341e-02 5.655944e-02 5.493604e-02 5.774016e-02 5.420353e-02 5.563282e-02 5.580749e-02 5.334682e-02 5.671334e-02 5.295087e-02 5.525392e-02 5.438344e-02 5.324299e-02 5.571155e-02 5.244342e-02 5.462505e-02 5.400100e-02 5.266730e-02 5.554674e-02 5.165042e-02 5.482580e-02 5.336084e-02 5.291267e-02 5.507718e-02 5.181106e-02 5.467905e-02 5.358580e-02 5.279353e-02 5.545325e-02 5.166776e-02 5.547024e-02 5.337200e-02 5.359171e-02 5.535891e-02 5.239212e-02 5.581376e-02 5.373500e-02 5.398951e-02 5.584852e-02 5.266544e-02 5.675367e-02 5.335953e-02 5.504336e-02 5.560659e-02 5.348396e-02 5.683634e-02 5.351746e-02 5.537965e-02 5.568602e-02 5.356596e-02 5.706100e-02 5.300433e-02 5.595276e-02 5.494971e-02 5.394114e-02 5.638948e-02 5.248544e-02 5.541535e-02 5.421060e-02 5.515645e-02 5.409392e-02 4.103542e-02 3.005829e-02 2.137260e-02 1.186764e-02 2.523565e-03 
-1.977578e-03 -1.927748e-02 -4.057222e-02 -7.504558e-02 -1.175667e-01 -1.751765e-01 -1.982949e-01 -1.777993e-01 -2.127886e-01 -1.999253e-01 -2.306157e-01 -2.974024e-01 -2.667608e-01 -4.439018e-01 -4.822369e-01 -4.034660e-01 -5.060018e-01 -4.569522e-01 -4.404251e-01 -5.036539e-01 -3.269105e-01 -2.778099e-01 -3.523385e-01 -1.159419e-01 -2.643335e-01 -1.276586e-01 -1.403576e-01 -2.047894e-01 -6.507374e-02 -2.027113e-01 -8.124080e-02 -1.265928e-01 -1.513786e-01 -4.745181e-02 -1.652945e-01 -5.181276e-02 -1.140852e-01 -1.094195e-01 -3.394140e-02 -1.335973e-01 -2.800669e-02 -9.947245e-02 -7.210164e-02 -2.593647e-02 -1.022354e-01 -1.223522e-02 -8.081567e-02 -4.335683e-02 -1.784688e-02 -7.579754e-02 1.668247e-03 -6.426814e-02 -1.849072e-02 -1.464464e-02 -5.081874e-02 9.622681e-03 -4.711777e-02 -1.446812e-03 -1.202529e-02 -3.115427e-02 1.771863e-02 -3.445459e-02 1.358016e-02 -3.819937e-03 -1.017381e-02 1.777227e-02 -2.011521e-02 2.221914e-02 -2.785470e-03 1.836397e-03 2.594409e-02 -8.236337e-03 2.940631e-02 2.404503e-03 1.510322e-02 2.800461e-02 3.568411e-03 3.401930e-02 1.018583e-02 2.425834e-02 3.126412e-02 1.229224e-02 3.931779e-02 1.562721e-02 3.322616e-02 3.132363e-02 2.149588e-02 4.141096e-02 2.217740e-02 3.811212e-02 3.334642e-02 2.769249e-02 4.522790e-02 2.626162e-02 4.393899e-02 3.717887e-02 3.635355e-02 4.497652e-02 3.215608e-02 4.595691e-02 3.819999e-02 3.880280e-02 4.779114e-02 3.527584e-02 4.867616e-02 3.908540e-02 4.362352e-02 4.769112e-02 3.971807e-02 4.958199e-02 4.232809e-02 4.605965e-02 4.940110e-02 4.190107e-02 5.230807e-02 4.345240e-02 4.998363e-02 4.888922e-02 4.563787e-02 5.280770e-02 4.622393e-02 5.118926e-02 5.058362e-02 4.705073e-02 5.520374e-02 4.697005e-02 5.404459e-02 5.193956e-02 5.138049e-02 5.498194e-02 4.961304e-02 5.395997e-02 5.250195e-02 5.067226e-02 5.585624e-02 4.964308e-02 5.551789e-02 5.166166e-02 5.298647e-02 5.506949e-02 5.146677e-02 5.533119e-02 5.299135e-02 5.329934e-02 5.610121e-02 5.122389e-02 5.717157e-02 5.238063e-02 5.557485e-02 5.526319e-02 5.320076e-02 5.710199e-02 5.391153e-02 5.586383e-02 5.655956e-02 5.336432e-02 5.917305e-02 5.355083e-02 5.797021e-02 5.651642e-02 5.633823e-02 5.877022e-02 5.444886e-02 5.677815e-02 5.627084e-02 5.396601e-02 5.803480e-02 5.282311e-02 5.719248e-02 5.404949e-02 5.487894e-02 5.617667e-02 5.330606e-02 5.602054e-02 5.445839e-02 5.409955e-02 5.668054e-02 5.228704e-02 5.719306e-02 5.338856e-02 5.561661e-02 5.561419e-02 5.373939e-02 5.665795e-02 5.463294e-02 5.532209e-02 5.677729e-02 5.345495e-02 5.842721e-02 5.406982e-02 5.705181e-02 5.681694e-02 5.616749e-02 5.806686e-02 5.499794e-02 5.583051e-02 5.680380e-02 5.364866e-02 5.761252e-02 5.331717e-02 5.622690e-02 5.473022e-02 5.432054e-02 5.601572e-02 5.356795e-02 5.495264e-02 5.509634e-02 5.305677e-02 5.659864e-02 5.209089e-02 5.584955e-02 5.379230e-02 5.397902e-02 5.547123e-02 5.294179e-02 5.499518e-02 5.473620e-02 5.313891e-02 5.656975e-02 5.208643e-02 5.647625e-02 5.384807e-02 5.460757e-02 5.579855e-02 5.348298e-02 5.613181e-02 5.491998e-02 5.428348e-02 5.699898e-02 5.303302e-02 5.780266e-02 5.384846e-02 5.602325e-02 5.607607e-02 5.455456e-02 5.722331e-02 5.473097e-02 5.566606e-02 5.691881e-02 5.394314e-02 5.825022e-02 5.352184e-02 5.706334e-02 5.551478e-02 5.520754e-02 5.694366e-02 5.400659e-02 5.593686e-02 5.606605e-02 5.631230e-02 5.739435e-02 4.426210e-02 3.513284e-02 2.603589e-02 1.892144e-02 8.924867e-03 
-2.226317e-03 -1.447367e-02 -3.516222e-02 -6.348890e-02 -1.085958e-01 -1.678781e-01 -1.734815e-01 -1.272980e-01 -1.705817e-01 -1.108441e-01 -1.375117e-01 -1.097230e-01 -1.551152e-02 -3.207726e-02 -7.400639e-03 9.709385e-02 4.515532e-02 5.786303e-02 1.130387e-01 -4.406896e-02 5.108220e-02 -1.354494e-02 -1.664605e-01 -2.879171e-02 -2.032070e-01 -8.667970e-02 -8.762396e-02 -1.925067e-01 -2.062195e-02 -1.960019e-01 -5.018215e-02 -1.110846e-01 -1.445354e-01 -2.063984e-02 -1.645316e-01 -3.173547e-02 -1.102279e-01 -1.075709e-01 -1.586220e-02 -1.394360e-01 -1.505623e-02 -1.045219e-01 -7.312750e-02 -1.651549e-02 -1.131221e-01 -5.626287e-03 -9.252942e-02 -4.654569e-02 -1.760070e-02 -8.993597e-02 1.498363e-03 -8.000105e-02 -2.490200e-02 -2.158182e-02 -6.803209e-02 5.018716e-03 -6.634118e-02 -9.675463e-03 -2.668419e-02 -4.933251e-02 7.384884e-03 -5.742783e-02 2.715431e-04 -2.256524e-02 -3.241577e-02 -5.586496e-04 -4.573841e-02 7.917809e-03 -2.698810e-02 -1.806923e-02 8.318648e-03 -3.255320e-02 1.187808e-02 -2.283333e-02 -5.741018e-03 7.904402e-03 -2.240151e-02 1.462540e-02 -1.744721e-02 3.034651e-03 7.019140e-03 -1.384916e-02 1.674158e-02 -1.247744e-02 1.010606e-02 4.737645e-03 -5.702083e-03 1.746649e-02 -7.365586e-03 1.428302e-02 3.538323e-03 7.200043e-04 1.803385e-02 -4.454558e-03 1.710041e-02 5.743417e-03 5.627529e-03 1.401431e-02 5.276494e-04 1.884986e-02 5.678235e-03 1.149205e-02 1.776294e-02 5.483878e-03 2.036984e-02 7.558354e-03 1.574347e-02 1.725241e-02 9.324516e-03 2.089132e-02 9.941024e-03 1.833005e-02 1.702880e-02 1.231994e-02 2.186523e-02 1.174271e-02 2.086284e-02 1.619540e-02 1.557169e-02 2.207550e-02 1.372343e-02 2.191945e-02 1.635623e-02 1.730653e-02 2.206470e-02 1.406795e-02 2.229001e-02 1.640845e-02 1.776623e-02 1.967452e-02 1.616399e-02 2.225994e-02 1.751028e-02 2.072889e-02 2.161745e-02 1.830969e-02 2.342153e-02 1.831921e-02 2.257492e-02 2.124123e-02 1.987293e-02 2.340024e-02 1.927321e-02 2.314649e-02 2.115707e-02 2.070130e-02 2.394698e-02 1.962059e-02 2.427472e-02 2.077767e-02 2.225935e-02 2.395228e-02 2.059360e-02 2.470418e-02 2.103523e-02 2.280332e-02 2.403706e-02 2.018466e-02 2.470386e-02 1.962772e-02 2.194181e-02 2.241633e-02 2.057068e-02 2.366680e-02 2.067431e-02 2.325421e-02 2.268803e-02 2.122518e-02 2.412034e-02 2.047878e-02 2.371406e-02 2.164300e-02 2.167363e-02 2.329952e-02 2.072033e-02 2.328069e-02 2.143186e-02 2.177834e-02 2.330312e-02 2.075140e-02 2.372510e-02 2.112847e-02 2.276369e-02 2.293584e-02 2.156150e-02 2.358421e-02 2.149050e-02 2.274779e-02 2.280226e-02 2.104609e-02 2.314701e-02 2.036295e-02 2.148705e-02 2.133355e-02 2.161385e-02 2.208194e-02 2.177640e-02 2.250056e-02 2.206647e-02 2.224586e-02 2.249079e-02 2.178389e-02 2.259686e-02 2.153752e-02 2.237635e-02 2.157798e-02 2.198550e-02 2.164615e-02 2.167441e-02 2.180444e-02 2.135211e-02 2.179955e-02 2.143073e-02 2.155355e-02 2.199092e-02 2.083546e-02 2.247426e-02 2.084034e-02 2.233907e-02 2.165678e-02 2.129831e-02 2.264594e-02 2.111655e-02 2.265464e-02 2.200227e-02 2.149072e-02 2.340004e-02 2.096656e-02 2.356512e-02 2.176037e-02 2.251071e-02 2.339834e-02 2.150459e-02 2.374301e-02 2.214432e-02 2.280617e-02 2.376242e-02 2.147533e-02 2.423267e-02 2.192183e-02 2.340734e-02 2.338338e-02 2.193894e-02 2.399862e-02 2.218190e-02 2.336099e-02 2.344926e-02 2.205360e-02 2.396568e-02 2.234630e-02 2.513614e-02 2.719156e-02 2.354948e-02 2.038682e-02 1.438588e-02 8.353905e-03 
1.565022e-02 8.539364e-03 8.751173e-04 -1.013105e-02 -2.135912e-02 -3.905311e-02 -2.272870e-02 -4.485144e-03 -1.615746e-02 1.570219e-02 2.371118e-02 7.162618e-02 1.044020e-01 1.059256e-01 1.567001e-01 6.862634e-02 1.793307e-01 1.210368e-01 1.166612e-01 1.684543e-01 2.668451e-03 1.834278e-01 5.747546e-02 6.631976e-02 -2.337691e-02 7.542039e-03 9.042811e-03 -3.411068e-02 1.966726e-02 -4.068586e-02 4.677700e-03 -1.614304e-02 -3.061703e-02 9.527493e-03 -3.842623e-02 3.456819e-03 -2.341382e-02 -2.490339e-02 5.584781e-03 -3.656536e-02 4.436080e-03 -2.800141e-02 -1.674035e-02 -7.791088e-05 -3.129083e-02 2.628246e-03 -2.736531e-02 -1.218439e-02 -4.189649e-03 -2.853407e-02 1.778567e-03 -2.807491e-02 -7.226954e-03 -1.030102e-02 -2.327395e-02 -1.053097e-03 -2.522309e-02 -5.383970e-03 -1.390785e-02 -1.996931e-02 -2.878492e-03 -2.574681e-02 -4.504527e-03 -1.822470e-02 -1.739176e-02 -1.027862e-02 -2.299203e-02 -4.924175e-03 -1.919987e-02 -1.271274e-02 -6.977184e-03 -1.973502e-02 -3.869055e-03 -1.925550e-02 -8.507500e-03 -9.621686e-03 -1.623154e-02 -5.625402e-03 -1.768569e-02 -7.908452e-03 -1.104555e-02 -1.526097e-02 -6.031093e-03 -1.797800e-02 -6.242869e-03 -1.436767e-02 -1.224761e-02 -8.514459e-03 -1.596197e-02 -7.265039e-03 -1.504021e-02 -1.152588e-02 -9.518630e-03 -1.660133e-02 -6.839307e-03 -1.736678e-02 -1.200131e-02 -1.413986e-02 -1.390698e-02 -8.478811e-03 -1.563066e-02 -8.625028e-03 -1.137567e-02 -1.276735e-02 -7.530790e-03 -1.522993e-02 -6.519629e-03 -1.312382e-02 -1.036862e-02 -9.282638e-03 -1.343204e-02 -7.347977e-03 -1.303543e-02 -1.006299e-02 -9.195375e-03 -1.352880e-02 -6.627409e-03 -1.471678e-02 -7.837347e-03 -1.118037e-02 -1.175511e-02 -8.193097e-03 -1.411563e-02 -8.406553e-03 -1.193837e-02 -1.284091e-02 -8.338867e-03 -1.675980e-02 -1.044638e-02 -1.569672e-02 -1.070400e-02 -1.028310e-02 -1.399553e-02 -7.645618e-03 -1.294434e-02 -1.009190e-02 -9.153566e-03 -1.343353e-02 -6.266162e-03 -1.418410e-02 -8.058956e-03 -1.079140e-02 -1.157427e-02 -7.685788e-03 -1.348921e-02 -8.095242e-03 -1.056314e-02 -1.178776e-02 -7.176761e-03 -1.450605e-02 -6.371867e-03 -1.236241e-02 -1.017294e-02 -8.808318e-03 -1.357683e-02 -7.409693e-03 -1.287904e-02 -1.134056e-02 -8.872008e-03 -1.640974e-02 -9.962603e-03 -1.591967e-02 -9.428447e-03 -1.101936e-02 -1.327129e-02 -7.561604e-03 -1.341623e-02 -9.123788e-03 -9.814897e-03 -1.258404e-02 -6.626583e-03 -1.440925e-02 -7.185614e-03 -1.155041e-02 -1.075417e-02 -8.260250e-03 -1.338597e-02 -7.492890e-03 -1.133995e-02 -1.101131e-02 -7.866130e-03 -1.414937e-02 -6.097714e-03 -1.311481e-02 -9.411133e-03 -9.621183e-03 -1.300188e-02 -7.470123e-03 -1.355300e-02 -1.054601e-02 -9.854888e-03 -1.570174e-02 -1.033715e-02 -1.636472e-02 -8.525546e-03 -1.206897e-02 -1.231515e-02 -8.203968e-03 -1.366426e-02 -8.234042e-03 -1.088776e-02 -1.155170e-02 -7.506764e-03 -1.431983e-02 -6.508045e-03 -1.262723e-02 -9.779070e-03 -9.245778e-03 -1.299473e-02 -7.230532e-03 -1.238010e-02 -1.011653e-02 -9.001752e-03 -1.350781e-02 -6.189391e-03 -1.393474e-02 -8.393413e-03 -1.070428e-02 -1.182956e-02 -7.434364e-03 -1.337861e-02 -8.739040e-03 -1.044450e-02 -1.208211e-02 -6.932064e-03 -1.453482e-02 -7.012316e-03 -1.220708e-02 -1.025352e-02 -8.653363e-03 -1.334847e-02 -7.303717e-03 -1.192615e-02 -1.047710e-02 -8.327173e-03 -1.400361e-02 -5.940360e-03 -1.352937e-02 -8.822675e-03 -9.898820e-03 -1.248165e-02 -6.781168e-03 -1.287575e-02 -9.122044e-03 -9.384325e-03 -1.270173e-02 -5.276587e-03 -1.333321e-02 -7.983773e-03 -1.413769e-02 -9.938087e-03 1.055997e-02 2.005959e-02 2.338442e-02 2.334448e-02 1.992924e-02 
2.344281e-02 2.575753e-02 2.760434e-02 4.253672e-02 6.300104e-02 1.122839e-01 1.092336e-01 7.748301e-02 8.216380e-02 4.818412e-02 1.748062e-02 1.417085e-02 -2.128141e-01 -1.589824e-01 -1.566277e-01 -3.117030e-01 -2.057928e-01 -2.381502e-01 -3.010642e-01 -9.406191e-02 -2.862418e-01 -2.030543e-01 7.600614e-02 -7.222158e-02 1.179627e-01 1.546016e-02 4.741874e-02 1.176054e-01 4.060738e-03 1.285511e-01 3.155267e-02 6.962174e-02 1.043563e-01 5.496057e-03 1.199998e-01 1.949681e-02 7.983496e-02 7.885789e-02 9.203991e-03 1.035696e-01 1.295646e-02 7.790456e-02 5.866577e-02 1.182996e-02 8.902731e-02 7.817058e-03 7.333626e-02 4.072692e-02 1.617627e-02 7.348214e-02 5.238781e-03 6.532064e-02 2.728782e-02 2.072390e-02 6.011290e-02 3.773402e-03 5.788803e-02 1.744640e-02 2.787701e-02 4.850004e-02 4.399363e-03 5.441498e-02 1.414195e-02 2.687593e-02 4.052534e-02 1.370499e-02 4.861939e-02 7.829015e-03 3.171557e-02 2.833991e-02 5.047820e-03 3.766341e-02 5.107213e-03 2.889421e-02 2.027316e-02 5.441723e-03 3.194296e-02 3.105344e-03 2.653692e-02 1.393853e-02 7.246548e-03 2.616800e-02 2.315178e-03 2.317723e-02 9.557007e-03 8.992325e-03 2.170126e-02 1.310406e-03 2.100392e-02 6.372442e-03 1.154677e-02 1.800750e-02 2.227957e-03 2.096437e-02 7.459690e-03 1.190833e-02 1.752566e-02 7.047713e-03 1.976619e-02 4.805344e-03 1.201697e-02 1.137260e-02 2.395591e-03 1.403828e-02 2.832857e-03 1.014349e-02 8.427298e-03 2.022934e-03 1.226791e-02 1.643180e-03 9.537976e-03 5.946643e-03 2.883301e-03 1.026642e-02 1.194946e-03 8.420075e-03 4.413317e-03 3.310702e-03 9.160214e-03 2.561066e-04 8.402174e-03 3.137388e-03 4.517695e-03 8.393941e-03 1.200994e-03 9.659858e-03 5.409003e-03 6.120961e-03 1.036543e-02 3.971593e-03 1.019701e-02 3.742099e-03 4.932294e-03 6.197282e-03 8.600561e-04 6.369714e-03 1.689986e-03 3.723803e-03 4.635837e-03 1.972629e-04 6.083679e-03 6.189563e-04 4.110429e-03 3.269325e-03 8.673045e-04 5.536741e-03 2.778500e-04 3.963453e-03 2.585525e-03 9.024138e-04 5.370847e-03 -6.368061e-04 4.478609e-03 1.538172e-03 1.918741e-03 5.102006e-03 6.912040e-05 6.048989e-03 3.855517e-03 4.656710e-03 7.662771e-03 2.074148e-03 7.864082e-03 2.781420e-03 3.335614e-03 4.571959e-03 2.713605e-04 4.975582e-03 1.097717e-03 2.880165e-03 3.754371e-03 1.499937e-04 5.427812e-03 4.792670e-04 3.699242e-03 2.991736e-03 9.574632e-04 5.179119e-03 5.042739e-04 3.647009e-03 2.752440e-03 9.409824e-04 5.198054e-03 -1.149004e-04 4.179863e-03 2.098676e-03 1.906715e-03 5.164391e-03 8.219486e-04 5.803265e-03 4.687299e-03 4.364920e-03 7.866401e-03 2.856616e-03 7.449805e-03 3.578425e-03 2.869377e-03 4.870486e-03 6.989044e-04 4.573227e-03 1.951803e-03 2.288187e-03 4.257719e-03 3.022537e-04 5.192028e-03 1.442605e-03 3.099650e-03 3.939719e-03 9.329872e-04 5.317801e-03 1.715979e-03 3.157028e-03 4.231884e-03 8.107867e-04 5.811985e-03 1.259369e-03 3.667839e-03 3.750805e-03 1.193949e-03 5.431565e-03 1.178436e-03 3.443097e-03 3.637347e-03 9.134526e-04 5.437849e-03 3.535422e-04 3.934505e-03 2.719878e-03 1.345419e-03 4.642150e-03 1.594205e-04 3.941566e-03 2.343860e-03 1.228293e-03 4.403543e-03 -4.304692e-04 4.452421e-03 1.349977e-03 1.774586e-03 3.566851e-03 -1.952906e-04 4.277961e-03 9.334886e-04 1.779930e-03 3.046366e-03 -4.496029e-04 4.369524e-03 6.190913e-05 1.315971e-03 -1.080469e-03 -2.159732e-03 1.047981e-02 1.865457e-02 2.360299e-02 2.420637e-02 2.499435e-02 
4.044961e-02 4.378488e-02 5.000347e-02 6.579852e-02 8.792598e-02 1.323412e-01 1.166533e-01 8.100407e-02 8.929742e-02 5.075011e-02 2.564574e-02 2.280250e-02 -1.207467e-01 4.219930e-02 4.104611e-02 3.998549e-02 4.166804e-02 4.144786e-02 3.932996e-02 4.191336e-02 3.975391e-02 -1.961541e-01 5.733929e-02 -8.646783e-02 1.177322e-01 1.816534e-02 4.590964e-02 1.213120e-01 1.204185e-02 1.385623e-01 4.437265e-02 8.451262e-02 1.193075e-01 2.503363e-02 1.372025e-01 4.040295e-02 1.011705e-01 1.004346e-01 3.417346e-02 1.257257e-01 3.864467e-02 1.034040e-01 8.441801e-02 3.999411e-02 1.150270e-01 3.631120e-02 1.024272e-01 6.910995e-02 4.833825e-02 1.023239e-01 3.759641e-02 9.693784e-02 5.910818e-02 5.501534e-02 9.211978e-02 3.789701e-02 9.230702e-02 5.077092e-02 6.490989e-02 8.224301e-02 4.308996e-02 9.185805e-02 5.385257e-02 7.219215e-02 8.515829e-02 5.935863e-02 9.045350e-02 4.813612e-02 7.368227e-02 6.535783e-02 4.672239e-02 7.569591e-02 4.472007e-02 6.944415e-02 5.824237e-02 4.739523e-02 7.129065e-02 4.349000e-02 6.878305e-02 5.260633e-02 5.154782e-02 6.580344e-02 4.513296e-02 6.569635e-02 5.038065e-02 5.384145e-02 6.262381e-02 4.497550e-02 6.474839e-02 4.789866e-02 5.811827e-02 5.921859e-02 4.923647e-02 6.617261e-02 5.354949e-02 6.420668e-02 6.814891e-02 5.958063e-02 6.713155e-02 5.069010e-02 6.051242e-02 5.350203e-02 5.032955e-02 5.746834e-02 4.785797e-02 5.636905e-02 5.096051e-02 4.958067e-02 5.615199e-02 4.686754e-02 5.643010e-02 4.858794e-02 5.178264e-02 5.336954e-02 4.816776e-02 5.448517e-02 4.871676e-02 5.188987e-02 5.276746e-02 4.756404e-02 5.496161e-02 4.772130e-02 5.421322e-02 5.194851e-02 5.146776e-02 5.729679e-02 5.427274e-02 6.102765e-02 6.316756e-02 5.945332e-02 5.946359e-02 5.209653e-02 5.566091e-02 5.029626e-02 5.133191e-02 5.146234e-02 4.910300e-02 5.176140e-02 4.909682e-02 4.993911e-02 5.125431e-02 4.800457e-02 5.229308e-02 4.775192e-02 5.146046e-02 4.952464e-02 4.916162e-02 5.093479e-02 4.848066e-02 5.072773e-02 4.978091e-02 4.835832e-02 5.177439e-02 4.762547e-02 5.259993e-02 4.955412e-02 5.186855e-02 5.429033e-02 5.407187e-02 6.011468e-02 6.139380e-02 5.871457e-02 5.724206e-02 5.230157e-02 5.429730e-02 4.943048e-02 5.150434e-02 4.998724e-02 4.939650e-02 5.066693e-02 4.889838e-02 5.013561e-02 5.020907e-02 4.853118e-02 5.140013e-02 4.798986e-02 5.141094e-02 4.879095e-02 4.984829e-02 5.007888e-02 4.901988e-02 5.041389e-02 4.936209e-02 4.915868e-02 5.092348e-02 4.845890e-02 5.208811e-02 4.950610e-02 5.272784e-02 5.345183e-02 5.516787e-02 5.938967e-02 6.166595e-02 5.938107e-02 5.627396e-02 5.344372e-02 5.329892e-02 4.999018e-02 5.188263e-02 4.910320e-02 5.061691e-02 4.960131e-02 4.979340e-02 5.017658e-02 4.963226e-02 4.988233e-02 5.043765e-02 4.929438e-02 5.122451e-02 4.880167e-02 5.141315e-02 4.933368e-02 5.084256e-02 5.010007e-02 4.998354e-02 5.073008e-02 5.009413e-02 5.023626e-02 5.079457e-02 4.917409e-02 5.184734e-02 4.881439e-02 5.151714e-02 4.941103e-02 5.040129e-02 5.069235e-02 4.955688e-02 5.068976e-02 5.005333e-02 4.964338e-02 5.134336e-02 4.836067e-02 5.180321e-02 4.873988e-02 5.081002e-02 4.998599e-02 4.929579e-02 5.078433e-02 4.948497e-02 4.982523e-02 5.056568e-02 4.818042e-02 5.145998e-02 4.802466e-02 5.041131e-02 4.871803e-02 4.828901e-02 4.908716e-02 4.779876e-02 4.880115e-02 4.671708e-02 3.908735e-02 3.900496e-02 3.808256e-02 3.891097e-02 3.892498e-02 
4.407829e-02 4.937100e-02 5.495345e-02 6.804167e-02 8.045183e-02 1.008600e-01 8.986813e-02 6.902683e-02 7.363465e-02 4.480415e-02 4.549167e-02 3.261163e-02 6.115010e-02 6.672579e-02 6.504609e-02 6.648329e-02 6.580913e-02 6.606046e-02 6.597428e-02 6.451321e-02 6.661426e-02 5.888699e-02 3.606132e-02 -3.812353e-03 7.539529e-02 3.467044e-02 4.579795e-02 9.047260e-02 3.182277e-02 1.047214e-01 5.249360e-02 7.758959e-02 9.506758e-02 4.600942e-02 1.077499e-01 5.333908e-02 8.830033e-02 8.592417e-02 5.261001e-02 1.014045e-01 5.272176e-02 8.913086e-02 7.698480e-02 5.562068e-02 9.452048e-02 5.112826e-02 8.771235e-02 6.835393e-02 5.928590e-02 8.681427e-02 5.119011e-02 8.433024e-02 6.225569e-02 6.225251e-02 8.015510e-02 5.125402e-02 8.117116e-02 5.767256e-02 6.670029e-02 7.483567e-02 5.484201e-02 8.202506e-02 6.187532e-02 7.761216e-02 8.549408e-02 6.990098e-02 8.276138e-02 5.820166e-02 7.124190e-02 6.492021e-02 5.595501e-02 7.073089e-02 5.329802e-02 6.752203e-02 6.000774e-02 5.599159e-02 6.746193e-02 5.264162e-02 6.661873e-02 5.704042e-02 5.777944e-02 6.434690e-02 5.328130e-02 6.497656e-02 5.553108e-02 5.895258e-02 6.204711e-02 5.350996e-02 6.401361e-02 5.445607e-02 6.093805e-02 6.062204e-02 5.655249e-02 6.622486e-02 6.008751e-02 7.060024e-02 7.395235e-02 6.820338e-02 6.802780e-02 5.789194e-02 6.257854e-02 5.727988e-02 5.644672e-02 5.946148e-02 5.403332e-02 5.932717e-02 5.508824e-02 5.595662e-02 5.816484e-02 5.372343e-02 5.895664e-02 5.405945e-02 5.684202e-02 5.669548e-02 5.429255e-02 5.796519e-02 5.395419e-02 5.699015e-02 5.594111e-02 5.433418e-02 5.782312e-02 5.380189e-02 5.810617e-02 5.606592e-02 5.719622e-02 6.074577e-02 6.000594e-02 6.797849e-02 7.052521e-02 6.761845e-02 6.317713e-02 5.816886e-02 5.943461e-02 5.517484e-02 5.654529e-02 5.572737e-02 5.447687e-02 5.640884e-02 5.382104e-02 5.577448e-02 5.510781e-02 5.418067e-02 5.630133e-02 5.343145e-02 5.632181e-02 5.424954e-02 5.469713e-02 5.562519e-02 5.366695e-02 5.603530e-02 5.402352e-02 5.459360e-02 5.570692e-02 5.361473e-02 5.690144e-02 5.454074e-02 5.722885e-02 5.881019e-02 5.979367e-02 6.699867e-02 6.934946e-02 6.710766e-02 6.160830e-02 5.818689e-02 5.841011e-02 5.465253e-02 5.654215e-02 5.469417e-02 5.469337e-02 5.559205e-02 5.376044e-02 5.580786e-02 5.436282e-02 5.458198e-02 5.564129e-02 5.365005e-02 5.623768e-02 5.375452e-02 5.519273e-02 5.503390e-02 5.406797e-02 5.582782e-02 5.377526e-02 5.514274e-02 5.516301e-02 5.419111e-02 5.660364e-02 5.455285e-02 5.779170e-02 5.828864e-02 6.052794e-02 6.662763e-02 6.955767e-02 6.748710e-02 6.104310e-02 5.896018e-02 5.784898e-02 5.507145e-02 5.679907e-02 5.419987e-02 5.550838e-02 5.500797e-02 5.440562e-02 5.590789e-02 5.409973e-02 5.550837e-02 5.518377e-02 5.457541e-02 5.630014e-02 5.392952e-02 5.631132e-02 5.481599e-02 5.536954e-02 5.593458e-02 5.439001e-02 5.631253e-02 5.494549e-02 5.541665e-02 5.601393e-02 5.424451e-02 5.677241e-02 5.440639e-02 5.599747e-02 5.538111e-02 5.475446e-02 5.642005e-02 5.444919e-02 5.589447e-02 5.533257e-02 5.468704e-02 5.652040e-02 5.388473e-02 5.634993e-02 5.469409e-02 5.516932e-02 5.594312e-02 5.402342e-02 5.609569e-02 5.466427e-02 5.491320e-02 5.581626e-02 5.350093e-02 5.612322e-02 5.380194e-02 5.480451e-02 5.461715e-02 5.275137e-02 5.452321e-02 5.263206e-02 5.414596e-02 5.207754e-02 4.432412e-02 4.140301e-02 4.040763e-02 4.055770e-02 4.224159e-02 
5.719965e-02 6.150228e-02 6.771447e-02 7.740991e-02 8.685540e-02 9.927807e-02 9.670585e-02 8.472995e-02 8.784134e-02 7.308254e-02 7.190489e-02 7.449402e-02 8.468305e-02 8.663043e-02 8.554475e-02 8.600729e-02 8.583823e-02 8.600642e-02 8.537626e-02 8.545229e-02 8.550112e-02 8.329405e-02 9.195204e-02 3.404500e-02 9.397459e-02 5.600528e-02 6.914897e-02 9.462377e-02 5.626586e-02 1.037364e-01 6.912843e-02 8.522069e-02 9.815645e-02 6.423766e-02 1.064952e-01 6.802857e-02 9.211352e-02 9.015709e-02 6.870967e-02 1.005946e-01 6.728370e-02 9.099428e-02 8.362282e-02 6.903324e-02 9.549546e-02 6.450559e-02 8.989730e-02 7.596317e-02 7.109170e-02 8.837579e-02 6.439287e-02 8.605616e-02 7.162228e-02 7.115235e-02 8.354302e-02 6.277619e-02 8.385861e-02 6.658328e-02 7.347622e-02 7.766310e-02 6.464773e-02 8.251122e-02 7.036958e-02 8.597720e-02 9.724148e-02 8.154364e-02 8.506538e-02 6.606712e-02 7.506335e-02 6.994979e-02 6.505902e-02 7.425147e-02 6.307157e-02 7.198620e-02 6.771589e-02 6.436688e-02 7.280396e-02 6.173719e-02 7.205829e-02 6.470750e-02 6.605973e-02 6.958356e-02 6.270956e-02 6.989545e-02 6.415807e-02 6.561929e-02 6.841677e-02 6.168088e-02 6.956329e-02 6.200716e-02 6.695514e-02 6.576526e-02 6.356470e-02 6.959501e-02 6.716539e-02 7.835393e-02 8.634820e-02 7.775582e-02 7.302845e-02 6.402740e-02 6.740359e-02 6.320541e-02 6.354012e-02 6.493832e-02 6.210365e-02 6.493167e-02 6.302338e-02 6.272375e-02 6.509762e-02 6.121779e-02 6.557081e-02 6.152205e-02 6.405306e-02 6.324630e-02 6.230902e-02 6.400711e-02 6.207412e-02 6.314188e-02 6.333873e-02 6.126922e-02 6.437386e-02 6.071252e-02 6.412437e-02 6.193366e-02 6.316419e-02 6.512011e-02 6.639905e-02 7.556915e-02 8.301791e-02 7.644898e-02 6.905947e-02 6.357719e-02 6.466425e-02 6.126076e-02 6.296355e-02 6.186878e-02 6.188677e-02 6.243670e-02 6.169106e-02 6.203911e-02 6.258163e-02 6.108069e-02 6.333382e-02 6.067669e-02 6.323302e-02 6.123836e-02 6.218436e-02 6.203778e-02 6.151371e-02 6.211419e-02 6.173821e-02 6.106323e-02 6.260365e-02 6.025158e-02 6.298411e-02 6.062649e-02 6.283377e-02 6.354462e-02 6.596155e-02 7.455376e-02 8.185088e-02 7.577643e-02 6.780115e-02 6.333885e-02 6.380531e-02 6.073500e-02 6.277472e-02 6.106643e-02 6.189438e-02 6.181549e-02 6.153279e-02 6.196989e-02 6.205219e-02 6.127525e-02 6.286811e-02 6.076231e-02 6.315674e-02 6.091577e-02 6.247985e-02 6.164990e-02 6.176363e-02 6.200151e-02 6.159783e-02 6.142720e-02 6.227197e-02 6.065604e-02 6.284278e-02 6.067235e-02 6.323804e-02 6.325048e-02 6.649608e-02 7.434390e-02 8.200134e-02 7.607342e-02 6.747542e-02 6.389633e-02 6.348173e-02 6.104216e-02 6.299060e-02 6.079575e-02 6.249571e-02 6.147639e-02 6.201296e-02 6.211008e-02 6.197070e-02 6.198673e-02 6.265468e-02 6.150659e-02 6.334973e-02 6.120625e-02 6.341715e-02 6.171003e-02 6.290524e-02 6.238621e-02 6.237030e-02 6.264909e-02 6.263813e-02 6.216079e-02 6.327067e-02 6.147981e-02 6.373790e-02 6.149083e-02 6.333357e-02 6.205240e-02 6.258672e-02 6.267426e-02 6.232161e-02 6.242899e-02 6.280146e-02 6.169004e-02 6.350526e-02 6.115459e-02 6.347435e-02 6.155298e-02 6.276070e-02 6.228551e-02 6.204212e-02 6.243330e-02 6.231144e-02 6.172413e-02 6.296734e-02 6.083766e-02 6.315550e-02 6.084512e-02 6.230422e-02 6.119152e-02 6.094973e-02 6.098730e-02 6.033067e-02 5.977321e-02 5.882647e-02 5.386461e-02 5.314551e-02 5.154996e-02 5.295360e-02 5.392545e-02 