# vtk DataFile Version 2.0
Comment goes here
ASCII

DATASET STRUCTURED_POINTS
FIELD FieldData 1
TIME 1 1 double
0.07200000
DIMENSIONS    64   64   1

ORIGIN    0.000   0.000   0.000
SPACING   0.03125 0.03125   1.000

POINT_DATA   4096
SCALARS uX double
LOOKUP_TABLE default

5.672435e-01 -1.748308e+00 3.706211e-01 -1.688884e+00 1.008653e-01 -1.633416e+00 3.502809e-01 -1.525000e+00 4.603781e-01 -1.441765e+00 4.799406e-01 -1.340464e+00 4.319634e-01 -1.213322e+00 3.393754e-01 -1.069015e+00 2.192356e-01 -9.039043e-01 6.322176e-02 -6.972153e-01 -1.452925e-01 -4.437971e-01 -3.935191e-01 -1.708544e-01 -6.444440e-01 8.203906e-02 -8.631582e-01 2.923800e-01 -1.035291e+00 4.578156e-01 -1.164473e+00 5.863677e-01 -1.264194e+00 6.904369e-01 -1.343292e+00 7.714097e-01 -1.400177e+00 8.282183e-01 -1.434431e+00 8.593142e-01 -1.441524e+00 8.547201e-01 -1.409950e+00 8.010353e-01 -1.326708e+00 6.879034e-01 -1.188228e+00 5.167810e-01 -1.004580e+00 2.935445e-01 -7.835058e-01 2.793322e-02 -5.357155e-01 -2.722549e-01 -2.628500e-01 -6.093195e-01 3.041907e-02 -9.730727e-01 3.239789e-01 -1.335737e+00 5.797622e-01 -1.659637e+00 7.594147e-01 -1.910044e+00 
-1.937836e-01 1.665556e-01 6.598617e-02 1.354319e-01 3.940339e-01 1.096519e-01 -1.931985e-02 1.043034e-02 -2.398235e-01 -3.385951e-02 -3.614404e-01 -6.990769e-02 -4.222857e-01 -1.116869e-01 -4.474229e-01 -1.562801e-01 -4.543010e-01 -2.079005e-01 -4.383865e-01 -2.839356e-01 -3.853990e-01 -3.905244e-01 -3.036729e-01 -5.052293e-01 -2.179732e-01 -6.034606e-01 -1.472245e-01 -6.866994e-01 -9.539300e-02 -7.528737e-01 -6.223061e-02 -7.995275e-01 -4.263853e-02 -8.365599e-01 -2.849642e-02 -8.685599e-01 -1.926162e-02 -8.930685e-01 -1.648217e-02 -9.042399e-01 -2.400244e-02 -8.955918e-01 -4.637772e-02 -8.660620e-01 -8.827482e-02 -8.079004e-01 -1.509368e-01 -7.195942e-01 -2.270375e-01 -6.047339e-01 -3.138548e-01 -4.689220e-01 -4.047604e-01 -3.153449e-01 -4.993075e-01 -1.409161e-01 -5.957254e-01 4.977340e-02 -6.820687e-01 2.405204e-01 -7.296907e-01 4.011555e-01 -7.015132e-01 4.909941e-01 
1.941353e+00 5.280196e-01 1.566496e+00 5.088371e-01 1.113228e+00 4.831114e-01 1.835258e+00 6.020010e-01 2.236659e+00 6.111363e-01 2.519760e+00 5.600666e-01 2.754329e+00 4.782168e-01 2.962500e+00 3.872623e-01 3.148907e+00 2.904571e-01 3.332694e+00 1.720555e-01 3.536011e+00 3.069444e-02 3.745079e+00 -1.242439e-01 3.935876e+00 -2.715895e-01 4.096294e+00 -3.782623e-01 4.223733e+00 -4.470656e-01 4.316258e+00 -4.929229e-01 4.382450e+00 -5.224878e-01 4.435304e+00 -5.358668e-01 4.476106e+00 -5.338404e-01 4.496113e+00 -5.199894e-01 4.490058e+00 -4.936830e-01 4.456343e+00 -4.405516e-01 4.384819e+00 -3.578516e-01 4.266313e+00 -2.530652e-01 4.102088e+00 -1.293411e-01 3.902129e+00 9.426093e-03 3.668084e+00 1.597311e-01 3.393738e+00 3.261909e-01 3.076314e+00 5.046540e-01 2.723620e+00 6.760983e-01 2.349757e+00 8.232948e-01 1.961733e+00 8.733803e-01 
4.047396e+00 1.523873e-01 3.080593e+00 -1.721293e-01 1.594934e+00 -1.585502e-01 3.584356e+00 2.694587e-03 4.570607e+00 6.012265e-02 5.195699e+00 9.861288e-02 5.643850e+00 1.403060e-01 5.988639e+00 1.837269e-01 6.268105e+00 2.295909e-01 6.491112e+00 2.851384e-01 6.652883e+00 3.565774e-01 6.766663e+00 4.301732e-01 6.852112e+00 4.900508e-01 6.920792e+00 5.353071e-01 6.978958e+00 5.684727e-01 7.028000e+00 5.917210e-01 7.064992e+00 6.132011e-01 7.085714e+00 6.346611e-01 7.091875e+00 6.539418e-01 7.085098e+00 6.689501e-01 7.065477e+00 6.779140e-01 7.031541e+00 6.783901e-01 6.984984e+00 6.675058e-01 6.923827e+00 6.478719e-01 6.838146e+00 6.217033e-01 6.722304e+00 5.908834e-01 6.572416e+00 5.556922e-01 6.386640e+00 5.085584e-01 6.159794e+00 4.440725e-01 5.877650e+00 3.588229e-01 5.512431e+00 2.530039e-01 5.027257e+00 1.199121e-01 
4.195867e+00 3.057914e-01 3.395889e+00 -4.047994e-02 2.197563e+00 -4.050468e-02 3.626803e+00 -7.972229e-02 4.561086e+00 -1.964829e-02 5.199754e+00 5.224525e-02 5.668051e+00 1.247357e-01 6.030536e+00 1.942162e-01 6.324007e+00 2.592586e-01 6.561258e+00 3.227461e-01 6.741465e+00 3.813029e-01 6.878547e+00 4.377202e-01 6.985550e+00 4.921912e-01 7.068253e+00 5.306247e-01 7.126988e+00 5.554358e-01 7.168981e+00 5.756364e-01 7.197186e+00 5.934179e-01 7.209129e+00 6.089862e-01 7.205117e+00 6.215045e-01 7.190249e+00 6.318075e-01 7.163964e+00 6.410085e-01 7.120363e+00 6.430818e-01 7.058062e+00 6.364692e-01 6.977292e+00 6.245963e-01 6.875067e+00 6.100119e-01 6.742641e+00 5.933945e-01 6.575212e+00 5.755284e-01 6.371458e+00 5.539180e-01 6.125195e+00 5.245288e-01 5.823088e+00 4.837815e-01 5.448316e+00 4.125796e-01 4.989222e+00 3.335394e-01 
4.524839e+00 1.025506e-01 3.757798e+00 1.424021e-03 2.769883e+00 -8.050389e-03 3.794674e+00 -2.887346e-02 4.699700e+00 1.836309e-02 5.339407e+00 7.262394e-02 5.800807e+00 1.288610e-01 6.152410e+00 1.872792e-01 6.431428e+00 2.487395e-01 6.652680e+00 3.125619e-01 6.817530e+00 3.791005e-01 6.939155e+00 4.434427e-01 7.029772e+00 4.999190e-01 7.096817e+00 5.453867e-01 7.146432e+00 5.821006e-01 7.181740e+00 6.125899e-01 7.203129e+00 6.391945e-01 7.211017e+00 6.635297e-01 7.207080e+00 6.864580e-01 7.192333e+00 7.069699e-01 7.166691e+00 7.218184e-01 7.128564e+00 7.267642e-01 7.075870e+00 7.185133e-01 7.005218e+00 6.971772e-01 6.910635e+00 6.647352e-01 6.787692e+00 6.239197e-01 6.636988e+00 5.756851e-01 6.456478e+00 5.176535e-01 6.238827e+00 4.473851e-01 5.969906e+00 3.638307e-01 5.626040e+00 2.652779e-01 5.172102e+00 1.532810e-01 
4.733351e+00 2.314393e-01 4.126371e+00 1.381192e-01 3.328004e+00 1.284044e-01 4.030010e+00 3.224561e-02 4.741391e+00 2.568608e-02 5.315416e+00 6.882919e-02 5.756814e+00 1.304601e-01 6.103710e+00 1.982932e-01 6.385309e+00 2.685175e-01 6.616387e+00 3.348444e-01 6.791605e+00 3.966459e-01 6.924184e+00 4.513032e-01 7.025404e+00 4.962408e-01 7.102264e+00 5.308977e-01 7.157447e+00 5.565992e-01 7.195035e+00 5.767707e-01 7.218636e+00 5.938296e-01 7.229482e+00 6.089236e-01 7.228613e+00 6.225250e-01 7.217394e+00 6.344738e-01 7.194532e+00 6.433199e-01 7.156549e+00 6.461232e-01 7.100959e+00 6.413723e-01 7.026376e+00 6.297704e-01 6.930072e+00 6.127065e-01 6.807182e+00 5.907108e-01 6.652585e+00 5.650250e-01 6.466463e+00 5.346243e-01 6.246133e+00 4.971483e-01 5.983226e+00 4.493696e-01 5.664082e+00 3.874928e-01 5.264952e+00 3.117312e-01 
5.067929e+00 1.520260e-01 4.527332e+00 1.468447e-01 3.856544e+00 1.374162e-01 4.367651e+00 7.029657e-02 4.959963e+00 5.644368e-02 5.485485e+00 8.566922e-02 5.903400e+00 1.367427e-01 6.233955e+00 1.987905e-01 6.499978e+00 2.693535e-01 6.717434e+00 3.393610e-01 6.874056e+00 4.057077e-01 6.988711e+00 4.637252e-01 7.074036e+00 5.114722e-01 7.137511e+00 5.497940e-01 7.183464e+00 5.811335e-01 7.214547e+00 6.080786e-01 7.232858e+00 6.324166e-01 7.240422e+00 6.553126e-01 7.238909e+00 6.770840e-01 7.229119e+00 6.963475e-01 7.210549e+00 7.098415e-01 7.180739e+00 7.136751e-01 7.136420e+00 7.044843e-01 7.073561e+00 6.813825e-01 6.984955e+00 6.465312e-01 6.865670e+00 6.019912e-01 6.724354e+00 5.505448e-01 6.562689e+00 4.924356e-01 6.374479e+00 4.276547e-01 6.149004e+00 3.566203e-01 5.870394e+00 2.808407e-01 5.518047e+00 2.059744e-01 
5.327141e+00 2.515412e-01 4.908797e+00 2.427234e-01 4.370870e+00 2.334092e-01 4.713662e+00 1.454531e-01 5.133062e+00 9.262345e-02 5.556636e+00 9.745229e-02 5.925379e+00 1.422391e-01 6.232996e+00 2.092846e-01 6.490105e+00 2.893353e-01 6.717893e+00 3.656565e-01 6.877751e+00 4.306396e-01 6.995610e+00 4.805477e-01 7.084793e+00 5.169517e-01 7.151568e+00 5.436939e-01 7.199095e+00 5.642938e-01 7.230485e+00 5.815115e-01 7.249567e+00 5.962901e-01 7.259310e+00 6.095242e-01 7.261384e+00 6.223572e-01 7.256096e+00 6.349255e-01 7.240924e+00 6.454906e-01 7.210998e+00 6.509306e-01 7.163080e+00 6.478758e-01 7.096468e+00 6.349517e-01 7.009882e+00 6.134477e-01 6.900855e+00 5.833438e-01 6.761446e+00 5.466696e-01 6.598072e+00 5.047707e-01 6.415078e+00 4.595402e-01 6.208544e+00 4.113815e-01 5.968052e+00 3.590179e-01 5.679158e+00 3.020905e-01 
5.651198e+00 2.090176e-01 5.296752e+00 2.407711e-01 4.856461e+00 2.320671e-01 5.094867e+00 1.603330e-01 5.415000e+00 1.090689e-01 5.770039e+00 1.046077e-01 6.099104e+00 1.424310e-01 6.383133e+00 2.112073e-01 6.617990e+00 2.998630e-01 6.838751e+00 3.888119e-01 6.971897e+00 4.558411e-01 7.066249e+00 5.029364e-01 7.138454e+00 5.371769e-01 7.193790e+00 5.635558e-01 7.233567e+00 5.860367e-01 7.259198e+00 6.075614e-01 7.273670e+00 6.283756e-01 7.280229e+00 6.487499e-01 7.281136e+00 6.690927e-01 7.277618e+00 6.882350e-01 7.268828e+00 7.027876e-01 7.250071e+00 7.086777e-01 7.216922e+00 7.009612e-01 7.165945e+00 6.769793e-01 7.084835e+00 6.391596e-01 6.963828e+00 5.847137e-01 6.830761e+00 5.244429e-01 6.693743e+00 4.617205e-01 6.546054e+00 3.992322e-01 6.379397e+00 3.391253e-01 6.182365e+00 2.830054e-01 5.942822e+00 2.348506e-01 
5.920211e+00 2.844217e-01 5.661366e+00 3.167100e-01 5.327777e+00 3.086127e-01 5.455454e+00 2.268618e-01 5.651517e+00 1.462379e-01 5.908924e+00 1.088185e-01 6.179127e+00 1.292301e-01 6.429791e+00 2.105552e-01 6.637817e+00 3.244714e-01 6.884965e+00 4.371427e-01 7.006543e+00 4.992067e-01 7.093522e+00 5.315466e-01 7.163476e+00 5.503517e-01 7.216772e+00 5.636524e-01 7.253939e+00 5.757685e-01 7.276965e+00 5.891690e-01 7.290330e+00 6.014605e-01 7.298063e+00 6.117843e-01 7.302926e+00 6.216773e-01 7.306311e+00 6.328886e-01 7.304104e+00 6.455638e-01 7.286175e+00 6.569629e-01 7.247237e+00 6.618201e-01 7.187869e+00 6.529801e-01 7.110920e+00 6.265356e-01 7.017857e+00 5.870821e-01 6.888001e+00 5.300225e-01 6.743700e+00 4.675513e-01 6.603464e+00 4.138619e-01 6.462977e+00 3.705015e-01 6.309205e+00 3.333186e-01 6.130863e+00 3.009435e-01 
6.224853e+00 2.578547e-01 6.022372e+00 3.121147e-01 5.771012e+00 3.049600e-01 5.828470e+00 2.341511e-01 5.953801e+00 1.532911e-01 6.146700e+00 9.597679e-02 6.374120e+00 8.839798e-02 6.607856e+00 1.808960e-01 6.776643e+00 3.577626e-01 7.046229e+00 5.082839e-01 7.108331e+00 5.459401e-01 7.162612e+00 5.610842e-01 7.217024e+00 5.721563e-01 7.262585e+00 5.810840e-01 7.294638e+00 5.912496e-01 7.313617e+00 6.073418e-01 7.323574e+00 6.258775e-01 7.328094e+00 6.446920e-01 7.330307e+00 6.634926e-01 7.334121e+00 6.812024e-01 7.340098e+00 6.958159e-01 7.337622e+00 7.063870e-01 7.320401e+00 7.077277e-01 7.288728e+00 6.931460e-01 7.214976e+00 6.653117e-01 7.068438e+00 5.785600e-01 6.932619e+00 4.954942e-01 6.824829e+00 4.202097e-01 6.727404e+00 3.587188e-01 6.629819e+00 3.124288e-01 6.518967e+00 2.780479e-01 6.385635e+00 2.558566e-01 
6.485439e+00 3.186113e-01 6.359435e+00 3.788458e-01 6.199863e+00 3.728058e-01 6.167728e+00 3.040631e-01 6.199217e+00 2.003617e-01 6.308298e+00 8.431079e-02 6.485164e+00 -7.449217e-03 6.703555e+00 7.537579e-02 6.819005e+00 4.356155e-01 7.175512e+00 6.352267e-01 7.165176e+00 6.143683e-01 7.200626e+00 5.964391e-01 7.253360e+00 5.856407e-01 7.293769e+00 5.812678e-01 7.319051e+00 5.835606e-01 7.332221e+00 5.965547e-01 7.339393e+00 6.105444e-01 7.343006e+00 6.198147e-01 7.347654e+00 6.235348e-01 7.362109e+00 6.251522e-01 7.382592e+00 6.342011e-01 7.384262e+00 6.492650e-01 7.361012e+00 6.761063e-01 7.307772e+00 7.070935e-01 7.230216e+00 6.781956e-01 7.155173e+00 6.334124e-01 7.006411e+00 5.088847e-01 6.869629e+00 4.039596e-01 6.785177e+00 3.490700e-01 6.723125e+00 3.234962e-01 6.657779e+00 3.098805e-01 6.579701e+00 3.043167e-01 
6.766768e+00 3.025818e-01 6.688781e+00 3.765487e-01 6.601107e+00 3.718241e-01 6.515606e+00 3.263474e-01 6.495513e+00 2.408268e-01 6.544547e+00 1.048908e-01 6.666918e+00 -1.101280e-01 6.896741e+00 -1.877235e-01 7.007654e+00 6.043003e-01 7.423587e+00 7.979027e-01 7.227034e+00 6.252868e-01 7.250695e+00 6.057739e-01 7.302077e+00 5.971564e-01 7.340432e+00 5.900232e-01 7.362196e+00 5.840533e-01 7.374607e+00 5.986775e-01 7.382408e+00 6.235299e-01 7.383411e+00 6.480917e-01 7.381124e+00 6.677372e-01 7.389522e+00 6.771137e-01 7.419096e+00 6.783551e-01 7.441211e+00 6.825653e-01 7.452670e+00 7.007049e-01 7.467915e+00 7.393985e-01 7.410937e+00 8.350411e-01 7.139014e+00 5.803285e-01 6.982705e+00 4.437100e-01 6.925245e+00 3.423818e-01 6.901589e+00 2.927207e-01 6.886653e+00 2.749518e-01 6.860580e+00 2.695683e-01 6.820225e+00 2.741634e-01 
7.009775e+00 3.542075e-01 6.993831e+00 4.365859e-01 6.987892e+00 4.333803e-01 6.825200e+00 4.162811e-01 6.722318e+00 3.574544e-01 6.679153e+00 2.059578e-01 6.732361e+00 -1.372299e-01 6.940506e+00 -4.153431e-01 7.086899e+00 5.630992e-01 7.573788e+00 8.395595e-01 7.189903e+00 4.969747e-01 7.257562e+00 5.125174e-01 7.332160e+00 5.089213e-01 7.366316e+00 5.262227e-01 7.376351e+00 5.432293e-01 7.379148e+00 5.804836e-01 7.385765e+00 6.166098e-01 7.382483e+00 6.382951e-01 7.375276e+00 6.375299e-01 7.399474e+00 6.062620e-01 7.465150e+00 5.994220e-01 7.491259e+00 5.868880e-01 7.509855e+00 5.926797e-01 7.509402e+00 7.703497e-01 7.398720e+00 8.580574e-01 7.300211e+00 7.216423e-01 7.023461e+00 3.776606e-01 6.933717e+00 2.564598e-01 6.959418e+00 2.547767e-01 6.990086e+00 2.738904e-01 7.004609e+00 2.915786e-01 7.009675e+00 3.122408e-01 
7.265043e+00 3.466619e-01 7.289783e+00 4.319011e-01 7.347314e+00 4.298680e-01 7.142723e+00 4.399497e-01 7.003577e+00 4.444249e-01 6.920056e+00 4.397344e-01 6.878842e+00 4.086767e-01 6.817071e+00 1.840176e-01 6.904808e+00 -2.147349e-01 6.600326e+00 -6.356274e-01 6.715885e+00 -4.588673e-01 6.892790e+00 -2.653706e-01 6.981671e+00 -1.390645e-01 7.052051e+00 -2.322611e-03 7.088613e+00 1.176262e-01 7.117183e+00 2.361665e-01 7.146639e+00 3.420962e-01 7.164841e+00 4.167072e-01 7.178173e+00 4.658655e-01 7.215768e+00 4.876251e-01 7.301809e+00 5.267983e-01 7.349753e+00 5.771902e-01 7.396431e+00 6.596449e-01 7.499456e+00 1.063487e+00 7.494174e+00 1.986401e+00 7.302616e+00 1.031687e+00 6.946938e+00 2.695534e-01 6.981823e+00 1.503943e-01 7.095070e+00 1.981062e-01 7.164422e+00 2.410278e-01 7.202951e+00 2.678209e-01 7.233628e+00 2.953407e-01 
7.483851e+00 3.868021e-01 7.562870e+00 4.696195e-01 7.692209e+00 4.687264e-01 7.438683e+00 5.038655e-01 7.237954e+00 5.933335e-01 7.029900e+00 8.243995e-01 6.680620e+00 1.259782e+00 6.000436e+00 1.192254e+00 5.469171e+00 -1.785994e+00 4.010253e+00 -2.689441e+00 4.960458e+00 -2.269300e+00 4.812780e+00 -2.314959e+00 4.723876e+00 -2.230742e+00 4.725417e+00 -2.146966e+00 4.807303e+00 -2.049543e+00 4.907502e+00 -2.005712e+00 4.991522e+00 -1.968278e+00 5.074019e+00 -1.904582e+00 5.133774e+00 -1.812271e+00 5.113061e+00 -1.685494e+00 5.017592e+00 -1.584724e+00 5.027337e+00 -1.468955e+00 5.117469e+00 -1.355895e+00 5.290500e+00 -1.419399e+00 5.674681e+00 -1.316912e+00 6.073098e+00 -8.222691e-01 6.672182e+00 -2.628493e-01 7.051540e+00 4.984018e-02 7.207899e+00 1.846384e-01 7.282880e+00 2.479009e-01 7.342474e+00 2.873285e-01 7.408127e+00 3.261796e-01 
7.709613e+00 3.811996e-01 7.825660e+00 4.572343e-01 8.009943e+00 4.576559e-01 7.714134e+00 4.935642e-01 7.459786e+00 5.784053e-01 7.171728e+00 7.956004e-01 6.725673e+00 1.198500e+00 6.025126e+00 1.214679e+00 5.613684e+00 -8.523934e-01 4.261019e+00 -1.707710e+00 4.671675e+00 -1.703536e+00 4.480585e+00 -1.994597e+00 4.285853e+00 -2.126121e+00 4.166886e+00 -2.247578e+00 4.147767e+00 -2.337302e+00 4.177005e+00 -2.484666e+00 4.210685e+00 -2.636407e+00 4.260688e+00 -2.740140e+00 4.298191e+00 -2.793473e+00 4.225963e+00 -2.769272e+00 3.997851e+00 -2.761351e+00 3.901036e+00 -2.749032e+00 3.881798e+00 -2.779866e+00 3.830965e+00 -3.453077e+00 4.315302e+00 -5.078568e+00 5.660519e+00 -2.480909e+00 7.051914e+00 -5.036333e-01 7.401539e+00 9.769126e-02 7.443567e+00 2.260102e-01 7.469945e+00 2.582838e-01 7.526173e+00 2.825936e-01 7.608146e+00 3.184365e-01 
7.900536e+00 4.083143e-01 8.067348e+00 4.768819e-01 8.312895e+00 4.786570e-01 7.977365e+00 4.914868e-01 7.693729e+00 4.821840e-01 7.432800e+00 4.361852e-01 7.198652e+00 3.374100e-01 7.045629e+00 2.669851e-01 7.049670e+00 9.321964e-01 7.091589e+00 7.566430e-01 6.665253e+00 4.638084e-01 6.744250e+00 3.605494e-01 6.701110e+00 2.138801e-01 6.631775e+00 7.677645e-02 6.556463e+00 -6.754101e-02 6.508918e+00 -2.055113e-01 6.483430e+00 -3.339809e-01 6.461707e+00 -4.539054e-01 6.436808e+00 -5.577095e-01 6.395610e+00 -6.416511e-01 6.336091e+00 -7.365360e-01 6.293591e+00 -8.342362e-01 6.279143e+00 -9.504246e-01 6.300351e+00 -1.150419e+00 6.393760e+00 -1.258225e+00 6.486465e+00 -1.102078e+00 6.978763e+00 -4.076770e-01 7.286963e+00 5.274989e-03 7.433898e+00 1.748739e-01 7.533629e+00 2.481573e-01 7.636415e+00 2.943219e-01 7.757637e+00 3.416935e-01 
8.096734e+00 3.966946e-01 8.298027e+00 4.566380e-01 8.589145e+00 4.595510e-01 8.230533e+00 4.686586e-01 7.934119e+00 4.304671e-01 7.695508e+00 2.737374e-01 7.582314e+00 -9.352497e-02 7.675644e+00 -2.785157e-01 7.575332e+00 6.794363e-01 8.096229e+00 1.142905e+00 7.682212e+00 8.390198e-01 7.634218e+00 7.941602e-01 7.644293e+00 7.351492e-01 7.628854e+00 7.076128e-01 7.595751e+00 6.846265e-01 7.564105e+00 6.849046e-01 7.547342e+00 6.848109e-01 7.530492e+00 6.669761e-01 7.517294e+00 6.273820e-01 7.543471e+00 5.539547e-01 7.625468e+00 5.027644e-01 7.660463e+00 4.532177e-01 7.699484e+00 4.279237e-01 7.787804e+00 7.305672e-01 7.737224e+00 1.463614e+00 7.521134e+00 5.909089e-01 7.273470e+00 3.024820e-02 7.382677e+00 5.096147e-02 7.539262e+00 1.627693e-01 7.666855e+00 2.365733e-01 7.789531e+00 2.849057e-01 7.929944e+00 3.325174e-01 
8.259742e+00 4.130206e-01 8.507640e+00 4.608687e-01 8.850611e+00 4.645109e-01 8.482589e+00 4.652552e-01 8.185090e+00 4.316850e-01 7.960066e+00 3.428493e-01 7.847243e+00 1.780928e-01 7.884437e+00 1.178558e-01 7.860897e+00 6.091691e-01 8.016910e+00 7.850982e-01 7.769530e+00 7.251435e-01 7.687060e+00 6.949451e-01 7.663366e+00 6.671884e-01 7.649391e+00 6.489648e-01 7.628231e+00 6.381592e-01 7.605152e+00 6.458844e-01 7.586648e+00 6.574317e-01 7.569699e+00 6.621834e-01 7.559688e+00 6.546448e-01 7.578446e+00 6.281134e-01 7.634519e+00 6.128760e-01 7.669312e+00 6.053437e-01 7.695217e+00 6.278116e-01 7.719323e+00 7.895968e-01 7.677845e+00 9.236229e-01 7.698508e+00 7.375820e-01 7.503309e+00 3.309822e-01 7.490178e+00 1.929466e-01 7.597276e+00 2.098017e-01 7.733560e+00 2.563431e-01 7.883468e+00 3.023524e-01 8.056100e+00 3.519980e-01 
8.425550e+00 3.950965e-01 8.705363e+00 4.324861e-01 9.085659e+00 4.369349e-01 8.712956e+00 4.334016e-01 8.416295e+00 3.951861e-01 8.195458e+00 3.292370e-01 8.061500e+00 2.884274e-01 7.987719e+00 3.583147e-01 7.892544e+00 5.427839e-01 8.013396e+00 7.057541e-01 7.895321e+00 7.309408e-01 7.809265e+00 7.266376e-01 7.758092e+00 7.081851e-01 7.718688e+00 6.871098e-01 7.684273e+00 6.685187e-01 7.653803e+00 6.639338e-01 7.629903e+00 6.652756e-01 7.613044e+00 6.665943e-01 7.606526e+00 6.658028e-01 7.621454e+00 6.602875e-01 7.661376e+00 6.547530e-01 7.697588e+00 6.576783e-01 7.728835e+00 6.836326e-01 7.762883e+00 7.462305e-01 7.743149e+00 8.059053e-01 7.638311e+00 5.968074e-01 7.571288e+00 3.898948e-01 7.604823e+00 2.679583e-01 7.708560e+00 2.433907e-01 7.848278e+00 2.638888e-01 8.010356e+00 2.986292e-01 8.199767e+00 3.421711e-01 
8.562317e+00 4.101276e-01 8.881141e+00 4.399166e-01 9.305807e+00 4.452484e-01 8.924970e+00 4.526169e-01 8.619720e+00 4.399434e-01 8.382719e+00 4.138448e-01 8.214894e+00 4.060440e-01 8.098566e+00 4.565295e-01 7.999116e+00 5.546665e-01 7.986915e+00 6.421212e-01 7.901764e+00 6.856948e-01 7.826927e+00 6.947749e-01 7.773298e+00 6.885621e-01 7.732777e+00 6.767638e-01 7.697278e+00 6.658572e-01 7.665067e+00 6.604148e-01 7.638981e+00 6.560901e-01 7.622145e+00 6.502797e-01 7.618240e+00 6.439703e-01 7.632280e+00 6.394665e-01 7.661798e+00 6.415085e-01 7.688100e+00 6.502236e-01 7.706749e+00 6.646176e-01 7.722608e+00 6.781393e-01 7.731450e+00 6.594475e-01 7.733105e+00 5.920321e-01 7.700519e+00 4.636767e-01 7.710921e+00 3.539978e-01 7.790211e+00 3.051576e-01 7.923583e+00 3.028319e-01 8.096410e+00 3.256804e-01 8.307186e+00 3.635441e-01 
8.698239e+00 3.937750e-01 9.044005e+00 4.150354e-01 9.499645e+00 4.210849e-01 9.114155e+00 4.321058e-01 8.802281e+00 4.316379e-01 8.550381e+00 4.309696e-01 8.351809e+00 4.503725e-01 8.195569e+00 4.956329e-01 8.076712e+00 5.708964e-01 8.050174e+00 6.367996e-01 7.980445e+00 6.838591e-01 7.908175e+00 7.066430e-01 7.846121e+00 7.089124e-01 7.793775e+00 6.993405e-01 7.749285e+00 6.862765e-01 7.710926e+00 6.763501e-01 7.680681e+00 6.684788e-01 7.661658e+00 6.621338e-01 7.656143e+00 6.587299e-01 7.666411e+00 6.588202e-01 7.690666e+00 6.614558e-01 7.717876e+00 6.653979e-01 7.743292e+00 6.648543e-01 7.768080e+00 6.521871e-01 7.772960e+00 6.215187e-01 7.751554e+00 5.461435e-01 7.744252e+00 4.547694e-01 7.785263e+00 3.726393e-01 7.878328e+00 3.246111e-01 8.018875e+00 3.123973e-01 8.200824e+00 3.257859e-01 8.424642e+00 3.559955e-01 
8.809485e+00 4.116596e-01 9.186115e+00 4.286675e-01 9.678406e+00 4.355654e-01 9.279437e+00 4.552154e-01 8.954423e+00 4.681258e-01 8.685436e+00 4.791071e-01 8.465874e+00 5.005624e-01 8.290918e+00 5.354504e-01 8.157447e+00 5.863997e-01 8.076442e+00 6.310610e-01 7.997947e+00 6.696368e-01 7.923021e+00 6.916218e-01 7.858083e+00 6.966515e-01 7.803397e+00 6.905013e-01 7.756716e+00 6.795738e-01 7.716891e+00 6.685541e-01 7.685827e+00 6.578597e-01 7.666608e+00 6.479790e-01 7.661169e+00 6.411779e-01 7.669858e+00 6.391893e-01 7.689452e+00 6.410433e-01 7.712209e+00 6.425838e-01 7.734452e+00 6.367689e-01 7.758906e+00 6.191973e-01 7.782261e+00 5.907892e-01 7.800687e+00 5.425250e-01 7.817491e+00 4.770840e-01 7.858808e+00 4.101265e-01 7.946183e+00 3.630513e-01 8.085673e+00 3.450295e-01 8.274889e+00 3.527215e-01 8.513667e+00 3.787225e-01 
8.916341e+00 3.994986e-01 9.313905e+00 4.108034e-01 9.830953e+00 4.183728e-01 9.424127e+00 4.428564e-01 9.090173e+00 4.645455e-01 8.808300e+00 4.857441e-01 8.571697e+00 5.139709e-01 8.379265e+00 5.502268e-01 8.233932e+00 5.991673e-01 8.147771e+00 6.440158e-01 8.067017e+00 6.816145e-01 7.986322e+00 7.051160e-01 7.915045e+00 7.119251e-01 7.853830e+00 7.063776e-01 7.801548e+00 6.946505e-01 7.757121e+00 6.820422e-01 7.722361e+00 6.702428e-01 7.700364e+00 6.602437e-01 7.692648e+00 6.539203e-01 7.699278e+00 6.520076e-01 7.718097e+00 6.520860e-01 7.743431e+00 6.491161e-01 7.770652e+00 6.365546e-01 7.798717e+00 6.112313e-01 7.819011e+00 5.766097e-01 7.831245e+00 5.262613e-01 7.854319e+00 4.666019e-01 7.909283e+00 4.080397e-01 8.009010e+00 3.649738e-01 8.158260e+00 3.461001e-01 8.356749e+00 3.506425e-01 8.606195e+00 3.725131e-01 
9.001987e+00 4.196241e-01 9.422715e+00 4.289392e-01 9.968294e+00 4.372174e-01 9.545570e+00 4.641963e-01 9.198702e+00 4.875938e-01 8.905059e+00 5.076738e-01 8.656264e+00 5.332017e-01 8.449536e+00 5.639717e-01 8.288271e+00 6.024954e-01 8.177471e+00 6.505959e-01 8.094648e+00 6.876516e-01 8.003446e+00 7.058586e-01 7.924903e+00 7.085005e-01 7.859287e+00 7.010217e-01 7.803901e+00 6.881968e-01 7.757368e+00 6.738261e-01 7.721549e+00 6.594923e-01 7.699064e+00 6.458954e-01 7.691311e+00 6.352078e-01 7.698032e+00 6.297373e-01 7.716546e+00 6.285771e-01 7.742054e+00 6.269378e-01 7.768604e+00 6.192790e-01 7.797251e+00 6.014189e-01 7.828777e+00 5.763354e-01 7.862213e+00 5.393637e-01 7.901023e+00 4.834894e-01 7.954575e+00 4.240799e-01 8.053340e+00 3.814038e-01 8.206881e+00 3.644371e-01 8.413897e+00 3.709585e-01 8.675369e+00 3.938405e-01 
9.080717e+00 4.111617e-01 9.515880e+00 4.175126e-01 1.007951e+01 4.263611e-01 9.647683e+00 4.562670e-01 9.293081e+00 4.820691e-01 8.991802e+00 5.020293e-01 8.735454e+00 5.284643e-01 8.519895e+00 5.654008e-01 8.351591e+00 6.075327e-01 8.244660e+00 6.722235e-01 8.155885e+00 7.089474e-01 8.051765e+00 7.220416e-01 7.967614e+00 7.216370e-01 7.898830e+00 7.128754e-01 7.840534e+00 6.992469e-01 7.790486e+00 6.844369e-01 7.751175e+00 6.700905e-01 7.726047e+00 6.563874e-01 7.716368e+00 6.449280e-01 7.722418e+00 6.378666e-01 7.742858e+00 6.348323e-01 7.772940e+00 6.312844e-01 7.804218e+00 6.230202e-01 7.835577e+00 6.052635e-01 7.863607e+00 5.795580e-01 7.891254e+00 5.383678e-01 7.925614e+00 4.750770e-01 7.983978e+00 4.119760e-01 8.093290e+00 3.704577e-01 8.257883e+00 3.563007e-01 8.474298e+00 3.647139e-01 8.744206e+00 3.877162e-01 
9.140636e+00 4.333491e-01 9.591162e+00 4.404310e-01 1.017546e+01 4.498843e-01 9.726346e+00 4.805015e-01 9.358906e+00 5.002495e-01 9.049521e+00 5.029796e-01 8.789581e+00 5.135684e-01 8.563072e+00 5.512345e-01 8.379011e+00 5.809986e-01 8.266054e+00 7.029641e-01 8.198480e+00 7.417071e-01 8.064911e+00 7.335744e-01 7.971548e+00 7.219860e-01 7.899500e+00 7.088878e-01 7.837973e+00 6.942553e-01 7.784459e+00 6.776906e-01 7.743724e+00 6.607820e-01 7.717567e+00 6.428286e-01 7.707560e+00 6.245370e-01 7.715364e+00 6.108809e-01 7.739279e+00 6.056043e-01 7.775573e+00 6.053524e-01 7.808640e+00 6.117473e-01 7.835221e+00 6.154361e-01 7.868656e+00 6.022763e-01 7.912383e+00 5.855814e-01 7.956870e+00 4.932075e-01 7.998446e+00 4.042500e-01 8.110735e+00 3.632385e-01 8.286817e+00 3.599274e-01 8.513806e+00 3.780164e-01 8.793188e+00 4.071524e-01 
9.192116e+00 4.285045e-01 9.650032e+00 4.349729e-01 1.024533e+01 4.448777e-01 9.787016e+00 4.789932e-01 9.412422e+00 4.991534e-01 9.097525e+00 4.906220e-01 8.837898e+00 4.773423e-01 8.615079e+00 5.187228e-01 8.419788e+00 5.709677e-01 8.348233e+00 7.733833e-01 8.249880e+00 7.706093e-01 8.087905e+00 7.451758e-01 7.997578e+00 7.293692e-01 7.928562e+00 7.159139e-01 7.867137e+00 7.010023e-01 7.810158e+00 6.852171e-01 7.765635e+00 6.691780e-01 7.737354e+00 6.522240e-01 7.725152e+00 6.336660e-01 7.731868e+00 6.157875e-01 7.759998e+00 6.064067e-01 7.804841e+00 6.031339e-01 7.846478e+00 6.097993e-01 7.881237e+00 6.297429e-01 7.905040e+00 6.480805e-01 7.937321e+00 6.029291e-01 7.955168e+00 4.719445e-01 8.001421e+00 3.724459e-01 8.130806e+00 3.386401e-01 8.320755e+00 3.449768e-01 8.555796e+00 3.693699e-01 8.840006e+00 4.016453e-01 
9.225909e+00 4.524459e-01 9.691549e+00 4.619804e-01 1.029995e+01 4.724296e-01 9.825291e+00 5.164671e-01 9.434550e+00 5.428885e-01 9.102722e+00 5.053426e-01 8.842639e+00 4.010614e-01 8.632810e+00 4.088876e-01 8.403653e+00 4.532059e-01 8.388893e+00 9.506595e-01 8.320643e+00 8.360125e-01 8.062786e+00 7.382778e-01 7.987219e+00 7.162633e-01 7.924580e+00 7.045082e-01 7.860366e+00 6.973402e-01 7.794571e+00 6.822023e-01 7.748895e+00 6.608636e-01 7.719137e+00 6.405172e-01 7.703733e+00 6.137479e-01 7.711030e+00 5.788264e-01 7.745270e+00 5.614161e-01 7.806145e+00 5.558159e-01 7.857785e+00 5.654074e-01 7.884622e+00 6.514363e-01 7.896085e+00 7.426939e-01 7.969138e+00 7.682160e-01 7.956801e+00 4.338577e-01 7.966688e+00 2.998822e-01 8.128101e+00 3.065351e-01 8.338126e+00 3.425015e-01 8.580499e+00 3.811967e-01 8.868857e+00 4.208139e-01 
9.250429e+00 4.500081e-01 9.716560e+00 4.601269e-01 1.032849e+01 4.708457e-01 9.847189e+00 5.223034e-01 9.449402e+00 5.603174e-01 9.106559e+00 5.327576e-01 8.832364e+00 4.243542e-01 8.611829e+00 4.034205e-01 8.369998e+00 4.560236e-01 8.377049e+00 9.522399e-01 8.242255e+00 7.429546e-01 7.985512e+00 6.634059e-01 7.937671e+00 6.532828e-01 7.876812e+00 6.471869e-01 7.806477e+00 6.380003e-01 7.733311e+00 6.183212e-01 7.683402e+00 5.898301e-01 7.652344e+00 5.642220e-01 7.632778e+00 5.349436e-01 7.630753e+00 4.936093e-01 7.657459e+00 4.703042e-01 7.711979e+00 4.597307e-01 7.759598e+00 4.525855e-01 7.806137e+00 5.366701e-01 7.830529e+00 7.619582e-01 7.907553e+00 7.058220e-01 7.875277e+00 3.101838e-01 7.944176e+00 2.299543e-01 8.142877e+00 2.777837e-01 8.363553e+00 3.306456e-01 8.606926e+00 3.749862e-01 8.894286e+00 4.168731e-01 
9.256834e+00 4.706040e-01 9.725323e+00 4.817524e-01 1.034178e+01 4.925372e-01 9.857104e+00 5.583797e-01 9.451230e+00 6.505028e-01 9.070536e+00 7.737018e-01 8.675981e+00 9.055499e-01 8.305827e+00 8.147341e-01 8.027863e+00 6.171777e-01 7.452603e+00 -2.706032e-01 7.068149e+00 -2.598891e-01 7.062185e+00 -2.701687e-01 6.874326e+00 -3.384330e-01 6.729536e+00 -4.055037e-01 6.645634e+00 -4.641995e-01 6.618358e+00 -5.039297e-01 6.602557e+00 -5.273742e-01 6.591471e+00 -5.446456e-01 6.581814e+00 -5.509823e-01 6.557387e+00 -5.526048e-01 6.510613e+00 -5.954224e-01 6.455701e+00 -6.579766e-01 6.476447e+00 -7.396001e-01 6.591638e+00 -9.242660e-01 6.795220e+00 -1.154854e+00 6.993983e+00 -1.071905e+00 7.456531e+00 -2.919253e-01 7.928364e+00 1.316460e-01 8.174830e+00 2.824811e-01 8.379682e+00 3.459906e-01 8.613996e+00 3.909604e-01 8.899690e+00 4.347615e-01 
9.254142e+00 4.660510e-01 9.717386e+00 4.776905e-01 1.032896e+01 4.884094e-01 9.845702e+00 5.623029e-01 9.438595e+00 6.834702e-01 9.039951e+00 8.858319e-01 8.582580e+00 1.140811e+00 8.132568e+00 1.006437e+00 7.826551e+00 6.329988e-01 6.883339e+00 -1.064946e+00 6.417500e+00 -8.593906e-01 6.587666e+00 -8.223800e-01 6.314249e+00 -9.133561e-01 6.132799e+00 -9.928288e-01 6.057889e+00 -1.048615e+00 6.073771e+00 -1.071417e+00 6.094114e+00 -1.069202e+00 6.107663e+00 -1.064186e+00 6.118079e+00 -1.045742e+00 6.101152e+00 -1.012822e+00 6.036656e+00 -1.044091e+00 5.947029e+00 -1.107863e+00 5.966000e+00 -1.189925e+00 6.108602e+00 -1.463240e+00 6.417374e+00 -1.900076e+00 6.685140e+00 -1.698075e+00 7.361725e+00 -4.660421e-01 7.958189e+00 1.176423e-01 8.204815e+00 2.886014e-01 8.395569e+00 3.473540e-01 8.621404e+00 3.881134e-01 8.901803e+00 4.301938e-01 
9.232826e+00 4.798807e-01 9.693987e+00 4.930495e-01 1.030079e+01 5.036231e-01 9.819442e+00 5.631954e-01 9.419523e+00 6.341943e-01 9.057620e+00 7.020902e-01 8.713810e+00 7.443543e-01 8.408271e+00 6.649067e-01 8.152235e+00 5.671262e-01 7.805269e+00 1.225374e-01 7.461380e+00 2.903455e-02 7.407470e+00 3.925474e-02 7.292154e+00 1.355954e-02 7.200937e+00 -3.501602e-03 7.144989e+00 -1.403167e-02 7.118572e+00 -1.506293e-02 7.106286e+00 -1.349665e-02 7.103855e+00 -9.767813e-03 7.106732e+00 -3.952031e-03 7.112410e+00 -4.473804e-03 7.127202e+00 -1.205566e-02 7.154688e+00 -2.203527e-02 7.212622e+00 -3.222178e-02 7.310543e+00 -1.040568e-02 7.420922e+00 1.213121e-01 7.543667e+00 8.862690e-02 7.663357e+00 7.653201e-02 7.901353e+00 1.885744e-01 8.133804e+00 2.834015e-01 8.354303e+00 3.468371e-01 8.594994e+00 3.961824e-01 8.879958e+00 4.423967e-01 