# vtk DataFile Version 2.0
Comment goes here
ASCII

DATASET STRUCTURED_POINTS
FIELD FieldData 1
TIME 1 1 double
0.04900000
DIMENSIONS    64   64   1

ORIGIN    0.000   0.000   0.000
SPACING   0.03125 0.03125   1.000

POINT_DATA   4096
SCALARS uX double
LOOKUP_TABLE default

-8.180344e-01 -1.256334e+00 -9.799458e-01 -1.463908e+00 -1.367725e+00 -1.450777e+00 -1.386198e+00 -1.281695e+00 -1.164290e+00 -1.050442e+00 -9.849741e-01 -8.800440e-01 -8.522973e-01 -7.565529e-01 -7.539574e-01 -6.633060e-01 -6.823105e-01 -5.868759e-01 -6.335411e-01 -5.239124e-01 -5.981011e-01 -4.750727e-01 -5.699351e-01 -4.417938e-01 -5.434579e-01 -4.206253e-01 -5.225925e-01 -4.033843e-01 -5.094099e-01 -3.902399e-01 -4.979938e-01 -3.865584e-01 -4.816316e-01 -3.962950e-01 -4.597399e-01 -4.141521e-01 -4.397972e-01 -4.315554e-01 -4.277052e-01 -4.478801e-01 -4.205274e-01 -4.661055e-01 -4.183332e-01 -4.839411e-01 -4.252235e-01 -4.974946e-01 -4.458741e-01 -5.049572e-01 -4.809176e-01 -5.095146e-01 -5.251894e-01 -5.194642e-01 -5.711213e-01 -5.449766e-01 -6.125780e-01 -5.901430e-01 -6.518633e-01 -6.559539e-01 -6.896333e-01 -7.509060e-01 -7.232198e-01 -8.818329e-01 -7.633423e-01 -1.047494e+00 
-1.541268e-01 3.087262e-01 8.669715e-02 6.145521e-01 6.273937e-01 6.060323e-01 6.399992e-01 3.852147e-01 2.963507e-01 7.188073e-02 2.045603e-02 -1.627633e-01 -1.824222e-01 -3.359407e-01 -3.338159e-01 -4.672904e-01 -4.485194e-01 -5.711313e-01 -5.342882e-01 -6.526283e-01 -5.996953e-01 -7.142184e-01 -6.499407e-01 -7.577784e-01 -6.903836e-01 -7.879666e-01 -7.198355e-01 -8.117565e-01 -7.388147e-01 -8.298073e-01 -7.522609e-01 -8.397522e-01 -7.650106e-01 -8.390587e-01 -7.787911e-01 -8.307660e-01 -7.893505e-01 -8.199857e-01 -7.931415e-01 -8.070059e-01 -7.919388e-01 -7.896230e-01 -7.855119e-01 -7.682451e-01 -7.716395e-01 -7.444299e-01 -7.469212e-01 -7.189913e-01 -7.101072e-01 -6.896133e-01 -6.641167e-01 -6.513005e-01 -6.128516e-01 -5.975245e-01 -5.594497e-01 -5.256850e-01 -5.006955e-01 -4.344300e-01 -4.343925e-01 -3.155320e-01 -3.601147e-01 -1.602735e-01 -2.654024e-01 3.629449e-02 
2.203723e+00 1.525072e+00 1.823672e+00 1.014356e+00 9.761686e-01 1.011342e+00 9.760131e-01 1.334357e+00 1.568865e+00 1.814750e+00 2.034856e+00 2.187000e+00 2.371264e+00 2.468120e+00 2.622168e+00 2.684066e+00 2.816368e+00 2.848234e+00 2.971732e+00 2.971587e+00 3.092039e+00 3.063699e+00 3.181873e+00 3.133837e+00 3.244479e+00 3.186723e+00 3.290074e+00 3.221435e+00 3.325931e+00 3.242724e+00 3.351100e+00 3.258072e+00 3.362617e+00 3.272773e+00 3.361297e+00 3.283649e+00 3.353959e+00 3.284010e+00 3.345070e+00 3.273626e+00 3.331042e+00 3.254544e+00 3.310529e+00 3.223868e+00 3.284898e+00 3.176848e+00 3.256426e+00 3.109374e+00 3.224888e+00 3.021121e+00 3.185899e+00 2.915710e+00 3.133333e+00 2.798378e+00 3.061419e+00 2.667767e+00 2.970060e+00 2.517403e+00 2.854040e+00 2.344258e+00 2.699382e+00 2.140046e+00 2.491747e+00 1.889403e+00 
4.383348e+00 2.621108e+00 3.455169e+00 1.443561e+00 1.374649e+00 1.430018e+00 1.366812e+00 1.938381e+00 2.408502e+00 2.989204e+00 3.391686e+00 3.829126e+00 4.135123e+00 4.466943e+00 4.706275e+00 4.965636e+00 5.157544e+00 5.364699e+00 5.517222e+00 5.682351e+00 5.801893e+00 5.929058e+00 6.023855e+00 6.115547e+00 6.196754e+00 6.254789e+00 6.328273e+00 6.360793e+00 6.425569e+00 6.440727e+00 6.497818e+00 6.497189e+00 6.552725e+00 6.530900e+00 6.594596e+00 6.545118e+00 6.622657e+00 6.543405e+00 6.636020e+00 6.524659e+00 6.636682e+00 6.485657e+00 6.623368e+00 6.424801e+00 6.592290e+00 6.340254e+00 6.538291e+00 6.228960e+00 6.457802e+00 6.085855e+00 6.350742e+00 5.905321e+00 6.218611e+00 5.681901e+00 6.062423e+00 5.411125e+00 5.874705e+00 5.084942e+00 5.642607e+00 4.683534e+00 5.347021e+00 4.177029e+00 4.946633e+00 3.524439e+00 
4.435858e+00 2.776975e+00 3.592314e+00 1.993882e+00 1.924700e+00 1.979998e+00 1.920427e+00 2.132343e+00 2.460734e+00 2.928221e+00 3.292517e+00 3.695141e+00 3.995112e+00 4.316247e+00 4.560046e+00 4.819008e+00 5.019217e+00 5.229065e+00 5.394163e+00 5.559834e+00 5.695082e+00 5.818676e+00 5.931331e+00 6.016214e+00 6.115016e+00 6.165183e+00 6.255308e+00 6.278375e+00 6.360494e+00 6.363474e+00 6.439069e+00 6.424353e+00 6.498066e+00 6.462833e+00 6.541847e+00 6.481390e+00 6.571334e+00 6.482557e+00 6.586531e+00 6.466128e+00 6.588391e+00 6.430282e+00 6.575855e+00 6.373218e+00 6.546490e+00 6.291930e+00 6.496935e+00 6.182205e+00 6.424019e+00 6.039024e+00 6.325566e+00 5.857487e+00 6.200405e+00 5.632246e+00 6.047687e+00 5.359546e+00 5.862281e+00 5.033413e+00 5.633990e+00 4.639550e+00 5.344787e+00 4.155133e+00 4.963569e+00 3.541121e+00 
4.709699e+00 3.069962e+00 3.947168e+00 2.500945e+00 2.436128e+00 2.488102e+00 2.436766e+00 2.605563e+00 2.838622e+00 3.260666e+00 3.592429e+00 3.976523e+00 4.259999e+00 4.568388e+00 4.798809e+00 5.050819e+00 5.236957e+00 5.446673e+00 5.596960e+00 5.765242e+00 5.882696e+00 6.010749e+00 6.104205e+00 6.195523e+00 6.274990e+00 6.333549e+00 6.405859e+00 6.437214e+00 6.505199e+00 6.514728e+00 6.580050e+00 6.570629e+00 6.636091e+00 6.607075e+00 6.677437e+00 6.625550e+00 6.705974e+00 6.626999e+00 6.722339e+00 6.611046e+00 6.726614e+00 6.576442e+00 6.716899e+00 6.521450e+00 6.689460e+00 6.443049e+00 6.639676e+00 6.336425e+00 6.563798e+00 6.195344e+00 6.460769e+00 6.014504e+00 6.332329e+00 5.793377e+00 6.181850e+00 5.529604e+00 6.006154e+00 5.214908e+00 5.794927e+00 4.833853e+00 5.530226e+00 4.365294e+00 5.182503e+00 3.781989e+00 
4.811556e+00 3.290004e+00 4.165081e+00 3.009656e+00 2.944733e+00 2.995971e+00 2.945992e+00 2.950255e+00 3.068839e+00 3.371517e+00 3.647252e+00 3.975890e+00 4.234195e+00 4.512283e+00 4.731564e+00 4.967546e+00 5.150314e+00 5.351996e+00 5.507064e+00 5.667050e+00 5.791440e+00 5.907706e+00 6.009868e+00 6.087072e+00 6.176484e+00 6.220766e+00 6.303069e+00 6.321825e+00 6.398569e+00 6.398362e+00 6.470216e+00 6.454286e+00 6.523894e+00 6.491092e+00 6.563710e+00 6.509799e+00 6.591565e+00 6.511430e+00 6.607872e+00 6.496426e+00 6.612150e+00 6.464412e+00 6.602679e+00 6.413725e+00 6.576871e+00 6.340514e+00 6.531589e+00 6.238760e+00 6.463551e+00 6.102121e+00 6.369643e+00 5.926930e+00 6.248859e+00 5.709680e+00 6.103193e+00 5.450687e+00 5.934012e+00 5.147377e+00 5.736642e+00 4.789734e+00 5.499332e+00 4.361985e+00 5.203261e+00 3.849586e+00 
5.104273e+00 3.615224e+00 4.511606e+00 3.478968e+00 3.417093e+00 3.465114e+00 3.418801e+00 3.441699e+00 3.494168e+00 3.750980e+00 3.983174e+00 4.286912e+00 4.522185e+00 4.782671e+00 4.986123e+00 5.213381e+00 5.380484e+00 5.585949e+00 5.728310e+00 5.892095e+00 5.996485e+00 6.116128e+00 6.195668e+00 6.278075e+00 6.346022e+00 6.396397e+00 6.461162e+00 6.484884e+00 6.549343e+00 6.552081e+00 6.615832e+00 6.602440e+00 6.664963e+00 6.637394e+00 6.700764e+00 6.656810e+00 6.726015e+00 6.660112e+00 6.742225e+00 6.646757e+00 6.749246e+00 6.616493e+00 6.744420e+00 6.568230e+00 6.723013e+00 6.498415e+00 6.678927e+00 6.400471e+00 6.606240e+00 6.265156e+00 6.502985e+00 6.083626e+00 6.372556e+00 5.866709e+00 6.228896e+00 5.618683e+00 6.073181e+00 5.332355e+00 5.897635e+00 4.994645e+00 5.690514e+00 4.590294e+00 5.436991e+00 4.110171e+00 
5.262655e+00 3.898419e+00 4.753866e+00 3.945297e+00 3.885374e+00 3.931322e+00 3.887263e+00 3.839206e+00 3.808619e+00 3.959072e+00 4.131898e+00 4.369896e+00 4.576520e+00 4.793480e+00 4.983171e+00 5.187275e+00 5.344379e+00 5.545350e+00 5.693250e+00 5.849379e+00 5.953899e+00 6.058377e+00 6.139934e+00 6.203753e+00 6.277511e+00 6.308929e+00 6.381377e+00 6.389501e+00 6.459924e+00 6.453320e+00 6.518679e+00 6.502642e+00 6.562775e+00 6.536704e+00 6.596514e+00 6.554557e+00 6.622088e+00 6.556235e+00 6.639769e+00 6.542994e+00 6.648000e+00 6.516385e+00 6.643995e+00 6.475820e+00 6.624604e+00 6.416649e+00 6.586420e+00 6.329185e+00 6.525828e+00 6.202568e+00 6.437192e+00 6.036765e+00 6.318452e+00 5.827057e+00 6.178039e+00 5.584636e+00 6.029168e+00 5.314636e+00 5.873543e+00 5.009471e+00 5.704579e+00 4.656673e+00 5.512770e+00 4.255258e+00 
5.545253e+00 4.245033e+00 5.069318e+00 4.375081e+00 4.319412e+00 4.361605e+00 4.321165e+00 4.305499e+00 4.245211e+00 4.358312e+00 4.487879e+00 4.694540e+00 4.877422e+00 5.066584e+00 5.244378e+00 5.434184e+00 5.571170e+00 5.790931e+00 5.938856e+00 6.100919e+00 6.179429e+00 6.284123e+00 6.336274e+00 6.404801e+00 6.452554e+00 6.489493e+00 6.543661e+00 6.554115e+00 6.615344e+00 6.606456e+00 6.669056e+00 6.649799e+00 6.707190e+00 6.683375e+00 6.734622e+00 6.704307e+00 6.755049e+00 6.709994e+00 6.771230e+00 6.699446e+00 6.783585e+00 6.674552e+00 6.788269e+00 6.636536e+00 6.778803e+00 6.581993e+00 6.746015e+00 6.502389e+00 6.678201e+00 6.382072e+00 6.571903e+00 6.189045e+00 6.426059e+00 5.971288e+00 6.288338e+00 5.745764e+00 6.160422e+00 5.500847e+00 6.032474e+00 5.222247e+00 5.896984e+00 4.897860e+00 5.747829e+00 4.532735e+00 
5.706833e+00 4.566579e+00 5.298192e+00 4.799068e+00 4.748076e+00 4.786550e+00 4.749677e+00 4.705437e+00 4.593894e+00 4.621561e+00 4.692768e+00 4.828922e+00 4.983158e+00 5.112237e+00 5.282722e+00 5.441696e+00 5.552315e+00 5.794474e+00 5.969122e+00 6.126796e+00 6.190587e+00 6.272391e+00 6.317785e+00 6.360569e+00 6.411672e+00 6.421706e+00 6.484646e+00 6.473848e+00 6.540967e+00 6.522525e+00 6.581872e+00 6.565945e+00 6.612098e+00 6.598299e+00 6.637506e+00 6.615473e+00 6.660426e+00 6.616157e+00 6.680995e+00 6.603223e+00 6.695995e+00 6.582621e+00 6.700664e+00 6.556860e+00 6.691089e+00 6.521594e+00 6.663290e+00 6.459682e+00 6.615273e+00 6.343251e+00 6.534753e+00 6.190134e+00 6.410333e+00 5.976551e+00 6.262100e+00 5.745870e+00 6.132111e+00 5.517179e+00 6.025016e+00 5.277660e+00 5.931455e+00 5.011284e+00 5.842727e+00 4.727395e+00 
5.958759e+00 4.926079e+00 5.579452e+00 5.189481e+00 5.144380e+00 5.178205e+00 5.145661e+00 5.128697e+00 5.014179e+00 5.018869e+00 5.051923e+00 5.153683e+00 5.286876e+00 5.365327e+00 5.543182e+00 5.667065e+00 5.725017e+00 6.040498e+00 6.271834e+00 6.433280e+00 6.445414e+00 6.514919e+00 6.517664e+00 6.567904e+00 6.584451e+00 6.602888e+00 6.645767e+00 6.635708e+00 6.699458e+00 6.669854e+00 6.737893e+00 6.706960e+00 6.760094e+00 6.742042e+00 6.775430e+00 6.767159e+00 6.788304e+00 6.776222e+00 6.804138e+00 6.766469e+00 6.825649e+00 6.745556e+00 6.846232e+00 6.720966e+00 6.857762e+00 6.690206e+00 6.847307e+00 6.645681e+00 6.786308e+00 6.572986e+00 6.680366e+00 6.319744e+00 6.472501e+00 6.081860e+00 6.340139e+00 5.889995e+00 6.249744e+00 5.701183e+00 6.176990e+00 5.495448e+00 6.116200e+00 5.261802e+00 6.063457e+00 5.018640e+00 
6.098163e+00 5.266022e+00 5.788908e+00 5.572097e+00 5.534038e+00 5.562588e+00 5.534970e+00 5.505691e+00 5.363954e+00 5.306023e+00 5.281994e+00 5.315350e+00 5.417854e+00 5.407905e+00 5.601425e+00 5.672435e+00 5.637540e+00 6.067697e+00 6.420556e+00 6.569966e+00 6.510477e+00 6.537213e+00 6.525532e+00 6.542577e+00 6.565256e+00 6.542903e+00 6.603841e+00 6.561413e+00 6.637280e+00 6.596526e+00 6.655961e+00 6.639764e+00 6.666445e+00 6.674642e+00 6.681129e+00 6.692820e+00 6.701062e+00 6.690014e+00 6.727676e+00 6.671497e+00 6.754286e+00 6.654275e+00 6.771665e+00 6.647578e+00 6.776101e+00 6.653352e+00 6.760474e+00 6.645185e+00 6.735423e+00 6.524434e+00 6.677421e+00 6.401435e+00 6.529527e+00 6.141041e+00 6.330013e+00 5.903350e+00 6.214580e+00 5.729423e+00 6.165426e+00 5.573011e+00 6.150084e+00 5.404998e+00 6.152382e+00 5.245970e+00 
6.312368e+00 5.626149e+00 6.041532e+00 5.923871e+00 5.893043e+00 5.916083e+00 5.893620e+00 5.882313e+00 5.749957e+00 5.686954e+00 5.626434e+00 5.640235e+00 5.704010e+00 5.643991e+00 5.839373e+00 5.841115e+00 5.677959e+00 6.238239e+00 6.783722e+00 6.918399e+00 6.734043e+00 6.723940e+00 6.676501e+00 6.724670e+00 6.707614e+00 6.705220e+00 6.747343e+00 6.708809e+00 6.793633e+00 6.726650e+00 6.819561e+00 6.764260e+00 6.817895e+00 6.809445e+00 6.817642e+00 6.845456e+00 6.818206e+00 6.860933e+00 6.831664e+00 6.844197e+00 6.868970e+00 6.819517e+00 6.913636e+00 6.810025e+00 6.959850e+00 6.809590e+00 6.998411e+00 6.820390e+00 6.929989e+00 6.939591e+00 6.892497e+00 6.440012e+00 6.460648e+00 6.148078e+00 6.358904e+00 6.026765e+00 6.324088e+00 5.915083e+00 6.311422e+00 5.796690e+00 6.322158e+00 5.663362e+00 6.349383e+00 5.547582e+00 
6.422670e+00 5.964821e+00 6.233739e+00 6.266366e+00 6.244245e+00 6.260789e+00 6.244391e+00 6.224789e+00 6.080250e+00 5.977352e+00 5.854014e+00 5.835455e+00 5.787506e+00 5.752143e+00 5.798447e+00 5.740495e+00 5.657544e+00 6.081318e+00 6.565849e+00 6.655101e+00 6.399400e+00 6.386453e+00 6.458800e+00 6.485408e+00 6.555409e+00 6.486771e+00 6.612584e+00 6.530729e+00 6.660265e+00 6.599857e+00 6.673074e+00 6.680472e+00 6.673883e+00 6.736823e+00 6.694429e+00 6.765893e+00 6.723468e+00 6.759562e+00 6.770717e+00 6.725253e+00 6.820716e+00 6.708555e+00 6.855825e+00 6.722950e+00 6.888464e+00 6.787541e+00 6.896305e+00 6.920355e+00 6.854188e+00 6.820243e+00 6.891899e+00 6.603656e+00 6.535763e+00 6.182531e+00 6.272276e+00 5.981937e+00 6.231306e+00 5.922944e+00 6.274815e+00 5.881360e+00 6.342289e+00 5.824889e+00 6.419305e+00 5.794873e+00 
6.601112e+00 6.310713e+00 6.463369e+00 6.580388e+00 6.566238e+00 6.576694e+00 6.566108e+00 6.555835e+00 6.425509e+00 6.331905e+00 6.170103e+00 6.192834e+00 5.970907e+00 6.166304e+00 5.844982e+00 5.738544e+00 6.018268e+00 5.360210e+00 4.622699e+00 4.338613e+00 4.607496e+00 4.807237e+00 5.088840e+00 5.192012e+00 5.421438e+00 5.473739e+00 5.692158e+00 5.728614e+00 5.904494e+00 5.944878e+00 6.070590e+00 6.132959e+00 6.193077e+00 6.288101e+00 6.333470e+00 6.388334e+00 6.472200e+00 6.455878e+00 6.606428e+00 6.491870e+00 6.747200e+00 6.549985e+00 6.859779e+00 6.679319e+00 6.956498e+00 6.907495e+00 7.084493e+00 7.162776e+00 7.255343e+00 7.480514e+00 7.833671e+00 7.339138e+00 7.092758e+00 6.566972e+00 6.532861e+00 6.216229e+00 6.392153e+00 6.137349e+00 6.422182e+00 6.115519e+00 6.499190e+00 6.089832e+00 6.588476e+00 6.101036e+00 
6.686481e+00 6.630876e+00 6.640989e+00 6.884017e+00 6.879468e+00 6.882642e+00 6.879017e+00 6.858000e+00 6.730707e+00 6.606778e+00 6.405239e+00 6.396521e+00 6.042845e+00 6.339783e+00 5.597041e+00 5.570970e+00 5.748434e+00 3.334847e+00 1.546765e+00 1.095536e+00 1.850813e+00 1.685602e+00 1.752659e+00 1.716233e+00 1.806594e+00 2.060415e+00 1.951039e+00 2.257293e+00 2.114793e+00 2.351418e+00 2.339267e+00 2.372477e+00 2.587595e+00 2.400376e+00 2.757807e+00 2.493115e+00 2.880142e+00 2.660414e+00 2.955375e+00 2.887479e+00 3.008479e+00 3.079297e+00 3.109506e+00 3.196749e+00 3.272743e+00 3.254755e+00 3.537793e+00 3.327912e+00 3.866290e+00 3.813892e+00 4.393109e+00 4.495285e+00 5.144542e+00 5.316367e+00 5.806758e+00 5.853714e+00 6.166146e+00 6.099341e+00 6.362145e+00 6.208354e+00 6.507999e+00 6.266356e+00 6.638365e+00 6.357841e+00 
6.836047e+00 6.948641e+00 6.850773e+00 7.161047e+00 7.164571e+00 7.161477e+00 7.163868e+00 7.146487e+00 7.034900e+00 6.924632e+00 6.722095e+00 6.697126e+00 6.415974e+00 6.555367e+00 6.156854e+00 6.015432e+00 6.173453e+00 5.062250e+00 4.064737e+00 3.287961e+00 3.360118e+00 3.007090e+00 2.861028e+00 2.624638e+00 2.414041e+00 2.493907e+00 2.091579e+00 2.318511e+00 1.857721e+00 2.090685e+00 1.763603e+00 1.797744e+00 1.783381e+00 1.530629e+00 1.739086e+00 1.371589e+00 1.655156e+00 1.339264e+00 1.498768e+00 1.451247e+00 1.261975e+00 1.530755e+00 1.070930e+00 1.440967e+00 9.435965e-01 1.150953e+00 8.767564e-01 7.977780e-01 1.152059e+00 4.552605e-01 7.410617e-01 2.271189e+00 3.716589e+00 4.760770e+00 5.488437e+00 5.879976e+00 6.190399e+00 6.285600e+00 6.475478e+00 6.443949e+00 6.643810e+00 6.533111e+00 6.779865e+00 6.659470e+00 
6.905015e+00 7.237634e+00 7.014635e+00 7.426865e+00 7.440157e+00 7.429485e+00 7.439368e+00 7.408576e+00 7.315516e+00 7.176231e+00 7.006376e+00 6.865732e+00 6.779021e+00 6.564943e+00 6.666866e+00 6.441867e+00 6.292135e+00 6.995530e+00 7.434060e+00 7.249882e+00 6.911086e+00 6.824428e+00 6.765341e+00 6.653768e+00 6.479268e+00 6.359336e+00 6.181796e+00 6.124902e+00 5.922615e+00 5.897961e+00 5.709293e+00 5.678431e+00 5.522631e+00 5.483294e+00 5.366009e+00 5.309410e+00 5.204552e+00 5.181378e+00 5.019200e+00 5.088890e+00 4.829894e+00 4.999842e+00 4.644311e+00 4.887334e+00 4.469260e+00 4.702081e+00 4.339862e+00 4.416150e+00 4.328488e+00 4.453513e+00 4.077081e+00 4.627403e+00 4.877487e+00 5.511184e+00 5.745606e+00 6.117075e+00 6.226723e+00 6.420003e+00 6.481855e+00 6.591702e+00 6.662127e+00 6.728898e+00 6.816702e+00 6.915917e+00 
7.034065e+00 7.517113e+00 7.204951e+00 7.667389e+00 7.688434e+00 7.671603e+00 7.687841e+00 7.647992e+00 7.586920e+00 7.431841e+00 7.315675e+00 7.099585e+00 7.113665e+00 6.793572e+00 6.900542e+00 6.860212e+00 6.408205e+00 6.820894e+00 7.393818e+00 7.755016e+00 7.547546e+00 7.462065e+00 7.393509e+00 7.354170e+00 7.340661e+00 7.229245e+00 7.273168e+00 7.164856e+00 7.206298e+00 7.146472e+00 7.119584e+00 7.156021e+00 7.034610e+00 7.149568e+00 6.993441e+00 7.119528e+00 6.972899e+00 7.067458e+00 6.973454e+00 6.997974e+00 6.982242e+00 6.966403e+00 6.968652e+00 6.999514e+00 6.955471e+00 7.112191e+00 6.985072e+00 7.272388e+00 7.011163e+00 7.405086e+00 7.377016e+00 7.207119e+00 6.747225e+00 6.719073e+00 6.483904e+00 6.632072e+00 6.527649e+00 6.722785e+00 6.655499e+00 6.850030e+00 6.798218e+00 6.993480e+00 6.938348e+00 7.201680e+00 
7.092832e+00 7.766711e+00 7.353236e+00 7.896098e+00 7.926475e+00 7.902275e+00 7.925863e+00 7.874200e+00 7.829425e+00 7.669481e+00 7.553279e+00 7.353063e+00 7.302577e+00 7.096317e+00 7.127840e+00 7.054659e+00 6.919939e+00 7.196001e+00 7.379859e+00 7.368414e+00 7.207578e+00 7.210614e+00 7.135246e+00 7.128505e+00 7.091382e+00 7.042218e+00 7.066679e+00 6.991262e+00 7.043133e+00 6.973916e+00 7.001989e+00 6.985554e+00 6.951134e+00 7.005592e+00 6.918476e+00 7.015160e+00 6.906637e+00 7.003681e+00 6.922513e+00 6.973676e+00 6.960954e+00 6.960036e+00 7.002274e+00 6.987069e+00 7.045642e+00 7.078329e+00 7.075932e+00 7.261949e+00 7.092969e+00 7.268039e+00 7.244071e+00 7.243097e+00 6.903347e+00 6.907774e+00 6.620814e+00 6.793191e+00 6.591992e+00 6.865271e+00 6.685297e+00 7.007976e+00 6.820158e+00 7.189694e+00 6.965247e+00 7.442782e+00 
7.205129e+00 8.002059e+00 7.521705e+00 8.100356e+00 8.137660e+00 8.107888e+00 8.137096e+00 8.078333e+00 8.050880e+00 7.895945e+00 7.792126e+00 7.595982e+00 7.521147e+00 7.352845e+00 7.309803e+00 7.256969e+00 7.159010e+00 7.269932e+00 7.385125e+00 7.476931e+00 7.406366e+00 7.402337e+00 7.336881e+00 7.322547e+00 7.279119e+00 7.236989e+00 7.227702e+00 7.171213e+00 7.184901e+00 7.132180e+00 7.138139e+00 7.121776e+00 7.087925e+00 7.124579e+00 7.051243e+00 7.129801e+00 7.029504e+00 7.127427e+00 7.032140e+00 7.112781e+00 7.060996e+00 7.108584e+00 7.103582e+00 7.134385e+00 7.155650e+00 7.196504e+00 7.198444e+00 7.302300e+00 7.161022e+00 7.410340e+00 7.207118e+00 7.191499e+00 6.880350e+00 7.007094e+00 6.748668e+00 7.001558e+00 6.750124e+00 7.090776e+00 6.822721e+00 7.236772e+00 6.935406e+00 7.431296e+00 7.065844e+00 7.698411e+00 
7.255384e+00 8.208903e+00 7.650894e+00 8.292370e+00 8.338181e+00 8.301606e+00 8.337578e+00 8.270004e+00 8.253378e+00 8.099204e+00 7.999538e+00 7.801348e+00 7.715640e+00 7.549149e+00 7.498998e+00 7.421897e+00 7.358816e+00 7.399067e+00 7.397098e+00 7.400745e+00 7.334398e+00 7.322819e+00 7.264747e+00 7.240363e+00 7.202708e+00 7.162595e+00 7.150557e+00 7.104678e+00 7.103248e+00 7.069989e+00 7.056008e+00 7.055381e+00 7.012237e+00 7.051730e+00 6.981020e+00 7.049511e+00 6.966444e+00 7.043973e+00 6.970612e+00 7.038358e+00 6.990406e+00 7.046646e+00 7.017503e+00 7.081684e+00 7.045909e+00 7.150179e+00 7.067577e+00 7.238385e+00 7.080317e+00 7.269956e+00 7.085488e+00 7.251720e+00 6.958326e+00 7.159527e+00 6.830832e+00 7.140465e+00 6.798263e+00 7.224127e+00 6.848270e+00 7.385937e+00 6.950712e+00 7.612683e+00 7.082507e+00 7.911469e+00 
7.351670e+00 8.398781e+00 7.794363e+00 8.460480e+00 8.512155e+00 8.470839e+00 8.511566e+00 8.438808e+00 8.431461e+00 8.284851e+00 8.192447e+00 8.000971e+00 7.900842e+00 7.743784e+00 7.666773e+00 7.584700e+00 7.520276e+00 7.517812e+00 7.507343e+00 7.522697e+00 7.476095e+00 7.468764e+00 7.415448e+00 7.395811e+00 7.351180e+00 7.319519e+00 7.290116e+00 7.254504e+00 7.234742e+00 7.208135e+00 7.182934e+00 7.181685e+00 7.136038e+00 7.169243e+00 7.100173e+00 7.164285e+00 7.078620e+00 7.161745e+00 7.074772e+00 7.161266e+00 7.088098e+00 7.171669e+00 7.112197e+00 7.201747e+00 7.139178e+00 7.253444e+00 7.155393e+00 7.318025e+00 7.142121e+00 7.359930e+00 7.113942e+00 7.306171e+00 6.991487e+00 7.256399e+00 6.911922e+00 7.286943e+00 6.901597e+00 7.396935e+00 6.949369e+00 7.575499e+00 7.040162e+00 7.819415e+00 7.162413e+00 8.127102e+00 
7.391833e+00 8.562800e+00 7.900662e+00 8.616059e+00 8.675186e+00 8.627865e+00 8.674585e+00 8.594159e+00 8.594689e+00 8.447319e+00 8.360024e+00 8.160916e+00 8.054450e+00 7.883115e+00 7.796459e+00 7.689713e+00 7.617766e+00 7.574672e+00 7.526811e+00 7.502932e+00 7.448669e+00 7.423264e+00 7.369063e+00 7.337355e+00 7.292463e+00 7.256156e+00 7.222905e+00 7.189526e+00 7.160832e+00 7.141871e+00 7.105888e+00 7.112111e+00 7.059866e+00 7.095483e+00 7.026285e+00 7.086800e+00 7.007405e+00 7.083501e+00 7.003458e+00 7.087585e+00 7.011918e+00 7.105357e+00 7.027986e+00 7.142792e+00 7.046420e+00 7.200526e+00 7.061623e+00 7.266339e+00 7.069288e+00 7.312398e+00 7.059156e+00 7.335030e+00 7.003596e+00 7.339764e+00 6.940840e+00 7.384556e+00 6.921448e+00 7.503444e+00 6.958112e+00 7.700793e+00 7.042287e+00 7.973377e+00 7.167804e+00 8.303120e+00 
7.471653e+00 8.708721e+00 8.016663e+00 8.748124e+00 8.811869e+00 8.760819e+00 8.811266e+00 8.727239e+00 8.732548e+00 8.591399e+00 8.510049e+00 8.315946e+00 8.203564e+00 8.032960e+00 7.934870e+00 7.823630e+00 7.747588e+00 7.693246e+00 7.646057e+00 7.627450e+00 7.577490e+00 7.555894e+00 7.499804e+00 7.472919e+00 7.421297e+00 7.390794e+00 7.347418e+00 7.319235e+00 7.280998e+00 7.264639e+00 7.222419e+00 7.228169e+00 7.172721e+00 7.206722e+00 7.134578e+00 7.196259e+00 7.110185e+00 7.193480e+00 7.100651e+00 7.198267e+00 7.104616e+00 7.214647e+00 7.117991e+00 7.246955e+00 7.134303e+00 7.295883e+00 7.143911e+00 7.354282e+00 7.137987e+00 7.400593e+00 7.115710e+00 7.415376e+00 7.054511e+00 7.429317e+00 7.002398e+00 7.495233e+00 6.992876e+00 7.634504e+00 7.030637e+00 7.850091e+00 7.108737e+00 8.139682e+00 7.229576e+00 8.474048e+00 
7.499058e+00 8.831291e+00 8.097118e+00 8.867472e+00 8.937419e+00 8.881358e+00 8.936823e+00 8.845853e+00 8.857000e+00 8.712323e+00 8.635892e+00 8.430237e+00 8.312617e+00 8.123253e+00 8.012185e+00 7.879577e+00 7.789134e+00 7.707293e+00 7.644779e+00 7.613266e+00 7.564075e+00 7.529662e+00 7.469914e+00 7.429395e+00 7.374961e+00 7.335010e+00 7.287762e+00 7.255323e+00 7.211429e+00 7.195843e+00 7.147003e+00 7.155765e+00 7.095115e+00 7.131332e+00 7.056863e+00 7.118777e+00 7.033335e+00 7.115753e+00 7.023676e+00 7.123214e+00 7.025538e+00 7.144505e+00 7.036105e+00 7.183441e+00 7.051303e+00 7.241607e+00 7.065993e+00 7.312413e+00 7.078064e+00 7.377514e+00 7.079201e+00 7.438334e+00 7.053281e+00 7.481638e+00 7.004278e+00 7.555576e+00 6.986325e+00 7.705175e+00 7.018432e+00 7.940830e+00 7.095121e+00 8.256810e+00 7.223207e+00 8.607660e+00 
7.562021e+00 8.935721e+00 8.184430e+00 8.963604e+00 9.036751e+00 8.978127e+00 9.036152e+00 8.943034e+00 8.956477e+00 8.815772e+00 8.744646e+00 8.541133e+00 8.423581e+00 8.231743e+00 8.115505e+00 7.982953e+00 7.888574e+00 7.803610e+00 7.750823e+00 7.737469e+00 7.687755e+00 7.654265e+00 7.585275e+00 7.549020e+00 7.487130e+00 7.451354e+00 7.397464e+00 7.366996e+00 7.319374e+00 7.303212e+00 7.252788e+00 7.259900e+00 7.197603e+00 7.233392e+00 7.155099e+00 7.220517e+00 7.126930e+00 7.217415e+00 7.113161e+00 7.223411e+00 7.111789e+00 7.241536e+00 7.120877e+00 7.275412e+00 7.136308e+00 7.328489e+00 7.148382e+00 7.401683e+00 7.150779e+00 7.471160e+00 7.156812e+00 7.525755e+00 7.107832e+00 7.552331e+00 7.048774e+00 7.632557e+00 7.034587e+00 7.797845e+00 7.069400e+00 8.049987e+00 7.143734e+00 8.380291e+00 7.270412e+00 8.732672e+00 
7.574740e+00 9.018517e+00 8.237473e+00 9.046910e+00 9.124821e+00 9.062357e+00 9.124242e+00 9.025410e+00 9.042935e+00 8.896372e+00 8.830265e+00 8.610213e+00 8.490844e+00 8.276811e+00 8.141964e+00 7.995984e+00 7.880875e+00 7.761306e+00 7.699772e+00 7.714575e+00 7.693517e+00 7.652826e+00 7.571378e+00 7.515403e+00 7.449606e+00 7.399056e+00 7.341753e+00 7.300843e+00 7.250197e+00 7.230409e+00 7.175653e+00 7.183826e+00 7.116754e+00 7.155361e+00 7.072700e+00 7.141328e+00 7.045310e+00 7.137642e+00 7.032239e+00 7.145105e+00 7.030317e+00 7.166113e+00 7.039654e+00 7.204863e+00 7.057308e+00 7.269647e+00 7.074020e+00 7.363853e+00 7.098114e+00 7.447372e+00 7.126993e+00 7.559555e+00 7.125393e+00 7.593219e+00 7.034694e+00 7.652736e+00 6.998664e+00 7.823584e+00 7.032952e+00 8.098174e+00 7.113938e+00 8.454425e+00 7.252850e+00 8.821452e+00 
7.621278e+00 9.083705e+00 8.296064e+00 9.107221e+00 9.186746e+00 9.123020e+00 9.186159e+00 9.087165e+00 9.104697e+00 8.960958e+00 8.899022e+00 8.676678e+00 8.564600e+00 8.341962e+00 8.203121e+00 8.069104e+00 7.940876e+00 7.801514e+00 7.778342e+00 7.861843e+00 7.835027e+00 7.773295e+00 7.666171e+00 7.617167e+00 7.544591e+00 7.498389e+00 7.436042e+00 7.394144e+00 7.346132e+00 7.321434e+00 7.271464e+00 7.274981e+00 7.209527e+00 7.246548e+00 7.161116e+00 7.234952e+00 7.129268e+00 7.232001e+00 7.113325e+00 7.236159e+00 7.108541e+00 7.252493e+00 7.117506e+00 7.284510e+00 7.141809e+00 7.340874e+00 7.162170e+00 7.452961e+00 7.159593e+00 7.555173e+00 7.253246e+00 7.663830e+00 7.171066e+00 7.622669e+00 7.049193e+00 7.687669e+00 7.024424e+00 7.877813e+00 7.067460e+00 8.167850e+00 7.150223e+00 8.534608e+00 7.289462e+00 8.901164e+00 
7.619327e+00 9.128314e+00 8.321595e+00 9.154676e+00 9.237323e+00 9.171101e+00 9.236721e+00 9.135050e+00 9.153043e+00 9.004220e+00 8.947396e+00 8.699878e+00 8.600045e+00 8.345481e+00 8.171900e+00 8.056268e+00 7.890298e+00 7.639747e+00 7.581597e+00 7.812010e+00 7.922342e+00 7.842331e+00 7.668629e+00 7.576322e+00 7.508023e+00 7.442262e+00 7.377277e+00 7.316735e+00 7.269503e+00 7.239663e+00 7.186035e+00 7.192130e+00 7.120996e+00 7.162831e+00 7.069629e+00 7.150536e+00 7.040927e+00 7.144607e+00 7.027355e+00 7.149286e+00 7.021056e+00 7.165747e+00 7.031331e+00 7.196439e+00 7.059253e+00 7.265092e+00 7.069126e+00 7.420161e+00 7.111581e+00 7.484194e+00 7.200317e+00 7.757707e+00 7.290970e+00 7.681047e+00 7.009155e+00 7.642546e+00 6.937961e+00 7.843360e+00 7.001124e+00 8.168442e+00 7.106182e+00 8.563610e+00 7.263325e+00 8.945144e+00 
7.650974e+00 9.155887e+00 8.352264e+00 9.179260e+00 9.261789e+00 9.195714e+00 9.261096e+00 9.162768e+00 9.175432e+00 9.036000e+00 8.969753e+00 8.735133e+00 8.626129e+00 8.372084e+00 8.200117e+00 8.078637e+00 7.888410e+00 7.637135e+00 7.617641e+00 7.848287e+00 7.944500e+00 7.805073e+00 7.627794e+00 7.555504e+00 7.510191e+00 7.446785e+00 7.375449e+00 7.317162e+00 7.263273e+00 7.237226e+00 7.174602e+00 7.183157e+00 7.102376e+00 7.140764e+00 7.044691e+00 7.116697e+00 7.007032e+00 7.099462e+00 6.982046e+00 7.090805e+00 6.959979e+00 7.096918e+00 6.949424e+00 7.120511e+00 6.960440e+00 7.166642e+00 6.982720e+00 7.298086e+00 6.973737e+00 7.409667e+00 7.186504e+00 7.720975e+00 7.229653e+00 7.614241e+00 6.968267e+00 7.626792e+00 6.941175e+00 7.861793e+00 7.025193e+00 8.201627e+00 7.136471e+00 8.601853e+00 7.293868e+00 8.980961e+00 
7.636583e+00 9.163773e+00 8.351238e+00 9.191040e+00 9.274885e+00 9.207776e+00 9.273919e+00 9.178828e+00 9.178333e+00 9.063951e+00 8.940619e+00 8.788789e+00 8.557885e+00 8.372531e+00 8.235341e+00 7.886425e+00 7.787081e+00 7.656599e+00 7.347705e+00 6.565993e+00 6.145255e+00 5.938097e+00 5.924191e+00 5.804967e+00 5.682510e+00 5.634621e+00 5.523194e+00 5.540210e+00 5.404632e+00 5.435657e+00 5.314807e+00 5.335363e+00 5.249335e+00 5.254393e+00 5.201370e+00 5.189494e+00 5.149892e+00 5.161990e+00 5.099164e+00 5.167731e+00 5.060792e+00 5.196708e+00 5.016087e+00 5.240242e+00 4.958713e+00 5.264132e+00 4.948756e+00 5.181393e+00 4.989116e+00 5.297068e+00 4.849592e+00 5.279312e+00 5.120493e+00 6.245761e+00 6.100083e+00 7.163717e+00 6.656828e+00 7.723333e+00 6.923039e+00 8.158485e+00 7.087751e+00 8.590073e+00 7.265453e+00 8.982521e+00 
7.655524e+00 9.154704e+00 8.355046e+00 9.179936e+00 9.261903e+00 9.196351e+00 9.260782e+00 9.171190e+00 9.161583e+00 9.066160e+00 8.909581e+00 8.815792e+00 8.511623e+00 8.386525e+00 8.257797e+00 7.789720e+00 7.742425e+00 7.678628e+00 7.121853e+00 5.683341e+00 4.970792e+00 4.807217e+00 4.947576e+00 4.803131e+00 4.654453e+00 4.633542e+00 4.533557e+00 4.621390e+00 4.459552e+00 4.554410e+00 4.413572e+00 4.472873e+00 4.395644e+00 4.412014e+00 4.394573e+00 4.359552e+00 4.376477e+00 4.357949e+00 4.349935e+00 4.403494e+00 4.338904e+00 4.474662e+00 4.312894e+00 4.558014e+00 4.255159e+00 4.611067e+00 4.260767e+00 4.460892e+00 4.391282e+00 4.620127e+00 4.091745e+00 4.487612e+00 4.510232e+00 5.868186e+00 5.913695e+00 7.068417e+00 6.638437e+00 7.711683e+00 6.948711e+00 8.161595e+00 7.120810e+00 8.589599e+00 7.294939e+00 8.976147e+00 
7.631342e+00 9.126776e+00 8.328376e+00 9.156138e+00 9.237747e+00 9.172453e+00 9.236833e+00 9.143024e+00 9.143413e+00 9.024022e+00 8.908921e+00 8.739614e+00 8.534990e+00 8.331964e+00 8.192804e+00 7.900723e+00 7.768054e+00 7.622817e+00 7.431340e+00 6.905327e+00 6.555939e+00 6.357410e+00 6.335434e+00 6.271501e+00 6.204628e+00 6.173118e+00 6.113046e+00 6.126117e+00 6.061413e+00 6.088136e+00 6.029333e+00 6.061802e+00 6.012553e+00 6.049439e+00 6.009908e+00 6.055014e+00 6.012030e+00 6.081263e+00 6.021848e+00 6.124461e+00 6.039811e+00 6.186704e+00 6.063898e+00 6.265320e+00 6.103113e+00 6.346997e+00 6.177988e+00 6.449761e+00 6.223183e+00 6.649649e+00 6.415819e+00 6.882097e+00 6.484702e+00 7.064170e+00 6.614667e+00 7.396783e+00 6.803626e+00 7.759780e+00 6.964353e+00 8.139324e+00 7.103959e+00 8.551606e+00 7.273702e+00 8.938847e+00 