# vtk DataFile Version 2.0
Comment goes here
ASCII

DATASET STRUCTURED_POINTS
FIELD FieldData 1
TIME 1 1 double
0.01800000
DIMENSIONS    256   32   1

ORIGIN    0.000   0.000   0.000
SPACING   0.0078125 0.0078125   1.000

POINT_DATA   8192
SCALARS uX double
LOOKUP_TABLE default

-6.444235e-03 -1.352767e-02 -2.490560e-02 -3.873334e-02 -5.862995e-02 -8.016493e-02 -9.819801e-02 -8.246030e-02 -1.084739e-01 -9.043856e-02 -1.078514e-01 -1.261145e-01 -1.154662e-01 -1.669118e-01 -1.939186e-01 -1.364742e-01 -1.902283e-01 -1.693205e-01 -1.529787e-01 -2.135409e-01 -1.160516e-01 -1.271221e-01 -1.483264e-01 -6.016936e-02 -1.176158e-01 -6.861253e-02 -6.426078e-02 -1.016396e-01 -3.062419e-02 -9.866517e-02 -3.908890e-02 -6.117587e-02 -6.994759e-02 -2.480245e-02 -7.578328e-02 -2.536052e-02 -5.113990e-02 -4.932077e-02 -1.675846e-02 -5.885693e-02 -1.279955e-02 -4.234968e-02 -3.090432e-02 -1.201107e-02 -4.277310e-02 -4.766571e-03 -3.238950e-02 -1.716432e-02 -7.113343e-03 -2.928055e-02 1.955665e-03 -2.351401e-02 -5.892258e-03 -3.993669e-03 -1.768780e-02 6.212261e-03 -1.570291e-02 2.015340e-03 -1.785383e-03 -8.670542e-03 9.630465e-03 -9.261261e-03 8.216138e-03 1.642282e-03 -1.760255e-04 1.138411e-02 -3.178849e-03 1.264546e-02 3.860900e-03 5.635639e-03 1.444547e-02 2.057429e-03 1.608156e-02 6.461769e-03 1.049437e-02 1.559836e-02 5.980171e-03 1.782218e-02 8.459619e-03 1.349495e-02 1.598703e-02 8.655183e-03 1.887542e-02 9.853684e-03 1.604401e-02 1.586267e-02 1.151002e-02 1.964465e-02 1.188994e-02 1.825827e-02 1.662677e-02 1.431793e-02 2.117377e-02 1.402475e-02 2.066621e-02 1.811809e-02 1.753002e-02 2.188005e-02 1.589777e-02 2.202671e-02 1.850687e-02 1.877481e-02 2.251493e-02 1.685202e-02 2.278623e-02 1.838576e-02 1.987826e-02 2.201101e-02 1.740482e-02 2.261797e-02 1.818296e-02 2.017897e-02 2.126906e-02 1.742034e-02 2.232677e-02 1.767403e-02 2.052035e-02 2.021157e-02 1.781470e-02 2.178127e-02 1.781923e-02 2.057782e-02 2.001634e-02 1.826370e-02 2.188920e-02 1.824606e-02 2.104679e-02 2.040731e-02 1.958668e-02 2.185855e-02 1.908983e-02 2.130089e-02 2.073070e-02 1.979429e-02 2.220716e-02 1.971890e-02 2.181531e-02 2.102338e-02 2.065773e-02 2.244142e-02 2.051746e-02 2.220990e-02 2.165749e-02 2.125789e-02 2.298450e-02 2.090245e-02 2.291598e-02 2.193836e-02 2.204782e-02 2.321546e-02 2.149909e-02 2.330456e-02 2.243592e-02 2.246491e-02 2.369117e-02 2.179804e-02 2.401010e-02 2.264555e-02 2.307583e-02 2.401544e-02 2.269530e-02 2.430270e-02 2.288591e-02 2.329673e-02 2.405448e-02 2.237126e-02 2.447028e-02 2.272784e-02 2.363378e-02 2.371663e-02 2.272598e-02 2.440698e-02 2.272613e-02 2.376758e-02 2.367782e-02 2.281457e-02 2.452670e-02 2.243674e-02 2.413354e-02 2.331913e-02 2.313896e-02 2.426449e-02 2.248101e-02 2.413988e-02 2.324380e-02 2.314639e-02 2.425586e-02 2.233758e-02 2.446532e-02 2.297726e-02 2.341525e-02 2.415866e-02 2.288906e-02 2.447058e-02 2.288131e-02 2.337425e-02 2.395347e-02 2.237009e-02 2.440828e-02 2.251389e-02 2.355678e-02 2.348923e-02 2.259549e-02 2.420468e-02 2.241682e-02 2.357396e-02 2.339349e-02 2.255603e-02 2.423567e-02 2.209289e-02 2.383649e-02 2.299845e-02 2.276947e-02 2.390793e-02 2.209349e-02 2.375209e-02 2.288251e-02 2.268789e-02 2.384719e-02 2.189197e-02 2.397091e-02 2.251583e-02 2.295606e-02 2.350893e-02 2.207169e-02 2.388673e-02 2.240605e-02 2.292862e-02 2.338834e-02 2.195982e-02 2.396127e-02 2.193710e-02 2.314127e-02 2.296382e-02 2.210515e-02 2.370702e-02 2.179059e-02 2.303975e-02 2.278172e-02 2.193068e-02 2.360045e-02 2.142651e-02 2.313925e-02 2.237353e-02 2.192680e-02 2.320401e-02 2.106955e-02 2.278340e-02 2.182445e-02 2.218354e-02 2.191358e-02 1.614048e-02 1.159195e-02 8.129677e-03 3.880548e-03 -4.155267e-05 
-1.296819e-03 -8.999375e-03 -1.804540e-02 -3.333745e-02 -5.189026e-02 -8.105675e-02 -9.295553e-02 -7.994962e-02 -1.032710e-01 -9.335436e-02 -1.078090e-01 -1.496429e-01 -1.257117e-01 -2.258995e-01 -2.552905e-01 -2.064168e-01 -2.676878e-01 -2.388358e-01 -2.282884e-01 -2.679185e-01 -1.693143e-01 -1.344908e-01 -1.782993e-01 -5.079040e-02 -1.286938e-01 -5.794503e-02 -6.239879e-02 -9.690275e-02 -2.376947e-02 -9.449456e-02 -3.269644e-02 -5.486147e-02 -6.793728e-02 -1.593820e-02 -7.393427e-02 -1.831013e-02 -4.767445e-02 -4.636981e-02 -9.665228e-03 -5.709833e-02 -6.762068e-03 -3.984430e-02 -2.768661e-02 -6.212007e-03 -4.109197e-02 3.570703e-04 -3.017200e-02 -1.401167e-02 -2.044364e-03 -2.791146e-02 6.824818e-03 -2.185294e-02 -2.267467e-03 -2.642501e-04 -1.588596e-02 1.023684e-02 -1.374453e-02 5.262283e-03 1.411974e-03 -7.134338e-03 1.376074e-02 -8.055290e-03 1.167863e-02 5.019804e-03 2.370439e-03 1.380188e-02 -1.529797e-03 1.589573e-02 6.171149e-03 7.577180e-03 1.786711e-02 3.503495e-03 1.928191e-02 8.094396e-03 1.295471e-02 1.833064e-02 7.812770e-03 2.048279e-02 1.040120e-02 1.564536e-02 1.882792e-02 1.011751e-02 2.180632e-02 1.138505e-02 1.864704e-02 1.798695e-02 1.343342e-02 2.207392e-02 1.381420e-02 2.046717e-02 1.887461e-02 1.592471e-02 2.395991e-02 1.542856e-02 2.320830e-02 2.031767e-02 1.987849e-02 2.379243e-02 1.771137e-02 2.425160e-02 2.055706e-02 2.056049e-02 2.500957e-02 1.836511e-02 2.526406e-02 1.993686e-02 2.212582e-02 2.401921e-02 1.933296e-02 2.468347e-02 2.013690e-02 2.208602e-02 2.357588e-02 1.898313e-02 2.477771e-02 1.925050e-02 2.285820e-02 2.199860e-02 1.982114e-02 2.381513e-02 1.979504e-02 2.250871e-02 2.213491e-02 1.991426e-02 2.431800e-02 1.979665e-02 2.329014e-02 2.237876e-02 2.191111e-02 2.369535e-02 2.106117e-02 2.318573e-02 2.288480e-02 2.151213e-02 2.444067e-02 2.138324e-02 2.400673e-02 2.272742e-02 2.278394e-02 2.423063e-02 2.259210e-02 2.398845e-02 2.375948e-02 2.299269e-02 2.513808e-02 2.257856e-02 2.508099e-02 2.362760e-02 2.417877e-02 2.493424e-02 2.356905e-02 2.505054e-02 2.450087e-02 2.418550e-02 2.578234e-02 2.346615e-02 2.618397e-02 2.430004e-02 2.512645e-02 2.584103e-02 2.498834e-02 2.607092e-02 2.490212e-02 2.498642e-02 2.620613e-02 2.403205e-02 2.656255e-02 2.441794e-02 2.569773e-02 2.541573e-02 2.479617e-02 2.610610e-02 2.481130e-02 2.545269e-02 2.577290e-02 2.450111e-02 2.663081e-02 2.411403e-02 2.623304e-02 2.500384e-02 2.523422e-02 2.595607e-02 2.454982e-02 2.584329e-02 2.530697e-02 2.484369e-02 2.633082e-02 2.400614e-02 2.661221e-02 2.463702e-02 2.545965e-02 2.594355e-02 2.517595e-02 2.627207e-02 2.489883e-02 2.505134e-02 2.611278e-02 2.402431e-02 2.651261e-02 2.420768e-02 2.561895e-02 2.520714e-02 2.466141e-02 2.592554e-02 2.450796e-02 2.525744e-02 2.551397e-02 2.423534e-02 2.636936e-02 2.378009e-02 2.594086e-02 2.472229e-02 2.485749e-02 2.564653e-02 2.417589e-02 2.546545e-02 2.500240e-02 2.438064e-02 2.598882e-02 2.357265e-02 2.609665e-02 2.423493e-02 2.505487e-02 2.525096e-02 2.415900e-02 2.562906e-02 2.452779e-02 2.463593e-02 2.553839e-02 2.365002e-02 2.612187e-02 2.364923e-02 2.525856e-02 2.471421e-02 2.421143e-02 2.547900e-02 2.391546e-02 2.475861e-02 2.496189e-02 2.363363e-02 2.582125e-02 2.314372e-02 2.533746e-02 2.416066e-02 2.413852e-02 2.503530e-02 2.334261e-02 2.459378e-02 2.432082e-02 2.426377e-02 2.507704e-02 1.870422e-02 1.484602e-02 1.086264e-02 7.857262e-03 3.391601e-03 
-2.371546e-03 -7.657321e-03 -1.721694e-02 -3.004919e-02 -5.179553e-02 -8.503788e-02 -8.837406e-02 -5.989412e-02 -9.135956e-02 -5.287828e-02 -7.211040e-02 -6.305787e-02 -1.145021e-02 -2.284171e-02 -6.311629e-03 5.280683e-02 1.623792e-02 2.530767e-02 5.760178e-02 -3.122761e-02 3.038887e-02 -6.935303e-03 -9.084652e-02 -7.016581e-03 -1.035242e-01 -4.201065e-02 -3.847304e-02 -9.913885e-02 -2.931338e-03 -9.848965e-02 -2.112191e-02 -5.111466e-02 -7.108292e-02 -4.647700e-03 -8.002916e-02 -1.160347e-02 -4.979712e-02 -5.059874e-02 -2.940927e-03 -6.540600e-02 -2.988213e-03 -4.606073e-02 -3.207792e-02 -3.734312e-03 -5.078708e-02 1.296719e-03 -3.947687e-02 -1.876951e-02 -4.491829e-03 -3.842530e-02 4.459610e-03 -3.268128e-02 -7.949262e-03 -5.999955e-03 -2.701600e-02 6.098839e-03 -2.571401e-02 -6.666239e-04 -7.857155e-03 -1.795707e-02 7.139410e-03 -2.108491e-02 4.070864e-03 -5.061888e-03 -9.431049e-03 3.713097e-03 -1.512541e-02 8.039784e-03 -7.087455e-03 -2.966919e-03 7.938728e-03 -9.498740e-03 9.880186e-03 -5.541033e-03 2.160424e-03 7.482267e-03 -5.716930e-03 1.062718e-02 -4.063588e-03 5.154075e-03 6.375048e-03 -2.951811e-03 1.073093e-02 -2.759412e-03 7.524606e-03 4.793830e-03 1.992365e-04 1.059380e-02 -7.379724e-04 9.325547e-03 4.226168e-03 3.224071e-03 1.104088e-02 7.138144e-04 1.108041e-02 5.580056e-03 5.937911e-03 9.425723e-03 2.864419e-03 1.211740e-02 4.804504e-03 8.245650e-03 1.088976e-02 4.291544e-03 1.252123e-02 4.758572e-03 9.659256e-03 9.918550e-03 5.119705e-03 1.205876e-02 4.737261e-03 1.002136e-02 8.678627e-03 5.512188e-03 1.143739e-02 4.561638e-03 1.025512e-02 7.169745e-03 6.343897e-03 1.051597e-02 4.971508e-03 1.002371e-02 6.689726e-03 6.959312e-03 9.937422e-03 5.240533e-03 9.935742e-03 7.072861e-03 7.502110e-03 8.526625e-03 6.617833e-03 9.713247e-03 7.408966e-03 8.689894e-03 9.286339e-03 7.741321e-03 9.947248e-03 8.040860e-03 9.565314e-03 9.219905e-03 8.819019e-03 9.933325e-03 8.872487e-03 9.901530e-03 9.509012e-03 9.433287e-03 1.022460e-02 9.326454e-03 1.039506e-02 9.624914e-03 1.016377e-02 1.022792e-02 9.949152e-03 1.047582e-02 1.001661e-02 1.034395e-02 1.041666e-02 1.000487e-02 1.060471e-02 1.005958e-02 1.021877e-02 1.003206e-02 1.059973e-02 1.038776e-02 1.060685e-02 1.073040e-02 1.053437e-02 1.086325e-02 1.073870e-02 1.069459e-02 1.104022e-02 1.051194e-02 1.112459e-02 1.065453e-02 1.089689e-02 1.092392e-02 1.068447e-02 1.100321e-02 1.080340e-02 1.074731e-02 1.105665e-02 1.051653e-02 1.112595e-02 1.061623e-02 1.083885e-02 1.082810e-02 1.057738e-02 1.082907e-02 1.059514e-02 1.049914e-02 1.066855e-02 1.017466e-02 1.035023e-02 1.021937e-02 1.074205e-02 1.020679e-02 1.072365e-02 1.055253e-02 1.046444e-02 1.085106e-02 1.044118e-02 1.073379e-02 1.070492e-02 1.041548e-02 1.100304e-02 1.026734e-02 1.090356e-02 1.047709e-02 1.059209e-02 1.077823e-02 1.034987e-02 1.072934e-02 1.049865e-02 1.044619e-02 1.079338e-02 1.012981e-02 1.083156e-02 1.021336e-02 1.059735e-02 1.050871e-02 1.022500e-02 1.066120e-02 1.023591e-02 1.047572e-02 1.050478e-02 1.007060e-02 1.075581e-02 9.959341e-03 1.063165e-02 1.017637e-02 1.025248e-02 1.054617e-02 9.971683e-03 1.052790e-02 1.013766e-02 1.017928e-02 1.056827e-02 9.731677e-03 1.065930e-02 9.823777e-03 1.034296e-02 1.029277e-02 9.735038e-03 1.054619e-02 9.730754e-03 1.030744e-02 1.019251e-02 9.665056e-03 1.053752e-02 9.729142e-03 1.106892e-02 1.183083e-02 9.613576e-03 8.151423e-03 5.186247e-03 2.619685e-03 
6.285311e-03 2.949677e-03 -6.637645e-04 -6.027228e-03 -1.159390e-02 -2.059623e-02 -1.166809e-02 -8.412174e-04 -9.730553e-03 1.145812e-02 1.010162e-02 3.797275e-02 5.646811e-02 5.436942e-02 9.224315e-02 3.734650e-02 1.029997e-01 6.896114e-02 6.561305e-02 9.897630e-02 5.505222e-03 1.026934e-01 3.113661e-02 3.638935e-02 -1.014564e-02 4.376476e-03 6.942967e-03 -1.900624e-02 1.289353e-02 -2.139580e-02 3.123066e-03 -7.079654e-03 -1.595830e-02 6.483848e-03 -2.003554e-02 2.381216e-03 -1.085493e-02 -1.243473e-02 3.863229e-03 -1.858400e-02 3.020540e-03 -1.316051e-02 -7.686364e-03 6.361854e-04 -1.516828e-02 1.605409e-03 -1.313363e-02 -5.800622e-03 -2.332789e-03 -1.383319e-02 7.208583e-04 -1.356871e-02 -3.206046e-03 -5.255643e-03 -1.053780e-02 -5.984957e-04 -1.162331e-02 -2.229091e-03 -6.638013e-03 -8.604716e-03 -1.291510e-03 -1.145562e-02 -1.114235e-03 -7.743938e-03 -6.925906e-03 -4.622378e-03 -9.358635e-03 -1.693072e-03 -8.731413e-03 -4.787559e-03 -3.440671e-03 -8.523296e-03 -1.400401e-03 -9.087900e-03 -2.934071e-03 -4.905876e-03 -6.901518e-03 -2.320468e-03 -8.218238e-03 -2.786156e-03 -5.322173e-03 -6.408993e-03 -2.390526e-03 -8.198752e-03 -1.972378e-03 -6.806360e-03 -4.768832e-03 -3.691416e-03 -7.006532e-03 -2.583209e-03 -7.044130e-03 -4.400924e-03 -4.202563e-03 -7.309145e-03 -2.038023e-03 -7.873520e-03 -4.426901e-03 -6.319598e-03 -5.717250e-03 -3.126120e-03 -7.488558e-03 -2.979955e-03 -5.279212e-03 -5.676423e-03 -2.724185e-03 -7.502186e-03 -1.980893e-03 -6.258447e-03 -4.507296e-03 -3.683083e-03 -6.574551e-03 -2.533637e-03 -6.226320e-03 -4.431264e-03 -3.722753e-03 -6.621755e-03 -2.274209e-03 -7.165101e-03 -3.249201e-03 -4.928786e-03 -5.571239e-03 -3.253686e-03 -6.798375e-03 -3.485969e-03 -5.318029e-03 -5.880074e-03 -2.980010e-03 -7.534546e-03 -4.257713e-03 -7.022199e-03 -4.272484e-03 -4.397183e-03 -6.448624e-03 -3.050966e-03 -6.146550e-03 -4.361352e-03 -4.091775e-03 -6.221118e-03 -2.418288e-03 -6.874526e-03 -3.186936e-03 -5.105460e-03 -5.128067e-03 -3.253429e-03 -6.438402e-03 -3.171942e-03 -5.064478e-03 -5.160140e-03 -3.059770e-03 -6.911229e-03 -2.256011e-03 -6.077142e-03 -4.186867e-03 -4.018898e-03 -6.261842e-03 -2.803804e-03 -6.216706e-03 -4.584242e-03 -3.685979e-03 -7.088348e-03 -3.885787e-03 -7.405177e-03 -3.172792e-03 -5.092742e-03 -5.750920e-03 -2.956222e-03 -6.536339e-03 -3.475074e-03 -4.671886e-03 -5.519908e-03 -2.571822e-03 -7.019024e-03 -2.445299e-03 -5.626280e-03 -4.505885e-03 -3.492172e-03 -6.368379e-03 -2.666726e-03 -5.491458e-03 -4.650899e-03 -3.314509e-03 -6.723718e-03 -1.983067e-03 -6.402704e-03 -3.766854e-03 -4.283164e-03 -5.994992e-03 -2.722395e-03 -6.441176e-03 -4.191448e-03 -4.027019e-03 -6.884981e-03 -3.911086e-03 -7.445738e-03 -2.876825e-03 -5.474636e-03 -5.393528e-03 -3.247430e-03 -6.612148e-03 -3.171366e-03 -5.096827e-03 -5.162928e-03 -2.968386e-03 -6.968528e-03 -2.210753e-03 -6.029450e-03 -4.150869e-03 -3.873556e-03 -6.200124e-03 -2.573367e-03 -5.855943e-03 -4.322230e-03 -3.700589e-03 -6.457946e-03 -2.005438e-03 -6.682103e-03 -3.407128e-03 -4.645060e-03 -5.583642e-03 -2.723498e-03 -6.420125e-03 -3.648631e-03 -4.589325e-03 -5.795022e-03 -2.554239e-03 -7.179453e-03 -2.792118e-03 -5.641883e-03 -4.811437e-03 -3.521083e-03 -6.518771e-03 -2.897427e-03 -5.482834e-03 -4.820560e-03 -3.347101e-03 -6.810840e-03 -2.090368e-03 -6.312626e-03 -3.783356e-03 -4.191303e-03 -5.890193e-03 -2.546500e-03 -6.085148e-03 -3.945135e-03 -4.005765e-03 -5.990544e-03 -1.834372e-03 -6.411729e-03 -3.082264e-03 -6.118045e-03 -4.443227e-03 5.390308e-03 9.098998e-03 1.024495e-02 9.996976e-03 8.302448e-03 
8.997611e-03 1.037691e-02 1.079878e-02 1.869130e-02 2.853381e-02 5.921985e-02 5.563677e-02 3.591877e-02 4.417519e-02 2.243665e-02 5.706602e-03 1.532243e-02 -1.168906e-01 -8.679576e-02 -8.600225e-02 -1.773264e-01 -1.116264e-01 -1.325569e-01 -1.721272e-01 -5.193306e-02 -1.639892e-01 -1.149129e-01 4.258228e-02 -4.789754e-02 6.228783e-02 3.489744e-03 2.044608e-02 6.054614e-02 -3.596451e-03 6.526344e-02 1.237971e-02 3.211742e-02 5.247968e-02 -1.568817e-03 5.967897e-02 6.291699e-03 3.724148e-02 3.796945e-02 1.362197e-03 4.971393e-02 3.328777e-03 3.547097e-02 2.693867e-02 3.088582e-03 4.140051e-02 9.567895e-04 3.236104e-02 1.749527e-02 4.983485e-03 3.263601e-02 -2.100370e-04 2.770470e-02 1.065693e-02 6.986990e-03 2.567634e-02 -6.918062e-04 2.404071e-02 5.999397e-03 1.010254e-02 2.003629e-02 -3.186917e-04 2.197320e-02 4.263945e-03 8.715287e-03 1.499039e-02 3.528360e-03 1.894636e-02 8.675456e-04 1.121726e-02 1.017975e-02 -3.035427e-04 1.431329e-02 -2.885906e-04 1.020715e-02 6.820045e-03 -3.944950e-05 1.231596e-02 -9.344113e-04 9.915445e-03 4.588847e-03 1.347795e-03 1.056985e-02 -6.609597e-04 9.206173e-03 3.164673e-03 2.592002e-03 8.963568e-03 -8.596731e-04 8.456282e-03 1.575038e-03 3.655846e-03 6.966760e-03 -9.502732e-04 7.971053e-03 1.224516e-03 2.982958e-03 5.504433e-03 6.128373e-04 7.427719e-03 -3.771094e-04 3.911455e-03 3.546492e-03 -1.044759e-03 5.662078e-03 -8.949398e-04 3.881725e-03 2.580373e-03 -6.927267e-04 5.550757e-03 -1.050898e-03 4.446883e-03 1.879429e-03 5.018877e-04 5.280249e-03 -6.066770e-04 4.642504e-03 1.693670e-03 1.497144e-03 5.166425e-03 -4.392112e-04 4.946647e-03 1.431256e-03 2.356652e-03 4.724121e-03 1.848072e-04 5.155100e-03 2.361597e-03 2.395425e-03 4.608942e-03 1.401963e-03 5.078875e-03 1.630960e-03 2.324920e-03 3.472875e-03 3.827938e-04 3.443482e-03 1.183171e-03 1.750339e-03 2.841327e-03 6.842077e-05 3.137080e-03 6.700573e-04 1.710405e-03 2.129074e-03 1.577721e-04 2.750802e-03 4.558608e-04 1.482221e-03 1.812905e-03 -2.701283e-05 2.708116e-03 4.909319e-06 1.645078e-03 1.361047e-03 2.228358e-04 2.573931e-03 8.466431e-05 2.016287e-03 2.122237e-03 6.115719e-04 2.922368e-03 4.820010e-04 2.568640e-03 1.341403e-03 3.431902e-04 2.213628e-03 -3.321903e-04 1.558155e-03 7.028910e-04 2.038035e-04 1.862471e-03 -6.817916e-04 1.849554e-03 1.556133e-04 6.129580e-04 1.409847e-03 -4.907088e-04 1.910680e-03 4.393047e-06 7.740159e-04 1.308555e-03 -4.606304e-04 2.196138e-03 -3.267982e-04 1.280034e-03 1.033465e-03 4.567949e-05 2.299055e-03 -9.242094e-05 1.911755e-03 1.924803e-03 7.572422e-04 2.840216e-03 2.914683e-04 2.677657e-03 1.284913e-03 4.850318e-04 2.199729e-03 -3.304024e-04 1.768594e-03 6.797209e-04 3.857429e-04 1.897275e-03 -5.941143e-04 2.094853e-03 2.240713e-04 8.067372e-04 1.554421e-03 -3.400815e-04 2.152708e-03 1.595859e-04 9.579062e-04 1.548898e-03 -2.912741e-04 2.439234e-03 -1.241366e-04 1.399333e-03 1.242012e-03 6.126983e-05 2.298223e-03 -1.518891e-04 1.475549e-03 1.132810e-03 1.062313e-04 2.304301e-03 -4.680614e-04 1.864055e-03 7.255063e-04 5.241453e-04 2.021070e-03 -3.256984e-04 2.067117e-03 6.832498e-04 6.986600e-04 2.034136e-03 -3.911998e-04 2.448136e-03 3.943462e-04 1.104759e-03 1.788015e-03 -1.603048e-04 2.418450e-03 2.323582e-04 1.081523e-03 1.561930e-03 -2.994140e-04 2.370686e-03 -1.909551e-04 7.604055e-04 -3.012003e-04 -1.433126e-03 4.448219e-03 7.654139e-03 9.715072e-03 9.599532e-03 1.002935e-02 
1.711538e-02 1.854835e-02 2.085636e-02 2.815209e-02 3.757828e-02 6.170294e-02 5.202962e-02 3.183308e-02 4.105312e-02 1.639263e-02 5.187454e-03 1.018068e-02 -7.518138e-02 1.864394e-02 1.731770e-02 1.687778e-02 1.819539e-02 1.801643e-02 1.637749e-02 1.811926e-02 1.721654e-02 -1.168132e-01 3.154683e-02 -5.201729e-02 5.609125e-02 2.919635e-03 1.595069e-02 5.757459e-02 -2.183565e-03 6.467706e-02 1.619092e-02 3.544537e-02 5.564602e-02 5.978478e-03 6.402994e-02 1.461176e-02 4.423432e-02 4.532947e-02 1.214100e-02 5.752201e-02 1.447692e-02 4.520513e-02 3.714922e-02 1.575719e-02 5.174795e-02 1.411196e-02 4.495144e-02 2.998883e-02 2.063465e-02 4.530096e-02 1.556058e-02 4.225984e-02 2.546685e-02 2.376735e-02 4.017864e-02 1.601603e-02 4.012216e-02 2.172667e-02 2.817949e-02 3.528253e-02 1.846729e-02 3.901924e-02 2.215626e-02 2.937269e-02 3.442688e-02 2.421728e-02 3.747370e-02 1.983572e-02 3.157431e-02 2.746624e-02 2.064245e-02 3.254196e-02 1.938339e-02 3.033182e-02 2.503728e-02 2.119247e-02 3.120768e-02 1.901626e-02 3.058858e-02 2.291282e-02 2.335586e-02 2.910596e-02 2.021492e-02 2.945161e-02 2.242889e-02 2.443370e-02 2.794929e-02 2.028693e-02 2.916651e-02 2.121772e-02 2.629885e-02 2.598600e-02 2.187964e-02 2.897876e-02 2.251395e-02 2.727172e-02 2.804275e-02 2.488206e-02 2.890502e-02 2.131165e-02 2.726795e-02 2.320843e-02 2.258309e-02 2.611087e-02 2.097914e-02 2.613565e-02 2.261730e-02 2.256515e-02 2.603011e-02 2.069087e-02 2.665158e-02 2.172496e-02 2.404699e-02 2.495209e-02 2.175980e-02 2.593197e-02 2.220821e-02 2.437685e-02 2.486755e-02 2.179073e-02 2.621624e-02 2.187702e-02 2.551472e-02 2.410627e-02 2.353458e-02 2.631082e-02 2.395005e-02 2.668693e-02 2.733143e-02 2.585008e-02 2.641005e-02 2.336971e-02 2.556521e-02 2.315323e-02 2.402099e-02 2.383755e-02 2.313628e-02 2.399715e-02 2.305093e-02 2.346205e-02 2.373596e-02 2.271525e-02 2.415147e-02 2.242737e-02 2.410881e-02 2.275447e-02 2.342629e-02 2.329427e-02 2.297469e-02 2.354236e-02 2.299560e-02 2.304668e-02 2.364200e-02 2.259517e-02 2.421075e-02 2.268681e-02 2.435686e-02 2.394597e-02 2.456564e-02 2.567886e-02 2.640549e-02 2.585394e-02 2.453852e-02 2.394001e-02 2.426123e-02 2.264793e-02 2.413765e-02 2.244920e-02 2.349259e-02 2.291071e-02 2.283090e-02 2.336005e-02 2.274088e-02 2.296884e-02 2.332968e-02 2.236132e-02 2.387837e-02 2.211720e-02 2.360647e-02 2.271616e-02 2.299022e-02 2.330680e-02 2.264618e-02 2.318035e-02 2.326806e-02 2.266873e-02 2.402343e-02 2.255174e-02 2.446909e-02 2.369611e-02 2.472288e-02 2.567869e-02 2.641527e-02 2.580136e-02 2.444051e-02 2.416899e-02 2.412927e-02 2.284481e-02 2.419462e-02 2.238517e-02 2.375590e-02 2.279666e-02 2.311626e-02 2.338542e-02 2.274100e-02 2.328129e-02 2.323135e-02 2.271285e-02 2.387854e-02 2.222608e-02 2.396865e-02 2.264969e-02 2.342731e-02 2.327779e-02 2.285596e-02 2.353301e-02 2.314376e-02 2.304615e-02 2.373471e-02 2.242908e-02 2.415753e-02 2.253323e-02 2.374814e-02 2.307874e-02 2.313425e-02 2.363935e-02 2.301549e-02 2.336072e-02 2.349747e-02 2.277608e-02 2.409635e-02 2.238250e-02 2.403556e-02 2.279187e-02 2.347872e-02 2.342099e-02 2.288416e-02 2.356541e-02 2.314833e-02 2.302246e-02 2.371578e-02 2.227374e-02 2.404665e-02 2.229828e-02 2.342496e-02 2.265846e-02 2.232954e-02 2.280631e-02 2.196376e-02 2.244375e-02 2.135927e-02 1.720537e-02 1.712770e-02 1.649574e-02 1.675480e-02 1.662824e-02 
1.795301e-02 2.039097e-02 2.230535e-02 2.814863e-02 3.246355e-02 4.195300e-02 3.699744e-02 2.612695e-02 3.102461e-02 1.401218e-02 1.658697e-02 8.439918e-03 2.640360e-02 3.060714e-02 2.921923e-02 3.039167e-02 2.990486e-02 3.006558e-02 3.006625e-02 2.892183e-02 3.052728e-02 2.487697e-02 1.398376e-02 -7.431357e-03 3.128577e-02 1.150233e-02 1.587941e-02 3.936333e-02 8.865804e-03 4.538322e-02 2.010247e-02 3.120475e-02 4.116246e-02 1.644428e-02 4.695120e-02 2.052976e-02 3.658191e-02 3.630019e-02 2.037159e-02 4.344510e-02 2.049867e-02 3.687280e-02 3.189825e-02 2.207837e-02 3.983712e-02 2.009979e-02 3.633884e-02 2.804383e-02 2.420161e-02 3.613789e-02 2.051250e-02 3.479406e-02 2.533433e-02 2.548993e-02 3.288241e-02 2.067585e-02 3.327984e-02 2.332262e-02 2.722788e-02 3.023937e-02 2.202153e-02 3.279661e-02 2.388597e-02 2.969061e-02 3.196408e-02 2.622472e-02 3.202157e-02 2.271547e-02 2.863162e-02 2.580340e-02 2.285359e-02 2.861586e-02 2.154215e-02 2.761512e-02 2.416263e-02 2.311369e-02 2.752090e-02 2.143367e-02 2.747844e-02 2.315279e-02 2.402443e-02 2.639767e-02 2.193700e-02 2.694278e-02 2.275868e-02 2.460056e-02 2.551795e-02 2.216491e-02 2.655446e-02 2.229355e-02 2.533075e-02 2.464580e-02 2.312651e-02 2.678191e-02 2.345083e-02 2.751945e-02 2.783578e-02 2.605082e-02 2.676853e-02 2.284729e-02 2.576279e-02 2.310635e-02 2.331742e-02 2.467592e-02 2.202897e-02 2.496683e-02 2.254716e-02 2.338869e-02 2.438020e-02 2.207965e-02 2.505322e-02 2.229312e-02 2.402673e-02 2.390728e-02 2.261163e-02 2.478944e-02 2.249846e-02 2.430336e-02 2.368849e-02 2.288853e-02 2.475373e-02 2.256600e-02 2.478069e-02 2.354278e-02 2.395550e-02 2.526368e-02 2.418000e-02 2.705236e-02 2.736982e-02 2.659926e-02 2.537015e-02 2.387799e-02 2.486920e-02 2.304508e-02 2.403633e-02 2.344398e-02 2.315821e-02 2.385903e-02 2.273517e-02 2.379086e-02 2.313462e-02 2.310330e-02 2.370070e-02 2.258943e-02 2.394914e-02 2.267729e-02 2.338453e-02 2.329447e-02 2.277613e-02 2.373762e-02 2.260324e-02 2.337202e-02 2.326126e-02 2.279093e-02 2.395025e-02 2.268100e-02 2.418649e-02 2.390543e-02 2.435502e-02 2.630510e-02 2.676149e-02 2.646591e-02 2.424261e-02 2.402267e-02 2.403029e-02 2.268294e-02 2.394145e-02 2.258896e-02 2.325593e-02 2.314047e-02 2.256077e-02 2.361237e-02 2.249601e-02 2.318081e-02 2.313647e-02 2.252076e-02 2.372768e-02 2.225652e-02 2.344683e-02 2.288666e-02 2.277280e-02 2.353379e-02 2.237020e-02 2.343207e-02 2.298775e-02 2.284215e-02 2.378772e-02 2.259613e-02 2.425405e-02 2.372490e-02 2.448095e-02 2.623981e-02 2.677860e-02 2.647688e-02 2.414966e-02 2.419401e-02 2.392019e-02 2.283738e-02 2.400169e-02 2.252676e-02 2.347226e-02 2.305467e-02 2.278618e-02 2.365452e-02 2.249012e-02 2.343337e-02 2.307883e-02 2.279326e-02 2.376167e-02 2.234728e-02 2.373783e-02 2.287278e-02 2.310830e-02 2.356271e-02 2.254520e-02 2.371635e-02 2.294561e-02 2.312586e-02 2.362142e-02 2.249398e-02 2.395976e-02 2.272248e-02 2.343690e-02 2.336614e-02 2.278198e-02 2.386945e-02 2.278080e-02 2.345710e-02 2.337045e-02 2.280164e-02 2.396110e-02 2.251761e-02 2.373026e-02 2.305820e-02 2.308106e-02 2.371301e-02 2.257757e-02 2.366302e-02 2.299843e-02 2.300934e-02 2.362287e-02 2.233503e-02 2.373526e-02 2.255547e-02 2.299011e-02 2.300791e-02 2.195805e-02 2.297978e-02 2.182616e-02 2.257272e-02 2.168169e-02 1.809364e-02 1.694146e-02 1.661167e-02 1.658354e-02 1.740073e-02 
2.456485e-02 2.643644e-02 2.896378e-02 3.330689e-02 3.707548e-02 4.303413e-02 4.223590e-02 3.565859e-02 3.914566e-02 3.030560e-02 3.099122e-02 3.201259e-02 3.785196e-02 3.978863e-02 3.873328e-02 3.930588e-02 3.915100e-02 3.929114e-02 3.888508e-02 3.879140e-02 3.912687e-02 3.710410e-02 4.193877e-02 1.096901e-02 4.269721e-02 2.281384e-02 2.897759e-02 4.209468e-02 2.192151e-02 4.623325e-02 2.886591e-02 3.622746e-02 4.313227e-02 2.578366e-02 4.715898e-02 2.807065e-02 3.958348e-02 3.875341e-02 2.832711e-02 4.368494e-02 2.780945e-02 3.874691e-02 3.550285e-02 2.855590e-02 4.095677e-02 2.658533e-02 3.822490e-02 3.191159e-02 2.981872e-02 3.738946e-02 2.680964e-02 3.624949e-02 3.001759e-02 2.973417e-02 3.508205e-02 2.606212e-02 3.522387e-02 2.770990e-02 3.078491e-02 3.226091e-02 2.689557e-02 3.398781e-02 2.846752e-02 3.398422e-02 3.773004e-02 3.143111e-02 3.397274e-02 2.675729e-02 3.102032e-02 2.872022e-02 2.713228e-02 3.070375e-02 2.619401e-02 2.991541e-02 2.807669e-02 2.683005e-02 3.036074e-02 2.561204e-02 3.023708e-02 2.686566e-02 2.781324e-02 2.906770e-02 2.632725e-02 2.937454e-02 2.693352e-02 2.763816e-02 2.879872e-02 2.590115e-02 2.941110e-02 2.594027e-02 2.832370e-02 2.746986e-02 2.665484e-02 2.890794e-02 2.728703e-02 3.130645e-02 3.375364e-02 3.031547e-02 2.958086e-02 2.609357e-02 2.833432e-02 2.626166e-02 2.673616e-02 2.739756e-02 2.596546e-02 2.756594e-02 2.648251e-02 2.645663e-02 2.775454e-02 2.561481e-02 2.816967e-02 2.588514e-02 2.738538e-02 2.702825e-02 2.645025e-02 2.759127e-02 2.645282e-02 2.713703e-02 2.732317e-02 2.615698e-02 2.796685e-02 2.593725e-02 2.778830e-02 2.659529e-02 2.709124e-02 2.777783e-02 2.770637e-02 3.085988e-02 3.327882e-02 3.060901e-02 2.858620e-02 2.676336e-02 2.770988e-02 2.619400e-02 2.719229e-02 2.651466e-02 2.672710e-02 2.677229e-02 2.656232e-02 2.666960e-02 2.682862e-02 2.626694e-02 2.714047e-02 2.599118e-02 2.721024e-02 2.606793e-02 2.686309e-02 2.638860e-02 2.650398e-02 2.656890e-02 2.641769e-02 2.631048e-02 2.672533e-02 2.592414e-02 2.700768e-02 2.582346e-02 2.704373e-02 2.663558e-02 2.765206e-02 3.011477e-02 3.267029e-02 3.032409e-02 2.762079e-02 2.668739e-02 2.694562e-02 2.578278e-02 2.694584e-02 2.577295e-02 2.664877e-02 2.612734e-02 2.630002e-02 2.640022e-02 2.628041e-02 2.619490e-02 2.663588e-02 2.583306e-02 2.695093e-02 2.570278e-02 2.680514e-02 2.602898e-02 2.642271e-02 2.636215e-02 2.620678e-02 2.628146e-02 2.649382e-02 2.590969e-02 2.686669e-02 2.573486e-02 2.705248e-02 2.650344e-02 2.770918e-02 3.006358e-02 3.267608e-02 3.032910e-02 2.756499e-02 2.679559e-02 2.689122e-02 2.588263e-02 2.699705e-02 2.576206e-02 2.680366e-02 2.609987e-02 2.646104e-02 2.645882e-02 2.632169e-02 2.638761e-02 2.664127e-02 2.604882e-02 2.702800e-02 2.582289e-02 2.704739e-02 2.609080e-02 2.671666e-02 2.648057e-02 2.642564e-02 2.658725e-02 2.661840e-02 2.628301e-02 2.699929e-02 2.594952e-02 2.719682e-02 2.604707e-02 2.693733e-02 2.640766e-02 2.658236e-02 2.668686e-02 2.655962e-02 2.649514e-02 2.687968e-02 2.613068e-02 2.720530e-02 2.596361e-02 2.711274e-02 2.623580e-02 2.675007e-02 2.659247e-02 2.646740e-02 2.659559e-02 2.665588e-02 2.623003e-02 2.698932e-02 2.583761e-02 2.705031e-02 2.587312e-02 2.660634e-02 2.605629e-02 2.595516e-02 2.595429e-02 2.560397e-02 2.527920e-02 2.499528e-02 2.281502e-02 2.279668e-02 2.208776e-02 2.279546e-02 2.316933e-02 