# vtk DataFile Version 2.0
Comment goes here
ASCII

DATASET STRUCTURED_POINTS
FIELD FieldData 1
TIME 1 1 double
0.01600000
DIMENSIONS    256   256   1

ORIGIN    0.000   0.000   0.000
SPACING   0.0078125 0.0078125   1.000

POINT_DATA   65536
SCALARS uX double
LOOKUP_TABLE default

-1.164531e+01 -1.756701e+01 -2.284638e+01 -2.232864e+01 -1.732585e+01 -1.426806e+01 -1.305106e+01 -1.214768e+01 -1.190625e+01 -1.413856e+01 -1.852268e+01 -3.101797e+01 -3.717933e+01 -2.302461e+01 -1.999293e+01 -2.484014e+01 -2.869940e+01 -2.453462e+01 -2.720146e+01 -1.841861e+01 -2.208538e+01 -1.532608e+01 -5.274918e+00 -1.135857e+01 -9.064642e-02 -7.438450e+00 -2.544592e-01 -4.034231e+00 -5.950845e-01 -2.204304e+00 -3.322887e-01 -1.102575e+00 -4.342682e-02 -4.359278e-01 2.518287e-01 7.376923e-04 5.384206e-01 3.445445e-01 7.823723e-01 6.730305e-01 9.776723e-01 9.760863e-01 1.156956e+00 1.210159e+00 1.377496e+00 1.374087e+00 1.599939e+00 1.518850e+00 1.769143e+00 1.715608e+00 1.868335e+00 1.918347e+00 1.953070e+00 2.074391e+00 2.099943e+00 2.151715e+00 2.269569e+00 2.214642e+00 2.416536e+00 2.334120e+00 2.465725e+00 2.499679e+00 2.532265e+00 2.653872e+00 2.578754e+00 2.659727e+00 2.676241e+00 2.647470e+00 2.818037e+00 2.721843e+00 2.880029e+00 2.852616e+00 2.874435e+00 2.982274e+00 2.894852e+00 3.035346e+00 3.006423e+00 3.024196e+00 3.129008e+00 3.022128e+00 3.188381e+00 3.115731e+00 3.170862e+00 3.231244e+00 3.149197e+00 3.302639e+00 3.215226e+00 3.285120e+00 3.322673e+00 3.254027e+00 3.409498e+00 3.293249e+00 3.383937e+00 3.396163e+00 3.381015e+00 3.504492e+00 3.361860e+00 3.487632e+00 3.448135e+00 3.408785e+00 3.535803e+00 3.417351e+00 3.557832e+00 3.505260e+00 3.501292e+00 3.601475e+00 3.470633e+00 3.624588e+00 3.542958e+00 3.573434e+00 3.636653e+00 3.525999e+00 3.675783e+00 3.578151e+00 3.628682e+00 3.667614e+00 3.569239e+00 3.724914e+00 3.591908e+00 3.684119e+00 3.678267e+00 3.620157e+00 3.749975e+00 3.618402e+00 3.706550e+00 3.695698e+00 3.675094e+00 3.786487e+00 3.619666e+00 3.776765e+00 3.701577e+00 3.674604e+00 3.766381e+00 3.647706e+00 3.780494e+00 3.708775e+00 3.706100e+00 3.789399e+00 3.647697e+00 3.809373e+00 3.690434e+00 3.746371e+00 3.767506e+00 3.675488e+00 3.805832e+00 3.693285e+00 3.749744e+00 3.768023e+00 3.670852e+00 3.821861e+00 3.660066e+00 3.776266e+00 3.730215e+00 3.696204e+00 3.793182e+00 3.663336e+00 3.746749e+00 3.720994e+00 3.697486e+00 3.793374e+00 3.619077e+00 3.800925e+00 3.687124e+00 3.686411e+00 3.734092e+00 3.634160e+00 3.746827e+00 3.665663e+00 3.664994e+00 3.729401e+00 3.585925e+00 3.750353e+00 3.594345e+00 3.682515e+00 3.652559e+00 3.595135e+00 3.687003e+00 3.577334e+00 3.626812e+00 3.632044e+00 3.533143e+00 3.675695e+00 3.488785e+00 3.628009e+00 3.533315e+00 3.535387e+00 3.577874e+00 3.470553e+00 3.527672e+00 3.498702e+00 3.457394e+00 3.537884e+00 3.361404e+00 3.562885e+00 3.398423e+00 3.436028e+00 3.415384e+00 3.356579e+00 3.415170e+00 3.342644e+00 3.322731e+00 3.373077e+00 3.219910e+00 3.378882e+00 3.178455e+00 3.299691e+00 3.197270e+00 3.190940e+00 3.202918e+00 3.125476e+00 3.126726e+00 3.133248e+00 3.009516e+00 3.137645e+00 2.917889e+00 3.071675e+00 2.904544e+00 2.953172e+00 2.894624e+00 2.844338e+00 2.829147e+00 2.809784e+00 2.701350e+00 2.785951e+00 2.569752e+00 2.723108e+00 2.498844e+00 2.592077e+00 2.446676e+00 2.445768e+00 2.369330e+00 2.337227e+00 2.221185e+00 2.257819e+00 2.045823e+00 2.157008e+00 1.885750e+00 1.987981e+00 1.752646e+00 1.775406e+00 1.589922e+00 1.549300e+00 1.350074e+00 1.321808e+00 1.035822e+00 1.026057e+00 6.600915e-01 6.063158e-01 1.854712e-01 -6.521907e-04 -5.306945e-01 -9.218732e-01 -1.779885e+00 -2.726961e+00 -4.552400e+00 -7.180514e+00 
-2.435298e+00 -4.117998e+00 -5.355863e+00 -5.363049e+00 -3.542228e+00 -4.764678e+00 -1.514480e+00 -1.174133e+00 -4.354828e+00 -8.802454e+00 -9.881582e+00 -1.562058e+01 -2.471149e+01 -3.100842e+01 -2.248418e+01 -3.365928e+01 -1.823513e+01 -1.981398e+01 -1.099827e+01 -1.530506e+01 -1.162599e+01 -8.670170e+00 -8.395641e+00 -7.758561e-01 -1.932069e+00 -3.543717e+00 -9.157011e-03 -1.593856e+00 -3.221775e-01 -6.409718e-01 -4.639614e-02 -8.438523e-02 3.058260e-01 2.780359e-01 6.374946e-01 5.297743e-01 9.174678e-01 7.558137e-01 1.131758e+00 1.005827e+00 1.293608e+00 1.249992e+00 1.439204e+00 1.432874e+00 1.636696e+00 1.551434e+00 1.837696e+00 1.658449e+00 1.981693e+00 1.836446e+00 2.047980e+00 2.024925e+00 2.104419e+00 2.163509e+00 2.239204e+00 2.208096e+00 2.401808e+00 2.249044e+00 2.542034e+00 2.353394e+00 2.551853e+00 2.510411e+00 2.616862e+00 2.737575e+00 2.672755e+00 2.672742e+00 2.743063e+00 2.632048e+00 2.891626e+00 2.688207e+00 2.930531e+00 2.833422e+00 2.901437e+00 2.975393e+00 2.904768e+00 3.017173e+00 3.031725e+00 2.979425e+00 3.166394e+00 2.960345e+00 3.221254e+00 3.068942e+00 3.172523e+00 3.199267e+00 3.132996e+00 3.275779e+00 3.206304e+00 3.225605e+00 3.329700e+00 3.180048e+00 3.431507e+00 3.212694e+00 3.365564e+00 3.329792e+00 3.353433e+00 3.498790e+00 3.340572e+00 3.437184e+00 3.432569e+00 3.324252e+00 3.544900e+00 3.324898e+00 3.545972e+00 3.436202e+00 3.461889e+00 3.554199e+00 3.417178e+00 3.571132e+00 3.513996e+00 3.488453e+00 3.627529e+00 3.425501e+00 3.670660e+00 3.496732e+00 3.589093e+00 3.608114e+00 3.513830e+00 3.679535e+00 3.543353e+00 3.604125e+00 3.656038e+00 3.523846e+00 3.750669e+00 3.514103e+00 3.668887e+00 3.616683e+00 3.625001e+00 3.760151e+00 3.562569e+00 3.716395e+00 3.667238e+00 3.574618e+00 3.761789e+00 3.544209e+00 3.761995e+00 3.631375e+00 3.656000e+00 3.737111e+00 3.584165e+00 3.757611e+00 3.651822e+00 3.659713e+00 3.752854e+00 3.573813e+00 3.803481e+00 3.606328e+00 3.712020e+00 3.710053e+00 3.616067e+00 3.783391e+00 3.608633e+00 3.705269e+00 3.712480e+00 3.605624e+00 3.802244e+00 3.562650e+00 3.723843e+00 3.652360e+00 3.659033e+00 3.770531e+00 3.562915e+00 3.755113e+00 3.663906e+00 3.596947e+00 3.743078e+00 3.543618e+00 3.751820e+00 3.601508e+00 3.636112e+00 3.693550e+00 3.544359e+00 3.723108e+00 3.573973e+00 3.619768e+00 3.663083e+00 3.516473e+00 3.716518e+00 3.508393e+00 3.624055e+00 3.599682e+00 3.511082e+00 3.666601e+00 3.468212e+00 3.592181e+00 3.553012e+00 3.477147e+00 3.627839e+00 3.402433e+00 3.555827e+00 3.467603e+00 3.469016e+00 3.544156e+00 3.343454e+00 3.560192e+00 3.425287e+00 3.389709e+00 3.478435e+00 3.312459e+00 3.487476e+00 3.324122e+00 3.362818e+00 3.389454e+00 3.248983e+00 3.412142e+00 3.225953e+00 3.302128e+00 3.286949e+00 3.176362e+00 3.318582e+00 3.119435e+00 3.219375e+00 3.171282e+00 3.084292e+00 3.204472e+00 2.998307e+00 3.123630e+00 3.033676e+00 2.982239e+00 3.059005e+00 2.872267e+00 2.993686e+00 2.881705e+00 2.845517e+00 2.893797e+00 2.715189e+00 2.840958e+00 2.688428e+00 2.687830e+00 2.682312e+00 2.538859e+00 2.634291e+00 2.461573e+00 2.476259e+00 2.432036e+00 2.307536e+00 2.367040e+00 2.184969e+00 2.196585e+00 2.122548e+00 1.992592e+00 2.022516e+00 1.802410e+00 1.815431e+00 1.652457e+00 1.544021e+00 1.432051e+00 1.259095e+00 1.090412e+00 9.444847e-01 6.145974e-01 4.713981e-01 5.608241e-02 -1.621986e-01 -6.875051e-01 -1.014034e+00 -1.781725e+00 
-4.369859e-01 1.045137e+00 2.350707e+00 1.973327e+00 1.922210e-02 -1.442302e+00 -2.928559e+00 -9.761376e+00 -1.202103e+01 -7.702338e+00 1.879443e+00 5.884274e+00 1.549489e+01 9.898785e-01 3.561408e-02 7.857073e+00 2.125790e+01 1.657166e+01 2.186370e+01 1.715371e+00 1.433019e+00 -1.723636e+00 -4.070904e-02 -3.520373e+00 5.357510e+00 -1.982638e+00 2.057775e+00 -1.604798e+00 4.642704e-01 -1.168402e+00 -1.123663e-01 -1.063889e+00 -2.242784e-01 -8.110797e-01 -2.036250e-01 -4.862549e-01 -1.223310e-01 -2.224567e-01 2.192339e-02 -7.630452e-02 2.023028e-01 2.261045e-02 3.502813e-01 1.662532e-01 3.965028e-01 3.540218e-01 4.173397e-01 5.089087e-01 5.004574e-01 5.534515e-01 6.509064e-01 5.676726e-01 7.847522e-01 6.351168e-01 8.143630e-01 7.773199e-01 8.051619e-01 9.080849e-01 8.292743e-01 9.474714e-01 9.646884e-01 9.541572e-01 1.146044e+00 1.096077e+00 1.189912e+00 1.024867e+00 1.096866e+00 1.191938e+00 1.085934e+00 1.223410e+00 1.161660e+00 1.199121e+00 1.288355e+00 1.181903e+00 1.354601e+00 1.253035e+00 1.326162e+00 1.363393e+00 1.293078e+00 1.438685e+00 1.340421e+00 1.413222e+00 1.439008e+00 1.375708e+00 1.521631e+00 1.400525e+00 1.505070e+00 1.491294e+00 1.462385e+00 1.577738e+00 1.458220e+00 1.571990e+00 1.549404e+00 1.537403e+00 1.639286e+00 1.579262e+00 1.680405e+00 1.560809e+00 1.582488e+00 1.692642e+00 1.569908e+00 1.694757e+00 1.611225e+00 1.646735e+00 1.702826e+00 1.607964e+00 1.742454e+00 1.653156e+00 1.697293e+00 1.731460e+00 1.649351e+00 1.786547e+00 1.673674e+00 1.748413e+00 1.744810e+00 1.698879e+00 1.810565e+00 1.699995e+00 1.785209e+00 1.769680e+00 1.732527e+00 1.838117e+00 1.712456e+00 1.823518e+00 1.782637e+00 1.776888e+00 1.830174e+00 1.769723e+00 1.868097e+00 1.763089e+00 1.771921e+00 1.880644e+00 1.760878e+00 1.880449e+00 1.783082e+00 1.828284e+00 1.855026e+00 1.780686e+00 1.888497e+00 1.805775e+00 1.841102e+00 1.865513e+00 1.787955e+00 1.915806e+00 1.790950e+00 1.878528e+00 1.848234e+00 1.825321e+00 1.904184e+00 1.809411e+00 1.880753e+00 1.865923e+00 1.825444e+00 1.922370e+00 1.794618e+00 1.910565e+00 1.850011e+00 1.857848e+00 1.869372e+00 1.823168e+00 1.903245e+00 1.813026e+00 1.817719e+00 1.922192e+00 1.806940e+00 1.925319e+00 1.812332e+00 1.877266e+00 1.866884e+00 1.827059e+00 1.897730e+00 1.831373e+00 1.853924e+00 1.876694e+00 1.800369e+00 1.919575e+00 1.784531e+00 1.888019e+00 1.827381e+00 1.835759e+00 1.868979e+00 1.807901e+00 1.849660e+00 1.848290e+00 1.796017e+00 1.888929e+00 1.758907e+00 1.881543e+00 1.794915e+00 1.823263e+00 1.780124e+00 1.764548e+00 1.798031e+00 1.747925e+00 1.738214e+00 1.843433e+00 1.727548e+00 1.844565e+00 1.713695e+00 1.803277e+00 1.741800e+00 1.754429e+00 1.756464e+00 1.736429e+00 1.714858e+00 1.757949e+00 1.662860e+00 1.775779e+00 1.630163e+00 1.744535e+00 1.643024e+00 1.694891e+00 1.650868e+00 1.656487e+00 1.622569e+00 1.662878e+00 1.567869e+00 1.664108e+00 1.519694e+00 1.642295e+00 1.509682e+00 1.588667e+00 1.495297e+00 1.539715e+00 1.467928e+00 1.517805e+00 1.407105e+00 1.493886e+00 1.349578e+00 1.461489e+00 1.305115e+00 1.396568e+00 1.261188e+00 1.334086e+00 1.202827e+00 1.274274e+00 1.117233e+00 1.210079e+00 1.032054e+00 1.119842e+00 9.405570e-01 9.999717e-01 8.235188e-01 8.697368e-01 6.502955e-01 7.003091e-01 4.216592e-01 4.463018e-01 1.244014e-01 4.792700e-02 -3.098360e-01 -4.647555e-01 -8.772643e-01 -1.005663e+00 -1.273076e+00 -1.020553e+00 
-8.578503e-01 -1.265980e+00 -1.233524e+00 -3.161000e+00 -6.775111e+00 -1.466673e+01 -2.649157e+01 -3.385921e+01 -2.339883e+01 -1.608278e+01 -1.182637e+01 -1.174345e+01 4.780191e+00 7.384695e+00 3.140072e+00 7.164248e+00 3.108499e+00 -2.824988e+00 -3.043452e+00 -6.974227e+00 -1.427547e+00 1.034548e+01 1.771834e+00 -2.213598e+00 5.168088e+00 3.337208e-01 2.331306e+00 1.915054e+00 1.160691e+00 1.298012e+00 6.686982e-01 4.285926e-01 4.065225e-01 1.915931e-02 1.652234e-01 -3.532780e-02 -2.225305e-02 -3.892718e-02 -7.354859e-02 -1.914108e-01 -5.642362e-03 -3.981378e-01 4.727992e-02 -4.572614e-01 -1.338183e-01 -3.342148e-01 -3.891815e-01 -2.160930e-01 -4.900585e-01 -3.771879e-01 -3.391272e-01 -6.384462e-01 -1.698062e-01 -7.679437e-01 -2.864481e-01 -5.890026e-01 -5.591169e-01 -3.838562e-01 -7.735269e-01 -4.071272e-01 -5.718122e-01 -6.544087e-01 -3.984131e-01 -9.664271e-01 -3.507022e-01 -8.577849e-01 -5.704623e-01 -5.108778e-01 -8.893158e-01 -4.147254e-01 -8.457020e-01 -6.722663e-01 -5.511368e-01 -9.895659e-01 -3.489915e-01 -1.008553e+00 -5.842000e-01 -7.147465e-01 -9.192214e-01 -4.576593e-01 -1.024811e+00 -6.293319e-01 -7.418102e-01 -9.573034e-01 -4.485512e-01 -1.142864e+00 -5.218639e-01 -8.868037e-01 -8.452955e-01 -5.807705e-01 -1.123781e+00 -5.219314e-01 -8.795489e-01 -8.258548e-01 -6.450359e-01 -1.218638e+00 -4.944863e-01 -1.098458e+00 -7.288928e-01 -6.629660e-01 -1.100997e+00 -4.991929e-01 -1.081516e+00 -7.550325e-01 -7.299405e-01 -1.115647e+00 -4.571935e-01 -1.182851e+00 -6.661342e-01 -8.527282e-01 -1.022536e+00 -5.363245e-01 -1.189266e+00 -6.500591e-01 -8.960590e-01 -9.937924e-01 -5.578377e-01 -1.246983e+00 -5.404615e-01 -1.008197e+00 -8.830438e-01 -6.611398e-01 -1.208295e+00 -5.200144e-01 -1.003622e+00 -8.356349e-01 -7.504975e-01 -1.263492e+00 -5.162473e-01 -1.197768e+00 -7.431710e-01 -7.311879e-01 -1.125299e+00 -5.148857e-01 -1.166078e+00 -7.303527e-01 -8.105460e-01 -1.099391e+00 -4.981391e-01 -1.233434e+00 -6.413657e-01 -9.182382e-01 -9.934121e-01 -5.765984e-01 -1.224715e+00 -5.945140e-01 -9.655545e-01 -9.392103e-01 -6.071156e-01 -1.235481e+00 -5.031252e-01 -1.049157e+00 -8.362379e-01 -6.884520e-01 -1.180241e+00 -4.799876e-01 -1.041623e+00 -7.763613e-01 -7.853060e-01 -1.202327e+00 -5.049135e-01 -1.212669e+00 -6.868559e-01 -7.473310e-01 -1.053312e+00 -4.981698e-01 -1.159970e+00 -6.445567e-01 -8.333084e-01 -9.956615e-01 -5.069044e-01 -1.189235e+00 -5.558413e-01 -9.185938e-01 -8.897188e-01 -5.722395e-01 -1.156961e+00 -4.967455e-01 -9.571179e-01 -8.178215e-01 -5.998741e-01 -1.121603e+00 -4.299682e-01 -1.001258e+00 -7.219619e-01 -6.516915e-01 -1.050220e+00 -4.005217e-01 -9.840397e-01 -6.460041e-01 -7.451308e-01 -1.036110e+00 -4.531303e-01 -1.112128e+00 -5.583262e-01 -6.826509e-01 -8.748205e-01 -4.274221e-01 -1.028101e+00 -4.805355e-01 -7.590338e-01 -7.837882e-01 -4.479786e-01 -9.962002e-01 -3.991422e-01 -7.928850e-01 -6.834581e-01 -4.684844e-01 -9.301024e-01 -3.284428e-01 -7.960030e-01 -5.782844e-01 -4.762753e-01 -8.347194e-01 -2.801384e-01 -7.790440e-01 -4.864766e-01 -4.737977e-01 -7.362104e-01 -2.409772e-01 -7.536201e-01 -3.824463e-01 -4.742508e-01 -6.117800e-01 -2.254474e-01 -6.888749e-01 -2.854060e-01 -4.494941e-01 -4.862020e-01 -2.027539e-01 -6.035798e-01 -1.704051e-01 -4.155642e-01 -3.494394e-01 -1.759315e-01 -4.799620e-01 -8.301287e-02 -3.533403e-01 -2.241520e-01 -1.352878e-01 -3.308875e-01 -6.294195e-03 -2.149266e-01 -8.088103e-02 1.551590e-02 -1.108493e-01 1.528371e-01 -9.752340e-03 1.439014e-01 1.389776e-01 1.453708e-01 3.134232e-02 -1.054244e-02 -3.308310e-01 -4.300318e-01 -8.514978e-01 
1.285856e-01 6.109316e-01 6.439101e-01 -2.349520e-01 -3.302492e+00 -8.199576e+00 -1.269370e+01 -1.341936e+01 -1.204019e+01 -1.555827e+01 -2.061321e+01 -1.470173e+01 -1.474975e+01 -1.251087e+01 -1.688853e+01 -1.863435e+01 -2.845711e+01 -2.560985e+01 -2.814263e+01 -1.416878e+01 -1.254571e+01 -1.124489e+01 5.768599e-01 -1.041000e+01 -3.646670e+00 -6.741194e+00 -2.149216e+00 -3.055743e+00 -9.860691e-01 -1.487219e+00 -4.385419e-01 -7.957758e-01 -1.384276e-01 -4.687796e-01 3.358594e-02 -2.249811e-01 1.219250e-01 -2.688939e-02 2.024284e-01 8.076514e-02 3.082162e-01 1.214425e-01 4.008996e-01 1.840755e-01 3.956075e-01 3.013760e-01 3.398190e-01 4.080889e-01 3.383891e-01 3.892899e-01 4.365489e-01 3.124267e-01 5.419478e-01 2.908079e-01 5.135122e-01 4.006095e-01 4.091360e-01 5.257093e-01 3.381840e-01 5.265469e-01 4.482460e-01 4.004340e-01 4.454948e-01 1.395511e-01 5.255246e-01 3.631662e-01 4.578424e-01 5.557312e-01 3.486360e-01 6.084711e-01 3.769851e-01 4.747306e-01 5.366370e-01 3.151543e-01 6.306792e-01 3.216489e-01 5.034411e-01 4.833153e-01 3.277506e-01 6.136094e-01 2.922441e-01 5.135833e-01 4.504742e-01 3.358226e-01 6.082738e-01 2.562972e-01 5.549550e-01 4.038317e-01 3.762831e-01 5.779204e-01 2.438842e-01 5.860766e-01 3.933525e-01 4.162917e-01 4.685229e-01 1.472594e-01 5.796144e-01 2.867963e-01 4.138180e-01 5.377529e-01 2.583894e-01 6.204225e-01 2.746875e-01 4.593837e-01 4.812334e-01 2.575274e-01 6.163715e-01 2.394219e-01 4.821016e-01 4.313561e-01 2.734577e-01 6.015387e-01 2.005337e-01 5.160039e-01 3.731738e-01 3.102863e-01 5.664828e-01 1.840486e-01 5.498585e-01 3.309979e-01 3.435439e-01 5.353797e-01 1.695964e-01 5.820460e-01 3.066283e-01 3.998459e-01 4.223232e-01 1.316348e-01 5.817476e-01 2.066257e-01 3.841859e-01 4.805789e-01 2.048213e-01 5.931138e-01 1.835492e-01 4.420664e-01 4.008609e-01 2.225733e-01 5.679655e-01 1.634856e-01 4.612623e-01 3.525517e-01 2.418132e-01 5.486707e-01 1.229772e-01 5.094431e-01 2.814678e-01 2.924212e-01 4.942224e-01 1.281877e-01 5.238578e-01 2.488439e-01 3.113854e-01 4.653822e-01 1.091140e-01 5.527253e-01 2.096297e-01 3.728889e-01 3.480946e-01 1.204488e-01 5.390779e-01 1.210603e-01 3.491562e-01 3.983374e-01 1.550380e-01 5.309256e-01 8.495215e-02 4.124859e-01 2.880488e-01 1.893139e-01 4.742589e-01 8.294434e-02 4.155667e-01 2.476801e-01 1.942704e-01 4.549707e-01 3.539673e-02 4.682002e-01 1.586417e-01 2.530355e-01 3.738754e-01 6.296371e-02 4.450257e-01 1.403107e-01 2.424851e-01 3.503957e-01 2.404439e-02 4.713775e-01 7.158933e-02 3.083689e-01 2.244553e-01 9.528755e-02 4.233490e-01 7.456503e-03 2.664495e-01 2.628770e-01 6.187337e-02 3.977491e-01 -5.917778e-02 3.303992e-01 1.057359e-01 1.158535e-01 2.904181e-01 -3.086037e-02 2.872119e-01 8.764946e-02 7.548409e-02 2.840965e-01 -1.063748e-01 3.410768e-01 -3.703046e-02 1.483422e-01 1.524708e-01 -4.880159e-02 2.468115e-01 -3.235772e-02 7.390737e-02 1.474506e-01 -1.325628e-01 2.726722e-01 -1.759804e-01 1.396033e-01 -2.070701e-02 -5.986235e-02 1.152538e-01 -1.516611e-01 2.841547e-02 -2.468950e-02 -1.654839e-01 1.146907e-01 -3.061208e-01 9.262326e-02 -2.271592e-01 -9.192309e-02 -1.020604e-01 -2.543484e-01 -8.898496e-02 -2.243800e-01 -2.672142e-01 -1.136030e-01 -4.396979e-01 -6.471892e-02 -4.359779e-01 -1.914165e-01 -3.157700e-01 -2.927955e-01 -2.487269e-01 -2.572254e-01 -2.978958e-01 -9.903283e-02 -2.818506e-01 -9.074014e-02 -2.691887e-01 -1.538252e-01 -2.674471e-01 -8.015392e-03 
1.714890e-01 4.076417e-02 3.007397e-01 2.609876e-01 6.065694e-01 2.060005e+00 5.392981e+00 6.267729e+00 3.070571e+00 4.639638e+00 4.815891e+00 7.686414e+00 -5.904125e+00 7.108149e-01 7.984424e-01 7.526154e-01 8.815949e-01 2.119673e-01 -5.602638e-01 -4.587457e-01 -9.954949e-01 -1.247681e+01 -1.934094e+00 1.284834e+00 -6.838139e+00 4.767723e-01 -2.672147e+00 -1.527484e+00 -8.341406e-01 -9.064330e-01 -1.122765e-01 -1.528337e-01 3.431637e-01 3.262303e-01 7.208654e-01 6.154648e-01 1.031666e+00 8.545824e-01 1.254873e+00 1.119546e+00 1.410988e+00 1.372418e+00 1.551091e+00 1.548242e+00 1.750870e+00 1.652674e+00 1.949026e+00 1.749651e+00 2.079981e+00 1.924279e+00 2.129612e+00 2.104033e+00 2.174733e+00 2.227664e+00 2.301309e+00 2.256134e+00 2.451323e+00 2.286856e+00 2.573269e+00 2.377185e+00 2.559107e+00 2.493229e+00 2.552350e+00 2.591001e+00 2.581111e+00 2.671123e+00 2.774906e+00 2.654923e+00 2.894040e+00 2.684134e+00 2.905369e+00 2.805878e+00 2.867535e+00 2.918219e+00 2.861303e+00 2.948057e+00 2.968088e+00 2.906391e+00 3.076158e+00 2.886943e+00 3.121224e+00 2.976685e+00 3.071035e+00 3.082643e+00 3.037437e+00 3.146664e+00 3.093775e+00 3.097695e+00 3.194981e+00 3.062126e+00 3.277937e+00 3.079192e+00 3.219716e+00 3.163556e+00 3.178857e+00 3.278951e+00 3.160323e+00 3.244753e+00 3.264686e+00 3.189607e+00 3.370015e+00 3.170417e+00 3.360310e+00 3.258964e+00 3.290815e+00 3.346556e+00 3.248495e+00 3.364752e+00 3.321533e+00 3.292276e+00 3.405785e+00 3.242447e+00 3.445372e+00 3.291673e+00 3.374508e+00 3.376933e+00 3.318970e+00 3.435177e+00 3.331142e+00 3.374379e+00 3.419117e+00 3.314628e+00 3.491769e+00 3.291844e+00 3.433782e+00 3.365358e+00 3.379840e+00 3.491352e+00 3.339086e+00 3.433311e+00 3.405131e+00 3.357933e+00 3.496369e+00 3.311043e+00 3.489152e+00 3.375514e+00 3.408017e+00 3.450933e+00 3.348853e+00 3.474387e+00 3.392352e+00 3.393167e+00 3.464534e+00 3.330630e+00 3.507218e+00 3.342231e+00 3.434768e+00 3.419194e+00 3.364842e+00 3.473626e+00 3.344138e+00 3.416980e+00 3.420972e+00 3.341665e+00 3.483653e+00 3.292063e+00 3.434853e+00 3.352503e+00 3.373163e+00 3.478370e+00 3.317842e+00 3.419367e+00 3.353102e+00 3.328468e+00 3.424673e+00 3.262218e+00 3.423041e+00 3.298867e+00 3.336588e+00 3.361160e+00 3.266381e+00 3.386905e+00 3.273993e+00 3.305151e+00 3.334478e+00 3.230231e+00 3.371266e+00 3.206258e+00 3.302591e+00 3.268706e+00 3.217271e+00 3.310013e+00 3.168411e+00 3.258278e+00 3.222944e+00 3.168122e+00 3.265738e+00 3.096360e+00 3.221891e+00 3.131452e+00 3.157278e+00 3.247423e+00 3.087019e+00 3.181759e+00 3.079155e+00 3.071687e+00 3.114162e+00 2.986064e+00 3.107309e+00 2.981681e+00 3.015529e+00 3.018113e+00 2.929349e+00 3.026597e+00 2.891651e+00 2.942296e+00 2.922512e+00 2.846075e+00 2.929722e+00 2.783463e+00 2.854404e+00 2.804223e+00 2.747585e+00 2.807410e+00 2.666638e+00 2.744843e+00 2.670352e+00 2.630402e+00 2.663602e+00 2.536029e+00 2.608129e+00 2.516275e+00 2.486405e+00 2.497383e+00 2.380349e+00 2.443486e+00 2.330807e+00 2.317277e+00 2.296535e+00 2.199307e+00 2.235606e+00 2.113030e+00 2.106557e+00 2.058354e+00 1.972351e+00 1.976778e+00 1.857126e+00 1.837377e+00 1.775745e+00 1.677976e+00 1.666777e+00 1.524461e+00 1.504446e+00 1.389406e+00 1.314033e+00 1.215663e+00 1.130785e+00 9.991693e-01 9.443230e-01 7.612002e-01 7.211385e-01 5.225817e-01 4.862406e-01 2.636659e-01 2.682319e-01 5.289067e-02 
4.212940e-01 6.179726e-01 4.795623e-01 3.703277e-01 -1.182508e-01 -1.142308e-01 1.937997e-01 2.210080e+00 1.960531e+00 -1.532612e+00 1.056378e-01 1.978641e+00 -1.285502e+00 -3.675170e-01 9.802001e-02 7.539587e-01 3.009949e-01 -2.164479e-03 -5.887734e-01 -8.850178e-01 -4.771496e-01 -1.334357e+00 -4.070724e+00 -5.962586e-01 -2.555204e+00 -1.534973e+00 -1.277691e+00 -1.789863e+00 -8.145524e-01 -1.333992e+00 -4.034644e-01 -7.027879e-01 -3.531055e-02 -1.904099e-01 2.959384e-01 1.822730e-01 5.997119e-01 4.836905e-01 8.524199e-01 7.807066e-01 1.048128e+00 1.065968e+00 1.221388e+00 1.289199e+00 1.435877e+00 1.441853e+00 1.657104e+00 1.574765e+00 1.823126e+00 1.766909e+00 1.913971e+00 1.970168e+00 1.988739e+00 2.122330e+00 2.134602e+00 2.186904e+00 2.305789e+00 2.235122e+00 2.446164e+00 2.344826e+00 2.463293e+00 2.487197e+00 2.506404e+00 2.634184e+00 2.569676e+00 2.735478e+00 2.767052e+00 2.696998e+00 2.876834e+00 2.749142e+00 2.914383e+00 2.883882e+00 2.886537e+00 3.019260e+00 2.900916e+00 3.057515e+00 3.025326e+00 3.027680e+00 3.158265e+00 3.017513e+00 3.206998e+00 3.126317e+00 3.169974e+00 3.254072e+00 3.137328e+00 3.320394e+00 3.217108e+00 3.280541e+00 3.337536e+00 3.235526e+00 3.425422e+00 3.282265e+00 3.362878e+00 3.382964e+00 3.350150e+00 3.500361e+00 3.325108e+00 3.506916e+00 3.487799e+00 3.399263e+00 3.560818e+00 3.405301e+00 3.562376e+00 3.511946e+00 3.480276e+00 3.619419e+00 3.447020e+00 3.625400e+00 3.541622e+00 3.551270e+00 3.650040e+00 3.495662e+00 3.678871e+00 3.569729e+00 3.607330e+00 3.675817e+00 3.535302e+00 3.731727e+00 3.575492e+00 3.662786e+00 3.681196e+00 3.583764e+00 3.759630e+00 3.593937e+00 3.678324e+00 3.681683e+00 3.644209e+00 3.792686e+00 3.572368e+00 3.775080e+00 3.715208e+00 3.636795e+00 3.773200e+00 3.614901e+00 3.773656e+00 3.701509e+00 3.671403e+00 3.796878e+00 3.608702e+00 3.803174e+00 3.676523e+00 3.714378e+00 3.771236e+00 3.632211e+00 3.805185e+00 3.671966e+00 3.720746e+00 3.767529e+00 3.626722e+00 3.825398e+00 3.631608e+00 3.749456e+00 3.725937e+00 3.652362e+00 3.801019e+00 3.629525e+00 3.719620e+00 3.708438e+00 3.671100e+00 3.807229e+00 3.569362e+00 3.792267e+00 3.681045e+00 3.632879e+00 3.728839e+00 3.588617e+00 3.737366e+00 3.647559e+00 3.626085e+00 3.729274e+00 3.538611e+00 3.744286e+00 3.570284e+00 3.648219e+00 3.649580e+00 3.545941e+00 3.687268e+00 3.545551e+00 3.597377e+00 3.625176e+00 3.485866e+00 3.678619e+00 3.451582e+00 3.602470e+00 3.523915e+00 3.491013e+00 3.586322e+00 3.430914e+00 3.509926e+00 3.492307e+00 3.443636e+00 3.563214e+00 3.318140e+00 3.550417e+00 3.368005e+00 3.371235e+00 3.398926e+00 3.303052e+00 3.407834e+00 3.313805e+00 3.286187e+00 3.366264e+00 3.171046e+00 3.376834e+00 3.145936e+00 3.270122e+00 3.190060e+00 3.143767e+00 3.206916e+00 3.086900e+00 3.105194e+00 3.122059e+00 2.968451e+00 3.142390e+00 2.878328e+00 3.057035e+00 2.893422e+00 2.917340e+00 2.902115e+00 2.803383e+00 2.825882e+00 2.795854e+00 2.676478e+00 2.792876e+00 2.535870e+00 2.730217e+00 2.488219e+00 2.578913e+00 2.459411e+00 2.422531e+00 2.394564e+00 2.330654e+00 2.230951e+00 2.281506e+00 2.049338e+00 2.205753e+00 1.905537e+00 2.036867e+00 1.816388e+00 1.833360e+00 1.701669e+00 1.640687e+00 1.497617e+00 1.494686e+00 1.239953e+00 1.310134e+00 9.881836e-01 1.055491e+00 7.652782e-01 7.517747e-01 5.129128e-01 5.308737e-01 3.199375e-01 4.282470e-01 2.954775e-01 4.798617e-01 
9.003154e-01 9.086746e-01 1.179651e+00 1.378385e+00 1.846028e+00 2.522086e+00 3.359249e+00 3.709669e+00 2.246676e+00 -4.082473e+00 -3.862366e+00 -5.272207e+00 -1.733853e+00 2.015379e-01 -1.272109e-01 3.634377e-01 1.392586e-01 8.356715e-02 -2.561253e-01 -2.931126e-01 -4.674541e-01 -9.419013e-01 -1.978559e+00 -3.973217e+00 -9.168728e-01 -1.873076e+00 -1.016590e+00 -1.061579e+00 -4.017313e-01 -5.453572e-01 9.912517e-02 -4.369150e-02 4.768633e-01 3.599376e-01 7.915507e-01 6.691605e-01 1.059799e+00 9.273726e-01 1.283760e+00 1.169313e+00 1.468525e+00 1.395266e+00 1.633622e+00 1.586960e+00 1.809144e+00 1.735543e+00 1.984778e+00 1.865471e+00 2.133769e+00 2.016286e+00 2.235104e+00 2.176572e+00 2.317662e+00 2.315943e+00 2.426879e+00 2.401076e+00 2.557998e+00 2.462857e+00 2.678502e+00 2.543707e+00 2.736438e+00 2.659916e+00 2.770401e+00 2.775719e+00 2.850463e+00 2.889266e+00 2.955890e+00 2.899539e+00 3.068332e+00 2.931848e+00 3.126336e+00 3.018928e+00 3.133621e+00 3.127987e+00 3.140997e+00 3.196512e+00 3.214581e+00 3.202289e+00 3.315158e+00 3.197360e+00 3.387252e+00 3.255442e+00 3.387975e+00 3.350115e+00 3.369005e+00 3.430243e+00 3.402117e+00 3.435576e+00 3.485937e+00 3.411042e+00 3.568760e+00 3.418470e+00 3.572045e+00 3.498522e+00 3.549845e+00 3.577183e+00 3.551222e+00 3.630999e+00 3.606437e+00 3.577237e+00 3.698224e+00 3.558749e+00 3.729813e+00 3.609461e+00 3.692315e+00 3.695153e+00 3.651667e+00 3.740795e+00 3.690584e+00 3.709307e+00 3.769440e+00 3.661231e+00 3.826333e+00 3.681003e+00 3.800880e+00 3.753357e+00 3.747232e+00 3.821000e+00 3.741049e+00 3.807347e+00 3.806413e+00 3.752284e+00 3.878838e+00 3.724329e+00 3.870455e+00 3.787904e+00 3.829167e+00 3.853905e+00 3.792498e+00 3.889629e+00 3.818475e+00 3.811573e+00 3.899934e+00 3.769329e+00 3.927691e+00 3.796970e+00 3.875468e+00 3.868852e+00 3.812286e+00 3.910163e+00 3.824901e+00 3.868349e+00 3.888177e+00 3.801461e+00 3.941303e+00 3.790561e+00 3.910143e+00 3.847742e+00 3.840433e+00 3.909041e+00 3.806173e+00 3.892352e+00 3.855515e+00 3.823669e+00 3.919015e+00 3.772220e+00 3.910091e+00 3.819785e+00 3.858739e+00 3.874843e+00 3.801282e+00 3.900124e+00 3.797011e+00 3.812462e+00 3.866056e+00 3.755481e+00 3.892307e+00 3.758975e+00 3.835171e+00 3.813573e+00 3.758426e+00 3.850506e+00 3.742168e+00 3.805580e+00 3.786687e+00 3.726961e+00 3.830748e+00 3.687406e+00 3.797133e+00 3.724510e+00 3.716221e+00 3.771610e+00 3.657351e+00 3.751532e+00 3.683288e+00 3.673012e+00 3.728086e+00 3.601281e+00 3.715691e+00 3.624683e+00 3.653059e+00 3.660336e+00 3.578488e+00 3.660766e+00 3.532242e+00 3.566850e+00 3.576710e+00 3.495209e+00 3.589093e+00 3.464950e+00 3.523455e+00 3.488018e+00 3.431405e+00 3.503102e+00 3.377985e+00 3.446819e+00 3.387710e+00 3.351252e+00 3.399986e+00 3.277697e+00 3.349247e+00 3.274132e+00 3.249548e+00 3.280600e+00 3.159244e+00 3.236420e+00 3.138116e+00 3.134788e+00 3.132418e+00 3.031705e+00 3.089477e+00 2.990063e+00 2.984222e+00 2.969308e+00 2.869094e+00 2.923684e+00 2.801708e+00 2.814559e+00 2.761341e+00 2.687328e+00 2.706329e+00 2.588627e+00 2.591534e+00 2.524533e+00 2.450360e+00 2.449059e+00 2.323512e+00 2.319161e+00 2.231681e+00 2.153136e+00 2.127475e+00 1.986246e+00 1.971205e+00 1.842557e+00 1.771942e+00 1.675706e+00 1.566896e+00 1.459223e+00 1.369652e+00 1.198826e+00 1.148232e+00 9.697444e-01 9.485078e-01 8.049892e-01 8.501901e-01 7.570680e-01 