# vtk DataFile Version 2.0
Comment goes here
ASCII

DATASET STRUCTURED_POINTS
FIELD FieldData 1
TIME 1 1 double
0.03900000
DIMENSIONS    256   32   1

ORIGIN    0.000   0.000   0.000
SPACING   0.0078125 0.0078125   1.000

POINT_DATA   8192
SCALARS uX double
LOOKUP_TABLE default

-1.197071e-02 -2.948770e-02 -5.628019e-02 -9.008467e-02 -1.369097e-01 -1.856006e-01 -2.216753e-01 -1.963000e-01 -2.372272e-01 -2.108931e-01 -2.470929e-01 -2.812645e-01 -2.781676e-01 -3.758646e-01 -4.193438e-01 -3.265956e-01 -4.310561e-01 -3.962805e-01 -3.767159e-01 -4.780325e-01 -2.772506e-01 -3.019511e-01 -3.384136e-01 -1.461796e-01 -2.663121e-01 -1.614804e-01 -1.547896e-01 -2.287594e-01 -8.545435e-02 -2.246585e-01 -1.025732e-01 -1.476738e-01 -1.665723e-01 -6.989659e-02 -1.802449e-01 -7.174289e-02 -1.287495e-01 -1.234143e-01 -5.150618e-02 -1.457251e-01 -4.362088e-02 -1.108103e-01 -8.381815e-02 -3.969402e-02 -1.116026e-01 -2.410465e-02 -8.981672e-02 -5.287627e-02 -2.940091e-02 -8.293175e-02 -8.550308e-03 -7.129426e-02 -2.736775e-02 -2.330452e-02 -5.726177e-02 1.752275e-03 -5.361844e-02 -8.381262e-03 -1.894769e-02 -3.573513e-02 1.049279e-02 -3.827342e-02 7.366592e-03 -1.071594e-02 -1.496633e-02 1.462893e-02 -2.371085e-02 1.745033e-02 -6.830416e-03 -1.097023e-03 2.127664e-02 -1.073346e-02 2.567122e-02 2.876633e-04 1.220751e-02 2.516936e-02 1.368400e-03 3.187386e-02 8.107662e-03 2.254524e-02 2.851655e-02 1.125242e-02 3.701519e-02 1.463207e-02 3.127573e-02 3.019942e-02 2.037922e-02 4.039789e-02 2.118152e-02 3.747245e-02 3.249873e-02 2.780343e-02 4.404173e-02 2.682728e-02 4.315699e-02 3.666374e-02 3.581055e-02 4.560173e-02 3.233086e-02 4.605341e-02 3.827135e-02 3.947666e-02 4.764166e-02 3.641435e-02 4.881697e-02 4.053839e-02 4.408314e-02 4.885586e-02 4.067392e-02 5.080967e-02 4.340623e-02 4.735869e-02 5.020150e-02 4.356525e-02 5.283236e-02 4.518424e-02 5.044747e-02 5.052381e-02 4.657312e-02 5.401054e-02 4.755272e-02 5.251054e-02 5.207124e-02 4.904406e-02 5.616275e-02 4.968389e-02 5.522869e-02 5.432364e-02 5.288690e-02 5.725599e-02 5.185963e-02 5.604504e-02 5.463837e-02 5.298388e-02 5.756757e-02 5.241454e-02 5.692917e-02 5.459045e-02 5.451990e-02 5.764546e-02 5.363122e-02 5.755652e-02 5.545911e-02 5.560400e-02 5.834440e-02 5.413830e-02 5.885018e-02 5.563704e-02 5.714536e-02 5.832676e-02 5.523830e-02 5.937353e-02 5.642262e-02 5.788151e-02 5.903853e-02 5.588537e-02 6.079077e-02 5.696118e-02 5.954747e-02 6.030958e-02 5.844128e-02 6.162056e-02 5.807724e-02 6.005336e-02 6.015687e-02 5.783802e-02 6.167868e-02 5.767536e-02 6.068135e-02 5.927897e-02 5.870754e-02 6.120718e-02 5.769997e-02 6.073370e-02 5.894508e-02 5.875191e-02 6.093208e-02 5.690257e-02 6.103497e-02 5.780380e-02 5.910917e-02 5.980733e-02 5.684493e-02 6.053687e-02 5.751925e-02 5.886129e-02 5.963217e-02 5.665151e-02 6.113838e-02 5.730261e-02 5.981064e-02 6.016192e-02 5.845875e-02 6.142148e-02 5.783429e-02 5.956629e-02 5.960769e-02 5.734541e-02 6.086647e-02 5.697092e-02 5.970514e-02 5.853823e-02 5.780927e-02 6.019817e-02 5.686103e-02 5.951754e-02 5.831856e-02 5.760545e-02 6.005234e-02 5.611508e-02 5.973287e-02 5.732950e-02 5.776036e-02 5.903213e-02 5.595755e-02 5.911605e-02 5.696945e-02 5.717519e-02 5.867913e-02 5.526178e-02 5.913227e-02 5.606329e-02 5.731635e-02 5.784951e-02 5.549169e-02 5.873776e-02 5.602391e-02 5.710856e-02 5.794457e-02 5.541583e-02 5.923529e-02 5.551433e-02 5.782488e-02 5.764633e-02 5.611313e-02 5.920813e-02 5.583394e-02 5.810142e-02 5.803723e-02 5.632061e-02 5.972744e-02 5.567265e-02 5.892190e-02 5.774538e-02 5.699885e-02 5.944119e-02 5.552654e-02 5.865079e-02 5.742280e-02 5.859078e-02 5.741303e-02 4.366859e-02 3.204637e-02 2.279923e-02 1.276024e-02 2.825106e-03 
-2.067066e-03 -2.041300e-02 -4.307267e-02 -7.963703e-02 -1.246985e-01 -1.849916e-01 -2.092715e-01 -1.882868e-01 -2.239637e-01 -2.111302e-01 -2.433651e-01 -3.117915e-01 -2.811401e-01 -4.649011e-01 -5.029767e-01 -4.220005e-01 -5.278752e-01 -4.769075e-01 -4.603167e-01 -5.249364e-01 -3.413806e-01 -2.919468e-01 -3.685791e-01 -1.230849e-01 -2.780569e-01 -1.351459e-01 -1.489253e-01 -2.158682e-01 -7.029755e-02 -2.140450e-01 -8.716779e-02 -1.347357e-01 -1.605059e-01 -5.181728e-02 -1.751079e-01 -5.629297e-02 -1.215693e-01 -1.163850e-01 -3.723635e-02 -1.416563e-01 -3.096450e-02 -1.059469e-01 -7.692758e-02 -2.821706e-02 -1.084009e-01 -1.378711e-02 -8.602583e-02 -4.653953e-02 -1.982159e-02 -8.095351e-02 7.364089e-04 -6.899716e-02 -2.058771e-02 -1.665398e-02 -5.496588e-02 9.072989e-03 -5.110774e-02 -2.682686e-03 -1.386955e-02 -3.420964e-02 1.750694e-02 -3.781811e-02 1.310968e-02 -5.168204e-03 -1.190913e-02 1.756813e-02 -2.257619e-02 2.252212e-02 -4.200549e-03 8.242430e-04 2.645827e-02 -9.883622e-03 3.022831e-02 1.482415e-03 1.507091e-02 2.883471e-02 2.772912e-03 3.520526e-02 9.664970e-03 2.473271e-02 3.201184e-02 1.180399e-02 4.057926e-02 1.525928e-02 3.411298e-02 3.204046e-02 2.161340e-02 4.288905e-02 2.237185e-02 3.942897e-02 3.428951e-02 2.832184e-02 4.691336e-02 2.672060e-02 4.544945e-02 3.838473e-02 3.736792e-02 4.635670e-02 3.297957e-02 4.759512e-02 3.944830e-02 4.014148e-02 4.963239e-02 3.664341e-02 5.071469e-02 4.083484e-02 4.558767e-02 4.988690e-02 4.163192e-02 5.184860e-02 4.436377e-02 4.815435e-02 5.164643e-02 4.379676e-02 5.445249e-02 4.537319e-02 5.191406e-02 5.091764e-02 4.752292e-02 5.478090e-02 4.835110e-02 5.313602e-02 5.291261e-02 4.921884e-02 5.748930e-02 4.947902e-02 5.632472e-02 5.481233e-02 5.399193e-02 5.735574e-02 5.243383e-02 5.640455e-02 5.543828e-02 5.321411e-02 5.851979e-02 5.251051e-02 5.795508e-02 5.464184e-02 5.555715e-02 5.785029e-02 5.448314e-02 5.786508e-02 5.623590e-02 5.593105e-02 5.917372e-02 5.427384e-02 5.985375e-02 5.565909e-02 5.816654e-02 5.832286e-02 5.607799e-02 5.958848e-02 5.707570e-02 5.809542e-02 5.960536e-02 5.591680e-02 6.162828e-02 5.664621e-02 6.023775e-02 6.050200e-02 5.937239e-02 6.140984e-02 5.860244e-02 6.009489e-02 6.083441e-02 5.790759e-02 6.231133e-02 5.771136e-02 6.144625e-02 5.923528e-02 5.959696e-02 6.115971e-02 5.850659e-02 6.083905e-02 5.963563e-02 5.895607e-02 6.159187e-02 5.700665e-02 6.188647e-02 5.776432e-02 6.003572e-02 5.970253e-02 5.766841e-02 6.063183e-02 5.813908e-02 5.900545e-02 6.014649e-02 5.668289e-02 6.187708e-02 5.701772e-02 6.051305e-02 6.022846e-02 5.931983e-02 6.130431e-02 5.840301e-02 5.950895e-02 6.030802e-02 5.736896e-02 6.147961e-02 5.704286e-02 6.041374e-02 5.856294e-02 5.864610e-02 6.017219e-02 5.772127e-02 5.956583e-02 5.910791e-02 5.774765e-02 6.078614e-02 5.627546e-02 6.051975e-02 5.741952e-02 5.861754e-02 5.906517e-02 5.684578e-02 5.918132e-02 5.780294e-02 5.730304e-02 5.946904e-02 5.543068e-02 5.991652e-02 5.620453e-02 5.814785e-02 5.795432e-02 5.637508e-02 5.880181e-02 5.692100e-02 5.719417e-02 5.880892e-02 5.555738e-02 6.004605e-02 5.571065e-02 5.861582e-02 5.781753e-02 5.697250e-02 5.932043e-02 5.679503e-02 5.815079e-02 5.900924e-02 5.644866e-02 6.066757e-02 5.592227e-02 5.980903e-02 5.803514e-02 5.803779e-02 5.972398e-02 5.682169e-02 5.891222e-02 5.905527e-02 5.951061e-02 6.057699e-02 4.684353e-02 3.723556e-02 2.762198e-02 2.008812e-02 9.507050e-03 
-2.135343e-03 -1.514429e-02 -3.700197e-02 -6.696705e-02 -1.143591e-01 -1.758753e-01 -1.816697e-01 -1.341718e-01 -1.780120e-01 -1.167050e-01 -1.437229e-01 -1.137493e-01 -1.562789e-02 -3.276370e-02 -7.584085e-03 1.007775e-01 4.801728e-02 6.108310e-02 1.182463e-01 -4.521739e-02 5.215023e-02 -1.469354e-02 -1.735712e-01 -3.173930e-02 -2.128366e-01 -9.128045e-02 -9.302029e-02 -2.015387e-01 -2.326089e-02 -2.056406e-01 -5.377166e-02 -1.175738e-01 -1.521178e-01 -2.320846e-02 -1.730227e-01 -3.453839e-02 -1.166140e-01 -1.134429e-01 -1.786027e-02 -1.467246e-01 -1.683210e-02 -1.104498e-01 -7.730864e-02 -1.818620e-02 -1.191449e-01 -6.603523e-03 -9.782171e-02 -4.926139e-02 -1.907584e-02 -9.502069e-02 1.038921e-03 -8.487499e-02 -2.671479e-02 -2.340358e-02 -7.248261e-02 4.506469e-03 -7.094443e-02 -1.117823e-02 -2.911494e-02 -5.307282e-02 6.875990e-03 -6.160771e-02 -5.737206e-04 -2.425731e-02 -3.490427e-02 -1.637309e-03 -4.916964e-02 7.780787e-03 -2.931023e-02 -1.988307e-02 8.137714e-03 -3.520353e-02 1.188274e-02 -2.488332e-02 -6.736375e-03 7.801282e-03 -2.435265e-02 1.494666e-02 -1.914906e-02 2.620828e-03 6.847376e-03 -1.542916e-02 1.710086e-02 -1.398177e-02 9.967283e-03 4.359483e-03 -6.829645e-03 1.782518e-02 -8.522611e-03 1.436694e-02 3.042229e-03 -5.909701e-05 1.831300e-02 -5.600491e-03 1.713726e-02 5.556183e-03 5.039269e-03 1.367630e-02 -2.148732e-04 1.904990e-02 5.383879e-03 1.133323e-02 1.805619e-02 5.353716e-03 2.075225e-02 7.701597e-03 1.609438e-02 1.775426e-02 9.626046e-03 2.144207e-02 1.029867e-02 1.874587e-02 1.749501e-02 1.257014e-02 2.223485e-02 1.205461e-02 2.102612e-02 1.655880e-02 1.580663e-02 2.226385e-02 1.428001e-02 2.203917e-02 1.699649e-02 1.781055e-02 2.240976e-02 1.492383e-02 2.263349e-02 1.764487e-02 1.846271e-02 1.987970e-02 1.732198e-02 2.277220e-02 1.868402e-02 2.146915e-02 2.231006e-02 1.952398e-02 2.386928e-02 1.962322e-02 2.325827e-02 2.208575e-02 2.117257e-02 2.389274e-02 2.077504e-02 2.381875e-02 2.226770e-02 2.200607e-02 2.450869e-02 2.116049e-02 2.480983e-02 2.195998e-02 2.329813e-02 2.433534e-02 2.200283e-02 2.480130e-02 2.224277e-02 2.338282e-02 2.423860e-02 2.130497e-02 2.460868e-02 2.222355e-02 2.262145e-02 2.214424e-02 2.303930e-02 2.474236e-02 2.330418e-02 2.507291e-02 2.452496e-02 2.427628e-02 2.587521e-02 2.362495e-02 2.623731e-02 2.418578e-02 2.492176e-02 2.567874e-02 2.372782e-02 2.599460e-02 2.390961e-02 2.452039e-02 2.566429e-02 2.296408e-02 2.606035e-02 2.292551e-02 2.469657e-02 2.477545e-02 2.293654e-02 2.526835e-02 2.265705e-02 2.398874e-02 2.411593e-02 2.180466e-02 2.445649e-02 2.181280e-02 2.253231e-02 2.204492e-02 2.292811e-02 2.380789e-02 2.314708e-02 2.427438e-02 2.371537e-02 2.397426e-02 2.456866e-02 2.345170e-02 2.495003e-02 2.339307e-02 2.450477e-02 2.406367e-02 2.370480e-02 2.441002e-02 2.342174e-02 2.401954e-02 2.393804e-02 2.315131e-02 2.424973e-02 2.277410e-02 2.399223e-02 2.304684e-02 2.326181e-02 2.330303e-02 2.288935e-02 2.323769e-02 2.285920e-02 2.286645e-02 2.302584e-02 2.261338e-02 2.318522e-02 2.231563e-02 2.333862e-02 2.229907e-02 2.326231e-02 2.261966e-02 2.282917e-02 2.330107e-02 2.244509e-02 2.346350e-02 2.285157e-02 2.300766e-02 2.391765e-02 2.224374e-02 2.432854e-02 2.266678e-02 2.385891e-02 2.390869e-02 2.279119e-02 2.454744e-02 2.311139e-02 2.415085e-02 2.436143e-02 2.307626e-02 2.492225e-02 2.344927e-02 2.631572e-02 2.853685e-02 2.495148e-02 2.166942e-02 1.540960e-02 9.014045e-03 
1.670899e-02 9.212948e-03 1.145838e-03 -1.041766e-02 -2.219354e-02 -4.078390e-02 -2.366428e-02 -4.832910e-03 -1.664648e-02 1.593009e-02 2.506615e-02 7.439774e-02 1.087851e-01 1.110548e-01 1.619490e-01 7.139283e-02 1.857202e-01 1.251500e-01 1.211295e-01 1.738152e-01 1.629283e-03 1.899332e-01 5.906250e-02 6.934361e-02 -2.430217e-02 7.958239e-03 9.127439e-03 -3.548676e-02 2.003653e-02 -4.248633e-02 4.692056e-03 -1.706008e-02 -3.208291e-02 9.537412e-03 -4.013182e-02 3.410780e-03 -2.464127e-02 -2.615948e-02 5.462943e-03 -3.824636e-02 4.495665e-03 -2.937562e-02 -1.777191e-02 -7.272840e-04 -3.316186e-02 2.243936e-03 -2.916598e-02 -1.289787e-02 -4.381569e-03 -2.984137e-02 1.905598e-03 -2.943807e-02 -7.489843e-03 -1.063020e-02 -2.450613e-02 -1.330751e-03 -2.690250e-02 -6.150220e-03 -1.519562e-02 -2.151375e-02 -3.226031e-03 -2.730476e-02 -4.795275e-03 -1.897203e-02 -1.847840e-02 -1.097635e-02 -2.434155e-02 -5.192777e-03 -2.022500e-02 -1.353801e-02 -7.351671e-03 -2.094806e-02 -4.263234e-03 -2.050166e-02 -9.235194e-03 -1.024768e-02 -1.733057e-02 -5.947766e-03 -1.868034e-02 -8.321892e-03 -1.135177e-02 -1.602192e-02 -6.092520e-03 -1.873188e-02 -6.490506e-03 -1.482209e-02 -1.291852e-02 -8.856658e-03 -1.683179e-02 -7.804299e-03 -1.593089e-02 -1.243436e-02 -1.018837e-02 -1.775902e-02 -7.474050e-03 -1.825916e-02 -1.287161e-02 -1.499712e-02 -1.475192e-02 -9.032081e-03 -1.637622e-02 -9.233405e-03 -1.191477e-02 -1.343862e-02 -8.140693e-03 -1.605369e-02 -7.100308e-03 -1.389610e-02 -1.103773e-02 -9.980673e-03 -1.420691e-02 -8.019089e-03 -1.384966e-02 -1.078962e-02 -9.856578e-03 -1.423130e-02 -7.252274e-03 -1.541459e-02 -8.399024e-03 -1.187010e-02 -1.225565e-02 -8.903313e-03 -1.472144e-02 -8.984887e-03 -1.269533e-02 -1.339880e-02 -8.996652e-03 -1.733146e-02 -1.118729e-02 -1.664127e-02 -1.108625e-02 -1.103802e-02 -1.453748e-02 -8.222367e-03 -1.365754e-02 -1.051386e-02 -9.836693e-03 -1.387232e-02 -6.818945e-03 -1.491553e-02 -8.442987e-03 -1.161656e-02 -1.200210e-02 -8.391058e-03 -1.419370e-02 -8.566135e-03 -1.141655e-02 -1.227125e-02 -7.920220e-03 -1.518467e-02 -6.852658e-03 -1.325902e-02 -1.057457e-02 -9.694370e-03 -1.411504e-02 -8.065424e-03 -1.382183e-02 -1.188478e-02 -9.802486e-03 -1.662907e-02 -1.088718e-02 -1.727466e-02 -9.524074e-03 -1.189407e-02 -1.362297e-02 -8.089643e-03 -1.425527e-02 -9.291653e-03 -1.063979e-02 -1.296307e-02 -7.034086e-03 -1.523015e-02 -7.328913e-03 -1.232038e-02 -1.118835e-02 -8.688953e-03 -1.417702e-02 -7.787849e-03 -1.201349e-02 -1.161934e-02 -8.265996e-03 -1.497143e-02 -6.451871e-03 -1.376568e-02 -1.002536e-02 -1.012038e-02 -1.377558e-02 -7.981607e-03 -1.424573e-02 -1.131471e-02 -1.058620e-02 -1.643830e-02 -1.082073e-02 -1.749709e-02 -9.208186e-03 -1.257531e-02 -1.295328e-02 -8.611066e-03 -1.437256e-02 -8.697209e-03 -1.138553e-02 -1.222048e-02 -7.807260e-03 -1.513568e-02 -6.877891e-03 -1.321448e-02 -1.051995e-02 -9.580990e-03 -1.392853e-02 -7.629382e-03 -1.289046e-02 -1.093912e-02 -9.177596e-03 -1.447242e-02 -6.511535e-03 -1.450922e-02 -9.252256e-03 -1.095361e-02 -1.283355e-02 -7.795917e-03 -1.389392e-02 -9.604248e-03 -1.067979e-02 -1.310956e-02 -7.299564e-03 -1.522071e-02 -7.831576e-03 -1.258613e-02 -1.121036e-02 -9.150124e-03 -1.414155e-02 -8.135485e-03 -1.239649e-02 -1.141602e-02 -8.813698e-03 -1.480527e-02 -6.609136e-03 -1.412096e-02 -9.598920e-03 -1.047804e-02 -1.323360e-02 -7.431359e-03 -1.355050e-02 -9.877045e-03 -9.992533e-03 -1.348096e-02 -5.797359e-03 -1.405626e-02 -8.660911e-03 -1.504668e-02 -1.059946e-02 1.093281e-02 2.114160e-02 2.475299e-02 2.478186e-02 2.120912e-02 
2.513861e-02 2.753654e-02 2.955879e-02 4.514324e-02 6.657055e-02 1.171388e-01 1.143750e-01 8.177390e-02 8.580608e-02 5.084536e-02 1.890413e-02 1.349083e-02 -2.211164e-01 -1.652055e-01 -1.628298e-01 -3.228949e-01 -2.138333e-01 -2.472297e-01 -3.117279e-01 -9.742251e-02 -2.962261e-01 -2.098541e-01 7.895105e-02 -7.327199e-02 1.235693e-01 1.719145e-02 5.043739e-02 1.231746e-01 5.405234e-03 1.347945e-01 3.401563e-02 7.368463e-02 1.096397e-01 6.836851e-03 1.259647e-01 2.143210e-02 8.424482e-02 8.301226e-02 1.039667e-02 1.088020e-01 1.440489e-02 8.218971e-02 6.179548e-02 1.269122e-02 9.332123e-02 8.449217e-03 7.707990e-02 4.288539e-02 1.738897e-02 7.751192e-02 5.935815e-03 6.921058e-02 2.913256e-02 2.241768e-02 6.386101e-02 4.450517e-03 6.152186e-02 1.888423e-02 2.975359e-02 5.158148e-02 5.218964e-03 5.798047e-02 1.555569e-02 2.859118e-02 4.305378e-02 1.529461e-02 5.184905e-02 8.647552e-03 3.405274e-02 3.040429e-02 5.804698e-03 4.021382e-02 5.776823e-03 3.087689e-02 2.168087e-02 6.023868e-03 3.398443e-02 3.568457e-03 2.843121e-02 1.506519e-02 8.169541e-03 2.818527e-02 3.005136e-03 2.514195e-02 1.066240e-02 1.013322e-02 2.347083e-02 1.906236e-03 2.265001e-02 7.145410e-03 1.258516e-02 1.937178e-02 2.761912e-03 2.256981e-02 8.412564e-03 1.277851e-02 1.900597e-02 8.357712e-03 2.133728e-02 5.704228e-03 1.316372e-02 1.257244e-02 3.184263e-03 1.511181e-02 3.576999e-03 1.085970e-02 9.217086e-03 2.508743e-03 1.298483e-02 2.201569e-03 1.011088e-02 6.649194e-03 3.372670e-03 1.101790e-02 1.947643e-03 9.067143e-03 5.410374e-03 3.931627e-03 1.005026e-02 1.160249e-03 8.942676e-03 4.143975e-03 4.940370e-03 9.056981e-03 1.975906e-03 9.985685e-03 6.373030e-03 6.110327e-03 1.095744e-02 4.970725e-03 1.044734e-02 4.461024e-03 4.995621e-03 6.750340e-03 1.348110e-03 6.480734e-03 2.490492e-03 3.721545e-03 5.298627e-03 5.305421e-04 6.189428e-03 1.310808e-03 3.971840e-03 3.885070e-03 9.767085e-04 5.629383e-03 9.144788e-04 3.786685e-03 3.350799e-03 9.610191e-04 5.776486e-03 1.671942e-04 4.524759e-03 2.700777e-03 2.077677e-03 5.956501e-03 1.135002e-03 6.481126e-03 5.406698e-03 3.671756e-03 8.536084e-03 3.774881e-03 7.316835e-03 3.229122e-03 2.470659e-03 4.536661e-03 4.598537e-05 3.900079e-03 1.062570e-03 1.634978e-03 3.222655e-03 -6.637567e-04 4.290481e-03 -8.807568e-05 2.630070e-03 2.258108e-03 2.077844e-04 4.428349e-03 -7.541604e-05 3.181319e-03 2.306824e-03 7.134208e-04 5.119522e-03 -3.251152e-04 4.429594e-03 2.110968e-03 2.212867e-03 5.600019e-03 1.027360e-03 6.573020e-03 4.961411e-03 4.386203e-03 8.655787e-03 3.574674e-03 7.734602e-03 3.529887e-03 3.068794e-03 4.852147e-03 6.028774e-04 4.570971e-03 1.609772e-03 2.239552e-03 3.788597e-03 1.216730e-05 4.918411e-03 6.786684e-04 3.016300e-03 3.044627e-03 7.099624e-04 4.927943e-03 8.618236e-04 3.360180e-03 3.311094e-03 1.025580e-03 5.598636e-03 6.131464e-04 4.315252e-03 2.993455e-03 1.925455e-03 5.460273e-03 1.057737e-03 4.504923e-03 3.280903e-03 2.059443e-03 5.712920e-03 7.154908e-04 5.182212e-03 2.708668e-03 2.681103e-03 5.047944e-03 8.869288e-04 5.141951e-03 2.608750e-03 2.509523e-03 4.946125e-03 4.021499e-04 5.506212e-03 1.732146e-03 2.815126e-03 4.050941e-03 4.775329e-04 5.017790e-03 1.255214e-03 2.442478e-03 3.399932e-03 -5.546206e-05 4.871146e-03 2.707137e-04 1.682215e-03 -1.031346e-03 -1.986482e-03 1.134073e-02 1.994819e-02 2.520277e-02 2.589660e-02 2.672317e-02 
4.307987e-02 4.663083e-02 5.329796e-02 6.997495e-02 9.339633e-02 1.395935e-01 1.234406e-01 8.654418e-02 9.445594e-02 5.497426e-02 2.852302e-02 2.457951e-02 -1.237793e-01 4.468513e-02 4.354237e-02 4.242777e-02 4.416745e-02 4.396874e-02 4.177809e-02 4.449481e-02 4.223724e-02 -2.018381e-01 5.974351e-02 -8.921279e-02 1.237254e-01 2.023683e-02 4.950697e-02 1.278442e-01 1.434617e-02 1.461956e-01 4.794457e-02 8.998916e-02 1.260180e-01 2.782176e-02 1.447091e-01 4.377801e-02 1.072890e-01 1.063179e-01 3.711124e-02 1.327214e-01 4.172420e-02 1.095395e-01 8.952806e-02 4.309036e-02 1.215694e-01 3.912769e-02 1.085492e-01 7.328320e-02 5.141749e-02 1.081840e-01 4.015472e-02 1.027405e-01 6.277541e-02 5.846877e-02 9.773921e-02 4.063706e-02 9.815429e-02 5.440380e-02 6.925660e-02 8.759666e-02 4.608118e-02 9.762032e-02 5.740075e-02 7.634872e-02 9.034543e-02 6.344128e-02 9.613020e-02 5.124480e-02 7.828895e-02 6.956443e-02 4.968272e-02 8.042455e-02 4.763957e-02 7.378676e-02 6.191531e-02 5.030814e-02 7.563201e-02 4.613774e-02 7.292763e-02 5.578871e-02 5.451191e-02 6.980691e-02 4.779314e-02 6.964582e-02 5.347353e-02 5.700952e-02 6.646531e-02 4.770654e-02 6.863437e-02 5.090787e-02 6.160627e-02 6.292305e-02 5.226188e-02 7.026779e-02 5.697464e-02 6.784680e-02 7.234496e-02 6.350032e-02 7.125307e-02 5.397403e-02 6.410515e-02 5.693838e-02 5.344099e-02 6.085285e-02 5.098968e-02 5.961708e-02 5.413554e-02 5.259083e-02 5.935928e-02 4.987317e-02 5.959642e-02 5.168004e-02 5.487195e-02 5.653911e-02 5.128929e-02 5.755037e-02 5.196440e-02 5.489954e-02 5.593411e-02 5.070078e-02 5.787639e-02 5.095313e-02 5.712450e-02 5.496088e-02 5.469860e-02 6.019124e-02 5.770791e-02 6.391585e-02 6.669420e-02 6.321490e-02 6.241729e-02 5.536833e-02 5.842584e-02 5.326187e-02 5.435043e-02 5.404764e-02 5.226398e-02 5.427305e-02 5.211265e-02 5.280468e-02 5.386728e-02 5.113490e-02 5.479251e-02 5.078282e-02 5.426198e-02 5.213905e-02 5.234694e-02 5.340607e-02 5.168612e-02 5.344609e-02 5.264900e-02 5.162150e-02 5.440334e-02 5.111247e-02 5.539538e-02 5.278945e-02 5.546882e-02 5.731327e-02 5.809636e-02 6.235078e-02 6.528361e-02 6.322873e-02 5.968446e-02 5.562316e-02 5.656764e-02 5.216768e-02 5.436778e-02 5.192396e-02 5.234830e-02 5.265276e-02 5.133580e-02 5.263025e-02 5.218793e-02 5.111680e-02 5.361120e-02 5.028091e-02 5.399989e-02 5.101998e-02 5.241447e-02 5.266397e-02 5.148382e-02 5.323065e-02 5.202416e-02 5.182452e-02 5.393548e-02 5.115271e-02 5.521555e-02 5.249259e-02 5.574724e-02 5.687707e-02 5.839934e-02 6.255086e-02 6.523932e-02 6.322977e-02 5.958345e-02 5.624550e-02 5.634219e-02 5.265545e-02 5.472853e-02 5.180822e-02 5.317036e-02 5.240937e-02 5.217093e-02 5.293015e-02 5.219630e-02 5.221882e-02 5.335310e-02 5.141278e-02 5.416740e-02 5.126521e-02 5.371361e-02 5.239512e-02 5.289314e-02 5.322753e-02 5.253129e-02 5.310558e-02 5.344784e-02 5.233108e-02 5.424948e-02 5.177282e-02 5.448465e-02 5.228094e-02 5.383247e-02 5.298992e-02 5.314345e-02 5.359146e-02 5.309688e-02 5.317800e-02 5.369627e-02 5.243486e-02 5.452752e-02 5.178398e-02 5.453242e-02 5.225334e-02 5.370787e-02 5.315434e-02 5.258240e-02 5.359018e-02 5.281798e-02 5.269018e-02 5.367687e-02 5.122846e-02 5.435059e-02 5.108522e-02 5.328805e-02 5.164206e-02 5.119021e-02 5.188234e-02 5.071000e-02 5.163225e-02 4.952171e-02 4.160862e-02 4.145012e-02 4.050515e-02 4.138879e-02 4.143146e-02 
4.710569e-02 5.271064e-02 5.873415e-02 7.262064e-02 8.597917e-02 1.075140e-01 9.586399e-02 7.410966e-02 7.846990e-02 4.875868e-02 4.910474e-02 3.590391e-02 6.487001e-02 7.054470e-02 6.884881e-02 7.030563e-02 6.962153e-02 6.989042e-02 6.978594e-02 6.831269e-02 7.044053e-02 6.257662e-02 3.854032e-02 -3.018123e-03 8.008439e-02 3.754475e-02 4.951467e-02 9.605286e-02 3.498184e-02 1.112102e-01 5.647869e-02 8.297725e-02 1.010392e-01 4.983831e-02 1.143581e-01 5.740224e-02 9.414769e-02 9.148752e-02 5.662186e-02 1.077150e-01 5.664898e-02 9.494666e-02 8.208696e-02 5.974464e-02 1.005497e-01 5.494551e-02 9.349761e-02 7.290286e-02 6.330980e-02 9.234392e-02 5.479947e-02 8.985080e-02 6.647121e-02 6.647296e-02 8.550672e-02 5.501744e-02 8.674351e-02 6.191377e-02 7.148661e-02 8.009335e-02 5.880680e-02 8.758938e-02 6.620300e-02 8.269745e-02 9.119540e-02 7.485628e-02 8.846707e-02 6.231496e-02 7.611769e-02 6.944118e-02 5.982732e-02 7.555833e-02 5.705752e-02 7.214465e-02 6.416804e-02 5.980619e-02 7.202445e-02 5.622410e-02 7.106705e-02 6.088936e-02 6.155296e-02 6.865252e-02 5.682211e-02 6.927964e-02 5.929384e-02 6.283631e-02 6.624670e-02 5.712432e-02 6.829918e-02 5.821665e-02 6.504172e-02 6.480348e-02 6.042204e-02 7.071795e-02 6.426112e-02 7.522408e-02 7.890872e-02 7.293618e-02 7.272012e-02 6.197550e-02 6.679474e-02 6.128681e-02 6.030071e-02 6.345773e-02 5.784473e-02 6.328117e-02 5.891211e-02 5.975374e-02 6.204561e-02 5.747445e-02 6.284311e-02 5.783802e-02 6.068321e-02 6.053872e-02 5.809226e-02 6.178077e-02 5.777703e-02 6.077925e-02 5.973464e-02 5.811993e-02 6.152549e-02 5.759926e-02 6.183069e-02 5.978504e-02 6.105466e-02 6.450125e-02 6.407272e-02 7.207310e-02 7.500542e-02 7.212668e-02 6.712011e-02 6.212850e-02 6.310355e-02 5.883277e-02 6.024518e-02 5.920015e-02 5.820003e-02 5.986523e-02 5.745417e-02 5.940222e-02 5.858576e-02 5.791241e-02 5.975832e-02 5.709822e-02 5.994760e-02 5.774603e-02 5.847979e-02 5.909229e-02 5.744244e-02 5.966312e-02 5.765198e-02 5.845741e-02 5.927070e-02 5.757082e-02 6.061260e-02 5.839187e-02 6.132891e-02 6.261061e-02 6.418718e-02 7.092564e-02 7.399601e-02 7.189119e-02 6.531724e-02 6.220224e-02 6.180734e-02 5.814238e-02 6.009742e-02 5.778628e-02 5.822822e-02 5.869932e-02 5.702229e-02 5.914172e-02 5.743165e-02 5.792923e-02 5.883970e-02 5.686105e-02 5.963650e-02 5.696241e-02 5.857656e-02 5.845623e-02 5.740859e-02 5.939724e-02 5.722660e-02 5.865257e-02 5.883729e-02 5.771255e-02 6.039100e-02 5.823415e-02 6.157956e-02 6.226978e-02 6.456194e-02 7.089630e-02 7.400841e-02 7.205349e-02 6.518754e-02 6.271811e-02 6.162504e-02 5.857591e-02 6.041042e-02 5.769139e-02 5.892057e-02 5.855682e-02 5.770828e-02 5.942947e-02 5.749011e-02 5.881797e-02 5.877024e-02 5.776871e-02 5.990723e-02 5.728203e-02 5.961931e-02 5.847919e-02 5.854390e-02 5.964216e-02 5.780453e-02 5.971149e-02 5.877604e-02 5.866904e-02 5.992016e-02 5.773243e-02 6.033837e-02 5.832302e-02 5.940110e-02 5.939622e-02 5.835513e-02 6.016264e-02 5.842913e-02 5.943390e-02 5.940874e-02 5.835496e-02 6.042120e-02 5.783193e-02 6.003272e-02 5.871938e-02 5.888932e-02 5.983133e-02 5.789101e-02 5.981357e-02 5.857763e-02 5.861032e-02 5.964810e-02 5.723919e-02 5.985206e-02 5.755700e-02 5.847291e-02 5.832130e-02 5.636241e-02 5.814590e-02 5.624936e-02 5.777900e-02 5.560821e-02 4.742705e-02 4.427408e-02 4.318758e-02 4.334414e-02 4.511668e-02 
6.088030e-02 6.545653e-02 7.208566e-02 8.237931e-02 9.247797e-02 1.055906e-01 1.027778e-01 9.032434e-02 9.322627e-02 7.803701e-02 7.653912e-02 7.933804e-02 8.963529e-02 9.157182e-02 9.048517e-02 9.093875e-02 9.077394e-02 9.095614e-02 9.029897e-02 9.040626e-02 9.042936e-02 8.819756e-02 9.725054e-02 3.690313e-02 9.937148e-02 5.981093e-02 7.372441e-02 1.003523e-01 6.041930e-02 1.100026e-01 7.381305e-02 9.078799e-02 1.042632e-01 6.887772e-02 1.129749e-01 7.274508e-02 9.799359e-02 9.591733e-02 7.348114e-02 1.068320e-01 7.190952e-02 9.680926e-02 8.903624e-02 7.378197e-02 1.015073e-01 6.895253e-02 9.564419e-02 8.090946e-02 7.577536e-02 9.399467e-02 6.870680e-02 9.160650e-02 7.634409e-02 7.590154e-02 8.905105e-02 6.715186e-02 8.948061e-02 7.125033e-02 7.854061e-02 8.299905e-02 6.915528e-02 8.803440e-02 7.512336e-02 9.129852e-02 1.030528e-01 8.688857e-02 9.082951e-02 7.062418e-02 8.013488e-02 7.473000e-02 6.947359e-02 7.925947e-02 6.736679e-02 7.683049e-02 7.227398e-02 6.868731e-02 7.763378e-02 6.586552e-02 7.679869e-02 6.900627e-02 7.037140e-02 7.419303e-02 6.683400e-02 7.450747e-02 6.841873e-02 6.995383e-02 7.296974e-02 6.581204e-02 7.417808e-02 6.621307e-02 7.142487e-02 7.023455e-02 6.786320e-02 7.426607e-02 7.169882e-02 8.322449e-02 9.154347e-02 8.283996e-02 7.799609e-02 6.847276e-02 7.194014e-02 6.755444e-02 6.784576e-02 6.929029e-02 6.636054e-02 6.924792e-02 6.728532e-02 6.694908e-02 6.939439e-02 6.540683e-02 6.987272e-02 6.572380e-02 6.833221e-02 6.748401e-02 6.657251e-02 6.823284e-02 6.634276e-02 6.735430e-02 6.756711e-02 6.548171e-02 6.852778e-02 6.490205e-02 6.827243e-02 6.602500e-02 6.738618e-02 6.920180e-02 7.079281e-02 7.997197e-02 8.777525e-02 8.126973e-02 7.341773e-02 6.785182e-02 6.872508e-02 6.529239e-02 6.706928e-02 6.577551e-02 6.603095e-02 6.634801e-02 6.576869e-02 6.608265e-02 6.654100e-02 6.520928e-02 6.727943e-02 6.475627e-02 6.730583e-02 6.518792e-02 6.638508e-02 6.596369e-02 6.571347e-02 6.616726e-02 6.582442e-02 6.530492e-02 6.663458e-02 6.455601e-02 6.711943e-02 6.482144e-02 6.723718e-02 6.765709e-02 7.060619e-02 7.883730e-02 8.671530e-02 8.075974e-02 7.196300e-02 6.762224e-02 6.760599e-02 6.458997e-02 6.668163e-02 6.461249e-02 6.579921e-02 6.535077e-02 6.524227e-02 6.566218e-02 6.560624e-02 6.500101e-02 6.649891e-02 6.440783e-02 6.693545e-02 6.456228e-02 6.628602e-02 6.544777e-02 6.556713e-02 6.591989e-02 6.549206e-02 6.533956e-02 6.632561e-02 6.458757e-02 6.697728e-02 6.470846e-02 6.737874e-02 6.747556e-02 7.082202e-02 7.885227e-02 8.675941e-02 8.089235e-02 7.193696e-02 6.800633e-02 6.759891e-02 6.493442e-02 6.697761e-02 6.467668e-02 6.634931e-02 6.539374e-02 6.579154e-02 6.599577e-02 6.581072e-02 6.572227e-02 6.662365e-02 6.516648e-02 6.732066e-02 6.499270e-02 6.718954e-02 6.572114e-02 6.659972e-02 6.643317e-02 6.625672e-02 6.648425e-02 6.683379e-02 6.590880e-02 6.753279e-02 6.542480e-02 6.777632e-02 6.576515e-02 6.726215e-02 6.641302e-02 6.667606e-02 6.684898e-02 6.670489e-02 6.646154e-02 6.727312e-02 6.581933e-02 6.784819e-02 6.549917e-02 6.765826e-02 6.596683e-02 6.696712e-02 6.659850e-02 6.635922e-02 6.660885e-02 6.666422e-02 6.587228e-02 6.725292e-02 6.501266e-02 6.734609e-02 6.502546e-02 6.643761e-02 6.532162e-02 6.503700e-02 6.504070e-02 6.439233e-02 6.376352e-02 6.274938e-02 5.747599e-02 5.662442e-02 5.491651e-02 5.636845e-02 5.740620e-02 