# vtk DataFile Version 2.0
Comment goes here
ASCII

DATASET STRUCTURED_POINTS
FIELD FieldData 1
TIME 1 1 double
0.02200000
DIMENSIONS    64   64   1

ORIGIN    0.000   0.000   0.000
SPACING   0.03125 0.03125   1.000

POINT_DATA   4096
SCALARS uX double
LOOKUP_TABLE default

3.265751e-01 -7.912867e-01 5.284704e-01 -8.837548e-01 5.545839e-01 -8.968148e-01 5.629998e-01 -8.463585e-01 5.043849e-01 -7.288331e-01 3.789747e-01 -5.560954e-01 2.082613e-01 -3.535555e-01 1.402998e-02 -1.432569e-01 -1.663779e-01 2.399282e-02 -2.877130e-01 1.256823e-01 -3.579139e-01 1.891635e-01 -4.000003e-01 2.194066e-01 -3.994205e-01 1.991195e-01 -3.593141e-01 1.570565e-01 -3.172805e-01 1.229177e-01 -2.931534e-01 1.166685e-01 -3.064132e-01 1.469676e-01 -3.483679e-01 1.914073e-01 -3.872138e-01 2.110580e-01 -3.847056e-01 1.806565e-01 -3.344156e-01 1.100890e-01 -2.558572e-01 2.354505e-02 -1.780223e-01 -3.998414e-02 -1.517406e-01 -3.064614e-02 -2.145495e-01 6.130257e-02 -3.304550e-01 1.621695e-01 -4.112796e-01 1.994399e-01 -4.223118e-01 1.699328e-01 -3.686627e-01 6.440108e-02 -2.343788e-01 -1.212987e-01 -3.821934e-02 -3.535128e-01 1.909926e-01 -6.017382e-01 
-4.805479e-02 1.645883e-01 -2.277603e-01 2.326044e-01 -2.233190e-01 2.356322e-01 -2.555027e-01 2.132927e-01 -2.551109e-01 1.584285e-01 -2.190331e-01 7.777604e-02 -1.605625e-01 -1.459315e-02 -9.021034e-02 -1.098457e-01 -2.700908e-02 -1.800390e-01 4.749303e-03 -2.159328e-01 1.520155e-02 -2.353186e-01 1.652391e-02 -2.373003e-01 -5.893430e-03 -2.082548e-01 -4.884566e-02 -1.718581e-01 -8.489208e-02 -1.443549e-01 -1.089134e-01 -1.318923e-01 -1.129242e-01 -1.392398e-01 -9.840633e-02 -1.579051e-01 -8.057868e-02 -1.680052e-01 -7.934387e-02 -1.575693e-01 -9.578248e-02 -1.320627e-01 -1.228579e-01 -9.834039e-02 -1.497270e-01 -7.641780e-02 -1.464960e-01 -9.714109e-02 -8.839777e-02 -1.649023e-01 -1.043641e-03 -2.345606e-01 6.248723e-02 -2.649226e-01 8.907314e-02 -2.625971e-01 8.698098e-02 -2.222851e-01 4.329185e-02 -1.390200e-01 -2.892913e-02 -3.471046e-02 -1.101590e-01 6.367987e-02 
6.298592e-01 3.438098e-01 3.250682e-01 4.005085e-01 2.355562e-01 4.222398e-01 3.179455e-01 3.845502e-01 4.384787e-01 3.089720e-01 5.868036e-01 2.035075e-01 7.484881e-01 8.537351e-02 9.144706e-01 -3.528285e-02 1.061968e+00 -1.227869e-01 1.158035e+00 -1.634982e-01 1.214264e+00 -1.840183e-01 1.250645e+00 -1.878099e-01 1.253872e+00 -1.574404e-01 1.225468e+00 -1.162471e-01 1.197124e+00 -8.484223e-02 1.180295e+00 -7.505993e-02 1.189220e+00 -9.351160e-02 1.219237e+00 -1.250558e-01 1.248420e+00 -1.418733e-01 1.249310e+00 -1.263697e-01 1.218137e+00 -8.645098e-02 1.166826e+00 -3.604589e-02 1.111658e+00 -1.222665e-03 1.088976e+00 -2.034665e-02 1.129196e+00 -1.024442e-01 1.205581e+00 -1.916432e-01 1.250647e+00 -2.330115e-01 1.243348e+00 -2.310740e-01 1.191849e+00 -1.797813e-01 1.079353e+00 -7.390314e-02 9.176459e-01 6.120246e-02 7.242809e-01 2.069336e-01 
9.698887e-01 -7.075655e-02 7.787833e-01 -1.056264e-01 2.834066e-01 -1.130647e-01 7.825122e-01 -9.340865e-02 1.093474e+00 -6.615469e-02 1.296800e+00 -3.077231e-02 1.436099e+00 7.443252e-03 1.532024e+00 4.855406e-02 1.602998e+00 7.632438e-02 1.670481e+00 8.587450e-02 1.729943e+00 9.210185e-02 1.774904e+00 9.459057e-02 1.819935e+00 8.054438e-02 1.867808e+00 6.396272e-02 1.903333e+00 5.289459e-02 1.927453e+00 4.965357e-02 1.935829e+00 5.737575e-02 1.929706e+00 7.128065e-02 1.918140e+00 7.924933e-02 1.913715e+00 7.376482e-02 1.915921e+00 5.919066e-02 1.920249e+00 3.740009e-02 1.923021e+00 1.781336e-02 1.905952e+00 1.999520e-02 1.850784e+00 4.923985e-02 1.770282e+00 7.890668e-02 1.695537e+00 8.646990e-02 1.627356e+00 8.356653e-02 1.552507e+00 6.803238e-02 1.477019e+00 3.403299e-02 1.387882e+00 -6.603233e-03 1.268786e+00 -3.785842e-02 
1.117867e+00 -2.810499e-02 9.213640e-01 -3.680944e-02 4.745513e-01 -4.129596e-02 9.143103e-01 -2.531549e-02 1.186527e+00 -8.679734e-03 1.373499e+00 8.792386e-03 1.510820e+00 2.521454e-02 1.613410e+00 4.255407e-02 1.692563e+00 5.351438e-02 1.760700e+00 5.618111e-02 1.816465e+00 5.929662e-02 1.858186e+00 6.239745e-02 1.894708e+00 5.794525e-02 1.928948e+00 5.252413e-02 1.954131e+00 4.929941e-02 1.972153e+00 4.872251e-02 1.981209e+00 5.245900e-02 1.981658e+00 5.872206e-02 1.977167e+00 6.240037e-02 1.973206e+00 6.032584e-02 1.969155e+00 5.458022e-02 1.963293e+00 4.483899e-02 1.955227e+00 3.417545e-02 1.936768e+00 3.153310e-02 1.898326e+00 4.014049e-02 1.844664e+00 4.813815e-02 1.789709e+00 4.597083e-02 1.731415e+00 4.166894e-02 1.660878e+00 3.462875e-02 1.580292e+00 2.146548e-02 1.481523e+00 7.117580e-03 1.354238e+00 -8.478324e-03 
1.115955e+00 -6.459652e-02 9.191992e-01 -8.200430e-02 6.405965e-01 -8.281591e-02 9.341815e-01 -6.875432e-02 1.171128e+00 -4.793441e-02 1.346686e+00 -2.153735e-02 1.475668e+00 7.827777e-03 1.571493e+00 3.717471e-02 1.645908e+00 5.984863e-02 1.708432e+00 7.319314e-02 1.761285e+00 8.048756e-02 1.805171e+00 8.224753e-02 1.844761e+00 7.678422e-02 1.881069e+00 6.876497e-02 1.909891e+00 6.253505e-02 1.929789e+00 6.049465e-02 1.939434e+00 6.360241e-02 1.940104e+00 6.929359e-02 1.936236e+00 7.239431e-02 1.932872e+00 6.946981e-02 1.930739e+00 6.125665e-02 1.927532e+00 4.998435e-02 1.918962e+00 4.091203e-02 1.896681e+00 4.098143e-02 1.854303e+00 5.086734e-02 1.796355e+00 6.133206e-02 1.733769e+00 6.394200e-02 1.669327e+00 5.903409e-02 1.599632e+00 4.570339e-02 1.522403e+00 2.323581e-02 1.428558e+00 -4.092246e-03 1.302397e+00 -3.281636e-02 
1.247483e+00 -1.562453e-02 1.065600e+00 -2.584982e-02 8.149231e-01 -2.662532e-02 1.065365e+00 -1.725981e-02 1.270633e+00 -5.545768e-03 1.428921e+00 8.163892e-03 1.551594e+00 2.282877e-02 1.647940e+00 3.741150e-02 1.724894e+00 4.841643e-02 1.787137e+00 5.468801e-02 1.836874e+00 5.858632e-02 1.876172e+00 6.045608e-02 1.908976e+00 5.904283e-02 1.937019e+00 5.638426e-02 1.958882e+00 5.433942e-02 1.974442e+00 5.391019e-02 1.983285e+00 5.569541e-02 1.986015e+00 5.868909e-02 1.984612e+00 6.057727e-02 1.981372e+00 5.971884e-02 1.976642e+00 5.626713e-02 1.969470e+00 5.073835e-02 1.957957e+00 4.499104e-02 1.937831e+00 4.189212e-02 1.905143e+00 4.170901e-02 1.861126e+00 4.091430e-02 1.811275e+00 3.708580e-02 1.756261e+00 3.176012e-02 1.692935e+00 2.480897e-02 1.618749e+00 1.539629e-02 1.527538e+00 4.435213e-03 1.409440e+00 -7.991077e-03 
1.273433e+00 -4.376866e-02 1.131696e+00 -5.705593e-02 9.690680e-01 -5.776860e-02 1.137249e+00 -4.945648e-02 1.296897e+00 -3.469179e-02 1.430279e+00 -1.474475e-02 1.537384e+00 8.565138e-03 1.623241e+00 3.231082e-02 1.692955e+00 5.194277e-02 1.749166e+00 6.522664e-02 1.794963e+00 7.294451e-02 1.833029e+00 7.575330e-02 1.866060e+00 7.407421e-02 1.894884e+00 7.012778e-02 1.918158e+00 6.645564e-02 1.934779e+00 6.484133e-02 1.944190e+00 6.588522e-02 1.947266e+00 6.834291e-02 1.946327e+00 6.975077e-02 1.943771e+00 6.826703e-02 1.940220e+00 6.382727e-02 1.934284e+00 5.777255e-02 1.922779e+00 5.262805e-02 1.901170e+00 5.059156e-02 1.866214e+00 5.098982e-02 1.819272e+00 5.084493e-02 1.766286e+00 4.771300e-02 1.710166e+00 4.081374e-02 1.649781e+00 2.937207e-02 1.582146e+00 1.321407e-02 1.501545e+00 -6.118920e-03 1.400480e+00 -2.661130e-02 
1.396537e+00 -1.099683e-02 1.270020e+00 -1.705729e-02 1.127819e+00 -1.775750e-02 1.267852e+00 -1.199696e-02 1.403157e+00 -3.705133e-03 1.520237e+00 7.303407e-03 1.618694e+00 2.100044e-02 1.701806e+00 3.612898e-02 1.771766e+00 4.839070e-02 1.825838e+00 5.583426e-02 1.867503e+00 6.011554e-02 1.900527e+00 6.201638e-02 1.927939e+00 6.152650e-02 1.951143e+00 5.963238e-02 1.969768e+00 5.772642e-02 1.983337e+00 5.692394e-02 1.991456e+00 5.781515e-02 1.994535e+00 5.982363e-02 1.993924e+00 6.153103e-02 1.991070e+00 6.170316e-02 1.986583e+00 5.991927e-02 1.979922e+00 5.660845e-02 1.969188e+00 5.285322e-02 1.951348e+00 4.913380e-02 1.923190e+00 4.392284e-02 1.883400e+00 3.676612e-02 1.838113e+00 2.961395e-02 1.789603e+00 2.320611e-02 1.736014e+00 1.691842e-02 1.674259e+00 9.928935e-03 1.600104e+00 2.181023e-03 1.508683e+00 -5.675597e-03 
1.442542e+00 -3.193010e-02 1.355943e+00 -4.042830e-02 1.269826e+00 -4.107744e-02 1.356186e+00 -3.634664e-02 1.451417e+00 -2.620086e-02 1.541090e+00 -1.089645e-02 1.620845e+00 9.145623e-03 1.691442e+00 3.173260e-02 1.753445e+00 5.068040e-02 1.800116e+00 6.305069e-02 1.836180e+00 7.046810e-02 1.865792e+00 7.387992e-02 1.891481e+00 7.370143e-02 1.914129e+00 7.120539e-02 1.932947e+00 6.829320e-02 1.946916e+00 6.657155e-02 1.955330e+00 6.686327e-02 1.958564e+00 6.855599e-02 1.958173e+00 7.007553e-02 1.955770e+00 7.001987e-02 1.952116e+00 6.787598e-02 1.946531e+00 6.437814e-02 1.936585e+00 6.091350e-02 1.918914e+00 5.756371e-02 1.890044e+00 5.175872e-02 1.848213e+00 4.347421e-02 1.802104e+00 3.529209e-02 1.755546e+00 2.704341e-02 1.707431e+00 1.747969e-02 1.654960e+00 5.863278e-03 1.594775e+00 -7.371658e-03 1.524015e+00 -2.080467e-02 
1.557876e+00 -8.144939e-03 1.484258e+00 -1.152195e-02 1.413881e+00 -1.212709e-02 1.480210e+00 -9.462012e-03 1.556562e+00 -4.424647e-03 1.631509e+00 4.008136e-03 1.701905e+00 1.781309e-02 1.769420e+00 3.753511e-02 1.834566e+00 5.358999e-02 1.876810e+00 6.054488e-02 1.906696e+00 6.431928e-02 1.930484e+00 6.617678e-02 1.951097e+00 6.550189e-02 1.969772e+00 6.288900e-02 1.985613e+00 5.997621e-02 1.997614e+00 5.825466e-02 2.004690e+00 5.889943e-02 2.006829e+00 6.135338e-02 2.005581e+00 6.408957e-02 2.002483e+00 6.564584e-02 1.998723e+00 6.496281e-02 1.994421e+00 6.266106e-02 1.987540e+00 6.033048e-02 1.975253e+00 5.763142e-02 1.952794e+00 4.850414e-02 1.910872e+00 3.274869e-02 1.868082e+00 2.127454e-02 1.828036e+00 1.427039e-02 1.787212e+00 9.368734e-03 1.741921e+00 4.836235e-03 1.689357e+00 8.361739e-05 1.627825e+00 -4.546411e-03 
1.613958e+00 -2.405781e-02 1.573908e+00 -2.936925e-02 1.543683e+00 -2.989394e-02 1.571172e+00 -2.830772e-02 1.614346e+00 -2.258861e-02 1.663407e+00 -1.164031e-02 1.714582e+00 7.025810e-03 1.769301e+00 3.446295e-02 1.829177e+00 5.653525e-02 1.861488e+00 6.621069e-02 1.883768e+00 7.223495e-02 1.902465e+00 7.575447e-02 1.919904e+00 7.568069e-02 1.937091e+00 7.265920e-02 1.952460e+00 6.888116e-02 1.964516e+00 6.627995e-02 1.971676e+00 6.653129e-02 1.973610e+00 6.906274e-02 1.972166e+00 7.206847e-02 1.969124e+00 7.386942e-02 1.965946e+00 7.311995e-02 1.963079e+00 7.065388e-02 1.958120e+00 6.868478e-02 1.947982e+00 6.669328e-02 1.926816e+00 5.557378e-02 1.880957e+00 3.625858e-02 1.838251e+00 2.291311e-02 1.802550e+00 1.443699e-02 1.769457e+00 7.413120e-03 1.735271e+00 -1.168228e-04 1.697912e+00 -8.475215e-03 1.656889e+00 -1.688692e-02 
1.720867e+00 -6.171041e-03 1.691593e+00 -8.094424e-03 1.673676e+00 -8.555357e-03 1.685877e+00 -9.118685e-03 1.713655e+00 -8.378152e-03 1.748767e+00 -4.548487e-03 1.789125e+00 8.340600e-03 1.841106e+00 4.106279e-02 1.920205e+00 6.903032e-02 1.939779e+00 6.908321e-02 1.951960e+00 7.077844e-02 1.963747e+00 7.309862e-02 1.976233e+00 7.141759e-02 1.991130e+00 6.637024e-02 2.005173e+00 6.091885e-02 2.016690e+00 5.715795e-02 2.022888e+00 5.829535e-02 2.022652e+00 6.275448e-02 2.019232e+00 6.796310e-02 2.014685e+00 7.189437e-02 2.011375e+00 7.143987e-02 2.011399e+00 6.839699e-02 2.011369e+00 6.753845e-02 2.009763e+00 7.171181e-02 2.001951e+00 6.153909e-02 1.938029e+00 2.465450e-02 1.895055e+00 8.177817e-03 1.867239e+00 2.921668e-03 1.842761e+00 1.192801e-03 1.816496e+00 -1.858261e-04 1.786875e+00 -2.038535e-03 1.754238e+00 -4.176614e-03 
1.780247e+00 -1.848898e-02 1.778489e+00 -2.182338e-02 1.791269e+00 -2.218787e-02 1.773365e+00 -2.398230e-02 1.773505e+00 -2.382506e-02 1.784961e+00 -1.996288e-02 1.806108e+00 -4.736940e-03 1.845141e+00 4.040323e-02 1.931496e+00 7.664205e-02 1.932378e+00 7.354945e-02 1.934952e+00 7.672789e-02 1.940600e+00 8.143178e-02 1.948638e+00 8.055370e-02 1.961709e+00 7.473904e-02 1.975110e+00 6.812659e-02 1.986818e+00 6.301723e-02 1.993282e+00 6.405873e-02 1.992227e+00 6.927812e-02 1.987942e+00 7.542732e-02 1.982778e+00 8.037258e-02 1.979402e+00 7.987670e-02 1.981541e+00 7.606517e-02 1.984904e+00 7.575397e-02 1.988720e+00 8.375138e-02 1.988818e+00 6.981147e-02 1.908583e+00 2.345332e-02 1.867143e+00 5.394473e-03 1.847097e+00 8.769218e-05 1.832579e+00 -2.371957e-03 1.818433e+00 -5.419102e-03 1.803936e+00 -9.564776e-03 1.790278e+00 -1.420942e-02 
1.878217e+00 -4.478688e-03 1.885233e+00 -5.512361e-03 1.907673e+00 -5.800077e-03 1.877805e+00 -9.700781e-03 1.864854e+00 -1.493549e-02 1.861546e+00 -2.153689e-02 1.865251e+00 -2.133806e-02 1.890930e+00 4.023744e-02 2.063185e+00 1.156312e-01 2.008193e+00 7.541160e-02 1.997401e+00 7.569945e-02 1.996522e+00 8.339920e-02 1.998829e+00 7.958636e-02 2.012870e+00 6.935154e-02 2.026835e+00 5.931784e-02 2.040463e+00 5.047141e-02 2.047285e+00 5.436581e-02 2.041603e+00 6.340912e-02 2.033881e+00 7.312993e-02 2.025658e+00 8.264848e-02 2.020288e+00 8.000419e-02 2.027808e+00 7.151970e-02 2.036509e+00 6.857482e-02 2.051709e+00 9.562071e-02 2.108832e+00 1.095363e-01 1.939448e+00 -4.803004e-03 1.907273e+00 -1.707131e-02 1.903551e+00 -1.241493e-02 1.900125e+00 -7.545927e-03 1.894097e+00 -4.792216e-03 1.886738e+00 -3.800970e-03 1.880334e+00 -3.868693e-03 
1.936672e+00 -1.399405e-02 1.966278e+00 -1.593091e-02 2.013084e+00 -1.611171e-02 1.958889e+00 -2.110952e-02 1.922428e+00 -2.784853e-02 1.896918e+00 -3.830377e-02 1.879218e+00 -4.768944e-02 1.885014e+00 8.140846e-03 2.040665e+00 7.539807e-02 1.967694e+00 3.215260e-02 1.952414e+00 3.637169e-02 1.947612e+00 4.788711e-02 1.945575e+00 4.680229e-02 1.956922e+00 3.881821e-02 1.968686e+00 3.122172e-02 1.980887e+00 2.362841e-02 1.987350e+00 2.904313e-02 1.981018e+00 3.930742e-02 1.973754e+00 4.984714e-02 1.966548e+00 6.085957e-02 1.961573e+00 5.898907e-02 1.971360e+00 5.106960e-02 1.982663e+00 5.060674e-02 2.004580e+00 9.136409e-02 2.090856e+00 1.145086e-01 1.888662e+00 -1.901144e-02 1.875853e+00 -2.614870e-02 1.887064e+00 -1.768943e-02 1.895540e+00 -1.181010e-02 1.901655e+00 -9.709546e-03 1.908412e+00 -1.015828e-02 1.918897e+00 -1.189797e-02 
2.025400e+00 -2.368315e-03 2.061939e+00 -2.513945e-03 2.116262e+00 -2.610516e-03 2.053518e+00 -8.607404e-03 2.007044e+00 -1.913693e-02 1.966728e+00 -4.220372e-02 1.914358e+00 -1.039887e-01 1.800922e+00 -3.031048e-01 1.408250e+00 -5.020106e-01 1.488570e+00 -4.723634e-01 1.516209e+00 -4.966958e-01 1.530484e+00 -5.261301e-01 1.534657e+00 -5.258021e-01 1.510522e+00 -5.046881e-01 1.482379e+00 -4.802424e-01 1.455733e+00 -4.596660e-01 1.446515e+00 -4.670464e-01 1.466089e+00 -4.889748e-01 1.492376e+00 -5.124350e-01 1.517803e+00 -5.302108e-01 1.532475e+00 -5.175801e-01 1.517799e+00 -4.849643e-01 1.498807e+00 -4.569821e-01 1.474759e+00 -4.721208e-01 1.410707e+00 -4.239671e-01 1.775941e+00 -1.489036e-01 1.898895e+00 -6.111086e-02 1.941154e+00 -2.838808e-02 1.960229e+00 -1.425395e-02 1.972701e+00 -7.593515e-03 1.985053e+00 -4.391048e-03 2.001320e+00 -2.913845e-03 
2.080250e+00 -9.563241e-03 2.135434e+00 -1.013793e-02 2.209532e+00 -1.012187e-02 2.127106e+00 -1.629143e-02 2.060881e+00 -2.674734e-02 1.999395e+00 -5.117760e-02 1.917181e+00 -1.271609e-01 1.738151e+00 -4.229307e-01 1.125396e+00 -7.215910e-01 1.248017e+00 -6.657069e-01 1.284333e+00 -7.073992e-01 1.300973e+00 -7.597935e-01 1.304044e+00 -7.640920e-01 1.261357e+00 -7.346727e-01 1.212467e+00 -6.998428e-01 1.165592e+00 -6.695859e-01 1.146595e+00 -6.854311e-01 1.176126e+00 -7.252908e-01 1.216841e+00 -7.681517e-01 1.257023e+00 -8.035668e-01 1.281321e+00 -7.887179e-01 1.255183e+00 -7.412932e-01 1.221189e+00 -7.043644e-01 1.173313e+00 -7.514919e-01 1.029577e+00 -6.890020e-01 1.686545e+00 -2.113326e-01 1.873304e+00 -7.673421e-02 1.932063e+00 -3.343330e-02 1.960989e+00 -1.750231e-02 1.983835e+00 -1.137520e-02 2.008509e+00 -9.349696e-03 2.039367e+00 -9.118694e-03 
2.159521e+00 6.205459e-04 2.219953e+00 1.624772e-03 2.299766e+00 1.713779e-03 2.213068e+00 -3.432418e-03 2.143809e+00 -1.146653e-02 2.084793e+00 -2.534661e-02 2.026449e+00 -5.054329e-02 1.958582e+00 -9.143530e-02 1.886812e+00 -1.349869e-01 1.845215e+00 -1.562150e-01 1.833229e+00 -1.735633e-01 1.825678e+00 -1.884712e-01 1.817058e+00 -1.963237e-01 1.805078e+00 -1.978894e-01 1.792422e+00 -1.965189e-01 1.781624e+00 -1.959122e-01 1.776945e+00 -2.006570e-01 1.779833e+00 -2.091771e-01 1.786665e+00 -2.183645e-01 1.794374e+00 -2.248310e-01 1.799101e+00 -2.235451e-01 1.798519e+00 -2.161874e-01 1.797683e+00 -2.070862e-01 1.800223e+00 -1.971419e-01 1.810080e+00 -1.679007e-01 1.900743e+00 -9.290125e-02 1.963382e+00 -4.835300e-02 1.999626e+00 -2.524697e-02 2.025999e+00 -1.321169e-02 2.050820e+00 -6.712395e-03 2.078891e+00 -3.036208e-03 2.113898e+00 -8.219092e-04 
2.208965e+00 -4.703466e-03 2.284855e+00 -3.889458e-03 2.380939e+00 -3.702421e-03 2.279346e+00 -8.490632e-03 2.196513e+00 -1.503095e-02 2.128156e+00 -2.383535e-02 2.073305e+00 -2.711488e-02 2.052192e+00 4.348391e-02 2.225107e+00 1.338480e-01 2.116209e+00 8.320288e-02 2.075549e+00 8.432071e-02 2.052283e+00 9.400277e-02 2.036318e+00 8.929111e-02 2.038694e+00 7.691641e-02 2.043903e+00 6.497004e-02 2.051727e+00 5.369881e-02 2.054428e+00 5.773041e-02 2.044195e+00 6.758527e-02 2.034233e+00 7.800029e-02 2.025777e+00 8.868961e-02 2.021961e+00 8.439899e-02 2.036226e+00 7.284006e-02 2.053826e+00 6.834541e-02 2.083318e+00 1.061658e-01 2.179550e+00 1.288950e-01 1.978356e+00 -1.879353e-02 1.972959e+00 -2.845899e-02 2.000371e+00 -1.984044e-02 2.030528e+00 -1.270560e-02 2.063293e+00 -8.584030e-03 2.101774e+00 -6.479051e-03 2.149204e+00 -5.413842e-03 
2.278580e+00 4.400558e-03 2.358212e+00 6.519883e-03 2.458437e+00 6.770846e-03 2.355157e+00 3.533323e-03 2.271755e+00 -2.496253e-04 2.205751e+00 -3.317548e-03 2.157957e+00 1.321676e-03 2.141153e+00 4.597847e-02 2.220378e+00 9.573577e-02 2.163904e+00 7.728767e-02 2.129749e+00 7.850110e-02 2.107124e+00 8.363292e-02 2.092226e+00 8.087023e-02 2.089574e+00 7.277340e-02 2.090742e+00 6.434492e-02 2.094058e+00 5.726792e-02 2.094271e+00 5.942911e-02 2.087241e+00 6.632895e-02 2.079952e+00 7.427354e-02 2.074324e+00 8.172007e-02 2.073424e+00 8.056034e-02 2.084089e+00 7.477713e-02 2.098675e+00 7.332674e-02 2.119749e+00 9.081596e-02 2.164484e+00 9.040533e-02 2.060287e+00 6.741899e-03 2.048040e+00 -9.864577e-03 2.065625e+00 -9.424517e-03 2.092261e+00 -5.915625e-03 2.125080e+00 -2.581337e-03 2.165349e+00 1.179501e-04 2.215498e+00 2.356743e-03 
2.321349e+00 4.614829e-04 2.413836e+00 2.516058e-03 2.527536e+00 2.856585e-03 2.412537e+00 2.618243e-04 2.318405e+00 -1.718241e-03 2.243915e+00 -8.149969e-04 2.190693e+00 1.015197e-02 2.167455e+00 4.657881e-02 2.190968e+00 7.709043e-02 2.154189e+00 7.560347e-02 2.119825e+00 7.793043e-02 2.094215e+00 8.155323e-02 2.076909e+00 8.042940e-02 2.069212e+00 7.502427e-02 2.066401e+00 6.885491e-02 2.065916e+00 6.418046e-02 2.063895e+00 6.518051e-02 2.058175e+00 7.019981e-02 2.052376e+00 7.631316e-02 2.048665e+00 8.131239e-02 2.049788e+00 8.114763e-02 2.059122e+00 7.769238e-02 2.073101e+00 7.700345e-02 2.091293e+00 8.301564e-02 2.110036e+00 6.870667e-02 2.060168e+00 2.131075e-02 2.049991e+00 1.201611e-03 2.066948e+00 -4.101568e-03 2.097131e+00 -4.364542e-03 2.136602e+00 -3.380770e-03 2.185708e+00 -2.228521e-03 2.246389e+00 -1.015278e-03 
2.381122e+00 8.523432e-03 2.476024e+00 1.154121e-02 2.592454e+00 1.193651e-02 2.476838e+00 1.049924e-02 2.382449e+00 1.006462e-02 2.308218e+00 1.276051e-02 2.254652e+00 2.321992e-02 2.224982e+00 4.793873e-02 2.222287e+00 6.871838e-02 2.193509e+00 7.181827e-02 2.164028e+00 7.441860e-02 2.140201e+00 7.647687e-02 2.123219e+00 7.521145e-02 2.113593e+00 7.106896e-02 2.108418e+00 6.637415e-02 2.105525e+00 6.303052e-02 2.102226e+00 6.349309e-02 2.097340e+00 6.688228e-02 2.092956e+00 7.121190e-02 2.090791e+00 7.466189e-02 2.092840e+00 7.484964e-02 2.100717e+00 7.272873e-02 2.112116e+00 7.127642e-02 2.125492e+00 7.110717e-02 2.136449e+00 5.803196e-02 2.112104e+00 2.695120e-02 2.107777e+00 9.952620e-03 2.123428e+00 3.374147e-03 2.152294e+00 1.872694e-03 2.191693e+00 2.526855e-03 2.241747e+00 4.077218e-03 2.304062e+00 6.091353e-03 
2.416291e+00 5.476222e-03 2.521891e+00 8.469338e-03 2.649490e+00 8.946237e-03 2.524095e+00 8.039412e-03 2.420388e+00 8.823446e-03 2.337636e+00 1.341351e-02 2.275911e+00 2.514471e-02 2.235953e+00 4.583436e-02 2.214415e+00 6.258425e-02 2.183440e+00 6.923960e-02 2.151902e+00 7.326946e-02 2.125316e+00 7.573336e-02 2.105413e+00 7.550084e-02 2.092341e+00 7.287001e-02 2.084093e+00 6.955720e-02 2.078639e+00 6.723924e-02 2.073886e+00 6.751340e-02 2.069017e+00 7.004092e-02 2.065263e+00 7.333537e-02 2.064066e+00 7.580366e-02 2.066956e+00 7.593944e-02 2.074764e+00 7.407879e-02 2.085931e+00 7.162816e-02 2.098300e+00 6.741183e-02 2.106881e+00 5.316234e-02 2.098704e+00 3.053428e-02 2.101652e+00 1.463702e-02 2.121183e+00 6.363139e-03 2.154654e+00 2.882640e-03 2.200238e+00 1.922151e-03 2.257982e+00 2.277128e-03 2.329258e+00 3.478289e-03 
2.466094e+00 1.247236e-02 2.572920e+00 1.609298e-02 2.701950e+00 1.661365e-02 2.576394e+00 1.620993e-02 2.472454e+00 1.737026e-02 2.389210e+00 2.186758e-02 2.326068e+00 3.193513e-02 2.282259e+00 4.785544e-02 2.253508e+00 6.116873e-02 2.222561e+00 6.759097e-02 2.192341e+00 7.110776e-02 2.166535e+00 7.274406e-02 2.146716e+00 7.212595e-02 2.132923e+00 6.968504e-02 2.123638e+00 6.677755e-02 2.117154e+00 6.478569e-02 2.111841e+00 6.484012e-02 2.107133e+00 6.669778e-02 2.103885e+00 6.921345e-02 2.103250e+00 7.108114e-02 2.106367e+00 7.118491e-02 2.113627e+00 6.960136e-02 2.123757e+00 6.692163e-02 2.134769e+00 6.190931e-02 2.142943e+00 4.971466e-02 2.141790e+00 3.195437e-02 2.148349e+00 1.844393e-02 2.168603e+00 1.083132e-02 2.202039e+00 7.574293e-03 2.247744e+00 6.959174e-03 2.305957e+00 7.872582e-03 2.378020e+00 9.764263e-03 
2.492987e+00 9.900651e-03 2.608685e+00 1.347960e-02 2.746928e+00 1.407147e-02 2.612954e+00 1.389986e-02 2.500776e+00 1.560796e-02 2.409607e+00 2.081001e-02 2.338680e+00 3.113936e-02 2.286677e+00 4.597926e-02 2.248934e+00 5.867564e-02 2.212771e+00 6.605101e-02 2.178797e+00 7.039686e-02 2.149750e+00 7.265795e-02 2.126989e+00 7.277995e-02 2.110457e+00 7.119484e-02 2.098825e+00 6.905393e-02 2.090502e+00 6.758250e-02 2.084037e+00 6.770381e-02 2.078915e+00 6.927368e-02 2.075759e+00 7.134059e-02 2.075543e+00 7.275087e-02 2.079209e+00 7.257419e-02 2.086981e+00 7.071505e-02 2.097774e+00 6.734192e-02 2.109710e+00 6.115488e-02 2.119747e+00 4.899120e-02 2.124889e+00 3.301711e-02 2.136939e+00 1.999427e-02 2.161894e+00 1.182800e-02 2.200341e+00 7.642003e-03 2.251885e+00 6.090845e-03 2.316867e+00 6.212327e-03 2.396562e+00 7.521671e-03 
2.532775e+00 1.589536e-02 2.648587e+00 1.982228e-02 2.787033e+00 2.044525e-02 2.653251e+00 2.015413e-02 2.541003e+00 2.132691e-02 2.449388e+00 2.547235e-02 2.377665e+00 3.440927e-02 2.324984e+00 4.835045e-02 2.287788e+00 6.062230e-02 2.250685e+00 6.661490e-02 2.216072e+00 6.986118e-02 2.186839e+00 7.129905e-02 2.164087e+00 7.071229e-02 2.147593e+00 6.858525e-02 2.135919e+00 6.608536e-02 2.127504e+00 6.440125e-02 2.120879e+00 6.446215e-02 2.115587e+00 6.598556e-02 2.112336e+00 6.799122e-02 2.112077e+00 6.933384e-02 2.115776e+00 6.906672e-02 2.123665e+00 6.727779e-02 2.134674e+00 6.443253e-02 2.147193e+00 5.960638e-02 2.158300e+00 4.892684e-02 2.162932e+00 3.303367e-02 2.175286e+00 2.083151e-02 2.200910e+00 1.379072e-02 2.239807e+00 1.066133e-02 2.291539e+00 1.002994e-02 2.356573e+00 1.095675e-02 2.436293e+00 1.296182e-02 
2.550904e+00 1.350953e-02 2.673997e+00 1.734984e-02 2.819952e+00 1.803146e-02 2.678877e+00 1.765130e-02 2.559379e+00 1.880672e-02 2.460694e+00 2.295980e-02 2.382244e+00 3.205789e-02 2.323647e+00 4.683811e-02 2.282352e+00 6.004237e-02 2.239778e+00 6.611375e-02 2.200630e+00 6.974130e-02 2.167840e+00 7.173352e-02 2.142246e+00 7.164013e-02 2.123527e+00 6.991059e-02 2.110111e+00 6.772351e-02 2.100409e+00 6.625227e-02 2.092863e+00 6.649499e-02 2.086957e+00 6.811234e-02 2.083442e+00 7.010578e-02 2.083251e+00 7.132840e-02 2.087393e+00 7.077537e-02 2.096199e+00 6.862291e-02 2.108619e+00 6.554212e-02 2.123225e+00 6.082514e-02 2.137155e+00 4.994562e-02 2.143490e+00 3.299132e-02 2.159261e+00 2.045112e-02 2.189357e+00 1.323632e-02 2.233225e+00 9.804380e-03 2.290373e+00 8.746899e-03 2.361331e+00 9.219182e-03 2.447501e+00 1.083392e-02 
2.580729e+00 1.870163e-02 2.702833e+00 2.269128e-02 2.847786e+00 2.339077e-02 2.707360e+00 2.240554e-02 2.588057e+00 2.222379e-02 2.488942e+00 2.418648e-02 2.409835e+00 3.130964e-02 2.352780e+00 4.873115e-02 2.322374e+00 6.655604e-02 2.276039e+00 6.862938e-02 2.234271e+00 7.053275e-02 2.200618e+00 7.188367e-02 2.175104e+00 7.069170e-02 2.157295e+00 6.768350e-02 2.144807e+00 6.440753e-02 2.135962e+00 6.218401e-02 2.128607e+00 6.268396e-02 2.122107e+00 6.489969e-02 2.117914e+00 6.754333e-02 2.117059e+00 6.925230e-02 2.121014e+00 6.835146e-02 2.130575e+00 6.578028e-02 2.144201e+00 6.355375e-02 2.161308e+00 6.287669e-02 2.179952e+00 5.503680e-02 2.175509e+00 3.082571e-02 2.188947e+00 1.797753e-02 2.220246e+00 1.276363e-02 2.265085e+00 1.129870e-02 2.322373e+00 1.171154e-02 2.392875e+00 1.322810e-02 2.478262e+00 1.557135e-02 
2.589753e+00 1.634100e-02 2.717704e+00 2.019414e-02 2.868641e+00 2.093870e-02 2.721953e+00 1.960442e-02 2.596297e+00 1.890658e-02 2.490786e+00 2.008531e-02 2.405527e+00 2.674458e-02 2.344065e+00 4.721660e-02 2.317410e+00 6.898270e-02 2.262963e+00 6.884132e-02 2.215945e+00 7.079095e-02 2.178710e+00 7.288995e-02 2.150533e+00 7.197674e-02 2.131136e+00 6.890754e-02 2.117544e+00 6.550405e-02 2.108039e+00 6.310931e-02 2.100077e+00 6.397515e-02 2.092721e+00 6.667766e-02 2.087926e+00 6.975012e-02 2.086749e+00 7.175065e-02 2.090919e+00 7.046698e-02 2.101774e+00 6.725465e-02 2.117394e+00 6.500703e-02 2.137775e+00 6.621905e-02 2.162101e+00 5.886014e-02 2.151571e+00 2.886388e-02 2.167299e+00 1.546936e-02 2.203391e+00 1.079732e-02 2.253190e+00 9.657369e-03 2.315401e+00 1.005432e-02 2.390965e+00 1.135778e-02 2.481676e+00 1.343490e-02 
2.609746e+00 2.104103e-02 2.735558e+00 2.494590e-02 2.884278e+00 2.569530e-02 2.739005e+00 2.356331e-02 2.613989e+00 2.094539e-02 2.507518e+00 1.801920e-02 2.418955e+00 1.802093e-02 2.355140e+00 4.373902e-02 2.373649e+00 9.023435e-02 2.295452e+00 7.095110e-02 2.244065e+00 7.160571e-02 2.206246e+00 7.487004e-02 2.178195e+00 7.204399e-02 2.161358e+00 6.668183e-02 2.149786e+00 6.129442e-02 2.142590e+00 5.695343e-02 2.135398e+00 5.921526e-02 2.126303e+00 6.338591e-02 2.120126e+00 6.803429e-02 2.117272e+00 7.179038e-02 2.120452e+00 6.898186e-02 2.133125e+00 6.362557e-02 2.150138e+00 6.043050e-02 2.174494e+00 7.102288e-02 2.225017e+00 8.229091e-02 2.167741e+00 1.669190e-02 2.185317e+00 7.028600e-03 2.226633e+00 7.884679e-03 2.278339e+00 1.015562e-02 2.340373e+00 1.250290e-02 2.414715e+00 1.496799e-02 2.503681e+00 1.775474e-02 
2.609426e+00 1.863992e-02 2.739749e+00 2.237119e-02 2.893056e+00 2.315158e-02 2.742621e+00 2.057136e-02 2.612154e+00 1.710826e-02 2.499557e+00 1.225410e-02 2.403538e+00 8.405225e-03 2.331413e+00 3.322727e-02 2.354320e+00 8.262208e-02 2.262746e+00 5.663913e-02 2.207881e+00 5.705260e-02 2.167798e+00 6.083354e-02 2.137456e+00 5.800630e-02 2.119023e+00 5.281034e-02 2.105875e+00 4.778053e-02 2.097568e+00 4.343475e-02 2.089646e+00 4.604441e-02 2.079840e+00 5.015452e-02 2.073639e+00 5.455316e-02 2.070955e+00 5.825748e-02 2.074299e+00 5.494139e-02 2.087866e+00 4.916698e-02 2.105902e+00 4.608067e-02 2.132906e+00 6.071828e-02 2.195362e+00 7.861403e-02 2.129337e+00 6.541731e-03 2.156060e+00 1.108202e-03 2.204455e+00 4.730258e-03 2.261175e+00 8.109623e-03 2.327433e+00 1.070030e-02 2.405855e+00 1.304014e-02 2.499006e+00 1.558628e-02 
2.619765e+00 2.318840e-02 2.746718e+00 2.697646e-02 2.896556e+00 2.774702e-02 2.749001e+00 2.471665e-02 2.620556e+00 1.985793e-02 2.507070e+00 1.016152e-02 2.399726e+00 -1.505027e-02 2.275748e+00 -9.783984e-02 2.038635e+00 -2.077359e-01 2.017118e+00 -1.949115e-01 1.989053e+00 -2.084977e-01 1.961173e+00 -2.230855e-01 1.932588e+00 -2.228782e-01 1.897501e+00 -2.143761e-01 1.865831e+00 -2.044921e-01 1.839809e+00 -1.974651e-01 1.827875e+00 -2.045858e-01 1.832634e+00 -2.172142e-01 1.843190e+00 -2.304629e-01 1.856270e+00 -2.395381e-01 1.865258e+00 -2.331209e-01 1.864307e+00 -2.188513e-01 1.865502e+00 -2.076046e-01 1.868433e+00 -2.179449e-01 1.853305e+00 -2.109557e-01 2.066081e+00 -6.225724e-02 2.162670e+00 -1.531052e-02 2.223667e+00 1.676342e-03 2.281619e+00 9.192834e-03 2.346365e+00 1.348358e-02 2.422330e+00 1.673474e-02 2.512553e+00 1.983338e-02 
2.609929e+00 2.071041e-02 2.740117e+00 2.430675e-02 2.893236e+00 2.509227e-02 2.741943e+00 2.178679e-02 2.609491e+00 1.637345e-02 2.490854e+00 4.558075e-03 2.373665e+00 -3.077501e-02 2.220759e+00 -1.650269e-01 1.856165e+00 -3.488612e-01 1.865866e+00 -3.160547e-01 1.847887e+00 -3.350819e-01 1.823492e+00 -3.572206e-01 1.793999e+00 -3.545595e-01 1.749688e+00 -3.386116e-01 1.708234e+00 -3.208308e-01 1.673126e+00 -3.076382e-01 1.658759e+00 -3.185542e-01 1.670084e+00 -3.384677e-01 1.688521e+00 -3.595888e-01 1.709314e+00 -3.744319e-01 1.721687e+00 -3.635242e-01 1.714995e+00 -3.400507e-01 1.709576e+00 -3.223730e-01 1.702882e+00 -3.443220e-01 1.654099e+00 -3.417387e-01 1.998282e+00 -9.256271e-02 2.128793e+00 -2.287010e-02 2.198161e+00 -7.947843e-04 2.259842e+00 7.708251e-03 2.327518e+00 1.195204e-02 2.406367e+00 1.489026e-02 2.499588e+00 1.764310e-02 
2.610807e+00 2.535726e-02 2.736307e+00 2.905432e-02 2.884643e+00 2.980698e-02 2.738578e+00 2.674050e-02 2.611935e+00 2.208102e-02 2.501524e+00 1.402150e-02 2.402429e+00 -1.381317e-03 2.307632e+00 -2.924060e-02 2.206055e+00 -5.928193e-02 2.149802e+00 -6.697115e-02 2.109828e+00 -7.338383e-02 2.077230e+00 -7.828939e-02 2.049087e+00 -7.936799e-02 2.023917e+00 -7.770354e-02 2.003036e+00 -7.527976e-02 1.987248e+00 -7.394820e-02 1.978260e+00 -7.568504e-02 1.975943e+00 -7.915013e-02 1.978039e+00 -8.267856e-02 1.982945e+00 -8.447336e-02 1.988850e+00 -8.259001e-02 1.995460e+00 -7.827028e-02 2.005472e+00 -7.366205e-02 2.021305e+00 -6.897321e-02 2.048113e+00 -5.608764e-02 2.109258e+00 -2.468656e-02 2.168374e+00 -4.808011e-03 2.221819e+00 5.939685e-03 2.277663e+00 1.198416e-02 2.341206e+00 1.591161e-02 2.416011e+00 1.904822e-02 2.504968e+00 2.207633e-02 