# vtk DataFile Version 2.0
Comment goes here
ASCII

DATASET STRUCTURED_POINTS
FIELD FieldData 1
TIME 1 1 double
0.00900000
DIMENSIONS    256   256   1

ORIGIN    0.000   0.000   0.000
SPACING   0.0078125 0.0078125   1.000

POINT_DATA   65536
SCALARS uX double
LOOKUP_TABLE default

-9.903613e-01 -1.085399e+00 -1.530494e+00 -1.757652e+00 -2.468541e+00 -3.002408e+00 -4.240150e+00 -5.370810e+00 -7.622295e+00 -1.048400e+01 -1.418931e+01 -1.650704e+01 -1.791333e+01 -1.885309e+01 -1.977731e+01 -1.980511e+01 -2.037419e+01 -1.805276e+01 -1.853045e+01 -1.323176e+01 -1.497935e+01 -1.271268e+01 -2.779099e+00 -6.577515e+00 -2.652957e+00 -3.462865e+00 -2.079761e+00 -2.291624e+00 -1.441744e+00 -1.619333e+00 -9.982110e-01 -1.126518e+00 -6.922666e-01 -7.350049e-01 -4.538235e-01 -4.423906e-01 -2.376305e-01 -2.219135e-01 -4.437074e-02 -3.677798e-02 1.113130e-01 1.318734e-01 2.390900e-01 2.763820e-01 3.641454e-01 3.885489e-01 4.868700e-01 4.822523e-01 5.913468e-01 5.857064e-01 6.640575e-01 6.920326e-01 7.239239e-01 7.828258e-01 8.013516e-01 8.377669e-01 8.902860e-01 8.814576e-01 9.722494e-01 9.454789e-01 1.019913e+00 1.035497e+00 1.013770e+00 1.084116e+00 1.128260e+00 1.126876e+00 1.100334e+00 1.135129e+00 1.212249e+00 1.167286e+00 1.244558e+00 1.227544e+00 1.248753e+00 1.296047e+00 1.257616e+00 1.333275e+00 1.311618e+00 1.331856e+00 1.376082e+00 1.330033e+00 1.415981e+00 1.372794e+00 1.410388e+00 1.433108e+00 1.399760e+00 1.478231e+00 1.427293e+00 1.472921e+00 1.482828e+00 1.457645e+00 1.533195e+00 1.473305e+00 1.536407e+00 1.535116e+00 1.478466e+00 1.557302e+00 1.573981e+00 1.581858e+00 1.513655e+00 1.549912e+00 1.611339e+00 1.545235e+00 1.619537e+00 1.582009e+00 1.592367e+00 1.634299e+00 1.570610e+00 1.656597e+00 1.603638e+00 1.630238e+00 1.654127e+00 1.602035e+00 1.684214e+00 1.621896e+00 1.660193e+00 1.669272e+00 1.627789e+00 1.707181e+00 1.630573e+00 1.688685e+00 1.675338e+00 1.653584e+00 1.718306e+00 1.646489e+00 1.711775e+00 1.695846e+00 1.634884e+00 1.714035e+00 1.720820e+00 1.730719e+00 1.642864e+00 1.689701e+00 1.735800e+00 1.666642e+00 1.739485e+00 1.688853e+00 1.701551e+00 1.732624e+00 1.665497e+00 1.753586e+00 1.682255e+00 1.719972e+00 1.723910e+00 1.680164e+00 1.753051e+00 1.680599e+00 1.724848e+00 1.720094e+00 1.681815e+00 1.755166e+00 1.666538e+00 1.734922e+00 1.702335e+00 1.690344e+00 1.739852e+00 1.667543e+00 1.731874e+00 1.704199e+00 1.646694e+00 1.722169e+00 1.722043e+00 1.731265e+00 1.631901e+00 1.690998e+00 1.716638e+00 1.654792e+00 1.719127e+00 1.661281e+00 1.676741e+00 1.694852e+00 1.631766e+00 1.714754e+00 1.629446e+00 1.678900e+00 1.660587e+00 1.631161e+00 1.685460e+00 1.612774e+00 1.656175e+00 1.640808e+00 1.605210e+00 1.668093e+00 1.573516e+00 1.646904e+00 1.594876e+00 1.595197e+00 1.620719e+00 1.557880e+00 1.609225e+00 1.574495e+00 1.518607e+00 1.587104e+00 1.577919e+00 1.584945e+00 1.477109e+00 1.545875e+00 1.541026e+00 1.495855e+00 1.535343e+00 1.479178e+00 1.486687e+00 1.493413e+00 1.431028e+00 1.500990e+00 1.403000e+00 1.459286e+00 1.412184e+00 1.400474e+00 1.417954e+00 1.359545e+00 1.379781e+00 1.361831e+00 1.316360e+00 1.364838e+00 1.263220e+00 1.331804e+00 1.253561e+00 1.266742e+00 1.248242e+00 1.205946e+00 1.215590e+00 1.184134e+00 1.146015e+00 1.170736e+00 1.075406e+00 1.138542e+00 1.034567e+00 1.067734e+00 1.006486e+00 9.911486e-01 9.656723e-01 9.323588e-01 8.873101e-01 8.913046e-01 7.967628e-01 8.393831e-01 7.141574e-01 7.538088e-01 6.472116e-01 6.504453e-01 5.668585e-01 5.469085e-01 4.543971e-01 4.498168e-01 3.179058e-01 3.325558e-01 1.746308e-01 1.865437e-01 1.826212e-02 6.481492e-03 -1.717460e-01 -1.717349e-01 -3.746743e-01 -3.870068e-01 -6.344101e-01 -6.729718e-01 
-4.222954e-01 -6.188045e-01 -7.894222e-01 -1.133840e+00 -1.521981e+00 -2.319647e+00 -3.294006e+00 -4.523761e+00 -6.472653e+00 -1.067741e+01 -1.530653e+01 -1.932208e+01 -2.006941e+01 -2.134261e+01 -2.002275e+01 -2.049988e+01 -1.622135e+01 -1.398413e+01 -1.119931e+01 -1.022828e+01 -7.897578e+00 -2.538956e+00 -5.862293e+00 -3.651167e+00 -2.859153e+00 -2.601119e+00 -1.818546e+00 -1.747277e+00 -1.064864e+00 -1.174232e+00 -6.059737e-01 -7.418944e-01 -3.293779e-01 -3.953042e-01 -1.277001e-01 -1.496326e-01 5.988701e-02 2.564187e-02 2.287768e-01 1.770323e-01 3.551051e-01 3.243673e-01 4.522884e-01 4.501499e-01 5.580277e-01 5.385851e-01 6.698515e-01 6.080382e-01 7.623688e-01 7.015334e-01 8.130162e-01 8.053081e-01 8.498111e-01 8.918089e-01 9.188551e-01 9.273174e-01 1.008128e+00 9.509863e-01 1.091460e+00 1.009610e+00 1.129724e+00 1.113751e+00 1.072793e+00 1.158192e+00 1.249208e+00 1.190704e+00 1.140007e+00 1.177097e+00 1.306828e+00 1.199659e+00 1.324240e+00 1.267743e+00 1.306957e+00 1.350033e+00 1.298040e+00 1.384830e+00 1.362452e+00 1.362419e+00 1.441400e+00 1.341648e+00 1.483730e+00 1.392582e+00 1.456564e+00 1.468814e+00 1.425880e+00 1.522838e+00 1.455147e+00 1.497285e+00 1.526784e+00 1.462029e+00 1.591089e+00 1.474854e+00 1.587078e+00 1.562580e+00 1.467300e+00 1.582923e+00 1.641255e+00 1.611864e+00 1.500188e+00 1.554479e+00 1.667746e+00 1.537216e+00 1.663037e+00 1.587084e+00 1.612468e+00 1.660262e+00 1.571819e+00 1.686059e+00 1.618963e+00 1.636551e+00 1.689842e+00 1.588115e+00 1.729368e+00 1.615671e+00 1.683275e+00 1.683894e+00 1.630544e+00 1.737441e+00 1.631310e+00 1.699754e+00 1.697980e+00 1.642808e+00 1.760376e+00 1.629365e+00 1.749906e+00 1.706975e+00 1.605501e+00 1.728016e+00 1.773375e+00 1.751053e+00 1.612005e+00 1.688131e+00 1.781719e+00 1.648288e+00 1.776249e+00 1.682807e+00 1.714226e+00 1.749569e+00 1.658450e+00 1.779956e+00 1.686594e+00 1.723480e+00 1.750571e+00 1.663472e+00 1.795095e+00 1.665672e+00 1.747054e+00 1.728819e+00 1.683138e+00 1.783616e+00 1.660880e+00 1.748037e+00 1.720700e+00 1.680579e+00 1.780366e+00 1.648064e+00 1.773213e+00 1.711079e+00 1.619272e+00 1.737460e+00 1.774800e+00 1.751638e+00 1.601010e+00 1.696543e+00 1.763842e+00 1.640443e+00 1.762189e+00 1.655748e+00 1.697212e+00 1.712540e+00 1.633523e+00 1.747391e+00 1.636755e+00 1.691673e+00 1.691556e+00 1.624448e+00 1.735785e+00 1.602079e+00 1.691701e+00 1.654723e+00 1.620324e+00 1.703619e+00 1.578523e+00 1.673058e+00 1.623632e+00 1.599378e+00 1.672637e+00 1.551054e+00 1.667646e+00 1.589383e+00 1.511327e+00 1.614298e+00 1.645938e+00 1.617319e+00 1.467396e+00 1.572826e+00 1.605208e+00 1.502469e+00 1.600984e+00 1.489909e+00 1.534684e+00 1.527010e+00 1.463953e+00 1.553141e+00 1.436670e+00 1.498243e+00 1.470332e+00 1.422832e+00 1.497343e+00 1.376083e+00 1.452639e+00 1.401784e+00 1.373435e+00 1.426429e+00 1.312272e+00 1.392701e+00 1.325163e+00 1.311698e+00 1.342850e+00 1.240808e+00 1.317427e+00 1.236994e+00 1.235309e+00 1.245260e+00 1.157152e+00 1.224994e+00 1.131466e+00 1.143731e+00 1.127323e+00 1.060474e+00 1.105573e+00 1.009869e+00 1.024823e+00 9.923180e-01 9.332669e-01 9.601344e-01 8.609343e-01 8.763849e-01 8.228535e-01 7.732114e-01 7.688171e-01 6.792033e-01 6.700369e-01 6.079086e-01 5.449105e-01 5.117194e-01 4.275123e-01 3.829569e-01 3.080926e-01 2.118611e-01 1.482838e-01 7.003039e-02 2.811101e-03 -9.595653e-02 -1.793110e-01 -3.132041e-01 
-8.895622e-01 -9.455574e-01 -1.318208e+00 -1.463983e+00 -2.038205e+00 -2.459089e+00 -3.627460e+00 -4.036964e+00 -5.011467e+00 -5.661207e+00 -7.187076e+00 -8.325352e+00 -9.690376e+00 -7.714629e+00 -5.433792e+00 -2.573751e-01 4.189831e+00 6.487452e+00 1.064967e+01 3.511845e+00 1.951119e+00 5.860150e+00 1.111694e+00 -5.792273e-01 5.407677e-01 -1.492200e+00 9.843421e-03 -1.091431e+00 -3.207750e-01 -7.506801e-01 -3.720762e-01 -5.413803e-01 -2.949734e-01 -4.087646e-01 -1.914421e-01 -2.877994e-01 -1.085275e-01 -1.704708e-01 -3.965907e-02 -7.200043e-02 3.359668e-02 4.309765e-03 1.057875e-01 7.439003e-02 1.597526e-01 1.492187e-01 2.001876e-01 2.183136e-01 2.451629e-01 2.624915e-01 3.048237e-01 2.918183e-01 3.624217e-01 3.268486e-01 3.946303e-01 3.818768e-01 4.098426e-01 4.373094e-01 4.292217e-01 4.688960e-01 4.778854e-01 4.831778e-01 5.676752e-01 5.587754e-01 5.388451e-01 4.850397e-01 5.470593e-01 5.666379e-01 5.469367e-01 6.001375e-01 5.804050e-01 6.053016e-01 6.294854e-01 6.015612e-01 6.657582e-01 6.219135e-01 6.644858e-01 6.659496e-01 6.530054e-01 7.040177e-01 6.628335e-01 7.051027e-01 7.022129e-01 6.914502e-01 7.416145e-01 6.923777e-01 7.474365e-01 7.270578e-01 7.322236e-01 7.670705e-01 7.240751e-01 7.787577e-01 7.544714e-01 7.595392e-01 8.134834e-01 7.915631e-01 7.829048e-01 7.454493e-01 7.958840e-01 8.097971e-01 7.679003e-01 8.260530e-01 7.822459e-01 8.143403e-01 8.204012e-01 7.927903e-01 8.487333e-01 7.969981e-01 8.362291e-01 8.309286e-01 8.112075e-01 8.628316e-01 8.060927e-01 8.569287e-01 8.358835e-01 8.324513e-01 8.703076e-01 8.189754e-01 8.732910e-01 8.438918e-01 8.492314e-01 8.787583e-01 8.293457e-01 8.878295e-01 8.493568e-01 8.579516e-01 8.946018e-01 8.697213e-01 8.645771e-01 8.354017e-01 8.849037e-01 8.907991e-01 8.455014e-01 9.024511e-01 8.481104e-01 8.869263e-01 8.792535e-01 8.589883e-01 9.053386e-01 8.522836e-01 8.919387e-01 8.787287e-01 8.624321e-01 9.080001e-01 8.467284e-01 9.037982e-01 8.687023e-01 8.755147e-01 8.995948e-01 8.534417e-01 9.042179e-01 8.697461e-01 8.773207e-01 8.999596e-01 8.509790e-01 9.094100e-01 8.612611e-01 8.759463e-01 8.952399e-01 8.718625e-01 8.671586e-01 8.491043e-01 8.951808e-01 8.929519e-01 8.497308e-01 9.021307e-01 8.417283e-01 8.870372e-01 8.646179e-01 8.568231e-01 8.874003e-01 8.405001e-01 8.764625e-01 8.582446e-01 8.451777e-01 8.827319e-01 8.214101e-01 8.808233e-01 8.334620e-01 8.512329e-01 8.575604e-01 8.235266e-01 8.621090e-01 8.292769e-01 8.342384e-01 8.511395e-01 8.035376e-01 8.581907e-01 8.014035e-01 8.229517e-01 8.171486e-01 7.983300e-01 7.916804e-01 7.965760e-01 8.273179e-01 8.197356e-01 7.774222e-01 8.217795e-01 7.567700e-01 8.063802e-01 7.655525e-01 7.744127e-01 7.776399e-01 7.487963e-01 7.657355e-01 7.518906e-01 7.319660e-01 7.631107e-01 7.004827e-01 7.566806e-01 6.955686e-01 7.248484e-01 7.021978e-01 6.913860e-01 6.964646e-01 6.800715e-01 6.642082e-01 6.829251e-01 6.269621e-01 6.781522e-01 6.060024e-01 6.483159e-01 6.004693e-01 6.107176e-01 5.909786e-01 5.832641e-01 5.597367e-01 5.711866e-01 5.176831e-01 5.580012e-01 4.795758e-01 5.279190e-01 4.545204e-01 4.845436e-01 4.292112e-01 4.410342e-01 3.903617e-01 4.061022e-01 3.369788e-01 3.701293e-01 2.791752e-01 3.222721e-01 2.218309e-01 2.594818e-01 1.565103e-01 1.856574e-01 7.365754e-02 9.906216e-02 -3.257769e-02 -1.023167e-02 -1.688908e-01 -1.605394e-01 -3.529769e-01 -3.555215e-01 -5.858518e-01 -6.062616e-01 
-2.911471e-01 -4.293511e-01 -4.602990e-01 -5.890827e-01 -4.484154e-01 -3.860120e-01 1.771816e-01 -3.571944e-01 -5.835785e-01 -4.371471e-01 6.568055e-01 1.175229e+00 2.304598e+00 1.810130e+00 2.438700e+00 2.533829e+00 6.090843e-01 -2.959579e+00 -4.333878e+00 -6.157238e+00 -6.230213e+00 1.489300e+00 8.224458e-01 1.745975e-01 2.479747e+00 7.826998e-01 2.066477e+00 9.980666e-01 1.231233e+00 9.422194e-01 7.586163e-01 7.110831e-01 5.877285e-01 4.172761e-01 5.055606e-01 2.449620e-01 3.754856e-01 1.798455e-01 2.335483e-01 1.199437e-01 1.657979e-01 2.331210e-02 1.447490e-01 -4.874289e-02 7.054180e-02 -4.338827e-02 -4.483024e-02 -1.367098e-02 -1.181476e-01 -7.919348e-02 -8.146343e-02 -1.992803e-01 -2.016890e-02 -2.792420e-01 -7.020199e-02 -2.187480e-01 -2.009436e-01 -1.314470e-01 -3.160011e-01 -1.568759e-01 -2.844024e-01 -3.095167e-01 1.300706e-03 -3.077387e-01 -3.856964e-01 -4.053967e-01 -1.110378e-01 -2.488453e-01 -4.408302e-01 -1.899042e-01 -4.099419e-01 -2.980060e-01 -2.640900e-01 -4.637626e-01 -1.528675e-01 -4.936549e-01 -2.679098e-01 -3.461940e-01 -4.476694e-01 -2.063126e-01 -5.194823e-01 -2.846144e-01 -3.771914e-01 -4.624642e-01 -2.186305e-01 -5.747787e-01 -2.428869e-01 -4.485404e-01 -4.164499e-01 -2.807309e-01 -5.696497e-01 -2.580873e-01 -5.065142e-01 -4.518865e-01 -1.350393e-01 -5.087740e-01 -5.368277e-01 -5.560077e-01 -1.925589e-01 -3.692406e-01 -5.998843e-01 -2.585257e-01 -5.764246e-01 -3.707415e-01 -3.890119e-01 -5.696522e-01 -2.302501e-01 -6.305163e-01 -3.348347e-01 -4.550286e-01 -5.368070e-01 -2.744608e-01 -6.452973e-01 -3.204796e-01 -4.909135e-01 -5.140121e-01 -2.996229e-01 -6.649023e-01 -2.704440e-01 -5.450424e-01 -4.572484e-01 -3.464317e-01 -6.393671e-01 -2.769495e-01 -5.950995e-01 -4.714406e-01 -1.942772e-01 -5.786050e-01 -5.859812e-01 -5.952121e-01 -1.899334e-01 -4.287664e-01 -6.325544e-01 -2.808877e-01 -6.388775e-01 -3.703648e-01 -4.461841e-01 -5.760776e-01 -2.640656e-01 -6.753658e-01 -3.311290e-01 -5.070257e-01 -5.330209e-01 -3.119511e-01 -6.769764e-01 -3.028116e-01 -5.428751e-01 -4.967630e-01 -3.380741e-01 -6.721176e-01 -2.596738e-01 -5.827283e-01 -4.394088e-01 -3.749428e-01 -6.336158e-01 -2.693479e-01 -6.225147e-01 -4.411147e-01 -2.242715e-01 -5.885985e-01 -5.869731e-01 -5.760516e-01 -1.583585e-01 -4.532590e-01 -6.018765e-01 -2.821580e-01 -6.410672e-01 -3.324598e-01 -4.641586e-01 -5.268085e-01 -2.772922e-01 -6.570278e-01 -2.898887e-01 -5.158189e-01 -4.792528e-01 -3.198352e-01 -6.410437e-01 -2.597263e-01 -5.428208e-01 -4.369669e-01 -3.399493e-01 -6.156464e-01 -2.273678e-01 -5.643825e-01 -3.811865e-01 -3.655067e-01 -5.670114e-01 -2.401721e-01 -5.891782e-01 -3.698503e-01 -2.230790e-01 -5.409437e-01 -5.412010e-01 -4.925426e-01 -1.020499e-01 -4.280754e-01 -5.070183e-01 -2.536028e-01 -5.678481e-01 -2.534577e-01 -4.237976e-01 -4.166553e-01 -2.505027e-01 -5.508375e-01 -2.105882e-01 -4.497336e-01 -3.664127e-01 -2.706210e-01 -5.131539e-01 -1.813713e-01 -4.536921e-01 -3.153360e-01 -2.769276e-01 -4.633774e-01 -1.575896e-01 -4.450820e-01 -2.621396e-01 -2.771385e-01 -4.027877e-01 -1.411336e-01 -4.219122e-01 -2.070840e-01 -2.705546e-01 -3.326880e-01 -1.300301e-01 -3.802427e-01 -1.499922e-01 -2.523612e-01 -2.564178e-01 -1.157255e-01 -3.200335e-01 -8.612945e-02 -2.212683e-01 -1.723306e-01 -8.972229e-02 -2.325023e-01 -2.875166e-02 -1.581859e-01 -8.566746e-02 -3.438361e-02 -1.220803e-01 4.221174e-02 -5.408419e-02 2.543218e-02 6.415275e-02 3.284486e-02 1.240014e-01 8.304772e-02 1.295444e-01 1.711131e-01 1.499341e-01 9.256325e-02 3.674516e-02 -5.203842e-02 -1.150058e-01 -2.290181e-01 
-6.584415e-01 -6.135462e-01 -7.903651e-01 -6.244236e-01 -5.698790e-01 4.723955e-02 9.304241e-01 1.067489e+00 4.909043e-01 1.215631e+00 5.580568e-01 7.357916e-01 -3.159554e-01 -1.422698e-01 -2.502894e+00 -6.212458e+00 -1.115890e+01 -1.391611e+01 -1.882710e+01 -1.427870e+01 -1.344771e+01 -1.513467e+01 -3.236535e+00 -6.079048e+00 -1.153349e+00 -2.479586e+00 -5.405742e-01 -1.217100e+00 -3.591859e-01 -6.128112e-01 -2.790198e-01 -3.463511e-01 -1.763193e-01 -2.595603e-01 -7.945207e-02 -1.990814e-01 -3.854073e-02 -1.270996e-01 -3.002514e-02 -7.463827e-02 -2.038020e-03 -5.801568e-02 3.920056e-02 -4.211201e-02 4.525637e-02 5.384652e-03 2.203532e-02 5.952184e-02 1.585342e-02 5.742183e-02 6.506871e-02 2.017035e-02 1.249218e-01 1.593214e-03 1.204941e-01 5.728768e-02 6.798492e-02 1.262330e-01 2.222345e-02 1.281336e-01 5.484393e-02 4.805068e-02 1.934293e-01 2.095115e-02 1.654396e-02 6.388616e-02 2.141641e-01 1.511710e-01 3.289280e-02 1.857719e-01 5.487927e-02 1.302662e-01 1.470888e-01 4.334075e-02 2.180846e-01 3.627611e-02 1.587834e-01 1.298202e-01 6.190598e-02 2.172070e-01 2.959561e-02 1.768961e-01 1.194937e-01 7.917524e-02 2.179906e-01 2.179476e-02 2.071682e-01 1.017652e-01 1.105220e-01 2.056948e-01 2.759502e-02 2.203712e-01 7.239855e-02 1.050498e-01 2.724939e-01 6.707912e-02 5.897282e-02 6.326007e-02 2.617459e-01 1.828850e-01 3.306813e-02 2.426714e-01 4.865561e-02 1.760231e-01 1.623290e-01 6.108416e-02 2.564655e-01 3.106376e-02 1.943318e-01 1.378441e-01 7.627993e-02 2.459170e-01 1.725273e-02 2.171500e-01 1.117204e-01 1.033339e-01 2.274157e-01 1.785177e-02 2.421196e-01 9.239614e-02 1.317075e-01 2.126289e-01 2.648978e-02 2.511684e-01 5.964751e-02 1.316967e-01 2.854456e-01 7.661717e-02 6.739495e-02 5.880093e-02 2.866155e-01 1.732081e-01 3.437557e-02 2.539725e-01 3.161405e-02 1.971467e-01 1.477784e-01 7.415708e-02 2.552116e-01 1.861289e-02 2.112870e-01 1.200953e-01 8.923957e-02 2.365523e-01 5.439053e-03 2.371818e-01 8.700022e-02 1.195040e-01 2.098905e-01 1.552996e-02 2.515575e-01 7.092726e-02 1.416453e-01 1.955316e-01 2.521388e-02 2.545075e-01 3.751536e-02 1.465240e-01 2.692033e-01 7.506165e-02 6.009421e-02 5.273251e-02 2.906852e-01 1.439784e-01 3.398680e-02 2.390971e-01 9.792507e-03 2.032499e-01 1.154852e-01 8.350418e-02 2.256485e-01 5.479605e-03 2.113465e-01 8.939804e-02 9.295583e-02 2.056339e-01 -6.421433e-03 2.347543e-01 5.163339e-02 1.231648e-01 1.715969e-01 1.215503e-02 2.322656e-01 4.190650e-02 1.334927e-01 1.591983e-01 1.669779e-02 2.294937e-01 5.536814e-03 1.456851e-01 2.280374e-01 6.722705e-02 3.274917e-02 3.800411e-02 2.599302e-01 9.424576e-02 2.028007e-02 1.926957e-01 -2.143116e-02 1.845558e-01 6.133493e-02 7.793638e-02 1.609929e-01 -1.013698e-02 1.746492e-01 4.530964e-02 6.952606e-02 1.479186e-01 -2.990588e-02 1.918318e-01 -2.088731e-03 9.916334e-02 9.685727e-02 -2.706943e-03 1.578195e-01 -1.000866e-03 8.007897e-02 9.196628e-02 -2.116337e-02 1.637842e-01 -4.649260e-02 1.088573e-01 3.274486e-02 1.538527e-02 1.047589e-01 -2.953334e-02 7.417881e-02 3.422276e-02 -1.252736e-02 1.037718e-01 -7.402595e-02 1.034793e-01 -3.421933e-02 2.790194e-02 2.620940e-02 -3.394557e-02 3.944800e-02 -1.120287e-02 -2.596209e-02 4.316356e-02 -8.267403e-02 6.570612e-02 -7.450902e-02 2.400241e-02 -3.523816e-02 -6.792280e-03 -3.768015e-02 -1.277801e-02 -8.409257e-02 1.188297e-03 -1.319247e-01 -1.065736e-01 -2.814074e-01 -2.669651e-01 -4.646573e-01 -4.476241e-01 
-1.599703e-01 -2.590730e-01 -2.705726e-01 -3.532572e-01 -2.834643e-01 -2.958189e-01 -1.038039e-01 -2.829396e-02 4.587555e-01 8.835488e-01 1.042801e+00 4.662399e-01 -2.156085e-01 1.034610e-01 -3.174233e-02 -2.864852e-01 -4.191808e-01 -1.862634e-01 -9.077728e-03 -2.382789e-01 -7.290725e-01 -7.478864e+00 -3.684016e+00 -3.062716e+00 -3.113148e+00 -2.238348e+00 -1.942388e+00 -1.578523e+00 -1.081439e+00 -1.069129e+00 -5.839311e-01 -6.590064e-01 -2.971943e-01 -3.254173e-01 -9.338238e-02 -9.253720e-02 9.252362e-02 7.155606e-02 2.567939e-01 2.134622e-01 3.776311e-01 3.515390e-01 4.696248e-01 4.686502e-01 5.691995e-01 5.503939e-01 6.734839e-01 6.145239e-01 7.591446e-01 7.008974e-01 8.057779e-01 7.959701e-01 8.398339e-01 8.748571e-01 9.028089e-01 9.068186e-01 9.830642e-01 9.280574e-01 1.056313e+00 9.781752e-01 1.085167e+00 1.058096e+00 1.005250e+00 1.060598e+00 1.187731e+00 1.185266e+00 1.138712e+00 1.158198e+00 1.268970e+00 1.165474e+00 1.276356e+00 1.221918e+00 1.258954e+00 1.292424e+00 1.250651e+00 1.323005e+00 1.306947e+00 1.303508e+00 1.375309e+00 1.286356e+00 1.412704e+00 1.330979e+00 1.389121e+00 1.397225e+00 1.363819e+00 1.444442e+00 1.389044e+00 1.422322e+00 1.451107e+00 1.393203e+00 1.505992e+00 1.403702e+00 1.502909e+00 1.471807e+00 1.385642e+00 1.482982e+00 1.546369e+00 1.529023e+00 1.437934e+00 1.486785e+00 1.579865e+00 1.463482e+00 1.572669e+00 1.504973e+00 1.528789e+00 1.566556e+00 1.494384e+00 1.589259e+00 1.534223e+00 1.546649e+00 1.594018e+00 1.506483e+00 1.628016e+00 1.529428e+00 1.588397e+00 1.587487e+00 1.544981e+00 1.632675e+00 1.544772e+00 1.600676e+00 1.601632e+00 1.553433e+00 1.653842e+00 1.541939e+00 1.647544e+00 1.601997e+00 1.517225e+00 1.628051e+00 1.666112e+00 1.636869e+00 1.525885e+00 1.598673e+00 1.673088e+00 1.557758e+00 1.667089e+00 1.586238e+00 1.614349e+00 1.641941e+00 1.568027e+00 1.667989e+00 1.590724e+00 1.619560e+00 1.644036e+00 1.570105e+00 1.681012e+00 1.570656e+00 1.640146e+00 1.623683e+00 1.587201e+00 1.668602e+00 1.567190e+00 1.638683e+00 1.617431e+00 1.582354e+00 1.666522e+00 1.555343e+00 1.664065e+00 1.603781e+00 1.531928e+00 1.643402e+00 1.665190e+00 1.623249e+00 1.504719e+00 1.595848e+00 1.647617e+00 1.543041e+00 1.645632e+00 1.555142e+00 1.590831e+00 1.602076e+00 1.538346e+00 1.630619e+00 1.539213e+00 1.582980e+00 1.584018e+00 1.527188e+00 1.619190e+00 1.506544e+00 1.581689e+00 1.549549e+00 1.521837e+00 1.588073e+00 1.485316e+00 1.562043e+00 1.521912e+00 1.500053e+00 1.561196e+00 1.460558e+00 1.561066e+00 1.490487e+00 1.435668e+00 1.538559e+00 1.543295e+00 1.481452e+00 1.365646e+00 1.466163e+00 1.489685e+00 1.404794e+00 1.486017e+00 1.393465e+00 1.430518e+00 1.422847e+00 1.371828e+00 1.441947e+00 1.346349e+00 1.394585e+00 1.371517e+00 1.330802e+00 1.390012e+00 1.289154e+00 1.350774e+00 1.307192e+00 1.283133e+00 1.323088e+00 1.229783e+00 1.292488e+00 1.236578e+00 1.222807e+00 1.246194e+00 1.161683e+00 1.221662e+00 1.154126e+00 1.150586e+00 1.155583e+00 1.083609e+00 1.134265e+00 1.057698e+00 1.063532e+00 1.048665e+00 9.922726e-01 1.025045e+00 9.458938e-01 9.545797e-01 9.255539e-01 8.763031e-01 8.927310e-01 8.127247e-01 8.196242e-01 7.758643e-01 7.319680e-01 7.257317e-01 6.517797e-01 6.412828e-01 5.891255e-01 5.375025e-01 5.067914e-01 4.415129e-01 4.013040e-01 3.452690e-01 2.668660e-01 2.194380e-01 1.508514e-01 1.027009e-01 2.353121e-02 -2.601620e-02 -1.183019e-01 
-4.998664e-01 -4.635030e-01 -6.706695e-01 -6.294187e-01 -8.970481e-01 -9.462499e-01 -1.492243e+00 -1.168044e+00 -1.047345e+00 -6.388184e-01 -4.104662e-01 7.348642e-02 -3.211141e-02 3.702720e-02 -4.572096e-03 5.094226e-02 2.259799e-03 -4.542520e-02 -1.763324e-01 -5.274529e-01 -2.035709e-01 -1.173665e+00 -5.318310e+00 -2.183505e+00 -3.266775e+00 -2.327088e+00 -2.125900e+00 -1.871987e+00 -1.403244e+00 -1.414430e+00 -9.339581e-01 -1.002681e+00 -6.260867e-01 -6.429762e-01 -3.959262e-01 -3.686868e-01 -1.860209e-01 -1.638035e-01 3.656141e-03 1.003875e-02 1.531295e-01 1.733820e-01 2.726544e-01 3.140076e-01 3.937771e-01 4.190509e-01 5.165926e-01 5.043194e-01 6.201537e-01 6.061472e-01 6.858358e-01 7.147286e-01 7.370445e-01 8.062250e-01 8.131428e-01 8.527946e-01 9.046815e-01 8.858522e-01 9.876282e-01 9.448960e-01 1.024969e+00 1.036200e+00 9.837322e-01 1.067713e+00 1.155037e+00 1.173043e+00 1.115165e+00 1.152625e+00 1.244340e+00 1.174711e+00 1.264427e+00 1.237299e+00 1.254921e+00 1.313192e+00 1.254033e+00 1.348323e+00 1.315218e+00 1.335122e+00 1.389238e+00 1.323067e+00 1.430650e+00 1.372059e+00 1.413342e+00 1.442458e+00 1.391688e+00 1.492598e+00 1.422114e+00 1.475523e+00 1.487568e+00 1.447980e+00 1.545326e+00 1.462063e+00 1.540228e+00 1.538365e+00 1.445887e+00 1.547264e+00 1.592063e+00 1.607452e+00 1.501732e+00 1.547105e+00 1.632402e+00 1.536500e+00 1.630845e+00 1.580870e+00 1.588888e+00 1.645076e+00 1.556350e+00 1.667729e+00 1.599079e+00 1.627520e+00 1.662004e+00 1.587505e+00 1.696593e+00 1.613693e+00 1.659315e+00 1.673654e+00 1.614662e+00 1.720190e+00 1.618308e+00 1.689425e+00 1.676329e+00 1.640808e+00 1.730263e+00 1.631129e+00 1.717908e+00 1.699849e+00 1.603440e+00 1.709019e+00 1.736926e+00 1.747728e+00 1.618452e+00 1.681179e+00 1.752240e+00 1.652055e+00 1.749086e+00 1.682615e+00 1.696065e+00 1.739819e+00 1.648267e+00 1.764597e+00 1.673453e+00 1.716877e+00 1.728448e+00 1.664631e+00 1.765666e+00 1.668044e+00 1.724628e+00 1.721716e+00 1.668592e+00 1.768028e+00 1.651010e+00 1.737177e+00 1.701515e+00 1.678568e+00 1.752131e+00 1.651494e+00 1.742073e+00 1.708722e+00 1.619619e+00 1.723409e+00 1.738427e+00 1.741734e+00 1.599964e+00 1.681979e+00 1.729661e+00 1.638754e+00 1.729127e+00 1.652171e+00 1.672575e+00 1.699438e+00 1.615844e+00 1.726935e+00 1.618320e+00 1.678215e+00 1.663347e+00 1.618037e+00 1.698900e+00 1.598684e+00 1.659088e+00 1.641426e+00 1.595087e+00 1.681270e+00 1.558358e+00 1.652869e+00 1.594375e+00 1.587870e+00 1.634540e+00 1.545632e+00 1.626413e+00 1.582265e+00 1.501685e+00 1.599276e+00 1.596773e+00 1.586812e+00 1.439861e+00 1.538722e+00 1.550672e+00 1.481982e+00 1.546713e+00 1.469617e+00 1.486795e+00 1.497386e+00 1.420905e+00 1.515283e+00 1.393493e+00 1.464142e+00 1.416344e+00 1.394082e+00 1.433561e+00 1.349441e+00 1.389082e+00 1.365031e+00 1.314273e+00 1.380089e+00 1.254879e+00 1.344602e+00 1.257315e+00 1.268421e+00 1.264029e+00 1.200039e+00 1.233032e+00 1.188037e+00 1.153429e+00 1.186306e+00 1.075398e+00 1.159527e+00 1.041357e+00 1.080554e+00 1.024942e+00 9.976984e-01 9.928514e-01 9.421238e-01 9.097267e-01 9.135847e-01 8.148916e-01 8.723420e-01 7.348488e-01 7.863844e-01 6.820817e-01 6.817503e-01 6.149504e-01 5.831076e-01 5.082602e-01 5.025135e-01 3.766314e-01 4.010050e-01 2.489006e-01 2.715682e-01 1.193072e-01 1.088116e-01 -3.992737e-02 -2.172314e-02 -1.800783e-01 -1.589594e-01 -3.348584e-01 -3.089428e-01 
-5.057698e-02 -1.348013e-01 -1.765653e-01 -2.742329e-01 -3.432706e-01 -4.985108e-01 -6.855123e-01 -6.876222e-01 -4.931303e-01 -3.860977e-01 1.768205e-03 5.759413e-01 2.831453e-01 3.963487e-02 2.894350e-02 -1.246617e-01 -1.574328e-01 -2.181786e-01 -1.998468e-01 -4.715011e-01 -4.850352e-01 -1.191519e+00 -9.724150e-01 -1.439976e+00 -1.421656e+00 -1.346479e+00 -1.174461e+00 -1.109470e+00 -8.024107e-01 -8.150428e-01 -4.863923e-01 -5.271589e-01 -2.442685e-01 -2.701434e-01 -4.927181e-02 -6.122371e-02 1.225015e-01 1.064661e-01 2.741687e-01 2.508096e-01 4.003411e-01 3.821969e-01 5.072073e-01 4.970811e-01 6.088283e-01 5.911751e-01 7.065292e-01 6.728709e-01 7.912460e-01 7.579255e-01 8.551914e-01 8.438889e-01 9.096842e-01 9.187930e-01 9.726135e-01 9.702800e-01 1.042610e+00 1.012100e+00 1.106059e+00 1.062695e+00 1.143482e+00 1.124137e+00 1.153084e+00 1.175673e+00 1.241097e+00 1.234812e+00 1.256561e+00 1.254285e+00 1.325281e+00 1.276648e+00 1.355899e+00 1.321154e+00 1.364974e+00 1.373608e+00 1.376079e+00 1.407961e+00 1.415209e+00 1.414919e+00 1.464632e+00 1.419463e+00 1.499563e+00 1.450682e+00 1.503053e+00 1.497188e+00 1.500214e+00 1.534906e+00 1.519616e+00 1.539289e+00 1.560872e+00 1.533085e+00 1.599658e+00 1.543513e+00 1.605649e+00 1.581369e+00 1.576126e+00 1.614893e+00 1.634634e+00 1.631446e+00 1.612791e+00 1.624043e+00 1.671414e+00 1.617119e+00 1.685369e+00 1.641102e+00 1.670166e+00 1.679544e+00 1.655910e+00 1.701023e+00 1.675919e+00 1.687487e+00 1.712939e+00 1.669253e+00 1.738661e+00 1.679978e+00 1.727196e+00 1.714129e+00 1.705702e+00 1.743946e+00 1.704643e+00 1.737415e+00 1.735150e+00 1.714637e+00 1.767299e+00 1.706805e+00 1.766310e+00 1.734125e+00 1.722741e+00 1.763829e+00 1.766838e+00 1.762754e+00 1.726733e+00 1.748826e+00 1.781196e+00 1.728096e+00 1.791419e+00 1.739688e+00 1.767703e+00 1.770634e+00 1.741731e+00 1.789148e+00 1.748296e+00 1.769303e+00 1.777327e+00 1.740925e+00 1.800134e+00 1.736399e+00 1.784913e+00 1.762413e+00 1.754343e+00 1.788246e+00 1.739448e+00 1.779302e+00 1.761329e+00 1.748604e+00 1.788481e+00 1.729077e+00 1.785917e+00 1.746926e+00 1.736455e+00 1.773813e+00 1.767809e+00 1.760556e+00 1.715428e+00 1.745405e+00 1.763346e+00 1.715666e+00 1.771257e+00 1.715007e+00 1.743609e+00 1.737256e+00 1.710129e+00 1.752393e+00 1.702452e+00 1.729759e+00 1.721925e+00 1.694158e+00 1.739353e+00 1.675621e+00 1.721788e+00 1.691026e+00 1.684178e+00 1.709258e+00 1.657077e+00 1.697343e+00 1.666903e+00 1.660223e+00 1.684477e+00 1.630217e+00 1.678029e+00 1.634686e+00 1.624219e+00 1.653007e+00 1.638138e+00 1.623514e+00 1.572703e+00 1.605147e+00 1.605812e+00 1.565994e+00 1.605149e+00 1.548228e+00 1.571146e+00 1.554344e+00 1.528002e+00 1.557014e+00 1.501475e+00 1.526854e+00 1.502483e+00 1.480469e+00 1.503160e+00 1.444379e+00 1.475133e+00 1.438448e+00 1.425669e+00 1.435717e+00 1.381479e+00 1.409474e+00 1.366586e+00 1.357847e+00 1.357845e+00 1.307228e+00 1.331163e+00 1.282183e+00 1.276858e+00 1.265960e+00 1.219730e+00 1.237002e+00 1.181951e+00 1.180149e+00 1.155553e+00 1.116679e+00 1.120554e+00 1.064702e+00 1.059410e+00 1.026255e+00 9.874401e-01 9.807339e-01 9.208208e-01 9.115794e-01 8.660431e-01 8.279813e-01 8.034654e-01 7.441696e-01 7.193007e-01 6.658126e-01 6.190105e-01 5.760133e-01 5.166427e-01 4.683173e-01 4.108918e-01 3.428869e-01 2.928666e-01 2.299517e-01 1.840446e-01 1.147134e-01 6.923422e-02 -7.653778e-03 