# vtk DataFile Version 2.0
Comment goes here
ASCII

DATASET STRUCTURED_POINTS
FIELD FieldData 1
TIME 1 1 double
0.29000000
DIMENSIONS    128   16   1

ORIGIN    0.000   0.000   0.000
SPACING   0.0078125 0.015625   1.000

POINT_DATA   2048
SCALARS fMag double
LOOKUP_TABLE default

0 0 0 0 0 0 0 0 0 0 0 0 0 0 0 0 0 0 0 0 0 0 0 0 0 0 0 0 0 0 0 0 0 0 0 0 0 0 0 0 0 0 0 0 0 0 0 0 0 0 0 0 0 0 0 0 0 0 0 0 0 0 0 0 0 0 0 0 0 0 0 0 0 0 0 0 0 0 0 0 0 0 0 0 0 0 0 0 0 0 0 0 0 0 0 0 0 0 0 0 0 0 0 0 0 0 0 0 0 0 0 0 0 0 0 0 0 0 0 0 0 0 0 0 0 0 0 0 
0 0 0 0 0 0 0 0 0 0 0 0 0 0 0 0 0 0 0 0 0 0 0 0 0 0 0 0 0 0 0 0 0 0 0 0 0 0 0 0 0 0 0 0 0 0 0 0 0 0 0 0 0 0 0 0 0 0 0 0 0 0 0 0 0 0 0 0 0 0 0 0 0 0 0 0 0 0 0 0 0 0 0 0 0 0 0 0 0 0 0 0 0 0 0 0 0 0 0 0 0 0 0 0 0 0 0 0 0 0 0 0 0 0 0 0 0 0 0 0 0 0 0 0 0 0 0 0 
0 0 0 0 0 1.115241e+00 2.456599e+00 1.944690e+00 2.111733e+00 1.867030e+00 2.510811e+00 2.070012e+00 3.010500e+00 4.105140e+00 5.750304e+00 7.003772e+00 1.102605e+01 1.421161e+01 1.761088e+01 2.115292e+01 2.500626e+01 2.537509e+01 2.498197e+01 2.545457e+01 2.558358e+01 2.589058e+01 2.562494e+01 2.510567e+01 2.429931e+01 2.341881e+01 2.277974e+01 2.231358e+01 2.246262e+01 2.279996e+01 2.355765e+01 2.395365e+01 2.408008e+01 2.338754e+01 2.239997e+01 2.120731e+01 2.035297e+01 1.980013e+01 1.961827e+01 1.976315e+01 2.006155e+01 2.051436e+01 2.079861e+01 2.089884e+01 2.042991e+01 1.967247e+01 1.868184e+01 1.788994e+01 1.735847e+01 1.721679e+01 1.731440e+01 1.745458e+01 1.762074e+01 1.770280e+01 1.951396e+01 1.939386e+01 1.760736e+01 1.908946e+01 1.695606e+01 1.599925e+01 1.694044e+01 1.432647e+01 1.659041e+01 1.711931e+01 1.554103e+01 1.773571e+01 1.855945e+01 1.689773e+01 1.425589e+01 1.308835e+01 1.244593e+01 1.230631e+01 1.234172e+01 1.255992e+01 1.246028e+01 1.234174e+01 1.192282e+01 1.177307e+01 1.142837e+01 1.125818e+01 1.077201e+01 1.038482e+01 9.857854e+00 9.571914e+00 9.394804e+00 9.344891e+00 9.421664e+00 9.373157e+00 9.453450e+00 9.134533e+00 8.970912e+00 8.287279e+00 7.954527e+00 7.179139e+00 7.033148e+00 6.534952e+00 6.597633e+00 6.113780e+00 5.980933e+00 5.411727e+00 5.301236e+00 5.140827e+00 5.226271e+00 5.186473e+00 4.961533e+00 4.869654e+00 4.435068e+00 4.394547e+00 3.693426e+00 3.507194e+00 2.510679e+00 2.517553e+00 1.949099e+00 2.537562e+00 2.321319e+00 2.822124e+00 2.259879e+00 2.390462e+00 1.800490e+00 5.694966e-01 0 0 0 0 
0 0 0 0 0 3.280725e+00 7.223530e+00 5.717426e+00 6.212406e+00 5.493699e+00 7.387966e+00 6.092611e+00 8.858528e+00 1.207454e+01 1.691005e+01 2.059655e+01 3.242572e+01 4.179251e+01 5.178728e+01 6.220034e+01 7.352797e+01 7.461231e+01 7.345673e+01 7.484594e+01 7.522512e+01 7.612751e+01 7.534664e+01 7.382025e+01 7.144986e+01 6.886159e+01 6.698295e+01 6.561261e+01 6.605078e+01 6.704245e+01 6.926982e+01 7.043393e+01 7.080558e+01 6.876977e+01 6.586665e+01 6.236052e+01 5.984893e+01 5.822365e+01 5.768901e+01 5.811494e+01 5.899220e+01 6.032341e+01 6.115906e+01 6.145371e+01 6.007515e+01 5.784836e+01 5.493598e+01 5.260780e+01 5.104528e+01 5.062875e+01 5.091572e+01 5.132785e+01 5.196384e+01 5.234281e+01 5.447176e+01 5.467945e+01 5.274865e+01 5.306160e+01 4.933191e+01 4.671873e+01 4.635039e+01 4.326867e+01 4.608594e+01 4.834584e+01 4.809433e+01 5.020588e+01 4.940709e+01 4.642270e+01 4.173159e+01 3.849026e+01 3.660131e+01 3.619077e+01 3.629490e+01 3.693651e+01 3.664352e+01 3.629495e+01 3.506313e+01 3.462277e+01 3.360917e+01 3.310871e+01 3.167905e+01 3.054049e+01 2.899086e+01 2.815004e+01 2.762921e+01 2.748245e+01 2.770824e+01 2.756564e+01 2.780180e+01 2.686405e+01 2.638293e+01 2.437263e+01 2.339411e+01 2.111385e+01 2.068447e+01 1.921925e+01 1.940343e+01 1.798031e+01 1.758947e+01 1.591526e+01 1.559020e+01 1.511833e+01 1.536953e+01 1.525250e+01 1.459108e+01 1.432099e+01 1.304313e+01 1.292416e+01 1.086244e+01 1.031487e+01 7.384183e+00 7.404345e+00 5.732031e+00 7.461520e+00 6.821887e+00 8.283398e+00 6.591707e+00 6.970855e+00 5.274615e+00 1.675474e+00 0 0 0 0 
0 0 0 0 0 2.266479e+00 4.988857e+00 3.948267e+00 4.291959e+00 3.795995e+00 5.104860e+00 4.210621e+00 6.121092e+00 3.921264e+01 4.885840e+01 4.411659e+01 5.582781e+01 5.192773e+01 6.066751e+01 6.414249e+01 6.405962e+01 5.152919e+01 5.073129e+01 5.169050e+01 5.195231e+01 5.257537e+01 5.203617e+01 5.098223e+01 4.934548e+01 4.755831e+01 4.626110e+01 4.531488e+01 4.561746e+01 4.630222e+01 4.784025e+01 4.864407e+01 4.890069e+01 4.749496e+01 4.549033e+01 4.306926e+01 4.133493e+01 4.021261e+01 3.984342e+01 4.013754e+01 4.074333e+01 4.166259e+01 4.223963e+01 4.244310e+01 4.149116e+01 3.995346e+01 3.794231e+01 3.633457e+01 3.525554e+01 3.496789e+01 3.516607e+01 3.545067e+01 3.611319e+01 3.677487e+01 3.492768e+01 3.548386e+01 3.684224e+01 3.158656e+01 3.194447e+01 2.970374e+01 2.509080e+01 2.813056e+01 2.550148e+01 2.703203e+01 3.093642e+01 2.910792e+01 2.863587e+01 2.969639e+01 2.868473e+01 2.658507e+01 2.528053e+01 2.499700e+01 2.506891e+01 2.551202e+01 2.530968e+01 2.506894e+01 2.421820e+01 2.391406e+01 2.321401e+01 2.286835e+01 2.188094e+01 2.109459e+01 2.002430e+01 1.944357e+01 1.908385e+01 1.898249e+01 1.913845e+01 1.903998e+01 1.920312e+01 1.855548e+01 1.822320e+01 1.683476e+01 1.615891e+01 1.458395e+01 1.428735e+01 1.327527e+01 1.340241e+01 1.241936e+01 1.214933e+01 1.099282e+01 1.076824e+01 1.044226e+01 1.061573e+01 1.053489e+01 1.007809e+01 9.891593e+00 9.009067e+00 8.926991e+00 7.503037e+00 7.124874e+00 5.100600e+00 5.114501e+00 3.959147e+00 5.153184e+00 4.709596e+00 5.713598e+00 4.526623e+00 4.786174e+00 3.633339e+00 1.157581e+00 0 0 0 0 
0 0 0 0 0 1.009953e-01 2.219254e-01 1.755308e-01 1.912859e-01 1.693261e-01 2.277044e-01 1.880227e-01 2.730643e-01 4.422166e+01 4.823388e+01 4.529320e+01 4.749410e+01 4.675231e+01 4.597142e+01 4.829660e+01 4.390080e+01 2.291969e+00 2.256524e+00 2.299136e+00 2.310764e+00 2.338437e+00 2.314479e+00 2.267658e+00 2.194933e+00 2.115532e+00 2.057889e+00 2.015846e+00 2.029297e+00 2.059726e+00 2.128072e+00 2.163789e+00 2.175191e+00 2.112729e+00 2.023651e+00 1.916054e+00 1.838976e+00 1.789089e+00 1.772680e+00 1.785754e+00 1.812680e+00 1.853540e+00 1.879187e+00 1.888231e+00 1.845921e+00 1.777573e+00 1.688173e+00 1.616701e+00 1.568730e+00 1.555941e+00 1.564752e+00 1.577406e+00 1.762783e+00 2.084182e+00 4.343277e-01 3.660658e-01 1.507770e+00 2.181365e+00 4.532778e-01 1.098711e+00 3.684543e+00 7.179104e-01 3.416636e+00 3.352287e+00 1.089340e+00 2.850683e+00 2.326507e+00 1.851162e-01 1.186808e+00 1.183166e+00 1.125144e+00 1.112533e+00 1.115731e+00 1.135441e+00 1.126441e+00 1.115732e+00 1.077886e+00 1.064355e+00 1.033209e+00 1.017829e+00 9.738954e-01 9.389105e-01 8.912856e-01 8.654486e-01 8.494416e-01 8.449328e-01 8.518762e-01 8.475003e-01 8.547647e-01 8.259568e-01 8.111754e-01 7.493995e-01 7.193251e-01 6.492323e-01 6.360261e-01 5.909678e-01 5.966082e-01 5.528317e-01 5.407934e-01 4.892887e-01 4.792774e-01 4.647531e-01 4.724647e-01 4.688669e-01 4.485475e-01 4.402607e-01 4.010055e-01 3.973767e-01 3.340210e-01 3.172027e-01 2.270966e-01 2.277090e-01 1.762156e-01 2.292253e-01 2.090276e-01 2.523248e-01 1.947951e-01 2.057823e-01 1.592148e-01 5.160378e-02 0 0 0 0 
0 0 0 0 0 0 0 0 0 0 0 0 0 4.814482e+01 5.210342e+01 4.929531e+01 5.114979e+01 5.083709e+01 4.946504e+01 5.248515e+01 4.748245e+01 0 0 0 0 0 0 0 0 0 0 0 0 0 0 0 0 0 0 0 0 0 0 0 0 0 0 0 0 0 0 0 0 0 0 0 1.524973e-03 1.661406e-02 2.851352e-02 2.354722e-02 9.066173e-02 1.181056e-01 1.558826e-02 5.153584e-02 7.304482e-02 1.370936e-02 1.796865e-01 1.371995e-01 8.841272e-02 2.993721e-01 4.453896e-01 2.817411e-01 2.102739e-02 0 0 0 0 0 0 0 0 0 0 0 0 0 0 0 0 0 0 0 0 0 0 0 0 0 0 0 0 0 0 0 0 0 0 0 0 0 0 0 0 0 0 0 0 0 0 0 0 0 0 0 0 0 0 0 
0 0 0 0 0 0 0 0 0 0 0 0 0 4.803954e+01 4.986893e+01 4.826422e+01 4.911652e+01 4.887482e+01 4.845394e+01 4.966349e+01 4.812043e+01 0 0 0 0 0 0 0 0 0 0 0 0 0 0 0 0 0 0 0 0 0 0 0 0 0 0 0 0 0 0 0 0 0 0 0 2.778230e-02 1.788734e-01 6.532127e-01 5.036923e-01 2.114719e-01 1.208350e+00 5.638079e-01 6.097805e-01 1.494688e+00 4.080692e-01 1.290189e+00 1.425608e+00 7.864689e-01 1.343711e+00 6.632543e-01 1.393327e-02 1.082460e-03 0 0 0 0 0 0 0 0 0 0 0 0 0 0 0 0 0 0 0 0 0 0 0 0 0 0 0 0 0 0 0 0 0 0 0 0 0 0 0 0 0 0 0 0 0 0 0 0 0 0 0 0 0 0 0 
0 0 0 0 0 0 0 0 0 0 0 0 0 5.048639e+01 5.268845e+01 5.091652e+01 5.179715e+01 5.179278e+01 5.085594e+01 5.277201e+01 5.023984e+01 0 0 0 0 0 0 0 0 0 0 0 0 0 0 0 0 0 0 0 0 0 0 0 0 0 0 0 0 0 0 0 0 0 0 0 3.627590e-02 2.140032e-01 5.500163e-01 5.029478e-01 3.399749e-01 7.652594e-01 4.331223e-01 4.002307e-01 7.746070e-01 2.321493e-01 4.357330e-01 3.773941e-01 1.596894e-01 5.164898e-01 3.177900e-01 4.124785e-02 2.513445e-03 0 0 0 0 0 0 0 0 0 0 0 0 0 0 0 0 0 0 0 0 0 0 0 0 0 0 0 0 0 0 0 0 0 0 0 0 0 0 0 0 0 0 0 0 0 0 0 0 0 0 0 0 0 0 0 
0 0 0 0 0 0 0 0 0 0 0 0 0 4.801857e+01 4.985990e+01 4.825096e+01 4.911930e+01 4.886861e+01 4.846620e+01 4.965504e+01 4.812395e+01 0 0 0 0 0 0 0 0 0 0 0 0 0 0 0 0 0 0 0 0 0 0 0 0 0 0 0 0 0 0 0 0 0 0 0 0 0 0 0 0 0 0 0 0 0 0 0 0 0 0 0 0 0 0 0 0 0 0 0 0 0 0 0 0 0 0 0 0 0 0 0 0 0 0 0 0 0 0 0 0 0 0 0 0 0 0 0 0 0 0 0 0 0 0 0 0 0 0 0 0 0 0 0 0 0 0 0 
0 0 0 0 0 0 0 0 0 0 0 0 0 4.812396e+01 5.209719e+01 4.931453e+01 5.118906e+01 5.088648e+01 4.951228e+01 5.251775e+01 4.749262e+01 0 0 0 0 0 0 0 0 0 0 0 0 0 0 0 0 0 0 0 0 0 0 0 0 0 0 0 0 0 0 0 0 0 0 0 0 0 0 0 0 0 0 0 0 0 0 0 0 0 0 0 0 0 0 0 0 0 0 0 0 0 0 0 0 0 0 0 0 0 0 0 0 0 0 0 0 0 0 0 0 0 0 0 0 0 0 0 0 0 0 0 0 0 0 0 0 0 0 0 0 0 0 0 0 0 0 0 
0 0 0 0 0 1.003256e-01 2.232963e-01 1.771459e-01 1.754939e-01 1.628240e-01 2.213785e-01 1.931832e-01 2.673060e-01 4.415010e+01 4.820627e+01 4.525301e+01 4.751637e+01 4.676882e+01 4.607507e+01 4.833225e+01 4.399386e+01 2.331783e+00 2.282063e+00 2.289057e+00 2.263896e+00 2.281404e+00 2.275433e+00 2.267956e+00 2.229356e+00 2.169250e+00 2.111109e+00 2.053089e+00 2.032860e+00 2.009390e+00 2.012574e+00 1.992826e+00 1.997503e+00 1.985303e+00 1.997752e+00 1.990568e+00 1.988475e+00 1.958586e+00 1.923584e+00 1.876235e+00 1.830638e+00 1.789979e+00 1.753044e+00 1.733415e+00 1.718122e+00 1.725845e+00 1.727883e+00 1.731633e+00 1.703373e+00 1.665726e+00 1.609343e+00 1.566906e+00 1.531708e+00 1.510316e+00 1.487724e+00 1.467310e+00 1.458049e+00 1.453933e+00 1.456998e+00 1.444752e+00 1.423864e+00 1.380518e+00 1.333755e+00 1.282835e+00 1.249847e+00 1.226579e+00 1.225193e+00 1.234953e+00 1.248184e+00 1.253731e+00 1.239673e+00 1.215801e+00 1.171278e+00 1.138039e+00 1.095825e+00 1.070617e+00 1.023861e+00 9.933120e-01 9.509262e-01 9.427238e-01 9.351508e-01 9.477383e-01 9.366115e-01 9.159806e-01 8.783329e-01 8.391054e-01 8.100202e-01 7.794586e-01 7.718027e-01 7.454221e-01 7.415569e-01 7.013547e-01 6.925862e-01 6.432382e-01 6.358348e-01 5.897898e-01 5.936066e-01 5.636037e-01 5.801117e-01 5.575717e-01 5.479081e-01 4.951395e-01 4.509130e-01 4.097373e-01 3.858959e-01 3.967364e-01 3.879771e-01 4.078334e-01 3.634190e-01 3.612126e-01 2.788569e-01 2.667659e-01 1.792594e-01 1.841798e-01 1.183638e-01 1.398953e-01 9.688457e-02 1.576347e-01 1.447670e-01 5.239588e-02 0 0 0 0 
0 0 0 0 0 2.251453e+00 5.019949e+00 3.985599e+00 3.937612e+00 3.649742e+00 4.962413e+00 4.326449e+00 5.991335e+00 3.916097e+01 4.891585e+01 4.424111e+01 5.611184e+01 5.225838e+01 6.087820e+01 6.427890e+01 6.395766e+01 5.242537e+01 5.130615e+01 5.146364e+01 5.089739e+01 5.129160e+01 5.115728e+01 5.098905e+01 5.012034e+01 4.876738e+01 4.745892e+01 4.615304e+01 4.569774e+01 4.516949e+01 4.524108e+01 4.479664e+01 4.490186e+01 4.462732e+01 4.490748e+01 4.474586e+01 4.469879e+01 4.402629e+01 4.323871e+01 4.217342e+01 4.114748e+01 4.023276e+01 3.940177e+01 3.896016e+01 3.861609e+01 3.878979e+01 3.883561e+01 3.891995e+01 3.828420e+01 3.743732e+01 3.616904e+01 3.521448e+01 3.442282e+01 3.394169e+01 3.343359e+01 3.297444e+01 3.276619e+01 3.267361e+01 3.274255e+01 3.246713e+01 3.199738e+01 3.102263e+01 2.997105e+01 2.882607e+01 2.808431e+01 2.756115e+01 2.752999e+01 2.774943e+01 2.804695e+01 2.817165e+01 2.785553e+01 2.731879e+01 2.631772e+01 2.557041e+01 2.462137e+01 2.405469e+01 2.300366e+01 2.231696e+01 2.136430e+01 2.117998e+01 2.100985e+01 2.129290e+01 2.104288e+01 2.057917e+01 1.973309e+01 1.885133e+01 1.819765e+01 1.751068e+01 1.733853e+01 1.674554e+01 1.665860e+01 1.575509e+01 1.555806e+01 1.444925e+01 1.428305e+01 1.324875e+01 1.333485e+01 1.266120e+01 1.303261e+01 1.252665e+01 1.230989e+01 1.112486e+01 1.013119e+01 9.206355e+00 8.670510e+00 8.913613e+00 8.716365e+00 9.161828e+00 8.163405e+00 8.113448e+00 6.263190e+00 5.991868e+00 4.027643e+00 4.141522e+00 2.673463e+00 3.187866e+00 2.327400e+00 3.693967e+00 3.307535e+00 1.175332e+00 0 0 0 0 
0 0 0 0 0 3.258975e+00 7.268620e+00 5.771740e+00 5.699503e+00 5.281913e+00 7.181651e+00 6.260277e+00 8.670570e+00 1.156985e+01 1.663873e+01 2.055796e+01 3.237993e+01 4.172895e+01 5.177397e+01 6.247539e+01 7.439660e+01 7.591023e+01 7.428928e+01 7.451738e+01 7.369733e+01 7.426828e+01 7.407377e+01 7.383015e+01 7.257207e+01 7.061262e+01 6.871769e+01 6.682645e+01 6.616707e+01 6.540204e+01 6.550570e+01 6.486204e+01 6.501441e+01 6.461684e+01 6.502256e+01 6.478851e+01 6.472036e+01 6.374648e+01 6.260591e+01 6.106323e+01 5.957749e+01 5.825286e+01 5.704948e+01 5.640997e+01 5.591170e+01 5.616323e+01 5.622958e+01 5.635170e+01 5.543106e+01 5.420469e+01 5.236810e+01 5.098581e+01 4.983944e+01 4.914272e+01 4.840697e+01 4.774211e+01 4.744054e+01 4.730649e+01 4.740631e+01 4.700750e+01 4.632728e+01 4.491582e+01 4.339311e+01 4.173518e+01 4.066112e+01 3.990359e+01 3.985848e+01 4.017622e+01 4.060702e+01 4.078759e+01 4.032985e+01 3.955266e+01 3.810312e+01 3.702104e+01 3.564688e+01 3.482636e+01 3.330454e+01 3.231026e+01 3.093092e+01 3.066406e+01 3.041774e+01 3.082760e+01 3.046563e+01 2.979422e+01 2.856920e+01 2.729250e+01 2.634605e+01 2.535138e+01 2.510211e+01 2.424351e+01 2.411761e+01 2.280945e+01 2.252418e+01 2.091884e+01 2.067824e+01 1.918085e+01 1.930558e+01 1.833039e+01 1.886825e+01 1.813585e+01 1.782212e+01 1.610657e+01 1.466795e+01 1.332904e+01 1.255320e+01 1.290505e+01 1.261936e+01 1.326413e+01 1.181848e+01 1.174606e+01 9.067287e+00 8.674554e+00 5.831226e+00 5.996945e+00 3.874205e+00 4.626731e+00 3.407834e+00 5.387090e+00 4.802620e+00 1.701163e+00 0 0 0 0 
0 0 0 0 0 1.107847e+00 2.471967e+00 1.963287e+00 1.937384e+00 1.794994e+00 2.440617e+00 2.127010e+00 2.946540e+00 3.933533e+00 5.658065e+00 6.990654e+00 1.101048e+01 1.419000e+01 1.760636e+01 2.124649e+01 2.530177e+01 2.581664e+01 2.526519e+01 2.534280e+01 2.506384e+01 2.525809e+01 2.519193e+01 2.510905e+01 2.468108e+01 2.401449e+01 2.336988e+01 2.272650e+01 2.250219e+01 2.224194e+01 2.227719e+01 2.205823e+01 2.211006e+01 2.197482e+01 2.211283e+01 2.203322e+01 2.201004e+01 2.167877e+01 2.129079e+01 2.076604e+01 2.026066e+01 1.981009e+01 1.940075e+01 1.918322e+01 1.901373e+01 1.909928e+01 1.912185e+01 1.916339e+01 1.885023e+01 1.843309e+01 1.780840e+01 1.733824e+01 1.694833e+01 1.671136e+01 1.646111e+01 1.623497e+01 1.613241e+01 1.608681e+01 1.612076e+01 1.598512e+01 1.575377e+01 1.527371e+01 1.475582e+01 1.419195e+01 1.382666e+01 1.356902e+01 1.355368e+01 1.366174e+01 1.380826e+01 1.386967e+01 1.371399e+01 1.344967e+01 1.295668e+01 1.258867e+01 1.212133e+01 1.184229e+01 1.132475e+01 1.098662e+01 1.051754e+01 1.042680e+01 1.034304e+01 1.048244e+01 1.035935e+01 1.013103e+01 9.714449e+00 9.280275e+00 8.958422e+00 8.620157e+00 8.535378e+00 8.243390e+00 8.200569e+00 7.755712e+00 7.658706e+00 7.112823e+00 7.031028e+00 6.521889e+00 6.564345e+00 6.232798e+00 6.415755e+00 6.166768e+00 6.060131e+00 5.476849e+00 4.987666e+00 4.532424e+00 4.268588e+00 4.388173e+00 4.290974e+00 4.510137e+00 4.018499e+00 3.993824e+00 3.082954e+00 2.949452e+00 1.982842e+00 2.039602e+00 1.319106e+00 1.578760e+00 1.177319e+00 1.850755e+00 1.639852e+00 5.782262e-01 0 0 0 0 
0 0 0 0 0 0 0 0 0 0 0 0 0 0 0 0 0 0 0 0 0 0 0 0 0 0 0 0 0 0 0 0 0 0 0 0 0 0 0 0 0 0 0 0 0 0 0 0 0 0 0 0 0 0 0 0 0 0 0 0 0 0 0 0 0 0 0 0 0 0 0 0 0 0 0 0 0 0 0 0 0 0 0 0 0 0 0 0 0 0 0 0 0 0 0 0 0 0 0 0 0 0 0 0 0 0 0 0 0 0 0 0 0 0 0 0 0 0 0 0 0 0 0 0 0 0 0 0 
