# vtk DataFile Version 2.0
Comment goes here
ASCII

DATASET STRUCTURED_POINTS
FIELD FieldData 1
TIME 1 1 double
0.10000000
DIMENSIONS    128   16   1

ORIGIN    0.000   0.000   0.000
SPACING   0.0078125 0.015625   1.000

POINT_DATA   2048
SCALARS fMag double
LOOKUP_TABLE default

0 0 0 0 0 0 0 0 0 0 0 0 0 0 0 0 0 0 0 0 0 0 0 0 0 0 0 0 0 0 0 0 0 0 0 0 0 0 0 0 0 0 0 0 0 0 0 0 0 0 0 0 0 0 0 0 0 0 0 0 0 0 0 0 0 0 0 0 0 0 0 0 0 0 0 0 0 0 0 0 0 0 0 0 0 0 0 0 0 0 0 0 0 0 0 0 0 0 0 0 0 0 0 0 0 0 0 0 0 0 0 0 0 0 0 0 0 0 0 0 0 0 0 0 0 0 0 0 
0 0 0 0 0 0 0 0 0 0 0 0 0 0 0 0 0 0 0 0 0 0 0 0 0 0 0 0 0 0 0 0 0 0 0 0 0 0 0 0 0 0 0 0 0 0 0 0 0 0 0 0 0 0 0 0 0 0 0 0 0 0 0 0 0 0 0 0 0 0 0 0 0 0 0 0 0 0 0 0 0 0 0 0 0 0 0 0 0 0 0 0 0 0 0 0 0 0 0 0 0 0 0 0 0 0 0 0 0 0 0 0 0 0 0 0 0 0 0 0 0 0 0 0 0 0 0 0 
0 0 0 0 0 1.144602e+00 2.691689e+00 1.763780e+00 2.975864e+00 1.800839e+00 2.955192e+00 2.796827e+00 3.931902e+00 5.946018e+00 7.329220e+00 9.486844e+00 1.506846e+01 2.075399e+01 2.458393e+01 2.699407e+01 3.267025e+01 3.270109e+01 3.272611e+01 3.487469e+01 3.562825e+01 3.627165e+01 3.543385e+01 3.478058e+01 3.469085e+01 3.460814e+01 3.386006e+01 3.384352e+01 3.338377e+01 3.304584e+01 3.235931e+01 2.995808e+01 2.803281e+01 2.676734e+01 2.743773e+01 2.992821e+01 3.115697e+01 3.073939e+01 2.884711e+01 2.675498e+01 2.680326e+01 2.704888e+01 2.782274e+01 2.776938e+01 2.700647e+01 2.679559e+01 2.640069e+01 2.625656e+01 2.628125e+01 2.627027e+01 2.699796e+01 2.606546e+01 2.434406e+01 2.273776e+01 2.151057e+01 2.090306e+01 2.099463e+01 2.325240e+01 2.373673e+01 2.238715e+01 2.073834e+01 1.903917e+01 1.906599e+01 2.012564e+01 2.089727e+01 2.059602e+01 1.804194e+01 1.734035e+01 1.801174e+01 1.829753e+01 1.832617e+01 1.804349e+01 1.793246e+01 1.793302e+01 1.786258e+01 1.710037e+01 1.583197e+01 1.527768e+01 1.585561e+01 1.709019e+01 1.788100e+01 1.672906e+01 1.473211e+01 1.342067e+01 1.291766e+01 1.315161e+01 1.335235e+01 1.338452e+01 1.372509e+01 1.272322e+01 1.162705e+01 9.785614e+00 9.124783e+00 8.307083e+00 8.755473e+00 8.108539e+00 7.261420e+00 6.649846e+00 6.097087e+00 8.281173e+00 1.025027e+01 1.059842e+01 8.953014e+00 6.854619e+00 4.678357e+00 4.157035e+00 3.871438e+00 6.096004e+00 6.031162e+00 5.343350e+00 3.482402e+00 2.740076e+00 4.232577e+00 4.733389e+00 5.017762e+00 3.900063e+00 1.969211e+00 3.961520e+00 4.038406e+00 3.605341e-01 0 0 0 0 
0 0 0 0 0 3.367611e+00 7.920628e+00 5.195883e+00 8.757306e+00 5.299215e+00 8.695637e+00 8.232053e+00 1.157100e+01 1.748876e+01 2.155186e+01 2.789701e+01 4.431099e+01 6.102608e+01 7.228572e+01 7.936994e+01 9.605348e+01 9.614446e+01 9.621816e+01 1.025330e+02 1.047476e+02 1.066385e+02 1.041765e+02 1.022567e+02 1.019931e+02 1.017500e+02 9.955134e+01 9.950260e+01 9.815135e+01 9.715833e+01 9.514059e+01 8.808324e+01 8.242448e+01 7.870476e+01 8.067518e+01 8.799523e+01 9.160693e+01 9.037985e+01 8.481807e+01 7.866860e+01 7.881037e+01 7.953228e+01 8.180690e+01 8.165016e+01 7.940778e+01 7.878787e+01 7.762704e+01 7.720337e+01 7.727592e+01 7.724365e+01 7.938266e+01 7.664149e+01 7.203359e+01 6.881591e+01 6.617932e+01 6.466676e+01 6.448438e+01 6.939259e+01 7.064157e+01 6.590600e+01 5.949739e+01 5.418829e+01 5.269868e+01 5.489181e+01 5.767227e+01 5.859467e+01 5.441255e+01 5.257041e+01 5.304500e+01 5.380603e+01 5.389022e+01 5.305915e+01 5.273273e+01 5.273438e+01 5.252731e+01 5.028637e+01 4.655706e+01 4.492743e+01 4.662669e+01 5.025635e+01 5.258144e+01 4.919467e+01 4.332329e+01 3.946751e+01 3.798843e+01 3.867623e+01 3.926650e+01 3.936117e+01 4.036249e+01 3.741660e+01 3.419345e+01 2.877842e+01 2.683520e+01 2.443040e+01 2.574888e+01 2.384622e+01 2.135498e+01 1.955634e+01 1.793071e+01 2.435408e+01 3.014437e+01 3.116810e+01 2.633003e+01 2.015915e+01 1.375947e+01 1.222633e+01 1.138621e+01 1.792831e+01 1.773753e+01 1.571440e+01 1.024119e+01 8.057193e+00 1.244716e+01 1.391709e+01 1.474948e+01 1.145360e+01 5.748162e+00 1.162454e+01 1.186792e+01 1.060587e+00 0 0 0 0 
0 0 0 0 0 2.326752e+00 5.473127e+00 3.593121e+00 6.051486e+00 3.661748e+00 6.008467e+00 5.689307e+00 7.995952e+00 5.517730e+01 7.056241e+01 5.920886e+01 7.651068e+01 7.322369e+01 7.646531e+01 8.668832e+01 8.762170e+01 6.639547e+01 6.644643e+01 7.080632e+01 7.233518e+01 7.364060e+01 7.194100e+01 7.061566e+01 7.043367e+01 7.026590e+01 6.874790e+01 6.871418e+01 6.778127e+01 6.709575e+01 6.570270e+01 6.083025e+01 5.692325e+01 5.435492e+01 5.571536e+01 6.076938e+01 6.326308e+01 6.241599e+01 5.857596e+01 5.433003e+01 5.442785e+01 5.492627e+01 5.649679e+01 5.638862e+01 5.484039e+01 5.441234e+01 5.361080e+01 5.331826e+01 5.336834e+01 5.334606e+01 5.482299e+01 5.293022e+01 5.020657e+01 4.955534e+01 4.927371e+01 4.822435e+01 4.675567e+01 4.862495e+01 4.959307e+01 4.577338e+01 3.990159e+01 3.571046e+01 3.333919e+01 3.375313e+01 3.585452e+01 3.879339e+01 3.989876e+01 3.857534e+01 3.674590e+01 3.716198e+01 3.722010e+01 3.664621e+01 3.642080e+01 3.642193e+01 3.627895e+01 3.473143e+01 3.215599e+01 3.103062e+01 3.220413e+01 3.471064e+01 3.631632e+01 3.397751e+01 2.992278e+01 2.726005e+01 2.623852e+01 2.671349e+01 2.712115e+01 2.718657e+01 2.787807e+01 2.584355e+01 2.361757e+01 1.987756e+01 1.853546e+01 1.687443e+01 1.778502e+01 1.647079e+01 1.475008e+01 1.350771e+01 1.238485e+01 1.682165e+01 2.082076e+01 2.152780e+01 1.818652e+01 1.392436e+01 9.504264e+00 8.445320e+00 7.864930e+00 1.238358e+01 1.225177e+01 1.085419e+01 7.073619e+00 5.564670e+00 8.597196e+00 9.611083e+00 1.018412e+01 7.903343e+00 3.949450e+00 8.016715e+00 8.193134e+00 7.327019e-01 0 0 0 0 
0 0 0 0 0 1.037440e-01 2.441870e-01 1.610179e-01 2.700444e-01 1.633722e-01 2.680222e-01 2.540806e-01 3.568513e-01 5.980546e+01 6.533114e+01 6.105030e+01 6.396538e+01 6.339031e+01 6.064774e+01 6.336997e+01 5.871484e+01 2.952096e+00 2.954378e+00 3.147965e+00 3.215823e+00 3.273767e+00 3.198351e+00 3.139532e+00 3.131461e+00 3.124017e+00 3.056617e+00 3.055104e+00 3.013682e+00 2.983265e+00 2.921417e+00 2.705086e+00 2.531582e+00 2.417497e+00 2.477914e+00 2.702356e+00 2.813112e+00 2.775528e+00 2.605000e+00 2.416414e+00 2.420740e+00 2.442873e+00 2.512628e+00 2.507837e+00 2.439078e+00 2.420057e+00 2.384447e+00 2.371448e+00 2.373671e+00 2.372681e+00 2.438292e+00 2.354192e+00 2.480446e+00 3.346579e+00 4.770770e+00 4.454369e+00 2.999391e+00 3.053238e+00 2.849560e+00 2.594507e+00 2.149499e+00 8.655328e-01 5.978301e-01 1.618987e-01 3.637692e-01 1.717411e+00 3.765912e+00 3.218262e+00 1.707177e+00 1.653474e+00 1.656055e+00 1.630544e+00 1.620524e+00 1.620574e+00 1.614221e+00 1.545420e+00 1.430897e+00 1.380867e+00 1.433054e+00 1.544482e+00 1.615880e+00 1.511897e+00 1.331596e+00 1.213203e+00 1.167758e+00 1.188875e+00 1.207008e+00 1.209927e+00 1.240674e+00 1.150178e+00 1.051171e+00 8.847551e-01 8.250436e-01 7.511071e-01 7.916137e-01 7.331056e-01 6.565223e-01 6.012160e-01 5.512333e-01 7.487425e-01 9.266669e-01 9.581214e-01 8.095102e-01 6.198332e-01 4.231517e-01 3.760202e-01 3.501599e-01 5.512732e-01 5.453960e-01 4.831463e-01 3.148276e-01 2.475531e-01 3.826156e-01 4.273866e-01 4.524100e-01 3.498046e-01 1.704984e-01 3.536908e-01 3.636245e-01 3.264912e-02 0 0 0 0 
0 0 0 0 0 0 0 0 0 0 0 0 0 6.563777e+01 7.119504e+01 6.704851e+01 6.937290e+01 6.927308e+01 6.643060e+01 7.102997e+01 6.458197e+01 0 0 0 0 0 0 0 0 0 0 0 0 0 0 0 0 0 0 0 0 0 0 0 0 0 0 0 0 0 0 0 0 0 0 0 6.121050e-03 9.976951e-02 7.419832e-01 6.374310e-01 2.490030e-01 1.180137e+00 6.214600e-01 5.025302e-01 1.076483e+00 3.562869e-01 1.052517e+00 8.735190e-01 2.033742e-01 7.373554e-01 7.569526e-01 3.374403e-01 1.656965e-02 0 0 0 0 0 0 0 0 0 0 0 0 0 0 0 0 0 0 0 0 0 0 0 0 0 0 0 0 0 0 0 0 0 0 0 0 0 0 0 0 0 0 0 0 0 0 0 0 0 0 0 0 0 0 0 
0 0 0 0 0 0 0 0 0 0 0 0 0 6.469231e+01 6.710029e+01 6.489124e+01 6.593864e+01 6.558325e+01 6.486216e+01 6.635623e+01 6.440749e+01 0 0 0 0 0 0 0 0 0 0 0 0 0 0 0 0 0 0 0 0 0 0 0 0 0 0 0 0 0 0 0 0 0 0 0 2.471460e-02 1.451481e-01 5.141377e-01 6.652781e-01 5.406101e-01 6.488485e-01 6.137209e-01 2.857263e-01 1.428014e-01 3.081064e-01 5.180510e-01 4.077295e-01 7.981133e-02 4.327320e-02 7.478243e-01 6.344191e-01 2.993117e-02 0 0 0 0 0 0 0 0 0 0 0 0 0 0 0 0 0 0 0 0 0 0 0 0 0 0 0 0 0 0 0 0 0 0 0 0 0 0 0 0 0 0 0 0 0 0 0 0 0 0 0 0 0 0 0 
0 0 0 0 0 0 0 0 0 0 0 0 0 6.862035e+01 7.159516e+01 6.919830e+01 7.022656e+01 7.035292e+01 6.884438e+01 7.154773e+01 6.805274e+01 0 0 0 0 0 0 0 0 0 0 0 0 0 0 0 0 0 0 0 0 0 0 0 0 0 0 0 0 0 0 0 0 0 0 0 1.815609e-02 8.555075e-02 5.981053e-02 2.296752e-02 2.473450e-02 3.686311e-02 1.534128e-01 1.232184e-01 7.392066e-02 2.513740e-01 3.545370e-01 4.437119e-01 3.345317e-01 1.432059e-01 2.317860e-01 1.670041e-01 7.836500e-03 0 0 0 0 0 0 0 0 0 0 0 0 0 0 0 0 0 0 0 0 0 0 0 0 0 0 0 0 0 0 0 0 0 0 0 0 0 0 0 0 0 0 0 0 0 0 0 0 0 0 0 0 0 0 0 
0 0 0 0 0 0 0 0 0 0 0 0 0 6.477401e+01 6.716590e+01 6.503877e+01 6.605875e+01 6.579410e+01 6.512959e+01 6.674664e+01 6.470922e+01 0 0 0 0 0 0 0 0 0 0 0 0 0 0 0 0 0 0 0 0 0 0 0 0 0 0 0 0 0 0 0 0 0 0 0 0 0 0 0 0 0 0 0 0 0 0 0 0 0 0 0 0 0 0 0 0 0 0 0 0 0 0 0 0 0 0 0 0 0 0 0 0 0 0 0 0 0 0 0 0 0 0 0 0 0 0 0 0 0 0 0 0 0 0 0 0 0 0 0 0 0 0 0 0 0 0 0 
0 0 0 0 0 0 0 0 0 0 0 0 0 6.548662e+01 7.125271e+01 6.727840e+01 6.932414e+01 6.948976e+01 6.710241e+01 7.178920e+01 6.534352e+01 0 0 0 0 0 0 0 0 0 0 0 0 0 0 0 0 0 0 0 0 0 0 0 0 0 0 0 0 0 0 0 0 0 0 0 0 0 0 0 0 0 0 0 0 0 0 0 0 0 0 0 0 0 0 0 0 0 0 0 0 0 0 0 0 0 0 0 0 0 0 0 0 0 0 0 0 0 0 0 0 0 0 0 0 0 0 0 0 0 0 0 0 0 0 0 0 0 0 0 0 0 0 0 0 0 0 0 
0 0 0 0 0 1.076554e-01 3.321584e-01 2.237649e-01 2.787403e-01 2.368795e-01 2.970806e-01 2.239895e-01 3.281708e-01 5.985392e+01 6.547731e+01 6.151082e+01 6.395382e+01 6.347076e+01 6.199406e+01 6.571862e+01 6.050727e+01 3.233973e+00 3.230745e+00 3.294103e+00 3.227959e+00 3.163628e+00 3.009231e+00 2.956877e+00 2.937858e+00 2.952834e+00 2.962315e+00 2.956664e+00 2.897483e+00 2.778945e+00 2.692933e+00 2.657744e+00 2.635386e+00 2.633592e+00 2.749437e+00 2.875679e+00 2.874387e+00 2.729458e+00 2.655960e+00 2.656752e+00 2.635114e+00 2.500621e+00 2.321979e+00 2.139200e+00 2.056747e+00 2.140569e+00 2.341760e+00 2.527698e+00 2.534518e+00 2.379786e+00 2.198823e+00 2.112675e+00 2.046560e+00 1.895040e+00 1.744026e+00 1.707805e+00 1.784805e+00 1.981176e+00 2.219537e+00 2.322529e+00 2.180938e+00 1.992399e+00 1.932425e+00 1.976329e+00 2.033749e+00 2.039291e+00 1.912041e+00 1.687003e+00 1.527666e+00 1.521262e+00 1.527375e+00 1.505310e+00 1.456177e+00 1.450908e+00 1.475110e+00 1.524652e+00 1.522830e+00 1.429142e+00 1.335430e+00 1.315203e+00 1.366994e+00 1.419314e+00 1.444042e+00 1.336089e+00 1.087585e+00 8.282129e-01 7.293635e-01 7.155256e-01 7.941215e-01 9.566610e-01 1.175322e+00 1.208494e+00 1.139569e+00 1.042876e+00 9.867668e-01 8.450892e-01 7.280905e-01 6.338359e-01 5.391077e-01 5.039892e-01 6.179309e-01 8.381437e-01 9.704093e-01 9.893884e-01 8.384234e-01 6.771786e-01 4.631464e-01 4.477146e-01 4.511032e-01 4.861349e-01 3.610528e-01 3.755445e-01 3.230726e-01 3.623025e-01 3.599416e-01 3.399388e-01 2.435670e-01 1.400785e-01 2.385226e-01 2.738009e-02 0 0 0 0 
0 0 0 0 0 2.414460e+00 7.451210e+00 5.013898e+00 6.249051e+00 5.313027e+00 6.660579e+00 5.014613e+00 7.352939e+00 5.260384e+01 7.111592e+01 6.131876e+01 7.376157e+01 7.228814e+01 8.088547e+01 9.153457e+01 9.176480e+01 7.274494e+01 7.267218e+01 7.409939e+01 7.260846e+01 7.115888e+01 6.768046e+01 6.650095e+01 6.607268e+01 6.641010e+01 6.662351e+01 6.649609e+01 6.516313e+01 6.249327e+01 6.055648e+01 5.976420e+01 5.926080e+01 5.922037e+01 6.182902e+01 6.467226e+01 6.464326e+01 6.137923e+01 5.972398e+01 5.974176e+01 5.925449e+01 5.622642e+01 5.220483e+01 4.809108e+01 4.623523e+01 4.812168e+01 5.265052e+01 5.683597e+01 5.698938e+01 5.350623e+01 4.943267e+01 4.749368e+01 4.600588e+01 4.259666e+01 3.919885e+01 3.838394e+01 4.011632e+01 4.453473e+01 4.989903e+01 5.221710e+01 4.903033e+01 4.478707e+01 4.343734e+01 4.442532e+01 4.571751e+01 4.584226e+01 4.297912e+01 3.791628e+01 3.433205e+01 3.418798e+01 3.432548e+01 3.382923e+01 3.272434e+01 3.260586e+01 3.315018e+01 3.426450e+01 3.422347e+01 3.211627e+01 3.000896e+01 2.955407e+01 3.071846e+01 3.189481e+01 3.245080e+01 3.002341e+01 2.443672e+01 1.860621e+01 1.638443e+01 1.607352e+01 1.783993e+01 2.149340e+01 2.640929e+01 2.715501e+01 2.560548e+01 2.343226e+01 2.217135e+01 1.898778e+01 1.635798e+01 1.424008e+01 1.211127e+01 1.132264e+01 1.388349e+01 1.883098e+01 2.180366e+01 2.223005e+01 1.883608e+01 1.521252e+01 1.040330e+01 1.005656e+01 1.013313e+01 1.092139e+01 8.113047e+00 8.439173e+00 7.263336e+00 8.151122e+00 8.108794e+00 7.685270e+00 5.567082e+00 3.268166e+00 5.390334e+00 6.144810e-01 0 0 0 0 
0 0 0 0 0 3.494550e+00 1.078488e+01 7.255674e+00 9.043895e+00 7.689863e+00 9.639566e+00 7.255586e+00 1.064040e+01 1.460511e+01 2.253681e+01 2.976456e+01 4.387927e+01 5.754576e+01 7.108307e+01 8.406340e+01 1.033037e+02 1.053414e+02 1.052359e+02 1.073032e+02 1.051434e+02 1.030437e+02 9.800520e+01 9.629670e+01 9.567639e+01 9.616516e+01 9.647423e+01 9.628963e+01 9.435895e+01 9.049186e+01 8.768669e+01 8.653921e+01 8.581013e+01 8.575157e+01 8.952985e+01 9.364801e+01 9.360605e+01 8.887841e+01 8.648095e+01 8.650669e+01 8.580093e+01 8.141530e+01 7.559086e+01 6.963318e+01 6.694544e+01 6.967745e+01 7.623645e+01 8.229811e+01 8.252027e+01 7.747568e+01 7.157603e+01 6.876791e+01 6.661327e+01 6.167618e+01 5.675560e+01 5.557550e+01 5.808424e+01 6.448283e+01 7.225148e+01 7.560861e+01 7.099340e+01 6.484821e+01 6.289350e+01 6.432429e+01 6.619563e+01 6.637631e+01 6.223003e+01 5.489835e+01 4.970803e+01 4.949941e+01 4.969851e+01 4.897992e+01 4.738001e+01 4.720846e+01 4.799666e+01 4.961028e+01 4.955086e+01 4.649948e+01 4.344808e+01 4.278937e+01 4.447536e+01 4.617869e+01 4.698376e+01 4.346891e+01 3.537967e+01 2.693752e+01 2.372061e+01 2.327048e+01 2.582801e+01 3.111790e+01 3.823588e+01 3.931564e+01 3.707200e+01 3.392543e+01 3.209981e+01 2.749056e+01 2.368287e+01 2.061653e+01 1.753432e+01 1.639266e+01 2.010045e+01 2.726335e+01 3.156744e+01 3.218475e+01 2.727044e+01 2.202407e+01 1.506120e+01 1.455918e+01 1.467016e+01 1.581169e+01 1.174629e+01 1.221859e+01 1.051700e+01 1.180395e+01 1.174539e+01 1.113879e+01 8.084190e+00 4.762349e+00 7.812049e+00 8.894683e-01 0 0 0 0 
0 0 0 0 0 1.187745e+00 3.665833e+00 2.465541e+00 3.073585e+00 2.613715e+00 3.276067e+00 2.464962e+00 3.615632e+00 4.965792e+00 7.664172e+00 1.012193e+01 1.492167e+01 1.957020e+01 2.417476e+01 2.859081e+01 3.513714e+01 3.583039e+01 3.579451e+01 3.649791e+01 3.576291e+01 3.504840e+01 3.333397e+01 3.275262e+01 3.254158e+01 3.270789e+01 3.281303e+01 3.275021e+01 3.209330e+01 3.077754e+01 2.982315e+01 2.943276e+01 2.918471e+01 2.916478e+01 3.045026e+01 3.185143e+01 3.183717e+01 3.022864e+01 2.941293e+01 2.942168e+01 2.918156e+01 2.768951e+01 2.570801e+01 2.368130e+01 2.276696e+01 2.369634e+01 2.592768e+01 2.798984e+01 2.806541e+01 2.634924e+01 2.434219e+01 2.338690e+01 2.265396e+01 2.097456e+01 1.930078e+01 1.889937e+01 1.975272e+01 2.192927e+01 2.457198e+01 2.571403e+01 2.414401e+01 2.205353e+01 2.138858e+01 2.187529e+01 2.251188e+01 2.257334e+01 2.116295e+01 1.866908e+01 1.690365e+01 1.683269e+01 1.690041e+01 1.665600e+01 1.611185e+01 1.605350e+01 1.632159e+01 1.687043e+01 1.685021e+01 1.581236e+01 1.477455e+01 1.455051e+01 1.512390e+01 1.570320e+01 1.597700e+01 1.478159e+01 1.203053e+01 9.159521e+00 8.065545e+00 7.912484e+00 8.782205e+00 1.058116e+01 1.300191e+01 1.336912e+01 1.260608e+01 1.153604e+01 1.091523e+01 9.347867e+00 8.052979e+00 7.010284e+00 5.962159e+00 5.574001e+00 6.834892e+00 9.270517e+00 1.073418e+01 1.094409e+01 9.272781e+00 7.488731e+00 5.121050e+00 4.950341e+00 4.988131e+00 5.376439e+00 3.994295e+00 4.154959e+00 3.576736e+00 4.015132e+00 3.996536e+00 3.793456e+00 2.760675e+00 1.634261e+00 2.660237e+00 3.023674e-01 0 0 0 0 
0 0 0 0 0 0 0 0 0 0 0 0 0 0 0 0 0 0 0 0 0 0 0 0 0 0 0 0 0 0 0 0 0 0 0 0 0 0 0 0 0 0 0 0 0 0 0 0 0 0 0 0 0 0 0 0 0 0 0 0 0 0 0 0 0 0 0 0 0 0 0 0 0 0 0 0 0 0 0 0 0 0 0 0 0 0 0 0 0 0 0 0 0 0 0 0 0 0 0 0 0 0 0 0 0 0 0 0 0 0 0 0 0 0 0 0 0 0 0 0 0 0 0 0 0 0 0 0 
