# vtk DataFile Version 2.0
Comment goes here
ASCII

DATASET STRUCTURED_POINTS
FIELD FieldData 1
TIME 1 1 double
0.64000000
DIMENSIONS    128   16   1

ORIGIN    0.000   0.000   0.000
SPACING   0.0078125 0.015625   1.000

POINT_DATA   2048
SCALARS fMag double
LOOKUP_TABLE default

0 0 0 0 0 0 0 0 0 0 0 0 0 0 0 0 0 0 0 0 0 0 0 0 0 0 0 0 0 0 0 0 0 0 0 0 0 0 0 0 0 0 0 0 0 0 0 0 0 0 0 0 0 0 0 0 0 0 0 0 0 0 0 0 0 0 0 0 0 0 0 0 0 0 0 0 0 0 0 0 0 0 0 0 0 0 0 0 0 0 0 0 0 0 0 0 0 0 0 0 0 0 0 0 0 0 0 0 0 0 0 0 0 0 0 0 0 0 0 0 0 0 0 0 0 0 0 0 
0 0 0 0 0 0 0 0 0 0 0 0 0 0 0 0 0 0 0 0 0 0 0 0 0 0 0 0 0 0 0 0 0 0 0 0 0 0 0 0 0 0 0 0 0 0 0 0 0 0 0 0 0 0 0 0 0 0 0 0 0 0 0 0 0 0 0 0 0 0 0 0 0 0 0 0 0 0 0 0 0 0 0 0 0 0 0 0 0 0 0 0 0 0 0 0 0 0 0 0 0 0 0 0 0 0 0 0 0 0 0 0 0 0 0 0 0 0 0 0 0 0 0 0 0 0 0 0 
0 0 0 0 0 1.116518e+00 2.478042e+00 1.927433e+00 1.955039e+00 1.777407e+00 2.411006e+00 2.071093e+00 2.948674e+00 4.017052e+00 5.779419e+00 7.056291e+00 1.106582e+01 1.426674e+01 1.767807e+01 2.126126e+01 2.534294e+01 2.588798e+01 2.539116e+01 2.547240e+01 2.507968e+01 2.505843e+01 2.477908e+01 2.464477e+01 2.438760e+01 2.409557e+01 2.383635e+01 2.346168e+01 2.325232e+01 2.287417e+01 2.273469e+01 2.240680e+01 2.234087e+01 2.207442e+01 2.201924e+01 2.174955e+01 2.160283e+01 2.126774e+01 2.099484e+01 2.063503e+01 2.031270e+01 2.001740e+01 1.971128e+01 1.952042e+01 1.927451e+01 1.920718e+01 1.901365e+01 1.896924e+01 1.870711e+01 1.854071e+01 1.815018e+01 1.783597e+01 1.720135e+01 1.555110e+01 1.549820e+01 1.566146e+01 1.443417e+01 1.584792e+01 1.537012e+01 1.472556e+01 1.635389e+01 1.384095e+01 1.494138e+01 1.480558e+01 1.177998e+01 1.327391e+01 1.498730e+01 1.508535e+01 1.397832e+01 1.378941e+01 1.350678e+01 1.335698e+01 1.295119e+01 1.269519e+01 1.223960e+01 1.198769e+01 1.159136e+01 1.140098e+01 1.108891e+01 1.093457e+01 1.066919e+01 1.049041e+01 1.023321e+01 9.983724e+00 9.717860e+00 9.385855e+00 9.148864e+00 8.780699e+00 8.627328e+00 8.250224e+00 8.197578e+00 7.831347e+00 7.868082e+00 7.464608e+00 7.454861e+00 6.909326e+00 6.780234e+00 6.184183e+00 6.054845e+00 5.602888e+00 5.557540e+00 5.315914e+00 5.266624e+00 5.129494e+00 4.885258e+00 4.727076e+00 4.202280e+00 4.045346e+00 3.352520e+00 3.357228e+00 2.699558e+00 2.943654e+00 2.346070e+00 2.650825e+00 2.020099e+00 2.199543e+00 1.587094e+00 1.941745e+00 1.634880e+00 5.240748e-01 0 0 0 0 
0 0 0 0 0 3.283537e+00 7.290125e+00 5.670554e+00 5.748902e+00 5.225099e+00 7.088082e+00 6.087205e+00 8.668880e+00 1.181514e+01 1.700202e+01 2.075785e+01 3.255227e+01 4.196983e+01 5.200681e+01 6.255098e+01 7.456274e+01 7.616662e+01 7.470445e+01 7.494358e+01 7.378783e+01 7.372530e+01 7.290321e+01 7.250797e+01 7.175115e+01 7.089172e+01 7.012883e+01 6.902619e+01 6.841005e+01 6.729717e+01 6.688667e+01 6.592173e+01 6.572770e+01 6.494357e+01 6.478120e+01 6.398756e+01 6.355581e+01 6.256973e+01 6.176665e+01 6.070786e+01 5.975933e+01 5.889036e+01 5.798955e+01 5.742792e+01 5.670428e+01 5.650616e+01 5.593667e+01 5.580599e+01 5.503465e+01 5.454502e+01 5.339588e+01 5.247130e+01 5.116007e+01 4.859401e+01 4.800559e+01 4.808454e+01 4.659775e+01 4.805255e+01 4.823703e+01 4.718487e+01 4.913522e+01 4.620639e+01 4.686910e+01 4.658584e+01 4.346211e+01 4.425242e+01 4.314735e+01 4.231520e+01 4.096552e+01 4.056485e+01 3.973329e+01 3.929255e+01 3.809867e+01 3.734548e+01 3.600508e+01 3.526395e+01 3.409796e+01 3.353788e+01 3.261978e+01 3.216573e+01 3.138502e+01 3.085905e+01 3.010242e+01 2.936841e+01 2.858627e+01 2.760949e+01 2.691228e+01 2.582913e+01 2.537790e+01 2.426847e+01 2.411358e+01 2.303618e+01 2.314426e+01 2.195737e+01 2.192877e+01 2.032406e+01 1.994444e+01 1.819124e+01 1.781092e+01 1.648163e+01 1.634838e+01 1.563775e+01 1.549281e+01 1.508944e+01 1.437090e+01 1.390549e+01 1.236153e+01 1.189972e+01 9.861488e+00 9.875157e+00 7.940522e+00 8.658571e+00 6.901181e+00 7.798720e+00 5.946728e+00 6.484392e+00 4.716186e+00 5.757797e+00 4.825419e+00 1.541058e+00 0 0 0 0 
0 0 0 0 0 2.267965e+00 5.036567e+00 3.917772e+00 3.970511e+00 3.608032e+00 4.894639e+00 4.202727e+00 5.986309e+00 3.916425e+01 4.920980e+01 4.429982e+01 5.601534e+01 5.233179e+01 6.074770e+01 6.432000e+01 6.430671e+01 5.262505e+01 5.161459e+01 5.177985e+01 5.098117e+01 5.093798e+01 5.036989e+01 5.009676e+01 4.957377e+01 4.897986e+01 4.845266e+01 4.769068e+01 4.726489e+01 4.649583e+01 4.621215e+01 4.554534e+01 4.541124e+01 4.486939e+01 4.475719e+01 4.420877e+01 4.391042e+01 4.322904e+01 4.267410e+01 4.194247e+01 4.128703e+01 4.068657e+01 4.006410e+01 3.967601e+01 3.917598e+01 3.903907e+01 3.864555e+01 3.855526e+01 3.802227e+01 3.768395e+01 3.688992e+01 3.625105e+01 3.590773e+01 3.685200e+01 3.542540e+01 3.426267e+01 3.611747e+01 3.342611e+01 3.491836e+01 3.520743e+01 3.202230e+01 3.467620e+01 3.186779e+01 3.007045e+01 3.272776e+01 2.974051e+01 2.710776e+01 2.814577e+01 2.826870e+01 2.802425e+01 2.744970e+01 2.714518e+01 2.632031e+01 2.579992e+01 2.487383e+01 2.436178e+01 2.355620e+01 2.316925e+01 2.253496e+01 2.222126e+01 2.168189e+01 2.131851e+01 2.079577e+01 2.028865e+01 1.974828e+01 1.907343e+01 1.859173e+01 1.784339e+01 1.753163e+01 1.676514e+01 1.665812e+01 1.591378e+01 1.598845e+01 1.516850e+01 1.514878e+01 1.404023e+01 1.377802e+01 1.256693e+01 1.230426e+01 1.138605e+01 1.129406e+01 1.080320e+01 1.070311e+01 1.042446e+01 9.928020e+00 9.606456e+00 8.539735e+00 8.220616e+00 6.812449e+00 6.821804e+00 5.485290e+00 5.981345e+00 4.767518e+00 5.388082e+00 4.110298e+00 4.486486e+00 3.281137e+00 3.999991e+00 3.341421e+00 1.064334e+00 0 0 0 0 
0 0 0 0 0 1.009452e-01 2.244837e-01 1.746504e-01 1.766479e-01 1.603408e-01 2.175634e-01 1.866148e-01 2.661023e-01 4.419139e+01 4.832256e+01 4.529947e+01 4.755552e+01 4.679247e+01 4.604764e+01 4.829953e+01 4.399989e+01 2.346406e+00 2.301296e+00 2.308675e+00 2.273027e+00 2.271103e+00 2.245750e+00 2.233561e+00 2.210220e+00 2.183709e+00 2.160178e+00 2.126164e+00 2.107159e+00 2.072831e+00 2.060168e+00 2.030406e+00 2.024421e+00 2.000239e+00 1.995232e+00 1.970760e+00 1.957447e+00 1.927044e+00 1.902282e+00 1.869638e+00 1.840392e+00 1.813602e+00 1.785828e+00 1.768513e+00 1.746202e+00 1.740093e+00 1.722536e+00 1.718508e+00 1.694730e+00 1.679637e+00 1.644217e+00 1.615718e+00 1.941003e+00 3.475905e+00 2.157093e+00 1.011002e+00 2.925685e+00 2.481508e-01 9.270507e-01 1.424864e+00 1.625742e+00 9.590452e-01 1.106561e+00 2.069582e+00 2.389959e-01 1.807236e+00 2.224672e+00 5.653554e-01 9.544196e-01 1.248808e+00 1.223188e+00 1.209610e+00 1.172831e+00 1.149629e+00 1.108342e+00 1.085515e+00 1.049604e+00 1.032356e+00 1.004084e+00 9.901021e-01 9.660624e-01 9.498648e-01 9.265663e-01 9.039602e-01 8.798746e-01 8.497901e-01 8.283185e-01 7.949584e-01 7.810601e-01 7.468935e-01 7.421206e-01 7.089466e-01 7.122761e-01 6.757408e-01 6.748708e-01 6.254869e-01 6.138179e-01 5.598779e-01 5.481924e-01 5.073064e-01 5.032255e-01 4.813729e-01 4.769204e-01 4.645076e-01 4.423775e-01 4.280385e-01 3.804851e-01 3.662457e-01 3.034813e-01 3.038759e-01 2.443260e-01 2.664287e-01 2.124061e-01 2.401860e-01 1.836688e-01 2.016368e-01 1.520450e-01 1.839371e-01 1.508817e-01 4.735059e-02 0 0 0 0 
0 0 0 0 0 0 0 0 0 0 0 0 0 4.815092e+01 5.216983e+01 4.933410e+01 5.119801e+01 5.088572e+01 4.949619e+01 5.247636e+01 4.751660e+01 0 0 0 0 0 0 0 0 0 0 0 0 0 0 0 0 0 0 0 0 0 0 0 0 0 0 0 0 0 0 0 0 0 0 0 9.619675e-03 2.870306e-01 9.462587e-01 1.075242e+00 9.363537e-01 1.367802e+00 1.388346e+00 1.420353e+00 1.504039e+00 1.503433e+00 1.535349e+00 1.223898e+00 1.300487e+00 1.027366e+00 1.217652e+00 1.230882e+00 3.101588e-01 0 0 0 0 0 0 0 0 0 0 0 0 0 0 0 0 0 0 0 0 0 0 0 0 0 0 0 0 0 0 0 0 0 0 0 0 0 0 0 0 0 0 0 0 0 0 0 0 0 0 0 0 0 0 0 
0 0 0 0 0 0 0 0 0 0 0 0 0 4.805496e+01 4.985464e+01 4.827990e+01 4.911376e+01 4.888845e+01 4.844678e+01 4.966676e+01 4.808896e+01 0 0 0 0 0 0 0 0 0 0 0 0 0 0 0 0 0 0 0 0 0 0 0 0 0 0 0 0 0 0 0 0 0 0 0 3.550496e-02 2.419019e-01 2.161105e-01 5.262396e-01 1.644297e-01 5.842636e-01 4.078470e-01 1.285073e-02 1.075784e+00 1.635471e-01 6.268917e-01 1.235805e+00 4.532275e-01 9.855681e-01 4.137335e-01 2.913350e-01 3.637998e-02 0 0 0 0 0 0 0 0 0 0 0 0 0 0 0 0 0 0 0 0 0 0 0 0 0 0 0 0 0 0 0 0 0 0 0 0 0 0 0 0 0 0 0 0 0 0 0 0 0 0 0 0 0 0 0 
0 0 0 0 0 0 0 0 0 0 0 0 0 5.051894e+01 5.268629e+01 5.094382e+01 5.180178e+01 5.181461e+01 5.085160e+01 5.278947e+01 5.022007e+01 0 0 0 0 0 0 0 0 0 0 0 0 0 0 0 0 0 0 0 0 0 0 0 0 0 0 0 0 0 0 0 0 0 0 0 1.711994e-02 1.815580e-01 3.192971e-02 2.904823e-01 5.767910e-02 2.175892e-01 1.538773e-01 7.208547e-02 4.203004e-01 3.432143e-02 9.154702e-02 2.759535e-01 4.889348e-02 5.107654e-01 3.499079e-01 7.002713e-02 1.621479e-02 0 0 0 0 0 0 0 0 0 0 0 0 0 0 0 0 0 0 0 0 0 0 0 0 0 0 0 0 0 0 0 0 0 0 0 0 0 0 0 0 0 0 0 0 0 0 0 0 0 0 0 0 0 0 0 
0 0 0 0 0 0 0 0 0 0 0 0 0 4.806146e+01 4.986125e+01 4.828418e+01 4.911794e+01 4.889150e+01 4.844617e+01 4.966973e+01 4.808149e+01 0 0 0 0 0 0 0 0 0 0 0 0 0 0 0 0 0 0 0 0 0 0 0 0 0 0 0 0 0 0 0 0 0 0 0 0 0 0 0 0 0 0 0 0 0 0 0 0 0 0 0 0 0 0 0 0 0 0 0 0 0 0 0 0 0 0 0 0 0 0 0 0 0 0 0 0 0 0 0 0 0 0 0 0 0 0 0 0 0 0 0 0 0 0 0 0 0 0 0 0 0 0 0 0 0 0 0 
0 0 0 0 0 0 0 0 0 0 0 0 0 4.815766e+01 5.218377e+01 4.933043e+01 5.121248e+01 5.087824e+01 4.949753e+01 5.248329e+01 4.748382e+01 0 0 0 0 0 0 0 0 0 0 0 0 0 0 0 0 0 0 0 0 0 0 0 0 0 0 0 0 0 0 0 0 0 0 0 0 0 0 0 0 0 0 0 0 0 0 0 0 0 0 0 0 0 0 0 0 0 0 0 0 0 0 0 0 0 0 0 0 0 0 0 0 0 0 0 0 0 0 0 0 0 0 0 0 0 0 0 0 0 0 0 0 0 0 0 0 0 0 0 0 0 0 0 0 0 0 0 
0 0 0 0 0 1.009077e-01 2.239740e-01 1.734503e-01 1.774529e-01 1.608694e-01 2.189492e-01 1.874833e-01 2.674315e-01 4.421722e+01 4.834480e+01 4.530799e+01 4.757648e+01 4.679771e+01 4.605682e+01 4.832967e+01 4.396502e+01 2.347989e+00 2.304511e+00 2.312286e+00 2.275188e+00 2.266160e+00 2.232629e+00 2.212406e+00 2.189206e+00 2.167712e+00 2.156051e+00 2.133140e+00 2.126178e+00 2.098864e+00 2.089496e+00 2.054765e+00 2.037783e+00 1.997418e+00 1.975637e+00 1.938296e+00 1.919489e+00 1.893916e+00 1.882114e+00 1.867621e+00 1.856457e+00 1.843644e+00 1.823786e+00 1.802863e+00 1.767197e+00 1.734380e+00 1.690082e+00 1.660654e+00 1.629202e+00 1.618077e+00 1.605652e+00 1.606163e+00 1.599615e+00 1.592440e+00 1.572250e+00 1.540741e+00 1.500748e+00 1.452635e+00 1.411936e+00 1.376158e+00 1.360565e+00 1.353214e+00 1.360138e+00 1.359374e+00 1.356199e+00 1.332814e+00 1.300775e+00 1.256324e+00 1.210293e+00 1.171252e+00 1.140350e+00 1.129708e+00 1.120734e+00 1.126120e+00 1.114479e+00 1.108973e+00 1.077434e+00 1.054476e+00 1.009754e+00 9.814614e-01 9.412280e-01 9.208745e-01 8.960000e-01 8.852896e-01 8.739651e-01 8.628224e-01 8.527123e-01 8.263199e-01 8.087462e-01 7.658726e-01 7.465390e-01 6.964632e-01 6.838019e-01 6.378258e-01 6.401269e-01 6.060969e-01 6.177820e-01 5.853470e-01 5.861264e-01 5.438907e-01 5.251779e-01 4.805320e-01 4.522533e-01 4.235721e-01 3.968671e-01 3.912521e-01 3.620269e-01 3.709387e-01 3.286038e-01 3.404193e-01 2.796413e-01 2.898463e-01 2.205278e-01 2.352307e-01 1.727252e-01 1.895873e-01 1.429226e-01 1.807210e-01 1.500133e-01 4.719091e-02 0 0 0 0 
0 0 0 0 0 2.267124e+00 5.025113e+00 3.890833e+00 3.988554e+00 3.619813e+00 4.925666e+00 4.222162e+00 6.016050e+00 3.917452e+01 4.917791e+01 4.425192e+01 5.607106e+01 5.223617e+01 6.081338e+01 6.437128e+01 6.427365e+01 5.266052e+01 5.168660e+01 5.186070e+01 5.102953e+01 5.082719e+01 5.007586e+01 4.962277e+01 4.910293e+01 4.862142e+01 4.836020e+01 4.784697e+01 4.769105e+01 4.707916e+01 4.686933e+01 4.609116e+01 4.571066e+01 4.480618e+01 4.431807e+01 4.348123e+01 4.305976e+01 4.248659e+01 4.222208e+01 4.189724e+01 4.164704e+01 4.135986e+01 4.091484e+01 4.044589e+01 3.964652e+01 3.891096e+01 3.791805e+01 3.725839e+01 3.655335e+01 3.630398e+01 3.602545e+01 3.603689e+01 3.589011e+01 3.572926e+01 3.527663e+01 3.457022e+01 3.367357e+01 3.259485e+01 3.168230e+01 3.088007e+01 3.053043e+01 3.036560e+01 3.052083e+01 3.050370e+01 3.043251e+01 2.990810e+01 2.918963e+01 2.819278e+01 2.716047e+01 2.628488e+01 2.559182e+01 2.535313e+01 2.515188e+01 2.527268e+01 2.501158e+01 2.488807e+01 2.418061e+01 2.366561e+01 2.266234e+01 2.202765e+01 2.112498e+01 2.066834e+01 2.011020e+01 1.986990e+01 1.961581e+01 1.936585e+01 1.913906e+01 1.854703e+01 1.815280e+01 1.719098e+01 1.675724e+01 1.563366e+01 1.534953e+01 1.431770e+01 1.436916e+01 1.360516e+01 1.386700e+01 1.313861e+01 1.315563e+01 1.220717e+01 1.178687e+01 1.078435e+01 1.014961e+01 9.505733e+00 8.906596e+00 8.780899e+00 8.125467e+00 8.326109e+00 7.376475e+00 7.642181e+00 6.278137e+00 6.507030e+00 4.949808e+00 5.276829e+00 3.864632e+00 4.216358e+00 3.077743e+00 3.931249e+00 3.322515e+00 1.060741e+00 0 0 0 0 
0 0 0 0 0 3.282321e+00 7.273542e+00 5.631558e+00 5.775014e+00 5.242131e+00 7.132976e+00 6.115323e+00 8.711909e+00 1.187178e+01 1.701525e+01 2.073635e+01 3.255549e+01 4.197888e+01 5.197037e+01 6.264648e+01 7.457578e+01 7.621795e+01 7.480865e+01 7.506057e+01 7.385779e+01 7.356498e+01 7.247772e+01 7.182205e+01 7.106980e+01 7.037303e+01 6.999502e+01 6.925236e+01 6.902676e+01 6.814131e+01 6.783768e+01 6.671160e+01 6.616099e+01 6.485209e+01 6.414574e+01 6.293470e+01 6.232477e+01 6.149529e+01 6.111251e+01 6.064241e+01 6.028033e+01 5.986472e+01 5.922072e+01 5.854207e+01 5.738524e+01 5.632074e+01 5.488382e+01 5.392914e+01 5.290881e+01 5.254791e+01 5.214481e+01 5.216137e+01 5.194895e+01 5.171616e+01 5.106109e+01 5.003876e+01 4.874107e+01 4.717987e+01 4.585916e+01 4.469810e+01 4.419207e+01 4.395351e+01 4.417818e+01 4.415339e+01 4.405035e+01 4.329136e+01 4.225152e+01 4.080876e+01 3.931467e+01 3.804739e+01 3.704430e+01 3.669883e+01 3.640754e+01 3.658239e+01 3.620449e+01 3.602571e+01 3.500175e+01 3.425634e+01 3.280420e+01 3.188555e+01 3.057899e+01 2.991804e+01 2.911016e+01 2.876233e+01 2.839455e+01 2.803276e+01 2.770450e+01 2.684762e+01 2.627700e+01 2.488486e+01 2.425704e+01 2.263072e+01 2.221944e+01 2.072585e+01 2.080029e+01 1.969432e+01 2.007323e+01 1.901876e+01 1.904329e+01 1.767022e+01 1.706176e+01 1.561046e+01 1.469164e+01 1.375957e+01 1.289236e+01 1.271050e+01 1.176187e+01 1.205246e+01 1.067797e+01 1.106272e+01 9.088248e+00 9.419540e+00 7.165053e+00 7.637670e+00 5.591108e+00 6.093454e+00 4.422119e+00 5.659191e+00 4.798200e+00 1.535855e+00 0 0 0 0 
0 0 0 0 0 1.116104e+00 2.472403e+00 1.914175e+00 1.963913e+00 1.783187e+00 2.426259e+00 2.080644e+00 2.963290e+00 4.036301e+00 5.783917e+00 7.048988e+00 1.106692e+01 1.426982e+01 1.766568e+01 2.129370e+01 2.534737e+01 2.590542e+01 2.542656e+01 2.551215e+01 2.510345e+01 2.500394e+01 2.463449e+01 2.441169e+01 2.415607e+01 2.391932e+01 2.379088e+01 2.353853e+01 2.346188e+01 2.316102e+01 2.305785e+01 2.267521e+01 2.248811e+01 2.204333e+01 2.180330e+01 2.139177e+01 2.118450e+01 2.090262e+01 2.077254e+01 2.061279e+01 2.048974e+01 2.034851e+01 2.012966e+01 1.989904e+01 1.950591e+01 1.914416e+01 1.865585e+01 1.833141e+01 1.798466e+01 1.786201e+01 1.772502e+01 1.773065e+01 1.765845e+01 1.757934e+01 1.735671e+01 1.700927e+01 1.656824e+01 1.603766e+01 1.558880e+01 1.519419e+01 1.502221e+01 1.494113e+01 1.501749e+01 1.500906e+01 1.497404e+01 1.471608e+01 1.436266e+01 1.387230e+01 1.336449e+01 1.293376e+01 1.259283e+01 1.247541e+01 1.237640e+01 1.243583e+01 1.230739e+01 1.224662e+01 1.189858e+01 1.164521e+01 1.115162e+01 1.083936e+01 1.039524e+01 1.017057e+01 9.895959e+00 9.777724e+00 9.652706e+00 9.529734e+00 9.418157e+00 9.126902e+00 8.932948e+00 8.459746e+00 8.246343e+00 7.693519e+00 7.553713e+00 7.045978e+00 7.071259e+00 6.695262e+00 6.824020e+00 6.465504e+00 6.473784e+00 6.006949e+00 5.800065e+00 5.306643e+00 4.994286e+00 4.677412e+00 4.382635e+00 4.320850e+00 3.998428e+00 4.097291e+00 3.630104e+00 3.760962e+00 3.089752e+00 3.202356e+00 2.435773e+00 2.596072e+00 1.899202e+00 2.066683e+00 1.487299e+00 1.908666e+00 1.625699e+00 5.223049e-01 0 0 0 0 
0 0 0 0 0 0 0 0 0 0 0 0 0 0 0 0 0 0 0 0 0 0 0 0 0 0 0 0 0 0 0 0 0 0 0 0 0 0 0 0 0 0 0 0 0 0 0 0 0 0 0 0 0 0 0 0 0 0 0 0 0 0 0 0 0 0 0 0 0 0 0 0 0 0 0 0 0 0 0 0 0 0 0 0 0 0 0 0 0 0 0 0 0 0 0 0 0 0 0 0 0 0 0 0 0 0 0 0 0 0 0 0 0 0 0 0 0 0 0 0 0 0 0 0 0 0 0 0 
