# vtk DataFile Version 2.0
Comment goes here
ASCII

DATASET STRUCTURED_POINTS
FIELD FieldData 1
TIME 1 1 double
0.04000000
DIMENSIONS    128   16   1

ORIGIN    0.000   0.000   0.000
SPACING   0.0078125 0.015625   1.000

POINT_DATA   2048
SCALARS fX double
LOOKUP_TABLE default

0 0 0 0 0 0 0 0 0 0 0 0 0 0 0 0 0 0 0 0 0 0 0 0 0 0 0 0 0 0 0 0 0 0 0 0 0 0 0 0 0 0 0 0 0 0 0 0 0 0 0 0 0 0 0 0 0 0 0 0 0 0 0 0 0 0 0 0 0 0 0 0 0 0 0 0 0 0 0 0 0 0 0 0 0 0 0 0 0 0 0 0 0 0 0 0 0 0 0 0 0 0 0 0 0 0 0 0 0 0 0 0 0 0 0 0 0 0 0 0 0 0 0 0 0 0 0 0 
0 0 0 0 0 0 0 0 0 0 0 0 0 0 0 0 0 0 0 0 0 0 0 0 0 0 0 0 0 0 0 0 0 0 0 0 0 0 0 0 0 0 0 0 0 0 0 0 0 0 0 0 0 0 0 0 0 0 0 0 0 0 0 0 0 0 0 0 0 0 0 0 0 0 0 0 0 0 0 0 0 0 0 0 0 0 0 0 0 0 0 0 0 0 0 0 0 0 0 0 0 0 0 0 0 0 0 0 0 0 0 0 0 0 0 0 0 0 0 0 0 0 0 0 0 0 0 0 
0 0 0 0 0 -4.860558e-01 1.834973e+00 1.542070e+00 1.651903e+00 3.890188e+00 4.279841e+00 2.668698e+00 -3.027470e+00 -6.926026e+00 -5.462988e+00 -1.645849e+00 -2.218482e+00 -4.852325e+00 -7.443775e+00 -8.521060e+00 -7.415300e+00 -1.281232e+00 4.672169e+00 -1.624516e+00 -9.419520e+00 -4.253412e+00 5.678667e+00 3.185038e+00 -7.932973e+00 -9.074939e+00 1.292540e+00 5.505327e+00 -1.927050e+00 -3.123944e+00 6.991325e+00 6.070947e+00 -6.125830e+00 -4.165975e+00 3.922220e+00 -9.634479e-01 -5.578537e-01 5.655027e+00 -4.200495e+00 -2.502223e+00 1.355393e+01 8.517859e+00 1.751318e+00 1.037802e+01 8.769025e+00 -7.956387e-01 4.929993e+00 5.578178e+00 -1.115284e+00 1.761286e+00 -1.489276e-03 -1.510096e+00 3.898904e+00 3.140016e+00 -9.001797e-01 3.596759e+00 4.078658e-01 -4.102298e+00 3.152825e-01 -7.727032e+00 -8.490861e+00 2.598450e+00 1.455207e+00 5.708465e-01 7.525738e+00 8.384512e+00 4.525670e+00 3.390891e+00 1.060009e+00 -2.394537e+00 -2.523261e+00 -2.838683e+00 -1.761594e+00 3.094309e+00 2.253951e+00 1.012619e-01 3.469527e+00 -2.552659e+00 -1.378947e+01 -2.889569e+00 -6.780802e-01 -1.372114e+01 3.805335e+00 1.568599e+01 3.413416e+00 4.213623e+00 6.978101e+00 -4.121823e-01 -1.136664e+00 -6.787413e-02 -4.517644e+00 1.179983e+00 1.601080e+01 1.707538e+01 2.630941e+00 -5.949866e+00 -2.126481e+00 1.087164e+00 -2.927797e+00 -6.969425e+00 -5.352324e+00 -1.278496e+00 8.901320e-01 6.650567e-01 2.873696e-01 -1.422292e+00 -3.717779e+00 -4.012591e+00 -1.239555e-01 6.440253e+00 9.552452e+00 7.008368e+00 1.617986e+00 -1.634913e+00 -6.139288e-01 3.359170e+00 5.887518e+00 6.441117e+00 3.332248e+00 5.233906e-02 0 0 0 0 
0 0 0 0 0 -1.429289e+00 5.399674e+00 4.538271e+00 4.857680e+00 1.143973e+01 1.258584e+01 7.847599e+00 -8.904363e+00 -2.037177e+01 -1.606967e+01 -4.841466e+00 -6.525929e+00 -1.427395e+01 -2.189748e+01 -2.506816e+01 -2.181647e+01 -3.768841e+00 1.374698e+01 -4.779242e+00 -2.771389e+01 -1.251473e+01 1.670644e+01 9.370798e+00 -2.333768e+01 -2.669779e+01 3.802763e+00 1.619696e+01 -5.668983e+00 -9.190648e+00 2.056701e+01 1.786016e+01 -1.801904e+01 -1.225337e+01 1.153913e+01 -2.835741e+00 -1.641786e+00 1.663827e+01 -1.235552e+01 -7.360149e+00 3.987503e+01 2.505917e+01 5.152023e+00 3.052874e+01 2.579536e+01 -2.340266e+00 1.450436e+01 1.641110e+01 -3.280424e+00 5.181289e+00 -4.029439e-03 -4.442006e+00 1.150258e+01 9.274539e+00 -3.628429e+00 8.592285e+00 -8.839287e-01 -1.458076e+01 -2.180821e+00 -2.510355e+01 -2.627517e+01 6.456315e+00 3.742386e+00 2.024549e+00 2.218629e+01 2.357442e+01 1.140447e+01 8.835429e+00 3.045260e+00 -7.044610e+00 -7.423238e+00 -8.350915e+00 -5.182273e+00 9.102884e+00 6.631119e+00 2.983289e-01 1.020617e+01 -7.508824e+00 -4.056308e+01 -8.501988e+00 -2.000796e+00 -4.036914e+01 1.119021e+01 4.614002e+01 1.004018e+01 1.239684e+01 2.052911e+01 -1.209885e+00 -3.341190e+00 -1.989170e-01 -1.328778e+01 3.472172e+00 4.709596e+01 5.022700e+01 7.740363e+00 -1.749957e+01 -6.254899e+00 3.197595e+00 -8.610109e+00 -2.049638e+01 -1.574156e+01 -3.760656e+00 2.618459e+00 1.956604e+00 8.456308e-01 -4.182941e+00 -1.093564e+01 -1.180439e+01 -3.662564e-01 1.894380e+01 2.809782e+01 2.061299e+01 4.758207e+00 -4.808572e+00 -1.803616e+00 9.886217e+00 1.733045e+01 1.895850e+01 9.805054e+00 1.539476e-01 0 0 0 0 
0 0 0 0 0 -9.871534e-01 3.731172e+00 3.136189e+00 3.355065e+00 7.901117e+00 8.692834e+00 5.420057e+00 -6.150777e+00 -4.925909e+01 -4.777452e+01 -3.387567e+01 -5.097333e+01 -4.367807e+01 -5.343931e+01 -5.754255e+01 -2.462328e+01 -2.603604e+00 9.498411e+00 -3.301906e+00 -1.914815e+01 -8.646919e+00 1.154228e+01 6.474425e+00 -1.612330e+01 -1.844499e+01 2.627358e+00 1.119052e+01 -3.916470e+00 -6.349761e+00 1.420890e+01 1.233919e+01 -1.244771e+01 -8.464360e+00 7.972293e+00 -1.959813e+00 -1.134581e+00 1.149584e+01 -8.535216e+00 -5.084405e+00 2.754909e+01 1.731303e+01 3.559328e+00 2.109046e+01 1.782033e+01 -1.616631e+00 1.002112e+01 1.133837e+01 -2.266063e+00 3.579517e+00 -2.613345e-03 -3.068616e+00 7.882969e+00 5.937727e+00 -3.572760e+00 4.409615e+00 -2.425158e+00 -1.175689e+01 -3.614813e+00 -1.919451e+01 -1.894419e+01 3.765141e+00 1.944295e+00 1.450037e+00 1.548263e+01 1.553591e+01 6.713340e+00 5.497759e+00 2.067446e+00 -4.867018e+00 -5.128571e+00 -5.769355e+00 -3.580236e+00 6.288845e+00 4.581394e+00 2.063152e-01 7.050808e+00 -5.187265e+00 -2.802209e+01 -5.874391e+00 -1.385188e+00 -2.789152e+01 7.728784e+00 3.187388e+01 6.935676e+00 8.565072e+00 1.418320e+01 -8.345663e-01 -2.307012e+00 -1.370580e-01 -9.178926e+00 2.399222e+00 3.253450e+01 3.469726e+01 5.347831e+00 -1.208795e+01 -4.320883e+00 2.208790e+00 -5.946987e+00 -1.415710e+01 -1.087332e+01 -2.597884e+00 1.808926e+00 1.351808e+00 5.843325e-01 -2.889268e+00 -7.554362e+00 -8.155254e+00 -2.538094e-01 1.308649e+01 1.940994e+01 1.423865e+01 3.286490e+00 -3.321561e+00 -1.244865e+00 6.832037e+00 1.197804e+01 1.310253e+01 6.775013e+00 1.063450e-01 0 0 0 0 
0 0 0 0 0 -4.392023e-02 1.664713e-01 1.399878e-01 1.492874e-01 3.515718e-01 3.868335e-01 2.411558e-01 -2.738840e-01 -4.494947e+01 -4.676261e+01 -4.321265e+01 -4.661258e+01 -4.712165e+01 -4.807249e+01 -5.099262e+01 -4.568752e+01 -1.159952e-01 4.235950e-01 -1.471802e-01 -8.537797e-01 -3.856038e-01 5.145007e-01 2.886645e-01 -7.185968e-01 -8.221459e-01 1.171346e-01 4.988805e-01 -1.745371e-01 -2.830567e-01 6.332151e-01 5.499796e-01 -5.544990e-01 -3.769596e-01 3.553797e-01 -8.752060e-02 -5.064814e-02 5.125997e-01 -3.801905e-01 -2.264785e-01 1.227990e+00 7.717245e-01 1.586221e-01 9.397398e-01 7.940011e-01 -7.200336e-02 4.467555e-01 5.054470e-01 -1.009238e-01 1.595145e-01 -7.318215e-05 -1.367055e-01 2.821958e-01 -1.229426e-01 -7.054905e-01 -4.707483e-01 -1.005817e+00 -1.103662e+00 -9.306758e-01 -1.660238e+00 -1.015649e+00 1.431239e-01 -5.591783e-02 1.716104e-01 9.100272e-01 4.787459e-01 -3.123951e-03 1.383663e-01 9.373314e-02 -2.169447e-01 -2.285943e-01 -2.571225e-01 -1.595564e-01 2.802701e-01 2.042261e-01 9.248238e-03 3.141621e-01 -2.310996e-01 -1.248472e+00 -2.619728e-01 -6.247214e-02 -1.243522e+00 3.439040e-01 1.419850e+00 3.089170e-01 3.818535e-01 6.321936e-01 -3.686387e-02 -1.024868e-01 -6.015133e-03 -4.087881e-01 1.070326e-01 1.449342e+00 1.545635e+00 2.384090e-01 -5.382429e-01 -1.924650e-01 9.835874e-02 -2.646746e-01 -6.301433e-01 -4.840920e-01 -1.157235e-01 8.059916e-02 6.026094e-02 2.607132e-02 -1.286187e-01 -3.364999e-01 -3.634595e-01 -1.150847e-02 5.829411e-01 8.645688e-01 6.340294e-01 1.462687e-01 -1.479017e-01 -5.517768e-02 3.049898e-01 5.351029e-01 5.851504e-01 3.022070e-01 4.736420e-03 0 0 0 0 
0 0 0 0 0 0 0 0 0 0 0 0 0 -4.797180e+01 -5.129398e+01 -4.795225e+01 -5.100212e+01 -5.040553e+01 -4.966771e+01 -5.314446e+01 -4.599332e+01 0 0 0 0 0 0 0 0 0 0 0 0 0 0 0 0 0 0 0 0 0 0 0 0 0 0 0 0 0 0 0 0 0 0 0 9.094480e-03 1.290692e-01 2.174788e-01 1.739765e-01 1.969298e-01 2.375867e-01 2.522433e-01 2.270495e-01 1.951916e-01 2.950033e-01 3.789809e-01 2.419596e-01 1.047484e-01 1.599867e-01 2.092737e-01 1.150093e-01 1.570002e-02 0 0 0 0 0 0 0 0 0 0 0 0 0 0 0 0 0 0 0 0 0 0 0 0 0 0 0 0 0 0 0 0 0 0 0 0 0 0 0 0 0 0 0 0 0 0 0 0 0 0 0 0 0 0 0 
0 0 0 0 0 0 0 0 0 0 0 0 0 -4.763730e+01 -4.940176e+01 -4.804827e+01 -4.908798e+01 -4.926056e+01 -4.899757e+01 -5.065496e+01 -4.882270e+01 0 0 0 0 0 0 0 0 0 0 0 0 0 0 0 0 0 0 0 0 0 0 0 0 0 0 0 0 0 0 0 0 0 0 0 5.314156e-03 4.640694e-02 6.892361e-02 5.513541e-02 6.149978e-02 5.717413e-02 6.191207e-02 6.510209e-02 4.874949e-02 5.917799e-02 9.281278e-02 6.724735e-02 1.759200e-02 2.858665e-02 4.810624e-02 3.030015e-02 4.220588e-03 0 0 0 0 0 0 0 0 0 0 0 0 0 0 0 0 0 0 0 0 0 0 0 0 0 0 0 0 0 0 0 0 0 0 0 0 0 0 0 0 0 0 0 0 0 0 0 0 0 0 0 0 0 0 0 
0 0 0 0 0 0 0 0 0 0 0 0 0 -4.955486e+01 -5.190072e+01 -5.013533e+01 -5.115485e+01 -5.134095e+01 -5.031277e+01 -5.270697e+01 -4.968736e+01 0 0 0 0 0 0 0 0 0 0 0 0 0 0 0 0 0 0 0 0 0 0 0 0 0 0 0 0 0 0 0 0 0 0 0 -8.722007e-04 -8.809018e-03 -9.535732e-03 -3.677856e-03 -7.883719e-03 -5.643305e-03 -2.296947e-03 -4.196614e-03 -2.210037e-03 2.196434e-05 7.973079e-04 5.635211e-04 8.011476e-04 1.335835e-03 1.171803e-03 4.363658e-04 5.926930e-05 0 0 0 0 0 0 0 0 0 0 0 0 0 0 0 0 0 0 0 0 0 0 0 0 0 0 0 0 0 0 0 0 0 0 0 0 0 0 0 0 0 0 0 0 0 0 0 0 0 0 0 0 0 0 0 
0 0 0 0 0 0 0 0 0 0 0 0 0 -4.775478e+01 -4.965899e+01 -4.819678e+01 -4.913311e+01 -4.909987e+01 -4.869002e+01 -5.007021e+01 -4.844803e+01 0 0 0 0 0 0 0 0 0 0 0 0 0 0 0 0 0 0 0 0 0 0 0 0 0 0 0 0 0 0 0 0 0 0 0 0 0 0 0 0 0 0 0 0 0 0 0 0 0 0 0 0 0 0 0 0 0 0 0 0 0 0 0 0 0 0 0 0 0 0 0 0 0 0 0 0 0 0 0 0 0 0 0 0 0 0 0 0 0 0 0 0 0 0 0 0 0 0 0 0 0 0 0 0 0 0 0 
0 0 0 0 0 0 0 0 0 0 0 0 0 -4.670059e+01 -5.144972e+01 -4.833319e+01 -5.020794e+01 -5.015018e+01 -4.860642e+01 -5.174786e+01 -4.694567e+01 0 0 0 0 0 0 0 0 0 0 0 0 0 0 0 0 0 0 0 0 0 0 0 0 0 0 0 0 0 0 0 0 0 0 0 0 0 0 0 0 0 0 0 0 0 0 0 0 0 0 0 0 0 0 0 0 0 0 0 0 0 0 0 0 0 0 0 0 0 0 0 0 0 0 0 0 0 0 0 0 0 0 0 0 0 0 0 0 0 0 0 0 0 0 0 0 0 0 0 0 0 0 0 0 0 0 0 
0 0 0 0 0 -4.476927e-02 1.593392e-01 1.175346e-01 6.347918e-02 1.145776e-01 6.436363e-02 1.352150e-01 -1.701787e-02 -4.408545e+01 -4.794760e+01 -4.494594e+01 -4.729428e+01 -4.712148e+01 -4.603732e+01 -4.815960e+01 -4.382088e+01 -2.235608e-01 -1.407274e-01 -2.348697e-01 -2.881921e-01 -2.951910e-01 -2.628648e-01 -2.484023e-01 -2.274941e-01 -1.431639e-01 -1.360496e-01 -1.638557e-01 -1.278336e-01 -7.454284e-02 -4.515480e-02 -1.392456e-01 -2.525430e-01 -2.444074e-01 -2.071502e-01 -1.495334e-01 9.219011e-03 1.208752e-01 1.942343e-01 2.796196e-01 2.108987e-01 9.003573e-02 3.870825e-02 -4.035182e-02 -1.579074e-01 -1.477339e-01 -2.456951e-02 1.417146e-01 3.503536e-01 4.184932e-01 3.446233e-01 2.078535e-01 -3.196137e-02 -2.884731e-01 -5.048581e-01 -6.066172e-01 -5.591319e-01 -4.113544e-01 -1.710592e-01 8.998569e-02 3.240771e-01 4.965354e-01 5.218737e-01 4.034253e-01 1.966091e-01 -3.290798e-02 -1.871817e-01 -2.098118e-01 -9.776414e-02 1.059836e-01 3.321702e-01 5.336617e-01 5.936499e-01 5.039859e-01 2.906611e-01 -4.403610e-02 -3.427736e-01 -4.755523e-01 -4.701251e-01 -3.214758e-01 4.698812e-02 3.097409e-01 4.225239e-01 4.952080e-01 3.649974e-01 1.725286e-01 9.184591e-02 1.313954e-01 2.626521e-01 4.706282e-01 6.133860e-01 6.190541e-01 5.490297e-01 4.337785e-01 2.906717e-01 1.813239e-01 1.838442e-01 2.655233e-01 3.516945e-01 3.247544e-01 1.528858e-01 -9.156351e-02 -2.969270e-01 -4.330895e-01 -4.144701e-01 -3.426166e-01 -2.347865e-01 -1.532876e-01 -8.776708e-02 4.953368e-02 1.648461e-01 2.261174e-01 1.935836e-01 1.067303e-01 4.775728e-02 1.315498e-01 2.138652e-01 3.236236e-01 2.056302e-01 -2.001003e-03 0 0 0 0 
0 0 0 0 0 -1.006054e+00 3.572431e+00 2.632207e+00 1.426025e+00 2.577944e+00 1.450009e+00 3.039762e+00 -3.806576e-01 -3.243295e+01 -4.560048e+01 -4.165229e+01 -4.649450e+01 -4.546458e+01 -4.299585e+01 -4.780562e+01 -3.282767e+01 -5.013985e+00 -3.156307e+00 -5.268020e+00 -6.464580e+00 -6.622045e+00 -5.897198e+00 -5.572689e+00 -5.103615e+00 -3.211942e+00 -3.052348e+00 -3.676037e+00 -2.867727e+00 -1.672263e+00 -1.012939e+00 -3.123553e+00 -5.665250e+00 -5.483049e+00 -4.647258e+00 -3.354643e+00 2.067941e-01 2.711780e+00 4.357627e+00 6.273438e+00 4.731664e+00 2.019914e+00 8.683652e-01 -9.054469e-01 -3.542841e+00 -3.314613e+00 -5.511715e-01 3.180719e+00 7.863280e+00 9.391939e+00 7.733426e+00 4.663999e+00 -7.173508e-01 -6.472936e+00 -1.132822e+01 -1.361194e+01 -1.254717e+01 -9.231869e+00 -3.839333e+00 2.019700e+00 7.274085e+00 1.114523e+01 1.171339e+01 9.053995e+00 4.412269e+00 -7.383562e-01 -4.200700e+00 -4.708999e+00 -2.194291e+00 2.378815e+00 7.455293e+00 1.197810e+01 1.332527e+01 1.131244e+01 6.523920e+00 -9.880962e-01 -7.693519e+00 -1.067479e+01 -1.055355e+01 -7.216906e+00 1.054483e+00 6.953294e+00 9.485137e+00 1.111662e+01 8.193525e+00 3.872655e+00 2.061200e+00 2.948487e+00 5.895017e+00 1.056355e+01 1.376789e+01 1.389468e+01 1.232242e+01 9.736499e+00 6.525036e+00 4.070824e+00 4.127732e+00 5.961663e+00 7.896071e+00 7.291137e+00 3.432565e+00 -2.056602e+00 -6.667930e+00 -9.725380e+00 -9.307091e+00 -7.693500e+00 -5.272510e+00 -3.442759e+00 -1.971426e+00 1.112262e+00 3.701894e+00 5.077317e+00 4.346454e+00 2.395714e+00 1.069141e+00 2.943026e+00 4.765744e+00 7.225152e+00 4.603754e+00 -4.496363e-02 0 0 0 0 
0 0 0 0 0 -1.456608e+00 5.170231e+00 3.808733e+00 2.064540e+00 3.733260e+00 2.100308e+00 4.401407e+00 -5.506841e-01 -8.034413e+00 -9.110316e+00 -8.964738e+00 -1.618024e+01 -1.381766e+01 -1.335388e+01 -1.734383e+01 -1.359097e+01 -7.256961e+00 -4.568286e+00 -7.624740e+00 -9.356739e+00 -9.584771e+00 -8.535709e+00 -8.065995e+00 -7.387046e+00 -4.649062e+00 -4.418065e+00 -5.320773e+00 -4.150764e+00 -2.420448e+00 -1.466126e+00 -4.521002e+00 -8.199885e+00 -7.936245e+00 -6.726518e+00 -4.855559e+00 2.993103e-01 3.925084e+00 6.307334e+00 9.080376e+00 6.848768e+00 2.923664e+00 1.256880e+00 -1.310606e+00 -5.128045e+00 -4.797707e+00 -7.977679e-01 4.604197e+00 1.138230e+01 1.359490e+01 1.119401e+01 6.750994e+00 -1.038387e+00 -9.369357e+00 -1.639719e+01 -1.970289e+01 -1.816186e+01 -1.336324e+01 -5.557559e+00 2.923586e+00 1.052956e+01 1.613327e+01 1.695556e+01 1.310578e+01 6.386772e+00 -1.068732e+00 -6.080524e+00 -6.816400e+00 -3.176314e+00 3.443429e+00 1.079175e+01 1.733877e+01 1.928904e+01 1.637532e+01 9.443632e+00 -1.430233e+00 -1.113666e+01 -1.545242e+01 -1.527707e+01 -1.044710e+01 1.526363e+00 1.006545e+01 1.373050e+01 1.609215e+01 1.186074e+01 5.605881e+00 2.983595e+00 4.267874e+00 8.533210e+00 1.529123e+01 1.992966e+01 2.011309e+01 1.783704e+01 1.409404e+01 9.445471e+00 5.892930e+00 5.975394e+00 8.630243e+00 1.143045e+01 1.055472e+01 4.969035e+00 -2.977380e+00 -9.652949e+00 -1.407905e+01 -1.347347e+01 -1.113752e+01 -7.632853e+00 -4.984089e+00 -2.854094e+00 1.610164e+00 5.359123e+00 7.350149e+00 6.292032e+00 3.467926e+00 1.546919e+00 4.257703e+00 6.889845e+00 1.044889e+01 6.661162e+00 -6.509957e-02 0 0 0 0 
0 0 0 0 0 -4.953238e-01 1.757139e+00 1.294060e+00 7.019940e-01 1.269894e+00 7.146621e-01 1.496860e+00 -1.870444e-01 -2.731369e+00 -3.097129e+00 -3.047600e+00 -5.500638e+00 -4.697459e+00 -4.539411e+00 -5.895449e+00 -4.619531e+00 -2.466537e+00 -1.552707e+00 -2.591590e+00 -3.180352e+00 -3.257917e+00 -2.901376e+00 -2.741709e+00 -2.510925e+00 -1.580283e+00 -1.501767e+00 -1.808591e+00 -1.410871e+00 -8.227285e-01 -4.983419e-01 -1.536695e+00 -2.787179e+00 -2.697603e+00 -2.286411e+00 -1.650450e+00 1.017352e-01 1.334180e+00 2.143942e+00 3.086558e+00 2.328003e+00 9.937864e-01 4.272229e-01 -4.455107e-01 -1.743112e+00 -1.630827e+00 -2.711660e-01 1.565192e+00 3.869370e+00 4.621457e+00 3.805211e+00 2.294849e+00 -3.529977e-01 -3.184893e+00 -5.573829e+00 -6.697572e+00 -6.173824e+00 -4.542721e+00 -1.889285e+00 9.938716e-01 3.579554e+00 5.484577e+00 5.764048e+00 4.455211e+00 2.171111e+00 -3.632839e-01 -2.067006e+00 -2.317213e+00 -1.079787e+00 1.170598e+00 3.668632e+00 5.894337e+00 6.557420e+00 5.566861e+00 3.210374e+00 -4.861724e-01 -3.785910e+00 -5.253187e+00 -5.193647e+00 -3.551669e+00 5.188679e-01 3.421902e+00 4.667890e+00 5.470745e+00 4.032209e+00 1.905754e+00 1.014241e+00 1.450783e+00 2.900845e+00 5.198301e+00 6.775159e+00 6.837460e+00 6.063646e+00 4.791322e+00 3.211107e+00 2.003430e+00 2.031506e+00 2.934103e+00 3.886071e+00 3.588333e+00 1.689355e+00 -1.012342e+00 -3.281946e+00 -4.786761e+00 -4.580845e+00 -3.786635e+00 -2.595130e+00 -1.694618e+00 -9.704352e-01 5.474354e-01 1.822075e+00 2.498949e+00 2.139162e+00 1.178943e+00 5.255349e-01 1.446226e+00 2.337966e+00 3.547360e+00 2.263038e+00 -2.213694e-02 0 0 0 0 
0 0 0 0 0 0 0 0 0 0 0 0 0 0 0 0 0 0 0 0 0 0 0 0 0 0 0 0 0 0 0 0 0 0 0 0 0 0 0 0 0 0 0 0 0 0 0 0 0 0 0 0 0 0 0 0 0 0 0 0 0 0 0 0 0 0 0 0 0 0 0 0 0 0 0 0 0 0 0 0 0 0 0 0 0 0 0 0 0 0 0 0 0 0 0 0 0 0 0 0 0 0 0 0 0 0 0 0 0 0 0 0 0 0 0 0 0 0 0 0 0 0 0 0 0 0 0 0 
