# vtk DataFile Version 2.0
Comment goes here
ASCII

DATASET STRUCTURED_POINTS
FIELD FieldData 1
TIME 1 1 double
0.94000000
DIMENSIONS    128   16   1

ORIGIN    0.000   0.000   0.000
SPACING   0.0078125 0.015625   1.000

POINT_DATA   2048
SCALARS fX double
LOOKUP_TABLE default

0 0 0 0 0 0 0 0 0 0 0 0 0 0 0 0 0 0 0 0 0 0 0 0 0 0 0 0 0 0 0 0 0 0 0 0 0 0 0 0 0 0 0 0 0 0 0 0 0 0 0 0 0 0 0 0 0 0 0 0 0 0 0 0 0 0 0 0 0 0 0 0 0 0 0 0 0 0 0 0 0 0 0 0 0 0 0 0 0 0 0 0 0 0 0 0 0 0 0 0 0 0 0 0 0 0 0 0 0 0 0 0 0 0 0 0 0 0 0 0 0 0 0 0 0 0 0 0 
0 0 0 0 0 0 0 0 0 0 0 0 0 0 0 0 0 0 0 0 0 0 0 0 0 0 0 0 0 0 0 0 0 0 0 0 0 0 0 0 0 0 0 0 0 0 0 0 0 0 0 0 0 0 0 0 0 0 0 0 0 0 0 0 0 0 0 0 0 0 0 0 0 0 0 0 0 0 0 0 0 0 0 0 0 0 0 0 0 0 0 0 0 0 0 0 0 0 0 0 0 0 0 0 0 0 0 0 0 0 0 0 0 0 0 0 0 0 0 0 0 0 0 0 0 0 0 0 
0 0 0 0 0 -1.011796e+00 1.985827e+00 1.568220e+00 3.201499e-01 8.688800e-01 4.540878e-01 7.864089e-01 -1.078582e+00 -3.720953e+00 -4.876610e+00 -4.017415e+00 -5.083553e+00 -4.374166e+00 -4.609506e+00 -4.981731e+00 -3.534315e+00 -7.432899e-01 6.389458e-01 5.908390e-01 6.606696e-01 6.095497e-01 6.799267e-01 6.193757e-01 6.931127e-01 6.246597e-01 7.006441e-01 6.277444e-01 7.029268e-01 6.289020e-01 7.002969e-01 6.285819e-01 6.939729e-01 6.280189e-01 6.861195e-01 6.283503e-01 6.782097e-01 6.298335e-01 6.702058e-01 6.320310e-01 6.614765e-01 6.332843e-01 6.518069e-01 6.334452e-01 6.406234e-01 6.324548e-01 6.269930e-01 6.284129e-01 6.091938e-01 6.136598e-01 5.777705e-01 6.717321e-01 9.546880e-01 6.016614e-01 -2.684555e-01 7.586405e-01 3.938240e-01 2.803523e-01 1.516824e+00 -7.711779e-02 1.461277e+00 2.004211e+00 -3.989225e-01 3.203872e+00 2.668690e+00 -7.638015e-01 1.167030e+00 2.741864e+00 1.991374e+00 9.431577e-01 6.980094e-01 6.924100e-01 7.041409e-01 6.925567e-01 7.033604e-01 6.907981e-01 7.023417e-01 6.902063e-01 7.009710e-01 6.893171e-01 6.997126e-01 6.882710e-01 6.979988e-01 6.868798e-01 6.959653e-01 6.848578e-01 6.949911e-01 6.821289e-01 6.957648e-01 6.797765e-01 6.984080e-01 6.781720e-01 7.027056e-01 6.766839e-01 7.080229e-01 6.746743e-01 7.134869e-01 6.721258e-01 7.180245e-01 6.700176e-01 7.207154e-01 6.692457e-01 7.202870e-01 6.708212e-01 7.150238e-01 6.753319e-01 7.036670e-01 6.838068e-01 6.859666e-01 6.973568e-01 6.629528e-01 7.174119e-01 6.366511e-01 7.463913e-01 6.092896e-01 7.976681e-01 5.773655e-01 1.446255e+00 1.149827e+00 -2.866623e-02 0 0 0 0 
0 0 0 0 0 -2.975555e+00 5.843421e+00 4.615175e+00 9.408928e-01 2.553250e+00 1.333075e+00 2.310716e+00 -3.174137e+00 -1.094640e+01 -1.434525e+01 -1.181780e+01 -1.495395e+01 -1.286728e+01 -1.356024e+01 -1.465578e+01 -1.039832e+01 -2.186938e+00 1.879902e+00 1.738410e+00 1.943900e+00 1.793518e+00 2.000589e+00 1.822432e+00 2.039363e+00 1.837939e+00 2.061469e+00 1.846957e+00 2.068126e+00 1.850309e+00 2.060341e+00 1.849331e+00 2.041706e+00 1.847658e+00 2.018590e+00 1.848633e+00 1.995322e+00 1.853004e+00 1.971780e+00 1.859474e+00 1.946098e+00 1.863155e+00 1.917634e+00 1.863607e+00 1.884703e+00 1.860659e+00 1.844564e+00 1.848728e+00 1.792163e+00 1.805289e+00 1.699691e+00 1.976108e+00 2.779788e+00 1.606878e+00 -1.249940e+00 1.635099e+00 4.449641e-01 -2.704985e-01 3.192350e+00 -1.576745e+00 2.656800e+00 3.721642e+00 -2.756166e+00 7.140991e+00 4.737987e+00 -3.846106e+00 2.634481e+00 7.690085e+00 5.828099e+00 2.774504e+00 2.053342e+00 2.036869e+00 2.071372e+00 2.037293e+00 2.069067e+00 2.032110e+00 2.066058e+00 2.030354e+00 2.062009e+00 2.027719e+00 2.058287e+00 2.024622e+00 2.053226e+00 2.020510e+00 2.047227e+00 2.014546e+00 2.044347e+00 2.006505e+00 2.046613e+00 1.999578e+00 2.054387e+00 1.994863e+00 2.067041e+00 1.990508e+00 2.082715e+00 1.984643e+00 2.098846e+00 1.977219e+00 2.112274e+00 1.971110e+00 2.120283e+00 1.968934e+00 2.119102e+00 1.973631e+00 2.103648e+00 1.986893e+00 2.070187e+00 2.011720e+00 2.017970e+00 2.051383e+00 1.950058e+00 2.110154e+00 1.872535e+00 2.195436e+00 1.792758e+00 2.349126e+00 1.708891e+00 4.266268e+00 3.386109e+00 -8.429388e-02 0 0 0 0 
0 0 0 0 0 -2.055235e+00 4.037722e+00 3.189307e+00 6.495779e-01 1.762573e+00 9.196313e-01 1.595054e+00 -2.193450e+00 -3.864594e+01 -4.860129e+01 -4.370011e+01 -5.085005e+01 -4.716759e+01 -4.661937e+01 -5.248708e+01 -3.448003e+01 -1.511028e+00 1.298872e+00 1.201134e+00 1.343130e+00 1.239238e+00 1.382313e+00 1.259217e+00 1.409092e+00 1.269912e+00 1.424340e+00 1.276115e+00 1.428910e+00 1.278405e+00 1.423508e+00 1.277711e+00 1.410620e+00 1.276547e+00 1.394644e+00 1.277221e+00 1.378569e+00 1.280244e+00 1.362307e+00 1.284717e+00 1.344562e+00 1.287258e+00 1.324890e+00 1.287559e+00 1.302123e+00 1.285506e+00 1.274373e+00 1.277243e+00 1.238152e+00 1.247215e+00 1.174252e+00 1.365219e+00 1.903201e+00 1.093665e+00 -7.949537e-01 1.294668e+00 2.621765e-01 -2.487013e-01 2.075127e+00 -1.345059e+00 1.832129e+00 1.971442e+00 -1.929349e+00 4.810359e+00 2.325511e+00 -2.526173e+00 2.213254e+00 5.420568e+00 4.080754e+00 1.916757e+00 1.418543e+00 1.407161e+00 1.430995e+00 1.407451e+00 1.429399e+00 1.403865e+00 1.427314e+00 1.402645e+00 1.424508e+00 1.400816e+00 1.421927e+00 1.398666e+00 1.418422e+00 1.395817e+00 1.414269e+00 1.391688e+00 1.412273e+00 1.386127e+00 1.413833e+00 1.381338e+00 1.419202e+00 1.378083e+00 1.427951e+00 1.375085e+00 1.438795e+00 1.371056e+00 1.449966e+00 1.365963e+00 1.459282e+00 1.361787e+00 1.464859e+00 1.360329e+00 1.464082e+00 1.363605e+00 1.453420e+00 1.372763e+00 1.430278e+00 1.389864e+00 1.394133e+00 1.417170e+00 1.347112e+00 1.457663e+00 1.293484e+00 1.516596e+00 1.238715e+00 1.624152e+00 1.185644e+00 2.953054e+00 2.341048e+00 -5.821766e-02 0 0 0 0 
0 0 0 0 0 -9.147574e-02 1.801286e-01 1.423521e-01 2.883497e-02 7.820261e-02 4.064411e-02 7.074679e-02 -9.789492e-02 -4.430863e+01 -4.848071e+01 -4.547879e+01 -4.755441e+01 -4.694332e+01 -4.592943e+01 -4.850647e+01 -4.396185e+01 -6.737981e-02 5.791562e-02 5.356329e-02 5.989913e-02 5.526948e-02 6.165007e-02 5.616073e-02 6.284149e-02 5.663280e-02 6.351484e-02 5.690234e-02 6.371133e-02 5.699783e-02 6.346459e-02 5.696234e-02 6.288642e-02 5.690842e-02 6.217294e-02 5.693841e-02 6.145663e-02 5.707412e-02 6.073239e-02 5.727415e-02 5.994129e-02 5.738668e-02 5.906246e-02 5.739749e-02 5.804388e-02 5.730166e-02 5.680218e-02 5.692844e-02 5.518306e-02 5.558556e-02 5.233158e-02 6.084224e-02 7.937172e-02 1.285742e-01 3.298839e-01 6.409832e-01 3.794295e-01 5.501814e-01 7.006786e-01 3.842963e-01 1.012198e+00 6.210452e-01 7.826943e-01 1.337395e+00 7.187241e-01 1.069121e+00 1.145226e+00 6.269128e-01 2.770144e-01 8.541132e-02 6.321014e-02 6.270281e-02 6.376419e-02 6.271484e-02 6.369193e-02 6.255381e-02 6.359749e-02 6.249762e-02 6.347036e-02 6.241378e-02 6.335293e-02 6.231550e-02 6.319437e-02 6.218619e-02 6.300726e-02 6.200022e-02 6.291655e-02 6.175082e-02 6.298484e-02 6.153656e-02 6.322379e-02 6.139206e-02 6.361510e-02 6.126130e-02 6.410232e-02 6.108752e-02 6.460712e-02 6.086956e-02 6.503211e-02 6.069492e-02 6.529200e-02 6.064156e-02 6.526707e-02 6.079516e-02 6.479561e-02 6.120237e-02 6.375799e-02 6.195166e-02 6.212917e-02 6.314419e-02 6.000777e-02 6.492084e-02 5.759958e-02 6.755098e-02 5.524676e-02 7.269409e-02 5.411802e-02 1.330410e-01 1.047664e-01 -2.590007e-03 0 0 0 0 
0 0 0 0 0 0 0 0 0 0 0 0 0 -4.835019e+01 -5.242690e+01 -4.954759e+01 -5.143618e+01 -5.112011e+01 -4.971263e+01 -5.274327e+01 -4.771863e+01 0 0 0 0 0 0 0 0 0 0 0 0 0 0 0 0 0 0 0 0 0 0 0 0 0 0 0 0 0 0 0 0 0 0 0 1.817465e-03 2.850064e-02 1.090260e-01 1.989508e-01 1.621501e-01 2.151975e-01 2.837908e-01 2.045470e-01 3.072427e-01 3.347705e-01 2.723658e-01 3.379953e-01 3.526684e-01 3.956068e-01 3.711386e-01 1.853366e-01 4.070523e-02 0 0 0 0 0 0 0 0 0 0 0 0 0 0 0 0 0 0 0 0 0 0 0 0 0 0 0 0 0 0 0 0 0 0 0 0 0 0 0 0 0 0 0 0 0 0 0 0 0 0 0 0 0 0 0 
0 0 0 0 0 0 0 0 0 0 0 0 0 -4.828141e+01 -5.009228e+01 -4.850874e+01 -4.934419e+01 -4.912293e+01 -4.867227e+01 -4.991215e+01 -4.831556e+01 0 0 0 0 0 0 0 0 0 0 0 0 0 0 0 0 0 0 0 0 0 0 0 0 0 0 0 0 0 0 0 0 0 0 0 1.472826e-03 -1.789019e-03 -3.526434e-02 -4.037663e-02 -8.793530e-03 -5.785726e-02 -4.089554e-02 -3.836802e-02 -1.210367e-01 -5.983021e-02 -1.179076e-01 -1.755840e-01 -1.389987e-01 -1.985777e-01 -1.060357e-01 1.023815e-02 5.314519e-03 0 0 0 0 0 0 0 0 0 0 0 0 0 0 0 0 0 0 0 0 0 0 0 0 0 0 0 0 0 0 0 0 0 0 0 0 0 0 0 0 0 0 0 0 0 0 0 0 0 0 0 0 0 0 0 
0 0 0 0 0 0 0 0 0 0 0 0 0 -5.074972e+01 -5.293339e+01 -5.118156e+01 -5.204698e+01 -5.206087e+01 -5.109272e+01 -5.304313e+01 -5.045775e+01 0 0 0 0 0 0 0 0 0 0 0 0 0 0 0 0 0 0 0 0 0 0 0 0 0 0 0 0 0 0 0 0 0 0 0 9.260897e-04 9.836049e-03 -9.373096e-04 -1.655358e-02 -2.550508e-03 -2.502290e-02 -2.360889e-02 -1.318692e-02 -5.268828e-02 -2.756660e-02 -3.547326e-02 -4.942402e-02 -2.915680e-02 -8.119541e-02 -7.775106e-02 -2.053223e-02 -2.405583e-03 0 0 0 0 0 0 0 0 0 0 0 0 0 0 0 0 0 0 0 0 0 0 0 0 0 0 0 0 0 0 0 0 0 0 0 0 0 0 0 0 0 0 0 0 0 0 0 0 0 0 0 0 0 0 0 
0 0 0 0 0 0 0 0 0 0 0 0 0 -4.828023e+01 -5.009226e+01 -4.850500e+01 -4.934307e+01 -4.911677e+01 -4.866772e+01 -4.990478e+01 -4.830577e+01 0 0 0 0 0 0 0 0 0 0 0 0 0 0 0 0 0 0 0 0 0 0 0 0 0 0 0 0 0 0 0 0 0 0 0 0 0 0 0 0 0 0 0 0 0 0 0 0 0 0 0 0 0 0 0 0 0 0 0 0 0 0 0 0 0 0 0 0 0 0 0 0 0 0 0 0 0 0 0 0 0 0 0 0 0 0 0 0 0 0 0 0 0 0 0 0 0 0 0 0 0 0 0 0 0 0 0 
0 0 0 0 0 0 0 0 0 0 0 0 0 -4.835444e+01 -5.243038e+01 -4.954080e+01 -5.144473e+01 -5.110536e+01 -4.971106e+01 -5.273391e+01 -4.768346e+01 0 0 0 0 0 0 0 0 0 0 0 0 0 0 0 0 0 0 0 0 0 0 0 0 0 0 0 0 0 0 0 0 0 0 0 0 0 0 0 0 0 0 0 0 0 0 0 0 0 0 0 0 0 0 0 0 0 0 0 0 0 0 0 0 0 0 0 0 0 0 0 0 0 0 0 0 0 0 0 0 0 0 0 0 0 0 0 0 0 0 0 0 0 0 0 0 0 0 0 0 0 0 0 0 0 0 0 
0 0 0 0 0 -9.140776e-02 1.801623e-01 1.420093e-01 2.880683e-02 7.793628e-02 4.064561e-02 7.063661e-02 -9.737150e-02 -4.431187e+01 -4.848245e+01 -4.546716e+01 -4.756048e+01 -4.692015e+01 -4.592309e+01 -4.848373e+01 -4.391230e+01 -6.706894e-02 5.871184e-02 5.441769e-02 6.066568e-02 5.595621e-02 6.210867e-02 5.642718e-02 6.282324e-02 5.638739e-02 6.305158e-02 5.629972e-02 6.304908e-02 5.640194e-02 6.296154e-02 5.675022e-02 6.282407e-02 5.728158e-02 6.261621e-02 5.790076e-02 6.233145e-02 5.855730e-02 6.201295e-02 5.925597e-02 6.171411e-02 6.000191e-02 6.145664e-02 6.076090e-02 6.121228e-02 6.148130e-02 6.095351e-02 6.214298e-02 6.071649e-02 6.277701e-02 6.060627e-02 6.346157e-02 6.078939e-02 6.405667e-02 6.049565e-02 6.424723e-02 6.149344e-02 6.408983e-02 6.269483e-02 6.445218e-02 6.305385e-02 6.582943e-02 6.292756e-02 6.599906e-02 6.432182e-02 6.363051e-02 6.344686e-02 6.410140e-02 6.370459e-02 6.327718e-02 6.291227e-02 6.234009e-02 6.235004e-02 6.167949e-02 6.209524e-02 6.135798e-02 6.210612e-02 6.133088e-02 6.229646e-02 6.150320e-02 6.257268e-02 6.178584e-02 6.288823e-02 6.210891e-02 6.323015e-02 6.239962e-02 6.358405e-02 6.257720e-02 6.391339e-02 6.256310e-02 6.419201e-02 6.231894e-02 6.442802e-02 6.187028e-02 6.464795e-02 6.129519e-02 6.485039e-02 6.069313e-02 6.499538e-02 6.018056e-02 6.501536e-02 5.989103e-02 6.482772e-02 5.996105e-02 6.434995e-02 6.051319e-02 6.350532e-02 6.162520e-02 6.224114e-02 6.332691e-02 6.054641e-02 6.561648e-02 5.847716e-02 6.862289e-02 5.626005e-02 7.386497e-02 5.494378e-02 1.339993e-01 1.049209e-01 -2.625596e-03 0 0 0 0 
0 0 0 0 0 -2.053709e+00 4.038448e+00 3.181550e+00 6.489068e-01 1.756585e+00 9.196763e-01 1.592612e+00 -2.181638e+00 -3.869758e+01 -4.860388e+01 -4.367867e+01 -5.092959e+01 -4.708982e+01 -4.670969e+01 -5.250608e+01 -3.429094e+01 -1.504115e+00 1.316678e+00 1.220252e+00 1.360284e+00 1.254605e+00 1.392569e+00 1.265162e+00 1.408656e+00 1.264382e+00 1.413927e+00 1.262586e+00 1.414048e+00 1.265041e+00 1.412232e+00 1.272962e+00 1.409231e+00 1.284923e+00 1.404586e+00 1.298804e+00 1.398182e+00 1.313505e+00 1.391023e+00 1.329166e+00 1.384327e+00 1.345918e+00 1.378585e+00 1.362990e+00 1.373157e+00 1.379215e+00 1.367422e+00 1.394134e+00 1.362182e+00 1.408436e+00 1.359783e+00 1.423866e+00 1.363949e+00 1.437272e+00 1.357394e+00 1.441580e+00 1.379803e+00 1.438072e+00 1.406782e+00 1.446229e+00 1.414868e+00 1.477172e+00 1.412074e+00 1.481025e+00 1.443403e+00 1.427913e+00 1.423804e+00 1.438510e+00 1.429618e+00 1.420041e+00 1.411866e+00 1.399039e+00 1.399277e+00 1.384239e+00 1.393585e+00 1.377046e+00 1.393852e+00 1.376460e+00 1.398151e+00 1.380358e+00 1.404386e+00 1.386744e+00 1.411514e+00 1.394046e+00 1.419240e+00 1.400623e+00 1.427230e+00 1.404654e+00 1.434657e+00 1.404364e+00 1.440923e+00 1.398883e+00 1.446200e+00 1.388768e+00 1.451066e+00 1.375751e+00 1.455470e+00 1.362051e+00 1.458509e+00 1.350294e+00 1.458699e+00 1.343530e+00 1.454263e+00 1.344919e+00 1.443452e+00 1.357324e+00 1.424639e+00 1.382568e+00 1.396677e+00 1.421303e+00 1.359235e+00 1.473311e+00 1.313219e+00 1.540697e+00 1.261507e+00 1.650501e+00 1.204297e+00 2.974672e+00 2.344537e+00 -5.901726e-02 0 0 0 0 
0 0 0 0 0 -2.973347e+00 5.844464e+00 4.603931e+00 9.399113e-01 2.544580e+00 1.333143e+00 2.307189e+00 -3.157023e+00 -1.096359e+01 -1.433680e+01 -1.179861e+01 -1.497337e+01 -1.281986e+01 -1.358345e+01 -1.464400e+01 -1.032953e+01 -2.176948e+00 1.905661e+00 1.766069e+00 1.968718e+00 1.815750e+00 2.015426e+00 1.831029e+00 2.038726e+00 1.829929e+00 2.046392e+00 1.827373e+00 2.046613e+00 1.830967e+00 2.044022e+00 1.842460e+00 2.039699e+00 1.859782e+00 2.032980e+00 1.879870e+00 2.023707e+00 1.901143e+00 2.013341e+00 1.923807e+00 2.003653e+00 1.948058e+00 1.995349e+00 1.972780e+00 1.987507e+00 1.996280e+00 1.979223e+00 2.017893e+00 1.971658e+00 2.038615e+00 1.968205e+00 2.060967e+00 1.974250e+00 2.080385e+00 1.964771e+00 2.086629e+00 1.997212e+00 2.081556e+00 2.036268e+00 2.093371e+00 2.047981e+00 2.138170e+00 2.043946e+00 2.143758e+00 2.089306e+00 2.066889e+00 2.060945e+00 2.082235e+00 2.069368e+00 2.055509e+00 2.043680e+00 2.025116e+00 2.025465e+00 2.003699e+00 2.017231e+00 1.993292e+00 2.017624e+00 1.992451e+00 2.023853e+00 1.998101e+00 2.032888e+00 2.007354e+00 2.043218e+00 2.017938e+00 2.054414e+00 2.027472e+00 2.065992e+00 2.033318e+00 2.076751e+00 2.032906e+00 2.085825e+00 2.024971e+00 2.093459e+00 2.010317e+00 2.100485e+00 1.991448e+00 2.106824e+00 1.971569e+00 2.111169e+00 1.954485e+00 2.111378e+00 1.944627e+00 2.104899e+00 1.946591e+00 2.089228e+00 1.964551e+00 2.062033e+00 2.001165e+00 2.021661e+00 2.057373e+00 1.967614e+00 2.132814e+00 1.901113e+00 2.230334e+00 1.825762e+00 2.387284e+00 1.735922e+00 4.297587e+00 3.391165e+00 -8.545154e-02 0 0 0 0 
0 0 0 0 0 -1.011046e+00 1.986178e+00 1.564390e+00 3.198114e-01 8.659313e-01 4.541123e-01 7.852136e-01 -1.072756e+00 -3.726789e+00 -4.873732e+00 -4.010886e+00 -5.090151e+00 -4.358044e+00 -4.617394e+00 -4.977729e+00 -3.510940e+00 -7.399016e-01 6.476943e-01 6.002348e-01 6.691003e-01 6.171018e-01 6.849660e-01 6.222941e-01 6.928928e-01 6.219341e-01 6.955169e-01 6.210863e-01 6.956137e-01 6.223279e-01 6.947512e-01 6.262476e-01 6.932919e-01 6.321407e-01 6.910105e-01 6.389676e-01 6.878566e-01 6.461948e-01 6.843313e-01 6.538971e-01 6.810391e-01 6.621422e-01 6.782210e-01 6.705508e-01 6.755617e-01 6.785467e-01 6.727546e-01 6.859025e-01 6.701928e-01 6.929555e-01 6.690281e-01 7.005622e-01 6.710902e-01 7.071692e-01 6.678724e-01 7.092959e-01 6.789025e-01 7.075742e-01 6.921812e-01 7.115939e-01 6.961665e-01 7.268269e-01 6.947998e-01 7.287322e-01 7.102242e-01 7.026066e-01 7.005879e-01 7.078272e-01 7.034545e-01 6.987454e-01 6.947259e-01 6.884169e-01 6.885374e-01 6.811395e-01 6.857416e-01 6.776047e-01 6.858782e-01 6.773214e-01 6.879989e-01 6.792458e-01 6.910746e-01 6.823968e-01 6.945921e-01 6.860008e-01 6.984043e-01 6.892484e-01 7.023462e-01 6.912412e-01 7.060081e-01 6.911046e-01 7.090942e-01 6.884069e-01 7.116868e-01 6.834199e-01 7.140668e-01 6.769917e-01 7.162043e-01 6.702109e-01 7.176551e-01 6.643722e-01 7.176945e-01 6.609881e-01 7.154641e-01 6.616336e-01 7.101258e-01 6.677406e-01 7.008989e-01 6.802224e-01 6.872250e-01 6.993970e-01 6.689251e-01 7.251192e-01 6.463707e-01 7.582597e-01 6.205155e-01 8.106482e-01 5.865692e-01 1.456915e+00 1.151549e+00 -2.905988e-02 0 0 0 0 
0 0 0 0 0 0 0 0 0 0 0 0 0 0 0 0 0 0 0 0 0 0 0 0 0 0 0 0 0 0 0 0 0 0 0 0 0 0 0 0 0 0 0 0 0 0 0 0 0 0 0 0 0 0 0 0 0 0 0 0 0 0 0 0 0 0 0 0 0 0 0 0 0 0 0 0 0 0 0 0 0 0 0 0 0 0 0 0 0 0 0 0 0 0 0 0 0 0 0 0 0 0 0 0 0 0 0 0 0 0 0 0 0 0 0 0 0 0 0 0 0 0 0 0 0 0 0 0 
