# vtk DataFile Version 2.0
Comment goes here
ASCII

DATASET STRUCTURED_POINTS
FIELD FieldData 1
TIME 1 1 double
0.16000000
DIMENSIONS    128   16   1

ORIGIN    0.000   0.000   0.000
SPACING   0.0078125 0.015625   1.000

POINT_DATA   2048
SCALARS fX double
LOOKUP_TABLE default

0 0 0 0 0 0 0 0 0 0 0 0 0 0 0 0 0 0 0 0 0 0 0 0 0 0 0 0 0 0 0 0 0 0 0 0 0 0 0 0 0 0 0 0 0 0 0 0 0 0 0 0 0 0 0 0 0 0 0 0 0 0 0 0 0 0 0 0 0 0 0 0 0 0 0 0 0 0 0 0 0 0 0 0 0 0 0 0 0 0 0 0 0 0 0 0 0 0 0 0 0 0 0 0 0 0 0 0 0 0 0 0 0 0 0 0 0 0 0 0 0 0 0 0 0 0 0 0 
0 0 0 0 0 0 0 0 0 0 0 0 0 0 0 0 0 0 0 0 0 0 0 0 0 0 0 0 0 0 0 0 0 0 0 0 0 0 0 0 0 0 0 0 0 0 0 0 0 0 0 0 0 0 0 0 0 0 0 0 0 0 0 0 0 0 0 0 0 0 0 0 0 0 0 0 0 0 0 0 0 0 0 0 0 0 0 0 0 0 0 0 0 0 0 0 0 0 0 0 0 0 0 0 0 0 0 0 0 0 0 0 0 0 0 0 0 0 0 0 0 0 0 0 0 0 0 0 
0 0 0 0 0 1.113260e+00 2.595008e+00 7.116614e-01 8.901045e-01 9.960744e-01 9.149746e-01 8.250230e-01 -7.864537e-01 -4.520805e+00 -5.822284e+00 -4.331495e+00 -4.870359e+00 -4.812137e+00 -4.384259e+00 -5.670814e+00 -4.899403e+00 -2.747625e-01 7.577164e-01 7.355706e-01 3.473877e-01 2.485905e-01 5.115891e-01 1.318628e+00 1.897613e+00 1.644257e+00 6.974367e-01 2.818949e-01 6.127899e-01 1.200508e+00 1.527545e+00 1.407328e+00 1.401737e+00 1.614413e+00 1.721371e+00 1.150105e+00 7.301873e-01 1.071198e+00 1.902442e+00 1.943767e+00 1.371259e+00 9.942049e-01 1.487417e+00 2.204653e+00 2.227819e+00 1.296960e+00 6.937771e-01 8.618280e-01 1.072891e+00 1.143565e+00 1.426939e+00 1.321801e+00 -6.608739e-01 1.332369e-01 1.687568e+00 -1.621108e+00 3.217850e-01 1.278890e+00 -2.633011e+00 3.820078e-01 -5.737003e-01 -1.564608e+00 1.869676e+00 -1.183983e+00 6.080916e-01 6.738038e+00 5.884006e+00 2.374124e+00 9.954879e-01 1.001069e+00 7.925362e-01 9.205946e-01 1.332527e+00 1.365021e+00 7.919655e-01 2.410399e-01 2.288900e-01 1.971454e-01 8.104110e-02 4.304236e-01 8.937157e-01 6.581549e-01 4.286643e-01 6.753877e-01 5.450663e-01 -8.082243e-03 4.200515e-01 1.188899e+00 7.534267e-01 -4.843820e-02 2.364645e-01 3.906122e-01 8.654520e-02 2.618592e-01 4.502181e-01 1.498806e-02 2.180201e-01 5.664861e-01 1.121366e-01 3.615266e-02 5.091666e-01 9.740762e-02 -1.944075e-01 3.810284e-01 2.998631e-01 2.325308e-01 4.321566e-01 5.938909e-01 4.477808e-01 4.197320e-01 -3.639328e-01 -3.965324e-01 -1.958816e-01 2.355925e-01 -9.738319e-03 1.802770e-01 7.157982e-02 1.213331e+00 2.264653e+00 2.963387e-01 0 0 0 0 
0 0 0 0 0 3.273208e+00 7.624837e+00 2.083869e+00 2.614816e+00 2.928880e+00 2.689817e+00 2.424606e+00 -2.315535e+00 -1.330024e+01 -1.712791e+01 -1.274307e+01 -1.432824e+01 -1.415762e+01 -1.289920e+01 -1.668493e+01 -1.441535e+01 -8.083813e-01 2.229583e+00 2.164357e+00 1.022080e+00 7.313564e-01 1.505189e+00 3.879660e+00 5.583197e+00 4.837877e+00 2.052109e+00 8.294943e-01 1.803112e+00 3.532357e+00 4.494579e+00 4.140855e+00 4.124381e+00 4.750026e+00 5.064638e+00 3.383792e+00 2.148348e+00 3.151719e+00 5.597378e+00 5.718939e+00 4.034505e+00 2.925105e+00 4.376200e+00 6.486452e+00 6.554637e+00 3.815869e+00 2.041142e+00 2.535500e+00 3.156439e+00 3.364364e+00 4.198095e+00 3.888737e+00 -2.029579e+00 1.268808e-01 5.943494e+00 -2.906095e+00 2.095037e+00 4.946371e+00 -5.767247e+00 2.757309e+00 1.127182e-01 -1.345860e+00 7.792318e+00 3.897674e-01 6.778184e+00 2.199117e+01 1.839294e+01 7.488167e+00 2.961183e+00 2.944969e+00 2.331489e+00 2.708185e+00 3.919971e+00 4.015576e+00 2.329810e+00 7.090974e-01 6.733388e-01 5.799517e-01 2.384159e-01 1.266207e+00 2.629056e+00 1.936089e+00 1.261005e+00 1.986802e+00 1.603445e+00 -2.374921e-02 1.235653e+00 3.497291e+00 2.216300e+00 -1.424199e-01 6.956867e-01 1.149131e+00 2.546656e-01 7.703440e-01 1.324463e+00 4.429489e-02 6.415360e-01 1.666513e+00 3.299562e-01 1.064209e-01 1.497830e+00 2.866288e-01 -5.718121e-01 1.120809e+00 8.820234e-01 6.839394e-01 1.271108e+00 1.746897e+00 1.317233e+00 1.234920e+00 -1.069876e+00 -1.165581e+00 -5.751467e-01 6.942756e-01 -2.686864e-02 5.327216e-01 2.136208e-01 3.571111e+00 6.661822e+00 8.716917e-01 0 0 0 0 
0 0 0 0 0 2.260468e+00 5.263261e+00 1.434965e+00 1.804684e+00 2.022783e+00 1.857389e+00 1.673879e+00 -1.600655e+00 -4.844805e+01 -6.662051e+01 -5.327044e+01 -5.623883e+01 -5.747891e+01 -5.059931e+01 -6.587534e+01 -4.868758e+01 -5.585200e-01 1.540589e+00 1.495490e+00 7.061796e-01 5.052908e-01 1.039970e+00 2.680556e+00 3.857597e+00 3.342687e+00 1.417910e+00 5.731695e-01 1.245896e+00 2.440706e+00 3.105537e+00 2.861130e+00 2.849736e+00 3.281966e+00 3.499301e+00 2.337929e+00 1.484345e+00 2.177626e+00 3.867382e+00 3.951360e+00 2.787540e+00 2.021010e+00 3.023594e+00 4.481623e+00 4.528747e+00 2.636462e+00 1.410236e+00 1.751761e+00 2.180760e+00 2.324415e+00 2.900456e+00 2.686702e+00 -1.415577e+00 2.127542e-01 5.016711e+00 -6.333482e-01 2.584485e+00 4.472663e+00 -2.353354e+00 3.405825e+00 1.530578e+00 1.664296e+00 7.257706e+00 3.037547e+00 8.293054e+00 1.684628e+01 1.349694e+01 5.520367e+00 2.071924e+00 2.034574e+00 1.610737e+00 1.870968e+00 2.708124e+00 2.774182e+00 1.609577e+00 4.898904e-01 4.651784e-01 4.006606e-01 1.647166e-01 8.747657e-01 1.816274e+00 1.337533e+00 8.711587e-01 1.372577e+00 1.107741e+00 -1.639424e-02 8.536375e-01 2.416038e+00 1.531091e+00 -9.835560e-02 4.806494e-01 7.939034e-01 1.759708e-01 5.322035e-01 9.150242e-01 3.069996e-02 4.432916e-01 1.151339e+00 2.279889e-01 7.355449e-02 1.034774e+00 1.980569e-01 -3.949959e-01 7.742744e-01 6.092999e-01 4.724487e-01 8.780563e-01 1.206760e+00 9.100012e-01 8.532316e-01 -7.387755e-01 -8.047990e-01 -3.968141e-01 4.802337e-01 -1.770023e-02 3.691907e-01 1.490586e-01 2.467980e+00 4.602227e+00 6.021798e-01 0 0 0 0 
0 0 0 0 0 1.005195e-01 2.334324e-01 6.275694e-02 7.997188e-02 8.997729e-02 8.254685e-02 7.429595e-02 -7.157298e-02 -5.379584e+01 -5.856845e+01 -5.495286e+01 -5.646121e+01 -5.663907e+01 -5.465960e+01 -5.850192e+01 -5.398230e+01 -2.490109e-02 6.872247e-02 6.670305e-02 3.148766e-02 2.252493e-02 4.637073e-02 1.195239e-01 1.720133e-01 1.490666e-01 6.323754e-02 2.557005e-02 5.557380e-02 1.088572e-01 1.385034e-01 1.276029e-01 1.270919e-01 1.463536e-01 1.560346e-01 1.042413e-01 6.618510e-02 9.710442e-02 1.724464e-01 1.761878e-01 1.242935e-01 9.011041e-02 1.348111e-01 1.998239e-01 2.019284e-01 1.175530e-01 6.287089e-02 7.808916e-02 9.721192e-02 1.036160e-01 1.292999e-01 1.197662e-01 -2.320627e-02 3.900293e-01 9.327020e-01 7.407065e-01 1.000076e+00 9.065620e-01 8.750320e-01 1.174203e+00 8.799570e-01 1.546966e+00 1.395490e+00 1.454877e+00 2.151826e+00 1.579466e+00 9.845546e-01 4.248872e-01 1.084458e-01 9.067431e-02 7.178376e-02 8.337771e-02 1.206812e-01 1.236270e-01 7.173201e-02 2.183289e-02 2.072963e-02 1.785426e-02 7.341782e-03 3.898256e-02 8.093339e-02 5.959883e-02 3.881851e-02 6.116267e-02 4.936299e-02 -7.272749e-04 3.803592e-02 1.076455e-01 6.821744e-02 -4.373940e-03 2.142712e-02 3.538407e-02 7.850430e-03 2.371864e-02 4.077969e-02 1.393132e-03 1.977568e-02 5.131275e-02 1.016935e-02 3.286227e-03 4.611062e-02 8.835710e-03 -1.759132e-02 3.449346e-02 2.713962e-02 2.104010e-02 3.910498e-02 5.375367e-02 4.054857e-02 3.804333e-02 -3.283251e-02 -3.575070e-02 -1.754907e-02 2.155055e-02 -5.699020e-04 1.674621e-02 7.017682e-03 1.101995e-01 2.050585e-01 2.682679e-02 0 0 0 0 
0 0 0 0 0 0 0 0 0 0 0 0 0 -5.891672e+01 -6.410366e+01 -6.026298e+01 -6.174022e+01 -6.216071e+01 -5.969091e+01 -6.418751e+01 -5.865740e+01 0 0 0 0 0 0 0 0 0 0 0 0 0 0 0 0 0 0 0 0 0 0 0 0 0 0 0 0 0 0 0 0 0 0 0 2.494411e-02 1.846176e-01 1.773933e-01 8.113140e-02 2.010682e-01 9.815131e-02 9.060348e-02 1.581643e-01 3.458404e-02 1.146478e-01 7.382328e-02 -7.395158e-04 4.939586e-02 -2.448626e-03 -2.896836e-03 1.743896e-02 2.047751e-03 0 0 0 0 0 0 0 0 0 0 0 0 0 0 0 0 0 0 0 0 0 0 0 0 0 0 0 0 0 0 0 0 0 0 0 0 0 0 0 0 0 0 0 0 0 0 0 0 0 0 0 0 0 0 0 
0 0 0 0 0 0 0 0 0 0 0 0 0 -5.789414e+01 -5.987037e+01 -5.814949e+01 -5.888411e+01 -5.884985e+01 -5.813975e+01 -5.976314e+01 -5.791425e+01 0 0 0 0 0 0 0 0 0 0 0 0 0 0 0 0 0 0 0 0 0 0 0 0 0 0 0 0 0 0 0 0 0 0 0 1.883609e-03 2.057374e-02 1.484784e-02 -2.364536e-03 1.870679e-02 1.765697e-03 1.841358e-04 1.870779e-02 7.663089e-04 1.469104e-02 1.442715e-02 8.671387e-03 2.131099e-02 1.175940e-02 1.056697e-03 -7.277746e-04 -1.067826e-04 0 0 0 0 0 0 0 0 0 0 0 0 0 0 0 0 0 0 0 0 0 0 0 0 0 0 0 0 0 0 0 0 0 0 0 0 0 0 0 0 0 0 0 0 0 0 0 0 0 0 0 0 0 0 0 
0 0 0 0 0 0 0 0 0 0 0 0 0 -6.144989e+01 -6.405508e+01 -6.199144e+01 -6.276182e+01 -6.304754e+01 -6.161147e+01 -6.419846e+01 -6.107308e+01 0 0 0 0 0 0 0 0 0 0 0 0 0 0 0 0 0 0 0 0 0 0 0 0 0 0 0 0 0 0 0 0 0 0 0 6.051404e-04 6.875128e-03 9.371382e-03 5.572340e-03 6.481127e-03 4.993378e-03 3.730588e-03 4.222070e-03 1.979895e-03 1.461735e-03 1.029893e-03 4.907847e-04 7.795070e-04 5.256641e-04 4.982561e-04 3.971428e-04 6.245559e-05 0 0 0 0 0 0 0 0 0 0 0 0 0 0 0 0 0 0 0 0 0 0 0 0 0 0 0 0 0 0 0 0 0 0 0 0 0 0 0 0 0 0 0 0 0 0 0 0 0 0 0 0 0 0 0 
0 0 0 0 0 0 0 0 0 0 0 0 0 -5.783027e+01 -5.984812e+01 -5.806369e+01 -5.883371e+01 -5.870095e+01 -5.803614e+01 -5.954258e+01 -5.773384e+01 0 0 0 0 0 0 0 0 0 0 0 0 0 0 0 0 0 0 0 0 0 0 0 0 0 0 0 0 0 0 0 0 0 0 0 0 0 0 0 0 0 0 0 0 0 0 0 0 0 0 0 0 0 0 0 0 0 0 0 0 0 0 0 0 0 0 0 0 0 0 0 0 0 0 0 0 0 0 0 0 0 0 0 0 0 0 0 0 0 0 0 0 0 0 0 0 0 0 0 0 0 0 0 0 0 0 0 
0 0 0 0 0 0 0 0 0 0 0 0 0 -5.880544e+01 -6.407903e+01 -6.016740e+01 -6.171707e+01 -6.206050e+01 -5.959038e+01 -6.387004e+01 -5.830807e+01 0 0 0 0 0 0 0 0 0 0 0 0 0 0 0 0 0 0 0 0 0 0 0 0 0 0 0 0 0 0 0 0 0 0 0 0 0 0 0 0 0 0 0 0 0 0 0 0 0 0 0 0 0 0 0 0 0 0 0 0 0 0 0 0 0 0 0 0 0 0 0 0 0 0 0 0 0 0 0 0 0 0 0 0 0 0 0 0 0 0 0 0 0 0 0 0 0 0 0 0 0 0 0 0 0 0 0 
0 0 0 0 0 1.006806e-01 2.369567e-01 6.712982e-02 7.222449e-02 7.059560e-02 6.418462e-02 6.654323e-02 -6.970260e-02 -5.372079e+01 -5.867085e+01 -5.486423e+01 -5.641896e+01 -5.623879e+01 -5.445619e+01 -5.768715e+01 -5.338110e+01 -1.043373e-02 4.788973e-02 4.986509e-02 5.988050e-02 9.102638e-02 1.017645e-01 1.125345e-01 1.210459e-01 1.516298e-01 1.661350e-01 1.514160e-01 1.127860e-01 8.217080e-02 8.735782e-02 1.133574e-01 1.354623e-01 1.335329e-01 1.297677e-01 1.138597e-01 8.729570e-02 4.115885e-02 2.876470e-02 5.651585e-02 1.120594e-01 1.342199e-01 1.240169e-01 9.537920e-02 9.656858e-02 1.027683e-01 9.367265e-02 7.652957e-02 8.131175e-02 1.009139e-01 1.238292e-01 1.464703e-01 1.671165e-01 1.736800e-01 1.400201e-01 8.114259e-02 5.900772e-02 9.476561e-02 1.361919e-01 1.477338e-01 1.257408e-01 9.205629e-02 6.030900e-02 4.535890e-02 5.743600e-02 8.392188e-02 9.792458e-02 9.986149e-02 9.567982e-02 9.384348e-02 9.387249e-02 9.096145e-02 7.704826e-02 5.871768e-02 5.701662e-02 7.851122e-02 1.035726e-01 1.184070e-01 1.219694e-01 1.104152e-01 8.375431e-02 5.353984e-02 3.774342e-02 2.683447e-02 1.878288e-02 1.999055e-02 2.823091e-02 1.674845e-02 1.572241e-02 4.179537e-02 7.124759e-02 6.781448e-02 6.395192e-02 5.155589e-02 3.213914e-02 2.153390e-02 3.606144e-02 3.789499e-02 4.568208e-02 6.210581e-02 6.062192e-02 5.173617e-02 4.899096e-02 4.538763e-02 3.045869e-02 4.379217e-02 3.169304e-02 2.367361e-02 1.733382e-03 6.544781e-03 -3.042753e-03 2.491828e-02 8.860220e-03 2.840725e-02 1.771711e-02 5.360221e-02 2.918817e-02 1.042970e-01 1.998963e-01 2.665825e-02 0 0 0 0 
0 0 0 0 0 2.264065e+00 5.342225e+00 1.532864e+00 1.630459e+00 1.587449e+00 1.444945e+00 1.499588e+00 -1.558722e+00 -4.795743e+01 -6.631768e+01 -5.324394e+01 -5.674070e+01 -5.843009e+01 -5.133098e+01 -6.576905e+01 -4.755046e+01 -2.343859e-01 1.073464e+00 1.118072e+00 1.342828e+00 2.041356e+00 2.282125e+00 2.523414e+00 2.714198e+00 3.399900e+00 3.725130e+00 3.395010e+00 2.528760e+00 1.842403e+00 1.958802e+00 2.542160e+00 3.038025e+00 2.994616e+00 2.910062e+00 2.553140e+00 1.957390e+00 9.228994e-01 6.450110e-01 1.267495e+00 2.513373e+00 3.010581e+00 2.781797e+00 2.139444e+00 2.166063e+00 2.305052e+00 2.100946e+00 1.716417e+00 1.823709e+00 2.263454e+00 2.777588e+00 3.285704e+00 3.749116e+00 3.896527e+00 3.141430e+00 1.820408e+00 1.323720e+00 2.125873e+00 3.055188e+00 3.314160e+00 2.820887e+00 2.065271e+00 1.353115e+00 1.017756e+00 1.288804e+00 1.883113e+00 2.197257e+00 2.240570e+00 2.146641e+00 2.105413e+00 2.106145e+00 2.040952e+00 1.728877e+00 1.317640e+00 1.279492e+00 1.761829e+00 2.324280e+00 2.657216e+00 2.737175e+00 2.477885e+00 1.879519e+00 1.201495e+00 8.470220e-01 6.022405e-01 4.215650e-01 4.486692e-01 6.335770e-01 3.758289e-01 3.527812e-01 9.379910e-01 1.598964e+00 1.521828e+00 1.435010e+00 1.156736e+00 7.210027e-01 4.829160e-01 8.090684e-01 8.502139e-01 1.024990e+00 1.393763e+00 1.360537e+00 1.161144e+00 1.099646e+00 1.018829e+00 6.838373e-01 9.831419e-01 7.114987e-01 5.313558e-01 3.846290e-02 1.461556e-01 -6.962907e-02 5.574091e-01 1.961217e-01 6.339497e-01 3.927632e-01 1.196524e+00 6.464988e-01 2.335654e+00 4.486573e+00 5.984238e-01 0 0 0 0 
0 0 0 0 0 3.278411e+00 7.739104e+00 2.225518e+00 2.362535e+00 2.298638e+00 2.092712e+00 2.172241e+00 -2.254848e+00 -1.326035e+01 -1.751280e+01 -1.367100e+01 -1.524047e+01 -1.460321e+01 -1.273808e+01 -1.578048e+01 -1.311356e+01 -3.393336e-01 1.553520e+00 1.618160e+00 1.943493e+00 2.954502e+00 3.302962e+00 3.652124e+00 3.928226e+00 4.920614e+00 5.391312e+00 4.913514e+00 3.659787e+00 2.666462e+00 2.834948e+00 3.679329e+00 4.397042e+00 4.334180e+00 4.211773e+00 3.695149e+00 2.832900e+00 1.335701e+00 9.335226e-01 1.834493e+00 3.637747e+00 4.357428e+00 4.026310e+00 3.096586e+00 3.135100e+00 3.336249e+00 3.040809e+00 2.484252e+00 2.639551e+00 3.276041e+00 4.020219e+00 4.755720e+00 5.426530e+00 5.639936e+00 4.547005e+00 2.634898e+00 1.915956e+00 3.076993e+00 4.422086e+00 4.796935e+00 4.082997e+00 2.989322e+00 1.958554e+00 1.473159e+00 1.865506e+00 2.725748e+00 3.180446e+00 3.243102e+00 3.107118e+00 3.047437e+00 3.048516e+00 2.954184e+00 2.502496e+00 1.907264e+00 1.852051e+00 2.550226e+00 3.364382e+00 3.846314e+00 3.962057e+00 3.586736e+00 2.720587e+00 1.739157e+00 1.226064e+00 8.717513e-01 6.102273e-01 6.494612e-01 9.171103e-01 5.440039e-01 5.106369e-01 1.357751e+00 2.314513e+00 2.202836e+00 2.077133e+00 1.674310e+00 1.043588e+00 6.989348e-01 1.171074e+00 1.230631e+00 1.483625e+00 2.017474e+00 1.969399e+00 1.680781e+00 1.591791e+00 1.474821e+00 9.899295e-01 1.423193e+00 1.029959e+00 7.691585e-01 5.556403e-02 2.113774e-01 -1.011297e-01 8.063931e-01 2.831962e-01 9.167392e-01 5.672959e-01 1.730343e+00 9.336397e-01 3.379604e+00 6.494462e+00 8.662615e-01 0 0 0 0 
0 0 0 0 0 1.115026e+00 2.633836e+00 7.597840e-01 8.043001e-01 7.817846e-01 7.119510e-01 7.391969e-01 -7.658291e-01 -4.507246e+00 -5.953145e+00 -4.646937e+00 -5.180451e+00 -4.963613e+00 -4.329498e+00 -5.363405e+00 -4.456982e+00 -1.153814e-01 5.279457e-01 5.499532e-01 6.605457e-01 1.004172e+00 1.122601e+00 1.241244e+00 1.335074e+00 1.672344e+00 1.832317e+00 1.669920e+00 1.243812e+00 9.062297e-01 9.635036e-01 1.250527e+00 1.494479e+00 1.473097e+00 1.431479e+00 1.255868e+00 9.628052e-01 4.539605e-01 3.172763e-01 6.235138e-01 1.236433e+00 1.481067e+00 1.368530e+00 1.052522e+00 1.065605e+00 1.133966e+00 1.033536e+00 8.443646e-01 8.971532e-01 1.113501e+00 1.366460e+00 1.616487e+00 1.844530e+00 1.917089e+00 1.545595e+00 8.956323e-01 6.512434e-01 1.045886e+00 1.503090e+00 1.630509e+00 1.387850e+00 1.016108e+00 6.657479e-01 5.007617e-01 6.341375e-01 9.265568e-01 1.081114e+00 1.102394e+00 1.056157e+00 1.035867e+00 1.036244e+00 1.004194e+00 8.506675e-01 6.483414e-01 6.295759e-01 8.669074e-01 1.143674e+00 1.307504e+00 1.346852e+00 1.219266e+00 9.248230e-01 5.912024e-01 4.167855e-01 2.963452e-01 2.074452e-01 2.207825e-01 3.117643e-01 1.849235e-01 1.735781e-01 4.615554e-01 7.867973e-01 7.488229e-01 7.060747e-01 5.691292e-01 3.547240e-01 2.375527e-01 3.980667e-01 4.183122e-01 5.043170e-01 6.858168e-01 6.694836e-01 5.713736e-01 5.411361e-01 5.013794e-01 3.365509e-01 4.838435e-01 3.501538e-01 2.614762e-01 1.883451e-02 7.176657e-02 -3.454340e-02 2.739023e-01 9.593475e-02 3.111967e-01 1.922498e-01 5.874218e-01 3.163291e-01 1.148247e+00 2.207785e+00 2.944960e-01 0 0 0 0 
0 0 0 0 0 0 0 0 0 0 0 0 0 0 0 0 0 0 0 0 0 0 0 0 0 0 0 0 0 0 0 0 0 0 0 0 0 0 0 0 0 0 0 0 0 0 0 0 0 0 0 0 0 0 0 0 0 0 0 0 0 0 0 0 0 0 0 0 0 0 0 0 0 0 0 0 0 0 0 0 0 0 0 0 0 0 0 0 0 0 0 0 0 0 0 0 0 0 0 0 0 0 0 0 0 0 0 0 0 0 0 0 0 0 0 0 0 0 0 0 0 0 0 0 0 0 0 0 
