# vtk DataFile Version 2.0
Comment goes here
ASCII

DATASET STRUCTURED_POINTS
FIELD FieldData 1
TIME 1 1 double
0.05000000
DIMENSIONS    128   16   1

ORIGIN    0.000   0.000   0.000
SPACING   0.0078125 0.015625   1.000

POINT_DATA   2048
SCALARS fY double
LOOKUP_TABLE default

0 0 0 0 0 0 0 0 0 0 0 0 0 0 0 0 0 0 0 0 0 0 0 0 0 0 0 0 0 0 0 0 0 0 0 0 0 0 0 0 0 0 0 0 0 0 0 0 0 0 0 0 0 0 0 0 0 0 0 0 0 0 0 0 0 0 0 0 0 0 0 0 0 0 0 0 0 0 0 0 0 0 0 0 0 0 0 0 0 0 0 0 0 0 0 0 0 0 0 0 0 0 0 0 0 0 0 0 0 0 0 0 0 0 0 0 0 0 0 0 0 0 0 0 0 0 0 0 
0 0 0 0 0 0 0 0 0 0 0 0 0 0 0 0 0 0 0 0 0 0 0 0 0 0 0 0 0 0 0 0 0 0 0 0 0 0 0 0 0 0 0 0 0 0 0 0 0 0 0 0 0 0 0 0 0 0 0 0 0 0 0 0 0 0 0 0 0 0 0 0 0 0 0 0 0 0 0 0 0 0 0 0 0 0 0 0 0 0 0 0 0 0 0 0 0 0 0 0 0 0 0 0 0 0 0 0 0 0 0 0 0 0 0 0 0 0 0 0 0 0 0 0 0 0 0 0 
0 0 0 0 0 1.026470e+00 1.482703e+00 1.239221e+00 1.258984e+00 9.269893e-01 2.660884e+00 1.941722e+00 5.060084e+00 3.151217e+00 -3.631831e+00 -8.945437e+00 -1.522592e+01 -2.002272e+01 -2.429175e+01 -2.755387e+01 -3.494819e+01 -3.688812e+01 -3.653852e+01 -3.631999e+01 -3.602655e+01 -3.705713e+01 -3.714489e+01 -3.686672e+01 -3.434757e+01 -3.243772e+01 -3.238854e+01 -3.435524e+01 -3.608401e+01 -3.735089e+01 -3.653508e+01 -3.565361e+01 -3.402031e+01 -3.278322e+01 -3.335123e+01 -3.291875e+01 -3.339806e+01 -3.209818e+01 -3.094488e+01 -2.916947e+01 -2.704193e+01 -2.474970e+01 -2.389373e+01 -2.501497e+01 -2.469917e+01 -2.443056e+01 -2.556959e+01 -2.760505e+01 -2.917454e+01 -2.915272e+01 -2.750193e+01 -2.533437e+01 -2.246276e+01 -1.803689e+01 -1.749052e+01 -2.188031e+01 -2.617268e+01 -2.829762e+01 -2.772497e+01 -3.023937e+01 -3.485801e+01 -2.895070e+01 -1.857461e+01 -2.177255e+01 -2.931892e+01 -2.277410e+01 -1.588640e+01 -2.431042e+01 -3.363404e+01 -3.049115e+01 -2.590870e+01 -2.624247e+01 -2.361581e+01 -1.956142e+01 -2.018609e+01 -2.130417e+01 -1.647824e+01 -1.105843e+01 -1.011064e+01 -1.644392e+01 -2.019511e+01 -1.608302e+01 -1.133599e+01 -6.900011e+00 -5.699660e+00 -1.132430e+01 -1.643973e+01 -1.265577e+01 -1.108277e+01 -1.199830e+01 -1.310555e+01 -1.803219e+01 -1.804101e+01 -1.395686e+01 -1.197480e+01 -7.376685e+00 -5.823504e+00 -1.047544e+01 -9.823265e+00 -8.396637e+00 -7.928160e+00 -3.332840e+00 -1.622415e+00 -2.497469e+00 -3.463617e+00 -7.234140e+00 -7.173277e+00 -7.211744e+00 -1.012307e+01 -9.114349e+00 -9.348701e+00 -8.177272e+00 -4.419040e+00 -6.113285e+00 -4.158090e+00 -6.798437e+00 -5.958152e+00 -2.530829e+00 -3.923884e+00 -3.618780e-01 0 0 0 0 
0 0 0 0 0 3.018260e+00 4.354158e+00 3.635296e+00 3.698631e+00 2.725066e+00 7.824318e+00 5.707447e+00 1.487545e+01 9.259786e+00 -1.068772e+01 -2.631878e+01 -4.479431e+01 -5.890863e+01 -7.147025e+01 -8.107136e+01 -1.028362e+02 -1.085457e+02 -1.075166e+02 -1.068732e+02 -1.060093e+02 -1.090428e+02 -1.093010e+02 -1.084821e+02 -1.010665e+02 -9.544448e+01 -9.529980e+01 -1.010892e+02 -1.061781e+02 -1.099079e+02 -1.075066e+02 -1.049119e+02 -1.001043e+02 -9.646245e+01 -9.813399e+01 -9.686064e+01 -9.827140e+01 -9.444512e+01 -9.105041e+01 -8.582490e+01 -7.956302e+01 -7.281702e+01 -7.029781e+01 -7.359742e+01 -7.266795e+01 -7.187741e+01 -7.522965e+01 -8.122024e+01 -8.583957e+01 -8.577536e+01 -8.091676e+01 -7.453740e+01 -6.650605e+01 -5.491030e+01 -5.266819e+01 -6.477209e+01 -7.786415e+01 -8.199479e+01 -7.939464e+01 -8.667864e+01 -9.831094e+01 -7.899237e+01 -4.779556e+01 -5.728593e+01 -7.984301e+01 -6.124613e+01 -4.156845e+01 -6.895991e+01 -9.875073e+01 -8.971675e+01 -7.622829e+01 -7.721013e+01 -6.948015e+01 -5.754888e+01 -5.938712e+01 -6.267744e+01 -4.847729e+01 -3.253035e+01 -2.974250e+01 -4.837800e+01 -5.941465e+01 -4.731404e+01 -3.334706e+01 -2.029671e+01 -1.676566e+01 -3.331393e+01 -4.836416e+01 -3.723119e+01 -3.260274e+01 -3.529595e+01 -3.855383e+01 -5.304942e+01 -5.307515e+01 -4.105798e+01 -3.522659e+01 -2.170035e+01 -1.713112e+01 -3.081580e+01 -2.889674e+01 -2.469948e+01 -2.332155e+01 -9.803994e+00 -4.772369e+00 -7.346104e+00 -1.018830e+01 -2.128015e+01 -2.110110e+01 -2.121434e+01 -2.977866e+01 -2.681088e+01 -2.750035e+01 -2.405499e+01 -1.300045e+01 -1.798714e+01 -1.224170e+01 -2.001780e+01 -1.755231e+01 -7.460653e+00 -1.154521e+01 -1.064560e+00 0 0 0 0 
0 0 0 0 0 2.084513e+00 3.004405e+00 2.506519e+00 2.552793e+00 1.881695e+00 5.403830e+00 3.940768e+00 1.027187e+01 8.503205e+00 -1.286236e+01 -1.246456e+01 -3.314670e+01 -3.188288e+01 -5.742054e+01 -5.823931e+01 -8.320126e+01 -7.500367e+01 -7.429230e+01 -7.384764e+01 -7.325039e+01 -7.534699e+01 -7.552537e+01 -7.495941e+01 -6.983386e+01 -6.594811e+01 -6.584817e+01 -6.984962e+01 -7.336698e+01 -7.594511e+01 -7.428552e+01 -7.249209e+01 -6.916941e+01 -6.665215e+01 -6.780724e+01 -6.692701e+01 -6.790199e+01 -6.525746e+01 -6.291125e+01 -5.929989e+01 -5.497231e+01 -5.031044e+01 -4.856949e+01 -5.084962e+01 -5.020725e+01 -4.966095e+01 -5.197757e+01 -5.611753e+01 -5.930992e+01 -5.926554e+01 -5.590780e+01 -5.149919e+01 -4.592155e+01 -3.682129e+01 -3.305883e+01 -4.113897e+01 -5.016796e+01 -5.092648e+01 -4.666446e+01 -5.065403e+01 -5.881748e+01 -4.424226e+01 -2.277150e+01 -3.074382e+01 -4.695346e+01 -3.470280e+01 -2.292874e+01 -4.539946e+01 -6.805328e+01 -6.199042e+01 -5.266800e+01 -5.334630e+01 -4.800455e+01 -3.975975e+01 -4.103000e+01 -4.330370e+01 -3.349182e+01 -2.247328e+01 -2.054744e+01 -3.342404e+01 -4.104950e+01 -3.268789e+01 -2.303760e+01 -1.402135e+01 -1.158196e+01 -2.301532e+01 -3.341374e+01 -2.572178e+01 -2.252368e+01 -2.438427e+01 -2.663528e+01 -3.665087e+01 -3.666854e+01 -2.836519e+01 -2.433623e+01 -1.499173e+01 -1.183499e+01 -2.128901e+01 -1.996296e+01 -1.706305e+01 -1.611121e+01 -6.772923e+00 -3.296823e+00 -5.074672e+00 -7.038223e+00 -1.470102e+01 -1.457731e+01 -1.465558e+01 -2.057223e+01 -1.852175e+01 -1.899811e+01 -1.661820e+01 -8.981751e+00 -1.242809e+01 -8.461874e+00 -1.383831e+01 -1.213812e+01 -5.161761e+00 -7.977060e+00 -7.354558e-01 0 0 0 0 
0 0 0 0 0 9.272358e-02 1.329501e-01 1.104437e-01 1.131451e-01 8.361830e-02 2.403963e-01 1.750422e-01 4.565021e-01 2.578213e+00 -4.616506e+00 3.316713e+00 -5.761892e+00 3.300798e+00 -1.126852e+01 -2.447977e+00 -1.030120e+01 -3.346045e+00 -3.314250e+00 -3.294380e+00 -3.267673e+00 -3.361327e+00 -3.369277e+00 -3.343989e+00 -3.114973e+00 -2.941360e+00 -2.936907e+00 -3.115694e+00 -3.272849e+00 -3.388096e+00 -3.313973e+00 -3.233842e+00 -3.085430e+00 -2.972930e+00 -3.024478e+00 -2.985119e+00 -3.028657e+00 -2.910521e+00 -2.805723e+00 -2.644462e+00 -2.451222e+00 -2.243128e+00 -2.165407e+00 -2.267162e+00 -2.238478e+00 -2.214091e+00 -2.317508e+00 -2.502337e+00 -2.644878e+00 -2.642897e+00 -2.492974e+00 -2.296155e+00 -1.721710e+00 1.116983e+00 2.058291e+00 8.026930e-01 3.220303e+00 2.818338e+00 4.268289e+00 7.050996e+00 4.740277e+00 5.260635e+00 5.690406e+00 3.603518e+00 2.397687e+00 2.858639e+00 1.690695e+00 -1.510581e+00 -3.050539e+00 -2.764825e+00 -2.348407e+00 -2.378630e+00 -2.140217e+00 -1.772287e+00 -1.828968e+00 -1.930436e+00 -1.492771e+00 -1.001364e+00 -9.155813e-01 -1.489957e+00 -1.829960e+00 -1.456871e+00 -1.026536e+00 -6.246511e-01 -5.159569e-01 -1.025697e+00 -1.489311e+00 -1.146355e+00 -1.003708e+00 -1.086614e+00 -1.187001e+00 -1.633644e+00 -1.634404e+00 -1.264067e+00 -1.084443e+00 -6.680646e-01 -5.273729e-01 -9.486479e-01 -8.894905e-01 -7.602053e-01 -7.178151e-01 -3.017691e-01 -1.468685e-01 -2.260373e-01 -3.135413e-01 -6.550031e-01 -6.494891e-01 -6.529864e-01 -9.166378e-01 -8.252173e-01 -8.464527e-01 -7.404831e-01 -4.003385e-01 -5.542405e-01 -3.782661e-01 -6.189432e-01 -5.439671e-01 -2.319368e-01 -3.557368e-01 -3.277421e-02 0 0 0 0 
0 0 0 0 0 0 0 0 0 0 0 0 0 1.689790e+00 -1.099262e+00 1.741104e+00 -1.595927e+00 1.434458e+00 -2.332992e+00 -4.812064e-01 -2.163156e+00 0 0 0 0 0 0 0 0 0 0 0 0 0 0 0 0 0 0 0 0 0 0 0 0 0 0 0 0 0 0 0 0 0 0 0 1.067956e-01 5.055175e-01 -1.948574e+00 -3.058449e+00 1.332800e+00 -9.651531e-01 -3.328146e+00 -4.015834e-01 -5.479005e-01 -1.446896e+00 -1.554203e+00 -1.025128e+00 -7.499005e-01 -1.014215e+00 -2.928347e+00 -2.627673e+00 -4.161049e-01 0 0 0 0 0 0 0 0 0 0 0 0 0 0 0 0 0 0 0 0 0 0 0 0 0 0 0 0 0 0 0 0 0 0 0 0 0 0 0 0 0 0 0 0 0 0 0 0 0 0 0 0 0 0 0 
0 0 0 0 0 0 0 0 0 0 0 0 0 7.404333e-01 -1.076033e+00 6.343393e-01 -1.688465e+00 2.856275e-01 -2.178892e+00 -6.608120e-01 -1.567970e+00 0 0 0 0 0 0 0 0 0 0 0 0 0 0 0 0 0 0 0 0 0 0 0 0 0 0 0 0 0 0 0 0 0 0 0 -4.255609e-02 -4.680855e-01 -1.822778e+00 -2.087077e+00 -1.805733e-01 -1.127146e+00 -3.080698e+00 -2.064796e+00 -1.040262e+00 -1.501354e+00 -1.219629e+00 5.358107e-02 4.206148e-01 -1.123822e-01 -2.565058e+00 -2.653794e+00 -4.301158e-01 0 0 0 0 0 0 0 0 0 0 0 0 0 0 0 0 0 0 0 0 0 0 0 0 0 0 0 0 0 0 0 0 0 0 0 0 0 0 0 0 0 0 0 0 0 0 0 0 0 0 0 0 0 0 0 
0 0 0 0 0 0 0 0 0 0 0 0 0 -2.282068e-01 -3.461503e-01 -5.190770e-01 -5.628999e-01 -8.445697e-01 -8.300176e-01 -1.202791e+00 -9.713909e-01 0 0 0 0 0 0 0 0 0 0 0 0 0 0 0 0 0 0 0 0 0 0 0 0 0 0 0 0 0 0 0 0 0 0 0 7.193344e-03 9.125564e-02 6.524935e-02 2.126303e-02 1.834230e-01 -1.143412e-01 -4.894705e-01 -3.974444e-01 -3.875307e-01 -5.932344e-01 -4.244643e-01 -8.733194e-02 -2.419023e-03 -8.762993e-03 -6.993351e-01 -7.867290e-01 -1.279714e-01 0 0 0 0 0 0 0 0 0 0 0 0 0 0 0 0 0 0 0 0 0 0 0 0 0 0 0 0 0 0 0 0 0 0 0 0 0 0 0 0 0 0 0 0 0 0 0 0 0 0 0 0 0 0 0 
0 0 0 0 0 0 0 0 0 0 0 0 0 -1.218215e+00 2.484079e-01 -1.759387e+00 5.173802e-01 -2.153959e+00 1.392953e-01 -2.234986e+00 -6.953102e-01 0 0 0 0 0 0 0 0 0 0 0 0 0 0 0 0 0 0 0 0 0 0 0 0 0 0 0 0 0 0 0 0 0 0 0 0 0 0 0 0 0 0 0 0 0 0 0 0 0 0 0 0 0 0 0 0 0 0 0 0 0 0 0 0 0 0 0 0 0 0 0 0 0 0 0 0 0 0 0 0 0 0 0 0 0 0 0 0 0 0 0 0 0 0 0 0 0 0 0 0 0 0 0 0 0 0 0 
0 0 0 0 0 0 0 0 0 0 0 0 0 -2.173682e+00 4.317718e-01 -2.642324e+00 6.715962e-01 -2.992684e+00 1.660547e-01 -3.187675e+00 -9.632974e-01 0 0 0 0 0 0 0 0 0 0 0 0 0 0 0 0 0 0 0 0 0 0 0 0 0 0 0 0 0 0 0 0 0 0 0 0 0 0 0 0 0 0 0 0 0 0 0 0 0 0 0 0 0 0 0 0 0 0 0 0 0 0 0 0 0 0 0 0 0 0 0 0 0 0 0 0 0 0 0 0 0 0 0 0 0 0 0 0 0 0 0 0 0 0 0 0 0 0 0 0 0 0 0 0 0 0 0 
0 0 0 0 0 -1.045438e-01 -1.436429e-01 -8.135646e-02 -1.631896e-01 -1.519844e-01 -3.029481e-01 -2.369475e-01 -4.158544e-01 -3.490791e+00 4.528024e+00 -3.987586e+00 6.708909e+00 -3.942876e+00 6.881743e+00 -3.649445e+00 4.671413e-01 3.763008e+00 3.555031e+00 3.346724e+00 3.105038e+00 2.996511e+00 2.987857e+00 3.131763e+00 3.228948e+00 3.242391e+00 3.225979e+00 3.254225e+00 3.221352e+00 3.107224e+00 2.876466e+00 2.725032e+00 2.694903e+00 2.692450e+00 2.713683e+00 2.728558e+00 2.721654e+00 2.630658e+00 2.623974e+00 2.562491e+00 2.455486e+00 2.356840e+00 2.323554e+00 2.386598e+00 2.545488e+00 2.652788e+00 2.702376e+00 2.805486e+00 2.924333e+00 3.014251e+00 3.028283e+00 2.955132e+00 2.902808e+00 2.836517e+00 2.655954e+00 2.495124e+00 2.299141e+00 2.204409e+00 2.157599e+00 2.028648e+00 1.851621e+00 1.604217e+00 1.445283e+00 1.431563e+00 1.508339e+00 1.658923e+00 1.753131e+00 1.664518e+00 1.541412e+00 1.705773e+00 2.061035e+00 2.263178e+00 2.262417e+00 2.051701e+00 1.852758e+00 1.790808e+00 1.813976e+00 1.869545e+00 1.765936e+00 1.608117e+00 1.412513e+00 1.295057e+00 1.270870e+00 1.232028e+00 1.171753e+00 1.053503e+00 9.904873e-01 9.698801e-01 1.014162e+00 1.138040e+00 1.391443e+00 1.619951e+00 1.548819e+00 1.308766e+00 1.131947e+00 1.058139e+00 1.170231e+00 1.133571e+00 9.311479e-01 7.186299e-01 6.433403e-01 6.430278e-01 5.949783e-01 6.005285e-01 5.558478e-01 4.690223e-01 3.002063e-01 2.642714e-01 1.603290e-01 8.899502e-02 4.718257e-02 1.572142e-01 2.079278e-01 2.001021e-01 1.339891e-01 2.010194e-01 2.571700e-01 2.389266e-01 2.392009e-01 4.761083e-03 0 0 0 0 
0 0 0 0 0 -2.350568e+00 -3.248983e+00 -1.858797e+00 -3.678458e+00 -3.417651e+00 -6.810674e+00 -5.332890e+00 -9.358313e+00 -7.508057e+00 1.435258e+01 1.446906e+01 3.611129e+01 3.670044e+01 5.827950e+01 5.717562e+01 7.802935e+01 8.433294e+01 7.968114e+01 7.501981e+01 6.961159e+01 6.718265e+01 6.698890e+01 7.021009e+01 7.238540e+01 7.268624e+01 7.231887e+01 7.295089e+01 7.221510e+01 6.966053e+01 6.449415e+01 6.110410e+01 6.042959e+01 6.037471e+01 6.085030e+01 6.118343e+01 6.102886e+01 5.899139e+01 5.884180e+01 5.746484e+01 5.506831e+01 5.285869e+01 5.211311e+01 5.352521e+01 5.708369e+01 5.948687e+01 6.059731e+01 6.290611e+01 6.556685e+01 6.757987e+01 6.789397e+01 6.625630e+01 6.508500e+01 6.360069e+01 5.955777e+01 5.595597e+01 5.156590e+01 4.944389e+01 4.839511e+01 4.550581e+01 4.153843e+01 3.599283e+01 3.242993e+01 3.212235e+01 3.384367e+01 3.721942e+01 3.933126e+01 3.734482e+01 3.458502e+01 3.826883e+01 4.623095e+01 5.076058e+01 5.074342e+01 4.602187e+01 4.156409e+01 4.017575e+01 4.069495e+01 4.194035e+01 3.961803e+01 3.608038e+01 3.169460e+01 2.906112e+01 2.851881e+01 2.764782e+01 2.629596e+01 2.364377e+01 2.223033e+01 2.176805e+01 2.276135e+01 2.553978e+01 3.122205e+01 3.634569e+01 3.475092e+01 2.936847e+01 2.540318e+01 2.374744e+01 2.626102e+01 2.543856e+01 2.089826e+01 1.612971e+01 1.444049e+01 1.443371e+01 1.335580e+01 1.348061e+01 1.247806e+01 1.052916e+01 6.739689e+00 5.932791e+00 3.598549e+00 1.996681e+00 1.056756e+00 3.525623e+00 4.663412e+00 4.485722e+00 2.996265e+00 4.491526e+00 5.734066e+00 5.329415e+00 5.361441e+00 1.069017e-01 0 0 0 0 
0 0 0 0 0 -3.403576e+00 -4.709357e+00 -2.698999e+00 -5.328689e+00 -4.948797e+00 -9.861507e+00 -7.723274e+00 -1.355273e+01 -7.824594e+00 1.404984e+01 2.871809e+01 4.538809e+01 6.183325e+01 7.922003e+01 9.659973e+01 1.195947e+02 1.220427e+02 1.153132e+02 1.085693e+02 1.007449e+02 9.723067e+01 9.695033e+01 1.016109e+02 1.047582e+02 1.051935e+02 1.046619e+02 1.055763e+02 1.045118e+02 1.008157e+02 9.334046e+01 8.843549e+01 8.745955e+01 8.738016e+01 8.806834e+01 8.855037e+01 8.832673e+01 8.537867e+01 8.516224e+01 8.316981e+01 7.970205e+01 7.650467e+01 7.542581e+01 7.746914e+01 8.261819e+01 8.609558e+01 8.770232e+01 9.104301e+01 9.489282e+01 9.780542e+01 9.825987e+01 9.589035e+01 9.419565e+01 9.204797e+01 8.619817e+01 8.098647e+01 7.463389e+01 7.156329e+01 7.004560e+01 6.586451e+01 6.012309e+01 5.209750e+01 4.694117e+01 4.649603e+01 4.898722e+01 5.387270e+01 5.692901e+01 5.405419e+01 5.006010e+01 5.539122e+01 6.691373e+01 7.346865e+01 7.344377e+01 6.661117e+01 6.016027e+01 5.815114e+01 5.890250e+01 6.070479e+01 5.734395e+01 5.222423e+01 4.587681e+01 4.206546e+01 4.128059e+01 4.002000e+01 3.806339e+01 3.422473e+01 3.217896e+01 3.150986e+01 3.294755e+01 3.696892e+01 4.519286e+01 5.260819e+01 5.030016e+01 4.251027e+01 3.677123e+01 3.437471e+01 3.801261e+01 3.682216e+01 3.025069e+01 2.334839e+01 2.090335e+01 2.089360e+01 1.933342e+01 1.951414e+01 1.806299e+01 1.524186e+01 9.756354e+00 8.588253e+00 5.209029e+00 2.890066e+00 1.529121e+00 5.102699e+00 6.749572e+00 6.491841e+00 4.334384e+00 6.496488e+00 8.290599e+00 7.706077e+00 7.759006e+00 1.547543e-01 0 0 0 0 
0 0 0 0 0 -1.157551e+00 -1.604017e+00 -9.215584e-01 -1.813420e+00 -1.683130e+00 -3.353782e+00 -2.627331e+00 -4.610273e+00 -2.663073e+00 4.775103e+00 9.761583e+00 1.542801e+01 2.101667e+01 2.692505e+01 3.282951e+01 4.064098e+01 4.147280e+01 3.918709e+01 3.689624e+01 3.423834e+01 3.304453e+01 3.294929e+01 3.453258e+01 3.560177e+01 3.574963e+01 3.556906e+01 3.587966e+01 3.551801e+01 3.426240e+01 3.172278e+01 3.005642e+01 2.972486e+01 2.969790e+01 2.993172e+01 3.009550e+01 3.001952e+01 2.901793e+01 2.894441e+01 2.826745e+01 2.708923e+01 2.600283e+01 2.563625e+01 2.633053e+01 2.807999e+01 2.926149e+01 2.980739e+01 3.094239e+01 3.225030e+01 3.323980e+01 3.339419e+01 3.258918e+01 3.201345e+01 3.128379e+01 2.929635e+01 2.752562e+01 2.536713e+01 2.432380e+01 2.380809e+01 2.238735e+01 2.043628e+01 1.770888e+01 1.595652e+01 1.580524e+01 1.665189e+01 1.831221e+01 1.935087e+01 1.837388e+01 1.701650e+01 1.882816e+01 2.274381e+01 2.497124e+01 2.496277e+01 2.264100e+01 2.044894e+01 1.976619e+01 2.002152e+01 2.063398e+01 1.949186e+01 1.775197e+01 1.559472e+01 1.429939e+01 1.403265e+01 1.360421e+01 1.293918e+01 1.163446e+01 1.093912e+01 1.071169e+01 1.120036e+01 1.256718e+01 1.536225e+01 1.788246e+01 1.709806e+01 1.445056e+01 1.249999e+01 1.168540e+01 1.292182e+01 1.251717e+01 1.028358e+01 7.937312e+00 7.106200e+00 7.102912e+00 6.572597e+00 6.634060e+00 6.140780e+00 5.181724e+00 3.316872e+00 2.919733e+00 1.770809e+00 9.823802e-01 5.195480e-01 1.734291e+00 2.294088e+00 2.206221e+00 1.472108e+00 2.205980e+00 2.813703e+00 2.615588e+00 2.636767e+00 5.261365e-02 0 0 0 0 
0 0 0 0 0 0 0 0 0 0 0 0 0 0 0 0 0 0 0 0 0 0 0 0 0 0 0 0 0 0 0 0 0 0 0 0 0 0 0 0 0 0 0 0 0 0 0 0 0 0 0 0 0 0 0 0 0 0 0 0 0 0 0 0 0 0 0 0 0 0 0 0 0 0 0 0 0 0 0 0 0 0 0 0 0 0 0 0 0 0 0 0 0 0 0 0 0 0 0 0 0 0 0 0 0 0 0 0 0 0 0 0 0 0 0 0 0 0 0 0 0 0 0 0 0 0 0 0 
