# vtk DataFile Version 2.0
Comment goes here
ASCII

DATASET STRUCTURED_POINTS
FIELD FieldData 1
TIME 1 1 double
0.43000000
DIMENSIONS    128   16   1

ORIGIN    0.000   0.000   0.000
SPACING   0.0078125 0.015625   1.000

POINT_DATA   2048
SCALARS fY double
LOOKUP_TABLE default

0 0 0 0 0 0 0 0 0 0 0 0 0 0 0 0 0 0 0 0 0 0 0 0 0 0 0 0 0 0 0 0 0 0 0 0 0 0 0 0 0 0 0 0 0 0 0 0 0 0 0 0 0 0 0 0 0 0 0 0 0 0 0 0 0 0 0 0 0 0 0 0 0 0 0 0 0 0 0 0 0 0 0 0 0 0 0 0 0 0 0 0 0 0 0 0 0 0 0 0 0 0 0 0 0 0 0 0 0 0 0 0 0 0 0 0 0 0 0 0 0 0 0 0 0 0 0 0 
0 0 0 0 0 0 0 0 0 0 0 0 0 0 0 0 0 0 0 0 0 0 0 0 0 0 0 0 0 0 0 0 0 0 0 0 0 0 0 0 0 0 0 0 0 0 0 0 0 0 0 0 0 0 0 0 0 0 0 0 0 0 0 0 0 0 0 0 0 0 0 0 0 0 0 0 0 0 0 0 0 0 0 0 0 0 0 0 0 0 0 0 0 0 0 0 0 0 0 0 0 0 0 0 0 0 0 0 0 0 0 0 0 0 0 0 0 0 0 0 0 0 0 0 0 0 0 0 
0 0 0 0 0 -3.459464e-01 3.731571e-01 2.242125e-01 3.895394e-01 3.665891e-01 4.613722e-01 4.615887e-01 5.599370e-01 2.687485e-01 -7.796021e-01 -8.517615e-01 -2.375125e+00 -3.252431e+00 -4.008650e+00 -5.502157e+00 -5.729279e+00 -6.099318e+00 -6.057890e+00 -6.137451e+00 -6.221487e+00 -6.177709e+00 -6.229371e+00 -5.969278e+00 -5.911507e+00 -5.518193e+00 -5.477695e+00 -5.158420e+00 -5.234419e+00 -5.049598e+00 -5.216416e+00 -5.183947e+00 -5.416729e+00 -5.454185e+00 -5.536082e+00 -5.369267e+00 -5.085519e+00 -4.710696e+00 -4.359600e+00 -4.273317e+00 -4.332514e+00 -4.689665e+00 -4.920889e+00 -5.177135e+00 -5.046699e+00 -4.872472e+00 -4.365353e+00 -3.966331e+00 -3.461197e+00 -3.264515e+00 -3.145061e+00 -3.303298e+00 -3.108407e+00 -1.723613e+00 -3.522474e+00 -3.706741e+00 -3.248703e-01 -2.726130e+00 -3.762039e-01 8.823271e-01 -1.533658e+00 2.548624e+00 1.239759e-01 2.953370e-01 3.185317e+00 -7.963922e-01 -5.269016e+00 -5.744000e+00 -3.920353e+00 -3.400734e+00 -3.078012e+00 -2.844170e+00 -2.827762e+00 -3.020194e+00 -3.322221e+00 -3.688884e+00 -3.804280e+00 -3.799885e+00 -3.364798e+00 -2.957960e+00 -2.319355e+00 -2.069523e+00 -1.817751e+00 -2.047675e+00 -2.199610e+00 -2.580607e+00 -2.703989e+00 -2.778848e+00 -2.606775e+00 -2.300326e+00 -2.044025e+00 -1.723535e+00 -1.766820e+00 -1.609960e+00 -1.858088e+00 -1.621222e+00 -1.823722e+00 -1.443055e+00 -1.659146e+00 -1.334982e+00 -1.666204e+00 -1.452669e+00 -1.745562e+00 -1.489285e+00 -1.531892e+00 -1.195693e+00 -9.901754e-01 -7.190138e-01 -4.229275e-01 -4.582779e-01 -2.589802e-01 -6.448845e-01 -4.071825e-01 -8.461091e-01 -3.740635e-01 -7.232076e-01 -1.370881e-01 -4.345621e-01 7.313636e-02 6.317414e-01 0 0 0 0 
0 0 0 0 0 -1.017641e+00 1.095514e+00 6.557331e-01 1.143070e+00 1.076828e+00 1.355943e+00 1.356715e+00 1.646043e+00 7.896553e-01 -2.293519e+00 -2.505558e+00 -6.986172e+00 -9.566630e+00 -1.179112e+01 -1.618452e+01 -1.685269e+01 -1.794134e+01 -1.781955e+01 -1.805364e+01 -1.830084e+01 -1.817202e+01 -1.832393e+01 -1.755874e+01 -1.738873e+01 -1.623165e+01 -1.611246e+01 -1.517323e+01 -1.539676e+01 -1.485308e+01 -1.534380e+01 -1.524830e+01 -1.593308e+01 -1.604328e+01 -1.628422e+01 -1.579353e+01 -1.495884e+01 -1.385628e+01 -1.282348e+01 -1.256966e+01 -1.274379e+01 -1.379434e+01 -1.447450e+01 -1.522826e+01 -1.484455e+01 -1.433204e+01 -1.284031e+01 -1.166657e+01 -1.018072e+01 -9.602183e+00 -9.250828e+00 -9.716301e+00 -9.632058e+00 -7.335171e+00 -8.322358e+00 -8.985987e+00 -5.121201e+00 -7.169778e+00 -4.631707e+00 -2.896788e+00 -5.917800e+00 -2.170790e+00 -5.710686e+00 -7.179703e+00 -6.344635e+00 -1.017213e+01 -1.237468e+01 -1.222703e+01 -1.118635e+01 -1.000287e+01 -9.053578e+00 -8.365744e+00 -8.317479e+00 -8.883507e+00 -9.771918e+00 -1.085045e+01 -1.118988e+01 -1.117696e+01 -9.897149e+00 -8.700453e+00 -6.822059e+00 -6.087211e+00 -5.346696e+00 -6.023045e+00 -6.469980e+00 -7.590718e+00 -7.953665e+00 -8.173888e+00 -7.667767e+00 -6.766335e+00 -6.012439e+00 -5.069689e+00 -5.196946e+00 -4.735507e+00 -5.465299e+00 -4.768564e+00 -5.364216e+00 -4.244608e+00 -4.880333e+00 -3.927043e+00 -4.901533e+00 -4.273720e+00 -5.135531e+00 -4.382014e+00 -4.507565e+00 -3.518908e+00 -2.914460e+00 -2.116931e+00 -1.245885e+00 -1.349641e+00 -7.631370e-01 -1.897800e+00 -1.198337e+00 -2.489349e+00 -1.102127e+00 -2.134834e+00 -4.359411e-01 -1.321391e+00 1.978713e-01 1.857560e+00 0 0 0 0 
0 0 0 0 0 -7.030172e-01 7.557622e-01 4.511522e-01 7.883077e-01 7.431609e-01 9.361274e-01 9.367255e-01 1.136614e+00 2.093595e+00 -2.366217e+00 -1.998845e+00 -5.956446e+00 -5.261286e+00 -9.715631e+00 -8.363145e+00 -1.342892e+01 -1.239417e+01 -1.231007e+01 -1.247181e+01 -1.264258e+01 -1.255357e+01 -1.265849e+01 -1.212982e+01 -1.201234e+01 -1.121295e+01 -1.113058e+01 -1.048170e+01 -1.063612e+01 -1.026052e+01 -1.059953e+01 -1.053356e+01 -1.100664e+01 -1.108278e+01 -1.124924e+01 -1.091026e+01 -1.033363e+01 -9.571959e+00 -8.858465e+00 -8.683118e+00 -8.803400e+00 -9.529135e+00 -9.999001e+00 -1.051971e+01 -1.025463e+01 -9.900572e+00 -8.870046e+00 -8.059201e+00 -7.032763e+00 -6.633106e+00 -6.390395e+00 -6.711959e+00 -7.798813e+00 -1.191076e+01 -9.893617e+00 -9.148309e+00 -1.373322e+01 -8.428523e+00 -1.095472e+01 -1.209943e+01 -7.316925e+00 -1.369521e+01 -1.116408e+01 -1.105173e+01 -1.768247e+01 -1.336047e+01 -8.554023e+00 -7.527310e+00 -7.794535e+00 -6.909900e+00 -6.254121e+00 -5.778963e+00 -5.745622e+00 -6.136634e+00 -6.750358e+00 -7.495415e+00 -7.729900e+00 -7.720972e+00 -6.836864e+00 -6.010182e+00 -4.712597e+00 -4.204973e+00 -3.693451e+00 -4.160693e+00 -4.469450e+00 -5.243686e+00 -5.494423e+00 -5.646567e+00 -5.296949e+00 -4.674223e+00 -4.153430e+00 -3.502153e+00 -3.590033e+00 -3.271248e+00 -3.775359e+00 -3.294050e+00 -3.705533e+00 -2.932155e+00 -3.371367e+00 -2.712939e+00 -3.386224e+00 -2.952668e+00 -3.548147e+00 -3.027765e+00 -3.114604e+00 -2.431763e+00 -2.014242e+00 -1.463345e+00 -8.615647e-01 -9.331299e-01 -5.278360e-01 -1.311444e+00 -8.281195e-01 -1.719922e+00 -7.622435e-01 -1.478411e+00 -3.169986e-01 -9.337323e-01 1.283269e-01 1.282881e+00 0 0 0 0 
0 0 0 0 0 -3.132232e-02 3.340532e-02 1.963157e-02 3.477727e-02 3.292193e-02 4.155626e-02 4.159946e-02 5.050836e-02 1.291229e+00 -7.396817e-01 -8.758844e-01 -1.116803e+00 8.223451e-01 -1.500237e+00 2.384735e+00 -1.857352e+00 -5.521490e-01 -5.484113e-01 -5.556235e-01 -5.632317e-01 -5.592612e-01 -5.639293e-01 -5.403619e-01 -5.351193e-01 -4.994903e-01 -4.958139e-01 -4.668974e-01 -4.737738e-01 -4.570384e-01 -4.721431e-01 -4.692058e-01 -4.902871e-01 -4.936815e-01 -5.011007e-01 -4.860000e-01 -4.603076e-01 -4.263749e-01 -3.945845e-01 -3.867713e-01 -3.921289e-01 -4.244579e-01 -4.453905e-01 -4.685879e-01 -4.567755e-01 -4.410011e-01 -3.950888e-01 -3.589656e-01 -3.132411e-01 -2.954381e-01 -2.846283e-01 -2.989557e-01 -1.381527e+00 -6.883399e+00 -5.349936e+00 -3.648920e+00 -9.185234e+00 -4.050843e+00 -6.614140e+00 -8.379519e+00 -2.809774e+00 -8.577716e+00 -5.092595e+00 -3.409551e+00 -7.462702e+00 -2.946419e+00 -1.619228e-01 -2.304260e-01 -4.106228e-01 -3.077680e-01 -2.785548e-01 -2.573894e-01 -2.559041e-01 -2.733212e-01 -3.006607e-01 -3.338497e-01 -3.442951e-01 -3.438977e-01 -3.045130e-01 -2.676888e-01 -2.098929e-01 -1.872839e-01 -1.645057e-01 -1.853233e-01 -1.990798e-01 -2.335745e-01 -2.447463e-01 -2.515269e-01 -2.359564e-01 -2.082140e-01 -1.850159e-01 -1.559998e-01 -1.599067e-01 -1.457013e-01 -1.681485e-01 -1.467083e-01 -1.650385e-01 -1.306020e-01 -1.501794e-01 -1.208775e-01 -1.508951e-01 -1.316181e-01 -1.581780e-01 -1.350361e-01 -1.389318e-01 -1.085469e-01 -8.995739e-02 -6.542795e-02 -3.860710e-02 -4.176711e-02 -2.367925e-02 -5.852840e-02 -3.696532e-02 -7.668153e-02 -3.417966e-02 -6.678401e-02 -1.814551e-02 -4.690374e-02 3.591956e-03 5.706169e-02 0 0 0 0 
0 0 0 0 0 0 0 0 0 0 0 0 0 1.507456e-01 -8.986471e-02 2.867470e-01 -3.591170e-01 3.967179e-01 -5.220382e-01 3.638453e-01 -4.205631e-01 0 0 0 0 0 0 0 0 0 0 0 0 0 0 0 0 0 0 0 0 0 0 0 0 0 0 0 0 0 0 0 0 0 0 0 -2.236193e-01 -1.378275e+00 -7.592596e-01 4.878427e-02 -1.278601e+00 -8.589133e-02 -2.385008e-01 -7.972203e-01 5.264007e-01 -3.063316e-01 2.085248e-01 5.738638e-01 3.597845e-02 8.802403e-01 1.215195e+00 6.681414e-01 1.171931e-01 0 0 0 0 0 0 0 0 0 0 0 0 0 0 0 0 0 0 0 0 0 0 0 0 0 0 0 0 0 0 0 0 0 0 0 0 0 0 0 0 0 0 0 0 0 0 0 0 0 0 0 0 0 0 0 
0 0 0 0 0 0 0 0 0 0 0 0 0 6.682467e-02 -7.183616e-02 9.175101e-02 -2.104652e-01 2.427286e-01 -2.768361e-01 2.995533e-01 -2.078238e-01 0 0 0 0 0 0 0 0 0 0 0 0 0 0 0 0 0 0 0 0 0 0 0 0 0 0 0 0 0 0 0 0 0 0 0 -2.130999e-01 -1.512193e+00 -1.128879e+00 -4.680200e-01 -1.880385e+00 -3.669346e-01 -9.213489e-01 -1.584314e+00 2.887047e-01 -1.513447e+00 -5.711596e-01 1.705295e-01 -1.256826e+00 -3.313754e-01 -4.476088e-01 -5.752194e-01 -5.037139e-02 0 0 0 0 0 0 0 0 0 0 0 0 0 0 0 0 0 0 0 0 0 0 0 0 0 0 0 0 0 0 0 0 0 0 0 0 0 0 0 0 0 0 0 0 0 0 0 0 0 0 0 0 0 0 0 
0 0 0 0 0 0 0 0 0 0 0 0 0 4.289520e-03 -2.259955e-03 -5.767510e-04 -5.062706e-03 -1.036348e-03 -1.714785e-03 4.778074e-03 8.626771e-03 0 0 0 0 0 0 0 0 0 0 0 0 0 0 0 0 0 0 0 0 0 0 0 0 0 0 0 0 0 0 0 0 0 0 0 -9.584564e-02 -7.181104e-01 -6.258218e-01 -2.966610e-01 -8.501331e-01 -3.470115e-01 -5.977736e-01 -8.462983e-01 -1.146873e-01 -8.090403e-01 -5.428640e-01 -2.361907e-01 -6.029839e-01 -1.732951e-01 -3.763636e-01 -4.295115e-01 -4.964588e-02 0 0 0 0 0 0 0 0 0 0 0 0 0 0 0 0 0 0 0 0 0 0 0 0 0 0 0 0 0 0 0 0 0 0 0 0 0 0 0 0 0 0 0 0 0 0 0 0 0 0 0 0 0 0 0 
0 0 0 0 0 0 0 0 0 0 0 0 0 -6.611786e-02 5.800053e-02 -9.894642e-02 1.907634e-01 -2.543616e-01 2.638908e-01 -3.084627e-01 2.121335e-01 0 0 0 0 0 0 0 0 0 0 0 0 0 0 0 0 0 0 0 0 0 0 0 0 0 0 0 0 0 0 0 0 0 0 0 0 0 0 0 0 0 0 0 0 0 0 0 0 0 0 0 0 0 0 0 0 0 0 0 0 0 0 0 0 0 0 0 0 0 0 0 0 0 0 0 0 0 0 0 0 0 0 0 0 0 0 0 0 0 0 0 0 0 0 0 0 0 0 0 0 0 0 0 0 0 0 0 
0 0 0 0 0 0 0 0 0 0 0 0 0 -1.568749e-01 6.854519e-02 -3.054799e-01 3.243893e-01 -4.238900e-01 4.878360e-01 -3.816203e-01 4.074950e-01 0 0 0 0 0 0 0 0 0 0 0 0 0 0 0 0 0 0 0 0 0 0 0 0 0 0 0 0 0 0 0 0 0 0 0 0 0 0 0 0 0 0 0 0 0 0 0 0 0 0 0 0 0 0 0 0 0 0 0 0 0 0 0 0 0 0 0 0 0 0 0 0 0 0 0 0 0 0 0 0 0 0 0 0 0 0 0 0 0 0 0 0 0 0 0 0 0 0 0 0 0 0 0 0 0 0 0 
0 0 0 0 0 3.139217e-02 -3.324501e-02 -2.037452e-02 -3.748750e-02 -3.730487e-02 -4.562144e-02 -4.455572e-02 -5.261782e-02 -1.336072e+00 6.929270e-01 8.524790e-01 1.046574e+00 -8.618445e-01 1.441563e+00 -2.452439e+00 1.819292e+00 5.448217e-01 5.311033e-01 5.334588e-01 5.374753e-01 5.343426e-01 5.399060e-01 5.230810e-01 5.298447e-01 5.116491e-01 5.261381e-01 5.104064e-01 5.248402e-01 5.041785e-01 5.067364e-01 4.767208e-01 4.677024e-01 4.406978e-01 4.362657e-01 4.286201e-01 4.360582e-01 4.443460e-01 4.508247e-01 4.574082e-01 4.495662e-01 4.474006e-01 4.263726e-01 4.157852e-01 3.837176e-01 3.693278e-01 3.442676e-01 3.502861e-01 3.538862e-01 3.807548e-01 3.935384e-01 4.094518e-01 4.067601e-01 4.005806e-01 3.863919e-01 3.681736e-01 3.549097e-01 3.367331e-01 3.342746e-01 3.312925e-01 3.490337e-01 3.597869e-01 3.788881e-01 3.703807e-01 3.631028e-01 3.301007e-01 3.109387e-01 2.837705e-01 2.772515e-01 2.731264e-01 2.854129e-01 3.026190e-01 3.172923e-01 3.265335e-01 3.094118e-01 2.890684e-01 2.448576e-01 2.250098e-01 1.978399e-01 2.127885e-01 2.153255e-01 2.481670e-01 2.515466e-01 2.708903e-01 2.574879e-01 2.519630e-01 2.220171e-01 1.981591e-01 1.747027e-01 1.618281e-01 1.707289e-01 1.714515e-01 1.925605e-01 1.761667e-01 1.853816e-01 1.466646e-01 1.525681e-01 1.118020e-01 1.300602e-01 1.013779e-01 1.302229e-01 1.078342e-01 1.289994e-01 1.021083e-01 1.040718e-01 7.811780e-02 7.153922e-02 6.778093e-02 6.285694e-02 8.013071e-02 6.200220e-02 8.487024e-02 4.853978e-02 7.714570e-02 3.010239e-02 6.030242e-02 1.183551e-02 4.185015e-02 -5.022152e-03 -5.692308e-02 0 0 0 0 
0 0 0 0 0 7.045845e-01 -7.521681e-01 -4.678339e-01 -8.491691e-01 -8.415774e-01 -1.027399e+00 -1.003095e+00 -1.183959e+00 -2.207861e+00 2.263250e+00 1.895432e+00 5.848296e+00 5.156677e+00 9.624954e+00 8.259903e+00 1.337322e+01 1.222971e+01 1.192156e+01 1.197429e+01 1.206442e+01 1.199419e+01 1.211920e+01 1.174183e+01 1.189385e+01 1.148571e+01 1.181109e+01 1.145817e+01 1.178220e+01 1.131853e+01 1.137594e+01 1.070222e+01 1.049976e+01 9.893547e+00 9.794013e+00 9.622341e+00 9.789242e+00 9.975267e+00 1.012068e+01 1.026849e+01 1.009253e+01 1.004398e+01 9.572084e+00 9.334486e+00 8.614761e+00 8.291787e+00 7.729277e+00 7.864383e+00 7.945180e+00 8.548261e+00 8.835193e+00 9.192348e+00 9.131906e+00 8.993193e+00 8.674694e+00 8.265779e+00 7.968051e+00 7.560071e+00 7.504910e+00 7.437987e+00 7.836259e+00 8.077645e+00 8.506410e+00 8.315442e+00 8.152053e+00 7.411196e+00 6.981029e+00 6.371079e+00 6.224708e+00 6.132068e+00 6.407851e+00 6.794127e+00 7.123510e+00 7.330993e+00 6.946708e+00 6.490044e+00 5.497620e+00 5.052065e+00 4.442092e+00 4.777681e+00 4.834582e+00 5.571762e+00 5.647530e+00 6.081621e+00 5.780591e+00 5.656441e+00 4.983984e+00 4.448360e+00 3.921669e+00 3.632684e+00 3.832648e+00 3.848999e+00 4.323118e+00 3.955246e+00 4.162249e+00 3.293060e+00 3.425550e+00 2.510038e+00 2.919642e+00 2.275117e+00 2.922099e+00 2.418670e+00 2.893082e+00 2.288498e+00 2.331990e+00 1.748654e+00 1.600767e+00 1.516407e+00 1.406168e+00 1.794701e+00 1.388523e+00 1.902976e+00 1.088112e+00 1.730391e+00 6.707159e-01 1.332971e+00 1.758485e-01 8.210730e-01 -1.600757e-01 -1.279760e+00 0 0 0 0 
0 0 0 0 0 1.019910e+00 -1.090312e+00 -6.798823e-01 -1.231177e+00 -1.219300e+00 -1.488069e+00 -1.452792e+00 -1.714575e+00 -8.730090e-01 2.228431e+00 2.424705e+00 6.984857e+00 9.592109e+00 1.187459e+01 1.633641e+01 1.680674e+01 1.770328e+01 1.725715e+01 1.733344e+01 1.746392e+01 1.736228e+01 1.754327e+01 1.699708e+01 1.721718e+01 1.662645e+01 1.709749e+01 1.658667e+01 1.705574e+01 1.638458e+01 1.646767e+01 1.549244e+01 1.519936e+01 1.432182e+01 1.417773e+01 1.392921e+01 1.417079e+01 1.444007e+01 1.465056e+01 1.486453e+01 1.460985e+01 1.453957e+01 1.385651e+01 1.351258e+01 1.247076e+01 1.200325e+01 1.118898e+01 1.138456e+01 1.150151e+01 1.237450e+01 1.278985e+01 1.330684e+01 1.321934e+01 1.301854e+01 1.255749e+01 1.196557e+01 1.153459e+01 1.094403e+01 1.086418e+01 1.076731e+01 1.134384e+01 1.169327e+01 1.231393e+01 1.203749e+01 1.180097e+01 1.072852e+01 1.010582e+01 9.222852e+00 9.010961e+00 8.876848e+00 9.276058e+00 9.835229e+00 1.031203e+01 1.061239e+01 1.005612e+01 9.395071e+00 7.958471e+00 7.313495e+00 6.430499e+00 6.916294e+00 6.998651e+00 8.065759e+00 8.175415e+00 8.803757e+00 8.367951e+00 8.188202e+00 7.214714e+00 6.439344e+00 5.676885e+00 5.258564e+00 5.548067e+00 5.571769e+00 6.258158e+00 5.725672e+00 6.025360e+00 4.767129e+00 4.958911e+00 3.633539e+00 4.226405e+00 3.293241e+00 4.229659e+00 3.500693e+00 4.187261e+00 3.311845e+00 3.374653e+00 2.530050e+00 2.315919e+00 2.193803e+00 2.034299e+00 2.596926e+00 2.009149e+00 2.754140e+00 1.574737e+00 2.504517e+00 9.696342e-01 1.924315e+00 2.317422e-01 1.158507e+00 -2.437396e-01 -1.853042e+00 0 0 0 0 
0 0 0 0 0 3.467176e-01 -3.713894e-01 -2.324228e-01 -4.194952e-01 -4.150277e-01 -5.062919e-01 -4.942522e-01 -5.832346e-01 -2.970839e-01 7.574774e-01 8.242761e-01 2.374679e+00 3.261095e+00 4.037026e+00 5.553796e+00 5.713659e+00 6.018391e+00 5.866698e+00 5.892615e+00 5.936968e+00 5.902427e+00 5.963972e+00 5.778327e+00 5.853175e+00 5.652388e+00 5.812540e+00 5.638909e+00 5.798379e+00 5.570229e+00 5.598474e+00 5.266939e+00 5.167301e+00 4.868970e+00 4.819978e+00 4.735486e+00 4.817607e+00 4.909149e+00 4.980707e+00 5.053449e+00 4.966877e+00 4.942995e+00 4.710794e+00 4.593882e+00 4.239718e+00 4.080786e+00 3.803972e+00 3.870461e+00 3.910220e+00 4.206994e+00 4.348192e+00 4.523940e+00 4.494192e+00 4.425929e+00 4.269191e+00 4.067967e+00 3.921453e+00 3.720688e+00 3.693547e+00 3.660618e+00 3.856619e+00 3.975409e+00 4.186409e+00 4.092431e+00 4.012021e+00 3.647426e+00 3.435728e+00 3.135543e+00 3.063504e+00 3.017906e+00 3.153619e+00 3.343720e+00 3.505815e+00 3.607930e+00 3.418828e+00 3.194096e+00 2.705709e+00 2.486440e+00 2.186247e+00 2.351402e+00 2.379394e+00 2.742164e+00 2.779431e+00 2.993027e+00 2.844848e+00 2.783725e+00 2.452747e+00 2.189143e+00 1.929919e+00 1.787709e+00 1.886148e+00 1.894222e+00 2.127601e+00 1.946592e+00 2.048493e+00 1.620733e+00 1.685928e+00 1.235303e+00 1.436824e+00 1.119502e+00 1.437783e+00 1.189858e+00 1.423178e+00 1.125455e+00 1.146735e+00 8.595136e-01 7.866913e-01 7.451773e-01 6.909882e-01 8.823550e-01 6.826280e-01 9.360334e-01 5.351652e-01 8.512716e-01 3.290207e-01 6.516464e-01 6.772925e-02 3.792841e-01 -8.868605e-02 -6.302042e-01 0 0 0 0 
0 0 0 0 0 0 0 0 0 0 0 0 0 0 0 0 0 0 0 0 0 0 0 0 0 0 0 0 0 0 0 0 0 0 0 0 0 0 0 0 0 0 0 0 0 0 0 0 0 0 0 0 0 0 0 0 0 0 0 0 0 0 0 0 0 0 0 0 0 0 0 0 0 0 0 0 0 0 0 0 0 0 0 0 0 0 0 0 0 0 0 0 0 0 0 0 0 0 0 0 0 0 0 0 0 0 0 0 0 0 0 0 0 0 0 0 0 0 0 0 0 0 0 0 0 0 0 0 
