# vtk DataFile Version 2.0
Comment goes here
ASCII

DATASET STRUCTURED_POINTS
FIELD FieldData 1
TIME 1 1 double
0.83000000
DIMENSIONS    128   16   1

ORIGIN    0.000   0.000   0.000
SPACING   0.0078125 0.015625   1.000

POINT_DATA   2048
SCALARS fY double
LOOKUP_TABLE default

0 0 0 0 0 0 0 0 0 0 0 0 0 0 0 0 0 0 0 0 0 0 0 0 0 0 0 0 0 0 0 0 0 0 0 0 0 0 0 0 0 0 0 0 0 0 0 0 0 0 0 0 0 0 0 0 0 0 0 0 0 0 0 0 0 0 0 0 0 0 0 0 0 0 0 0 0 0 0 0 0 0 0 0 0 0 0 0 0 0 0 0 0 0 0 0 0 0 0 0 0 0 0 0 0 0 0 0 0 0 0 0 0 0 0 0 0 0 0 0 0 0 0 0 0 0 0 0 
0 0 0 0 0 0 0 0 0 0 0 0 0 0 0 0 0 0 0 0 0 0 0 0 0 0 0 0 0 0 0 0 0 0 0 0 0 0 0 0 0 0 0 0 0 0 0 0 0 0 0 0 0 0 0 0 0 0 0 0 0 0 0 0 0 0 0 0 0 0 0 0 0 0 0 0 0 0 0 0 0 0 0 0 0 0 0 0 0 0 0 0 0 0 0 0 0 0 0 0 0 0 0 0 0 0 0 0 0 0 0 0 0 0 0 0 0 0 0 0 0 0 0 0 0 0 0 0 
0 0 0 0 0 -3.452479e-01 3.699224e-01 2.274273e-01 4.041332e-01 3.967379e-01 4.918540e-01 4.878735e-01 5.785363e-01 2.863012e-01 -7.423021e-01 -8.115540e-01 -2.330732e+00 -3.214318e+00 -3.974795e+00 -5.495755e+00 -5.707436e+00 -6.066324e+00 -5.960529e+00 -5.934448e+00 -5.903031e+00 -5.770038e+00 -5.806437e+00 -5.615775e+00 -5.718497e+00 -5.509211e+00 -5.645397e+00 -5.420451e+00 -5.531905e+00 -5.286571e+00 -5.343977e+00 -5.114035e+00 -5.141226e+00 -4.982580e+00 -5.003631e+00 -4.927513e+00 -4.916500e+00 -4.873845e+00 -4.779368e+00 -4.725029e+00 -4.547194e+00 -4.502262e+00 -4.306073e+00 -4.322655e+00 -4.166445e+00 -4.250802e+00 -4.122008e+00 -4.199538e+00 -4.019805e+00 -3.985909e+00 -3.701231e+00 -3.521104e+00 -2.931219e+00 -1.164785e+00 -1.733337e+00 -2.168210e+00 1.778206e-01 -1.642958e+00 -3.004888e-01 8.953179e-01 -1.202753e+00 2.711762e+00 1.183774e+00 1.791446e+00 5.353327e+00 2.062285e+00 -2.677137e+00 -4.357120e+00 -3.712766e+00 -3.760382e+00 -3.695303e+00 -3.581457e+00 -3.392647e+00 -3.241576e+00 -3.037813e+00 -2.979379e+00 -2.845539e+00 -2.908271e+00 -2.807772e+00 -2.901208e+00 -2.745400e+00 -2.786112e+00 -2.570482e+00 -2.574878e+00 -2.382719e+00 -2.392167e+00 -2.277903e+00 -2.269722e+00 -2.218078e+00 -2.126377e+00 -2.107756e+00 -1.907671e+00 -1.949364e+00 -1.688853e+00 -1.837125e+00 -1.555694e+00 -1.793151e+00 -1.479995e+00 -1.732331e+00 -1.366729e+00 -1.567198e+00 -1.182981e+00 -1.323221e+00 -1.008674e+00 -1.101461e+00 -9.300372e-01 -9.549192e-01 -9.376390e-01 -8.281226e-01 -9.248683e-01 -6.329885e-01 -8.283579e-01 -3.871110e-01 -6.881713e-01 -1.714811e-01 -5.470256e-01 -2.590171e-02 -3.849123e-01 8.360336e-02 6.329904e-01 0 0 0 0 
0 0 0 0 0 -1.015586e+00 1.086007e+00 6.652060e-01 1.186018e+00 1.165530e+00 1.445617e+00 1.434038e+00 1.700763e+00 8.412982e-01 -2.183801e+00 -2.387293e+00 -6.855593e+00 -9.454523e+00 -1.169154e+01 -1.616570e+01 -1.678846e+01 -1.784432e+01 -1.753319e+01 -1.745651e+01 -1.736409e+01 -1.697283e+01 -1.707984e+01 -1.651889e+01 -1.682098e+01 -1.620525e+01 -1.660579e+01 -1.594403e+01 -1.627186e+01 -1.555017e+01 -1.571904e+01 -1.504266e+01 -1.512267e+01 -1.465602e+01 -1.471797e+01 -1.449408e+01 -1.446169e+01 -1.433622e+01 -1.405830e+01 -1.389844e+01 -1.337530e+01 -1.324311e+01 -1.266598e+01 -1.271474e+01 -1.225522e+01 -1.250335e+01 -1.212450e+01 -1.235256e+01 -1.182388e+01 -1.172420e+01 -1.088684e+01 -1.035702e+01 -9.054836e+00 -5.856107e+00 -5.424802e+00 -6.445673e+00 -3.926612e+00 -6.040511e+00 -5.482453e+00 -4.123900e+00 -7.215738e+00 -3.401613e+00 -5.516838e+00 -5.843125e+00 -3.952272e+00 -7.238675e+00 -9.381421e+00 -1.009728e+01 -1.077085e+01 -1.106079e+01 -1.086935e+01 -1.053447e+01 -9.979074e+00 -9.534699e+00 -8.935327e+00 -8.763441e+00 -8.369755e+00 -8.554281e+00 -8.258676e+00 -8.533530e+00 -8.075256e+00 -8.195040e+00 -7.560822e+00 -7.573796e+00 -7.008624e+00 -7.036454e+00 -6.700395e+00 -6.676349e+00 -6.524449e+00 -6.254697e+00 -6.199890e+00 -5.611301e+00 -5.733879e+00 -4.967554e+00 -5.403633e+00 -4.575823e+00 -5.274299e+00 -4.353269e+00 -5.095615e+00 -4.020443e+00 -4.610333e+00 -3.480509e+00 -3.893285e+00 -2.968395e+00 -3.241543e+00 -2.737518e+00 -2.810791e+00 -2.759952e+00 -2.437694e+00 -2.722026e+00 -1.863176e+00 -2.437462e+00 -1.139286e+00 -2.024801e+00 -5.062905e-01 -1.616642e+00 -1.090206e-01 -1.175506e+00 2.286142e-01 1.861231e+00 0 0 0 0 
0 0 0 0 0 -7.015975e-01 7.491981e-01 4.577042e-01 8.179873e-01 8.044459e-01 9.980808e-01 9.901450e-01 1.174420e+00 2.130406e+00 -2.290370e+00 -1.935821e+00 -5.850510e+00 -5.171427e+00 -9.595092e+00 -8.252712e+00 -1.330303e+01 -1.232716e+01 -1.211227e+01 -1.205931e+01 -1.199547e+01 -1.172514e+01 -1.179904e+01 -1.141147e+01 -1.162012e+01 -1.119471e+01 -1.147139e+01 -1.101420e+01 -1.124067e+01 -1.074209e+01 -1.085876e+01 -1.039150e+01 -1.044678e+01 -1.012443e+01 -1.016723e+01 -1.001257e+01 -9.990205e+00 -9.903528e+00 -9.711524e+00 -9.601088e+00 -9.239675e+00 -9.148345e+00 -8.749636e+00 -8.783309e+00 -8.465858e+00 -8.637267e+00 -8.375546e+00 -8.533100e+00 -8.167888e+00 -8.099032e+00 -7.520588e+00 -7.154593e+00 -6.938669e+00 -9.891210e+00 -8.948895e+00 -7.819651e+00 -1.214983e+01 -9.499977e+00 -1.187378e+01 -1.409543e+01 -1.035317e+01 -1.558713e+01 -1.362724e+01 -1.216959e+01 -1.825421e+01 -1.415143e+01 -9.272317e+00 -8.146348e+00 -8.010455e+00 -7.640732e+00 -7.508477e+00 -7.277137e+00 -6.893462e+00 -6.586482e+00 -6.172429e+00 -6.053687e+00 -5.781727e+00 -5.909199e+00 -5.704998e+00 -5.894877e+00 -5.578312e+00 -5.661075e+00 -5.222978e+00 -5.231961e+00 -4.841566e+00 -4.860810e+00 -4.628680e+00 -4.612077e+00 -4.507148e+00 -4.320793e+00 -4.282917e+00 -3.876293e+00 -3.960943e+00 -3.431540e+00 -3.732759e+00 -3.160907e+00 -3.643420e+00 -3.007220e+00 -3.520090e+00 -2.777468e+00 -3.185073e+00 -2.404747e+00 -2.690023e+00 -2.051268e+00 -2.240067e+00 -1.891986e+00 -1.942644e+00 -1.907520e+00 -1.684844e+00 -1.881145e+00 -1.287704e+00 -1.684236e+00 -7.873212e-01 -1.399019e+00 -3.506614e-01 -1.120461e+00 -9.122323e-02 -8.330312e-01 1.495422e-01 1.285415e+00 0 0 0 0 
0 0 0 0 0 -3.125904e-02 3.311384e-02 1.992551e-02 3.610201e-02 3.565430e-02 4.431754e-02 4.398000e-02 5.219381e-02 1.313089e+00 -7.338416e-01 -8.901793e-01 -1.102731e+00 8.125691e-01 -1.480482e+00 2.392046e+00 -1.827096e+00 -5.491674e-01 -5.396037e-01 -5.372486e-01 -5.344042e-01 -5.223533e-01 -5.256383e-01 -5.083588e-01 -5.176453e-01 -4.986805e-01 -5.110001e-01 -4.906233e-01 -5.007101e-01 -4.784947e-01 -4.836934e-01 -4.628777e-01 -4.653436e-01 -4.509851e-01 -4.528952e-01 -4.460071e-01 -4.450116e-01 -4.411502e-01 -4.325944e-01 -4.276728e-01 -4.115678e-01 -4.074965e-01 -3.897302e-01 -3.912279e-01 -3.770832e-01 -3.847184e-01 -3.730585e-01 -3.800784e-01 -3.638101e-01 -3.607450e-01 -3.349799e-01 -3.186786e-01 -8.729563e-01 -6.005864e+00 -6.176565e+00 -3.780573e+00 -8.652797e+00 -5.466973e+00 -6.684847e+00 -9.261229e+00 -4.259789e+00 -8.921880e+00 -6.513354e+00 -4.229360e+00 -7.806934e+00 -3.484420e+00 -6.959599e-01 -7.069722e-01 -5.534254e-01 -3.403265e-01 -3.344336e-01 -3.241277e-01 -3.070351e-01 -2.933600e-01 -2.749148e-01 -2.696250e-01 -2.575104e-01 -2.631889e-01 -2.540940e-01 -2.625541e-01 -2.484561e-01 -2.521466e-01 -2.326378e-01 -2.330433e-01 -2.156604e-01 -2.165224e-01 -2.061876e-01 -2.054503e-01 -2.007771e-01 -1.924737e-01 -1.907827e-01 -1.726638e-01 -1.764272e-01 -1.528397e-01 -1.662506e-01 -1.407785e-01 -1.622725e-01 -1.339461e-01 -1.568056e-01 -1.237541e-01 -1.419376e-01 -1.072194e-01 -1.199595e-01 -9.154781e-02 -9.998489e-02 -8.450573e-02 -8.677257e-02 -8.520670e-02 -7.527295e-02 -8.398734e-02 -5.751615e-02 -7.513210e-02 -3.514657e-02 -6.238931e-02 -1.585213e-02 -5.084421e-02 -8.104358e-03 -4.243749e-02 4.531403e-03 5.717431e-02 0 0 0 0 
0 0 0 0 0 0 0 0 0 0 0 0 0 1.414866e-01 -8.823784e-02 2.834625e-01 -3.473668e-01 4.005291e-01 -5.004315e-01 3.730029e-01 -3.917088e-01 0 0 0 0 0 0 0 0 0 0 0 0 0 0 0 0 0 0 0 0 0 0 0 0 0 0 0 0 0 0 0 0 0 0 0 -1.644489e-01 -1.271334e+00 -9.172801e-01 8.385792e-02 -9.845497e-01 5.687707e-02 1.360169e-01 -3.620728e-01 9.085954e-01 2.570119e-01 7.944819e-01 1.070122e+00 7.480548e-01 1.352961e+00 1.794825e+00 1.586847e+00 4.585744e-01 0 0 0 0 0 0 0 0 0 0 0 0 0 0 0 0 0 0 0 0 0 0 0 0 0 0 0 0 0 0 0 0 0 0 0 0 0 0 0 0 0 0 0 0 0 0 0 0 0 0 0 0 0 0 0 
0 0 0 0 0 0 0 0 0 0 0 0 0 6.273985e-02 -6.969825e-02 8.924346e-02 -2.056229e-01 2.410104e-01 -2.718766e-01 2.969572e-01 -2.063951e-01 0 0 0 0 0 0 0 0 0 0 0 0 0 0 0 0 0 0 0 0 0 0 0 0 0 0 0 0 0 0 0 0 0 0 0 -1.926024e-01 -1.121052e+00 -6.190360e-01 3.190277e-02 -1.063824e+00 1.754780e-01 -2.780877e-01 -7.495369e-01 9.205221e-01 -8.086076e-01 1.747768e-01 8.313861e-01 -6.817199e-01 3.058499e-01 -6.772911e-02 -4.641333e-01 8.986769e-03 0 0 0 0 0 0 0 0 0 0 0 0 0 0 0 0 0 0 0 0 0 0 0 0 0 0 0 0 0 0 0 0 0 0 0 0 0 0 0 0 0 0 0 0 0 0 0 0 0 0 0 0 0 0 0 
0 0 0 0 0 0 0 0 0 0 0 0 0 1.259307e-03 3.578336e-04 1.535857e-03 7.703396e-04 1.397991e-03 2.340372e-03 8.879145e-04 3.611060e-03 0 0 0 0 0 0 0 0 0 0 0 0 0 0 0 0 0 0 0 0 0 0 0 0 0 0 0 0 0 0 0 0 0 0 0 -8.605833e-02 -6.556939e-01 -6.208907e-01 -2.903395e-01 -6.866754e-01 -2.459478e-01 -4.071340e-01 -5.724766e-01 9.231868e-02 -5.137417e-01 -2.064336e-01 6.692387e-02 -2.880947e-01 3.189395e-01 9.517900e-03 -3.517600e-01 -5.064593e-02 0 0 0 0 0 0 0 0 0 0 0 0 0 0 0 0 0 0 0 0 0 0 0 0 0 0 0 0 0 0 0 0 0 0 0 0 0 0 0 0 0 0 0 0 0 0 0 0 0 0 0 0 0 0 0 
0 0 0 0 0 0 0 0 0 0 0 0 0 -6.112912e-02 6.563895e-02 -8.512065e-02 2.007360e-01 -2.379049e-01 2.725838e-01 -2.984394e-01 2.135231e-01 0 0 0 0 0 0 0 0 0 0 0 0 0 0 0 0 0 0 0 0 0 0 0 0 0 0 0 0 0 0 0 0 0 0 0 0 0 0 0 0 0 0 0 0 0 0 0 0 0 0 0 0 0 0 0 0 0 0 0 0 0 0 0 0 0 0 0 0 0 0 0 0 0 0 0 0 0 0 0 0 0 0 0 0 0 0 0 0 0 0 0 0 0 0 0 0 0 0 0 0 0 0 0 0 0 0 0 
0 0 0 0 0 0 0 0 0 0 0 0 0 -1.385652e-01 8.590342e-02 -2.785113e-01 3.442779e-01 -3.962475e-01 5.038261e-01 -3.717011e-01 4.051351e-01 0 0 0 0 0 0 0 0 0 0 0 0 0 0 0 0 0 0 0 0 0 0 0 0 0 0 0 0 0 0 0 0 0 0 0 0 0 0 0 0 0 0 0 0 0 0 0 0 0 0 0 0 0 0 0 0 0 0 0 0 0 0 0 0 0 0 0 0 0 0 0 0 0 0 0 0 0 0 0 0 0 0 0 0 0 0 0 0 0 0 0 0 0 0 0 0 0 0 0 0 0 0 0 0 0 0 0 
0 0 0 0 0 3.126478e-02 -3.319238e-02 -2.008038e-02 -3.612733e-02 -3.561113e-02 -4.420407e-02 -4.417452e-02 -5.246789e-02 -1.311839e+00 7.171149e-01 9.077484e-01 1.072822e+00 -7.959348e-01 1.471095e+00 -2.411102e+00 1.852027e+00 5.479391e-01 5.366112e-01 5.364822e-01 5.343454e-01 5.262563e-01 5.302810e-01 5.145220e-01 5.214066e-01 5.000451e-01 5.084089e-01 4.854465e-01 4.949946e-01 4.738964e-01 4.829567e-01 4.646891e-01 4.707271e-01 4.559293e-01 4.581299e-01 4.479653e-01 4.463660e-01 4.408670e-01 4.348530e-01 4.320788e-01 4.204222e-01 4.184549e-01 4.027278e-01 4.031320e-01 3.882633e-01 3.934128e-01 3.826585e-01 3.911285e-01 3.828659e-01 3.888492e-01 3.789039e-01 3.780073e-01 3.669241e-01 3.616909e-01 3.552774e-01 3.502190e-01 3.518514e-01 3.482154e-01 3.532814e-01 3.474378e-01 3.504544e-01 3.400892e-01 3.424932e-01 3.298019e-01 3.340046e-01 3.222435e-01 3.258648e-01 3.155121e-01 3.153486e-01 3.056349e-01 3.006844e-01 2.940379e-01 2.865838e-01 2.856779e-01 2.763726e-01 2.800897e-01 2.670062e-01 2.720661e-01 2.539997e-01 2.589016e-01 2.386053e-01 2.444111e-01 2.257596e-01 2.316698e-01 2.161368e-01 2.191721e-01 2.071589e-01 2.044988e-01 1.973478e-01 1.888615e-01 1.896083e-01 1.759864e-01 1.844303e-01 1.633459e-01 1.758869e-01 1.461230e-01 1.609227e-01 1.260713e-01 1.443556e-01 1.113902e-01 1.335185e-01 1.064108e-01 1.267212e-01 1.045575e-01 1.148867e-01 9.714303e-02 9.301233e-02 8.357873e-02 6.715373e-02 7.262527e-02 4.736955e-02 6.847523e-02 3.396463e-02 6.519756e-02 2.196235e-02 5.674804e-02 1.293304e-02 4.433818e-02 -3.798056e-03 -5.683771e-02 0 0 0 0 
0 0 0 0 0 7.017262e-01 -7.509653e-01 -4.611866e-01 -8.185556e-01 -8.034726e-01 -9.955246e-01 -9.944981e-01 -1.180553e+00 -2.137277e+00 2.279936e+00 1.932865e+00 5.830829e+00 5.167446e+00 9.576035e+00 8.239604e+00 1.330306e+01 1.229963e+01 1.204511e+01 1.204208e+01 1.199409e+01 1.181264e+01 1.190312e+01 1.154967e+01 1.170441e+01 1.122523e+01 1.141315e+01 1.089795e+01 1.111235e+01 1.063888e+01 1.084223e+01 1.043219e+01 1.056765e+01 1.023544e+01 1.028476e+01 1.005654e+01 1.002061e+01 9.897160e+00 9.762189e+00 9.699947e+00 9.438370e+00 9.394266e+00 9.041338e+00 9.050468e+00 8.716781e+00 8.832407e+00 8.591036e+00 8.781162e+00 8.595686e+00 8.729970e+00 8.506702e+00 8.486551e+00 8.237738e+00 8.120259e+00 7.976285e+00 7.862749e+00 7.899409e+00 7.817813e+00 7.931559e+00 7.800411e+00 7.868145e+00 7.635489e+00 7.689456e+00 7.404559e+00 7.498878e+00 7.234833e+00 7.316084e+00 7.083639e+00 7.079934e+00 6.861837e+00 6.750696e+00 6.601484e+00 6.434172e+00 6.413864e+00 6.205019e+00 6.288511e+00 5.994845e+00 6.108464e+00 5.702895e+00 5.812919e+00 5.357213e+00 5.487466e+00 5.068613e+00 5.201162e+00 4.852286e+00 4.920301e+00 4.650475e+00 4.590700e+00 4.430127e+00 4.239662e+00 4.256525e+00 3.950857e+00 4.140603e+00 3.667407e+00 3.949095e+00 3.280902e+00 3.613124e+00 2.830427e+00 3.240608e+00 2.499923e+00 2.996121e+00 2.386725e+00 2.841964e+00 2.343557e+00 2.574839e+00 2.175921e+00 2.082987e+00 1.871157e+00 1.502755e+00 1.626210e+00 1.060010e+00 1.534895e+00 7.608537e-01 1.462128e+00 4.879198e-01 1.253171e+00 2.004507e-01 8.768364e-01 -1.326174e-01 -1.277839e+00 0 0 0 0 
0 0 0 0 0 1.015773e+00 -1.088566e+00 -6.702484e-01 -1.186841e+00 -1.164119e+00 -1.441915e+00 -1.440337e+00 -1.709636e+00 -8.598351e-01 2.192871e+00 2.358202e+00 6.877143e+00 9.430396e+00 1.168559e+01 1.618662e+01 1.672506e+01 1.780447e+01 1.743599e+01 1.743156e+01 1.736209e+01 1.709946e+01 1.723047e+01 1.671891e+01 1.694295e+01 1.624939e+01 1.652145e+01 1.577574e+01 1.608612e+01 1.540076e+01 1.569513e+01 1.510156e+01 1.529763e+01 1.481672e+01 1.488809e+01 1.455773e+01 1.450571e+01 1.432700e+01 1.413163e+01 1.404154e+01 1.366291e+01 1.359908e+01 1.308822e+01 1.310145e+01 1.261844e+01 1.278582e+01 1.243643e+01 1.271165e+01 1.244316e+01 1.263754e+01 1.231434e+01 1.228516e+01 1.192498e+01 1.175492e+01 1.154651e+01 1.138216e+01 1.143523e+01 1.131712e+01 1.148178e+01 1.129195e+01 1.139000e+01 1.105322e+01 1.113134e+01 1.071893e+01 1.085546e+01 1.047323e+01 1.059083e+01 1.025434e+01 1.024897e+01 9.933246e+00 9.772358e+00 9.556360e+00 9.314168e+00 9.284777e+00 8.982469e+00 9.103343e+00 8.678249e+00 8.842729e+00 8.255635e+00 8.414899e+00 7.755207e+00 7.943740e+00 7.337377e+00 7.529221e+00 7.024148e+00 7.122575e+00 6.731943e+00 6.645399e+00 6.412945e+00 6.137243e+00 6.161679e+00 5.719232e+00 5.993952e+00 5.308995e+00 5.716800e+00 4.749530e+00 5.230444e+00 4.097344e+00 4.691043e+00 3.618676e+00 4.336823e+00 3.454454e+00 4.113271e+00 3.391566e+00 3.726215e+00 3.148598e+00 3.014015e+00 2.707360e+00 2.174149e+00 2.353020e+00 1.533593e+00 2.221304e+00 1.100988e+00 2.116174e+00 7.050063e-01 1.808795e+00 2.673468e-01 1.239206e+00 -2.039968e-01 -1.850259e+00 0 0 0 0 
0 0 0 0 0 3.453112e-01 -3.707929e-01 -2.291422e-01 -4.044129e-01 -3.962580e-01 -4.905941e-01 -4.900130e-01 -5.815506e-01 -2.926002e-01 7.453896e-01 8.016668e-01 2.338059e+00 3.206118e+00 3.972773e+00 5.502873e+00 5.685890e+00 6.052783e+00 5.927485e+00 5.925963e+00 5.902343e+00 5.813076e+00 5.857632e+00 5.683756e+00 5.759947e+00 5.524206e+00 5.616714e+00 5.363233e+00 5.468759e+00 5.235781e+00 5.335850e+00 5.134064e+00 5.200709e+00 5.037214e+00 5.061469e+00 4.949152e+00 4.931463e+00 4.870709e+00 4.804294e+00 4.773670e+00 4.644962e+00 4.623270e+00 4.449610e+00 4.454115e+00 4.289919e+00 4.346827e+00 4.228052e+00 4.321616e+00 4.230340e+00 4.296417e+00 4.186540e+00 4.176618e+00 4.054169e+00 3.996354e+00 3.925501e+00 3.869630e+00 3.887675e+00 3.847525e+00 3.903507e+00 3.838973e+00 3.872309e+00 3.757819e+00 3.784378e+00 3.644174e+00 3.690586e+00 3.560637e+00 3.600614e+00 3.486213e+00 3.484382e+00 3.377044e+00 3.322346e+00 3.248913e+00 3.166580e+00 3.156591e+00 3.053823e+00 3.094922e+00 2.950410e+00 3.006331e+00 2.806740e+00 2.860882e+00 2.636600e+00 2.700685e+00 2.494524e+00 2.559729e+00 2.387999e+00 2.421446e+00 2.288627e+00 2.259197e+00 2.180166e+00 2.086442e+00 2.094762e+00 1.944361e+00 2.037780e+00 1.804933e+00 1.943592e+00 1.614751e+00 1.778243e+00 1.392988e+00 1.594791e+00 1.230143e+00 1.474220e+00 1.174139e+00 1.398027e+00 1.152567e+00 1.266263e+00 1.069820e+00 1.024041e+00 9.197820e-01 7.385484e-01 7.994352e-01 5.209522e-01 7.548839e-01 3.740994e-01 7.192434e-01 2.390488e-01 6.123725e-01 7.982915e-02 4.067081e-01 -7.517748e-02 -6.292575e-01 0 0 0 0 
0 0 0 0 0 0 0 0 0 0 0 0 0 0 0 0 0 0 0 0 0 0 0 0 0 0 0 0 0 0 0 0 0 0 0 0 0 0 0 0 0 0 0 0 0 0 0 0 0 0 0 0 0 0 0 0 0 0 0 0 0 0 0 0 0 0 0 0 0 0 0 0 0 0 0 0 0 0 0 0 0 0 0 0 0 0 0 0 0 0 0 0 0 0 0 0 0 0 0 0 0 0 0 0 0 0 0 0 0 0 0 0 0 0 0 0 0 0 0 0 0 0 0 0 0 0 0 0 
