# vtk DataFile Version 2.0
Comment goes here
ASCII

DATASET STRUCTURED_POINTS
FIELD FieldData 1
TIME 1 1 double
0.79000000
DIMENSIONS    128   16   1

ORIGIN    0.000   0.000   0.000
SPACING   0.0078125 0.015625   1.000

POINT_DATA   2048
SCALARS Omega double
LOOKUP_TABLE default

-3.240762e-06 -4.324963e-06 -4.376189e-06 -1.854827e-06 -5.426694e-06 -3.251681e-05 -8.596459e-06 7.720360e-06 -1.989682e-05 -3.299578e-06 -7.226588e-06 1.201165e-05 -2.262751e-05 -9.353204e-06 -1.409941e-05 4.995127e-05 -4.241635e-06 4.867829e-05 7.020934e-06 3.409539e-05 1.458015e-04 2.895924e-05 -6.063389e-05 -4.869794e-05 -6.393734e-05 -5.811588e-05 -7.340215e-05 -7.739418e-05 -8.235903e-05 -9.807991e-05 -9.572863e-05 -1.247946e-04 -1.171234e-04 -1.580111e-04 -1.461532e-04 -1.943656e-04 -1.775342e-04 -2.220130e-04 -1.951830e-04 -2.162706e-04 -1.658361e-04 -1.381137e-04 -4.223560e-05 5.726712e-05 2.177122e-04 3.942458e-04 6.158211e-04 8.298899e-04 1.035298e-03 1.109088e-03 1.011072e-03 4.627161e-04 -1.340993e-03 -8.083770e-03 -2.387723e-02 -3.122274e-02 1.008762e-02 -7.367991e-03 -6.524403e-02 -8.663799e-03 -2.697530e-02 -6.487191e-02 -1.714574e-02 -7.344604e-02 -5.691919e-02 -2.771946e-02 -7.420021e-02 1.682501e-02 6.209279e-02 1.348679e-02 9.921268e-03 1.106041e-02 3.942350e-03 7.972449e-03 1.630466e-02 1.500139e-02 1.164761e-02 9.123772e-03 6.972270e-03 5.187562e-03 3.451019e-03 2.239967e-03 1.131332e-03 5.608208e-04 1.067856e-05 -1.216240e-04 -3.397036e-04 -2.668379e-04 -3.447838e-04 -2.169451e-04 -2.570704e-04 -1.386939e-04 -1.754061e-04 -8.252821e-05 -1.192292e-04 -4.961438e-05 -8.292310e-05 -3.030797e-05 -5.744842e-05 -1.802102e-05 -3.742318e-05 -9.168560e-06 -2.167161e-05 -3.066640e-06 -9.925476e-06 -4.327651e-07 -2.650941e-06 -1.732896e-06 1.962483e-07 -6.766963e-06 -2.353674e-07 -1.387308e-05 -2.049796e-06 -2.070062e-05 -2.223237e-06 -2.425625e-05 2.099730e-06 -2.143971e-05 1.474359e-05 -5.341220e-06 4.503555e-05 1.011416e-05 6.115793e-05 1.282731e-05 -1.596349e-05 -9.907334e-06 -3.761474e-06 -2.989632e-06 
-4.273751e-03 -6.396545e-03 -3.017631e-03 3.639408e-02 1.159782e-02 -9.544225e-01 -6.684941e-01 -1.525109e-01 -4.803019e-01 -2.932600e-01 -3.921127e-01 -3.733667e-02 3.798265e-01 1.188140e+00 1.651685e+00 1.669957e+00 1.445805e+00 1.660079e+00 1.476529e+00 1.572474e+00 1.375411e+00 3.165534e-01 -1.147776e-01 -3.449931e-01 -3.273304e-01 -3.617879e-01 -3.252950e-01 -3.628437e-01 -3.293347e-01 -3.643462e-01 -3.327277e-01 -3.641728e-01 -3.356846e-01 -3.628168e-01 -3.383835e-01 -3.606017e-01 -3.409245e-01 -3.577742e-01 -3.432304e-01 -3.545868e-01 -3.451016e-01 -3.511647e-01 -3.463163e-01 -3.474522e-01 -3.465942e-01 -3.431883e-01 -3.454826e-01 -3.378709e-01 -3.422726e-01 -3.307719e-01 -3.360755e-01 -3.220756e-01 -3.335836e-01 -3.415913e-01 -3.562836e-01 -4.162956e-02 8.728878e-01 3.093097e-01 -6.465055e-01 9.606705e-01 4.096460e-01 -7.387051e-02 1.233027e+00 -1.810471e-01 7.600845e-01 1.240145e+00 -2.991898e-01 1.710611e+00 5.222970e-01 -2.855135e+00 -2.118400e+00 -4.268137e-01 -2.192367e-01 -4.335181e-01 -3.343442e-01 -3.136604e-01 -3.101850e-01 -3.280183e-01 -3.273198e-01 -3.372515e-01 -3.370681e-01 -3.415857e-01 -3.430562e-01 -3.433413e-01 -3.465016e-01 -3.437476e-01 -3.483731e-01 -3.436212e-01 -3.493006e-01 -3.434572e-01 -3.495992e-01 -3.435547e-01 -3.493182e-01 -3.441447e-01 -3.483381e-01 -3.454044e-01 -3.466069e-01 -3.473542e-01 -3.441563e-01 -3.500076e-01 -3.410030e-01 -3.532955e-01 -3.373532e-01 -3.569211e-01 -3.335461e-01 -3.604954e-01 -3.300060e-01 -3.634823e-01 -3.272937e-01 -3.652414e-01 -3.259416e-01 -3.650586e-01 -3.264092e-01 -3.621262e-01 -3.287365e-01 -3.555520e-01 -3.320408e-01 -3.442007e-01 -3.328726e-01 -3.256928e-01 -3.163908e-01 -3.539376e-01 -7.185785e-01 -3.334569e-01 -4.909890e-02 -2.789689e-02 -1.369541e-02 -5.519831e-03 
-4.384051e-03 -1.291516e-02 1.888444e-02 3.685947e-01 9.770781e-01 -1.955916e+00 -1.350842e+00 2.525234e-01 -8.314507e-01 -2.669889e-01 -5.968401e-01 -3.990293e-02 -4.595565e-01 -3.210278e-01 -9.890929e-01 -7.676775e-01 -8.423130e-01 -7.372118e-01 -8.545278e-01 -8.242245e-01 -3.958012e-01 -5.386402e-01 -2.650590e-01 -4.781664e-01 -4.641211e-01 -5.077286e-01 -4.446723e-01 -5.035938e-01 -4.328369e-01 -5.069272e-01 -4.261754e-01 -5.106191e-01 -4.218945e-01 -5.117465e-01 -4.193724e-01 -5.095855e-01 -4.190657e-01 -5.042411e-01 -4.217644e-01 -4.972802e-01 -4.280883e-01 -4.893659e-01 -4.372804e-01 -4.804835e-01 -4.482831e-01 -4.700655e-01 -4.589446e-01 -4.577049e-01 -4.688119e-01 -4.463914e-01 -4.804791e-01 -4.429161e-01 -5.069813e-01 -4.832029e-01 -5.123851e-01 1.319366e-01 1.711767e+00 1.401851e+00 -5.667774e-01 8.426334e-01 2.626368e-01 -5.199890e-01 9.691270e-01 -7.103430e-01 -2.368271e-03 6.556593e-01 -1.430436e+00 4.375745e-01 3.397793e-01 -1.499817e+00 -3.867894e-01 -1.117467e-01 -6.741919e-01 -6.723850e-01 -3.957535e-01 -4.014814e-01 -3.682367e-01 -4.326280e-01 -4.006804e-01 -4.401975e-01 -4.160379e-01 -4.373716e-01 -4.287314e-01 -4.329329e-01 -4.406781e-01 -4.277030e-01 -4.504797e-01 -4.208751e-01 -4.567350e-01 -4.133329e-01 -4.604737e-01 -4.080106e-01 -4.624283e-01 -4.065518e-01 -4.614335e-01 -4.094929e-01 -4.560135e-01 -4.164921e-01 -4.454876e-01 -4.281061e-01 -4.304411e-01 -4.445180e-01 -4.117752e-01 -4.644297e-01 -3.910313e-01 -4.854342e-01 -3.695495e-01 -5.041280e-01 -3.506892e-01 -5.184411e-01 -3.388643e-01 -5.251706e-01 -3.372223e-01 -5.205814e-01 -3.482401e-01 -5.011265e-01 -3.714451e-01 -4.624765e-01 -4.002642e-01 -3.972796e-01 -4.012376e-01 -3.878037e-01 -1.557191e+00 2.316099e-01 7.947471e-01 -1.398993e-03 -5.258418e-02 -1.265066e-02 
-1.455946e-04 -2.742257e-02 2.900053e-02 8.567544e-01 3.098072e+00 1.253600e+00 1.631755e-01 1.344394e+00 6.655906e-01 9.417587e-01 6.600986e-01 5.048379e-01 4.214261e-01 2.160512e-01 4.957850e-01 2.822184e-01 4.003754e-01 2.525049e-01 4.044204e-01 4.139719e-01 1.974589e-01 6.303645e-01 4.839599e-01 8.042463e-01 7.564072e-01 8.991551e-01 8.315002e-01 9.126985e-01 8.803759e-01 9.045124e-01 9.151367e-01 8.876845e-01 9.428338e-01 8.721034e-01 9.654277e-01 8.612584e-01 9.817043e-01 8.559461e-01 9.883494e-01 8.529611e-01 9.818106e-01 8.509972e-01 9.625438e-01 8.495313e-01 9.314599e-01 8.481570e-01 8.912382e-01 8.439010e-01 8.367828e-01 8.202716e-01 7.490769e-01 7.484368e-01 6.030421e-01 6.075361e-01 3.643476e-01 7.133416e-02 -1.002539e+00 -6.107556e-01 1.876137e-01 -7.137092e-01 -4.214538e-01 1.883595e-01 -8.898389e-01 3.163268e-01 -2.539913e-01 -6.374709e-01 9.433591e-01 -5.325614e-01 1.766713e-01 2.135645e+00 1.552760e+00 1.059106e+00 1.254803e+00 1.062048e+00 9.495529e-01 8.297669e-01 9.137566e-01 8.571189e-01 9.443668e-01 8.987544e-01 9.644551e-01 9.322590e-01 9.654159e-01 9.545571e-01 9.531784e-01 9.726582e-01 9.378968e-01 9.934223e-01 9.267960e-01 1.016554e+00 9.183449e-01 1.034928e+00 9.105978e-01 1.045143e+00 9.062743e-01 1.046815e+00 9.096053e-01 1.040964e+00 9.230867e-01 1.025901e+00 9.453027e-01 1.000506e+00 9.752428e-01 9.664063e-01 1.010952e+00 9.279748e-01 1.051615e+00 8.916148e-01 1.091452e+00 8.592811e-01 1.121408e+00 8.360687e-01 1.135910e+00 8.285933e-01 1.129043e+00 8.430987e-01 1.097493e+00 8.856686e-01 1.036798e+00 9.569309e-01 9.320840e-01 1.019918e+00 2.164166e-01 3.239207e+00 2.732990e+00 1.327987e-01 -8.865498e-02 -1.492040e-02 
6.341710e-03 -1.060305e-02 3.589190e-02 6.613680e-01 2.682554e+00 4.396841e+00 1.947830e+00 1.220364e+00 1.918359e+00 1.502812e+00 1.771383e+00 1.445727e+00 1.774351e+00 1.572747e+00 1.719809e+00 1.598898e+00 1.717162e+00 1.644646e+00 1.668953e+00 1.673716e+00 1.661255e+00 1.633469e+00 1.548720e+00 1.775483e+00 1.594659e+00 1.816521e+00 1.660297e+00 1.834267e+00 1.704046e+00 1.829312e+00 1.735554e+00 1.814157e+00 1.761663e+00 1.797114e+00 1.784121e+00 1.781361e+00 1.802175e+00 1.767875e+00 1.813017e+00 1.754944e+00 1.813308e+00 1.741786e+00 1.802441e+00 1.727596e+00 1.779912e+00 1.710947e+00 1.745731e+00 1.687628e+00 1.693146e+00 1.642236e+00 1.602845e+00 1.546363e+00 1.440102e+00 1.347836e+00 1.112020e+00 9.447843e-01 7.147310e-01 4.637038e-01 7.079821e-01 1.095804e+00 8.980972e-01 1.139377e+00 1.101586e+00 1.044612e+00 1.432577e+00 1.169636e+00 1.194499e+00 1.673822e+00 1.231378e+00 2.116893e-01 3.323452e-01 7.337037e-01 1.002427e+00 1.289397e+00 1.500284e+00 1.575503e+00 1.646798e+00 1.663203e+00 1.723023e+00 1.722606e+00 1.770353e+00 1.760555e+00 1.791767e+00 1.783195e+00 1.796157e+00 1.799584e+00 1.793225e+00 1.816533e+00 1.789471e+00 1.834962e+00 1.784715e+00 1.850697e+00 1.777945e+00 1.862058e+00 1.770956e+00 1.869278e+00 1.766857e+00 1.872961e+00 1.767811e+00 1.871795e+00 1.773146e+00 1.864635e+00 1.783035e+00 1.851539e+00 1.797381e+00 1.834310e+00 1.817027e+00 1.815805e+00 1.839749e+00 1.795677e+00 1.860928e+00 1.775814e+00 1.878334e+00 1.759513e+00 1.889022e+00 1.751066e+00 1.891410e+00 1.757973e+00 1.883939e+00 1.796176e+00 1.868266e+00 2.029824e+00 2.759534e+00 3.620087e+00 1.822004e+00 -7.373933e-02 -9.629731e-02 -1.205610e-02 
4.690697e-03 2.161074e-04 -2.422307e-02 7.641449e-03 5.292101e-01 2.403303e+00 1.245458e+00 2.543464e-01 9.345851e-01 6.124514e-01 9.413491e-01 9.660529e-01 1.059272e+00 9.563900e-01 8.660040e-01 8.601876e-01 8.678436e-01 8.627372e-01 8.645243e-01 8.677416e-01 1.001335e+00 9.862088e-01 8.829393e-01 8.080488e-01 7.265130e-01 8.214275e-01 7.610135e-01 8.365109e-01 7.730743e-01 8.376768e-01 7.794205e-01 8.343698e-01 7.842884e-01 8.292457e-01 7.886861e-01 8.232008e-01 7.926905e-01 8.164471e-01 7.957612e-01 8.089804e-01 7.970514e-01 8.005334e-01 7.956983e-01 7.903804e-01 7.905448e-01 7.771565e-01 7.798043e-01 7.585312e-01 7.603912e-01 7.306839e-01 7.276335e-01 6.869599e-01 6.631174e-01 5.897851e-01 6.580413e-01 1.538228e+00 3.841586e+00 3.429565e+00 9.913230e-01 2.109088e+00 1.790766e+00 7.839049e-01 2.311409e+00 7.105578e-01 1.049742e+00 2.030879e+00 -1.086792e-01 1.277723e+00 1.681909e+00 7.985890e-02 1.150104e+00 1.507702e+00 6.712954e-01 4.671125e-01 6.092084e-01 7.102352e-01 7.088262e-01 7.312733e-01 7.352422e-01 7.533728e-01 7.622642e-01 7.702048e-01 7.810765e-01 7.809068e-01 7.928968e-01 7.878462e-01 7.998662e-01 7.928672e-01 8.035667e-01 7.970233e-01 8.048590e-01 8.008232e-01 8.041821e-01 8.047389e-01 8.017990e-01 8.091537e-01 7.981212e-01 8.140896e-01 7.936071e-01 8.194263e-01 7.884772e-01 8.249096e-01 7.832641e-01 8.299693e-01 7.786651e-01 8.340473e-01 7.754807e-01 8.364694e-01 7.745551e-01 8.364006e-01 7.766049e-01 8.332894e-01 7.826517e-01 8.272157e-01 7.940639e-01 8.200238e-01 8.138479e-01 8.180739e-01 8.492165e-01 8.374646e-01 9.154914e-01 9.789727e-01 1.674628e+00 1.006155e+00 9.472468e-02 -8.709842e-02 -2.960810e-02 -1.019211e-03 
3.105914e-04 4.916995e-03 3.256611e-03 -1.048994e-02 -1.147709e-03 1.542442e-01 1.488653e-01 4.694146e-02 8.342530e-02 8.790622e-02 2.283050e-01 6.700312e-01 1.030131e+00 7.804225e-01 5.551341e-01 5.545924e-01 5.549047e-01 5.546924e-01 5.547744e-01 5.556768e-01 9.633421e-01 1.063317e+00 3.307169e-01 2.752423e-02 2.294544e-02 5.777964e-02 6.718787e-02 7.788935e-02 7.607692e-02 8.127012e-02 7.781004e-02 8.099058e-02 7.771732e-02 7.982193e-02 7.726692e-02 7.854305e-02 7.674498e-02 7.721730e-02 7.603532e-02 7.568070e-02 7.487584e-02 7.365274e-02 7.291020e-02 7.073751e-02 6.968853e-02 6.645740e-02 6.477427e-02 6.053012e-02 5.831815e-02 5.407469e-02 5.343958e-02 5.298794e-02 5.620031e-02 6.665185e-02 1.939413e-01 7.802813e-01 1.709185e+00 1.318145e+00 2.674214e-01 9.976348e-01 8.993571e-01 3.856073e-01 1.319368e+00 5.331910e-01 6.715428e-01 1.469922e+00 4.966481e-01 1.200746e+00 1.325160e+00 1.786211e-02 5.955518e-01 1.861422e+00 1.548038e+00 5.183618e-01 1.581026e-01 1.147466e-01 9.246974e-02 7.674346e-02 6.770539e-02 6.449292e-02 6.420372e-02 6.470953e-02 6.669120e-02 6.754043e-02 6.987880e-02 7.032816e-02 7.250851e-02 7.251615e-02 7.440001e-02 7.409730e-02 7.564068e-02 7.520765e-02 7.637068e-02 7.601146e-02 7.671631e-02 7.664982e-02 7.678168e-02 7.721601e-02 7.664262e-02 7.777265e-02 7.634789e-02 7.834942e-02 7.595014e-02 7.894162e-02 7.550952e-02 7.953235e-02 7.510404e-02 8.010248e-02 7.486220e-02 8.068122e-02 7.501998e-02 8.145818e-02 7.607881e-02 8.301886e-02 7.908658e-02 8.675456e-02 8.602104e-02 9.512050e-02 9.886184e-02 1.085390e-01 1.164776e-01 1.494777e-01 1.922617e-01 4.957576e-02 -3.446275e-02 -2.377342e-02 -9.645810e-03 -3.549098e-03 
-1.973924e-03 -2.729691e-04 1.119372e-03 1.428660e-05 -3.828872e-03 -2.836128e-03 4.306611e-03 4.275167e-03 1.113479e-02 2.667016e-02 9.208961e-02 3.284658e-01 5.038886e-01 3.895730e-01 2.768613e-01 2.767124e-01 2.767122e-01 2.767121e-01 2.767130e-01 2.771416e-01 4.930925e-01 5.441068e-01 1.122317e-01 -5.081903e-02 -4.260751e-02 -2.298997e-02 -1.266726e-02 -7.718276e-03 -5.079326e-03 -3.628632e-03 -2.963954e-03 -2.706718e-03 -2.675875e-03 -2.804541e-03 -2.923820e-03 -3.174386e-03 -3.325061e-03 -3.646768e-03 -3.841080e-03 -4.257585e-03 -4.552828e-03 -5.111334e-03 -5.571325e-03 -6.301221e-03 -6.932894e-03 -7.736118e-03 -8.302479e-03 -8.642021e-03 -8.159857e-03 -6.242989e-03 -1.763502e-03 6.180129e-03 1.583019e-02 3.106545e-02 1.330866e-01 5.940956e-01 1.272010e+00 5.654332e-01 -3.530965e-01 6.740906e-01 1.187143e-01 -1.856369e-01 8.409233e-01 -4.698658e-01 5.152890e-01 6.269771e-01 -8.711088e-01 1.001313e+00 2.448911e-01 -1.005367e+00 4.480637e-01 6.662936e-01 2.770079e-01 2.410624e-01 1.674052e-01 9.921370e-02 5.283869e-02 2.553631e-02 1.012647e-02 1.511165e-03 -3.096368e-03 -5.481685e-03 -6.493618e-03 -6.838967e-03 -6.701984e-03 -6.430118e-03 -5.980783e-03 -5.587190e-03 -5.123655e-03 -4.783877e-03 -4.403905e-03 -4.163906e-03 -3.880724e-03 -3.731953e-03 -3.528186e-03 -3.445089e-03 -3.299682e-03 -3.256064e-03 -3.154703e-03 -3.127843e-03 -3.064554e-03 -3.034826e-03 -3.009930e-03 -2.959043e-03 -2.975819e-03 -2.884205e-03 -2.942880e-03 -2.784018e-03 -2.869331e-03 -2.595191e-03 -2.651349e-03 -2.162175e-03 -2.051308e-03 -1.152281e-03 -6.170963e-04 9.870286e-04 2.249065e-03 4.716910e-03 6.440587e-03 8.535087e-03 8.403172e-03 9.568258e-03 8.144355e-03 -3.381584e-03 -6.104612e-03 -4.065904e-03 -3.511239e-03 -2.928737e-03 
-2.227424e-06 -1.472582e-06 3.681776e-07 9.242526e-07 1.829129e-06 2.109620e-06 2.731757e-06 4.610003e-06 6.429625e-06 1.021612e-05 2.222794e-05 3.443309e-05 -5.330159e-05 -1.140893e-05 -8.164591e-09 2.114673e-10 -6.652440e-11 1.488189e-10 -7.758167e-09 -3.984548e-06 -2.011851e-03 2.880208e-04 8.020614e-05 5.292307e-05 -3.707336e-06 -4.755051e-05 -6.956913e-05 -9.161932e-05 -1.080181e-04 -1.300673e-04 -1.540792e-04 -1.878424e-04 -2.284808e-04 -2.836998e-04 -3.505214e-04 -4.394013e-04 -5.461257e-04 -6.861305e-04 -8.526124e-04 -1.066908e-03 -1.317506e-03 -1.628337e-03 -1.977513e-03 -2.376328e-03 -2.775109e-03 -3.129379e-03 -3.315572e-03 -3.139127e-03 -2.302206e-03 -2.789411e-04 3.557936e-03 9.704015e-03 1.663957e-02 2.414763e-02 7.349416e-02 3.361746e-01 8.499816e-01 5.654488e-01 -1.564265e-01 1.263786e-01 -9.222644e-02 -2.163388e-01 1.742959e-01 -3.918742e-01 5.063263e-02 8.654054e-02 -4.958336e-01 2.074848e-01 -6.394485e-02 -1.142889e-01 6.752144e-01 3.785811e-01 3.840391e-03 9.318118e-02 1.164043e-01 7.953580e-02 4.693363e-02 2.689540e-02 1.483582e-02 7.464654e-03 2.981997e-03 3.477644e-04 -1.144780e-03 -1.897853e-03 -2.207709e-03 -2.231714e-03 -2.099735e-03 -1.880030e-03 -1.628596e-03 -1.375821e-03 -1.139575e-03 -9.319239e-04 -7.519690e-04 -6.039138e-04 -4.798619e-04 -3.816596e-04 -3.004127e-04 -2.377178e-04 -1.859312e-04 -1.467730e-04 -1.143325e-04 -9.026562e-05 -7.028586e-05 -5.574418e-05 -4.373947e-05 -3.515037e-05 -2.822842e-05 -2.328780e-05 -1.952446e-05 -1.667962e-05 -1.469754e-05 -1.283019e-05 -1.160253e-05 -9.907614e-06 -8.761788e-06 -6.784463e-06 -5.554132e-06 -3.380873e-06 -2.675076e-06 -1.196520e-06 -2.344544e-06 -2.381174e-06 -4.601749e-06 -4.807389e-06 -4.649189e-06 -5.848688e-06 -4.311380e-06 -4.328742e-06 
1.969911e-03 2.707909e-04 -1.118309e-03 -1.262875e-05 3.830127e-03 2.839639e-03 -4.304000e-03 -4.270110e-03 -1.112301e-02 -2.664871e-02 -9.203673e-02 -3.284051e-01 -5.041403e-01 -3.895129e-01 -2.768612e-01 -2.767124e-01 -2.767122e-01 -2.767121e-01 -2.767130e-01 -2.771523e-01 -4.985333e-01 -5.452177e-01 -1.123300e-01 5.096056e-02 4.263527e-02 2.290392e-02 1.253025e-02 7.524678e-03 4.851779e-03 3.343622e-03 2.628178e-03 2.285758e-03 2.166289e-03 2.159570e-03 2.128849e-03 2.165075e-03 2.069957e-03 2.056125e-03 1.857585e-03 1.757485e-03 1.443124e-03 1.232608e-03 7.963748e-04 4.666467e-04 -6.776587e-05 -4.598459e-04 -9.568659e-04 -1.168577e-03 -1.221358e-03 -6.373725e-04 6.374934e-04 3.107278e-03 6.366236e-03 8.901416e-03 9.946156e-03 2.155628e-02 5.693886e-02 4.847975e-02 4.789834e-03 1.364189e-02 6.185612e-03 7.109520e-03 1.966656e-02 4.606667e-03 3.269939e-02 2.170338e-02 1.744093e-02 6.190981e-02 6.277098e-02 8.154701e-02 9.192952e-02 6.392857e-02 6.463373e-02 7.148642e-02 5.619083e-02 3.724569e-02 2.348131e-02 1.436674e-02 8.338708e-03 4.476974e-03 2.086515e-03 7.401446e-04 5.157878e-05 -1.700412e-04 -1.307823e-04 9.909042e-05 3.957972e-04 7.530738e-04 1.079815e-03 1.417765e-03 1.679684e-03 1.949642e-03 2.124854e-03 2.325796e-03 2.425672e-03 2.571777e-03 2.618074e-03 2.722337e-03 2.737486e-03 2.806237e-03 2.810801e-03 2.843412e-03 2.855741e-03 2.845656e-03 2.880899e-03 2.815825e-03 2.881977e-03 2.740099e-03 2.827031e-03 2.563693e-03 2.619054e-03 2.137179e-03 2.025443e-03 1.132430e-03 5.976814e-04 -1.000013e-03 -2.259999e-03 -4.720372e-03 -6.442193e-03 -8.530574e-03 -8.402996e-03 -9.563844e-03 -8.149068e-03 3.378045e-03 6.101552e-03 4.057786e-03 3.504860e-03 2.921143e-03 
-3.130520e-04 -4.916784e-03 -3.254174e-03 1.048797e-02 1.159220e-03 -1.541509e-01 -1.488863e-01 -4.703205e-02 -8.338937e-02 -8.792322e-02 -2.282434e-01 -6.699790e-01 -1.030311e+00 -7.803864e-01 -5.551336e-01 -5.545932e-01 -5.549028e-01 -5.546924e-01 -5.547733e-01 -5.556795e-01 -9.665548e-01 -1.062223e+00 -3.306387e-01 -2.757700e-02 -2.307381e-02 -5.801518e-02 -6.748242e-02 -7.825884e-02 -7.653046e-02 -8.179836e-02 -7.848575e-02 -8.177534e-02 -7.874124e-02 -8.103035e-02 -7.884404e-02 -8.044036e-02 -7.919244e-02 -8.021823e-02 -7.985561e-02 -8.041979e-02 -8.086158e-02 -8.110394e-02 -8.227802e-02 -8.236540e-02 -8.421083e-02 -8.430257e-02 -8.673428e-02 -8.690710e-02 -8.972654e-02 -8.986129e-02 -9.264403e-02 -9.234324e-02 -9.446519e-02 -9.352193e-02 -9.546636e-02 -9.486395e-02 -9.540218e-02 -9.436043e-02 -9.789521e-02 -9.586761e-02 -9.761385e-02 -9.773880e-02 -9.682597e-02 -9.678266e-02 -9.502677e-02 -9.287064e-02 -9.054699e-02 -8.456397e-02 -8.033324e-02 -7.732114e-02 -7.468047e-02 -7.349821e-02 -7.265094e-02 -7.573556e-02 -8.005583e-02 -8.412182e-02 -8.645859e-02 -8.787829e-02 -8.833903e-02 -8.810891e-02 -8.763642e-02 -8.658615e-02 -8.583125e-02 -8.449012e-02 -8.379754e-02 -8.244792e-02 -8.196641e-02 -8.075138e-02 -8.050715e-02 -7.949537e-02 -7.942621e-02 -7.866119e-02 -7.864299e-02 -7.818324e-02 -7.805143e-02 -7.799093e-02 -7.755664e-02 -7.802661e-02 -7.708980e-02 -7.824601e-02 -7.661280e-02 -7.860859e-02 -7.611854e-02 -7.907167e-02 -7.562919e-02 -7.958857e-02 -7.520205e-02 -8.012046e-02 -7.494968e-02 -8.068130e-02 -7.510185e-02 -8.144928e-02 -7.615315e-02 -8.300344e-02 -7.914904e-02 -8.672838e-02 -8.606452e-02 -9.507442e-02 -9.887969e-02 -1.084688e-01 -1.164856e-01 -1.493733e-01 -1.922949e-01 -4.960954e-02 3.446215e-02 2.376949e-02 9.646648e-03 3.544740e-03 
-4.692977e-03 -2.152651e-04 2.421328e-02 -7.656459e-03 -5.289183e-01 -2.402075e+00 -1.245590e+00 -2.554004e-01 -9.341281e-01 -6.128144e-01 -9.410790e-01 -9.662010e-01 -1.060028e+00 -9.562059e-01 -8.659915e-01 -8.602064e-01 -8.678025e-01 -8.627374e-01 -8.645039e-01 -8.676659e-01 -1.004665e+00 -9.851553e-01 -8.833525e-01 -8.081068e-01 -7.271408e-01 -8.216489e-01 -7.621849e-01 -8.371008e-01 -7.750020e-01 -8.387480e-01 -7.822010e-01 -8.361216e-01 -7.880450e-01 -8.321525e-01 -7.939664e-01 -8.282323e-01 -8.002522e-01 -8.248098e-01 -8.067052e-01 -8.221118e-01 -8.132625e-01 -8.205968e-01 -8.202830e-01 -8.210098e-01 -8.283523e-01 -8.238994e-01 -8.377236e-01 -8.293463e-01 -8.483231e-01 -8.371552e-01 -8.597496e-01 -8.465646e-01 -8.706024e-01 -8.552272e-01 -8.773028e-01 -8.577503e-01 -8.725830e-01 -8.522351e-01 -8.776544e-01 -8.454326e-01 -8.626367e-01 -8.559483e-01 -8.518206e-01 -8.596489e-01 -8.612625e-01 -8.546874e-01 -8.787749e-01 -8.689414e-01 -8.854842e-01 -9.126836e-01 -9.097846e-01 -9.031599e-01 -8.954856e-01 -8.914157e-01 -8.807167e-01 -8.734561e-01 -8.642984e-01 -8.557547e-01 -8.497537e-01 -8.406467e-01 -8.381546e-01 -8.289297e-01 -8.292763e-01 -8.203544e-01 -8.224247e-01 -8.144717e-01 -8.170553e-01 -8.109200e-01 -8.127169e-01 -8.093908e-01 -8.090006e-01 -8.095831e-01 -8.054112e-01 -8.111136e-01 -8.015016e-01 -8.136987e-01 -7.971123e-01 -8.172050e-01 -7.923682e-01 -8.215486e-01 -7.875347e-01 -8.263328e-01 -7.828533e-01 -8.308856e-01 -7.787241e-01 -8.344696e-01 -7.757895e-01 -8.363637e-01 -7.749641e-01 -8.359897e-01 -7.772051e-01 -8.327691e-01 -7.833731e-01 -8.266670e-01 -7.947790e-01 -8.194374e-01 -8.144004e-01 -8.174299e-01 -8.495699e-01 -8.367980e-01 -9.157220e-01 -9.781268e-01 -1.674693e+00 -1.006728e+00 -9.493425e-02 8.701055e-02 2.960361e-02 1.022732e-03 
-6.343977e-03 1.058930e-02 -3.599275e-02 -6.616573e-01 -2.681856e+00 -4.394937e+00 -1.947987e+00 -1.221755e+00 -1.917578e+00 -1.503292e+00 -1.770880e+00 -1.446214e+00 -1.774816e+00 -1.572741e+00 -1.719677e+00 -1.599180e+00 -1.716888e+00 -1.645139e+00 -1.668518e+00 -1.673960e+00 -1.661897e+00 -1.632983e+00 -1.550998e+00 -1.772685e+00 -1.596223e+00 -1.814151e+00 -1.663987e+00 -1.835760e+00 -1.710994e+00 -1.834918e+00 -1.743272e+00 -1.821195e+00 -1.767003e+00 -1.805953e+00 -1.790311e+00 -1.797622e+00 -1.813976e+00 -1.794558e+00 -1.832505e+00 -1.792902e+00 -1.843424e+00 -1.793680e+00 -1.851584e+00 -1.803839e+00 -1.864580e+00 -1.826115e+00 -1.881907e+00 -1.855092e+00 -1.899932e+00 -1.887450e+00 -1.920670e+00 -1.926136e+00 -1.949872e+00 -1.972622e+00 -1.984517e+00 -2.014268e+00 -2.004988e+00 -2.032254e+00 -2.017770e+00 -2.025535e+00 -2.004627e+00 -2.022768e+00 -1.994823e+00 -2.014813e+00 -1.998066e+00 -2.000036e+00 -2.004377e+00 -1.995660e+00 -2.006454e+00 -2.015504e+00 -2.030998e+00 -1.983645e+00 -2.005921e+00 -1.949779e+00 -1.977529e+00 -1.910197e+00 -1.944658e+00 -1.875798e+00 -1.914077e+00 -1.851779e+00 -1.888939e+00 -1.839778e+00 -1.867581e+00 -1.835593e+00 -1.846070e+00 -1.836265e+00 -1.824768e+00 -1.841543e+00 -1.805536e+00 -1.851339e+00 -1.790653e+00 -1.864204e+00 -1.779299e+00 -1.875008e+00 -1.769250e+00 -1.880184e+00 -1.761427e+00 -1.879951e+00 -1.759819e+00 -1.877096e+00 -1.767353e+00 -1.870895e+00 -1.781342e+00 -1.858241e+00 -1.798560e+00 -1.838423e+00 -1.817061e+00 -1.814085e+00 -1.838075e+00 -1.791480e+00 -1.861554e+00 -1.772703e+00 -1.881909e+00 -1.757856e+00 -1.894035e+00 -1.749587e+00 -1.895027e+00 -1.755408e+00 -1.885369e+00 -1.793550e+00 -1.868188e+00 -2.028187e+00 -2.756116e+00 -3.623120e+00 -1.822727e+00 7.302776e-02 9.612704e-02 1.206010e-02 
1.493275e-04 2.741451e-02 -2.909242e-02 -8.571659e-01 -3.097828e+00 -1.253840e+00 -1.631952e-01 -1.343851e+00 -6.654948e-01 -9.415374e-01 -6.598292e-01 -5.049967e-01 -4.204766e-01 -2.164349e-01 -4.957717e-01 -2.819088e-01 -4.004535e-01 -2.523984e-01 -4.050191e-01 -4.128944e-01 -1.996959e-01 -6.285819e-01 -4.865388e-01 -7.999451e-01 -7.577777e-01 -8.953856e-01 -8.350900e-01 -9.142864e-01 -8.873820e-01 -9.116896e-01 -9.215449e-01 -8.960175e-01 -9.436856e-01 -8.813750e-01 -9.648165e-01 -8.783685e-01 -9.858719e-01 -8.834211e-01 -9.989051e-01 -8.899120e-01 -1.000371e+00 -8.983258e-01 -9.972240e-01 -9.177819e-01 -1.000223e+00 -9.514129e-01 -1.008366e+00 -9.907905e-01 -1.016424e+00 -1.031146e+00 -1.028313e+00 -1.078279e+00 -1.055525e+00 -1.139019e+00 -1.101050e+00 -1.206408e+00 -1.152748e+00 -1.257402e+00 -1.165456e+00 -1.267481e+00 -1.189723e+00 -1.239048e+00 -1.205638e+00 -1.220103e+00 -1.186891e+00 -1.210429e+00 -1.150108e+00 -1.160249e+00 -1.129858e+00 -1.065667e+00 -1.091655e+00 -1.029646e+00 -1.084274e+00 -1.003003e+00 -1.076659e+00 -9.849187e-01 -1.064281e+00 -9.711789e-01 -1.047468e+00 -9.651555e-01 -1.030284e+00 -9.691835e-01 -1.012219e+00 -9.784640e-01 -9.896947e-01 -9.899839e-01 -9.649342e-01 -1.004285e+00 -9.419610e-01 -1.021773e+00 -9.252058e-01 -1.040580e+00 -9.144622e-01 -1.053287e+00 -9.072720e-01 -1.054722e+00 -9.054227e-01 -1.045311e+00 -9.148100e-01 -1.029445e+00 -9.393175e-01 -1.006907e+00 -9.740983e-01 -9.745604e-01 -1.013000e+00 -9.332368e-01 -1.051179e+00 -8.890777e-01 -1.088054e+00 -8.536618e-01 -1.121071e+00 -8.324507e-01 -1.139827e+00 -8.273560e-01 -1.135177e+00 -8.422547e-01 -1.101790e+00 -8.832385e-01 -1.038052e+00 -9.543946e-01 -9.312386e-01 -1.019832e+00 -2.107677e-01 -3.242256e+00 -2.733635e+00 -1.338070e-01 8.838789e-02 1.489680e-02 
4.381225e-03 1.291262e-02 -1.890038e-02 -3.687346e-01 -9.773304e-01 1.954345e+00 1.350810e+00 -2.510973e-01 8.309657e-01 2.675408e-01 5.968252e-01 4.001494e-02 4.588729e-01 3.208006e-01 9.903030e-01 7.672320e-01 8.418518e-01 7.390548e-01 8.519884e-01 8.258776e-01 3.915732e-01 5.391002e-01 2.639200e-01 4.796943e-01 4.639771e-01 5.092633e-01 4.441667e-01 5.033912e-01 4.317764e-01 5.049421e-01 4.261351e-01 5.085671e-01 4.247410e-01 5.099896e-01 4.239597e-01 5.062810e-01 4.234947e-01 4.992787e-01 4.260089e-01 4.918041e-01 4.326329e-01 4.842238e-01 4.409542e-01 4.739070e-01 4.473298e-01 4.601674e-01 4.521203e-01 4.461071e-01 4.569951e-01 4.333151e-01 4.601456e-01 4.191849e-01 4.563400e-01 3.994945e-01 4.414808e-01 3.714659e-01 4.117976e-01 3.409683e-01 4.118322e-01 3.283453e-01 3.803036e-01 3.504643e-01 3.581676e-01 3.594241e-01 3.755633e-01 3.549301e-01 4.102268e-01 3.940510e-01 4.285885e-01 4.921495e-01 4.830154e-01 5.026537e-01 4.706116e-01 4.997199e-01 4.554160e-01 4.864381e-01 4.424970e-01 4.744106e-01 4.358173e-01 4.636788e-01 4.336481e-01 4.530530e-01 4.350051e-01 4.433219e-01 4.399306e-01 4.347633e-01 4.467554e-01 4.267206e-01 4.534223e-01 4.188598e-01 4.578603e-01 4.118408e-01 4.596414e-01 4.083421e-01 4.591797e-01 4.102915e-01 4.555766e-01 4.176418e-01 4.466915e-01 4.288524e-01 4.313096e-01 4.436620e-01 4.115062e-01 4.624898e-01 3.901167e-01 4.840979e-01 3.698606e-01 5.051450e-01 3.522355e-01 5.202571e-01 3.395023e-01 5.260693e-01 3.364238e-01 5.204922e-01 3.466341e-01 5.007997e-01 3.704112e-01 4.626794e-01 4.002730e-01 3.975541e-01 4.020863e-01 3.869363e-01 1.559910e+00 -2.322623e-01 -7.951189e-01 9.082636e-04 5.245457e-02 1.263015e-02 
4.265606e-03 6.389364e-03 3.015518e-03 -3.640421e-02 -1.175271e-02 9.537869e-01 6.684864e-01 1.530137e-01 4.800608e-01 2.934373e-01 3.920558e-01 3.739982e-02 -3.802628e-01 -1.187543e+00 -1.651920e+00 -1.670039e+00 -1.446127e+00 -1.659794e+00 -1.477325e+00 -1.573034e+00 -1.374626e+00 -3.159689e-01 1.147033e-01 3.449788e-01 3.273692e-01 3.618302e-01 3.254667e-01 3.628793e-01 3.297168e-01 3.643805e-01 3.333974e-01 3.642717e-01 3.367005e-01 3.630760e-01 3.398288e-01 3.612038e-01 3.428746e-01 3.590080e-01 3.458871e-01 3.568034e-01 3.488974e-01 3.548777e-01 3.519494e-01 3.534846e-01 3.551098e-01 3.528177e-01 3.584231e-01 3.529668e-01 3.618278e-01 3.538188e-01 3.649689e-01 3.548195e-01 3.669247e-01 3.544232e-01 3.643388e-01 3.470967e-01 3.552929e-01 3.422394e-01 3.567806e-01 3.362949e-01 3.466271e-01 3.394488e-01 3.382071e-01 3.409966e-01 3.416298e-01 3.390587e-01 3.572735e-01 3.600812e-01 3.886184e-01 4.246132e-01 4.236291e-01 4.123090e-01 3.969631e-01 3.922111e-01 3.805533e-01 3.779722e-01 3.687339e-01 3.674647e-01 3.606254e-01 3.595845e-01 3.551110e-01 3.539577e-01 3.518250e-01 3.502725e-01 3.501780e-01 3.479760e-01 3.494948e-01 3.465645e-01 3.492140e-01 3.457442e-01 3.489357e-01 3.454347e-01 3.483812e-01 3.456916e-01 3.473515e-01 3.466129e-01 3.457155e-01 3.482777e-01 3.434091e-01 3.507025e-01 3.404643e-01 3.537735e-01 3.370407e-01 3.572323e-01 3.334279e-01 3.606747e-01 3.300527e-01 3.635513e-01 3.274382e-01 3.652096e-01 3.261405e-01 3.649213e-01 3.266091e-01 3.619015e-01 3.289139e-01 3.552720e-01 3.322016e-01 3.439068e-01 3.330454e-01 3.254133e-01 3.166689e-01 3.536155e-01 7.190758e-01 3.336446e-01 4.899384e-02 2.780874e-02 1.366800e-02 5.509333e-03 
