# vtk DataFile Version 2.0
Comment goes here
ASCII

DATASET STRUCTURED_POINTS
FIELD FieldData 1
TIME 1 1 double
0.43000000
DIMENSIONS    128   16   1

ORIGIN    0.000   0.000   0.000
SPACING   0.0078125 0.015625   1.000

POINT_DATA   2048
SCALARS Omega double
LOOKUP_TABLE default

-5.094328e-07 -5.582582e-06 -1.070061e-05 -1.659498e-05 -2.383772e-05 -2.663229e-05 -1.329120e-05 1.218006e-05 -1.580399e-05 -2.305172e-06 -2.111121e-05 -1.873253e-05 -4.540427e-05 2.026656e-05 1.612821e-05 -6.377688e-05 9.939629e-05 -5.028408e-05 9.688257e-05 1.252373e-04 -2.784994e-04 -2.259932e-05 -3.636787e-06 -3.302958e-05 -5.652969e-05 -4.757953e-05 -3.405434e-05 -4.101916e-05 -2.003708e-05 -3.967084e-05 -1.210242e-05 -3.721699e-05 -2.684166e-06 -2.716993e-05 1.487966e-05 -3.562803e-06 4.898193e-05 4.765542e-05 1.257310e-04 1.685979e-04 3.060756e-04 4.459399e-04 7.084504e-04 1.020978e-03 1.478828e-03 1.981479e-03 2.548971e-03 2.928720e-03 2.965861e-03 2.128925e-03 7.017465e-05 -3.974100e-03 -1.016622e-02 -1.688042e-02 -1.713958e-02 -9.883050e-03 -1.979895e-02 -1.620317e-02 -1.474133e-02 -4.690375e-02 -1.900059e-02 -2.342648e-03 -2.801369e-02 8.510868e-03 -2.710073e-03 -4.725252e-03 4.015693e-02 1.460420e-02 3.291240e-02 8.822678e-02 8.420636e-02 6.730626e-02 6.501067e-02 5.964618e-02 4.570098e-02 3.681473e-02 2.900411e-02 2.044205e-02 1.258414e-02 6.377802e-03 2.323335e-03 -7.601652e-05 -1.070093e-03 -1.420823e-03 -1.222943e-03 -1.036301e-03 -6.673686e-04 -5.187818e-04 -2.543307e-04 -2.218507e-04 -5.787571e-05 -9.193579e-05 1.478720e-05 -3.992164e-05 3.337968e-05 -1.776826e-05 3.126887e-05 -5.585814e-06 2.164631e-05 3.992458e-06 1.149851e-05 1.231494e-05 2.325573e-06 1.946049e-05 -4.238349e-06 2.547273e-05 -8.479999e-06 2.809577e-05 -1.298321e-05 2.389574e-05 -1.944936e-05 1.366057e-05 -2.526316e-05 2.166613e-06 -2.617447e-05 -4.516992e-06 -1.675253e-05 -2.604140e-07 3.634413e-06 1.547711e-05 3.054737e-05 4.133020e-05 3.949241e-05 3.543334e-05 3.890774e-05 2.647993e-05 1.511443e-05 6.364690e-06 
-7.122746e-03 -3.865051e-03 -1.590982e-03 -4.150743e-02 -1.255911e-01 7.020722e-01 1.134466e+00 4.203840e-01 5.249215e-01 4.340029e-01 5.142256e-01 2.825982e-01 -6.060330e-01 -2.250470e+00 -3.029452e+00 -2.755340e+00 -2.758209e+00 -2.844670e+00 -2.644741e+00 -2.921573e+00 -2.374120e+00 -3.998517e-01 3.175431e-01 5.098654e-01 4.685703e-01 5.010216e-01 4.686550e-01 5.013108e-01 4.755204e-01 5.002214e-01 4.805650e-01 4.978212e-01 4.844077e-01 4.947062e-01 4.873025e-01 4.914955e-01 4.895875e-01 4.885302e-01 4.913543e-01 4.860153e-01 4.925290e-01 4.837199e-01 4.930605e-01 4.816807e-01 4.929967e-01 4.796215e-01 4.917917e-01 4.771307e-01 4.886964e-01 4.732559e-01 4.811752e-01 4.641079e-01 4.653579e-01 4.624873e-01 5.008432e-01 3.820347e-01 -2.600235e-01 6.353407e-01 1.065739e+00 -1.283962e+00 -2.030769e-01 2.785546e-01 -1.355759e+00 5.362348e-01 -6.092536e-01 -1.055253e+00 6.964215e-01 -1.442766e+00 -2.439680e-02 3.412528e+00 2.406427e+00 4.033221e-01 1.438870e-01 5.246516e-01 5.319754e-01 5.167263e-01 5.051661e-01 5.038353e-01 4.941290e-01 4.921929e-01 4.856505e-01 4.853810e-01 4.830124e-01 4.827697e-01 4.834480e-01 4.815364e-01 4.846877e-01 4.806085e-01 4.859667e-01 4.797882e-01 4.868301e-01 4.789180e-01 4.873540e-01 4.785889e-01 4.875688e-01 4.788534e-01 4.870235e-01 4.795416e-01 4.855127e-01 4.810216e-01 4.831932e-01 4.835158e-01 4.800996e-01 4.868755e-01 4.760228e-01 4.909842e-01 4.714083e-01 4.959112e-01 4.666922e-01 5.012315e-01 4.623550e-01 5.065475e-01 4.593450e-01 5.116619e-01 4.587020e-01 5.169114e-01 4.619034e-01 5.253294e-01 4.705602e-01 5.481630e-01 4.811393e-01 8.440326e-01 1.093488e+00 1.198731e-01 -3.236913e-02 -1.378261e-02 -1.157336e-02 -9.487825e-03 
-6.585462e-03 1.514704e-02 3.317002e-02 -2.632135e-01 -1.628668e+00 6.326307e-01 2.679599e+00 4.075457e-01 9.605734e-01 6.051352e-01 8.731942e-01 4.250391e-01 -2.159541e-01 4.730725e-01 1.272265e+00 1.198423e+00 1.043868e+00 1.190088e+00 1.053893e+00 1.306175e+00 3.584188e-01 1.075500e-01 4.407490e-01 7.803558e-01 7.075549e-01 7.943664e-01 6.933529e-01 7.811160e-01 6.888276e-01 7.782901e-01 6.980231e-01 7.838717e-01 7.110061e-01 7.818813e-01 7.134461e-01 7.640450e-01 7.051738e-01 7.398112e-01 7.028262e-01 7.296094e-01 7.194270e-01 7.339855e-01 7.421649e-01 7.353752e-01 7.528446e-01 7.210518e-01 7.447303e-01 6.973359e-01 7.344816e-01 6.892391e-01 7.419018e-01 7.066750e-01 7.675242e-01 7.681871e-01 8.620046e-01 4.632327e-01 -1.176719e+00 -5.786450e-01 1.158885e+00 -7.306725e-01 4.232382e-01 1.090527e+00 -8.377358e-01 1.406905e+00 2.960544e-01 -3.761739e-01 1.936914e+00 -3.514162e-01 1.194443e-01 2.354129e+00 1.567335e+00 1.179720e+00 1.089992e+00 7.827450e-01 6.647311e-01 6.994642e-01 6.681308e-01 7.121298e-01 6.666197e-01 7.096480e-01 6.652358e-01 7.073452e-01 6.719133e-01 7.038932e-01 6.805550e-01 6.966144e-01 6.915375e-01 6.891232e-01 7.037497e-01 6.789503e-01 7.119338e-01 6.660617e-01 7.180884e-01 6.564302e-01 7.243448e-01 6.530717e-01 7.292879e-01 6.543611e-01 7.272757e-01 6.574467e-01 7.158040e-01 6.637589e-01 6.979697e-01 6.784909e-01 6.792910e-01 7.045459e-01 6.600618e-01 7.344623e-01 6.339846e-01 7.602549e-01 6.027132e-01 7.810451e-01 5.747960e-01 8.008175e-01 5.619184e-01 8.214890e-01 5.643873e-01 8.375320e-01 5.714887e-01 8.721742e-01 5.503552e-01 1.600028e+00 1.810438e+00 -1.393642e+00 -5.571965e-01 9.266495e-02 3.434886e-02 -5.722869e-03 
3.563974e-04 4.357566e-02 9.857225e-02 -5.280106e-01 -4.303434e+00 -3.848698e+00 -1.294555e-01 -1.708282e+00 -1.046211e+00 -1.375048e+00 -1.025356e+00 -8.193387e-01 -8.601194e-02 -8.962528e-02 -4.832233e-01 -1.998201e-01 -3.080163e-01 -1.575876e-01 -3.460918e-01 -3.688792e-01 -9.958058e-02 -3.132575e-01 -8.342681e-01 -1.111913e+00 -1.216853e+00 -1.265753e+00 -1.344609e+00 -1.331684e+00 -1.420188e+00 -1.342834e+00 -1.436269e+00 -1.315065e+00 -1.428898e+00 -1.301729e+00 -1.444036e+00 -1.332800e+00 -1.485476e+00 -1.383443e+00 -1.505395e+00 -1.395294e+00 -1.464898e+00 -1.364672e+00 -1.400764e+00 -1.343062e+00 -1.366347e+00 -1.365607e+00 -1.377562e+00 -1.412560e+00 -1.384309e+00 -1.411873e+00 -1.323078e+00 -1.326925e+00 -1.192866e+00 -1.191474e+00 -1.043091e+00 -8.567787e-01 1.290271e-02 -4.767411e-01 -1.207205e+00 2.678892e-01 -5.277044e-01 -1.015057e+00 3.876556e-01 -1.277698e+00 -3.670167e-01 -1.179427e-01 -1.749748e+00 -1.753338e-01 -1.109694e+00 -3.435981e+00 -2.874452e+00 -2.038849e+00 -1.737613e+00 -1.650489e+00 -1.640921e+00 -1.536747e+00 -1.593173e+00 -1.486559e+00 -1.582280e+00 -1.470728e+00 -1.573793e+00 -1.459754e+00 -1.552197e+00 -1.457138e+00 -1.530341e+00 -1.466724e+00 -1.503600e+00 -1.478799e+00 -1.474318e+00 -1.501288e+00 -1.454850e+00 -1.532672e+00 -1.439246e+00 -1.559236e+00 -1.421113e+00 -1.572094e+00 -1.401135e+00 -1.574461e+00 -1.394556e+00 -1.577294e+00 -1.410207e+00 -1.577808e+00 -1.439545e+00 -1.559299e+00 -1.464977e+00 -1.512041e+00 -1.489110e+00 -1.458211e+00 -1.533632e+00 -1.417808e+00 -1.596878e+00 -1.390059e+00 -1.659886e+00 -1.360929e+00 -1.694183e+00 -1.325148e+00 -1.706827e+00 -1.317648e+00 -1.741467e+00 -1.352712e+00 -1.865689e+00 -1.137219e+00 -2.491034e+00 -5.258281e+00 -1.483513e+00 3.387036e-01 1.534437e-01 1.765865e-02 
-6.407103e-03 3.541930e-02 1.469771e-01 -4.853788e-02 -2.778987e+00 -5.628435e+00 -3.901921e+00 -2.640839e+00 -2.606267e+00 -2.473122e+00 -2.476662e+00 -2.353022e+00 -2.553385e+00 -2.399318e+00 -2.392989e+00 -2.415968e+00 -2.426299e+00 -2.449893e+00 -2.393093e+00 -2.432982e+00 -2.458967e+00 -2.467499e+00 -2.232548e+00 -2.435255e+00 -2.396165e+00 -2.578169e+00 -2.545616e+00 -2.647513e+00 -2.632217e+00 -2.660315e+00 -2.666196e+00 -2.638340e+00 -2.676877e+00 -2.621926e+00 -2.698326e+00 -2.634799e+00 -2.735080e+00 -2.661402e+00 -2.754913e+00 -2.662359e+00 -2.730865e+00 -2.634167e+00 -2.687971e+00 -2.612253e+00 -2.663060e+00 -2.619895e+00 -2.665518e+00 -2.643196e+00 -2.660648e+00 -2.633833e+00 -2.603825e+00 -2.566399e+00 -2.492088e+00 -2.455132e+00 -2.332323e+00 -2.279326e+00 -1.993257e+00 -1.700747e+00 -2.234048e+00 -2.630883e+00 -2.444203e+00 -2.713207e+00 -2.632429e+00 -2.713918e+00 -2.936743e+00 -2.816535e+00 -2.870586e+00 -3.329382e+00 -2.892624e+00 -1.806603e+00 -1.934958e+00 -2.995306e+00 -3.289018e+00 -3.025687e+00 -2.915202e+00 -2.824848e+00 -2.834221e+00 -2.761493e+00 -2.810575e+00 -2.735695e+00 -2.796921e+00 -2.717115e+00 -2.778451e+00 -2.706241e+00 -2.762073e+00 -2.704809e+00 -2.743690e+00 -2.707035e+00 -2.724624e+00 -2.718678e+00 -2.711753e+00 -2.737671e+00 -2.700694e+00 -2.756054e+00 -2.686827e+00 -2.767409e+00 -2.668987e+00 -2.773051e+00 -2.657258e+00 -2.781610e+00 -2.658618e+00 -2.791609e+00 -2.667571e+00 -2.790598e+00 -2.671476e+00 -2.771154e+00 -2.673904e+00 -2.748643e+00 -2.691379e+00 -2.735239e+00 -2.724165e+00 -2.728894e+00 -2.761789e+00 -2.718741e+00 -2.786467e+00 -2.700086e+00 -2.803729e+00 -2.699470e+00 -2.837682e+00 -2.738010e+00 -2.858271e+00 -3.252252e+00 -5.404438e+00 -4.616381e+00 -1.146892e+00 2.172594e-01 9.989073e-02 -3.851371e-04 
-1.973586e-02 -7.657708e-03 4.397103e-02 1.596756e-01 2.183567e-03 -1.771133e+00 -2.292539e+00 -1.074359e+00 -1.220828e+00 -9.787939e-01 -1.062527e+00 -1.169934e+00 -1.978372e+00 -1.687110e+00 -1.347607e+00 -1.346966e+00 -1.352039e+00 -1.347385e+00 -1.351241e+00 -1.349306e+00 -1.662592e+00 -1.771563e+00 -1.191825e+00 -1.069546e+00 -9.892546e-01 -1.075822e+00 -1.027489e+00 -1.089760e+00 -1.050145e+00 -1.093717e+00 -1.065841e+00 -1.092445e+00 -1.076389e+00 -1.088826e+00 -1.084322e+00 -1.085574e+00 -1.091046e+00 -1.083032e+00 -1.095766e+00 -1.080098e+00 -1.097420e+00 -1.076242e+00 -1.097135e+00 -1.073161e+00 -1.096855e+00 -1.071713e+00 -1.096632e+00 -1.071651e+00 -1.095432e+00 -1.072129e+00 -1.091484e+00 -1.072282e+00 -1.076827e+00 -1.023758e+00 -9.385337e-01 -1.455411e+00 -3.832275e+00 -3.238418e+00 -7.317501e-01 -2.788884e+00 -1.694445e+00 -7.027704e-01 -3.016491e+00 -4.699718e-01 -1.451186e+00 -2.552497e+00 2.697605e-01 -1.989163e+00 -1.934699e+00 1.448056e-01 -8.012608e-01 -5.458954e-01 -3.167912e-01 -8.976520e-01 -1.103064e+00 -1.136303e+00 -1.125104e+00 -1.120146e+00 -1.113412e+00 -1.108336e+00 -1.106073e+00 -1.098286e+00 -1.100273e+00 -1.089575e+00 -1.095959e+00 -1.082451e+00 -1.092928e+00 -1.077435e+00 -1.091119e+00 -1.074832e+00 -1.089740e+00 -1.073786e+00 -1.088225e+00 -1.074552e+00 -1.086101e+00 -1.076557e+00 -1.082393e+00 -1.079309e+00 -1.077314e+00 -1.083678e+00 -1.071644e+00 -1.089734e+00 -1.065372e+00 -1.096361e+00 -1.057729e+00 -1.102800e+00 -1.049880e+00 -1.109707e+00 -1.043417e+00 -1.116688e+00 -1.039101e+00 -1.122756e+00 -1.037706e+00 -1.126464e+00 -1.038727e+00 -1.125844e+00 -1.040357e+00 -1.119912e+00 -1.034089e+00 -1.109202e+00 -9.628556e-01 -1.526828e+00 -2.490122e+00 -8.449027e-01 1.976283e-02 7.472395e-02 -1.207008e-03 -2.164314e-02 
-1.870059e-02 -1.413044e-02 -5.213941e-03 2.325417e-02 6.552726e-02 -3.728011e-02 -1.904038e-01 -1.148447e-01 -7.913772e-02 -1.635770e-02 3.807995e-02 -2.417178e-01 -1.921335e+00 -1.717888e+00 -8.945474e-01 -8.928328e-01 -8.930362e-01 -8.928458e-01 -8.930055e-01 -8.936916e-01 -1.540086e+00 -1.728024e+00 -5.232821e-01 -1.319762e-01 -8.176930e-02 -8.364226e-02 -7.462892e-02 -7.379489e-02 -6.935654e-02 -7.094148e-02 -6.968568e-02 -7.097720e-02 -7.108061e-02 -7.138938e-02 -7.233814e-02 -7.170404e-02 -7.330942e-02 -7.196004e-02 -7.410451e-02 -7.231542e-02 -7.487940e-02 -7.291416e-02 -7.581841e-02 -7.394729e-02 -7.715989e-02 -7.563468e-02 -7.913934e-02 -7.815266e-02 -8.172075e-02 -8.097644e-02 -8.345193e-02 -8.093278e-02 -7.380985e-02 -3.662391e-02 3.842900e-02 -1.864922e-01 -1.348889e+00 -7.325074e-01 7.388844e-01 -9.798918e-01 -3.894208e-01 4.794428e-01 -1.176609e+00 4.562645e-01 -6.238267e-02 -9.818138e-01 6.401992e-01 -6.798127e-01 -3.086898e-01 8.587022e-01 -2.894468e-01 -2.768581e-01 2.470667e-01 1.704868e-01 2.682596e-02 -3.912861e-02 -5.908296e-02 -6.784368e-02 -7.266282e-02 -7.582535e-02 -7.767279e-02 -7.803379e-02 -7.844645e-02 -7.720587e-02 -7.730939e-02 -7.538332e-02 -7.586691e-02 -7.373277e-02 -7.477237e-02 -7.256748e-02 -7.404648e-02 -7.181197e-02 -7.356360e-02 -7.139242e-02 -7.319455e-02 -7.121941e-02 -7.281681e-02 -7.123023e-02 -7.236692e-02 -7.143037e-02 -7.183061e-02 -7.181429e-02 -7.119067e-02 -7.234635e-02 -7.042293e-02 -7.299158e-02 -6.956736e-02 -7.371896e-02 -6.866165e-02 -7.442361e-02 -6.770716e-02 -7.490005e-02 -6.656878e-02 -7.462639e-02 -6.456117e-02 -7.228419e-02 -5.982446e-02 -6.548091e-02 -4.902443e-02 -5.180145e-02 -2.803359e-02 -9.096782e-02 -1.589041e-01 -1.162591e-02 1.328485e-02 -1.169629e-02 -2.390956e-02 -2.213131e-02 
-1.123763e-02 -1.007768e-02 -8.946985e-03 -6.661449e-03 -5.833313e-05 2.747794e-03 -7.980424e-03 -4.596709e-03 1.018637e-02 3.935564e-02 7.879397e-02 -6.081364e-02 -9.735598e-01 -8.777357e-01 -4.471779e-01 -4.462581e-01 -4.462564e-01 -4.462563e-01 -4.462568e-01 -4.466103e-01 -7.566755e-01 -8.526657e-01 -2.479265e-01 -4.883748e-02 -2.598110e-02 -2.253399e-02 -1.655158e-02 -1.216171e-02 -9.606894e-03 -8.301561e-03 -7.775279e-03 -7.473542e-03 -7.549753e-03 -7.495381e-03 -7.720158e-03 -7.688428e-03 -7.935211e-03 -7.891040e-03 -8.145772e-03 -8.113481e-03 -8.393914e-03 -8.412962e-03 -8.744783e-03 -8.853192e-03 -9.251148e-03 -9.445382e-03 -9.829608e-03 -9.903087e-03 -9.819482e-03 -8.935967e-03 -7.027883e-03 -2.968332e-03 7.093849e-03 3.834407e-02 1.019572e-01 -4.759580e-02 -9.295490e-01 -4.108178e-01 7.092705e-01 -7.011349e-01 9.343641e-02 5.927715e-01 -8.965117e-01 7.845607e-01 -1.984261e-01 -6.129741e-01 1.097979e+00 -7.823945e-01 -2.340046e-01 1.430062e+00 7.849890e-01 5.647576e-01 3.973420e-01 1.112950e-01 5.568125e-02 3.590162e-02 2.100460e-02 1.032691e-02 2.945251e-03 -2.144057e-03 -5.639770e-03 -7.834094e-03 -9.113552e-03 -9.637426e-03 -9.801266e-03 -9.630786e-03 -9.461694e-03 -9.145244e-03 -8.980466e-03 -8.696476e-03 -8.611268e-03 -8.379747e-03 -8.364351e-03 -8.169399e-03 -8.201462e-03 -8.030226e-03 -8.091387e-03 -7.939530e-03 -8.013383e-03 -7.882348e-03 -7.952146e-03 -7.848410e-03 -7.897122e-03 -7.831271e-03 -7.840541e-03 -7.824378e-03 -7.774888e-03 -7.819369e-03 -7.690574e-03 -7.796626e-03 -7.554715e-03 -7.685375e-03 -7.245619e-03 -7.263076e-03 -6.411881e-03 -5.996975e-03 -4.363343e-03 -3.167715e-03 -6.420148e-04 9.756272e-04 3.640912e-03 1.010810e-03 -1.262069e-03 -1.210838e-03 -7.613607e-03 -1.186958e-02 -1.291947e-02 -1.214171e-02 
-2.026731e-06 -1.806033e-06 -7.375950e-07 -3.833689e-07 6.102982e-07 6.912762e-07 1.135018e-06 2.767153e-06 5.816178e-06 8.965573e-06 8.538229e-06 -1.817045e-05 -2.517444e-04 6.498772e-05 9.770885e-08 -5.334453e-10 -2.399667e-09 -1.161690e-09 3.465863e-09 4.451695e-06 3.945881e-03 -3.023907e-04 -3.704348e-04 -9.676187e-05 -5.566989e-05 -5.791436e-05 -3.925888e-05 -3.389015e-05 -2.455616e-05 -2.583563e-05 -2.590205e-05 -3.118228e-05 -3.648775e-05 -4.521982e-05 -5.600985e-05 -7.110797e-05 -9.046402e-05 -1.164716e-04 -1.493237e-04 -1.927128e-04 -2.467724e-04 -3.165924e-04 -4.012085e-04 -5.034071e-04 -6.141612e-04 -7.182571e-04 -7.745699e-04 -7.102827e-04 -3.979264e-04 3.621642e-04 1.831593e-03 4.493959e-03 1.045347e-02 2.781787e-02 6.191624e-02 -1.814722e-02 -5.150556e-01 -4.356828e-01 1.726176e-01 -1.370311e-01 1.359461e-01 2.663956e-01 -2.047665e-01 4.303081e-01 4.243108e-02 -9.399595e-02 5.733895e-01 -5.441624e-02 -6.380144e-02 2.050083e-01 7.681208e-02 3.577012e-01 3.214961e-01 7.843011e-02 3.340624e-02 2.815135e-02 2.191546e-02 1.551312e-02 1.026738e-02 6.234531e-03 3.260431e-03 1.218191e-03 -4.107890e-05 -7.219940e-04 -1.000894e-03 -1.053705e-03 -9.778028e-04 -8.598609e-04 -7.256422e-04 -6.052177e-04 -4.961213e-04 -4.069350e-04 -3.306150e-04 -2.693540e-04 -2.179643e-04 -1.767803e-04 -1.428381e-04 -1.157984e-04 -9.380759e-05 -7.636777e-05 -6.203622e-05 -5.077483e-05 -4.128753e-05 -3.407348e-05 -2.768558e-05 -2.304004e-05 -1.869109e-05 -1.590613e-05 -1.336744e-05 -1.211973e-05 -1.097662e-05 -1.034452e-05 -9.711486e-06 -8.775727e-06 -8.283363e-06 -6.867451e-06 -6.928940e-06 -5.600540e-06 -7.019493e-06 -6.511867e-06 -9.193879e-06 -9.342377e-06 -1.213682e-05 -1.317014e-05 -9.679751e-06 -8.739144e-06 -4.691255e-06 -3.887038e-06 
1.123332e-02 1.007543e-02 8.947077e-03 6.664317e-03 6.422654e-05 -2.742161e-03 7.982475e-03 4.597687e-03 -1.017452e-02 -3.933866e-02 -7.877862e-02 6.074976e-02 9.730451e-01 8.778224e-01 4.471781e-01 4.462581e-01 4.462564e-01 4.462563e-01 4.462568e-01 4.466203e-01 7.655454e-01 8.526616e-01 2.473767e-01 4.865872e-02 2.587173e-02 2.240965e-02 1.646103e-02 1.206636e-02 9.526608e-03 8.202124e-03 7.670613e-03 7.338931e-03 7.394160e-03 7.298108e-03 7.480863e-03 7.387327e-03 7.559298e-03 7.420344e-03 7.550693e-03 7.371383e-03 7.453318e-03 7.243450e-03 7.267923e-03 7.029272e-03 6.985238e-03 6.722297e-03 6.618264e-03 6.365765e-03 6.263404e-03 6.129198e-03 6.194367e-03 6.389659e-03 7.050966e-03 9.586648e-03 1.764068e-02 2.912831e-02 2.594632e-02 2.203332e-02 2.292675e-02 1.540095e-02 2.119593e-02 1.854991e-02 1.543795e-02 2.147404e-02 1.259726e-02 2.440251e-02 3.048376e-02 1.844632e-02 2.129626e-02 3.200500e-02 4.960989e-02 5.286949e-02 3.693217e-02 2.815870e-02 2.672555e-02 2.413096e-02 2.026114e-02 1.650636e-02 1.327287e-02 1.068071e-02 8.775367e-03 7.486013e-03 6.782013e-03 6.425979e-03 6.403246e-03 6.448215e-03 6.657555e-03 6.778784e-03 7.014318e-03 7.097049e-03 7.305656e-03 7.331686e-03 7.512496e-03 7.490310e-03 7.650816e-03 7.593597e-03 7.737985e-03 7.659364e-03 7.786594e-03 7.701329e-03 7.806061e-03 7.730568e-03 7.802883e-03 7.753742e-03 7.779518e-03 7.772643e-03 7.735215e-03 7.783555e-03 7.663029e-03 7.768459e-03 7.532145e-03 7.660084e-03 7.225516e-03 7.240584e-03 6.395190e-03 5.979126e-03 4.351003e-03 3.155086e-03 6.324006e-04 -9.855673e-04 -3.652038e-03 -1.022371e-03 1.241261e-03 1.180809e-03 7.588122e-03 1.184668e-02 1.290688e-02 1.213318e-02 
1.869755e-02 1.413319e-02 5.221643e-03 -2.323181e-02 -6.548003e-02 3.730964e-02 1.904521e-01 1.147746e-01 7.921127e-02 1.635435e-02 -3.800413e-02 2.416501e-01 1.920898e+00 1.718198e+00 8.945469e-01 8.928303e-01 8.930276e-01 8.928312e-01 8.929949e-01 8.936790e-01 1.547311e+00 1.726687e+00 5.227336e-01 1.317733e-01 8.164843e-02 8.337684e-02 7.446797e-02 7.353526e-02 6.916700e-02 7.064855e-02 6.938050e-02 7.058261e-02 7.060745e-02 7.086773e-02 7.164378e-02 7.096261e-02 7.225375e-02 7.082433e-02 7.248391e-02 7.052495e-02 7.240668e-02 7.010747e-02 7.205531e-02 6.956244e-02 7.142026e-02 6.884591e-02 7.044710e-02 6.781564e-02 6.890719e-02 6.612971e-02 6.642193e-02 6.341889e-02 6.274924e-02 5.978888e-02 5.915188e-02 5.853672e-02 5.909532e-02 5.730773e-02 5.566659e-02 5.411220e-02 5.410165e-02 5.490875e-02 5.481339e-02 5.589382e-02 5.641073e-02 5.865330e-02 6.113448e-02 6.548320e-02 6.998429e-02 7.574052e-02 7.907469e-02 8.038228e-02 7.904132e-02 7.880027e-02 7.678643e-02 7.509523e-02 7.240318e-02 7.056695e-02 6.874724e-02 6.763193e-02 6.715964e-02 6.676062e-02 6.740292e-02 6.723995e-02 6.852261e-02 6.815686e-02 6.974090e-02 6.896926e-02 7.069837e-02 6.953294e-02 7.135869e-02 6.992444e-02 7.177994e-02 7.022444e-02 7.198239e-02 7.049074e-02 7.198856e-02 7.079405e-02 7.182567e-02 7.118219e-02 7.149629e-02 7.167348e-02 7.099983e-02 7.226993e-02 7.035219e-02 7.295688e-02 6.957521e-02 7.368394e-02 6.870473e-02 7.436978e-02 6.776527e-02 7.482616e-02 6.661747e-02 7.452809e-02 6.458569e-02 7.217778e-02 5.983253e-02 6.539569e-02 4.903528e-02 5.175655e-02 2.805045e-02 9.095048e-02 1.589013e-01 1.158826e-02 -1.332877e-02 1.164608e-02 2.388277e-02 2.211970e-02 
1.972963e-02 7.663911e-03 -4.395072e-02 -1.595682e-01 -1.916500e-03 1.771183e+00 2.293422e+00 1.073775e+00 1.222085e+00 9.788813e-01 1.063585e+00 1.170002e+00 1.978622e+00 1.687738e+00 1.347584e+00 1.346925e+00 1.351869e+00 1.347076e+00 1.351026e+00 1.348805e+00 1.668659e+00 1.766046e+00 1.192354e+00 1.068583e+00 9.895287e-01 1.074314e+00 1.026823e+00 1.088364e+00 1.049474e+00 1.093668e+00 1.065983e+00 1.094285e+00 1.077656e+00 1.092547e+00 1.086147e+00 1.089536e+00 1.091525e+00 1.085595e+00 1.095011e+00 1.082750e+00 1.098744e+00 1.082178e+00 1.102634e+00 1.082492e+00 1.104929e+00 1.082071e+00 1.104730e+00 1.080711e+00 1.102403e+00 1.079107e+00 1.098667e+00 1.077550e+00 1.092680e+00 1.073640e+00 1.081724e+00 1.064669e+00 1.064186e+00 1.050730e+00 1.056502e+00 1.025436e+00 1.030564e+00 1.028211e+00 1.009642e+00 1.025860e+00 1.015403e+00 1.014892e+00 1.034829e+00 1.029818e+00 1.048910e+00 1.080922e+00 1.076681e+00 1.071491e+00 1.064282e+00 1.067708e+00 1.063101e+00 1.066054e+00 1.063736e+00 1.065022e+00 1.065063e+00 1.064096e+00 1.067467e+00 1.064376e+00 1.071716e+00 1.066352e+00 1.077128e+00 1.069008e+00 1.081635e+00 1.070345e+00 1.083134e+00 1.069872e+00 1.082420e+00 1.069951e+00 1.081586e+00 1.072036e+00 1.080616e+00 1.075509e+00 1.078379e+00 1.079439e+00 1.074253e+00 1.083810e+00 1.069004e+00 1.089657e+00 1.063686e+00 1.097008e+00 1.058104e+00 1.104458e+00 1.051388e+00 1.110699e+00 1.044520e+00 1.116530e+00 1.040084e+00 1.122212e+00 1.038701e+00 1.125619e+00 1.039499e+00 1.124877e+00 1.040788e+00 1.118828e+00 1.033986e+00 1.107975e+00 9.622952e-01 1.525677e+00 2.489779e+00 8.451290e-01 -1.957231e-02 -7.474442e-02 1.142442e-03 2.161918e-02 
6.392732e-03 -3.543036e-02 -1.469660e-01 4.882828e-02 2.780249e+00 5.628441e+00 3.902996e+00 2.640273e+00 2.606885e+00 2.472490e+00 2.477585e+00 2.353888e+00 2.554530e+00 2.401199e+00 2.392767e+00 2.417214e+00 2.426061e+00 2.450592e+00 2.393135e+00 2.431657e+00 2.457560e+00 2.461537e+00 2.243742e+00 2.440987e+00 2.401854e+00 2.572554e+00 2.531697e+00 2.628880e+00 2.611427e+00 2.656152e+00 2.671289e+00 2.670649e+00 2.710901e+00 2.673889e+00 2.731988e+00 2.665850e+00 2.728361e+00 2.643254e+00 2.713099e+00 2.638295e+00 2.726682e+00 2.675190e+00 2.765977e+00 2.721881e+00 2.786524e+00 2.733650e+00 2.762517e+00 2.712772e+00 2.728649e+00 2.709458e+00 2.732375e+00 2.750994e+00 2.775334e+00 2.813132e+00 2.815532e+00 2.844841e+00 2.805812e+00 2.820994e+00 2.763878e+00 2.752024e+00 2.709070e+00 2.727823e+00 2.694444e+00 2.737972e+00 2.716448e+00 2.734839e+00 2.718249e+00 2.705317e+00 2.683090e+00 2.682245e+00 2.657820e+00 2.615530e+00 2.633660e+00 2.617864e+00 2.674865e+00 2.656815e+00 2.722741e+00 2.677607e+00 2.729305e+00 2.658032e+00 2.705596e+00 2.639544e+00 2.701783e+00 2.659143e+00 2.725701e+00 2.699177e+00 2.744812e+00 2.723369e+00 2.730346e+00 2.719279e+00 2.694223e+00 2.716067e+00 2.673065e+00 2.737828e+00 2.675528e+00 2.772204e+00 2.678870e+00 2.788242e+00 2.662521e+00 2.780681e+00 2.645691e+00 2.778355e+00 2.654459e+00 2.788187e+00 2.677380e+00 2.784828e+00 2.686544e+00 2.753892e+00 2.689078e+00 2.725852e+00 2.716877e+00 2.721037e+00 2.760945e+00 2.718160e+00 2.793986e+00 2.706833e+00 2.814206e+00 2.703707e+00 2.839606e+00 2.733619e+00 2.852377e+00 3.246604e+00 5.397945e+00 4.616163e+00 1.149157e+00 -2.162184e-01 -9.984486e-02 3.588744e-04 
-3.670996e-04 -4.360960e-02 -9.856962e-02 5.283123e-01 4.304821e+00 3.848469e+00 1.288339e-01 1.708871e+00 1.043807e+00 1.373809e+00 1.024005e+00 8.201377e-01 8.629358e-02 8.851839e-02 4.819108e-01 2.017429e-01 3.100805e-01 1.571647e-01 3.492727e-01 3.587538e-01 1.003510e-01 3.189834e-01 8.494250e-01 1.123036e+00 1.224896e+00 1.260251e+00 1.324251e+00 1.305329e+00 1.388805e+00 1.335342e+00 1.442849e+00 1.359372e+00 1.477150e+00 1.371269e+00 1.489241e+00 1.368026e+00 1.469523e+00 1.343795e+00 1.435559e+00 1.343733e+00 1.445349e+00 1.402722e+00 1.494398e+00 1.474116e+00 1.517644e+00 1.491948e+00 1.476997e+00 1.460148e+00 1.425541e+00 1.454890e+00 1.434886e+00 1.517368e+00 1.509419e+00 1.616294e+00 1.592028e+00 1.682236e+00 1.617694e+00 1.678307e+00 1.571584e+00 1.639228e+00 1.554731e+00 1.594104e+00 1.587928e+00 1.613380e+00 1.605130e+00 1.635778e+00 1.554503e+00 1.553217e+00 1.466388e+00 1.387654e+00 1.366029e+00 1.318906e+00 1.367155e+00 1.334026e+00 1.435568e+00 1.398147e+00 1.508778e+00 1.432918e+00 1.517406e+00 1.406748e+00 1.478318e+00 1.381267e+00 1.466722e+00 1.411562e+00 1.495079e+00 1.471508e+00 1.517017e+00 1.509212e+00 1.492931e+00 1.506680e+00 1.439598e+00 1.503563e+00 1.409030e+00 1.533944e+00 1.415141e+00 1.580330e+00 1.425584e+00 1.596703e+00 1.409909e+00 1.574741e+00 1.396330e+00 1.556766e+00 1.423103e+00 1.553453e+00 1.472998e+00 1.528729e+00 1.504767e+00 1.463465e+00 1.527044e+00 1.403171e+00 1.582835e+00 1.378830e+00 1.655984e+00 1.361988e+00 1.704067e+00 1.338111e+00 1.722269e+00 1.327087e+00 1.744939e+00 1.349190e+00 1.858034e+00 1.130989e+00 2.480983e+00 5.258306e+00 1.487037e+00 -3.372750e-01 -1.533226e-01 -1.768172e-02 
6.578099e-03 -1.517853e-02 -3.321462e-02 2.632443e-01 1.629019e+00 -6.328976e-01 -2.680971e+00 -4.066316e-01 -9.630624e-01 -6.056960e-01 -8.750817e-01 -4.254353e-01 2.142527e-01 -4.734184e-01 -1.270597e+00 -1.201493e+00 -1.039081e+00 -1.192464e+00 -1.052919e+00 -1.304572e+00 -3.536752e-01 -1.093245e-01 -4.352163e-01 -7.749976e-01 -7.047793e-01 -7.951271e-01 -7.003371e-01 -7.899742e-01 -7.001924e-01 -7.817862e-01 -6.963598e-01 -7.702575e-01 -6.954332e-01 -7.613283e-01 -7.003799e-01 -7.572799e-01 -7.145360e-01 -7.605689e-01 -7.324705e-01 -7.565380e-01 -7.346357e-01 -7.333781e-01 -7.224271e-01 -7.070262e-01 -7.182421e-01 -7.005172e-01 -7.354005e-01 -7.122403e-01 -7.545505e-01 -7.148137e-01 -7.504083e-01 -6.940657e-01 -7.212492e-01 -6.591969e-01 -6.845637e-01 -6.303626e-01 -6.585013e-01 -6.175871e-01 -6.665526e-01 -5.995210e-01 -6.407918e-01 -6.209569e-01 -6.032435e-01 -6.144270e-01 -6.074197e-01 -5.950330e-01 -6.528525e-01 -6.422323e-01 -6.987021e-01 -7.619160e-01 -7.599381e-01 -7.676418e-01 -7.400701e-01 -7.570098e-01 -7.123984e-01 -7.319898e-01 -6.856007e-01 -7.181298e-01 -6.821554e-01 -7.248847e-01 -6.956290e-01 -7.308813e-01 -7.000803e-01 -7.175325e-01 -6.915440e-01 -6.944454e-01 -6.856821e-01 -6.789338e-01 -6.948911e-01 -6.769499e-01 -7.135581e-01 -6.761476e-01 -7.243608e-01 -6.652969e-01 -7.217512e-01 -6.501346e-01 -7.162467e-01 -6.469430e-01 -7.183783e-01 -6.590423e-01 -7.182246e-01 -6.719036e-01 -7.023752e-01 -6.816943e-01 -6.768735e-01 -7.004543e-01 -6.560645e-01 -7.338925e-01 -6.378326e-01 -7.658304e-01 -6.092046e-01 -7.849072e-01 -5.774377e-01 -7.996334e-01 -5.590079e-01 -8.155690e-01 -5.589355e-01 -8.327217e-01 -5.699252e-01 -8.719193e-01 -5.524353e-01 -1.600562e+00 -1.814502e+00 1.393424e+00 5.586206e-01 -9.208099e-02 -3.427674e-02 5.724503e-03 
7.118554e-03 3.846058e-03 1.553541e-03 4.144948e-02 1.255058e-01 -7.021923e-01 -1.134934e+00 -4.200812e-01 -5.255989e-01 -4.340552e-01 -5.148138e-01 -2.828542e-01 6.052857e-01 2.250073e+00 3.031579e+00 2.752718e+00 2.761319e+00 2.843914e+00 2.644428e+00 2.926863e+00 2.371284e+00 3.972781e-01 -3.174483e-01 -5.092941e-01 -4.685971e-01 -5.006809e-01 -4.687087e-01 -5.013619e-01 -4.758171e-01 -5.006865e-01 -4.808230e-01 -4.984836e-01 -4.847729e-01 -4.959967e-01 -4.882377e-01 -4.935903e-01 -4.911474e-01 -4.913903e-01 -4.936281e-01 -4.895920e-01 -4.956700e-01 -4.881449e-01 -4.971324e-01 -4.869514e-01 -4.979904e-01 -4.861425e-01 -4.984138e-01 -4.858141e-01 -4.984277e-01 -4.863514e-01 -4.992137e-01 -4.897284e-01 -5.029330e-01 -4.970720e-01 -5.083745e-01 -5.023941e-01 -5.073355e-01 -5.032195e-01 -5.089553e-01 -4.862336e-01 -4.887471e-01 -4.849601e-01 -4.734116e-01 -4.809238e-01 -4.733651e-01 -4.683366e-01 -4.741470e-01 -4.586547e-01 -4.614851e-01 -4.737999e-01 -4.660790e-01 -4.581521e-01 -4.540499e-01 -4.603422e-01 -4.606961e-01 -4.681838e-01 -4.698289e-01 -4.775979e-01 -4.788601e-01 -4.839799e-01 -4.837688e-01 -4.857005e-01 -4.851290e-01 -4.847108e-01 -4.852332e-01 -4.831386e-01 -4.853582e-01 -4.816127e-01 -4.854703e-01 -4.801846e-01 -4.856061e-01 -4.792318e-01 -4.858301e-01 -4.788327e-01 -4.857631e-01 -4.788852e-01 -4.851714e-01 -4.796432e-01 -4.840775e-01 -4.813191e-01 -4.823059e-01 -4.838914e-01 -4.796548e-01 -4.873170e-01 -4.761599e-01 -4.915496e-01 -4.719389e-01 -4.963282e-01 -4.673344e-01 -5.014172e-01 -4.630465e-01 -5.065395e-01 -4.598890e-01 -5.113413e-01 -4.589125e-01 -5.163426e-01 -4.618558e-01 -5.247340e-01 -4.704286e-01 -5.476177e-01 -4.809189e-01 -8.433622e-01 -1.093714e+00 -1.198497e-01 3.257038e-02 1.386733e-02 1.160346e-02 9.499747e-03 
