# vtk DataFile Version 2.0
Comment goes here
ASCII

DATASET STRUCTURED_POINTS
FIELD FieldData 1
TIME 1 1 double
0.39000000
DIMENSIONS    128   16   1

ORIGIN    0.000   0.000   0.000
SPACING   0.0078125 0.015625   1.000

POINT_DATA   2048
SCALARS Omega double
LOOKUP_TABLE default

-1.382584e-06 -4.615191e-06 -8.072785e-06 -9.750280e-06 -1.004299e-05 -2.482144e-05 -4.146896e-06 4.211855e-07 -1.911353e-05 -1.148548e-05 -1.568104e-05 -1.193421e-05 -4.823460e-05 -2.603796e-05 -4.067716e-05 -2.032378e-05 1.477775e-05 -4.466626e-05 2.361506e-05 -7.483816e-06 1.979218e-05 2.607138e-05 -6.428648e-05 -6.484307e-05 -6.368807e-05 -3.272302e-05 -4.261776e-05 -1.965403e-05 -3.490486e-05 -1.715298e-05 -3.058699e-05 -1.536369e-05 -2.016649e-05 -6.189234e-06 5.982141e-07 1.677685e-05 3.896750e-05 6.886201e-05 1.174578e-04 1.903836e-04 2.990319e-04 4.724950e-04 7.096772e-04 1.074018e-03 1.530967e-03 2.143089e-03 2.778431e-03 3.357980e-03 3.500106e-03 2.773941e-03 5.389534e-04 -3.732849e-03 -1.062863e-02 -2.217350e-02 -4.019729e-02 -4.995257e-02 -2.903247e-02 -6.660459e-02 -9.282533e-02 -7.747254e-03 -4.566605e-02 -6.421902e-02 -4.327503e-03 -6.709762e-02 -2.472207e-02 -5.862588e-03 -4.993261e-02 5.747272e-02 5.801902e-02 -2.555403e-02 6.794296e-03 5.628927e-02 5.144004e-02 4.043567e-02 4.619317e-02 4.298956e-02 3.276419e-02 2.144736e-02 1.182998e-02 5.008903e-03 7.069682e-04 -1.362711e-03 -2.204488e-03 -2.114277e-03 -1.859087e-03 -1.351083e-03 -1.050486e-03 -6.679727e-04 -5.241325e-04 -2.987136e-04 -2.628009e-04 -1.288472e-04 -1.397816e-04 -5.497676e-05 -8.077119e-05 -2.189212e-05 -4.802309e-05 -6.811716e-06 -3.086262e-05 -1.774132e-06 -2.138141e-05 6.750033e-07 -1.378520e-05 2.271895e-06 -8.127645e-06 2.939842e-06 -3.992729e-06 1.924144e-06 -2.124810e-06 -2.768359e-06 -4.781529e-06 -1.230461e-05 -9.444182e-06 -2.081914e-05 -1.045375e-05 -2.328274e-05 -2.341938e-06 -1.317791e-05 1.841023e-05 8.673960e-06 4.499917e-05 1.389983e-05 5.416936e-05 5.293688e-05 3.729100e-05 2.594170e-05 1.357255e-05 3.588669e-06 
-6.834965e-03 -9.425429e-03 -6.429914e-03 3.214265e-02 5.399164e-03 -9.638194e-01 -6.765379e-01 -1.593025e-01 -4.853029e-01 -2.964178e-01 -3.922850e-01 -3.569657e-02 3.813548e-01 1.184243e+00 1.646265e+00 1.663862e+00 1.441342e+00 1.653243e+00 1.472845e+00 1.567876e+00 1.371633e+00 3.185858e-01 -1.115378e-01 -3.438269e-01 -3.284201e-01 -3.651377e-01 -3.300162e-01 -3.685345e-01 -3.356254e-01 -3.708525e-01 -3.394382e-01 -3.706852e-01 -3.422489e-01 -3.691245e-01 -3.449185e-01 -3.668959e-01 -3.474243e-01 -3.638221e-01 -3.493641e-01 -3.602593e-01 -3.510411e-01 -3.564368e-01 -3.520086e-01 -3.524013e-01 -3.520639e-01 -3.478789e-01 -3.508181e-01 -3.429940e-01 -3.486175e-01 -3.382202e-01 -3.458819e-01 -3.346163e-01 -3.477516e-01 -3.531388e-01 -3.646190e-01 -1.095681e-01 4.017998e-01 -7.089283e-01 -9.439508e-01 1.436273e+00 1.822695e-01 -3.986285e-02 1.483251e+00 -4.157931e-01 9.820876e-01 1.126970e+00 -5.071376e-01 1.838672e+00 5.737230e-02 -3.192785e+00 -1.492220e+00 6.295457e-01 4.210312e-01 -2.766270e-01 -3.299665e-01 -3.247053e-01 -3.155594e-01 -3.329697e-01 -3.354599e-01 -3.477887e-01 -3.488490e-01 -3.541519e-01 -3.549541e-01 -3.551654e-01 -3.569261e-01 -3.539419e-01 -3.573872e-01 -3.527852e-01 -3.578504e-01 -3.521575e-01 -3.577781e-01 -3.516858e-01 -3.571871e-01 -3.521177e-01 -3.566048e-01 -3.537532e-01 -3.551251e-01 -3.556014e-01 -3.527070e-01 -3.587156e-01 -3.504135e-01 -3.627818e-01 -3.473682e-01 -3.666768e-01 -3.435787e-01 -3.701541e-01 -3.401324e-01 -3.733915e-01 -3.375829e-01 -3.750014e-01 -3.358441e-01 -3.743979e-01 -3.361563e-01 -3.715677e-01 -3.386664e-01 -3.650311e-01 -3.419552e-01 -3.536816e-01 -3.429948e-01 -3.351961e-01 -3.261960e-01 -3.614019e-01 -7.270847e-01 -3.441490e-01 -5.570485e-02 -3.130813e-02 -1.568977e-02 -7.529326e-03 
-1.070650e-02 -1.880261e-02 1.495814e-02 3.674606e-01 9.785376e-01 -1.966343e+00 -1.360116e+00 2.449434e-01 -8.389718e-01 -2.745006e-01 -6.029037e-01 -4.514602e-02 -4.636718e-01 -3.259867e-01 -9.921099e-01 -7.713016e-01 -8.442333e-01 -7.419587e-01 -8.553939e-01 -8.284458e-01 -3.964710e-01 -5.391203e-01 -2.615195e-01 -4.746550e-01 -4.611699e-01 -5.098110e-01 -4.513746e-01 -5.147233e-01 -4.454856e-01 -5.170200e-01 -4.321037e-01 -5.104304e-01 -4.178912e-01 -5.044336e-01 -4.134790e-01 -5.069139e-01 -4.235438e-01 -5.139326e-01 -4.349096e-01 -5.080659e-01 -4.354372e-01 -4.897611e-01 -4.353051e-01 -4.729198e-01 -4.419347e-01 -4.596464e-01 -4.526794e-01 -4.495132e-01 -4.678470e-01 -4.447628e-01 -4.840833e-01 -4.410351e-01 -4.995704e-01 -4.578426e-01 -4.774712e-01 1.057061e-01 1.178487e+00 2.220307e-01 -9.159355e-01 1.062330e+00 -4.471924e-01 -7.227381e-01 9.877174e-01 -1.236921e+00 1.948735e-01 4.642468e-01 -1.657466e+00 7.968756e-01 1.435724e-01 -1.618950e+00 4.398718e-02 5.123826e-01 -2.496688e-01 -5.714030e-01 -4.564362e-01 -4.867387e-01 -4.260539e-01 -4.721873e-01 -4.268032e-01 -4.634047e-01 -4.331366e-01 -4.559099e-01 -4.426383e-01 -4.487476e-01 -4.517211e-01 -4.390476e-01 -4.582493e-01 -4.310900e-01 -4.677082e-01 -4.266428e-01 -4.726073e-01 -4.184358e-01 -4.711068e-01 -4.147171e-01 -4.716713e-01 -4.208586e-01 -4.692986e-01 -4.281550e-01 -4.566512e-01 -4.363665e-01 -4.398658e-01 -4.548003e-01 -4.275272e-01 -4.816585e-01 -4.102484e-01 -5.011502e-01 -3.847371e-01 -5.160873e-01 -3.624330e-01 -5.272179e-01 -3.482681e-01 -5.343732e-01 -3.498402e-01 -5.343014e-01 -3.633740e-01 -5.141633e-01 -3.832414e-01 -4.711470e-01 -4.087498e-01 -4.046196e-01 -4.109305e-01 -3.935916e-01 -1.566669e+00 2.185856e-01 7.918936e-01 -2.872959e-03 -5.534372e-02 -1.757217e-02 
-1.134873e-02 -3.623574e-02 2.740967e-02 8.672844e-01 3.124604e+00 1.260129e+00 1.646356e-01 1.348028e+00 6.646972e-01 9.392842e-01 6.550379e-01 5.018780e-01 4.183060e-01 2.176650e-01 4.950259e-01 2.825339e-01 3.992469e-01 2.518633e-01 4.033612e-01 4.116163e-01 1.974653e-01 6.323072e-01 4.954629e-01 8.177232e-01 7.707851e-01 9.034382e-01 8.246817e-01 8.947601e-01 8.600575e-01 8.918866e-01 9.160593e-01 9.050218e-01 9.719875e-01 9.093307e-01 1.000395e+00 8.853922e-01 9.865220e-01 8.426115e-01 9.656134e-01 8.344486e-01 9.756771e-01 8.614913e-01 9.838851e-01 8.837801e-01 9.675793e-01 8.936730e-01 9.316705e-01 8.918399e-01 8.728972e-01 8.652723e-01 7.885894e-01 8.154074e-01 6.940166e-01 7.579601e-01 5.755298e-01 4.026575e-01 -3.435236e-01 4.484240e-01 7.712902e-01 -7.184482e-01 1.360963e-01 3.908803e-01 -8.766510e-01 6.872169e-01 -3.194753e-01 -4.261921e-01 1.124475e+00 -6.462414e-01 3.478807e-01 2.167571e+00 1.044800e+00 1.852056e-01 4.943468e-01 7.000357e-01 8.163357e-01 7.599269e-01 8.864374e-01 8.400944e-01 9.474476e-01 8.948810e-01 9.694485e-01 9.299658e-01 9.707340e-01 9.552383e-01 9.606602e-01 9.801961e-01 9.493073e-01 1.000237e+00 9.274751e-01 1.012082e+00 9.132918e-01 1.034859e+00 9.132810e-01 1.050431e+00 9.072075e-01 1.045440e+00 9.033923e-01 1.037863e+00 9.232786e-01 1.036226e+00 9.570859e-01 1.010734e+00 9.729766e-01 9.581584e-01 9.985662e-01 9.233208e-01 1.051710e+00 8.997681e-01 1.102750e+00 8.753486e-01 1.136154e+00 8.468748e-01 1.138793e+00 8.251293e-01 1.123459e+00 8.388639e-01 1.098067e+00 8.909575e-01 1.046218e+00 9.657720e-01 9.371204e-01 1.022093e+00 2.163923e-01 3.247642e+00 2.752005e+00 1.419069e-01 -8.972213e-02 -2.324881e-02 
-1.210111e-02 -2.568192e-02 3.045321e-02 6.714046e-01 2.710565e+00 4.415010e+00 1.956693e+00 1.230129e+00 1.923866e+00 1.508156e+00 1.773082e+00 1.447903e+00 1.773444e+00 1.573503e+00 1.719364e+00 1.599409e+00 1.716174e+00 1.644977e+00 1.668722e+00 1.675134e+00 1.658363e+00 1.630338e+00 1.555439e+00 1.784874e+00 1.604794e+00 1.820135e+00 1.656300e+00 1.822557e+00 1.691449e+00 1.821881e+00 1.738254e+00 1.827461e+00 1.783612e+00 1.823912e+00 1.810398e+00 1.799585e+00 1.807955e+00 1.759895e+00 1.798974e+00 1.742705e+00 1.810779e+00 1.749243e+00 1.819400e+00 1.752377e+00 1.808939e+00 1.746253e+00 1.781588e+00 1.731064e+00 1.733895e+00 1.694575e+00 1.657954e+00 1.630792e+00 1.554108e+00 1.526948e+00 1.362155e+00 1.299141e+00 1.139597e+00 8.703127e-01 1.144463e+00 1.593577e+00 1.374451e+00 1.448316e+00 1.468490e+00 1.419932e+00 1.646909e+00 1.454667e+00 1.443661e+00 1.828234e+00 1.402614e+00 3.658681e-01 5.927780e-01 1.344007e+00 1.592613e+00 1.517322e+00 1.575040e+00 1.618925e+00 1.698151e+00 1.703622e+00 1.766581e+00 1.750582e+00 1.798146e+00 1.780143e+00 1.813197e+00 1.801354e+00 1.815490e+00 1.819248e+00 1.812284e+00 1.833577e+00 1.800185e+00 1.842931e+00 1.790070e+00 1.859547e+00 1.787248e+00 1.873812e+00 1.780209e+00 1.877604e+00 1.771940e+00 1.879631e+00 1.777354e+00 1.889288e+00 1.793708e+00 1.884762e+00 1.796044e+00 1.859799e+00 1.803470e+00 1.844633e+00 1.832072e+00 1.835776e+00 1.863071e+00 1.820406e+00 1.885014e+00 1.794927e+00 1.892944e+00 1.768029e+00 1.896879e+00 1.757209e+00 1.901149e+00 1.768515e+00 1.898890e+00 1.809046e+00 1.880627e+00 2.035349e+00 2.769481e+00 3.645901e+00 1.845964e+00 -6.544991e-02 -1.020799e-01 -2.731542e-02 
-1.883103e-02 -2.118360e-02 -3.992203e-02 1.964851e-04 5.306668e-01 2.408100e+00 1.245139e+00 2.530341e-01 9.330800e-01 6.129965e-01 9.429760e-01 9.703853e-01 1.064304e+00 9.579322e-01 8.659297e-01 8.602157e-01 8.678275e-01 8.627876e-01 8.646733e-01 8.679144e-01 1.004821e+00 9.885386e-01 8.832601e-01 8.069928e-01 7.239269e-01 8.174239e-01 7.556960e-01 8.301999e-01 7.668390e-01 8.314652e-01 7.741046e-01 8.291725e-01 7.798574e-01 8.247250e-01 7.848516e-01 8.188059e-01 7.884072e-01 8.110485e-01 7.905857e-01 8.035427e-01 7.930602e-01 7.966170e-01 7.939120e-01 7.891240e-01 7.921038e-01 7.801943e-01 7.867156e-01 7.691828e-01 7.764365e-01 7.533758e-01 7.576510e-01 7.281262e-01 7.176613e-01 6.664717e-01 7.468232e-01 1.502813e+00 3.016645e+00 1.801163e+00 5.127823e-01 2.313324e+00 9.221899e-01 6.440969e-01 2.350621e+00 1.582548e-01 1.429861e+00 1.927558e+00 -2.552470e-01 1.898960e+00 1.566257e+00 5.114263e-02 1.901134e+00 2.148526e+00 9.980298e-01 6.551002e-01 7.015986e-01 7.640869e-01 7.591127e-01 7.743672e-01 7.713076e-01 7.797059e-01 7.819471e-01 7.851265e-01 7.921322e-01 7.903047e-01 7.992421e-01 7.935713e-01 8.030340e-01 7.961083e-01 8.048748e-01 7.983839e-01 8.045443e-01 8.005443e-01 8.028811e-01 8.038263e-01 8.008610e-01 8.085101e-01 7.972597e-01 8.129999e-01 7.928812e-01 8.195670e-01 7.898093e-01 8.265552e-01 7.853938e-01 8.315372e-01 7.805373e-01 8.354777e-01 7.779581e-01 8.387571e-01 7.777025e-01 8.384942e-01 7.788780e-01 8.339511e-01 7.836095e-01 8.266725e-01 7.937616e-01 8.177897e-01 8.116857e-01 8.142566e-01 8.463987e-01 8.337313e-01 9.134785e-01 9.749572e-01 1.675753e+00 1.015555e+00 9.807815e-02 -9.336912e-02 -4.497384e-02 -2.250819e-02 
-1.933239e-02 -1.411809e-02 -1.409910e-02 -2.553175e-02 -1.393246e-02 1.426218e-01 1.365943e-01 3.485173e-02 7.300293e-02 8.098380e-02 2.261523e-01 6.731133e-01 1.037147e+00 7.839075e-01 5.551359e-01 5.545943e-01 5.549050e-01 5.546951e-01 5.547802e-01 5.556870e-01 9.665514e-01 1.067997e+00 3.322377e-01 2.569763e-02 1.780984e-02 4.994613e-02 5.730872e-02 6.674251e-02 6.417538e-02 6.899701e-02 6.537348e-02 6.849813e-02 6.526676e-02 6.743305e-02 6.503194e-02 6.643390e-02 6.485940e-02 6.550676e-02 6.463530e-02 6.456863e-02 6.424689e-02 6.348398e-02 6.349650e-02 6.208101e-02 6.217179e-02 6.009575e-02 5.999023e-02 5.732373e-02 5.697801e-02 5.432664e-02 5.496170e-02 5.472720e-02 5.701637e-02 6.114147e-02 1.439795e-01 5.490357e-01 1.154550e+00 5.403013e-01 -6.290820e-02 1.007201e+00 4.269452e-01 1.194144e-01 1.214109e+00 2.124361e-02 5.588670e-01 1.197115e+00 -1.551191e-02 1.097776e+00 7.352018e-01 -5.097187e-01 7.314876e-01 1.405611e+00 6.996606e-01 1.689089e-01 9.343416e-02 9.218243e-02 8.160360e-02 7.321088e-02 6.687387e-02 6.317167e-02 6.107904e-02 5.983811e-02 6.020946e-02 6.003901e-02 6.140304e-02 6.129259e-02 6.281094e-02 6.245273e-02 6.385657e-02 6.327782e-02 6.446191e-02 6.381478e-02 6.474474e-02 6.425492e-02 6.486215e-02 6.470940e-02 6.478971e-02 6.513237e-02 6.455935e-02 6.564786e-02 6.428808e-02 6.624305e-02 6.391493e-02 6.683016e-02 6.346226e-02 6.739487e-02 6.305523e-02 6.796189e-02 6.278095e-02 6.842548e-02 6.272068e-02 6.885006e-02 6.326636e-02 6.968677e-02 6.529573e-02 7.220138e-02 7.087691e-02 7.929987e-02 8.283970e-02 9.253518e-02 1.012607e-01 1.353168e-01 1.804136e-01 3.978501e-02 -4.560487e-02 -3.782554e-02 -2.661417e-02 -2.250320e-02 
-1.197016e-02 -1.034260e-02 -8.980362e-03 -1.010266e-02 -1.402743e-02 -1.325383e-02 -6.324521e-03 -6.003037e-03 2.269388e-03 2.053625e-02 8.984975e-02 3.306325e-01 5.095468e-01 3.923385e-01 2.768649e-01 2.767124e-01 2.767122e-01 2.767121e-01 2.767130e-01 2.771479e-01 4.966165e-01 5.484805e-01 1.132829e-01 -5.247383e-02 -4.658367e-02 -2.886346e-02 -1.995002e-02 -1.593503e-02 -1.387935e-02 -1.276000e-02 -1.228276e-02 -1.210725e-02 -1.209974e-02 -1.219561e-02 -1.224982e-02 -1.239750e-02 -1.242024e-02 -1.257918e-02 -1.257940e-02 -1.275823e-02 -1.276984e-02 -1.298772e-02 -1.304777e-02 -1.332189e-02 -1.345522e-02 -1.376491e-02 -1.389959e-02 -1.401918e-02 -1.369827e-02 -1.270860e-02 -1.026910e-02 -5.845568e-03 -9.071694e-04 4.479314e-03 6.313005e-02 3.913695e-01 9.558446e-01 1.584217e-01 -5.662600e-01 8.382802e-01 -1.017326e-01 -4.546682e-01 9.406795e-01 -7.487397e-01 3.292932e-01 5.781299e-01 -1.140647e+00 8.722881e-01 1.536643e-01 -1.160545e+00 3.013555e-01 5.443159e-01 1.302420e-01 7.869952e-02 5.631673e-02 3.100053e-02 1.442663e-02 4.510143e-03 -2.223445e-03 -7.163112e-03 -1.054006e-02 -1.269654e-02 -1.378956e-02 -1.427168e-02 -1.427610e-02 -1.415473e-02 -1.388104e-02 -1.368259e-02 -1.342487e-02 -1.328683e-02 -1.309224e-02 -1.301770e-02 -1.287187e-02 -1.284013e-02 -1.272599e-02 -1.272006e-02 -1.262972e-02 -1.263679e-02 -1.256803e-02 -1.257480e-02 -1.252943e-02 -1.252262e-02 -1.250707e-02 -1.247314e-02 -1.249521e-02 -1.241911e-02 -1.248633e-02 -1.235379e-02 -1.247118e-02 -1.226427e-02 -1.241847e-02 -1.209336e-02 -1.221346e-02 -1.164303e-02 -1.151741e-02 -1.039900e-02 -9.627836e-03 -7.592487e-03 -6.118957e-03 -4.013962e-03 -3.777802e-03 -1.915834e-03 -2.343107e-03 -1.300322e-02 -1.544368e-02 -1.351096e-02 -1.318613e-02 -1.279624e-02 
-1.956384e-06 -1.989662e-06 -1.201545e-06 -6.028640e-07 -5.137436e-08 2.291426e-07 7.372761e-07 2.684239e-06 4.939804e-06 9.599261e-06 1.862827e-05 1.682269e-05 1.071193e-04 2.158124e-04 2.229326e-07 -2.254551e-10 1.382060e-09 7.014544e-10 -3.370271e-09 -3.185433e-06 -1.356352e-03 -1.825996e-04 1.168657e-05 -6.603758e-05 -7.467879e-05 -5.506898e-05 -3.310505e-05 -2.303812e-05 -1.661033e-05 -1.623815e-05 -1.695516e-05 -2.028615e-05 -2.378460e-05 -2.993995e-05 -3.698800e-05 -4.873709e-05 -6.213538e-05 -8.331280e-05 -1.069999e-04 -1.432036e-04 -1.839314e-04 -2.434244e-04 -3.103772e-04 -3.993740e-04 -4.909664e-04 -5.815002e-04 -6.225782e-04 -5.471127e-04 -2.334112e-04 5.438802e-04 2.106191e-03 4.745322e-03 7.522304e-03 1.036748e-02 4.401725e-02 2.357776e-01 5.931337e-01 2.334681e-01 -2.747597e-01 2.363956e-01 -1.107754e-01 -2.538556e-01 2.745604e-01 -4.320881e-01 4.686218e-02 1.934389e-01 -5.002073e-01 2.223036e-01 2.826250e-02 -1.750489e-01 4.093762e-01 1.790790e-01 -7.700054e-02 9.178193e-03 3.908875e-02 3.000055e-02 2.065112e-02 1.444459e-02 9.629637e-03 5.768036e-03 2.893795e-03 9.822457e-04 -1.459605e-04 -7.026995e-04 -9.088597e-04 -9.155056e-04 -8.344366e-04 -7.207193e-04 -6.065371e-04 -5.033839e-04 -4.140110e-04 -3.401398e-04 -2.773134e-04 -2.271306e-04 -1.838675e-04 -1.503956e-04 -1.211189e-04 -9.957553e-05 -8.026076e-05 -6.663381e-05 -5.370947e-05 -4.488861e-05 -3.619958e-05 -3.050273e-05 -2.469414e-05 -2.078018e-05 -1.684408e-05 -1.425290e-05 -1.218378e-05 -1.095805e-05 -1.030293e-05 -9.535942e-06 -9.178274e-06 -8.096754e-06 -7.685765e-06 -6.394179e-06 -6.347368e-06 -5.576066e-06 -6.924154e-06 -7.422029e-06 -1.015536e-05 -1.084085e-05 -1.285026e-05 -1.234391e-05 -9.123665e-06 -7.281095e-06 -3.722410e-06 -3.169876e-06 
1.196611e-02 1.033960e-02 8.979809e-03 1.010439e-02 1.402860e-02 1.325587e-02 6.325382e-03 6.006741e-03 -2.259474e-03 -2.051322e-02 -8.980033e-02 -3.305959e-01 -5.096501e-01 -3.921212e-01 -2.768646e-01 -2.767124e-01 -2.767122e-01 -2.767121e-01 -2.767130e-01 -2.771559e-01 -5.002903e-01 -5.499945e-01 -1.133937e-01 5.236857e-02 4.645488e-02 2.875384e-02 1.987799e-02 1.587077e-02 1.382664e-02 1.269463e-02 1.221509e-02 1.201626e-02 1.199915e-02 1.206110e-02 1.209366e-02 1.218896e-02 1.216839e-02 1.224643e-02 1.216918e-02 1.222379e-02 1.210316e-02 1.213012e-02 1.197236e-02 1.195999e-02 1.176397e-02 1.170452e-02 1.148258e-02 1.139898e-02 1.120146e-02 1.116395e-02 1.112421e-02 1.137597e-02 1.163842e-02 1.105549e-02 9.482670e-03 1.767935e-02 5.009747e-02 5.196001e-02 1.549719e-02 2.113981e-02 1.396813e-02 5.813332e-03 2.243088e-02 2.506350e-03 1.694659e-02 1.594963e-02 -3.738665e-03 3.322832e-02 3.854042e-02 3.116803e-02 3.631002e-02 2.427369e-02 2.744490e-02 3.663672e-02 3.384017e-02 2.858918e-02 2.440903e-02 2.084655e-02 1.768351e-02 1.512032e-02 1.324762e-02 1.207330e-02 1.142775e-02 1.118803e-02 1.115809e-02 1.127676e-02 1.141452e-02 1.159574e-02 1.172538e-02 1.188346e-02 1.196727e-02 1.209463e-02 1.213534e-02 1.223921e-02 1.224699e-02 1.233308e-02 1.231929e-02 1.238859e-02 1.236518e-02 1.241470e-02 1.239551e-02 1.241912e-02 1.241816e-02 1.240576e-02 1.243583e-02 1.237504e-02 1.244704e-02 1.232428e-02 1.244340e-02 1.224068e-02 1.239473e-02 1.207115e-02 1.219178e-02 1.162293e-02 1.149918e-02 1.038322e-02 9.614076e-03 7.581118e-03 6.106841e-03 4.002493e-03 3.760864e-03 1.901160e-03 2.317146e-03 1.297179e-02 1.541932e-02 1.349244e-02 1.317712e-02 1.278957e-02 
1.933018e-02 1.412108e-02 1.410758e-02 2.554077e-02 1.394536e-02 -1.425312e-01 -1.365784e-01 -3.483525e-02 -7.287430e-02 -8.087220e-02 -2.259890e-01 -6.729780e-01 -1.036794e+00 -7.833051e-01 -5.551327e-01 -5.545912e-01 -5.548983e-01 -5.546892e-01 -5.547694e-01 -5.556817e-01 -9.695663e-01 -1.069497e+00 -3.322797e-01 -2.598074e-02 -1.802841e-02 -5.021593e-02 -5.747012e-02 -6.698199e-02 -6.434870e-02 -6.927018e-02 -6.563953e-02 -6.887155e-02 -6.569276e-02 -6.797199e-02 -6.568374e-02 -6.724370e-02 -6.589079e-02 -6.682140e-02 -6.630572e-02 -6.666331e-02 -6.684078e-02 -6.672162e-02 -6.748933e-02 -6.703204e-02 -6.829496e-02 -6.763376e-02 -6.931764e-02 -6.863582e-02 -7.077472e-02 -7.036611e-02 -7.312370e-02 -7.332077e-02 -7.672579e-02 -7.756374e-02 -8.149952e-02 -8.255700e-02 -8.403179e-02 -8.235570e-02 -8.446394e-02 -8.136808e-02 -8.163391e-02 -7.987861e-02 -7.829208e-02 -7.850764e-02 -7.699078e-02 -7.566494e-02 -7.404885e-02 -6.830454e-02 -6.472929e-02 -6.231568e-02 -5.906977e-02 -5.691428e-02 -5.544097e-02 -5.657578e-02 -5.840409e-02 -6.104201e-02 -6.328504e-02 -6.560075e-02 -6.735309e-02 -6.851415e-02 -6.922844e-02 -6.917797e-02 -6.919532e-02 -6.850127e-02 -6.836672e-02 -6.749385e-02 -6.748969e-02 -6.664230e-02 -6.681203e-02 -6.605718e-02 -6.634224e-02 -6.573439e-02 -6.600812e-02 -6.559935e-02 -6.568784e-02 -6.559820e-02 -6.534997e-02 -6.575692e-02 -6.498786e-02 -6.604874e-02 -6.454424e-02 -6.641778e-02 -6.403882e-02 -6.688163e-02 -6.354346e-02 -6.740092e-02 -6.309066e-02 -6.790241e-02 -6.277424e-02 -6.838261e-02 -6.276579e-02 -6.887660e-02 -6.334242e-02 -6.972165e-02 -6.536507e-02 -7.226060e-02 -7.098522e-02 -7.939664e-02 -8.294202e-02 -9.258282e-02 -1.012985e-01 -1.352879e-01 -1.804258e-01 -3.988380e-02 4.553252e-02 3.778471e-02 2.660035e-02 2.249646e-02 
1.883243e-02 2.119358e-02 3.992695e-02 -2.071832e-04 -5.304175e-01 -2.406793e+00 -1.244521e+00 -2.520291e-01 -9.305031e-01 -6.107942e-01 -9.404097e-01 -9.681135e-01 -1.063291e+00 -9.580765e-01 -8.658557e-01 -8.601420e-01 -8.676785e-01 -8.626547e-01 -8.644159e-01 -8.675957e-01 -1.007857e+00 -9.911481e-01 -8.837693e-01 -8.082251e-01 -7.244705e-01 -8.188516e-01 -7.568591e-01 -8.320648e-01 -7.682123e-01 -8.324710e-01 -7.747150e-01 -8.288807e-01 -7.798262e-01 -8.237059e-01 -7.847127e-01 -8.186701e-01 -7.906331e-01 -8.153104e-01 -7.975910e-01 -8.127901e-01 -8.039419e-01 -8.104967e-01 -8.097362e-01 -8.088721e-01 -8.150786e-01 -8.082761e-01 -8.206524e-01 -8.098085e-01 -8.273891e-01 -8.137036e-01 -8.347488e-01 -8.191956e-01 -8.419308e-01 -8.255603e-01 -8.478413e-01 -8.296370e-01 -8.460805e-01 -8.278188e-01 -8.463655e-01 -8.033525e-01 -8.246373e-01 -8.102236e-01 -8.027152e-01 -8.140269e-01 -8.057402e-01 -8.031737e-01 -8.230862e-01 -8.068442e-01 -8.262957e-01 -8.467028e-01 -8.354922e-01 -8.236074e-01 -8.212096e-01 -8.245525e-01 -8.225992e-01 -8.233609e-01 -8.222982e-01 -8.213566e-01 -8.222454e-01 -8.193032e-01 -8.212251e-01 -8.155821e-01 -8.180237e-01 -8.112770e-01 -8.147837e-01 -8.084317e-01 -8.122887e-01 -8.072785e-01 -8.102777e-01 -8.076460e-01 -8.086653e-01 -8.097155e-01 -8.070885e-01 -8.126428e-01 -8.042669e-01 -8.158233e-01 -8.007366e-01 -8.202178e-01 -7.969105e-01 -8.247393e-01 -7.914389e-01 -8.281495e-01 -7.852666e-01 -8.314616e-01 -7.802072e-01 -8.346518e-01 -7.772954e-01 -8.371468e-01 -7.770620e-01 -8.373045e-01 -7.791746e-01 -8.335936e-01 -7.843694e-01 -8.265914e-01 -7.949218e-01 -8.189240e-01 -8.142211e-01 -8.165976e-01 -8.487117e-01 -8.350861e-01 -9.143261e-01 -9.754379e-01 -1.675170e+00 -1.016205e+00 -9.856972e-02 9.321703e-02 4.494866e-02 2.250857e-02 
1.210993e-02 2.567153e-02 -3.054273e-02 -6.716260e-01 -2.709417e+00 -4.412662e+00 -1.954790e+00 -1.228304e+00 -1.921907e+00 -1.507790e+00 -1.772019e+00 -1.446344e+00 -1.770622e+00 -1.569674e+00 -1.717393e+00 -1.597713e+00 -1.714768e+00 -1.644170e+00 -1.666892e+00 -1.673719e+00 -1.662572e+00 -1.631765e+00 -1.542013e+00 -1.764718e+00 -1.591627e+00 -1.818057e+00 -1.673449e+00 -1.849016e+00 -1.722380e+00 -1.842711e+00 -1.746994e+00 -1.821887e+00 -1.764694e+00 -1.799061e+00 -1.779835e+00 -1.785075e+00 -1.804802e+00 -1.790799e+00 -1.835765e+00 -1.800819e+00 -1.855288e+00 -1.805775e+00 -1.859040e+00 -1.799912e+00 -1.846367e+00 -1.795686e+00 -1.845302e+00 -1.819808e+00 -1.870193e+00 -1.863778e+00 -1.897621e+00 -1.897898e+00 -1.908819e+00 -1.916245e+00 -1.910868e+00 -1.926875e+00 -1.905543e+00 -1.930502e+00 -1.914872e+00 -1.930678e+00 -1.937587e+00 -1.966249e+00 -1.943752e+00 -1.956995e+00 -1.919408e+00 -1.910211e+00 -1.905196e+00 -1.893024e+00 -1.919360e+00 -1.941668e+00 -1.968873e+00 -1.933870e+00 -1.970256e+00 -1.920022e+00 -1.944872e+00 -1.867404e+00 -1.895553e+00 -1.829109e+00 -1.882374e+00 -1.838353e+00 -1.890412e+00 -1.846523e+00 -1.874680e+00 -1.841243e+00 -1.852068e+00 -1.842915e+00 -1.832636e+00 -1.850103e+00 -1.815102e+00 -1.861337e+00 -1.800632e+00 -1.873588e+00 -1.788948e+00 -1.885493e+00 -1.781901e+00 -1.896636e+00 -1.784624e+00 -1.909681e+00 -1.793912e+00 -1.909044e+00 -1.793773e+00 -1.888009e+00 -1.791050e+00 -1.859021e+00 -1.795692e+00 -1.835418e+00 -1.825178e+00 -1.833672e+00 -1.868835e+00 -1.820686e+00 -1.885164e+00 -1.783953e+00 -1.887825e+00 -1.760329e+00 -1.901961e+00 -1.762058e+00 -1.914452e+00 -1.775488e+00 -1.904482e+00 -1.808640e+00 -1.881137e+00 -2.038355e+00 -2.764217e+00 -3.650886e+00 -1.848781e+00 6.474626e-02 1.020084e-01 2.735165e-02 
1.135980e-02 3.620835e-02 -2.753109e-02 -8.676055e-01 -3.123488e+00 -1.259874e+00 -1.634051e-01 -1.347963e+00 -6.685277e-01 -9.446377e-01 -6.600885e-01 -5.052870e-01 -4.192050e-01 -2.161901e-01 -4.933087e-01 -2.801313e-01 -3.992596e-01 -2.539395e-01 -4.066133e-01 -4.163278e-01 -1.998611e-01 -6.219471e-01 -4.732761e-01 -7.832201e-01 -7.491793e-01 -8.967287e-01 -8.490246e-01 -9.317424e-01 -9.056874e-01 -9.227094e-01 -9.293343e-01 -8.984834e-01 -9.441253e-01 -8.752934e-01 -9.552594e-01 -8.662805e-01 -9.790317e-01 -8.844340e-01 -1.009525e+00 -9.078829e-01 -1.023928e+00 -9.234961e-01 -1.015318e+00 -9.210073e-01 -9.825476e-01 -9.189545e-01 -9.678001e-01 -9.562572e-01 -9.914789e-01 -1.019668e+00 -1.019462e+00 -1.065783e+00 -1.025395e+00 -1.087405e+00 -1.022220e+00 -1.102758e+00 -1.025301e+00 -1.117987e+00 -1.038243e+00 -1.178829e+00 -1.130608e+00 -1.213832e+00 -1.197426e+00 -1.191105e+00 -1.151669e+00 -1.147228e+00 -1.081925e+00 -1.102610e+00 -1.087604e+00 -1.060131e+00 -1.125199e+00 -1.097337e+00 -1.162430e+00 -1.073166e+00 -1.122155e+00 -9.974393e-01 -1.050397e+00 -9.458437e-01 -1.031869e+00 -9.655407e-01 -1.045401e+00 -9.854473e-01 -1.025578e+00 -9.854296e-01 -9.949532e-01 -9.932259e-01 -9.678739e-01 -1.006189e+00 -9.431064e-01 -1.022348e+00 -9.226069e-01 -1.036175e+00 -9.067637e-01 -1.047497e+00 -9.018631e-01 -1.057077e+00 -9.145614e-01 -1.066351e+00 -9.387867e-01 -1.053644e+00 -9.531075e-01 -1.011626e+00 -9.657744e-01 -9.570702e-01 -9.875398e-01 -9.109430e-01 -1.042958e+00 -9.006427e-01 -1.113779e+00 -8.788710e-01 -1.135831e+00 -8.305537e-01 -1.128910e+00 -8.132170e-01 -1.128395e+00 -8.433247e-01 -1.112075e+00 -8.954498e-01 -1.048648e+00 -9.613814e-01 -9.355469e-01 -1.025760e+00 -2.094381e-01 -3.253696e+00 -2.755422e+00 -1.428040e-01 8.966057e-02 2.328908e-02 
1.070303e-02 1.877265e-02 -1.502581e-02 -3.676073e-01 -9.784159e-01 1.964863e+00 1.359707e+00 -2.462408e-01 8.343273e-01 2.697497e-01 5.979710e-01 4.092504e-02 4.598089e-01 3.228703e-01 9.919870e-01 7.683295e-01 8.431314e-01 7.407645e-01 8.509131e-01 8.285719e-01 3.926869e-01 5.438483e-01 2.704041e-01 4.890164e-01 4.696540e-01 5.140025e-01 4.432036e-01 5.028600e-01 4.293276e-01 5.061651e-01 4.269731e-01 5.117147e-01 4.272470e-01 5.147141e-01 4.288990e-01 5.119472e-01 4.271473e-01 5.003746e-01 4.241126e-01 4.872258e-01 4.262787e-01 4.768437e-01 4.363507e-01 4.738467e-01 4.549137e-01 4.718444e-01 4.668759e-01 4.575300e-01 4.653778e-01 4.356355e-01 4.616145e-01 4.203743e-01 4.632349e-01 4.128185e-01 4.644961e-01 4.044933e-01 4.557803e-01 3.936615e-01 4.539869e-01 3.442016e-01 3.929042e-01 3.425970e-01 3.397844e-01 3.536952e-01 3.590242e-01 3.540967e-01 4.073436e-01 3.806933e-01 4.151638e-01 4.589145e-01 4.259778e-01 4.254988e-01 3.943945e-01 4.336172e-01 4.062461e-01 4.556164e-01 4.271307e-01 4.688353e-01 4.317046e-01 4.588609e-01 4.269405e-01 4.492445e-01 4.338997e-01 4.466136e-01 4.449089e-01 4.418725e-01 4.549731e-01 4.361856e-01 4.642286e-01 4.302927e-01 4.719573e-01 4.268612e-01 4.776841e-01 4.252415e-01 4.774119e-01 4.246110e-01 4.691644e-01 4.258382e-01 4.556663e-01 4.360010e-01 4.432760e-01 4.564520e-01 4.299360e-01 4.821223e-01 4.138146e-01 5.050244e-01 3.869982e-01 5.139733e-01 3.572153e-01 5.245767e-01 3.485194e-01 5.402210e-01 3.543344e-01 5.387955e-01 3.628550e-01 5.139693e-01 3.811044e-01 4.724440e-01 4.108042e-01 4.080322e-01 4.127809e-01 3.928786e-01 1.569101e+00 -2.204156e-01 -7.929994e-01 2.615716e-03 5.536855e-02 1.760018e-02 
6.828285e-03 9.407466e-03 6.403163e-03 -3.218150e-02 -5.528000e-03 9.631677e-01 6.762237e-01 1.587999e-01 4.839756e-01 2.952692e-01 3.910198e-01 3.449100e-02 -3.827410e-01 -1.184739e+00 -1.646717e+00 -1.665564e+00 -1.441142e+00 -1.653900e+00 -1.473815e+00 -1.567060e+00 -1.372321e+00 -3.178352e-01 1.120538e-01 3.447752e-01 3.287595e-01 3.658493e-01 3.299851e-01 3.687980e-01 3.353058e-01 3.706859e-01 3.391191e-01 3.702756e-01 3.421232e-01 3.685645e-01 3.448921e-01 3.662736e-01 3.478241e-01 3.640562e-01 3.510429e-01 3.619492e-01 3.541265e-01 3.599911e-01 3.573017e-01 3.587733e-01 3.608318e-01 3.584256e-01 3.644922e-01 3.587765e-01 3.678637e-01 3.589154e-01 3.690589e-01 3.561135e-01 3.647857e-01 3.475990e-01 3.534185e-01 3.333749e-01 3.403251e-01 3.274792e-01 3.394212e-01 3.165744e-01 3.332309e-01 3.264180e-01 3.259993e-01 3.328461e-01 3.305233e-01 3.322372e-01 3.514040e-01 3.544764e-01 3.852528e-01 4.148483e-01 4.107455e-01 4.024128e-01 3.949506e-01 3.961729e-01 3.873164e-01 3.841281e-01 3.725537e-01 3.690479e-01 3.606849e-01 3.595681e-01 3.555861e-01 3.558243e-01 3.548884e-01 3.548386e-01 3.557816e-01 3.545814e-01 3.568480e-01 3.544366e-01 3.576783e-01 3.543921e-01 3.582900e-01 3.548589e-01 3.586147e-01 3.556647e-01 3.579619e-01 3.566560e-01 3.564348e-01 3.584031e-01 3.542857e-01 3.608368e-01 3.511499e-01 3.635300e-01 3.473127e-01 3.667235e-01 3.434848e-01 3.700469e-01 3.398429e-01 3.727122e-01 3.370063e-01 3.744563e-01 3.358846e-01 3.745026e-01 3.365701e-01 3.717074e-01 3.390902e-01 3.654998e-01 3.429577e-01 3.547333e-01 3.441200e-01 3.359191e-01 3.267708e-01 3.616143e-01 7.272466e-01 3.443293e-01 5.577245e-02 3.136481e-02 1.572982e-02 7.541547e-03 
