# vtk DataFile Version 2.0
Comment goes here
ASCII

DATASET STRUCTURED_POINTS
FIELD FieldData 1
TIME 1 1 double
0.63000000
DIMENSIONS    128   16   1

ORIGIN    0.000   0.000   0.000
SPACING   0.0078125 0.015625   1.000

POINT_DATA   2048
SCALARS Omega double
LOOKUP_TABLE default

7.442477e-07 -3.768546e-06 -8.171322e-06 -1.281688e-05 -1.803419e-05 -1.778702e-05 -1.917958e-05 7.503717e-06 -1.524019e-05 -4.042308e-07 -1.651857e-05 -1.471753e-05 -3.477314e-05 4.658664e-05 3.443190e-05 -5.848821e-05 1.253133e-04 -5.155030e-05 1.249447e-04 1.392691e-04 -2.640600e-04 2.770258e-05 2.079790e-05 -2.798518e-05 -5.869603e-05 -6.345754e-05 -5.629373e-05 -7.381303e-05 -5.673881e-05 -8.602538e-05 -6.409951e-05 -1.013575e-04 -7.759720e-05 -1.184214e-04 -9.384255e-05 -1.333090e-04 -1.047038e-04 -1.330816e-04 -8.866014e-05 -8.499834e-05 -8.198287e-07 6.766381e-05 2.218793e-04 3.822428e-04 6.108156e-04 8.274945e-04 1.038167e-03 1.131738e-03 1.064327e-03 6.750969e-04 -1.742223e-04 -1.912021e-03 -4.936746e-03 -7.669179e-03 -3.554205e-03 6.614301e-03 -9.218867e-03 -8.062485e-03 4.587942e-03 -3.689829e-02 -2.156758e-02 -1.574721e-03 -3.544108e-02 1.266500e-03 -8.761938e-03 -2.013487e-02 2.982934e-02 3.645708e-03 2.216853e-02 8.834338e-02 8.991540e-02 6.726596e-02 4.631947e-02 3.036538e-02 1.972454e-02 1.716588e-02 1.566456e-02 1.286236e-02 9.731597e-03 6.642491e-03 4.231642e-03 2.279480e-03 1.100769e-03 2.393144e-04 -6.519839e-05 -3.259348e-04 -2.466573e-04 -3.072346e-04 -1.409715e-04 -1.804069e-04 -3.415291e-05 -9.129445e-05 1.802621e-05 -4.699152e-05 3.102249e-05 -2.593909e-05 2.602573e-05 -1.257856e-05 1.567304e-05 -5.754422e-07 5.784126e-06 1.095516e-05 -1.687347e-06 2.097164e-05 -7.126547e-06 2.749164e-05 -1.196190e-05 2.884791e-05 -1.686861e-05 2.458084e-05 -2.173816e-05 1.577931e-05 -2.492456e-05 5.757293e-06 -2.387158e-05 -1.270069e-06 -1.634186e-05 -1.385349e-06 -1.723495e-07 1.127767e-05 2.751914e-05 4.286839e-05 3.676252e-05 1.571002e-05 1.410592e-05 7.156657e-06 5.990546e-06 4.660483e-06 
-5.711073e-03 -2.223885e-03 2.394061e-04 -3.918261e-02 -1.220498e-01 7.080508e-01 1.140014e+00 4.248911e-01 5.281969e-01 4.362013e-01 5.145529e-01 2.814724e-01 -6.097329e-01 -2.258277e+00 -3.040049e+00 -2.764437e+00 -2.768033e+00 -2.854225e+00 -2.654153e+00 -2.932531e+00 -2.383157e+00 -4.032567e-01 3.159779e-01 5.097738e-01 4.697959e-01 5.034732e-01 4.719678e-01 5.053139e-01 4.798232e-01 5.046884e-01 4.848846e-01 5.021278e-01 4.885564e-01 4.989119e-01 4.913817e-01 4.955449e-01 4.934627e-01 4.922654e-01 4.947676e-01 4.891496e-01 4.952448e-01 4.862257e-01 4.948492e-01 4.833649e-01 4.935287e-01 4.802993e-01 4.909767e-01 4.766218e-01 4.863711e-01 4.714974e-01 4.777910e-01 4.615965e-01 4.611694e-01 4.581865e-01 4.851656e-01 2.980045e-01 -6.454933e-01 2.272283e-02 9.303223e-01 -1.188946e+00 -4.165052e-01 2.478531e-01 -1.416845e+00 3.810340e-01 -5.977720e-01 -1.252048e+00 5.794285e-01 -1.523573e+00 -2.582451e-01 3.464005e+00 2.920916e+00 1.094839e+00 5.259900e-01 5.864373e-01 5.176928e-01 5.037490e-01 4.996179e-01 5.019508e-01 4.968774e-01 4.968081e-01 4.928604e-01 4.924663e-01 4.908707e-01 4.897125e-01 4.905769e-01 4.879182e-01 4.911309e-01 4.865129e-01 4.918881e-01 4.853156e-01 4.925122e-01 4.843768e-01 4.928769e-01 4.838338e-01 4.928539e-01 4.838788e-01 4.922706e-01 4.846755e-01 4.909660e-01 4.863620e-01 4.888257e-01 4.889906e-01 4.858204e-01 4.925404e-01 4.819852e-01 4.968755e-01 4.774803e-01 5.017925e-01 4.726853e-01 5.069907e-01 4.682250e-01 5.121520e-01 4.650321e-01 5.171233e-01 4.643616e-01 5.225136e-01 4.677994e-01 5.312367e-01 4.766317e-01 5.539945e-01 4.867162e-01 8.491909e-01 1.099469e+00 1.259955e-01 -2.880145e-02 -1.185987e-02 -1.038538e-02 -8.342351e-03 
-2.941674e-03 1.846362e-02 3.521322e-02 -2.623192e-01 -1.626831e+00 6.410929e-01 2.688435e+00 4.146599e-01 9.673226e-01 6.120229e-01 8.784291e-01 4.296025e-01 -2.131414e-01 4.803987e-01 1.279696e+00 1.205988e+00 1.049773e+00 1.197184e+00 1.059993e+00 1.313492e+00 3.637801e-01 1.102189e-01 4.416170e-01 7.817361e-01 7.110094e-01 8.008936e-01 7.032452e-01 7.928219e-01 7.004199e-01 7.859679e-01 7.004438e-01 7.801928e-01 7.041209e-01 7.742175e-01 7.099780e-01 7.671013e-01 7.171916e-01 7.583701e-01 7.237426e-01 7.467488e-01 7.280891e-01 7.335313e-01 7.317835e-01 7.218132e-01 7.363146e-01 7.131898e-01 7.424818e-01 7.108477e-01 7.519558e-01 7.160998e-01 7.613826e-01 7.251839e-01 7.731646e-01 7.719870e-01 8.501190e-01 3.930895e-01 -1.657849e+00 -1.447427e+00 9.360387e-01 -6.796826e-01 4.453479e-02 1.049751e+00 -9.133793e-01 1.198584e+00 3.956273e-01 -5.325461e-01 1.904044e+00 -2.237390e-01 1.069043e-02 2.314185e+00 1.853223e+00 1.879406e+00 1.650391e+00 9.188971e-01 6.583620e-01 6.769008e-01 6.548779e-01 6.993658e-01 6.642831e-01 7.084013e-01 6.722734e-01 7.132225e-01 6.826467e-01 7.137029e-01 6.933261e-01 7.076599e-01 7.011652e-01 6.951532e-01 7.075428e-01 6.824362e-01 7.166868e-01 6.733892e-01 7.267779e-01 6.668986e-01 7.347686e-01 6.631924e-01 7.375578e-01 6.607741e-01 7.320108e-01 6.616311e-01 7.212899e-01 6.714135e-01 7.087592e-01 6.911516e-01 6.929213e-01 7.164050e-01 6.702252e-01 7.418413e-01 6.403878e-01 7.649229e-01 6.081863e-01 7.869362e-01 5.835473e-01 8.104466e-01 5.725379e-01 8.298974e-01 5.713129e-01 8.424611e-01 5.767182e-01 8.774872e-01 5.566866e-01 1.606546e+00 1.819690e+00 -1.384778e+00 -5.555147e-01 9.348759e-02 3.594596e-02 -2.854891e-03 
6.953135e-03 4.867773e-02 9.933838e-02 -5.328081e-01 -4.311154e+00 -3.850974e+00 -1.275790e-01 -1.706892e+00 -1.042471e+00 -1.370426e+00 -1.020790e+00 -8.148334e-01 -7.969747e-02 -8.411920e-02 -4.778461e-01 -1.946038e-01 -3.034691e-01 -1.526873e-01 -3.412061e-01 -3.618128e-01 -9.297037e-02 -3.115731e-01 -8.366130e-01 -1.114675e+00 -1.215204e+00 -1.257286e+00 -1.327692e+00 -1.311413e+00 -1.400829e+00 -1.335486e+00 -1.443090e+00 -1.339828e+00 -1.462040e+00 -1.337831e+00 -1.466975e+00 -1.336608e+00 -1.461735e+00 -1.339730e+00 -1.452433e+00 -1.351735e+00 -1.443376e+00 -1.369059e+00 -1.429609e+00 -1.381609e+00 -1.406360e+00 -1.383044e+00 -1.369603e+00 -1.362409e+00 -1.310382e+00 -1.313213e+00 -1.230817e+00 -1.237167e+00 -1.122592e+00 -1.117230e+00 -9.469922e-01 -6.556016e-01 5.120741e-01 2.509217e-01 -8.129190e-01 4.526012e-01 -6.171387e-02 -7.684643e-01 6.088750e-01 -1.017042e+00 -3.489492e-01 3.388374e-02 -1.751825e+00 -2.434274e-01 -1.084439e+00 -3.546732e+00 -3.299752e+00 -2.761022e+00 -2.255355e+00 -1.837274e+00 -1.723656e+00 -1.618381e+00 -1.659723e+00 -1.547323e+00 -1.619464e+00 -1.499598e+00 -1.585769e+00 -1.469761e+00 -1.552890e+00 -1.455512e+00 -1.523395e+00 -1.461358e+00 -1.504196e+00 -1.486931e+00 -1.489570e+00 -1.514759e+00 -1.465788e+00 -1.534407e+00 -1.437386e+00 -1.550062e+00 -1.412287e+00 -1.562245e+00 -1.398335e+00 -1.576330e+00 -1.403693e+00 -1.587270e+00 -1.418475e+00 -1.578587e+00 -1.432851e+00 -1.546776e+00 -1.451714e+00 -1.503565e+00 -1.486815e+00 -1.462780e+00 -1.541683e+00 -1.429255e+00 -1.606430e+00 -1.396260e+00 -1.657670e+00 -1.353960e+00 -1.684758e+00 -1.320922e+00 -1.707919e+00 -1.323911e+00 -1.747453e+00 -1.357038e+00 -1.866267e+00 -1.136051e+00 -2.487965e+00 -5.258828e+00 -1.492710e+00 3.338066e-01 1.539510e-01 2.252344e-02 
4.550902e-03 4.452886e-02 1.506614e-01 -5.218401e-02 -2.789047e+00 -5.641403e+00 -3.909630e+00 -2.646287e+00 -2.609066e+00 -2.476097e+00 -2.478589e+00 -2.355735e+00 -2.556733e+00 -2.402335e+00 -2.394750e+00 -2.418359e+00 -2.428213e+00 -2.452351e+00 -2.395216e+00 -2.435096e+00 -2.460190e+00 -2.469063e+00 -2.237424e+00 -2.440028e+00 -2.397605e+00 -2.574918e+00 -2.536439e+00 -2.636465e+00 -2.621808e+00 -2.658413e+00 -2.673448e+00 -2.658138e+00 -2.701949e+00 -2.649527e+00 -2.716364e+00 -2.639815e+00 -2.720376e+00 -2.632709e+00 -2.718590e+00 -2.631866e+00 -2.714109e+00 -2.635028e+00 -2.703496e+00 -2.634831e+00 -2.683422e+00 -2.626235e+00 -2.650515e+00 -2.601171e+00 -2.597058e+00 -2.554649e+00 -2.522776e+00 -2.487713e+00 -2.420671e+00 -2.382173e+00 -2.252987e+00 -2.205517e+00 -1.946710e+00 -1.567910e+00 -2.040394e+00 -2.421635e+00 -2.184264e+00 -2.560398e+00 -2.464495e+00 -2.559542e+00 -2.930668e+00 -2.777061e+00 -2.885178e+00 -3.397608e+00 -2.930566e+00 -1.794035e+00 -1.723645e+00 -2.677771e+00 -3.164354e+00 -3.105991e+00 -3.018391e+00 -2.912904e+00 -2.904120e+00 -2.820043e+00 -2.853020e+00 -2.768034e+00 -2.819413e+00 -2.734856e+00 -2.791566e+00 -2.715156e+00 -2.768872e+00 -2.710933e+00 -2.754848e+00 -2.721785e+00 -2.744611e+00 -2.735942e+00 -2.727887e+00 -2.746456e+00 -2.707252e+00 -2.756397e+00 -2.687577e+00 -2.766443e+00 -2.673708e+00 -2.780562e+00 -2.670908e+00 -2.795439e+00 -2.672247e+00 -2.799550e+00 -2.671138e+00 -2.790032e+00 -2.671337e+00 -2.774195e+00 -2.681700e+00 -2.760636e+00 -2.705972e+00 -2.751454e+00 -2.739189e+00 -2.740656e+00 -2.767592e+00 -2.720223e+00 -2.786262e+00 -2.702741e+00 -2.810243e+00 -2.709085e+00 -2.847278e+00 -2.745961e+00 -2.863680e+00 -3.256310e+00 -5.410628e+00 -4.628014e+00 -1.159872e+00 2.122834e-01 1.028574e-01 8.364517e-03 
-5.821797e-03 5.167284e-03 5.347005e-02 1.644890e-01 2.332537e-03 -1.775196e+00 -2.294725e+00 -1.074889e+00 -1.220811e+00 -9.800739e-01 -1.064402e+00 -1.173254e+00 -1.980970e+00 -1.687000e+00 -1.347602e+00 -1.346942e+00 -1.351968e+00 -1.347285e+00 -1.351160e+00 -1.349202e+00 -1.663848e+00 -1.772553e+00 -1.193333e+00 -1.070452e+00 -9.889249e-01 -1.074402e+00 -1.025093e+00 -1.087117e+00 -1.047321e+00 -1.091344e+00 -1.063523e+00 -1.090847e+00 -1.074759e+00 -1.087672e+00 -1.082487e+00 -1.083373e+00 -1.087582e+00 -1.078968e+00 -1.090704e+00 -1.075105e+00 -1.092314e+00 -1.072009e+00 -1.092549e+00 -1.069440e+00 -1.091669e+00 -1.067291e+00 -1.089844e+00 -1.065636e+00 -1.086714e+00 -1.064760e+00 -1.082107e+00 -1.064852e+00 -1.067341e+00 -1.013083e+00 -9.270929e-01 -1.487314e+00 -4.380669e+00 -4.329354e+00 -1.082739e+00 -2.758468e+00 -2.264693e+00 -8.197454e-01 -3.158948e+00 -8.194908e-01 -1.298198e+00 -2.751902e+00 2.147185e-01 -1.775381e+00 -2.068373e+00 6.297759e-02 -6.075867e-01 1.566686e-02 2.382945e-01 -6.995168e-01 -1.089319e+00 -1.156842e+00 -1.148893e+00 -1.139806e+00 -1.130828e+00 -1.120847e+00 -1.117153e+00 -1.105743e+00 -1.107384e+00 -1.094273e+00 -1.100894e+00 -1.085938e+00 -1.096877e+00 -1.080333e+00 -1.094279e+00 -1.076797e+00 -1.091915e+00 -1.074891e+00 -1.089347e+00 -1.074618e+00 -1.086294e+00 -1.076023e+00 -1.082577e+00 -1.079300e+00 -1.078197e+00 -1.084296e+00 -1.072794e+00 -1.090325e+00 -1.066199e+00 -1.096937e+00 -1.058827e+00 -1.103971e+00 -1.051514e+00 -1.111243e+00 -1.045162e+00 -1.118125e+00 -1.040517e+00 -1.123494e+00 -1.038023e+00 -1.125935e+00 -1.037963e+00 -1.124620e+00 -1.039179e+00 -1.118430e+00 -1.032601e+00 -1.107438e+00 -9.612545e-01 -1.525674e+00 -2.492146e+00 -8.497507e-01 1.784419e-02 7.798577e-02 7.344847e-03 -9.219945e-03 
-7.291854e-03 -3.001312e-03 4.967525e-03 3.211087e-02 7.314296e-02 -3.040655e-02 -1.832810e-01 -1.076173e-01 -7.271521e-02 -1.195914e-02 3.971086e-02 -2.433270e-01 -1.926231e+00 -1.720425e+00 -8.945525e-01 -8.928316e-01 -8.930327e-01 -8.928407e-01 -8.930009e-01 -8.936900e-01 -1.543131e+00 -1.732750e+00 -5.246551e-01 -1.312725e-01 -7.900481e-02 -7.915186e-02 -6.885660e-02 -6.721287e-02 -6.230129e-02 -6.366770e-02 -6.229819e-02 -6.358356e-02 -6.368526e-02 -6.406011e-02 -6.504339e-02 -6.450013e-02 -6.615931e-02 -6.492476e-02 -6.714571e-02 -6.551149e-02 -6.820931e-02 -6.649232e-02 -6.961550e-02 -6.814688e-02 -7.170559e-02 -7.080315e-02 -7.481353e-02 -7.464470e-02 -7.877199e-02 -7.878488e-02 -8.140789e-02 -7.863042e-02 -6.899011e-02 -2.500217e-02 6.073344e-02 -1.774786e-01 -1.515871e+00 -1.141750e+00 6.430148e-01 -8.772799e-01 -6.242118e-01 4.497676e-01 -1.230013e+00 2.478417e-01 -1.238296e-02 -1.154769e+00 5.017127e-01 -7.355119e-01 -5.850741e-01 7.869241e-01 -3.470748e-01 -5.998942e-01 2.575010e-02 1.832188e-01 7.643870e-02 -1.752818e-02 -5.253829e-02 -6.632246e-02 -7.224197e-02 -7.453544e-02 -7.525462e-02 -7.436496e-02 -7.401904e-02 -7.213044e-02 -7.192990e-02 -6.967318e-02 -6.998277e-02 -6.759246e-02 -6.848362e-02 -6.606100e-02 -6.743978e-02 -6.504260e-02 -6.672956e-02 -6.443074e-02 -6.620409e-02 -6.413399e-02 -6.574175e-02 -6.409281e-02 -6.525885e-02 -6.427239e-02 -6.470418e-02 -6.464516e-02 -6.405211e-02 -6.518221e-02 -6.329501e-02 -6.584164e-02 -6.244165e-02 -6.655832e-02 -6.150581e-02 -6.720536e-02 -6.044672e-02 -6.750111e-02 -5.901634e-02 -6.679810e-02 -5.642813e-02 -6.373667e-02 -5.088424e-02 -5.615364e-02 -3.949145e-02 -4.226700e-02 -1.887589e-02 -8.255578e-02 -1.518312e-01 -5.629066e-03 1.969487e-02 -3.840972e-03 -1.433595e-02 -1.125448e-02 
-5.601860e-03 -4.387324e-03 -3.203996e-03 -8.431035e-04 5.902804e-03 8.921737e-03 -1.581503e-03 1.714735e-03 1.574606e-02 4.335657e-02 8.056255e-02 -6.159987e-02 -9.768278e-01 -8.792823e-01 -4.471812e-01 -4.462581e-01 -4.462564e-01 -4.462563e-01 -4.462568e-01 -4.466120e-01 -7.581382e-01 -8.550693e-01 -2.485633e-01 -4.810243e-02 -2.381016e-02 -1.915594e-02 -1.228247e-02 -7.304017e-03 -4.396403e-03 -2.896173e-03 -2.270338e-03 -1.923960e-03 -1.988854e-03 -1.947719e-03 -2.203083e-03 -2.220013e-03 -2.527623e-03 -2.562220e-03 -2.908415e-03 -2.990587e-03 -3.403747e-03 -3.586333e-03 -4.106427e-03 -4.437226e-03 -5.077077e-03 -5.528046e-03 -6.144526e-03 -6.377913e-03 -6.269572e-03 -5.011790e-03 -2.113491e-03 3.997776e-03 1.817715e-02 5.653614e-02 1.179782e-01 -1.159654e-01 -1.178465e+00 -7.192439e-01 6.272525e-01 -6.197548e-01 4.473310e-02 5.522278e-01 -8.570349e-01 7.753113e-01 -2.224085e-01 -6.156023e-01 1.126488e+00 -8.042649e-01 -2.089445e-01 1.477914e+00 8.869498e-01 9.092770e-01 7.123685e-01 2.406206e-01 1.179687e-01 6.896343e-02 3.918440e-02 2.045507e-02 9.205057e-03 2.684454e-03 -1.099883e-03 -3.208230e-03 -4.365037e-03 -4.827926e-03 -4.969182e-03 -4.781986e-03 -4.573072e-03 -4.192748e-03 -3.945021e-03 -3.571534e-03 -3.399819e-03 -3.089847e-03 -3.008988e-03 -2.758737e-03 -2.748631e-03 -2.541677e-03 -2.577142e-03 -2.402134e-03 -2.460504e-03 -2.314155e-03 -2.375036e-03 -2.260934e-03 -2.304725e-03 -2.231197e-03 -2.237795e-03 -2.214786e-03 -2.161850e-03 -2.194546e-03 -2.051326e-03 -2.124267e-03 -1.832458e-03 -1.874730e-03 -1.307209e-03 -1.136137e-03 -4.453011e-05 6.634466e-04 2.602799e-03 4.078533e-03 6.785997e-03 8.428647e-03 1.089950e-02 7.841816e-03 4.970823e-03 4.436745e-03 -2.269208e-03 -6.542255e-03 -7.479848e-03 -6.583935e-03 
-2.755161e-06 -1.579402e-06 3.350453e-07 8.862796e-07 2.085579e-06 2.133963e-06 2.657027e-06 4.021514e-06 6.624869e-06 9.259645e-06 9.038408e-06 -2.092206e-05 -1.492205e-04 1.202739e-04 2.854533e-07 9.043091e-11 -1.722465e-09 -1.222374e-09 1.915811e-09 3.622475e-06 3.315059e-03 -1.060218e-03 -1.856998e-04 -2.577222e-05 -2.926579e-05 -5.858539e-05 -6.109525e-05 -7.054362e-05 -7.182954e-05 -8.221605e-05 -9.218684e-05 -1.103596e-04 -1.322339e-04 -1.627372e-04 -2.005799e-04 -2.500011e-04 -3.113380e-04 -3.899079e-04 -4.867313e-04 -6.088563e-04 -7.572562e-04 -9.391048e-04 -1.152335e-03 -1.396288e-03 -1.653709e-03 -1.891252e-03 -2.038447e-03 -1.962226e-03 -1.440990e-03 -1.135239e-04 2.480496e-03 7.099407e-03 1.631229e-02 3.897128e-02 7.616460e-02 -3.596932e-02 -6.301667e-01 -5.658219e-01 1.648513e-01 -8.577424e-02 1.443703e-01 2.690823e-01 -1.563936e-01 4.708761e-01 6.876192e-02 -1.283865e-02 6.493001e-01 1.182931e-02 7.715585e-02 2.641269e-01 1.084250e-01 5.863276e-01 5.594232e-01 1.772361e-01 7.363732e-02 4.908102e-02 3.291059e-02 2.051330e-02 1.209583e-02 6.668107e-03 3.183808e-03 9.587402e-04 -3.998379e-04 -1.175760e-03 -1.532590e-03 -1.633610e-03 -1.560735e-03 -1.411027e-03 -1.217362e-03 -1.027642e-03 -8.462811e-04 -6.916837e-04 -5.575012e-04 -4.488363e-04 -3.582778e-04 -2.863630e-04 -2.275260e-04 -1.812440e-04 -1.436455e-04 -1.143809e-04 -9.051973e-05 -7.230137e-05 -5.719357e-05 -4.605803e-05 -3.652748e-05 -2.992767e-05 -2.404196e-05 -2.036392e-05 -1.693944e-05 -1.501955e-05 -1.316961e-05 -1.198575e-05 -1.096640e-05 -9.682752e-06 -9.032136e-06 -7.190100e-06 -6.862702e-06 -4.560214e-06 -5.004104e-06 -3.121347e-06 -5.079722e-06 -4.687482e-06 -8.003445e-06 -9.654969e-06 -7.861715e-06 -8.995679e-06 -6.177166e-06 -5.518526e-06 
5.595963e-03 4.385100e-03 3.205130e-03 8.467075e-04 -5.896439e-03 -8.916280e-03 1.586380e-03 -1.711604e-03 -1.573352e-02 -4.334106e-02 -8.055010e-02 6.152537e-02 9.765664e-01 8.794818e-01 4.471816e-01 4.462581e-01 4.462564e-01 4.462563e-01 4.462568e-01 4.466215e-01 7.665588e-01 8.547700e-01 2.485200e-01 4.808435e-02 2.375708e-02 1.903443e-02 1.215195e-02 7.139057e-03 4.224045e-03 2.685199e-03 2.032412e-03 1.627369e-03 1.635210e-03 1.503490e-03 1.658055e-03 1.535331e-03 1.675828e-03 1.494790e-03 1.572955e-03 1.323332e-03 1.318735e-03 9.994617e-04 8.952517e-04 5.059060e-04 2.959698e-04 -1.406613e-04 -4.060432e-04 -7.667400e-04 -8.551916e-04 -7.334085e-04 -2.518348e-05 1.356602e-03 3.845541e-03 8.943798e-03 2.010806e-02 3.316228e-02 2.957045e-02 3.541776e-02 4.270724e-02 3.235767e-02 4.055964e-02 3.312546e-02 3.255076e-02 4.133167e-02 2.672175e-02 4.598291e-02 4.950103e-02 3.593676e-02 4.535527e-02 5.243774e-02 7.936974e-02 9.213266e-02 6.483786e-02 4.206336e-02 3.289302e-02 2.512638e-02 1.752282e-02 1.153778e-02 7.273246e-03 4.347382e-03 2.399666e-03 1.130777e-03 4.354136e-04 6.797510e-05 4.357418e-05 1.078276e-04 3.690183e-04 5.619684e-04 8.847247e-04 1.053625e-03 1.345454e-03 1.442047e-03 1.684650e-03 1.710522e-03 1.911850e-03 1.884266e-03 2.054486e-03 1.993118e-03 2.136839e-03 2.060879e-03 2.176058e-03 2.104280e-03 2.182957e-03 2.133641e-03 2.162947e-03 2.152427e-03 2.114464e-03 2.151983e-03 2.018812e-03 2.091868e-03 1.807361e-03 1.847601e-03 1.286361e-03 1.113267e-03 2.799580e-05 -6.804029e-04 -2.613267e-03 -4.087202e-03 -6.789636e-03 -8.429696e-03 -1.090063e-02 -7.842173e-03 -4.980725e-03 -4.452992e-03 2.255176e-03 6.524113e-03 7.466638e-03 6.572719e-03 
7.286195e-03 3.001078e-03 -4.964197e-03 -3.209635e-02 -7.310878e-02 3.040046e-02 1.833175e-01 1.075291e-01 7.273535e-02 1.190894e-02 -3.969346e-02 2.432089e-01 1.925975e+00 1.720786e+00 8.945548e-01 8.928372e-01 8.930370e-01 8.928436e-01 8.930106e-01 8.936986e-01 1.548780e+00 1.729545e+00 5.244391e-01 1.312232e-01 7.896341e-02 7.893005e-02 6.870084e-02 6.692115e-02 6.205666e-02 6.329105e-02 6.191260e-02 6.306389e-02 6.307252e-02 6.330264e-02 6.407313e-02 6.335569e-02 6.463812e-02 6.315062e-02 6.477504e-02 6.272015e-02 6.451861e-02 6.207099e-02 6.386211e-02 6.115225e-02 6.274381e-02 5.985774e-02 6.106242e-02 5.806515e-02 5.875030e-02 5.577790e-02 5.599606e-02 5.339385e-02 5.342323e-02 5.168437e-02 5.238432e-02 5.306069e-02 5.426263e-02 5.254366e-02 5.032796e-02 4.745880e-02 4.615756e-02 4.622501e-02 4.548316e-02 4.667863e-02 4.749458e-02 4.971899e-02 5.244719e-02 5.657324e-02 6.093574e-02 6.670509e-02 7.025592e-02 7.104785e-02 6.837440e-02 6.677319e-02 6.404016e-02 6.198249e-02 5.960941e-02 5.837129e-02 5.744282e-02 5.705698e-02 5.725820e-02 5.728067e-02 5.828466e-02 5.834958e-02 5.986209e-02 5.967858e-02 6.146555e-02 6.087649e-02 6.279527e-02 6.178819e-02 6.375925e-02 6.242758e-02 6.437962e-02 6.288104e-02 6.470908e-02 6.324401e-02 6.479316e-02 6.359604e-02 6.466163e-02 6.399416e-02 6.433280e-02 6.447430e-02 6.382450e-02 6.505351e-02 6.316076e-02 6.572345e-02 6.237196e-02 6.643855e-02 6.148296e-02 6.708376e-02 6.045792e-02 6.738346e-02 5.904963e-02 6.669418e-02 5.647436e-02 6.365809e-02 5.094130e-02 5.611382e-02 3.956030e-02 4.227230e-02 1.895369e-02 8.255989e-02 1.518456e-01 5.636470e-03 -1.969470e-02 3.817950e-03 1.431867e-02 1.124255e-02 
5.810657e-03 -5.168725e-03 -5.346393e-02 -1.644062e-01 -2.130822e-03 1.774888e+00 2.295202e+00 1.073747e+00 1.220912e+00 9.791659e-01 1.064235e+00 1.172396e+00 1.980510e+00 1.687688e+00 1.347635e+00 1.347070e+00 1.352066e+00 1.347341e+00 1.351382e+00 1.349239e+00 1.669589e+00 1.768472e+00 1.194788e+00 1.070334e+00 9.904626e-01 1.074622e+00 1.026594e+00 1.087641e+00 1.048319e+00 1.092024e+00 1.064093e+00 1.092088e+00 1.075410e+00 1.090003e+00 1.083784e+00 1.087355e+00 1.090203e+00 1.084860e+00 1.095012e+00 1.082675e+00 1.098405e+00 1.081035e+00 1.100790e+00 1.080215e+00 1.102350e+00 1.080066e+00 1.102891e+00 1.080155e+00 1.101805e+00 1.079386e+00 1.097586e+00 1.075944e+00 1.088634e+00 1.068339e+00 1.074295e+00 1.055716e+00 1.053449e+00 1.037484e+00 1.046297e+00 1.016945e+00 1.018314e+00 1.017973e+00 9.968506e-01 1.010331e+00 1.001109e+00 9.960455e-01 1.017577e+00 1.013279e+00 1.033004e+00 1.069681e+00 1.069931e+00 1.065995e+00 1.056687e+00 1.056201e+00 1.050597e+00 1.052115e+00 1.051373e+00 1.053396e+00 1.056451e+00 1.057076e+00 1.063152e+00 1.061007e+00 1.069612e+00 1.064155e+00 1.075026e+00 1.066453e+00 1.079125e+00 1.068164e+00 1.081904e+00 1.069866e+00 1.083602e+00 1.072015e+00 1.084107e+00 1.074635e+00 1.083102e+00 1.077641e+00 1.080285e+00 1.080966e+00 1.075783e+00 1.085126e+00 1.070413e+00 1.090694e+00 1.064650e+00 1.097347e+00 1.058318e+00 1.104188e+00 1.051452e+00 1.110657e+00 1.044968e+00 1.116585e+00 1.040170e+00 1.121587e+00 1.038200e+00 1.124780e+00 1.039170e+00 1.124374e+00 1.040719e+00 1.118365e+00 1.033738e+00 1.107277e+00 9.619763e-01 1.525012e+00 2.492174e+00 8.502640e-01 -1.754387e-02 -7.792466e-02 -7.379473e-03 9.199524e-03 
-4.574215e-03 -4.454744e-02 -1.506674e-01 5.245745e-02 2.790309e+00 5.640519e+00 3.909779e+00 2.645531e+00 2.609634e+00 2.475281e+00 2.477682e+00 2.354494e+00 2.555718e+00 2.403523e+00 2.394017e+00 2.419286e+00 2.427652e+00 2.452925e+00 2.395455e+00 2.434954e+00 2.462563e+00 2.464542e+00 2.241625e+00 2.439581e+00 2.405435e+00 2.582067e+00 2.545919e+00 2.643989e+00 2.623078e+00 2.660850e+00 2.668039e+00 2.661780e+00 2.698560e+00 2.661650e+00 2.722986e+00 2.666533e+00 2.743009e+00 2.674258e+00 2.754089e+00 2.679159e+00 2.754721e+00 2.683430e+00 2.753181e+00 2.694830e+00 2.756722e+00 2.715751e+00 2.768198e+00 2.747243e+00 2.787880e+00 2.782417e+00 2.803389e+00 2.805726e+00 2.804419e+00 2.815012e+00 2.797660e+00 2.820489e+00 2.791329e+00 2.826808e+00 2.802143e+00 2.817332e+00 2.786159e+00 2.803529e+00 2.745692e+00 2.753107e+00 2.696615e+00 2.686567e+00 2.661458e+00 2.657058e+00 2.653472e+00 2.681579e+00 2.683892e+00 2.653834e+00 2.667332e+00 2.630185e+00 2.660091e+00 2.614508e+00 2.665454e+00 2.620486e+00 2.690079e+00 2.644798e+00 2.719049e+00 2.668895e+00 2.734888e+00 2.683521e+00 2.735763e+00 2.692577e+00 2.726667e+00 2.700660e+00 2.713776e+00 2.715088e+00 2.705704e+00 2.738727e+00 2.701552e+00 2.764108e+00 2.695265e+00 2.781999e+00 2.680779e+00 2.785515e+00 2.661116e+00 2.783521e+00 2.653600e+00 2.788798e+00 2.664680e+00 2.795665e+00 2.682016e+00 2.789155e+00 2.694221e+00 2.766924e+00 2.705429e+00 2.740462e+00 2.724719e+00 2.721252e+00 2.756711e+00 2.714303e+00 2.793980e+00 2.711760e+00 2.823482e+00 2.715417e+00 2.852030e+00 2.744446e+00 2.861220e+00 3.252409e+00 5.405735e+00 4.628215e+00 1.161693e+00 -2.111553e-01 -1.027720e-01 -8.393951e-03 
-6.969054e-03 -4.870583e-02 -9.932875e-02 5.331409e-01 4.312692e+00 3.850214e+00 1.265941e-01 1.708723e+00 1.043128e+00 1.371587e+00 1.019861e+00 8.148190e-01 7.940361e-02 8.378284e-02 4.765916e-01 1.952305e-01 3.026737e-01 1.505445e-01 3.445529e-01 3.550224e-01 9.559278e-02 3.093719e-01 8.387228e-01 1.113946e+00 1.223193e+00 1.267110e+00 1.338143e+00 1.320853e+00 1.399524e+00 1.336308e+00 1.432002e+00 1.340620e+00 1.453145e+00 1.348308e+00 1.470880e+00 1.364394e+00 1.485431e+00 1.383748e+00 1.489078e+00 1.397157e+00 1.479140e+00 1.407368e+00 1.467534e+00 1.425604e+00 1.465021e+00 1.455720e+00 1.476359e+00 1.500130e+00 1.503277e+00 1.550691e+00 1.530383e+00 1.588268e+00 1.546694e+00 1.614935e+00 1.566438e+00 1.651591e+00 1.607567e+00 1.705478e+00 1.639556e+00 1.743045e+00 1.684745e+00 1.714843e+00 1.676137e+00 1.651615e+00 1.585037e+00 1.582608e+00 1.482406e+00 1.490994e+00 1.429482e+00 1.381477e+00 1.388469e+00 1.356720e+00 1.403970e+00 1.348939e+00 1.412756e+00 1.338652e+00 1.424675e+00 1.350087e+00 1.457248e+00 1.385199e+00 1.493048e+00 1.419623e+00 1.508607e+00 1.440797e+00 1.502364e+00 1.454458e+00 1.482367e+00 1.466956e+00 1.458235e+00 1.488383e+00 1.443035e+00 1.522339e+00 1.436002e+00 1.557361e+00 1.428804e+00 1.579385e+00 1.413012e+00 1.577877e+00 1.393255e+00 1.565311e+00 1.394687e+00 1.560085e+00 1.426347e+00 1.554068e+00 1.469556e+00 1.526098e+00 1.506535e+00 1.473897e+00 1.541389e+00 1.415815e+00 1.584769e+00 1.370603e+00 1.640261e+00 1.347430e+00 1.693747e+00 1.335441e+00 1.724688e+00 1.333875e+00 1.752011e+00 1.355145e+00 1.860534e+00 1.131203e+00 2.479315e+00 5.258795e+00 1.495392e+00 -3.323445e-01 -1.538204e-01 -2.256517e-02 
2.935175e-03 -1.847871e-02 -3.523270e-02 2.624005e-01 1.627349e+00 -6.411507e-01 -2.689479e+00 -4.125824e-01 -9.672047e-01 -6.104406e-01 -8.786661e-01 -4.292517e-01 2.124820e-01 -4.800352e-01 -1.277547e+00 -1.209375e+00 -1.046242e+00 -1.200718e+00 -1.059548e+00 -1.312471e+00 -3.598139e-01 -1.147257e-01 -4.416149e-01 -7.818065e-01 -7.097972e-01 -7.979976e-01 -7.012411e-01 -7.905081e-01 -7.023922e-01 -7.871848e-01 -7.058961e-01 -7.823157e-01 -7.093562e-01 -7.743944e-01 -7.119251e-01 -7.634155e-01 -7.143897e-01 -7.520064e-01 -7.197707e-01 -7.437740e-01 -7.291321e-01 -7.380117e-01 -7.384051e-01 -7.309413e-01 -7.437959e-01 -7.211035e-01 -7.434285e-01 -7.073242e-01 -7.362019e-01 -6.916249e-01 -7.262803e-01 -6.789056e-01 -7.154437e-01 -6.656467e-01 -6.962143e-01 -6.407895e-01 -6.581376e-01 -6.004821e-01 -6.391407e-01 -5.621900e-01 -5.905381e-01 -5.781813e-01 -5.701831e-01 -5.972802e-01 -6.140342e-01 -6.088823e-01 -6.772692e-01 -6.653798e-01 -7.153188e-01 -7.749569e-01 -7.693079e-01 -7.734151e-01 -7.431437e-01 -7.622278e-01 -7.285871e-01 -7.576519e-01 -7.198137e-01 -7.503145e-01 -7.075893e-01 -7.363508e-01 -6.958481e-01 -7.228041e-01 -6.918133e-01 -7.136482e-01 -6.957254e-01 -7.070216e-01 -7.046186e-01 -7.009399e-01 -7.149051e-01 -6.921316e-01 -7.217574e-01 -6.795477e-01 -7.250382e-01 -6.673419e-01 -7.272061e-01 -6.606464e-01 -7.308048e-01 -6.633924e-01 -7.339683e-01 -6.716205e-01 -7.279455e-01 -6.792624e-01 -7.096563e-01 -6.891591e-01 -6.857155e-01 -7.083505e-01 -6.627229e-01 -7.371039e-01 -6.402013e-01 -7.683292e-01 -6.158512e-01 -7.945455e-01 -5.902343e-01 -8.117636e-01 -5.705213e-01 -8.243421e-01 -5.667698e-01 -8.387422e-01 -5.762912e-01 -8.779444e-01 -5.596343e-01 -1.607179e+00 -1.823762e+00 1.384216e+00 5.565494e-01 -9.295819e-02 -3.591499e-02 2.832607e-03 
5.709676e-03 2.214669e-03 -2.623326e-04 3.914726e-02 1.220204e-01 -7.080016e-01 -1.140318e+00 -4.243126e-01 -5.282712e-01 -4.357417e-01 -5.145564e-01 -2.813318e-01 6.095046e-01 2.258240e+00 3.042376e+00 2.761653e+00 2.771257e+00 2.853016e+00 2.653837e+00 2.937439e+00 2.379418e+00 4.006831e-01 -3.162542e-01 -5.097253e-01 -4.704134e-01 -5.037497e-01 -4.726188e-01 -5.057925e-01 -4.804871e-01 -5.054312e-01 -4.856443e-01 -5.032549e-01 -4.895689e-01 -5.006009e-01 -4.928623e-01 -4.980606e-01 -4.957689e-01 -4.959213e-01 -4.983707e-01 -4.943106e-01 -5.006587e-01 -4.932509e-01 -5.025591e-01 -4.926893e-01 -5.039781e-01 -4.925544e-01 -5.048858e-01 -4.928562e-01 -5.053656e-01 -4.936756e-01 -5.054875e-01 -4.949318e-01 -5.051976e-01 -4.963024e-01 -5.033533e-01 -4.932030e-01 -4.940652e-01 -4.868646e-01 -4.951478e-01 -4.767084e-01 -4.797804e-01 -4.797778e-01 -4.694765e-01 -4.771897e-01 -4.723174e-01 -4.668114e-01 -4.755085e-01 -4.627114e-01 -4.675893e-01 -4.838322e-01 -4.822248e-01 -4.789495e-01 -4.758814e-01 -4.798765e-01 -4.774853e-01 -4.808039e-01 -4.792826e-01 -4.834506e-01 -4.829313e-01 -4.864537e-01 -4.862277e-01 -4.881431e-01 -4.883307e-01 -4.883786e-01 -4.895132e-01 -4.877608e-01 -4.903132e-01 -4.868814e-01 -4.910210e-01 -4.860617e-01 -4.916494e-01 -4.854434e-01 -4.920668e-01 -4.851283e-01 -4.920991e-01 -4.852488e-01 -4.915814e-01 -4.859505e-01 -4.903534e-01 -4.873632e-01 -4.882882e-01 -4.895910e-01 -4.853383e-01 -4.927024e-01 -4.815732e-01 -4.966790e-01 -4.771997e-01 -5.013708e-01 -4.726025e-01 -5.064956e-01 -4.683717e-01 -5.116922e-01 -4.653622e-01 -5.167664e-01 -4.647970e-01 -5.222862e-01 -4.682755e-01 -5.311317e-01 -4.770863e-01 -5.539454e-01 -4.870901e-01 -8.487307e-01 -1.099877e+00 -1.261225e-01 2.892509e-02 1.188721e-02 1.038071e-02 8.342901e-03 
