# vtk DataFile Version 2.0
Comment goes here
ASCII

DATASET STRUCTURED_POINTS
FIELD FieldData 1
TIME 1 1 double
0.89000000
DIMENSIONS    128   16   1

ORIGIN    0.000   0.000   0.000
SPACING   0.0078125 0.015625   1.000

POINT_DATA   2048
SCALARS Omega double
LOOKUP_TABLE default

-6.400316e-06 -6.027939e-06 -5.000966e-06 -2.232278e-06 -7.629497e-06 -3.691380e-05 -7.195413e-06 9.328009e-06 -1.909769e-05 -2.349328e-06 -4.702340e-06 1.674447e-05 -1.731234e-05 -1.466306e-05 -1.335481e-05 7.040705e-05 -1.705855e-05 7.823876e-05 3.670302e-07 3.841322e-05 1.883831e-04 2.606479e-05 -6.706086e-05 -4.981777e-05 -6.496616e-05 -6.650044e-05 -8.065170e-05 -9.494401e-05 -9.655834e-05 -1.250831e-04 -1.189337e-04 -1.629630e-04 -1.526959e-04 -2.110749e-04 -1.999256e-04 -2.683840e-04 -2.583353e-04 -3.278076e-04 -3.165387e-04 -3.716796e-04 -3.489185e-04 -3.680943e-04 -3.124273e-04 -2.692075e-04 -1.487551e-04 -1.576385e-05 1.999337e-04 4.209763e-04 6.830701e-04 8.065913e-04 7.469175e-04 9.762865e-05 -2.030281e-03 -9.563515e-03 -2.683378e-02 -3.620732e-02 6.730374e-03 -5.821426e-03 -6.819472e-02 -1.733652e-02 -2.865850e-02 -6.884960e-02 -2.498848e-02 -7.893052e-02 -6.942871e-02 -3.771563e-02 -8.284549e-02 4.656164e-03 6.581294e-02 3.476033e-02 2.924475e-02 1.933597e-02 9.589943e-03 1.638173e-02 2.287993e-02 1.796926e-02 1.247716e-02 9.215622e-03 6.893605e-03 5.177857e-03 3.543265e-03 2.441874e-03 1.385082e-03 8.359754e-04 2.579232e-04 8.949215e-05 -1.841824e-04 -1.533725e-04 -2.757632e-04 -1.731979e-04 -2.380622e-04 -1.284055e-04 -1.770339e-04 -8.296727e-05 -1.265254e-04 -5.190449e-05 -8.967994e-05 -3.245501e-05 -6.251622e-05 -1.925215e-05 -4.133589e-05 -9.682401e-06 -2.411887e-05 -3.358909e-06 -1.111677e-05 -4.146045e-07 -2.745688e-06 -1.660590e-06 1.025503e-06 -6.639775e-06 9.377507e-07 -1.375745e-05 -7.772824e-07 -2.085056e-05 -1.137739e-06 -2.489618e-05 2.972586e-06 -2.251920e-05 1.552277e-05 -6.064810e-06 4.765068e-05 1.081053e-05 6.418327e-05 1.019606e-05 -2.302248e-05 -1.662487e-05 -9.507327e-06 -7.612494e-06 
-3.785148e-03 -5.881977e-03 -2.427521e-03 3.712725e-02 1.248412e-02 -9.535546e-01 -6.677618e-01 -1.518223e-01 -4.796900e-01 -2.927282e-01 -3.915566e-01 -3.647402e-02 3.820086e-01 1.192971e+00 1.657323e+00 1.675590e+00 1.450959e+00 1.665848e+00 1.481805e+00 1.577758e+00 1.380468e+00 3.186706e-01 -1.139823e-01 -3.444323e-01 -3.267223e-01 -3.611399e-01 -3.245251e-01 -3.620725e-01 -3.284315e-01 -3.634567e-01 -3.317259e-01 -3.632247e-01 -3.346051e-01 -3.618155e-01 -3.372834e-01 -3.595543e-01 -3.397931e-01 -3.567253e-01 -3.420648e-01 -3.535366e-01 -3.439115e-01 -3.501061e-01 -3.450800e-01 -3.463606e-01 -3.452548e-01 -3.419875e-01 -3.439305e-01 -3.363882e-01 -3.403171e-01 -3.287495e-01 -3.335712e-01 -3.194945e-01 -3.310113e-01 -3.398681e-01 -3.574373e-01 -4.611201e-02 9.283805e-01 5.330152e-01 -5.472507e-01 8.129214e-01 4.631718e-01 -5.158791e-02 1.140426e+00 -9.973537e-02 7.115735e-01 1.257314e+00 -1.945997e-01 1.682319e+00 6.858664e-01 -2.629564e+00 -2.220392e+00 -7.461566e-01 -4.304510e-01 -4.837415e-01 -3.261654e-01 -3.003450e-01 -3.025522e-01 -3.233092e-01 -3.246267e-01 -3.347520e-01 -3.354571e-01 -3.398358e-01 -3.418048e-01 -3.419720e-01 -3.454954e-01 -3.426232e-01 -3.475512e-01 -3.426789e-01 -3.486050e-01 -3.426529e-01 -3.489449e-01 -3.428560e-01 -3.486683e-01 -3.434889e-01 -3.477262e-01 -3.447208e-01 -3.460104e-01 -3.466843e-01 -3.435001e-01 -3.493648e-01 -3.403276e-01 -3.526238e-01 -3.366774e-01 -3.562500e-01 -3.328563e-01 -3.598302e-01 -3.293275e-01 -3.628163e-01 -3.265971e-01 -3.645779e-01 -3.252242e-01 -3.643650e-01 -3.256612e-01 -3.613900e-01 -3.279481e-01 -3.547885e-01 -3.312137e-01 -3.434369e-01 -3.320217e-01 -3.249511e-01 -3.155214e-01 -3.533644e-01 -7.177936e-01 -3.321846e-01 -4.809953e-02 -2.716795e-02 -1.312997e-02 -5.021556e-03 
-3.736540e-03 -1.224451e-02 1.959410e-02 3.691292e-01 9.767453e-01 -1.955115e+00 -1.350259e+00 2.528924e-01 -8.310289e-01 -2.668955e-01 -5.965164e-01 -3.960749e-02 -4.590084e-01 -3.214325e-01 -9.901234e-01 -7.684349e-01 -8.435754e-01 -7.377699e-01 -8.557935e-01 -8.252279e-01 -3.962861e-01 -5.375841e-01 -2.639911e-01 -4.769277e-01 -4.631940e-01 -5.072908e-01 -4.446210e-01 -5.042147e-01 -4.330038e-01 -5.068867e-01 -4.247248e-01 -5.087917e-01 -4.189725e-01 -5.093271e-01 -4.169593e-01 -5.081985e-01 -4.181726e-01 -5.041738e-01 -4.217493e-01 -4.973866e-01 -4.276886e-01 -4.885914e-01 -4.355177e-01 -4.782643e-01 -4.448978e-01 -4.671580e-01 -4.554744e-01 -4.562971e-01 -4.674186e-01 -4.479469e-01 -4.816761e-01 -4.461468e-01 -5.083519e-01 -4.852004e-01 -5.147277e-01 1.278138e-01 1.803589e+00 1.715766e+00 -4.108413e-01 7.599959e-01 4.496464e-01 -4.081948e-01 9.416053e-01 -5.282804e-01 -2.034787e-02 6.907749e-01 -1.295767e+00 3.496056e-01 3.729199e-01 -1.388478e+00 -4.530949e-01 -2.816489e-01 -8.012291e-01 -7.289181e-01 -3.942620e-01 -3.803907e-01 -3.511815e-01 -4.184346e-01 -3.929205e-01 -4.338377e-01 -4.143787e-01 -4.362514e-01 -4.298365e-01 -4.335054e-01 -4.415263e-01 -4.272511e-01 -4.497559e-01 -4.192374e-01 -4.553238e-01 -4.116448e-01 -4.593591e-01 -4.072873e-01 -4.625000e-01 -4.072369e-01 -4.626689e-01 -4.106037e-01 -4.572257e-01 -4.171027e-01 -4.455465e-01 -4.276500e-01 -4.293032e-01 -4.432894e-01 -4.104404e-01 -4.635821e-01 -3.904742e-01 -4.858040e-01 -3.702813e-01 -5.053220e-01 -3.514405e-01 -5.189614e-01 -3.386543e-01 -5.247924e-01 -3.364787e-01 -5.198365e-01 -3.474711e-01 -5.006301e-01 -3.711140e-01 -4.624233e-01 -4.000796e-01 -3.972745e-01 -4.008680e-01 -3.880549e-01 -1.556724e+00 2.331703e-01 7.953402e-01 -8.410113e-04 -5.199070e-02 -1.203834e-02 
4.598049e-04 -2.688055e-02 2.923598e-02 8.557216e-01 3.094132e+00 1.254238e+00 1.637146e-01 1.343989e+00 6.656546e-01 9.411234e-01 6.598358e-01 5.035926e-01 4.203585e-01 2.143400e-01 4.948669e-01 2.808320e-01 3.990922e-01 2.510571e-01 4.024562e-01 4.129430e-01 1.953653e-01 6.301622e-01 4.846028e-01 8.062226e-01 7.573632e-01 8.987617e-01 8.292648e-01 9.087513e-01 8.769351e-01 9.019301e-01 9.159479e-01 8.900228e-01 9.474481e-01 8.757466e-01 9.683367e-01 8.614050e-01 9.797708e-01 8.520187e-01 9.833550e-01 8.482236e-01 9.774126e-01 8.483438e-01 9.612899e-01 8.502687e-01 9.335636e-01 8.494301e-01 8.914213e-01 8.381309e-01 8.274091e-01 8.010345e-01 7.264285e-01 7.162123e-01 5.707985e-01 5.678033e-01 3.241605e-01 2.429418e-02 -1.086507e+00 -8.102241e-01 4.236798e-02 -7.012269e-01 -5.979111e-01 5.912164e-02 -9.202797e-01 1.614676e-01 -2.698796e-01 -6.900540e-01 8.485042e-01 -5.088016e-01 1.072951e-01 2.030931e+00 1.609584e+00 1.251860e+00 1.443800e+00 1.151109e+00 9.692375e-01 8.380716e-01 9.196528e-01 8.662024e-01 9.474559e-01 8.999763e-01 9.593058e-01 9.256035e-01 9.565257e-01 9.469009e-01 9.475299e-01 9.700606e-01 9.382498e-01 9.955196e-01 9.299775e-01 1.019687e+00 9.208954e-01 1.035971e+00 9.096968e-01 1.042388e+00 9.022744e-01 1.042620e+00 9.058331e-01 1.038351e+00 9.222754e-01 1.026644e+00 9.478693e-01 1.003318e+00 9.783992e-01 9.681254e-01 1.011731e+00 9.261896e-01 1.048706e+00 8.874308e-01 1.088375e+00 8.571450e-01 1.121049e+00 8.364225e-01 1.136978e+00 8.298033e-01 1.129994e+00 8.434599e-01 1.096946e+00 8.847337e-01 1.035615e+00 9.559139e-01 9.312484e-01 1.019249e+00 2.164210e-01 3.239032e+00 2.731367e+00 1.322316e-01 -8.849576e-02 -1.444231e-02 
7.304416e-03 -9.814664e-03 3.603393e-02 6.599275e-01 2.678647e+00 4.397059e+00 1.948397e+00 1.220057e+00 1.918468e+00 1.502531e+00 1.771544e+00 1.445957e+00 1.775894e+00 1.573990e+00 1.720859e+00 1.599803e+00 1.718305e+00 1.645657e+00 1.669899e+00 1.674630e+00 1.661932e+00 1.634988e+00 1.549799e+00 1.776995e+00 1.595145e+00 1.816122e+00 1.658288e+00 1.831252e+00 1.701001e+00 1.827005e+00 1.735248e+00 1.815105e+00 1.763758e+00 1.798760e+00 1.784946e+00 1.780373e+00 1.799479e+00 1.763973e+00 1.807963e+00 1.750313e+00 1.808372e+00 1.738307e+00 1.799205e+00 1.725971e+00 1.778223e+00 1.708849e+00 1.741540e+00 1.679216e+00 1.680500e+00 1.621915e+00 1.577821e+00 1.512217e+00 1.402335e+00 1.299745e+00 1.056572e+00 8.581168e-01 5.717633e-01 2.799336e-01 5.336102e-01 9.350782e-01 7.397465e-01 1.008085e+00 9.642979e-01 9.108520e-01 1.343943e+00 1.095480e+00 1.129386e+00 1.637866e+00 1.210274e+00 1.785657e-01 2.566196e-01 5.367834e-01 7.704009e-01 1.175125e+00 1.455199e+00 1.553365e+00 1.630365e+00 1.652062e+00 1.713139e+00 1.712875e+00 1.760152e+00 1.749882e+00 1.781976e+00 1.774482e+00 1.790432e+00 1.795835e+00 1.792700e+00 1.816900e+00 1.791529e+00 1.836652e+00 1.786610e+00 1.851415e+00 1.777579e+00 1.860389e+00 1.768670e+00 1.866568e+00 1.764843e+00 1.871415e+00 1.767660e+00 1.872683e+00 1.775272e+00 1.866876e+00 1.785588e+00 1.853061e+00 1.798250e+00 1.833457e+00 1.815383e+00 1.813311e+00 1.837921e+00 1.794632e+00 1.860918e+00 1.776437e+00 1.879258e+00 1.760653e+00 1.889801e+00 1.751583e+00 1.891067e+00 1.757587e+00 1.883044e+00 1.795704e+00 1.867453e+00 2.029959e+00 2.759379e+00 3.618130e+00 1.819886e+00 -7.438522e-02 -9.599625e-02 -1.125029e-02 
6.480110e-03 1.855997e-03 -2.303867e-02 8.058534e-03 5.286908e-01 2.403209e+00 1.245687e+00 2.544266e-01 9.347186e-01 6.125833e-01 9.415006e-01 9.661315e-01 1.059102e+00 9.561678e-01 8.661033e-01 8.602524e-01 8.679222e-01 8.628142e-01 8.645732e-01 8.678163e-01 1.000814e+00 9.859653e-01 8.829886e-01 8.082591e-01 7.265665e-01 8.215130e-01 7.608998e-01 8.364997e-01 7.728995e-01 8.376394e-01 7.793046e-01 8.344211e-01 7.841627e-01 8.292113e-01 7.884337e-01 8.229018e-01 7.921439e-01 8.159107e-01 7.949029e-01 8.082238e-01 7.959047e-01 7.995025e-01 7.941459e-01 7.888797e-01 7.882702e-01 7.747000e-01 7.761747e-01 7.542353e-01 7.544091e-01 7.232152e-01 7.178333e-01 6.743724e-01 6.469107e-01 5.670092e-01 6.243121e-01 1.508221e+00 4.020990e+00 3.945367e+00 1.261035e+00 2.029545e+00 2.016575e+00 9.000339e-01 2.280867e+00 9.047771e-01 9.905147e-01 2.018077e+00 -1.319984e-02 1.096398e+00 1.642922e+00 1.660020e-01 9.979917e-01 1.324137e+00 5.948074e-01 4.089727e-01 5.705723e-01 6.918915e-01 6.938003e-01 7.167538e-01 7.234701e-01 7.428206e-01 7.545376e-01 7.634744e-01 7.763796e-01 7.769204e-01 7.903899e-01 7.856967e-01 7.988065e-01 7.918767e-01 8.033506e-01 7.967233e-01 8.050202e-01 8.009184e-01 8.044552e-01 8.049681e-01 8.021966e-01 8.093816e-01 7.986461e-01 8.144516e-01 7.941463e-01 8.199839e-01 7.891045e-01 8.255040e-01 7.839306e-01 8.305670e-01 7.792390e-01 8.345735e-01 7.759590e-01 8.369361e-01 7.749844e-01 8.369571e-01 7.770873e-01 8.339074e-01 7.831690e-01 8.278483e-01 7.945722e-01 8.206388e-01 8.142810e-01 8.186476e-01 8.495505e-01 8.379754e-01 9.156935e-01 9.796389e-01 1.674797e+00 1.005177e+00 9.436440e-02 -8.658939e-02 -2.841752e-02 6.167280e-04 
2.488478e-03 7.006111e-03 5.088632e-03 -9.040636e-03 -1.301535e-04 1.549638e-01 1.494879e-01 4.742974e-02 8.376066e-02 8.808150e-02 2.283236e-01 6.699618e-01 1.030011e+00 7.803469e-01 5.551380e-01 5.545949e-01 5.549078e-01 5.546954e-01 5.547763e-01 5.556795e-01 9.631388e-01 1.063363e+00 3.307042e-01 2.760267e-02 2.315951e-02 5.814322e-02 6.769855e-02 7.852758e-02 7.680953e-02 8.207456e-02 7.865112e-02 8.185944e-02 7.857833e-02 8.068460e-02 7.809798e-02 7.935491e-02 7.750575e-02 7.794145e-02 7.667751e-02 7.625887e-02 7.532671e-02 7.399311e-02 7.305666e-02 7.070577e-02 6.937338e-02 6.587838e-02 6.380805e-02 5.920377e-02 5.649963e-02 5.180467e-02 5.061154e-02 4.963945e-02 5.205166e-02 6.206641e-02 1.982245e-01 8.404730e-01 1.898534e+00 1.621501e+00 4.263113e-01 9.904295e-01 1.049138e+00 5.051495e-01 1.346882e+00 6.980329e-01 7.256189e-01 1.527837e+00 6.549376e-01 1.217611e+00 1.472435e+00 2.199179e-01 5.307405e-01 1.925385e+00 1.829098e+00 6.621160e-01 1.771057e-01 1.186483e-01 9.525175e-02 7.747129e-02 6.683316e-02 6.273361e-02 6.235106e-02 6.299421e-02 6.537735e-02 6.656643e-02 6.930468e-02 7.001905e-02 7.248668e-02 7.265902e-02 7.473419e-02 7.453023e-02 7.619791e-02 7.582867e-02 7.707083e-02 7.675177e-02 7.751174e-02 7.746210e-02 7.763436e-02 7.807696e-02 7.752299e-02 7.866412e-02 7.724621e-02 7.925526e-02 7.685905e-02 7.985869e-02 7.642328e-02 8.045760e-02 7.602462e-02 8.103804e-02 7.579375e-02 8.163792e-02 7.597899e-02 8.245287e-02 7.708717e-02 8.407170e-02 8.015804e-02 8.786846e-02 8.713814e-02 9.625672e-02 9.996146e-02 1.096165e-01 1.174736e-01 1.504522e-01 1.931244e-01 5.035848e-02 -3.338926e-02 -2.230683e-02 -7.818556e-03 -1.465458e-03 
-4.826014e-04 1.181586e-03 2.466011e-03 1.201676e-03 -2.823104e-03 -2.001438e-03 5.003936e-03 4.835067e-03 1.153995e-02 2.689963e-02 9.212521e-02 3.282967e-01 5.035370e-01 3.893651e-01 2.768610e-01 2.767124e-01 2.767122e-01 2.767121e-01 2.767130e-01 2.771406e-01 4.925923e-01 5.438233e-01 1.121735e-01 -5.068481e-02 -4.233494e-02 -2.258626e-02 -1.213718e-02 -7.081906e-03 -4.357920e-03 -2.847949e-03 -2.144400e-03 -1.867961e-03 -1.831684e-03 -1.967291e-03 -2.102605e-03 -2.378040e-03 -2.562001e-03 -2.926369e-03 -3.174234e-03 -3.656569e-03 -4.032232e-03 -4.685942e-03 -5.256968e-03 -6.109214e-03 -6.870722e-03 -7.795862e-03 -8.464022e-03 -8.853225e-03 -8.351596e-03 -6.302111e-03 -1.594485e-03 6.603804e-03 1.622304e-02 3.172718e-02 1.403380e-01 6.261622e-01 1.292246e+00 5.859987e-01 -3.435401e-01 6.161277e-01 1.886114e-01 -1.174442e-01 8.012689e-01 -3.697696e-01 5.550072e-01 6.530629e-01 -7.575352e-01 1.037266e+00 3.161900e-01 -9.347265e-01 4.939608e-01 7.719998e-01 3.840129e-01 3.030304e-01 1.985589e-01 1.191526e-01 6.557619e-02 3.288278e-02 1.391870e-02 3.215623e-03 -2.494882e-03 -5.377057e-03 -6.544984e-03 -6.871197e-03 -6.640727e-03 -6.253847e-03 -5.691929e-03 -5.198714e-03 -4.648158e-03 -4.235191e-03 -3.791746e-03 -3.499021e-03 -3.170299e-03 -2.984581e-03 -2.749462e-03 -2.641573e-03 -2.475836e-03 -2.416154e-03 -2.302358e-03 -2.265388e-03 -2.194849e-03 -2.158784e-03 -2.129883e-03 -2.074626e-03 -2.088887e-03 -1.993138e-03 -2.048582e-03 -1.883315e-03 -1.961569e-03 -1.675362e-03 -1.717015e-03 -1.207178e-03 -1.072863e-03 -1.457037e-04 4.168871e-04 2.047053e-03 3.326336e-03 5.801012e-03 7.514796e-03 9.585325e-03 9.416244e-03 1.054707e-02 9.101319e-03 -2.400850e-03 -5.027019e-03 -2.853081e-03 -2.161538e-03 -1.476730e-03 
-1.496555e-06 -1.167547e-06 4.951140e-07 8.246866e-07 1.751706e-06 1.931697e-06 2.575216e-06 4.714385e-06 6.923272e-06 1.097335e-05 2.411763e-05 4.031436e-05 -6.173898e-05 -3.616249e-05 -4.962789e-08 1.787748e-10 1.145644e-10 2.668028e-10 -8.538538e-09 -4.537501e-06 -2.271657e-03 3.943545e-04 1.070357e-04 9.588617e-05 2.861908e-05 -3.270792e-05 -6.776782e-05 -1.008571e-04 -1.262668e-04 -1.573139e-04 -1.903429e-04 -2.347265e-04 -2.877974e-04 -3.588689e-04 -4.451769e-04 -5.591679e-04 -6.967617e-04 -8.760307e-04 -1.089986e-03 -1.363022e-03 -1.682347e-03 -2.073918e-03 -2.511510e-03 -3.003784e-03 -3.490144e-03 -3.913258e-03 -4.129502e-03 -3.919367e-03 -2.963902e-03 -7.157148e-04 3.436672e-03 9.911553e-03 1.687744e-02 2.367103e-02 7.285419e-02 3.469447e-01 8.985821e-01 6.566847e-01 -1.058011e-01 9.004996e-02 -1.095506e-01 -2.356924e-01 1.268202e-01 -3.783823e-01 3.872949e-02 5.616455e-02 -4.854587e-01 1.943304e-01 -8.660026e-02 -9.910484e-02 7.792876e-01 5.225808e-01 8.941630e-02 1.328953e-01 1.433856e-01 9.850998e-02 5.884015e-02 3.371257e-02 1.837519e-02 9.017848e-03 3.398670e-03 1.718592e-04 -1.594166e-03 -2.437667e-03 -2.749787e-03 -2.732961e-03 -2.546952e-03 -2.269344e-03 -1.962831e-03 -1.658744e-03 -1.375938e-03 -1.126941e-03 -9.105581e-04 -7.315614e-04 -5.811642e-04 -4.614946e-04 -3.625227e-04 -2.858389e-04 -2.227704e-04 -1.749065e-04 -1.355782e-04 -1.062937e-04 -8.226785e-05 -6.471806e-05 -5.043339e-05 -4.017867e-05 -3.200993e-05 -2.616825e-05 -2.170849e-05 -1.835669e-05 -1.594350e-05 -1.374975e-05 -1.221002e-05 -1.025907e-05 -8.838061e-06 -6.621602e-06 -5.113782e-06 -2.708454e-06 -1.746713e-06 -6.715442e-08 -1.039386e-06 -8.582329e-07 -2.817793e-06 -2.694329e-06 -2.529645e-06 -3.866967e-06 -2.676780e-06 -3.179578e-06 
4.803718e-04 -1.182943e-03 -2.464573e-03 -1.200069e-03 2.824447e-03 2.004707e-03 -5.002646e-03 -4.830388e-03 -1.152711e-02 -2.687607e-02 -9.206700e-02 -3.282220e-01 -5.038026e-01 -3.893260e-01 -2.768610e-01 -2.767124e-01 -2.767122e-01 -2.767121e-01 -2.767130e-01 -2.771526e-01 -4.986633e-01 -5.448506e-01 -1.122502e-01 5.091028e-02 4.242889e-02 2.253159e-02 1.200689e-02 6.874821e-03 4.100892e-03 2.517771e-03 1.747393e-03 1.367230e-03 1.219506e-03 1.191245e-03 1.139741e-03 1.154119e-03 1.032428e-03 9.856654e-04 7.459134e-04 5.943714e-04 2.180999e-04 -6.608106e-05 -5.850109e-04 -1.003992e-03 -1.625888e-03 -2.093049e-03 -2.637399e-03 -2.849989e-03 -2.843373e-03 -2.129274e-03 -6.681816e-04 2.009623e-03 5.401018e-03 7.827200e-03 8.346305e-03 1.901300e-02 5.216571e-02 3.868847e-02 -5.364532e-03 8.284506e-03 3.320496e-03 7.228383e-03 2.107628e-02 9.178929e-03 4.134681e-02 2.998833e-02 3.141200e-02 7.888524e-02 8.013532e-02 1.085658e-01 1.234053e-01 9.042371e-02 8.622173e-02 8.948333e-02 6.981820e-02 4.612622e-02 2.845313e-02 1.657678e-02 8.746929e-03 3.798478e-03 8.099112e-04 -8.132450e-04 -1.592841e-03 -1.801096e-03 -1.702883e-03 -1.395328e-03 -1.019190e-03 -5.867642e-04 -1.906133e-04 2.083657e-04 5.259697e-04 8.424915e-04 1.059968e-03 1.294148e-03 1.424195e-03 1.592362e-03 1.659046e-03 1.777041e-03 1.805428e-03 1.882311e-03 1.895205e-03 1.932373e-03 1.949653e-03 1.941729e-03 1.979199e-03 1.913990e-03 1.979101e-03 1.833441e-03 1.914059e-03 1.640551e-03 1.681470e-03 1.180411e-03 1.045042e-03 1.251471e-04 -4.371691e-04 -2.059815e-03 -3.337051e-03 -5.803354e-03 -7.515154e-03 -9.579041e-03 -9.414388e-03 -1.054043e-02 -9.102597e-03 2.401800e-03 5.028838e-03 2.849565e-03 2.159086e-03 1.471922e-03 
-2.488542e-03 -7.004441e-03 -5.084605e-03 9.041556e-03 1.487656e-04 -1.548660e-01 -1.495184e-01 -4.752607e-02 -8.372488e-02 -8.809635e-02 -2.282552e-01 -6.698915e-01 -1.030178e+00 -7.803227e-01 -5.551358e-01 -5.545949e-01 -5.549058e-01 -5.546951e-01 -5.547766e-01 -5.556841e-01 -9.668132e-01 -1.062025e+00 -3.306070e-01 -2.759822e-02 -2.326590e-02 -5.835531e-02 -6.801420e-02 -7.890473e-02 -7.731051e-02 -8.263855e-02 -7.939990e-02 -8.271266e-02 -7.971345e-02 -8.201405e-02 -7.984708e-02 -8.146122e-02 -8.023496e-02 -8.129564e-02 -8.096999e-02 -8.159488e-02 -8.210024e-02 -8.243655e-02 -8.370875e-02 -8.392584e-02 -8.590070e-02 -8.614548e-02 -8.871208e-02 -8.902520e-02 -9.193915e-02 -9.215838e-02 -9.496978e-02 -9.470466e-02 -9.684574e-02 -9.598273e-02 -9.804324e-02 -9.758550e-02 -9.826346e-02 -9.732126e-02 -1.004747e-01 -9.772902e-02 -9.919087e-02 -9.940085e-02 -9.856089e-02 -9.848419e-02 -9.670044e-02 -9.423104e-02 -9.136376e-02 -8.464552e-02 -7.929552e-02 -7.503263e-02 -7.177577e-02 -7.063686e-02 -7.021057e-02 -7.436131e-02 -8.019551e-02 -8.564865e-02 -8.900728e-02 -9.098853e-02 -9.169431e-02 -9.142355e-02 -9.078797e-02 -8.946851e-02 -8.844903e-02 -8.683216e-02 -8.591098e-02 -8.435045e-02 -8.370081e-02 -8.233929e-02 -8.197323e-02 -8.086378e-02 -8.070397e-02 -7.987799e-02 -7.979075e-02 -7.929810e-02 -7.911237e-02 -7.904087e-02 -7.856189e-02 -7.903744e-02 -7.806147e-02 -7.923296e-02 -7.756533e-02 -7.958022e-02 -7.705954e-02 -8.003230e-02 -7.656377e-02 -8.054120e-02 -7.613571e-02 -8.107172e-02 -7.589241e-02 -8.164461e-02 -7.607124e-02 -8.244584e-02 -7.717068e-02 -8.405495e-02 -8.022808e-02 -8.783776e-02 -8.718761e-02 -9.620286e-02 -9.998405e-02 -1.095366e-01 -1.174875e-01 -1.503317e-01 -1.931640e-01 -5.039508e-02 3.339410e-02 2.230768e-02 7.824188e-03 1.464665e-03 
-6.480406e-03 -1.852557e-03 2.303526e-02 -8.053923e-03 -5.283633e-01 -2.401959e+00 -1.245856e+00 -2.555139e-01 -9.342742e-01 -6.129575e-01 -9.412078e-01 -9.662047e-01 -1.059667e+00 -9.558828e-01 -8.660511e-01 -8.602510e-01 -8.678768e-01 -8.628058e-01 -8.645853e-01 -8.677637e-01 -1.004653e+00 -9.845855e-01 -8.835952e-01 -8.081270e-01 -7.274232e-01 -8.215859e-01 -7.624254e-01 -8.370561e-01 -7.752307e-01 -8.388165e-01 -7.824749e-01 -8.363461e-01 -7.883353e-01 -8.324378e-01 -7.941759e-01 -8.284786e-01 -8.004151e-01 -8.251228e-01 -8.070436e-01 -8.227219e-01 -8.139798e-01 -8.215800e-01 -8.213413e-01 -8.222669e-01 -8.296921e-01 -8.255460e-01 -8.396278e-01 -8.318413e-01 -8.512910e-01 -8.409373e-01 -8.640664e-01 -8.516597e-01 -8.761156e-01 -8.612731e-01 -8.836484e-01 -8.642583e-01 -8.792153e-01 -8.583527e-01 -8.851745e-01 -8.561586e-01 -8.727014e-01 -8.678326e-01 -8.660597e-01 -8.729551e-01 -8.776992e-01 -8.707260e-01 -8.952629e-01 -8.873931e-01 -9.028238e-01 -9.309358e-01 -9.308344e-01 -9.265197e-01 -9.177511e-01 -9.118251e-01 -8.989165e-01 -8.894761e-01 -8.782553e-01 -8.675134e-01 -8.597751e-01 -8.488341e-01 -8.450818e-01 -8.345292e-01 -8.340693e-01 -8.242266e-01 -8.257862e-01 -8.171664e-01 -8.194268e-01 -8.128411e-01 -8.144420e-01 -8.108399e-01 -8.103135e-01 -8.107704e-01 -8.065006e-01 -8.121969e-01 -8.024823e-01 -8.147631e-01 -7.980136e-01 -8.182723e-01 -7.931653e-01 -8.225396e-01 -7.881951e-01 -8.272242e-01 -7.834256e-01 -8.317589e-01 -7.793448e-01 -8.354312e-01 -7.765410e-01 -8.373650e-01 -7.756850e-01 -8.367993e-01 -7.777330e-01 -8.333267e-01 -7.837600e-01 -8.271245e-01 -7.952033e-01 -8.199863e-01 -8.149530e-01 -8.180404e-01 -8.500923e-01 -8.372507e-01 -9.160281e-01 -9.784741e-01 -1.675021e+00 -1.005824e+00 -9.454471e-02 8.649587e-02 2.841281e-02 -6.108684e-04 
-7.308368e-03 9.802330e-03 -3.612991e-02 -6.602222e-01 -2.678083e+00 -4.394980e+00 -1.948388e+00 -1.221385e+00 -1.917655e+00 -1.503266e+00 -1.771279e+00 -1.446559e+00 -1.775926e+00 -1.573721e+00 -1.720563e+00 -1.599980e+00 -1.717862e+00 -1.645955e+00 -1.669561e+00 -1.674673e+00 -1.662898e+00 -1.633468e+00 -1.551914e+00 -1.773550e+00 -1.597174e+00 -1.814248e+00 -1.663503e+00 -1.834438e+00 -1.709709e+00 -1.833919e+00 -1.743102e+00 -1.821740e+00 -1.767735e+00 -1.806319e+00 -1.789503e+00 -1.795901e+00 -1.811554e+00 -1.792785e+00 -1.832089e+00 -1.794832e+00 -1.847281e+00 -1.798660e+00 -1.855945e+00 -1.806320e+00 -1.864708e+00 -1.824634e+00 -1.880592e+00 -1.855942e+00 -1.904844e+00 -1.897196e+00 -1.935046e+00 -1.943481e+00 -1.968375e+00 -1.990252e+00 -2.000810e+00 -2.028903e+00 -2.019651e+00 -2.047025e+00 -2.036714e+00 -2.050617e+00 -2.031939e+00 -2.053854e+00 -2.027497e+00 -2.046405e+00 -2.029588e+00 -2.029305e+00 -2.031949e+00 -2.024098e+00 -2.034538e+00 -2.045552e+00 -2.065873e+00 -2.021908e+00 -2.043102e+00 -1.983681e+00 -2.006852e+00 -1.934418e+00 -1.963826e+00 -1.890459e+00 -1.925320e+00 -1.860636e+00 -1.896431e+00 -1.846696e+00 -1.874279e+00 -1.841931e+00 -1.851533e+00 -1.840375e+00 -1.827528e+00 -1.843127e+00 -1.806378e+00 -1.851546e+00 -1.790670e+00 -1.864239e+00 -1.779906e+00 -1.876114e+00 -1.771048e+00 -1.882311e+00 -1.763848e+00 -1.882113e+00 -1.761188e+00 -1.877245e+00 -1.766125e+00 -1.868826e+00 -1.778819e+00 -1.856487e+00 -1.797995e+00 -1.840244e+00 -1.820423e+00 -1.818702e+00 -1.841579e+00 -1.793650e+00 -1.861012e+00 -1.770786e+00 -1.878395e+00 -1.754830e+00 -1.891646e+00 -1.749483e+00 -1.896284e+00 -1.757897e+00 -1.887401e+00 -1.794641e+00 -1.867957e+00 -2.026886e+00 -2.756327e+00 -3.620470e+00 -1.819973e+00 7.364663e-02 9.579422e-02 1.124702e-02 
-4.607007e-04 2.687015e-02 -2.932908e-02 -8.561791e-01 -3.094202e+00 -1.254262e+00 -1.634019e-01 -1.343259e+00 -6.654646e-01 -9.412635e-01 -6.599787e-01 -5.040961e-01 -4.192614e-01 -2.146600e-01 -4.947839e-01 -2.806365e-01 -3.993528e-01 -2.508260e-01 -4.038336e-01 -4.107745e-01 -1.972537e-01 -6.275150e-01 -4.864081e-01 -8.013515e-01 -7.588492e-01 -8.961615e-01 -8.343307e-01 -9.131108e-01 -8.856727e-01 -9.109304e-01 -9.216031e-01 -8.973517e-01 -9.451601e-01 -8.822989e-01 -9.641181e-01 -8.761704e-01 -9.828271e-01 -8.810512e-01 -9.986553e-01 -8.927267e-01 -1.006043e+00 -9.052304e-01 -1.003163e+00 -9.205145e-01 -9.993504e-01 -9.475585e-01 -1.004468e+00 -9.891180e-01 -1.020278e+00 -1.040815e+00 -1.044226e+00 -1.097167e+00 -1.075533e+00 -1.156674e+00 -1.116302e+00 -1.219157e+00 -1.165793e+00 -1.272800e+00 -1.184626e+00 -1.288177e+00 -1.216261e+00 -1.267634e+00 -1.231080e+00 -1.247269e+00 -1.206364e+00 -1.227820e+00 -1.164151e+00 -1.170266e+00 -1.141764e+00 -1.077803e+00 -1.103513e+00 -1.040074e+00 -1.095364e+00 -1.013744e+00 -1.086202e+00 -9.921058e-01 -1.068527e+00 -9.733827e-01 -1.047896e+00 -9.656047e-01 -1.030824e+00 -9.713308e-01 -1.015244e+00 -9.826016e-01 -9.931538e-01 -9.925567e-01 -9.657970e-01 -1.004138e+00 -9.408614e-01 -1.020165e+00 -9.234531e-01 -1.039028e+00 -9.139330e-01 -1.053456e+00 -9.087131e-01 -1.056395e+00 -9.079352e-01 -1.046943e+00 -9.158791e-01 -1.028072e+00 -9.366390e-01 -1.002296e+00 -9.695961e-01 -9.704676e-01 -1.011412e+00 -9.344982e-01 -1.055384e+00 -8.946115e-01 -1.092566e+00 -8.558928e-01 -1.119792e+00 -8.290005e-01 -1.134328e+00 -8.225052e-01 -1.131414e+00 -8.417991e-01 -1.103441e+00 -8.866812e-01 -1.040955e+00 -9.559524e-01 -9.310394e-01 -1.017766e+00 -2.109608e-01 -3.240805e+00 -2.731065e+00 -1.332616e-01 8.818199e-02 1.440512e-02 
3.727898e-03 1.223847e-02 -1.961283e-02 -3.692959e-01 -9.771561e-01 1.953596e+00 1.350367e+00 -2.513602e-01 8.306032e-01 2.673328e-01 5.963527e-01 3.958561e-02 4.582233e-01 3.212051e-01 9.909079e-01 7.681578e-01 8.424413e-01 7.395055e-01 8.532536e-01 8.263836e-01 3.921349e-01 5.387170e-01 2.632381e-01 4.784458e-01 4.633033e-01 5.082231e-01 4.439939e-01 5.029167e-01 4.317796e-01 5.043163e-01 4.254399e-01 5.072921e-01 4.235088e-01 5.089358e-01 4.234404e-01 5.063452e-01 4.237771e-01 4.994474e-01 4.253771e-01 4.902726e-01 4.300758e-01 4.814098e-01 4.384607e-01 4.726975e-01 4.473784e-01 4.614961e-01 4.535205e-01 4.471455e-01 4.562442e-01 4.311360e-01 4.559995e-01 4.146738e-01 4.516687e-01 3.961644e-01 4.391454e-01 3.700083e-01 4.100086e-01 3.371248e-01 4.077107e-01 3.274621e-01 3.758576e-01 3.467732e-01 3.580696e-01 3.566191e-01 3.789683e-01 3.580317e-01 4.145463e-01 4.022162e-01 4.346605e-01 4.993557e-01 4.940458e-01 5.176230e-01 4.843648e-01 5.113523e-01 4.648195e-01 4.943072e-01 4.495321e-01 4.802517e-01 4.411019e-01 4.675589e-01 4.368155e-01 4.546977e-01 4.359887e-01 4.432649e-01 4.399538e-01 4.346479e-01 4.471830e-01 4.272162e-01 4.542280e-01 4.196931e-01 4.586957e-01 4.125706e-01 4.599234e-01 4.084436e-01 4.586981e-01 4.098924e-01 4.546647e-01 4.173183e-01 4.462437e-01 4.296003e-01 4.321374e-01 4.455249e-01 4.129384e-01 4.641459e-01 3.905263e-01 4.838415e-01 3.682533e-01 5.033192e-01 3.504745e-01 5.194244e-01 3.396700e-01 5.270387e-01 3.379767e-01 5.218279e-01 3.475337e-01 5.005521e-01 3.693930e-01 4.610386e-01 3.987718e-01 3.965220e-01 4.016112e-01 3.873402e-01 1.559559e+00 -2.332398e-01 -7.953903e-01 3.203200e-04 5.183434e-02 1.200685e-02 
3.770558e-03 5.871097e-03 2.423329e-03 -3.714315e-02 -1.266492e-02 9.529036e-01 6.677688e-01 1.523451e-01 4.794609e-01 2.929098e-01 3.915001e-01 3.653338e-02 -3.825182e-01 -1.192406e+00 -1.657864e+00 -1.675381e+00 -1.451687e+00 -1.665560e+00 -1.482439e+00 -1.578979e+00 -1.379250e+00 -3.178181e-01 1.139529e-01 3.443360e-01 3.268779e-01 3.610931e-01 3.248402e-01 3.620251e-01 3.289650e-01 3.634661e-01 3.325633e-01 3.633512e-01 3.358207e-01 3.621724e-01 3.389229e-01 3.603108e-01 3.419533e-01 3.581175e-01 3.449558e-01 3.559107e-01 3.479631e-01 3.539851e-01 3.510235e-01 3.526107e-01 3.542186e-01 3.520225e-01 3.576483e-01 3.523874e-01 3.613429e-01 3.536597e-01 3.649814e-01 3.552085e-01 3.674489e-01 3.551343e-01 3.649152e-01 3.473311e-01 3.550736e-01 3.415294e-01 3.570453e-01 3.384729e-01 3.481554e-01 3.412565e-01 3.406996e-01 3.421395e-01 3.436679e-01 3.405351e-01 3.588237e-01 3.632507e-01 3.931076e-01 4.329906e-01 4.360792e-01 4.260851e-01 4.085757e-01 4.009065e-01 3.865931e-01 3.820365e-01 3.716175e-01 3.694424e-01 3.621647e-01 3.606312e-01 3.559743e-01 3.544845e-01 3.522395e-01 3.504176e-01 3.502422e-01 3.478316e-01 3.492978e-01 3.462297e-01 3.488429e-01 3.453040e-01 3.484566e-01 3.449435e-01 3.478360e-01 3.451793e-01 3.467668e-01 3.461058e-01 3.451063e-01 3.477962e-01 3.427916e-01 3.502406e-01 3.398492e-01 3.533163e-01 3.364214e-01 3.567619e-01 3.327978e-01 3.601662e-01 3.294045e-01 3.629942e-01 3.267690e-01 3.645961e-01 3.254492e-01 3.642481e-01 3.258874e-01 3.611734e-01 3.281535e-01 3.544978e-01 3.314002e-01 3.431032e-01 3.322221e-01 3.246064e-01 3.158415e-01 3.529229e-01 7.183760e-01 3.324312e-01 4.798294e-02 2.705890e-02 1.308899e-02 5.001684e-03 
