# vtk DataFile Version 2.0
Comment goes here
ASCII

DATASET STRUCTURED_POINTS
FIELD FieldData 1
TIME 1 1 double
0.95000000
DIMENSIONS    128   16   1

ORIGIN    0.000   0.000   0.000
SPACING   0.0078125 0.015625   1.000

POINT_DATA   2048
SCALARS Omega double
LOOKUP_TABLE default

-8.667904e-06 -7.797810e-06 -9.420038e-06 -1.068258e-05 -6.149732e-06 1.501724e-05 -7.277696e-06 -3.261959e-05 2.442017e-06 -1.594616e-05 -1.913170e-06 -1.957102e-05 4.611065e-05 -3.940288e-05 9.917901e-05 -2.166948e-05 6.414513e-05 1.362793e-04 -2.039696e-05 2.440520e-04 1.669972e-05 -1.348120e-04 -3.473945e-05 -3.535939e-05 -9.826402e-05 -1.132377e-04 -1.458499e-04 -1.687774e-04 -1.987407e-04 -2.363184e-04 -2.724535e-04 -3.262521e-04 -3.775210e-04 -4.492616e-04 -5.252121e-04 -6.162801e-04 -7.265000e-04 -8.370452e-04 -9.898806e-04 -1.117594e-03 -1.317764e-03 -1.457662e-03 -1.704548e-03 -1.848689e-03 -2.137495e-03 -2.281939e-03 -2.620792e-03 -2.812674e-03 -3.322875e-03 -3.878632e-03 -5.252508e-03 -7.442452e-03 -1.104860e-02 -1.416351e-02 -2.003051e-02 -5.216585e-02 -1.329030e-01 -1.295938e-01 -5.497813e-02 -1.193589e-01 -1.211686e-01 -9.334796e-02 -1.614422e-01 -9.514912e-02 -1.377710e-01 -1.816403e-01 -8.355615e-02 -1.720689e-01 -5.754459e-02 2.632267e-01 3.242565e-01 2.330652e-01 1.369589e-01 6.666056e-02 2.702698e-02 1.428952e-02 1.076065e-02 8.599425e-03 6.504262e-03 4.764912e-03 3.370056e-03 2.258414e-03 1.461543e-03 8.098564e-04 4.462680e-04 1.090073e-04 1.783092e-05 -1.435654e-04 -9.810377e-05 -1.846239e-04 -8.947725e-05 -1.547424e-04 -5.226175e-05 -1.162578e-04 -2.060301e-05 -8.718353e-05 1.637843e-08 -6.708612e-05 1.219064e-05 -5.145507e-05 1.891445e-05 -3.752660e-05 2.179833e-05 -2.477018e-05 2.128754e-05 -1.404012e-05 1.724115e-05 -6.308138e-06 9.710879e-06 -2.102430e-06 -4.047212e-07 -6.699455e-07 -1.125931e-05 7.583861e-09 -2.027702e-05 2.790543e-06 -2.432326e-05 1.145997e-05 -1.944533e-05 3.243070e-05 4.342797e-06 1.005681e-04 -1.039675e-05 -2.129200e-05 -5.583472e-06 -8.475247e-06 -1.299789e-05 -1.162734e-05 
-3.164830e-03 -1.398610e-03 -9.742012e-03 -3.721348e-02 1.016001e-01 9.081176e-01 -9.822437e-02 -2.764377e-01 1.745235e-01 -1.428507e-02 9.562530e-02 -2.135731e-01 -1.822717e-03 2.890831e-01 3.307059e-01 2.278452e-02 4.186610e-01 1.836971e-01 3.016845e-01 4.349613e-01 2.228115e-01 -6.871229e-02 -1.252605e-01 5.736830e-02 7.023028e-02 9.407520e-02 6.624529e-02 9.124266e-02 6.328782e-02 9.055058e-02 6.135141e-02 8.946702e-02 6.019525e-02 8.797682e-02 5.982758e-02 8.606840e-02 6.007318e-02 8.373804e-02 6.070259e-02 8.094685e-02 6.149946e-02 7.770814e-02 6.222496e-02 7.404727e-02 6.270785e-02 6.996987e-02 6.287694e-02 6.544027e-02 6.253656e-02 6.009991e-02 6.029001e-02 5.183190e-02 5.467282e-02 4.016095e-02 -3.451982e-02 -4.810800e-01 -1.208785e+00 -9.539404e-01 -1.748997e-01 -8.732083e-01 -7.456203e-01 -6.247332e-01 -1.346399e+00 -5.171554e-01 -1.338033e+00 -1.710312e+00 -5.875855e-01 -2.298773e+00 -1.228600e+00 2.054595e+00 1.979316e+00 7.528179e-01 3.291573e-01 2.948580e-01 1.520433e-01 7.163697e-02 5.303364e-02 6.126913e-02 5.775668e-02 6.447709e-02 6.036506e-02 6.607809e-02 6.243223e-02 6.706975e-02 6.427540e-02 6.765181e-02 6.583348e-02 6.803784e-02 6.704083e-02 6.835292e-02 6.779686e-02 6.880789e-02 6.796068e-02 6.958971e-02 6.745785e-02 7.079501e-02 6.633485e-02 7.242453e-02 6.466840e-02 7.443496e-02 6.261747e-02 7.666638e-02 6.045233e-02 7.881528e-02 5.858557e-02 8.045380e-02 5.752554e-02 8.110049e-02 5.782944e-02 8.027742e-02 6.007412e-02 7.763870e-02 6.483403e-02 7.314638e-02 7.277185e-02 6.731794e-02 8.491969e-02 6.149766e-02 1.035406e-01 5.905832e-02 1.570621e-01 4.438294e-05 1.591466e-01 1.800928e-01 -1.740230e-02 -1.216176e-02 -5.576501e-03 -4.625924e-03 
5.214150e-03 8.997808e-03 -6.113252e-02 -3.497190e-01 1.035066e-02 2.711075e+00 -5.198559e-01 -9.797268e-01 2.961402e-01 -1.944212e-01 1.354954e-01 -2.656239e-01 9.778172e-01 2.987791e-02 3.497181e-01 4.992375e-02 3.246793e-01 6.097321e-04 3.159724e-01 1.823157e-02 3.178799e-01 7.719234e-01 -8.999752e-02 -5.380120e-02 1.409786e-02 1.732152e-02 1.611805e-02 2.741421e-02 4.421117e-03 3.606321e-02 -7.349198e-03 4.354961e-02 -1.687688e-02 5.024935e-02 -2.281660e-02 5.543730e-02 -2.592857e-02 5.729610e-02 -2.712727e-02 5.543559e-02 -2.579699e-02 5.085823e-02 -2.093727e-02 4.533411e-02 -1.126003e-02 4.024286e-02 3.418569e-03 3.630903e-02 2.352817e-02 3.665650e-02 5.216659e-02 4.981541e-02 1.023561e-01 9.284973e-02 5.577308e-02 -5.901292e-01 -1.544167e+00 -1.320520e+00 5.047767e-02 -6.901068e-01 -4.490785e-01 3.225339e-02 -7.460463e-01 3.228448e-01 -2.694483e-02 -5.594451e-01 9.320850e-01 -1.780940e-01 -4.735415e-01 2.306435e-01 -7.441966e-01 -5.878375e-01 8.831906e-02 2.910626e-01 1.095665e-01 4.617950e-03 -3.945037e-02 -1.234914e-02 -2.463495e-02 -5.605714e-03 -1.242436e-02 -3.307354e-03 -2.432092e-03 -4.529590e-03 5.668971e-03 -7.782831e-03 1.256055e-02 -1.088658e-02 1.825391e-02 -1.272781e-02 2.186584e-02 -1.251605e-02 2.169152e-02 -9.924393e-03 1.686006e-02 -3.851002e-03 8.065245e-03 6.473863e-03 -3.893229e-03 2.084011e-02 -1.836264e-02 3.714751e-02 -3.485968e-02 5.280961e-02 -5.065276e-02 6.607652e-02 -6.211954e-02 7.431230e-02 -6.611160e-02 7.449268e-02 -6.008086e-02 6.335043e-02 -4.231505e-02 3.903022e-02 -1.054967e-02 1.506635e-03 3.822918e-02 -4.798413e-02 1.146169e-01 -1.080156e-01 2.774531e-01 -5.355690e-01 7.681281e-01 4.434348e-01 -8.845633e-01 -1.447189e-01 1.253437e-02 8.386055e-03 
2.256650e-02 2.198606e-02 -1.374519e-01 -9.130765e-01 -9.924075e-01 1.775885e+00 3.363545e-02 -4.061033e-01 2.664400e-02 -1.167256e-01 -2.869174e-02 -7.639154e-04 -6.183573e-01 -2.701521e-01 -3.245887e-01 -2.579491e-01 -3.403409e-01 -2.613139e-01 -3.092919e-01 -3.179362e-01 -2.309788e-01 -7.024993e-01 6.445746e-02 -1.790703e-01 7.783721e-03 -1.774984e-01 -5.994364e-03 -1.487446e-01 -2.544224e-02 -1.233287e-01 -4.937368e-02 -9.792947e-02 -7.174937e-02 -7.130699e-02 -8.872408e-02 -4.568285e-02 -1.015317e-01 -2.665691e-02 -1.115482e-01 -1.539284e-02 -1.157746e-01 -9.360400e-03 -1.099083e-01 -3.869079e-03 -8.932768e-02 4.674030e-03 -5.363528e-02 1.757761e-02 -2.299222e-03 4.178565e-02 7.316057e-02 9.697690e-02 1.963939e-01 2.287978e-01 4.919544e-01 8.813675e-01 1.684458e+00 1.386079e+00 9.423723e-01 1.191843e+00 1.230245e+00 8.850912e-01 1.400542e+00 6.916566e-01 1.022816e+00 1.368010e+00 9.668275e-02 1.216582e+00 7.680023e-01 -5.904943e-01 -2.621683e-01 -1.200103e-01 -4.802767e-01 -3.498066e-01 -1.977446e-01 -7.921304e-02 -9.929739e-02 -7.460019e-02 -8.687929e-02 -7.906905e-02 -7.268090e-02 -8.705143e-02 -6.021295e-02 -9.982773e-02 -5.006731e-02 -1.144717e-01 -4.012739e-02 -1.266433e-01 -3.056081e-02 -1.344531e-01 -2.383115e-02 -1.373215e-01 -2.425226e-02 -1.356057e-01 -3.402449e-02 -1.265865e-01 -5.157835e-02 -1.077750e-01 -7.519547e-02 -7.928800e-02 -1.041343e-01 -4.602097e-02 -1.388692e-01 -1.332825e-02 -1.742175e-01 1.673253e-02 -2.029439e-01 3.981195e-02 -2.194137e-01 5.040957e-02 -2.195911e-01 4.162555e-02 -2.013154e-01 9.122001e-03 -1.605774e-01 -4.906510e-02 -9.361350e-02 -1.385639e-01 8.387343e-03 -2.857356e-01 1.858873e-01 -7.553849e-01 1.972244e+00 7.950937e-02 -2.613076e+00 -3.843153e-01 6.250820e-02 4.160068e-02 
2.070897e-02 3.939691e-02 -6.864518e-04 -5.245037e-01 -1.368067e+00 -1.921947e+00 5.898959e-01 7.103019e-01 -4.860894e-01 -5.645402e-03 -4.712997e-01 -1.245965e-01 -2.982245e-01 -1.078997e-01 -3.944926e-01 -1.722217e-01 -3.525284e-01 -2.105920e-01 -3.033087e-01 -2.714917e-01 -2.514324e-01 -1.995999e-01 -1.315712e-01 -3.367424e-01 -9.890426e-02 -3.079708e-01 -1.094401e-01 -2.961453e-01 -1.238377e-01 -2.821963e-01 -1.401547e-01 -2.649306e-01 -1.561402e-01 -2.442109e-01 -1.695769e-01 -2.220787e-01 -1.811616e-01 -2.028213e-01 -1.914473e-01 -1.873931e-01 -1.979331e-01 -1.742511e-01 -1.970387e-01 -1.602662e-01 -1.850613e-01 -1.428441e-01 -1.614126e-01 -1.208267e-01 -1.253754e-01 -8.982289e-02 -7.135217e-02 -3.848082e-02 1.500720e-02 4.956600e-02 1.361218e-01 1.238360e-01 1.634548e-01 2.094199e-01 8.584627e-02 -3.867842e-02 3.356020e-02 -2.459999e-01 -1.523187e-01 -4.762385e-02 -5.763392e-01 -2.363093e-01 -2.105409e-01 -6.999665e-01 -3.811904e-01 6.996818e-01 6.198721e-01 4.594870e-01 4.250832e-01 6.513142e-02 -1.929624e-01 -2.275837e-01 -2.236101e-01 -2.163923e-01 -2.069362e-01 -2.145922e-01 -1.957134e-01 -2.178007e-01 -1.866992e-01 -2.247732e-01 -1.800087e-01 -2.336024e-01 -1.735738e-01 -2.415662e-01 -1.671052e-01 -2.473689e-01 -1.619190e-01 -2.508977e-01 -1.605034e-01 -2.525967e-01 -1.641595e-01 -2.505158e-01 -1.720342e-01 -2.426004e-01 -1.832503e-01 -2.285521e-01 -1.978318e-01 -2.111083e-01 -2.169261e-01 -1.929703e-01 -2.381560e-01 -1.742734e-01 -2.579264e-01 -1.566749e-01 -2.737757e-01 -1.426825e-01 -2.841918e-01 -1.360622e-01 -2.885310e-01 -1.392840e-01 -2.842266e-01 -1.534439e-01 -2.678305e-01 -1.810226e-01 -2.308344e-01 -2.263620e-01 -1.466982e-01 -6.876406e-02 1.189591e+00 -9.606300e-01 -2.232788e+00 -3.866675e-01 2.797156e-02 2.891976e-02 
5.336601e-03 1.980065e-02 4.679851e-02 9.726154e-04 -4.937117e-01 -1.931941e+00 1.284154e-01 3.579717e-01 -4.728568e-01 -9.367841e-02 -3.909387e-01 -2.403743e-01 2.448263e-01 6.613309e-02 -5.454635e-02 -4.503834e-02 -5.230134e-02 -4.888680e-02 -4.744517e-02 -5.428279e-02 1.442831e-01 2.328433e-01 -3.531365e-01 -3.194961e-01 -1.988636e-01 -2.469984e-01 -1.881698e-01 -2.482666e-01 -1.902333e-01 -2.501371e-01 -1.932605e-01 -2.506137e-01 -1.965201e-01 -2.491886e-01 -1.997305e-01 -2.462409e-01 -2.029460e-01 -2.424193e-01 -2.061936e-01 -2.380976e-01 -2.093783e-01 -2.335760e-01 -2.123151e-01 -2.291005e-01 -2.149803e-01 -2.249536e-01 -2.177569e-01 -2.215515e-01 -2.211077e-01 -2.195098e-01 -2.252445e-01 -2.175658e-01 -2.184436e-01 -1.958073e-01 -3.306954e-01 -1.170066e+00 -2.642709e+00 -2.216193e+00 -7.332370e-01 -1.209573e+00 -1.164334e+00 -5.650415e-01 -1.355000e+00 -4.277583e-01 -4.717508e-01 -1.099563e+00 1.120427e-01 -3.501584e-01 -8.062113e-01 -4.856396e-01 -1.204692e+00 -1.365082e+00 -6.661130e-01 -3.573189e-02 -3.615691e-03 -2.077533e-01 -2.610936e-01 -2.780945e-01 -2.673545e-01 -2.686233e-01 -2.552218e-01 -2.561408e-01 -2.440602e-01 -2.464601e-01 -2.362036e-01 -2.401646e-01 -2.309225e-01 -2.365833e-01 -2.272343e-01 -2.349092e-01 -2.243836e-01 -2.347190e-01 -2.218209e-01 -2.357355e-01 -2.192483e-01 -2.375582e-01 -2.166158e-01 -2.397303e-01 -2.139735e-01 -2.419149e-01 -2.115669e-01 -2.438196e-01 -2.098601e-01 -2.450016e-01 -2.093646e-01 -2.447828e-01 -2.106351e-01 -2.425353e-01 -2.142574e-01 -2.376850e-01 -2.207114e-01 -2.297967e-01 -2.301158e-01 -2.183721e-01 -2.416666e-01 -2.022270e-01 -2.525568e-01 -1.774653e-01 -2.549173e-01 -1.287794e-01 -2.503519e-01 8.121756e-02 -3.460598e-01 -8.657370e-01 -3.775006e-01 -2.211955e-02 1.864440e-02 6.227734e-03 
9.104137e-04 6.775496e-03 1.738635e-02 3.225258e-02 -1.828132e-03 -1.921641e-01 -1.153303e-01 -6.789074e-02 -9.964388e-02 -3.477500e-02 -7.741617e-02 -2.979988e-01 1.106016e-01 1.785421e-01 -4.618882e-03 -4.527960e-03 -4.827390e-03 -4.679779e-03 -4.634241e-03 -4.457117e-03 2.800644e-01 1.933844e-01 -5.149975e-01 -2.522223e-01 -1.182313e-01 -9.258653e-02 -7.816275e-02 -7.845647e-02 -7.067690e-02 -7.452482e-02 -6.961246e-02 -7.437848e-02 -7.055782e-02 -7.499713e-02 -7.180479e-02 -7.558446e-02 -7.301692e-02 -7.612145e-02 -7.428512e-02 -7.682314e-02 -7.584884e-02 -7.800440e-02 -7.803171e-02 -8.005569e-02 -8.123095e-02 -8.338983e-02 -8.579391e-02 -8.816756e-02 -9.148393e-02 -9.339857e-02 -9.582363e-02 -9.267369e-02 -7.998375e-02 -4.720711e-02 -7.563775e-02 -4.739707e-01 -8.032309e-01 -6.434476e-02 3.775575e-01 -3.398390e-01 -2.063697e-01 2.298684e-02 -5.088646e-01 -2.018392e-01 -2.176687e-01 -5.800996e-01 -4.276772e-01 -6.286437e-01 -6.075784e-01 -2.026640e-02 3.212896e-01 -5.470641e-01 -1.248354e+00 -6.028081e-01 -5.398434e-02 3.260025e-03 -3.845170e-02 -6.954560e-02 -8.388604e-02 -9.030849e-02 -9.154538e-02 -9.101115e-02 -8.906601e-02 -8.698198e-02 -8.487724e-02 -8.284448e-02 -8.130542e-02 -7.967845e-02 -7.869509e-02 -7.750607e-02 -7.687456e-02 -7.613041e-02 -7.559532e-02 -7.534577e-02 -7.465040e-02 -7.498133e-02 -7.389793e-02 -7.490554e-02 -7.324820e-02 -7.502085e-02 -7.265997e-02 -7.524410e-02 -7.213181e-02 -7.549298e-02 -7.169247e-02 -7.567704e-02 -7.138102e-02 -7.568682e-02 -7.121319e-02 -7.535970e-02 -7.111404e-02 -7.440252e-02 -7.077519e-02 -7.221883e-02 -6.938838e-02 -6.760516e-02 -6.527706e-02 -5.849217e-02 -5.576951e-02 -4.279116e-02 -4.716998e-02 -5.772813e-02 -1.289961e-01 -9.423383e-02 -1.620611e-02 2.284970e-03 -2.195346e-03 -2.461272e-03 
-2.104436e-04 1.153453e-03 2.884695e-03 6.161144e-03 8.731248e-03 -9.986056e-04 -7.100081e-03 -1.939866e-03 9.263494e-03 2.962264e-02 2.163288e-02 -1.150071e-01 4.556236e-02 6.590357e-02 -1.363982e-03 -1.473054e-03 -1.473371e-03 -1.473287e-03 -1.472919e-03 -1.236995e-03 1.491254e-01 1.039086e-01 -2.604816e-01 -1.141952e-01 -4.297833e-02 -2.410584e-02 -1.598887e-02 -1.109994e-02 -7.608177e-03 -6.008395e-03 -4.935124e-03 -4.726993e-03 -4.523332e-03 -4.720503e-03 -4.807413e-03 -5.099594e-03 -5.316740e-03 -5.649482e-03 -5.991654e-03 -6.405881e-03 -6.923919e-03 -7.491893e-03 -8.244380e-03 -9.017437e-03 -9.997730e-03 -1.088754e-02 -1.183308e-02 -1.230873e-02 -1.225051e-02 -1.072123e-02 -7.118039e-03 1.089256e-03 1.842978e-02 4.379637e-02 -2.115773e-03 -3.654115e-01 -6.167142e-01 1.773940e-01 5.815455e-01 -2.479511e-01 1.630531e-01 3.510120e-01 -2.539623e-01 6.855206e-01 7.711831e-02 -1.376449e-01 1.048710e+00 -9.971173e-02 2.953641e-02 5.777594e-01 -4.330935e-01 -2.814351e-02 6.612517e-01 4.800913e-01 2.601617e-01 1.469550e-01 8.095930e-02 4.122286e-02 1.749254e-02 3.732869e-03 -3.875216e-03 -7.760030e-03 -9.519368e-03 -1.001906e-02 -9.938684e-03 -9.455649e-03 -8.938989e-03 -8.280080e-03 -7.771391e-03 -7.183620e-03 -6.797830e-03 -6.340373e-03 -6.080358e-03 -5.750870e-03 -5.583162e-03 -5.363281e-03 -5.247278e-03 -5.119919e-03 -5.019284e-03 -4.973461e-03 -4.859657e-03 -4.889213e-03 -4.741676e-03 -4.841450e-03 -4.646109e-03 -4.806407e-03 -4.551893e-03 -4.749726e-03 -4.418105e-03 -4.601050e-03 -4.147559e-03 -4.205192e-03 -3.522639e-03 -3.247559e-03 -2.128882e-03 -1.210537e-03 5.970417e-04 2.363604e-03 4.782233e-03 6.818426e-03 7.951427e-03 3.885483e-03 -2.013718e-03 1.554998e-03 2.152583e-03 -4.141932e-04 -1.864117e-03 -1.312415e-03 
-1.257905e-06 -8.851221e-07 3.409483e-07 8.641678e-07 1.919169e-06 1.956743e-06 2.421065e-06 4.250081e-06 7.283543e-06 9.777663e-06 4.925259e-06 -1.223779e-05 1.315842e-04 -1.722330e-04 -2.844071e-07 -4.895129e-10 -1.621012e-11 8.566585e-13 3.229638e-09 2.020651e-06 1.260113e-03 9.542446e-04 3.655440e-04 1.487805e-04 6.119758e-05 -1.077358e-05 -5.569846e-05 -9.730806e-05 -1.289757e-04 -1.647167e-04 -2.021038e-04 -2.503008e-04 -3.080266e-04 -3.842660e-04 -4.773868e-04 -5.996476e-04 -7.482252e-04 -9.405879e-04 -1.172163e-03 -1.465152e-03 -1.811605e-03 -2.232573e-03 -2.709904e-03 -3.245249e-03 -3.788987e-03 -4.280398e-03 -4.587820e-03 -4.506718e-03 -3.739185e-03 -1.852334e-03 1.685212e-03 7.978324e-03 1.967403e-02 3.775836e-02 2.434311e-02 -1.785899e-01 -5.669866e-01 -4.038007e-01 1.272540e-01 6.942626e-02 2.703103e-01 3.612509e-01 6.363417e-02 5.065392e-01 2.569971e-01 7.189778e-02 5.179946e-01 1.509884e-01 4.537428e-01 5.967786e-01 -2.112955e-01 -1.047453e-01 3.967534e-01 3.833302e-01 2.231560e-01 1.240915e-01 7.390516e-02 4.384372e-02 2.455960e-02 1.240525e-02 5.055867e-03 7.837228e-04 -1.540827e-03 -2.690847e-03 -3.124813e-03 -3.154890e-03 -2.956098e-03 -2.649094e-03 -2.299423e-03 -1.950125e-03 -1.624390e-03 -1.333024e-03 -1.081951e-03 -8.690723e-04 -6.934610e-04 -5.491821e-04 -4.332169e-04 -3.398339e-04 -2.659150e-04 -2.072583e-04 -1.612349e-04 -1.252456e-04 -9.715034e-05 -7.561887e-05 -5.884454e-05 -4.638557e-05 -3.663621e-05 -2.973096e-05 -2.418525e-05 -2.048963e-05 -1.724121e-05 -1.514355e-05 -1.288506e-05 -1.127357e-05 -9.174556e-06 -7.390508e-06 -5.167853e-06 -3.181948e-06 -1.366261e-06 -7.994077e-09 2.828599e-07 -4.878347e-09 -1.572364e-06 -1.977918e-06 -1.953584e-06 -2.329281e-06 -2.000078e-06 -2.187935e-06 
2.090547e-04 -1.154240e-03 -2.883062e-03 -6.157387e-03 -8.726438e-03 9.966868e-04 7.101534e-03 1.947398e-03 -9.252935e-03 -2.960479e-02 -2.162707e-02 1.150189e-01 -4.498295e-02 -6.644624e-02 1.363077e-03 1.473051e-03 1.473373e-03 1.473286e-03 1.472927e-03 1.241471e-03 -1.463484e-01 -1.015061e-01 2.618066e-01 1.146796e-01 4.314764e-02 2.409290e-02 1.588685e-02 1.090491e-02 7.352772e-03 5.671454e-03 4.522989e-03 4.206404e-03 3.880576e-03 3.908316e-03 3.791632e-03 3.812086e-03 3.696849e-03 3.597555e-03 3.410527e-03 3.153037e-03 2.856576e-03 2.423277e-03 1.995105e-03 1.395797e-03 8.626637e-04 1.954280e-04 -2.733791e-04 -6.997054e-04 -6.471264e-04 -1.858323e-04 1.164551e-03 3.371502e-03 7.222409e-03 1.360371e-02 2.108168e-02 1.433333e-02 -1.320165e-02 1.212947e-02 6.874802e-02 7.048806e-02 8.907811e-02 8.534689e-02 7.041954e-02 1.011165e-01 6.962372e-02 8.077539e-02 1.106858e-01 8.165429e-02 1.079279e-01 1.059758e-01 1.003341e-01 1.646116e-01 1.800468e-01 1.317716e-01 8.752369e-02 5.881485e-02 3.874004e-02 2.426626e-02 1.429653e-02 7.857951e-03 3.983278e-03 1.789720e-03 7.665762e-04 3.799650e-04 4.903374e-04 7.511212e-04 1.225527e-03 1.638407e-03 2.157647e-03 2.530848e-03 2.975091e-03 3.253070e-03 3.589636e-03 3.777488e-03 4.008758e-03 4.134931e-03 4.272900e-03 4.370351e-03 4.425638e-03 4.523343e-03 4.502435e-03 4.622257e-03 4.528453e-03 4.683710e-03 4.518489e-03 4.711504e-03 4.473489e-03 4.689219e-03 4.366923e-03 4.558428e-03 4.111300e-03 4.172123e-03 3.495736e-03 3.221408e-03 2.110425e-03 1.192436e-03 -6.052638e-04 -2.371204e-03 -4.778999e-03 -6.816213e-03 -7.941198e-03 -3.887711e-03 2.019488e-03 -1.551012e-03 -2.151245e-03 4.126172e-04 1.862594e-03 1.309504e-03 
-9.099348e-04 -6.773872e-03 -1.737854e-02 -3.223464e-02 1.834164e-03 1.920603e-01 1.152646e-01 6.798728e-02 9.958543e-02 3.483144e-02 7.735794e-02 2.980375e-01 -1.101952e-01 -1.790310e-01 4.619874e-03 4.526382e-03 4.831752e-03 4.678479e-03 4.636449e-03 4.465365e-03 -2.778333e-01 -1.924836e-01 5.153012e-01 2.523620e-01 1.183200e-01 9.247441e-02 7.806364e-02 7.822556e-02 7.047425e-02 7.420475e-02 6.928902e-02 7.391564e-02 7.002900e-02 7.426510e-02 7.091126e-02 7.436519e-02 7.149081e-02 7.405810e-02 7.168578e-02 7.334645e-02 7.146390e-02 7.221839e-02 7.075988e-02 7.061837e-02 6.948790e-02 6.849242e-02 6.762084e-02 6.589911e-02 6.532483e-02 6.314893e-02 6.304710e-02 6.076092e-02 6.127367e-02 5.922974e-02 6.076984e-02 5.878795e-02 5.898430e-02 5.779334e-02 6.120660e-02 5.680536e-02 5.751620e-02 5.539100e-02 5.454766e-02 5.577017e-02 5.611463e-02 5.789750e-02 6.502447e-02 6.774187e-02 7.785127e-02 8.862507e-02 9.727188e-02 1.021868e-01 9.788029e-02 8.866457e-02 7.964069e-02 7.241467e-02 6.674620e-02 6.316338e-02 6.110278e-02 6.056093e-02 6.078565e-02 6.170888e-02 6.286707e-02 6.418100e-02 6.553386e-02 6.673685e-02 6.795845e-02 6.889736e-02 6.985211e-02 7.056198e-02 7.117531e-02 7.179391e-02 7.199244e-02 7.271004e-02 7.240083e-02 7.342437e-02 7.249832e-02 7.402250e-02 7.237311e-02 7.455209e-02 7.210574e-02 7.502271e-02 7.177417e-02 7.541084e-02 7.145526e-02 7.566390e-02 7.121787e-02 7.569668e-02 7.109768e-02 7.536497e-02 7.103307e-02 7.438955e-02 7.072496e-02 7.218442e-02 6.937071e-02 6.755559e-02 6.529891e-02 5.843798e-02 5.584166e-02 4.274480e-02 4.729346e-02 5.754175e-02 1.290989e-01 9.434432e-02 1.624504e-02 -2.271554e-03 2.199561e-03 2.460282e-03 
-5.341327e-03 -1.979807e-02 -4.677218e-02 -8.994052e-04 4.935857e-01 1.931028e+00 -1.292548e-01 -3.565883e-01 4.719483e-01 9.439307e-02 3.901604e-01 2.412160e-01 -2.433628e-01 -6.713688e-02 5.458647e-02 4.499764e-02 5.240539e-02 4.885130e-02 4.749449e-02 5.439535e-02 -1.423820e-01 -2.338933e-01 3.532155e-01 3.196241e-01 1.994959e-01 2.473463e-01 1.891659e-01 2.490606e-01 1.916098e-01 2.513506e-01 1.950388e-01 2.522983e-01 1.989452e-01 2.516335e-01 2.032935e-01 2.498137e-01 2.080179e-01 2.472023e-01 2.128561e-01 2.440849e-01 2.175807e-01 2.407247e-01 2.220620e-01 2.373533e-01 2.261668e-01 2.338986e-01 2.294227e-01 2.297618e-01 2.309382e-01 2.238834e-01 2.293541e-01 2.147047e-01 2.226819e-01 1.999720e-01 2.081081e-01 1.764547e-01 1.823206e-01 1.489361e-01 1.681467e-01 1.310890e-01 1.411514e-01 1.185983e-01 1.182367e-01 1.053395e-01 1.115428e-01 9.144697e-02 1.217373e-01 1.087355e-01 1.417594e-01 1.782422e-01 1.984042e-01 1.938503e-01 1.933691e-01 1.881511e-01 1.885200e-01 1.874623e-01 1.908762e-01 1.940045e-01 1.977033e-01 2.029817e-01 2.050289e-01 2.113879e-01 2.110286e-01 2.181335e-01 2.152747e-01 2.232567e-01 2.179734e-01 2.271705e-01 2.193648e-01 2.302688e-01 2.196084e-01 2.329115e-01 2.188416e-01 2.353784e-01 2.172585e-01 2.378792e-01 2.151235e-01 2.404732e-01 2.127520e-01 2.430636e-01 2.105457e-01 2.452853e-01 2.089086e-01 2.465524e-01 2.083808e-01 2.462519e-01 2.096134e-01 2.437951e-01 2.133034e-01 2.387230e-01 2.199951e-01 2.305682e-01 2.296868e-01 2.187598e-01 2.415068e-01 2.021758e-01 2.526773e-01 1.769973e-01 2.554524e-01 1.280409e-01 2.514478e-01 -8.345232e-02 3.474637e-01 8.666888e-01 3.775332e-01 2.222976e-02 -1.860331e-02 -6.229154e-03 
-2.072678e-02 -3.941067e-02 7.367780e-04 5.247296e-01 1.367315e+00 1.921257e+00 -5.913473e-01 -7.082874e-01 4.847026e-01 6.809699e-03 4.702153e-01 1.256539e-01 2.981447e-01 1.073944e-01 3.942812e-01 1.720092e-01 3.530133e-01 2.099933e-01 3.038460e-01 2.713760e-01 2.532333e-01 1.977931e-01 1.306469e-01 3.374185e-01 1.003878e-01 3.119434e-01 1.143721e-01 3.023644e-01 1.292137e-01 2.871423e-01 1.434138e-01 2.681335e-01 1.592842e-01 2.508464e-01 1.792595e-01 2.386539e-01 2.005934e-01 2.293456e-01 2.180458e-01 2.209764e-01 2.296305e-01 2.147008e-01 2.377872e-01 2.149041e-01 2.472430e-01 2.239509e-01 2.585670e-01 2.386581e-01 2.688183e-01 2.538147e-01 2.750469e-01 2.656390e-01 2.769748e-01 2.727047e-01 2.740005e-01 2.700574e-01 2.602146e-01 2.568085e-01 2.498285e-01 2.365380e-01 2.226563e-01 2.104123e-01 1.949497e-01 1.818417e-01 1.762757e-01 1.521120e-01 1.724049e-01 1.427020e-01 1.780028e-01 1.784821e-01 2.156974e-01 1.645804e-01 1.959237e-01 1.495189e-01 1.920120e-01 1.547280e-01 1.992429e-01 1.727276e-01 2.072633e-01 1.925379e-01 2.087268e-01 2.093040e-01 2.026835e-01 2.224749e-01 1.920503e-01 2.344869e-01 1.817783e-01 2.466999e-01 1.737680e-01 2.570594e-01 1.680624e-01 2.630622e-01 1.645780e-01 2.629395e-01 1.644215e-01 2.571676e-01 1.693611e-01 2.467135e-01 1.803957e-01 2.332815e-01 1.975453e-01 2.172074e-01 2.175658e-01 1.979544e-01 2.375171e-01 1.771601e-01 2.554137e-01 1.577325e-01 2.707277e-01 1.443521e-01 2.830196e-01 1.391852e-01 2.887291e-01 1.421507e-01 2.842466e-01 1.542466e-01 2.668340e-01 1.797674e-01 2.307313e-01 2.247902e-01 1.490348e-01 6.472987e-02 -1.180184e+00 9.597914e-01 2.227789e+00 3.864806e-01 -2.776854e-02 -2.888178e-02 
-2.259426e-02 -2.200598e-02 1.375269e-01 9.134036e-01 9.917038e-01 -1.774823e+00 -3.393116e-02 4.056296e-01 -2.642789e-02 1.167271e-01 2.901328e-02 3.507840e-04 6.164735e-01 2.711048e-01 3.252615e-01 2.563266e-01 3.426174e-01 2.585637e-01 3.115058e-01 3.161140e-01 2.283974e-01 7.047527e-01 -6.562301e-02 1.798468e-01 -6.955663e-03 1.826199e-01 1.106867e-02 1.562698e-01 3.019866e-02 1.278932e-01 4.973621e-02 9.859582e-02 7.010023e-02 7.525058e-02 9.397629e-02 6.183031e-02 1.173626e-01 5.430660e-02 1.330481e-01 4.915759e-02 1.387044e-01 4.755390e-02 1.385288e-01 5.562892e-02 1.402249e-01 7.708934e-02 1.459248e-01 1.084557e-01 1.536055e-01 1.446290e-01 1.629089e-01 1.845384e-01 1.796680e-01 2.327191e-01 2.111279e-01 2.898535e-01 2.541692e-01 3.350405e-01 2.674266e-01 3.430855e-01 2.853474e-01 3.237091e-01 2.908207e-01 2.994543e-01 2.670020e-01 2.756849e-01 2.216200e-01 2.074326e-01 1.727462e-01 8.236825e-02 9.623303e-02 2.914330e-02 8.182605e-02 1.789090e-02 8.591052e-02 2.709528e-02 9.479714e-02 4.531920e-02 9.994338e-02 6.518340e-02 9.605817e-02 8.284533e-02 8.301361e-02 9.785045e-02 6.494829e-02 1.130411e-01 4.879743e-02 1.294545e-01 3.725846e-02 1.431702e-01 3.055080e-02 1.497072e-01 2.876237e-02 1.458799e-01 3.361158e-02 1.321051e-01 4.755703e-02 1.098990e-01 7.162322e-02 8.230669e-02 1.049705e-01 5.092849e-02 1.415488e-01 1.659348e-02 1.753346e-01 -1.637216e-02 2.014237e-01 -4.169979e-02 2.169779e-01 -5.073460e-02 2.195210e-01 -3.896196e-02 2.026761e-01 -5.829776e-03 1.609970e-01 5.031584e-02 9.177483e-02 1.377637e-01 -9.775547e-03 2.853180e-01 -1.848385e-01 7.543182e-01 -1.961473e+00 -8.323873e-02 2.605511e+00 3.840536e-01 -6.224770e-02 -4.156165e-02 
-5.241362e-03 -9.022012e-03 6.114724e-02 3.498842e-01 -1.025820e-02 -2.709674e+00 5.205015e-01 9.777871e-01 -2.949674e-01 1.935498e-01 -1.345080e-01 2.650065e-01 -9.741296e-01 -3.265479e-02 -3.492592e-01 -4.978692e-02 -3.256608e-01 1.266794e-03 -3.176650e-01 -1.608041e-02 -3.161307e-01 -7.744421e-01 8.915892e-02 5.426718e-02 -1.419061e-02 -1.570829e-02 -1.520231e-02 -2.529274e-02 -4.018233e-03 -3.533785e-02 5.713452e-03 -4.463490e-02 1.380201e-02 -5.081832e-02 2.103341e-02 -5.263614e-02 2.627606e-02 -5.163246e-02 2.744153e-02 -4.922909e-02 2.413772e-02 -4.522559e-02 1.822831e-02 -3.762739e-02 1.287115e-02 -2.500935e-02 9.590240e-03 -7.917620e-03 9.030686e-03 1.330622e-02 1.335272e-02 4.078586e-02 2.804865e-02 7.967472e-02 6.008166e-02 1.346056e-01 1.109828e-01 1.862659e-01 1.310469e-01 2.075565e-01 1.644846e-01 2.051254e-01 1.843132e-01 1.981156e-01 1.693387e-01 1.915199e-01 1.237707e-01 1.307312e-01 6.997452e-02 -1.249391e-02 -2.828337e-02 -5.059031e-02 -2.732688e-02 -4.947127e-02 -1.855100e-02 -4.173473e-02 -1.104476e-02 -3.387551e-02 -6.814939e-03 -2.591139e-02 -6.287480e-03 -1.834137e-02 -9.295143e-03 -1.129284e-02 -1.441745e-02 -4.049835e-03 -1.918986e-02 3.408813e-03 -2.244654e-02 9.388966e-03 -2.375587e-02 1.200419e-02 -2.272980e-02 9.879662e-03 -1.851335e-02 3.009992e-03 -1.015563e-02 -8.044086e-03 2.600474e-03 -2.195142e-02 1.909328e-02 -3.757653e-02 3.657778e-02 -5.375636e-02 5.204362e-02 -6.791276e-02 6.267105e-02 -7.669704e-02 6.627626e-02 -7.599896e-02 6.086129e-02 -6.338946e-02 4.329342e-02 -3.834739e-02 1.085736e-02 -1.038765e-03 -3.908135e-02 4.823301e-02 -1.157053e-01 1.088706e-01 -2.780896e-01 5.377941e-01 -7.657915e-01 -4.461829e-01 8.816035e-01 1.446526e-01 -1.244064e-02 -8.397602e-03 
3.142532e-03 1.378457e-03 9.720729e-03 3.721638e-02 -1.014765e-01 -9.076768e-01 9.850553e-02 2.756868e-01 -1.740984e-01 1.391406e-02 -9.528719e-02 2.133507e-01 3.486540e-03 -2.914999e-01 -3.300987e-01 -2.193183e-02 -4.210733e-01 -1.803993e-01 -3.052087e-01 -4.344680e-01 -2.179334e-01 6.663441e-02 1.248184e-01 -5.734286e-02 -7.047419e-02 -9.426926e-02 -6.675142e-02 -9.164970e-02 -6.404812e-02 -9.121888e-02 -6.244933e-02 -9.046726e-02 -6.175760e-02 -8.940178e-02 -6.203443e-02 -8.805637e-02 -6.317083e-02 -8.648313e-02 -6.499220e-02 -8.474731e-02 -6.729938e-02 -8.289550e-02 -6.986541e-02 -8.091604e-02 -7.240262e-02 -7.867279e-02 -7.450006e-02 -7.583182e-02 -7.555966e-02 -7.185010e-02 -7.484139e-02 -6.621155e-02 -7.182822e-02 -5.835961e-02 -6.450599e-02 -4.508628e-02 -5.260609e-02 -3.161612e-02 -4.300379e-02 -2.421945e-02 -3.393013e-02 -2.221531e-02 -2.894488e-02 -2.210028e-02 -3.059657e-02 -2.241850e-02 -3.405163e-02 -2.495068e-02 -3.157953e-02 -3.141202e-02 -3.811803e-02 -4.612198e-02 -5.381773e-02 -6.319704e-02 -6.490845e-02 -6.936352e-02 -6.760025e-02 -7.186315e-02 -6.910271e-02 -7.336215e-02 -6.994809e-02 -7.392292e-02 -7.034974e-02 -7.373463e-02 -7.046103e-02 -7.305625e-02 -7.040087e-02 -7.220233e-02 -7.021873e-02 -7.147149e-02 -6.986452e-02 -7.110812e-02 -6.922741e-02 -7.128111e-02 -6.819101e-02 -7.207405e-02 -6.668484e-02 -7.348149e-02 -6.472179e-02 -7.539264e-02 -6.243995e-02 -7.757599e-02 -6.011906e-02 -7.967962e-02 -5.816654e-02 -8.125305e-02 -5.708471e-02 -8.179369e-02 -5.742633e-02 -8.082147e-02 -5.975870e-02 -7.799924e-02 -6.464786e-02 -7.330633e-02 -7.274023e-02 -6.729094e-02 -8.505616e-02 -6.128475e-02 -1.038486e-01 -5.867534e-02 -1.575021e-01 1.161618e-03 -1.596047e-01 -1.806819e-01 1.724424e-02 1.216844e-02 5.558404e-03 4.596739e-03 
