# vtk DataFile Version 2.0
Comment goes here
ASCII

DATASET STRUCTURED_POINTS
FIELD FieldData 1
TIME 1 1 double
0.54000000
DIMENSIONS    128   16   1

ORIGIN    0.000   0.000   0.000
SPACING   0.0078125 0.015625   1.000

POINT_DATA   2048
SCALARS Omega double
LOOKUP_TABLE default

1.158366e-06 -5.294141e-06 -1.117029e-05 -1.610584e-05 -1.994423e-05 -1.525044e-05 -2.209227e-05 8.674841e-06 -1.538924e-05 -2.073273e-06 -1.870162e-05 -2.231126e-05 -2.143108e-05 -1.933078e-06 7.454321e-05 -7.497146e-05 1.024522e-04 3.605893e-05 7.254199e-06 2.383708e-04 -1.684187e-04 -1.448370e-04 -3.624173e-05 -2.409272e-05 -7.185944e-05 -6.365308e-05 -6.631075e-05 -7.469599e-05 -6.488068e-05 -8.995101e-05 -7.421540e-05 -1.097788e-04 -9.168692e-05 -1.323070e-04 -1.144664e-04 -1.547225e-04 -1.372487e-04 -1.660892e-04 -1.394945e-04 -1.348437e-04 -7.193709e-05 2.467523e-06 1.447840e-04 3.248593e-04 5.624022e-04 8.086255e-04 1.004876e-03 1.047208e-03 7.430446e-04 -4.346835e-05 -1.699543e-03 -4.336536e-03 -8.173452e-03 -1.054924e-02 -8.462118e-03 -1.299714e-02 -5.050195e-02 -2.356766e-02 3.451669e-03 -9.183510e-02 -5.417725e-02 -2.321436e-02 -9.292968e-02 -1.091128e-02 -5.091764e-02 -7.343339e-02 1.796124e-02 -6.594502e-02 7.452019e-03 1.898914e-01 1.610884e-01 7.081800e-02 4.040158e-02 3.759482e-02 2.858712e-02 2.320395e-02 1.952613e-02 1.523385e-02 1.074421e-02 6.675518e-03 3.598984e-03 1.433049e-03 2.059352e-04 -4.686827e-04 -6.375558e-04 -6.743853e-04 -5.050721e-04 -4.228786e-04 -2.367592e-04 -2.023796e-04 -6.760898e-05 -8.898970e-05 7.569984e-06 -4.414175e-05 3.267901e-05 -2.880334e-05 3.680378e-05 -2.243418e-05 3.340839e-05 -1.685822e-05 2.748265e-05 -9.408892e-06 2.113698e-05 -6.652276e-07 1.458212e-05 6.899642e-06 7.184313e-06 1.132283e-05 -1.154131e-06 1.120260e-05 -1.090760e-05 6.695623e-06 -1.975714e-05 1.399722e-06 -2.372039e-05 -6.446059e-07 -2.007988e-05 4.335992e-06 -7.120687e-06 2.043480e-05 1.732540e-05 6.134090e-05 1.767437e-05 1.603603e-05 2.553845e-05 1.975923e-05 1.362988e-05 7.805812e-06 
-6.096007e-03 -2.999795e-03 -6.951563e-03 -4.817152e-02 -1.425937e-02 9.893171e-01 6.379486e-01 9.315575e-02 4.346909e-01 2.609498e-01 3.766102e-01 4.102784e-02 -3.782008e-01 -1.218614e+00 -1.671329e+00 -1.692711e+00 -1.452674e+00 -1.648629e+00 -1.456664e+00 -1.544377e+00 -1.334643e+00 -2.958617e-01 1.152629e-01 3.477638e-01 3.302733e-01 3.652777e-01 3.279209e-01 3.639350e-01 3.305563e-01 3.629404e-01 3.326047e-01 3.607877e-01 3.344529e-01 3.579780e-01 3.361936e-01 3.547462e-01 3.377683e-01 3.512331e-01 3.391600e-01 3.474868e-01 3.402358e-01 3.435954e-01 3.408146e-01 3.397027e-01 3.405580e-01 3.357821e-01 3.389135e-01 3.314134e-01 3.350416e-01 3.253679e-01 3.271281e-01 3.147443e-01 3.144094e-01 3.128086e-01 3.001537e-01 -5.516266e-02 -1.115353e+00 -2.971006e-01 7.296421e-01 -1.565685e+00 -6.786419e-01 -6.418683e-02 -1.878650e+00 1.252483e-01 -1.051171e+00 -1.716133e+00 3.107602e-01 -2.081554e+00 -5.525767e-01 3.545467e+00 2.687078e+00 5.945792e-01 1.316691e-01 3.543081e-01 3.612350e-01 3.537425e-01 3.471245e-01 3.507993e-01 3.446776e-01 3.472037e-01 3.409734e-01 3.440620e-01 3.394727e-01 3.425012e-01 3.397962e-01 3.416401e-01 3.407743e-01 3.407736e-01 3.417361e-01 3.398480e-01 3.424405e-01 3.391544e-01 3.426974e-01 3.389202e-01 3.423596e-01 3.393789e-01 3.413648e-01 3.407196e-01 3.396313e-01 3.429033e-01 3.371645e-01 3.458557e-01 3.340772e-01 3.493754e-01 3.306551e-01 3.530539e-01 3.272508e-01 3.564122e-01 3.244357e-01 3.589581e-01 3.229074e-01 3.602422e-01 3.234799e-01 3.600675e-01 3.272566e-01 3.590500e-01 3.357364e-01 3.595013e-01 3.506018e-01 3.685286e-01 3.843545e-01 5.052592e-01 7.652844e-01 1.983470e-01 -2.371738e-02 -1.222369e-02 -8.851340e-03 -7.979529e-03 
-8.189338e-04 1.488589e-02 -1.741469e-02 -3.773612e-01 -9.998270e-01 2.049483e+00 1.329726e+00 -3.456210e-01 7.811457e-01 2.552565e-01 6.202153e-01 9.285183e-02 4.669220e-01 3.073988e-01 1.004538e+00 7.676059e-01 8.434853e-01 7.356238e-01 8.422634e-01 8.193182e-01 4.155310e-01 5.332362e-01 2.142415e-01 4.462592e-01 4.398763e-01 4.994400e-01 4.355949e-01 5.027025e-01 4.290675e-01 5.056244e-01 4.232971e-01 5.053946e-01 4.182782e-01 5.016147e-01 4.168130e-01 4.983278e-01 4.214938e-01 4.948524e-01 4.283055e-01 4.867195e-01 4.328657e-01 4.733309e-01 4.361583e-01 4.602738e-01 4.420511e-01 4.520575e-01 4.520152e-01 4.526524e-01 4.693971e-01 4.625581e-01 4.887187e-01 4.733309e-01 5.126295e-01 5.157421e-01 5.237862e-01 -1.442852e-01 -2.155852e+00 -1.714856e+00 7.874137e-01 -1.032014e+00 -1.228623e-01 8.655594e-01 -1.228348e+00 1.065755e+00 1.586774e-01 -8.229732e-01 1.757031e+00 -4.368661e-01 -3.959828e-01 1.599398e+00 8.271262e-01 9.466476e-01 1.124646e+00 6.462790e-01 4.143112e-01 4.053725e-01 3.818493e-01 4.222627e-01 3.997346e-01 4.434445e-01 4.169740e-01 4.533336e-01 4.256502e-01 4.477259e-01 4.269936e-01 4.328897e-01 4.282643e-01 4.182250e-01 4.358412e-01 4.112692e-01 4.508962e-01 4.107416e-01 4.627341e-01 4.077620e-01 4.636246e-01 4.041624e-01 4.565829e-01 4.047085e-01 4.435806e-01 4.131352e-01 4.298947e-01 4.330314e-01 4.159109e-01 4.579711e-01 3.965484e-01 4.802935e-01 3.718844e-01 4.980479e-01 3.487231e-01 5.124804e-01 3.340569e-01 5.216057e-01 3.319039e-01 5.223296e-01 3.442876e-01 5.085202e-01 3.689582e-01 4.801272e-01 4.150462e-01 4.609769e-01 5.014500e-01 6.364034e-01 1.589094e+00 -5.525047e-01 -8.862733e-01 -3.118764e-02 2.973610e-02 2.171789e-03 
1.334965e-02 3.987397e-02 -2.301571e-02 -8.894933e-01 -3.273455e+00 -1.280952e+00 -4.913574e-02 -1.307773e+00 -6.302641e-01 -9.222838e-01 -6.506227e-01 -5.054035e-01 -4.301674e-01 -2.182105e-01 -4.970861e-01 -2.803679e-01 -3.970486e-01 -2.589084e-01 -4.004832e-01 -4.211486e-01 -1.995820e-01 -6.186166e-01 -4.817738e-01 -8.039474e-01 -7.595801e-01 -8.914748e-01 -8.329794e-01 -8.972856e-01 -8.808848e-01 -8.899485e-01 -9.179188e-01 -8.807327e-01 -9.489000e-01 -8.752123e-01 -9.672627e-01 -8.639585e-01 -9.655823e-01 -8.504258e-01 -9.559341e-01 -8.483037e-01 -9.503217e-01 -8.599426e-01 -9.443802e-01 -8.698242e-01 -9.242081e-01 -8.647600e-01 -8.823532e-01 -8.319232e-01 -8.063629e-01 -7.663496e-01 -7.080510e-01 -6.863059e-01 -5.893111e-01 -5.619343e-01 -3.441214e-01 8.754444e-02 1.367897e+00 9.022582e-01 -1.028786e-01 1.150653e+00 5.936306e-01 -8.208353e-02 1.322350e+00 -3.891598e-01 3.046576e-01 7.785361e-01 -1.188064e+00 5.366648e-01 -2.457805e-01 -2.581098e+00 -2.095833e+00 -1.623983e+00 -1.440430e+00 -1.164875e+00 -1.107825e+00 -1.053981e+00 -1.095430e+00 -1.012752e+00 -1.050607e+00 -9.535889e-01 -1.001206e+00 -9.236466e-01 -9.790382e-01 -9.368207e-01 -9.800907e-01 -9.747291e-01 -9.814804e-01 -1.010376e+00 -9.636066e-01 -1.023500e+00 -9.223859e-01 -1.020194e+00 -8.878329e-01 -1.027893e+00 -8.815042e-01 -1.042585e+00 -8.941009e-01 -1.051376e+00 -9.193321e-01 -1.042757e+00 -9.418884e-01 -1.005431e+00 -9.615630e-01 -9.566178e-01 -9.954268e-01 -9.156668e-01 -1.045709e+00 -8.846381e-01 -1.096282e+00 -8.561493e-01 -1.131139e+00 -8.325220e-01 -1.143297e+00 -8.206027e-01 -1.132794e+00 -8.409290e-01 -1.114408e+00 -9.083792e-01 -1.077589e+00 -1.013060e+00 -1.024727e+00 -1.155258e+00 -2.966144e-01 -3.193226e+00 -2.557278e+00 -3.987329e-02 1.283653e-01 3.460259e-02 
7.801901e-03 4.102871e-02 7.983790e-02 -3.680304e-01 -2.560029e+00 -4.641053e+00 -2.038687e+00 -1.199905e+00 -1.906970e+00 -1.529678e+00 -1.816482e+00 -1.525462e+00 -1.763635e+00 -1.548167e+00 -1.721503e+00 -1.597618e+00 -1.715501e+00 -1.642845e+00 -1.664831e+00 -1.669791e+00 -1.669577e+00 -1.643165e+00 -1.465825e+00 -1.717882e+00 -1.550691e+00 -1.782471e+00 -1.637543e+00 -1.804932e+00 -1.691862e+00 -1.804705e+00 -1.731195e+00 -1.796243e+00 -1.762791e+00 -1.786231e+00 -1.783437e+00 -1.769838e+00 -1.788532e+00 -1.750440e+00 -1.786847e+00 -1.737881e+00 -1.786453e+00 -1.734062e+00 -1.783762e+00 -1.728618e+00 -1.768065e+00 -1.712383e+00 -1.732793e+00 -1.675868e+00 -1.668161e+00 -1.614191e+00 -1.581185e+00 -1.537798e+00 -1.469294e+00 -1.419085e+00 -1.278109e+00 -1.251606e+00 -1.100105e+00 -7.115703e-01 -1.113792e+00 -1.472574e+00 -1.145430e+00 -1.600163e+00 -1.526824e+00 -1.488266e+00 -2.036584e+00 -1.745120e+00 -1.784286e+00 -2.371221e+00 -1.842483e+00 -5.622889e-01 -6.442501e-01 -1.439141e+00 -1.868037e+00 -1.963808e+00 -1.965416e+00 -1.917420e+00 -1.921704e+00 -1.867501e+00 -1.880104e+00 -1.820036e+00 -1.841809e+00 -1.794794e+00 -1.824229e+00 -1.799268e+00 -1.823775e+00 -1.820819e+00 -1.824134e+00 -1.841146e+00 -1.811393e+00 -1.846881e+00 -1.782288e+00 -1.842953e+00 -1.756788e+00 -1.848624e+00 -1.749255e+00 -1.861527e+00 -1.753152e+00 -1.873069e+00 -1.763996e+00 -1.874850e+00 -1.771377e+00 -1.858565e+00 -1.775652e+00 -1.835261e+00 -1.789636e+00 -1.816832e+00 -1.815974e+00 -1.803087e+00 -1.845212e+00 -1.787381e+00 -1.868193e+00 -1.769909e+00 -1.881925e+00 -1.754369e+00 -1.888227e+00 -1.755005e+00 -1.897920e+00 -1.783034e+00 -1.899210e+00 -1.831586e+00 -1.851379e+00 -2.046030e+00 -2.592185e+00 -3.458340e+00 -2.087734e+00 -9.787097e-02 8.447530e-02 1.936785e-02 
-9.258978e-03 5.134215e-03 4.907700e-02 8.695904e-02 -3.109415e-01 -2.287949e+00 -1.336121e+00 -4.303318e-01 -1.033889e+00 -6.597865e-01 -8.999741e-01 -8.775672e-01 -1.072827e+00 -9.982539e-01 -8.662718e-01 -8.600478e-01 -8.675570e-01 -8.626811e-01 -8.640961e-01 -8.671175e-01 -9.412658e-01 -9.550830e-01 -9.504727e-01 -8.530877e-01 -7.305448e-01 -8.147093e-01 -7.491278e-01 -8.246643e-01 -7.644574e-01 -8.282750e-01 -7.762850e-01 -8.281170e-01 -7.853995e-01 -8.252719e-01 -7.921353e-01 -8.205523e-01 -7.967688e-01 -8.148793e-01 -8.001545e-01 -8.090940e-01 -8.027597e-01 -8.036053e-01 -8.043687e-01 -7.983638e-01 -8.042484e-01 -7.932807e-01 -8.018323e-01 -7.881217e-01 -7.966643e-01 -7.824884e-01 -7.889886e-01 -7.750544e-01 -7.672004e-01 -7.227708e-01 -7.341512e-01 -1.588760e+00 -4.348437e+00 -3.780734e+00 -8.432082e-01 -2.566618e+00 -1.924774e+00 -6.925279e-01 -2.829762e+00 -6.199285e-01 -1.124829e+00 -2.431251e+00 2.400076e-01 -1.441024e+00 -1.905153e+00 -2.092381e-01 -1.062286e+00 -6.753563e-01 -6.618242e-02 -4.791862e-01 -7.590213e-01 -8.454285e-01 -8.505178e-01 -8.482406e-01 -8.405963e-01 -8.369763e-01 -8.312348e-01 -8.279335e-01 -8.244631e-01 -8.213360e-01 -8.200304e-01 -8.167416e-01 -8.168901e-01 -8.133960e-01 -8.140458e-01 -8.107944e-01 -8.108884e-01 -8.092804e-01 -8.077177e-01 -8.096568e-01 -8.047694e-01 -8.118634e-01 -8.016305e-01 -8.155538e-01 -7.979962e-01 -8.200012e-01 -7.934845e-01 -8.244905e-01 -7.884012e-01 -8.290150e-01 -7.838892e-01 -8.332925e-01 -7.806751e-01 -8.364469e-01 -7.792344e-01 -8.373539e-01 -7.801079e-01 -8.352040e-01 -7.838976e-01 -8.292963e-01 -7.908592e-01 -8.191720e-01 -7.994780e-01 -8.025791e-01 -8.005607e-01 -7.714509e-01 -7.601576e-01 -8.909057e-01 -1.740587e+00 -1.066400e+00 -2.152555e-01 3.963689e-02 1.444414e-02 -8.321616e-03 
-1.214193e-02 -6.690318e-03 4.223779e-03 2.966248e-02 3.494153e-02 -1.431695e-01 -1.845629e-01 -1.071428e-01 -1.084332e-01 -3.798076e-02 -3.918972e-02 -3.485700e-01 -1.113652e+00 -9.426220e-01 -5.555908e-01 -5.545885e-01 -5.548958e-01 -5.546901e-01 -5.547579e-01 -5.551810e-01 -7.887184e-01 -9.584167e-01 -6.279176e-01 -2.216171e-01 -1.117506e-01 -1.021243e-01 -9.070965e-02 -9.195091e-02 -8.518563e-02 -8.894917e-02 -8.528290e-02 -8.904680e-02 -8.670122e-02 -8.953609e-02 -8.806185e-02 -8.986549e-02 -8.916799e-02 -9.007351e-02 -9.013064e-02 -9.032833e-02 -9.112533e-02 -9.083745e-02 -9.236037e-02 -9.185501e-02 -9.408521e-02 -9.368131e-02 -9.655940e-02 -9.651223e-02 -9.969920e-02 -9.969856e-02 -1.018042e-01 -9.899524e-02 -8.923239e-02 -5.346385e-02 -2.444352e-02 -3.812292e-01 -1.548284e+00 -9.767117e-01 5.975568e-01 -8.907428e-01 -7.305928e-01 3.061224e-01 -1.192709e+00 -6.868042e-02 -8.983084e-02 -1.165949e+00 8.160959e-02 -7.694482e-01 -7.447444e-01 5.921962e-01 -2.621457e-01 -1.019131e+00 -5.465895e-01 -3.271570e-02 2.411386e-02 -4.281389e-02 -7.493165e-02 -8.803316e-02 -9.337104e-02 -9.613714e-02 -9.704897e-02 -9.708039e-02 -9.677761e-02 -9.568935e-02 -9.522105e-02 -9.367434e-02 -9.351344e-02 -9.185203e-02 -9.213790e-02 -9.051700e-02 -9.115918e-02 -8.967165e-02 -9.045574e-02 -8.921684e-02 -8.988712e-02 -8.906604e-02 -8.935626e-02 -8.916130e-02 -8.880118e-02 -8.944652e-02 -8.819334e-02 -8.987531e-02 -8.753385e-02 -9.039454e-02 -8.685137e-02 -9.093012e-02 -8.618480e-02 -9.139205e-02 -8.558301e-02 -9.165348e-02 -8.504261e-02 -9.146702e-02 -8.435584e-02 -9.025835e-02 -8.277827e-02 -8.674830e-02 -7.850843e-02 -7.869446e-02 -6.845186e-02 -6.375968e-02 -5.297725e-02 -9.591014e-02 -1.787319e-01 -6.520651e-02 9.626728e-04 -3.605655e-03 -1.505593e-02 -1.530800e-02 
-8.253856e-03 -6.981129e-03 -5.347804e-03 -1.895855e-03 4.070777e-03 4.923852e-04 -8.900342e-03 -4.062494e-03 9.508713e-03 3.521567e-02 4.960935e-02 -1.198887e-01 -5.682306e-01 -4.949907e-01 -2.771454e-01 -2.767128e-01 -2.767122e-01 -2.767122e-01 -2.767124e-01 -2.768519e-01 -3.823241e-01 -4.694321e-01 -3.044694e-01 -8.873030e-02 -3.330328e-02 -2.308526e-02 -1.675995e-02 -1.239754e-02 -9.463637e-03 -8.136471e-03 -7.388030e-03 -7.178816e-03 -7.120344e-03 -7.180635e-03 -7.320026e-03 -7.404442e-03 -7.604316e-03 -7.670647e-03 -7.913553e-03 -7.987505e-03 -8.295175e-03 -8.423617e-03 -8.828776e-03 -9.056713e-03 -9.573893e-03 -9.891529e-03 -1.041684e-02 -1.057515e-02 -1.056321e-02 -9.563983e-03 -7.299703e-03 -1.961275e-03 1.109400e-02 4.283451e-02 6.545884e-02 -2.504073e-01 -1.397908e+00 -8.479481e-01 7.510678e-01 -6.322572e-01 -2.230356e-02 7.388594e-01 -9.184593e-01 8.539291e-01 4.278154e-02 -6.941111e-01 1.335194e+00 -5.596324e-01 -3.379245e-01 1.239620e+00 4.711424e-01 6.908325e-01 7.890328e-01 2.759306e-01 1.027518e-01 5.219009e-02 2.790494e-02 1.302252e-02 3.765499e-03 -1.990378e-03 -5.564903e-03 -7.733882e-03 -8.997209e-03 -9.561217e-03 -9.774318e-03 -9.628523e-03 -9.465388e-03 -9.109679e-03 -8.910038e-03 -8.561726e-03 -8.435765e-03 -8.150210e-03 -8.100754e-03 -7.875376e-03 -7.875233e-03 -7.699894e-03 -7.720729e-03 -7.591393e-03 -7.608983e-03 -7.527761e-03 -7.521251e-03 -7.494120e-03 -7.445445e-03 -7.479658e-03 -7.373392e-03 -7.474407e-03 -7.297477e-03 -7.464233e-03 -7.202099e-03 -7.414329e-03 -7.034234e-03 -7.220909e-03 -6.629524e-03 -6.609608e-03 -5.586609e-03 -5.021456e-03 -3.232639e-03 -1.818765e-03 7.797458e-04 2.610656e-03 4.786579e-03 1.036048e-03 -3.291990e-03 -2.281197e-04 -3.382177e-03 -7.651198e-03 -9.497413e-03 -9.093861e-03 
-2.803907e-06 -1.518713e-06 -1.431114e-08 6.644694e-07 1.677841e-06 1.785002e-06 2.272444e-06 3.438878e-06 6.108886e-06 8.091531e-06 5.213212e-06 -2.244225e-05 -8.253486e-05 -5.919234e-05 -9.530692e-08 -1.151143e-09 -9.627830e-10 -1.536917e-09 3.702927e-09 3.911228e-06 3.094913e-03 7.526487e-04 -2.673724e-04 -1.095969e-04 -5.264407e-05 -6.270834e-05 -5.460507e-05 -5.689069e-05 -5.200359e-05 -5.698020e-05 -6.127912e-05 -7.292850e-05 -8.607460e-05 -1.064029e-04 -1.299995e-04 -1.633625e-04 -2.024768e-04 -2.560628e-04 -3.193045e-04 -4.034302e-04 -5.030927e-04 -6.304012e-04 -7.786557e-04 -9.539730e-04 -1.140774e-03 -1.319088e-03 -1.437673e-03 -1.398439e-03 -1.040115e-03 -7.966864e-05 1.871511e-03 5.649515e-03 1.386487e-02 3.255195e-02 4.832527e-02 -1.099558e-01 -7.446740e-01 -5.902966e-01 2.839619e-01 -1.257853e-01 6.304544e-02 3.233587e-01 -2.597534e-01 5.035167e-01 1.454416e-01 -1.761592e-01 6.471558e-01 5.064373e-02 1.111023e-01 3.383749e-01 -4.801557e-02 4.237792e-01 5.746450e-01 2.074051e-01 7.004750e-02 3.982548e-02 2.715160e-02 1.795087e-02 1.127304e-02 6.620468e-03 3.430117e-03 1.277373e-03 -8.486747e-05 -8.775898e-04 -1.249604e-03 -1.360146e-03 -1.303544e-03 -1.172306e-03 -1.006798e-03 -8.448438e-04 -6.950783e-04 -5.671212e-04 -4.589185e-04 -3.700969e-04 -2.975403e-04 -2.386095e-04 -1.913162e-04 -1.530710e-04 -1.227202e-04 -9.825925e-05 -7.889842e-05 -6.337663e-05 -5.099124e-05 -4.121497e-05 -3.324979e-05 -2.720013e-05 -2.215056e-05 -1.865471e-05 -1.569568e-05 -1.394435e-05 -1.235483e-05 -1.146054e-05 -1.046516e-05 -9.631774e-06 -8.759619e-06 -7.640410e-06 -6.959763e-06 -5.757400e-06 -5.769591e-06 -5.095707e-06 -6.394493e-06 -6.890983e-06 -9.652314e-06 -1.099402e-05 -9.910178e-06 -9.473794e-06 -6.746836e-06 -5.192402e-06 
8.247948e-03 6.979276e-03 5.349175e-03 1.900389e-03 -4.063649e-03 -4.870176e-04 8.905886e-03 4.064428e-03 -9.496979e-03 -3.520259e-02 -4.960446e-02 1.198305e-01 5.683539e-01 4.947715e-01 2.771450e-01 2.767128e-01 2.767122e-01 2.767121e-01 2.767124e-01 2.768616e-01 3.898384e-01 4.721010e-01 3.043372e-01 8.858793e-02 3.321672e-02 2.295682e-02 1.664590e-02 1.226191e-02 9.333921e-03 7.980297e-03 7.215416e-03 6.965489e-03 6.865036e-03 6.863805e-03 6.927940e-03 6.917357e-03 6.993131e-03 6.910272e-03 6.955880e-03 6.795946e-03 6.797245e-03 6.564945e-03 6.508482e-03 6.206072e-03 6.080564e-03 5.720934e-03 5.544857e-03 5.196885e-03 5.096172e-03 5.008140e-03 5.382043e-03 6.151374e-03 8.068094e-03 1.253007e-02 2.143574e-02 2.538195e-02 4.864170e-03 1.314690e-02 4.023380e-02 2.341844e-02 3.736088e-02 3.757672e-02 2.178306e-02 4.907541e-02 2.708203e-02 3.424637e-02 6.041341e-02 3.192971e-02 3.774982e-02 4.961229e-02 6.096824e-02 8.400395e-02 6.970000e-02 4.328685e-02 3.219318e-02 2.632585e-02 2.093400e-02 1.632149e-02 1.270940e-02 1.002856e-02 8.124921e-03 6.817099e-03 6.075372e-03 5.657826e-03 5.607987e-03 5.632284e-03 5.872747e-03 6.019656e-03 6.316126e-03 6.438320e-03 6.702324e-03 6.764263e-03 6.978924e-03 6.990374e-03 7.159008e-03 7.140973e-03 7.266792e-03 7.240749e-03 7.322467e-03 7.308397e-03 7.340800e-03 7.356693e-03 7.331923e-03 7.392797e-03 7.301772e-03 7.418133e-03 7.251477e-03 7.425389e-03 7.170484e-03 7.384054e-03 7.009757e-03 7.194542e-03 6.609037e-03 6.586385e-03 5.570148e-03 5.003073e-03 3.221624e-03 1.807147e-03 -7.849327e-04 -2.616184e-03 -4.789504e-03 -1.043497e-03 3.279658e-03 2.082677e-04 3.361628e-03 7.629181e-03 9.481462e-03 9.082174e-03 
1.213566e-02 6.691310e-03 -4.216938e-03 -2.964154e-02 -3.490518e-02 1.431312e-01 1.845768e-01 1.070889e-01 1.084081e-01 3.793859e-02 3.915218e-02 3.484810e-01 1.113702e+00 9.426263e-01 5.555921e-01 5.545870e-01 5.548995e-01 5.546856e-01 5.547618e-01 5.551907e-01 7.942984e-01 9.583120e-01 6.274029e-01 2.214600e-01 1.117372e-01 1.019659e-01 9.060950e-02 9.176342e-02 8.500466e-02 8.871456e-02 8.497511e-02 8.871372e-02 8.621372e-02 8.904109e-02 8.732856e-02 8.910493e-02 8.807480e-02 8.887173e-02 8.846993e-02 8.840847e-02 8.856054e-02 8.776474e-02 8.835430e-02 8.693161e-02 8.779503e-02 8.583532e-02 8.676487e-02 8.433408e-02 8.508729e-02 8.225086e-02 8.265398e-02 7.960901e-02 7.974722e-02 7.708446e-02 7.800169e-02 7.710491e-02 7.768609e-02 7.511730e-02 7.507974e-02 7.050352e-02 7.077387e-02 7.033021e-02 6.928565e-02 7.116554e-02 7.158440e-02 7.314806e-02 7.800762e-02 7.999530e-02 8.572933e-02 9.243086e-02 9.622100e-02 9.700531e-02 9.490963e-02 9.308638e-02 9.078033e-02 8.903774e-02 8.672745e-02 8.535834e-02 8.394146e-02 8.335215e-02 8.296883e-02 8.297737e-02 8.345845e-02 8.370074e-02 8.472487e-02 8.483763e-02 8.611221e-02 8.590900e-02 8.725249e-02 8.674440e-02 8.803851e-02 8.736562e-02 8.848669e-02 8.785586e-02 8.864489e-02 8.829656e-02 8.856107e-02 8.874614e-02 8.827622e-02 8.923265e-02 8.782672e-02 8.975890e-02 8.726058e-02 9.031156e-02 8.663699e-02 9.084997e-02 8.601633e-02 9.130454e-02 8.545652e-02 9.156179e-02 8.496020e-02 9.138087e-02 8.432211e-02 9.018914e-02 8.279357e-02 8.670327e-02 7.856940e-02 7.867934e-02 6.855387e-02 6.377286e-02 5.310859e-02 9.585178e-02 1.788009e-01 6.524000e-02 -9.707479e-04 3.575915e-03 1.503086e-02 1.529199e-02 
9.247176e-03 -5.132215e-03 -4.905826e-02 -8.686022e-02 3.110808e-01 2.287066e+00 1.335960e+00 4.299756e-01 1.033040e+00 6.590527e-01 8.989110e-01 8.771210e-01 1.073516e+00 9.983285e-01 8.663004e-01 8.600132e-01 8.676556e-01 8.625824e-01 8.641921e-01 8.671707e-01 9.461620e-01 9.520783e-01 9.517130e-01 8.542590e-01 7.325922e-01 8.162410e-01 7.506276e-01 8.259459e-01 7.649162e-01 8.295800e-01 7.767385e-01 8.305662e-01 7.867791e-01 8.289997e-01 7.945646e-01 8.253472e-01 8.007114e-01 8.211760e-01 8.065537e-01 8.179436e-01 8.126907e-01 8.158983e-01 8.186321e-01 8.145808e-01 8.235395e-01 8.133959e-01 8.267618e-01 8.122414e-01 8.282676e-01 8.107862e-01 8.270129e-01 8.069597e-01 8.208175e-01 7.981849e-01 8.076866e-01 7.818823e-01 7.850779e-01 7.609573e-01 7.798427e-01 7.374706e-01 7.498239e-01 7.397641e-01 7.250458e-01 7.335371e-01 7.302961e-01 7.178907e-01 7.518716e-01 7.364833e-01 7.695004e-01 8.035216e-01 8.099985e-01 7.971722e-01 7.933872e-01 7.902394e-01 7.889470e-01 7.886514e-01 7.883347e-01 7.899614e-01 7.900394e-01 7.924530e-01 7.929120e-01 7.952703e-01 7.964112e-01 7.981836e-01 8.001653e-01 8.010734e-01 8.035086e-01 8.035323e-01 8.056176e-01 8.055482e-01 8.063905e-01 8.076581e-01 8.058585e-01 8.101613e-01 8.041104e-01 8.134126e-01 8.012345e-01 8.171024e-01 7.969147e-01 8.208815e-01 7.916997e-01 8.250150e-01 7.865175e-01 8.293265e-01 7.820015e-01 8.332103e-01 7.787263e-01 8.358485e-01 7.772874e-01 8.363594e-01 7.783250e-01 8.340483e-01 7.828047e-01 8.287955e-01 7.912057e-01 8.195195e-01 8.007063e-01 8.029574e-01 8.020787e-01 7.717623e-01 7.620297e-01 8.898860e-01 1.741925e+00 1.067052e+00 2.153829e-01 -3.956768e-02 -1.446912e-02 8.295503e-03 
-7.819479e-03 -4.103965e-02 -7.980260e-02 3.683436e-01 2.560600e+00 4.640157e+00 2.038252e+00 1.200794e+00 1.906276e+00 1.528717e+00 1.813893e+00 1.524229e+00 1.763321e+00 1.549392e+00 1.720939e+00 1.598128e+00 1.716097e+00 1.643095e+00 1.666153e+00 1.670036e+00 1.672203e+00 1.640426e+00 1.471601e+00 1.724986e+00 1.559118e+00 1.792628e+00 1.639994e+00 1.804533e+00 1.679299e+00 1.799681e+00 1.726190e+00 1.810485e+00 1.778216e+00 1.814310e+00 1.805307e+00 1.796010e+00 1.808682e+00 1.774197e+00 1.813258e+00 1.771761e+00 1.830964e+00 1.787442e+00 1.852706e+00 1.808492e+00 1.866973e+00 1.823757e+00 1.870168e+00 1.838832e+00 1.878641e+00 1.867630e+00 1.897445e+00 1.901610e+00 1.915290e+00 1.929564e+00 1.924401e+00 1.941612e+00 1.915846e+00 1.938634e+00 1.917154e+00 1.915446e+00 1.894407e+00 1.899526e+00 1.857653e+00 1.861842e+00 1.826605e+00 1.811664e+00 1.813013e+00 1.788866e+00 1.806333e+00 1.808078e+00 1.819283e+00 1.758795e+00 1.787468e+00 1.738603e+00 1.787080e+00 1.737856e+00 1.796359e+00 1.750320e+00 1.808887e+00 1.765400e+00 1.812084e+00 1.775394e+00 1.806099e+00 1.786562e+00 1.800167e+00 1.805246e+00 1.795991e+00 1.824705e+00 1.786007e+00 1.839064e+00 1.773538e+00 1.851952e+00 1.763090e+00 1.863015e+00 1.758630e+00 1.874591e+00 1.760669e+00 1.876814e+00 1.758451e+00 1.864627e+00 1.759374e+00 1.850610e+00 1.772351e+00 1.837527e+00 1.794442e+00 1.823851e+00 1.820984e+00 1.807171e+00 1.844508e+00 1.784385e+00 1.858707e+00 1.759141e+00 1.870158e+00 1.750167e+00 1.889846e+00 1.762061e+00 1.903254e+00 1.785231e+00 1.899792e+00 1.831710e+00 1.854897e+00 2.045194e+00 2.598317e+00 3.456625e+00 2.085836e+00 9.862695e-02 -8.428712e-02 -1.937137e-02 
-1.336256e-02 -3.989084e-02 2.306986e-02 8.898851e-01 3.274127e+00 1.281718e+00 4.890220e-02 1.310086e+00 6.314905e-01 9.227574e-01 6.494250e-01 5.044853e-01 4.290779e-01 2.187777e-01 4.971899e-01 2.799327e-01 3.992594e-01 2.552197e-01 4.043655e-01 4.146784e-01 1.982530e-01 6.245287e-01 4.865256e-01 8.113913e-01 7.671959e-01 9.027112e-01 8.324499e-01 8.926813e-01 8.593894e-01 8.780226e-01 9.079284e-01 8.957623e-01 9.679228e-01 9.080798e-01 9.928103e-01 8.901848e-01 9.832566e-01 8.674994e-01 9.751345e-01 8.722250e-01 9.857939e-01 9.018121e-01 1.002463e+00 9.374592e-01 1.009365e+00 9.630892e-01 1.002512e+00 9.874441e-01 1.007346e+00 1.032783e+00 1.034304e+00 1.091135e+00 1.071887e+00 1.152719e+00 1.114990e+00 1.211422e+00 1.158158e+00 1.258813e+00 1.171806e+00 1.283238e+00 1.210778e+00 1.248389e+00 1.215905e+00 1.199567e+00 1.149667e+00 1.157404e+00 1.066263e+00 1.072060e+00 1.008834e+00 9.280996e-01 9.347886e-01 8.761379e-01 9.326933e-01 8.633815e-01 9.456450e-01 8.673766e-01 9.646611e-01 8.861320e-01 9.843897e-01 9.077731e-01 9.877546e-01 9.219070e-01 9.754405e-01 9.379039e-01 9.617488e-01 9.650824e-01 9.504139e-01 9.935928e-01 9.317058e-01 1.014357e+00 9.113838e-01 1.031858e+00 8.967998e-01 1.044929e+00 8.942606e-01 1.056358e+00 9.045963e-01 1.051525e+00 9.120491e-01 1.023422e+00 9.269491e-01 9.909972e-01 9.609139e-01 9.590007e-01 1.007748e+00 9.266691e-01 1.058674e+00 8.924613e-01 1.100376e+00 8.539212e-01 1.121070e+00 8.185200e-01 1.127823e+00 8.151330e-01 1.134452e+00 8.508544e-01 1.119540e+00 9.106923e-01 1.074559e+00 1.012479e+00 1.025354e+00 1.156190e+00 3.019894e-01 3.189312e+00 2.554530e+00 4.088617e-02 -1.281105e-01 -3.459754e-02 
8.144484e-04 -1.490304e-02 1.740385e-02 3.774686e-01 1.000110e+00 -2.048201e+00 -1.329733e+00 3.469050e-01 -7.796456e-01 -2.541516e-01 -6.194786e-01 -9.298156e-02 -4.644311e-01 -3.091695e-01 -1.001866e+00 -7.699009e-01 -8.421493e-01 -7.356135e-01 -8.452408e-01 -8.162777e-01 -4.124940e-01 -5.385992e-01 -2.149869e-01 -4.449917e-01 -4.394351e-01 -4.973757e-01 -4.378019e-01 -5.062326e-01 -4.380747e-01 -5.118815e-01 -4.281653e-01 -5.029025e-01 -4.136149e-01 -4.941425e-01 -4.113843e-01 -4.950946e-01 -4.214872e-01 -4.976615e-01 -4.316212e-01 -4.912725e-01 -4.357162e-01 -4.771297e-01 -4.378031e-01 -4.617846e-01 -4.427017e-01 -4.506800e-01 -4.511211e-01 -4.406141e-01 -4.536140e-01 -4.231754e-01 -4.452954e-01 -3.991275e-01 -4.277849e-01 -3.684821e-01 -3.992696e-01 -3.281081e-01 -3.565048e-01 -2.851781e-01 -3.450996e-01 -2.468100e-01 -2.957953e-01 -2.671140e-01 -2.660930e-01 -2.842203e-01 -3.030944e-01 -2.859384e-01 -3.676285e-01 -3.439824e-01 -4.124300e-01 -4.824665e-01 -4.826693e-01 -4.881743e-01 -4.599746e-01 -4.843399e-01 -4.474312e-01 -4.794240e-01 -4.363454e-01 -4.713681e-01 -4.269208e-01 -4.622896e-01 -4.242455e-01 -4.553255e-01 -4.281368e-01 -4.475224e-01 -4.337147e-01 -4.360006e-01 -4.392997e-01 -4.242676e-01 -4.475348e-01 -4.156365e-01 -4.557820e-01 -4.088891e-01 -4.609191e-01 -4.047389e-01 -4.603383e-01 -4.025846e-01 -4.535582e-01 -4.076498e-01 -4.458855e-01 -4.222255e-01 -4.338632e-01 -4.395592e-01 -4.141070e-01 -4.577046e-01 -3.896747e-01 -4.761868e-01 -3.645968e-01 -4.944699e-01 -3.447451e-01 -5.122201e-01 -3.356283e-01 -5.256237e-01 -3.363783e-01 -5.239380e-01 -3.440672e-01 -5.053387e-01 -3.685177e-01 -4.798037e-01 -4.180142e-01 -4.615088e-01 -5.033473e-01 -6.346268e-01 -1.589219e+00 5.501503e-01 8.853540e-01 3.160815e-02 -2.962659e-02 -2.165952e-03 
6.095893e-03 2.985849e-03 6.921895e-03 4.813475e-02 1.425009e-02 -9.889451e-01 -6.379610e-01 -9.294367e-02 -4.343064e-01 -2.605855e-01 -3.761996e-01 -4.098209e-02 3.792216e-01 1.216999e+00 1.673212e+00 1.691380e+00 1.452384e+00 1.650747e+00 1.452488e+00 1.547612e+00 1.337137e+00 2.917887e-01 -1.163883e-01 -3.482830e-01 -3.311683e-01 -3.660515e-01 -3.287898e-01 -3.648180e-01 -3.313229e-01 -3.639495e-01 -3.333211e-01 -3.619994e-01 -3.353478e-01 -3.596611e-01 -3.377122e-01 -3.572591e-01 -3.404234e-01 -3.549492e-01 -3.433693e-01 -3.528188e-01 -3.464114e-01 -3.509356e-01 -3.493458e-01 -3.492814e-01 -3.518844e-01 -3.478272e-01 -3.538428e-01 -3.467015e-01 -3.553182e-01 -3.462080e-01 -3.566257e-01 -3.465431e-01 -3.578139e-01 -3.468886e-01 -3.563827e-01 -3.416754e-01 -3.475882e-01 -3.334367e-01 -3.471992e-01 -3.216046e-01 -3.292466e-01 -3.219746e-01 -3.161973e-01 -3.185628e-01 -3.178240e-01 -3.087802e-01 -3.222619e-01 -3.079104e-01 -3.193955e-01 -3.310409e-01 -3.333914e-01 -3.282135e-01 -3.258108e-01 -3.293334e-01 -3.282882e-01 -3.333209e-01 -3.316855e-01 -3.383030e-01 -3.362064e-01 -3.425624e-01 -3.394405e-01 -3.443259e-01 -3.409137e-01 -3.440806e-01 -3.415212e-01 -3.429733e-01 -3.420265e-01 -3.417644e-01 -3.426138e-01 -3.407948e-01 -3.431100e-01 -3.402169e-01 -3.432368e-01 -3.401385e-01 -3.427570e-01 -3.406857e-01 -3.415415e-01 -3.419610e-01 -3.395272e-01 -3.439426e-01 -3.367017e-01 -3.465267e-01 -3.332665e-01 -3.496051e-01 -3.295967e-01 -3.529117e-01 -3.261270e-01 -3.560418e-01 -3.234358e-01 -3.585444e-01 -3.222067e-01 -3.599405e-01 -3.232050e-01 -3.599636e-01 -3.274266e-01 -3.591258e-01 -3.362798e-01 -3.596844e-01 -3.513891e-01 -3.686689e-01 -3.851935e-01 -5.045833e-01 -7.660043e-01 -1.986841e-01 2.379968e-02 1.229529e-02 8.876838e-03 7.990416e-03 
