# vtk DataFile Version 2.0
Comment goes here
ASCII

DATASET STRUCTURED_POINTS
FIELD FieldData 1
TIME 1 1 double
0.05000000
DIMENSIONS    128   16   1

ORIGIN    0.000   0.000   0.000
SPACING   0.0078125 0.015625   1.000

POINT_DATA   2048
SCALARS P double
LOOKUP_TABLE default

1.040873e+00 1.020803e+00 1.043481e+00 1.030037e+00 1.044085e+00 1.039778e+00 1.040837e+00 1.053568e+00 1.033932e+00 1.053997e+00 1.018731e+00 1.046015e+00 9.960403e-01 1.021046e+00 9.528178e-01 9.707572e-01 9.008133e-01 9.112624e-01 8.455582e-01 8.530093e-01 7.887819e-01 7.926817e-01 7.427506e-01 7.536499e-01 7.296282e-01 7.481308e-01 7.321590e-01 7.538514e-01 7.504067e-01 7.655395e-01 7.591190e-01 7.689995e-01 7.635413e-01 7.621278e-01 7.599808e-01 7.554462e-01 7.525735e-01 7.474508e-01 7.650166e-01 7.552679e-01 7.718044e-01 7.670611e-01 7.757571e-01 7.614791e-01 7.732738e-01 7.686265e-01 7.854270e-01 8.004374e-01 8.310721e-01 8.516976e-01 8.962891e-01 9.211327e-01 9.632687e-01 9.758892e-01 9.991102e-01 9.965423e-01 1.008177e+00 1.003496e+00 1.020921e+00 1.026186e+00 1.054285e+00 1.057020e+00 1.081881e+00 1.073354e+00 1.089094e+00 1.070229e+00 1.077995e+00 1.072570e+00 1.101867e+00 1.112498e+00 1.151883e+00 1.169788e+00 1.210378e+00 1.211593e+00 1.236651e+00 1.229280e+00 1.243657e+00 1.228464e+00 1.235901e+00 1.214885e+00 1.209864e+00 1.176893e+00 1.170294e+00 1.136397e+00 1.137677e+00 1.107891e+00 1.117296e+00 1.087825e+00 1.115482e+00 1.094990e+00 1.121576e+00 1.119096e+00 1.149450e+00 1.143610e+00 1.182033e+00 1.178798e+00 1.201505e+00 1.182852e+00 1.198021e+00 1.169751e+00 1.179428e+00 1.152644e+00 1.152714e+00 1.120423e+00 1.123536e+00 1.090987e+00 1.080542e+00 1.043868e+00 1.038953e+00 1.017876e+00 1.023211e+00 1.004005e+00 1.015327e+00 9.985247e-01 1.012715e+00 9.992024e-01 1.017757e+00 1.006460e+00 1.030296e+00 1.008262e+00 1.038767e+00 1.003932e+00 1.044834e+00 1.005542e+00 1.041040e+00 1.007276e+00 1.039285e+00 1.012647e+00 
8.823808e-01 8.651518e-01 8.813144e-01 8.692527e-01 8.788187e-01 8.732380e-01 8.724152e-01 8.872248e-01 8.689265e-01 8.868566e-01 8.558001e-01 8.782610e-01 8.420010e-01 8.580070e-01 8.336657e-01 8.442760e-01 8.334587e-01 8.340088e-01 8.390131e-01 8.382782e-01 8.438716e-01 8.257931e-01 8.103992e-01 7.970759e-01 8.033431e-01 8.003275e-01 7.909927e-01 7.910323e-01 7.980437e-01 7.984422e-01 8.063477e-01 8.200468e-01 8.376231e-01 8.355457e-01 8.474700e-01 8.322888e-01 8.181273e-01 7.925323e-01 8.185372e-01 7.848264e-01 8.059953e-01 7.976815e-01 8.052796e-01 7.756420e-01 7.878550e-01 7.671270e-01 7.697769e-01 7.742491e-01 7.909510e-01 7.950523e-01 8.490114e-01 8.785293e-01 9.418091e-01 9.583200e-01 9.853937e-01 9.713304e-01 9.711184e-01 9.468884e-01 9.608011e-01 9.730014e-01 1.020602e+00 1.036014e+00 1.078336e+00 1.077470e+00 1.105584e+00 1.065563e+00 1.044301e+00 1.031038e+00 1.069186e+00 1.074880e+00 1.116363e+00 1.161011e+00 1.226574e+00 1.216557e+00 1.224896e+00 1.203012e+00 1.200279e+00 1.173019e+00 1.178854e+00 1.160803e+00 1.142246e+00 1.098915e+00 1.086130e+00 1.058544e+00 1.063547e+00 1.030131e+00 1.030208e+00 9.916201e-01 1.031295e+00 1.014301e+00 1.045549e+00 1.048334e+00 1.066210e+00 1.056191e+00 1.096766e+00 1.104264e+00 1.116743e+00 1.091366e+00 1.095862e+00 1.056888e+00 1.056579e+00 1.040697e+00 1.029998e+00 1.001192e+00 1.010956e+00 9.790479e-01 9.581448e-01 9.202204e-01 9.138123e-01 9.109913e-01 9.202036e-01 9.094357e-01 9.301466e-01 9.180641e-01 9.280116e-01 9.141409e-01 9.146379e-01 9.150910e-01 9.245779e-01 9.101813e-01 9.258733e-01 8.813422e-01 9.164765e-01 8.687400e-01 8.952254e-01 8.622551e-01 8.855772e-01 8.620277e-01 
1.037071e+00 1.015725e+00 1.044625e+00 1.025255e+00 1.048337e+00 1.027019e+00 1.045933e+00 1.082754e+00 1.061137e+00 1.081753e+00 1.046870e+00 1.096099e+00 1.046116e+00 1.078102e+00 9.640566e-01 9.816918e-01 8.877075e-01 8.774626e-01 8.349935e-01 8.603624e-01 7.977746e-01 7.789888e-01 6.919657e-01 7.026280e-01 7.518152e-01 7.689955e-01 6.923322e-01 7.053091e-01 7.341108e-01 7.429172e-01 7.336966e-01 7.988810e-01 8.313240e-01 8.405337e-01 8.870679e-01 8.840196e-01 7.733960e-01 7.474616e-01 8.228931e-01 7.345257e-01 7.551748e-01 8.187874e-01 7.964148e-01 7.304663e-01 7.638724e-01 7.320873e-01 6.873676e-01 7.178586e-01 6.878639e-01 6.603684e-01 7.464811e-01 8.282603e-01 9.516037e-01 1.003509e+00 1.026499e+00 9.973750e-01 9.498212e-01 8.935745e-01 8.861253e-01 9.317936e-01 1.022968e+00 1.079106e+00 1.161410e+00 1.189215e+00 1.235390e+00 1.139016e+00 1.022478e+00 9.865058e-01 1.038559e+00 1.067896e+00 1.142484e+00 1.280251e+00 1.411138e+00 1.367750e+00 1.334068e+00 1.283846e+00 1.249677e+00 1.217000e+00 1.247555e+00 1.258532e+00 1.214049e+00 1.146362e+00 1.116642e+00 1.073973e+00 1.085177e+00 1.074294e+00 1.043565e+00 9.908114e-01 1.117583e+00 1.063470e+00 1.080843e+00 1.161623e+00 1.148212e+00 1.090311e+00 1.197941e+00 1.243013e+00 1.225503e+00 1.192276e+00 1.199334e+00 1.126848e+00 1.134726e+00 1.132509e+00 1.078854e+00 1.042477e+00 1.132427e+00 1.128558e+00 1.061975e+00 9.613035e-01 9.602264e-01 1.007418e+00 1.046843e+00 1.036883e+00 1.092762e+00 1.088999e+00 1.102928e+00 1.070734e+00 1.060694e+00 1.093942e+00 1.109840e+00 1.094895e+00 1.093669e+00 1.014828e+00 1.084124e+00 1.012503e+00 1.043045e+00 1.000981e+00 1.033174e+00 1.005417e+00 
8.734733e-01 8.593820e-01 8.851971e-01 8.670389e-01 8.925507e-01 8.634057e-01 9.080004e-01 9.862011e-01 9.558938e-01 9.587231e-01 9.537359e-01 9.977186e-01 9.864966e-01 9.350098e-01 6.872726e-01 5.451806e-01 3.305466e-01 1.372625e-01 8.590011e-02 4.891904e-02 -7.043071e-02 -2.412036e-01 -4.113869e-01 -4.433566e-01 -2.655376e-01 -2.808476e-01 -4.424921e-01 -4.411275e-01 -3.016280e-01 -2.946421e-01 -3.116325e-01 -2.155461e-01 -1.616039e-01 -1.909271e-01 -5.197216e-02 -4.718111e-02 -3.023804e-01 -3.211507e-01 -1.354839e-01 -3.203539e-01 -2.847342e-01 -5.766010e-02 -9.243032e-02 -1.936519e-01 -5.662375e-02 -8.018568e-02 -1.737786e-01 -1.157525e-01 -2.179402e-01 -3.333018e-01 -1.995952e-01 -6.835140e-02 1.553505e-01 2.613353e-01 3.137343e-01 2.866392e-01 2.004110e-01 1.125286e-01 5.924925e-02 8.533997e-02 1.810150e-01 2.335724e-01 3.606444e-01 3.939027e-01 4.398942e-01 3.059707e-01 1.382680e-01 4.568916e-02 7.536600e-02 2.044063e-01 3.845042e-01 5.811908e-01 7.160596e-01 6.183032e-01 5.541082e-01 4.697269e-01 4.432657e-01 4.725928e-01 5.911566e-01 6.836278e-01 6.804732e-01 6.323455e-01 5.979760e-01 4.688067e-01 4.576142e-01 5.509850e-01 5.157917e-01 5.010650e-01 7.969073e-01 6.151919e-01 5.167639e-01 7.766879e-01 6.829868e-01 5.082995e-01 7.173119e-01 7.756729e-01 6.968362e-01 7.162119e-01 7.626013e-01 7.063508e-01 7.648665e-01 7.575073e-01 6.369335e-01 6.215241e-01 8.723434e-01 1.000268e+00 8.515380e-01 6.199948e-01 5.911660e-01 6.685811e-01 7.183132e-01 6.927607e-01 7.396107e-01 7.685278e-01 7.707319e-01 7.211342e-01 7.474019e-01 8.204917e-01 8.913384e-01 8.571335e-01 8.301891e-01 7.660404e-01 8.658177e-01 8.450401e-01 8.581564e-01 8.410569e-01 8.625275e-01 8.486360e-01 
1.018629e+00 1.013745e+00 1.061126e+00 1.051477e+00 1.104580e+00 1.090883e+00 1.169222e+00 1.214344e+00 1.251640e+00 1.227300e+00 1.315203e+00 1.297619e+00 1.407802e+00 1.291832e+00 5.468124e-01 1.815108e-01 -4.598607e-01 -8.828754e-01 -1.347887e+00 -1.706950e+00 -2.458880e+00 -2.600279e+00 -2.679043e+00 -2.707867e+00 -2.548037e+00 -2.564495e+00 -2.646226e+00 -2.631901e+00 -2.482877e+00 -2.451722e+00 -2.439629e+00 -2.377907e+00 -2.335431e+00 -2.357182e+00 -2.233591e+00 -2.201844e+00 -2.349062e+00 -2.319048e+00 -2.169443e+00 -2.253460e+00 -2.206080e+00 -1.983062e+00 -1.963407e+00 -1.966861e+00 -1.813532e+00 -1.770559e+00 -1.798364e+00 -1.738494e+00 -1.790728e+00 -1.860307e+00 -1.761417e+00 -1.670453e+00 -1.503159e+00 -1.403375e+00 -1.322562e+00 -1.289576e+00 -1.300165e+00 -1.315738e+00 -1.337079e+00 -1.340798e+00 -1.313437e+00 -1.291933e+00 -1.196350e+00 -1.176305e+00 -1.134271e+00 -1.151089e+00 -1.156661e+00 -1.206642e+00 -1.198133e+00 -1.053096e+00 -8.816066e-01 -8.129898e-01 -7.861489e-01 -8.369902e-01 -8.298913e-01 -8.580398e-01 -8.021872e-01 -7.073193e-01 -5.588408e-01 -4.472014e-01 -3.496768e-01 -3.142816e-01 -2.829333e-01 -3.893453e-01 -3.845978e-01 -2.557827e-01 -2.086956e-01 -1.573737e-01 8.633428e-02 -6.556901e-02 -1.681288e-01 4.542755e-02 -1.092809e-02 -1.444198e-01 1.257564e-02 2.134917e-02 -4.151804e-03 6.568403e-02 1.588713e-01 1.845311e-01 2.893563e-01 2.744884e-01 2.423409e-01 2.663013e-01 4.913477e-01 6.407102e-01 5.789324e-01 4.081821e-01 3.995022e-01 4.061131e-01 4.474773e-01 4.133036e-01 4.358377e-01 4.625500e-01 4.950458e-01 4.662037e-01 5.702371e-01 6.013318e-01 7.293550e-01 6.897546e-01 7.227645e-01 7.311188e-01 8.237958e-01 8.764200e-01 9.133744e-01 9.309187e-01 9.719506e-01 9.746658e-01 
8.613582e-01 8.659267e-01 9.064989e-01 9.102287e-01 9.547195e-01 9.626914e-01 1.015248e+00 1.025219e+00 1.076876e+00 1.070840e+00 1.143906e+00 1.127046e+00 1.214599e+00 1.174488e+00 2.713906e-01 1.495505e-01 -7.103218e-01 -8.461902e-01 -1.693813e+00 -1.770510e+00 -2.715164e+00 -2.714154e+00 -2.693075e+00 -2.693419e+00 -2.638287e+00 -2.641517e+00 -2.610950e+00 -2.600429e+00 -2.528135e+00 -2.506613e+00 -2.461142e+00 -2.451253e+00 -2.411574e+00 -2.411986e+00 -2.356060e+00 -2.337804e+00 -2.314367e+00 -2.290542e+00 -2.232782e+00 -2.216958e+00 -2.166313e+00 -2.097909e+00 -2.040703e+00 -1.997503e+00 -1.919783e+00 -1.877562e+00 -1.836065e+00 -1.811707e+00 -1.779899e+00 -1.772571e+00 -1.716597e+00 -1.689101e+00 -1.614469e+00 -1.569251e+00 -1.493453e+00 -1.446289e+00 -1.384403e+00 -1.343855e+00 -1.290840e+00 -1.283507e+00 -1.260540e+00 -1.239288e+00 -1.174725e+00 -1.163127e+00 -1.121787e+00 -1.084209e+00 -1.010127e+00 -1.015511e+00 -1.000549e+00 -9.550582e-01 -8.867359e-01 -9.193638e-01 -9.328417e-01 -9.358039e-01 -8.886629e-01 -8.782550e-01 -8.085752e-01 -7.532633e-01 -6.714980e-01 -6.244088e-01 -5.335986e-01 -4.904747e-01 -4.341052e-01 -4.524546e-01 -4.207379e-01 -3.693036e-01 -2.973168e-01 -2.576193e-01 -1.784442e-01 -2.054006e-01 -2.114269e-01 -1.646310e-01 -1.476221e-01 -1.646108e-01 -1.167908e-01 -1.273743e-01 -9.077695e-02 -4.789782e-02 1.844321e-02 5.927935e-02 1.284130e-01 1.270935e-01 1.742834e-01 2.009144e-01 2.756373e-01 3.251070e-01 3.547979e-01 3.250353e-01 3.416349e-01 3.128651e-01 3.368118e-01 3.224881e-01 3.395996e-01 3.452274e-01 3.873545e-01 3.875967e-01 4.696443e-01 4.647626e-01 5.478472e-01 5.357962e-01 5.934977e-01 6.210276e-01 6.700144e-01 7.117844e-01 7.539710e-01 7.739966e-01 8.130821e-01 8.225094e-01 
1.016776e+00 1.017032e+00 1.073694e+00 1.071350e+00 1.132126e+00 1.128982e+00 1.195513e+00 1.193671e+00 1.262834e+00 1.251623e+00 1.331273e+00 1.313346e+00 1.401429e+00 1.374793e+00 3.916316e-01 2.872337e-01 -6.458449e-01 -7.729149e-01 -1.705585e+00 -1.793811e+00 -2.820163e+00 -2.811264e+00 -2.770107e+00 -2.764870e+00 -2.709650e+00 -2.701685e+00 -2.659600e+00 -2.644247e+00 -2.587627e+00 -2.565881e+00 -2.518583e+00 -2.494013e+00 -2.447556e+00 -2.427528e+00 -2.379613e+00 -2.354017e+00 -2.323757e+00 -2.295650e+00 -2.243906e+00 -2.215875e+00 -2.165928e+00 -2.112102e+00 -2.062582e+00 -2.021967e+00 -1.965606e+00 -1.927084e+00 -1.887120e+00 -1.852248e+00 -1.813723e+00 -1.787369e+00 -1.729690e+00 -1.689218e+00 -1.619547e+00 -1.573721e+00 -1.510542e+00 -1.469179e+00 -1.415238e+00 -1.375208e+00 -1.318299e+00 -1.291904e+00 -1.232247e+00 -1.199480e+00 -1.135651e+00 -1.104306e+00 -1.063530e+00 -1.044302e+00 -1.008610e+00 -1.002458e+00 -9.658532e-01 -9.380749e-01 -8.843187e-01 -8.723097e-01 -8.374565e-01 -8.293787e-01 -7.856137e-01 -7.695713e-01 -7.125366e-01 -6.779508e-01 -6.079906e-01 -5.697996e-01 -5.025419e-01 -4.747047e-01 -4.184352e-01 -4.053477e-01 -3.544023e-01 -3.237801e-01 -2.650548e-01 -2.422891e-01 -1.752933e-01 -1.700831e-01 -1.364618e-01 -1.086753e-01 -7.447737e-02 -7.078892e-02 -1.778712e-02 -6.125088e-03 4.127355e-02 6.404203e-02 1.229568e-01 1.433346e-01 2.047524e-01 2.186913e-01 2.719000e-01 2.892058e-01 3.544810e-01 3.733429e-01 4.131809e-01 4.001438e-01 4.362829e-01 4.275805e-01 4.688865e-01 4.612664e-01 5.056955e-01 5.043302e-01 5.576834e-01 5.548459e-01 6.221383e-01 6.230323e-01 6.946133e-01 6.931167e-01 7.563260e-01 7.631814e-01 8.257565e-01 8.389532e-01 8.950963e-01 9.042600e-01 9.581954e-01 9.624493e-01 
8.617166e-01 8.688311e-01 9.154221e-01 9.208565e-01 9.704776e-01 9.749300e-01 1.028829e+00 1.031738e+00 1.090223e+00 1.090285e+00 1.155073e+00 1.154183e+00 1.223344e+00 1.225847e+00 2.338231e-01 2.035602e-01 -7.624634e-01 -8.014931e-01 -1.767843e+00 -1.789245e+00 -2.786226e+00 -2.772913e+00 -2.720322e+00 -2.710380e+00 -2.656127e+00 -2.646581e+00 -2.593920e+00 -2.582287e+00 -2.527981e+00 -2.514311e+00 -2.463226e+00 -2.449219e+00 -2.399965e+00 -2.384509e+00 -2.334823e+00 -2.314615e+00 -2.266676e+00 -2.242213e+00 -2.191262e+00 -2.163349e+00 -2.111690e+00 -2.077758e+00 -2.025154e+00 -1.992583e+00 -1.939299e+00 -1.909233e+00 -1.859963e+00 -1.834073e+00 -1.786213e+00 -1.763229e+00 -1.712046e+00 -1.687163e+00 -1.632062e+00 -1.603975e+00 -1.547135e+00 -1.517603e+00 -1.461744e+00 -1.433707e+00 -1.381418e+00 -1.361723e+00 -1.297312e+00 -1.276821e+00 -1.224223e+00 -1.192589e+00 -1.141388e+00 -1.115627e+00 -1.065271e+00 -1.044815e+00 -1.000430e+00 -9.818085e-01 -9.392504e-01 -9.275586e-01 -8.833693e-01 -8.697969e-01 -8.211882e-01 -8.033809e-01 -7.483085e-01 -7.231176e-01 -6.632270e-01 -6.364204e-01 -5.752627e-01 -5.501882e-01 -4.933784e-01 -4.733559e-01 -4.204017e-01 -3.963629e-01 -3.426074e-01 -3.211357e-01 -2.709796e-01 -2.565613e-01 -2.170247e-01 -2.004236e-01 -1.614545e-01 -1.500617e-01 -1.070127e-01 -9.420537e-02 -4.807367e-02 -2.837175e-02 2.313014e-02 4.402953e-02 9.738289e-02 1.143808e-01 1.659508e-01 1.826942e-01 2.332692e-01 2.469808e-01 2.906201e-01 2.927716e-01 3.321509e-01 3.296462e-01 3.688646e-01 3.666927e-01 4.076742e-01 4.078281e-01 4.550311e-01 4.559307e-01 5.104415e-01 5.122965e-01 5.685709e-01 5.730760e-01 6.260901e-01 6.375086e-01 6.871186e-01 7.021836e-01 7.488809e-01 7.618265e-01 8.069115e-01 8.166654e-01 
1.021566e+00 1.021358e+00 1.080193e+00 1.077941e+00 1.139881e+00 1.136011e+00 1.201788e+00 1.196377e+00 1.266039e+00 1.258244e+00 1.332989e+00 1.324735e+00 1.403676e+00 1.399552e+00 3.574660e-01 3.086505e-01 -6.996623e-01 -7.632626e-01 -1.775131e+00 -1.816378e+00 -2.870388e+00 -2.858614e+00 -2.799226e+00 -2.786064e+00 -2.727465e+00 -2.710823e+00 -2.655447e+00 -2.635871e+00 -2.583290e+00 -2.562129e+00 -2.513759e+00 -2.491218e+00 -2.445026e+00 -2.420141e+00 -2.373745e+00 -2.344530e+00 -2.298091e+00 -2.265037e+00 -2.216342e+00 -2.181080e+00 -2.132684e+00 -2.095601e+00 -2.048622e+00 -2.013498e+00 -1.967084e+00 -1.933344e+00 -1.887960e+00 -1.855331e+00 -1.809354e+00 -1.778407e+00 -1.729983e+00 -1.699243e+00 -1.648815e+00 -1.617787e+00 -1.565980e+00 -1.533956e+00 -1.480056e+00 -1.447140e+00 -1.390863e+00 -1.357352e+00 -1.292549e+00 -1.259366e+00 -1.203196e+00 -1.167023e+00 -1.109663e+00 -1.078918e+00 -1.026317e+00 -9.971597e-01 -9.496818e-01 -9.276313e-01 -8.869001e-01 -8.691255e-01 -8.193095e-01 -8.018388e-01 -7.530223e-01 -7.341113e-01 -6.819168e-01 -6.593193e-01 -6.036075e-01 -5.798602e-01 -5.233680e-01 -5.008655e-01 -4.450379e-01 -4.236296e-01 -3.682806e-01 -3.460163e-01 -2.909893e-01 -2.705403e-01 -2.172388e-01 -1.993530e-01 -1.508409e-01 -1.330487e-01 -8.555436e-02 -7.027831e-02 -2.056662e-02 -4.597481e-03 4.729476e-02 6.540570e-02 1.204630e-01 1.387797e-01 1.952050e-01 2.118520e-01 2.675210e-01 2.814074e-01 3.355339e-01 3.446926e-01 3.944246e-01 3.966936e-01 4.448308e-01 4.443743e-01 4.937222e-01 4.921477e-01 5.435131e-01 5.420851e-01 5.968549e-01 5.958911e-01 6.544292e-01 6.544578e-01 7.147693e-01 7.159118e-01 7.759846e-01 7.796168e-01 8.390775e-01 8.442937e-01 9.017677e-01 9.060509e-01 9.625038e-01 9.646455e-01 
8.664725e-01 8.722921e-01 9.189433e-01 9.232898e-01 9.730465e-01 9.762193e-01 1.030222e+00 1.031298e+00 1.089744e+00 1.088322e+00 1.152557e+00 1.150242e+00 1.219123e+00 1.220276e+00 2.233177e-01 1.886375e-01 -7.782329e-01 -8.260015e-01 -1.789861e+00 -1.824316e+00 -2.810291e+00 -2.808099e+00 -2.740735e+00 -2.732393e+00 -2.666013e+00 -2.653619e+00 -2.591819e+00 -2.578885e+00 -2.523097e+00 -2.510470e+00 -2.459336e+00 -2.445657e+00 -2.395880e+00 -2.377773e+00 -2.325608e+00 -2.301456e+00 -2.248056e+00 -2.219742e+00 -2.166380e+00 -2.136654e+00 -2.084921e+00 -2.055947e+00 -2.006891e+00 -1.980363e+00 -1.932737e+00 -1.908148e+00 -1.861534e+00 -1.839179e+00 -1.794202e+00 -1.774794e+00 -1.730779e+00 -1.713741e+00 -1.669457e+00 -1.651483e+00 -1.602755e+00 -1.579095e+00 -1.522417e+00 -1.491791e+00 -1.427215e+00 -1.392553e+00 -1.323977e+00 -1.289053e+00 -1.224827e+00 -1.189559e+00 -1.127897e+00 -1.095912e+00 -1.038492e+00 -1.011916e+00 -9.624793e-01 -9.443539e-01 -9.025225e-01 -8.904668e-01 -8.480707e-01 -8.380557e-01 -7.964790e-01 -7.838864e-01 -7.368459e-01 -7.187078e-01 -6.664867e-01 -6.465743e-01 -5.926087e-01 -5.723006e-01 -5.170211e-01 -4.949007e-01 -4.393351e-01 -4.163630e-01 -3.632367e-01 -3.420435e-01 -2.928331e-01 -2.739832e-01 -2.290868e-01 -2.131237e-01 -1.707830e-01 -1.574912e-01 -1.152236e-01 -1.009472e-01 -5.443070e-02 -3.511629e-02 1.561974e-02 3.697957e-02 8.909018e-02 1.098167e-01 1.626163e-01 1.805823e-01 2.307683e-01 2.428338e-01 2.897232e-01 2.961745e-01 3.419319e-01 3.457277e-01 3.925298e-01 3.945444e-01 4.415580e-01 4.425563e-01 4.904917e-01 4.912070e-01 5.403592e-01 5.421767e-01 5.917345e-01 5.957430e-01 6.446425e-01 6.530178e-01 7.012799e-01 7.126986e-01 7.587110e-01 7.688712e-01 8.136385e-01 8.215100e-01 
1.028102e+00 1.026198e+00 1.082445e+00 1.078586e+00 1.138755e+00 1.133856e+00 1.198689e+00 1.193079e+00 1.258441e+00 1.246365e+00 1.319764e+00 1.302793e+00 1.383526e+00 1.362407e+00 3.669759e-01 2.541153e-01 -6.801199e-01 -8.287994e-01 -1.765520e+00 -1.882468e+00 -2.886318e+00 -2.901820e+00 -2.830770e+00 -2.818018e+00 -2.746308e+00 -2.718809e+00 -2.651853e+00 -2.622651e+00 -2.568448e+00 -2.547049e+00 -2.505743e+00 -2.489093e+00 -2.452692e+00 -2.430890e+00 -2.385367e+00 -2.350568e+00 -2.296806e+00 -2.252285e+00 -2.196415e+00 -2.152371e+00 -2.101056e+00 -2.065595e+00 -2.024566e+00 -1.997235e+00 -1.958910e+00 -1.931039e+00 -1.886729e+00 -1.854065e+00 -1.808047e+00 -1.778413e+00 -1.737472e+00 -1.718450e+00 -1.684774e+00 -1.671377e+00 -1.633819e+00 -1.610719e+00 -1.556453e+00 -1.516190e+00 -1.443026e+00 -1.390362e+00 -1.311337e+00 -1.261686e+00 -1.191419e+00 -1.147999e+00 -1.082348e+00 -1.041344e+00 -9.789259e-01 -9.444627e-01 -8.912671e-01 -8.696588e-01 -8.285824e-01 -8.180728e-01 -7.824704e-01 -7.760565e-01 -7.397052e-01 -7.269103e-01 -6.801127e-01 -6.593566e-01 -6.069452e-01 -5.880626e-01 -5.365566e-01 -5.199920e-01 -4.653503e-01 -4.434216e-01 -3.842956e-01 -3.597043e-01 -3.027601e-01 -2.816380e-01 -2.297753e-01 -2.090907e-01 -1.607757e-01 -1.432864e-01 -9.543642e-02 -8.141022e-02 -3.484082e-02 -2.035932e-02 3.208789e-02 5.328564e-02 1.116742e-01 1.354306e-01 1.953616e-01 2.190806e-01 2.803540e-01 2.986892e-01 3.530754e-01 3.611790e-01 4.096059e-01 4.105248e-01 4.594366e-01 4.607956e-01 5.149602e-01 5.143734e-01 5.671255e-01 5.643648e-01 6.190970e-01 6.178933e-01 6.756568e-01 6.743343e-01 7.314245e-01 7.297029e-01 7.881319e-01 7.921644e-01 8.540078e-01 8.613086e-01 9.162538e-01 9.204914e-01 9.735048e-01 9.743706e-01 
8.726802e-01 8.748870e-01 9.159324e-01 9.179940e-01 9.633173e-01 9.689003e-01 1.022220e+00 1.023071e+00 1.076097e+00 1.066774e+00 1.135029e+00 1.113824e+00 1.193936e+00 1.151399e+00 2.357930e-01 1.057182e-01 -7.536940e-01 -9.158067e-01 -1.776670e+00 -1.917515e+00 -2.829599e+00 -2.867579e+00 -2.781815e+00 -2.766663e+00 -2.673793e+00 -2.644495e+00 -2.567830e+00 -2.550206e+00 -2.498367e+00 -2.492217e+00 -2.454225e+00 -2.454386e+00 -2.419064e+00 -2.404768e+00 -2.345513e+00 -2.309886e+00 -2.245936e+00 -2.202769e+00 -2.140632e+00 -2.100435e+00 -2.044436e+00 -2.013648e+00 -1.973124e+00 -1.954665e+00 -1.914367e+00 -1.894080e+00 -1.847627e+00 -1.825951e+00 -1.786559e+00 -1.773043e+00 -1.741114e+00 -1.745147e+00 -1.728380e+00 -1.739526e+00 -1.712941e+00 -1.700295e+00 -1.642827e+00 -1.600525e+00 -1.507227e+00 -1.441104e+00 -1.340060e+00 -1.281726e+00 -1.201283e+00 -1.150776e+00 -1.072246e+00 -1.019047e+00 -9.448944e-01 -9.105714e-01 -8.602280e-01 -8.519461e-01 -8.219152e-01 -8.228757e-01 -7.973383e-01 -8.133448e-01 -8.039319e-01 -8.084293e-01 -7.682895e-01 -7.421191e-01 -6.838223e-01 -6.652899e-01 -6.167948e-01 -6.069191e-01 -5.490578e-01 -5.209972e-01 -4.519183e-01 -4.194907e-01 -3.610868e-01 -3.379147e-01 -2.880581e-01 -2.626024e-01 -2.193793e-01 -2.049169e-01 -1.691361e-01 -1.685674e-01 -1.443698e-01 -1.448376e-01 -9.781873e-02 -6.692122e-02 -5.570939e-03 2.696420e-02 8.057468e-02 1.135385e-01 1.807788e-01 2.125274e-01 2.650555e-01 2.743306e-01 3.158109e-01 3.147259e-01 3.581557e-01 3.647534e-01 4.224737e-01 4.256158e-01 4.758202e-01 4.747288e-01 5.222172e-01 5.172078e-01 5.642460e-01 5.616698e-01 6.087660e-01 6.035739e-01 6.482718e-01 6.588999e-01 7.122571e-01 7.372328e-01 7.785488e-01 7.900501e-01 8.287364e-01 8.337771e-01 
1.035652e+00 1.028779e+00 1.076815e+00 1.067684e+00 1.123165e+00 1.112670e+00 1.191712e+00 1.210882e+00 1.239471e+00 1.217149e+00 1.287351e+00 1.260745e+00 1.351638e+00 1.248050e+00 5.121972e-01 1.257103e-01 -4.636836e-01 -9.517999e-01 -1.538040e+00 -1.992780e+00 -2.846893e+00 -2.912206e+00 -2.866835e+00 -2.806958e+00 -2.708100e+00 -2.620952e+00 -2.510697e+00 -2.429336e+00 -2.369891e+00 -2.360049e+00 -2.358287e+00 -2.386258e+00 -2.416794e+00 -2.433019e+00 -2.392063e+00 -2.343319e+00 -2.258651e+00 -2.161927e+00 -2.071552e+00 -1.985843e+00 -1.908882e+00 -1.879702e+00 -1.875179e+00 -1.892246e+00 -1.900094e+00 -1.898204e+00 -1.838899e+00 -1.772936e+00 -1.694778e+00 -1.632764e+00 -1.588991e+00 -1.598406e+00 -1.622367e+00 -1.685117e+00 -1.712675e+00 -1.730639e+00 -1.686426e+00 -1.621837e+00 -1.485255e+00 -1.356800e+00 -1.211191e+00 -1.135149e+00 -1.068852e+00 -1.037459e+00 -9.745865e-01 -9.145772e-01 -8.233280e-01 -7.587260e-01 -6.858122e-01 -6.669527e-01 -6.491667e-01 -6.767109e-01 -6.840757e-01 -7.255006e-01 -7.293111e-01 -7.226246e-01 -6.619062e-01 -6.102279e-01 -5.412504e-01 -5.273971e-01 -4.963294e-01 -5.147073e-01 -4.698840e-01 -4.415646e-01 -3.580948e-01 -3.103114e-01 -2.406140e-01 -2.321516e-01 -1.897538e-01 -1.589429e-01 -1.251175e-01 -1.075098e-01 -5.467186e-02 -5.368743e-02 -3.097221e-02 -3.588256e-02 1.464887e-02 4.806827e-02 1.218545e-01 1.591317e-01 2.268686e-01 2.778965e-01 3.713748e-01 4.069167e-01 4.554952e-01 4.503390e-01 4.701737e-01 4.394102e-01 4.686389e-01 4.786373e-01 5.590147e-01 5.592033e-01 5.965253e-01 5.752813e-01 6.244629e-01 6.331615e-01 7.065548e-01 7.047516e-01 7.484982e-01 7.213833e-01 7.716052e-01 7.853974e-01 8.908100e-01 9.182419e-01 9.507077e-01 9.561258e-01 9.951075e-01 9.922872e-01 
8.815850e-01 8.693924e-01 8.963315e-01 8.815814e-01 9.094609e-01 8.871543e-01 9.294128e-01 9.789374e-01 9.264741e-01 9.326028e-01 9.106006e-01 9.421940e-01 9.294194e-01 8.961657e-01 6.731170e-01 5.506086e-01 3.794356e-01 2.404865e-01 5.007804e-02 -1.329847e-01 -3.996881e-01 -5.045568e-01 -5.386978e-01 -5.191655e-01 -4.793508e-01 -4.117752e-01 -3.082039e-01 -2.068544e-01 -1.420609e-01 -1.474337e-01 -1.727203e-01 -2.401519e-01 -3.267626e-01 -4.087149e-01 -4.249310e-01 -4.285259e-01 -3.587937e-01 -2.760395e-01 -1.808204e-01 -1.070865e-01 -2.726361e-02 -4.254386e-02 -6.402024e-02 -1.380025e-01 -1.849237e-01 -2.236236e-01 -1.563280e-01 -6.984307e-02 5.946106e-02 1.621997e-01 2.404671e-01 2.476549e-01 2.311654e-01 1.492354e-01 9.588560e-02 3.419919e-02 4.059203e-02 6.706047e-02 1.602002e-01 2.495657e-01 3.435875e-01 3.594397e-01 3.609217e-01 3.099642e-01 3.011122e-01 2.898815e-01 3.410663e-01 3.902499e-01 4.696507e-01 5.002224e-01 5.243999e-01 4.838360e-01 4.662885e-01 4.415617e-01 4.803175e-01 5.157044e-01 5.875386e-01 6.179855e-01 6.518653e-01 6.317235e-01 6.215757e-01 5.646494e-01 5.515826e-01 5.287843e-01 5.559388e-01 5.600458e-01 5.936094e-01 5.564743e-01 5.618210e-01 5.600783e-01 5.682741e-01 5.778672e-01 6.439121e-01 6.651962e-01 7.134208e-01 7.285856e-01 7.617526e-01 7.560846e-01 7.916155e-01 7.899101e-01 8.366914e-01 8.546126e-01 8.986501e-01 8.805351e-01 8.714460e-01 8.306931e-01 7.889846e-01 7.241291e-01 6.923088e-01 6.777644e-01 7.006036e-01 6.808604e-01 6.545669e-01 6.126456e-01 6.237112e-01 6.522945e-01 7.169051e-01 7.222026e-01 7.392833e-01 7.081428e-01 7.496909e-01 7.494546e-01 8.650227e-01 8.507688e-01 8.623658e-01 8.476800e-01 8.687440e-01 8.564140e-01 
1.040590e+00 1.021584e+00 1.050331e+00 1.032816e+00 1.055160e+00 1.036010e+00 1.050218e+00 1.077847e+00 1.039914e+00 1.059877e+00 1.020571e+00 1.063813e+00 1.028043e+00 1.065291e+00 9.766952e-01 9.966636e-01 9.269352e-01 9.400914e-01 8.622198e-01 8.540158e-01 7.367443e-01 7.210511e-01 6.618741e-01 6.706262e-01 6.448089e-01 6.822906e-01 7.091067e-01 7.784986e-01 8.048311e-01 8.210756e-01 8.016890e-01 7.804302e-01 7.276771e-01 6.829490e-01 6.482773e-01 6.321227e-01 6.523279e-01 6.841647e-01 7.297454e-01 7.600677e-01 7.997334e-01 7.848283e-01 7.808404e-01 7.415701e-01 7.241195e-01 7.064759e-01 7.494825e-01 8.052160e-01 8.959873e-01 9.703249e-01 1.039050e+00 1.072720e+00 1.099446e+00 1.084583e+00 1.078586e+00 1.050208e+00 1.052075e+00 1.050830e+00 1.073261e+00 1.088029e+00 1.108364e+00 1.092719e+00 1.083940e+00 1.035087e+00 1.016115e+00 9.798251e-01 9.936990e-01 1.008136e+00 1.060470e+00 1.088516e+00 1.128106e+00 1.121209e+00 1.138613e+00 1.152128e+00 1.216275e+00 1.248640e+00 1.296644e+00 1.290956e+00 1.297376e+00 1.268891e+00 1.259810e+00 1.217425e+00 1.196122e+00 1.150866e+00 1.141233e+00 1.107710e+00 1.116744e+00 1.075885e+00 1.081693e+00 1.058700e+00 1.075126e+00 1.074863e+00 1.131833e+00 1.154215e+00 1.218546e+00 1.239085e+00 1.269325e+00 1.242051e+00 1.257141e+00 1.228675e+00 1.256608e+00 1.233229e+00 1.236430e+00 1.187227e+00 1.169901e+00 1.124143e+00 1.093475e+00 1.041892e+00 1.014278e+00 9.798526e-01 9.681254e-01 9.375495e-01 9.167956e-01 8.834135e-01 8.918678e-01 9.013260e-01 9.448316e-01 9.407883e-01 9.669999e-01 9.461659e-01 9.934499e-01 9.691923e-01 1.044951e+00 9.980068e-01 1.030827e+00 9.990343e-01 1.032010e+00 1.008744e+00 
8.827725e-01 8.670108e-01 8.831340e-01 8.718843e-01 8.806474e-01 8.749803e-01 8.713983e-01 8.844721e-01 8.598934e-01 8.768742e-01 8.436558e-01 8.659968e-01 8.338416e-01 8.535109e-01 8.341319e-01 8.500640e-01 8.374965e-01 8.466744e-01 8.358670e-01 8.338177e-01 8.195711e-01 8.050852e-01 7.845135e-01 7.745902e-01 7.676148e-01 7.736500e-01 7.860382e-01 8.042311e-01 8.193679e-01 8.210978e-01 8.202486e-01 8.064696e-01 7.949661e-01 7.697935e-01 7.619657e-01 7.436307e-01 7.564788e-01 7.535251e-01 7.821718e-01 7.790438e-01 8.056793e-01 7.895298e-01 8.028190e-01 7.792939e-01 7.899232e-01 7.784539e-01 8.096160e-01 8.278130e-01 8.804689e-01 9.092680e-01 9.595792e-01 9.774428e-01 1.013243e+00 1.011058e+00 1.028320e+00 1.013609e+00 1.026320e+00 1.016957e+00 1.034432e+00 1.030866e+00 1.050620e+00 1.039518e+00 1.052887e+00 1.029033e+00 1.035780e+00 1.011308e+00 1.025220e+00 1.022018e+00 1.056257e+00 1.064902e+00 1.100564e+00 1.103346e+00 1.133763e+00 1.138696e+00 1.177672e+00 1.181757e+00 1.206421e+00 1.190926e+00 1.196406e+00 1.170924e+00 1.167157e+00 1.133831e+00 1.124113e+00 1.086559e+00 1.081416e+00 1.047048e+00 1.052720e+00 1.021801e+00 1.034799e+00 1.014147e+00 1.034912e+00 1.029076e+00 1.063562e+00 1.068307e+00 1.108959e+00 1.113163e+00 1.136272e+00 1.116680e+00 1.128518e+00 1.103780e+00 1.115496e+00 1.089774e+00 1.085952e+00 1.049038e+00 1.036880e+00 1.000380e+00 9.801335e-01 9.439872e-01 9.253168e-01 8.966686e-01 8.836536e-01 8.600134e-01 8.527032e-01 8.329809e-01 8.380900e-01 8.320862e-01 8.505315e-01 8.420767e-01 8.624314e-01 8.465463e-01 8.780808e-01 8.524703e-01 8.918936e-01 8.564800e-01 8.856616e-01 8.583910e-01 8.828070e-01 8.620055e-01 
