# vtk DataFile Version 2.0
Comment goes here
ASCII

DATASET STRUCTURED_POINTS
FIELD FieldData 1
TIME 1 1 double
0.12000000
DIMENSIONS    128   16   1

ORIGIN    0.000   0.000   0.000
SPACING   0.0078125 0.015625   1.000

POINT_DATA   2048
SCALARS P double
LOOKUP_TABLE default

-5.027516e-01 -4.908694e-01 -5.049649e-01 -4.944980e-01 -5.073019e-01 -4.987698e-01 -5.109670e-01 -5.080127e-01 -5.076257e-01 -5.132097e-01 -5.024782e-01 -5.140573e-01 -4.931328e-01 -5.079566e-01 -4.762902e-01 -4.889810e-01 -4.546381e-01 -4.675984e-01 -4.314645e-01 -4.462322e-01 -4.092281e-01 -4.236164e-01 -3.968193e-01 -4.115280e-01 -3.935930e-01 -4.092820e-01 -3.983786e-01 -4.134290e-01 -4.058393e-01 -4.198451e-01 -4.149777e-01 -4.273700e-01 -4.249583e-01 -4.327953e-01 -4.305422e-01 -4.331446e-01 -4.305956e-01 -4.263962e-01 -4.222688e-01 -4.115682e-01 -4.072276e-01 -3.954311e-01 -3.937580e-01 -3.819909e-01 -3.842809e-01 -3.751775e-01 -3.804356e-01 -3.709764e-01 -3.743290e-01 -3.603337e-01 -3.592674e-01 -3.452033e-01 -3.464054e-01 -3.373837e-01 -3.403052e-01 -3.324961e-01 -3.334275e-01 -3.233351e-01 -3.238311e-01 -3.156012e-01 -3.094200e-01 -3.076062e-01 -3.035925e-01 -2.971847e-01 -3.007509e-01 -2.898059e-01 -2.931645e-01 -2.908204e-01 -2.908425e-01 -2.962259e-01 -3.023458e-01 -3.032017e-01 -3.072276e-01 -3.089731e-01 -3.154328e-01 -3.140038e-01 -3.211021e-01 -3.181045e-01 -3.271059e-01 -3.216954e-01 -3.332942e-01 -3.292325e-01 -3.457794e-01 -3.421796e-01 -3.614987e-01 -3.607985e-01 -3.846974e-01 -3.854514e-01 -4.075136e-01 -4.073500e-01 -4.269882e-01 -4.253162e-01 -4.358314e-01 -4.288188e-01 -4.327192e-01 -4.291202e-01 -4.341560e-01 -4.378056e-01 -4.437194e-01 -4.489788e-01 -4.483783e-01 -4.503278e-01 -4.443461e-01 -4.458552e-01 -4.399010e-01 -4.427523e-01 -4.392149e-01 -4.433233e-01 -4.473877e-01 -4.530933e-01 -4.631480e-01 -4.637276e-01 -4.761297e-01 -4.652161e-01 -4.795330e-01 -4.638428e-01 -4.858679e-01 -4.654375e-01 -4.923131e-01 -4.666756e-01 -4.955207e-01 -4.678720e-01 -4.987694e-01 -4.769464e-01 -4.997551e-01 -4.824374e-01 -5.008790e-01 -4.868884e-01 
-4.177411e-01 -4.092103e-01 -4.174414e-01 -4.095994e-01 -4.180915e-01 -4.103881e-01 -4.218598e-01 -4.226846e-01 -4.209520e-01 -4.315712e-01 -4.221604e-01 -4.378718e-01 -4.220045e-01 -4.433633e-01 -4.269055e-01 -4.499893e-01 -4.324893e-01 -4.550450e-01 -4.380774e-01 -4.580378e-01 -4.397381e-01 -4.544101e-01 -4.371778e-01 -4.495360e-01 -4.397044e-01 -4.508286e-01 -4.460055e-01 -4.528373e-01 -4.490952e-01 -4.562457e-01 -4.535570e-01 -4.587193e-01 -4.591012e-01 -4.596982e-01 -4.629696e-01 -4.630675e-01 -4.688065e-01 -4.621298e-01 -4.656747e-01 -4.513461e-01 -4.539836e-01 -4.392287e-01 -4.371643e-01 -4.111317e-01 -4.066051e-01 -3.868363e-01 -3.943467e-01 -3.844057e-01 -3.956165e-01 -3.788824e-01 -3.793855e-01 -3.598647e-01 -3.634267e-01 -3.514484e-01 -3.532967e-01 -3.351312e-01 -3.267211e-01 -3.018621e-01 -2.980381e-01 -2.902033e-01 -2.928736e-01 -2.992832e-01 -3.050363e-01 -2.997574e-01 -3.087308e-01 -2.922328e-01 -2.937270e-01 -2.848280e-01 -2.816699e-01 -2.829168e-01 -2.846576e-01 -2.827089e-01 -2.884313e-01 -2.922771e-01 -3.005809e-01 -2.973281e-01 -3.021435e-01 -2.975640e-01 -3.047752e-01 -2.967384e-01 -3.069872e-01 -3.038196e-01 -3.228044e-01 -3.205119e-01 -3.411376e-01 -3.437728e-01 -3.701155e-01 -3.700590e-01 -3.864399e-01 -3.803545e-01 -3.944779e-01 -3.900997e-01 -3.961380e-01 -3.873117e-01 -3.882111e-01 -3.868514e-01 -3.926474e-01 -4.001487e-01 -4.044558e-01 -4.075058e-01 -3.974489e-01 -3.908042e-01 -3.759190e-01 -3.804179e-01 -3.797376e-01 -3.932067e-01 -3.901811e-01 -3.963978e-01 -3.945940e-01 -4.019288e-01 -4.101894e-01 -4.161642e-01 -4.233440e-01 -4.069342e-01 -4.104256e-01 -3.945760e-01 -4.138048e-01 -3.973869e-01 -4.218696e-01 -3.980585e-01 -4.212315e-01 -3.935476e-01 -4.236793e-01 -4.046065e-01 -4.207892e-01 -4.072646e-01 -4.187549e-01 -4.084941e-01 
-4.999753e-01 -4.890652e-01 -5.017645e-01 -4.898191e-01 -5.008768e-01 -4.849962e-01 -5.217959e-01 -5.165792e-01 -5.143844e-01 -5.306628e-01 -5.266548e-01 -5.428495e-01 -5.235053e-01 -5.512892e-01 -5.013135e-01 -5.080719e-01 -4.700591e-01 -4.825550e-01 -4.434444e-01 -4.592042e-01 -3.917812e-01 -4.049469e-01 -3.808268e-01 -4.024052e-01 -3.957009e-01 -4.163424e-01 -4.074255e-01 -4.112501e-01 -4.006742e-01 -4.186479e-01 -4.105359e-01 -4.234655e-01 -4.148407e-01 -4.141288e-01 -4.147379e-01 -4.320693e-01 -4.466783e-01 -4.537715e-01 -4.562449e-01 -4.388507e-01 -4.397798e-01 -4.398364e-01 -4.340468e-01 -3.967610e-01 -3.731253e-01 -3.473262e-01 -3.547678e-01 -3.634788e-01 -3.896233e-01 -3.782957e-01 -3.698392e-01 -3.487960e-01 -3.546273e-01 -3.568315e-01 -3.597260e-01 -3.423124e-01 -3.126724e-01 -2.721292e-01 -3.051572e-01 -2.966376e-01 -2.742982e-01 -3.356764e-01 -3.165631e-01 -3.126475e-01 -3.567747e-01 -2.879414e-01 -2.992470e-01 -2.828672e-01 -2.260219e-01 -2.750719e-01 -3.148649e-01 -2.956262e-01 -2.839387e-01 -3.065350e-01 -3.219423e-01 -3.112473e-01 -3.095756e-01 -3.145166e-01 -3.300109e-01 -3.164862e-01 -3.183933e-01 -3.181003e-01 -3.485326e-01 -3.447388e-01 -3.623917e-01 -3.734157e-01 -4.244755e-01 -4.333423e-01 -4.422213e-01 -4.200803e-01 -4.361454e-01 -4.335014e-01 -4.361210e-01 -4.165202e-01 -4.162364e-01 -4.187235e-01 -4.308846e-01 -4.456412e-01 -4.613814e-01 -4.672512e-01 -4.504189e-01 -4.249875e-01 -3.938942e-01 -3.981375e-01 -4.152536e-01 -4.499751e-01 -4.529745e-01 -4.574880e-01 -4.555753e-01 -4.644579e-01 -4.764807e-01 -4.971322e-01 -5.150373e-01 -4.780937e-01 -4.661756e-01 -4.462640e-01 -4.774269e-01 -4.589869e-01 -4.947720e-01 -4.700706e-01 -4.941722e-01 -4.459718e-01 -5.031813e-01 -4.847647e-01 -4.991523e-01 -4.838810e-01 -4.981377e-01 -4.862385e-01 
-4.126891e-01 -4.081683e-01 -4.107384e-01 -4.051380e-01 -4.026194e-01 -3.945512e-01 -4.603650e-01 -4.469382e-01 -4.383507e-01 -4.610384e-01 -4.734782e-01 -4.813324e-01 -4.671319e-01 -4.856464e-01 -3.842380e-01 -3.280803e-01 -2.526071e-01 -2.235636e-01 -1.381910e-01 -1.135829e-01 6.258790e-02 7.402876e-02 8.753688e-02 5.887289e-02 2.586679e-02 1.767946e-03 -4.738610e-03 1.458010e-02 1.128350e-02 -9.926801e-03 -2.465207e-02 -2.810251e-02 -2.015191e-02 1.206179e-02 3.580146e-03 -1.985013e-02 -6.239481e-02 -7.621877e-02 -7.673326e-02 -2.916853e-02 -2.300227e-02 -3.845746e-02 -5.938039e-02 -3.515001e-02 -2.175080e-02 9.959232e-03 5.994629e-03 -6.659304e-03 -4.034601e-02 -2.312840e-02 -7.296951e-04 2.895451e-02 2.236335e-02 1.429606e-02 7.172418e-04 1.322258e-02 4.084411e-02 9.983847e-02 -4.133286e-02 -4.355178e-02 8.498551e-02 -6.201824e-02 5.191250e-02 7.471699e-02 -7.624171e-02 1.140766e-01 1.173999e-02 3.815916e-02 1.649932e-01 2.680740e-03 -1.194125e-01 -6.055265e-02 5.970964e-03 -2.407696e-02 -3.733117e-02 -3.234401e-03 -3.142425e-04 -4.201611e-02 -1.004035e-01 -9.599934e-02 -8.107813e-02 -8.032135e-02 -1.118404e-01 -9.864451e-02 -8.944060e-02 -1.124539e-01 -2.043169e-01 -2.534612e-01 -2.571914e-01 -2.249766e-01 -2.431146e-01 -2.555083e-01 -2.502710e-01 -2.240627e-01 -2.248261e-01 -2.341352e-01 -2.366744e-01 -2.429146e-01 -2.721626e-01 -2.949590e-01 -3.011637e-01 -2.824568e-01 -2.522443e-01 -2.454112e-01 -2.698835e-01 -3.084984e-01 -3.159340e-01 -3.074904e-01 -3.124479e-01 -3.096185e-01 -3.031778e-01 -3.326856e-01 -3.819786e-01 -3.477472e-01 -3.302962e-01 -3.241491e-01 -3.595233e-01 -3.425002e-01 -3.731738e-01 -3.821717e-01 -3.948291e-01 -3.409813e-01 -4.162928e-01 -4.237078e-01 -4.167154e-01 -4.118903e-01 -4.132405e-01 -4.089333e-01 
-4.974876e-01 -4.957491e-01 -5.097159e-01 -5.085062e-01 -5.210314e-01 -5.233498e-01 -5.865437e-01 -5.699461e-01 -5.925160e-01 -5.952911e-01 -6.431565e-01 -6.323346e-01 -6.683234e-01 -6.595015e-01 -3.265198e-01 -9.648402e-02 8.534799e-02 2.730094e-01 5.366918e-01 6.444874e-01 1.102427e+00 1.106513e+00 1.090176e+00 1.056184e+00 1.005072e+00 9.770620e-01 9.544866e-01 9.599467e-01 9.386882e-01 9.164540e-01 8.841824e-01 8.805548e-01 8.753938e-01 9.003113e-01 8.863821e-01 8.692085e-01 8.320196e-01 8.157753e-01 8.154403e-01 8.448962e-01 8.516518e-01 8.285926e-01 7.915153e-01 7.662062e-01 7.463615e-01 7.475635e-01 7.497491e-01 7.451334e-01 7.375568e-01 7.438098e-01 7.590683e-01 7.682763e-01 7.677820e-01 7.627059e-01 7.494670e-01 7.445656e-01 7.383326e-01 7.615471e-01 6.413289e-01 6.159109e-01 7.281410e-01 6.268654e-01 7.190474e-01 7.249042e-01 5.836117e-01 6.962420e-01 5.669254e-01 5.634857e-01 6.112399e-01 4.824234e-01 3.947486e-01 4.340504e-01 4.786617e-01 4.668849e-01 4.546640e-01 4.738857e-01 4.545250e-01 3.997860e-01 3.259520e-01 3.025568e-01 3.000291e-01 2.919716e-01 2.708978e-01 2.723122e-01 2.797516e-01 2.538148e-01 1.794241e-01 1.177197e-01 9.501913e-02 9.428795e-02 6.852995e-02 4.356631e-02 3.206640e-02 3.317564e-02 1.242417e-02 2.753753e-04 -5.859721e-03 1.422535e-03 -3.388316e-02 -5.935835e-02 -1.103008e-01 -1.259769e-01 -1.499835e-01 -1.373725e-01 -1.623298e-01 -1.627788e-01 -1.884651e-01 -1.713325e-01 -2.031166e-01 -1.854044e-01 -1.873953e-01 -1.911119e-01 -2.578110e-01 -2.593732e-01 -2.878331e-01 -2.972226e-01 -3.336091e-01 -3.259698e-01 -3.525150e-01 -3.838529e-01 -4.059843e-01 -3.911559e-01 -4.436293e-01 -4.639759e-01 -4.695540e-01 -4.727259e-01 -4.841901e-01 -4.837910e-01 
-4.143650e-01 -4.177261e-01 -4.310884e-01 -4.351315e-01 -4.511033e-01 -4.582859e-01 -4.832524e-01 -4.813722e-01 -5.056211e-01 -5.046149e-01 -5.340070e-01 -5.308454e-01 -5.582736e-01 -5.527535e-01 -1.815848e-01 -1.321118e-01 2.154875e-01 2.694083e-01 6.248465e-01 6.696451e-01 1.055777e+00 1.077755e+00 1.037778e+00 1.038699e+00 9.960038e-01 9.939445e-01 9.616469e-01 9.637517e-01 9.332144e-01 9.320055e-01 9.003465e-01 9.051137e-01 8.835636e-01 8.939959e-01 8.730658e-01 8.760912e-01 8.532070e-01 8.537206e-01 8.408490e-01 8.489016e-01 8.394952e-01 8.366044e-01 8.101896e-01 7.920147e-01 7.653684e-01 7.611885e-01 7.551668e-01 7.626970e-01 7.619865e-01 7.659549e-01 7.607233e-01 7.614753e-01 7.559405e-01 7.588396e-01 7.461367e-01 7.394184e-01 7.140759e-01 7.023338e-01 6.700448e-01 6.570801e-01 6.591815e-01 6.606301e-01 6.584963e-01 6.516417e-01 6.143521e-01 6.008267e-01 5.553008e-01 5.441264e-01 5.099824e-01 4.996113e-01 4.883500e-01 4.963426e-01 4.862553e-01 4.896546e-01 4.747799e-01 4.721074e-01 4.452449e-01 4.206908e-01 3.805751e-01 3.582322e-01 3.372088e-01 3.258863e-01 3.103343e-01 2.995229e-01 2.857670e-01 2.683081e-01 2.378814e-01 2.070054e-01 1.788931e-01 1.591958e-01 1.369631e-01 1.199744e-01 1.002709e-01 8.700666e-02 6.451876e-02 5.578065e-02 4.215908e-02 4.392051e-02 2.055455e-02 8.321224e-03 -3.243024e-02 -5.166355e-02 -8.771735e-02 -8.451009e-02 -1.023239e-01 -9.082721e-02 -1.152300e-01 -1.082923e-01 -1.372605e-01 -1.278834e-01 -1.437001e-01 -1.367070e-01 -1.741725e-01 -1.877797e-01 -2.252700e-01 -2.341124e-01 -2.581693e-01 -2.611446e-01 -2.806203e-01 -2.985577e-01 -3.211960e-01 -3.325644e-01 -3.507581e-01 -3.629257e-01 -3.779574e-01 -3.847743e-01 -3.976072e-01 -4.018608e-01 
-5.005965e-01 -5.009059e-01 -5.238713e-01 -5.231087e-01 -5.493788e-01 -5.475811e-01 -5.803826e-01 -5.757215e-01 -6.082680e-01 -6.035894e-01 -6.385314e-01 -6.318762e-01 -6.664516e-01 -6.579598e-01 -2.465621e-01 -1.941583e-01 1.887894e-01 2.466758e-01 6.409125e-01 6.784920e-01 1.107782e+00 1.112007e+00 1.084445e+00 1.078368e+00 1.048988e+00 1.040308e+00 1.014139e+00 1.007520e+00 9.832327e-01 9.758381e-01 9.527221e-01 9.481993e-01 9.289702e-01 9.271878e-01 9.085982e-01 9.034360e-01 8.845879e-01 8.789966e-01 8.646368e-01 8.616818e-01 8.488999e-01 8.411331e-01 8.250284e-01 8.155296e-01 8.016057e-01 7.954199e-01 7.862090e-01 7.816858e-01 7.739917e-01 7.703556e-01 7.638697e-01 7.595468e-01 7.505752e-01 7.435220e-01 7.301871e-01 7.192270e-01 7.009496e-01 6.841401e-01 6.631273e-01 6.514981e-01 6.338133e-01 6.287185e-01 6.117903e-01 6.019985e-01 5.794592e-01 5.661494e-01 5.431002e-01 5.358079e-01 5.104739e-01 5.046306e-01 4.874836e-01 4.854201e-01 4.682040e-01 4.616450e-01 4.418431e-01 4.330270e-01 4.089977e-01 3.914197e-01 3.622497e-01 3.449690e-01 3.216991e-01 3.064410e-01 2.839784e-01 2.686722e-01 2.464857e-01 2.271735e-01 1.978080e-01 1.750784e-01 1.483912e-01 1.312597e-01 1.062525e-01 9.071805e-02 6.739315e-02 5.572134e-02 3.180722e-02 2.191981e-02 -1.976613e-03 -8.958214e-03 -3.732924e-02 -4.584628e-02 -7.771811e-02 -8.400019e-02 -1.140505e-01 -1.144486e-01 -1.429416e-01 -1.409883e-01 -1.699054e-01 -1.658408e-01 -1.954011e-01 -1.913334e-01 -2.197135e-01 -2.186748e-01 -2.532667e-01 -2.553602e-01 -2.882987e-01 -2.920087e-01 -3.233496e-01 -3.272101e-01 -3.563963e-01 -3.637895e-01 -3.918257e-01 -3.963357e-01 -4.240922e-01 -4.298931e-01 -4.526090e-01 -4.563055e-01 -4.774428e-01 -4.792123e-01 
-4.166784e-01 -4.215986e-01 -4.390313e-01 -4.433938e-01 -4.625933e-01 -4.664898e-01 -4.880968e-01 -4.907766e-01 -5.137233e-01 -5.164963e-01 -5.402659e-01 -5.444603e-01 -5.675295e-01 -5.755806e-01 -1.671651e-01 -1.583180e-01 2.367812e-01 2.521362e-01 6.458257e-01 6.580859e-01 1.059956e+00 1.061469e+00 1.029888e+00 1.030491e+00 9.983393e-01 9.985941e-01 9.679853e-01 9.688062e-01 9.398359e-01 9.411268e-01 9.139753e-01 9.164116e-01 8.918649e-01 8.947792e-01 8.719037e-01 8.735692e-01 8.520371e-01 8.524893e-01 8.331167e-01 8.329864e-01 8.150839e-01 8.132272e-01 7.954277e-01 7.922790e-01 7.763546e-01 7.747311e-01 7.623099e-01 7.619612e-01 7.510574e-01 7.500949e-01 7.388266e-01 7.369271e-01 7.248517e-01 7.221073e-01 7.079455e-01 7.027611e-01 6.854314e-01 6.770655e-01 6.591526e-01 6.540270e-01 6.323668e-01 6.297878e-01 6.095307e-01 6.017713e-01 5.826318e-01 5.725206e-01 5.513382e-01 5.449473e-01 5.213821e-01 5.191740e-01 4.984908e-01 4.942667e-01 4.738576e-01 4.680283e-01 4.466876e-01 4.379160e-01 4.145271e-01 4.015977e-01 3.768402e-01 3.623145e-01 3.394786e-01 3.250022e-01 3.035836e-01 2.885851e-01 2.674888e-01 2.512330e-01 2.287243e-01 2.112041e-01 1.884866e-01 1.720789e-01 1.495545e-01 1.344467e-01 1.116405e-01 9.836765e-02 7.499198e-02 6.440100e-02 4.111668e-02 3.349115e-02 8.388331e-03 1.470191e-03 -2.625946e-02 -3.185175e-02 -5.978039e-02 -6.149472e-02 -8.802588e-02 -8.703920e-02 -1.137337e-01 -1.119653e-01 -1.386892e-01 -1.369421e-01 -1.629165e-01 -1.630983e-01 -1.908762e-01 -1.949948e-01 -2.226228e-01 -2.287576e-01 -2.540829e-01 -2.615494e-01 -2.846634e-01 -2.941613e-01 -3.155484e-01 -3.248683e-01 -3.441540e-01 -3.528184e-01 -3.704318e-01 -3.776342e-01 -3.942576e-01 -4.001189e-01 
-5.035022e-01 -5.042683e-01 -5.293943e-01 -5.289841e-01 -5.563546e-01 -5.547178e-01 -5.846675e-01 -5.816990e-01 -6.126712e-01 -6.093700e-01 -6.408093e-01 -6.383577e-01 -6.693130e-01 -6.702776e-01 -2.335003e-01 -2.129950e-01 2.075348e-01 2.334177e-01 6.564607e-01 6.712401e-01 1.111553e+00 1.104660e+00 1.080653e+00 1.073194e+00 1.048366e+00 1.040527e+00 1.015984e+00 1.008546e+00 9.849646e-01 9.783227e-01 9.562193e-01 9.506977e-01 9.301592e-01 9.250586e-01 9.055202e-01 8.997914e-01 8.810954e-01 8.746932e-01 8.572799e-01 8.506095e-01 8.348325e-01 8.281653e-01 8.142172e-01 8.082161e-01 7.963108e-01 7.909707e-01 7.803442e-01 7.746518e-01 7.639237e-01 7.572311e-01 7.459881e-01 7.387276e-01 7.271299e-01 7.196549e-01 7.071775e-01 6.986711e-01 6.840645e-01 6.731818e-01 6.569419e-01 6.495981e-01 6.262536e-01 6.224803e-01 6.006653e-01 5.900808e-01 5.768787e-01 5.618613e-01 5.470904e-01 5.390181e-01 5.163365e-01 5.125076e-01 4.907507e-01 4.824805e-01 4.600537e-01 4.501089e-01 4.273493e-01 4.159370e-01 3.925905e-01 3.791784e-01 3.552296e-01 3.405156e-01 3.167158e-01 3.010186e-01 2.771763e-01 2.609015e-01 2.372012e-01 2.206968e-01 1.967120e-01 1.803103e-01 1.561694e-01 1.403667e-01 1.154771e-01 1.003005e-01 7.446890e-02 6.068133e-02 3.413754e-02 2.274347e-02 -3.989387e-03 -1.242970e-02 -3.974711e-02 -4.574756e-02 -7.393445e-02 -7.763410e-02 -1.064331e-01 -1.080438e-01 -1.376049e-01 -1.378030e-01 -1.679902e-01 -1.671825e-01 -1.975817e-01 -1.963454e-01 -2.266983e-01 -2.261979e-01 -2.571886e-01 -2.583321e-01 -2.895654e-01 -2.927052e-01 -3.236761e-01 -3.282437e-01 -3.581696e-01 -3.632801e-01 -3.914444e-01 -3.960981e-01 -4.223862e-01 -4.266493e-01 -4.510145e-01 -4.542542e-01 -4.777381e-01 -4.797324e-01 
-4.192881e-01 -4.242269e-01 -4.422135e-01 -4.465536e-01 -4.664907e-01 -4.701531e-01 -4.925914e-01 -4.945271e-01 -5.182263e-01 -5.194985e-01 -5.438690e-01 -5.459057e-01 -5.701854e-01 -5.758354e-01 -1.670728e-01 -1.572897e-01 2.376838e-01 2.528816e-01 6.464601e-01 6.567906e-01 1.058774e+00 1.056655e+00 1.027602e+00 1.025754e+00 9.957949e-01 9.947597e-01 9.654870e-01 9.654192e-01 9.373018e-01 9.383912e-01 9.126049e-01 9.153792e-01 8.915709e-01 8.938739e-01 8.703637e-01 8.705275e-01 8.470821e-01 8.449513e-01 8.218347e-01 8.180966e-01 7.971658e-01 7.946060e-01 7.783333e-01 7.789424e-01 7.672271e-01 7.691616e-01 7.582837e-01 7.576092e-01 7.440399e-01 7.394403e-01 7.239046e-01 7.189830e-01 7.054848e-01 7.034771e-01 6.921971e-01 6.914868e-01 6.788613e-01 6.751711e-01 6.578512e-01 6.524971e-01 6.295691e-01 6.241905e-01 6.015292e-01 5.945923e-01 5.768498e-01 5.698164e-01 5.527753e-01 5.497804e-01 5.298477e-01 5.265159e-01 5.036153e-01 4.955331e-01 4.714304e-01 4.618928e-01 4.385409e-01 4.285370e-01 4.059070e-01 3.943613e-01 3.718028e-01 3.585132e-01 3.358782e-01 3.205345e-01 2.976292e-01 2.813873e-01 2.598892e-01 2.448658e-01 2.254595e-01 2.117887e-01 1.928576e-01 1.789900e-01 1.580733e-01 1.427079e-01 1.179489e-01 1.012783e-01 7.437197e-02 6.079318e-02 3.548631e-02 2.750494e-02 3.900361e-03 -1.766515e-04 -2.459552e-02 -2.675623e-02 -5.294472e-02 -5.487572e-02 -8.387807e-02 -8.572520e-02 -1.152463e-01 -1.154376e-01 -1.430307e-01 -1.412839e-01 -1.672033e-01 -1.665297e-01 -1.924336e-01 -1.947465e-01 -2.211277e-01 -2.272879e-01 -2.535201e-01 -2.626809e-01 -2.875056e-01 -2.973967e-01 -3.190680e-01 -3.282585e-01 -3.470337e-01 -3.554852e-01 -3.728268e-01 -3.799050e-01 -3.965750e-01 -4.024054e-01 
-5.059472e-01 -5.069516e-01 -5.307277e-01 -5.308826e-01 -5.580597e-01 -5.570053e-01 -5.902811e-01 -5.849997e-01 -6.166261e-01 -6.100325e-01 -6.418312e-01 -6.336736e-01 -6.667332e-01 -6.566661e-01 -2.413290e-01 -1.883520e-01 1.947180e-01 2.545205e-01 6.473410e-01 6.815985e-01 1.109740e+00 1.104961e+00 1.082027e+00 1.072662e+00 1.048009e+00 1.037941e+00 1.012334e+00 1.002521e+00 9.775897e-01 9.704027e-01 9.489708e-01 9.452474e-01 9.256632e-01 9.214392e-01 9.015846e-01 8.954700e-01 8.751657e-01 8.663302e-01 8.444502e-01 8.329783e-01 8.134367e-01 8.052182e-01 7.925710e-01 7.900878e-01 7.832569e-01 7.828170e-01 7.762962e-01 7.720256e-01 7.599168e-01 7.484394e-01 7.317986e-01 7.201876e-01 7.080640e-01 7.034330e-01 6.968056e-01 6.961059e-01 6.885806e-01 6.847153e-01 6.695228e-01 6.595389e-01 6.373625e-01 6.252227e-01 6.026332e-01 5.923789e-01 5.742073e-01 5.677630e-01 5.522583e-01 5.487604e-01 5.319512e-01 5.254526e-01 5.015973e-01 4.877339e-01 4.598882e-01 4.457854e-01 4.210680e-01 4.091900e-01 3.865903e-01 3.745529e-01 3.528207e-01 3.393982e-01 3.158361e-01 2.980774e-01 2.721172e-01 2.534808e-01 2.299734e-01 2.149467e-01 1.958300e-01 1.837700e-01 1.645468e-01 1.499644e-01 1.259658e-01 1.080937e-01 7.883668e-02 5.891647e-02 2.765001e-02 1.250879e-02 -1.547893e-02 -2.332175e-02 -4.844702e-02 -5.137406e-02 -7.690694e-02 -7.717519e-02 -1.041243e-01 -1.042401e-01 -1.354153e-01 -1.361364e-01 -1.692509e-01 -1.693893e-01 -2.016621e-01 -1.985984e-01 -2.281876e-01 -2.245933e-01 -2.535642e-01 -2.523469e-01 -2.838945e-01 -2.887383e-01 -3.224697e-01 -3.312796e-01 -3.648184e-01 -3.716418e-01 -4.004038e-01 -4.049414e-01 -4.299798e-01 -4.353128e-01 -4.571354e-01 -4.607959e-01 -4.819371e-01 -4.840591e-01 
-4.210725e-01 -4.248516e-01 -4.400644e-01 -4.447218e-01 -4.632666e-01 -4.709373e-01 -4.990885e-01 -4.959679e-01 -5.227658e-01 -5.168562e-01 -5.450029e-01 -5.337030e-01 -5.633161e-01 -5.459840e-01 -1.735570e-01 -1.227630e-01 2.225085e-01 2.786761e-01 6.329473e-01 6.716727e-01 1.053213e+00 1.061737e+00 1.027527e+00 1.021186e+00 9.871576e-01 9.842657e-01 9.544780e-01 9.527734e-01 9.208132e-01 9.195921e-01 8.965853e-01 9.083214e-01 8.919693e-01 9.003335e-01 8.771214e-01 8.764061e-01 8.499915e-01 8.425282e-01 8.082390e-01 7.897510e-01 7.559024e-01 7.446770e-01 7.303321e-01 7.420733e-01 7.494479e-01 7.706779e-01 7.754582e-01 7.797226e-01 7.605890e-01 7.379394e-01 7.021216e-01 6.812331e-01 6.655897e-01 6.707860e-01 6.766449e-01 6.975181e-01 7.058520e-01 7.149021e-01 6.968777e-01 6.802208e-01 6.436562e-01 6.236210e-01 5.919941e-01 5.818903e-01 5.614804e-01 5.616145e-01 5.515240e-01 5.637092e-01 5.584552e-01 5.606707e-01 5.323300e-01 5.108526e-01 4.720730e-01 4.546198e-01 4.293770e-01 4.224407e-01 4.031689e-01 3.938138e-01 3.740453e-01 3.632330e-01 3.415728e-01 3.207398e-01 2.896371e-01 2.636860e-01 2.390471e-01 2.247217e-01 2.148829e-01 2.112592e-01 2.059568e-01 1.998346e-01 1.879524e-01 1.715601e-01 1.380677e-01 1.004109e-01 5.498718e-02 2.839772e-02 6.567761e-04 -9.097760e-04 -1.294795e-02 -6.233251e-03 -2.351784e-02 -1.550194e-02 -3.577190e-02 -3.733758e-02 -7.798988e-02 -8.896001e-02 -1.310941e-01 -1.343765e-01 -1.618194e-01 -1.480291e-01 -1.672597e-01 -1.580768e-01 -1.801354e-01 -1.772012e-01 -2.048434e-01 -2.144133e-01 -2.465923e-01 -2.665276e-01 -3.000606e-01 -3.160642e-01 -3.370214e-01 -3.462451e-01 -3.587792e-01 -3.696191e-01 -3.835141e-01 -3.899401e-01 -4.030792e-01 -4.074157e-01 
-5.055901e-01 -5.057226e-01 -5.221518e-01 -5.243595e-01 -5.408105e-01 -5.493489e-01 -6.170802e-01 -5.981960e-01 -6.215268e-01 -6.129201e-01 -6.389132e-01 -6.279945e-01 -6.547838e-01 -6.286836e-01 -2.969142e-01 -7.425730e-02 9.936886e-02 3.163353e-01 5.697474e-01 6.722744e-01 1.099395e+00 1.086753e+00 1.062953e+00 1.039764e+00 1.015417e+00 9.986588e-01 9.643793e-01 9.411069e-01 9.060774e-01 8.973452e-01 8.836197e-01 8.936381e-01 8.804013e-01 8.803789e-01 8.622778e-01 8.603547e-01 8.439294e-01 8.330025e-01 7.939146e-01 7.588624e-01 7.226901e-01 7.078589e-01 7.019810e-01 7.147879e-01 7.283992e-01 7.495444e-01 7.656915e-01 7.753977e-01 7.603304e-01 7.231105e-01 6.731420e-01 6.346194e-01 6.187506e-01 6.275487e-01 6.480872e-01 6.771388e-01 6.969085e-01 7.087443e-01 6.941597e-01 6.716196e-01 6.308417e-01 5.980517e-01 5.574594e-01 5.404048e-01 5.253467e-01 5.317055e-01 5.304562e-01 5.503319e-01 5.568106e-01 5.624766e-01 5.270397e-01 4.841206e-01 4.272956e-01 4.010717e-01 3.780838e-01 3.732572e-01 3.552913e-01 3.504687e-01 3.429449e-01 3.425958e-01 3.204726e-01 2.879310e-01 2.435438e-01 2.088212e-01 1.795951e-01 1.693394e-01 1.713663e-01 1.839719e-01 1.852643e-01 1.719348e-01 1.453860e-01 1.171053e-01 7.400727e-02 2.924518e-02 -1.938725e-02 -4.326874e-02 -6.988897e-02 -7.149269e-02 -8.627763e-02 -8.002427e-02 -9.861138e-02 -8.870995e-02 -1.049083e-01 -9.978515e-02 -1.345662e-01 -1.349080e-01 -1.757513e-01 -1.860512e-01 -2.293705e-01 -2.202094e-01 -2.432128e-01 -2.257200e-01 -2.391175e-01 -2.210203e-01 -2.538781e-01 -2.682159e-01 -3.134602e-01 -3.472904e-01 -4.005731e-01 -4.074022e-01 -4.333518e-01 -4.244727e-01 -4.504076e-01 -4.658212e-01 -4.732925e-01 -4.765656e-01 -4.896247e-01 -4.901134e-01 
-4.193593e-01 -4.162082e-01 -4.218219e-01 -4.187517e-01 -4.206467e-01 -4.173859e-01 -4.869753e-01 -4.629469e-01 -4.526494e-01 -4.539970e-01 -4.384775e-01 -4.494005e-01 -4.315460e-01 -4.269073e-01 -3.226257e-01 -2.823543e-01 -2.129353e-01 -1.692494e-01 -7.969815e-02 -7.349961e-02 6.012181e-02 5.311630e-02 6.605379e-02 6.327333e-02 7.164863e-02 5.972857e-02 3.415695e-02 3.965586e-03 -1.677973e-02 -1.999994e-02 -2.576296e-02 -2.951231e-02 -5.051353e-02 -5.998220e-02 -6.696248e-02 -5.246033e-02 -4.560721e-02 -2.833539e-02 -3.784525e-02 -3.180013e-02 -3.372702e-02 -1.037662e-02 -9.154918e-03 -3.573040e-04 -2.285814e-02 -2.634666e-02 -3.542970e-02 -1.332417e-02 -1.060126e-02 1.065875e-03 -1.130524e-02 -8.488973e-03 -1.556714e-02 -1.055105e-03 -1.249434e-03 5.480097e-03 -3.733340e-03 3.175771e-03 3.976768e-03 1.864743e-02 2.029673e-02 2.220829e-02 8.137464e-03 8.540999e-03 1.040323e-02 2.441553e-02 2.233926e-02 2.495001e-02 1.825181e-02 1.837173e-02 -2.784671e-03 -2.756636e-02 -5.982033e-02 -6.853447e-02 -7.730275e-02 -7.596961e-02 -8.836797e-02 -7.856560e-02 -6.943817e-02 -5.058507e-02 -6.461635e-02 -7.939301e-02 -1.081775e-01 -1.142199e-01 -1.328191e-01 -1.272707e-01 -1.303029e-01 -1.159340e-01 -1.355042e-01 -1.652989e-01 -2.201305e-01 -2.506320e-01 -2.731290e-01 -2.689380e-01 -2.632005e-01 -2.487713e-01 -2.514771e-01 -2.649773e-01 -2.892396e-01 -3.078654e-01 -3.205285e-01 -3.312172e-01 -3.285246e-01 -3.156733e-01 -2.871234e-01 -2.561769e-01 -2.383973e-01 -2.496640e-01 -2.833164e-01 -3.099051e-01 -3.317732e-01 -3.279800e-01 -3.246162e-01 -3.028869e-01 -3.219179e-01 -3.270730e-01 -3.599109e-01 -3.720509e-01 -4.152285e-01 -3.874463e-01 -4.133589e-01 -3.753587e-01 -4.172373e-01 -4.190414e-01 -4.166787e-01 -4.122872e-01 -4.165902e-01 -4.130292e-01 
-5.041653e-01 -4.940413e-01 -5.077172e-01 -4.966394e-01 -5.084591e-01 -4.931046e-01 -5.286539e-01 -5.155846e-01 -5.082220e-01 -5.133919e-01 -4.957999e-01 -5.149889e-01 -4.949612e-01 -5.158995e-01 -4.684132e-01 -4.780754e-01 -4.435876e-01 -4.507113e-01 -4.143610e-01 -4.358835e-01 -3.872975e-01 -4.028364e-01 -3.776650e-01 -3.819691e-01 -3.595961e-01 -3.767442e-01 -3.786287e-01 -4.065443e-01 -4.042784e-01 -4.166066e-01 -4.160430e-01 -4.396729e-01 -4.526613e-01 -4.717656e-01 -4.684650e-01 -4.626089e-01 -4.480367e-01 -4.313409e-01 -4.151486e-01 -3.895211e-01 -3.683879e-01 -3.402373e-01 -3.374995e-01 -3.407160e-01 -3.729086e-01 -3.925796e-01 -4.151501e-01 -4.042427e-01 -3.948549e-01 -3.603225e-01 -3.398958e-01 -3.123687e-01 -3.111411e-01 -3.062202e-01 -3.240094e-01 -3.397831e-01 -3.650413e-01 -3.688206e-01 -3.618418e-01 -3.356867e-01 -3.102025e-01 -2.892541e-01 -2.787249e-01 -2.695537e-01 -2.637415e-01 -2.581576e-01 -2.660236e-01 -2.813979e-01 -3.005046e-01 -3.108740e-01 -3.161981e-01 -3.157369e-01 -3.172438e-01 -3.142890e-01 -3.190344e-01 -3.204863e-01 -3.313045e-01 -3.237451e-01 -3.234823e-01 -3.111286e-01 -3.230116e-01 -3.187252e-01 -3.300968e-01 -3.169367e-01 -3.306878e-01 -3.240412e-01 -3.464523e-01 -3.485821e-01 -3.861735e-01 -4.103461e-01 -4.603558e-01 -4.749877e-01 -4.833637e-01 -4.539194e-01 -4.310058e-01 -4.059831e-01 -4.049209e-01 -4.200192e-01 -4.456756e-01 -4.700118e-01 -4.811020e-01 -4.989592e-01 -4.964490e-01 -4.880930e-01 -4.495109e-01 -4.208413e-01 -3.900186e-01 -3.923609e-01 -4.088495e-01 -4.382738e-01 -4.609230e-01 -4.669078e-01 -4.755525e-01 -4.637852e-01 -4.811600e-01 -4.695494e-01 -4.938984e-01 -4.733263e-01 -5.028658e-01 -4.634581e-01 -4.967730e-01 -4.582399e-01 -5.035393e-01 -4.838324e-01 -4.998468e-01 -4.851417e-01 -5.006346e-01 -4.893652e-01 
-4.200029e-01 -4.116379e-01 -4.204928e-01 -4.126034e-01 -4.214502e-01 -4.128186e-01 -4.235351e-01 -4.207014e-01 -4.163483e-01 -4.226117e-01 -4.091144e-01 -4.238704e-01 -4.068223e-01 -4.264614e-01 -4.100558e-01 -4.332681e-01 -4.163443e-01 -4.393622e-01 -4.242757e-01 -4.466973e-01 -4.334501e-01 -4.487057e-01 -4.310230e-01 -4.393610e-01 -4.263053e-01 -4.380378e-01 -4.356853e-01 -4.490151e-01 -4.477820e-01 -4.556948e-01 -4.577545e-01 -4.681175e-01 -4.748503e-01 -4.797726e-01 -4.806648e-01 -4.739140e-01 -4.706058e-01 -4.558922e-01 -4.497142e-01 -4.275488e-01 -4.202101e-01 -3.978456e-01 -3.993699e-01 -3.886079e-01 -4.037640e-01 -3.996409e-01 -4.131036e-01 -3.987830e-01 -3.992049e-01 -3.729096e-01 -3.657036e-01 -3.416899e-01 -3.429246e-01 -3.310745e-01 -3.406322e-01 -3.371806e-01 -3.475406e-01 -3.391642e-01 -3.363119e-01 -3.181022e-01 -3.081253e-01 -2.930002e-01 -2.886889e-01 -2.787229e-01 -2.787535e-01 -2.719702e-01 -2.775441e-01 -2.803157e-01 -2.908528e-01 -2.936188e-01 -2.981780e-01 -2.947989e-01 -2.975059e-01 -2.945219e-01 -3.008393e-01 -2.988637e-01 -3.066819e-01 -3.002743e-01 -3.061253e-01 -2.982814e-01 -3.088841e-01 -3.023252e-01 -3.139431e-01 -3.055911e-01 -3.206562e-01 -3.170758e-01 -3.383928e-01 -3.405295e-01 -3.666749e-01 -3.746737e-01 -4.012013e-01 -4.047528e-01 -4.128403e-01 -3.995916e-01 -3.932722e-01 -3.836253e-01 -3.844892e-01 -3.916152e-01 -4.006162e-01 -4.120873e-01 -4.129486e-01 -4.210028e-01 -4.142121e-01 -4.127794e-01 -3.928908e-01 -3.853146e-01 -3.694886e-01 -3.719509e-01 -3.749251e-01 -3.877723e-01 -3.980821e-01 -4.015121e-01 -4.100583e-01 -4.029658e-01 -4.151866e-01 -4.029477e-01 -4.209108e-01 -4.017146e-01 -4.234621e-01 -3.971656e-01 -4.227866e-01 -3.971551e-01 -4.250190e-01 -4.059241e-01 -4.218183e-01 -4.083844e-01 -4.202560e-01 -4.101564e-01 
