# vtk DataFile Version 2.0
Comment goes here
ASCII

DATASET STRUCTURED_POINTS
FIELD FieldData 1
TIME 1 1 double
0.57000000
DIMENSIONS    128   16   1

ORIGIN    0.000   0.000   0.000
SPACING   0.0078125 0.015625   1.000

POINT_DATA   2048
SCALARS P double
LOOKUP_TABLE default

4.542709e-01 4.411629e-01 4.547511e-01 4.430116e-01 4.555282e-01 4.457048e-01 4.578948e-01 4.537118e-01 4.545937e-01 4.596056e-01 4.502344e-01 4.613007e-01 4.424646e-01 4.545448e-01 4.248410e-01 4.353916e-01 4.039344e-01 4.147897e-01 3.825370e-01 3.957557e-01 3.648524e-01 3.798104e-01 3.592596e-01 3.743369e-01 3.591443e-01 3.732856e-01 3.612685e-01 3.737988e-01 3.642723e-01 3.750258e-01 3.681443e-01 3.771384e-01 3.730743e-01 3.800279e-01 3.785048e-01 3.828773e-01 3.834374e-01 3.849886e-01 3.875159e-01 3.866579e-01 3.913957e-01 3.888701e-01 3.958739e-01 3.921215e-01 4.008047e-01 3.957987e-01 4.051915e-01 3.989750e-01 4.084228e-01 4.016039e-01 4.109703e-01 4.044285e-01 4.135642e-01 4.077106e-01 4.159562e-01 4.103416e-01 4.166004e-01 4.097946e-01 4.143715e-01 4.118430e-01 4.087560e-01 4.089646e-01 4.070423e-01 4.021292e-01 4.055668e-01 3.978436e-01 3.990762e-01 3.976325e-01 3.936055e-01 3.965293e-01 4.012218e-01 4.011826e-01 4.039731e-01 4.018383e-01 4.067444e-01 4.032704e-01 4.099453e-01 4.048867e-01 4.127918e-01 4.059113e-01 4.147867e-01 4.063267e-01 4.162635e-01 4.068555e-01 4.179048e-01 4.081565e-01 4.199266e-01 4.102063e-01 4.218679e-01 4.124562e-01 4.230832e-01 4.144564e-01 4.233976e-01 4.163508e-01 4.233482e-01 4.187271e-01 4.236599e-01 4.218317e-01 4.244601e-01 4.250957e-01 4.252891e-01 4.276886e-01 4.259333e-01 4.293718e-01 4.268877e-01 4.305026e-01 4.288380e-01 4.313396e-01 4.319646e-01 4.316985e-01 4.359298e-01 4.313069e-01 4.403323e-01 4.302399e-01 4.449343e-01 4.289468e-01 4.495209e-01 4.280330e-01 4.536865e-01 4.281060e-01 4.567394e-01 4.298586e-01 4.576071e-01 4.354937e-01 4.558598e-01 4.375705e-01 4.544650e-01 4.393079e-01 
3.748383e-01 3.642722e-01 3.735693e-01 3.633829e-01 3.728768e-01 3.621934e-01 3.741976e-01 3.704391e-01 3.699547e-01 3.768325e-01 3.677248e-01 3.813312e-01 3.677488e-01 3.839023e-01 3.701845e-01 3.894602e-01 3.755562e-01 3.946961e-01 3.825319e-01 3.993213e-01 3.900582e-01 4.026840e-01 3.943178e-01 4.044932e-01 3.970469e-01 4.051909e-01 3.988273e-01 4.051357e-01 4.003688e-01 4.051478e-01 4.026412e-01 4.059870e-01 4.059177e-01 4.073290e-01 4.092324e-01 4.080579e-01 4.116182e-01 4.078926e-01 4.133153e-01 4.075646e-01 4.150854e-01 4.078995e-01 4.175090e-01 4.092147e-01 4.202493e-01 4.106373e-01 4.220357e-01 4.111492e-01 4.224582e-01 4.111811e-01 4.225096e-01 4.117767e-01 4.227716e-01 4.125495e-01 4.219222e-01 4.110252e-01 4.167975e-01 4.028034e-01 4.052950e-01 4.000830e-01 3.953836e-01 3.948047e-01 3.950622e-01 3.889363e-01 3.972829e-01 3.888694e-01 3.929744e-01 3.920841e-01 3.873519e-01 3.871928e-01 3.875561e-01 3.833173e-01 3.870655e-01 3.835122e-01 3.899214e-01 3.856816e-01 3.929437e-01 3.863787e-01 3.932881e-01 3.842063e-01 3.912822e-01 3.810099e-01 3.895266e-01 3.794795e-01 3.898182e-01 3.801702e-01 3.910914e-01 3.811016e-01 3.910147e-01 3.806490e-01 3.889108e-01 3.792228e-01 3.858810e-01 3.782514e-01 3.834103e-01 3.788256e-01 3.822030e-01 3.806979e-01 3.814874e-01 3.822322e-01 3.799089e-01 3.822330e-01 3.775689e-01 3.812407e-01 3.758137e-01 3.801521e-01 3.755054e-01 3.791055e-01 3.765895e-01 3.775712e-01 3.783638e-01 3.749360e-01 3.802918e-01 3.713496e-01 3.824055e-01 3.675354e-01 3.846968e-01 3.641459e-01 3.867411e-01 3.617659e-01 3.878600e-01 3.612604e-01 3.867142e-01 3.660933e-01 3.806964e-01 3.653769e-01 3.769456e-01 3.647938e-01 
4.527428e-01 4.410137e-01 4.539554e-01 4.411097e-01 4.521252e-01 4.345973e-01 4.687799e-01 4.578355e-01 4.566396e-01 4.679902e-01 4.569083e-01 4.774926e-01 4.614366e-01 4.800597e-01 4.331308e-01 4.398093e-01 4.065763e-01 4.134958e-01 3.768618e-01 3.919865e-01 3.419661e-01 3.586265e-01 3.483032e-01 3.652823e-01 3.539049e-01 3.685725e-01 3.574289e-01 3.701870e-01 3.606756e-01 3.721230e-01 3.655123e-01 3.757505e-01 3.721790e-01 3.801273e-01 3.785832e-01 3.830406e-01 3.831594e-01 3.844197e-01 3.869148e-01 3.858442e-01 3.911604e-01 3.884314e-01 3.966305e-01 3.925403e-01 4.026655e-01 3.965609e-01 4.070228e-01 3.988938e-01 4.094623e-01 4.011014e-01 4.126521e-01 4.060522e-01 4.185691e-01 4.144520e-01 4.267201e-01 4.253983e-01 4.295383e-01 3.978701e-01 4.270885e-01 4.313331e-01 3.899791e-01 4.255537e-01 4.065973e-01 3.914904e-01 4.291233e-01 3.791995e-01 3.930888e-01 3.967509e-01 3.314350e-01 3.649944e-01 4.152357e-01 4.125668e-01 4.012152e-01 3.975615e-01 4.065000e-01 4.047171e-01 4.140899e-01 4.086377e-01 4.158108e-01 4.061494e-01 4.128104e-01 4.019227e-01 4.113720e-01 4.020856e-01 4.153740e-01 4.072940e-01 4.217229e-01 4.123095e-01 4.247786e-01 4.134580e-01 4.234936e-01 4.123078e-01 4.209026e-01 4.123945e-01 4.202222e-01 4.159292e-01 4.224733e-01 4.220645e-01 4.254629e-01 4.271766e-01 4.260425e-01 4.290704e-01 4.246515e-01 4.295229e-01 4.242641e-01 4.305625e-01 4.263399e-01 4.322780e-01 4.305023e-01 4.334583e-01 4.352774e-01 4.327401e-01 4.397633e-01 4.303751e-01 4.444369e-01 4.276417e-01 4.496614e-01 4.253338e-01 4.549939e-01 4.238328e-01 4.601434e-01 4.213166e-01 4.621735e-01 4.419877e-01 4.547807e-01 4.379580e-01 4.518297e-01 4.388920e-01 
3.711777e-01 3.654293e-01 3.708849e-01 3.642098e-01 3.642287e-01 3.546509e-01 4.215839e-01 4.000488e-01 4.005853e-01 4.114157e-01 4.065429e-01 4.220870e-01 4.121211e-01 4.055362e-01 2.997362e-01 2.520304e-01 1.826132e-01 1.390926e-01 5.286543e-02 4.135664e-02 -8.777712e-02 -8.999076e-02 -8.932716e-02 -8.348349e-02 -8.082503e-02 -7.613787e-02 -7.181169e-02 -6.823182e-02 -6.214737e-02 -5.951706e-02 -5.151834e-02 -4.974103e-02 -4.005726e-02 -3.937765e-02 -2.862312e-02 -2.929877e-02 -1.784349e-02 -1.964446e-02 -7.449421e-03 -1.001026e-02 2.910150e-03 -1.331597e-04 1.343257e-02 1.004830e-02 2.390867e-02 2.003214e-02 3.369317e-02 2.945836e-02 4.293253e-02 3.908081e-02 5.279803e-02 5.005963e-02 6.422977e-02 6.291517e-02 7.754419e-02 7.776684e-02 7.277487e-02 -2.977294e-02 4.344322e-02 7.521356e-02 -6.635601e-02 4.271261e-02 -2.350909e-02 -8.537440e-02 3.432837e-02 -1.381499e-01 -5.933487e-02 -5.054946e-02 -1.868882e-01 -2.846177e-02 1.550402e-01 1.791070e-01 1.436200e-01 1.391490e-01 1.504974e-01 1.489760e-01 1.607481e-01 1.579882e-01 1.689896e-01 1.649940e-01 1.757812e-01 1.716030e-01 1.833031e-01 1.798429e-01 1.927853e-01 1.898048e-01 2.029439e-01 1.995284e-01 2.116608e-01 2.076598e-01 2.185571e-01 2.147800e-01 2.247626e-01 2.222104e-01 2.314929e-01 2.308004e-01 2.392131e-01 2.403281e-01 2.473065e-01 2.496230e-01 2.548237e-01 2.579678e-01 2.620114e-01 2.659637e-01 2.699494e-01 2.742514e-01 2.791169e-01 2.827352e-01 2.892691e-01 2.908315e-01 2.997560e-01 2.979644e-01 3.101635e-01 3.042043e-01 3.205938e-01 3.100230e-01 3.311715e-01 3.157312e-01 3.419497e-01 3.211810e-01 3.540659e-01 3.186422e-01 3.632526e-01 3.702932e-01 3.708961e-01 3.644634e-01 3.700062e-01 3.642338e-01 
4.499184e-01 4.487783e-01 4.648843e-01 4.645698e-01 4.790056e-01 4.823007e-01 5.482693e-01 5.302227e-01 5.605382e-01 5.561134e-01 5.894713e-01 5.828348e-01 6.167892e-01 5.908842e-01 2.537284e-01 3.013468e-02 -1.477563e-01 -3.525601e-01 -5.909654e-01 -6.872230e-01 -1.107547e+00 -1.103423e+00 -1.086172e+00 -1.076944e+00 -1.057125e+00 -1.048930e+00 -1.026728e+00 -1.019573e+00 -9.960708e-01 -9.902754e-01 -9.668007e-01 -9.621343e-01 -9.391702e-01 -9.342366e-01 -9.113027e-01 -9.046090e-01 -8.819124e-01 -8.734543e-01 -8.521873e-01 -8.425425e-01 -8.235309e-01 -8.130927e-01 -7.967035e-01 -7.855662e-01 -7.711268e-01 -7.585075e-01 -7.446778e-01 -7.304070e-01 -7.171206e-01 -7.028617e-01 -6.910948e-01 -6.789595e-01 -6.688594e-01 -6.600652e-01 -6.507644e-01 -6.468967e-01 -6.525017e-01 -7.307539e-01 -6.767647e-01 -6.321911e-01 -7.300235e-01 -6.322509e-01 -6.666389e-01 -6.992946e-01 -5.859895e-01 -7.022815e-01 -5.992168e-01 -5.792190e-01 -6.236866e-01 -4.727248e-01 -3.279733e-01 -2.978763e-01 -3.130328e-01 -3.123551e-01 -2.978839e-01 -2.948424e-01 -2.783972e-01 -2.713690e-01 -2.514321e-01 -2.402080e-01 -2.188763e-01 -2.065808e-01 -1.873477e-01 -1.768799e-01 -1.609870e-01 -1.520067e-01 -1.371283e-01 -1.270655e-01 -1.105497e-01 -9.864080e-02 -8.034131e-02 -6.830280e-02 -4.941125e-02 -3.940699e-02 -2.069426e-02 -1.394371e-02 5.125555e-03 9.079245e-03 3.052919e-02 3.330057e-02 5.885502e-02 6.083829e-02 8.984688e-02 8.986585e-02 1.207350e-01 1.182919e-01 1.501219e-01 1.458444e-01 1.782178e-01 1.734546e-01 2.061894e-01 2.023004e-01 2.346529e-01 2.321689e-01 2.629254e-01 2.620015e-01 2.905107e-01 2.913165e-01 3.179249e-01 3.197748e-01 3.466427e-01 3.415798e-01 3.750029e-01 3.996157e-01 4.136049e-01 4.179644e-01 4.334760e-01 4.336274e-01 
3.721287e-01 3.746122e-01 3.912001e-01 3.942817e-01 4.137499e-01 4.196593e-01 4.486604e-01 4.460959e-01 4.751081e-01 4.708694e-01 5.008888e-01 4.948588e-01 5.246667e-01 5.156812e-01 1.333664e-01 8.751911e-02 -2.666767e-01 -3.169984e-01 -6.786729e-01 -7.083756e-01 -1.100581e+00 -1.103734e+00 -1.079566e+00 -1.079542e+00 -1.054592e+00 -1.053643e+00 -1.027347e+00 -1.026377e+00 -9.993632e-01 -9.989465e-01 -9.722109e-01 -9.722705e-01 -9.462096e-01 -9.456881e-01 -9.199820e-01 -9.177185e-01 -8.925551e-01 -8.885000e-01 -8.648033e-01 -8.593589e-01 -8.377669e-01 -8.312183e-01 -8.119842e-01 -8.043882e-01 -7.869451e-01 -7.777214e-01 -7.609792e-01 -7.500365e-01 -7.338211e-01 -7.223919e-01 -7.072508e-01 -6.967216e-01 -6.824791e-01 -6.732152e-01 -6.587581e-01 -6.505726e-01 -6.356748e-01 -6.312078e-01 -6.030497e-01 -5.854152e-01 -5.664106e-01 -5.451574e-01 -5.253918e-01 -5.135216e-01 -4.828312e-01 -4.817551e-01 -4.408574e-01 -4.371483e-01 -4.019985e-01 -3.806469e-01 -3.580773e-01 -3.544914e-01 -3.429604e-01 -3.435514e-01 -3.300505e-01 -3.285227e-01 -3.129403e-01 -3.073543e-01 -2.888807e-01 -2.794508e-01 -2.599187e-01 -2.492080e-01 -2.314043e-01 -2.217269e-01 -2.066378e-01 -1.978173e-01 -1.836188e-01 -1.738002e-01 -1.583479e-01 -1.470625e-01 -1.301078e-01 -1.188055e-01 -1.011466e-01 -9.164828e-02 -7.377466e-02 -6.715741e-02 -4.856741e-02 -4.457577e-02 -2.367829e-02 -2.112256e-02 3.386981e-03 4.848345e-03 3.241191e-02 3.200377e-02 6.125381e-02 5.877270e-02 8.879815e-02 8.497267e-02 1.152095e-01 1.113736e-01 1.414177e-01 1.389108e-01 1.679379e-01 1.674307e-01 1.942993e-01 1.961133e-01 2.201435e-01 2.245754e-01 2.457736e-01 2.527720e-01 2.716389e-01 2.805122e-01 2.980472e-01 3.122014e-01 3.303909e-01 3.370955e-01 3.529885e-01 3.565516e-01 
4.515878e-01 4.522134e-01 4.765479e-01 4.761660e-01 5.037347e-01 5.022865e-01 5.361614e-01 5.317477e-01 5.649551e-01 5.605141e-01 5.937493e-01 5.889664e-01 6.219865e-01 6.167204e-01 1.958949e-01 1.475226e-01 -2.409745e-01 -2.947444e-01 -6.928045e-01 -7.210415e-01 -1.158480e+00 -1.148841e+00 -1.130046e+00 -1.120258e+00 -1.100403e+00 -1.091204e+00 -1.070182e+00 -1.061732e+00 -1.039883e+00 -1.032117e+00 -1.009930e+00 -1.002548e+00 -9.803962e-01 -9.728604e-01 -9.509567e-01 -9.427392e-01 -9.213633e-01 -9.122342e-01 -8.917842e-01 -8.817378e-01 -8.625172e-01 -8.516122e-01 -8.337133e-01 -8.219823e-01 -8.052004e-01 -7.926107e-01 -7.765689e-01 -7.632600e-01 -7.477149e-01 -7.341323e-01 -7.189326e-01 -7.055088e-01 -6.902593e-01 -6.769735e-01 -6.608748e-01 -6.469578e-01 -6.288432e-01 -6.117485e-01 -5.886247e-01 -5.759060e-01 -5.528155e-01 -5.406060e-01 -5.200977e-01 -5.082738e-01 -4.876319e-01 -4.792969e-01 -4.548941e-01 -4.484081e-01 -4.244015e-01 -4.141601e-01 -3.916158e-01 -3.798213e-01 -3.574148e-01 -3.478943e-01 -3.276014e-01 -3.189114e-01 -2.992573e-01 -2.900203e-01 -2.702851e-01 -2.601091e-01 -2.404783e-01 -2.298338e-01 -2.108629e-01 -2.003490e-01 -1.821857e-01 -1.719089e-01 -1.540106e-01 -1.437169e-01 -1.253718e-01 -1.151012e-01 -9.597015e-02 -8.625347e-02 -6.629370e-02 -5.781914e-02 -3.695847e-02 -3.019971e-02 -8.120014e-03 -3.137408e-03 2.069927e-02 2.413800e-02 5.011246e-02 5.214126e-02 8.011291e-02 8.069123e-02 1.101731e-01 1.094144e-01 1.398879e-01 1.382007e-01 1.691961e-01 1.672070e-01 1.982833e-01 1.966352e-01 2.272928e-01 2.264425e-01 2.561838e-01 2.563964e-01 2.849288e-01 2.863121e-01 3.136488e-01 3.161164e-01 3.425096e-01 3.459091e-01 3.714444e-01 3.775111e-01 4.005890e-01 4.045446e-01 4.268201e-01 4.288559e-01 
3.728903e-01 3.768985e-01 3.968336e-01 4.002943e-01 4.221374e-01 4.251321e-01 4.494590e-01 4.512430e-01 4.769037e-01 4.785746e-01 5.047313e-01 5.077542e-01 5.334153e-01 5.400213e-01 1.246080e-01 1.184224e-01 -2.864363e-01 -2.955002e-01 -7.024933e-01 -7.041256e-01 -1.124618e+00 -1.111803e+00 -1.090842e+00 -1.082859e+00 -1.060110e+00 -1.054863e+00 -1.030806e+00 -1.027157e+00 -1.002318e+00 -9.995821e-01 -9.745047e-01 -9.721284e-01 -9.472335e-01 -9.446299e-01 -9.201773e-01 -9.168169e-01 -8.930523e-01 -8.886457e-01 -8.658725e-01 -8.603616e-01 -8.388299e-01 -8.322664e-01 -8.120504e-01 -8.044815e-01 -7.853983e-01 -7.768355e-01 -7.585468e-01 -7.491346e-01 -7.313754e-01 -7.214995e-01 -7.040931e-01 -6.942014e-01 -6.768680e-01 -6.672298e-01 -6.495135e-01 -6.401906e-01 -6.216032e-01 -6.126497e-01 -5.938426e-01 -5.863136e-01 -5.633874e-01 -5.563450e-01 -5.344280e-01 -5.239745e-01 -5.033127e-01 -4.929227e-01 -4.687717e-01 -4.608581e-01 -4.345151e-01 -4.268006e-01 -4.042482e-01 -3.956496e-01 -3.714614e-01 -3.635381e-01 -3.426008e-01 -3.354345e-01 -3.159777e-01 -3.083390e-01 -2.895099e-01 -2.809873e-01 -2.626787e-01 -2.535012e-01 -2.359248e-01 -2.264965e-01 -2.096604e-01 -2.001607e-01 -1.836510e-01 -1.740695e-01 -1.573167e-01 -1.478039e-01 -1.304138e-01 -1.214157e-01 -1.031848e-01 -9.527061e-02 -7.602820e-02 -6.964206e-02 -4.911294e-02 -4.440326e-02 -2.221508e-02 -1.907333e-02 5.009542e-03 6.723359e-03 3.255831e-02 3.294710e-02 6.008616e-02 5.938995e-02 8.728686e-02 8.598245e-02 1.140924e-01 1.128378e-01 1.406299e-01 1.400992e-01 1.670259e-01 1.677413e-01 1.932986e-01 1.955839e-01 2.194565e-01 2.234307e-01 2.455792e-01 2.511172e-01 2.717684e-01 2.784853e-01 2.980611e-01 3.053881e-01 3.243507e-01 3.305453e-01 3.491132e-01 3.540436e-01 
4.522204e-01 4.530318e-01 4.790053e-01 4.787458e-01 5.069376e-01 5.056508e-01 5.363579e-01 5.341114e-01 5.657608e-01 5.636346e-01 5.954526e-01 5.945963e-01 6.258770e-01 6.282069e-01 1.866383e-01 1.698937e-01 -2.572760e-01 -2.772631e-01 -7.094235e-01 -7.157716e-01 -1.170034e+00 -1.151828e+00 -1.134913e+00 -1.121307e+00 -1.102572e+00 -1.091484e+00 -1.071416e+00 -1.061799e+00 -1.040832e+00 -1.032082e+00 -1.010664e+00 -1.002340e+00 -9.808694e-01 -9.725421e-01 -9.512983e-01 -9.425529e-01 -9.217390e-01 -9.122807e-01 -8.920970e-01 -8.818209e-01 -8.624537e-01 -8.513894e-01 -8.329069e-01 -8.211026e-01 -8.033767e-01 -7.908578e-01 -7.736165e-01 -7.604547e-01 -7.434087e-01 -7.297740e-01 -7.126585e-01 -6.987261e-01 -6.812116e-01 -6.669766e-01 -6.485727e-01 -6.337282e-01 -6.137939e-01 -5.977864e-01 -5.770816e-01 -5.675030e-01 -5.418765e-01 -5.340665e-01 -5.130389e-01 -4.988661e-01 -4.844363e-01 -4.685137e-01 -4.507006e-01 -4.429307e-01 -4.173948e-01 -4.123482e-01 -3.898420e-01 -3.810220e-01 -3.598042e-01 -3.506096e-01 -3.298848e-01 -3.205708e-01 -3.004288e-01 -2.908726e-01 -2.712362e-01 -2.613232e-01 -2.421108e-01 -2.318649e-01 -2.130212e-01 -2.025989e-01 -1.840275e-01 -1.736340e-01 -1.551237e-01 -1.449563e-01 -1.261829e-01 -1.164463e-01 -9.704843e-02 -8.800026e-02 -6.766544e-02 -5.962554e-02 -3.812323e-02 -3.140502e-02 -8.552689e-03 -3.353465e-03 2.101281e-02 2.466196e-02 5.063532e-02 5.282415e-02 8.033284e-02 8.121608e-02 1.099985e-01 1.098083e-01 1.394840e-01 1.385706e-01 1.687258e-01 1.675406e-01 1.977663e-01 1.967760e-01 2.266820e-01 2.262757e-01 2.555270e-01 2.559616e-01 2.843325e-01 2.857171e-01 3.131198e-01 3.154277e-01 3.418714e-01 3.449789e-01 3.704499e-01 3.741556e-01 3.985824e-01 4.016486e-01 4.256988e-01 4.276611e-01 
3.729687e-01 3.770060e-01 3.969506e-01 4.004363e-01 4.222853e-01 4.253018e-01 4.496279e-01 4.514270e-01 4.770747e-01 4.787520e-01 5.048805e-01 5.079110e-01 5.335327e-01 5.401690e-01 1.247967e-01 1.186219e-01 -2.861434e-01 -2.951904e-01 -7.020417e-01 -7.036656e-01 -1.123994e+00 -1.111256e+00 -1.090381e+00 -1.082588e+00 -1.060004e+00 -1.054956e+00 -1.031015e+00 -1.027414e+00 -1.002566e+00 -9.997293e-01 -9.746297e-01 -9.721626e-01 -9.473962e-01 -9.448278e-01 -9.206476e-01 -9.173471e-01 -8.937681e-01 -8.892426e-01 -8.663936e-01 -8.606088e-01 -8.388408e-01 -8.320731e-01 -8.116074e-01 -8.040209e-01 -7.846510e-01 -7.761721e-01 -7.573967e-01 -7.479745e-01 -7.293810e-01 -7.192719e-01 -7.007228e-01 -6.904011e-01 -6.718104e-01 -6.615717e-01 -6.425974e-01 -6.323020e-01 -6.123338e-01 -6.014271e-01 -5.804270e-01 -5.731012e-01 -5.500458e-01 -5.433218e-01 -5.219141e-01 -5.128495e-01 -4.938884e-01 -4.844009e-01 -4.637534e-01 -4.576772e-01 -4.339797e-01 -4.285832e-01 -4.050480e-01 -3.971939e-01 -3.751712e-01 -3.673489e-01 -3.461866e-01 -3.383069e-01 -3.183891e-01 -3.103458e-01 -2.915911e-01 -2.830600e-01 -2.651300e-01 -2.558690e-01 -2.384889e-01 -2.285906e-01 -2.116648e-01 -2.015254e-01 -1.849837e-01 -1.750361e-01 -1.585607e-01 -1.490348e-01 -1.320242e-01 -1.230530e-01 -1.049343e-01 -9.682715e-02 -7.731648e-02 -7.056830e-02 -4.958864e-02 -4.459596e-02 -2.205829e-02 -1.889225e-02 5.336241e-03 6.888689e-03 3.278915e-02 3.301227e-02 6.022791e-02 5.940677e-02 8.735710e-02 8.593919e-02 1.140477e-01 1.126769e-01 1.404086e-01 1.397637e-01 1.666060e-01 1.672492e-01 1.927540e-01 1.950351e-01 2.189020e-01 2.229216e-01 2.450973e-01 2.507155e-01 2.714260e-01 2.782457e-01 2.978851e-01 3.052941e-01 3.242978e-01 3.305481e-01 3.491394e-01 3.541081e-01 
4.517475e-01 4.524336e-01 4.767867e-01 4.764628e-01 5.040476e-01 5.026503e-01 5.365213e-01 5.321220e-01 5.652820e-01 5.608053e-01 5.939718e-01 5.891352e-01 6.221057e-01 6.168236e-01 1.960833e-01 1.476395e-01 -2.406440e-01 -2.943755e-01 -6.921913e-01 -7.203100e-01 -1.157354e+00 -1.147927e+00 -1.129198e+00 -1.119752e+00 -1.100124e+00 -1.091263e+00 -1.070402e+00 -1.062016e+00 -1.040121e+00 -1.032151e+00 -1.009912e+00 -1.002362e+00 -9.804483e-01 -9.729908e-01 -9.515929e-01 -9.435004e-01 -9.224457e-01 -9.130787e-01 -8.924151e-01 -8.817915e-01 -8.620049e-01 -8.505891e-01 -8.320349e-01 -8.200566e-01 -8.024757e-01 -7.897416e-01 -7.724595e-01 -7.587671e-01 -7.412834e-01 -7.269007e-01 -7.091961e-01 -6.947843e-01 -6.769851e-01 -6.630549e-01 -6.449747e-01 -6.316325e-01 -6.128435e-01 -6.001251e-01 -5.803695e-01 -5.686933e-01 -5.478725e-01 -5.366972e-01 -5.159074e-01 -5.047197e-01 -4.844289e-01 -4.739592e-01 -4.532593e-01 -4.442904e-01 -4.225491e-01 -4.141683e-01 -3.920705e-01 -3.831523e-01 -3.611172e-01 -3.517499e-01 -3.303086e-01 -3.208611e-01 -3.005421e-01 -2.911266e-01 -2.719168e-01 -2.621720e-01 -2.435991e-01 -2.331267e-01 -2.147948e-01 -2.036440e-01 -1.855094e-01 -1.742108e-01 -1.563838e-01 -1.455252e-01 -1.277682e-01 -1.175357e-01 -9.912062e-02 -8.946201e-02 -6.967384e-02 -6.081511e-02 -3.940133e-02 -3.193430e-02 -8.965557e-03 -3.424733e-03 2.109762e-02 2.459928e-02 5.085726e-02 5.258863e-02 8.067904e-02 8.094030e-02 1.105438e-01 1.095224e-01 1.400539e-01 1.381104e-01 1.690600e-01 1.668133e-01 1.977483e-01 1.958605e-01 2.263551e-01 2.253650e-01 2.550296e-01 2.552511e-01 2.838117e-01 2.853070e-01 3.127349e-01 3.153809e-01 3.419162e-01 3.455304e-01 3.711848e-01 3.773992e-01 4.005333e-01 4.045856e-01 4.268896e-01 4.289959e-01 
3.724179e-01 3.749693e-01 3.915814e-01 3.947348e-01 4.142337e-01 4.202220e-01 4.492422e-01 4.467315e-01 4.757177e-01 4.714578e-01 5.013759e-01 4.952833e-01 5.249756e-01 5.160358e-01 1.338006e-01 8.788370e-02 -2.660163e-01 -3.162284e-01 -6.773727e-01 -7.067432e-01 -1.097954e+00 -1.101309e+00 -1.077415e+00 -1.078381e+00 -1.054440e+00 -1.054715e+00 -1.029066e+00 -1.028247e+00 -1.000766e+00 -9.993997e-01 -9.719393e-01 -9.712664e-01 -9.456175e-01 -9.456075e-01 -9.216416e-01 -9.203713e-01 -8.964630e-01 -8.919554e-01 -8.676284e-01 -8.604636e-01 -8.375741e-01 -8.299456e-01 -8.100567e-01 -8.027459e-01 -7.850946e-01 -7.769043e-01 -7.592926e-01 -7.488351e-01 -7.299572e-01 -7.177179e-01 -6.983718e-01 -6.864381e-01 -6.679613e-01 -6.576827e-01 -6.399005e-01 -6.308781e-01 -6.125253e-01 -6.039854e-01 -5.841589e-01 -5.757626e-01 -5.540608e-01 -5.453141e-01 -5.225216e-01 -5.141395e-01 -4.917080e-01 -4.849563e-01 -4.631793e-01 -4.579908e-01 -4.359856e-01 -4.305963e-01 -4.074642e-01 -4.003064e-01 -3.764376e-01 -3.679549e-01 -3.450273e-01 -3.368565e-01 -3.168022e-01 -3.096501e-01 -2.923242e-01 -2.847522e-01 -2.683015e-01 -2.585860e-01 -2.417843e-01 -2.298306e-01 -2.130970e-01 -2.005854e-01 -1.852848e-01 -1.740501e-01 -1.602593e-01 -1.501872e-01 -1.358487e-01 -1.256662e-01 -1.087957e-01 -9.851566e-02 -7.904477e-02 -7.034867e-02 -4.927404e-02 -4.371479e-02 -2.135769e-02 -1.902116e-02 5.430062e-03 5.681986e-03 3.307728e-02 3.199206e-02 6.160871e-02 5.887030e-02 8.918271e-02 8.507334e-02 1.153220e-01 1.111182e-01 1.408416e-01 1.378329e-01 1.663828e-01 1.655547e-01 1.922061e-01 1.940818e-01 2.181500e-01 2.227771e-01 2.440593e-01 2.513475e-01 2.705051e-01 2.798599e-01 2.976923e-01 3.121144e-01 3.304078e-01 3.372447e-01 3.531755e-01 3.568197e-01 
4.502815e-01 4.492325e-01 4.653826e-01 4.652018e-01 4.797403e-01 4.832544e-01 5.493062e-01 5.313280e-01 5.614354e-01 5.567974e-01 5.898585e-01 5.829022e-01 6.165598e-01 5.902927e-01 2.537475e-01 2.937459e-02 -1.477041e-01 -3.523175e-01 -5.907331e-01 -6.852406e-01 -1.105142e+00 -1.101061e+00 -1.083779e+00 -1.075555e+00 -1.056774e+00 -1.049961e+00 -1.028428e+00 -1.021344e+00 -9.971475e-01 -9.900822e-01 -9.656560e-01 -9.600894e-01 -9.377057e-01 -9.335692e-01 -9.129785e-01 -9.077575e-01 -8.867454e-01 -8.778287e-01 -8.557003e-01 -8.438198e-01 -8.229852e-01 -8.109840e-01 -7.935066e-01 -7.823641e-01 -7.672954e-01 -7.553929e-01 -7.399382e-01 -7.254004e-01 -7.079671e-01 -6.913849e-01 -6.731710e-01 -6.572442e-01 -6.401508e-01 -6.266124e-01 -6.105527e-01 -5.988754e-01 -5.823635e-01 -5.715741e-01 -5.534920e-01 -5.422785e-01 -5.226122e-01 -5.107813e-01 -4.893900e-01 -4.789152e-01 -4.572414e-01 -4.493081e-01 -4.287448e-01 -4.220389e-01 -4.017509e-01 -3.944176e-01 -3.716994e-01 -3.626682e-01 -3.387323e-01 -3.284467e-01 -3.052042e-01 -2.957341e-01 -2.756972e-01 -2.679502e-01 -2.509200e-01 -2.430140e-01 -2.265882e-01 -2.162794e-01 -1.989217e-01 -1.860548e-01 -1.683871e-01 -1.550485e-01 -1.389550e-01 -1.273901e-01 -1.131156e-01 -1.029937e-01 -8.802571e-02 -7.749342e-02 -5.944722e-02 -4.836288e-02 -2.737249e-02 -1.781544e-02 4.642272e-03 1.073160e-02 3.415357e-02 3.669413e-02 6.215269e-02 6.257778e-02 9.129363e-02 9.041676e-02 1.216350e-01 1.187774e-01 1.507945e-01 1.460204e-01 1.782307e-01 1.728745e-01 2.050766e-01 2.004690e-01 2.321800e-01 2.292851e-01 2.598438e-01 2.590786e-01 2.877902e-01 2.889577e-01 3.158442e-01 3.181824e-01 3.455901e-01 3.412699e-01 3.750250e-01 3.998484e-01 4.138081e-01 4.182621e-01 4.337554e-01 4.339836e-01 
3.717187e-01 3.660084e-01 3.714881e-01 3.649198e-01 3.650456e-01 3.556768e-01 4.226676e-01 4.010680e-01 4.012084e-01 4.116173e-01 4.063961e-01 4.214765e-01 4.112839e-01 4.040765e-01 2.985540e-01 2.501688e-01 1.809735e-01 1.373641e-01 5.084467e-02 3.994959e-02 -8.913969e-02 -9.131881e-02 -8.987027e-02 -8.326877e-02 -7.951827e-02 -7.398201e-02 -6.894617e-02 -6.521775e-02 -5.926636e-02 -5.728451e-02 -4.985823e-02 -4.889030e-02 -3.945713e-02 -3.919502e-02 -2.814206e-02 -2.910618e-02 -1.750998e-02 -2.023700e-02 -8.575460e-03 -1.243172e-02 -1.965404e-05 -3.712655e-03 1.001786e-02 6.972308e-03 2.151474e-02 1.856636e-02 3.277901e-02 2.922046e-02 4.239091e-02 3.833562e-02 5.073808e-02 4.703637e-02 5.922912e-02 5.640143e-02 6.824955e-02 6.599620e-02 7.685265e-02 7.464619e-02 8.415975e-02 8.266295e-02 8.991815e-02 8.881590e-02 9.558409e-02 9.415603e-02 1.020221e-01 1.012473e-01 1.096631e-01 1.107465e-01 1.190561e-01 1.207865e-01 1.302953e-01 1.308045e-01 1.396854e-01 1.389040e-01 1.481994e-01 1.469245e-01 1.574065e-01 1.560657e-01 1.676237e-01 1.656328e-01 1.774105e-01 1.740379e-01 1.855061e-01 1.808171e-01 1.922546e-01 1.872293e-01 1.993648e-01 1.950965e-01 2.079781e-01 2.046049e-01 2.171686e-01 2.142340e-01 2.253891e-01 2.229888e-01 2.325296e-01 2.314641e-01 2.397304e-01 2.406499e-01 2.477732e-01 2.505347e-01 2.562584e-01 2.600203e-01 2.642357e-01 2.682307e-01 2.717616e-01 2.756560e-01 2.798666e-01 2.829808e-01 2.889471e-01 2.901055e-01 2.987667e-01 2.968409e-01 3.091332e-01 3.032357e-01 3.199156e-01 3.095030e-01 3.310716e-01 3.159181e-01 3.426492e-01 3.221941e-01 3.554422e-01 3.202011e-01 3.646846e-01 3.714921e-01 3.717828e-01 3.652287e-01 3.706247e-01 3.648247e-01 
4.531032e-01 4.413821e-01 4.543080e-01 4.415021e-01 4.525219e-01 4.350516e-01 4.691736e-01 4.581218e-01 4.566195e-01 4.677181e-01 4.563845e-01 4.767596e-01 4.605089e-01 4.788821e-01 4.319424e-01 4.383455e-01 4.051172e-01 4.118402e-01 3.748996e-01 3.898591e-01 3.395257e-01 3.562180e-01 3.465222e-01 3.648760e-01 3.552112e-01 3.716176e-01 3.615899e-01 3.745403e-01 3.644116e-01 3.743869e-01 3.665534e-01 3.754208e-01 3.719715e-01 3.800900e-01 3.804189e-01 3.856667e-01 3.871332e-01 3.873257e-01 3.889118e-01 3.853000e-01 3.892375e-01 3.851511e-01 3.933077e-01 3.899991e-01 4.011205e-01 3.970394e-01 4.079826e-01 4.012451e-01 4.101178e-01 4.013228e-01 4.091034e-01 4.009745e-01 4.093678e-01 4.035774e-01 4.122058e-01 4.080236e-01 4.150177e-01 4.112455e-01 4.152848e-01 4.119424e-01 4.118569e-01 4.082493e-01 4.064238e-01 4.025865e-01 4.020778e-01 4.000757e-01 4.009800e-01 4.020171e-01 4.031925e-01 4.048763e-01 4.066272e-01 4.056976e-01 4.065537e-01 4.029476e-01 4.052352e-01 4.010708e-01 4.072083e-01 4.034980e-01 4.131752e-01 4.081083e-01 4.188335e-01 4.102773e-01 4.204953e-01 4.085365e-01 4.189119e-01 4.060246e-01 4.184509e-01 4.073036e-01 4.218601e-01 4.124542e-01 4.262761e-01 4.170289e-01 4.273472e-01 4.183794e-01 4.250298e-01 4.186106e-01 4.228935e-01 4.209593e-01 4.233424e-01 4.256961e-01 4.252758e-01 4.299426e-01 4.259758e-01 4.314261e-01 4.255287e-01 4.316143e-01 4.266330e-01 4.323112e-01 4.300742e-01 4.329395e-01 4.348339e-01 4.325754e-01 4.401019e-01 4.310094e-01 4.454855e-01 4.287332e-01 4.510455e-01 4.267834e-01 4.567893e-01 4.256543e-01 4.619825e-01 4.228777e-01 4.634291e-01 4.429487e-01 4.554948e-01 4.385382e-01 4.522874e-01 4.393071e-01 
3.750716e-01 3.645027e-01 3.737879e-01 3.636094e-01 3.730939e-01 3.624083e-01 3.743718e-01 3.705464e-01 3.699528e-01 3.767075e-01 3.675068e-01 3.809831e-01 3.673359e-01 3.833389e-01 3.695918e-01 3.887423e-01 3.748173e-01 3.938631e-01 3.816334e-01 3.983278e-01 3.890275e-01 4.016957e-01 3.936282e-01 4.043485e-01 3.976106e-01 4.064288e-01 4.005336e-01 4.069099e-01 4.019391e-01 4.061289e-01 4.031768e-01 4.059468e-01 4.059340e-01 4.073301e-01 4.099396e-01 4.089628e-01 4.130138e-01 4.087754e-01 4.138174e-01 4.069946e-01 4.139242e-01 4.061189e-01 4.156082e-01 4.075235e-01 4.187891e-01 4.098687e-01 4.212359e-01 4.108091e-01 4.211889e-01 4.097392e-01 4.193285e-01 4.082522e-01 4.175216e-01 4.076702e-01 4.161298e-01 4.072568e-01 4.137913e-01 4.055934e-01 4.095965e-01 4.029066e-01 4.042898e-01 3.985472e-01 3.993834e-01 3.939296e-01 3.957568e-01 3.915024e-01 3.935340e-01 3.912308e-01 3.926903e-01 3.906644e-01 3.924465e-01 3.889425e-01 3.912518e-01 3.863919e-01 3.901302e-01 3.845981e-01 3.905537e-01 3.845107e-01 3.923491e-01 3.849794e-01 3.936253e-01 3.842234e-01 3.930768e-01 3.819739e-01 3.912588e-01 3.797179e-01 3.899355e-01 3.792113e-01 3.899831e-01 3.802912e-01 3.900736e-01 3.810997e-01 3.884889e-01 3.806704e-01 3.854212e-01 3.800085e-01 3.825276e-01 3.804271e-01 3.808102e-01 3.817935e-01 3.797117e-01 3.826695e-01 3.781539e-01 3.820709e-01 3.763806e-01 3.806541e-01 3.756906e-01 3.791950e-01 3.764809e-01 3.774297e-01 3.782425e-01 3.749229e-01 3.804764e-01 3.716528e-01 3.828859e-01 3.680414e-01 3.853374e-01 3.648157e-01 3.875557e-01 3.625865e-01 3.886870e-01 3.619680e-01 3.873131e-01 3.665860e-01 3.810994e-01 3.657212e-01 3.772331e-01 3.650566e-01 
