# vtk DataFile Version 2.0
Comment goes here
ASCII

DATASET STRUCTURED_POINTS
FIELD FieldData 1
TIME 1 1 double
0.78000000
DIMENSIONS    128   16   1

ORIGIN    0.000   0.000   0.000
SPACING   0.0078125 0.015625   1.000

POINT_DATA   2048
SCALARS P double
LOOKUP_TABLE default

-1.843047e-01 -1.867814e-01 -1.852104e-01 -1.899230e-01 -1.837479e-01 -1.922647e-01 -1.784654e-01 -1.929664e-01 -1.804542e-01 -1.910432e-01 -1.819437e-01 -1.876344e-01 -1.812164e-01 -1.815238e-01 -1.755903e-01 -1.718559e-01 -1.669065e-01 -1.587446e-01 -1.571839e-01 -1.460282e-01 -1.478334e-01 -1.377359e-01 -1.424238e-01 -1.342819e-01 -1.410520e-01 -1.328664e-01 -1.411599e-01 -1.325171e-01 -1.417480e-01 -1.327826e-01 -1.421611e-01 -1.332195e-01 -1.419695e-01 -1.336333e-01 -1.412402e-01 -1.342417e-01 -1.404067e-01 -1.353038e-01 -1.397324e-01 -1.366629e-01 -1.390633e-01 -1.378401e-01 -1.381653e-01 -1.385286e-01 -1.371425e-01 -1.388468e-01 -1.364141e-01 -1.390957e-01 -1.363073e-01 -1.393525e-01 -1.367429e-01 -1.393674e-01 -1.373519e-01 -1.389125e-01 -1.379725e-01 -1.383741e-01 -1.392100e-01 -1.392517e-01 -1.417613e-01 -1.382571e-01 -1.473811e-01 -1.413109e-01 -1.504376e-01 -1.483817e-01 -1.530832e-01 -1.536716e-01 -1.596087e-01 -1.547492e-01 -1.661347e-01 -1.580179e-01 -1.630408e-01 -1.591002e-01 -1.663118e-01 -1.634605e-01 -1.678460e-01 -1.657118e-01 -1.679055e-01 -1.667298e-01 -1.674994e-01 -1.674193e-01 -1.675054e-01 -1.682708e-01 -1.681720e-01 -1.691174e-01 -1.691792e-01 -1.695119e-01 -1.701741e-01 -1.692710e-01 -1.711553e-01 -1.686325e-01 -1.723760e-01 -1.679754e-01 -1.739698e-01 -1.674785e-01 -1.757428e-01 -1.670850e-01 -1.773329e-01 -1.667587e-01 -1.785001e-01 -1.666668e-01 -1.791980e-01 -1.670663e-01 -1.794110e-01 -1.680868e-01 -1.790393e-01 -1.696745e-01 -1.779978e-01 -1.717225e-01 -1.763912e-01 -1.741582e-01 -1.745195e-01 -1.768316e-01 -1.727112e-01 -1.793851e-01 -1.712506e-01 -1.813380e-01 -1.704776e-01 -1.822998e-01 -1.708528e-01 -1.821087e-01 -1.728527e-01 -1.809339e-01 -1.769055e-01 -1.789110e-01 -1.794361e-01 -1.804436e-01 -1.821130e-01 -1.834108e-01 
-1.685269e-01 -1.716567e-01 -1.690462e-01 -1.743068e-01 -1.667669e-01 -1.763513e-01 -1.587985e-01 -1.751952e-01 -1.614447e-01 -1.711195e-01 -1.638521e-01 -1.656537e-01 -1.650388e-01 -1.580850e-01 -1.644035e-01 -1.507408e-01 -1.622678e-01 -1.444925e-01 -1.588114e-01 -1.389616e-01 -1.536428e-01 -1.341837e-01 -1.478684e-01 -1.316425e-01 -1.450312e-01 -1.302153e-01 -1.436553e-01 -1.296044e-01 -1.430308e-01 -1.295936e-01 -1.424877e-01 -1.297427e-01 -1.414469e-01 -1.297915e-01 -1.399171e-01 -1.300475e-01 -1.384341e-01 -1.308959e-01 -1.373405e-01 -1.322636e-01 -1.365205e-01 -1.335894e-01 -1.354603e-01 -1.341398e-01 -1.338570e-01 -1.338443e-01 -1.322827e-01 -1.334992e-01 -1.318013e-01 -1.339463e-01 -1.328511e-01 -1.349563e-01 -1.344819e-01 -1.352727e-01 -1.353840e-01 -1.345033e-01 -1.361799e-01 -1.351291e-01 -1.388589e-01 -1.324127e-01 -1.439053e-01 -1.350142e-01 -1.445886e-01 -1.408252e-01 -1.431039e-01 -1.408716e-01 -1.446002e-01 -1.353712e-01 -1.466845e-01 -1.385628e-01 -1.484641e-01 -1.474691e-01 -1.568024e-01 -1.551228e-01 -1.602331e-01 -1.581209e-01 -1.599902e-01 -1.583800e-01 -1.585112e-01 -1.582098e-01 -1.578757e-01 -1.588478e-01 -1.585542e-01 -1.598810e-01 -1.596517e-01 -1.602525e-01 -1.603907e-01 -1.596779e-01 -1.609066e-01 -1.586296e-01 -1.616622e-01 -1.576307e-01 -1.628764e-01 -1.568933e-01 -1.643571e-01 -1.563537e-01 -1.657583e-01 -1.559882e-01 -1.668263e-01 -1.558965e-01 -1.673927e-01 -1.561668e-01 -1.672502e-01 -1.567923e-01 -1.662999e-01 -1.579174e-01 -1.647648e-01 -1.597411e-01 -1.629229e-01 -1.622476e-01 -1.610197e-01 -1.651557e-01 -1.591511e-01 -1.678227e-01 -1.573648e-01 -1.696597e-01 -1.561000e-01 -1.704426e-01 -1.561044e-01 -1.700769e-01 -1.580167e-01 -1.683347e-01 -1.622944e-01 -1.639464e-01 -1.644821e-01 -1.660464e-01 -1.667225e-01 -1.687732e-01 
-1.869071e-01 -1.872649e-01 -1.899834e-01 -1.915816e-01 -1.914853e-01 -1.956445e-01 -1.640395e-01 -1.982125e-01 -1.815051e-01 -1.940772e-01 -1.867739e-01 -1.938888e-01 -1.919881e-01 -1.884946e-01 -1.804008e-01 -1.777766e-01 -1.679731e-01 -1.568571e-01 -1.555078e-01 -1.357717e-01 -1.396146e-01 -1.290961e-01 -1.351830e-01 -1.306990e-01 -1.386137e-01 -1.312097e-01 -1.408590e-01 -1.316978e-01 -1.425678e-01 -1.325036e-01 -1.435470e-01 -1.331544e-01 -1.432075e-01 -1.332859e-01 -1.417678e-01 -1.335645e-01 -1.403359e-01 -1.348018e-01 -1.395980e-01 -1.370310e-01 -1.394520e-01 -1.393411e-01 -1.387943e-01 -1.401508e-01 -1.366605e-01 -1.391218e-01 -1.340216e-01 -1.379444e-01 -1.332082e-01 -1.385951e-01 -1.352732e-01 -1.403919e-01 -1.376597e-01 -1.393954e-01 -1.359195e-01 -1.322489e-01 -1.328807e-01 -1.451461e-01 -1.259921e-01 -1.176383e-01 -1.561433e-01 -1.220780e-01 -1.515072e-01 -1.573947e-01 -1.370471e-01 -1.751232e-01 -1.614994e-01 -1.482149e-01 -2.093111e-01 -1.686070e-01 -1.362837e-01 -1.458056e-01 -1.739616e-01 -1.735641e-01 -1.754143e-01 -1.726559e-01 -1.715723e-01 -1.696652e-01 -1.673977e-01 -1.676563e-01 -1.659466e-01 -1.683678e-01 -1.674951e-01 -1.704364e-01 -1.697317e-01 -1.713789e-01 -1.709178e-01 -1.706156e-01 -1.714457e-01 -1.691224e-01 -1.722938e-01 -1.678171e-01 -1.739057e-01 -1.670036e-01 -1.760012e-01 -1.665055e-01 -1.781148e-01 -1.662598e-01 -1.799143e-01 -1.663424e-01 -1.810926e-01 -1.666957e-01 -1.811650e-01 -1.671327e-01 -1.799642e-01 -1.680657e-01 -1.781303e-01 -1.701447e-01 -1.762039e-01 -1.734615e-01 -1.744272e-01 -1.775541e-01 -1.725866e-01 -1.812367e-01 -1.703349e-01 -1.835905e-01 -1.682557e-01 -1.845346e-01 -1.675554e-01 -1.840310e-01 -1.688532e-01 -1.827015e-01 -1.801161e-01 -1.720160e-01 -1.792469e-01 -1.776412e-01 -1.831412e-01 -1.826305e-01 
-1.737789e-01 -1.727103e-01 -1.803723e-01 -1.769365e-01 -1.901214e-01 -1.809324e-01 -1.295114e-01 -1.951633e-01 -1.764128e-01 -1.901489e-01 -1.859316e-01 -1.912974e-01 -1.935341e-01 -1.673460e-01 -1.450348e-01 -1.194336e-01 -9.145738e-02 -3.703950e-02 -3.667638e-02 4.279726e-02 2.853351e-02 6.964084e-02 5.552371e-02 6.489512e-02 5.158574e-02 6.041145e-02 4.763471e-02 5.593579e-02 4.379920e-02 5.138144e-02 4.018720e-02 4.693382e-02 3.700848e-02 4.272616e-02 3.418970e-02 3.854492e-02 3.133180e-02 3.410011e-02 2.817819e-02 2.935630e-02 2.469973e-02 2.461262e-02 2.125283e-02 2.039758e-02 1.821070e-02 1.684736e-02 1.529354e-02 1.343146e-02 1.176367e-02 9.545469e-03 7.356720e-03 5.547101e-03 3.146648e-03 3.010135e-03 1.060629e-03 2.983503e-03 -1.127760e-02 -7.095705e-02 -1.895063e-02 8.816076e-03 -1.044335e-01 -1.208619e-03 -6.808580e-02 -1.022227e-01 -9.538797e-03 -1.552862e-01 -7.800418e-02 -6.268288e-02 -2.086964e-01 -6.840818e-02 5.099452e-02 2.771145e-02 -5.089377e-02 -5.532015e-02 -6.078826e-02 -5.877400e-02 -6.237023e-02 -6.158741e-02 -6.440136e-02 -6.483717e-02 -6.770079e-02 -6.903895e-02 -7.221600e-02 -7.371639e-02 -7.707763e-02 -7.803703e-02 -8.167077e-02 -8.183568e-02 -8.614007e-02 -8.545895e-02 -9.083857e-02 -8.921896e-02 -9.588253e-02 -9.324619e-02 -1.011188e-01 -9.745815e-02 -1.063489e-01 -1.018036e-01 -1.113616e-01 -1.062959e-01 -1.159672e-01 -1.108858e-01 -1.199503e-01 -1.155312e-01 -1.232504e-01 -1.204142e-01 -1.261557e-01 -1.258187e-01 -1.289214e-01 -1.317906e-01 -1.317167e-01 -1.381330e-01 -1.345328e-01 -1.443513e-01 -1.373321e-01 -1.500341e-01 -1.403774e-01 -1.550755e-01 -1.440869e-01 -1.594811e-01 -1.480672e-01 -1.672237e-01 -1.749448e-01 -1.596533e-01 -1.647444e-01 -1.636822e-01 -1.686270e-01 -1.682519e-01 
-1.923925e-01 -1.892355e-01 -2.015986e-01 -1.954520e-01 -2.147667e-01 -2.022309e-01 -1.817758e-01 -2.230019e-01 -2.229214e-01 -2.277715e-01 -2.375295e-01 -2.330784e-01 -2.496794e-01 -2.150247e-01 -1.088397e-01 -1.035228e-01 5.468630e-02 1.433098e-01 2.256672e-01 3.802188e-01 4.069587e-01 4.442366e-01 4.268805e-01 4.341705e-01 4.208520e-01 4.223182e-01 4.125693e-01 4.100954e-01 4.033825e-01 3.980282e-01 3.933602e-01 3.858034e-01 3.820533e-01 3.731424e-01 3.696970e-01 3.607228e-01 3.573035e-01 3.493149e-01 3.454671e-01 3.389428e-01 3.339888e-01 3.287424e-01 3.217485e-01 3.171706e-01 3.078234e-01 3.039113e-01 2.931919e-01 2.906655e-01 2.801948e-01 2.794489e-01 2.699725e-01 2.696931e-01 2.601913e-01 2.576220e-01 2.467199e-01 2.393323e-01 2.183342e-01 1.617485e-01 1.938256e-01 2.195312e-01 1.367498e-01 2.200699e-01 1.793842e-01 1.570294e-01 2.371548e-01 1.249153e-01 1.985584e-01 1.976817e-01 1.090334e-01 2.131282e-01 2.820524e-01 2.571482e-01 1.870075e-01 1.748320e-01 1.578379e-01 1.524106e-01 1.361450e-01 1.316332e-01 1.161699e-01 1.138231e-01 9.988703e-02 9.989440e-02 8.707378e-02 8.805554e-02 7.522113e-02 7.559425e-02 6.246486e-02 6.172845e-02 4.905383e-02 4.725427e-02 3.584183e-02 3.295590e-02 2.328519e-02 1.902669e-02 1.122488e-02 5.290730e-03 -6.655035e-04 -8.301812e-03 -1.251857e-02 -2.170856e-02 -2.449008e-02 -3.500559e-02 -3.697364e-02 -4.843436e-02 -5.011798e-02 -6.163103e-02 -6.339474e-02 -7.399679e-02 -7.642854e-02 -8.541045e-02 -8.921898e-02 -9.620546e-02 -1.022219e-01 -1.073255e-01 -1.160568e-01 -1.194174e-01 -1.304205e-01 -1.323443e-01 -1.443617e-01 -1.460977e-01 -1.568687e-01 -1.643637e-01 -1.836991e-01 -1.753722e-01 -1.792709e-01 -1.783087e-01 -1.850786e-01 -1.834220e-01 
-1.749358e-01 -1.767609e-01 -1.821752e-01 -1.841469e-01 -1.896816e-01 -1.927407e-01 -1.940931e-01 -2.069504e-01 -2.089715e-01 -2.182512e-01 -2.222535e-01 -2.286537e-01 -2.345533e-01 -2.371332e-01 -7.046687e-02 -5.631555e-02 9.938192e-02 1.307981e-01 2.761675e-01 3.105662e-01 4.627607e-01 4.684483e-01 4.537251e-01 4.569054e-01 4.434484e-01 4.442464e-01 4.329624e-01 4.314656e-01 4.224382e-01 4.189242e-01 4.115635e-01 4.063605e-01 3.998229e-01 3.935584e-01 3.873138e-01 3.810214e-01 3.747785e-01 3.693318e-01 3.626673e-01 3.584974e-01 3.508498e-01 3.478340e-01 3.384960e-01 3.361734e-01 3.249382e-01 3.233016e-01 3.109798e-01 3.105583e-01 2.984784e-01 2.995523e-01 2.884042e-01 2.900171e-01 2.791898e-01 2.794910e-01 2.681491e-01 2.661974e-01 2.544800e-01 2.505656e-01 2.495884e-01 2.516478e-01 2.453315e-01 2.549087e-01 2.459746e-01 2.500625e-01 2.469727e-01 2.355932e-01 2.394392e-01 2.237272e-01 2.190302e-01 2.205843e-01 2.070244e-01 2.024331e-01 1.849983e-01 1.812370e-01 1.669421e-01 1.636969e-01 1.487893e-01 1.459872e-01 1.312024e-01 1.298721e-01 1.160873e-01 1.163631e-01 1.034744e-01 1.042596e-01 9.155080e-02 9.156836e-02 7.893259e-02 7.771229e-02 6.581767e-02 6.330800e-02 5.288135e-02 4.898207e-02 4.047773e-02 3.493337e-02 2.847426e-02 2.104933e-02 1.660413e-02 7.297903e-03 4.706610e-03 -6.278237e-03 -7.390750e-03 -1.973343e-02 -2.001591e-02 -3.321668e-02 -3.328510e-02 -4.642069e-02 -4.677151e-02 -5.885913e-02 -6.015764e-02 -7.043589e-02 -7.340313e-02 -8.143983e-02 -8.682280e-02 -9.264340e-02 -1.008349e-01 -1.045898e-01 -1.151679e-01 -1.172012e-01 -1.291000e-01 -1.303941e-01 -1.422445e-01 -1.446991e-01 -1.557028e-01 -1.587789e-01 -1.614243e-01 -1.638911e-01 -1.680170e-01 -1.700364e-01 
-1.922469e-01 -1.919664e-01 -2.007303e-01 -2.009708e-01 -2.089951e-01 -2.110716e-01 -2.156547e-01 -2.231216e-01 -2.292723e-01 -2.345565e-01 -2.433320e-01 -2.466363e-01 -2.576876e-01 -2.604004e-01 -8.486670e-02 -7.506419e-02 9.274215e-02 1.177345e-01 2.764611e-01 3.037956e-01 4.678932e-01 4.691039e-01 4.544956e-01 4.554109e-01 4.425446e-01 4.418910e-01 4.311067e-01 4.286116e-01 4.197907e-01 4.155771e-01 4.083132e-01 4.027063e-01 3.964756e-01 3.899623e-01 3.842888e-01 3.774629e-01 3.719387e-01 3.653288e-01 3.595562e-01 3.535031e-01 3.471001e-01 3.417263e-01 3.343866e-01 3.296779e-01 3.213414e-01 3.173189e-01 3.082588e-01 3.049884e-01 2.956420e-01 2.930509e-01 2.837157e-01 2.814410e-01 2.721573e-01 2.697813e-01 2.606378e-01 2.583361e-01 2.498993e-01 2.495770e-01 2.444035e-01 2.401326e-01 2.346008e-01 2.326507e-01 2.237122e-01 2.215453e-01 2.141114e-01 2.060086e-01 2.016096e-01 1.934397e-01 1.842380e-01 1.823652e-01 1.710403e-01 1.699632e-01 1.617509e-01 1.607123e-01 1.500814e-01 1.482012e-01 1.362205e-01 1.342625e-01 1.217211e-01 1.202039e-01 1.076333e-01 1.066536e-01 9.424919e-02 9.346635e-02 8.123666e-02 8.016082e-02 6.822651e-02 6.650436e-02 5.517664e-02 5.259326e-02 4.222342e-02 3.861409e-02 2.946619e-02 2.467986e-02 1.687810e-02 1.082062e-02 4.361176e-03 -2.943490e-03 -8.183582e-03 -1.658477e-02 -2.085557e-02 -3.008723e-02 -3.375746e-02 -4.343526e-02 -4.691681e-02 -5.652948e-02 -6.023810e-02 -6.925262e-02 -7.362465e-02 -8.159884e-02 -8.704727e-02 -9.370209e-02 -1.005526e-01 -1.058103e-01 -1.141750e-01 -1.181073e-01 -1.277767e-01 -1.305958e-01 -1.411007e-01 -1.431607e-01 -1.539720e-01 -1.555589e-01 -1.665077e-01 -1.663804e-01 -1.753715e-01 -1.751600e-01 -1.838310e-01 -1.835116e-01 
-1.754469e-01 -1.789141e-01 -1.839873e-01 -1.882395e-01 -1.930113e-01 -1.986265e-01 -2.029269e-01 -2.105498e-01 -2.150833e-01 -2.233995e-01 -2.287981e-01 -2.375811e-01 -2.442203e-01 -2.540638e-01 -6.718078e-02 -6.691591e-02 1.106765e-01 1.175766e-01 2.913580e-01 2.987595e-01 4.758435e-01 4.769860e-01 4.606925e-01 4.614507e-01 4.472253e-01 4.470169e-01 4.347271e-01 4.333013e-01 4.227285e-01 4.200794e-01 4.108607e-01 4.071735e-01 3.988686e-01 3.944995e-01 3.866950e-01 3.821102e-01 3.744391e-01 3.700698e-01 3.621785e-01 3.583103e-01 3.498739e-01 3.466219e-01 3.374100e-01 3.347809e-01 3.247669e-01 3.227538e-01 3.121466e-01 3.107167e-01 2.998314e-01 2.988062e-01 2.878633e-01 2.868264e-01 2.758619e-01 2.742599e-01 2.632459e-01 2.606121e-01 2.495834e-01 2.454992e-01 2.343951e-01 2.320086e-01 2.231902e-01 2.206250e-01 2.135802e-01 2.112205e-01 2.045634e-01 2.024599e-01 1.955338e-01 1.944045e-01 1.868215e-01 1.861566e-01 1.768476e-01 1.741410e-01 1.664042e-01 1.650022e-01 1.550471e-01 1.535090e-01 1.422242e-01 1.408341e-01 1.288702e-01 1.278365e-01 1.156821e-01 1.149650e-01 1.028930e-01 1.021711e-01 9.033157e-02 8.917647e-02 7.778165e-02 7.584475e-02 6.522360e-02 6.225884e-02 5.275951e-02 4.857525e-02 4.045861e-02 3.489831e-02 2.828410e-02 2.126343e-02 1.613414e-02 7.696538e-03 3.907438e-03 -5.756506e-03 -8.479981e-03 -1.904642e-02 -2.110139e-02 -3.213111e-02 -3.398562e-02 -4.494375e-02 -4.708524e-02 -5.742022e-02 -6.032521e-02 -6.956378e-02 -7.364133e-02 -8.147147e-02 -8.699660e-02 -9.332119e-02 -1.003351e-01 -1.052602e-01 -1.134883e-01 -1.173095e-01 -1.261870e-01 -1.293620e-01 -1.381469e-01 -1.411553e-01 -1.490886e-01 -1.520831e-01 -1.584224e-01 -1.614068e-01 -1.670468e-01 -1.701418e-01 
-1.921492e-01 -1.928166e-01 -2.011383e-01 -2.025907e-01 -2.103704e-01 -2.132194e-01 -2.203446e-01 -2.249720e-01 -2.327001e-01 -2.376942e-01 -2.468172e-01 -2.520497e-01 -2.627549e-01 -2.692152e-01 -8.223325e-02 -7.879721e-02 9.959165e-02 1.097603e-01 2.848354e-01 2.943395e-01 4.742711e-01 4.741986e-01 4.585184e-01 4.581404e-01 4.447112e-01 4.434282e-01 4.320381e-01 4.295300e-01 4.199291e-01 4.161467e-01 4.079856e-01 4.030894e-01 3.959627e-01 3.902699e-01 3.837814e-01 3.776917e-01 3.714754e-01 3.653675e-01 3.590819e-01 3.532359e-01 3.465857e-01 3.411748e-01 3.339680e-01 3.290891e-01 3.212744e-01 3.169617e-01 3.086060e-01 3.048135e-01 2.960389e-01 2.926273e-01 2.835572e-01 2.803208e-01 2.710607e-01 2.677836e-01 2.584103e-01 2.548834e-01 2.453750e-01 2.412566e-01 2.307078e-01 2.248279e-01 2.181626e-01 2.100852e-01 2.022955e-01 1.990389e-01 1.856314e-01 1.868692e-01 1.742903e-01 1.707350e-01 1.660198e-01 1.606208e-01 1.557012e-01 1.558610e-01 1.492064e-01 1.487384e-01 1.401221e-01 1.391966e-01 1.291982e-01 1.281433e-01 1.172349e-01 1.162414e-01 1.048032e-01 1.038875e-01 9.221139e-02 9.122645e-02 7.955711e-02 7.826573e-02 6.685811e-02 6.501544e-02 5.415425e-02 5.154992e-02 4.151292e-02 3.797281e-02 2.897004e-02 2.435597e-02 1.649088e-02 1.072816e-02 3.996022e-03 -2.884311e-03 -8.583274e-03 -1.642426e-02 -2.128345e-02 -2.981855e-02 -3.412819e-02 -4.301582e-02 -4.714496e-02 -5.600011e-02 -6.034901e-02 -6.877365e-02 -7.371472e-02 -8.134348e-02 -8.717414e-02 -9.373495e-02 -1.006418e-01 -1.060032e-01 -1.140259e-01 -1.182049e-01 -1.272108e-01 -1.303400e-01 -1.400395e-01 -1.422960e-01 -1.523092e-01 -1.538089e-01 -1.637425e-01 -1.644598e-01 -1.738105e-01 -1.741980e-01 -1.831380e-01 -1.834970e-01 
-1.754225e-01 -1.788818e-01 -1.839596e-01 -1.882052e-01 -1.929793e-01 -1.985886e-01 -2.028901e-01 -2.105077e-01 -2.150434e-01 -2.233583e-01 -2.287635e-01 -2.375459e-01 -2.441943e-01 -2.540297e-01 -6.716602e-02 -6.689557e-02 1.106742e-01 1.175933e-01 2.913328e-01 2.987795e-01 4.757753e-01 4.769977e-01 4.605863e-01 4.613964e-01 4.470363e-01 4.468915e-01 4.344823e-01 4.331639e-01 4.224970e-01 4.199749e-01 4.106576e-01 4.070610e-01 3.986412e-01 3.943035e-01 3.864059e-01 3.818045e-01 3.741177e-01 3.696847e-01 3.618650e-01 3.578385e-01 3.495336e-01 3.460192e-01 3.370385e-01 3.341298e-01 3.244999e-01 3.222390e-01 3.120836e-01 3.103540e-01 2.997772e-01 2.983062e-01 2.874134e-01 2.859209e-01 2.749053e-01 2.732279e-01 2.623456e-01 2.604281e-01 2.498651e-01 2.477269e-01 2.371610e-01 2.332320e-01 2.245546e-01 2.197568e-01 2.108674e-01 2.082071e-01 1.974635e-01 1.967038e-01 1.869518e-01 1.844135e-01 1.775152e-01 1.741209e-01 1.673144e-01 1.668109e-01 1.590577e-01 1.581627e-01 1.490329e-01 1.480650e-01 1.377982e-01 1.369793e-01 1.258799e-01 1.252996e-01 1.136816e-01 1.132567e-01 1.014002e-01 1.008855e-01 8.906486e-02 8.813298e-02 7.666218e-02 7.499384e-02 6.425295e-02 6.160025e-02 5.198463e-02 4.814149e-02 3.993397e-02 3.469444e-02 2.799597e-02 2.120467e-02 1.597156e-02 7.638559e-03 3.751712e-03 -5.888711e-03 -8.632564e-03 -1.918170e-02 -2.113492e-02 -3.213495e-02 -3.382386e-02 -4.481237e-02 -4.683713e-02 -5.731346e-02 -6.018817e-02 -6.963533e-02 -7.372363e-02 -8.173488e-02 -8.723937e-02 -9.364191e-02 -1.005799e-01 -1.054900e-01 -1.136347e-01 -1.174109e-01 -1.262465e-01 -1.293859e-01 -1.381685e-01 -1.411467e-01 -1.490890e-01 -1.520586e-01 -1.584090e-01 -1.613766e-01 -1.670263e-01 -1.701102e-01 
-1.921952e-01 -1.919006e-01 -2.006735e-01 -2.009016e-01 -2.089303e-01 -2.109956e-01 -2.155825e-01 -2.230422e-01 -2.291974e-01 -2.344913e-01 -2.432741e-01 -2.465955e-01 -2.576512e-01 -2.603625e-01 -8.481300e-02 -7.508870e-02 9.276596e-02 1.176993e-01 2.764418e-01 3.037645e-01 4.677953e-01 4.691043e-01 4.543172e-01 4.553005e-01 4.422142e-01 4.416632e-01 4.306788e-01 4.283733e-01 4.193942e-01 4.154063e-01 4.079713e-01 4.025182e-01 3.960825e-01 3.896109e-01 3.837722e-01 3.769025e-01 3.713623e-01 3.646346e-01 3.590181e-01 3.526851e-01 3.465567e-01 3.407193e-01 3.338515e-01 3.286636e-01 3.211026e-01 3.166805e-01 3.085382e-01 3.047752e-01 2.960719e-01 2.926523e-01 2.834086e-01 2.800524e-01 2.704696e-01 2.670766e-01 2.574767e-01 2.539896e-01 2.445637e-01 2.407777e-01 2.314938e-01 2.271956e-01 2.182497e-01 2.136353e-01 2.046341e-01 2.005913e-01 1.913541e-01 1.880569e-01 1.793658e-01 1.761250e-01 1.685466e-01 1.655572e-01 1.581994e-01 1.560637e-01 1.481089e-01 1.464459e-01 1.375387e-01 1.362436e-01 1.263306e-01 1.254129e-01 1.146162e-01 1.140808e-01 1.026102e-01 1.023465e-01 9.042180e-02 9.018341e-02 7.805600e-02 7.752790e-02 6.550907e-02 6.438698e-02 5.288179e-02 5.095278e-02 4.040857e-02 3.749042e-02 2.821871e-02 2.407620e-02 1.616596e-02 1.057468e-02 3.967899e-03 -3.114745e-03 -8.500342e-03 -1.684592e-02 -2.113400e-02 -3.033741e-02 -3.381170e-02 -4.344779e-02 -4.662466e-02 -5.631329e-02 -5.981368e-02 -6.910924e-02 -7.342990e-02 -8.180143e-02 -8.726765e-02 -9.426066e-02 -1.010642e-01 -1.064612e-01 -1.146713e-01 -1.185671e-01 -1.280674e-01 -1.307953e-01 -1.412108e-01 -1.431984e-01 -1.539970e-01 -1.555221e-01 -1.664856e-01 -1.663142e-01 -1.753298e-01 -1.750904e-01 -1.837828e-01 -1.834448e-01 
-1.748604e-01 -1.766688e-01 -1.820953e-01 -1.840507e-01 -1.895885e-01 -1.926288e-01 -1.939756e-01 -2.068043e-01 -2.088182e-01 -2.181063e-01 -2.221359e-01 -2.285684e-01 -2.344934e-01 -2.370509e-01 -7.039942e-02 -5.629489e-02 9.939903e-02 1.308201e-01 2.761723e-01 3.106731e-01 4.627746e-01 4.686819e-01 4.535858e-01 4.567631e-01 4.427738e-01 4.436351e-01 4.319526e-01 4.308749e-01 4.216836e-01 4.187737e-01 4.111649e-01 4.063259e-01 3.992910e-01 3.930754e-01 3.863296e-01 3.799828e-01 3.736539e-01 3.682068e-01 3.618662e-01 3.572596e-01 3.498473e-01 3.456969e-01 3.368405e-01 3.334845e-01 3.237428e-01 3.217004e-01 3.115793e-01 3.106401e-01 2.999483e-01 2.991515e-01 2.875326e-01 2.862362e-01 2.741376e-01 2.725966e-01 2.610737e-01 2.597263e-01 2.493266e-01 2.477803e-01 2.379920e-01 2.353709e-01 2.257469e-01 2.220959e-01 2.126969e-01 2.089045e-01 2.001061e-01 1.968486e-01 1.890481e-01 1.862151e-01 1.791090e-01 1.764922e-01 1.692681e-01 1.670663e-01 1.589463e-01 1.571231e-01 1.478546e-01 1.465700e-01 1.361036e-01 1.354997e-01 1.240099e-01 1.242164e-01 1.120146e-01 1.128632e-01 1.001245e-01 1.011265e-01 8.806791e-02 8.863712e-02 7.556930e-02 7.516154e-02 6.271882e-02 6.120271e-02 5.033932e-02 4.766089e-02 3.895897e-02 3.466103e-02 2.805393e-02 2.145053e-02 1.659125e-02 7.424095e-03 4.254365e-03 -6.959351e-03 -8.312104e-03 -2.067722e-02 -2.042139e-02 -3.324330e-02 -3.236413e-02 -4.538722e-02 -4.523759e-02 -5.792404e-02 -5.931347e-02 -7.059630e-02 -7.388550e-02 -8.276815e-02 -8.818458e-02 -9.419840e-02 -1.019718e-01 -1.054296e-01 -1.155605e-01 -1.173015e-01 -1.290834e-01 -1.302859e-01 -1.422425e-01 -1.446072e-01 -1.556733e-01 -1.586644e-01 -1.613574e-01 -1.637834e-01 -1.679426e-01 -1.699392e-01 
-1.922958e-01 -1.891212e-01 -2.014962e-01 -1.953268e-01 -2.146348e-01 -2.020637e-01 -1.816159e-01 -2.227840e-01 -2.227149e-01 -2.276244e-01 -2.374128e-01 -2.330857e-01 -2.496930e-01 -2.151739e-01 -1.085660e-01 -1.037840e-01 5.477498e-02 1.431823e-01 2.257583e-01 3.800242e-01 4.070550e-01 4.444067e-01 4.267507e-01 4.339746e-01 4.200803e-01 4.215909e-01 4.114131e-01 4.094494e-01 4.025993e-01 3.979872e-01 3.930531e-01 3.859077e-01 3.815439e-01 3.726320e-01 3.685393e-01 3.594526e-01 3.559120e-01 3.479370e-01 3.444898e-01 3.374774e-01 3.327963e-01 3.261983e-01 3.198239e-01 3.140961e-01 3.067538e-01 3.026288e-01 2.949311e-01 2.922088e-01 2.838097e-01 2.813110e-01 2.716145e-01 2.685774e-01 2.580346e-01 2.548635e-01 2.447385e-01 2.420576e-01 2.329675e-01 2.302601e-01 2.214965e-01 2.181546e-01 2.086123e-01 2.043281e-01 1.949875e-01 1.899165e-01 1.817700e-01 1.770291e-01 1.697856e-01 1.663594e-01 1.592280e-01 1.565279e-01 1.498767e-01 1.472605e-01 1.394403e-01 1.372532e-01 1.284040e-01 1.268582e-01 1.168140e-01 1.160769e-01 1.049365e-01 1.052145e-01 9.325053e-02 9.440567e-02 8.170243e-02 8.320914e-02 6.990270e-02 7.113139e-02 5.747277e-02 5.785374e-02 4.451932e-02 4.402757e-02 3.213568e-02 3.082845e-02 2.103929e-02 1.839964e-02 1.056507e-02 5.715049e-03 -6.245641e-04 -8.076762e-03 -1.292640e-02 -2.243447e-02 -2.547618e-02 -3.607030e-02 -3.734462e-02 -4.837316e-02 -4.887701e-02 -6.030441e-02 -6.148828e-02 -7.291108e-02 -7.551708e-02 -8.580609e-02 -9.005711e-02 -9.811202e-02 -1.041685e-01 -1.094692e-01 -1.176297e-01 -1.205494e-01 -1.309386e-01 -1.324445e-01 -1.442788e-01 -1.458686e-01 -1.567475e-01 -1.640917e-01 -1.835251e-01 -1.751354e-01 -1.791350e-01 -1.781448e-01 -1.849704e-01 -1.832953e-01 
-1.736666e-01 -1.725953e-01 -1.802754e-01 -1.768238e-01 -1.900190e-01 -1.807973e-01 -1.294422e-01 -1.950573e-01 -1.763889e-01 -1.901991e-01 -1.859997e-01 -1.914642e-01 -1.936912e-01 -1.676830e-01 -1.452008e-01 -1.197735e-01 -9.180384e-02 -3.731432e-02 -3.697873e-02 4.235175e-02 2.845448e-02 6.936209e-02 5.554359e-02 6.495734e-02 5.200365e-02 6.082484e-02 4.831430e-02 5.639398e-02 4.437031e-02 5.157693e-02 4.048635e-02 4.689409e-02 3.714188e-02 4.260934e-02 3.419938e-02 3.832230e-02 3.102475e-02 3.354170e-02 2.736443e-02 2.855242e-02 2.378153e-02 2.407572e-02 2.063794e-02 2.012052e-02 1.747838e-02 1.612905e-02 1.376546e-02 1.188654e-02 9.617253e-03 7.835874e-03 5.561098e-03 4.314203e-03 1.578070e-03 8.395242e-04 -3.042208e-03 -3.420420e-03 -8.808468e-03 -8.665443e-03 -1.524855e-02 -1.343339e-02 -2.140394e-02 -1.825653e-02 -2.636669e-02 -2.341396e-02 -3.121114e-02 -2.856459e-02 -3.700677e-02 -3.362839e-02 -4.280298e-02 -3.917580e-02 -4.678561e-02 -4.393065e-02 -5.115934e-02 -4.897327e-02 -5.514475e-02 -5.377726e-02 -5.902958e-02 -5.850433e-02 -6.305507e-02 -6.330633e-02 -6.742154e-02 -6.821790e-02 -7.208192e-02 -7.305266e-02 -7.685215e-02 -7.759973e-02 -8.153624e-02 -8.169459e-02 -8.609474e-02 -8.551776e-02 -9.083725e-02 -8.946546e-02 -9.595627e-02 -9.361171e-02 -1.011849e-01 -9.766464e-02 -1.060463e-01 -1.014428e-01 -1.104145e-01 -1.052750e-01 -1.146100e-01 -1.097253e-01 -1.189419e-01 -1.150467e-01 -1.232229e-01 -1.208431e-01 -1.268695e-01 -1.266263e-01 -1.297198e-01 -1.323894e-01 -1.321375e-01 -1.382947e-01 -1.345893e-01 -1.443251e-01 -1.373568e-01 -1.501109e-01 -1.404924e-01 -1.551879e-01 -1.440860e-01 -1.593654e-01 -1.477769e-01 -1.668318e-01 -1.745507e-01 -1.593363e-01 -1.645056e-01 -1.634813e-01 -1.684731e-01 -1.681106e-01 
-1.868349e-01 -1.871954e-01 -1.899309e-01 -1.915237e-01 -1.914517e-01 -1.956005e-01 -1.640622e-01 -1.982430e-01 -1.816165e-01 -1.942179e-01 -1.869283e-01 -1.940474e-01 -1.921614e-01 -1.887133e-01 -1.806140e-01 -1.780221e-01 -1.682580e-01 -1.570995e-01 -1.558341e-01 -1.361938e-01 -1.399862e-01 -1.295110e-01 -1.352364e-01 -1.305555e-01 -1.378251e-01 -1.303774e-01 -1.395488e-01 -1.308870e-01 -1.416141e-01 -1.323724e-01 -1.431843e-01 -1.333747e-01 -1.428785e-01 -1.332003e-01 -1.411281e-01 -1.331030e-01 -1.398410e-01 -1.346171e-01 -1.398459e-01 -1.370220e-01 -1.395913e-01 -1.382937e-01 -1.380361e-01 -1.383880e-01 -1.364476e-01 -1.388493e-01 -1.363205e-01 -1.402166e-01 -1.372371e-01 -1.410776e-01 -1.375192e-01 -1.402204e-01 -1.369924e-01 -1.387483e-01 -1.375351e-01 -1.388772e-01 -1.406263e-01 -1.410243e-01 -1.451167e-01 -1.428961e-01 -1.489417e-01 -1.444248e-01 -1.512060e-01 -1.464657e-01 -1.536303e-01 -1.492890e-01 -1.577641e-01 -1.527166e-01 -1.621255e-01 -1.565161e-01 -1.642036e-01 -1.593376e-01 -1.657139e-01 -1.618653e-01 -1.662274e-01 -1.637179e-01 -1.661148e-01 -1.651132e-01 -1.659579e-01 -1.665353e-01 -1.664238e-01 -1.681932e-01 -1.674876e-01 -1.696062e-01 -1.686771e-01 -1.701853e-01 -1.694859e-01 -1.695163e-01 -1.699071e-01 -1.682164e-01 -1.709656e-01 -1.674934e-01 -1.733170e-01 -1.675415e-01 -1.762150e-01 -1.673974e-01 -1.782413e-01 -1.663235e-01 -1.789616e-01 -1.650286e-01 -1.792420e-01 -1.649558e-01 -1.799933e-01 -1.667752e-01 -1.807924e-01 -1.694431e-01 -1.801247e-01 -1.717495e-01 -1.776395e-01 -1.739041e-01 -1.743612e-01 -1.765877e-01 -1.714520e-01 -1.799364e-01 -1.694271e-01 -1.830493e-01 -1.681235e-01 -1.846773e-01 -1.676772e-01 -1.841240e-01 -1.686848e-01 -1.825223e-01 -1.798572e-01 -1.718521e-01 -1.790865e-01 -1.775243e-01 -1.830373e-01 -1.825433e-01 
-1.684832e-01 -1.716156e-01 -1.690152e-01 -1.742748e-01 -1.667496e-01 -1.763326e-01 -1.588077e-01 -1.752144e-01 -1.614946e-01 -1.711847e-01 -1.639229e-01 -1.657354e-01 -1.651228e-01 -1.581933e-01 -1.645198e-01 -1.508635e-01 -1.624006e-01 -1.446210e-01 -1.589413e-01 -1.391299e-01 -1.537573e-01 -1.343420e-01 -1.478367e-01 -1.315739e-01 -1.446682e-01 -1.298744e-01 -1.430878e-01 -1.292676e-01 -1.425986e-01 -1.295171e-01 -1.422903e-01 -1.298093e-01 -1.412836e-01 -1.297553e-01 -1.396631e-01 -1.298803e-01 -1.382629e-01 -1.308368e-01 -1.374722e-01 -1.322728e-01 -1.366448e-01 -1.332279e-01 -1.353035e-01 -1.335531e-01 -1.339759e-01 -1.338722e-01 -1.334072e-01 -1.345144e-01 -1.335920e-01 -1.350000e-01 -1.338992e-01 -1.348075e-01 -1.341503e-01 -1.342809e-01 -1.349853e-01 -1.343169e-01 -1.370297e-01 -1.352076e-01 -1.398551e-01 -1.359567e-01 -1.423756e-01 -1.369221e-01 -1.437899e-01 -1.382166e-01 -1.449354e-01 -1.394437e-01 -1.469388e-01 -1.409657e-01 -1.494822e-01 -1.438888e-01 -1.519118e-01 -1.476426e-01 -1.544493e-01 -1.511425e-01 -1.560095e-01 -1.536625e-01 -1.565755e-01 -1.553193e-01 -1.567075e-01 -1.566224e-01 -1.570658e-01 -1.578841e-01 -1.578132e-01 -1.589010e-01 -1.586955e-01 -1.593037e-01 -1.594123e-01 -1.588928e-01 -1.599820e-01 -1.580243e-01 -1.608982e-01 -1.573289e-01 -1.624559e-01 -1.569740e-01 -1.642805e-01 -1.565956e-01 -1.656709e-01 -1.559238e-01 -1.663456e-01 -1.553165e-01 -1.665965e-01 -1.554438e-01 -1.667492e-01 -1.566211e-01 -1.665962e-01 -1.584317e-01 -1.655361e-01 -1.603588e-01 -1.634922e-01 -1.624197e-01 -1.610072e-01 -1.647777e-01 -1.587142e-01 -1.673033e-01 -1.569984e-01 -1.694220e-01 -1.560222e-01 -1.704674e-01 -1.561260e-01 -1.700914e-01 -1.579353e-01 -1.682547e-01 -1.621790e-01 -1.638636e-01 -1.643961e-01 -1.659791e-01 -1.666613e-01 -1.687209e-01 
