# vtk DataFile Version 2.0
Comment goes here
ASCII

DATASET STRUCTURED_POINTS
FIELD FieldData 1
TIME 1 1 double
0.97000000
DIMENSIONS    128   16   1

ORIGIN    0.000   0.000   0.000
SPACING   0.0078125 0.015625   1.000

POINT_DATA   2048
SCALARS uMag double
LOOKUP_TABLE default

7.642763e-03 3.711153e-03 6.533014e-03 7.813365e-04 5.020147e-03 2.289102e-03 1.116648e-02 9.019866e-04 5.631102e-03 4.200220e-03 2.999667e-03 1.358446e-02 2.111582e-02 3.689547e-02 4.582350e-02 4.831751e-02 5.296518e-02 5.116256e-02 5.037107e-02 4.456678e-02 3.858063e-02 1.982812e-02 1.403862e-02 4.117509e-03 3.582524e-03 2.175150e-03 7.915774e-04 4.736811e-03 2.667817e-03 5.701581e-03 3.500346e-03 5.971101e-03 3.906284e-03 5.933053e-03 4.140304e-03 5.760215e-03 4.301459e-03 5.536344e-03 4.423730e-03 5.306833e-03 4.515884e-03 5.097693e-03 4.578743e-03 4.922335e-03 4.613661e-03 4.786375e-03 4.628181e-03 4.692848e-03 4.637921e-03 4.642377e-03 4.655994e-03 4.619748e-03 4.657577e-03 4.546645e-03 4.481790e-03 4.083290e-03 3.224876e-03 1.092304e-03 3.546858e-03 1.875531e-03 2.723929e-03 4.311928e-03 2.989297e-03 5.147131e-03 4.995917e-03 4.162333e-03 5.889534e-03 4.479926e-03 4.754882e-03 7.674749e-03 9.329793e-03 1.045575e-02 8.417944e-03 6.760410e-03 4.953836e-03 4.907807e-03 3.878084e-03 4.427856e-03 3.433273e-03 4.307336e-03 3.227746e-03 4.298916e-03 3.152124e-03 4.289075e-03 3.163340e-03 4.225019e-03 3.247994e-03 4.087832e-03 3.400848e-03 3.878564e-03 3.612719e-03 3.612140e-03 3.865114e-03 3.314436e-03 4.129790e-03 3.019982e-03 4.370244e-03 2.768759e-03 4.545442e-03 2.602088e-03 4.615269e-03 2.558415e-03 4.546284e-03 2.668164e-03 4.316949e-03 2.947256e-03 3.921817e-03 3.391174e-03 3.375563e-03 3.971851e-03 2.717206e-03 4.637724e-03 2.015060e-03 5.315326e-03 1.374073e-03 5.911389e-03 9.567009e-04 6.316418e-03 1.048493e-03 6.410113e-03 2.260090e-03 6.108822e-03 6.429025e-03 1.558635e-03 6.006225e-03 3.225090e-03 7.327400e-03 4.478305e-03 
3.371458e-03 1.112619e-03 3.393321e-03 3.345272e-03 3.433655e-03 9.693058e-03 8.750780e-03 6.044777e-03 5.311523e-03 8.738818e-03 9.386012e-03 1.815404e-02 2.394663e-02 2.470726e-02 1.151323e-02 7.589819e-03 2.916897e-03 4.208645e-03 6.701439e-03 1.195816e-02 2.493809e-02 2.469841e-02 1.586306e-02 1.046149e-02 6.366808e-03 4.489276e-03 2.594948e-03 2.462644e-03 9.793565e-04 2.026003e-03 3.402642e-04 1.942352e-03 3.487475e-04 1.847883e-03 5.332724e-04 1.705690e-03 7.014754e-04 1.535505e-03 8.428545e-04 1.364037e-03 9.575008e-04 1.218759e-03 1.050037e-03 1.113911e-03 1.115857e-03 1.039599e-03 1.135653e-03 9.624084e-04 1.076133e-03 8.298850e-04 9.088760e-04 7.167183e-04 1.000819e-03 1.592325e-03 2.981572e-03 5.842107e-03 1.049280e-02 1.281014e-02 7.770916e-03 9.585836e-03 1.001199e-02 6.474893e-03 8.479318e-03 8.375097e-03 5.169256e-03 6.694530e-03 4.682792e-03 8.874910e-04 9.117094e-03 1.402540e-02 1.280038e-02 1.407571e-02 1.445500e-02 1.136791e-02 7.058007e-03 4.551771e-03 2.544997e-03 2.050924e-03 8.041938e-04 1.133338e-03 2.065645e-04 7.908653e-04 3.215973e-04 6.289919e-04 3.941189e-04 5.039579e-04 3.586443e-04 3.725260e-04 2.542259e-04 2.733054e-04 1.906848e-04 3.586566e-04 3.227531e-04 6.033005e-04 5.381688e-04 8.796415e-04 7.522688e-04 1.118815e-03 9.190242e-04 1.278228e-03 9.938602e-04 1.328289e-03 9.439528e-04 1.248028e-03 7.674617e-04 1.033726e-03 5.512233e-04 7.429377e-04 6.192226e-04 6.600208e-04 1.088395e-03 1.058559e-03 1.702978e-03 1.658486e-03 2.301750e-03 2.256641e-03 2.731922e-03 2.767504e-03 2.765885e-03 3.275482e-03 1.907933e-03 4.978113e-03 4.881900e-03 5.222534e-03 2.751611e-03 1.504454e-03 3.596975e-03 8.467064e-04 
1.050814e-02 8.493691e-03 9.290424e-03 6.637241e-03 1.017712e-02 2.540156e-02 1.064184e-02 1.458091e-02 3.093769e-03 1.080199e-02 1.346733e-03 1.084035e-02 1.160863e-02 1.776697e-02 2.147814e-02 2.185946e-02 2.313877e-02 2.359107e-02 2.156341e-02 2.120124e-02 1.852239e-02 1.010933e-02 5.351963e-03 2.473178e-03 5.255596e-03 4.403853e-03 7.662645e-03 6.135917e-03 8.947377e-03 6.991247e-03 9.577340e-03 7.457456e-03 9.854023e-03 7.761883e-03 9.934605e-03 8.007433e-03 9.913266e-03 8.236465e-03 9.846469e-03 8.453142e-03 9.752394e-03 8.627656e-03 9.622132e-03 8.732178e-03 9.456798e-03 8.770241e-03 9.269344e-03 8.764017e-03 9.073044e-03 8.752227e-03 8.915034e-03 8.883298e-03 9.077380e-03 9.799988e-03 1.107401e-02 1.541131e-02 1.892132e-02 1.571136e-03 9.844663e-03 3.667603e-03 6.737611e-03 7.119058e-03 2.787141e-03 1.332062e-02 7.347270e-03 1.157226e-02 1.814621e-02 1.355051e-02 2.514768e-02 2.870173e-02 2.900803e-02 2.905917e-02 2.815596e-02 2.544727e-02 2.012804e-02 1.629992e-02 1.441897e-02 1.241903e-02 1.231318e-02 1.073445e-02 1.155518e-02 9.991874e-03 1.130294e-02 9.688231e-03 1.119552e-02 9.617739e-03 1.108301e-02 9.700018e-03 1.091215e-02 9.902100e-03 1.068020e-02 1.020337e-02 1.040146e-02 1.056699e-02 1.008996e-02 1.093935e-02 9.769628e-03 1.126708e-02 9.485887e-03 1.151417e-02 9.300131e-03 1.165591e-02 9.265187e-03 1.166744e-02 9.412128e-03 1.152216e-02 9.738954e-03 1.120068e-02 1.022146e-02 1.071967e-02 1.083002e-02 1.012161e-02 1.152175e-02 9.455864e-03 1.224262e-02 8.781668e-03 1.294185e-02 8.217502e-03 1.360869e-02 8.217724e-03 1.430862e-02 1.149422e-02 2.172223e-02 1.416290e-02 9.143616e-03 4.102955e-03 9.573376e-03 8.406632e-03 
9.496626e-03 1.221500e-02 1.720672e-02 2.511503e-02 3.639149e-02 1.460963e-02 2.813853e-02 2.076864e-02 2.357699e-02 2.128924e-02 2.122856e-02 2.149229e-02 1.852982e-02 2.399912e-02 2.182422e-02 2.607376e-02 2.275133e-02 2.662584e-02 2.242285e-02 2.525559e-02 2.056928e-02 2.075123e-02 2.042775e-02 2.144602e-02 2.071933e-02 2.159400e-02 2.115323e-02 2.157989e-02 2.156126e-02 2.147368e-02 2.189065e-02 2.133334e-02 2.212736e-02 2.119408e-02 2.227124e-02 2.107482e-02 2.232683e-02 2.098163e-02 2.229569e-02 2.090562e-02 2.216910e-02 2.081834e-02 2.192765e-02 2.067654e-02 2.154330e-02 2.042396e-02 2.096047e-02 1.996786e-02 2.006222e-02 1.913284e-02 1.861437e-02 1.759002e-02 1.617057e-02 1.474922e-02 1.191065e-02 9.787823e-03 5.132417e-03 2.379447e-03 3.109554e-03 5.287743e-03 3.709818e-03 8.096812e-03 6.465956e-03 1.084332e-02 1.262915e-02 1.344128e-02 1.853646e-02 1.992627e-02 2.399933e-02 2.916824e-02 2.771787e-02 3.045055e-02 3.159471e-02 2.945020e-02 2.750866e-02 2.522092e-02 2.494990e-02 2.352514e-02 2.387858e-02 2.272281e-02 2.335357e-02 2.229940e-02 2.306684e-02 2.206050e-02 2.288580e-02 2.192613e-02 2.274947e-02 2.186423e-02 2.262997e-02 2.185955e-02 2.251546e-02 2.190433e-02 2.239643e-02 2.198849e-02 2.226266e-02 2.209783e-02 2.210933e-02 2.222041e-02 2.194214e-02 2.235284e-02 2.177407e-02 2.249820e-02 2.161730e-02 2.265743e-02 2.148125e-02 2.282291e-02 2.137009e-02 2.297971e-02 2.128393e-02 2.311754e-02 2.122497e-02 2.322505e-02 2.120305e-02 2.328616e-02 2.124369e-02 2.328508e-02 2.140778e-02 2.321241e-02 2.186382e-02 2.304635e-02 2.320452e-02 2.275160e-02 3.098735e-02 3.409760e-02 3.670184e-02 1.695159e-02 1.345349e-02 1.005344e-02 
3.297914e-02 3.684729e-02 3.876716e-02 4.849975e-02 5.724764e-02 5.484618e-02 2.746770e-02 3.948648e-02 2.713306e-02 3.424828e-02 2.499727e-02 2.880971e-02 1.846069e-02 2.255920e-02 2.145978e-02 2.233168e-02 2.242972e-02 2.211006e-02 2.268216e-02 2.168662e-02 2.231143e-02 2.040750e-02 2.794989e-02 2.672200e-02 3.116356e-02 2.965481e-02 3.259315e-02 3.113489e-02 3.324229e-02 3.195058e-02 3.349585e-02 3.244642e-02 3.352767e-02 3.277176e-02 3.343344e-02 3.299440e-02 3.327620e-02 3.313818e-02 3.308978e-02 3.319353e-02 3.286640e-02 3.311387e-02 3.255861e-02 3.283982e-02 3.210433e-02 3.230953e-02 3.140732e-02 3.141462e-02 3.027471e-02 2.992585e-02 2.832609e-02 2.739107e-02 2.486896e-02 2.299338e-02 1.864416e-02 1.475654e-02 5.451675e-03 3.974946e-03 6.024095e-03 6.527714e-03 3.746770e-03 1.287593e-02 8.445539e-03 1.510637e-02 1.967605e-02 1.789753e-02 2.888604e-02 2.980211e-02 3.548914e-02 4.629506e-02 4.937972e-02 5.627922e-02 5.491784e-02 4.937306e-02 4.421470e-02 4.156225e-02 3.927086e-02 3.808723e-02 3.705214e-02 3.633719e-02 3.600471e-02 3.541002e-02 3.548660e-02 3.491116e-02 3.518347e-02 3.466079e-02 3.494489e-02 3.457924e-02 3.470651e-02 3.462968e-02 3.445423e-02 3.478784e-02 3.419325e-02 3.501476e-02 3.392926e-02 3.525625e-02 3.367791e-02 3.545866e-02 3.347531e-02 3.558544e-02 3.337285e-02 3.561139e-02 3.341421e-02 3.551180e-02 3.362367e-02 3.526226e-02 3.399769e-02 3.484835e-02 3.451775e-02 3.429482e-02 3.516378e-02 3.365928e-02 3.590094e-02 3.301610e-02 3.668098e-02 3.246094e-02 3.745931e-02 3.215538e-02 3.823069e-02 3.249488e-02 3.900416e-02 3.473414e-02 4.007853e-02 7.072745e-02 5.245806e-02 4.347801e-02 3.497953e-02 3.554689e-02 
3.709484e-02 3.931262e-02 4.099685e-02 4.626933e-02 5.320466e-02 6.384106e-02 5.900464e-02 6.035381e-02 5.499561e-02 5.697189e-02 5.185136e-02 5.307340e-02 4.641830e-02 4.631605e-02 4.608453e-02 4.626263e-02 4.623091e-02 4.618722e-02 4.631487e-02 4.612604e-02 4.629677e-02 4.675051e-02 5.301065e-02 5.264179e-02 5.571690e-02 5.522245e-02 5.724971e-02 5.647977e-02 5.812290e-02 5.709504e-02 5.860627e-02 5.740663e-02 5.884285e-02 5.757427e-02 5.891652e-02 5.767452e-02 5.888262e-02 5.773680e-02 5.877108e-02 5.775392e-02 5.857790e-02 5.768161e-02 5.826477e-02 5.745607e-02 5.777473e-02 5.699971e-02 5.701191e-02 5.618178e-02 5.579043e-02 5.475732e-02 5.377687e-02 5.232397e-02 5.049632e-02 4.848063e-02 4.599397e-02 4.555988e-02 4.392222e-02 2.479362e-02 3.361878e-02 3.335559e-02 3.282891e-02 3.858543e-02 3.567929e-02 4.143405e-02 4.123468e-02 4.045660e-02 4.503398e-02 4.152553e-02 4.303098e-02 4.316652e-02 3.892563e-02 3.833924e-02 4.105097e-02 4.697523e-02 4.962242e-02 5.149256e-02 5.355289e-02 5.450536e-02 5.615233e-02 5.631098e-02 5.772135e-02 5.734482e-02 5.864314e-02 5.794559e-02 5.915406e-02 5.832037e-02 5.939269e-02 5.859527e-02 5.944568e-02 5.884538e-02 5.937602e-02 5.911124e-02 5.922882e-02 5.939713e-02 5.903296e-02 5.968166e-02 5.881376e-02 5.993660e-02 5.860517e-02 6.014084e-02 5.844997e-02 6.027721e-02 5.838359e-02 6.032670e-02 5.842624e-02 6.026926e-02 5.857853e-02 6.009085e-02 5.883461e-02 5.980471e-02 5.919259e-02 5.944897e-02 5.964484e-02 5.907759e-02 6.018270e-02 5.876736e-02 6.082346e-02 5.865137e-02 6.167936e-02 5.899805e-02 6.308058e-02 6.027359e-02 6.704197e-02 6.361818e-02 4.761277e-02 4.419395e-02 3.868231e-02 3.863848e-02 
4.788864e-02 4.999648e-02 4.969693e-02 5.334309e-02 5.431336e-02 6.006870e-02 6.257660e-02 6.347049e-02 6.166725e-02 6.429635e-02 6.248805e-02 6.590699e-02 6.450159e-02 6.346669e-02 6.318800e-02 6.339786e-02 6.336221e-02 6.330137e-02 6.346600e-02 6.321200e-02 6.345602e-02 6.491021e-02 6.545960e-02 6.340319e-02 6.371072e-02 6.280623e-02 6.339210e-02 6.260904e-02 6.337109e-02 6.252224e-02 6.341195e-02 6.248475e-02 6.343999e-02 6.247415e-02 6.342823e-02 6.247676e-02 6.336734e-02 6.247812e-02 6.325171e-02 6.245765e-02 6.307122e-02 6.238693e-02 6.280882e-02 6.223378e-02 6.244463e-02 6.196882e-02 6.196118e-02 6.157426e-02 6.136387e-02 6.107920e-02 6.075565e-02 6.068150e-02 6.055224e-02 6.107634e-02 6.210251e-02 6.485136e-02 6.879101e-02 6.884557e-02 6.753917e-02 6.510917e-02 6.430029e-02 6.290655e-02 6.168280e-02 6.225072e-02 5.849894e-02 6.012631e-02 5.739020e-02 5.774695e-02 5.808263e-02 5.757123e-02 5.769103e-02 5.522031e-02 5.469717e-02 5.730939e-02 5.902466e-02 6.030762e-02 6.138440e-02 6.188983e-02 6.267397e-02 6.272754e-02 6.339904e-02 6.317401e-02 6.379274e-02 6.341685e-02 6.398042e-02 6.356522e-02 6.403294e-02 6.368328e-02 6.399360e-02 6.380636e-02 6.389247e-02 6.394988e-02 6.375218e-02 6.411261e-02 6.359134e-02 6.428173e-02 6.342791e-02 6.443983e-02 6.328194e-02 6.456986e-02 6.317483e-02 6.465651e-02 6.312444e-02 6.468644e-02 6.314137e-02 6.464963e-02 6.322736e-02 6.454237e-02 6.337735e-02 6.437191e-02 6.358040e-02 6.415629e-02 6.381692e-02 6.392139e-02 6.405633e-02 6.369888e-02 6.425494e-02 6.352109e-02 6.434885e-02 6.338379e-02 6.423298e-02 6.306501e-02 6.407229e-02 5.834898e-02 5.378450e-02 5.209306e-02 4.914573e-02 4.951956e-02 
4.712648e-02 4.847537e-02 4.879681e-02 5.133290e-02 5.251030e-02 5.576758e-02 5.704679e-02 5.952360e-02 6.060048e-02 6.296764e-02 6.567093e-02 6.799170e-02 7.415644e-02 7.401686e-02 7.393399e-02 7.400244e-02 7.398352e-02 7.397001e-02 7.401776e-02 7.393067e-02 7.402350e-02 7.424993e-02 6.713875e-02 6.595612e-02 6.285276e-02 6.220802e-02 6.107117e-02 6.034795e-02 6.026337e-02 5.938385e-02 5.988865e-02 5.887844e-02 5.970161e-02 5.862083e-02 5.958771e-02 5.850265e-02 5.949322e-02 5.846212e-02 5.939244e-02 5.845834e-02 5.927144e-02 5.846089e-02 5.912263e-02 5.845010e-02 5.894839e-02 5.842505e-02 5.877293e-02 5.842251e-02 5.867406e-02 5.856569e-02 5.886037e-02 5.917331e-02 5.982252e-02 6.094719e-02 6.263861e-02 6.565047e-02 6.908617e-02 7.122848e-02 6.812405e-02 6.671296e-02 6.821676e-02 6.524715e-02 6.643200e-02 6.709535e-02 6.343576e-02 6.748591e-02 6.471159e-02 6.475000e-02 6.754956e-02 6.438361e-02 6.389994e-02 6.480712e-02 6.317888e-02 6.041002e-02 5.936012e-02 5.858889e-02 5.871392e-02 5.825307e-02 5.879405e-02 5.834827e-02 5.908088e-02 5.856662e-02 5.936532e-02 5.879374e-02 5.957083e-02 5.900252e-02 5.968077e-02 5.919825e-02 5.970316e-02 5.939254e-02 5.965552e-02 5.959226e-02 5.955824e-02 5.979530e-02 5.943215e-02 5.999139e-02 5.929872e-02 6.016564e-02 5.918040e-02 6.030221e-02 5.909914e-02 6.038612e-02 5.907288e-02 6.040455e-02 5.911256e-02 6.034872e-02 5.922039e-02 6.021623e-02 5.938972e-02 6.001316e-02 5.960385e-02 5.975155e-02 5.983108e-02 5.944186e-02 6.001569e-02 5.907842e-02 6.005914e-02 5.861006e-02 5.977807e-02 5.787862e-02 5.881814e-02 5.651741e-02 5.659309e-02 5.368620e-02 5.140012e-02 4.988764e-02 4.801485e-02 4.795961e-02 
5.201035e-02 5.351447e-02 5.318756e-02 5.569954e-02 5.620444e-02 5.922975e-02 6.049896e-02 6.283190e-02 6.406648e-02 6.632851e-02 6.891719e-02 7.098407e-02 7.713152e-02 7.729888e-02 7.717535e-02 7.726862e-02 7.724711e-02 7.721517e-02 7.730281e-02 7.716018e-02 7.731832e-02 7.710517e-02 6.982338e-02 6.900615e-02 6.608239e-02 6.554786e-02 6.454213e-02 6.392821e-02 6.388181e-02 6.315518e-02 6.360620e-02 6.279399e-02 6.349429e-02 6.264712e-02 6.344819e-02 6.262169e-02 6.342621e-02 6.267206e-02 6.341470e-02 6.277655e-02 6.341701e-02 6.293009e-02 6.345149e-02 6.314588e-02 6.355648e-02 6.346464e-02 6.380385e-02 6.397380e-02 6.432524e-02 6.484088e-02 6.535428e-02 6.636086e-02 6.727270e-02 6.898916e-02 7.065211e-02 7.362257e-02 7.688029e-02 7.951473e-02 7.433266e-02 7.508312e-02 7.597824e-02 7.262984e-02 7.428520e-02 7.262661e-02 7.043386e-02 7.260087e-02 6.756302e-02 6.858524e-02 6.584386e-02 6.166235e-02 6.037379e-02 5.974752e-02 6.072236e-02 6.199818e-02 6.250488e-02 6.293141e-02 6.317906e-02 6.319436e-02 6.344749e-02 6.327561e-02 6.358903e-02 6.332081e-02 6.367036e-02 6.336780e-02 6.370405e-02 6.342921e-02 6.369351e-02 6.351148e-02 6.364297e-02 6.361685e-02 6.355909e-02 6.374285e-02 6.345126e-02 6.388238e-02 6.333150e-02 6.402448e-02 6.321385e-02 6.415572e-02 6.311328e-02 6.426177e-02 6.304398e-02 6.432911e-02 6.301755e-02 6.434687e-02 6.304120e-02 6.430850e-02 6.311613e-02 6.421270e-02 6.323573e-02 6.406300e-02 6.338296e-02 6.386462e-02 6.352588e-02 6.361669e-02 6.360870e-02 6.329470e-02 6.353290e-02 6.281451e-02 6.312110e-02 6.196812e-02 6.206127e-02 6.034836e-02 5.987641e-02 5.740805e-02 5.575123e-02 5.453829e-02 5.289760e-02 5.311351e-02 
4.712709e-02 4.847621e-02 4.879789e-02 5.133273e-02 5.251185e-02 5.576647e-02 5.704803e-02 5.952302e-02 6.060110e-02 6.296717e-02 6.567120e-02 6.799092e-02 7.415681e-02 7.401690e-02 7.393386e-02 7.400241e-02 7.398347e-02 7.396991e-02 7.401783e-02 7.393062e-02 7.402374e-02 7.425933e-02 6.715505e-02 6.596665e-02 6.287429e-02 6.222128e-02 6.110109e-02 6.036676e-02 6.030364e-02 5.941281e-02 5.994397e-02 5.892727e-02 5.978156e-02 5.870511e-02 5.970634e-02 5.864308e-02 5.966977e-02 5.868635e-02 5.965591e-02 5.880726e-02 5.967001e-02 5.899871e-02 5.973468e-02 5.927307e-02 5.988962e-02 5.966530e-02 6.019698e-02 6.024126e-02 6.075171e-02 6.110824e-02 6.169121e-02 6.241702e-02 6.318451e-02 6.432349e-02 6.536588e-02 6.698572e-02 6.867720e-02 7.052289e-02 6.813713e-02 6.833492e-02 6.818187e-02 6.672994e-02 6.698292e-02 6.633980e-02 6.535539e-02 6.619079e-02 6.424859e-02 6.535696e-02 6.503471e-02 6.472383e-02 6.477743e-02 6.345953e-02 6.328108e-02 6.317754e-02 6.298952e-02 6.223287e-02 6.206042e-02 6.118884e-02 6.127637e-02 6.041961e-02 6.074749e-02 5.993007e-02 6.041429e-02 5.965595e-02 6.019891e-02 5.953708e-02 6.004130e-02 5.952875e-02 5.990235e-02 5.959794e-02 5.976067e-02 5.971873e-02 5.960979e-02 5.986974e-02 5.945519e-02 6.003158e-02 5.930994e-02 6.018479e-02 5.919001e-02 6.030898e-02 5.911078e-02 6.038472e-02 5.908541e-02 6.039663e-02 5.912338e-02 6.033627e-02 5.922891e-02 6.020325e-02 5.939739e-02 6.000329e-02 5.961133e-02 5.974569e-02 5.983720e-02 5.943849e-02 6.001873e-02 5.907592e-02 6.005895e-02 5.860836e-02 5.977611e-02 5.787844e-02 5.881591e-02 5.651886e-02 5.659105e-02 5.368872e-02 5.139953e-02 4.989018e-02 4.801497e-02 4.796139e-02 
4.788912e-02 4.999840e-02 4.969856e-02 5.334290e-02 5.431633e-02 6.006489e-02 6.257967e-02 6.347025e-02 6.166853e-02 6.429600e-02 6.248849e-02 6.590567e-02 6.450229e-02 6.346724e-02 6.318765e-02 6.339809e-02 6.336214e-02 6.330106e-02 6.346629e-02 6.321144e-02 6.345652e-02 6.491829e-02 6.548716e-02 6.342720e-02 6.376181e-02 6.284836e-02 6.347099e-02 6.267488e-02 6.348300e-02 6.262261e-02 6.356888e-02 6.264159e-02 6.366475e-02 6.272195e-02 6.375362e-02 6.286120e-02 6.383731e-02 6.305918e-02 6.392963e-02 6.332074e-02 6.405651e-02 6.366102e-02 6.425648e-02 6.410716e-02 6.457824e-02 6.469853e-02 6.507990e-02 6.548753e-02 6.582749e-02 6.653583e-02 6.688486e-02 6.789404e-02 6.827648e-02 6.954202e-02 6.989548e-02 7.127105e-02 7.140037e-02 7.263985e-02 7.194826e-02 7.270555e-02 7.225499e-02 7.230575e-02 7.176361e-02 7.179678e-02 7.069641e-02 7.096495e-02 6.948230e-02 6.958296e-02 6.828771e-02 6.786427e-02 6.693241e-02 6.663751e-02 6.630108e-02 6.608443e-02 6.576477e-02 6.538065e-02 6.519412e-02 6.473019e-02 6.473348e-02 6.423353e-02 6.441000e-02 6.390373e-02 6.419762e-02 6.371969e-02 6.405682e-02 6.365346e-02 6.395111e-02 6.367780e-02 6.385212e-02 6.376759e-02 6.374184e-02 6.390065e-02 6.361470e-02 6.405887e-02 6.347710e-02 6.422654e-02 6.334297e-02 6.438734e-02 6.322844e-02 6.452254e-02 6.314813e-02 6.461308e-02 6.311478e-02 6.464392e-02 6.313887e-02 6.460753e-02 6.322764e-02 6.450528e-02 6.338094e-02 6.434471e-02 6.358706e-02 6.413927e-02 6.382349e-02 6.391084e-02 6.405893e-02 6.369120e-02 6.425279e-02 6.351571e-02 6.434438e-02 6.338146e-02 6.422881e-02 6.306523e-02 6.406888e-02 5.835351e-02 5.378248e-02 5.209790e-02 4.914497e-02 4.952313e-02 
3.709637e-02 3.931554e-02 4.099960e-02 4.626911e-02 5.320996e-02 6.383261e-02 5.900821e-02 6.035427e-02 5.499547e-02 5.697269e-02 5.185023e-02 5.307324e-02 4.641809e-02 4.631639e-02 4.608392e-02 4.626254e-02 4.623057e-02 4.618641e-02 4.631481e-02 4.612494e-02 4.629725e-02 4.675613e-02 5.303516e-02 5.265316e-02 5.576681e-02 5.524505e-02 5.732651e-02 5.651174e-02 5.822065e-02 5.713745e-02 5.872987e-02 5.748467e-02 5.902096e-02 5.773578e-02 5.918662e-02 5.797139e-02 5.928019e-02 5.822170e-02 5.933852e-02 5.849910e-02 5.940265e-02 5.882570e-02 5.952656e-02 5.923293e-02 5.976258e-02 5.975211e-02 6.015532e-02 6.041390e-02 6.074142e-02 6.124982e-02 6.155186e-02 6.228721e-02 6.259264e-02 6.350848e-02 6.378602e-02 6.477627e-02 6.489122e-02 6.575275e-02 6.538440e-02 6.584373e-02 6.545527e-02 6.557973e-02 6.513798e-02 6.527478e-02 6.466962e-02 6.495159e-02 6.427965e-02 6.455286e-02 6.407688e-02 6.407248e-02 6.377174e-02 6.343023e-02 6.319420e-02 6.265085e-02 6.250329e-02 6.174325e-02 6.177998e-02 6.088001e-02 6.115448e-02 6.016927e-02 6.066584e-02 5.964074e-02 6.030156e-02 5.929717e-02 6.003708e-02 5.912729e-02 5.983603e-02 5.910216e-02 5.965709e-02 5.918305e-02 5.946535e-02 5.933144e-02 5.924709e-02 5.952140e-02 5.901460e-02 5.973530e-02 5.879418e-02 5.995297e-02 5.861171e-02 6.014251e-02 5.848460e-02 6.026693e-02 5.842834e-02 6.029646e-02 5.845893e-02 6.021785e-02 5.859664e-02 6.003906e-02 5.885345e-02 5.977301e-02 5.921823e-02 5.943847e-02 5.966861e-02 5.907472e-02 6.019115e-02 5.876068e-02 6.081588e-02 5.864414e-02 6.166706e-02 5.899816e-02 6.307171e-02 6.028082e-02 6.702953e-02 6.362903e-02 4.761442e-02 4.420496e-02 3.868360e-02 3.864462e-02 
3.297894e-02 3.685320e-02 3.876755e-02 4.850681e-02 5.724439e-02 5.484297e-02 2.747160e-02 3.948944e-02 2.713265e-02 3.425151e-02 2.499818e-02 2.881295e-02 1.846261e-02 2.255939e-02 2.145775e-02 2.233201e-02 2.242796e-02 2.210828e-02 2.268256e-02 2.168276e-02 2.231194e-02 2.039905e-02 2.797767e-02 2.672991e-02 3.123323e-02 2.968539e-02 3.270620e-02 3.118253e-02 3.338946e-02 3.201545e-02 3.368083e-02 3.256054e-02 3.378479e-02 3.299446e-02 3.380604e-02 3.338594e-02 3.379906e-02 3.375325e-02 3.379710e-02 3.409938e-02 3.383706e-02 3.444330e-02 3.396749e-02 3.481537e-02 3.422575e-02 3.524032e-02 3.462892e-02 3.573350e-02 3.517446e-02 3.630394e-02 3.585047e-02 3.695958e-02 3.663078e-02 3.768237e-02 3.744162e-02 3.838317e-02 3.812647e-02 3.887913e-02 3.844461e-02 3.888538e-02 3.839210e-02 3.849770e-02 3.790370e-02 3.788278e-02 3.709299e-02 3.708587e-02 3.620068e-02 3.612297e-02 3.534836e-02 3.515876e-02 3.455454e-02 3.434767e-02 3.402372e-02 3.390086e-02 3.383849e-02 3.369431e-02 3.385063e-02 3.362024e-02 3.395788e-02 3.361181e-02 3.407840e-02 3.363814e-02 3.416983e-02 3.371073e-02 3.422592e-02 3.385040e-02 3.423981e-02 3.405738e-02 3.419644e-02 3.431259e-02 3.408236e-02 3.458805e-02 3.390490e-02 3.486424e-02 3.369881e-02 3.512707e-02 3.351126e-02 3.535643e-02 3.338424e-02 3.551537e-02 3.334603e-02 3.555950e-02 3.342063e-02 3.545438e-02 3.362918e-02 3.518898e-02 3.399346e-02 3.478218e-02 3.451932e-02 3.425925e-02 3.517678e-02 3.365265e-02 3.591319e-02 3.301923e-02 3.667364e-02 3.246014e-02 3.743009e-02 3.215694e-02 3.819473e-02 3.250970e-02 3.897345e-02 3.476131e-02 4.004434e-02 7.071971e-02 5.245068e-02 4.349332e-02 3.497979e-02 3.555537e-02 
9.491178e-03 1.222099e-02 1.720333e-02 2.512372e-02 3.638652e-02 1.461272e-02 2.813976e-02 2.076474e-02 2.357521e-02 2.128917e-02 2.122512e-02 2.149628e-02 1.852617e-02 2.400116e-02 2.181861e-02 2.607657e-02 2.274899e-02 2.662606e-02 2.242163e-02 2.525959e-02 2.056205e-02 2.076452e-02 2.043685e-02 2.147692e-02 2.074596e-02 2.164042e-02 2.119763e-02 2.164244e-02 2.162531e-02 2.155636e-02 2.198401e-02 2.145017e-02 2.227247e-02 2.136902e-02 2.249533e-02 2.133667e-02 2.265774e-02 2.136282e-02 2.276772e-02 2.145016e-02 2.284266e-02 2.160438e-02 2.290824e-02 2.183364e-02 2.298914e-02 2.214132e-02 2.310583e-02 2.252370e-02 2.327288e-02 2.297129e-02 2.349903e-02 2.346880e-02 2.377852e-02 2.397985e-02 2.407135e-02 2.442312e-02 2.428978e-02 2.467515e-02 2.437835e-02 2.471974e-02 2.424522e-02 2.456852e-02 2.396146e-02 2.421378e-02 2.359842e-02 2.372331e-02 2.316969e-02 2.323532e-02 2.276521e-02 2.279857e-02 2.250410e-02 2.241378e-02 2.224672e-02 2.201789e-02 2.201143e-02 2.172447e-02 2.190173e-02 2.156123e-02 2.189449e-02 2.148991e-02 2.194169e-02 2.147296e-02 2.200860e-02 2.149181e-02 2.207979e-02 2.153946e-02 2.214364e-02 2.161056e-02 2.218617e-02 2.169930e-02 2.219391e-02 2.179924e-02 2.216187e-02 2.190746e-02 2.209432e-02 2.202578e-02 2.199886e-02 2.215804e-02 2.188199e-02 2.230393e-02 2.174998e-02 2.245858e-02 2.161280e-02 2.261713e-02 2.148192e-02 2.277773e-02 2.136904e-02 2.293972e-02 2.128443e-02 2.308939e-02 2.123304e-02 2.320389e-02 2.121966e-02 2.326332e-02 2.126238e-02 2.325923e-02 2.142357e-02 2.318795e-02 2.188146e-02 2.302481e-02 2.322998e-02 2.273228e-02 3.100345e-02 3.404463e-02 3.669825e-02 1.695285e-02 1.345685e-02 1.005739e-02 
1.050321e-02 8.496016e-03 9.286887e-03 6.639215e-03 1.018489e-02 2.540780e-02 1.064697e-02 1.457788e-02 3.091735e-03 1.080005e-02 1.352081e-03 1.083792e-02 1.161633e-02 1.776150e-02 2.149118e-02 2.184977e-02 2.315068e-02 2.358923e-02 2.156214e-02 2.121469e-02 1.850741e-02 1.012620e-02 5.370287e-03 2.494295e-03 5.288624e-03 4.413751e-03 7.708510e-03 6.138620e-03 8.991724e-03 6.975767e-03 9.615818e-03 7.438726e-03 9.909269e-03 7.777336e-03 1.002984e-02 8.086965e-03 1.005154e-02 8.390561e-03 1.001456e-02 8.685020e-03 9.958396e-03 8.978366e-03 9.932421e-03 9.288237e-03 9.974705e-03 9.625576e-03 1.010412e-02 9.992906e-03 1.032179e-02 1.039157e-02 1.062468e-02 1.083617e-02 1.101306e-02 1.134863e-02 1.147801e-02 1.193727e-02 1.197190e-02 1.255036e-02 1.216501e-02 1.261952e-02 1.235488e-02 1.234909e-02 1.217184e-02 1.212205e-02 1.162102e-02 1.184360e-02 1.113808e-02 1.113981e-02 1.071781e-02 1.022359e-02 1.001808e-02 9.464827e-03 9.806025e-03 9.466197e-03 1.019686e-02 9.661474e-03 1.059718e-02 9.772382e-03 1.088083e-02 9.779688e-03 1.103336e-02 9.730514e-03 1.107861e-02 9.697436e-03 1.105421e-02 9.739320e-03 1.097598e-02 9.876103e-03 1.083695e-02 1.009585e-02 1.062427e-02 1.036970e-02 1.034387e-02 1.067320e-02 1.002970e-02 1.098645e-02 9.729809e-03 1.128410e-02 9.489542e-03 1.152422e-02 9.343519e-03 1.165749e-02 9.323495e-03 1.164482e-02 9.455769e-03 1.147065e-02 9.761566e-03 1.114771e-02 1.024184e-02 1.069011e-02 1.085902e-02 1.011322e-02 1.155157e-02 9.450069e-03 1.225576e-02 8.768143e-03 1.293546e-02 8.205107e-03 1.359783e-02 8.216515e-03 1.430554e-02 1.150083e-02 2.171356e-02 1.416542e-02 9.138667e-03 4.095244e-03 9.568099e-03 8.406441e-03 
3.369079e-03 1.114796e-03 3.392517e-03 3.344677e-03 3.437446e-03 9.697424e-03 8.751803e-03 6.042184e-03 5.311286e-03 8.736975e-03 9.383511e-03 1.815475e-02 2.394555e-02 2.471184e-02 1.150158e-02 7.586426e-03 2.927678e-03 4.214843e-03 6.682122e-03 1.197641e-02 2.494202e-02 2.468219e-02 1.586009e-02 1.045435e-02 6.358242e-03 4.492825e-03 2.581988e-03 2.477972e-03 9.536325e-04 2.042271e-03 2.776540e-04 1.948164e-03 3.064313e-04 1.829320e-03 4.934384e-04 1.650519e-03 6.318537e-04 1.435865e-03 7.311878e-04 1.210771e-03 7.925416e-04 9.854084e-04 8.000622e-04 7.574810e-04 7.348942e-04 5.192362e-04 5.878817e-04 2.744128e-04 3.856883e-04 2.577818e-04 3.744979e-04 6.792736e-04 8.314549e-04 1.326696e-03 1.547118e-03 2.153691e-03 2.359251e-03 3.099908e-03 2.416725e-03 2.762109e-03 2.311940e-03 1.914456e-03 1.414006e-03 1.365373e-03 1.530688e-04 7.843234e-04 1.628334e-03 1.759802e-03 2.521768e-03 2.861924e-03 3.073837e-03 3.751491e-03 3.669502e-03 3.627430e-03 2.975862e-03 2.859684e-03 1.986684e-03 2.115830e-03 1.141352e-03 1.579873e-03 5.566235e-04 1.220145e-03 2.548348e-04 9.536482e-04 2.556207e-04 7.122020e-04 3.196474e-04 4.624052e-04 3.392300e-04 2.292853e-04 3.551673e-04 2.623988e-04 4.469939e-04 5.321205e-04 6.182117e-04 8.200820e-04 8.038630e-04 1.074077e-03 9.434728e-04 1.252864e-03 9.971710e-04 1.316097e-03 9.413414e-04 1.236638e-03 7.739061e-04 1.018626e-03 5.600563e-04 7.386039e-04 6.112805e-04 6.703339e-04 1.082728e-03 1.057524e-03 1.702944e-03 1.651187e-03 2.298469e-03 2.254744e-03 2.722201e-03 2.770477e-03 2.755281e-03 3.275620e-03 1.901966e-03 4.971472e-03 4.890017e-03 5.226551e-03 2.746116e-03 1.497968e-03 3.593999e-03 8.446808e-04 
