# vtk DataFile Version 2.0
Comment goes here
ASCII

DATASET STRUCTURED_POINTS
FIELD FieldData 1
TIME 1 1 double
0.01000000
DIMENSIONS    128   16   1

ORIGIN    0.000   0.000   0.000
SPACING   0.0078125 0.015625   1.000

POINT_DATA   2048
SCALARS uMag double
LOOKUP_TABLE default

2.918691e-03 2.010236e-03 2.993633e-03 1.352721e-03 2.801314e-03 8.814475e-04 4.525166e-03 2.017999e-03 2.334351e-03 5.527739e-04 1.220955e-03 5.867231e-03 9.309094e-03 1.747639e-02 1.999021e-02 2.337543e-02 2.413965e-02 2.462043e-02 2.443979e-02 2.156354e-02 1.984790e-02 1.090898e-02 7.942725e-03 1.886069e-03 2.296562e-03 2.437977e-03 6.976522e-04 4.022429e-03 2.483106e-03 4.398814e-03 3.079984e-03 4.027407e-03 3.408416e-03 4.274560e-03 4.352354e-03 5.134763e-03 5.387211e-03 5.836945e-03 5.276914e-03 4.320185e-03 3.617790e-03 3.267015e-03 2.856428e-03 4.004556e-03 5.011490e-03 5.273586e-03 5.609932e-03 3.937541e-03 5.083429e-03 7.357082e-03 5.407524e-03 7.776729e-03 6.786548e-03 4.648352e-03 1.039242e-02 1.434037e-02 1.624533e-02 3.238810e-02 3.504629e-02 1.495156e-02 6.745053e-03 1.521762e-02 1.679636e-02 8.551455e-03 2.046939e-02 1.864368e-02 6.663870e-03 2.590145e-02 2.758028e-02 2.538792e-02 2.282862e-02 5.245465e-02 4.014826e-02 2.093700e-02 2.210319e-02 1.369128e-02 7.977203e-03 9.709792e-03 6.540379e-03 5.017094e-03 3.873713e-03 3.288689e-03 2.641463e-03 2.198862e-03 1.084629e-03 8.466382e-04 1.233050e-03 1.568217e-03 2.249465e-03 2.336498e-03 1.589273e-03 1.230480e-03 1.054026e-03 1.022393e-03 7.175027e-04 3.501876e-04 2.505247e-04 4.233179e-04 5.241688e-04 6.066187e-04 5.880402e-04 6.703339e-04 6.006244e-04 6.563206e-04 6.778909e-04 7.430747e-04 8.654210e-04 8.463719e-04 9.251555e-04 7.667895e-04 7.284459e-04 6.095222e-04 6.522508e-04 8.073766e-04 8.762467e-04 1.045217e-03 8.559527e-04 1.173442e-03 6.512492e-04 4.660914e-04 1.026726e-03 1.172284e-03 8.774351e-04 1.006830e-03 8.519455e-04 7.963319e-04 2.005150e-03 1.770742e-03 
8.791487e-04 4.423580e-04 1.237287e-03 6.896902e-04 8.569854e-04 2.112503e-03 2.606190e-03 3.072987e-03 2.970238e-03 3.886773e-03 5.576506e-03 8.105787e-03 1.190064e-02 1.056719e-02 5.560602e-03 4.000693e-03 9.150771e-04 2.957707e-04 3.636872e-03 4.824331e-03 1.118020e-02 1.297262e-02 9.497573e-03 6.030253e-03 4.632075e-03 3.309795e-03 1.579213e-03 2.704813e-03 1.547275e-03 2.267598e-03 1.899057e-03 1.097249e-03 7.765674e-04 1.863478e-03 2.691258e-03 3.609339e-03 4.998551e-03 6.361469e-03 5.542552e-03 3.894389e-03 2.883605e-03 2.003061e-03 2.339210e-03 4.386993e-03 4.253509e-03 4.669602e-03 5.563725e-03 2.674942e-03 6.542779e-03 6.737706e-03 6.648615e-03 1.628568e-02 1.418550e-02 4.327912e-03 3.270599e-02 3.404521e-02 4.482666e-02 5.192765e-02 9.123295e-02 8.715106e-02 2.560826e-02 2.952913e-02 2.442663e-02 4.164306e-02 1.754970e-02 3.955720e-02 3.681541e-02 5.929320e-02 1.154917e-01 2.945499e-02 6.520050e-02 6.181856e-02 7.495351e-02 4.119946e-02 3.881611e-02 3.685053e-02 1.041051e-02 1.558894e-02 1.345930e-02 7.552919e-03 3.852729e-03 2.564217e-03 3.441192e-03 4.001699e-03 3.377065e-03 2.120314e-03 1.038556e-03 1.639400e-03 4.466822e-03 6.152224e-03 6.461574e-03 3.797912e-03 2.661286e-03 3.731830e-03 3.431132e-03 1.772557e-03 3.720525e-04 1.394253e-03 2.163007e-03 2.651147e-03 2.886142e-03 3.036924e-03 2.920901e-03 2.731161e-03 2.297912e-03 1.851354e-03 1.344361e-03 1.014126e-03 6.992311e-04 8.662758e-04 1.100066e-03 1.436153e-03 1.696579e-03 2.044156e-03 2.251951e-03 2.295643e-03 1.988036e-03 2.572359e-03 1.808655e-03 1.661915e-03 2.537946e-03 2.609093e-04 3.550535e-03 3.711500e-03 1.764238e-03 1.675726e-03 7.147306e-04 5.216918e-04 
4.463327e-03 3.792718e-03 4.001592e-03 2.268343e-03 2.859057e-03 7.509820e-03 6.333852e-03 5.660909e-03 2.458624e-03 4.032685e-03 2.525269e-03 4.541327e-03 7.586305e-03 1.008625e-02 1.164380e-02 1.094214e-02 1.288676e-02 1.284674e-02 1.180443e-02 1.237573e-02 1.129335e-02 8.507417e-03 6.711777e-03 3.567310e-03 6.003428e-03 2.577796e-03 4.744000e-03 2.594196e-03 4.332687e-03 3.194916e-03 5.165399e-03 3.880126e-03 3.652620e-03 4.106768e-03 5.028492e-03 7.908665e-03 8.582293e-03 1.635682e-03 1.338309e-02 1.172579e-02 4.212787e-03 6.573665e-03 5.982594e-03 1.046901e-02 5.109589e-03 3.619949e-03 1.615189e-02 8.979241e-03 1.676038e-02 1.664368e-02 1.142685e-02 3.382767e-02 5.351498e-03 2.475055e-02 5.369097e-02 4.662642e-02 5.929129e-02 9.482461e-02 9.884293e-02 8.164743e-02 3.965782e-02 4.634474e-02 7.846435e-02 3.185281e-02 4.593948e-02 8.575322e-02 5.112863e-02 6.267491e-02 1.080841e-01 8.514719e-02 7.243093e-02 1.205130e-01 1.176803e-01 7.303979e-02 4.390139e-02 6.740438e-02 3.035829e-02 2.303877e-02 3.678057e-02 1.449645e-02 9.323536e-03 1.153961e-02 1.276995e-02 1.370518e-02 1.241047e-02 9.087864e-03 1.032540e-02 7.625655e-03 1.083159e-02 2.167029e-02 1.380536e-02 8.658040e-03 2.479204e-03 7.715694e-03 1.060173e-02 8.483691e-03 6.423913e-03 7.913848e-03 8.152901e-03 7.827514e-03 7.422125e-03 7.456177e-03 7.722978e-03 8.258013e-03 8.439138e-03 8.512241e-03 8.483656e-03 8.602114e-03 8.396325e-03 8.687684e-03 8.740087e-03 8.737886e-03 8.645420e-03 8.795582e-03 9.066130e-03 9.016236e-03 8.484517e-03 1.002015e-02 8.484261e-03 1.003104e-02 1.026531e-02 8.222318e-03 1.446538e-02 8.844356e-03 4.657465e-03 2.799472e-03 3.548788e-03 3.596356e-03 
4.782220e-03 5.147223e-03 7.293687e-03 9.467670e-03 1.440823e-02 5.774633e-03 1.161016e-02 1.147204e-02 9.032604e-03 1.045960e-02 8.113882e-03 1.081384e-02 6.909451e-03 9.753819e-03 1.043016e-02 9.813441e-03 1.068696e-02 1.042595e-02 9.530581e-03 1.005787e-02 8.731150e-03 5.555978e-03 8.839849e-03 7.030726e-03 1.000577e-02 1.021710e-02 1.182822e-02 1.193991e-02 1.262847e-02 1.136982e-02 1.064306e-02 9.036046e-03 8.494222e-03 9.314086e-03 1.204541e-02 1.525332e-02 2.068304e-02 1.717273e-02 2.499702e-02 1.419378e-02 1.365380e-02 7.454606e-03 4.474704e-03 1.146158e-02 1.204477e-02 1.452470e-02 2.103251e-02 3.162307e-02 2.190686e-02 4.145850e-02 1.906152e-02 4.772318e-03 1.545223e-02 3.218730e-02 7.905412e-03 3.230890e-02 2.714816e-02 3.040490e-02 5.540401e-02 3.394287e-02 1.158210e-02 3.417699e-02 2.132593e-02 3.209916e-02 1.156985e-02 5.263907e-02 4.438396e-02 1.811155e-02 7.499672e-02 4.271274e-02 4.011708e-02 6.144255e-02 2.833009e-02 4.143375e-02 5.382121e-02 2.485811e-02 3.790691e-02 2.515002e-02 2.278010e-02 3.123698e-02 8.804528e-03 1.327796e-02 1.377694e-02 1.231298e-02 1.646850e-02 1.373081e-02 1.692575e-02 2.363866e-02 1.589018e-02 3.165665e-02 1.103870e-02 2.304603e-02 5.571504e-03 1.389279e-02 1.131476e-02 1.386960e-02 1.270844e-02 1.285935e-02 1.128232e-02 9.745574e-03 8.730116e-03 8.620831e-03 9.291505e-03 1.070472e-02 1.227782e-02 1.382828e-02 1.498759e-02 1.576711e-02 1.589361e-02 1.587975e-02 1.546040e-02 1.499378e-02 1.440342e-02 1.418935e-02 1.408610e-02 1.438865e-02 1.413921e-02 1.486955e-02 1.439760e-02 1.639695e-02 1.458972e-02 1.592127e-02 1.520160e-02 1.920238e-02 1.777735e-02 1.186407e-02 8.438638e-03 6.119839e-03 
1.727809e-02 1.808771e-02 1.927154e-02 2.269871e-02 2.630114e-02 2.588630e-02 1.659097e-02 1.653400e-02 1.526756e-02 1.558800e-02 1.312043e-02 1.399796e-02 8.006028e-03 1.087903e-02 8.766220e-03 1.020339e-02 9.251310e-03 9.511445e-03 9.946545e-03 8.731091e-03 1.140996e-02 7.544688e-03 1.481622e-02 1.137263e-02 1.609495e-02 1.238520e-02 1.593563e-02 1.315317e-02 1.524503e-02 1.474178e-02 1.622232e-02 1.682778e-02 1.682943e-02 1.631955e-02 1.773319e-02 1.634479e-02 1.279777e-02 8.308211e-03 1.457714e-02 2.240754e-02 2.466779e-02 1.643100e-02 2.048381e-02 1.447599e-02 1.555899e-02 9.037468e-03 1.389414e-02 2.950656e-02 3.786129e-03 4.211755e-02 1.667816e-02 1.287110e-02 1.746047e-02 2.563889e-02 1.776581e-02 2.381815e-02 6.315378e-02 6.943041e-02 7.812765e-02 3.004414e-02 4.231485e-02 2.784737e-02 2.038198e-02 2.072749e-02 2.710143e-02 3.101021e-02 7.764891e-02 4.031380e-02 8.583742e-02 9.271618e-02 6.519835e-02 1.048335e-01 9.142401e-02 1.017861e-01 4.687411e-02 5.554090e-02 4.518828e-02 3.521141e-02 3.927869e-02 3.814216e-02 2.577512e-02 2.766868e-02 2.534194e-02 2.724683e-02 2.526833e-02 1.994185e-02 2.043365e-02 2.080894e-02 1.249605e-02 2.561489e-02 3.121023e-02 2.757408e-02 2.012803e-02 2.693613e-02 2.219719e-02 1.834066e-02 1.738624e-02 1.828721e-02 1.940924e-02 1.995810e-02 2.039561e-02 2.049331e-02 2.035373e-02 1.971816e-02 1.891060e-02 1.793243e-02 1.732788e-02 1.674943e-02 1.650591e-02 1.660011e-02 1.699074e-02 1.706474e-02 1.736985e-02 1.742878e-02 1.793631e-02 1.751829e-02 1.734097e-02 1.840051e-02 1.703558e-02 1.803260e-02 1.998091e-02 1.723359e-02 2.441336e-02 3.430252e-02 2.831130e-02 2.399790e-02 1.991274e-02 1.847108e-02 
2.050519e-02 2.094808e-02 2.197202e-02 2.418629e-02 2.728210e-02 3.153806e-02 3.117280e-02 3.104560e-02 2.886079e-02 2.934082e-02 2.700749e-02 2.775893e-02 2.341232e-02 2.356244e-02 2.299070e-02 2.340595e-02 2.325474e-02 2.320064e-02 2.345870e-02 2.287798e-02 2.364098e-02 2.291862e-02 2.755000e-02 2.557146e-02 2.923863e-02 2.809260e-02 3.068834e-02 2.959287e-02 3.107294e-02 3.002941e-02 3.005573e-02 2.951897e-02 2.922152e-02 2.936427e-02 3.095427e-02 3.320021e-02 3.298377e-02 3.094166e-02 3.326996e-02 3.483119e-02 2.864373e-02 2.540776e-02 2.839174e-02 2.787607e-02 3.107553e-02 3.036410e-02 2.990144e-02 3.215839e-02 1.870648e-02 3.325031e-02 3.410530e-02 2.065343e-02 3.054928e-02 3.724392e-02 3.130322e-02 3.295103e-02 7.034483e-02 3.683662e-02 6.102499e-02 4.878519e-02 1.599251e-02 3.628459e-02 5.931882e-02 5.190770e-02 3.458069e-02 7.295851e-02 5.751341e-02 3.611135e-02 7.225971e-02 5.939261e-02 3.049424e-02 7.125172e-02 4.032431e-02 7.373457e-02 5.833895e-02 4.368129e-02 4.575333e-02 4.306400e-02 4.517491e-02 3.453099e-02 3.221824e-02 3.530980e-02 3.480783e-02 3.597302e-02 3.522562e-02 3.372716e-02 3.673571e-02 3.446159e-02 3.010000e-02 3.423972e-02 3.562889e-02 2.862054e-02 2.722328e-02 3.211214e-02 3.397944e-02 3.301109e-02 3.286955e-02 3.310935e-02 3.274373e-02 3.194317e-02 3.150239e-02 3.143096e-02 3.180151e-02 3.233453e-02 3.295787e-02 3.342301e-02 3.388376e-02 3.403727e-02 3.396996e-02 3.390726e-02 3.379385e-02 3.342605e-02 3.318944e-02 3.300641e-02 3.320278e-02 3.305898e-02 3.282762e-02 3.388050e-02 3.296817e-02 3.451203e-02 3.425569e-02 3.395551e-02 3.753967e-02 3.380460e-02 2.825081e-02 2.511229e-02 2.240647e-02 2.123847e-02 
2.597083e-02 2.638449e-02 2.663410e-02 2.807413e-02 2.907712e-02 3.141649e-02 3.268003e-02 3.383749e-02 3.250355e-02 3.400374e-02 3.295848e-02 3.500367e-02 3.406900e-02 3.383040e-02 3.313042e-02 3.364370e-02 3.338994e-02 3.335149e-02 3.365846e-02 3.298685e-02 3.384833e-02 3.343579e-02 3.473997e-02 3.225590e-02 3.397341e-02 3.259359e-02 3.412025e-02 3.296875e-02 3.413842e-02 3.287715e-02 3.320460e-02 3.217648e-02 3.251031e-02 3.233556e-02 3.339262e-02 3.413079e-02 3.505108e-02 3.483463e-02 3.476498e-02 3.354907e-02 3.124893e-02 2.962521e-02 2.997432e-02 3.061641e-02 3.228950e-02 3.267920e-02 3.088730e-02 3.021304e-02 2.737864e-02 3.152835e-02 3.117446e-02 2.593910e-02 2.532625e-02 2.903759e-02 3.232071e-02 2.652479e-02 4.295418e-02 4.412346e-02 4.165299e-02 4.586492e-02 3.455872e-02 3.400091e-02 4.385375e-02 2.815601e-02 2.945171e-02 5.537615e-02 3.245064e-02 4.436389e-02 6.153799e-02 4.848374e-02 5.190553e-02 5.863006e-02 4.023447e-02 4.625489e-02 5.142954e-02 4.544847e-02 4.352023e-02 4.563359e-02 4.350037e-02 3.877548e-02 3.817389e-02 3.846929e-02 3.804995e-02 3.726138e-02 3.693746e-02 3.692205e-02 3.797588e-02 3.754416e-02 3.617908e-02 3.537118e-02 3.439862e-02 3.284797e-02 3.284963e-02 3.396419e-02 3.500438e-02 3.540277e-02 3.564156e-02 3.542317e-02 3.504578e-02 3.448408e-02 3.422262e-02 3.411569e-02 3.440273e-02 3.476934e-02 3.532285e-02 3.572987e-02 3.613185e-02 3.627687e-02 3.634214e-02 3.623467e-02 3.611107e-02 3.586449e-02 3.567055e-02 3.550424e-02 3.542386e-02 3.544740e-02 3.527064e-02 3.548968e-02 3.528426e-02 3.564341e-02 3.507453e-02 3.521626e-02 3.497026e-02 3.208914e-02 3.022072e-02 2.848488e-02 2.716717e-02 2.652306e-02 
2.612250e-02 2.632619e-02 2.668545e-02 2.761102e-02 2.850230e-02 2.988852e-02 3.084201e-02 3.187734e-02 3.277323e-02 3.370357e-02 3.551183e-02 3.656026e-02 4.020693e-02 4.033749e-02 4.009044e-02 4.026374e-02 4.017879e-02 4.012813e-02 4.023036e-02 3.995652e-02 4.021648e-02 3.994378e-02 3.681636e-02 3.554005e-02 3.446987e-02 3.346172e-02 3.335957e-02 3.250024e-02 3.270008e-02 3.199632e-02 3.215023e-02 3.170726e-02 3.187861e-02 3.175469e-02 3.207444e-02 3.220556e-02 3.238005e-02 3.218148e-02 3.219512e-02 3.202930e-02 3.135479e-02 3.106102e-02 3.121951e-02 3.133170e-02 3.162139e-02 3.208327e-02 3.153258e-02 3.252012e-02 3.130943e-02 3.312958e-02 3.372683e-02 3.330641e-02 3.595776e-02 3.751336e-02 4.102847e-02 4.328294e-02 5.671121e-02 7.035351e-02 5.537283e-02 7.806329e-02 3.359717e-02 4.661173e-02 6.186977e-02 4.110087e-02 5.670316e-02 7.314299e-02 3.184859e-02 5.772741e-02 5.365993e-02 3.498438e-02 4.681797e-02 3.507330e-02 3.751250e-02 4.339561e-02 3.951275e-02 3.686089e-02 3.604152e-02 3.487058e-02 3.475135e-02 3.320228e-02 3.336858e-02 3.317696e-02 3.331904e-02 3.323913e-02 3.339783e-02 3.315451e-02 3.349726e-02 3.321223e-02 3.287626e-02 3.291427e-02 3.285820e-02 3.229373e-02 3.228862e-02 3.260038e-02 3.291340e-02 3.298499e-02 3.312451e-02 3.313522e-02 3.315414e-02 3.307332e-02 3.310326e-02 3.313014e-02 3.329288e-02 3.345044e-02 3.368844e-02 3.387005e-02 3.406718e-02 3.417897e-02 3.424913e-02 3.426564e-02 3.423427e-02 3.416997e-02 3.405650e-02 3.399194e-02 3.383634e-02 3.381265e-02 3.353400e-02 3.358928e-02 3.319778e-02 3.310870e-02 3.271273e-02 3.208002e-02 3.171671e-02 3.021938e-02 2.909652e-02 2.785481e-02 2.698231e-02 2.641321e-02 
2.831143e-02 2.860648e-02 2.871049e-02 2.962164e-02 3.014534e-02 3.146838e-02 3.222936e-02 3.346081e-02 3.413343e-02 3.530876e-02 3.688336e-02 3.799690e-02 4.173585e-02 4.216514e-02 4.180610e-02 4.203609e-02 4.190977e-02 4.183037e-02 4.200767e-02 4.160632e-02 4.202964e-02 4.143395e-02 3.833567e-02 3.694834e-02 3.610909e-02 3.483435e-02 3.500238e-02 3.387625e-02 3.440235e-02 3.345270e-02 3.397996e-02 3.328763e-02 3.379276e-02 3.339961e-02 3.388398e-02 3.367848e-02 3.401354e-02 3.376427e-02 3.384490e-02 3.355039e-02 3.341392e-02 3.325561e-02 3.335656e-02 3.357111e-02 3.377031e-02 3.418396e-02 3.408952e-02 3.469749e-02 3.465524e-02 3.581432e-02 3.640053e-02 3.755824e-02 3.895944e-02 4.178845e-02 4.475363e-02 4.946950e-02 5.523609e-02 7.057387e-02 8.053757e-02 5.799778e-02 4.989297e-02 5.787068e-02 4.849510e-02 4.017477e-02 4.269209e-02 3.753139e-02 1.744058e-02 3.129583e-02 1.808272e-02 1.291674e-02 2.219909e-02 1.116751e-02 1.085106e-02 1.752168e-02 2.242057e-02 2.554825e-02 2.834598e-02 3.017548e-02 3.161913e-02 3.206401e-02 3.290079e-02 3.318255e-02 3.368936e-02 3.377140e-02 3.413454e-02 3.417719e-02 3.450610e-02 3.444833e-02 3.448158e-02 3.431056e-02 3.427809e-02 3.406348e-02 3.414484e-02 3.418279e-02 3.440018e-02 3.445439e-02 3.462023e-02 3.460631e-02 3.468977e-02 3.463466e-02 3.472401e-02 3.473274e-02 3.490405e-02 3.500543e-02 3.523477e-02 3.536843e-02 3.557415e-02 3.566478e-02 3.577572e-02 3.578456e-02 3.578234e-02 3.571027e-02 3.559926e-02 3.549295e-02 3.529929e-02 3.520319e-02 3.491108e-02 3.482686e-02 3.444572e-02 3.428570e-02 3.377665e-02 3.330054e-02 3.270425e-02 3.153931e-02 3.066974e-02 2.973064e-02 2.901946e-02 2.865306e-02 
2.623328e-02 2.645064e-02 2.682761e-02 2.776019e-02 2.866815e-02 3.005570e-02 3.102265e-02 3.203455e-02 3.291343e-02 3.379545e-02 3.560307e-02 3.660679e-02 4.029788e-02 4.040530e-02 4.013708e-02 4.029600e-02 4.017686e-02 4.011930e-02 4.019116e-02 3.993024e-02 4.017000e-02 3.995032e-02 3.695904e-02 3.564970e-02 3.459658e-02 3.350964e-02 3.338626e-02 3.250781e-02 3.274296e-02 3.210348e-02 3.233477e-02 3.196839e-02 3.216176e-02 3.201735e-02 3.216518e-02 3.209033e-02 3.217288e-02 3.211040e-02 3.214160e-02 3.217334e-02 3.218322e-02 3.235011e-02 3.246835e-02 3.279185e-02 3.290716e-02 3.337413e-02 3.340742e-02 3.404770e-02 3.414774e-02 3.494267e-02 3.543278e-02 3.619548e-02 3.713247e-02 3.826532e-02 3.946376e-02 4.117235e-02 4.260675e-02 4.704034e-02 5.220937e-02 4.372229e-02 4.223095e-02 4.552790e-02 4.062001e-02 3.859678e-02 3.754888e-02 3.473079e-02 2.730339e-02 3.101490e-02 2.367636e-02 2.179736e-02 2.479073e-02 1.649438e-02 1.851310e-02 2.147918e-02 2.421870e-02 2.582715e-02 2.744606e-02 2.817810e-02 2.923178e-02 2.947530e-02 3.017189e-02 3.031363e-02 3.081790e-02 3.093471e-02 3.135286e-02 3.146349e-02 3.183388e-02 3.194055e-02 3.218124e-02 3.225078e-02 3.240988e-02 3.238548e-02 3.249371e-02 3.251593e-02 3.264800e-02 3.268662e-02 3.281966e-02 3.286283e-02 3.298052e-02 3.301670e-02 3.313084e-02 3.318724e-02 3.332783e-02 3.342842e-02 3.359887e-02 3.372659e-02 3.389868e-02 3.402006e-02 3.412851e-02 3.420054e-02 3.422576e-02 3.420488e-02 3.410956e-02 3.403390e-02 3.383753e-02 3.375351e-02 3.340358e-02 3.339257e-02 3.295014e-02 3.283530e-02 3.244322e-02 3.185019e-02 3.154945e-02 3.011949e-02 2.906040e-02 2.786747e-02 2.703894e-02 2.649757e-02 
2.622430e-02 2.662869e-02 2.688267e-02 2.829843e-02 2.931528e-02 3.162658e-02 3.294302e-02 3.405345e-02 3.272949e-02 3.406505e-02 3.309072e-02 3.492421e-02 3.427028e-02 3.387465e-02 3.317262e-02 3.359019e-02 3.331021e-02 3.323719e-02 3.351892e-02 3.285462e-02 3.370160e-02 3.334047e-02 3.502493e-02 3.251888e-02 3.423890e-02 3.257775e-02 3.394438e-02 3.267163e-02 3.395575e-02 3.299816e-02 3.379674e-02 3.327384e-02 3.393869e-02 3.377375e-02 3.420871e-02 3.397771e-02 3.414225e-02 3.386929e-02 3.395159e-02 3.390412e-02 3.414790e-02 3.445983e-02 3.489776e-02 3.537366e-02 3.570803e-02 3.615484e-02 3.637510e-02 3.696551e-02 3.732775e-02 3.812184e-02 3.866558e-02 3.958473e-02 4.057319e-02 4.177697e-02 4.298926e-02 4.397769e-02 4.552960e-02 4.584627e-02 4.733966e-02 4.437099e-02 4.336424e-02 4.186706e-02 3.905418e-02 3.678734e-02 3.378256e-02 3.188711e-02 2.750703e-02 2.746425e-02 2.355487e-02 2.296712e-02 2.257228e-02 2.076527e-02 2.181808e-02 2.212209e-02 2.400856e-02 2.485315e-02 2.644392e-02 2.726769e-02 2.856443e-02 2.908494e-02 2.993974e-02 3.025129e-02 3.089436e-02 3.115524e-02 3.173467e-02 3.206131e-02 3.267273e-02 3.303160e-02 3.350975e-02 3.366909e-02 3.387592e-02 3.380811e-02 3.386399e-02 3.379010e-02 3.392073e-02 3.396266e-02 3.417695e-02 3.425716e-02 3.444771e-02 3.447836e-02 3.461443e-02 3.462633e-02 3.478292e-02 3.486465e-02 3.509854e-02 3.525836e-02 3.554940e-02 3.573508e-02 3.596210e-02 3.608152e-02 3.618298e-02 3.610072e-02 3.596900e-02 3.574821e-02 3.550377e-02 3.529124e-02 3.484145e-02 3.481285e-02 3.442324e-02 3.470706e-02 3.418278e-02 3.454428e-02 3.463739e-02 3.199676e-02 3.027897e-02 2.863468e-02 2.737765e-02 2.675831e-02 
2.088974e-02 2.134149e-02 2.238980e-02 2.462585e-02 2.778747e-02 3.214524e-02 3.191173e-02 3.167419e-02 2.924057e-02 2.942971e-02 2.700453e-02 2.773497e-02 2.358031e-02 2.377631e-02 2.312482e-02 2.348596e-02 2.318544e-02 2.306834e-02 2.322378e-02 2.272255e-02 2.342366e-02 2.283100e-02 2.818036e-02 2.640773e-02 2.987776e-02 2.819746e-02 3.045880e-02 2.928400e-02 3.093046e-02 3.018865e-02 3.066315e-02 3.054821e-02 3.073474e-02 3.108636e-02 3.110645e-02 3.106367e-02 3.105782e-02 3.088500e-02 3.088066e-02 3.099429e-02 3.117374e-02 3.167899e-02 3.216538e-02 3.270648e-02 3.297739e-02 3.336131e-02 3.344799e-02 3.388825e-02 3.405655e-02 3.474841e-02 3.491837e-02 3.558574e-02 3.612933e-02 3.690182e-02 3.749581e-02 3.779429e-02 3.849579e-02 3.818566e-02 3.884951e-02 3.772783e-02 3.706687e-02 3.614942e-02 3.467379e-02 3.331804e-02 3.143266e-02 3.063891e-02 2.794440e-02 2.761205e-02 2.571597e-02 2.492682e-02 2.427472e-02 2.333223e-02 2.354208e-02 2.329566e-02 2.426925e-02 2.459060e-02 2.557982e-02 2.597390e-02 2.692568e-02 2.724611e-02 2.777733e-02 2.789974e-02 2.832050e-02 2.853466e-02 2.903511e-02 2.943955e-02 3.006503e-02 3.056779e-02 3.108186e-02 3.134909e-02 3.160488e-02 3.160362e-02 3.158360e-02 3.148204e-02 3.153812e-02 3.157472e-02 3.173105e-02 3.181407e-02 3.195514e-02 3.198827e-02 3.207048e-02 3.207191e-02 3.218737e-02 3.230059e-02 3.250546e-02 3.268883e-02 3.306371e-02 3.332509e-02 3.351182e-02 3.378230e-02 3.400221e-02 3.389814e-02 3.380105e-02 3.360240e-02 3.362346e-02 3.321595e-02 3.263488e-02 3.337066e-02 3.219142e-02 3.358097e-02 3.327044e-02 3.316699e-02 3.680334e-02 3.334844e-02 2.817130e-02 2.522750e-02 2.267753e-02 2.157202e-02 
1.786049e-02 1.858422e-02 1.970792e-02 2.311244e-02 2.676497e-02 2.630941e-02 1.666635e-02 1.607437e-02 1.429073e-02 1.397780e-02 1.127057e-02 1.214192e-02 6.220913e-03 9.062157e-03 7.318105e-03 9.137569e-03 8.421580e-03 8.927873e-03 9.547154e-03 8.503572e-03 1.129923e-02 7.582988e-03 1.512262e-02 1.221252e-02 1.704586e-02 1.341300e-02 1.714492e-02 1.465560e-02 1.666187e-02 1.529614e-02 1.580513e-02 1.515123e-02 1.479795e-02 1.461394e-02 1.437396e-02 1.441405e-02 1.492782e-02 1.532484e-02 1.592287e-02 1.633471e-02 1.651574e-02 1.668975e-02 1.670447e-02 1.675850e-02 1.690471e-02 1.739627e-02 1.781724e-02 1.851427e-02 1.892660e-02 2.004251e-02 2.058067e-02 2.178086e-02 2.244088e-02 2.333625e-02 2.459487e-02 2.524054e-02 2.621065e-02 2.603879e-02 2.637145e-02 2.434297e-02 2.366817e-02 2.217597e-02 2.038320e-02 1.887509e-02 1.713631e-02 1.541875e-02 1.295067e-02 1.235933e-02 9.571619e-03 8.735996e-03 7.663946e-03 6.738334e-03 7.156732e-03 7.668922e-03 8.867240e-03 9.381457e-03 1.101284e-02 1.141456e-02 1.271797e-02 1.333279e-02 1.443906e-02 1.497942e-02 1.584333e-02 1.634162e-02 1.701680e-02 1.731152e-02 1.759006e-02 1.758591e-02 1.767236e-02 1.775333e-02 1.818814e-02 1.857675e-02 1.901954e-02 1.923203e-02 1.943383e-02 1.935762e-02 1.928510e-02 1.903880e-02 1.893301e-02 1.875293e-02 1.875008e-02 1.864381e-02 1.869048e-02 1.860917e-02 1.857576e-02 1.839386e-02 1.846148e-02 1.829399e-02 1.820717e-02 1.833839e-02 1.871237e-02 1.891842e-02 1.956937e-02 2.012089e-02 2.124787e-02 2.158491e-02 2.183212e-02 2.348360e-02 2.231031e-02 2.318740e-02 2.451752e-02 2.139121e-02 2.638611e-02 3.447467e-02 2.861383e-02 2.452744e-02 2.054309e-02 1.909876e-02 
5.480457e-03 5.487320e-03 7.326256e-03 9.445756e-03 1.449222e-02 6.277560e-03 1.270527e-02 1.262089e-02 1.058476e-02 1.193422e-02 9.264868e-03 1.172359e-02 7.712282e-03 1.054500e-02 1.069390e-02 1.015252e-02 1.040365e-02 1.036061e-02 8.993790e-03 1.013300e-02 8.388397e-03 6.591489e-03 1.000961e-02 7.548609e-03 9.946269e-03 9.522538e-03 1.047203e-02 1.039605e-02 1.137169e-02 1.157096e-02 1.162111e-02 1.222834e-02 1.257746e-02 1.328202e-02 1.347587e-02 1.336126e-02 1.302540e-02 1.246490e-02 1.214831e-02 1.197037e-02 1.224288e-02 1.282239e-02 1.363693e-02 1.417803e-02 1.455030e-02 1.450310e-02 1.443214e-02 1.426676e-02 1.430122e-02 1.403794e-02 1.404916e-02 1.359169e-02 1.401894e-02 1.382248e-02 1.357487e-02 1.309607e-02 1.283446e-02 1.224048e-02 1.192156e-02 1.254121e-02 1.200034e-02 1.154852e-02 1.131505e-02 1.055114e-02 9.764506e-03 9.644125e-03 9.299227e-03 8.657477e-03 9.187516e-03 9.399151e-03 9.400504e-03 1.007338e-02 9.834517e-03 9.436093e-03 8.854830e-03 9.057991e-03 8.417676e-03 8.694731e-03 8.538330e-03 8.542379e-03 8.100271e-03 7.921124e-03 7.651079e-03 7.655044e-03 7.759190e-03 8.157186e-03 8.755700e-03 9.514150e-03 1.009744e-02 1.050799e-02 1.052596e-02 1.026396e-02 9.829208e-03 9.547207e-03 9.396393e-03 9.525433e-03 9.740628e-03 1.008206e-02 1.031776e-02 1.055109e-02 1.063197e-02 1.075674e-02 1.083575e-02 1.107977e-02 1.131301e-02 1.173140e-02 1.214452e-02 1.258170e-02 1.280851e-02 1.312375e-02 1.296190e-02 1.258182e-02 1.181925e-02 1.112222e-02 1.007203e-02 9.177838e-03 8.272752e-03 7.799022e-03 6.866009e-03 8.780652e-03 8.710587e-03 9.498061e-03 1.041798e-02 1.900985e-02 1.813290e-02 1.259160e-02 9.289399e-03 7.006540e-03 
4.887799e-03 3.952059e-03 3.856785e-03 1.812405e-03 2.483918e-03 8.263481e-03 7.562750e-03 5.153352e-03 1.725577e-03 3.255927e-03 2.592189e-03 5.022554e-03 8.186667e-03 9.857627e-03 1.202930e-02 1.115863e-02 1.308117e-02 1.294958e-02 1.187547e-02 1.224320e-02 1.107528e-02 8.227405e-03 5.929489e-03 2.408341e-03 6.018085e-03 2.107282e-03 4.797402e-03 3.228505e-03 4.881284e-03 3.915606e-03 4.421816e-03 4.394835e-03 4.180778e-03 4.083813e-03 3.797169e-03 3.512495e-03 3.851353e-03 3.765726e-03 4.094796e-03 4.267825e-03 4.567985e-03 4.981891e-03 5.295070e-03 5.380265e-03 5.416920e-03 5.582309e-03 5.723018e-03 6.132398e-03 6.349788e-03 6.916082e-03 7.731285e-03 8.357909e-03 1.006096e-02 1.061630e-02 1.238126e-02 1.391294e-02 1.518323e-02 1.572901e-02 1.621905e-02 1.182485e-02 1.130094e-02 1.068954e-02 8.899173e-03 8.706585e-03 8.197133e-03 6.593800e-03 3.952548e-03 4.046418e-03 2.821289e-03 4.494484e-03 6.385396e-03 9.769709e-03 8.523960e-03 6.863941e-03 5.598930e-03 2.868463e-03 1.451335e-03 8.548064e-04 1.499823e-03 2.580641e-03 3.310043e-03 3.838240e-03 4.303170e-03 4.747705e-03 5.119954e-03 5.486791e-03 5.777287e-03 6.136192e-03 6.338566e-03 6.739912e-03 7.095161e-03 7.375584e-03 7.354969e-03 7.364720e-03 7.228937e-03 7.221857e-03 7.112738e-03 7.152456e-03 7.076616e-03 7.154486e-03 7.102660e-03 7.177946e-03 7.121163e-03 7.231000e-03 7.147493e-03 7.222558e-03 7.293231e-03 7.472561e-03 7.337670e-03 7.695086e-03 7.829165e-03 7.942350e-03 7.979429e-03 8.190034e-03 8.270998e-03 7.873582e-03 7.542269e-03 8.566018e-03 6.919993e-03 8.321230e-03 9.460454e-03 6.948621e-03 1.155323e-02 8.106951e-03 5.681795e-03 4.133647e-03 4.714590e-03 4.380469e-03 
1.261363e-03 6.637843e-04 8.872515e-04 4.372622e-04 1.881168e-04 2.713076e-03 2.954355e-03 2.354424e-03 2.271496e-03 3.415378e-03 5.245880e-03 8.087580e-03 1.211461e-02 1.096482e-02 6.246665e-03 4.633032e-03 1.582425e-03 7.416533e-04 3.280734e-03 4.430958e-03 1.084336e-02 1.257312e-02 9.049373e-03 5.642167e-03 4.312015e-03 2.935226e-03 1.619286e-03 2.532871e-03 1.214392e-03 2.387000e-03 1.554858e-03 2.409069e-03 2.266240e-03 2.681867e-03 2.852553e-03 3.030269e-03 2.917214e-03 2.672355e-03 2.056289e-03 1.516129e-03 1.345938e-03 1.328038e-03 1.108341e-03 1.340393e-03 1.394780e-03 1.189897e-03 1.129151e-03 1.428647e-03 1.035349e-03 2.763456e-03 3.757007e-03 5.139026e-03 7.551727e-03 6.949400e-03 1.050243e-02 1.193241e-02 1.299951e-02 1.432191e-02 1.714108e-02 1.380070e-02 9.235402e-03 9.872062e-03 6.016475e-03 2.656301e-03 3.769446e-03 9.389365e-03 8.369109e-03 1.328341e-02 2.167699e-02 1.636284e-02 1.842261e-02 1.996521e-02 1.756191e-02 1.423542e-02 1.508917e-02 1.190424e-02 9.539264e-03 8.754406e-03 6.204125e-03 5.119591e-03 3.260784e-03 2.531558e-03 1.470517e-03 1.151295e-03 7.220360e-04 7.277838e-04 8.023406e-04 8.330341e-04 8.943640e-04 1.168164e-03 1.563761e-03 1.872659e-03 2.122357e-03 2.346856e-03 2.271588e-03 2.095319e-03 1.898675e-03 1.855173e-03 1.784294e-03 1.828404e-03 1.813729e-03 1.869632e-03 1.791842e-03 1.740849e-03 1.507856e-03 1.337141e-03 1.124741e-03 1.025064e-03 8.689935e-04 1.057088e-03 1.236640e-03 1.562489e-03 1.904102e-03 2.299108e-03 2.639016e-03 2.780604e-03 2.837066e-03 3.519572e-03 2.807696e-03 2.721900e-03 3.934753e-03 2.257019e-03 2.603537e-03 3.589189e-03 2.318850e-03 2.361122e-03 1.766681e-03 1.435364e-03 
