# vtk DataFile Version 2.0
Comment goes here
ASCII

DATASET STRUCTURED_POINTS
FIELD FieldData 1
TIME 1 1 double
0.49000000
DIMENSIONS    128   16   1

ORIGIN    0.000   0.000   0.000
SPACING   0.0078125 0.015625   1.000

POINT_DATA   2048
SCALARS uMag double
LOOKUP_TABLE default

2.025620e-03 2.977165e-03 1.249383e-03 3.119430e-03 6.677720e-04 6.134752e-03 4.759335e-03 1.115135e-03 3.341013e-03 2.249288e-03 1.724707e-03 9.078731e-03 1.256088e-02 2.118004e-02 2.497707e-02 2.886581e-02 2.798001e-02 3.010478e-02 2.699621e-02 2.575910e-02 2.105758e-02 1.360022e-02 7.915427e-03 3.844591e-03 9.703697e-04 5.558570e-04 1.881564e-03 2.578057e-03 2.988943e-03 3.578311e-03 3.335341e-03 4.115610e-03 3.369227e-03 4.422543e-03 3.298527e-03 4.588330e-03 3.219666e-03 4.644731e-03 3.177382e-03 4.604533e-03 3.189858e-03 4.479207e-03 3.262395e-03 4.289726e-03 3.395058e-03 4.067018e-03 3.579297e-03 3.839141e-03 3.783371e-03 3.617359e-03 3.939073e-03 3.384319e-03 3.923395e-03 3.032786e-03 3.443966e-03 2.116778e-03 1.579913e-03 6.425013e-04 2.712022e-03 3.975798e-03 2.473369e-03 1.589233e-03 5.694658e-03 2.033112e-03 4.295302e-03 5.148193e-03 5.873204e-04 3.419185e-03 2.878995e-03 8.864788e-03 5.907386e-03 3.350729e-03 2.112479e-03 3.417874e-03 2.360326e-03 3.457300e-03 2.445202e-03 3.437772e-03 2.579689e-03 3.370575e-03 2.748568e-03 3.228563e-03 2.933075e-03 3.023519e-03 3.131811e-03 2.791647e-03 3.338635e-03 2.561879e-03 3.530570e-03 2.357211e-03 3.681473e-03 2.205608e-03 3.766545e-03 2.132280e-03 3.759461e-03 2.154915e-03 3.642659e-03 2.289244e-03 3.415390e-03 2.541074e-03 3.085992e-03 2.892777e-03 2.671243e-03 3.307097e-03 2.208434e-03 3.736704e-03 1.756178e-03 4.122776e-03 1.382972e-03 4.395788e-03 1.161350e-03 4.486019e-03 1.160606e-03 4.329161e-03 1.426136e-03 3.877129e-03 1.973200e-03 3.132339e-03 2.798222e-03 2.199903e-03 3.911142e-03 1.395712e-03 5.579819e-03 6.542775e-04 1.847577e-03 1.170371e-03 1.937985e-03 2.427204e-03 
5.533416e-04 1.098275e-03 1.178264e-03 7.390830e-04 4.339139e-03 5.876292e-03 6.082646e-03 1.716546e-03 5.288506e-03 5.273270e-03 7.681716e-03 1.097008e-02 1.257946e-02 1.241401e-02 9.168628e-03 3.826640e-03 4.988241e-03 3.444203e-03 5.860724e-03 6.870065e-03 1.228645e-02 1.333860e-02 9.787868e-03 7.104831e-03 4.492910e-03 3.115161e-03 2.186773e-03 1.611161e-03 1.183120e-03 1.246033e-03 6.565403e-04 1.271417e-03 3.342385e-04 1.352722e-03 1.762225e-04 1.413659e-03 1.853351e-04 1.427545e-03 2.378026e-04 1.376419e-03 2.990252e-04 1.238944e-03 3.756358e-04 1.023049e-03 4.511018e-04 7.713993e-04 5.754636e-04 4.922762e-04 7.952662e-04 3.808366e-04 1.118605e-03 1.207792e-03 1.863569e-03 3.114589e-03 4.297274e-03 7.381123e-03 7.449822e-03 7.950649e-03 1.091704e-02 1.282883e-02 5.995351e-03 1.050662e-02 7.437011e-03 3.455581e-03 8.819094e-03 1.244256e-02 3.856962e-03 6.560750e-03 2.755331e-02 1.005007e-02 1.085745e-02 7.617814e-03 1.039067e-03 1.341575e-03 7.253813e-04 9.306257e-04 6.477208e-04 8.699569e-04 5.878306e-04 7.385972e-04 4.338016e-04 5.424033e-04 2.702701e-04 4.182065e-04 1.744750e-04 5.345639e-04 1.517848e-04 7.579787e-04 2.144926e-04 9.641851e-04 3.188250e-04 1.106005e-03 4.002343e-04 1.176558e-03 3.960670e-04 1.180248e-03 2.973829e-04 1.091513e-03 2.513626e-04 8.883981e-04 4.643258e-04 6.135131e-04 8.195072e-04 4.309649e-04 1.225233e-03 5.961596e-04 1.644974e-03 8.781625e-04 2.030905e-03 1.077781e-03 2.277135e-03 1.160925e-03 2.287706e-03 1.091848e-03 2.046565e-03 8.490267e-04 1.612748e-03 8.172326e-04 1.098389e-03 1.586961e-03 1.088226e-03 2.795919e-03 2.980127e-03 5.232202e-03 2.256231e-03 1.375323e-03 1.323867e-03 3.348978e-04 
3.666531e-03 4.160388e-03 9.407433e-04 4.209061e-03 1.130581e-02 1.524197e-02 1.163409e-02 7.204758e-03 4.569908e-03 4.676109e-03 2.508411e-03 3.242915e-04 4.153100e-03 7.567169e-03 8.958728e-03 1.016211e-02 9.162994e-03 1.045827e-02 9.018072e-03 8.703248e-03 7.640131e-03 2.491000e-03 1.777476e-03 3.977530e-03 3.092112e-03 6.091903e-03 4.876735e-03 6.832298e-03 5.867228e-03 6.999283e-03 6.545218e-03 6.937959e-03 7.063805e-03 6.773446e-03 7.437205e-03 6.576806e-03 7.679011e-03 6.415699e-03 7.804871e-03 6.332852e-03 7.846228e-03 6.375407e-03 7.834789e-03 6.518263e-03 7.693869e-03 6.621218e-03 7.326128e-03 6.572360e-03 6.777908e-03 6.425601e-03 6.296166e-03 6.456264e-03 6.351124e-03 7.364637e-03 8.443781e-03 1.054114e-02 6.410472e-03 8.434281e-03 1.185010e-03 8.993742e-03 1.395449e-02 8.023583e-03 1.361989e-02 8.256492e-03 1.189137e-02 1.525283e-02 2.313814e-03 7.901167e-03 1.538597e-02 1.411423e-02 1.204015e-02 6.617134e-03 7.497707e-03 6.644085e-03 7.310784e-03 6.731893e-03 7.650778e-03 6.951848e-03 7.793554e-03 7.139306e-03 7.778231e-03 7.360425e-03 7.731544e-03 7.682200e-03 7.684900e-03 8.053177e-03 7.587580e-03 8.393050e-03 7.438068e-03 8.664094e-03 7.260392e-03 8.839683e-03 7.106739e-03 8.942556e-03 7.063522e-03 9.004218e-03 7.166738e-03 8.978125e-03 7.376746e-03 8.799983e-03 7.662147e-03 8.480870e-03 8.018200e-03 8.053383e-03 8.413913e-03 7.585855e-03 8.856790e-03 7.186513e-03 9.327695e-03 6.876624e-03 9.678143e-03 6.656892e-03 9.767134e-03 6.614469e-03 9.588574e-03 6.891964e-03 9.211822e-03 7.597306e-03 8.599844e-03 8.788036e-03 7.616771e-03 1.084582e-02 6.872266e-03 1.609910e-02 8.758208e-03 3.773062e-03 3.686357e-03 3.674760e-03 
5.536703e-03 7.320459e-03 1.042813e-02 1.934853e-02 1.146681e-02 2.373861e-02 1.576175e-02 1.190129e-02 1.722414e-02 1.095217e-02 1.734451e-02 1.088656e-02 1.758081e-02 1.322835e-02 1.895584e-02 1.561000e-02 1.860531e-02 1.676760e-02 1.750715e-02 1.729867e-02 1.503203e-02 1.614305e-02 1.306204e-02 1.560645e-02 1.278689e-02 1.535236e-02 1.275674e-02 1.515095e-02 1.285813e-02 1.496613e-02 1.303588e-02 1.476860e-02 1.325078e-02 1.454111e-02 1.345939e-02 1.429659e-02 1.363853e-02 1.405710e-02 1.377864e-02 1.383717e-02 1.387604e-02 1.364799e-02 1.391999e-02 1.347346e-02 1.384075e-02 1.325371e-02 1.356105e-02 1.289515e-02 1.302269e-02 1.227051e-02 1.212282e-02 1.121264e-02 1.060040e-02 9.402575e-03 8.031229e-03 6.790478e-03 3.820312e-03 3.571389e-03 8.514937e-03 5.027070e-03 8.175578e-03 1.012990e-02 5.871254e-03 1.291932e-02 1.001871e-02 1.218715e-02 1.374748e-02 7.829367e-03 1.512327e-02 1.001352e-02 8.506805e-03 8.190436e-03 1.015617e-02 1.131101e-02 1.196388e-02 1.255839e-02 1.293352e-02 1.321635e-02 1.346622e-02 1.354325e-02 1.374835e-02 1.371962e-02 1.392610e-02 1.386584e-02 1.404379e-02 1.401468e-02 1.409067e-02 1.415614e-02 1.407655e-02 1.428434e-02 1.401581e-02 1.439268e-02 1.393084e-02 1.449484e-02 1.384856e-02 1.461093e-02 1.377973e-02 1.472135e-02 1.372342e-02 1.479734e-02 1.368036e-02 1.483672e-02 1.365657e-02 1.483459e-02 1.364842e-02 1.480049e-02 1.367118e-02 1.474069e-02 1.376484e-02 1.461844e-02 1.391301e-02 1.443314e-02 1.408495e-02 1.422510e-02 1.431391e-02 1.402698e-02 1.467639e-02 1.388195e-02 1.518861e-02 1.382617e-02 1.595425e-02 1.375347e-02 1.793396e-02 1.290221e-02 2.344036e-02 1.794383e-02 1.156867e-02 6.443713e-03 
2.506978e-02 2.471324e-02 3.081445e-02 3.291174e-02 4.010061e-02 2.038358e-02 2.208599e-02 2.444264e-02 1.889575e-02 2.271312e-02 1.819504e-02 1.954185e-02 1.774241e-02 1.820836e-02 1.894599e-02 1.863729e-02 1.914413e-02 1.891049e-02 1.883012e-02 1.934475e-02 1.782161e-02 1.966738e-02 1.877451e-02 2.065879e-02 2.043084e-02 2.115363e-02 2.122526e-02 2.125586e-02 2.170802e-02 2.123036e-02 2.207607e-02 2.117272e-02 2.235876e-02 2.109027e-02 2.252170e-02 2.099369e-02 2.255966e-02 2.091531e-02 2.248094e-02 2.087507e-02 2.230985e-02 2.090087e-02 2.206851e-02 2.094724e-02 2.166105e-02 2.084793e-02 2.093134e-02 2.042180e-02 1.977203e-02 1.951614e-02 1.805940e-02 1.786808e-02 1.535487e-02 1.472012e-02 1.033682e-02 7.987242e-03 8.495862e-04 2.891590e-03 8.544907e-03 3.703007e-03 5.485236e-03 1.059614e-02 1.454090e-03 1.302622e-02 8.418370e-03 8.143180e-03 1.792888e-02 9.133595e-03 1.776961e-02 1.973465e-02 1.418079e-02 1.431709e-02 1.675697e-02 1.789041e-02 1.964397e-02 1.955861e-02 2.101140e-02 2.056565e-02 2.167330e-02 2.117530e-02 2.192145e-02 2.161646e-02 2.201514e-02 2.203628e-02 2.205816e-02 2.242877e-02 2.203706e-02 2.274425e-02 2.196275e-02 2.296423e-02 2.186045e-02 2.307624e-02 2.178004e-02 2.311103e-02 2.180389e-02 2.310695e-02 2.196322e-02 2.302695e-02 2.221290e-02 2.281317e-02 2.251978e-02 2.247872e-02 2.287930e-02 2.205915e-02 2.326205e-02 2.162524e-02 2.367243e-02 2.128931e-02 2.408267e-02 2.107191e-02 2.434066e-02 2.095462e-02 2.430087e-02 2.100662e-02 2.394154e-02 2.138057e-02 2.331967e-02 2.221717e-02 2.242700e-02 2.362727e-02 2.124846e-02 2.597685e-02 2.017635e-02 3.445373e-02 4.190749e-02 3.374533e-02 2.821778e-02 2.470112e-02 
3.037746e-02 3.134691e-02 3.424997e-02 3.849662e-02 4.529059e-02 4.771924e-02 4.167802e-02 4.138088e-02 4.045294e-02 3.891123e-02 3.830458e-02 3.575301e-02 3.502561e-02 3.448510e-02 3.488103e-02 3.459842e-02 3.479337e-02 3.474370e-02 3.463907e-02 3.490150e-02 3.445213e-02 3.508145e-02 3.685949e-02 3.922738e-02 3.910153e-02 4.100293e-02 4.023736e-02 4.175555e-02 4.095618e-02 4.202943e-02 4.149356e-02 4.207722e-02 4.191749e-02 4.200186e-02 4.222327e-02 4.186154e-02 4.241484e-02 4.171091e-02 4.249881e-02 4.158496e-02 4.248913e-02 4.151664e-02 4.239629e-02 4.147661e-02 4.214977e-02 4.133794e-02 4.163920e-02 4.097325e-02 4.081061e-02 4.031558e-02 3.966334e-02 3.931146e-02 3.817672e-02 3.795993e-02 3.662922e-02 3.657105e-02 3.170835e-02 3.297446e-02 3.243555e-02 3.200037e-02 3.446099e-02 3.424740e-02 3.118935e-02 3.451123e-02 3.425508e-02 3.201641e-02 3.313330e-02 3.180024e-02 3.138923e-02 2.959327e-02 2.852774e-02 2.909288e-02 3.246961e-02 3.418053e-02 3.641383e-02 3.748632e-02 3.914553e-02 3.954218e-02 4.067130e-02 4.072955e-02 4.146782e-02 4.148344e-02 4.190254e-02 4.206163e-02 4.215142e-02 4.253657e-02 4.225907e-02 4.291087e-02 4.226236e-02 4.319013e-02 4.219881e-02 4.337584e-02 4.211838e-02 4.349724e-02 4.209239e-02 4.358181e-02 4.215074e-02 4.360069e-02 4.226614e-02 4.350982e-02 4.242221e-02 4.331470e-02 4.262670e-02 4.303868e-02 4.287255e-02 4.272879e-02 4.317726e-02 4.246475e-02 4.352380e-02 4.226089e-02 4.380483e-02 4.209118e-02 4.392302e-02 4.199540e-02 4.387327e-02 4.209692e-02 4.371873e-02 4.252702e-02 4.352639e-02 4.338932e-02 4.346598e-02 4.482059e-02 4.432226e-02 4.811224e-02 4.214670e-02 3.578943e-02 3.250277e-02 3.060351e-02 
3.760451e-02 3.838066e-02 3.934036e-02 4.208769e-02 4.390230e-02 4.947348e-02 4.682677e-02 4.610685e-02 4.724055e-02 4.604856e-02 4.735766e-02 4.633298e-02 4.627918e-02 4.563801e-02 4.603928e-02 4.575647e-02 4.594479e-02 4.591392e-02 4.577544e-02 4.607998e-02 4.557486e-02 4.660443e-02 4.680363e-02 4.763219e-02 4.644545e-02 4.765859e-02 4.644265e-02 4.760914e-02 4.655483e-02 4.747856e-02 4.671647e-02 4.731085e-02 4.689262e-02 4.712936e-02 4.704889e-02 4.694870e-02 4.716042e-02 4.678221e-02 4.721108e-02 4.663804e-02 4.719030e-02 4.651640e-02 4.708669e-02 4.639764e-02 4.687777e-02 4.624295e-02 4.654807e-02 4.602897e-02 4.613066e-02 4.579529e-02 4.575725e-02 4.571274e-02 4.576577e-02 4.627488e-02 4.708154e-02 4.869999e-02 5.037542e-02 5.043319e-02 4.839560e-02 4.966277e-02 4.806432e-02 4.824377e-02 4.805027e-02 4.774023e-02 4.787634e-02 4.849261e-02 4.805260e-02 4.771874e-02 5.091736e-02 4.892612e-02 5.007575e-02 4.913036e-02 4.832732e-02 4.695865e-02 4.674936e-02 4.627332e-02 4.661219e-02 4.635681e-02 4.678986e-02 4.661604e-02 4.698786e-02 4.690697e-02 4.713724e-02 4.719575e-02 4.722894e-02 4.746571e-02 4.726379e-02 4.770182e-02 4.725312e-02 4.789483e-02 4.721603e-02 4.804012e-02 4.717771e-02 4.814065e-02 4.716518e-02 4.819813e-02 4.719295e-02 4.820383e-02 4.726083e-02 4.814815e-02 4.736563e-02 4.803433e-02 4.750540e-02 4.787672e-02 4.767463e-02 4.769975e-02 4.786644e-02 4.753351e-02 4.806051e-02 4.739570e-02 4.821772e-02 4.729721e-02 4.830399e-02 4.726133e-02 4.831274e-02 4.732305e-02 4.826415e-02 4.749933e-02 4.818953e-02 4.773170e-02 4.812116e-02 4.774673e-02 4.807380e-02 4.625059e-02 4.267974e-02 4.042881e-02 3.866902e-02 3.790549e-02 
3.740902e-02 3.822521e-02 3.864066e-02 4.050547e-02 4.130732e-02 4.378157e-02 4.380251e-02 4.509657e-02 4.589326e-02 4.707585e-02 4.877963e-02 5.044434e-02 5.235021e-02 5.205765e-02 5.224171e-02 5.208015e-02 5.216577e-02 5.214074e-02 5.209831e-02 5.221802e-02 5.206230e-02 5.239364e-02 4.905870e-02 4.842383e-02 4.615722e-02 4.651227e-02 4.497133e-02 4.560910e-02 4.450221e-02 4.511057e-02 4.437406e-02 4.479349e-02 4.440580e-02 4.456562e-02 4.449805e-02 4.439187e-02 4.459543e-02 4.426310e-02 4.466753e-02 4.417860e-02 4.469871e-02 4.413722e-02 4.468065e-02 4.412915e-02 4.460679e-02 4.413872e-02 4.448482e-02 4.416834e-02 4.436362e-02 4.427023e-02 4.436147e-02 4.457840e-02 4.469613e-02 4.535309e-02 4.575958e-02 4.690840e-02 4.700948e-02 4.805207e-02 4.724539e-02 4.934707e-02 5.024436e-02 4.934017e-02 5.087381e-02 5.047381e-02 5.050459e-02 5.252520e-02 4.957791e-02 5.021600e-02 5.077386e-02 4.658181e-02 4.796880e-02 4.900317e-02 4.839092e-02 4.641048e-02 4.598149e-02 4.500914e-02 4.510254e-02 4.454491e-02 4.479666e-02 4.447922e-02 4.471061e-02 4.458836e-02 4.469250e-02 4.477231e-02 4.468117e-02 4.497882e-02 4.465288e-02 4.517638e-02 4.460627e-02 4.534660e-02 4.455270e-02 4.547848e-02 4.451048e-02 4.556729e-02 4.449972e-02 4.560954e-02 4.453270e-02 4.559790e-02 4.461094e-02 4.552689e-02 4.473160e-02 4.540137e-02 4.488994e-02 4.523592e-02 4.507602e-02 4.505318e-02 4.527522e-02 4.488037e-02 4.546316e-02 4.473918e-02 4.560442e-02 4.464578e-02 4.566577e-02 4.461665e-02 4.562628e-02 4.465808e-02 4.546694e-02 4.472898e-02 4.513747e-02 4.468028e-02 4.451166e-02 4.418821e-02 4.332312e-02 4.247662e-02 4.051400e-02 3.942757e-02 3.810490e-02 3.782372e-02 
4.042612e-02 4.120396e-02 4.140777e-02 4.317722e-02 4.364484e-02 4.596535e-02 4.615903e-02 4.727527e-02 4.840417e-02 4.928074e-02 5.120888e-02 5.270297e-02 5.474998e-02 5.444886e-02 5.467066e-02 5.449172e-02 5.458084e-02 5.457866e-02 5.448539e-02 5.467462e-02 5.442145e-02 5.473830e-02 5.101390e-02 5.054062e-02 4.827960e-02 4.876275e-02 4.723042e-02 4.796901e-02 4.684521e-02 4.754165e-02 4.675490e-02 4.726545e-02 4.679717e-02 4.706432e-02 4.689368e-02 4.691562e-02 4.700388e-02 4.681638e-02 4.710710e-02 4.677031e-02 4.719612e-02 4.678360e-02 4.727593e-02 4.686618e-02 4.736735e-02 4.703931e-02 4.751739e-02 4.735138e-02 4.781683e-02 4.790061e-02 4.842185e-02 4.885771e-02 4.956777e-02 5.047487e-02 5.158205e-02 5.305399e-02 5.408355e-02 5.369470e-02 5.053191e-02 5.376725e-02 5.158956e-02 4.944321e-02 5.374392e-02 4.816584e-02 5.119644e-02 5.190372e-02 4.651405e-02 5.216951e-02 4.939734e-02 4.716809e-02 5.072752e-02 5.023584e-02 5.021620e-02 4.930600e-02 4.931994e-02 4.851891e-02 4.857969e-02 4.795385e-02 4.808137e-02 4.764111e-02 4.776394e-02 4.750864e-02 4.755257e-02 4.749176e-02 4.739763e-02 4.754208e-02 4.727185e-02 4.762513e-02 4.716525e-02 4.771657e-02 4.707840e-02 4.779820e-02 4.701711e-02 4.785641e-02 4.698897e-02 4.788129e-02 4.699989e-02 4.786600e-02 4.705211e-02 4.780819e-02 4.714426e-02 4.771182e-02 4.727100e-02 4.758654e-02 4.742148e-02 4.744603e-02 4.757930e-02 4.730694e-02 4.772467e-02 4.718740e-02 4.783671e-02 4.710330e-02 4.789538e-02 4.706184e-02 4.788068e-02 4.704762e-02 4.776150e-02 4.699353e-02 4.746474e-02 4.673403e-02 4.682198e-02 4.597158e-02 4.552039e-02 4.431343e-02 4.298381e-02 4.200965e-02 4.100720e-02 4.079826e-02 
3.740633e-02 3.822491e-02 3.863865e-02 4.050506e-02 4.130563e-02 4.378100e-02 4.380140e-02 4.509713e-02 4.589287e-02 4.707733e-02 4.878032e-02 5.044600e-02 5.235108e-02 5.205773e-02 5.224216e-02 5.207966e-02 5.216572e-02 5.213947e-02 5.209754e-02 5.221557e-02 5.206048e-02 5.239399e-02 4.906228e-02 4.842672e-02 4.616625e-02 4.652148e-02 4.498994e-02 4.563201e-02 4.453174e-02 4.514925e-02 4.441072e-02 4.484702e-02 4.444832e-02 4.463961e-02 4.455604e-02 4.450085e-02 4.468738e-02 4.442593e-02 4.481790e-02 4.441734e-02 4.493794e-02 4.447921e-02 4.505083e-02 4.462003e-02 4.517746e-02 4.485845e-02 4.535973e-02 4.522879e-02 4.566535e-02 4.579014e-02 4.619479e-02 4.663270e-02 4.707861e-02 4.787104e-02 4.847860e-02 4.967499e-02 5.035940e-02 5.045002e-02 4.844658e-02 4.993279e-02 4.880602e-02 4.805727e-02 4.981028e-02 4.756867e-02 4.882277e-02 4.945612e-02 4.720149e-02 4.960131e-02 4.861535e-02 4.820921e-02 4.977580e-02 4.856620e-02 4.831221e-02 4.753644e-02 4.756456e-02 4.673472e-02 4.680778e-02 4.608542e-02 4.621017e-02 4.566584e-02 4.577119e-02 4.544291e-02 4.544717e-02 4.536060e-02 4.519256e-02 4.536575e-02 4.498110e-02 4.542213e-02 4.480731e-02 4.550380e-02 4.467318e-02 4.558545e-02 4.458106e-02 4.564370e-02 4.453534e-02 4.566189e-02 4.454163e-02 4.563030e-02 4.460335e-02 4.554680e-02 4.472048e-02 4.541809e-02 4.488758e-02 4.525680e-02 4.508797e-02 4.507545e-02 4.529235e-02 4.489040e-02 4.547178e-02 4.473063e-02 4.560450e-02 4.462883e-02 4.566855e-02 4.460556e-02 4.563851e-02 4.465671e-02 4.548268e-02 4.473018e-02 4.514549e-02 4.467729e-02 4.450817e-02 4.418319e-02 4.331458e-02 4.247475e-02 4.050785e-02 3.942705e-02 3.810089e-02 3.782347e-02 
3.759949e-02 3.838016e-02 3.933625e-02 4.208657e-02 4.389825e-02 4.947058e-02 4.682434e-02 4.610936e-02 4.723902e-02 4.605281e-02 4.735869e-02 4.633707e-02 4.628134e-02 4.563893e-02 4.604011e-02 4.575658e-02 4.594520e-02 4.591323e-02 4.577523e-02 4.607669e-02 4.557336e-02 4.660109e-02 4.680838e-02 4.764015e-02 4.646516e-02 4.768620e-02 4.648719e-02 4.767066e-02 4.662946e-02 4.757965e-02 4.681682e-02 4.745208e-02 4.701907e-02 4.732515e-02 4.722343e-02 4.723144e-02 4.742272e-02 4.719352e-02 4.761386e-02 4.722747e-02 4.779924e-02 4.734334e-02 4.798861e-02 4.755332e-02 4.820740e-02 4.787749e-02 4.849417e-02 4.833889e-02 4.889247e-02 4.895946e-02 4.944260e-02 4.974790e-02 5.015418e-02 5.066064e-02 5.094956e-02 5.154821e-02 5.160691e-02 5.200389e-02 5.139737e-02 5.175305e-02 5.133707e-02 5.101571e-02 5.130194e-02 5.063508e-02 5.077270e-02 5.081797e-02 5.017028e-02 5.076354e-02 5.042091e-02 5.025616e-02 5.061938e-02 5.010191e-02 5.040986e-02 4.976971e-02 5.003443e-02 4.928427e-02 4.954016e-02 4.881090e-02 4.906228e-02 4.844552e-02 4.865400e-02 4.821677e-02 4.831805e-02 4.810299e-02 4.803026e-02 4.806790e-02 4.777819e-02 4.808820e-02 4.756720e-02 4.814572e-02 4.740315e-02 4.821515e-02 4.728589e-02 4.826892e-02 4.721673e-02 4.828749e-02 4.720090e-02 4.826001e-02 4.724271e-02 4.818382e-02 4.734404e-02 4.806560e-02 4.750200e-02 4.791686e-02 4.769972e-02 4.774355e-02 4.790250e-02 4.755454e-02 4.808049e-02 4.738155e-02 4.822050e-02 4.726641e-02 4.831020e-02 4.724015e-02 4.833511e-02 4.731893e-02 4.829186e-02 4.749955e-02 4.820217e-02 4.772445e-02 4.811269e-02 4.773699e-02 4.805693e-02 4.624819e-02 4.266922e-02 4.042848e-02 3.866197e-02 3.790528e-02 
3.037212e-02 3.134733e-02 3.424557e-02 3.849609e-02 4.528362e-02 4.771539e-02 4.167154e-02 4.138072e-02 4.045022e-02 3.891689e-02 3.830996e-02 3.576171e-02 3.503086e-02 3.448553e-02 3.488269e-02 3.459775e-02 3.479421e-02 3.474161e-02 3.463813e-02 3.489369e-02 3.444530e-02 3.506344e-02 3.685971e-02 3.920419e-02 3.911157e-02 4.099781e-02 4.028406e-02 4.180904e-02 4.105247e-02 4.213909e-02 4.159687e-02 4.220104e-02 4.198846e-02 4.214567e-02 4.229614e-02 4.208433e-02 4.255306e-02 4.206858e-02 4.277002e-02 4.212734e-02 4.295246e-02 4.226071e-02 4.309854e-02 4.247220e-02 4.324219e-02 4.278982e-02 4.343361e-02 4.322990e-02 4.370865e-02 4.379462e-02 4.409762e-02 4.447731e-02 4.460783e-02 4.523349e-02 4.518626e-02 4.594932e-02 4.568159e-02 4.638071e-02 4.578748e-02 4.639754e-02 4.590852e-02 4.619444e-02 4.603077e-02 4.610947e-02 4.595992e-02 4.620122e-02 4.584637e-02 4.612347e-02 4.600597e-02 4.588189e-02 4.614267e-02 4.555453e-02 4.586842e-02 4.507269e-02 4.544902e-02 4.450807e-02 4.491344e-02 4.395891e-02 4.436808e-02 4.355352e-02 4.392458e-02 4.336191e-02 4.358309e-02 4.330807e-02 4.325034e-02 4.330131e-02 4.290976e-02 4.334405e-02 4.261901e-02 4.345176e-02 4.240655e-02 4.358371e-02 4.225560e-02 4.368005e-02 4.216013e-02 4.371090e-02 4.213473e-02 4.366156e-02 4.219032e-02 4.352903e-02 4.233822e-02 4.333381e-02 4.259524e-02 4.311154e-02 4.294184e-02 4.284920e-02 4.328042e-02 4.251867e-02 4.354704e-02 4.219344e-02 4.375775e-02 4.198298e-02 4.390300e-02 4.194755e-02 4.393372e-02 4.212329e-02 4.381179e-02 4.256077e-02 4.356717e-02 4.337522e-02 4.343142e-02 4.478761e-02 4.426613e-02 4.810833e-02 4.212778e-02 3.579099e-02 3.249365e-02 3.060445e-02 
2.506398e-02 2.471530e-02 3.080930e-02 3.291059e-02 4.008977e-02 2.038533e-02 2.207228e-02 2.443112e-02 1.888779e-02 2.270824e-02 1.819549e-02 1.954436e-02 1.773879e-02 1.820852e-02 1.894381e-02 1.863783e-02 1.914824e-02 1.891769e-02 1.883561e-02 1.934864e-02 1.782449e-02 1.966558e-02 1.879974e-02 2.065106e-02 2.047278e-02 2.116953e-02 2.130879e-02 2.134633e-02 2.184374e-02 2.138521e-02 2.220696e-02 2.133533e-02 2.243367e-02 2.127560e-02 2.258891e-02 2.128030e-02 2.270804e-02 2.137023e-02 2.279956e-02 2.155268e-02 2.286579e-02 2.180679e-02 2.289647e-02 2.212089e-02 2.292423e-02 2.251320e-02 2.299468e-02 2.298399e-02 2.312719e-02 2.351369e-02 2.333326e-02 2.407764e-02 2.361068e-02 2.463365e-02 2.393201e-02 2.512532e-02 2.425097e-02 2.546567e-02 2.444008e-02 2.556549e-02 2.464627e-02 2.534162e-02 2.476874e-02 2.508726e-02 2.464015e-02 2.487111e-02 2.438134e-02 2.448646e-02 2.428190e-02 2.396226e-02 2.425248e-02 2.371572e-02 2.425616e-02 2.345041e-02 2.411077e-02 2.313839e-02 2.381803e-02 2.282253e-02 2.346425e-02 2.262227e-02 2.318520e-02 2.261855e-02 2.298136e-02 2.271603e-02 2.273568e-02 2.280407e-02 2.244486e-02 2.289734e-02 2.219968e-02 2.303320e-02 2.204187e-02 2.317050e-02 2.195138e-02 2.323737e-02 2.192589e-02 2.320197e-02 2.198709e-02 2.305274e-02 2.214872e-02 2.279480e-02 2.242139e-02 2.246599e-02 2.282004e-02 2.212201e-02 2.331453e-02 2.174657e-02 2.376720e-02 2.131800e-02 2.407374e-02 2.095520e-02 2.424179e-02 2.080811e-02 2.425160e-02 2.095544e-02 2.401990e-02 2.143897e-02 2.345375e-02 2.229966e-02 2.249277e-02 2.365026e-02 2.122007e-02 2.595722e-02 2.011570e-02 3.442853e-02 4.188497e-02 3.374021e-02 2.820910e-02 2.470239e-02 
5.539390e-03 7.323180e-03 1.042826e-02 1.934323e-02 1.146011e-02 2.373008e-02 1.575770e-02 1.190896e-02 1.722065e-02 1.096573e-02 1.734414e-02 1.089499e-02 1.758157e-02 1.322545e-02 1.895317e-02 1.560416e-02 1.858823e-02 1.676521e-02 1.746827e-02 1.729546e-02 1.498195e-02 1.612192e-02 1.301940e-02 1.558162e-02 1.275486e-02 1.534067e-02 1.274909e-02 1.517108e-02 1.289496e-02 1.500719e-02 1.311109e-02 1.481307e-02 1.333992e-02 1.460766e-02 1.356908e-02 1.441598e-02 1.379728e-02 1.425379e-02 1.401784e-02 1.413715e-02 1.422291e-02 1.407000e-02 1.440139e-02 1.405621e-02 1.456372e-02 1.410552e-02 1.472483e-02 1.421999e-02 1.488842e-02 1.439007e-02 1.505417e-02 1.459620e-02 1.520656e-02 1.479528e-02 1.530746e-02 1.492263e-02 1.531227e-02 1.492208e-02 1.522404e-02 1.473827e-02 1.495866e-02 1.460105e-02 1.468509e-02 1.447382e-02 1.457893e-02 1.436478e-02 1.463737e-02 1.443091e-02 1.475679e-02 1.467699e-02 1.490483e-02 1.461004e-02 1.485756e-02 1.452294e-02 1.480638e-02 1.441827e-02 1.471846e-02 1.431280e-02 1.461258e-02 1.424031e-02 1.453573e-02 1.423461e-02 1.447244e-02 1.427298e-02 1.437058e-02 1.431707e-02 1.424035e-02 1.436125e-02 1.411318e-02 1.442707e-02 1.399535e-02 1.451461e-02 1.387970e-02 1.460394e-02 1.377411e-02 1.468813e-02 1.369212e-02 1.476543e-02 1.364035e-02 1.483273e-02 1.361931e-02 1.489291e-02 1.363379e-02 1.493743e-02 1.369578e-02 1.490967e-02 1.378002e-02 1.478698e-02 1.384568e-02 1.460818e-02 1.392904e-02 1.440182e-02 1.409363e-02 1.419025e-02 1.435694e-02 1.400951e-02 1.470747e-02 1.389841e-02 1.515507e-02 1.385312e-02 1.589941e-02 1.374346e-02 1.792025e-02 1.293016e-02 2.342627e-02 1.792728e-02 1.157174e-02 6.442132e-03 
3.670843e-03 4.161679e-03 9.435734e-04 4.208593e-03 1.130061e-02 1.523843e-02 1.161492e-02 7.197481e-03 4.566798e-03 4.680933e-03 2.514511e-03 3.232439e-04 4.149082e-03 7.569072e-03 8.958641e-03 1.017245e-02 9.166047e-03 1.047107e-02 9.026547e-03 8.720951e-03 7.656647e-03 2.479125e-03 1.790330e-03 3.932224e-03 3.091017e-03 6.054129e-03 4.909484e-03 6.850947e-03 5.948206e-03 7.059558e-03 6.615980e-03 6.975848e-03 7.063709e-03 6.792123e-03 7.397041e-03 6.638836e-03 7.659075e-03 6.566289e-03 7.855571e-03 6.598297e-03 7.983076e-03 6.720640e-03 8.026772e-03 6.919329e-03 8.019105e-03 7.208507e-03 8.011734e-03 7.587599e-03 8.040771e-03 8.044332e-03 8.150693e-03 8.579202e-03 8.392277e-03 9.203072e-03 8.810614e-03 9.945481e-03 9.422600e-03 1.075942e-02 9.947483e-03 1.163051e-02 1.097255e-02 1.173364e-02 1.184328e-02 1.175041e-02 1.173476e-02 1.178453e-02 1.091597e-02 1.094230e-02 1.025246e-02 9.239236e-03 9.650793e-03 8.986354e-03 9.768644e-03 8.712699e-03 9.653148e-03 8.405951e-03 9.366591e-03 8.103430e-03 8.999327e-03 7.931895e-03 8.696344e-03 7.979359e-03 8.459297e-03 8.148002e-03 8.168933e-03 8.318854e-03 7.823520e-03 8.498123e-03 7.516635e-03 8.717968e-03 7.293571e-03 8.934261e-03 7.141380e-03 9.073334e-03 7.067264e-03 9.102775e-03 7.100225e-03 9.009028e-03 7.254658e-03 8.793518e-03 7.536584e-03 8.490324e-03 7.957498e-03 8.148603e-03 8.488683e-03 7.741953e-03 8.989937e-03 7.246129e-03 9.354867e-03 6.786231e-03 9.603676e-03 6.522272e-03 9.733259e-03 6.551253e-03 9.672728e-03 6.926666e-03 9.333582e-03 7.665534e-03 8.635311e-03 8.812171e-03 7.561113e-03 1.083423e-02 6.813687e-03 1.610225e-02 8.740633e-03 3.772397e-03 3.692048e-03 3.675774e-03 
5.536061e-04 1.098600e-03 1.176224e-03 7.400709e-04 4.337215e-03 5.873425e-03 6.078661e-03 1.719081e-03 5.293070e-03 5.280773e-03 7.688492e-03 1.097877e-02 1.258534e-02 1.241855e-02 9.184893e-03 3.832837e-03 4.988365e-03 3.442088e-03 5.847944e-03 6.869954e-03 1.226659e-02 1.334322e-02 9.756141e-03 7.115062e-03 4.440864e-03 3.131527e-03 2.115058e-03 1.623196e-03 1.111944e-03 1.228926e-03 6.142697e-04 1.233529e-03 3.247089e-04 1.306038e-03 1.782994e-04 1.340819e-03 2.152060e-04 1.305302e-03 2.979681e-04 1.186385e-03 3.456568e-04 9.905104e-04 3.459688e-04 7.309273e-04 3.213716e-04 4.359763e-04 3.163427e-04 3.579145e-04 4.027260e-04 7.843324e-04 6.647885e-04 1.452129e-03 1.165097e-03 2.307332e-03 1.918064e-03 3.285544e-03 2.755609e-03 3.922884e-03 2.888299e-03 4.455433e-03 2.896252e-03 3.479263e-03 3.386873e-03 2.727692e-03 2.825772e-03 3.525221e-03 2.218624e-03 3.076836e-03 3.556729e-03 2.079310e-03 1.678897e-03 9.098019e-04 1.612307e-03 7.105835e-04 1.491417e-03 5.639317e-04 1.324136e-03 4.148210e-04 1.095262e-03 2.793535e-04 8.774763e-04 1.927152e-04 6.798923e-04 3.233977e-04 4.746839e-04 5.450635e-04 3.158165e-04 7.606719e-04 3.026533e-04 9.647064e-04 3.604385e-04 1.131688e-03 3.931629e-04 1.220648e-03 3.754199e-04 1.209131e-03 3.057929e-04 1.089212e-03 2.629938e-04 8.761887e-04 4.300675e-04 6.349814e-04 7.897064e-04 5.003544e-04 1.249200e-03 5.936657e-04 1.696445e-03 8.589547e-04 2.038818e-03 1.117617e-03 2.242036e-03 1.217457e-03 2.272814e-03 1.094059e-03 2.087198e-03 8.115009e-04 1.667156e-03 8.560269e-04 1.095866e-03 1.636481e-03 1.077838e-03 2.818310e-03 3.002122e-03 5.218453e-03 2.248392e-03 1.375310e-03 1.323862e-03 3.361000e-04 
