# vtk DataFile Version 2.0
Comment goes here
ASCII

DATASET STRUCTURED_POINTS
FIELD FieldData 1
TIME 1 1 double
1.00000000
DIMENSIONS    128   16   1

ORIGIN    0.000   0.000   0.000
SPACING   0.0078125 0.015625   1.000

POINT_DATA   2048
SCALARS uX double
LOOKUP_TABLE default

2.812647e-03 -5.181916e-04 2.877397e-03 -2.454829e-03 2.492670e-03 -7.318196e-03 2.213513e-03 -1.572632e-03 1.838234e-04 -2.568734e-04 -2.617491e-05 8.641647e-04 -2.662173e-04 -1.254155e-03 -2.938375e-03 -5.562503e-04 -4.272119e-03 -1.025072e-03 -3.642083e-03 -1.317323e-03 -2.351953e-03 1.670492e-03 -4.990693e-04 1.494022e-03 -1.038702e-03 9.557871e-04 -1.182020e-03 5.154641e-04 -1.122164e-03 1.099277e-04 -9.559768e-04 -2.607601e-04 -7.440465e-04 -5.835701e-04 -5.316135e-04 -8.420221e-04 -3.535359e-04 -1.022551e-03 -2.347734e-04 -1.117482e-03 -1.886775e-04 -1.125768e-03 -2.157749e-04 -1.052546e-03 -3.040059e-04 -9.077227e-04 -4.288410e-04 -7.008892e-04 -5.495678e-04 -4.286087e-04 -5.956452e-04 -4.454836e-05 -4.253687e-04 6.265092e-04 3.514708e-04 2.241529e-03 2.445773e-03 3.600085e-03 1.638194e-03 4.248542e-03 3.267975e-03 3.622549e-03 5.195546e-03 3.944545e-03 5.270969e-03 6.074357e-03 3.433544e-03 5.357048e-03 2.599465e-03 -2.519266e-03 -1.875850e-03 -8.288634e-04 -1.544916e-04 -9.444544e-04 -1.531262e-04 -6.393373e-04 -1.001119e-04 -5.172055e-04 -2.496726e-04 -4.120051e-04 -4.549832e-04 -2.691656e-04 -6.754814e-04 -1.023938e-04 -8.878857e-04 6.024611e-05 -1.066616e-03 1.901106e-04 -1.184596e-03 2.605286e-04 -1.219364e-03 2.481153e-04 -1.156874e-03 1.371271e-04 -9.925646e-04 -7.498545e-05 -7.322174e-04 -3.751338e-04 -3.942513e-04 -7.357698e-04 -1.200036e-05 -1.116895e-03 3.671710e-04 -1.467800e-03 6.868461e-04 -1.729512e-03 8.878846e-04 -1.840375e-03 9.148851e-04 -1.744605e-03 7.243862e-04 -1.400911e-03 2.966894e-04 -7.905154e-04 -3.469823e-04 7.224647e-05 -1.120283e-03 1.118729e-03 -1.832373e-03 2.174637e-03 -2.117697e-03 2.809749e-03 -1.265915e-03 3.341688e-04 1.983942e-03 8.770825e-04 2.701114e-03 4.663684e-04 
2.232326e-03 -5.172153e-04 2.354551e-03 -2.081806e-03 2.234552e-03 -8.565349e-03 2.028691e-03 -3.904316e-04 -1.411690e-03 7.678069e-04 -3.448401e-03 1.172974e-03 -6.709868e-03 3.457701e-06 -5.778986e-03 -6.687216e-04 -5.155951e-03 -1.130656e-03 -4.540857e-03 -2.065150e-03 -3.562898e-03 -3.819035e-03 -1.832294e-03 -1.540715e-03 -1.239856e-03 -5.379064e-04 -8.058353e-04 -7.438404e-05 -4.209546e-04 6.372292e-05 -6.606139e-05 2.384542e-05 2.559865e-04 -9.665734e-05 5.283031e-04 -2.323741e-04 7.334411e-04 -3.371133e-04 8.589862e-04 -3.834603e-04 8.974619e-04 -3.619430e-04 8.483548e-04 -2.769604e-04 7.225232e-04 -1.354613e-04 5.536051e-04 6.857613e-05 4.072793e-04 3.717288e-04 4.032443e-04 8.908273e-04 7.886759e-04 1.965705e-03 2.181513e-03 4.509594e-03 5.065049e-03 5.874372e-03 3.198094e-03 5.312351e-03 3.976271e-03 3.130533e-03 4.778867e-03 2.333561e-03 3.081910e-03 3.663175e-03 9.706140e-04 3.064121e-03 3.391030e-03 1.973671e-03 4.640729e-03 4.289053e-03 3.174054e-03 7.438024e-04 1.050165e-03 -8.654261e-06 6.122330e-04 -1.050679e-04 3.962628e-04 2.820865e-05 2.595838e-04 2.737277e-04 1.359926e-04 5.481109e-04 7.750106e-06 7.978331e-04 -1.108468e-04 9.903988e-04 -1.885867e-04 1.105760e-03 -1.950275e-04 1.126880e-03 -1.104024e-04 1.041216e-03 7.209175e-05 8.458601e-04 3.461257e-04 5.532652e-04 6.943244e-04 1.924423e-04 1.086515e-03 -1.929974e-04 1.479432e-03 -5.491791e-04 1.817792e-03 -8.169922e-04 2.040830e-03 -9.347475e-04 2.090172e-03 -8.460432e-04 1.919038e-03 -5.042203e-04 1.504722e-03 1.201247e-04 8.570244e-04 1.027716e-03 3.134727e-05 2.174708e-03 -8.528120e-04 3.416449e-03 -1.575760e-03 4.266794e-03 -1.559960e-03 3.575567e-04 3.633651e-03 9.606593e-04 2.606578e-03 2.949652e-04 
3.024166e-03 1.516568e-03 3.635264e-03 2.448178e-03 5.386073e-03 -1.593442e-03 3.235720e-03 -1.430944e-05 3.100661e-03 4.338156e-04 3.271027e-03 4.458323e-04 4.614960e-03 2.668327e-03 5.087373e-03 3.114972e-03 5.062713e-03 4.061390e-03 3.961987e-03 5.190899e-03 2.305061e-03 4.954455e-03 1.581115e-04 3.806717e-03 1.063675e-04 3.374328e-03 1.801742e-04 2.979032e-03 3.649987e-04 2.596408e-03 6.347810e-04 2.222069e-03 9.422951e-04 1.866065e-03 1.236349e-03 1.546492e-03 1.480304e-03 1.290300e-03 1.652469e-03 1.114423e-03 1.733462e-03 1.014670e-03 1.702596e-03 9.623798e-04 1.539228e-03 9.155091e-04 1.233946e-03 8.222588e-04 7.664027e-04 5.862471e-04 5.394383e-05 1.589634e-05 -1.121033e-03 -1.281813e-03 -3.357254e-03 -4.368017e-03 -7.616311e-03 -6.921659e-03 -6.583193e-03 -8.611763e-03 -9.297683e-03 -8.033017e-03 -1.189331e-02 -8.907946e-03 -1.090480e-02 -1.255446e-02 -6.847443e-03 -1.115205e-02 -6.173759e-03 6.509864e-04 1.633620e-04 -1.512838e-03 1.096307e-04 5.300830e-04 8.558194e-04 4.310067e-04 7.685729e-04 6.251065e-04 8.490660e-04 9.883912e-04 9.084863e-04 1.382794e-03 8.979408e-04 1.747878e-03 8.214597e-04 2.050659e-03 7.111660e-04 2.276853e-03 6.180023e-04 2.422124e-03 5.882104e-04 2.475037e-03 6.490446e-04 2.420816e-03 8.097789e-04 2.248579e-03 1.064844e-03 1.963575e-03 1.401381e-03 1.591992e-03 1.796466e-03 1.177157e-03 2.214907e-03 7.717515e-04 2.603911e-03 4.293143e-04 2.900554e-03 2.056068e-04 3.040134e-03 1.504758e-04 2.963064e-03 3.084467e-04 2.626805e-03 7.105844e-04 1.997094e-03 1.360453e-03 1.042765e-03 2.231812e-03 -2.629436e-04 3.256325e-03 -1.870602e-03 4.256005e-03 -3.137855e-03 3.789464e-03 8.640903e-03 3.533082e-03 4.348974e-03 1.793639e-03 
4.090164e-04 2.564978e-03 1.292289e-03 6.858559e-03 3.751044e-03 1.403096e-02 -1.179800e-03 -7.527455e-04 3.176373e-03 -2.233695e-03 4.658233e-03 -2.411683e-03 6.718985e-03 -1.239652e-03 5.548572e-03 -3.816333e-04 4.632337e-03 3.610837e-04 3.711904e-03 1.599476e-03 2.507060e-03 3.547940e-03 7.966250e-04 2.516226e-03 1.033778e-04 2.074948e-03 -2.819222e-04 1.827184e-03 -4.631759e-04 1.666769e-03 -5.038057e-04 1.528518e-03 -4.535729e-04 1.381809e-03 -3.511304e-04 1.217253e-03 -2.234344e-04 1.038356e-03 -8.983773e-05 8.498400e-04 2.984577e-05 6.506434e-04 1.115736e-04 4.284667e-04 1.239830e-04 1.579928e-04 2.567484e-05 -2.086645e-04 -2.562027e-04 -7.751592e-04 -8.702623e-04 -1.760636e-03 -2.118284e-03 -3.624204e-03 -4.646880e-03 -7.303516e-03 -8.594913e-03 -9.456056e-03 -6.543130e-03 -7.914022e-03 -6.549950e-03 -4.962245e-03 -6.322609e-03 -4.209200e-03 -3.741897e-03 -5.766924e-03 -2.670923e-03 -5.896406e-03 -6.484989e-03 -8.292324e-03 -9.676804e-03 -1.052289e-02 -8.464005e-03 -5.987028e-03 -4.588351e-03 -3.217447e-03 -2.621128e-03 -1.636939e-03 -1.454638e-03 -6.951804e-04 -7.713811e-04 -1.311111e-04 -3.761271e-04 2.160603e-04 -1.563371e-04 4.392881e-04 -4.569242e-05 5.931235e-04 9.513725e-07 7.088120e-04 1.483305e-05 7.993258e-04 1.507939e-05 8.666624e-04 1.416407e-05 9.062345e-04 2.176153e-05 9.129590e-04 4.731704e-05 8.848796e-04 9.916553e-05 8.218565e-04 1.837917e-04 7.243543e-04 3.024009e-04 5.918999e-04 4.522630e-04 4.248052e-04 6.272449e-04 2.241367e-04 8.162525e-04 -5.931778e-06 1.004592e-03 -2.583923e-04 1.166777e-03 -5.241707e-04 1.260654e-03 -7.821524e-04 1.223036e-03 -9.603533e-04 9.692611e-04 -7.608084e-04 7.916705e-05 5.669577e-03 3.524043e-03 2.372707e-03 9.319282e-04 1.340596e-03 
-4.513179e-03 -1.247133e-03 -4.430263e-03 7.169090e-04 -4.161508e-03 1.067283e-02 -4.061509e-03 1.781868e-05 -2.158395e-03 -1.647246e-03 -2.756056e-03 -2.011186e-03 -6.388951e-03 -4.254419e-03 -5.701027e-03 -4.847814e-03 -5.287838e-03 -5.267572e-03 -4.812017e-03 -5.953247e-03 -4.036965e-03 -7.072725e-03 -1.700754e-03 -4.158134e-03 -1.292439e-03 -2.805151e-03 -1.159252e-03 -1.951606e-03 -1.210764e-03 -1.379686e-03 -1.370954e-03 -9.694511e-04 -1.564599e-03 -6.619867e-04 -1.730407e-03 -4.331731e-04 -1.831145e-03 -2.822852e-04 -1.847733e-03 -2.059120e-04 -1.762491e-03 -1.815320e-04 -1.551316e-03 -1.596605e-04 -1.179704e-03 -6.740193e-05 -6.040201e-04 2.020242e-04 2.698405e-04 8.519466e-04 1.677447e-03 2.287319e-03 4.146422e-03 5.332269e-03 8.916880e-03 1.176401e-02 1.686364e-02 1.544562e-02 1.391061e-02 1.430688e-02 1.403826e-02 1.130322e-02 1.386231e-02 1.060830e-02 1.074492e-02 1.292817e-02 8.404805e-03 1.227127e-02 1.250506e-02 1.117582e-02 1.357598e-02 1.534804e-02 1.141078e-02 8.308580e-03 5.484393e-03 4.779419e-03 2.801983e-03 2.620172e-03 1.187889e-03 1.175646e-03 2.765925e-04 1.881595e-04 -1.967686e-04 -5.036598e-04 -4.083883e-04 -9.853897e-04 -4.808239e-04 -1.306400e-03 -5.105980e-04 -1.498847e-03 -5.659143e-04 -1.574436e-03 -6.844334e-04 -1.534023e-03 -8.794366e-04 -1.377897e-03 -1.145787e-03 -1.118923e-03 -1.470079e-03 -7.876560e-04 -1.829407e-03 -4.296705e-04 -2.189397e-03 -9.778881e-05 -2.499004e-03 1.562731e-04 -2.697027e-03 2.800916e-04 -2.719844e-03 2.285225e-04 -2.508007e-03 -3.688870e-05 -2.016233e-03 -5.392673e-04 -1.203848e-03 -1.271604e-03 -3.190777e-05 -2.195396e-03 1.516999e-03 -3.236503e-03 3.286759e-03 -4.220057e-03 4.042626e-03 -8.077855e-04 -8.540503e-03 -3.314766e-03 -5.639548e-03 -2.340623e-03 
-7.313500e-03 -6.878509e-03 -8.118842e-03 -9.114483e-03 -1.013335e-02 -9.326829e-03 -5.320789e-03 -3.810866e-03 -6.367240e-03 -3.556385e-03 -6.035906e-03 -3.378223e-03 -6.545780e-03 -5.868277e-03 -6.417907e-03 -6.020277e-03 -6.236610e-03 -6.214241e-03 -6.028925e-03 -6.408221e-03 -5.852972e-03 -6.494773e-03 -4.692318e-03 -6.917060e-03 -4.940777e-03 -6.980364e-03 -4.971067e-03 -6.843741e-03 -5.060286e-03 -6.657223e-03 -5.228108e-03 -6.450218e-03 -5.438125e-03 -6.234251e-03 -5.645004e-03 -6.021303e-03 -5.814996e-03 -5.828658e-03 -5.925448e-03 -5.664276e-03 -5.952439e-03 -5.516141e-03 -5.864431e-03 -5.345608e-03 -5.618100e-03 -5.088738e-03 -5.157361e-03 -4.646477e-03 -4.381453e-03 -3.838976e-03 -3.085391e-03 -2.344564e-03 -8.956544e-04 3.667091e-04 2.788008e-03 4.873216e-03 7.031862e-03 6.693646e-03 7.164795e-03 6.886740e-03 7.373719e-03 7.255798e-03 7.933001e-03 8.451297e-03 8.197165e-03 9.753911e-03 1.004963e-02 1.022751e-02 1.085413e-02 1.275085e-02 1.092473e-02 1.368888e-02 1.343264e-02 1.021759e-02 6.565367e-03 3.968270e-03 1.613716e-03 1.835859e-05 -1.375058e-03 -2.461442e-03 -3.133208e-03 -4.032784e-03 -4.129622e-03 -5.045283e-03 -4.664974e-03 -5.705956e-03 -4.933187e-03 -6.137107e-03 -5.068341e-03 -6.411311e-03 -5.160291e-03 -6.563610e-03 -5.261994e-03 -6.607716e-03 -5.400613e-03 -6.548317e-03 -5.585914e-03 -6.394579e-03 -5.818828e-03 -6.166899e-03 -6.091390e-03 -5.895399e-03 -6.385910e-03 -5.615212e-03 -6.670650e-03 -5.360872e-03 -6.904881e-03 -5.167748e-03 -7.044505e-03 -5.067480e-03 -7.046303e-03 -5.089184e-03 -6.876746e-03 -5.254599e-03 -6.507391e-03 -5.570696e-03 -5.918110e-03 -6.035479e-03 -5.112808e-03 -6.644191e-03 -4.160415e-03 -7.349465e-03 -3.171914e-03 -9.873488e-03 -1.149268e-02 -7.923885e-03 -8.134095e-03 -6.584591e-03 
-8.158850e-03 -7.691715e-03 -8.747209e-03 -9.314873e-03 -1.040440e-02 -1.253149e-02 -8.319339e-03 -6.810695e-03 -9.051712e-03 -6.302307e-03 -8.604813e-03 -6.273453e-03 -7.128118e-03 -6.423182e-03 -7.007044e-03 -6.588967e-03 -6.802289e-03 -6.810488e-03 -6.567486e-03 -7.032623e-03 -6.374025e-03 -7.117808e-03 -7.003472e-03 -8.515925e-03 -7.296886e-03 -8.919640e-03 -7.391869e-03 -8.964214e-03 -7.470289e-03 -8.858015e-03 -7.573666e-03 -8.687112e-03 -7.699530e-03 -8.490969e-03 -7.828686e-03 -8.290521e-03 -7.939123e-03 -8.097883e-03 -8.010215e-03 -7.916313e-03 -8.021656e-03 -7.738519e-03 -7.952751e-03 -7.546311e-03 -7.783675e-03 -7.315000e-03 -7.501537e-03 -7.024238e-03 -7.115021e-03 -6.686506e-03 -6.702537e-03 -6.432528e-03 -6.554168e-03 -6.746146e-03 -7.581379e-03 -9.099043e-03 -1.161444e-02 -1.199113e-02 -1.009308e-02 -9.365720e-03 -9.142285e-03 -7.526509e-03 -7.103294e-03 -6.934582e-03 -5.084480e-03 -5.243205e-03 -5.943509e-03 -2.694360e-03 -5.553420e-03 -4.720297e-03 -3.683964e-03 -4.386810e-03 -4.470603e-03 -2.872437e-03 -3.418673e-03 -3.463305e-03 -4.347883e-03 -4.662845e-03 -5.386101e-03 -5.774445e-03 -6.224051e-03 -6.658699e-03 -6.807889e-03 -7.315014e-03 -7.178205e-03 -7.784730e-03 -7.398878e-03 -8.110530e-03 -7.531279e-03 -8.324756e-03 -7.624824e-03 -8.447670e-03 -7.713916e-03 -8.491094e-03 -7.819489e-03 -8.463081e-03 -7.951654e-03 -8.373132e-03 -8.112037e-03 -8.235479e-03 -8.294762e-03 -8.069087e-03 -8.487120e-03 -7.896337e-03 -8.669928e-03 -7.741017e-03 -8.820358e-03 -7.626974e-03 -8.915796e-03 -7.576355e-03 -8.938235e-03 -7.608198e-03 -8.880783e-03 -7.736014e-03 -8.754083e-03 -7.964463e-03 -8.596750e-03 -8.283346e-03 -8.484525e-03 -8.641611e-03 -8.498771e-03 -8.862140e-03 -8.424443e-03 -1.050979e-02 -9.258280e-03 -8.288205e-03 -8.313126e-03 -7.462577e-03 
-8.545514e-03 -8.597853e-03 -8.745307e-03 -9.090588e-03 -9.069165e-03 -9.567134e-03 -8.744751e-03 -8.475023e-03 -8.613335e-03 -8.407548e-03 -8.389040e-03 -8.813657e-03 -6.678335e-03 -6.326412e-03 -6.567964e-03 -6.358941e-03 -6.460615e-03 -6.440893e-03 -6.371657e-03 -6.543090e-03 -6.332306e-03 -6.642658e-03 -7.512236e-03 -7.461989e-03 -7.165641e-03 -7.954166e-03 -7.187586e-03 -8.299855e-03 -7.304601e-03 -8.457403e-03 -7.451012e-03 -8.479143e-03 -7.607719e-03 -8.417981e-03 -7.760579e-03 -8.314572e-03 -7.894761e-03 -8.197005e-03 -7.995424e-03 -8.081461e-03 -8.048546e-03 -7.973116e-03 -8.042140e-03 -7.868261e-03 -7.968796e-03 -7.759743e-03 -7.831890e-03 -7.648233e-03 -7.659174e-03 -7.566568e-03 -7.536279e-03 -7.633753e-03 -7.677904e-03 -8.157231e-03 -8.550332e-03 -9.658847e-03 -1.005582e-02 -1.020777e-02 -1.111415e-02 -1.189186e-02 -1.245351e-02 -1.300184e-02 -1.293682e-02 -1.356507e-02 -1.307295e-02 -1.294589e-02 -1.349284e-02 -1.135137e-02 -1.176335e-02 -9.602067e-03 -6.889203e-03 -8.647370e-03 -1.042094e-02 -8.741885e-03 -8.031409e-03 -7.176878e-03 -7.115864e-03 -6.950163e-03 -7.017281e-03 -7.192482e-03 -7.162856e-03 -7.559819e-03 -7.334675e-03 -7.913243e-03 -7.462224e-03 -8.204553e-03 -7.540911e-03 -8.422629e-03 -7.591207e-03 -8.568424e-03 -7.638220e-03 -8.644620e-03 -7.702408e-03 -8.653728e-03 -7.796665e-03 -8.599716e-03 -7.926060e-03 -8.490609e-03 -8.088381e-03 -8.339988e-03 -8.274401e-03 -8.166825e-03 -8.468493e-03 -7.994334e-03 -8.649949e-03 -7.848338e-03 -8.795926e-03 -7.755683e-03 -8.885361e-03 -7.742073e-03 -8.903629e-03 -7.829933e-03 -8.848058e-03 -8.035076e-03 -8.732507e-03 -8.360690e-03 -8.590629e-03 -8.785574e-03 -8.474555e-03 -9.241131e-03 -8.450300e-03 -9.586305e-03 -8.564604e-03 -9.583803e-03 -8.883055e-03 -8.839036e-03 -8.622361e-03 -8.479994e-03 
-8.689814e-03 -8.600275e-03 -8.966096e-03 -9.206954e-03 -9.306261e-03 -9.737899e-03 -9.097877e-03 -8.773749e-03 -9.139064e-03 -8.672622e-03 -8.967573e-03 -9.147799e-03 -7.102436e-03 -6.688642e-03 -6.993483e-03 -6.752208e-03 -6.858409e-03 -6.874499e-03 -6.728167e-03 -7.006022e-03 -6.655203e-03 -7.102812e-03 -7.624403e-03 -7.643218e-03 -7.209968e-03 -8.115586e-03 -7.289610e-03 -8.475605e-03 -7.453398e-03 -8.630708e-03 -7.615977e-03 -8.637531e-03 -7.768765e-03 -8.560798e-03 -7.913350e-03 -8.449622e-03 -8.048231e-03 -8.337158e-03 -8.169785e-03 -8.245619e-03 -8.276592e-03 -8.191776e-03 -8.374264e-03 -8.192780e-03 -8.481116e-03 -8.274029e-03 -8.636615e-03 -8.481513e-03 -8.914767e-03 -8.899986e-03 -9.441509e-03 -9.671311e-03 -1.040325e-02 -1.099751e-02 -1.203081e-02 -1.294958e-02 -1.332194e-02 -1.232688e-02 -1.210937e-02 -1.275560e-02 -1.208958e-02 -1.146743e-02 -1.300316e-02 -1.054304e-02 -1.239972e-02 -1.225788e-02 -1.051651e-02 -1.351116e-02 -1.328345e-02 -1.282497e-02 -1.654704e-02 -1.640000e-02 -1.567115e-02 -1.374622e-02 -1.287713e-02 -1.141959e-02 -1.089657e-02 -9.973368e-03 -9.681752e-03 -9.186943e-03 -8.976402e-03 -8.808680e-03 -8.565700e-03 -8.655058e-03 -8.316278e-03 -8.613162e-03 -8.158419e-03 -8.617483e-03 -8.060785e-03 -8.629764e-03 -8.011629e-03 -8.626941e-03 -8.007405e-03 -8.595542e-03 -8.046667e-03 -8.529637e-03 -8.126751e-03 -8.430037e-03 -8.241715e-03 -8.303566e-03 -8.381336e-03 -8.162202e-03 -8.531386e-03 -8.022244e-03 -8.675185e-03 -7.903212e-03 -8.796043e-03 -7.826155e-03 -8.880277e-03 -7.811462e-03 -8.920790e-03 -7.876384e-03 -8.920972e-03 -8.031774e-03 -8.897042e-03 -8.276161e-03 -8.874720e-03 -8.584518e-03 -8.874111e-03 -8.894471e-03 -8.884824e-03 -9.123560e-03 -8.863655e-03 -9.246445e-03 -8.839927e-03 -8.703865e-03 -8.666180e-03 -8.412026e-03 
-8.545708e-03 -8.597456e-03 -8.745117e-03 -9.090573e-03 -9.068635e-03 -9.567285e-03 -8.744501e-03 -8.475499e-03 -8.613158e-03 -8.407932e-03 -8.389004e-03 -8.813899e-03 -6.678471e-03 -6.326346e-03 -6.568058e-03 -6.358747e-03 -6.460661e-03 -6.440581e-03 -6.371503e-03 -6.542790e-03 -6.331805e-03 -6.642430e-03 -7.512827e-03 -7.467294e-03 -7.166340e-03 -7.966392e-03 -7.187630e-03 -8.320913e-03 -7.304405e-03 -8.488732e-03 -7.452811e-03 -8.523082e-03 -7.617686e-03 -8.480097e-03 -7.790516e-03 -8.404751e-03 -7.961910e-03 -8.330015e-03 -8.123788e-03 -8.281241e-03 -8.274816e-03 -8.281349e-03 -8.425118e-03 -8.355255e-03 -8.599615e-03 -8.534090e-03 -8.841809e-03 -8.862698e-03 -9.221831e-03 -9.411802e-03 -9.846272e-03 -1.028768e-02 -1.085995e-02 -1.163297e-02 -1.245426e-02 -1.359242e-02 -1.429056e-02 -1.420393e-02 -1.325433e-02 -1.342880e-02 -1.289561e-02 -1.279133e-02 -1.371147e-02 -1.284374e-02 -1.402506e-02 -1.431899e-02 -1.390631e-02 -1.534760e-02 -1.522649e-02 -1.560753e-02 -1.784353e-02 -1.752057e-02 -1.659112e-02 -1.502857e-02 -1.416553e-02 -1.285090e-02 -1.213083e-02 -1.121165e-02 -1.064591e-02 -1.014675e-02 -9.638587e-03 -9.516383e-03 -8.966352e-03 -9.171740e-03 -8.514787e-03 -8.999330e-03 -8.211461e-03 -8.920361e-03 -8.015392e-03 -8.880272e-03 -7.904267e-03 -8.841206e-03 -7.865774e-03 -8.778746e-03 -7.892609e-03 -8.680974e-03 -7.978674e-03 -8.546628e-03 -8.114798e-03 -8.382408e-03 -8.285913e-03 -8.201162e-03 -8.471178e-03 -8.021701e-03 -8.646997e-03 -7.868588e-03 -8.790079e-03 -7.769490e-03 -8.879769e-03 -7.751238e-03 -8.900987e-03 -7.835841e-03 -8.848921e-03 -8.037809e-03 -8.735727e-03 -8.360055e-03 -8.594901e-03 -8.782097e-03 -8.479375e-03 -9.236192e-03 -8.455548e-03 -9.581300e-03 -8.569385e-03 -9.580324e-03 -8.884939e-03 -8.837009e-03 -8.623114e-03 -8.478959e-03 
-8.158983e-03 -7.691339e-03 -8.746382e-03 -9.315118e-03 -1.040236e-02 -1.253212e-02 -8.318516e-03 -6.812027e-03 -9.050437e-03 -6.303640e-03 -8.603780e-03 -6.274748e-03 -7.128483e-03 -6.423390e-03 -7.007473e-03 -6.588494e-03 -6.803118e-03 -6.809500e-03 -6.567666e-03 -7.032240e-03 -6.371513e-03 -7.117656e-03 -7.005950e-03 -8.530289e-03 -7.302305e-03 -8.949701e-03 -7.398601e-03 -9.013595e-03 -7.479554e-03 -8.930075e-03 -7.590264e-03 -8.787074e-03 -7.735647e-03 -8.629911e-03 -7.907044e-03 -8.487104e-03 -8.091899e-03 -8.378560e-03 -8.280171e-03 -8.321857e-03 -8.471044e-03 -8.336918e-03 -8.676737e-03 -8.447803e-03 -8.922223e-03 -8.680821e-03 -9.241548e-03 -9.062593e-03 -9.675109e-03 -9.618192e-03 -1.026149e-02 -1.035755e-02 -1.101081e-02 -1.123878e-02 -1.185916e-02 -1.212983e-02 -1.261488e-02 -1.263278e-02 -1.280453e-02 -1.286693e-02 -1.312244e-02 -1.302854e-02 -1.363335e-02 -1.336468e-02 -1.409949e-02 -1.413593e-02 -1.454895e-02 -1.499027e-02 -1.553774e-02 -1.553412e-02 -1.635384e-02 -1.568875e-02 -1.576606e-02 -1.466811e-02 -1.443081e-02 -1.321038e-02 -1.287843e-02 -1.182066e-02 -1.150306e-02 -1.073422e-02 -1.041857e-02 -9.973415e-03 -9.607256e-03 -9.480007e-03 -9.015548e-03 -9.179916e-03 -8.593845e-03 -9.006055e-03 -8.304889e-03 -8.902127e-03 -8.122167e-03 -8.823523e-03 -8.027548e-03 -8.738526e-03 -8.009557e-03 -8.629618e-03 -8.060422e-03 -8.491356e-03 -8.170396e-03 -8.326320e-03 -8.323626e-03 -8.142706e-03 -8.498000e-03 -7.954924e-03 -8.669132e-03 -7.784495e-03 -8.813330e-03 -7.656815e-03 -8.908548e-03 -7.596164e-03 -8.935958e-03 -7.620815e-03 -8.884551e-03 -7.741892e-03 -8.761767e-03 -7.963629e-03 -8.605951e-03 -8.277048e-03 -8.494355e-03 -8.632514e-03 -8.509162e-03 -8.852804e-03 -8.433994e-03 -1.050469e-02 -9.261845e-03 -8.285403e-03 -8.314492e-03 -7.461168e-03 
-7.313508e-03 -6.878496e-03 -8.118270e-03 -9.115625e-03 -1.013057e-02 -9.328360e-03 -5.319214e-03 -3.811924e-03 -6.366430e-03 -3.557263e-03 -6.036189e-03 -3.379176e-03 -6.546210e-03 -5.868364e-03 -6.418246e-03 -6.019643e-03 -6.237321e-03 -6.212884e-03 -6.028949e-03 -6.407147e-03 -5.850200e-03 -6.494121e-03 -4.694983e-03 -6.922870e-03 -4.937603e-03 -7.005931e-03 -4.961662e-03 -6.897337e-03 -5.041737e-03 -6.735944e-03 -5.197172e-03 -6.549688e-03 -5.404365e-03 -6.363845e-03 -5.641002e-03 -6.203919e-03 -5.881163e-03 -6.083864e-03 -6.099941e-03 -6.016494e-03 -6.289970e-03 -6.023473e-03 -6.468500e-03 -6.136957e-03 -6.671147e-03 -6.384407e-03 -6.931726e-03 -6.777944e-03 -7.282254e-03 -7.325733e-03 -7.759447e-03 -8.032887e-03 -8.388092e-03 -8.870513e-03 -9.126089e-03 -9.710503e-03 -9.792348e-03 -1.027129e-02 -1.012011e-02 -1.053385e-02 -1.042054e-02 -1.074084e-02 -1.085891e-02 -1.107350e-02 -1.134573e-02 -1.160350e-02 -1.186582e-02 -1.212339e-02 -1.248162e-02 -1.244438e-02 -1.292697e-02 -1.239024e-02 -1.248604e-02 -1.153319e-02 -1.141649e-02 -1.035005e-02 -1.014995e-02 -9.223521e-03 -8.974431e-03 -8.336291e-03 -7.995500e-03 -7.718258e-03 -7.218141e-03 -7.327946e-03 -6.616487e-03 -7.108769e-03 -6.170137e-03 -7.005478e-03 -5.860712e-03 -6.959508e-03 -5.668418e-03 -6.915945e-03 -5.576013e-03 -6.832933e-03 -5.575406e-03 -6.693436e-03 -5.668579e-03 -6.500007e-03 -5.851484e-03 -6.261484e-03 -6.102585e-03 -5.987020e-03 -6.382892e-03 -5.693500e-03 -6.652268e-03 -5.416396e-03 -6.875443e-03 -5.200807e-03 -7.016836e-03 -5.089281e-03 -7.035283e-03 -5.107154e-03 -6.882522e-03 -5.264620e-03 -6.520671e-03 -5.568058e-03 -5.931545e-03 -6.021331e-03 -5.127026e-03 -6.626162e-03 -4.179623e-03 -7.331670e-03 -3.195051e-03 -9.861911e-03 -1.149123e-02 -7.919698e-03 -8.134326e-03 -6.583079e-03 
-4.512442e-03 -1.248202e-03 -4.429844e-03 7.132590e-04 -4.159860e-03 1.066808e-02 -4.056361e-03 1.464857e-05 -2.155202e-03 -1.649904e-03 -2.754204e-03 -2.012876e-03 -6.384953e-03 -4.255778e-03 -5.701159e-03 -4.846230e-03 -5.292748e-03 -5.263445e-03 -4.818098e-03 -5.955402e-03 -4.025159e-03 -7.113984e-03 -1.682707e-03 -4.203790e-03 -1.261566e-03 -2.875232e-03 -1.119844e-03 -2.054869e-03 -1.161050e-03 -1.508613e-03 -1.306636e-03 -1.113697e-03 -1.495494e-03 -8.288560e-04 -1.692605e-03 -6.458373e-04 -1.865361e-03 -5.537867e-04 -1.983324e-03 -5.450720e-04 -2.037029e-03 -6.241924e-04 -2.044985e-03 -8.073109e-04 -2.043465e-03 -1.100290e-03 -2.058373e-03 -1.484399e-03 -2.106860e-03 -1.935921e-03 -2.214291e-03 -2.441367e-03 -2.413798e-03 -2.986991e-03 -2.713926e-03 -3.520608e-03 -3.058988e-03 -3.922833e-03 -3.315763e-03 -4.128855e-03 -3.597007e-03 -4.186563e-03 -3.882837e-03 -4.258048e-03 -4.135009e-03 -4.407018e-03 -4.400876e-03 -4.488460e-03 -4.722966e-03 -4.379410e-03 -4.843694e-03 -4.178072e-03 -4.678036e-03 -3.729906e-03 -4.229862e-03 -3.190802e-03 -3.653057e-03 -2.701538e-03 -3.064139e-03 -2.334070e-03 -2.517490e-03 -2.095207e-03 -2.031811e-03 -1.959109e-03 -1.619382e-03 -1.896744e-03 -1.301509e-03 -1.878290e-03 -1.091717e-03 -1.861445e-03 -9.892978e-04 -1.801079e-03 -9.862694e-04 -1.663295e-03 -1.078469e-03 -1.442703e-03 -1.269395e-03 -1.156671e-03 -1.550976e-03 -8.287239e-04 -1.890128e-03 -4.812512e-04 -2.229916e-03 -1.454287e-04 -2.512078e-03 1.245303e-04 -2.685542e-03 2.638643e-04 -2.700323e-03 2.137956e-04 -2.500966e-03 -5.805873e-05 -2.023590e-03 -5.584295e-04 -1.215733e-03 -1.279188e-03 -4.103944e-05 -2.190091e-03 1.507689e-03 -3.226526e-03 3.270162e-03 -4.209365e-03 4.018967e-03 -7.937715e-04 -8.533070e-03 -3.309600e-03 -5.637606e-03 -2.339334e-03 
4.081643e-04 2.564040e-03 1.289872e-03 6.857561e-03 3.745526e-03 1.403014e-02 -1.182713e-03 -7.517768e-04 3.171286e-03 -2.230599e-03 4.650061e-03 -2.405060e-03 6.705248e-03 -1.228037e-03 5.532903e-03 -3.693086e-04 4.622257e-03 3.607708e-04 3.721483e-03 1.578224e-03 2.534316e-03 3.523340e-03 8.367080e-04 2.481658e-03 1.493497e-04 2.042454e-03 -2.316092e-04 1.804708e-03 -4.117371e-04 1.656754e-03 -4.550198e-04 1.532322e-03 -4.055312e-04 1.406116e-03 -2.910252e-04 1.273814e-03 -1.351829e-04 1.136130e-03 4.035846e-05 9.985424e-04 2.217633e-04 8.729659e-04 4.051281e-04 7.764516e-04 5.928424e-04 7.221673e-04 7.834192e-04 7.127025e-04 9.714204e-04 7.449043e-04 1.152234e-03 8.125876e-04 1.320304e-03 9.007447e-04 1.458153e-03 9.757260e-04 1.536430e-03 1.014958e-03 1.576105e-03 1.036669e-03 1.547320e-03 1.077003e-03 1.532305e-03 1.138421e-03 1.616392e-03 1.261913e-03 1.817502e-03 1.531119e-03 2.071427e-03 1.895764e-03 2.307081e-03 1.985871e-03 2.241018e-03 1.877098e-03 2.007096e-03 1.644198e-03 1.693273e-03 1.394577e-03 1.379815e-03 1.187302e-03 1.099213e-03 1.040955e-03 8.559884e-04 9.533612e-04 6.460266e-04 9.173127e-04 4.679696e-04 9.235007e-04 3.199930e-04 9.566002e-04 1.984727e-04 9.981941e-04 1.006670e-04 1.031186e-03 2.879290e-05 1.045759e-03 -8.680614e-06 1.037427e-03 -4.099258e-06 1.001199e-03 4.422973e-05 9.292320e-04 1.317158e-04 8.150517e-04 2.544688e-04 6.598068e-04 4.108510e-04 4.695564e-04 5.971157e-04 2.515224e-04 8.025188e-04 9.145999e-06 1.005089e-03 -2.549636e-04 1.174999e-03 -5.314426e-04 1.271462e-03 -7.968146e-04 1.235512e-03 -9.769153e-04 9.845618e-04 -7.764727e-04 9.546069e-05 5.663739e-03 3.525813e-03 2.370209e-03 9.323980e-04 1.339226e-03 
3.022828e-03 1.515972e-03 3.633508e-03 2.449112e-03 5.382020e-03 -1.592070e-03 3.230745e-03 -1.337062e-05 3.096700e-03 4.344623e-04 3.267949e-03 4.457485e-04 4.610573e-03 2.666923e-03 5.087563e-03 3.100675e-03 5.080184e-03 4.024870e-03 3.999904e-03 5.141642e-03 2.336132e-03 4.935722e-03 1.846187e-04 3.786301e-03 1.218734e-04 3.370880e-03 1.873973e-04 3.001078e-03 3.585947e-04 2.636445e-03 6.050676e-04 2.269240e-03 8.921619e-04 1.925710e-03 1.193731e-03 1.637471e-03 1.475366e-03 1.417608e-03 1.699908e-03 1.273516e-03 1.850402e-03 1.219719e-03 1.939607e-03 1.279717e-03 2.001335e-03 1.465439e-03 2.063363e-03 1.765035e-03 2.151456e-03 2.166704e-03 2.310460e-03 2.679772e-03 2.608376e-03 3.328147e-03 3.100553e-03 4.097229e-03 3.743523e-03 4.785252e-03 4.183501e-03 5.209131e-03 4.769132e-03 5.351973e-03 5.284477e-03 5.491137e-03 5.433995e-03 5.631660e-03 5.245323e-03 5.243674e-03 4.993189e-03 4.186944e-03 4.391427e-03 3.682973e-03 4.046312e-03 3.158152e-03 3.595762e-03 2.748670e-03 3.131863e-03 2.466020e-03 2.674142e-03 2.313328e-03 2.232789e-03 2.269897e-03 1.813339e-03 2.303048e-03 1.430602e-03 2.384721e-03 1.115300e-03 2.487478e-03 8.922372e-04 2.569970e-03 7.713609e-04 2.586180e-03 7.537750e-04 2.500221e-03 8.427784e-04 2.305026e-03 1.047758e-03 2.017362e-03 1.364448e-03 1.661207e-03 1.761169e-03 1.260338e-03 2.180116e-03 8.484545e-04 2.560943e-03 4.838023e-04 2.850236e-03 2.364406e-04 2.996144e-03 1.714762e-04 2.942881e-03 3.284931e-04 2.629011e-03 7.229915e-04 2.008736e-03 1.358029e-03 1.054263e-03 2.215543e-03 -2.500043e-04 3.236347e-03 -1.849492e-03 4.237856e-03 -3.109356e-03 3.774534e-03 8.635155e-03 3.527359e-03 4.347239e-03 1.791405e-03 
2.231888e-03 -5.172943e-04 2.353988e-03 -2.080849e-03 2.233761e-03 -8.563945e-03 2.026242e-03 -3.895386e-04 -1.412641e-03 7.678090e-04 -3.446589e-03 1.170919e-03 -6.702404e-03 -4.174908e-06 -5.767150e-03 -6.805329e-04 -5.140269e-03 -1.140405e-03 -4.528331e-03 -2.069107e-03 -3.548030e-03 -3.836068e-03 -1.825511e-03 -1.545760e-03 -1.239345e-03 -5.304484e-04 -8.095231e-04 -5.346792e-05 -4.299371e-04 9.425116e-05 -8.284479e-05 5.964064e-05 2.341775e-04 -5.289979e-05 5.141197e-04 -1.719519e-04 7.411708e-04 -2.556348e-04 8.982588e-04 -2.792553e-04 9.798647e-04 -2.253922e-04 9.982976e-04 -7.968238e-05 9.814748e-04 1.644749e-04 9.632517e-04 5.049321e-04 9.853801e-04 9.438011e-04 1.105339e-03 1.498295e-03 1.394072e-03 2.193951e-03 1.913053e-03 3.048939e-03 2.663466e-03 3.698262e-03 2.655884e-03 3.674967e-03 2.985471e-03 3.175110e-03 3.148798e-03 2.910422e-03 2.853342e-03 3.098495e-03 2.661307e-03 3.038205e-03 3.203034e-03 2.468210e-03 3.027125e-03 2.259458e-03 2.677562e-03 1.594380e-03 2.142312e-03 1.133660e-03 1.661712e-03 8.566035e-04 1.254407e-03 7.588284e-04 9.059009e-04 7.858676e-04 5.961008e-04 8.828746e-04 3.241964e-04 1.006369e-03 1.074306e-04 1.120747e-03 -3.354164e-05 1.190537e-03 -8.391692e-05 1.183176e-03 -3.598967e-05 1.076255e-03 1.134089e-04 8.667846e-04 3.631852e-04 5.703674e-04 6.991138e-04 2.144543e-04 1.087544e-03 -1.654899e-04 1.476697e-03 -5.232851e-04 1.808368e-03 -7.983260e-04 2.025551e-03 -9.236919e-04 2.075103e-03 -8.373481e-04 1.911558e-03 -4.946872e-04 1.505009e-03 1.275289e-04 8.606586e-04 1.029592e-03 3.488681e-05 2.170936e-03 -8.488075e-04 3.410690e-03 -1.569012e-03 4.261422e-03 -1.550549e-03 3.508499e-04 3.631567e-03 9.582475e-04 2.606157e-03 2.940306e-04 
