# vtk DataFile Version 2.0
Comment goes here
ASCII

DATASET STRUCTURED_POINTS
FIELD FieldData 1
TIME 1 1 double
0.27000000
DIMENSIONS    128   16   1

ORIGIN    0.000   0.000   0.000
SPACING   0.0078125 0.015625   1.000

POINT_DATA   2048
SCALARS uX double
LOOKUP_TABLE default

-7.872589e-03 -3.981402e-03 -6.751883e-03 -1.040069e-03 -5.215714e-03 2.015887e-03 -1.135015e-02 7.211939e-04 -5.735752e-03 4.135401e-03 3.018573e-03 1.364573e-02 2.120955e-02 3.692854e-02 4.577697e-02 4.829620e-02 5.289434e-02 5.109290e-02 5.034231e-02 4.450673e-02 3.862277e-02 1.991163e-02 1.410934e-02 4.110071e-03 3.523663e-03 -2.336127e-03 -9.649904e-04 -4.997168e-03 -2.892068e-03 -6.006206e-03 -3.746866e-03 -6.298971e-03 -4.173525e-03 -6.275229e-03 -4.423546e-03 -6.097377e-03 -4.606668e-03 -5.884684e-03 -4.771131e-03 -5.662304e-03 -4.877416e-03 -5.411801e-03 -4.903448e-03 -5.173751e-03 -4.907038e-03 -5.022004e-03 -4.955344e-03 -4.979695e-03 -5.014923e-03 -4.957210e-03 -5.002134e-03 -4.880587e-03 -4.912056e-03 -4.817415e-03 -4.846199e-03 -4.809661e-03 -4.204326e-03 -3.945756e-03 -5.387550e-03 -2.744954e-03 -3.476808e-03 -4.326351e-03 -2.281696e-03 -4.124635e-03 -3.442171e-03 -2.469920e-03 -4.936588e-03 -3.637829e-03 -5.349045e-03 -8.956082e-03 -8.759625e-03 -8.036609e-03 -6.366586e-03 -6.130189e-03 -4.603815e-03 -4.863899e-03 -3.770335e-03 -4.532069e-03 -3.533027e-03 -4.574589e-03 -3.503612e-03 -4.658650e-03 -3.505798e-03 -4.643842e-03 -3.503952e-03 -4.506973e-03 -3.526080e-03 -4.279210e-03 -3.634048e-03 -4.039976e-03 -3.875591e-03 -3.809880e-03 -4.179421e-03 -3.532155e-03 -4.425508e-03 -3.173561e-03 -4.577287e-03 -2.854695e-03 -4.708951e-03 -2.703126e-03 -4.799862e-03 -2.704497e-03 -4.741385e-03 -2.833586e-03 -4.495169e-03 -3.110091e-03 -4.087470e-03 -3.565906e-03 -3.544390e-03 -4.154502e-03 -2.886349e-03 -4.821892e-03 -2.202065e-03 -5.530044e-03 -1.616520e-03 -6.174766e-03 -1.255651e-03 -6.607567e-03 -1.374134e-03 -6.698258e-03 -2.580395e-03 -6.380811e-03 -6.721149e-03 -1.883585e-03 -6.236960e-03 -3.454650e-03 -7.523039e-03 -4.722752e-03 
-3.582451e-03 -4.156224e-04 -1.968983e-03 2.718019e-03 1.365578e-03 7.246361e-03 -8.827788e-03 2.233556e-03 -4.331470e-03 1.214741e-03 -4.053217e-05 1.069076e-03 5.352589e-03 2.128345e-04 1.295777e-03 -2.646757e-03 5.767433e-04 -3.412872e-03 1.042611e-03 -2.166326e-03 3.066754e-03 2.565104e-03 2.058897e-03 6.962935e-06 7.749132e-04 -1.253938e-03 1.832998e-04 -1.852979e-03 -1.107851e-04 -2.096680e-03 -3.299201e-04 -2.180167e-03 -5.705636e-04 -2.167892e-03 -7.735174e-04 -1.994589e-03 -9.098946e-04 -1.783920e-03 -1.051573e-03 -1.600338e-03 -1.190396e-03 -1.407279e-03 -1.214357e-03 -1.178291e-03 -1.163540e-03 -1.017176e-03 -1.211402e-03 -1.045550e-03 -1.286966e-03 -9.773707e-04 -1.001462e-03 -3.826661e-04 -7.581485e-05 8.006896e-04 1.491959e-03 2.787918e-03 4.957518e-03 6.402579e-03 2.823826e-03 5.836692e-03 4.545596e-03 2.756506e-03 5.323446e-03 2.364643e-03 2.478131e-03 3.416134e-03 -1.645984e-03 -1.249109e-04 -3.668350e-03 -8.595999e-03 -8.671923e-03 -8.636658e-03 -6.531159e-03 -5.021522e-03 -3.291442e-03 -2.641333e-03 -1.412316e-03 -1.485581e-03 -5.124081e-04 -1.104220e-03 -1.654812e-04 -1.013859e-03 -1.849937e-05 -9.131067e-04 1.036300e-04 -6.657493e-04 2.357057e-04 -2.982305e-04 2.374071e-04 -4.566499e-05 -8.524403e-05 6.017707e-05 -5.197442e-04 2.703395e-04 -7.771982e-04 7.103247e-04 -8.498740e-04 1.123440e-03 -9.547206e-04 1.283215e-03 -1.098774e-03 1.254800e-03 -1.078199e-03 1.116837e-03 -8.625338e-04 8.198658e-04 -4.954337e-04 3.386580e-04 5.987675e-05 -2.123440e-04 7.905757e-04 -8.465532e-04 1.509513e-03 -1.628716e-03 2.070870e-03 -2.412996e-03 2.471750e-03 -2.982801e-03 2.523182e-03 -3.240870e-03 1.652013e-03 -2.898625e-03 -2.010404e-03 4.922502e-03 -2.399006e-03 4.604374e-04 -3.619196e-03 -1.091157e-03 
-1.063516e-02 -8.092570e-03 -7.044511e-03 -1.326222e-03 4.876037e-03 1.535604e-02 3.352488e-03 1.162936e-02 2.348260e-03 6.716151e-03 -1.242028e-03 -1.296251e-03 -1.144954e-02 -1.573362e-02 -2.063162e-02 -2.174221e-02 -2.303313e-02 -2.345628e-02 -2.137496e-02 -2.069709e-02 -1.589786e-02 -9.929785e-03 -1.943120e-03 7.550042e-05 4.715008e-03 4.315162e-03 7.708532e-03 6.230879e-03 9.190329e-03 7.209344e-03 9.900574e-03 7.640697e-03 1.006182e-02 7.816642e-03 1.004380e-02 8.091751e-03 1.009589e-02 8.421764e-03 1.004980e-02 8.641176e-03 9.891023e-03 8.837051e-03 9.874722e-03 9.164367e-03 9.941523e-03 9.366276e-03 9.727745e-03 9.125251e-03 9.211358e-03 8.859769e-03 9.014562e-03 9.187654e-03 9.407733e-03 9.943976e-03 9.743337e-03 1.017829e-02 7.967161e-03 7.533451e-03 8.754600e-03 4.579398e-03 4.319287e-03 7.113261e-03 2.680974e-03 8.011027e-03 6.771607e-03 6.699101e-03 1.200338e-02 1.005749e-02 1.453651e-02 2.076302e-02 2.148799e-02 1.913964e-02 1.668563e-02 1.464310e-02 1.345877e-02 1.216671e-02 1.233127e-02 1.109590e-02 1.179013e-02 1.028986e-02 1.136047e-02 9.713772e-03 1.109503e-02 9.487224e-03 1.112339e-02 9.753283e-03 1.140789e-02 1.027580e-02 1.147454e-02 1.045786e-02 1.090577e-02 1.029966e-02 1.016464e-02 1.037884e-02 9.826851e-03 1.095919e-02 9.841166e-03 1.159585e-02 9.759382e-03 1.182527e-02 9.443347e-03 1.176641e-02 9.320552e-03 1.173492e-02 9.484646e-03 1.153854e-02 9.739033e-03 1.112316e-02 1.023143e-02 1.075424e-02 1.105842e-02 1.035997e-02 1.184266e-02 9.630116e-03 1.237252e-02 8.787450e-03 1.297376e-02 8.299003e-03 1.374266e-02 8.205522e-03 1.444970e-02 9.041620e-03 1.496575e-02 1.432113e-02 -1.548577e-03 -3.362904e-03 -9.215134e-03 -8.612852e-03 
-9.595362e-03 -9.417590e-03 -6.307327e-03 -3.764909e-03 4.688512e-03 1.168584e-02 2.684911e-02 2.061876e-02 2.277881e-02 2.136975e-02 2.028282e-02 2.145708e-02 1.768448e-02 2.317518e-02 2.179946e-02 2.595921e-02 2.270051e-02 2.661585e-02 2.234315e-02 2.526617e-02 2.029644e-02 2.048643e-02 1.998353e-02 2.140688e-02 2.073701e-02 2.173934e-02 2.129962e-02 2.179276e-02 2.179408e-02 2.179795e-02 2.223576e-02 2.169994e-02 2.248968e-02 2.154337e-02 2.260809e-02 2.139765e-02 2.271345e-02 2.135344e-02 2.272544e-02 2.130524e-02 2.263348e-02 2.125953e-02 2.250137e-02 2.128327e-02 2.230016e-02 2.123469e-02 2.195739e-02 2.102104e-02 2.137622e-02 2.063900e-02 2.061669e-02 2.006704e-02 1.962114e-02 1.915294e-02 1.793550e-02 1.701585e-02 1.380735e-02 1.287789e-02 1.584779e-02 1.494694e-02 1.485769e-02 1.879396e-02 1.572175e-02 2.007507e-02 2.034757e-02 2.006619e-02 2.448244e-02 2.332261e-02 2.467907e-02 2.818384e-02 2.705903e-02 2.854382e-02 2.727228e-02 2.597692e-02 2.524896e-02 2.433642e-02 2.431453e-02 2.344999e-02 2.375126e-02 2.283186e-02 2.334449e-02 2.238528e-02 2.304315e-02 2.210573e-02 2.291765e-02 2.207908e-02 2.293665e-02 2.212559e-02 2.283639e-02 2.202662e-02 2.254795e-02 2.185604e-02 2.223087e-02 2.179556e-02 2.204440e-02 2.189951e-02 2.195660e-02 2.210816e-02 2.187461e-02 2.225187e-02 2.166694e-02 2.230988e-02 2.147868e-02 2.249546e-02 2.140258e-02 2.267212e-02 2.128550e-02 2.280096e-02 2.118884e-02 2.297121e-02 2.122165e-02 2.317484e-02 2.126004e-02 2.322847e-02 2.123893e-02 2.316055e-02 2.139522e-02 2.316721e-02 2.196728e-02 2.311395e-02 2.323256e-02 2.261742e-02 2.715232e-02 1.019182e-02 2.173179e-03 -5.054319e-03 -7.380196e-03 -9.827536e-03 
-3.325544e-02 -3.591460e-02 -3.520506e-02 -3.992681e-02 -4.194574e-02 -4.962244e-02 -2.660610e-02 -3.971107e-02 -2.735869e-02 -3.422845e-02 -2.514031e-02 -2.832051e-02 -1.844011e-02 -2.259696e-02 -2.150442e-02 -2.235724e-02 -2.246327e-02 -2.215928e-02 -2.272783e-02 -2.174500e-02 -2.235935e-02 -2.025103e-02 -2.780588e-02 -2.672852e-02 -3.124502e-02 -2.975733e-02 -3.281268e-02 -3.133185e-02 -3.360366e-02 -3.224462e-02 -3.390226e-02 -3.270468e-02 -3.381735e-02 -3.292600e-02 -3.366303e-02 -3.324731e-02 -3.362264e-02 -3.355195e-02 -3.352055e-02 -3.369199e-02 -3.331879e-02 -3.374943e-02 -3.325231e-02 -3.384897e-02 -3.323429e-02 -3.373458e-02 -3.281940e-02 -3.301008e-02 -3.191777e-02 -3.200974e-02 -3.100315e-02 -3.118703e-02 -3.005276e-02 -2.998880e-02 -2.796834e-02 -2.682521e-02 -2.139829e-02 -1.962864e-02 -2.492805e-02 -2.045782e-02 -2.154439e-02 -2.764920e-02 -2.121144e-02 -3.078365e-02 -2.973511e-02 -2.957444e-02 -3.933415e-02 -3.518723e-02 -4.112456e-02 -4.820897e-02 -4.744818e-02 -4.804076e-02 -4.498377e-02 -4.242527e-02 -4.006277e-02 -3.896347e-02 -3.789044e-02 -3.717754e-02 -3.660247e-02 -3.587297e-02 -3.570100e-02 -3.499514e-02 -3.517767e-02 -3.458855e-02 -3.505604e-02 -3.470191e-02 -3.525590e-02 -3.512208e-02 -3.534134e-02 -3.525473e-02 -3.484159e-02 -3.504553e-02 -3.418717e-02 -3.505862e-02 -3.394211e-02 -3.556926e-02 -3.405248e-02 -3.610047e-02 -3.404251e-02 -3.621760e-02 -3.381555e-02 -3.607306e-02 -3.377544e-02 -3.591615e-02 -3.397409e-02 -3.560598e-02 -3.427477e-02 -3.510861e-02 -3.482431e-02 -3.468127e-02 -3.568259e-02 -3.423875e-02 -3.649805e-02 -3.352170e-02 -3.709222e-02 -3.278277e-02 -3.776188e-02 -3.249472e-02 -3.858617e-02 -3.291126e-02 -3.938147e-02 -3.515679e-02 -3.928679e-02 -4.954970e-02 -3.563595e-02 -3.845406e-02 -3.320196e-02 -3.563146e-02 
-3.720865e-02 -3.923197e-02 -4.044047e-02 -4.515847e-02 -5.103309e-02 -6.068029e-02 -5.838975e-02 -6.072067e-02 -5.516807e-02 -5.698502e-02 -5.182257e-02 -5.207343e-02 -4.610604e-02 -4.635041e-02 -4.612341e-02 -4.629359e-02 -4.626545e-02 -4.622149e-02 -4.635118e-02 -4.616436e-02 -4.633412e-02 -4.617944e-02 -5.239740e-02 -5.263599e-02 -5.583393e-02 -5.547199e-02 -5.758844e-02 -5.684769e-02 -5.861637e-02 -5.759948e-02 -5.920936e-02 -5.792824e-02 -5.940138e-02 -5.803742e-02 -5.942598e-02 -5.817402e-02 -5.948368e-02 -5.835953e-02 -5.944617e-02 -5.845191e-02 -5.929450e-02 -5.849754e-02 -5.919180e-02 -5.860499e-02 -5.907614e-02 -5.855053e-02 -5.868122e-02 -5.808436e-02 -5.790800e-02 -5.738525e-02 -5.705372e-02 -5.668240e-02 -5.610878e-02 -5.564103e-02 -5.435814e-02 -5.325182e-02 -5.051611e-02 -4.998744e-02 -5.367341e-02 -5.298756e-02 -5.217998e-02 -5.759776e-02 -5.303423e-02 -5.778615e-02 -5.814373e-02 -5.544493e-02 -5.976064e-02 -5.635858e-02 -5.560923e-02 -5.626576e-02 -5.305749e-02 -5.570348e-02 -5.724346e-02 -5.786296e-02 -5.865224e-02 -5.882901e-02 -5.959746e-02 -5.927123e-02 -5.996225e-02 -5.921462e-02 -5.999029e-02 -5.902629e-02 -5.995110e-02 -5.895571e-02 -6.005911e-02 -5.920213e-02 -6.032463e-02 -5.958622e-02 -6.037942e-02 -5.968655e-02 -5.996384e-02 -5.954370e-02 -5.942061e-02 -5.957641e-02 -5.915843e-02 -5.996341e-02 -5.913905e-02 -6.042331e-02 -5.906747e-02 -6.061386e-02 -5.880753e-02 -6.058792e-02 -5.866484e-02 -6.061641e-02 -5.873947e-02 -6.053871e-02 -5.886469e-02 -6.031637e-02 -5.915553e-02 -6.014153e-02 -5.970987e-02 -5.997344e-02 -6.025780e-02 -5.957323e-02 -6.065684e-02 -5.911821e-02 -6.121468e-02 -5.903949e-02 -6.214057e-02 -5.945913e-02 -6.351355e-02 -6.068145e-02 -6.604157e-02 -5.899991e-02 -4.588210e-02 -4.307568e-02 -3.849659e-02 -3.866305e-02 
-4.756716e-02 -4.959449e-02 -4.916423e-02 -5.270215e-02 -5.357272e-02 -5.941507e-02 -6.214168e-02 -6.311457e-02 -6.135474e-02 -6.357221e-02 -6.183644e-02 -6.379015e-02 -6.321155e-02 -6.350429e-02 -6.322886e-02 -6.343515e-02 -6.340029e-02 -6.334063e-02 -6.350282e-02 -6.325033e-02 -6.349002e-02 -6.325035e-02 -6.349758e-02 -6.297127e-02 -6.334416e-02 -6.276230e-02 -6.335322e-02 -6.264373e-02 -6.343868e-02 -6.260869e-02 -6.354290e-02 -6.259462e-02 -6.358832e-02 -6.259374e-02 -6.358130e-02 -6.261605e-02 -6.356134e-02 -6.268046e-02 -6.350214e-02 -6.273726e-02 -6.339880e-02 -6.277452e-02 -6.326670e-02 -6.279734e-02 -6.308449e-02 -6.274347e-02 -6.282303e-02 -6.259213e-02 -6.247887e-02 -6.239138e-02 -6.214471e-02 -6.222732e-02 -6.194276e-02 -6.222587e-02 -6.206446e-02 -6.278862e-02 -6.382924e-02 -6.433438e-02 -6.193218e-02 -6.427818e-02 -6.158511e-02 -6.189083e-02 -6.279819e-02 -6.110248e-02 -6.170847e-02 -6.302658e-02 -6.027543e-02 -6.332101e-02 -6.247441e-02 -6.254832e-02 -6.374153e-02 -6.240001e-02 -6.204993e-02 -6.303086e-02 -6.353367e-02 -6.388306e-02 -6.415978e-02 -6.405068e-02 -6.432560e-02 -6.396182e-02 -6.431306e-02 -6.381603e-02 -6.424862e-02 -6.372539e-02 -6.421613e-02 -6.375960e-02 -6.420691e-02 -6.384697e-02 -6.410802e-02 -6.389226e-02 -6.389079e-02 -6.391738e-02 -6.363477e-02 -6.400096e-02 -6.343497e-02 -6.416496e-02 -6.329945e-02 -6.436126e-02 -6.319306e-02 -6.449472e-02 -6.307381e-02 -6.453731e-02 -6.300456e-02 -6.455720e-02 -6.303768e-02 -6.451695e-02 -6.313440e-02 -6.441154e-02 -6.330846e-02 -6.427560e-02 -6.357019e-02 -6.411324e-02 -6.383877e-02 -6.388176e-02 -6.404711e-02 -6.362572e-02 -6.421553e-02 -6.345307e-02 -6.431419e-02 -6.331652e-02 -6.415575e-02 -6.287105e-02 -6.378159e-02 -5.746095e-02 -5.321403e-02 -5.153041e-02 -4.877196e-02 -4.919167e-02 
-4.660431e-02 -4.794947e-02 -4.827136e-02 -5.080696e-02 -5.200729e-02 -5.526220e-02 -5.661744e-02 -5.914109e-02 -6.026652e-02 -6.261082e-02 -6.540990e-02 -6.746673e-02 -7.392407e-02 -7.405376e-02 -7.397024e-02 -7.403885e-02 -7.401878e-02 -7.400670e-02 -7.405231e-02 -7.396772e-02 -7.405707e-02 -7.391185e-02 -6.665908e-02 -6.581550e-02 -6.268665e-02 -6.206032e-02 -6.090744e-02 -6.015354e-02 -6.008194e-02 -5.916826e-02 -5.970016e-02 -5.865094e-02 -5.950352e-02 -5.838739e-02 -5.938676e-02 -5.828118e-02 -5.930903e-02 -5.827139e-02 -5.923385e-02 -5.830773e-02 -5.914973e-02 -5.836825e-02 -5.906283e-02 -5.843745e-02 -5.895833e-02 -5.847763e-02 -5.881511e-02 -5.847521e-02 -5.865534e-02 -5.848812e-02 -5.857085e-02 -5.861867e-02 -5.867408e-02 -5.897210e-02 -5.908552e-02 -5.974898e-02 -6.026286e-02 -6.048504e-02 -5.786197e-02 -6.109895e-02 -6.063541e-02 -5.885506e-02 -6.223200e-02 -5.994950e-02 -5.996702e-02 -6.299642e-02 -5.914790e-02 -6.175829e-02 -6.041971e-02 -5.883943e-02 -6.108292e-02 -6.060854e-02 -5.968917e-02 -5.918419e-02 -5.935521e-02 -5.903535e-02 -5.941395e-02 -5.895141e-02 -5.947049e-02 -5.887891e-02 -5.950962e-02 -5.883787e-02 -5.954205e-02 -5.885881e-02 -5.957952e-02 -5.895627e-02 -5.960129e-02 -5.909123e-02 -5.954879e-02 -5.920645e-02 -5.939726e-02 -5.930450e-02 -5.920116e-02 -5.943501e-02 -5.903206e-02 -5.961566e-02 -5.890612e-02 -5.979888e-02 -5.879817e-02 -5.992185e-02 -5.870148e-02 -5.997216e-02 -5.865987e-02 -5.997130e-02 -5.870097e-02 -5.990677e-02 -5.881469e-02 -5.977354e-02 -5.900015e-02 -5.958806e-02 -5.924198e-02 -5.934723e-02 -5.947572e-02 -5.902756e-02 -5.962929e-02 -5.863296e-02 -5.963729e-02 -5.815114e-02 -5.934074e-02 -5.742311e-02 -5.836766e-02 -5.605336e-02 -5.610042e-02 -5.313366e-02 -5.088963e-02 -4.934908e-02 -4.749802e-02 -4.743508e-02 
-5.137721e-02 -5.288613e-02 -5.258003e-02 -5.511571e-02 -5.565481e-02 -5.871485e-02 -6.001389e-02 -6.238964e-02 -6.369076e-02 -6.603223e-02 -6.874180e-02 -7.090471e-02 -7.716959e-02 -7.733699e-02 -7.721359e-02 -7.730705e-02 -7.728433e-02 -7.725427e-02 -7.733865e-02 -7.719966e-02 -7.735311e-02 -7.714466e-02 -6.979701e-02 -6.892927e-02 -6.592944e-02 -6.533418e-02 -6.427525e-02 -6.361370e-02 -6.354364e-02 -6.278369e-02 -6.323191e-02 -6.239273e-02 -6.310030e-02 -6.222851e-02 -6.304036e-02 -6.219037e-02 -6.300545e-02 -6.222830e-02 -6.297691e-02 -6.231610e-02 -6.295492e-02 -6.244302e-02 -6.294722e-02 -6.260236e-02 -6.296167e-02 -6.279559e-02 -6.302523e-02 -6.305683e-02 -6.320128e-02 -6.346526e-02 -6.360402e-02 -6.415599e-02 -6.440884e-02 -6.532456e-02 -6.585361e-02 -6.732663e-02 -6.877114e-02 -7.067609e-02 -6.660845e-02 -6.871423e-02 -6.829585e-02 -6.573333e-02 -6.798895e-02 -6.547218e-02 -6.477876e-02 -6.627242e-02 -6.166401e-02 -6.374970e-02 -6.086349e-02 -5.791725e-02 -5.754772e-02 -5.813958e-02 -5.949565e-02 -6.056306e-02 -6.134171e-02 -6.177937e-02 -6.228794e-02 -6.236655e-02 -6.277617e-02 -6.262742e-02 -6.301711e-02 -6.274693e-02 -6.313401e-02 -6.282604e-02 -6.318475e-02 -6.291008e-02 -6.318566e-02 -6.300459e-02 -6.313209e-02 -6.310297e-02 -6.302854e-02 -6.320813e-02 -6.289725e-02 -6.332875e-02 -6.276510e-02 -6.346233e-02 -6.264627e-02 -6.358886e-02 -6.254388e-02 -6.368170e-02 -6.246448e-02 -6.372988e-02 -6.243016e-02 -6.373701e-02 -6.245651e-02 -6.369640e-02 -6.253789e-02 -6.360063e-02 -6.266282e-02 -6.345202e-02 -6.281378e-02 -6.325366e-02 -6.295210e-02 -6.299596e-02 -6.301532e-02 -6.265422e-02 -6.291439e-02 -6.216037e-02 -6.248856e-02 -6.131882e-02 -6.143264e-02 -5.972489e-02 -5.926645e-02 -5.681990e-02 -5.514786e-02 -5.392992e-02 -5.227152e-02 -5.248049e-02 
-4.660731e-02 -4.795246e-02 -4.827456e-02 -5.080988e-02 -5.201122e-02 -5.526505e-02 -5.662097e-02 -5.914266e-02 -6.026665e-02 -6.260789e-02 -6.540615e-02 -6.746234e-02 -7.392273e-02 -7.405399e-02 -7.396891e-02 -7.403959e-02 -7.401780e-02 -7.400795e-02 -7.405131e-02 -7.396929e-02 -7.405615e-02 -7.391397e-02 -6.666692e-02 -6.581952e-02 -6.269044e-02 -6.205563e-02 -6.089854e-02 -6.013729e-02 -6.006659e-02 -5.915414e-02 -5.969947e-02 -5.866462e-02 -5.953904e-02 -5.844073e-02 -5.945905e-02 -5.836563e-02 -5.939768e-02 -5.837339e-02 -5.933904e-02 -5.844919e-02 -5.930709e-02 -5.859636e-02 -5.931225e-02 -5.878603e-02 -5.933484e-02 -5.899397e-02 -5.938916e-02 -5.925030e-02 -5.953504e-02 -5.961729e-02 -5.984996e-02 -6.017987e-02 -6.043572e-02 -6.104294e-02 -6.141164e-02 -6.238233e-02 -6.323275e-02 -6.454931e-02 -6.233754e-02 -6.249240e-02 -6.198093e-02 -6.084740e-02 -6.122108e-02 -6.035335e-02 -5.982657e-02 -6.041396e-02 -5.864276e-02 -5.995312e-02 -5.953014e-02 -5.909418e-02 -5.869082e-02 -5.789679e-02 -5.834550e-02 -5.857569e-02 -5.904927e-02 -5.887672e-02 -5.935486e-02 -5.895079e-02 -5.949130e-02 -5.893458e-02 -5.954912e-02 -5.891299e-02 -5.957406e-02 -5.892537e-02 -5.957613e-02 -5.898251e-02 -5.954727e-02 -5.907432e-02 -5.947374e-02 -5.918963e-02 -5.935641e-02 -5.932434e-02 -5.921092e-02 -5.947928e-02 -5.906500e-02 -5.965164e-02 -5.893487e-02 -5.980818e-02 -5.881080e-02 -5.990637e-02 -5.870379e-02 -5.994786e-02 -5.866251e-02 -5.995091e-02 -5.871266e-02 -5.990150e-02 -5.883255e-02 -5.976906e-02 -5.899742e-02 -5.955862e-02 -5.920416e-02 -5.929853e-02 -5.942981e-02 -5.899341e-02 -5.960499e-02 -5.862700e-02 -5.963517e-02 -5.816232e-02 -5.935102e-02 -5.744171e-02 -5.838320e-02 -5.607008e-02 -5.611147e-02 -5.314409e-02 -5.089646e-02 -4.935504e-02 -4.750200e-02 -4.743884e-02 
-4.757122e-02 -4.959959e-02 -4.916927e-02 -5.270731e-02 -5.357994e-02 -5.941947e-02 -6.214841e-02 -6.311706e-02 -6.135354e-02 -6.356312e-02 -6.182491e-02 -6.377711e-02 -6.320735e-02 -6.350368e-02 -6.322743e-02 -6.343614e-02 -6.339996e-02 -6.334112e-02 -6.349966e-02 -6.325297e-02 -6.348632e-02 -6.326404e-02 -6.352053e-02 -6.298565e-02 -6.335773e-02 -6.276684e-02 -6.335211e-02 -6.263719e-02 -6.343513e-02 -6.260734e-02 -6.356703e-02 -6.265354e-02 -6.368774e-02 -6.273577e-02 -6.377099e-02 -6.284550e-02 -6.380278e-02 -6.296611e-02 -6.380800e-02 -6.312972e-02 -6.383907e-02 -6.337422e-02 -6.392719e-02 -6.366564e-02 -6.403366e-02 -6.397117e-02 -6.417172e-02 -6.432697e-02 -6.440267e-02 -6.477157e-02 -6.475876e-02 -6.534276e-02 -6.526351e-02 -6.603307e-02 -6.586951e-02 -6.674786e-02 -6.641257e-02 -6.734361e-02 -6.650696e-02 -6.707819e-02 -6.644875e-02 -6.646942e-02 -6.592241e-02 -6.588227e-02 -6.494029e-02 -6.517700e-02 -6.387482e-02 -6.416834e-02 -6.307037e-02 -6.300734e-02 -6.240320e-02 -6.253797e-02 -6.251474e-02 -6.269179e-02 -6.284824e-02 -6.289061e-02 -6.316358e-02 -6.304362e-02 -6.339874e-02 -6.314540e-02 -6.356979e-02 -6.322894e-02 -6.368669e-02 -6.331397e-02 -6.375643e-02 -6.342041e-02 -6.377962e-02 -6.354298e-02 -6.374907e-02 -6.368000e-02 -6.366762e-02 -6.382905e-02 -6.355189e-02 -6.399627e-02 -6.342927e-02 -6.417926e-02 -6.331327e-02 -6.434263e-02 -6.318752e-02 -6.443885e-02 -6.305833e-02 -6.447801e-02 -6.299551e-02 -6.449882e-02 -6.303694e-02 -6.448655e-02 -6.314819e-02 -6.438914e-02 -6.329365e-02 -6.421214e-02 -6.348794e-02 -6.401063e-02 -6.374308e-02 -6.381285e-02 -6.400302e-02 -6.362040e-02 -6.421886e-02 -6.347813e-02 -6.433496e-02 -6.335065e-02 -6.419123e-02 -6.290765e-02 -6.380656e-02 -5.748158e-02 -5.322555e-02 -5.154041e-02 -4.877722e-02 -4.919774e-02 
-3.721269e-02 -3.923794e-02 -4.044790e-02 -4.516752e-02 -5.104926e-02 -6.069313e-02 -5.841069e-02 -6.073992e-02 -5.516947e-02 -5.696637e-02 -5.178764e-02 -5.203977e-02 -4.609152e-02 -4.635094e-02 -4.611788e-02 -4.629598e-02 -4.626423e-02 -4.622650e-02 -4.634810e-02 -4.616850e-02 -4.632162e-02 -4.619092e-02 -5.246516e-02 -5.269548e-02 -5.588237e-02 -5.547050e-02 -5.753444e-02 -5.673790e-02 -5.848045e-02 -5.745193e-02 -5.911980e-02 -5.791494e-02 -5.950618e-02 -5.822679e-02 -5.971674e-02 -5.846349e-02 -5.973958e-02 -5.855466e-02 -5.959729e-02 -5.865534e-02 -5.957712e-02 -5.899950e-02 -5.975456e-02 -5.939964e-02 -5.985009e-02 -5.964298e-02 -5.986393e-02 -5.988481e-02 -5.998738e-02 -6.020849e-02 -6.020875e-02 -6.059824e-02 -6.053017e-02 -6.105928e-02 -6.092028e-02 -6.150849e-02 -6.123866e-02 -6.180669e-02 -6.125198e-02 -6.158893e-02 -6.111675e-02 -6.120846e-02 -6.074640e-02 -6.080151e-02 -6.020304e-02 -6.040684e-02 -5.978744e-02 -6.010223e-02 -5.973348e-02 -5.986590e-02 -5.970702e-02 -5.961514e-02 -5.970331e-02 -5.950359e-02 -5.976137e-02 -5.936118e-02 -5.979587e-02 -5.921729e-02 -5.983078e-02 -5.912075e-02 -5.989414e-02 -5.908793e-02 -5.995234e-02 -5.910546e-02 -5.998330e-02 -5.918871e-02 -5.997273e-02 -5.929933e-02 -5.988065e-02 -5.944434e-02 -5.974044e-02 -5.962605e-02 -5.953698e-02 -5.982433e-02 -5.934930e-02 -6.012899e-02 -5.925743e-02 -6.043537e-02 -5.907538e-02 -6.050135e-02 -5.876854e-02 -6.045916e-02 -5.863546e-02 -6.051619e-02 -5.879568e-02 -6.058950e-02 -5.903651e-02 -6.041425e-02 -5.921065e-02 -6.003513e-02 -5.949697e-02 -5.970048e-02 -6.000873e-02 -5.942095e-02 -6.058184e-02 -5.914088e-02 -6.124180e-02 -5.910893e-02 -6.219917e-02 -5.955298e-02 -6.359275e-02 -6.074354e-02 -6.606792e-02 -5.902066e-02 -4.589680e-02 -4.308524e-02 -3.850158e-02 -3.866868e-02 
-3.325441e-02 -3.592047e-02 -3.521095e-02 -3.994035e-02 -4.196289e-02 -4.964719e-02 -2.662991e-02 -3.974715e-02 -2.736480e-02 -3.422572e-02 -2.510566e-02 -2.829430e-02 -1.840942e-02 -2.258523e-02 -2.150614e-02 -2.237155e-02 -2.248062e-02 -2.215702e-02 -2.271810e-02 -2.172307e-02 -2.232463e-02 -2.027718e-02 -2.787535e-02 -2.685162e-02 -3.133178e-02 -2.978338e-02 -3.275778e-02 -3.118125e-02 -3.343400e-02 -3.205670e-02 -3.383236e-02 -3.268186e-02 -3.401486e-02 -3.316471e-02 -3.406530e-02 -3.353832e-02 -3.394969e-02 -3.368372e-02 -3.364634e-02 -3.379487e-02 -3.358301e-02 -3.419968e-02 -3.382757e-02 -3.465457e-02 -3.400197e-02 -3.486183e-02 -3.408543e-02 -3.502538e-02 -3.429171e-02 -3.525787e-02 -3.457018e-02 -3.546304e-02 -3.485374e-02 -3.565941e-02 -3.510173e-02 -3.579659e-02 -3.528898e-02 -3.591471e-02 -3.543056e-02 -3.593462e-02 -3.548429e-02 -3.572641e-02 -3.522545e-02 -3.528521e-02 -3.461730e-02 -3.471127e-02 -3.401846e-02 -3.420533e-02 -3.370680e-02 -3.386159e-02 -3.359948e-02 -3.370832e-02 -3.365689e-02 -3.368059e-02 -3.378192e-02 -3.366300e-02 -3.391601e-02 -3.367539e-02 -3.408765e-02 -3.375324e-02 -3.428669e-02 -3.389129e-02 -3.446684e-02 -3.406939e-02 -3.458403e-02 -3.427829e-02 -3.461537e-02 -3.448456e-02 -3.452799e-02 -3.471705e-02 -3.440711e-02 -3.499491e-02 -3.421427e-02 -3.525428e-02 -3.405577e-02 -3.564292e-02 -3.406648e-02 -3.602112e-02 -3.397299e-02 -3.604166e-02 -3.374240e-02 -3.590822e-02 -3.376928e-02 -3.588153e-02 -3.418397e-02 -3.582659e-02 -3.467630e-02 -3.539577e-02 -3.504938e-02 -3.467708e-02 -3.555522e-02 -3.401526e-02 -3.629616e-02 -3.340597e-02 -3.703336e-02 -3.280937e-02 -3.775930e-02 -3.254913e-02 -3.861377e-02 -3.300224e-02 -3.940247e-02 -3.517407e-02 -3.924759e-02 -4.953607e-02 -3.562201e-02 -3.844978e-02 -3.319477e-02 -3.563218e-02 
-9.582500e-03 -9.415262e-03 -6.297184e-03 -3.765869e-03 4.701307e-03 1.168081e-02 2.686399e-02 2.061403e-02 2.277862e-02 2.133892e-02 2.025921e-02 2.142245e-02 1.768271e-02 2.317352e-02 2.181112e-02 2.596051e-02 2.273866e-02 2.662887e-02 2.240878e-02 2.530293e-02 2.037747e-02 2.055602e-02 2.008394e-02 2.146170e-02 2.079232e-02 2.177780e-02 2.131080e-02 2.181180e-02 2.177275e-02 2.180015e-02 2.221120e-02 2.178594e-02 2.255692e-02 2.174799e-02 2.281259e-02 2.173351e-02 2.295598e-02 2.170174e-02 2.300774e-02 2.172054e-02 2.305966e-02 2.188589e-02 2.316154e-02 2.209716e-02 2.317317e-02 2.225472e-02 2.310260e-02 2.242701e-02 2.305997e-02 2.263237e-02 2.304208e-02 2.288522e-02 2.307533e-02 2.315351e-02 2.314083e-02 2.336700e-02 2.313742e-02 2.344357e-02 2.308869e-02 2.339425e-02 2.295558e-02 2.327790e-02 2.273015e-02 2.302897e-02 2.247544e-02 2.267958e-02 2.223677e-02 2.240158e-02 2.207134e-02 2.222633e-02 2.200490e-02 2.200823e-02 2.192555e-02 2.181830e-02 2.188062e-02 2.166058e-02 2.188306e-02 2.156498e-02 2.192898e-02 2.153147e-02 2.202243e-02 2.154103e-02 2.211784e-02 2.156426e-02 2.220464e-02 2.162278e-02 2.227876e-02 2.168503e-02 2.230647e-02 2.174288e-02 2.227666e-02 2.179228e-02 2.219456e-02 2.185759e-02 2.209930e-02 2.197709e-02 2.201135e-02 2.211154e-02 2.185132e-02 2.216673e-02 2.158526e-02 2.219659e-02 2.135551e-02 2.232009e-02 2.123789e-02 2.252141e-02 2.115035e-02 2.267144e-02 2.102685e-02 2.276803e-02 2.095097e-02 2.290570e-02 2.101634e-02 2.306977e-02 2.116146e-02 2.315790e-02 2.143386e-02 2.321475e-02 2.203689e-02 2.317586e-02 2.334189e-02 2.269049e-02 2.723051e-02 1.023141e-02 2.216044e-03 -5.036121e-03 -7.358488e-03 -9.819960e-03 
-1.062512e-02 -8.088436e-03 -7.032371e-03 -1.319074e-03 4.897477e-03 1.536941e-02 3.379347e-03 1.165125e-02 2.351718e-03 6.692493e-03 -1.285733e-03 -1.340395e-03 -1.148029e-02 -1.574546e-02 -2.062321e-02 -2.172455e-02 -2.299105e-02 -2.346199e-02 -2.133859e-02 -2.071631e-02 -1.586979e-02 -9.872273e-03 -1.828179e-03 2.030796e-04 4.811155e-03 4.347312e-03 7.649193e-03 6.096317e-03 8.998550e-03 7.020221e-03 9.764447e-03 7.608006e-03 1.016197e-02 8.029631e-03 1.034242e-02 8.365482e-03 1.029438e-02 8.495767e-03 1.001695e-02 8.613383e-03 9.922672e-03 9.037927e-03 1.009142e-02 9.500581e-03 1.012329e-02 9.684684e-03 9.994109e-03 9.788140e-03 9.937562e-03 9.915574e-03 9.910090e-03 9.991371e-03 9.867633e-03 1.002746e-02 9.802211e-03 1.003859e-02 9.779079e-03 1.023204e-02 9.880834e-03 1.055089e-02 1.035761e-02 1.060458e-02 1.058885e-02 1.056171e-02 1.029220e-02 1.045484e-02 9.941768e-03 1.013426e-02 9.893858e-03 9.658845e-03 9.853436e-03 9.645926e-03 1.022363e-02 9.800964e-03 1.055504e-02 9.799014e-03 1.069851e-02 9.672260e-03 1.077521e-02 9.567894e-03 1.087250e-02 9.545517e-03 1.096630e-02 9.602268e-03 1.101963e-02 9.746291e-03 1.100334e-02 9.926894e-03 1.085971e-02 1.015144e-02 1.064716e-02 1.042753e-02 1.034183e-02 1.071450e-02 1.006757e-02 1.115541e-02 9.955770e-03 1.159550e-02 9.731216e-03 1.167468e-02 9.352772e-03 1.158687e-02 9.237474e-03 1.161170e-02 9.541414e-03 1.162634e-02 9.961679e-03 1.127075e-02 1.029328e-02 1.062068e-02 1.077934e-02 1.001578e-02 1.152927e-02 9.440471e-03 1.227673e-02 8.802101e-03 1.299354e-02 8.366304e-03 1.381081e-02 8.314542e-03 1.453594e-02 9.095949e-03 1.498608e-02 1.433297e-02 -1.527371e-03 -3.355553e-03 -9.202693e-03 -8.608541e-03 
-3.576901e-03 -4.129218e-04 -1.962380e-03 2.722340e-03 1.375290e-03 7.254423e-03 -8.816639e-03 2.244749e-03 -4.325423e-03 1.213445e-03 -4.540651e-05 1.060408e-03 5.354406e-03 2.143255e-04 1.303928e-03 -2.638189e-03 5.801753e-04 -3.402445e-03 1.038188e-03 -2.166147e-03 3.058119e-03 2.555383e-03 2.092021e-03 5.769917e-05 8.189695e-04 -1.237999e-03 1.649732e-04 -1.908392e-03 -1.808741e-04 -2.160864e-03 -3.584237e-04 -2.180218e-03 -4.960952e-04 -2.064385e-03 -6.288043e-04 -1.885511e-03 -7.997361e-04 -1.745522e-03 -1.035428e-03 -1.594517e-03 -1.144470e-03 -1.309740e-03 -1.097277e-03 -1.007261e-03 -1.060551e-03 -8.403670e-04 -1.069351e-03 -7.410635e-04 -1.033642e-03 -6.280963e-04 -9.442083e-04 -5.236546e-04 -8.420806e-04 -4.250401e-04 -7.628774e-04 -3.123895e-04 -6.220676e-04 7.119991e-05 -6.055771e-04 -4.327584e-05 -4.159662e-04 -3.529201e-04 -5.118043e-04 -6.114074e-04 -1.130961e-03 -9.329895e-04 -1.704662e-03 -1.460319e-03 -1.759677e-03 -1.782153e-03 -1.823930e-03 -2.124683e-03 -1.655401e-03 -1.680509e-03 -9.902300e-04 -1.286642e-03 -5.933008e-04 -1.171912e-03 -3.831823e-04 -1.143487e-03 -2.284363e-04 -1.080621e-03 -9.311221e-05 -9.447616e-04 1.973563e-06 -7.397388e-04 2.463600e-05 -4.945195e-04 -6.784032e-05 -2.301013e-04 -2.515876e-04 5.684561e-05 -5.061809e-04 3.582955e-04 -7.318883e-04 7.395396e-04 -8.507785e-04 1.089370e-03 -9.895677e-04 1.208372e-03 -1.142253e-03 1.172591e-03 -1.103476e-03 1.089187e-03 -7.993226e-04 8.898379e-04 -3.621418e-04 4.289082e-04 1.180167e-04 -2.367955e-04 7.196208e-04 -9.475516e-04 1.415997e-03 -1.687614e-03 2.031523e-03 -2.419644e-03 2.457941e-03 -2.970514e-03 2.533974e-03 -3.205241e-03 1.660521e-03 -2.894081e-03 -2.021211e-03 4.919357e-03 -2.395403e-03 4.617900e-04 -3.614105e-03 -1.088938e-03 
