# vtk DataFile Version 2.0
Comment goes here
ASCII

DATASET STRUCTURED_POINTS
FIELD FieldData 1
TIME 1 1 double
0.38000000
DIMENSIONS    128   16   1

ORIGIN    0.000   0.000   0.000
SPACING   0.0078125 0.015625   1.000

POINT_DATA   2048
SCALARS uX double
LOOKUP_TABLE default

-6.035226e-03 -4.219974e-03 -4.853260e-03 -2.499182e-03 -3.536341e-03 -2.485975e-03 -9.857885e-03 -1.598819e-04 -5.539019e-03 3.994290e-03 2.931752e-03 1.400595e-02 2.079247e-02 3.579558e-02 4.357878e-02 4.754562e-02 4.981821e-02 5.001499e-02 4.763092e-02 4.326396e-02 3.672558e-02 2.058512e-02 1.353893e-02 4.892217e-03 2.792741e-03 -1.739075e-03 -1.705379e-03 -4.612813e-03 -3.588010e-03 -5.852344e-03 -4.330525e-03 -6.340834e-03 -4.590417e-03 -6.485565e-03 -4.688044e-03 -6.485562e-03 -4.760647e-03 -6.403995e-03 -4.826399e-03 -6.245390e-03 -4.883860e-03 -6.032839e-03 -4.951028e-03 -5.800912e-03 -5.038544e-03 -5.569759e-03 -5.140584e-03 -5.344861e-03 -5.231749e-03 -5.109706e-03 -5.258945e-03 -4.827450e-03 -5.139734e-03 -4.438774e-03 -4.699900e-03 -3.617627e-03 -2.993938e-03 -2.519529e-03 -4.922303e-03 1.074371e-03 -1.114580e-03 -1.450571e-03 2.323661e-03 -1.683688e-03 6.673784e-04 1.456260e-03 -3.290975e-03 -1.420514e-04 -4.491383e-03 -1.119380e-02 -9.065144e-03 -6.910506e-03 -4.991643e-03 -5.796134e-03 -4.248878e-03 -5.124492e-03 -3.848442e-03 -4.883278e-03 -3.748540e-03 -4.802061e-03 -3.778624e-03 -4.730153e-03 -3.866302e-03 -4.601614e-03 -3.988121e-03 -4.408455e-03 -4.152116e-03 -4.173366e-03 -4.360905e-03 -3.919494e-03 -4.590042e-03 -3.659118e-03 -4.797236e-03 -3.416751e-03 -4.952999e-03 -3.238165e-03 -5.032594e-03 -3.161011e-03 -5.003765e-03 -3.211117e-03 -4.846979e-03 -3.411606e-03 -4.561635e-03 -3.757545e-03 -4.139172e-03 -4.201641e-03 -3.593433e-03 -4.705492e-03 -3.001618e-03 -5.242931e-03 -2.464168e-03 -5.744816e-03 -2.048628e-03 -6.092096e-03 -1.823340e-03 -6.190781e-03 -1.914412e-03 -5.997985e-03 -2.515325e-03 -5.507781e-03 -3.997358e-03 -4.830529e-03 -7.587277e-03 -1.409193e-03 -4.919742e-03 -2.753071e-03 -5.780531e-03 -4.334246e-03 
-2.093577e-03 -6.688827e-04 -4.202941e-04 1.439520e-03 2.852665e-03 1.902096e-03 -7.500264e-03 2.053336e-03 -5.142402e-03 1.721608e-03 -2.176351e-03 1.764196e-03 1.199274e-03 1.911613e-04 -2.278373e-03 -3.071636e-03 -2.601394e-03 -4.117952e-03 -1.744071e-03 -3.442285e-03 8.749713e-04 1.873546e-04 9.778056e-04 -8.552016e-04 9.968319e-05 -1.447567e-03 -2.541690e-04 -1.798329e-03 -4.154439e-04 -2.020803e-03 -4.576378e-04 -2.096156e-03 -4.109063e-04 -2.051415e-03 -3.537367e-04 -1.957681e-03 -3.454656e-04 -1.840032e-03 -3.876132e-04 -1.707603e-03 -4.871394e-04 -1.580142e-03 -6.388855e-04 -1.441097e-03 -7.793488e-04 -1.221517e-03 -8.219592e-04 -8.718305e-04 -7.259936e-04 -3.901560e-04 -4.498575e-04 2.962360e-04 2.305947e-04 1.539990e-03 2.001088e-03 4.464456e-03 6.738962e-03 8.162000e-03 3.001826e-03 8.657963e-03 5.394087e-03 3.609182e-03 7.891488e-03 2.064741e-03 3.974646e-03 4.807528e-03 -1.904318e-03 2.433398e-03 -1.005829e-03 -6.177528e-03 -3.564577e-03 -3.873271e-03 -2.584367e-03 -2.753014e-03 -1.250614e-03 -1.744206e-03 -4.820517e-04 -1.158799e-03 -6.689418e-06 -7.499861e-04 2.590290e-04 -4.688010e-04 3.473059e-04 -2.330286e-04 3.247514e-04 3.850025e-06 2.028990e-04 2.446953e-04 1.125625e-05 5.041824e-04 -2.028092e-04 7.760183e-04 -4.078256e-04 1.021532e-03 -5.811605e-04 1.200921e-03 -6.774384e-04 1.298134e-03 -6.508488e-04 1.275789e-03 -5.008665e-04 1.089565e-03 -2.306776e-04 7.476753e-04 1.834030e-04 3.087729e-04 7.368070e-04 -1.972589e-04 1.330202e-03 -7.743030e-04 1.849525e-03 -1.337594e-03 2.268601e-03 -1.730696e-03 2.533551e-03 -1.874703e-03 2.497449e-03 -1.749680e-03 1.962896e-03 -1.314155e-03 5.795213e-04 -4.212978e-04 -2.999848e-03 5.482739e-03 -4.962501e-05 1.249426e-03 -1.902327e-03 -7.827903e-04 
-8.712728e-03 -7.132219e-03 -4.721050e-03 1.827443e-04 8.290259e-03 1.431593e-02 5.289933e-03 1.158651e-02 4.175667e-03 6.976918e-03 7.524895e-04 -9.190193e-04 -8.506234e-03 -1.388041e-02 -1.729345e-02 -1.960306e-02 -1.965298e-02 -2.074791e-02 -1.864889e-02 -1.731479e-02 -1.419079e-02 -6.668197e-03 -1.636859e-03 2.598747e-03 4.927024e-03 6.568311e-03 7.869614e-03 8.123380e-03 9.219165e-03 8.641754e-03 9.930270e-03 8.858755e-03 1.045008e-02 9.039553e-03 1.083911e-02 9.185979e-03 1.107484e-02 9.307387e-03 1.116309e-02 9.385700e-03 1.107700e-02 9.392255e-03 1.082794e-02 9.379717e-03 1.054338e-02 9.493402e-03 1.036102e-02 9.760008e-03 1.017273e-02 9.909424e-03 9.638003e-03 9.575008e-03 8.455649e-03 8.541739e-03 6.408298e-03 6.285900e-03 1.995692e-03 3.233413e-03 5.165290e-03 -2.373342e-03 -9.227824e-04 2.309072e-03 -6.115491e-03 2.898148e-03 -1.618439e-03 -2.045860e-03 7.805449e-03 2.077903e-03 1.160460e-02 2.216374e-02 2.090515e-02 1.652696e-02 1.510614e-02 1.366184e-02 1.310597e-02 1.166302e-02 1.207158e-02 1.086564e-02 1.182864e-02 1.070446e-02 1.183355e-02 1.073645e-02 1.182195e-02 1.086401e-02 1.176656e-02 1.105364e-02 1.161224e-02 1.126471e-02 1.138696e-02 1.153880e-02 1.115310e-02 1.185915e-02 1.091390e-02 1.215860e-02 1.067587e-02 1.239248e-02 1.050006e-02 1.256676e-02 1.045820e-02 1.263919e-02 1.053131e-02 1.253011e-02 1.070612e-02 1.224532e-02 1.103768e-02 1.187936e-02 1.156986e-02 1.145844e-02 1.215607e-02 1.089037e-02 1.264542e-02 1.028370e-02 1.310634e-02 9.872151e-03 1.353936e-02 9.723964e-03 1.379876e-02 9.830534e-03 1.377568e-02 1.032724e-02 1.352736e-02 1.178273e-02 1.318840e-02 1.653281e-02 3.597676e-03 -1.318746e-03 -6.580390e-03 -7.516871e-03 
-9.314270e-03 -7.902197e-03 -5.619391e-03 3.223086e-04 6.906529e-03 2.041369e-02 2.599086e-02 2.007070e-02 2.459473e-02 1.990262e-02 2.306343e-02 1.991879e-02 2.174172e-02 2.234917e-02 2.514056e-02 2.565002e-02 2.548008e-02 2.675417e-02 2.455861e-02 2.615606e-02 2.179478e-02 2.260822e-02 2.037618e-02 2.278732e-02 2.065377e-02 2.285733e-02 2.097915e-02 2.275316e-02 2.129234e-02 2.254828e-02 2.159924e-02 2.233606e-02 2.191420e-02 2.215009e-02 2.219156e-02 2.198015e-02 2.240167e-02 2.182907e-02 2.252221e-02 2.168083e-02 2.253167e-02 2.152111e-02 2.242101e-02 2.134668e-02 2.220548e-02 2.116983e-02 2.189770e-02 2.094782e-02 2.139279e-02 2.048300e-02 2.045469e-02 1.947964e-02 1.877084e-02 1.755032e-02 1.583021e-02 1.378302e-02 1.036149e-02 9.842497e-03 1.477931e-02 1.218699e-02 1.445261e-02 1.839447e-02 1.389568e-02 2.020914e-02 1.882042e-02 1.760451e-02 2.368378e-02 1.932263e-02 2.092621e-02 2.336754e-02 2.099800e-02 2.270439e-02 2.310486e-02 2.305122e-02 2.285975e-02 2.259277e-02 2.273191e-02 2.233781e-02 2.271454e-02 2.219611e-02 2.271551e-02 2.211864e-02 2.270663e-02 2.209449e-02 2.268208e-02 2.210952e-02 2.263056e-02 2.215047e-02 2.256145e-02 2.223716e-02 2.248775e-02 2.235732e-02 2.239472e-02 2.249095e-02 2.227809e-02 2.262513e-02 2.214160e-02 2.275835e-02 2.200600e-02 2.289281e-02 2.187493e-02 2.300811e-02 2.174802e-02 2.309546e-02 2.164622e-02 2.317681e-02 2.161357e-02 2.325426e-02 2.162118e-02 2.326097e-02 2.164392e-02 2.320834e-02 2.173929e-02 2.313610e-02 2.194201e-02 2.303854e-02 2.226794e-02 2.288692e-02 2.280832e-02 2.266141e-02 2.394868e-02 2.219478e-02 2.729314e-02 1.302031e-02 4.326388e-03 -3.707897e-03 -6.706016e-03 -9.020543e-03 
-3.593965e-02 -3.665062e-02 -3.800103e-02 -3.953735e-02 -4.470149e-02 -4.291375e-02 -2.897096e-02 -3.951745e-02 -2.847723e-02 -3.512994e-02 -2.673577e-02 -2.956178e-02 -2.231324e-02 -2.521193e-02 -2.498935e-02 -2.532860e-02 -2.571116e-02 -2.537062e-02 -2.567553e-02 -2.537601e-02 -2.482309e-02 -2.462674e-02 -2.877206e-02 -2.929108e-02 -3.196617e-02 -3.153107e-02 -3.341075e-02 -3.248985e-02 -3.403042e-02 -3.287455e-02 -3.432189e-02 -3.312767e-02 -3.455109e-02 -3.339097e-02 -3.471711e-02 -3.360897e-02 -3.476662e-02 -3.375633e-02 -3.468965e-02 -3.379691e-02 -3.444329e-02 -3.368781e-02 -3.402233e-02 -3.347100e-02 -3.352886e-02 -3.326458e-02 -3.304114e-02 -3.302840e-02 -3.234636e-02 -3.237261e-02 -3.091544e-02 -3.070034e-02 -2.811038e-02 -2.737935e-02 -2.307336e-02 -2.092904e-02 -1.313795e-02 -1.416647e-02 -2.065443e-02 -1.441671e-02 -1.803566e-02 -2.470815e-02 -1.501783e-02 -2.785108e-02 -2.359082e-02 -2.232099e-02 -3.507753e-02 -2.649179e-02 -3.376273e-02 -4.176253e-02 -3.842991e-02 -3.845792e-02 -3.849103e-02 -3.747019e-02 -3.690300e-02 -3.595410e-02 -3.598590e-02 -3.535737e-02 -3.569622e-02 -3.523491e-02 -3.562200e-02 -3.523821e-02 -3.555018e-02 -3.530527e-02 -3.546849e-02 -3.541448e-02 -3.531665e-02 -3.552911e-02 -3.511569e-02 -3.569033e-02 -3.492263e-02 -3.589005e-02 -3.473955e-02 -3.606761e-02 -3.456785e-02 -3.618737e-02 -3.446952e-02 -3.626523e-02 -3.450894e-02 -3.625522e-02 -3.465521e-02 -3.607753e-02 -3.488937e-02 -3.574156e-02 -3.526263e-02 -3.533845e-02 -3.580573e-02 -3.489116e-02 -3.637754e-02 -3.432528e-02 -3.683588e-02 -3.375531e-02 -3.724895e-02 -3.342654e-02 -3.762228e-02 -3.343030e-02 -3.781672e-02 -3.381796e-02 -3.773684e-02 -3.489240e-02 -3.743816e-02 -3.770016e-02 -3.665229e-02 -5.005463e-02 -4.046788e-02 -4.026623e-02 -3.638797e-02 -3.694128e-02 
-4.176573e-02 -4.345085e-02 -4.539808e-02 -5.065830e-02 -5.728735e-02 -6.643558e-02 -6.157537e-02 -6.302604e-02 -5.903973e-02 -5.924464e-02 -5.563817e-02 -5.429800e-02 -5.012328e-02 -4.996637e-02 -5.006640e-02 -4.999906e-02 -5.010028e-02 -5.004122e-02 -5.005623e-02 -5.010035e-02 -4.993005e-02 -5.018294e-02 -5.505438e-02 -5.663231e-02 -5.857194e-02 -5.957129e-02 -6.037781e-02 -6.086598e-02 -6.135201e-02 -6.137030e-02 -6.194404e-02 -6.159177e-02 -6.240040e-02 -6.173500e-02 -6.274280e-02 -6.181865e-02 -6.295025e-02 -6.185552e-02 -6.301470e-02 -6.182829e-02 -6.291008e-02 -6.171682e-02 -6.264099e-02 -6.155392e-02 -6.228587e-02 -6.142339e-02 -6.191332e-02 -6.129642e-02 -6.137778e-02 -6.088155e-02 -6.032789e-02 -5.977884e-02 -5.842488e-02 -5.767824e-02 -5.543450e-02 -5.420031e-02 -5.122757e-02 -5.186432e-02 -5.480484e-02 -5.438319e-02 -5.410034e-02 -5.858232e-02 -5.360577e-02 -5.776267e-02 -5.715166e-02 -5.346671e-02 -5.771080e-02 -5.380675e-02 -5.338032e-02 -5.365441e-02 -5.098402e-02 -5.280989e-02 -5.566040e-02 -5.732322e-02 -5.903556e-02 -5.958665e-02 -6.086970e-02 -6.089042e-02 -6.199642e-02 -6.170887e-02 -6.267365e-02 -6.221849e-02 -6.303765e-02 -6.257100e-02 -6.320917e-02 -6.284513e-02 -6.322239e-02 -6.306869e-02 -6.313608e-02 -6.330608e-02 -6.301340e-02 -6.356046e-02 -6.286265e-02 -6.379510e-02 -6.269484e-02 -6.398568e-02 -6.255360e-02 -6.413779e-02 -6.249242e-02 -6.422757e-02 -6.250340e-02 -6.419922e-02 -6.257922e-02 -6.405102e-02 -6.275896e-02 -6.384537e-02 -6.308401e-02 -6.360060e-02 -6.345793e-02 -6.324429e-02 -6.378573e-02 -6.285725e-02 -6.413354e-02 -6.261067e-02 -6.452420e-02 -6.257870e-02 -6.490589e-02 -6.281871e-02 -6.531963e-02 -6.353899e-02 -6.608428e-02 -6.513295e-02 -6.797528e-02 -6.474562e-02 -5.290775e-02 -4.795649e-02 -4.357421e-02 -4.276068e-02 
-5.270214e-02 -5.437270e-02 -5.455914e-02 -5.836872e-02 -5.989489e-02 -6.715699e-02 -6.733831e-02 -6.745581e-02 -6.706729e-02 -6.760310e-02 -6.723545e-02 -6.774156e-02 -6.759494e-02 -6.746215e-02 -6.753734e-02 -6.749034e-02 -6.758458e-02 -6.752721e-02 -6.754202e-02 -6.757351e-02 -6.740977e-02 -6.763401e-02 -6.773567e-02 -6.814073e-02 -6.773610e-02 -6.820627e-02 -6.781277e-02 -6.813127e-02 -6.792628e-02 -6.800341e-02 -6.806621e-02 -6.788617e-02 -6.822214e-02 -6.780031e-02 -6.835931e-02 -6.773639e-02 -6.844551e-02 -6.768111e-02 -6.845485e-02 -6.761709e-02 -6.837205e-02 -6.753486e-02 -6.819786e-02 -6.743655e-02 -6.794917e-02 -6.733049e-02 -6.764261e-02 -6.720434e-02 -6.726570e-02 -6.701813e-02 -6.682789e-02 -6.680835e-02 -6.651514e-02 -6.687665e-02 -6.699062e-02 -6.832032e-02 -7.014800e-02 -7.055593e-02 -6.817794e-02 -7.040509e-02 -6.760272e-02 -6.838106e-02 -6.874398e-02 -6.736534e-02 -6.799356e-02 -6.882897e-02 -6.737977e-02 -6.917751e-02 -6.996621e-02 -6.986769e-02 -7.131473e-02 -7.008802e-02 -6.884156e-02 -6.840542e-02 -6.854426e-02 -6.835438e-02 -6.865111e-02 -6.837009e-02 -6.876365e-02 -6.843285e-02 -6.885933e-02 -6.852694e-02 -6.891482e-02 -6.863999e-02 -6.891881e-02 -6.876508e-02 -6.887079e-02 -6.890016e-02 -6.878386e-02 -6.905199e-02 -6.867611e-02 -6.921274e-02 -6.855814e-02 -6.936704e-02 -6.844456e-02 -6.949927e-02 -6.835273e-02 -6.959625e-02 -6.830257e-02 -6.964661e-02 -6.830413e-02 -6.963555e-02 -6.836128e-02 -6.955993e-02 -6.847929e-02 -6.943406e-02 -6.866040e-02 -6.927068e-02 -6.887321e-02 -6.906870e-02 -6.908373e-02 -6.886271e-02 -6.928322e-02 -6.870227e-02 -6.945220e-02 -6.861779e-02 -6.955409e-02 -6.861282e-02 -6.954908e-02 -6.863065e-02 -6.939012e-02 -6.834629e-02 -6.910358e-02 -6.386030e-02 -5.907580e-02 -5.672179e-02 -5.404800e-02 -5.388354e-02 
-5.203481e-02 -5.334674e-02 -5.377021e-02 -5.647327e-02 -5.768016e-02 -6.125157e-02 -6.212442e-02 -6.447144e-02 -6.562218e-02 -6.775311e-02 -7.045922e-02 -7.275811e-02 -7.803053e-02 -7.794731e-02 -7.800939e-02 -7.795169e-02 -7.799241e-02 -7.796891e-02 -7.797139e-02 -7.799254e-02 -7.795223e-02 -7.799987e-02 -7.150559e-02 -7.069108e-02 -6.738393e-02 -6.723135e-02 -6.554263e-02 -6.547489e-02 -6.470788e-02 -6.452822e-02 -6.436868e-02 -6.400464e-02 -6.427417e-02 -6.371501e-02 -6.428220e-02 -6.355591e-02 -6.431131e-02 -6.347295e-02 -6.431921e-02 -6.343611e-02 -6.428514e-02 -6.342810e-02 -6.420448e-02 -6.344328e-02 -6.408837e-02 -6.348449e-02 -6.395369e-02 -6.354935e-02 -6.381155e-02 -6.363251e-02 -6.369359e-02 -6.377638e-02 -6.371838e-02 -6.414338e-02 -6.417158e-02 -6.514736e-02 -6.552127e-02 -6.588060e-02 -6.450468e-02 -6.794992e-02 -6.735770e-02 -6.666978e-02 -6.973780e-02 -6.779984e-02 -6.811482e-02 -7.066406e-02 -6.736489e-02 -6.930301e-02 -6.814346e-02 -6.542740e-02 -6.755480e-02 -6.814086e-02 -6.714018e-02 -6.548414e-02 -6.527190e-02 -6.441783e-02 -6.467967e-02 -6.404985e-02 -6.451576e-02 -6.398557e-02 -6.451109e-02 -6.405465e-02 -6.453807e-02 -6.418327e-02 -6.454425e-02 -6.433918e-02 -6.450999e-02 -6.450719e-02 -6.443758e-02 -6.468288e-02 -6.434120e-02 -6.485889e-02 -6.423593e-02 -6.502193e-02 -6.413774e-02 -6.515689e-02 -6.406483e-02 -6.525089e-02 -6.403490e-02 -6.529107e-02 -6.405737e-02 -6.526570e-02 -6.413682e-02 -6.517466e-02 -6.427695e-02 -6.503025e-02 -6.447161e-02 -6.484310e-02 -6.469086e-02 -6.461942e-02 -6.489782e-02 -6.438275e-02 -6.506430e-02 -6.416150e-02 -6.514666e-02 -6.395150e-02 -6.506151e-02 -6.368480e-02 -6.465966e-02 -6.317442e-02 -6.365602e-02 -6.200657e-02 -6.153118e-02 -5.912421e-02 -5.658032e-02 -5.495237e-02 -5.302702e-02 -5.280391e-02 
-5.683678e-02 -5.823614e-02 -5.816313e-02 -6.082243e-02 -6.142955e-02 -6.477434e-02 -6.568179e-02 -6.784224e-02 -6.929915e-02 -7.125511e-02 -7.406732e-02 -7.633052e-02 -8.153720e-02 -8.145439e-02 -8.151497e-02 -8.146198e-02 -8.150335e-02 -8.148277e-02 -8.147812e-02 -8.150819e-02 -8.144759e-02 -8.151317e-02 -7.479350e-02 -7.400414e-02 -7.075816e-02 -7.068167e-02 -6.905767e-02 -6.909995e-02 -6.833607e-02 -6.829890e-02 -6.806855e-02 -6.787450e-02 -6.800853e-02 -6.764463e-02 -6.803225e-02 -6.752543e-02 -6.807939e-02 -6.748237e-02 -6.812677e-02 -6.750407e-02 -6.816980e-02 -6.758663e-02 -6.821352e-02 -6.773174e-02 -6.827693e-02 -6.795603e-02 -6.840401e-02 -6.830466e-02 -6.867911e-02 -6.887053e-02 -6.925025e-02 -6.982137e-02 -7.035570e-02 -7.142362e-02 -7.235654e-02 -7.417522e-02 -7.585175e-02 -7.657676e-02 -7.197130e-02 -7.558178e-02 -7.380963e-02 -7.072552e-02 -7.504895e-02 -6.987387e-02 -7.114683e-02 -7.277485e-02 -6.646212e-02 -7.122336e-02 -6.787835e-02 -6.449712e-02 -6.659861e-02 -6.668635e-02 -6.757764e-02 -6.776089e-02 -6.828215e-02 -6.810362e-02 -6.847835e-02 -6.818108e-02 -6.852868e-02 -6.819948e-02 -6.852100e-02 -6.822294e-02 -6.848490e-02 -6.827466e-02 -6.842849e-02 -6.835685e-02 -6.835232e-02 -6.846251e-02 -6.825838e-02 -6.858320e-02 -6.815474e-02 -6.871055e-02 -6.805332e-02 -6.883368e-02 -6.796571e-02 -6.893853e-02 -6.790248e-02 -6.901186e-02 -6.787448e-02 -6.904382e-02 -6.788955e-02 -6.902727e-02 -6.795088e-02 -6.896174e-02 -6.805868e-02 -6.885436e-02 -6.820553e-02 -6.871300e-02 -6.837014e-02 -6.854403e-02 -6.852322e-02 -6.835745e-02 -6.863255e-02 -6.815887e-02 -6.865329e-02 -6.792536e-02 -6.850712e-02 -6.756696e-02 -6.804687e-02 -6.686585e-02 -6.699411e-02 -6.540584e-02 -6.487393e-02 -6.259315e-02 -6.077855e-02 -5.939993e-02 -5.777172e-02 -5.774903e-02 
-5.203163e-02 -5.334541e-02 -5.376731e-02 -5.647144e-02 -5.767711e-02 -6.124923e-02 -6.212107e-02 -6.447050e-02 -6.561966e-02 -6.775376e-02 -7.045804e-02 -7.275883e-02 -7.802968e-02 -7.794664e-02 -7.800923e-02 -7.795166e-02 -7.799296e-02 -7.796940e-02 -7.797236e-02 -7.799290e-02 -7.795296e-02 -7.799855e-02 -7.150651e-02 -7.068589e-02 -6.738550e-02 -6.722673e-02 -6.555405e-02 -6.548473e-02 -6.474290e-02 -6.456669e-02 -6.443296e-02 -6.407279e-02 -6.435590e-02 -6.379906e-02 -6.436200e-02 -6.364501e-02 -6.438635e-02 -6.358532e-02 -6.442689e-02 -6.362828e-02 -6.449307e-02 -6.376647e-02 -6.457593e-02 -6.397441e-02 -6.466686e-02 -6.423840e-02 -6.478658e-02 -6.458602e-02 -6.501163e-02 -6.510485e-02 -6.547498e-02 -6.592318e-02 -6.633054e-02 -6.717307e-02 -6.774483e-02 -6.908106e-02 -7.005840e-02 -7.084375e-02 -6.804193e-02 -6.918825e-02 -6.816282e-02 -6.683355e-02 -6.826902e-02 -6.628917e-02 -6.667621e-02 -6.756240e-02 -6.499999e-02 -6.727572e-02 -6.647270e-02 -6.586797e-02 -6.665378e-02 -6.546851e-02 -6.561798e-02 -6.533115e-02 -6.567797e-02 -6.511370e-02 -6.549144e-02 -6.484790e-02 -6.528205e-02 -6.464150e-02 -6.509206e-02 -6.452446e-02 -6.493271e-02 -6.450011e-02 -6.479544e-02 -6.455171e-02 -6.466350e-02 -6.465192e-02 -6.452186e-02 -6.477650e-02 -6.437488e-02 -6.491650e-02 -6.424222e-02 -6.506098e-02 -6.413582e-02 -6.518496e-02 -6.406060e-02 -6.526650e-02 -6.402947e-02 -6.529537e-02 -6.405369e-02 -6.526050e-02 -6.413380e-02 -6.516106e-02 -6.427584e-02 -6.501566e-02 -6.447815e-02 -6.483638e-02 -6.470866e-02 -6.462393e-02 -6.492232e-02 -6.439117e-02 -6.508350e-02 -6.416463e-02 -6.515475e-02 -6.394844e-02 -6.506048e-02 -6.367837e-02 -6.465272e-02 -6.316671e-02 -6.364596e-02 -6.199993e-02 -6.152173e-02 -5.912119e-02 -5.657433e-02 -5.495088e-02 -5.302289e-02 -5.280276e-02 
-5.269597e-02 -5.437032e-02 -5.455377e-02 -5.836525e-02 -5.988966e-02 -6.715111e-02 -6.733280e-02 -6.745736e-02 -6.706304e-02 -6.760729e-02 -6.723300e-02 -6.774456e-02 -6.759075e-02 -6.745949e-02 -6.753578e-02 -6.748972e-02 -6.758552e-02 -6.752878e-02 -6.754425e-02 -6.757666e-02 -6.741282e-02 -6.763526e-02 -6.774339e-02 -6.814119e-02 -6.774998e-02 -6.821366e-02 -6.785143e-02 -6.817270e-02 -6.801700e-02 -6.810794e-02 -6.822306e-02 -6.806050e-02 -6.842903e-02 -6.802556e-02 -6.858848e-02 -6.799907e-02 -6.869741e-02 -6.802071e-02 -6.880650e-02 -6.814801e-02 -6.895932e-02 -6.839211e-02 -6.914963e-02 -6.871845e-02 -6.935558e-02 -6.909769e-02 -6.958418e-02 -6.954804e-02 -6.990625e-02 -7.015090e-02 -7.043016e-02 -7.098161e-02 -7.119437e-02 -7.199243e-02 -7.206674e-02 -7.296438e-02 -7.275935e-02 -7.352404e-02 -7.253494e-02 -7.305904e-02 -7.236509e-02 -7.211801e-02 -7.198808e-02 -7.155441e-02 -7.106101e-02 -7.128977e-02 -7.005553e-02 -7.058601e-02 -6.968568e-02 -6.948748e-02 -6.932936e-02 -6.909452e-02 -6.930169e-02 -6.906884e-02 -6.939094e-02 -6.902634e-02 -6.941213e-02 -6.894798e-02 -6.935626e-02 -6.885407e-02 -6.925340e-02 -6.879591e-02 -6.914080e-02 -6.880040e-02 -6.902914e-02 -6.886682e-02 -6.891255e-02 -6.897196e-02 -6.877462e-02 -6.909153e-02 -6.862456e-02 -6.922726e-02 -6.849141e-02 -6.937468e-02 -6.838614e-02 -6.950454e-02 -6.830705e-02 -6.959317e-02 -6.826888e-02 -6.963458e-02 -6.828386e-02 -6.961354e-02 -6.834801e-02 -6.952816e-02 -6.847500e-02 -6.940557e-02 -6.867248e-02 -6.925751e-02 -6.890553e-02 -6.907634e-02 -6.912771e-02 -6.887653e-02 -6.931577e-02 -6.870508e-02 -6.946374e-02 -6.860927e-02 -6.955022e-02 -6.859948e-02 -6.953612e-02 -6.861488e-02 -6.937139e-02 -6.833147e-02 -6.908638e-02 -6.385561e-02 -5.906507e-02 -5.671946e-02 -5.404007e-02 -5.388156e-02 
-4.175884e-02 -4.344824e-02 -4.539148e-02 -5.065332e-02 -5.727872e-02 -6.642247e-02 -6.156008e-02 -6.302033e-02 -5.902946e-02 -5.925138e-02 -5.563872e-02 -5.430580e-02 -5.011918e-02 -4.996399e-02 -5.006642e-02 -4.999998e-02 -5.010337e-02 -5.004539e-02 -5.006166e-02 -5.010714e-02 -4.993498e-02 -5.018403e-02 -5.505356e-02 -5.659731e-02 -5.853994e-02 -5.949882e-02 -6.035500e-02 -6.083291e-02 -6.143056e-02 -6.147277e-02 -6.217779e-02 -6.183899e-02 -6.271299e-02 -6.201247e-02 -6.297624e-02 -6.198727e-02 -6.299955e-02 -6.193122e-02 -6.302840e-02 -6.208962e-02 -6.322341e-02 -6.247455e-02 -6.349634e-02 -6.292195e-02 -6.370193e-02 -6.328199e-02 -6.375312e-02 -6.352625e-02 -6.376727e-02 -6.387853e-02 -6.406348e-02 -6.461289e-02 -6.478310e-02 -6.562941e-02 -6.561271e-02 -6.647040e-02 -6.607262e-02 -6.670284e-02 -6.578387e-02 -6.617983e-02 -6.545972e-02 -6.564550e-02 -6.534732e-02 -6.556705e-02 -6.525892e-02 -6.565872e-02 -6.507014e-02 -6.536553e-02 -6.493867e-02 -6.478635e-02 -6.474231e-02 -6.427656e-02 -6.455378e-02 -6.403504e-02 -6.455325e-02 -6.386461e-02 -6.448560e-02 -6.361612e-02 -6.426738e-02 -6.332557e-02 -6.400048e-02 -6.313847e-02 -6.378562e-02 -6.310244e-02 -6.362157e-02 -6.319875e-02 -6.347632e-02 -6.335157e-02 -6.326130e-02 -6.347726e-02 -6.299247e-02 -6.363568e-02 -6.278908e-02 -6.386840e-02 -6.265859e-02 -6.407186e-02 -6.253362e-02 -6.417913e-02 -6.246131e-02 -6.423257e-02 -6.249369e-02 -6.417933e-02 -6.256280e-02 -6.397953e-02 -6.272890e-02 -6.376309e-02 -6.308560e-02 -6.356450e-02 -6.352738e-02 -6.328498e-02 -6.390605e-02 -6.291822e-02 -6.421447e-02 -6.262380e-02 -6.454136e-02 -6.255909e-02 -6.489042e-02 -6.279237e-02 -6.528781e-02 -6.350870e-02 -6.603960e-02 -6.510752e-02 -6.793473e-02 -6.474263e-02 -5.289476e-02 -4.795618e-02 -4.356535e-02 -4.275929e-02 
-3.593126e-02 -3.664907e-02 -3.799348e-02 -3.953445e-02 -4.469156e-02 -4.290482e-02 -2.895109e-02 -3.949486e-02 -2.846624e-02 -3.512652e-02 -2.674225e-02 -2.957024e-02 -2.231708e-02 -2.522507e-02 -2.500001e-02 -2.533786e-02 -2.572223e-02 -2.537734e-02 -2.567872e-02 -2.538429e-02 -2.481977e-02 -2.462534e-02 -2.877911e-02 -2.924030e-02 -3.194165e-02 -3.142718e-02 -3.339784e-02 -3.243147e-02 -3.414746e-02 -3.298867e-02 -3.463886e-02 -3.342773e-02 -3.496548e-02 -3.372666e-02 -3.501597e-02 -3.380075e-02 -3.481766e-02 -3.383220e-02 -3.469172e-02 -3.412062e-02 -3.483469e-02 -3.465560e-02 -3.511035e-02 -3.521209e-02 -3.531470e-02 -3.558989e-02 -3.530959e-02 -3.573538e-02 -3.520852e-02 -3.592338e-02 -3.539777e-02 -3.650629e-02 -3.604440e-02 -3.736050e-02 -3.675318e-02 -3.795867e-02 -3.704053e-02 -3.798943e-02 -3.680834e-02 -3.758643e-02 -3.658719e-02 -3.715437e-02 -3.661117e-02 -3.707055e-02 -3.660678e-02 -3.698820e-02 -3.628251e-02 -3.638077e-02 -3.575076e-02 -3.543785e-02 -3.527640e-02 -3.495035e-02 -3.525913e-02 -3.489116e-02 -3.548455e-02 -3.497392e-02 -3.563935e-02 -3.494867e-02 -3.558870e-02 -3.483115e-02 -3.544910e-02 -3.479542e-02 -3.534733e-02 -3.490689e-02 -3.528393e-02 -3.514327e-02 -3.522025e-02 -3.541308e-02 -3.504939e-02 -3.561094e-02 -3.479458e-02 -3.581552e-02 -3.462209e-02 -3.608828e-02 -3.454770e-02 -3.628886e-02 -3.447994e-02 -3.632464e-02 -3.448224e-02 -3.626187e-02 -3.463431e-02 -3.604525e-02 -3.484182e-02 -3.562445e-02 -3.517387e-02 -3.518785e-02 -3.575199e-02 -3.480233e-02 -3.642421e-02 -3.434748e-02 -3.696682e-02 -3.382084e-02 -3.734683e-02 -3.344571e-02 -3.764952e-02 -3.341864e-02 -3.780390e-02 -3.380128e-02 -3.769873e-02 -3.487454e-02 -3.738274e-02 -3.769170e-02 -3.659840e-02 -5.005402e-02 -4.044911e-02 -4.026687e-02 -3.637624e-02 -3.694053e-02 
-9.310722e-03 -7.902975e-03 -5.616218e-03 3.206725e-04 6.909244e-03 2.040724e-02 2.599252e-02 2.008620e-02 2.459950e-02 1.992488e-02 2.307503e-02 1.993744e-02 2.175409e-02 2.235626e-02 2.516831e-02 2.564995e-02 2.551450e-02 2.675793e-02 2.458431e-02 2.617754e-02 2.180436e-02 2.264135e-02 2.037751e-02 2.281029e-02 2.063603e-02 2.286980e-02 2.096644e-02 2.279098e-02 2.133195e-02 2.265721e-02 2.172497e-02 2.252484e-02 2.210412e-02 2.237203e-02 2.238743e-02 2.217118e-02 2.255461e-02 2.198869e-02 2.269772e-02 2.193852e-02 2.288739e-02 2.203501e-02 2.308539e-02 2.220319e-02 2.322564e-02 2.236808e-02 2.326779e-02 2.250567e-02 2.326566e-02 2.270081e-02 2.335688e-02 2.305156e-02 2.359078e-02 2.348119e-02 2.381224e-02 2.375827e-02 2.381542e-02 2.371796e-02 2.358924e-02 2.338583e-02 2.317864e-02 2.313044e-02 2.287045e-02 2.296490e-02 2.275780e-02 2.277672e-02 2.268861e-02 2.260735e-02 2.257090e-02 2.253058e-02 2.251719e-02 2.228614e-02 2.243186e-02 2.218055e-02 2.247737e-02 2.215132e-02 2.253589e-02 2.211729e-02 2.254324e-02 2.207106e-02 2.252693e-02 2.206211e-02 2.251829e-02 2.209524e-02 2.250939e-02 2.216212e-02 2.248956e-02 2.223313e-02 2.241737e-02 2.227880e-02 2.230547e-02 2.234462e-02 2.220948e-02 2.246100e-02 2.212817e-02 2.259194e-02 2.202752e-02 2.271879e-02 2.192787e-02 2.286441e-02 2.184449e-02 2.299476e-02 2.174248e-02 2.308508e-02 2.165927e-02 2.318303e-02 2.164905e-02 2.328208e-02 2.167950e-02 2.331372e-02 2.171215e-02 2.325256e-02 2.177473e-02 2.314045e-02 2.194104e-02 2.301679e-02 2.225566e-02 2.285907e-02 2.279676e-02 2.262879e-02 2.393504e-02 2.216287e-02 2.728515e-02 1.301542e-02 4.330907e-03 -3.708991e-03 -6.701866e-03 -9.021237e-03 
-8.712265e-03 -7.132824e-03 -4.721153e-03 1.807750e-04 8.287206e-03 1.430718e-02 5.276878e-03 1.157722e-02 4.170278e-03 6.986892e-03 7.635247e-04 -9.021411e-04 -8.499035e-03 -1.386601e-02 -1.727390e-02 -1.959794e-02 -1.962441e-02 -2.074422e-02 -1.862942e-02 -1.729438e-02 -1.418777e-02 -6.646282e-03 -1.644352e-03 2.562592e-03 4.866276e-03 6.466755e-03 7.800215e-03 8.050812e-03 9.260058e-03 8.720187e-03 1.015280e-02 9.094786e-03 1.075058e-02 9.270288e-03 1.099604e-02 9.206330e-03 1.092638e-02 9.105463e-03 1.086678e-02 9.282522e-03 1.101998e-02 9.733721e-03 1.125075e-02 1.022717e-02 1.135439e-02 1.055118e-02 1.119508e-02 1.064180e-02 1.089893e-02 1.077197e-02 1.087643e-02 1.130654e-02 1.133805e-02 1.216573e-02 1.196602e-02 1.291549e-02 1.236982e-02 1.333487e-02 1.233794e-02 1.358415e-02 1.287163e-02 1.346474e-02 1.363582e-02 1.373692e-02 1.378405e-02 1.402852e-02 1.317696e-02 1.315973e-02 1.236449e-02 1.131885e-02 1.154299e-02 1.089685e-02 1.179052e-02 1.096693e-02 1.218180e-02 1.110996e-02 1.237769e-02 1.105897e-02 1.228739e-02 1.088620e-02 1.208388e-02 1.080924e-02 1.191637e-02 1.090095e-02 1.178440e-02 1.113745e-02 1.164640e-02 1.142161e-02 1.138985e-02 1.164482e-02 1.104355e-02 1.189221e-02 1.078182e-02 1.222559e-02 1.062306e-02 1.250040e-02 1.047823e-02 1.262154e-02 1.041666e-02 1.265017e-02 1.051669e-02 1.251678e-02 1.068086e-02 1.216419e-02 1.098494e-02 1.177870e-02 1.155368e-02 1.141788e-02 1.223016e-02 1.095052e-02 1.279008e-02 1.037008e-02 1.320359e-02 9.894541e-03 1.355899e-02 9.704314e-03 1.378168e-02 9.802086e-03 1.374126e-02 1.029499e-02 1.348050e-02 1.175940e-02 1.314743e-02 1.653023e-02 3.592451e-03 -1.317769e-03 -6.581100e-03 -7.516807e-03 
-2.093740e-03 -6.689901e-04 -4.203417e-04 1.439556e-03 2.851583e-03 1.901524e-03 -7.505513e-03 2.043777e-03 -5.144118e-03 1.719497e-03 -2.171276e-03 1.766022e-03 1.204255e-03 1.934356e-04 -2.282374e-03 -3.060238e-03 -2.607488e-03 -4.103503e-03 -1.740527e-03 -3.432669e-03 8.927859e-04 1.941849e-04 9.852401e-04 -8.701128e-04 8.851089e-05 -1.485653e-03 -2.652397e-04 -1.821582e-03 -3.788210e-04 -1.980994e-03 -3.464046e-04 -1.990845e-03 -2.672646e-04 -1.943462e-03 -2.653419e-04 -1.921102e-03 -3.666654e-04 -1.866994e-03 -4.464334e-04 -1.663724e-03 -4.235253e-04 -1.324341e-03 -3.530970e-04 -9.495080e-04 -3.120707e-04 -6.223937e-04 -3.401407e-04 -3.579193e-04 -3.675550e-04 -3.051242e-05 -2.050951e-04 5.295604e-04 2.613677e-04 1.318313e-03 9.167764e-04 2.159099e-03 1.560658e-03 2.834771e-03 1.361621e-03 2.736118e-03 1.651924e-03 1.862770e-03 1.898974e-03 1.445663e-03 1.245416e-03 1.428834e-03 2.744322e-04 6.533557e-04 4.054629e-05 -7.187467e-04 -4.190315e-04 -1.155711e-03 -3.833255e-04 -1.039496e-03 4.885269e-05 -7.513787e-04 3.373599e-04 -6.263147e-04 4.072001e-04 -5.899645e-04 3.724850e-04 -5.101717e-04 3.185193e-04 -3.341688e-04 2.508957e-04 -7.501728e-05 1.458692e-04 2.167917e-04 -3.658038e-05 4.882832e-04 -2.717893e-04 7.592863e-04 -4.698132e-04 1.038640e-03 -6.014302e-04 1.247117e-03 -6.823493e-04 1.324757e-03 -6.682362e-04 1.279272e-03 -5.137237e-04 1.078027e-03 -2.505095e-04 7.037683e-04 1.484392e-04 2.514817e-04 7.166288e-04 -2.287826e-04 1.350630e-03 -7.620482e-04 1.902999e-03 -1.308189e-03 2.309868e-03 -1.719554e-03 2.547051e-03 -1.877183e-03 2.493928e-03 -1.756355e-03 1.948521e-03 -1.321510e-03 5.593009e-04 -4.236776e-04 -3.018859e-03 5.480890e-03 -5.381661e-05 1.249097e-03 -1.903647e-03 -7.830897e-04 
