# vtk DataFile Version 2.0
Comment goes here
ASCII

DATASET STRUCTURED_POINTS
FIELD FieldData 1
TIME 1 1 double
0.51000000
DIMENSIONS    128   16   1

ORIGIN    0.000   0.000   0.000
SPACING   0.0078125 0.015625   1.000

POINT_DATA   2048
SCALARS uX double
LOOKUP_TABLE default

6.203680e-03 1.738439e-03 5.525260e-03 -1.253307e-03 4.292466e-03 -6.117123e-03 7.893784e-03 -1.911902e-03 3.174229e-03 -3.099555e-03 -2.188060e-03 -8.078679e-03 -1.338800e-02 -2.365164e-02 -3.015624e-02 -3.021335e-02 -3.526360e-02 -3.216695e-02 -3.320956e-02 -2.822533e-02 -2.516639e-02 -1.123803e-02 -9.016767e-03 -1.773787e-03 -2.962716e-03 1.716892e-03 -3.887901e-04 2.987740e-03 7.695967e-04 3.311864e-03 1.351357e-03 3.248321e-03 1.703325e-03 3.039703e-03 1.952035e-03 2.791264e-03 2.134067e-03 2.554185e-03 2.258907e-03 2.358722e-03 2.330688e-03 2.219468e-03 2.352445e-03 2.138762e-03 2.333269e-03 2.116877e-03 2.293834e-03 2.154094e-03 2.258834e-03 2.247989e-03 2.261251e-03 2.421310e-03 2.387738e-03 2.806156e-03 2.903559e-03 3.789895e-03 3.889448e-03 4.145201e-03 3.688055e-03 4.524574e-03 4.005330e-03 4.422026e-03 4.980270e-03 4.212969e-03 4.941569e-03 4.857825e-03 4.029418e-03 4.880449e-03 3.701911e-03 3.299893e-03 3.892821e-03 4.176080e-03 3.569057e-03 3.175018e-03 2.469770e-03 2.446907e-03 1.963964e-03 2.226034e-03 1.695945e-03 2.195516e-03 1.506946e-03 2.234987e-03 1.350252e-03 2.285593e-03 1.228609e-03 2.318751e-03 1.166005e-03 2.313448e-03 1.180373e-03 2.244588e-03 1.274794e-03 2.091640e-03 1.444913e-03 1.853568e-03 1.683164e-03 1.551435e-03 1.973055e-03 1.221159e-03 2.282148e-03 9.047733e-04 2.561194e-03 6.467028e-04 2.753777e-03 4.961517e-04 2.809788e-03 5.038690e-04 2.690124e-03 7.088143e-04 2.368819e-03 1.129707e-03 1.844485e-03 1.764363e-03 1.153754e-03 2.585797e-03 3.844318e-04 3.536540e-03 -2.957167e-04 4.519315e-03 -5.764371e-04 5.355323e-03 1.299787e-04 5.617661e-03 3.143380e-03 6.255283e-04 4.630415e-03 2.105058e-03 5.923217e-03 2.759729e-03 
3.219591e-03 -3.937843e-04 2.351621e-03 -3.201467e-03 2.289100e-04 -9.924054e-03 6.391448e-03 -1.969606e-03 1.443331e-03 -5.566922e-04 -2.355597e-03 -1.050173e-04 -7.680846e-03 -3.343912e-04 -4.618496e-03 9.984850e-04 -3.782829e-03 1.150794e-03 -3.696518e-03 -2.147790e-04 -4.347342e-03 -4.213375e-03 -2.719036e-03 -1.326532e-03 -1.549688e-03 4.161397e-05 -8.906510e-04 6.983425e-04 -4.495672e-04 9.430791e-04 -1.165629e-04 9.605784e-04 1.654365e-04 8.664010e-04 4.085622e-04 7.246410e-04 6.028102e-04 5.742473e-04 7.347990e-04 4.373607e-04 7.966534e-04 3.284923e-04 7.945294e-04 2.613604e-04 7.559659e-04 2.618770e-04 7.270942e-04 3.443571e-04 7.275076e-04 4.862593e-04 7.654840e-04 6.968416e-04 9.357751e-04 1.159863e-03 1.566092e-03 2.265614e-03 2.239040e-03 2.006577e-03 1.644005e-03 1.099764e-03 5.049817e-04 3.404995e-04 6.477459e-04 -3.091448e-04 4.916837e-04 4.129829e-04 8.276113e-04 1.681722e-03 3.017203e-03 4.916170e-03 5.735023e-03 4.461430e-03 2.773870e-03 1.532244e-03 8.510640e-04 4.156104e-04 1.648252e-04 1.330553e-04 -6.595275e-05 1.799886e-04 -1.573599e-04 3.085548e-04 -2.456303e-04 4.157407e-04 -3.368277e-04 4.862070e-04 -3.798901e-04 5.250313e-04 -3.368455e-04 5.056529e-04 -2.205536e-04 3.805331e-04 -5.116272e-05 1.433347e-04 1.742355e-04 -1.698409e-04 4.595542e-04 -5.044979e-04 7.848740e-04 -8.156882e-04 1.094039e-03 -1.067497e-03 1.319781e-03 -1.218640e-03 1.401748e-03 -1.221045e-03 1.299610e-03 -1.028608e-03 9.892054e-04 -6.137443e-04 4.755497e-04 4.195633e-05 -1.978261e-04 9.244885e-04 -9.645161e-04 1.979615e-03 -1.705664e-03 3.115648e-03 -2.210248e-03 4.138601e-03 -2.055419e-03 4.427001e-03 6.498890e-05 -3.620415e-03 3.328630e-03 -2.527147e-04 3.451650e-03 4.188444e-04 
8.333727e-03 5.850787e-03 6.483550e-03 2.305232e-03 2.568567e-04 -1.043298e-02 -1.358580e-04 -7.106855e-03 4.572216e-04 -3.868681e-03 2.701630e-03 9.441054e-04 9.721891e-03 1.114023e-02 1.565432e-02 1.511336e-02 1.705036e-02 1.674871e-02 1.531084e-02 1.569729e-02 1.091490e-02 8.850985e-03 1.044707e-03 2.025501e-03 -2.980898e-03 -7.942406e-04 -4.693956e-03 -2.158365e-03 -5.407110e-03 -2.918704e-03 -5.651657e-03 -3.420409e-03 -5.656669e-03 -3.791757e-03 -5.547673e-03 -4.093969e-03 -5.407945e-03 -4.355050e-03 -5.295229e-03 -4.596913e-03 -5.247953e-03 -4.828249e-03 -5.273327e-03 -5.040297e-03 -5.339022e-03 -5.192020e-03 -5.392639e-03 -5.293581e-03 -5.496859e-03 -5.506235e-03 -5.839136e-03 -6.054785e-03 -6.608392e-03 -7.135828e-03 -8.031460e-03 -9.068315e-03 -9.832055e-03 -9.360215e-03 -9.118497e-03 -9.476760e-03 -8.709322e-03 -9.462933e-03 -1.027528e-02 -9.647794e-03 -1.075019e-02 -1.137916e-02 -1.022959e-02 -1.219375e-02 -1.145963e-02 -1.162545e-02 -1.304959e-02 -1.218611e-02 -1.079654e-02 -9.471192e-03 -8.568417e-03 -7.674698e-03 -7.464007e-03 -6.603926e-03 -6.818063e-03 -5.846914e-03 -6.474368e-03 -5.359734e-03 -6.385400e-03 -5.093700e-03 -6.429569e-03 -4.948399e-03 -6.455852e-03 -4.838918e-03 -6.375420e-03 -4.786139e-03 -6.228426e-03 -4.883260e-03 -6.063248e-03 -5.144350e-03 -5.857315e-03 -5.506519e-03 -5.568912e-03 -5.885591e-03 -5.194747e-03 -6.236920e-03 -4.803219e-03 -6.545150e-03 -4.480172e-03 -6.784695e-03 -4.300969e-03 -6.912761e-03 -4.308770e-03 -6.877719e-03 -4.535569e-03 -6.650378e-03 -4.984099e-03 -6.193983e-03 -5.626502e-03 -5.525509e-03 -6.476066e-03 -4.731027e-03 -7.559979e-03 -3.934945e-03 -8.922517e-03 -3.329518e-03 -1.050531e-02 -3.313529e-03 -1.150512e-02 -6.350089e-03 6.630175e-03 4.469493e-03 8.464743e-03 6.410681e-03 
6.070305e-03 7.468692e-03 4.806597e-03 6.824375e-03 -3.676645e-04 1.345453e-03 -1.726916e-02 -1.298349e-02 -1.199109e-02 -1.445349e-02 -9.617581e-03 -1.477483e-02 -6.716967e-03 -1.505901e-02 -9.967982e-03 -1.623145e-02 -1.110386e-02 -1.614054e-02 -1.144796e-02 -1.452556e-02 -1.092599e-02 -1.039648e-02 -1.165873e-02 -1.145364e-02 -1.251334e-02 -1.191064e-02 -1.311271e-02 -1.210552e-02 -1.351437e-02 -1.217096e-02 -1.376095e-02 -1.218971e-02 -1.388848e-02 -1.220368e-02 -1.392922e-02 -1.223763e-02 -1.391124e-02 -1.230360e-02 -1.385736e-02 -1.240837e-02 -1.378736e-02 -1.255186e-02 -1.371481e-02 -1.272740e-02 -1.364348e-02 -1.291910e-02 -1.357552e-02 -1.313589e-02 -1.356390e-02 -1.345338e-02 -1.372705e-02 -1.399639e-02 -1.421660e-02 -1.494613e-02 -1.523753e-02 -1.648695e-02 -1.596148e-02 -1.638302e-02 -1.538736e-02 -1.575687e-02 -1.480871e-02 -1.527872e-02 -1.528428e-02 -1.541443e-02 -1.550320e-02 -1.680410e-02 -1.642342e-02 -1.829801e-02 -1.855624e-02 -2.118456e-02 -2.097910e-02 -2.109449e-02 -1.898495e-02 -1.767668e-02 -1.655905e-02 -1.572374e-02 -1.532439e-02 -1.459479e-02 -1.463589e-02 -1.390047e-02 -1.426255e-02 -1.348332e-02 -1.408504e-02 -1.324493e-02 -1.401067e-02 -1.310480e-02 -1.396551e-02 -1.300560e-02 -1.390887e-02 -1.293830e-02 -1.385059e-02 -1.292544e-02 -1.380368e-02 -1.296866e-02 -1.375428e-02 -1.304920e-02 -1.367780e-02 -1.314716e-02 -1.355956e-02 -1.326026e-02 -1.340761e-02 -1.339743e-02 -1.323568e-02 -1.356255e-02 -1.305541e-02 -1.375206e-02 -1.287271e-02 -1.395718e-02 -1.269814e-02 -1.417106e-02 -1.254166e-02 -1.437650e-02 -1.241649e-02 -1.456771e-02 -1.236866e-02 -1.475181e-02 -1.247593e-02 -1.492224e-02 -1.288055e-02 -1.499315e-02 -1.386697e-02 -1.447715e-02 -1.673161e-02 -1.925510e-03 7.750679e-04 4.783292e-03 4.961186e-03 6.893809e-03 
1.741456e-02 2.123046e-02 1.890194e-02 2.510538e-02 2.339501e-02 3.720818e-02 1.386559e-02 2.424541e-02 1.533001e-02 2.000105e-02 1.378679e-02 1.636437e-02 7.466829e-03 1.135407e-02 9.783998e-03 1.084131e-02 1.064094e-02 1.044217e-02 1.108629e-02 9.776930e-03 1.132883e-02 8.225859e-03 1.596959e-02 1.393010e-02 1.830474e-02 1.662975e-02 1.934543e-02 1.810875e-02 1.977386e-02 1.898728e-02 1.989314e-02 1.955399e-02 1.985295e-02 1.993475e-02 1.974859e-02 2.020107e-02 1.964900e-02 2.039336e-02 1.960369e-02 2.054580e-02 1.964458e-02 2.067842e-02 1.977346e-02 2.079437e-02 1.995762e-02 2.086963e-02 2.015438e-02 2.094005e-02 2.044882e-02 2.120797e-02 2.107340e-02 2.197482e-02 2.231678e-02 2.358905e-02 2.460807e-02 2.640513e-02 2.681047e-02 2.566781e-02 2.628733e-02 2.474579e-02 2.416495e-02 2.573551e-02 2.414999e-02 2.622563e-02 2.590179e-02 2.700118e-02 2.876219e-02 2.894324e-02 3.177274e-02 3.409338e-02 3.538580e-02 3.441529e-02 3.100060e-02 2.855869e-02 2.623287e-02 2.517804e-02 2.377747e-02 2.325900e-02 2.235018e-02 2.205470e-02 2.154424e-02 2.132537e-02 2.116579e-02 2.091556e-02 2.102233e-02 2.067429e-02 2.093055e-02 2.049281e-02 2.078527e-02 2.037654e-02 2.061355e-02 2.040767e-02 2.045438e-02 2.059482e-02 2.028015e-02 2.087356e-02 2.004647e-02 2.115954e-02 1.974729e-02 2.140815e-02 1.944684e-02 2.160543e-02 1.922693e-02 2.173016e-02 1.916008e-02 2.174550e-02 1.928699e-02 2.160534e-02 1.963682e-02 2.128637e-02 2.021251e-02 2.076175e-02 2.099190e-02 2.006362e-02 2.199990e-02 1.930448e-02 2.328011e-02 1.865762e-02 2.487021e-02 1.840923e-02 2.656413e-02 1.921517e-02 2.660836e-02 3.006339e-02 1.597543e-02 2.126802e-02 1.643643e-02 2.022207e-02 
1.833004e-02 1.975620e-02 1.967979e-02 2.187437e-02 2.496946e-02 3.165412e-02 3.264377e-02 3.499876e-02 3.011838e-02 3.316062e-02 2.851377e-02 3.052619e-02 2.448845e-02 2.505324e-02 2.457257e-02 2.492298e-02 2.477096e-02 2.475471e-02 2.494639e-02 2.459754e-02 2.504188e-02 2.456128e-02 2.896244e-02 2.784143e-02 3.084506e-02 2.954317e-02 3.199117e-02 3.052429e-02 3.260692e-02 3.109210e-02 3.288700e-02 3.144758e-02 3.296358e-02 3.169167e-02 3.293127e-02 3.188347e-02 3.285998e-02 3.205531e-02 3.280026e-02 3.223173e-02 3.278787e-02 3.242593e-02 3.283718e-02 3.263975e-02 3.293899e-02 3.285967e-02 3.308273e-02 3.312632e-02 3.336333e-02 3.361477e-02 3.399644e-02 3.457463e-02 3.522211e-02 3.624126e-02 3.721693e-02 3.859927e-02 3.894413e-02 3.965246e-02 4.056575e-02 3.997264e-02 4.110089e-02 4.210541e-02 4.042580e-02 4.338717e-02 4.152540e-02 4.206117e-02 4.314195e-02 4.121005e-02 4.145067e-02 4.130045e-02 3.989568e-02 4.197558e-02 4.127918e-02 3.971603e-02 3.837939e-02 3.712666e-02 3.636383e-02 3.537348e-02 3.508366e-02 3.419481e-02 3.432516e-02 3.344327e-02 3.394101e-02 3.299480e-02 3.377187e-02 3.272160e-02 3.366613e-02 3.252783e-02 3.353324e-02 3.240817e-02 3.338616e-02 3.241812e-02 3.324921e-02 3.256156e-02 3.309712e-02 3.278932e-02 3.289049e-02 3.303939e-02 3.261866e-02 3.328094e-02 3.232488e-02 3.350637e-02 3.206766e-02 3.370129e-02 3.189974e-02 3.383833e-02 3.185243e-02 3.388233e-02 3.195097e-02 3.381230e-02 3.220283e-02 3.360230e-02 3.260020e-02 3.326945e-02 3.317299e-02 3.288688e-02 3.396797e-02 3.255881e-02 3.505393e-02 3.242396e-02 3.650204e-02 3.267984e-02 3.860468e-02 2.987637e-02 2.109176e-02 2.153027e-02 1.865354e-02 1.968100e-02 
2.452476e-02 2.596134e-02 2.499324e-02 2.668342e-02 2.655066e-02 2.884485e-02 3.329309e-02 3.500234e-02 3.257468e-02 3.562820e-02 3.310425e-02 3.571873e-02 3.469701e-02 3.531319e-02 3.477988e-02 3.516639e-02 3.501207e-02 3.496868e-02 3.521809e-02 3.477751e-02 3.532801e-02 3.472823e-02 3.478724e-02 3.353990e-02 3.446268e-02 3.315914e-02 3.443708e-02 3.309024e-02 3.446969e-02 3.314634e-02 3.448804e-02 3.325697e-02 3.447409e-02 3.339237e-02 3.443412e-02 3.354124e-02 3.438437e-02 3.370016e-02 3.434281e-02 3.386982e-02 3.432524e-02 3.405182e-02 3.434220e-02 3.424761e-02 3.439900e-02 3.446033e-02 3.450293e-02 3.470628e-02 3.467633e-02 3.501205e-02 3.493262e-02 3.535530e-02 3.518317e-02 3.552526e-02 3.503181e-02 3.498056e-02 3.439918e-02 3.519012e-02 3.375427e-02 3.513812e-02 3.406402e-02 3.386768e-02 3.498617e-02 3.369042e-02 3.415587e-02 3.540334e-02 3.279685e-02 3.591210e-02 3.427682e-02 3.477294e-02 3.504129e-02 3.434032e-02 3.478352e-02 3.601981e-02 3.612314e-02 3.635627e-02 3.612417e-02 3.598479e-02 3.580615e-02 3.549265e-02 3.548093e-02 3.505844e-02 3.523716e-02 3.473054e-02 3.507188e-02 3.450167e-02 3.494839e-02 3.435177e-02 3.483365e-02 3.427519e-02 3.471688e-02 3.427757e-02 3.459489e-02 3.435372e-02 3.445869e-02 3.448331e-02 3.429901e-02 3.464020e-02 3.411766e-02 3.480336e-02 3.393312e-02 3.495708e-02 3.377220e-02 3.508487e-02 3.366084e-02 3.516763e-02 3.361785e-02 3.518592e-02 3.365386e-02 3.512438e-02 3.376698e-02 3.497206e-02 3.394133e-02 3.473154e-02 3.414883e-02 3.441930e-02 3.433442e-02 3.405767e-02 3.440689e-02 3.367419e-02 3.428325e-02 3.328956e-02 3.435087e-02 2.888315e-02 2.732501e-02 2.680153e-02 2.520394e-02 2.593104e-02 
2.404642e-02 2.472241e-02 2.482882e-02 2.605737e-02 2.683668e-02 2.847969e-02 2.990203e-02 3.150908e-02 3.209844e-02 3.340269e-02 3.512953e-02 3.590488e-02 4.158026e-02 4.189035e-02 4.168352e-02 4.186086e-02 4.178083e-02 4.179015e-02 4.185615e-02 4.170379e-02 4.188307e-02 4.161440e-02 3.706464e-02 3.651104e-02 3.486471e-02 3.390329e-02 3.365761e-02 3.246385e-02 3.300460e-02 3.172006e-02 3.264605e-02 3.136984e-02 3.242864e-02 3.123849e-02 3.227702e-02 3.122897e-02 3.216063e-02 3.128740e-02 3.207066e-02 3.138332e-02 3.200655e-02 3.149821e-02 3.196799e-02 3.161894e-02 3.195073e-02 3.173384e-02 3.194598e-02 3.183231e-02 3.193977e-02 3.189262e-02 3.188698e-02 3.183446e-02 3.164751e-02 3.143554e-02 3.089799e-02 3.034402e-02 2.968599e-02 2.936119e-02 2.829316e-02 2.995568e-02 2.874883e-02 2.871352e-02 3.033277e-02 2.837124e-02 2.965522e-02 3.058814e-02 2.843428e-02 3.085144e-02 2.930290e-02 2.999368e-02 3.106055e-02 2.969527e-02 2.962029e-02 3.059079e-02 3.132018e-02 3.170475e-02 3.213116e-02 3.205130e-02 3.242648e-02 3.206644e-02 3.251530e-02 3.196690e-02 3.253607e-02 3.185293e-02 3.253493e-02 3.176223e-02 3.251429e-02 3.170762e-02 3.246663e-02 3.169969e-02 3.239122e-02 3.174875e-02 3.228992e-02 3.185397e-02 3.216149e-02 3.200146e-02 3.200590e-02 3.217055e-02 3.183150e-02 3.234103e-02 3.165787e-02 3.249421e-02 3.151012e-02 3.261018e-02 3.141189e-02 3.266718e-02 3.138002e-02 3.264382e-02 3.142186e-02 3.252189e-02 3.153034e-02 3.228589e-02 3.167935e-02 3.192519e-02 3.182024e-02 3.143130e-02 3.186956e-02 3.079009e-02 3.169379e-02 2.997373e-02 3.108231e-02 2.891612e-02 2.972778e-02 2.721737e-02 2.647038e-02 2.548917e-02 2.459965e-02 2.455830e-02 
2.696164e-02 2.783665e-02 2.742826e-02 2.872897e-02 2.901299e-02 3.054320e-02 3.177028e-02 3.329736e-02 3.381143e-02 3.524350e-02 3.671192e-02 3.768658e-02 4.332544e-02 4.369788e-02 4.342729e-02 4.363925e-02 4.355557e-02 4.353057e-02 4.366940e-02 4.341628e-02 4.372233e-02 4.332917e-02 3.910113e-02 3.850234e-02 3.706767e-02 3.602554e-02 3.588364e-02 3.466981e-02 3.523330e-02 3.400372e-02 3.488542e-02 3.372443e-02 3.468705e-02 3.365240e-02 3.455612e-02 3.368710e-02 3.445428e-02 3.377226e-02 3.436540e-02 3.387472e-02 3.428276e-02 3.397321e-02 3.420173e-02 3.405123e-02 3.411360e-02 3.409003e-02 3.399919e-02 3.406114e-02 3.382162e-02 3.391620e-02 3.351519e-02 3.357344e-02 3.297434e-02 3.291083e-02 3.206738e-02 3.194295e-02 3.150747e-02 3.244541e-02 3.199589e-02 3.297205e-02 3.287665e-02 3.324207e-02 3.260378e-02 3.345449e-02 3.250230e-02 3.252498e-02 3.199965e-02 3.148857e-02 2.991890e-02 2.916622e-02 2.752449e-02 2.903948e-02 2.993141e-02 3.110727e-02 3.171898e-02 3.252047e-02 3.292989e-02 3.336498e-02 3.366986e-02 3.381111e-02 3.410605e-02 3.402794e-02 3.436440e-02 3.412777e-02 3.451565e-02 3.417668e-02 3.459471e-02 3.421334e-02 3.461858e-02 3.426143e-02 3.459696e-02 3.433440e-02 3.453649e-02 3.443639e-02 3.444299e-02 3.456336e-02 3.432394e-02 3.470555e-02 3.419064e-02 3.484970e-02 3.405835e-02 3.498023e-02 3.394404e-02 3.507968e-02 3.386300e-02 3.512998e-02 3.382610e-02 3.511474e-02 3.383679e-02 3.502021e-02 3.388614e-02 3.483404e-02 3.394706e-02 3.454266e-02 3.396870e-02 3.412694e-02 3.387292e-02 3.355596e-02 3.355629e-02 3.277322e-02 3.288897e-02 3.164207e-02 3.166197e-02 2.982810e-02 2.922107e-02 2.846838e-02 2.757855e-02 2.776881e-02 
2.404533e-02 2.472307e-02 2.482833e-02 2.605740e-02 2.683654e-02 2.847928e-02 2.990157e-02 3.150904e-02 3.209813e-02 3.340319e-02 3.512933e-02 3.590511e-02 4.157959e-02 4.188981e-02 4.168308e-02 4.186045e-02 4.178068e-02 4.178962e-02 4.185632e-02 4.170257e-02 4.188291e-02 4.161183e-02 3.706652e-02 3.650077e-02 3.486867e-02 3.388695e-02 3.366427e-02 3.244276e-02 3.301129e-02 3.169315e-02 3.264606e-02 3.133526e-02 3.241501e-02 3.119621e-02 3.224407e-02 3.117887e-02 3.210128e-02 3.122327e-02 3.197026e-02 3.128641e-02 3.184082e-02 3.133907e-02 3.170787e-02 3.136201e-02 3.156390e-02 3.133514e-02 3.138812e-02 3.122743e-02 3.114169e-02 3.099635e-02 3.077335e-02 3.059410e-02 3.022876e-02 2.997892e-02 2.947664e-02 2.923857e-02 2.904766e-02 2.953578e-02 2.916216e-02 2.904123e-02 2.882773e-02 2.879763e-02 2.817426e-02 2.870891e-02 2.806228e-02 2.799640e-02 2.803662e-02 2.815105e-02 2.822043e-02 2.838726e-02 2.749570e-02 2.795393e-02 2.847118e-02 2.903035e-02 2.947391e-02 2.983599e-02 3.032894e-02 3.045439e-02 3.099069e-02 3.086625e-02 3.147153e-02 3.112236e-02 3.181210e-02 3.127863e-02 3.204416e-02 3.137997e-02 3.218783e-02 3.146163e-02 3.225713e-02 3.154965e-02 3.226092e-02 3.165889e-02 3.220600e-02 3.179523e-02 3.210147e-02 3.195701e-02 3.196078e-02 3.213612e-02 3.180195e-02 3.231809e-02 3.164588e-02 3.248323e-02 3.151402e-02 3.260723e-02 3.142422e-02 3.266428e-02 3.139132e-02 3.263449e-02 3.142620e-02 3.250526e-02 3.152889e-02 3.226862e-02 3.167903e-02 3.191550e-02 3.182563e-02 3.143216e-02 3.187921e-02 3.079771e-02 3.170063e-02 2.998090e-02 3.108124e-02 2.892068e-02 2.972203e-02 2.722112e-02 2.646687e-02 2.549163e-02 2.459760e-02 2.455975e-02 
2.452328e-02 2.596229e-02 2.499299e-02 2.668306e-02 2.655150e-02 2.884330e-02 3.329294e-02 3.500264e-02 3.257522e-02 3.562926e-02 3.310475e-02 3.571866e-02 3.469440e-02 3.531239e-02 3.477828e-02 3.516674e-02 3.501129e-02 3.496933e-02 3.521882e-02 3.477588e-02 3.533046e-02 3.472340e-02 3.479027e-02 3.351832e-02 3.446772e-02 3.312567e-02 3.444686e-02 3.304785e-02 3.448005e-02 3.309305e-02 3.448669e-02 3.318914e-02 3.444787e-02 3.331004e-02 3.437221e-02 3.344480e-02 3.427401e-02 3.357963e-02 3.415825e-02 3.369258e-02 3.402361e-02 3.376627e-02 3.387302e-02 3.379228e-02 3.370783e-02 3.376026e-02 3.351489e-02 3.364759e-02 3.326452e-02 3.342826e-02 3.293019e-02 3.309380e-02 3.250741e-02 3.266755e-02 3.202955e-02 3.222736e-02 3.163929e-02 3.208423e-02 3.166825e-02 3.214812e-02 3.172178e-02 3.218748e-02 3.156752e-02 3.205750e-02 3.133430e-02 3.160863e-02 3.096254e-02 3.110475e-02 3.034951e-02 3.065784e-02 2.998116e-02 3.066329e-02 3.049216e-02 3.118875e-02 3.121574e-02 3.183186e-02 3.199481e-02 3.243432e-02 3.269356e-02 3.291425e-02 3.326476e-02 3.326420e-02 3.370489e-02 3.350830e-02 3.402579e-02 3.367936e-02 3.424209e-02 3.381167e-02 3.436973e-02 3.393421e-02 3.441933e-02 3.406374e-02 3.439853e-02 3.420938e-02 3.431840e-02 3.437437e-02 3.419503e-02 3.455644e-02 3.404874e-02 3.474551e-02 3.390085e-02 3.492453e-02 3.377213e-02 3.506977e-02 3.367845e-02 3.515520e-02 3.363539e-02 3.516410e-02 3.365987e-02 3.509096e-02 3.376312e-02 3.493895e-02 3.394006e-02 3.471313e-02 3.415791e-02 3.442026e-02 3.435120e-02 3.407102e-02 3.441848e-02 3.368644e-02 3.428029e-02 3.329724e-02 3.433991e-02 2.889031e-02 2.731927e-02 2.680598e-02 2.520069e-02 2.593360e-02 
1.832817e-02 1.975736e-02 1.967914e-02 2.187331e-02 2.497069e-02 3.164905e-02 3.264164e-02 3.499788e-02 3.011788e-02 3.316517e-02 2.851519e-02 3.052919e-02 2.448573e-02 2.505191e-02 2.457118e-02 2.492276e-02 2.477059e-02 2.475542e-02 2.494941e-02 2.459628e-02 2.504501e-02 2.454718e-02 2.896470e-02 2.780401e-02 3.085852e-02 2.949109e-02 3.202785e-02 3.047045e-02 3.266231e-02 3.102778e-02 3.292639e-02 3.135816e-02 3.296196e-02 3.158706e-02 3.288561e-02 3.179058e-02 3.277843e-02 3.198627e-02 3.265414e-02 3.213072e-02 3.249550e-02 3.219862e-02 3.232141e-02 3.220911e-02 3.216614e-02 3.217996e-02 3.202360e-02 3.207803e-02 3.183284e-02 3.185864e-02 3.156248e-02 3.154171e-02 3.124047e-02 3.118675e-02 3.091137e-02 3.085727e-02 3.062587e-02 3.062235e-02 3.039247e-02 3.036923e-02 3.013076e-02 3.014678e-02 2.984673e-02 2.994288e-02 2.961179e-02 2.972576e-02 2.943634e-02 2.964668e-02 2.937512e-02 2.969912e-02 2.943175e-02 2.985769e-02 2.979323e-02 3.022014e-02 3.031670e-02 3.065733e-02 3.092559e-02 3.108899e-02 3.152840e-02 3.144213e-02 3.205278e-02 3.168791e-02 3.247470e-02 3.184970e-02 3.279382e-02 3.195487e-02 3.300775e-02 3.204402e-02 3.313474e-02 3.215721e-02 3.317348e-02 3.229953e-02 3.311438e-02 3.247499e-02 3.296772e-02 3.268794e-02 3.275945e-02 3.294081e-02 3.252466e-02 3.321814e-02 3.229568e-02 3.349528e-02 3.210835e-02 3.372912e-02 3.197343e-02 3.385900e-02 3.190898e-02 3.385998e-02 3.195858e-02 3.373703e-02 3.217067e-02 3.351811e-02 3.258110e-02 3.322859e-02 3.319562e-02 3.290470e-02 3.402584e-02 3.261042e-02 3.509487e-02 3.245334e-02 3.648518e-02 3.268511e-02 3.855893e-02 2.988993e-02 2.108527e-02 2.153730e-02 1.864972e-02 1.968458e-02 
1.741370e-02 2.123107e-02 1.890204e-02 2.510242e-02 2.339694e-02 3.719950e-02 1.386603e-02 2.423660e-02 1.533217e-02 2.000175e-02 1.379217e-02 1.636947e-02 7.470970e-03 1.135889e-02 9.786109e-03 1.084747e-02 1.063986e-02 1.045093e-02 1.108644e-02 9.772424e-03 1.133553e-02 8.168234e-03 1.598023e-02 1.385648e-02 1.833582e-02 1.654806e-02 1.940804e-02 1.803692e-02 1.986010e-02 1.891480e-02 1.995777e-02 1.946242e-02 1.986871e-02 1.983811e-02 1.972127e-02 2.013687e-02 1.960312e-02 2.038387e-02 1.951902e-02 2.053053e-02 1.943747e-02 2.055813e-02 1.937799e-02 2.051094e-02 1.938371e-02 2.043482e-02 1.944784e-02 2.030950e-02 1.949387e-02 2.009781e-02 1.948434e-02 1.983912e-02 1.944932e-02 1.959984e-02 1.941071e-02 1.940613e-02 1.935507e-02 1.926654e-02 1.929365e-02 1.916090e-02 1.917100e-02 1.909004e-02 1.896452e-02 1.895043e-02 1.869850e-02 1.869413e-02 1.839068e-02 1.845551e-02 1.810085e-02 1.837864e-02 1.798277e-02 1.843107e-02 1.809706e-02 1.865717e-02 1.839798e-02 1.896501e-02 1.881032e-02 1.928365e-02 1.925868e-02 1.954392e-02 1.966554e-02 1.971381e-02 2.000051e-02 1.982153e-02 2.025604e-02 1.989476e-02 2.041766e-02 1.997691e-02 2.049904e-02 2.011002e-02 2.048953e-02 2.028929e-02 2.037177e-02 2.051055e-02 2.016059e-02 2.077173e-02 1.989462e-02 2.106790e-02 1.962440e-02 2.136989e-02 1.939631e-02 2.163915e-02 1.926177e-02 2.181538e-02 1.923593e-02 2.181649e-02 1.934059e-02 2.161202e-02 1.962891e-02 2.121436e-02 2.015618e-02 2.066908e-02 2.095782e-02 2.002162e-02 2.202701e-02 1.933672e-02 2.335968e-02 1.873241e-02 2.493100e-02 1.845192e-02 2.654922e-02 1.922290e-02 2.655295e-02 3.008146e-02 1.597187e-02 2.127725e-02 1.643421e-02 2.022623e-02 
6.070546e-03 7.470256e-03 4.805031e-03 6.825669e-03 -3.716488e-04 1.348329e-03 -1.727135e-02 -1.298514e-02 -1.199723e-02 -1.445339e-02 -9.629006e-03 -1.476515e-02 -6.731568e-03 -1.503623e-02 -9.986400e-03 -1.620767e-02 -1.111250e-02 -1.613284e-02 -1.143555e-02 -1.453723e-02 -1.090088e-02 -1.039708e-02 -1.162750e-02 -1.145366e-02 -1.248509e-02 -1.190866e-02 -1.309637e-02 -1.210323e-02 -1.351190e-02 -1.216128e-02 -1.375940e-02 -1.216423e-02 -1.387752e-02 -1.216785e-02 -1.390777e-02 -1.220776e-02 -1.388411e-02 -1.229213e-02 -1.381385e-02 -1.239765e-02 -1.369305e-02 -1.250728e-02 -1.353896e-02 -1.262367e-02 -1.337951e-02 -1.274857e-02 -1.322672e-02 -1.286122e-02 -1.306890e-02 -1.293812e-02 -1.290933e-02 -1.298831e-02 -1.277528e-02 -1.303526e-02 -1.268794e-02 -1.308964e-02 -1.264353e-02 -1.313241e-02 -1.261557e-02 -1.315546e-02 -1.261541e-02 -1.314320e-02 -1.260518e-02 -1.307796e-02 -1.252345e-02 -1.295443e-02 -1.238214e-02 -1.277973e-02 -1.226707e-02 -1.260222e-02 -1.223509e-02 -1.252202e-02 -1.230530e-02 -1.249934e-02 -1.244370e-02 -1.253290e-02 -1.264109e-02 -1.260370e-02 -1.285894e-02 -1.267786e-02 -1.306195e-02 -1.273476e-02 -1.323656e-02 -1.277464e-02 -1.338032e-02 -1.279829e-02 -1.349005e-02 -1.281462e-02 -1.357363e-02 -1.283698e-02 -1.363000e-02 -1.286666e-02 -1.365182e-02 -1.290774e-02 -1.363653e-02 -1.296697e-02 -1.358528e-02 -1.305411e-02 -1.350252e-02 -1.317414e-02 -1.339123e-02 -1.332900e-02 -1.325649e-02 -1.351158e-02 -1.309365e-02 -1.370421e-02 -1.290491e-02 -1.390091e-02 -1.270872e-02 -1.410270e-02 -1.253304e-02 -1.431426e-02 -1.241076e-02 -1.453089e-02 -1.237639e-02 -1.474285e-02 -1.249464e-02 -1.492889e-02 -1.288892e-02 -1.499046e-02 -1.384906e-02 -1.446666e-02 -1.670406e-02 -1.923781e-03 7.803685e-04 4.785656e-03 4.963587e-03 6.895868e-03 
8.334892e-03 5.852030e-03 6.482961e-03 2.307876e-03 2.538166e-04 -1.042588e-02 -1.356214e-04 -7.102539e-03 4.552778e-04 -3.872474e-03 2.696787e-03 9.398132e-04 9.721696e-03 1.113802e-02 1.565660e-02 1.510187e-02 1.706376e-02 1.671960e-02 1.532993e-02 1.567205e-02 1.091657e-02 8.875196e-03 1.053845e-03 2.064185e-03 -2.984777e-03 -7.477633e-04 -4.728061e-03 -2.119896e-03 -5.469246e-03 -2.875294e-03 -5.700526e-03 -3.351815e-03 -5.667083e-03 -3.712584e-03 -5.526429e-03 -4.045329e-03 -5.380673e-03 -4.365374e-03 -5.242621e-03 -4.612214e-03 -5.086163e-03 -4.756018e-03 -4.937282e-03 -4.831843e-03 -4.845777e-03 -4.876884e-03 -4.810185e-03 -4.862030e-03 -4.756908e-03 -4.740987e-03 -4.647626e-03 -4.539973e-03 -4.500142e-03 -4.299807e-03 -4.309377e-03 -4.020649e-03 -4.058640e-03 -3.776040e-03 -3.858711e-03 -3.549745e-03 -3.584169e-03 -3.418834e-03 -3.266734e-03 -3.280600e-03 -3.073907e-03 -3.047881e-03 -3.001510e-03 -2.927822e-03 -2.950850e-03 -3.080423e-03 -3.048497e-03 -3.216363e-03 -3.367026e-03 -3.572481e-03 -3.879822e-03 -3.960817e-03 -4.426371e-03 -4.285788e-03 -4.946069e-03 -4.502186e-03 -5.383851e-03 -4.601961e-03 -5.727355e-03 -4.632543e-03 -5.980496e-03 -4.634075e-03 -6.133318e-03 -4.657982e-03 -6.200989e-03 -4.752791e-03 -6.172377e-03 -4.917998e-03 -6.027491e-03 -5.151023e-03 -5.776425e-03 -5.448206e-03 -5.452986e-03 -5.802153e-03 -5.105897e-03 -6.181414e-03 -4.783206e-03 -6.544925e-03 -4.540431e-03 -6.828272e-03 -4.396884e-03 -6.942867e-03 -4.378039e-03 -6.850160e-03 -4.539259e-03 -6.552558e-03 -4.935070e-03 -6.083222e-03 -5.595193e-03 -5.469814e-03 -6.500482e-03 -4.750158e-03 -7.632404e-03 -3.996013e-03 -8.973688e-03 -3.357758e-03 -1.048029e-02 -3.308021e-03 -1.144208e-02 -6.358803e-03 6.636999e-03 4.467329e-03 8.468463e-03 6.410883e-03 
3.220299e-03 -3.928150e-04 2.351389e-03 -3.199648e-03 2.277451e-04 -9.920485e-03 6.390755e-03 -1.965145e-03 1.442860e-03 -5.567169e-04 -2.354928e-03 -1.089697e-04 -7.673939e-03 -3.442838e-04 -4.606764e-03 9.849764e-04 -3.773165e-03 1.144083e-03 -3.697527e-03 -2.112272e-04 -4.347928e-03 -4.216369e-03 -2.722322e-03 -1.312026e-03 -1.558129e-03 6.458257e-05 -9.104504e-04 7.204463e-04 -4.785677e-04 9.674684e-04 -1.378880e-04 9.939055e-04 1.620799e-04 9.030899e-04 4.211630e-04 7.502555e-04 6.229259e-04 5.806176e-04 7.717965e-04 4.478580e-04 8.837242e-04 3.802095e-04 9.555081e-04 3.712937e-04 9.779758e-04 4.085679e-04 9.654266e-04 5.000424e-04 9.583804e-04 6.542559e-04 9.823477e-04 8.543481e-04 1.047980e-03 1.090452e-03 1.187164e-03 1.383233e-03 1.393030e-03 1.448463e-03 1.276089e-03 1.585171e-03 1.441631e-03 1.429478e-03 1.792859e-03 1.502736e-03 2.010995e-03 2.085463e-03 2.259487e-03 2.648208e-03 2.787697e-03 2.601489e-03 2.926196e-03 2.784002e-03 2.683213e-03 2.197854e-03 1.992211e-03 1.627687e-03 1.381852e-03 1.208677e-03 8.622693e-04 9.401040e-04 4.477919e-04 8.004765e-04 1.340685e-04 7.391638e-04 -8.624998e-05 7.095997e-04 -2.098390e-04 6.654950e-04 -2.416884e-04 5.662986e-04 -1.799358e-04 3.976571e-04 -2.213550e-05 1.587005e-04 2.194914e-04 -1.383318e-04 5.176051e-04 -4.697192e-04 8.311416e-04 -7.967229e-04 1.111200e-03 -1.073780e-03 1.302951e-03 -1.243661e-03 1.368745e-03 -1.240086e-03 1.275986e-03 -1.022532e-03 9.907571e-04 -5.775881e-04 4.971302e-04 8.527583e-05 -1.839076e-04 9.467702e-04 -9.742030e-04 1.971395e-03 -1.735640e-03 3.089843e-03 -2.232799e-03 4.124477e-03 -2.048610e-03 4.426437e-03 8.796886e-05 -3.623690e-03 3.332371e-03 -2.532183e-04 3.453784e-03 4.192471e-04 
