# vtk DataFile Version 2.0
Comment goes here
ASCII

DATASET STRUCTURED_POINTS
FIELD FieldData 1
TIME 1 1 double
0.09000000
DIMENSIONS    128   16   1

ORIGIN    0.000   0.000   0.000
SPACING   0.0078125 0.015625   1.000

POINT_DATA   2048
SCALARS uX double
LOOKUP_TABLE default

-2.322558e-03 -3.570620e-03 -1.520706e-03 -3.646726e-03 -8.579579e-04 -6.756493e-03 -4.798089e-03 -1.500153e-03 -3.241013e-03 2.183332e-03 2.307543e-03 9.889339e-03 1.428573e-02 2.339593e-02 2.813188e-02 3.188959e-02 3.113039e-02 3.322582e-02 3.003291e-02 2.893107e-02 2.321617e-02 1.498105e-02 8.623643e-03 4.509304e-03 6.525069e-04 -6.477672e-04 -2.215263e-03 -2.929204e-03 -3.719430e-03 -3.975508e-03 -4.221423e-03 -4.738832e-03 -4.134815e-03 -5.177246e-03 -4.051499e-03 -5.255923e-03 -4.126848e-03 -5.103692e-03 -4.113570e-03 -4.986352e-03 -3.766951e-03 -4.748633e-03 -3.559317e-03 -4.594973e-03 -3.515777e-03 -4.413438e-03 -3.905562e-03 -4.472479e-03 -4.315310e-03 -4.661234e-03 -4.894140e-03 -4.699972e-03 -5.142980e-03 -5.021289e-03 -6.032522e-03 -6.391150e-03 -6.929854e-03 -7.706569e-03 -7.732680e-03 9.500111e-04 -1.521334e-03 -3.050488e-04 4.492743e-03 -1.661119e-04 3.984793e-03 4.359011e-03 -4.498618e-04 4.583898e-03 -4.078614e-05 -4.806242e-03 -7.828349e-04 2.821470e-03 3.641109e-03 1.754786e-03 1.271472e-03 -8.122471e-04 -1.070996e-03 -2.604903e-03 -2.361935e-03 -3.076909e-03 -2.753860e-03 -3.034313e-03 -3.169043e-03 -3.129197e-03 -3.519136e-03 -2.924460e-03 -3.490989e-03 -2.639368e-03 -3.667355e-03 -2.587226e-03 -3.829374e-03 -2.630057e-03 -3.861451e-03 -2.878959e-03 -4.074780e-03 -2.953209e-03 -3.582574e-03 -2.537641e-03 -3.135336e-03 -3.080114e-03 -3.284031e-03 -3.629868e-03 -2.610186e-03 -3.679610e-03 -2.826090e-03 -4.118157e-03 -2.023858e-03 -4.625753e-03 -1.366888e-03 -4.816571e-03 -1.660647e-03 -4.371362e-03 -1.483825e-03 -4.985640e-03 -1.989050e-03 -3.811079e-03 -2.733645e-03 -3.335512e-03 -3.328446e-03 -2.253202e-03 -4.919628e-03 -1.551137e-03 -6.343517e-03 -3.234396e-04 -1.545808e-03 -1.205943e-03 -2.032331e-03 -2.900917e-03 
-1.511858e-04 -1.273758e-03 9.631106e-04 -8.853767e-04 3.021872e-03 -4.762825e-03 -3.521386e-03 4.672772e-04 -4.217046e-03 1.115340e-03 -3.336785e-03 1.736831e-03 -3.234284e-03 -2.245734e-04 -4.551923e-03 -2.544489e-03 -5.113729e-03 -3.665278e-03 -4.231215e-03 -2.908930e-03 -1.668515e-03 -3.014317e-03 -7.548332e-04 -7.158006e-04 -1.391734e-03 -1.469979e-03 -7.418495e-04 -1.762642e-03 -1.507205e-03 -1.305797e-03 -1.174980e-03 -1.687906e-03 -5.593559e-04 -2.289518e-03 -6.894430e-04 -2.379117e-03 -1.078122e-03 -1.866129e-03 -1.044093e-03 -1.699883e-03 -2.210279e-04 -1.528121e-03 -2.614020e-04 -1.506855e-03 -4.186773e-05 -8.835685e-04 -2.963937e-04 -7.085693e-04 -5.010103e-04 -9.356737e-04 -8.427109e-04 3.142389e-04 9.450853e-04 2.653569e-03 3.223555e-03 5.147470e-03 7.581655e-03 7.955642e-03 5.033589e-03 9.485625e-03 3.864787e-03 3.410973e-03 7.749820e-03 1.900099e-03 6.828921e-03 6.575626e-03 3.017843e-04 5.289208e-03 1.043896e-03 -2.393938e-03 1.487063e-05 -9.863019e-04 -1.879660e-03 -2.610070e-03 -1.136440e-03 -1.485466e-03 -2.181344e-04 -1.273946e-03 -3.631367e-04 -9.497261e-04 -2.212303e-04 -1.675093e-04 -1.277305e-04 1.144206e-04 -3.073591e-04 4.120077e-04 -1.798164e-04 4.801069e-04 -4.908899e-04 5.960364e-04 -5.105620e-04 6.508276e-04 -4.308506e-04 4.703892e-04 -7.533969e-04 4.109938e-04 7.088933e-06 1.241050e-03 3.061952e-04 -1.805527e-04 -6.713092e-04 -8.955191e-04 1.205029e-03 2.185025e-05 2.026203e-04 -7.167491e-04 1.072558e-03 -1.516187e-03 2.486696e-03 -1.851468e-03 1.298367e-03 -6.327537e-04 1.956661e-03 -2.374274e-03 1.558042e-03 8.477003e-05 6.987025e-04 7.289269e-07 3.943638e-04 1.122780e-03 -2.103516e-03 2.071667e-03 -3.819875e-03 3.989258e-03 2.871786e-03 1.379943e-03 4.049823e-04 -7.379535e-04 
-4.339177e-03 -4.579505e-03 -1.344069e-03 9.192841e-04 8.498166e-03 7.645453e-03 5.266214e-03 6.859274e-03 4.121348e-03 4.215243e-03 1.809470e-03 -1.163293e-03 -3.855979e-03 -8.639015e-03 -9.795949e-03 -1.217979e-02 -1.107216e-02 -1.192971e-02 -1.139434e-02 -1.076099e-02 -9.497140e-03 -2.829405e-03 -2.330377e-03 3.870319e-03 3.444913e-03 6.121068e-03 5.286237e-03 6.236239e-03 5.477437e-03 7.043367e-03 6.212877e-03 7.134500e-03 6.954180e-03 6.481727e-03 7.324575e-03 6.422346e-03 7.066558e-03 6.197481e-03 6.899585e-03 5.699887e-03 7.931810e-03 6.453750e-03 8.339389e-03 6.858164e-03 8.002617e-03 7.204884e-03 7.890352e-03 7.236207e-03 7.420561e-03 6.392889e-03 6.274860e-03 7.449111e-03 7.145698e-03 9.118632e-03 7.952001e-03 9.022661e-03 7.506095e-03 9.985449e-03 9.525147e-03 -3.248939e-03 -1.043601e-03 -1.177495e-03 -1.169837e-02 -5.882620e-04 -8.114626e-03 -8.186091e-03 4.057493e-04 -9.146876e-03 -5.616014e-04 6.571409e-03 2.815969e-04 -4.855487e-03 -5.670728e-03 -3.448479e-03 -1.306633e-03 7.321965e-04 3.420402e-03 3.825061e-03 5.873855e-03 5.041815e-03 6.272895e-03 6.090899e-03 6.862801e-03 7.361127e-03 6.854386e-03 7.953397e-03 6.759693e-03 8.131580e-03 7.296559e-03 8.628887e-03 7.789736e-03 8.234781e-03 6.706911e-03 7.991571e-03 6.913138e-03 8.964038e-03 7.914302e-03 9.485062e-03 7.299529e-03 7.852873e-03 6.693173e-03 7.639222e-03 7.711657e-03 7.567255e-03 8.026568e-03 6.351410e-03 8.316562e-03 6.544362e-03 9.485902e-03 6.911967e-03 9.740200e-03 6.407551e-03 9.359101e-03 6.369915e-03 9.160392e-03 7.339181e-03 9.168118e-03 8.457391e-03 8.699753e-03 9.122344e-03 6.775194e-03 1.035530e-02 5.499919e-03 1.230002e-02 8.268034e-03 5.102541e-04 -2.023975e-03 -4.744844e-03 
-5.887940e-03 -3.822687e-03 -2.954194e-03 4.345773e-03 7.184696e-03 2.227195e-02 1.604312e-02 1.309494e-02 1.788667e-02 1.218956e-02 1.742233e-02 1.163530e-02 1.800738e-02 1.424260e-02 1.899065e-02 1.655252e-02 1.929646e-02 1.790666e-02 1.826490e-02 1.714247e-02 1.514926e-02 1.731684e-02 1.362298e-02 1.477532e-02 1.538974e-02 1.627159e-02 1.366444e-02 1.593627e-02 1.446326e-02 1.534876e-02 1.423676e-02 1.593189e-02 1.386240e-02 1.626149e-02 1.479420e-02 1.624331e-02 1.544365e-02 1.474706e-02 1.526073e-02 1.377034e-02 1.485586e-02 1.440560e-02 1.550335e-02 1.494097e-02 1.446936e-02 1.400694e-02 1.445248e-02 1.355080e-02 1.388718e-02 1.301240e-02 1.301442e-02 1.194743e-02 1.075610e-02 1.007899e-02 8.875104e-03 7.777432e-03 4.654215e-03 3.995628e-03 7.408266e-03 5.125143e-03 9.756720e-03 1.144781e-02 7.278092e-03 1.378345e-02 8.968529e-03 8.908843e-03 1.456634e-02 8.600295e-03 1.037447e-02 9.511027e-03 7.121495e-03 9.989029e-03 1.202562e-02 1.334983e-02 1.245949e-02 1.308501e-02 1.333997e-02 1.418342e-02 1.498641e-02 1.403880e-02 1.442194e-02 1.333960e-02 1.433943e-02 1.420356e-02 1.431479e-02 1.450389e-02 1.379564e-02 1.486188e-02 1.498552e-02 1.527974e-02 1.542954e-02 1.464722e-02 1.381840e-02 1.463814e-02 1.463162e-02 1.592838e-02 1.440138e-02 1.489354e-02 1.332634e-02 1.577159e-02 1.481468e-02 1.655849e-02 1.233370e-02 1.401001e-02 1.514025e-02 1.369382e-02 1.425075e-02 1.537833e-02 1.312478e-02 1.638420e-02 1.616135e-02 1.323467e-02 1.433553e-02 1.687116e-02 1.459241e-02 1.330748e-02 1.589619e-02 1.544487e-02 1.533932e-02 1.465706e-02 1.732744e-02 1.435442e-02 1.782094e-02 1.101776e-02 4.836102e-03 -1.747768e-03 -4.011367e-03 -5.435294e-03 
-2.560384e-02 -2.392849e-02 -2.709272e-02 -2.492067e-02 -3.154939e-02 -2.080625e-02 -2.162647e-02 -2.502486e-02 -1.964649e-02 -2.327407e-02 -1.892499e-02 -1.992190e-02 -1.771293e-02 -1.810238e-02 -1.900148e-02 -1.874060e-02 -1.929613e-02 -1.937480e-02 -1.867477e-02 -1.855834e-02 -1.749786e-02 -1.910327e-02 -1.841461e-02 -2.279455e-02 -2.086733e-02 -2.237188e-02 -2.262985e-02 -2.178985e-02 -2.186511e-02 -2.272066e-02 -2.258827e-02 -2.236988e-02 -2.347682e-02 -2.133538e-02 -2.319462e-02 -2.123560e-02 -2.234710e-02 -2.181400e-02 -2.209862e-02 -2.172562e-02 -2.334532e-02 -2.205840e-02 -2.322344e-02 -2.192487e-02 -2.309432e-02 -2.241694e-02 -2.246115e-02 -2.197416e-02 -2.130591e-02 -1.998581e-02 -1.877414e-02 -1.941738e-02 -1.785394e-02 -1.791518e-02 -1.377788e-02 -1.106898e-02 -6.747686e-03 -9.818641e-03 -1.383918e-02 -5.337033e-03 -1.096478e-02 -1.249863e-02 -3.022792e-03 -1.649396e-02 -9.775153e-03 -9.156526e-03 -1.812088e-02 -6.569644e-03 -1.312053e-02 -1.756707e-02 -1.104262e-02 -1.132907e-02 -1.352162e-02 -1.587091e-02 -1.832245e-02 -1.930720e-02 -2.147395e-02 -2.086021e-02 -2.227743e-02 -2.159796e-02 -2.250679e-02 -2.282299e-02 -2.302413e-02 -2.359338e-02 -2.295427e-02 -2.393528e-02 -2.308258e-02 -2.380135e-02 -2.300276e-02 -2.407679e-02 -2.335317e-02 -2.396586e-02 -2.305846e-02 -2.368950e-02 -2.287895e-02 -2.407262e-02 -2.415316e-02 -2.521133e-02 -2.397383e-02 -2.280420e-02 -2.238856e-02 -2.219867e-02 -2.488830e-02 -2.369991e-02 -2.359265e-02 -2.255335e-02 -2.433579e-02 -2.182587e-02 -2.621485e-02 -2.173861e-02 -2.473414e-02 -2.292933e-02 -2.531785e-02 -2.088330e-02 -2.499259e-02 -2.399738e-02 -2.434857e-02 -2.406310e-02 -2.422545e-02 -2.530883e-02 -2.115996e-02 -2.733863e-02 -2.040636e-02 -3.320385e-02 -3.275642e-02 -2.813549e-02 -2.693088e-02 -2.474321e-02 
-2.981977e-02 -3.036039e-02 -3.275682e-02 -3.672681e-02 -4.232623e-02 -4.737579e-02 -4.202837e-02 -4.198840e-02 -4.105931e-02 -3.965053e-02 -3.851411e-02 -3.599551e-02 -3.495930e-02 -3.447349e-02 -3.482484e-02 -3.450391e-02 -3.468076e-02 -3.471680e-02 -3.465402e-02 -3.472530e-02 -3.423578e-02 -3.464847e-02 -3.686266e-02 -3.897942e-02 -4.076026e-02 -4.168294e-02 -4.110979e-02 -4.206608e-02 -4.171199e-02 -4.256062e-02 -4.213005e-02 -4.301140e-02 -4.243686e-02 -4.282743e-02 -4.301751e-02 -4.284202e-02 -4.308569e-02 -4.218058e-02 -4.289164e-02 -4.157699e-02 -4.330100e-02 -4.230148e-02 -4.381572e-02 -4.276374e-02 -4.315892e-02 -4.255749e-02 -4.301963e-02 -4.230280e-02 -4.233424e-02 -4.137983e-02 -4.100019e-02 -4.104328e-02 -3.988839e-02 -4.018185e-02 -3.833133e-02 -3.748220e-02 -3.509556e-02 -3.485869e-02 -3.668699e-02 -3.621177e-02 -3.649494e-02 -3.846188e-02 -3.513169e-02 -3.874504e-02 -3.714115e-02 -3.522209e-02 -3.824964e-02 -3.474071e-02 -3.516537e-02 -3.365834e-02 -3.116210e-02 -3.368037e-02 -3.589655e-02 -3.753732e-02 -3.821521e-02 -3.896817e-02 -4.031397e-02 -4.057919e-02 -4.196385e-02 -4.104858e-02 -4.183618e-02 -4.138298e-02 -4.218238e-02 -4.257437e-02 -4.226690e-02 -4.310898e-02 -4.205061e-02 -4.340032e-02 -4.290540e-02 -4.390216e-02 -4.344555e-02 -4.346773e-02 -4.223464e-02 -4.337043e-02 -4.278532e-02 -4.448429e-02 -4.329492e-02 -4.428057e-02 -4.248066e-02 -4.366919e-02 -4.279667e-02 -4.388812e-02 -4.229327e-02 -4.280076e-02 -4.369602e-02 -4.196992e-02 -4.349545e-02 -4.272987e-02 -4.364730e-02 -4.336018e-02 -4.509949e-02 -4.171555e-02 -4.409733e-02 -4.336798e-02 -4.410621e-02 -4.249145e-02 -4.467977e-02 -4.424805e-02 -4.419228e-02 -4.461888e-02 -4.418296e-02 -4.581140e-02 -4.419882e-02 -4.634723e-02 -4.066705e-02 -3.400454e-02 -3.161457e-02 -2.966731e-02 
-3.694960e-02 -3.744564e-02 -3.838850e-02 -4.096141e-02 -4.299473e-02 -4.883701e-02 -4.643808e-02 -4.578890e-02 -4.693742e-02 -4.573171e-02 -4.671109e-02 -4.569673e-02 -4.611751e-02 -4.562143e-02 -4.601490e-02 -4.572739e-02 -4.589893e-02 -4.591360e-02 -4.574155e-02 -4.595230e-02 -4.545323e-02 -4.603133e-02 -4.610221e-02 -4.654992e-02 -4.676765e-02 -4.740324e-02 -4.624686e-02 -4.735431e-02 -4.658247e-02 -4.709178e-02 -4.658142e-02 -4.717157e-02 -4.654677e-02 -4.715273e-02 -4.691365e-02 -4.703316e-02 -4.716232e-02 -4.647126e-02 -4.715991e-02 -4.614845e-02 -4.707968e-02 -4.638090e-02 -4.732220e-02 -4.661941e-02 -4.692116e-02 -4.635109e-02 -4.679815e-02 -4.623410e-02 -4.650164e-02 -4.620909e-02 -4.634781e-02 -4.633898e-02 -4.632292e-02 -4.706129e-02 -4.798248e-02 -4.983880e-02 -5.162272e-02 -5.104479e-02 -5.011321e-02 -5.087543e-02 -4.886622e-02 -5.103072e-02 -5.002866e-02 -4.946583e-02 -5.007048e-02 -4.970682e-02 -5.036945e-02 -5.095998e-02 -5.163944e-02 -5.118596e-02 -5.239547e-02 -5.164693e-02 -4.958748e-02 -4.797264e-02 -4.693329e-02 -4.636090e-02 -4.645558e-02 -4.631213e-02 -4.682184e-02 -4.626570e-02 -4.661913e-02 -4.620273e-02 -4.660738e-02 -4.672602e-02 -4.664202e-02 -4.704324e-02 -4.650996e-02 -4.732654e-02 -4.695635e-02 -4.757440e-02 -4.713920e-02 -4.745649e-02 -4.665568e-02 -4.753819e-02 -4.699489e-02 -4.801372e-02 -4.696811e-02 -4.760628e-02 -4.666145e-02 -4.778643e-02 -4.723599e-02 -4.787431e-02 -4.649505e-02 -4.684368e-02 -4.760429e-02 -4.660294e-02 -4.746454e-02 -4.705780e-02 -4.722672e-02 -4.732782e-02 -4.835071e-02 -4.629281e-02 -4.773458e-02 -4.765158e-02 -4.775803e-02 -4.664354e-02 -4.803860e-02 -4.764342e-02 -4.759061e-02 -4.763128e-02 -4.798193e-02 -4.753825e-02 -4.752077e-02 -4.512961e-02 -4.158962e-02 -3.911891e-02 -3.781646e-02 -3.698823e-02 
-3.663878e-02 -3.720702e-02 -3.773655e-02 -3.939233e-02 -4.034185e-02 -4.277650e-02 -4.292847e-02 -4.419331e-02 -4.504366e-02 -4.625307e-02 -4.804318e-02 -4.995829e-02 -5.230987e-02 -5.206836e-02 -5.222357e-02 -5.208108e-02 -5.214091e-02 -5.214421e-02 -5.208074e-02 -5.221193e-02 -5.202640e-02 -5.228583e-02 -4.874275e-02 -4.794365e-02 -4.595966e-02 -4.598838e-02 -4.461352e-02 -4.497185e-02 -4.402004e-02 -4.442402e-02 -4.378798e-02 -4.413683e-02 -4.375804e-02 -4.392539e-02 -4.386682e-02 -4.375538e-02 -4.397512e-02 -4.354964e-02 -4.406436e-02 -4.343810e-02 -4.418003e-02 -4.352642e-02 -4.427026e-02 -4.364214e-02 -4.418386e-02 -4.366832e-02 -4.408119e-02 -4.367795e-02 -4.391237e-02 -4.368859e-02 -4.377524e-02 -4.388728e-02 -4.389915e-02 -4.439830e-02 -4.462584e-02 -4.563480e-02 -4.631993e-02 -4.674324e-02 -4.640834e-02 -4.866970e-02 -4.792961e-02 -4.816617e-02 -4.964604e-02 -4.844310e-02 -4.887150e-02 -4.972301e-02 -4.783327e-02 -4.881042e-02 -4.699382e-02 -4.481890e-02 -4.645407e-02 -4.711830e-02 -4.638600e-02 -4.533195e-02 -4.489992e-02 -4.426561e-02 -4.428184e-02 -4.381604e-02 -4.405182e-02 -4.362944e-02 -4.385172e-02 -4.364980e-02 -4.375845e-02 -4.388176e-02 -4.369858e-02 -4.410296e-02 -4.365745e-02 -4.428688e-02 -4.375062e-02 -4.444176e-02 -4.379381e-02 -4.449309e-02 -4.368708e-02 -4.458271e-02 -4.376228e-02 -4.475382e-02 -4.383573e-02 -4.472273e-02 -4.381639e-02 -4.460886e-02 -4.391375e-02 -4.444349e-02 -4.395260e-02 -4.409382e-02 -4.423709e-02 -4.385201e-02 -4.435834e-02 -4.384220e-02 -4.451492e-02 -4.383330e-02 -4.476857e-02 -4.366803e-02 -4.468881e-02 -4.385884e-02 -4.461540e-02 -4.381502e-02 -4.448002e-02 -4.398987e-02 -4.407216e-02 -4.383360e-02 -4.345753e-02 -4.323573e-02 -4.226556e-02 -4.128259e-02 -3.952905e-02 -3.826958e-02 -3.727829e-02 -3.681716e-02 
-3.984196e-02 -4.043268e-02 -4.074604e-02 -4.234719e-02 -4.290878e-02 -4.515917e-02 -4.537188e-02 -4.648121e-02 -4.758360e-02 -4.850287e-02 -5.054101e-02 -5.231078e-02 -5.475047e-02 -5.446189e-02 -5.466630e-02 -5.450034e-02 -5.457352e-02 -5.458516e-02 -5.448014e-02 -5.467238e-02 -5.441921e-02 -5.473936e-02 -5.095536e-02 -5.025896e-02 -4.816757e-02 -4.840011e-02 -4.699889e-02 -4.751631e-02 -4.652123e-02 -4.702331e-02 -4.635699e-02 -4.675622e-02 -4.635254e-02 -4.657994e-02 -4.645274e-02 -4.643844e-02 -4.659622e-02 -4.631714e-02 -4.674277e-02 -4.627873e-02 -4.685579e-02 -4.633090e-02 -4.694690e-02 -4.644536e-02 -4.699813e-02 -4.659483e-02 -4.709765e-02 -4.682662e-02 -4.725310e-02 -4.718546e-02 -4.759709e-02 -4.782040e-02 -4.831070e-02 -4.889160e-02 -4.958487e-02 -5.048000e-02 -5.102943e-02 -5.012818e-02 -4.741458e-02 -5.161753e-02 -4.849116e-02 -4.657906e-02 -5.181668e-02 -4.591994e-02 -4.934326e-02 -5.053531e-02 -4.520634e-02 -5.109248e-02 -4.793328e-02 -4.602177e-02 -4.918832e-02 -4.860123e-02 -4.853129e-02 -4.815046e-02 -4.825079e-02 -4.771763e-02 -4.769675e-02 -4.715926e-02 -4.722148e-02 -4.678136e-02 -4.688957e-02 -4.664393e-02 -4.670437e-02 -4.669505e-02 -4.657952e-02 -4.677866e-02 -4.646852e-02 -4.685870e-02 -4.643150e-02 -4.694589e-02 -4.640917e-02 -4.702972e-02 -4.638449e-02 -4.714374e-02 -4.644817e-02 -4.724183e-02 -4.649132e-02 -4.721826e-02 -4.652892e-02 -4.717087e-02 -4.662276e-02 -4.703681e-02 -4.667171e-02 -4.678785e-02 -4.682969e-02 -4.659485e-02 -4.688706e-02 -4.652210e-02 -4.697635e-02 -4.645922e-02 -4.712655e-02 -4.636810e-02 -4.712339e-02 -4.645179e-02 -4.708383e-02 -4.637324e-02 -4.694084e-02 -4.632640e-02 -4.658036e-02 -4.598759e-02 -4.596576e-02 -4.515985e-02 -4.471299e-02 -4.340962e-02 -4.224429e-02 -4.114903e-02 -4.038349e-02 -4.003069e-02 
-3.666198e-02 -3.723500e-02 -3.775748e-02 -3.941760e-02 -4.036072e-02 -4.279962e-02 -4.294655e-02 -4.421525e-02 -4.507311e-02 -4.629019e-02 -4.809837e-02 -5.001990e-02 -5.234030e-02 -5.211268e-02 -5.225744e-02 -5.214009e-02 -5.218635e-02 -5.221389e-02 -5.212757e-02 -5.230483e-02 -5.211133e-02 -5.238121e-02 -4.880956e-02 -4.812972e-02 -4.580970e-02 -4.600563e-02 -4.446856e-02 -4.494409e-02 -4.388389e-02 -4.434892e-02 -4.369478e-02 -4.401706e-02 -4.371901e-02 -4.382620e-02 -4.382436e-02 -4.371888e-02 -4.396429e-02 -4.366792e-02 -4.415832e-02 -4.370015e-02 -4.431730e-02 -4.375945e-02 -4.442334e-02 -4.385919e-02 -4.446556e-02 -4.401025e-02 -4.449921e-02 -4.418654e-02 -4.450132e-02 -4.435929e-02 -4.458616e-02 -4.474232e-02 -4.499449e-02 -4.542269e-02 -4.566472e-02 -4.628778e-02 -4.636465e-02 -4.614969e-02 -4.459247e-02 -4.669221e-02 -4.555010e-02 -4.503265e-02 -4.717653e-02 -4.499780e-02 -4.641682e-02 -4.739528e-02 -4.499904e-02 -4.773457e-02 -4.679853e-02 -4.681753e-02 -4.826721e-02 -4.742040e-02 -4.702926e-02 -4.650144e-02 -4.643786e-02 -4.582148e-02 -4.575574e-02 -4.510925e-02 -4.510415e-02 -4.460416e-02 -4.469567e-02 -4.444020e-02 -4.444097e-02 -4.442121e-02 -4.422015e-02 -4.444153e-02 -4.402314e-02 -4.447204e-02 -4.386935e-02 -4.449883e-02 -4.375194e-02 -4.456725e-02 -4.371987e-02 -4.467376e-02 -4.378129e-02 -4.477852e-02 -4.390253e-02 -4.483234e-02 -4.404389e-02 -4.477355e-02 -4.412045e-02 -4.456398e-02 -4.420728e-02 -4.430602e-02 -4.428139e-02 -4.402950e-02 -4.434183e-02 -4.387332e-02 -4.450377e-02 -4.374749e-02 -4.461103e-02 -4.370464e-02 -4.465064e-02 -4.373243e-02 -4.459431e-02 -4.376156e-02 -4.438808e-02 -4.383248e-02 -4.403788e-02 -4.374284e-02 -4.340083e-02 -4.319013e-02 -4.227523e-02 -4.130154e-02 -3.955349e-02 -3.830109e-02 -3.730356e-02 -3.684821e-02 
-3.700210e-02 -3.749450e-02 -3.843580e-02 -4.099973e-02 -4.303072e-02 -4.885896e-02 -4.642115e-02 -4.578472e-02 -4.693409e-02 -4.576021e-02 -4.686984e-02 -4.590216e-02 -4.616758e-02 -4.568820e-02 -4.604605e-02 -4.579333e-02 -4.595603e-02 -4.595260e-02 -4.579434e-02 -4.615101e-02 -4.566456e-02 -4.633902e-02 -4.641081e-02 -4.744796e-02 -4.632254e-02 -4.732919e-02 -4.621299e-02 -4.718586e-02 -4.625232e-02 -4.709637e-02 -4.654419e-02 -4.703513e-02 -4.679601e-02 -4.692830e-02 -4.687937e-02 -4.682460e-02 -4.708030e-02 -4.689415e-02 -4.752183e-02 -4.710916e-02 -4.777980e-02 -4.709420e-02 -4.779253e-02 -4.719186e-02 -4.794189e-02 -4.756758e-02 -4.823025e-02 -4.796406e-02 -4.830266e-02 -4.810443e-02 -4.839554e-02 -4.852574e-02 -4.890161e-02 -4.919869e-02 -4.930758e-02 -4.969351e-02 -4.956693e-02 -4.992948e-02 -4.935157e-02 -4.972933e-02 -4.908667e-02 -4.866332e-02 -4.899179e-02 -4.854205e-02 -4.877992e-02 -4.909996e-02 -4.822179e-02 -4.886349e-02 -4.830862e-02 -4.842899e-02 -4.873512e-02 -4.852281e-02 -4.877418e-02 -4.858201e-02 -4.890865e-02 -4.854391e-02 -4.875197e-02 -4.805784e-02 -4.804856e-02 -4.740020e-02 -4.764992e-02 -4.740991e-02 -4.763684e-02 -4.760786e-02 -4.753195e-02 -4.759699e-02 -4.719825e-02 -4.743176e-02 -4.691431e-02 -4.739876e-02 -4.675354e-02 -4.754889e-02 -4.682563e-02 -4.788013e-02 -4.704846e-02 -4.802212e-02 -4.710196e-02 -4.799212e-02 -4.723628e-02 -4.796652e-02 -4.725547e-02 -4.772440e-02 -4.747686e-02 -4.757254e-02 -4.752498e-02 -4.716587e-02 -4.725699e-02 -4.700356e-02 -4.755060e-02 -4.676440e-02 -4.759068e-02 -4.679786e-02 -4.773564e-02 -4.695593e-02 -4.789988e-02 -4.703169e-02 -4.779514e-02 -4.723143e-02 -4.767776e-02 -4.738132e-02 -4.761822e-02 -4.738139e-02 -4.760724e-02 -4.517837e-02 -4.166192e-02 -3.918464e-02 -3.787623e-02 -3.704767e-02 
-2.989038e-02 -3.044289e-02 -3.281894e-02 -3.680013e-02 -4.237295e-02 -4.743106e-02 -4.204888e-02 -4.201593e-02 -4.115163e-02 -3.974883e-02 -3.881804e-02 -3.626652e-02 -3.504543e-02 -3.455722e-02 -3.489399e-02 -3.468056e-02 -3.484091e-02 -3.488100e-02 -3.467311e-02 -3.510105e-02 -3.460267e-02 -3.556150e-02 -3.769146e-02 -4.019313e-02 -3.967110e-02 -4.132184e-02 -4.051031e-02 -4.208249e-02 -4.130175e-02 -4.221200e-02 -4.179524e-02 -4.232762e-02 -4.238303e-02 -4.243574e-02 -4.277338e-02 -4.257575e-02 -4.287785e-02 -4.253656e-02 -4.342527e-02 -4.285657e-02 -4.366989e-02 -4.293798e-02 -4.396875e-02 -4.302167e-02 -4.388693e-02 -4.331594e-02 -4.405616e-02 -4.370429e-02 -4.379114e-02 -4.324255e-02 -4.312397e-02 -4.337807e-02 -4.386121e-02 -4.435501e-02 -4.433361e-02 -4.476389e-02 -4.433937e-02 -4.496249e-02 -4.470034e-02 -4.517568e-02 -4.422233e-02 -4.426646e-02 -4.442956e-02 -4.519277e-02 -4.527578e-02 -4.600779e-02 -4.542377e-02 -4.567073e-02 -4.549604e-02 -4.610390e-02 -4.651625e-02 -4.603666e-02 -4.601745e-02 -4.561555e-02 -4.588512e-02 -4.540172e-02 -4.560892e-02 -4.448263e-02 -4.430257e-02 -4.344800e-02 -4.414429e-02 -4.381989e-02 -4.408500e-02 -4.385175e-02 -4.368158e-02 -4.381032e-02 -4.333827e-02 -4.386893e-02 -4.301917e-02 -4.358932e-02 -4.255046e-02 -4.365819e-02 -4.251179e-02 -4.379653e-02 -4.259165e-02 -4.403591e-02 -4.301516e-02 -4.451592e-02 -4.367376e-02 -4.463615e-02 -4.349346e-02 -4.400359e-02 -4.361995e-02 -4.359397e-02 -4.347690e-02 -4.279490e-02 -4.325455e-02 -4.282304e-02 -4.390937e-02 -4.243929e-02 -4.402059e-02 -4.250474e-02 -4.424859e-02 -4.259269e-02 -4.430848e-02 -4.252420e-02 -4.399309e-02 -4.330279e-02 -4.422922e-02 -4.444708e-02 -4.391126e-02 -4.566540e-02 -4.432852e-02 -4.659231e-02 -4.079439e-02 -3.415092e-02 -3.170198e-02 -2.977084e-02 
-2.570103e-02 -2.402634e-02 -2.721203e-02 -2.501194e-02 -3.172318e-02 -2.091164e-02 -2.200049e-02 -2.515541e-02 -2.009660e-02 -2.342005e-02 -1.905500e-02 -1.973556e-02 -1.777396e-02 -1.832731e-02 -1.889496e-02 -1.859864e-02 -1.912287e-02 -1.884603e-02 -1.875401e-02 -1.949672e-02 -1.843782e-02 -2.000819e-02 -1.958011e-02 -2.141121e-02 -2.093901e-02 -2.173322e-02 -2.151533e-02 -2.210133e-02 -2.221004e-02 -2.155106e-02 -2.186226e-02 -2.130759e-02 -2.225660e-02 -2.164492e-02 -2.319257e-02 -2.228255e-02 -2.315170e-02 -2.204022e-02 -2.296627e-02 -2.209628e-02 -2.302268e-02 -2.287334e-02 -2.417475e-02 -2.333370e-02 -2.395021e-02 -2.315494e-02 -2.357853e-02 -2.322004e-02 -2.338662e-02 -2.301257e-02 -2.274295e-02 -2.327050e-02 -2.358533e-02 -2.448081e-02 -2.450926e-02 -2.511963e-02 -2.448107e-02 -2.509357e-02 -2.478100e-02 -2.570003e-02 -2.481205e-02 -2.526161e-02 -2.529265e-02 -2.573768e-02 -2.507579e-02 -2.540460e-02 -2.500013e-02 -2.542613e-02 -2.575284e-02 -2.640305e-02 -2.687245e-02 -2.603998e-02 -2.586467e-02 -2.497523e-02 -2.500784e-02 -2.418980e-02 -2.444764e-02 -2.367785e-02 -2.414938e-02 -2.392236e-02 -2.491802e-02 -2.443160e-02 -2.435799e-02 -2.374297e-02 -2.352415e-02 -2.389502e-02 -2.381140e-02 -2.488557e-02 -2.399033e-02 -2.457822e-02 -2.339122e-02 -2.405648e-02 -2.277235e-02 -2.298295e-02 -2.209826e-02 -2.303588e-02 -2.311894e-02 -2.426473e-02 -2.436321e-02 -2.450178e-02 -2.433956e-02 -2.374927e-02 -2.390684e-02 -2.278530e-02 -2.374988e-02 -2.222762e-02 -2.485599e-02 -2.247244e-02 -2.537340e-02 -2.244349e-02 -2.574298e-02 -2.229421e-02 -2.554246e-02 -2.192236e-02 -2.460293e-02 -2.191905e-02 -2.380586e-02 -2.341827e-02 -2.385073e-02 -2.577870e-02 -2.223764e-02 -2.775396e-02 -2.051589e-02 -3.366792e-02 -3.288851e-02 -2.836280e-02 -2.703043e-02 -2.487910e-02 
-5.973372e-03 -3.913028e-03 -3.082218e-03 4.232908e-03 6.969858e-03 2.209438e-02 1.562870e-02 1.281078e-02 1.749484e-02 1.192116e-02 1.752483e-02 1.169779e-02 1.776198e-02 1.354570e-02 1.941023e-02 1.639449e-02 1.942645e-02 1.760313e-02 1.837490e-02 1.800127e-02 1.608964e-02 1.706831e-02 1.459847e-02 1.709698e-02 1.417774e-02 1.613161e-02 1.390019e-02 1.580474e-02 1.397276e-02 1.579970e-02 1.460818e-02 1.584157e-02 1.499413e-02 1.559202e-02 1.478539e-02 1.526062e-02 1.490669e-02 1.534173e-02 1.582588e-02 1.574929e-02 1.616721e-02 1.532702e-02 1.584945e-02 1.515868e-02 1.597814e-02 1.577813e-02 1.660153e-02 1.636924e-02 1.647559e-02 1.588934e-02 1.601472e-02 1.584639e-02 1.641326e-02 1.620937e-02 1.622978e-02 1.602587e-02 1.595821e-02 1.600386e-02 1.607331e-02 1.551350e-02 1.479828e-02 1.421401e-02 1.408133e-02 1.469619e-02 1.507809e-02 1.537175e-02 1.510795e-02 1.449784e-02 1.425660e-02 1.442346e-02 1.468538e-02 1.462571e-02 1.485333e-02 1.501109e-02 1.554817e-02 1.558498e-02 1.589152e-02 1.496579e-02 1.454685e-02 1.360928e-02 1.406962e-02 1.403419e-02 1.463182e-02 1.474805e-02 1.485335e-02 1.470308e-02 1.432959e-02 1.417512e-02 1.387827e-02 1.407153e-02 1.376070e-02 1.466114e-02 1.426881e-02 1.571875e-02 1.491690e-02 1.607800e-02 1.479904e-02 1.591590e-02 1.480498e-02 1.592614e-02 1.449077e-02 1.561221e-02 1.491494e-02 1.580360e-02 1.471383e-02 1.512742e-02 1.350775e-02 1.503287e-02 1.396251e-02 1.452802e-02 1.379945e-02 1.474132e-02 1.428505e-02 1.507870e-02 1.508899e-02 1.482940e-02 1.524984e-02 1.455082e-02 1.555051e-02 1.399789e-02 1.604995e-02 1.369929e-02 1.775948e-02 1.088734e-02 4.796045e-03 -1.849488e-03 -4.073106e-03 -5.523228e-03 
-4.381664e-03 -4.600576e-03 -1.402059e-03 8.900231e-04 8.424655e-03 7.605709e-03 5.248004e-03 6.797623e-03 4.175938e-03 4.211980e-03 1.842987e-03 -1.237268e-03 -4.049228e-03 -8.634058e-03 -9.854178e-03 -1.242784e-02 -1.135268e-02 -1.270228e-02 -1.133570e-02 -9.417674e-03 -8.388281e-03 -2.008832e-03 -9.721035e-04 4.004629e-03 2.824739e-03 5.685992e-03 4.391028e-03 6.562269e-03 5.531232e-03 6.336978e-03 5.799746e-03 6.166365e-03 6.467438e-03 6.258431e-03 7.217944e-03 6.569573e-03 7.255998e-03 6.364628e-03 7.561452e-03 6.566357e-03 7.776479e-03 6.954275e-03 8.537820e-03 7.173664e-03 8.276937e-03 7.215584e-03 8.039004e-03 7.376891e-03 7.502754e-03 6.687362e-03 6.334886e-03 6.545508e-03 6.829838e-03 7.371867e-03 7.100665e-03 7.491055e-03 6.729671e-03 7.657429e-03 7.565148e-03 9.479921e-03 8.643896e-03 9.437536e-03 1.021626e-02 1.083546e-02 1.103250e-02 1.165193e-02 1.082077e-02 1.139635e-02 1.121517e-02 1.176331e-02 1.259328e-02 1.209569e-02 1.216692e-02 1.116660e-02 1.131625e-02 1.012114e-02 1.033455e-02 8.768786e-03 8.864844e-03 7.924314e-03 8.922458e-03 8.376219e-03 8.495013e-03 8.054995e-03 7.754743e-03 8.141903e-03 7.660084e-03 8.733348e-03 7.524117e-03 8.454036e-03 6.944003e-03 8.374360e-03 6.709205e-03 8.043553e-03 6.488446e-03 8.296983e-03 7.359826e-03 9.266947e-03 8.457557e-03 9.378690e-03 8.291263e-03 8.495756e-03 8.195358e-03 7.723283e-03 7.959075e-03 6.833020e-03 8.365722e-03 6.884799e-03 9.080980e-03 6.559799e-03 9.323576e-03 6.567760e-03 9.436718e-03 6.402333e-03 9.023987e-03 6.358437e-03 8.352600e-03 7.482386e-03 8.411659e-03 9.140221e-03 6.966021e-03 1.028956e-02 5.464916e-03 1.253442e-02 8.276611e-03 5.681993e-04 -2.048146e-03 -4.743703e-03 
-1.745702e-04 -1.290790e-03 9.451042e-04 -9.020034e-04 3.027342e-03 -4.766100e-03 -3.396145e-03 4.943035e-04 -4.034742e-03 1.170987e-03 -3.334670e-03 1.624741e-03 -3.078160e-03 1.024575e-04 -4.847100e-03 -2.542454e-03 -4.958224e-03 -3.434184e-03 -4.071144e-03 -3.437270e-03 -1.792193e-03 -2.039383e-03 -5.581797e-04 -1.456140e-03 -1.173015e-03 -1.480001e-03 -1.318595e-03 -1.459425e-03 -1.209121e-03 -1.842664e-03 -1.459902e-03 -2.138203e-03 -1.198209e-03 -2.094792e-03 -6.060761e-04 -1.778339e-03 -5.672478e-04 -1.833550e-03 -7.009170e-04 -1.793510e-03 -5.318003e-04 -1.224741e-03 1.887018e-04 -8.516213e-04 9.165207e-05 -8.950666e-04 -2.994000e-04 -8.854587e-04 -5.206790e-04 -8.413782e-04 -8.988573e-04 -6.026911e-04 -6.691922e-04 -1.296467e-04 -5.709122e-04 -3.276660e-04 -1.272543e-03 -7.865916e-04 -1.325012e-03 1.079526e-03 5.792175e-04 1.308789e-03 2.076592e-03 1.453399e-03 1.631710e-03 1.946381e-03 1.331677e-03 3.023510e-03 3.580818e-03 4.312561e-03 5.379892e-03 5.081714e-03 5.131984e-03 3.689836e-03 3.368899e-03 1.726891e-03 1.749128e-03 5.662892e-04 1.054280e-03 4.862579e-04 1.059551e-03 5.410310e-04 4.253070e-04 1.174830e-04 -1.915694e-04 2.992503e-04 -7.392229e-05 9.654944e-04 -2.634807e-05 9.392037e-04 -3.358894e-04 6.814931e-04 -7.009554e-04 5.058783e-05 -1.072559e-03 8.960361e-05 -3.571504e-04 7.555176e-04 3.792000e-04 6.250147e-04 4.922078e-04 7.843575e-05 4.214564e-04 -5.864728e-04 4.366960e-04 -1.003722e-03 1.421129e-03 -1.172146e-03 1.803386e-03 -1.226057e-03 2.042531e-03 -1.295836e-03 1.910158e-03 -1.569216e-03 1.186973e-03 -1.174991e-03 4.982562e-04 -1.687869e-04 4.936266e-05 1.319109e-03 -1.519282e-03 2.231703e-03 -3.890396e-03 4.083749e-03 2.842071e-03 1.397874e-03 3.799092e-04 -7.455740e-04 
