# vtk DataFile Version 2.0
Comment goes here
ASCII

DATASET STRUCTURED_POINTS
FIELD FieldData 1
TIME 1 1 double
0.93000000
DIMENSIONS    128   16   1

ORIGIN    0.000   0.000   0.000
SPACING   0.0078125 0.015625   1.000

POINT_DATA   2048
SCALARS uX double
LOOKUP_TABLE default

5.969807e-03 4.155633e-03 4.748376e-03 2.475497e-03 3.375915e-03 2.567733e-03 9.622548e-03 -1.930255e-04 5.190847e-03 -4.271192e-03 -3.116717e-03 -1.412573e-02 -2.087592e-02 -3.613417e-02 -4.392978e-02 -4.787631e-02 -4.998321e-02 -5.013207e-02 -4.746701e-02 -4.312500e-02 -3.638072e-02 -2.025938e-02 -1.322526e-02 -4.615810e-03 -2.518725e-03 1.947662e-03 1.920995e-03 4.747076e-03 3.736930e-03 5.932324e-03 4.433543e-03 6.403608e-03 4.672720e-03 6.544818e-03 4.747302e-03 6.520110e-03 4.782611e-03 6.400186e-03 4.825046e-03 6.218104e-03 4.885010e-03 5.994748e-03 4.957860e-03 5.747296e-03 5.030790e-03 5.486239e-03 5.080152e-03 5.205017e-03 5.060091e-03 4.860634e-03 4.872722e-03 4.329276e-03 4.296022e-03 3.311071e-03 2.815194e-03 9.688519e-04 -1.159212e-03 -3.129207e-03 6.289107e-04 -3.754910e-03 -3.199130e-03 -1.663923e-03 -5.773178e-03 -2.397051e-03 -3.473008e-03 -5.945055e-03 6.572592e-06 -2.707434e-03 2.157877e-03 1.187163e-02 1.365436e-02 1.345103e-02 1.033088e-02 8.833545e-03 6.109942e-03 6.131699e-03 4.456567e-03 5.218572e-03 3.893772e-03 4.902567e-03 3.753226e-03 4.750189e-03 3.796415e-03 4.602893e-03 3.935323e-03 4.412863e-03 4.133153e-03 4.177317e-03 4.364622e-03 3.913339e-03 4.602861e-03 3.648781e-03 4.817557e-03 3.417083e-03 4.976614e-03 3.252866e-03 5.049206e-03 3.188051e-03 5.009570e-03 3.247696e-03 4.840505e-03 3.444640e-03 4.536472e-03 3.775345e-03 4.107831e-03 4.218736e-03 3.585423e-03 4.737034e-03 3.022543e-03 5.276883e-03 2.493148e-03 5.772412e-03 2.089155e-03 6.153215e-03 1.921712e-03 6.359160e-03 2.132056e-03 6.356746e-03 2.922511e-03 6.140416e-03 4.638166e-03 5.648487e-03 8.000326e-03 8.565108e-04 4.785553e-03 2.379354e-03 5.692845e-03 4.177515e-03 
1.981987e-03 6.713541e-04 4.594856e-04 -1.257212e-03 -2.793596e-03 -1.593432e-03 7.457122e-03 -2.196011e-03 4.975643e-03 -1.697464e-03 2.239790e-03 -1.491348e-03 -1.063601e-03 -6.950748e-06 2.439962e-03 3.250606e-03 2.763526e-03 4.227995e-03 1.881656e-03 3.497343e-03 -7.539598e-04 -1.858915e-04 -1.055163e-03 7.940541e-04 -1.152240e-04 1.441620e-03 2.891455e-04 1.801987e-03 4.316337e-04 2.006130e-03 4.534037e-04 2.103927e-03 4.359358e-04 2.117631e-03 4.261918e-04 2.062549e-03 4.507908e-04 1.954915e-03 5.211690e-04 1.811766e-03 6.347148e-04 1.646589e-03 7.747893e-04 1.465907e-03 9.119546e-04 1.263971e-03 9.996789e-04 1.007180e-03 9.494682e-04 5.871789e-04 5.532129e-04 -2.937461e-04 -6.932106e-04 -2.381917e-03 -4.038350e-03 -7.715084e-03 -1.273246e-02 -1.707670e-02 -9.472872e-03 -1.194115e-02 -1.071904e-02 -6.266723e-03 -1.022072e-02 -5.011825e-03 -4.016218e-03 -6.748455e-03 1.497812e-03 -1.859125e-03 1.014491e-03 7.366965e-03 7.927797e-03 1.182490e-02 1.021012e-02 7.214903e-03 3.926698e-03 2.989852e-03 1.061109e-03 1.329082e-03 -7.733401e-05 6.718203e-04 -4.814039e-04 3.747022e-04 -5.491325e-04 1.760074e-04 -4.457732e-04 -2.298576e-05 -2.486515e-04 -2.545900e-04 -7.173107e-06 -5.176723e-04 2.408377e-04 -7.875566e-04 4.642609e-04 -1.026303e-03 6.350629e-04 -1.194335e-03 7.233460e-04 -1.260666e-03 6.994222e-04 -1.202613e-03 5.431640e-04 -1.007120e-03 2.483352e-04 -6.748073e-04 -1.732986e-04 -2.222599e-04 -6.894988e-04 3.163414e-04 -1.246785e-03 8.896172e-04 -1.772456e-03 1.432498e-03 -2.176072e-03 1.875831e-03 -2.349669e-03 2.158154e-03 -2.163438e-03 2.232947e-03 -1.443661e-03 2.026990e-03 9.582112e-05 1.179600e-03 3.273787e-03 -6.371882e-03 -2.715139e-04 -1.830497e-03 1.626235e-03 5.144116e-04 
9.094473e-03 7.486883e-03 4.986096e-03 8.364527e-05 -8.138099e-03 -1.401303e-02 -4.843161e-03 -1.097518e-02 -3.679259e-03 -6.455254e-03 -3.996008e-04 1.286302e-03 8.753235e-03 1.427643e-02 1.769152e-02 1.997673e-02 1.996939e-02 2.102603e-02 1.882937e-02 1.745879e-02 1.429466e-02 6.736541e-03 1.734010e-03 -2.494349e-03 -4.757156e-03 -6.377150e-03 -7.695220e-03 -7.944687e-03 -9.148417e-03 -8.529739e-03 -9.928013e-03 -8.720048e-03 -1.037657e-02 -8.786609e-03 -1.063656e-02 -8.842930e-03 -1.075915e-02 -8.920592e-03 -1.075812e-02 -9.011894e-03 -1.063983e-02 -9.096940e-03 -1.041407e-02 -9.147153e-03 -1.007870e-02 -9.107334e-03 -9.586268e-03 -8.861622e-03 -8.798562e-03 -8.192852e-03 -7.431010e-03 -6.709945e-03 -4.930744e-03 -3.688383e-03 -2.173310e-04 2.458697e-03 9.299589e-03 1.153841e-02 6.834680e-03 1.175382e-02 1.260222e-02 7.121644e-03 1.523902e-02 6.706521e-03 8.103474e-03 1.021729e-02 -2.448672e-03 7.684801e-04 -9.935635e-03 -2.721874e-02 -3.235735e-02 -3.360011e-02 -2.964188e-02 -2.395862e-02 -2.027873e-02 -1.683752e-02 -1.584472e-02 -1.350812e-02 -1.377799e-02 -1.191409e-02 -1.276912e-02 -1.120231e-02 -1.222268e-02 -1.095544e-02 -1.184625e-02 -1.096232e-02 -1.151611e-02 -1.112357e-02 -1.120258e-02 -1.138446e-02 -1.090916e-02 -1.169257e-02 -1.064559e-02 -1.198956e-02 -1.042481e-02 -1.222186e-02 -1.027371e-02 -1.235637e-02 -1.022953e-02 -1.237170e-02 -1.031940e-02 -1.225317e-02 -1.055511e-02 -1.199778e-02 -1.092912e-02 -1.161747e-02 -1.141507e-02 -1.114452e-02 -1.197018e-02 -1.063346e-02 -1.254140e-02 -1.016181e-02 -1.307096e-02 -9.822961e-03 -1.350574e-02 -9.725164e-03 -1.381318e-02 -9.990916e-03 -1.398836e-02 -1.078789e-02 -1.402181e-02 -1.244844e-02 -1.341783e-02 -1.587981e-02 -2.653385e-03 2.132160e-03 7.223234e-03 8.025747e-03 
9.516125e-03 8.367037e-03 6.222000e-03 4.920118e-04 -6.178642e-03 -2.090075e-02 -2.602986e-02 -1.983240e-02 -2.446790e-02 -1.989487e-02 -2.317752e-02 -2.026275e-02 -2.181758e-02 -2.248343e-02 -2.524336e-02 -2.577952e-02 -2.557792e-02 -2.681489e-02 -2.461933e-02 -2.616526e-02 -2.182302e-02 -2.257259e-02 -2.002710e-02 -2.251064e-02 -2.036040e-02 -2.257916e-02 -2.080398e-02 -2.251640e-02 -2.121950e-02 -2.235410e-02 -2.156656e-02 -2.214013e-02 -2.183937e-02 -2.191502e-02 -2.203615e-02 -2.169916e-02 -2.214971e-02 -2.149437e-02 -2.216743e-02 -2.128827e-02 -2.207354e-02 -2.105809e-02 -2.184729e-02 -2.076705e-02 -2.145128e-02 -2.035042e-02 -2.081071e-02 -1.968933e-02 -1.977831e-02 -1.856942e-02 -1.807409e-02 -1.659700e-02 -1.515873e-02 -1.300294e-02 -9.915159e-03 -5.938402e-03 4.823067e-04 5.309914e-03 -2.306782e-03 -2.717324e-03 -3.232532e-03 -1.083904e-02 -7.251868e-03 -1.406577e-02 -1.690234e-02 -1.520264e-02 -2.352781e-02 -2.179564e-02 -2.298897e-02 -2.663702e-02 -2.651716e-02 -3.138009e-02 -3.224785e-02 -3.022549e-02 -2.854114e-02 -2.680409e-02 -2.601171e-02 -2.480816e-02 -2.461048e-02 -2.366465e-02 -2.382600e-02 -2.301424e-02 -2.337161e-02 -2.264998e-02 -2.308283e-02 -2.245619e-02 -2.287440e-02 -2.237233e-02 -2.270786e-02 -2.236648e-02 -2.256265e-02 -2.241714e-02 -2.242431e-02 -2.250518e-02 -2.228380e-02 -2.261375e-02 -2.214135e-02 -2.273191e-02 -2.200438e-02 -2.285138e-02 -2.188055e-02 -2.296361e-02 -2.177678e-02 -2.306085e-02 -2.169855e-02 -2.313626e-02 -2.165086e-02 -2.318551e-02 -2.164013e-02 -2.320715e-02 -2.167713e-02 -2.320490e-02 -2.178024e-02 -2.318722e-02 -2.198075e-02 -2.316916e-02 -2.233619e-02 -2.316023e-02 -2.296460e-02 -2.310293e-02 -2.416019e-02 -2.258118e-02 -2.714845e-02 -1.180951e-02 -4.806365e-03 3.977289e-03 6.616591e-03 9.289514e-03 
3.571872e-02 3.668186e-02 3.823945e-02 3.996283e-02 4.539114e-02 4.326186e-02 2.880149e-02 3.888744e-02 2.800440e-02 3.483814e-02 2.668777e-02 2.979867e-02 2.232055e-02 2.517958e-02 2.497062e-02 2.531756e-02 2.568218e-02 2.534192e-02 2.563444e-02 2.533288e-02 2.478929e-02 2.455153e-02 2.826244e-02 2.894203e-02 3.147143e-02 3.119204e-02 3.304129e-02 3.225185e-02 3.383697e-02 3.274034e-02 3.422426e-02 3.296506e-02 3.438354e-02 3.308404e-02 3.439879e-02 3.316090e-02 3.429622e-02 3.319933e-02 3.407113e-02 3.316937e-02 3.370682e-02 3.302612e-02 3.317871e-02 3.270518e-02 3.243066e-02 3.209311e-02 3.132631e-02 3.097337e-02 2.957579e-02 2.894683e-02 2.662359e-02 2.527865e-02 2.140148e-02 1.855779e-02 1.172638e-02 5.490745e-03 -7.853214e-03 -1.444860e-02 -3.075715e-03 -3.567876e-03 -3.529206e-03 9.040129e-03 1.620440e-03 1.397116e-02 1.810840e-02 1.484301e-02 3.230477e-02 2.898612e-02 3.565239e-02 4.957775e-02 5.178683e-02 5.982834e-02 5.864780e-02 5.312968e-02 4.837410e-02 4.453272e-02 4.238692e-02 4.002196e-02 3.924888e-02 3.763860e-02 3.754526e-02 3.640712e-02 3.656110e-02 3.580745e-02 3.591788e-02 3.555986e-02 3.543574e-02 3.552371e-02 3.504835e-02 3.561993e-02 3.473540e-02 3.578173e-02 3.449034e-02 3.594355e-02 3.431325e-02 3.605001e-02 3.421986e-02 3.606960e-02 3.423785e-02 3.598411e-02 3.438677e-02 3.578236e-02 3.467258e-02 3.546408e-02 3.508395e-02 3.504343e-02 3.559322e-02 3.455511e-02 3.615894e-02 3.405810e-02 3.673201e-02 3.363827e-02 3.726151e-02 3.340584e-02 3.770501e-02 3.350148e-02 3.804211e-02 3.411090e-02 3.825889e-02 3.553120e-02 3.820904e-02 3.842140e-02 3.652451e-02 4.976930e-02 3.927315e-02 3.965904e-02 3.568830e-02 3.663564e-02 
4.153429e-02 4.302465e-02 4.483794e-02 4.986793e-02 5.667058e-02 6.674669e-02 6.163312e-02 6.305636e-02 5.919732e-02 5.990382e-02 5.626401e-02 5.565168e-02 5.011269e-02 4.993158e-02 5.004156e-02 4.996664e-02 5.006924e-02 5.000510e-02 5.002035e-02 5.005591e-02 4.989219e-02 5.012201e-02 5.349406e-02 5.562951e-02 5.726745e-02 5.867627e-02 5.951486e-02 6.020762e-02 6.084751e-02 6.089841e-02 6.162547e-02 6.116044e-02 6.207239e-02 6.123168e-02 6.230973e-02 6.122962e-02 6.239154e-02 6.119615e-02 6.233510e-02 6.113162e-02 6.214438e-02 6.101958e-02 6.182112e-02 6.083371e-02 6.135712e-02 6.052926e-02 6.071630e-02 6.002632e-02 5.981470e-02 5.919728e-02 5.850453e-02 5.784017e-02 5.651877e-02 5.556426e-02 5.323375e-02 5.111108e-02 4.634726e-02 4.360435e-02 4.875597e-02 4.997843e-02 4.836331e-02 5.494637e-02 5.089080e-02 5.459591e-02 5.678747e-02 5.310457e-02 5.716543e-02 5.517527e-02 5.310574e-02 5.296818e-02 4.996204e-02 5.030292e-02 5.369525e-02 5.801861e-02 6.068700e-02 6.160634e-02 6.273782e-02 6.248174e-02 6.330841e-02 6.262978e-02 6.341819e-02 6.263003e-02 6.337286e-02 6.265062e-02 6.325179e-02 6.272747e-02 6.308200e-02 6.286596e-02 6.288920e-02 6.305952e-02 6.269374e-02 6.328531e-02 6.250778e-02 6.350810e-02 6.234120e-02 6.369236e-02 6.221327e-02 6.381555e-02 6.215126e-02 6.386278e-02 6.217610e-02 6.382284e-02 6.229862e-02 6.369160e-02 6.251702e-02 6.347470e-02 6.281792e-02 6.319242e-02 6.317910e-02 6.288223e-02 6.357474e-02 6.260147e-02 6.398063e-02 6.242512e-02 6.438258e-02 6.244889e-02 6.479193e-02 6.278901e-02 6.526861e-02 6.359170e-02 6.599190e-02 6.505972e-02 6.765765e-02 6.444415e-02 5.343019e-02 4.808004e-02 4.363328e-02 4.261599e-02 
5.263023e-02 5.414579e-02 5.425940e-02 5.790282e-02 5.935608e-02 6.672883e-02 6.740325e-02 6.797638e-02 6.757932e-02 6.817118e-02 6.762941e-02 6.816536e-02 6.756433e-02 6.742553e-02 6.750247e-02 6.745590e-02 6.754706e-02 6.749059e-02 6.750308e-02 6.753335e-02 6.737253e-02 6.758914e-02 6.731490e-02 6.777686e-02 6.733216e-02 6.783328e-02 6.752159e-02 6.782864e-02 6.774730e-02 6.776639e-02 6.795010e-02 6.767333e-02 6.810492e-02 6.757329e-02 6.819772e-02 6.747810e-02 6.821757e-02 6.738721e-02 6.815560e-02 6.729158e-02 6.800718e-02 6.717936e-02 6.777457e-02 6.704170e-02 6.747027e-02 6.688126e-02 6.712803e-02 6.673206e-02 6.683428e-02 6.670885e-02 6.680572e-02 6.711656e-02 6.756241e-02 6.868545e-02 7.034414e-02 7.331636e-02 7.874240e-02 8.458956e-02 7.972024e-02 7.872661e-02 7.947342e-02 7.576559e-02 7.633543e-02 7.619088e-02 7.125965e-02 7.509537e-02 7.172484e-02 7.094774e-02 7.417644e-02 7.313920e-02 7.344944e-02 7.072145e-02 6.919289e-02 7.035494e-02 7.148899e-02 7.169597e-02 7.192768e-02 7.138489e-02 7.143298e-02 7.069844e-02 7.079285e-02 7.008812e-02 7.023035e-02 6.966221e-02 6.977692e-02 6.941417e-02 6.941274e-02 6.930768e-02 6.911532e-02 6.930333e-02 6.886899e-02 6.936349e-02 6.866499e-02 6.945309e-02 6.850136e-02 6.954168e-02 6.838294e-02 6.960599e-02 6.831851e-02 6.962958e-02 6.831553e-02 6.960202e-02 6.837682e-02 6.951952e-02 6.849841e-02 6.938559e-02 6.866884e-02 6.921176e-02 6.886956e-02 6.901686e-02 6.907578e-02 6.882484e-02 6.925668e-02 6.865924e-02 6.937466e-02 6.853510e-02 6.938474e-02 6.844500e-02 6.924577e-02 6.833856e-02 6.900237e-02 6.806629e-02 6.934040e-02 6.385869e-02 5.938240e-02 5.673769e-02 5.413908e-02 5.381259e-02 
5.218303e-02 5.328164e-02 5.369467e-02 5.624312e-02 5.751479e-02 6.109457e-02 6.215217e-02 6.432089e-02 6.550622e-02 6.703976e-02 6.988313e-02 7.145657e-02 7.797560e-02 7.791592e-02 7.796819e-02 7.792042e-02 7.795370e-02 7.793803e-02 7.793342e-02 7.796349e-02 7.791468e-02 7.798385e-02 7.280941e-02 7.142965e-02 6.842501e-02 6.779712e-02 6.621375e-02 6.583344e-02 6.514988e-02 6.476372e-02 6.469011e-02 6.417478e-02 6.452378e-02 6.384848e-02 6.448100e-02 6.367225e-02 6.447214e-02 6.358680e-02 6.445278e-02 6.355928e-02 6.440524e-02 6.357103e-02 6.432907e-02 6.361313e-02 6.423677e-02 6.368666e-02 6.415435e-02 6.380838e-02 6.412950e-02 6.402608e-02 6.425492e-02 6.445473e-02 6.472729e-02 6.537408e-02 6.605425e-02 6.772760e-02 7.003674e-02 7.269038e-02 6.988611e-02 7.195850e-02 7.372929e-02 7.128942e-02 7.444276e-02 7.390815e-02 7.206631e-02 7.635323e-02 7.311757e-02 7.430515e-02 7.466822e-02 7.118793e-02 7.203179e-02 7.401339e-02 7.311855e-02 6.966576e-02 6.834372e-02 6.678691e-02 6.663102e-02 6.564964e-02 6.589372e-02 6.511988e-02 6.551795e-02 6.487369e-02 6.528606e-02 6.478656e-02 6.510925e-02 6.480087e-02 6.495040e-02 6.488307e-02 6.479723e-02 6.500829e-02 6.464988e-02 6.515366e-02 6.451473e-02 6.529658e-02 6.440178e-02 6.541599e-02 6.432343e-02 6.549450e-02 6.429216e-02 6.551924e-02 6.431703e-02 6.548243e-02 6.440108e-02 6.538229e-02 6.453927e-02 6.522328e-02 6.471714e-02 6.501560e-02 6.491016e-02 6.477291e-02 6.508319e-02 6.450773e-02 6.518908e-02 6.422294e-02 6.516537e-02 6.389900e-02 6.492825e-02 6.347526e-02 6.436187e-02 6.282121e-02 6.329509e-02 6.167937e-02 6.143885e-02 5.907694e-02 5.686708e-02 5.511474e-02 5.334109e-02 5.292337e-02 
5.704005e-02 5.825522e-02 5.817578e-02 6.066657e-02 6.129816e-02 6.451756e-02 6.554644e-02 6.745794e-02 6.888981e-02 7.020739e-02 7.316678e-02 7.467260e-02 8.147810e-02 8.142218e-02 8.147154e-02 8.142917e-02 8.146243e-02 8.144983e-02 8.143809e-02 8.147739e-02 8.140803e-02 8.149864e-02 7.648269e-02 7.511241e-02 7.224568e-02 7.163880e-02 7.009489e-02 6.977762e-02 6.905226e-02 6.878979e-02 6.860880e-02 6.827337e-02 6.846495e-02 6.801261e-02 6.845581e-02 6.789841e-02 6.849746e-02 6.787918e-02 6.855380e-02 6.793384e-02 6.861793e-02 6.805933e-02 6.870403e-02 6.826830e-02 6.884774e-02 6.859497e-02 6.911456e-02 6.910945e-02 6.961804e-02 6.994344e-02 7.055340e-02 7.133629e-02 7.225672e-02 7.371680e-02 7.534196e-02 7.803607e-02 8.101549e-02 8.233272e-02 7.716720e-02 7.940580e-02 7.773745e-02 7.446742e-02 7.770079e-02 7.248878e-02 7.318479e-02 7.453572e-02 6.736906e-02 7.183625e-02 6.762466e-02 6.299660e-02 6.325804e-02 6.076816e-02 6.177531e-02 6.291322e-02 6.438454e-02 6.525128e-02 6.642085e-02 6.681135e-02 6.765920e-02 6.771407e-02 6.832375e-02 6.821523e-02 6.863794e-02 6.850764e-02 6.875142e-02 6.870508e-02 6.875226e-02 6.886512e-02 6.869152e-02 6.901167e-02 6.860093e-02 6.914987e-02 6.850279e-02 6.927479e-02 6.841469e-02 6.937677e-02 6.835111e-02 6.944497e-02 6.832337e-02 6.947004e-02 6.833874e-02 6.944618e-02 6.839944e-02 6.937226e-02 6.850115e-02 6.925171e-02 6.863155e-02 6.909103e-02 6.876905e-02 6.889694e-02 6.888174e-02 6.867133e-02 6.892582e-02 6.840300e-02 6.884285e-02 6.805519e-02 6.855578e-02 6.754776e-02 6.796137e-02 6.672728e-02 6.689861e-02 6.530236e-02 6.501885e-02 6.268115e-02 6.111570e-02 5.959896e-02 5.810640e-02 5.791293e-02 
5.218311e-02 5.328231e-02 5.369507e-02 5.624310e-02 5.751553e-02 6.109368e-02 6.215242e-02 6.432013e-02 6.550612e-02 6.703926e-02 6.988290e-02 7.145640e-02 7.797564e-02 7.791625e-02 7.796829e-02 7.792071e-02 7.795405e-02 7.793822e-02 7.793398e-02 7.796361e-02 7.791517e-02 7.798375e-02 7.281998e-02 7.143886e-02 6.844420e-02 6.781846e-02 6.624209e-02 6.587263e-02 6.519182e-02 6.482892e-02 6.475334e-02 6.427454e-02 6.461682e-02 6.399037e-02 6.461380e-02 6.386620e-02 6.466062e-02 6.385065e-02 6.472300e-02 6.392129e-02 6.479274e-02 6.406735e-02 6.487449e-02 6.428361e-02 6.498277e-02 6.457351e-02 6.514595e-02 6.495687e-02 6.541390e-02 6.548054e-02 6.587135e-02 6.623929e-02 6.666870e-02 6.741926e-02 6.809742e-02 6.948883e-02 7.089947e-02 7.183507e-02 6.873897e-02 6.911635e-02 6.767930e-02 6.633170e-02 6.715741e-02 6.494105e-02 6.509543e-02 6.539676e-02 6.249783e-02 6.446404e-02 6.288303e-02 6.234805e-02 6.296580e-02 6.091724e-02 6.113500e-02 6.145306e-02 6.244065e-02 6.247399e-02 6.338800e-02 6.318342e-02 6.402056e-02 6.367544e-02 6.441235e-02 6.402584e-02 6.462881e-02 6.429700e-02 6.472080e-02 6.452871e-02 6.472458e-02 6.474094e-02 6.466778e-02 6.494025e-02 6.457489e-02 6.512490e-02 6.446953e-02 6.528780e-02 6.437413e-02 6.541805e-02 6.430779e-02 6.550242e-02 6.428464e-02 6.552870e-02 6.431393e-02 6.548972e-02 6.439971e-02 6.538555e-02 6.453897e-02 6.522298e-02 6.471876e-02 6.501325e-02 6.491436e-02 6.476952e-02 6.508931e-02 6.450337e-02 6.519562e-02 6.421774e-02 6.517109e-02 6.389358e-02 6.493255e-02 6.347067e-02 6.436482e-02 6.281840e-02 6.329678e-02 6.167845e-02 6.143920e-02 5.907795e-02 5.686718e-02 5.511640e-02 5.334107e-02 5.292466e-02 
5.262955e-02 5.414782e-02 5.425953e-02 5.790365e-02 5.935719e-02 6.672700e-02 6.740385e-02 6.797610e-02 6.757894e-02 6.817164e-02 6.762829e-02 6.816626e-02 6.756338e-02 6.742652e-02 6.750196e-02 6.745658e-02 6.754767e-02 6.749047e-02 6.750489e-02 6.753314e-02 6.737384e-02 6.758957e-02 6.734347e-02 6.780913e-02 6.738869e-02 6.790332e-02 6.761029e-02 6.794966e-02 6.788115e-02 6.795891e-02 6.815052e-02 6.796187e-02 6.839816e-02 6.798451e-02 6.861701e-02 6.804818e-02 6.881320e-02 6.817374e-02 6.900455e-02 6.838021e-02 6.921374e-02 6.868058e-02 6.946274e-02 6.908235e-02 6.977407e-02 6.959388e-02 7.017535e-02 7.022912e-02 7.069793e-02 7.100189e-02 7.136324e-02 7.190765e-02 7.215595e-02 7.288663e-02 7.296518e-02 7.374689e-02 7.349522e-02 7.398017e-02 7.277269e-02 7.303266e-02 7.193372e-02 7.143012e-02 7.075402e-02 6.987599e-02 6.891922e-02 6.859051e-02 6.683535e-02 6.691775e-02 6.542055e-02 6.479604e-02 6.417284e-02 6.350120e-02 6.379270e-02 6.378281e-02 6.455444e-02 6.468090e-02 6.562185e-02 6.568713e-02 6.661345e-02 6.656307e-02 6.737909e-02 6.725479e-02 6.790623e-02 6.778873e-02 6.823180e-02 6.820788e-02 6.840137e-02 6.854743e-02 6.845702e-02 6.883061e-02 6.843708e-02 6.907051e-02 6.837682e-02 6.927192e-02 6.830776e-02 6.943234e-02 6.825502e-02 6.954299e-02 6.823599e-02 6.959355e-02 6.826245e-02 6.957829e-02 6.834184e-02 6.949940e-02 6.847591e-02 6.936644e-02 6.865723e-02 6.919402e-02 6.886782e-02 6.900083e-02 6.908104e-02 6.880959e-02 6.926501e-02 6.864440e-02 6.938293e-02 6.852135e-02 6.939121e-02 6.843382e-02 6.925027e-02 6.833116e-02 6.900487e-02 6.806195e-02 6.934011e-02 6.386220e-02 5.938182e-02 5.674181e-02 5.413803e-02 5.381567e-02 
4.153362e-02 4.302682e-02 4.483893e-02 4.986807e-02 5.667499e-02 6.674174e-02 6.163309e-02 6.305480e-02 5.919608e-02 5.990292e-02 5.626182e-02 5.565149e-02 5.011160e-02 4.993283e-02 5.004125e-02 4.996772e-02 5.007040e-02 5.000569e-02 5.002297e-02 5.005684e-02 4.989417e-02 5.012435e-02 5.353380e-02 5.564862e-02 5.732475e-02 5.872124e-02 5.958308e-02 6.029568e-02 6.094311e-02 6.106328e-02 6.178228e-02 6.143378e-02 6.231496e-02 6.162422e-02 6.265156e-02 6.175141e-02 6.286754e-02 6.189492e-02 6.303228e-02 6.211099e-02 6.319831e-02 6.242045e-02 6.338803e-02 6.281241e-02 6.360670e-02 6.327132e-02 6.387027e-02 6.380323e-02 6.421539e-02 6.442784e-02 6.467227e-02 6.514445e-02 6.523039e-02 6.590177e-02 6.580637e-02 6.655982e-02 6.619049e-02 6.679938e-02 6.588394e-02 6.619593e-02 6.527432e-02 6.523423e-02 6.450239e-02 6.427932e-02 6.350637e-02 6.343774e-02 6.248440e-02 6.251131e-02 6.183772e-02 6.158102e-02 6.145507e-02 6.086572e-02 6.115894e-02 6.069290e-02 6.140157e-02 6.092483e-02 6.186430e-02 6.129872e-02 6.231383e-02 6.166762e-02 6.264747e-02 6.199424e-02 6.284899e-02 6.229024e-02 6.293251e-02 6.257073e-02 6.291454e-02 6.283910e-02 6.281265e-02 6.309327e-02 6.265392e-02 6.333079e-02 6.247421e-02 6.354774e-02 6.231363e-02 6.373400e-02 6.220277e-02 6.386451e-02 6.215656e-02 6.391017e-02 6.218532e-02 6.385456e-02 6.230112e-02 6.370155e-02 6.251432e-02 6.346996e-02 6.282006e-02 6.318394e-02 6.319319e-02 6.287473e-02 6.359727e-02 6.259121e-02 6.400307e-02 6.241031e-02 6.440003e-02 6.243119e-02 6.480228e-02 6.277329e-02 6.527472e-02 6.358366e-02 6.599438e-02 6.505825e-02 6.765316e-02 6.445124e-02 5.342921e-02 4.808889e-02 4.363222e-02 4.262069e-02 
3.571572e-02 3.668635e-02 3.823867e-02 3.996734e-02 4.539361e-02 4.326608e-02 2.879614e-02 3.889337e-02 2.799943e-02 3.484381e-02 2.668380e-02 2.980357e-02 2.231872e-02 2.518267e-02 2.496868e-02 2.532025e-02 2.568325e-02 2.533976e-02 2.564153e-02 2.533105e-02 2.479028e-02 2.457858e-02 2.829602e-02 2.899113e-02 3.152753e-02 3.127267e-02 3.311394e-02 3.238442e-02 3.394953e-02 3.296794e-02 3.442228e-02 3.332800e-02 3.469914e-02 3.359517e-02 3.484876e-02 3.383305e-02 3.492590e-02 3.409815e-02 3.499703e-02 3.444089e-02 3.511701e-02 3.487894e-02 3.530650e-02 3.539599e-02 3.556644e-02 3.597400e-02 3.591298e-02 3.662579e-02 3.638892e-02 3.738208e-02 3.702504e-02 3.824319e-02 3.779302e-02 3.913930e-02 3.857331e-02 3.990447e-02 3.914587e-02 4.027956e-02 3.920571e-02 3.999057e-02 3.890867e-02 3.917795e-02 3.817465e-02 3.811957e-02 3.697551e-02 3.685792e-02 3.554890e-02 3.524344e-02 3.418402e-02 3.351016e-02 3.302498e-02 3.242083e-02 3.262015e-02 3.217724e-02 3.284748e-02 3.242281e-02 3.332264e-02 3.284762e-02 3.380350e-02 3.329679e-02 3.418268e-02 3.372460e-02 3.443676e-02 3.413174e-02 3.457268e-02 3.452103e-02 3.460136e-02 3.488378e-02 3.453878e-02 3.520917e-02 3.441660e-02 3.549019e-02 3.427959e-02 3.572137e-02 3.417859e-02 3.589160e-02 3.415182e-02 3.597154e-02 3.421637e-02 3.592722e-02 3.438284e-02 3.574202e-02 3.466319e-02 3.542654e-02 3.506572e-02 3.501216e-02 3.557666e-02 3.453872e-02 3.615273e-02 3.405706e-02 3.673215e-02 3.364250e-02 3.725857e-02 3.340839e-02 3.769501e-02 3.350102e-02 3.802431e-02 3.411175e-02 3.823820e-02 3.554045e-02 3.818667e-02 3.843793e-02 3.649836e-02 4.977974e-02 3.926304e-02 3.967047e-02 3.568309e-02 3.664210e-02 
9.510602e-03 8.369594e-03 6.217313e-03 4.955092e-04 -6.184398e-03 -2.089274e-02 -2.603429e-02 -1.983105e-02 -2.446826e-02 -1.989932e-02 -2.317244e-02 -2.027620e-02 -2.180602e-02 -2.250795e-02 -2.522296e-02 -2.581201e-02 -2.555708e-02 -2.684279e-02 -2.461151e-02 -2.617679e-02 -2.182561e-02 -2.257662e-02 -2.006418e-02 -2.252268e-02 -2.041968e-02 -2.260867e-02 -2.088069e-02 -2.257505e-02 -2.132283e-02 -2.246272e-02 -2.171676e-02 -2.232155e-02 -2.205593e-02 -2.218568e-02 -2.233768e-02 -2.207939e-02 -2.257040e-02 -2.202711e-02 -2.277411e-02 -2.205057e-02 -2.296862e-02 -2.215834e-02 -2.316351e-02 -2.234487e-02 -2.336144e-02 -2.260058e-02 -2.356835e-02 -2.292085e-02 -2.379457e-02 -2.329743e-02 -2.403713e-02 -2.369698e-02 -2.425970e-02 -2.404562e-02 -2.438573e-02 -2.423214e-02 -2.432411e-02 -2.416212e-02 -2.409033e-02 -2.386381e-02 -2.357567e-02 -2.341440e-02 -2.296030e-02 -2.281879e-02 -2.241202e-02 -2.219605e-02 -2.197900e-02 -2.180801e-02 -2.171865e-02 -2.170942e-02 -2.169779e-02 -2.146078e-02 -2.152200e-02 -2.121821e-02 -2.145381e-02 -2.114842e-02 -2.155143e-02 -2.122347e-02 -2.173237e-02 -2.136637e-02 -2.192262e-02 -2.153077e-02 -2.208344e-02 -2.169837e-02 -2.219826e-02 -2.186276e-02 -2.226029e-02 -2.202070e-02 -2.226909e-02 -2.217222e-02 -2.223183e-02 -2.232014e-02 -2.216111e-02 -2.246774e-02 -2.207239e-02 -2.261564e-02 -2.197744e-02 -2.275710e-02 -2.188172e-02 -2.288229e-02 -2.179017e-02 -2.298509e-02 -2.171093e-02 -2.306537e-02 -2.165492e-02 -2.312540e-02 -2.163063e-02 -2.316457e-02 -2.164276e-02 -2.317994e-02 -2.169716e-02 -2.317193e-02 -2.181001e-02 -2.315032e-02 -2.201448e-02 -2.313119e-02 -2.236989e-02 -2.312448e-02 -2.299740e-02 -2.307219e-02 -2.419075e-02 -2.255502e-02 -2.717262e-02 -1.180298e-02 -4.820445e-03 3.979766e-03 6.608104e-03 9.291901e-03 
9.090099e-03 7.487473e-03 4.981352e-03 8.466959e-05 -8.145346e-03 -1.400901e-02 -4.841906e-03 -1.097599e-02 -3.674851e-03 -6.458689e-03 -3.910856e-04 1.279998e-03 8.766257e-03 1.426830e-02 1.771165e-02 1.996715e-02 1.997988e-02 2.104050e-02 1.880426e-02 1.750542e-02 1.424073e-02 6.762411e-03 1.680374e-03 -2.474373e-03 -4.800952e-03 -6.363602e-03 -7.719111e-03 -7.947546e-03 -9.167073e-03 -8.578936e-03 -9.972838e-03 -8.838156e-03 -1.045821e-02 -8.960803e-03 -1.074017e-02 -9.048803e-03 -1.088516e-02 -9.170182e-03 -1.096040e-02 -9.375072e-03 -1.101921e-02 -9.675100e-03 -1.108169e-02 -1.004664e-02 -1.115262e-02 -1.046911e-02 -1.126246e-02 -1.096616e-02 -1.148784e-02 -1.160385e-02 -1.192405e-02 -1.245464e-02 -1.264621e-02 -1.356163e-02 -1.366019e-02 -1.487506e-02 -1.479750e-02 -1.609560e-02 -1.536505e-02 -1.653965e-02 -1.603850e-02 -1.629191e-02 -1.616251e-02 -1.590883e-02 -1.518940e-02 -1.514775e-02 -1.345217e-02 -1.294532e-02 -1.139166e-02 -9.625625e-03 -9.100485e-03 -8.043869e-03 -8.829193e-03 -8.185795e-03 -9.592117e-03 -8.830827e-03 -1.040314e-02 -9.416364e-03 -1.098514e-02 -9.852427e-03 -1.131908e-02 -1.019071e-02 -1.145747e-02 -1.049819e-02 -1.145112e-02 -1.081153e-02 -1.133186e-02 -1.113444e-02 -1.112438e-02 -1.145657e-02 -1.086406e-02 -1.176498e-02 -1.059784e-02 -1.204521e-02 -1.037881e-02 -1.227637e-02 -1.024760e-02 -1.241973e-02 -1.022348e-02 -1.243347e-02 -1.031879e-02 -1.229532e-02 -1.054658e-02 -1.201234e-02 -1.091518e-02 -1.161356e-02 -1.140920e-02 -1.113613e-02 -1.198181e-02 -1.062618e-02 -1.256581e-02 -1.015010e-02 -1.309714e-02 -9.804103e-03 -1.352778e-02 -9.701117e-03 -1.382838e-02 -9.968037e-03 -1.400000e-02 -1.077415e-02 -1.402925e-02 -1.244294e-02 -1.341608e-02 -1.588076e-02 -2.659625e-03 2.127538e-03 7.217669e-03 8.024841e-03 
1.979980e-03 6.713469e-04 4.573324e-04 -1.257793e-03 -2.796510e-03 -1.595015e-03 7.458970e-03 -2.197977e-03 4.977524e-03 -1.699370e-03 2.241057e-03 -1.491089e-03 -1.065579e-03 -3.507843e-06 2.429810e-03 3.260171e-03 2.746830e-03 4.237402e-03 1.861215e-03 3.499611e-03 -7.908788e-04 -1.841012e-04 -1.088064e-03 7.873827e-04 -1.433650e-04 1.427870e-03 2.644910e-04 1.774854e-03 4.011254e-04 1.951110e-03 4.014623e-04 2.008960e-03 3.541574e-04 1.983064e-03 3.142859e-04 1.891271e-03 3.002245e-04 1.732803e-03 2.999409e-04 1.498650e-03 2.895292e-04 1.186190e-03 2.460570e-04 7.978914e-04 1.401547e-04 3.210317e-04 -8.475275e-05 -2.970573e-04 -5.273373e-04 -1.157320e-03 -1.322318e-03 -2.396158e-03 -2.610754e-03 -4.134138e-03 -4.429804e-03 -6.306963e-03 -6.476948e-03 -8.305524e-03 -6.972261e-03 -8.032179e-03 -7.096236e-03 -6.586807e-03 -6.137725e-03 -5.133300e-03 -3.702252e-03 -3.450404e-03 -8.334805e-04 -2.982433e-04 1.621157e-03 3.589045e-03 4.295210e-03 5.611431e-03 4.874740e-03 5.093221e-03 3.618051e-03 3.865349e-03 2.303634e-03 2.783773e-03 1.306416e-03 1.961226e-03 6.568102e-04 1.341261e-03 2.902120e-04 8.426723e-04 1.352605e-04 4.088905e-04 1.345634e-04 1.329570e-05 2.400060e-04 -3.502136e-04 4.039620e-04 -6.750735e-04 5.776525e-04 -9.462540e-04 7.131211e-04 -1.141923e-03 7.709215e-04 -1.232555e-03 7.248020e-04 -1.189851e-03 5.579094e-04 -9.989772e-04 2.615828e-04 -6.652019e-04 -1.600554e-04 -2.122432e-04 -6.801403e-04 3.232638e-04 -1.244384e-03 8.928349e-04 -1.775008e-03 1.435292e-03 -2.179333e-03 1.880346e-03 -2.351430e-03 2.164281e-03 -2.162748e-03 2.238270e-03 -1.441616e-03 2.027912e-03 9.969923e-05 1.175562e-03 3.281162e-03 -6.371160e-03 -2.725794e-04 -1.831879e-03 1.624153e-03 5.142113e-04 
