# vtk DataFile Version 2.0
Comment goes here
ASCII

DATASET STRUCTURED_POINTS
FIELD FieldData 1
TIME 1 1 double
0.96000000
DIMENSIONS    128   16   1

ORIGIN    0.000   0.000   0.000
SPACING   0.0078125 0.015625   1.000

POINT_DATA   2048
SCALARS fMag double
LOOKUP_TABLE default

0 0 0 0 0 0 0 0 0 0 0 0 0 0 0 0 0 0 0 0 0 0 0 0 0 0 0 0 0 0 0 0 0 0 0 0 0 0 0 0 0 0 0 0 0 0 0 0 0 0 0 0 0 0 0 0 0 0 0 0 0 0 0 0 0 0 0 0 0 0 0 0 0 0 0 0 0 0 0 0 0 0 0 0 0 0 0 0 0 0 0 0 0 0 0 0 0 0 0 0 0 0 0 0 0 0 0 0 0 0 0 0 0 0 0 0 0 0 0 0 0 0 0 0 0 0 0 0 
0 0 0 0 0 0 0 0 0 0 0 0 0 0 0 0 0 0 0 0 0 0 0 0 0 0 0 0 0 0 0 0 0 0 0 0 0 0 0 0 0 0 0 0 0 0 0 0 0 0 0 0 0 0 0 0 0 0 0 0 0 0 0 0 0 0 0 0 0 0 0 0 0 0 0 0 0 0 0 0 0 0 0 0 0 0 0 0 0 0 0 0 0 0 0 0 0 0 0 0 0 0 0 0 0 0 0 0 0 0 0 0 0 0 0 0 0 0 0 0 0 0 0 0 0 0 0 0 
0 0 0 0 0 1.719032e+00 3.124470e+00 1.545665e+00 2.582687e+00 2.021720e+00 3.153967e+00 2.432941e+00 3.576053e+00 4.987589e+00 7.288562e+00 9.535795e+00 1.349868e+01 1.787998e+01 2.204270e+01 2.569567e+01 3.224328e+01 3.256237e+01 3.194716e+01 3.209298e+01 3.148288e+01 3.156219e+01 3.098650e+01 3.099927e+01 3.047070e+01 3.040823e+01 2.993081e+01 2.978985e+01 2.937811e+01 2.917770e+01 2.883849e+01 2.858326e+01 2.829988e+01 2.799658e+01 2.775374e+01 2.741117e+01 2.718960e+01 2.682751e+01 2.662829e+01 2.627303e+01 2.608170e+01 2.572945e+01 2.552359e+01 2.517886e+01 2.495944e+01 2.463874e+01 2.442414e+01 2.415624e+01 2.397463e+01 2.377724e+01 2.364176e+01 2.352657e+01 2.357929e+01 2.533037e+01 2.632669e+01 2.546181e+01 2.586008e+01 2.708584e+01 2.718612e+01 2.760823e+01 2.794267e+01 2.802832e+01 2.805802e+01 2.792340e+01 2.765610e+01 2.724071e+01 2.684222e+01 2.471203e+01 2.016235e+01 1.649476e+01 1.581417e+01 1.557301e+01 1.524551e+01 1.499850e+01 1.466477e+01 1.438798e+01 1.406278e+01 1.375490e+01 1.346165e+01 1.313018e+01 1.289217e+01 1.253379e+01 1.233829e+01 1.193291e+01 1.176620e+01 1.132460e+01 1.118234e+01 1.072002e+01 1.058410e+01 1.012345e+01 9.974407e+00 9.538524e+00 9.349760e+00 8.967774e+00 8.724470e+00 8.423793e+00 8.100455e+00 7.887308e+00 7.465297e+00 7.344706e+00 6.818005e+00 6.780933e+00 6.163692e+00 6.209033e+00 5.540733e+00 5.641874e+00 4.946406e+00 5.052197e+00 4.370696e+00 4.436541e+00 3.817811e+00 3.793588e+00 3.290224e+00 3.136740e+00 2.795495e+00 2.476052e+00 2.289502e+00 1.992177e+00 3.065420e+00 3.337107e-01 0 0 0 0 
0 0 0 0 0 5.054297e+00 9.177265e+00 4.527639e+00 7.588304e+00 5.944226e+00 9.274153e+00 7.152269e+00 1.051393e+01 1.467089e+01 2.144208e+01 2.805299e+01 3.971092e+01 5.260281e+01 6.485110e+01 7.560191e+01 9.487338e+01 9.581243e+01 9.400145e+01 9.443053e+01 9.263448e+01 9.286771e+01 9.117300e+01 9.121047e+01 8.965464e+01 8.947073e+01 8.806552e+01 8.765063e+01 8.643882e+01 8.584897e+01 8.485062e+01 8.409939e+01 8.326538e+01 8.237267e+01 8.165795e+01 8.064966e+01 7.999754e+01 7.893181e+01 7.834546e+01 7.729986e+01 7.673677e+01 7.570005e+01 7.509419e+01 7.407965e+01 7.343389e+01 7.249007e+01 7.185851e+01 7.107011e+01 7.053562e+01 6.995475e+01 6.955604e+01 6.921704e+01 6.925809e+01 7.248003e+01 7.347968e+01 7.200334e+01 7.230380e+01 7.311832e+01 7.222430e+01 7.202688e+01 7.138338e+01 7.044406e+01 6.921252e+01 6.775875e+01 6.595133e+01 6.363530e+01 6.170561e+01 6.137958e+01 5.646131e+01 4.852310e+01 4.652237e+01 4.581276e+01 4.484913e+01 4.412237e+01 4.314044e+01 4.232604e+01 4.136925e+01 4.046338e+01 3.960059e+01 3.862532e+01 3.792505e+01 3.687061e+01 3.629542e+01 3.510276e+01 3.461227e+01 3.331307e+01 3.289455e+01 3.153448e+01 3.113464e+01 2.977950e+01 2.934110e+01 2.805887e+01 2.750360e+01 2.637994e+01 2.566418e+01 2.477966e+01 2.382840e+01 2.320132e+01 2.195973e+01 2.160489e+01 2.005533e+01 1.994620e+01 1.813040e+01 1.826380e+01 1.629800e+01 1.659571e+01 1.455024e+01 1.486181e+01 1.285764e+01 1.305181e+01 1.123241e+01 1.116161e+01 9.681520e+00 9.230442e+00 8.227271e+00 7.288529e+00 6.740696e+00 5.864136e+00 9.017530e+00 9.816174e-01 0 0 0 0 
0 0 0 0 0 3.490482e+00 6.333281e+00 3.118567e+00 5.237883e+00 4.105046e+00 6.405117e+00 4.938818e+00 7.260701e+00 4.964021e+01 6.873798e+01 5.533121e+01 6.512208e+01 6.618389e+01 7.122991e+01 8.297871e+01 8.362581e+01 6.620293e+01 6.495124e+01 6.524773e+01 6.400629e+01 6.416738e+01 6.299602e+01 6.302187e+01 6.194656e+01 6.181945e+01 6.084829e+01 6.056156e+01 5.972409e+01 5.931645e+01 5.862651e+01 5.810733e+01 5.753096e+01 5.691400e+01 5.642006e+01 5.572322e+01 5.527255e+01 5.453603e+01 5.413080e+01 5.340821e+01 5.301906e+01 5.230261e+01 5.188392e+01 5.118281e+01 5.073655e+01 5.008432e+01 4.964787e+01 4.910305e+01 4.873370e+01 4.833229e+01 4.805677e+01 4.782251e+01 4.771791e+01 4.511789e+01 4.030901e+01 4.048976e+01 3.912482e+01 3.548908e+01 3.390708e+01 3.202459e+01 2.982619e+01 2.833514e+01 2.672039e+01 2.542556e+01 2.396325e+01 2.330932e+01 2.261560e+01 2.845228e+01 3.386127e+01 3.351078e+01 3.214058e+01 3.165026e+01 3.098444e+01 3.048229e+01 2.980384e+01 2.924114e+01 2.858006e+01 2.795417e+01 2.735805e+01 2.668420e+01 2.620037e+01 2.547182e+01 2.507442e+01 2.425039e+01 2.391151e+01 2.301389e+01 2.272475e+01 2.178510e+01 2.150888e+01 2.057268e+01 2.026983e+01 1.938401e+01 1.900041e+01 1.822415e+01 1.772965e+01 1.711859e+01 1.646136e+01 1.602812e+01 1.517029e+01 1.492511e+01 1.385453e+01 1.377909e+01 1.252463e+01 1.261680e+01 1.125880e+01 1.146456e+01 1.005165e+01 1.026707e+01 8.882805e+00 9.017175e+00 7.760592e+00 7.711908e+00 6.689713e+00 6.378295e+00 5.685584e+00 5.037528e+00 4.659516e+00 4.053019e+00 6.229698e+00 6.781157e-01 0 0 0 0 
0 0 0 0 0 1.552162e-01 2.804867e-01 1.365935e-01 2.322660e-01 1.825404e-01 2.849311e-01 2.194902e-01 3.228250e-01 5.473962e+01 5.976108e+01 5.617289e+01 5.787392e+01 5.775848e+01 5.609099e+01 5.928457e+01 5.484127e+01 2.952872e+00 2.896948e+00 2.910176e+00 2.854693e+00 2.861862e+00 2.809521e+00 2.810661e+00 2.762627e+00 2.756947e+00 2.713577e+00 2.700775e+00 2.663381e+00 2.645180e+00 2.614376e+00 2.591193e+00 2.565459e+00 2.537908e+00 2.515854e+00 2.484736e+00 2.464613e+00 2.431726e+00 2.413632e+00 2.381369e+00 2.363995e+00 2.332010e+00 2.313318e+00 2.282020e+00 2.262100e+00 2.232987e+00 2.213505e+00 2.189188e+00 2.172702e+00 2.154787e+00 2.142490e+00 2.132035e+00 2.036530e+00 3.875022e+00 1.092836e+01 9.506859e+00 1.069828e+01 1.420474e+01 1.388926e+01 1.512203e+01 1.589231e+01 1.562105e+01 1.569280e+01 1.507531e+01 1.451218e+01 1.292441e+01 1.197215e+01 1.024669e+01 3.515607e+00 1.480671e+00 1.432384e+00 1.410513e+00 1.380819e+00 1.358425e+00 1.328171e+00 1.303077e+00 1.273600e+00 1.245689e+00 1.219109e+00 1.189060e+00 1.167487e+00 1.135002e+00 1.117282e+00 1.080542e+00 1.065435e+00 1.025420e+00 1.012533e+00 9.706516e-01 9.583446e-01 9.166241e-01 9.031329e-01 8.636630e-01 8.465721e-01 8.119846e-01 7.899465e-01 7.627166e-01 7.334185e-01 7.141059e-01 6.758619e-01 6.649243e-01 6.172004e-01 6.138294e-01 5.579241e-01 5.620332e-01 5.015391e-01 5.107302e-01 4.478198e-01 4.574632e-01 3.958565e-01 4.019020e-01 3.459970e-01 3.438846e-01 2.984170e-01 2.845929e-01 2.538084e-01 2.250502e-01 2.083220e-01 1.810605e-01 2.775887e-01 3.020902e-02 0 0 0 0 
0 0 0 0 0 0 0 0 0 0 0 0 0 5.985529e+01 6.517680e+01 6.127100e+01 6.283927e+01 6.322177e+01 6.071412e+01 6.515012e+01 5.953338e+01 0 0 0 0 0 0 0 0 0 0 0 0 0 0 0 0 0 0 0 0 0 0 0 0 0 0 0 0 0 0 0 0 0 0 0 3.498141e-03 2.128454e+00 3.758281e+00 2.077317e+00 2.481515e+00 2.836837e+00 1.583334e+00 1.829222e+00 1.248158e+00 5.007610e-01 3.598298e-01 5.343218e-01 1.282052e+00 1.064056e+00 2.012178e+00 2.939937e+00 1.213771e+00 1.877828e-03 0 0 0 0 0 0 0 0 0 0 0 0 0 0 0 0 0 0 0 0 0 0 0 0 0 0 0 0 0 0 0 0 0 0 0 0 0 0 0 0 0 0 0 0 0 0 0 0 0 0 0 0 0 0 
0 0 0 0 0 0 0 0 0 0 0 0 0 5.883393e+01 6.083526e+01 5.912540e+01 5.986719e+01 5.982861e+01 5.909563e+01 6.069804e+01 5.880158e+01 0 0 0 0 0 0 0 0 0 0 0 0 0 0 0 0 0 0 0 0 0 0 0 0 0 0 0 0 0 0 0 0 0 0 0 8.704593e-04 3.033651e-01 5.711602e-02 1.035875e+00 7.971438e-01 5.437389e-01 7.371970e-01 4.317251e-01 3.533242e-01 2.732168e-01 6.340436e-02 1.822089e-01 1.538448e-01 7.780683e-01 1.155736e+00 3.846703e-01 6.675656e-02 6.797802e-05 0 0 0 0 0 0 0 0 0 0 0 0 0 0 0 0 0 0 0 0 0 0 0 0 0 0 0 0 0 0 0 0 0 0 0 0 0 0 0 0 0 0 0 0 0 0 0 0 0 0 0 0 0 0 
0 0 0 0 0 0 0 0 0 0 0 0 0 6.243666e+01 6.509190e+01 6.300948e+01 6.380752e+01 6.409391e+01 6.264187e+01 6.525123e+01 6.207905e+01 0 0 0 0 0 0 0 0 0 0 0 0 0 0 0 0 0 0 0 0 0 0 0 0 0 0 0 0 0 0 0 0 0 0 0 0 0 0 0 0 0 0 0 0 0 0 0 0 0 0 0 0 0 0 0 0 0 0 0 0 0 0 0 0 0 0 0 0 0 0 0 0 0 0 0 0 0 0 0 0 0 0 0 0 0 0 0 0 0 0 0 0 0 0 0 0 0 0 0 0 0 0 0 0 0 0 0 
0 0 0 0 0 0 0 0 0 0 0 0 0 5.883379e+01 6.083453e+01 5.912502e+01 5.986716e+01 5.982800e+01 5.909645e+01 6.069733e+01 5.880325e+01 0 0 0 0 0 0 0 0 0 0 0 0 0 0 0 0 0 0 0 0 0 0 0 0 0 0 0 0 0 0 0 0 0 0 0 0 0 0 0 0 0 0 0 0 0 0 0 0 0 0 0 0 0 0 0 0 0 0 0 0 0 0 0 0 0 0 0 0 0 0 0 0 0 0 0 0 0 0 0 0 0 0 0 0 0 0 0 0 0 0 0 0 0 0 0 0 0 0 0 0 0 0 0 0 0 0 0 
0 0 0 0 0 0 0 0 0 0 0 0 0 5.985612e+01 6.517326e+01 6.126927e+01 6.283778e+01 6.321760e+01 6.071527e+01 6.514501e+01 5.953691e+01 0 0 0 0 0 0 0 0 0 0 0 0 0 0 0 0 0 0 0 0 0 0 0 0 0 0 0 0 0 0 0 0 0 0 0 0 0 0 0 0 0 0 0 0 0 0 0 0 0 0 0 0 0 0 0 0 0 0 0 0 0 0 0 0 0 0 0 0 0 0 0 0 0 0 0 0 0 0 0 0 0 0 0 0 0 0 0 0 0 0 0 0 0 0 0 0 0 0 0 0 0 0 0 0 0 0 0 
0 0 0 0 0 1.552463e-01 2.806681e-01 1.368079e-01 2.325734e-01 1.828885e-01 2.851860e-01 2.196650e-01 3.226856e-01 5.474073e+01 5.975729e+01 5.617142e+01 5.787291e+01 5.775588e+01 5.609335e+01 5.928488e+01 5.485181e+01 2.952702e+00 2.897290e+00 2.911372e+00 2.855562e+00 2.862589e+00 2.808949e+00 2.809578e+00 2.760110e+00 2.754978e+00 2.711878e+00 2.701395e+00 2.664651e+00 2.647801e+00 2.616390e+00 2.593312e+00 2.566300e+00 2.537471e+00 2.513934e+00 2.481395e+00 2.461298e+00 2.426601e+00 2.408062e+00 2.371777e+00 2.353895e+00 2.317934e+00 2.300292e+00 2.265314e+00 2.246403e+00 2.211752e+00 2.189247e+00 2.153298e+00 2.125954e+00 2.089803e+00 2.060004e+00 2.026389e+00 1.996130e+00 1.965907e+00 1.935026e+00 1.906513e+00 1.872160e+00 1.841273e+00 1.802456e+00 1.771089e+00 1.731286e+00 1.703218e+00 1.665573e+00 1.642371e+00 1.607418e+00 1.587049e+00 1.552175e+00 1.531454e+00 1.495920e+00 1.474192e+00 1.438860e+00 1.416625e+00 1.383948e+00 1.361328e+00 1.331849e+00 1.306524e+00 1.279425e+00 1.250339e+00 1.226822e+00 1.194248e+00 1.174666e+00 1.138503e+00 1.122791e+00 1.083333e+00 1.069962e+00 1.027013e+00 1.014626e+00 9.708107e-01 9.595632e-01 9.178945e-01 9.060345e-01 8.679988e-01 8.521039e-01 8.178176e-01 7.939886e-01 7.647902e-01 7.327494e-01 7.122894e-01 6.729157e-01 6.626620e-01 6.161293e-01 6.153713e-01 5.613331e-01 5.663137e-01 5.049137e-01 5.127703e-01 4.485209e-01 4.574745e-01 3.953623e-01 4.016121e-01 3.461772e-01 3.450758e-01 2.999082e-01 2.862037e-01 2.549075e-01 2.261452e-01 2.090750e-01 1.815401e-01 2.776959e-01 3.017239e-02 0 0 0 0 
0 0 0 0 0 3.491158e+00 6.337355e+00 3.123398e+00 5.244797e+00 4.112863e+00 6.410843e+00 4.942740e+00 7.257551e+00 4.965492e+01 6.873260e+01 5.532800e+01 6.511725e+01 6.617323e+01 7.123454e+01 8.297171e+01 8.363960e+01 6.619908e+01 6.495883e+01 6.527449e+01 6.402573e+01 6.418364e+01 6.298323e+01 6.299761e+01 6.189019e+01 6.177534e+01 6.081022e+01 6.057542e+01 5.975248e+01 5.937508e+01 5.867153e+01 5.815471e+01 5.754971e+01 5.690412e+01 5.637697e+01 5.564831e+01 5.519823e+01 5.442121e+01 5.400601e+01 5.319332e+01 5.279281e+01 5.198732e+01 5.159212e+01 5.080853e+01 5.038489e+01 4.960855e+01 4.910434e+01 4.829886e+01 4.768621e+01 4.687612e+01 4.620843e+01 4.545514e+01 4.477713e+01 4.409982e+01 4.340782e+01 4.276882e+01 4.199898e+01 4.130673e+01 4.043679e+01 3.973376e+01 3.884164e+01 3.821250e+01 3.736868e+01 3.684858e+01 3.606505e+01 3.560842e+01 3.482655e+01 3.436199e+01 3.356525e+01 3.307806e+01 3.228580e+01 3.178722e+01 3.105441e+01 3.054719e+01 2.988607e+01 2.931819e+01 2.871045e+01 2.805823e+01 2.753084e+01 2.680040e+01 2.636126e+01 2.555029e+01 2.519794e+01 2.431297e+01 2.401304e+01 2.304961e+01 2.277169e+01 2.178863e+01 2.153615e+01 2.060109e+01 2.033481e+01 1.948115e+01 1.912438e+01 1.835486e+01 1.782020e+01 1.716496e+01 1.644623e+01 1.598725e+01 1.510409e+01 1.487427e+01 1.383044e+01 1.381367e+01 1.260113e+01 1.271287e+01 1.133457e+01 1.151039e+01 1.006744e+01 1.026739e+01 8.871782e+00 9.010742e+00 7.764719e+00 7.738715e+00 6.723249e+00 6.414500e+00 5.710271e+00 5.062074e+00 4.676294e+00 4.063706e+00 6.232101e+00 6.772958e-01 0 0 0 0 
0 0 0 0 0 5.055277e+00 9.183164e+00 4.534636e+00 7.598315e+00 5.955542e+00 9.282442e+00 7.157946e+00 1.050936e+01 1.467146e+01 2.143875e+01 2.804330e+01 3.971270e+01 5.259543e+01 6.484572e+01 7.558243e+01 9.484632e+01 9.580684e+01 9.401242e+01 9.446924e+01 9.266261e+01 9.289123e+01 9.115449e+01 9.117538e+01 8.957308e+01 8.940692e+01 8.801044e+01 8.767067e+01 8.647989e+01 8.593380e+01 8.491576e+01 8.416792e+01 8.329249e+01 8.235835e+01 8.159557e+01 8.054123e+01 7.988999e+01 7.876565e+01 7.816487e+01 7.698892e+01 7.640938e+01 7.524381e+01 7.467194e+01 7.353806e+01 7.292502e+01 7.180160e+01 7.107196e+01 6.990635e+01 6.901979e+01 6.784750e+01 6.688128e+01 6.579118e+01 6.481001e+01 6.382985e+01 6.282843e+01 6.190371e+01 6.078964e+01 5.978784e+01 5.852890e+01 5.751149e+01 5.622043e+01 5.530995e+01 5.408877e+01 5.333607e+01 5.220212e+01 5.154127e+01 5.040971e+01 4.973739e+01 4.858428e+01 4.787918e+01 4.673254e+01 4.601094e+01 4.495034e+01 4.421624e+01 4.325939e+01 4.243750e+01 4.155789e+01 4.061394e+01 3.985063e+01 3.879346e+01 3.815789e+01 3.698416e+01 3.647419e+01 3.519333e+01 3.475923e+01 3.336477e+01 3.296249e+01 3.153957e+01 3.117409e+01 2.982060e+01 2.943512e+01 2.819944e+01 2.768299e+01 2.656910e+01 2.579520e+01 2.484675e+01 2.380646e+01 2.314213e+01 2.186388e+01 2.153129e+01 2.002045e+01 1.999624e+01 1.824113e+01 1.840286e+01 1.640767e+01 1.666205e+01 1.457310e+01 1.486228e+01 1.284171e+01 1.304252e+01 1.123840e+01 1.120043e+01 9.730081e+00 9.282863e+00 8.263010e+00 7.324052e+00 6.764952e+00 5.879586e+00 9.021006e+00 9.804312e-01 0 0 0 0 
0 0 0 0 0 1.719365e+00 3.126476e+00 1.548046e+00 2.586092e+00 2.025567e+00 3.156785e+00 2.434871e+00 3.574499e+00 4.987778e+00 7.287430e+00 9.532503e+00 1.349929e+01 1.787748e+01 2.204088e+01 2.568906e+01 3.223409e+01 3.256047e+01 3.195088e+01 3.210612e+01 3.149244e+01 3.157018e+01 3.098021e+01 3.098734e+01 3.044300e+01 3.038655e+01 2.991209e+01 2.979665e+01 2.939206e+01 2.920652e+01 2.886061e+01 2.860653e+01 2.830908e+01 2.799170e+01 2.773254e+01 2.737432e+01 2.715305e+01 2.677105e+01 2.656692e+01 2.616737e+01 2.597046e+01 2.557443e+01 2.538012e+01 2.499484e+01 2.478653e+01 2.440480e+01 2.415687e+01 2.376079e+01 2.345953e+01 2.306118e+01 2.273285e+01 2.236242e+01 2.202901e+01 2.169593e+01 2.135564e+01 2.104140e+01 2.066282e+01 2.032238e+01 1.989457e+01 1.954882e+01 1.911008e+01 1.880066e+01 1.838566e+01 1.812986e+01 1.774450e+01 1.751991e+01 1.713534e+01 1.690685e+01 1.651495e+01 1.627531e+01 1.588560e+01 1.564035e+01 1.527988e+01 1.503038e+01 1.470516e+01 1.442583e+01 1.412687e+01 1.380605e+01 1.354661e+01 1.318731e+01 1.297130e+01 1.257237e+01 1.239905e+01 1.196370e+01 1.181615e+01 1.134217e+01 1.120543e+01 1.072175e+01 1.059750e+01 1.013740e+01 1.000635e+01 9.586289e+00 9.410719e+00 9.032056e+00 8.768991e+00 8.446581e+00 8.092982e+00 7.867175e+00 7.432704e+00 7.319679e+00 6.806142e+00 6.797940e+00 6.201332e+00 6.256307e+00 5.578020e+00 5.664431e+00 4.954184e+00 5.052365e+00 4.365286e+00 4.433391e+00 3.819860e+00 3.806795e+00 3.306740e+00 3.154566e+00 2.807647e+00 2.488124e+00 2.297733e+00 1.997420e+00 3.066601e+00 3.333077e-01 0 0 0 0 
0 0 0 0 0 0 0 0 0 0 0 0 0 0 0 0 0 0 0 0 0 0 0 0 0 0 0 0 0 0 0 0 0 0 0 0 0 0 0 0 0 0 0 0 0 0 0 0 0 0 0 0 0 0 0 0 0 0 0 0 0 0 0 0 0 0 0 0 0 0 0 0 0 0 0 0 0 0 0 0 0 0 0 0 0 0 0 0 0 0 0 0 0 0 0 0 0 0 0 0 0 0 0 0 0 0 0 0 0 0 0 0 0 0 0 0 0 0 0 0 0 0 0 0 0 0 0 0 
