# vtk DataFile Version 2.0
Comment goes here
ASCII

DATASET STRUCTURED_POINTS
FIELD FieldData 1
TIME 1 1 double
0.29000000
DIMENSIONS    128   16   1

ORIGIN    0.000   0.000   0.000
SPACING   0.0078125 0.015625   1.000

POINT_DATA   2048
SCALARS fMag double
LOOKUP_TABLE default

0 0 0 0 0 0 0 0 0 0 0 0 0 0 0 0 0 0 0 0 0 0 0 0 0 0 0 0 0 0 0 0 0 0 0 0 0 0 0 0 0 0 0 0 0 0 0 0 0 0 0 0 0 0 0 0 0 0 0 0 0 0 0 0 0 0 0 0 0 0 0 0 0 0 0 0 0 0 0 0 0 0 0 0 0 0 0 0 0 0 0 0 0 0 0 0 0 0 0 0 0 0 0 0 0 0 0 0 0 0 0 0 0 0 0 0 0 0 0 0 0 0 0 0 0 0 0 0 
0 0 0 0 0 0 0 0 0 0 0 0 0 0 0 0 0 0 0 0 0 0 0 0 0 0 0 0 0 0 0 0 0 0 0 0 0 0 0 0 0 0 0 0 0 0 0 0 0 0 0 0 0 0 0 0 0 0 0 0 0 0 0 0 0 0 0 0 0 0 0 0 0 0 0 0 0 0 0 0 0 0 0 0 0 0 0 0 0 0 0 0 0 0 0 0 0 0 0 0 0 0 0 0 0 0 0 0 0 0 0 0 0 0 0 0 0 0 0 0 0 0 0 0 0 0 0 0 
0 0 0 0 0 1.101437e+00 2.439497e+00 1.882354e+00 2.037582e+00 1.815121e+00 2.501005e+00 2.079932e+00 3.045576e+00 4.140684e+00 5.825839e+00 7.092495e+00 1.114653e+01 1.435558e+01 1.776818e+01 2.134079e+01 2.529037e+01 2.574120e+01 2.531954e+01 2.566763e+01 2.555464e+01 2.567217e+01 2.529179e+01 2.486914e+01 2.429930e+01 2.383654e+01 2.361170e+01 2.344500e+01 2.360004e+01 2.359675e+01 2.372823e+01 2.343468e+01 2.312839e+01 2.234123e+01 2.170738e+01 2.106496e+01 2.090354e+01 2.085871e+01 2.107123e+01 2.121683e+01 2.120882e+01 2.092013e+01 2.036774e+01 1.971494e+01 1.896694e+01 1.851125e+01 1.827654e+01 1.845649e+01 1.869813e+01 1.901444e+01 1.898432e+01 1.868987e+01 1.798155e+01 1.703208e+01 1.709900e+01 1.707399e+01 1.676274e+01 1.705046e+01 1.722856e+01 1.758977e+01 1.809093e+01 1.820864e+01 1.815643e+01 1.773138e+01 1.699720e+01 1.619788e+01 1.547841e+01 1.408891e+01 1.282637e+01 1.282851e+01 1.315888e+01 1.348244e+01 1.340626e+01 1.317690e+01 1.254813e+01 1.203935e+01 1.139398e+01 1.108926e+01 1.065727e+01 1.050036e+01 1.022645e+01 1.027354e+01 1.030289e+01 1.046051e+01 1.038846e+01 1.001702e+01 9.433171e+00 8.720992e+00 8.360723e+00 8.034259e+00 8.237002e+00 8.154245e+00 8.315945e+00 7.806980e+00 7.583601e+00 6.745397e+00 6.376031e+00 5.592718e+00 5.365238e+00 4.866796e+00 4.943325e+00 4.960316e+00 5.243857e+00 5.378729e+00 5.301989e+00 5.187781e+00 4.636706e+00 4.405098e+00 3.588162e+00 3.449264e+00 2.672718e+00 2.881819e+00 2.331303e+00 2.715533e+00 2.100701e+00 2.280631e+00 1.640371e+00 2.075066e+00 1.699235e+00 5.818196e-01 0 0 0 0 
0 0 0 0 0 3.240110e+00 7.173274e+00 5.534154e+00 5.994320e+00 5.341064e+00 7.359160e+00 6.121821e+00 8.961703e+00 1.217904e+01 1.713217e+01 2.085747e+01 3.278002e+01 4.221584e+01 5.224977e+01 6.275268e+01 7.436314e+01 7.568849e+01 7.444903e+01 7.547221e+01 7.514005e+01 7.548549e+01 7.436731e+01 7.312493e+01 7.144981e+01 7.008950e+01 6.942858e+01 6.893856e+01 6.939438e+01 6.938472e+01 6.977123e+01 6.890836e+01 6.800797e+01 6.569397e+01 6.383063e+01 6.194205e+01 6.146750e+01 6.133569e+01 6.196046e+01 6.238849e+01 6.236493e+01 6.151623e+01 5.989232e+01 5.797316e+01 5.577414e+01 5.443442e+01 5.374441e+01 5.427347e+01 5.498387e+01 5.591381e+01 5.582528e+01 5.495960e+01 5.312395e+01 5.144658e+01 5.099827e+01 4.994892e+01 4.930477e+01 4.954688e+01 4.978548e+01 5.045338e+01 5.126794e+01 5.126054e+01 5.060089e+01 4.881225e+01 4.632252e+01 4.324028e+01 4.120163e+01 3.945215e+01 3.755463e+01 3.772624e+01 3.869764e+01 3.964903e+01 3.942505e+01 3.875064e+01 3.690181e+01 3.540582e+01 3.350813e+01 3.261209e+01 3.134179e+01 3.088036e+01 3.007488e+01 3.021331e+01 3.029958e+01 3.076305e+01 3.055118e+01 2.945896e+01 2.774207e+01 2.564790e+01 2.458850e+01 2.362851e+01 2.422477e+01 2.398143e+01 2.445693e+01 2.296019e+01 2.230324e+01 1.983814e+01 1.875181e+01 1.644799e+01 1.577885e+01 1.431275e+01 1.453766e+01 1.458752e+01 1.542127e+01 1.581794e+01 1.559232e+01 1.525654e+01 1.363612e+01 1.295514e+01 1.055283e+01 1.014449e+01 7.860741e+00 8.475668e+00 6.856141e+00 7.984946e+00 6.173034e+00 6.690911e+00 4.769292e+00 6.046080e+00 4.977267e+00 1.711738e+00 0 0 0 0 
0 0 0 0 0 2.238416e+00 4.954163e+00 3.821704e+00 4.141317e+00 3.690580e+00 5.084978e+00 4.230815e+00 6.192365e+00 3.938520e+01 4.918658e+01 4.444152e+01 5.627373e+01 5.243891e+01 6.109851e+01 6.480947e+01 6.451049e+01 5.227226e+01 5.141645e+01 5.212292e+01 5.189356e+01 5.213206e+01 5.135996e+01 5.050211e+01 4.934543e+01 4.840616e+01 4.794980e+01 4.761145e+01 4.792622e+01 4.791956e+01 4.818646e+01 4.759066e+01 4.696893e+01 4.537109e+01 4.408442e+01 4.278030e+01 4.245261e+01 4.236159e+01 4.279300e+01 4.308857e+01 4.307230e+01 4.248624e+01 4.136488e+01 4.003962e+01 3.852110e+01 3.759595e+01 3.711946e+01 3.748481e+01 3.797539e+01 3.861757e+01 3.855643e+01 3.795863e+01 3.678652e+01 3.551271e+01 3.287666e+01 3.145861e+01 3.139056e+01 3.057834e+01 3.088276e+01 3.098351e+01 3.114856e+01 3.112770e+01 3.057456e+01 2.907463e+01 2.747653e+01 2.524903e+01 2.368075e+01 2.476966e+01 2.566564e+01 2.605743e+01 2.672829e+01 2.738535e+01 2.723067e+01 2.676491e+01 2.548806e+01 2.445488e+01 2.314426e+01 2.252542e+01 2.164806e+01 2.132937e+01 2.077304e+01 2.086863e+01 2.092820e+01 2.124829e+01 2.110195e+01 2.034762e+01 1.916182e+01 1.771548e+01 1.698379e+01 1.632078e+01 1.673262e+01 1.656456e+01 1.689298e+01 1.585920e+01 1.540542e+01 1.370274e+01 1.295236e+01 1.136100e+01 1.089876e+01 9.885990e+00 1.004126e+01 1.007565e+01 1.065147e+01 1.092546e+01 1.076966e+01 1.053778e+01 9.418649e+00 8.948366e+00 7.289159e+00 7.007184e+00 5.429774e+00 5.854502e+00 4.735627e+00 5.514735e+00 4.261407e+00 4.613644e+00 3.267614e+00 4.148795e+00 3.428170e+00 1.182641e+00 0 0 0 0 
0 0 0 0 0 9.974354e-02 2.203860e-01 1.699039e-01 1.845789e-01 1.646369e-01 2.268233e-01 1.889262e-01 2.762390e-01 4.448655e+01 4.851760e+01 4.554078e+01 4.777386e+01 4.698658e+01 4.623109e+01 4.849772e+01 4.414014e+01 2.324981e+00 2.286963e+00 2.318346e+00 2.308153e+00 2.318743e+00 2.284436e+00 2.246324e+00 2.194928e+00 2.153198e+00 2.132922e+00 2.117891e+00 2.131882e+00 2.131590e+00 2.143453e+00 2.116982e+00 2.089356e+00 2.018354e+00 1.961175e+00 1.903215e+00 1.888651e+00 1.884604e+00 1.903775e+00 1.916911e+00 1.916188e+00 1.890140e+00 1.840303e+00 1.781395e+00 1.713899e+00 1.672774e+00 1.651593e+00 1.667836e+00 1.689644e+00 1.718192e+00 1.715475e+00 1.688900e+00 1.598969e+00 5.636186e-01 1.813506e+00 1.660095e+00 1.765400e+00 2.604554e+00 2.168231e+00 2.736096e+00 2.625204e+00 2.710561e+00 2.632491e+00 2.608576e+00 2.636238e+00 2.178255e+00 2.646085e+00 1.396376e+00 8.340873e-01 1.159699e+00 1.189536e+00 1.218762e+00 1.211883e+00 1.191167e+00 1.134375e+00 1.088418e+00 1.030116e+00 1.002585e+00 9.635501e-01 9.493690e-01 9.246128e-01 9.288617e-01 9.315093e-01 9.457455e-01 9.392339e-01 9.056774e-01 8.529157e-01 7.885713e-01 7.560170e-01 7.265201e-01 7.448523e-01 7.373769e-01 7.519904e-01 7.059848e-01 6.857843e-01 6.099938e-01 5.765862e-01 5.057318e-01 4.851403e-01 4.400324e-01 4.469242e-01 4.484417e-01 4.740580e-01 4.862558e-01 4.793299e-01 4.690204e-01 4.192355e-01 3.983222e-01 3.244955e-01 3.119626e-01 2.417506e-01 2.606533e-01 2.107882e-01 2.453219e-01 1.890737e-01 2.033639e-01 1.386928e-01 1.777846e-01 1.501383e-01 5.272218e-02 0 0 0 0 
0 0 0 0 0 0 0 0 0 0 0 0 0 4.840735e+01 5.240684e+01 4.957103e+01 5.146126e+01 5.112278e+01 4.976941e+01 5.275049e+01 4.777668e+01 0 0 0 0 0 0 0 0 0 0 0 0 0 0 0 0 0 0 0 0 0 0 0 0 0 0 0 0 0 0 0 0 0 0 0 9.026516e-03 3.343947e-01 5.546119e-01 7.679073e-02 4.523478e-01 3.856518e-01 1.680106e-01 5.929796e-01 2.281680e-01 4.857406e-01 4.913448e-01 2.672687e-01 5.844635e-01 2.253449e-01 3.676305e-01 6.031539e-01 1.019798e-01 0 0 0 0 0 0 0 0 0 0 0 0 0 0 0 0 0 0 0 0 0 0 0 0 0 0 0 0 0 0 0 0 0 0 0 0 0 0 0 0 0 0 0 0 0 0 0 0 0 0 0 0 0 0 0 
0 0 0 0 0 0 0 0 0 0 0 0 0 4.827958e+01 5.012845e+01 4.849959e+01 4.937236e+01 4.909552e+01 4.869494e+01 4.985568e+01 4.833289e+01 0 0 0 0 0 0 0 0 0 0 0 0 0 0 0 0 0 0 0 0 0 0 0 0 0 0 0 0 0 0 0 0 0 0 0 3.762018e-02 2.019483e-01 2.383907e-01 1.712910e-01 1.514516e-01 2.898347e-01 3.199390e-01 2.503168e-01 3.628941e-01 2.901068e-01 2.629769e-01 3.319178e-01 1.945142e-01 1.575505e-01 2.039650e-01 8.405994e-02 5.272606e-03 0 0 0 0 0 0 0 0 0 0 0 0 0 0 0 0 0 0 0 0 0 0 0 0 0 0 0 0 0 0 0 0 0 0 0 0 0 0 0 0 0 0 0 0 0 0 0 0 0 0 0 0 0 0 0 
0 0 0 0 0 0 0 0 0 0 0 0 0 5.075936e+01 5.298764e+01 5.119032e+01 5.209771e+01 5.206417e+01 5.115147e+01 5.302770e+01 5.051907e+01 0 0 0 0 0 0 0 0 0 0 0 0 0 0 0 0 0 0 0 0 0 0 0 0 0 0 0 0 0 0 0 0 0 0 0 0 0 0 0 0 0 0 0 0 0 0 0 0 0 0 0 0 0 0 0 0 0 0 0 0 0 0 0 0 0 0 0 0 0 0 0 0 0 0 0 0 0 0 0 0 0 0 0 0 0 0 0 0 0 0 0 0 0 0 0 0 0 0 0 0 0 0 0 0 0 0 0 
0 0 0 0 0 0 0 0 0 0 0 0 0 4.827806e+01 5.013523e+01 4.851365e+01 4.939854e+01 4.913280e+01 4.874009e+01 4.990475e+01 4.837076e+01 0 0 0 0 0 0 0 0 0 0 0 0 0 0 0 0 0 0 0 0 0 0 0 0 0 0 0 0 0 0 0 0 0 0 0 0 0 0 0 0 0 0 0 0 0 0 0 0 0 0 0 0 0 0 0 0 0 0 0 0 0 0 0 0 0 0 0 0 0 0 0 0 0 0 0 0 0 0 0 0 0 0 0 0 0 0 0 0 0 0 0 0 0 0 0 0 0 0 0 0 0 0 0 0 0 0 0 
0 0 0 0 0 0 0 0 0 0 0 0 0 4.841759e+01 5.241011e+01 4.959919e+01 5.150360e+01 5.119756e+01 4.984096e+01 5.284599e+01 4.782267e+01 0 0 0 0 0 0 0 0 0 0 0 0 0 0 0 0 0 0 0 0 0 0 0 0 0 0 0 0 0 0 0 0 0 0 0 0 0 0 0 0 0 0 0 0 0 0 0 0 0 0 0 0 0 0 0 0 0 0 0 0 0 0 0 0 0 0 0 0 0 0 0 0 0 0 0 0 0 0 0 0 0 0 0 0 0 0 0 0 0 0 0 0 0 0 0 0 0 0 0 0 0 0 0 0 0 0 0 
0 0 0 0 0 9.915158e-02 2.247057e-01 1.789132e-01 1.811581e-01 1.638207e-01 2.208542e-01 1.902983e-01 2.676711e-01 4.442157e+01 4.850944e+01 4.554910e+01 4.785854e+01 4.713732e+01 4.646989e+01 4.879603e+01 4.439978e+01 2.390559e+00 2.345620e+00 2.337880e+00 2.277646e+00 2.254260e+00 2.215149e+00 2.194231e+00 2.163787e+00 2.133965e+00 2.115367e+00 2.096719e+00 2.104574e+00 2.098865e+00 2.108660e+00 2.089190e+00 2.083603e+00 2.048710e+00 2.023644e+00 1.970918e+00 1.928807e+00 1.879489e+00 1.853275e+00 1.835569e+00 1.832275e+00 1.832875e+00 1.830482e+00 1.829738e+00 1.816139e+00 1.801208e+00 1.765418e+00 1.726116e+00 1.665193e+00 1.615367e+00 1.572925e+00 1.560363e+00 1.558257e+00 1.564784e+00 1.558193e+00 1.540251e+00 1.520830e+00 1.499126e+00 1.478145e+00 1.441031e+00 1.400846e+00 1.347619e+00 1.311450e+00 1.287366e+00 1.286432e+00 1.285171e+00 1.285064e+00 1.275091e+00 1.254531e+00 1.229056e+00 1.196415e+00 1.173141e+00 1.143074e+00 1.132908e+00 1.116215e+00 1.117569e+00 1.088478e+00 1.060358e+00 1.003361e+00 9.700947e-01 9.368516e-01 9.339476e-01 9.152013e-01 8.877389e-01 8.432349e-01 8.030972e-01 7.827223e-01 7.710552e-01 7.854449e-01 7.735707e-01 7.747190e-01 7.332983e-01 7.196637e-01 6.629262e-01 6.498881e-01 5.964428e-01 5.915629e-01 5.524917e-01 5.650646e-01 5.449547e-01 5.473790e-01 5.094774e-01 4.794520e-01 4.483172e-01 4.256719e-01 4.237248e-01 3.888373e-01 3.738848e-01 2.962326e-01 2.773793e-01 2.028808e-01 2.205765e-01 1.750459e-01 2.234125e-01 1.860153e-01 2.135190e-01 1.545720e-01 1.835100e-01 1.522518e-01 5.242087e-02 0 0 0 0 
0 0 0 0 0 2.225130e+00 5.051284e+00 4.024523e+00 4.064653e+00 3.671971e+00 4.950572e+00 4.261501e+00 5.999523e+00 3.948876e+01 4.924088e+01 4.442088e+01 5.647163e+01 5.273847e+01 6.147160e+01 6.511919e+01 6.490104e+01 5.374848e+01 5.273682e+01 5.256264e+01 5.120690e+01 5.068056e+01 4.980039e+01 4.932962e+01 4.864452e+01 4.797328e+01 4.755470e+01 4.713494e+01 4.731163e+01 4.718307e+01 4.740341e+01 4.696518e+01 4.683941e+01 4.605416e+01 4.549009e+01 4.430368e+01 4.335613e+01 4.224653e+01 4.165672e+01 4.125838e+01 4.118429e+01 4.119779e+01 4.114393e+01 4.112718e+01 4.082119e+01 4.048525e+01 3.968002e+01 3.879587e+01 3.742535e+01 3.630456e+01 3.534989e+01 3.506732e+01 3.501996e+01 3.516676e+01 3.501851e+01 3.461495e+01 3.417817e+01 3.369001e+01 3.321815e+01 3.238346e+01 3.147974e+01 3.028280e+01 2.946947e+01 2.892794e+01 2.890696e+01 2.887860e+01 2.887622e+01 2.865196e+01 2.818966e+01 2.761686e+01 2.688292e+01 2.635964e+01 2.568363e+01 2.545505e+01 2.507978e+01 2.511024e+01 2.445628e+01 2.382415e+01 2.254300e+01 2.179524e+01 2.104813e+01 2.098295e+01 2.056168e+01 1.994443e+01 1.894429e+01 1.804210e+01 1.758417e+01 1.732188e+01 1.764513e+01 1.737815e+01 1.740388e+01 1.647293e+01 1.616654e+01 1.489165e+01 1.459882e+01 1.339824e+01 1.328891e+01 1.241155e+01 1.269454e+01 1.224321e+01 1.229812e+01 1.144705e+01 1.077250e+01 1.007316e+01 9.564186e+00 9.520095e+00 8.735760e+00 8.399401e+00 6.654284e+00 6.230365e+00 4.556741e+00 4.954349e+00 3.932923e+00 5.022682e+00 4.192691e+00 4.841794e+00 3.623547e+00 4.283910e+00 3.476689e+00 1.175891e+00 0 0 0 0 
0 0 0 0 0 3.220878e+00 7.313903e+00 5.827894e+00 5.883376e+00 5.314053e+00 7.164493e+00 6.166211e+00 8.682421e+00 1.175999e+01 1.689813e+01 2.076595e+01 3.269337e+01 4.213286e+01 5.231778e+01 6.331301e+01 7.579966e+01 7.782646e+01 7.636128e+01 7.610904e+01 7.414559e+01 7.338333e+01 7.210865e+01 7.142687e+01 7.043471e+01 6.946259e+01 6.885639e+01 6.824847e+01 6.850432e+01 6.831812e+01 6.863720e+01 6.800253e+01 6.782038e+01 6.668317e+01 6.586629e+01 6.414816e+01 6.277593e+01 6.116907e+01 6.031494e+01 5.973809e+01 5.963080e+01 5.965035e+01 5.957235e+01 5.954809e+01 5.910496e+01 5.861847e+01 5.745239e+01 5.617203e+01 5.418736e+01 5.256434e+01 5.118190e+01 5.077272e+01 5.070414e+01 5.091672e+01 5.070204e+01 5.011766e+01 4.948518e+01 4.877829e+01 4.809500e+01 4.688634e+01 4.557773e+01 4.384454e+01 4.266682e+01 4.188269e+01 4.185231e+01 4.181125e+01 4.180780e+01 4.148308e+01 4.081367e+01 3.998427e+01 3.892153e+01 3.816383e+01 3.718498e+01 3.685401e+01 3.631063e+01 3.635475e+01 3.540785e+01 3.449258e+01 3.263759e+01 3.155490e+01 3.047319e+01 3.037883e+01 2.976890e+01 2.887518e+01 2.742712e+01 2.612084e+01 2.545781e+01 2.507803e+01 2.554602e+01 2.515944e+01 2.519667e+01 2.384877e+01 2.340516e+01 2.155935e+01 2.113542e+01 1.939728e+01 1.923908e+01 1.796896e+01 1.837880e+01 1.772549e+01 1.780510e+01 1.657304e+01 1.559644e+01 1.458400e+01 1.384706e+01 1.378314e+01 1.264746e+01 1.216038e+01 9.633689e+00 9.019857e+00 6.596840e+00 7.172502e+00 5.694078e+00 7.272605e+00 6.073547e+00 7.021221e+00 5.284407e+00 6.243263e+00 5.047770e+00 1.701970e+00 0 0 0 0 
0 0 0 0 0 1.094899e+00 2.487324e+00 1.982285e+00 1.999881e+00 1.805903e+00 2.434775e+00 2.095008e+00 2.950569e+00 3.998197e+00 5.746276e+00 7.061382e+00 1.111707e+01 1.432736e+01 1.779132e+01 2.153142e+01 2.577908e+01 2.646854e+01 2.597008e+01 2.588428e+01 2.521634e+01 2.495703e+01 2.452341e+01 2.429149e+01 2.395398e+01 2.362327e+01 2.341705e+01 2.321024e+01 2.329726e+01 2.323392e+01 2.334245e+01 2.312654e+01 2.306457e+01 2.267772e+01 2.239984e+01 2.181540e+01 2.134861e+01 2.080203e+01 2.051149e+01 2.031528e+01 2.027878e+01 2.028544e+01 2.025890e+01 2.025065e+01 2.009991e+01 1.993443e+01 1.953778e+01 1.910227e+01 1.842720e+01 1.787515e+01 1.740494e+01 1.726576e+01 1.724244e+01 1.731474e+01 1.724172e+01 1.704296e+01 1.682783e+01 1.658740e+01 1.635500e+01 1.594391e+01 1.549883e+01 1.490935e+01 1.450880e+01 1.424211e+01 1.423179e+01 1.421782e+01 1.421665e+01 1.410621e+01 1.387854e+01 1.359646e+01 1.323502e+01 1.297733e+01 1.264443e+01 1.253187e+01 1.234707e+01 1.236207e+01 1.204005e+01 1.172879e+01 1.109795e+01 1.072975e+01 1.036191e+01 1.032983e+01 1.012242e+01 9.818494e+00 9.326072e+00 8.881841e+00 8.656369e+00 8.527208e+00 8.686337e+00 8.554860e+00 8.567510e+00 8.109139e+00 7.958286e+00 7.330627e+00 7.186489e+00 6.595484e+00 6.541729e+00 6.109901e+00 6.249324e+00 6.027235e+00 6.054359e+00 5.635475e+00 5.303402e+00 4.959158e+00 4.708548e+00 4.686769e+00 4.300536e+00 4.134859e+00 3.275638e+00 3.066872e+00 2.242980e+00 2.438730e+00 1.936201e+00 2.473335e+00 2.066871e+00 2.392947e+00 1.815432e+00 2.142861e+00 1.723332e+00 5.785005e-01 0 0 0 0 
0 0 0 0 0 0 0 0 0 0 0 0 0 0 0 0 0 0 0 0 0 0 0 0 0 0 0 0 0 0 0 0 0 0 0 0 0 0 0 0 0 0 0 0 0 0 0 0 0 0 0 0 0 0 0 0 0 0 0 0 0 0 0 0 0 0 0 0 0 0 0 0 0 0 0 0 0 0 0 0 0 0 0 0 0 0 0 0 0 0 0 0 0 0 0 0 0 0 0 0 0 0 0 0 0 0 0 0 0 0 0 0 0 0 0 0 0 0 0 0 0 0 0 0 0 0 0 0 
