# vtk DataFile Version 2.0
Comment goes here
ASCII

DATASET STRUCTURED_POINTS
FIELD FieldData 1
TIME 1 1 double
0.99000000
DIMENSIONS    128   16   1

ORIGIN    0.000   0.000   0.000
SPACING   0.0078125 0.015625   1.000

POINT_DATA   2048
SCALARS fX double
LOOKUP_TABLE default

0 0 0 0 0 0 0 0 0 0 0 0 0 0 0 0 0 0 0 0 0 0 0 0 0 0 0 0 0 0 0 0 0 0 0 0 0 0 0 0 0 0 0 0 0 0 0 0 0 0 0 0 0 0 0 0 0 0 0 0 0 0 0 0 0 0 0 0 0 0 0 0 0 0 0 0 0 0 0 0 0 0 0 0 0 0 0 0 0 0 0 0 0 0 0 0 0 0 0 0 0 0 0 0 0 0 0 0 0 0 0 0 0 0 0 0 0 0 0 0 0 0 0 0 0 0 0 0 
0 0 0 0 0 0 0 0 0 0 0 0 0 0 0 0 0 0 0 0 0 0 0 0 0 0 0 0 0 0 0 0 0 0 0 0 0 0 0 0 0 0 0 0 0 0 0 0 0 0 0 0 0 0 0 0 0 0 0 0 0 0 0 0 0 0 0 0 0 0 0 0 0 0 0 0 0 0 0 0 0 0 0 0 0 0 0 0 0 0 0 0 0 0 0 0 0 0 0 0 0 0 0 0 0 0 0 0 0 0 0 0 0 0 0 0 0 0 0 0 0 0 0 0 0 0 0 0 
0 0 0 0 0 9.545828e-01 -1.948591e+00 -1.560993e+00 -3.229452e-01 -8.720120e-01 -4.593109e-01 -7.980380e-01 1.082632e+00 3.753785e+00 4.877559e+00 4.051942e+00 5.136212e+00 4.402886e+00 4.680861e+00 5.057190e+00 3.549917e+00 7.315645e-01 -6.411586e-01 -6.004398e-01 -6.702031e-01 -6.239530e-01 -6.891746e-01 -6.302925e-01 -6.996554e-01 -6.303971e-01 -7.046660e-01 -6.294026e-01 -7.061076e-01 -6.292655e-01 -7.049216e-01 -6.309787e-01 -7.017000e-01 -6.340439e-01 -6.965985e-01 -6.380115e-01 -6.893661e-01 -6.420807e-01 -6.805133e-01 -6.448517e-01 -6.709208e-01 -6.460046e-01 -6.605765e-01 -6.455047e-01 -6.491151e-01 -6.423482e-01 -6.354279e-01 -6.341470e-01 -6.176767e-01 -6.155716e-01 -6.002621e-01 -5.854844e-01 -1.239820e-01 2.093753e+00 2.710585e+00 -6.356347e-01 -7.852693e-01 3.424233e-01 -7.207542e-01 -6.695169e-01 -4.760272e-01 -9.491070e-01 -7.882569e-01 -8.419158e-01 -9.292137e-01 -9.772353e-01 -1.836004e+00 -2.750084e+00 -2.497013e+00 -1.321334e+00 -6.678322e-01 -6.655858e-01 -6.701403e-01 -6.709222e-01 -6.754506e-01 -6.750483e-01 -6.787470e-01 -6.778411e-01 -6.821955e-01 -6.797858e-01 -6.860010e-01 -6.816031e-01 -6.892347e-01 -6.832024e-01 -6.925096e-01 -6.834277e-01 -6.954897e-01 -6.820776e-01 -6.991689e-01 -6.790348e-01 -7.031610e-01 -6.748169e-01 -7.079895e-01 -6.698469e-01 -7.130482e-01 -6.643491e-01 -7.181086e-01 -6.593491e-01 -7.215069e-01 -6.563857e-01 -7.221418e-01 -6.558262e-01 -7.190263e-01 -6.595383e-01 -7.107527e-01 -6.682307e-01 -6.975905e-01 -6.830626e-01 -6.795178e-01 -7.046110e-01 -6.575378e-01 -7.327241e-01 -6.321649e-01 -7.675765e-01 -6.013956e-01 -8.098190e-01 -5.557630e-01 -1.559173e+00 -1.246068e+00 1.441732e-01 0 0 0 0 
0 0 0 0 0 2.808123e+00 -5.727788e+00 -4.586908e+00 -9.494622e-01 -2.566701e+00 -1.353176e+00 -2.349314e+00 3.182810e+00 1.103900e+01 1.434446e+01 1.191638e+01 1.510506e+01 1.294833e+01 1.376508e+01 1.487125e+01 1.043823e+01 2.150990e+00 -1.885225e+00 -1.765440e+00 -1.970509e+00 -1.834478e+00 -2.026228e+00 -1.853095e+00 -2.057057e+00 -1.853442e+00 -2.071850e+00 -1.850588e+00 -2.076164e+00 -1.850256e+00 -2.072743e+00 -1.855348e+00 -2.063314e+00 -1.864390e+00 -2.048333e+00 -1.876063e+00 -2.027069e+00 -1.888024e+00 -2.001032e+00 -1.896166e+00 -1.972824e+00 -1.899557e+00 -1.942413e+00 -1.898097e+00 -1.908726e+00 -1.888835e+00 -1.868500e+00 -1.864742e+00 -1.816324e+00 -1.810141e+00 -1.765135e+00 -1.721687e+00 -3.560859e-01 6.138573e+00 7.599209e+00 -2.460061e+00 -2.477859e+00 9.335505e-01 -2.241800e+00 -1.835669e+00 -1.253827e+00 -2.580697e+00 -1.995718e+00 -2.169255e+00 -2.357522e+00 -2.520429e+00 -5.080008e+00 -7.882818e+00 -7.326329e+00 -3.885764e+00 -1.963974e+00 -1.957382e+00 -1.970780e+00 -1.973080e+00 -1.986398e+00 -1.985212e+00 -1.996089e+00 -1.993421e+00 -2.006227e+00 -1.999139e+00 -2.017419e+00 -2.004486e+00 -2.026935e+00 -2.009200e+00 -2.036579e+00 -2.009880e+00 -2.045363e+00 -2.005934e+00 -2.056208e+00 -1.997011e+00 -2.067973e+00 -1.984627e+00 -2.082187e+00 -1.970014e+00 -2.097055e+00 -1.953817e+00 -2.111893e+00 -1.939046e+00 -2.121806e+00 -1.930230e+00 -2.123568e+00 -1.928473e+00 -2.114308e+00 -1.939310e+00 -2.089931e+00 -1.964871e+00 -2.051271e+00 -2.008594e+00 -1.998271e+00 -2.072163e+00 -1.933838e+00 -2.155039e+00 -1.859293e+00 -2.257282e+00 -1.767412e+00 -2.376397e+00 -1.614769e+00 -4.562270e+00 -3.656774e+00 4.241628e-01 0 0 0 0 
0 0 0 0 0 1.939988e+00 -3.954884e+00 -3.166383e+00 -6.556659e-01 -1.773918e+00 -9.358131e-01 -1.623846e+00 2.197872e+00 3.905985e+01 4.891777e+01 4.406300e+01 5.142827e+01 4.756263e+01 4.729737e+01 5.321068e+01 3.471595e+01 1.485488e+00 -1.301974e+00 -1.219220e+00 -1.360817e+00 -1.266851e+00 -1.399266e+00 -1.279698e+00 -1.420563e+00 -1.279956e+00 -1.430808e+00 -1.278019e+00 -1.433825e+00 -1.277825e+00 -1.431494e+00 -1.281367e+00 -1.425004e+00 -1.287626e+00 -1.414667e+00 -1.295691e+00 -1.399982e+00 -1.303950e+00 -1.381997e+00 -1.309570e+00 -1.362515e+00 -1.311912e+00 -1.341515e+00 -1.310909e+00 -1.318256e+00 -1.304521e+00 -1.290484e+00 -1.287892e+00 -1.254460e+00 -1.250193e+00 -1.219115e+00 -1.189111e+00 -2.467217e-01 3.989073e+00 3.746346e+00 -3.496847e+00 -2.826147e+00 -9.454935e-01 -3.105032e+00 -2.621651e+00 -2.436580e+00 -3.155706e+00 -2.747596e+00 -2.849637e+00 -2.822719e+00 -3.021844e+00 -4.695374e+00 -6.219302e+00 -5.337790e+00 -2.683873e+00 -1.356515e+00 -1.351968e+00 -1.361224e+00 -1.362813e+00 -1.372012e+00 -1.371192e+00 -1.378704e+00 -1.376860e+00 -1.385705e+00 -1.380808e+00 -1.393436e+00 -1.384504e+00 -1.400011e+00 -1.387764e+00 -1.406679e+00 -1.388243e+00 -1.412756e+00 -1.385528e+00 -1.420259e+00 -1.379378e+00 -1.428397e+00 -1.370834e+00 -1.438221e+00 -1.360742e+00 -1.448487e+00 -1.349541e+00 -1.458714e+00 -1.339306e+00 -1.465522e+00 -1.333168e+00 -1.466687e+00 -1.331901e+00 -1.460244e+00 -1.339347e+00 -1.443385e+00 -1.357001e+00 -1.416705e+00 -1.387251e+00 -1.380171e+00 -1.431255e+00 -1.335766e+00 -1.488595e+00 -1.284314e+00 -1.559092e+00 -1.220176e+00 -1.638886e+00 -1.105806e+00 -3.140020e+00 -2.522004e+00 2.930538e-01 0 0 0 0 
0 0 0 0 0 8.644770e-02 -1.756875e-01 -1.404685e-01 -2.914887e-02 -7.922942e-02 -4.194780e-02 -7.256971e-02 9.769354e-02 4.472086e+01 4.887051e+01 4.589751e+01 4.798937e+01 4.738456e+01 4.637368e+01 4.900648e+01 4.435698e+01 6.606262e-02 -5.790777e-02 -5.422008e-02 -6.051069e-02 -5.632640e-02 -6.221294e-02 -5.689493e-02 -6.316163e-02 -5.691123e-02 -6.362463e-02 -5.683371e-02 -6.376810e-02 -5.683386e-02 -6.367261e-02 -5.699806e-02 -6.338930e-02 -5.728003e-02 -6.293187e-02 -5.763970e-02 -6.227888e-02 -5.800647e-02 -6.147828e-02 -5.825575e-02 -6.061135e-02 -5.836005e-02 -5.967794e-02 -5.831675e-02 -5.864514e-02 -5.803487e-02 -5.741223e-02 -5.729789e-02 -5.581223e-02 -5.562334e-02 -5.424222e-02 -5.290815e-02 -1.090888e-02 -2.696755e-02 -1.208046e+00 -1.795109e+00 -1.153908e+00 -1.675901e+00 -1.780207e+00 -1.617305e+00 -1.925406e+00 -1.782473e+00 -1.815520e+00 -1.855253e+00 -1.689057e+00 -1.816332e+00 -1.842753e+00 -1.348149e+00 -5.873708e-01 -1.194431e-01 -6.037300e-02 -6.017231e-02 -6.058481e-02 -6.065560e-02 -6.106510e-02 -6.102818e-02 -6.136255e-02 -6.128000e-02 -6.167377e-02 -6.145554e-02 -6.201788e-02 -6.162043e-02 -6.231128e-02 -6.176684e-02 -6.260965e-02 -6.179030e-02 -6.288259e-02 -6.167240e-02 -6.321960e-02 -6.140186e-02 -6.358480e-02 -6.102407e-02 -6.402385e-02 -6.057523e-02 -6.447967e-02 -6.007325e-02 -6.492953e-02 -5.960946e-02 -6.522251e-02 -5.932382e-02 -6.526136e-02 -5.925373e-02 -6.496259e-02 -5.957535e-02 -6.420669e-02 -6.036074e-02 -6.302505e-02 -6.171995e-02 -6.141738e-02 -6.370289e-02 -5.946646e-02 -6.627956e-02 -5.718543e-02 -6.938609e-02 -5.415946e-02 -7.230826e-02 -4.679979e-02 -1.369233e-01 -1.112987e-01 1.306423e-02 0 0 0 0 
0 0 0 0 0 0 0 0 0 0 0 0 0 4.878450e+01 5.288009e+01 4.999024e+01 5.192233e+01 5.158876e+01 5.020306e+01 5.325969e+01 4.816299e+01 0 0 0 0 0 0 0 0 0 0 0 0 0 0 0 0 0 0 0 0 0 0 0 0 0 0 0 0 0 0 0 0 0 0 0 5.541827e-03 6.534457e-02 -5.296412e-03 -1.593395e-01 -5.063431e-02 -1.170105e-01 -2.161876e-01 -1.372263e-01 -2.392890e-01 -2.411161e-01 -2.128123e-01 -2.923008e-01 -2.185554e-01 -2.006349e-01 -3.022074e-01 -2.323280e-01 -7.517094e-02 0 0 0 0 0 0 0 0 0 0 0 0 0 0 0 0 0 0 0 0 0 0 0 0 0 0 0 0 0 0 0 0 0 0 0 0 0 0 0 0 0 0 0 0 0 0 0 0 0 0 0 0 0 0 0 
0 0 0 0 0 0 0 0 0 0 0 0 0 4.868865e+01 5.056762e+01 4.891973e+01 4.980467e+01 4.953470e+01 4.912419e+01 5.031549e+01 4.875927e+01 0 0 0 0 0 0 0 0 0 0 0 0 0 0 0 0 0 0 0 0 0 0 0 0 0 0 0 0 0 0 0 0 0 0 0 1.832985e-03 3.656519e-02 6.047134e-02 -3.665112e-02 -3.028264e-02 2.227023e-02 -1.996565e-02 2.457954e-02 2.733700e-02 1.724098e-02 6.257267e-02 4.065391e-02 7.609164e-02 1.370463e-01 8.917576e-02 2.925304e-02 3.724981e-03 0 0 0 0 0 0 0 0 0 0 0 0 0 0 0 0 0 0 0 0 0 0 0 0 0 0 0 0 0 0 0 0 0 0 0 0 0 0 0 0 0 0 0 0 0 0 0 0 0 0 0 0 0 0 0 
0 0 0 0 0 0 0 0 0 0 0 0 0 5.118158e+01 5.344385e+01 5.162339e+01 5.254331e+01 5.250991e+01 5.158372e+01 5.348513e+01 5.094286e+01 0 0 0 0 0 0 0 0 0 0 0 0 0 0 0 0 0 0 0 0 0 0 0 0 0 0 0 0 0 0 0 0 0 0 0 0 0 0 0 0 0 0 0 0 0 0 0 0 0 0 0 0 0 0 0 0 0 0 0 0 0 0 0 0 0 0 0 0 0 0 0 0 0 0 0 0 0 0 0 0 0 0 0 0 0 0 0 0 0 0 0 0 0 0 0 0 0 0 0 0 0 0 0 0 0 0 0 
0 0 0 0 0 0 0 0 0 0 0 0 0 4.868844e+01 5.056605e+01 4.892027e+01 4.980424e+01 4.953558e+01 4.912594e+01 5.031587e+01 4.876371e+01 0 0 0 0 0 0 0 0 0 0 0 0 0 0 0 0 0 0 0 0 0 0 0 0 0 0 0 0 0 0 0 0 0 0 0 0 0 0 0 0 0 0 0 0 0 0 0 0 0 0 0 0 0 0 0 0 0 0 0 0 0 0 0 0 0 0 0 0 0 0 0 0 0 0 0 0 0 0 0 0 0 0 0 0 0 0 0 0 0 0 0 0 0 0 0 0 0 0 0 0 0 0 0 0 0 0 0 
0 0 0 0 0 0 0 0 0 0 0 0 0 4.878411e+01 5.287342e+01 4.999310e+01 5.191597e+01 5.159186e+01 5.020446e+01 5.325640e+01 4.818207e+01 0 0 0 0 0 0 0 0 0 0 0 0 0 0 0 0 0 0 0 0 0 0 0 0 0 0 0 0 0 0 0 0 0 0 0 0 0 0 0 0 0 0 0 0 0 0 0 0 0 0 0 0 0 0 0 0 0 0 0 0 0 0 0 0 0 0 0 0 0 0 0 0 0 0 0 0 0 0 0 0 0 0 0 0 0 0 0 0 0 0 0 0 0 0 0 0 0 0 0 0 0 0 0 0 0 0 0 
0 0 0 0 0 8.633897e-02 -1.757933e-01 -1.408054e-01 -2.958218e-02 -7.966060e-02 -4.231816e-02 -7.288415e-02 9.757386e-02 4.471882e+01 4.886322e+01 4.590076e+01 4.798394e+01 4.739050e+01 4.637682e+01 4.900694e+01 4.438092e+01 6.610100e-02 -5.774925e-02 -5.413231e-02 -6.045939e-02 -5.643243e-02 -6.241397e-02 -5.729255e-02 -6.364015e-02 -5.761197e-02 -6.435140e-02 -5.772108e-02 -6.464729e-02 -5.778971e-02 -6.461773e-02 -5.792372e-02 -6.435191e-02 -5.819267e-02 -6.394015e-02 -5.862830e-02 -6.345864e-02 -5.922899e-02 -6.296130e-02 -5.995656e-02 -6.249242e-02 -6.074285e-02 -6.207343e-02 -6.151558e-02 -6.170278e-02 -6.220521e-02 -6.135170e-02 -6.272539e-02 -6.095087e-02 -6.295365e-02 -6.037564e-02 -6.275218e-02 -5.957753e-02 -6.214370e-02 -5.847413e-02 -6.301228e-02 -6.078675e-02 -6.360922e-02 -6.225676e-02 -6.485942e-02 -6.328142e-02 -6.559192e-02 -6.446754e-02 -6.580081e-02 -6.560203e-02 -6.610334e-02 -6.657489e-02 -6.661938e-02 -6.664145e-02 -6.554673e-02 -6.550962e-02 -6.445855e-02 -6.464345e-02 -6.377123e-02 -6.408527e-02 -6.343948e-02 -6.371985e-02 -6.330170e-02 -6.346053e-02 -6.323754e-02 -6.327141e-02 -6.317186e-02 -6.316484e-02 -6.305817e-02 -6.317909e-02 -6.287354e-02 -6.334941e-02 -6.260465e-02 -6.368694e-02 -6.224589e-02 -6.416481e-02 -6.178776e-02 -6.471903e-02 -6.124264e-02 -6.527065e-02 -6.066406e-02 -6.573703e-02 -6.015614e-02 -6.604079e-02 -5.984192e-02 -6.611040e-02 -5.984416e-02 -6.584781e-02 -6.025242e-02 -6.515559e-02 -6.111507e-02 -6.395544e-02 -6.245872e-02 -6.221551e-02 -6.428022e-02 -5.999332e-02 -6.659249e-02 -5.739359e-02 -6.941023e-02 -5.409335e-02 -7.216688e-02 -4.661694e-02 -1.367840e-01 -1.112572e-01 1.309197e-02 0 0 0 0 
0 0 0 0 0 1.937548e+00 -3.957237e+00 -3.173914e+00 -6.653743e-01 -1.783595e+00 -9.441289e-01 -1.630911e+00 2.195174e+00 3.905444e+01 4.891195e+01 4.408082e+01 5.138649e+01 4.759391e+01 4.726113e+01 5.318071e+01 3.482030e+01 1.486412e+00 -1.298352e+00 -1.217194e+00 -1.359619e+00 -1.269199e+00 -1.403758e+00 -1.288620e+00 -1.431313e+00 -1.295710e+00 -1.447155e+00 -1.297982e+00 -1.453608e+00 -1.299332e+00 -1.452760e+00 -1.302193e+00 -1.446657e+00 -1.308151e+00 -1.437335e+00 -1.317911e+00 -1.426492e+00 -1.331415e+00 -1.415313e+00 -1.347777e+00 -1.404771e+00 -1.365444e+00 -1.395332e+00 -1.382783e+00 -1.386958e+00 -1.398232e+00 -1.379007e+00 -1.409859e+00 -1.369933e+00 -1.414923e+00 -1.356945e+00 -1.410339e+00 -1.338963e+00 -1.396620e+00 -1.314131e+00 -1.416103e+00 -1.366073e+00 -1.429481e+00 -1.399071e+00 -1.457531e+00 -1.422052e+00 -1.473940e+00 -1.448655e+00 -1.478581e+00 -1.474097e+00 -1.485333e+00 -1.495914e+00 -1.496891e+00 -1.497376e+00 -1.472764e+00 -1.471923e+00 -1.448299e+00 -1.452448e+00 -1.432848e+00 -1.439898e+00 -1.425389e+00 -1.431682e+00 -1.422287e+00 -1.425848e+00 -1.420837e+00 -1.421590e+00 -1.419347e+00 -1.419178e+00 -1.416768e+00 -1.419470e+00 -1.412579e+00 -1.423249e+00 -1.406480e+00 -1.430769e+00 -1.398350e+00 -1.441435e+00 -1.387995e+00 -1.453838e+00 -1.375728e+00 -1.466241e+00 -1.362792e+00 -1.476825e+00 -1.351551e+00 -1.483862e+00 -1.344760e+00 -1.485709e+00 -1.345110e+00 -1.480072e+00 -1.354500e+00 -1.464641e+00 -1.373890e+00 -1.437553e+00 -1.403799e+00 -1.398059e+00 -1.444190e+00 -1.347576e+00 -1.495607e+00 -1.288979e+00 -1.559632e+00 -1.218698e+00 -1.635724e+00 -1.101731e+00 -3.136918e+00 -2.521078e+00 2.936764e-01 0 0 0 0 
0 0 0 0 0 2.804592e+00 -5.731188e+00 -4.597800e+00 -9.635111e-01 -2.580708e+00 -1.365215e+00 -2.359543e+00 3.178902e+00 1.102883e+01 1.434015e+01 1.191915e+01 1.508860e+01 1.296204e+01 1.374849e+01 1.486533e+01 1.047245e+01 2.152344e+00 -1.879965e+00 -1.762493e+00 -1.968763e+00 -1.837869e+00 -2.032725e+00 -1.866010e+00 -2.072620e+00 -1.876253e+00 -2.095520e+00 -1.879498e+00 -2.104813e+00 -1.881403e+00 -2.103540e+00 -1.885507e+00 -2.094670e+00 -1.894111e+00 -2.081157e+00 -1.908235e+00 -2.065452e+00 -1.927788e+00 -2.049266e+00 -1.951480e+00 -2.034001e+00 -1.977059e+00 -2.020329e+00 -2.002156e+00 -2.008193e+00 -2.024512e+00 -1.996666e+00 -2.041330e+00 -1.983510e+00 -2.048646e+00 -1.964691e+00 -2.041994e+00 -1.938643e+00 -2.022119e+00 -1.902682e+00 -2.050319e+00 -1.977879e+00 -2.069678e+00 -2.025645e+00 -2.110280e+00 -2.058907e+00 -2.134024e+00 -2.097410e+00 -2.140731e+00 -2.134234e+00 -2.150493e+00 -2.165810e+00 -2.167219e+00 -2.167918e+00 -2.132281e+00 -2.131061e+00 -2.096857e+00 -2.102862e+00 -2.074485e+00 -2.084691e+00 -2.063684e+00 -2.072793e+00 -2.059191e+00 -2.064345e+00 -2.057090e+00 -2.058177e+00 -2.054929e+00 -2.054682e+00 -2.051189e+00 -2.055096e+00 -2.045113e+00 -2.060556e+00 -2.036268e+00 -2.071427e+00 -2.024480e+00 -2.086852e+00 -2.009473e+00 -2.104796e+00 -1.991708e+00 -2.122756e+00 -1.972995e+00 -2.138105e+00 -1.956765e+00 -2.148348e+00 -1.947001e+00 -2.151093e+00 -1.947583e+00 -2.142999e+00 -1.961233e+00 -2.120690e+00 -1.989307e+00 -2.081439e+00 -2.032538e+00 -2.024158e+00 -2.090881e+00 -1.950928e+00 -2.165187e+00 -1.866045e+00 -2.258065e+00 -1.765273e+00 -2.371823e+00 -1.608878e+00 -4.557786e+00 -3.655435e+00 4.250639e-01 0 0 0 0 
0 0 0 0 0 9.533825e-01 -1.949745e+00 -1.564692e+00 -3.277190e-01 -8.767734e-01 -4.634038e-01 -8.015163e-01 1.081301e+00 3.750328e+00 4.876093e+00 4.052886e+00 5.130618e+00 4.407550e+00 4.675222e+00 5.055184e+00 3.561561e+00 7.320328e-01 -6.393628e-01 -5.994311e-01 -6.696038e-01 -6.251017e-01 -6.913807e-01 -6.346828e-01 -7.049472e-01 -6.381551e-01 -7.127171e-01 -6.392363e-01 -7.158530e-01 -6.398606e-01 -7.153973e-01 -6.412377e-01 -7.123651e-01 -6.441526e-01 -7.077615e-01 -6.489522e-01 -7.024184e-01 -6.556019e-01 -6.969139e-01 -6.636598e-01 -6.917222e-01 -6.723576e-01 -6.870702e-01 -6.808889e-01 -6.829377e-01 -6.884850e-01 -6.790104e-01 -6.941965e-01 -6.745286e-01 -6.966761e-01 -6.681217e-01 -6.944070e-01 -6.592581e-01 -6.876431e-01 -6.470250e-01 -6.972283e-01 -6.725925e-01 -7.038068e-01 -6.888312e-01 -7.176081e-01 -7.001363e-01 -7.256761e-01 -7.132232e-01 -7.279502e-01 -7.257389e-01 -7.312642e-01 -7.364708e-01 -7.369469e-01 -7.371834e-01 -7.250636e-01 -7.246478e-01 -7.130161e-01 -7.150574e-01 -7.054077e-01 -7.088774e-01 -7.017342e-01 -7.048309e-01 -7.002059e-01 -7.019575e-01 -6.994903e-01 -6.998589e-01 -6.987537e-01 -6.986685e-01 -6.974789e-01 -6.988057e-01 -6.954081e-01 -7.006564e-01 -6.923932e-01 -7.043450e-01 -6.883762e-01 -7.095817e-01 -6.832657e-01 -7.156773e-01 -6.772226e-01 -7.217853e-01 -6.708672e-01 -7.270175e-01 -6.653695e-01 -7.305267e-01 -6.620825e-01 -7.314948e-01 -6.623172e-01 -7.287749e-01 -6.669853e-01 -7.212040e-01 -6.765327e-01 -7.078421e-01 -6.911985e-01 -6.883149e-01 -7.109714e-01 -6.633459e-01 -7.361725e-01 -6.344596e-01 -7.678426e-01 -6.006691e-01 -8.082653e-01 -5.537640e-01 -1.557652e+00 -1.245614e+00 1.444795e-01 0 0 0 0 
0 0 0 0 0 0 0 0 0 0 0 0 0 0 0 0 0 0 0 0 0 0 0 0 0 0 0 0 0 0 0 0 0 0 0 0 0 0 0 0 0 0 0 0 0 0 0 0 0 0 0 0 0 0 0 0 0 0 0 0 0 0 0 0 0 0 0 0 0 0 0 0 0 0 0 0 0 0 0 0 0 0 0 0 0 0 0 0 0 0 0 0 0 0 0 0 0 0 0 0 0 0 0 0 0 0 0 0 0 0 0 0 0 0 0 0 0 0 0 0 0 0 0 0 0 0 0 0 
