# vtk DataFile Version 2.0
Comment goes here
ASCII

DATASET STRUCTURED_POINTS
FIELD FieldData 1
TIME 1 1 double
0.84000000
DIMENSIONS    128   16   1

ORIGIN    0.000   0.000   0.000
SPACING   0.0078125 0.015625   1.000

POINT_DATA   2048
SCALARS fX double
LOOKUP_TABLE default

0 0 0 0 0 0 0 0 0 0 0 0 0 0 0 0 0 0 0 0 0 0 0 0 0 0 0 0 0 0 0 0 0 0 0 0 0 0 0 0 0 0 0 0 0 0 0 0 0 0 0 0 0 0 0 0 0 0 0 0 0 0 0 0 0 0 0 0 0 0 0 0 0 0 0 0 0 0 0 0 0 0 0 0 0 0 0 0 0 0 0 0 0 0 0 0 0 0 0 0 0 0 0 0 0 0 0 0 0 0 0 0 0 0 0 0 0 0 0 0 0 0 0 0 0 0 0 0 
0 0 0 0 0 0 0 0 0 0 0 0 0 0 0 0 0 0 0 0 0 0 0 0 0 0 0 0 0 0 0 0 0 0 0 0 0 0 0 0 0 0 0 0 0 0 0 0 0 0 0 0 0 0 0 0 0 0 0 0 0 0 0 0 0 0 0 0 0 0 0 0 0 0 0 0 0 0 0 0 0 0 0 0 0 0 0 0 0 0 0 0 0 0 0 0 0 0 0 0 0 0 0 0 0 0 0 0 0 0 0 0 0 0 0 0 0 0 0 0 0 0 0 0 0 0 0 0 
0 0 0 0 0 -1.003435e+00 1.997510e+00 1.571290e+00 3.258040e-01 8.747231e-01 4.605740e-01 7.925701e-01 -1.064090e+00 -3.742532e+00 -4.908104e+00 -4.036620e+00 -5.114592e+00 -4.391270e+00 -4.639561e+00 -5.008995e+00 -3.535745e+00 -7.338310e-01 6.479223e-01 6.002056e-01 6.676686e-01 6.170370e-01 6.838938e-01 6.237573e-01 6.931196e-01 6.247323e-01 6.963438e-01 6.231595e-01 6.948821e-01 6.206470e-01 6.899371e-01 6.184732e-01 6.829103e-01 6.178870e-01 6.753246e-01 6.197822e-01 6.683218e-01 6.240518e-01 6.620940e-01 6.294024e-01 6.557963e-01 6.339206e-01 6.480203e-01 6.359281e-01 6.376377e-01 6.345202e-01 6.244020e-01 6.288610e-01 6.077862e-01 6.162023e-01 5.821933e-01 5.401078e-01 -1.626850e-01 -2.534112e+00 -3.144806e+00 3.619451e-01 1.203127e+00 1.836409e-01 9.483673e-01 1.077649e+00 1.006126e+00 1.434328e+00 1.239976e+00 1.451845e+00 1.499551e+00 1.541096e+00 2.311789e+00 1.960396e+00 1.015235e+00 7.357401e-01 6.380597e-01 6.421002e-01 6.750453e-01 6.621387e-01 6.840739e-01 6.721355e-01 6.890787e-01 6.788206e-01 6.920601e-01 6.834753e-01 6.943542e-01 6.872163e-01 6.968968e-01 6.905424e-01 7.000855e-01 6.933307e-01 7.040081e-01 6.951232e-01 7.085163e-01 6.953435e-01 7.131740e-01 6.933614e-01 7.173838e-01 6.887785e-01 7.205755e-01 6.820603e-01 7.224426e-01 6.746667e-01 7.231985e-01 6.686843e-01 7.230389e-01 6.663292e-01 7.215429e-01 6.690265e-01 7.176500e-01 6.772589e-01 7.096832e-01 6.908015e-01 6.961654e-01 7.092077e-01 6.765098e-01 7.324953e-01 6.515155e-01 7.625219e-01 6.233256e-01 8.126724e-01 5.879653e-01 1.459191e+00 1.160789e+00 -2.651578e-02 0 0 0 0 
0 0 0 0 0 -2.950973e+00 5.877681e+00 4.624044e+00 9.574329e-01 2.570403e+00 1.352132e+00 2.328818e+00 -3.131539e+00 -1.100991e+01 -1.443791e+01 -1.187432e+01 -1.504528e+01 -1.291763e+01 -1.364870e+01 -1.473603e+01 -1.040255e+01 -2.159114e+00 1.906319e+00 1.765978e+00 1.964506e+00 1.815565e+00 2.012281e+00 1.835345e+00 2.039408e+00 1.838175e+00 2.048840e+00 1.833487e+00 2.044475e+00 1.826035e+00 2.029872e+00 1.819599e+00 2.009167e+00 1.817855e+00 1.986838e+00 1.823430e+00 1.966237e+00 1.835999e+00 1.947922e+00 1.851749e+00 1.929400e+00 1.865044e+00 1.906519e+00 1.870941e+00 1.875956e+00 1.866778e+00 1.836992e+00 1.850100e+00 1.788082e+00 1.812832e+00 1.712767e+00 1.588947e+00 -4.782177e-01 -7.338539e+00 -8.668468e+00 1.925908e+00 3.992824e+00 7.902854e-01 2.987066e+00 3.090839e+00 2.776274e+00 3.876912e+00 3.123013e+00 3.670107e+00 3.649473e+00 3.678062e+00 5.833211e+00 4.905310e+00 2.677766e+00 2.164333e+00 1.876979e+00 1.888862e+00 1.985774e+00 1.947807e+00 2.012328e+00 1.977207e+00 2.027040e+00 1.996861e+00 2.035797e+00 2.010539e+00 2.042531e+00 2.021527e+00 2.049994e+00 2.031294e+00 2.059357e+00 2.039479e+00 2.070880e+00 2.044736e+00 2.084128e+00 2.045372e+00 2.097822e+00 2.039540e+00 2.110212e+00 2.026075e+00 2.119627e+00 2.006354e+00 2.125173e+00 1.984676e+00 2.127476e+00 1.967172e+00 2.127102e+00 1.960342e+00 2.122786e+00 1.968345e+00 2.111371e+00 1.992560e+00 2.087885e+00 2.032296e+00 2.047970e+00 2.086243e+00 1.989933e+00 2.154519e+00 1.916254e+00 2.242878e+00 1.834035e+00 2.393238e+00 1.740001e+00 4.304231e+00 3.418317e+00 -7.797046e-02 0 0 0 0 
0 0 0 0 0 -2.038259e+00 4.061339e+00 3.195356e+00 6.609596e-01 1.774405e+00 9.327855e-01 1.607548e+00 -2.164037e+00 -3.894328e+01 -4.899275e+01 -4.398748e+01 -5.124297e+01 -4.744522e+01 -4.699723e+01 -5.285302e+01 -3.461953e+01 -1.491807e+00 1.317127e+00 1.220186e+00 1.357373e+00 1.254479e+00 1.390400e+00 1.268150e+00 1.409134e+00 1.270086e+00 1.415625e+00 1.266818e+00 1.412578e+00 1.261640e+00 1.402463e+00 1.257173e+00 1.388142e+00 1.255960e+00 1.372709e+00 1.259810e+00 1.358477e+00 1.268498e+00 1.345827e+00 1.279384e+00 1.333032e+00 1.288570e+00 1.317222e+00 1.292640e+00 1.296099e+00 1.289754e+00 1.269166e+00 1.278218e+00 1.235362e+00 1.252457e+00 1.183317e+00 1.097769e+00 -3.217306e-01 -4.777295e+00 -4.428241e+00 3.418042e+00 4.174770e+00 2.120149e+00 3.582755e+00 3.380364e+00 3.192465e+00 3.683089e+00 3.024645e+00 3.281144e+00 2.953252e+00 3.012756e+00 4.175246e+00 3.007590e+00 1.666697e+00 1.495235e+00 1.296699e+00 1.304907e+00 1.371857e+00 1.345627e+00 1.390199e+00 1.365935e+00 1.400358e+00 1.379507e+00 1.406401e+00 1.388949e+00 1.411045e+00 1.396533e+00 1.416193e+00 1.403272e+00 1.422654e+00 1.408917e+00 1.430606e+00 1.412541e+00 1.439752e+00 1.412975e+00 1.449209e+00 1.408945e+00 1.457771e+00 1.399651e+00 1.464288e+00 1.386047e+00 1.468145e+00 1.371105e+00 1.469775e+00 1.359059e+00 1.469562e+00 1.354388e+00 1.466622e+00 1.359950e+00 1.458754e+00 1.376678e+00 1.442505e+00 1.404080e+00 1.414857e+00 1.441252e+00 1.374658e+00 1.488309e+00 1.323683e+00 1.549366e+00 1.267225e+00 1.654614e+00 1.207101e+00 2.979237e+00 2.363280e+00 -5.385039e-02 0 0 0 0 
0 0 0 0 0 -9.072097e-02 1.811677e-01 1.426017e-01 2.933074e-02 7.872545e-02 4.122739e-02 7.130078e-02 -9.658827e-02 -4.459798e+01 -4.880549e+01 -4.576700e+01 -4.787492e+01 -4.723338e+01 -4.623269e+01 -4.880411e+01 -4.422954e+01 -6.652355e-02 5.873029e-02 5.441399e-02 6.053589e-02 5.595120e-02 6.201315e-02 5.656179e-02 6.284632e-02 5.664338e-02 6.312908e-02 5.649013e-02 6.298526e-02 5.625200e-02 6.252768e-02 5.604777e-02 6.188532e-02 5.599134e-02 6.119587e-02 5.616283e-02 6.056161e-02 5.655109e-02 5.999860e-02 5.703742e-02 5.942891e-02 5.744724e-02 5.872363e-02 5.762758e-02 5.777996e-02 5.749626e-02 5.657627e-02 5.697858e-02 5.506615e-02 5.582696e-02 5.274356e-02 4.892958e-02 -5.988638e-03 1.524723e-02 1.164824e+00 1.987085e+00 1.446768e+00 1.654867e+00 1.729020e+00 1.538815e+00 1.674448e+00 1.491093e+00 1.428230e+00 1.401889e+00 1.115898e+00 1.264422e+00 1.095538e+00 3.141987e-01 5.873634e-02 6.664494e-02 5.777982e-02 5.814523e-02 6.112817e-02 5.995935e-02 6.194482e-02 6.086337e-02 6.239618e-02 6.146662e-02 6.266374e-02 6.188556e-02 6.286883e-02 6.222147e-02 6.309621e-02 6.251960e-02 6.338203e-02 6.276897e-02 6.373435e-02 6.292844e-02 6.414021e-02 6.294637e-02 6.456069e-02 6.276660e-02 6.494286e-02 6.235446e-02 6.523648e-02 6.175346e-02 6.541493e-02 6.109648e-02 6.549739e-02 6.057134e-02 6.549956e-02 6.037525e-02 6.537902e-02 6.063156e-02 6.503293e-02 6.137673e-02 6.430283e-02 6.258515e-02 6.305242e-02 6.421697e-02 6.123453e-02 6.628558e-02 5.894435e-02 6.900992e-02 5.651555e-02 7.404821e-02 5.506537e-02 1.341965e-01 1.057522e-01 -2.395718e-03 0 0 0 0 
0 0 0 0 0 0 0 0 0 0 0 0 0 -4.866171e+01 -5.277496e+01 -4.986046e+01 -5.178103e+01 -5.143710e+01 -5.004176e+01 -5.307067e+01 -4.801665e+01 0 0 0 0 0 0 0 0 0 0 0 0 0 0 0 0 0 0 0 0 0 0 0 0 0 0 0 0 0 0 0 0 0 0 0 2.302303e-04 -1.882892e-02 3.158911e-02 1.213918e-01 7.848732e-02 1.438614e-01 2.090844e-01 1.905359e-01 2.767796e-01 2.875378e-01 3.104763e-01 3.886466e-01 3.330781e-01 3.767987e-01 5.035453e-01 3.291443e-01 7.582009e-02 2.712090e-06 0 0 0 0 0 0 0 0 0 0 0 0 0 0 0 0 0 0 0 0 0 0 0 0 0 0 0 0 0 0 0 0 0 0 0 0 0 0 0 0 0 0 0 0 0 0 0 0 0 0 0 0 0 0 
0 0 0 0 0 0 0 0 0 0 0 0 0 -4.857728e+01 -5.040588e+01 -4.880520e+01 -4.965534e+01 -4.942138e+01 -4.897880e+01 -5.021370e+01 -4.861756e+01 0 0 0 0 0 0 0 0 0 0 0 0 0 0 0 0 0 0 0 0 0 0 0 0 0 0 0 0 0 0 0 0 0 0 0 2.086235e-05 -6.944413e-03 -3.781330e-02 -1.161385e-02 1.679242e-02 2.499438e-03 2.412113e-02 1.889489e-02 2.464863e-02 3.694993e-02 2.385321e-02 4.963883e-02 2.051014e-02 -1.183355e-02 6.183120e-02 7.762251e-02 2.124951e-02 0 0 0 0 0 0 0 0 0 0 0 0 0 0 0 0 0 0 0 0 0 0 0 0 0 0 0 0 0 0 0 0 0 0 0 0 0 0 0 0 0 0 0 0 0 0 0 0 0 0 0 0 0 0 0 
0 0 0 0 0 0 0 0 0 0 0 0 0 -5.106424e+01 -5.327025e+01 -5.149929e+01 -5.238119e+01 -5.238241e+01 -5.142216e+01 -5.336790e+01 -5.078267e+01 0 0 0 0 0 0 0 0 0 0 0 0 0 0 0 0 0 0 0 0 0 0 0 0 0 0 0 0 0 0 0 0 0 0 0 0 0 0 0 0 0 0 0 0 0 0 0 0 0 0 0 0 0 0 0 0 0 0 0 0 0 0 0 0 0 0 0 0 0 0 0 0 0 0 0 0 0 0 0 0 0 0 0 0 0 0 0 0 0 0 0 0 0 0 0 0 0 0 0 0 0 0 0 0 0 0 0 
0 0 0 0 0 0 0 0 0 0 0 0 0 -4.857666e+01 -5.040409e+01 -4.880402e+01 -4.965344e+01 -4.941909e+01 -4.897710e+01 -5.020998e+01 -4.861549e+01 0 0 0 0 0 0 0 0 0 0 0 0 0 0 0 0 0 0 0 0 0 0 0 0 0 0 0 0 0 0 0 0 0 0 0 0 0 0 0 0 0 0 0 0 0 0 0 0 0 0 0 0 0 0 0 0 0 0 0 0 0 0 0 0 0 0 0 0 0 0 0 0 0 0 0 0 0 0 0 0 0 0 0 0 0 0 0 0 0 0 0 0 0 0 0 0 0 0 0 0 0 0 0 0 0 0 0 
0 0 0 0 0 0 0 0 0 0 0 0 0 -4.866167e+01 -5.277005e+01 -4.986098e+01 -5.177674e+01 -5.143377e+01 -5.003983e+01 -5.306059e+01 -4.801490e+01 0 0 0 0 0 0 0 0 0 0 0 0 0 0 0 0 0 0 0 0 0 0 0 0 0 0 0 0 0 0 0 0 0 0 0 0 0 0 0 0 0 0 0 0 0 0 0 0 0 0 0 0 0 0 0 0 0 0 0 0 0 0 0 0 0 0 0 0 0 0 0 0 0 0 0 0 0 0 0 0 0 0 0 0 0 0 0 0 0 0 0 0 0 0 0 0 0 0 0 0 0 0 0 0 0 0 0 
0 0 0 0 0 -9.067807e-02 1.810811e-01 1.423503e-01 2.909566e-02 7.847184e-02 4.106698e-02 7.116346e-02 -9.653550e-02 -4.459733e+01 -4.879891e+01 -4.576582e+01 -4.786813e+01 -4.722789e+01 -4.622989e+01 -4.879202e+01 -4.422494e+01 -6.650933e-02 5.908995e-02 5.475689e-02 6.098571e-02 5.634565e-02 6.249103e-02 5.699068e-02 6.336711e-02 5.718237e-02 6.378841e-02 5.727764e-02 6.391789e-02 5.742657e-02 6.384134e-02 5.766288e-02 6.358376e-02 5.795093e-02 6.313233e-02 5.823046e-02 6.248741e-02 5.847996e-02 6.171984e-02 5.875122e-02 6.096757e-02 5.913201e-02 6.036111e-02 5.966134e-02 5.993775e-02 6.027710e-02 5.963107e-02 6.084422e-02 5.932309e-02 6.119884e-02 5.886670e-02 6.116860e-02 5.818340e-02 6.062039e-02 5.721642e-02 6.187868e-02 5.992736e-02 6.314114e-02 6.158457e-02 6.475093e-02 6.310159e-02 6.602337e-02 6.480984e-02 6.685424e-02 6.645164e-02 6.729435e-02 6.733046e-02 6.717323e-02 6.653534e-02 6.607434e-02 6.583833e-02 6.499239e-02 6.510717e-02 6.419362e-02 6.465283e-02 6.380365e-02 6.447514e-02 6.371848e-02 6.447881e-02 6.380045e-02 6.456790e-02 6.392744e-02 6.467195e-02 6.400184e-02 6.475479e-02 6.396001e-02 6.482280e-02 6.378642e-02 6.492730e-02 6.351683e-02 6.514292e-02 6.321374e-02 6.552111e-02 6.293255e-02 6.604823e-02 6.269455e-02 6.662493e-02 6.247952e-02 6.707945e-02 6.225965e-02 6.722563e-02 6.206068e-02 6.693749e-02 6.199500e-02 6.616634e-02 6.222582e-02 6.490649e-02 6.290137e-02 6.317558e-02 6.412741e-02 6.103439e-02 6.599128e-02 5.861626e-02 6.871311e-02 5.622221e-02 7.386988e-02 5.485940e-02 1.341803e-01 1.056744e-01 -2.387156e-03 0 0 0 0 
0 0 0 0 0 -2.037294e+00 4.059417e+00 3.189751e+00 6.557068e-01 1.768722e+00 9.291942e-01 1.604476e+00 -2.162837e+00 -3.894508e+01 -4.898982e+01 -4.400922e+01 -5.123154e+01 -4.745239e+01 -4.700282e+01 -5.281343e+01 -3.462389e+01 -1.491462e+00 1.325216e+00 1.227898e+00 1.367484e+00 1.263348e+00 1.401141e+00 1.277791e+00 1.420837e+00 1.282192e+00 1.430429e+00 1.284493e+00 1.433506e+00 1.287994e+00 1.431936e+00 1.293410e+00 1.426251e+00 1.299925e+00 1.416157e+00 1.306199e+00 1.401684e+00 1.311776e+00 1.384450e+00 1.317845e+00 1.367576e+00 1.326398e+00 1.354000e+00 1.338313e+00 1.344554e+00 1.352188e+00 1.337740e+00 1.364981e+00 1.330903e+00 1.373009e+00 1.320732e+00 1.372397e+00 1.305455e+00 1.360148e+00 1.283796e+00 1.388416e+00 1.344648e+00 1.416771e+00 1.381858e+00 1.452926e+00 1.415934e+00 1.481521e+00 1.454309e+00 1.500211e+00 1.491195e+00 1.510129e+00 1.510955e+00 1.507445e+00 1.493145e+00 1.482815e+00 1.477533e+00 1.458560e+00 1.461151e+00 1.440659e+00 1.450983e+00 1.431934e+00 1.447024e+00 1.430051e+00 1.447139e+00 1.431925e+00 1.449175e+00 1.434817e+00 1.451554e+00 1.436536e+00 1.453462e+00 1.435648e+00 1.455035e+00 1.431797e+00 1.457416e+00 1.425776e+00 1.462272e+00 1.418975e+00 1.470744e+00 1.412620e+00 1.482504e+00 1.407167e+00 1.495303e+00 1.402148e+00 1.505285e+00 1.396954e+00 1.508302e+00 1.392217e+00 1.501604e+00 1.390556e+00 1.484202e+00 1.395745e+00 1.456067e+00 1.411190e+00 1.417632e+00 1.439253e+00 1.370174e+00 1.481712e+00 1.316330e+00 1.542716e+00 1.260659e+00 1.650644e+00 1.202548e+00 2.978950e+00 2.361560e+00 -5.365793e-02 0 0 0 0 
0 0 0 0 0 -2.949576e+00 5.874904e+00 4.615941e+00 9.498353e-01 2.562179e+00 1.346936e+00 2.324373e+00 -3.129798e+00 -1.101014e+01 -1.442993e+01 -1.187986e+01 -1.503487e+01 -1.291424e+01 -1.364498e+01 -1.472012e+01 -1.040122e+01 -2.158608e+00 1.918033e+00 1.777145e+00 1.979145e+00 1.828407e+00 2.027833e+00 1.849305e+00 2.056351e+00 1.855701e+00 2.070270e+00 1.859073e+00 2.074769e+00 1.864181e+00 2.072533e+00 1.872049e+00 2.064327e+00 1.881493e+00 2.049726e+00 1.890575e+00 2.028776e+00 1.898641e+00 2.003828e+00 1.907422e+00 1.979406e+00 1.919804e+00 1.959763e+00 1.937059e+00 1.946104e+00 1.957158e+00 1.936258e+00 1.975694e+00 1.926379e+00 1.987332e+00 1.911675e+00 1.986462e+00 1.889577e+00 1.968745e+00 1.858235e+00 2.009671e+00 1.946322e+00 2.050721e+00 2.000190e+00 2.103062e+00 2.049522e+00 2.144464e+00 2.105079e+00 2.171529e+00 2.158482e+00 2.185896e+00 2.187095e+00 2.182020e+00 2.161324e+00 2.146375e+00 2.138733e+00 2.111272e+00 2.115027e+00 2.085366e+00 2.100315e+00 2.072744e+00 2.094593e+00 2.070026e+00 2.094767e+00 2.072748e+00 2.097724e+00 2.076943e+00 2.101179e+00 2.079444e+00 2.103953e+00 2.078173e+00 2.106241e+00 2.072609e+00 2.109698e+00 2.063901e+00 2.116730e+00 2.054057e+00 2.128989e+00 2.044847e+00 2.145994e+00 2.036925e+00 2.164485e+00 2.029611e+00 2.178878e+00 2.022027e+00 2.183178e+00 2.015100e+00 2.173424e+00 2.012648e+00 2.148210e+00 2.020162e+00 2.107521e+00 2.042592e+00 2.051990e+00 2.083351e+00 1.983445e+00 2.144971e+00 1.905613e+00 2.233255e+00 1.824535e+00 2.387499e+00 1.733428e+00 4.303835e+00 3.415834e+00 -7.769179e-02 0 0 0 0 
0 0 0 0 0 -1.002960e+00 1.996569e+00 1.568540e+00 3.232241e-01 8.719285e-01 4.588086e-01 7.910603e-01 -1.063497e+00 -3.742609e+00 -4.905390e+00 -4.038501e+00 -5.111048e+00 -4.390114e+00 -4.638293e+00 -5.003582e+00 -3.535291e+00 -7.336557e-01 6.519066e-01 6.040038e-01 6.726470e-01 6.214047e-01 6.891824e-01 6.285047e-01 6.988810e-01 6.306913e-01 7.036298e-01 6.318575e-01 7.051801e-01 6.336135e-01 7.044384e-01 6.363018e-01 7.016605e-01 6.395186e-01 6.967014e-01 6.426058e-01 6.895798e-01 6.453451e-01 6.810982e-01 6.483280e-01 6.727970e-01 6.525378e-01 6.661238e-01 6.584081e-01 6.614874e-01 6.652472e-01 6.581489e-01 6.715565e-01 6.547997e-01 6.755212e-01 6.498100e-01 6.752339e-01 6.423052e-01 6.692178e-01 6.316559e-01 6.831336e-01 6.616016e-01 6.970909e-01 6.799159e-01 7.148872e-01 6.966895e-01 7.289663e-01 7.155804e-01 7.381722e-01 7.337391e-01 7.430609e-01 7.434704e-01 7.417476e-01 7.347142e-01 7.296342e-01 7.270382e-01 7.177045e-01 7.189829e-01 7.089013e-01 7.139853e-01 7.046136e-01 7.120436e-01 7.036935e-01 7.121067e-01 7.046229e-01 7.131165e-01 7.060542e-01 7.142963e-01 7.069103e-01 7.152456e-01 7.064845e-01 7.160290e-01 7.045986e-01 7.172084e-01 7.016419e-01 7.196011e-01 6.982958e-01 7.237664e-01 6.951595e-01 7.295385e-01 6.924525e-01 7.358068e-01 6.899427e-01 7.406727e-01 6.873324e-01 7.421020e-01 6.849443e-01 7.387575e-01 6.840879e-01 7.301745e-01 6.866431e-01 7.163598e-01 6.943029e-01 6.975332e-01 7.082262e-01 6.743053e-01 7.292506e-01 6.478992e-01 7.592521e-01 6.200982e-01 8.107254e-01 5.857393e-01 1.459065e+00 1.159948e+00 -2.642101e-02 0 0 0 0 
0 0 0 0 0 0 0 0 0 0 0 0 0 0 0 0 0 0 0 0 0 0 0 0 0 0 0 0 0 0 0 0 0 0 0 0 0 0 0 0 0 0 0 0 0 0 0 0 0 0 0 0 0 0 0 0 0 0 0 0 0 0 0 0 0 0 0 0 0 0 0 0 0 0 0 0 0 0 0 0 0 0 0 0 0 0 0 0 0 0 0 0 0 0 0 0 0 0 0 0 0 0 0 0 0 0 0 0 0 0 0 0 0 0 0 0 0 0 0 0 0 0 0 0 0 0 0 0 
