# vtk DataFile Version 2.0
Comment goes here
ASCII

DATASET STRUCTURED_POINTS
FIELD FieldData 1
TIME 1 1 double
0.51000000
DIMENSIONS    128   16   1

ORIGIN    0.000   0.000   0.000
SPACING   0.0078125 0.015625   1.000

POINT_DATA   2048
SCALARS Omega double
LOOKUP_TABLE default

2.197497e-07 -5.449967e-06 -9.437236e-06 -1.094000e-05 -1.422223e-05 -2.296271e-05 8.153730e-06 7.420939e-06 1.053694e-06 1.126419e-06 3.830678e-06 7.056464e-06 9.751200e-06 -1.979857e-05 -1.601117e-06 4.308963e-06 -1.442376e-05 2.966663e-05 -1.650599e-05 2.022416e-05 1.377166e-05 -6.049155e-05 -4.869083e-05 -3.147001e-05 -3.903749e-05 -3.711513e-05 -4.395772e-05 -4.053321e-05 -4.534049e-05 -4.698133e-05 -5.182011e-05 -6.192649e-05 -6.824638e-05 -8.910258e-05 -9.827383e-05 -1.319228e-04 -1.455369e-04 -1.953510e-04 -2.170470e-04 -2.896898e-04 -3.263809e-04 -4.311316e-04 -4.877158e-04 -6.214034e-04 -6.694245e-04 -7.654823e-04 -6.793819e-04 -5.559699e-04 -1.267667e-04 3.540747e-04 9.868674e-04 8.230207e-04 -1.679873e-03 -9.393657e-03 -1.523502e-02 1.201685e-02 8.387719e-02 9.987991e-02 5.685354e-02 6.139030e-02 7.347569e-02 7.906999e-02 9.261670e-02 9.532243e-02 1.011603e-01 1.054031e-01 1.047910e-01 1.055416e-01 1.036930e-01 1.013127e-01 1.005722e-01 7.852355e-02 5.769724e-02 6.789868e-02 7.477577e-02 6.007686e-02 4.026079e-02 2.486476e-02 1.429732e-02 7.164380e-03 2.623062e-03 1.777315e-05 -1.246274e-03 -1.632688e-03 -1.592608e-03 -1.308658e-03 -1.027044e-03 -7.239710e-04 -5.291711e-04 -3.413646e-04 -2.513569e-04 -1.511593e-04 -1.216072e-04 -6.765695e-05 -6.547556e-05 -3.298929e-05 -4.176246e-05 -1.927103e-05 -3.151626e-05 -1.394989e-05 -2.584313e-05 -1.104599e-05 -2.119490e-05 -8.880688e-06 -1.726140e-05 -7.524835e-06 -1.421368e-05 -7.021753e-06 -1.184113e-05 -6.818110e-06 -9.476806e-06 -6.169765e-06 -6.571601e-06 -4.077214e-06 -1.819812e-06 9.673965e-07 6.017671e-06 9.272338e-06 1.577928e-05 1.743889e-05 2.174170e-05 1.422367e-05 2.099009e-05 3.635299e-05 3.116264e-05 2.308595e-05 1.503481e-05 7.244027e-06 
-1.134938e-02 -1.025930e-02 -6.859032e-04 -1.104734e-03 -1.886953e-01 -4.480734e-01 7.826098e-01 5.029923e-01 1.207741e-01 2.591496e-01 2.090296e-01 3.809886e-01 -3.914412e-01 -1.711761e+00 -2.235424e+00 -1.766530e+00 -2.155663e+00 -1.963720e+00 -1.959135e+00 -2.262516e+00 -1.692856e+00 -1.748630e-01 3.149400e-01 2.521172e-01 2.157680e-01 2.145867e-01 2.216825e-01 2.178208e-01 2.282881e-01 2.167205e-01 2.321380e-01 2.147646e-01 2.346451e-01 2.129786e-01 2.361396e-01 2.117781e-01 2.366993e-01 2.112300e-01 2.362789e-01 2.113040e-01 2.349579e-01 2.119807e-01 2.328590e-01 2.131190e-01 2.300907e-01 2.146223e-01 2.270832e-01 2.168126e-01 2.247601e-01 2.201279e-01 2.234040e-01 2.212355e-01 2.124345e-01 2.076665e-01 2.690790e-01 5.021115e-01 2.751910e-01 -4.692150e-01 -2.344339e-01 4.755279e-01 3.287912e-01 3.875313e-01 4.523616e-01 3.937591e-01 4.551085e-01 4.458121e-01 4.524929e-01 4.432289e-01 4.784388e-01 4.248967e-01 6.556592e-01 1.118458e+00 7.938308e-01 2.803141e-01 2.597749e-01 2.965733e-01 2.825290e-01 2.558644e-01 2.444273e-01 2.322069e-01 2.303328e-01 2.245064e-01 2.258151e-01 2.229439e-01 2.250482e-01 2.233556e-01 2.254846e-01 2.238170e-01 2.261992e-01 2.236694e-01 2.271241e-01 2.229478e-01 2.284002e-01 2.217913e-01 2.299334e-01 2.202960e-01 2.315464e-01 2.187518e-01 2.331116e-01 2.175339e-01 2.343108e-01 2.168928e-01 2.346680e-01 2.171528e-01 2.338400e-01 2.187568e-01 2.315645e-01 2.220241e-01 2.276024e-01 2.271451e-01 2.219800e-01 2.343207e-01 2.150895e-01 2.437692e-01 2.077845e-01 2.562334e-01 2.016050e-01 2.744212e-01 1.982432e-01 3.086720e-01 1.856568e-01 6.164700e-01 5.604818e-01 -1.994395e-01 -6.036165e-02 -2.991760e-02 -2.219251e-02 -1.436574e-02 
-1.705937e-02 -3.966729e-03 7.299055e-02 1.703758e-01 -1.045629e+00 -2.238215e+00 2.172859e+00 1.182239e+00 2.773400e-01 5.608888e-01 4.208146e-01 5.488331e-01 -1.108929e+00 2.643010e-01 4.554539e-01 6.966346e-01 3.293797e-01 7.421907e-01 3.385821e-01 7.940863e-01 -8.424806e-02 -6.951349e-01 3.383187e-01 5.152084e-01 4.100022e-01 4.692568e-01 4.082644e-01 4.556061e-01 4.189287e-01 4.434731e-01 4.326118e-01 4.333873e-01 4.468474e-01 4.232213e-01 4.567600e-01 4.114562e-01 4.619901e-01 4.016619e-01 4.649290e-01 3.962511e-01 4.661511e-01 3.958455e-01 4.650321e-01 3.978038e-01 4.587951e-01 4.006941e-01 4.505967e-01 4.082208e-01 4.450927e-01 4.210227e-01 4.429394e-01 4.342259e-01 4.390535e-01 4.585618e-01 5.767071e-01 8.248788e-01 1.196615e-01 -1.025534e+00 -3.818464e-01 5.977184e-01 1.604382e-01 3.789893e-01 4.396797e-01 3.935447e-01 5.346076e-01 5.165172e-01 6.043401e-01 6.070201e-01 7.441110e-01 6.048221e-01 8.529094e-01 1.848755e+00 1.527485e+00 4.670760e-01 3.087423e-01 3.807248e-01 4.148064e-01 4.033633e-01 4.103920e-01 4.079310e-01 4.103787e-01 4.172523e-01 4.099804e-01 4.256364e-01 4.090876e-01 4.321724e-01 4.089410e-01 4.361187e-01 4.113685e-01 4.367049e-01 4.154326e-01 4.312639e-01 4.209350e-01 4.215633e-01 4.295719e-01 4.090598e-01 4.408367e-01 3.964749e-01 4.555798e-01 3.860313e-01 4.693097e-01 3.761567e-01 4.777922e-01 3.694753e-01 4.796290e-01 3.689440e-01 4.732988e-01 3.773325e-01 4.576414e-01 3.958942e-01 4.328418e-01 4.275788e-01 4.016020e-01 4.704586e-01 3.595383e-01 5.184776e-01 3.071287e-01 5.813927e-01 2.480558e-01 6.983054e-01 1.208167e-01 1.670802e+00 3.919025e-01 -1.521501e+00 4.724840e-01 1.725569e-01 -1.197132e-02 -2.482561e-02 
-1.592566e-02 8.686684e-03 1.897360e-01 5.611695e-01 -1.782096e+00 -4.153996e+00 -4.466216e-02 -6.445811e-01 -6.462215e-01 -7.218918e-01 -5.924342e-01 -5.031395e-01 5.704459e-01 2.195229e-01 2.664806e-02 1.446387e-01 1.544801e-01 1.688627e-01 9.962427e-02 9.297096e-02 1.704699e-01 5.104547e-01 -5.711474e-01 -5.001999e-01 -7.510840e-01 -5.964025e-01 -8.181215e-01 -6.676376e-01 -8.465570e-01 -7.063213e-01 -8.424677e-01 -7.277401e-01 -8.234563e-01 -7.477557e-01 -8.081467e-01 -7.751596e-01 -7.991103e-01 -8.006660e-01 -7.895278e-01 -8.175170e-01 -7.787365e-01 -8.243076e-01 -7.698676e-01 -8.282181e-01 -7.719273e-01 -8.325559e-01 -7.778248e-01 -8.273315e-01 -7.786735e-01 -8.129854e-01 -7.785510e-01 -8.013821e-01 -7.868112e-01 -8.050068e-01 -8.512081e-01 -9.625454e-01 -6.175376e-01 1.751799e-01 -1.991787e-01 -8.239055e-01 -7.547608e-01 -8.532982e-01 -1.014907e+00 -1.030102e+00 -1.167384e+00 -1.232153e+00 -1.283773e+00 -1.340282e+00 -1.411886e+00 -1.406040e+00 -1.643618e+00 -2.236704e+00 -1.766524e+00 -1.163746e+00 -1.065736e+00 -1.086475e+00 -1.025306e+00 -9.842703e-01 -9.455204e-01 -9.056570e-01 -9.061180e-01 -8.565429e-01 -8.921385e-01 -8.249971e-01 -8.887550e-01 -8.035655e-01 -8.879677e-01 -7.896756e-01 -8.825860e-01 -7.831557e-01 -8.753395e-01 -7.920068e-01 -8.671575e-01 -8.115328e-01 -8.517012e-01 -8.378029e-01 -8.288033e-01 -8.647459e-01 -7.949067e-01 -8.884097e-01 -7.609110e-01 -9.150179e-01 -7.359111e-01 -9.389318e-01 -7.217634e-01 -9.543596e-01 -7.213658e-01 -9.550861e-01 -7.367334e-01 -9.383050e-01 -7.677283e-01 -8.960723e-01 -8.090353e-01 -8.343318e-01 -8.785340e-01 -7.740168e-01 -9.838490e-01 -7.042046e-01 -1.127796e+00 -5.917750e-01 -1.407654e+00 1.199851e-02 -3.564296e+00 -3.342440e+00 1.799564e+00 6.433236e-01 5.319626e-02 -2.151597e-02 
-1.097668e-02 1.431690e-02 1.816819e-01 6.393046e-01 -3.534974e-01 -1.718061e+00 -3.019488e+00 -2.340338e+00 -1.123914e+00 -1.546477e+00 -1.093280e+00 -1.365438e+00 -1.286063e+00 -1.370781e+00 -1.093007e+00 -1.327255e+00 -1.154803e+00 -1.309862e+00 -1.181697e+00 -1.237908e+00 -1.283158e+00 -1.341725e+00 -1.220331e+00 -1.133169e+00 -1.351098e+00 -1.265672e+00 -1.446486e+00 -1.329589e+00 -1.491438e+00 -1.358800e+00 -1.504757e+00 -1.371517e+00 -1.501656e+00 -1.382302e+00 -1.496924e+00 -1.399165e+00 -1.493246e+00 -1.416320e+00 -1.486223e+00 -1.429381e+00 -1.476093e+00 -1.437800e+00 -1.465888e+00 -1.446629e+00 -1.462551e+00 -1.458154e+00 -1.462436e+00 -1.466172e+00 -1.461649e+00 -1.472278e+00 -1.466841e+00 -1.489668e+00 -1.499246e+00 -1.546459e+00 -1.572829e+00 -1.564996e+00 -1.535146e+00 -1.639403e+00 -1.710727e+00 -1.551153e+00 -1.398832e+00 -1.635403e+00 -1.558054e+00 -1.662587e+00 -1.747756e+00 -1.725091e+00 -1.851823e+00 -1.866022e+00 -1.902959e+00 -2.025198e+00 -1.758754e+00 -1.849857e+00 -2.175684e+00 -2.172397e+00 -1.916383e+00 -1.774601e+00 -1.694664e+00 -1.642638e+00 -1.611508e+00 -1.565320e+00 -1.565605e+00 -1.515724e+00 -1.543598e+00 -1.483552e+00 -1.533608e+00 -1.461727e+00 -1.529250e+00 -1.446816e+00 -1.524483e+00 -1.437326e+00 -1.520593e+00 -1.438534e+00 -1.517860e+00 -1.447175e+00 -1.510912e+00 -1.460558e+00 -1.498673e+00 -1.475259e+00 -1.478092e+00 -1.489602e+00 -1.455671e+00 -1.508496e+00 -1.436294e+00 -1.528821e+00 -1.420407e+00 -1.547669e+00 -1.409530e+00 -1.561340e+00 -1.404672e+00 -1.568011e+00 -1.406181e+00 -1.562197e+00 -1.411671e+00 -1.547540e+00 -1.435213e+00 -1.538147e+00 -1.483216e+00 -1.527899e+00 -1.551459e+00 -1.504236e+00 -1.621859e+00 -1.980618e+00 -4.523940e+00 -1.716984e+00 1.462347e+00 3.951252e-01 -2.795471e-03 -2.644642e-02 
-1.230290e-02 -1.076569e-02 1.613364e-02 1.949051e-01 6.427071e-01 8.358614e-01 -1.624841e+00 -1.102644e+00 -3.378245e-01 -5.371565e-01 -2.466185e-01 -4.552868e-01 -1.478788e+00 -1.120883e+00 -7.789520e-01 -7.879813e-01 -7.839547e-01 -7.843092e-01 -7.881920e-01 -7.800329e-01 -1.147798e+00 -1.301065e+00 -4.103915e-01 -3.757481e-01 -4.240613e-01 -4.178706e-01 -4.403014e-01 -4.195729e-01 -4.515370e-01 -4.213281e-01 -4.602169e-01 -4.216302e-01 -4.655331e-01 -4.216244e-01 -4.686068e-01 -4.224391e-01 -4.700732e-01 -4.242110e-01 -4.701093e-01 -4.270956e-01 -4.694062e-01 -4.316245e-01 -4.690049e-01 -4.385842e-01 -4.701903e-01 -4.487145e-01 -4.740691e-01 -4.626166e-01 -4.818332e-01 -4.806270e-01 -4.943566e-01 -5.031091e-01 -5.117260e-01 -4.921817e-01 -3.089649e-01 2.760851e-02 -9.275646e-01 -2.518510e+00 -1.339033e+00 -3.788198e-01 -9.923509e-01 -5.989280e-01 -5.017043e-01 -5.529205e-01 -2.705429e-01 -3.511224e-01 -1.301729e-01 -1.579883e-01 8.049863e-02 -6.607822e-02 -1.051444e-01 1.358542e+00 1.319705e+00 -1.219278e-01 -5.548109e-01 -5.297809e-01 -5.184040e-01 -5.146242e-01 -5.136819e-01 -5.013382e-01 -4.974258e-01 -4.830413e-01 -4.818920e-01 -4.678095e-01 -4.706175e-01 -4.566799e-01 -4.637772e-01 -4.487986e-01 -4.601914e-01 -4.429025e-01 -4.589882e-01 -4.385922e-01 -4.594647e-01 -4.353561e-01 -4.605052e-01 -4.328760e-01 -4.613290e-01 -4.312685e-01 -4.613523e-01 -4.309425e-01 -4.602751e-01 -4.323915e-01 -4.575653e-01 -4.358249e-01 -4.528169e-01 -4.416187e-01 -4.458732e-01 -4.498315e-01 -4.366226e-01 -4.603318e-01 -4.253278e-01 -4.726679e-01 -4.123937e-01 -4.862053e-01 -3.985517e-01 -4.997243e-01 -3.820153e-01 -5.092181e-01 -3.524443e-01 -5.108394e-01 -2.576370e-01 -1.009571e+00 -1.235006e+00 3.700046e-01 3.187833e-01 2.081676e-02 -3.090607e-02 -1.915877e-02 
-1.184162e-02 -8.680429e-03 -7.121673e-03 6.901009e-03 7.812471e-02 1.815772e-01 -2.167790e-02 -3.179775e-02 4.507886e-02 7.125706e-02 2.262390e-01 2.731821e-01 -1.360552e+00 -1.309622e+00 -5.483233e-01 -5.472969e-01 -5.471259e-01 -5.471499e-01 -5.472952e-01 -5.478244e-01 -1.159278e+00 -1.191188e+00 7.503010e-02 4.209125e-02 -1.168044e-04 1.126049e-02 1.992477e-02 2.856334e-02 2.757024e-02 3.181739e-02 2.819353e-02 3.175694e-02 2.743033e-02 3.097161e-02 2.653961e-02 3.003865e-02 2.571954e-02 2.895112e-02 2.482104e-02 2.749364e-02 2.353870e-02 2.533758e-02 2.147450e-02 2.211357e-02 1.827399e-02 1.767025e-02 1.409054e-02 1.282589e-02 1.071391e-02 1.099320e-02 1.376745e-02 2.083906e-02 3.733219e-02 8.184776e-02 2.215201e-01 4.683490e-01 3.285575e-01 -2.174060e-02 4.320876e-01 3.513782e-01 9.704728e-03 4.080602e-01 1.299563e-01 1.844829e-01 3.315310e-01 7.096804e-02 3.494289e-01 1.929217e-01 1.785945e-01 4.653778e-01 8.408316e-02 3.856819e-01 1.028446e+00 7.148682e-01 2.717871e-01 1.187875e-01 6.823085e-02 4.100041e-02 2.385811e-02 1.513742e-02 1.116246e-02 1.089748e-02 1.189508e-02 1.422330e-02 1.624173e-02 1.876164e-02 2.031030e-02 2.239885e-02 2.313093e-02 2.489391e-02 2.483010e-02 2.653971e-02 2.575350e-02 2.764926e-02 2.620253e-02 2.843547e-02 2.638571e-02 2.900452e-02 2.643801e-02 2.939594e-02 2.646748e-02 2.962421e-02 2.657145e-02 2.967834e-02 2.682076e-02 2.952841e-02 2.727269e-02 2.916138e-02 2.799269e-02 2.861459e-02 2.908887e-02 2.806874e-02 3.087078e-02 2.811341e-02 3.422507e-02 3.021333e-02 4.116520e-02 3.690911e-02 5.455134e-02 5.030844e-02 8.098544e-02 4.097256e-02 4.284457e-02 8.440674e-02 7.291890e-03 -2.342155e-02 -2.115745e-02 -1.564509e-02 
-8.381557e-03 -6.873592e-03 -5.839872e-03 -5.693178e-03 -2.699878e-03 6.965166e-03 4.020281e-03 3.881543e-03 1.626728e-02 4.464013e-02 1.222933e-01 1.652258e-01 -6.928149e-01 -6.567618e-01 -2.750515e-01 -2.743297e-01 -2.743283e-01 -2.743282e-01 -2.743289e-01 -2.747270e-01 -5.672062e-01 -5.792919e-01 2.717684e-02 -8.541490e-03 -2.827775e-02 -1.960346e-02 -1.089792e-02 -5.893717e-03 -3.665550e-03 -2.265868e-03 -1.919666e-03 -1.564926e-03 -1.766242e-03 -1.735404e-03 -2.062408e-03 -2.137804e-03 -2.489251e-03 -2.646854e-03 -3.042488e-03 -3.330517e-03 -3.835145e-03 -4.323236e-03 -4.998270e-03 -5.705448e-03 -6.483150e-03 -7.162268e-03 -7.510027e-03 -7.175441e-03 -5.500159e-03 -1.757580e-03 5.207425e-03 1.622319e-02 3.211253e-02 5.680040e-02 1.155885e-01 2.559962e-01 3.988907e-01 2.851384e-01 1.274917e-01 1.498298e-01 2.512542e-01 2.759373e-01 1.452255e-01 1.783385e-01 1.776649e-01 8.123216e-02 1.499262e-01 6.817240e-02 -4.754345e-02 1.501695e-01 2.536152e-01 1.941152e-01 2.879619e-01 3.251963e-01 2.268045e-01 1.354873e-01 7.796944e-02 4.197533e-02 1.915458e-02 5.251687e-03 -2.768334e-03 -6.829099e-03 -8.480404e-03 -8.681680e-03 -8.156085e-03 -7.316106e-03 -6.414156e-03 -5.578407e-03 -4.854421e-03 -4.253603e-03 -3.772973e-03 -3.375418e-03 -3.082141e-03 -2.814899e-03 -2.651455e-03 -2.456651e-03 -2.384907e-03 -2.223671e-03 -2.220433e-03 -2.067460e-03 -2.117669e-03 -1.957505e-03 -2.049755e-03 -1.875093e-03 -1.998202e-03 -1.808124e-03 -1.947197e-03 -1.743515e-03 -1.872736e-03 -1.648644e-03 -1.711967e-03 -1.419894e-03 -1.285192e-03 -7.725953e-04 -1.631663e-04 8.804319e-04 2.358851e-03 4.176283e-03 6.435766e-03 8.213182e-03 1.024834e-02 1.061119e-02 9.601853e-03 2.230586e-04 -8.702363e-03 -1.034333e-02 -9.954355e-03 -9.344240e-03 
-4.772832e-06 -2.117800e-06 8.719594e-09 1.565031e-06 2.402555e-06 2.724027e-06 2.455376e-06 2.297164e-06 2.022773e-06 1.720398e-06 1.546607e-06 3.897731e-06 1.378525e-04 1.124678e-05 3.516629e-08 -2.001158e-11 6.947833e-11 3.028181e-11 -5.957698e-10 -5.298220e-07 -3.935594e-04 2.599862e-06 -1.880577e-05 4.378298e-05 1.584892e-05 -3.176252e-05 -6.550278e-05 -8.768719e-05 -1.075979e-04 -1.295570e-04 -1.575076e-04 -1.936273e-04 -2.400742e-04 -2.993997e-04 -3.734867e-04 -4.669274e-04 -5.819447e-04 -7.267107e-04 -9.038216e-04 -1.125873e-03 -1.393614e-03 -1.720138e-03 -2.093104e-03 -2.505556e-03 -2.896313e-03 -3.181637e-03 -3.178106e-03 -2.634533e-03 -1.172367e-03 1.668362e-03 6.396777e-03 1.341758e-02 2.261730e-02 3.318106e-02 4.510044e-02 6.230475e-02 8.168128e-02 7.638371e-02 5.831355e-02 5.285210e-02 5.877399e-02 6.515245e-02 6.525759e-02 7.146819e-02 7.740974e-02 8.320239e-02 9.691550e-02 1.035264e-01 1.241854e-01 1.546580e-01 1.585235e-01 1.808236e-01 2.065771e-01 1.809112e-01 1.313367e-01 8.835857e-02 5.683495e-02 3.430205e-02 1.866489e-02 8.343754e-03 1.937232e-03 -1.666313e-03 -3.426813e-03 -4.022980e-03 -3.970207e-03 -3.595066e-03 -3.096794e-03 -2.594440e-03 -2.129700e-03 -1.735211e-03 -1.399451e-03 -1.129605e-03 -9.053057e-04 -7.284756e-04 -5.824776e-04 -4.682310e-04 -3.742998e-04 -3.009873e-04 -2.409393e-04 -1.939145e-04 -1.554543e-04 -1.250595e-04 -1.002501e-04 -8.050958e-05 -6.454285e-05 -5.187137e-05 -4.176704e-05 -3.378527e-05 -2.744475e-05 -2.235110e-05 -1.820049e-05 -1.470814e-05 -1.182388e-05 -9.450414e-06 -7.784547e-06 -6.823133e-06 -6.811024e-06 -7.571858e-06 -9.133399e-06 -1.098242e-05 -1.292196e-05 -1.433370e-05 -1.531267e-05 -1.583956e-05 -1.514190e-05 -1.339521e-05 -1.071588e-05 -7.724398e-06 
8.371216e-03 6.869444e-03 5.840808e-03 5.697829e-03 2.706842e-03 -6.956184e-03 -4.016158e-03 -3.877046e-03 -1.626211e-02 -4.463316e-02 -1.222826e-01 -1.652106e-01 6.929719e-01 6.567727e-01 2.750515e-01 2.743297e-01 2.743284e-01 2.743282e-01 2.743289e-01 2.747269e-01 5.670891e-01 5.799011e-01 -2.738545e-02 8.581558e-03 2.830733e-02 1.953473e-02 1.075373e-02 5.695805e-03 3.418145e-03 1.962106e-03 1.544572e-03 1.098493e-03 1.181683e-03 1.001394e-03 1.138730e-03 9.766436e-04 1.030001e-03 8.146820e-04 7.445383e-04 4.506372e-04 2.362067e-04 -1.573904e-04 -5.310254e-04 -1.027123e-03 -1.526120e-03 -2.032173e-03 -2.459991e-03 -2.644014e-03 -2.496080e-03 -1.698643e-03 -2.156445e-04 2.256320e-03 5.446302e-03 9.213302e-03 1.267183e-02 1.572440e-02 1.807325e-02 1.902396e-02 1.944073e-02 2.142907e-02 2.408245e-02 2.695126e-02 2.960689e-02 3.282440e-02 3.645291e-02 4.090250e-02 4.632994e-02 5.268795e-02 6.112400e-02 7.001410e-02 7.807974e-02 8.492480e-02 8.331238e-02 7.113158e-02 5.467255e-02 3.880774e-02 2.532393e-02 1.468913e-02 6.935634e-03 1.736951e-03 -1.394190e-03 -2.985188e-03 -3.525151e-03 -3.415193e-03 -2.947459e-03 -2.334849e-03 -1.685110e-03 -1.087226e-03 -5.435961e-04 -9.837316e-05 2.968755e-04 5.917309e-04 8.706407e-04 1.047084e-03 1.250613e-03 1.336757e-03 1.498575e-03 1.514072e-03 1.658965e-03 1.617046e-03 1.761460e-03 1.671505e-03 1.823996e-03 1.693900e-03 1.855354e-03 1.693289e-03 1.856309e-03 1.670013e-03 1.813989e-03 1.600957e-03 1.673654e-03 1.389280e-03 1.260865e-03 7.537474e-04 1.479301e-04 -8.928733e-04 -2.370996e-03 -4.188924e-03 -6.451243e-03 -8.231298e-03 -1.027003e-02 -1.063377e-02 -9.627692e-03 -2.539118e-04 8.671383e-03 1.031484e-02 9.931071e-03 9.327353e-03 
1.182907e-02 8.676373e-03 7.124642e-03 -6.890996e-03 -7.809729e-02 -1.815146e-01 2.165783e-02 3.178170e-02 -4.507427e-02 -7.125182e-02 -2.262282e-01 -2.731635e-01 1.360780e+00 1.309590e+00 5.483234e-01 5.472976e-01 5.471293e-01 5.471544e-01 5.473008e-01 5.478313e-01 1.158272e+00 1.191148e+00 -7.511256e-02 -4.212843e-02 1.770345e-05 -1.143325e-02 -2.018529e-02 -2.885821e-02 -2.796625e-02 -3.226177e-02 -2.879723e-02 -3.246234e-02 -2.838593e-02 -3.212168e-02 -2.807584e-02 -3.191658e-02 -2.818653e-02 -3.198801e-02 -2.876140e-02 -3.237431e-02 -2.982134e-02 -3.314652e-02 -3.142660e-02 -3.441647e-02 -3.364351e-02 -3.625864e-02 -3.643470e-02 -3.857074e-02 -3.950777e-02 -4.093237e-02 -4.225219e-02 -4.269733e-02 -4.404585e-02 -4.348769e-02 -4.477859e-02 -4.334923e-02 -4.438120e-02 -4.289849e-02 -4.463710e-02 -4.196632e-02 -4.277316e-02 -4.022336e-02 -4.043207e-02 -3.806900e-02 -3.774839e-02 -3.509577e-02 -3.393006e-02 -3.075638e-02 -2.847278e-02 -2.507699e-02 -2.274705e-02 -2.111073e-02 -2.244769e-02 -2.549348e-02 -2.980382e-02 -3.432328e-02 -3.811359e-02 -4.100116e-02 -4.243426e-02 -4.302448e-02 -4.239139e-02 -4.149543e-02 -3.983056e-02 -3.849316e-02 -3.662979e-02 -3.553270e-02 -3.381883e-02 -3.324772e-02 -3.167810e-02 -3.171016e-02 -3.013046e-02 -3.077596e-02 -2.901069e-02 -3.027177e-02 -2.819118e-02 -3.005968e-02 -2.759455e-02 -3.001734e-02 -2.717297e-02 -3.003714e-02 -2.691640e-02 -3.003459e-02 -2.684294e-02 -2.993977e-02 -2.698286e-02 -2.969550e-02 -2.736982e-02 -2.926728e-02 -2.804892e-02 -2.867758e-02 -2.911834e-02 -2.810181e-02 -3.088474e-02 -2.812962e-02 -3.423517e-02 -3.022444e-02 -4.117736e-02 -3.691894e-02 -5.456611e-02 -5.031833e-02 -8.100093e-02 -4.096044e-02 -4.285015e-02 -8.445328e-02 -7.328351e-03 2.338753e-02 2.112871e-02 1.562414e-02 
1.228699e-02 1.075973e-02 -1.612959e-02 -1.948684e-01 -6.425308e-01 -8.353915e-01 1.624578e+00 1.102434e+00 3.378341e-01 5.371146e-01 2.466067e-01 4.552222e-01 1.478514e+00 1.120721e+00 7.789534e-01 7.879969e-01 7.840374e-01 7.844193e-01 7.883213e-01 7.801995e-01 1.147162e+00 1.301147e+00 4.098393e-01 3.758174e-01 4.239479e-01 4.182000e-01 4.399923e-01 4.197833e-01 4.510030e-01 4.214979e-01 4.596861e-01 4.220294e-01 4.652564e-01 4.221739e-01 4.679951e-01 4.222419e-01 4.682060e-01 4.226176e-01 4.664109e-01 4.234561e-01 4.629493e-01 4.246506e-01 4.579029e-01 4.255598e-01 4.510907e-01 4.257278e-01 4.427917e-01 4.247133e-01 4.326845e-01 4.214288e-01 4.204300e-01 4.155515e-01 4.066315e-01 4.076146e-01 3.927527e-01 3.998637e-01 3.811097e-01 3.874249e-01 3.691699e-01 3.927552e-01 3.749725e-01 3.963459e-01 3.827432e-01 3.993688e-01 3.882839e-01 4.020043e-01 3.926464e-01 4.036080e-01 3.970993e-01 4.061529e-01 4.020722e-01 4.120415e-01 4.047212e-01 4.043895e-01 4.014571e-01 4.021541e-01 4.033373e-01 4.045785e-01 4.097041e-01 4.107838e-01 4.186167e-01 4.181492e-01 4.277276e-01 4.246460e-01 4.357108e-01 4.291366e-01 4.419637e-01 4.313926e-01 4.468857e-01 4.320959e-01 4.510887e-01 4.319147e-01 4.549390e-01 4.314213e-01 4.581545e-01 4.304536e-01 4.599048e-01 4.293735e-01 4.603266e-01 4.293712e-01 4.595961e-01 4.312511e-01 4.573927e-01 4.351953e-01 4.528561e-01 4.409529e-01 4.456212e-01 4.490109e-01 4.363093e-01 4.597573e-01 4.254135e-01 4.728167e-01 4.131298e-01 4.867399e-01 3.989654e-01 4.995414e-01 3.815845e-01 5.085904e-01 3.519086e-01 5.104797e-01 2.574766e-01 1.009853e+00 1.235139e+00 -3.701418e-01 -3.188414e-01 -2.085853e-02 3.087028e-02 1.913288e-02 
1.095500e-02 -1.432994e-02 -1.816817e-01 -6.392757e-01 3.535291e-01 1.718590e+00 3.019013e+00 2.340110e+00 1.124328e+00 1.546631e+00 1.093060e+00 1.364718e+00 1.285453e+00 1.370105e+00 1.093071e+00 1.326901e+00 1.155250e+00 1.309922e+00 1.182075e+00 1.237593e+00 1.278684e+00 1.337208e+00 1.222002e+00 1.141277e+00 1.359822e+00 1.272997e+00 1.447953e+00 1.327025e+00 1.484591e+00 1.350972e+00 1.498102e+00 1.369930e+00 1.506473e+00 1.392183e+00 1.508597e+00 1.409726e+00 1.501238e+00 1.422138e+00 1.489243e+00 1.431806e+00 1.477439e+00 1.441596e+00 1.467943e+00 1.448357e+00 1.458535e+00 1.453774e+00 1.455235e+00 1.461014e+00 1.452719e+00 1.459298e+00 1.441513e+00 1.447206e+00 1.425301e+00 1.432444e+00 1.412149e+00 1.423762e+00 1.403784e+00 1.408935e+00 1.387936e+00 1.403663e+00 1.379506e+00 1.394312e+00 1.371586e+00 1.387445e+00 1.361175e+00 1.379950e+00 1.347507e+00 1.367989e+00 1.335457e+00 1.362304e+00 1.336094e+00 1.370391e+00 1.343768e+00 1.368520e+00 1.354822e+00 1.378669e+00 1.379599e+00 1.393681e+00 1.410579e+00 1.409135e+00 1.441632e+00 1.419381e+00 1.467720e+00 1.425489e+00 1.489406e+00 1.427004e+00 1.501058e+00 1.423080e+00 1.505949e+00 1.422838e+00 1.509329e+00 1.429952e+00 1.512395e+00 1.446055e+00 1.511458e+00 1.460944e+00 1.495308e+00 1.470052e+00 1.471292e+00 1.483957e+00 1.451437e+00 1.507750e+00 1.439409e+00 1.534232e+00 1.425235e+00 1.547940e+00 1.406054e+00 1.553833e+00 1.397357e+00 1.560889e+00 1.405108e+00 1.566954e+00 1.424283e+00 1.559717e+00 1.443113e+00 1.536102e+00 1.475512e+00 1.517044e+00 1.542937e+00 1.499349e+00 1.622230e+00 1.985465e+00 4.526927e+00 1.718981e+00 -1.461956e+00 -3.951117e-01 2.760005e-03 2.641525e-02 
1.590085e-02 -8.708438e-03 -1.897503e-01 -5.611859e-01 1.781773e+00 4.153684e+00 4.453722e-02 6.447310e-01 6.468481e-01 7.222771e-01 5.921973e-01 5.022881e-01 -5.707565e-01 -2.190445e-01 -2.546952e-02 -1.441569e-01 -1.538327e-01 -1.695488e-01 -1.020406e-01 -9.700695e-02 -1.778679e-01 -5.132219e-01 5.751089e-01 5.124523e-01 7.646670e-01 6.064604e-01 8.205120e-01 6.622158e-01 8.361688e-01 6.923177e-01 8.317717e-01 7.221278e-01 8.290822e-01 7.584754e-01 8.238598e-01 7.869560e-01 8.099164e-01 8.055916e-01 7.934308e-01 8.175140e-01 7.809511e-01 8.272279e-01 7.753007e-01 8.311607e-01 7.731106e-01 8.328409e-01 7.827172e-01 8.382541e-01 7.965630e-01 8.337545e-01 8.012119e-01 8.188898e-01 8.017799e-01 8.055702e-01 8.083110e-01 8.031384e-01 8.180587e-01 8.025651e-01 8.124106e-01 7.699499e-01 7.776501e-01 7.408663e-01 7.405555e-01 7.194150e-01 7.066899e-01 6.998096e-01 6.729462e-01 6.782271e-01 6.442575e-01 6.666683e-01 6.369383e-01 6.703208e-01 6.494882e-01 6.964675e-01 6.822555e-01 7.239846e-01 7.225056e-01 7.488771e-01 7.644645e-01 7.677227e-01 8.025915e-01 7.763811e-01 8.325130e-01 7.794457e-01 8.565577e-01 7.779694e-01 8.667671e-01 7.712512e-01 8.674106e-01 7.724005e-01 8.655852e-01 7.861302e-01 8.626774e-01 8.140770e-01 8.539812e-01 8.410855e-01 8.243816e-01 8.593338e-01 7.852379e-01 8.823711e-01 7.550805e-01 9.160590e-01 7.406962e-01 9.485926e-01 7.289314e-01 9.562588e-01 7.164446e-01 9.453179e-01 7.260218e-01 9.285388e-01 7.657634e-01 9.030455e-01 8.268055e-01 8.519380e-01 8.897926e-01 7.712956e-01 9.729371e-01 6.888933e-01 1.115875e+00 5.850976e-01 1.408670e+00 -5.101781e-03 3.568563e+00 3.345919e+00 -1.798800e+00 -6.432222e-01 -5.320143e-02 2.149086e-02 
1.704118e-02 3.943133e-03 -7.301716e-02 -1.704283e-01 1.045303e+00 2.237542e+00 -2.172597e+00 -1.181923e+00 -2.771081e-01 -5.606648e-01 -4.208052e-01 -5.488912e-01 1.109090e+00 -2.639702e-01 -4.553596e-01 -6.956419e-01 -3.302505e-01 -7.415712e-01 -3.401617e-01 -7.951223e-01 8.260321e-02 6.952474e-01 -3.367233e-01 -5.108668e-01 -4.049495e-01 -4.661320e-01 -4.074191e-01 -4.583788e-01 -4.228351e-01 -4.496982e-01 -4.369897e-01 -4.372140e-01 -4.459768e-01 -4.218580e-01 -4.526427e-01 -4.100481e-01 -4.597706e-01 -4.031842e-01 -4.656390e-01 -4.004193e-01 -4.682769e-01 -4.001131e-01 -4.669449e-01 -4.030766e-01 -4.630417e-01 -4.076687e-01 -4.541209e-01 -4.112313e-01 -4.428689e-01 -4.174689e-01 -4.338691e-01 -4.257475e-01 -4.256690e-01 -4.318038e-01 -4.161373e-01 -4.346798e-01 -4.091217e-01 -4.319107e-01 -4.076627e-01 -4.589243e-01 -4.332289e-01 -4.778708e-01 -4.603823e-01 -4.913635e-01 -4.820237e-01 -5.015467e-01 -4.997091e-01 -5.084589e-01 -5.127228e-01 -5.100048e-01 -5.155630e-01 -5.078864e-01 -5.061122e-01 -4.806811e-01 -4.844812e-01 -4.630928e-01 -4.663177e-01 -4.503528e-01 -4.497740e-01 -4.422145e-01 -4.356909e-01 -4.388134e-01 -4.249823e-01 -4.378084e-01 -4.167877e-01 -4.382964e-01 -4.139449e-01 -4.401094e-01 -4.151378e-01 -4.384875e-01 -4.180381e-01 -4.318027e-01 -4.222212e-01 -4.196132e-01 -4.288982e-01 -4.071348e-01 -4.426159e-01 -3.975731e-01 -4.590677e-01 -3.871949e-01 -4.712875e-01 -3.748358e-01 -4.760852e-01 -3.653265e-01 -4.771104e-01 -3.675763e-01 -4.749035e-01 -3.801296e-01 -4.613310e-01 -3.989743e-01 -4.337100e-01 -4.251872e-01 -3.957897e-01 -4.644870e-01 -3.557857e-01 -5.192809e-01 -3.107034e-01 -5.863800e-01 -2.518848e-01 -7.003639e-01 -1.202350e-01 -1.668507e+00 -3.905038e-01 1.523034e+00 -4.720733e-01 -1.724720e-01 1.198338e-02 2.481640e-02 
1.134387e-02 1.024317e-02 6.622704e-04 1.068318e-03 1.885842e-01 4.478092e-01 -7.824744e-01 -5.028734e-01 -1.207653e-01 -2.591109e-01 -2.089857e-01 -3.808823e-01 3.915326e-01 1.711588e+00 2.235090e+00 1.766993e+00 2.154766e+00 1.964260e+00 1.958543e+00 2.261993e+00 1.694254e+00 1.753294e-01 -3.149239e-01 -2.520888e-01 -2.156558e-01 -2.147468e-01 -2.217375e-01 -2.182380e-01 -2.285078e-01 -2.173641e-01 -2.325192e-01 -2.156233e-01 -2.351839e-01 -2.140432e-01 -2.368184e-01 -2.130643e-01 -2.375716e-01 -2.128890e-01 -2.375391e-01 -2.135559e-01 -2.367985e-01 -2.149882e-01 -2.354335e-01 -2.170062e-01 -2.335454e-01 -2.193882e-01 -2.312319e-01 -2.217673e-01 -2.284283e-01 -2.236760e-01 -2.252087e-01 -2.251547e-01 -2.226816e-01 -2.283183e-01 -2.248506e-01 -2.346668e-01 -2.220240e-01 -2.246898e-01 -2.121674e-01 -2.227397e-01 -2.052719e-01 -2.127644e-01 -1.995127e-01 -2.047587e-01 -1.947906e-01 -1.983509e-01 -1.908468e-01 -1.927235e-01 -1.882321e-01 -1.887776e-01 -1.870815e-01 -1.908297e-01 -1.914284e-01 -1.914074e-01 -1.983367e-01 -2.033887e-01 -2.124986e-01 -2.151664e-01 -2.218916e-01 -2.220123e-01 -2.263336e-01 -2.248209e-01 -2.273783e-01 -2.252975e-01 -2.270400e-01 -2.249436e-01 -2.266670e-01 -2.243952e-01 -2.267715e-01 -2.236914e-01 -2.274358e-01 -2.227592e-01 -2.286297e-01 -2.215653e-01 -2.301621e-01 -2.200894e-01 -2.317765e-01 -2.185290e-01 -2.332764e-01 -2.172323e-01 -2.343731e-01 -2.165489e-01 -2.346849e-01 -2.168418e-01 -2.338448e-01 -2.184962e-01 -2.315650e-01 -2.218375e-01 -2.276420e-01 -2.270672e-01 -2.220728e-01 -2.343241e-01 -2.151867e-01 -2.437816e-01 -2.078151e-01 -2.561863e-01 -2.015437e-01 -2.743258e-01 -1.981370e-01 -3.085716e-01 -1.855427e-01 -6.164810e-01 -5.604821e-01 1.996317e-01 6.046569e-02 2.996753e-02 2.221639e-02 1.437341e-02 
