# vtk DataFile Version 2.0
Comment goes here
ASCII

DATASET STRUCTURED_POINTS
FIELD FieldData 1
TIME 1 1 double
0.06000000
DIMENSIONS    128   16   1

ORIGIN    0.000   0.000   0.000
SPACING   0.0078125 0.015625   1.000

POINT_DATA   2048
SCALARS Omega double
LOOKUP_TABLE default

-2.451393e-07 -2.082674e-07 -1.362176e-07 -6.946207e-07 3.438072e-07 -3.513294e-06 -2.348820e-05 -4.440033e-05 -7.911359e-05 -1.370988e-04 -3.141828e-05 1.394270e-04 2.125275e-04 2.242346e-04 7.604094e-05 1.043162e-05 -1.430719e-04 -4.226646e-04 1.468449e-05 2.295213e-04 -1.786192e-05 -2.437064e-04 -3.819352e-04 -2.381998e-05 6.037278e-04 5.852437e-04 -1.279105e-04 -3.841792e-04 1.445317e-04 1.062870e-04 -5.502028e-04 -4.553275e-04 5.050839e-04 7.302219e-04 2.634398e-04 2.178013e-04 5.841005e-04 1.041643e-04 -3.129989e-04 4.345161e-04 4.512928e-04 -1.999876e-04 1.062308e-03 1.199234e-03 8.928583e-04 1.644623e-03 1.255822e-03 1.003060e-03 2.059195e-03 2.228766e-03 3.391505e-03 4.599994e-03 4.720010e-03 4.677325e-03 -1.102551e-03 -1.960271e-02 -5.286603e-02 -5.224984e-02 3.976679e-04 2.900177e-02 2.038694e-02 1.059583e-02 -4.106265e-03 -1.562162e-02 -1.301144e-02 -2.385463e-03 2.681611e-02 8.604051e-02 1.948848e-01 3.694124e-01 5.530546e-01 6.345736e-01 5.275699e-01 2.884013e-01 8.934368e-02 2.089697e-03 -1.740961e-02 -1.528896e-02 -1.017870e-02 -5.928549e-03 -3.338520e-03 -1.990930e-03 -1.189707e-03 -1.080948e-03 -6.554142e-04 -1.205132e-04 4.688482e-04 6.691242e-04 3.430733e-04 2.096213e-04 -6.365819e-04 2.291389e-04 2.257909e-04 3.913417e-04 1.231281e-03 -5.088989e-04 -2.917982e-04 3.544725e-05 -5.249010e-04 5.638851e-04 9.788320e-04 -6.912864e-04 -6.971667e-04 3.748203e-04 5.342709e-05 -1.172712e-04 5.849395e-04 6.724122e-05 -1.010492e-03 -1.010465e-04 1.348555e-03 7.657333e-04 -8.514594e-04 -6.532919e-04 6.250803e-04 7.728065e-04 -3.667639e-04 -8.428562e-04 -1.897696e-04 4.288755e-04 3.352678e-04 1.832933e-05 -1.160109e-04 -2.007303e-05 -5.392729e-06 -3.256225e-06 -2.942535e-06 -4.756972e-07 
-1.102863e-03 -3.360980e-03 -7.372032e-03 1.294025e-02 1.816832e-01 2.398450e-01 -8.306143e-01 -5.372558e-01 -1.845462e-01 -2.822109e-01 -2.757827e-01 -4.418891e-01 4.350570e-01 1.939093e+00 2.521787e+00 2.108769e+00 2.444861e+00 2.237342e+00 2.162607e+00 2.502013e+00 1.927246e+00 3.618068e-01 -3.474844e-01 -3.739424e-01 -3.361564e-01 -1.712554e-01 -1.500349e-01 -2.355163e-01 -3.081876e-01 -2.558374e-01 -2.814953e-01 -3.587016e-01 -3.386861e-01 -2.322920e-01 -2.310519e-01 -2.987385e-01 -2.154710e-01 -1.348221e-01 -2.633796e-01 -3.485993e-01 -3.138813e-01 -3.606042e-01 -3.083917e-01 -1.708311e-01 -2.014177e-01 -2.187988e-01 -2.283767e-01 -3.407640e-01 -3.474865e-01 -3.286773e-01 -3.415278e-01 -2.555279e-01 -2.312268e-01 -1.842435e-01 -2.157789e-01 -3.426665e-01 -2.968962e-01 2.110099e-02 1.480327e-01 1.151366e-02 2.563430e-01 3.898210e-01 2.780868e-01 1.863644e-01 4.210934e-02 1.228878e-02 1.057316e-01 1.576517e-01 2.456965e-01 2.933591e-01 -1.482145e-01 -2.112427e-01 4.687424e-01 6.936990e-01 3.189532e-01 -9.152447e-03 -1.674588e-01 -3.139442e-01 -4.091487e-01 -3.975871e-01 -3.086341e-01 -1.637732e-01 -1.187678e-01 -1.987629e-01 -3.186899e-01 -3.927724e-01 -3.543790e-01 -2.409852e-01 -1.234980e-01 -1.399606e-01 -2.270103e-01 -3.272670e-01 -3.904928e-01 -2.032278e-01 -1.426387e-01 -1.693780e-01 -1.874379e-01 -4.107780e-01 -4.057377e-01 -1.566681e-01 -1.478518e-01 -1.459158e-01 -1.674666e-01 -3.547398e-01 -4.603324e-01 -1.799507e-01 -3.201120e-02 -2.551222e-01 -3.911304e-01 -2.751030e-01 -2.008452e-01 -2.448710e-01 -1.920681e-01 -2.296781e-01 -3.337825e-01 -4.263526e-01 -1.614514e-01 -7.007940e-02 -1.786811e-01 -5.171142e-01 -2.461570e-01 -4.194219e-01 -4.836494e-01 1.763242e-01 3.710184e-02 -1.134782e-02 -7.027097e-03 -1.947092e-03 
-9.717926e-03 -3.157542e-02 -1.191315e-01 -1.784456e-01 1.050421e+00 1.736792e+00 -2.281189e+00 -1.292595e+00 -4.242872e-01 -5.246353e-01 -4.702786e-01 -6.338372e-01 1.042164e+00 -1.931020e-01 -5.281859e-01 -6.252788e-01 -3.042666e-01 -8.341404e-01 -5.765309e-01 -1.005453e+00 -1.024077e-01 9.135108e-01 -3.665653e-01 -7.833531e-01 -7.937698e-01 -3.370298e-01 -1.376669e-01 -4.857885e-01 -7.393187e-01 -6.991580e-01 -6.539048e-01 -8.402605e-01 -7.314764e-01 -4.523806e-01 -3.897612e-01 -6.515829e-01 -4.028286e-01 -1.705899e-01 -5.244972e-01 -7.534883e-01 -6.614429e-01 -9.313456e-01 -7.706649e-01 -1.826004e-01 -3.010600e-01 -5.161068e-01 -5.375150e-01 -6.943124e-01 -7.708225e-01 -8.064172e-01 -9.043174e-01 -5.500033e-01 -4.902072e-01 -3.033170e-01 -2.679128e-01 -3.730540e-01 6.551266e-02 4.253805e-01 -1.120457e-01 -6.063851e-01 4.138053e-02 1.532046e-01 -6.179249e-02 -1.292200e-01 -5.919735e-01 -7.136531e-01 -3.502671e-01 -3.384578e-01 -2.087917e-01 -1.217971e-01 -9.397780e-01 -1.595412e+00 -1.238534e+00 -5.286970e-01 -2.199420e-01 -1.630031e-01 -3.350616e-01 -6.976200e-01 -1.021737e+00 -9.566492e-01 -6.680763e-01 -3.045655e-01 -7.124787e-02 -3.113157e-01 -6.810983e-01 -8.775075e-01 -8.094266e-01 -4.902262e-01 -9.646259e-02 -1.853918e-01 -4.328665e-01 -7.987797e-01 -9.338320e-01 -3.491408e-01 -1.858550e-01 -2.757365e-01 -3.545808e-01 -9.966844e-01 -9.343237e-01 -1.871744e-01 -2.296420e-01 -2.105098e-01 -3.232978e-01 -8.036507e-01 -1.095700e+00 -1.565714e-01 1.944656e-01 -5.320275e-01 -1.017374e+00 -5.875441e-01 -3.543009e-01 -4.712684e-01 -2.840327e-01 -3.339426e-01 -6.756644e-01 -1.065585e+00 -2.919697e-01 1.118733e-02 -1.612347e-01 -1.362380e+00 -5.258991e-01 -1.250077e+00 -2.599553e-01 1.583260e+00 -3.577703e-01 -3.193973e-01 -1.011206e-01 -2.366506e-02 
-2.425568e-02 -8.418334e-02 -3.372686e-01 -6.737768e-01 1.935999e+00 4.195600e+00 6.923790e-02 5.950410e-01 6.292609e-01 8.607821e-01 6.350864e-01 4.337933e-01 -7.654157e-01 -3.471632e-01 -1.682199e-01 -2.930798e-01 -2.282746e-01 -2.518435e-01 -4.891654e-02 -1.663746e-01 -4.916820e-01 -7.573577e-01 6.337153e-01 5.168320e-01 5.509929e-01 7.284144e-01 1.154824e+00 7.812475e-01 5.992538e-01 3.150657e-01 6.362621e-01 6.735482e-01 8.581918e-01 8.661372e-01 1.034673e+00 7.804129e-01 8.801094e-01 9.439476e-01 8.732732e-01 8.661839e-01 8.685549e-01 4.196219e-01 5.101715e-01 1.193494e+00 1.065492e+00 5.817804e-01 5.825226e-01 9.747552e-01 8.133964e-01 5.625018e-01 3.872058e-01 7.831745e-01 7.588465e-01 8.684716e-01 8.146613e-01 3.689033e-01 9.416832e-02 -1.844895e-01 -1.250214e-01 2.343977e-01 3.512219e-01 1.947135e-01 2.733218e-01 4.502087e-01 3.067093e-01 2.206782e-01 4.079342e-01 4.558929e-02 3.931807e-01 6.566912e-01 5.961858e-01 5.238546e-01 6.422141e-02 1.126135e-01 4.401761e-01 8.327519e-01 7.478028e-01 6.481675e-01 4.293562e-01 5.701061e-01 7.644146e-01 7.416893e-01 1.091077e+00 9.933278e-01 8.240582e-01 8.200295e-01 7.343448e-01 8.121733e-01 1.068151e+00 9.305619e-01 8.540444e-01 5.550515e-01 6.431158e-01 9.352691e-01 9.679501e-01 8.773011e-01 7.882100e-01 6.101984e-01 7.452117e-01 1.064272e+00 8.712710e-01 8.920574e-01 7.140029e-01 7.636599e-01 6.883276e-01 1.326373e+00 1.224597e+00 7.942542e-01 3.735130e-01 7.809401e-01 9.130974e-01 9.013233e-01 1.017316e+00 1.162530e+00 9.798905e-01 5.293068e-01 7.846863e-01 9.447370e-01 1.312095e+00 3.304368e-01 8.524854e-01 -5.062659e-02 3.545353e+00 3.874474e+00 -1.332254e+00 -9.256403e-01 -2.668147e-01 -5.834092e-02 
-1.930503e-02 -6.434282e-02 -2.678306e-01 -6.716209e-01 5.596885e-01 2.311457e+00 3.009472e+00 2.278059e+00 1.151710e+00 1.525146e+00 1.117912e+00 1.441328e+00 1.414240e+00 1.361481e+00 1.113252e+00 1.300012e+00 1.166811e+00 1.296826e+00 1.242959e+00 1.279438e+00 1.332742e+00 1.253156e+00 1.329879e+00 1.438912e+00 1.565881e+00 1.163878e+00 1.397653e+00 1.432414e+00 1.575919e+00 1.184464e+00 1.497847e+00 1.791122e+00 1.860068e+00 1.482746e+00 1.592661e+00 1.655711e+00 1.428498e+00 1.184798e+00 1.587069e+00 1.895281e+00 1.769463e+00 1.621242e+00 1.503093e+00 1.490345e+00 1.496701e+00 1.237174e+00 1.263798e+00 1.931286e+00 1.845833e+00 1.605244e+00 1.532387e+00 1.500279e+00 1.383196e+00 1.245133e+00 1.096797e+00 7.019912e-01 6.723213e-01 1.174951e+00 1.373073e+00 1.262374e+00 7.343055e-01 4.968721e-01 7.810440e-01 1.236607e+00 1.620715e+00 1.728952e+00 1.433421e+00 6.036062e-01 7.479196e-01 1.244157e+00 1.508647e+00 1.667411e+00 1.733604e+00 1.521145e+00 1.091630e+00 1.109090e+00 1.121556e+00 1.490745e+00 1.694192e+00 1.786725e+00 1.624069e+00 1.105231e+00 1.193579e+00 1.413486e+00 1.731342e+00 2.000196e+00 1.810897e+00 1.462071e+00 1.216612e+00 1.180705e+00 1.433646e+00 1.589488e+00 1.881510e+00 1.411099e+00 1.230428e+00 1.244420e+00 1.252715e+00 1.928960e+00 1.998142e+00 1.340107e+00 1.177912e+00 1.174500e+00 1.119469e+00 1.844723e+00 2.152866e+00 1.604785e+00 9.980018e-01 1.509488e+00 1.677088e+00 1.566442e+00 1.392614e+00 1.549201e+00 1.415128e+00 1.656747e+00 1.913916e+00 1.931317e+00 1.161595e+00 9.245183e-01 1.600147e+00 2.110041e+00 1.614927e+00 1.561339e+00 4.453693e+00 2.033927e+00 -1.564067e+00 -8.932953e-01 -2.489601e-01 -5.214259e-02 
-4.785154e-03 -1.758896e-02 -7.893629e-02 -2.785127e-01 -6.091413e-01 -4.507053e-01 1.508177e+00 8.867586e-01 2.218770e-01 3.755155e-01 1.969999e-01 5.152091e-01 1.597241e+00 1.145496e+00 7.777451e-01 7.776099e-01 7.661920e-01 7.671536e-01 7.792884e-01 7.791949e-01 1.222784e+00 1.377587e+00 3.129418e-01 3.976363e-01 5.104871e-01 2.237537e-01 2.112232e-01 3.632965e-01 5.139462e-01 3.884245e-01 4.543554e-01 6.072096e-01 5.778292e-01 3.553609e-01 3.582498e-01 4.879488e-01 3.183703e-01 1.549956e-01 4.143401e-01 5.937278e-01 5.193827e-01 6.020777e-01 4.954616e-01 2.387851e-01 2.876312e-01 3.145942e-01 3.305537e-01 5.731901e-01 5.786196e-01 5.326213e-01 5.512865e-01 3.850722e-01 3.319809e-01 2.445106e-01 2.998868e-01 5.713135e-01 1.563679e+00 2.408630e+00 1.404774e+00 7.270415e-01 8.638940e-01 2.200713e-01 2.063174e-01 8.766597e-01 8.775208e-01 8.271254e-01 7.409246e-01 3.738737e-01 4.333632e-02 3.974555e-01 7.655112e-01 5.700097e-01 9.029424e-01 9.490367e-01 4.263980e-01 1.655230e-01 1.599072e-01 4.041280e-01 6.060804e-01 6.139069e-01 4.532974e-01 1.661796e-01 9.250928e-02 2.590294e-01 5.073173e-01 6.647958e-01 5.879348e-01 3.581541e-01 1.232925e-01 1.535416e-01 3.312379e-01 5.286355e-01 6.669152e-01 2.851983e-01 1.689778e-01 2.133293e-01 2.511438e-01 7.069086e-01 6.987722e-01 1.963376e-01 1.754250e-01 1.687354e-01 2.018759e-01 6.006750e-01 8.084092e-01 2.558555e-01 -6.018072e-02 3.986456e-01 6.503098e-01 4.349571e-01 2.807516e-01 3.814584e-01 2.613066e-01 3.484915e-01 5.584464e-01 7.390703e-01 1.991909e-01 6.214629e-03 2.596399e-01 9.186897e-01 4.413080e-01 7.200981e-01 1.029790e+00 -5.564474e-01 -6.455329e-01 -2.556136e-01 -6.434257e-02 -1.204633e-02 
-6.555030e-04 -1.887826e-03 -1.048559e-02 -4.298940e-02 -1.277643e-01 -2.133185e-01 -6.984319e-02 -7.548561e-02 -1.201734e-01 -1.164787e-01 -1.968542e-01 -1.578630e-01 1.402869e+00 1.283307e+00 5.479267e-01 5.468440e-01 5.463293e-01 5.463885e-01 5.468815e-01 5.483243e-01 1.319475e+00 1.338384e+00 -2.920992e-01 -2.642836e-01 -1.369423e-01 -1.061436e-01 -9.473444e-02 -8.738136e-02 -8.182470e-02 -8.808160e-02 -8.487779e-02 -7.860673e-02 -8.217719e-02 -9.212805e-02 -9.168222e-02 -8.562182e-02 -9.390422e-02 -1.004883e-01 -8.824238e-02 -8.185808e-02 -8.530382e-02 -7.932939e-02 -8.645781e-02 -9.829839e-02 -9.516852e-02 -9.480710e-02 -9.340540e-02 -8.265985e-02 -8.397403e-02 -8.513007e-02 -8.563963e-02 -9.360181e-02 -8.864537e-02 -6.008670e-02 4.452047e-02 2.656147e-01 6.959155e-01 8.381239e-01 2.763663e-01 2.301724e-01 6.169146e-01 1.027452e-01 6.073378e-03 4.421979e-01 2.378424e-01 7.762382e-02 1.986072e-01 3.679156e-01 1.182587e-01 7.777587e-02 3.932301e-01 3.378651e-01 4.088839e-01 4.343236e-01 1.808469e-01 -1.395187e-02 -8.717475e-02 -9.628162e-02 -8.990757e-02 -8.943287e-02 -9.536440e-02 -1.062795e-01 -1.085511e-01 -9.937784e-02 -8.742908e-02 -8.059564e-02 -8.387700e-02 -9.395657e-02 -1.035269e-01 -1.017507e-01 -9.192288e-02 -8.440329e-02 -7.842295e-02 -9.559698e-02 -1.022203e-01 -9.689503e-02 -9.527803e-02 -7.621788e-02 -7.531243e-02 -1.001589e-01 -1.008058e-01 -9.879407e-02 -9.579050e-02 -8.223037e-02 -7.088748e-02 -9.699220e-02 -1.105024e-01 -9.005848e-02 -7.552417e-02 -8.792096e-02 -9.693778e-02 -9.169770e-02 -9.392143e-02 -9.024795e-02 -8.459061e-02 -7.483309e-02 -9.880815e-02 -1.034157e-01 -9.776927e-02 -6.455770e-02 -9.632526e-02 -7.684025e-02 -9.738670e-02 -1.823882e-01 -1.085325e-01 -3.770480e-02 -9.580822e-03 -1.977887e-03 
-7.352378e-05 -2.552687e-04 -1.123979e-03 -4.184384e-03 -1.290838e-02 -2.650059e-02 -2.612976e-02 -2.269105e-02 -2.421923e-02 -3.459669e-02 -7.629935e-02 -8.345177e-02 7.085514e-01 6.403344e-01 2.748264e-01 2.743288e-01 2.743278e-01 2.743280e-01 2.743295e-01 2.750561e-01 6.546696e-01 6.592459e-01 -1.688253e-01 -1.336654e-01 -5.548411e-02 -2.648257e-02 -1.924930e-02 -1.813674e-02 -1.815597e-02 -1.828523e-02 -1.833399e-02 -1.839701e-02 -1.852643e-02 -1.856251e-02 -1.855531e-02 -1.857997e-02 -1.861261e-02 -1.858663e-02 -1.855449e-02 -1.863624e-02 -1.864835e-02 -1.857559e-02 -1.869506e-02 -1.867039e-02 -1.865112e-02 -1.872222e-02 -1.871071e-02 -1.868168e-02 -1.878415e-02 -1.874958e-02 -1.886923e-02 -1.881663e-02 -1.810616e-02 -1.635769e-02 -1.918638e-02 -3.813846e-02 3.775143e-03 1.490050e-01 1.386508e-01 -2.941031e-02 -4.072542e-02 -2.738002e-02 -1.421953e-02 5.233174e-02 6.845291e-02 7.415356e-02 8.535308e-02 1.584634e-01 1.528446e-01 1.241484e-01 1.372384e-01 1.049058e-01 1.579942e-01 2.053091e-01 1.351435e-01 4.457925e-02 -1.444606e-03 -1.612112e-02 -1.944064e-02 -1.991012e-02 -1.980592e-02 -1.961422e-02 -1.944925e-02 -1.926732e-02 -1.912431e-02 -1.904235e-02 -1.897514e-02 -1.893211e-02 -1.883790e-02 -1.879696e-02 -1.866208e-02 -1.868780e-02 -1.869555e-02 -1.865091e-02 -1.873172e-02 -1.857007e-02 -1.852267e-02 -1.861082e-02 -1.850834e-02 -1.862426e-02 -1.861710e-02 -1.853779e-02 -1.839956e-02 -1.864509e-02 -1.849786e-02 -1.859216e-02 -1.850624e-02 -1.861617e-02 -1.838702e-02 -1.855884e-02 -1.860165e-02 -1.865515e-02 -1.843485e-02 -1.846378e-02 -1.863038e-02 -1.860884e-02 -1.863966e-02 -1.840718e-02 -1.877174e-02 -1.876530e-02 -2.027894e-02 -2.197878e-02 -2.489288e-02 -2.135366e-02 -1.031755e-02 -3.213609e-03 -6.917444e-04 -7.560047e-05 
3.059384e-07 4.424660e-08 8.162699e-08 8.868489e-08 -1.527344e-07 2.003765e-07 -3.770137e-08 1.625540e-07 -9.464194e-09 -1.330399e-07 -2.200974e-06 -8.126313e-05 6.473182e-03 4.644996e-03 5.115419e-06 -6.895617e-08 -7.669098e-08 -1.138311e-07 -1.031760e-07 -6.672044e-06 -6.813440e-03 -6.281600e-03 -4.089828e-04 -1.527099e-04 -4.860837e-05 -1.168702e-05 -1.510069e-06 7.225903e-07 -3.975630e-07 7.102678e-08 -1.167317e-06 -2.095317e-06 -1.728890e-06 -3.997911e-08 -8.542268e-07 -8.008523e-07 -1.214554e-06 1.082883e-06 -8.395108e-07 -1.765191e-06 -2.245270e-06 -2.735279e-06 -6.410522e-06 -2.751290e-06 -7.792660e-06 -7.201331e-06 -1.168952e-05 -1.477591e-05 -2.081715e-05 -2.029167e-05 -2.162361e-05 3.678070e-07 9.697393e-05 1.237637e-04 -1.689007e-03 -1.124788e-02 -3.038549e-02 -3.736998e-02 -2.190177e-02 -1.122585e-02 -9.959839e-03 -5.594929e-03 7.492570e-04 4.773316e-03 8.437731e-03 1.245080e-02 1.365258e-02 1.332910e-02 6.228499e-03 -7.113578e-03 -5.366111e-03 3.968172e-02 8.945977e-02 8.399402e-02 4.553631e-02 1.695005e-02 4.880606e-03 1.182168e-03 2.123381e-04 -4.316875e-05 -1.245830e-04 -1.532630e-04 -1.582364e-04 -1.531361e-04 -1.382788e-04 -1.221326e-04 -1.058954e-04 -9.087792e-05 -7.943116e-05 -6.564482e-05 -5.575382e-05 -4.553453e-05 -3.829113e-05 -3.278616e-05 -2.639216e-05 -2.098306e-05 -1.734599e-05 -1.337403e-05 -1.341846e-05 -1.068139e-05 -8.242186e-06 -6.557909e-06 -5.375465e-06 -4.864842e-06 -3.980623e-06 -4.068477e-06 -2.241125e-06 -1.793611e-06 -2.182701e-06 -2.593310e-06 -1.740512e-06 -7.053975e-07 5.557126e-07 -9.358411e-07 1.643100e-07 5.603296e-08 1.273349e-06 3.419541e-07 -1.581700e-07 -9.724680e-08 -2.434143e-06 8.167488e-07 -3.602596e-07 -3.262700e-08 8.218504e-07 -3.424611e-07 5.373933e-07 -8.808921e-08 
7.368797e-05 2.549743e-04 1.123716e-03 4.184264e-03 1.290842e-02 2.650181e-02 2.613229e-02 2.269550e-02 2.422607e-02 3.460729e-02 7.629313e-02 8.328465e-02 -6.830693e-01 -6.177345e-01 -2.747973e-01 -2.743288e-01 -2.743281e-01 -2.743284e-01 -2.743299e-01 -2.750938e-01 -6.819081e-01 -6.895359e-01 1.681017e-01 1.333219e-01 5.531101e-02 2.639534e-02 1.925184e-02 1.817145e-02 1.813958e-02 1.826817e-02 1.837510e-02 1.842606e-02 1.847656e-02 1.848427e-02 1.850312e-02 1.852334e-02 1.851348e-02 1.853927e-02 1.853269e-02 1.854219e-02 1.853523e-02 1.851158e-02 1.849434e-02 1.846828e-02 1.844130e-02 1.842990e-02 1.841447e-02 1.838266e-02 1.836243e-02 1.829248e-02 1.825173e-02 1.815032e-02 1.812131e-02 1.804547e-02 1.788917e-02 1.696105e-02 1.481171e-02 1.310089e-02 1.378379e-02 1.491454e-02 1.481289e-02 1.455998e-02 1.459405e-02 1.471119e-02 1.519983e-02 1.579362e-02 1.670563e-02 1.744526e-02 1.706153e-02 1.811513e-02 2.538418e-02 3.675011e-02 4.076725e-02 3.455150e-02 2.638441e-02 2.143671e-02 1.932001e-02 1.853295e-02 1.822213e-02 1.809281e-02 1.803846e-02 1.802867e-02 1.804052e-02 1.808158e-02 1.812763e-02 1.818607e-02 1.821847e-02 1.825400e-02 1.828068e-02 1.832300e-02 1.836024e-02 1.839071e-02 1.842045e-02 1.842703e-02 1.842966e-02 1.846492e-02 1.845808e-02 1.851131e-02 1.848492e-02 1.851986e-02 1.845664e-02 1.853729e-02 1.844339e-02 1.858180e-02 1.845742e-02 1.858798e-02 1.844255e-02 1.858357e-02 1.847350e-02 1.857979e-02 1.847180e-02 1.855334e-02 1.850021e-02 1.853158e-02 1.857670e-02 1.852393e-02 1.865951e-02 1.850069e-02 1.880982e-02 1.874362e-02 2.023070e-02 2.194817e-02 2.490529e-02 2.136195e-02 1.032413e-02 3.215847e-03 6.935508e-04 7.565880e-05 
6.575180e-04 1.888480e-03 1.048540e-02 4.299024e-02 1.277661e-01 2.135915e-01 7.167313e-02 7.745950e-02 1.186452e-01 1.129462e-01 1.961690e-01 1.610460e-01 -1.394715e+00 -1.278277e+00 -5.472512e-01 -5.467358e-01 -5.468496e-01 -5.472866e-01 -5.478024e-01 -5.492108e-01 -1.349648e+00 -1.378013e+00 2.939350e-01 2.777846e-01 1.491850e-01 1.030015e-01 8.372394e-02 8.164413e-02 7.879719e-02 8.265523e-02 8.483475e-02 9.089281e-02 9.462463e-02 9.450040e-02 9.163580e-02 8.656875e-02 8.300595e-02 8.121028e-02 8.243283e-02 8.773480e-02 9.005910e-02 9.128351e-02 9.294650e-02 8.922654e-02 8.741081e-02 8.661352e-02 8.495838e-02 8.639615e-02 8.969240e-02 9.072161e-02 9.192009e-02 8.938949e-02 8.482116e-02 8.028070e-02 7.796012e-02 8.015346e-02 8.522976e-02 9.068202e-02 9.326943e-02 9.132650e-02 8.757185e-02 8.263911e-02 7.948696e-02 7.940570e-02 8.343093e-02 8.868605e-02 9.184123e-02 9.277714e-02 9.331649e-02 9.742247e-02 1.044409e-01 1.110527e-01 1.127992e-01 1.074563e-01 9.864940e-02 8.910975e-02 8.236340e-02 8.046741e-02 8.242016e-02 8.629892e-02 8.855471e-02 8.831988e-02 8.514805e-02 8.273261e-02 8.351221e-02 8.948155e-02 9.475928e-02 9.605290e-02 9.129206e-02 8.589189e-02 8.126148e-02 8.159522e-02 8.498690e-02 8.863697e-02 9.034939e-02 8.912298e-02 8.873418e-02 9.106066e-02 9.183506e-02 9.479412e-02 9.075656e-02 8.861450e-02 8.362931e-02 9.003434e-02 9.115432e-02 9.511969e-02 9.479314e-02 9.352227e-02 9.143833e-02 9.304944e-02 9.433983e-02 9.035579e-02 8.857875e-02 8.513957e-02 9.405100e-02 8.939828e-02 9.311794e-02 8.131932e-02 9.169236e-02 8.054479e-02 1.013248e-01 5.918113e-02 8.462168e-02 1.812384e-01 1.085484e-01 3.771331e-02 9.589339e-03 1.981624e-03 
4.787317e-03 1.759027e-02 7.893661e-02 2.785132e-01 6.089529e-01 4.555229e-01 -1.471397e+00 -8.495481e-01 -2.602882e-01 -4.558384e-01 -2.105920e-01 -4.336321e-01 -1.480623e+00 -1.115890e+00 -7.635795e-01 -7.756132e-01 -7.779737e-01 -7.878903e-01 -8.003129e-01 -7.978218e-01 -1.320454e+00 -1.523818e+00 -2.705147e-01 -8.926044e-02 -2.122310e-01 -2.594828e-01 -4.519934e-01 -5.134739e-01 -5.896379e-01 -5.178681e-01 -4.885769e-01 -3.566855e-01 -2.789316e-01 -2.686236e-01 -3.449408e-01 -4.577011e-01 -5.297745e-01 -5.720746e-01 -5.563468e-01 -4.454039e-01 -3.952183e-01 -3.535009e-01 -3.133260e-01 -3.851855e-01 -4.175341e-01 -4.402262e-01 -4.874446e-01 -4.590817e-01 -3.696520e-01 -3.305898e-01 -3.001886e-01 -3.504288e-01 -4.474990e-01 -5.272859e-01 -5.767206e-01 -5.228633e-01 -3.918398e-01 -2.521843e-01 -2.013752e-01 -2.537802e-01 -3.298840e-01 -4.391749e-01 -5.177282e-01 -5.330426e-01 -4.630856e-01 -3.716159e-01 -3.439220e-01 -3.804466e-01 -4.651371e-01 -4.870794e-01 -4.469439e-01 -3.647646e-01 -2.903156e-01 -2.939959e-01 -3.537409e-01 -4.714360e-01 -5.581157e-01 -5.680175e-01 -5.022069e-01 -4.092326e-01 -3.583128e-01 -3.600342e-01 -4.319901e-01 -4.937136e-01 -4.832865e-01 -3.622345e-01 -2.469670e-01 -2.247236e-01 -3.255372e-01 -4.526266e-01 -5.643515e-01 -5.577293e-01 -4.899895e-01 -4.034683e-01 -3.667856e-01 -3.924001e-01 -4.009179e-01 -3.682733e-01 -3.428251e-01 -2.836759e-01 -3.554817e-01 -4.279417e-01 -5.050483e-01 -4.057178e-01 -3.463163e-01 -2.929991e-01 -2.622306e-01 -3.264975e-01 -3.449556e-01 -3.253957e-01 -2.738542e-01 -3.761364e-01 -4.093139e-01 -4.783641e-01 -3.127209e-01 -3.846456e-01 -3.506679e-01 -5.346397e-01 -4.008433e-01 -5.452956e-01 -3.273508e-01 -1.123458e+00 -1.320721e+00 5.291579e-01 6.449744e-01 2.556091e-01 6.434843e-02 1.205336e-02 
1.930535e-02 6.434639e-02 2.678385e-01 6.715427e-01 -5.645751e-01 -2.328202e+00 -3.026303e+00 -2.337313e+00 -1.225241e+00 -1.548341e+00 -1.074192e+00 -1.296411e+00 -1.338957e+00 -1.387306e+00 -1.140095e+00 -1.343892e+00 -1.230157e+00 -1.368816e+00 -1.300275e+00 -1.303315e+00 -1.476006e+00 -1.428574e+00 -1.173473e+00 -1.000420e+00 -1.220971e+00 -1.013443e+00 -1.469151e+00 -1.695911e+00 -1.931020e+00 -1.611640e+00 -1.751102e+00 -1.542209e+00 -1.418417e+00 -1.263808e+00 -1.493198e+00 -1.612501e+00 -1.553169e+00 -1.524429e+00 -1.723585e+00 -1.670835e+00 -1.611564e+00 -1.487444e+00 -1.369403e+00 -1.460661e+00 -1.415515e+00 -1.492909e+00 -1.786485e+00 -1.861733e+00 -1.439705e+00 -1.336427e+00 -1.352508e+00 -1.691784e+00 -1.773406e+00 -1.702515e+00 -1.803838e+00 -1.857984e+00 -1.578822e+00 -1.154295e+00 -1.172875e+00 -1.424490e+00 -1.470371e+00 -1.574045e+00 -1.744216e+00 -1.858894e+00 -1.821230e+00 -1.638887e+00 -1.561060e+00 -1.474560e+00 -1.830728e+00 -1.875485e+00 -1.666245e+00 -1.460039e+00 -1.382996e+00 -1.572203e+00 -1.531341e+00 -1.690798e+00 -1.723643e+00 -1.725565e+00 -1.569043e+00 -1.485273e+00 -1.519072e+00 -1.447876e+00 -1.590680e+00 -1.656579e+00 -1.661316e+00 -1.486602e+00 -1.418129e+00 -1.436913e+00 -1.482427e+00 -1.568204e+00 -1.775551e+00 -1.671773e+00 -1.622391e+00 -1.539362e+00 -1.521889e+00 -1.408305e+00 -1.434440e+00 -1.499846e+00 -1.440859e+00 -1.420872e+00 -1.484052e+00 -1.665923e+00 -1.599341e+00 -1.523231e+00 -1.437509e+00 -1.502105e+00 -1.407171e+00 -1.595535e+00 -1.424870e+00 -1.418464e+00 -1.258726e+00 -1.503749e+00 -1.463393e+00 -1.547405e+00 -1.418380e+00 -1.570661e+00 -1.600560e+00 -1.626174e+00 -1.694959e+00 -1.598090e+00 -1.639136e+00 -2.246233e+00 -4.840134e+00 -2.090157e+00 1.553216e+00 8.930214e-01 2.489775e-01 5.215111e-02 
2.425570e-02 8.418577e-02 3.372831e-01 6.736640e-01 -1.943172e+00 -4.234726e+00 -1.947878e-01 -7.889110e-01 -6.402770e-01 -6.786122e-01 -5.299374e-01 -4.285679e-01 6.495525e-01 2.274999e-01 5.908528e-02 2.507330e-01 1.911422e-01 1.913513e-01 1.372234e-01 3.171734e-01 5.137093e-01 8.136999e-01 -5.014078e-01 -6.650199e-01 -8.224600e-01 -3.988021e-01 -6.131137e-01 -7.840587e-01 -9.531959e-01 -6.342141e-01 -9.365437e-01 -9.594377e-01 -9.795154e-01 -7.629787e-01 -9.156930e-01 -7.964228e-01 -5.083336e-01 -3.487658e-01 -7.012597e-01 -9.205680e-01 -9.616021e-01 -8.852052e-01 -8.041320e-01 -7.597183e-01 -5.971296e-01 -6.607567e-01 -9.898205e-01 -1.188436e+00 -7.679023e-01 -7.163239e-01 -8.237903e-01 -1.224305e+00 -1.090945e+00 -7.662702e-01 -7.935455e-01 -1.026250e+00 -9.490815e-01 -6.628879e-01 -8.348011e-01 -1.088242e+00 -9.594567e-01 -8.274915e-01 -8.855245e-01 -1.026023e+00 -1.159921e+00 -1.125150e+00 -1.079228e+00 -8.430973e-01 -1.168688e+00 -1.171135e+00 -9.409403e-01 -8.317498e-01 -9.108228e-01 -1.203453e+00 -9.829760e-01 -9.179031e-01 -7.321760e-01 -7.069360e-01 -6.349818e-01 -7.531938e-01 -9.397793e-01 -8.203343e-01 -8.462913e-01 -7.788209e-01 -8.124774e-01 -8.626362e-01 -1.067258e+00 -1.154602e+00 -9.534170e-01 -7.401480e-01 -7.641986e-01 -6.154795e-01 -7.232423e-01 -8.245019e-01 -8.999335e-01 -6.477226e-01 -6.688994e-01 -8.553844e-01 -8.340438e-01 -9.621875e-01 -8.684338e-01 -9.563242e-01 -6.430519e-01 -7.908147e-01 -8.180076e-01 -1.065594e+00 -9.977404e-01 -1.121902e+00 -7.989808e-01 -8.488333e-01 -7.317000e-01 -8.462154e-01 -6.851241e-01 -6.376733e-01 -8.744074e-01 -9.273191e-01 -1.059632e+00 -6.083581e-01 -1.077797e+00 -5.412123e-01 -1.203686e+00 6.282852e-02 -3.367091e+00 -3.891704e+00 1.315435e+00 9.249301e-01 2.668387e-01 5.833049e-02 
9.713607e-03 3.157206e-02 1.191336e-01 1.784160e-01 -1.052902e+00 -1.757490e+00 2.187699e+00 1.172131e+00 4.685222e-01 6.948115e-01 5.267349e-01 5.350571e-01 -1.187794e+00 1.598213e-01 6.245721e-01 8.032150e-01 5.142020e-01 8.871178e-01 5.519277e-01 9.964048e-01 1.123982e-01 -7.901549e-01 3.616293e-01 3.394364e-01 3.140834e-01 5.060852e-01 6.463321e-01 6.747967e-01 6.983106e-01 7.413090e-01 5.842961e-01 4.173452e-01 3.077865e-01 3.806510e-01 4.182377e-01 6.054155e-01 8.053157e-01 9.180068e-01 7.675407e-01 5.423103e-01 4.663138e-01 4.385714e-01 4.237443e-01 5.239947e-01 6.317974e-01 6.312094e-01 5.698086e-01 4.544363e-01 5.028950e-01 4.699357e-01 3.914659e-01 2.997033e-01 4.708215e-01 6.924992e-01 7.415147e-01 5.841234e-01 4.433609e-01 3.751077e-01 2.397487e-01 2.084605e-01 3.465285e-01 5.316095e-01 6.026052e-01 5.644868e-01 4.192137e-01 3.106976e-01 2.878568e-01 4.176167e-01 3.964935e-01 4.231134e-01 4.620727e-01 4.025745e-01 2.805665e-01 1.769038e-01 3.414005e-01 5.204046e-01 7.094333e-01 7.372433e-01 6.906243e-01 5.335279e-01 4.059331e-01 4.571745e-01 5.419299e-01 6.483925e-01 6.248545e-01 4.573590e-01 2.358413e-01 1.774127e-01 3.798215e-01 6.229531e-01 7.523989e-01 8.046531e-01 6.762794e-01 5.331131e-01 4.545739e-01 5.870723e-01 5.860468e-01 4.786665e-01 4.526590e-01 3.303864e-01 4.560756e-01 5.127767e-01 7.312697e-01 5.473967e-01 4.663635e-01 3.001674e-01 2.943102e-01 3.204995e-01 4.743271e-01 4.212033e-01 4.105796e-01 4.864401e-01 5.984964e-01 6.949441e-01 4.047249e-01 4.693434e-01 3.791999e-01 7.817736e-01 4.273825e-01 8.137831e-01 2.485032e-01 1.760388e+00 6.930579e-01 -1.557284e+00 3.514577e-01 3.191296e-01 1.011200e-01 2.365040e-02 
1.099978e-03 3.360033e-03 7.371716e-03 -1.293778e-02 -1.817033e-01 -2.426970e-01 8.109758e-01 5.160846e-01 2.028736e-01 3.237026e-01 2.836878e-01 4.033188e-01 -4.757735e-01 -1.934879e+00 -2.479236e+00 -2.042021e+00 -2.371662e+00 -2.221041e+00 -2.192643e+00 -2.516195e+00 -1.911698e+00 -3.225738e-01 3.273661e-01 2.220653e-01 1.878436e-01 1.944389e-01 2.749731e-01 3.080267e-01 3.389907e-01 3.141369e-01 2.927741e-01 2.319947e-01 1.921197e-01 1.925174e-01 2.269682e-01 2.834555e-01 3.231356e-01 3.451039e-01 3.337006e-01 2.748897e-01 2.513830e-01 2.306412e-01 2.149487e-01 2.477419e-01 2.687450e-01 2.761819e-01 2.960539e-01 2.772789e-01 2.410599e-01 2.220482e-01 2.061349e-01 2.240437e-01 2.724709e-01 3.159456e-01 3.377863e-01 3.065498e-01 2.394113e-01 1.743527e-01 1.463600e-01 1.685953e-01 2.020469e-01 2.524490e-01 2.833862e-01 2.837961e-01 2.431730e-01 1.962356e-01 1.843535e-01 2.118047e-01 2.646587e-01 3.057774e-01 3.205411e-01 2.816796e-01 2.092380e-01 1.704783e-01 1.876832e-01 2.470056e-01 3.002052e-01 3.119779e-01 2.880514e-01 2.451658e-01 2.222682e-01 2.275952e-01 2.648384e-01 2.975194e-01 2.932104e-01 2.351204e-01 1.769798e-01 1.661587e-01 2.181999e-01 2.839205e-01 3.367828e-01 3.375396e-01 3.018032e-01 2.605482e-01 2.399372e-01 2.581078e-01 2.603185e-01 2.429326e-01 2.303993e-01 1.998914e-01 2.369932e-01 2.693099e-01 3.140940e-01 2.601727e-01 2.345430e-01 2.010085e-01 1.921637e-01 2.164980e-01 2.350315e-01 2.196447e-01 2.017612e-01 2.450855e-01 2.679784e-01 2.987589e-01 2.166919e-01 2.500326e-01 2.303873e-01 3.304010e-01 2.503830e-01 3.339937e-01 1.858919e-01 6.150620e-01 6.277032e-01 -1.637515e-01 -3.721573e-02 1.134879e-02 7.014744e-03 1.941321e-03 
