# vtk DataFile Version 2.0
Comment goes here
ASCII

DATASET STRUCTURED_POINTS
FIELD FieldData 1
TIME 1 1 double
0.23000000
DIMENSIONS    128   16   1

ORIGIN    0.000   0.000   0.000
SPACING   0.0078125 0.015625   1.000

POINT_DATA   2048
SCALARS Omega double
LOOKUP_TABLE default

3.114783e-07 -2.962895e-06 -6.361181e-06 -1.027902e-05 -1.479209e-05 -1.409460e-05 7.647606e-06 1.293619e-05 -4.618507e-06 -4.755069e-06 -4.940880e-06 -7.386587e-06 -2.813892e-05 -3.733346e-05 -1.994528e-05 6.158450e-06 -9.594438e-06 -4.933818e-06 -2.355672e-05 -3.578886e-05 -6.036385e-06 -3.319517e-05 -5.213810e-05 -7.587244e-05 -4.352666e-05 -2.024834e-05 7.233146e-06 -4.201692e-06 2.499162e-05 2.426930e-05 4.155572e-05 3.084573e-05 7.111557e-05 6.503523e-05 8.317281e-05 8.097704e-05 1.298419e-04 1.404614e-04 1.756655e-04 1.853775e-04 2.242331e-04 2.501446e-04 3.233987e-04 3.742327e-04 4.164232e-04 4.187323e-04 4.616404e-04 4.573911e-04 5.617660e-04 8.185563e-04 1.626737e-03 2.972123e-03 5.365300e-03 1.064717e-02 2.596223e-02 4.928647e-02 4.122857e-02 2.169780e-02 5.796468e-02 9.236996e-02 9.379283e-02 1.011166e-01 1.026984e-01 1.036760e-01 1.073165e-01 1.126149e-01 1.254974e-01 1.427753e-01 1.662349e-01 1.859512e-01 2.084109e-01 2.322351e-01 2.187990e-01 1.773143e-01 1.351814e-01 9.106692e-02 5.013072e-02 2.051874e-02 3.833059e-03 -3.305893e-03 -5.094475e-03 -4.603567e-03 -3.464534e-03 -2.374318e-03 -1.511589e-03 -9.229989e-04 -5.079628e-04 -2.835235e-04 -1.215675e-04 -5.439829e-05 1.331245e-05 4.639142e-05 7.922477e-05 7.622244e-05 6.320871e-05 4.729473e-05 4.660567e-05 5.240556e-05 3.717993e-05 3.287328e-05 1.932251e-05 2.752224e-05 6.122159e-06 1.088724e-05 -6.245736e-06 7.426798e-06 -3.524187e-06 1.192762e-05 8.005334e-06 1.754498e-05 2.321182e-06 2.345899e-06 -1.065208e-05 -2.359064e-07 -5.739149e-06 -3.188923e-07 3.769124e-06 2.699219e-05 4.684378e-05 6.885622e-05 9.266447e-05 1.137566e-04 1.062216e-04 9.169801e-05 6.668855e-05 3.814631e-05 1.724640e-05 5.797034e-06 
-1.092780e-02 -9.043411e-03 -7.612122e-03 -4.968336e-02 -1.374430e-01 6.843988e-01 1.106315e+00 3.955742e-01 5.079677e-01 4.185245e-01 5.075671e-01 2.841526e-01 -5.937275e-01 -2.231469e+00 -2.995817e+00 -2.725687e+00 -2.730289e+00 -2.809661e+00 -2.613999e+00 -2.888001e+00 -2.341323e+00 -3.858305e-01 3.187037e-01 4.986977e-01 4.489867e-01 4.801413e-01 4.482495e-01 4.811024e-01 4.537191e-01 4.789027e-01 4.575287e-01 4.754083e-01 4.641763e-01 4.778189e-01 4.669311e-01 4.666580e-01 4.642547e-01 4.684634e-01 4.744393e-01 4.698364e-01 4.750133e-01 4.623636e-01 4.675423e-01 4.556204e-01 4.702597e-01 4.591513e-01 4.721809e-01 4.566801e-01 4.674969e-01 4.513412e-01 4.654811e-01 4.574848e-01 4.786446e-01 4.958326e-01 5.459215e-01 3.131412e-01 -9.686693e-01 -1.662898e+00 -2.512237e-01 6.110598e-01 5.644058e-01 7.870412e-01 8.857818e-01 9.957878e-01 1.074117e+00 1.103226e+00 1.134747e+00 1.115141e+00 1.137518e+00 9.015267e-01 6.644416e-01 1.009804e+00 1.125928e+00 7.889434e-01 6.165882e-01 5.747054e-01 5.321845e-01 4.970461e-01 4.692919e-01 4.598595e-01 4.575780e-01 4.613389e-01 4.626390e-01 4.651833e-01 4.676327e-01 4.657031e-01 4.655319e-01 4.613981e-01 4.664629e-01 4.654817e-01 4.704175e-01 4.646559e-01 4.716084e-01 4.683787e-01 4.757175e-01 4.680175e-01 4.710883e-01 4.660736e-01 4.714313e-01 4.707566e-01 4.698730e-01 4.700062e-01 4.634828e-01 4.729269e-01 4.630853e-01 4.808922e-01 4.582943e-01 4.798022e-01 4.488917e-01 4.880528e-01 4.527859e-01 4.972033e-01 4.455083e-01 4.949617e-01 4.410347e-01 5.002086e-01 4.461486e-01 5.089800e-01 4.512738e-01 5.254364e-01 4.582689e-01 8.248899e-01 1.070152e+00 9.144715e-02 -3.941980e-02 -1.058765e-02 -8.228013e-03 -1.004970e-02 
-2.366935e-02 -2.512599e-03 1.928493e-02 -2.715898e-01 -1.638191e+00 6.040033e-01 2.622784e+00 3.587836e-01 9.305554e-01 5.714791e-01 8.449220e-01 3.945035e-01 -2.409003e-01 4.247574e-01 1.225900e+00 1.151922e+00 1.002115e+00 1.158800e+00 1.024476e+00 1.277635e+00 3.254458e-01 8.191448e-02 3.978139e-01 7.186356e-01 6.414782e-01 7.447643e-01 6.584001e-01 7.584424e-01 6.711692e-01 7.529098e-01 6.594720e-01 7.356689e-01 6.652857e-01 7.347895e-01 6.640247e-01 7.016783e-01 6.502819e-01 7.048441e-01 6.873746e-01 7.105230e-01 6.932164e-01 6.846133e-01 6.690585e-01 6.544178e-01 6.803468e-01 6.674402e-01 7.125548e-01 6.818662e-01 7.172326e-01 6.616465e-01 7.058070e-01 6.687069e-01 7.528341e-01 7.710048e-01 8.808975e-01 5.490486e-01 -9.539288e-01 -1.619711e+00 3.751348e-02 4.960939e-01 1.857369e-01 4.303350e-01 4.615984e-01 5.460375e-01 6.479849e-01 7.056959e-01 7.982987e-01 8.363257e-01 9.902140e-01 8.826276e-01 1.221473e+00 2.264656e+00 1.979506e+00 9.337670e-01 5.992458e-01 6.389702e-01 6.148352e-01 6.416111e-01 5.994612e-01 6.380970e-01 6.203750e-01 6.719718e-01 6.535744e-01 6.816508e-01 6.613061e-01 6.632273e-01 6.429011e-01 6.325981e-01 6.504496e-01 6.457353e-01 6.802466e-01 6.483225e-01 7.021273e-01 6.572416e-01 7.147796e-01 6.421221e-01 6.968226e-01 6.245699e-01 6.982569e-01 6.423529e-01 6.924150e-01 6.430047e-01 6.737601e-01 6.588983e-01 6.618872e-01 6.949124e-01 6.410953e-01 7.046466e-01 6.027844e-01 7.447109e-01 5.957192e-01 7.720236e-01 5.487724e-01 7.595717e-01 5.146730e-01 7.877094e-01 5.456123e-01 8.317229e-01 5.641286e-01 8.501018e-01 5.124178e-01 1.562666e+00 1.756013e+00 -1.459158e+00 -5.679666e-01 9.420697e-02 3.261427e-02 -1.655968e-02 
-3.502150e-02 1.186700e-02 8.190740e-02 -5.191748e-01 -4.284510e+00 -3.857852e+00 -1.535525e-01 -1.731180e+00 -1.060076e+00 -1.388775e+00 -1.045813e+00 -8.471947e-01 -1.138742e-01 -1.050417e-01 -5.099147e-01 -2.335840e-01 -3.399624e-01 -1.849726e-01 -3.674839e-01 -3.685692e-01 -1.003666e-01 -3.371909e-01 -9.024149e-01 -1.204729e+00 -1.298832e+00 -1.307155e+00 -1.351890e+00 -1.301933e+00 -1.361393e+00 -1.307023e+00 -1.425810e+00 -1.336249e+00 -1.459796e+00 -1.361139e+00 -1.484390e+00 -1.376656e+00 -1.503704e+00 -1.382920e+00 -1.471678e+00 -1.378446e+00 -1.459232e+00 -1.399244e+00 -1.473932e+00 -1.437439e+00 -1.463012e+00 -1.428223e+00 -1.386714e+00 -1.370367e+00 -1.342248e+00 -1.390812e+00 -1.358712e+00 -1.406337e+00 -1.295791e+00 -1.290552e+00 -1.125968e+00 -8.845926e-01 2.906994e-01 7.515989e-01 -4.055321e-01 -1.096776e+00 -1.067695e+00 -1.410205e+00 -1.530164e+00 -1.770754e+00 -1.892655e+00 -2.043473e+00 -2.144126e+00 -2.224083e+00 -2.358349e+00 -2.326552e+00 -2.478151e+00 -3.025804e+00 -2.806297e+00 -2.075758e+00 -1.891198e+00 -1.720048e+00 -1.736315e+00 -1.608646e+00 -1.656446e+00 -1.533470e+00 -1.588136e+00 -1.463225e+00 -1.521081e+00 -1.448487e+00 -1.521934e+00 -1.495171e+00 -1.551630e+00 -1.547237e+00 -1.532700e+00 -1.538142e+00 -1.473043e+00 -1.523806e+00 -1.415675e+00 -1.526511e+00 -1.408551e+00 -1.569716e+00 -1.424821e+00 -1.607383e+00 -1.421958e+00 -1.591586e+00 -1.426810e+00 -1.584220e+00 -1.433592e+00 -1.559355e+00 -1.467069e+00 -1.512188e+00 -1.494318e+00 -1.472009e+00 -1.539126e+00 -1.411984e+00 -1.594024e+00 -1.394850e+00 -1.681656e+00 -1.406293e+00 -1.752145e+00 -1.353453e+00 -1.703429e+00 -1.277561e+00 -1.691166e+00 -1.324582e+00 -1.883603e+00 -1.171977e+00 -2.538445e+00 -5.285325e+00 -1.463463e+00 3.422320e-01 1.397962e-01 -1.102450e-02 
-4.926876e-02 -2.487134e-03 1.245634e-01 -4.305513e-02 -2.754003e+00 -5.614315e+00 -3.874973e+00 -2.623256e+00 -2.599829e+00 -2.456428e+00 -2.467017e+00 -2.337682e+00 -2.546416e+00 -2.390042e+00 -2.383260e+00 -2.405134e+00 -2.418705e+00 -2.443195e+00 -2.386952e+00 -2.423884e+00 -2.438512e+00 -2.448729e+00 -2.250997e+00 -2.464604e+00 -2.414856e+00 -2.576436e+00 -2.526622e+00 -2.602234e+00 -2.560211e+00 -2.603500e+00 -2.620813e+00 -2.615913e+00 -2.669230e+00 -2.645291e+00 -2.696417e+00 -2.619262e+00 -2.699940e+00 -2.632436e+00 -2.714011e+00 -2.636731e+00 -2.708031e+00 -2.627031e+00 -2.692643e+00 -2.632049e+00 -2.697465e+00 -2.642675e+00 -2.656850e+00 -2.600359e+00 -2.617058e+00 -2.601617e+00 -2.623993e+00 -2.628093e+00 -2.599066e+00 -2.571089e+00 -2.495655e+00 -2.568106e+00 -2.862723e+00 -3.105981e+00 -2.813352e+00 -2.422140e+00 -2.399779e+00 -2.503949e+00 -2.434932e+00 -2.517581e+00 -2.516835e+00 -2.617943e+00 -2.647811e+00 -2.723011e+00 -2.794800e+00 -2.907901e+00 -2.936745e+00 -2.878992e+00 -3.018868e+00 -3.070010e+00 -3.051421e+00 -2.936797e+00 -2.928307e+00 -2.829472e+00 -2.838734e+00 -2.747816e+00 -2.786615e+00 -2.704121e+00 -2.744910e+00 -2.691033e+00 -2.749226e+00 -2.713999e+00 -2.753852e+00 -2.729236e+00 -2.739472e+00 -2.735547e+00 -2.709226e+00 -2.722310e+00 -2.670935e+00 -2.738276e+00 -2.678454e+00 -2.768484e+00 -2.670928e+00 -2.789103e+00 -2.668169e+00 -2.796329e+00 -2.664740e+00 -2.789466e+00 -2.646404e+00 -2.782619e+00 -2.668832e+00 -2.776864e+00 -2.672658e+00 -2.742422e+00 -2.673670e+00 -2.725861e+00 -2.730078e+00 -2.740802e+00 -2.770103e+00 -2.733541e+00 -2.808168e+00 -2.706618e+00 -2.795446e+00 -2.668034e+00 -2.794001e+00 -2.700675e+00 -2.851146e+00 -3.263354e+00 -5.404733e+00 -4.569465e+00 -1.112545e+00 2.119889e-01 7.178412e-02 -4.012353e-02 
-5.017674e-02 -3.709988e-02 1.808385e-02 1.435002e-01 -2.752899e-03 -1.773187e+00 -2.282644e+00 -1.070863e+00 -1.228397e+00 -9.790758e-01 -1.060366e+00 -1.154937e+00 -1.972379e+00 -1.690289e+00 -1.347531e+00 -1.346549e+00 -1.351640e+00 -1.347297e+00 -1.351554e+00 -1.349638e+00 -1.670079e+00 -1.767417e+00 -1.181846e+00 -1.060849e+00 -9.820803e-01 -1.073574e+00 -1.028532e+00 -1.089064e+00 -1.044667e+00 -1.088404e+00 -1.057893e+00 -1.085988e+00 -1.074957e+00 -1.094825e+00 -1.082702e+00 -1.074845e+00 -1.078389e+00 -1.081117e+00 -1.099082e+00 -1.086390e+00 -1.101084e+00 -1.074637e+00 -1.088168e+00 -1.065928e+00 -1.097560e+00 -1.079315e+00 -1.106521e+00 -1.082138e+00 -1.106244e+00 -1.081903e+00 -1.107691e+00 -1.087359e+00 -1.092690e+00 -1.030759e+00 -9.703730e-01 -1.265362e+00 -3.067911e+00 -3.662815e+00 -1.781913e+00 -1.568103e+00 -1.916742e+00 -1.452008e+00 -1.454297e+00 -1.305769e+00 -1.162135e+00 -1.060890e+00 -9.124029e-01 -8.407730e-01 -5.568357e-01 -6.723117e-01 -4.522850e-01 8.950470e-01 8.062674e-01 -4.781961e-01 -9.883012e-01 -1.096700e+00 -1.123422e+00 -1.131744e+00 -1.128569e+00 -1.120994e+00 -1.121592e+00 -1.114035e+00 -1.113830e+00 -1.103827e+00 -1.109601e+00 -1.094576e+00 -1.097343e+00 -1.081047e+00 -1.093543e+00 -1.086290e+00 -1.096387e+00 -1.082983e+00 -1.094219e+00 -1.090948e+00 -1.100219e+00 -1.092439e+00 -1.088952e+00 -1.090753e+00 -1.087658e+00 -1.101217e+00 -1.083179e+00 -1.100373e+00 -1.069345e+00 -1.105843e+00 -1.069385e+00 -1.120155e+00 -1.061233e+00 -1.115107e+00 -1.045109e+00 -1.127469e+00 -1.057583e+00 -1.141948e+00 -1.048563e+00 -1.132599e+00 -1.044537e+00 -1.134444e+00 -1.052881e+00 -1.133561e+00 -1.045218e+00 -1.116285e+00 -9.701159e-01 -1.537250e+00 -2.485783e+00 -8.177228e-01 1.839068e-02 5.252877e-02 -3.159464e-02 -5.298189e-02 
-2.832283e-02 -2.541087e-02 -1.945795e-02 7.423775e-03 4.998245e-02 -5.359340e-02 -2.080464e-01 -1.355889e-01 -1.021094e-01 -3.658208e-02 2.576065e-02 -2.398699e-01 -1.903909e+00 -1.708137e+00 -8.945252e-01 -8.928136e-01 -8.930152e-01 -8.928383e-01 -8.930178e-01 -8.937101e-01 -1.539897e+00 -1.716866e+00 -5.199676e-01 -1.365120e-01 -9.163438e-02 -9.638666e-02 -8.834635e-02 -8.758109e-02 -8.300733e-02 -8.473596e-02 -8.349084e-02 -8.494383e-02 -8.533831e-02 -8.597490e-02 -8.660101e-02 -8.557353e-02 -8.715148e-02 -8.634078e-02 -8.876991e-02 -8.715249e-02 -8.962776e-02 -8.751552e-02 -9.020008e-02 -8.866425e-02 -9.248554e-02 -9.174430e-02 -9.587848e-02 -9.551428e-02 -9.910451e-02 -9.701953e-02 -9.492862e-02 -8.103857e-02 -5.473046e-02 2.732619e-03 9.610544e-02 1.123220e-01 -2.854396e-01 -3.191463e-01 1.975029e-01 1.683386e-02 -6.085557e-02 7.656026e-02 -4.892786e-02 -1.277249e-02 -4.214274e-02 -3.996808e-02 -5.531835e-02 -7.505749e-02 -8.538452e-02 -6.800827e-02 -2.894732e-01 -4.460598e-01 -2.716320e-02 2.402485e-01 1.487877e-01 3.871249e-02 -2.863037e-02 -6.902638e-02 -9.052522e-02 -9.983597e-02 -1.023281e-01 -1.010491e-01 -9.911639e-02 -9.624791e-02 -9.486040e-02 -9.218731e-02 -9.154507e-02 -8.920028e-02 -8.970254e-02 -8.794848e-02 -8.885367e-02 -8.690227e-02 -8.822268e-02 -8.665872e-02 -8.802901e-02 -8.624197e-02 -8.717673e-02 -8.595423e-02 -8.687737e-02 -8.641383e-02 -8.640036e-02 -8.646566e-02 -8.541183e-02 -8.689180e-02 -8.496029e-02 -8.788731e-02 -8.410801e-02 -8.806629e-02 -8.279667e-02 -8.906765e-02 -8.266230e-02 -9.000873e-02 -8.139038e-02 -8.960352e-02 -8.003801e-02 -8.888404e-02 -7.778954e-02 -8.495932e-02 -6.952488e-02 -7.277248e-02 -4.866775e-02 -1.108992e-01 -1.754197e-01 -2.487309e-02 -3.155087e-03 -2.895537e-02 -3.845033e-02 -3.310462e-02 
-1.068249e-02 -1.081565e-02 -1.208255e-02 -1.219954e-02 -7.452423e-03 -6.355628e-03 -1.921082e-02 -1.831228e-02 -5.283820e-03 2.474401e-02 6.931469e-02 -6.095735e-02 -9.630616e-01 -8.725287e-01 -4.471669e-01 -4.462581e-01 -4.462564e-01 -4.462563e-01 -4.462569e-01 -4.466151e-01 -7.609827e-01 -8.488133e-01 -2.461921e-01 -5.104589e-02 -3.058071e-02 -2.803692e-02 -2.216905e-02 -1.771920e-02 -1.524619e-02 -1.415208e-02 -1.386658e-02 -1.374872e-02 -1.393752e-02 -1.393052e-02 -1.416935e-02 -1.413135e-02 -1.437150e-02 -1.431740e-02 -1.456991e-02 -1.453969e-02 -1.482920e-02 -1.486448e-02 -1.522191e-02 -1.537737e-02 -1.584960e-02 -1.618344e-02 -1.677944e-02 -1.715026e-02 -1.728348e-02 -1.612173e-02 -1.236302e-02 -3.428328e-03 1.432311e-02 4.836500e-02 1.081424e-01 1.300553e-01 -1.395294e-01 -4.366753e-01 -1.646930e-01 2.325479e-01 2.743800e-01 2.051213e-01 2.071135e-01 2.262271e-01 2.029324e-01 1.824892e-01 1.553288e-01 1.290928e-01 3.763802e-02 1.377973e-01 3.524497e-01 2.495723e-01 1.513968e-01 1.849779e-01 1.523394e-01 9.304983e-02 4.542788e-02 1.390225e-02 -4.588670e-03 -1.390869e-02 -1.773550e-02 -1.870627e-02 -1.849204e-02 -1.785063e-02 -1.720778e-02 -1.658504e-02 -1.613631e-02 -1.569848e-02 -1.543967e-02 -1.512529e-02 -1.499062e-02 -1.475023e-02 -1.470170e-02 -1.450530e-02 -1.451081e-02 -1.433915e-02 -1.438076e-02 -1.423453e-02 -1.429691e-02 -1.417484e-02 -1.423460e-02 -1.413721e-02 -1.417436e-02 -1.411773e-02 -1.412071e-02 -1.411897e-02 -1.406422e-02 -1.412580e-02 -1.399833e-02 -1.413736e-02 -1.392278e-02 -1.413529e-02 -1.381081e-02 -1.406719e-02 -1.357646e-02 -1.373562e-02 -1.283804e-02 -1.250810e-02 -1.075131e-02 -9.624013e-03 -6.964516e-03 -9.154842e-03 -1.049038e-02 -9.296298e-03 -1.451960e-02 -1.668040e-02 -1.502441e-02 -1.209938e-02 
-3.164814e-07 2.395058e-07 5.545339e-07 9.791202e-07 1.160855e-06 1.191729e-06 6.848912e-07 3.566338e-07 4.521686e-07 1.666306e-06 3.787594e-06 7.506393e-06 3.485442e-04 3.099145e-04 6.752524e-07 -8.853233e-10 -2.690619e-09 -7.066367e-09 -7.976243e-09 -9.301356e-07 -5.874405e-04 2.533345e-05 -5.209753e-05 -1.243114e-04 -1.022917e-04 -7.409907e-05 -5.156417e-05 -3.748347e-05 -3.172232e-05 -3.214811e-05 -3.673707e-05 -4.412074e-05 -5.457936e-05 -6.794753e-05 -8.502002e-05 -1.050277e-04 -1.291418e-04 -1.569702e-04 -1.912084e-04 -2.322575e-04 -2.835995e-04 -3.456930e-04 -4.230264e-04 -5.175161e-04 -6.343110e-04 -7.730317e-04 -9.239189e-04 -1.046350e-03 -1.021444e-03 -5.786613e-04 8.074699e-04 3.919452e-03 9.661725e-03 1.913121e-02 3.413764e-02 5.384331e-02 6.405166e-02 5.773624e-02 5.435188e-02 5.834574e-02 5.886303e-02 5.588833e-02 5.318266e-02 5.257379e-02 5.164412e-02 5.013841e-02 5.129006e-02 5.215667e-02 5.489098e-02 6.885175e-02 7.970768e-02 8.964723e-02 1.046541e-01 1.010695e-01 7.828060e-02 5.237305e-02 3.104708e-02 1.593499e-02 6.532543e-03 1.466684e-03 -8.439951e-04 -1.663572e-03 -1.783298e-03 -1.641344e-03 -1.412888e-03 -1.192921e-03 -9.894889e-04 -8.237931e-04 -6.792712e-04 -5.632038e-04 -4.622465e-04 -3.811627e-04 -3.120501e-04 -2.565446e-04 -2.095301e-04 -1.709098e-04 -1.390383e-04 -1.136895e-04 -9.394304e-05 -7.795502e-05 -6.476594e-05 -5.300218e-05 -4.330031e-05 -3.501126e-05 -2.864196e-05 -2.328276e-05 -1.893673e-05 -1.546237e-05 -1.304151e-05 -1.150171e-05 -1.032435e-05 -8.983057e-06 -7.131850e-06 -5.087105e-06 -3.187698e-06 -1.670867e-06 -8.655823e-07 -1.184316e-06 -3.477032e-06 -7.742874e-06 -1.292009e-05 -1.660355e-05 -1.733752e-05 -1.509836e-05 -1.099880e-05 -6.781134e-06 -3.423253e-06 -1.365463e-06 
1.068096e-02 1.081666e-02 1.208532e-02 1.220424e-02 7.458573e-03 6.362311e-03 1.921280e-02 1.831225e-02 5.286264e-03 -2.473788e-02 -6.930264e-02 6.096988e-02 9.634707e-01 8.725747e-01 4.471670e-01 4.462581e-01 4.462564e-01 4.462563e-01 4.462568e-01 4.466142e-01 7.607695e-01 8.493186e-01 2.463329e-01 5.083155e-02 3.038114e-02 2.788187e-02 2.204475e-02 1.761261e-02 1.513508e-02 1.402725e-02 1.371493e-02 1.356514e-02 1.370480e-02 1.364157e-02 1.380396e-02 1.367776e-02 1.380594e-02 1.362632e-02 1.372121e-02 1.350327e-02 1.355574e-02 1.330345e-02 1.329824e-02 1.301001e-02 1.293156e-02 1.260118e-02 1.243451e-02 1.207297e-02 1.186480e-02 1.160348e-02 1.163303e-02 1.197061e-02 1.292587e-02 1.450729e-02 1.669684e-02 1.930068e-02 2.125906e-02 2.103116e-02 1.904790e-02 1.746728e-02 1.691477e-02 1.721569e-02 1.771597e-02 1.878841e-02 2.004463e-02 2.164340e-02 2.373716e-02 2.653369e-02 3.066933e-02 3.648733e-02 4.306977e-02 4.955505e-02 5.229318e-02 4.869990e-02 4.073254e-02 3.168781e-02 2.367011e-02 1.775566e-02 1.403686e-02 1.209877e-02 1.133064e-02 1.118913e-02 1.138570e-02 1.165600e-02 1.200908e-02 1.227976e-02 1.260075e-02 1.279337e-02 1.305945e-02 1.317410e-02 1.339704e-02 1.344697e-02 1.363865e-02 1.363739e-02 1.380698e-02 1.376858e-02 1.391917e-02 1.385636e-02 1.398661e-02 1.391650e-02 1.402256e-02 1.396322e-02 1.403610e-02 1.400549e-02 1.403102e-02 1.404431e-02 1.400480e-02 1.407581e-02 1.395658e-02 1.409968e-02 1.389019e-02 1.410716e-02 1.378965e-02 1.405130e-02 1.356654e-02 1.372935e-02 1.283448e-02 1.250292e-02 1.073990e-02 9.599093e-03 6.922221e-03 9.098869e-03 1.043116e-02 9.242609e-03 1.447846e-02 1.665337e-02 1.500989e-02 1.209318e-02 
2.831725e-02 2.541344e-02 1.946641e-02 -7.407725e-03 -4.995498e-02 5.364035e-02 2.081374e-01 1.357046e-01 1.022363e-01 3.669204e-02 -2.561170e-02 2.399775e-01 1.904634e+00 1.708722e+00 8.945238e-01 8.928271e-01 8.930291e-01 8.928393e-01 8.930040e-01 8.936971e-01 1.539624e+00 1.716752e+00 5.194785e-01 1.361655e-01 9.148973e-02 9.626951e-02 8.815977e-02 8.755944e-02 8.288042e-02 8.449290e-02 8.327113e-02 8.485173e-02 8.475924e-02 8.491945e-02 8.556968e-02 8.485286e-02 8.604105e-02 8.442715e-02 8.614288e-02 8.401944e-02 8.582109e-02 8.307233e-02 8.490184e-02 8.203427e-02 8.396034e-02 8.116032e-02 8.269297e-02 7.960396e-02 8.051076e-02 7.740823e-02 7.781313e-02 7.524507e-02 7.573233e-02 7.386616e-02 7.401352e-02 7.269033e-02 7.248370e-02 7.133644e-02 7.223332e-02 7.281692e-02 7.308521e-02 7.387733e-02 7.399358e-02 7.506250e-02 7.577554e-02 7.792715e-02 7.977045e-02 8.327729e-02 8.656875e-02 9.120737e-02 9.435018e-02 9.745266e-02 9.673476e-02 9.409368e-02 8.902003e-02 8.418144e-02 7.968518e-02 7.709217e-02 7.581828e-02 7.575508e-02 7.657917e-02 7.735196e-02 7.891531e-02 7.956313e-02 8.117645e-02 8.122060e-02 8.277887e-02 8.236455e-02 8.409087e-02 8.328849e-02 8.498909e-02 8.385829e-02 8.559575e-02 8.439780e-02 8.605340e-02 8.472576e-02 8.591233e-02 8.480011e-02 8.577550e-02 8.549560e-02 8.585397e-02 8.624477e-02 8.539639e-02 8.681271e-02 8.476209e-02 8.756679e-02 8.403789e-02 8.835406e-02 8.323056e-02 8.909625e-02 8.231995e-02 8.962621e-02 8.136424e-02 8.977733e-02 8.025494e-02 8.890118e-02 7.754871e-02 8.452860e-02 6.919247e-02 7.269682e-02 4.871742e-02 1.108254e-01 1.753044e-01 2.476876e-02 3.066823e-03 2.888939e-02 3.840996e-02 3.308551e-02 
5.016223e-02 3.710297e-02 -1.806639e-02 -1.434596e-01 2.858581e-03 1.773618e+00 2.284795e+00 1.073826e+00 1.230929e+00 9.811742e-01 1.063139e+00 1.156793e+00 1.971487e+00 1.688882e+00 1.347567e+00 1.346859e+00 1.351887e+00 1.347288e+00 1.351360e+00 1.349722e+00 1.673713e+00 1.763778e+00 1.173011e+00 1.055642e+00 9.816841e-01 1.074221e+00 1.028895e+00 1.094074e+00 1.050338e+00 1.092086e+00 1.062949e+00 1.094430e+00 1.076066e+00 1.088188e+00 1.082309e+00 1.087174e+00 1.089938e+00 1.082194e+00 1.094029e+00 1.080525e+00 1.095070e+00 1.072130e+00 1.090248e+00 1.066892e+00 1.092548e+00 1.073026e+00 1.098479e+00 1.072089e+00 1.089491e+00 1.058964e+00 1.071059e+00 1.046681e+00 1.063141e+00 1.042688e+00 1.047215e+00 1.023446e+00 1.020893e+00 1.004232e+00 1.027557e+00 1.035116e+00 1.046420e+00 1.053546e+00 1.059846e+00 1.067032e+00 1.073752e+00 1.084228e+00 1.088746e+00 1.095860e+00 1.097615e+00 1.103556e+00 1.100296e+00 1.106536e+00 1.100374e+00 1.094223e+00 1.083164e+00 1.073296e+00 1.064063e+00 1.058354e+00 1.059288e+00 1.059633e+00 1.068058e+00 1.068141e+00 1.079103e+00 1.075932e+00 1.084895e+00 1.075880e+00 1.085266e+00 1.076735e+00 1.089635e+00 1.079967e+00 1.089453e+00 1.079266e+00 1.088526e+00 1.083288e+00 1.090112e+00 1.085235e+00 1.081573e+00 1.081869e+00 1.076955e+00 1.092899e+00 1.080814e+00 1.104097e+00 1.075183e+00 1.108695e+00 1.067893e+00 1.116138e+00 1.061840e+00 1.123761e+00 1.056785e+00 1.130356e+00 1.051316e+00 1.134594e+00 1.048267e+00 1.135943e+00 1.048035e+00 1.134946e+00 1.049441e+00 1.127535e+00 1.041305e+00 1.116198e+00 9.709911e-01 1.535479e+00 2.484032e+00 8.172095e-01 -1.847496e-02 -5.261057e-02 3.152161e-02 5.294005e-02 
4.923884e-02 2.480602e-03 -1.245608e-01 4.306886e-02 2.754366e+00 5.615984e+00 3.878285e+00 2.625465e+00 2.601193e+00 2.457715e+00 2.468089e+00 2.336881e+00 2.547841e+00 2.394781e+00 2.387001e+00 2.407170e+00 2.417685e+00 2.442088e+00 2.387517e+00 2.429809e+00 2.456017e+00 2.456910e+00 2.228725e+00 2.425342e+00 2.377137e+00 2.549593e+00 2.515697e+00 2.627002e+00 2.609816e+00 2.643145e+00 2.639437e+00 2.626827e+00 2.664117e+00 2.632076e+00 2.710677e+00 2.666674e+00 2.743056e+00 2.658477e+00 2.724107e+00 2.630771e+00 2.699685e+00 2.624480e+00 2.691242e+00 2.629177e+00 2.701775e+00 2.682228e+00 2.752227e+00 2.727244e+00 2.739202e+00 2.691841e+00 2.674774e+00 2.667316e+00 2.680691e+00 2.708928e+00 2.696925e+00 2.710903e+00 2.676413e+00 2.699641e+00 2.675614e+00 2.700825e+00 2.662365e+00 2.692195e+00 2.656574e+00 2.671858e+00 2.633253e+00 2.640820e+00 2.633684e+00 2.665911e+00 2.680634e+00 2.683130e+00 2.683894e+00 2.656640e+00 2.661454e+00 2.618892e+00 2.648850e+00 2.612490e+00 2.662552e+00 2.608746e+00 2.667445e+00 2.630991e+00 2.718895e+00 2.683211e+00 2.747439e+00 2.682299e+00 2.709375e+00 2.656850e+00 2.700914e+00 2.701393e+00 2.731179e+00 2.732654e+00 2.704503e+00 2.722216e+00 2.674883e+00 2.739554e+00 2.672961e+00 2.761257e+00 2.651098e+00 2.757785e+00 2.644489e+00 2.787180e+00 2.665697e+00 2.803361e+00 2.662346e+00 2.783083e+00 2.659834e+00 2.771397e+00 2.673639e+00 2.752790e+00 2.690989e+00 2.732604e+00 2.720073e+00 2.730642e+00 2.766446e+00 2.713220e+00 2.776807e+00 2.699030e+00 2.824152e+00 2.723739e+00 2.853414e+00 2.722216e+00 2.820963e+00 3.211979e+00 5.371678e+00 4.559694e+00 1.112080e+00 -2.119184e-01 -7.185020e-02 4.005955e-02 
3.497420e-02 -1.189478e-02 -8.193718e-02 5.191147e-01 4.284842e+00 3.859417e+00 1.529444e-01 1.726511e+00 1.055361e+00 1.385192e+00 1.040094e+00 8.409905e-01 1.140938e-01 1.138991e-01 5.139718e-01 2.266931e-01 3.339016e-01 1.885487e-01 3.813980e-01 3.936257e-01 1.245025e-01 3.530773e-01 8.914957e-01 1.157072e+00 1.240413e+00 1.262808e+00 1.333024e+00 1.326519e+00 1.422911e+00 1.357989e+00 1.439751e+00 1.328823e+00 1.446581e+00 1.355700e+00 1.504375e+00 1.413385e+00 1.534488e+00 1.414010e+00 1.492733e+00 1.374684e+00 1.449616e+00 1.386287e+00 1.446281e+00 1.405511e+00 1.452305e+00 1.468725e+00 1.509762e+00 1.536678e+00 1.506488e+00 1.510086e+00 1.447009e+00 1.497078e+00 1.468771e+00 1.565052e+00 1.528941e+00 1.613299e+00 1.560274e+00 1.637688e+00 1.530330e+00 1.549485e+00 1.453675e+00 1.481657e+00 1.404193e+00 1.409461e+00 1.327097e+00 1.313168e+00 1.288843e+00 1.325936e+00 1.346975e+00 1.342577e+00 1.355804e+00 1.301524e+00 1.326176e+00 1.275529e+00 1.350047e+00 1.317845e+00 1.422859e+00 1.355135e+00 1.451429e+00 1.395979e+00 1.520410e+00 1.465641e+00 1.546500e+00 1.452169e+00 1.479792e+00 1.419167e+00 1.471742e+00 1.491756e+00 1.511468e+00 1.535731e+00 1.472460e+00 1.524203e+00 1.429565e+00 1.542938e+00 1.422320e+00 1.573998e+00 1.410646e+00 1.579857e+00 1.411756e+00 1.597985e+00 1.433221e+00 1.594675e+00 1.441947e+00 1.551857e+00 1.456721e+00 1.514225e+00 1.493911e+00 1.464451e+00 1.534352e+00 1.414448e+00 1.595169e+00 1.398792e+00 1.676767e+00 1.365286e+00 1.693406e+00 1.340056e+00 1.757696e+00 1.381083e+00 1.794735e+00 1.358384e+00 1.833666e+00 1.095815e+00 2.490934e+00 5.271063e+00 1.462668e+00 -3.421721e-01 -1.398815e-01 1.094301e-02 
2.363857e-02 2.485668e-03 -1.932650e-02 2.715041e-01 1.638174e+00 -6.039039e-01 -2.625654e+00 -3.643028e-01 -9.355458e-01 -5.754205e-01 -8.504648e-01 -3.991968e-01 2.385943e-01 -4.243669e-01 -1.229788e+00 -1.157720e+00 -1.002265e+00 -1.152362e+00 -1.012523e+00 -1.266144e+00 -3.123456e-01 -6.921846e-02 -3.907687e-01 -7.303063e-01 -6.632703e-01 -7.626312e-01 -6.664491e-01 -7.559382e-01 -6.555677e-01 -7.390380e-01 -6.615769e-01 -7.502475e-01 -6.731070e-01 -7.303047e-01 -6.582139e-01 -7.060466e-01 -6.567756e-01 -6.990304e-01 -6.787827e-01 -7.115876e-01 -6.980227e-01 -6.970922e-01 -6.955792e-01 -6.846314e-01 -6.994087e-01 -6.708640e-01 -6.892664e-01 -6.479394e-01 -6.847618e-01 -6.471020e-01 -6.910045e-01 -6.437498e-01 -6.808490e-01 -6.212498e-01 -6.467971e-01 -5.873346e-01 -6.105893e-01 -5.641795e-01 -6.414470e-01 -6.455702e-01 -7.016142e-01 -7.018064e-01 -7.443526e-01 -7.525935e-01 -7.963039e-01 -8.135595e-01 -8.292483e-01 -8.189770e-01 -8.098371e-01 -8.114415e-01 -7.984797e-01 -8.224031e-01 -8.045558e-01 -8.164249e-01 -7.752623e-01 -7.758243e-01 -7.206006e-01 -7.363504e-01 -6.921528e-01 -7.102640e-01 -6.633089e-01 -6.829915e-01 -6.561591e-01 -6.893049e-01 -6.809687e-01 -6.958483e-01 -6.795149e-01 -6.651765e-01 -6.669758e-01 -6.493314e-01 -6.801271e-01 -6.501158e-01 -6.949423e-01 -6.456761e-01 -7.002739e-01 -6.340916e-01 -6.950054e-01 -6.254745e-01 -6.900307e-01 -6.306160e-01 -6.880316e-01 -6.445794e-01 -6.786019e-01 -6.656800e-01 -6.641192e-01 -6.891630e-01 -6.421040e-01 -7.185371e-01 -6.194699e-01 -7.476247e-01 -5.875787e-01 -7.613425e-01 -5.501745e-01 -7.792698e-01 -5.413198e-01 -7.935119e-01 -5.207971e-01 -7.850242e-01 -5.200639e-01 -8.372468e-01 -5.324449e-01 -1.589336e+00 -1.771883e+00 1.454373e+00 5.677466e-01 -9.417364e-02 -3.265527e-02 1.651534e-02 
1.092178e-02 9.031303e-03 7.589380e-03 4.964036e-02 1.373657e-01 -6.845916e-01 -1.107329e+00 -3.970666e-01 -5.092851e-01 -4.195848e-01 -5.089727e-01 -2.851788e-01 5.926944e-01 2.230611e+00 2.994399e+00 2.724718e+00 2.730821e+00 2.811254e+00 2.616282e+00 2.888716e+00 2.342477e+00 3.886422e-01 -3.146133e-01 -4.970758e-01 -4.498151e-01 -4.812674e-01 -4.488893e-01 -4.834092e-01 -4.557632e-01 -4.802471e-01 -4.601611e-01 -4.800978e-01 -4.654331e-01 -4.753820e-01 -4.673106e-01 -4.732108e-01 -4.707922e-01 -4.703196e-01 -4.738970e-01 -4.698253e-01 -4.756988e-01 -4.656346e-01 -4.743021e-01 -4.633148e-01 -4.765660e-01 -4.663935e-01 -4.801682e-01 -4.666526e-01 -4.780934e-01 -4.632603e-01 -4.728945e-01 -4.606845e-01 -4.719162e-01 -4.612145e-01 -4.659494e-01 -4.510322e-01 -4.485053e-01 -4.375472e-01 -4.515765e-01 -4.547226e-01 -4.630440e-01 -4.676661e-01 -4.748599e-01 -4.799920e-01 -4.851683e-01 -4.867297e-01 -4.821887e-01 -4.720443e-01 -4.573214e-01 -4.435182e-01 -4.293237e-01 -4.277900e-01 -4.296944e-01 -4.406183e-01 -4.519833e-01 -4.659858e-01 -4.728979e-01 -4.789089e-01 -4.782513e-01 -4.786609e-01 -4.758706e-01 -4.751208e-01 -4.739765e-01 -4.736357e-01 -4.731059e-01 -4.706371e-01 -4.706662e-01 -4.677145e-01 -4.707044e-01 -4.670298e-01 -4.705859e-01 -4.655824e-01 -4.707253e-01 -4.661096e-01 -4.719553e-01 -4.655206e-01 -4.685481e-01 -4.627938e-01 -4.669162e-01 -4.670641e-01 -4.690432e-01 -4.719755e-01 -4.664718e-01 -4.745588e-01 -4.626177e-01 -4.789338e-01 -4.586523e-01 -4.841676e-01 -4.547104e-01 -4.894767e-01 -4.497919e-01 -4.935903e-01 -4.454304e-01 -4.971913e-01 -4.436302e-01 -5.006936e-01 -4.436817e-01 -5.044906e-01 -4.477821e-01 -5.248141e-01 -4.593140e-01 -8.250094e-01 -1.069869e+00 -9.127216e-02 3.954722e-02 1.065090e-02 8.247189e-03 1.005029e-02 
