# vtk DataFile Version 2.0
Comment goes here
ASCII

DATASET STRUCTURED_POINTS
FIELD FieldData 1
TIME 1 1 double
0.54000000
DIMENSIONS    128   16   1

ORIGIN    0.000   0.000   0.000
SPACING   0.0078125 0.015625   1.000

POINT_DATA   2048
SCALARS Omega double
LOOKUP_TABLE default

2.766694e-07 -5.327392e-06 -9.974434e-06 -1.505719e-05 -2.171417e-05 -1.550244e-05 1.355919e-06 1.158630e-05 2.416924e-06 5.992969e-06 4.274780e-06 3.170576e-06 -1.098943e-05 2.886430e-07 -1.289669e-05 -1.074072e-05 4.959699e-06 -2.609647e-05 1.930002e-05 -1.695489e-05 4.373196e-05 3.283766e-05 -2.631395e-05 -6.372666e-05 -5.427669e-05 -7.591298e-05 -6.828753e-05 -9.412089e-05 -8.825769e-05 -1.208446e-04 -1.206090e-04 -1.635926e-04 -1.735013e-04 -2.303024e-04 -2.552641e-04 -3.292691e-04 -3.750757e-04 -4.720801e-04 -5.473946e-04 -6.779602e-04 -7.940534e-04 -9.715833e-04 -1.134872e-03 -1.358456e-03 -1.539910e-03 -1.747040e-03 -1.832076e-03 -1.867638e-03 -1.707601e-03 -1.551465e-03 -1.583484e-03 -2.576099e-03 -5.032513e-03 -6.801767e-03 -3.780718e-03 -1.403287e-02 -1.017898e-01 -1.695492e-01 -7.571719e-02 2.762312e-03 8.688468e-03 4.003126e-02 6.252664e-02 8.231141e-02 1.032238e-01 1.173910e-01 1.321093e-01 1.388752e-01 1.508388e-01 1.461233e-01 1.666255e-01 2.407898e-01 2.157678e-01 1.165942e-01 6.504763e-02 4.734990e-02 3.389494e-02 2.146151e-02 1.199849e-02 5.555952e-03 1.518645e-03 -7.411984e-04 -1.794628e-03 -2.072357e-03 -1.927448e-03 -1.608360e-03 -1.235599e-03 -9.205650e-04 -6.433179e-04 -4.601099e-04 -3.036074e-04 -2.196192e-04 -1.394981e-04 -1.068530e-04 -6.678170e-05 -5.582902e-05 -3.634943e-05 -3.255917e-05 -2.430507e-05 -2.114405e-05 -1.925453e-05 -1.423787e-05 -1.647391e-05 -9.272521e-06 -1.465581e-05 -5.556990e-06 -1.352686e-05 -2.998685e-06 -1.295217e-05 -1.167074e-06 -1.224424e-05 6.262099e-07 -1.072081e-05 3.061909e-06 -7.464512e-06 7.345485e-06 -1.447589e-06 1.393729e-05 5.831734e-06 1.952142e-05 8.527449e-06 2.192542e-05 8.783807e-06 3.248178e-05 3.226327e-05 2.427097e-05 1.520228e-05 6.959736e-06 
-1.064763e-02 -7.766853e-03 -1.240270e-02 -5.442178e-02 -2.068239e-02 9.800971e-01 6.224594e-01 7.937568e-02 4.239265e-01 2.487009e-01 3.647364e-01 2.638345e-02 -3.995729e-01 -1.237874e+00 -1.685997e+00 -1.706010e+00 -1.467893e+00 -1.663304e+00 -1.469036e+00 -1.560956e+00 -1.349781e+00 -3.099629e-01 1.018214e-01 3.358184e-01 3.189471e-01 3.546123e-01 3.173487e-01 3.536955e-01 3.202367e-01 3.527931e-01 3.223445e-01 3.506097e-01 3.242052e-01 3.477719e-01 3.259828e-01 3.445310e-01 3.276616e-01 3.410455e-01 3.291507e-01 3.373516e-01 3.302452e-01 3.334199e-01 3.307303e-01 3.293219e-01 3.305048e-01 3.252837e-01 3.296463e-01 3.217412e-01 3.285456e-01 3.191116e-01 3.266837e-01 3.151241e-01 3.219533e-01 3.183695e-01 2.872670e-01 -1.902258e-01 -1.864573e+00 -2.506667e+00 -7.707053e-01 -3.393852e-01 -6.460711e-01 -2.413130e-01 -1.163459e-01 8.819884e-02 3.184575e-01 4.623918e-01 6.995647e-01 7.663899e-01 1.013483e+00 9.528688e-01 1.035413e+00 2.437087e+00 2.640978e+00 1.268080e+00 5.017547e-01 3.574124e-01 3.381645e-01 3.346776e-01 3.263813e-01 3.263179e-01 3.222567e-01 3.250104e-01 3.233620e-01 3.262805e-01 3.259855e-01 3.277080e-01 3.284128e-01 3.284736e-01 3.301207e-01 3.286971e-01 3.311361e-01 3.287771e-01 3.315024e-01 3.290643e-01 3.312017e-01 3.298512e-01 3.302179e-01 3.313432e-01 3.285417e-01 3.335944e-01 3.261863e-01 3.365134e-01 3.232677e-01 3.399029e-01 3.200280e-01 3.434193e-01 3.168097e-01 3.466066e-01 3.141466e-01 3.490094e-01 3.127572e-01 3.501913e-01 3.134767e-01 3.499421e-01 3.173786e-01 3.488293e-01 3.259472e-01 3.491670e-01 3.408995e-01 3.580399e-01 3.749750e-01 4.932007e-01 7.522592e-01 1.882381e-01 -3.153588e-02 -1.883303e-02 -1.440063e-02 -1.278476e-02 
-8.040275e-03 7.364798e-03 -2.569247e-02 -3.864990e-01 -1.014967e+00 2.024542e+00 1.295777e+00 -3.748358e-01 7.598866e-01 2.305152e-01 5.976950e-01 6.731116e-02 4.339466e-01 2.724850e-01 9.730875e-01 7.406168e-01 8.116295e-01 7.069329e-01 8.139167e-01 7.863583e-01 3.759131e-01 5.062611e-01 1.889968e-01 4.236699e-01 4.187007e-01 4.768085e-01 4.143153e-01 4.784272e-01 4.080492e-01 4.809366e-01 4.026665e-01 4.807200e-01 3.980553e-01 4.776480e-01 3.966130e-01 4.751208e-01 4.015200e-01 4.729260e-01 4.077943e-01 4.643453e-01 4.106383e-01 4.513605e-01 4.158173e-01 4.420587e-01 4.270662e-01 4.378985e-01 4.418324e-01 4.382646e-01 4.601492e-01 4.470415e-01 4.872368e-01 4.738071e-01 5.417437e-01 5.599043e-01 6.179260e-01 9.761625e-02 -1.845034e+00 -2.445959e+00 -1.871753e-01 -1.240761e-01 -5.510640e-01 -8.227384e-02 -1.836720e-01 -9.418868e-02 3.766779e-02 5.428176e-02 2.665563e-01 1.972945e-01 5.248665e-01 5.648847e-01 3.687216e-01 2.028584e+00 2.670044e+00 1.286745e+00 3.968687e-01 2.848484e-01 2.718129e-01 3.376238e-01 3.275656e-01 3.778677e-01 3.618641e-01 3.971147e-01 3.829578e-01 4.022057e-01 3.968069e-01 3.986238e-01 4.071858e-01 3.927386e-01 4.192699e-01 3.900451e-01 4.318367e-01 3.873723e-01 4.370421e-01 3.812526e-01 4.334844e-01 3.781912e-01 4.282783e-01 3.852902e-01 4.220280e-01 3.996567e-01 4.106122e-01 4.179397e-01 3.928232e-01 4.367120e-01 3.686251e-01 4.551721e-01 3.449157e-01 4.757529e-01 3.272034e-01 4.940732e-01 3.158033e-01 5.034854e-01 3.122546e-01 5.000024e-01 3.204816e-01 4.832553e-01 3.455421e-01 4.569630e-01 3.943470e-01 4.391532e-01 4.815564e-01 6.099947e-01 1.555122e+00 -5.786429e-01 -8.987316e-01 -4.104289e-02 2.101372e-02 -5.457163e-03 
6.625030e-03 3.294079e-02 -2.977493e-02 -8.966164e-01 -3.299824e+00 -1.317354e+00 -7.136946e-02 -1.330270e+00 -6.492576e-01 -9.416026e-01 -6.679507e-01 -5.210191e-01 -4.409018e-01 -2.264129e-01 -5.105620e-01 -2.920220e-01 -4.114732e-01 -2.686383e-01 -4.176623e-01 -4.296269e-01 -2.108850e-01 -6.353480e-01 -4.981130e-01 -8.201182e-01 -7.739284e-01 -9.128709e-01 -8.505833e-01 -9.250077e-01 -8.986740e-01 -9.190818e-01 -9.347336e-01 -9.096545e-01 -9.646517e-01 -9.022211e-01 -9.835018e-01 -8.893172e-01 -9.825107e-01 -8.732382e-01 -9.762266e-01 -8.744575e-01 -9.777580e-01 -8.873631e-01 -9.690213e-01 -8.890359e-01 -9.384438e-01 -8.766437e-01 -8.933837e-01 -8.539908e-01 -8.354390e-01 -8.135143e-01 -7.533544e-01 -7.339609e-01 -6.153299e-01 -5.656920e-01 -3.060699e-01 1.861560e-01 1.713139e+00 2.172530e+00 8.445422e-01 3.928962e-01 6.241096e-01 1.278720e-01 5.701918e-03 -3.192342e-01 -5.742169e-01 -8.281216e-01 -1.130803e+00 -1.292095e+00 -1.645829e+00 -1.738492e+00 -2.002477e+00 -3.465830e+00 -3.768932e+00 -2.288239e+00 -1.573322e+00 -1.285303e+00 -1.283003e+00 -1.133612e+00 -1.157090e+00 -1.040038e+00 -1.077923e+00 -1.001027e+00 -1.035414e+00 -9.972730e-01 -1.010106e+00 -1.012745e+00 -9.905857e-01 -1.030539e+00 -9.621395e-01 -1.037258e+00 -9.289957e-01 -1.044710e+00 -9.139436e-01 -1.064849e+00 -9.204840e-01 -1.080067e+00 -9.274300e-01 -1.070605e+00 -9.330101e-01 -1.045066e+00 -9.495514e-01 -1.012349e+00 -9.815490e-01 -9.808224e-01 -1.030870e+00 -9.500829e-01 -1.079602e+00 -9.094769e-01 -1.115155e+00 -8.684446e-01 -1.141298e+00 -8.431326e-01 -1.158533e+00 -8.429582e-01 -1.161091e+00 -8.711428e-01 -1.142129e+00 -9.315207e-01 -1.097908e+00 -1.031106e+00 -1.044580e+00 -1.175169e+00 -3.333001e-01 -3.229308e+00 -2.567071e+00 -4.666611e-02 1.211885e-01 2.770437e-02 
4.030590e-03 3.737285e-02 7.714850e-02 -3.692221e-01 -2.574332e+00 -4.657120e+00 -2.029451e+00 -1.196053e+00 -1.908459e+00 -1.527401e+00 -1.815953e+00 -1.522925e+00 -1.764249e+00 -1.547557e+00 -1.719678e+00 -1.595578e+00 -1.713780e+00 -1.640600e+00 -1.663264e+00 -1.667836e+00 -1.672083e+00 -1.639970e+00 -1.465131e+00 -1.716192e+00 -1.547227e+00 -1.784201e+00 -1.636558e+00 -1.811326e+00 -1.691187e+00 -1.812189e+00 -1.729840e+00 -1.803601e+00 -1.760722e+00 -1.792448e+00 -1.781934e+00 -1.775251e+00 -1.788125e+00 -1.754709e+00 -1.789645e+00 -1.745490e+00 -1.795340e+00 -1.743914e+00 -1.792394e+00 -1.734572e+00 -1.772619e+00 -1.716024e+00 -1.740801e+00 -1.691210e+00 -1.697949e+00 -1.655575e+00 -1.637550e+00 -1.597317e+00 -1.540270e+00 -1.486975e+00 -1.382948e+00 -1.441546e+00 -1.648264e+00 -1.768923e+00 -1.611258e+00 -1.214998e+00 -1.378043e+00 -1.494758e+00 -1.332496e+00 -1.437490e+00 -1.369717e+00 -1.388520e+00 -1.368211e+00 -1.359688e+00 -1.324742e+00 -1.501053e+00 -1.225950e+00 -3.196902e-01 -6.507843e-01 -1.642971e+00 -2.101769e+00 -2.014893e+00 -2.007714e+00 -1.911516e+00 -1.927084e+00 -1.853834e+00 -1.876683e+00 -1.827401e+00 -1.847996e+00 -1.822543e+00 -1.830407e+00 -1.830319e+00 -1.816644e+00 -1.839931e+00 -1.796455e+00 -1.842837e+00 -1.772548e+00 -1.847712e+00 -1.760166e+00 -1.863120e+00 -1.761256e+00 -1.877192e+00 -1.761007e+00 -1.876502e+00 -1.758270e+00 -1.866820e+00 -1.761734e+00 -1.853664e+00 -1.775004e+00 -1.841923e+00 -1.800207e+00 -1.830011e+00 -1.826028e+00 -1.809046e+00 -1.845346e+00 -1.784138e+00 -1.862716e+00 -1.765084e+00 -1.880410e+00 -1.757345e+00 -1.896116e+00 -1.763017e+00 -1.905646e+00 -1.785707e+00 -1.902032e+00 -1.830070e+00 -1.854261e+00 -2.039181e+00 -2.595490e+00 -3.473639e+00 -2.090376e+00 -9.961414e-02 8.141791e-02 1.570739e-02 
-1.028504e-02 4.357022e-03 4.908919e-02 8.835828e-02 -3.098717e-01 -2.284406e+00 -1.322186e+00 -4.192536e-01 -1.027851e+00 -6.518196e-01 -8.942919e-01 -8.718224e-01 -1.079650e+00 -1.004441e+00 -8.665709e-01 -8.602475e-01 -8.678774e-01 -8.628434e-01 -8.644271e-01 -8.674390e-01 -9.503375e-01 -9.563161e-01 -9.458029e-01 -8.470272e-01 -7.237478e-01 -8.078616e-01 -7.419002e-01 -8.178607e-01 -7.571566e-01 -8.215722e-01 -7.689341e-01 -8.214995e-01 -7.780661e-01 -8.188029e-01 -7.850153e-01 -8.143449e-01 -7.901481e-01 -8.091278e-01 -7.943864e-01 -8.043657e-01 -7.983411e-01 -8.003166e-01 -8.016763e-01 -7.969207e-01 -8.044324e-01 -7.948806e-01 -8.071904e-01 -7.948514e-01 -8.100688e-01 -7.965733e-01 -8.121050e-01 -7.970312e-01 -7.992285e-01 -7.516381e-01 -7.505502e-01 -1.359739e+00 -3.931437e+00 -4.324197e+00 -1.687763e+00 -1.852752e+00 -2.229805e+00 -1.457825e+00 -1.734094e+00 -1.475539e+00 -1.331396e+00 -1.278576e+00 -1.001830e+00 -1.085056e+00 -7.227173e-01 -4.743341e-01 -1.147064e+00 -1.520391e-01 1.165334e+00 4.520235e-01 -4.513062e-01 -7.636587e-01 -8.321093e-01 -8.441394e-01 -8.472925e-01 -8.437018e-01 -8.401726e-01 -8.330913e-01 -8.292259e-01 -8.222239e-01 -8.199991e-01 -8.140621e-01 -8.132711e-01 -8.086049e-01 -8.081291e-01 -8.052458e-01 -8.039346e-01 -8.040072e-01 -8.005764e-01 -8.049461e-01 -7.975450e-01 -8.073496e-01 -7.938976e-01 -8.105230e-01 -7.895425e-01 -8.144784e-01 -7.849225e-01 -8.190160e-01 -7.804637e-01 -8.238075e-01 -7.767187e-01 -8.280481e-01 -7.737668e-01 -8.305254e-01 -7.721263e-01 -8.307048e-01 -7.729727e-01 -8.282379e-01 -7.771920e-01 -8.224910e-01 -7.847808e-01 -8.123603e-01 -7.935172e-01 -7.952678e-01 -7.944838e-01 -7.635733e-01 -7.543819e-01 -8.793651e-01 -1.728801e+00 -1.061352e+00 -2.124881e-01 4.069967e-02 1.421797e-02 -9.182161e-03 
-1.199258e-02 -6.389775e-03 4.946185e-03 3.106078e-02 3.689123e-02 -1.410866e-01 -1.815829e-01 -1.043666e-01 -1.064557e-01 -3.626866e-02 -3.832254e-02 -3.484263e-01 -1.115980e+00 -9.439954e-01 -5.556047e-01 -5.545961e-01 -5.549082e-01 -5.546961e-01 -5.547710e-01 -5.551986e-01 -7.929315e-01 -9.581135e-01 -6.276320e-01 -2.208203e-01 -1.102024e-01 -1.000201e-01 -8.825344e-02 -8.931650e-02 -8.242893e-02 -8.617487e-02 -8.247514e-02 -8.629352e-02 -8.395507e-02 -8.688750e-02 -8.544984e-02 -8.739176e-02 -8.678011e-02 -8.788434e-02 -8.811474e-02 -8.862381e-02 -8.973819e-02 -8.994753e-02 -9.200449e-02 -9.223134e-02 -9.523337e-02 -9.566635e-02 -9.930405e-02 -9.961170e-02 -1.027204e-01 -1.013102e-01 -1.008669e-01 -9.288824e-02 -7.678901e-02 -3.224391e-02 3.101824e-02 -1.169135e-01 -1.031488e+00 -8.638039e-01 1.523841e-01 -4.461720e-01 -3.686760e-01 -1.444451e-01 -5.104769e-01 -2.946011e-01 -4.212368e-01 -4.615445e-01 -5.236391e-01 -4.703882e-01 -7.378736e-01 -6.321213e-01 -5.122507e-01 -1.723410e+00 -1.702073e+00 -4.218964e-01 8.774868e-02 4.409715e-02 -2.695746e-02 -6.668761e-02 -8.743978e-02 -9.813604e-02 -1.029715e-01 -1.039087e-01 -1.032613e-01 -1.009343e-01 -9.912564e-02 -9.625189e-02 -9.489222e-02 -9.236266e-02 -9.176923e-02 -8.972508e-02 -8.971604e-02 -8.811380e-02 -8.837999e-02 -8.721729e-02 -8.744649e-02 -8.680791e-02 -8.670797e-02 -8.674390e-02 -8.604317e-02 -8.692891e-02 -8.538466e-02 -8.728482e-02 -8.470827e-02 -8.774169e-02 -8.402352e-02 -8.822264e-02 -8.336142e-02 -8.863651e-02 -8.276440e-02 -8.885758e-02 -8.222998e-02 -8.863933e-02 -8.155174e-02 -8.740470e-02 -7.997910e-02 -8.386559e-02 -7.570326e-02 -7.576937e-02 -6.561849e-02 -6.075553e-02 -5.011284e-02 -9.260722e-02 -1.754223e-01 -6.241931e-02 3.038628e-03 -2.318092e-03 -1.441974e-02 -1.504281e-02 
-7.973998e-03 -6.643389e-03 -4.852835e-03 -1.165730e-03 5.039564e-03 1.563836e-03 -7.781463e-03 -3.017357e-03 1.035367e-02 3.579056e-02 4.983022e-02 -1.201161e-01 -5.703567e-01 -4.964796e-01 -2.771484e-01 -2.767129e-01 -2.767122e-01 -2.767122e-01 -2.767124e-01 -2.768569e-01 -3.862574e-01 -4.697237e-01 -3.041697e-01 -8.844906e-02 -3.273570e-02 -2.220990e-02 -1.569198e-02 -1.119961e-02 -8.199116e-03 -6.837404e-03 -6.086269e-03 -5.893805e-03 -5.869264e-03 -5.979202e-03 -6.181121e-03 -6.347094e-03 -6.645227e-03 -6.839012e-03 -7.237597e-03 -7.512757e-03 -8.066166e-03 -8.501665e-03 -9.263003e-03 -9.891964e-03 -1.079528e-02 -1.140934e-02 -1.197025e-02 -1.170211e-02 -1.049245e-02 -7.236411e-03 -1.374130e-03 8.555411e-03 2.465152e-02 5.328933e-02 9.687623e-02 7.146699e-02 -2.989136e-01 -4.801902e-01 -1.261440e-01 5.033397e-02 5.394327e-02 -3.084615e-02 -3.668948e-02 4.852059e-02 2.200243e-02 5.126124e-02 3.097690e-02 2.023557e-01 4.352450e-02 -1.207307e-01 7.928489e-01 1.356061e+00 8.538089e-01 3.888636e-01 2.341285e-01 1.498210e-01 8.767472e-02 4.652715e-02 2.046223e-02 4.410499e-03 -5.020397e-03 -1.006376e-02 -1.235253e-02 -1.292102e-02 -1.262984e-02 -1.182769e-02 -1.098521e-02 -1.005138e-02 -9.344989e-03 -8.615176e-03 -8.160081e-03 -7.644214e-03 -7.386944e-03 -7.026867e-03 -6.895061e-03 -6.642396e-03 -6.579105e-03 -6.406033e-03 -6.369441e-03 -6.263451e-03 -6.221702e-03 -6.179789e-03 -6.107933e-03 -6.132282e-03 -6.010852e-03 -6.104484e-03 -5.917947e-03 -6.078431e-03 -5.810384e-03 -6.016610e-03 -5.633105e-03 -5.813711e-03 -5.220630e-03 -5.194348e-03 -4.170434e-03 -3.597892e-03 -1.807085e-03 -3.828998e-04 2.221389e-03 4.065737e-03 6.242540e-03 2.485485e-03 -1.888458e-03 1.050838e-03 -2.356200e-03 -6.913448e-03 -9.008836e-03 -8.760217e-03 
-5.538554e-06 -2.861551e-06 -5.549800e-07 1.148307e-06 2.370290e-06 2.906346e-06 2.604355e-06 2.249951e-06 2.227728e-06 2.125745e-06 2.346038e-06 -1.947122e-06 -1.354268e-04 -2.243370e-05 -5.014540e-09 -2.211562e-10 -2.272697e-10 -1.232926e-10 1.968738e-09 1.637955e-06 1.275529e-03 1.619103e-03 4.878740e-04 1.231836e-04 2.236128e-05 -2.336492e-05 -5.883736e-05 -8.604489e-05 -1.095510e-04 -1.342193e-04 -1.634445e-04 -2.015238e-04 -2.489865e-04 -3.111121e-04 -3.872695e-04 -4.852271e-04 -6.045345e-04 -7.561944e-04 -9.411742e-04 -1.173009e-03 -1.453589e-03 -1.792982e-03 -2.184974e-03 -2.614514e-03 -3.035045e-03 -3.353535e-03 -3.415802e-03 -2.970367e-03 -1.684904e-03 8.862084e-04 5.189617e-03 1.163759e-02 2.042384e-02 3.207722e-02 4.762949e-02 6.367262e-02 6.414293e-02 7.006641e-02 9.111185e-02 1.065351e-01 1.159145e-01 1.186350e-01 1.250350e-01 1.321772e-01 1.390235e-01 1.448818e-01 1.538696e-01 1.689140e-01 1.622856e-01 1.955531e-01 2.633799e-01 2.607867e-01 2.180931e-01 1.823722e-01 1.428985e-01 1.014050e-01 6.677585e-02 4.115539e-02 2.323754e-02 1.123365e-02 3.631277e-03 -8.423186e-04 -3.158199e-03 -4.114717e-03 -4.241028e-03 -3.948560e-03 -3.456288e-03 -2.927036e-03 -2.418485e-03 -1.975190e-03 -1.596640e-03 -1.286140e-03 -1.031649e-03 -8.267475e-04 -6.615052e-04 -5.290811e-04 -4.231857e-04 -3.383869e-04 -2.709052e-04 -2.167771e-04 -1.737135e-04 -1.390422e-04 -1.113780e-04 -8.910446e-05 -7.131955e-05 -5.713953e-05 -4.583173e-05 -3.695563e-05 -2.981092e-05 -2.423263e-05 -1.956041e-05 -1.588439e-05 -1.265864e-05 -1.026583e-05 -8.277294e-06 -7.282639e-06 -6.828286e-06 -7.449591e-06 -8.482483e-06 -1.016751e-05 -1.170685e-05 -1.312142e-05 -1.430398e-05 -1.498761e-05 -1.499667e-05 -1.348718e-05 -1.127233e-05 -8.460902e-06 
7.962399e-03 6.637786e-03 4.852609e-03 1.170088e-03 -5.031026e-03 -1.553872e-03 7.787318e-03 3.020377e-03 -1.034843e-02 -3.578474e-02 -4.982333e-02 1.201087e-01 5.701908e-01 4.964247e-01 2.771483e-01 2.767129e-01 2.767122e-01 2.767122e-01 2.767124e-01 2.768619e-01 3.900819e-01 4.746660e-01 3.057232e-01 8.879832e-02 3.279088e-02 2.216547e-02 1.556992e-02 1.101959e-02 7.960987e-03 6.542643e-03 5.716736e-03 5.434812e-03 5.290546e-03 5.252175e-03 5.262605e-03 5.189759e-03 5.185908e-03 5.001473e-03 4.926133e-03 4.608843e-03 4.428441e-03 3.965720e-03 3.654293e-03 3.053594e-03 2.634518e-03 1.996960e-03 1.652566e-03 1.308177e-03 1.516468e-03 2.108505e-03 3.598635e-03 5.807103e-03 8.952965e-03 1.258207e-02 1.660410e-02 2.045653e-02 2.339797e-02 2.561595e-02 2.760322e-02 2.956269e-02 3.195443e-02 3.450316e-02 3.720711e-02 4.035102e-02 4.391651e-02 4.814949e-02 5.352179e-02 5.988655e-02 6.713549e-02 7.719035e-02 8.662110e-02 9.137783e-02 8.996360e-02 8.075484e-02 6.547757e-02 4.882522e-02 3.392942e-02 2.207147e-02 1.326853e-02 7.234531e-03 3.469387e-03 1.390525e-03 5.680303e-04 4.587594e-04 8.807577e-04 1.423563e-03 2.143768e-03 2.721708e-03 3.371937e-03 3.797214e-03 4.298119e-03 4.562400e-03 4.931058e-03 5.075012e-03 5.342813e-03 5.410352e-03 5.599995e-03 5.628530e-03 5.751732e-03 5.772061e-03 5.831744e-03 5.868918e-03 5.862060e-03 5.935756e-03 5.856168e-03 5.980033e-03 5.820334e-03 5.998817e-03 5.748106e-03 5.964943e-03 5.593159e-03 5.780275e-03 5.195639e-03 5.173322e-03 4.155154e-03 3.583999e-03 1.795763e-03 3.700268e-04 -2.234705e-03 -4.082525e-03 -6.260504e-03 -2.506884e-03 1.865627e-03 -1.079427e-03 2.325885e-03 6.885237e-03 8.985150e-03 8.742133e-03 
1.197863e-02 6.383659e-03 -4.944115e-03 -3.104652e-02 -3.685785e-02 1.411052e-01 1.815880e-01 1.043326e-01 1.064383e-01 3.623944e-02 3.830629e-02 3.483886e-01 1.115725e+00 9.439994e-01 5.556016e-01 5.545936e-01 5.549048e-01 5.546930e-01 5.547677e-01 5.551977e-01 7.952173e-01 9.607049e-01 6.283465e-01 2.210132e-01 1.101802e-01 9.996488e-02 8.807819e-02 8.913725e-02 8.212618e-02 8.585860e-02 8.200299e-02 8.576210e-02 8.320998e-02 8.600177e-02 8.426116e-02 8.592920e-02 8.486540e-02 8.547738e-02 8.500081e-02 8.466786e-02 8.465294e-02 8.347721e-02 8.375578e-02 8.182737e-02 8.221587e-02 7.964441e-02 8.000399e-02 7.698238e-02 7.729312e-02 7.413412e-02 7.448243e-02 7.149640e-02 7.186549e-02 6.906847e-02 6.915321e-02 6.628648e-02 6.568773e-02 6.297470e-02 6.583319e-02 6.694344e-02 6.989641e-02 7.226629e-02 7.548857e-02 7.806053e-02 8.149153e-02 8.438938e-02 8.810278e-02 9.164546e-02 9.557072e-02 9.979496e-02 1.026650e-01 1.057497e-01 1.043088e-01 9.959154e-02 9.299819e-02 8.673196e-02 8.102647e-02 7.692989e-02 7.414570e-02 7.278448e-02 7.264257e-02 7.306779e-02 7.446001e-02 7.548814e-02 7.743300e-02 7.828744e-02 8.024457e-02 8.063487e-02 8.240330e-02 8.235619e-02 8.387558e-02 8.356592e-02 8.477964e-02 8.443633e-02 8.523964e-02 8.511302e-02 8.535526e-02 8.570348e-02 8.520533e-02 8.627409e-02 8.485162e-02 8.685181e-02 8.435214e-02 8.743465e-02 8.377181e-02 8.799217e-02 8.317914e-02 8.846062e-02 8.263595e-02 8.872647e-02 8.214855e-02 8.854991e-02 8.151604e-02 8.735730e-02 7.998682e-02 8.385383e-02 7.574201e-02 7.577709e-02 6.567237e-02 6.076752e-02 5.017312e-02 9.258842e-02 1.754720e-01 6.240113e-02 -3.078473e-03 2.283533e-03 1.439145e-02 1.502083e-02 
1.026806e-02 -4.363486e-03 -4.908060e-02 -8.831195e-02 3.099788e-01 2.284180e+00 1.322107e+00 4.188041e-01 1.027388e+00 6.511796e-01 8.937052e-01 8.711786e-01 1.079102e+00 1.004529e+00 8.665013e-01 8.601916e-01 8.677983e-01 8.627684e-01 8.643437e-01 8.673403e-01 9.527049e-01 9.591886e-01 9.469512e-01 8.481642e-01 7.243813e-01 8.090198e-01 7.425101e-01 8.190330e-01 7.577430e-01 8.228489e-01 7.697594e-01 8.230300e-01 7.791393e-01 8.203679e-01 7.863167e-01 8.162936e-01 7.925212e-01 8.124504e-01 7.985171e-01 8.092614e-01 8.038585e-01 8.061651e-01 8.077327e-01 8.026412e-01 8.097479e-01 7.986521e-01 8.098783e-01 7.940801e-01 8.075180e-01 7.876218e-01 8.006372e-01 7.765199e-01 7.862694e-01 7.574744e-01 7.614112e-01 7.269389e-01 7.227192e-01 6.900227e-01 7.205108e-01 7.128229e-01 7.333999e-01 7.356532e-01 7.562391e-01 7.592111e-01 7.799477e-01 7.823956e-01 8.008434e-01 8.035919e-01 8.169065e-01 8.232752e-01 8.277693e-01 8.419573e-01 8.418359e-01 8.243634e-01 8.106429e-01 7.976718e-01 7.904930e-01 7.844350e-01 7.828377e-01 7.812025e-01 7.830336e-01 7.831562e-01 7.865804e-01 7.868864e-01 7.907770e-01 7.907276e-01 7.942723e-01 7.940849e-01 7.964980e-01 7.969878e-01 7.973768e-01 7.998115e-01 7.969982e-01 8.028311e-01 7.953601e-01 8.062089e-01 7.925388e-01 8.098940e-01 7.884826e-01 8.136950e-01 7.837006e-01 8.179490e-01 7.791500e-01 8.224917e-01 7.751928e-01 8.264365e-01 7.721283e-01 8.288425e-01 7.705369e-01 8.290456e-01 7.715936e-01 8.269396e-01 7.765309e-01 8.220667e-01 7.851736e-01 8.127560e-01 7.944775e-01 7.957521e-01 7.954740e-01 7.640052e-01 7.555675e-01 8.793027e-01 1.729829e+00 1.061460e+00 2.123480e-01 -4.076308e-02 -1.425293e-02 9.155057e-03 
-4.050662e-03 -3.738537e-02 -7.715679e-02 3.692475e-01 2.574597e+00 4.656855e+00 2.029568e+00 1.196036e+00 1.908266e+00 1.526725e+00 1.814974e+00 1.521846e+00 1.763305e+00 1.547779e+00 1.719027e+00 1.595683e+00 1.713044e+00 1.640782e+00 1.662643e+00 1.668036e+00 1.673585e+00 1.643528e+00 1.466411e+00 1.716610e+00 1.546579e+00 1.784649e+00 1.636811e+00 1.813437e+00 1.693696e+00 1.818554e+00 1.738546e+00 1.815696e+00 1.771534e+00 1.800906e+00 1.787090e+00 1.780796e+00 1.799489e+00 1.774573e+00 1.820930e+00 1.784285e+00 1.843010e+00 1.795581e+00 1.852244e+00 1.799354e+00 1.849377e+00 1.803566e+00 1.849662e+00 1.821778e+00 1.862269e+00 1.850348e+00 1.874610e+00 1.870308e+00 1.873955e+00 1.877378e+00 1.865100e+00 1.873577e+00 1.842205e+00 1.854357e+00 1.846676e+00 1.871468e+00 1.847251e+00 1.867699e+00 1.846357e+00 1.851510e+00 1.837488e+00 1.826383e+00 1.821486e+00 1.797163e+00 1.804702e+00 1.775619e+00 1.796889e+00 1.773369e+00 1.812002e+00 1.754715e+00 1.793315e+00 1.736000e+00 1.785827e+00 1.735582e+00 1.791763e+00 1.751072e+00 1.800809e+00 1.769400e+00 1.803544e+00 1.787543e+00 1.801251e+00 1.806065e+00 1.794846e+00 1.823979e+00 1.785401e+00 1.840278e+00 1.774866e+00 1.854784e+00 1.765856e+00 1.866516e+00 1.760105e+00 1.874906e+00 1.758786e+00 1.875347e+00 1.756403e+00 1.863536e+00 1.758297e+00 1.852007e+00 1.776135e+00 1.844525e+00 1.802711e+00 1.831925e+00 1.826832e+00 1.808825e+00 1.842106e+00 1.778567e+00 1.854461e+00 1.757718e+00 1.874838e+00 1.756727e+00 1.899293e+00 1.768937e+00 1.910217e+00 1.787091e+00 1.901379e+00 1.829352e+00 1.856889e+00 2.040749e+00 2.600350e+00 3.473362e+00 2.089151e+00 9.940114e-02 -8.145427e-02 -1.573423e-02 
-6.646855e-03 -3.296299e-02 2.974383e-02 8.965728e-01 3.300039e+00 1.317630e+00 7.179031e-02 1.331394e+00 6.502035e-01 9.422725e-01 6.680575e-01 5.210890e-01 4.411530e-01 2.262434e-01 5.102881e-01 2.922179e-01 4.108121e-01 2.687732e-01 4.179157e-01 4.306516e-01 2.124689e-01 6.364277e-01 4.981603e-01 8.178411e-01 7.709788e-01 9.102231e-01 8.489652e-01 9.248161e-01 9.005138e-01 9.251008e-01 9.453848e-01 9.236060e-01 9.774313e-01 9.096985e-01 9.859259e-01 8.900230e-01 9.902624e-01 8.906659e-01 1.007880e+00 9.139065e-01 1.026962e+00 9.386688e-01 1.028506e+00 9.518285e-01 1.014611e+00 9.656683e-01 1.009130e+00 1.001587e+00 1.028192e+00 1.057569e+00 1.058022e+00 1.111850e+00 1.087356e+00 1.167121e+00 1.132127e+00 1.235814e+00 1.189857e+00 1.289774e+00 1.187553e+00 1.248854e+00 1.151107e+00 1.179312e+00 1.087263e+00 1.089040e+00 1.008503e+00 9.858981e-01 9.266870e-01 8.825098e-01 8.579747e-01 7.970903e-01 8.190628e-01 7.472180e-01 8.128778e-01 7.686789e-01 8.669718e-01 8.089658e-01 9.106113e-01 8.473026e-01 9.480481e-01 8.896702e-01 9.736362e-01 9.255446e-01 9.811985e-01 9.561650e-01 9.773198e-01 9.850776e-01 9.659822e-01 1.011931e+00 9.504617e-01 1.035437e+00 9.346104e-01 1.054867e+00 9.229340e-01 1.068395e+00 9.187299e-01 1.074999e+00 9.240632e-01 1.067709e+00 9.307796e-01 1.040336e+00 9.461511e-01 1.011609e+00 9.860835e-01 9.878511e-01 1.038465e+00 9.570942e-01 1.085028e+00 9.134651e-01 1.114209e+00 8.640553e-01 1.131982e+00 8.349893e-01 1.151519e+00 8.430661e-01 1.164989e+00 8.793155e-01 1.146701e+00 9.323502e-01 1.094238e+00 1.028811e+00 1.045578e+00 1.177755e+00 3.382339e-01 3.228476e+00 2.565471e+00 4.648034e-02 -1.211979e-01 -2.771715e-02 
8.024696e-03 -7.389674e-03 2.564559e-02 3.864032e-01 1.014925e+00 -2.024117e+00 -1.295480e+00 3.758205e-01 -7.589404e-01 -2.294387e-01 -5.968809e-01 -6.661049e-02 -4.335343e-01 -2.718206e-01 -9.718431e-01 -7.408340e-01 -8.103226e-01 -7.072805e-01 -8.129042e-01 -7.862368e-01 -3.733274e-01 -5.051184e-01 -1.891845e-01 -4.257878e-01 -4.206450e-01 -4.792824e-01 -4.157422e-01 -4.800010e-01 -4.081635e-01 -4.803324e-01 -3.998162e-01 -4.775593e-01 -3.949051e-01 -4.772763e-01 -3.980504e-01 -4.783347e-01 -4.029834e-01 -4.725143e-01 -4.036763e-01 -4.592963e-01 -4.038497e-01 -4.460175e-01 -4.096613e-01 -4.371760e-01 -4.198525e-01 -4.282645e-01 -4.253718e-01 -4.111158e-01 -4.191918e-01 -3.846850e-01 -4.036140e-01 -3.534196e-01 -3.788437e-01 -3.120865e-01 -3.352225e-01 -2.517691e-01 -2.707350e-01 -1.949250e-01 -2.818937e-01 -2.488849e-01 -3.187509e-01 -3.115472e-01 -3.785602e-01 -3.827050e-01 -4.447804e-01 -4.573609e-01 -5.068507e-01 -5.275458e-01 -5.551722e-01 -5.860917e-01 -5.825532e-01 -6.265206e-01 -5.959277e-01 -5.902960e-01 -5.311452e-01 -5.379507e-01 -4.833225e-01 -5.000172e-01 -4.500336e-01 -4.698293e-01 -4.292188e-01 -4.474756e-01 -4.199761e-01 -4.302774e-01 -4.181250e-01 -4.158458e-01 -4.209647e-01 -4.035932e-01 -4.262261e-01 -3.936116e-01 -4.317300e-01 -3.861703e-01 -4.352689e-01 -3.819955e-01 -4.350743e-01 -3.815130e-01 -4.300325e-01 -3.872849e-01 -4.228548e-01 -4.014725e-01 -4.111559e-01 -4.174695e-01 -3.899317e-01 -4.327341e-01 -3.641120e-01 -4.506655e-01 -3.409639e-01 -4.722220e-01 -3.256749e-01 -4.937080e-01 -3.176757e-01 -5.049769e-01 -3.141388e-01 -4.994518e-01 -3.195247e-01 -4.806575e-01 -3.450189e-01 -4.572541e-01 -3.969599e-01 -4.405492e-01 -4.826045e-01 -6.089937e-01 -1.554434e+00 5.782080e-01 8.982576e-01 4.103663e-02 -2.098999e-02 5.455522e-03 
1.064304e-02 7.750730e-03 1.237236e-02 5.436368e-02 2.059796e-02 -9.799946e-01 -6.223956e-01 -7.912061e-02 -4.236820e-01 -2.483607e-01 -3.644323e-01 -2.611820e-02 3.996685e-01 1.238309e+00 1.686374e+00 1.705647e+00 1.468584e+00 1.662693e+00 1.469326e+00 1.560735e+00 1.349655e+00 3.102815e-01 -1.018969e-01 -3.364154e-01 -3.193735e-01 -3.553275e-01 -3.177794e-01 -3.544257e-01 -3.206564e-01 -3.535515e-01 -3.228371e-01 -3.515017e-01 -3.249582e-01 -3.490135e-01 -3.272952e-01 -3.464455e-01 -3.298944e-01 -3.440071e-01 -3.326689e-01 -3.417780e-01 -3.354726e-01 -3.398129e-01 -3.381625e-01 -3.381068e-01 -3.404815e-01 -3.364612e-01 -3.419437e-01 -3.343656e-01 -3.417627e-01 -3.310000e-01 -3.390474e-01 -3.256508e-01 -3.335348e-01 -3.182187e-01 -3.236697e-01 -3.023838e-01 -3.021522e-01 -2.828450e-01 -2.977907e-01 -2.861442e-01 -2.961189e-01 -2.921023e-01 -3.022436e-01 -3.007801e-01 -3.119227e-01 -3.117288e-01 -3.220051e-01 -3.233431e-01 -3.305117e-01 -3.351010e-01 -3.364921e-01 -3.447491e-01 -3.466479e-01 -3.451662e-01 -3.401343e-01 -3.408559e-01 -3.383997e-01 -3.416267e-01 -3.387409e-01 -3.414497e-01 -3.377839e-01 -3.395261e-01 -3.359433e-01 -3.367701e-01 -3.342046e-01 -3.341883e-01 -3.331502e-01 -3.322252e-01 -3.327223e-01 -3.309137e-01 -3.325909e-01 -3.302222e-01 -3.323999e-01 -3.301348e-01 -3.318074e-01 -3.306511e-01 -3.305838e-01 -3.318433e-01 -3.286538e-01 -3.337445e-01 -3.260112e-01 -3.362791e-01 -3.227943e-01 -3.393179e-01 -3.193216e-01 -3.426156e-01 -3.160298e-01 -3.457755e-01 -3.134634e-01 -3.482956e-01 -3.122847e-01 -3.496958e-01 -3.133058e-01 -3.497354e-01 -3.175364e-01 -3.488845e-01 -3.263523e-01 -3.493662e-01 -3.414255e-01 -3.582547e-01 -3.755132e-01 -4.931199e-01 -7.526240e-01 -1.882557e-01 3.160401e-02 1.888959e-02 1.443073e-02 1.279379e-02 
