# vtk DataFile Version 2.0
Comment goes here
ASCII

DATASET STRUCTURED_POINTS
FIELD FieldData 1
TIME 1 1 double
0.03000000
DIMENSIONS    128   16   1

ORIGIN    0.000   0.000   0.000
SPACING   0.0078125 0.015625   1.000

POINT_DATA   2048
SCALARS P double
LOOKUP_TABLE default

2.324885e-01 2.475008e-01 2.377864e-01 2.532509e-01 2.385769e-01 2.547621e-01 2.336138e-01 2.493210e-01 2.303276e-01 2.415629e-01 2.276517e-01 2.404469e-01 2.313941e-01 2.367254e-01 2.288385e-01 2.304495e-01 2.186393e-01 2.144649e-01 1.993862e-01 1.946747e-01 1.808674e-01 1.832693e-01 1.859339e-01 1.997625e-01 2.175708e-01 2.255511e-01 2.418749e-01 2.389197e-01 2.527606e-01 2.481839e-01 2.654926e-01 2.566183e-01 2.671294e-01 2.389460e-01 2.381074e-01 2.041847e-01 2.070888e-01 1.782103e-01 1.725641e-01 1.323527e-01 1.150371e-01 8.054945e-02 6.796208e-02 4.130868e-02 2.513917e-02 -1.565944e-03 -1.022796e-02 -2.147882e-02 -1.561857e-02 -1.631071e-02 7.931555e-03 3.058361e-02 7.494093e-02 1.022196e-01 1.494525e-01 1.757790e-01 2.098221e-01 2.239664e-01 2.437837e-01 2.310558e-01 2.296564e-01 2.086717e-01 1.937292e-01 1.619695e-01 1.326610e-01 9.532568e-02 6.985975e-02 3.894234e-02 2.325158e-02 1.699037e-02 3.204916e-02 4.875554e-02 8.421326e-02 1.148917e-01 1.510446e-01 1.692324e-01 1.826115e-01 1.740729e-01 1.633096e-01 1.373676e-01 1.152585e-01 8.813571e-02 7.200034e-02 6.662986e-02 7.031831e-02 8.651143e-02 1.093517e-01 1.261435e-01 1.436669e-01 1.586210e-01 1.631177e-01 1.589129e-01 1.618540e-01 1.703480e-01 1.788377e-01 1.910415e-01 2.068657e-01 2.272173e-01 2.333685e-01 2.194189e-01 1.953843e-01 1.635160e-01 1.362047e-01 9.968744e-02 6.975785e-02 3.954307e-02 2.647905e-02 2.049825e-02 1.168225e-02 2.071269e-03 -1.905698e-02 -2.678596e-02 -3.885138e-02 -1.397190e-02 -2.814050e-04 3.846875e-02 4.386915e-02 7.429947e-02 7.839109e-02 1.132369e-01 1.286562e-01 1.660147e-01 1.778849e-01 2.019961e-01 2.058503e-01 2.239762e-01 2.225010e-01 2.381087e-01 
2.210576e-01 2.347905e-01 2.200233e-01 2.346868e-01 2.134833e-01 2.308563e-01 2.003220e-01 2.245027e-01 2.133244e-01 2.415286e-01 2.351735e-01 2.692057e-01 2.661438e-01 2.803490e-01 2.730539e-01 2.872162e-01 2.681893e-01 2.693827e-01 2.369584e-01 2.337809e-01 1.928084e-01 1.964220e-01 1.836226e-01 2.066607e-01 2.203978e-01 2.218106e-01 2.257216e-01 2.110877e-01 2.143741e-01 2.133099e-01 2.410948e-01 2.429630e-01 2.572460e-01 2.232736e-01 2.190402e-01 1.824246e-01 2.006575e-01 1.840007e-01 1.821564e-01 1.280785e-01 9.584381e-02 4.726487e-02 2.877967e-02 1.544666e-03 -1.788220e-02 -5.267688e-02 -6.152024e-02 -6.258614e-02 -4.209918e-02 -3.621443e-02 1.385415e-03 4.343986e-02 1.084589e-01 1.388817e-01 1.912748e-01 2.141937e-01 2.375087e-01 2.350875e-01 2.369855e-01 2.039283e-01 2.081235e-01 1.990879e-01 2.022472e-01 1.940358e-01 1.862190e-01 1.686576e-01 1.549628e-01 1.211049e-01 8.986390e-02 6.836743e-02 7.000587e-02 6.378987e-02 8.582461e-02 1.138869e-01 1.544076e-01 1.773622e-01 1.945591e-01 1.832936e-01 1.690237e-01 1.308290e-01 9.276215e-02 4.096194e-02 3.915496e-03 -1.120919e-02 -1.254229e-02 1.633500e-02 5.959250e-02 9.284689e-02 1.318455e-01 1.681387e-01 1.720830e-01 1.512233e-01 1.436016e-01 1.478324e-01 1.486734e-01 1.547429e-01 1.767857e-01 2.188166e-01 2.425992e-01 2.312585e-01 2.061545e-01 1.742257e-01 1.461313e-01 9.998329e-02 5.393960e-02 1.665482e-02 1.226061e-02 2.163259e-02 1.493046e-02 5.551632e-03 -1.566618e-02 -3.718975e-02 -6.649350e-02 -3.576660e-02 -3.690281e-03 4.541462e-02 4.223237e-02 7.065213e-02 7.254401e-02 1.158095e-01 1.448151e-01 1.821293e-01 1.855842e-01 2.070193e-01 2.067604e-01 2.227631e-01 2.170558e-01 2.310694e-01 
2.283109e-01 2.366108e-01 2.233503e-01 2.314821e-01 2.112094e-01 2.191479e-01 1.680292e-01 1.996500e-01 2.104493e-01 2.429104e-01 2.574573e-01 3.170227e-01 3.337955e-01 3.376246e-01 3.355238e-01 3.533820e-01 3.406132e-01 3.243509e-01 2.935325e-01 2.610923e-01 1.866112e-01 1.578104e-01 1.483716e-01 2.176771e-01 2.817550e-01 2.931344e-01 2.746685e-01 2.001537e-01 1.507886e-01 1.523651e-01 2.269462e-01 2.970684e-01 3.346131e-01 2.621830e-01 1.986644e-01 1.329078e-01 1.970126e-01 2.488748e-01 2.639351e-01 1.597580e-01 6.308315e-02 -1.599022e-03 7.926004e-04 -3.803759e-03 -6.673469e-02 -1.563900e-01 -1.707365e-01 -1.179696e-01 -7.720882e-02 -9.086077e-02 -4.485480e-02 6.725386e-02 1.715672e-01 1.863136e-01 2.580204e-01 2.867366e-01 2.662306e-01 2.816712e-01 2.892870e-01 1.753925e-01 1.511319e-01 1.699803e-01 2.012846e-01 2.174651e-01 1.922407e-01 1.796616e-01 1.849813e-01 1.210946e-01 3.154065e-02 4.751853e-03 1.207726e-02 8.440535e-03 5.745111e-02 1.286534e-01 2.155560e-01 2.734323e-01 3.051385e-01 2.944993e-01 2.671452e-01 1.984744e-01 1.242719e-01 3.138900e-03 -8.434578e-02 -1.151557e-01 -1.491773e-01 -7.282148e-02 4.579299e-02 8.870898e-02 1.743123e-01 2.939149e-01 2.696542e-01 1.507074e-01 1.222352e-01 1.483108e-01 1.041564e-01 4.470996e-02 9.763595e-02 2.634652e-01 3.627963e-01 3.192852e-01 2.452470e-01 2.144940e-01 2.134259e-01 1.299219e-01 -1.246367e-02 -1.219122e-01 -8.374558e-02 4.115524e-02 1.147091e-01 9.755682e-02 5.437773e-03 -1.227917e-01 -2.072440e-01 -1.296018e-01 -1.124627e-03 1.057283e-01 8.434592e-02 7.747663e-02 4.866075e-02 9.521578e-02 1.663091e-01 2.304658e-01 2.360922e-01 2.394598e-01 2.308926e-01 2.380923e-01 2.299041e-01 2.379892e-01 
2.241054e-01 2.289864e-01 2.144813e-01 2.174713e-01 1.998237e-01 1.967579e-01 1.253414e-01 1.756721e-01 1.849305e-01 2.129731e-01 2.310807e-01 3.223457e-01 3.476143e-01 3.844314e-01 4.009397e-01 4.341552e-01 3.969383e-01 3.599953e-01 2.457534e-01 1.156171e-01 -1.144528e-01 -2.288395e-01 -2.632179e-01 -1.255436e-01 4.040235e-02 1.161903e-01 7.303975e-02 -1.173499e-01 -2.522504e-01 -2.502842e-01 -5.163788e-02 2.010867e-01 3.600486e-01 2.700330e-01 1.134698e-01 2.321904e-03 1.131824e-01 2.637692e-01 3.058598e-01 1.220100e-01 -7.617119e-02 -1.624256e-01 -9.979454e-02 -1.097535e-01 -2.773943e-01 -4.863769e-01 -4.616568e-01 -2.878593e-01 -1.861489e-01 -2.181211e-01 -1.409557e-01 7.228135e-02 1.903535e-01 1.287211e-01 2.126585e-01 2.464538e-01 1.565265e-01 2.927569e-01 4.333971e-01 2.082330e-01 1.357246e-01 1.970856e-01 2.556428e-01 2.618158e-01 1.353080e-01 4.659156e-02 6.514759e-02 -4.696468e-02 -2.255228e-01 -2.503350e-01 -2.361686e-01 -2.499900e-01 -1.699962e-01 -5.799961e-02 7.178302e-02 1.541350e-01 1.898554e-01 1.803913e-01 1.325266e-01 1.644846e-02 -8.231568e-02 -2.840041e-01 -4.197259e-01 -4.509823e-01 -5.502902e-01 -3.906125e-01 -1.206700e-01 -5.901217e-02 1.305804e-01 4.273601e-01 3.987495e-01 1.595535e-01 1.360952e-01 2.048186e-01 3.884938e-02 -1.929067e-01 -9.927174e-02 2.777072e-01 5.111215e-01 4.284016e-01 2.756905e-01 2.814757e-01 3.381726e-01 1.939667e-01 -1.535972e-01 -4.086878e-01 -2.991318e-01 1.022214e-01 4.288033e-01 4.191360e-01 1.086415e-01 -2.473060e-01 -4.011236e-01 -2.457313e-01 1.267816e-02 2.286994e-01 2.277341e-01 1.548882e-01 4.663979e-02 4.208194e-02 1.098075e-01 2.408893e-01 2.927830e-01 2.736181e-01 2.508061e-01 2.495779e-01 2.340152e-01 2.377033e-01 
2.373887e-01 2.404361e-01 2.371014e-01 2.374935e-01 2.381560e-01 2.326582e-01 2.109462e-01 2.412092e-01 2.397933e-01 2.424768e-01 2.555298e-01 2.974370e-01 3.209395e-01 3.671903e-01 2.215354e-01 2.141950e-01 1.192742e-01 -9.130946e-03 -1.604157e-01 -3.470436e-01 -5.034150e-01 -6.178780e-01 -6.585677e-01 -5.732249e-01 -4.547872e-01 -3.619420e-01 -3.852734e-01 -5.089785e-01 -5.956864e-01 -5.789348e-01 -4.085808e-01 -1.714865e-01 8.299104e-04 -4.179873e-03 -9.676530e-02 -1.527862e-01 -1.013657e-01 -6.689018e-03 1.655048e-02 -9.870036e-02 -2.291567e-01 -2.850033e-01 -2.324946e-01 -2.740352e-01 -4.079530e-01 -5.630087e-01 -5.078661e-01 -3.645045e-01 -2.687783e-01 -2.677953e-01 -1.973231e-01 -6.319088e-02 -2.187392e-02 -9.838774e-02 -6.492819e-02 -5.405970e-02 -1.248629e-01 5.916931e-03 1.570033e-01 2.509108e-02 -3.380674e-03 2.729948e-02 3.431274e-02 1.016550e-02 -1.027808e-01 -2.134695e-01 -2.163071e-01 -2.795749e-01 -3.843756e-01 -3.949534e-01 -3.770003e-01 -3.907780e-01 -3.546664e-01 -3.057550e-01 -2.520267e-01 -2.253588e-01 -2.214969e-01 -2.309254e-01 -2.652137e-01 -3.426213e-01 -3.843010e-01 -4.919045e-01 -5.547370e-01 -5.504230e-01 -6.147710e-01 -4.934236e-01 -2.807913e-01 -2.182528e-01 -5.398606e-02 1.849274e-01 2.124924e-01 9.882119e-02 1.187185e-01 1.704879e-01 3.163987e-02 -1.614721e-01 -1.029001e-01 1.522696e-01 3.181194e-01 2.843129e-01 1.929726e-01 2.272607e-01 2.725199e-01 1.816496e-01 -7.808005e-02 -2.566178e-01 -1.795203e-01 1.516824e-01 4.564528e-01 4.696130e-01 1.965406e-01 -7.304851e-02 -1.587278e-01 -5.812416e-02 9.180752e-02 2.444759e-01 2.841114e-01 2.315163e-01 1.422542e-01 9.726389e-02 9.115150e-02 1.917636e-01 2.603680e-01 2.535492e-01 2.439639e-01 2.460116e-01 2.391357e-01 2.426490e-01 
2.240391e-01 2.321592e-01 2.261343e-01 2.340697e-01 2.289790e-01 2.377768e-01 2.353745e-01 2.513995e-01 2.332672e-01 2.433596e-01 2.290195e-01 2.427138e-01 2.242569e-01 2.562686e-01 1.308653e-01 1.141934e-01 -1.257715e-02 -7.189776e-02 -2.044650e-01 -3.175688e-01 -4.347772e-01 -5.731458e-01 -5.012864e-01 -5.534847e-01 -4.792035e-01 -4.814697e-01 -4.402004e-01 -4.727110e-01 -4.451556e-01 -4.424321e-01 -3.680728e-01 -3.060300e-01 -2.211570e-01 -1.943868e-01 -1.754304e-01 -1.799518e-01 -1.733494e-01 -1.808765e-01 -1.763936e-01 -2.053450e-01 -2.202523e-01 -2.511442e-01 -2.459954e-01 -2.927874e-01 -3.178842e-01 -3.570327e-01 -3.224819e-01 -2.976878e-01 -2.535489e-01 -2.354129e-01 -1.956369e-01 -1.828228e-01 -1.805905e-01 -2.127145e-01 -2.184254e-01 -2.469927e-01 -2.785891e-01 -3.034382e-01 -3.043421e-01 -3.314445e-01 -3.273979e-01 -3.808931e-01 -4.435309e-01 -4.917714e-01 -5.214462e-01 -5.738968e-01 -6.050861e-01 -6.150056e-01 -5.982132e-01 -5.872966e-01 -5.441627e-01 -4.919988e-01 -4.397811e-01 -4.129773e-01 -3.896109e-01 -3.841377e-01 -3.770830e-01 -3.790306e-01 -3.814616e-01 -4.006126e-01 -3.979451e-01 -4.053823e-01 -4.005316e-01 -3.823711e-01 -3.744461e-01 -3.320980e-01 -2.619993e-01 -2.113557e-01 -1.395490e-01 -6.671716e-02 -1.617753e-02 1.176418e-02 4.152726e-02 5.419344e-02 3.177013e-02 2.601691e-03 1.802715e-02 5.970607e-02 9.304190e-02 1.121998e-01 1.096627e-01 1.269977e-01 1.224762e-01 1.072539e-01 5.427358e-02 3.204341e-02 4.146225e-02 1.183523e-01 1.964097e-01 2.142869e-01 1.452972e-01 1.014694e-01 9.322265e-02 1.119292e-01 1.184706e-01 1.577276e-01 1.862575e-01 1.948995e-01 1.765782e-01 1.644925e-01 1.381922e-01 1.700275e-01 1.964161e-01 2.119822e-01 2.132104e-01 2.240692e-01 2.205989e-01 2.295060e-01 
2.383388e-01 2.446266e-01 2.422486e-01 2.478835e-01 2.452844e-01 2.511523e-01 2.476955e-01 2.565604e-01 2.552834e-01 2.622449e-01 2.652054e-01 2.720544e-01 2.780534e-01 2.778577e-01 1.311352e-01 1.067733e-01 -3.176377e-02 -8.624939e-02 -2.234525e-01 -2.957439e-01 -4.260605e-01 -4.947859e-01 -4.500027e-01 -4.739902e-01 -4.288832e-01 -4.345652e-01 -4.055995e-01 -4.178318e-01 -3.928611e-01 -3.835865e-01 -3.349807e-01 -3.015845e-01 -2.541908e-01 -2.408330e-01 -2.226214e-01 -2.230666e-01 -2.070782e-01 -2.074725e-01 -2.005917e-01 -2.221920e-01 -2.304178e-01 -2.550431e-01 -2.538113e-01 -2.788587e-01 -2.845098e-01 -3.075849e-01 -2.902399e-01 -2.818565e-01 -2.523208e-01 -2.435846e-01 -2.148710e-01 -2.021534e-01 -1.828432e-01 -1.918498e-01 -1.837358e-01 -1.980307e-01 -2.086252e-01 -2.370619e-01 -2.454235e-01 -2.656445e-01 -2.788385e-01 -3.130386e-01 -3.318384e-01 -3.613646e-01 -3.857362e-01 -4.077091e-01 -4.256016e-01 -4.452861e-01 -4.391104e-01 -4.395640e-01 -4.307944e-01 -4.113689e-01 -3.754614e-01 -3.578985e-01 -3.352081e-01 -3.286455e-01 -3.200901e-01 -3.248346e-01 -3.264779e-01 -3.410578e-01 -3.447192e-01 -3.552203e-01 -3.543345e-01 -3.414886e-01 -3.244673e-01 -2.872226e-01 -2.339466e-01 -1.892326e-01 -1.339750e-01 -8.203109e-02 -4.579667e-02 -2.696559e-02 -6.540257e-03 8.414594e-03 1.090933e-02 1.185037e-02 2.996948e-02 6.307932e-02 8.745915e-02 1.022185e-01 1.012375e-01 1.093090e-01 1.033836e-01 9.666643e-02 7.105871e-02 6.660580e-02 7.455684e-02 1.133231e-01 1.405849e-01 1.530230e-01 1.298252e-01 1.151173e-01 1.040809e-01 1.207947e-01 1.335404e-01 1.614506e-01 1.699260e-01 1.807081e-01 1.746377e-01 1.824236e-01 1.813712e-01 2.012365e-01 2.101465e-01 2.222646e-01 2.245253e-01 2.335039e-01 2.328962e-01 2.402292e-01 
2.285681e-01 2.374040e-01 2.336377e-01 2.418912e-01 2.376605e-01 2.457746e-01 2.409419e-01 2.495752e-01 2.431238e-01 2.518575e-01 2.455297e-01 2.556563e-01 2.497159e-01 2.626642e-01 9.604223e-02 8.456945e-02 -6.525092e-02 -9.853980e-02 -2.372632e-01 -2.873165e-01 -4.171382e-01 -4.728652e-01 -4.198983e-01 -4.592772e-01 -4.105810e-01 -4.350921e-01 -3.937413e-01 -4.109378e-01 -3.738339e-01 -3.802232e-01 -3.413868e-01 -3.375652e-01 -3.012472e-01 -2.984284e-01 -2.724709e-01 -2.744486e-01 -2.555096e-01 -2.615807e-01 -2.470012e-01 -2.580546e-01 -2.469171e-01 -2.610559e-01 -2.495691e-01 -2.655808e-01 -2.544637e-01 -2.672449e-01 -2.493141e-01 -2.535043e-01 -2.326506e-01 -2.344691e-01 -2.150568e-01 -2.178230e-01 -2.035333e-01 -2.101360e-01 -1.980159e-01 -2.028920e-01 -1.896830e-01 -1.881988e-01 -1.670034e-01 -1.764768e-01 -1.835084e-01 -1.895247e-01 -1.697540e-01 -1.826223e-01 -1.982864e-01 -2.142543e-01 -2.114729e-01 -2.268711e-01 -2.309039e-01 -2.441299e-01 -2.572277e-01 -2.893559e-01 -3.024538e-01 -3.187661e-01 -3.223575e-01 -3.327267e-01 -3.335484e-01 -3.410606e-01 -3.396871e-01 -3.440788e-01 -3.377712e-01 -3.340408e-01 -3.208793e-01 -3.060335e-01 -2.843435e-01 -2.596039e-01 -2.267452e-01 -1.964307e-01 -1.609817e-01 -1.291933e-01 -9.837950e-02 -7.329725e-02 -5.013645e-02 -3.152855e-02 -1.714236e-02 -4.061469e-03 9.493446e-03 2.636201e-02 3.812374e-02 5.316958e-02 5.821461e-02 7.099581e-02 7.127544e-02 8.079350e-02 7.700823e-02 8.819877e-02 9.114412e-02 1.108379e-01 1.185997e-01 1.329489e-01 1.288112e-01 1.367417e-01 1.352083e-01 1.480988e-01 1.496291e-01 1.652798e-01 1.680759e-01 1.805124e-01 1.784423e-01 1.886087e-01 1.856399e-01 1.990689e-01 2.004621e-01 2.129026e-01 2.127173e-01 2.236962e-01 2.218549e-01 2.315997e-01 
2.450805e-01 2.530250e-01 2.504708e-01 2.577321e-01 2.543269e-01 2.610234e-01 2.568108e-01 2.631334e-01 2.592459e-01 2.652678e-01 2.631316e-01 2.695148e-01 2.701333e-01 2.767732e-01 1.067710e-01 9.317156e-02 -5.924509e-02 -8.882117e-02 -2.295899e-01 -2.665596e-01 -4.005341e-01 -4.349405e-01 -3.951236e-01 -4.182804e-01 -3.811598e-01 -3.961071e-01 -3.644920e-01 -3.751952e-01 -3.479003e-01 -3.531148e-01 -3.268664e-01 -3.274701e-01 -3.036048e-01 -3.042716e-01 -2.847191e-01 -2.864022e-01 -2.692899e-01 -2.722578e-01 -2.576406e-01 -2.636554e-01 -2.510967e-01 -2.590762e-01 -2.468937e-01 -2.563307e-01 -2.448397e-01 -2.539712e-01 -2.404814e-01 -2.460822e-01 -2.308802e-01 -2.343441e-01 -2.184184e-01 -2.197829e-01 -2.038475e-01 -2.049477e-01 -1.896510e-01 -1.900615e-01 -1.763943e-01 -1.762835e-01 -1.638817e-01 -1.734388e-01 -1.742380e-01 -1.844173e-01 -1.814678e-01 -1.975464e-01 -2.096373e-01 -2.296783e-01 -2.361952e-01 -2.529614e-01 -2.608897e-01 -2.740641e-01 -2.760330e-01 -2.909529e-01 -2.943616e-01 -3.017272e-01 -3.003493e-01 -3.069378e-01 -3.072343e-01 -3.153640e-01 -3.166002e-01 -3.228838e-01 -3.198870e-01 -3.177746e-01 -3.059194e-01 -2.915465e-01 -2.693603e-01 -2.450484e-01 -2.145981e-01 -1.863896e-01 -1.554282e-01 -1.280650e-01 -1.016095e-01 -7.904016e-02 -5.709759e-02 -3.697196e-02 -1.879499e-02 -1.214199e-03 1.462179e-02 3.158844e-02 4.274835e-02 5.527753e-02 5.915036e-02 6.853875e-02 6.855978e-02 7.720912e-02 7.600105e-02 8.700390e-02 8.962266e-02 1.048257e-01 1.090147e-01 1.217898e-01 1.217453e-01 1.325448e-01 1.337030e-01 1.484928e-01 1.525805e-01 1.691359e-01 1.722506e-01 1.860832e-01 1.867197e-01 1.991758e-01 2.004668e-01 2.138001e-01 2.160915e-01 2.277102e-01 2.285756e-01 2.385635e-01 2.379691e-01 2.467703e-01 
2.396416e-01 2.478858e-01 2.452410e-01 2.520123e-01 2.491160e-01 2.539259e-01 2.508233e-01 2.537696e-01 2.520288e-01 2.541990e-01 2.547159e-01 2.555204e-01 2.596597e-01 2.587256e-01 9.169469e-02 7.500223e-02 -7.504645e-02 -1.025085e-01 -2.386029e-01 -2.699706e-01 -3.958588e-01 -4.248957e-01 -3.870386e-01 -4.076583e-01 -3.721451e-01 -3.886253e-01 -3.595732e-01 -3.754156e-01 -3.526763e-01 -3.657889e-01 -3.454677e-01 -3.550160e-01 -3.358892e-01 -3.418448e-01 -3.222509e-01 -3.244946e-01 -3.038581e-01 -3.049229e-01 -2.839226e-01 -2.846587e-01 -2.626356e-01 -2.648716e-01 -2.441734e-01 -2.498218e-01 -2.312225e-01 -2.390748e-01 -2.221999e-01 -2.305010e-01 -2.154751e-01 -2.239672e-01 -2.101933e-01 -2.169966e-01 -2.024643e-01 -2.057903e-01 -1.888671e-01 -1.887628e-01 -1.715505e-01 -1.719077e-01 -1.569844e-01 -1.606633e-01 -1.522232e-01 -1.611129e-01 -1.587030e-01 -1.742722e-01 -1.798503e-01 -1.996032e-01 -2.075956e-01 -2.273062e-01 -2.344402e-01 -2.516874e-01 -2.568478e-01 -2.710065e-01 -2.738360e-01 -2.864036e-01 -2.901800e-01 -3.039531e-01 -3.103005e-01 -3.244001e-01 -3.301582e-01 -3.397882e-01 -3.375052e-01 -3.345800e-01 -3.198028e-01 -3.033800e-01 -2.784928e-01 -2.540818e-01 -2.241534e-01 -1.977759e-01 -1.697796e-01 -1.463044e-01 -1.231480e-01 -1.018657e-01 -8.081248e-02 -6.003962e-02 -4.061865e-02 -2.255308e-02 -7.023632e-03 7.484045e-03 1.736164e-02 3.005604e-02 3.486793e-02 4.709099e-02 4.938759e-02 6.390640e-02 6.613054e-02 8.341100e-02 8.754593e-02 1.054370e-01 1.097664e-01 1.248835e-01 1.275795e-01 1.417547e-01 1.450920e-01 1.609694e-01 1.646859e-01 1.806242e-01 1.822075e-01 1.946373e-01 1.929251e-01 2.032208e-01 2.025438e-01 2.145726e-01 2.146592e-01 2.257940e-01 2.245323e-01 2.347586e-01 2.327363e-01 2.420544e-01 
2.586607e-01 2.675668e-01 2.647443e-01 2.731456e-01 2.687248e-01 2.755198e-01 2.660581e-01 2.695412e-01 2.573213e-01 2.596946e-01 2.483965e-01 2.545738e-01 2.475048e-01 2.531886e-01 9.302146e-02 7.313405e-02 -6.941112e-02 -1.084098e-01 -2.333291e-01 -2.748049e-01 -3.904622e-01 -4.159146e-01 -3.747178e-01 -3.848020e-01 -3.443721e-01 -3.526606e-01 -3.231183e-01 -3.372534e-01 -3.207229e-01 -3.369117e-01 -3.276653e-01 -3.435725e-01 -3.355151e-01 -3.463942e-01 -3.329927e-01 -3.348424e-01 -3.163828e-01 -3.148743e-01 -2.942657e-01 -2.890253e-01 -2.624135e-01 -2.557767e-01 -2.313794e-01 -2.322560e-01 -2.143866e-01 -2.224783e-01 -2.116970e-01 -2.257031e-01 -2.208827e-01 -2.363982e-01 -2.304067e-01 -2.385105e-01 -2.233568e-01 -2.182570e-01 -1.918153e-01 -1.776526e-01 -1.492796e-01 -1.377860e-01 -1.161513e-01 -1.136531e-01 -1.049777e-01 -1.178561e-01 -1.272117e-01 -1.562757e-01 -1.786784e-01 -2.148247e-01 -2.393923e-01 -2.686535e-01 -2.810319e-01 -2.947030e-01 -2.900574e-01 -2.865971e-01 -2.720087e-01 -2.679350e-01 -2.619285e-01 -2.723670e-01 -2.844505e-01 -3.095158e-01 -3.310379e-01 -3.552288e-01 -3.640794e-01 -3.648105e-01 -3.478760e-01 -3.226926e-01 -2.870688e-01 -2.515201e-01 -2.128849e-01 -1.822079e-01 -1.554718e-01 -1.368988e-01 -1.201948e-01 -1.032858e-01 -8.281881e-02 -5.712209e-02 -2.896076e-02 -2.459399e-03 2.043711e-02 3.655084e-02 4.493585e-02 5.005149e-02 4.504013e-02 4.613349e-02 4.160340e-02 5.325010e-02 5.621644e-02 7.529467e-02 8.160831e-02 9.976049e-02 1.040904e-01 1.153916e-01 1.167598e-01 1.292023e-01 1.356465e-01 1.574085e-01 1.684461e-01 1.916039e-01 1.953830e-01 2.068865e-01 2.016938e-01 2.097994e-01 2.120372e-01 2.291981e-01 2.345538e-01 2.452827e-01 2.448766e-01 2.541068e-01 2.520964e-01 2.610703e-01 
2.559087e-01 2.651542e-01 2.636536e-01 2.708701e-01 2.690518e-01 2.701802e-01 2.626307e-01 2.555693e-01 2.549469e-01 2.528747e-01 2.546688e-01 2.476113e-01 2.603444e-01 2.307746e-01 8.245222e-02 4.058514e-02 -9.758024e-02 -1.466716e-01 -2.651469e-01 -3.027743e-01 -4.072968e-01 -4.163623e-01 -3.786024e-01 -3.634033e-01 -3.245155e-01 -3.189108e-01 -3.027228e-01 -3.255666e-01 -3.327638e-01 -3.559378e-01 -3.590275e-01 -3.820598e-01 -3.867706e-01 -4.019771e-01 -3.910494e-01 -3.834262e-01 -3.583762e-01 -3.510347e-01 -3.262515e-01 -3.093538e-01 -2.670556e-01 -2.497383e-01 -2.167343e-01 -2.168543e-01 -1.922695e-01 -2.022164e-01 -1.858967e-01 -1.993400e-01 -1.925290e-01 -2.152133e-01 -2.151194e-01 -2.331153e-01 -2.248717e-01 -2.247324e-01 -1.945993e-01 -1.739472e-01 -1.424202e-01 -1.331728e-01 -1.077394e-01 -9.807883e-02 -7.598123e-02 -8.186969e-02 -8.898956e-02 -1.172492e-01 -1.350439e-01 -1.754655e-01 -2.073143e-01 -2.410286e-01 -2.557079e-01 -2.794612e-01 -2.781178e-01 -2.682956e-01 -2.477569e-01 -2.454423e-01 -2.429242e-01 -2.636138e-01 -2.881199e-01 -3.279878e-01 -3.706806e-01 -4.178894e-01 -4.374412e-01 -4.390898e-01 -4.131600e-01 -3.731224e-01 -3.247642e-01 -2.765941e-01 -2.217037e-01 -1.797892e-01 -1.476146e-01 -1.352883e-01 -1.307327e-01 -1.199845e-01 -1.029210e-01 -7.119134e-02 -3.769947e-02 -1.124718e-02 1.329374e-02 1.846516e-02 2.411321e-02 2.908804e-02 2.346645e-02 2.406259e-02 1.860816e-02 3.626334e-02 3.656575e-02 6.853544e-02 8.072655e-02 1.103505e-01 1.185594e-01 1.271208e-01 1.275498e-01 1.373954e-01 1.466497e-01 1.720785e-01 1.880310e-01 2.185317e-01 2.235500e-01 2.304740e-01 2.117915e-01 2.067447e-01 2.094291e-01 2.305404e-01 2.376775e-01 2.475036e-01 2.428546e-01 2.523663e-01 2.487377e-01 2.583310e-01 
2.738183e-01 2.854223e-01 2.870087e-01 3.008895e-01 3.091312e-01 3.247108e-01 3.027506e-01 2.981287e-01 2.580075e-01 2.319093e-01 1.970221e-01 2.195699e-01 1.873570e-01 1.751214e-01 1.115513e-01 6.168367e-02 -6.739772e-02 -1.788304e-01 -2.533318e-01 -3.701007e-01 -4.653549e-01 -4.828471e-01 -3.978967e-01 -3.446030e-01 -2.630844e-01 -2.359965e-01 -1.973967e-01 -2.226623e-01 -2.316571e-01 -2.672139e-01 -3.013476e-01 -3.512026e-01 -3.823014e-01 -4.181966e-01 -4.098715e-01 -3.947190e-01 -3.667192e-01 -3.627703e-01 -3.507541e-01 -3.292605e-01 -2.609058e-01 -2.064068e-01 -1.521836e-01 -1.448205e-01 -1.195567e-01 -1.310192e-01 -1.297571e-01 -1.740770e-01 -2.117467e-01 -2.751446e-01 -3.100335e-01 -3.456579e-01 -3.353870e-01 -3.032859e-01 -2.277133e-01 -1.540615e-01 -7.315021e-02 -1.853233e-02 4.055526e-02 7.911355e-02 1.121568e-01 9.638804e-02 5.501023e-02 -2.676084e-02 -1.098675e-01 -2.203548e-01 -3.193445e-01 -3.989403e-01 -4.368562e-01 -4.507949e-01 -4.062057e-01 -3.201397e-01 -2.132062e-01 -1.328442e-01 -8.050658e-02 -9.107145e-02 -1.485639e-01 -2.538065e-01 -3.804475e-01 -5.067719e-01 -5.787758e-01 -5.941926e-01 -5.478121e-01 -4.537738e-01 -3.418184e-01 -2.341853e-01 -1.319653e-01 -7.525804e-02 -6.456050e-02 -9.492673e-02 -1.387456e-01 -1.684011e-01 -1.656215e-01 -1.058161e-01 -1.641326e-02 6.565990e-02 1.340025e-01 1.587487e-01 1.611353e-01 1.263037e-01 5.221120e-02 -1.639795e-02 -5.594405e-02 -2.984732e-02 -2.445082e-03 5.459608e-02 8.286214e-02 1.228789e-01 1.292930e-01 1.085729e-01 7.891662e-02 6.038990e-02 7.295430e-02 1.342704e-01 2.000974e-01 2.807626e-01 2.897622e-01 2.661272e-01 1.944480e-01 1.543070e-01 1.733401e-01 2.557790e-01 2.997311e-01 2.897071e-01 2.729664e-01 2.765611e-01 2.684247e-01 2.768774e-01 
2.690628e-01 2.859321e-01 2.902820e-01 3.137401e-01 3.280992e-01 3.632614e-01 3.351582e-01 3.430328e-01 2.662729e-01 2.044109e-01 1.537165e-01 1.744947e-01 1.473363e-01 1.393484e-01 8.882703e-02 5.087942e-02 -2.606336e-02 -8.573050e-02 -1.378157e-01 -1.726335e-01 -2.009295e-01 -1.698357e-01 -1.231019e-01 -3.652371e-02 3.069546e-02 8.747139e-02 1.477455e-01 1.726843e-01 2.043300e-01 1.906859e-01 1.531300e-01 1.006782e-01 7.154715e-02 2.008047e-02 2.333942e-02 2.797500e-03 8.810310e-03 -2.315461e-02 -3.620681e-02 -5.758126e-02 -1.445127e-02 2.400644e-02 6.723264e-02 6.403515e-02 6.703614e-02 4.338085e-02 1.206541e-02 -7.045203e-02 -1.492573e-01 -2.333217e-01 -2.741134e-01 -2.964630e-01 -2.509439e-01 -1.721367e-01 -4.745181e-02 6.542428e-02 2.008019e-01 3.069408e-01 3.995651e-01 4.447593e-01 4.589196e-01 4.078892e-01 3.282702e-01 1.851936e-01 3.064275e-02 -1.417377e-01 -2.824787e-01 -3.979868e-01 -4.467883e-01 -4.294570e-01 -3.339293e-01 -1.977269e-01 -2.479126e-02 1.278228e-01 2.390048e-01 2.661289e-01 2.207573e-01 1.014278e-01 -3.691238e-02 -1.728734e-01 -2.636524e-01 -2.968627e-01 -2.649192e-01 -1.779349e-01 -5.872819e-02 5.059735e-02 1.370914e-01 1.646875e-01 1.351061e-01 7.662096e-02 1.723398e-02 -3.525737e-02 -3.999098e-02 2.135898e-02 1.346841e-01 2.557123e-01 3.471498e-01 4.068020e-01 4.018439e-01 3.243128e-01 1.864688e-01 4.962965e-02 -2.971441e-02 -3.454951e-02 2.742144e-03 2.740034e-02 3.939632e-02 4.312889e-02 2.507216e-02 -1.955944e-02 -7.870990e-02 -1.125564e-01 -1.113533e-01 -2.904436e-02 5.533705e-02 1.621196e-01 1.686914e-01 1.472782e-01 7.157325e-02 5.302587e-02 8.350449e-02 2.106673e-01 2.784252e-01 2.691843e-01 2.576862e-01 2.639582e-01 2.583786e-01 2.702816e-01 
2.554347e-01 2.729767e-01 2.702447e-01 2.919434e-01 2.888430e-01 3.180785e-01 2.923162e-01 3.082372e-01 2.475912e-01 2.133648e-01 1.714402e-01 1.728431e-01 1.528320e-01 1.464015e-01 1.546201e-01 1.475049e-01 1.341141e-01 1.211304e-01 1.034682e-01 9.644720e-02 8.119044e-02 9.568868e-02 1.158975e-01 1.440272e-01 1.824157e-01 2.075698e-01 2.627578e-01 2.941118e-01 3.473374e-01 3.473022e-01 3.484153e-01 3.206024e-01 3.223019e-01 2.840670e-01 2.855086e-01 2.402981e-01 2.311765e-01 1.870808e-01 1.732226e-01 1.287209e-01 1.251386e-01 1.124137e-01 1.181231e-01 1.009790e-01 8.718953e-02 6.137716e-02 3.035953e-02 -2.529741e-02 -6.978583e-02 -1.086925e-01 -1.131451e-01 -1.050489e-01 -5.169319e-02 1.040212e-02 9.743884e-02 1.663125e-01 2.590253e-01 3.305789e-01 3.904873e-01 4.045347e-01 3.953907e-01 3.446237e-01 2.867299e-01 1.862357e-01 8.001514e-02 -3.005799e-02 -1.100661e-01 -1.809324e-01 -2.068227e-01 -1.857014e-01 -1.209963e-01 -4.754287e-02 5.316776e-02 1.484505e-01 2.272660e-01 2.627923e-01 2.634331e-01 2.197520e-01 1.744231e-01 1.263347e-01 8.701905e-02 6.220820e-02 6.200917e-02 8.280946e-02 1.269556e-01 1.668278e-01 1.917213e-01 1.922039e-01 1.725055e-01 1.520419e-01 1.394267e-01 1.225623e-01 1.284624e-01 1.552743e-01 2.092791e-01 2.754497e-01 3.222103e-01 3.668424e-01 3.618418e-01 3.119551e-01 2.303064e-01 1.442213e-01 8.798592e-02 5.462741e-02 5.928336e-02 3.660074e-02 2.279333e-02 -2.628266e-03 -2.759240e-02 -5.170349e-02 -8.732872e-02 -9.748448e-02 -1.039516e-01 -5.688698e-02 -2.185080e-02 3.760676e-02 4.187621e-02 5.867335e-02 4.515633e-02 7.587828e-02 9.505395e-02 1.687337e-01 2.047141e-01 2.203768e-01 2.259836e-01 2.411995e-01 2.417170e-01 2.571989e-01 
2.380803e-01 2.558328e-01 2.475296e-01 2.667036e-01 2.531515e-01 2.737883e-01 2.498252e-01 2.651723e-01 2.294061e-01 2.287853e-01 1.982970e-01 2.041172e-01 1.803900e-01 1.841674e-01 1.698816e-01 1.722971e-01 1.527623e-01 1.549395e-01 1.344963e-01 1.424030e-01 1.288419e-01 1.471083e-01 1.488610e-01 1.706295e-01 1.869347e-01 2.060859e-01 2.327640e-01 2.495910e-01 2.767313e-01 2.765245e-01 2.865649e-01 2.703250e-01 2.763496e-01 2.476193e-01 2.486098e-01 2.110440e-01 2.079181e-01 1.722382e-01 1.668951e-01 1.288807e-01 1.201064e-01 9.164515e-02 8.665404e-02 6.266724e-02 5.179650e-02 2.551206e-02 1.081407e-02 -1.847938e-02 -2.797010e-02 -4.220576e-02 -2.679955e-02 -1.315455e-02 3.281438e-02 6.961093e-02 1.292961e-01 1.686240e-01 2.260540e-01 2.591817e-01 2.947454e-01 2.946165e-01 2.932917e-01 2.610508e-01 2.324941e-01 1.764623e-01 1.248849e-01 6.394788e-02 2.306642e-02 -1.926037e-02 -3.419707e-02 -3.339351e-02 -5.032897e-03 2.269805e-02 7.048817e-02 1.116587e-01 1.533776e-01 1.714647e-01 1.799582e-01 1.624650e-01 1.462606e-01 1.204406e-01 9.955209e-02 7.908821e-02 7.207594e-02 7.355475e-02 8.929756e-02 1.069894e-01 1.234358e-01 1.320008e-01 1.367064e-01 1.400645e-01 1.450448e-01 1.459118e-01 1.552431e-01 1.698641e-01 1.926357e-01 2.213052e-01 2.419752e-01 2.620919e-01 2.588662e-01 2.356452e-01 1.987687e-01 1.555472e-01 1.202303e-01 8.613975e-02 6.817929e-02 4.180051e-02 2.425962e-02 5.428211e-03 -1.381487e-02 -2.452289e-02 -4.349311e-02 -4.198954e-02 -4.932940e-02 -2.132270e-02 -1.057241e-02 2.730988e-02 3.121044e-02 6.254297e-02 6.698444e-02 1.050762e-01 1.170594e-01 1.585022e-01 1.732636e-01 1.993893e-01 2.058397e-01 2.255169e-01 2.251244e-01 2.426832e-01 
