# vtk DataFile Version 2.0
Comment goes here
ASCII

DATASET STRUCTURED_POINTS
FIELD FieldData 1
TIME 1 1 double
0.23000000
DIMENSIONS    128   16   1

ORIGIN    0.000   0.000   0.000
SPACING   0.0078125 0.015625   1.000

POINT_DATA   2048
SCALARS P double
LOOKUP_TABLE default

1.535403e-01 1.561768e-01 1.547118e-01 1.597153e-01 1.535672e-01 1.625988e-01 1.485971e-01 1.640188e-01 1.512132e-01 1.625859e-01 1.530100e-01 1.592728e-01 1.520490e-01 1.525360e-01 1.455105e-01 1.424422e-01 1.372124e-01 1.300453e-01 1.287869e-01 1.189256e-01 1.214148e-01 1.130979e-01 1.181161e-01 1.113624e-01 1.183182e-01 1.114343e-01 1.197880e-01 1.123314e-01 1.215826e-01 1.141914e-01 1.242820e-01 1.177168e-01 1.281080e-01 1.230100e-01 1.332533e-01 1.300553e-01 1.395002e-01 1.379835e-01 1.453447e-01 1.443587e-01 1.485563e-01 1.480287e-01 1.503634e-01 1.519621e-01 1.543455e-01 1.582781e-01 1.603827e-01 1.646867e-01 1.654836e-01 1.688940e-01 1.691330e-01 1.722873e-01 1.736599e-01 1.771242e-01 1.803594e-01 1.841184e-01 1.896236e-01 1.943508e-01 2.019675e-01 2.013115e-01 2.079711e-01 2.037528e-01 2.080344e-01 2.005886e-01 2.039110e-01 1.961720e-01 2.020383e-01 1.979057e-01 2.079534e-01 2.063205e-01 2.159599e-01 2.124108e-01 2.154180e-01 2.075205e-01 2.069166e-01 1.994575e-01 1.989995e-01 1.950053e-01 1.958549e-01 1.949829e-01 1.962259e-01 1.966983e-01 1.969820e-01 1.968687e-01 1.958857e-01 1.945696e-01 1.933912e-01 1.907385e-01 1.901746e-01 1.856260e-01 1.865092e-01 1.802714e-01 1.839182e-01 1.761679e-01 1.824358e-01 1.722874e-01 1.802180e-01 1.675073e-01 1.767846e-01 1.627108e-01 1.733020e-01 1.593897e-01 1.704787e-01 1.576716e-01 1.677013e-01 1.570506e-01 1.647017e-01 1.572488e-01 1.611131e-01 1.573753e-01 1.561859e-01 1.562157e-01 1.498499e-01 1.543873e-01 1.447423e-01 1.542493e-01 1.431763e-01 1.553203e-01 1.433174e-01 1.543332e-01 1.436355e-01 1.514607e-01 1.459975e-01 1.485149e-01 1.484078e-01 1.496642e-01 1.511646e-01 1.525967e-01 
1.366399e-01 1.392647e-01 1.373729e-01 1.421777e-01 1.352857e-01 1.446698e-01 1.275968e-01 1.441711e-01 1.309256e-01 1.405717e-01 1.338135e-01 1.352577e-01 1.349479e-01 1.273697e-01 1.339113e-01 1.201332e-01 1.328624e-01 1.154681e-01 1.314297e-01 1.119934e-01 1.282404e-01 1.096718e-01 1.250786e-01 1.113231e-01 1.266337e-01 1.141189e-01 1.275958e-01 1.141913e-01 1.259434e-01 1.130355e-01 1.243846e-01 1.128245e-01 1.242004e-01 1.156847e-01 1.276539e-01 1.223562e-01 1.337498e-01 1.307739e-01 1.401489e-01 1.382016e-01 1.442454e-01 1.427307e-01 1.467525e-01 1.477171e-01 1.521668e-01 1.559843e-01 1.601356e-01 1.634696e-01 1.642166e-01 1.643242e-01 1.629715e-01 1.628930e-01 1.638536e-01 1.657709e-01 1.695653e-01 1.729180e-01 1.801959e-01 1.870182e-01 1.987867e-01 2.008441e-01 2.122216e-01 2.083199e-01 2.129515e-01 2.020684e-01 2.024664e-01 1.909081e-01 1.964232e-01 1.940973e-01 2.100048e-01 2.135848e-01 2.281492e-01 2.238444e-01 2.216792e-01 2.067377e-01 1.990031e-01 1.859428e-01 1.827509e-01 1.783604e-01 1.806561e-01 1.819930e-01 1.857141e-01 1.884353e-01 1.896278e-01 1.895197e-01 1.869092e-01 1.839852e-01 1.805559e-01 1.771747e-01 1.755369e-01 1.713936e-01 1.716646e-01 1.665367e-01 1.705802e-01 1.648793e-01 1.715312e-01 1.628281e-01 1.700636e-01 1.577248e-01 1.654832e-01 1.509206e-01 1.588847e-01 1.438058e-01 1.526142e-01 1.402263e-01 1.501407e-01 1.418140e-01 1.498927e-01 1.440842e-01 1.468379e-01 1.440386e-01 1.415121e-01 1.432687e-01 1.360153e-01 1.428875e-01 1.318338e-01 1.437148e-01 1.307109e-01 1.450874e-01 1.298163e-01 1.419002e-01 1.273528e-01 1.362581e-01 1.292200e-01 1.312974e-01 1.318987e-01 1.333023e-01 1.345412e-01 1.361711e-01 
1.565988e-01 1.568871e-01 1.599169e-01 1.615287e-01 1.616117e-01 1.658157e-01 1.335103e-01 1.698423e-01 1.527726e-01 1.659747e-01 1.576939e-01 1.645235e-01 1.611701e-01 1.577356e-01 1.484442e-01 1.458600e-01 1.369838e-01 1.272529e-01 1.268461e-01 1.081336e-01 1.124333e-01 1.027939e-01 1.120455e-01 1.123184e-01 1.244205e-01 1.207206e-01 1.308460e-01 1.206191e-01 1.277657e-01 1.159557e-01 1.235392e-01 1.116532e-01 1.196852e-01 1.117242e-01 1.221650e-01 1.186400e-01 1.300467e-01 1.306319e-01 1.407345e-01 1.416732e-01 1.457856e-01 1.447966e-01 1.462331e-01 1.500484e-01 1.549565e-01 1.637099e-01 1.682779e-01 1.741835e-01 1.706632e-01 1.680304e-01 1.601584e-01 1.578297e-01 1.546819e-01 1.547922e-01 1.539947e-01 1.531711e-01 1.604712e-01 1.960528e-01 2.223279e-01 2.191137e-01 2.346278e-01 2.297480e-01 2.265009e-01 2.064335e-01 1.939914e-01 1.711620e-01 1.689074e-01 1.683244e-01 1.926299e-01 2.059568e-01 2.381004e-01 2.455307e-01 2.370369e-01 2.122874e-01 1.977315e-01 1.786902e-01 1.732209e-01 1.699272e-01 1.753733e-01 1.824840e-01 1.921085e-01 2.015420e-01 2.052776e-01 2.062648e-01 2.004798e-01 1.952697e-01 1.885685e-01 1.847858e-01 1.820306e-01 1.777370e-01 1.771221e-01 1.726792e-01 1.797560e-01 1.769486e-01 1.870728e-01 1.779054e-01 1.861722e-01 1.707870e-01 1.798905e-01 1.613717e-01 1.703616e-01 1.501452e-01 1.605326e-01 1.442023e-01 1.585604e-01 1.493648e-01 1.632539e-01 1.561687e-01 1.621702e-01 1.575812e-01 1.571463e-01 1.580715e-01 1.515113e-01 1.583379e-01 1.466776e-01 1.608542e-01 1.477308e-01 1.660001e-01 1.476240e-01 1.604849e-01 1.398235e-01 1.511647e-01 1.458852e-01 1.406031e-01 1.482602e-01 1.467638e-01 1.525867e-01 1.519944e-01 
1.428327e-01 1.406668e-01 1.493049e-01 1.443829e-01 1.578207e-01 1.461388e-01 9.640278e-02 1.658390e-01 1.486067e-01 1.614594e-01 1.553107e-01 1.579611e-01 1.580569e-01 1.312411e-01 1.097787e-01 8.394098e-02 6.052326e-02 6.717889e-03 8.839261e-03 -7.094055e-02 -5.450099e-02 -9.710217e-02 -7.964849e-02 -8.870126e-02 -7.569594e-02 -8.381113e-02 -7.111577e-02 -7.910171e-02 -6.856365e-02 -7.411036e-02 -6.279971e-02 -6.851256e-02 -6.058289e-02 -6.585337e-02 -5.877137e-02 -6.111347e-02 -4.992016e-02 -4.347408e-02 -2.911813e-02 -2.370192e-02 -1.771317e-02 -1.863487e-02 -1.493504e-02 -9.286995e-03 1.116527e-03 9.569992e-03 1.703326e-02 2.042116e-02 2.131615e-02 1.932220e-02 2.126066e-02 2.363930e-02 2.890701e-02 2.877003e-02 3.050547e-02 2.847598e-02 4.777217e-02 1.535734e-01 2.076446e-01 1.781837e-01 2.038496e-01 1.976952e-01 1.984109e-01 1.875674e-01 1.823200e-01 1.632262e-01 1.513376e-01 1.351513e-01 1.334661e-01 1.102564e-01 1.285791e-01 1.340746e-01 1.085217e-01 8.961108e-02 9.274153e-02 8.826886e-02 9.161868e-02 8.634994e-02 8.850667e-02 8.798625e-02 9.639151e-02 1.010232e-01 1.059444e-01 1.028673e-01 9.995557e-02 9.416798e-02 9.427366e-02 9.282979e-02 9.535123e-02 9.196521e-02 9.395368e-02 9.273924e-02 1.029679e-01 1.055962e-01 1.145999e-01 1.079241e-01 1.108841e-01 1.019391e-01 1.091227e-01 1.035509e-01 1.133917e-01 1.077048e-01 1.141091e-01 1.043385e-01 1.069916e-01 1.000914e-01 1.046161e-01 1.035575e-01 1.081049e-01 1.122945e-01 1.142247e-01 1.193941e-01 1.129831e-01 1.175484e-01 1.075147e-01 1.191438e-01 1.123453e-01 1.299975e-01 1.204320e-01 1.331783e-01 1.175422e-01 1.337038e-01 1.351084e-01 1.233362e-01 1.325068e-01 1.306454e-01 1.374590e-01 1.360406e-01 
1.622918e-01 1.583567e-01 1.710405e-01 1.635483e-01 1.822596e-01 1.669491e-01 1.482599e-01 1.929647e-01 1.936536e-01 1.982995e-01 2.047242e-01 1.992636e-01 2.120100e-01 1.794747e-01 7.162334e-02 6.388781e-02 -9.352823e-02 -1.800570e-01 -2.624474e-01 -4.113456e-01 -4.372645e-01 -4.765228e-01 -4.589513e-01 -4.724560e-01 -4.644758e-01 -4.702498e-01 -4.598943e-01 -4.550375e-01 -4.431287e-01 -4.316946e-01 -4.195869e-01 -4.071104e-01 -4.002235e-01 -3.915974e-01 -3.894207e-01 -3.819705e-01 -3.760582e-01 -3.621021e-01 -3.507914e-01 -3.379885e-01 -3.295340e-01 -3.216735e-01 -3.128507e-01 -3.030822e-01 -2.907971e-01 -2.841297e-01 -2.751021e-01 -2.709883e-01 -2.588884e-01 -2.498337e-01 -2.300225e-01 -2.161538e-01 -1.983035e-01 -1.911555e-01 -1.803912e-01 -1.741735e-01 -1.531888e-01 -7.173802e-02 -4.152348e-02 -6.914197e-02 -4.910536e-02 -4.968227e-02 -3.111664e-02 -1.370254e-02 1.121443e-02 2.293336e-02 2.403719e-02 6.105171e-03 -2.000644e-02 -6.902476e-02 -8.581219e-02 -9.540411e-02 -1.102968e-01 -1.011565e-01 -7.254921e-02 -5.440283e-02 -3.802250e-02 -4.293316e-02 -4.330643e-02 -5.665688e-02 -5.496887e-02 -6.489897e-02 -5.923104e-02 -6.696933e-02 -5.762247e-02 -6.017118e-02 -4.530417e-02 -4.450951e-02 -3.140596e-02 -3.246340e-02 -2.206673e-02 -2.043042e-02 -9.590809e-03 -5.989336e-03 -3.867545e-04 -2.913340e-04 6.703819e-04 6.122142e-03 1.156192e-02 2.565871e-02 3.466772e-02 5.110935e-02 5.308087e-02 5.913615e-02 4.956606e-02 5.010707e-02 4.238925e-02 4.915970e-02 5.140346e-02 6.334350e-02 6.967047e-02 7.685208e-02 7.947128e-02 7.927389e-02 8.335187e-02 8.335197e-02 9.332983e-02 9.603871e-02 1.103777e-01 1.139975e-01 1.254080e-01 1.330467e-01 1.466369e-01 1.404478e-01 1.480177e-01 1.466879e-01 1.548964e-01 1.525809e-01 
1.430247e-01 1.436824e-01 1.499215e-01 1.505002e-01 1.565947e-01 1.576478e-01 1.598005e-01 1.730656e-01 1.752871e-01 1.843605e-01 1.868133e-01 1.933730e-01 1.967904e-01 2.017277e-01 3.362883e-02 2.107210e-02 -1.351331e-01 -1.651156e-01 -3.117063e-01 -3.439025e-01 -4.980048e-01 -5.008525e-01 -4.890831e-01 -4.937372e-01 -4.848520e-01 -4.864890e-01 -4.756160e-01 -4.706142e-01 -4.580344e-01 -4.491544e-01 -4.370696e-01 -4.268731e-01 -4.173774e-01 -4.091549e-01 -4.026075e-01 -3.954164e-01 -3.879455e-01 -3.790982e-01 -3.693238e-01 -3.605570e-01 -3.497858e-01 -3.419418e-01 -3.302424e-01 -3.235959e-01 -3.120461e-01 -3.084896e-01 -2.979989e-01 -2.946952e-01 -2.801967e-01 -2.724466e-01 -2.537312e-01 -2.451437e-01 -2.293112e-01 -2.251628e-01 -2.136028e-01 -2.114341e-01 -2.022331e-01 -1.999598e-01 -2.017510e-01 -2.094002e-01 -2.063977e-01 -2.083801e-01 -1.941585e-01 -1.816490e-01 -1.596705e-01 -1.462234e-01 -1.358852e-01 -1.401651e-01 -1.493035e-01 -1.661594e-01 -1.743580e-01 -1.769031e-01 -1.591947e-01 -1.406234e-01 -1.122122e-01 -9.657581e-02 -7.872991e-02 -7.917566e-02 -7.328788e-02 -8.199557e-02 -7.816632e-02 -8.716389e-02 -8.024572e-02 -8.537074e-02 -7.374737e-02 -7.451437e-02 -6.059311e-02 -6.031437e-02 -4.838897e-02 -4.803339e-02 -3.780187e-02 -3.597233e-02 -2.867932e-02 -2.650442e-02 -2.265022e-02 -1.906835e-02 -1.666696e-02 -8.451817e-03 -5.191019e-03 7.902223e-03 1.193435e-02 2.686661e-02 2.686228e-02 3.682547e-02 3.016711e-02 3.596977e-02 2.952170e-02 3.778590e-02 3.760046e-02 4.784878e-02 5.111188e-02 5.829269e-02 6.200082e-02 6.486411e-02 7.077154e-02 7.149682e-02 8.030819e-02 8.078222e-02 9.364227e-02 9.614075e-02 1.098106e-01 1.126764e-01 1.225117e-01 1.255755e-01 1.294238e-01 1.310990e-01 1.362256e-01 1.372015e-01 
1.607060e-01 1.598784e-01 1.689357e-01 1.685059e-01 1.767023e-01 1.780777e-01 1.827699e-01 1.902408e-01 1.962421e-01 2.013742e-01 2.093699e-01 2.125043e-01 2.224444e-01 2.255541e-01 4.877100e-02 3.905163e-02 -1.294452e-01 -1.537761e-01 -3.131850e-01 -3.394143e-01 -5.043059e-01 -5.050319e-01 -4.906091e-01 -4.919384e-01 -4.794034e-01 -4.787711e-01 -4.669998e-01 -4.631192e-01 -4.519308e-01 -4.453525e-01 -4.350899e-01 -4.270618e-01 -4.182546e-01 -4.099112e-01 -4.021840e-01 -3.934992e-01 -3.854509e-01 -3.759318e-01 -3.669790e-01 -3.575327e-01 -3.481876e-01 -3.394788e-01 -3.295694e-01 -3.214098e-01 -3.108056e-01 -3.035863e-01 -2.926598e-01 -2.859788e-01 -2.739554e-01 -2.668595e-01 -2.536569e-01 -2.466393e-01 -2.339659e-01 -2.286544e-01 -2.175920e-01 -2.142046e-01 -2.045747e-01 -2.038993e-01 -1.949011e-01 -1.912912e-01 -1.849488e-01 -1.796502e-01 -1.699084e-01 -1.624914e-01 -1.509999e-01 -1.449468e-01 -1.366593e-01 -1.352004e-01 -1.314617e-01 -1.321283e-01 -1.279604e-01 -1.291484e-01 -1.174423e-01 -1.128346e-01 -9.880215e-02 -9.460922e-02 -8.258546e-02 -8.268508e-02 -7.378654e-02 -7.690543e-02 -6.879976e-02 -7.254870e-02 -6.382723e-02 -6.691549e-02 -5.709963e-02 -5.876556e-02 -4.810716e-02 -4.852806e-02 -3.826233e-02 -3.782940e-02 -2.855592e-02 -2.691331e-02 -1.891098e-02 -1.612497e-02 -9.929495e-03 -6.079186e-03 -1.337180e-03 4.567447e-03 8.888346e-03 1.696228e-02 2.073174e-02 2.953647e-02 3.146377e-02 3.896115e-02 3.888523e-02 4.528892e-02 4.548854e-02 5.221753e-02 5.454315e-02 6.138473e-02 6.553013e-02 7.099417e-02 7.616033e-02 7.971528e-02 8.634812e-02 8.886356e-02 9.738597e-02 9.957671e-02 1.096574e-01 1.117190e-01 1.221912e-01 1.238740e-01 1.341963e-01 1.343319e-01 1.435926e-01 1.432291e-01 1.523020e-01 1.515913e-01 
1.421913e-01 1.446272e-01 1.503895e-01 1.535120e-01 1.589122e-01 1.633614e-01 1.682053e-01 1.748491e-01 1.798412e-01 1.870643e-01 1.928657e-01 2.002087e-01 2.075342e-01 2.151909e-01 3.014242e-02 2.937214e-02 -1.479662e-01 -1.540468e-01 -3.290608e-01 -3.342368e-01 -5.142638e-01 -5.114228e-01 -4.976101e-01 -4.957926e-01 -4.830563e-01 -4.805620e-01 -4.684100e-01 -4.642435e-01 -4.526257e-01 -4.469215e-01 -4.360929e-01 -4.294500e-01 -4.195825e-01 -4.126603e-01 -4.035085e-01 -3.964700e-01 -3.872756e-01 -3.800250e-01 -3.702209e-01 -3.630005e-01 -3.524689e-01 -3.456180e-01 -3.344570e-01 -3.283089e-01 -3.167599e-01 -3.115054e-01 -2.995972e-01 -2.947763e-01 -2.820783e-01 -2.771574e-01 -2.639122e-01 -2.593303e-01 -2.466447e-01 -2.431784e-01 -2.317118e-01 -2.295216e-01 -2.193791e-01 -2.187191e-01 -2.089242e-01 -2.058738e-01 -1.971145e-01 -1.918401e-01 -1.818483e-01 -1.757893e-01 -1.650358e-01 -1.601195e-01 -1.509110e-01 -1.489835e-01 -1.421218e-01 -1.426851e-01 -1.357518e-01 -1.364726e-01 -1.285392e-01 -1.261183e-01 -1.145536e-01 -1.117551e-01 -1.003403e-01 -9.995939e-02 -9.005887e-02 -9.186573e-02 -8.266211e-02 -8.525359e-02 -7.579693e-02 -7.794995e-02 -6.790791e-02 -6.905133e-02 -5.886199e-02 -5.901456e-02 -4.948266e-02 -4.862492e-02 -4.026384e-02 -3.822707e-02 -3.148717e-02 -2.821109e-02 -2.321709e-02 -1.839200e-02 -1.479177e-02 -8.017828e-03 -5.387636e-03 3.127265e-03 4.819012e-03 1.416282e-02 1.459649e-02 2.361306e-02 2.303515e-02 3.145588e-02 3.118303e-02 3.935562e-02 4.061404e-02 4.827021e-02 5.125957e-02 5.763222e-02 6.214401e-02 6.684042e-02 7.285059e-02 7.613618e-02 8.356177e-02 8.607525e-02 9.465844e-02 9.705518e-02 1.058983e-01 1.083209e-01 1.163501e-01 1.187701e-01 1.255347e-01 1.277749e-01 1.340143e-01 1.362043e-01 
1.595017e-01 1.597242e-01 1.682891e-01 1.692005e-01 1.771663e-01 1.794432e-01 1.867033e-01 1.908334e-01 1.987130e-01 2.030567e-01 2.124647e-01 2.165331e-01 2.280091e-01 2.320993e-01 4.633239e-02 4.184768e-02 -1.364892e-01 -1.467923e-01 -3.225424e-01 -3.313754e-01 -5.125960e-01 -5.107998e-01 -4.955860e-01 -4.940583e-01 -4.801274e-01 -4.776245e-01 -4.650072e-01 -4.609972e-01 -4.496782e-01 -4.441776e-01 -4.340691e-01 -4.274008e-01 -4.183061e-01 -4.108611e-01 -4.024011e-01 -3.944496e-01 -3.861057e-01 -3.778137e-01 -3.691192e-01 -3.607001e-01 -3.514232e-01 -3.431778e-01 -3.333275e-01 -3.255855e-01 -3.153225e-01 -3.083175e-01 -2.977519e-01 -2.914201e-01 -2.805029e-01 -2.746479e-01 -2.634792e-01 -2.581458e-01 -2.471552e-01 -2.426240e-01 -2.322697e-01 -2.287313e-01 -2.193155e-01 -2.169666e-01 -2.085276e-01 -2.047582e-01 -1.963809e-01 -1.923721e-01 -1.840797e-01 -1.799933e-01 -1.716059e-01 -1.680144e-01 -1.598307e-01 -1.570695e-01 -1.488050e-01 -1.465551e-01 -1.372071e-01 -1.336462e-01 -1.228974e-01 -1.199222e-01 -1.087925e-01 -1.066954e-01 -9.573237e-02 -9.495941e-02 -8.442236e-02 -8.480489e-02 -7.451353e-02 -7.554799e-02 -6.535390e-02 -6.656390e-02 -5.647804e-02 -5.742019e-02 -4.756220e-02 -4.786511e-02 -3.849337e-02 -3.791661e-02 -2.936835e-02 -2.778472e-02 -2.039744e-02 -1.777180e-02 -1.173796e-02 -7.970246e-03 -3.157676e-03 1.919927e-03 5.783313e-03 1.204384e-02 1.508661e-02 2.207210e-02 2.444517e-02 3.170758e-02 3.386162e-02 4.114279e-02 4.369138e-02 5.073152e-02 5.416472e-02 6.062832e-02 6.522846e-02 7.076749e-02 7.655921e-02 8.087979e-02 8.774933e-02 9.085919e-02 9.872768e-02 1.009460e-01 1.096926e-01 1.113393e-01 1.206396e-01 1.218158e-01 1.313175e-01 1.319153e-01 1.412309e-01 1.414351e-01 1.505529e-01 1.505955e-01 
1.412447e-01 1.436974e-01 1.494700e-01 1.525513e-01 1.579387e-01 1.622905e-01 1.671397e-01 1.736576e-01 1.787861e-01 1.859537e-01 1.921228e-01 1.993386e-01 2.071211e-01 2.143336e-01 2.952377e-02 2.807200e-02 -1.488551e-01 -1.558945e-01 -3.299816e-01 -3.365863e-01 -5.146031e-01 -5.136869e-01 -4.979515e-01 -4.964509e-01 -4.817413e-01 -4.790312e-01 -4.657785e-01 -4.618929e-01 -4.502129e-01 -4.452844e-01 -4.350248e-01 -4.292981e-01 -4.200407e-01 -4.137669e-01 -4.050443e-01 -3.985416e-01 -3.898932e-01 -3.832689e-01 -3.739078e-01 -3.668763e-01 -3.561915e-01 -3.489999e-01 -3.374129e-01 -3.309990e-01 -3.193368e-01 -3.142240e-01 -3.026196e-01 -2.984169e-01 -2.865496e-01 -2.827013e-01 -2.704985e-01 -2.668156e-01 -2.546368e-01 -2.512018e-01 -2.393925e-01 -2.359758e-01 -2.243409e-01 -2.204204e-01 -2.089395e-01 -2.044225e-01 -1.936485e-01 -1.890092e-01 -1.789580e-01 -1.745937e-01 -1.652852e-01 -1.619140e-01 -1.538909e-01 -1.522670e-01 -1.454717e-01 -1.450799e-01 -1.380391e-01 -1.374207e-01 -1.289476e-01 -1.276459e-01 -1.177779e-01 -1.166591e-01 -1.062307e-01 -1.059452e-01 -9.530275e-02 -9.581725e-02 -8.503795e-02 -8.611222e-02 -7.544594e-02 -7.690980e-02 -6.669705e-02 -6.814096e-02 -5.846503e-02 -5.912630e-02 -4.993453e-02 -4.924935e-02 -4.095700e-02 -3.895435e-02 -3.226823e-02 -2.913032e-02 -2.440441e-02 -1.993665e-02 -1.683136e-02 -1.066861e-02 -8.793888e-03 -1.210899e-03 -5.792273e-04 7.799010e-03 7.686501e-03 1.682939e-02 1.706680e-02 2.671362e-02 2.771211e-02 3.686571e-02 3.876963e-02 4.690180e-02 5.045062e-02 5.758656e-02 6.299602e-02 6.846580e-02 7.490646e-02 7.820043e-02 8.526534e-02 8.719955e-02 9.508685e-02 9.681082e-02 1.051044e-01 1.071754e-01 1.150941e-01 1.175161e-01 1.243278e-01 1.266495e-01 1.329580e-01 1.352130e-01 
1.588914e-01 1.581319e-01 1.671904e-01 1.667256e-01 1.748409e-01 1.760953e-01 1.806817e-01 1.880184e-01 1.941388e-01 1.995754e-01 2.081720e-01 2.117140e-01 2.221647e-01 2.251211e-01 4.847309e-02 3.819737e-02 -1.306064e-01 -1.560366e-01 -3.158979e-01 -3.439707e-01 -5.079814e-01 -5.111762e-01 -4.946506e-01 -4.951325e-01 -4.796279e-01 -4.773116e-01 -4.638938e-01 -4.596668e-01 -4.485623e-01 -4.428402e-01 -4.336697e-01 -4.267960e-01 -4.189278e-01 -4.113005e-01 -4.041803e-01 -3.962994e-01 -3.895245e-01 -3.816069e-01 -3.740974e-01 -3.655030e-01 -3.562576e-01 -3.471580e-01 -3.367233e-01 -3.284648e-01 -3.181021e-01 -3.115671e-01 -3.015580e-01 -2.963611e-01 -2.861509e-01 -2.813589e-01 -2.705067e-01 -2.657349e-01 -2.545982e-01 -2.500895e-01 -2.392474e-01 -2.347796e-01 -2.237864e-01 -2.185623e-01 -2.074289e-01 -2.018965e-01 -1.916089e-01 -1.866039e-01 -1.773034e-01 -1.727557e-01 -1.641937e-01 -1.606302e-01 -1.533962e-01 -1.516871e-01 -1.456334e-01 -1.449447e-01 -1.380406e-01 -1.364022e-01 -1.273158e-01 -1.250189e-01 -1.146072e-01 -1.128228e-01 -1.018820e-01 -1.009087e-01 -8.945309e-02 -8.911219e-02 -7.722872e-02 -7.745432e-02 -6.574383e-02 -6.684982e-02 -5.601524e-02 -5.771989e-02 -4.762846e-02 -4.877566e-02 -3.894872e-02 -3.873717e-02 -2.956426e-02 -2.818011e-02 -2.063848e-02 -1.857289e-02 -1.323018e-02 -1.021539e-02 -6.421821e-03 -1.662105e-03 1.228121e-03 7.508602e-03 9.219609e-03 1.617944e-02 1.719420e-02 2.525561e-02 2.718408e-02 3.638303e-02 3.931966e-02 4.801357e-02 5.142483e-02 5.890276e-02 6.385961e-02 7.064909e-02 7.752213e-02 8.257733e-02 8.999949e-02 9.242771e-02 1.001251e-01 1.010930e-01 1.098004e-01 1.106286e-01 1.201579e-01 1.212570e-01 1.314591e-01 1.317085e-01 1.411301e-01 1.409849e-01 1.502272e-01 1.496817e-01 
1.405149e-01 1.412620e-01 1.474878e-01 1.479349e-01 1.538261e-01 1.544765e-01 1.561931e-01 1.686851e-01 1.709145e-01 1.803902e-01 1.845145e-01 1.916738e-01 1.967064e-01 2.003420e-01 3.203163e-02 1.759052e-02 -1.387528e-01 -1.708412e-01 -3.169219e-01 -3.533002e-01 -5.053872e-01 -5.146292e-01 -4.967431e-01 -4.980472e-01 -4.795480e-01 -4.764183e-01 -4.615801e-01 -4.574289e-01 -4.462916e-01 -4.411562e-01 -4.331380e-01 -4.273237e-01 -4.205468e-01 -4.136483e-01 -4.071987e-01 -4.008022e-01 -3.958484e-01 -3.909916e-01 -3.845186e-01 -3.766870e-01 -3.641636e-01 -3.528792e-01 -3.375583e-01 -3.287852e-01 -3.164790e-01 -3.130709e-01 -3.030544e-01 -3.016926e-01 -2.909460e-01 -2.889268e-01 -2.763282e-01 -2.732143e-01 -2.601597e-01 -2.576745e-01 -2.463006e-01 -2.437449e-01 -2.307079e-01 -2.239063e-01 -2.085150e-01 -2.006315e-01 -1.877776e-01 -1.821831e-01 -1.719943e-01 -1.664513e-01 -1.564179e-01 -1.515752e-01 -1.449685e-01 -1.457096e-01 -1.448753e-01 -1.493632e-01 -1.469642e-01 -1.468350e-01 -1.376695e-01 -1.340199e-01 -1.225100e-01 -1.204707e-01 -1.096454e-01 -1.095892e-01 -9.789736e-02 -9.808006e-02 -8.472660e-02 -8.496273e-02 -7.172550e-02 -7.413659e-02 -6.342063e-02 -6.821445e-02 -5.926325e-02 -6.268764e-02 -5.217548e-02 -5.154650e-02 -4.049549e-02 -3.779810e-02 -2.974951e-02 -2.752857e-02 -2.442850e-02 -2.177959e-02 -2.072825e-02 -1.407900e-02 -1.290851e-02 -3.759200e-03 -6.181357e-03 1.351885e-03 -3.681340e-03 6.629265e-03 6.038881e-03 2.089924e-02 2.259260e-02 3.483942e-02 3.443137e-02 4.293862e-02 4.618304e-02 5.676263e-02 6.638538e-02 7.466903e-02 8.316409e-02 8.320485e-02 8.911001e-02 8.586955e-02 9.471511e-02 9.353723e-02 1.043880e-01 1.060691e-01 1.167001e-01 1.208658e-01 1.253966e-01 1.277013e-01 1.332200e-01 1.345177e-01 
1.594255e-01 1.556500e-01 1.682906e-01 1.606606e-01 1.789793e-01 1.631480e-01 1.433691e-01 1.862441e-01 1.863160e-01 1.927998e-01 2.023877e-01 2.001235e-01 2.151401e-01 1.836337e-01 7.458692e-02 6.647571e-02 -9.282541e-02 -1.809448e-01 -2.701615e-01 -4.228092e-01 -4.616895e-01 -5.004947e-01 -4.815020e-01 -4.851855e-01 -4.648412e-01 -4.600830e-01 -4.450115e-01 -4.393125e-01 -4.297153e-01 -4.228435e-01 -4.163959e-01 -4.079080e-01 -4.028966e-01 -3.937327e-01 -3.894506e-01 -3.812200e-01 -3.794097e-01 -3.737066e-01 -3.703946e-01 -3.612638e-01 -3.509813e-01 -3.374965e-01 -3.232275e-01 -3.118410e-01 -3.003958e-01 -2.950422e-01 -2.873653e-01 -2.863391e-01 -2.786575e-01 -2.762107e-01 -2.647791e-01 -2.597309e-01 -2.467201e-01 -2.427898e-01 -2.327530e-01 -2.297016e-01 -2.172400e-01 -2.082296e-01 -1.918084e-01 -1.823070e-01 -1.699190e-01 -1.641932e-01 -1.545024e-01 -1.478723e-01 -1.374497e-01 -1.317498e-01 -1.264123e-01 -1.288534e-01 -1.312711e-01 -1.382966e-01 -1.378045e-01 -1.372701e-01 -1.274274e-01 -1.225915e-01 -1.107643e-01 -1.085863e-01 -9.770771e-02 -9.703419e-02 -8.455555e-02 -8.378066e-02 -6.873806e-02 -6.726980e-02 -5.216118e-02 -5.416152e-02 -4.336083e-02 -4.944234e-02 -4.066245e-02 -4.514532e-02 -3.392640e-02 -3.389251e-02 -2.136586e-02 -1.902776e-02 -9.697289e-03 -9.442830e-03 -6.814866e-03 -7.508872e-03 -6.711842e-03 -2.349788e-03 2.570728e-04 8.427772e-03 7.749547e-03 1.329366e-02 8.625744e-03 1.688728e-02 1.818243e-02 3.352978e-02 3.838856e-02 5.068223e-02 5.108215e-02 5.816489e-02 6.229784e-02 7.324401e-02 8.435515e-02 9.230854e-02 1.001298e-01 9.870171e-02 1.037018e-01 1.002171e-01 1.086056e-01 1.079636e-01 1.167316e-01 1.231009e-01 1.378544e-01 1.337084e-01 1.426405e-01 1.423776e-01 1.512569e-01 1.494478e-01 
1.404382e-01 1.383875e-01 1.469990e-01 1.420554e-01 1.552467e-01 1.434146e-01 9.293216e-02 1.609798e-01 1.430507e-01 1.577454e-01 1.534846e-01 1.592109e-01 1.602796e-01 1.359431e-01 1.125014e-01 8.644987e-02 5.869469e-02 4.930282e-03 3.277905e-03 -7.429415e-02 -6.386824e-02 -1.051974e-01 -9.457363e-02 -1.036298e-01 -9.056047e-02 -9.642873e-02 -8.253736e-02 -8.752222e-02 -7.436975e-02 -7.779478e-02 -6.326553e-02 -6.361087e-02 -5.005063e-02 -5.067647e-02 -3.929869e-02 -3.900376e-02 -2.900854e-02 -2.783182e-02 -2.011358e-02 -2.059533e-02 -1.783257e-02 -1.982649e-02 -1.755185e-02 -1.569372e-02 -9.364178e-03 -3.062107e-03 3.223933e-03 7.124717e-03 1.156622e-02 1.591218e-02 2.243109e-02 2.844391e-02 3.718736e-02 4.310443e-02 5.178442e-02 5.586535e-02 6.413364e-02 6.629344e-02 7.445985e-02 7.374123e-02 8.108006e-02 7.910516e-02 8.779519e-02 8.585848e-02 9.421276e-02 9.032303e-02 9.711584e-02 9.245241e-02 1.001782e-01 9.658509e-02 1.040924e-01 1.000751e-01 1.046929e-01 9.833040e-02 1.002610e-01 9.421940e-02 9.715655e-02 9.466148e-02 9.863897e-02 9.748354e-02 1.015647e-01 1.019383e-01 1.060820e-01 1.063428e-01 1.091225e-01 1.088616e-01 1.120659e-01 1.110710e-01 1.130634e-01 1.092155e-01 1.107073e-01 1.058890e-01 1.086212e-01 1.023650e-01 1.055323e-01 9.763033e-02 1.018928e-01 9.338154e-02 9.945529e-02 9.280973e-02 1.025516e-01 9.816935e-02 1.075955e-01 1.021539e-01 1.087985e-01 1.047262e-01 1.106189e-01 1.099897e-01 1.133573e-01 1.149167e-01 1.136347e-01 1.162121e-01 1.082605e-01 1.119664e-01 1.010784e-01 1.116819e-01 1.035018e-01 1.196984e-01 1.099476e-01 1.247175e-01 1.118546e-01 1.288217e-01 1.299376e-01 1.188013e-01 1.287423e-01 1.273708e-01 1.346078e-01 1.334666e-01 
1.553108e-01 1.556511e-01 1.587505e-01 1.604627e-01 1.606710e-01 1.651083e-01 1.330743e-01 1.695516e-01 1.527345e-01 1.664798e-01 1.584614e-01 1.659231e-01 1.631411e-01 1.608460e-01 1.519978e-01 1.499026e-01 1.396437e-01 1.295862e-01 1.279366e-01 1.107744e-01 1.143445e-01 1.046735e-01 1.085882e-01 1.023944e-01 1.069155e-01 9.873549e-02 1.074235e-01 1.001818e-01 1.117946e-01 1.057685e-01 1.205277e-01 1.167125e-01 1.312574e-01 1.272891e-01 1.399356e-01 1.379391e-01 1.505613e-01 1.515476e-01 1.604867e-01 1.578657e-01 1.569455e-01 1.502077e-01 1.457924e-01 1.443448e-01 1.455134e-01 1.524756e-01 1.562331e-01 1.639954e-01 1.661109e-01 1.730140e-01 1.746005e-01 1.809775e-01 1.839574e-01 1.908454e-01 1.964725e-01 2.020332e-01 2.061316e-01 2.051954e-01 2.067135e-01 2.015884e-01 2.050474e-01 2.001846e-01 2.063337e-01 1.997825e-01 2.048642e-01 1.966176e-01 2.040539e-01 2.007967e-01 2.149476e-01 2.159917e-01 2.280078e-01 2.232249e-01 2.256469e-01 2.154317e-01 2.137465e-01 2.057666e-01 2.056700e-01 2.023503e-01 2.022592e-01 2.005224e-01 1.987952e-01 1.980318e-01 1.960923e-01 1.973511e-01 1.968842e-01 1.999980e-01 2.011002e-01 2.018157e-01 2.001125e-01 1.944829e-01 1.915993e-01 1.828585e-01 1.836469e-01 1.744946e-01 1.807410e-01 1.702663e-01 1.791275e-01 1.642896e-01 1.738761e-01 1.581442e-01 1.736072e-01 1.622196e-01 1.802420e-01 1.667497e-01 1.777330e-01 1.614592e-01 1.685067e-01 1.586153e-01 1.654099e-01 1.623144e-01 1.608584e-01 1.570353e-01 1.432664e-01 1.436752e-01 1.286259e-01 1.428076e-01 1.317743e-01 1.528707e-01 1.382759e-01 1.557161e-01 1.392375e-01 1.521247e-01 1.457686e-01 1.396577e-01 1.471169e-01 1.454147e-01 1.512498e-01 1.506469e-01 
1.358370e-01 1.385009e-01 1.366227e-01 1.414815e-01 1.346021e-01 1.441010e-01 1.271102e-01 1.439484e-01 1.307723e-01 1.406983e-01 1.337446e-01 1.355478e-01 1.350636e-01 1.281824e-01 1.344209e-01 1.211897e-01 1.329736e-01 1.159498e-01 1.309339e-01 1.125072e-01 1.279761e-01 1.101229e-01 1.232009e-01 1.073203e-01 1.192034e-01 1.050683e-01 1.178833e-01 1.058237e-01 1.194584e-01 1.092220e-01 1.237053e-01 1.154940e-01 1.295701e-01 1.227568e-01 1.356257e-01 1.308639e-01 1.428198e-01 1.402109e-01 1.493431e-01 1.460355e-01 1.499043e-01 1.457435e-01 1.471716e-01 1.460664e-01 1.491567e-01 1.523764e-01 1.563813e-01 1.607175e-01 1.638069e-01 1.676911e-01 1.702728e-01 1.738236e-01 1.773649e-01 1.812428e-01 1.867154e-01 1.899873e-01 1.956553e-01 1.957777e-01 2.010182e-01 1.982474e-01 2.044164e-01 2.001618e-01 2.066920e-01 2.002810e-01 2.060600e-01 1.988373e-01 2.064210e-01 2.022811e-01 2.133663e-01 2.113322e-01 2.204107e-01 2.146993e-01 2.170386e-01 2.078254e-01 2.067715e-01 1.988247e-01 1.982101e-01 1.936731e-01 1.935239e-01 1.912544e-01 1.906043e-01 1.894932e-01 1.883810e-01 1.881230e-01 1.872313e-01 1.873019e-01 1.868410e-01 1.852772e-01 1.840543e-01 1.791964e-01 1.782313e-01 1.711856e-01 1.728158e-01 1.647850e-01 1.698875e-01 1.603461e-01 1.674233e-01 1.551275e-01 1.631616e-01 1.498776e-01 1.605628e-01 1.490917e-01 1.609235e-01 1.495780e-01 1.580640e-01 1.468947e-01 1.522169e-01 1.452142e-01 1.481961e-01 1.459570e-01 1.429864e-01 1.427676e-01 1.324821e-01 1.366169e-01 1.240620e-01 1.358561e-01 1.236914e-01 1.392885e-01 1.255811e-01 1.393940e-01 1.263882e-01 1.359873e-01 1.286935e-01 1.305095e-01 1.310520e-01 1.324145e-01 1.336820e-01 1.353365e-01 
