# vtk DataFile Version 2.0
Comment goes here
ASCII

DATASET STRUCTURED_POINTS
FIELD FieldData 1
TIME 1 1 double
0.64000000
DIMENSIONS    128   16   1

ORIGIN    0.000   0.000   0.000
SPACING   0.0078125 0.015625   1.000

POINT_DATA   2048
SCALARS P double
LOOKUP_TABLE default

7.519848e-01 7.428004e-01 7.540522e-01 7.499666e-01 7.525733e-01 7.567485e-01 7.463603e-01 7.662429e-01 7.464595e-01 7.691650e-01 7.446894e-01 7.653904e-01 7.356539e-01 7.484403e-01 7.084313e-01 7.130578e-01 6.734109e-01 6.711917e-01 6.364163e-01 6.319763e-01 6.040723e-01 6.033592e-01 5.902514e-01 5.927542e-01 5.881973e-01 5.898829e-01 5.909098e-01 5.904074e-01 5.953025e-01 5.924526e-01 6.000515e-01 5.953055e-01 6.047297e-01 5.988085e-01 6.093051e-01 6.029167e-01 6.137553e-01 6.074343e-01 6.179487e-01 6.120680e-01 6.217960e-01 6.166392e-01 6.253982e-01 6.211335e-01 6.289293e-01 6.255082e-01 6.324441e-01 6.296411e-01 6.359694e-01 6.335159e-01 6.396311e-01 6.371926e-01 6.434138e-01 6.404347e-01 6.467992e-01 6.425327e-01 6.488195e-01 6.424732e-01 6.481056e-01 6.397176e-01 6.501251e-01 6.418579e-01 6.537143e-01 6.458387e-01 6.585996e-01 6.503703e-01 6.638711e-01 6.551212e-01 6.689084e-01 6.602886e-01 6.735317e-01 6.661007e-01 6.780362e-01 6.702842e-01 6.814412e-01 6.738701e-01 6.843568e-01 6.769249e-01 6.869182e-01 6.794041e-01 6.893318e-01 6.814994e-01 6.919329e-01 6.834304e-01 6.948549e-01 6.851724e-01 6.979450e-01 6.866152e-01 7.010680e-01 6.878475e-01 7.042099e-01 6.890299e-01 7.072342e-01 6.901889e-01 7.098916e-01 6.914171e-01 7.121472e-01 6.930754e-01 7.141751e-01 6.954695e-01 7.159160e-01 6.984325e-01 7.169916e-01 7.015888e-01 7.172892e-01 7.049410e-01 7.173048e-01 7.087551e-01 7.176141e-01 7.128605e-01 7.183079e-01 7.165410e-01 7.193199e-01 7.192248e-01 7.210244e-01 7.208769e-01 7.241003e-01 7.216781e-01 7.289204e-01 7.217882e-01 7.353067e-01 7.218664e-01 7.426503e-01 7.241717e-01 7.453590e-01 7.287356e-01 7.484976e-01 7.353429e-01 
6.466435e-01 6.409222e-01 6.462752e-01 6.444964e-01 6.419181e-01 6.469547e-01 6.302859e-01 6.537726e-01 6.305550e-01 6.536601e-01 6.323586e-01 6.493149e-01 6.342515e-01 6.394256e-01 6.353472e-01 6.326873e-01 6.372708e-01 6.278225e-01 6.388465e-01 6.239029e-01 6.384486e-01 6.201994e-01 6.337331e-01 6.183339e-01 6.322140e-01 6.174226e-01 6.324382e-01 6.172380e-01 6.335357e-01 6.175641e-01 6.348404e-01 6.182178e-01 6.360848e-01 6.193396e-01 6.374108e-01 6.211492e-01 6.389494e-01 6.235772e-01 6.404477e-01 6.259823e-01 6.412769e-01 6.277934e-01 6.415028e-01 6.294050e-01 6.419147e-01 6.313606e-01 6.429021e-01 6.335908e-01 6.442517e-01 6.356415e-01 6.455385e-01 6.370417e-01 6.463008e-01 6.372590e-01 6.458859e-01 6.355864e-01 6.432821e-01 6.306992e-01 6.370696e-01 6.222900e-01 6.346122e-01 6.197178e-01 6.328465e-01 6.189538e-01 6.321243e-01 6.183359e-01 6.325337e-01 6.192519e-01 6.347720e-01 6.237093e-01 6.390114e-01 6.316716e-01 6.476333e-01 6.398027e-01 6.522057e-01 6.429328e-01 6.530489e-01 6.435401e-01 6.525241e-01 6.432779e-01 6.519908e-01 6.429114e-01 6.518701e-01 6.424694e-01 6.520161e-01 6.416406e-01 6.520213e-01 6.401773e-01 6.518629e-01 6.385412e-01 6.520163e-01 6.372560e-01 6.524342e-01 6.361565e-01 6.525076e-01 6.349684e-01 6.519657e-01 6.340219e-01 6.510815e-01 6.337443e-01 6.498517e-01 6.340410e-01 6.480494e-01 6.347811e-01 6.457486e-01 6.360131e-01 6.433264e-01 6.377865e-01 6.410454e-01 6.395323e-01 6.386196e-01 6.403737e-01 6.362234e-01 6.402902e-01 6.349174e-01 6.396830e-01 6.355382e-01 6.383848e-01 6.380459e-01 6.358657e-01 6.421308e-01 6.324316e-01 6.475574e-01 6.299881e-01 6.455178e-01 6.327053e-01 6.456770e-01 6.366474e-01 
7.547751e-01 7.433502e-01 7.611261e-01 7.507380e-01 7.619609e-01 7.513000e-01 7.337679e-01 7.794851e-01 7.502938e-01 7.826903e-01 7.591574e-01 7.916246e-01 7.718592e-01 7.854464e-01 7.247326e-01 7.266137e-01 6.779064e-01 6.665296e-01 6.277671e-01 6.116063e-01 5.676540e-01 5.675742e-01 5.668797e-01 5.773330e-01 5.784584e-01 5.825685e-01 5.867581e-01 5.864337e-01 5.936571e-01 5.899814e-01 5.994526e-01 5.933398e-01 6.043443e-01 5.970210e-01 6.090492e-01 6.016807e-01 6.141475e-01 6.074106e-01 6.192540e-01 6.128836e-01 6.228538e-01 6.168049e-01 6.250331e-01 6.202736e-01 6.277013e-01 6.247946e-01 6.318208e-01 6.303592e-01 6.368806e-01 6.359669e-01 6.419173e-01 6.407433e-01 6.463893e-01 6.444532e-01 6.505614e-01 6.480747e-01 6.560791e-01 6.496433e-01 6.331699e-01 6.167191e-01 6.421688e-01 6.335343e-01 6.477669e-01 6.429150e-01 6.549058e-01 6.468495e-01 6.609668e-01 6.497743e-01 6.672105e-01 6.557819e-01 6.732241e-01 6.741914e-01 6.844554e-01 6.747080e-01 6.847411e-01 6.762701e-01 6.851374e-01 6.773235e-01 6.857337e-01 6.787325e-01 6.876512e-01 6.810322e-01 6.907840e-01 6.835868e-01 6.943078e-01 6.854326e-01 6.972096e-01 6.859441e-01 6.995591e-01 6.862196e-01 7.026861e-01 6.874516e-01 7.066561e-01 6.891113e-01 7.101520e-01 6.903152e-01 7.125520e-01 6.915407e-01 7.144685e-01 6.935816e-01 7.159601e-01 6.963151e-01 7.167765e-01 6.997796e-01 7.171823e-01 7.041592e-01 7.176100e-01 7.094421e-01 7.180927e-01 7.144342e-01 7.176150e-01 7.176439e-01 7.164967e-01 7.197014e-01 7.169561e-01 7.217558e-01 7.203030e-01 7.230954e-01 7.258826e-01 7.218275e-01 7.331865e-01 7.171454e-01 7.515939e-01 7.193457e-01 7.443030e-01 7.245192e-01 7.476937e-01 7.335751e-01 
6.518892e-01 6.436507e-01 6.622068e-01 6.488601e-01 6.706221e-01 6.447452e-01 6.290268e-01 7.157445e-01 6.843941e-01 7.186335e-01 7.055483e-01 7.306866e-01 7.226786e-01 6.756763e-01 5.318766e-01 4.410999e-01 3.275796e-01 1.948754e-01 1.079473e-01 -3.068838e-02 -1.374250e-01 -2.060811e-01 -1.822252e-01 -1.911136e-01 -1.669091e-01 -1.758641e-01 -1.510650e-01 -1.599753e-01 -1.348099e-01 -1.435484e-01 -1.184232e-01 -1.268044e-01 -1.020299e-01 -1.097333e-01 -8.550721e-02 -9.223720e-02 -6.874858e-02 -7.439070e-02 -5.195843e-02 -5.673961e-02 -3.571252e-02 -3.978719e-02 -2.000073e-02 -2.315379e-02 -4.138186e-03 -6.262162e-03 1.226967e-02 1.097544e-02 2.913320e-02 2.832473e-02 4.624498e-02 4.565309e-02 6.362160e-02 6.319987e-02 8.164884e-02 8.172014e-02 1.008932e-01 8.942716e-02 2.325169e-02 -1.460141e-02 5.281667e-02 4.345269e-02 7.475550e-02 8.750941e-02 1.134859e-01 1.222371e-01 1.551370e-01 1.513407e-01 1.908145e-01 1.799790e-01 2.142163e-01 2.402136e-01 2.495040e-01 2.387409e-01 2.545796e-01 2.479802e-01 2.651249e-01 2.603197e-01 2.777451e-01 2.740697e-01 2.918132e-01 2.888061e-01 3.068289e-01 3.039615e-01 3.222302e-01 3.189802e-01 3.374882e-01 3.335087e-01 3.525212e-01 3.478686e-01 3.677417e-01 3.624694e-01 3.831560e-01 3.771550e-01 3.983077e-01 3.916715e-01 4.130007e-01 4.062617e-01 4.274906e-01 4.212942e-01 4.418571e-01 4.368147e-01 4.560708e-01 4.528760e-01 4.702330e-01 4.694816e-01 4.844399e-01 4.864894e-01 4.986446e-01 5.033409e-01 5.124913e-01 5.194086e-01 5.261579e-01 5.348359e-01 5.405298e-01 5.499568e-01 5.562096e-01 5.644535e-01 5.732255e-01 5.775872e-01 5.923138e-01 5.886775e-01 6.414109e-01 6.251781e-01 6.362377e-01 6.275876e-01 6.422607e-01 6.351970e-01 
7.604075e-01 7.533230e-01 7.899594e-01 7.781831e-01 8.239084e-01 8.043973e-01 8.386295e-01 8.888752e-01 9.174872e-01 9.226298e-01 9.696790e-01 9.577936e-01 1.015999e+00 9.370741e-01 4.254316e-01 1.889576e-01 -2.431529e-01 -5.935308e-01 -9.662724e-01 -1.309221e+00 -1.774724e+00 -1.831534e+00 -1.785224e+00 -1.788238e+00 -1.746369e+00 -1.741476e+00 -1.703425e+00 -1.693090e+00 -1.658385e+00 -1.643868e+00 -1.611785e+00 -1.593976e+00 -1.563997e+00 -1.544039e+00 -1.515868e+00 -1.494875e+00 -1.468097e+00 -1.446779e+00 -1.420430e+00 -1.398659e+00 -1.371486e+00 -1.349419e+00 -1.321413e+00 -1.300239e+00 -1.272108e+00 -1.252639e+00 -1.224528e+00 -1.206645e+00 -1.178214e+00 -1.161353e+00 -1.132358e+00 -1.116118e+00 -1.086820e+00 -1.071232e+00 -1.042899e+00 -1.029112e+00 -1.005145e+00 -1.004393e+00 -1.047430e+00 -1.057177e+00 -9.929654e-01 -9.895015e-01 -9.474642e-01 -9.219084e-01 -8.830040e-01 -8.541996e-01 -8.085533e-01 -7.878152e-01 -7.355691e-01 -7.201586e-01 -6.702904e-01 -6.277345e-01 -5.903435e-01 -5.732581e-01 -5.328610e-01 -5.184098e-01 -4.778316e-01 -4.652223e-01 -4.248734e-01 -4.139063e-01 -3.741897e-01 -3.643052e-01 -3.252048e-01 -3.155078e-01 -2.769345e-01 -2.664886e-01 -2.283718e-01 -2.166283e-01 -1.796192e-01 -1.669623e-01 -1.319936e-01 -1.185655e-01 -8.556340e-02 -7.079319e-02 -3.902568e-02 -2.260384e-02 8.294815e-03 2.576365e-02 5.590891e-02 7.374481e-02 1.038534e-01 1.215785e-01 1.524303e-01 1.692313e-01 2.014183e-01 2.164140e-01 2.504338e-01 2.629343e-01 2.995047e-01 3.096763e-01 3.497080e-01 3.577806e-01 4.008901e-01 4.063781e-01 4.511660e-01 4.542177e-01 4.996486e-01 5.019909e-01 5.475079e-01 5.516839e-01 5.965099e-01 6.041782e-01 6.663317e-01 6.785012e-01 7.013439e-01 7.041489e-01 7.318770e-01 7.288199e-01 
6.534238e-01 6.582526e-01 6.840077e-01 6.893765e-01 7.179159e-01 7.272690e-01 7.589073e-01 7.777372e-01 8.090128e-01 8.210746e-01 8.559151e-01 8.620123e-01 8.991866e-01 8.969547e-01 2.415033e-01 1.732593e-01 -4.344280e-01 -5.357111e-01 -1.133395e+00 -1.218969e+00 -1.857124e+00 -1.870969e+00 -1.821989e+00 -1.827925e+00 -1.780698e+00 -1.781930e+00 -1.737221e+00 -1.734578e+00 -1.692587e+00 -1.686544e+00 -1.646971e+00 -1.638010e+00 -1.600546e+00 -1.589483e+00 -1.553882e+00 -1.541581e+00 -1.507452e+00 -1.494498e+00 -1.461015e+00 -1.447371e+00 -1.413507e+00 -1.399349e+00 -1.365035e+00 -1.351298e+00 -1.317030e+00 -1.304353e+00 -1.270213e+00 -1.258497e+00 -1.224188e+00 -1.212939e+00 -1.178203e+00 -1.166989e+00 -1.131882e+00 -1.120530e+00 -1.085661e+00 -1.074673e+00 -1.041596e+00 -1.032247e+00 -1.002204e+00 -9.824231e-01 -9.423101e-01 -9.305921e-01 -8.878702e-01 -8.746329e-01 -8.342142e-01 -8.175125e-01 -7.799373e-01 -7.634533e-01 -7.273410e-01 -7.149911e-01 -6.762890e-01 -6.691213e-01 -6.336778e-01 -6.234350e-01 -5.860582e-01 -5.763765e-01 -5.379629e-01 -5.285204e-01 -4.897499e-01 -4.807464e-01 -4.423582e-01 -4.335472e-01 -3.958018e-01 -3.865395e-01 -3.495477e-01 -3.390892e-01 -3.029336e-01 -2.908129e-01 -2.560865e-01 -2.425503e-01 -2.100180e-01 -1.951631e-01 -1.647858e-01 -1.482150e-01 -1.194015e-01 -1.009633e-01 -7.333991e-02 -5.362422e-02 -2.695667e-02 -6.666692e-03 1.976352e-02 4.003954e-02 6.702665e-02 8.645060e-02 1.146596e-01 1.323779e-01 1.623863e-01 1.777525e-01 2.102410e-01 2.233208e-01 2.590050e-01 2.699970e-01 3.084966e-01 3.171704e-01 3.572184e-01 3.639324e-01 4.044238e-01 4.108320e-01 4.509009e-01 4.593952e-01 4.975926e-01 5.104799e-01 5.457495e-01 5.652719e-01 5.889128e-01 5.995771e-01 6.229119e-01 6.293455e-01 
7.608307e-01 7.605344e-01 7.993541e-01 7.988097e-01 8.394640e-01 8.408923e-01 8.820380e-01 8.899881e-01 9.324652e-01 9.372765e-01 9.836616e-01 9.851731e-01 1.034770e+00 1.035142e+00 3.277569e-01 2.635124e-01 -3.980055e-01 -4.923519e-01 -1.148528e+00 -1.220805e+00 -1.924721e+00 -1.917447e+00 -1.874659e+00 -1.866558e+00 -1.825662e+00 -1.815631e+00 -1.777006e+00 -1.764654e+00 -1.728330e+00 -1.713646e+00 -1.679425e+00 -1.662643e+00 -1.630232e+00 -1.611782e+00 -1.580840e+00 -1.561218e+00 -1.531331e+00 -1.510970e+00 -1.481631e+00 -1.460837e+00 -1.431557e+00 -1.410655e+00 -1.381197e+00 -1.360608e+00 -1.330916e+00 -1.310942e+00 -1.280931e+00 -1.261625e+00 -1.231135e+00 -1.212355e+00 -1.181208e+00 -1.162719e+00 -1.130723e+00 -1.112208e+00 -1.079037e+00 -1.060005e+00 -1.024785e+00 -1.003989e+00 -9.633035e-01 -9.397461e-01 -9.034819e-01 -8.801269e-01 -8.425594e-01 -8.222690e-01 -7.841671e-01 -7.655139e-01 -7.288898e-01 -7.119491e-01 -6.767564e-01 -6.645045e-01 -6.277927e-01 -6.189613e-01 -5.907949e-01 -5.837189e-01 -5.504163e-01 -5.405341e-01 -5.042885e-01 -4.933643e-01 -4.556949e-01 -4.445120e-01 -4.063129e-01 -3.950465e-01 -3.568206e-01 -3.453095e-01 -3.073700e-01 -2.953336e-01 -2.579254e-01 -2.451442e-01 -2.085560e-01 -1.949764e-01 -1.594517e-01 -1.450490e-01 -1.105883e-01 -9.531190e-02 -6.170458e-02 -4.562872e-02 -1.260602e-02 3.969419e-03 3.672465e-02 5.338745e-02 8.632406e-02 1.026266e-01 1.362403e-01 1.516825e-01 1.864333e-01 2.005391e-01 2.368224e-01 2.492457e-01 2.873895e-01 2.980246e-01 3.382081e-01 3.470976e-01 3.891271e-01 3.963773e-01 4.397318e-01 4.456878e-01 4.897704e-01 4.950985e-01 5.393562e-01 5.447867e-01 5.887080e-01 5.945878e-01 6.378751e-01 6.438069e-01 6.820059e-01 6.854744e-01 7.223313e-01 7.235163e-01 
6.543032e-01 6.634915e-01 6.918953e-01 7.017744e-01 7.314387e-01 7.431342e-01 7.743241e-01 7.884194e-01 8.210446e-01 8.363560e-01 8.707540e-01 8.880866e-01 9.241391e-01 9.462983e-01 2.274026e-01 2.208120e-01 -4.728837e-01 -4.928166e-01 -1.182825e+00 -1.195766e+00 -1.905189e+00 -1.892978e+00 -1.846209e+00 -1.838868e+00 -1.793355e+00 -1.787554e+00 -1.743705e+00 -1.737646e+00 -1.695655e+00 -1.688457e+00 -1.648318e+00 -1.639679e+00 -1.601245e+00 -1.591234e+00 -1.554262e+00 -1.543131e+00 -1.507280e+00 -1.495319e+00 -1.460174e+00 -1.447633e+00 -1.412801e+00 -1.399953e+00 -1.365200e+00 -1.352356e+00 -1.317581e+00 -1.304961e+00 -1.270079e+00 -1.257745e+00 -1.222664e+00 -1.210549e+00 -1.175191e+00 -1.163173e+00 -1.127468e+00 -1.115396e+00 -1.079217e+00 -1.066923e+00 -1.029904e+00 -1.017082e+00 -9.779908e-01 -9.646707e-01 -9.289971e-01 -9.137308e-01 -8.787932e-01 -8.644432e-01 -8.279564e-01 -8.151553e-01 -7.773768e-01 -7.657947e-01 -7.273641e-01 -7.163963e-01 -6.793539e-01 -6.662895e-01 -6.305253e-01 -6.211289e-01 -5.846721e-01 -5.750619e-01 -5.380060e-01 -5.283220e-01 -4.910311e-01 -4.812570e-01 -4.440941e-01 -4.340686e-01 -3.973448e-01 -3.867949e-01 -3.507706e-01 -3.393853e-01 -3.042915e-01 -2.918236e-01 -2.579002e-01 -2.442348e-01 -2.116618e-01 -1.967530e-01 -1.655270e-01 -1.493769e-01 -1.193209e-01 -1.020714e-01 -7.291994e-02 -5.490344e-02 -2.630673e-02 -7.961978e-03 2.055667e-02 3.875514e-02 6.772897e-02 8.527444e-02 1.151936e-01 1.316006e-01 1.628580e-01 1.777687e-01 2.106480e-01 2.239442e-01 2.585549e-01 2.703292e-01 3.064480e-01 3.169442e-01 3.540068e-01 3.636915e-01 4.009388e-01 4.105249e-01 4.471103e-01 4.573567e-01 4.923848e-01 5.037099e-01 5.363783e-01 5.483769e-01 5.780213e-01 5.887981e-01 6.169189e-01 6.265057e-01 
7.610074e-01 7.625403e-01 8.021786e-01 8.039203e-01 8.447343e-01 8.478279e-01 8.898907e-01 8.951752e-01 9.389495e-01 9.450862e-01 9.912199e-01 9.988609e-01 1.047225e+00 1.059418e+00 3.142158e-01 2.917329e-01 -4.255906e-01 -4.618821e-01 -1.179238e+00 -1.200331e+00 -1.948340e+00 -1.928648e+00 -1.886978e+00 -1.872105e+00 -1.831919e+00 -1.818435e+00 -1.780063e+00 -1.766178e+00 -1.729717e+00 -1.714620e+00 -1.679992e+00 -1.663450e+00 -1.630447e+00 -1.612558e+00 -1.580879e+00 -1.561900e+00 -1.531182e+00 -1.511425e+00 -1.481284e+00 -1.461065e+00 -1.431150e+00 -1.410765e+00 -1.380795e+00 -1.360493e+00 -1.330255e+00 -1.310209e+00 -1.279548e+00 -1.259850e+00 -1.228663e+00 -1.209336e+00 -1.177547e+00 -1.158540e+00 -1.126050e+00 -1.107232e+00 -1.073881e+00 -1.055091e+00 -1.020713e+00 -1.001906e+00 -9.664790e-01 -9.476333e-01 -9.132614e-01 -8.946785e-01 -8.605645e-01 -8.428554e-01 -8.081259e-01 -7.917870e-01 -7.561921e-01 -7.410889e-01 -7.049211e-01 -6.902028e-01 -6.551118e-01 -6.409448e-01 -6.038180e-01 -5.907521e-01 -5.540465e-01 -5.419010e-01 -5.048794e-01 -4.931214e-01 -4.556887e-01 -4.440720e-01 -4.063952e-01 -3.947497e-01 -3.570873e-01 -3.452344e-01 -3.078401e-01 -2.955771e-01 -2.586627e-01 -2.458031e-01 -2.095341e-01 -1.959528e-01 -1.604267e-01 -1.460747e-01 -1.112882e-01 -9.620630e-02 -6.205455e-02 -4.640103e-02 -1.269434e-02 3.256141e-03 3.679753e-02 5.270560e-02 8.646105e-02 1.019713e-01 1.363714e-01 1.511153e-01 1.865452e-01 2.001504e-01 2.368923e-01 2.490603e-01 2.872980e-01 2.979004e-01 3.377093e-01 3.468055e-01 3.880870e-01 3.958708e-01 4.383089e-01 4.450631e-01 4.881728e-01 4.942340e-01 5.374582e-01 5.431201e-01 5.858931e-01 5.912306e-01 6.329559e-01 6.376742e-01 6.775551e-01 6.810323e-01 7.199017e-01 7.221415e-01 
6.543375e-01 6.635253e-01 6.919313e-01 7.018108e-01 7.314792e-01 7.431785e-01 7.743745e-01 7.884778e-01 8.211056e-01 8.364252e-01 8.708154e-01 8.881600e-01 9.241966e-01 9.463811e-01 2.275011e-01 2.209319e-01 -4.727209e-01 -4.926391e-01 -1.182562e+00 -1.195512e+00 -1.904808e+00 -1.892671e+00 -1.845921e+00 -1.838691e+00 -1.793249e+00 -1.787574e+00 -1.743798e+00 -1.737831e+00 -1.695877e+00 -1.688732e+00 -1.648606e+00 -1.640011e+00 -1.601585e+00 -1.591617e+00 -1.554634e+00 -1.543522e+00 -1.507610e+00 -1.495630e+00 -1.460400e+00 -1.447873e+00 -1.413004e+00 -1.400227e+00 -1.365441e+00 -1.352606e+00 -1.317660e+00 -1.304859e+00 -1.269606e+00 -1.256912e+00 -1.221368e+00 -1.208886e+00 -1.173186e+00 -1.160966e+00 -1.125174e+00 -1.113056e+00 -1.077034e+00 -1.064686e+00 -1.028247e+00 -1.015442e+00 -9.786784e-01 -9.654835e-01 -9.290653e-01 -9.156913e-01 -8.795607e-01 -8.665126e-01 -8.302825e-01 -8.177249e-01 -7.811211e-01 -7.689422e-01 -7.319408e-01 -7.200331e-01 -6.829343e-01 -6.713241e-01 -6.343061e-01 -6.235884e-01 -5.865483e-01 -5.764336e-01 -5.392849e-01 -5.294347e-01 -4.921705e-01 -4.822704e-01 -4.450861e-01 -4.349360e-01 -3.981902e-01 -3.875957e-01 -3.516142e-01 -3.402902e-01 -3.052988e-01 -2.929438e-01 -2.591016e-01 -2.454916e-01 -2.128912e-01 -1.979204e-01 -1.665535e-01 -1.502576e-01 -1.200195e-01 -1.026299e-01 -7.334860e-02 -5.527752e-02 -2.665728e-02 -8.360571e-03 2.011454e-02 3.826149e-02 6.726211e-02 8.487067e-02 1.149283e-01 1.314555e-01 1.628274e-01 1.777551e-01 2.105866e-01 2.237304e-01 2.581587e-01 2.697414e-01 3.057344e-01 3.161889e-01 3.533001e-01 3.631058e-01 4.004929e-01 4.102221e-01 4.469033e-01 4.572270e-01 4.922943e-01 5.036619e-01 5.363565e-01 5.483789e-01 5.780365e-01 5.888228e-01 6.169489e-01 6.265378e-01 
7.609011e-01 7.605990e-01 7.994210e-01 7.988733e-01 8.395345e-01 8.409643e-01 8.821228e-01 8.900808e-01 9.325656e-01 9.373829e-01 9.837539e-01 9.852761e-01 1.034839e+00 1.035255e+00 3.278644e-01 2.636745e-01 -3.978096e-01 -4.920747e-01 -1.148134e+00 -1.220391e+00 -1.924037e+00 -1.916918e+00 -1.874130e+00 -1.866230e+00 -1.825426e+00 -1.815619e+00 -1.777097e+00 -1.764910e+00 -1.728631e+00 -1.714045e+00 -1.679840e+00 -1.663148e+00 -1.630754e+00 -1.612395e+00 -1.581436e+00 -1.561852e+00 -1.531838e+00 -1.511422e+00 -1.481879e+00 -1.461052e+00 -1.431628e+00 -1.410764e+00 -1.381132e+00 -1.360425e+00 -1.330263e+00 -1.309777e+00 -1.278881e+00 -1.258702e+00 -1.227118e+00 -1.207448e+00 -1.175419e+00 -1.156426e+00 -1.124083e+00 -1.105620e+00 -1.072771e+00 -1.054420e+00 -1.020805e+00 -1.002335e+00 -9.680687e-01 -9.496841e-01 -9.152476e-01 -8.973510e-01 -8.629686e-01 -8.458800e-01 -8.113611e-01 -7.950819e-01 -7.600259e-01 -7.443372e-01 -7.085328e-01 -6.933403e-01 -6.569573e-01 -6.425326e-01 -6.056344e-01 -5.923222e-01 -5.552184e-01 -5.429656e-01 -5.055596e-01 -4.939529e-01 -4.560911e-01 -4.447204e-01 -4.065331e-01 -3.952233e-01 -3.571100e-01 -3.457264e-01 -3.080298e-01 -2.962864e-01 -2.592043e-01 -2.467671e-01 -2.104279e-01 -1.970407e-01 -1.615258e-01 -1.470609e-01 -1.123696e-01 -9.684806e-02 -6.291136e-02 -4.658071e-02 -1.330992e-02 3.373941e-03 3.618321e-02 5.275898e-02 8.561043e-02 1.018034e-01 1.354480e-01 1.509833e-01 1.859642e-01 2.002628e-01 2.367281e-01 2.491543e-01 2.871845e-01 2.975158e-01 3.373456e-01 3.458726e-01 3.876702e-01 3.948562e-01 4.383188e-01 4.445250e-01 4.888902e-01 4.945090e-01 5.389630e-01 5.445560e-01 5.885657e-01 5.945395e-01 6.378831e-01 6.438508e-01 6.820685e-01 6.855438e-01 7.224048e-01 7.235861e-01 
6.535364e-01 6.583503e-01 6.841044e-01 6.894652e-01 7.180164e-01 7.273773e-01 7.590553e-01 7.779251e-01 8.092371e-01 8.213090e-01 8.561166e-01 8.622107e-01 8.993338e-01 8.971815e-01 2.417057e-01 1.735373e-01 -4.340834e-01 -5.352531e-01 -1.132676e+00 -1.218119e+00 -1.855735e+00 -1.869681e+00 -1.820771e+00 -1.827122e+00 -1.780309e+00 -1.782114e+00 -1.737782e+00 -1.735443e+00 -1.693502e+00 -1.687498e+00 -1.647890e+00 -1.639029e+00 -1.601647e+00 -1.590805e+00 -1.555299e+00 -1.543095e+00 -1.508679e+00 -1.495408e+00 -1.461377e+00 -1.447666e+00 -1.413873e+00 -1.400400e+00 -1.366553e+00 -1.353357e+00 -1.318830e+00 -1.305560e+00 -1.269872e+00 -1.256395e+00 -1.219846e+00 -1.206797e+00 -1.170503e+00 -1.158716e+00 -1.123392e+00 -1.112555e+00 -1.077431e+00 -1.065949e+00 -1.029752e+00 -1.016692e+00 -9.795498e-01 -9.656501e-01 -9.287100e-01 -9.152038e-01 -8.794334e-01 -8.670197e-01 -8.321461e-01 -8.202750e-01 -7.849402e-01 -7.725888e-01 -7.358197e-01 -7.228615e-01 -6.849903e-01 -6.724694e-01 -6.346130e-01 -6.237273e-01 -5.864432e-01 -5.771768e-01 -5.399634e-01 -5.312072e-01 -4.931902e-01 -4.839652e-01 -4.453258e-01 -4.358286e-01 -3.977586e-01 -3.882583e-01 -3.514165e-01 -3.413594e-01 -3.058340e-01 -2.944876e-01 -2.603563e-01 -2.472250e-01 -2.146302e-01 -1.994548e-01 -1.683645e-01 -1.509983e-01 -1.212659e-01 -1.020882e-01 -7.385857e-02 -5.391064e-02 -2.732951e-02 -7.580292e-03 1.816966e-02 3.781892e-02 6.472106e-02 8.456405e-02 1.137313e-01 1.324516e-01 1.633555e-01 1.790387e-01 2.112733e-01 2.233738e-01 2.577471e-01 2.674078e-01 3.050583e-01 3.135564e-01 3.540822e-01 3.617218e-01 4.031735e-01 4.103632e-01 4.507703e-01 4.593708e-01 4.975113e-01 5.104636e-01 5.458113e-01 5.653870e-01 5.890467e-01 5.997122e-01 6.230447e-01 6.294641e-01 
7.605493e-01 7.534363e-01 7.900654e-01 7.782722e-01 8.240059e-01 8.044925e-01 8.387840e-01 8.890602e-01 9.177408e-01 9.228681e-01 9.698938e-01 9.579307e-01 1.016102e+00 9.371411e-01 4.254301e-01 1.889989e-01 -2.432095e-01 -5.930868e-01 -9.658822e-01 -1.308383e+00 -1.773418e+00 -1.830289e+00 -1.783838e+00 -1.787269e+00 -1.745780e+00 -1.741534e+00 -1.703868e+00 -1.693860e+00 -1.659169e+00 -1.644678e+00 -1.612558e+00 -1.594904e+00 -1.565092e+00 -1.545484e+00 -1.517517e+00 -1.496716e+00 -1.469619e+00 -1.447899e+00 -1.420820e+00 -1.398894e+00 -1.371736e+00 -1.350416e+00 -1.322873e+00 -1.302160e+00 -1.273466e+00 -1.252874e+00 -1.222410e+00 -1.201757e+00 -1.169900e+00 -1.150044e+00 -1.118240e+00 -1.100343e+00 -1.069534e+00 -1.053287e+00 -1.022471e+00 -1.005887e+00 -9.734049e-01 -9.553394e-01 -9.214012e-01 -9.029704e-01 -8.685559e-01 -8.510253e-01 -8.177483e-01 -8.019058e-01 -7.694755e-01 -7.546404e-01 -7.213101e-01 -7.061535e-01 -6.707261e-01 -6.549930e-01 -6.180164e-01 -6.029414e-01 -5.659171e-01 -5.532194e-01 -5.167602e-01 -5.063609e-01 -4.697946e-01 -4.602699e-01 -4.223669e-01 -4.124920e-01 -3.733846e-01 -3.635298e-01 -3.246641e-01 -3.153046e-01 -2.773953e-01 -2.679123e-01 -2.309335e-01 -2.204807e-01 -1.844434e-01 -1.724750e-01 -1.375278e-01 -1.237575e-01 -8.986143e-02 -7.406764e-02 -4.108562e-02 -2.366626e-02 8.072329e-03 2.590141e-02 5.597953e-02 7.314086e-02 1.023500e-01 1.192246e-01 1.498911e-01 1.671560e-01 2.004810e-01 2.166731e-01 2.517416e-01 2.645540e-01 3.007017e-01 3.095297e-01 3.478034e-01 3.541261e-01 3.961396e-01 4.014478e-01 4.469198e-01 4.512618e-01 4.980180e-01 5.014596e-01 5.474783e-01 5.518629e-01 5.966805e-01 6.045100e-01 6.667586e-01 6.788577e-01 7.016432e-01 7.043877e-01 7.320808e-01 7.289817e-01 
6.520633e-01 6.437645e-01 6.622849e-01 6.488868e-01 6.706127e-01 6.446764e-01 6.289385e-01 7.155764e-01 6.842267e-01 7.184160e-01 7.053467e-01 7.304142e-01 7.224132e-01 6.752937e-01 5.314753e-01 4.406216e-01 3.269958e-01 1.943380e-01 1.073076e-01 -3.129551e-02 -1.378610e-01 -2.065593e-01 -1.823625e-01 -1.909694e-01 -1.663202e-01 -1.749323e-01 -1.498274e-01 -1.586131e-01 -1.334621e-01 -1.423344e-01 -1.174325e-01 -1.260455e-01 -1.015646e-01 -1.095267e-01 -8.563928e-02 -9.270201e-02 -6.969174e-02 -7.579032e-02 -5.382960e-02 -5.877965e-02 -3.773433e-02 -4.138933e-02 -2.119317e-02 -2.377506e-02 -4.529723e-03 -6.490594e-03 1.175369e-02 1.004114e-02 2.758542e-02 2.611369e-02 4.363472e-02 4.251559e-02 6.049557e-02 5.933325e-02 7.753198e-02 7.536166e-02 9.329706e-02 8.957757e-02 1.073999e-01 1.023262e-01 1.215782e-01 1.164694e-01 1.371211e-01 1.325685e-01 1.544879e-01 1.501748e-01 1.726474e-01 1.681127e-01 1.903363e-01 1.857168e-01 2.072923e-01 2.032379e-01 2.242841e-01 2.208326e-01 2.416031e-01 2.387742e-01 2.588986e-01 2.561928e-01 2.752719e-01 2.722986e-01 2.905099e-01 2.874286e-01 3.054629e-01 3.024436e-01 3.207500e-01 3.175589e-01 3.363152e-01 3.326281e-01 3.519732e-01 3.475720e-01 3.676173e-01 3.624110e-01 3.831148e-01 3.770936e-01 3.982653e-01 3.916994e-01 4.131916e-01 4.067197e-01 4.283251e-01 4.226238e-01 4.436503e-01 4.389359e-01 4.581373e-01 4.545496e-01 4.711593e-01 4.695886e-01 4.837428e-01 4.852721e-01 4.972035e-01 5.020908e-01 5.116532e-01 5.191087e-01 5.262310e-01 5.350993e-01 5.407086e-01 5.499712e-01 5.560385e-01 5.642870e-01 5.732298e-01 5.779228e-01 5.929816e-01 5.895889e-01 6.423494e-01 6.258646e-01 6.367796e-01 6.279792e-01 6.425725e-01 6.354198e-01 
7.548834e-01 7.434148e-01 7.611617e-01 7.507308e-01 7.619154e-01 7.511953e-01 7.336052e-01 7.792238e-01 7.499857e-01 7.823463e-01 7.588414e-01 7.913088e-01 7.715644e-01 7.851057e-01 7.243536e-01 7.261674e-01 6.773897e-01 6.659335e-01 6.270137e-01 6.106468e-01 5.665718e-01 5.664134e-01 5.659778e-01 5.769136e-01 5.787512e-01 5.835704e-01 5.883329e-01 5.882982e-01 5.955271e-01 5.916956e-01 6.009373e-01 5.946725e-01 6.055282e-01 5.981764e-01 6.100623e-01 6.025159e-01 6.143893e-01 6.069943e-01 6.180265e-01 6.115030e-01 6.217174e-01 6.167808e-01 6.260465e-01 6.224719e-01 6.302209e-01 6.271880e-01 6.330246e-01 6.299545e-01 6.345099e-01 6.318550e-01 6.368567e-01 6.353766e-01 6.420147e-01 6.409711e-01 6.484004e-01 6.453662e-01 6.520516e-01 6.456162e-01 6.519861e-01 6.431455e-01 6.517188e-01 6.427633e-01 6.544184e-01 6.464891e-01 6.606886e-01 6.529479e-01 6.676508e-01 6.587339e-01 6.721782e-01 6.621229e-01 6.741140e-01 6.644778e-01 6.760474e-01 6.680176e-01 6.798820e-01 6.734971e-01 6.849331e-01 6.788038e-01 6.886723e-01 6.816014e-01 6.902527e-01 6.826197e-01 6.917952e-01 6.840290e-01 6.947276e-01 6.861083e-01 6.985485e-01 6.881282e-01 7.025012e-01 6.896741e-01 7.062047e-01 6.907001e-01 7.092803e-01 6.909883e-01 7.112395e-01 6.907962e-01 7.126539e-01 6.916650e-01 7.150304e-01 6.950800e-01 7.185342e-01 6.997756e-01 7.203193e-01 7.026146e-01 7.185240e-01 7.038751e-01 7.158232e-01 7.069037e-01 7.155935e-01 7.129857e-01 7.177221e-01 7.194251e-01 7.193648e-01 7.228749e-01 7.195992e-01 7.234014e-01 7.209141e-01 7.230243e-01 7.256897e-01 7.218705e-01 7.335983e-01 7.177170e-01 7.521612e-01 7.197599e-01 7.446428e-01 7.247649e-01 7.478932e-01 7.337153e-01 
6.467126e-01 6.409639e-01 6.463001e-01 6.444951e-01 6.418979e-01 6.469025e-01 6.302079e-01 6.536482e-01 6.304101e-01 6.534893e-01 6.321975e-01 6.491407e-01 6.340860e-01 6.392277e-01 6.351383e-01 6.324398e-01 6.370064e-01 6.275101e-01 6.385001e-01 6.234799e-01 6.380034e-01 6.197370e-01 6.333925e-01 6.181903e-01 6.323624e-01 6.178569e-01 6.331047e-01 6.180277e-01 6.343312e-01 6.183036e-01 6.354794e-01 6.187877e-01 6.365673e-01 6.197874e-01 6.377586e-01 6.213990e-01 6.389239e-01 6.232788e-01 6.397959e-01 6.252528e-01 6.405867e-01 6.274926e-01 6.415247e-01 6.298175e-01 6.423513e-01 6.316471e-01 6.426091e-01 6.325375e-01 6.423150e-01 6.328613e-01 6.423048e-01 6.335174e-01 6.432307e-01 6.344916e-01 6.442188e-01 6.342362e-01 6.434805e-01 6.314920e-01 6.407543e-01 6.272960e-01 6.381664e-01 6.245120e-01 6.372371e-01 6.242115e-01 6.383866e-01 6.258247e-01 6.405176e-01 6.280683e-01 6.423945e-01 6.303295e-01 6.439261e-01 6.329440e-01 6.460267e-01 6.361987e-01 6.485064e-01 6.395321e-01 6.507464e-01 6.420066e-01 6.518548e-01 6.428301e-01 6.517324e-01 6.424818e-01 6.514374e-01 6.419770e-01 6.516693e-01 6.415081e-01 6.522514e-01 6.408149e-01 6.528649e-01 6.397998e-01 6.533480e-01 6.385237e-01 6.534892e-01 6.369479e-01 6.530094e-01 6.352539e-01 6.521169e-01 6.341996e-01 6.514357e-01 6.344662e-01 6.509777e-01 6.354997e-01 6.495212e-01 6.359728e-01 6.463495e-01 6.359825e-01 6.427031e-01 6.368720e-01 6.401364e-01 6.390281e-01 6.387068e-01 6.411092e-01 6.373798e-01 6.415780e-01 6.360127e-01 6.404080e-01 6.358702e-01 6.384520e-01 6.380552e-01 6.359491e-01 6.423416e-01 6.326891e-01 6.478156e-01 6.301988e-01 6.457052e-01 6.328495e-01 6.457986e-01 6.367352e-01 
