# vtk DataFile Version 2.0
Comment goes here
ASCII

DATASET STRUCTURED_POINTS
FIELD FieldData 1
TIME 1 1 double
0.85000000
DIMENSIONS    128   16   1

ORIGIN    0.000   0.000   0.000
SPACING   0.0078125 0.015625   1.000

POINT_DATA   2048
SCALARS P double
LOOKUP_TABLE default

1.048985e+00 1.031899e+00 1.051408e+00 1.040281e+00 1.050464e+00 1.048797e+00 1.045795e+00 1.063238e+00 1.043795e+00 1.069801e+00 1.039286e+00 1.067084e+00 1.025556e+00 1.046303e+00 9.878421e-01 9.991907e-01 9.397437e-01 9.442266e-01 8.889400e-01 8.924740e-01 8.446718e-01 8.526764e-01 8.264561e-01 8.379170e-01 8.238217e-01 8.338891e-01 8.275783e-01 8.344950e-01 8.337923e-01 8.371761e-01 8.408103e-01 8.409307e-01 8.479830e-01 8.453925e-01 8.550328e-01 8.503488e-01 8.617488e-01 8.555728e-01 8.679778e-01 8.609180e-01 8.737535e-01 8.664044e-01 8.792781e-01 8.721019e-01 8.847177e-01 8.779252e-01 8.900408e-01 8.836056e-01 8.950999e-01 8.888686e-01 8.997902e-01 8.935248e-01 9.039876e-01 8.972501e-01 9.071544e-01 8.990190e-01 9.076103e-01 8.961179e-01 9.014810e-01 8.903115e-01 9.001638e-01 8.878139e-01 8.989457e-01 8.877435e-01 8.997864e-01 8.891987e-01 9.027042e-01 8.924673e-01 9.071681e-01 8.979621e-01 9.139713e-01 9.066124e-01 9.254455e-01 9.185862e-01 9.342955e-01 9.250412e-01 9.398352e-01 9.293879e-01 9.442894e-01 9.328627e-01 9.485323e-01 9.360122e-01 9.529590e-01 9.390962e-01 9.576300e-01 9.421433e-01 9.623711e-01 9.451211e-01 9.670068e-01 9.481217e-01 9.714700e-01 9.513289e-01 9.757075e-01 9.548697e-01 9.796024e-01 9.587820e-01 9.830464e-01 9.630875e-01 9.860247e-01 9.677976e-01 9.885979e-01 9.728483e-01 9.908617e-01 9.780842e-01 9.929785e-01 9.833194e-01 9.952152e-01 9.883532e-01 9.978760e-01 9.929132e-01 1.001207e+00 9.966698e-01 1.005405e+00 9.993736e-01 1.010678e+00 1.000985e+00 1.017191e+00 1.001706e+00 1.024893e+00 1.002074e+00 1.033351e+00 1.003388e+00 1.041509e+00 1.009342e+00 1.043188e+00 1.015368e+00 1.045542e+00 1.023194e+00 
8.935030e-01 8.813993e-01 8.923647e-01 8.844800e-01 8.876323e-01 8.862468e-01 8.768243e-01 8.980448e-01 8.742669e-01 9.017471e-01 8.745613e-01 9.001113e-01 8.765672e-01 8.920706e-01 8.796754e-01 8.891140e-01 8.850877e-01 8.874891e-01 8.907712e-01 8.859988e-01 8.944099e-01 8.834774e-01 8.916912e-01 8.823386e-01 8.917907e-01 8.818798e-01 8.933284e-01 8.817657e-01 8.954699e-01 8.818515e-01 8.977526e-01 8.821939e-01 9.000932e-01 8.830573e-01 9.025443e-01 8.844838e-01 9.048606e-01 8.861402e-01 9.066396e-01 8.876490e-01 9.077129e-01 8.890423e-01 9.085268e-01 8.908383e-01 9.096970e-01 8.932508e-01 9.112442e-01 8.958245e-01 9.126439e-01 8.978069e-01 9.133500e-01 8.987208e-01 9.131403e-01 8.982426e-01 9.114041e-01 8.949675e-01 9.055359e-01 8.843846e-01 8.888153e-01 8.683287e-01 8.787824e-01 8.566526e-01 8.684797e-01 8.488997e-01 8.612798e-01 8.436712e-01 8.581685e-01 8.421942e-01 8.586564e-01 8.456182e-01 8.639337e-01 8.537473e-01 8.775728e-01 8.706713e-01 8.886863e-01 8.779799e-01 8.932769e-01 8.808734e-01 8.951015e-01 8.817459e-01 8.959539e-01 8.817644e-01 8.966257e-01 8.813991e-01 8.973080e-01 8.807616e-01 8.978658e-01 8.798559e-01 8.982082e-01 8.789518e-01 8.984635e-01 8.783622e-01 8.985703e-01 8.781079e-01 8.982483e-01 8.780720e-01 8.972776e-01 8.782795e-01 8.957713e-01 8.789622e-01 8.939959e-01 8.801965e-01 8.920953e-01 8.817940e-01 8.900908e-01 8.833345e-01 8.879994e-01 8.844634e-01 8.861337e-01 8.850216e-01 8.849103e-01 8.848342e-01 8.847148e-01 8.837733e-01 8.858416e-01 8.816922e-01 8.883680e-01 8.785533e-01 8.922299e-01 8.746558e-01 8.971402e-01 8.710645e-01 9.021242e-01 8.716643e-01 8.961924e-01 8.739056e-01 8.938961e-01 8.774423e-01 
1.051007e+00 1.032546e+00 1.058123e+00 1.040038e+00 1.057850e+00 1.036704e+00 1.040348e+00 1.079041e+00 1.048849e+00 1.088401e+00 1.057771e+00 1.103249e+00 1.073594e+00 1.099018e+00 1.008666e+00 1.014936e+00 9.451918e-01 9.378358e-01 8.759039e-01 8.686061e-01 7.926051e-01 8.026311e-01 7.952998e-01 8.163809e-01 8.109346e-01 8.244644e-01 8.225111e-01 8.301460e-01 8.320097e-01 8.347564e-01 8.402009e-01 8.390589e-01 8.478104e-01 8.439589e-01 8.554939e-01 8.497296e-01 8.629818e-01 8.557150e-01 8.694666e-01 8.610678e-01 8.744969e-01 8.658457e-01 8.790407e-01 8.713700e-01 8.845673e-01 8.783686e-01 8.912423e-01 8.861160e-01 8.980914e-01 8.933659e-01 9.044277e-01 9.000950e-01 9.113268e-01 9.082064e-01 9.213511e-01 9.207261e-01 9.367764e-01 9.087180e-01 8.802911e-01 8.746892e-01 8.978121e-01 8.748960e-01 8.876091e-01 8.779264e-01 8.871824e-01 8.771046e-01 8.914401e-01 8.780783e-01 8.926931e-01 8.805006e-01 8.916403e-01 8.913485e-01 9.374481e-01 9.431133e-01 9.500578e-01 9.351778e-01 9.456183e-01 9.333505e-01 9.456876e-01 9.341785e-01 9.482127e-01 9.363662e-01 9.522473e-01 9.391486e-01 9.570571e-01 9.419874e-01 9.619418e-01 9.445183e-01 9.666233e-01 9.471526e-01 9.714482e-01 9.504115e-01 9.762998e-01 9.541385e-01 9.805649e-01 9.579324e-01 9.837743e-01 9.618086e-01 9.862290e-01 9.663683e-01 9.885310e-01 9.719039e-01 9.908962e-01 9.781440e-01 9.931353e-01 9.842662e-01 9.949131e-01 9.896543e-01 9.966217e-01 9.942801e-01 9.989578e-01 9.980909e-01 1.002579e+00 1.001037e+00 1.007919e+00 1.002713e+00 1.014923e+00 1.002573e+00 1.023502e+00 1.000195e+00 1.033858e+00 9.939672e-01 1.054353e+00 1.009090e+00 1.041762e+00 1.011736e+00 1.043332e+00 1.021415e+00 
8.964664e-01 8.848930e-01 9.067340e-01 8.897106e-01 9.118216e-01 8.810161e-01 9.064239e-01 9.790487e-01 9.476868e-01 9.884699e-01 9.722172e-01 1.006820e+00 9.931050e-01 9.416440e-01 7.302332e-01 6.094687e-01 4.515148e-01 2.900257e-01 1.488014e-01 1.134103e-03 -1.875968e-01 -2.581429e-01 -2.340862e-01 -2.395396e-01 -2.132090e-01 -2.194285e-01 -1.914161e-01 -1.985451e-01 -1.693079e-01 -1.772340e-01 -1.471922e-01 -1.556103e-01 -1.250565e-01 -1.335391e-01 -1.027679e-01 -1.110249e-01 -8.046383e-02 -8.836823e-02 -5.845749e-02 -6.592381e-02 -3.693385e-02 -4.371675e-02 -1.556491e-02 -2.129837e-02 6.192804e-03 1.607090e-03 2.846137e-02 2.480950e-02 5.100748e-02 4.798396e-02 7.376895e-02 7.134685e-02 9.738380e-02 9.601759e-02 1.232457e-01 1.238980e-01 1.503288e-01 6.032669e-02 -5.779908e-02 -6.511019e-02 -1.719077e-02 -7.557752e-02 -5.568499e-02 -6.266135e-02 -5.212888e-02 -5.244359e-02 -2.200264e-02 -2.614191e-02 1.148024e-02 2.019591e-02 5.696763e-02 1.140935e-01 2.728593e-01 3.378604e-01 3.580568e-01 3.483016e-01 3.709000e-01 3.635980e-01 3.873762e-01 3.814041e-01 4.059090e-01 4.005898e-01 4.257081e-01 4.204854e-01 4.462366e-01 4.406987e-01 4.670624e-01 4.609711e-01 4.879502e-01 4.813680e-01 5.089207e-01 5.020236e-01 5.298632e-01 5.228656e-01 5.505329e-01 5.437719e-01 5.707745e-01 5.647890e-01 5.907277e-01 5.861668e-01 6.106417e-01 6.080210e-01 6.306154e-01 6.302278e-01 6.505888e-01 6.524260e-01 6.704472e-01 6.743062e-01 6.903505e-01 6.957734e-01 7.106030e-01 7.167423e-01 7.315254e-01 7.371462e-01 7.533724e-01 7.567884e-01 7.762555e-01 7.753669e-01 8.004471e-01 7.923390e-01 8.273861e-01 8.021837e-01 8.845711e-01 8.714574e-01 8.813971e-01 8.686599e-01 8.862423e-01 8.757341e-01 
1.055254e+00 1.047735e+00 1.094387e+00 1.082994e+00 1.138312e+00 1.122116e+00 1.196934e+00 1.235364e+00 1.282744e+00 1.284736e+00 1.352700e+00 1.336103e+00 1.416218e+00 1.320224e+00 5.921973e-01 2.152063e-01 -3.312433e-01 -8.141985e-01 -1.337222e+00 -1.745132e+00 -2.476917e+00 -2.531463e+00 -2.474574e+00 -2.472515e+00 -2.418436e+00 -2.409594e+00 -2.358104e+00 -2.344542e+00 -2.295550e+00 -2.278212e+00 -2.231682e+00 -2.211267e+00 -2.167310e+00 -2.144628e+00 -2.103135e+00 -2.078661e+00 -2.038947e+00 -2.012873e+00 -1.974031e+00 -1.946609e+00 -1.908031e+00 -1.880112e+00 -1.841986e+00 -1.814866e+00 -1.777445e+00 -1.751823e+00 -1.714756e+00 -1.690605e+00 -1.653300e+00 -1.630515e+00 -1.593009e+00 -1.572396e+00 -1.536150e+00 -1.519689e+00 -1.487599e+00 -1.478538e+00 -1.457573e+00 -1.526897e+00 -1.610458e+00 -1.593934e+00 -1.546977e+00 -1.571991e+00 -1.528006e+00 -1.506972e+00 -1.466087e+00 -1.428719e+00 -1.368494e+00 -1.327922e+00 -1.253695e+00 -1.200066e+00 -1.117451e+00 -1.024998e+00 -8.545091e-01 -7.736879e-01 -7.188496e-01 -6.988463e-01 -6.455766e-01 -6.282423e-01 -5.756786e-01 -5.594237e-01 -5.076867e-01 -4.916219e-01 -4.409058e-01 -4.243489e-01 -3.747604e-01 -3.571707e-01 -3.086955e-01 -2.897811e-01 -2.425611e-01 -2.225805e-01 -1.767891e-01 -1.560431e-01 -1.113295e-01 -8.995727e-02 -4.560449e-02 -2.384846e-02 2.087505e-02 4.235912e-02 8.789109e-02 1.081426e-01 1.549520e-01 1.732172e-01 2.219408e-01 2.377656e-01 2.891355e-01 3.024281e-01 3.569706e-01 3.675976e-01 4.252014e-01 4.330871e-01 4.933253e-01 4.987612e-01 5.609127e-01 5.645552e-01 6.277726e-01 6.308410e-01 6.942227e-01 6.982022e-01 7.607913e-01 7.669914e-01 8.289000e-01 8.339346e-01 9.186207e-01 9.448593e-01 9.746906e-01 9.799262e-01 1.016669e+00 1.013810e+00 
8.991740e-01 9.057022e-01 9.416845e-01 9.492498e-01 9.900145e-01 1.003619e+00 1.053417e+00 1.070328e+00 1.119846e+00 1.128809e+00 1.182706e+00 1.184329e+00 1.240892e+00 1.231771e+00 3.324700e-01 2.343907e-01 -5.995044e-01 -7.337481e-01 -1.562360e+00 -1.667639e+00 -2.556734e+00 -2.572349e+00 -2.508628e+00 -2.515126e+00 -2.452672e+00 -2.454367e+00 -2.393713e+00 -2.391559e+00 -2.333094e+00 -2.327514e+00 -2.271464e+00 -2.262861e+00 -2.209430e+00 -2.198375e+00 -2.147505e+00 -2.134373e+00 -2.085507e+00 -2.070486e+00 -2.022863e+00 -2.006212e+00 -1.959283e+00 -1.941722e+00 -1.895535e+00 -1.878111e+00 -1.832764e+00 -1.816039e+00 -1.771172e+00 -1.755100e+00 -1.710152e+00 -1.694536e+00 -1.649382e+00 -1.634567e+00 -1.589998e+00 -1.576971e+00 -1.534473e+00 -1.524642e+00 -1.486323e+00 -1.484358e+00 -1.440756e+00 -1.407648e+00 -1.355300e+00 -1.330941e+00 -1.264974e+00 -1.237574e+00 -1.173207e+00 -1.139020e+00 -1.077650e+00 -1.044163e+00 -9.806952e-01 -9.544678e-01 -8.905779e-01 -8.634890e-01 -8.144354e-01 -8.093204e-01 -7.677993e-01 -7.604138e-01 -7.144828e-01 -7.043914e-01 -6.563982e-01 -6.444908e-01 -5.960269e-01 -5.826033e-01 -5.346238e-01 -5.196000e-01 -4.726441e-01 -4.558150e-01 -4.101189e-01 -3.913800e-01 -3.471638e-01 -3.268066e-01 -2.842149e-01 -2.625783e-01 -2.212873e-01 -1.986187e-01 -1.579734e-01 -1.346314e-01 -9.392958e-02 -7.061052e-02 -2.935023e-02 -6.985705e-03 3.536088e-02 5.601384e-02 1.000881e-01 1.185460e-01 1.650238e-01 1.811418e-01 2.304722e-01 2.441571e-01 2.962145e-01 3.075055e-01 3.618133e-01 3.711225e-01 4.268760e-01 4.349894e-01 4.912019e-01 4.994148e-01 5.549797e-01 5.648892e-01 6.184948e-01 6.318799e-01 6.821319e-01 7.007117e-01 7.472809e-01 7.749502e-01 8.093500e-01 8.240227e-01 8.569177e-01 8.656148e-01 
1.057201e+00 1.057465e+00 1.111327e+00 1.110796e+00 1.168590e+00 1.169409e+00 1.231636e+00 1.236846e+00 1.299996e+00 1.301932e+00 1.369092e+00 1.367411e+00 1.437853e+00 1.434537e+00 4.582828e-01 3.629065e-01 -5.466627e-01 -6.762017e-01 -1.586102e+00 -1.677649e+00 -2.660396e+00 -2.647942e+00 -2.593215e+00 -2.579950e+00 -2.526530e+00 -2.511735e+00 -2.459995e+00 -2.443302e+00 -2.393443e+00 -2.374703e+00 -2.326800e+00 -2.306055e+00 -2.260088e+00 -2.237533e+00 -2.193341e+00 -2.169217e+00 -2.126469e+00 -2.101045e+00 -2.059331e+00 -2.032946e+00 -1.991913e+00 -1.965027e+00 -1.924456e+00 -1.897580e+00 -1.857277e+00 -1.830764e+00 -1.790450e+00 -1.764434e+00 -1.723777e+00 -1.698237e+00 -1.656955e+00 -1.631763e+00 -1.589562e+00 -1.564240e+00 -1.520356e+00 -1.493372e+00 -1.445522e+00 -1.412712e+00 -1.353261e+00 -1.317594e+00 -1.264609e+00 -1.230653e+00 -1.177910e+00 -1.148954e+00 -1.096411e+00 -1.070141e+00 -1.019692e+00 -9.960196e-01 -9.458588e-01 -9.267696e-01 -8.779934e-01 -8.557328e-01 -8.114370e-01 -7.989860e-01 -7.515825e-01 -7.361036e-01 -6.865584e-01 -6.699024e-01 -6.194673e-01 -6.022521e-01 -5.516677e-01 -5.340021e-01 -4.837160e-01 -4.655056e-01 -4.157758e-01 -3.968914e-01 -3.478404e-01 -3.282285e-01 -2.798963e-01 -2.596505e-01 -2.119740e-01 -1.912796e-01 -1.440199e-01 -1.231190e-01 -7.589194e-02 -5.511342e-02 -7.475841e-03 1.273521e-02 6.121023e-02 8.034503e-02 1.300778e-01 1.476838e-01 1.990820e-01 2.148330e-01 2.682394e-01 2.819675e-01 3.375650e-01 3.492294e-01 4.069535e-01 4.166632e-01 4.762281e-01 4.842889e-01 5.452217e-01 5.521305e-01 6.138385e-01 6.202508e-01 6.820943e-01 6.886875e-01 7.500593e-01 7.573449e-01 8.178033e-01 8.259275e-01 8.851834e-01 8.947303e-01 9.470364e-01 9.529262e-01 1.003398e+00 1.005926e+00 
9.008279e-01 9.125875e-01 9.532945e-01 9.654509e-01 1.008660e+00 1.022362e+00 1.068680e+00 1.083949e+00 1.132507e+00 1.148936e+00 1.199492e+00 1.218950e+00 1.270669e+00 1.297613e+00 3.124373e-01 3.017500e-01 -6.508044e-01 -6.772771e-01 -1.626871e+00 -1.642189e+00 -2.619062e+00 -2.600735e+00 -2.540161e+00 -2.529207e+00 -2.469135e+00 -2.461182e+00 -2.402211e+00 -2.394839e+00 -2.337394e+00 -2.329293e+00 -2.273638e+00 -2.264170e+00 -2.210413e+00 -2.199354e+00 -2.147436e+00 -2.134788e+00 -2.084479e+00 -2.070375e+00 -2.021359e+00 -2.006048e+00 -1.958016e+00 -1.941853e+00 -1.894564e+00 -1.877933e+00 -1.831160e+00 -1.814340e+00 -1.767815e+00 -1.750930e+00 -1.704374e+00 -1.687436e+00 -1.640616e+00 -1.623546e+00 -1.576233e+00 -1.558739e+00 -1.510444e+00 -1.491652e+00 -1.441076e+00 -1.418815e+00 -1.363223e+00 -1.343251e+00 -1.291400e+00 -1.268779e+00 -1.219185e+00 -1.197925e+00 -1.146470e+00 -1.127851e+00 -1.074977e+00 -1.056847e+00 -1.004737e+00 -9.849717e-01 -9.345880e-01 -9.147826e-01 -8.594420e-01 -8.424465e-01 -7.912350e-01 -7.763538e-01 -7.266050e-01 -7.122166e-01 -6.631728e-01 -6.485112e-01 -6.000959e-01 -5.847432e-01 -5.371014e-01 -5.207870e-01 -4.740815e-01 -4.566326e-01 -4.109644e-01 -3.923254e-01 -3.477193e-01 -3.279805e-01 -2.843551e-01 -2.637185e-01 -2.208397e-01 -1.995910e-01 -1.570894e-01 -1.356039e-01 -9.303745e-02 -7.178168e-02 -2.869687e-02 -8.178752e-03 3.586959e-02 5.519299e-02 1.006119e-01 1.184017e-01 1.655014e-01 1.815779e-01 2.304929e-01 2.448436e-01 2.954689e-01 3.082759e-01 3.602685e-01 3.719330e-01 4.247288e-01 4.358517e-01 4.887104e-01 5.000380e-01 5.521060e-01 5.644036e-01 6.147925e-01 6.286501e-01 6.765503e-01 6.920877e-01 7.369107e-01 7.533693e-01 7.946772e-01 8.092532e-01 8.487721e-01 8.614430e-01 
1.057860e+00 1.060019e+00 1.115697e+00 1.117441e+00 1.175713e+00 1.178182e+00 1.239285e+00 1.243303e+00 1.306673e+00 1.311644e+00 1.377391e+00 1.384831e+00 1.452255e+00 1.466717e+00 4.385890e-01 4.053747e-01 -5.849237e-01 -6.347530e-01 -1.627567e+00 -1.654178e+00 -2.690950e+00 -2.661880e+00 -2.608752e+00 -2.586743e+00 -2.534333e+00 -2.514988e+00 -2.463811e+00 -2.444842e+00 -2.395196e+00 -2.375453e+00 -2.327468e+00 -2.306441e+00 -2.260107e+00 -2.237647e+00 -2.192830e+00 -2.169000e+00 -2.125467e+00 -2.100453e+00 -2.057914e+00 -2.031982e+00 -1.990128e+00 -1.963579e+00 -1.922108e+00 -1.895226e+00 -1.853836e+00 -1.826837e+00 -1.785225e+00 -1.758238e+00 -1.716108e+00 -1.689157e+00 -1.646210e+00 -1.619199e+00 -1.575091e+00 -1.547759e+00 -1.502040e+00 -1.473962e+00 -1.426090e+00 -1.396866e+00 -1.346549e+00 -1.318923e+00 -1.269125e+00 -1.240439e+00 -1.190690e+00 -1.163213e+00 -1.112601e+00 -1.087268e+00 -1.036077e+00 -1.012392e+00 -9.620188e-01 -9.391318e-01 -8.901687e-01 -8.714302e-01 -8.224487e-01 -8.040913e-01 -7.548118e-01 -7.369631e-01 -6.872467e-01 -6.694758e-01 -6.194954e-01 -6.016006e-01 -5.516115e-01 -5.334534e-01 -4.836942e-01 -4.651533e-01 -4.157919e-01 -3.967759e-01 -3.478919e-01 -3.283707e-01 -2.799574e-01 -2.599926e-01 -2.119544e-01 -1.917034e-01 -1.438475e-01 -1.235509e-01 -7.559370e-02 -5.556117e-02 -7.155388e-03 1.225381e-02 6.148311e-02 7.989474e-02 1.303137e-01 1.473831e-01 1.993082e-01 2.147626e-01 2.684158e-01 2.820895e-01 3.375611e-01 3.494283e-01 4.066581e-01 4.168527e-01 4.756242e-01 4.844318e-01 5.443765e-01 5.521933e-01 6.128148e-01 6.200830e-01 6.808090e-01 6.879314e-01 7.481756e-01 7.554039e-01 8.145924e-01 8.219008e-01 8.793985e-01 8.863829e-01 9.413082e-01 9.466875e-01 1.000349e+00 1.003869e+00 
9.008382e-01 9.125953e-01 9.533065e-01 9.654601e-01 1.008674e+00 1.022374e+00 1.068698e+00 1.083966e+00 1.132528e+00 1.148957e+00 1.199512e+00 1.218969e+00 1.270685e+00 1.297629e+00 3.124442e-01 3.017672e-01 -6.508061e-01 -6.772681e-01 -1.626880e+00 -1.642197e+00 -2.619081e+00 -2.600774e+00 -2.540199e+00 -2.529270e+00 -2.469194e+00 -2.461264e+00 -2.402278e+00 -2.394929e+00 -2.337456e+00 -2.329384e+00 -2.273686e+00 -2.264244e+00 -2.210407e+00 -2.199340e+00 -2.147285e+00 -2.134585e+00 -2.084105e+00 -2.069925e+00 -2.020747e+00 -2.005355e+00 -1.957186e+00 -1.940885e+00 -1.893404e+00 -1.876448e+00 -1.829322e+00 -1.811905e+00 -1.764837e+00 -1.747102e+00 -1.699867e+00 -1.681918e+00 -1.634346e+00 -1.616196e+00 -1.568095e+00 -1.549626e+00 -1.500739e+00 -1.481736e+00 -1.431802e+00 -1.412160e+00 -1.361192e+00 -1.341454e+00 -1.290409e+00 -1.270548e+00 -1.219550e+00 -1.200097e+00 -1.148776e+00 -1.129985e+00 -1.078295e+00 -1.059942e+00 -1.008116e+00 -9.900027e-01 -9.381673e-01 -9.205640e-01 -8.685172e-01 -8.518043e-01 -8.004583e-01 -7.845159e-01 -7.339543e-01 -7.183312e-01 -6.685363e-01 -6.527908e-01 -6.038401e-01 -5.876399e-01 -5.396821e-01 -5.227677e-01 -4.759082e-01 -4.580618e-01 -4.123217e-01 -3.934220e-01 -3.487515e-01 -3.288224e-01 -2.851001e-01 -2.643212e-01 -2.213316e-01 -2.000021e-01 -1.574127e-01 -1.359166e-01 -9.329976e-02 -7.207580e-02 -2.894704e-02 -8.447074e-03 3.567480e-02 5.502421e-02 1.005471e-01 1.183874e-01 1.655708e-01 1.816557e-01 2.305751e-01 2.448635e-01 2.954285e-01 3.081465e-01 3.600802e-01 3.716968e-01 4.244965e-01 4.356438e-01 4.885627e-01 4.999434e-01 5.520691e-01 5.643945e-01 6.148044e-01 6.286566e-01 6.765566e-01 6.920856e-01 7.369139e-01 7.533709e-01 7.946833e-01 8.092581e-01 8.487807e-01 8.614497e-01 
1.057220e+00 1.057480e+00 1.111346e+00 1.110812e+00 1.168612e+00 1.169430e+00 1.231663e+00 1.236876e+00 1.300024e+00 1.301970e+00 1.369112e+00 1.367448e+00 1.437861e+00 1.434574e+00 4.582825e-01 3.629824e-01 -5.466618e-01 -6.761165e-01 -1.586074e+00 -1.677597e+00 -2.660333e+00 -2.647964e+00 -2.593196e+00 -2.580009e+00 -2.526545e+00 -2.511807e+00 -2.460003e+00 -2.443352e+00 -2.393399e+00 -2.374699e+00 -2.326674e+00 -2.305952e+00 -2.259787e+00 -2.237174e+00 -2.192666e+00 -2.168381e+00 -2.125227e+00 -2.099561e+00 -2.057423e+00 -2.030740e+00 -1.989282e+00 -1.961934e+00 -1.920773e+00 -1.893014e+00 -1.851745e+00 -1.823754e+00 -1.782029e+00 -1.753967e+00 -1.711558e+00 -1.683586e+00 -1.640353e+00 -1.612561e+00 -1.568350e+00 -1.540709e+00 -1.495329e+00 -1.467758e+00 -1.421080e+00 -1.393620e+00 -1.345751e+00 -1.318734e+00 -1.270062e+00 -1.243574e+00 -1.194325e+00 -1.168777e+00 -1.119011e+00 -1.094674e+00 -1.044468e+00 -1.021359e+00 -9.709192e-01 -9.490385e-01 -8.985334e-01 -8.781234e-01 -8.275617e-01 -8.082727e-01 -7.577204e-01 -7.392443e-01 -6.886751e-01 -6.706005e-01 -6.200547e-01 -6.020379e-01 -5.516901e-01 -5.335169e-01 -4.836126e-01 -4.651101e-01 -4.157988e-01 -3.967721e-01 -3.480817e-01 -3.284046e-01 -2.802927e-01 -2.599794e-01 -2.123502e-01 -1.915804e-01 -1.442628e-01 -1.233320e-01 -7.603366e-02 -5.530995e-02 -7.635789e-03 1.246862e-02 6.098766e-02 8.005461e-02 1.298936e-01 1.475182e-01 1.990824e-01 2.149021e-01 2.684408e-01 2.821637e-01 3.377506e-01 3.492845e-01 4.068861e-01 4.164234e-01 4.758753e-01 4.838450e-01 5.447870e-01 5.517431e-01 6.135677e-01 6.200802e-01 6.820338e-01 6.886787e-01 7.500907e-01 7.573652e-01 8.178235e-01 8.259330e-01 8.851989e-01 8.947426e-01 9.470546e-01 9.529407e-01 1.003416e+00 1.005940e+00 
8.992047e-01 9.057240e-01 9.417172e-01 9.492721e-01 9.900541e-01 1.003649e+00 1.053475e+00 1.070382e+00 1.119924e+00 1.128887e+00 1.182777e+00 1.184395e+00 1.240939e+00 1.231835e+00 3.324880e-01 2.344790e-01 -5.995154e-01 -7.336852e-01 -1.562377e+00 -1.667611e+00 -2.556748e+00 -2.572418e+00 -2.508734e+00 -2.515327e+00 -2.452897e+00 -2.454659e+00 -2.393967e+00 -2.391863e+00 -2.333312e+00 -2.327856e+00 -2.271768e+00 -2.263373e+00 -2.209775e+00 -2.198732e+00 -2.147367e+00 -2.133999e+00 -2.084441e+00 -2.069115e+00 -2.020945e+00 -2.004265e+00 -1.957242e+00 -1.939782e+00 -1.893438e+00 -1.875389e+00 -1.829102e+00 -1.810511e+00 -1.763796e+00 -1.744797e+00 -1.697566e+00 -1.678549e+00 -1.630997e+00 -1.612240e+00 -1.564379e+00 -1.545789e+00 -1.497356e+00 -1.478566e+00 -1.429226e+00 -1.410032e+00 -1.359854e+00 -1.340461e+00 -1.289721e+00 -1.270498e+00 -1.219585e+00 -1.200924e+00 -1.149921e+00 -1.131841e+00 -1.080411e+00 -1.062626e+00 -1.010567e+00 -9.930336e-01 -9.405471e-01 -9.236216e-01 -8.712253e-01 -8.552749e-01 -8.034590e-01 -7.882619e-01 -7.369588e-01 -7.218692e-01 -6.710152e-01 -6.555150e-01 -6.054333e-01 -5.894226e-01 -5.407279e-01 -5.240845e-01 -4.769863e-01 -4.592274e-01 -4.136138e-01 -3.943577e-01 -3.501089e-01 -3.292713e-01 -2.863140e-01 -2.641957e-01 -2.224256e-01 -1.994789e-01 -1.585116e-01 -1.352503e-01 -9.452145e-02 -7.152181e-02 -3.027377e-02 -8.085629e-03 3.447808e-02 5.528758e-02 9.987712e-02 1.187529e-01 1.657172e-01 1.819755e-01 2.312607e-01 2.445820e-01 2.961947e-01 3.069474e-01 3.608331e-01 3.698736e-01 4.256638e-01 4.340251e-01 4.906548e-01 4.992428e-01 5.551160e-01 5.651411e-01 6.187484e-01 6.319960e-01 6.821405e-01 7.006568e-01 7.472667e-01 7.749560e-01 8.093700e-01 8.240440e-01 8.569467e-01 8.656379e-01 
1.055287e+00 1.047758e+00 1.094419e+00 1.083015e+00 1.138348e+00 1.122140e+00 1.197009e+00 1.235423e+00 1.282820e+00 1.284832e+00 1.352748e+00 1.336172e+00 1.416196e+00 1.320303e+00 5.921520e-01 2.154587e-01 -3.313470e-01 -8.138677e-01 -1.337199e+00 -1.744880e+00 -2.476700e+00 -2.531514e+00 -2.474581e+00 -2.472701e+00 -2.418595e+00 -2.409849e+00 -2.358265e+00 -2.344741e+00 -2.295595e+00 -2.278375e+00 -2.231758e+00 -2.211574e+00 -2.167369e+00 -2.144661e+00 -2.102488e+00 -2.077653e+00 -2.036981e+00 -2.010416e+00 -1.970760e+00 -1.943155e+00 -1.904291e+00 -1.876291e+00 -1.837703e+00 -1.809464e+00 -1.770426e+00 -1.741936e+00 -1.701886e+00 -1.673271e+00 -1.632148e+00 -1.603915e+00 -1.562025e+00 -1.534580e+00 -1.491997e+00 -1.465312e+00 -1.421785e+00 -1.395531e+00 -1.350749e+00 -1.324850e+00 -1.279102e+00 -1.253521e+00 -1.206290e+00 -1.181530e+00 -1.133696e+00 -1.110025e+00 -1.061824e+00 -1.039361e+00 -9.903401e-01 -9.687610e-01 -9.186983e-01 -8.978464e-01 -8.469605e-01 -8.271957e-01 -7.759308e-01 -7.576932e-01 -7.070424e-01 -6.902442e-01 -6.397556e-01 -6.234567e-01 -5.728334e-01 -5.563834e-01 -5.059184e-01 -4.892947e-01 -4.397157e-01 -4.228832e-01 -3.744128e-01 -3.568357e-01 -3.093100e-01 -2.905457e-01 -2.438370e-01 -2.237735e-01 -1.778632e-01 -1.568289e-01 -1.117110e-01 -9.016896e-02 -4.551992e-02 -2.396558e-02 2.072332e-02 4.174081e-02 8.720489e-02 1.071863e-01 1.542161e-01 1.726344e-01 2.219526e-01 2.382679e-01 2.901960e-01 3.036229e-01 3.580431e-01 3.681676e-01 4.251586e-01 4.323394e-01 4.920225e-01 4.971204e-01 5.593331e-01 5.633188e-01 6.270983e-01 6.306678e-01 6.944598e-01 6.985910e-01 7.611815e-01 7.671976e-01 8.289645e-01 8.339177e-01 9.186439e-01 9.449010e-01 9.747352e-01 9.799638e-01 1.016708e+00 1.013840e+00 
8.965166e-01 8.849210e-01 9.067676e-01 8.897193e-01 9.118440e-01 8.810040e-01 9.064664e-01 9.790277e-01 9.476787e-01 9.884485e-01 9.721895e-01 1.006787e+00 9.930490e-01 9.416287e-01 7.300950e-01 6.094541e-01 4.513705e-01 2.900012e-01 1.487156e-01 1.077622e-03 -1.876271e-01 -2.582552e-01 -2.341893e-01 -2.395697e-01 -2.132503e-01 -2.193893e-01 -1.914109e-01 -1.984610e-01 -1.692654e-01 -1.770915e-01 -1.470570e-01 -1.553712e-01 -1.248861e-01 -1.334069e-01 -1.028675e-01 -1.113097e-01 -8.107118e-02 -8.917510e-02 -5.948414e-02 -6.693821e-02 -3.787355e-02 -4.445145e-02 -1.614017e-02 -2.186629e-02 5.533464e-03 5.077623e-04 2.693719e-02 2.245472e-02 4.806261e-02 4.405087e-02 6.912368e-02 6.542082e-02 9.013301e-02 8.637255e-02 1.107109e-01 1.063641e-01 1.301959e-01 1.248034e-01 1.480610e-01 1.422568e-01 1.667286e-01 1.607764e-01 1.861913e-01 1.808034e-01 2.072048e-01 2.023438e-01 2.296567e-01 2.252461e-01 2.531472e-01 2.493764e-01 2.777045e-01 2.746874e-01 3.035473e-01 3.010509e-01 3.291358e-01 3.263485e-01 3.536545e-01 3.504126e-01 3.770285e-01 3.732504e-01 3.994928e-01 3.952542e-01 4.215808e-01 4.169090e-01 4.435619e-01 4.382978e-01 4.653315e-01 4.593749e-01 4.867916e-01 4.802041e-01 5.079661e-01 5.010170e-01 5.290030e-01 5.220551e-01 5.499429e-01 5.434048e-01 5.707360e-01 5.650547e-01 5.912580e-01 5.868616e-01 6.113701e-01 6.086690e-01 6.310293e-01 6.303637e-01 6.504160e-01 6.520781e-01 6.700175e-01 6.739606e-01 6.901419e-01 6.957796e-01 7.107959e-01 7.170748e-01 7.318831e-01 7.374322e-01 7.535360e-01 7.568307e-01 7.762320e-01 7.753345e-01 8.004778e-01 7.924598e-01 8.275959e-01 8.024252e-01 8.847749e-01 8.716187e-01 8.815279e-01 8.687518e-01 8.863211e-01 8.757867e-01 
1.051041e+00 1.032565e+00 1.058140e+00 1.040039e+00 1.057849e+00 1.036682e+00 1.040332e+00 1.078985e+00 1.048775e+00 1.088315e+00 1.057680e+00 1.103164e+00 1.073501e+00 1.098928e+00 1.008537e+00 1.014843e+00 9.450800e-01 9.377746e-01 8.758233e-01 8.685258e-01 7.925199e-01 8.025704e-01 7.953195e-01 8.165285e-01 8.111422e-01 8.247788e-01 8.228156e-01 8.305434e-01 8.323589e-01 8.353025e-01 8.408010e-01 8.399733e-01 8.486469e-01 8.448489e-01 8.559073e-01 8.498969e-01 8.624635e-01 8.549460e-01 8.683021e-01 8.602032e-01 8.740137e-01 8.661183e-01 8.798554e-01 8.723307e-01 8.853331e-01 8.780528e-01 8.898950e-01 8.827644e-01 8.935818e-01 8.867960e-01 8.971203e-01 8.906734e-01 9.007593e-01 8.941039e-01 9.037593e-01 8.959391e-01 9.047711e-01 8.951284e-01 9.033429e-01 8.926611e-01 9.021550e-01 8.910277e-01 9.020551e-01 8.914607e-01 9.040751e-01 8.940233e-01 9.077565e-01 8.979171e-01 9.122111e-01 9.027109e-01 9.175003e-01 9.087390e-01 9.243410e-01 9.162547e-01 9.316963e-01 9.232692e-01 9.383497e-01 9.288960e-01 9.437246e-01 9.328437e-01 9.481134e-01 9.359190e-01 9.526932e-01 9.391906e-01 9.579218e-01 9.425758e-01 9.632216e-01 9.456318e-01 9.680802e-01 9.482640e-01 9.723945e-01 9.509114e-01 9.764854e-01 9.541137e-01 9.804438e-01 9.580583e-01 9.841813e-01 9.627473e-01 9.874411e-01 9.678649e-01 9.899023e-01 9.730517e-01 9.914150e-01 9.780272e-01 9.923402e-01 9.831768e-01 9.938185e-01 9.889460e-01 9.964468e-01 9.947585e-01 9.999826e-01 9.994589e-01 1.003931e+00 1.002080e+00 1.008475e+00 1.002817e+00 1.014702e+00 1.002248e+00 1.023253e+00 1.000163e+00 1.034019e+00 9.942140e-01 1.054544e+00 1.009227e+00 1.041871e+00 1.011810e+00 1.043393e+00 1.021456e+00 
8.935251e-01 8.814114e-01 8.923774e-01 8.844821e-01 8.876366e-01 8.862381e-01 8.768179e-01 8.980210e-01 8.742392e-01 9.017100e-01 8.745243e-01 9.000749e-01 8.765268e-01 8.920296e-01 8.796212e-01 8.890638e-01 8.850357e-01 8.874421e-01 8.907238e-01 8.859477e-01 8.943560e-01 8.834435e-01 8.916788e-01 8.823821e-01 8.918432e-01 8.819834e-01 8.934101e-01 8.818916e-01 8.955534e-01 8.820122e-01 8.978980e-01 8.824482e-01 9.002683e-01 8.832293e-01 9.024731e-01 8.842805e-01 9.043235e-01 8.854526e-01 9.057166e-01 8.867559e-01 9.068545e-01 8.883381e-01 9.078791e-01 8.900472e-01 9.086275e-01 8.914898e-01 9.088224e-01 8.922823e-01 9.083407e-01 8.923290e-01 9.072958e-01 8.916072e-01 9.055835e-01 8.897368e-01 9.026185e-01 8.859268e-01 8.975216e-01 8.795447e-01 8.901508e-01 8.716110e-01 8.829870e-01 8.644238e-01 8.769008e-01 8.592689e-01 8.729377e-01 8.565306e-01 8.713477e-01 8.561730e-01 8.719223e-01 8.581319e-01 8.746885e-01 8.623163e-01 8.795976e-01 8.682954e-01 8.849246e-01 8.734519e-01 8.891688e-01 8.769719e-01 8.919966e-01 8.788268e-01 8.937322e-01 8.795826e-01 8.950831e-01 8.798949e-01 8.963897e-01 8.798956e-01 8.974810e-01 8.795213e-01 8.981656e-01 8.788576e-01 8.984215e-01 8.782078e-01 8.983753e-01 8.778776e-01 8.980359e-01 8.779906e-01 8.973386e-01 8.785719e-01 8.961876e-01 8.795066e-01 8.944979e-01 8.806227e-01 8.922789e-01 8.817417e-01 8.897768e-01 8.829145e-01 8.875759e-01 8.841957e-01 8.860728e-01 8.852206e-01 8.853215e-01 8.853840e-01 8.852603e-01 8.842058e-01 8.860871e-01 8.817642e-01 8.883112e-01 8.784531e-01 8.921530e-01 8.746579e-01 8.972118e-01 8.711692e-01 9.022101e-01 8.717309e-01 8.962485e-01 8.739470e-01 8.939317e-01 8.774665e-01 
