# vtk DataFile Version 2.0
Comment goes here
ASCII

DATASET STRUCTURED_POINTS
FIELD FieldData 1
TIME 1 1 double
0.72000000
DIMENSIONS    128   16   1

ORIGIN    0.000   0.000   0.000
SPACING   0.0078125 0.015625   1.000

POINT_DATA   2048
SCALARS uMag double
LOOKUP_TABLE default

7.233603e-03 3.331532e-03 6.057328e-03 4.232754e-04 4.433441e-03 2.553255e-03 1.050414e-02 1.644823e-03 4.827736e-03 4.937686e-03 3.681240e-03 1.418690e-02 2.165408e-02 3.751139e-02 4.637959e-02 4.886125e-02 5.333405e-02 5.150222e-02 5.053554e-02 4.473736e-02 3.866904e-02 2.002200e-02 1.427313e-02 4.389982e-03 3.860762e-03 1.890716e-03 5.057151e-04 4.447453e-03 2.360713e-03 5.400637e-03 3.163319e-03 5.656108e-03 3.543070e-03 5.606463e-03 3.764356e-03 5.422592e-03 3.927661e-03 5.182093e-03 4.065301e-03 4.929070e-03 4.187126e-03 4.695797e-03 4.294818e-03 4.504260e-03 4.385492e-03 4.368501e-03 4.458962e-03 4.302718e-03 4.523430e-03 4.319004e-03 4.575817e-03 4.375570e-03 4.511566e-03 4.206346e-03 3.917770e-03 3.294750e-03 4.054186e-03 6.295349e-03 4.460392e-03 3.169183e-03 4.167642e-03 5.118147e-03 5.474337e-03 6.415350e-03 6.928684e-03 7.465494e-03 7.976511e-03 8.290557e-03 8.796712e-03 9.221437e-03 9.619900e-03 1.248598e-02 1.154737e-02 9.038606e-03 7.019205e-03 6.588537e-03 5.321443e-03 5.360712e-03 4.149917e-03 4.567611e-03 3.396177e-03 4.149389e-03 3.010471e-03 3.938855e-03 2.880144e-03 3.793025e-03 2.910877e-03 3.634337e-03 3.044512e-03 3.431249e-03 3.244784e-03 3.180641e-03 3.483731e-03 2.899703e-03 3.733408e-03 2.619645e-03 3.960843e-03 2.379050e-03 4.127942e-03 2.219440e-03 4.196324e-03 2.180377e-03 4.131649e-03 2.291832e-03 3.908047e-03 2.568619e-03 3.516130e-03 3.009111e-03 2.972379e-03 3.594559e-03 2.324146e-03 4.285828e-03 1.651027e-03 5.022233e-03 1.072595e-03 5.727208e-03 7.739753e-04 6.314600e-03 1.066845e-03 6.669080e-03 2.529491e-03 6.503793e-03 6.489033e-03 6.295673e-04 5.507455e-03 2.479947e-03 6.881006e-03 3.986902e-03 
3.010227e-03 1.183607e-03 3.244828e-03 3.492465e-03 3.518608e-03 9.614730e-03 8.305707e-03 6.366468e-03 4.917197e-03 8.684736e-03 9.258836e-03 1.802739e-02 2.402962e-02 2.473475e-02 1.148195e-02 7.305513e-03 2.829827e-03 4.080578e-03 6.920798e-03 1.199405e-02 2.497110e-02 2.459580e-02 1.585483e-02 1.043989e-02 6.426245e-03 4.416998e-03 2.655412e-03 2.255848e-03 1.023067e-03 1.753054e-03 3.010770e-04 1.666061e-03 5.638212e-05 1.573551e-03 2.600215e-04 1.425634e-03 4.245975e-04 1.235117e-03 5.681764e-04 1.030174e-03 6.998187e-04 8.398676e-04 8.219859e-04 6.841507e-04 9.278990e-04 5.834638e-04 1.006639e-03 6.298439e-04 1.104649e-03 1.069039e-03 1.530284e-03 2.257688e-03 3.031756e-03 4.882766e-03 6.976031e-03 1.195795e-02 1.777808e-02 1.681519e-02 1.724682e-02 1.208109e-02 1.124858e-02 1.047994e-02 8.245982e-03 8.046319e-03 6.560948e-03 6.015146e-03 5.578894e-03 5.636233e-03 6.969877e-03 7.853368e-03 1.179235e-02 1.355926e-02 1.551722e-02 1.482977e-02 9.394920e-03 6.487139e-03 4.115454e-03 3.124234e-03 1.925767e-03 1.477412e-03 1.069106e-03 6.570605e-04 8.551560e-04 2.349279e-04 7.898781e-04 1.959987e-05 6.962583e-04 1.974880e-04 5.518984e-04 3.917208e-04 3.806177e-04 6.253160e-04 2.546538e-04 8.939614e-04 3.007198e-04 1.164866e-03 4.577768e-04 1.398553e-03 5.997886e-04 1.554149e-03 6.697454e-04 1.596296e-03 6.325682e-04 1.505000e-03 4.944710e-04 1.275519e-03 4.339386e-04 9.375121e-04 7.631773e-04 6.569294e-04 1.320697e-03 8.799409e-04 1.933019e-03 1.499931e-03 2.477561e-03 2.210991e-03 2.800570e-03 2.924375e-03 2.654063e-03 3.691302e-03 1.608976e-03 4.997563e-03 6.121707e-03 6.466764e-03 2.467962e-03 2.055348e-03 3.249287e-03 4.672490e-04 
1.063098e-02 8.597556e-03 9.119969e-03 6.761519e-03 1.001982e-02 2.535128e-02 9.714765e-03 1.458312e-02 3.165331e-03 1.042838e-02 1.490834e-03 1.077817e-02 1.147821e-02 1.767158e-02 2.141126e-02 2.173338e-02 2.297833e-02 2.339522e-02 2.130299e-02 2.095197e-02 1.826570e-02 9.818455e-03 5.117958e-03 2.615453e-03 5.526015e-03 4.654266e-03 7.924226e-03 6.335307e-03 9.194948e-03 7.158780e-03 9.817431e-03 7.601992e-03 1.008881e-02 7.893303e-03 1.015742e-02 8.134647e-03 1.011595e-02 8.374857e-03 1.001564e-02 8.607361e-03 9.863946e-03 8.796728e-03 9.656086e-03 8.903994e-03 9.382327e-03 8.898925e-03 9.029994e-03 8.748035e-03 8.554832e-03 8.414693e-03 7.955958e-03 8.092166e-03 7.839374e-03 9.377211e-03 1.172614e-02 1.869510e-02 2.587735e-02 1.591393e-02 1.975619e-02 1.027637e-02 9.684348e-03 1.258018e-02 1.048812e-02 1.385790e-02 1.565513e-02 1.790418e-02 2.091151e-02 2.314756e-02 2.694444e-02 2.858879e-02 3.408250e-02 3.874698e-02 3.667215e-02 3.337161e-02 2.664746e-02 2.115229e-02 1.832841e-02 1.523884e-02 1.448321e-02 1.231037e-02 1.268626e-02 1.090059e-02 1.186538e-02 1.027212e-02 1.146733e-02 1.004764e-02 1.121259e-02 1.004605e-02 1.098198e-02 1.018999e-02 1.073550e-02 1.043922e-02 1.047017e-02 1.075835e-02 1.018833e-02 1.109437e-02 9.905158e-03 1.140237e-02 9.658817e-03 1.163826e-02 9.489875e-03 1.176567e-02 9.452512e-03 1.176755e-02 9.590057e-03 1.162861e-02 9.920838e-03 1.133820e-02 1.042724e-02 1.088877e-02 1.106443e-02 1.031089e-02 1.179294e-02 9.673194e-03 1.258276e-02 9.085515e-03 1.342464e-02 8.728349e-03 1.430979e-02 9.042992e-03 1.523996e-02 1.183712e-02 2.442621e-02 1.392526e-02 9.982899e-03 4.587628e-03 1.017570e-02 8.719574e-03 
9.755336e-03 1.287115e-02 1.769082e-02 2.575056e-02 3.631475e-02 1.524372e-02 2.820633e-02 2.054308e-02 2.346104e-02 2.124307e-02 2.125021e-02 2.170270e-02 1.846445e-02 2.399935e-02 2.176916e-02 2.606812e-02 2.268480e-02 2.656619e-02 2.231712e-02 2.517169e-02 2.044337e-02 2.065605e-02 2.007707e-02 2.117714e-02 2.044293e-02 2.137261e-02 2.100122e-02 2.141995e-02 2.148330e-02 2.135075e-02 2.184153e-02 2.122884e-02 2.208324e-02 2.109846e-02 2.222238e-02 2.098355e-02 2.227465e-02 2.089542e-02 2.224593e-02 2.082639e-02 2.212889e-02 2.075358e-02 2.191197e-02 2.064405e-02 2.157745e-02 2.045354e-02 2.109335e-02 2.011462e-02 2.038658e-02 1.950685e-02 1.931262e-02 1.842944e-02 1.762932e-02 1.661214e-02 1.515794e-02 1.446580e-02 1.308898e-02 1.911968e-03 9.814514e-03 9.953788e-03 8.417838e-03 1.275821e-02 1.279021e-02 1.514109e-02 1.709281e-02 1.891643e-02 2.112304e-02 2.343452e-02 2.560522e-02 2.833121e-02 3.024068e-02 3.331527e-02 3.616883e-02 3.421992e-02 3.090504e-02 2.797997e-02 2.677676e-02 2.511649e-02 2.476994e-02 2.360767e-02 2.371993e-02 2.278645e-02 2.316482e-02 2.233539e-02 2.286045e-02 2.208962e-02 2.267297e-02 2.196460e-02 2.253773e-02 2.192062e-02 2.242472e-02 2.193679e-02 2.231800e-02 2.199998e-02 2.220213e-02 2.209466e-02 2.206850e-02 2.221075e-02 2.191806e-02 2.234225e-02 2.175613e-02 2.248619e-02 2.159683e-02 2.264593e-02 2.145474e-02 2.281941e-02 2.134203e-02 2.299532e-02 2.126526e-02 2.315344e-02 2.122462e-02 2.328339e-02 2.123011e-02 2.338377e-02 2.131634e-02 2.346124e-02 2.156889e-02 2.350845e-02 2.216383e-02 2.344466e-02 2.359254e-02 2.306979e-02 3.060680e-02 3.556885e-02 3.748180e-02 1.675506e-02 1.331142e-02 1.026044e-02 
3.290592e-02 3.687124e-02 3.895484e-02 4.914844e-02 5.932662e-02 5.566751e-02 2.747570e-02 3.911717e-02 2.687885e-02 3.413136e-02 2.502756e-02 2.902858e-02 1.847655e-02 2.256454e-02 2.146042e-02 2.234429e-02 2.243130e-02 2.210728e-02 2.268420e-02 2.167609e-02 2.232025e-02 2.041102e-02 2.764501e-02 2.652500e-02 3.093346e-02 2.955924e-02 3.251498e-02 3.112605e-02 3.326233e-02 3.197802e-02 3.356533e-02 3.248025e-02 3.361887e-02 3.280557e-02 3.352596e-02 3.303389e-02 3.335576e-02 3.320254e-02 3.314246e-02 3.329666e-02 3.287483e-02 3.327080e-02 3.252153e-02 3.306683e-02 3.203126e-02 3.261440e-02 3.132014e-02 3.179404e-02 3.019993e-02 3.034694e-02 2.827564e-02 2.773633e-02 2.473422e-02 2.286613e-02 1.794061e-02 1.323572e-02 3.884547e-03 8.628180e-03 4.274324e-03 6.718553e-03 6.053950e-03 1.291923e-02 1.614765e-02 2.051238e-02 2.581036e-02 2.978703e-02 3.514353e-02 3.972126e-02 4.471689e-02 5.067086e-02 5.352742e-02 6.343837e-02 6.596103e-02 5.799384e-02 5.140165e-02 4.664055e-02 4.352470e-02 4.090733e-02 3.940654e-02 3.780499e-02 3.721856e-02 3.614471e-02 3.605257e-02 3.528363e-02 3.540268e-02 3.486508e-02 3.498448e-02 3.470060e-02 3.466158e-02 3.470190e-02 3.437790e-02 3.482001e-02 3.411775e-02 3.501395e-02 3.387429e-02 3.522816e-02 3.365450e-02 3.541660e-02 3.348798e-02 3.553507e-02 3.340595e-02 3.554761e-02 3.345280e-02 3.543818e-02 3.366372e-02 3.519495e-02 3.405360e-02 3.481517e-02 3.460833e-02 3.430519e-02 3.529475e-02 3.371552e-02 3.608827e-02 3.314397e-02 3.697418e-02 3.273641e-02 3.795803e-02 3.269306e-02 3.902766e-02 3.335646e-02 3.998303e-02 3.562347e-02 4.018867e-02 6.974831e-02 5.107835e-02 4.355257e-02 3.474532e-02 3.556431e-02 
3.703523e-02 3.903897e-02 4.067948e-02 4.586167e-02 5.327887e-02 6.473880e-02 5.958955e-02 6.059783e-02 5.532892e-02 5.762393e-02 5.248056e-02 5.420333e-02 4.653296e-02 4.632398e-02 4.609358e-02 4.626794e-02 4.623461e-02 4.618549e-02 4.631533e-02 4.611631e-02 4.629591e-02 4.661614e-02 5.179911e-02 5.185904e-02 5.477260e-02 5.461223e-02 5.671388e-02 5.610972e-02 5.786442e-02 5.687712e-02 5.849503e-02 5.726690e-02 5.880102e-02 5.747796e-02 5.890481e-02 5.761551e-02 5.889036e-02 5.773496e-02 5.880789e-02 5.784388e-02 5.867334e-02 5.792757e-02 5.849586e-02 5.797375e-02 5.829194e-02 5.799019e-02 5.809955e-02 5.800905e-02 5.797040e-02 5.808789e-02 5.799157e-02 5.835699e-02 5.835367e-02 5.916909e-02 5.976096e-02 6.262158e-02 6.519679e-02 5.611848e-02 6.056253e-02 5.639178e-02 5.466020e-02 5.703272e-02 5.332638e-02 5.461980e-02 5.326559e-02 5.252261e-02 5.206907e-02 5.164696e-02 5.041885e-02 4.985292e-02 5.006690e-02 4.793700e-02 4.890304e-02 5.661583e-02 5.831360e-02 5.878569e-02 5.931335e-02 5.906670e-02 5.959523e-02 5.897459e-02 5.962193e-02 5.882904e-02 5.960107e-02 5.874929e-02 5.957306e-02 5.874811e-02 5.951788e-02 5.881436e-02 5.942287e-02 5.894460e-02 5.928921e-02 5.913431e-02 5.912714e-02 5.937015e-02 5.894345e-02 5.962094e-02 5.874890e-02 5.985890e-02 5.856845e-02 6.005461e-02 5.842736e-02 6.018254e-02 5.836122e-02 6.022918e-02 5.840042e-02 6.018224e-02 5.856178e-02 6.003514e-02 5.884270e-02 5.978732e-02 5.923061e-02 5.946990e-02 5.972391e-02 5.914962e-02 6.033212e-02 5.892780e-02 6.108726e-02 5.893504e-02 6.205412e-02 5.934515e-02 6.341086e-02 6.041598e-02 6.707465e-02 6.349519e-02 4.809257e-02 4.458824e-02 3.895785e-02 3.869416e-02 
4.768557e-02 4.960769e-02 4.930268e-02 5.282270e-02 5.392591e-02 5.983648e-02 6.266176e-02 6.391658e-02 6.210700e-02 6.471180e-02 6.280276e-02 6.654092e-02 6.496215e-02 6.347632e-02 6.319178e-02 6.340542e-02 6.336416e-02 6.330363e-02 6.346681e-02 6.320927e-02 6.345614e-02 6.445290e-02 6.482585e-02 6.314151e-02 6.341259e-02 6.254055e-02 6.316876e-02 6.237740e-02 6.321468e-02 6.234019e-02 6.330843e-02 6.234472e-02 6.337102e-02 6.236861e-02 6.338110e-02 6.240619e-02 6.333908e-02 6.245386e-02 6.325129e-02 6.250350e-02 6.312423e-02 6.254631e-02 6.296953e-02 6.258201e-02 6.281257e-02 6.263106e-02 6.270665e-02 6.275272e-02 6.275773e-02 6.308262e-02 6.318742e-02 6.392619e-02 6.448401e-02 6.597784e-02 6.781578e-02 7.132463e-02 7.766715e-02 8.480973e-02 7.991962e-02 7.705482e-02 7.725405e-02 7.426847e-02 7.255792e-02 7.191072e-02 6.910841e-02 6.886919e-02 6.636104e-02 6.611733e-02 6.395955e-02 6.294245e-02 6.473886e-02 6.042068e-02 5.858182e-02 6.182176e-02 6.384338e-02 6.524511e-02 6.583260e-02 6.589552e-02 6.599359e-02 6.555502e-02 6.560457e-02 6.501437e-02 6.514485e-02 6.455619e-02 6.475444e-02 6.424677e-02 6.444352e-02 6.407761e-02 6.418921e-02 6.402280e-02 6.396918e-02 6.405496e-02 6.376974e-02 6.414717e-02 6.358466e-02 6.427172e-02 6.341521e-02 6.440307e-02 6.327027e-02 6.451794e-02 6.316266e-02 6.459675e-02 6.310785e-02 6.462523e-02 6.311857e-02 6.459325e-02 6.320017e-02 6.449556e-02 6.334761e-02 6.433305e-02 6.354565e-02 6.411677e-02 6.377006e-02 6.386651e-02 6.398252e-02 6.360452e-02 6.412338e-02 6.334558e-02 6.411261e-02 6.308851e-02 6.392879e-02 6.277331e-02 6.426933e-02 5.809682e-02 5.397338e-02 5.202103e-02 4.915459e-02 4.931869e-02 
4.703098e-02 4.815757e-02 4.852020e-02 5.090209e-02 5.220810e-02 5.546340e-02 5.694467e-02 5.925686e-02 6.037360e-02 6.226273e-02 6.510431e-02 6.708627e-02 7.427038e-02 7.402500e-02 7.392903e-02 7.400962e-02 7.398066e-02 7.397655e-02 7.401533e-02 7.393851e-02 7.402079e-02 7.414627e-02 6.809169e-02 6.665600e-02 6.376890e-02 6.272676e-02 6.161657e-02 6.061264e-02 6.055169e-02 5.949605e-02 6.004613e-02 5.892433e-02 5.980563e-02 5.865266e-02 5.967856e-02 5.855180e-02 5.959361e-02 5.855296e-02 5.952120e-02 5.861653e-02 5.945228e-02 5.871895e-02 5.939054e-02 5.884940e-02 5.934981e-02 5.900891e-02 5.935223e-02 5.920783e-02 5.942405e-02 5.946140e-02 5.959357e-02 5.978951e-02 5.990071e-02 6.023764e-02 6.048518e-02 6.124389e-02 6.281779e-02 6.497749e-02 6.228171e-02 6.316765e-02 6.399120e-02 6.281756e-02 6.401795e-02 6.403264e-02 6.382038e-02 6.483928e-02 6.464623e-02 6.490102e-02 6.575541e-02 6.585819e-02 6.574543e-02 6.682058e-02 6.433524e-02 6.168037e-02 6.110185e-02 6.041269e-02 6.053681e-02 5.996202e-02 6.029817e-02 5.969512e-02 6.017194e-02 5.953437e-02 6.009277e-02 5.945604e-02 6.002884e-02 5.944696e-02 5.995916e-02 5.949619e-02 5.987186e-02 5.959423e-02 5.976361e-02 5.973071e-02 5.963772e-02 5.989208e-02 5.950190e-02 6.006075e-02 5.936795e-02 6.021751e-02 5.925137e-02 6.034281e-02 5.916896e-02 6.041879e-02 5.913693e-02 6.043123e-02 5.916687e-02 6.036975e-02 5.926145e-02 6.022790e-02 5.941063e-02 6.000282e-02 5.958948e-02 5.969489e-02 5.975582e-02 5.930248e-02 5.984318e-02 5.881080e-02 5.974907e-02 5.817468e-02 5.931650e-02 5.729361e-02 5.830265e-02 5.596250e-02 5.633167e-02 5.338865e-02 5.146011e-02 4.979352e-02 4.808306e-02 4.780880e-02 
5.184056e-02 5.314481e-02 5.285717e-02 5.520374e-02 5.578458e-02 5.870774e-02 6.010924e-02 6.224501e-02 6.348674e-02 6.524364e-02 6.800941e-02 6.960143e-02 7.711226e-02 7.730899e-02 7.717132e-02 7.727717e-02 7.724545e-02 7.722256e-02 7.730167e-02 7.716862e-02 7.731668e-02 7.712838e-02 7.120746e-02 7.001103e-02 6.733704e-02 6.634272e-02 6.531768e-02 6.437652e-02 6.429920e-02 6.337117e-02 6.382327e-02 6.289088e-02 6.361468e-02 6.269383e-02 6.352481e-02 6.265222e-02 6.348109e-02 6.270025e-02 6.345349e-02 6.280441e-02 6.343503e-02 6.294902e-02 6.343299e-02 6.313160e-02 6.346610e-02 6.336249e-02 6.356458e-02 6.366677e-02 6.377253e-02 6.408927e-02 6.415361e-02 6.470294e-02 6.479712e-02 6.561314e-02 6.580179e-02 6.695215e-02 6.734912e-02 6.890037e-02 6.770588e-02 6.812275e-02 6.748762e-02 6.727717e-02 6.688703e-02 6.661408e-02 6.568684e-02 6.565587e-02 6.447579e-02 6.390666e-02 6.299016e-02 6.187165e-02 5.916425e-02 5.826690e-02 5.804639e-02 5.863868e-02 5.935548e-02 6.028577e-02 6.111661e-02 6.170407e-02 6.237079e-02 6.258982e-02 6.311321e-02 6.307986e-02 6.350581e-02 6.334319e-02 6.368561e-02 6.349839e-02 6.373884e-02 6.361435e-02 6.371502e-02 6.372616e-02 6.364311e-02 6.384775e-02 6.354219e-02 6.397971e-02 6.342729e-02 6.411443e-02 6.331256e-02 6.423970e-02 6.321219e-02 6.434130e-02 6.313966e-02 6.440511e-02 6.310638e-02 6.441913e-02 6.311962e-02 6.437461e-02 6.317944e-02 6.426580e-02 6.327512e-02 6.408838e-02 6.338156e-02 6.383634e-02 6.345558e-02 6.349598e-02 6.343094e-02 6.303506e-02 6.321228e-02 6.238534e-02 6.266777e-02 6.141059e-02 6.160403e-02 5.983112e-02 5.965935e-02 5.707305e-02 5.571972e-02 5.432814e-02 5.285711e-02 5.286997e-02 
4.703070e-02 4.815797e-02 4.851998e-02 5.090245e-02 5.220785e-02 5.546366e-02 5.694417e-02 5.925663e-02 6.037322e-02 6.226242e-02 6.510407e-02 6.708601e-02 7.427024e-02 7.402492e-02 7.392891e-02 7.400975e-02 7.398070e-02 7.397691e-02 7.401555e-02 7.393905e-02 7.402130e-02 7.415080e-02 6.810534e-02 6.666507e-02 6.378523e-02 6.274061e-02 6.163892e-02 6.063285e-02 6.058246e-02 5.952529e-02 6.008861e-02 5.896640e-02 5.986300e-02 5.871130e-02 5.975384e-02 5.863087e-02 5.968987e-02 5.865602e-02 5.964121e-02 5.874586e-02 5.959634e-02 5.887201e-02 5.955205e-02 5.901436e-02 5.950954e-02 5.915756e-02 5.946854e-02 5.928620e-02 5.942356e-02 5.938513e-02 5.936859e-02 5.945092e-02 5.931451e-02 5.951551e-02 5.931095e-02 5.966674e-02 5.944943e-02 6.000839e-02 5.951107e-02 5.991446e-02 5.967052e-02 5.976836e-02 5.963398e-02 5.972761e-02 5.946221e-02 5.959930e-02 5.928367e-02 5.927060e-02 5.902583e-02 5.882469e-02 5.846218e-02 5.844399e-02 5.811266e-02 5.783775e-02 5.804419e-02 5.791843e-02 5.845140e-02 5.825510e-02 5.891987e-02 5.858641e-02 5.930274e-02 5.885084e-02 5.957102e-02 5.905659e-02 5.973222e-02 5.922770e-02 5.980185e-02 5.938606e-02 5.979642e-02 5.954689e-02 5.973312e-02 5.971711e-02 5.962903e-02 5.989457e-02 5.950185e-02 6.007024e-02 5.937070e-02 6.023006e-02 5.925515e-02 6.035694e-02 5.917351e-02 6.043268e-02 5.914075e-02 6.044186e-02 5.916830e-02 6.037536e-02 5.926067e-02 6.022931e-02 5.940992e-02 6.000279e-02 5.959116e-02 5.969508e-02 5.975978e-02 5.930257e-02 5.984752e-02 5.880962e-02 5.975180e-02 5.817223e-02 5.931770e-02 5.729151e-02 5.830318e-02 5.596159e-02 5.633170e-02 5.338871e-02 5.145975e-02 4.979392e-02 4.808269e-02 4.780923e-02 
4.768487e-02 4.960827e-02 4.930239e-02 5.282342e-02 5.392580e-02 5.983727e-02 6.266041e-02 6.391531e-02 6.210582e-02 6.471025e-02 6.280192e-02 6.653987e-02 6.496149e-02 6.347639e-02 6.319172e-02 6.340602e-02 6.336431e-02 6.330477e-02 6.346733e-02 6.321073e-02 6.345804e-02 6.445690e-02 6.485223e-02 6.316463e-02 6.345658e-02 6.258543e-02 6.323777e-02 6.244932e-02 6.331666e-02 6.244868e-02 6.345549e-02 6.250429e-02 6.357818e-02 6.259728e-02 6.366744e-02 6.272741e-02 6.372990e-02 6.289748e-02 6.377966e-02 6.310645e-02 6.382948e-02 6.334829e-02 6.389066e-02 6.361811e-02 6.397589e-02 6.391302e-02 6.409372e-02 6.422605e-02 6.424245e-02 6.454340e-02 6.441047e-02 6.484852e-02 6.458253e-02 6.512544e-02 6.473654e-02 6.534399e-02 6.482310e-02 6.542326e-02 6.471754e-02 6.518565e-02 6.441488e-02 6.467615e-02 6.387440e-02 6.397501e-02 6.308071e-02 6.306935e-02 6.211690e-02 6.196574e-02 6.104047e-02 6.082136e-02 5.995476e-02 5.987073e-02 5.952482e-02 5.968842e-02 5.985152e-02 6.016979e-02 6.064676e-02 6.091389e-02 6.152698e-02 6.163899e-02 6.228650e-02 6.223371e-02 6.285845e-02 6.268816e-02 6.324514e-02 6.303296e-02 6.347365e-02 6.330608e-02 6.357622e-02 6.353987e-02 6.358463e-02 6.375588e-02 6.352675e-02 6.396257e-02 6.342762e-02 6.415893e-02 6.331163e-02 6.433667e-02 6.320184e-02 6.448258e-02 6.311880e-02 6.458036e-02 6.307879e-02 6.461601e-02 6.309637e-02 6.458371e-02 6.318171e-02 6.448431e-02 6.333463e-02 6.432324e-02 6.354075e-02 6.411011e-02 6.377182e-02 6.386155e-02 6.398671e-02 6.359863e-02 6.412572e-02 6.333844e-02 6.411293e-02 6.308296e-02 6.392845e-02 6.277046e-02 6.426848e-02 5.809632e-02 5.397178e-02 5.202138e-02 4.915339e-02 4.931919e-02 
3.703450e-02 3.904027e-02 4.067893e-02 4.586256e-02 5.327787e-02 6.473861e-02 5.958714e-02 6.059646e-02 5.532824e-02 5.762300e-02 5.248013e-02 5.420206e-02 4.653235e-02 4.632321e-02 4.609300e-02 4.626829e-02 4.623473e-02 4.618682e-02 4.631559e-02 4.611726e-02 4.629646e-02 4.661971e-02 5.181859e-02 5.187579e-02 5.480597e-02 5.464326e-02 5.676743e-02 5.615569e-02 5.794132e-02 5.694737e-02 5.860960e-02 5.737836e-02 5.896422e-02 5.764257e-02 5.912711e-02 5.784923e-02 5.918688e-02 5.805790e-02 5.920358e-02 5.828783e-02 5.920220e-02 5.852388e-02 5.919016e-02 5.875610e-02 5.918842e-02 5.898838e-02 5.921212e-02 5.921299e-02 5.925137e-02 5.940195e-02 5.927575e-02 5.952913e-02 5.927264e-02 5.960014e-02 5.924960e-02 5.962226e-02 5.920491e-02 5.958990e-02 5.916625e-02 5.955366e-02 5.911828e-02 5.941425e-02 5.899240e-02 5.921041e-02 5.879096e-02 5.894807e-02 5.854626e-02 5.862731e-02 5.828064e-02 5.828848e-02 5.804006e-02 5.801606e-02 5.796150e-02 5.781073e-02 5.804981e-02 5.782938e-02 5.835240e-02 5.800277e-02 5.872878e-02 5.820834e-02 5.906548e-02 5.839181e-02 5.931756e-02 5.855041e-02 5.947118e-02 5.869764e-02 5.952446e-02 5.884782e-02 5.948295e-02 5.901737e-02 5.936721e-02 5.921846e-02 5.919594e-02 5.944378e-02 5.898929e-02 5.968118e-02 5.877609e-02 5.991096e-02 5.858672e-02 6.010856e-02 5.844949e-02 6.023864e-02 5.838003e-02 6.026938e-02 5.840364e-02 6.019663e-02 5.854934e-02 6.002922e-02 5.883016e-02 5.978151e-02 5.923496e-02 5.947279e-02 5.974236e-02 5.915548e-02 6.035214e-02 5.892496e-02 6.109411e-02 5.892148e-02 6.205322e-02 5.933551e-02 6.341043e-02 6.041321e-02 6.707240e-02 6.349869e-02 4.808994e-02 4.459110e-02 3.895659e-02 3.869602e-02 
3.290480e-02 3.687212e-02 3.895412e-02 4.914780e-02 5.932608e-02 5.566713e-02 2.747854e-02 3.912146e-02 2.688686e-02 3.413853e-02 2.503576e-02 2.903402e-02 1.848313e-02 2.256697e-02 2.146386e-02 2.234670e-02 2.243227e-02 2.210983e-02 2.268207e-02 2.167561e-02 2.232350e-02 2.040056e-02 2.767543e-02 2.653822e-02 3.099096e-02 2.959597e-02 3.260498e-02 3.118771e-02 3.338955e-02 3.207912e-02 3.375218e-02 3.264605e-02 3.388593e-02 3.305732e-02 3.389697e-02 3.340416e-02 3.386767e-02 3.373976e-02 3.385804e-02 3.408352e-02 3.389158e-02 3.442186e-02 3.397698e-02 3.475690e-02 3.414758e-02 3.511730e-02 3.443370e-02 3.552301e-02 3.483667e-02 3.596938e-02 3.532985e-02 3.644563e-02 3.589434e-02 3.695372e-02 3.649165e-02 3.743176e-02 3.697990e-02 3.769043e-02 3.707167e-02 3.735069e-02 3.662276e-02 3.660990e-02 3.577612e-02 3.560552e-02 3.471060e-02 3.445871e-02 3.357359e-02 3.328630e-02 3.249676e-02 3.222459e-02 3.165175e-02 3.148914e-02 3.128272e-02 3.138388e-02 3.155684e-02 3.172414e-02 3.213826e-02 3.222142e-02 3.276466e-02 3.269344e-02 3.329656e-02 3.308964e-02 3.369771e-02 3.342271e-02 3.396387e-02 3.371662e-02 3.409867e-02 3.399057e-02 3.411209e-02 3.426413e-02 3.403345e-02 3.455114e-02 3.388896e-02 3.483990e-02 3.370764e-02 3.511324e-02 3.353033e-02 3.534546e-02 3.339985e-02 3.550605e-02 3.335577e-02 3.555162e-02 3.342019e-02 3.544405e-02 3.362571e-02 3.518441e-02 3.400508e-02 3.479230e-02 3.456575e-02 3.429423e-02 3.527887e-02 3.372306e-02 3.609508e-02 3.315813e-02 3.698695e-02 3.273876e-02 3.795575e-02 3.268080e-02 3.901639e-02 3.334843e-02 3.997445e-02 3.562309e-02 4.017759e-02 6.975466e-02 5.107291e-02 4.355615e-02 3.474350e-02 3.556655e-02 
9.755272e-03 1.287264e-02 1.769008e-02 2.575053e-02 3.631480e-02 1.523766e-02 2.819880e-02 2.053458e-02 2.345168e-02 2.123069e-02 2.124359e-02 2.168966e-02 1.846132e-02 2.398651e-02 2.176741e-02 2.606024e-02 2.268204e-02 2.656838e-02 2.230925e-02 2.518347e-02 2.043445e-02 2.067803e-02 2.007573e-02 2.121648e-02 2.045586e-02 2.142837e-02 2.103194e-02 2.149431e-02 2.153657e-02 2.145322e-02 2.192911e-02 2.137364e-02 2.221732e-02 2.130142e-02 2.241997e-02 2.126669e-02 2.256086e-02 2.128790e-02 2.266013e-02 2.137151e-02 2.272684e-02 2.150973e-02 2.277050e-02 2.169700e-02 2.281116e-02 2.193484e-02 2.286431e-02 2.221568e-02 2.292992e-02 2.251299e-02 2.299119e-02 2.278869e-02 2.302628e-02 2.300405e-02 2.300497e-02 2.311119e-02 2.290110e-02 2.309518e-02 2.281621e-02 2.316043e-02 2.274145e-02 2.306759e-02 2.258103e-02 2.283127e-02 2.232014e-02 2.249007e-02 2.200026e-02 2.209236e-02 2.167961e-02 2.171004e-02 2.141796e-02 2.141075e-02 2.126140e-02 2.110663e-02 2.113718e-02 2.095123e-02 2.120037e-02 2.095479e-02 2.138339e-02 2.104165e-02 2.160280e-02 2.115863e-02 2.180987e-02 2.128027e-02 2.197946e-02 2.139777e-02 2.209933e-02 2.151059e-02 2.216591e-02 2.162367e-02 2.218504e-02 2.174413e-02 2.215965e-02 2.187255e-02 2.209349e-02 2.200922e-02 2.199354e-02 2.215459e-02 2.186854e-02 2.230966e-02 2.172858e-02 2.247066e-02 2.158306e-02 2.263206e-02 2.144721e-02 2.279850e-02 2.133637e-02 2.297054e-02 2.126151e-02 2.313496e-02 2.122911e-02 2.326979e-02 2.124389e-02 2.336921e-02 2.133463e-02 2.344064e-02 2.158087e-02 2.348735e-02 2.217008e-02 2.342983e-02 2.360086e-02 2.306106e-02 3.061819e-02 3.556377e-02 3.748107e-02 1.675384e-02 1.331345e-02 1.026305e-02 
1.063125e-02 8.598462e-03 9.120018e-03 6.762792e-03 1.001988e-02 2.534318e-02 9.706046e-03 1.458381e-02 3.161350e-03 1.042647e-02 1.489258e-03 1.077147e-02 1.147673e-02 1.767584e-02 2.141199e-02 2.173219e-02 2.298426e-02 2.338616e-02 2.131765e-02 2.093990e-02 1.827885e-02 9.817252e-03 5.173510e-03 2.628590e-03 5.554114e-03 4.674568e-03 7.945969e-03 6.355201e-03 9.216643e-03 7.184192e-03 9.853415e-03 7.648037e-03 1.014482e-02 7.964799e-03 1.023518e-02 8.239149e-03 1.022153e-02 8.524024e-03 1.017000e-02 8.832667e-03 1.010803e-02 9.142172e-03 1.005042e-02 9.447201e-03 1.004231e-02 9.777115e-03 1.013533e-02 1.016504e-02 1.036706e-02 1.063831e-02 1.076706e-02 1.124391e-02 1.139404e-02 1.206391e-02 1.228450e-02 1.308070e-02 1.325106e-02 1.393004e-02 1.343902e-02 1.324810e-02 1.262117e-02 1.213750e-02 1.134642e-02 1.083891e-02 9.994050e-03 9.482274e-03 8.716463e-03 8.162448e-03 7.584449e-03 6.958686e-03 6.756342e-03 6.145747e-03 6.611726e-03 6.639889e-03 7.718646e-03 7.616319e-03 8.926864e-03 8.462514e-03 9.864387e-03 9.026279e-03 1.047908e-02 9.368465e-03 1.084030e-02 9.594296e-03 1.101420e-02 9.782589e-03 1.103999e-02 9.978503e-03 1.094165e-02 1.021049e-02 1.075238e-02 1.049260e-02 1.049742e-02 1.080810e-02 1.020367e-02 1.113296e-02 9.911259e-03 1.143504e-02 9.664990e-03 1.167832e-02 9.509685e-03 1.181404e-02 9.474441e-03 1.179931e-02 9.596831e-03 1.163074e-02 9.909492e-03 1.131974e-02 1.041407e-02 1.087748e-02 1.107180e-02 1.031377e-02 1.181914e-02 9.679011e-03 1.261248e-02 9.078408e-03 1.343642e-02 8.708547e-03 1.430941e-02 9.029280e-03 1.524088e-02 1.183447e-02 2.442923e-02 1.392489e-02 9.984651e-03 4.586860e-03 1.017705e-02 8.720201e-03 
3.010403e-03 1.184552e-03 3.244793e-03 3.492299e-03 3.518982e-03 9.610159e-03 8.303918e-03 6.369432e-03 4.917491e-03 8.684762e-03 9.259044e-03 1.802326e-02 2.402657e-02 2.473112e-02 1.147531e-02 7.310197e-03 2.814514e-03 4.063018e-03 6.936038e-03 1.197423e-02 2.496690e-02 2.458695e-02 1.587810e-02 1.042631e-02 6.450028e-03 4.399240e-03 2.681362e-03 2.231595e-03 1.050922e-03 1.718726e-03 3.397879e-04 1.615782e-03 7.709606e-05 1.501105e-03 1.941184e-04 1.322135e-03 3.108291e-04 1.087513e-03 3.910709e-04 8.155201e-04 4.254682e-04 5.296988e-04 4.018835e-04 2.525263e-04 2.853274e-04 2.634348e-04 7.340121e-05 7.075631e-04 5.065533e-04 1.384820e-03 1.319265e-03 2.374304e-03 2.533345e-03 3.746880e-03 4.098813e-03 5.309012e-03 5.563554e-03 6.587244e-03 6.040968e-03 5.693222e-03 4.976184e-03 4.331773e-03 3.246818e-03 2.841695e-03 2.293989e-03 2.650920e-03 3.392770e-03 4.258738e-03 5.235200e-03 6.191804e-03 6.682011e-03 7.509161e-03 7.309370e-03 6.887775e-03 5.887493e-03 5.247077e-03 3.978473e-03 3.583102e-03 2.339763e-03 2.335021e-03 1.175931e-03 1.500673e-03 4.275154e-04 9.489633e-04 1.013394e-04 5.581439e-04 2.716077e-04 2.689304e-04 3.352561e-04 2.381780e-04 3.211033e-04 5.012931e-04 3.164375e-04 8.103728e-04 3.970125e-04 1.109042e-03 5.309897e-04 1.363319e-03 6.460430e-04 1.538148e-03 6.907070e-04 1.594795e-03 6.430854e-04 1.504209e-03 5.123304e-04 1.269001e-03 4.514805e-04 9.341100e-04 7.611378e-04 6.759190e-04 1.320457e-03 8.959728e-04 1.941209e-03 1.501690e-03 2.488605e-03 2.212433e-03 2.804771e-03 2.932172e-03 2.652604e-03 3.697725e-03 1.607076e-03 5.000174e-03 6.125065e-03 6.467437e-03 2.468470e-03 2.054610e-03 3.250137e-03 4.670687e-04 
