# vtk DataFile Version 2.0
Comment goes here
ASCII

DATASET STRUCTURED_POINTS
FIELD FieldData 1
TIME 1 1 double
0.16000000
DIMENSIONS    128   16   1

ORIGIN    0.000   0.000   0.000
SPACING   0.0078125 0.015625   1.000

POINT_DATA   2048
SCALARS uX double
LOOKUP_TABLE default

-7.627319e-03 -3.149111e-03 -7.035045e-03 -1.630120e-04 -5.952983e-03 4.632662e-03 -9.680803e-03 2.412896e-04 -4.848026e-03 1.730490e-03 1.037851e-03 7.399030e-03 1.298240e-02 2.371706e-02 3.037608e-02 3.056603e-02 3.583297e-02 3.271057e-02 3.390905e-02 2.876495e-02 2.565582e-02 1.132914e-02 8.761655e-03 1.042546e-03 2.041359e-03 -2.979932e-03 -8.091722e-04 -4.448673e-03 -2.068211e-03 -4.905234e-03 -2.711854e-03 -4.871233e-03 -3.057412e-03 -4.696006e-03 -3.355986e-03 -4.419980e-03 -3.478817e-03 -4.104051e-03 -3.677227e-03 -3.982003e-03 -3.922316e-03 -3.918612e-03 -4.091124e-03 -3.882884e-03 -4.156841e-03 -3.784693e-03 -4.066362e-03 -3.693474e-03 -3.897977e-03 -3.587513e-03 -3.723218e-03 -3.598670e-03 -3.602346e-03 -3.609196e-03 -3.477990e-03 -3.804688e-03 -3.215712e-03 -2.064029e-03 -1.013127e-03 -1.794653e-03 -5.324964e-04 -6.201050e-04 -8.299632e-05 -8.889350e-05 -2.467035e-06 -4.035442e-04 -6.786893e-04 -1.351275e-03 -2.222941e-03 -3.061642e-03 -4.502809e-03 -5.301379e-03 -4.275175e-03 -3.220632e-03 -2.690811e-03 -2.800487e-03 -2.642063e-03 -3.200689e-03 -2.814527e-03 -3.512633e-03 -2.816550e-03 -3.736266e-03 -2.741581e-03 -3.816334e-03 -2.628757e-03 -3.829199e-03 -2.522236e-03 -3.780782e-03 -2.574292e-03 -3.701260e-03 -2.667947e-03 -3.542961e-03 -2.838424e-03 -3.253551e-03 -3.078534e-03 -2.961471e-03 -3.370025e-03 -2.603864e-03 -3.650625e-03 -2.224318e-03 -3.919788e-03 -2.017762e-03 -4.236617e-03 -2.003327e-03 -4.440275e-03 -2.034782e-03 -4.308842e-03 -2.197724e-03 -4.001131e-03 -2.623424e-03 -3.508083e-03 -3.170303e-03 -2.749035e-03 -3.897245e-03 -1.937975e-03 -4.814896e-03 -1.218584e-03 -5.763143e-03 -8.883532e-04 -6.487827e-03 -1.334398e-03 -6.568158e-03 -4.379514e-03 -2.789228e-03 -6.051336e-03 -3.731824e-03 -7.270107e-03 -4.222514e-03 
-4.519731e-03 -8.078710e-04 -3.590978e-03 2.125259e-03 -1.563700e-03 8.810639e-03 -7.853369e-03 5.839329e-04 -2.883686e-03 -6.826519e-04 1.077167e-03 -1.004005e-03 6.388756e-03 -8.129537e-04 3.388087e-03 -2.166723e-03 2.583608e-03 -2.364032e-03 2.446056e-03 -1.053595e-03 3.127872e-03 3.085460e-03 1.518420e-03 1.133700e-05 2.622317e-04 -1.390283e-03 -2.080988e-04 -1.996149e-03 -6.875698e-04 -2.448563e-03 -1.129737e-03 -2.439939e-03 -1.353073e-03 -2.424328e-03 -1.653717e-03 -2.069964e-03 -1.555017e-03 -1.802538e-03 -1.979560e-03 -1.997066e-03 -2.418935e-03 -2.045552e-03 -2.557226e-03 -1.963776e-03 -2.530602e-03 -1.756758e-03 -2.382425e-03 -1.730197e-03 -2.230693e-03 -1.658343e-03 -2.207033e-03 -1.882608e-03 -2.061295e-03 -1.484174e-03 -1.106884e-03 -5.965559e-04 6.853068e-04 2.446793e-03 1.280936e-03 -1.264476e-03 -9.136287e-04 -2.166257e-03 -2.764114e-03 -3.181375e-03 -3.951361e-03 -4.261221e-03 -4.790569e-03 -4.841011e-03 -5.645175e-03 -5.243573e-03 -6.282859e-03 -7.004710e-03 -6.264418e-03 -4.607922e-03 -3.959078e-03 -3.081565e-03 -2.591259e-03 -2.324686e-03 -1.840813e-03 -1.985804e-03 -1.435793e-03 -1.993408e-03 -1.163695e-03 -1.905507e-03 -9.887019e-04 -1.946581e-03 -8.655210e-04 -1.890680e-03 -9.242207e-04 -1.780135e-03 -9.504454e-04 -1.593683e-03 -1.043688e-03 -1.179901e-03 -1.199744e-03 -9.086434e-04 -1.591802e-03 -6.592045e-04 -1.943099e-03 -2.558082e-04 -2.143169e-03 1.381993e-05 -2.508819e-03 -6.722159e-05 -2.841304e-03 -1.051845e-04 -2.652765e-03 -1.835673e-04 -2.339695e-03 -6.671331e-04 -1.911183e-03 -1.173973e-03 -1.025880e-03 -1.770530e-03 -9.920336e-05 -2.778915e-03 6.688851e-04 -3.965998e-03 1.031732e-03 -4.980395e-03 1.064835e-03 -5.239116e-03 -1.256260e-03 1.336767e-03 -4.664701e-03 -1.320357e-03 -4.748970e-03 -1.807494e-03 
-9.256165e-03 -6.695538e-03 -7.430697e-03 -2.985977e-03 -1.106128e-03 9.998553e-03 -2.361404e-04 6.730064e-03 -8.389029e-04 3.237468e-03 -3.457991e-03 -2.005889e-03 -1.087854e-02 -1.258982e-02 -1.721502e-02 -1.676366e-02 -1.883662e-02 -1.841176e-02 -1.708051e-02 -1.729768e-02 -1.259656e-02 -1.042805e-02 -2.451811e-03 -3.180037e-03 2.295888e-03 3.111022e-04 4.371776e-03 1.451203e-03 4.776276e-03 1.928239e-03 4.934282e-03 2.605273e-03 5.323765e-03 3.376710e-03 5.559960e-03 4.011301e-03 5.441483e-03 4.084798e-03 4.922727e-03 4.058928e-03 4.417903e-03 3.931790e-03 4.191184e-03 4.128679e-03 4.134136e-03 4.382651e-03 4.337835e-03 4.649180e-03 4.621166e-03 4.763380e-03 4.295703e-03 4.176335e-03 3.969192e-03 4.157927e-03 4.374278e-03 4.461033e-03 3.619285e-03 4.164205e-04 -5.249824e-04 2.430222e-04 -5.619488e-04 -9.548633e-04 -9.679967e-04 -1.543264e-03 -1.308575e-03 -7.973033e-04 -5.373968e-05 1.233072e-03 2.636216e-03 3.584833e-03 5.010203e-03 6.183280e-03 4.456159e-03 3.045031e-03 2.986781e-03 3.191564e-03 3.897662e-03 3.964131e-03 4.832523e-03 4.276322e-03 5.192880e-03 4.294566e-03 5.564062e-03 4.229883e-03 5.543114e-03 3.932770e-03 5.476369e-03 3.895515e-03 5.561212e-03 4.087786e-03 5.536507e-03 4.329452e-03 5.509588e-03 4.630606e-03 5.284346e-03 5.042480e-03 4.961099e-03 5.391693e-03 4.626387e-03 5.717216e-03 4.236825e-03 6.042018e-03 3.820989e-03 6.136082e-03 3.624480e-03 6.138094e-03 3.407186e-03 5.951893e-03 3.663437e-03 5.953456e-03 4.474024e-03 5.785100e-03 5.313638e-03 5.316632e-03 6.093385e-03 4.237223e-03 6.920269e-03 3.064748e-03 7.760105e-03 2.136470e-03 9.165868e-03 1.948275e-03 1.043762e-02 5.954119e-03 -6.687530e-03 -4.679712e-03 -8.996903e-03 -7.131232e-03 
-6.508992e-03 -7.537265e-03 -4.690739e-03 -6.300661e-03 8.597702e-04 -1.199255e-03 1.787133e-02 1.345211e-02 1.256532e-02 1.469460e-02 1.002023e-02 1.500696e-02 7.274340e-03 1.540398e-02 1.042625e-02 1.656861e-02 1.149145e-02 1.649906e-02 1.186158e-02 1.493106e-02 1.129492e-02 1.060195e-02 1.187801e-02 1.198774e-02 1.333571e-02 1.288383e-02 1.374999e-02 1.251844e-02 1.381392e-02 1.261881e-02 1.421357e-02 1.282055e-02 1.474959e-02 1.354164e-02 1.534758e-02 1.353408e-02 1.469213e-02 1.312286e-02 1.467240e-02 1.353992e-02 1.467582e-02 1.346696e-02 1.436887e-02 1.344532e-02 1.398123e-02 1.324072e-02 1.374846e-02 1.343432e-02 1.366446e-02 1.331814e-02 1.314335e-02 1.293281e-02 1.232859e-02 1.180566e-02 1.054499e-02 9.998465e-03 7.725850e-03 6.329569e-03 7.111073e-03 1.038157e-02 9.310342e-03 1.149238e-02 1.149350e-02 1.261199e-02 1.305389e-02 1.409356e-02 1.444166e-02 1.505206e-02 1.526314e-02 1.488995e-02 1.499107e-02 1.603489e-02 1.490438e-02 1.377420e-02 1.355252e-02 1.334143e-02 1.340354e-02 1.339203e-02 1.361224e-02 1.327763e-02 1.362912e-02 1.339085e-02 1.380706e-02 1.314978e-02 1.363976e-02 1.291125e-02 1.343306e-02 1.279913e-02 1.366364e-02 1.289485e-02 1.360800e-02 1.297046e-02 1.359206e-02 1.272432e-02 1.339839e-02 1.299081e-02 1.356756e-02 1.330511e-02 1.361533e-02 1.323389e-02 1.324218e-02 1.331933e-02 1.321601e-02 1.375335e-02 1.350318e-02 1.386964e-02 1.289105e-02 1.370614e-02 1.280996e-02 1.443478e-02 1.336032e-02 1.480219e-02 1.312968e-02 1.474492e-02 1.277112e-02 1.465869e-02 1.272383e-02 1.478966e-02 1.319438e-02 1.494375e-02 1.408331e-02 1.441167e-02 1.705899e-02 3.738831e-03 -1.134247e-03 -4.827555e-03 -5.636883e-03 -7.208489e-03 
-1.804669e-02 -2.161426e-02 -1.904331e-02 -2.514113e-02 -2.304808e-02 -3.737803e-02 -1.432944e-02 -2.500670e-02 -1.601395e-02 -2.041180e-02 -1.390806e-02 -1.614543e-02 -7.447432e-03 -1.129462e-02 -9.724165e-03 -1.075843e-02 -1.057138e-02 -1.043977e-02 -1.109699e-02 -9.823555e-03 -1.133181e-02 -8.130931e-03 -1.635963e-02 -1.414621e-02 -1.891421e-02 -1.715136e-02 -2.021706e-02 -1.851752e-02 -2.031070e-02 -1.894030e-02 -2.013099e-02 -1.952422e-02 -2.022189e-02 -1.991142e-02 -2.015700e-02 -2.055426e-02 -2.041137e-02 -2.076313e-02 -1.984193e-02 -2.038776e-02 -1.927153e-02 -2.017459e-02 -1.918930e-02 -2.030532e-02 -1.929831e-02 -2.053509e-02 -1.949046e-02 -2.040226e-02 -1.946479e-02 -1.998556e-02 -1.857236e-02 -1.837807e-02 -1.710474e-02 -1.687482e-02 -1.574203e-02 -1.455560e-02 -1.166407e-02 -7.015228e-03 -9.405237e-03 -1.220885e-02 -1.204001e-02 -1.427093e-02 -1.555022e-02 -1.612556e-02 -1.749646e-02 -1.847849e-02 -1.957391e-02 -2.083938e-02 -2.219149e-02 -2.251915e-02 -2.237367e-02 -2.487958e-02 -2.213236e-02 -2.030571e-02 -1.939598e-02 -1.995919e-02 -1.999172e-02 -2.052561e-02 -2.068725e-02 -2.085171e-02 -2.097611e-02 -2.081059e-02 -2.126175e-02 -2.090383e-02 -2.131126e-02 -2.072057e-02 -2.134520e-02 -2.075325e-02 -2.133141e-02 -2.092234e-02 -2.137245e-02 -2.114050e-02 -2.140941e-02 -2.158317e-02 -2.132037e-02 -2.183373e-02 -2.090609e-02 -2.195756e-02 -2.054676e-02 -2.227610e-02 -2.036500e-02 -2.252310e-02 -1.994734e-02 -2.232615e-02 -1.958673e-02 -2.223235e-02 -1.967817e-02 -2.211289e-02 -1.998628e-02 -2.174872e-02 -2.055194e-02 -2.144215e-02 -2.158873e-02 -2.109130e-02 -2.265264e-02 -2.009691e-02 -2.364009e-02 -1.892804e-02 -2.447889e-02 -1.817691e-02 -2.609357e-02 -1.908255e-02 -2.703118e-02 -3.030323e-02 -1.769619e-02 -2.247632e-02 -1.772547e-02 -2.098157e-02 
-1.827168e-02 -1.994986e-02 -2.001972e-02 -2.259125e-02 -2.542375e-02 -3.193267e-02 -3.312326e-02 -3.531278e-02 -3.034948e-02 -3.285001e-02 -2.812857e-02 -2.976819e-02 -2.449948e-02 -2.504545e-02 -2.458245e-02 -2.491630e-02 -2.477246e-02 -2.473870e-02 -2.493815e-02 -2.457134e-02 -2.503197e-02 -2.448848e-02 -2.983432e-02 -2.880059e-02 -3.230100e-02 -3.086171e-02 -3.324363e-02 -3.123200e-02 -3.330769e-02 -3.148954e-02 -3.345314e-02 -3.190783e-02 -3.381910e-02 -3.261318e-02 -3.416521e-02 -3.294023e-02 -3.378648e-02 -3.276311e-02 -3.345065e-02 -3.286724e-02 -3.313192e-02 -3.269843e-02 -3.284771e-02 -3.273176e-02 -3.260960e-02 -3.266069e-02 -3.249833e-02 -3.263912e-02 -3.233068e-02 -3.217736e-02 -3.135488e-02 -3.084807e-02 -2.979400e-02 -2.891401e-02 -2.748293e-02 -2.613901e-02 -2.420651e-02 -2.286994e-02 -2.422376e-02 -2.494904e-02 -2.381534e-02 -2.546856e-02 -2.484259e-02 -2.544000e-02 -2.611301e-02 -2.654363e-02 -2.777709e-02 -2.839475e-02 -2.918027e-02 -2.999491e-02 -2.966184e-02 -3.088469e-02 -3.081924e-02 -3.060970e-02 -3.065450e-02 -3.111775e-02 -3.159966e-02 -3.200141e-02 -3.260328e-02 -3.245259e-02 -3.309419e-02 -3.273972e-02 -3.357246e-02 -3.275026e-02 -3.361344e-02 -3.257626e-02 -3.356504e-02 -3.256967e-02 -3.376706e-02 -3.277071e-02 -3.377414e-02 -3.298670e-02 -3.378823e-02 -3.308635e-02 -3.359099e-02 -3.344635e-02 -3.346754e-02 -3.376974e-02 -3.327227e-02 -3.391086e-02 -3.286603e-02 -3.411278e-02 -3.259366e-02 -3.432478e-02 -3.258756e-02 -3.434428e-02 -3.220346e-02 -3.413374e-02 -3.233801e-02 -3.440809e-02 -3.308249e-02 -3.443580e-02 -3.354708e-02 -3.412821e-02 -3.396189e-02 -3.348416e-02 -3.456041e-02 -3.295082e-02 -3.544504e-02 -3.277242e-02 -3.693997e-02 -3.306773e-02 -3.921090e-02 -3.088179e-02 -2.121415e-02 -2.162541e-02 -1.853108e-02 -1.962910e-02 
-2.409413e-02 -2.574006e-02 -2.488297e-02 -2.688026e-02 -2.686150e-02 -2.906745e-02 -3.317596e-02 -3.453149e-02 -3.213203e-02 -3.509158e-02 -3.276777e-02 -3.540776e-02 -3.470792e-02 -3.530768e-02 -3.478667e-02 -3.516110e-02 -3.501265e-02 -3.496787e-02 -3.522146e-02 -3.477581e-02 -3.532840e-02 -3.470169e-02 -3.499294e-02 -3.380699e-02 -3.488593e-02 -3.349713e-02 -3.471325e-02 -3.313407e-02 -3.454832e-02 -3.311132e-02 -3.455183e-02 -3.323006e-02 -3.463599e-02 -3.358927e-02 -3.475551e-02 -3.371061e-02 -3.443148e-02 -3.366843e-02 -3.429688e-02 -3.386196e-02 -3.416798e-02 -3.387958e-02 -3.396839e-02 -3.391509e-02 -3.379140e-02 -3.389150e-02 -3.370639e-02 -3.399977e-02 -3.372102e-02 -3.405208e-02 -3.376215e-02 -3.427922e-02 -3.417072e-02 -3.489850e-02 -3.520802e-02 -3.661838e-02 -3.842091e-02 -4.159968e-02 -3.882102e-02 -3.748040e-02 -3.763119e-02 -3.627497e-02 -3.459037e-02 -3.434393e-02 -3.246622e-02 -3.201503e-02 -3.047926e-02 -3.003417e-02 -2.788486e-02 -2.803817e-02 -2.636424e-02 -2.420628e-02 -2.575520e-02 -2.898998e-02 -3.015492e-02 -3.141689e-02 -3.183873e-02 -3.251644e-02 -3.285105e-02 -3.308831e-02 -3.346427e-02 -3.348827e-02 -3.391070e-02 -3.361510e-02 -3.410114e-02 -3.366716e-02 -3.417648e-02 -3.373207e-02 -3.433154e-02 -3.387614e-02 -3.434635e-02 -3.403940e-02 -3.432719e-02 -3.411075e-02 -3.420053e-02 -3.435674e-02 -3.415196e-02 -3.461215e-02 -3.403466e-02 -3.471685e-02 -3.377023e-02 -3.483785e-02 -3.364123e-02 -3.503129e-02 -3.366251e-02 -3.506489e-02 -3.346746e-02 -3.495916e-02 -3.355009e-02 -3.509628e-02 -3.393760e-02 -3.504668e-02 -3.412603e-02 -3.477289e-02 -3.427920e-02 -3.442573e-02 -3.447356e-02 -3.413505e-02 -3.468174e-02 -3.389692e-02 -3.457890e-02 -3.334891e-02 -3.410895e-02 -2.896701e-02 -2.678245e-02 -2.641235e-02 -2.463248e-02 -2.551765e-02 
-2.313963e-02 -2.403227e-02 -2.412690e-02 -2.555036e-02 -2.629288e-02 -2.798912e-02 -2.931265e-02 -3.103187e-02 -3.175665e-02 -3.347341e-02 -3.538886e-02 -3.654329e-02 -4.158687e-02 -4.187958e-02 -4.168525e-02 -4.184972e-02 -4.177962e-02 -4.177611e-02 -4.185100e-02 -4.168419e-02 -4.187310e-02 -4.158210e-02 -3.603152e-02 -3.555276e-02 -3.374341e-02 -3.297117e-02 -3.273725e-02 -3.159707e-02 -3.219487e-02 -3.090091e-02 -3.191693e-02 -3.061691e-02 -3.179155e-02 -3.058558e-02 -3.170564e-02 -3.061080e-02 -3.153750e-02 -3.062560e-02 -3.136350e-02 -3.067691e-02 -3.119271e-02 -3.070958e-02 -3.103797e-02 -3.075814e-02 -3.092116e-02 -3.080948e-02 -3.086471e-02 -3.088995e-02 -3.087481e-02 -3.100150e-02 -3.098082e-02 -3.126908e-02 -3.140863e-02 -3.196696e-02 -3.238616e-02 -3.324413e-02 -3.411577e-02 -3.555576e-02 -3.409144e-02 -3.376297e-02 -3.429826e-02 -3.339745e-02 -3.345801e-02 -3.347767e-02 -3.270567e-02 -3.308528e-02 -3.215786e-02 -3.242075e-02 -3.159390e-02 -3.123027e-02 -3.088746e-02 -3.016403e-02 -3.012937e-02 -3.082270e-02 -3.113997e-02 -3.113966e-02 -3.119342e-02 -3.093581e-02 -3.115099e-02 -3.077444e-02 -3.119825e-02 -3.070858e-02 -3.129912e-02 -3.066278e-02 -3.136336e-02 -3.063065e-02 -3.139427e-02 -3.064414e-02 -3.142178e-02 -3.071921e-02 -3.140531e-02 -3.083924e-02 -3.135461e-02 -3.098365e-02 -3.125649e-02 -3.118205e-02 -3.114289e-02 -3.138908e-02 -3.100014e-02 -3.155784e-02 -3.082467e-02 -3.169880e-02 -3.068128e-02 -3.180262e-02 -3.060213e-02 -3.183411e-02 -3.055652e-02 -3.179810e-02 -3.064701e-02 -3.175028e-02 -3.087036e-02 -3.159676e-02 -3.109607e-02 -3.129865e-02 -3.128937e-02 -3.086189e-02 -3.140429e-02 -3.031482e-02 -3.131298e-02 -2.960840e-02 -3.072298e-02 -2.850980e-02 -2.909002e-02 -2.657627e-02 -2.546284e-02 -2.458651e-02 -2.353893e-02 -2.369624e-02 
-2.614663e-02 -2.720376e-02 -2.679164e-02 -2.824912e-02 -2.853307e-02 -3.014268e-02 -3.133411e-02 -3.301329e-02 -3.370421e-02 -3.558909e-02 -3.724023e-02 -3.859421e-02 -4.333619e-02 -4.369006e-02 -4.343092e-02 -4.363432e-02 -4.355776e-02 -4.352715e-02 -4.367051e-02 -4.341021e-02 -4.372108e-02 -4.330932e-02 -3.778528e-02 -3.723307e-02 -3.557692e-02 -3.478234e-02 -3.468447e-02 -3.361375e-02 -3.425637e-02 -3.307879e-02 -3.404370e-02 -3.289245e-02 -3.393977e-02 -3.290634e-02 -3.387329e-02 -3.299221e-02 -3.378006e-02 -3.309752e-02 -3.369062e-02 -3.323070e-02 -3.361617e-02 -3.336773e-02 -3.356442e-02 -3.351701e-02 -3.355732e-02 -3.368459e-02 -3.361310e-02 -3.390030e-02 -3.376775e-02 -3.419992e-02 -3.406082e-02 -3.464799e-02 -3.455379e-02 -3.528396e-02 -3.517215e-02 -3.587721e-02 -3.551777e-02 -3.636656e-02 -3.577353e-02 -3.572537e-02 -3.505179e-02 -3.510165e-02 -3.470886e-02 -3.509072e-02 -3.454316e-02 -3.530716e-02 -3.483138e-02 -3.570591e-02 -3.559868e-02 -3.624834e-02 -3.654398e-02 -3.750977e-02 -3.680631e-02 -3.630258e-02 -3.547493e-02 -3.512318e-02 -3.456406e-02 -3.430181e-02 -3.404317e-02 -3.381376e-02 -3.381527e-02 -3.355828e-02 -3.374539e-02 -3.341738e-02 -3.372410e-02 -3.333748e-02 -3.370175e-02 -3.330542e-02 -3.367800e-02 -3.332963e-02 -3.363578e-02 -3.340638e-02 -3.357703e-02 -3.352122e-02 -3.349824e-02 -3.368029e-02 -3.340917e-02 -3.385348e-02 -3.330122e-02 -3.400241e-02 -3.317294e-02 -3.412280e-02 -3.306223e-02 -3.420837e-02 -3.299017e-02 -3.424025e-02 -3.296001e-02 -3.422317e-02 -3.300951e-02 -3.416359e-02 -3.312275e-02 -3.401853e-02 -3.324002e-02 -3.377759e-02 -3.332612e-02 -3.344045e-02 -3.331445e-02 -3.297537e-02 -3.307760e-02 -3.228164e-02 -3.239097e-02 -3.111355e-02 -3.092646e-02 -2.915684e-02 -2.826446e-02 -2.765509e-02 -2.662246e-02 -2.700009e-02 
-2.314098e-02 -2.403141e-02 -2.412627e-02 -2.554798e-02 -2.629169e-02 -2.798592e-02 -2.931218e-02 -3.102911e-02 -3.176312e-02 -3.347261e-02 -3.539035e-02 -3.652885e-02 -4.158232e-02 -4.187682e-02 -4.167984e-02 -4.185243e-02 -4.177941e-02 -4.178715e-02 -4.185676e-02 -4.169988e-02 -4.188187e-02 -4.159674e-02 -3.606694e-02 -3.554976e-02 -3.371505e-02 -3.290791e-02 -3.269119e-02 -3.156841e-02 -3.217933e-02 -3.088560e-02 -3.190253e-02 -3.059324e-02 -3.175492e-02 -3.053502e-02 -3.165349e-02 -3.058527e-02 -3.155827e-02 -3.069190e-02 -3.146709e-02 -3.081969e-02 -3.138239e-02 -3.095144e-02 -3.131968e-02 -3.109095e-02 -3.131164e-02 -3.125517e-02 -3.136321e-02 -3.145899e-02 -3.152409e-02 -3.175567e-02 -3.181631e-02 -3.215578e-02 -3.224301e-02 -3.267849e-02 -3.277800e-02 -3.323706e-02 -3.325838e-02 -3.369696e-02 -3.358813e-02 -3.387569e-02 -3.386329e-02 -3.401543e-02 -3.389090e-02 -3.406374e-02 -3.373286e-02 -3.391451e-02 -3.347307e-02 -3.360322e-02 -3.318447e-02 -3.323255e-02 -3.300613e-02 -3.300906e-02 -3.281486e-02 -3.277697e-02 -3.263908e-02 -3.239139e-02 -3.230485e-02 -3.190058e-02 -3.198606e-02 -3.148259e-02 -3.179733e-02 -3.120115e-02 -3.171612e-02 -3.102816e-02 -3.168645e-02 -3.091588e-02 -3.163663e-02 -3.083701e-02 -3.155858e-02 -3.081607e-02 -3.147083e-02 -3.087782e-02 -3.137752e-02 -3.100542e-02 -3.127095e-02 -3.119215e-02 -3.116670e-02 -3.142489e-02 -3.105420e-02 -3.162944e-02 -3.090044e-02 -3.176479e-02 -3.073772e-02 -3.183709e-02 -3.061863e-02 -3.186307e-02 -3.059961e-02 -3.184318e-02 -3.067537e-02 -3.173703e-02 -3.081664e-02 -3.152549e-02 -3.101381e-02 -3.121866e-02 -3.123093e-02 -3.082707e-02 -3.138809e-02 -3.031276e-02 -3.131552e-02 -2.961138e-02 -3.073660e-02 -2.853652e-02 -2.911285e-02 -2.659433e-02 -2.547641e-02 -2.459495e-02 -2.354469e-02 -2.369853e-02 
-2.409551e-02 -2.573949e-02 -2.488310e-02 -2.687951e-02 -2.686045e-02 -2.906530e-02 -3.316888e-02 -3.453313e-02 -3.217899e-02 -3.512429e-02 -3.277636e-02 -3.534065e-02 -3.467014e-02 -3.529476e-02 -3.477367e-02 -3.516769e-02 -3.501377e-02 -3.498001e-02 -3.522262e-02 -3.479032e-02 -3.533898e-02 -3.473772e-02 -3.515004e-02 -3.382554e-02 -3.478661e-02 -3.334167e-02 -3.466242e-02 -3.317670e-02 -3.458297e-02 -3.310163e-02 -3.453080e-02 -3.320009e-02 -3.453459e-02 -3.339161e-02 -3.454851e-02 -3.365790e-02 -3.456940e-02 -3.387866e-02 -3.448292e-02 -3.404825e-02 -3.443495e-02 -3.427161e-02 -3.444574e-02 -3.451211e-02 -3.454039e-02 -3.475647e-02 -3.460133e-02 -3.494566e-02 -3.474809e-02 -3.523296e-02 -3.499849e-02 -3.554550e-02 -3.530357e-02 -3.589568e-02 -3.554844e-02 -3.604019e-02 -3.561028e-02 -3.612785e-02 -3.570269e-02 -3.620038e-02 -3.580641e-02 -3.632349e-02 -3.587284e-02 -3.636918e-02 -3.587899e-02 -3.646322e-02 -3.600200e-02 -3.660315e-02 -3.621105e-02 -3.678745e-02 -3.644862e-02 -3.693393e-02 -3.651920e-02 -3.674877e-02 -3.627882e-02 -3.625279e-02 -3.583182e-02 -3.565009e-02 -3.536315e-02 -3.506989e-02 -3.504239e-02 -3.467990e-02 -3.488820e-02 -3.446563e-02 -3.483411e-02 -3.429064e-02 -3.470418e-02 -3.411989e-02 -3.456459e-02 -3.403591e-02 -3.445428e-02 -3.408183e-02 -3.436805e-02 -3.421549e-02 -3.429671e-02 -3.440857e-02 -3.419984e-02 -3.465329e-02 -3.410552e-02 -3.486496e-02 -3.396030e-02 -3.501087e-02 -3.378190e-02 -3.506473e-02 -3.360233e-02 -3.507688e-02 -3.358486e-02 -3.512251e-02 -3.366426e-02 -3.503717e-02 -3.374212e-02 -3.483611e-02 -3.392907e-02 -3.462514e-02 -3.421403e-02 -3.441622e-02 -3.449832e-02 -3.414953e-02 -3.466020e-02 -3.386974e-02 -3.460227e-02 -3.343275e-02 -3.417188e-02 -2.900189e-02 -2.680581e-02 -2.642335e-02 -2.463951e-02 -2.551944e-02 
-1.826589e-02 -1.994086e-02 -2.001236e-02 -2.258169e-02 -2.541596e-02 -3.192099e-02 -3.311050e-02 -3.530529e-02 -3.039376e-02 -3.288374e-02 -2.813790e-02 -2.966251e-02 -2.444214e-02 -2.502087e-02 -2.454752e-02 -2.491680e-02 -2.477018e-02 -2.478626e-02 -2.496677e-02 -2.464208e-02 -2.506514e-02 -2.462852e-02 -3.022824e-02 -2.895303e-02 -3.209397e-02 -3.034411e-02 -3.288531e-02 -3.116319e-02 -3.334477e-02 -3.154366e-02 -3.350790e-02 -3.189209e-02 -3.369808e-02 -3.234140e-02 -3.374514e-02 -3.258374e-02 -3.369702e-02 -3.292618e-02 -3.372764e-02 -3.321942e-02 -3.366508e-02 -3.339534e-02 -3.353619e-02 -3.349970e-02 -3.355962e-02 -3.365960e-02 -3.351853e-02 -3.376208e-02 -3.372492e-02 -3.415238e-02 -3.415664e-02 -3.453102e-02 -3.450752e-02 -3.483870e-02 -3.469790e-02 -3.477788e-02 -3.458840e-02 -3.476613e-02 -3.474272e-02 -3.512671e-02 -3.536719e-02 -3.584991e-02 -3.578577e-02 -3.598623e-02 -3.567167e-02 -3.580045e-02 -3.537684e-02 -3.550554e-02 -3.500697e-02 -3.515127e-02 -3.486404e-02 -3.515086e-02 -3.506469e-02 -3.535324e-02 -3.515499e-02 -3.494661e-02 -3.470077e-02 -3.424689e-02 -3.417070e-02 -3.362367e-02 -3.399404e-02 -3.332814e-02 -3.400583e-02 -3.324110e-02 -3.419107e-02 -3.320959e-02 -3.415713e-02 -3.299419e-02 -3.393023e-02 -3.280414e-02 -3.376296e-02 -3.288596e-02 -3.366261e-02 -3.302665e-02 -3.346214e-02 -3.325920e-02 -3.341593e-02 -3.383091e-02 -3.346784e-02 -3.425342e-02 -3.319679e-02 -3.435140e-02 -3.279209e-02 -3.433209e-02 -3.243307e-02 -3.436892e-02 -3.245699e-02 -3.448884e-02 -3.263034e-02 -3.438869e-02 -3.277335e-02 -3.407129e-02 -3.311086e-02 -3.365972e-02 -3.367648e-02 -3.338686e-02 -3.455967e-02 -3.304009e-02 -3.550350e-02 -3.272898e-02 -3.697759e-02 -3.323361e-02 -3.932764e-02 -3.093416e-02 -2.124571e-02 -2.163505e-02 -1.853420e-02 -1.962379e-02 
-1.803181e-02 -2.160448e-02 -1.904372e-02 -2.514606e-02 -2.306791e-02 -3.740181e-02 -1.437916e-02 -2.504119e-02 -1.596654e-02 -2.041356e-02 -1.396766e-02 -1.630095e-02 -7.577323e-03 -1.137285e-02 -9.866262e-03 -1.091470e-02 -1.066371e-02 -1.046427e-02 -1.104412e-02 -9.794597e-03 -1.139334e-02 -8.310201e-03 -1.649581e-02 -1.436814e-02 -1.885838e-02 -1.673114e-02 -1.962804e-02 -1.816234e-02 -2.021713e-02 -1.917095e-02 -2.045316e-02 -1.982568e-02 -2.063615e-02 -2.048180e-02 -2.052305e-02 -2.049343e-02 -2.019696e-02 -2.088365e-02 -2.048597e-02 -2.135231e-02 -2.045008e-02 -2.126627e-02 -2.007165e-02 -2.090779e-02 -1.977232e-02 -2.069170e-02 -1.974921e-02 -2.076588e-02 -2.016361e-02 -2.116750e-02 -2.081823e-02 -2.152874e-02 -2.115497e-02 -2.151484e-02 -2.126741e-02 -2.136451e-02 -2.119220e-02 -2.115997e-02 -2.118026e-02 -2.127368e-02 -2.167552e-02 -2.194584e-02 -2.213325e-02 -2.224585e-02 -2.211213e-02 -2.206556e-02 -2.167702e-02 -2.175601e-02 -2.116117e-02 -2.136591e-02 -2.107799e-02 -2.174169e-02 -2.164570e-02 -2.231215e-02 -2.188495e-02 -2.198871e-02 -2.137244e-02 -2.126902e-02 -2.090776e-02 -2.087052e-02 -2.093512e-02 -2.077190e-02 -2.105845e-02 -2.075980e-02 -2.134164e-02 -2.096427e-02 -2.157029e-02 -2.097594e-02 -2.141994e-02 -2.084452e-02 -2.120126e-02 -2.089105e-02 -2.097086e-02 -2.090051e-02 -2.049284e-02 -2.106085e-02 -2.045441e-02 -2.178690e-02 -2.058110e-02 -2.230514e-02 -2.023022e-02 -2.227879e-02 -1.976158e-02 -2.220857e-02 -1.955010e-02 -2.224443e-02 -1.968033e-02 -2.210181e-02 -2.000307e-02 -2.182284e-02 -2.053493e-02 -2.130462e-02 -2.117843e-02 -2.039296e-02 -2.195590e-02 -1.957962e-02 -2.321866e-02 -1.879484e-02 -2.449886e-02 -1.807635e-02 -2.598501e-02 -1.899351e-02 -2.695641e-02 -3.023409e-02 -1.764475e-02 -2.243436e-02 -1.769480e-02 -2.095730e-02 
-6.466566e-03 -7.507631e-03 -4.672555e-03 -6.291204e-03 8.574849e-04 -1.209650e-03 1.784221e-02 1.344274e-02 1.268737e-02 1.477388e-02 1.002333e-02 1.480319e-02 7.145756e-03 1.540939e-02 1.050840e-02 1.675496e-02 1.170529e-02 1.677669e-02 1.205388e-02 1.513068e-02 1.142874e-02 1.091923e-02 1.243591e-02 1.219126e-02 1.314270e-02 1.251233e-02 1.367233e-02 1.267785e-02 1.389655e-02 1.246917e-02 1.395109e-02 1.243664e-02 1.410012e-02 1.255638e-02 1.427091e-02 1.283851e-02 1.445565e-02 1.301111e-02 1.432090e-02 1.307226e-02 1.427504e-02 1.337533e-02 1.437133e-02 1.377785e-02 1.460069e-02 1.413167e-02 1.447673e-02 1.413531e-02 1.431390e-02 1.424473e-02 1.422451e-02 1.429571e-02 1.417666e-02 1.444691e-02 1.401198e-02 1.412584e-02 1.352994e-02 1.390319e-02 1.340691e-02 1.402262e-02 1.364263e-02 1.433649e-02 1.373260e-02 1.419949e-02 1.359010e-02 1.414218e-02 1.369212e-02 1.422340e-02 1.388857e-02 1.436520e-02 1.411264e-02 1.442488e-02 1.430145e-02 1.456580e-02 1.448216e-02 1.443058e-02 1.439822e-02 1.416653e-02 1.416172e-02 1.377114e-02 1.404254e-02 1.358513e-02 1.406828e-02 1.358311e-02 1.418975e-02 1.346842e-02 1.401920e-02 1.319807e-02 1.383979e-02 1.304718e-02 1.381181e-02 1.314686e-02 1.390280e-02 1.333092e-02 1.402059e-02 1.350434e-02 1.404430e-02 1.374386e-02 1.408768e-02 1.391255e-02 1.400140e-02 1.401315e-02 1.379680e-02 1.400251e-02 1.345170e-02 1.402913e-02 1.337631e-02 1.433530e-02 1.333228e-02 1.446760e-02 1.305480e-02 1.450620e-02 1.293937e-02 1.471677e-02 1.301878e-02 1.504665e-02 1.318259e-02 1.516354e-02 1.340732e-02 1.508319e-02 1.432899e-02 1.482119e-02 1.737508e-02 3.952416e-03 -9.770665e-04 -4.716354e-03 -5.554818e-03 -7.149595e-03 
-9.226656e-03 -6.675432e-03 -7.414442e-03 -2.977046e-03 -1.094798e-03 1.000193e-02 -2.204207e-04 6.732325e-03 -8.422627e-04 3.240242e-03 -3.444695e-03 -2.026269e-03 -1.088977e-02 -1.258939e-02 -1.710429e-02 -1.658824e-02 -1.870199e-02 -1.834186e-02 -1.709775e-02 -1.729490e-02 -1.247055e-02 -1.013334e-02 -2.051053e-03 -2.904687e-03 2.159895e-03 -2.496587e-04 3.817741e-03 1.179719e-03 4.682518e-03 1.957855e-03 4.963139e-03 2.516332e-03 5.177120e-03 3.177602e-03 5.128465e-03 3.394964e-03 4.901702e-03 3.888517e-03 5.027896e-03 4.381934e-03 4.920206e-03 4.524479e-03 4.614531e-03 4.489401e-03 4.457540e-03 4.539284e-03 4.364117e-03 4.636044e-03 4.617159e-03 5.040026e-03 5.114659e-03 5.379734e-03 5.396025e-03 5.496955e-03 5.516858e-03 5.377411e-03 5.476755e-03 5.494761e-03 5.895937e-03 6.018194e-03 6.774446e-03 7.069732e-03 7.381625e-03 7.385261e-03 7.283094e-03 7.108189e-03 6.771092e-03 6.634698e-03 6.109062e-03 6.013700e-03 5.776199e-03 5.967218e-03 6.152876e-03 6.412661e-03 6.368715e-03 5.927575e-03 5.818270e-03 5.077395e-03 5.309474e-03 4.508375e-03 5.331925e-03 4.328522e-03 5.517089e-03 4.326067e-03 5.872977e-03 4.454414e-03 6.018861e-03 4.349719e-03 5.813654e-03 4.199891e-03 5.616648e-03 4.350537e-03 5.456466e-03 4.531963e-03 5.077958e-03 4.837047e-03 5.005485e-03 5.653426e-03 5.068588e-03 6.250445e-03 4.656737e-03 6.327034e-03 4.084996e-03 6.284229e-03 3.682728e-03 6.333359e-03 3.747570e-03 6.343243e-03 4.025999e-03 6.116450e-03 4.398487e-03 5.611160e-03 4.972767e-03 4.818351e-03 5.747566e-03 4.114473e-03 6.918475e-03 3.259109e-03 8.000623e-03 2.230776e-03 9.294341e-03 2.169029e-03 1.061186e-02 6.076055e-03 -6.592374e-03 -4.609117e-03 -8.943183e-03 -7.092339e-03 
-4.501967e-03 -7.934992e-04 -3.575915e-03 2.137239e-03 -1.544696e-03 8.826308e-03 -7.817015e-03 5.996133e-04 -2.921430e-03 -7.067154e-04 1.109530e-03 -9.039635e-04 6.486525e-03 -7.783433e-04 3.356880e-03 -2.222253e-03 2.505892e-03 -2.424159e-03 2.435731e-03 -1.011316e-03 3.185105e-03 3.088557e-03 1.513253e-03 6.515405e-05 2.973599e-04 -1.521635e-03 -4.722851e-04 -2.240127e-03 -8.116739e-04 -2.420362e-03 -1.069856e-03 -2.407839e-03 -1.248419e-03 -2.199162e-03 -1.510737e-03 -2.183236e-03 -1.828912e-03 -1.925290e-03 -1.820296e-03 -1.632498e-03 -1.975256e-03 -1.642607e-03 -2.256857e-03 -1.779498e-03 -2.464726e-03 -1.831356e-03 -2.413437e-03 -1.689955e-03 -2.108604e-03 -1.418278e-03 -1.667623e-03 -1.142613e-03 -1.306224e-03 -9.708964e-04 -9.205328e-04 -7.303290e-04 -5.874745e-04 -3.914111e-04 3.169812e-05 -2.596324e-05 4.893051e-04 4.680913e-04 6.998461e-04 7.368792e-04 7.151488e-04 7.686855e-04 6.262141e-04 8.891534e-04 6.436421e-04 9.967619e-04 7.831702e-04 1.152924e-03 1.071301e-03 1.229876e-03 6.975029e-04 3.043041e-04 -2.272331e-04 -7.498338e-04 -8.375463e-04 -1.330326e-03 -9.674965e-04 -1.605642e-03 -9.335625e-04 -1.745741e-03 -8.019327e-04 -1.701362e-03 -6.491078e-04 -1.662161e-03 -7.169935e-04 -1.652417e-03 -8.715569e-04 -1.534568e-03 -1.083636e-03 -1.373933e-03 -1.454103e-03 -1.107409e-03 -1.642435e-03 -5.758046e-04 -1.780906e-03 -1.397429e-04 -2.127916e-03 -1.917549e-05 -2.514698e-03 7.282368e-06 -2.687608e-03 1.612891e-05 -2.613456e-03 -1.946733e-04 -2.327244e-03 -5.518088e-04 -1.776538e-03 -1.105735e-03 -1.090789e-03 -1.986578e-03 -3.474582e-04 -2.967101e-03 5.217079e-04 -3.969360e-03 1.128184e-03 -4.926019e-03 1.084568e-03 -5.246746e-03 -1.251840e-03 1.357888e-03 -4.640306e-03 -1.294466e-03 -4.725867e-03 -1.787411e-03 
