# vtk DataFile Version 2.0
Comment goes here
ASCII

DATASET STRUCTURED_POINTS
FIELD FieldData 1
TIME 1 1 double
0.14000000
DIMENSIONS    128   16   1

ORIGIN    0.000   0.000   0.000
SPACING   0.0078125 0.015625   1.000

POINT_DATA   2048
SCALARS uX double
LOOKUP_TABLE default

5.752082e-04 1.458452e-03 -3.147602e-04 1.597301e-03 -1.050776e-03 4.581072e-03 2.774376e-03 -8.339487e-04 1.521127e-03 -3.852674e-03 -2.926845e-03 -9.830644e-03 -1.282721e-02 -2.117557e-02 -2.455951e-02 -2.836708e-02 -2.717424e-02 -2.924606e-02 -2.595823e-02 -2.484728e-02 -2.025456e-02 -1.336231e-02 -8.234564e-03 -4.642096e-03 -2.044020e-03 -6.991592e-04 5.833522e-04 1.145313e-03 1.575641e-03 2.021555e-03 1.922938e-03 2.560566e-03 1.974285e-03 2.717259e-03 1.743764e-03 2.763190e-03 1.698636e-03 2.894026e-03 1.722687e-03 2.865971e-03 1.749631e-03 2.756597e-03 1.724825e-03 2.463441e-03 1.694029e-03 2.243184e-03 1.868856e-03 2.094170e-03 1.936141e-03 1.817262e-03 1.986796e-03 1.542406e-03 1.765665e-03 7.721288e-04 6.167449e-04 -1.344966e-03 -2.767081e-03 -4.223438e-03 1.483185e-04 1.524712e-03 3.676769e-03 4.732626e-03 6.074582e-03 6.516677e-03 7.131824e-03 7.088423e-03 6.947260e-03 6.509518e-03 5.587649e-03 4.695535e-03 2.668633e-03 3.146395e-03 3.029008e-03 3.713685e-03 2.642787e-03 3.078543e-03 1.784764e-03 2.291290e-03 1.359386e-03 1.952820e-03 1.269423e-03 1.630514e-03 1.423010e-03 1.520251e-03 1.645179e-03 1.202688e-03 1.771813e-03 8.133036e-04 1.750298e-03 4.228030e-04 1.913087e-03 3.078607e-04 2.000188e-03 2.174422e-04 1.995105e-03 2.066818e-04 1.860520e-03 3.990459e-04 1.604031e-03 5.562572e-04 1.166676e-03 9.298264e-04 7.153851e-04 1.421943e-03 2.837781e-04 1.922716e-03 -1.574950e-04 2.443234e-03 -5.098450e-04 2.737798e-03 -7.371501e-04 2.858649e-03 -7.632161e-04 2.775466e-03 -4.311394e-04 2.427465e-03 2.582138e-04 1.824164e-03 1.245846e-03 1.089546e-03 2.619205e-03 4.582559e-04 4.236103e-03 -1.463477e-03 5.408408e-04 -4.471354e-04 6.191820e-04 8.883903e-04 
-1.368195e-03 -4.749331e-04 -2.374054e-03 -6.252489e-04 -4.407728e-03 3.040044e-03 1.787677e-03 -2.613907e-03 2.487159e-03 -2.978591e-03 2.208971e-03 -2.864211e-03 2.285652e-03 -1.374218e-03 3.697160e-03 9.386127e-04 3.374013e-03 1.780310e-03 2.474526e-03 2.010625e-03 4.357333e-04 9.675320e-04 -1.018304e-03 -2.031750e-04 -9.410354e-04 -2.290739e-04 -5.697805e-04 -1.082009e-04 -6.951257e-04 -8.544413e-05 -6.688001e-04 1.839229e-04 -8.957315e-04 -2.158732e-04 -1.599647e-03 -3.674459e-04 -1.491629e-03 -9.163865e-05 -1.438335e-03 -2.243783e-04 -1.426899e-03 -3.442574e-04 -1.545812e-03 -8.198740e-04 -1.614418e-03 -8.519631e-04 -1.153342e-03 -9.660322e-04 -1.398661e-03 -1.580766e-03 -1.508493e-03 -1.953906e-03 -1.930609e-03 -3.033708e-03 -3.569509e-03 -5.819165e-03 -7.907756e-03 -9.868178e-03 -6.146336e-03 -6.499815e-03 -5.245620e-03 -4.547607e-03 -3.732357e-03 -3.063287e-03 -2.399401e-03 -2.011228e-03 -1.534106e-03 -1.073466e-03 -7.706558e-04 -2.361244e-04 -2.263460e-04 2.198751e-03 8.045568e-04 -2.101653e-04 -1.816753e-03 -1.413907e-03 -2.577039e-03 -1.784654e-03 -2.541465e-03 -1.706756e-03 -2.427190e-03 -1.931375e-03 -2.025579e-03 -1.569410e-03 -1.481699e-03 -1.897322e-03 -1.488510e-03 -2.449624e-03 -1.658850e-03 -2.810276e-03 -1.162849e-03 -2.608425e-03 -1.054327e-03 -2.921704e-03 -1.274546e-03 -3.098042e-03 -1.389124e-03 -2.636795e-03 -1.317916e-03 -2.430963e-03 -1.869877e-03 -2.131787e-03 -2.400973e-03 -1.735747e-03 -2.883352e-03 -1.224760e-03 -3.313175e-03 -5.732464e-04 -3.621802e-03 -3.570247e-04 -3.943649e-03 -2.202004e-04 -3.989117e-03 -1.934033e-04 -3.515089e-03 -4.086381e-04 -2.704941e-03 -9.298460e-04 -1.617778e-03 -1.762915e-03 -1.588765e-04 -2.969531e-03 1.591579e-03 -5.974066e-03 -3.447203e-03 -2.988726e-03 -1.729456e-03 -1.149462e-03 
2.526093e-03 2.454485e-03 -3.846613e-04 -2.513353e-03 -9.483888e-03 -8.622729e-03 -5.663178e-03 -7.661364e-03 -4.926271e-03 -5.279358e-03 -3.343053e-03 -8.890031e-04 7.899720e-04 5.134632e-03 5.638487e-03 8.369161e-03 6.980361e-03 8.350087e-03 6.988180e-03 5.446425e-03 5.169521e-03 -7.983725e-04 -8.625788e-04 -5.441261e-03 -4.368004e-03 -7.117769e-03 -5.709089e-03 -7.569287e-03 -6.600449e-03 -7.517332e-03 -6.819235e-03 -7.090408e-03 -7.183639e-03 -7.374250e-03 -8.240810e-03 -7.637087e-03 -8.363330e-03 -7.255823e-03 -8.306194e-03 -7.338007e-03 -8.554204e-03 -7.442267e-03 -8.433834e-03 -7.388728e-03 -8.182519e-03 -7.368933e-03 -7.836876e-03 -7.308985e-03 -7.523112e-03 -7.159268e-03 -6.742499e-03 -6.425045e-03 -5.138191e-03 -4.502421e-03 -2.161464e-03 -5.708812e-04 3.856667e-03 3.566511e-03 -2.409108e-03 -6.969467e-03 -9.117678e-03 -1.309184e-02 -1.478235e-02 -1.758745e-02 -1.904218e-02 -2.030064e-02 -2.053470e-02 -1.995510e-02 -1.981490e-02 -1.837936e-02 -1.731638e-02 -1.699127e-02 -1.789301e-02 -1.549921e-02 -1.501200e-02 -1.255185e-02 -1.234436e-02 -1.015755e-02 -1.049079e-02 -9.279137e-03 -9.748594e-03 -8.923489e-03 -9.021267e-03 -8.440264e-03 -8.121950e-03 -8.386503e-03 -8.030886e-03 -9.251145e-03 -8.367747e-03 -9.692764e-03 -7.891930e-03 -9.482186e-03 -7.552364e-03 -9.776859e-03 -7.731529e-03 -9.893111e-03 -7.760438e-03 -9.658475e-03 -7.691230e-03 -9.249755e-03 -8.124474e-03 -9.026043e-03 -8.626751e-03 -8.792332e-03 -9.314972e-03 -8.246882e-03 -9.653523e-03 -7.645861e-03 -1.005870e-02 -7.373800e-03 -1.057885e-02 -7.269940e-03 -1.077979e-02 -7.340904e-03 -1.047677e-02 -7.512967e-03 -1.008634e-02 -8.230518e-03 -9.300943e-03 -9.425072e-03 -8.394064e-03 -1.135500e-02 -7.408195e-03 -1.302965e-02 -7.331756e-03 -1.565739e-03 8.769915e-04 2.690027e-03 
5.031444e-03 3.137719e-03 2.845018e-03 -3.875526e-03 -5.881049e-03 -2.167071e-02 -1.478954e-02 -1.153158e-02 -1.649074e-02 -1.045272e-02 -1.664183e-02 -1.068156e-02 -1.724194e-02 -1.255663e-02 -1.847524e-02 -1.499500e-02 -1.796809e-02 -1.602733e-02 -1.682957e-02 -1.648634e-02 -1.457816e-02 -1.565767e-02 -1.220080e-02 -1.449595e-02 -1.176802e-02 -1.460942e-02 -1.231842e-02 -1.471429e-02 -1.248127e-02 -1.437624e-02 -1.267827e-02 -1.422366e-02 -1.271244e-02 -1.357749e-02 -1.266223e-02 -1.351011e-02 -1.321285e-02 -1.361577e-02 -1.336576e-02 -1.345774e-02 -1.372065e-02 -1.341401e-02 -1.333863e-02 -1.253374e-02 -1.291793e-02 -1.273350e-02 -1.354596e-02 -1.283144e-02 -1.288368e-02 -1.207069e-02 -1.246756e-02 -1.188268e-02 -1.173383e-02 -1.075064e-02 -1.021617e-02 -8.889530e-03 -7.205388e-03 -5.934684e-03 -8.674222e-03 -7.709219e-03 -8.010392e-03 -8.435170e-03 -8.585420e-03 -1.014374e-02 -1.141245e-02 -1.254081e-02 -1.406762e-02 -1.525316e-02 -1.734371e-02 -1.848870e-02 -2.071912e-02 -2.310650e-02 -2.321900e-02 -2.042741e-02 -1.946053e-02 -1.770156e-02 -1.696342e-02 -1.544255e-02 -1.550590e-02 -1.492272e-02 -1.475543e-02 -1.408198e-02 -1.435518e-02 -1.428097e-02 -1.400180e-02 -1.361671e-02 -1.348606e-02 -1.366911e-02 -1.326643e-02 -1.369498e-02 -1.353296e-02 -1.402591e-02 -1.315725e-02 -1.373332e-02 -1.278665e-02 -1.345535e-02 -1.264443e-02 -1.402715e-02 -1.297126e-02 -1.377029e-02 -1.267325e-02 -1.375877e-02 -1.255955e-02 -1.380947e-02 -1.278655e-02 -1.372315e-02 -1.273986e-02 -1.390046e-02 -1.296723e-02 -1.366085e-02 -1.315038e-02 -1.362778e-02 -1.332741e-02 -1.376676e-02 -1.369820e-02 -1.371582e-02 -1.428367e-02 -1.377204e-02 -1.455610e-02 -1.363694e-02 -1.501921e-02 -1.327242e-02 -1.630160e-02 -9.923087e-03 -5.576132e-03 5.077085e-04 2.779072e-03 4.291804e-03 
2.423530e-02 2.291882e-02 2.599710e-02 2.384104e-02 3.064941e-02 1.976257e-02 1.971728e-02 2.339659e-02 1.806298e-02 2.224049e-02 1.804022e-02 1.967440e-02 1.783311e-02 1.832062e-02 1.899443e-02 1.857722e-02 1.913076e-02 1.886461e-02 1.875175e-02 1.933917e-02 1.791475e-02 1.970583e-02 1.871193e-02 2.077302e-02 2.035344e-02 2.083246e-02 2.052895e-02 2.057275e-02 2.098019e-02 2.043734e-02 2.086697e-02 1.997473e-02 2.112879e-02 2.069656e-02 2.227127e-02 2.105692e-02 2.198430e-02 2.054129e-02 2.171211e-02 2.067620e-02 2.168047e-02 2.073174e-02 2.162293e-02 2.100937e-02 2.138652e-02 2.063420e-02 2.040138e-02 2.020860e-02 2.013347e-02 2.009794e-02 1.911216e-02 1.891039e-02 1.719191e-02 1.671256e-02 1.371409e-02 1.180733e-02 5.932950e-03 5.763598e-03 1.088213e-02 1.213679e-02 1.332718e-02 1.709956e-02 1.820644e-02 2.158327e-02 2.355710e-02 2.662949e-02 2.867144e-02 3.048818e-02 3.309798e-02 3.523971e-02 3.667333e-02 3.958944e-02 3.966616e-02 3.541771e-02 3.297835e-02 2.950317e-02 2.837261e-02 2.595935e-02 2.551938e-02 2.406428e-02 2.420466e-02 2.337605e-02 2.306153e-02 2.220256e-02 2.191152e-02 2.216668e-02 2.192763e-02 2.289148e-02 2.233580e-02 2.318179e-02 2.155892e-02 2.260733e-02 2.134399e-02 2.303920e-02 2.174465e-02 2.329198e-02 2.180918e-02 2.267294e-02 2.146384e-02 2.235290e-02 2.205431e-02 2.216543e-02 2.262865e-02 2.196092e-02 2.321878e-02 2.147569e-02 2.354867e-02 2.076844e-02 2.380977e-02 2.065881e-02 2.424975e-02 2.059488e-02 2.435178e-02 2.060152e-02 2.381285e-02 2.083357e-02 2.314350e-02 2.169345e-02 2.231014e-02 2.332303e-02 2.130883e-02 2.598110e-02 1.961802e-02 3.073181e-02 2.787478e-02 2.532515e-02 2.439015e-02 2.334817e-02 
3.039949e-02 3.095182e-02 3.261630e-02 3.604044e-02 4.089869e-02 4.687605e-02 4.094208e-02 4.112970e-02 4.013201e-02 3.920300e-02 3.845758e-02 3.689124e-02 3.503449e-02 3.454060e-02 3.493547e-02 3.465950e-02 3.484634e-02 3.481010e-02 3.468561e-02 3.497245e-02 3.451493e-02 3.513703e-02 3.536379e-02 3.806187e-02 3.767925e-02 4.001494e-02 3.919946e-02 4.093214e-02 4.009218e-02 4.112192e-02 4.048547e-02 4.106768e-02 4.083494e-02 4.113936e-02 4.148422e-02 4.138880e-02 4.182078e-02 4.130922e-02 4.185892e-02 4.136149e-02 4.216770e-02 4.149543e-02 4.198425e-02 4.119906e-02 4.174617e-02 4.143703e-02 4.201894e-02 4.176497e-02 4.199383e-02 4.199054e-02 4.227531e-02 4.275640e-02 4.284208e-02 4.365083e-02 4.400698e-02 4.536882e-02 4.544688e-02 4.641845e-02 4.664101e-02 4.521825e-02 4.466699e-02 4.425335e-02 4.269466e-02 4.349246e-02 4.276322e-02 4.289342e-02 4.236319e-02 4.213515e-02 4.189943e-02 4.170542e-02 4.186237e-02 4.146078e-02 4.357047e-02 4.380316e-02 4.471281e-02 4.393662e-02 4.416801e-02 4.293362e-02 4.339349e-02 4.277844e-02 4.302000e-02 4.242584e-02 4.257069e-02 4.231809e-02 4.196352e-02 4.204002e-02 4.172321e-02 4.258020e-02 4.182544e-02 4.283582e-02 4.166196e-02 4.285557e-02 4.131186e-02 4.290115e-02 4.127123e-02 4.284396e-02 4.122624e-02 4.292731e-02 4.132372e-02 4.255128e-02 4.145944e-02 4.240861e-02 4.174457e-02 4.229076e-02 4.228185e-02 4.192854e-02 4.248993e-02 4.164285e-02 4.284123e-02 4.136515e-02 4.321811e-02 4.127494e-02 4.337874e-02 4.136295e-02 4.330882e-02 4.146666e-02 4.327408e-02 4.200189e-02 4.290548e-02 4.283750e-02 4.262599e-02 4.417403e-02 4.312123e-02 4.528909e-02 3.986976e-02 3.466318e-02 3.214627e-02 3.068089e-02 
3.804155e-02 3.866318e-02 3.923709e-02 4.172641e-02 4.301610e-02 4.907642e-02 4.696152e-02 4.660385e-02 4.757012e-02 4.630978e-02 4.722140e-02 4.622044e-02 4.618301e-02 4.569165e-02 4.608301e-02 4.579728e-02 4.598186e-02 4.595031e-02 4.580608e-02 4.612841e-02 4.563530e-02 4.625673e-02 4.574485e-02 4.695891e-02 4.590519e-02 4.739401e-02 4.627817e-02 4.752899e-02 4.645386e-02 4.738788e-02 4.665298e-02 4.730279e-02 4.682276e-02 4.706151e-02 4.694996e-02 4.702959e-02 4.725502e-02 4.706276e-02 4.736598e-02 4.700267e-02 4.749873e-02 4.700284e-02 4.735336e-02 4.673148e-02 4.716464e-02 4.684379e-02 4.734257e-02 4.697418e-02 4.714512e-02 4.691243e-02 4.718771e-02 4.724793e-02 4.749088e-02 4.781210e-02 4.864584e-02 5.001028e-02 5.250609e-02 5.324658e-02 5.111410e-02 5.304607e-02 5.277063e-02 5.192834e-02 5.200548e-02 5.157647e-02 5.125315e-02 5.045708e-02 4.969553e-02 4.905914e-02 4.797121e-02 4.697779e-02 4.741010e-02 4.454574e-02 4.449372e-02 4.580550e-02 4.752654e-02 4.803763e-02 4.886080e-02 4.853625e-02 4.906888e-02 4.870108e-02 4.885133e-02 4.841653e-02 4.852094e-02 4.841946e-02 4.816867e-02 4.817017e-02 4.779453e-02 4.820768e-02 4.755136e-02 4.825187e-02 4.751027e-02 4.839112e-02 4.728262e-02 4.828914e-02 4.710587e-02 4.816154e-02 4.705655e-02 4.827307e-02 4.722323e-02 4.806742e-02 4.724185e-02 4.792683e-02 4.738752e-02 4.778996e-02 4.766881e-02 4.759383e-02 4.785370e-02 4.749652e-02 4.809519e-02 4.729069e-02 4.825591e-02 4.721106e-02 4.831381e-02 4.725199e-02 4.831337e-02 4.730056e-02 4.824799e-02 4.743776e-02 4.796208e-02 4.751660e-02 4.770762e-02 4.750226e-02 4.817249e-02 4.615570e-02 4.288124e-02 4.070947e-02 3.913783e-02 3.841373e-02 
3.832092e-02 3.902937e-02 3.929851e-02 4.110454e-02 4.177557e-02 4.439801e-02 4.444663e-02 4.566251e-02 4.627375e-02 4.690149e-02 4.839782e-02 4.934606e-02 5.235246e-02 5.210964e-02 5.228465e-02 5.213631e-02 5.221413e-02 5.220201e-02 5.215171e-02 5.228626e-02 5.212437e-02 5.236620e-02 5.038687e-02 4.945889e-02 4.754443e-02 4.756111e-02 4.610055e-02 4.652802e-02 4.543490e-02 4.593737e-02 4.519706e-02 4.560026e-02 4.519577e-02 4.541221e-02 4.532540e-02 4.533083e-02 4.547732e-02 4.528024e-02 4.558979e-02 4.526505e-02 4.568774e-02 4.527945e-02 4.570401e-02 4.527856e-02 4.569454e-02 4.536657e-02 4.573286e-02 4.549113e-02 4.572471e-02 4.559145e-02 4.570181e-02 4.566259e-02 4.560220e-02 4.559816e-02 4.553653e-02 4.584507e-02 4.643665e-02 4.667292e-02 4.495437e-02 4.566531e-02 4.467736e-02 4.448628e-02 4.455685e-02 4.418303e-02 4.443028e-02 4.440435e-02 4.466541e-02 4.479686e-02 4.539778e-02 4.546210e-02 4.653615e-02 4.661690e-02 4.605040e-02 4.502148e-02 4.537886e-02 4.512434e-02 4.577723e-02 4.553174e-02 4.604587e-02 4.580570e-02 4.608411e-02 4.591487e-02 4.598015e-02 4.600392e-02 4.581009e-02 4.607541e-02 4.565891e-02 4.622489e-02 4.554739e-02 4.635091e-02 4.543366e-02 4.642439e-02 4.530617e-02 4.644398e-02 4.523671e-02 4.641886e-02 4.522798e-02 4.637225e-02 4.529635e-02 4.624275e-02 4.541758e-02 4.610136e-02 4.560394e-02 4.594105e-02 4.584044e-02 4.575247e-02 4.605709e-02 4.558155e-02 4.625925e-02 4.543024e-02 4.640165e-02 4.533596e-02 4.643280e-02 4.529937e-02 4.632591e-02 4.528529e-02 4.606555e-02 4.526651e-02 4.558228e-02 4.511214e-02 4.486834e-02 4.464583e-02 4.393204e-02 4.322005e-02 4.151778e-02 4.044849e-02 3.918116e-02 3.881695e-02 
4.124533e-02 4.194996e-02 4.205223e-02 4.377590e-02 4.412614e-02 4.645772e-02 4.662520e-02 4.760957e-02 4.855758e-02 4.886782e-02 5.066695e-02 5.139181e-02 5.477210e-02 5.448590e-02 5.470188e-02 5.452824e-02 5.461405e-02 5.461837e-02 5.452309e-02 5.472429e-02 5.446983e-02 5.480910e-02 5.283786e-02 5.194571e-02 5.001433e-02 5.006434e-02 4.856568e-02 4.904091e-02 4.790338e-02 4.847503e-02 4.768012e-02 4.815695e-02 4.767774e-02 4.795744e-02 4.775950e-02 4.782753e-02 4.786963e-02 4.775182e-02 4.797493e-02 4.771498e-02 4.805398e-02 4.770318e-02 4.808301e-02 4.769973e-02 4.808531e-02 4.775118e-02 4.811939e-02 4.787016e-02 4.817821e-02 4.804381e-02 4.830359e-02 4.830933e-02 4.854083e-02 4.871767e-02 4.905119e-02 4.961581e-02 5.041994e-02 5.119225e-02 4.992934e-02 4.939633e-02 4.869014e-02 4.835238e-02 4.785194e-02 4.724867e-02 4.690389e-02 4.632649e-02 4.601876e-02 4.530469e-02 4.508728e-02 4.404169e-02 4.347100e-02 4.299750e-02 4.385911e-02 4.403545e-02 4.510716e-02 4.541190e-02 4.642975e-02 4.657901e-02 4.732424e-02 4.733573e-02 4.778615e-02 4.778085e-02 4.798634e-02 4.808519e-02 4.803714e-02 4.829335e-02 4.801156e-02 4.846454e-02 4.794527e-02 4.858460e-02 4.786335e-02 4.865772e-02 4.777520e-02 4.868526e-02 4.772488e-02 4.867350e-02 4.771531e-02 4.862651e-02 4.775943e-02 4.853099e-02 4.785528e-02 4.842449e-02 4.800187e-02 4.829693e-02 4.818124e-02 4.816324e-02 4.836915e-02 4.804836e-02 4.854169e-02 4.794011e-02 4.865501e-02 4.785537e-02 4.867992e-02 4.779577e-02 4.860606e-02 4.773800e-02 4.840792e-02 4.761738e-02 4.802076e-02 4.729833e-02 4.737016e-02 4.658879e-02 4.629474e-02 4.514519e-02 4.397813e-02 4.295710e-02 4.197669e-02 4.167943e-02 
3.830923e-02 3.901621e-02 3.928402e-02 4.108565e-02 4.175420e-02 4.437066e-02 4.441942e-02 4.563497e-02 4.626917e-02 4.690480e-02 4.841754e-02 4.935240e-02 5.235615e-02 5.210108e-02 5.228151e-02 5.212297e-02 5.220669e-02 5.218556e-02 5.214314e-02 5.227040e-02 5.211428e-02 5.235447e-02 5.038177e-02 4.945342e-02 4.753765e-02 4.753215e-02 4.608572e-02 4.651942e-02 4.545156e-02 4.598086e-02 4.526000e-02 4.568055e-02 4.529305e-02 4.551009e-02 4.539997e-02 4.536938e-02 4.548374e-02 4.526635e-02 4.558072e-02 4.523813e-02 4.565073e-02 4.523902e-02 4.567965e-02 4.525278e-02 4.564246e-02 4.525882e-02 4.557191e-02 4.529327e-02 4.549070e-02 4.531314e-02 4.534357e-02 4.524627e-02 4.510792e-02 4.509805e-02 4.482496e-02 4.492534e-02 4.461037e-02 4.483668e-02 4.429593e-02 4.454486e-02 4.412059e-02 4.427783e-02 4.405565e-02 4.408334e-02 4.403786e-02 4.403235e-02 4.417025e-02 4.412494e-02 4.443448e-02 4.427328e-02 4.467297e-02 4.440649e-02 4.473546e-02 4.433450e-02 4.485930e-02 4.455769e-02 4.515957e-02 4.489353e-02 4.539768e-02 4.516999e-02 4.551167e-02 4.542449e-02 4.557021e-02 4.567931e-02 4.557327e-02 4.591857e-02 4.554597e-02 4.614118e-02 4.548894e-02 4.630376e-02 4.537318e-02 4.636436e-02 4.525281e-02 4.639821e-02 4.520402e-02 4.639625e-02 4.519508e-02 4.631791e-02 4.524901e-02 4.621372e-02 4.539441e-02 4.608840e-02 4.558390e-02 4.589526e-02 4.578383e-02 4.570906e-02 4.602783e-02 4.556017e-02 4.625533e-02 4.543137e-02 4.639340e-02 4.533000e-02 4.641654e-02 4.527420e-02 4.631549e-02 4.528632e-02 4.607657e-02 4.529993e-02 4.563612e-02 4.516170e-02 4.491705e-02 4.466480e-02 4.392444e-02 4.320992e-02 4.150200e-02 4.043560e-02 3.916804e-02 3.880527e-02 
3.802249e-02 3.864292e-02 3.920891e-02 4.169162e-02 4.296401e-02 4.900954e-02 4.685997e-02 4.649425e-02 4.754066e-02 4.633904e-02 4.729893e-02 4.622675e-02 4.620321e-02 4.566006e-02 4.607181e-02 4.577342e-02 4.596421e-02 4.592880e-02 4.579482e-02 4.610116e-02 4.559281e-02 4.620679e-02 4.579036e-02 4.709086e-02 4.600424e-02 4.735037e-02 4.618491e-02 4.744891e-02 4.644912e-02 4.744788e-02 4.670901e-02 4.741318e-02 4.707023e-02 4.744390e-02 4.732105e-02 4.727305e-02 4.736427e-02 4.714878e-02 4.754765e-02 4.718997e-02 4.766607e-02 4.723180e-02 4.777483e-02 4.730873e-02 4.773110e-02 4.724392e-02 4.764312e-02 4.739429e-02 4.778153e-02 4.764890e-02 4.783205e-02 4.776854e-02 4.780475e-02 4.785212e-02 4.773985e-02 4.791857e-02 4.777610e-02 4.803186e-02 4.767386e-02 4.781565e-02 4.749080e-02 4.754449e-02 4.713777e-02 4.687349e-02 4.647974e-02 4.612798e-02 4.592631e-02 4.545413e-02 4.538740e-02 4.481105e-02 4.491842e-02 4.436828e-02 4.483210e-02 4.451289e-02 4.528207e-02 4.502999e-02 4.581259e-02 4.559142e-02 4.628050e-02 4.606132e-02 4.658108e-02 4.652558e-02 4.687325e-02 4.697234e-02 4.705149e-02 4.741437e-02 4.724087e-02 4.778365e-02 4.725516e-02 4.796525e-02 4.709655e-02 4.796940e-02 4.697300e-02 4.810148e-02 4.703816e-02 4.818977e-02 4.701738e-02 4.803695e-02 4.694828e-02 4.790017e-02 4.712651e-02 4.786712e-02 4.734829e-02 4.768703e-02 4.752469e-02 4.751412e-02 4.781346e-02 4.742832e-02 4.809554e-02 4.734823e-02 4.828081e-02 4.725068e-02 4.831650e-02 4.718367e-02 4.827451e-02 4.728111e-02 4.820932e-02 4.745899e-02 4.805368e-02 4.759470e-02 4.781204e-02 4.753421e-02 4.813042e-02 4.613634e-02 4.285164e-02 4.069145e-02 3.911765e-02 3.839764e-02 
3.038139e-02 3.092938e-02 3.258898e-02 3.599454e-02 4.082977e-02 4.676248e-02 4.077588e-02 4.096578e-02 4.011780e-02 3.929333e-02 3.863913e-02 3.698151e-02 3.505692e-02 3.451022e-02 3.491993e-02 3.461833e-02 3.481595e-02 3.474804e-02 3.466084e-02 3.490889e-02 3.447130e-02 3.497183e-02 3.532735e-02 3.804774e-02 3.760268e-02 3.977513e-02 3.906910e-02 4.083173e-02 4.009536e-02 4.133956e-02 4.080687e-02 4.148011e-02 4.136255e-02 4.164282e-02 4.179152e-02 4.146920e-02 4.170971e-02 4.118351e-02 4.189635e-02 4.131220e-02 4.200779e-02 4.139264e-02 4.212883e-02 4.150032e-02 4.198430e-02 4.140780e-02 4.181146e-02 4.154051e-02 4.183758e-02 4.175895e-02 4.170301e-02 4.161319e-02 4.129070e-02 4.142409e-02 4.090535e-02 4.121835e-02 4.067780e-02 4.103579e-02 4.044435e-02 4.106546e-02 4.086044e-02 4.144544e-02 4.105957e-02 4.119956e-02 4.082014e-02 4.076186e-02 4.066459e-02 4.050732e-02 4.057437e-02 4.016884e-02 4.061286e-02 4.027366e-02 4.104990e-02 4.073236e-02 4.161192e-02 4.096955e-02 4.174129e-02 4.114697e-02 4.174247e-02 4.107783e-02 4.158143e-02 4.133455e-02 4.173880e-02 4.179590e-02 4.179717e-02 4.214460e-02 4.179681e-02 4.257062e-02 4.190998e-02 4.295588e-02 4.161565e-02 4.274763e-02 4.119832e-02 4.276584e-02 4.122989e-02 4.289898e-02 4.113893e-02 4.263660e-02 4.116531e-02 4.256140e-02 4.150507e-02 4.257263e-02 4.182650e-02 4.202198e-02 4.188240e-02 4.170347e-02 4.239516e-02 4.160971e-02 4.294594e-02 4.144006e-02 4.317246e-02 4.126138e-02 4.325164e-02 4.113286e-02 4.322733e-02 4.145460e-02 4.325527e-02 4.218607e-02 4.326094e-02 4.318420e-02 4.297212e-02 4.423797e-02 4.293563e-02 4.516113e-02 3.978207e-02 3.461008e-02 3.211220e-02 3.065654e-02 
2.423810e-02 2.291958e-02 2.599969e-02 2.384093e-02 3.064511e-02 1.975176e-02 1.971308e-02 2.346111e-02 1.804677e-02 2.220974e-02 1.794374e-02 1.969009e-02 1.765537e-02 1.816892e-02 1.896149e-02 1.866976e-02 1.914754e-02 1.890779e-02 1.886500e-02 1.930023e-02 1.767741e-02 1.937096e-02 1.812700e-02 1.999545e-02 1.959741e-02 2.052031e-02 2.072788e-02 2.098559e-02 2.140120e-02 2.116979e-02 2.187280e-02 2.099326e-02 2.178769e-02 2.072572e-02 2.192660e-02 2.076937e-02 2.191935e-02 2.058115e-02 2.182036e-02 2.071070e-02 2.183958e-02 2.096354e-02 2.190994e-02 2.130587e-02 2.211011e-02 2.201686e-02 2.246971e-02 2.240439e-02 2.231786e-02 2.260955e-02 2.228589e-02 2.276486e-02 2.216932e-02 2.307210e-02 2.239315e-02 2.342294e-02 2.244050e-02 2.315247e-02 2.196683e-02 2.285574e-02 2.206148e-02 2.263134e-02 2.179723e-02 2.207198e-02 2.129832e-02 2.095339e-02 2.022045e-02 1.976536e-02 1.936548e-02 1.876883e-02 1.916832e-02 1.908588e-02 2.011284e-02 1.986016e-02 2.075490e-02 2.002976e-02 2.090101e-02 2.024717e-02 2.089673e-02 2.021921e-02 2.086807e-02 2.060458e-02 2.109564e-02 2.123743e-02 2.125600e-02 2.144183e-02 2.098367e-02 2.187533e-02 2.143358e-02 2.273597e-02 2.162940e-02 2.286798e-02 2.132391e-02 2.262250e-02 2.114103e-02 2.259233e-02 2.126178e-02 2.266219e-02 2.200728e-02 2.285241e-02 2.247130e-02 2.256011e-02 2.276028e-02 2.162003e-02 2.276809e-02 2.106272e-02 2.322282e-02 2.068677e-02 2.372425e-02 2.029937e-02 2.379661e-02 2.017777e-02 2.389762e-02 2.032301e-02 2.377636e-02 2.096912e-02 2.343581e-02 2.222956e-02 2.291125e-02 2.397379e-02 2.180102e-02 2.617269e-02 1.955901e-02 3.063214e-02 2.784000e-02 2.529121e-02 2.438418e-02 2.334055e-02 
5.107563e-03 3.207411e-03 2.934338e-03 -3.772845e-03 -5.732988e-03 -2.147739e-02 -1.449797e-02 -1.121866e-02 -1.641658e-02 -1.057311e-02 -1.687413e-02 -1.076833e-02 -1.722491e-02 -1.256018e-02 -1.844645e-02 -1.505920e-02 -1.806014e-02 -1.617705e-02 -1.693265e-02 -1.659350e-02 -1.460037e-02 -1.579657e-02 -1.258810e-02 -1.514964e-02 -1.222943e-02 -1.456579e-02 -1.200396e-02 -1.429731e-02 -1.215758e-02 -1.416171e-02 -1.242433e-02 -1.414979e-02 -1.309015e-02 -1.443271e-02 -1.354547e-02 -1.411127e-02 -1.343478e-02 -1.382167e-02 -1.380744e-02 -1.392106e-02 -1.402115e-02 -1.387409e-02 -1.423387e-02 -1.381265e-02 -1.400681e-02 -1.324779e-02 -1.369003e-02 -1.330239e-02 -1.409619e-02 -1.370430e-02 -1.427780e-02 -1.370618e-02 -1.417569e-02 -1.359899e-02 -1.389825e-02 -1.345372e-02 -1.391885e-02 -1.368808e-02 -1.411994e-02 -1.403767e-02 -1.460536e-02 -1.460050e-02 -1.474748e-02 -1.424438e-02 -1.417188e-02 -1.376275e-02 -1.391036e-02 -1.343134e-02 -1.350316e-02 -1.284405e-02 -1.295162e-02 -1.222967e-02 -1.254974e-02 -1.223284e-02 -1.289970e-02 -1.257022e-02 -1.313117e-02 -1.284576e-02 -1.331582e-02 -1.291270e-02 -1.327402e-02 -1.311228e-02 -1.348259e-02 -1.338603e-02 -1.357464e-02 -1.376023e-02 -1.385362e-02 -1.405214e-02 -1.376444e-02 -1.396818e-02 -1.324158e-02 -1.354765e-02 -1.288587e-02 -1.373833e-02 -1.306716e-02 -1.395596e-02 -1.281734e-02 -1.354130e-02 -1.226405e-02 -1.334112e-02 -1.234341e-02 -1.365062e-02 -1.253267e-02 -1.365040e-02 -1.254011e-02 -1.372925e-02 -1.288925e-02 -1.398611e-02 -1.326469e-02 -1.410661e-02 -1.349071e-02 -1.397208e-02 -1.352016e-02 -1.365220e-02 -1.360523e-02 -1.355543e-02 -1.398693e-02 -1.355850e-02 -1.453925e-02 -1.355803e-02 -1.506218e-02 -1.312611e-02 -1.598790e-02 -9.734730e-03 -5.408063e-03 6.115973e-04 2.877288e-03 4.362223e-03 
2.587049e-03 2.513546e-03 -3.244740e-04 -2.438891e-03 -9.394967e-03 -8.495412e-03 -5.517125e-03 -7.549102e-03 -4.901841e-03 -5.313893e-03 -3.430209e-03 -9.628978e-04 8.615708e-04 5.234749e-03 5.579516e-03 8.172963e-03 6.826597e-03 8.147047e-03 6.700440e-03 5.328556e-03 5.266068e-03 -6.677670e-04 -6.437183e-04 -5.159638e-03 -3.991456e-03 -6.823600e-03 -5.688734e-03 -7.632228e-03 -6.691817e-03 -7.901195e-03 -7.414465e-03 -7.790113e-03 -7.806728e-03 -7.707196e-03 -8.260212e-03 -7.561598e-03 -8.256738e-03 -7.203039e-03 -8.366387e-03 -7.301523e-03 -8.463122e-03 -7.426475e-03 -8.563936e-03 -7.608944e-03 -8.518076e-03 -7.843252e-03 -8.537014e-03 -8.115836e-03 -8.498088e-03 -8.449668e-03 -8.494571e-03 -8.597455e-03 -8.354042e-03 -8.915304e-03 -8.528267e-03 -9.338132e-03 -8.694037e-03 -9.208877e-03 -7.834339e-03 -8.284867e-03 -7.428180e-03 -7.675947e-03 -6.819953e-03 -6.762155e-03 -6.110719e-03 -5.761251e-03 -5.473920e-03 -5.104959e-03 -5.210973e-03 -4.634276e-03 -5.522298e-03 -5.221002e-03 -6.628808e-03 -6.325239e-03 -7.808687e-03 -7.018183e-03 -8.346037e-03 -7.525989e-03 -8.487200e-03 -7.534345e-03 -8.340998e-03 -7.889639e-03 -8.468316e-03 -8.476022e-03 -8.476920e-03 -8.781623e-03 -8.228061e-03 -9.263883e-03 -8.432593e-03 -9.928559e-03 -8.208512e-03 -9.798260e-03 -7.675412e-03 -9.657206e-03 -7.547030e-03 -9.701751e-03 -7.489152e-03 -9.491268e-03 -7.843731e-03 -9.489437e-03 -8.320323e-03 -9.326807e-03 -8.744120e-03 -8.463523e-03 -8.859278e-03 -7.964484e-03 -9.525655e-03 -7.704810e-03 -1.022676e-02 -7.380247e-03 -1.045095e-02 -7.157513e-03 -1.054551e-02 -7.069556e-03 -1.040412e-02 -7.515888e-03 -1.014529e-02 -8.509836e-03 -9.731695e-03 -9.849969e-03 -8.753681e-03 -1.136135e-02 -7.131467e-03 -1.278711e-02 -7.163746e-03 -1.440549e-03 9.684629e-04 2.763022e-03 
-1.338598e-03 -4.476166e-04 -2.349876e-03 -6.022016e-04 -4.393215e-03 3.050221e-03 1.759074e-03 -2.679447e-03 2.470675e-03 -2.948850e-03 2.238161e-03 -2.907753e-03 2.224425e-03 -1.421147e-03 3.646227e-03 9.278412e-04 3.414350e-03 1.827715e-03 2.489633e-03 1.980571e-03 3.611561e-04 1.006541e-03 -8.093362e-04 1.762120e-04 -5.822868e-04 -1.296890e-04 -7.194389e-04 -3.421632e-04 -8.967862e-04 -4.069541e-04 -1.134750e-03 -2.897137e-04 -1.144743e-03 -1.290434e-04 -1.350523e-03 -2.200397e-04 -1.509050e-03 -1.608772e-04 -1.471005e-03 -2.243354e-04 -1.502014e-03 -4.248121e-04 -1.535182e-03 -7.151159e-04 -1.685072e-03 -1.287626e-03 -1.902597e-03 -1.640667e-03 -1.825046e-03 -1.948959e-03 -1.926599e-03 -2.386332e-03 -2.159533e-03 -3.038427e-03 -2.746652e-03 -3.845807e-03 -3.296468e-03 -4.123542e-03 -2.551914e-03 -2.897814e-03 -1.620771e-03 -1.530266e-03 -4.582466e-04 -1.576370e-04 7.754704e-04 1.572165e-03 2.491888e-03 3.543056e-03 4.154708e-03 5.308597e-03 5.055994e-03 5.728955e-03 4.401209e-03 4.328265e-03 2.457333e-03 2.446839e-03 6.687616e-04 9.164499e-04 -3.730741e-04 5.957352e-05 -8.973322e-04 -6.247532e-04 -1.153251e-03 -1.211445e-03 -1.242661e-03 -1.554984e-03 -1.053456e-03 -1.996655e-03 -1.238793e-03 -2.623578e-03 -1.303816e-03 -2.860611e-03 -1.128474e-03 -2.766474e-03 -9.702501e-04 -2.699336e-03 -1.094083e-03 -2.699460e-03 -1.637925e-03 -2.677408e-03 -2.046724e-03 -2.280466e-03 -2.422459e-03 -1.604070e-03 -2.735269e-03 -1.067038e-03 -3.184477e-03 -5.851132e-04 -3.604783e-03 -1.929733e-04 -3.757622e-03 -3.285438e-05 -3.799778e-03 -1.076531e-04 -3.515789e-03 -4.636250e-04 -2.852680e-03 -1.144663e-03 -1.828437e-03 -1.988302e-03 -2.999930e-04 -3.005214e-03 1.627822e-03 -5.898959e-03 -3.396973e-03 -2.938575e-03 -1.691329e-03 -1.114851e-03 
