# vtk DataFile Version 2.0
Comment goes here
ASCII

DATASET STRUCTURED_POINTS
FIELD FieldData 1
TIME 1 1 double
0.55000000
DIMENSIONS    128   16   1

ORIGIN    0.000   0.000   0.000
SPACING   0.0078125 0.015625   1.000

POINT_DATA   2048
SCALARS uY double
LOOKUP_TABLE default

2.346947e-06 1.618093e-07 1.700805e-06 -4.098000e-07 1.214844e-06 -1.213427e-06 1.264210e-06 -2.267966e-06 -1.229181e-07 -3.211850e-06 -7.599460e-07 -3.399911e-06 -1.075615e-06 -3.575319e-06 -2.072130e-06 -3.869599e-06 -3.369401e-06 -3.934649e-06 -4.156395e-06 -3.644414e-06 -3.423798e-06 1.234167e-07 2.787479e-06 8.996427e-06 1.290899e-05 1.928534e-05 2.066502e-05 2.425940e-05 2.202535e-05 2.555534e-05 2.297801e-05 3.165477e-05 3.162569e-05 4.921083e-05 5.183443e-05 7.806915e-05 7.895461e-05 1.108294e-04 1.085994e-04 1.496233e-04 1.519942e-04 2.090961e-04 2.254921e-04 3.022313e-04 3.433157e-04 4.436207e-04 5.254741e-04 6.568284e-04 8.023769e-04 9.765367e-04 1.211702e-03 1.427514e-03 1.745544e-03 1.927732e-03 2.246453e-03 2.127299e-03 1.551543e-03 -9.507927e-04 -1.820221e-03 -1.694208e-03 -2.635986e-03 -2.443054e-03 -2.812321e-03 -2.875900e-03 -2.879542e-03 -2.854576e-03 -2.855558e-03 -2.526846e-03 -2.590762e-03 -2.103013e-03 -1.861106e-03 -1.313363e-03 6.696460e-04 1.779072e-03 2.182611e-03 2.084317e-03 1.979553e-03 1.718026e-03 1.510120e-03 1.226646e-03 1.018891e-03 7.866545e-04 6.272180e-04 4.711054e-04 3.684871e-04 2.811307e-04 2.229957e-04 1.817171e-04 1.475363e-04 1.272884e-04 1.009334e-04 8.752114e-05 6.477310e-05 5.592257e-05 3.905640e-05 3.576151e-05 2.468164e-05 2.524933e-05 1.761632e-05 2.122436e-05 1.547978e-05 2.006763e-05 1.237702e-05 1.534527e-05 5.602613e-06 8.537296e-06 -1.207281e-06 1.906355e-06 -6.680745e-06 -2.134648e-06 -6.404273e-06 6.312268e-07 5.012477e-07 6.866747e-06 7.439804e-06 9.419765e-06 8.781369e-06 6.737763e-06 7.017664e-06 3.770535e-06 5.990489e-06 2.138851e-06 5.871183e-06 1.558714e-06 4.437038e-06 9.809640e-07 3.235370e-06 5.935224e-07 
-1.092322e-03 1.462628e-04 -1.925427e-03 -2.400664e-04 -4.890681e-03 -1.533862e-04 6.205842e-03 -1.985914e-03 1.300350e-03 -3.680970e-04 9.394486e-04 -3.274838e-04 -2.143072e-03 -2.816982e-03 5.832184e-04 -1.503439e-03 -7.313705e-04 4.098679e-04 -4.430567e-04 1.197941e-03 2.990474e-03 2.060916e-03 -1.485915e-05 -4.576755e-04 -4.622671e-04 -1.043275e-04 -3.689716e-04 8.471107e-05 -3.446951e-04 1.737578e-04 -3.239777e-04 2.142693e-04 -2.812196e-04 2.276994e-04 -2.161688e-04 2.141190e-04 -1.461872e-04 1.687824e-04 -8.122060e-05 1.099862e-04 -4.695617e-06 7.224452e-05 9.940345e-05 7.535080e-05 2.368030e-04 1.417569e-04 4.392309e-04 3.405251e-04 8.119826e-04 8.437487e-04 1.600852e-03 2.005953e-03 3.294740e-03 4.554630e-03 6.912430e-03 8.572723e-03 5.438634e-03 -4.546608e-03 -3.694590e-03 -2.665848e-04 -4.691055e-03 -4.432368e-03 -5.123068e-03 -6.011297e-03 -5.655801e-03 -5.770148e-03 -5.753943e-03 -4.629230e-03 -5.295834e-03 -3.583243e-03 -5.291084e-03 -5.133943e-03 2.727266e-03 7.556628e-03 7.162108e-03 5.283076e-03 3.844664e-03 2.553589e-03 2.008803e-03 1.142798e-03 1.047908e-03 3.900158e-04 5.380558e-04 2.380702e-05 2.881479e-04 -1.002147e-04 1.742306e-04 -8.935996e-05 1.004745e-04 -2.605332e-05 1.057194e-05 5.040934e-05 -9.964254e-05 1.367514e-04 -2.075513e-04 2.323939e-04 -2.953619e-04 3.207214e-04 -3.542709e-04 3.816177e-04 -3.729772e-04 3.958896e-04 -3.478613e-04 3.424761e-04 -2.757292e-04 2.182236e-04 -1.468015e-04 3.348487e-05 4.172502e-05 -1.915216e-04 2.836860e-04 -4.320022e-04 5.460339e-04 -6.691600e-04 7.682568e-04 -8.627426e-04 8.828975e-04 -9.053793e-04 8.166653e-04 -5.624540e-04 4.897100e-04 1.020130e-03 -1.104610e-03 3.826908e-03 3.026266e-04 6.134980e-04 -6.921226e-04 5.902900e-05 
-2.171115e-03 1.318321e-04 -3.292241e-03 1.364379e-04 -1.291012e-02 -2.181550e-04 1.729834e-02 -6.852504e-03 2.138374e-03 -4.409388e-03 4.981527e-04 -6.450211e-03 -2.129983e-03 1.797085e-03 -1.308474e-03 1.344394e-03 -8.946463e-04 1.321545e-03 -1.822314e-03 1.961687e-03 -3.549168e-03 3.622225e-03 4.644181e-03 1.044553e-03 1.917423e-03 7.184531e-04 9.093641e-04 6.642506e-04 2.907884e-04 6.118224e-04 -5.310204e-05 5.797971e-04 -1.751569e-04 5.601463e-04 -1.520172e-04 5.157529e-04 -7.434533e-05 4.053159e-04 4.642835e-06 2.703281e-04 1.346879e-04 2.060691e-04 3.456149e-04 2.261350e-04 5.987581e-04 3.188999e-04 8.885780e-04 5.334529e-04 1.299819e-03 1.031570e-03 2.064950e-03 2.149884e-03 3.650105e-03 4.567727e-03 6.981204e-03 7.879485e-03 3.532651e-03 -7.557005e-03 -2.626758e-03 1.569783e-03 -4.861312e-03 -2.000762e-03 -2.972125e-03 -4.012215e-03 -3.463194e-03 -4.128263e-03 -4.880218e-03 -3.467061e-03 -6.119515e-03 -3.693058e-03 -3.933180e-03 -6.895628e-03 -2.467673e-03 3.068595e-03 4.846616e-03 4.122880e-03 3.446476e-03 2.376634e-03 2.259887e-03 1.233854e-03 1.463282e-03 4.683334e-04 9.459534e-04 5.587938e-05 6.692490e-04 -6.475879e-05 5.283183e-04 -1.243048e-05 3.882195e-04 8.466052e-05 1.657867e-04 1.847207e-04 -1.054732e-04 3.196698e-04 -3.529946e-04 4.995132e-04 -5.464030e-04 6.720487e-04 -6.852274e-04 7.925513e-04 -7.356314e-04 8.302237e-04 -6.961055e-04 7.247873e-04 -5.687287e-04 4.736811e-04 -3.226924e-04 9.763510e-05 4.606545e-05 -3.620822e-04 5.435195e-04 -8.481396e-04 1.109356e-03 -1.352487e-03 1.616920e-03 -1.838582e-03 1.959170e-03 -2.137236e-03 2.065835e-03 -1.800569e-03 1.800150e-03 7.341415e-04 -4.753219e-03 1.139534e-02 4.023432e-04 -2.341919e-03 -2.102760e-03 -1.121923e-03 
-1.351245e-03 1.849193e-03 3.740074e-04 4.110214e-03 -1.268251e-02 -6.063914e-03 8.898408e-03 -2.270147e-03 2.177529e-03 2.872953e-04 1.135350e-03 2.624398e-03 2.333336e-03 -1.593643e-03 1.503942e-03 -1.360404e-03 1.380656e-03 -1.570367e-03 1.936006e-03 -2.051465e-03 2.529458e-03 -2.435814e-03 -2.390266e-03 -6.464427e-04 -1.281031e-03 4.332017e-05 -1.075728e-03 4.043185e-04 -1.114512e-03 5.569970e-04 -1.148257e-03 6.636289e-04 -1.034064e-03 7.493908e-04 -8.109036e-04 7.421652e-04 -6.085361e-04 5.404884e-04 -5.110355e-04 2.228796e-04 -3.847070e-04 -1.653387e-05 -1.748268e-04 -2.044829e-04 -3.079247e-05 -4.690378e-04 -8.920866e-05 -8.914970e-04 -4.192005e-04 -1.501678e-03 -1.045318e-03 -2.355410e-03 -2.110719e-03 -3.836180e-03 -4.208582e-03 -5.942292e-03 -2.636416e-03 2.937224e-03 2.573759e-03 2.426047e-04 2.231427e-03 3.228902e-03 2.528219e-03 4.687886e-03 3.786641e-03 5.373527e-03 4.729622e-03 5.203178e-03 4.902653e-03 4.444769e-03 4.589897e-03 5.011743e-03 -1.776490e-03 -6.187163e-03 -5.537297e-03 -4.476538e-03 -2.570806e-03 -2.415914e-03 -9.469955e-04 -1.587632e-03 -3.158320e-04 -1.368356e-03 -7.594895e-05 -1.191198e-03 1.346449e-04 -8.600281e-04 3.325885e-04 -4.494682e-04 3.625290e-04 -1.308599e-04 1.225225e-04 8.320855e-05 -2.639553e-04 3.210884e-04 -6.204834e-04 6.410686e-04 -8.907478e-04 9.489131e-04 -1.095609e-03 1.175636e-03 -1.166825e-03 1.288612e-03 -1.116292e-03 1.167867e-03 -9.630072e-04 8.216562e-04 -6.372568e-04 2.908835e-04 -1.275146e-04 -3.520444e-04 6.126617e-04 -1.003429e-03 1.502964e-03 -1.700823e-03 2.334761e-03 -2.459449e-03 2.969991e-03 -3.109421e-03 3.318682e-03 -3.282824e-03 2.745649e-03 -2.109901e-03 -4.109291e-03 2.517757e-02 -8.811203e-04 -7.747663e-03 -3.829827e-03 -2.171592e-03 
-1.015277e-04 1.067160e-03 4.758337e-03 5.205043e-03 3.927162e-03 -9.710991e-03 -1.355017e-02 1.837323e-03 -7.071188e-04 -9.116787e-04 3.719636e-04 -2.468289e-03 -3.427030e-04 -4.709726e-04 3.517976e-04 -5.751776e-04 5.390974e-04 -5.964846e-04 5.851520e-04 -4.386409e-04 3.622337e-04 -2.329693e-04 2.262302e-03 -2.148010e-04 1.235115e-03 2.002508e-04 5.818300e-04 4.447177e-04 1.407822e-05 5.633510e-04 -3.681233e-04 6.700836e-04 -5.165983e-04 7.695702e-04 -4.970810e-04 7.994909e-04 -4.268173e-04 6.844705e-04 -3.788147e-04 4.859264e-04 -2.618584e-04 3.565911e-04 -3.169710e-05 3.021963e-04 2.225952e-04 2.720102e-04 4.479225e-04 2.869910e-04 6.991642e-04 4.843965e-04 1.171019e-03 1.128797e-03 2.158594e-03 2.530327e-03 3.825760e-03 4.278844e-03 3.288438e-03 -3.154336e-04 -2.281227e-03 -1.289966e-03 -1.883809e-03 -3.312455e-03 -3.556095e-03 -3.624233e-03 -4.436193e-03 -3.923432e-03 -4.663915e-03 -4.166374e-03 -4.591073e-03 -3.699508e-03 -5.794022e-03 -3.737488e-03 3.602566e-03 7.015561e-03 5.887894e-03 3.846425e-03 3.249703e-03 1.860519e-03 2.072528e-03 7.746438e-04 1.339855e-03 5.656734e-05 8.805282e-04 -2.831209e-04 6.854188e-04 -2.942178e-04 6.308332e-04 -1.326111e-04 5.313692e-04 2.250546e-05 2.749894e-04 1.336716e-04 -6.803216e-05 2.805501e-04 -3.778302e-04 5.007369e-04 -6.159520e-04 7.246512e-04 -7.998121e-04 8.998631e-04 -8.844918e-04 1.000170e-03 -8.817764e-04 9.383333e-04 -8.072111e-04 7.196805e-04 -6.113959e-04 3.734502e-04 -2.853522e-04 -5.000756e-05 2.035258e-04 -4.811560e-04 7.951568e-04 -9.539663e-04 1.335769e-03 -1.487268e-03 1.725874e-03 -1.965364e-03 1.935401e-03 -2.135542e-03 1.806136e-03 -1.535629e-03 4.516224e-03 1.895991e-02 -3.540438e-03 -7.911214e-03 -4.286312e-03 -2.816382e-03 
1.643874e-04 7.414249e-04 3.260349e-03 2.965160e-03 7.609800e-03 -2.706758e-03 -1.102253e-02 1.865093e-03 -1.513516e-03 -1.563651e-03 -1.943358e-04 -4.431652e-03 -1.640384e-03 -3.463028e-04 3.794555e-04 -5.430330e-04 5.538709e-04 -6.038231e-04 5.699685e-04 -4.659490e-04 2.671114e-04 2.825091e-03 3.808031e-03 2.985945e-06 1.073822e-03 -4.594099e-05 2.846548e-04 1.332008e-04 -1.274865e-04 2.850908e-04 -3.412090e-04 3.999690e-04 -4.216100e-04 4.758851e-04 -4.128563e-04 5.026728e-04 -3.562968e-04 4.734092e-04 -2.751481e-04 4.118342e-04 -1.593550e-04 3.608949e-04 -3.462731e-06 3.406026e-04 1.770226e-04 3.628238e-04 3.838483e-04 4.733613e-04 6.784931e-04 7.978416e-04 1.232460e-03 1.616018e-03 2.446566e-03 3.684681e-03 5.494123e-03 7.237358e-03 6.910022e-04 -1.027037e-02 -4.409485e-04 2.753178e-03 -4.668908e-03 1.073390e-03 -5.433739e-04 -1.156747e-03 5.095963e-04 -7.965623e-04 -4.064640e-04 4.290447e-04 -1.562541e-03 -5.913016e-04 2.433886e-03 -4.078397e-03 -8.918100e-03 -4.592234e-03 -2.097732e-04 8.364581e-04 1.161664e-03 7.098756e-04 9.603709e-04 3.072362e-04 6.826923e-04 -2.182760e-05 4.672496e-04 -1.980581e-04 3.438624e-04 -2.260917e-04 2.754200e-04 -1.606854e-04 2.004783e-04 -6.407656e-05 8.092335e-05 3.703627e-05 -7.201334e-05 1.482617e-04 -2.245192e-04 2.720797e-04 -3.533513e-04 3.894055e-04 -4.483916e-04 4.777606e-04 -4.959315e-04 5.173504e-04 -4.928716e-04 4.847061e-04 -4.378060e-04 3.778737e-04 -3.211620e-04 2.092210e-04 -1.427597e-04 1.059300e-06 8.826423e-05 -2.199969e-04 3.323246e-04 -4.368816e-04 5.232323e-04 -6.070623e-04 6.090014e-04 -6.036315e-04 6.089786e-04 -1.265341e-04 8.115578e-04 1.183269e-03 4.010729e-03 2.246447e-03 -4.631413e-03 -2.648849e-03 -2.321938e-03 -8.756181e-04 
-9.977671e-05 -1.712971e-05 7.385545e-04 4.757012e-04 1.219305e-03 -3.170404e-04 -2.091538e-03 -5.463180e-04 -1.104103e-03 -1.263713e-03 4.402548e-05 -2.010113e-03 -2.964856e-03 -2.144012e-04 6.217233e-05 -2.131399e-04 1.614030e-04 -1.779599e-04 2.041380e-04 -7.965350e-05 2.058260e-04 4.494860e-03 3.298545e-03 -9.839243e-04 5.410191e-04 -7.184546e-04 2.151574e-04 -2.635740e-04 4.524187e-05 4.151107e-05 -6.357991e-05 2.272120e-04 -1.228627e-04 3.318087e-04 -1.356970e-04 3.767214e-04 -1.151146e-04 3.735225e-04 -7.131920e-05 3.438459e-04 -8.016301e-07 3.138802e-04 9.211871e-05 2.893150e-04 1.830678e-04 2.594933e-04 2.436657e-04 2.152203e-04 2.576007e-04 1.640562e-04 2.341873e-04 1.501194e-04 2.488368e-04 4.105503e-04 8.344724e-04 1.387463e-03 -1.467504e-03 -5.318069e-03 2.064070e-03 1.157604e-03 -2.605819e-03 2.321777e-03 -1.274219e-03 1.373478e-04 5.696880e-04 4.105596e-06 1.103729e-03 2.206490e-04 2.480269e-03 3.650200e-04 2.034920e-03 4.875525e-03 -2.254421e-03 -6.533092e-03 -4.212199e-03 -1.946380e-03 -3.324559e-04 1.042861e-04 7.239659e-04 4.483596e-04 8.065804e-04 3.093843e-04 6.372735e-04 1.228859e-04 4.631902e-04 1.991106e-05 3.329424e-04 1.446320e-06 2.212672e-04 2.950730e-05 1.000958e-04 7.909982e-05 -3.023507e-05 1.455357e-04 -1.525013e-04 2.246893e-04 -2.530122e-04 3.011579e-04 -3.246975e-04 3.572497e-04 -3.592989e-04 3.768254e-04 -3.542826e-04 3.436003e-04 -3.082151e-04 2.547987e-04 -2.158771e-04 1.182625e-04 -7.793558e-05 -5.088184e-05 9.687833e-05 -2.342891e-04 2.808435e-04 -4.152271e-04 4.334391e-04 -5.528762e-04 5.310760e-04 -5.406900e-04 5.974372e-04 -1.629984e-04 7.256825e-04 8.092641e-04 5.521654e-04 1.325771e-03 -1.038188e-03 -5.143276e-04 -8.254568e-04 -4.956859e-04 
5.354270e-05 7.174283e-05 4.646717e-04 1.918956e-04 5.083670e-04 -1.679641e-04 -1.055518e-03 -2.043829e-04 -6.532651e-04 -5.866265e-04 1.561264e-04 -7.920227e-04 -1.096075e-03 -1.044771e-04 6.147563e-05 -1.341096e-04 1.205541e-04 -1.301778e-04 1.315215e-04 -7.291455e-05 1.020834e-04 2.356863e-03 1.699969e-03 -5.114361e-04 2.263968e-04 -3.914353e-04 2.998337e-05 -1.658027e-04 -4.450107e-05 1.850875e-06 -6.940679e-05 1.130808e-04 -6.860462e-05 1.845494e-04 -4.665097e-05 2.308487e-04 -6.347528e-06 2.621592e-04 5.040051e-05 2.886702e-04 1.239065e-04 3.201842e-04 2.125674e-04 3.616428e-04 3.105988e-04 4.146767e-04 4.141336e-04 4.874219e-04 5.357607e-04 6.139185e-04 7.296674e-04 8.829809e-04 1.126240e-03 1.492776e-03 2.061490e-03 2.725935e-03 2.159271e-03 -1.499977e-03 -1.434450e-03 -1.396008e-03 -2.456232e-03 -1.733547e-03 -3.682500e-03 -3.164709e-03 -3.919531e-03 -4.451823e-03 -4.555703e-03 -5.910561e-03 -4.129002e-03 -5.908862e-03 -9.411047e-03 -4.404087e-03 3.228839e-03 5.497849e-03 5.468414e-03 4.975096e-03 4.449044e-03 3.692634e-03 3.179875e-03 2.458867e-03 2.110463e-03 1.516253e-03 1.336482e-03 8.813283e-04 8.251661e-04 4.957878e-04 5.042610e-04 2.830525e-04 3.012388e-04 1.761501e-04 1.629188e-04 1.296287e-04 6.031412e-05 1.176806e-04 -1.821770e-05 1.250717e-04 -7.652072e-05 1.399710e-04 -1.158257e-04 1.524465e-04 -1.359907e-04 1.543478e-04 -1.373309e-04 1.394909e-04 -1.202468e-04 1.061190e-04 -8.502178e-05 5.650988e-05 -3.421564e-05 -4.111926e-06 2.583305e-05 -6.857133e-05 8.355400e-05 -1.272742e-04 1.263205e-04 -1.609790e-04 1.528522e-04 -1.319669e-04 1.873529e-04 8.207576e-06 2.768256e-04 2.385786e-04 3.317836e-04 2.051058e-04 -4.000060e-04 -1.785378e-04 -3.233091e-04 -1.219955e-04 
-7.200295e-07 1.080789e-07 -1.141441e-06 -9.722266e-08 -1.507581e-06 -2.657885e-07 -1.901649e-06 -5.212273e-07 -2.057361e-06 -6.791311e-07 -1.909045e-06 -6.139710e-07 -1.746874e-06 -2.613735e-07 -2.258968e-08 -1.282917e-07 2.201483e-07 7.618313e-08 5.894140e-07 3.510045e-07 1.122816e-06 1.275938e-06 8.828300e-06 1.201927e-05 1.485382e-05 1.703315e-05 1.929271e-05 2.184166e-05 2.375719e-05 2.787861e-05 3.018191e-05 3.746832e-05 4.053130e-05 5.180756e-05 5.489174e-05 6.947309e-05 7.061610e-05 8.665159e-05 8.397893e-05 9.971254e-05 9.188551e-05 1.045507e-04 8.853986e-05 9.219670e-05 6.185180e-05 4.732947e-05 -5.551015e-06 -4.791131e-05 -1.285622e-04 -2.017336e-04 -3.020500e-04 -3.936606e-04 -4.825832e-04 -5.684947e-04 -5.881007e-04 -6.721705e-04 -7.203991e-04 -1.347362e-03 -8.608083e-04 -8.624513e-04 -1.159336e-03 -4.830142e-04 -1.016493e-03 -5.909030e-04 -6.493936e-04 -6.207227e-04 -3.749947e-04 -5.750942e-04 -6.467591e-05 -5.393602e-04 -1.887183e-04 8.116355e-04 8.932214e-04 8.774235e-04 1.066104e-03 1.216953e-03 1.305340e-03 1.265102e-03 1.183546e-03 1.031359e-03 8.870190e-04 7.195460e-04 5.833303e-04 4.502319e-04 3.496330e-04 2.625349e-04 1.977570e-04 1.482827e-04 1.085611e-04 8.283036e-05 5.730812e-05 4.445851e-05 2.680182e-05 2.104864e-05 8.704684e-06 7.376703e-06 -9.648045e-07 4.559995e-07 -5.010703e-06 -1.934547e-06 -5.506156e-06 -1.813112e-06 -4.607747e-06 -1.153052e-06 -3.522496e-06 -3.752814e-07 -2.058991e-06 7.277713e-07 4.400487e-08 2.513199e-06 3.258867e-06 5.249941e-06 7.090087e-06 7.753546e-06 9.647717e-06 8.297060e-06 9.540746e-06 6.665892e-06 7.396403e-06 4.333924e-06 4.682107e-06 2.535011e-06 2.343913e-06 1.659579e-06 8.639639e-07 9.436928e-07 -1.076951e-07 4.332608e-07 
-5.453518e-05 -7.152351e-05 -4.663057e-04 -1.921979e-04 -5.105927e-04 1.672396e-04 1.052360e-03 2.029881e-04 6.504486e-04 5.848140e-04 -1.579522e-04 7.903878e-04 1.095187e-03 1.038592e-04 -6.159586e-05 1.337410e-04 -1.203326e-04 1.301695e-04 -1.308047e-04 7.349531e-05 -1.005613e-04 -2.348657e-03 -1.675198e-03 5.485745e-04 -1.863127e-04 4.401754e-04 2.238307e-05 2.281143e-04 1.120587e-04 7.987343e-05 1.597146e-04 -5.830512e-07 1.943386e-04 -2.595009e-05 2.229405e-04 -1.067091e-05 2.469494e-04 3.227262e-05 2.667544e-04 9.275269e-05 2.847222e-04 1.638687e-04 3.042889e-04 2.396718e-04 3.274083e-04 3.129434e-04 3.523910e-04 3.740956e-04 3.746020e-04 4.144884e-04 3.917554e-04 4.294897e-04 3.997417e-04 3.962784e-04 3.462650e-04 1.910584e-04 -2.158763e-06 -5.740295e-04 -8.324868e-04 -1.119987e-03 -1.533164e-03 -1.642647e-03 -2.107004e-03 -2.211727e-03 -2.451607e-03 -2.655953e-03 -2.615057e-03 -2.803898e-03 -2.457003e-03 -2.328160e-03 -1.966329e-03 -9.515455e-04 3.215115e-04 1.206527e-03 1.774526e-03 2.121107e-03 2.137266e-03 2.162227e-03 1.884153e-03 1.799828e-03 1.417447e-03 1.342590e-03 9.619795e-04 9.374370e-04 6.088908e-04 6.281773e-04 3.729647e-04 4.077385e-04 2.345459e-04 2.510922e-04 1.640754e-04 1.340461e-04 1.357059e-04 4.182702e-05 1.315179e-04 -3.122636e-05 1.391481e-04 -8.593455e-05 1.490531e-04 -1.208563e-04 1.538850e-04 -1.343019e-04 1.476551e-04 -1.256995e-04 1.269360e-04 -9.533444e-05 9.123834e-05 -4.624566e-05 4.247241e-05 1.600559e-05 -1.289077e-05 8.421325e-05 -6.460606e-05 1.462756e-04 -1.038189e-04 1.796019e-04 -1.319182e-04 1.461716e-04 -1.717814e-04 5.650105e-07 -2.675253e-04 -2.337139e-04 -3.277862e-04 -2.015523e-04 4.015248e-04 1.806412e-04 3.232649e-04 1.229832e-04 
9.792073e-05 1.718007e-05 -7.408015e-04 -4.758511e-04 -1.222090e-03 3.168710e-04 2.086736e-03 5.448606e-04 1.098764e-03 1.261417e-03 -4.847720e-05 2.008730e-03 2.961786e-03 2.136766e-04 -6.251797e-05 2.125885e-04 -1.614688e-04 1.778309e-04 -2.036139e-04 7.986089e-05 -2.045488e-04 -4.499434e-03 -3.290742e-03 9.989230e-04 -5.173593e-04 7.474599e-04 -1.807638e-04 2.990338e-04 -8.708389e-06 -3.445514e-06 1.039352e-04 -1.767276e-04 1.808983e-04 -2.503048e-04 2.289220e-04 -2.496819e-04 2.484897e-04 -2.052409e-04 2.344734e-04 -1.442380e-04 1.900223e-04 -8.260896e-05 1.260462e-04 -2.891222e-05 5.643926e-05 1.199878e-05 -9.489017e-06 2.963655e-05 -7.528775e-05 8.279053e-06 -1.465743e-04 -5.444618e-05 -2.132392e-04 -1.424558e-04 -2.646228e-04 -2.535980e-04 -3.294723e-04 -4.241254e-04 -4.288657e-04 -4.650577e-04 -4.818973e-04 -4.655506e-04 -4.387501e-04 -4.703572e-04 -3.270305e-04 -4.344440e-04 -1.996507e-04 -3.385419e-04 -6.484757e-05 -1.492270e-04 9.383779e-05 2.233153e-04 3.931174e-04 5.506100e-04 5.604979e-04 7.390621e-04 5.576729e-04 7.583901e-04 4.132187e-04 6.590132e-04 2.115683e-04 5.146194e-04 3.132141e-05 3.751626e-04 -8.504562e-05 2.588907e-04 -1.241376e-04 1.658693e-04 -9.498879e-05 8.071791e-05 -2.403646e-05 -1.351157e-05 6.388509e-05 -1.184459e-04 1.554301e-04 -2.215336e-04 2.408975e-04 -3.085316e-04 3.083169e-04 -3.648982e-04 3.477175e-04 -3.785939e-04 3.475302e-04 -3.438045e-04 3.017093e-04 -2.552157e-04 2.104964e-04 -1.185091e-04 7.439225e-05 5.275949e-05 -9.229260e-05 2.461610e-04 -2.612122e-04 4.388526e-04 -4.032948e-04 5.782654e-04 -5.038480e-04 5.567323e-04 -5.805232e-04 1.693448e-04 -7.180036e-04 -8.080479e-04 -5.510273e-04 -1.323146e-03 1.037963e-03 5.156133e-04 8.241078e-04 4.961640e-04 
-1.658351e-04 -7.414745e-04 -3.261534e-03 -2.965292e-03 -7.610376e-03 2.706873e-03 1.101394e-02 -1.867585e-03 1.508219e-03 1.559437e-03 1.917331e-04 4.429109e-03 1.642766e-03 3.460236e-04 -3.798166e-04 5.422195e-04 -5.542637e-04 6.028992e-04 -5.704538e-04 4.643594e-04 -2.674800e-04 -2.827046e-03 -3.808126e-03 8.525809e-06 -1.055171e-03 7.330460e-05 -2.527567e-04 -1.016721e-04 1.575018e-04 -2.571183e-04 3.704765e-04 -3.619097e-04 4.699876e-04 -4.005326e-04 5.070391e-04 -3.672330e-04 5.050512e-04 -2.836496e-04 4.653225e-04 -1.766200e-04 3.980217e-04 -5.953641e-05 3.236752e-04 6.411828e-05 2.697026e-04 1.985596e-04 2.579824e-04 3.356829e-04 2.829152e-04 4.462959e-04 3.194615e-04 5.017763e-04 3.442126e-04 4.762934e-04 3.077426e-04 2.952863e-04 7.546474e-05 -1.955799e-04 -4.070290e-04 -6.072029e-04 -7.866136e-04 -1.016500e-03 -1.054922e-03 -1.315588e-03 -1.200201e-03 -1.433755e-03 -1.210120e-03 -1.348716e-03 -1.062397e-03 -1.044793e-03 -7.133993e-04 -5.014260e-04 -6.457713e-05 3.030818e-04 4.388491e-04 7.631467e-04 5.754354e-04 9.155544e-04 4.839521e-04 8.833483e-04 2.963033e-04 7.664016e-04 1.116373e-04 6.246896e-04 -1.760407e-05 4.838141e-04 -6.620972e-05 3.551645e-04 -3.495896e-05 2.267142e-04 4.626437e-05 7.947619e-05 1.476821e-04 -8.462288e-05 2.559133e-04 -2.447904e-04 3.600909e-04 -3.816009e-04 4.437124e-04 -4.751657e-04 4.943383e-04 -5.092342e-04 4.947642e-04 -4.780733e-04 4.364461e-04 -3.733867e-04 3.201896e-04 -2.052948e-04 1.422176e-04 3.787568e-06 -7.944664e-05 2.381461e-04 -3.027901e-04 4.714533e-04 -4.798007e-04 6.421081e-04 -5.728198e-04 6.217967e-04 -5.900029e-04 1.289513e-04 -8.064736e-04 -1.189050e-03 -4.018356e-03 -2.242908e-03 4.629221e-03 2.650011e-03 2.320050e-03 8.759596e-04 
9.977636e-05 -1.067139e-03 -4.758624e-03 -5.204278e-03 -3.925229e-03 9.714943e-03 1.354041e-02 -1.841440e-03 6.946805e-04 9.017568e-04 -3.801367e-04 2.468540e-03 3.455346e-04 4.710047e-04 -3.536417e-04 5.732594e-04 -5.409654e-04 5.963782e-04 -5.860051e-04 4.381304e-04 -3.673782e-04 1.897920e-04 -2.306230e-03 1.948326e-04 -1.215823e-03 -1.545686e-04 -5.230163e-04 -4.072548e-04 -1.341316e-06 -5.899360e-04 3.219276e-04 -7.332200e-04 4.610415e-04 -7.947866e-04 5.185947e-04 -7.122544e-04 5.350114e-04 -5.563961e-04 4.550429e-04 -4.101747e-04 2.878041e-04 -2.885378e-04 7.717658e-05 -1.863180e-04 -1.065045e-04 -5.682100e-05 -1.867313e-04 1.074524e-04 -1.845928e-04 2.221430e-04 -1.824603e-04 2.333894e-04 -1.686393e-04 2.106832e-04 -8.180007e-05 1.798583e-04 3.833681e-06 1.820772e-05 3.632467e-05 8.597528e-06 1.416178e-04 -8.681258e-05 2.311311e-04 -1.314724e-04 3.381901e-04 -6.818577e-05 4.162120e-04 -4.639060e-06 3.653326e-04 -2.948711e-05 1.987478e-04 -7.156458e-05 6.664764e-05 7.555996e-05 -7.818979e-05 1.686065e-04 -2.486079e-04 2.803261e-04 -3.939291e-04 3.617175e-04 -5.335226e-04 3.963009e-04 -6.228332e-04 3.885931e-04 -6.493648e-04 3.343532e-04 -5.668768e-04 2.830702e-04 -3.528231e-04 2.025240e-04 -9.283299e-05 2.340682e-05 1.450632e-04 -2.399371e-04 3.719656e-04 -5.087083e-04 5.932767e-04 -7.472328e-04 7.677716e-04 -9.141226e-04 8.893614e-04 -9.687359e-04 9.066788e-04 -9.203647e-04 8.042434e-04 -7.161148e-04 6.051462e-04 -3.808922e-04 2.539019e-04 1.774351e-05 -2.289757e-04 4.870379e-04 -7.529288e-04 1.025144e-03 -1.242127e-03 1.565575e-03 -1.661715e-03 1.985648e-03 -1.920979e-03 2.122308e-03 -1.811922e-03 1.509928e-03 -4.534590e-03 -1.895225e-02 3.535575e-03 7.910387e-03 4.282198e-03 2.815851e-03 
1.351373e-03 -1.849072e-03 -3.730425e-04 -4.109412e-03 1.268489e-02 6.069110e-03 -8.895341e-03 2.265093e-03 -2.190338e-03 -3.007413e-04 -1.145711e-03 -2.625987e-03 -2.331137e-03 1.597772e-03 -1.506416e-03 1.356928e-03 -1.382344e-03 1.569487e-03 -1.940301e-03 2.031834e-03 -2.569562e-03 2.367136e-03 2.327180e-03 6.178089e-04 1.310819e-03 2.546546e-05 1.161657e-03 -3.460792e-04 1.134054e-03 -5.916415e-04 1.078291e-03 -7.612588e-04 9.347847e-04 -8.159983e-04 7.947064e-04 -6.806655e-04 6.816495e-04 -4.573948e-04 4.971887e-04 -2.598097e-04 2.390949e-04 -1.044248e-04 -4.561792e-05 1.624778e-05 -2.774512e-04 1.623398e-04 -3.686555e-04 3.394114e-04 -3.639940e-04 4.232952e-04 -3.948509e-04 3.281660e-04 -4.553852e-04 1.583715e-04 -4.267415e-04 3.358076e-05 -2.429656e-04 4.368958e-05 7.000997e-05 -4.573228e-05 2.206853e-04 -2.244591e-04 2.426091e-04 -3.640907e-04 3.100792e-04 -3.636188e-04 3.961275e-04 -3.179013e-04 3.573150e-04 -3.053499e-04 1.758243e-04 -2.728640e-04 -5.932285e-05 -2.007399e-04 -2.124784e-04 5.009230e-05 -2.584544e-04 3.555597e-04 -3.145118e-04 5.558832e-04 -4.396678e-04 6.305163e-04 -5.544095e-04 6.108683e-04 -6.174667e-04 5.120403e-04 -5.472155e-04 4.162466e-04 -3.007703e-04 2.871386e-04 1.124061e-05 3.370844e-05 2.987274e-04 -3.236514e-04 5.771008e-04 -6.775354e-04 8.514504e-04 -9.824726e-04 1.059341e-03 -1.185061e-03 1.188348e-03 -1.230378e-03 1.164319e-03 -1.131738e-03 9.648230e-04 -8.140059e-04 6.233993e-04 -3.099326e-04 6.571661e-05 2.874083e-04 -6.769780e-04 9.847932e-04 -1.479371e-03 1.771794e-03 -2.238831e-03 2.546542e-03 -2.906469e-03 3.127682e-03 -3.310398e-03 3.268050e-03 -2.750205e-03 2.086874e-03 4.107865e-03 -2.516878e-02 8.818792e-04 7.745966e-03 3.828601e-03 2.170912e-03 
2.174064e-03 -1.316242e-04 3.294338e-03 -1.369484e-04 1.291094e-02 2.180740e-04 -1.728923e-02 6.847756e-03 -2.141717e-03 4.399973e-03 -5.013297e-04 6.442637e-03 2.130744e-03 -1.803519e-03 1.304040e-03 -1.351977e-03 8.855283e-04 -1.330833e-03 1.809485e-03 -1.981470e-03 3.522908e-03 -3.645466e-03 -4.660302e-03 -1.035155e-03 -1.883477e-03 -6.598186e-04 -8.438858e-04 -6.026732e-04 -2.471531e-04 -5.824695e-04 6.511780e-05 -5.662974e-04 1.873160e-04 -5.129356e-04 2.208816e-04 -3.839069e-04 2.118513e-04 -2.201848e-04 1.428277e-04 -7.138689e-05 2.821983e-05 5.343245e-05 -9.867240e-05 1.569251e-04 -1.962147e-04 2.597127e-04 -2.266593e-04 3.580967e-04 -2.103472e-04 3.955442e-04 -2.059663e-04 3.316881e-04 -2.185146e-04 2.065844e-04 -2.038326e-04 8.187784e-05 -1.176115e-04 2.992852e-05 -1.588987e-05 -1.152726e-04 4.788259e-05 -2.001262e-04 9.665364e-05 -2.670606e-04 1.603657e-04 -2.946577e-04 1.991717e-04 -3.083645e-04 1.647852e-04 -3.061344e-04 8.348575e-05 -2.236248e-04 2.968983e-06 -1.167337e-04 -2.969602e-05 9.255063e-05 -3.327124e-05 2.892515e-04 -8.594377e-05 3.949739e-04 -1.940973e-04 4.157788e-04 -2.963631e-04 3.826112e-04 -3.511886e-04 3.120686e-04 -3.160065e-04 2.359080e-04 -1.772857e-04 1.346013e-04 1.099187e-05 -3.071976e-05 2.012897e-04 -2.481451e-04 3.895232e-04 -4.641054e-04 5.683477e-04 -6.463691e-04 7.017001e-04 -7.610241e-04 7.710572e-04 -7.755139e-04 7.359798e-04 -6.855629e-04 5.803857e-04 -4.572145e-04 3.151382e-04 -1.041450e-04 -8.227200e-05 3.306116e-04 -5.826806e-04 8.355841e-04 -1.108269e-03 1.381101e-03 -1.579311e-03 1.878667e-03 -1.928706e-03 2.152219e-03 -2.054348e-03 1.802894e-03 -1.791301e-03 -7.341636e-04 4.770031e-03 -1.139060e-02 -3.945034e-04 2.342211e-03 2.106908e-03 1.122349e-03 
1.095629e-03 -1.459753e-04 1.927468e-03 2.394688e-04 4.891123e-03 1.513913e-04 -6.202963e-03 1.981871e-03 -1.302676e-03 3.620399e-04 -9.431044e-04 3.207841e-04 2.138894e-03 2.809978e-03 -5.872042e-04 1.494754e-03 7.214658e-04 -4.186626e-04 4.279735e-04 -1.211654e-03 -3.007152e-03 -2.076133e-03 8.462734e-06 4.602879e-04 4.756009e-04 1.258655e-04 3.936113e-04 -6.064108e-05 3.608952e-04 -1.608336e-04 3.260564e-04 -2.062164e-04 2.822407e-04 -2.034647e-04 2.365121e-04 -1.562637e-04 1.897364e-04 -8.420065e-05 1.344243e-04 -5.572831e-06 7.720780e-05 7.768092e-05 3.813528e-05 1.741514e-04 4.433246e-05 3.010855e-04 1.251619e-04 4.766403e-04 3.022755e-04 7.140381e-04 5.880363e-04 1.015709e-03 9.589487e-04 1.296909e-03 1.214659e-03 1.161294e-03 6.583184e-04 -3.693863e-04 -7.459574e-04 -9.162917e-04 -1.488594e-03 -1.706370e-03 -1.864639e-03 -2.176866e-03 -2.000600e-03 -2.204297e-03 -1.897570e-03 -1.882596e-03 -1.537107e-03 -1.340499e-03 -8.597598e-04 -5.593412e-04 5.880184e-04 1.161481e-03 1.496674e-03 1.541605e-03 1.358945e-03 1.313962e-03 9.330868e-04 9.635551e-04 5.106775e-04 6.539361e-04 1.949032e-04 4.271569e-04 8.272521e-06 2.748751e-04 -5.975091e-05 1.732290e-04 -3.847742e-05 8.759922e-05 3.027863e-05 -9.897960e-06 1.151974e-04 -1.215196e-04 2.037966e-04 -2.299846e-04 2.871682e-04 -3.184575e-04 3.501422e-04 -3.712232e-04 3.789531e-04 -3.753659e-04 3.568997e-04 -3.248960e-04 2.752232e-04 -2.113350e-04 1.345784e-04 -3.878229e-05 -6.438003e-05 1.789216e-04 -3.035528e-04 4.286163e-04 -5.470611e-04 6.831367e-04 -7.512910e-04 8.838126e-04 -8.631325e-04 9.196870e-04 -8.021102e-04 5.697172e-04 -4.780108e-04 -1.015965e-03 1.117854e-03 -3.824877e-03 -2.950777e-04 -6.124051e-04 6.970769e-04 -5.825136e-05 
