# vtk DataFile Version 2.0
Comment goes here
ASCII

DATASET STRUCTURED_POINTS
FIELD FieldData 1
TIME 1 1 double
0.07000000
DIMENSIONS    128   16   1

ORIGIN    0.000   0.000   0.000
SPACING   0.0078125 0.015625   1.000

POINT_DATA   2048
SCALARS uY double
LOOKUP_TABLE default

4.727401e-06 -1.415490e-05 -2.461034e-05 -4.372496e-05 -5.336281e-05 -6.531125e-05 -6.899979e-05 -3.740342e-05 2.863980e-05 -5.958613e-05 -8.715646e-05 -8.710856e-05 -8.788313e-05 -1.757882e-04 -2.805121e-04 -2.322473e-04 -1.574354e-04 -5.841833e-05 1.876522e-04 1.772832e-04 1.780341e-04 -2.437846e-04 -2.539155e-04 -4.364366e-04 -5.874661e-04 -7.424162e-04 -3.899006e-04 -4.711330e-05 1.062811e-04 1.202156e-04 9.278797e-05 -1.778555e-04 -5.392444e-04 -5.234627e-04 -4.341494e-04 -3.095931e-04 -1.072182e-04 1.812553e-04 4.525912e-06 9.509442e-06 1.074005e-05 -2.667361e-05 1.794806e-04 4.311466e-04 4.029184e-04 2.995220e-04 -1.528915e-04 -6.805568e-04 -9.455432e-04 -1.274098e-03 -1.228466e-03 -1.403995e-03 -1.596248e-03 -2.055564e-03 -2.418690e-03 -2.401786e-03 -2.140040e-03 -7.054723e-04 6.751987e-04 1.233368e-03 1.866162e-03 2.036854e-03 1.733387e-03 1.557475e-03 9.562527e-04 3.152709e-04 -4.729454e-04 -1.314498e-03 -1.909361e-03 -2.086842e-03 -7.822556e-04 9.053841e-04 2.236111e-03 3.316392e-03 2.978957e-03 2.263422e-03 1.644463e-03 1.138850e-03 9.855500e-04 6.805010e-04 4.170412e-04 2.295319e-04 2.060284e-04 3.307274e-04 2.893941e-04 4.294185e-05 -2.395987e-04 -5.335269e-04 -4.470942e-04 -4.118004e-04 -3.625038e-04 -4.057899e-04 -4.703012e-04 -2.048772e-04 3.121960e-06 4.740087e-04 5.198190e-04 4.574228e-04 5.217869e-04 2.689391e-04 4.350595e-04 3.466838e-04 1.259858e-04 1.616145e-04 2.705975e-04 2.606172e-04 2.538563e-04 8.888530e-05 -3.174750e-04 -3.191390e-04 2.703361e-05 2.827572e-05 -1.396125e-04 -5.556671e-05 2.385239e-04 1.918355e-04 -1.258062e-05 -5.533696e-05 -8.894066e-06 7.012755e-05 5.149932e-05 1.297557e-04 9.653473e-05 9.700953e-05 6.869189e-05 5.358006e-05 3.514217e-05 1.732325e-05 
-5.433564e-04 -1.218251e-03 -2.813114e-03 -1.721153e-03 -2.468751e-03 5.883498e-03 1.763742e-04 -5.435795e-03 -3.596782e-03 -9.112083e-03 -1.064200e-02 -1.959424e-02 -2.497544e-02 -2.619867e-02 -1.290966e-02 -7.821649e-03 -3.323332e-03 2.710817e-03 7.800238e-03 1.330283e-02 2.652815e-02 2.568844e-02 1.685421e-02 1.101391e-02 5.927437e-03 3.309355e-03 2.528239e-03 2.753218e-03 1.587339e-03 9.071446e-04 5.597153e-04 3.069038e-05 -1.333109e-03 -1.117693e-03 -6.001675e-04 -2.878126e-04 -3.010398e-05 8.963926e-04 -2.032381e-04 1.306573e-04 -1.399399e-04 -1.749133e-05 2.506109e-04 1.297016e-03 1.012292e-03 1.437780e-03 2.849186e-04 -7.547013e-04 -1.426870e-03 -1.366330e-03 -9.203686e-04 -7.471819e-04 -1.099433e-03 -2.649394e-03 -4.503736e-03 -7.216189e-03 -8.079056e-03 -1.703210e-03 3.932994e-03 1.839427e-03 2.068167e-03 2.348825e-03 8.914103e-04 1.179090e-03 8.127440e-04 1.030483e-04 -8.808041e-04 -1.733457e-03 -2.823167e-03 -3.432073e-03 -1.233325e-03 -1.175091e-03 -1.207858e-03 2.531830e-03 4.176646e-03 3.865198e-03 3.547119e-03 2.996670e-03 2.744277e-03 1.556477e-03 6.319537e-04 7.252569e-05 4.455698e-04 1.106594e-03 1.211734e-03 4.034320e-04 -5.918716e-04 -1.016549e-03 -5.664370e-04 4.991332e-04 2.891183e-04 -1.034977e-04 -1.360149e-03 -5.187271e-04 -1.489833e-04 1.669694e-03 8.076404e-04 1.777704e-04 1.207630e-04 -2.254690e-04 9.592974e-04 8.480958e-04 -4.221714e-04 -7.382138e-04 4.843110e-04 2.054643e-04 1.337944e-03 -2.506397e-04 -1.031213e-03 -1.667083e-03 1.377895e-03 -6.326813e-05 -4.725475e-04 -1.083898e-03 1.515812e-03 5.626227e-04 4.253885e-05 4.502626e-05 4.712391e-04 1.830867e-03 -2.345181e-04 4.290294e-03 -5.118690e-03 -1.260575e-03 2.465817e-03 1.715616e-03 1.759335e-03 4.158994e-04 
-9.887245e-04 -3.240778e-03 -5.727995e-03 -6.953181e-03 -7.435403e-03 2.004687e-02 7.697257e-03 -8.239879e-03 1.973693e-03 -8.998156e-03 -1.094570e-03 -1.120831e-02 1.964876e-03 9.005744e-03 5.071136e-03 1.528336e-03 7.506652e-04 -7.604845e-04 -8.640408e-04 -1.716453e-03 -8.824031e-03 -1.450650e-04 4.826521e-03 3.389841e-03 1.528495e-03 -2.246671e-03 9.902791e-04 3.360394e-03 2.347340e-03 5.538305e-04 8.564578e-04 -6.458618e-04 -3.241522e-03 -2.428751e-03 -8.489737e-04 -1.042505e-03 3.770744e-05 2.148978e-03 -3.734343e-04 1.071810e-04 -7.357876e-04 -9.992303e-04 3.406702e-05 2.302780e-03 1.803203e-03 2.758310e-03 -1.677812e-04 -2.906525e-03 -3.695118e-03 -3.017860e-03 -2.130032e-03 -1.518560e-03 -2.520992e-03 -6.107432e-03 -9.982442e-03 -1.368546e-02 -1.186766e-02 1.271814e-03 1.024810e-02 5.782758e-03 6.608913e-03 6.229149e-03 3.828927e-03 5.149648e-03 4.578732e-03 4.295291e-03 3.351516e-03 2.891804e-03 2.133829e-03 9.610457e-04 5.573839e-03 3.991668e-03 -2.652787e-03 -2.808201e-03 -3.433225e-03 -3.193856e-03 -1.017202e-03 3.827535e-04 1.544025e-03 2.757775e-05 -1.332740e-03 -1.975353e-03 -4.453131e-04 1.631596e-03 2.253059e-03 5.831965e-04 -1.697916e-03 -2.746075e-03 -1.414552e-03 1.246837e-03 1.091484e-03 1.843118e-04 -2.908018e-03 -1.539021e-03 -5.436289e-04 3.557687e-03 1.227779e-03 -1.943142e-04 3.906294e-05 -1.018431e-03 1.546472e-03 1.574549e-03 -1.498125e-03 -1.820544e-03 8.522555e-04 4.097137e-04 3.157828e-03 -1.890773e-04 -2.880511e-03 -4.093963e-03 3.350607e-03 3.028468e-04 -1.684657e-03 -2.741847e-03 4.148452e-03 1.756733e-03 -1.933045e-04 -8.716379e-04 1.222350e-03 3.015746e-03 -7.139706e-04 7.735564e-03 -1.741834e-02 -2.009430e-03 1.100720e-02 3.678447e-03 3.802288e-03 -7.428811e-05 
-1.848491e-03 -8.430510e-03 -1.671584e-02 -2.692220e-02 -3.703409e-02 9.369443e-03 7.847663e-03 -3.113277e-03 6.040778e-03 -1.963245e-03 6.373532e-03 3.066198e-03 5.943674e-03 -6.823932e-03 3.198541e-04 -2.084109e-03 5.593723e-04 -1.869879e-03 7.327328e-04 1.923862e-03 4.709949e-03 -6.297132e-03 -5.872564e-03 5.156569e-04 -1.419555e-03 -5.128372e-03 -2.125431e-03 1.879934e-03 1.051312e-03 -1.960163e-04 -9.221935e-04 -2.254491e-03 -3.393270e-03 -8.423355e-04 -1.383797e-03 -2.362175e-03 -1.270624e-03 2.004660e-03 5.305121e-04 2.492548e-03 -2.894765e-04 1.951651e-05 6.996760e-04 2.157698e-03 1.278288e-03 2.167577e-03 -1.072802e-03 -2.067288e-03 -1.021478e-04 2.332135e-03 1.236915e-03 2.145728e-03 8.564552e-04 -3.854334e-04 -2.616765e-04 1.423001e-03 4.954777e-03 -4.517845e-04 -2.862474e-03 -1.238525e-03 -4.355124e-04 -1.838639e-03 -1.138208e-04 1.306814e-04 -2.482128e-03 -3.233073e-03 -4.352119e-03 -2.872808e-03 -1.525003e-03 -1.643393e-03 2.919684e-04 1.270793e-03 2.793913e-03 2.363062e-03 -1.071100e-03 -1.959066e-03 -1.154268e-03 -9.443678e-04 -6.130899e-04 -1.125675e-03 -7.664273e-04 -1.024939e-03 2.321309e-04 6.952972e-04 1.194062e-03 9.052110e-04 -1.722255e-04 -1.299295e-03 -1.703743e-03 -5.866313e-04 -7.157925e-04 1.801248e-03 -4.263683e-04 2.849507e-04 -1.107956e-03 1.176306e-03 -8.956739e-04 9.815456e-04 2.143010e-03 6.478335e-04 -6.331312e-04 -3.227743e-04 2.779509e-04 6.192240e-04 1.418077e-03 -7.308357e-04 1.558792e-03 -8.899301e-04 -9.796221e-04 -4.776115e-03 6.767372e-04 -2.005201e-03 -2.755378e-04 -2.432617e-03 4.926112e-03 1.719921e-03 6.055554e-04 -2.005393e-03 3.160063e-04 7.095222e-04 -1.531794e-03 4.570624e-03 -1.525810e-02 2.960392e-02 4.089073e-02 1.948045e-02 1.223096e-02 3.057872e-03 
-2.620350e-03 -9.658847e-03 -1.837634e-02 -3.034067e-02 -4.327434e-02 -2.339960e-02 -6.404912e-03 -2.090757e-03 -5.596246e-04 -4.567222e-03 6.704442e-04 -5.778591e-03 -2.318852e-03 -7.833806e-06 3.043856e-04 -1.651271e-04 3.403832e-04 -2.678457e-04 -1.815317e-04 -3.031264e-04 -3.131613e-04 3.687059e-04 3.085975e-03 3.743596e-03 4.673031e-03 4.275290e-06 4.757333e-04 -9.070884e-04 4.478820e-04 -3.838060e-04 -1.191476e-03 -1.757469e-03 6.493390e-04 2.312363e-03 -5.514079e-04 -1.421943e-03 -1.703211e-03 -1.684841e-04 1.159284e-03 3.457901e-03 6.505373e-04 1.815907e-03 6.663251e-04 -4.393296e-04 -1.459166e-03 -1.608545e-03 -2.266050e-03 1.910615e-04 2.903233e-03 4.395899e-03 5.226354e-04 -6.959901e-04 -3.047272e-03 -2.797659e-03 -9.724524e-04 -9.606029e-05 1.400296e-03 1.439906e-04 1.180047e-03 2.937977e-05 -2.590949e-04 7.245626e-04 2.634153e-03 1.690058e-03 -1.118713e-03 -3.778159e-03 -4.705822e-03 -7.581771e-04 1.720087e-03 1.933971e-03 2.033477e-03 -2.193827e-03 -2.806472e-03 -7.463314e-05 1.713892e-03 1.834258e-03 7.420012e-05 -2.052144e-03 -3.319538e-03 -2.076461e-03 4.481053e-04 9.183624e-04 5.625977e-04 -1.811549e-03 -1.973018e-03 1.199863e-05 1.770882e-03 1.961716e-03 -6.463172e-04 -2.608468e-03 -2.925350e-03 2.104458e-03 3.166255e-03 2.834512e-03 -8.641843e-04 -3.100030e-03 -2.863174e-03 2.004183e-03 2.780645e-03 2.693331e-03 -2.688104e-03 -2.316149e-03 2.797210e-03 3.397263e-03 9.980017e-04 -1.661067e-03 -2.110023e-03 -1.467068e-03 3.169007e-03 -1.036673e-03 -3.391789e-03 -3.668028e-03 2.845802e-03 4.940807e-04 1.488585e-03 -4.951386e-05 2.345254e-03 -3.021572e-04 7.959140e-05 -9.283983e-04 1.123576e-03 4.848171e-04 1.101069e-02 5.063684e-02 4.205597e-02 2.324998e-02 1.207985e-02 4.026833e-03 
-1.455467e-03 -3.938095e-03 -8.423895e-03 -1.190445e-02 -1.885276e-02 -2.135835e-02 -1.010093e-02 -3.211538e-03 -5.089957e-03 -6.479938e-03 -5.076387e-03 -1.208132e-02 -6.861723e-03 -4.345736e-05 1.774030e-04 -3.322966e-04 2.871916e-04 -2.666552e-04 8.422844e-05 -1.113139e-04 -3.860400e-04 6.769598e-03 9.444558e-03 4.534230e-03 5.512896e-03 2.697498e-03 1.850641e-03 -8.479298e-04 8.026195e-05 -1.258830e-04 -6.331477e-04 -4.081197e-04 1.130688e-03 1.554110e-03 -3.380081e-04 -1.100186e-04 -1.016610e-03 -6.602102e-04 2.456948e-04 1.501780e-03 2.506741e-04 1.246094e-03 -2.036165e-04 -1.119446e-03 -1.952476e-03 -2.221339e-03 -2.018449e-03 -2.171531e-04 1.320594e-04 -1.710123e-04 -3.211863e-03 -5.379295e-03 -8.093653e-03 -9.837257e-03 -1.108186e-02 -1.373159e-02 -1.094196e-02 4.419381e-03 9.419826e-03 1.587829e-03 4.634566e-03 5.889733e-03 5.236287e-03 6.183187e-03 3.408878e-03 2.475251e-03 2.800748e-03 4.058720e-03 5.880886e-03 4.184817e-03 5.386178e-03 1.197464e-03 -4.937703e-03 -2.372763e-03 1.684129e-03 2.394175e-03 1.022196e-03 -6.590543e-04 -1.644257e-03 -9.255868e-04 5.344765e-04 7.751948e-04 2.095069e-04 -1.442410e-03 -1.675313e-03 -3.312399e-04 1.019574e-03 1.629659e-03 -2.249627e-05 -1.321217e-03 -1.734676e-03 8.896812e-04 1.941736e-03 1.902006e-03 -2.769547e-04 -2.028158e-03 -1.503206e-03 1.182721e-03 9.970022e-04 1.661544e-03 -1.279983e-03 -1.163039e-03 1.835037e-03 1.861867e-03 3.575395e-04 -9.611490e-04 -1.568298e-03 -1.032621e-03 2.481881e-03 4.469353e-04 -1.996417e-03 -2.011916e-03 2.362557e-03 9.980923e-04 -3.957965e-05 -3.060999e-04 2.123256e-03 1.414128e-03 1.022480e-03 1.243014e-03 3.026346e-03 3.071088e-03 1.539845e-02 2.646770e-02 1.513092e-02 1.137965e-02 5.210585e-03 2.889740e-03 
-1.127346e-03 -3.105969e-03 -5.676643e-03 -7.304199e-03 -9.326263e-03 -9.326832e-03 -7.714568e-03 -7.638899e-03 -7.004027e-03 -1.067067e-02 -1.021017e-02 -1.843934e-02 -1.431507e-02 -7.048870e-05 6.446234e-05 -7.902880e-05 7.672459e-05 -1.010356e-04 2.792781e-05 -1.121021e-04 6.353611e-05 1.488667e-02 1.689531e-02 8.303921e-03 8.032421e-03 3.653533e-03 3.907702e-03 1.523469e-03 1.890501e-03 6.798606e-04 7.711464e-04 2.369013e-04 4.694988e-04 4.289965e-04 3.545781e-05 8.589195e-05 -1.948456e-04 1.657313e-04 4.331500e-05 5.700210e-04 -2.742242e-05 3.326937e-04 -2.716458e-04 -2.697062e-04 -7.734139e-04 -7.087648e-04 -1.072625e-03 -7.696299e-04 -1.102542e-03 -1.223555e-03 -2.471559e-03 -3.353250e-03 -4.853375e-03 -6.249133e-03 -7.392147e-03 -8.451486e-03 -6.085482e-03 1.862014e-03 3.442403e-03 2.163231e-04 2.314310e-03 9.842642e-04 1.194127e-03 2.274996e-03 -5.531872e-04 5.504158e-04 1.629127e-03 1.597194e-04 9.820538e-04 -3.093366e-04 -2.291590e-04 1.078578e-03 1.844771e-03 3.629286e-03 4.756032e-03 4.383314e-03 3.308126e-03 2.211094e-03 1.410928e-03 9.932615e-04 9.240995e-04 6.540053e-04 4.816255e-04 9.474922e-05 6.147567e-06 1.849725e-04 2.484505e-04 3.770759e-04 -5.408115e-05 -1.828188e-05 -2.781286e-04 4.744367e-04 3.243459e-04 5.785611e-04 -7.465933e-05 -1.966139e-05 -2.847812e-04 4.961410e-04 2.226416e-04 5.568356e-04 -7.910587e-05 4.999932e-05 4.685139e-04 3.994787e-04 2.699457e-04 -2.354226e-04 -1.904836e-05 -4.190954e-04 4.913500e-04 -3.859906e-04 2.621207e-05 -5.583123e-04 8.489411e-04 1.404461e-04 9.622725e-04 4.599237e-04 1.447695e-03 1.151672e-03 1.794056e-03 2.251723e-03 3.153172e-03 4.712087e-03 6.380035e-03 1.050181e-02 7.592696e-03 6.553349e-03 3.504844e-03 1.697774e-03 
-4.675959e-04 -1.122909e-03 -2.265074e-03 -3.007182e-03 -3.746244e-03 -4.392188e-03 -3.635076e-03 -3.795021e-03 -3.583057e-03 -5.193515e-03 -5.109004e-03 -9.242053e-03 -7.125600e-03 -4.998043e-05 3.345585e-05 -8.026696e-05 4.510454e-05 -9.013265e-05 2.497619e-05 -8.107906e-05 3.551682e-05 7.417002e-03 8.385714e-03 3.726922e-03 3.680107e-03 1.572833e-03 1.685646e-03 5.037826e-04 6.542319e-04 1.409172e-04 1.899276e-04 3.627303e-05 1.350021e-04 1.436912e-04 -8.186928e-05 -3.361729e-05 -2.473557e-04 -1.443240e-04 -2.425740e-04 -5.121138e-05 -3.473366e-04 -2.321566e-04 -6.126839e-04 -7.151745e-04 -1.040393e-03 -1.120675e-03 -1.371811e-03 -1.346648e-03 -1.729041e-03 -2.000929e-03 -2.791112e-03 -3.359961e-03 -4.149512e-03 -4.671547e-03 -5.110880e-03 -5.355112e-03 -4.679748e-03 2.728724e-05 4.056179e-03 3.536296e-03 2.936541e-03 2.054916e-03 2.047068e-03 2.049834e-03 1.014308e-03 1.319694e-03 1.818320e-03 1.211164e-03 1.384890e-03 1.223918e-03 1.071935e-03 4.847934e-04 4.955304e-04 1.428671e-03 2.117288e-03 2.197729e-03 1.727990e-03 1.225563e-03 7.753533e-04 5.483558e-04 4.398415e-04 2.915447e-04 1.568627e-04 -3.542133e-05 -1.000542e-04 -6.454604e-06 4.576015e-05 1.559836e-04 -2.497584e-06 2.489551e-05 -6.291652e-05 2.297572e-04 2.229123e-04 3.000767e-04 5.631441e-05 1.055590e-05 -8.081242e-05 2.338281e-04 8.606899e-05 2.924198e-04 1.324720e-05 7.752513e-05 2.365511e-04 1.917646e-04 1.202870e-04 -6.380756e-05 -3.629120e-06 -1.148144e-04 2.946657e-04 4.617199e-06 1.244937e-04 -5.832584e-05 5.054845e-04 2.724684e-04 5.416066e-04 4.165195e-04 8.635126e-04 8.103516e-04 1.140909e-03 1.304746e-03 1.889375e-03 2.332534e-03 3.180507e-03 4.247831e-03 2.916578e-03 2.833003e-03 1.339475e-03 8.794059e-04 
-1.116649e-05 -1.889077e-05 -3.966005e-05 -5.301193e-05 -7.836823e-05 -1.007138e-04 -1.315074e-04 -1.600878e-04 -1.817667e-04 -1.795585e-04 -1.846793e-04 -1.639205e-04 -1.744240e-04 -7.630122e-06 1.303296e-05 -1.216544e-05 4.340375e-06 -2.938518e-05 -6.818320e-06 -4.787404e-05 -3.297105e-06 -1.793735e-04 -3.528653e-06 -8.233055e-05 4.690723e-05 -4.286083e-05 4.653020e-07 -9.850093e-05 -8.381262e-05 -1.345840e-04 -1.137106e-04 -1.138671e-04 -7.487207e-05 -5.236730e-05 -7.565564e-05 -1.038781e-04 -1.281905e-04 -1.587168e-04 -1.639108e-04 -1.766600e-04 -2.041779e-04 -2.380372e-04 -2.924413e-04 -3.757712e-04 -4.452455e-04 -5.456113e-04 -6.406970e-04 -7.382936e-04 -9.136812e-04 -1.109205e-03 -1.418492e-03 -1.685751e-03 -1.981504e-03 -2.131494e-03 -2.179809e-03 -1.933877e-03 -1.603939e-03 -7.381365e-04 -3.104402e-04 -2.667875e-04 1.178910e-04 5.397153e-05 1.601458e-04 3.293708e-04 1.430276e-04 2.918803e-04 4.284626e-04 3.256876e-04 5.334024e-04 3.919533e-04 3.852757e-04 5.760963e-04 1.048994e-03 1.766837e-03 2.125085e-03 2.142208e-03 1.894157e-03 1.595518e-03 1.281199e-03 1.039689e-03 8.180034e-04 6.448075e-04 4.823765e-04 3.499216e-04 2.393284e-04 1.695115e-04 1.362777e-04 1.130706e-04 1.206858e-04 1.100085e-04 1.437713e-04 1.706411e-04 2.160177e-04 1.962994e-04 1.874124e-04 1.308632e-04 1.363634e-04 1.502420e-04 1.551684e-04 1.552312e-04 1.185200e-04 9.227869e-05 9.809868e-05 8.073753e-05 4.376537e-05 2.298262e-05 -3.325406e-07 2.393933e-05 6.656450e-05 8.343712e-05 1.022378e-04 1.370821e-04 2.102265e-04 2.325120e-04 2.645875e-04 2.689622e-04 2.767537e-04 2.581399e-04 2.271283e-04 2.096316e-04 1.681277e-04 1.525495e-04 1.017447e-04 8.776913e-05 5.049178e-05 4.182405e-05 1.572135e-05 9.486597e-06 
4.594349e-04 1.094687e-03 2.215962e-03 2.920504e-03 3.634023e-03 4.208029e-03 3.409334e-03 3.433215e-03 3.193132e-03 4.794503e-03 4.773417e-03 8.911626e-03 6.802340e-03 4.123541e-05 -2.610129e-05 5.694013e-05 -6.994459e-05 1.083210e-05 -9.341896e-05 -5.871410e-05 -8.727845e-05 -7.962591e-03 -8.523202e-03 -3.900899e-03 -3.497626e-03 -1.529114e-03 -1.681164e-03 -8.562190e-04 -1.037847e-03 -6.394574e-04 -6.339356e-04 -3.786432e-04 -2.191414e-04 -1.281338e-04 -3.360709e-05 -2.283595e-04 -1.561640e-04 -4.439512e-04 -2.982517e-04 -5.088511e-04 -3.069093e-04 -5.047963e-04 -3.682957e-04 -6.226858e-04 -5.163610e-04 -7.418136e-04 -6.298004e-04 -7.668354e-04 -7.772685e-04 -1.018245e-03 -1.175852e-03 -1.453095e-03 -1.578952e-03 -1.629892e-03 -1.551905e-03 -1.213048e-03 -9.049359e-04 -1.711456e-04 3.424183e-04 6.362205e-04 7.761480e-04 8.760474e-04 9.202467e-04 9.672067e-04 8.397105e-04 7.920790e-04 7.554496e-04 6.871851e-04 7.203678e-04 7.400150e-04 7.235142e-04 7.565950e-04 7.850454e-04 9.387180e-04 9.729267e-04 9.837063e-04 8.272899e-04 6.587750e-04 4.273933e-04 3.065681e-04 1.524964e-04 1.148321e-04 2.837327e-05 -2.610891e-05 -1.147876e-04 -2.034532e-04 -1.439822e-04 -1.349291e-04 7.669478e-05 3.844298e-05 2.301178e-04 1.098675e-04 3.129829e-04 1.432449e-04 2.786003e-04 1.703874e-06 1.274937e-04 -6.077129e-05 1.342738e-04 2.631023e-05 1.214239e-04 2.007058e-06 -5.417309e-06 -5.208839e-06 -7.939078e-05 2.184213e-05 -1.340742e-04 1.162781e-04 -1.145841e-05 2.903579e-04 4.109214e-05 3.188312e-04 2.713937e-05 2.856122e-04 -1.184958e-05 1.402433e-04 -2.242470e-04 -2.164632e-04 -6.402665e-04 -8.649659e-04 -1.538132e-03 -2.038896e-03 -2.994422e-03 -4.096312e-03 -2.830243e-03 -2.763410e-03 -1.308950e-03 -8.622892e-04 
1.111425e-03 3.091156e-03 5.638174e-03 7.252502e-03 9.227262e-03 9.172105e-03 7.440046e-03 7.159078e-03 6.451065e-03 1.017093e-02 9.789446e-03 1.815763e-02 1.400201e-02 9.083093e-05 3.207399e-07 1.045810e-04 -5.818423e-05 4.733845e-05 -1.010902e-04 -5.761798e-05 -1.522833e-04 -1.565134e-02 -1.701737e-02 -8.223907e-03 -7.541848e-03 -3.355531e-03 -3.754426e-03 -1.798654e-03 -2.275729e-03 -1.176262e-03 -1.273556e-03 -6.277759e-04 -4.605943e-04 -8.168480e-05 2.004441e-05 -2.804287e-04 -1.288548e-04 -6.310157e-04 -3.530446e-04 -7.497459e-04 -1.891571e-04 -5.034755e-04 -5.523277e-05 -3.539201e-04 5.300603e-05 -2.918918e-04 1.006150e-04 5.398620e-06 2.021412e-04 -1.715769e-04 -1.293099e-04 -5.323985e-04 -5.786523e-04 -7.727122e-04 -7.647303e-04 -4.992170e-04 -5.756861e-04 -2.121054e-04 -3.064680e-04 -1.030295e-06 -8.936559e-05 1.170314e-04 1.779958e-04 2.752418e-04 2.110447e-04 8.141358e-05 4.967198e-05 1.057632e-04 2.105566e-04 4.953907e-04 5.824345e-04 8.292233e-04 7.526692e-04 8.355320e-04 8.986833e-04 1.006842e-03 8.877162e-04 6.519683e-04 4.528996e-04 4.170141e-04 1.952859e-04 2.347075e-04 1.139390e-04 1.493339e-04 -8.492038e-05 -3.393252e-04 -3.233834e-04 -3.624348e-04 1.425991e-04 -1.477763e-05 3.705419e-04 7.963859e-06 5.120892e-04 1.793604e-04 5.399849e-04 -5.715834e-05 2.785911e-04 -1.376997e-04 3.098853e-04 2.554723e-05 2.514418e-04 -7.099301e-05 -1.365182e-04 -5.280536e-05 -2.232021e-04 4.650011e-05 -4.255839e-04 2.330202e-04 -2.332471e-04 5.762865e-04 -1.110448e-04 6.652667e-04 -2.139001e-04 5.606922e-04 -2.642309e-04 2.668571e-04 -6.470996e-04 -4.844234e-04 -1.302142e-03 -1.798559e-03 -2.787718e-03 -4.375836e-03 -6.236749e-03 -1.040159e-02 -7.557681e-03 -6.524168e-03 -3.504950e-03 -1.694651e-03 
1.456347e-03 3.962339e-03 8.463428e-03 1.197392e-02 1.894228e-02 2.149510e-02 1.007836e-02 2.288042e-03 3.825174e-03 5.656963e-03 4.908757e-03 1.185940e-02 6.711460e-03 2.610788e-04 -1.647245e-04 4.727484e-04 -2.664265e-04 2.054037e-04 -3.961961e-04 -2.159801e-04 -3.126566e-04 -8.895886e-03 -1.016852e-02 -4.061057e-03 -3.321926e-03 -1.918965e-04 -9.978167e-04 -5.011735e-04 -1.776844e-03 -1.583638e-03 -1.492548e-03 -7.456730e-04 3.469129e-04 1.006050e-03 1.249294e-03 4.038361e-05 1.416614e-05 -1.346269e-03 -8.890829e-04 -1.245009e-03 -5.763224e-05 -2.919048e-04 2.208208e-04 -5.258405e-04 -1.336163e-04 -7.430801e-04 2.431980e-04 7.107549e-04 1.170936e-03 6.899472e-04 4.485871e-04 -5.869431e-04 -7.408978e-04 -9.978257e-04 -5.863340e-04 1.984906e-04 2.458944e-04 5.481553e-04 5.703486e-06 7.333749e-05 -2.261761e-04 3.032113e-04 7.292809e-04 1.011408e-03 7.688240e-04 9.020270e-05 -4.046552e-04 -4.276719e-04 2.052325e-06 9.436193e-04 1.236801e-03 1.291862e-03 5.100643e-04 1.492698e-04 2.897647e-04 7.262121e-04 7.108784e-04 1.113653e-04 -4.541479e-04 -5.902845e-04 -7.421618e-04 -2.643246e-04 -1.965382e-05 1.357653e-04 -5.770249e-04 -1.376188e-03 -1.327208e-03 -8.403227e-04 4.298047e-04 4.649874e-04 8.107861e-04 1.461555e-04 8.745192e-04 6.877299e-04 9.703539e-04 -3.209053e-04 -2.925751e-04 -9.537344e-04 2.624763e-04 2.055692e-04 6.871665e-04 -1.401590e-04 -4.594387e-04 -3.395414e-04 -3.562432e-04 -1.604811e-04 -9.727916e-04 3.093305e-05 -4.006562e-05 1.159756e-03 2.224179e-04 9.465768e-04 -3.537094e-04 7.516563e-04 1.276384e-04 7.171775e-04 -4.988155e-04 -6.366179e-05 -4.713196e-04 -8.283215e-04 -2.623242e-03 -2.802258e-03 -1.546783e-02 -2.655146e-02 -1.521953e-02 -1.142789e-02 -5.248671e-03 -2.901232e-03 
2.637557e-03 9.742690e-03 1.853067e-02 3.060826e-02 4.366763e-02 2.398419e-02 6.297131e-03 4.569084e-04 -1.335176e-03 3.049658e-03 -1.304288e-03 5.919390e-03 2.503806e-03 4.291602e-04 -2.689580e-05 5.600098e-04 -1.767608e-04 3.004932e-04 -2.980663e-04 -2.176933e-04 -4.769220e-04 -4.671872e-03 -4.560870e-03 -8.118305e-04 -9.594437e-04 2.345108e-03 3.880166e-04 5.621495e-05 -2.199829e-03 -1.322000e-03 -1.136193e-03 -8.849374e-04 2.611307e-04 2.397459e-03 2.225567e-03 6.967199e-05 2.912411e-04 -1.646100e-03 -1.770995e-03 -2.716010e-03 -1.720908e-04 -6.744484e-04 1.199967e-04 1.371493e-04 1.061001e-03 -6.404535e-04 6.809153e-04 2.321266e-03 2.658849e-03 1.090498e-03 1.492954e-03 3.625785e-04 6.818408e-05 -1.250441e-03 -8.881634e-04 5.777182e-04 -2.755493e-04 3.881996e-04 -2.726323e-05 9.346675e-04 -2.044531e-04 8.507385e-05 9.714482e-04 1.400027e-03 9.926751e-04 -7.176719e-04 -9.481150e-04 -7.395053e-04 -2.595203e-04 1.168253e-03 1.606796e-03 2.173795e-03 1.963955e-04 -1.210448e-03 -2.505712e-04 1.346769e-03 1.018212e-03 -1.007145e-03 -9.326751e-04 -8.728048e-05 -8.676767e-04 -5.453805e-04 -3.847538e-06 1.373936e-03 -1.034377e-04 -2.222063e-03 -3.164811e-03 -2.243722e-03 8.852982e-04 8.565777e-04 8.362130e-04 -7.087342e-04 1.221827e-03 1.500540e-03 1.823176e-03 -7.851688e-04 -3.088462e-04 -9.472463e-04 8.778021e-04 6.942622e-04 1.452576e-03 -6.629181e-04 -1.422274e-03 -3.888118e-04 -9.540062e-05 -2.047787e-04 -2.154861e-03 6.372505e-05 -4.979228e-04 1.825421e-03 3.712348e-04 2.069407e-03 -7.240600e-04 1.755565e-03 2.738594e-04 2.050013e-03 -4.337933e-04 1.052598e-03 -4.718707e-06 1.318389e-03 -5.778352e-04 2.218944e-04 -1.119285e-02 -5.113076e-02 -4.235164e-02 -2.345191e-02 -1.218872e-02 -4.072412e-03 
1.859365e-03 8.468928e-03 1.679882e-02 2.705650e-02 3.724140e-02 -9.123505e-03 -8.458926e-03 2.193588e-03 -6.360221e-03 9.322494e-04 -7.493585e-03 -2.634556e-03 -5.218103e-03 6.592062e-03 -8.714462e-04 2.469272e-03 -2.026353e-04 6.687220e-04 -1.818129e-03 -1.572659e-03 -3.901792e-03 2.672438e-03 4.542076e-03 2.213753e-03 1.329683e-03 1.406546e-03 8.979488e-04 1.231997e-05 3.609858e-04 1.506421e-03 2.370632e-03 3.429833e-04 6.703835e-05 1.244657e-03 1.126229e-03 -3.546202e-04 1.087906e-03 1.002096e-04 -2.591364e-04 -2.370926e-03 1.010104e-04 -1.301055e-03 5.258729e-05 1.279596e-03 3.007630e-03 9.048693e-04 1.293037e-03 2.016536e-03 1.858411e-03 -3.743993e-04 1.369328e-03 1.603350e-03 1.592458e-03 -2.652904e-04 -1.015813e-03 -2.240703e-04 -2.082997e-03 -6.831370e-04 4.958069e-05 2.513916e-03 1.199399e-03 6.555304e-04 7.713716e-04 6.688690e-04 4.526644e-04 -8.967317e-04 -5.393973e-05 2.012214e-04 -3.801654e-04 -4.770050e-04 -7.538910e-04 3.607157e-04 -9.660301e-04 -2.154639e-03 -9.257466e-04 6.795527e-04 4.012145e-05 -1.811265e-03 -2.328156e-04 1.780876e-03 5.281810e-04 -3.913181e-05 -1.696696e-04 1.882193e-03 1.053496e-03 -6.291331e-04 -2.245583e-03 -2.520196e-03 1.745167e-04 -6.611718e-04 -4.763030e-04 -2.166959e-03 4.621522e-04 4.739526e-04 1.485954e-03 -4.517857e-04 1.395708e-03 1.261104e-03 1.751692e-03 9.073302e-04 1.135645e-03 -4.700159e-04 -1.181240e-03 7.395360e-04 3.748398e-04 8.361513e-04 -1.799155e-03 1.167466e-03 -1.591283e-03 1.435039e-03 -6.870117e-04 2.684699e-03 -9.225386e-04 2.377969e-03 -6.918827e-04 2.027430e-03 -5.346274e-04 5.891100e-04 -8.604687e-04 -2.886513e-04 2.078747e-03 -3.420832e-03 1.546354e-02 -2.993496e-02 -4.102923e-02 -1.961211e-02 -1.228614e-02 -3.093897e-03 
9.939598e-04 3.204858e-03 5.676379e-03 6.833704e-03 7.275714e-03 -2.037711e-02 -8.292310e-03 8.361844e-03 -1.059027e-03 8.907638e-03 4.658987e-04 1.127457e-02 -1.384720e-03 -9.474273e-03 -6.883788e-03 -2.916344e-03 -1.954158e-03 3.552313e-04 2.634358e-03 4.731711e-03 1.089910e-02 -1.239124e-03 -5.740108e-03 -3.818283e-03 -4.790677e-03 -3.236207e-03 -3.022790e-03 -1.378330e-03 -7.302048e-05 1.566346e-03 1.806743e-03 5.258940e-04 -7.557784e-04 -9.021415e-04 -9.238438e-04 -6.692913e-04 5.592470e-04 8.673020e-04 8.779559e-04 -6.155836e-04 1.399281e-04 -1.005782e-03 6.156522e-05 9.205478e-04 2.147112e-03 1.257489e-03 8.869976e-04 6.335322e-05 -1.543718e-04 -1.302143e-03 7.259150e-05 8.415303e-04 1.071257e-03 2.792595e-04 -7.142334e-04 -8.527241e-04 -1.932219e-03 -6.993773e-04 2.694477e-04 2.198234e-03 1.854679e-03 1.395863e-03 8.045423e-04 4.130954e-04 4.261903e-04 3.153460e-04 1.126454e-03 1.086401e-03 1.544764e-04 -9.122305e-04 -1.440399e-03 -6.651413e-04 -4.267923e-04 -4.016936e-04 -1.279404e-04 5.759035e-05 -3.988919e-04 -6.760537e-04 5.583870e-04 1.732139e-03 1.046504e-03 3.863372e-04 -2.629200e-04 6.058886e-04 8.054493e-04 7.289529e-04 -7.798846e-06 -1.104709e-03 -6.812856e-04 -1.644437e-03 -1.043413e-03 -1.736133e-03 -3.134570e-04 -8.172867e-04 3.360025e-04 1.553116e-04 1.874834e-03 1.873977e-03 1.327936e-03 4.168065e-04 2.183658e-04 1.673677e-04 -1.513692e-06 1.074208e-03 2.437855e-04 1.124088e-03 -3.596605e-04 1.342850e-03 -1.452400e-03 4.343711e-04 -1.262856e-03 1.459947e-03 -7.129300e-04 1.341710e-03 -1.254390e-03 5.348701e-04 -7.520620e-04 -6.436303e-04 -1.549297e-03 -2.681969e-03 9.716712e-04 -7.031544e-03 1.785300e-02 2.200482e-03 -1.085163e-02 -3.599800e-03 -3.744217e-03 9.003158e-05 
5.397313e-04 1.183749e-03 2.739577e-03 1.603638e-03 2.286158e-03 -6.147274e-03 -4.931738e-04 5.448486e-03 3.885010e-03 9.018907e-03 1.031032e-02 1.939154e-02 2.492499e-02 2.576028e-02 1.211868e-02 6.987377e-03 2.693331e-03 -3.085561e-03 -7.111694e-03 -1.267208e-02 -2.589055e-02 -2.623136e-02 -1.742384e-02 -1.196095e-02 -7.788000e-03 -5.748154e-03 -3.553005e-03 -2.213435e-03 -7.400716e-04 -8.538059e-05 3.937320e-04 -4.663266e-05 -4.056911e-04 -6.918188e-04 -4.740295e-04 -3.181845e-04 2.653516e-04 3.777386e-04 5.642670e-04 -3.606006e-05 2.886393e-04 -1.945832e-04 4.346221e-04 6.373497e-04 1.161098e-03 8.679590e-04 6.769821e-04 -5.755293e-05 -1.342739e-04 -6.575868e-04 -1.980025e-04 -1.576382e-04 -1.756881e-04 -6.293940e-04 -1.291533e-03 -1.505671e-03 -1.875502e-03 -7.702921e-04 4.353945e-05 8.428960e-04 9.423856e-04 9.203543e-04 4.534674e-04 2.215229e-04 3.023331e-05 -1.538726e-04 -1.844570e-04 -5.260291e-04 -1.052682e-03 -1.495776e-03 -1.291262e-03 -5.373066e-04 8.733932e-05 7.462645e-04 8.845221e-04 8.359327e-04 7.215002e-04 7.389480e-04 1.056413e-03 1.240074e-03 9.260086e-04 6.756179e-04 3.032026e-04 4.705196e-04 5.053942e-04 4.614510e-04 2.007866e-04 -4.549526e-04 -4.189263e-04 -8.757372e-04 -4.387401e-04 -7.500630e-04 -2.204476e-04 -4.793847e-04 2.171676e-04 3.659931e-04 1.086639e-03 9.369262e-04 8.024597e-04 3.434181e-04 3.184638e-04 4.087615e-04 2.119912e-04 5.840967e-04 9.935788e-05 6.820149e-04 -1.216687e-05 7.152956e-04 -7.184768e-04 2.507461e-04 -5.855954e-04 6.913114e-04 -3.746375e-04 6.148826e-04 -4.504475e-04 2.653480e-04 -2.820195e-04 -4.072807e-04 -4.546674e-04 -1.584087e-03 3.733122e-04 -3.943117e-03 5.400322e-03 1.512087e-03 -2.307149e-03 -1.603752e-03 -1.696606e-03 -3.855665e-04 
