# vtk DataFile Version 2.0
Comment goes here
ASCII

DATASET STRUCTURED_POINTS
FIELD FieldData 1
TIME 1 1 double
0.02900000
DIMENSIONS    64   64   1

ORIGIN    0.000   0.000   0.000
SPACING   0.03125 0.03125   1.000

POINT_DATA   4096
SCALARS Omega double
LOOKUP_TABLE default

1.467904e-01 -8.392018e-01 5.322184e-01 -9.416870e-01 5.334151e-01 -3.889858e-01 3.996444e-01 -6.126843e-01 3.677466e-01 -5.420940e-01 3.353444e-01 -4.428916e-01 2.982847e-01 -2.960294e-01 2.637145e-01 -1.346804e-01 2.368815e-01 1.623187e-02 1.877601e-01 1.293366e-01 2.263463e-01 1.629205e-01 1.874504e-01 2.402712e-01 1.374962e-01 3.046333e-01 6.769969e-02 3.833695e-01 2.215107e-02 4.283554e-01 3.465160e-03 4.331017e-01 2.592873e-03 4.467863e-01 -1.568762e-02 4.748313e-01 -6.434298e-03 4.682608e-01 -4.187921e-02 5.070131e-01 -6.658498e-02 5.107285e-01 -6.351130e-02 4.529697e-01 -6.038574e-02 4.306640e-01 -9.758804e-02 3.775711e-01 -1.298589e-01 3.226556e-01 -1.952698e-01 2.409337e-01 -2.197618e-01 1.274299e-01 -2.012199e-01 2.083191e-02 -1.752377e-01 -3.116645e-02 -1.821256e-01 -5.589976e-02 -1.814771e-01 -5.434443e-02 -2.633972e-01 6.586462e-02 
-3.119744e+00 -2.076927e+01 -4.917602e-01 -1.986118e+01 -1.742786e+00 -1.965525e+01 -2.629884e+00 -1.880448e+01 -3.994728e+00 -1.859300e+01 -5.736445e+00 -1.669980e+01 -9.396905e+00 -1.290075e+01 -1.454702e+01 -8.007918e+00 -2.020860e+01 -3.093712e+00 -2.552396e+01 1.375820e+00 -3.000450e+01 4.822634e+00 -3.322280e+01 7.155248e+00 -3.537235e+01 8.658539e+00 -3.660478e+01 9.027997e+00 -3.664091e+01 8.532295e+00 -3.612981e+01 7.871473e+00 -3.527074e+01 6.264792e+00 -3.284355e+01 2.927853e+00 -2.906558e+01 -5.560995e-01 -2.667046e+01 -1.750136e+00 -2.687966e+01 -4.605753e-01 -2.888390e+01 2.540421e+00 -3.241469e+01 6.260348e+00 -3.566095e+01 9.200878e+00 -3.781793e+01 1.104510e+01 -3.856600e+01 1.116763e+01 -3.736318e+01 9.314199e+00 -3.414098e+01 5.452881e+00 -2.894247e+01 -1.556159e-01 -2.221391e+01 -7.175884e+00 -1.414726e+01 -1.513151e+01 -4.682962e+00 -2.358409e+01 
-2.571569e+01 5.187510e+00 -2.421180e+01 6.692497e+00 -7.623301e+00 6.276487e+00 -2.283255e+01 5.497965e+00 -3.052603e+01 5.599468e+00 -3.572603e+01 4.475232e+00 -3.818991e+01 2.085328e+00 -3.906947e+01 -8.193159e-01 -3.919367e+01 -3.544530e+00 -3.897058e+01 -5.979825e+00 -3.892762e+01 -7.534149e+00 -3.913096e+01 -8.630123e+00 -3.934108e+01 -9.440526e+00 -3.955112e+01 -9.640842e+00 -4.031320e+01 -9.281518e+00 -4.098602e+01 -9.204205e+00 -4.136406e+01 -8.740281e+00 -4.266616e+01 -6.858904e+00 -4.512969e+01 -4.575558e+00 -4.658063e+01 -3.933969e+00 -4.623109e+01 -4.458385e+00 -4.512480e+01 -5.594561e+00 -4.293751e+01 -7.226876e+00 -4.075326e+01 -8.130589e+00 -3.893712e+01 -8.536903e+00 -3.734044e+01 -8.097880e+00 -3.640277e+01 -6.802988e+00 -3.613443e+01 -4.658496e+00 -3.650450e+01 -1.898237e+00 -3.691812e+01 1.433402e+00 -3.730615e+01 5.476413e+00 -3.947926e+01 9.731638e+00 
-1.272832e+01 6.922375e+00 -1.306359e+01 7.100990e+00 -1.165541e+01 7.161753e+00 -1.101080e+01 6.624489e+00 -1.509652e+01 6.299723e+00 -1.768020e+01 5.111621e+00 -1.843779e+01 3.037399e+00 -1.800100e+01 5.836540e-01 -1.700246e+01 -1.654505e+00 -1.585323e+01 -3.566335e+00 -1.486974e+01 -4.836917e+00 -1.428973e+01 -5.668597e+00 -1.394506e+01 -6.265685e+00 -1.382019e+01 -6.402928e+00 -1.420718e+01 -6.159882e+00 -1.468149e+01 -6.066519e+00 -1.506022e+01 -5.567832e+00 -1.615807e+01 -4.010351e+00 -1.808578e+01 -2.207246e+00 -1.925434e+01 -1.655281e+00 -1.905144e+01 -2.160923e+00 -1.814301e+01 -3.322158e+00 -1.640920e+01 -4.868213e+00 -1.473066e+01 -5.936624e+00 -1.342781e+01 -6.554200e+00 -1.248044e+01 -6.405859e+00 -1.218888e+01 -5.404917e+00 -1.257076e+01 -3.574942e+00 -1.362982e+01 -1.080718e+00 -1.503547e+01 1.942324e+00 -1.670788e+01 5.443709e+00 -1.958723e+01 9.314122e+00 
-2.453271e-01 5.652279e-01 -7.683696e-01 -6.770809e-01 -2.561092e+01 1.253121e-01 3.032911e-01 -3.821270e-02 -9.871689e-02 -3.218091e-02 -2.388653e-01 -1.853748e-02 -2.841576e-01 -6.314076e-03 -2.844453e-01 -4.685885e-03 -2.521484e-01 -2.712993e-02 -2.246957e-01 -4.316005e-02 -1.974615e-01 -7.059702e-02 -1.922877e-01 -8.482922e-02 -1.834308e-01 -8.402273e-02 -1.952023e-01 -7.162928e-02 -2.006628e-01 -5.133706e-02 -2.100893e-01 -4.947618e-02 -2.128931e-01 -4.588850e-02 -2.038209e-01 -6.349711e-02 -1.987874e-01 -6.937399e-02 -1.907426e-01 -7.309848e-02 -2.062017e-01 -6.106165e-02 -2.142226e-01 -4.438825e-02 -2.343666e-01 -3.257080e-02 -2.401610e-01 -1.816123e-02 -2.299174e-01 -3.140220e-02 -2.077271e-01 -4.087899e-02 -1.818110e-01 -5.737806e-02 -1.507579e-01 -7.632676e-02 -1.184466e-01 -8.215330e-02 -8.999658e-02 -6.230653e-02 -7.723088e-02 -3.389558e-02 -1.059595e-01 2.247323e-01 
-1.601814e-01 -1.092331e-01 -5.134122e-01 -7.187680e-01 -3.050172e+01 -1.673235e-01 4.371953e-01 -1.384331e-01 2.567430e-01 -7.093904e-02 1.374933e-01 -3.691789e-02 7.028352e-02 -1.183775e-02 2.865809e-02 4.027049e-03 2.744689e-02 -3.038656e-02 1.088927e-02 -1.120870e-02 2.115782e-02 -2.389119e-02 -6.351276e-03 -1.187692e-02 1.119700e-02 -1.408843e-02 -1.261473e-02 -1.680813e-02 4.946710e-03 2.998906e-03 -2.303637e-03 -1.141629e-02 6.655322e-04 1.615666e-02 8.764676e-03 -7.782135e-03 -1.112100e-02 9.388255e-03 5.263515e-03 -5.586124e-03 -2.110569e-02 1.052184e-03 7.498009e-04 8.981495e-03 -1.946085e-02 1.463739e-03 -5.888921e-03 2.227561e-02 5.920610e-03 -1.542658e-02 1.811408e-02 -2.295309e-04 3.769466e-03 1.715231e-02 -1.172030e-02 2.546594e-02 -2.836440e-02 2.822587e-02 -5.285558e-02 2.859049e-02 -9.479520e-02 3.731805e-02 -1.512611e-01 2.921123e-01 
-2.403893e-01 -2.168173e-03 -4.885575e-01 -8.314297e-01 -3.751126e+01 -4.051308e-01 3.824247e-01 -1.078009e-01 2.710451e-01 -7.039640e-02 1.549143e-01 -3.820705e-02 8.415694e-02 -8.255942e-03 3.495914e-02 8.422366e-03 5.511903e-02 -4.780489e-02 1.970153e-02 -1.344945e-02 4.186738e-02 -2.958743e-02 -1.334537e-02 -1.955582e-02 2.124750e-02 -1.452714e-02 -2.297278e-02 -2.925234e-02 7.057379e-03 7.714652e-03 -6.351223e-03 -2.345142e-02 -2.222515e-03 2.277911e-02 1.517544e-02 -1.546709e-02 -1.771589e-02 1.353073e-02 1.650251e-02 -5.496502e-03 -3.082639e-02 -4.544095e-04 9.035606e-03 1.719239e-02 -2.579955e-02 2.285250e-03 -1.441121e-03 4.012588e-02 1.300396e-02 -1.563977e-02 3.613395e-02 7.668486e-03 1.367133e-02 2.737013e-02 -1.056910e-02 3.386086e-02 -3.516282e-02 3.569077e-02 -6.574976e-02 4.126158e-02 -1.093233e-01 6.721996e-02 -1.760288e-01 1.723557e-01 
-1.645919e-01 6.527759e-02 -2.590263e-01 -8.291818e-01 -4.004911e+01 -3.555228e-01 2.071981e-01 -1.441165e-01 2.151796e-01 -1.005440e-01 1.409968e-01 -6.182988e-02 7.189397e-02 -1.423549e-02 -9.317317e-03 4.793867e-02 5.012488e-02 -1.189047e-01 6.785765e-04 7.093793e-03 7.705868e-02 -5.500121e-02 -4.626984e-02 -7.713838e-03 7.426688e-02 -1.416882e-03 -5.686997e-02 -5.391160e-02 4.249850e-02 4.683209e-02 -2.659742e-02 -7.279712e-02 -1.530344e-03 7.251137e-02 3.198680e-02 -5.730040e-02 -4.494232e-02 4.849936e-02 6.296869e-02 -1.399708e-02 -7.458030e-02 -3.285278e-03 5.257959e-02 4.302310e-02 -6.899959e-02 -2.712104e-02 -3.126012e-04 1.021067e-01 -9.761944e-03 -9.157803e-02 6.357159e-02 -8.174600e-03 1.002650e-02 3.322877e-02 -1.995367e-02 4.494336e-02 -3.805615e-02 5.171604e-02 -5.937604e-02 6.352643e-02 -9.181511e-02 9.167497e-02 -1.333658e-01 1.489239e-01 
-1.784710e-01 9.227925e-02 -2.115457e-01 -8.635099e-01 -4.428613e+01 -5.122600e-01 1.292596e-01 -1.325939e-01 1.940736e-01 -9.544439e-02 1.369379e-01 -5.548250e-02 6.611491e-02 9.839849e-03 -6.071108e-02 9.072180e-02 1.133858e-01 -1.814669e-01 -3.136474e-02 2.210718e-02 1.474452e-01 -5.028190e-02 -1.034744e-01 -3.537392e-02 1.363132e-01 3.809938e-02 -1.104836e-01 -1.065320e-01 7.057350e-02 1.049993e-01 -5.151693e-02 -1.286673e-01 -1.076303e-02 1.193395e-01 5.907637e-02 -9.280494e-02 -8.303027e-02 6.036891e-02 1.202203e-01 -1.013910e-02 -1.304252e-01 -2.413122e-02 1.045829e-01 8.261045e-02 -1.194852e-01 -5.841942e-02 1.773042e-02 1.685510e-01 -3.576044e-02 -1.222463e-01 1.094165e-01 -2.546728e-03 1.708236e-02 4.146795e-02 -2.376623e-02 5.031294e-02 -4.517313e-02 5.513272e-02 -6.788284e-02 6.612107e-02 -1.000606e-01 8.851247e-02 -1.425721e-01 1.162781e-01 
-1.003741e-01 1.104419e-01 -5.266437e-02 -8.959758e-01 -4.520086e+01 -4.168057e-01 1.951013e-02 -1.521558e-01 1.244152e-01 -1.264721e-01 1.132838e-01 -9.617246e-02 7.120833e-02 1.572185e-03 -1.932960e-01 4.388019e-01 2.248440e-01 -3.792173e-01 -8.293096e-02 3.306546e-01 3.268184e-01 -1.370627e-01 -2.809402e-01 1.004606e-01 3.859773e-01 1.295492e-01 -2.986230e-01 -2.246337e-01 2.678601e-01 3.797052e-01 -1.444473e-01 -3.963559e-01 3.490259e-02 4.589863e-01 1.458334e-01 -3.364806e-01 -2.002379e-01 2.673937e-01 3.485775e-01 -6.366533e-02 -3.441555e-01 -7.163035e-02 3.570567e-01 2.463447e-01 -3.029435e-01 -2.989338e-01 1.266695e-01 5.671376e-01 -1.697958e-01 -5.463913e-01 2.747381e-01 3.623398e-02 -8.078901e-03 7.549588e-02 -4.639236e-02 6.738273e-02 -4.886210e-02 6.866040e-02 -5.646903e-02 8.029837e-02 -7.259290e-02 1.008241e-01 -9.130403e-02 1.213670e-01 
-9.470148e-02 1.151884e-01 -1.340703e-02 -9.005855e-01 -4.762041e+01 -5.268725e-01 -3.550639e-02 -1.600430e-01 1.081337e-01 -1.379146e-01 1.199266e-01 -1.147938e-01 9.412380e-02 4.230862e-02 -4.685833e-01 1.421006e+00 4.014151e+00 2.704650e+00 3.732572e-02 2.733943e+00 3.274469e+00 1.198261e+00 5.566283e-01 3.248077e+00 2.557710e+00 5.259627e-01 1.802714e+00 2.938128e+00 1.269733e+00 9.411782e-01 2.743696e+00 2.211236e+00 3.061759e-01 2.074203e+00 3.247735e+00 1.245453e+00 3.063915e-01 2.774183e+00 2.854051e+00 4.521183e-01 1.166152e+00 2.725708e+00 1.849130e+00 4.332124e-01 2.011818e+00 2.032220e+00 6.980635e-01 1.405615e+00 2.644655e+00 1.014847e+00 5.778321e-01 1.187347e-01 -3.911328e-02 9.113406e-02 -6.633034e-02 7.406199e-02 -5.894679e-02 7.098703e-02 -6.214927e-02 7.926725e-02 -7.534688e-02 9.503849e-02 -9.091466e-02 1.111385e-01 
-2.856917e-02 1.190560e-01 9.421937e-02 -9.400136e-01 -4.734545e+01 -4.072898e-01 -9.632820e-02 -1.664657e-01 4.753036e-02 -1.712392e-01 1.030540e-01 -2.412716e-01 2.456983e-01 -3.937080e-01 -2.164137e-01 5.037887e+00 2.450510e+01 1.928865e+01 2.520854e+00 1.466419e+01 2.233094e+01 8.661145e+00 7.216289e+00 2.256132e+01 1.823702e+01 2.341843e+00 1.589423e+01 2.554845e+01 9.121531e+00 3.609964e+00 2.237757e+01 2.282916e+01 3.034749e+00 1.167733e+01 2.586029e+01 1.444001e+01 4.611586e+00 2.024572e+01 2.259333e+01 5.041485e+00 1.195883e+01 2.547161e+01 1.406807e+01 1.924048e+00 1.883946e+01 2.395306e+01 5.426738e+00 7.003763e+00 2.618751e+01 2.177166e+01 1.756589e+00 7.460141e-01 -3.992429e-01 1.341574e-01 -1.260988e-01 8.065048e-02 -5.857569e-02 7.657827e-02 -4.448970e-02 8.643985e-02 -4.442193e-02 1.017987e-01 -4.333553e-02 1.162189e-01 
-1.938776e-02 1.191233e-01 1.218921e-01 -9.301177e-01 -4.844104e+01 -4.800602e-01 -1.307638e-01 -1.764380e-01 4.208485e-02 -1.945746e-01 1.422264e-01 -3.474602e-01 4.310281e-01 -9.332194e-01 8.066114e-01 4.941339e+00 2.306524e+01 1.634692e+01 3.279529e+00 1.444484e+01 2.165366e+01 7.004012e+00 8.643302e+00 2.292899e+01 1.760856e+01 1.733626e+00 1.772963e+01 2.585386e+01 8.437003e+00 4.143824e+00 2.426986e+01 2.280762e+01 2.770653e+00 1.325223e+01 2.718099e+01 1.406329e+01 5.457479e+00 2.248476e+01 2.305248e+01 4.847410e+00 1.405300e+01 2.774891e+01 1.360625e+01 2.581712e+00 2.168679e+01 2.582399e+01 4.610266e+00 9.384157e+00 3.024983e+01 2.411168e+01 2.699441e-01 9.926173e-01 -5.013015e-01 1.969947e-01 -1.538259e-01 9.280768e-02 -6.373212e-02 7.781263e-02 -4.461085e-02 8.354700e-02 -4.253591e-02 9.636575e-02 -3.884386e-02 1.108516e-01 
3.091365e-02 1.162478e-01 1.961022e-01 -9.546713e-01 -4.727762e+01 -3.569694e-01 -1.640680e-01 -1.505737e-01 -2.062950e-02 -1.307485e-01 3.440325e-02 -1.158487e-01 6.191809e-02 -7.913742e-02 5.643503e-01 -4.907613e+00 -1.913085e+01 -1.450138e+01 -1.040448e+00 -1.208742e+01 -1.627520e+01 -6.402798e+00 -5.662092e+00 -1.720956e+01 -1.229120e+01 -1.988345e+00 -1.238857e+01 -1.838337e+01 -5.397344e+00 -3.336263e+00 -1.672309e+01 -1.562574e+01 -1.641125e+00 -9.245016e+00 -1.824854e+01 -9.266534e+00 -3.726337e+00 -1.500974e+01 -1.508086e+01 -2.918521e+00 -9.431468e+00 -1.784264e+01 -8.775477e+00 -1.317609e+00 -1.394584e+01 -1.574454e+01 -3.334713e+00 -5.493332e+00 -1.836420e+01 -1.402197e+01 -5.612561e-01 -2.036843e-01 9.585766e-02 5.944715e-02 1.415769e-02 7.040764e-02 -9.123915e-03 7.514803e-02 -1.359050e-02 8.537022e-02 -1.072358e-02 9.875968e-02 1.447934e-03 1.121653e-01 
3.815097e-02 1.133529e-01 2.126234e-01 -9.241084e-01 -4.735317e+01 -4.079230e-01 -1.943029e-01 -1.383938e-01 -5.793750e-02 -7.934877e-02 -6.213610e-02 6.216840e-02 -2.758119e-01 4.344988e-01 -1.402451e-01 -5.193877e+00 -2.701352e+01 -2.077850e+01 -3.299720e+00 -1.613954e+01 -2.512959e+01 -9.360279e+00 -8.680721e+00 -2.563216e+01 -2.071033e+01 -2.458780e+00 -1.876991e+01 -2.936209e+01 -1.031988e+01 -4.204150e+00 -2.633692e+01 -2.634488e+01 -3.443607e+00 -1.384695e+01 -3.024728e+01 -1.662640e+01 -5.617401e+00 -2.409104e+01 -2.625963e+01 -5.775635e+00 -1.456455e+01 -3.036623e+01 -1.613064e+01 -2.379036e+00 -2.288993e+01 -2.871737e+01 -5.995996e+00 -8.852590e+00 -3.194044e+01 -2.660951e+01 -1.361761e+00 -8.246007e-01 5.053192e-01 -4.386157e-02 1.118647e-01 3.968101e-02 1.876962e-02 6.316785e-02 -3.469167e-03 7.779666e-02 -5.115637e-03 9.216806e-02 6.841844e-03 1.069347e-01 
7.380809e-02 1.070963e-01 2.617667e-01 -9.288080e-01 -4.554838e+01 -3.018816e-01 -2.096552e-01 -1.239986e-01 -9.932959e-02 -7.582538e-02 -9.302109e-02 1.492009e-02 -1.850565e-01 2.196186e-01 -9.428849e-02 -1.158201e+00 -6.059159e+00 -3.795638e+00 -1.129115e+00 -3.663100e+00 -6.050929e+00 -1.767182e+00 -1.923314e+00 -5.937587e+00 -5.371682e+00 -5.068367e-01 -4.310506e+00 -6.763430e+00 -2.962582e+00 -1.196316e+00 -6.374717e+00 -6.086693e+00 -9.736082e-01 -3.769083e+00 -7.715446e+00 -3.974872e+00 -1.129830e+00 -6.258462e+00 -6.985551e+00 -1.565501e+00 -3.296614e+00 -7.693945e+00 -4.508317e+00 -9.168012e-01 -5.650515e+00 -7.365126e+00 -1.547932e+00 -2.885486e+00 -8.315318e+00 -6.554734e+00 -7.683073e-01 -4.857794e-01 1.766202e-01 -7.022755e-02 6.975636e-02 1.996264e-02 2.685430e-02 5.504698e-02 1.514498e-02 7.499402e-02 1.938650e-02 9.077618e-02 3.736619e-02 1.047886e-01 
7.702938e-02 1.024835e-01 2.681300e-01 -8.901356e-01 -4.483406e+01 -3.362607e-01 -2.253329e-01 -1.189936e-01 -1.139723e-01 -6.914989e-02 -1.048956e-01 -1.399660e-02 -1.276252e-01 7.603888e-03 3.428178e-02 -5.198591e-01 1.317860e-01 6.086378e-01 -1.389600e-01 -3.483263e-01 -2.323972e-01 3.117580e-01 2.240552e-01 -1.248319e-01 -4.154698e-01 -6.052970e-02 3.009159e-01 2.685027e-01 -3.454696e-01 -4.126252e-01 1.257481e-01 4.781179e-01 -6.357787e-02 -5.657449e-01 -2.014758e-01 3.855934e-01 2.255178e-01 -3.694234e-01 -4.177105e-01 3.831273e-02 3.400441e-01 3.161078e-02 -3.921013e-01 -3.452675e-01 2.108727e-01 2.815583e-01 -3.811798e-02 -7.471819e-01 -5.898332e-02 6.475782e-01 -2.372176e-01 -9.448872e-02 6.110419e-02 -4.689628e-02 5.867478e-02 1.325354e-02 3.182107e-02 4.667071e-02 2.014184e-02 6.750112e-02 2.316510e-02 8.403042e-02 4.061944e-02 9.916319e-02 
1.003879e-01 9.487071e-02 2.968620e-01 -8.732790e-01 -4.255274e+01 -2.544780e-01 -2.248517e-01 -1.119068e-01 -1.299880e-01 -7.435463e-02 -1.066565e-01 -3.946505e-02 -9.731118e-02 -3.991384e-02 2.658724e-03 -2.898924e-01 1.470423e-01 1.130603e-01 -5.474622e-02 -1.811004e-01 -7.758247e-02 8.589818e-02 1.008111e-01 -8.174881e-02 -1.611024e-01 -3.543901e-02 1.627004e-01 7.677642e-02 -1.292074e-01 -1.584841e-01 9.929018e-02 1.665950e-01 -1.587495e-02 -1.872420e-01 -5.821643e-02 1.429148e-01 1.031727e-01 -8.573493e-02 -1.657863e-01 1.254744e-02 1.702989e-01 7.270195e-02 -1.491417e-01 -1.301425e-01 1.351295e-01 1.631461e-01 9.581339e-04 -2.171979e-01 -3.241941e-02 2.998706e-01 -9.626613e-02 2.269530e-03 2.982503e-02 -1.030963e-02 3.839567e-02 2.080379e-02 3.062918e-02 4.657400e-02 2.974731e-02 6.568665e-02 3.936667e-02 8.132723e-02 6.140546e-02 9.504650e-02 
9.907998e-02 8.981565e-02 2.940712e-01 -8.308663e-01 -4.120668e+01 -2.762847e-01 -2.261943e-01 -1.122618e-01 -1.266642e-01 -7.770445e-02 -9.683651e-02 -5.477983e-02 -7.007359e-02 -6.200726e-02 5.865603e-03 -1.602853e-01 6.706347e-02 7.460567e-03 -1.914669e-02 -9.521711e-02 -3.954617e-02 1.764003e-02 4.165017e-02 -5.215594e-02 -6.854679e-02 -1.803142e-02 6.487051e-02 1.796910e-02 -5.071244e-02 -6.019123e-02 3.545889e-02 5.703397e-02 -1.788766e-03 -7.344813e-02 -3.029751e-02 5.081883e-02 4.703709e-02 -3.546286e-02 -7.022113e-02 7.409779e-03 7.214813e-02 3.020726e-02 -5.634945e-02 -4.089311e-02 5.532665e-02 6.847250e-02 1.137447e-02 -5.923702e-02 -3.901808e-02 1.507588e-01 -5.051265e-02 3.215825e-02 1.172849e-02 1.011423e-02 2.721673e-02 2.522610e-02 2.700561e-02 4.410374e-02 2.905658e-02 6.072121e-02 3.933501e-02 7.561043e-02 6.107007e-02 8.956413e-02 
1.124801e-01 8.193478e-02 3.064505e-01 -7.980839e-01 -3.855178e+01 -2.124420e-01 -2.154245e-01 -1.080958e-01 -1.289631e-01 -8.238487e-02 -9.340372e-02 -6.407300e-02 -6.786454e-02 -5.396638e-02 -4.276600e-02 -6.628489e-02 2.459376e-02 -8.263364e-02 -1.891097e-02 -4.469659e-02 9.319971e-03 -2.747190e-02 -1.690739e-02 -3.065997e-02 6.417842e-03 -9.558841e-03 -8.984001e-03 -2.170705e-02 4.329375e-03 -2.187690e-03 -5.067764e-03 -1.533670e-02 3.024940e-03 2.390503e-03 -2.913622e-03 -1.055611e-02 1.094552e-06 7.742718e-03 3.088130e-03 -4.731491e-03 -5.021688e-03 1.268155e-02 1.278452e-02 4.957815e-03 -1.048225e-02 1.826352e-02 1.325057e-02 3.801493e-02 -4.218174e-02 3.727572e-02 1.061132e-02 2.904607e-02 1.642412e-02 2.879322e-02 1.979516e-02 3.615553e-02 2.469568e-02 4.753447e-02 3.350575e-02 6.004493e-02 4.881071e-02 7.253700e-02 7.357903e-02 8.448685e-02 
1.070134e-01 7.686337e-02 2.958129e-01 -7.537123e-01 -3.668528e+01 -2.226713e-01 -2.067899e-01 -1.094493e-01 -1.172555e-01 -8.643967e-02 -7.958472e-02 -6.972479e-02 -5.612820e-02 -4.430577e-02 -7.196441e-02 6.623371e-03 2.032497e-02 -1.481285e-01 -2.622628e-02 -1.742885e-03 5.115766e-02 -4.665705e-02 -6.343824e-02 -2.564053e-02 6.506352e-02 1.164300e-02 -6.372668e-02 -6.017591e-02 4.740648e-02 5.055744e-02 -3.738404e-02 -7.310898e-02 9.770955e-03 6.050323e-02 1.157037e-02 -5.685512e-02 -3.082115e-02 3.773004e-02 5.405027e-02 -1.264224e-02 -6.072192e-02 -1.327339e-03 6.868583e-02 3.880434e-02 -6.333146e-02 -2.330795e-02 3.435246e-02 1.103372e-01 -6.947368e-02 -3.564600e-02 5.768858e-02 2.896865e-02 1.278587e-02 3.784902e-02 9.872631e-03 4.024985e-02 1.779801e-02 4.694713e-02 2.921184e-02 5.663335e-02 4.544196e-02 6.769133e-02 6.974946e-02 7.922217e-02 
1.125519e-01 6.890601e-02 2.957893e-01 -7.129265e-01 -3.372896e+01 -1.665375e-01 -1.898103e-01 -1.055122e-01 -1.125064e-01 -9.318485e-02 -6.858743e-02 -8.638444e-02 -3.927652e-02 -3.969469e-02 -1.419984e-01 2.151324e-01 4.204520e-02 -2.437544e-01 -3.244105e-02 1.910584e-01 1.568923e-01 -9.319803e-02 -1.663795e-01 7.768810e-02 2.169891e-01 5.537873e-02 -1.763389e-01 -9.971620e-02 1.702930e-01 1.974932e-01 -8.930970e-02 -2.020657e-01 4.510967e-02 2.547023e-01 6.653743e-02 -1.843861e-01 -9.040677e-02 1.701310e-01 1.927592e-01 -4.833959e-02 -1.746799e-01 -6.042105e-03 2.238035e-01 1.214724e-01 -1.575657e-01 -1.420494e-01 1.094128e-01 3.281276e-01 -1.126413e-01 -2.810190e-01 1.796952e-01 4.817405e-02 2.689107e-03 6.178413e-02 -4.603703e-03 5.035131e-02 1.266473e-02 4.937417e-02 3.052612e-02 5.517560e-02 5.025451e-02 6.384594e-02 7.591597e-02 7.340417e-02 
1.037511e-01 6.347496e-02 2.787968e-01 -6.671436e-01 -3.142901e+01 -1.653445e-01 -1.747633e-01 -1.048864e-01 -9.686119e-02 -9.836843e-02 -4.908382e-02 -1.039521e-01 -7.857180e-03 -5.995750e-02 -2.199541e-01 4.367629e-01 2.646531e+00 2.372555e+00 2.359016e-01 1.584738e+00 2.625918e+00 1.230165e+00 4.061086e-01 2.381704e+00 2.327408e+00 4.668844e-01 1.285004e+00 2.679324e+00 1.348272e+00 4.671683e-01 2.152802e+00 2.405204e+00 4.706477e-01 1.218934e+00 2.785815e+00 1.638542e+00 3.047229e-01 2.077657e+00 2.683826e+00 6.770846e-01 8.948088e-01 2.553250e+00 1.911922e+00 2.799646e-01 1.681837e+00 2.406432e+00 8.639101e-01 7.674135e-01 2.552142e+00 2.117522e+00 5.114403e-01 1.466626e-01 -4.235436e-02 7.048678e-02 -2.316817e-02 5.224192e-02 4.006775e-03 4.805994e-02 2.494442e-02 5.170401e-02 4.503052e-02 5.900962e-02 6.952861e-02 6.790674e-02 
1.032718e-01 5.524426e-02 2.695646e-01 -6.216561e-01 -2.823317e+01 -1.104698e-01 -1.552267e-01 -9.554752e-02 -9.255661e-02 -1.039227e-01 -3.435570e-02 -1.654615e-01 9.236743e-02 -3.058549e-01 -6.809790e-02 9.656961e-01 1.243334e+01 1.181145e+01 1.696831e+00 6.486429e+00 1.245874e+01 6.072116e+00 3.143705e+00 1.141480e+01 1.097896e+01 1.849858e+00 7.517437e+00 1.413349e+01 6.239642e+00 1.373409e+00 1.155656e+01 1.344631e+01 2.300787e+00 5.066606e+00 1.422197e+01 9.444257e+00 2.108888e+00 1.012242e+01 1.323234e+01 3.808939e+00 5.534007e+00 1.373666e+01 9.002705e+00 1.031101e+00 9.584172e+00 1.391744e+01 3.899306e+00 2.789002e+00 1.429797e+01 1.379048e+01 1.468185e+00 5.955750e-01 -2.488855e-01 9.615919e-02 -6.028660e-02 5.140080e-02 4.610030e-04 4.471190e-02 2.707158e-02 4.760424e-02 4.771251e-02 5.380627e-02 7.130114e-02 6.127044e-02 
9.208742e-02 4.904991e-02 2.474377e-01 -5.721573e-01 -2.557562e+01 -1.000412e-01 -1.375003e-01 -8.755191e-02 -7.876373e-02 -9.687730e-02 -1.894821e-02 -1.655070e-01 1.247542e-01 -3.895878e-01 2.108332e-01 6.632343e-01 9.105221e+00 8.186957e+00 1.497746e+00 4.771734e+00 9.335305e+00 4.139425e+00 2.721154e+00 8.712371e+00 8.264562e+00 1.173312e+00 6.114428e+00 1.083254e+01 4.658941e+00 1.062508e+00 9.216242e+00 1.027769e+01 1.697925e+00 4.120535e+00 1.116236e+01 7.172699e+00 1.720903e+00 8.157330e+00 1.023743e+01 2.895071e+00 4.573246e+00 1.097414e+01 6.799446e+00 9.231236e-01 7.846872e+00 1.109373e+01 2.744167e+00 2.584160e+00 1.176816e+01 1.114886e+01 7.894601e-01 5.608721e-01 -2.292503e-01 1.023712e-01 -5.633083e-02 4.941563e-02 -1.790300e-04 4.087832e-02 2.386830e-02 4.275537e-02 4.232499e-02 4.816694e-02 6.341555e-02 5.505962e-02 
8.705631e-02 4.064635e-02 2.308353e-01 -5.189340e-01 -2.220811e+01 -4.805259e-02 -1.182878e-01 -6.176644e-02 -8.576482e-02 -4.492660e-02 -6.939997e-02 -2.637882e-03 -1.023895e-01 9.632173e-02 1.303343e-01 -1.136679e+00 -1.084188e+01 -1.013718e+01 -1.194691e+00 -5.835693e+00 -1.055446e+01 -5.173409e+00 -2.723508e+00 -9.876820e+00 -9.024615e+00 -1.615449e+00 -6.567966e+00 -1.193636e+01 -4.913525e+00 -1.317183e+00 -9.926007e+00 -1.114050e+01 -1.734033e+00 -4.484268e+00 -1.193999e+01 -7.653364e+00 -1.837053e+00 -8.684251e+00 -1.087250e+01 -2.969372e+00 -4.895038e+00 -1.152601e+01 -7.225020e+00 -7.845663e-01 -8.264009e+00 -1.140616e+01 -3.083412e+00 -2.439481e+00 -1.206889e+01 -1.124018e+01 -1.006021e+00 -3.551467e-01 1.612658e-01 1.563711e-03 5.311960e-02 2.725652e-02 3.004660e-02 3.233219e-02 3.285944e-02 3.659572e-02 4.448347e-02 4.184165e-02 6.198632e-02 4.774104e-02 
7.424262e-02 3.389880e-02 2.044412e-01 -4.641287e-01 -1.926659e+01 -3.240072e-02 -1.007303e-01 -4.785595e-02 -8.061976e-02 -2.267878e-02 -8.514370e-02 5.153848e-02 -1.803327e-01 2.285176e-01 -7.281211e-02 -8.324631e-01 -1.179362e+01 -1.110540e+01 -1.800625e+00 -6.086372e+00 -1.196777e+01 -5.752397e+00 -3.099979e+00 -1.092063e+01 -1.064715e+01 -1.743368e+00 -7.296327e+00 -1.364501e+01 -6.103375e+00 -1.305323e+00 -1.123023e+01 -1.305126e+01 -2.265404e+00 -4.923547e+00 -1.385773e+01 -9.206083e+00 -2.052898e+00 -9.884908e+00 -1.291754e+01 -3.735983e+00 -5.388727e+00 -1.346071e+01 -8.791467e+00 -1.030960e+00 -9.378443e+00 -1.371650e+01 -3.770785e+00 -2.768192e+00 -1.407173e+01 -1.366776e+01 -1.399861e+00 -5.707372e-01 2.701105e-01 -3.824393e-02 8.085472e-02 1.148884e-02 3.587363e-02 2.377259e-02 3.117761e-02 2.985365e-02 3.885172e-02 3.524748e-02 5.300604e-02 4.079021e-02 
6.548823e-02 2.581016e-02 1.815493e-01 -4.096815e-01 -1.581061e+01 1.251697e-02 -7.832699e-02 -3.390208e-02 -7.414731e-02 -1.894177e-02 -7.363400e-02 1.131704e-02 -9.600014e-02 4.687545e-02 -4.245619e-03 -3.202815e-01 -1.882906e+00 -1.384960e+00 -4.012400e-01 -1.120804e+00 -2.064906e+00 -7.377945e-01 -4.271509e-01 -1.834371e+00 -1.950706e+00 -2.778752e-01 -1.091414e+00 -2.125382e+00 -1.195971e+00 -3.790212e-01 -1.826376e+00 -1.946783e+00 -4.316871e-01 -1.083839e+00 -2.406629e+00 -1.360082e+00 -2.464584e-01 -1.853768e+00 -2.348515e+00 -6.042033e-01 -7.448677e-01 -2.287802e+00 -1.666848e+00 -3.211522e-01 -1.476046e+00 -2.224542e+00 -6.732465e-01 -8.248136e-01 -2.385078e+00 -2.025722e+00 -4.060544e-01 -1.678724e-01 6.747606e-02 -3.462466e-02 4.530146e-02 8.067796e-04 3.177378e-02 1.533861e-02 3.046350e-02 2.285135e-02 3.656240e-02 2.828260e-02 4.798110e-02 3.308765e-02 
5.151831e-02 1.896433e-02 1.519505e-01 -3.534364e-01 -1.265717e+01 3.198822e-02 -5.703059e-02 -2.371782e-02 -6.105157e-02 -1.316682e-02 -6.048752e-02 1.166504e-03 -6.131581e-02 -1.700681e-02 4.029812e-02 -2.748765e-01 6.850572e-02 2.557650e-01 -6.261461e-02 -1.919713e-01 -1.294657e-01 1.213013e-01 1.287945e-01 -7.785251e-02 -2.260037e-01 -3.743444e-02 1.874468e-01 1.046626e-01 -1.955959e-01 -1.875452e-01 1.132358e-01 2.056386e-01 -5.968637e-02 -2.468016e-01 -5.671934e-02 1.794907e-01 9.739767e-02 -1.583860e-01 -1.967995e-01 3.529633e-02 1.971225e-01 2.174699e-02 -2.205088e-01 -1.347561e-01 1.741660e-01 1.528943e-01 -7.861693e-02 -3.119226e-01 6.584056e-02 3.167132e-01 -1.709170e-01 -2.303966e-02 1.920771e-02 -2.377851e-02 3.352156e-02 -2.436496e-03 2.719126e-02 9.822237e-03 2.553622e-02 1.676461e-02 2.946164e-02 2.169316e-02 3.789244e-02 2.588476e-02 
3.996908e-02 1.157501e-02 1.237087e-01 -2.948098e-01 -9.176514e+00 6.605263e-02 -3.232876e-02 -1.473091e-02 -4.602473e-02 -1.235563e-02 -4.082882e-02 -9.793104e-03 -2.948312e-02 -2.786788e-02 2.359822e-02 -1.213204e-01 4.260201e-02 7.199559e-02 -1.636603e-02 -6.954392e-02 -4.676069e-02 4.075764e-02 4.579641e-02 -3.163551e-02 -7.521338e-02 -1.082248e-02 6.922071e-02 3.546476e-02 -5.839299e-02 -6.155014e-02 4.394510e-02 7.273160e-02 -1.043895e-02 -8.149701e-02 -1.876103e-02 6.475015e-02 4.049228e-02 -4.837205e-02 -6.695598e-02 1.534916e-02 7.372305e-02 1.605624e-02 -6.776380e-02 -4.379944e-02 6.764982e-02 5.990234e-02 -1.156943e-02 -9.412838e-02 8.290064e-03 1.338176e-01 -6.559187e-02 1.639454e-02 -2.812863e-04 -4.961816e-03 1.580885e-02 -3.952631e-04 1.830489e-02 6.187372e-03 1.987117e-02 1.123920e-02 2.354057e-02 1.511875e-02 2.987089e-02 1.830829e-02 
2.545862e-02 4.980461e-03 9.207303e-02 -2.372445e-01 -5.870866e+00 8.862196e-02 -8.578482e-03 -5.951188e-03 -3.000235e-02 -7.774081e-03 -2.553047e-02 -9.996281e-03 -1.260355e-02 -2.776879e-02 2.574673e-02 -7.137058e-02 2.333798e-02 3.478307e-02 -4.004363e-03 -3.508802e-02 -3.065935e-02 2.038793e-02 2.541309e-02 -1.889507e-02 -4.212580e-02 -3.580465e-03 3.672661e-02 1.610687e-02 -2.976211e-02 -2.771953e-02 2.232000e-02 3.533839e-02 -3.577959e-03 -4.085208e-02 -1.181713e-02 3.232049e-02 2.264144e-02 -2.792822e-02 -3.648635e-02 1.025333e-02 4.044858e-02 3.599003e-03 -3.482520e-02 -1.786311e-02 3.834393e-02 2.589485e-02 -3.544998e-03 -4.232709e-02 -1.102974e-03 7.696555e-02 -4.624842e-02 2.256482e-02 -8.454427e-03 1.180228e-04 7.931548e-03 -8.559849e-04 1.206333e-02 2.700529e-03 1.343081e-02 6.145580e-03 1.548307e-02 8.936964e-03 1.913978e-02 1.120468e-02 
1.207985e-02 -1.631206e-03 5.994826e-02 -1.735230e-01 -2.414806e+00 1.126183e-01 1.560076e-02 2.313047e-03 -1.355592e-02 -3.324680e-03 -1.022705e-02 -7.045797e-03 -1.139271e-03 -1.771084e-02 1.620767e-02 -3.296282e-02 1.175216e-02 7.150084e-03 2.037831e-03 -1.333861e-02 -1.203966e-02 6.936378e-03 8.125788e-03 -7.817616e-03 -1.507702e-02 -3.832809e-04 1.149123e-02 5.224716e-03 -8.482297e-03 -8.526838e-03 6.587045e-03 1.202716e-02 9.206677e-04 -1.477348e-02 -5.517454e-03 1.077132e-02 8.523113e-03 -1.143427e-02 -1.301447e-02 3.536086e-03 1.385955e-02 -2.055855e-04 -9.951523e-03 -5.769715e-03 1.328153e-02 8.856027e-03 2.280421e-04 -1.089888e-02 -8.360822e-03 3.553313e-02 -2.240785e-02 1.768718e-02 -8.148119e-03 3.575232e-03 1.250436e-03 -3.092949e-04 5.125481e-03 6.295892e-05 6.650510e-03 1.456713e-03 7.752557e-03 2.845423e-03 9.241296e-03 3.961199e-03 
-2.209325e-03 -7.982352e-03 2.765816e-02 -1.146872e-01 9.905502e-01 1.384483e-01 3.995434e-02 1.155266e-02 1.804923e-03 3.079571e-03 2.287614e-03 -1.693221e-03 8.089338e-03 -1.026492e-02 1.803182e-02 -1.791525e-02 1.205217e-02 4.531973e-03 4.794159e-03 -4.756203e-03 -5.905490e-03 5.650648e-03 5.014930e-03 -2.872742e-03 -8.082742e-03 1.765111e-03 6.568853e-03 3.456421e-03 -3.828364e-03 -2.738220e-03 3.946998e-03 6.291114e-03 1.103165e-03 -7.361383e-03 -3.200450e-03 5.162396e-03 4.584403e-03 -6.893049e-03 -7.279042e-03 1.664715e-03 7.693652e-03 -1.647609e-03 -4.863436e-03 -2.971681e-03 7.698479e-03 3.120303e-03 -3.316004e-04 -4.417624e-03 -8.397657e-03 2.109738e-02 -1.826273e-02 1.309316e-02 -1.012373e-02 2.358471e-03 -3.060846e-03 -2.270565e-03 -5.949106e-05 -3.369994e-03 4.198724e-04 -3.310038e-03 -2.235433e-04 -3.076187e-03 -1.338464e-03 -3.001156e-03 
-1.653604e-02 -1.398513e-02 -6.497324e-03 -4.773588e-02 4.376267e+00 1.549326e-01 6.235845e-02 2.004630e-02 1.758238e-02 9.822836e-03 1.460360e-02 5.137838e-03 1.535927e-02 -6.680281e-04 1.728587e-02 -4.344775e-03 1.192594e-02 3.839846e-03 7.232609e-03 1.362116e-03 7.431139e-04 4.930572e-03 3.543699e-03 1.499729e-03 -1.750692e-03 3.007704e-03 2.958479e-03 3.090562e-03 -2.846470e-04 6.532577e-04 1.770731e-03 3.090428e-03 1.171681e-03 -2.326975e-03 -1.203179e-03 1.610730e-03 1.694053e-03 -3.209666e-03 -2.713922e-03 -1.727835e-04 2.499401e-03 -1.720908e-03 -1.578731e-03 -1.887185e-03 1.929235e-03 4.032142e-04 -1.832228e-03 -1.045047e-03 -7.788547e-03 9.448775e-03 -1.205514e-02 6.494902e-03 -9.365509e-03 1.819042e-05 -6.394342e-03 -4.345546e-03 -5.353526e-03 -6.652420e-03 -6.210560e-03 -7.955973e-03 -8.537939e-03 -8.941068e-03 -1.209910e-02 -9.939182e-03 