# vtk DataFile Version 2.0
Comment goes here
ASCII

DATASET STRUCTURED_POINTS
FIELD FieldData 1
TIME 1 1 double
0.07200000
DIMENSIONS    64   64   1

ORIGIN    0.000   0.000   0.000
SPACING   0.03125 0.03125   1.000

POINT_DATA   4096
SCALARS Omega double
LOOKUP_TABLE default

3.339129e-02 1.747770e-01 -5.966707e-01 -4.744042e-01 -6.168223e-01 2.344072e-01 -3.936411e-01 -2.018459e-01 -3.945216e-01 -2.255151e-01 -2.944389e-01 -1.984095e-01 -1.440401e-01 -1.143202e-01 5.101919e-02 1.256030e-02 2.842258e-01 1.504516e-01 5.679493e-01 3.119798e-01 6.489290e-01 4.478954e-01 6.444205e-01 4.035985e-01 7.485984e-01 4.316219e-01 8.011206e-01 5.604551e-01 7.349601e-01 4.581975e-01 7.459145e-01 5.296456e-01 7.099212e-01 5.944515e-01 6.363041e-01 5.760740e-01 6.204474e-01 5.534541e-01 6.066382e-01 6.327286e-01 6.052692e-01 6.782138e-01 5.802588e-01 5.513970e-01 5.541548e-01 5.820704e-01 4.446626e-01 4.803300e-01 3.084127e-01 2.425081e-01 2.179266e-01 6.628991e-02 7.384906e-02 -5.166955e-02 -6.123278e-02 -1.204752e-01 -1.593250e-01 -1.811645e-01 -2.028994e-01 -2.336862e-01 -2.065044e-01 -3.059766e-01 -1.075785e-01 -5.883235e-01 
-2.219998e+01 -3.464714e+01 -1.868324e+01 -3.410163e+01 -2.075228e+01 -3.352448e+01 -2.319371e+01 -3.272303e+01 -2.804614e+01 -3.203062e+01 -3.226616e+01 -2.984614e+01 -3.688066e+01 -2.655169e+01 -4.197743e+01 -2.288339e+01 -4.695518e+01 -1.903293e+01 -5.230939e+01 -1.428564e+01 -5.860084e+01 -8.255581e+00 -6.575230e+01 -1.241788e+00 -7.331042e+01 5.635257e+00 -8.007214e+01 1.109076e+01 -8.506784e+01 1.475319e+01 -8.819841e+01 1.710034e+01 -9.071217e+01 1.907107e+01 -9.288888e+01 2.080643e+01 -9.457174e+01 2.187069e+01 -9.562765e+01 2.233540e+01 -9.592367e+01 2.195151e+01 -9.510480e+01 2.034101e+01 -9.249103e+01 1.686358e+01 -8.799299e+01 1.201557e+01 -8.194772e+01 6.373850e+00 -7.507443e+01 5.004908e-02 -6.726399e+01 -7.081672e+00 -5.831113e+01 -1.521983e+01 -4.823599e+01 -2.416883e+01 -3.750603e+01 -3.296459e+01 -2.721366e+01 -4.053883e+01 -1.628356e+01 -4.789747e+01 
-6.370445e+01 -2.718024e+00 -4.995340e+01 5.688319e+00 -7.491792e+00 6.379500e+00 -6.060675e+01 2.126524e-01 -7.845629e+01 -3.369395e-01 -8.991907e+01 -1.184410e+00 -9.781811e+01 -2.760574e+00 -1.035106e+02 -4.630968e+00 -1.082941e+02 -6.621888e+00 -1.121434e+02 -8.886136e+00 -1.139765e+02 -1.195579e+01 -1.143595e+02 -1.516469e+01 -1.138393e+02 -1.846525e+01 -1.132080e+02 -2.105833e+01 -1.132326e+02 -2.220231e+01 -1.138325e+02 -2.305866e+01 -1.141168e+02 -2.402219e+01 -1.140071e+02 -2.502026e+01 -1.139405e+02 -2.564313e+01 -1.138024e+02 -2.635224e+01 -1.136028e+02 -2.676053e+01 -1.133806e+02 -2.651099e+01 -1.133066e+02 -2.538684e+01 -1.135698e+02 -2.321943e+01 -1.136209e+02 -2.062619e+01 -1.129791e+02 -1.759399e+01 -1.116270e+02 -1.422047e+01 -1.098491e+02 -1.028567e+01 -1.077271e+02 -5.658448e+00 -1.050138e+02 -6.001712e-01 -1.005816e+02 4.238730e+00 -9.833394e+01 1.247534e+01 
-3.062108e+01 3.491719e-01 -2.754977e+01 9.248376e+00 -4.020999e+01 5.739295e+00 -2.220725e+01 1.303921e+01 -3.446720e+01 1.126315e+01 -4.152586e+01 8.922959e+00 -4.589672e+01 6.200305e+00 -4.857570e+01 3.406002e+00 -5.052237e+01 7.303143e-01 -5.169129e+01 -2.270216e+00 -5.159884e+01 -5.582942e+00 -5.058617e+01 -9.337700e+00 -4.901944e+01 -1.269696e+01 -4.736703e+01 -1.511288e+01 -4.621719e+01 -1.663482e+01 -4.583519e+01 -1.742895e+01 -4.505004e+01 -1.795010e+01 -4.426560e+01 -1.848516e+01 -4.370994e+01 -1.875778e+01 -4.301047e+01 -1.884615e+01 -4.257357e+01 -1.857446e+01 -4.234986e+01 -1.798659e+01 -4.262721e+01 -1.648870e+01 -4.326237e+01 -1.434460e+01 -4.443147e+01 -1.197308e+01 -4.531433e+01 -9.529680e+00 -4.612747e+01 -6.730762e+00 -4.706520e+01 -3.515348e+00 -4.809424e+01 1.155067e-01 -4.882606e+01 3.600439e+00 -4.859299e+01 7.888785e+00 -5.085374e+01 1.151937e+01 
-3.858892e+00 2.372142e+00 -3.836070e+00 -8.567365e+00 -6.247596e+01 -3.163352e+00 9.675289e+00 1.193289e+00 2.107423e+00 7.968524e-01 -4.308420e-01 5.054358e-01 -1.437740e+00 3.271884e-01 -1.910059e+00 8.721643e-02 -2.107293e+00 -1.417951e-02 -2.176163e+00 -2.996079e-01 -2.219372e+00 -2.699236e-01 -2.373883e+00 -2.523068e-01 -2.276854e+00 -2.413686e-01 -2.304036e+00 -2.439652e-01 -2.183906e+00 -3.864724e-01 -2.061598e+00 -4.189574e-01 -1.903834e+00 -5.154997e-01 -1.683040e+00 -5.175337e-01 -1.553132e+00 -6.054591e-01 -1.313798e+00 -7.470494e-01 -1.235030e+00 -9.019991e-01 -1.022530e+00 -1.088512e+00 -9.027416e-01 -1.137675e+00 -6.991900e-01 -1.189511e+00 -4.793018e-01 -1.109169e+00 -4.440130e-01 -9.134962e-01 -4.269355e-01 -5.670920e-01 -4.336156e-01 -1.535947e-01 -5.428392e-01 2.857085e-01 -7.835818e-01 7.399770e-01 -1.150231e+00 1.382807e+00 -2.060093e+00 3.203217e+00 
-3.115263e+00 2.482946e+00 -3.483220e+00 -8.363515e+00 -8.282946e+01 -4.724800e+00 7.817266e+00 -1.473954e+00 4.503487e+00 -1.234829e-01 2.258122e+00 1.536396e-01 1.016382e+00 2.711797e-01 3.304827e-01 6.295520e-02 5.533621e-02 -2.220281e-02 1.534444e-01 -4.545489e-01 1.331006e-01 -2.597326e-01 3.068437e-02 -1.433089e-01 1.125991e-01 -1.085209e-01 -3.509569e-02 -4.711709e-02 9.230891e-02 -1.290722e-01 -6.381528e-02 6.711298e-02 3.956865e-03 -7.434745e-02 -8.814405e-02 1.281004e-01 -7.736449e-02 1.604711e-02 -6.554259e-02 1.336614e-01 -1.458421e-01 1.118029e-01 -6.598647e-02 6.464677e-02 -2.038497e-01 1.070188e-01 -5.219682e-02 -1.273719e-01 -1.301443e-01 -8.518800e-03 5.059914e-02 -4.109661e-02 -5.402657e-02 1.662681e-01 -1.757108e-01 4.877252e-01 -3.849425e-01 7.768519e-01 -7.100186e-01 1.139989e+00 -1.231616e+00 1.491768e+00 -1.925075e+00 2.259023e+00 
-3.028229e+00 1.555574e+00 -1.722347e+00 -9.701435e+00 -9.310138e+01 -2.901080e+00 5.891156e+00 -2.057953e+00 4.300130e+00 -6.741213e-01 2.432667e+00 -9.747335e-03 1.149694e+00 5.025159e-01 3.650022e-01 2.551253e-01 -2.886641e-02 -3.166461e-01 2.410574e-01 -7.527643e-01 3.256965e-01 -3.950636e-01 9.146988e-02 -4.283753e-02 2.728309e-01 -1.827534e-01 1.124004e-01 5.493335e-02 1.801606e-01 -1.439304e-01 1.545569e-01 9.968994e-02 2.164117e-02 -8.176041e-03 9.576049e-02 1.280113e-01 -1.360122e-01 1.690650e-01 4.467154e-02 1.131382e-01 -1.985971e-01 2.880586e-01 -9.283643e-02 1.229362e-01 -1.978511e-01 1.965186e-01 -1.584532e-01 -4.832785e-02 1.066438e-01 -1.989106e-01 -7.296897e-02 -2.548049e-02 -1.588964e-01 3.600279e-01 -2.619421e-01 6.939397e-01 -5.382932e-01 9.367985e-01 -9.418096e-01 1.200344e+00 -1.471629e+00 1.540265e+00 -2.196361e+00 1.920169e+00 
-2.832273e+00 1.159726e+00 -1.187495e+00 -8.669945e+00 -1.051751e+02 -2.284849e+00 3.246915e+00 -3.129294e+00 3.362345e+00 -1.592427e+00 2.520476e+00 -3.878159e-01 1.391953e+00 9.539733e-01 3.357949e-01 1.200999e+00 -6.723549e-01 -1.285277e+00 5.210049e-01 -9.917565e-01 3.477312e-01 -5.566083e-01 2.312795e-01 7.613329e-02 1.757483e-01 -3.440623e-01 9.398582e-02 6.539106e-02 1.772122e-01 -3.836338e-01 3.373882e-02 1.475154e-01 1.183168e-01 -1.048289e-01 -1.318800e-01 1.968631e-01 -2.541105e-03 1.961157e-01 -1.779086e-01 7.712381e-02 -1.029985e-01 4.312910e-01 -1.459272e-01 3.698835e-02 -2.778319e-01 5.761668e-01 -1.260779e-01 -2.804918e-01 -3.209033e-01 -1.377007e-01 2.689979e-01 -3.818819e-01 2.227792e-01 4.699971e-01 -4.682728e-02 1.009214e+00 -4.919627e-01 1.213240e+00 -9.425035e-01 1.440385e+00 -1.441220e+00 1.755202e+00 -2.074520e+00 2.145058e+00 
-2.248660e+00 5.988959e-01 4.207796e-01 -8.937581e+00 -1.103430e+02 -1.130661e+00 2.154705e+00 -3.076969e+00 2.275695e+00 -2.267734e+00 2.059213e+00 -1.125237e+00 1.361080e+00 1.026023e+00 7.564699e-01 3.340473e+00 -2.276430e+00 -3.420181e+00 1.256824e+00 -3.494499e-02 5.541796e-01 -9.931006e-01 4.068799e-01 1.068182e+00 7.101354e-02 -3.410153e-01 2.853162e-01 -2.501566e-01 1.264939e-01 4.231564e-01 3.079784e-01 -8.321522e-01 7.459956e-02 1.099421e+00 1.365300e-02 -8.115125e-01 -7.548247e-02 1.185966e+00 -1.202553e-01 -3.049224e-01 -1.655703e-01 5.772026e-01 -2.156440e-01 6.028979e-01 -2.677912e-01 3.838812e-02 -3.348396e-01 7.349855e-01 1.303230e-01 -1.416744e+00 1.781013e-01 -1.398857e-01 2.164364e-01 7.554828e-01 -3.844508e-02 1.199974e+00 -5.961494e-01 1.296830e+00 -1.063090e+00 1.449499e+00 -1.481802e+00 1.721019e+00 -1.955089e+00 1.954989e+00 
-1.777639e+00 1.992846e-01 1.237571e+00 -8.157027e+00 -1.174481e+02 -5.312814e-01 1.012411e+00 -3.454070e+00 1.223167e+00 -3.374899e+00 1.787161e+00 -2.830126e+00 1.783452e+00 -1.161538e+00 2.427992e+00 2.000990e+00 -5.306909e+00 7.083675e-02 5.143211e+00 4.382373e+00 3.547339e-01 3.156528e-01 1.647800e+00 3.436910e+00 -2.314738e-02 4.676654e-01 8.151860e-01 3.102336e-01 4.592900e-01 1.599866e+00 4.016292e-02 -2.026170e+00 7.537181e-01 3.177752e+00 -1.008767e+00 -2.534163e+00 1.012116e+00 3.039822e+00 -1.080669e+00 -1.896134e+00 1.055037e+00 1.492885e+00 -6.598191e-01 2.895871e-02 4.305847e-01 1.297193e-01 -5.178137e-01 3.072296e+00 -1.743403e+00 -3.483188e+00 5.455159e-01 -1.609079e+00 1.564132e+00 1.907254e+00 8.893029e-02 1.724421e+00 -8.530982e-01 1.368339e+00 -1.159640e+00 1.465402e+00 -1.393718e+00 1.735485e+00 -1.719123e+00 1.883850e+00 
-1.080142e+00 -3.264969e-01 2.490937e+00 -7.689526e+00 -1.193732e+02 1.462372e-01 6.090963e-01 -3.058304e+00 3.589915e-01 -3.613095e+00 8.015133e-01 -4.620904e+00 8.509992e-01 -1.020255e+01 8.312550e+00 -1.896835e+01 -2.916436e+00 2.865625e+01 3.316050e+01 1.987873e+01 7.284077e+00 2.232836e+01 7.719517e+00 2.898561e+00 1.131257e+01 1.924945e+01 3.859062e+00 6.003251e+00 1.372807e+01 1.313941e+01 3.097756e+00 6.242029e+00 1.066144e+01 5.392786e+00 4.425051e+00 8.339494e+00 6.892511e+00 1.018893e+00 8.386919e+00 9.195245e+00 3.442163e+00 1.966536e+00 9.730484e+00 5.349283e+00 2.627076e+00 2.135979e+00 5.709272e+00 -1.228998e+00 6.710743e+00 -5.788905e+00 4.614630e-01 -6.845765e+00 7.794351e-01 2.713989e+00 6.593196e-02 2.222953e+00 -1.138192e+00 1.365217e+00 -1.279973e+00 1.370838e+00 -1.316603e+00 1.625536e+00 -1.433992e+00 1.676322e+00 
-5.042617e-01 -7.001071e-01 3.209634e+00 -6.663087e+00 -1.228344e+02 6.579914e-01 1.649513e-02 -2.588007e+00 -6.235420e-01 -3.554897e+00 1.262626e-01 -7.111472e+00 3.430460e+00 -2.226782e+01 2.035294e+01 -4.317871e+01 1.675740e+01 7.285221e+01 7.701179e+01 1.692188e+01 3.193092e+01 6.854240e+01 3.370361e+01 -3.553133e+00 4.754412e+01 6.409142e+01 2.763864e+01 3.255703e+01 6.603435e+01 4.976949e+01 2.178084e+01 5.803221e+01 5.969210e+01 1.466127e+01 2.292020e+01 6.630829e+01 4.653381e+01 -1.048597e+00 3.535223e+01 6.492099e+01 3.483519e+01 1.399495e+01 5.518680e+01 5.818675e+01 2.524173e+01 3.328538e+01 6.047675e+01 2.976503e+01 1.717658e+01 5.561895e+01 3.898741e+01 4.373004e+01 5.231867e+00 7.130966e+00 -3.531413e+00 2.809888e-01 -2.312079e+00 6.359056e-01 -1.339486e+00 1.225118e+00 -1.100349e+00 1.572042e+00 -1.098151e+00 1.524989e+00 
1.901105e-01 -1.101906e+00 4.056526e+00 -5.836748e+00 -1.223582e+02 9.125433e-01 2.714551e-03 -2.166841e+00 -5.379855e-01 -2.595567e+00 1.231755e+00 -4.113455e+00 5.164400e+00 -9.277821e+00 1.240970e+01 -2.091884e+01 1.759539e+01 2.282255e+01 2.699671e+01 -1.567354e+01 3.294502e+01 2.841063e+01 1.847784e+01 -2.056143e+00 4.736892e+01 2.550112e+01 2.319673e+01 4.239316e+01 5.413391e+01 1.450060e+01 3.283038e+01 7.697165e+01 3.953198e+01 -9.534072e+00 4.234149e+01 8.086877e+01 2.157656e+01 -8.850376e+00 5.505332e+01 6.362349e+01 1.734179e+01 3.128984e+01 6.676959e+01 4.489569e+01 2.767925e+01 7.880383e+01 5.977001e+01 1.068038e+01 4.573301e+01 1.379315e+02 3.389270e+01 5.402625e+01 -7.741852e+00 2.936826e+00 -6.500848e+00 -1.847447e+00 -2.648906e+00 -1.410017e-01 -1.153176e+00 9.666943e-01 -8.259775e-01 1.438697e+00 -7.167705e-01 1.321386e+00 
7.649866e-01 -1.349701e+00 4.547156e+00 -4.850062e+00 -1.230747e+02 1.129042e+00 6.026756e-02 -1.835898e+00 -4.787188e-01 -9.947075e-01 5.620394e-01 3.402220e+00 -5.536377e-01 1.650448e+01 -1.376338e+01 3.652245e+01 -2.076407e+01 -8.685003e+01 -5.767340e+01 -1.395415e+01 -3.543350e+01 -7.086634e+01 -1.288592e+01 -6.899978e+00 -4.816359e+01 -4.655233e+01 -1.694663e+01 -4.954578e+01 -4.928172e+01 -2.217846e+01 -2.685128e+01 -7.104127e+01 -2.974255e+01 5.843136e+00 -3.361618e+01 -6.066107e+01 -1.440066e+01 5.662210e+00 -3.947473e+01 -3.572824e+01 -1.464979e+01 -2.195867e+01 -4.145752e+01 -1.479575e+01 -2.226935e+01 -4.068413e+01 -2.912361e+01 5.327432e+00 -2.504868e+01 -4.465160e+01 -1.025759e+01 -3.896962e+00 -7.771701e-01 3.240204e+00 3.488684e-01 2.214631e+00 -6.264098e-02 1.460210e+00 -3.240359e-01 1.381542e+00 -4.267205e-01 1.469894e+00 -3.362528e-01 1.156215e+00 
1.347534e+00 -1.525887e+00 5.023429e+00 -4.020585e+00 -1.205336e+02 1.364293e+00 -1.240989e-02 -1.792798e+00 -1.028425e+00 -1.419557e+00 -8.113673e-01 2.845870e+00 -4.331161e+00 1.850021e+01 -2.150441e+01 3.216190e+01 -3.782315e+00 -3.664086e+01 -7.338062e+01 -1.944749e+01 -2.720803e+01 -5.104867e+01 -4.024236e+01 2.369986e+00 -4.719502e+01 -5.928557e+01 -3.119270e+01 -3.213557e+01 -7.076416e+01 -4.766903e+01 -2.470966e+01 -6.545926e+01 -6.461215e+01 -1.003670e+01 -2.943554e+01 -8.040981e+01 -4.761244e+01 5.688963e+00 -4.680192e+01 -7.756040e+01 -3.408157e+01 -2.035096e+01 -7.031524e+01 -6.354534e+01 -2.924530e+01 -6.032333e+01 -7.381474e+01 -2.284944e+01 -3.489902e+01 -1.177870e+02 -4.346210e+01 -5.653368e+01 2.745324e+00 -8.209428e-01 4.630396e+00 4.289061e+00 1.457143e+00 2.530095e+00 1.195871e-01 1.678258e+00 -1.741224e-01 1.475330e+00 -7.253028e-04 9.997432e-01 
1.841717e+00 -1.652357e+00 5.324726e+00 -3.179603e+00 -1.190218e+02 1.813727e+00 -2.167403e-01 -1.211447e+00 -1.752159e+00 -1.516942e+00 -1.946426e+00 -9.800585e-01 -2.865342e+00 3.126402e-01 -6.582636e+00 4.707513e+00 -2.646271e+00 2.765875e-01 -1.132299e+01 2.184441e+00 -8.104841e+00 -2.749321e+00 -7.804440e+00 2.801179e+00 -1.112697e+01 -9.312872e+00 -6.826062e+00 -1.220477e+00 -1.479861e+01 -1.131590e+01 -5.569001e+00 -5.537587e+00 -1.589174e+01 -7.167875e+00 -5.836154e+00 -1.397662e+01 -1.423688e+01 -2.018962e+00 -1.066074e+01 -2.257009e+01 -9.749071e+00 -4.269659e+00 -1.803933e+01 -2.649172e+01 -5.712584e+00 -1.126230e+01 -2.283245e+01 -1.851397e+01 -5.542508e+00 -2.503710e+01 -2.026289e+01 -2.710426e+01 -3.729902e+00 -7.232004e+00 1.434345e+00 6.386758e-01 1.105680e+00 1.632657e+00 3.977960e-01 1.523915e+00 1.441463e-01 1.400011e+00 3.482390e-01 8.316544e-01 
2.289607e+00 -1.674571e+00 5.523065e+00 -2.422743e+00 -1.149163e+02 1.999714e+00 -3.102170e-01 -9.482035e-01 -2.166897e+00 -1.192299e+00 -2.516834e+00 -9.396324e-01 -2.622975e+00 -3.786006e+00 -9.444666e-01 -7.079134e+00 3.074857e+00 2.643169e+00 -8.364759e-01 -1.663566e-01 -5.097852e-01 2.038788e+00 -1.231617e+00 -2.366329e+00 2.501253e-01 1.581988e+00 -6.418975e-01 1.296528e-01 -2.160132e-01 -3.318264e-01 4.134384e-02 2.310263e+00 -5.387027e-01 -2.744229e+00 8.779859e-01 2.462843e+00 -6.348500e-01 -2.931796e+00 3.516174e-01 8.877077e-01 -2.256333e-01 -1.705175e+00 -4.263629e-01 -1.748512e+00 7.156001e-01 -4.792051e-01 -5.732719e-01 -3.912813e+00 8.411183e-01 4.346193e+00 -4.434253e-01 1.207682e+00 -8.532025e-01 -3.250589e+00 2.146063e-01 -6.839452e-01 7.012256e-01 9.010471e-01 4.727781e-01 1.283810e+00 3.351725e-01 1.280109e+00 6.325049e-01 6.729097e-01 
2.630756e+00 -1.755771e+00 5.689187e+00 -2.028759e+00 -1.118317e+02 2.302527e+00 -1.791200e-01 -9.127272e-01 -2.094534e+00 -1.724341e+00 -2.152265e+00 -1.638755e+00 -1.567378e+00 -2.326247e+00 -2.343556e-01 -2.868066e+00 1.025560e+00 1.890160e-01 1.740471e-01 -8.033909e-01 -2.508975e-01 1.279263e-01 -2.688002e-01 -1.540250e+00 1.691617e-01 2.683568e-02 -3.147620e-01 -2.354669e-01 1.253121e-01 -5.218132e-01 -3.810938e-01 7.079952e-01 1.163707e-02 -1.393946e+00 9.130797e-02 1.224609e+00 -5.783286e-02 -1.579907e+00 4.072838e-01 1.062953e+00 -2.279309e-01 -6.918725e-01 4.229512e-01 3.211317e-02 -2.700526e-01 3.486932e-01 1.784262e-01 -7.241605e-01 -4.052127e-01 3.032034e+00 -1.750815e-01 1.683834e+00 -4.441773e-01 -1.028936e+00 -6.490596e-03 -5.399876e-01 4.048380e-01 4.837678e-01 4.342142e-01 9.774092e-01 4.541851e-01 1.076264e+00 8.554581e-01 4.682510e-01 
2.913730e+00 -1.767467e+00 5.701658e+00 -1.503761e+00 -1.065373e+02 2.365625e+00 -1.310793e-01 -7.911235e-01 -2.052255e+00 -1.743967e+00 -2.010666e+00 -1.786316e+00 -1.271782e+00 -1.954323e+00 -3.131395e-01 -1.391084e+00 5.559003e-01 -1.217671e+00 -1.816596e-01 -2.987906e-01 -1.385317e-02 -4.640954e-01 -1.287263e-01 -6.559929e-01 -8.717800e-02 -1.425908e-01 7.701082e-03 -3.912067e-01 -1.820591e-01 6.066885e-02 5.423720e-02 -1.673665e-01 -1.259096e-01 -1.687410e-01 1.485036e-01 3.531146e-02 1.255565e-02 -3.264050e-01 6.976253e-02 2.492282e-01 9.151265e-02 -2.205007e-01 -4.628726e-02 2.379973e-01 1.476054e-01 1.040130e-01 -1.705078e-01 5.575655e-01 -1.769350e-01 1.635512e+00 -4.572325e-01 9.651628e-01 -1.301558e-01 -1.848445e-01 8.587018e-02 -1.691709e-01 3.137651e-01 3.915370e-01 4.070212e-01 8.017255e-01 5.242889e-01 9.147488e-01 1.030222e+00 2.880197e-01 
3.089481e+00 -1.832101e+00 5.704732e+00 -1.318242e+00 -1.020668e+02 2.456016e+00 1.276505e-01 -7.786887e-01 -1.741076e+00 -1.855158e+00 -1.689837e+00 -1.584207e+00 -1.118743e+00 -1.109160e+00 -6.172994e-01 -1.004393e+00 -3.948454e-01 -9.992741e-01 -3.170244e-01 -1.121296e+00 -6.704214e-02 -6.663852e-01 1.651311e-01 -4.528169e-01 -2.321019e-01 -3.276309e-01 1.156119e-01 -2.363384e-01 -2.186515e-01 -2.073806e-01 6.629308e-02 -9.008047e-02 -3.515387e-02 -1.719399e-01 1.695644e-02 3.671676e-02 1.382557e-01 -1.159513e-01 -1.066220e-01 1.152076e-01 2.041340e-01 2.621846e-02 -1.896139e-01 2.971913e-01 7.965645e-02 3.691150e-01 -3.308292e-01 4.772706e-01 -2.637658e-01 6.186153e-01 -1.901664e-01 5.014959e-01 2.679965e-01 2.857686e-01 2.983157e-01 3.265570e-01 2.840559e-01 4.988342e-01 3.411313e-01 6.875501e-01 5.310862e-01 7.373096e-01 1.132069e+00 8.568723e-02 
3.208178e+00 -1.837676e+00 5.556370e+00 -9.634660e-01 -9.572434e+01 2.423507e+00 1.938409e-01 -7.842472e-01 -1.595242e+00 -2.042604e+00 -1.525524e+00 -1.792882e+00 -9.783162e-01 -6.413561e-01 -7.835540e-01 -1.021974e-01 -5.047971e-01 -1.323783e+00 -9.393296e-01 -1.251244e+00 2.972907e-01 -9.644878e-01 2.734983e-01 3.881484e-01 -4.313045e-01 -7.816071e-01 4.027025e-01 2.211907e-01 -5.334360e-01 -4.327750e-01 4.644211e-01 -1.742979e-02 -2.743676e-01 -1.212361e-02 2.124209e-01 -2.619372e-01 6.057154e-02 3.761873e-01 -2.006714e-01 -4.132420e-01 3.601803e-01 5.408544e-01 -4.748260e-01 -2.344718e-02 3.609771e-01 7.723959e-01 -6.648554e-01 4.595338e-01 -1.539201e-02 1.425851e-01 -3.157717e-01 -3.354238e-02 5.043602e-01 4.879273e-01 4.219206e-01 6.176356e-01 2.336800e-01 5.902902e-01 2.726318e-01 6.351571e-01 5.216959e-01 6.188796e-01 1.204465e+00 -7.538662e-02 
3.238860e+00 -1.842342e+00 5.370150e+00 -7.972717e-01 -8.991460e+01 2.394648e+00 3.304601e-01 -7.485251e-01 -1.331559e+00 -2.258086e+00 -1.197762e+00 -2.324163e+00 -5.442150e-01 -9.797245e-01 -7.544476e-01 1.011002e+00 -1.557079e+00 -1.831494e+00 -7.224907e-01 5.515375e-01 7.759603e-01 -6.222543e-01 1.171252e+00 2.224296e+00 -1.030207e+00 -7.793739e-01 1.365537e+00 1.225323e+00 -1.063553e+00 -2.553821e-01 1.287967e+00 1.287183e-01 -4.381675e-01 6.573277e-01 4.863282e-01 -7.667955e-01 4.683144e-01 1.482061e+00 -5.201976e-01 -1.304154e+00 1.294930e+00 1.474164e+00 -1.028059e+00 -7.097539e-01 1.478052e+00 1.449761e+00 -1.268875e+00 4.741808e-01 5.736934e-01 -1.125376e+00 -6.517297e-01 -1.752386e+00 1.469077e+00 1.297595e+00 6.397454e-01 1.222902e+00 8.354380e-03 6.463970e-01 1.021767e-01 5.139865e-01 4.708042e-01 4.638195e-01 1.233636e+00 -2.347588e-01 
3.216314e+00 -1.795637e+00 5.061830e+00 -4.866067e-01 -8.262928e+01 2.275395e+00 3.210137e-01 -6.155716e-01 -1.259050e+00 -2.251916e+00 -1.206133e+00 -3.515829e+00 8.274579e-02 -5.601036e+00 1.191588e+00 -1.510617e+00 -2.648049e+00 -6.380049e+00 8.148853e+00 1.536025e+01 6.590516e+00 7.035932e+00 7.810313e+00 5.664774e+00 1.288837e+00 7.848354e+00 7.291206e+00 3.434243e+00 3.693622e+00 1.009626e+01 6.237817e+00 2.557752e+00 5.963436e+00 8.362710e+00 3.068303e+00 2.282409e+00 7.431780e+00 4.778381e+00 1.842935e+00 4.293064e+00 7.514512e+00 2.374872e+00 3.136445e+00 6.721661e+00 6.950627e+00 1.929110e+00 4.717514e+00 6.838724e+00 4.231926e+00 1.090212e+00 3.675889e+00 3.819276e+00 3.570804e+00 3.234763e+00 4.239668e-01 1.443081e+00 -3.191305e-01 5.901358e-01 -3.690129e-02 4.311033e-01 4.338435e-01 3.609869e-01 1.245153e+00 -3.530415e-01 
3.126602e+00 -1.661726e+00 4.669011e+00 -1.866774e-01 -7.559130e+01 2.164112e+00 2.288240e-01 -3.280123e-01 -1.289097e+00 -2.121620e+00 -1.107127e+00 -5.440745e+00 2.022758e+00 -1.325778e+01 5.985816e+00 -7.924315e+00 -4.111183e-01 -1.355929e+01 2.874728e+01 3.690879e+01 2.157758e+01 2.368604e+01 2.680951e+01 7.917312e+00 1.146823e+01 3.160135e+01 2.549267e+01 6.639645e+00 2.021352e+01 4.065141e+01 2.355571e+01 1.201447e+01 2.756127e+01 3.186840e+01 1.351542e+01 1.717568e+01 3.079145e+01 1.445780e+01 1.040825e+01 2.841338e+01 2.859768e+01 5.647539e+00 1.665611e+01 3.844259e+01 2.731130e+01 7.708945e+00 2.511730e+01 3.827164e+01 1.719114e+01 2.251309e+01 2.068071e+01 4.564797e+01 1.170394e+01 1.040123e+01 -2.124536e+00 2.065538e-02 -1.406094e+00 -2.618073e-01 -1.970430e-01 1.687262e-01 4.585245e-01 2.499047e-01 1.267795e+00 -4.240414e-01 
2.972947e+00 -1.505450e+00 4.225154e+00 4.356911e-02 -6.754640e+01 1.903785e+00 2.630656e-01 -2.289609e-01 -9.602727e-01 -1.471069e+00 -6.660294e-01 -2.910405e+00 1.391096e+00 -6.453612e+00 4.163498e+00 -5.883161e+00 2.118280e+00 -6.097408e+00 1.606861e+01 9.128241e+00 1.204364e+01 1.185145e+01 1.638868e+01 -1.226714e+00 1.126175e+01 1.957444e+01 1.461284e+01 1.979281e+00 1.751419e+01 2.464625e+01 1.417573e+01 1.061227e+01 2.145567e+01 1.809751e+01 9.862516e+00 1.790208e+01 2.127880e+01 6.172659e+00 1.021006e+01 2.640781e+01 1.700133e+01 2.344077e+00 1.599978e+01 3.206022e+01 1.560124e+01 8.950348e+00 2.215432e+01 2.964793e+01 1.117811e+01 2.706934e+01 1.928542e+01 4.339477e+01 6.486215e+00 8.521732e+00 -2.722943e+00 -2.787365e-01 -1.279919e+00 -3.802556e-01 -9.121907e-02 9.591465e-02 4.956478e-01 1.830325e-01 1.250624e+00 -4.658107e-01 
2.746871e+00 -1.246928e+00 3.688036e+00 2.814935e-01 -5.959487e+01 1.558773e+00 3.079066e-01 -8.966087e-02 -6.027771e-01 -1.801115e-01 -8.926484e-01 2.786427e+00 -3.037987e+00 1.001567e+01 -6.034202e+00 4.853618e+00 1.933421e+00 7.571957e+00 -2.778055e+01 -3.485672e+01 -1.822592e+01 -2.710455e+01 -2.189099e+01 -6.056343e+00 -1.221799e+01 -3.201387e+01 -1.811201e+01 -5.953209e+00 -2.094186e+01 -3.535941e+01 -1.678341e+01 -1.375844e+01 -2.547605e+01 -2.323618e+01 -1.085258e+01 -2.009552e+01 -2.476343e+01 -6.433408e+00 -1.159209e+01 -2.787885e+01 -1.988436e+01 -4.442864e-01 -1.875781e+01 -3.194988e+01 -1.838131e+01 -6.088749e+00 -2.468585e+01 -2.624678e+01 -1.271398e+01 -2.172633e+01 -1.936233e+01 -3.407604e+01 -6.340029e+00 -4.198742e+00 1.723362e+00 1.371780e+00 1.126449e+00 1.006106e+00 6.064723e-01 5.475713e-01 6.466828e-01 2.674092e-01 1.234072e+00 -4.276990e-01 
2.463650e+00 -1.018651e+00 3.163320e+00 3.983232e-01 -5.093615e+01 1.339913e+00 2.537055e-01 -5.128507e-02 -5.958276e-01 -1.221027e-01 -1.162221e+00 2.569726e+00 -3.703194e+00 9.008033e+00 -6.236735e+00 4.003818e+00 -1.528052e+00 1.400566e+01 -2.373817e+01 -3.040640e+01 -1.957100e+01 -1.703730e+01 -2.556010e+01 -8.453240e+00 -1.022791e+01 -2.646070e+01 -2.509584e+01 -6.434653e+00 -1.840189e+01 -3.705148e+01 -2.280461e+01 -1.047952e+01 -2.590593e+01 -3.052525e+01 -1.284072e+01 -1.568436e+01 -2.951819e+01 -1.456813e+01 -9.645315e+00 -2.745399e+01 -2.755779e+01 -5.944006e+00 -1.578136e+01 -3.833186e+01 -2.620588e+01 -7.775489e+00 -2.447840e+01 -3.917719e+01 -1.658529e+01 -2.377763e+01 -2.106814e+01 -4.884962e+01 -1.140519e+01 -1.029724e+01 2.503853e+00 1.029401e+00 1.754935e+00 1.217755e+00 7.911952e-01 6.353473e-01 6.555926e-01 2.703045e-01 1.148180e+00 -3.891706e-01 
2.137555e+00 -7.708327e-01 2.579426e+00 5.622019e-01 -4.230596e+01 1.159884e+00 4.980175e-02 1.585251e-01 -7.470225e-01 -1.594622e-01 -1.195030e+00 -7.633345e-02 -1.657034e+00 -1.743556e-01 -1.626570e+00 -1.060153e+00 -7.531786e-01 2.815442e+00 -3.840173e+00 -2.302730e+00 -3.568788e+00 -4.648398e-01 -5.135990e+00 -1.925529e+00 -1.574664e+00 -2.772499e+00 -5.149390e+00 -1.381501e+00 -2.760857e+00 -5.176500e+00 -4.316034e+00 -1.152550e+00 -4.328295e+00 -5.599045e+00 -2.069376e+00 -1.676320e+00 -5.665004e+00 -4.256411e+00 -9.549640e-01 -3.962532e+00 -5.748319e+00 -2.945272e+00 -1.816773e+00 -6.893158e+00 -5.137880e+00 -2.658143e+00 -3.555917e+00 -8.313044e+00 -2.889463e+00 -2.538018e+00 -3.802843e+00 -7.657244e+00 -3.809676e+00 -4.258709e+00 1.283491e-01 -7.570292e-01 7.806090e-01 2.710232e-01 6.505316e-01 3.634341e-01 6.430148e-01 1.977071e-01 1.057855e+00 -3.415389e-01 
1.767161e+00 -5.723664e-01 2.027462e+00 5.628810e-01 -3.328839e+01 9.386829e-01 -1.136483e-02 2.155724e-01 -6.756994e-01 -4.109507e-02 -1.037923e+00 -3.575126e-01 -9.512974e-01 -1.736160e+00 -6.515221e-02 -1.957393e+00 -3.474572e-01 -4.234801e-01 1.443679e+00 8.265660e-01 -1.041738e+00 8.409693e-01 -8.520633e-01 -1.623953e+00 5.910076e-01 1.117945e+00 -1.246177e+00 -1.082378e+00 9.999063e-01 6.750035e-01 -1.323517e+00 -2.301321e-01 6.003009e-01 -4.459914e-01 -4.901692e-01 6.168714e-01 -1.617028e-01 -1.518581e+00 6.310057e-01 1.270198e+00 -9.556769e-01 -1.630010e+00 1.236862e+00 8.324663e-01 -1.222789e+00 -1.384233e+00 1.273871e+00 -7.128637e-02 -6.277521e-01 1.558941e+00 5.423455e-01 2.180333e+00 -1.302197e+00 -1.188745e+00 -3.050591e-01 -8.935730e-01 4.352964e-01 -7.377776e-02 5.317843e-01 1.923375e-01 5.634629e-01 1.263646e-01 9.058006e-01 -2.980267e-01 
1.351007e+00 -4.084888e-01 1.458529e+00 4.912676e-01 -2.432973e+01 6.889657e-01 -6.215937e-02 1.254188e-01 -4.783830e-01 -2.206093e-01 -6.248021e-01 -5.468283e-01 -4.424944e-01 -9.832975e-01 -6.125304e-02 -8.430395e-01 8.460031e-02 -6.447160e-01 5.607721e-01 2.874245e-01 -1.834484e-01 1.915070e-01 -2.486596e-01 -4.569964e-01 1.461896e-01 2.573074e-01 -3.373922e-01 -3.849188e-01 2.601471e-01 2.641232e-01 -3.751150e-01 -1.988530e-01 1.497458e-01 -2.440087e-03 -1.310907e-01 2.919714e-02 3.307692e-03 -3.711637e-01 2.048520e-01 3.661561e-01 -1.932687e-01 -5.119464e-01 4.171903e-01 3.395942e-01 -2.519096e-01 -4.469421e-01 3.726704e-01 4.881068e-01 -3.003420e-01 7.843189e-01 -1.908661e-02 1.064941e+00 -4.964528e-01 -1.293437e-01 -2.001335e-01 -4.206850e-01 1.495864e-01 -1.704153e-01 3.121050e-01 2.401040e-02 4.163405e-01 2.633067e-02 7.096305e-01 -2.653628e-01 
9.210218e-01 -2.644336e-01 9.046733e-01 3.921922e-01 -1.515923e+01 4.331770e-01 -7.607304e-02 1.245057e-01 -2.927431e-01 -1.419625e-01 -3.596311e-01 -4.582916e-01 -2.006396e-01 -6.530753e-01 -2.097070e-02 -4.719554e-01 1.793516e-01 -6.671619e-01 3.101093e-01 2.440763e-01 -6.452673e-03 -1.623401e-02 -1.219721e-01 1.196855e-02 5.477591e-02 -4.301307e-02 -1.583214e-01 -9.897130e-02 7.843359e-02 1.415934e-01 -1.684365e-01 -1.784240e-01 1.642729e-02 1.693132e-01 -4.083425e-02 -2.428932e-01 1.472148e-04 4.911943e-02 1.132382e-01 -9.349937e-02 -4.909962e-02 -9.859010e-02 1.986054e-01 3.882109e-02 -4.576107e-02 -1.523262e-01 1.247565e-01 5.072146e-01 -1.479725e-01 4.028884e-01 -1.427869e-01 6.519104e-01 -3.256279e-01 1.441621e-01 -2.008305e-01 -2.256584e-01 2.716119e-02 -1.753911e-01 1.824380e-01 -4.627558e-02 2.826172e-01 -2.592972e-02 4.970968e-01 -2.176177e-01 
4.565648e-01 -1.259677e-01 3.343431e-01 2.666083e-01 -6.010542e+00 1.317914e-01 -8.229851e-02 6.656936e-02 -8.150241e-02 -5.685442e-02 -9.534375e-02 -2.421141e-01 -2.705788e-02 -3.211196e-01 4.968320e-02 -2.685692e-01 1.767048e-01 -3.335380e-01 1.192863e-01 3.540722e-02 6.551192e-02 -4.401908e-03 -7.190919e-03 5.264901e-02 7.778346e-03 -1.988739e-02 -3.507903e-02 -1.345333e-02 -1.744139e-02 4.854341e-02 -3.911707e-02 -6.398174e-02 -2.965487e-02 6.792446e-02 -1.727015e-04 -1.233758e-01 6.368790e-03 2.401384e-02 3.902109e-02 -8.344780e-02 3.227364e-02 -3.046908e-02 6.190352e-02 8.194534e-03 3.157085e-02 1.441765e-02 -2.981825e-02 2.996796e-01 -1.206186e-01 2.390435e-01 -1.749475e-01 3.429936e-01 -1.748969e-01 1.681026e-01 -1.237860e-01 -6.119295e-02 -2.977892e-02 -1.147034e-01 5.914180e-02 -7.693317e-02 1.295020e-01 -6.622666e-02 2.564305e-01 -1.630481e-01 
3.046711e-03 5.449264e-03 -2.157034e-01 1.405242e-01 3.164621e+00 -1.281049e-01 -8.567991e-02 7.521260e-02 1.011049e-01 8.224169e-02 1.128686e-01 -6.367269e-02 1.217147e-01 -1.247254e-01 1.481462e-01 -1.353193e-01 2.356330e-01 -1.660092e-01 1.259339e-01 1.625204e-02 1.117077e-01 3.692623e-02 2.106812e-02 1.094607e-01 3.665621e-02 -6.655317e-04 -1.580555e-02 5.305775e-02 -1.585103e-02 2.549082e-02 -1.265359e-02 1.229006e-03 -3.755208e-02 3.811364e-02 2.124194e-02 -7.643582e-02 -1.069986e-02 1.705797e-02 4.445237e-02 -9.126604e-02 1.878573e-02 -9.016500e-04 4.319733e-02 -2.860651e-02 2.395282e-02 6.580197e-02 -5.089768e-02 1.905943e-01 -8.481052e-02 1.778859e-01 -1.731775e-01 2.040224e-01 -1.657767e-01 1.378067e-01 -1.317489e-01 -2.641605e-02 -8.452588e-02 -1.039804e-01 -3.480249e-02 -1.004633e-01 -4.552438e-03 -8.756072e-02 2.344961e-02 -9.861255e-02 
-4.669931e-01 1.585075e-01 -7.890621e-01 4.283729e-02 1.238518e+01 -4.331812e-01 -1.098806e-01 5.019343e-02 2.678844e-01 2.223390e-01 3.094147e-01 1.290100e-01 2.654219e-01 6.001978e-02 2.408424e-01 2.689414e-02 2.444726e-01 4.106237e-03 1.476569e-01 6.417170e-02 1.235385e-01 8.129854e-02 6.978364e-02 1.094647e-01 4.668920e-02 5.728804e-02 2.000474e-02 6.582058e-02 -3.217542e-03 4.220329e-02 5.105640e-03 2.460362e-02 -1.506045e-02 2.605720e-02 1.327904e-02 -2.700432e-02 3.764678e-03 2.778871e-04 1.904853e-02 -4.594723e-02 2.180459e-02 -6.897878e-03 1.096772e-02 -8.042070e-03 3.322993e-03 4.481408e-02 -6.643887e-02 1.011797e-01 -9.902557e-02 9.893893e-02 -1.499977e-01 1.058344e-01 -1.346965e-01 7.020344e-02 -1.220949e-01 -2.488906e-02 -1.161662e-01 -9.290077e-02 -1.145532e-01 -1.126161e-01 -1.358800e-01 -9.969902e-02 -2.156203e-01 -2.251619e-02 