# vtk DataFile Version 2.0
Comment goes here
ASCII

DATASET STRUCTURED_POINTS
FIELD FieldData 1
TIME 1 1 double
0.09000000
DIMENSIONS    64   64   1

ORIGIN    0.000   0.000   0.000
SPACING   0.03125 0.03125   1.000

POINT_DATA   4096
SCALARS P double
LOOKUP_TABLE default

-1.031027e+03 9.378459e+03 2.849873e+03 4.477375e+04 2.414216e+03 -9.370655e+03 3.648189e+03 -5.823093e+01 -2.362994e+03 -4.830074e+03 4.088949e+03 4.676461e+03 7.590597e+03 6.152020e+03 6.689217e+03 3.237437e+03 -2.371576e+03 -8.032099e+03 -7.404853e+03 -9.358360e+03 -8.230453e+03 -7.831350e+03 -5.993540e+03 -2.687836e+03 -2.275059e+02 5.951960e+03 9.576330e+03 7.064492e+03 6.433774e+03 1.147956e+04 1.129767e+04 6.740710e+03 4.608542e+03 4.618131e+03 3.930341e+02 -3.257807e+03 -2.279096e+03 -1.160261e+03 -5.142798e+03 -7.660906e+03 -6.354139e+03 6.406275e+01 3.645804e+03 8.375427e+03 1.326343e+04 1.933659e+04 1.639372e+04 1.166703e+04 1.041974e+04 2.019806e+04 1.939398e+04 1.822433e+04 1.814592e+04 2.075831e+04 1.717347e+04 1.291185e+04 1.231406e+04 2.451916e+04 1.262299e+04 -4.422267e+03 -5.796175e+03 5.347379e+03 -1.077589e+04 4.467001e+03 
1.468144e+04 4.822902e+04 1.138054e+04 5.093488e+04 7.676375e+03 2.089069e+03 1.535207e+04 -1.155288e+03 3.504106e+03 -1.627073e+03 3.755928e+03 -3.648767e+02 5.986702e+03 4.632286e+03 7.597875e+03 6.079393e+03 4.804893e+03 4.986217e+02 -3.905583e+02 -1.266551e+03 8.088817e+02 7.794448e+02 3.295187e+03 3.905693e+03 3.303059e+03 6.472101e+03 6.058649e+03 5.979936e+03 5.785678e+03 7.985662e+03 5.812042e+03 3.443833e+03 1.825043e+03 9.495908e+02 -1.381653e+03 -1.623644e+03 1.784913e+03 3.156755e+03 -2.638350e+03 -2.538862e+03 -1.831940e+03 -1.082668e+03 2.212906e+02 8.136687e+03 1.170654e+04 1.305412e+04 8.615217e+03 7.684519e+03 8.429231e+03 1.273628e+04 4.579777e+03 5.807492e+03 1.354482e+04 1.541833e+04 1.160972e+04 1.054127e+04 1.186221e+04 2.244422e+04 1.120903e+04 5.660415e+02 -2.914711e+02 7.585019e+03 -1.842227e+04 3.821072e+03 
-6.017838e+03 3.540757e+04 -3.562529e+03 2.760541e+04 1.389886e+02 -5.305689e+03 4.926149e+03 -1.110680e+04 -2.594004e+03 -9.045584e+03 -3.556163e+03 -8.011523e+03 -3.030145e+02 -1.352753e+03 2.931104e+03 2.677665e+03 3.672930e+03 2.418040e+03 2.519403e+03 9.335302e+02 2.235914e+03 1.261520e+03 4.776975e+03 3.943405e+03 3.682399e+03 4.331523e+03 2.067558e+03 2.728840e+03 2.329701e+03 1.948634e+03 -3.383866e+02 -1.644930e+03 -7.786874e+02 -1.149643e+03 -2.176856e+03 -1.504696e+03 1.052862e+03 2.065977e+03 -8.731443e+02 5.107942e+02 1.445928e+03 2.632041e+02 -2.439669e+02 3.708220e+03 5.686885e+03 4.730609e+03 7.269295e+02 -3.616421e+02 -7.342204e+02 -1.724400e+02 -6.504361e+03 -4.141873e+03 2.120370e+03 2.807352e+03 1.818295e+03 2.308655e+00 4.442223e+02 4.392199e+03 -1.129483e+03 -6.940369e+03 -8.812260e+03 -5.897277e+03 -2.392018e+04 -6.507393e+03 
-3.535286e+04 1.779514e+04 1.950515e+04 3.116300e+04 1.773452e+04 1.471122e+03 1.395693e+04 -5.422632e+03 6.457622e+03 -3.609016e+03 2.841760e+03 -3.185148e+03 3.617274e+03 5.589530e+02 5.017045e+03 3.135391e+03 5.091421e+03 3.513119e+03 4.232991e+03 2.975688e+03 3.898913e+03 3.145560e+03 5.026186e+03 4.488731e+03 4.038507e+03 4.909001e+03 2.986951e+03 4.598326e+03 3.311747e+03 2.686146e+03 1.241484e+03 3.863047e+02 3.123404e+02 -2.806557e+02 -3.405602e+02 1.652782e+02 1.223825e+03 2.193944e+03 6.110176e+02 1.775728e+03 1.702586e+03 2.085779e+03 1.751060e+03 4.602484e+03 4.843200e+03 5.467498e+03 2.721350e+03 3.654412e+03 2.560570e+03 3.919529e+03 4.733344e+02 2.849773e+03 5.150777e+03 6.753085e+03 6.251259e+03 7.025970e+03 6.448570e+03 8.743574e+03 6.683678e+03 5.261322e+03 -1.540029e+03 -2.537342e+03 -3.357253e+04 -1.346477e+04 
-7.556823e+04 -3.331988e+04 -6.982175e+02 9.856595e+03 2.580525e+04 -6.583314e+03 3.535776e+02 -1.231707e+04 -2.379188e+03 -9.077421e+03 -7.635731e+02 -5.713897e+03 1.532584e+03 -1.933192e+03 2.906356e+03 3.471707e+02 3.012262e+03 8.428281e+02 2.293960e+03 7.749171e+02 1.847953e+03 9.788302e+02 2.085256e+03 1.898352e+03 1.839466e+03 2.612868e+03 1.425945e+03 2.657554e+03 1.711237e+03 5.710067e+02 2.659772e+02 -6.892284e+02 -4.412277e+02 -1.022446e+03 -5.752980e+02 -4.209568e+02 5.130295e+02 9.828523e+02 6.864694e+02 1.342459e+03 1.433564e+03 1.709184e+03 1.587618e+03 2.972904e+03 2.780640e+03 2.998644e+03 1.407188e+03 1.260332e+03 -1.779065e+02 3.646490e+02 -1.631453e+03 -5.432573e+02 -1.585733e+02 4.717436e+02 -6.887647e+02 3.900201e+02 -7.693033e+02 4.995613e+02 -1.256826e+03 -3.516881e+03 -8.611142e+03 -1.537693e+04 -4.153732e+04 -3.571844e+04 
-5.885666e+04 -3.989357e+04 -6.912698e+03 1.172210e+04 6.735709e+04 -8.038224e+03 7.045729e+03 -5.387820e+02 4.273750e+03 -5.054309e+03 2.925220e+03 -3.207390e+03 4.005583e+03 -4.700629e+02 4.642178e+03 1.322490e+03 4.453490e+03 1.935411e+03 3.518738e+03 2.241550e+03 2.981344e+03 2.176545e+03 2.730746e+03 2.335414e+03 1.962301e+03 2.815671e+03 1.492898e+03 5.171462e+03 2.549619e+03 1.327136e+03 1.446477e+03 3.445489e+02 6.703279e+02 -1.052858e+03 2.525911e+02 6.185889e+02 1.188410e+03 1.731125e+03 1.506101e+03 2.073826e+03 1.810878e+03 2.747120e+03 2.414473e+03 4.067072e+03 3.289557e+03 4.568340e+03 2.815202e+03 4.175561e+03 2.871942e+03 4.629172e+03 2.829660e+03 5.178028e+03 4.128632e+03 6.762129e+03 5.022572e+03 6.182803e+03 4.354650e+03 3.332075e+03 4.376246e+03 2.076178e+03 1.773893e+03 -7.961449e+03 -2.469172e+04 -3.671151e+04 
-9.179402e+04 -4.776855e+04 -3.592821e+04 -3.789787e+04 4.717323e+04 -2.335686e+04 1.573971e+04 -9.414186e+03 -8.675890e+03 -9.485510e+03 -2.604693e+02 -3.756739e+03 3.537459e+03 -9.843019e+02 3.857006e+03 -1.322459e+02 2.817762e+03 -4.115537e+02 1.200048e+03 -3.722143e+02 1.746161e+02 -5.831542e+02 -8.384599e+02 -1.363820e+03 -1.399550e+03 -3.609802e+02 -6.730447e+02 2.384663e+03 9.674448e+01 -2.771058e+03 2.851378e+02 -7.963120e+02 -8.763198e+02 -1.969401e+03 -2.433260e+02 -1.931325e+02 8.929353e+02 8.973205e+02 1.652526e+03 1.916770e+03 1.936524e+03 2.188643e+03 2.082705e+03 2.920613e+03 2.217949e+03 2.780940e+03 1.930037e+03 1.695358e+03 1.562650e+01 8.295436e+02 -2.298851e+02 4.754085e+01 -1.125876e+03 -9.067702e+02 -9.722238e+02 -9.390735e+02 -4.976607e+03 -6.781981e+03 -7.939037e+03 -1.750407e+04 -1.274074e+04 -2.556931e+04 -2.651412e+04 -5.776150e+04 
-4.705201e+04 -2.176425e+04 1.980170e+03 -2.811603e+04 2.560288e+04 -3.026391e+03 1.235973e+04 -1.240813e+04 -4.224885e+02 -1.229888e+04 -3.643534e+02 -4.463558e+03 4.320179e+03 -9.763211e+02 4.605944e+03 3.256413e+02 3.963560e+03 7.593304e+01 1.479145e+03 1.104353e+03 8.151584e+02 -2.396484e+02 -3.709048e+02 -2.468549e+03 -2.587014e+03 -3.816322e+03 -6.471771e+03 -3.435537e+03 -2.260639e+03 -7.660739e+03 1.079270e+03 -8.730478e+02 -1.444766e+02 -4.851816e+03 -2.632315e+02 1.510197e+03 1.907321e+03 2.058055e+03 2.180962e+03 1.979203e+03 1.811218e+03 2.805142e+03 2.631949e+03 3.620792e+03 2.694772e+03 4.239404e+03 2.245196e+03 3.269536e+03 2.785670e+03 5.227145e+03 3.140850e+03 7.150825e+03 3.828879e+03 7.589531e+03 5.685591e+03 6.434212e+03 7.655298e+03 4.849234e+03 8.375483e+03 -8.126939e+02 4.948795e+03 3.886836e+03 -2.042778e+04 -2.282269e+04 
-4.335849e+03 -3.005626e+04 1.931901e+03 -3.344332e+04 -3.582104e+04 -2.922054e+04 -3.310960e+04 -3.015822e+04 -1.048428e+04 -1.168027e+04 3.853260e+03 -1.026072e+02 7.596339e+03 1.535028e+03 5.699109e+03 5.386130e+02 3.309964e+03 -1.783330e+03 -1.175326e+03 -2.158122e+03 -2.798190e+03 -3.426815e+03 -5.665645e+03 -7.628760e+03 -7.625757e+03 -7.660410e+03 -9.307012e+03 -6.542664e+03 -1.079435e+04 -9.076909e+03 -3.001668e+03 4.396722e+02 4.043623e+02 -2.433889e+03 -2.206710e+02 -8.653679e+02 1.962323e+03 3.774893e+02 2.703137e+03 2.474227e+03 2.447929e+03 2.319095e+03 1.630493e+03 2.617000e+03 1.612789e+03 2.621038e+03 9.627508e+02 4.320504e+02 -9.832585e+02 1.655033e+03 -1.717192e+02 -1.300606e+03 -2.028679e+03 -8.346715e+02 -4.605597e+03 1.244107e+02 -4.286644e+03 -2.010458e+03 -4.466173e+03 -1.060960e+04 -8.975065e+03 -3.861355e+04 -1.866273e+04 -1.505092e+04 
2.396393e+04 -2.094125e+04 9.397981e+03 -4.295851e+04 -3.589193e+04 -2.913400e+04 -2.393628e+04 -3.007059e+04 2.930594e+03 -3.191093e+04 -1.091978e+04 -1.659318e+03 8.501602e+03 -5.562072e+02 4.429119e+03 -8.971273e+02 3.047633e+03 -2.725895e+03 -2.413933e+03 -1.628175e+03 -3.879316e+03 -2.779443e+03 -3.176759e+03 -5.536558e+03 -4.713008e+03 -3.135645e+03 -2.902923e+03 6.382301e+02 -5.645467e+03 4.266996e+03 -3.498779e+03 5.703829e+02 2.413910e+03 -7.519952e+03 1.363067e+03 7.665599e+03 2.330357e+03 1.741776e+03 3.176623e+03 1.574585e+03 1.775870e+03 2.789062e+03 2.021083e+03 3.132631e+03 1.860714e+03 3.492753e+03 2.222484e+03 -1.907831e+03 3.119637e+03 4.207985e+03 3.584861e+03 6.986170e+03 3.986396e+02 7.920169e+03 1.761287e+03 2.622411e+03 4.009511e+03 4.411694e+03 4.861817e+02 3.111311e+03 -1.646874e+04 -1.727291e+04 -3.231994e+03 -3.617139e+03 
3.968799e+03 -3.557232e+04 -3.217046e+04 -2.239640e+04 -4.729259e+04 -5.316822e+04 -4.463265e+04 -5.208628e+04 6.500575e+03 -1.456653e+04 1.613980e+04 1.347540e+04 1.477923e+04 4.499275e+03 6.780454e+03 1.071476e+03 5.624404e+03 5.327944e+02 -4.006033e+02 -5.191480e+03 -1.109402e+04 -7.602894e+03 -5.148567e+03 -4.442420e+03 -4.701734e+03 -3.154250e+03 -5.339000e+03 -8.236789e+03 -2.486806e+03 9.269202e+03 4.405227e+03 -2.545837e+03 6.826343e+02 3.280109e+03 -1.187414e+03 3.906613e+03 3.097129e+03 1.708904e+03 2.772208e+03 1.277767e+03 4.519901e+02 1.354717e+03 -3.765325e+02 2.594394e+03 -6.391687e+02 1.073709e+03 -6.398936e+03 -8.987836e+02 1.216685e+03 1.651641e+03 3.045296e+03 5.623878e+03 -5.717686e+01 -4.219660e+03 -8.406603e+03 -1.061079e+03 -5.238517e+03 2.674440e+03 -8.980645e+03 9.564878e+03 -1.199573e+04 2.893978e+03 4.478805e+03 -2.101850e+04 
-6.361988e+03 -3.845418e+04 -3.677852e+04 -3.507067e+04 -3.534383e+04 -7.457723e+04 -2.579371e+03 -7.689292e+04 1.052486e+04 -5.210194e+04 -1.926878e+04 -2.052134e+04 3.563660e+02 -7.818770e+03 3.266350e+01 -3.871248e+03 -1.743231e+03 -8.248653e+03 -7.489582e+03 -4.721569e+03 -2.864358e+03 -4.019143e+03 -4.011335e+03 -5.356310e+03 -6.169185e+03 -3.270637e+03 -5.163163e+03 -8.387785e+03 -7.120267e+03 8.026428e+01 4.046332e+03 -1.980825e+03 -9.657635e+02 -9.761168e+03 -3.946359e+03 -4.946583e+03 -1.581268e+03 -1.687915e+03 9.696943e+02 -1.268806e+03 -1.117013e+03 1.660399e+03 2.443380e+03 1.236515e+03 -6.092372e+01 3.831370e+03 4.630475e+03 6.272734e+03 2.900425e+03 3.657070e+03 2.113541e+03 2.847546e+03 3.379567e+03 6.032321e+02 2.497218e+02 4.467700e+03 1.907460e+03 5.867893e+03 3.015557e+03 -1.200514e+03 -9.896247e+03 2.002536e+04 -4.878947e+03 2.500090e+03 
-3.505559e+04 -5.029379e+03 -6.310956e+04 -8.267814e+04 -3.073982e+04 -6.459548e+04 -1.592897e+04 -7.468320e+04 -3.789126e+03 -3.136541e+04 -7.717782e+03 -1.065461e+04 1.533980e+04 -6.981950e+02 4.081491e+03 -1.753544e+03 7.945281e+03 4.044462e+02 -4.831561e+03 -1.933833e+04 -3.293115e+04 -1.164504e+04 8.588379e+02 -4.098903e+03 -2.364749e+03 -2.343415e+03 -4.504743e+03 -4.900142e+03 3.809756e+03 -1.056627e+03 3.559254e+02 -2.084011e+03 -4.575785e+03 -3.894045e+03 -3.236189e+03 -5.391563e+02 8.841715e+02 -2.099865e+03 -7.566023e+03 -7.828814e+03 -7.557337e+03 1.154794e+03 3.138650e+01 9.061865e+02 -4.955462e+02 5.655442e+03 1.577249e+03 -5.755611e+03 1.458864e+02 4.160737e+03 1.007092e+01 5.751850e+03 1.204925e+03 4.418132e+03 2.495329e+03 -1.590782e+03 -9.907972e+02 -4.689455e+03 -2.191621e+04 -1.623355e+04 -7.621453e+03 -2.218033e+04 -2.011146e+04 2.147389e+04 
-4.442476e+04 -1.042473e+04 -1.495229e+04 -7.000742e+04 1.502580e+04 -6.809179e+04 -3.524365e+04 -6.474081e+04 -3.227219e+04 -3.419672e+04 -6.336405e+03 -2.196839e+04 -5.599207e+03 -3.051755e+04 -1.238191e+04 2.991540e+03 3.816793e+03 -8.369709e+03 -1.330370e+04 -2.313878e+04 -3.234991e+04 -1.608945e+04 1.205964e+03 -3.036137e+03 -3.866915e+03 -3.057205e+03 -3.293323e+03 -5.796178e+01 1.302073e+03 -6.713985e+03 1.686240e+03 -6.561971e+03 -6.196043e+02 -3.097670e+03 -3.997770e+03 -7.827170e+03 -5.274894e+03 -8.603905e+03 3.864643e+01 7.650641e+03 5.280303e+03 2.215633e+03 3.196945e+03 2.363181e+03 -1.127814e+02 1.220172e+03 -6.050726e+03 -3.585336e+03 -2.661913e+03 4.090777e+03 4.652390e+03 3.510310e+03 -1.384424e+03 -5.532098e+03 6.974484e+02 -3.020039e+03 8.749677e+02 -1.562415e+04 1.688472e+04 -4.573127e+02 1.783681e+04 3.690001e+03 -4.370220e+04 -1.073715e+04 
-6.915853e+04 -5.379989e+04 4.952708e+04 -3.868113e+04 2.007353e+04 -2.397969e+04 -1.508641e+04 -3.026468e+04 -3.360778e+03 -1.918299e+04 -1.100848e+03 -2.181182e+04 -1.585287e+04 -8.538233e+03 1.879005e+04 7.767191e+03 3.812770e+03 -7.423223e+03 -7.706141e+03 -1.888199e+03 -5.885449e+03 8.438762e+02 -1.044572e+04 -5.515196e+03 -3.181758e+02 -2.537583e+02 -1.476395e+03 -6.653322e+03 -4.946096e+03 -4.733364e+03 8.569629e+02 -3.151992e+03 -7.771463e+03 -1.298962e+04 -1.416393e+04 -1.546838e+04 -1.269490e+04 -1.132568e+04 -1.125996e+02 1.623681e+03 -8.730205e+03 2.548564e+03 -6.633418e+02 3.779976e+03 3.831290e+02 2.994834e+03 -7.551558e+02 4.988382e+03 3.870341e+02 4.787864e+03 -3.993663e+02 4.123676e+03 -9.407439e+03 -3.442180e+03 -7.722073e+02 1.534023e+02 -1.422091e+03 -2.959398e+03 -3.263190e+04 5.993829e+03 -5.396103e+04 -4.676102e+04 -5.731391e+04 -3.545015e+04 
-5.686576e+04 -9.909625e+04 3.868431e+02 -5.547169e+04 -2.349267e+04 -2.479023e+04 -4.667507e+04 -3.385020e+04 -4.885617e+04 -4.183226e+04 -1.452696e+04 -2.570825e+04 -1.734304e+04 -2.424256e+04 -1.564841e+04 -1.008279e+04 -4.017891e+03 -8.752830e+03 -3.795414e+03 -4.227457e+03 -1.953319e+04 -1.755923e+04 -1.011478e+04 -1.780371e+03 5.184927e+02 -1.591429e+03 -5.844741e+03 -5.082332e+03 -7.749654e+01 -1.090260e+04 2.643639e+03 1.117273e+03 -4.044516e+02 -6.941777e+03 -5.396049e+03 -8.298052e+03 -3.536369e+03 -9.285686e+03 -1.560623e+04 -5.187597e+03 -1.102334e+04 2.795880e+03 -4.888384e+03 6.504444e+00 -3.862817e+03 6.796637e+02 1.343751e+01 2.323786e+03 -6.121995e+02 2.804154e+03 1.659083e+02 1.733980e+03 -6.222690e+03 1.969295e+01 -3.282037e+03 -3.562064e+03 -8.122214e+03 7.110358e+03 -1.096786e+04 1.829138e+04 -3.274003e+04 -5.000291e+04 -5.368450e+03 -3.563121e+04 
3.698880e+03 2.868688e+03 2.380466e+04 -1.936349e+04 2.532348e+04 -1.854985e+04 -1.418175e+04 2.532962e+03 -2.254200e+04 -2.782426e+04 -7.835165e+03 -2.164238e+04 -1.215269e+04 -1.895598e+04 -5.463843e+03 -2.772415e+03 -6.088884e+03 -4.376847e+03 -2.013523e+03 -2.873083e+03 -3.410138e+03 -1.744415e+02 -1.496914e+03 2.362266e+03 2.709451e+03 1.326299e+03 4.282798e+03 4.217929e+03 7.055187e+03 1.684479e+03 3.910775e+03 -1.277324e+03 -2.186931e+03 -9.661982e+03 -8.948927e+03 -1.135037e+04 -4.122996e+03 -6.971664e+03 -9.424596e+03 -1.088887e+04 -4.734726e+03 2.973579e+02 -5.690512e+02 -3.545360e+02 -3.564335e+03 2.263736e+03 2.251890e+02 5.017689e+03 2.460066e+03 6.435719e+03 2.514138e+03 3.062387e+03 -1.759614e+03 7.060817e+03 -2.716538e+03 1.297035e+03 -4.385772e+03 1.409800e+04 -8.049149e+03 2.035632e+04 -1.598864e+04 3.036689e+04 4.115619e+04 4.124453e+04 
-2.384121e+04 -1.413165e+04 -4.764909e+01 -2.558657e+04 -3.046639e+03 -5.457055e+03 -1.865904e+03 -4.783610e+03 1.455329e+04 -1.773345e+04 3.233840e+03 -4.611359e+03 4.291022e+03 -1.366399e+03 2.836489e+03 1.238177e+03 1.355383e+03 -1.291856e+03 -4.346831e+02 -2.580225e+03 -8.071458e+03 -3.913515e+03 -3.854387e+03 -3.686673e+02 -9.381772e+02 -9.436758e+02 -1.068747e+02 -2.904805e+03 -3.229690e+02 -4.787772e+03 4.404295e+02 -1.724010e+03 -1.860377e+03 -9.911433e+03 -1.070745e+04 -1.014966e+04 -3.514112e+03 -7.160557e+03 -7.849335e+03 -8.789175e+03 -4.942028e+03 -7.142941e+02 -1.705757e+03 9.898139e+02 -2.364720e+03 1.769815e+03 -1.176221e+03 2.912744e+03 -2.998332e+02 4.356362e+03 1.756545e+03 3.169013e+03 -5.031933e+03 -1.338538e+03 -6.961405e+03 -3.946922e+03 -9.011733e+03 8.113003e+02 -1.586312e+04 1.483999e+03 -2.124102e+04 4.185672e+03 -8.074326e+03 2.269734e+03 
9.163427e+03 1.117836e+04 2.136382e+04 3.678727e+03 1.318615e+04 -1.169147e+04 5.288573e+03 -2.282082e+04 1.418041e+04 -1.307318e+04 5.580812e+03 -2.744021e+03 7.248885e+03 -5.638437e+03 -5.932597e+02 -2.372775e+03 -6.940459e+02 -6.610029e+02 -6.032977e+02 -9.234530e+02 -4.340503e+00 4.236347e+02 -7.406538e+02 2.004149e+03 1.976073e+03 1.880600e+03 2.394070e+03 1.527199e+03 1.465856e+03 -1.473403e+02 3.477468e+03 1.415525e+03 2.540008e+03 -1.394823e+03 1.125111e+03 3.042142e+03 5.671751e+03 3.701675e+03 -6.351468e+02 -2.122945e+03 6.172856e+02 1.803270e+03 7.684291e+02 1.191279e+03 -2.242035e+02 2.078638e+03 -3.880468e+02 2.992699e+03 4.344981e+02 4.853382e+03 1.545066e+03 7.416227e+03 -1.043732e+03 7.007676e+03 3.783370e+02 9.347804e+03 2.035619e+03 1.355245e+04 2.317017e+03 1.459898e+04 1.511529e+03 5.727246e+03 1.637862e+04 3.864428e+03 
1.340844e+04 -6.028266e+03 1.205003e+04 -8.783059e+03 8.794030e+03 -9.280479e+03 8.803077e+03 -1.132836e+04 1.186974e+03 -3.998751e+03 9.633664e+03 4.658890e+03 9.313915e+03 3.134865e+03 5.057998e+03 9.603904e+02 2.116031e+03 -4.413574e+02 -3.192242e+02 -1.351937e+03 -2.230724e+03 -1.541906e+03 -3.772896e+03 -5.501429e+02 -1.139963e+03 -5.525663e+02 -4.645982e+02 -4.366430e+02 7.046996e+02 6.637270e+01 3.156067e+02 3.540836e+02 8.821374e+02 7.374624e+02 6.438376e+03 7.189467e+03 5.675591e+03 4.262848e+03 2.279640e+03 2.090698e+03 1.302507e+03 1.046332e+03 4.981474e+02 1.637907e+03 -1.284236e+03 1.147649e+03 -1.848200e+03 1.657221e+02 -2.238989e+03 -7.583080e+02 -2.837802e+03 -3.889293e+03 -1.326636e+04 -4.528339e+03 -7.805724e+03 -1.134278e+03 -8.739290e+03 -4.192785e+03 -1.513454e+04 -1.166283e+04 -3.194043e+04 -1.708970e+04 -4.794738e+04 7.180942e+03 
8.760487e+02 -1.362956e+03 1.993232e+04 7.400348e+03 1.691229e+04 -1.072251e+02 1.723506e+04 6.589857e+02 1.925775e+04 -4.621483e+03 1.180214e+04 -1.424037e+03 8.385151e+03 -2.089160e+03 3.753131e+03 -1.223575e+03 2.512030e+03 -8.122983e+01 2.316839e+03 -1.322359e+02 1.117399e+03 2.050665e+03 1.352553e+03 1.456948e+03 1.836552e+03 1.580578e+03 1.612190e+03 4.968706e+02 1.726224e+03 2.591992e+03 2.113747e+03 -5.928978e+02 2.713082e+03 1.357959e+03 6.446774e+03 8.884751e+03 6.792338e+03 6.215883e+03 3.809060e+03 3.096365e+03 3.607726e+03 4.038429e+03 3.237843e+03 -1.948501e+02 -2.123537e+03 -1.742419e+02 -2.264524e+03 4.397820e+02 -1.028476e+03 -5.926375e+03 -1.791932e+04 -1.314887e+04 -5.556682e+03 4.812842e+03 1.791113e+03 1.080237e+04 5.692321e+03 1.152711e+04 2.587467e+03 1.973666e+03 -2.298749e+03 -2.176487e+04 -1.233306e+03 -8.474132e+03 
-1.588485e+04 -1.124831e+04 3.260549e+04 2.017569e+03 1.086177e+04 -1.358315e+03 9.668391e+03 3.253928e+03 1.463276e+04 1.009162e+02 1.122291e+04 2.998444e+03 8.577643e+03 2.373793e+03 5.497774e+03 9.179151e+02 2.932813e+03 -1.049179e+03 9.437817e+02 9.215870e+02 -5.357615e+02 -2.735691e+02 -9.932323e+00 2.255110e+02 5.711469e+02 6.585202e+02 4.925787e+02 9.091268e+02 9.387812e+02 3.627832e+02 1.040647e+03 3.209642e+03 1.976106e+03 1.209343e+02 5.961065e+03 6.883064e+03 5.063365e+03 5.357789e+03 4.812772e+03 5.368988e+03 4.367327e+03 1.798205e+03 1.181696e+03 6.308863e+02 -1.895813e+03 -6.208292e+02 -4.012449e+03 -3.742664e+03 -5.975495e+03 -1.283256e+04 -2.304513e+04 -7.876186e+03 -2.446147e+03 2.964987e+03 -4.803231e+03 2.606550e+03 -8.653802e+03 -5.832406e+03 -1.650326e+04 -1.196463e+04 -3.356417e+04 -1.035812e+04 -2.691799e+04 3.560111e+03 
1.440503e+03 -1.518824e+04 -5.489438e+03 8.269282e+03 2.652889e+04 5.657005e+02 1.833615e+04 4.055907e+03 1.743611e+04 -3.338022e+02 1.203588e+04 -1.861154e+02 8.622229e+03 -4.781751e+02 5.679399e+03 -4.215046e+02 4.255711e+03 -2.044011e+02 1.223551e+03 -1.538508e+03 -5.036294e+00 4.659595e+02 2.244492e+03 -8.692678e+02 1.748487e+03 1.280380e+03 2.176487e+03 3.150203e+03 3.589517e+03 1.011375e+03 1.144172e+03 4.698273e+03 2.521512e+03 1.518706e+03 5.869572e+03 3.975190e+03 2.562982e+03 5.523044e+03 5.084235e+03 5.110408e+03 5.842423e+03 5.264541e+03 2.010789e+03 -6.346299e+03 -6.237419e+03 1.367336e+03 -5.095738e+02 3.182757e+03 9.768004e+01 4.142930e+03 -4.357271e+03 8.663379e+02 4.523331e+03 1.161875e+04 2.455759e+03 9.622544e+03 9.391662e+03 8.967085e+03 -2.864796e+03 5.180169e+02 -2.405019e+03 -3.397026e+03 1.129064e+04 3.973003e-01 
4.097209e+04 -6.835976e+04 -6.242052e+04 1.709991e+03 -6.374901e+03 -3.051546e+03 2.248485e+03 4.258410e+03 1.018527e+04 2.255057e+03 8.941112e+03 2.176039e+03 7.128991e+03 1.796411e+03 5.300435e+03 1.374412e+03 4.013171e+03 9.737090e+02 3.506693e+03 8.515927e+02 -9.787801e+02 2.959521e+02 1.167194e+03 6.082756e+02 -1.201245e+03 5.286609e+02 1.704314e+03 3.284953e+03 3.156906e+03 2.132043e+03 2.219378e+03 4.383590e+03 3.077316e+03 3.432265e+02 3.611129e+03 1.783860e+02 4.572614e+02 5.430118e+03 4.765122e+03 5.567574e+03 3.789558e+03 2.858861e+03 -5.391506e+03 -2.473338e+03 -7.703476e+03 -5.481683e+01 -4.516951e+03 -3.830770e+03 -4.744252e+03 -1.346416e+03 -1.343064e+04 -1.603198e+04 -1.410036e+04 -1.527407e+03 -5.153515e+03 5.091130e+03 -1.149098e+04 -9.936204e+03 -1.422371e+04 -1.548523e+04 -1.111246e+04 -1.063797e+04 -9.490447e+01 2.033030e+04 
-9.273286e+03 1.455083e+03 -1.116046e+04 2.468906e+04 -2.533847e+03 -4.646235e+03 8.364015e+03 2.964075e+03 1.339815e+04 1.596465e+03 1.050444e+04 8.484043e+02 7.867905e+03 4.153381e+02 5.682312e+03 3.565926e+02 4.190612e+03 5.392951e+02 2.985685e+03 1.223780e+03 2.311396e+03 1.849036e+03 2.171432e+03 1.936098e+03 2.798638e+03 2.120479e+03 2.737323e+03 2.641332e+03 2.978676e+03 3.177217e+03 3.083072e+03 3.229913e+03 2.660624e+03 -9.946966e+02 4.722208e+03 2.524449e+03 3.345083e+03 6.832629e+03 6.744427e+03 9.859174e+03 8.409496e+03 -1.563279e+03 -3.940971e+03 -5.347279e+03 -5.596170e+03 5.040122e+03 4.139461e+03 4.612674e+03 4.698394e+03 1.045433e+04 -4.817470e+01 -7.014791e+03 -1.645544e+04 6.099623e+02 2.446102e+03 1.080213e+04 -8.491742e+03 -7.680598e+03 -1.415678e+04 -6.999468e+03 -1.093636e+04 -8.924429e+03 1.603087e+04 -1.798789e+04 
-4.789747e+04 -6.264566e+04 -2.319200e+04 -1.448117e+04 1.326267e+04 -7.172900e+03 7.550201e+03 1.446285e+03 7.149356e+03 2.694416e+03 6.239164e+03 2.188916e+03 5.549484e+03 1.873372e+03 4.776747e+03 1.612008e+03 3.790378e+03 1.286179e+03 2.849057e+03 4.104457e+02 1.588070e+03 1.061563e+03 1.409146e+03 -2.938065e+02 1.063978e+03 7.719660e+02 1.592200e+03 2.187495e+03 2.475715e+03 2.244922e+03 1.695456e+03 2.248359e+03 -2.193603e+02 2.341063e+03 5.613904e+03 4.150467e+03 3.977330e+03 4.404214e+03 3.922082e+03 3.304865e+03 2.480972e+03 -6.509781e+03 -6.975144e+03 -6.957002e+03 -7.443043e+03 9.356618e+03 4.975041e+03 -5.376576e+02 -4.176008e+03 -5.072503e+03 -8.557254e+03 -7.797795e+03 -8.817536e+03 4.528394e+02 -5.171959e+03 -7.661261e+02 -1.144582e+04 -1.573268e+04 5.682555e+02 8.361302e+03 -1.465912e+04 -2.296123e+04 3.750473e+03 -4.831533e+04 
-5.569850e+04 -4.424749e+04 -2.577943e+04 -8.226454e+03 2.621122e+04 -6.978431e+03 7.653256e+03 3.606085e+02 7.987186e+03 1.804154e+03 7.443549e+03 1.362909e+03 6.370724e+03 1.044187e+03 5.227204e+03 9.777120e+02 4.345851e+03 1.136058e+03 3.890738e+03 1.471405e+03 2.779094e+03 1.560978e+03 2.694000e+03 1.799173e+03 1.688782e+03 2.181204e+03 1.909538e+03 2.663694e+03 2.524035e+03 3.146078e+03 2.370964e+03 4.379690e+03 2.348634e+03 1.589033e+03 4.188473e+03 4.664119e+03 3.114826e+03 3.843429e+03 2.812724e+03 1.158943e+03 -2.438846e+03 -5.654558e+03 -1.746341e+03 -1.045139e+02 4.153082e+02 9.482853e+02 6.108961e+02 4.531082e+03 7.165089e+01 -2.264549e+03 -7.062921e+03 3.963861e+02 -1.319594e+03 3.591856e+03 -5.639690e+02 3.090958e+02 -3.964952e+03 -7.127761e+02 3.350493e+02 -3.301139e+03 2.528452e+02 -1.248495e+03 -3.577865e+03 -3.422089e+04 
-5.431870e+04 -4.744464e+04 -1.911378e+04 -1.594102e+04 1.709772e+04 -9.505957e+03 4.451937e+02 -1.162516e+03 2.753027e+03 1.038046e+03 3.820720e+03 1.457325e+03 4.020688e+03 1.505160e+03 3.757164e+03 1.468415e+03 3.233568e+03 1.545915e+03 2.783142e+03 1.416926e+03 2.589720e+03 1.451922e+03 1.828233e+03 1.647545e+03 2.175678e+03 1.893449e+03 1.894369e+03 2.086164e+03 1.977061e+03 2.134857e+03 1.373594e+03 2.618846e+03 4.058799e+02 5.854924e+02 2.151345e+03 3.398101e+03 3.325779e+03 3.178718e+03 9.678384e+02 -2.184390e+03 -4.053293e+03 -6.470679e+02 2.201942e+03 1.696087e+03 9.695489e+02 1.961733e+03 -3.578230e+03 9.233855e+02 -1.625024e+03 -1.468016e+03 -3.909801e+03 -1.789262e+03 -5.369559e+03 -2.131455e+03 -7.327014e+03 -5.503791e+03 -6.044024e+03 -3.967286e+03 -3.724647e+03 -3.794207e+03 -6.964561e+03 -1.518455e+04 -6.614664e+03 -3.615427e+04 
-2.755089e+04 -1.645517e+04 -1.433572e+04 -1.317420e+04 9.581836e+03 -4.419369e+03 1.127773e+03 -9.707748e+02 4.196283e+03 8.856587e+02 5.154279e+03 1.250031e+03 5.054828e+03 1.279230e+03 4.603670e+03 1.349553e+03 4.119506e+03 1.507138e+03 3.758871e+03 1.736957e+03 3.142021e+03 1.977639e+03 3.253605e+03 1.898889e+03 2.938747e+03 2.093439e+03 2.663840e+03 2.748131e+03 2.993482e+03 2.528923e+03 2.857045e+03 3.184581e+03 4.295920e+03 3.151931e+03 4.204283e+03 3.864130e+03 3.297731e+03 3.586638e+03 2.784121e+03 2.730052e+03 1.412975e+03 1.225983e+03 7.449262e+01 1.596562e+03 8.913322e+02 3.764318e+03 1.542253e+03 2.654558e+03 6.348702e+02 2.329492e+03 -1.253806e+03 1.436625e+03 -1.850473e+03 -9.255024e+02 -3.198088e+03 3.610927e+03 1.436655e+02 5.745013e+02 -1.299522e+03 -1.792306e+03 -1.923716e+03 -2.940481e+03 -7.702771e+03 -1.402736e+04 
-2.147732e+04 -1.452851e+04 -1.205929e+04 -1.336704e+04 -1.475776e+03 -5.633161e+03 -1.009715e+03 -2.914755e+03 1.503549e+03 -4.988398e+02 2.671188e+03 6.415935e+02 3.099136e+03 1.141878e+03 3.121792e+03 1.387642e+03 2.930038e+03 1.529069e+03 2.702595e+03 1.623604e+03 2.490967e+03 1.727328e+03 2.206133e+03 1.884759e+03 2.106970e+03 1.843599e+03 2.116825e+03 2.184105e+03 1.858858e+03 1.980284e+03 2.164451e+03 2.649591e+03 1.841034e+03 2.182485e+03 2.671852e+03 2.438148e+03 2.133930e+03 2.010378e+03 1.019648e+03 7.982821e+02 -3.795897e+02 3.160668e+02 5.214039e+02 1.060332e+03 -4.245906e+02 9.694657e+02 -1.831154e+03 9.977782e+01 -2.521845e+03 -9.522976e+02 -3.303354e+03 -1.420040e+03 -3.902473e+03 -1.621906e+03 -3.456279e+03 -2.320136e+03 -4.144962e+03 -3.495881e+03 -4.603513e+03 -5.242526e+03 -6.362349e+03 -9.489499e+03 -9.473350e+03 -1.434216e+04 
-1.047423e+04 -4.261630e+03 -5.007325e+03 -4.632752e+03 -1.108454e+03 -8.079445e+02 1.524592e+03 -2.701800e+02 3.228303e+03 7.088248e+02 3.999214e+03 1.220327e+03 4.166822e+03 1.438992e+03 4.033458e+03 1.584318e+03 3.782183e+03 1.716858e+03 3.530559e+03 1.894842e+03 3.296022e+03 2.106273e+03 3.175612e+03 2.227188e+03 3.153246e+03 2.449004e+03 2.909052e+03 2.950847e+03 3.157814e+03 2.798678e+03 3.163447e+03 2.981863e+03 3.333296e+03 3.330911e+03 3.316196e+03 3.285108e+03 2.913008e+03 3.064273e+03 2.578765e+03 2.608766e+03 2.002371e+03 2.032837e+03 1.365227e+03 2.291605e+03 1.116877e+03 2.840547e+03 1.127832e+03 2.472876e+03 3.905613e+02 2.299056e+03 -3.008049e+02 1.892713e+03 -8.339686e+02 1.123369e+03 -1.192101e+03 1.732156e+03 -1.347983e+02 1.110724e+03 -8.507476e+02 -2.212659e+02 -2.001446e+03 -1.507521e+03 -4.991021e+03 -4.503966e+03 
-6.016426e+03 -2.553543e+03 -3.412015e+03 -1.532078e+03 -3.530302e+03 -3.136051e+03 1.815843e+02 -1.879264e+03 1.615649e+03 -5.535901e+02 2.318456e+03 4.144826e+02 2.655475e+03 9.996366e+02 2.752832e+03 1.343223e+03 2.699924e+03 1.548451e+03 2.577596e+03 1.699357e+03 2.444649e+03 1.837938e+03 2.298525e+03 1.946161e+03 2.184938e+03 2.021202e+03 2.146503e+03 2.135828e+03 2.041988e+03 2.160541e+03 2.042478e+03 2.260301e+03 1.865775e+03 2.266962e+03 1.963224e+03 2.142180e+03 1.612290e+03 1.815552e+03 1.008961e+03 1.339250e+03 3.742919e+02 9.534327e+02 1.802515e+02 1.023543e+03 -4.138256e+02 8.620117e+02 -1.166958e+03 4.184062e+02 -1.727036e+03 -3.849085e+01 -2.110622e+03 -4.115570e+02 -2.674531e+03 -1.180481e+03 -3.215913e+03 -1.944637e+03 -3.080703e+03 -2.176531e+03 -3.343320e+03 -3.209667e+03 -4.039798e+03 -4.552811e+03 -4.868449e+03 -5.072728e+03 
-2.516379e+03 1.277903e+03 -4.431963e+02 2.997388e+03 3.181582e+02 7.773151e+02 2.266083e+03 1.036639e+03 2.999073e+03 1.257759e+03 3.418517e+03 1.484083e+03 3.582170e+03 1.640277e+03 3.563861e+03 1.757698e+03 3.444726e+03 1.865064e+03 3.295906e+03 1.994762e+03 3.166990e+03 2.153531e+03 3.068258e+03 2.304479e+03 3.013277e+03 2.502381e+03 2.920144e+03 2.730260e+03 2.975492e+03 2.789127e+03 2.970345e+03 2.862184e+03 2.943986e+03 2.983465e+03 2.824756e+03 2.942456e+03 2.559488e+03 2.796128e+03 2.255925e+03 2.564356e+03 1.862483e+03 2.341024e+03 1.463878e+03 2.386407e+03 1.165652e+03 2.518040e+03 9.405123e+02 2.412394e+03 5.285028e+02 2.295338e+03 1.366766e+02 2.012240e+03 -3.492812e+02 1.580042e+03 -5.105902e+02 1.684758e+03 -1.887151e+02 1.382375e+03 -5.005098e+02 8.437986e+02 -1.061360e+03 3.542179e+02 -1.974461e+03 -7.714384e+01 
-1.324017e+03 1.578774e+03 -2.630903e+02 4.120452e+03 -8.375144e+02 -1.330190e+03 9.309549e+02 -6.653126e+02 1.762023e+03 1.547985e+01 2.207383e+03 6.301701e+02 2.445974e+03 1.091139e+03 2.542719e+03 1.407788e+03 2.539692e+03 1.622108e+03 2.477049e+03 1.780981e+03 2.394095e+03 1.912067e+03 2.298387e+03 2.010561e+03 2.203082e+03 2.089777e+03 2.124214e+03 2.157813e+03 2.031221e+03 2.187083e+03 1.937015e+03 2.204468e+03 1.796919e+03 2.166605e+03 1.673543e+03 2.039569e+03 1.387502e+03 1.816378e+03 9.810250e+02 1.542914e+03 5.511528e+02 1.295846e+03 1.969675e+02 1.178833e+03 -2.482052e+02 1.007694e+03 -7.328791e+02 7.455470e+02 -1.138184e+03 4.588418e+02 -1.457460e+03 1.273315e+02 -1.847725e+03 -3.834737e+02 -2.188570e+03 -8.835799e+02 -2.213787e+03 -1.043794e+03 -2.174237e+03 -1.335028e+03 -2.159902e+03 -1.440009e+03 -1.950029e+03 -7.550900e+02 