# vtk DataFile Version 2.0
Comment goes here
ASCII

DATASET STRUCTURED_POINTS
FIELD FieldData 1
TIME 1 1 double
0.05800000
DIMENSIONS    64   64   1

ORIGIN    0.000   0.000   0.000
SPACING   0.03125 0.03125   1.000

POINT_DATA   4096
SCALARS P double
LOOKUP_TABLE default

-3.934291e+01 -2.071281e+02 -2.833327e+01 -2.130798e+02 7.932517e+01 1.301223e+02 -2.497489e+01 1.240047e+02 -2.994003e+01 1.171381e+02 -3.709671e+01 1.100189e+02 -3.864705e+01 9.675133e+01 -3.453901e+01 7.960316e+01 -2.558385e+01 5.783644e+01 -1.461253e+01 3.749521e+01 -9.836733e+00 2.388691e+01 -1.001764e+01 1.248818e+01 -1.278778e+01 6.043314e+00 -2.223758e+01 3.706484e+00 -3.062958e+01 -2.331643e+00 -3.522531e+01 -1.142994e+01 -3.776992e+01 -2.345371e+01 -3.773995e+01 -3.680089e+01 -3.811756e+01 -4.833558e+01 -4.375482e+01 -5.498696e+01 -5.143976e+01 -6.355409e+01 -5.559172e+01 -7.566064e+01 -5.645699e+01 -9.069784e+01 -5.653575e+01 -1.027956e+02 -6.351612e+01 -1.074068e+02 -7.459468e+01 -1.097896e+02 -8.498144e+01 -1.150910e+02 -8.676199e+01 -1.315596e+02 -7.651510e+01 -1.544964e+02 -6.363896e+01 -1.759444e+02 -5.304649e+01 -1.945974e+02 -4.123819e+01 -2.102511e+02 
-9.607584e+00 -1.333207e+02 -3.090211e+00 -1.389760e+02 7.625116e+01 1.156434e+02 -1.945094e+00 1.099646e+02 -5.356958e+00 1.040892e+02 -1.008892e+01 9.840204e+01 -1.177818e+01 8.950238e+01 -1.070411e+01 7.878168e+01 -7.196772e+00 6.549168e+01 -2.388927e+00 5.265504e+01 -6.845965e-01 4.324987e+01 -1.063294e+00 3.431730e+01 -2.142785e+00 2.769889e+01 -6.602028e+00 2.317801e+01 -1.016477e+01 1.639650e+01 -1.161985e+01 8.221761e+00 -1.226146e+01 -1.290781e+00 -1.155205e+01 -1.142693e+01 -1.103025e+01 -2.055622e+01 -1.352330e+01 -2.684642e+01 -1.712991e+01 -3.423489e+01 -1.880363e+01 -4.341817e+01 -1.886274e+01 -5.416201e+01 -1.821436e+01 -6.347169e+01 -2.119705e+01 -6.871985e+01 -2.620270e+01 -7.267300e+01 -3.113174e+01 -7.762317e+01 -3.191342e+01 -8.812935e+01 -2.663546e+01 -1.015520e+02 -2.052025e+01 -1.136635e+02 -1.580793e+01 -1.243837e+02 -9.839993e+00 -1.343802e+02 
7.418790e+00 -8.823111e+01 9.473089e+00 -9.150786e+01 3.571953e+01 1.009698e+02 9.386414e+00 9.734338e+01 7.806376e+00 9.281907e+01 5.946139e+00 8.791221e+01 4.696667e+00 8.210466e+01 3.876933e+00 7.582892e+01 3.524135e+00 6.883462e+01 3.639769e+00 6.159719e+01 3.423600e+00 5.472767e+01 3.134971e+00 4.750281e+01 2.994240e+00 4.043941e+01 2.316130e+00 3.361923e+01 1.923309e+00 2.623469e+01 1.946734e+00 1.874770e+01 2.004653e+00 1.115658e+01 2.269399e+00 3.490809e+00 2.500940e+00 -3.958241e+00 2.166462e+00 -1.074476e+01 1.711561e+00 -1.770609e+01 1.669812e+00 -2.486365e+01 1.909332e+00 -3.220515e+01 2.478152e+00 -3.937175e+01 2.542122e+00 -4.582087e+01 2.420475e+00 -5.198668e+01 2.223106e+00 -5.789820e+01 2.477265e+00 -6.429498e+01 3.556843e+00 -7.064026e+01 4.604181e+00 -7.623513e+01 5.431323e+00 -8.128562e+01 6.884843e+00 -8.630657e+01 
7.367681e+00 -9.230927e+01 9.851550e+00 -9.569832e+01 1.240260e+01 1.039001e+02 9.837422e+00 9.984689e+01 7.581585e+00 9.491318e+01 5.640489e+00 8.947338e+01 4.308643e+00 8.332031e+01 3.533965e+00 7.657776e+01 3.239743e+00 6.928964e+01 3.248425e+00 6.182206e+01 3.093616e+00 5.456305e+01 2.832722e+00 4.731245e+01 2.515329e+00 4.022220e+01 2.008012e+00 3.323907e+01 1.669969e+00 2.594161e+01 1.660398e+00 1.843396e+01 1.806302e+00 1.077532e+01 2.088466e+00 3.095212e+00 2.315454e+00 -4.354479e+00 2.086013e+00 -1.143001e+01 1.680963e+00 -1.855526e+01 1.433294e+00 -2.584958e+01 1.389595e+00 -3.321728e+01 1.437860e+00 -4.032640e+01 1.183809e+00 -4.685641e+01 7.786613e-01 -5.304340e+01 4.610419e-01 -5.918879e+01 7.083699e-01 -6.570993e+01 1.719714e+00 -7.230014e+01 3.004136e+00 -7.844435e+01 4.367324e+00 -8.406127e+01 6.005032e+00 -8.901656e+01 
7.588011e+00 -8.982860e+01 9.515636e+00 -9.323833e+01 1.186184e+01 1.010711e+02 9.561903e+00 9.735771e+01 7.722310e+00 9.276432e+01 6.177633e+00 8.758066e+01 5.039371e+00 8.178972e+01 4.249557e+00 7.552255e+01 3.747720e+00 6.881503e+01 3.474937e+00 6.183616e+01 3.209609e+00 5.484147e+01 2.966173e+00 4.773136e+01 2.699223e+00 4.061451e+01 2.367692e+00 3.349420e+01 2.094426e+00 2.617929e+01 2.020861e+00 1.876311e+01 2.010271e+00 1.128718e+01 2.082392e+00 3.836675e+00 2.123841e+00 -3.488700e+00 1.961705e+00 -1.058671e+01 1.783700e+00 -1.769276e+01 1.713002e+00 -2.484604e+01 1.830307e+00 -3.200339e+01 2.023931e+00 -3.900556e+01 2.136359e+00 -4.566579e+01 2.184616e+00 -5.210155e+01 2.313106e+00 -5.838098e+01 2.688826e+00 -6.465580e+01 3.405194e+00 -7.075388e+01 4.253826e+00 -7.641827e+01 5.191543e+00 -8.161137e+01 6.383722e+00 -8.631336e+01 
7.004048e+00 -9.387303e+01 9.023158e+00 -9.775075e+01 1.100566e+01 1.032139e+02 9.194779e+00 9.936556e+01 7.327029e+00 9.454562e+01 5.756627e+00 8.904068e+01 4.608712e+00 8.293467e+01 3.840135e+00 7.632642e+01 3.349483e+00 6.934105e+01 3.065289e+00 6.209694e+01 2.806048e+00 5.486178e+01 2.591035e+00 4.762917e+01 2.270046e+00 4.042505e+01 1.987647e+00 3.321543e+01 1.742195e+00 2.586882e+01 1.673857e+00 1.841148e+01 1.719677e+00 1.088318e+01 1.799405e+00 3.379106e+00 1.878097e+00 -4.012432e+00 1.709035e+00 -1.127033e+01 1.506778e+00 -1.851271e+01 1.263091e+00 -2.579182e+01 1.130734e+00 -3.303745e+01 1.018050e+00 -4.010593e+01 8.589922e-01 -4.688420e+01 7.722406e-01 -5.341530e+01 8.160328e-01 -5.985161e+01 1.161455e+00 -6.631268e+01 1.892133e+00 -7.268982e+01 2.889985e+00 -7.877397e+01 4.083776e+00 -8.443560e+01 5.490030e+00 -8.954105e+01 
7.059149e+00 -9.234378e+01 8.649771e+00 -9.661505e+01 1.040315e+01 1.016511e+02 8.864221e+00 9.765299e+01 7.329194e+00 9.296282e+01 6.050160e+00 8.766398e+01 5.085776e+00 8.183119e+01 4.374474e+00 7.555941e+01 3.810242e+00 6.898156e+01 3.381815e+00 6.203272e+01 3.071345e+00 5.504250e+01 2.883065e+00 4.793208e+01 2.569292e+00 4.077666e+01 2.384272e+00 3.354769e+01 2.107268e+00 2.620644e+01 2.039217e+00 1.883470e+01 1.951442e+00 1.140603e+01 1.956687e+00 4.062013e+00 1.946777e+00 -3.257155e+00 1.815020e+00 -1.044271e+01 1.760915e+00 -1.765402e+01 1.622109e+00 -2.485047e+01 1.698039e+00 -3.198416e+01 1.709957e+00 -3.900509e+01 1.850147e+00 -4.576891e+01 1.936864e+00 -5.240722e+01 2.203424e+00 -5.890045e+01 2.603101e+00 -6.523926e+01 3.171746e+00 -7.137056e+01 3.888940e+00 -7.720606e+01 4.757453e+00 -8.269454e+01 5.820359e+00 -8.777860e+01 
6.144270e+00 -9.618897e+01 7.704258e+00 -1.009025e+02 9.235126e+00 1.038540e+02 8.011875e+00 9.954350e+01 6.661805e+00 9.460587e+01 5.474315e+00 8.905054e+01 4.569879e+00 8.294909e+01 3.902558e+00 7.637226e+01 3.339211e+00 6.956739e+01 2.935462e+00 6.231012e+01 2.594706e+00 5.513285e+01 2.496223e+00 4.790527e+01 2.106075e+00 4.062472e+01 1.959249e+00 3.332312e+01 1.685232e+00 2.589463e+01 1.592000e+00 1.846290e+01 1.595514e+00 1.096697e+01 1.550433e+00 3.547468e+00 1.652194e+00 -3.833010e+00 1.415365e+00 -1.116224e+01 1.359683e+00 -1.847033e+01 1.032338e+00 -2.581225e+01 8.802360e-01 -3.307084e+01 6.931994e-01 -4.021949e+01 5.554159e-01 -4.718094e+01 6.852212e-01 -5.391260e+01 9.085039e-01 -6.051723e+01 1.271069e+00 -6.703148e+01 1.848009e+00 -7.342624e+01 2.641602e+00 -7.962054e+01 3.631932e+00 -8.552926e+01 4.808088e+00 -9.107114e+01 
6.081006e+00 -9.529229e+01 7.285992e+00 -1.004308e+02 8.547602e+00 1.033400e+02 7.572291e+00 9.867540e+01 6.517241e+00 9.366414e+01 5.594688e+00 8.819723e+01 4.900289e+00 8.225988e+01 4.372296e+00 7.586223e+01 3.826611e+00 6.939818e+01 3.263639e+00 6.221462e+01 2.929858e+00 5.530729e+01 2.911883e+00 4.816057e+01 2.465192e+00 4.097416e+01 2.456388e+00 3.371025e+01 2.008710e+00 2.625272e+01 2.041652e+00 1.896756e+01 1.830180e+00 1.145921e+01 1.860713e+00 4.254941e+00 1.868259e+00 -3.150879e+00 1.682309e+00 -1.031484e+01 1.785353e+00 -1.763355e+01 1.437910e+00 -2.494873e+01 1.598947e+00 -3.209963e+01 1.374672e+00 -3.929447e+01 1.628537e+00 -4.606254e+01 1.613853e+00 -5.291314e+01 1.984578e+00 -5.958637e+01 2.358165e+00 -6.602973e+01 2.818929e+00 -7.230127e+01 3.415034e+00 -7.839395e+01 4.153851e+00 -8.427490e+01 5.043356e+00 -8.991183e+01 
4.966042e+00 -9.886010e+01 6.077236e+00 -1.043706e+02 7.118863e+00 1.056449e+02 6.426640e+00 1.006231e+02 5.600717e+00 9.530668e+01 4.832044e+00 8.958049e+01 4.257456e+00 8.341734e+01 3.848247e+00 7.669981e+01 3.345750e+00 7.000957e+01 2.784163e+00 6.242635e+01 2.318710e+00 5.537999e+01 2.575103e+00 4.824096e+01 1.929825e+00 4.080324e+01 1.991447e+00 3.355384e+01 1.543203e+00 2.592870e+01 1.419705e+00 1.857172e+01 1.471250e+00 1.101178e+01 1.251679e+00 3.648608e+00 1.622705e+00 -3.699048e+00 1.108231e+00 -1.113548e+01 1.376588e+00 -1.841548e+01 7.545285e-01 -2.595899e+01 6.557398e-01 -3.325643e+01 3.649917e-01 -4.057942e+01 1.225790e-01 -4.776122e+01 5.216657e-01 -5.459850e+01 8.670324e-01 -6.127143e+01 1.176644e+00 -6.784196e+01 1.619374e+00 -7.435003e+01 2.239490e+00 -8.076241e+01 3.020231e+00 -8.701613e+01 3.938169e+00 -9.305808e+01 
4.816181e+00 -9.835141e+01 5.602938e+00 -1.042587e+02 6.331772e+00 1.058624e+02 5.891475e+00 1.004503e+02 5.319787e+00 9.495657e+01 4.781629e+00 8.924835e+01 4.426951e+00 8.320157e+01 4.265630e+00 7.655352e+01 4.067073e+00 6.988832e+01 2.890292e+00 6.228051e+01 2.681067e+00 5.557621e+01 3.086541e+00 4.853258e+01 2.343209e+00 4.111865e+01 2.681855e+00 3.404528e+01 1.727608e+00 2.620788e+01 2.072683e+00 1.919444e+01 1.559526e+00 1.142559e+01 1.762319e+00 4.434968e+00 1.855863e+00 -3.087391e+00 1.534254e+00 -1.026959e+01 1.985822e+00 -1.753800e+01 1.134990e+00 -2.525192e+01 1.576179e+00 -3.222606e+01 9.161127e-01 -3.989954e+01 1.480521e+00 -4.658374e+01 1.166724e+00 -5.372566e+01 1.689122e+00 -6.040903e+01 1.973409e+00 -6.689790e+01 2.340072e+00 -7.336378e+01 2.824160e+00 -7.977497e+01 3.406051e+00 -8.608689e+01 4.075027e+00 -9.227908e+01 
3.590656e+00 -1.016093e+02 4.245680e+00 -1.078276e+02 4.754522e+00 1.082272e+02 4.591222e+00 1.024727e+02 4.236725e+00 9.664746e+01 3.822244e+00 9.062929e+01 3.487577e+00 8.437686e+01 3.433454e+00 7.808394e+01 3.679182e+00 6.949275e+01 1.811157e+00 6.272833e+01 1.802871e+00 5.521835e+01 2.735157e+00 4.892713e+01 1.777810e+00 4.081969e+01 2.184876e+00 3.367458e+01 1.156003e+00 2.626468e+01 1.044181e+00 1.818965e+01 1.059659e+00 1.155088e+01 6.008807e-01 3.138363e+00 1.696871e+00 -3.176957e+00 5.593856e-01 -1.150747e+01 1.784141e+00 -1.834864e+01 3.430175e-01 -2.607759e+01 4.154236e-01 -3.393684e+01 -4.774193e-02 -4.064199e+01 -9.799650e-01 -4.928987e+01 3.146300e-01 -5.554803e+01 7.761833e-01 -6.198015e+01 8.972444e-01 -6.857845e+01 1.226494e+00 -7.529974e+01 1.705878e+00 -8.201961e+01 2.279917e+00 -8.866325e+01 2.919027e+00 -9.519800e+01 
3.381415e+00 -1.013260e+02 3.735298e+00 -1.079025e+02 3.930311e+00 1.089353e+02 4.021233e+00 1.027830e+02 3.891786e+00 9.670120e+01 3.656768e+00 9.064247e+01 3.494255e+00 8.478057e+01 3.851127e+00 7.981106e+01 5.635568e+00 6.855067e+01 1.396615e+00 6.322184e+01 2.814444e+00 5.471835e+01 2.946166e+00 5.018006e+01 3.166343e+00 4.077673e+01 2.713340e+00 3.421907e+01 1.145338e+00 2.696455e+01 2.039442e+00 1.783840e+01 3.499244e-01 1.293456e+01 1.859246e+00 2.674656e+00 1.176681e+00 -1.637976e+00 2.038622e+00 -1.144581e+01 1.986587e+00 -1.693525e+01 1.042371e+00 -2.550997e+01 1.107782e+00 -3.335016e+01 7.051665e-03 -3.899657e+01 7.232340e-01 -4.947886e+01 3.633774e-01 -5.488363e+01 1.068228e+00 -6.084970e+01 1.392688e+00 -6.760338e+01 1.763931e+00 -7.443150e+01 2.153273e+00 -8.121922e+01 2.559152e+00 -8.795807e+01 2.975791e+00 -9.465736e+01 
2.109299e+00 -1.042691e+02 2.310943e+00 -1.111090e+02 2.300710e+00 1.113001e+02 2.683323e+00 1.048521e+02 2.817512e+00 9.851114e+01 2.810141e+00 9.226586e+01 2.788345e+00 8.627086e+01 2.969071e+00 8.086687e+01 3.559812e+00 6.969727e+01 1.438080e+00 6.399894e+01 2.256993e+00 5.521937e+01 2.866053e+00 5.050989e+01 2.859144e+00 4.094430e+01 2.573239e+00 3.410322e+01 1.046375e+00 2.708548e+01 1.917251e+00 1.733627e+01 2.216300e-01 1.302952e+01 1.823372e+00 2.066149e+00 9.645291e-01 -1.784942e+00 1.984679e+00 -1.193199e+01 1.751906e+00 -1.764542e+01 6.865430e-01 -2.585122e+01 9.379877e-01 -3.478799e+01 -6.359577e-01 -3.908646e+01 1.069026e+00 -5.191121e+01 -7.912307e-01 -5.561658e+01 -1.972570e-01 -6.182346e+01 3.152739e-01 -6.906142e+01 7.412476e-01 -7.624123e+01 1.108639e+00 -8.332292e+01 1.464895e+00 -9.034415e+01 1.809358e+00 -9.732484e+01 
1.867563e+00 -1.041015e+02 1.791136e+00 -1.112637e+02 1.481577e+00 1.123486e+02 2.112747e+00 1.055337e+02 2.489372e+00 9.891690e+01 2.709610e+00 9.243380e+01 2.848782e+00 8.600259e+01 2.837077e+00 7.932761e+01 1.715342e+00 7.042500e+01 2.411254e+00 6.376243e+01 1.676338e+00 5.575011e+01 3.276604e+00 4.961177e+01 2.052286e+00 4.123944e+01 2.589140e+00 3.414404e+01 1.614055e+00 2.674325e+01 1.326581e+00 1.854767e+01 1.298142e+00 1.214154e+01 9.432215e-01 3.440533e+00 1.830053e+00 -2.542372e+00 1.191351e+00 -1.115510e+01 2.096651e+00 -1.766843e+01 8.849930e-01 -2.563196e+01 9.835454e-01 -3.335716e+01 1.234917e-01 -3.986342e+01 1.891433e-01 -4.873380e+01 1.082752e-01 -5.521979e+01 5.546082e-01 -6.170381e+01 8.919284e-01 -6.860484e+01 1.208003e+00 -7.563501e+01 1.464236e+00 -8.270273e+01 1.667267e+00 -8.979593e+01 1.811158e+00 -9.692578e+01 
5.950093e-01 -1.067377e+02 3.559523e-01 -1.141273e+02 -1.689854e-01 1.146200e+02 7.336975e-01 1.075258e+02 1.350451e+00 1.006199e+02 1.785282e+00 9.381177e+01 2.136199e+00 8.690381e+01 2.370673e+00 7.948179e+01 2.523090e+00 7.249568e+01 1.803781e+00 6.420276e+01 1.961917e+00 5.709983e+01 2.562974e+00 4.965377e+01 1.857890e+00 4.189180e+01 2.386881e+00 3.454592e+01 1.391532e+00 2.653148e+01 1.770441e+00 1.923860e+01 1.279247e+00 1.146728e+01 1.355461e+00 4.125107e+00 1.605056e+00 -3.355997e+00 1.027518e+00 -1.093394e+01 1.684634e+00 -1.829809e+01 5.101029e-01 -2.623799e+01 9.174315e-01 -3.364871e+01 -3.319012e-04 -4.132248e+01 1.876210e-01 -4.895595e+01 -1.211695e-01 -5.601274e+01 1.534313e-01 -6.303709e+01 2.053322e-01 -7.014647e+01 3.430683e-01 -7.737358e+01 4.966992e-01 -8.465872e+01 6.144235e-01 -9.197819e+01 6.619658e-01 -9.933610e+01 
3.476393e-01 -1.066103e+02 -1.513601e-01 -1.142874e+02 -9.654661e-01 1.158057e+02 1.517719e-01 1.083430e+02 9.546754e-01 1.010964e+02 1.512556e+00 9.395887e+01 1.882794e+00 8.677313e+01 2.065899e+00 7.935166e+01 2.122339e+00 7.202629e+01 1.991459e+00 6.434065e+01 1.974501e+00 5.697861e+01 2.432283e+00 4.958268e+01 1.976459e+00 4.200281e+01 2.175894e+00 3.453945e+01 1.721985e+00 2.679886e+01 1.681333e+00 1.937230e+01 1.613463e+00 1.170325e+01 1.454908e+00 4.381308e+00 1.753697e+00 -3.102185e+00 1.306232e+00 -1.052091e+01 1.620417e+00 -1.792320e+01 9.838047e-01 -2.563303e+01 9.917980e-01 -3.295894e+01 6.182957e-01 -4.064352e+01 4.833179e-01 -4.788417e+01 5.550462e-01 -5.533122e+01 7.672278e-01 -6.251559e+01 7.809310e-01 -6.964278e+01 8.049792e-01 -7.684239e+01 8.223173e-01 -8.413273e+01 7.820069e-01 -9.151657e+01 6.400132e-01 -9.900552e+01 
-8.908694e-01 -1.089557e+02 -1.555556e+00 -1.168293e+02 -2.588575e+00 1.178938e+02 -1.217238e+00 1.101717e+02 -1.805570e-01 1.026439e+02 5.928595e-01 9.521037e+01 1.161239e+00 8.775588e+01 1.552230e+00 8.025392e+01 1.846289e+00 7.297868e+01 1.563250e+00 6.514540e+01 1.720205e+00 5.766850e+01 1.962120e+00 4.998982e+01 1.721861e+00 4.237825e+01 1.910592e+00 3.472058e+01 1.514563e+00 2.693877e+01 1.611132e+00 1.939136e+01 1.391757e+00 1.166284e+01 1.356616e+00 4.239160e+00 1.391026e+00 -3.379473e+00 1.071382e+00 -1.085854e+01 1.205386e+00 -1.846011e+01 6.612744e-01 -2.617058e+01 6.506283e-01 -3.371611e+01 2.078777e-01 -4.141178e+01 8.614316e-02 -4.882876e+01 1.605447e-02 -5.630172e+01 1.311928e-01 -6.370366e+01 8.853556e-02 -7.105859e+01 1.387551e-02 -7.845326e+01 -7.332265e-02 -8.592707e+01 -2.156248e-01 -9.349380e+01 -4.675237e-01 -1.011663e+02 
-1.121714e+00 -1.088143e+02 -2.034392e+00 -1.169408e+02 -3.367149e+00 1.191011e+02 -1.795361e+00 1.110535e+02 -5.969941e-01 1.032312e+02 2.955878e-01 9.555151e+01 9.401461e-01 8.793113e+01 1.374055e+00 8.033653e+01 1.631854e+00 7.283084e+01 1.648050e+00 6.517220e+01 1.762672e+00 5.761725e+01 1.968022e+00 5.001320e+01 1.850570e+00 4.245399e+01 1.916573e+00 3.479669e+01 1.707809e+00 2.714198e+01 1.685366e+00 1.953939e+01 1.579756e+00 1.192679e+01 1.522906e+00 4.474737e+00 1.546869e+00 -3.050824e+00 1.345032e+00 -1.047663e+01 1.361641e+00 -1.803243e+01 1.026345e+00 -2.559510e+01 9.268733e-01 -3.314230e+01 6.379974e-01 -4.071610e+01 5.219725e-01 -4.815290e+01 4.829198e-01 -5.564458e+01 5.792259e-01 -6.310262e+01 5.403573e-01 -7.049626e+01 4.090909e-01 -7.791126e+01 2.163775e-01 -8.541782e+01 -6.584165e-02 -9.305423e+01 -4.903627e-01 -1.008464e+02 
-2.304229e+00 -1.108896e+02 -3.379499e+00 -1.191821e+02 -4.928110e+00 1.209746e+02 -3.116277e+00 1.127095e+02 -1.700107e+00 1.046608e+02 -6.064044e-01 9.676329e+01 2.214010e-01 8.895809e+01 8.170171e-01 8.123951e+01 1.214247e+00 7.366911e+01 1.237750e+00 6.585384e+01 1.410076e+00 5.817688e+01 1.591201e+00 5.041438e+01 1.553708e+00 4.275596e+01 1.648543e+00 3.497714e+01 1.477033e+00 2.723144e+01 1.491025e+00 1.954089e+01 1.343592e+00 1.184280e+01 1.293736e+00 4.296764e+00 1.232848e+00 -3.333276e+00 1.047211e+00 -1.086061e+01 1.003645e+00 -1.853067e+01 6.813043e-01 -2.618307e+01 5.481464e-01 -3.385698e+01 2.141996e-01 -4.151742e+01 6.348849e-02 -4.908518e+01 -6.768821e-02 -5.667721e+01 -6.171614e-02 -6.426699e+01 -1.594932e-01 -7.181467e+01 -3.591504e-01 -7.938456e+01 -6.352029e-01 -8.704335e+01 -1.011785e+00 -9.483017e+01 -1.544071e+00 -1.027715e+02 
-2.498219e+00 -1.106967e+02 -3.806723e+00 -1.192081e+02 -5.656201e+00 1.221405e+02 -3.650980e+00 1.136082e+02 -2.085394e+00 1.053275e+02 -8.697548e-01 9.723818e+01 5.627702e-02 8.927341e+01 7.198554e-01 8.141652e+01 1.188812e+00 7.376714e+01 1.301491e+00 6.587596e+01 1.512152e+00 5.820965e+01 1.692498e+00 5.044759e+01 1.717728e+00 4.288554e+01 1.782676e+00 3.508565e+01 1.646442e+00 2.740186e+01 1.653433e+00 1.973005e+01 1.500505e+00 1.206076e+01 1.507418e+00 4.599669e+00 1.429796e+00 -3.014512e+00 1.342179e+00 -1.041308e+01 1.282933e+00 -1.808446e+01 1.041169e+00 -2.563286e+01 9.158902e-01 -3.331912e+01 5.976152e-01 -4.093728e+01 5.250124e-01 -4.846195e+01 3.256772e-01 -5.606420e+01 3.310536e-01 -6.368009e+01 2.176223e-01 -7.122754e+01 -2.778413e-02 -7.880991e+01 -3.809458e-01 -8.650928e+01 -8.696968e-01 -9.436939e+01 -1.550746e+00 -1.024219e+02 
-3.608155e+00 -1.125251e+02 -5.067953e+00 -1.211721e+02 -7.121488e+00 1.237837e+02 -4.896082e+00 1.150781e+02 -3.141286e+00 1.066223e+02 -1.752392e+00 9.837045e+01 -6.579139e-01 9.025663e+01 1.551744e-01 8.223814e+01 7.519827e-01 7.456737e+01 9.070381e-01 6.639579e+01 1.096997e+00 5.867789e+01 1.344863e+00 5.079199e+01 1.390575e+00 4.314249e+01 1.513231e+00 3.524719e+01 1.384322e+00 2.742780e+01 1.391915e+00 1.972601e+01 1.229211e+00 1.190848e+01 1.195655e+00 4.421558e+00 1.124689e+00 -3.328472e+00 9.893836e-01 -1.080433e+01 9.624387e-01 -1.856800e+01 6.728578e-01 -2.624547e+01 5.302102e-01 -3.400170e+01 1.456707e-01 -4.177981e+01 6.926697e-03 -4.937451e+01 -2.318490e-01 -5.711880e+01 -2.777035e-01 -6.481613e+01 -4.615687e-01 -7.244974e+01 -7.731234e-01 -8.014513e+01 -1.195654e+00 -8.796977e+01 -1.764875e+00 -9.595527e+01 -2.542387e+00 -1.041296e+02 
-3.741780e+00 -1.122579e+02 -5.411723e+00 -1.210909e+02 -7.746395e+00 1.248482e+02 -5.343960e+00 1.159247e+02 -3.463501e+00 1.072904e+02 -1.974030e+00 9.890509e+01 -7.872564e-01 9.067322e+01 1.326701e-01 8.250995e+01 9.241287e-01 7.482210e+01 1.023253e+00 6.635885e+01 1.230167e+00 5.873211e+01 1.478439e+00 5.085493e+01 1.656011e+00 4.332811e+01 1.695982e+00 3.538461e+01 1.612101e+00 2.755071e+01 1.572500e+00 1.995820e+01 1.378288e+00 1.205460e+01 1.432576e+00 4.802467e+00 1.329500e+00 -3.028528e+00 1.335621e+00 -1.028189e+01 1.303060e+00 -1.809480e+01 1.100155e+00 -2.571230e+01 9.200893e-01 -3.345718e+01 5.329100e-01 -4.133056e+01 4.797120e-01 -4.876279e+01 1.229284e-01 -5.660135e+01 7.298268e-02 -6.423671e+01 -1.486794e-01 -7.180488e+01 -4.874787e-01 -7.951209e+01 -9.563909e-01 -8.738954e+01 -1.610521e+00 -9.545125e+01 -2.512393e+00 -1.037272e+02 
-4.761985e+00 -1.138642e+02 -6.562853e+00 -1.228032e+02 -9.070548e+00 1.262435e+02 -6.476816e+00 1.171831e+02 -4.443044e+00 1.084061e+02 -2.835428e+00 9.988202e+01 -1.552912e+00 9.157664e+01 -4.470386e-01 8.346329e+01 5.095951e-01 7.533588e+01 7.440759e-01 6.677014e+01 6.464766e-01 5.887743e+01 1.030069e+00 5.141477e+01 1.372665e+00 4.331907e+01 1.304202e+00 3.562568e+01 1.447441e+00 2.745405e+01 1.154121e+00 1.987117e+01 1.128055e+00 1.196850e+01 9.543514e-01 4.407659e+00 9.785954e-01 -3.118892e+00 8.643857e-01 -1.095242e+01 9.467766e-01 -1.836216e+01 7.640166e-01 -2.650440e+01 4.449515e-01 -3.406552e+01 1.580123e-01 -4.214324e+01 -2.474559e-01 -4.979043e+01 -3.940997e-01 -5.776967e+01 -5.182398e-01 -6.526478e+01 -8.194034e-01 -7.288881e+01 -1.207809e+00 -8.070746e+01 -1.727950e+00 -8.869918e+01 -2.446829e+00 -9.686662e+01 -3.430379e+00 -1.052399e+02 
-4.809145e+00 -1.135093e+02 -6.786615e+00 -1.226043e+02 -9.525493e+00 1.271530e+02 -6.790333e+00 1.179023e+02 -4.658340e+00 1.089605e+02 -2.983424e+00 1.003311e+02 -1.643250e+00 9.210790e+01 -3.993720e-01 8.435047e+01 6.365411e-01 7.552017e+01 1.375932e+00 6.681115e+01 5.529018e-01 5.838930e+01 1.167034e+00 5.215881e+01 2.198451e+00 4.313364e+01 1.142612e+00 3.604639e+01 2.299127e+00 2.745256e+01 8.588052e-01 1.995545e+01 1.551144e+00 1.240435e+01 1.063610e+00 4.312520e+00 1.108647e+00 -2.223145e+00 1.579519e+00 -1.094960e+01 9.964011e-01 -1.737974e+01 1.873966e+00 -2.626194e+01 2.449682e-01 -3.342364e+01 1.051905e+00 -4.141479e+01 2.359022e-03 -4.963613e+01 2.342475e-01 -5.750000e+01 -5.081635e-01 -6.436451e+01 -6.166206e-01 -7.208482e+01 -9.228822e-01 -8.001618e+01 -1.461186e+00 -8.808100e+01 -2.250696e+00 -9.631648e+01 -3.339619e+00 -1.047737e+02 
-5.722106e+00 -1.149171e+02 -7.803935e+00 -1.240904e+02 -1.067458e+01 1.282826e+02 -7.776488e+00 1.189371e+02 -5.499073e+00 1.099071e+02 -3.689004e+00 1.012007e+02 -2.237876e+00 9.288556e+01 -1.012562e+00 8.491132e+01 -1.887783e-01 7.619766e+01 8.178580e-01 6.728827e+01 1.869349e-01 5.887860e+01 9.422461e-01 5.232953e+01 1.775005e+00 4.331359e+01 9.548162e-01 3.610778e+01 1.988332e+00 2.743157e+01 6.644971e-01 1.990032e+01 1.299488e+00 1.222904e+01 8.209006e-01 4.109763e+00 8.400129e-01 -2.557756e+00 1.303267e+00 -1.132589e+01 6.859968e-01 -1.786937e+01 1.555501e+00 -2.680858e+01 -9.240738e-02 -3.405666e+01 6.712237e-01 -4.207674e+01 -3.079814e-01 -5.041300e+01 -3.029850e-01 -5.830053e+01 -1.181050e+00 -6.523154e+01 -1.277326e+00 -7.307809e+01 -1.592883e+00 -8.111681e+01 -2.168883e+00 -8.927147e+01 -3.012874e+00 -9.758588e+01 -4.169571e+00 -1.061142e+02 
-5.660868e+00 -1.144645e+02 -7.880613e+00 -1.237666e+02 -1.092284e+01 1.290107e+02 -7.925013e+00 1.195169e+02 -5.562460e+00 1.103600e+02 -3.674656e+00 1.015133e+02 -2.170512e+00 9.290853e+01 -1.028375e+00 8.441007e+01 -1.999587e-01 7.623065e+01 3.392736e-01 6.741755e+01 5.743537e-01 5.938770e+01 1.168997e+00 5.171950e+01 1.304592e+00 4.359567e+01 1.526689e+00 3.588551e+01 1.532453e+00 2.772415e+01 1.409553e+00 2.016113e+01 1.339115e+00 1.227656e+01 1.225984e+00 4.742771e+00 1.257627e+00 -2.785929e+00 1.183089e+00 -1.057184e+01 1.274866e+00 -1.798570e+01 1.128289e+00 -2.606268e+01 8.438746e-01 -3.362552e+01 5.538153e-01 -4.162229e+01 2.672870e-01 -4.928712e+01 -1.048120e-01 -5.724080e+01 -4.022688e-01 -6.479724e+01 -7.264138e-01 -7.254792e+01 -1.183165e+00 -8.050243e+01 -1.838749e+00 -8.864433e+01 -2.755127e+00 -9.698813e+01 -3.999008e+00 -1.055746e+02 
-6.453266e+00 -1.156947e+02 -8.747903e+00 -1.250484e+02 -1.188372e+01 1.298438e+02 -8.768673e+00 1.202845e+02 -6.303584e+00 1.110534e+02 -4.328765e+00 1.021116e+02 -2.756171e+00 9.336575e+01 -1.557468e+00 8.474377e+01 -4.862596e-01 7.665088e+01 -1.204910e-01 6.784712e+01 3.987843e-01 5.991312e+01 8.007960e-01 5.172059e+01 1.103067e+00 4.399354e+01 1.237972e+00 3.585217e+01 1.219789e+00 2.787312e+01 1.240364e+00 2.014436e+01 1.065895e+00 1.210654e+01 1.142239e+00 4.723448e+00 1.029974e+00 -3.253452e+00 1.045283e+00 -1.063654e+01 9.932528e-01 -1.859212e+01 7.864212e-01 -2.634061e+01 5.780314e-01 -3.421746e+01 1.489592e-01 -4.223130e+01 1.366938e-02 -4.983049e+01 -5.158335e-01 -5.785038e+01 -7.767412e-01 -6.569178e+01 -1.202040e+00 -7.352553e+01 -1.748009e+00 -8.153398e+01 -2.465515e+00 -8.973091e+01 -3.433760e+00 -9.812742e+01 -4.730787e+00 -1.067611e+02 
-6.268546e+00 -1.151347e+02 -8.662542e+00 -1.245890e+02 -1.191384e+01 1.303230e+02 -8.751102e+00 1.206355e+02 -6.246303e+00 1.112781e+02 -4.250392e+00 1.022042e+02 -2.679802e+00 9.335726e+01 -1.477121e+00 8.471935e+01 -4.986280e-01 7.641657e+01 -2.183730e-02 6.793546e+01 5.166012e-01 5.984511e+01 9.362094e-01 5.173995e+01 1.160287e+00 4.388835e+01 1.394205e+00 3.590976e+01 1.376521e+00 2.802878e+01 1.465188e+00 2.027559e+01 1.360021e+00 1.243562e+01 1.378435e+00 4.893466e+00 1.341515e+00 -2.879718e+00 1.259803e+00 -1.039867e+01 1.268138e+00 -1.817169e+01 1.031812e+00 -2.587492e+01 9.196183e-01 -3.364883e+01 5.472765e-01 -4.149172e+01 3.575341e-01 -4.916192e+01 -1.945047e-02 -5.706789e+01 -2.706223e-01 -6.495033e+01 -7.019355e-01 -7.283774e+01 -1.292320e+00 -8.085284e+01 -2.068478e+00 -8.905037e+01 -3.098558e+00 -9.746389e+01 -4.464606e+00 -1.061365e+02 
-6.933491e+00 -1.162051e+02 -9.370753e+00 -1.256831e+02 -1.267479e+01 1.308421e+02 -9.437885e+00 1.211209e+02 -6.865401e+00 1.117191e+02 -4.810195e+00 1.025919e+02 -3.186504e+00 9.369950e+01 -1.921238e+00 8.504586e+01 -8.976488e-01 7.664866e+01 -3.745593e-01 6.823375e+01 2.129075e-01 6.006676e+01 5.944198e-01 5.190022e+01 8.905141e-01 4.400331e+01 1.081282e+00 3.593925e+01 1.114094e+00 2.804673e+01 1.205732e+00 2.017679e+01 1.109800e+00 1.233178e+01 1.158363e+00 4.668112e+00 1.063934e+00 -3.134259e+00 1.021719e+00 -1.073252e+01 9.324001e-01 -1.858340e+01 7.302239e-01 -2.631393e+01 5.687051e-01 -3.419632e+01 2.114894e-01 -4.203695e+01 1.363395e-02 -4.983012e+01 -4.160434e-01 -5.774854e+01 -7.265666e-01 -6.572597e+01 -1.182883e+00 -7.370805e+01 -1.809744e+00 -8.178938e+01 -2.625574e+00 -9.003475e+01 -3.692313e+00 -9.848487e+01 -5.093177e+00 -1.071852e+02 
-6.619274e+00 -1.155261e+02 -9.120109e+00 -1.250747e+02 -1.249843e+01 1.310462e+02 -9.251717e+00 1.212366e+02 -6.675272e+00 1.117553e+02 -4.624412e+00 1.025640e+02 -3.010316e+00 9.363446e+01 -1.758458e+00 8.495090e+01 -7.956888e-01 7.649529e+01 -1.751245e-01 6.814448e+01 3.701563e-01 5.996710e+01 7.759486e-01 5.187484e+01 1.049341e+00 4.393527e+01 1.261698e+00 3.599211e+01 1.336637e+00 2.814255e+01 1.421082e+00 2.034064e+01 1.396252e+00 1.257948e+01 1.404705e+00 4.910467e+00 1.361494e+00 -2.788939e+00 1.293879e+00 -1.041489e+01 1.228757e+00 -1.813394e+01 1.059347e+00 -2.583082e+01 9.134375e-01 -3.359324e+01 6.384937e-01 -4.136595e+01 4.095125e-01 -4.914565e+01 7.579682e-02 -5.701332e+01 -2.444669e-01 -6.494685e+01 -7.020248e-01 -7.293041e+01 -1.336866e+00 -8.101947e+01 -2.177611e+00 -8.927127e+01 -3.280711e+00 -9.773437e+01 -4.726123e+00 -1.064611e+02 
-7.155841e+00 -1.164510e+02 -9.666227e+00 -1.259941e+02 -1.305437e+01 1.312555e+02 -9.773062e+00 1.214503e+02 -7.162725e+00 1.119653e+02 -5.080005e+00 1.027657e+02 -3.434357e+00 9.382796e+01 -2.148489e+00 8.513225e+01 -1.161341e+00 7.664690e+01 -5.031054e-01 6.829350e+01 5.846662e-02 6.008335e+01 4.627153e-01 5.195916e+01 7.616179e-01 4.396862e+01 9.648871e-01 3.598224e+01 1.063695e+00 2.808560e+01 1.145751e+00 2.022568e+01 1.133083e+00 1.241961e+01 1.141592e+00 4.679324e+00 1.081266e+00 -3.066774e+00 1.013752e+00 -1.076479e+01 9.087082e-01 -1.853612e+01 7.418098e-01 -2.629334e+01 5.650824e-01 -3.411356e+01 2.945411e-01 -4.193509e+01 4.297207e-02 -4.978286e+01 -3.188372e-01 -5.769645e+01 -6.850984e-01 -6.568359e+01 -1.167164e+00 -7.372896e+01 -1.819746e+00 -8.187057e+01 -2.677556e+00 -9.016013e+01 -3.795670e+00 -9.864699e+01 -5.253062e+00 -1.073851e+02 
-6.709721e+00 -1.156400e+02 -9.248104e+00 -1.252237e+02 -1.266876e+01 1.311788e+02 -9.411547e+00 1.213280e+02 -6.827291e+00 1.118090e+02 -4.771659e+00 1.025884e+02 -3.153357e+00 9.364168e+01 -1.896954e+00 8.494131e+01 -9.420160e-01 7.645494e+01 -2.549032e-01 6.812874e+01 2.855575e-01 5.994834e+01 6.917153e-01 5.187800e+01 9.810426e-01 4.391542e+01 1.190508e+00 3.600796e+01 1.309472e+00 2.817005e+01 1.392562e+00 2.038240e+01 1.412446e+00 1.264220e+01 1.416036e+00 4.949179e+00 1.383105e+00 -2.730221e+00 1.321031e+00 -1.038937e+01 1.238571e+00 -1.807621e+01 1.102398e+00 -2.577289e+01 9.476800e-01 -3.350657e+01 7.260989e-01 -4.126788e+01 4.835596e-01 -4.906878e+01 1.731013e-01 -5.693407e+01 -1.855927e-01 -6.487248e+01 -6.645823e-01 -7.289073e+01 -1.314274e+00 -8.102042e+01 -2.176494e+00 -8.930600e+01 -3.307145e+00 -9.779639e+01 -4.783347e+00 -1.065480e+02 
-7.119584e+00 -1.164311e+02 -9.632047e+00 -1.259796e+02 -1.301790e+01 1.310890e+02 -9.764917e+00 1.212809e+02 -7.180101e+00 1.117958e+02 -5.120671e+00 1.026017e+02 -3.495343e+00 9.367392e+01 -2.228968e+00 8.498349e+01 -1.264005e+00 7.649701e+01 -5.612617e-01 6.816772e+01 -1.420280e-02 5.997307e+01 3.932140e-01 5.188113e+01 6.910092e-01 4.388546e+01 8.997183e-01 3.594363e+01 1.027032e+00 2.806469e+01 1.109724e+00 2.023269e+01 1.132859e+00 1.244572e+01 1.132906e+00 4.699376e+00 1.090210e+00 -3.031259e+00 1.019881e+00 -1.074797e+01 9.171118e-01 -1.848726e+01 7.715315e-01 -2.623912e+01 5.981134e-01 -3.402432e+01 3.684676e-01 -4.183622e+01 1.082135e-01 -4.968744e+01 -2.228545e-01 -5.759757e+01 -6.083642e-01 -6.557822e+01 -1.103831e+00 -7.363799e+01 -1.760228e+00 -8.180279e+01 -2.622659e+00 -9.011192e+01 -3.747673e+00 -9.861203e+01 -5.211911e+00 -1.073588e+02 