# vtk DataFile Version 2.0
Comment goes here
ASCII

DATASET STRUCTURED_POINTS
FIELD FieldData 1
TIME 1 1 double
0.06900000
DIMENSIONS    64   64   1

ORIGIN    0.000   0.000   0.000
SPACING   0.03125 0.03125   1.000

POINT_DATA   4096
VECTORS u double

0.528116 -0.027372 0.000000 -1.672596 0.007045 0.000000 0.327693 0.004931 0.000000 -1.543705 -0.003085 0.000000 -0.010533 -0.003906 0.000000 -1.417847 -0.006907 0.000000 0.163511 0.009036 0.000000 -1.287504 -0.005529 0.000000 0.261763 0.006468 0.000000 -1.231976 -0.006307 0.000000 0.322166 0.005023 0.000000 -1.189946 -0.007349 0.000000 0.334475 0.004318 0.000000 -1.119329 -0.008370 0.000000 0.288889 0.004451 0.000000 -1.007876 -0.008990 0.000000 0.192014 0.005487 0.000000 -0.857071 -0.009266 0.000000 0.052432 0.006478 0.000000 -0.673584 -0.007012 0.000000 -0.119113 0.009263 0.000000 -0.471461 -0.003930 0.000000 -0.310036 0.010813 0.000000 -0.253588 -0.005136 0.000000 -0.520900 0.010675 0.000000 -0.019942 -0.004306 0.000000 -0.741202 0.010721 0.000000 0.210199 -0.001998 0.000000 -0.944210 0.012170 0.000000 0.405511 -0.001619 0.000000 -1.099413 0.010580 0.000000 0.547366 -0.001289 0.000000 -1.200307 0.009766 0.000000 0.640203 0.000059 0.000000 -1.262683 0.010345 0.000000 0.708912 0.000251 0.000000 -1.314525 0.009701 0.000000 0.772661 0.000011 0.000000 -1.362942 0.009151 0.000000 0.824045 0.000323 0.000000 -1.387481 0.009224 0.000000 0.833568 0.001858 0.000000 -1.361789 0.011082 0.000000 0.777022 0.003383 0.000000 -1.272858 0.009280 0.000000 0.655793 0.006605 0.000000 -1.131140 0.010204 0.000000 0.477365 0.008401 0.000000 -0.936303 0.009979 0.000000 0.237315 0.009416 0.000000 -0.693009 0.006481 0.000000 -0.052475 0.009456 0.000000 -0.424467 0.002904 0.000000 -0.364818 0.008063 0.000000 -0.153664 -0.000168 0.000000 -0.681673 0.006679 0.000000 0.102355 -0.002360 0.000000 -0.988651 0.005557 0.000000 0.333772 -0.003702 0.000000 -1.284182 0.004699 0.000000 0.539135 -0.004615 0.000000 -1.567274 0.004121 0.000000 0.699463 -0.006412 0.000000 -1.791595 0.009804 0.000000 
-0.248258 -0.087850 0.000000 0.289124 0.097284 0.000000 -0.060037 -0.061718 0.000000 0.230218 0.162459 0.000000 0.298812 -0.048948 0.000000 0.160248 -0.093265 0.000000 -0.046287 -0.061030 0.000000 0.047707 -0.056508 0.000000 -0.239901 -0.021436 0.000000 0.009039 -0.037326 0.000000 -0.366168 -0.013768 0.000000 -0.010317 -0.012763 0.000000 -0.442295 -0.027774 0.000000 -0.041919 0.016617 0.000000 -0.474739 -0.048505 0.000000 -0.094105 0.042304 0.000000 -0.473893 -0.069165 0.000000 -0.165634 0.063660 0.000000 -0.446343 -0.086243 0.000000 -0.252826 0.077980 0.000000 -0.395527 -0.097605 0.000000 -0.347635 0.085018 0.000000 -0.329548 -0.106203 0.000000 -0.447779 0.096136 0.000000 -0.249710 -0.114146 0.000000 -0.559143 0.100510 0.000000 -0.159442 -0.112732 0.000000 -0.672663 0.090431 0.000000 -0.073125 -0.096701 0.000000 -0.769033 0.066415 0.000000 -0.008205 -0.068694 0.000000 -0.839867 0.039726 0.000000 0.027550 -0.044698 0.000000 -0.884263 0.020285 0.000000 0.043096 -0.034096 0.000000 -0.914860 0.015310 0.000000 0.052550 -0.031444 0.000000 -0.942357 0.014607 0.000000 0.062213 -0.026198 0.000000 -0.964217 0.003724 0.000000 0.060140 -0.006416 0.000000 -0.961531 -0.021290 0.000000 0.033912 0.023881 0.000000 -0.920629 -0.052604 0.000000 -0.018863 0.055662 0.000000 -0.849366 -0.078503 0.000000 -0.089416 0.081070 0.000000 -0.745710 -0.104565 0.000000 -0.181229 0.110331 0.000000 -0.607691 -0.127706 0.000000 -0.292281 0.136677 0.000000 -0.441042 -0.138154 0.000000 -0.407716 0.149462 0.000000 -0.261902 -0.136244 0.000000 -0.516085 0.152862 0.000000 -0.080716 -0.126346 0.000000 -0.607832 0.148508 0.000000 0.093598 -0.112089 0.000000 -0.675633 0.142752 0.000000 0.260250 -0.097435 0.000000 -0.714068 0.136047 0.000000 0.412621 -0.072959 0.000000 -0.696580 0.105225 0.000000 0.498199 0.095373 0.000000 
1.825585 0.181703 0.000000 0.576334 -0.181176 0.000000 1.445249 0.063837 0.000000 0.508227 -0.361934 0.000000 1.069686 0.066064 0.000000 0.423993 0.338192 0.000000 1.790999 0.121577 0.000000 0.488433 0.188084 0.000000 2.179892 0.045137 0.000000 0.499007 0.119961 0.000000 2.429139 0.024379 0.000000 0.482995 0.068778 0.000000 2.625655 0.035919 0.000000 0.440045 0.024074 0.000000 2.813315 0.056637 0.000000 0.372726 -0.009836 0.000000 3.004107 0.077015 0.000000 0.285511 -0.036815 0.000000 3.200109 0.093670 0.000000 0.178959 -0.057828 0.000000 3.389589 0.104072 0.000000 0.063522 -0.069909 0.000000 3.565366 0.110958 0.000000 -0.063656 -0.084974 0.000000 3.741887 0.122039 0.000000 -0.196362 -0.094574 0.000000 3.916787 0.124241 0.000000 -0.324777 -0.088315 0.000000 4.073414 0.108540 0.000000 -0.432598 -0.066539 0.000000 4.188482 0.081413 0.000000 -0.496002 -0.037043 0.000000 4.266271 0.054162 0.000000 -0.520613 -0.015488 0.000000 4.310956 0.040942 0.000000 -0.528387 -0.009203 0.000000 4.346064 0.037199 0.000000 -0.534424 -0.009652 0.000000 4.380150 0.031010 0.000000 -0.535991 0.002396 0.000000 4.391608 0.006538 0.000000 -0.513542 0.028086 0.000000 4.360023 -0.029820 0.000000 -0.457111 0.056158 0.000000 4.274402 -0.061983 0.000000 -0.368754 0.077158 0.000000 4.147330 -0.093451 0.000000 -0.260306 0.100214 0.000000 3.967278 -0.128040 0.000000 -0.125344 0.120468 0.000000 3.741305 -0.160168 0.000000 0.029806 0.124891 0.000000 3.477422 -0.176236 0.000000 0.191278 0.116433 0.000000 3.189454 -0.181353 0.000000 0.349872 0.098426 0.000000 2.888369 -0.176674 0.000000 0.497799 0.073358 0.000000 2.576881 -0.170354 0.000000 0.635097 0.043135 0.000000 2.241258 -0.156985 0.000000 0.772630 -0.013367 0.000000 1.870425 -0.091990 0.000000 0.844632 -0.438518 0.000000 
3.858504 0.180448 0.000000 0.045865 0.477621 0.000000 2.972242 0.006388 0.000000 -0.227609 0.538022 0.000000 1.512704 0.035286 0.000000 -0.168569 -0.814578 0.000000 3.368200 -0.125470 0.000000 -0.039358 -0.445401 0.000000 4.311126 -0.032010 0.000000 -0.002267 -0.286573 0.000000 4.930061 0.002243 0.000000 0.021702 -0.209279 0.000000 5.383930 0.015176 0.000000 0.062357 -0.171043 0.000000 5.734230 0.018814 0.000000 0.122434 -0.148489 0.000000 6.015429 0.018051 0.000000 0.197500 -0.132341 0.000000 6.241948 0.020308 0.000000 0.272212 -0.111500 0.000000 6.407999 0.017832 0.000000 0.343399 -0.090759 0.000000 6.528288 0.020975 0.000000 0.406986 -0.080385 0.000000 6.617691 0.018560 0.000000 0.470556 -0.074391 0.000000 6.673224 0.015683 0.000000 0.529916 -0.066196 0.000000 6.712658 0.011120 0.000000 0.574750 -0.048653 0.000000 6.741099 -0.005290 0.000000 0.603180 -0.038063 0.000000 6.767870 -0.020088 0.000000 0.617187 -0.024400 0.000000 6.791576 -0.026321 0.000000 0.631720 -0.019799 0.000000 6.800245 -0.025407 0.000000 0.651564 -0.019479 0.000000 6.794658 -0.024632 0.000000 0.677593 -0.007734 0.000000 6.772062 -0.028865 0.000000 0.696127 0.010295 0.000000 6.745124 -0.032550 0.000000 0.697205 0.033016 0.000000 6.702962 -0.032695 0.000000 0.684309 0.048570 0.000000 6.640696 -0.027378 0.000000 0.654470 0.075487 0.000000 6.554348 -0.024630 0.000000 0.608211 0.098267 0.000000 6.434757 -0.018473 0.000000 0.546959 0.125730 0.000000 6.282635 -0.012010 0.000000 0.483225 0.151724 0.000000 6.096467 -0.005732 0.000000 0.419681 0.174739 0.000000 5.867969 0.000582 0.000000 0.356257 0.199400 0.000000 5.584422 0.005454 0.000000 0.282726 0.238187 0.000000 5.230983 -0.001486 0.000000 0.185463 0.297875 0.000000 4.774586 0.033224 0.000000 0.072208 0.140212 0.000000 
3.998932 0.208046 0.000000 0.205438 0.705086 0.000000 3.257417 0.337311 0.000000 -0.100229 1.097604 0.000000 2.096668 0.007025 0.000000 -0.076267 -1.517305 0.000000 3.443926 -0.007634 0.000000 -0.118503 -0.754841 0.000000 4.330324 0.008045 0.000000 -0.077131 -0.498975 0.000000 4.947069 0.000410 0.000000 -0.020014 -0.385090 0.000000 5.405894 -0.004735 0.000000 0.051206 -0.326227 0.000000 5.764418 -0.003440 0.000000 0.134606 -0.291034 0.000000 6.057885 0.001949 0.000000 0.225018 -0.263334 0.000000 6.305618 0.018959 0.000000 0.303936 -0.223879 0.000000 6.484900 0.032885 0.000000 0.372859 -0.190197 0.000000 6.619110 0.047370 0.000000 0.430474 -0.174377 0.000000 6.724099 0.058469 0.000000 0.481324 -0.150107 0.000000 6.794936 0.064882 0.000000 0.522317 -0.127749 0.000000 6.848713 0.063705 0.000000 0.555582 -0.094980 0.000000 6.879010 0.052983 0.000000 0.575647 -0.063814 0.000000 6.901577 0.040155 0.000000 0.582501 -0.039194 0.000000 6.911708 0.026410 0.000000 0.593780 -0.017872 0.000000 6.915886 0.017354 0.000000 0.605904 -0.004065 0.000000 6.904369 0.004981 0.000000 0.627611 0.024992 0.000000 6.880523 -0.011996 0.000000 0.643119 0.055024 0.000000 6.846024 -0.030898 0.000000 0.651860 0.098319 0.000000 6.787246 -0.049087 0.000000 0.648512 0.139424 0.000000 6.708492 -0.063612 0.000000 0.632506 0.186562 0.000000 6.599961 -0.081782 0.000000 0.606962 0.240059 0.000000 6.468985 -0.098916 0.000000 0.569060 0.277013 0.000000 6.295781 -0.112502 0.000000 0.526529 0.302600 0.000000 6.085731 -0.117809 0.000000 0.483724 0.326924 0.000000 5.838299 -0.113251 0.000000 0.443027 0.356905 0.000000 5.541735 -0.096823 0.000000 0.400674 0.396574 0.000000 5.181847 -0.059722 0.000000 0.331896 0.443029 0.000000 4.747520 0.021264 0.000000 0.244781 0.477564 0.000000 
4.306497 0.219791 0.000000 0.025552 1.219136 0.000000 3.587407 0.312055 0.000000 -0.057940 1.698771 0.000000 2.640015 0.011324 0.000000 -0.066898 -2.161836 0.000000 3.609274 -0.083234 0.000000 -0.076445 -1.331799 0.000000 4.460600 -0.073382 0.000000 -0.044700 -0.903318 0.000000 5.073591 -0.054873 0.000000 -0.005806 -0.668103 0.000000 5.526096 -0.056045 0.000000 0.049167 -0.529568 0.000000 5.878028 -0.064586 0.000000 0.124937 -0.441955 0.000000 6.159891 -0.072361 0.000000 0.219297 -0.380074 0.000000 6.403700 -0.058610 0.000000 0.304007 -0.290783 0.000000 6.563943 -0.051091 0.000000 0.375705 -0.224969 0.000000 6.675755 -0.036639 0.000000 0.434077 -0.185374 0.000000 6.767797 -0.032291 0.000000 0.492974 -0.145227 0.000000 6.824695 -0.025310 0.000000 0.542848 -0.119973 0.000000 6.869986 -0.022145 0.000000 0.583437 -0.078949 0.000000 6.890539 -0.025355 0.000000 0.610416 -0.060630 0.000000 6.903443 -0.026942 0.000000 0.627929 -0.034531 0.000000 6.909618 -0.037601 0.000000 0.648773 -0.023977 0.000000 6.904149 -0.037531 0.000000 0.671080 -0.007962 0.000000 6.899290 -0.046338 0.000000 0.702333 0.016113 0.000000 6.873926 -0.044373 0.000000 0.727104 0.044794 0.000000 6.848514 -0.041290 0.000000 0.739360 0.091795 0.000000 6.797477 -0.029348 0.000000 0.732207 0.127324 0.000000 6.730793 -0.011372 0.000000 0.700921 0.184018 0.000000 6.637443 0.000914 0.000000 0.652332 0.229243 0.000000 6.499583 0.019429 0.000000 0.584439 0.298934 0.000000 6.334893 0.030521 0.000000 0.510030 0.361773 0.000000 6.148112 0.037073 0.000000 0.433617 0.422172 0.000000 5.931467 0.041279 0.000000 0.357703 0.495964 0.000000 5.670526 0.047807 0.000000 0.278864 0.598075 0.000000 5.342897 0.067292 0.000000 0.189201 0.732202 0.000000 4.912977 0.120339 0.000000 0.088089 0.888800 0.000000 
4.510752 0.270582 0.000000 0.155156 1.424176 0.000000 3.939517 0.420803 0.000000 0.070176 2.044997 0.000000 3.179571 0.015984 0.000000 0.061163 -2.486564 0.000000 3.844118 0.001912 0.000000 -0.025181 -1.606167 0.000000 4.513437 -0.023699 0.000000 -0.045659 -1.111965 0.000000 5.059319 -0.038485 0.000000 -0.023956 -0.837596 0.000000 5.488890 -0.059709 0.000000 0.031548 -0.678159 0.000000 5.834697 -0.079209 0.000000 0.123735 -0.572897 0.000000 6.113974 -0.092411 0.000000 0.243182 -0.507144 0.000000 6.388646 -0.065752 0.000000 0.334589 -0.384122 0.000000 6.541680 -0.038813 0.000000 0.402115 -0.302009 0.000000 6.658598 -0.011002 0.000000 0.441538 -0.266419 0.000000 6.756814 -0.000428 0.000000 0.496163 -0.207005 0.000000 6.822252 0.015007 0.000000 0.527895 -0.173041 0.000000 6.884205 0.023116 0.000000 0.559709 -0.115533 0.000000 6.899995 0.026005 0.000000 0.570151 -0.076718 0.000000 6.928897 0.022642 0.000000 0.575201 -0.045370 0.000000 6.925710 0.005566 0.000000 0.587370 -0.012402 0.000000 6.938368 -0.004953 0.000000 0.595521 0.000793 0.000000 6.930246 -0.026272 0.000000 0.624032 0.050356 0.000000 6.918025 -0.036766 0.000000 0.639320 0.080437 0.000000 6.895398 -0.043154 0.000000 0.661110 0.149356 0.000000 6.834165 -0.041934 0.000000 0.659482 0.206108 0.000000 6.768793 -0.032327 0.000000 0.651425 0.279912 0.000000 6.650865 -0.033192 0.000000 0.626423 0.377918 0.000000 6.535704 -0.031023 0.000000 0.583332 0.441704 0.000000 6.361519 -0.038093 0.000000 0.523385 0.489381 0.000000 6.155863 -0.041396 0.000000 0.461012 0.543569 0.000000 5.933475 -0.037337 0.000000 0.407647 0.617846 0.000000 5.682705 -0.017984 0.000000 0.358437 0.724202 0.000000 5.383478 0.029942 0.000000 0.301335 0.872950 0.000000 5.009673 0.122376 0.000000 0.232867 1.084044 0.000000 
4.824669 0.297502 0.000000 0.084103 1.790371 0.000000 4.317237 0.397034 0.000000 0.078137 2.458717 0.000000 3.682250 0.020337 0.000000 0.069473 -2.826383 0.000000 4.162159 0.003111 0.000000 0.008302 -2.001118 0.000000 4.718509 -0.052903 0.000000 -0.019780 -1.449200 0.000000 5.215334 -0.076576 0.000000 -0.021106 -1.097674 0.000000 5.623021 -0.111549 0.000000 0.007650 -0.875374 0.000000 5.964814 -0.156773 0.000000 0.097806 -0.721233 0.000000 6.222046 -0.191808 0.000000 0.269650 -0.654747 0.000000 6.516391 -0.150017 0.000000 0.366934 -0.443817 0.000000 6.626221 -0.118617 0.000000 0.425969 -0.341886 0.000000 6.708977 -0.076062 0.000000 0.446439 -0.283590 0.000000 6.810343 -0.086916 0.000000 0.519366 -0.210665 0.000000 6.852047 -0.057041 0.000000 0.549822 -0.181927 0.000000 6.917445 -0.053959 0.000000 0.592227 -0.094740 0.000000 6.919561 -0.035798 0.000000 0.603265 -0.089531 0.000000 6.936190 -0.031992 0.000000 0.608687 -0.031344 0.000000 6.935314 -0.049770 0.000000 0.633278 -0.036634 0.000000 6.927854 -0.045682 0.000000 0.639345 0.000160 0.000000 6.944349 -0.074849 0.000000 0.687320 0.028334 0.000000 6.915331 -0.059662 0.000000 0.706087 0.067420 0.000000 6.921918 -0.063080 0.000000 0.733494 0.153029 0.000000 6.864719 -0.027720 0.000000 0.732004 0.192696 0.000000 6.815436 -0.003315 0.000000 0.701072 0.301947 0.000000 6.727696 0.025916 0.000000 0.666556 0.344403 0.000000 6.567156 0.062520 0.000000 0.579051 0.473120 0.000000 6.389918 0.090467 0.000000 0.486638 0.567430 0.000000 6.216187 0.099446 0.000000 0.399643 0.644559 0.000000 6.035298 0.094644 0.000000 0.326320 0.746734 0.000000 5.828474 0.097017 0.000000 0.261862 0.897302 0.000000 5.572380 0.124394 0.000000 0.198158 1.106007 0.000000 5.244473 0.188807 0.000000 0.135038 1.387721 0.000000 
5.076246 0.321517 0.000000 0.183364 1.931608 0.000000 4.683967 0.426770 0.000000 0.176004 2.679983 0.000000 4.178763 0.024647 0.000000 0.167609 -2.966473 0.000000 4.490690 0.063083 0.000000 0.087181 -2.162517 0.000000 4.878880 0.004383 0.000000 0.016890 -1.608791 0.000000 5.273544 -0.037159 0.000000 -0.033900 -1.245283 0.000000 5.636344 -0.088464 0.000000 -0.058560 -1.019951 0.000000 5.973749 -0.169365 0.000000 0.025009 -0.830129 0.000000 6.209262 -0.264255 0.000000 0.360311 -0.801489 0.000000 6.575579 -0.163036 0.000000 0.411123 -0.493951 0.000000 6.620752 -0.097848 0.000000 0.476598 -0.384766 0.000000 6.710480 -0.031472 0.000000 0.426817 -0.367784 0.000000 6.814051 -0.073354 0.000000 0.545291 -0.248709 0.000000 6.848027 -0.015449 0.000000 0.532085 -0.238438 0.000000 6.958497 -0.019288 0.000000 0.593704 -0.117649 0.000000 6.904239 0.014966 0.000000 0.571191 -0.093346 0.000000 6.983442 0.017220 0.000000 0.557387 -0.044495 0.000000 6.925263 -0.019025 0.000000 0.585434 -0.004941 0.000000 6.980722 -0.011020 0.000000 0.551908 -0.015703 0.000000 6.962783 -0.074247 0.000000 0.638113 0.079374 0.000000 6.965852 -0.055534 0.000000 0.613095 0.073849 0.000000 6.983582 -0.070560 0.000000 0.693136 0.206555 0.000000 6.891836 -0.040445 0.000000 0.654331 0.255391 0.000000 6.885381 -0.001394 0.000000 0.690561 0.367652 0.000000 6.709888 0.001324 0.000000 0.676510 0.538459 0.000000 6.647539 0.056482 0.000000 0.632102 0.618942 0.000000 6.442473 0.054320 0.000000 0.504073 0.663112 0.000000 6.236883 0.045599 0.000000 0.401482 0.724458 0.000000 6.063880 0.035986 0.000000 0.345133 0.824670 0.000000 5.885087 0.046474 0.000000 0.308186 0.980297 0.000000 5.670971 0.093646 0.000000 0.270658 1.200857 0.000000 5.405021 0.185496 0.000000 0.226773 1.503848 0.000000 
5.383494 0.340911 0.000000 0.145845 2.182650 0.000000 5.052226 0.404395 0.000000 0.179666 2.963921 0.000000 4.641091 0.028731 0.000000 0.172013 -3.138310 0.000000 4.849880 0.083539 0.000000 0.116624 -2.389309 0.000000 5.142811 0.017388 0.000000 0.057191 -1.843864 0.000000 5.465096 -0.025786 0.000000 -0.013746 -1.460474 0.000000 5.777742 -0.086890 0.000000 -0.127119 -1.212779 0.000000 6.121389 -0.240342 0.000000 -0.175893 -0.956746 0.000000 6.357151 -0.527110 0.000000 0.568033 -1.021064 0.000000 6.760804 -0.200829 0.000000 0.417299 -0.488989 0.000000 6.703030 -0.184092 0.000000 0.546612 -0.431614 0.000000 6.716081 -0.026281 0.000000 0.360177 -0.387161 0.000000 6.912227 -0.205390 0.000000 0.582449 -0.244641 0.000000 6.852677 -0.043836 0.000000 0.581080 -0.292398 0.000000 7.023196 -0.115577 0.000000 0.583390 -0.040482 0.000000 6.931314 -0.013285 0.000000 0.666563 -0.168734 0.000000 6.984023 -0.018188 0.000000 0.499688 0.026835 0.000000 6.971462 -0.077817 0.000000 0.690337 -0.092093 0.000000 6.930875 -0.012157 0.000000 0.512687 0.018100 0.000000 7.036852 -0.161054 0.000000 0.715993 0.025264 0.000000 6.924462 -0.034644 0.000000 0.673630 0.049690 0.000000 7.058298 -0.143121 0.000000 0.718184 0.244775 0.000000 6.931758 0.011085 0.000000 0.780165 0.199151 0.000000 6.948795 -0.039544 0.000000 0.653089 0.477439 0.000000 6.889200 0.039966 0.000000 0.803214 0.406752 0.000000 6.638078 0.106928 0.000000 0.585097 0.678186 0.000000 6.418817 0.218496 0.000000 0.434841 0.773019 0.000000 6.281069 0.202036 0.000000 0.325464 0.817562 0.000000 6.169717 0.150994 0.000000 0.267661 0.925527 0.000000 6.042417 0.133964 0.000000 0.230974 1.111419 0.000000 5.873834 0.161922 0.000000 0.196841 1.371957 0.000000 5.655122 0.232692 0.000000 0.164348 1.716496 0.000000 
5.645518 0.340021 0.000000 0.223317 2.262876 0.000000 5.403091 0.392949 0.000000 0.263074 3.091119 0.000000 5.095678 0.032300 0.000000 0.256250 -3.175262 0.000000 5.190720 0.118472 0.000000 0.211209 -2.455448 0.000000 5.352913 0.063816 0.000000 0.150446 -1.931076 0.000000 5.557053 0.033777 0.000000 0.048293 -1.557929 0.000000 5.791822 0.024909 0.000000 -0.175818 -1.363599 0.000000 6.117678 -0.120591 0.000000 -0.365021 -1.065891 0.000000 6.384613 -1.008181 0.000000 0.698776 -1.205142 0.000000 6.855135 -0.012302 0.000000 0.181512 -0.436177 0.000000 6.651317 -0.227161 0.000000 0.624716 -0.397816 0.000000 6.692165 0.154963 0.000000 0.075395 -0.563931 0.000000 6.925276 -0.295626 0.000000 0.662915 -0.189159 0.000000 6.782614 -0.014080 0.000000 0.492494 -0.408957 0.000000 7.156800 -0.021599 0.000000 0.554516 -0.025767 0.000000 6.803259 -0.068207 0.000000 0.726837 -0.146055 0.000000 7.122167 0.184095 0.000000 0.280282 -0.031934 0.000000 6.870048 -0.209674 0.000000 0.815050 0.035646 0.000000 7.040400 0.166630 0.000000 0.223351 -0.121680 0.000000 7.012711 -0.277553 0.000000 0.861849 0.191765 0.000000 6.951335 -0.013170 0.000000 0.454471 -0.059988 0.000000 7.182768 -0.115114 0.000000 0.800191 0.333096 0.000000 6.857353 -0.102426 0.000000 0.650223 0.238354 0.000000 7.163328 0.125681 0.000000 0.546986 0.427246 0.000000 6.764726 -0.148801 0.000000 0.981835 0.789581 0.000000 6.867610 0.274599 0.000000 0.815287 0.838203 0.000000 6.452271 0.204576 0.000000 0.380780 0.800859 0.000000 6.284597 0.154976 0.000000 0.261202 0.835811 0.000000 6.220359 0.093790 0.000000 0.255511 0.951970 0.000000 6.133468 0.083161 0.000000 0.256730 1.148880 0.000000 6.006647 0.127779 0.000000 0.246968 1.419568 0.000000 5.843344 0.217989 0.000000 0.230830 1.775475 0.000000 
5.936693 0.348424 0.000000 0.201867 2.425078 0.000000 5.746613 0.364638 0.000000 0.262419 3.271333 0.000000 5.517890 0.035555 0.000000 0.256470 -3.233351 0.000000 5.544904 0.128580 0.000000 0.236718 -2.551503 0.000000 5.641718 0.078151 0.000000 0.221208 -2.048003 0.000000 5.785977 0.076366 0.000000 0.210627 -1.695243 0.000000 5.935656 0.137221 0.000000 0.191434 -1.538635 0.000000 6.015346 -0.051139 0.000000 0.070100 -1.223681 0.000000 6.171273 -1.590906 0.000000 -0.297371 -1.491586 0.000000 5.874205 0.316435 0.000000 -0.639187 -0.285171 0.000000 6.257363 -0.627295 0.000000 -0.356685 -0.472463 0.000000 6.227128 0.523039 0.000000 -0.286423 -0.620272 0.000000 6.503492 -0.792909 0.000000 -0.233220 -0.101978 0.000000 6.452251 0.126585 0.000000 0.167348 -0.666584 0.000000 6.591528 -0.177599 0.000000 -0.140502 0.313060 0.000000 6.618737 -0.185606 0.000000 0.512830 -0.487643 0.000000 6.527846 0.428367 0.000000 -0.141070 0.278954 0.000000 6.703960 -0.612584 0.000000 0.532479 -0.262446 0.000000 6.453644 0.579541 0.000000 0.002163 0.045789 0.000000 6.772773 -0.799551 0.000000 0.440235 0.086641 0.000000 6.519494 0.372734 0.000000 0.421544 -0.181743 0.000000 6.861948 -0.488840 0.000000 0.425291 0.570190 0.000000 6.679080 0.161053 0.000000 0.886203 -0.106824 0.000000 6.835777 0.063692 0.000000 0.394096 0.876040 0.000000 6.839531 -0.394882 0.000000 1.607319 0.303869 0.000000 6.655747 0.273476 0.000000 0.804021 1.093525 0.000000 6.313575 0.653003 0.000000 0.223716 0.940694 0.000000 6.324030 0.321615 0.000000 0.153428 0.881800 0.000000 6.349932 0.156684 0.000000 0.185059 1.012419 0.000000 6.307490 0.132744 0.000000 0.200536 1.238239 0.000000 6.215197 0.171684 0.000000 0.197794 1.535261 0.000000 6.089685 0.248830 0.000000 0.191725 1.914321 0.000000 
6.189955 0.329879 0.000000 0.262244 2.452956 0.000000 6.071891 0.332397 0.000000 0.325068 3.319842 0.000000 5.931233 0.038249 0.000000 0.319993 -3.202277 0.000000 5.882008 0.138223 0.000000 0.314740 -2.552261 0.000000 5.885316 0.079327 0.000000 0.346111 -2.075335 0.000000 5.897048 0.044358 0.000000 0.481434 -1.707608 0.000000 5.790480 0.044101 0.000000 0.769822 -1.443289 0.000000 5.326170 0.000744 0.000000 0.740205 -1.221818 0.000000 4.804847 -0.640710 0.000000 -2.293638 -0.908075 0.000000 3.917041 0.329513 0.000000 -1.264318 -0.819335 0.000000 4.387673 -0.509663 0.000000 -2.334525 -0.367582 0.000000 4.799126 0.084701 0.000000 -1.258533 -0.840294 0.000000 4.155270 -0.348830 0.000000 -2.280642 -0.137918 0.000000 4.686936 -0.414647 0.000000 -2.246518 -0.548235 0.000000 4.023847 0.286251 0.000000 -1.936204 -0.052976 0.000000 4.703163 -0.721538 0.000000 -2.512605 -0.055164 0.000000 4.488478 0.837995 0.000000 -1.169874 -0.208048 0.000000 4.740626 -0.883224 0.000000 -2.252866 0.285962 0.000000 4.813936 0.696946 0.000000 -1.002636 -0.440809 0.000000 4.512741 -0.715625 0.000000 -2.038708 0.445044 0.000000 4.806402 0.005522 0.000000 -1.575698 -0.402441 0.000000 4.242359 -0.118861 0.000000 -1.805519 0.515964 0.000000 4.824984 -0.563339 0.000000 -1.869897 0.081657 0.000000 4.522548 0.617789 0.000000 -1.200548 0.423493 0.000000 5.119023 -1.362024 0.000000 -2.008410 0.973364 0.000000 5.358668 1.077896 0.000000 -1.136260 1.180375 0.000000 6.118670 0.784881 0.000000 -0.258907 0.790404 0.000000 6.429586 0.225264 0.000000 0.085174 0.809909 0.000000 6.469156 0.062158 0.000000 0.192963 0.994411 0.000000 6.428062 0.067684 0.000000 0.226968 1.241173 0.000000 6.361854 0.130521 0.000000 0.237196 1.545081 0.000000 6.282170 0.224058 0.000000 0.242646 1.928467 0.000000 
6.458201 0.328826 0.000000 0.248843 2.543142 0.000000 6.386203 0.301814 0.000000 0.317352 3.411992 0.000000 6.313499 0.040631 0.000000 0.313316 -3.184127 0.000000 6.207961 0.133833 0.000000 0.309458 -2.554810 0.000000 6.147684 0.046780 0.000000 0.335885 -2.059735 0.000000 6.085576 -0.058956 0.000000 0.455295 -1.588675 0.000000 5.915003 -0.151166 0.000000 0.709077 -1.074325 0.000000 5.514400 -0.021523 0.000000 0.736140 -0.702358 0.000000 5.273659 1.442938 0.000000 -1.041783 -0.603780 0.000000 4.338364 -0.712886 0.000000 -0.632572 -0.755803 0.000000 4.598974 0.442912 0.000000 -1.540875 -0.883915 0.000000 4.709610 -0.552952 0.000000 -0.915299 0.023584 0.000000 4.135993 0.229199 0.000000 -1.910415 -0.633644 0.000000 4.548440 0.092461 0.000000 -2.093697 -0.003495 0.000000 3.828119 -0.487913 0.000000 -1.827536 -0.366256 0.000000 4.496875 0.390794 0.000000 -2.694792 -0.272958 0.000000 4.226689 -0.914363 0.000000 -1.173353 0.026806 0.000000 4.430485 0.470408 0.000000 -2.687297 -0.335756 0.000000 4.592319 -0.670688 0.000000 -1.127720 0.346983 0.000000 4.060392 0.236520 0.000000 -2.607239 -0.207020 0.000000 4.570249 -0.090276 0.000000 -2.078929 0.382301 0.000000 3.632182 -0.259020 0.000000 -2.466686 -0.012435 0.000000 4.426319 0.225431 0.000000 -2.964626 0.195612 0.000000 3.886312 -0.605658 0.000000 -1.857705 0.279565 0.000000 4.450446 0.412981 0.000000 -4.097857 0.064223 0.000000 5.113155 -0.598674 0.000000 -2.135214 0.333523 0.000000 6.382913 -0.224350 0.000000 -0.454261 0.629777 0.000000 6.677449 -0.022466 0.000000 0.069358 0.842230 0.000000 6.664837 0.048896 0.000000 0.184808 1.053513 0.000000 6.613130 0.098739 0.000000 0.206091 1.304446 0.000000 6.563224 0.161456 0.000000 0.210797 1.614945 0.000000 6.512972 0.243380 0.000000 0.219341 2.006536 0.000000 
6.692072 0.300377 0.000000 0.293990 2.524955 0.000000 6.682860 0.263888 0.000000 0.359519 3.392546 0.000000 6.685931 0.042285 0.000000 0.356586 -3.096740 0.000000 6.524456 0.142082 0.000000 0.337904 -2.491984 0.000000 6.410783 0.052899 0.000000 0.300316 -2.013226 0.000000 6.335291 -0.075052 0.000000 0.236615 -1.537035 0.000000 6.297759 -0.209680 0.000000 0.120053 -1.042686 0.000000 6.360785 -0.026320 0.000000 0.058373 -0.981077 0.000000 6.566379 1.137213 0.000000 1.022950 0.027220 0.000000 6.596905 -0.079698 0.000000 0.362690 -1.079945 0.000000 6.550299 0.398641 0.000000 0.656461 -0.478217 0.000000 6.299995 -0.540875 0.000000 0.254930 -0.266677 0.000000 6.600758 0.646285 0.000000 0.295930 -0.550365 0.000000 6.410956 -0.231365 0.000000 0.447253 0.172086 0.000000 6.523195 0.020091 0.000000 -0.001912 -0.721732 0.000000 6.514834 0.145718 0.000000 0.429583 0.215022 0.000000 6.330424 -0.683444 0.000000 -0.219342 -0.411843 0.000000 6.536968 0.630720 0.000000 0.126433 0.124128 0.000000 6.238371 -0.862630 0.000000 -0.225634 0.091118 0.000000 6.496387 0.763894 0.000000 -0.247803 -0.064813 0.000000 6.310024 -0.522789 0.000000 -0.123080 0.535625 0.000000 6.394542 0.268896 0.000000 -0.504529 -0.278173 0.000000 6.423074 -0.065399 0.000000 -0.128251 0.621664 0.000000 6.247357 -0.489132 0.000000 -0.561912 -0.140641 0.000000 6.470849 0.878128 0.000000 -0.269549 0.310655 0.000000 6.216500 -0.884747 0.000000 -0.537026 -0.089383 0.000000 6.436841 -0.896072 0.000000 -0.229578 0.495869 0.000000 6.618278 -0.298355 0.000000 0.037420 0.822520 0.000000 6.683181 -0.053292 0.000000 0.161963 1.046118 0.000000 6.696247 0.046400 0.000000 0.212817 1.291078 0.000000 6.695064 0.125815 0.000000 0.236975 1.595334 0.000000 6.692808 0.215514 0.000000 0.257624 1.983238 0.000000 
6.934430 0.292460 0.000000 0.281990 2.552353 0.000000 6.966881 0.236285 0.000000 0.346519 3.408921 0.000000 7.028480 0.043564 0.000000 0.344653 -3.022652 0.000000 6.830959 0.152515 0.000000 0.328652 -2.441138 0.000000 6.687391 0.084369 0.000000 0.284314 -1.984242 0.000000 6.602126 0.004744 0.000000 0.176791 -1.551144 0.000000 6.612325 -0.034605 0.000000 -0.073285 -1.137350 0.000000 6.795925 0.040157 0.000000 -0.226706 -0.907952 0.000000 6.813048 0.478360 0.000000 0.699498 -0.634306 0.000000 7.378489 -0.052625 0.000000 0.491602 -0.709197 0.000000 7.006407 0.149141 0.000000 0.810182 -0.633611 0.000000 7.046686 -0.151422 0.000000 0.291909 -0.277179 0.000000 7.180030 0.188199 0.000000 0.836201 -0.443842 0.000000 6.996923 -0.058862 0.000000 0.634317 -0.115734 0.000000 7.353000 -0.038748 0.000000 0.644675 -0.357896 0.000000 6.951282 -0.040701 0.000000 0.852209 -0.088547 0.000000 7.252620 -0.265439 0.000000 0.272715 -0.179738 0.000000 7.009531 0.124633 0.000000 0.902131 -0.037159 0.000000 7.125296 -0.318621 0.000000 0.166134 0.088967 0.000000 7.172343 0.258689 0.000000 0.857227 -0.020657 0.000000 7.052021 -0.214998 0.000000 0.429327 0.297782 0.000000 7.376664 0.122429 0.000000 0.677687 -0.040967 0.000000 7.041815 -0.150847 0.000000 0.716362 0.371328 0.000000 7.379106 -0.171996 0.000000 0.346857 0.056073 0.000000 7.094913 0.120618 0.000000 1.278241 0.318573 0.000000 7.128562 -0.331198 0.000000 0.687741 0.113182 0.000000 6.766332 -0.531797 0.000000 0.142863 0.448340 0.000000 6.760022 -0.289465 0.000000 0.101291 0.777327 0.000000 6.818426 -0.075647 0.000000 0.158333 1.040447 0.000000 6.853497 0.047884 0.000000 0.196590 1.305629 0.000000 6.876717 0.137299 0.000000 0.218702 1.617201 0.000000 6.902193 0.222731 0.000000 0.241296 2.007273 0.000000 