# vtk DataFile Version 2.0
Comment goes here
ASCII

DATASET STRUCTURED_POINTS
FIELD FieldData 1
TIME 1 1 double
0.08600000
DIMENSIONS    64   64   1

ORIGIN    0.000   0.000   0.000
SPACING   0.03125 0.03125   1.000

POINT_DATA   4096
VECTORS u double

0.845128 -17.432422 0.000000 -2.582439 0.090610 0.000000 1.476556 2.779547 0.000000 -3.746958 -3.198036 0.000000 0.785269 2.024130 0.000000 -4.954058 -1.378150 0.000000 0.685739 0.284518 0.000000 -5.044896 0.417341 0.000000 -0.295806 -1.923614 0.000000 -1.654147 0.635484 0.000000 0.886128 0.306537 0.000000 -1.874476 0.915589 0.000000 -0.027939 0.213645 0.000000 -1.447852 1.471411 0.000000 -1.441427 -0.765932 0.000000 -1.805071 0.708667 0.000000 -3.044571 0.061514 0.000000 -1.946465 3.213963 0.000000 -2.458375 2.538645 0.000000 -2.694861 1.852232 0.000000 -3.508467 1.518198 0.000000 -5.409608 2.729188 0.000000 -4.741163 1.166043 0.000000 -2.313149 2.586218 0.000000 -4.059929 2.740845 0.000000 -1.281179 0.962873 0.000000 -0.229415 0.395078 0.000000 0.707909 1.079915 0.000000 -0.024780 0.701654 0.000000 2.964839 0.482733 0.000000 -0.373886 2.436658 0.000000 4.436882 0.460300 0.000000 3.503654 -0.678769 0.000000 6.088745 1.065021 0.000000 0.377232 3.062910 0.000000 6.995312 1.480733 0.000000 2.455675 -1.139741 0.000000 2.912226 -0.862737 0.000000 1.512463 -0.728004 0.000000 2.781689 0.974372 0.000000 -0.519394 1.044608 0.000000 3.698266 -1.517083 0.000000 5.547012 -1.765443 0.000000 7.283969 -0.014459 0.000000 -0.142219 2.040393 0.000000 -1.103514 -0.224645 0.000000 -2.413113 -0.405232 0.000000 -0.333259 0.327108 0.000000 -5.122758 -0.488682 0.000000 -3.750364 -0.413243 0.000000 -4.039955 0.160895 0.000000 -3.376019 -1.063874 0.000000 -4.035635 -0.736455 0.000000 -2.426551 -0.524033 0.000000 -3.808952 0.921357 0.000000 -3.444666 -0.046365 0.000000 -3.186044 0.234908 0.000000 -4.053038 -0.972132 0.000000 -2.765775 0.567398 0.000000 -4.086905 -1.247884 0.000000 -2.448162 2.582421 0.000000 -4.659912 -3.731449 0.000000 -0.993057 3.732282 0.000000 -6.196501 0.706430 0.000000 
1.029816 -20.657730 0.000000 -3.206572 -2.069020 0.000000 4.003983 4.453066 0.000000 -4.338317 -1.828856 0.000000 3.315457 2.679417 0.000000 -3.301894 -0.679537 0.000000 0.511455 -0.521253 0.000000 -1.115939 1.324290 0.000000 -0.822870 -2.539213 0.000000 -1.904190 0.059874 0.000000 -0.824666 -1.434731 0.000000 1.592598 0.621586 0.000000 0.437733 -1.637794 0.000000 3.361184 1.205320 0.000000 1.380615 -0.844859 0.000000 2.542378 -0.354308 0.000000 0.987966 -2.273704 0.000000 4.178915 -0.254180 0.000000 4.590968 -0.822825 0.000000 6.289451 -0.692165 0.000000 5.635795 0.403964 0.000000 5.592033 -0.883771 0.000000 5.380923 -3.906281 0.000000 3.441207 -1.884358 0.000000 6.238876 -3.082026 0.000000 5.163755 -4.568438 0.000000 4.911760 -3.196950 0.000000 1.762850 -2.136948 0.000000 2.419051 -2.299207 0.000000 0.505170 0.596927 0.000000 0.031979 -0.784139 0.000000 1.553866 -2.454398 0.000000 -2.531433 -1.066151 0.000000 -0.822951 1.308539 0.000000 -1.342790 0.272335 0.000000 0.621549 -0.288576 0.000000 -1.707842 2.943387 0.000000 -3.234436 0.918624 0.000000 -3.455686 -0.068028 0.000000 -6.085965 0.446416 0.000000 -1.379218 -0.732955 0.000000 -1.043164 -2.232859 0.000000 -2.456554 -0.529211 0.000000 -5.133026 2.712431 0.000000 -2.890796 4.260011 0.000000 -2.420276 1.519325 0.000000 -5.417160 -0.248496 0.000000 -3.792895 0.556414 0.000000 -2.719861 1.682004 0.000000 -4.381367 -0.392616 0.000000 -3.955463 -0.151670 0.000000 -3.255865 0.225614 0.000000 -4.818346 -0.149578 0.000000 -3.754879 -0.793565 0.000000 -4.210516 0.903897 0.000000 -2.400081 -0.519455 0.000000 -3.326877 0.651334 0.000000 -2.195859 -0.803676 0.000000 -3.427242 0.850812 0.000000 -2.051652 -0.925299 0.000000 -3.641267 2.680107 0.000000 -0.801752 -3.396432 0.000000 -5.173153 4.637311 0.000000 1.468826 -3.398913 0.000000 
8.656689 -12.757024 0.000000 -0.081904 -2.883558 0.000000 7.551883 3.911292 0.000000 2.846516 -2.509510 0.000000 6.137879 0.987707 0.000000 4.876306 1.425852 0.000000 4.762577 -1.901436 0.000000 4.824611 1.751667 0.000000 4.307020 -1.135363 0.000000 2.174749 0.637280 0.000000 2.475396 -3.190252 0.000000 1.146490 -0.346810 0.000000 1.189490 -1.554940 0.000000 -1.406048 0.528529 0.000000 -0.335774 0.052874 0.000000 -4.311016 1.101316 0.000000 -4.075546 -1.575023 0.000000 -8.296714 -0.389039 0.000000 -6.732089 0.428109 0.000000 -11.560822 0.807404 0.000000 -9.331381 2.215616 0.000000 -12.268406 2.984061 0.000000 -10.066270 3.316870 0.000000 -14.250104 1.728266 0.000000 -7.543852 1.018296 0.000000 -11.658629 2.289989 0.000000 -6.836903 3.795984 0.000000 -10.667306 3.572623 0.000000 -5.506538 1.959334 0.000000 -9.031381 2.869805 0.000000 -2.140380 1.387962 0.000000 -6.847318 3.023713 0.000000 -3.053989 1.698049 0.000000 -5.749269 -0.123622 0.000000 1.062167 1.618409 0.000000 -4.036252 1.845785 0.000000 2.123310 2.716244 0.000000 -0.473341 0.885107 0.000000 4.620507 2.123525 0.000000 -0.131927 -1.102096 0.000000 6.923793 -3.998192 0.000000 2.278804 -0.439747 0.000000 6.049748 2.324419 0.000000 1.428617 0.419784 0.000000 8.892348 -0.672357 0.000000 6.094734 2.301719 0.000000 9.284308 0.967387 0.000000 5.222271 -2.370190 0.000000 10.953696 0.099790 0.000000 6.887568 0.822359 0.000000 10.350864 -0.964607 0.000000 7.244503 -0.200991 0.000000 11.166177 -0.237441 0.000000 7.517692 -1.131864 0.000000 11.346990 -0.433441 0.000000 8.673324 -0.930004 0.000000 11.633758 0.030686 0.000000 9.070193 -0.871766 0.000000 11.451245 0.423190 0.000000 9.206062 -1.033860 0.000000 11.215980 1.332521 0.000000 10.745969 -2.199562 0.000000 9.139102 1.461703 0.000000 15.066546 -5.496539 0.000000 
13.738215 -5.509280 0.000000 6.062051 -0.964215 0.000000 11.617303 1.524646 0.000000 8.813600 -0.414852 0.000000 8.859730 0.649626 0.000000 9.571692 0.695765 0.000000 10.265692 -0.469558 0.000000 7.747676 1.779848 0.000000 10.484197 0.110649 0.000000 6.283978 1.891497 0.000000 9.163906 -0.406472 0.000000 2.618458 1.907493 0.000000 6.348627 0.914744 0.000000 -0.715774 2.730584 0.000000 3.168883 2.060109 0.000000 -4.175628 3.385464 0.000000 -0.949914 1.711994 0.000000 -10.596301 2.402364 0.000000 -7.706316 2.441284 0.000000 -16.782444 1.907126 0.000000 -14.026949 1.111547 0.000000 -21.607030 -0.148882 0.000000 -16.546220 -1.924583 0.000000 -23.742771 -4.406776 0.000000 -18.150904 -5.673501 0.000000 -25.207055 -5.275387 0.000000 -16.578884 -4.188274 0.000000 -20.950685 -3.467314 0.000000 -12.394935 -3.935132 0.000000 -17.586054 -2.769231 0.000000 -8.626676 -2.968202 0.000000 -14.290696 -1.540789 0.000000 -3.669081 -2.164200 0.000000 -9.766685 -2.807617 0.000000 -0.385225 -1.440682 0.000000 -4.989924 -1.349718 0.000000 5.037313 -0.619524 0.000000 0.454394 -1.578573 0.000000 9.369506 -0.409442 0.000000 5.356453 -1.856870 0.000000 11.560928 -3.143686 0.000000 4.816059 -1.358814 0.000000 13.556780 0.320976 0.000000 8.705583 -0.130168 0.000000 15.274877 -0.406107 0.000000 9.391046 1.127365 0.000000 18.009251 0.623967 0.000000 11.021029 -1.112974 0.000000 16.800491 0.016707 0.000000 11.825525 0.210216 0.000000 18.256087 -0.508604 0.000000 11.962420 -0.589698 0.000000 19.117669 -0.422767 0.000000 12.878645 -0.974379 0.000000 19.313287 -0.251735 0.000000 13.346699 -0.806223 0.000000 19.410674 0.254464 0.000000 13.688156 -0.621162 0.000000 19.222759 0.714943 0.000000 13.873945 -0.690034 0.000000 18.776786 1.140200 0.000000 14.641652 -1.319554 0.000000 17.540533 0.316734 0.000000 16.112730 -2.916500 0.000000 
13.982306 -2.706344 0.000000 8.506267 -0.762645 0.000000 12.046344 1.159743 0.000000 8.262108 0.248063 0.000000 9.496055 0.229614 0.000000 8.632905 0.019890 0.000000 9.712835 -0.077420 0.000000 6.628389 1.533162 0.000000 9.210684 0.328335 0.000000 4.600875 1.957571 0.000000 7.589175 0.475268 0.000000 1.231650 2.468469 0.000000 4.677165 1.779293 0.000000 -2.457331 3.708273 0.000000 0.785860 3.512728 0.000000 -7.076493 5.220113 0.000000 -4.462083 4.845650 0.000000 -14.044803 6.367364 0.000000 -12.012005 6.614252 0.000000 -21.675732 7.128037 0.000000 -19.411517 7.040201 0.000000 -27.402784 5.503332 0.000000 -20.790538 5.452612 0.000000 -26.448795 3.332949 0.000000 -17.797414 2.482580 0.000000 -22.632564 0.717969 0.000000 -12.439604 -0.460386 0.000000 -16.804214 -0.611325 0.000000 -7.662264 -1.405298 0.000000 -13.407486 -0.898454 0.000000 -4.791547 -1.907396 0.000000 -10.650046 -1.933882 0.000000 -0.832913 -2.825961 0.000000 -6.936988 -3.407478 0.000000 2.349115 -3.158352 0.000000 -2.533953 -3.576753 0.000000 6.927788 -2.728074 0.000000 1.776766 -3.447085 0.000000 10.573590 -2.778534 0.000000 5.817324 -3.293518 0.000000 12.905958 -3.457799 0.000000 6.592328 -2.435600 0.000000 14.698795 -1.565105 0.000000 9.127358 -1.298313 0.000000 16.138918 -1.357820 0.000000 10.172177 -0.432655 0.000000 17.896852 -0.662596 0.000000 11.328975 -1.161430 0.000000 17.489822 -0.704706 0.000000 11.898623 -0.633238 0.000000 18.327458 -1.101502 0.000000 12.229653 -1.062573 0.000000 19.124070 -1.153666 0.000000 13.172414 -1.327482 0.000000 19.647752 -0.901495 0.000000 13.833805 -1.027391 0.000000 19.731687 -0.310771 0.000000 14.131397 -0.683851 0.000000 19.345278 0.237401 0.000000 14.157009 -0.587886 0.000000 18.514548 0.564814 0.000000 14.237276 -0.963310 0.000000 17.008132 -0.009375 0.000000 13.809822 -1.694221 0.000000 
14.825346 -0.205725 0.000000 9.836634 0.971748 0.000000 12.798161 1.768806 0.000000 9.317902 2.135436 0.000000 10.473359 0.278829 0.000000 9.400168 0.478986 0.000000 10.698106 1.534958 0.000000 7.852784 2.281998 0.000000 10.634615 2.138163 0.000000 6.201601 3.513007 0.000000 9.693178 2.962753 0.000000 3.787948 4.819503 0.000000 7.765865 4.603726 0.000000 0.917781 6.621889 0.000000 4.865355 6.679271 0.000000 -2.918455 8.633406 0.000000 0.347349 8.680304 0.000000 -8.835006 9.952286 0.000000 -6.806336 10.072212 0.000000 -15.975371 9.306638 0.000000 -15.255791 6.838599 0.000000 -23.134522 1.230139 0.000000 -18.264576 -2.878572 0.000000 -26.744083 -7.399900 0.000000 -20.327567 -9.489732 0.000000 -28.055383 -10.633197 0.000000 -17.520472 -10.016624 0.000000 -21.858735 -8.244655 0.000000 -12.545051 -7.331860 0.000000 -18.092253 -5.639947 0.000000 -9.440746 -5.725642 0.000000 -15.114749 -5.499424 0.000000 -5.069659 -5.877257 0.000000 -10.120963 -5.989645 0.000000 -0.427725 -5.843718 0.000000 -4.459995 -5.928392 0.000000 5.203150 -4.930242 0.000000 0.424879 -5.224375 0.000000 9.618566 -4.450001 0.000000 4.758234 -4.189238 0.000000 12.446944 -3.918690 0.000000 6.811393 -3.151652 0.000000 14.768232 -2.214054 0.000000 8.963862 -1.570290 0.000000 16.170623 -1.450927 0.000000 10.254999 -0.630569 0.000000 17.347787 -0.532830 0.000000 11.017858 -0.705944 0.000000 17.365239 -0.552941 0.000000 11.603141 -0.627420 0.000000 17.867067 -0.839635 0.000000 11.987620 -1.386311 0.000000 18.906218 -1.365528 0.000000 13.181773 -1.498061 0.000000 19.670782 -0.913125 0.000000 13.950063 -0.890158 0.000000 19.826413 -0.043128 0.000000 14.193794 -0.234753 0.000000 19.425979 0.689331 0.000000 14.098683 0.140696 0.000000 18.569034 1.059933 0.000000 13.854035 0.186863 0.000000 17.124150 0.744187 0.000000 13.050190 0.109326 0.000000 
15.126988 0.507213 0.000000 10.275119 1.264540 0.000000 13.251282 1.678475 0.000000 9.156926 2.572864 0.000000 11.096220 0.147349 0.000000 9.106035 -0.204857 0.000000 10.656155 1.469964 0.000000 7.327689 1.596652 0.000000 9.987451 1.979519 0.000000 5.337813 2.899008 0.000000 8.693059 2.888921 0.000000 2.789509 4.395782 0.000000 6.406374 4.649459 0.000000 -0.416704 6.608783 0.000000 2.741686 7.348964 0.000000 -5.025831 9.738119 0.000000 -3.215004 10.762201 0.000000 -12.470907 13.521048 0.000000 -13.293205 13.754618 0.000000 -25.503385 15.577492 0.000000 -28.171851 14.199352 0.000000 -37.144599 8.512116 0.000000 -28.892213 9.062173 0.000000 -33.854898 5.395941 0.000000 -21.183514 3.793879 0.000000 -23.833676 -2.089126 0.000000 -10.087024 -6.657034 0.000000 -14.037399 -5.586747 0.000000 -5.070774 -5.171779 0.000000 -11.717490 -4.002760 0.000000 -4.636211 -4.884901 0.000000 -10.812346 -6.304969 0.000000 -1.349085 -7.819747 0.000000 -6.938593 -8.049413 0.000000 2.397407 -8.819320 0.000000 -1.601440 -9.207628 0.000000 7.614971 -7.612947 0.000000 2.237969 -7.862502 0.000000 11.595775 -7.111890 0.000000 6.359987 -6.121895 0.000000 13.948978 -5.510957 0.000000 8.297616 -4.756888 0.000000 16.276846 -3.717574 0.000000 9.880868 -2.700703 0.000000 17.093574 -2.648957 0.000000 11.118765 -1.609820 0.000000 17.810861 -1.425455 0.000000 11.304649 -1.178882 0.000000 17.579852 -1.289989 0.000000 11.645462 -1.135066 0.000000 17.571907 -1.485981 0.000000 11.682673 -2.101723 0.000000 19.030883 -2.347819 0.000000 13.597973 -2.092047 0.000000 20.284599 -1.669785 0.000000 14.653275 -1.183022 0.000000 20.429479 -0.554502 0.000000 14.773798 -0.283418 0.000000 19.791756 0.332512 0.000000 14.395545 0.269060 0.000000 18.674212 0.809461 0.000000 13.748965 0.481573 0.000000 17.132678 0.794470 0.000000 12.567800 0.604584 0.000000 
15.721493 2.086956 0.000000 10.921989 2.847453 0.000000 13.950969 2.886999 0.000000 9.998193 4.290498 0.000000 12.025540 0.329720 0.000000 9.907265 0.919051 0.000000 11.784250 3.313304 0.000000 8.568954 2.950702 0.000000 11.505706 4.128038 0.000000 7.107886 4.807399 0.000000 10.947625 5.511057 0.000000 5.450270 7.106188 0.000000 9.873160 7.809938 0.000000 3.515838 10.286577 0.000000 7.919671 11.288398 0.000000 0.507499 14.590097 0.000000 3.911730 16.125381 0.000000 -6.055575 20.030487 0.000000 -5.540081 23.104690 0.000000 -13.712430 24.185285 0.000000 -21.031138 18.479813 0.000000 -29.490933 1.950502 0.000000 -20.381570 -6.168272 0.000000 -31.495900 -15.108600 0.000000 -26.358861 -19.510954 0.000000 -37.949936 -21.729686 0.000000 -20.447958 -19.812901 0.000000 -20.401934 -13.260905 0.000000 -11.007916 -9.651769 0.000000 -17.783174 -6.074510 0.000000 -11.746240 -6.630786 0.000000 -18.038639 -8.786550 0.000000 -6.834772 -9.751011 0.000000 -11.092931 -9.736136 0.000000 -1.541365 -11.180871 0.000000 -3.242764 -11.145956 0.000000 6.492848 -8.769651 0.000000 0.914975 -9.205179 0.000000 11.349948 -8.572019 0.000000 6.354072 -6.542441 0.000000 13.821718 -5.856318 0.000000 8.587712 -5.479519 0.000000 16.813158 -3.797306 0.000000 10.018553 -2.387019 0.000000 17.289533 -2.688824 0.000000 11.474762 -1.347856 0.000000 17.753838 -0.718715 0.000000 11.165230 -0.474935 0.000000 17.400729 -0.893754 0.000000 11.439622 -0.619476 0.000000 16.906861 -0.876845 0.000000 11.096600 -2.845287 0.000000 18.963955 -3.280828 0.000000 13.808348 -2.751776 0.000000 20.625435 -1.968427 0.000000 14.986499 -1.035037 0.000000 20.785329 -0.163651 0.000000 14.971347 0.402969 0.000000 20.074912 1.067584 0.000000 14.434274 1.258240 0.000000 18.932843 1.706513 0.000000 13.662875 1.728397 0.000000 17.473993 1.925352 0.000000 12.558155 2.115016 0.000000 
16.086304 2.143379 0.000000 11.053173 3.035064 0.000000 14.436813 2.602270 0.000000 10.002033 4.498294 0.000000 12.635374 0.238277 0.000000 9.860416 0.036433 0.000000 12.122056 2.808274 0.000000 8.462566 1.875196 0.000000 11.534651 3.440587 0.000000 6.862826 3.457089 0.000000 10.769192 4.546537 0.000000 5.041381 5.470247 0.000000 9.493011 6.583892 0.000000 2.937275 8.562272 0.000000 7.023479 10.357303 0.000000 0.011170 13.746060 0.000000 2.069265 17.325274 0.000000 -4.762061 22.972860 0.000000 -5.965800 21.411473 0.000000 -25.218624 31.068549 0.000000 -55.890348 29.977855 0.000000 -53.612577 7.862548 0.000000 -40.061515 11.067140 0.000000 -41.710051 11.373233 0.000000 -24.676073 10.247916 0.000000 -24.341199 -8.000030 0.000000 -1.280715 -24.205037 0.000000 -3.003966 -15.026788 0.000000 2.271365 -7.790539 0.000000 -8.192115 -3.264436 0.000000 -7.130511 -4.629435 0.000000 -14.192942 -11.216437 0.000000 -2.474490 -14.765455 0.000000 -8.272322 -13.342819 0.000000 1.019978 -16.669487 0.000000 0.789223 -17.241841 0.000000 9.472639 -11.770686 0.000000 2.393763 -12.719602 0.000000 14.273892 -12.550986 0.000000 9.103741 -8.593665 0.000000 15.007176 -7.744598 0.000000 10.319298 -7.748328 0.000000 19.366607 -5.148414 0.000000 10.989778 -3.177078 0.000000 18.166431 -4.105166 0.000000 13.071687 -2.074125 0.000000 18.665830 -1.115924 0.000000 11.165326 -0.825773 0.000000 17.460103 -1.564381 0.000000 11.711681 -0.641199 0.000000 15.331241 -1.142958 0.000000 9.242969 -4.158817 0.000000 19.169218 -5.059567 0.000000 14.862981 -3.753527 0.000000 22.021665 -2.847937 0.000000 16.351517 -1.342916 0.000000 21.907515 -0.539350 0.000000 15.858605 0.427000 0.000000 20.736431 0.869585 0.000000 14.860791 1.411129 0.000000 19.292604 1.580860 0.000000 13.758147 1.940423 0.000000 17.738291 1.899189 0.000000 12.500645 2.357084 0.000000 
16.552679 3.534428 0.000000 11.450834 4.496943 0.000000 15.012935 3.938139 0.000000 10.619473 6.091937 0.000000 13.420479 0.471337 0.000000 10.472555 1.432369 0.000000 13.113236 4.711154 0.000000 9.482374 3.538107 0.000000 12.883654 5.727778 0.000000 8.455499 5.572858 0.000000 12.785402 7.332502 0.000000 7.502046 8.382369 0.000000 12.874768 9.914045 0.000000 6.913235 12.756109 0.000000 13.137332 14.214502 0.000000 6.936402 19.544311 0.000000 13.736655 20.898612 0.000000 2.396325 28.065552 0.000000 -3.179917 43.561253 0.000000 -32.890804 74.109832 0.000000 -40.306647 46.873765 0.000000 -15.077606 -13.878331 0.000000 21.620909 -18.070797 0.000000 30.126851 -30.494042 0.000000 2.198513 -36.879806 0.000000 -35.769618 -45.125044 0.000000 -15.585906 -41.150135 0.000000 -2.320319 -16.812985 0.000000 0.349990 -4.463620 0.000000 -14.265735 3.327366 0.000000 -18.891915 -0.629959 0.000000 -27.502192 -13.442571 0.000000 -9.048534 -15.671631 0.000000 -12.614103 -13.230604 0.000000 -4.913555 -20.242416 0.000000 1.739368 -19.598618 0.000000 10.863694 -10.374190 0.000000 -0.013298 -14.006432 0.000000 15.572465 -15.281996 0.000000 11.220424 -7.275726 0.000000 14.685495 -7.071876 0.000000 11.069029 -9.838950 0.000000 21.318258 -4.467786 0.000000 11.101881 -1.186843 0.000000 18.457268 -4.770732 0.000000 14.401268 -1.847256 0.000000 18.948112 1.187646 0.000000 10.715508 0.730792 0.000000 17.571117 -1.440108 0.000000 12.041419 1.509387 0.000000 13.434420 1.591867 0.000000 7.003314 -6.683264 0.000000 19.458908 -8.900840 0.000000 15.916740 -5.604224 0.000000 23.061247 -3.456963 0.000000 17.162863 -0.920887 0.000000 22.598375 0.329261 0.000000 16.219941 1.574053 0.000000 21.159299 2.065398 0.000000 14.971081 2.702068 0.000000 19.619475 2.809157 0.000000 13.784971 3.282710 0.000000 18.092882 3.182854 0.000000 12.614478 3.767003 0.000000 
16.925618 3.307023 0.000000 11.594967 4.574807 0.000000 15.496527 3.433632 0.000000 10.787812 6.090750 0.000000 14.052133 0.385195 0.000000 10.627494 0.343676 0.000000 13.721493 3.798455 0.000000 9.748720 2.104778 0.000000 13.483325 4.467462 0.000000 8.840341 3.555341 0.000000 13.470286 5.499989 0.000000 7.903325 5.380881 0.000000 13.798475 7.172703 0.000000 7.108350 8.299708 0.000000 13.989997 10.334136 0.000000 7.832805 13.146737 0.000000 11.442086 21.865351 0.000000 4.116564 39.889432 0.000000 27.205572 56.698601 0.000000 15.491538 68.195279 0.000000 22.613666 12.164658 0.000000 31.980698 -54.065008 0.000000 74.205686 -34.137317 0.000000 127.686185 30.795629 0.000000 179.749290 76.144385 0.000000 189.901272 9.784389 0.000000 144.793822 -57.654336 0.000000 74.056244 -30.962684 0.000000 29.586986 4.154876 0.000000 -0.567118 15.977469 0.000000 -11.379794 8.607022 0.000000 -19.784884 -21.059818 0.000000 -1.106259 -29.653544 0.000000 -8.339724 -17.477798 0.000000 0.859847 -31.022959 0.000000 11.383050 -33.019090 0.000000 15.082905 -10.018021 0.000000 -0.694774 -17.428372 0.000000 21.959473 -23.784708 0.000000 17.490306 -7.706695 0.000000 12.715251 -7.593202 0.000000 13.031921 -14.381092 0.000000 27.846758 -5.181266 0.000000 11.086511 -0.316087 0.000000 17.651432 -7.404553 0.000000 18.607701 -2.564969 0.000000 21.309382 2.569837 0.000000 8.664960 0.551222 0.000000 18.311159 -2.890291 0.000000 14.767090 3.495498 0.000000 7.397315 3.895147 0.000000 -1.158679 -10.183305 0.000000 20.621174 -13.972993 0.000000 20.099999 -7.355865 0.000000 26.634426 -4.094060 0.000000 19.917646 -0.880044 0.000000 24.432298 0.403572 0.000000 17.416691 1.866075 0.000000 21.977166 2.118445 0.000000 15.432629 2.950953 0.000000 20.030657 2.766970 0.000000 13.938023 3.467016 0.000000 18.405920 3.069682 0.000000 12.685114 3.897286 0.000000 
17.256811 4.624576 0.000000 11.784939 5.926035 0.000000 15.921104 4.745294 0.000000 11.101970 7.536331 0.000000 14.643038 0.631655 0.000000 10.937039 1.763010 0.000000 14.408615 5.589929 0.000000 10.300544 3.776275 0.000000 14.334752 6.636157 0.000000 9.833055 5.585896 0.000000 14.598269 8.269518 0.000000 9.752239 8.054179 0.000000 15.644125 10.709020 0.000000 10.511677 12.564587 0.000000 18.934285 13.490047 0.000000 15.465751 22.092222 0.000000 20.746821 24.614853 0.000000 54.163432 12.302066 0.000000 77.492399 32.186279 0.000000 39.404104 78.701738 0.000000 80.211815 30.384606 0.000000 89.672035 -65.470351 0.000000 120.569184 -113.776285 0.000000 170.119211 -136.037646 0.000000 271.242046 -99.094893 0.000000 322.384824 -10.169576 0.000000 260.781005 74.694894 0.000000 135.948941 98.393851 0.000000 55.573289 70.159742 0.000000 27.908345 44.294145 0.000000 34.287820 18.587806 0.000000 20.208242 -23.716106 0.000000 31.805403 -27.116791 0.000000 33.325722 -15.196710 0.000000 37.065394 -39.965190 0.000000 39.196217 -33.821676 0.000000 37.526924 1.703633 0.000000 21.164275 -20.883000 0.000000 40.431365 -33.467076 0.000000 28.891045 1.968497 0.000000 18.728297 -2.613492 0.000000 24.365233 -24.970457 0.000000 34.998991 -2.522375 0.000000 10.834456 9.008482 0.000000 21.658400 -12.291923 0.000000 25.512228 -5.505205 0.000000 20.843844 11.130386 0.000000 6.348907 3.729015 0.000000 21.927981 -7.542238 0.000000 18.489282 12.423231 0.000000 -1.779780 17.517635 0.000000 -1.269652 -19.907124 0.000000 26.786072 -30.159517 0.000000 25.736163 -11.617476 0.000000 29.500015 -3.274611 0.000000 21.351950 1.281241 0.000000 25.351174 2.830216 0.000000 17.727560 4.029185 0.000000 22.365930 4.049460 0.000000 15.467885 4.648577 0.000000 20.290439 4.303763 0.000000 13.923546 4.907447 0.000000 18.671783 4.435762 0.000000 12.731661 5.247305 0.000000 
17.571638 4.253744 0.000000 11.965217 5.910515 0.000000 16.396192 4.116601 0.000000 11.387283 7.368817 0.000000 15.316381 0.550126 0.000000 11.235856 0.578099 0.000000 15.262831 4.434950 0.000000 10.822594 2.178641 0.000000 15.416631 4.934951 0.000000 10.741027 3.291824 0.000000 15.966144 5.580804 0.000000 11.321940 4.335024 0.000000 17.532914 6.413265 0.000000 12.477915 5.009548 0.000000 23.189319 5.380062 0.000000 12.604063 11.334202 0.000000 40.499392 -16.832330 0.000000 27.247771 -16.856146 0.000000 28.534289 71.457929 0.000000 53.215797 65.475863 0.000000 138.992801 -38.103273 0.000000 98.363366 -94.422377 0.000000 75.094586 -114.584493 0.000000 62.655643 -119.877234 0.000000 96.390027 -76.121229 0.000000 118.165315 20.245431 0.000000 126.378771 128.781547 0.000000 135.385794 174.245032 0.000000 223.772234 112.195472 0.000000 270.138949 37.262937 0.000000 289.570111 16.307125 0.000000 308.422706 -18.577401 0.000000 288.814783 -42.771024 0.000000 237.874261 -22.737789 0.000000 236.939215 -36.893454 0.000000 196.064924 -33.480620 0.000000 153.487758 8.013922 0.000000 162.183942 -20.332813 0.000000 150.489895 -31.511479 0.000000 103.133574 13.996373 0.000000 111.401820 -3.067391 0.000000 111.273276 -30.651786 0.000000 81.826045 8.349511 0.000000 68.440124 13.024503 0.000000 87.974859 -22.082325 0.000000 64.859188 -1.750413 0.000000 54.249835 21.733158 0.000000 55.421372 -0.532915 0.000000 71.594708 -15.030667 0.000000 43.009180 27.203260 0.000000 48.585097 23.654081 0.000000 75.657933 -38.749158 0.000000 76.028885 -40.978808 0.000000 48.829441 -10.069808 0.000000 39.691465 0.290153 0.000000 25.886926 3.268797 0.000000 27.378994 4.027963 0.000000 18.599928 4.851319 0.000000 22.787588 4.378120 0.000000 15.583998 5.026445 0.000000 20.438559 4.311309 0.000000 13.922180 5.085672 0.000000 18.859129 4.261568 0.000000 12.787558 5.312258 0.000000 
17.742401 5.446917 0.000000 11.923819 7.101481 0.000000 16.653765 5.323228 0.000000 11.378737 8.616141 0.000000 15.693601 0.783082 0.000000 11.222143 1.816561 0.000000 15.536143 6.003191 0.000000 10.804070 3.622475 0.000000 15.516343 6.717724 0.000000 10.611464 5.036383 0.000000 15.626601 7.688604 0.000000 10.864086 6.487409 0.000000 15.814781 9.553045 0.000000 11.559775 6.908182 0.000000 15.928909 13.363899 0.000000 10.763325 4.782149 0.000000 19.772541 9.971145 0.000000 -12.725869 24.267169 0.000000 8.331398 6.218252 0.000000 22.628985 -31.756775 0.000000 23.897801 -14.762962 0.000000 39.127017 -1.572135 0.000000 45.331701 -78.068562 0.000000 -3.269976 -157.333087 0.000000 -23.587749 -154.604565 0.000000 -0.714879 -40.158319 0.000000 67.167856 57.474414 0.000000 160.918111 1.000388 0.000000 256.782554 -64.593413 0.000000 280.179114 -21.503732 0.000000 314.051107 -19.695950 0.000000 324.017512 -22.960778 0.000000 283.539678 43.431654 0.000000 249.733067 36.678859 0.000000 256.031125 1.844148 0.000000 190.450502 49.629781 0.000000 172.690367 35.584615 0.000000 192.275549 -17.885137 0.000000 151.329604 25.583292 0.000000 117.102892 41.056572 0.000000 148.340270 -10.753193 0.000000 124.326285 4.605318 0.000000 89.984902 40.310776 0.000000 102.972318 2.859669 0.000000 111.515276 -8.710986 0.000000 71.966854 28.219819 0.000000 80.819133 20.568202 0.000000 91.520318 -13.615859 0.000000 92.684666 4.869955 0.000000 57.727991 35.432843 0.000000 108.241983 -15.131119 0.000000 122.310769 -47.350912 0.000000 85.635825 -3.331024 0.000000 46.810260 24.719944 0.000000 39.772675 19.667903 0.000000 25.248678 13.593712 0.000000 27.339644 10.117215 0.000000 18.346376 8.620591 0.000000 22.764882 7.065389 0.000000 15.390720 6.997606 0.000000 20.469211 5.965581 0.000000 13.758567 6.486877 0.000000 18.957214 5.570385 0.000000 12.677649 6.534795 0.000000 
17.970234 5.007574 0.000000 12.124968 6.999151 0.000000 17.110242 4.661684 0.000000 11.784463 8.328980 0.000000 16.404043 0.706719 0.000000 11.667395 0.735557 0.000000 16.494838 4.853023 0.000000 11.547559 2.198442 0.000000 16.857253 5.127558 0.000000 11.653588 3.181566 0.000000 17.637988 5.328182 0.000000 12.219442 4.146844 0.000000 18.999228 5.717577 0.000000 14.164231 4.895421 0.000000 20.281915 6.176511 0.000000 20.428164 7.490570 0.000000 19.036091 6.656865 0.000000 29.036693 -5.415004 0.000000 35.604741 36.103075 0.000000 34.916055 49.909460 0.000000 40.864168 -54.601305 0.000000 22.363775 -115.856276 0.000000 18.307543 -72.187500 0.000000 1.367637 -50.957784 0.000000 -41.314849 -78.676326 0.000000 -66.652588 -70.510174 0.000000 -16.607690 -32.851443 0.000000 29.356162 -15.369666 0.000000 27.079289 -7.065531 0.000000 11.287744 -20.005617 0.000000 35.165918 -27.531273 0.000000 15.399547 11.934028 0.000000 21.797768 31.513422 0.000000 43.000172 4.770763 0.000000 43.622110 22.389111 0.000000 27.103541 49.860139 0.000000 60.214558 6.188874 0.000000 44.892792 1.027951 0.000000 31.623862 43.661178 0.000000 44.112085 16.985706 0.000000 55.711619 -10.290784 0.000000 27.946668 27.703582 0.000000 40.503338 29.703478 0.000000 48.287973 -8.505870 0.000000 40.227614 8.923139 0.000000 28.068736 28.945730 0.000000 51.104784 2.179693 0.000000 44.357531 -12.398448 0.000000 37.405430 18.761661 0.000000 38.646330 11.645943 0.000000 67.662780 -40.928698 0.000000 37.969649 -16.142999 0.000000 19.417692 34.521701 0.000000 12.264243 35.793342 0.000000 22.750001 21.851735 0.000000 16.063780 15.701828 0.000000 22.590456 10.930265 0.000000 15.471235 9.426081 0.000000 21.245965 7.333776 0.000000 14.370861 7.322115 0.000000 19.989452 5.943463 0.000000 13.404247 6.597669 0.000000 18.917523 5.342486 0.000000 12.648174 6.527071 0.000000 
17.990229 5.970124 0.000000 11.855937 7.961473 0.000000 17.204976 5.663732 0.000000 11.478125 9.322341 0.000000 16.574519 0.900150 0.000000 11.350739 1.725766 0.000000 16.462569 6.123027 0.000000 11.086408 3.260059 0.000000 16.539789 6.611696 0.000000 10.864200 4.255649 0.000000 16.867648 7.122750 0.000000 10.573610 5.126168 0.000000 17.538455 7.608256 0.000000 10.231457 5.625495 0.000000 18.440276 7.099966 0.000000 9.959249 6.027973 0.000000 21.771834 1.362616 0.000000 9.783453 7.698519 0.000000 16.022225 0.338890 0.000000 38.431462 -37.016201 0.000000 65.047451 -2.210682 0.000000 14.825665 20.984490 0.000000 -4.260395 -57.072424 0.000000 -15.834865 -97.710695 0.000000 -20.501967 -86.584340 0.000000 -48.094498 -64.865479 0.000000 -44.305107 -38.534335 0.000000 -45.342484 -42.686591 0.000000 -30.315227 -46.524995 0.000000 -31.356318 -29.590361 0.000000 -31.166244 -23.807753 0.000000 -42.970379 -9.592629 0.000000 -16.937888 15.831028 0.000000 -17.960007 14.854517 0.000000 -17.105108 17.740779 0.000000 -6.755207 33.037333 0.000000 12.470651 17.795364 0.000000 -11.143843 10.705559 0.000000 3.955513 26.363999 0.000000 13.755884 16.968815 0.000000 8.102410 5.412223 0.000000 -4.005703 19.813599 0.000000 21.761113 19.969472 0.000000 11.315960 3.135393 0.000000 7.121587 11.508251 0.000000 10.864085 17.342649 0.000000 24.195614 4.279407 0.000000 6.890157 0.083495 0.000000 8.843294 10.581156 0.000000 19.350028 5.175493 0.000000 13.499184 -14.454438 0.000000 -17.241666 0.894176 0.000000 -3.502769 22.374382 0.000000 4.403989 21.387635 0.000000 17.340994 15.868365 0.000000 13.137665 13.753257 0.000000 20.785913 10.709760 0.000000 14.218872 9.965081 0.000000 20.607681 8.165763 0.000000 13.751920 8.254120 0.000000 19.761631 6.932195 0.000000 13.020293 7.558806 0.000000 18.851904 6.326458 0.000000 12.352998 7.482084 0.000000 