# vtk DataFile Version 2.0
Comment goes here
ASCII

DATASET STRUCTURED_POINTS
FIELD FieldData 1
TIME 1 1 double
0.07600000
DIMENSIONS    64   64   1

ORIGIN    0.000   0.000   0.000
SPACING   0.03125 0.03125   1.000

POINT_DATA   4096
SCALARS Omega double
LOOKUP_TABLE default

-3.903223e-02 -1.958079e-01 1.402154e-02 -4.471396e-01 -8.016640e-03 2.617567e-02 5.130501e-02 -2.020121e-01 3.379018e-02 -1.623952e-01 4.923582e-02 -1.103918e-01 8.931667e-02 -4.754215e-02 1.420302e-01 1.081164e-02 1.873642e-01 5.848776e-02 2.640171e-01 9.185638e-02 2.950010e-01 1.261083e-01 3.123459e-01 1.614946e-01 3.303049e-01 1.758841e-01 3.240722e-01 1.898506e-01 3.186642e-01 2.168459e-01 3.011316e-01 2.504062e-01 2.734751e-01 2.619262e-01 2.682823e-01 2.763878e-01 2.473025e-01 2.879442e-01 2.326664e-01 2.968066e-01 2.162970e-01 2.980090e-01 1.971781e-01 2.917871e-01 1.687228e-01 2.776210e-01 1.428212e-01 2.613420e-01 9.284219e-02 2.085106e-01 7.214641e-02 1.718892e-01 2.334600e-02 1.275120e-01 -2.963013e-02 9.823531e-02 -8.113255e-02 7.316460e-02 -1.097015e-01 3.434436e-02 -1.181553e-01 -8.692071e-03 -1.332490e-01 -1.281687e-02 
-2.377262e+01 -3.678059e+01 -2.052119e+01 -3.728237e+01 -2.129888e+01 -3.751049e+01 -2.338277e+01 -3.665791e+01 -2.916789e+01 -3.529281e+01 -3.404086e+01 -3.277262e+01 -3.855614e+01 -2.953438e+01 -4.337632e+01 -2.523624e+01 -4.913990e+01 -1.962216e+01 -5.595038e+01 -1.287388e+01 -6.350681e+01 -5.641360e+00 -7.108428e+01 1.193291e+00 -7.775085e+01 6.895463e+00 -8.312708e+01 1.135725e+01 -8.757353e+01 1.511709e+01 -9.137922e+01 1.818917e+01 -9.440296e+01 2.053785e+01 -9.675877e+01 2.217857e+01 -9.842126e+01 2.314621e+01 -9.920454e+01 2.299653e+01 -9.850329e+01 2.141737e+01 -9.651449e+01 1.883038e+01 -9.366614e+01 1.568198e+01 -9.011218e+01 1.191377e+01 -8.551400e+01 7.154965e+00 -7.956632e+01 9.136383e-01 -7.167853e+01 -6.885603e+00 -6.223908e+01 -1.542898e+01 -5.220058e+01 -2.406116e+01 -4.172418e+01 -3.285283e+01 -3.088507e+01 -4.115841e+01 -1.840308e+01 -4.951741e+01 
-6.785936e+01 -6.818869e+00 -5.164539e+01 4.486387e+00 -8.983295e+00 6.361536e+00 -6.593177e+01 -1.880144e+00 -8.409007e+01 -3.335189e+00 -9.540127e+01 -4.133950e+00 -1.035425e+02 -4.836871e+00 -1.095174e+02 -6.043543e+00 -1.135225e+02 -8.034991e+00 -1.158919e+02 -1.061551e+01 -1.168680e+02 -1.348858e+01 -1.170742e+02 -1.628707e+01 -1.172349e+02 -1.855141e+01 -1.177100e+02 -2.006495e+01 -1.181081e+02 -2.149171e+01 -1.182982e+02 -2.280059e+01 -1.185290e+02 -2.395652e+01 -1.186775e+02 -2.489329e+01 -1.185950e+02 -2.575690e+01 -1.184110e+02 -2.617441e+01 -1.186759e+02 -2.588667e+01 -1.191637e+02 -2.514556e+01 -1.194211e+02 -2.429559e+01 -1.193008e+02 -2.331129e+01 -1.189197e+02 -2.189653e+01 -1.183229e+02 -1.956251e+01 -1.178050e+02 -1.617786e+01 -1.169244e+02 -1.232789e+01 -1.148595e+02 -8.254565e+00 -1.115753e+02 -3.364079e+00 -1.067390e+02 1.910683e+00 -1.051231e+02 1.300860e+01 
-3.333184e+01 -1.649401e+00 -2.909262e+01 9.000548e+00 -4.241245e+01 5.361271e+00 -2.429581e+01 1.409557e+01 -3.679681e+01 1.156044e+01 -4.396758e+01 8.798112e+00 -4.865209e+01 6.154778e+00 -5.164738e+01 3.289777e+00 -5.323849e+01 3.799838e-03 -5.357669e+01 -3.634750e+00 -5.295506e+01 -7.429449e+00 -5.178156e+01 -1.074146e+01 -5.066030e+01 -1.331645e+01 -4.974095e+01 -1.523530e+01 -4.892613e+01 -1.676721e+01 -4.799468e+01 -1.794445e+01 -4.719112e+01 -1.871602e+01 -4.644148e+01 -1.922706e+01 -4.572210e+01 -1.951798e+01 -4.511121e+01 -1.933929e+01 -4.505288e+01 -1.843877e+01 -4.532417e+01 -1.722147e+01 -4.565023e+01 -1.585479e+01 -4.601727e+01 -1.431058e+01 -4.657187e+01 -1.252964e+01 -4.731986e+01 -1.032935e+01 -4.851882e+01 -7.441225e+00 -5.001338e+01 -4.401009e+00 -5.111607e+01 -1.391988e+00 -5.154864e+01 1.797404e+00 -5.146909e+01 6.740600e+00 -5.428642e+01 9.708684e+00 
-4.258926e+00 2.174649e+00 -4.134645e+00 -9.889135e+00 -6.661520e+01 -4.819776e+00 1.140895e+01 1.900044e+00 2.720672e+00 1.272503e+00 -3.888933e-01 6.822268e-01 -1.577023e+00 3.180289e-01 -2.095610e+00 6.972192e-02 -2.356090e+00 -8.259254e-02 -2.522572e+00 -1.897132e-01 -2.651223e+00 -2.366750e-01 -2.672090e+00 -2.426713e-01 -2.615703e+00 -2.522312e-01 -2.537187e+00 -3.458468e-01 -2.424417e+00 -4.566806e-01 -2.239944e+00 -5.578543e-01 -2.018837e+00 -6.204430e-01 -1.809354e+00 -6.871827e-01 -1.615630e+00 -7.759382e-01 -1.408282e+00 -9.161599e-01 -1.204961e+00 -1.084322e+00 -1.028949e+00 -1.242672e+00 -8.676067e-01 -1.304518e+00 -6.824890e-01 -1.234870e+00 -5.138803e-01 -1.060262e+00 -4.180519e-01 -8.388930e-01 -4.105370e-01 -5.460449e-01 -4.702796e-01 -1.740860e-01 -6.194836e-01 2.813614e-01 -8.986519e-01 7.842313e-01 -1.349787e+00 1.575396e+00 -2.733953e+00 3.723212e+00 
-3.403458e+00 2.632194e+00 -3.743433e+00 -9.565532e+00 -8.776835e+01 -6.242712e+00 8.849295e+00 -1.567672e+00 5.261042e+00 5.457377e-02 2.617828e+00 1.033813e-01 1.281554e+00 -2.267147e-02 6.487629e-01 -9.367121e-02 3.417266e-01 -1.084160e-01 2.065633e-01 -1.553212e-01 7.069434e-02 -1.582541e-01 8.051610e-03 -1.225724e-01 -1.280686e-02 -6.211222e-02 1.261868e-02 -4.804341e-02 -4.072441e-02 -5.890947e-02 -6.886679e-02 -4.093902e-02 -6.953167e-02 1.472672e-02 -2.021055e-02 1.109451e-02 -4.957067e-02 -9.718512e-03 -7.366148e-02 1.407567e-02 -8.380225e-02 7.970142e-02 -4.270212e-02 9.237204e-02 -8.619444e-02 7.086028e-02 -1.402465e-01 8.664083e-02 -1.734408e-01 1.600296e-01 -1.398455e-01 2.221140e-01 -2.044571e-01 3.084414e-01 -3.393905e-01 5.027507e-01 -5.384015e-01 8.229862e-01 -8.670981e-01 1.291256e+00 -1.434887e+00 1.689342e+00 -2.259327e+00 2.913775e+00 
-3.218763e+00 1.540961e+00 -1.681950e+00 -1.091981e+01 -9.903230e+01 -3.867370e+00 6.548803e+00 -2.290529e+00 4.963634e+00 -5.772339e-01 2.787503e+00 -1.630356e-01 1.433072e+00 -1.501915e-01 7.899621e-01 -2.092502e-01 4.938475e-01 -1.855004e-01 3.351616e-01 -2.394377e-01 1.574584e-01 -2.239400e-01 1.441351e-01 -1.638929e-01 1.810174e-01 -6.498767e-02 1.572836e-01 -4.946515e-02 5.555274e-02 -2.740355e-02 6.307747e-02 2.940691e-03 1.033540e-01 6.373343e-02 7.733614e-02 5.716043e-02 -9.587352e-03 6.176531e-02 -5.451725e-03 8.465323e-02 1.807008e-02 1.448633e-01 -3.360036e-02 1.448241e-01 -1.467495e-01 1.505104e-01 -1.774789e-01 1.713168e-01 -1.694386e-01 2.436610e-01 -2.241391e-01 3.046674e-01 -3.660542e-01 4.485250e-01 -5.286973e-01 6.785522e-01 -7.609595e-01 9.811232e-01 -1.131746e+00 1.367056e+00 -1.702873e+00 1.813035e+00 -2.555651e+00 2.302263e+00 
-3.050743e+00 1.054195e+00 -1.172311e+00 -9.519404e+00 -1.116863e+02 -3.042267e+00 3.507064e+00 -3.359918e+00 3.736309e+00 -1.439454e+00 2.706712e+00 -5.521281e-01 1.577802e+00 -3.496857e-01 9.112198e-01 -3.682841e-01 5.377940e-01 -2.498675e-01 4.471534e-01 -3.542333e-01 1.874040e-01 -3.617263e-01 1.165564e-01 -2.656312e-01 7.200946e-02 -5.645589e-02 1.656597e-01 -8.796105e-02 2.865261e-02 -1.348174e-01 -8.078600e-03 -9.149646e-02 -3.985849e-02 8.312893e-02 8.629233e-02 5.096093e-02 -1.688984e-02 -4.325133e-03 -5.973908e-02 4.786437e-02 -1.110355e-01 2.346106e-01 8.027838e-03 2.252463e-01 -1.032875e-01 1.742985e-01 -1.828703e-01 2.234494e-01 -2.600371e-01 4.026735e-01 -1.204582e-01 4.335326e-01 -2.263027e-01 5.106462e-01 -4.036335e-01 7.879096e-01 -6.389113e-01 1.185565e+00 -1.017374e+00 1.628529e+00 -1.582989e+00 2.077990e+00 -2.361086e+00 2.539864e+00 
-2.335960e+00 3.625145e-01 5.976225e-01 -9.584733e+00 -1.174317e+02 -1.641148e+00 2.349890e+00 -2.991115e+00 2.451031e+00 -1.749507e+00 2.115668e+00 -7.654624e-01 1.308287e+00 -4.519604e-01 8.373341e-01 -5.847291e-01 5.572260e-01 -4.080990e-01 4.761145e-01 -5.536267e-01 1.324804e-01 -3.996994e-01 1.752790e-01 -2.874330e-01 2.388165e-01 -8.591157e-02 2.110654e-01 -1.492865e-01 -2.623711e-02 -6.420806e-02 4.823534e-02 -4.521740e-02 1.460508e-01 7.827949e-02 1.084993e-01 1.745208e-02 -9.509271e-02 8.870313e-02 -3.131252e-02 1.061569e-01 4.789880e-02 2.320757e-01 -2.374072e-02 1.866284e-01 -2.462868e-01 2.532637e-01 -2.313003e-01 2.626583e-01 -1.602147e-01 3.730526e-01 -2.001920e-01 3.449530e-01 -3.907798e-01 5.431510e-01 -5.159849e-01 8.693545e-01 -7.204069e-01 1.244599e+00 -1.072134e+00 1.643492e+00 -1.568284e+00 2.044104e+00 -2.162219e+00 2.271389e+00 
-1.803341e+00 -1.098512e-01 1.464598e+00 -8.637916e+00 -1.251809e+02 -8.651002e-01 1.243467e+00 -3.207752e+00 1.251340e+00 -2.249795e+00 1.533512e+00 -9.949005e-01 1.065133e+00 -4.868268e-01 7.119598e-01 -8.065876e-01 3.515069e-01 -5.889210e-01 6.310974e-01 -8.222998e-01 1.910491e-01 -4.785257e-01 1.745694e-01 -3.597002e-01 -1.587346e-02 9.339698e-03 3.014956e-01 -2.498342e-01 2.332357e-03 -1.694246e-01 1.781679e-02 -1.542156e-01 -1.574321e-01 2.087867e-01 2.037591e-01 -3.594073e-02 -3.304404e-02 -1.244795e-02 -3.474387e-02 3.179416e-02 -2.457671e-01 4.403281e-01 1.104792e-01 2.377758e-01 -1.294126e-01 2.375742e-01 -2.151473e-01 2.899970e-01 -4.953435e-01 6.499448e-01 -6.221075e-02 3.481375e-01 -1.637172e-01 3.830401e-01 -2.941968e-01 8.709489e-01 -5.048019e-01 1.365999e+00 -8.734357e-01 1.767951e+00 -1.349110e+00 2.107632e+00 -1.855964e+00 2.168465e+00 
-9.817671e-01 -6.438853e-01 2.795445e+00 -8.122518e+00 -1.274434e+02 3.230810e-03 9.045288e-01 -2.852646e+00 2.474727e-01 -2.355511e+00 7.411709e-01 -9.105376e-01 5.426472e-01 1.747845e-02 4.826615e-01 -7.987801e-01 2.242805e-01 -1.379272e+00 6.567165e-01 -1.465166e+00 1.294265e-01 -6.343221e-02 2.541249e-01 -2.676585e-02 1.943283e-01 -3.965233e-01 2.986082e-01 -6.236114e-01 -1.144797e-01 2.945377e-01 5.598343e-02 1.598598e-01 1.303518e-01 -1.650538e-01 1.770181e-01 -3.330059e-01 -1.787457e-01 4.388962e-01 -2.860258e-02 3.076766e-01 5.022025e-02 1.169970e-01 3.962625e-02 -3.962850e-03 -3.404783e-01 6.466588e-01 -2.908180e-01 5.034794e-01 -2.357893e-01 3.706265e-01 -1.664249e-01 4.218173e-02 -3.330224e-01 4.885974e-01 -2.836381e-01 9.892043e-01 -4.568551e-01 1.404293e+00 -8.058427e-01 1.735261e+00 -1.196665e+00 2.008583e+00 -1.497751e+00 1.914003e+00 
-3.574139e-01 -1.119595e+00 3.672411e+00 -7.429575e+00 -1.316432e+02 7.611655e-01 7.077468e-01 -2.958093e+00 -3.442925e-01 -2.912183e+00 2.985471e-01 -1.076218e+00 2.490170e-01 8.934684e-01 6.216798e-02 1.624029e-01 -8.476781e-01 -3.367180e+00 1.006475e+00 -2.436370e+00 5.719368e-01 8.588125e-01 3.233283e-01 8.447181e-01 -7.707127e-01 -1.140931e+00 4.448483e-01 -1.482370e+00 2.685365e-01 8.339859e-01 1.362840e-01 6.492758e-01 -8.665771e-01 -5.065000e-01 3.154618e-01 -1.154865e+00 2.517313e-01 8.257095e-01 1.045610e-01 6.506783e-01 -9.377427e-01 6.675141e-02 2.240441e-01 -7.428227e-01 1.930026e-01 1.039074e+00 -1.307906e-01 9.006404e-01 -1.381652e+00 8.462453e-01 -2.203697e-01 -8.645833e-01 1.883298e-01 -6.238528e-02 2.027899e-01 1.114465e+00 -1.715579e-01 1.603229e+00 -6.413552e-01 1.812416e+00 -1.008332e+00 1.967139e+00 -1.182126e+00 1.693772e+00 
4.134541e-01 -1.557479e+00 4.574252e+00 -6.629924e+00 -1.312864e+02 1.298075e+00 6.013764e-01 -2.915258e+00 -9.824999e-01 -3.551023e+00 -4.176241e-01 -1.838305e+00 -7.733935e-02 1.551604e+00 2.697906e-01 2.949586e+00 -2.657050e+00 -7.354972e+00 1.579443e+00 -3.783408e+00 1.148315e+00 3.417095e+00 6.459649e-01 4.727273e+00 -1.632006e+00 -5.587463e+00 7.357947e-01 -2.490739e+00 6.996707e-01 3.129885e+00 2.706170e-01 4.150558e+00 -1.314601e+00 -4.733302e+00 6.039570e-01 -1.727993e+00 6.127759e-01 2.959630e+00 1.295714e-01 3.686880e+00 -1.244079e+00 -3.755511e+00 5.026677e-01 -9.637203e-01 4.579199e-01 2.944249e+00 -2.260466e-01 3.213751e+00 -1.726262e+00 -2.118046e+00 -4.220974e-02 -8.654064e-01 2.252077e-01 5.302397e-01 3.874210e-01 1.361012e+00 -6.996780e-02 1.663530e+00 -5.835067e-01 1.746921e+00 -8.565032e-01 1.824831e+00 -8.175868e-01 1.413066e+00 
1.029714e+00 -2.003192e+00 5.266088e+00 -5.951532e+00 -1.324641e+02 2.018332e+00 6.058440e-01 -2.911256e+00 -1.180773e+00 -4.730617e+00 -3.790774e-01 -4.273406e+00 7.377721e-01 -2.307368e+00 2.279873e+00 3.509948e+00 -9.957887e+00 -5.288346e+00 5.554365e+00 -3.598060e+00 3.510747e+00 6.871240e+00 2.018934e+00 8.850289e+00 -7.995706e+00 -7.798630e+00 1.419292e+00 -7.654205e+00 2.710521e+00 5.653070e+00 1.713599e+00 9.683901e+00 -7.105538e+00 -7.961578e+00 4.428652e-01 -8.074682e+00 2.794129e+00 5.432466e+00 1.485423e+00 1.031068e+01 -6.619090e+00 -7.494203e+00 -9.635299e-03 -7.591514e+00 3.188536e+00 5.748647e+00 1.025838e+00 1.180024e+01 -6.862522e+00 -5.042140e+00 -1.763336e+00 -5.143480e+00 2.542333e+00 1.230045e+00 1.435974e+00 2.412627e+00 -1.618534e-01 1.901718e+00 -7.420112e-01 1.686203e+00 -8.030077e-01 1.680102e+00 -5.378058e-01 1.122140e+00 
1.711569e+00 -2.350429e+00 5.746335e+00 -4.835436e+00 -1.299872e+02 2.209377e+00 4.885792e-01 -2.479736e+00 -1.565466e+00 -4.888633e+00 -1.513220e+00 -7.604156e+00 2.857084e-01 -1.843889e+01 1.139295e+01 -1.580645e+01 -1.452658e+01 1.908320e+01 3.456952e+01 3.590783e+01 7.651308e+00 5.344988e+00 8.286267e+00 -1.241798e+01 -9.138712e+00 1.008551e+01 2.109835e+01 1.235780e+01 3.495051e+00 3.799660e+00 7.925339e+00 -1.015468e+01 -5.683513e+00 5.117985e+00 1.492667e+01 2.222298e+00 1.598335e+00 3.401538e+00 7.226911e+00 -7.698819e+00 -3.840219e+00 1.721271e+00 1.087465e+01 -4.952442e+00 4.466107e-01 4.242505e+00 5.951650e+00 -2.949922e+00 -2.834103e+00 -3.570938e-01 6.968868e+00 -1.514769e+01 -1.957347e+00 -1.372276e+00 1.342480e+00 3.239112e+00 -2.950086e-01 1.957613e+00 -8.705990e-01 1.466197e+00 -6.959808e-01 1.448285e+00 -1.849205e-01 7.960891e-01 
2.303369e+00 -2.612231e+00 6.070809e+00 -3.703947e+00 -1.284301e+02 2.802672e+00 1.460013e-01 -1.436688e+00 -2.280250e+00 -4.711043e+00 -1.432576e+00 -1.283568e+01 6.952572e+00 -3.807014e+01 2.815386e+01 -4.020770e+01 6.809384e+00 7.842186e+01 7.709299e+01 1.009741e+02 1.533523e+01 -2.316317e+01 2.763934e+01 -4.696445e+01 -2.051209e-01 7.825552e+01 7.482287e+01 9.179549e+01 1.899546e+01 -1.781979e+01 2.869830e+01 -4.479074e+01 -3.734804e+00 6.864013e+01 7.086333e+01 8.329164e+01 2.164880e+01 -1.400105e+01 2.840951e+01 -4.163319e+01 -6.328869e+00 5.501282e+01 6.511632e+01 7.371645e+01 2.341426e+01 -1.026029e+01 2.712255e+01 -3.725638e+01 -7.278848e+00 3.145975e+01 5.356247e+01 5.817717e+01 2.218488e+01 2.006250e+01 -8.124148e-01 2.846111e+00 -2.734662e+00 8.104361e-01 -1.435515e+00 1.057506e+00 -6.130413e-01 1.232503e+00 1.465515e-01 4.762824e-01 
2.864284e+00 -2.633459e+00 6.149201e+00 -2.580909e+00 -1.242415e+02 2.519629e+00 2.833054e-01 -1.262311e+00 -1.301329e+00 -3.478107e+00 1.209644e+00 -7.131057e+00 8.054009e+00 -1.578523e+01 1.906612e+01 -2.800317e+01 2.386356e+01 5.525162e+01 3.198179e+01 2.307217e+01 9.835311e+00 -2.860601e+01 2.369182e+01 -4.527558e+01 3.643092e+01 1.111216e+02 5.073467e+01 5.610749e+01 5.571770e+00 -3.122849e+01 2.575271e+01 -5.358869e+01 4.054964e+01 1.380912e+02 6.008177e+01 6.943630e+01 4.569441e+00 -3.267402e+01 2.776128e+01 -5.743819e+01 3.852034e+01 1.479673e+02 6.776368e+01 7.987715e+01 4.716022e+00 -3.521681e+01 3.155420e+01 -6.052627e+01 3.224667e+01 1.441986e+02 7.991197e+01 1.074007e+02 -2.518001e+00 1.267609e+01 -9.021158e+00 -2.784277e+00 -4.296635e+00 -1.357559e+00 -1.344479e+00 4.127631e-01 -2.599113e-01 9.950061e-01 5.784310e-01 2.192875e-01 
3.332511e+00 -2.621284e+00 6.191349e+00 -1.733500e+00 -1.206746e+02 2.433229e+00 7.404078e-01 -6.217676e-01 -6.996360e-01 3.969515e-01 -4.526413e-01 8.141801e+00 -4.373550e+00 2.720719e+01 -2.001604e+01 3.498600e+01 -1.762378e+01 -1.061082e+02 -6.277090e+01 -8.665308e+01 -2.497271e-02 1.399591e+01 -9.840891e+00 3.532718e+01 -2.790093e+01 -9.693053e+01 -3.729175e+01 -5.075387e+01 8.156596e-01 1.372069e+01 -8.295321e+00 2.846733e+01 -2.682139e+01 -7.442055e+01 -2.375339e+01 -2.887707e+01 -1.153673e+00 1.190279e+01 -7.567011e+00 2.218552e+01 -2.024503e+01 -4.827612e+01 -1.429890e+01 -1.013243e+01 -4.054459e+00 8.327567e+00 -5.863727e+00 1.275228e+01 -7.069924e+00 -6.214523e+00 3.170678e+00 2.048988e+01 -5.613793e+00 5.332937e+00 -2.216553e+00 1.222385e+00 -7.389464e-01 7.020413e-01 -1.129821e-01 9.290205e-01 2.337763e-01 9.767446e-01 9.754870e-01 -2.136613e-02 
3.631110e+00 -2.300634e+00 5.958888e+00 -8.403435e-01 -1.147789e+02 2.243358e+00 5.926901e-01 -8.918341e-01 -1.159161e+00 -2.030768e-01 -2.481291e+00 9.071371e+00 -1.205658e+01 3.622584e+01 -3.305888e+01 2.646496e+01 5.955612e+00 -4.224000e+01 -7.118515e+01 -8.433846e+01 -3.105340e+01 2.032346e+01 -3.495701e+01 4.595248e+01 -3.607103e+00 -9.461063e+01 -8.328255e+01 -9.501161e+01 -1.977835e+01 2.870079e+01 -3.534849e+01 5.581866e+01 -1.523237e+01 -1.216240e+02 -8.475310e+01 -9.430659e+01 -1.499602e+01 3.273625e+01 -3.493050e+01 5.985073e+01 -2.306179e+01 -1.324487e+02 -8.251895e+01 -9.166184e+01 -1.285389e+01 3.605705e+01 -3.396326e+01 6.249600e+01 -3.313414e+01 -1.325244e+02 -7.745084e+01 -9.871751e+01 2.644553e-01 -5.943581e+00 6.261547e+00 6.000826e+00 2.850513e+00 3.567811e+00 8.603283e-01 1.800947e+00 5.468663e-01 1.093530e+00 1.270528e+00 -1.197955e-01 
3.921386e+00 -2.137289e+00 5.880919e+00 -2.204603e-01 -1.095511e+02 2.773105e+00 2.737778e-01 -1.631799e-01 -1.972574e+00 -1.405296e+00 -2.994826e+00 -1.023481e+00 -5.354919e+00 3.931288e+00 -1.186762e+01 6.239365e+00 -6.176251e-01 1.854453e+00 -1.390281e+01 1.754483e+00 -8.006751e+00 1.425664e+00 -1.549379e+01 1.280359e+01 5.681554e+00 -6.514416e+00 -2.405355e+01 -1.911234e+01 -1.190591e+01 9.772606e-01 -1.742866e+01 2.032569e+01 8.488529e+00 -1.748816e+01 -3.343519e+01 -3.393580e+01 -1.373117e+01 1.611731e+00 -1.857739e+01 2.434954e+01 1.011133e+01 -2.701088e+01 -4.068063e+01 -4.628216e+01 -1.484213e+01 4.055725e+00 -2.047504e+01 2.825360e+01 1.007413e+01 -3.815746e+01 -5.167545e+01 -6.965536e+01 -1.527519e+01 -2.085718e+01 1.990287e+00 -3.377375e-01 2.595799e+00 2.169275e+00 1.300544e+00 1.631999e+00 9.298618e-01 1.035655e+00 1.605460e+00 -2.372060e-01 
4.030122e+00 -1.713698e+00 5.485295e+00 5.811779e-01 -1.024507e+02 2.717668e+00 -1.034406e-01 2.919204e-01 -2.547074e+00 -6.065548e-01 -3.651055e+00 -2.062426e+00 -3.340505e+00 -8.092309e+00 -3.703535e-01 -8.057497e+00 3.478859e+00 3.842130e+00 -1.494817e+00 9.607335e+00 -1.972444e+00 -5.197736e+00 -2.325984e+00 -8.524477e+00 5.538720e+00 5.804119e+00 -1.913279e+00 1.039741e+01 -6.389692e-01 -4.982873e+00 -2.628708e+00 -6.639296e+00 6.767771e+00 5.896155e+00 -2.867969e+00 9.102830e+00 -4.903817e-01 -5.145694e+00 -3.066992e+00 -5.312922e+00 7.527108e+00 5.003656e+00 -4.036891e+00 6.779102e+00 -7.256487e-01 -5.433156e+00 -3.783687e+00 -4.792622e+00 9.215848e+00 1.722486e+00 -6.822379e+00 2.059396e+00 -9.053901e-01 -5.255604e+00 -2.556892e-01 -2.461469e+00 9.960173e-01 4.511595e-01 1.046389e+00 1.103732e+00 1.040183e+00 8.634225e-01 1.805122e+00 -3.018286e-01 
4.097475e+00 -1.594773e+00 5.392314e+00 5.134265e-01 -9.629219e+01 2.903587e+00 1.571352e-01 5.872003e-02 -2.092942e+00 -1.492614e+00 -2.619015e+00 -2.239373e+00 -1.705864e+00 -3.953792e+00 2.177292e-01 -3.275344e+00 8.469356e-01 2.252133e+00 -2.919941e-01 1.847479e+00 -1.806006e+00 -3.675578e+00 -6.361455e-01 -5.636373e+00 1.575190e+00 4.148960e+00 1.483220e-01 3.472017e+00 -1.620484e+00 -3.970468e+00 -7.098116e-01 -6.816718e+00 2.640314e+00 5.763655e+00 3.098670e-01 4.668120e+00 -1.614635e+00 -4.088024e+00 -9.576335e-01 -7.431183e+00 3.348323e+00 6.649407e+00 2.770394e-01 5.466411e+00 -1.706597e+00 -4.488437e+00 -1.226147e+00 -8.629174e+00 4.737306e+00 6.563899e+00 5.163799e-01 6.447476e+00 -9.935692e-01 -7.020553e-01 -8.489789e-01 -1.816713e+00 3.658172e-01 -3.081560e-01 8.509226e-01 5.444592e-01 1.093290e+00 5.709040e-01 1.937630e+00 -4.379854e-01 
4.015396e+00 -1.367287e+00 4.979022e+00 8.638088e-01 -8.845936e+01 2.726594e+00 4.438176e-02 7.860735e-02 -1.919951e+00 -1.674130e+00 -2.135260e+00 -2.640400e+00 -1.172429e+00 -2.675637e+00 -3.450905e-01 -8.349384e-01 8.134683e-01 -3.855502e-01 -9.067360e-01 2.908320e-01 -5.631418e-01 -1.453628e+00 -3.288675e-01 -9.912655e-01 7.450334e-01 7.534627e-01 -7.331959e-01 7.060558e-01 -2.422211e-01 -1.807398e+00 -3.579633e-02 -1.401635e+00 9.100890e-01 1.874882e+00 -6.374001e-01 1.152088e+00 -1.564360e-01 -2.001568e+00 9.270867e-03 -1.769521e+00 8.990314e-01 2.621261e+00 -6.367304e-01 1.360943e+00 -4.594273e-02 -2.465362e+00 1.627084e-01 -2.473308e+00 1.177899e+00 3.539384e+00 -6.177413e-01 2.985512e+00 -3.520043e-01 1.960581e-01 -2.552599e-01 -7.724262e-01 2.416874e-01 -2.897425e-01 6.667465e-01 2.885816e-01 1.038821e+00 3.547662e-01 1.961461e+00 -5.379523e-01 
3.882895e+00 -1.313222e+00 4.760600e+00 6.838794e-01 -8.136578e+01 2.607041e+00 3.613987e-01 1.138440e-01 -1.440858e+00 -1.425772e+00 -1.698286e+00 -1.929382e+00 -1.050547e+00 -1.891996e+00 -6.568267e-01 -1.032967e+00 -4.268552e-01 -8.043334e-01 -5.182186e-01 -2.231869e-01 -1.771601e-01 -8.254262e-01 -2.874110e-01 -5.500661e-01 -1.003779e-01 -3.433367e-01 -2.590164e-01 2.552175e-01 2.435336e-02 -6.512429e-01 -1.293382e-01 -3.788735e-01 1.381703e-01 1.377724e-02 -1.504410e-01 6.239793e-01 7.519618e-02 -5.270070e-01 -1.211364e-01 -2.913886e-01 2.304241e-01 2.166687e-01 -1.491101e-01 8.041167e-01 1.147962e-01 -5.766982e-01 -4.448233e-02 -3.386610e-01 5.195703e-01 5.846577e-01 -1.569740e-01 1.908407e+00 -4.031130e-02 9.241485e-01 -8.940434e-02 -6.424015e-02 1.801782e-01 -1.207800e-01 5.540276e-01 1.668317e-01 9.721639e-01 1.798756e-01 1.920031e+00 -6.420107e-01 
3.637138e+00 -1.177632e+00 4.311281e+00 7.770497e-01 -7.289458e+01 2.345047e+00 3.479169e-01 4.898216e-02 -1.231498e+00 -1.373568e+00 -1.496223e+00 -1.662265e+00 -1.058422e+00 -1.394973e+00 -7.006323e-01 -9.550585e-01 -2.441132e-01 -9.744083e-01 -5.844185e-01 -6.053737e-01 -2.203664e-01 -4.987429e-01 -1.903044e-01 -2.897546e-01 -3.417680e-02 -4.104150e-01 -3.126923e-01 -1.712831e-01 3.799583e-02 -3.095936e-01 -1.719104e-02 -8.728488e-02 3.878202e-02 -1.057551e-01 -2.071732e-01 9.097775e-02 1.361259e-01 -1.997765e-01 2.682072e-02 1.194390e-02 3.680584e-02 5.395839e-02 -1.653282e-01 2.126739e-01 2.362094e-01 -1.764196e-01 1.071721e-01 1.297896e-01 8.269714e-02 5.215863e-01 -2.843272e-01 1.063561e+00 1.797259e-02 6.284135e-01 7.306445e-02 1.477434e-01 2.411483e-01 6.058856e-02 5.079972e-01 1.803458e-01 8.939851e-01 1.039946e-01 1.819926e+00 -6.829282e-01 
3.340068e+00 -1.112059e+00 3.950292e+00 6.111625e-01 -6.487159e+01 2.109993e+00 5.159840e-01 1.201606e-01 -9.198924e-01 -1.065410e+00 -1.272932e+00 -1.262695e+00 -1.000841e+00 -1.162885e+00 -7.477964e-01 -9.066912e-01 -6.067185e-01 -7.577159e-01 -4.670896e-01 -5.438581e-01 -1.705463e-01 -5.819754e-01 -1.414339e-01 -3.922043e-01 -1.615410e-01 -2.746699e-01 -1.595796e-01 -1.649934e-01 2.780365e-02 -2.532324e-01 -1.124358e-02 -1.254059e-01 -5.302486e-02 -7.108036e-02 -9.221653e-02 1.600890e-02 8.680504e-02 -8.327478e-02 2.595562e-02 3.022392e-02 -8.625507e-03 4.720496e-02 -8.430484e-02 1.513589e-01 1.208212e-01 6.409436e-02 5.355392e-02 2.330500e-01 3.434126e-02 2.951464e-01 -1.823488e-01 5.619128e-01 8.051347e-02 4.357439e-01 1.899999e-01 2.797595e-01 2.997520e-01 2.269336e-01 4.707039e-01 2.313440e-01 7.981698e-01 6.523417e-02 1.666145e+00 -6.975607e-01 
2.963128e+00 -9.907006e-01 3.453842e+00 5.688210e-01 -5.583234e+01 1.818342e+00 5.053948e-01 7.788787e-02 -7.524351e-01 -9.074424e-01 -1.128527e+00 -9.458731e-01 -9.561204e-01 -8.628095e-01 -6.537974e-01 -8.590590e-01 -4.858612e-01 -7.055039e-01 -4.563339e-01 -6.917734e-01 -2.203159e-01 -5.211960e-01 -5.549411e-02 -3.232575e-01 -8.073493e-02 -1.402871e-01 -1.218094e-01 -2.631041e-01 -3.362336e-02 -1.840893e-01 3.489843e-02 -9.526716e-02 -4.408189e-02 3.893482e-02 -5.421345e-02 -1.236128e-01 3.239976e-02 -5.465985e-02 7.403752e-02 2.337149e-02 -3.038822e-02 1.725299e-01 -3.093301e-02 1.606712e-02 6.642296e-02 9.318300e-02 6.736012e-02 2.377815e-01 -1.051799e-01 4.285142e-01 -1.502177e-01 2.093317e-01 7.057236e-02 1.594029e-01 2.385646e-01 2.798174e-01 3.266053e-01 3.215981e-01 4.221255e-01 2.809334e-01 6.860012e-01 6.041086e-02 1.472872e+00 -6.653721e-01 
2.535908e+00 -9.138412e-01 2.988162e+00 3.582034e-01 -4.701410e+01 1.531336e+00 5.839145e-01 3.212540e-02 -4.766426e-01 -7.311046e-01 -8.732016e-01 -5.363240e-01 -8.824734e-01 -4.231609e-01 -6.608961e-01 -7.464184e-01 -5.513078e-01 -4.991285e-01 -6.541227e-01 -9.049605e-01 -1.371712e-01 -5.454928e-01 1.207081e-01 -2.335236e-01 -3.007874e-02 1.010951e-01 -3.010609e-01 -5.339033e-01 3.887393e-02 -1.241357e-01 1.469684e-01 3.595449e-03 -4.638222e-02 2.083291e-01 -2.582962e-01 -4.728849e-01 1.115414e-01 3.044544e-02 1.788140e-01 1.328901e-01 -2.846303e-02 3.368173e-01 -2.608860e-01 -3.341443e-01 1.299621e-01 2.303028e-01 1.527042e-01 4.118832e-01 -1.445038e-01 5.999626e-01 -4.980677e-01 -4.606372e-01 2.145154e-01 -2.478297e-01 4.797133e-01 4.027978e-01 4.086491e-01 5.080818e-01 3.454604e-01 3.483506e-01 5.306762e-01 5.623466e-02 1.227282e+00 -6.215961e-01 
2.064799e+00 -8.122165e-01 2.452061e+00 2.134077e-01 -3.752841e+01 1.225356e+00 5.656482e-01 -5.300455e-02 -2.883118e-01 -6.734344e-01 -6.341825e-01 -2.637292e-01 -7.550019e-01 2.728886e-01 -7.348584e-01 -4.665554e-01 -3.798910e-01 -6.842801e-01 -8.664273e-01 -1.865949e+00 1.299943e-01 1.078148e-01 2.082986e-01 4.156883e-01 -2.735071e-02 -2.168844e-01 -4.542958e-01 -1.314660e+00 2.448258e-01 5.196442e-01 1.496218e-01 6.399853e-01 -1.528665e-01 -2.936251e-01 -3.680346e-01 -1.229222e+00 3.280431e-01 6.583839e-01 1.680338e-01 7.600679e-01 -1.716169e-01 -1.918538e-01 -3.734506e-01 -1.112206e+00 3.545609e-01 8.601054e-01 1.216576e-01 1.052798e+00 -3.313091e-01 2.572437e-01 -7.385043e-01 -1.450813e+00 4.149380e-01 -2.014920e-01 6.108033e-01 6.367117e-01 3.677190e-01 6.264289e-01 2.133499e-01 3.592995e-01 3.586463e-01 4.244438e-02 9.616406e-01 -5.584471e-01 
1.554344e+00 -7.117676e-01 1.892850e+00 -2.915927e-03 -2.804474e+01 9.437792e-01 5.254985e-01 -2.671457e-01 -1.626779e-02 -1.007485e+00 -7.505312e-02 -3.436813e-01 -3.208708e-01 1.719016e+00 -1.189689e+00 6.434693e-01 1.797570e-01 -8.615677e-01 -2.432821e+00 -4.819783e+00 1.243210e+00 1.488498e+00 6.666886e-01 2.909384e+00 1.492892e-01 -9.105298e-01 -2.150548e+00 -4.532672e+00 1.567023e+00 2.125110e+00 4.383159e-01 3.325507e+00 -3.263071e-01 -1.451902e+00 -1.975905e+00 -4.529530e+00 1.815057e+00 2.397805e+00 4.170196e-01 3.560063e+00 -4.368214e-01 -1.527436e+00 -1.990976e+00 -4.581855e+00 1.969076e+00 2.728657e+00 4.114875e-01 4.050783e+00 -4.731438e-01 -5.010228e-01 -2.947748e+00 -4.813470e+00 1.557079e+00 1.704519e-01 1.395534e+00 1.604257e+00 2.154502e-01 8.002161e-01 -9.177565e-02 2.583519e-01 1.163807e-01 -3.139815e-02 6.636546e-01 -4.947356e-01 
1.034995e+00 -5.948279e-01 1.312727e+00 -1.684063e-01 -1.824125e+01 6.479309e-01 4.510446e-01 -3.258420e-01 1.264904e-01 -1.094272e+00 2.629290e-01 -1.066199e+00 6.287537e-01 1.009757e-01 -3.508634e-01 1.595407e+00 -5.827242e-01 -3.241789e+00 -1.091778e-01 -1.189228e+00 3.486803e+00 2.376492e+00 1.617475e+00 3.834943e+00 -1.793236e+00 -2.890135e+00 1.174539e+00 -1.174499e+00 3.124341e+00 2.693074e+00 1.526595e+00 3.650700e+00 -2.451135e+00 -3.055161e+00 2.069041e+00 -7.910104e-01 3.319632e+00 2.954400e+00 1.556589e+00 3.646262e+00 -2.527538e+00 -3.209689e+00 2.331013e+00 -4.066232e-01 3.693682e+00 3.384585e+00 1.532428e+00 4.161091e+00 -2.224668e+00 -3.095447e+00 1.652277e+00 -2.023545e-01 3.526656e+00 2.483403e+00 1.317992e+00 2.307907e+00 -1.813909e-01 6.787422e-01 -3.655459e-01 7.596339e-02 -7.470885e-02 -1.077456e-01 3.828529e-01 -4.137114e-01 
4.944992e-01 -3.514543e-01 6.211668e-01 -1.150998e-01 -8.206131e+00 4.221064e-01 9.505915e-02 -1.672842e-01 -1.183743e-01 -1.661517e+00 7.605413e-01 -6.265186e+00 4.605748e+00 -1.160851e+01 3.667374e+00 7.770091e-01 1.477817e+00 -1.278737e+01 7.530500e+00 3.663985e+01 3.053282e+01 1.520163e+01 9.003646e+00 2.179651e+00 -3.426436e+00 -1.020933e+01 1.423942e+01 4.470498e+01 2.838197e+01 9.181369e+00 8.326016e+00 -5.595851e-01 -4.543362e+00 -7.783744e+00 1.843394e+01 4.866110e+01 2.725175e+01 6.961557e+00 8.097349e+00 -1.621453e+00 -4.418886e+00 -7.527618e+00 1.931976e+01 5.006182e+01 2.744177e+01 6.778286e+00 7.942331e+00 -1.733181e+00 -2.580896e+00 -9.779828e+00 1.748198e+01 5.475666e+01 2.475575e+01 2.407698e+01 2.245419e-01 1.909405e+00 -2.146035e+00 -7.933581e-01 -9.015552e-01 -4.343812e-01 -2.221404e-01 -1.970438e-01 1.411370e-01 -2.746533e-01 
-4.054182e-02 -1.329058e-01 -1.181027e-02 -1.929369e-01 1.753997e+00 1.272570e-01 -5.884347e-02 -1.636006e-01 -8.856746e-02 -1.858556e+00 1.114974e+00 -8.017650e+00 6.161326e+00 -1.600266e+01 6.675315e+00 -1.304853e+00 4.403416e-01 -1.068627e+01 2.051795e+01 6.222388e+01 3.600548e+01 1.288821e+01 1.076124e+01 -3.320442e+00 -4.716496e+00 -3.328575e+00 2.902029e+01 6.891048e+01 3.045540e+01 3.662618e+00 1.013203e+01 -6.954971e+00 -4.838556e+00 1.812947e+00 3.297164e+01 7.003676e+01 2.723066e+01 2.468955e-01 9.792287e+00 -8.057637e+00 -4.424219e+00 2.359087e+00 3.299745e+01 6.903578e+01 2.633437e+01 -4.630828e-01 9.414641e+00 -7.713612e+00 -3.082853e+00 -9.911196e-01 3.180090e+01 7.364590e+01 2.074775e+01 2.197176e+01 -2.605512e+00 -3.495528e-01 -2.631940e+00 -1.573385e+00 -9.044456e-01 -6.319657e-01 -2.541033e-01 -2.054289e-01 -8.540657e-02 -1.171164e-01 
-6.142569e-01 2.247006e-01 -7.626409e-01 -1.037837e-01 1.194104e+01 -4.728282e-01 -9.995388e-02 -1.842292e-02 1.785391e-01 6.497980e-01 -9.639340e-02 2.114941e+00 -1.501896e+00 4.255828e+00 -2.161610e+00 9.176663e-01 1.895673e-01 2.035635e+00 -7.579004e+00 -1.661587e+01 -7.667397e+00 1.906669e-01 -3.124581e+00 2.257437e+00 1.485138e+00 -8.694923e-01 -1.115980e+01 -2.141154e+01 -7.391432e+00 1.339776e+00 -3.435415e+00 3.339587e+00 1.766180e+00 -2.973046e+00 -1.367494e+01 -2.504508e+01 -7.458070e+00 1.847658e+00 -3.621716e+00 3.818873e+00 1.945795e+00 -3.283504e+00 -1.508187e+01 -2.827471e+01 -8.278514e+00 1.918227e+00 -3.780162e+00 3.763340e+00 1.880503e+00 -1.688703e+00 -1.647931e+01 -3.469749e+01 -7.353027e+00 -8.694281e+00 1.701928e+00 2.611445e-01 1.126284e+00 6.924281e-01 2.690697e-01 2.512709e-01 -7.741101e-02 6.669675e-02 -2.892440e-01 1.337331e-01 