# vtk DataFile Version 2.0
Comment goes here
ASCII

DATASET STRUCTURED_POINTS
FIELD FieldData 1
TIME 1 1 double
0.03300000
DIMENSIONS    64   64   1

ORIGIN    0.000   0.000   0.000
SPACING   0.03125 0.03125   1.000

POINT_DATA   4096
SCALARS Omega double
LOOKUP_TABLE default

7.385144e-02 -7.320958e-02 -5.624884e-02 -6.454196e-02 -5.619794e-02 -1.085065e-02 -3.977979e-02 -2.542175e-02 -4.450023e-02 2.343809e-03 -3.383426e-02 1.615164e-02 -3.894115e-03 3.063556e-02 1.530971e-02 6.178543e-02 2.215513e-02 7.177920e-02 5.236959e-02 7.277792e-02 7.269958e-02 7.735437e-02 7.337856e-02 1.145338e-01 4.678247e-02 1.105555e-01 8.231435e-02 8.154524e-02 1.002823e-01 8.438420e-02 8.740812e-02 9.784038e-02 8.011316e-02 1.090093e-01 8.353829e-02 9.763604e-02 8.681700e-02 9.409856e-02 8.506797e-02 9.494400e-02 8.992032e-02 7.460898e-02 1.038283e-01 5.444621e-02 9.739597e-02 6.068142e-02 6.506813e-02 6.801055e-02 4.847205e-02 5.029838e-02 4.043205e-02 1.898788e-02 2.834272e-02 -8.025082e-03 1.096164e-02 -1.926066e-02 -1.381544e-02 -3.266458e-02 -1.567836e-02 -5.488048e-02 -2.210454e-02 -5.169850e-02 -5.824593e-02 -4.010691e-02 
-9.092497e-01 -2.229321e+01 -3.218044e+00 -2.249371e+01 -2.581843e+00 -2.213153e+01 -3.821267e+00 -2.082256e+01 -6.865134e+00 -1.889637e+01 -1.005958e+01 -1.644859e+01 -1.346603e+01 -1.378570e+01 -1.671926e+01 -1.107005e+01 -2.027779e+01 -7.507555e+00 -2.486359e+01 -2.800758e+00 -3.028934e+01 2.395802e+00 -3.579290e+01 7.455147e+00 -4.094478e+01 1.217913e+01 -4.544533e+01 1.528663e+01 -4.694591e+01 1.440942e+01 -4.400480e+01 9.825429e+00 -3.876014e+01 4.517306e+00 -3.383640e+01 3.392765e-01 -3.083935e+01 -1.160780e+00 -3.080156e+01 -1.274322e-01 -3.266468e+01 2.429780e+00 -3.576672e+01 6.184153e+00 -3.969817e+01 1.006623e+01 -4.303487e+01 1.287424e+01 -4.476733e+01 1.379786e+01 -4.437793e+01 1.219166e+01 -4.108048e+01 7.807826e+00 -3.531124e+01 1.568957e+00 -2.794463e+01 -5.862875e+00 -1.993839e+01 -1.302675e+01 -1.265251e+01 -1.909683e+01 -6.079109e+00 -2.529375e+01 
-3.731593e+01 2.466703e+00 -2.275056e+01 4.671900e+00 -7.024683e+00 4.622326e+00 -2.548726e+01 3.757366e+00 -3.361986e+01 3.012688e+00 -3.894477e+01 2.044181e+00 -4.243863e+01 1.012194e+00 -4.509476e+01 1.335348e-01 -4.687092e+01 -1.262811e+00 -4.740969e+01 -3.339546e+00 -4.706712e+01 -5.596639e+00 -4.639899e+01 -7.805420e+00 -4.539505e+01 -1.021122e+01 -4.391576e+01 -1.213112e+01 -4.361762e+01 -1.188559e+01 -4.562758e+01 -9.473324e+00 -4.868567e+01 -6.848969e+00 -5.128227e+01 -4.773831e+00 -5.280229e+01 -4.113031e+00 -5.260198e+01 -4.644100e+00 -5.162613e+01 -5.598779e+00 -5.004607e+01 -7.191559e+00 -4.772173e+01 -8.899537e+00 -4.554998e+01 -1.004509e+01 -4.391713e+01 -1.040907e+01 -4.285076e+01 -9.609622e+00 -4.291862e+01 -7.429805e+00 -4.362938e+01 -4.666960e+00 -4.446626e+01 -1.283467e+00 -4.501654e+01 1.969728e+00 -4.418892e+01 4.628172e+00 -4.228277e+01 9.081452e+00 
-1.923037e+01 5.901598e+00 -1.201986e+01 6.867517e+00 -1.440364e+01 6.711465e+00 -1.205496e+01 6.490887e+00 -1.620145e+01 5.350140e+00 -1.866944e+01 4.027486e+00 -2.006624e+01 2.719104e+00 -2.093711e+01 1.549813e+00 -2.121737e+01 1.360370e-01 -2.061619e+01 -1.727467e+00 -1.933775e+01 -3.673502e+00 -1.784322e+01 -5.529788e+00 -1.626825e+01 -7.469011e+00 -1.460992e+01 -8.930029e+00 -1.413794e+01 -8.615919e+00 -1.569592e+01 -6.554640e+00 -1.822028e+01 -4.273723e+00 -2.045604e+01 -2.495089e+00 -2.180967e+01 -1.923006e+00 -2.174705e+01 -2.422972e+00 -2.093920e+01 -3.421464e+00 -1.959049e+01 -4.977025e+00 -1.770666e+01 -6.605875e+00 -1.599921e+01 -7.741044e+00 -1.482511e+01 -8.109018e+00 -1.429475e+01 -7.402674e+00 -1.484734e+01 -5.433821e+00 -1.617081e+01 -2.812534e+00 -1.787971e+01 3.509939e-01 -1.962663e+01 3.336434e+00 -2.056600e+01 5.789913e+00 -2.091920e+01 9.154763e+00 
-3.962995e-01 6.840579e-01 -1.007376e+00 -8.948561e-01 -2.861832e+01 9.549807e-02 5.212288e-01 -5.101315e-02 -8.186309e-02 -4.252652e-02 -3.018838e-01 -2.911200e-02 -3.843337e-01 -1.932531e-02 -3.995410e-01 -1.810413e-02 -3.762445e-01 -2.844105e-02 -3.415646e-01 -4.727522e-02 -3.098988e-01 -6.896430e-02 -2.857868e-01 -8.531713e-02 -2.676763e-01 -9.071437e-02 -2.574226e-01 -8.812341e-02 -2.537383e-01 -8.963954e-02 -2.510822e-01 -9.767344e-02 -2.445892e-01 -1.014188e-01 -2.406081e-01 -9.610796e-02 -2.467816e-01 -8.303498e-02 -2.649183e-01 -6.813675e-02 -2.875399e-01 -5.369650e-02 -3.063994e-01 -3.717891e-02 -3.147660e-01 -2.833533e-02 -3.083071e-01 -3.411954e-02 -2.858854e-01 -5.389853e-02 -2.521516e-01 -8.244908e-02 -2.111069e-01 -1.097037e-01 -1.678675e-01 -1.218661e-01 -1.276831e-01 -1.028040e-01 -9.930745e-02 -4.760087e-02 -9.868152e-02 1.538110e-02 -1.827105e-01 3.277913e-01 
-2.344744e-01 -2.431753e-02 -7.108098e-01 -8.964188e-01 -3.518151e+01 -3.305908e-01 6.609286e-01 -1.954216e-01 3.818417e-01 -1.018206e-01 2.036799e-01 -5.970877e-02 1.126851e-01 -3.545528e-02 6.654965e-02 -2.392103e-02 4.203087e-02 -2.426937e-02 2.314439e-02 -2.122311e-02 8.195975e-03 -1.601384e-02 -3.207252e-04 -1.373553e-02 2.381042e-04 -1.670749e-02 1.161597e-03 -1.291629e-02 3.321277e-04 -4.724740e-03 -1.872475e-03 -1.269846e-03 -1.024209e-03 -6.589905e-03 -2.920990e-03 -7.403765e-03 -8.544490e-03 -2.084110e-03 -1.077732e-02 3.145055e-03 -4.962673e-03 1.806991e-03 -1.239259e-03 5.429597e-03 -3.082076e-03 1.272754e-02 -5.053873e-03 1.740233e-02 -2.367838e-03 1.495826e-02 -2.168493e-03 1.654330e-02 -8.496715e-03 2.272081e-02 -2.124622e-02 3.007556e-02 -4.293231e-02 3.675410e-02 -7.752905e-02 4.373507e-02 -1.367527e-01 5.770642e-02 -2.390235e-01 3.483341e-01 
-3.313115e-01 6.126932e-02 -6.483306e-01 -1.134685e+00 -4.233587e+01 -4.965323e-01 5.594308e-01 -1.597652e-01 3.935493e-01 -1.064968e-01 2.244686e-01 -6.954392e-02 1.355302e-01 -4.228181e-02 9.120225e-02 -2.830454e-02 7.092024e-02 -2.860698e-02 4.682883e-02 -2.418149e-02 2.367565e-02 -1.844408e-02 8.135026e-03 -1.732611e-02 5.815035e-03 -2.419652e-02 1.323473e-03 -2.024019e-02 -4.895495e-03 -1.075786e-02 -8.595900e-03 -6.688274e-03 -4.087169e-03 -1.391145e-02 -4.900612e-03 -1.191118e-02 -9.950905e-03 -2.276542e-03 -1.100639e-02 5.753060e-03 -8.600978e-04 4.570951e-03 5.327769e-03 1.210574e-02 4.783055e-03 2.464530e-02 3.816979e-03 3.212993e-02 8.585077e-03 2.780949e-02 7.005278e-03 2.786778e-02 -4.585407e-03 3.238088e-02 -2.566870e-02 3.778549e-02 -5.632303e-02 4.471843e-02 -9.820971e-02 5.900225e-02 -1.582238e-01 9.877356e-02 -2.564630e-01 2.226646e-01 
-2.511790e-01 1.257934e-01 -3.676388e-01 -1.071272e+00 -4.601276e+01 -4.970662e-01 3.086518e-01 -2.109916e-01 3.196783e-01 -1.413089e-01 2.077293e-01 -9.418291e-02 1.235035e-01 -6.198707e-02 7.389957e-02 -4.574643e-02 6.045380e-02 -5.561274e-02 3.969216e-02 -4.337324e-02 1.619419e-02 -2.254940e-02 1.125823e-03 -1.231221e-02 1.076830e-02 -2.918746e-02 1.243420e-02 -2.228732e-02 1.669127e-03 -3.302240e-03 -8.035998e-03 5.753035e-03 3.533055e-03 -1.465348e-02 7.200929e-03 -1.155786e-02 -4.111749e-03 6.107246e-03 -1.413120e-02 1.651415e-02 -1.418247e-03 -1.400145e-03 5.410506e-03 3.862116e-03 -4.061480e-03 2.314583e-02 -1.461014e-02 3.466592e-02 -5.246389e-03 1.715860e-02 1.427305e-03 1.829830e-02 -6.578316e-03 3.309397e-02 -2.332185e-02 4.979559e-02 -4.766631e-02 6.680017e-02 -8.282446e-02 8.888148e-02 -1.354400e-01 1.282031e-01 -2.066766e-01 2.002536e-01 
-2.552983e-01 1.481504e-01 -2.739168e-01 -1.156344e+00 -5.027446e+01 -6.252825e-01 1.758854e-01 -1.917620e-01 2.702499e-01 -1.320168e-01 1.873179e-01 -9.147439e-02 1.163834e-01 -6.105310e-02 7.671657e-02 -4.878203e-02 8.406429e-02 -6.827455e-02 5.459655e-02 -4.561705e-02 2.129349e-02 -1.954082e-02 3.850943e-04 -1.133958e-02 1.823868e-02 -4.143177e-02 1.359241e-02 -2.905281e-02 -5.001834e-03 -4.371769e-03 -1.876902e-02 5.792937e-03 2.756635e-03 -2.623480e-02 6.741801e-03 -1.725369e-02 -7.888846e-03 8.310970e-03 -2.034902e-02 2.277899e-02 1.776361e-03 -4.497641e-03 1.111795e-02 6.518685e-03 -9.253696e-04 3.362251e-02 -1.503796e-02 4.925491e-02 -8.890502e-04 2.210094e-02 7.743461e-03 2.223716e-02 -3.163487e-03 3.687006e-02 -2.532073e-02 5.240452e-02 -5.466471e-02 6.890353e-02 -9.210731e-02 9.186143e-02 -1.418454e-01 1.269520e-01 -2.056149e-01 1.644267e-01 
-1.590644e-01 1.634881e-01 -7.178751e-02 -1.138498e+00 -5.197627e+01 -5.677787e-01 1.573936e-02 -2.144659e-01 1.701439e-01 -1.558650e-01 1.379181e-01 -1.082836e-01 8.174995e-02 -6.694039e-02 3.691252e-02 -4.485094e-02 7.783301e-02 -1.152824e-01 6.024055e-02 -7.125959e-02 1.494061e-02 -1.362529e-02 -2.389140e-02 1.408528e-02 1.996469e-02 -7.115111e-02 3.594544e-02 -4.223580e-02 2.057467e-03 1.134824e-02 -3.593952e-02 4.004508e-02 5.814595e-03 -5.172821e-02 3.191248e-02 -2.904056e-02 -2.597643e-04 2.415832e-02 -4.029339e-02 5.639259e-02 -2.873209e-03 -3.288845e-02 2.800736e-02 -1.084583e-02 -2.545079e-03 4.413914e-02 -4.505653e-02 8.141046e-02 -1.799781e-02 -4.279180e-03 1.929870e-02 4.248463e-03 5.781573e-03 3.807696e-02 -1.797275e-02 6.422372e-02 -4.276348e-02 8.600806e-02 -7.082350e-02 1.105181e-01 -1.051781e-01 1.415823e-01 -1.413148e-01 1.711313e-01 
-1.377850e-01 1.648903e-01 4.647249e-03 -1.149197e+00 -5.432076e+01 -6.779232e-01 -8.337541e-02 -2.142357e-01 1.187831e-01 -1.470854e-01 1.042336e-01 -9.530932e-02 5.324629e-02 -4.931982e-02 9.390162e-03 -4.046073e-02 1.269207e-01 -1.620180e-01 7.592239e-02 -6.711779e-02 8.974328e-03 5.952666e-03 -4.600071e-02 3.043585e-02 4.346785e-02 -1.089762e-01 4.584143e-02 -4.692896e-02 -6.381516e-03 2.316915e-02 -6.190552e-02 5.805999e-02 1.559476e-02 -8.547246e-02 4.195062e-02 -3.588251e-02 -3.858724e-03 3.566746e-02 -6.123560e-02 8.013140e-02 3.875077e-03 -5.675790e-02 4.334343e-02 -1.345111e-02 1.663398e-03 5.852654e-02 -5.953805e-02 1.113100e-01 -2.087264e-02 -1.445048e-02 3.355842e-02 6.148387e-04 1.569699e-02 3.914355e-02 -1.611206e-02 6.529618e-02 -4.536609e-02 8.566647e-02 -7.344342e-02 1.083574e-01 -1.030810e-01 1.354230e-01 -1.303137e-01 1.598789e-01 
-5.267518e-02 1.674742e-01 1.444730e-01 -1.150088e+00 -5.458142e+01 -5.873040e-01 -1.714741e-01 -2.245671e-01 3.758194e-02 -1.650754e-01 5.625938e-02 -1.069761e-01 1.347554e-02 -2.864308e-02 -8.729534e-02 4.823195e-02 1.239208e-01 -3.187539e-01 1.318877e-01 -1.015545e-01 1.199138e-02 4.290427e-02 -1.248127e-01 1.535061e-01 2.461576e-02 -2.511757e-01 1.250209e-01 -7.697857e-02 1.257897e-02 6.487843e-02 -1.330483e-01 1.951331e-01 -1.162980e-02 -2.255631e-01 1.292672e-01 -6.750225e-02 1.899496e-02 7.555288e-02 -1.321623e-01 2.198470e-01 -3.556090e-02 -1.975793e-01 1.272971e-01 -5.076825e-02 2.140977e-02 9.449870e-02 -1.343471e-01 2.590430e-01 -8.171366e-02 -1.419248e-01 1.054074e-01 -3.087464e-02 3.824295e-02 5.056318e-02 -1.073783e-02 8.146642e-02 -3.561127e-02 1.003255e-01 -5.166555e-02 1.208534e-01 -6.474398e-02 1.445714e-01 -7.004067e-02 1.661054e-01 
-2.960617e-02 1.673587e-01 1.980916e-01 -1.131404e+00 -5.552517e+01 -6.709368e-01 -2.341093e-01 -2.373594e-01 5.535204e-03 -1.660486e-01 3.096534e-02 -8.888470e-02 -3.131945e-02 3.995946e-02 -2.279295e-01 1.287940e-01 2.813987e-01 -5.008162e-01 1.584900e-01 -5.045333e-02 -1.408804e-02 1.108247e-01 -2.334153e-01 2.527472e-01 9.926650e-02 -3.942331e-01 1.637918e-01 -5.724753e-02 -2.960527e-04 1.101968e-01 -2.263256e-01 3.014704e-01 1.838072e-02 -3.473750e-01 1.772403e-01 -6.171437e-02 1.822952e-02 1.107256e-01 -2.094769e-01 3.326372e-01 -3.473739e-02 -2.959806e-01 1.858162e-01 -5.205023e-02 3.488350e-02 1.205446e-01 -1.910136e-01 3.761559e-01 -1.306802e-01 -1.960156e-01 1.669148e-01 -4.238012e-02 6.053810e-02 5.447591e-02 -1.123640e-02 8.449662e-02 -4.014733e-02 1.000234e-01 -5.328802e-02 1.177360e-01 -6.037004e-02 1.392205e-01 -5.742096e-02 1.609492e-01 
3.615187e-02 1.639892e-01 2.965015e-01 -1.144577e+00 -5.468107e+01 -5.559660e-01 -2.743719e-01 -2.458968e-01 -4.857814e-02 -1.971139e-01 1.165656e-02 -1.346174e-01 -1.276403e-02 8.592874e-02 -4.866920e-01 7.972463e-01 2.738789e-01 -1.095120e+00 4.354929e-01 1.547978e-04 1.058721e-02 1.835735e-01 -4.707303e-01 9.297044e-01 -2.676767e-02 -1.084915e+00 4.974467e-01 -2.751453e-02 4.498641e-02 1.694290e-01 -4.419438e-01 9.937319e-01 -1.642644e-01 -1.073796e+00 5.407496e-01 -4.139776e-02 7.108205e-02 1.595226e-01 -4.113674e-01 1.026252e+00 -2.634627e-01 -1.031635e+00 5.611593e-01 -4.506809e-02 9.287838e-02 1.570798e-01 -3.747811e-01 1.088479e+00 -4.334789e-01 -8.999399e-01 5.282409e-01 7.842258e-03 5.724527e-02 1.122594e-01 -3.766857e-02 1.085111e-01 -4.245791e-02 1.117045e-01 -3.572141e-02 1.251471e-01 -2.640534e-02 1.438448e-01 -7.345489e-03 1.631027e-01 
5.315702e-02 1.624589e-01 3.302980e-01 -1.115023e+00 -5.453429e+01 -6.114608e-01 -3.044538e-01 -2.693527e-01 -5.063292e-02 -2.303057e-01 3.251099e-02 -1.752634e-01 3.272861e-03 2.453927e-01 -1.161713e+00 1.733380e+00 3.908722e+00 1.472900e+00 5.961556e-01 4.387102e-01 -4.524340e-02 3.133969e-01 -9.764544e-01 1.712772e+00 3.053596e+00 2.250789e-01 6.873666e-01 2.609019e-01 2.249899e-02 2.471239e-01 -8.453005e-01 1.685994e+00 2.657132e+00 -4.065362e-01 7.571466e-01 1.696319e-01 6.874971e-02 2.048820e-01 -7.343361e-01 1.636515e+00 2.298953e+00 -8.485663e-01 8.058675e-01 9.867230e-02 1.111215e-01 1.656697e-01 -5.950555e-01 1.583776e+00 1.717456e+00 -1.475141e+00 8.053322e-01 5.127743e-02 6.159194e-02 1.461622e-01 -6.859300e-02 1.199188e-01 -5.814277e-02 1.130349e-01 -3.962964e-02 1.220626e-01 -2.257790e-02 1.389431e-01 2.996144e-03 1.589609e-01 
1.004365e-01 1.540668e-01 3.988842e-01 -1.127674e+00 -5.281744e+01 -4.798394e-01 -3.160284e-01 -2.675719e-01 -9.226165e-02 -2.818472e-01 3.184584e-02 -4.196860e-01 2.690682e-01 -5.023454e-01 -7.419007e-01 2.831559e+00 3.135077e+01 3.041443e+01 3.426663e+00 1.575309e+00 -3.337258e-01 -3.600675e-01 -7.349409e-01 3.114346e+00 3.185506e+01 3.003334e+01 3.694074e+00 1.486767e+00 -2.761844e-01 -4.072448e-01 -6.219982e-01 3.119084e+00 3.209691e+01 2.987716e+01 3.920375e+00 1.442118e+00 -2.489778e-01 -4.466048e-01 -5.269122e-01 2.944430e+00 3.158378e+01 2.925149e+01 4.071931e+00 1.370192e+00 -2.114038e-01 -4.979613e-01 -3.982351e-01 2.454123e+00 3.031033e+01 2.813605e+01 4.284941e+00 1.529310e+00 -5.647847e-01 1.974219e-01 -1.939259e-01 1.204608e-01 -6.705305e-02 1.133540e-01 -2.082567e-02 1.231781e-01 7.970346e-03 1.390351e-01 4.268974e-02 1.569539e-01 
1.100782e-01 1.486991e-01 4.156962e-01 -1.084022e+00 -5.178272e+01 -5.127543e-01 -3.274175e-01 -2.801498e-01 -7.577965e-02 -3.347829e-01 1.345850e-01 -6.832773e-01 7.460616e-01 -1.811238e+00 1.360242e+00 4.864836e+00 3.805674e+01 3.412787e+01 2.438419e+00 4.858321e-01 9.127295e-02 -1.457833e+00 7.302142e-01 6.524163e+00 4.278418e+01 3.754757e+01 1.858206e+00 9.515052e-01 -1.192697e-01 -1.233330e+00 4.550140e-01 7.302491e+00 4.528343e+01 3.944305e+01 1.584882e+00 1.214941e+00 -2.557349e-01 -1.076584e+00 2.535393e-01 7.490206e+00 4.618761e+01 4.031576e+01 1.464938e+00 1.421327e+00 -3.741498e-01 -8.971146e-01 -1.200288e-02 7.272344e+00 4.675834e+01 4.145299e+01 1.369820e+00 2.070226e+00 -1.011812e+00 3.060924e-01 -2.909201e-01 1.310714e-01 -8.344795e-02 1.101316e-01 -1.989555e-02 1.172391e-01 1.331837e-02 1.325069e-01 5.039410e-02 1.512193e-01 
1.421549e-01 1.360775e-01 4.590382e-01 -1.068449e+00 -4.938759e+01 -3.861754e-01 -3.232301e-01 -2.202912e-01 -1.235810e-01 -1.920256e-01 -2.875406e-03 -2.057457e-01 1.439666e-01 -3.074096e-01 1.162215e+00 -4.007947e+00 -2.130349e+01 -1.874923e+01 6.858331e-01 -1.521683e+00 5.301277e-01 -3.288880e-02 5.257924e-01 -3.797435e+00 -1.892832e+01 -1.599287e+01 2.558269e-01 -8.897449e-01 2.347919e-01 3.249492e-01 4.050676e-02 -3.499571e+00 -1.755464e+01 -1.448744e+01 -5.687932e-02 -5.240308e-01 5.490885e-02 5.580466e-01 -2.890388e-01 -3.082709e+00 -1.608943e+01 -1.311475e+01 -3.761829e-01 -1.934245e-01 -1.248586e-01 8.198823e-01 -6.874868e-01 -2.361097e+00 -1.375061e+01 -1.113399e+01 -8.254495e-01 6.905841e-02 -1.567304e-02 1.662370e-01 1.712742e-04 1.211403e-01 6.113884e-03 1.090993e-01 2.080295e-02 1.153098e-01 4.419466e-02 1.289927e-01 8.123112e-02 1.454985e-01 
1.452530e-01 1.274286e-01 4.597021e-01 -9.932881e-01 -4.761965e+01 -4.090851e-01 -3.416189e-01 -1.819015e-01 -1.743147e-01 -6.766317e-02 -1.896681e-01 2.316549e-01 -5.807947e-01 8.905292e-01 -3.293771e-01 -3.711013e+00 -4.142674e+01 -3.905873e+01 -3.728812e+00 -1.511248e+00 3.725304e-01 8.087110e-01 -6.283519e-02 -5.337817e+00 -4.472767e+01 -4.100185e+01 -3.225110e+00 -1.448399e+00 3.600329e-01 8.804841e-01 -1.216559e-01 -6.023930e+00 -4.648974e+01 -4.213263e+01 -3.053175e+00 -1.415887e+00 3.546178e-01 9.315521e-01 -1.649233e-01 -6.125217e+00 -4.678847e+01 -4.240082e+01 -3.001123e+00 -1.371169e+00 3.347066e-01 9.938909e-01 -2.083248e-01 -5.713054e+00 -4.640885e+01 -4.274467e+01 -2.993282e+00 -1.755358e+00 9.412716e-01 -4.328797e-02 2.386391e-01 6.934791e-02 6.976889e-02 9.005539e-02 4.128447e-02 1.038668e-01 5.292972e-02 1.197010e-01 8.623354e-02 1.373138e-01 
1.641984e-01 1.137900e-01 4.797339e-01 -9.644265e-01 -4.474341e+01 -3.017660e-01 -3.311792e-01 -1.570010e-01 -2.077666e-01 -7.178188e-02 -2.187657e-01 1.063254e-01 -4.166502e-01 4.496245e-01 -1.099471e-01 -5.789692e-01 -1.209641e+01 -9.945303e+00 -2.992153e+00 -5.451679e-01 -1.326601e-01 1.991455e-01 4.901790e-01 -1.312775e+00 -1.441174e+01 -1.219061e+01 -2.801111e+00 -7.819431e-01 -4.862712e-03 1.031474e-01 7.466595e-01 -1.669038e+00 -1.576890e+01 -1.349640e+01 -2.735157e+00 -9.289931e-01 6.351494e-02 3.757955e-02 8.952701e-01 -1.813513e+00 -1.646072e+01 -1.434708e+01 -2.663380e+00 -1.049134e+00 1.270503e-01 -4.745395e-02 1.079348e+00 -1.818447e+00 -1.708651e+01 -1.554503e+01 -2.544087e+00 -1.396004e+00 3.973121e-01 -1.590519e-01 1.633342e-01 1.409839e-02 7.616275e-02 6.697441e-02 5.959204e-02 9.230140e-02 7.277671e-02 1.111388e-01 1.062324e-01 1.282368e-01 
1.604412e-01 1.036760e-01 4.665026e-01 -8.912003e-01 -4.241487e+01 -3.117645e-01 -3.330031e-01 -1.418186e-01 -2.170835e-01 -6.865417e-02 -2.169806e-01 1.393344e-03 -2.464330e-01 -4.873412e-02 1.703274e-01 -1.296976e+00 3.097167e-01 1.926492e+00 -8.351379e-01 1.004163e-01 -2.100150e-01 -1.549275e-01 4.539555e-01 -1.376780e+00 -2.117527e-02 1.804440e+00 -7.183983e-01 2.574556e-02 -1.263119e-01 -2.024820e-01 5.919738e-01 -1.435017e+00 -2.546564e-01 1.725399e+00 -6.677949e-01 -2.303077e-02 -8.536000e-02 -2.374770e-01 6.755435e-01 -1.457172e+00 -4.199306e-01 1.614559e+00 -6.216457e-01 -7.430118e-02 -4.062490e-02 -2.934139e-01 7.920246e-01 -1.518923e+00 -5.903951e-01 1.421874e+00 -4.878884e-01 -1.919952e-01 6.192978e-02 -1.123779e-01 1.046352e-01 -2.134646e-03 7.509669e-02 5.121677e-02 6.423295e-02 7.995904e-02 7.530034e-02 1.005770e-01 1.058392e-01 1.185014e-01 
1.682058e-01 9.068370e-02 4.650016e-01 -8.449509e-01 -3.919249e+01 -2.338511e-01 -3.089173e-01 -1.294201e-01 -2.136275e-01 -7.793321e-02 -1.904044e-01 -4.218088e-02 -1.612689e-01 -1.094277e-01 1.184197e-01 -7.344247e-01 3.675459e-01 4.469390e-01 -4.536547e-01 8.140188e-02 -1.359402e-01 -1.169445e-01 2.284035e-01 -6.978966e-01 2.527705e-01 5.741064e-01 -3.928657e-01 6.643905e-02 -7.170212e-02 -1.329464e-01 2.893970e-01 -6.768520e-01 1.710048e-01 6.537581e-01 -3.716982e-01 5.863962e-02 -4.160803e-02 -1.449065e-01 3.236710e-01 -6.567783e-01 1.060601e-01 7.072365e-01 -3.512633e-01 4.482428e-02 -7.370492e-03 -1.702724e-01 3.772542e-01 -6.534237e-01 4.635336e-02 7.640813e-01 -3.010365e-01 3.176464e-02 1.667133e-02 -3.945392e-02 6.894310e-02 5.792084e-03 6.673947e-02 4.489609e-02 6.853846e-02 7.156424e-02 8.411708e-02 9.156356e-02 1.153961e-01 1.081647e-01 
1.581111e-01 8.118909e-02 4.393201e-01 -7.746025e-01 -3.642252e+01 -2.365030e-01 -2.937225e-01 -1.254834e-01 -1.959088e-01 -8.700712e-02 -1.573970e-01 -7.938748e-02 -9.188696e-02 -1.422405e-01 9.625531e-02 -3.501482e-01 9.823683e-02 1.848523e-01 -2.242800e-01 5.603195e-02 -8.155016e-02 -1.102817e-01 1.476539e-01 -3.116361e-01 6.116547e-02 2.456109e-01 -1.875520e-01 5.964205e-02 -4.004393e-02 -1.086500e-01 1.800434e-01 -2.895198e-01 2.545003e-02 2.882745e-01 -1.762863e-01 6.405989e-02 -2.187053e-02 -1.076700e-01 1.972570e-01 -2.712737e-01 -4.169483e-03 3.193314e-01 -1.644606e-01 6.297646e-02 1.957704e-03 -1.163998e-01 2.301776e-01 -2.611818e-01 -2.893924e-02 3.610965e-01 -1.399551e-01 9.094224e-02 -1.376125e-02 6.032853e-03 4.077256e-02 1.592613e-02 5.486263e-02 4.133940e-02 6.328724e-02 6.376644e-02 7.968482e-02 8.242567e-02 1.090464e-01 9.850986e-02 
1.567026e-01 6.997215e-02 4.195468e-01 -7.114793e-01 -3.293421e+01 -1.825792e-01 -2.634370e-01 -1.154380e-01 -1.804238e-01 -8.664981e-02 -1.382903e-01 -8.213243e-02 -8.064122e-02 -1.195926e-01 3.007791e-02 -2.085892e-01 2.261496e-02 5.821139e-02 -1.193720e-01 1.896092e-02 -5.059660e-02 -7.272596e-02 6.493889e-02 -1.680524e-01 1.997931e-02 1.045587e-01 -9.309358e-02 3.447473e-02 -2.056360e-02 -6.160073e-02 8.491184e-02 -1.474739e-01 9.078329e-03 1.334772e-01 -8.580326e-02 4.497339e-02 -8.189576e-03 -5.455106e-02 9.406314e-02 -1.320876e-01 -2.315243e-03 1.543112e-01 -7.937554e-02 5.088439e-02 7.232243e-03 -5.257361e-02 1.116536e-01 -1.179718e-01 -1.108779e-02 1.874314e-01 -7.228219e-02 8.548874e-02 -4.478222e-03 2.774568e-02 3.316701e-02 2.642307e-02 4.927895e-02 4.197477e-02 6.200514e-02 5.912006e-02 8.076586e-02 7.471622e-02 1.101124e-01 8.837635e-02 
1.415202e-01 6.191324e-02 3.832437e-01 -6.396676e-01 -2.980406e+01 -1.801284e-01 -2.395914e-01 -1.111940e-01 -1.568917e-01 -8.649920e-02 -1.142354e-01 -8.276238e-02 -6.323153e-02 -9.981687e-02 2.016013e-03 -1.234572e-01 -1.093707e-02 -5.810612e-03 -6.465726e-02 -5.700678e-03 -2.981432e-02 -5.168104e-02 2.947618e-02 -8.356423e-02 -2.897685e-03 3.070203e-02 -4.439561e-02 1.220577e-02 -8.606689e-03 -3.781875e-02 4.295663e-02 -6.526948e-02 -6.023083e-03 5.181687e-02 -3.878243e-02 2.338411e-02 -1.803041e-04 -2.888001e-02 4.882424e-02 -5.202109e-02 -1.064128e-02 6.779237e-02 -3.359561e-02 3.158902e-02 1.089827e-02 -2.236932e-02 6.013363e-02 -3.710048e-02 -1.515880e-02 9.656375e-02 -3.285731e-02 6.619393e-02 -2.003006e-03 3.501487e-02 2.365354e-02 3.133371e-02 3.948215e-02 4.085290e-02 5.333966e-02 5.384479e-02 7.179154e-02 6.702921e-02 9.901986e-02 7.933028e-02 
1.328405e-01 5.246326e-02 3.496987e-01 -5.664261e-01 -2.610961e+01 -1.400312e-01 -2.071491e-01 -1.008173e-01 -1.382760e-01 -8.014064e-02 -1.010433e-01 -7.220601e-02 -6.673407e-02 -7.192839e-02 -3.478940e-02 -7.377555e-02 -1.993690e-02 -4.733918e-02 -2.792193e-02 -2.790483e-02 -2.007852e-02 -3.010708e-02 -5.397456e-03 -3.476388e-02 -6.725816e-03 -1.370340e-02 -1.093291e-02 -7.397561e-03 -3.433702e-03 -1.453654e-02 5.287457e-03 -1.763151e-02 -5.401532e-03 3.300953e-03 -5.553243e-03 3.788618e-03 3.328996e-03 -5.089283e-03 9.648194e-03 -5.580848e-03 -6.929020e-03 1.661336e-02 -1.821131e-03 1.342256e-02 1.032339e-02 4.959284e-03 1.487908e-02 1.157840e-02 -1.153091e-02 4.186402e-02 -2.810885e-03 4.008193e-02 1.078552e-02 3.458726e-02 2.322718e-02 3.531818e-02 3.503625e-02 4.141288e-02 4.887136e-02 5.022571e-02 6.754216e-02 6.001851e-02 9.364930e-02 6.958245e-02 
1.140233e-01 4.538080e-02 3.054471e-01 -4.928586e-01 -2.268661e+01 -1.317847e-01 -1.785693e-01 -9.386416e-02 -1.140767e-01 -7.411606e-02 -8.243606e-02 -6.200766e-02 -6.103402e-02 -4.877672e-02 -5.138563e-02 -3.939302e-02 -1.410932e-02 -7.356068e-02 -4.007576e-03 -3.612851e-02 -1.348976e-02 -1.267289e-02 -2.455712e-02 -2.065433e-03 -4.662026e-03 -4.181631e-02 9.278132e-03 -1.769082e-02 -5.891551e-04 8.184408e-04 -1.647767e-02 1.340163e-02 -4.680417e-03 -2.730274e-02 1.407388e-02 -8.516446e-03 5.249024e-03 8.849869e-03 -1.282364e-02 2.451512e-02 -6.764294e-03 -1.523161e-02 1.742231e-02 4.630650e-04 1.067975e-02 1.915411e-02 -1.039758e-02 4.231943e-02 -1.488692e-02 7.875516e-03 1.491129e-02 2.023129e-02 1.621597e-02 3.107477e-02 1.856435e-02 3.526965e-02 2.635339e-02 3.933337e-02 3.875426e-02 4.529091e-02 5.594884e-02 5.276749e-02 7.939537e-02 6.074011e-02 
9.983607e-02 3.682869e-02 2.629470e-01 -4.174601e-01 -1.884054e+01 -9.651653e-02 -1.438457e-01 -8.363643e-02 -9.209038e-02 -6.873458e-02 -6.439525e-02 -5.300806e-02 -5.646886e-02 -1.692667e-02 -9.078415e-02 3.907923e-02 -3.221197e-02 -1.529019e-01 5.315820e-02 -5.603780e-02 7.296915e-04 1.630481e-02 -6.622356e-02 7.763192e-02 -2.479067e-02 -1.206591e-01 6.188659e-02 -3.799564e-02 1.025818e-02 2.819636e-02 -5.982509e-02 9.253973e-02 -2.458718e-02 -1.084975e-01 6.675975e-02 -3.038027e-02 1.557948e-02 3.496311e-02 -5.667166e-02 1.032085e-01 -2.735469e-02 -9.798407e-02 7.000448e-02 -2.191780e-02 1.941028e-02 4.675774e-02 -5.797222e-02 1.254484e-01 -4.187090e-02 -7.530087e-02 6.487873e-02 -6.335243e-03 2.927806e-02 3.308409e-02 1.443416e-02 3.894297e-02 1.865028e-02 3.896576e-02 3.106446e-02 4.102962e-02 4.787991e-02 4.543128e-02 6.940073e-02 5.092102e-02 
7.883287e-02 2.969425e-02 2.138599e-01 -3.440285e-01 -1.518693e+01 -8.078886e-02 -1.112521e-01 -7.467983e-02 -6.628372e-02 -6.288265e-02 -4.299683e-02 -4.490136e-02 -4.702430e-02 9.134061e-03 -1.215969e-01 1.071539e-01 -2.825661e-02 -2.227759e-01 9.530806e-02 -5.194398e-02 8.003944e-03 4.205430e-02 -1.022345e-01 1.422751e-01 -2.996343e-02 -1.872476e-01 1.002981e-01 -3.843154e-02 1.457456e-02 4.970635e-02 -9.709856e-02 1.551442e-01 -3.439836e-02 -1.752523e-01 1.056382e-01 -3.389600e-02 1.965806e-02 5.389429e-02 -9.334439e-02 1.653095e-01 -4.143585e-02 -1.651811e-01 1.097427e-01 -2.762301e-02 2.307756e-02 6.446651e-02 -9.528161e-02 1.900618e-01 -6.617572e-02 -1.428653e-01 1.035656e-01 -1.695385e-02 3.370719e-02 3.486012e-02 6.387755e-03 3.912230e-02 8.138377e-03 3.592324e-02 1.981700e-02 3.530563e-02 3.504827e-02 3.764309e-02 5.350511e-02 4.159689e-02 
6.086499e-02 2.100657e-02 1.665974e-01 -2.709744e-01 -1.124162e+01 -4.429034e-02 -7.451761e-02 -6.431263e-02 -4.152104e-02 -6.629352e-02 -1.139350e-02 -6.325918e-02 -1.457586e-03 2.128465e-02 -1.811544e-01 4.583264e-01 -1.799414e-01 -5.949565e-01 3.262310e-01 -3.394098e-02 3.898995e-02 7.846084e-02 -1.908598e-01 4.917729e-01 -1.745405e-01 -5.561669e-01 3.166167e-01 -2.412117e-02 4.028808e-02 8.176506e-02 -1.893197e-01 5.039486e-01 -1.724266e-01 -5.483315e-01 3.204095e-01 -2.127142e-02 4.367169e-02 8.414848e-02 -1.861323e-01 5.139523e-01 -1.795449e-01 -5.433590e-01 3.266969e-01 -1.631645e-02 4.673594e-02 9.514719e-02 -1.884313e-01 5.525001e-01 -2.202035e-01 -5.272883e-01 3.161654e-01 1.867118e-02 2.238840e-02 6.627192e-02 -1.920908e-02 4.590330e-02 -6.970735e-03 3.320982e-02 9.660542e-03 2.893532e-02 2.500066e-02 2.909130e-02 4.074870e-02 3.120804e-02 
3.910467e-02 1.293146e-02 1.156193e-01 -1.986417e-01 -7.416160e+00 -1.942459e-02 -3.918319e-02 -5.255394e-02 -1.493027e-02 -6.443299e-02 1.888283e-02 -7.661270e-02 3.977598e-02 1.655479e-02 -2.521374e-01 5.335481e-01 7.416048e-01 -3.452508e-02 5.446963e-01 6.661169e-02 4.676670e-02 9.380086e-02 -2.933683e-01 6.157267e-01 8.235778e-01 -5.296730e-03 5.202808e-01 6.967318e-02 4.232861e-02 9.527084e-02 -2.972406e-01 6.462496e-01 8.905635e-01 1.610269e-02 5.233492e-01 7.182916e-02 4.267321e-02 9.666326e-02 -2.934410e-01 6.528865e-01 9.111937e-01 3.822474e-02 5.339129e-01 7.733079e-02 4.280721e-02 1.072910e-01 -2.934141e-01 6.681525e-01 8.762504e-01 5.930730e-02 5.282116e-01 1.286977e-01 -6.732062e-03 8.767713e-02 -4.227156e-02 4.598527e-02 -2.040892e-02 2.748774e-02 -1.264663e-03 2.117199e-02 1.264320e-02 1.998737e-02 2.475974e-02 2.089370e-02 
1.908374e-02 3.617518e-03 6.630108e-02 -1.244951e-01 -3.425839e+00 1.924630e-02 -4.268099e-03 -3.409944e-02 2.370179e-03 -6.961566e-02 4.810355e-02 -1.801975e-01 1.929019e-01 -3.616170e-01 1.664876e-02 -9.577874e-01 1.297760e+01 1.553744e+01 3.033526e+00 9.944929e-01 -1.260881e-01 -2.448488e-01 -1.666246e-01 -2.955600e-01 1.419421e+01 1.594736e+01 2.825917e+00 9.153981e-01 -1.292171e-01 -2.387767e-01 -1.943583e-01 -2.154445e-02 1.486995e+01 1.626175e+01 2.767165e+00 9.009913e-01 -1.356215e-01 -2.360170e-01 -1.961382e-01 -1.986984e-02 1.499512e+01 1.637316e+01 2.776846e+00 9.155373e-01 -1.432507e-01 -2.371754e-01 -1.784724e-01 -3.139207e-01 1.480490e+01 1.659567e+01 2.858072e+00 1.144104e+00 -3.529063e-01 1.125120e-01 -1.189408e-01 3.324924e-02 -3.495746e-02 1.619703e-02 -7.779708e-03 1.132518e-02 3.808083e-03 9.933297e-03 1.123439e-02 9.838220e-03 
-2.106851e-03 -5.527064e-03 1.571607e-02 -5.129603e-02 5.131438e-01 5.367068e-02 3.020301e-02 -1.381312e-02 2.024175e-02 -5.909882e-02 6.672932e-02 -2.087456e-01 2.695724e-01 -5.579196e-01 1.787644e-01 -7.570969e-01 1.874398e+01 2.187249e+01 3.166563e+00 1.163558e+00 -1.890073e-01 -4.623080e-01 -1.055833e-02 2.289119e-01 2.034594e+01 2.221994e+01 2.806966e+00 1.033516e+00 -1.822907e-01 -4.679328e-01 -2.152514e-02 6.496028e-01 2.117425e+01 2.247550e+01 2.666567e+00 9.961320e-01 -1.847156e-01 -4.708209e-01 -1.962381e-02 6.478694e-01 2.123693e+01 2.248869e+01 2.657867e+00 9.999265e-01 -1.897027e-01 -4.815117e-01 -5.904547e-03 2.231383e-01 2.090779e+01 2.269329e+01 2.744715e+00 1.284465e+00 -4.801630e-01 9.395726e-02 -1.435143e-01 1.415164e-02 -4.064055e-02 3.369632e-03 -1.365448e-02 7.567106e-04 -5.919263e-03 -5.146380e-04 -3.454713e-03 -1.372143e-03 
-2.285733e-02 -1.505923e-02 -3.447664e-02 3.173139e-02 4.478951e+00 8.850882e-02 6.110044e-02 3.058643e-02 1.907800e-02 3.630025e-02 -7.674232e-03 9.408646e-02 -9.679816e-02 2.604565e-01 -1.118997e-01 1.501269e-01 -6.479524e+00 -7.286666e+00 -9.756801e-01 -3.192016e-01 3.052408e-02 2.168335e-01 -2.772615e-02 -2.221358e-01 -7.258062e+00 -7.643083e+00 -8.544552e-01 -3.247738e-01 4.127501e-02 2.013020e-01 1.314791e-04 -3.998341e-01 -7.730480e+00 -7.921823e+00 -8.025784e-01 -3.437333e-01 5.321469e-02 1.885006e-01 2.035818e-02 -4.197731e-01 -7.918831e+00 -8.105614e+00 -7.984662e-01 -3.707011e-01 6.545507e-02 1.780997e-01 3.994661e-02 -2.835929e-01 -7.992340e+00 -8.384901e+00 -8.294815e-01 -5.002198e-01 1.706218e-01 -5.093623e-02 4.695246e-02 -1.245261e-02 6.803110e-03 -8.489923e-03 -5.526211e-03 -9.304217e-03 -1.148588e-02 -1.088374e-02 -1.677678e-02 -1.261362e-02 