# vtk DataFile Version 2.0
Comment goes here
ASCII

DATASET STRUCTURED_POINTS
FIELD FieldData 1
TIME 1 1 double
0.09900000
DIMENSIONS    64   64   1

ORIGIN    0.000   0.000   0.000
SPACING   0.03125 0.03125   1.000

POINT_DATA   4096
SCALARS Omega double
LOOKUP_TABLE default

1.462233e+02 4.304287e+02 -3.463682e+02 -2.111594e+02 1.788983e+02 -6.037585e+02 6.926795e+01 -3.443467e+02 3.189195e+02 -4.208124e+02 3.851362e+02 -3.914204e+02 2.314036e+02 -4.537147e+02 -6.174804e+01 -1.536121e+02 5.282658e+02 4.915002e+01 1.014837e+02 -3.350506e+01 -3.255125e+02 5.128594e+02 -3.308379e+02 4.611537e+02 -5.819186e+02 6.951620e+02 6.788598e+02 -6.032542e+02 -1.335604e+02 -1.259322e+02 -7.840854e+01 -6.354562e+02 -1.417194e+03 -1.804254e+02 4.143038e+02 -2.416169e+02 4.408037e+02 3.710321e+02 -5.005658e+01 6.178490e+02 7.517221e+01 6.191882e+02 1.566141e+01 8.016859e+01 2.176304e+02 -2.601054e+02 3.461705e+02 -4.924839e+01 1.300583e+02 -2.641281e+02 1.767507e+01 -3.999836e+01 -1.390754e+02 2.231588e+02 -1.890683e+02 6.038232e+01 -1.444820e+02 -7.333061e+01 -4.558244e+02 4.712430e+02 1.042702e+03 6.332018e+02 -1.326692e+03 -4.778008e+02 
-9.508379e+01 -5.432539e+02 7.202395e+02 3.535620e+02 -7.848047e+02 3.354392e+02 -4.603748e+02 3.154349e+02 -2.206568e+02 1.294862e+02 -5.023481e+02 2.904498e+02 -5.951470e+02 -2.191609e+02 5.050270e+01 -1.130664e+03 -6.886862e+01 -6.347906e+02 3.586766e+02 -5.471738e+02 -1.618983e+02 -5.954247e+02 -5.920531e+02 -5.381106e+01 1.959584e+01 2.178394e+02 -1.879536e+02 3.510172e+02 6.486164e+02 1.292282e+02 9.507519e+02 9.629917e+01 2.152335e+03 -4.195467e+02 -2.161475e+02 -3.446228e+02 -1.184522e+03 -2.003596e+02 -1.044016e+03 -4.380556e+02 -1.802753e+02 -1.127519e+03 -1.742752e+02 -2.505101e+02 -5.840412e+02 -1.811683e+02 3.800631e+02 -9.833064e+02 2.416017e+02 -6.424347e+02 -3.965715e+02 2.100085e+02 -2.667480e+01 -7.269002e+02 1.237934e+03 -2.474992e+02 -1.887115e+02 3.606445e+02 1.438799e+02 -1.047867e+03 -2.147152e+03 9.530712e+02 -6.260328e+02 1.056137e+03 
6.824838e+02 -1.870628e+02 1.088636e+00 -2.811301e+02 1.650923e+02 1.567504e+02 -5.877301e+01 -1.018364e+02 -9.484195e+02 1.508369e+02 -5.012552e+02 2.734993e+01 -2.051355e+02 2.698459e+02 -3.376728e+02 -4.969278e+02 -8.023850e+02 -4.720710e+02 1.602490e+01 -5.687990e+02 8.919869e+02 -1.211216e+03 -5.481434e+02 -4.799258e+02 -7.036212e+02 1.399019e+03 7.976926e+01 2.975616e+03 -2.498848e+02 -1.932155e+02 2.295214e+03 2.481088e+02 2.290982e+03 -1.903113e+03 -8.476549e+02 6.590680e+01 -1.317693e+03 -1.114568e+03 -9.054018e+02 -1.661486e+03 -1.057157e+03 -7.623972e+02 -4.379766e+02 -6.835647e+02 7.832327e+02 -3.969018e+02 -6.200420e+02 3.792860e+01 -3.624891e+02 -5.477541e+02 2.317875e+02 -1.245338e+03 3.636643e+02 -1.752667e+02 -2.227814e+02 1.652567e+03 1.966154e+03 2.194447e+02 -4.724945e+02 1.199751e+03 9.179212e+02 -8.128283e+02 2.206746e+03 -1.234280e+03 
9.759445e+02 4.304481e+02 -3.937426e+03 -1.239402e+03 4.334380e+02 -9.504315e+02 -1.495578e+02 -3.698634e+01 -8.661109e+01 -2.630717e+01 8.827797e+02 4.375869e+01 3.928409e+01 -5.970196e+01 -9.775215e+01 3.514732e+02 4.229060e+02 3.993772e+02 1.730928e+02 1.923785e+02 -1.202765e+03 1.047789e+03 5.524668e+01 -1.978542e+03 6.918694e+02 -3.575642e+03 8.103484e+02 1.132175e+02 -7.140620e+02 1.362100e+03 -4.439423e+02 1.691765e+02 -4.171209e+03 1.006595e+03 2.766554e+03 -1.718402e+02 -2.740706e+02 -3.451401e+02 -1.745628e+02 -5.268621e+02 1.398437e+02 4.359436e+02 -5.008750e+02 -9.029733e+02 -2.011237e+02 -5.056355e+02 -3.716134e+02 6.485447e+01 -3.293419e+02 -2.045178e+02 -7.090296e+01 -1.049390e+03 -1.800298e+02 1.290736e+02 -1.594727e+03 -9.992356e+02 3.695463e+02 1.043969e+03 2.577081e+03 5.840386e+02 2.074302e+03 2.866817e+03 -3.730548e+02 -1.212344e+03 
-1.716738e+03 -4.125689e+02 2.030044e+03 -8.675801e+02 -2.838984e+02 -1.128297e+03 -2.139633e+03 -1.520322e+02 -1.913068e+02 2.281151e+02 -1.449179e+03 -1.422614e+03 -8.321533e+02 -2.167377e+02 7.333872e+02 2.355181e+03 2.304999e+03 1.471493e+03 1.101032e+03 9.932673e+02 -2.028994e+02 1.467461e+02 2.962151e+03 6.355171e+02 1.631806e+03 4.222591e+03 1.704422e+03 -4.888991e+03 1.389901e+03 4.730541e+02 -3.659337e+03 -7.316474e+02 -2.406381e+03 2.237148e+03 -1.639080e+03 -1.497941e+03 5.526658e+02 -2.526031e+01 1.265998e+03 1.272469e+02 -3.827258e+02 1.000861e+03 -7.757282e+02 -1.974270e+03 -1.365123e+03 -3.069610e+02 -1.022803e+02 2.454910e+02 -2.556861e+02 3.691954e+02 6.206213e+02 -1.262252e+03 8.311898e+02 3.613076e+03 3.757904e+03 -1.282095e+03 -2.867215e+03 -8.871989e+02 7.804710e+02 4.463891e+03 1.606300e+02 -1.885466e+03 -4.098212e+03 3.266895e+03 
2.323529e+03 -1.363508e+02 2.071724e+03 2.931767e+02 -1.018277e+03 -8.056493e+02 3.646302e+02 7.612878e+02 -9.772055e+02 2.634973e+02 5.681761e+02 -3.433525e+02 -1.248755e+03 -8.364059e+02 -2.522179e+02 1.999198e+03 2.563665e+03 1.567040e+03 1.104423e+03 5.298866e+02 -1.610048e+03 4.542435e+02 3.567369e+03 5.833580e+03 4.641138e+02 2.279386e+02 -4.031936e+03 -3.692941e+03 2.007848e+03 2.850289e+03 -4.184394e+03 -3.750567e+03 -1.487253e+03 1.867875e+03 -1.508066e+03 -5.066170e+02 2.737688e+02 -2.371311e+01 1.326649e+03 1.824012e+03 -1.505994e+03 2.950026e+02 2.303940e+03 1.805445e+03 5.182947e+02 -1.004656e+02 1.705348e+02 1.084205e+02 2.297708e+00 3.239635e+02 3.469643e+02 1.818441e+03 4.722953e+02 -6.190371e+02 -1.990318e+03 -3.730243e+03 -4.995897e+03 5.639929e+02 -4.022619e+03 -2.608620e+03 -2.634683e+02 -1.851588e+03 -4.842386e+03 6.712320e+02 
7.408737e+02 2.466566e+03 2.310479e+03 1.386623e+03 -1.596605e+03 2.931664e+02 2.296237e+03 1.060644e+03 9.434648e+02 1.539165e+02 2.264276e+03 1.817946e+03 1.236550e+03 1.925913e+02 -9.504333e+02 -3.429023e+03 -3.945265e+03 -6.203739e+02 -2.323246e+02 -2.212489e+03 -2.190643e+03 3.920508e+02 -2.716334e+02 7.653317e+02 -4.995814e+02 -1.944472e+03 -3.434479e+03 -1.424331e+03 -7.402735e+02 1.076171e+03 3.101978e+03 -3.458765e+03 -3.735428e+03 3.537171e+03 1.068784e+03 1.333219e+02 1.219995e+02 1.785373e+03 7.416101e+02 7.999978e+02 -3.158094e+02 8.982695e+02 1.765680e+03 5.518131e+02 -1.060269e+03 -7.985554e+02 1.017139e+03 6.820465e+01 -7.393960e+01 5.368476e+02 -1.074509e+03 1.628598e+03 -3.797835e+02 -1.252073e+03 1.592714e+03 5.986619e+02 1.184672e+03 1.620086e+03 -4.393288e+03 -3.688676e+03 2.404571e+03 -1.408841e+03 3.619711e+03 -3.606414e+03 
-1.100162e+03 3.625703e+02 2.826264e+03 9.242687e+02 -1.645752e+03 3.864561e+02 1.790024e+02 -6.922261e+02 1.965859e+03 7.319106e+02 -6.948732e+02 -1.713212e+03 -1.600259e+03 4.930875e+01 9.794416e+02 -6.677710e+02 -8.522851e+02 -1.362789e+03 1.427336e+02 -9.940886e+02 -3.701499e+03 2.894835e+02 2.169775e+03 -3.339796e+03 -1.729209e+03 4.394182e+02 3.074088e+02 -1.796109e+02 3.974138e+02 -6.490735e+02 1.937012e+03 -4.441435e+02 -3.984841e+02 8.634432e+02 3.365595e+03 9.137665e+02 4.823641e+02 1.306866e+03 7.398311e+02 3.619357e+00 1.836884e+03 -1.759340e+01 -5.534193e+02 -2.347206e+03 -1.890234e+03 -2.285089e+02 -9.076492e+01 2.535013e+02 9.323048e+00 -1.189782e+02 1.813728e+03 6.646704e+02 4.378391e+03 -1.428350e+02 1.660420e+03 2.766265e+02 4.670767e+03 3.936861e+03 1.423417e+03 -2.476941e+03 -6.228065e+02 -7.488738e+03 3.401796e+03 1.200296e+03 
-1.012092e+03 1.311160e+02 2.032222e+03 1.638680e+03 -1.000009e+03 1.414720e+03 -2.968442e+03 2.574624e+02 2.344550e+01 7.528731e+02 1.530520e+03 1.234875e+02 -1.313678e+03 3.316018e+02 -7.065710e+02 -1.263405e+03 -6.863595e+02 -2.695171e+03 1.227976e+03 -7.233158e+02 -1.456775e+02 2.249390e+03 2.704426e+02 -9.590939e+02 -2.350302e+03 -2.192405e+03 1.569740e+03 -8.579468e+02 -3.752947e+01 -1.292260e+03 -1.974808e+03 1.231192e+03 1.578374e+03 1.020457e+03 2.287443e+03 -5.516805e+02 2.212573e+03 1.299205e+03 1.090882e+03 3.762403e+01 1.099000e+03 -4.887489e+02 -4.694226e+02 3.349833e+02 -1.848397e+03 -1.835370e+03 2.004616e+03 -5.615019e+02 3.482078e+02 -3.538502e+02 1.152668e+03 -2.056797e+03 -2.321392e+03 -1.361134e+03 -1.301179e+03 -5.452102e+03 -1.455269e+03 -4.824202e+03 -5.039217e+03 -1.931779e+02 -1.737785e+03 2.558278e+03 -3.065518e+03 -2.059863e+03 
4.549242e+03 -2.642454e+02 -1.723561e+02 2.966997e+03 -8.893832e+02 1.704321e+03 4.983828e+02 -4.387669e+02 -9.816785e+01 5.791795e+02 -6.738677e+02 8.525739e+02 1.738855e+03 -2.124464e+02 -6.601411e+02 8.682754e+02 1.693893e+02 6.187582e+01 4.621744e+02 -3.549246e+03 8.719146e+02 4.751117e+03 4.085164e+03 1.611765e+03 -2.620852e+03 1.621339e+02 -3.703419e+02 -1.073141e+03 3.091895e+02 -2.312898e+03 -2.261943e+03 -8.808796e+02 -7.994108e+02 1.639506e+03 3.931198e+01 1.191652e+03 1.838698e+03 2.191501e+03 1.893211e+03 2.925682e+03 1.042325e+03 3.026731e+02 -1.422445e+03 2.923093e+03 -5.515921e+02 -2.577985e+03 2.872575e+03 1.941350e+03 7.747232e+02 1.276349e+03 -2.121197e+03 -1.204622e+03 -5.470277e+02 -4.978669e+03 -3.849019e+03 3.106473e+03 7.558444e+01 -3.599720e+03 -1.675713e+03 -8.286950e+02 -1.006484e+03 4.283369e+03 -4.150349e+03 1.009094e+02 
5.065189e+03 -3.469027e+03 -1.629718e+03 3.403905e+03 -1.036464e+03 3.136303e+03 2.461314e+03 -4.467811e+03 -2.703897e+02 2.715179e+03 1.377495e+03 3.985196e+02 1.827212e+03 -1.424876e+03 2.001878e+03 1.052570e+03 1.495515e+01 9.710366e+02 -2.017745e+03 -9.501266e+02 1.472725e+03 5.377366e+03 -2.894622e+03 1.766668e+03 6.460604e+03 3.974479e+02 -2.683852e+02 -6.136539e+02 2.087043e+03 -6.289183e+02 -2.637127e+03 -2.937125e+03 -5.327322e+02 1.367760e+03 1.076552e+03 2.256160e+03 -1.163765e+02 1.222884e+02 8.110388e+02 2.918301e+03 1.909518e+02 -7.668396e+02 2.096959e+02 5.431441e+02 -4.349161e+03 -9.229382e+01 2.529250e+03 1.484738e+03 -5.380541e+02 1.730888e+03 -1.049590e+02 2.859036e+03 3.606093e+03 7.484604e+02 -9.998467e+02 4.289538e+03 -2.766762e+02 -3.583654e+03 5.109209e+03 -1.794054e+03 -5.898269e+03 5.689922e+02 -2.408208e+03 1.439758e+03 
-4.720700e+03 -1.114444e+03 -7.195817e+02 -1.410790e+01 1.270631e+03 2.521680e+02 -3.341912e+03 -2.183993e+03 -1.099018e+03 1.990267e+03 6.030371e+01 1.790334e+03 -5.350918e+02 2.581615e+03 3.635820e+02 -2.635770e+03 -8.561171e+02 -3.523304e+03 4.802263e+02 -1.245350e+02 -3.141038e+03 -2.297947e+02 -2.937560e+03 1.806576e+03 3.011740e+03 -7.371844e+02 1.528615e+03 -3.268580e+02 1.380655e+03 -2.363165e+03 -2.350350e+03 4.679681e+02 -2.006320e+03 -1.373937e+03 4.576030e+02 -5.071010e+02 8.957529e+02 -1.109068e+03 -7.956220e+02 1.346654e+03 -6.682817e+02 -1.501908e+03 3.140740e+02 -1.364764e+03 -4.788887e+03 -1.496011e+03 3.955833e+03 -5.621895e+02 -5.038345e+03 -2.275494e+03 1.350221e+03 4.186783e+03 -2.236252e+02 -6.444799e+01 1.839114e+03 -5.354719e+03 1.827684e+03 4.172560e+03 3.632826e+03 6.274939e+03 -5.790277e+03 -5.875807e+03 5.613849e+03 2.413170e+03 
-5.779150e+03 6.410522e+03 2.332588e+03 -1.283681e+03 -1.329115e+02 -3.708487e+02 -2.850780e+03 -1.662742e+03 -1.044429e+02 4.330370e+02 -2.441950e+03 -1.215987e+03 4.408909e+03 3.959894e+02 -5.404284e+03 -1.753912e+03 4.328898e+03 -8.537733e+02 8.197330e+02 2.327285e+02 7.775687e+02 -1.682775e+03 -5.496132e+03 1.815078e+03 6.886206e+02 -2.754695e+03 -1.778734e+03 7.897997e+02 -5.144544e+02 8.973994e+02 -3.060806e+03 -5.624560e+02 2.970900e+03 1.349120e+03 8.836332e+01 -1.052659e+03 5.212770e+02 -5.174265e+02 -5.414918e+02 6.440295e+02 1.105284e+03 -1.712977e+03 1.674143e+03 4.083471e+03 1.559413e+02 -1.512009e+03 -1.557963e+03 8.750380e+01 -1.096322e+03 -3.797341e+02 1.741063e+03 -3.041866e+03 -2.907161e+03 -3.653320e+03 -4.422253e+02 -1.246759e+03 1.581033e+03 2.411367e+03 -4.463091e+03 3.519637e+03 7.940037e+02 1.817748e+03 5.702376e+03 -6.285137e+03 
9.246402e+02 2.683139e+03 -6.063272e+03 -5.927154e+02 2.548455e+02 6.909981e+01 4.259450e+03 -2.934949e+02 -1.606759e+03 9.809569e+02 -1.164526e+03 2.573662e+02 5.515488e+03 -2.601659e+03 -8.173952e+02 2.593261e+03 1.061518e+03 3.110299e+02 -3.335027e+03 -2.736809e+03 4.191219e+03 -1.849335e+03 -2.335344e+02 -2.572089e+03 -2.440592e+02 3.337911e+03 -1.746442e+02 3.117593e+02 -3.754953e+03 -1.882976e+03 1.360100e+03 2.667817e+03 -1.570454e+03 -3.116272e+03 1.030981e+03 2.100012e+03 1.444444e+03 -5.249704e+02 1.644197e+03 4.428279e+02 2.805031e+02 -2.254797e+02 2.707610e+03 -1.548234e+03 -6.064797e+02 -7.690233e+01 1.243387e+03 3.509047e+03 4.227273e+03 2.831096e+03 1.774094e+02 2.459177e+03 3.222248e+02 -1.137952e+03 -1.322101e+03 3.624775e+02 -4.608073e+03 -1.814847e+03 3.309904e+03 1.479672e+03 6.964779e+03 2.029547e+03 -1.676541e+03 -1.218481e+04 
4.198404e+02 -2.669283e+03 1.549081e+03 4.005034e+03 -4.730969e+02 1.724820e+03 2.527071e+03 2.356758e+03 -2.977136e+02 -1.575446e+03 -2.439018e+03 1.795264e+03 4.787093e+02 1.657019e+03 -1.262103e+03 1.465501e+03 -3.139592e+03 -1.071619e+03 2.051050e+03 -3.280143e+03 3.609875e+03 -1.184435e+03 2.052752e+02 6.757779e+02 -2.224104e+03 3.383866e+03 3.649952e+03 -2.652861e+03 -1.599400e+03 -1.983098e+03 3.447301e+03 7.038588e+03 -3.469410e+03 -1.822339e+03 1.010606e+03 -2.539619e+02 -1.585404e+03 3.235961e+02 1.700063e+03 -1.430151e+03 1.414068e+03 3.046557e+02 -1.900602e+02 4.251941e+01 -6.777809e+02 -4.022471e+03 1.093289e+03 3.630451e+03 3.572592e+03 1.470448e+03 -4.192351e+03 2.208527e+03 3.837029e+03 1.121067e+03 -1.356897e+03 5.383547e+03 -6.285619e+03 -2.959921e+03 7.359416e+03 -1.578718e+03 3.280416e+03 1.941627e+03 2.847325e+02 -2.255381e+03 
8.950207e+03 3.935163e+03 5.514022e+03 -1.262347e+03 -1.082171e+03 6.184268e+02 -2.319170e+03 -3.436604e+03 -8.816950e+02 -3.413907e+03 -1.936422e+03 2.378582e+03 7.925446e+02 -1.181137e+02 -9.892179e+02 -1.326297e+01 2.215499e+02 1.393967e+03 -2.187831e+03 -1.881257e+03 -1.809589e+03 1.679702e+03 1.537959e+03 1.645002e+03 -5.938255e+02 5.928854e+02 4.320655e+02 1.244449e+03 -3.457656e+03 -1.097215e+03 5.135166e+03 4.808511e+03 2.709351e+03 1.856347e+03 -3.031387e+03 -1.382438e+03 1.945409e+03 -1.230845e+02 -2.588278e+03 -1.062253e+03 -8.353720e+02 3.169658e+03 5.237086e+02 -1.896116e+03 3.163386e+02 3.433414e+03 2.852762e+03 4.787282e+03 -3.332464e+02 -4.048349e+03 9.048644e+02 -3.064000e+03 -5.217132e+03 4.597947e+03 -3.648079e+02 -2.169839e+03 -2.185064e+03 -2.520938e+03 -5.002663e+03 -3.060038e+03 8.038084e+02 2.283516e+03 -6.542806e+03 2.564390e+03 
-2.454340e+03 -4.315833e+03 6.816571e+03 1.146469e+02 -1.887389e+03 4.033479e+02 -2.031702e+03 -5.224689e+03 1.871426e+03 1.419749e+03 -1.162970e+03 -2.683315e+03 8.790429e+02 4.097559e+03 7.359182e+02 -6.371276e+03 3.287348e+03 -1.158353e+03 -4.073116e+03 9.751241e+02 -1.199562e+03 5.073176e+03 -8.288894e+02 -2.280828e+03 -2.215997e+02 4.643748e+03 -2.255635e+03 -2.186987e+03 -1.264088e+03 4.440309e+02 -4.907493e+03 -4.127039e+03 3.278527e+03 -6.137132e+02 -4.533662e+03 -1.510456e+03 1.773023e+03 3.450907e+03 2.417228e+02 -2.543381e+02 -9.872017e+02 -2.517672e+03 -5.079761e+03 4.174565e+02 4.423786e+03 8.534423e+03 4.024251e+03 -2.627921e+02 2.102614e+03 -2.330236e+03 -9.450600e+02 2.072147e+03 -3.657975e+03 -3.087306e+03 4.159700e+03 -1.590186e+03 2.257291e+03 7.657859e+01 -2.787490e+03 3.847974e+03 2.283774e+03 -3.109247e+03 -2.489308e+03 1.732995e+03 
-6.717225e+03 3.058537e+01 -2.835300e+03 1.386431e+02 -1.462301e+03 7.574823e+02 3.927419e+03 -1.724277e+03 -1.712703e+03 5.661678e+03 4.643421e+03 -3.240113e+03 3.958728e+02 1.150818e+03 -2.002462e+03 2.290954e+03 5.916533e+03 9.973223e-01 -2.932433e+03 5.308569e+02 2.164209e+03 -4.288475e+02 -4.419448e+03 2.759061e+03 -7.664263e+01 2.505264e+03 2.637302e+03 4.010737e+02 -2.570588e+03 -2.864054e+03 8.290817e+01 8.965431e+02 1.483931e+03 -1.587895e+03 -4.295178e+03 -2.408672e+03 -8.565354e+02 -2.049312e+03 5.642755e+02 -7.881604e+01 -1.642050e+03 -3.532810e+03 -6.496929e+03 1.564584e+03 3.098949e+02 3.631900e+03 7.122217e+02 -4.127263e+03 1.038740e+03 1.164869e+03 -1.039089e+03 2.256714e+02 3.658887e+03 1.999380e+02 2.329633e+03 5.543723e+02 -2.176147e+03 6.660817e+03 6.089059e+03 -3.584449e+03 4.487854e+03 -1.198751e+03 1.976859e+03 1.825384e+03 
-1.041556e+03 -1.427787e+00 1.309716e+03 2.980015e+03 1.189033e+03 3.970446e+03 5.348144e+02 -1.253826e+03 1.041281e+03 4.916634e+03 -4.693524e+03 3.176832e+02 2.317847e+02 -2.203560e+03 3.404671e+03 3.907416e+03 5.272959e+02 -1.072170e+03 -1.133225e+03 -5.405131e+02 -1.944600e+03 -3.980863e+03 1.757018e+03 1.458933e+03 3.633940e+03 -1.460096e+03 1.021109e+03 -1.320296e+03 1.074995e+02 -1.875449e+02 4.393715e+03 5.635986e+02 3.971664e+03 1.255080e+03 -1.750924e+02 1.521581e+03 1.420814e+02 -2.544851e+03 -2.304879e+00 3.826556e+03 -7.162588e+02 -1.410999e+03 1.776924e+02 -5.025103e+02 5.360815e+02 1.766161e+03 -8.192074e+02 -3.215486e+03 -5.396634e+03 1.454075e+02 5.132432e+03 -5.193552e+03 -4.731365e+02 -8.629328e+02 -2.953036e+03 1.022969e+03 1.322474e+03 -5.717165e+03 1.576785e+03 -8.439840e+02 -5.996514e+01 9.412076e+03 2.148648e+03 -2.768239e+03 
1.078019e+03 -1.871884e+03 5.217722e+03 -2.700253e+03 -2.138895e+03 1.461506e+01 2.449420e+03 2.426022e+03 1.192694e+03 1.272925e+03 -9.432942e+02 -9.726719e+02 -2.584138e+03 8.012969e+02 1.028170e+03 -3.242603e+03 5.988832e+02 1.960884e+03 1.882604e+03 3.082415e+02 -3.240500e+03 -4.395743e+03 3.203745e+03 1.440317e+03 -4.208120e+02 -5.628685e+03 -1.632854e+03 -5.555821e+02 5.221612e+03 -1.847705e+03 -1.044937e+03 1.441441e+03 2.960420e+03 9.460570e+02 4.234741e+01 1.439234e+03 1.199863e+03 -1.090522e+03 -4.875015e+02 3.482420e+03 2.531355e+03 -1.917761e+03 3.518933e+03 -2.428193e+03 -2.787387e+03 -1.915087e+03 -5.955708e+02 9.244680e+02 -6.768111e+01 3.320287e+03 3.907955e+02 -1.502178e+03 -2.093260e+03 -2.939009e+03 -2.552012e+03 1.639669e+03 -6.452072e+02 -3.389782e+03 3.281367e+02 1.995891e+02 -2.028510e+03 4.611316e+03 3.096327e+03 -3.245524e+03 
-6.114229e+03 -1.116974e+03 -6.165925e+03 -4.222002e+03 3.835877e+03 -3.349510e+03 -5.590346e+03 -2.295592e+03 2.418010e+03 -1.741550e+03 4.329226e+02 1.701982e+03 1.735450e+03 2.754518e+03 -1.512225e+03 -1.660848e+03 1.077910e+03 1.844897e+03 1.038304e+03 3.696303e+03 -4.980934e+02 -2.379963e+03 -2.430925e+02 1.879711e+03 -1.577779e+03 -1.974978e+03 -3.137928e+03 -8.669551e+02 3.724427e+03 9.115362e+02 -4.589605e+03 -7.023886e+02 3.815756e+03 7.715970e+02 1.789616e+02 -7.649095e+02 -9.888279e+02 -3.465080e+02 -3.476622e+03 -5.302165e+03 2.586424e+03 -2.169107e+03 -3.689758e+03 -2.303595e+02 2.103843e+03 -3.329601e+03 1.945357e+02 4.271016e+03 -1.531209e+03 -8.632688e+02 3.070587e+03 1.657580e+03 -5.812890e+03 4.925966e+03 3.367917e+03 2.305750e+02 1.639823e+03 1.180698e+02 -3.790287e+03 2.405318e+03 5.317725e+03 -4.375714e+03 3.648562e+02 -2.903479e+03 
-3.291654e+03 2.569122e+03 -1.709014e+03 1.101599e+02 3.280327e+02 1.089074e+03 -2.021637e+03 -4.843991e+03 -7.874073e+03 -1.006075e+03 -5.542775e+02 -9.492422e+02 1.785889e+02 -1.550365e+02 -5.127438e+01 1.700138e+03 3.450413e+03 -2.574698e+02 -2.262704e+03 2.000401e+02 3.401484e+03 -1.039300e+03 -2.079752e+03 -9.020468e+02 -3.251187e+03 -1.461858e+03 2.521186e+03 -2.703486e+03 1.279025e+02 2.934622e+03 -3.921855e+02 -1.103882e+01 8.603049e+02 -2.574293e+03 -1.405651e+03 2.425035e+03 -2.046179e+03 -4.382448e+02 6.139100e+03 1.080660e+03 -5.195824e+03 4.393681e+02 9.434981e+02 1.557653e+03 -2.544713e+03 -1.275207e+03 3.814876e+02 -1.493865e+03 2.829059e+03 8.554154e+02 2.226950e+03 1.607908e+03 -1.620224e+02 2.226940e+03 2.905273e+03 -1.118606e+03 3.106792e+03 3.490368e+03 -2.108363e+03 -2.580550e+03 2.110922e+03 -3.545283e+02 -9.192806e+02 2.550123e+03 
3.960543e+03 4.316691e+03 -1.101085e+03 -1.601718e+03 1.520851e+03 -3.591498e+02 1.009465e+03 1.647615e+03 -4.653523e+03 -4.566597e+03 -1.454555e+03 3.831352e+02 -4.878744e+02 -2.696137e+02 -1.928931e+02 1.161637e+02 2.415643e+03 3.143873e+03 -2.040602e+03 -5.529279e+03 1.236730e+03 3.726879e+03 -2.033305e+03 -1.486729e+03 -4.167004e+02 -4.376806e+02 2.505446e+03 -1.583858e+03 -2.421634e+03 2.155804e+03 1.215713e+03 3.372456e+03 1.046488e+03 -3.885218e+02 -2.610232e+03 -8.493749e+02 4.448661e+02 1.772379e+03 -1.101064e+03 -3.216545e+03 -3.560834e+03 3.789236e+02 -1.804247e+03 1.493116e+03 -1.047180e+03 5.102374e+03 -7.354424e+03 -3.475040e+03 1.856066e+03 -1.032340e+04 1.612021e+03 4.639496e+03 2.372031e+03 2.086027e+03 -1.158302e+03 -4.740389e+02 5.070280e+02 1.572259e+03 -9.974187e+02 -3.008812e+03 -2.722070e+03 -1.653106e+03 2.303322e+03 4.511217e+03 
2.629772e+03 4.351885e+03 5.438584e+03 -3.461295e+03 -1.910031e+03 -1.936778e+03 1.581389e+03 5.608347e+03 1.482795e+03 -2.545754e+03 3.443905e+02 -3.439034e+02 -1.588067e+02 1.053085e+03 -6.915226e+00 -3.061156e+02 3.429443e+02 2.086301e+03 -2.140625e+02 3.268521e+02 -2.146549e+03 2.811046e+03 -1.306502e+03 1.886890e+02 1.051264e+03 -1.763215e+03 -2.320048e+03 2.603038e+03 4.073675e+02 -2.801097e+03 -1.386019e+02 4.541287e+03 -9.760831e+02 -2.664404e+03 3.582488e+02 -2.775327e+03 -9.489426e+02 -1.254875e+03 -1.875628e+03 -1.218572e+03 -2.055878e+03 3.144777e+02 -1.911508e+03 -9.444631e+01 -2.022547e+03 -4.553877e+03 2.659667e+03 7.100075e+03 -2.805731e+03 2.756535e+03 6.287421e+02 -2.579148e+03 -6.683298e+02 1.233281e+02 1.404643e+03 -9.246786e+02 -2.014128e+03 -3.147116e+03 -9.650070e+02 -2.519681e+03 -2.656308e+03 4.167465e+03 -1.966020e+02 1.723984e+03 
6.626456e+03 3.501696e+03 -1.271801e+03 1.857367e+02 6.101824e+02 3.321535e+03 5.132521e+02 3.370921e+03 1.097426e+03 -2.076176e+03 -1.781281e+03 -1.257577e+03 -8.418739e+01 -6.416673e+02 -1.643444e+02 1.434759e+02 -2.739924e+02 7.829040e+02 7.950226e+02 -1.075986e+03 -1.291792e+03 6.172342e+02 2.917163e+03 -1.710915e+03 -1.059666e+03 6.466923e+02 -1.199994e+02 -8.629181e+02 -4.018444e+03 -2.867060e+02 -6.370675e+02 4.091292e+02 -7.997778e+02 -2.078339e+03 1.945728e+02 -7.784161e+02 2.408776e+02 -8.899541e+02 1.179857e+03 1.239496e+03 -2.535057e+03 5.477080e+02 2.363888e+03 -3.932713e+02 3.517487e+03 -7.161392e+02 5.818270e+03 2.413923e+03 -2.506487e+03 2.657249e+03 -3.826616e+02 2.638064e+03 -1.697884e+03 4.091700e+02 -1.497706e+03 -2.405586e+03 -4.380753e+02 -2.456486e+03 -1.971348e+03 -9.138858e+02 -1.572874e+02 -1.576536e+03 -4.196658e+03 4.847037e+03 
1.609571e+03 -1.009191e+03 -2.469613e+03 1.201550e+03 -4.972313e+02 2.315581e+03 9.703168e+02 -7.803399e+01 1.122745e+03 -1.183664e+03 -1.383452e+03 -4.947780e+02 -1.610282e+03 -1.297265e+03 -6.356122e+02 4.263170e+02 -1.479408e+03 -3.636657e+02 -8.557166e+01 -4.220994e+02 7.677194e+02 -3.792744e+02 2.122879e+03 -1.097024e+02 -7.029133e+02 -4.149414e+02 1.191856e+03 -2.961335e+02 -2.930804e+03 -1.047250e+03 5.860691e+02 2.924661e+03 1.361601e+03 1.124275e+03 -6.384866e+02 8.508784e+02 1.079493e+03 -1.811876e+03 1.693362e+03 2.429189e+03 -2.976460e+03 -2.311099e+03 3.947723e+03 9.650119e+02 -1.916127e+03 1.185635e+03 -5.453075e+03 -4.400255e+03 2.125816e+03 -3.368624e+03 2.814819e+02 5.586537e+03 2.063697e+02 -4.166876e+03 -8.887280e+02 -1.610924e+03 -4.656828e+02 4.069186e+03 -3.047192e+03 -1.529784e+03 1.121401e+03 -3.635669e+03 -1.658356e+03 5.604643e+02 
-2.919021e+03 3.600200e+03 -2.728775e+03 -2.601953e+03 -9.041445e+01 -2.627784e+03 3.564692e+03 2.648704e+03 -9.092230e+02 -1.869936e+03 -1.844097e+03 -2.650826e+03 -2.664823e+03 -2.201463e+03 -1.246251e+03 3.409199e+02 -5.989385e+02 -8.729317e+02 2.434657e+03 9.183520e+02 -1.486629e+03 -5.584198e+02 2.919802e+03 2.653674e+03 6.159624e+02 -7.474668e+02 1.664796e+02 -1.674200e+03 -2.836859e+03 1.019684e+03 1.143494e+03 5.877341e+02 4.777197e+02 -8.550533e+02 -2.167825e+03 -1.819446e+03 -1.417095e+03 1.114633e+03 -3.601023e+02 -1.167408e+03 1.778788e+03 -2.257156e+03 -3.441344e+02 -1.445835e+03 -1.647847e+03 5.935760e+03 2.781522e+03 2.373974e+03 -2.830534e+02 6.502016e+01 2.406824e+03 -2.900467e+02 -1.429359e+03 -3.974760e+03 -2.079154e+03 -4.037942e+01 -2.267872e+03 3.281079e+03 4.706458e+03 -1.623701e+03 -2.544879e+03 -4.101053e+03 2.540620e+03 -6.081395e+03 
1.008550e+03 2.883661e+03 5.565702e+03 -3.093704e+03 -1.727495e+03 -2.843861e+03 1.358132e+03 1.450490e+03 -3.411232e+03 -2.314888e+03 -1.530074e+03 -2.217279e+03 5.894154e+02 3.086408e+03 1.301626e+03 -3.754646e+02 1.674951e+03 -2.191914e+02 2.321422e+02 -1.944132e+03 7.269028e+02 1.820986e+03 4.407120e+02 -5.917603e+00 5.084500e+02 1.436994e+03 -2.681384e+03 -1.502215e+03 -7.847389e+02 2.330772e+03 8.250249e+02 -3.356541e+03 1.873035e+03 3.711694e+01 -4.034807e+02 -9.692773e+02 3.052195e+02 2.128028e+03 -1.381062e+03 -1.988566e+02 7.313505e+02 -1.929986e+03 -8.844029e+02 -1.868681e+03 -2.291306e+03 -8.866345e+02 4.809494e+03 -1.527685e+02 1.821784e+03 1.954659e+03 2.673269e+02 -1.644856e+03 9.566992e+02 1.877288e+03 -4.202903e+02 2.262917e+03 -1.346426e+03 4.826541e+01 2.634631e+03 2.730937e+02 2.294729e+02 -2.262712e+01 -7.112847e+03 -4.094156e+03 
5.540775e+02 4.462245e+03 2.869350e+03 -5.141582e+03 -1.204562e+03 -2.173825e+03 1.308253e+03 2.571794e+02 -2.288124e+03 6.442525e+02 -3.246095e+02 -3.947367e+02 4.636728e+02 1.597637e+03 4.329934e+02 1.790566e+02 1.034540e+03 -2.405570e+03 -1.122671e+03 1.826211e+03 4.072047e+01 4.608608e+02 -5.201601e+02 -3.004747e+03 -1.230509e+03 1.168945e+03 1.212313e+03 3.691320e+02 -3.719305e+02 -3.828462e+02 2.551159e+02 -1.283552e+02 -2.233215e+02 2.123981e+02 1.345981e+03 -5.607733e+01 -1.400968e+03 -1.031182e+03 -4.365452e+02 -8.740412e+02 -2.224005e+03 -1.885307e+03 -4.366024e+02 1.906059e+03 -4.184895e+03 -3.090894e+03 -3.216594e+03 -8.209047e+02 1.381506e+03 -1.020554e+03 6.690715e+03 -3.929263e+02 -2.560801e+03 2.202178e+03 3.137349e+03 -8.901126e+03 -4.775640e+01 8.976924e+03 1.362167e+03 -1.230088e+03 -1.986454e+03 1.556204e+03 -1.851797e+03 -1.158977e+03 
-2.049339e+03 -2.231764e+03 1.194656e+03 -5.402132e+02 -9.867980e+02 -3.551826e+01 2.114089e+03 -2.241698e+02 9.805493e+02 9.271477e+02 -2.127144e+02 -6.563367e+02 -2.266545e+03 -6.701784e+02 -2.424202e+03 9.124254e+02 -3.307600e+03 -1.929170e+03 -4.620372e+00 -8.086611e+02 -3.324665e+02 -1.485308e+03 5.928741e+02 -1.038753e+03 -3.306915e+03 2.595585e+00 2.326235e+03 -2.021789e+03 8.157136e+02 1.000780e+03 -3.527357e+03 1.845650e+03 1.189879e+03 -4.383187e+03 -1.577756e+03 1.619370e+03 2.465717e+03 -4.971519e+03 -3.052332e+02 5.704544e+02 -2.799997e+02 -1.958569e+02 -6.368209e+03 3.857632e+03 1.129470e+03 3.943712e+02 -2.807797e+03 -1.144358e+03 2.150737e+02 -3.108676e+03 6.051396e+03 1.256403e+03 -3.583176e+03 -2.834892e+03 -1.477604e+03 1.307174e+03 1.865343e+03 -4.454063e+03 -3.549098e+02 4.867371e+03 4.758411e+02 -1.206573e+03 3.096768e+02 3.553769e+02 
-4.902722e+02 2.432506e+03 -1.181569e+02 -4.196035e+02 -4.516341e+02 4.584099e+02 -5.849304e+02 1.298603e+03 2.057885e+03 -5.529791e+02 5.005372e+02 1.792194e+03 1.168282e+03 -6.442035e+02 -3.174635e+02 -5.285619e+02 -2.837893e+03 4.963182e+02 -4.411246e+02 -6.355153e+00 1.093886e+03 2.552457e+02 -1.771480e+03 1.162468e+03 -1.217472e+03 -1.107474e+03 1.005691e+03 -1.279169e+03 -7.585598e+02 7.879507e+02 4.815055e+02 -7.796808e+02 6.649635e+02 -2.266839e+03 -2.151420e+03 -1.404458e+03 2.584587e+03 2.287064e+03 3.221880e+03 -1.427261e+03 3.823407e+03 2.020140e+03 1.742322e+02 -1.151042e+03 3.443063e+03 -8.216316e+02 2.680477e+03 1.631027e+03 -2.158834e+03 3.451448e+02 1.089746e+03 -1.863650e+03 -2.903726e+03 3.914798e+03 2.662933e+02 -4.345171e+03 -6.656955e+02 -3.954467e+03 -2.926008e+02 5.451469e+03 3.241312e+03 1.624627e+03 1.389416e+03 -5.752862e+02 
1.815259e+03 3.615876e+03 -1.811848e+03 2.383866e+01 3.772557e+02 1.507006e+03 -2.234560e+03 1.846217e+03 4.947318e+02 6.606910e+02 1.332752e+03 2.184931e+03 -4.417986e+02 -9.317763e+02 -9.989046e+02 -2.450502e+03 1.219034e+03 6.245077e+02 1.438914e+03 1.269779e+03 -2.655719e+02 2.250671e+02 -1.359815e+03 2.194435e+03 1.450382e+03 -1.822619e+03 1.512287e+03 1.485203e+03 -1.792534e+03 -2.829566e+02 1.739993e+03 3.077899e+02 -1.049820e+03 -4.942956e+02 1.391117e+03 -2.060631e+03 -2.268264e+03 -1.268244e+02 1.816761e+03 1.782552e+03 1.212756e+03 1.514796e+03 1.159273e+03 -1.921164e+03 2.902699e+03 -1.170942e+02 7.585833e+02 5.243819e+02 -4.095380e+03 5.344860e+03 -5.527240e+03 -2.119261e+03 1.255853e+03 -3.012783e+02 1.607082e+03 -2.580946e+02 3.245123e+03 1.023589e+03 1.498935e+02 -5.084206e+02 9.182755e+02 -3.282598e+02 -2.739762e+03 9.800567e+02 
1.583898e+03 2.998855e+03 -1.179285e+03 1.947633e+02 -4.637953e+02 1.102198e+03 -9.403230e+02 1.499868e+02 3.916706e+02 1.002592e+03 1.269185e+03 9.135030e+02 3.282515e+02 8.797688e+02 5.502254e+02 -2.733507e+02 -1.199646e+03 8.401326e+02 7.536178e+02 -9.383848e+01 4.875608e+01 -5.584628e+02 1.224574e+03 -9.267581e+02 1.087746e+03 1.633777e+03 -1.797851e+03 1.939817e+02 -1.161461e+03 -1.259135e+02 1.536689e+03 8.357347e+02 7.609318e+01 4.628086e+02 -5.675803e+02 3.619652e+03 4.519779e+02 -4.477110e+03 -3.029886e+03 2.104738e+03 -2.196949e+03 1.597990e+03 1.487617e+03 -4.316208e+03 -1.098430e+03 1.012671e+03 -2.884206e+03 2.161384e+03 -2.326163e+03 -1.869101e+03 4.444873e+03 3.732494e+03 2.741925e+03 -7.750792e+02 -1.147674e+03 1.483781e+03 -2.805479e+03 4.029280e+03 2.545376e+03 -3.655265e+03 -1.741204e+02 7.936643e+02 -1.423837e+03 -1.631343e+02 
-1.228554e+03 4.087982e+02 6.593303e+02 -2.284125e+03 -4.948152e+02 -1.442160e+01 -2.318141e+03 9.909293e+02 1.088736e+02 -2.194641e+03 2.920207e+03 1.100811e+03 3.073438e+03 3.364861e+03 1.781146e+03 3.629539e+02 -7.017115e+02 1.288540e+02 1.601731e+02 1.617880e+03 -5.350904e+02 -2.461916e+02 -4.949844e+01 1.698165e+03 -2.128881e+03 -7.973301e+02 5.475844e+02 6.912144e+02 -2.224687e+03 -1.614357e+03 4.178271e+03 5.972266e+02 -2.196461e+03 4.726162e+02 -3.584292e+02 -3.937394e+02 -5.456352e+02 4.745391e+03 2.503139e+02 2.177668e+03 -1.838810e+03 -6.217052e+03 1.290575e+03 -7.304825e+02 1.121124e+03 5.723040e+03 2.086271e+03 -6.328342e+02 1.022582e+03 -4.716644e+03 3.003664e+03 3.199780e+03 -3.892024e+02 1.167634e+03 1.151780e+03 -1.094396e+03 -1.145531e+03 2.280332e+03 6.181017e+02 -2.205694e+02 -7.344952e+02 7.246965e+01 8.101699e+02 2.632344e+03 