# vtk DataFile Version 2.0
Comment goes here
ASCII

DATASET STRUCTURED_POINTS
FIELD FieldData 1
TIME 1 1 double
0.01600000
DIMENSIONS    64   64   1

ORIGIN    0.000   0.000   0.000
SPACING   0.03125 0.03125   1.000

POINT_DATA   4096
SCALARS Omega double
LOOKUP_TABLE default

-9.033686e-02 -5.241648e-02 2.960468e-02 -1.340058e-01 4.344979e-03 -1.478450e-02 1.007563e-02 -6.612134e-02 1.820148e-02 -4.946827e-02 1.560881e-02 -2.882548e-02 1.666722e-02 -1.289812e-02 2.527974e-02 -9.231079e-04 3.777991e-02 9.801869e-04 4.043081e-02 1.516178e-02 3.628875e-02 2.599590e-02 3.994419e-02 3.047794e-02 3.543242e-02 3.599748e-02 3.900294e-02 3.592790e-02 3.929725e-02 3.906529e-02 3.907903e-02 3.766168e-02 4.670814e-02 4.410687e-02 2.201919e-02 6.359926e-02 1.324080e-02 6.216591e-02 2.118943e-02 4.583407e-02 4.374089e-02 4.448616e-02 1.219956e-02 6.698897e-02 -4.650601e-03 6.836615e-02 -7.764680e-03 5.736564e-02 -1.029486e-02 4.673111e-02 -1.297584e-02 3.051046e-02 -1.686682e-02 1.117698e-02 -1.609197e-02 -5.827397e-03 -2.068138e-02 -1.388129e-02 -3.330417e-02 -1.161713e-02 -3.613629e-02 -2.405771e-02 -2.015756e-02 -3.150558e-02 
-8.218251e+00 -1.871264e+01 7.240983e+00 -1.948815e+01 6.012011e+00 -1.770106e+01 2.711444e+00 -1.364278e+01 -1.876934e+00 -8.990106e+00 -6.807774e+00 -4.379558e+00 -1.136366e+01 -5.494837e-01 -1.476671e+01 2.125706e+00 -1.700797e+01 3.618244e+00 -1.809741e+01 4.028328e+00 -1.808811e+01 3.532153e+00 -1.727837e+01 2.516099e+00 -1.627263e+01 1.693410e+00 -1.572311e+01 1.344327e+00 -1.537597e+01 1.226285e+00 -1.553590e+01 1.794483e+00 -1.604827e+01 1.946884e+00 -1.566847e+01 1.320810e+00 -1.492124e+01 1.012143e+00 -1.511626e+01 1.928490e+00 -1.610143e+01 2.638441e+00 -1.612488e+01 2.263793e+00 -1.520417e+01 1.014335e+00 -1.340414e+01 -8.635546e-01 -1.149565e+01 -2.216387e+00 -1.065856e+01 -2.028763e+00 -1.153363e+01 -1.983937e-01 -1.386129e+01 2.760297e+00 -1.682783e+01 5.771032e+00 -1.885728e+01 6.536145e+00 -1.767484e+01 3.860048e+00 -1.337100e+01 8.925329e-01 
-4.933012e+00 1.400543e+01 -2.130926e+01 1.156968e+01 -1.088402e+01 9.530747e+00 -1.389974e+01 6.864806e+00 -1.579757e+01 4.310307e+00 -1.649136e+01 1.831522e+00 -1.657136e+01 -2.310142e-01 -1.680513e+01 -1.629241e+00 -1.714502e+01 -2.474343e+00 -1.764440e+01 -2.829951e+00 -1.843850e+01 -2.727134e+00 -1.943422e+01 -2.364629e+00 -2.025742e+01 -2.272748e+00 -2.052965e+01 -2.451557e+00 -2.081561e+01 -2.506980e+00 -2.076668e+01 -3.177206e+00 -2.020452e+01 -3.571908e+00 -2.032810e+01 -3.249456e+00 -2.077753e+01 -3.088283e+00 -2.047086e+01 -3.936225e+00 -1.939052e+01 -4.624860e+00 -1.903613e+01 -4.502166e+00 -1.913394e+01 -3.941221e+00 -1.970069e+01 -2.817095e+00 -2.045838e+01 -1.821458e+00 -2.054603e+01 -1.644314e+00 -1.955679e+01 -2.298631e+00 -1.766082e+01 -3.604791e+00 -1.498639e+01 -5.323078e+00 -1.216736e+01 -5.993476e+00 -1.077839e+01 -4.729729e+00 -1.040138e+01 -8.283018e+00 
-9.939991e-01 1.053268e+01 -1.274827e+01 9.491683e+00 -2.577279e+00 8.232151e+00 -7.622971e+00 5.971560e+00 -7.838048e+00 3.748951e+00 -7.344827e+00 1.628071e+00 -6.566413e+00 -9.891739e-02 -6.046934e+00 -1.260793e+00 -5.790049e+00 -1.929938e+00 -5.835528e+00 -2.157157e+00 -6.237317e+00 -2.005187e+00 -6.894173e+00 -1.641913e+00 -7.504557e+00 -1.457012e+00 -7.747884e+00 -1.494240e+00 -7.959151e+00 -1.505385e+00 -7.904550e+00 -1.953734e+00 -7.522248e+00 -2.179440e+00 -7.656714e+00 -1.895908e+00 -8.023055e+00 -1.762034e+00 -7.830134e+00 -2.372169e+00 -7.097000e+00 -2.855172e+00 -6.913973e+00 -2.725970e+00 -7.126900e+00 -2.211922e+00 -7.736913e+00 -1.295020e+00 -8.466716e+00 -5.393002e-01 -8.663991e+00 -4.835078e-01 -8.001998e+00 -1.159133e+00 -6.610770e+00 -2.382941e+00 -4.703386e+00 -3.834294e+00 -2.884786e+00 -4.348881e+00 -2.366289e+00 -3.285210e+00 -2.709044e+00 -3.867267e+00 
-8.654882e-02 2.481587e-01 -2.181810e-01 -4.651062e-02 -1.731578e+01 -9.099764e-02 2.336133e-02 -3.337162e-03 -3.702816e-02 -2.983060e-03 -4.784991e-02 -2.101146e-03 -4.722331e-02 -4.417168e-03 -4.632184e-02 -8.273650e-03 -4.707441e-02 -1.114813e-02 -4.921517e-02 -1.207839e-02 -5.243203e-02 -1.099009e-02 -5.569060e-02 -8.958448e-03 -5.805399e-02 -8.003355e-03 -5.944649e-02 -8.365448e-03 -6.017492e-02 -9.346265e-03 -6.007543e-02 -1.011560e-02 -5.910900e-02 -1.215952e-02 -5.852465e-02 -1.422042e-02 -5.920388e-02 -1.287430e-02 -5.945145e-02 -1.076258e-02 -5.793561e-02 -1.128500e-02 -5.477877e-02 -1.399683e-02 -5.106257e-02 -1.736912e-02 -4.825487e-02 -1.897525e-02 -4.801133e-02 -1.727045e-02 -5.079062e-02 -1.273684e-02 -5.477220e-02 -5.889041e-03 -5.402126e-02 8.104252e-05 -4.405686e-02 7.325457e-04 -2.600534e-02 -1.170396e-02 -1.169357e-02 -4.797632e-02 5.448146e-02 -1.992992e-02 
-3.791402e-02 -1.552342e-01 -1.256737e-01 -1.010853e-01 -1.547837e+01 -1.413346e-01 5.891896e-02 -2.354503e-02 3.911611e-02 -1.159939e-02 2.221028e-02 -7.049286e-03 1.242836e-02 -4.935135e-03 7.071683e-03 -3.873749e-03 3.981867e-03 -3.542861e-03 2.097366e-03 -3.014871e-03 9.534647e-04 -2.109138e-03 5.339613e-04 -1.131316e-03 6.032869e-04 -9.023311e-04 7.983236e-04 -5.298295e-04 4.437402e-04 -1.114229e-04 1.499356e-04 2.503283e-04 1.404775e-05 -4.834636e-04 -3.714610e-04 -1.065794e-03 -7.638348e-04 -1.475179e-04 -1.843764e-04 1.137994e-03 4.238316e-04 1.212814e-03 8.393414e-04 1.234574e-03 2.340455e-04 9.103636e-04 -1.319985e-03 -3.761357e-05 -2.298658e-03 -9.090567e-04 -2.155155e-03 -3.449305e-04 -1.561825e-03 1.790120e-03 -1.499158e-03 3.786988e-03 -3.179812e-03 4.912165e-03 -8.027653e-03 6.370592e-03 -1.487412e-02 2.226964e-02 8.851264e-03 1.165563e-01 
-7.264328e-02 -6.453979e-02 -1.242631e-01 1.702331e-01 -2.318207e+01 -5.514533e-01 6.474359e-02 -1.503397e-02 4.989190e-02 -1.040860e-02 2.891505e-02 -7.455057e-03 1.668755e-02 -5.842921e-03 9.439157e-03 -5.289406e-03 5.088793e-03 -5.297711e-03 2.156517e-03 -4.611079e-03 4.079635e-04 -3.422589e-03 -1.117453e-04 -2.290473e-03 4.049107e-04 -1.849942e-03 8.968069e-04 -1.015275e-03 6.904857e-04 -1.793395e-04 3.451982e-04 1.069234e-04 3.165199e-04 -6.474604e-04 9.286201e-05 -7.137453e-04 -2.596548e-04 2.941975e-04 6.544539e-05 1.341908e-03 8.459376e-04 1.261550e-03 1.113698e-03 1.204999e-03 2.392699e-05 9.235124e-04 -1.763824e-03 2.363762e-04 -2.610609e-03 -4.005920e-04 -1.998424e-03 7.130193e-04 -7.407778e-04 3.422829e-03 3.817951e-04 6.315247e-03 1.648788e-05 8.230084e-03 -3.784390e-03 9.281276e-03 -1.214016e-02 1.613336e-02 -1.256955e-02 6.275558e-02 
-2.823511e-02 -2.246373e-02 -5.576035e-02 2.400432e-02 -2.126221e+01 -3.661539e-01 2.064062e-02 -1.755100e-02 3.005931e-02 -1.467024e-02 2.016652e-02 -1.069551e-02 1.246840e-02 -7.632943e-03 7.706089e-03 -5.929743e-03 5.590119e-03 -6.080684e-03 3.817180e-03 -4.467376e-03 1.956426e-03 -2.436929e-03 8.316186e-04 -1.333381e-03 1.280036e-03 -2.413376e-03 1.564644e-03 -1.527559e-03 6.283734e-04 -3.946745e-05 -2.108253e-04 5.289858e-04 3.239231e-04 -1.267249e-03 7.049857e-04 -8.798962e-04 -9.262051e-05 7.229484e-04 -5.972647e-04 1.722224e-03 2.404415e-04 3.270524e-04 9.157067e-04 8.048690e-04 -9.769105e-05 1.873645e-03 -1.532702e-03 2.108998e-03 -1.660161e-03 3.864451e-04 -1.135754e-03 8.827696e-04 -1.632895e-03 2.678923e-03 -2.896847e-03 4.721256e-03 -5.031172e-03 7.127191e-03 -7.942436e-03 1.169024e-02 -9.603509e-03 2.306519e-02 -4.817472e-03 3.602923e-02 
-3.867170e-02 -3.415907e-03 -5.627197e-02 8.706586e-02 -2.624432e+01 -5.052480e-01 1.792899e-02 -1.434490e-02 3.377489e-02 -1.204683e-02 2.317413e-02 -9.310436e-03 1.442926e-02 -7.247891e-03 8.854316e-03 -6.600490e-03 6.875781e-03 -7.465527e-03 3.979409e-03 -5.385723e-03 1.225654e-03 -3.120726e-03 -1.644668e-04 -2.062641e-03 1.107325e-03 -3.534555e-03 1.601582e-03 -2.049791e-03 3.712884e-04 -5.904925e-05 -6.930469e-04 6.117889e-04 4.249406e-04 -1.722745e-03 1.113554e-03 -9.093832e-04 -3.577302e-05 1.060271e-03 -9.411225e-04 2.127274e-03 2.461349e-04 7.705024e-05 1.196965e-03 6.498187e-04 -2.875518e-04 2.042130e-03 -2.182463e-03 2.722969e-03 -2.057572e-03 8.247468e-04 -4.957921e-04 1.674651e-03 -3.913307e-04 3.999975e-03 -1.044449e-03 6.476214e-03 -2.698127e-03 8.717520e-03 -6.176396e-03 1.144549e-02 -1.170819e-02 1.693674e-02 -1.808124e-02 2.408979e-02 
-1.190664e-02 6.345593e-03 -1.557164e-02 -2.089053e-02 -2.427316e+01 -3.670731e-01 -8.329144e-03 -1.488317e-02 1.506005e-02 -1.438665e-02 1.251118e-02 -1.144850e-02 8.174814e-03 -7.963240e-03 4.916061e-03 -5.901578e-03 6.659780e-03 -1.065515e-02 5.415097e-03 -6.365618e-03 1.702636e-03 -1.776155e-03 -9.578217e-04 5.342800e-04 1.789477e-03 -6.098415e-03 3.313211e-03 -3.132942e-03 4.014767e-04 9.965775e-04 -2.269504e-03 3.127922e-03 4.127886e-04 -4.377547e-03 2.743952e-03 -1.970799e-03 4.199574e-05 2.176603e-03 -2.629766e-03 4.691625e-03 -2.060856e-04 -2.543098e-03 2.505720e-03 -3.432262e-04 -1.941026e-04 3.577786e-03 -3.420020e-03 6.175677e-03 -2.245479e-03 -6.933464e-04 8.102980e-04 7.023560e-04 -6.303790e-04 3.496064e-03 -2.613083e-03 6.060292e-03 -4.419308e-03 8.941597e-03 -5.897225e-03 1.316777e-02 -6.343545e-03 1.901987e-02 -5.752389e-03 2.088982e-02 
-1.676773e-02 1.159403e-02 -1.735421e-02 1.919441e-02 -2.757543e+01 -4.542278e-01 -1.160039e-02 -1.543459e-02 1.620983e-02 -1.281544e-02 1.346540e-02 -9.532122e-03 8.105170e-03 -6.386443e-03 4.043879e-03 -6.358743e-03 1.007919e-02 -1.329596e-02 6.068229e-03 -6.353656e-03 5.016022e-04 -1.257937e-03 -3.147219e-03 6.570739e-04 2.708495e-03 -8.439490e-03 4.192462e-03 -3.538370e-03 -1.368289e-04 1.558933e-03 -3.994138e-03 4.126167e-03 8.406105e-04 -6.049919e-03 4.120168e-03 -2.286581e-03 2.143761e-05 2.801029e-03 -4.066418e-03 6.118522e-03 -4.047213e-04 -3.759637e-03 3.949935e-03 -8.510733e-04 -2.294779e-05 3.923188e-03 -4.750263e-03 8.034799e-03 -3.497929e-03 -6.726892e-04 2.712668e-03 8.739489e-04 1.084999e-03 4.223890e-03 -1.090615e-03 7.006198e-03 -3.066994e-03 9.441383e-03 -5.498130e-03 1.216119e-02 -8.594636e-03 1.549042e-02 -1.202390e-02 1.734441e-02 
1.004460e-03 1.384353e-02 6.306304e-03 -5.305772e-02 -2.554486e+01 -3.504042e-01 -2.665873e-02 -1.551334e-02 2.036957e-03 -1.430818e-02 3.974685e-03 -1.107561e-02 1.226184e-03 -5.346991e-03 -4.245255e-03 1.368783e-03 1.079686e-02 -2.534631e-02 1.021652e-02 -8.484594e-03 5.632927e-05 1.691094e-03 -8.661319e-03 1.141580e-02 3.368073e-03 -1.997390e-02 9.933754e-03 -5.799105e-03 -9.157042e-05 4.330750e-03 -9.784036e-03 1.546975e-02 4.342247e-04 -1.775289e-02 1.020384e-02 -4.778645e-03 2.750739e-04 5.429495e-03 -9.782768e-03 1.764014e-02 -1.581349e-03 -1.513125e-02 1.001630e-02 -3.339034e-03 4.859440e-04 6.720805e-03 -9.930256e-03 2.022446e-02 -5.719750e-03 -1.031353e-02 7.957242e-03 -1.134599e-03 1.576749e-03 4.545022e-03 -1.824741e-03 7.490315e-03 -3.118713e-03 1.009546e-02 -3.393188e-03 1.326932e-02 -2.684306e-03 1.658244e-02 -9.966658e-04 1.752310e-02 
-1.853962e-03 1.605003e-02 4.424155e-03 -2.710031e-02 -2.768030e+01 -4.057640e-01 -2.852786e-02 -1.737490e-02 2.969461e-03 -1.395083e-02 4.548893e-03 -8.939402e-03 -8.288249e-04 -4.588577e-04 -1.330455e-02 1.781420e-03 2.382232e-02 -3.470808e-02 1.132791e-02 -5.514916e-03 -2.558374e-03 4.953944e-03 -1.674784e-02 1.459974e-02 8.509864e-03 -2.773018e-02 1.339949e-02 -5.093305e-03 -1.211481e-03 6.280669e-03 -1.636370e-02 2.043906e-02 1.963326e-03 -2.411241e-02 1.523044e-02 -5.012182e-03 2.115579e-04 6.596935e-03 -1.511946e-02 2.356866e-02 -3.096895e-03 -2.002714e-02 1.604830e-02 -4.564657e-03 1.337951e-03 6.697030e-03 -1.371474e-02 2.704214e-02 -1.187725e-02 -1.204034e-02 1.525123e-02 -2.467483e-03 3.700757e-03 4.829609e-03 -1.185419e-03 8.080235e-03 -2.808994e-03 1.024079e-02 -3.704246e-03 1.243869e-02 -4.367963e-03 1.474309e-02 -4.220225e-03 1.625353e-02 
9.944634e-03 1.622813e-02 1.899939e-02 -8.037079e-02 -2.558248e+01 -3.202293e-01 -3.659672e-02 -1.745737e-02 -6.413699e-03 -1.584410e-02 -1.319263e-03 -1.250077e-02 -4.202935e-03 -7.266841e-04 -3.751216e-02 5.570264e-02 3.348583e-02 -8.201989e-02 2.836486e-02 -3.685854e-03 -3.866570e-03 7.350824e-03 -3.885207e-02 7.194649e-02 1.288421e-02 -7.989141e-02 3.526719e-02 -4.058925e-03 -1.284914e-03 7.687625e-03 -3.773634e-02 7.873414e-02 2.633125e-03 -7.875032e-02 3.913308e-02 -4.632658e-03 5.932168e-04 7.359387e-03 -3.545753e-02 8.113699e-02 -5.334897e-03 -7.481575e-02 4.082080e-02 -4.807959e-03 2.304916e-03 7.027094e-03 -3.188708e-02 8.319387e-02 -1.876322e-02 -6.415867e-02 3.826050e-02 -5.204946e-06 1.222167e-03 8.323610e-03 -3.113691e-03 9.646915e-03 -2.525246e-03 1.104240e-02 -1.160480e-03 1.311728e-02 9.535103e-04 1.530673e-02 4.353249e-03 1.650326e-02 
7.885381e-03 1.739260e-02 1.725963e-02 -6.581231e-02 -2.684511e+01 -3.515312e-01 -3.657828e-02 -1.988596e-02 -4.136635e-03 -1.774212e-02 2.249203e-03 -1.313461e-02 -2.503476e-03 1.368013e-02 -8.806695e-02 5.293645e-01 9.418887e-01 4.319821e-01 3.120921e-02 1.645423e-02 -6.583149e-03 1.337872e-02 -7.486922e-02 5.148330e-01 8.851148e-01 3.720790e-01 5.150312e-02 8.213306e-03 -2.514142e-03 8.102875e-03 -6.514878e-02 5.053344e-01 8.561846e-01 3.401050e-01 6.330203e-02 3.304845e-03 3.419425e-04 4.278689e-03 -5.595921e-02 4.840949e-01 8.146582e-01 3.107925e-01 7.137431e-02 -1.390466e-03 3.004066e-03 -2.739951e-04 -4.306998e-02 4.433618e-01 7.372754e-01 2.684932e-01 7.760300e-02 -1.700786e-03 -6.236138e-04 1.007046e-02 -5.198950e-03 1.085613e-02 -3.496390e-03 1.134724e-02 -1.919740e-03 1.261030e-02 -3.316001e-04 1.431215e-02 2.383544e-03 1.594582e-02 
1.554751e-02 1.682280e-02 2.663538e-02 -1.128249e-01 -2.468138e+01 -2.713070e-01 -4.023904e-02 -1.952253e-02 -1.007928e-02 -2.023571e-02 1.712116e-03 -2.537087e-02 2.324018e-02 -3.655355e-02 -1.152015e-01 6.433644e+00 1.560129e+01 9.354050e+00 1.890694e-01 6.806249e-02 -1.082614e-02 -3.211991e-02 -1.027661e-01 6.832415e+00 1.648140e+01 9.799535e+00 2.204029e-01 6.295626e-02 -7.846292e-03 -3.899755e-02 -9.266414e-02 7.029601e+00 1.694124e+01 1.004003e+01 2.408478e-01 5.908906e-02 -6.474690e-03 -4.308270e-02 -8.330659e-02 7.006671e+00 1.690666e+01 1.000951e+01 2.541326e-01 5.334820e-02 -4.563444e-03 -4.731463e-02 -7.013220e-02 6.826990e+00 1.655558e+01 9.819174e+00 2.651817e-01 6.024882e-02 -3.855540e-02 1.950171e-02 -1.057215e-02 1.244494e-02 -2.831885e-03 1.162042e-02 7.896234e-04 1.271507e-02 4.130102e-03 1.433844e-02 8.656172e-03 1.576198e-02 
1.376486e-02 1.722222e-02 2.497817e-02 -1.079106e-01 -2.526113e+01 -2.827812e-01 -3.896999e-02 -2.155414e-02 -6.911632e-03 -2.557625e-02 1.219516e-02 -4.771133e-02 6.500645e-02 -1.408258e-01 9.927310e-02 8.662884e+00 2.094974e+01 1.240413e+01 2.142243e-01 1.818602e-02 2.055202e-02 -1.076897e-01 6.851841e-02 9.499790e+00 2.267030e+01 1.331268e+01 1.669365e-01 5.286786e-02 5.037923e-03 -8.856238e-02 5.093679e-02 9.928856e+00 2.357929e+01 1.380860e+01 1.442072e-01 7.314261e-02 -5.454315e-03 -7.337213e-02 3.244260e-02 1.000055e+01 2.373439e+01 1.390398e+01 1.303076e-01 8.923677e-02 -1.599807e-02 -5.363621e-02 1.237039e-03 9.874426e+00 2.352957e+01 1.385022e+01 1.133341e-01 1.246298e-01 -6.742819e-02 3.203582e-02 -1.714705e-02 1.495750e-02 -4.185501e-03 1.181679e-02 2.184233e-04 1.216571e-02 3.242349e-03 1.355085e-02 7.245218e-03 1.526182e-02 
1.853860e-02 1.621349e-02 3.098992e-02 -1.498573e-01 -2.304982e+01 -2.063632e-01 -4.056337e-02 -1.860007e-02 -1.414083e-02 -1.960043e-02 -2.806685e-03 -2.705970e-02 1.399577e-02 -4.958235e-02 9.844269e-02 -3.618226e+00 -8.500354e+00 -5.013752e+00 6.671418e-02 -1.091506e-01 3.796289e-02 -1.959772e-02 3.680719e-02 -3.684060e+00 -8.600291e+00 -5.011139e+00 2.058956e-02 -6.834949e-02 1.746053e-02 1.351275e-02 -5.621281e-03 -3.701652e+00 -8.641957e+00 -5.007011e+00 -1.034336e-02 -4.294193e-02 3.817040e-03 3.549612e-02 -3.489486e-02 -3.620077e+00 -8.477312e+00 -4.901031e+00 -4.097373e-02 -1.761253e-02 -1.072398e-02 6.030494e-02 -6.926642e-02 -3.428615e+00 -8.099051e+00 -4.690821e+00 -8.341328e-02 4.718590e-03 -3.508886e-04 1.112256e-02 -9.141442e-05 9.966022e-03 1.458617e-03 1.026076e-02 3.752962e-03 1.147335e-02 6.972578e-03 1.303945e-02 1.165940e-02 1.463432e-02 
1.679197e-02 1.586965e-02 2.921881e-02 -1.485116e-01 -2.308495e+01 -2.054529e-01 -4.004064e-02 -1.608735e-02 -1.754249e-02 -1.061068e-02 -1.849059e-02 5.130836e-03 -5.337383e-02 6.363929e-02 7.253067e-03 -8.989857e+00 -2.193772e+01 -1.307700e+01 -2.190987e-01 -7.416189e-02 8.527034e-03 5.528965e-02 1.027351e-02 -9.785892e+00 -2.354351e+01 -1.391386e+01 -2.048995e-01 -7.322978e-02 8.935809e-03 6.129168e-02 4.565687e-03 -1.018732e+01 -2.439108e+01 -1.437040e+01 -2.031769e-01 -7.192176e-02 9.149230e-03 6.420707e-02 4.008373e-03 -1.022906e+01 -2.448077e+01 -1.442631e+01 -2.058137e-01 -6.877682e-02 8.736997e-03 6.624349e-02 1.004475e-02 -1.005432e+01 -2.416903e+01 -1.431437e+01 -2.065112e-01 -8.442070e-02 6.338561e-02 -1.035267e-02 1.468582e-02 3.887997e-03 5.330658e-03 8.045657e-03 4.581834e-03 1.021420e-02 6.576573e-03 1.205738e-02 1.050937e-02 1.390990e-02 
1.954631e-02 1.457921e-02 3.260589e-02 -1.717985e-01 -2.086383e+01 -1.480142e-01 -3.983716e-02 -1.358971e-02 -2.120235e-02 -7.904246e-03 -2.079495e-02 6.401445e-03 -3.811980e-02 5.288824e-02 9.082445e-03 -2.930736e+00 -7.204726e+00 -4.226037e+00 -2.093613e-01 -4.703413e-03 -1.190804e-02 3.483903e-02 5.605704e-02 -3.299480e+00 -7.938015e+00 -4.642421e+00 -1.903988e-01 -1.996426e-02 -3.279802e-03 2.649999e-02 7.817728e-02 -3.491970e+00 -8.334141e+00 -4.872158e+00 -1.810599e-01 -2.906251e-02 1.665146e-03 2.005162e-02 9.213835e-02 -3.547481e+00 -8.445362e+00 -4.950235e+00 -1.694092e-01 -3.699630e-02 6.964426e-03 1.123247e-02 1.096132e-01 -3.542484e+00 -8.442345e+00 -4.993545e+00 -1.448773e-01 -5.712638e-02 3.004873e-02 -1.003369e-02 1.124648e-02 2.079085e-03 6.579526e-03 6.718570e-03 6.705039e-03 9.284085e-03 9.116205e-03 1.124239e-02 1.333580e-02 1.298217e-02 
1.769706e-02 1.384671e-02 3.045306e-02 -1.662005e-01 -2.046725e+01 -1.454313e-01 -3.794558e-02 -1.245148e-02 -2.064066e-02 -7.201309e-03 -1.877975e-02 2.611546e-04 -1.905114e-02 6.248993e-03 1.271351e-02 -1.034685e-01 1.497194e-02 1.213303e-01 -7.386969e-02 1.277532e-02 -1.067951e-02 -4.941071e-04 3.605467e-02 -1.259913e-01 -1.218938e-02 1.162997e-01 -6.390387e-02 7.846117e-03 -4.721067e-03 -4.352717e-03 4.644191e-02 -1.383966e-01 -3.074806e-02 1.128843e-01 -5.853534e-02 4.790598e-03 -1.507637e-03 -7.042097e-03 5.262090e-02 -1.437777e-01 -4.400581e-02 1.061827e-01 -5.231917e-02 1.373219e-03 2.352425e-03 -1.092290e-02 6.051883e-02 -1.484023e-01 -5.607612e-02 9.261118e-02 -3.795757e-02 -6.838864e-03 8.535004e-03 -4.311774e-03 8.889211e-03 1.824476e-03 6.715678e-03 5.710435e-03 6.632510e-03 8.262882e-03 8.471660e-03 1.028149e-02 1.209406e-02 1.212345e-02 
1.897984e-02 1.249393e-02 3.166991e-02 -1.703385e-01 -1.826072e+01 -1.080569e-01 -3.629222e-02 -1.114951e-02 -2.130036e-02 -7.191777e-03 -1.794858e-02 -3.254272e-03 -1.454632e-02 -5.859786e-03 7.914151e-03 -5.829336e-02 2.338670e-02 3.174337e-02 -3.673026e-02 7.716740e-03 -8.743109e-03 -5.218225e-03 1.851568e-02 -5.429595e-02 1.475354e-02 4.153686e-02 -3.102392e-02 6.838242e-03 -3.519604e-03 -6.170108e-03 2.324479e-02 -5.158557e-02 7.849446e-03 4.736864e-02 -2.865651e-02 6.316256e-03 -8.923016e-04 -6.815275e-03 2.584193e-02 -4.863503e-02 1.959779e-03 5.102597e-02 -2.604523e-02 5.315140e-03 2.251532e-03 -8.154928e-03 2.963946e-02 -4.512121e-02 -4.445600e-03 5.419647e-02 -2.060555e-02 3.943835e-03 4.108895e-03 -3.562718e-04 6.679964e-03 2.466397e-03 6.665845e-03 5.327239e-03 7.572047e-03 7.583876e-03 9.851251e-03 9.449214e-03 1.359982e-02 1.109563e-02 
1.695907e-02 1.162860e-02 2.899376e-02 -1.586964e-01 -1.751316e+01 -1.069935e-01 -3.337000e-02 -1.075101e-02 -1.893825e-02 -7.751464e-03 -1.455971e-02 -6.198175e-03 -8.788556e-03 -1.022787e-02 4.675061e-03 -2.970762e-02 8.240373e-03 1.136903e-02 -1.983966e-02 4.413734e-03 -5.528578e-03 -6.858494e-03 1.066375e-02 -2.517649e-02 5.830095e-03 1.673094e-02 -1.642697e-02 5.179037e-03 -2.177112e-03 -6.359845e-03 1.325455e-02 -2.255594e-02 3.032323e-03 2.013788e-02 -1.519705e-02 5.721235e-03 -6.343728e-04 -5.984329e-03 1.453603e-02 -2.033674e-02 5.197725e-04 2.257179e-02 -1.377897e-02 5.840430e-03 1.369970e-03 -6.062648e-03 1.667385e-02 -1.803743e-02 -1.904337e-03 2.545561e-02 -1.123675e-02 7.544110e-03 4.976385e-04 2.468668e-03 4.532380e-03 3.158685e-03 5.650544e-03 5.034227e-03 6.760823e-03 6.902320e-03 8.802902e-03 8.615128e-03 1.212068e-02 1.021840e-02 
1.713453e-02 1.032549e-02 2.850480e-02 -1.497320e-01 -1.533403e+01 -8.354828e-02 -3.093966e-02 -9.856493e-03 -1.832133e-02 -7.649987e-03 -1.385148e-02 -6.858917e-03 -8.598384e-03 -9.673038e-03 1.747552e-04 -1.800743e-02 1.582997e-03 3.411393e-03 -1.076592e-02 8.683181e-04 -4.169364e-03 -5.491817e-03 4.486883e-03 -1.400312e-02 2.065198e-03 7.641296e-03 -7.954528e-03 2.498409e-03 -1.419223e-03 -4.278538e-03 6.187432e-03 -1.192930e-02 1.222812e-03 1.011537e-02 -7.112923e-03 3.488506e-03 -2.735826e-04 -3.471315e-03 6.914591e-03 -1.027118e-02 2.570349e-04 1.188658e-02 -6.333279e-03 4.150315e-03 1.125266e-03 -2.865631e-03 8.193721e-03 -8.351543e-03 -5.433737e-04 1.437462e-02 -5.281945e-03 6.711042e-03 9.410633e-04 3.390524e-03 3.970492e-03 3.581306e-03 5.465407e-03 4.889403e-03 7.010106e-03 6.385884e-03 9.283734e-03 7.834162e-03 1.259059e-02 9.192673e-03 
1.494072e-02 9.411231e-03 2.534269e-02 -1.338734e-01 -1.429360e+01 -8.285084e-02 -2.757945e-02 -9.413406e-03 -1.566795e-02 -7.619754e-03 -1.136204e-02 -7.061372e-03 -6.798616e-03 -8.454036e-03 -1.443510e-03 -1.093189e-02 -6.264669e-04 -1.297908e-03 -6.171438e-03 -9.838682e-04 -2.814230e-03 -4.253353e-03 1.845932e-03 -7.139080e-03 5.798083e-04 1.922813e-03 -4.080585e-03 7.749159e-04 -8.621511e-04 -2.808201e-03 3.051508e-03 -5.262910e-03 4.345549e-04 3.780593e-03 -3.473003e-03 1.850735e-03 -9.589112e-05 -1.853433e-03 3.534344e-03 -3.864050e-03 9.004429e-05 5.220745e-03 -2.925968e-03 2.719761e-03 8.432551e-04 -9.760358e-04 4.356963e-03 -2.178354e-03 -1.763297e-04 7.567632e-03 -2.452593e-03 5.469557e-03 5.628496e-04 3.731637e-03 2.884973e-03 3.753535e-03 4.389923e-03 4.649575e-03 5.896786e-03 5.831287e-03 7.956643e-03 7.077951e-03 1.089383e-02 8.321417e-03 
1.427909e-02 8.163499e-03 2.362777e-02 -1.184226e-01 -1.215168e+01 -6.661264e-02 -2.466447e-02 -8.532504e-03 -1.441560e-02 -7.097542e-03 -1.065694e-02 -6.392878e-03 -7.277561e-03 -6.377882e-03 -4.052394e-03 -6.568311e-03 -1.849343e-03 -4.330521e-03 -3.066093e-03 -2.587764e-03 -2.338200e-03 -2.734417e-03 -8.131615e-04 -3.077540e-03 -1.779970e-04 -1.398581e-03 -1.130284e-03 -7.316451e-04 -6.161222e-04 -1.226808e-03 2.480941e-04 -1.414439e-03 5.000994e-05 1.585423e-04 -5.508736e-04 3.160333e-04 3.866390e-05 -2.854144e-04 6.521399e-04 -2.171158e-04 -3.014176e-05 1.400498e-03 -1.502168e-04 1.261760e-03 7.106759e-04 7.522138e-04 1.186163e-03 1.451384e-03 -1.407687e-04 3.602504e-03 2.638086e-04 3.616111e-03 1.505147e-03 3.452206e-03 2.796946e-03 3.754769e-03 4.113465e-03 4.441590e-03 5.693812e-03 5.333210e-03 7.782702e-03 6.311255e-03 1.058517e-02 7.307172e-03 
1.195783e-02 7.193600e-03 2.013361e-02 -1.009774e-01 -1.086338e+01 -6.415704e-02 -2.105817e-02 -7.863783e-03 -1.177658e-02 -6.574863e-03 -8.635203e-03 -5.630300e-03 -6.371730e-03 -4.618931e-03 -4.816349e-03 -3.801074e-03 -1.213622e-03 -6.080206e-03 -9.412978e-04 -3.070154e-03 -1.798651e-03 -1.507168e-03 -2.150608e-03 -5.821143e-04 -1.102774e-04 -3.444125e-03 6.031227e-04 -1.463241e-03 -4.418952e-04 -1.896190e-04 -1.323587e-03 9.317119e-04 -4.555136e-05 -2.078144e-03 1.116125e-03 -5.804961e-04 1.135411e-04 6.222848e-04 -9.765449e-04 2.023116e-03 -2.104949e-04 -9.339657e-04 1.439377e-03 2.831956e-04 6.187803e-04 1.604601e-03 -6.338953e-04 3.653590e-03 -6.113822e-04 1.168974e-03 1.686335e-03 2.224126e-03 1.647719e-03 3.038539e-03 2.102951e-03 3.547210e-03 3.089888e-03 4.092149e-03 4.475001e-03 4.768807e-03 6.312820e-03 5.556441e-03 8.750520e-03 6.411435e-03 
1.067164e-02 5.961656e-03 1.764173e-02 -8.451755e-02 -8.769878e+00 -4.967035e-02 -1.764836e-02 -6.961849e-03 -9.945608e-03 -6.044126e-03 -7.313478e-03 -5.008285e-03 -6.295136e-03 -2.357159e-03 -8.030694e-03 2.849114e-03 -1.536085e-03 -1.219655e-02 3.252868e-03 -4.379835e-03 -1.422076e-03 4.522611e-04 -5.698819e-03 6.125269e-03 -6.895425e-04 -9.748029e-03 4.545922e-03 -2.930245e-03 -2.220943e-04 1.636895e-03 -4.922706e-03 7.563132e-03 -6.209388e-04 -8.602132e-03 5.046266e-03 -2.212939e-03 3.030978e-04 2.312113e-03 -4.580700e-03 8.535611e-03 -8.193917e-04 -7.556853e-03 5.323596e-03 -1.416928e-03 6.835402e-04 3.287966e-03 -4.429531e-03 1.025374e-02 -1.530451e-03 -5.328420e-03 5.419510e-03 3.766287e-04 2.255696e-03 2.930894e-03 1.654509e-03 3.559645e-03 2.503173e-03 3.837886e-03 3.903582e-03 4.222046e-03 5.668797e-03 4.752396e-03 7.877089e-03 5.378172e-03 
8.293611e-03 4.900899e-03 1.401744e-02 -6.792006e-02 -7.270865e+00 -4.346825e-02 -1.377548e-02 -6.128633e-03 -7.229711e-03 -5.453414e-03 -5.123791e-03 -4.328502e-03 -5.241644e-03 -5.617027e-04 -1.023270e-02 7.217652e-03 -3.131898e-05 -1.605484e-02 6.470397e-03 -4.277927e-03 -1.030660e-03 1.837825e-03 -8.551267e-03 1.019495e-02 -4.142097e-04 -1.356459e-02 7.628757e-03 -3.227654e-03 -8.861472e-05 2.648064e-03 -7.902539e-03 1.145113e-02 -9.181410e-04 -1.242476e-02 8.225769e-03 -2.780214e-03 4.051586e-04 3.075097e-03 -7.498712e-03 1.235468e-02 -1.553470e-03 -1.140210e-02 8.541502e-03 -2.214306e-03 7.032586e-04 3.845065e-03 -7.348894e-03 1.413553e-02 -3.082516e-03 -9.172726e-03 8.438261e-03 -7.255634e-04 2.228025e-03 2.694924e-03 7.625808e-04 3.332422e-03 1.399488e-03 3.417871e-03 2.648013e-03 3.592618e-03 4.165073e-03 3.939031e-03 5.999459e-03 4.414715e-03 
6.551983e-03 3.640926e-03 1.113026e-02 -5.481107e-02 -5.239939e+00 -2.642100e-02 -9.853495e-03 -5.166666e-03 -4.849150e-03 -5.349877e-03 -2.380601e-03 -5.541120e-03 -2.181380e-03 -1.176757e-03 -1.926390e-02 3.534061e-02 -1.626068e-03 -4.194492e-02 2.089510e-02 -3.866107e-03 -3.843415e-04 2.609288e-03 -1.925003e-02 3.908459e-02 -2.025724e-03 -4.027027e-02 2.138984e-02 -3.031066e-03 2.619430e-04 3.253666e-03 -1.869398e-02 4.048078e-02 -2.224383e-03 -3.974128e-02 2.184880e-02 -2.725897e-03 6.234827e-04 3.567775e-03 -1.829676e-02 4.117282e-02 -2.771444e-03 -3.894148e-02 2.216922e-02 -2.254744e-03 7.774113e-04 4.285218e-03 -1.832788e-02 4.290439e-02 -4.921103e-03 -3.637131e-02 2.116285e-02 9.135027e-04 1.397248e-04 4.459503e-03 -1.048094e-03 3.720216e-03 3.682547e-04 3.100847e-03 1.833809e-03 2.925121e-03 3.232793e-03 3.042894e-03 4.746864e-03 3.325602e-03 
4.198507e-03 2.456455e-03 7.577920e-03 -4.113569e-02 -3.562284e+00 -1.473630e-02 -5.758455e-03 -4.124064e-03 -2.102621e-03 -4.924847e-03 5.455581e-04 -6.223086e-03 1.493674e-03 -2.778146e-03 -2.697720e-02 1.942797e-01 3.665847e-01 1.678789e-01 3.575823e-02 -8.856462e-04 3.651113e-04 1.584274e-03 -2.858416e-02 2.140218e-01 3.946157e-01 1.799658e-01 3.616441e-02 -1.984319e-04 4.635129e-04 2.012655e-03 -2.832315e-02 2.237987e-01 4.108262e-01 1.869346e-01 3.688400e-02 1.646156e-05 5.537332e-04 2.211746e-03 -2.783429e-02 2.253720e-01 4.135844e-01 1.891467e-01 3.735303e-02 3.608577e-04 4.092228e-04 2.835616e-03 -2.767516e-02 2.225318e-01 4.062848e-01 1.905827e-01 3.588631e-02 4.277542e-03 -2.540503e-03 5.408255e-03 -2.785984e-03 3.622207e-03 -8.298540e-04 2.563089e-03 6.642906e-04 2.164019e-03 1.821640e-03 2.120870e-03 2.931177e-03 2.260814e-03 
2.137357e-03 1.146920e-03 4.556698e-03 -3.398113e-02 -1.613155e+00 7.474189e-03 -1.621941e-03 -2.630696e-03 5.894702e-05 -4.586106e-03 4.542361e-03 -1.143218e-02 1.992405e-02 -3.330154e-02 -4.089224e-02 2.852052e+00 7.569694e+00 4.813185e+00 1.644444e-01 2.998962e-02 -2.434396e-03 -2.470830e-02 -4.656139e-02 3.159280e+00 8.125029e+00 5.056492e+00 1.562193e-01 3.074964e-02 -2.920106e-03 -2.405096e-02 -4.717666e-02 3.312526e+00 8.420051e+00 5.195011e+00 1.544458e-01 3.140123e-02 -3.441192e-03 -2.344268e-02 -4.759082e-02 3.324823e+00 8.451334e+00 5.213342e+00 1.549361e-01 3.213524e-02 -4.115536e-03 -2.257724e-02 -4.887667e-02 3.242086e+00 8.338017e+00 5.190586e+00 1.556069e-01 4.258385e-02 -2.430632e-02 1.001030e-02 -6.436704e-03 3.578820e-03 -1.646238e-03 1.775915e-03 -1.446246e-06 1.227910e-03 8.248453e-04 1.083629e-03 1.463977e-03 1.098062e-03 
-1.078448e-04 -1.558451e-04 1.232926e-03 -2.442760e-02 2.136304e-01 2.559563e-02 2.409769e-03 -9.718895e-04 2.071172e-03 -3.261951e-03 6.815517e-03 -1.198887e-02 2.743114e-02 -4.615621e-02 -2.455752e-02 4.013170e+00 1.060857e+01 6.735739e+00 1.807467e-01 4.349281e-02 -3.687629e-03 -3.672631e-02 -2.591057e-02 4.443835e+00 1.136936e+01 7.055067e+00 1.620707e-01 4.298890e-02 -4.211107e-03 -3.668987e-02 -2.364146e-02 4.655792e+00 1.176787e+01 7.234869e+00 1.559548e-01 4.302458e-02 -4.751851e-03 -3.646089e-02 -2.398053e-02 4.667414e+00 1.179914e+01 7.251610e+00 1.565087e-01 4.332397e-02 -5.395641e-03 -3.615845e-02 -2.772434e-02 4.542371e+00 1.163027e+01 7.215128e+00 1.607733e-01 5.565913e-02 -3.277307e-02 1.041862e-02 -8.106648e-03 2.671513e-03 -2.287835e-03 7.989043e-04 -7.908498e-04 2.439999e-04 -3.459158e-04 3.451421e-05 -1.884925e-04 -6.393204e-05 
-2.371789e-03 -1.484313e-03 -1.856982e-03 -2.149584e-02 2.052381e+00 5.097082e-02 6.183355e-03 1.943969e-03 1.686885e-03 2.578817e-03 -8.492957e-04 6.299534e-03 -9.451774e-03 2.262559e-02 -3.084993e-03 -1.451102e+00 -3.790472e+00 -2.382441e+00 -5.745743e-02 -1.232815e-02 -3.682805e-04 1.815143e-02 -8.452863e-04 -1.617288e+00 -4.089532e+00 -2.513128e+00 -4.896056e-02 -1.494665e-02 4.872350e-04 1.661164e-02 1.860134e-04 -1.702768e+00 -4.252348e+00 -2.589834e+00 -4.509842e-02 -1.680186e-02 1.318849e-03 1.522089e-02 1.934369e-03 -1.714678e+00 -4.280822e+00 -2.606859e+00 -4.380619e-02 -1.836699e-02 2.159232e-03 1.357304e-02 5.030714e-03 -1.678008e+00 -4.239618e+00 -2.606012e+00 -4.371184e-02 -2.418245e-02 1.114013e-02 -4.940981e-03 2.313675e-03 -1.661861e-03 -7.934175e-06 -1.030740e-03 -7.945926e-04 -9.934242e-04 -1.279303e-03 -1.106515e-03 -1.774019e-03 -1.264003e-03 