# vtk DataFile Version 2.0
Comment goes here
ASCII

DATASET STRUCTURED_POINTS
FIELD FieldData 1
TIME 1 1 double
0.01000000
DIMENSIONS    64   64   1

ORIGIN    0.000   0.000   0.000
SPACING   0.03125 0.03125   1.000

POINT_DATA   4096
SCALARS P double
LOOKUP_TABLE default

1.126005e+01 -4.116853e+01 2.831924e+01 -6.496826e+01 9.830134e+01 1.778872e+02 5.411891e+01 1.648964e+02 6.269312e+01 1.515093e+02 6.989040e+01 1.386461e+02 7.236456e+01 1.304332e+02 7.016551e+01 1.245330e+02 6.687227e+01 1.184487e+02 6.225673e+01 1.132536e+02 5.722488e+01 1.081300e+02 5.235494e+01 1.004074e+02 5.240858e+01 8.792945e+01 5.297278e+01 7.989163e+01 4.862043e+01 7.311253e+01 4.769530e+01 6.280604e+01 4.587525e+01 5.602683e+01 4.427914e+01 4.677179e+01 4.216225e+01 3.925928e+01 4.141913e+01 3.038768e+01 4.009545e+01 2.375359e+01 3.836338e+01 1.373545e+01 4.056140e+01 5.127712e+00 3.611090e+01 3.651985e+00 3.042331e+01 -3.788370e+00 3.399640e+01 -1.838456e+01 4.090709e+01 -3.157594e+01 4.359944e+01 -3.951525e+01 4.278517e+01 -4.410426e+01 3.636319e+01 -4.020056e+01 2.547559e+01 -3.739734e+01 1.693106e+01 -3.574675e+01 
-4.317190e-01 -6.064054e+01 8.180750e+00 -7.340869e+01 5.587766e+01 1.128611e+02 1.906468e+01 1.069985e+02 2.227609e+01 1.001575e+02 2.528114e+01 9.268435e+01 2.615522e+01 8.724853e+01 2.482266e+01 8.254787e+01 2.329749e+01 7.734421e+01 2.114865e+01 7.251405e+01 1.879690e+01 6.772292e+01 1.644553e+01 6.133723e+01 1.704370e+01 5.211130e+01 1.788329e+01 4.550601e+01 1.574812e+01 3.948017e+01 1.583163e+01 3.129835e+01 1.515691e+01 2.537487e+01 1.462169e+01 1.779676e+01 1.385346e+01 1.124886e+01 1.382518e+01 3.872854e+00 1.340633e+01 -2.133602e+00 1.271146e+01 -1.028122e+01 1.459164e+01 -1.782974e+01 1.271423e+01 -2.107265e+01 9.806643e+00 -2.750443e+01 1.197838e+01 -3.766710e+01 1.570278e+01 -4.669272e+01 1.682024e+01 -5.269784e+01 1.638762e+01 -5.727179e+01 1.318871e+01 -5.717039e+01 7.799765e+00 -5.782920e+01 3.573354e+00 -5.812497e+01 
-3.364788e+00 -8.269544e+01 -1.941669e+00 -8.760033e+01 1.210902e+01 8.546263e+01 -1.466819e+00 8.225785e+01 -1.605685e+00 7.832628e+01 -1.510784e+00 7.357445e+01 -1.580167e+00 6.877430e+01 -1.883287e+00 6.368825e+01 -2.071890e+00 5.825410e+01 -2.394833e+00 5.278479e+01 -2.772810e+00 4.722745e+01 -3.141521e+00 4.113218e+01 -2.717468e+00 3.424612e+01 -2.261635e+00 2.792713e+01 -2.490722e+00 2.159156e+01 -2.107822e+00 1.473488e+01 -2.054497e+00 8.523280e+00 -1.990737e+00 1.808208e+00 -1.874306e+00 -4.701930e+00 -1.640661e+00 -1.139115e+01 -1.502516e+00 -1.778574e+01 -1.394539e+00 -2.472184e+01 -5.525968e-01 -3.168303e+01 -3.589938e-01 -3.766777e+01 -5.441153e-01 -4.409208e+01 9.908805e-02 -5.093091e+01 7.666892e-01 -5.714881e+01 6.152883e-01 -6.248406e+01 2.803119e-01 -6.760086e+01 -3.954020e-01 -7.178071e+01 -1.245998e+00 -7.614526e+01 -1.890521e+00 -7.979686e+01 
-2.918995e+00 -7.801734e+01 -2.026061e+00 -8.125859e+01 -1.269900e+00 8.094765e+01 -8.495816e-01 7.832476e+01 -6.259210e-01 7.478905e+01 -4.369997e-01 7.054996e+01 -4.585206e-01 6.606698e+01 -7.235464e-01 6.132461e+01 -1.050669e+00 5.630249e+01 -1.465500e+00 5.112082e+01 -1.891789e+00 4.572048e+01 -2.181729e+00 3.984812e+01 -2.012218e+00 3.350362e+01 -1.778468e+00 2.731161e+01 -1.814978e+00 2.110067e+01 -1.650614e+00 1.468647e+01 -1.588831e+00 8.473405e+00 -1.535308e+00 2.080012e+00 -1.434017e+00 -4.276826e+00 -1.275482e+00 -1.067983e+01 -1.133116e+00 -1.701184e+01 -9.421155e-01 -2.354979e+01 -4.926610e-01 -2.999936e+01 -3.430426e-01 -3.598503e+01 -3.370414e-01 -4.215214e+01 1.179965e-01 -4.853242e+01 6.406549e-01 -5.450489e+01 6.865154e-01 -5.975356e+01 3.654009e-01 -6.442336e+01 -3.552255e-01 -6.832848e+01 -1.283821e+00 -7.195415e+01 -2.113251e+00 -7.513874e+01 
-2.058142e+00 -8.390929e+01 -1.812847e+00 -8.738614e+01 -1.552203e+00 8.548222e+01 -1.512982e+00 8.235645e+01 -1.544697e+00 7.839296e+01 -1.556252e+00 7.380991e+01 -1.636698e+00 6.889984e+01 -1.807460e+00 6.370073e+01 -1.987948e+00 5.824158e+01 -2.206892e+00 5.261521e+01 -2.424113e+00 4.680163e+01 -2.559590e+00 4.067713e+01 -2.438291e+00 3.424156e+01 -2.267262e+00 2.784228e+01 -2.229695e+00 2.140132e+01 -2.079355e+00 1.482933e+01 -1.985988e+00 8.356727e+00 -1.896285e+00 1.778109e+00 -1.779318e+00 -4.787486e+00 -1.621046e+00 -1.138962e+01 -1.463054e+00 -1.795636e+01 -1.264723e+00 -2.464027e+01 -9.015126e-01 -3.127578e+01 -6.930264e-01 -3.762986e+01 -5.825546e-01 -4.400530e+01 -2.928581e-01 -5.037703e+01 -3.609845e-02 -5.641168e+01 -7.278540e-02 -6.196715e+01 -3.047033e-01 -6.714863e+01 -7.177223e-01 -7.185376e+01 -1.219094e+00 -7.630339e+01 -1.670458e+00 -8.031039e+01 
-1.886359e+00 -7.994982e+01 -1.646422e+00 -8.316771e+01 -1.291461e+00 8.257955e+01 -9.668972e-01 7.942485e+01 -7.702798e-01 7.560751e+01 -6.609414e-01 7.127104e+01 -6.798103e-01 6.660170e+01 -8.319993e-01 6.166133e+01 -1.059555e+00 5.647867e+01 -1.331359e+00 5.109395e+01 -1.589805e+00 4.548748e+01 -1.754137e+00 3.959805e+01 -1.745545e+00 3.346438e+01 -1.675410e+00 2.727253e+01 -1.643186e+00 2.102760e+01 -1.568734e+00 1.470806e+01 -1.507896e+00 8.400420e+00 -1.443918e+00 2.042651e+00 -1.355101e+00 -4.324656e+00 -1.237578e+00 -1.070636e+01 -1.105103e+00 -1.708049e+01 -9.371275e-01 -2.348208e+01 -7.093166e-01 -2.981254e+01 -5.543720e-01 -3.597942e+01 -4.322383e-01 -4.211780e+01 -2.073712e-01 -4.820018e+01 1.918743e-03 -5.399817e+01 7.379776e-03 -5.935167e+01 -2.122408e-01 -6.424636e+01 -6.395237e-01 -6.866582e+01 -1.166798e+00 -7.274161e+01 -1.632368e+00 -7.648045e+01 
-1.666051e+00 -8.530300e+01 -1.636151e+00 -8.891621e+01 -1.546154e+00 8.685279e+01 -1.499555e+00 8.328279e+01 -1.505518e+00 7.907281e+01 -1.532991e+00 7.436780e+01 -1.602427e+00 6.931106e+01 -1.720676e+00 6.397099e+01 -1.864052e+00 5.839463e+01 -2.019454e+00 5.263177e+01 -2.155940e+00 4.668644e+01 -2.232390e+00 4.053345e+01 -2.207919e+00 3.419978e+01 -2.139410e+00 2.779888e+01 -2.080305e+00 2.134261e+01 -1.993094e+00 1.482415e+01 -1.912798e+00 8.296762e+00 -1.828269e+00 1.735223e+00 -1.725020e+00 -4.836567e+00 -1.600413e+00 -1.142361e+01 -1.463470e+00 -1.801027e+01 -1.299577e+00 -2.460651e+01 -1.093540e+00 -3.114954e+01 -9.289324e-01 -3.757291e+01 -8.015059e-01 -4.392401e+01 -6.521268e-01 -5.016072e+01 -5.435134e-01 -5.615352e+01 -5.634292e-01 -6.182508e+01 -7.065002e-01 -6.717600e+01 -9.513486e-01 -7.219018e+01 -1.242308e+00 -7.690863e+01 -1.502205e+00 -8.128367e+01 
-1.458757e+00 -8.214446e+01 -1.362208e+00 -8.589981e+01 -1.153280e+00 8.497936e+01 -9.704022e-01 8.117935e+01 -8.331544e-01 7.693873e+01 -7.590561e-01 7.232008e+01 -7.687511e-01 6.740369e+01 -8.652007e-01 6.223777e+01 -1.023731e+00 5.685527e+01 -1.209788e+00 5.128806e+01 -1.380768e+00 4.553741e+01 -1.497880e+00 3.959242e+01 -1.539353e+00 3.348291e+01 -1.533918e+00 2.728641e+01 -1.512798e+00 2.102937e+01 -1.472437e+00 1.471777e+01 -1.429204e+00 8.377914e+00 -1.376602e+00 2.015069e+00 -1.304269e+00 -4.358075e+00 -1.213986e+00 -1.074057e+01 -1.112023e+00 -1.712179e+01 -9.913591e-01 -2.348512e+01 -8.519054e-01 -2.978939e+01 -7.327601e-01 -3.600406e+01 -6.307466e-01 -4.214107e+01 -5.169156e-01 -4.815260e+01 -4.311630e-01 -5.393513e+01 -4.443219e-01 -5.940793e+01 -5.804867e-01 -6.454552e+01 -8.241847e-01 -6.935087e+01 -1.113142e+00 -7.386967e+01 -1.355274e+00 -7.812563e+01 
-1.514358e+00 -8.710491e+01 -1.515356e+00 -9.125945e+01 -1.467523e+00 8.902446e+01 -1.450605e+00 8.484987e+01 -1.450105e+00 8.024649e+01 -1.469079e+00 7.527582e+01 -1.519093e+00 7.000406e+01 -1.607702e+00 6.447630e+01 -1.726734e+00 5.873330e+01 -1.849681e+00 5.283031e+01 -1.946637e+00 4.677874e+01 -2.004817e+00 4.057035e+01 -2.020574e+00 3.422491e+01 -2.001571e+00 2.781082e+01 -1.958317e+00 2.134628e+01 -1.899172e+00 1.482789e+01 -1.842947e+00 8.271143e+00 -1.778290e+00 1.702789e+00 -1.691554e+00 -4.870339e+00 -1.591527e+00 -1.145807e+01 -1.490193e+00 -1.805475e+01 -1.376035e+00 -2.462585e+01 -1.243253e+00 -3.114306e+01 -1.127190e+00 -3.758917e+01 -1.042280e+00 -4.395811e+01 -9.702273e-01 -5.018881e+01 -9.212582e-01 -5.621679e+01 -9.293802e-01 -6.200404e+01 -1.004734e+00 -6.754092e+01 -1.136927e+00 -7.282285e+01 -1.294283e+00 -7.785524e+01 -1.433010e+00 -8.262168e+01 
-1.255515e+00 -8.459695e+01 -1.192981e+00 -8.901395e+01 -1.059423e+00 8.784698e+01 -9.409199e-01 8.337807e+01 -8.384824e-01 7.864792e+01 -7.758123e-01 7.366552e+01 -7.718369e-01 6.845356e+01 -8.363420e-01 6.302931e+01 -9.598696e-01 5.741565e+01 -1.102643e+00 5.166522e+01 -1.224767e+00 4.578160e+01 -1.316214e+00 3.975121e+01 -1.379059e+00 3.358830e+01 -1.407467e+00 2.736088e+01 -1.401063e+00 2.108584e+01 -1.378329e+00 1.475574e+01 -1.359032e+00 8.378511e+00 -1.328408e+00 1.998008e+00 -1.270925e+00 -4.382029e+00 -1.201530e+00 -1.077617e+01 -1.136957e+00 -1.718112e+01 -1.063832e+00 -2.354714e+01 -9.736238e-01 -2.985604e+01 -8.936463e-01 -3.610719e+01 -8.407232e-01 -4.229071e+01 -7.977928e-01 -4.833428e+01 -7.642168e-01 -5.418157e+01 -7.716714e-01 -5.979915e+01 -8.401509e-01 -6.517721e+01 -9.633023e-01 -7.032336e+01 -1.106865e+00 -7.526123e+01 -1.220077e+00 -8.001276e+01 
-1.458038e+00 -8.922837e+01 -1.451982e+00 -9.401632e+01 -1.416532e+00 9.166437e+01 -1.397312e+00 8.685255e+01 -1.380868e+00 8.179050e+01 -1.376275e+00 7.648602e+01 -1.397535e+00 7.095317e+01 -1.463659e+00 6.519640e+01 -1.584182e+00 5.923176e+01 -1.704994e+00 5.317756e+01 -1.775382e+00 4.702793e+01 -1.818755e+00 4.074405e+01 -1.866755e+00 3.431851e+01 -1.887438e+00 2.787342e+01 -1.851884e+00 2.140404e+01 -1.801765e+00 1.486986e+01 -1.780426e+00 8.257085e+00 -1.749909e+00 1.675426e+00 -1.671172e+00 -4.889285e+00 -1.583515e+00 -1.148380e+01 -1.528779e+00 -1.812509e+01 -1.470679e+00 -2.469895e+01 -1.375934e+00 -3.120768e+01 -1.293869e+00 -3.768321e+01 -1.269350e+00 -4.413122e+01 -1.264656e+00 -5.041994e+01 -1.241183e+00 -5.652072e+01 -1.227092e+00 -6.243305e+01 -1.244866e+00 -6.816004e+01 -1.296033e+00 -7.370340e+01 -1.364493e+00 -7.906504e+01 -1.425687e+00 -8.424151e+01 
-1.160288e+00 -8.720700e+01 -1.102544e+00 -9.228794e+01 -1.003634e+00 9.096463e+01 -9.044637e-01 8.584659e+01 -8.090957e-01 8.061335e+01 -7.364236e-01 7.524204e+01 -7.075108e-01 6.971573e+01 -7.485092e-01 6.400937e+01 -8.761235e-01 5.811260e+01 -1.015950e+00 5.217585e+01 -1.099144e+00 4.617272e+01 -1.162440e+00 4.004207e+01 -1.251955e+00 3.375806e+01 -1.315433e+00 2.748339e+01 -1.305491e+00 2.119769e+01 -1.280295e+00 1.484053e+01 -1.299003e+00 8.382245e+00 -1.306725e+00 1.980889e+00 -1.249436e+00 -4.391560e+00 -1.183898e+00 -1.080126e+01 -1.169370e+00 -1.727974e+01 -1.153043e+00 -2.366612e+01 -1.085022e+00 -2.998032e+01 -1.027211e+00 -3.627855e+01 -1.039744e+00 -4.258119e+01 -1.068681e+00 -4.871242e+01 -1.055621e+00 -5.465736e+01 -1.037328e+00 -6.042936e+01 -1.044661e+00 -6.604021e+01 -1.082073e+00 -7.150322e+01 -1.132151e+00 -7.683732e+01 -1.166729e+00 -8.206421e+01 
-1.448290e+00 -9.154194e+01 -1.427284e+00 -9.695975e+01 -1.389510e+00 9.454481e+01 -1.350031e+00 8.911427e+01 -1.304941e+00 8.358228e+01 -1.260220e+00 7.792765e+01 -1.232171e+00 7.212750e+01 -1.265066e+00 6.612377e+01 -1.439340e+00 5.982003e+01 -1.610724e+00 5.362130e+01 -1.631358e+00 4.741207e+01 -1.627694e+00 4.105858e+01 -1.737813e+00 3.443123e+01 -1.829571e+00 2.796117e+01 -1.760536e+00 2.152735e+01 -1.675495e+00 1.498968e+01 -1.724641e+00 8.211301e+00 -1.769826e+00 1.631930e+00 -1.660347e+00 -4.877681e+00 -1.542639e+00 -1.146346e+01 -1.568410e+00 -1.826368e+01 -1.602012e+00 -2.483661e+01 -1.496488e+00 -3.130487e+01 -1.403078e+00 -3.780548e+01 -1.474397e+00 -4.446496e+01 -1.577448e+00 -5.083896e+01 -1.551530e+00 -5.701250e+01 -1.492503e+00 -6.304639e+01 -1.451021e+00 -6.896122e+01 -1.437496e+00 -7.476314e+01 -1.442795e+00 -8.045635e+01 -1.451082e+00 -8.604616e+01 
-1.122918e+00 -8.986918e+01 -1.061241e+00 -9.557706e+01 -9.758930e-01 9.416590e+01 -8.716262e-01 8.843992e+01 -7.617902e-01 8.272286e+01 -6.561468e-01 7.697708e+01 -5.747880e-01 7.115925e+01 -5.740476e-01 6.517753e+01 -7.784260e-01 5.885017e+01 -9.871230e-01 5.275445e+01 -9.941836e-01 4.669224e+01 -9.822051e-01 4.048440e+01 -1.148046e+00 3.391799e+01 -1.297450e+00 2.761825e+01 -1.226055e+00 2.138204e+01 -1.138456e+00 1.502495e+01 -1.246962e+00 8.328076e+00 -1.350560e+00 1.936067e+00 -1.237181e+00 -4.362724e+00 -1.115597e+00 -1.075880e+01 -1.200726e+00 -1.747188e+01 -1.294270e+00 -2.385637e+01 -1.187125e+00 -3.011951e+01 -1.090999e+00 -3.644634e+01 -1.219801e+00 -4.304537e+01 -1.381162e+00 -4.927662e+01 -1.352305e+00 -5.530520e+01 -1.277350e+00 -6.121967e+01 -1.219201e+00 -6.704969e+01 -1.188787e+00 -7.280999e+01 -1.174643e+00 -7.851742e+01 -1.158138e+00 -8.419436e+01 
-1.462863e+00 -9.392540e+01 -1.427645e+00 -9.993616e+01 -1.382625e+00 9.749508e+01 -1.315641e+00 9.148604e+01 -1.233511e+00 8.550290e+01 -1.130570e+00 7.951932e+01 -1.007955e+00 7.350829e+01 -9.262539e-01 6.734710e+01 -1.291020e+00 6.030339e+01 -1.670489e+00 5.407903e+01 -1.513871e+00 4.794295e+01 -1.324499e+00 4.164319e+01 -1.619157e+00 3.438461e+01 -1.935375e+00 2.801562e+01 -1.687765e+00 2.175709e+01 -1.417284e+00 1.534689e+01 -1.664306e+00 7.963595e+00 -1.947169e+00 1.521454e+00 -1.660456e+00 -4.787242e+00 -1.360820e+00 -1.123147e+01 -1.591936e+00 -1.863309e+01 -1.874918e+00 -2.507645e+01 -1.607495e+00 -3.136704e+01 -1.350286e+00 -3.777075e+01 -1.640186e+00 -4.508873e+01 -2.020510e+00 -5.145703e+01 -1.895882e+00 -5.764240e+01 -1.740586e+00 -6.377727e+01 -1.629287e+00 -6.987330e+01 -1.560563e+00 -7.592877e+01 -1.519612e+00 -8.194714e+01 -1.491079e+00 -8.793942e+01 
-1.117592e+00 -9.249003e+01 -1.051183e+00 -9.877354e+01 -9.708652e-01 9.731663e+01 -8.512400e-01 9.103310e+01 -7.151979e-01 8.486768e+01 -5.552486e-01 7.878968e+01 -3.645220e-01 7.277109e+01 -1.949054e-01 6.667919e+01 -6.691403e-01 5.935709e+01 -1.167336e+00 5.330425e+01 -9.113216e-01 4.736115e+01 -6.262897e-01 4.127572e+01 -1.050790e+00 3.380761e+01 -1.506025e+00 2.769377e+01 -1.166201e+00 2.169110e+01 -8.040225e-01 1.554133e+01 -1.189377e+00 7.963109e+00 -1.616414e+00 1.802029e+00 -1.236672e+00 -4.232727e+00 -8.448809e-01 -1.040551e+01 -1.213575e+00 -1.800022e+01 -1.640232e+00 -2.416429e+01 -1.281566e+00 -3.019110e+01 -9.349908e-01 -3.634541e+01 -1.358602e+00 -4.388762e+01 -1.885631e+00 -5.004083e+01 -1.696656e+00 -5.606507e+01 -1.501335e+00 -6.209283e+01 -1.366659e+00 -6.812716e+01 -1.280331e+00 -7.416728e+01 -1.221560e+00 -8.022444e+01 -1.171869e+00 -8.632120e+01 
-1.489896e+00 -9.627771e+01 -1.445404e+00 -1.028311e+02 -1.395767e+00 1.003799e+02 -1.303151e+00 9.383903e+01 -1.187743e+00 8.742990e+01 -1.024279e+00 8.114450e+01 -7.470741e-01 7.504943e+01 -1.527588e-01 6.943487e+01 -1.099558e+00 5.996092e+01 -2.285091e+00 5.445857e+01 -1.433963e+00 4.864672e+01 -5.522771e-01 4.317019e+01 -1.445174e+00 3.343594e+01 -2.623759e+00 2.796933e+01 -1.643248e+00 2.214758e+01 -6.587192e-01 1.666236e+01 -1.532689e+00 6.759225e+00 -2.712763e+00 1.287214e+00 -1.679084e+00 -4.552265e+00 -6.660821e-01 -1.005502e+01 -1.528894e+00 -1.997813e+01 -2.715662e+00 -2.545960e+01 -1.713654e+00 -3.130723e+01 -7.683283e-01 -3.683123e+01 -1.684112e+00 -4.668178e+01 -2.982824e+00 -5.224937e+01 -2.273611e+00 -5.832011e+01 -1.945321e+00 -6.454532e+01 -1.765472e+00 -7.082404e+01 -1.656829e+00 -7.712892e+01 -1.585963e+00 -8.346047e+01 -1.534251e+00 -8.983423e+01 
-1.129809e+00 -9.499003e+01 -1.062461e+00 -1.017919e+02 -9.880917e-01 1.003059e+02 -8.540039e-01 9.351480e+01 -6.975151e-01 8.693075e+01 -4.897264e-01 8.055006e+01 -1.422021e-01 7.447476e+01 6.614225e-01 6.917242e+01 -4.858350e-01 5.883797e+01 -1.966921e+00 5.375093e+01 -8.624758e-01 4.818451e+01 2.734787e-01 4.318726e+01 -8.611040e-01 3.260788e+01 -2.383402e+00 2.766577e+01 -1.134610e+00 2.215709e+01 1.127960e-01 1.721297e+01 -1.023156e+00 6.456940e+00 -2.568048e+00 1.550243e+00 -1.254525e+00 -3.956207e+00 2.689579e-02 -8.904817e+00 -1.100904e+00 -1.968188e+01 -2.656906e+00 -2.459966e+01 -1.370019e+00 -3.012801e+01 -1.544308e-01 -3.512661e+01 -1.329573e+00 -4.584552e+01 -3.002659e+00 -5.092128e+01 -2.052776e+00 -5.681823e+01 -1.665880e+00 -6.295809e+01 -1.466647e+00 -6.919741e+01 -1.345728e+00 -7.550544e+01 -1.261755e+00 -8.188872e+01 -1.193886e+00 -8.837147e+01 
-1.522432e+00 -9.851575e+01 -1.475702e+00 -1.055553e+02 -1.429370e+00 1.030924e+02 -1.319983e+00 9.606491e+01 -1.194637e+00 8.923673e+01 -1.034854e+00 8.258163e+01 -8.061126e-01 7.610732e+01 -4.449860e-01 6.986118e+01 -1.112359e+00 6.121481e+01 -1.899431e+00 5.512902e+01 -1.371851e+00 4.899770e+01 -8.102400e-01 4.297241e+01 -1.441007e+00 3.424804e+01 -2.222144e+00 2.825847e+01 -1.589617e+00 2.217943e+01 -9.425512e-01 1.618894e+01 -1.558391e+00 7.377226e+00 -2.340651e+00 1.401143e+00 -1.664060e+00 -4.677891e+00 -9.906115e-01 -1.067352e+01 -1.603478e+00 -1.950343e+01 -2.401109e+00 -2.549346e+01 -1.750631e+00 -3.159527e+01 -1.129406e+00 -3.762654e+01 -1.800470e+00 -4.645029e+01 -2.707162e+00 -5.254536e+01 -2.268201e+00 -5.884558e+01 -2.001134e+00 -6.525969e+01 -1.830928e+00 -7.174747e+01 -1.716605e+00 -7.830050e+01 -1.635462e+00 -8.492891e+01 -1.573719e+00 -9.165581e+01 
-1.150854e+00 -9.730277e+01 -1.088336e+00 -1.045627e+02 -1.026213e+00 1.030463e+02 -8.856700e-01 9.579297e+01 -7.351673e-01 8.879154e+01 -5.644404e-01 8.199933e+01 -3.681133e-01 7.536939e+01 -2.093527e-01 6.873437e+01 -6.234528e-01 6.109478e+01 -1.057491e+00 5.464750e+01 -8.282740e-01 4.839384e+01 -5.733758e-01 4.203050e+01 -9.579421e-01 3.448651e+01 -1.374534e+00 2.816839e+01 -1.083013e+00 2.201192e+01 -7.711866e-01 1.570913e+01 -1.135324e+00 8.157016e+00 -1.540935e+00 1.859696e+00 -1.221301e+00 -4.283567e+00 -8.896305e-01 -1.058435e+01 -1.248845e+00 -1.814674e+01 -1.664506e+00 -2.446299e+01 -1.368903e+00 -3.063757e+01 -1.079663e+00 -3.698319e+01 -1.491343e+00 -4.458576e+01 -1.995486e+00 -5.101196e+01 -1.836655e+00 -5.733670e+01 -1.640640e+00 -6.372548e+01 -1.488618e+00 -7.019857e+01 -1.375699e+00 -7.676698e+01 -1.288470e+00 -8.345131e+01 -1.216040e+00 -9.028280e+01 
-1.555939e+00 -1.005719e+02 -1.513129e+00 -1.080374e+02 -1.476706e+00 1.055560e+02 -1.359181e+00 9.809336e+01 -1.240118e+00 9.087090e+01 -1.115640e+00 8.383456e+01 -9.932764e-01 7.692123e+01 -9.293667e-01 6.999756e+01 -1.178467e+00 6.261996e+01 -1.434539e+00 5.584762e+01 -1.344174e+00 4.923146e+01 -1.237437e+00 4.254157e+01 -1.459859e+00 3.528561e+01 -1.690557e+00 2.863605e+01 -1.549683e+00 2.211368e+01 -1.395741e+00 1.548522e+01 -1.592941e+00 8.242737e+00 -1.807485e+00 1.614934e+00 -1.644702e+00 -4.894292e+00 -1.476250e+00 -1.152037e+01 -1.671455e+00 -1.877427e+01 -1.897035e+00 -2.542047e+01 -1.757437e+00 -3.195885e+01 -1.625926e+00 -3.862440e+01 -1.867126e+00 -4.592290e+01 -2.155480e+00 -5.264372e+01 -2.087360e+00 -5.926025e+01 -1.959197e+00 -6.590107e+01 -1.841080e+00 -7.260522e+01 -1.744800e+00 -7.939556e+01 -1.668207e+00 -8.629719e+01 -1.606651e+00 -9.334225e+01 
-1.175049e+00 -9.937360e+01 -1.121626e+00 -1.070293e+02 -1.075355e+00 1.054797e+02 -9.341376e-01 9.782078e+01 -7.979109e-01 9.044404e+01 -6.681127e-01 8.328703e+01 -5.604768e-01 7.627500e+01 -5.286696e-01 6.928835e+01 -6.840057e-01 6.215744e+01 -8.434269e-01 5.536249e+01 -8.282371e-01 4.872221e+01 -8.066354e-01 4.204461e+01 -9.580854e-01 3.513346e+01 -1.104391e+00 2.852128e+01 -1.059658e+00 2.202335e+01 -1.007103e+00 1.544683e+01 -1.137898e+00 8.594330e+00 -1.268847e+00 2.026796e+00 -1.207922e+00 -4.442727e+00 -1.144234e+00 -1.100807e+01 -1.272747e+00 -1.786727e+01 -1.411731e+00 -2.445693e+01 -1.369337e+00 -3.096517e+01 -1.334069e+00 -3.758548e+01 -1.496985e+00 -4.451410e+01 -1.675843e+00 -5.119570e+01 -1.660838e+00 -5.779035e+01 -1.572269e+00 -6.440862e+01 -1.472718e+00 -7.110409e+01 -1.382001e+00 -7.791176e+01 -1.303397e+00 -8.486543e+01 -1.235198e+00 -9.200395e+01 
-1.587324e+00 -1.023914e+02 -1.551880e+00 -1.102205e+02 -1.527750e+00 1.077177e+02 -1.406750e+00 9.988208e+01 -1.296138e+00 9.231936e+01 -1.198395e+00 8.496543e+01 -1.127223e+00 7.775089e+01 -1.116940e+00 7.059021e+01 -1.217511e+00 6.340102e+01 -1.323905e+00 5.641545e+01 -1.339120e+00 4.954533e+01 -1.349831e+00 4.267244e+01 -1.448645e+00 3.570082e+01 -1.540384e+00 2.889238e+01 -1.528601e+00 2.216024e+01 -1.510760e+00 1.538733e+01 -1.587742e+00 8.479462e+00 -1.662861e+00 1.716393e+00 -1.636700e+00 -4.987789e+00 -1.610141e+00 -1.174997e+01 -1.686690e+00 -1.866449e+01 -1.770573e+00 -2.544892e+01 -1.761950e+00 -3.218954e+01 -1.760214e+00 -3.900261e+01 -1.864573e+00 -4.598085e+01 -1.973784e+00 -5.284097e+01 -1.970037e+00 -5.964964e+01 -1.908745e+00 -6.647890e+01 -1.830971e+00 -7.337645e+01 -1.755486e+00 -8.037881e+01 -1.688993e+00 -8.752132e+01 -1.632999e+00 -9.484340e+01 
-1.198627e+00 -1.011582e+02 -1.155783e+00 -1.091458e+02 -1.124992e+00 1.075655e+02 -9.849851e-01 9.956663e+01 -8.599875e-01 9.187744e+01 -7.544746e-01 8.443123e+01 -6.822775e-01 7.715859e+01 -6.684462e-01 6.998762e+01 -7.318983e-01 6.287581e+01 -8.071638e-01 5.592580e+01 -8.395613e-01 4.909188e+01 -8.727859e-01 4.229052e+01 -9.536749e-01 3.547451e+01 -1.028793e+00 2.876325e+01 -1.048491e+00 2.211718e+01 -1.064572e+00 1.545700e+01 -1.130188e+00 8.740663e+00 -1.192585e+00 2.099417e+00 -1.201541e+00 -4.502426e+00 -1.210985e+00 -1.114258e+01 -1.276061e+00 -1.786222e+01 -1.344939e+00 -2.452865e+01 -1.367001e+00 -3.117737e+01 -1.394087e+00 -3.788551e+01 -1.476655e+00 -4.469283e+01 -1.555238e+00 -5.146369e+01 -1.561743e+00 -5.821915e+01 -1.516950e+00 -6.501408e+01 -1.450038e+00 -7.189711e+01 -1.378773e+00 -7.891018e+01 -1.311360e+00 -8.609424e+01 -1.250909e+00 -9.349354e+01 
-1.614522e+00 -1.039309e+02 -1.587202e+00 -1.120594e+02 -1.574353e+00 1.095379e+02 -1.451250e+00 1.013971e+02 -1.345103e+00 9.355899e+01 -1.259458e+00 8.595775e+01 -1.204988e+00 7.852867e+01 -1.198302e+00 7.121161e+01 -1.246802e+00 6.397465e+01 -1.306621e+00 5.686917e+01 -1.341997e+00 4.986419e+01 -1.377357e+00 4.290132e+01 -1.439459e+00 3.594985e+01 -1.495653e+00 2.907405e+01 -1.516442e+00 2.224959e+01 -1.533475e+00 1.542291e+01 -1.578935e+00 8.568788e+00 -1.621516e+00 1.760746e+00 -1.631838e+00 -5.021410e+00 -1.643155e+00 -1.182927e+01 -1.689131e+00 -1.868689e+01 -1.738945e+00 -2.551929e+01 -1.762424e+00 -3.234616e+01 -1.790440e+00 -3.921840e+01 -1.851821e+00 -4.615856e+01 -1.907666e+00 -5.308821e+01 -1.912800e+00 -6.001756e+01 -1.876883e+00 -6.698806e+01 -1.820765e+00 -7.404273e+01 -1.759863e+00 -8.122189e+01 -1.702766e+00 -8.856600e+01 -1.653624e+00 -9.611903e+01 
-1.219143e+00 -1.026211e+02 -1.186096e+00 -1.108755e+02 -1.167912e+00 1.092713e+02 -1.028623e+00 1.010018e+02 -9.088311e-01 9.306771e+01 -8.126800e-01 8.540244e+01 -7.501544e-01 7.794147e+01 -7.342908e-01 7.062749e+01 -7.671702e-01 6.343043e+01 -8.155206e-01 5.637377e+01 -8.527061e-01 4.943022e+01 -8.931568e-01 4.255056e+01 -9.531361e-01 3.570929e+01 -1.009703e+00 2.894097e+01 -1.042912e+00 2.222631e+01 -1.073751e+00 1.552244e+01 -1.123392e+00 8.810583e+00 -1.170711e+00 2.133643e+00 -1.196484e+00 -4.522737e+00 -1.223172e+00 -1.119871e+01 -1.273274e+00 -1.791150e+01 -1.326095e+00 -2.461705e+01 -1.361578e+00 -3.132928e+01 -1.399711e+00 -3.808790e+01 -1.458148e+00 -4.490911e+01 -1.508118e+00 -5.174645e+01 -1.516091e+00 -5.860783e+01 -1.485975e+00 -6.553112e+01 -1.434175e+00 -7.256001e+01 -1.374688e+00 -7.973772e+01 -1.316173e+00 -8.710815e+01 -1.263374e+00 -9.471846e+01 
-1.636219e+00 -1.051561e+02 -1.616097e+00 -1.135185e+02 -1.611838e+00 1.109837e+02 -1.486479e+00 1.026077e+02 -1.379742e+00 9.456086e+01 -1.294390e+00 8.677778e+01 -1.239102e+00 7.919465e+01 -1.227351e+00 7.175235e+01 -1.265062e+00 6.441558e+01 -1.315490e+00 5.722271e+01 -1.347067e+00 5.014161e+01 -1.379577e+00 4.311843e+01 -1.435334e+00 3.612239e+01 -1.487246e+00 2.920491e+01 -1.509556e+00 2.234184e+01 -1.528643e+00 1.548543e+01 -1.571754e+00 8.611332e+00 -1.613127e+00 1.779804e+00 -1.627336e+00 -5.028699e+00 -1.642281e+00 -1.185942e+01 -1.686483e+00 -1.873517e+01 -1.734457e+00 -2.559461e+01 -1.759837e+00 -3.245695e+01 -1.788180e+00 -3.936720e+01 -1.843540e+00 -4.634755e+01 -1.893331e+00 -5.333546e+01 -1.898514e+00 -6.034395e+01 -1.867398e+00 -6.741289e+01 -1.817837e+00 -7.458465e+01 -1.763458e+00 -8.190047e+01 -1.712394e+00 -8.940265e+01 -1.669092e+00 -9.713724e+01 
-1.235070e+00 -1.037349e+02 -1.209924e+00 -1.121902e+02 -1.200609e+00 1.105696e+02 -1.060870e+00 1.020997e+02 -9.405633e-01 9.398810e+01 -8.425311e-01 8.616897e+01 -7.755320e-01 7.857717e+01 -7.542205e-01 7.114965e+01 -7.881069e-01 6.384378e+01 -8.369161e-01 5.670880e+01 -8.646115e-01 4.970504e+01 -8.952894e-01 4.277179e+01 -9.559146e-01 3.587059e+01 -1.014876e+00 2.906544e+01 -1.040980e+00 2.232509e+01 -1.064849e+00 1.559549e+01 -1.118386e+00 8.845100e+00 -1.170983e+00 2.147723e+00 -1.191599e+00 -4.523016e+00 -1.212586e+00 -1.121847e+01 -1.267237e+00 -1.796852e+01 -1.325260e+00 -2.469843e+01 -1.354737e+00 -3.143452e+01 -1.385874e+00 -3.822839e+01 -1.447831e+00 -4.511002e+01 -1.503993e+00 -5.200511e+01 -1.510354e+00 -5.893436e+01 -1.478942e+00 -6.594248e+01 -1.428677e+00 -7.307432e+01 -1.372892e+00 -8.037312e+01 -1.319357e+00 -8.788321e+01 -1.272455e+00 -9.565262e+01 
-1.651636e+00 -1.060411e+02 -1.637322e+00 -1.145714e+02 -1.638783e+00 1.120275e+02 -1.511031e+00 1.034861e+02 -1.399409e+00 9.529733e+01 -1.304451e+00 8.739702e+01 -1.233819e+00 7.971927e+01 -1.209781e+00 7.218630e+01 -1.271413e+00 6.471158e+01 -1.345304e+00 5.746468e+01 -1.353375e+00 5.036151e+01 -1.359928e+00 4.330778e+01 -1.434584e+00 3.621575e+01 -1.509524e+00 2.928187e+01 -1.507325e+00 2.242799e+01 -1.500632e+00 1.556513e+01 -1.565388e+00 8.610745e+00 -1.632650e+00 1.776356e+00 -1.623346e+00 -5.013227e+00 -1.612938e+00 -1.184505e+01 -1.679151e+00 -1.880036e+01 -1.753362e+00 -2.566660e+01 -1.755683e+00 -3.251941e+01 -1.759936e+00 -3.944662e+01 -1.840214e+00 -4.652993e+01 -1.924689e+00 -5.356208e+01 -1.922411e+00 -6.060974e+01 -1.878625e+00 -6.773501e+01 -1.822389e+00 -7.498299e+01 -1.766977e+00 -8.239363e+01 -1.718296e+00 -9.000839e+01 -1.679234e+00 -9.787340e+01 
-1.245524e+00 -1.044790e+02 -1.226438e+00 -1.130689e+02 -1.222706e+00 1.114367e+02 -1.082002e+00 1.028362e+02 -9.567515e-01 9.461425e+01 -8.468149e-01 8.670730e+01 -7.595952e-01 7.904803e+01 -7.219681e-01 7.154856e+01 -7.948887e-01 6.408512e+01 -8.819118e-01 5.691291e+01 -8.758945e-01 4.990983e+01 -8.689813e-01 4.296013e+01 -9.597559e-01 3.593509e+01 -1.054223e+00 2.912570e+01 -1.042831e+00 2.241378e+01 -1.027250e+00 1.568863e+01 -1.113239e+00 8.825862e+00 -1.204146e+00 2.135806e+00 -1.187689e+00 -4.497923e+00 -1.169275e+00 -1.118429e+01 -1.256758e+00 -1.804649e+01 -1.353898e+00 -2.477309e+01 -1.347747e+00 -3.148144e+01 -1.342487e+00 -3.828193e+01 -1.442605e+00 -4.529869e+01 -1.550895e+00 -5.222956e+01 -1.544395e+00 -5.918187e+01 -1.493149e+00 -6.623028e+01 -1.431516e+00 -7.342222e+01 -1.372275e+00 -8.079823e+01 -1.320171e+00 -8.840056e+01 -1.277385e+00 -9.627633e+01 
-1.660377e+00 -1.065676e+02 -1.651086e+00 -1.151994e+02 -1.656506e+00 1.126461e+02 -1.527561e+00 1.040084e+02 -1.408976e+00 9.574298e+01 -1.295599e+00 8.779260e+01 -1.186606e+00 8.009893e+01 -1.110411e+00 7.255948e+01 -1.263542e+00 6.477742e+01 -1.444572e+00 5.756396e+01 -1.364343e+00 5.053322e+01 -1.274716e+00 4.353385e+01 -1.430083e+00 3.614912e+01 -1.611378e+00 2.928026e+01 -1.511945e+00 2.252457e+01 -1.403235e+00 1.573494e+01 -1.552522e+00 8.488399e+00 -1.730757e+00 1.729571e+00 -1.622618e+00 -4.954033e+00 -1.509038e+00 -1.170859e+01 -1.659860e+00 -1.895644e+01 -1.846158e+00 -2.575062e+01 -1.751932e+00 -3.250610e+01 -1.658114e+00 -3.937148e+01 -1.829193e+00 -4.676576e+01 -2.044991e+00 -5.377248e+01 -1.990217e+00 -6.079767e+01 -1.904724e+00 -6.793471e+01 -1.828871e+00 -7.521947e+01 -1.767109e+00 -8.268401e+01 -1.718747e+00 -9.036590e+01 -1.683156e+00 -9.830974e+01 
-1.250081e+00 -1.048399e+02 -1.236219e+00 -1.134980e+02 -1.236411e+00 1.118533e+02 -1.096101e+00 1.031904e+02 -9.644605e-01 9.492306e+01 -8.340781e-01 8.699696e+01 -6.991883e-01 7.935950e+01 -5.838452e-01 7.190804e+01 -7.841112e-01 6.403162e+01 -1.024781e+00 5.694954e+01 -8.917136e-01 5.006316e+01 -7.483410e-01 4.322116e+01 -9.549447e-01 3.578076e+01 -1.202886e+00 2.909055e+01 -1.051660e+00 2.251781e+01 -8.909941e-01 1.591685e+01 -1.097713e+00 8.630759e+00 -1.347614e+00 2.069679e+00 -1.188311e+00 -4.418071e+00 -1.023030e+00 -1.097682e+01 -1.231210e+00 -1.826328e+01 -1.488696e+00 -2.486393e+01 -1.342641e+00 -3.143423e+01 -1.197170e+00 -3.812187e+01 -1.424306e+00 -4.557685e+01 -1.715584e+00 -5.243127e+01 -1.625897e+00 -5.933289e+01 -1.520295e+00 -6.637488e+01 -1.434828e+00 -7.358692e+01 -1.368008e+00 -8.099842e+01 -1.316018e+00 -8.864648e+01 -1.276862e+00 -9.657610e+01 
-1.662320e+00 -1.067248e+02 -1.658530e+00 -1.153917e+02 -1.668322e+00 1.128220e+02 -1.541874e+00 1.041538e+02 -1.419865e+00 9.587065e+01 -1.287769e+00 8.793016e+01 -1.112100e+00 8.032760e+01 -7.927217e-01 7.316969e+01 -1.211691e+00 6.426583e+01 -1.816385e+00 5.748531e+01 -1.389255e+00 5.067845e+01 -9.544306e-01 4.414001e+01 -1.381538e+00 3.555856e+01 -2.004058e+00 2.917072e+01 -1.529578e+00 2.266014e+01 -1.057491e+00 1.635623e+01 -1.491922e+00 7.870509e+00 -2.124905e+00 1.612916e+00 -1.630875e+00 -4.818907e+00 -1.150444e+00 -1.108438e+01 -1.586426e+00 -1.957389e+01 -2.229028e+00 -2.586798e+01 -1.751527e+00 -3.237809e+01 -1.301562e+00 -3.877316e+01 -1.755621e+00 -4.739693e+01 -2.445510e+00 -5.395978e+01 -2.091940e+00 -6.087337e+01 -1.923519e+00 -6.798737e+01 -1.823929e+00 -7.527735e+01 -1.757173e+00 -8.275873e+01 -1.710637e+00 -9.046382e+01 -1.679578e+00 -9.843536e+01 