# vtk DataFile Version 2.0
Comment goes here
ASCII

DATASET STRUCTURED_POINTS
FIELD FieldData 1
TIME 1 1 double
0.07000000
DIMENSIONS    64   64   1

ORIGIN    0.000   0.000   0.000
SPACING   0.03125 0.03125   1.000

POINT_DATA   4096
SCALARS P double
LOOKUP_TABLE default

-2.621293e+01 -2.102471e+02 -3.423835e+01 -2.047345e+02 5.709786e+01 1.466488e+02 -3.065828e+01 1.290081e+02 -2.649240e+01 1.046730e+02 -1.974393e+01 8.415989e+01 -1.795801e+01 6.882731e+01 -2.027259e+01 5.746550e+01 -2.342688e+01 4.639992e+01 -2.636148e+01 3.538057e+01 -2.844480e+01 2.243808e+01 -2.886785e+01 1.127747e+01 -3.488885e+01 6.500002e+00 -4.516255e+01 3.211184e+00 -5.446160e+01 -2.865473e+00 -5.962415e+01 -1.299801e+01 -5.990102e+01 -2.643442e+01 -5.880905e+01 -4.052780e+01 -5.788271e+01 -5.199457e+01 -5.895035e+01 -6.324465e+01 -5.910141e+01 -7.625410e+01 -5.837390e+01 -8.886423e+01 -6.040983e+01 -9.919684e+01 -6.242911e+01 -1.120230e+02 -6.201036e+01 -1.257099e+02 -6.185836e+01 -1.378445e+02 -6.460999e+01 -1.440464e+02 -7.102680e+01 -1.494161e+02 -7.429497e+01 -1.578820e+02 -7.205760e+01 -1.706686e+02 -6.317083e+01 -1.864847e+02 -5.220572e+01 -2.037773e+02 
2.960885e+00 -1.386434e+02 -2.098302e+00 -1.368247e+02 6.565354e+01 1.250014e+02 -1.584330e+00 1.141723e+02 -1.682006e+00 1.000507e+02 -1.241021e-01 8.813928e+01 -9.352857e-01 7.860359e+01 -3.328665e+00 7.073540e+01 -5.649636e+00 6.260740e+01 -7.483867e+00 5.423927e+01 -8.552274e+00 4.442707e+01 -8.214712e+00 3.523292e+01 -1.072180e+01 2.947264e+01 -1.540983e+01 2.442931e+01 -1.947982e+01 1.787861e+01 -2.152984e+01 9.348580e+00 -2.120375e+01 -8.153834e-01 -2.033101e+01 -1.133324e+01 -1.954602e+01 -2.026692e+01 -1.996027e+01 -2.906035e+01 -1.979828e+01 -3.888571e+01 -1.903649e+01 -4.844416e+01 -1.993085e+01 -5.656009e+01 -2.080431e+01 -6.613455e+01 -2.024174e+01 -7.613876e+01 -1.972618e+01 -8.541938e+01 -2.063367e+01 -9.133909e+01 -2.354627e+01 -9.677940e+01 -2.477434e+01 -1.035563e+02 -2.335152e+01 -1.122091e+02 -1.856739e+01 -1.221047e+02 -1.320685e+01 -1.331937e+02 
1.558387e+01 -9.328505e+01 1.545414e+01 -9.453882e+01 3.855934e+01 1.044756e+02 1.480685e+01 1.001727e+02 1.239428e+01 9.459633e+01 1.045842e+01 8.897927e+01 8.426342e+00 8.321683e+01 6.593850e+00 7.725972e+01 5.188956e+00 7.086337e+01 4.150674e+00 6.416487e+01 3.461828e+00 5.690130e+01 3.347887e+00 4.947728e+01 2.833855e+00 4.261064e+01 1.987394e+00 3.577443e+01 1.344683e+00 2.861720e+01 1.058810e+00 2.116735e+01 1.194076e+00 1.348101e+01 1.423369e+00 5.666815e+00 1.669014e+00 -1.830374e+00 1.631491e+00 -9.294734e+00 1.755075e+00 -1.692586e+01 2.117055e+00 -2.443863e+01 2.244232e+00 -3.154481e+01 2.496764e+00 -3.889662e+01 3.165369e+00 -4.621802e+01 3.974082e+00 -5.340106e+01 4.733198e+00 -5.985444e+01 5.223239e+00 -6.607428e+01 6.077261e+00 -7.213730e+01 7.307007e+00 -7.799851e+01 9.121064e+00 -8.350048e+01 1.083190e+01 -8.916665e+01 
1.399739e+01 -9.606769e+01 1.601883e+01 -9.877995e+01 1.930620e+01 1.076144e+02 1.527163e+01 1.027579e+02 1.211027e+01 9.665822e+01 9.785461e+00 9.036317e+01 7.713977e+00 8.404708e+01 5.888484e+00 7.764668e+01 4.429767e+00 7.097938e+01 3.374214e+00 6.400601e+01 2.716284e+00 5.667987e+01 2.382855e+00 4.930372e+01 1.886800e+00 4.225303e+01 1.211106e+00 3.526856e+01 6.692880e-01 2.804281e+01 4.099113e-01 2.050131e+01 4.509498e-01 1.270433e+01 6.285502e-01 4.816012e+00 8.607836e-01 -2.908874e+00 1.015046e+00 -1.057809e+01 1.242406e+00 -1.829015e+01 1.524773e+00 -2.589511e+01 1.651383e+00 -3.329067e+01 1.811324e+00 -4.073659e+01 2.176344e+00 -4.810525e+01 2.613599e+00 -5.520131e+01 2.995937e+00 -6.175340e+01 3.320754e+00 -6.801270e+01 3.991391e+00 -7.414971e+01 5.209976e+00 -8.019685e+01 7.103490e+00 -8.604497e+01 9.575418e+00 -9.156478e+01 
1.358209e+01 -9.332059e+01 1.555243e+01 -9.655198e+01 1.851679e+01 1.038453e+02 1.509520e+01 9.981834e+01 1.228010e+01 9.469314e+01 1.007169e+01 8.910818e+01 8.176261e+00 8.323764e+01 6.569999e+00 7.710928e+01 5.283224e+00 7.067018e+01 4.302796e+00 6.393292e+01 3.620264e+00 5.689510e+01 3.185246e+00 4.973733e+01 2.702996e+00 4.268156e+01 2.154972e+00 3.560157e+01 1.726724e+00 2.835937e+01 1.500162e+00 2.093981e+01 1.470736e+00 1.337843e+01 1.529953e+00 5.752467e+00 1.637527e+00 -1.797299e+00 1.714415e+00 -9.311863e+00 1.844869e+00 -1.683225e+01 2.045834e+00 -2.428428e+01 2.253337e+00 -3.159792e+01 2.565022e+00 -3.889654e+01 3.052804e+00 -4.610822e+01 3.640386e+00 -5.314309e+01 4.285244e+00 -5.983171e+01 4.967948e+00 -6.625735e+01 5.874962e+00 -7.244649e+01 7.094288e+00 -7.836185e+01 8.697405e+00 -8.394492e+01 1.061336e+01 -8.908475e+01 
1.213733e+01 -9.720822e+01 1.475921e+01 -1.012735e+02 1.741841e+01 1.058855e+02 1.456347e+01 1.017292e+02 1.167676e+01 9.636355e+01 9.308126e+00 9.038965e+01 7.349189e+00 8.411675e+01 5.713847e+00 7.762888e+01 4.398740e+00 7.090910e+01 3.405039e+00 6.393280e+01 2.715706e+00 5.674333e+01 2.216758e+00 4.948319e+01 1.738192e+00 4.228498e+01 1.266424e+00 3.506746e+01 9.023088e-01 2.771739e+01 6.872244e-01 2.018908e+01 6.276659e-01 1.251523e+01 6.856089e-01 4.774135e+00 8.160633e-01 -2.929164e+00 9.511003e-01 -1.059544e+01 1.111129e+00 -1.823491e+01 1.297495e+00 -2.581001e+01 1.468391e+00 -3.328412e+01 1.664047e+00 -4.069659e+01 1.945780e+00 -4.799094e+01 2.307040e+00 -5.507619e+01 2.734391e+00 -6.185833e+01 3.262635e+00 -6.839614e+01 4.054421e+00 -7.475086e+01 5.247624e+00 -8.092371e+01 6.940521e+00 -8.684225e+01 9.178231e+00 -9.237435e+01 
1.190958e+01 -9.563385e+01 1.402310e+01 -1.001432e+02 1.631469e+01 1.036546e+02 1.396941e+01 9.957579e+01 1.155485e+01 9.469823e+01 9.479843e+00 8.922384e+01 7.758739e+00 8.334557e+01 6.337867e+00 7.715934e+01 5.185109e+00 7.070040e+01 4.268631e+00 6.395156e+01 3.621863e+00 5.697446e+01 3.145959e+00 4.987840e+01 2.705678e+00 4.276219e+01 2.262388e+00 3.556727e+01 1.945794e+00 2.825609e+01 1.766224e+00 2.083316e+01 1.687223e+00 1.333363e+01 1.643763e+00 5.771377e+00 1.688748e+00 -1.789833e+00 1.778456e+00 -9.326414e+00 1.893400e+00 -1.682407e+01 2.008836e+00 -2.428570e+01 2.204202e+00 -3.168051e+01 2.503216e+00 -3.900307e+01 2.897170e+00 -4.620530e+01 3.335392e+00 -5.326421e+01 3.895907e+00 -6.011885e+01 4.590961e+00 -6.675652e+01 5.469636e+00 -7.316476e+01 6.586668e+00 -7.931687e+01 7.992939e+00 -8.517219e+01 9.722671e+00 -9.065264e+01 
1.035852e+01 -9.973705e+01 1.259805e+01 -1.047967e+02 1.469799e+01 1.059561e+02 1.274525e+01 1.014281e+02 1.055649e+01 9.624182e+01 8.528334e+00 9.045636e+01 6.800065e+00 8.425320e+01 5.353911e+00 7.775641e+01 4.182839e+00 7.103523e+01 3.259681e+00 6.403640e+01 2.620514e+00 5.685295e+01 2.111275e+00 4.958766e+01 1.658159e+00 4.232058e+01 1.269799e+00 3.497994e+01 1.010383e+00 2.754383e+01 8.259819e-01 2.000057e+01 7.226235e-01 1.238533e+01 7.157728e-01 4.701487e+00 8.024949e-01 -2.984226e+00 8.933710e-01 -1.064959e+01 9.899803e-01 -1.826966e+01 1.117945e+00 -2.585696e+01 1.288343e+00 -3.337459e+01 1.469567e+00 -4.081334e+01 1.697262e+00 -4.812726e+01 2.011965e+00 -5.529576e+01 2.457386e+00 -6.226249e+01 3.035054e+00 -6.904181e+01 3.818560e+00 -7.565064e+01 4.893181e+00 -8.208151e+01 6.327929e+00 -8.829541e+01 8.155887e+00 -9.422075e+01 
1.002594e+01 -9.873689e+01 1.173958e+01 -1.041821e+02 1.347612e+01 1.049834e+02 1.191167e+01 1.002058e+02 1.019132e+01 9.510686e+01 8.550219e+00 8.956940e+01 7.128008e+00 8.363857e+01 5.931724e+00 7.740248e+01 4.949531e+00 7.094633e+01 4.088826e+00 6.415357e+01 3.543415e+00 5.714072e+01 3.132298e+00 5.002467e+01 2.757184e+00 4.289656e+01 2.312544e+00 3.563176e+01 2.073011e+00 2.824740e+01 1.954881e+00 2.079543e+01 1.884882e+00 1.333860e+01 1.727464e+00 5.789531e+00 1.742554e+00 -1.805172e+00 1.845449e+00 -9.375998e+00 1.958962e+00 -1.686581e+01 1.950060e+00 -2.436405e+01 2.105860e+00 -3.184644e+01 2.389473e+00 -3.924223e+01 2.735127e+00 -4.647984e+01 2.996521e+00 -5.362436e+01 3.464328e+00 -6.066582e+01 4.113213e+00 -6.754560e+01 4.900142e+00 -7.422676e+01 5.848481e+00 -8.069769e+01 7.002007e+00 -8.695273e+01 8.392311e+00 -9.297514e+01 
8.346001e+00 -1.027175e+02 9.994897e+00 -1.085877e+02 1.151259e+01 1.075364e+02 1.028805e+01 1.022625e+02 8.857904e+00 9.675017e+01 7.390302e+00 9.086459e+01 6.034225e+00 8.460421e+01 4.823756e+00 7.805912e+01 3.839627e+00 7.137324e+01 2.975584e+00 6.428931e+01 2.479099e+00 5.701351e+01 2.008179e+00 4.968560e+01 1.576801e+00 4.241246e+01 1.207728e+00 3.497785e+01 1.061106e+00 2.745642e+01 8.968232e-01 1.987687e+01 7.601362e-01 1.231534e+01 6.982133e-01 4.632247e+00 8.009194e-01 -3.069130e+00 8.486439e-01 -1.075445e+01 8.786109e-01 -1.835405e+01 9.382517e-01 -2.599053e+01 1.118562e+00 -3.357628e+01 1.261992e+00 -4.108692e+01 1.424976e+00 -4.844793e+01 1.662536e+00 -5.575033e+01 2.115526e+00 -6.289654e+01 2.674572e+00 -6.990503e+01 3.370296e+00 -7.677697e+01 4.256795e+00 -8.351056e+01 5.382112e+00 -9.009832e+01 6.760443e+00 -9.651645e+01 
7.865525e+00 -1.019840e+02 9.017444e+00 -1.081931e+02 1.011617e+01 1.074147e+02 9.286023e+00 1.018288e+02 8.311844e+00 9.620070e+01 7.273862e+00 9.035819e+01 6.284356e+00 8.421758e+01 5.374066e+00 7.785215e+01 4.640984e+00 7.144271e+01 3.760874e+00 6.452821e+01 3.418209e+00 5.737407e+01 3.116060e+00 5.019119e+01 2.862126e+00 4.313929e+01 2.263528e+00 3.580113e+01 2.136790e+00 2.828707e+01 2.107833e+00 2.077763e+01 2.130463e+00 1.341894e+01 1.730310e+00 5.847297e+00 1.768166e+00 -1.853739e+00 1.917518e+00 -9.485216e+00 2.104758e+00 -1.691062e+01 1.820605e+00 -2.446492e+01 1.954751e+00 -3.211276e+01 2.247465e+00 -3.963490e+01 2.628099e+00 -4.688779e+01 2.563361e+00 -5.413325e+01 2.952601e+00 -6.142051e+01 3.556329e+00 -6.856710e+01 4.204497e+00 -7.551737e+01 4.926633e+00 -8.230514e+01 5.773697e+00 -8.897063e+01 6.761682e+00 -9.553306e+01 
6.107129e+00 -1.057014e+02 7.096315e+00 -1.122656e+02 7.900602e+00 1.101300e+02 7.407378e+00 1.040870e+02 6.734283e+00 9.802226e+01 5.939481e+00 9.179706e+01 5.092302e+00 8.527958e+01 4.159664e+00 7.854187e+01 3.440727e+00 7.200017e+01 2.539245e+00 6.467272e+01 2.349817e+00 5.719500e+01 1.881385e+00 4.976642e+01 1.462086e+00 4.263607e+01 1.030129e+00 3.504690e+01 1.120117e+00 2.740710e+01 9.348591e-01 1.976212e+01 7.533676e-01 1.234385e+01 5.910651e-01 4.572295e+00 8.406756e-01 -3.188040e+00 8.213952e-01 -1.092549e+01 7.735710e-01 -1.842305e+01 7.049943e-01 -2.618457e+01 9.875228e-01 -3.388301e+01 1.056691e+00 -4.151922e+01 1.133965e+00 -4.887831e+01 1.182436e+00 -5.640080e+01 1.706546e+00 -6.371794e+01 2.224402e+00 -7.092319e+01 2.776808e+00 -7.801947e+01 3.420281e+00 -8.503332e+01 4.199287e+00 -9.198960e+01 5.112398e+00 -9.888928e+01 
5.496702e+00 -1.050635e+02 6.009665e+00 -1.119205e+02 6.313111e+00 1.105471e+02 6.259581e+00 1.042200e+02 6.029271e+00 9.799539e+01 5.683219e+00 9.170996e+01 5.276681e+00 8.515670e+01 4.744737e+00 7.846574e+01 4.404034e+00 7.224056e+01 3.205079e+00 6.501593e+01 3.279561e+00 5.763426e+01 3.051152e+00 5.033742e+01 3.111018e+00 4.361774e+01 1.994888e+00 3.607098e+01 2.178263e+00 2.831487e+01 2.216982e+00 2.069943e+01 2.558595e+00 1.368550e+01 1.527423e+00 5.962486e+00 1.782965e+00 -1.981270e+00 1.964003e+00 -9.715841e+00 2.458651e+00 -1.683051e+01 1.502317e+00 -2.453282e+01 1.783158e+00 -3.250733e+01 2.054371e+00 -4.022509e+01 2.702214e+00 -4.732538e+01 1.913596e+00 -5.474578e+01 2.375126e+00 -6.240752e+01 2.963101e+00 -6.977471e+01 3.407770e+00 -7.689990e+01 3.854326e+00 -8.394139e+01 4.366056e+00 -9.097648e+01 4.929673e+00 -9.802478e+01 
3.719458e+00 -1.084626e+02 4.011677e+00 -1.156242e+02 3.952403e+00 1.133595e+02 4.232620e+00 1.066160e+02 4.259506e+00 9.996721e+01 4.150504e+00 9.331867e+01 3.983119e+00 8.640339e+01 3.516952e+00 7.916170e+01 3.217380e+00 7.289052e+01 1.800446e+00 6.494009e+01 2.224241e+00 5.744804e+01 1.667216e+00 4.987038e+01 1.312618e+00 4.303521e+01 6.145450e-01 3.501487e+01 1.274403e+00 2.745090e+01 9.495649e-01 1.966536e+01 6.998320e-01 1.246915e+01 2.776125e-01 4.378720e+00 1.014804e+00 -3.259394e+00 8.138672e-01 -1.113489e+01 6.568102e-01 -1.844969e+01 2.834877e-01 -2.652682e+01 1.006769e+00 -3.418910e+01 8.704498e-01 -4.206777e+01 8.478914e-01 -4.936400e+01 3.583313e-01 -5.739829e+01 1.301273e+00 -6.474548e+01 1.761587e+00 -7.200974e+01 2.089667e+00 -7.922546e+01 2.439326e+00 -8.647213e+01 2.855951e+00 -9.377469e+01 3.305840e+00 -1.011195e+02 
3.022276e+00 -1.078280e+02 2.862890e+00 -1.152386e+02 2.262113e+00 1.140495e+02 3.012961e+00 1.070665e+02 3.414881e+00 1.003102e+02 3.656443e+00 9.366145e+01 3.880850e+00 8.670114e+01 4.205895e+00 7.952025e+01 4.670219e+00 7.251632e+01 1.823063e+00 6.506219e+01 2.749196e+00 5.824985e+01 2.725411e+00 5.073746e+01 3.688928e+00 4.420708e+01 1.074819e+00 3.595987e+01 2.131327e+00 2.853459e+01 2.145527e+00 2.069122e+01 3.251079e+00 1.416858e+01 7.435898e-01 5.682590e+00 1.822276e+00 -2.009316e+00 1.857340e+00 -9.986709e+00 2.998674e+00 -1.648756e+01 6.988499e-01 -2.494622e+01 1.731579e+00 -3.281218e+01 1.708905e+00 -4.091978e+01 2.828873e+00 -4.753657e+01 8.668558e-01 -5.592431e+01 1.870445e+00 -6.379282e+01 2.331343e+00 -7.102060e+01 2.477554e+00 -7.815118e+01 2.646914e+00 -8.541188e+01 2.839730e+00 -9.280084e+01 2.988816e+00 -1.002888e+02 
1.283729e+00 -1.109018e+02 8.805593e-01 -1.185767e+02 -3.983800e-02 1.169329e+02 1.029222e+00 1.095553e+02 1.612678e+00 1.023367e+02 1.878271e+00 9.522111e+01 2.092600e+00 8.829058e+01 3.017378e+00 8.139224e+01 2.739716e+00 7.110427e+01 -3.531526e-02 6.375288e+01 3.077600e-01 5.849777e+01 1.012555e+00 5.186070e+01 9.273536e-02 4.072472e+01 -7.342299e-01 3.394302e+01 4.381546e-01 2.824737e+01 7.290463e-01 2.132226e+01 -6.646723e-01 9.893752e+00 -9.118390e-01 3.306678e+00 6.130324e-01 -2.620782e+00 7.064803e-01 -9.797940e+00 -7.993383e-01 -2.095935e+01 -1.019245e+00 -2.760089e+01 8.625777e-01 -3.376711e+01 7.556976e-01 -4.130425e+01 -7.106259e-01 -5.182584e+01 -1.663832e+00 -5.942605e+01 1.221391e+00 -6.587283e+01 1.349320e+00 -7.286155e+01 1.274459e+00 -8.013993e+01 1.335763e+00 -8.767354e+01 1.422239e+00 -9.534625e+01 1.432816e+00 -1.031053e+02 
5.598339e-01 -1.102261e+02 -2.434461e-01 -1.181198e+02 -1.619350e+00 1.177247e+02 -1.174986e-01 1.100683e+02 8.312581e-01 1.026838e+02 1.438857e+00 9.574570e+01 2.101293e+00 8.981374e+01 3.610110e+00 8.511994e+01 5.682725e+00 6.974999e+01 1.259103e+00 6.216717e+01 7.014001e-01 6.089091e+01 2.254615e+00 5.599351e+01 4.304434e+00 4.055973e+01 -3.468519e-01 3.244727e+01 2.061736e-01 3.036244e+01 1.574733e+00 2.539384e+01 3.020325e+00 1.036951e+01 -1.031587e+00 1.789441e+00 6.682522e-02 -6.762065e-01 1.120819e+00 -5.797823e+00 1.696299e+00 -2.016474e+01 -1.182694e+00 -2.905067e+01 1.348530e-01 -3.189103e+01 6.569727e-01 -3.738170e+01 -4.066793e-01 -5.095704e+01 -1.264154e+00 -6.066136e+01 1.252121e+00 -6.503653e+01 1.308132e+00 -7.159750e+01 1.308517e+00 -7.898004e+01 1.345791e+00 -8.662511e+01 1.281404e+00 -9.439552e+01 1.040941e+00 -1.022734e+02 
-1.087441e+00 -1.129937e+02 -2.137741e+00 -1.211206e+02 -3.820541e+00 1.206253e+02 -1.912643e+00 1.127016e+02 -5.837988e-01 1.051229e+02 3.716152e-01 9.807423e+01 1.130016e+00 9.187349e+01 1.812957e+00 8.595399e+01 1.840020e+00 7.212406e+01 5.718697e-01 6.288406e+01 1.338286e+00 6.138285e+01 2.112644e+00 5.715562e+01 3.799915e+00 3.917965e+01 -1.173744e-01 3.278229e+01 4.291737e-01 3.139875e+01 1.872792e+00 2.725986e+01 4.361900e+00 6.863661e+00 -5.647821e-01 1.925825e+00 9.105663e-03 5.413111e-01 1.660720e+00 -3.579957e+00 4.367161e+00 -2.505465e+01 -7.221239e-01 -2.924705e+01 -3.252221e-01 -3.057145e+01 1.278795e+00 -3.468112e+01 3.830321e+00 -5.731212e+01 -4.678447e-01 -6.204251e+01 -3.687661e-01 -6.469841e+01 -5.010172e-02 -7.249611e+01 1.961109e-01 -8.065665e+01 2.026458e-01 -8.870261e+01 3.084497e-03 -9.673536e+01 -4.065428e-01 -1.048340e+02 
-1.782561e+00 -1.122593e+02 -3.189309e+00 -1.205792e+02 -5.288437e+00 1.215256e+02 -2.979863e+00 1.133928e+02 -1.264968e+00 1.056356e+02 3.989981e-02 9.823293e+01 9.133313e-01 9.098499e+01 1.059739e+00 8.292786e+01 -8.326134e-01 7.231764e+01 -3.906614e-01 6.433371e+01 2.070632e+00 5.932329e+01 1.724332e+00 5.294779e+01 -5.458167e-01 4.116993e+01 -1.869385e-01 3.352312e+01 1.025409e+00 2.879120e+01 1.186790e+00 2.278117e+01 -3.804224e-01 1.029059e+01 -6.949045e-01 2.438783e+00 2.543262e-01 -2.029531e+00 8.499545e-01 -7.828192e+00 1.239994e-01 -2.057271e+01 -1.139613e+00 -2.866283e+01 -3.795010e-01 -3.283226e+01 6.250725e-01 -3.836610e+01 1.076122e+00 -5.155851e+01 -1.386615e+00 -6.045533e+01 -3.709873e-01 -6.517100e+01 3.746629e-02 -7.218189e+01 2.405640e-01 -7.989898e+01 1.751149e-01 -8.780341e+01 -1.704671e-01 -9.582813e+01 -8.060836e-01 -1.039864e+02 
-3.304381e+00 -1.147421e+02 -4.947166e+00 -1.232724e+02 -7.352380e+00 1.243130e+02 -4.719270e+00 1.159206e+02 -2.739391e+00 1.078750e+02 -1.184137e+00 1.000392e+02 -3.816506e-02 9.189449e+01 5.566632e-01 8.361319e+01 2.106524e+00 7.641006e+01 9.358275e-02 6.797480e+01 1.891925e+00 6.016017e+01 2.090372e+00 5.211196e+01 2.708715e+00 4.459860e+01 2.266193e-01 3.632331e+01 1.898392e+00 2.903299e+01 1.923095e+00 2.106771e+01 2.230063e+00 1.275217e+01 -1.033676e-01 4.777565e+00 1.486944e+00 -2.321526e+00 1.502445e+00 -1.025884e+01 1.596976e+00 -1.926857e+01 -5.643655e-01 -2.690370e+01 8.470615e-01 -3.392289e+01 8.094083e-01 -4.191426e+01 4.608855e-01 -5.221616e+01 -1.645260e+00 -5.971575e+01 -1.114704e-02 -6.643654e+01 -2.692759e-01 -7.389789e+01 -5.336586e-01 -8.171226e+01 -8.418418e-01 -8.976341e+01 -1.348518e+00 -9.796256e+01 -2.142500e+00 -1.062945e+02 
-3.926217e+00 -1.139409e+02 -5.891895e+00 -1.226377e+02 -8.645962e+00 1.250280e+02 -5.757188e+00 1.163523e+02 -3.570864e+00 1.079694e+02 -1.935932e+00 9.975889e+01 -8.105950e-01 9.147900e+01 -1.957080e-01 8.318488e+01 5.827464e-01 7.533450e+01 2.733074e-01 6.726417e+01 1.363374e+00 5.942161e+01 1.434186e+00 5.140466e+01 1.736270e+00 4.407242e+01 9.023087e-01 3.609576e+01 1.721035e+00 2.829708e+01 1.565467e+00 2.030488e+01 1.899576e+00 1.322623e+01 7.879162e-01 5.074189e+00 1.597342e+00 -2.764213e+00 1.440790e+00 -1.077196e+01 1.913311e+00 -1.767749e+01 5.271981e-01 -2.598033e+01 1.349183e+00 -3.389816e+01 1.206260e+00 -4.201162e+01 1.865975e+00 -4.891361e+01 -2.003330e-01 -5.764578e+01 4.083395e-01 -6.563893e+01 2.111664e-01 -7.326825e+01 -2.386027e-01 -8.098082e+01 -7.586704e-01 -8.892069e+01 -1.470257e+00 -9.707176e+01 -2.492808e+00 -1.054176e+02 
-5.288963e+00 -1.161667e+02 -7.464858e+00 -1.250528e+02 -1.049171e+01 1.275360e+02 -7.325549e+00 1.186033e+02 -4.869580e+00 1.099175e+02 -2.965717e+00 1.013804e+02 -1.543545e+00 9.293047e+01 -4.101781e-01 8.482584e+01 8.844906e-01 7.716582e+01 2.611845e-01 6.901006e+01 1.096651e+00 6.065055e+01 1.597914e+00 5.252730e+01 2.133780e+00 4.511428e+01 1.149173e+00 3.697834e+01 1.712990e+00 2.886925e+01 1.817211e+00 2.081667e+01 2.004105e+00 1.343560e+01 1.026846e+00 5.267290e+00 1.546221e+00 -2.792728e+00 1.487428e+00 -1.088060e+01 1.472880e+00 -1.833118e+01 5.207153e-01 -2.655955e+01 9.858064e-01 -3.467806e+01 7.114165e-01 -4.291591e+01 4.094111e-01 -5.059367e+01 -6.642557e-01 -5.892061e+01 -1.988661e-01 -6.682745e+01 -4.539831e-01 -7.467962e+01 -9.903586e-01 -8.261902e+01 -1.656540e+00 -9.072672e+01 -2.518268e+00 -9.901888e+01 -3.689947e+00 -1.074987e+02 
-5.810241e+00 -1.152892e+02 -8.299925e+00 -1.243079e+02 -1.172408e+01 1.279963e+02 -8.317945e+00 1.188497e+02 -5.692116e+00 1.099597e+02 -3.668525e+00 1.012725e+02 -2.154221e+00 9.274867e+01 -1.066137e+00 8.443180e+01 -2.075365e-01 7.631852e+01 8.907566e-02 6.823423e+01 7.271703e-01 6.011537e+01 1.124091e+00 5.208813e+01 1.445892e+00 4.436285e+01 1.200072e+00 3.651503e+01 1.493109e+00 2.852753e+01 1.586623e+00 2.062414e+01 1.732396e+00 1.309651e+01 1.275460e+00 5.277311e+00 1.491279e+00 -2.717119e+00 1.512467e+00 -1.061411e+01 1.620994e+00 -1.806831e+01 1.019877e+00 -2.594481e+01 1.178826e+00 -3.403335e+01 1.108515e+00 -4.201927e+01 1.116527e+00 -4.949004e+01 1.219703e-01 -5.751626e+01 6.425411e-02 -6.567676e+01 -1.775943e-01 -7.371856e+01 -7.399386e-01 -8.171761e+01 -1.531634e+00 -8.981396e+01 -2.572617e+00 -9.808499e+01 -3.958066e+00 -1.065685e+02 
-7.005534e+00 -1.172878e+02 -9.675907e+00 -1.264654e+02 -1.332649e+01 1.302153e+02 -9.665848e+00 1.208662e+02 -6.794653e+00 1.117709e+02 -4.530869e+00 1.029076e+02 -2.758417e+00 9.428035e+01 -1.358315e+00 8.591889e+01 -2.693384e-01 7.779750e+01 -1.081170e-02 6.957326e+01 6.133547e-01 6.128602e+01 1.165835e+00 5.311784e+01 1.539058e+00 4.522515e+01 1.314039e+00 3.715962e+01 1.530302e+00 2.907040e+01 1.662851e+00 2.105352e+01 1.697682e+00 1.327969e+01 1.320832e+00 5.264077e+00 1.410683e+00 -2.789085e+00 1.372915e+00 -1.080613e+01 1.237164e+00 -1.859933e+01 7.703291e-01 -2.666665e+01 7.465515e-01 -3.478849e+01 5.089514e-01 -4.289702e+01 1.464608e-01 -5.077168e+01 -4.814448e-01 -5.889993e+01 -5.874106e-01 -6.700448e+01 -9.085588e-01 -7.510441e+01 -1.515383e+00 -8.323688e+01 -2.376361e+00 -9.146823e+01 -3.514843e+00 -9.985697e+01 -5.015801e+00 -1.084484e+02 
-7.412566e+00 -1.163193e+02 -1.037545e+01 -1.255988e+02 -1.441805e+01 1.304645e+02 -1.052621e+01 1.209734e+02 -7.494567e+00 1.117559e+02 -5.116105e+00 1.027870e+02 -3.279086e+00 9.405044e+01 -1.897636e+00 8.552348e+01 -8.760811e-01 7.718839e+01 -2.466445e-01 6.897414e+01 3.579491e-01 6.078055e+01 8.659026e-01 5.265070e+01 1.216280e+00 4.468502e+01 1.252534e+00 3.676473e+01 1.414394e+00 2.880107e+01 1.564139e+00 2.087546e+01 1.648997e+00 1.310373e+01 1.456334e+00 5.290162e+00 1.475542e+00 -2.619698e+00 1.510441e+00 -1.051076e+01 1.494239e+00 -1.824980e+01 1.163146e+00 -2.608980e+01 1.063538e+00 -3.406234e+01 9.562567e-01 -4.202177e+01 7.589778e-01 -4.981290e+01 1.250061e-01 -5.776054e+01 -2.462911e-01 -6.587774e+01 -6.450481e-01 -7.404545e+01 -1.293888e+00 -8.222341e+01 -2.241545e+00 -9.046501e+01 -3.517593e+00 -9.884809e+01 -5.198263e+00 -1.074424e+02 
-8.439531e+00 -1.181188e+02 -1.154469e+01 -1.275247e+02 -1.576787e+01 1.324056e+02 -1.164951e+01 1.227656e+02 -8.407569e+00 1.134042e+02 -5.830228e+00 1.043029e+02 -3.795809e+00 9.545684e+01 -2.214066e+00 8.685181e+01 -1.048976e+00 7.845254e+01 -4.089918e-01 7.011185e+01 2.440924e-01 6.176989e+01 8.290421e-01 5.351151e+01 1.208560e+00 4.541394e+01 1.242852e+00 3.732179e+01 1.400452e+00 2.922292e+01 1.539678e+00 2.117461e+01 1.564354e+00 1.324220e+01 1.362434e+00 5.250807e+00 1.334485e+00 -2.784276e+00 1.290299e+00 -1.080479e+01 1.142422e+00 -1.873857e+01 7.961924e-01 -2.676127e+01 6.112208e-01 -3.484898e+01 3.737275e-01 -4.293825e+01 1.703441e-02 -5.094320e+01 -5.217149e-01 -5.903938e+01 -8.867523e-01 -6.720884e+01 -1.333267e+00 -7.542254e+01 -2.027658e+00 -8.367281e+01 -3.024197e+00 -9.200035e+01 -4.362891e+00 -1.004695e+02 -6.122853e+00 -1.091477e+02 
-8.716646e+00 -1.170517e+02 -1.207386e+01 -1.265320e+02 -1.663771e+01 1.324447e+02 -1.232030e+01 1.227083e+02 -8.942452e+00 1.132643e+02 -6.275239e+00 1.040787e+02 -4.189772e+00 9.514629e+01 -2.574394e+00 8.644823e+01 -1.354126e+00 7.793302e+01 -5.626176e-01 6.964483e+01 7.139529e-02 6.131069e+01 6.871325e-01 5.305829e+01 1.122179e+00 4.496745e+01 1.223475e+00 3.703173e+01 1.349167e+00 2.900332e+01 1.549022e+00 2.102562e+01 1.670131e+00 1.316383e+01 1.513013e+00 5.369239e+00 1.460029e+00 -2.568903e+00 1.509352e+00 -1.048810e+01 1.494540e+00 -1.831988e+01 1.184966e+00 -2.612814e+01 9.742675e-01 -3.411795e+01 8.476811e-01 -4.210943e+01 6.164607e-01 -5.002434e+01 2.372968e-02 -5.793390e+01 -5.205126e-01 -6.609744e+01 -1.029724e+00 -7.434728e+01 -1.779260e+00 -8.260789e+01 -2.857600e+00 -9.092553e+01 -4.308207e+00 -9.938168e+01 -6.212965e+00 -1.080568e+02 
-9.569173e+00 -1.186813e+02 -1.302305e+01 -1.282563e+02 -1.771786e+01 1.340977e+02 -1.321350e+01 1.242567e+02 -9.666261e+00 1.147090e+02 -6.841937e+00 1.054149e+02 -4.614808e+00 9.637783e+01 -2.873681e+00 8.760916e+01 -1.548466e+00 7.901259e+01 -7.819070e-01 7.059476e+01 -6.407338e-02 6.210425e+01 6.013459e-01 5.375198e+01 1.054950e+00 4.558028e+01 1.096003e+00 3.748160e+01 1.269585e+00 2.929881e+01 1.452714e+00 2.121611e+01 1.534605e+00 1.325921e+01 1.297716e+00 5.280065e+00 1.258036e+00 -2.816100e+00 1.240345e+00 -1.084715e+01 1.140703e+00 -1.878885e+01 7.326272e-01 -2.678781e+01 5.086242e-01 -3.493475e+01 2.910879e-01 -4.303940e+01 -2.750644e-02 -5.107525e+01 -6.625437e-01 -5.914982e+01 -1.140717e+00 -6.741169e+01 -1.653717e+00 -7.570006e+01 -2.441243e+00 -8.399240e+01 -3.558930e+00 -9.235757e+01 -5.049145e+00 -1.008738e+02 -7.001070e+00 -1.096136e+02 
-9.694503e+00 -1.175177e+02 -1.334917e+01 -1.271392e+02 -1.832567e+01 1.338885e+02 -1.366059e+01 1.239960e+02 -1.001032e+01 1.144088e+02 -7.119686e+00 1.050580e+02 -4.857434e+00 9.595643e+01 -3.062960e+00 8.718072e+01 -1.613600e+00 7.848162e+01 -7.738102e-01 7.026687e+01 -1.553270e-01 6.164792e+01 5.880401e-01 5.329598e+01 1.159000e+00 4.516118e+01 1.173348e+00 3.734770e+01 1.260350e+00 2.909705e+01 1.537737e+00 2.108647e+01 1.784109e+00 1.323161e+01 1.511378e+00 5.552099e+00 1.408865e+00 -2.587337e+00 1.506402e+00 -1.051688e+01 1.600863e+00 -1.833277e+01 1.160109e+00 -2.601971e+01 8.760464e-01 -3.421987e+01 7.767576e-01 -4.224207e+01 6.289736e-01 -5.019454e+01 -1.005634e-01 -5.795268e+01 -7.710300e-01 -6.631945e+01 -1.295390e+00 -7.464237e+01 -2.149316e+00 -8.289227e+01 -3.346524e+00 -9.121483e+01 -4.922849e+00 -9.970720e+01 -6.982476e+00 -1.084387e+02 
-1.036140e+01 -1.190077e+02 -1.406309e+01 -1.286930e+02 -1.911527e+01 1.352309e+02 -1.431383e+01 1.252771e+02 -1.054477e+01 1.156307e+02 -7.537883e+00 1.062072e+02 -5.172322e+00 9.699669e+01 -3.317326e+00 8.815520e+01 -1.768739e+00 7.942936e+01 -1.072849e+00 7.097524e+01 -2.885168e-01 6.220274e+01 4.618267e-01 5.381952e+01 1.048407e+00 4.574568e+01 8.981809e-01 3.762903e+01 1.151086e+00 2.924078e+01 1.377523e+00 2.117274e+01 1.595503e+00 1.336693e+01 1.150180e+00 5.337577e+00 1.190185e+00 -2.937904e+00 1.193619e+00 -1.093300e+01 1.226207e+00 -1.870761e+01 5.967833e-01 -2.675518e+01 4.403408e-01 -3.509336e+01 2.327559e-01 -4.317551e+01 2.379815e-02 -5.110420e+01 -8.874990e-01 -5.923070e+01 -1.337271e+00 -6.767947e+01 -1.847284e+00 -7.595353e+01 -2.741940e+00 -8.418588e+01 -3.961710e+00 -9.253865e+01 -5.549952e+00 -1.010845e+02 -7.623907e+00 -1.098726e+02 
-1.030699e+01 -1.177552e+02 -1.415086e+01 -1.274581e+02 -1.942205e+01 1.347174e+02 -1.451094e+01 1.247572e+02 -1.068780e+01 1.151385e+02 -7.638026e+00 1.057420e+02 -5.247614e+00 9.646959e+01 -3.383110e+00 8.767700e+01 -1.638443e+00 7.886240e+01 -7.899855e-01 7.077697e+01 -2.535990e-01 6.160175e+01 4.893431e-01 5.333075e+01 1.248481e+00 4.541040e+01 1.177831e+00 3.765721e+01 1.186814e+00 2.895695e+01 1.448454e+00 2.105212e+01 1.918859e+00 1.346115e+01 1.547611e+00 5.742783e+00 1.358566e+00 -2.779818e+00 1.414013e+00 -1.059102e+01 1.728818e+00 -1.813081e+01 1.185949e+00 -2.586169e+01 8.149374e-01 -3.445163e+01 6.558588e-01 -4.236732e+01 7.059498e-01 -5.013703e+01 -1.417283e-01 -5.796546e+01 -9.434013e-01 -6.674649e+01 -1.468264e+00 -7.489139e+01 -2.449472e+00 -8.299938e+01 -3.706324e+00 -9.130872e+01 -5.332663e+00 -9.984064e+01 -7.471583e+00 -1.086211e+02 
-1.077366e+01 -1.191349e+02 -1.461168e+01 -1.288718e+02 -1.989106e+01 1.357228e+02 -1.490796e+01 1.257387e+02 -1.103072e+01 1.161033e+02 -7.928287e+00 1.067045e+02 -5.457172e+00 9.743522e+01 -3.520301e+00 8.850763e+01 -1.799189e+00 7.977869e+01 -1.229177e+00 7.065083e+01 -5.739701e-01 6.203307e+01 3.131202e-01 5.390155e+01 1.015144e+00 4.602240e+01 6.882668e-01 3.724571e+01 8.791149e-01 2.909011e+01 1.229306e+00 2.127176e+01 1.578822e+00 1.361436e+01 9.695586e-01 4.877221e+00 9.600878e-01 -3.082888e+00 1.060599e+00 -1.081728e+01 1.209840e+00 -1.844909e+01 4.306311e-01 -2.722482e+01 2.516750e-01 -3.522710e+01 1.186157e-01 -4.304714e+01 -3.037013e-02 -5.084657e+01 -1.231076e+00 -5.995972e+01 -1.526955e+00 -6.813777e+01 -2.008819e+00 -7.603965e+01 -2.999481e+00 -8.414377e+01 -4.227802e+00 -9.252131e+01 -5.829007e+00 -1.011234e+02 -7.950558e+00 -1.099594e+02 
-1.051033e+01 -1.177983e+02 -1.442027e+01 -1.275276e+02 -1.980052e+01 1.348796e+02 -1.481602e+01 1.248815e+02 -1.096946e+01 1.152503e+02 -7.903894e+00 1.059934e+02 -5.369121e+00 9.715976e+01 -3.346533e+00 8.816645e+01 -2.096296e+00 7.969740e+01 -1.678200e-02 6.889670e+01 -5.400707e-01 6.143218e+01 6.154985e-02 5.419652e+01 5.269917e-01 4.611912e+01 2.139915e+00 3.573727e+01 4.750632e-01 2.901793e+01 1.062596e+00 2.206786e+01 1.242232e+00 1.402862e+01 2.638071e+00 3.678067e+00 5.403230e-01 -2.616772e+00 1.033641e+00 -9.511142e+00 1.044750e+00 -1.759251e+01 2.301599e+00 -2.799127e+01 1.313977e-02 -3.422037e+01 2.653365e-01 -4.122705e+01 -3.639439e-02 -4.938809e+01 9.424026e-01 -6.031985e+01 -1.454697e+00 -6.720157e+01 -1.993308e+00 -7.458257e+01 -2.759933e+00 -8.279459e+01 -3.885618e+00 -9.122881e+01 -5.480155e+00 -9.982632e+01 -7.634439e+00 -1.086416e+02 
-1.076645e+01 -1.190906e+02 -1.461349e+01 -1.288267e+02 -1.991877e+01 1.355452e+02 -1.494379e+01 1.255447e+02 -1.110737e+01 1.159101e+02 -8.038342e+00 1.067078e+02 -5.438151e+00 9.805981e+01 -3.299490e+00 8.914005e+01 -2.128655e+00 8.060547e+01 6.953153e-01 6.843602e+01 -5.970707e-01 6.226504e+01 -8.868361e-02 5.529090e+01 4.126107e-01 4.666018e+01 2.785679e+00 3.515314e+01 2.211509e-01 2.962676e+01 9.144295e-01 2.282371e+01 1.108030e+00 1.410133e+01 3.160635e+00 2.765714e+00 1.828947e-01 -2.392608e+00 7.913722e-01 -9.204807e+00 7.813215e-01 -1.797322e+01 2.627257e+00 -2.930572e+01 -4.339529e-01 -3.442818e+01 -9.559076e-02 -4.137541e+01 -4.309959e-01 -5.011168e+01 1.157771e+00 -6.223135e+01 -1.869824e+00 -6.804451e+01 -2.480053e+00 -7.542129e+01 -3.176739e+00 -8.382901e+01 -4.257453e+00 -9.238324e+01 -5.821382e+00 -1.010499e+02 -7.939149e+00 -1.099088e+02 