# vtk DataFile Version 2.0
Comment goes here
ASCII

DATASET STRUCTURED_POINTS
FIELD FieldData 1
TIME 1 1 double
0.00200000
DIMENSIONS    64   64   1

ORIGIN    0.000   0.000   0.000
SPACING   0.03125 0.03125   1.000

POINT_DATA   4096
SCALARS P double
LOOKUP_TABLE default

-4.033936e-01 -1.113441e+01 1.277634e+01 -2.648170e+01 1.814286e+01 5.735813e+01 2.380949e+01 5.095262e+01 2.643457e+01 5.050264e+01 2.131073e+01 4.812657e+01 2.103637e+01 4.521506e+01 1.930158e+01 4.124835e+01 1.745901e+01 3.762927e+01 1.537208e+01 3.420116e+01 1.322749e+01 3.026259e+01 1.120183e+01 2.593277e+01 9.335244e+00 2.174863e+01 7.386246e+00 1.768603e+01 5.687556e+00 1.363438e+01 4.116427e+00 9.631314e+00 2.729820e+00 5.712960e+00 1.383381e+00 1.917416e+00 1.539023e-01 -1.808933e+00 -9.841921e-01 -5.429556e+00 -2.024433e+00 -8.975616e+00 -2.977966e+00 -1.244597e+01 -3.887074e+00 -1.572929e+01 -4.679113e+00 -1.871227e+01 -5.105160e+00 -2.131801e+01 -5.215653e+00 -2.335738e+01 -4.772822e+00 -2.471819e+01 -3.564946e+00 -2.522066e+01 -1.865572e+00 -2.490918e+01 1.984682e-01 -2.329461e+01 2.510507e+00 -2.409241e+01 9.340512e+00 -1.664526e+01 
-4.116354e+00 -1.859474e+01 4.171445e+00 -2.714735e+01 6.819213e+00 3.787333e+01 9.755275e+00 3.516097e+01 1.142436e+01 3.532486e+01 8.792411e+00 3.381278e+01 9.255799e+00 3.193703e+01 8.582813e+00 2.944104e+01 7.769255e+00 2.712797e+01 6.666764e+00 2.501447e+01 5.546209e+00 2.228923e+01 4.716975e+00 1.922098e+01 3.880864e+00 1.626689e+01 2.971761e+00 1.330905e+01 2.321025e+00 1.033531e+01 1.635836e+00 7.293187e+00 1.022498e+00 4.239432e+00 4.083271e-01 1.234729e+00 -1.452035e-01 -1.743879e+00 -6.546704e-01 -4.663104e+00 -1.113660e+00 -7.537328e+00 -1.543963e+00 -1.039684e+01 -1.997786e+00 -1.317854e+01 -2.475130e+00 -1.582719e+01 -2.730385e+00 -1.827256e+01 -2.975693e+00 -2.036936e+01 -2.977066e+00 -2.221933e+01 -2.537077e+00 -2.362061e+01 -1.992074e+00 -2.441934e+01 -1.464313e+00 -2.424098e+01 -9.456299e-01 -2.557778e+01 2.642471e+00 -2.165525e+01 
-3.938959e+00 -3.024098e+01 -1.073519e+00 -3.310742e+01 -2.431826e-01 3.266785e+01 6.111289e-01 3.151097e+01 1.417638e+00 3.054242e+01 1.394807e+00 2.883515e+01 2.020251e+00 2.702540e+01 2.090221e+00 2.507914e+01 1.943025e+00 2.319714e+01 1.515806e+00 2.139555e+01 1.110742e+00 1.913528e+01 9.815438e-01 1.663292e+01 7.802751e-01 1.421290e+01 5.415949e-01 1.168882e+01 4.772278e-01 9.141469e+00 3.142068e-01 6.481281e+00 1.459911e-01 3.769132e+00 -3.413074e-02 1.051254e+00 -1.892677e-01 -1.653315e+00 -3.242300e-01 -4.330471e+00 -4.390535e-01 -6.977940e+00 -5.542959e-01 -9.630871e+00 -7.062217e-01 -1.226310e+01 -9.281665e-01 -1.486249e+01 -1.050264e+00 -1.738155e+01 -1.303622e+00 -1.972085e+01 -1.515837e+00 -2.208829e+01 -1.560441e+00 -2.432219e+01 -1.711888e+00 -2.618597e+01 -2.058558e+00 -2.756885e+01 -2.492184e+00 -2.923490e+01 -1.999989e+00 -2.952471e+01 
-2.508164e+00 -2.810836e+01 -9.742512e-01 -2.901631e+01 6.394270e-02 2.955519e+01 9.143903e-01 2.941116e+01 1.539463e+00 2.876906e+01 1.706154e+00 2.753693e+01 2.000195e+00 2.600516e+01 2.041401e+00 2.427115e+01 1.894467e+00 2.246580e+01 1.571828e+00 2.060753e+01 1.240031e+00 1.845834e+01 1.036523e+00 1.611367e+01 8.164638e-01 1.373997e+01 5.956220e-01 1.128943e+01 4.568665e-01 8.793231e+00 2.853026e-01 6.218119e+00 1.085103e-01 3.597893e+00 -7.065283e-02 9.656850e-01 -2.351166e-01 -1.659804e+00 -3.856399e-01 -4.267358e+00 -5.255755e-01 -6.853501e+00 -6.697362e-01 -9.428850e+00 -8.383360e-01 -1.197440e+01 -1.038855e+00 -1.446898e+01 -1.199541e+00 -1.687140e+01 -1.402990e+00 -1.912796e+01 -1.569751e+00 -2.130122e+01 -1.644981e+00 -2.328903e+01 -1.754625e+00 -2.494630e+01 -1.938185e+00 -2.623295e+01 -2.091127e+00 -2.732636e+01 -1.983465e+00 -2.765210e+01 
-2.058292e+00 -3.172797e+01 -1.088802e+00 -3.266041e+01 -3.454690e-01 3.265971e+01 3.036856e-01 3.215151e+01 8.364490e-01 3.106639e+01 1.110277e+00 2.949757e+01 1.413975e+00 2.768368e+01 1.515618e+00 2.571826e+01 1.449778e+00 2.368730e+01 1.244745e+00 2.158654e+01 1.017401e+00 1.928673e+01 8.535428e-01 1.683910e+01 6.873881e-01 1.434276e+01 5.222698e-01 1.178243e+01 3.994418e-01 9.173880e+00 2.600917e-01 6.505063e+00 1.138723e-01 3.797486e+00 -3.492955e-02 1.076048e+00 -1.745948e-01 -1.642393e+00 -3.037935e-01 -4.346830e+00 -4.252476e-01 -7.033355e+00 -5.493608e-01 -9.705563e+00 -6.898224e-01 -1.235124e+01 -8.498737e-01 -1.495381e+01 -9.956675e-01 -1.748504e+01 -1.166740e+00 -1.991456e+01 -1.319998e+00 -2.226718e+01 -1.429018e+00 -2.447586e+01 -1.564759e+00 -2.644570e+01 -1.747730e+00 -2.814574e+01 -1.903146e+00 -2.968176e+01 -1.857630e+00 -3.074506e+01 
-1.472481e+00 -3.011257e+01 -7.931877e-01 -3.075458e+01 -1.204475e-01 3.131353e+01 5.282304e-01 3.083180e+01 1.007461e+00 2.986415e+01 1.282508e+00 2.848942e+01 1.481150e+00 2.683759e+01 1.540332e+00 2.499591e+01 1.469158e+00 2.303200e+01 1.295843e+00 2.095870e+01 1.091103e+00 1.872613e+01 9.086887e-01 1.636371e+01 7.281517e-01 1.392879e+01 5.537417e-01 1.143038e+01 4.020795e-01 8.881332e+00 2.475022e-01 6.282364e+00 9.100689e-02 3.649634e+00 -6.465224e-02 1.002300e+00 -2.137632e-01 -1.644854e+00 -3.556209e-01 -4.281562e+00 -4.928843e-01 -6.901552e+00 -6.322711e-01 -9.500729e+00 -7.806724e-01 -1.206588e+01 -9.369145e-01 -1.457820e+01 -1.083717e+00 -1.701143e+01 -1.231074e+00 -1.933872e+01 -1.355995e+00 -2.155182e+01 -1.445170e+00 -2.359980e+01 -1.528923e+00 -2.541874e+01 -1.611866e+00 -2.698099e+01 -1.648222e+00 -2.829868e+01 -1.578790e+00 -2.927672e+01 
-1.349871e+00 -3.326631e+01 -8.780683e-01 -3.414048e+01 -3.778941e-01 3.415440e+01 1.115138e-01 3.336890e+01 5.139760e-01 3.207413e+01 7.958424e-01 3.040503e+01 1.009698e+00 2.849348e+01 1.108494e+00 2.642292e+01 1.095731e+00 2.424726e+01 9.960011e-01 2.197655e+01 8.605884e-01 1.958602e+01 7.278432e-01 1.709399e+01 5.934709e-01 1.453660e+01 4.606617e-01 1.192425e+01 3.381830e-01 9.266561e+00 2.128508e-01 6.567607e+00 8.434189e-02 3.839701e+00 -4.486017e-02 1.097844e+00 -1.703834e-01 -1.645475e+00 -2.910971e-01 -4.381102e+00 -4.087769e-01 -7.103087e+00 -5.280719e-01 -9.806783e+00 -6.538272e-01 -1.248250e+01 -7.858335e-01 -1.511646e+01 -9.157830e-01 -1.769025e+01 -1.047663e+00 -2.018519e+01 -1.168394e+00 -2.259002e+01 -1.270865e+00 -2.486838e+01 -1.370385e+00 -2.697525e+01 -1.464452e+00 -2.888666e+01 -1.515078e+00 -3.060123e+01 -1.468848e+00 -3.204584e+01 
-1.010868e+00 -3.231092e+01 -6.057830e-01 -3.336923e+01 -1.474799e-01 3.378882e+01 3.108104e-01 3.273833e+01 6.794358e-01 3.136631e+01 9.351788e-01 2.971900e+01 1.101500e+00 2.785984e+01 1.169603e+00 2.584289e+01 1.145994e+00 2.370760e+01 1.051290e+00 2.146914e+01 9.198587e-01 1.912376e+01 7.789826e-01 1.668624e+01 6.337187e-01 1.418110e+01 4.891197e-01 1.162199e+01 3.502126e-01 9.019350e+00 2.116247e-01 6.380370e+00 7.267235e-02 3.715978e+00 -6.519530e-02 1.038738e+00 -1.996587e-01 -1.640349e+00 -3.301916e-01 -4.312484e+00 -4.580646e-01 -6.970415e+00 -5.857865e-01 -9.606637e+00 -7.151623e-01 -1.221018e+01 -8.444081e-01 -1.476650e+01 -9.673308e-01 -1.725742e+01 -1.081588e+00 -1.966369e+01 -1.177980e+00 -2.196753e+01 -1.250779e+00 -2.413960e+01 -1.304030e+00 -2.614789e+01 -1.332134e+00 -2.797358e+01 -1.311153e+00 -2.961060e+01 -1.210896e+00 -3.104364e+01 
-9.948106e-01 -3.515099e+01 -6.960079e-01 -3.646517e+01 -3.457035e-01 3.640589e+01 5.776634e-03 3.509568e+01 3.118814e-01 3.345631e+01 5.493394e-01 3.155498e+01 7.204378e-01 2.946230e+01 8.129179e-01 2.723270e+01 8.286549e-01 2.490228e+01 7.829475e-01 2.248640e+01 7.011165e-01 1.998679e+01 6.037773e-01 1.741425e+01 4.979967e-01 1.478540e+01 3.887294e-01 1.211141e+01 2.797828e-01 9.400508e+00 1.687914e-01 6.659103e+00 5.550951e-02 3.895867e+00 -5.846508e-02 1.121104e+00 -1.709774e-01 -1.656249e+00 -2.814300e-01 -4.429014e+00 -3.906862e-01 -7.191109e+00 -5.003178e-01 -9.935983e+00 -6.115756e-01 -1.265551e+01 -7.238445e-01 -1.533930e+01 -8.339605e-01 -1.797431e+01 -9.397295e-01 -2.054591e+01 -1.035046e+00 -2.303935e+01 -1.115657e+00 -2.543239e+01 -1.181456e+00 -2.770025e+01 -1.224614e+00 -2.982439e+01 -1.223896e+00 -3.179055e+01 -1.152866e+00 -3.357074e+01 
-7.546740e-01 -3.471809e+01 -4.718455e-01 -3.634855e+01 -1.454241e-01 3.662196e+01 1.827006e-01 3.496658e+01 4.641118e-01 3.314385e+01 6.771817e-01 3.116044e+01 8.200212e-01 2.903991e+01 8.905689e-01 2.680821e+01 8.939240e-01 2.448636e+01 8.434684e-01 2.208649e+01 7.580648e-01 1.961355e+01 6.536699e-01 1.707640e+01 5.386262e-01 1.448737e+01 4.188112e-01 1.185712e+01 2.980311e-01 9.193710e+00 1.761159e-01 6.503791e+00 5.325734e-02 3.795169e+00 -6.913867e-02 1.077022e+00 -1.894806e-01 -1.642794e+00 -3.074181e-01 -4.357611e+00 -4.233918e-01 -7.060986e+00 -5.376432e-01 -9.745220e+00 -6.497773e-01 -1.240173e+01 -7.582197e-01 -1.502018e+01 -8.596044e-01 -1.758807e+01 -9.499608e-01 -2.009108e+01 -1.023556e+00 -2.251502e+01 -1.075932e+00 -2.484319e+01 -1.104283e+00 -2.705962e+01 -1.101496e+00 -2.915480e+01 -1.053396e+00 -3.112645e+01 -9.428509e-01 -3.297630e+01 
-7.807316e-01 -3.730157e+01 -5.656794e-01 -3.917004e+01 -3.111768e-01 3.903421e+01 -5.486530e-02 3.715180e+01 1.782708e-01 3.510057e+01 3.691154e-01 3.289636e+01 5.097566e-01 3.056807e+01 5.940696e-01 2.814330e+01 6.230209e-01 2.564278e+01 6.060214e-01 2.307997e+01 5.571583e-01 2.046051e+01 4.881583e-01 1.779081e+01 4.060146e-01 1.507934e+01 3.164812e-01 1.233547e+01 2.234317e-01 9.564965e+00 1.270267e-01 6.772429e+00 2.737385e-02 3.963560e+00 -7.352856e-02 1.146956e+00 -1.736273e-01 -1.671611e+00 -2.729556e-01 -4.487596e+00 -3.722158e-01 -7.296350e+00 -4.709332e-01 -1.009053e+01 -5.683082e-01 -1.286427e+01 -6.640035e-01 -1.561090e+01 -7.564793e-01 -1.832177e+01 -8.422428e-01 -2.098481e+01 -9.163966e-01 -2.358905e+01 -9.752582e-01 -2.612158e+01 -1.015168e+00 -2.856894e+01 -1.028662e+00 -3.092005e+01 -1.003060e+00 -3.316577e+01 -9.240035e-01 -3.529549e+01 
-5.933168e-01 -3.723642e+01 -3.817012e-01 -3.944508e+01 -1.410336e-01 3.959796e+01 1.010855e-01 3.736239e+01 3.169898e-01 3.508220e+01 4.893346e-01 3.273907e+01 6.107897e-01 3.033118e+01 6.787069e-01 2.786369e+01 6.956578e-01 2.534317e+01 6.705950e-01 2.277692e+01 6.152653e-01 2.016756e+01 5.390098e-01 1.751843e+01 4.483090e-01 1.483486e+01 3.494715e-01 1.212541e+01 2.469885e-01 9.394584e+00 1.415538e-01 6.645914e+00 3.338321e-02 3.883886e+00 -7.513292e-02 1.116976e+00 -1.817041e-01 -1.650238e+00 -2.866052e-01 -4.414181e+00 -3.904378e-01 -7.170697e+00 -4.916136e-01 -9.911529e+00 -5.880802e-01 -1.263133e+01 -6.790848e-01 -1.532443e+01 -7.629019e-01 -1.798358e+01 -8.350912e-01 -2.059753e+01 -8.903467e-01 -2.315829e+01 -9.251104e-01 -2.565848e+01 -9.356785e-01 -2.809257e+01 -9.161842e-01 -3.045950e+01 -8.581282e-01 -3.276404e+01 -7.525257e-01 -3.501690e+01 
-6.385746e-01 -3.958963e+01 -4.749723e-01 -4.201074e+01 -2.845169e-01 4.181275e+01 -9.251320e-02 3.937692e+01 8.683005e-02 3.689792e+01 2.390234e-01 3.436190e+01 3.553647e-01 3.177036e+01 4.305650e-01 2.912969e+01 4.633312e-01 2.644560e+01 4.609583e-01 2.373022e+01 4.333390e-01 2.098446e+01 3.856864e-01 1.820914e+01 3.214261e-01 1.540570e+01 2.477523e-01 1.258617e+01 1.704392e-01 9.751454e+00 8.851272e-02 6.902090e+00 4.910988e-04 4.038987e+00 -8.939298e-02 1.174769e+00 -1.770451e-01 -1.689553e+00 -2.645464e-01 -4.553409e+00 -3.542850e-01 -7.416167e+00 -4.428880e-01 -1.026551e+01 -5.267173e-01 -1.310014e+01 -6.073786e-01 -1.591825e+01 -6.857064e-01 -1.871707e+01 -7.563625e-01 -2.148250e+01 -8.130374e-01 -2.421044e+01 -8.538107e-01 -2.689591e+01 -8.753006e-01 -2.953384e+01 -8.718227e-01 -3.212103e+01 -8.357193e-01 -3.465689e+01 -7.594361e-01 -3.714380e+01 
-4.844929e-01 -3.976542e+01 -3.207685e-01 -4.251329e+01 -1.382453e-01 4.257299e+01 4.552673e-02 3.980300e+01 2.133159e-01 3.708358e+01 3.523064e-01 3.438254e+01 4.550538e-01 3.168210e+01 5.177891e-01 2.897224e+01 5.393948e-01 2.624572e+01 5.279845e-01 2.351046e+01 4.933912e-01 2.076135e+01 4.387964e-01 1.799491e+01 3.661310e-01 1.520822e+01 2.837794e-01 1.241507e+01 1.988996e-01 9.613308e+00 1.097297e-01 6.801396e+00 1.385743e-02 3.977486e+00 -8.307011e-02 1.157234e+00 -1.755956e-01 -1.660951e+00 -2.668586e-01 -4.478179e+00 -3.601379e-01 -7.296091e+00 -4.502906e-01 -1.009887e+01 -5.318428e-01 -1.288764e+01 -6.071352e-01 -1.566262e+01 -6.778244e-01 -1.842431e+01 -7.371537e-01 -2.115715e+01 -7.776293e-01 -2.386212e+01 -7.984873e-01 -2.653987e+01 -7.971454e-01 -2.919265e+01 -7.694552e-01 -3.182656e+01 -7.104493e-01 -3.445321e+01 -6.158847e-01 -3.709075e+01 
-5.392638e-01 -4.190228e+01 -4.112556e-01 -4.483680e+01 -2.651402e-01 4.459165e+01 -1.176385e-01 4.164532e+01 2.244102e-02 3.875238e+01 1.447198e-01 3.588303e+01 2.420753e-01 3.302184e+01 3.094733e-01 3.015954e+01 3.387711e-01 2.727972e+01 3.411364e-01 2.441085e+01 3.295516e-01 2.153801e+01 2.998229e-01 1.865558e+01 2.462540e-01 1.574814e+01 1.826637e-01 1.285205e+01 1.220616e-01 9.952597e+00 5.609527e-02 7.045489e+00 -2.452570e-02 4.115529e+00 -1.074882e-01 1.202687e+00 -1.806126e-01 -1.707959e+00 -2.538988e-01 -4.620321e+00 -3.374861e-01 -7.549399e+00 -4.196148e-01 -1.045520e+01 -4.882931e-01 -1.335254e+01 -5.530859e-01 -1.624487e+01 -6.226021e-01 -1.914578e+01 -6.844625e-01 -2.201766e+01 -7.255810e-01 -2.487429e+01 -7.516508e-01 -2.771774e+01 -7.604113e-01 -3.054946e+01 -7.476302e-01 -3.337330e+01 -7.085986e-01 -3.619691e+01 -6.395158e-01 -3.903308e+01 
-4.081039e-01 -4.222112e+01 -2.787693e-01 -4.545533e+01 -1.370637e-01 4.544427e+01 5.820806e-03 4.219316e+01 1.383456e-01 3.906669e+01 2.514562e-01 3.602546e+01 3.392879e-01 3.304250e+01 3.979769e-01 3.009746e+01 4.161351e-01 2.715704e+01 4.085472e-01 2.425787e+01 3.915147e-01 2.137249e+01 3.566527e-01 1.849164e+01 2.936413e-01 1.558805e+01 2.206145e-01 1.271335e+01 1.551009e-01 9.842181e+00 8.460877e-02 6.968874e+00 -4.609723e-03 4.067426e+00 -9.540925e-02 1.195425e+00 -1.707493e-01 -1.672620e+00 -2.450954e-01 -4.541494e+00 -3.329610e-01 -7.436623e+00 -4.175676e-01 -1.030020e+01 -4.818647e-01 -1.315773e+01 -5.397895e-01 -1.601411e+01 -6.041045e-01 -1.889386e+01 -6.580705e-01 -2.174466e+01 -6.845328e-01 -2.459313e+01 -6.940712e-01 -2.744622e+01 -6.849742e-01 -3.031155e+01 -6.540669e-01 -3.320084e+01 -5.983720e-01 -3.613142e+01 -5.161403e-01 -3.912739e+01 
-4.677989e-01 -4.414955e+01 -3.657651e-01 -4.754557e+01 -2.512772e-01 4.726523e+01 -1.354594e-01 4.386041e+01 -2.423350e-02 4.058333e+01 7.527981e-02 3.739606e+01 1.587042e-01 3.427447e+01 2.264573e-01 3.120693e+01 2.411347e-01 2.810290e+01 2.352524e-01 2.509548e+01 2.439031e-01 2.210114e+01 2.377956e-01 1.912705e+01 1.811097e-01 1.607923e+01 1.145828e-01 1.312131e+01 7.904736e-02 1.016140e+01 3.833000e-02 7.211737e+00 -4.719261e-02 4.174953e+00 -1.354244e-01 1.228409e+00 -1.840187e-01 -1.724648e+00 -2.329530e-01 -4.670518e+00 -3.221373e-01 -7.705908e+00 -4.097946e-01 -1.065336e+01 -4.537551e-01 -1.360993e+01 -4.940735e-01 -1.656291e+01 -5.671475e-01 -1.960350e+01 -6.333084e-01 -2.256805e+01 -6.531780e-01 -2.555132e+01 -6.668083e-01 -2.855129e+01 -6.670778e-01 -3.157291e+01 -6.497127e-01 -3.462575e+01 -6.115694e-01 -3.772431e+01 -5.508269e-01 -4.088925e+01 
-3.531038e-01 -4.453625e+01 -2.492612e-01 -4.820017e+01 -1.370434e-01 4.813539e+01 -2.364128e-02 4.445878e+01 8.270255e-02 4.096461e+01 1.758228e-01 3.761018e+01 2.526200e-01 3.436500e+01 3.164233e-01 3.121362e+01 3.186077e-01 2.803160e+01 3.007865e-01 2.499150e+01 3.074606e-01 2.197910e+01 3.000380e-01 1.900591e+01 2.311683e-01 1.594419e+01 1.525498e-01 1.300811e+01 1.162793e-01 1.007319e+01 7.541845e-02 7.158907e+00 -2.149285e-02 4.133502e+00 -1.204144e-01 1.229662e+00 -1.668977e-01 -1.683458e+00 -2.126043e-01 -4.584141e+00 -3.090402e-01 -7.603124e+00 -4.023643e-01 -1.050758e+01 -4.382603e-01 -1.342896e+01 -4.686566e-01 -1.634745e+01 -5.407323e-01 -1.938713e+01 -6.038949e-01 -2.233450e+01 -6.083681e-01 -2.531950e+01 -6.083013e-01 -2.834032e+01 -5.946308e-01 -3.140646e+01 -5.634940e-01 -3.453380e+01 -5.128749e-01 -3.774420e+01 -4.422653e-01 -4.106620e+01 
-4.154224e-01 -4.626104e+01 -3.328381e-01 -5.006272e+01 -2.414773e-01 4.975604e+01 -1.487965e-01 4.594782e+01 -5.927602e-02 4.232452e+01 2.187084e-02 3.884346e+01 9.096279e-02 3.547306e+01 1.464075e-01 3.219058e+01 1.639064e-01 2.892975e+01 1.650395e-01 2.576703e+01 1.730086e-01 2.264404e+01 1.677993e-01 1.955504e+01 1.256497e-01 1.643766e+01 7.420317e-02 1.339254e+01 4.121702e-02 1.035995e+01 2.733782e-03 7.339689e+00 -6.731530e-02 4.269566e+00 -1.402022e-01 1.260641e+00 -1.870818e-01 -1.748529e+00 -2.343766e-01 -4.756597e+00 -3.084806e-01 -7.824945e+00 -3.808918e-01 -1.084240e+01 -4.228572e-01 -1.387092e+01 -4.607524e-01 -1.691041e+01 -5.187623e-01 -2.002019e+01 -5.698545e-01 -2.309970e+01 -5.870214e-01 -2.621165e+01 -5.953380e-01 -2.936318e+01 -5.913969e-01 -3.256511e+01 -5.726009e-01 -3.583246e+01 -5.371804e-01 -3.918530e+01 -4.844831e-01 -4.265004e+01 
-3.128699e-01 -4.665748e+01 -2.282402e-01 -5.069411e+01 -1.378011e-01 5.058837e+01 -4.615340e-02 4.654198e+01 4.020102e-02 4.272284e+01 1.164527e-01 3.908567e+01 1.789057e-01 3.559374e+01 2.239990e-01 3.221530e+01 2.408618e-01 2.890938e+01 2.411730e-01 2.569742e+01 2.374977e-01 2.254651e+01 2.201365e-01 1.943903e+01 1.782107e-01 1.634440e+01 1.270850e-01 1.330170e+01 8.205051e-02 1.028357e+01 3.161025e-02 7.278493e+00 -3.660976e-02 4.259593e+00 -1.069550e-01 1.273172e+00 -1.638193e-01 -1.706741e+00 -2.200397e-01 -4.690025e+00 -2.884752e-01 -7.702597e+00 -3.536987e-01 -1.069805e+01 -4.001532e-01 -1.370309e+01 -4.404739e-01 -1.672907e+01 -4.865055e-01 -1.980324e+01 -5.235659e-01 -2.288669e+01 -5.367498e-01 -2.601006e+01 -5.361482e-01 -2.918908e+01 -5.217741e-01 -3.244015e+01 -4.924341e-01 -3.578368e+01 -4.474130e-01 -3.924533e+01 -3.870048e-01 -4.285694e+01 
-3.766490e-01 -4.818184e+01 -3.087920e-01 -5.233263e+01 -2.346005e-01 5.200614e+01 -1.590763e-01 4.785032e+01 -8.602278e-02 4.392348e+01 -1.953996e-02 4.018022e+01 3.683013e-02 3.658376e+01 7.965568e-02 3.310325e+01 1.029586e-01 2.970786e+01 1.126564e-01 2.639885e+01 1.152828e-01 2.315295e+01 1.059365e-01 1.995370e+01 7.940978e-02 1.678154e+01 4.422923e-02 1.365123e+01 8.881342e-03 1.054616e+01 -3.212476e-02 7.455776e+00 -8.467758e-02 4.364714e+00 -1.400884e-01 1.293118e+00 -1.897311e-01 -1.773514e+00 -2.398202e-01 -4.844119e+00 -2.965940e-01 -7.933152e+00 -3.515349e-01 -1.102037e+01 -3.960320e-01 -1.412094e+01 -4.361049e-01 -1.724522e+01 -4.773716e-01 -2.040954e+01 -5.114781e-01 -2.359890e+01 -5.297236e-01 -2.683237e+01 -5.361391e-01 -3.012467e+01 -5.305917e-01 -3.349189e+01 -5.121435e-01 -3.695364e+01 -4.801108e-01 -4.053438e+01 -4.345613e-01 -4.426453e+01 
-2.832134e-01 -4.854262e+01 -2.131352e-01 -5.289577e+01 -1.389294e-01 5.275884e+01 -6.347646e-02 4.839792e+01 7.721970e-03 4.429912e+01 7.082108e-02 4.041595e+01 1.225066e-01 3.670901e+01 1.597703e-01 3.314449e+01 1.796538e-01 2.969319e+01 1.855221e-01 2.634231e+01 1.812069e-01 2.307050e+01 1.647871e-01 1.985931e+01 1.344570e-01 1.669267e+01 9.551799e-02 1.357071e+01 5.322213e-02 1.048091e+01 5.574110e-03 7.411897e+00 -4.959298e-02 4.353201e+00 -1.069844e-01 1.310177e+00 -1.613885e-01 -1.726650e+00 -2.152678e-01 -4.766623e+00 -2.711137e-01 -7.819189e+00 -3.238096e-01 -1.087894e+01 -3.681853e-01 -1.395627e+01 -4.065909e-01 -1.706249e+01 -4.412459e-01 -2.021008e+01 -4.671257e-01 -2.339894e+01 -4.789292e-01 -2.664496e+01 -4.777844e-01 -2.996578e+01 -4.639070e-01 -3.338136e+01 -4.370883e-01 -3.691542e+01 -3.973839e-01 -4.059649e+01 -3.455332e-01 -4.445871e+01 
-3.478987e-01 -4.986916e+01 -2.911819e-01 -5.431303e+01 -2.297652e-01 5.397172e+01 -1.669861e-01 4.952384e+01 -1.062761e-01 4.533886e+01 -5.089640e-02 4.137017e+01 -3.801925e-03 3.757851e+01 3.239064e-02 3.393082e+01 5.559807e-02 3.039958e+01 6.732720e-02 2.696758e+01 6.951588e-02 2.361520e+01 6.124141e-02 2.032530e+01 4.182240e-02 1.708358e+01 1.441576e-02 1.388467e+01 -1.780156e-02 1.071771e+01 -5.544290e-02 7.572537e+00 -9.917913e-02 4.440395e+00 -1.457477e-01 1.320629e+00 -1.919376e-01 -1.794522e+00 -2.385842e-01 -4.913216e+00 -2.865375e-01 -8.043178e+00 -3.326280e-01 -1.118498e+01 -3.736364e-01 -1.434725e+01 -4.102707e-01 -1.753999e+01 -4.431423e-01 -2.077386e+01 -4.689751e-01 -2.405399e+01 -4.842689e-01 -2.739427e+01 -4.889204e-01 -3.081123e+01 -4.827110e-01 -3.432411e+01 -4.653032e-01 -3.795584e+01 -4.366020e-01 -4.173403e+01 -3.970617e-01 -4.569188e+01 
-2.613966e-01 -5.015851e+01 -2.022615e-01 -5.477317e+01 -1.401022e-01 5.461274e+01 -7.664688e-02 4.999173e+01 -1.673736e-02 4.565976e+01 3.654173e-02 4.157000e+01 8.048229e-02 3.768185e+01 1.128854e-01 3.396045e+01 1.324379e-01 3.037660e+01 1.400352e-01 2.690814e+01 1.370055e-01 2.353386e+01 1.233356e-01 2.023503e+01 9.930648e-02 1.699627e+01 6.730094e-02 1.380758e+01 2.973982e-02 1.065744e+01 -1.294834e-02 7.534985e+00 -6.035303e-02 4.431138e+00 -1.100052e-01 1.340984e+00 -1.594868e-01 -1.743412e+00 -2.085333e-01 -4.830630e+00 -2.569033e-01 -7.928600e+00 -3.022459e-01 -1.104223e+01 -3.421937e-01 -1.418058e+01 -3.764652e-01 -1.735454e+01 -4.047669e-01 -2.057565e+01 -4.247736e-01 -2.385402e+01 -4.340719e-01 -2.720508e+01 -4.321726e-01 -3.064771e+01 -4.190073e-01 -3.420407e+01 -3.946635e-01 -3.790016e+01 -3.595482e-01 -4.176650e+01 -3.145931e-01 -4.583881e+01 
-3.267801e-01 -5.128993e+01 -2.783715e-01 -5.597180e+01 -2.263498e-01 5.561958e+01 -1.729261e-01 5.093442e+01 -1.212765e-01 4.653795e+01 -7.402722e-02 4.238310e+01 -3.357775e-02 3.842930e+01 -1.924151e-03 3.464192e+01 1.969157e-02 3.099205e+01 3.151902e-02 2.745668e+01 3.419692e-02 2.401497e+01 2.767903e-02 2.064870e+01 1.221535e-02 1.734281e+01 -1.059412e-02 1.408615e+01 -3.906655e-02 1.086746e+01 -7.267132e-02 7.676269e+00 -1.108510e-01 4.503698e+00 -1.517899e-01 1.343528e+00 -1.936917e-01 -1.811989e+00 -2.360457e-01 -4.971046e+00 -2.783463e-01 -8.141367e+00 -3.188084e-01 -1.132912e+01 -3.556209e-01 -1.454308e+01 -3.882061e-01 -1.779364e+01 -4.159589e-01 -2.109192e+01 -4.370230e-01 -2.444890e+01 -4.494715e-01 -2.787950e+01 -4.525822e-01 -3.140188e+01 -4.460549e-01 -3.503748e+01 -4.297908e-01 -3.881159e+01 -4.039780e-01 -4.275401e+01 -3.692451e-01 -4.689981e+01 
-2.455990e-01 -5.147948e+01 -1.945138e-01 -5.630178e+01 -1.411166e-01 5.612409e+01 -8.637192e-02 5.129646e+01 -3.464569e-02 4.677819e+01 1.153878e-02 4.252242e+01 4.994730e-02 3.848794e+01 7.881428e-02 3.463886e+01 9.714981e-02 3.094461e+01 1.051540e-01 2.737980e+01 1.034275e-01 2.392177e+01 9.223064e-02 2.055067e+01 7.212316e-02 1.724981e+01 4.463158e-02 1.400588e+01 1.137783e-02 1.080630e+01 -2.675981e-02 7.639463e+00 -6.886964e-02 4.495381e+00 -1.132011e-01 1.366032e+00 -1.580247e-01 -1.757352e+00 -2.024798e-01 -4.883887e+00 -2.457243e-01 -8.022354e+00 -2.860825e-01 -1.118080e+01 -3.218849e-01 -1.436927e+01 -3.523170e-01 -1.759942e+01 -3.765922e-01 -2.088398e+01 -3.931427e-01 -2.423641e+01 -4.004288e-01 -2.767362e+01 -3.978483e-01 -3.121592e+01 -3.853145e-01 -3.488707e+01 -3.630475e-01 -3.871464e+01 -3.316009e-01 -4.273056e+01 -2.919572e-01 -4.697153e+01 
-3.116832e-01 -5.241901e+01 -2.692730e-01 -5.728479e+01 -2.239534e-01 5.692482e+01 -1.771902e-01 5.205629e+01 -1.319542e-01 4.749538e+01 -9.041895e-02 4.319496e+01 -5.460472e-02 3.911364e+01 -2.623721e-02 3.521553e+01 -6.453927e-03 3.147001e+01 4.839086e-03 2.785213e+01 8.057129e-03 2.433930e+01 3.049531e-03 2.091173e+01 -1.005559e-02 1.755280e+01 -2.994916e-02 1.424966e+01 -5.520606e-02 1.098972e+01 -8.533055e-02 7.761378e+00 -1.197681e-01 4.554598e+00 -1.568738e-01 1.361773e+00 -1.949983e-01 -1.825914e+00 -2.335652e-01 -5.017614e+00 -2.719982e-01 -8.222128e+00 -3.086442e-01 -1.144704e+01 -3.418396e-01 -1.470233e+01 -3.709821e-01 -1.799957e+01 -3.954740e-01 -2.135127e+01 -4.136992e-01 -2.477021e+01 -4.240288e-01 -2.827296e+01 -4.259033e-01 -3.187930e+01 -4.191637e-01 -3.561235e+01 -4.038634e-01 -3.949904e+01 -3.803214e-01 -4.357065e+01 -3.492217e-01 -4.786342e+01 
-2.346088e-01 -5.248615e+01 -1.891785e-01 -5.746324e+01 -1.418757e-01 5.727348e+01 -9.317802e-02 5.229181e+01 -4.709172e-02 4.763407e+01 -5.751052e-03 4.325355e+01 2.890463e-02 3.910860e+01 5.523636e-02 3.516243e+01 7.216373e-02 3.138317e+01 7.998028e-02 2.774467e+01 7.930187e-02 2.422276e+01 7.002220e-02 2.079606e+01 5.231307e-02 1.744641e+01 2.771541e-02 1.415985e+01 -2.107781e-03 1.092241e+01 -3.660536e-02 7.721185e+00 -7.516986e-02 4.544889e+00 -1.159099e-01 1.385116e+00 -1.569362e-01 -1.768142e+00 -1.976418e-01 -4.925211e+00 -2.374369e-01 -8.096128e+00 -2.744809e-01 -1.128936e+01 -3.069540e-01 -1.451627e+01 -3.343347e-01 -1.778991e+01 -3.561528e-01 -2.112444e+01 -3.707902e-01 -2.453402e+01 -3.766703e-01 -2.803707e+01 -3.735004e-01 -3.165528e+01 -3.613848e-01 -3.541364e+01 -3.406498e-01 -3.934080e+01 -3.119003e-01 -4.346957e+01 -2.760993e-01 -4.783730e+01 
-3.015361e-01 -5.323793e+01 -2.631822e-01 -5.823442e+01 -2.223443e-01 5.786930e+01 -1.800249e-01 5.287047e+01 -1.390092e-01 4.819229e+01 -1.011512e-01 4.378768e+01 -6.823325e-02 3.961478e+01 -4.200357e-02 3.563651e+01 -2.413806e-02 3.182034e+01 -1.378874e-02 2.814253e+01 -9.875006e-03 2.457836e+01 -1.349651e-02 2.110612e+01 -2.554895e-02 1.770701e+01 -4.394999e-02 1.436998e+01 -6.648564e-02 1.108039e+01 -9.368310e-02 7.824920e+00 -1.260225e-01 4.591543e+00 -1.609442e-01 1.374882e+00 -1.958676e-01 -1.835829e+00 -2.312240e-01 -5.051366e+00 -2.674424e-01 -8.282494e+00 -3.019369e-01 -1.153458e+01 -3.321188e-01 -1.481965e+01 -3.584177e-01 -1.815103e+01 -3.812667e-01 -2.154337e+01 -3.982849e-01 -2.500773e+01 -4.070592e-01 -2.856282e+01 -4.078617e-01 -3.223001e+01 -4.008628e-01 -3.603361e+01 -3.862156e-01 -4.000159e+01 -3.642711e-01 -4.416616e+01 -3.356989e-01 -4.856427e+01 
-2.276388e-01 -5.316462e+01 -1.858153e-01 -5.824447e+01 -1.423604e-01 5.804706e+01 -9.747165e-02 5.296317e+01 -5.487169e-02 4.821269e+01 -1.641934e-02 4.374909e+01 1.613574e-02 3.953046e+01 4.102348e-02 3.551908e+01 5.625797e-02 3.168096e+01 6.327714e-02 2.799295e+01 6.375826e-02 2.442852e+01 5.622811e-02 2.096442e+01 3.937983e-02 1.757991e+01 1.601488e-02 1.426470e+01 -1.092728e-02 1.100231e+01 -4.239095e-02 7.777977e+00 -7.930027e-02 4.577874e+00 -1.183381e-01 1.397684e+00 -1.561739e-01 -1.775120e+00 -1.937202e-01 -4.952689e+00 -2.319063e-01 -8.147592e+00 -2.674572e-01 -1.136422e+01 -2.971238e-01 -1.461655e+01 -3.219249e-01 -1.791951e+01 -3.429057e-01 -2.128985e+01 -3.572100e-01 -2.473815e+01 -3.619811e-01 -2.828536e+01 -3.581227e-01 -3.195452e+01 -3.461058e-01 -3.577143e+01 -3.263063e-01 -3.976537e+01 -2.993020e-01 -4.396967e+01 -2.659946e-01 -4.842200e+01 
-2.956588e-01 -5.373409e+01 -2.596731e-01 -5.880875e+01 -2.214190e-01 5.844066e+01 -1.816535e-01 5.336395e+01 -1.429845e-01 4.861558e+01 -1.070059e-01 4.414866e+01 -7.522272e-02 3.992126e+01 -4.944452e-02 3.589538e+01 -3.433533e-02 3.203229e+01 -2.600528e-02 2.831930e+01 -2.029107e-02 2.472547e+01 -2.162678e-02 2.122738e+01 -3.470466e-02 1.779912e+01 -5.382635e-02 1.444284e+01 -7.311187e-02 1.113693e+01 -9.690093e-02 7.866373e+00 -1.296998e-01 4.611770e+00 -1.650189e-01 1.382039e+00 -1.963099e-01 -1.840917e+00 -2.280268e-01 -5.069530e+00 -2.646156e-01 -8.321903e+00 -2.995494e-01 -1.158913e+01 -3.262895e-01 -1.489065e+01 -3.493134e-01 -1.824152e+01 -3.729012e-01 -2.166347e+01 -3.911298e-01 -2.515451e+01 -3.980804e-01 -2.874060e+01 -3.976454e-01 -3.244433e+01 -3.902407e-01 -3.629050e+01 -3.759039e-01 -4.030755e+01 -3.548980e-01 -4.452816e+01 -3.278292e-01 -4.898962e+01 
-2.242168e-01 -5.350594e+01 -1.841828e-01 -5.863706e+01 -1.426092e-01 5.843589e+01 -9.957496e-02 5.330104e+01 -5.858374e-02 4.850438e+01 -2.125424e-02 4.399962e+01 1.098321e-02 3.974505e+01 3.642347e-02 3.570244e+01 4.853725e-02 3.182863e+01 5.308629e-02 2.811766e+01 5.620565e-02 2.453393e+01 5.173596e-02 2.105317e+01 3.295208e-02 1.764410e+01 7.880598e-03 1.431673e+01 -1.523432e-02 1.104414e+01 -4.273868e-02 7.810538e+00 -8.130718e-02 4.590944e+00 -1.219749e-01 1.402867e+00 -1.557074e-01 -1.777333e+00 -1.891655e-01 -4.962836e+00 -2.290156e-01 -8.177327e+00 -2.663258e-01 -1.140340e+01 -2.921680e-01 -1.466620e+01 -3.133462e-01 -1.798175e+01 -3.363462e-01 -2.137731e+01 -3.531790e-01 -2.484339e+01 -3.559414e-01 -2.841170e+01 -3.509289e-01 -3.210603e+01 -3.386413e-01 -3.595219e+01 -3.192080e-01 -3.997961e+01 -2.930579e-01 -4.422175e+01 -2.610027e-01 -4.871644e+01 
-2.936754e-01 -5.390011e+01 -2.585298e-01 -5.900084e+01 -2.211698e-01 5.863166e+01 -1.822828e-01 5.352903e+01 -1.443479e-01 4.875737e+01 -1.087278e-01 4.427010e+01 -7.625725e-02 4.002618e+01 -4.625739e-02 3.599143e+01 -3.778008e-02 3.209411e+01 -3.563261e-02 2.837690e+01 -2.367724e-02 2.477684e+01 -1.803217e-02 2.127880e+01 -3.782450e-02 1.781925e+01 -6.355112e-02 1.446535e+01 -7.524369e-02 1.115811e+01 -9.111817e-02 7.891870e+00 -1.308586e-01 4.607124e+00 -1.731296e-01 1.382423e+00 -1.963326e-01 -1.840346e+00 -2.199659e-01 -5.063937e+00 -2.634455e-01 -8.346458e+00 -3.053648e-01 -1.160940e+01 -3.241856e-01 -1.491231e+01 -3.396574e-01 -1.826096e+01 -3.699029e-01 -2.171447e+01 -3.952700e-01 -2.520624e+01 -3.965070e-01 -2.880075e+01 -3.944236e-01 -3.251622e+01 -3.865819e-01 -3.637653e+01 -3.723008e-01 -4.040999e+01 -3.516377e-01 -4.464936e+01 -3.251240e-01 -4.913200e+01 
-2.241230e-01 -5.350569e+01 -1.841888e-01 -5.863690e+01 -1.426951e-01 5.843553e+01 -9.973354e-02 5.330066e+01 -5.871374e-02 4.850413e+01 -2.106113e-02 4.399994e+01 1.257640e-02 3.974764e+01 4.399280e-02 3.571476e+01 4.835033e-02 3.181568e+01 4.541500e-02 2.811511e+01 5.622124e-02 2.453638e+01 6.023641e-02 2.106762e+01 3.280006e-02 1.762919e+01 -9.165637e-04 1.431398e+01 -1.516137e-02 1.104699e+01 -3.342674e-02 7.826296e+00 -8.122056e-02 4.575288e+00 -1.311573e-01 1.400174e+00 -1.555218e-01 -1.774244e+00 -1.796217e-01 -4.946789e+00 -2.286705e-01 -8.192688e+00 -2.752743e-01 -1.140585e+01 -2.918855e-01 -1.466309e+01 -3.042604e-01 -1.796657e+01 -3.359659e-01 -2.139167e+01 -3.619320e-01 -2.484639e+01 -3.576972e-01 -2.841205e+01 -3.510357e-01 -3.210570e+01 -3.383550e-01 -3.595172e+01 -3.188673e-01 -3.997914e+01 -2.927702e-01 -4.422135e+01 -2.608062e-01 -4.871611e+01 