# vtk DataFile Version 2.0
Comment goes here
ASCII

DATASET STRUCTURED_POINTS
FIELD FieldData 1
TIME 1 1 double
0.03000000
DIMENSIONS    64   64   1

ORIGIN    0.000   0.000   0.000
SPACING   0.03125 0.03125   1.000

POINT_DATA   4096
VECTORS u double

0.426750 0.002193 0.000000 -0.863325 0.000915 0.000000 0.394045 0.000849 0.000000 -0.844030 -0.000281 0.000000 0.303541 -0.001090 0.000000 -0.822068 -0.000749 0.000000 0.357442 0.001244 0.000000 -0.808219 -0.000707 0.000000 0.398685 0.000752 0.000000 -0.790715 -0.000611 0.000000 0.395830 0.000504 0.000000 -0.722798 -0.000651 0.000000 0.323582 0.000442 0.000000 -0.592538 -0.000580 0.000000 0.191550 0.000378 0.000000 -0.423217 -0.000358 0.000000 0.031096 0.000306 0.000000 -0.243954 0.000077 0.000000 -0.129323 0.000119 0.000000 -0.076546 0.000166 0.000000 -0.271861 0.000194 0.000000 0.067521 0.000254 0.000000 -0.391264 0.000253 0.000000 0.184699 0.000353 0.000000 -0.481952 0.000159 0.000000 0.263948 0.000871 0.000000 -0.531901 -0.000059 0.000000 0.296510 0.000855 0.000000 -0.540786 0.000035 0.000000 0.288790 0.000797 0.000000 -0.513660 0.000116 0.000000 0.243490 0.000685 0.000000 -0.446270 -0.000313 0.000000 0.150969 0.001412 0.000000 -0.332169 -0.000324 0.000000 0.023825 0.001042 0.000000 -0.212595 0.000090 0.000000 -0.074049 0.000714 0.000000 -0.156562 0.000208 0.000000 -0.090143 0.000807 0.000000 -0.186356 0.000160 0.000000 -0.027929 0.000840 0.000000 -0.282891 0.000136 0.000000 0.086891 0.000853 0.000000 -0.418054 0.000315 0.000000 0.217342 0.000666 0.000000 -0.548236 0.000544 0.000000 0.322382 0.000538 0.000000 -0.639967 0.000472 0.000000 0.377989 0.000782 0.000000 -0.675484 0.000528 0.000000 0.365682 0.000672 0.000000 -0.642538 0.000572 0.000000 0.284092 0.000491 0.000000 -0.536977 0.000544 0.000000 0.125169 0.000341 0.000000 -0.357941 0.000462 0.000000 -0.103231 0.000134 0.000000 -0.128047 0.000517 0.000000 -0.373560 -0.000129 0.000000 0.123615 0.000599 0.000000 -0.655643 -0.000315 0.000000 0.363022 0.000754 0.000000 -0.900504 -0.001995 0.000000 
-0.292927 -0.016648 0.000000 0.268404 0.014841 0.000000 -0.268427 -0.009135 0.000000 0.266495 0.044203 0.000000 -0.161200 -0.008736 0.000000 0.248747 -0.027765 0.000000 -0.247266 -0.006684 0.000000 0.229818 -0.021502 0.000000 -0.305838 -0.008144 0.000000 0.209650 0.000529 0.000000 -0.326897 -0.033270 0.000000 0.161103 0.035375 0.000000 -0.301569 -0.064683 0.000000 0.077987 0.065561 0.000000 -0.240615 -0.084544 0.000000 -0.023696 0.079902 0.000000 -0.163681 -0.089691 0.000000 -0.128224 0.079776 0.000000 -0.086131 -0.083718 0.000000 -0.224839 0.070761 0.000000 -0.019412 -0.072114 0.000000 -0.306219 0.059274 0.000000 0.034905 -0.058986 0.000000 -0.371772 0.045193 0.000000 0.075292 -0.040374 0.000000 -0.415573 0.024819 0.000000 0.095320 -0.017009 0.000000 -0.433171 0.004390 0.000000 0.094909 0.002968 0.000000 -0.429269 -0.013453 0.000000 0.078269 0.021515 0.000000 -0.406123 -0.033303 0.000000 0.040090 0.045021 0.000000 -0.354763 -0.056973 0.000000 -0.026643 0.062696 0.000000 -0.279212 -0.059836 0.000000 -0.100926 0.047998 0.000000 -0.214812 -0.027912 0.000000 -0.142492 0.007060 0.000000 -0.194342 0.014910 0.000000 -0.137731 -0.031935 0.000000 -0.214267 0.048150 0.000000 -0.098073 -0.058153 0.000000 -0.260067 0.067311 0.000000 -0.038324 -0.065904 0.000000 -0.312125 0.064828 0.000000 0.017934 -0.053234 0.000000 -0.348953 0.045653 0.000000 0.054475 -0.028477 0.000000 -0.360485 0.017420 0.000000 0.063742 0.005618 0.000000 -0.336455 -0.016832 0.000000 0.040293 0.040338 0.000000 -0.279121 -0.053045 0.000000 -0.015727 0.079074 0.000000 -0.184373 -0.089757 0.000000 -0.105136 0.114013 0.000000 -0.056685 -0.115273 0.000000 -0.212835 0.135174 0.000000 0.088216 -0.126117 0.000000 -0.320682 0.141005 0.000000 0.233021 -0.119827 0.000000 -0.407570 0.122361 0.000000 0.338735 -0.031718 0.000000 
0.667463 0.072524 0.000000 0.436067 -0.023585 0.000000 0.504553 0.002759 0.000000 0.412299 -0.107509 0.000000 0.377108 0.016658 0.000000 0.395144 0.085317 0.000000 0.564707 0.020172 0.000000 0.383765 0.057865 0.000000 0.698496 0.020921 0.000000 0.366112 0.020448 0.000000 0.821154 0.049051 0.000000 0.313069 -0.025979 0.000000 0.964077 0.083557 0.000000 0.219140 -0.061533 0.000000 1.127923 0.102061 0.000000 0.104268 -0.077292 0.000000 1.294469 0.104834 0.000000 -0.009948 -0.077473 0.000000 1.447427 0.096734 0.000000 -0.110455 -0.066553 0.000000 1.577508 0.081574 0.000000 -0.191636 -0.054063 0.000000 1.684392 0.065805 0.000000 -0.256034 -0.040035 0.000000 1.766369 0.043960 0.000000 -0.298371 -0.019156 0.000000 1.814785 0.017539 0.000000 -0.312654 0.001266 0.000000 1.831534 -0.003867 0.000000 -0.304812 0.017437 0.000000 1.822858 -0.023031 0.000000 -0.275710 0.038864 0.000000 1.784546 -0.051672 0.000000 -0.212446 0.068145 0.000000 1.706534 -0.075875 0.000000 -0.119522 0.075325 0.000000 1.617450 -0.064311 0.000000 -0.044116 0.042279 0.000000 1.569500 -0.020262 0.000000 -0.026555 -0.003954 0.000000 1.577892 0.020085 0.000000 -0.062214 -0.038817 0.000000 1.627132 0.045936 0.000000 -0.133157 -0.058896 0.000000 1.698237 0.052373 0.000000 -0.214555 -0.055593 0.000000 1.761233 0.037372 0.000000 -0.278873 -0.036003 0.000000 1.794574 0.012003 0.000000 -0.312028 -0.008486 0.000000 1.787273 -0.023502 0.000000 -0.301285 0.024121 0.000000 1.731407 -0.056763 0.000000 -0.247619 0.056510 0.000000 1.623975 -0.094204 0.000000 -0.144790 0.089751 0.000000 1.459977 -0.127226 0.000000 0.002403 0.107833 0.000000 1.251763 -0.144384 0.000000 0.174468 0.107718 0.000000 1.014672 -0.144206 0.000000 0.352933 0.086573 0.000000 0.764172 -0.104959 0.000000 0.504321 -0.116638 0.000000 
1.578257 0.051606 0.000000 -0.041283 0.177751 0.000000 1.171292 0.014632 0.000000 -0.073532 0.171648 0.000000 0.506356 0.008419 0.000000 -0.058729 -0.215364 0.000000 1.197455 0.004695 0.000000 -0.051592 -0.155292 0.000000 1.633381 0.009510 0.000000 -0.049265 -0.122128 0.000000 1.930665 0.019773 0.000000 -0.034426 -0.107547 0.000000 2.133700 0.029246 0.000000 -0.003799 -0.098285 0.000000 2.273378 0.030329 0.000000 0.032214 -0.086645 0.000000 2.373372 0.024525 0.000000 0.065980 -0.073182 0.000000 2.447870 0.016789 0.000000 0.094218 -0.059320 0.000000 2.506917 0.009066 0.000000 0.115801 -0.047611 0.000000 2.553244 0.005412 0.000000 0.133731 -0.036784 0.000000 2.589105 0.001963 0.000000 0.145552 -0.023596 0.000000 2.620559 -0.002726 0.000000 0.148983 -0.012360 0.000000 2.648779 -0.004874 0.000000 0.147966 -0.004777 0.000000 2.672338 -0.007587 0.000000 0.143216 0.005009 0.000000 2.697061 -0.018242 0.000000 0.124880 0.021039 0.000000 2.732583 -0.030228 0.000000 0.091467 0.029249 0.000000 2.768974 -0.027408 0.000000 0.063246 0.020038 0.000000 2.783203 -0.010501 0.000000 0.058564 0.006517 0.000000 2.769518 0.003724 0.000000 0.072162 -0.001089 0.000000 2.735101 0.012789 0.000000 0.096458 -0.003794 0.000000 2.685372 0.015494 0.000000 0.122978 0.001832 0.000000 2.630718 0.011084 0.000000 0.141767 0.012312 0.000000 2.575572 0.004678 0.000000 0.150414 0.024721 0.000000 2.518964 -0.005124 0.000000 0.144821 0.039034 0.000000 2.460113 -0.013328 0.000000 0.129073 0.054387 0.000000 2.395998 -0.023755 0.000000 0.099647 0.074242 0.000000 2.326341 -0.033181 0.000000 0.056657 0.092941 0.000000 2.239430 -0.036890 0.000000 0.005125 0.110974 0.000000 2.121827 -0.037460 0.000000 -0.053496 0.130674 0.000000 1.958082 -0.029027 0.000000 -0.102877 0.064990 0.000000 
1.663814 0.010929 0.000000 0.000651 0.383380 0.000000 1.318512 0.035007 0.000000 -0.020336 0.557428 0.000000 0.760390 0.001855 0.000000 -0.013930 -0.605782 0.000000 1.330189 0.013036 0.000000 -0.007857 -0.378061 0.000000 1.707248 0.018593 0.000000 0.002338 -0.276835 0.000000 1.974623 0.034212 0.000000 0.018159 -0.229014 0.000000 2.168933 0.052930 0.000000 0.038961 -0.201212 0.000000 2.312715 0.066048 0.000000 0.059069 -0.177285 0.000000 2.421895 0.071068 0.000000 0.074237 -0.151971 0.000000 2.505703 0.068496 0.000000 0.084487 -0.125600 0.000000 2.571335 0.059990 0.000000 0.090698 -0.100389 0.000000 2.622900 0.047875 0.000000 0.095999 -0.075895 0.000000 2.663228 0.032139 0.000000 0.099975 -0.050611 0.000000 2.695920 0.014108 0.000000 0.101977 -0.026953 0.000000 2.722076 -0.002850 0.000000 0.104619 -0.006122 0.000000 2.741441 -0.018281 0.000000 0.107656 0.014141 0.000000 2.756760 -0.033336 0.000000 0.104375 0.032623 0.000000 2.773445 -0.042463 0.000000 0.092801 0.038934 0.000000 2.788508 -0.036089 0.000000 0.082254 0.028050 0.000000 2.792429 -0.015580 0.000000 0.080891 0.009731 0.000000 2.783401 0.006488 0.000000 0.084968 -0.004400 0.000000 2.764070 0.021639 0.000000 0.091860 -0.009168 0.000000 2.735486 0.025853 0.000000 0.099097 -0.000939 0.000000 2.701240 0.018583 0.000000 0.102859 0.019144 0.000000 2.661155 0.003356 0.000000 0.102478 0.048121 0.000000 2.612042 -0.017909 0.000000 0.096463 0.082973 0.000000 2.551895 -0.041015 0.000000 0.087432 0.120624 0.000000 2.478390 -0.064778 0.000000 0.074093 0.159408 0.000000 2.390972 -0.084237 0.000000 0.056350 0.194744 0.000000 2.282868 -0.092851 0.000000 0.036313 0.225321 0.000000 2.145668 -0.085586 0.000000 0.012417 0.250318 0.000000 1.970900 -0.055578 0.000000 -0.014404 0.263186 0.000000 
1.715384 0.036551 0.000000 -0.054568 0.523053 0.000000 1.397128 0.035620 0.000000 -0.057766 0.729770 0.000000 0.993668 0.002013 0.000000 -0.058724 -0.785163 0.000000 1.403475 -0.001378 0.000000 -0.043680 -0.532351 0.000000 1.740602 -0.000685 0.000000 -0.031494 -0.389503 0.000000 1.994438 0.003952 0.000000 -0.014262 -0.301858 0.000000 2.180774 0.008444 0.000000 0.010174 -0.242067 0.000000 2.316662 0.010220 0.000000 0.037999 -0.195825 0.000000 2.416399 0.009358 0.000000 0.064771 -0.156990 0.000000 2.489901 0.006538 0.000000 0.088385 -0.124952 0.000000 2.546176 0.002856 0.000000 0.107983 -0.099175 0.000000 2.590899 0.000110 0.000000 0.123311 -0.077112 0.000000 2.627194 -0.002012 0.000000 0.132878 -0.056288 0.000000 2.657185 -0.004728 0.000000 0.136619 -0.038516 0.000000 2.683111 -0.007516 0.000000 0.136046 -0.024142 0.000000 2.706549 -0.010625 0.000000 0.131105 -0.010310 0.000000 2.729459 -0.014961 0.000000 0.119198 0.004355 0.000000 2.752395 -0.018653 0.000000 0.102159 0.014185 0.000000 2.771160 -0.016861 0.000000 0.088409 0.016117 0.000000 2.778006 -0.009138 0.000000 0.085029 0.015545 0.000000 2.769118 -0.000353 0.000000 0.091089 0.018241 0.000000 2.744994 0.005896 0.000000 0.103395 0.024789 0.000000 2.709149 0.008257 0.000000 0.117477 0.036078 0.000000 2.666703 0.007323 0.000000 0.127861 0.052397 0.000000 2.619901 0.005059 0.000000 0.130765 0.073835 0.000000 2.567795 0.000890 0.000000 0.124411 0.099181 0.000000 2.509815 -0.004298 0.000000 0.109572 0.127892 0.000000 2.444641 -0.010415 0.000000 0.085805 0.161659 0.000000 2.369340 -0.015438 0.000000 0.053812 0.201046 0.000000 2.275787 -0.016853 0.000000 0.016567 0.248174 0.000000 2.151805 -0.013564 0.000000 -0.021409 0.305441 0.000000 1.978261 -0.002206 0.000000 -0.051629 0.372076 0.000000 
1.825796 0.013869 0.000000 0.006160 0.701636 0.000000 1.560701 0.038205 0.000000 -0.004891 0.960888 0.000000 1.227568 0.002813 0.000000 -0.006142 -1.015589 0.000000 1.552809 -0.002008 0.000000 0.002192 -0.715188 0.000000 1.832301 0.006407 0.000000 0.011841 -0.530672 0.000000 2.052665 0.016981 0.000000 0.025423 -0.415350 0.000000 2.223345 0.028494 0.000000 0.042340 -0.337100 0.000000 2.355765 0.038224 0.000000 0.059300 -0.277022 0.000000 2.458706 0.044297 0.000000 0.072543 -0.225473 0.000000 2.536620 0.044882 0.000000 0.081853 -0.181875 0.000000 2.596770 0.040392 0.000000 0.088862 -0.145112 0.000000 2.645090 0.032547 0.000000 0.094711 -0.112190 0.000000 2.684187 0.022572 0.000000 0.098231 -0.080602 0.000000 2.713796 0.010367 0.000000 0.099945 -0.052880 0.000000 2.736531 -0.002277 0.000000 0.101703 -0.029560 0.000000 2.755212 -0.013340 0.000000 0.103078 -0.008769 0.000000 2.771130 -0.021429 0.000000 0.100627 0.009688 0.000000 2.783117 -0.025423 0.000000 0.094740 0.020169 0.000000 2.790769 -0.022340 0.000000 0.090082 0.021204 0.000000 2.792453 -0.012200 0.000000 0.089658 0.018619 0.000000 2.786531 0.000428 0.000000 0.091338 0.019725 0.000000 2.770866 0.009333 0.000000 0.094151 0.026677 0.000000 2.747033 0.011772 0.000000 0.097672 0.041507 0.000000 2.717830 0.008200 0.000000 0.099803 0.065946 0.000000 2.682667 0.000452 0.000000 0.097590 0.100228 0.000000 2.637377 -0.011555 0.000000 0.090446 0.140953 0.000000 2.580873 -0.026176 0.000000 0.080189 0.185797 0.000000 2.513023 -0.041012 0.000000 0.067611 0.234709 0.000000 2.432240 -0.052244 0.000000 0.053202 0.288297 0.000000 2.333561 -0.055606 0.000000 0.037696 0.349304 0.000000 2.209454 -0.047610 0.000000 0.021225 0.423862 0.000000 2.048301 -0.025358 0.000000 0.004974 0.526063 0.000000 
1.907447 0.035366 0.000000 -0.030479 0.788148 0.000000 1.689906 0.046670 0.000000 -0.036044 1.062903 0.000000 1.442627 0.003264 0.000000 -0.037453 -1.110404 0.000000 1.677771 -0.009712 0.000000 -0.027990 -0.811844 0.000000 1.906455 -0.010335 0.000000 -0.016012 -0.609866 0.000000 2.098979 -0.009629 0.000000 0.000401 -0.472538 0.000000 2.252386 -0.008472 0.000000 0.021780 -0.374486 0.000000 2.372226 -0.006741 0.000000 0.045347 -0.298766 0.000000 2.464512 -0.003885 0.000000 0.066709 -0.234904 0.000000 2.531324 -0.002772 0.000000 0.085162 -0.185103 0.000000 2.582031 -0.004153 0.000000 0.101285 -0.147495 0.000000 2.623783 -0.005739 0.000000 0.114506 -0.116210 0.000000 2.658905 -0.005532 0.000000 0.122126 -0.085896 0.000000 2.685120 -0.006442 0.000000 0.125084 -0.061252 0.000000 2.706701 -0.009274 0.000000 0.125372 -0.042823 0.000000 2.727471 -0.011999 0.000000 0.122941 -0.026228 0.000000 2.747643 -0.012510 0.000000 0.115397 -0.007633 0.000000 2.762676 -0.012766 0.000000 0.105507 0.006533 0.000000 2.772479 -0.012203 0.000000 0.098627 0.014434 0.000000 2.776032 -0.008713 0.000000 0.097580 0.021467 0.000000 2.770578 -0.002033 0.000000 0.100095 0.033907 0.000000 2.752044 0.003084 0.000000 0.105587 0.048622 0.000000 2.724027 0.004737 0.000000 0.112977 0.065281 0.000000 2.691096 0.005191 0.000000 0.118691 0.087560 0.000000 2.653737 0.007273 0.000000 0.117401 0.119124 0.000000 2.607939 0.008034 0.000000 0.108312 0.155685 0.000000 2.554518 0.005960 0.000000 0.092998 0.195742 0.000000 2.494384 0.002163 0.000000 0.072607 0.242441 0.000000 2.425247 -0.001030 0.000000 0.048254 0.299725 0.000000 2.341206 -0.001348 0.000000 0.021840 0.372281 0.000000 2.233815 0.002908 0.000000 -0.003733 0.466594 0.000000 2.092640 0.014044 0.000000 -0.023976 0.594582 0.000000 
2.030858 0.020372 0.000000 0.012922 0.919177 0.000000 1.853577 0.043770 0.000000 0.006816 1.208167 0.000000 1.657322 0.004222 0.000000 0.005421 -1.250733 0.000000 1.837351 -0.011472 0.000000 0.011166 -0.943872 0.000000 2.019458 -0.005571 0.000000 0.019141 -0.723196 0.000000 2.180334 0.000568 0.000000 0.030988 -0.568756 0.000000 2.315621 0.007115 0.000000 0.046965 -0.456941 0.000000 2.428013 0.014657 0.000000 0.064312 -0.369308 0.000000 2.519773 0.022935 0.000000 0.076305 -0.292285 0.000000 2.584577 0.026429 0.000000 0.082545 -0.232582 0.000000 2.633656 0.024270 0.000000 0.088412 -0.186864 0.000000 2.676384 0.019325 0.000000 0.095600 -0.147312 0.000000 2.714104 0.014952 0.000000 0.098809 -0.106817 0.000000 2.737919 0.007408 0.000000 0.098205 -0.074462 0.000000 2.754882 -0.002564 0.000000 0.099078 -0.050329 0.000000 2.772080 -0.010910 0.000000 0.102146 -0.028942 0.000000 2.789409 -0.013885 0.000000 0.100911 -0.005344 0.000000 2.796788 -0.015534 0.000000 0.095728 0.010366 0.000000 2.798797 -0.015460 0.000000 0.093259 0.017651 0.000000 2.800175 -0.011154 0.000000 0.095624 0.024073 0.000000 2.799158 -0.002086 0.000000 0.096657 0.038258 0.000000 2.785428 0.003841 0.000000 0.095726 0.054694 0.000000 2.763953 0.004382 0.000000 0.097103 0.074439 0.000000 2.740824 0.002486 0.000000 0.100295 0.103304 0.000000 2.714483 0.001741 0.000000 0.097597 0.146027 0.000000 2.673805 -0.002466 0.000000 0.087518 0.194374 0.000000 2.621156 -0.010862 0.000000 0.074839 0.245931 0.000000 2.560734 -0.020621 0.000000 0.062092 0.303847 0.000000 2.491674 -0.027891 0.000000 0.049776 0.372338 0.000000 2.409916 -0.029191 0.000000 0.037808 0.456694 0.000000 2.310009 -0.022037 0.000000 0.026216 0.565036 0.000000 2.185610 -0.005115 0.000000 0.016298 0.711256 0.000000 
2.127679 0.038742 0.000000 -0.013305 0.965429 0.000000 1.993543 0.052776 0.000000 -0.017759 1.259158 0.000000 1.854534 0.004660 0.000000 -0.019026 -1.290432 0.000000 1.976456 -0.015457 0.000000 -0.013518 -0.993951 0.000000 2.114213 -0.018310 0.000000 -0.003850 -0.770742 0.000000 2.244465 -0.021477 0.000000 0.011126 -0.607826 0.000000 2.358564 -0.024449 0.000000 0.032109 -0.486877 0.000000 2.456098 -0.024088 0.000000 0.055902 -0.390527 0.000000 2.537576 -0.015878 0.000000 0.073401 -0.299708 0.000000 2.588486 -0.009012 0.000000 0.085201 -0.234182 0.000000 2.626862 -0.010020 0.000000 0.097420 -0.190223 0.000000 2.663504 -0.012926 0.000000 0.110884 -0.153929 0.000000 2.698812 -0.008741 0.000000 0.116694 -0.109712 0.000000 2.716958 -0.005838 0.000000 0.116534 -0.078215 0.000000 2.731055 -0.010146 0.000000 0.117156 -0.060021 0.000000 2.749585 -0.015068 0.000000 0.119507 -0.043557 0.000000 2.770922 -0.011275 0.000000 0.114748 -0.015012 0.000000 2.777825 -0.007584 0.000000 0.106216 0.004523 0.000000 2.780009 -0.009734 0.000000 0.102516 0.013056 0.000000 2.783436 -0.011078 0.000000 0.105691 0.022484 0.000000 2.784888 -0.003066 0.000000 0.106417 0.047637 0.000000 2.768119 0.004014 0.000000 0.106003 0.070097 0.000000 2.743946 0.003360 0.000000 0.109639 0.088410 0.000000 2.720738 0.001999 0.000000 0.115695 0.113900 0.000000 2.696518 0.009971 0.000000 0.112147 0.159803 0.000000 2.655742 0.018112 0.000000 0.098778 0.208334 0.000000 2.605991 0.018639 0.000000 0.081394 0.256164 0.000000 2.553262 0.014910 0.000000 0.062794 0.311502 0.000000 2.496113 0.011287 0.000000 0.043698 0.381483 0.000000 2.429769 0.010621 0.000000 0.024727 0.472187 0.000000 2.348814 0.014500 0.000000 0.007273 0.590993 0.000000 2.248616 0.023962 0.000000 -0.006284 0.749334 0.000000 
2.254013 0.027393 0.000000 0.019612 1.053313 0.000000 2.151315 0.048223 0.000000 0.016465 1.347177 0.000000 2.050651 0.005489 0.000000 0.015282 -1.372655 0.000000 2.133421 -0.016980 0.000000 0.017877 -1.081629 0.000000 2.234766 -0.015238 0.000000 0.023125 -0.853447 0.000000 2.336895 -0.014408 0.000000 0.033045 -0.682856 0.000000 2.432790 -0.013868 0.000000 0.050438 -0.554475 0.000000 2.522602 -0.009137 0.000000 0.074609 -0.450786 0.000000 2.607021 0.005435 0.000000 0.088645 -0.343195 0.000000 2.647285 0.014629 0.000000 0.084876 -0.270958 0.000000 2.676952 0.012050 0.000000 0.086184 -0.223507 0.000000 2.713811 0.005862 0.000000 0.099154 -0.182619 0.000000 2.757470 0.009142 0.000000 0.105159 -0.124962 0.000000 2.767727 0.007568 0.000000 0.095871 -0.088560 0.000000 2.772977 -0.003186 0.000000 0.093576 -0.068859 0.000000 2.790156 -0.013260 0.000000 0.103949 -0.050279 0.000000 2.817631 -0.009126 0.000000 0.107012 -0.012248 0.000000 2.814723 -0.007002 0.000000 0.094857 0.008182 0.000000 2.807317 -0.011760 0.000000 0.090755 0.014225 0.000000 2.811486 -0.014329 0.000000 0.100990 0.022620 0.000000 2.824531 -0.002813 0.000000 0.105419 0.055028 0.000000 2.806598 0.004255 0.000000 0.095632 0.078866 0.000000 2.782435 0.000745 0.000000 0.093709 0.097647 0.000000 2.768439 -0.003570 0.000000 0.104442 0.127524 0.000000 2.761255 0.005289 0.000000 0.106051 0.186803 0.000000 2.721351 0.010904 0.000000 0.087842 0.244126 0.000000 2.668675 0.006522 0.000000 0.069333 0.298659 0.000000 2.616884 -0.002020 0.000000 0.055483 0.360996 0.000000 2.563604 -0.008795 0.000000 0.045100 0.438682 0.000000 2.503840 -0.010220 0.000000 0.036500 0.537649 0.000000 2.433571 -0.004584 0.000000 0.028962 0.665235 0.000000 2.350246 0.008442 0.000000 0.022955 0.832193 0.000000 
2.355325 0.042084 0.000000 -0.000079 1.068127 0.000000 2.288612 0.055923 0.000000 -0.002985 1.359822 0.000000 2.230283 0.005843 0.000000 -0.004001 -1.373203 0.000000 2.271528 -0.018052 0.000000 -0.002222 -1.095296 0.000000 2.336554 -0.023557 0.000000 0.003658 -0.872871 0.000000 2.410034 -0.031397 0.000000 0.016019 -0.703721 0.000000 2.484327 -0.041842 0.000000 0.039097 -0.576689 0.000000 2.559165 -0.048260 0.000000 0.072421 -0.474946 0.000000 2.639253 -0.029913 0.000000 0.090077 -0.339971 0.000000 2.657153 -0.005243 0.000000 0.085749 -0.263849 0.000000 2.673974 -0.011328 0.000000 0.091096 -0.227083 0.000000 2.706621 -0.025897 0.000000 0.112911 -0.197588 0.000000 2.754666 -0.014746 0.000000 0.120259 -0.119968 0.000000 2.751208 0.003450 0.000000 0.107985 -0.083465 0.000000 2.751047 -0.007850 0.000000 0.105994 -0.077200 0.000000 2.770969 -0.025441 0.000000 0.120848 -0.071031 0.000000 2.808214 -0.014339 0.000000 0.120724 -0.012103 0.000000 2.796079 0.004572 0.000000 0.103027 0.011929 0.000000 2.786167 -0.005632 0.000000 0.098299 0.008887 0.000000 2.794693 -0.021313 0.000000 0.113525 0.009439 0.000000 2.817330 -0.007495 0.000000 0.116223 0.065569 0.000000 2.789913 0.013801 0.000000 0.103231 0.094260 0.000000 2.762716 0.005283 0.000000 0.102702 0.102406 0.000000 2.753440 -0.008734 0.000000 0.119358 0.121084 0.000000 2.756897 0.008361 0.000000 0.118431 0.199708 0.000000 2.711248 0.036321 0.000000 0.094297 0.261009 0.000000 2.659642 0.037149 0.000000 0.070970 0.307956 0.000000 2.616246 0.028759 0.000000 0.052940 0.364782 0.000000 2.575826 0.021670 0.000000 0.038269 0.441247 0.000000 2.532109 0.019221 0.000000 0.025326 0.542456 0.000000 2.481213 0.022039 0.000000 0.014005 0.674318 0.000000 2.421705 0.029968 0.000000 0.005251 0.845567 0.000000 
2.478630 0.032724 0.000000 0.025567 1.120025 0.000000 2.437083 0.051129 0.000000 0.024362 1.405506 0.000000 2.408265 0.006505 0.000000 0.023475 -1.413901 0.000000 2.419720 -0.018759 0.000000 0.022362 -1.146656 0.000000 2.455426 -0.021118 0.000000 0.022805 -0.926927 0.000000 2.503522 -0.026769 0.000000 0.027569 -0.757148 0.000000 2.559305 -0.036947 0.000000 0.045410 -0.629313 0.000000 2.628334 -0.042460 0.000000 0.090573 -0.530874 0.000000 2.736115 -0.012221 0.000000 0.128287 -0.361095 0.000000 2.717223 0.018957 0.000000 0.083498 -0.287779 0.000000 2.713342 0.006704 0.000000 0.069762 -0.256155 0.000000 2.749170 -0.015953 0.000000 0.103020 -0.230664 0.000000 2.833833 0.001795 0.000000 0.135226 -0.121505 0.000000 2.798322 0.019841 0.000000 0.088129 -0.088399 0.000000 2.778803 -0.001195 0.000000 0.073037 -0.088780 0.000000 2.802548 -0.028113 0.000000 0.105714 -0.087525 0.000000 2.876910 -0.009003 0.000000 0.136552 -0.000112 0.000000 2.832589 0.010695 0.000000 0.087730 0.018094 0.000000 2.803532 -0.007031 0.000000 0.071640 0.005699 0.000000 2.818263 -0.029554 0.000000 0.104364 -0.000017 0.000000 2.882215 -0.005511 0.000000 0.136126 0.082445 0.000000 2.829266 0.017248 0.000000 0.089498 0.106063 0.000000 2.789766 0.001274 0.000000 0.075412 0.106923 0.000000 2.793476 -0.020225 0.000000 0.109233 0.124066 0.000000 2.843574 0.006215 0.000000 0.140838 0.232452 0.000000 2.777536 0.035038 0.000000 0.090050 0.295732 0.000000 2.713895 0.029849 0.000000 0.058613 0.342055 0.000000 2.674244 0.016010 0.000000 0.044625 0.401417 0.000000 2.641692 0.005876 0.000000 0.037972 0.482398 0.000000 2.607360 0.002722 0.000000 0.033646 0.588546 0.000000 2.568277 0.006738 0.000000 0.030081 0.724743 0.000000 2.524470 0.017196 0.000000 0.027284 0.898573 0.000000 
2.578102 0.043801 0.000000 0.010345 1.109673 0.000000 2.566251 0.057129 0.000000 0.009032 1.388640 0.000000 2.570516 0.006730 0.000000 0.008337 -1.384657 0.000000 2.549998 -0.016939 0.000000 0.006018 -1.131002 0.000000 2.555755 -0.024000 0.000000 0.005518 -0.920966 0.000000 2.578273 -0.036161 0.000000 0.009895 -0.759504 0.000000 2.613623 -0.059683 0.000000 0.031830 -0.645718 0.000000 2.668099 -0.093422 0.000000 0.097257 -0.582728 0.000000 2.795486 -0.067627 0.000000 0.144053 -0.321078 0.000000 2.723105 0.039546 0.000000 0.075902 -0.259969 0.000000 2.706484 0.002407 0.000000 0.063671 -0.262911 0.000000 2.743073 -0.059154 0.000000 0.119331 -0.282250 0.000000 2.859141 -0.046953 0.000000 0.156341 -0.084458 0.000000 2.776517 0.050547 0.000000 0.089702 -0.063946 0.000000 2.750840 0.007241 0.000000 0.074232 -0.100945 0.000000 2.782788 -0.058117 0.000000 0.126087 -0.145393 0.000000 2.894665 -0.045177 0.000000 0.156269 0.032217 0.000000 2.805666 0.053394 0.000000 0.088201 0.040986 0.000000 2.773055 0.010458 0.000000 0.070923 -0.005844 0.000000 2.798793 -0.054037 0.000000 0.122239 -0.054512 0.000000 2.901525 -0.039257 0.000000 0.152601 0.118518 0.000000 2.804531 0.060428 0.000000 0.089857 0.133760 0.000000 2.762153 0.019369 0.000000 0.075955 0.098696 0.000000 2.779578 -0.042555 0.000000 0.128279 0.070986 0.000000 2.871569 -0.023243 0.000000 0.156263 0.265745 0.000000 2.766113 0.087108 0.000000 0.091071 0.324650 0.000000 2.703184 0.068586 0.000000 0.054634 0.347607 0.000000 2.676152 0.042748 0.000000 0.038887 0.397334 0.000000 2.658637 0.028322 0.000000 0.030453 0.475578 0.000000 2.640692 0.023547 0.000000 0.023855 0.581539 0.000000 2.620190 0.025604 0.000000 0.017983 0.718125 0.000000 2.598179 0.032765 0.000000 0.013301 0.891408 0.000000 
2.694835 0.035679 0.000000 0.030988 1.131876 0.000000 2.703289 0.052442 0.000000 0.031505 1.401241 0.000000 2.730697 0.007201 0.000000 0.030970 -1.393383 0.000000 2.686649 -0.016440 0.000000 0.026257 -1.152412 0.000000 2.667652 -0.020619 0.000000 0.019539 -0.949446 0.000000 2.664535 -0.031146 0.000000 0.010232 -0.792498 0.000000 2.674026 -0.058881 0.000000 0.008333 -0.683788 0.000000 2.714649 -0.107887 0.000000 0.078354 -0.658261 0.000000 2.983351 -0.059017 0.000000 0.287055 -0.288714 0.000000 2.758293 0.087108 0.000000 0.046632 -0.271158 0.000000 2.710588 0.018935 0.000000 0.000552 -0.292743 0.000000 2.752592 -0.071614 0.000000 0.071128 -0.346731 0.000000 3.031092 -0.035215 0.000000 0.283265 -0.038881 0.000000 2.795690 0.086480 0.000000 0.046254 -0.062722 0.000000 2.740349 0.014275 0.000000 0.000602 -0.120728 0.000000 2.779575 -0.079968 0.000000 0.071524 -0.199402 0.000000 3.060283 -0.039185 0.000000 0.285088 0.088888 0.000000 2.816105 0.078763 0.000000 0.046827 0.050704 0.000000 2.754043 0.010247 0.000000 0.000523 -0.020039 0.000000 2.789688 -0.080870 0.000000 0.070578 -0.102749 0.000000 3.065669 -0.035873 0.000000 0.283909 0.179439 0.000000 2.818266 0.079991 0.000000 0.050713 0.148441 0.000000 2.751053 0.015176 0.000000 0.007005 0.089498 0.000000 2.784236 -0.072549 0.000000 0.077095 0.032075 0.000000 3.056696 -0.021769 0.000000 0.293549 0.337908 0.000000 2.811562 0.100230 0.000000 0.071242 0.358660 0.000000 2.734660 0.066286 0.000000 0.027711 0.369088 0.000000 2.725778 0.031758 0.000000 0.025169 0.418932 0.000000 2.721835 0.014309 0.000000 0.027962 0.500343 0.000000 2.714855 0.009320 0.000000 0.029820 0.609048 0.000000 2.705905 0.012610 0.000000 0.030476 0.746754 0.000000 2.697816 0.021878 0.000000 0.030677 0.918650 0.000000 
2.788736 0.043490 0.000000 0.019189 1.101220 0.000000 2.821702 0.056611 0.000000 0.019755 1.361231 0.000000 2.875725 0.007264 0.000000 0.019429 -1.340609 0.000000 2.805575 -0.012226 0.000000 0.013892 -1.112005 0.000000 2.760799 -0.017282 0.000000 0.005328 -0.917849 0.000000 2.733593 -0.026854 0.000000 -0.010107 -0.768996 0.000000 2.722285 -0.057784 0.000000 -0.028326 -0.686341 0.000000 2.749632 -0.163442 0.000000 0.043038 -0.851430 0.000000 2.971556 -0.276329 0.000000 0.225620 -0.096020 0.000000 2.715369 0.279969 0.000000 -0.010568 -0.212263 0.000000 2.687343 0.048488 0.000000 -0.040086 -0.304914 0.000000 2.735798 -0.129731 0.000000 0.057657 -0.560750 0.000000 3.014493 -0.259089 0.000000 0.266701 0.150944 0.000000 2.720999 0.287558 0.000000 0.006804 -0.008605 0.000000 2.692257 0.052894 0.000000 -0.029956 -0.140171 0.000000 2.744557 -0.129040 0.000000 0.071381 -0.426101 0.000000 3.048676 -0.258741 0.000000 0.289630 0.276395 0.000000 2.731468 0.291655 0.000000 0.012842 0.103048 0.000000 2.699691 0.056761 0.000000 -0.028033 -0.041489 0.000000 2.751259 -0.124091 0.000000 0.075500 -0.330493 0.000000 3.065933 -0.252589 0.000000 0.302727 0.365921 0.000000 2.734504 0.293625 0.000000 0.021354 0.200974 0.000000 2.698752 0.063078 0.000000 -0.017582 0.065513 0.000000 2.750777 -0.112646 0.000000 0.091618 -0.201474 0.000000 3.086158 -0.239697 0.000000 0.339366 0.510879 0.000000 2.746508 0.309415 0.000000 0.054896 0.401552 0.000000 2.711630 0.112117 0.000000 0.013606 0.356489 0.000000 2.729257 0.045290 0.000000 0.015861 0.401277 0.000000 2.742676 0.025529 0.000000 0.020153 0.482558 0.000000 2.751165 0.021689 0.000000 0.021423 0.590489 0.000000 2.758879 0.024948 0.000000 0.020753 0.726214 0.000000 2.769851 0.032565 0.000000 0.019677 0.894389 0.000000 