# vtk DataFile Version 2.0
Comment goes here
ASCII

DATASET STRUCTURED_POINTS
FIELD FieldData 1
TIME 1 1 double
0.02100000
DIMENSIONS    64   64   1

ORIGIN    0.000   0.000   0.000
SPACING   0.03125 0.03125   1.000

POINT_DATA   4096
VECTORS u double

0.242668 0.000584 0.000000 -0.722843 -0.001536 0.000000 0.485918 0.002087 0.000000 -0.827607 -0.001148 0.000000 0.526858 -0.001986 0.000000 -0.840002 -0.001595 0.000000 0.523352 0.002407 0.000000 -0.781393 -0.001870 0.000000 0.450908 0.002024 0.000000 -0.654113 -0.002066 0.000000 0.315776 0.001889 0.000000 -0.473233 -0.002128 0.000000 0.135863 0.001753 0.000000 -0.266938 -0.002020 0.000000 -0.049174 0.001592 0.000000 -0.081689 -0.001783 0.000000 -0.197476 0.001513 0.000000 0.054277 -0.001438 0.000000 -0.294051 0.001286 0.000000 0.131276 -0.001296 0.000000 -0.334018 0.001221 0.000000 0.156024 -0.001141 0.000000 -0.336224 0.001220 0.000000 0.156909 -0.001046 0.000000 -0.326001 0.001061 0.000000 0.141565 -0.000622 0.000000 -0.292945 0.000825 0.000000 0.096043 -0.000545 0.000000 -0.237477 0.000797 0.000000 0.046899 -0.000509 0.000000 -0.204792 0.000722 0.000000 0.035700 -0.000339 0.000000 -0.216864 0.000566 0.000000 0.066410 -0.000175 0.000000 -0.262560 0.000313 0.000000 0.116249 0.000085 0.000000 -0.310371 0.000148 0.000000 0.150984 0.000306 0.000000 -0.331156 -0.000258 0.000000 0.148542 0.000868 0.000000 -0.305702 -0.000914 0.000000 0.098776 0.001347 0.000000 -0.241146 -0.001032 0.000000 0.021455 0.001497 0.000000 -0.169060 -0.001105 0.000000 -0.043445 0.001520 0.000000 -0.131258 -0.001019 0.000000 -0.055243 0.001699 0.000000 -0.163731 -0.000934 0.000000 0.006765 0.001522 0.000000 -0.260422 -0.001083 0.000000 0.110625 0.001957 0.000000 -0.370883 -0.001380 0.000000 0.192510 0.002180 0.000000 -0.425029 -0.001638 0.000000 0.193592 0.002338 0.000000 -0.392756 -0.001921 0.000000 0.112353 0.002473 0.000000 -0.290854 -0.002158 0.000000 -0.038008 0.002483 0.000000 -0.121762 -0.002129 0.000000 -0.251022 0.002214 0.000000 0.095210 -0.001860 0.000000 -0.485466 0.001565 0.000000 
-0.058452 0.117077 0.000000 0.230045 -0.122832 0.000000 -0.308036 0.053383 0.000000 0.307699 -0.022370 0.000000 -0.319465 0.010967 0.000000 0.309837 -0.000199 0.000000 -0.331935 -0.028093 0.000000 0.276199 0.034307 0.000000 -0.312057 -0.061965 0.000000 0.207353 0.065691 0.000000 -0.259267 -0.088560 0.000000 0.111974 0.088085 0.000000 -0.181502 -0.101219 0.000000 0.002516 0.090675 0.000000 -0.098793 -0.090767 0.000000 -0.095336 0.072356 0.000000 -0.033525 -0.066252 0.000000 -0.167804 0.046451 0.000000 0.008272 -0.036832 0.000000 -0.210818 0.018263 0.000000 0.022342 -0.010920 0.000000 -0.225655 -0.000368 0.000000 0.018546 0.000744 0.000000 -0.229291 -0.006444 0.000000 0.011924 0.008756 0.000000 -0.224862 -0.017856 0.000000 -0.007594 0.023719 0.000000 -0.199613 -0.028842 0.000000 -0.043186 0.025290 0.000000 -0.169309 -0.017208 0.000000 -0.065958 0.006087 0.000000 -0.160410 0.005329 0.000000 -0.063722 -0.015015 0.000000 -0.174079 0.022327 0.000000 -0.042692 -0.024780 0.000000 -0.197709 0.023642 0.000000 -0.021728 -0.017638 0.000000 -0.211099 0.010636 0.000000 -0.015419 0.000417 0.000000 -0.204960 -0.011937 0.000000 -0.033146 0.023555 0.000000 -0.173948 -0.031255 0.000000 -0.070083 0.037337 0.000000 -0.129953 -0.035065 0.000000 -0.107665 0.031105 0.000000 -0.094495 -0.017832 0.000000 -0.124878 0.004447 0.000000 -0.089543 0.017322 0.000000 -0.099480 -0.032526 0.000000 -0.127712 0.049687 0.000000 -0.035792 -0.053851 0.000000 -0.190023 0.056908 0.000000 0.037310 -0.043182 0.000000 -0.240722 0.029058 0.000000 0.080885 -0.002986 0.000000 -0.247027 -0.013933 0.000000 0.080556 0.038051 0.000000 -0.213267 -0.048611 0.000000 0.049936 0.072603 0.000000 -0.147733 -0.082126 0.000000 -0.010480 0.103835 0.000000 -0.052495 -0.105836 0.000000 -0.088339 0.114330 0.000000 0.039804 -0.070987 0.000000 
0.619434 -0.189657 0.000000 0.359239 0.248049 0.000000 0.285738 -0.075567 0.000000 0.429480 0.010282 0.000000 0.215600 -0.004124 0.000000 0.442751 0.010874 0.000000 0.279161 0.036045 0.000000 0.398069 -0.021747 0.000000 0.400033 0.070870 0.000000 0.311796 -0.054856 0.000000 0.552288 0.097269 0.000000 0.194825 -0.079893 0.000000 0.723042 0.111211 0.000000 0.064153 -0.084729 0.000000 0.887474 0.099444 0.000000 -0.048697 -0.067051 0.000000 1.017834 0.073980 0.000000 -0.127334 -0.043234 0.000000 1.106843 0.044300 0.000000 -0.167464 -0.015366 0.000000 1.152083 0.016058 0.000000 -0.174011 0.002655 0.000000 1.168471 0.004855 0.000000 -0.169686 0.005576 0.000000 1.176279 -0.003367 0.000000 -0.158262 0.018896 0.000000 1.164012 -0.024424 0.000000 -0.123642 0.035047 0.000000 1.129590 -0.029507 0.000000 -0.085045 0.022262 0.000000 1.109670 -0.008177 0.000000 -0.075011 -0.002575 0.000000 1.120429 0.014235 0.000000 -0.095325 -0.021206 0.000000 1.153679 0.023943 0.000000 -0.129362 -0.020878 0.000000 1.185997 0.013538 0.000000 -0.151869 -0.006004 0.000000 1.198014 -0.006397 0.000000 -0.148893 0.018595 0.000000 1.176022 -0.031926 0.000000 -0.112855 0.038285 0.000000 1.124616 -0.045027 0.000000 -0.058194 0.039078 0.000000 1.066294 -0.036563 0.000000 -0.013238 0.018733 0.000000 1.029766 -0.005971 0.000000 -0.007506 -0.023700 0.000000 1.042272 0.037236 0.000000 -0.058000 -0.062165 0.000000 1.099518 0.061228 0.000000 -0.141664 -0.071145 0.000000 1.164451 0.049319 0.000000 -0.211475 -0.041395 0.000000 1.186029 0.004667 0.000000 -0.224037 0.002666 0.000000 1.144060 -0.035681 0.000000 -0.182756 0.033093 0.000000 1.053300 -0.067692 0.000000 -0.097922 0.062900 0.000000 0.911174 -0.097367 0.000000 0.029702 0.080072 0.000000 0.728443 -0.094159 0.000000 0.173405 -0.028322 0.000000 
0.886722 -0.068757 0.000000 -0.091212 0.210863 0.000000 0.741397 -0.016858 0.000000 -0.121951 0.047768 0.000000 0.260298 -0.002303 0.000000 -0.126521 -0.063760 0.000000 0.734856 0.016589 0.000000 -0.101995 -0.086566 0.000000 1.028197 0.024308 0.000000 -0.070418 -0.086564 0.000000 1.219316 0.028411 0.000000 -0.031698 -0.082669 0.000000 1.345250 0.029453 0.000000 0.011732 -0.073756 0.000000 1.432905 0.022083 0.000000 0.047086 -0.058004 0.000000 1.503374 0.012385 0.000000 0.069721 -0.042557 0.000000 1.563263 0.003298 0.000000 0.079552 -0.026976 0.000000 1.619475 -0.004374 0.000000 0.077703 -0.016756 0.000000 1.669302 -0.003581 0.000000 0.075880 -0.014253 0.000000 1.705169 -0.002667 0.000000 0.074458 -0.005589 0.000000 1.738720 -0.010901 0.000000 0.061004 0.005580 0.000000 1.776733 -0.013306 0.000000 0.044398 0.002712 0.000000 1.801839 -0.003947 0.000000 0.041209 -0.005430 0.000000 1.808247 0.005299 0.000000 0.050741 -0.010922 0.000000 1.800015 0.009257 0.000000 0.065857 -0.008676 0.000000 1.788430 0.004869 0.000000 0.075304 -0.001382 0.000000 1.780763 -0.002558 0.000000 0.074984 0.010056 0.000000 1.782507 -0.012484 0.000000 0.060348 0.020151 0.000000 1.791173 -0.017324 0.000000 0.037520 0.023257 0.000000 1.796825 -0.013851 0.000000 0.017295 0.018696 0.000000 1.788763 -0.001284 0.000000 0.011344 0.004816 0.000000 1.752110 0.017967 0.000000 0.028407 -0.007558 0.000000 1.686412 0.029813 0.000000 0.058700 -0.008026 0.000000 1.605513 0.026629 0.000000 0.083798 0.007480 0.000000 1.528715 0.009576 0.000000 0.086445 0.028036 0.000000 1.458548 -0.003230 0.000000 0.074124 0.042149 0.000000 1.378696 -0.012231 0.000000 0.052798 0.060001 0.000000 1.285054 -0.023789 0.000000 0.020884 0.076896 0.000000 1.163857 -0.029374 0.000000 0.004104 0.038022 0.000000 
1.050281 -0.094341 0.000000 -0.037595 0.393373 0.000000 0.882041 -0.044828 0.000000 -0.045133 0.491380 0.000000 0.440173 0.000447 0.000000 -0.048070 -0.463684 0.000000 0.869486 0.011518 0.000000 -0.030667 -0.315088 0.000000 1.127908 0.039293 0.000000 -0.013051 -0.245976 0.000000 1.303713 0.058549 0.000000 0.004825 -0.205826 0.000000 1.429518 0.067781 0.000000 0.023119 -0.172385 0.000000 1.523360 0.064090 0.000000 0.036879 -0.137519 0.000000 1.597897 0.051345 0.000000 0.045060 -0.103124 0.000000 1.657562 0.034469 0.000000 0.048453 -0.071578 0.000000 1.707737 0.017908 0.000000 0.047877 -0.047172 0.000000 1.749187 0.006679 0.000000 0.049194 -0.030291 0.000000 1.779021 -0.001945 0.000000 0.051775 -0.014656 0.000000 1.803986 -0.010970 0.000000 0.048226 -0.002966 0.000000 1.829011 -0.012900 0.000000 0.042537 -0.002844 0.000000 1.846394 -0.004989 0.000000 0.042477 -0.008983 0.000000 1.853915 0.004703 0.000000 0.047035 -0.012974 0.000000 1.853165 0.008828 0.000000 0.053370 -0.009293 0.000000 1.849309 0.004091 0.000000 0.057121 0.001663 0.000000 1.845112 -0.006077 0.000000 0.057161 0.016851 0.000000 1.842611 -0.017290 0.000000 0.050907 0.029619 0.000000 1.840402 -0.022200 0.000000 0.040816 0.033426 0.000000 1.834738 -0.016338 0.000000 0.031120 0.026795 0.000000 1.821745 -0.000020 0.000000 0.026315 0.012953 0.000000 1.794150 0.020173 0.000000 0.030447 0.003533 0.000000 1.750290 0.030935 0.000000 0.039723 0.009754 0.000000 1.694976 0.024222 0.000000 0.046871 0.035403 0.000000 1.635620 0.002019 0.000000 0.044896 0.072833 0.000000 1.571332 -0.023360 0.000000 0.038998 0.112945 0.000000 1.492011 -0.046366 0.000000 0.032219 0.156542 0.000000 1.394579 -0.065453 0.000000 0.021868 0.201269 0.000000 1.269937 -0.077379 0.000000 0.011814 0.248814 0.000000 
1.038366 -0.019348 0.000000 -0.066349 0.379104 0.000000 0.863685 -0.009321 0.000000 -0.088041 0.489636 0.000000 0.601241 0.000634 0.000000 -0.088875 -0.493073 0.000000 0.879115 -0.000815 0.000000 -0.073155 -0.344988 0.000000 1.102289 0.006693 0.000000 -0.050175 -0.262369 0.000000 1.266716 0.010534 0.000000 -0.021934 -0.208474 0.000000 1.385881 0.011159 0.000000 0.008486 -0.167599 0.000000 1.474385 0.008323 0.000000 0.035117 -0.132541 0.000000 1.543937 0.004203 0.000000 0.054043 -0.102222 0.000000 1.600774 -0.000095 0.000000 0.064564 -0.077152 0.000000 1.649900 -0.003797 0.000000 0.068260 -0.058206 0.000000 1.692420 -0.004898 0.000000 0.068881 -0.044086 0.000000 1.727254 -0.005249 0.000000 0.066843 -0.030554 0.000000 1.757042 -0.007352 0.000000 0.060418 -0.019445 0.000000 1.783650 -0.007617 0.000000 0.053653 -0.014671 0.000000 1.802609 -0.003887 0.000000 0.052210 -0.012952 0.000000 1.811205 0.000741 0.000000 0.056159 -0.010171 0.000000 1.810589 0.002922 0.000000 0.062409 -0.004820 0.000000 1.806091 0.001118 0.000000 0.066526 0.002815 0.000000 1.802312 -0.002599 0.000000 0.065522 0.012556 0.000000 1.801210 -0.006229 0.000000 0.057586 0.022360 0.000000 1.800529 -0.007233 0.000000 0.045710 0.028921 0.000000 1.795593 -0.004155 0.000000 0.035779 0.031690 0.000000 1.780511 0.003521 0.000000 0.033265 0.032410 0.000000 1.748789 0.013836 0.000000 0.040238 0.036303 0.000000 1.699209 0.020537 0.000000 0.052339 0.047288 0.000000 1.637645 0.019481 0.000000 0.061782 0.066836 0.000000 1.571841 0.011552 0.000000 0.061818 0.092324 0.000000 1.503133 0.002668 0.000000 0.052763 0.121469 0.000000 1.425427 -0.005452 0.000000 0.036309 0.157433 0.000000 1.331992 -0.013437 0.000000 0.013059 0.201538 0.000000 1.210204 -0.019320 0.000000 -0.015875 0.257678 0.000000 
1.176179 -0.043868 0.000000 -0.015807 0.568054 0.000000 1.007641 -0.023136 0.000000 -0.028637 0.753825 0.000000 0.764994 0.001280 0.000000 -0.029390 -0.741558 0.000000 1.008228 -0.004202 0.000000 -0.019812 -0.538262 0.000000 1.204564 0.016314 0.000000 -0.007644 -0.410403 0.000000 1.354232 0.030307 0.000000 0.006342 -0.324991 0.000000 1.468516 0.037361 0.000000 0.020926 -0.260889 0.000000 1.557385 0.037459 0.000000 0.033303 -0.207070 0.000000 1.627627 0.032419 0.000000 0.041272 -0.159961 0.000000 1.682291 0.023948 0.000000 0.045178 -0.120704 0.000000 1.726542 0.014212 0.000000 0.047113 -0.089692 0.000000 1.763279 0.006058 0.000000 0.049060 -0.065125 0.000000 1.792494 0.000092 0.000000 0.049858 -0.044444 0.000000 1.814990 -0.004546 0.000000 0.048087 -0.029574 0.000000 1.833758 -0.006135 0.000000 0.046320 -0.021803 0.000000 1.848163 -0.003546 0.000000 0.047109 -0.017579 0.000000 1.856717 0.000755 0.000000 0.049265 -0.012358 0.000000 1.858467 0.002578 0.000000 0.051552 -0.004796 0.000000 1.856904 -0.000027 0.000000 0.053271 0.005443 0.000000 1.854849 -0.005073 0.000000 0.053377 0.017953 0.000000 1.852445 -0.009355 0.000000 0.049883 0.030299 0.000000 1.847046 -0.010324 0.000000 0.043941 0.038363 0.000000 1.837726 -0.006407 0.000000 0.038843 0.041877 0.000000 1.822823 0.002494 0.000000 0.036690 0.044675 0.000000 1.798355 0.013200 0.000000 0.037160 0.053113 0.000000 1.761351 0.018834 0.000000 0.038399 0.071318 0.000000 1.714480 0.014778 0.000000 0.038447 0.101206 0.000000 1.661232 0.001983 0.000000 0.035439 0.141541 0.000000 1.601007 -0.014305 0.000000 0.030268 0.190652 0.000000 1.529156 -0.029912 0.000000 0.023502 0.249976 0.000000 1.440793 -0.042203 0.000000 0.014024 0.323056 0.000000 1.327661 -0.048445 0.000000 0.000856 0.420652 0.000000 
1.193906 -0.002685 0.000000 -0.041167 0.547641 0.000000 1.064878 0.003510 0.000000 -0.058185 0.732283 0.000000 0.914392 0.001386 0.000000 -0.058827 -0.736307 0.000000 1.073086 -0.010392 0.000000 -0.050381 -0.541324 0.000000 1.223154 -0.005476 0.000000 -0.034676 -0.412037 0.000000 1.347982 -0.003451 0.000000 -0.013874 -0.322758 0.000000 1.447484 -0.003424 0.000000 0.009323 -0.256467 0.000000 1.526694 -0.004054 0.000000 0.030745 -0.202784 0.000000 1.590118 -0.003767 0.000000 0.046275 -0.156886 0.000000 1.639556 -0.004000 0.000000 0.055459 -0.121403 0.000000 1.680790 -0.005732 0.000000 0.060615 -0.094944 0.000000 1.717044 -0.006845 0.000000 0.063311 -0.073300 0.000000 1.747944 -0.006047 0.000000 0.062586 -0.053050 0.000000 1.771862 -0.005581 0.000000 0.059082 -0.038213 0.000000 1.791416 -0.005850 0.000000 0.056332 -0.029076 0.000000 1.806864 -0.004676 0.000000 0.056506 -0.021506 0.000000 1.816358 -0.001414 0.000000 0.058020 -0.011921 0.000000 1.817991 0.000634 0.000000 0.059756 -0.003257 0.000000 1.816207 -0.000601 0.000000 0.061303 0.004870 0.000000 1.814791 -0.002705 0.000000 0.061062 0.014961 0.000000 1.813579 -0.002735 0.000000 0.056626 0.027759 0.000000 1.808704 -0.001292 0.000000 0.049705 0.038241 0.000000 1.799391 0.000944 0.000000 0.044703 0.046592 0.000000 1.783704 0.005673 0.000000 0.043904 0.056879 0.000000 1.757469 0.013366 0.000000 0.045710 0.073306 0.000000 1.717329 0.019297 0.000000 0.047821 0.094159 0.000000 1.667261 0.019433 0.000000 0.048216 0.120084 0.000000 1.612017 0.014560 0.000000 0.044582 0.152549 0.000000 1.552508 0.007840 0.000000 0.036125 0.193320 0.000000 1.485770 0.001314 0.000000 0.022862 0.245796 0.000000 1.407277 -0.003959 0.000000 0.004905 0.314670 0.000000 1.311212 -0.006152 0.000000 -0.017306 0.409160 0.000000 
1.318521 -0.020006 0.000000 -0.008764 0.697081 0.000000 1.199395 -0.006118 0.000000 -0.016941 0.904311 0.000000 1.063358 0.001922 0.000000 -0.017576 -0.900251 0.000000 1.199311 -0.012647 0.000000 -0.012043 -0.688329 0.000000 1.329154 0.000608 0.000000 -0.003469 -0.535232 0.000000 1.440398 0.009506 0.000000 0.007870 -0.424494 0.000000 1.532928 0.014164 0.000000 0.021348 -0.340099 0.000000 1.609943 0.016037 0.000000 0.034427 -0.270495 0.000000 1.672667 0.016889 0.000000 0.041993 -0.209398 0.000000 1.717179 0.014764 0.000000 0.044151 -0.161938 0.000000 1.752728 0.009055 0.000000 0.046370 -0.125946 0.000000 1.784854 0.003362 0.000000 0.050055 -0.096025 0.000000 1.812563 0.000818 0.000000 0.050758 -0.068361 0.000000 1.829584 -0.001042 0.000000 0.048105 -0.049128 0.000000 1.842826 -0.003385 0.000000 0.047503 -0.037252 0.000000 1.855821 -0.003720 0.000000 0.050262 -0.027072 0.000000 1.866247 -0.000759 0.000000 0.051513 -0.013991 0.000000 1.866953 0.000842 0.000000 0.050407 -0.003012 0.000000 1.864990 -0.001575 0.000000 0.050979 0.006859 0.000000 1.865057 -0.004831 0.000000 0.053055 0.019165 0.000000 1.865271 -0.004918 0.000000 0.051386 0.035174 0.000000 1.857485 -0.003403 0.000000 0.046195 0.047675 0.000000 1.846227 -0.001405 0.000000 0.043357 0.057564 0.000000 1.833468 0.003292 0.000000 0.044038 0.070910 0.000000 1.815036 0.011395 0.000000 0.042996 0.093252 0.000000 1.782240 0.016723 0.000000 0.038302 0.121386 0.000000 1.740475 0.014384 0.000000 0.033056 0.156451 0.000000 1.693999 0.005617 0.000000 0.027944 0.201049 0.000000 1.642454 -0.005848 0.000000 0.022687 0.257390 0.000000 1.582810 -0.016650 0.000000 0.016683 0.328470 0.000000 1.511411 -0.024246 0.000000 0.009156 0.419121 0.000000 1.424193 -0.026234 0.000000 0.000062 0.537959 0.000000 
1.358038 0.006141 0.000000 -0.028081 0.666767 0.000000 1.279168 0.011687 0.000000 -0.038817 0.868320 0.000000 1.200945 0.002022 0.000000 -0.039401 -0.872260 0.000000 1.282126 -0.015925 0.000000 -0.034721 -0.671167 0.000000 1.371461 -0.014049 0.000000 -0.023941 -0.523281 0.000000 1.455409 -0.014790 0.000000 -0.007879 -0.415289 0.000000 1.529800 -0.016902 0.000000 0.012181 -0.333481 0.000000 1.594980 -0.017133 0.000000 0.032502 -0.265508 0.000000 1.650038 -0.011333 0.000000 0.045307 -0.201398 0.000000 1.686301 -0.006159 0.000000 0.050559 -0.156952 0.000000 1.716578 -0.007951 0.000000 0.055358 -0.127070 0.000000 1.747048 -0.010530 0.000000 0.061062 -0.101009 0.000000 1.775452 -0.006750 0.000000 0.061371 -0.070071 0.000000 1.790868 -0.002928 0.000000 0.057134 -0.051455 0.000000 1.803297 -0.005248 0.000000 0.056011 -0.042071 0.000000 1.817231 -0.007435 0.000000 0.059322 -0.031932 0.000000 1.829350 -0.002665 0.000000 0.059899 -0.012628 0.000000 1.828704 0.001740 0.000000 0.057446 -0.001294 0.000000 1.826027 -0.001173 0.000000 0.057812 0.004803 0.000000 1.827293 -0.004780 0.000000 0.060615 0.014748 0.000000 1.829641 -0.001066 0.000000 0.058269 0.035544 0.000000 1.821132 0.003899 0.000000 0.051761 0.049499 0.000000 1.809463 0.003782 0.000000 0.049132 0.059350 0.000000 1.797493 0.004992 0.000000 0.051499 0.075311 0.000000 1.780067 0.014408 0.000000 0.050832 0.106103 0.000000 1.745321 0.023991 0.000000 0.045112 0.135924 0.000000 1.702176 0.024678 0.000000 0.038744 0.166561 0.000000 1.656702 0.019672 0.000000 0.032127 0.204094 0.000000 1.609359 0.013097 0.000000 0.024093 0.252964 0.000000 1.557997 0.007317 0.000000 0.013709 0.317195 0.000000 1.499972 0.003568 0.000000 0.000739 0.401887 0.000000 1.433204 0.002942 0.000000 -0.014026 0.514833 0.000000 
1.472396 -0.005951 0.000000 -0.004943 0.775951 0.000000 1.402815 0.004618 0.000000 -0.009630 0.982534 0.000000 1.336014 0.002506 0.000000 -0.010180 -0.981433 0.000000 1.400903 -0.017327 0.000000 -0.007560 -0.777664 0.000000 1.474636 -0.010171 0.000000 -0.001988 -0.619180 0.000000 1.546449 -0.006556 0.000000 0.007420 -0.498884 0.000000 1.613551 -0.005896 0.000000 0.022196 -0.405280 0.000000 1.677292 -0.004284 0.000000 0.040999 -0.325552 0.000000 1.735686 0.004084 0.000000 0.048989 -0.245661 0.000000 1.760712 0.009512 0.000000 0.043420 -0.192215 0.000000 1.782378 0.004257 0.000000 0.044002 -0.156416 0.000000 1.811196 -0.002343 0.000000 0.053626 -0.124429 0.000000 1.843218 0.000508 0.000000 0.055688 -0.083776 0.000000 1.847608 0.003196 0.000000 0.046362 -0.061557 0.000000 1.852160 -0.002262 0.000000 0.045105 -0.051186 0.000000 1.866434 -0.007031 0.000000 0.054395 -0.039191 0.000000 1.885484 -0.001336 0.000000 0.056720 -0.013346 0.000000 1.877746 0.003295 0.000000 0.047854 -0.000334 0.000000 1.871051 -0.001941 0.000000 0.046952 0.005592 0.000000 1.875528 -0.007635 0.000000 0.055891 0.016817 0.000000 1.886160 -0.002572 0.000000 0.056918 0.043683 0.000000 1.871020 0.003104 0.000000 0.046276 0.059345 0.000000 1.856168 0.001225 0.000000 0.043989 0.069534 0.000000 1.850135 0.000925 0.000000 0.052322 0.088336 0.000000 1.846230 0.012062 0.000000 0.052779 0.127999 0.000000 1.811784 0.022442 0.000000 0.038934 0.164531 0.000000 1.771049 0.020752 0.000000 0.027486 0.201925 0.000000 1.731815 0.012234 0.000000 0.020401 0.248393 0.000000 1.691937 0.002186 0.000000 0.015559 0.308752 0.000000 1.647980 -0.006266 0.000000 0.011087 0.386494 0.000000 1.597346 -0.011275 0.000000 0.006010 0.485889 0.000000 1.538602 -0.011469 0.000000 0.000363 0.613125 0.000000 
1.523266 0.011446 0.000000 -0.019657 0.736348 0.000000 1.487613 0.016374 0.000000 -0.026223 0.935120 0.000000 1.461769 0.002572 0.000000 -0.026692 -0.937149 0.000000 1.487289 -0.018545 0.000000 -0.024922 -0.744900 0.000000 1.527668 -0.019621 0.000000 -0.018320 -0.595094 0.000000 1.573827 -0.024199 0.000000 -0.005845 -0.482390 0.000000 1.622367 -0.031678 0.000000 0.014586 -0.397223 0.000000 1.674309 -0.035935 0.000000 0.041684 -0.323902 0.000000 1.728128 -0.019323 0.000000 0.053082 -0.226424 0.000000 1.738645 -0.000590 0.000000 0.046319 -0.178617 0.000000 1.752326 -0.008533 0.000000 0.048808 -0.155888 0.000000 1.779715 -0.020154 0.000000 0.063626 -0.133032 0.000000 1.815623 -0.008813 0.000000 0.065634 -0.074461 0.000000 1.812333 0.006398 0.000000 0.052330 -0.056007 0.000000 1.813728 -0.003991 0.000000 0.050908 -0.056345 0.000000 1.830043 -0.016725 0.000000 0.064164 -0.050982 0.000000 1.855036 -0.004990 0.000000 0.065671 -0.004890 0.000000 1.840911 0.010606 0.000000 0.052636 0.005401 0.000000 1.831918 -0.000272 0.000000 0.051579 0.000326 0.000000 1.839331 -0.013719 0.000000 0.064518 0.004115 0.000000 1.856649 -0.002093 0.000000 0.064771 0.050685 0.000000 1.836109 0.014540 0.000000 0.050182 0.064352 0.000000 1.819700 0.006070 0.000000 0.048164 0.065383 0.000000 1.817244 -0.003341 0.000000 0.061113 0.079216 0.000000 1.820329 0.013951 0.000000 0.061421 0.140549 0.000000 1.781203 0.037837 0.000000 0.043356 0.176659 0.000000 1.739218 0.036125 0.000000 0.029571 0.205795 0.000000 1.703277 0.026757 0.000000 0.021008 0.243972 0.000000 1.670238 0.017939 0.000000 0.014250 0.296921 0.000000 1.636706 0.011790 0.000000 0.006961 0.367829 0.000000 1.600851 0.008645 0.000000 -0.001618 0.460632 0.000000 1.562440 0.008589 0.000000 -0.010977 0.581039 0.000000 
1.627872 0.002729 0.000000 -0.002401 0.811603 0.000000 1.600263 0.011184 0.000000 -0.005143 1.008379 0.000000 1.583563 0.002975 0.000000 -0.005560 -1.006952 0.000000 1.596497 -0.019097 0.000000 -0.005919 -0.818043 0.000000 1.624021 -0.016773 0.000000 -0.004290 -0.665339 0.000000 1.658506 -0.019031 0.000000 0.001563 -0.547424 0.000000 1.698656 -0.026328 0.000000 0.018491 -0.457223 0.000000 1.751706 -0.031382 0.000000 0.056909 -0.379371 0.000000 1.831254 -0.007314 0.000000 0.072457 -0.256178 0.000000 1.806589 0.016275 0.000000 0.036936 -0.205896 0.000000 1.805115 0.001768 0.000000 0.031871 -0.183805 0.000000 1.835820 -0.017161 0.000000 0.062613 -0.160337 0.000000 1.901267 -0.001500 0.000000 0.074686 -0.080487 0.000000 1.864154 0.016500 0.000000 0.037054 -0.062951 0.000000 1.851800 -0.000840 0.000000 0.031486 -0.067502 0.000000 1.873714 -0.020287 0.000000 0.063095 -0.064183 0.000000 1.931596 -0.002844 0.000000 0.075713 0.000779 0.000000 1.886044 0.016330 0.000000 0.037910 0.008659 0.000000 1.865849 -0.000884 0.000000 0.032466 -0.001821 0.000000 1.881223 -0.020574 0.000000 0.064118 -0.000501 0.000000 1.933168 -0.002824 0.000000 0.076550 0.064224 0.000000 1.882750 0.017693 0.000000 0.038576 0.075754 0.000000 1.857065 0.003244 0.000000 0.033361 0.071990 0.000000 1.865944 -0.012025 0.000000 0.065719 0.085250 0.000000 1.908743 0.011754 0.000000 0.078839 0.167125 0.000000 1.846244 0.040508 0.000000 0.037617 0.206515 0.000000 1.799730 0.034537 0.000000 0.017410 0.237865 0.000000 1.770204 0.020797 0.000000 0.010389 0.281432 0.000000 1.745371 0.008944 0.000000 0.007863 0.342285 0.000000 1.719500 0.001024 0.000000 0.005996 0.422348 0.000000 1.690793 -0.002697 0.000000 0.003577 0.524301 0.000000 1.659530 -0.002110 0.000000 0.000613 0.652298 0.000000 
1.682971 0.014461 0.000000 -0.013772 0.763958 0.000000 1.683120 0.019115 0.000000 -0.017874 0.951820 0.000000 1.697512 0.002989 0.000000 -0.018198 -0.950083 0.000000 1.680096 -0.018186 0.000000 -0.019637 -0.772423 0.000000 1.679971 -0.021250 0.000000 -0.018347 -0.629579 0.000000 1.691133 -0.030051 0.000000 -0.011874 -0.522540 0.000000 1.712981 -0.048607 0.000000 0.009139 -0.450272 0.000000 1.755127 -0.074353 0.000000 0.064730 -0.403451 0.000000 1.846902 -0.034871 0.000000 0.083368 -0.201759 0.000000 1.786698 0.034931 0.000000 0.032635 -0.177143 0.000000 1.774888 -0.003467 0.000000 0.028651 -0.186593 0.000000 1.806536 -0.050897 0.000000 0.076140 -0.198479 0.000000 1.893969 -0.020886 0.000000 0.088984 -0.037348 0.000000 1.827287 0.044030 0.000000 0.035903 -0.043652 0.000000 1.809358 0.001576 0.000000 0.030147 -0.078259 0.000000 1.836577 -0.048334 0.000000 0.077492 -0.108864 0.000000 1.919747 -0.017608 0.000000 0.089508 0.040661 0.000000 1.845840 0.048408 0.000000 0.036382 0.025597 0.000000 1.821304 0.005173 0.000000 0.030583 -0.015049 0.000000 1.843609 -0.045371 0.000000 0.077634 -0.047830 0.000000 1.922139 -0.014525 0.000000 0.089258 0.101102 0.000000 1.844556 0.052515 0.000000 0.036720 0.090037 0.000000 1.815618 0.011285 0.000000 0.031616 0.056505 0.000000 1.833239 -0.035699 0.000000 0.079598 0.036417 0.000000 1.904551 0.000831 0.000000 0.092701 0.203048 0.000000 1.817573 0.079059 0.000000 0.038027 0.223172 0.000000 1.769734 0.056332 0.000000 0.015081 0.235322 0.000000 1.747007 0.033778 0.000000 0.007885 0.268805 0.000000 1.731601 0.020465 0.000000 0.004771 0.322792 0.000000 1.717460 0.013657 0.000000 0.001396 0.396536 0.000000 1.703622 0.011064 0.000000 -0.003195 0.491895 0.000000 1.691236 0.011552 0.000000 -0.008572 0.612696 0.000000 
1.777970 0.007929 0.000000 -0.000342 0.811454 0.000000 1.784802 0.015286 0.000000 -0.001993 0.993987 0.000000 1.806481 0.003299 0.000000 -0.002253 -0.989537 0.000000 1.779070 -0.017658 0.000000 -0.005960 -0.817918 0.000000 1.767686 -0.018063 0.000000 -0.010473 -0.676502 0.000000 1.765605 -0.025504 0.000000 -0.015043 -0.569272 0.000000 1.771594 -0.047341 0.000000 -0.007728 -0.499369 0.000000 1.805951 -0.086973 0.000000 0.084561 -0.471146 0.000000 2.027165 -0.025952 0.000000 0.158418 -0.195975 0.000000 1.825390 0.067007 0.000000 -0.001084 -0.194086 0.000000 1.796270 0.005753 0.000000 -0.017348 -0.215453 0.000000 1.831424 -0.064650 0.000000 0.078380 -0.247771 0.000000 2.060753 -0.014343 0.000000 0.155295 -0.013804 0.000000 1.850818 0.069580 0.000000 -0.004754 -0.045022 0.000000 1.817252 0.004916 0.000000 -0.020096 -0.094721 0.000000 1.850271 -0.067631 0.000000 0.078498 -0.147353 0.000000 2.081485 -0.014860 0.000000 0.157206 0.074686 0.000000 1.863206 0.069457 0.000000 -0.004477 0.033195 0.000000 1.824866 0.004916 0.000000 -0.019596 -0.024126 0.000000 1.855153 -0.067625 0.000000 0.079213 -0.079031 0.000000 2.084035 -0.014448 0.000000 0.158435 0.141807 0.000000 1.863556 0.070231 0.000000 -0.001666 0.104691 0.000000 1.822877 0.008348 0.000000 -0.015017 0.054370 0.000000 1.852002 -0.060006 0.000000 0.085894 0.013938 0.000000 2.079858 -0.001349 0.000000 0.170122 0.254103 0.000000 1.858644 0.095182 0.000000 0.015007 0.254354 0.000000 1.811502 0.057483 0.000000 -0.006596 0.260593 0.000000 1.804264 0.027993 0.000000 -0.004514 0.296839 0.000000 1.799867 0.012057 0.000000 -0.000673 0.356426 0.000000 1.793571 0.004399 0.000000 0.001419 0.436186 0.000000 1.786224 0.001895 0.000000 0.001779 0.536687 0.000000 1.779967 0.003267 0.000000 0.001006 0.660563 0.000000 
1.832867 0.015809 0.000000 -0.009113 0.757125 0.000000 1.862435 0.020766 0.000000 -0.011661 0.930141 0.000000 1.908672 0.003249 0.000000 -0.011819 -0.922671 0.000000 1.856798 -0.014479 0.000000 -0.016640 -0.761040 0.000000 1.821903 -0.016738 0.000000 -0.022790 -0.627497 0.000000 1.797829 -0.025481 0.000000 -0.031529 -0.528530 0.000000 1.783189 -0.055922 0.000000 -0.033582 -0.484629 0.000000 1.801079 -0.166641 0.000000 0.061634 -0.624665 0.000000 2.017201 -0.108729 0.000000 0.135692 0.000016 0.000000 1.781889 0.194433 0.000000 -0.032758 -0.148023 0.000000 1.754686 0.012797 0.000000 -0.044819 -0.221747 0.000000 1.789072 -0.146624 0.000000 0.066616 -0.427808 0.000000 2.037966 -0.097801 0.000000 0.147368 0.172588 0.000000 1.785977 0.204078 0.000000 -0.030936 -0.010086 0.000000 1.759957 0.016919 0.000000 -0.044316 -0.111278 0.000000 1.796771 -0.146928 0.000000 0.072536 -0.340078 0.000000 2.058455 -0.096315 0.000000 0.155832 0.258940 0.000000 1.792166 0.210091 0.000000 -0.029226 0.063936 0.000000 1.763677 0.020292 0.000000 -0.043073 -0.045335 0.000000 1.799720 -0.144180 0.000000 0.076040 -0.276711 0.000000 2.066156 -0.093747 0.000000 0.161484 0.321581 0.000000 1.793785 0.212615 0.000000 -0.025190 0.130715 0.000000 1.764473 0.024636 0.000000 -0.036981 0.027380 0.000000 1.801538 -0.136610 0.000000 0.088000 -0.191439 0.000000 2.078377 -0.083397 0.000000 0.183939 0.424261 0.000000 1.803049 0.234174 0.000000 0.000421 0.270315 0.000000 1.775919 0.077935 0.000000 -0.016223 0.242560 0.000000 1.784281 0.031696 0.000000 -0.009850 0.273201 0.000000 1.791920 0.016624 0.000000 -0.004665 0.329088 0.000000 1.797677 0.011565 0.000000 -0.003024 0.403883 0.000000 1.804335 0.010705 0.000000 -0.003978 0.498152 0.000000 1.814923 0.012325 0.000000 -0.006337 0.614693 0.000000 