# vtk DataFile Version 2.0
Comment goes here
ASCII

DATASET STRUCTURED_POINTS
FIELD FieldData 1
TIME 1 1 double
0.00300000
DIMENSIONS    64   64   1

ORIGIN    0.000   0.000   0.000
SPACING   0.03125 0.03125   1.000

POINT_DATA   4096
VECTORS u double

-0.108326 0.000010 0.000000 0.105894 -0.000043 0.000000 -0.082835 0.000011 0.000000 0.111362 -0.000002 0.000000 -0.079636 -0.000028 0.000000 0.104890 0.000031 0.000000 -0.084701 -0.000013 0.000000 0.112831 0.000001 0.000000 -0.092052 0.000032 0.000000 0.109638 -0.000014 0.000000 -0.077738 0.000038 0.000000 0.081683 -0.000054 0.000000 -0.046411 0.000060 0.000000 0.051171 -0.000090 0.000000 -0.019089 0.000089 0.000000 0.023391 -0.000102 0.000000 0.003375 -0.000163 0.000000 0.001587 0.000174 0.000000 0.019112 -0.000107 0.000000 -0.014137 0.000019 0.000000 0.029705 -0.000003 0.000000 -0.024738 0.000005 0.000000 0.034895 0.000046 0.000000 -0.030535 -0.000025 0.000000 0.035951 -0.000063 0.000000 -0.033231 0.000055 0.000000 0.036532 0.000005 0.000000 -0.037446 -0.000019 0.000000 0.038995 0.000016 0.000000 -0.042139 -0.000082 0.000000 0.039988 0.000057 0.000000 -0.044471 -0.000009 0.000000 0.039083 -0.000057 0.000000 -0.045894 0.000050 0.000000 0.038485 -0.000001 0.000000 -0.048209 -0.000015 0.000000 0.037277 0.000037 0.000000 -0.049772 -0.000024 0.000000 0.035660 0.000010 0.000000 -0.051694 -0.000011 0.000000 0.033369 -0.000108 0.000000 -0.051811 0.000002 0.000000 0.030007 0.000042 0.000000 -0.052902 -0.000050 0.000000 0.027161 0.000058 0.000000 -0.054187 -0.000035 0.000000 0.023322 0.000057 0.000000 -0.053685 0.000008 0.000000 0.017368 -0.000119 0.000000 -0.050688 0.000100 0.000000 0.010963 -0.000059 0.000000 -0.048795 0.000007 0.000000 0.005423 0.000017 0.000000 -0.047078 -0.000048 0.000000 -0.000434 0.000036 0.000000 -0.043800 -0.000037 0.000000 -0.008282 0.000034 0.000000 -0.038176 0.000010 0.000000 -0.016965 -0.000031 0.000000 -0.034637 0.000026 0.000000 -0.025093 -0.000033 0.000000 -0.019494 0.000029 0.000000 -0.066745 -0.000006 0.000000 0.043350 0.000007 0.000000 
-0.060732 -0.031256 0.000000 0.124741 -0.012789 0.000000 -0.148886 -0.002739 0.000000 0.133239 -0.001577 0.000000 -0.152221 0.003214 0.000000 0.126568 0.002533 0.000000 -0.127076 -0.003972 0.000000 0.091419 0.003679 0.000000 -0.090514 0.001648 0.000000 0.057921 -0.007219 0.000000 -0.064552 0.014055 0.000000 0.037928 -0.015728 0.000000 -0.047776 0.015288 0.000000 0.017501 -0.013668 0.000000 -0.028451 0.013842 0.000000 -0.001590 -0.011102 0.000000 -0.010737 0.010694 0.000000 -0.017595 -0.007891 0.000000 0.004674 0.007938 0.000000 -0.029857 -0.005388 0.000000 0.014439 0.005350 0.000000 -0.037063 -0.002589 0.000000 0.020447 0.002886 0.000000 -0.040865 -0.000462 0.000000 0.024300 0.001241 0.000000 -0.043451 -0.000264 0.000000 0.027680 0.002124 0.000000 -0.045708 -0.001269 0.000000 0.030613 0.002411 0.000000 -0.047548 -0.000573 0.000000 0.032726 0.001191 0.000000 -0.048027 0.000474 0.000000 0.034074 0.000628 0.000000 -0.048318 0.000345 0.000000 0.035549 0.001181 0.000000 -0.048264 0.000564 0.000000 0.036505 0.000805 0.000000 -0.047473 0.000761 0.000000 0.037280 0.000985 0.000000 -0.046297 0.001182 0.000000 0.037490 -0.000066 0.000000 -0.044523 0.001686 0.000000 0.037442 0.000580 0.000000 -0.042375 0.001354 0.000000 0.037592 0.000744 0.000000 -0.039946 0.001866 0.000000 0.036948 -0.000235 0.000000 -0.036032 0.003058 0.000000 0.034753 -0.001652 0.000000 -0.031598 0.003249 0.000000 0.032294 -0.000943 0.000000 -0.026632 0.002751 0.000000 0.029893 -0.000842 0.000000 -0.021290 0.002889 0.000000 0.026554 -0.001609 0.000000 -0.014703 0.003902 0.000000 0.021438 -0.002800 0.000000 -0.006275 0.004354 0.000000 0.013307 -0.001793 0.000000 0.008260 0.004087 0.000000 -0.000786 -0.007597 0.000000 0.022382 0.020844 0.000000 -0.000894 -0.031438 0.000000 0.017229 0.020803 0.000000 
0.024662 -0.107502 0.000000 0.035158 0.088110 0.000000 -0.044891 -0.008487 0.000000 0.042846 0.003334 0.000000 -0.046469 0.006643 0.000000 0.042871 -0.025114 0.000000 -0.032609 0.035136 0.000000 0.019438 -0.036562 0.000000 -0.000968 0.033530 0.000000 0.000260 -0.025976 0.000000 0.016944 0.020031 0.000000 -0.001179 -0.016829 0.000000 0.022072 0.020487 0.000000 -0.002838 -0.019416 0.000000 0.030044 0.019180 0.000000 -0.005313 -0.017816 0.000000 0.038247 0.015842 0.000000 -0.008525 -0.015237 0.000000 0.046450 0.012154 0.000000 -0.011492 -0.009746 0.000000 0.052413 0.007203 0.000000 -0.013359 -0.006003 0.000000 0.057572 0.003848 0.000000 -0.014983 -0.003878 0.000000 0.062472 0.002523 0.000000 -0.016925 -0.003325 0.000000 0.066391 0.002263 0.000000 -0.017447 -0.002952 0.000000 0.068470 0.001856 0.000000 -0.017194 -0.002196 0.000000 0.070312 0.000536 0.000000 -0.017216 -0.001356 0.000000 0.072265 0.000234 0.000000 -0.017417 -0.001425 0.000000 0.073673 -0.000055 0.000000 -0.016723 -0.000971 0.000000 0.074673 -0.000753 0.000000 -0.015912 -0.000799 0.000000 0.075387 -0.001165 0.000000 -0.014514 -0.000222 0.000000 0.075826 -0.001882 0.000000 -0.013664 0.000051 0.000000 0.076224 -0.002106 0.000000 -0.011869 -0.000200 0.000000 0.075967 -0.002371 0.000000 -0.009557 0.000609 0.000000 0.075267 -0.003857 0.000000 -0.007148 0.002203 0.000000 0.074335 -0.004553 0.000000 -0.005501 0.002559 0.000000 0.072768 -0.005026 0.000000 -0.002578 0.002408 0.000000 0.070094 -0.005325 0.000000 0.000929 0.003290 0.000000 0.066209 -0.006551 0.000000 0.004841 0.005078 0.000000 0.061212 -0.008395 0.000000 0.009318 0.008141 0.000000 0.053434 -0.014565 0.000000 0.019532 0.014119 0.000000 0.039773 -0.014155 0.000000 0.026161 0.000137 0.000000 0.048176 0.005146 0.000000 0.000861 0.059845 0.000000 
0.006667 -0.065553 0.000000 -0.048137 0.056765 0.000000 0.018019 -0.010427 0.000000 -0.044214 0.000000 0.000000 -0.053800 0.003189 0.000000 -0.037911 -0.011327 0.000000 -0.004607 0.019461 0.000000 -0.019993 -0.027962 0.000000 0.016277 0.020825 0.000000 -0.006567 -0.025131 0.000000 0.034167 0.015494 0.000000 -0.003891 -0.020856 0.000000 0.051154 0.016947 0.000000 0.000189 -0.021641 0.000000 0.060396 0.016318 0.000000 0.004274 -0.019305 0.000000 0.066747 0.013906 0.000000 0.007199 -0.016094 0.000000 0.071282 0.010906 0.000000 0.009100 -0.011351 0.000000 0.076581 0.007217 0.000000 0.009040 -0.007749 0.000000 0.081729 0.004510 0.000000 0.008011 -0.005362 0.000000 0.086184 0.003183 0.000000 0.007125 -0.004183 0.000000 0.089346 0.002647 0.000000 0.006831 -0.003348 0.000000 0.091492 0.002159 0.000000 0.006850 -0.002415 0.000000 0.093143 0.001212 0.000000 0.006381 -0.001479 0.000000 0.094541 0.000829 0.000000 0.006164 -0.001063 0.000000 0.095093 0.000486 0.000000 0.006143 -0.000435 0.000000 0.095306 -0.000006 0.000000 0.005981 0.000047 0.000000 0.094956 -0.000413 0.000000 0.005915 0.000743 0.000000 0.094359 -0.000916 0.000000 0.005681 0.001288 0.000000 0.093250 -0.001215 0.000000 0.005677 0.001611 0.000000 0.091107 -0.001568 0.000000 0.005941 0.002566 0.000000 0.088557 -0.002644 0.000000 0.005570 0.003990 0.000000 0.086021 -0.003299 0.000000 0.005224 0.004816 0.000000 0.082360 -0.003866 0.000000 0.005064 0.005425 0.000000 0.076897 -0.004350 0.000000 0.005351 0.006773 0.000000 0.069876 -0.005521 0.000000 0.005627 0.008900 0.000000 0.061114 -0.007277 0.000000 0.005868 0.012132 0.000000 0.050429 -0.012007 0.000000 0.002722 0.017747 0.000000 0.038908 -0.014225 0.000000 0.001437 0.012441 0.000000 0.005833 -0.006138 0.000000 0.021322 0.044317 0.000000 
0.027135 -0.038042 0.000000 -0.031104 0.076759 0.000000 0.022399 -0.012410 0.000000 -0.030911 0.075152 0.000000 -0.043022 0.000341 0.000000 -0.027738 -0.074307 0.000000 0.010191 0.017217 0.000000 -0.017527 -0.057446 0.000000 0.032789 0.020104 0.000000 -0.009282 -0.043866 0.000000 0.048568 0.017355 0.000000 -0.006298 -0.033817 0.000000 0.061354 0.016407 0.000000 -0.002244 -0.028658 0.000000 0.068690 0.015095 0.000000 0.001626 -0.024167 0.000000 0.073934 0.012917 0.000000 0.004485 -0.019772 0.000000 0.078001 0.010254 0.000000 0.006314 -0.015045 0.000000 0.082375 0.007263 0.000000 0.006702 -0.011151 0.000000 0.086586 0.004877 0.000000 0.006277 -0.008334 0.000000 0.090278 0.003409 0.000000 0.005806 -0.006487 0.000000 0.093044 0.002557 0.000000 0.005630 -0.005097 0.000000 0.095009 0.001836 0.000000 0.005640 -0.003848 0.000000 0.096491 0.001006 0.000000 0.005392 -0.002754 0.000000 0.097666 0.000450 0.000000 0.005272 -0.001977 0.000000 0.098244 -0.000035 0.000000 0.005254 -0.001185 0.000000 0.098480 -0.000591 0.000000 0.005204 -0.000448 0.000000 0.098273 -0.001099 0.000000 0.005189 0.000375 0.000000 0.097787 -0.001648 0.000000 0.005124 0.001159 0.000000 0.096864 -0.002102 0.000000 0.005187 0.001944 0.000000 0.095228 -0.002635 0.000000 0.005396 0.003159 0.000000 0.093207 -0.003486 0.000000 0.005235 0.004739 0.000000 0.090983 -0.004206 0.000000 0.005081 0.006220 0.000000 0.087893 -0.004866 0.000000 0.005027 0.007871 0.000000 0.083478 -0.005613 0.000000 0.005264 0.010311 0.000000 0.077821 -0.006827 0.000000 0.005486 0.013841 0.000000 0.070791 -0.008636 0.000000 0.005624 0.018826 0.000000 0.062301 -0.011420 0.000000 0.003514 0.025639 0.000000 0.053291 -0.012869 0.000000 0.001175 0.033213 0.000000 0.032319 -0.014740 0.000000 0.008750 0.059011 0.000000 
0.024421 -0.025700 0.000000 -0.022632 0.061501 0.000000 0.016569 -0.010619 0.000000 -0.026334 0.065422 0.000000 -0.011776 0.000015 0.000000 -0.025863 -0.064540 0.000000 0.012282 0.009250 0.000000 -0.017114 -0.050561 0.000000 0.029875 0.012580 0.000000 -0.009317 -0.040909 0.000000 0.044245 0.012510 0.000000 -0.004842 -0.033642 0.000000 0.056348 0.012892 0.000000 -0.001114 -0.028977 0.000000 0.064919 0.012448 0.000000 0.002109 -0.024549 0.000000 0.071171 0.011046 0.000000 0.004552 -0.020160 0.000000 0.076034 0.009077 0.000000 0.006129 -0.015725 0.000000 0.080501 0.006829 0.000000 0.006675 -0.011960 0.000000 0.084572 0.004935 0.000000 0.006564 -0.009054 0.000000 0.088056 0.003654 0.000000 0.006294 -0.006949 0.000000 0.090761 0.002823 0.000000 0.006132 -0.005313 0.000000 0.092765 0.002148 0.000000 0.006042 -0.003897 0.000000 0.094261 0.001460 0.000000 0.005847 -0.002654 0.000000 0.095342 0.000950 0.000000 0.005701 -0.001641 0.000000 0.095908 0.000504 0.000000 0.005609 -0.000671 0.000000 0.096066 0.000044 0.000000 0.005494 0.000254 0.000000 0.095801 -0.000398 0.000000 0.005387 0.001229 0.000000 0.095164 -0.000852 0.000000 0.005248 0.002211 0.000000 0.094056 -0.001278 0.000000 0.005164 0.003247 0.000000 0.092342 -0.001776 0.000000 0.005108 0.004587 0.000000 0.090156 -0.002483 0.000000 0.004868 0.006214 0.000000 0.087520 -0.003145 0.000000 0.004580 0.007905 0.000000 0.084028 -0.003813 0.000000 0.004331 0.009840 0.000000 0.079352 -0.004587 0.000000 0.004148 0.012430 0.000000 0.073419 -0.005744 0.000000 0.003824 0.015930 0.000000 0.066109 -0.007415 0.000000 0.003088 0.020623 0.000000 0.057248 -0.009897 0.000000 0.001267 0.026757 0.000000 0.046497 -0.011886 0.000000 -0.000461 0.033413 0.000000 0.031592 -0.013712 0.000000 -0.001976 0.049501 0.000000 
0.039136 -0.017386 0.000000 -0.015999 0.084611 0.000000 0.026349 -0.008708 0.000000 -0.019253 0.103497 0.000000 -0.001670 -0.000131 0.000000 -0.019055 -0.098365 0.000000 0.024157 0.008468 0.000000 -0.014193 -0.075038 0.000000 0.042435 0.012307 0.000000 -0.009347 -0.058236 0.000000 0.055831 0.012880 0.000000 -0.005915 -0.045920 0.000000 0.066014 0.012678 0.000000 -0.002687 -0.037229 0.000000 0.073115 0.011873 0.000000 0.000225 -0.030418 0.000000 0.078321 0.010473 0.000000 0.002516 -0.024636 0.000000 0.082436 0.008677 0.000000 0.004067 -0.019512 0.000000 0.086139 0.006717 0.000000 0.004808 -0.015222 0.000000 0.089491 0.004987 0.000000 0.004996 -0.011818 0.000000 0.092382 0.003679 0.000000 0.004976 -0.009192 0.000000 0.094681 0.002719 0.000000 0.004955 -0.007101 0.000000 0.096425 0.001926 0.000000 0.004952 -0.005343 0.000000 0.097734 0.001200 0.000000 0.004882 -0.003835 0.000000 0.098679 0.000597 0.000000 0.004826 -0.002543 0.000000 0.099214 0.000057 0.000000 0.004794 -0.001343 0.000000 0.099404 -0.000476 0.000000 0.004762 -0.000183 0.000000 0.099248 -0.000993 0.000000 0.004735 0.001012 0.000000 0.098768 -0.001510 0.000000 0.004698 0.002268 0.000000 0.097900 -0.002017 0.000000 0.004689 0.003657 0.000000 0.096569 -0.002579 0.000000 0.004689 0.005345 0.000000 0.094833 -0.003246 0.000000 0.004573 0.007375 0.000000 0.092674 -0.003919 0.000000 0.004413 0.009712 0.000000 0.089828 -0.004616 0.000000 0.004253 0.012548 0.000000 0.086070 -0.005430 0.000000 0.004106 0.016243 0.000000 0.081322 -0.006503 0.000000 0.003815 0.021151 0.000000 0.075485 -0.007900 0.000000 0.003141 0.027687 0.000000 0.068438 -0.009598 0.000000 0.001524 0.036390 0.000000 0.059951 -0.011141 0.000000 -0.000652 0.048118 0.000000 0.048404 -0.013225 0.000000 -0.003261 0.066182 0.000000 
0.042860 -0.012962 0.000000 -0.013943 0.074288 0.000000 0.035482 -0.007365 0.000000 -0.017192 0.093441 0.000000 0.024165 -0.000183 0.000000 -0.017212 -0.090367 0.000000 0.035591 0.004388 0.000000 -0.013272 -0.068839 0.000000 0.046667 0.007734 0.000000 -0.008742 -0.054305 0.000000 0.056555 0.009078 0.000000 -0.005042 -0.043825 0.000000 0.065035 0.009664 0.000000 -0.001918 -0.036078 0.000000 0.071729 0.009536 0.000000 0.000710 -0.029755 0.000000 0.076952 0.008755 0.000000 0.002757 -0.024275 0.000000 0.081158 0.007526 0.000000 0.004170 -0.019428 0.000000 0.084791 0.006087 0.000000 0.004946 -0.015311 0.000000 0.087976 0.004747 0.000000 0.005256 -0.011945 0.000000 0.090682 0.003674 0.000000 0.005334 -0.009248 0.000000 0.092853 0.002844 0.000000 0.005339 -0.007057 0.000000 0.094522 0.002151 0.000000 0.005316 -0.005206 0.000000 0.095769 0.001530 0.000000 0.005245 -0.003598 0.000000 0.096635 0.001006 0.000000 0.005161 -0.002177 0.000000 0.097108 0.000535 0.000000 0.005075 -0.000861 0.000000 0.097225 0.000077 0.000000 0.004978 0.000409 0.000000 0.096997 -0.000370 0.000000 0.004870 0.001709 0.000000 0.096420 -0.000815 0.000000 0.004741 0.003080 0.000000 0.095445 -0.001269 0.000000 0.004602 0.004578 0.000000 0.094031 -0.001777 0.000000 0.004441 0.006323 0.000000 0.092186 -0.002368 0.000000 0.004196 0.008373 0.000000 0.089858 -0.002985 0.000000 0.003883 0.010751 0.000000 0.086864 -0.003652 0.000000 0.003517 0.013598 0.000000 0.083048 -0.004440 0.000000 0.003073 0.017178 0.000000 0.078329 -0.005453 0.000000 0.002427 0.021767 0.000000 0.072647 -0.006741 0.000000 0.001390 0.027671 0.000000 0.065952 -0.008280 0.000000 -0.000278 0.035243 0.000000 0.058230 -0.009710 0.000000 -0.002547 0.044960 0.000000 0.049657 -0.011103 0.000000 -0.006151 0.058769 0.000000 
0.054658 -0.009594 0.000000 -0.010397 0.091990 0.000000 0.045509 -0.005459 0.000000 -0.012969 0.114814 0.000000 0.033548 -0.000111 0.000000 -0.013011 -0.109791 0.000000 0.045683 0.004528 0.000000 -0.010847 -0.086115 0.000000 0.056965 0.007777 0.000000 -0.008000 -0.068124 0.000000 0.066308 0.009179 0.000000 -0.005328 -0.054400 0.000000 0.073758 0.009554 0.000000 -0.002813 -0.043923 0.000000 0.079437 0.009246 0.000000 -0.000555 -0.035641 0.000000 0.083800 0.008426 0.000000 0.001287 -0.028842 0.000000 0.087281 0.007264 0.000000 0.002628 -0.023144 0.000000 0.090256 0.005941 0.000000 0.003468 -0.018407 0.000000 0.092857 0.004677 0.000000 0.003924 -0.014525 0.000000 0.095078 0.003601 0.000000 0.004147 -0.011362 0.000000 0.096872 0.002714 0.000000 0.004262 -0.008770 0.000000 0.098275 0.001950 0.000000 0.004331 -0.006590 0.000000 0.099343 0.001272 0.000000 0.004357 -0.004701 0.000000 0.100100 0.000681 0.000000 0.004355 -0.003015 0.000000 0.100530 0.000143 0.000000 0.004336 -0.001460 0.000000 0.100674 -0.000379 0.000000 0.004315 0.000045 0.000000 0.100548 -0.000885 0.000000 0.004290 0.001589 0.000000 0.100139 -0.001380 0.000000 0.004244 0.003242 0.000000 0.099398 -0.001879 0.000000 0.004180 0.005071 0.000000 0.098313 -0.002417 0.000000 0.004097 0.007191 0.000000 0.096884 -0.003001 0.000000 0.003956 0.009703 0.000000 0.095053 -0.003606 0.000000 0.003746 0.012705 0.000000 0.092676 -0.004251 0.000000 0.003465 0.016364 0.000000 0.089651 -0.004986 0.000000 0.003093 0.020962 0.000000 0.085911 -0.005857 0.000000 0.002527 0.026834 0.000000 0.081390 -0.006863 0.000000 0.001600 0.034382 0.000000 0.076012 -0.007930 0.000000 0.000092 0.044111 0.000000 0.069670 -0.008872 0.000000 -0.002047 0.056691 0.000000 0.062213 -0.009621 0.000000 -0.005126 0.072979 0.000000 
0.061876 -0.007691 0.000000 -0.009806 0.083438 0.000000 0.058313 -0.004793 0.000000 -0.011865 0.105402 0.000000 0.055358 -0.000140 0.000000 -0.011906 -0.102502 0.000000 0.059263 0.002224 0.000000 -0.010021 -0.080120 0.000000 0.064653 0.004888 0.000000 -0.007338 -0.063649 0.000000 0.070274 0.006406 0.000000 -0.004665 -0.051276 0.000000 0.075509 0.007149 0.000000 -0.002225 -0.041757 0.000000 0.080009 0.007278 0.000000 -0.000109 -0.034117 0.000000 0.083750 0.006913 0.000000 0.001595 -0.027757 0.000000 0.086855 0.006185 0.000000 0.002848 -0.022403 0.000000 0.089527 0.005247 0.000000 0.003682 -0.017912 0.000000 0.091858 0.004292 0.000000 0.004181 -0.014167 0.000000 0.093844 0.003451 0.000000 0.004447 -0.011042 0.000000 0.095445 0.002729 0.000000 0.004575 -0.008460 0.000000 0.096702 0.002082 0.000000 0.004638 -0.006274 0.000000 0.097658 0.001503 0.000000 0.004654 -0.004355 0.000000 0.098320 0.001008 0.000000 0.004622 -0.002606 0.000000 0.098663 0.000554 0.000000 0.004553 -0.001005 0.000000 0.098731 0.000099 0.000000 0.004471 0.000536 0.000000 0.098540 -0.000346 0.000000 0.004376 0.002117 0.000000 0.098073 -0.000769 0.000000 0.004241 0.003821 0.000000 0.097274 -0.001205 0.000000 0.004065 0.005663 0.000000 0.096150 -0.001694 0.000000 0.003856 0.007752 0.000000 0.094698 -0.002227 0.000000 0.003591 0.010204 0.000000 0.092860 -0.002775 0.000000 0.003238 0.013128 0.000000 0.090524 -0.003371 0.000000 0.002781 0.016623 0.000000 0.087645 -0.004068 0.000000 0.002202 0.020918 0.000000 0.084201 -0.004887 0.000000 0.001421 0.026288 0.000000 0.080196 -0.005814 0.000000 0.000322 0.033049 0.000000 0.075683 -0.006772 0.000000 -0.001221 0.041586 0.000000 0.070812 -0.007571 0.000000 -0.003297 0.052417 0.000000 0.065946 -0.008024 0.000000 -0.006129 0.066323 0.000000 
0.071773 -0.005917 0.000000 -0.007498 0.095552 0.000000 0.067471 -0.003399 0.000000 -0.009155 0.117769 0.000000 0.063950 -0.000070 0.000000 -0.009200 -0.113697 0.000000 0.068068 0.002643 0.000000 -0.008183 -0.091504 0.000000 0.073436 0.005094 0.000000 -0.006480 -0.073745 0.000000 0.078680 0.006507 0.000000 -0.004583 -0.059635 0.000000 0.083276 0.007114 0.000000 -0.002684 -0.048423 0.000000 0.087075 0.007129 0.000000 -0.000918 -0.039382 0.000000 0.090160 0.006723 0.000000 0.000560 -0.031948 0.000000 0.092634 0.006010 0.000000 0.001690 -0.025817 0.000000 0.094747 0.005107 0.000000 0.002514 -0.020737 0.000000 0.096602 0.004177 0.000000 0.003083 -0.016511 0.000000 0.098203 0.003336 0.000000 0.003426 -0.012963 0.000000 0.099455 0.002585 0.000000 0.003614 -0.010028 0.000000 0.100461 0.001887 0.000000 0.003752 -0.007546 0.000000 0.101261 0.001256 0.000000 0.003862 -0.005363 0.000000 0.101849 0.000713 0.000000 0.003901 -0.003358 0.000000 0.102131 0.000212 0.000000 0.003882 -0.001528 0.000000 0.102216 -0.000297 0.000000 0.003870 0.000236 0.000000 0.102129 -0.000790 0.000000 0.003867 0.002057 0.000000 0.101842 -0.001245 0.000000 0.003809 0.004042 0.000000 0.101240 -0.001703 0.000000 0.003691 0.006194 0.000000 0.100403 -0.002208 0.000000 0.003564 0.008643 0.000000 0.099335 -0.002736 0.000000 0.003408 0.011540 0.000000 0.097977 -0.003253 0.000000 0.003150 0.015041 0.000000 0.096171 -0.003794 0.000000 0.002767 0.019243 0.000000 0.093947 -0.004406 0.000000 0.002273 0.024406 0.000000 0.091282 -0.005076 0.000000 0.001599 0.030839 0.000000 0.088152 -0.005764 0.000000 0.000641 0.038895 0.000000 0.084550 -0.006387 0.000000 -0.000708 0.048982 0.000000 0.080502 -0.006797 0.000000 -0.002503 0.061558 0.000000 0.076119 -0.006789 0.000000 -0.004796 0.077049 0.000000 
0.080379 -0.004989 0.000000 -0.007288 0.087739 0.000000 0.080529 -0.003136 0.000000 -0.008528 0.108923 0.000000 0.082554 -0.000095 0.000000 -0.008559 -0.106619 0.000000 0.081459 0.001207 0.000000 -0.007569 -0.085488 0.000000 0.082411 0.003185 0.000000 -0.005923 -0.068893 0.000000 0.084381 0.004509 0.000000 -0.004057 -0.055872 0.000000 0.086721 0.005250 0.000000 -0.002208 -0.045556 0.000000 0.089048 0.005512 0.000000 -0.000514 -0.037202 0.000000 0.091183 0.005435 0.000000 0.000883 -0.030231 0.000000 0.092986 0.005055 0.000000 0.001946 -0.024516 0.000000 0.094606 0.004423 0.000000 0.002752 -0.019768 0.000000 0.096084 0.003722 0.000000 0.003341 -0.015767 0.000000 0.097392 0.003109 0.000000 0.003696 -0.012294 0.000000 0.098380 0.002541 0.000000 0.003877 -0.009466 0.000000 0.099185 0.001944 0.000000 0.004007 -0.007074 0.000000 0.099841 0.001394 0.000000 0.004112 -0.004943 0.000000 0.100325 0.000969 0.000000 0.004121 -0.002889 0.000000 0.100492 0.000573 0.000000 0.004045 -0.001090 0.000000 0.100495 0.000111 0.000000 0.003978 0.000623 0.000000 0.100361 -0.000343 0.000000 0.003921 0.002404 0.000000 0.100058 -0.000711 0.000000 0.003783 0.004422 0.000000 0.099426 -0.001087 0.000000 0.003559 0.006500 0.000000 0.098600 -0.001566 0.000000 0.003328 0.008821 0.000000 0.097595 -0.002070 0.000000 0.003074 0.011563 0.000000 0.096361 -0.002517 0.000000 0.002696 0.014934 0.000000 0.094727 -0.002988 0.000000 0.002169 0.018847 0.000000 0.092808 -0.003574 0.000000 0.001531 0.023582 0.000000 0.090635 -0.004213 0.000000 0.000732 0.029418 0.000000 0.088253 -0.004856 0.000000 -0.000301 0.036651 0.000000 0.085771 -0.005423 0.000000 -0.001633 0.045634 0.000000 0.083389 -0.005776 0.000000 -0.003292 0.056799 0.000000 0.081439 -0.005730 0.000000 -0.005259 0.070670 0.000000 
0.088840 -0.003888 0.000000 -0.005645 0.095403 0.000000 0.088650 -0.002159 0.000000 -0.006687 0.115743 0.000000 0.090313 -0.000040 0.000000 -0.006720 -0.112601 0.000000 0.089205 0.001653 0.000000 -0.006204 -0.092457 0.000000 0.090033 0.003447 0.000000 -0.005156 -0.075715 0.000000 0.091700 0.004641 0.000000 -0.003841 -0.061975 0.000000 0.093592 0.005266 0.000000 -0.002420 -0.050750 0.000000 0.095429 0.005435 0.000000 -0.000994 -0.041518 0.000000 0.097130 0.005327 0.000000 0.000181 -0.033751 0.000000 0.098349 0.004947 0.000000 0.001058 -0.027436 0.000000 0.099494 0.004302 0.000000 0.001813 -0.022216 0.000000 0.100603 0.003587 0.000000 0.002471 -0.017818 0.000000 0.101675 0.002981 0.000000 0.002858 -0.013951 0.000000 0.102284 0.002405 0.000000 0.003018 -0.010834 0.000000 0.102852 0.001756 0.000000 0.003203 -0.008201 0.000000 0.103393 0.001151 0.000000 0.003437 -0.005847 0.000000 0.103903 0.000704 0.000000 0.003506 -0.003526 0.000000 0.103929 0.000287 0.000000 0.003419 -0.001531 0.000000 0.103929 -0.000230 0.000000 0.003416 0.000370 0.000000 0.103910 -0.000733 0.000000 0.003498 0.002360 0.000000 0.103861 -0.001107 0.000000 0.003432 0.004674 0.000000 0.103317 -0.001480 0.000000 0.003212 0.007020 0.000000 0.102724 -0.001977 0.000000 0.003060 0.009649 0.000000 0.102077 -0.002482 0.000000 0.002960 0.012774 0.000000 0.101348 -0.002875 0.000000 0.002678 0.016674 0.000000 0.100084 -0.003267 0.000000 0.002181 0.021162 0.000000 0.098682 -0.003768 0.000000 0.001632 0.026580 0.000000 0.097118 -0.004277 0.000000 0.000955 0.033221 0.000000 0.095386 -0.004731 0.000000 0.000074 0.041378 0.000000 0.093533 -0.005055 0.000000 -0.001062 0.051364 0.000000 0.091667 -0.005138 0.000000 -0.002459 0.063507 0.000000 0.089989 -0.004821 0.000000 -0.004057 0.078109 0.000000 
0.097671 -0.003401 0.000000 -0.005561 0.087928 0.000000 0.100865 -0.002095 0.000000 -0.006318 0.107261 0.000000 0.106258 -0.000062 0.000000 -0.006339 -0.105511 0.000000 0.101608 0.000690 0.000000 -0.005774 -0.086316 0.000000 0.099155 0.002137 0.000000 -0.004727 -0.070560 0.000000 0.098121 0.003194 0.000000 -0.003430 -0.057764 0.000000 0.097946 0.003829 0.000000 -0.002037 -0.047392 0.000000 0.098279 0.004086 0.000000 -0.000621 -0.038904 0.000000 0.098950 0.004260 0.000000 0.000503 -0.031450 0.000000 0.099301 0.004179 0.000000 0.001302 -0.025661 0.000000 0.099827 0.003668 0.000000 0.002038 -0.020876 0.000000 0.100482 0.003065 0.000000 0.002735 -0.016840 0.000000 0.101259 0.002722 0.000000 0.003121 -0.012902 0.000000 0.101497 0.002381 0.000000 0.003229 -0.010034 0.000000 0.101817 0.001759 0.000000 0.003402 -0.007615 0.000000 0.102195 0.001160 0.000000 0.003665 -0.005453 0.000000 0.102646 0.000900 0.000000 0.003704 -0.002915 0.000000 0.102487 0.000659 0.000000 0.003528 -0.001090 0.000000 0.102396 0.000114 0.000000 0.003475 0.000642 0.000000 0.102352 -0.000425 0.000000 0.003546 0.002454 0.000000 0.102372 -0.000645 0.000000 0.003410 0.004966 0.000000 0.101772 -0.000867 0.000000 0.003062 0.007092 0.000000 0.101229 -0.001414 0.000000 0.002823 0.009468 0.000000 0.100720 -0.001970 0.000000 0.002679 0.012292 0.000000 0.100261 -0.002234 0.000000 0.002304 0.016197 0.000000 0.099216 -0.002492 0.000000 0.001667 0.020249 0.000000 0.098226 -0.003024 0.000000 0.001021 0.025146 0.000000 0.097276 -0.003536 0.000000 0.000277 0.031150 0.000000 0.096410 -0.003975 0.000000 -0.000626 0.038505 0.000000 0.095757 -0.004287 0.000000 -0.001717 0.047500 0.000000 0.095532 -0.004380 0.000000 -0.002977 0.058477 0.000000 0.096041 -0.004132 0.000000 -0.004327 0.071820 0.000000 
0.104945 -0.002655 0.000000 -0.004340 0.092210 0.000000 0.107977 -0.001401 0.000000 -0.005009 0.110350 0.000000 0.113159 -0.000018 0.000000 -0.005033 -0.107951 0.000000 0.108406 0.001088 0.000000 -0.004755 -0.090004 0.000000 0.105792 0.002400 0.000000 -0.004097 -0.074681 0.000000 0.104498 0.003343 0.000000 -0.003204 -0.061799 0.000000 0.103965 0.003872 0.000000 -0.002161 -0.051083 0.000000 0.103917 0.004019 0.000000 -0.000818 -0.042188 0.000000 0.104584 0.004203 0.000000 0.000101 -0.034102 0.000000 0.104139 0.004148 0.000000 0.000548 -0.027963 0.000000 0.104279 0.003566 0.000000 0.001210 -0.022870 0.000000 0.104639 0.002890 0.000000 0.002128 -0.018596 0.000000 0.105613 0.002595 0.000000 0.002517 -0.014188 0.000000 0.105152 0.002296 0.000000 0.002396 -0.011154 0.000000 0.105270 0.001583 0.000000 0.002604 -0.008578 0.000000 0.105555 0.000888 0.000000 0.003176 -0.006299 0.000000 0.106440 0.000665 0.000000 0.003265 -0.003366 0.000000 0.105754 0.000463 0.000000 0.002874 -0.001441 0.000000 0.105661 -0.000176 0.000000 0.002878 0.000414 0.000000 0.105723 -0.000804 0.000000 0.003277 0.002339 0.000000 0.106372 -0.000972 0.000000 0.003210 0.005275 0.000000 0.105444 -0.001131 0.000000 0.002665 0.007563 0.000000 0.105100 -0.001738 0.000000 0.002504 0.010158 0.000000 0.104902 -0.002338 0.000000 0.002696 0.013233 0.000000 0.105253 -0.002500 0.000000 0.002420 0.017720 0.000000 0.104136 -0.002629 0.000000 0.001648 0.022152 0.000000 0.103579 -0.003122 0.000000 0.001120 0.027529 0.000000 0.103122 -0.003534 0.000000 0.000516 0.034087 0.000000 0.102741 -0.003828 0.000000 -0.000239 0.042030 0.000000 0.102527 -0.003965 0.000000 -0.001157 0.051589 0.000000 0.102642 -0.003877 0.000000 -0.002213 0.062999 0.000000 0.103330 -0.003471 0.000000 -0.003327 0.076479 0.000000 
0.113399 -0.002388 0.000000 -0.004309 0.084896 0.000000 0.119000 -0.001426 0.000000 -0.004787 0.102078 0.000000 0.126837 -0.000038 0.000000 -0.004801 -0.100758 0.000000 0.119561 0.000412 0.000000 -0.004460 -0.083702 0.000000 0.114481 0.001479 0.000000 -0.003783 -0.069266 0.000000 0.111005 0.002301 0.000000 -0.002900 -0.057232 0.000000 0.108662 0.002786 0.000000 -0.001890 -0.047344 0.000000 0.107175 0.002743 0.000000 -0.000526 -0.039571 0.000000 0.106855 0.003341 0.000000 0.000359 -0.031005 0.000000 0.105440 0.003731 0.000000 0.000720 -0.025801 0.000000 0.104920 0.003006 0.000000 0.001362 -0.021236 0.000000 0.104756 0.002147 0.000000 0.002336 -0.017814 0.000000 0.105458 0.002332 0.000000 0.002717 -0.012442 0.000000 0.104530 0.002502 0.000000 0.002516 -0.010152 0.000000 0.104393 0.001551 0.000000 0.002708 -0.007900 0.000000 0.104474 0.000588 0.000000 0.003330 -0.006338 0.000000 0.105356 0.000810 0.000000 0.003391 -0.002229 0.000000 0.104411 0.001050 0.000000 0.002889 -0.000996 0.000000 0.104250 0.000110 0.000000 0.002847 0.000580 0.000000 0.104277 -0.000824 0.000000 0.003266 0.001804 0.000000 0.105085 -0.000578 0.000000 0.003139 0.005895 0.000000 0.104059 -0.000323 0.000000 0.002455 0.007436 0.000000 0.103824 -0.001253 0.000000 0.002224 0.009666 0.000000 0.103795 -0.002162 0.000000 0.002413 0.011940 0.000000 0.104540 -0.001959 0.000000 0.002071 0.017314 0.000000 0.103647 -0.001720 0.000000 0.001174 0.020807 0.000000 0.103604 -0.002496 0.000000 0.000608 0.025603 0.000000 0.103834 -0.002932 0.000000 -0.000018 0.031531 0.000000 0.104354 -0.003221 0.000000 -0.000765 0.038718 0.000000 0.105315 -0.003368 0.000000 -0.001630 0.047385 0.000000 0.106941 -0.003324 0.000000 -0.002573 0.057789 0.000000 0.109519 -0.003018 0.000000 -0.003512 0.070205 0.000000 