# vtk DataFile Version 2.0
Comment goes here
ASCII

DATASET STRUCTURED_POINTS
FIELD FieldData 1
TIME 1 1 double
0.03500000
DIMENSIONS    64   64   1

ORIGIN    0.000   0.000   0.000
SPACING   0.03125 0.03125   1.000

POINT_DATA   4096
VECTORS u double

0.637787 0.000588 0.000000 -1.098314 0.000561 0.000000 0.470247 0.000078 0.000000 -1.069383 0.000282 0.000000 0.353634 -0.000183 0.000000 -1.035829 -0.000215 0.000000 0.402604 0.000297 0.000000 -0.961234 -0.000120 0.000000 0.382008 0.000119 0.000000 -0.864816 -0.000079 0.000000 0.330765 -0.000112 0.000000 -0.770728 0.000030 0.000000 0.277337 -0.000173 0.000000 -0.685974 0.000133 0.000000 0.214916 -0.000194 0.000000 -0.585375 0.000398 0.000000 0.120152 -0.000060 0.000000 -0.447805 0.000344 0.000000 -0.020290 0.000221 0.000000 -0.259693 0.000470 0.000000 -0.216112 0.000184 0.000000 -0.019146 0.000762 0.000000 -0.458323 0.000188 0.000000 0.246284 0.000641 0.000000 -0.694131 0.000910 0.000000 0.463329 0.000722 0.000000 -0.844111 0.000535 0.000000 0.557952 0.000938 0.000000 -0.858982 0.000340 0.000000 0.518594 0.001100 0.000000 -0.755958 0.000298 0.000000 0.382159 0.001219 0.000000 -0.588964 0.000235 0.000000 0.215952 0.000935 0.000000 -0.431300 0.000569 0.000000 0.087502 0.001079 0.000000 -0.335676 0.000450 0.000000 0.032785 0.000987 0.000000 -0.324206 0.000743 0.000000 0.063624 0.000573 0.000000 -0.393897 0.001333 0.000000 0.158156 0.000340 0.000000 -0.507814 0.001301 0.000000 0.276891 0.000435 0.000000 -0.628311 0.001284 0.000000 0.386341 0.000428 0.000000 -0.726241 0.001372 0.000000 0.456405 0.000200 0.000000 -0.766050 0.001461 0.000000 0.447451 0.000462 0.000000 -0.717091 0.001314 0.000000 0.340488 0.000461 0.000000 -0.571165 0.001206 0.000000 0.140502 0.000258 0.000000 -0.344327 0.001242 0.000000 -0.125212 -0.000058 0.000000 -0.085069 0.001177 0.000000 -0.397492 -0.000238 0.000000 0.148481 0.000955 0.000000 -0.638908 -0.000248 0.000000 0.343197 0.000789 0.000000 -0.852840 -0.000332 0.000000 0.503982 0.000580 0.000000 -1.047249 -0.000906 0.000000 
-0.398932 0.025718 0.000000 0.217536 0.083358 0.000000 -0.156300 -0.014441 0.000000 0.193984 0.057945 0.000000 -0.016948 -0.016472 0.000000 0.184216 -0.024656 0.000000 -0.141094 -0.037350 0.000000 0.148962 0.009916 0.000000 -0.199650 -0.048176 0.000000 0.108578 0.025360 0.000000 -0.228963 -0.047150 0.000000 0.075777 0.026644 0.000000 -0.252688 -0.042710 0.000000 0.053953 0.031206 0.000000 -0.267736 -0.050737 0.000000 0.023931 0.047218 0.000000 -0.261272 -0.069363 0.000000 -0.026019 0.070127 0.000000 -0.228372 -0.094835 0.000000 -0.102642 0.097859 0.000000 -0.163021 -0.121205 0.000000 -0.209461 0.120899 0.000000 -0.067822 -0.133489 0.000000 -0.334886 0.117225 0.000000 0.031595 -0.108851 0.000000 -0.439482 0.074164 0.000000 0.090455 -0.048161 0.000000 -0.479908 0.006954 0.000000 0.081133 0.018656 0.000000 -0.452548 -0.051867 0.000000 0.017333 0.067001 0.000000 -0.378440 -0.083547 0.000000 -0.074456 0.081428 0.000000 -0.292080 -0.078767 0.000000 -0.155538 0.062868 0.000000 -0.229793 -0.048213 0.000000 -0.197757 0.026450 0.000000 -0.208993 -0.006486 0.000000 -0.193893 -0.016073 0.000000 -0.233784 0.033813 0.000000 -0.145496 -0.047516 0.000000 -0.291524 0.055873 0.000000 -0.074208 -0.059889 0.000000 -0.359704 0.059260 0.000000 -0.001081 -0.055256 0.000000 -0.421951 0.047906 0.000000 0.061754 -0.035401 0.000000 -0.464607 0.018685 0.000000 0.096316 0.004507 0.000000 -0.466379 -0.025847 0.000000 0.086185 0.053376 0.000000 -0.416991 -0.074201 0.000000 0.027659 0.100044 0.000000 -0.318469 -0.114595 0.000000 -0.071693 0.133053 0.000000 -0.182670 -0.130635 0.000000 -0.186279 0.136341 0.000000 -0.043875 -0.117536 0.000000 -0.279260 0.120928 0.000000 0.077211 -0.098038 0.000000 -0.345146 0.107356 0.000000 0.183481 -0.081201 0.000000 -0.383269 0.097945 0.000000 0.276963 -0.067604 0.000000 
0.684874 0.060015 0.000000 0.479556 -0.242072 0.000000 0.653942 0.023629 0.000000 0.443846 -0.139070 0.000000 0.466695 0.009585 0.000000 0.422847 0.123931 0.000000 0.726903 0.035551 0.000000 0.389734 0.058435 0.000000 0.935766 0.040502 0.000000 0.330961 0.029235 0.000000 1.104477 0.032689 0.000000 0.276140 0.023755 0.000000 1.231376 0.021650 0.000000 0.235540 0.015181 0.000000 1.336143 0.029828 0.000000 0.189108 -0.006066 0.000000 1.443919 0.049890 0.000000 0.123507 -0.032556 0.000000 1.568477 0.076845 0.000000 0.028058 -0.064881 0.000000 1.722554 0.107003 0.000000 -0.102124 -0.094437 0.000000 1.905460 0.125613 0.000000 -0.253548 -0.098777 0.000000 2.083072 0.105506 0.000000 -0.377174 -0.058137 0.000000 2.198162 0.040961 0.000000 -0.419667 0.010260 0.000000 2.216141 -0.027021 0.000000 -0.375837 0.064900 0.000000 2.152337 -0.073810 0.000000 -0.273370 0.093008 0.000000 2.043883 -0.086125 0.000000 -0.158334 0.082017 0.000000 1.942056 -0.061718 0.000000 -0.075871 0.043298 0.000000 1.882144 -0.020350 0.000000 -0.046844 -0.002877 0.000000 1.877118 0.025533 0.000000 -0.077520 -0.047823 0.000000 1.925213 0.059074 0.000000 -0.151386 -0.070949 0.000000 1.998886 0.069481 0.000000 -0.240622 -0.072692 0.000000 2.072052 0.063530 0.000000 -0.323391 -0.062407 0.000000 2.128135 0.044028 0.000000 -0.381540 -0.034363 0.000000 2.143424 0.003232 0.000000 -0.387337 0.010593 0.000000 2.094630 -0.048073 0.000000 -0.328611 0.058987 0.000000 1.974283 -0.097317 0.000000 -0.207932 0.099611 0.000000 1.789187 -0.134557 0.000000 -0.042926 0.114527 0.000000 1.569228 -0.137618 0.000000 0.122618 0.092744 0.000000 1.354123 -0.120132 0.000000 0.262566 0.065637 0.000000 1.144861 -0.105481 0.000000 0.385015 0.037791 0.000000 0.928107 -0.092901 0.000000 0.500630 0.014757 0.000000 
1.991691 0.046792 0.000000 -0.025511 0.114290 0.000000 1.373260 0.021269 0.000000 -0.056880 0.245193 0.000000 0.627137 0.004527 0.000000 -0.049496 -0.284864 0.000000 1.450455 -0.004236 0.000000 -0.028893 -0.198947 0.000000 1.938889 0.010597 0.000000 -0.005185 -0.143351 0.000000 2.270485 0.007671 0.000000 0.012003 -0.100255 0.000000 2.521001 -0.002110 0.000000 0.018617 -0.073561 0.000000 2.716541 -0.004304 0.000000 0.025985 -0.060557 0.000000 2.864543 -0.003763 0.000000 0.039206 -0.054432 0.000000 2.971813 0.000615 0.000000 0.062149 -0.056217 0.000000 3.040360 0.008977 0.000000 0.099833 -0.062007 0.000000 3.073267 0.017935 0.000000 0.150702 -0.060388 0.000000 3.084580 0.014776 0.000000 0.195368 -0.040926 0.000000 3.100802 -0.005668 0.000000 0.208794 -0.011024 0.000000 3.139560 -0.025174 0.000000 0.191709 0.011937 0.000000 3.193795 -0.035466 0.000000 0.155356 0.024907 0.000000 3.252817 -0.033608 0.000000 0.115674 0.023060 0.000000 3.297577 -0.019595 0.000000 0.090196 0.011699 0.000000 3.316679 -0.002577 0.000000 0.084162 -0.001460 0.000000 3.309987 0.014603 0.000000 0.098445 -0.014282 0.000000 3.277409 0.026349 0.000000 0.126124 -0.017799 0.000000 3.229689 0.029347 0.000000 0.155914 -0.013906 0.000000 3.175216 0.027514 0.000000 0.182876 -0.008177 0.000000 3.114556 0.022747 0.000000 0.203709 0.003396 0.000000 3.052693 0.010304 0.000000 0.207802 0.022947 0.000000 2.995153 -0.005349 0.000000 0.191036 0.046146 0.000000 2.941018 -0.020635 0.000000 0.155047 0.070501 0.000000 2.885515 -0.031952 0.000000 0.104076 0.089325 0.000000 2.812589 -0.029203 0.000000 0.056550 0.097569 0.000000 2.695633 -0.019020 0.000000 0.019575 0.111223 0.000000 2.527292 -0.015093 0.000000 -0.017446 0.135553 0.000000 2.296117 -0.017670 0.000000 -0.066466 0.175629 0.000000 
2.023651 0.019060 0.000000 0.026525 0.376360 0.000000 1.541430 0.054999 0.000000 -0.002626 0.607053 0.000000 0.926429 0.002201 0.000000 -0.000702 -0.699387 0.000000 1.584010 0.014949 0.000000 0.004988 -0.429999 0.000000 2.017345 0.016795 0.000000 0.025577 -0.302361 0.000000 2.326476 0.015500 0.000000 0.044870 -0.226762 0.000000 2.562955 0.015037 0.000000 0.057818 -0.180358 0.000000 2.747903 0.022460 0.000000 0.069038 -0.154068 0.000000 2.891225 0.036669 0.000000 0.078201 -0.139826 0.000000 3.000496 0.053903 0.000000 0.087361 -0.133428 0.000000 3.080010 0.069318 0.000000 0.099863 -0.127344 0.000000 3.133775 0.074744 0.000000 0.117566 -0.110090 0.000000 3.169389 0.060840 0.000000 0.133509 -0.074358 0.000000 3.198894 0.027535 0.000000 0.137491 -0.028499 0.000000 3.230987 -0.009935 0.000000 0.131558 0.010666 0.000000 3.263971 -0.037457 0.000000 0.120385 0.033985 0.000000 3.294845 -0.046442 0.000000 0.108852 0.037258 0.000000 3.315669 -0.036240 0.000000 0.103403 0.024197 0.000000 3.323124 -0.014316 0.000000 0.104897 0.003814 0.000000 3.318700 0.011250 0.000000 0.113064 -0.015245 0.000000 3.301819 0.031395 0.000000 0.124306 -0.023228 0.000000 3.275605 0.039691 0.000000 0.134566 -0.018219 0.000000 3.242238 0.036568 0.000000 0.143127 -0.001747 0.000000 3.200104 0.023195 0.000000 0.149604 0.027500 0.000000 3.149319 -0.000860 0.000000 0.148817 0.068133 0.000000 3.090016 -0.031307 0.000000 0.139623 0.113122 0.000000 3.020528 -0.061328 0.000000 0.122905 0.155114 0.000000 2.939189 -0.083586 0.000000 0.100402 0.187453 0.000000 2.838726 -0.090091 0.000000 0.080442 0.209701 0.000000 2.704761 -0.083157 0.000000 0.066103 0.233978 0.000000 2.530388 -0.068460 0.000000 0.050148 0.268966 0.000000 2.306610 -0.043881 0.000000 0.023491 0.319183 0.000000 
2.080380 0.043758 0.000000 -0.036584 0.596510 0.000000 1.674534 0.050420 0.000000 -0.042601 0.860195 0.000000 1.197060 0.002602 0.000000 -0.044082 -0.942446 0.000000 1.678496 -0.009927 0.000000 -0.023376 -0.632282 0.000000 2.070370 -0.009992 0.000000 -0.003621 -0.452482 0.000000 2.366273 -0.011622 0.000000 0.013501 -0.336734 0.000000 2.593880 -0.015059 0.000000 0.027573 -0.258509 0.000000 2.770947 -0.015524 0.000000 0.041804 -0.203879 0.000000 2.906011 -0.012926 0.000000 0.058579 -0.163703 0.000000 3.003685 -0.008545 0.000000 0.080674 -0.135732 0.000000 3.070004 -0.003525 0.000000 0.109442 -0.115773 0.000000 3.112235 0.000231 0.000000 0.141582 -0.096002 0.000000 3.140097 -0.001167 0.000000 0.167416 -0.070430 0.000000 3.164904 -0.009650 0.000000 0.177912 -0.043117 0.000000 3.196106 -0.019241 0.000000 0.172236 -0.021048 0.000000 3.233926 -0.024293 0.000000 0.155029 -0.005966 0.000000 3.272373 -0.022074 0.000000 0.134046 0.002235 0.000000 3.300971 -0.014146 0.000000 0.118955 0.004244 0.000000 3.313993 -0.004072 0.000000 0.114936 0.002964 0.000000 3.310598 0.006436 0.000000 0.122472 0.002599 0.000000 3.290951 0.015107 0.000000 0.137418 0.008414 0.000000 3.257418 0.019087 0.000000 0.154917 0.019461 0.000000 3.214552 0.018952 0.000000 0.171305 0.033957 0.000000 3.165611 0.016270 0.000000 0.182414 0.054181 0.000000 3.113034 0.011091 0.000000 0.182156 0.082250 0.000000 3.057125 0.003845 0.000000 0.168242 0.115634 0.000000 2.996905 -0.003917 0.000000 0.141834 0.151840 0.000000 2.928664 -0.009449 0.000000 0.106635 0.189788 0.000000 2.843038 -0.009243 0.000000 0.069973 0.231534 0.000000 2.726701 -0.004682 0.000000 0.035993 0.285596 0.000000 2.569740 0.000863 0.000000 0.003808 0.359331 0.000000 2.360696 0.008987 0.000000 -0.027243 0.458588 0.000000 
2.179524 0.028401 0.000000 0.030010 0.782206 0.000000 1.856025 0.061015 0.000000 0.013756 1.084527 0.000000 1.472321 0.003683 0.000000 0.011908 -1.180824 0.000000 1.844184 -0.005757 0.000000 0.019168 -0.821872 0.000000 2.168489 -0.002961 0.000000 0.031377 -0.598264 0.000000 2.427080 -0.001622 0.000000 0.045897 -0.454368 0.000000 2.632950 0.000965 0.000000 0.060160 -0.357425 0.000000 2.797823 0.008229 0.000000 0.073598 -0.289133 0.000000 2.928413 0.019894 0.000000 0.084420 -0.237500 0.000000 3.026740 0.031808 0.000000 0.093891 -0.199746 0.000000 3.099324 0.040550 0.000000 0.104663 -0.169575 0.000000 3.153418 0.042604 0.000000 0.116890 -0.137953 0.000000 3.194653 0.035006 0.000000 0.125957 -0.099165 0.000000 3.225956 0.017039 0.000000 0.128810 -0.059701 0.000000 3.253172 -0.004259 0.000000 0.127095 -0.027155 0.000000 3.279499 -0.020250 0.000000 0.123015 -0.004462 0.000000 3.303398 -0.025459 0.000000 0.117534 0.008660 0.000000 3.318054 -0.021148 0.000000 0.114133 0.011175 0.000000 3.322438 -0.010297 0.000000 0.115469 0.007209 0.000000 3.318958 0.003714 0.000000 0.121314 0.004402 0.000000 3.307809 0.016449 0.000000 0.127993 0.010305 0.000000 3.286634 0.022192 0.000000 0.133929 0.024646 0.000000 3.256900 0.020180 0.000000 0.139407 0.047194 0.000000 3.220663 0.012085 0.000000 0.143068 0.080077 0.000000 3.177585 -0.000602 0.000000 0.140435 0.124042 0.000000 3.123641 -0.017393 0.000000 0.130668 0.173342 0.000000 3.057515 -0.034920 0.000000 0.115807 0.223355 0.000000 2.978942 -0.048386 0.000000 0.098515 0.273079 0.000000 2.883835 -0.053429 0.000000 0.082241 0.326037 0.000000 2.764542 -0.049176 0.000000 0.068050 0.390939 0.000000 2.614040 -0.036275 0.000000 0.053480 0.478010 0.000000 2.423812 -0.012830 0.000000 0.035592 0.599499 0.000000 
2.287445 0.049340 0.000000 -0.010938 0.920010 0.000000 2.022207 0.066674 0.000000 -0.017804 1.243899 0.000000 1.722544 0.004451 0.000000 -0.019756 -1.314310 0.000000 1.995655 -0.017187 0.000000 -0.008585 -0.956586 0.000000 2.264708 -0.022200 0.000000 0.005654 -0.711073 0.000000 2.493619 -0.026142 0.000000 0.021370 -0.542604 0.000000 2.681063 -0.029322 0.000000 0.038190 -0.423383 0.000000 2.832849 -0.028962 0.000000 0.055762 -0.334469 0.000000 2.952608 -0.023747 0.000000 0.072681 -0.262030 0.000000 3.037977 -0.018017 0.000000 0.091097 -0.208316 0.000000 3.098222 -0.014296 0.000000 0.112560 -0.169867 0.000000 3.142852 -0.011996 0.000000 0.134814 -0.137237 0.000000 3.177950 -0.010234 0.000000 0.150857 -0.101733 0.000000 3.203990 -0.012502 0.000000 0.158041 -0.070333 0.000000 3.229121 -0.017526 0.000000 0.157307 -0.047375 0.000000 3.257638 -0.020214 0.000000 0.150725 -0.029865 0.000000 3.286211 -0.016593 0.000000 0.139757 -0.012421 0.000000 3.304141 -0.010746 0.000000 0.130866 -0.000140 0.000000 3.310815 -0.005407 0.000000 0.129045 0.006443 0.000000 3.308429 0.000591 0.000000 0.134543 0.013748 0.000000 3.296611 0.008427 0.000000 0.142552 0.029589 0.000000 3.271099 0.013152 0.000000 0.151772 0.049195 0.000000 3.236554 0.013474 0.000000 0.161198 0.070194 0.000000 3.198113 0.012610 0.000000 0.167254 0.097258 0.000000 3.156406 0.013724 0.000000 0.163341 0.136195 0.000000 3.106136 0.013612 0.000000 0.148817 0.181759 0.000000 3.047616 0.010943 0.000000 0.126208 0.230414 0.000000 2.980684 0.007842 0.000000 0.098981 0.284894 0.000000 2.900457 0.007032 0.000000 0.070912 0.350827 0.000000 2.798958 0.009509 0.000000 0.044305 0.436098 0.000000 2.668418 0.015432 0.000000 0.019740 0.549559 0.000000 2.501017 0.026875 0.000000 -0.001458 0.702877 0.000000 
2.415859 0.037881 0.000000 0.036733 1.047445 0.000000 2.206450 0.067881 0.000000 0.027708 1.384190 0.000000 1.975040 0.005635 0.000000 0.025761 -1.453935 0.000000 2.178620 -0.016928 0.000000 0.030119 -1.090925 0.000000 2.390015 -0.017199 0.000000 0.037980 -0.827175 0.000000 2.580013 -0.017339 0.000000 0.049758 -0.641812 0.000000 2.743017 -0.015855 0.000000 0.065204 -0.509211 0.000000 2.881328 -0.009343 0.000000 0.082267 -0.408891 0.000000 2.996360 0.002974 0.000000 0.094275 -0.322870 0.000000 3.077474 0.013392 0.000000 0.100806 -0.259991 0.000000 3.136520 0.019088 0.000000 0.108552 -0.214206 0.000000 3.185878 0.020350 0.000000 0.119416 -0.173051 0.000000 3.229204 0.018963 0.000000 0.125711 -0.125205 0.000000 3.256372 0.009854 0.000000 0.125443 -0.084832 0.000000 3.276089 -0.003525 0.000000 0.124776 -0.055671 0.000000 3.297777 -0.013668 0.000000 0.126362 -0.033036 0.000000 3.320709 -0.014492 0.000000 0.124579 -0.009270 0.000000 3.329886 -0.012257 0.000000 0.120401 0.004501 0.000000 3.329327 -0.008475 0.000000 0.120989 0.009595 0.000000 3.327245 -0.001784 0.000000 0.127829 0.016220 0.000000 3.323624 0.008439 0.000000 0.132697 0.035817 0.000000 3.305748 0.012972 0.000000 0.133892 0.059192 0.000000 3.278150 0.010755 0.000000 0.136763 0.085635 0.000000 3.248793 0.006029 0.000000 0.141550 0.121784 0.000000 3.216906 0.003311 0.000000 0.138977 0.174312 0.000000 3.169155 -0.002869 0.000000 0.126636 0.231862 0.000000 3.106751 -0.012310 0.000000 0.110272 0.290287 0.000000 3.035271 -0.021160 0.000000 0.094015 0.353306 0.000000 2.953413 -0.025360 0.000000 0.079695 0.427536 0.000000 2.856018 -0.022569 0.000000 0.067235 0.521479 0.000000 2.737603 -0.011710 0.000000 0.055377 0.645411 0.000000 2.592754 0.008367 0.000000 0.043738 0.813071 0.000000 
2.540725 0.056345 0.000000 0.007418 1.129419 0.000000 2.377699 0.075699 0.000000 0.002453 1.475309 0.000000 2.205050 0.006398 0.000000 0.000649 -1.517890 0.000000 2.345614 -0.021545 0.000000 0.005799 -1.167981 0.000000 2.508512 -0.030061 0.000000 0.015481 -0.901071 0.000000 2.665165 -0.037919 0.000000 0.029778 -0.705607 0.000000 2.805203 -0.044769 0.000000 0.049365 -0.561694 0.000000 2.927696 -0.046025 0.000000 0.071777 -0.449502 0.000000 3.032451 -0.035755 0.000000 0.088238 -0.343143 0.000000 3.096800 -0.024548 0.000000 0.100156 -0.267362 0.000000 3.142315 -0.022042 0.000000 0.115095 -0.219225 0.000000 3.183777 -0.022859 0.000000 0.134004 -0.180563 0.000000 3.224133 -0.016530 0.000000 0.144652 -0.128900 0.000000 3.243224 -0.012234 0.000000 0.146806 -0.090050 0.000000 3.258715 -0.016859 0.000000 0.147609 -0.069063 0.000000 3.281864 -0.021800 0.000000 0.149651 -0.052797 0.000000 3.309932 -0.014810 0.000000 0.144139 -0.021597 0.000000 3.317581 -0.006568 0.000000 0.136050 0.000419 0.000000 3.316554 -0.005995 0.000000 0.135080 0.008525 0.000000 3.316502 -0.006248 0.000000 0.142924 0.017370 0.000000 3.315861 0.003558 0.000000 0.147258 0.047466 0.000000 3.293513 0.011957 0.000000 0.148932 0.076792 0.000000 3.262976 0.010603 0.000000 0.153858 0.099551 0.000000 3.235343 0.007823 0.000000 0.160814 0.129146 0.000000 3.208991 0.016296 0.000000 0.155532 0.183946 0.000000 3.163282 0.025954 0.000000 0.137827 0.244163 0.000000 3.106501 0.027307 0.000000 0.114737 0.301894 0.000000 3.045800 0.024099 0.000000 0.090951 0.366752 0.000000 2.978908 0.021352 0.000000 0.068546 0.448222 0.000000 2.899804 0.021970 0.000000 0.048210 0.554513 0.000000 2.802845 0.027289 0.000000 0.030268 0.694408 0.000000 2.683858 0.038514 0.000000 0.015871 0.879772 0.000000 
2.677802 0.046335 0.000000 0.043675 1.210471 0.000000 2.557073 0.072845 0.000000 0.039104 1.556839 0.000000 2.435585 0.007439 0.000000 0.037434 -1.594498 0.000000 2.527207 -0.022078 0.000000 0.038053 -1.253823 0.000000 2.644211 -0.026881 0.000000 0.041894 -0.983828 0.000000 2.765121 -0.031636 0.000000 0.051035 -0.781850 0.000000 2.880827 -0.035441 0.000000 0.068976 -0.631705 0.000000 2.990853 -0.031755 0.000000 0.095909 -0.513645 0.000000 3.096875 -0.013487 0.000000 0.114036 -0.387219 0.000000 3.148742 0.001473 0.000000 0.108649 -0.305507 0.000000 3.183491 0.004149 0.000000 0.108692 -0.255667 0.000000 3.226308 0.001440 0.000000 0.124628 -0.213407 0.000000 3.279296 0.008316 0.000000 0.135202 -0.144296 0.000000 3.292531 0.007700 0.000000 0.124009 -0.100323 0.000000 3.296946 -0.004328 0.000000 0.119048 -0.078821 0.000000 3.316831 -0.015710 0.000000 0.130463 -0.061103 0.000000 3.351533 -0.008980 0.000000 0.136683 -0.016919 0.000000 3.349575 -0.004169 0.000000 0.123212 0.005528 0.000000 3.337438 -0.007505 0.000000 0.118919 0.009647 0.000000 3.339086 -0.009628 0.000000 0.133403 0.016861 0.000000 3.353851 0.004106 0.000000 0.143414 0.058165 0.000000 3.332947 0.011298 0.000000 0.133319 0.089729 0.000000 3.301046 0.005829 0.000000 0.130648 0.113268 0.000000 3.281748 -0.000927 0.000000 0.143949 0.148136 0.000000 3.273041 0.008593 0.000000 0.148835 0.220021 0.000000 3.228001 0.014836 0.000000 0.127698 0.288644 0.000000 3.164089 0.010780 0.000000 0.104238 0.350988 0.000000 3.101504 0.002625 0.000000 0.086462 0.420197 0.000000 3.038124 -0.002954 0.000000 0.073862 0.506640 0.000000 2.967661 -0.002233 0.000000 0.064272 0.618438 0.000000 2.885457 0.006232 0.000000 0.056063 0.764397 0.000000 2.788919 0.022764 0.000000 0.048886 0.956204 0.000000 
2.805269 0.061556 0.000000 0.021611 1.250148 0.000000 2.722407 0.080270 0.000000 0.018743 1.596797 0.000000 2.645521 0.008068 0.000000 0.017291 -1.609512 0.000000 2.692492 -0.022163 0.000000 0.017435 -1.284984 0.000000 2.769927 -0.033903 0.000000 0.021891 -1.021981 0.000000 2.859506 -0.047060 0.000000 0.033182 -0.821313 0.000000 2.951527 -0.062709 0.000000 0.056775 -0.671720 0.000000 3.045290 -0.072959 0.000000 0.093009 -0.555524 0.000000 3.149436 -0.053882 0.000000 0.115461 -0.395011 0.000000 3.172856 -0.019161 0.000000 0.107895 -0.302110 0.000000 3.191399 -0.022085 0.000000 0.111768 -0.262042 0.000000 3.229406 -0.038795 0.000000 0.138377 -0.233551 0.000000 3.289775 -0.027104 0.000000 0.152167 -0.142135 0.000000 3.283754 -0.001041 0.000000 0.138312 -0.094465 0.000000 3.280704 -0.011899 0.000000 0.134489 -0.088948 0.000000 3.304326 -0.033215 0.000000 0.152074 -0.087499 0.000000 3.352951 -0.021030 0.000000 0.155497 -0.019640 0.000000 3.337050 0.006903 0.000000 0.135489 0.012556 0.000000 3.320988 -0.001701 0.000000 0.130208 0.006877 0.000000 3.328288 -0.020733 0.000000 0.150554 0.002605 0.000000 3.356661 -0.006453 0.000000 0.158644 0.068370 0.000000 3.321852 0.022051 0.000000 0.144396 0.108693 0.000000 3.286338 0.013275 0.000000 0.142608 0.118849 0.000000 3.274648 -0.005478 0.000000 0.161993 0.137852 0.000000 3.282332 0.011410 0.000000 0.162883 0.228987 0.000000 3.229638 0.047091 0.000000 0.133824 0.308074 0.000000 3.167801 0.050766 0.000000 0.103719 0.364479 0.000000 3.116294 0.041875 0.000000 0.080508 0.430132 0.000000 3.068804 0.033953 0.000000 0.062837 0.518685 0.000000 3.017111 0.031560 0.000000 0.048518 0.636718 0.000000 2.956478 0.035498 0.000000 0.036619 0.790945 0.000000 2.885355 0.045691 0.000000 0.027435 0.990889 0.000000 
2.941396 0.052159 0.000000 0.050038 1.293333 0.000000 2.892126 0.075713 0.000000 0.048532 1.633725 0.000000 2.854647 0.008892 0.000000 0.047278 -1.641469 0.000000 2.864294 -0.022223 0.000000 0.043589 -1.331257 0.000000 2.904469 -0.031337 0.000000 0.041273 -1.073407 0.000000 2.961511 -0.042926 0.000000 0.043402 -0.873871 0.000000 3.029336 -0.059035 0.000000 0.060764 -0.725469 0.000000 3.113709 -0.067989 0.000000 0.111436 -0.617791 0.000000 3.248321 -0.035939 0.000000 0.172614 -0.410638 0.000000 3.231731 0.009040 0.000000 0.113422 -0.324050 0.000000 3.222436 0.000275 0.000000 0.088549 -0.293673 0.000000 3.264114 -0.025169 0.000000 0.124840 -0.273776 0.000000 3.369082 -0.005474 0.000000 0.179999 -0.138274 0.000000 3.330845 0.021555 0.000000 0.119022 -0.097274 0.000000 3.301344 -0.000505 0.000000 0.092734 -0.102443 0.000000 3.328254 -0.033296 0.000000 0.128179 -0.109728 0.000000 3.420551 -0.012402 0.000000 0.181469 -0.001018 0.000000 3.372139 0.015839 0.000000 0.119780 0.021591 0.000000 3.330140 -0.002224 0.000000 0.094053 0.002346 0.000000 3.344654 -0.029974 0.000000 0.131322 -0.011511 0.000000 3.422471 -0.003983 0.000000 0.186577 0.092974 0.000000 3.363758 0.025546 0.000000 0.128388 0.125243 0.000000 3.309376 0.007616 0.000000 0.104635 0.124957 0.000000 3.310725 -0.020312 0.000000 0.141614 0.140453 0.000000 3.370517 0.007702 0.000000 0.194952 0.272714 0.000000 3.299360 0.043895 0.000000 0.133813 0.350481 0.000000 3.217542 0.040885 0.000000 0.091550 0.402495 0.000000 3.167916 0.025836 0.000000 0.072408 0.467687 0.000000 3.129374 0.014716 0.000000 0.063947 0.558334 0.000000 3.089645 0.012087 0.000000 0.059177 0.679071 0.000000 3.044675 0.018131 0.000000 0.055477 0.835520 0.000000 2.994364 0.031947 0.000000 0.052354 1.036291 0.000000 
3.064603 0.063871 0.000000 0.032931 1.299417 0.000000 3.046658 0.081776 0.000000 0.032298 1.634276 0.000000 3.044611 0.009323 0.000000 0.031298 -1.619159 0.000000 3.019988 -0.018475 0.000000 0.026557 -1.325159 0.000000 3.027654 -0.031587 0.000000 0.022968 -1.079024 0.000000 3.056832 -0.049189 0.000000 0.023802 -0.889138 0.000000 3.102304 -0.080071 0.000000 0.044629 -0.756093 0.000000 3.170178 -0.123631 0.000000 0.114589 -0.690136 0.000000 3.336183 -0.115060 0.000000 0.198736 -0.378421 0.000000 3.247410 0.040031 0.000000 0.102912 -0.292815 0.000000 3.222569 0.002787 0.000000 0.077501 -0.303720 0.000000 3.266727 -0.075086 0.000000 0.138422 -0.338520 0.000000 3.418089 -0.082263 0.000000 0.209270 -0.103898 0.000000 3.312519 0.059936 0.000000 0.120521 -0.064964 0.000000 3.275360 0.014390 0.000000 0.093033 -0.115858 0.000000 3.314016 -0.068660 0.000000 0.149944 -0.179796 0.000000 3.460530 -0.074321 0.000000 0.210296 0.028772 0.000000 3.346618 0.068593 0.000000 0.122063 0.054555 0.000000 3.300192 0.024025 0.000000 0.093710 -0.007637 0.000000 3.330097 -0.058002 0.000000 0.151211 -0.075213 0.000000 3.463762 -0.061707 0.000000 0.210693 0.127083 0.000000 3.340466 0.080240 0.000000 0.130256 0.163075 0.000000 3.283206 0.037028 0.000000 0.105187 0.117500 0.000000 3.304386 -0.042458 0.000000 0.161655 0.078060 0.000000 3.424330 -0.041928 0.000000 0.213969 0.300143 0.000000 3.295506 0.108230 0.000000 0.134075 0.389892 0.000000 3.215182 0.093030 0.000000 0.084551 0.414105 0.000000 3.182274 0.061017 0.000000 0.063022 0.468674 0.000000 3.162481 0.042414 0.000000 0.052696 0.558413 0.000000 3.141871 0.036330 0.000000 0.045727 0.681688 0.000000 3.117467 0.039198 0.000000 0.039993 0.841257 0.000000 3.090460 0.048814 0.000000 0.035578 1.043857 0.000000 
3.194607 0.054806 0.000000 0.056055 1.311278 0.000000 3.203742 0.076345 0.000000 0.057410 1.635772 0.000000 3.232740 0.009893 0.000000 0.056650 -1.616846 0.000000 3.178403 -0.017482 0.000000 0.049407 -1.338924 0.000000 3.154363 -0.027749 0.000000 0.038768 -1.102585 0.000000 3.150447 -0.043760 0.000000 0.022733 -0.919344 0.000000 3.163017 -0.079861 0.000000 0.009982 -0.793342 0.000000 3.215388 -0.137950 0.000000 0.060892 -0.783797 0.000000 3.541495 -0.120086 0.000000 0.409522 -0.321866 0.000000 3.284177 0.104864 0.000000 0.075984 -0.299209 0.000000 3.209941 0.025686 0.000000 -0.004213 -0.337832 0.000000 3.263693 -0.086090 0.000000 0.048233 -0.425138 0.000000 3.607981 -0.076322 0.000000 0.404057 -0.032704 0.000000 3.332194 0.110305 0.000000 0.075543 -0.060115 0.000000 3.246313 0.026982 0.000000 -0.004059 -0.141100 0.000000 3.296498 -0.090206 0.000000 0.048289 -0.256242 0.000000 3.643850 -0.072754 0.000000 0.405484 0.112894 0.000000 3.357198 0.104072 0.000000 0.078356 0.068017 0.000000 3.261833 0.026129 0.000000 -0.000981 -0.027559 0.000000 3.306915 -0.087475 0.000000 0.050870 -0.145176 0.000000 3.646906 -0.063465 0.000000 0.406306 0.216270 0.000000 3.357572 0.105983 0.000000 0.088537 0.182502 0.000000 3.256029 0.032685 0.000000 0.012333 0.103777 0.000000 3.298251 -0.076779 0.000000 0.060821 0.020509 0.000000 3.627516 -0.044612 0.000000 0.412374 0.401538 0.000000 3.349647 0.123788 0.000000 0.118094 0.430805 0.000000 3.236874 0.090409 0.000000 0.050916 0.435403 0.000000 3.225247 0.047366 0.000000 0.045626 0.487481 0.000000 3.222386 0.025042 0.000000 0.049512 0.578944 0.000000 3.215728 0.019056 0.000000 0.052714 0.703474 0.000000 3.206401 0.023865 0.000000 0.054375 0.862527 0.000000 3.197782 0.036363 0.000000 0.055246 1.062148 0.000000 
3.309869 0.063062 0.000000 0.042788 1.290282 0.000000 3.344992 0.080421 0.000000 0.044980 1.605278 0.000000 3.402814 0.010082 0.000000 0.044503 -1.564822 0.000000 3.320300 -0.011231 0.000000 0.036985 -1.301119 0.000000 3.268082 -0.020949 0.000000 0.024670 -1.075108 0.000000 3.237750 -0.033153 0.000000 0.001371 -0.901708 0.000000 3.228074 -0.067320 0.000000 -0.032041 -0.808463 0.000000 3.264401 -0.174541 0.000000 0.024995 -1.016243 0.000000 3.510632 -0.463690 0.000000 0.303961 -0.121102 0.000000 3.221374 0.373569 0.000000 -0.011860 -0.218579 0.000000 3.187073 0.082984 0.000000 -0.059360 -0.357472 0.000000 3.251185 -0.127532 0.000000 0.037628 -0.682808 0.000000 3.587097 -0.438086 0.000000 0.377536 0.171889 0.000000 3.232455 0.388450 0.000000 0.015963 0.020917 0.000000 3.192218 0.093992 0.000000 -0.044497 -0.166042 0.000000 3.261054 -0.121008 0.000000 0.057144 -0.527148 0.000000 3.636533 -0.431516 0.000000 0.419858 0.315424 0.000000 3.245333 0.395721 0.000000 0.030275 0.149920 0.000000 3.198839 0.103362 0.000000 -0.037246 -0.052719 0.000000 3.266474 -0.109854 0.000000 0.066999 -0.415203 0.000000 3.659358 -0.417143 0.000000 0.448359 0.416417 0.000000 3.247667 0.398009 0.000000 0.048759 0.264619 0.000000 3.195362 0.113232 0.000000 -0.018870 0.075278 0.000000 3.264681 -0.090946 0.000000 0.087500 -0.251205 0.000000 3.683876 -0.393481 0.000000 0.500091 0.578012 0.000000 3.267497 0.402511 0.000000 0.097111 0.502665 0.000000 3.214085 0.160207 0.000000 0.030128 0.425733 0.000000 3.239421 0.066307 0.000000 0.031657 0.471534 0.000000 3.258399 0.038528 0.000000 0.038270 0.565071 0.000000 3.269459 0.033128 0.000000 0.041422 0.691015 0.000000 3.278283 0.037537 0.000000 0.042107 0.849876 0.000000 3.289951 0.047943 0.000000 0.042147 1.047032 0.000000 