# vtk DataFile Version 2.0
Comment goes here
ASCII

DATASET STRUCTURED_POINTS
FIELD FieldData 1
TIME 1 1 double
0.04200000
DIMENSIONS    64   64   1

ORIGIN    0.000   0.000   0.000
SPACING   0.03125 0.03125   1.000

POINT_DATA   4096
SCALARS uX double
LOOKUP_TABLE default

6.981158e-01 -1.203897e+00 3.923149e-01 -1.065316e+00 1.525313e-01 -9.568006e-01 1.872984e-01 -8.665485e-01 2.187419e-01 -8.396632e-01 2.709213e-01 -8.343502e-01 2.852832e-01 -7.704672e-01 2.117269e-01 -6.285096e-01 6.186179e-02 -4.325290e-01 -1.242545e-01 -2.304895e-01 -2.895633e-01 -6.807690e-02 -4.125811e-01 5.716589e-02 -5.045229e-01 1.536571e-01 -5.709655e-01 2.233194e-01 -6.140211e-01 2.704434e-01 -6.388440e-01 2.958875e-01 -6.440400e-01 2.975075e-01 -6.354850e-01 2.914380e-01 -6.354506e-01 2.985821e-01 -6.557560e-01 3.242782e-01 -6.984862e-01 3.673450e-01 -7.481385e-01 4.017585e-01 -7.752181e-01 4.016744e-01 -7.580967e-01 3.527887e-01 -6.893813e-01 2.506673e-01 -5.731839e-01 1.042270e-01 -4.270933e-01 -6.846448e-02 -2.629652e-01 -2.605705e-01 -9.084422e-02 -4.636324e-01 8.832563e-02 -6.920134e-01 2.891020e-01 -9.467199e-01 4.895208e-01 -1.194061e+00 
-5.870285e-01 3.706670e-01 -2.606817e-01 2.873310e-01 -2.832168e-02 2.309447e-01 -1.634920e-01 1.676156e-01 -2.503768e-01 1.469515e-01 -3.293024e-01 1.431159e-01 -3.733408e-01 1.059004e-01 -3.592770e-01 2.568838e-02 -2.978178e-01 -8.328365e-02 -2.136935e-01 -1.938522e-01 -1.419897e-01 -2.806710e-01 -9.268884e-02 -3.485165e-01 -5.727636e-02 -4.029160e-01 -3.268391e-02 -4.443253e-01 -1.707176e-02 -4.760362e-01 -5.935412e-03 -4.980615e-01 -1.237207e-03 -5.058388e-01 -2.608238e-03 -5.070588e-01 2.166205e-03 -5.137104e-01 1.787580e-02 -5.273034e-01 4.433877e-02 -5.475048e-01 7.180685e-02 -5.586556e-01 8.315915e-02 -5.481019e-01 6.885430e-02 -5.098246e-01 2.630531e-02 -4.424716e-01 -3.971333e-02 -3.512414e-01 -1.160129e-01 -2.478961e-01 -1.955068e-01 -1.361055e-01 -2.712782e-01 -2.191142e-02 -3.412921e-01 1.048674e-01 -4.145186e-01 2.454261e-01 -4.768406e-01 3.839408e-01 
7.458071e-01 6.062691e-01 7.630137e-01 5.016997e-01 5.859007e-01 4.166086e-01 9.645410e-01 3.815863e-01 1.200697e+00 3.689663e-01 1.339828e+00 3.670920e-01 1.457148e+00 3.209990e-01 1.606716e+00 2.204850e-01 1.787248e+00 8.706781e-02 1.976000e+00 -4.439741e-02 2.134645e+00 -1.389887e-01 2.254245e+00 -2.030969e-01 2.347216e+00 -2.460071e-01 2.417886e+00 -2.710775e-01 2.468215e+00 -2.844754e-01 2.502186e+00 -2.895471e-01 2.517549e+00 -2.842038e-01 2.516138e+00 -2.792622e-01 2.514951e+00 -2.888663e-01 2.523128e+00 -3.136356e-01 2.543566e+00 -3.514131e-01 2.565634e+00 -3.809918e-01 2.567766e+00 -3.819483e-01 2.535454e+00 -3.467650e-01 2.462991e+00 -2.750505e-01 2.351499e+00 -1.760549e-01 2.211722e+00 -6.496788e-02 2.048632e+00 5.390956e-02 1.866671e+00 1.745209e-01 1.662187e+00 3.104230e-01 1.415123e+00 4.691920e-01 1.128379e+00 6.357478e-01 
2.503388e+00 -6.262461e-02 1.741455e+00 -8.623895e-02 8.218285e-01 -3.216441e-02 1.814664e+00 -1.359399e-03 2.406408e+00 4.821584e-03 2.828437e+00 -6.498776e-04 3.136894e+00 1.268348e-02 3.351668e+00 4.715024e-02 3.498031e+00 9.369616e-02 3.598537e+00 1.373149e-01 3.681951e+00 1.639009e-01 3.757362e+00 1.801801e-01 3.820201e+00 1.913347e-01 3.869969e+00 1.983088e-01 3.908766e+00 2.044765e-01 3.936895e+00 2.099694e-01 3.958303e+00 2.101774e-01 3.973999e+00 2.095583e-01 3.976855e+00 2.148661e-01 3.965807e+00 2.251911e-01 3.940266e+00 2.412458e-01 3.903236e+00 2.542450e-01 3.862954e+00 2.578279e-01 3.822404e+00 2.496271e-01 3.779946e+00 2.292548e-01 3.729592e+00 2.006296e-01 3.660905e+00 1.715033e-01 3.568430e+00 1.422579e-01 3.444392e+00 1.152730e-01 3.280884e+00 7.856978e-02 3.075465e+00 2.289834e-02 2.802445e+00 -5.668459e-02 
2.501088e+00 3.077472e-02 1.910546e+00 -1.901702e-02 1.172857e+00 6.263320e-03 1.955789e+00 6.468041e-03 2.482381e+00 2.164324e-02 2.867372e+00 3.574312e-02 3.156307e+00 5.837051e-02 3.370815e+00 8.845293e-02 3.530891e+00 1.192069e-01 3.649803e+00 1.451351e-01 3.744155e+00 1.598539e-01 3.821222e+00 1.678311e-01 3.881868e+00 1.715985e-01 3.927484e+00 1.728659e-01 3.960924e+00 1.744891e-01 3.985263e+00 1.773410e-01 4.004058e+00 1.786987e-01 4.017582e+00 1.809998e-01 4.022448e+00 1.876125e-01 4.018874e+00 1.966817e-01 4.005618e+00 2.071843e-01 3.980963e+00 2.148993e-01 3.946941e+00 2.165970e-01 3.904636e+00 2.119096e-01 3.853046e+00 2.000660e-01 3.787817e+00 1.837460e-01 3.702801e+00 1.676763e-01 3.595304e+00 1.523127e-01 3.459833e+00 1.391019e-01 3.288942e+00 1.226753e-01 3.076461e+00 9.486797e-02 2.806672e+00 4.569383e-02 
2.586063e+00 -4.188475e-02 2.094260e+00 -4.257166e-02 1.505125e+00 -4.518757e-02 2.082111e+00 -1.444874e-02 2.563106e+00 3.446801e-03 2.930337e+00 1.684215e-02 3.207970e+00 3.737058e-02 3.414023e+00 6.698164e-02 3.564412e+00 1.009953e-01 3.672020e+00 1.333511e-01 3.753939e+00 1.587204e-01 3.820871e+00 1.775407e-01 3.875525e+00 1.911101e-01 3.917151e+00 2.015618e-01 3.948795e+00 2.101242e-01 3.973595e+00 2.160301e-01 3.993104e+00 2.177880e-01 4.004919e+00 2.188040e-01 4.007601e+00 2.226818e-01 4.001402e+00 2.294286e-01 3.985464e+00 2.373234e-01 3.958162e+00 2.437688e-01 3.922868e+00 2.459111e-01 3.882645e+00 2.409247e-01 3.836541e+00 2.265577e-01 3.778705e+00 2.046418e-01 3.703999e+00 1.783783e-01 3.608891e+00 1.491385e-01 3.488525e+00 1.173038e-01 3.336636e+00 7.960910e-02 3.145643e+00 3.421325e-02 2.901138e+00 -1.535537e-02 
2.682487e+00 4.234822e-02 2.294434e+00 2.096671e-02 1.829540e+00 1.808451e-02 2.266431e+00 2.385042e-02 2.660462e+00 3.438812e-02 2.978246e+00 4.981755e-02 3.228728e+00 7.156263e-02 3.424554e+00 9.744057e-02 3.576956e+00 1.217819e-01 3.690665e+00 1.414461e-01 3.777462e+00 1.556661e-01 3.847787e+00 1.657506e-01 3.905571e+00 1.712410e-01 3.947983e+00 1.740447e-01 3.977794e+00 1.771623e-01 4.000957e+00 1.811939e-01 4.020185e+00 1.836938e-01 4.031033e+00 1.861451e-01 4.032669e+00 1.912676e-01 4.028418e+00 1.985087e-01 4.018701e+00 2.046021e-01 3.998411e+00 2.081651e-01 3.967537e+00 2.092054e-01 3.929262e+00 2.067151e-01 3.883152e+00 1.977081e-01 3.822170e+00 1.832368e-01 3.741772e+00 1.668180e-01 3.641835e+00 1.503571e-01 3.520061e+00 1.343144e-01 3.371423e+00 1.162906e-01 3.189492e+00 9.296604e-02 2.964532e+00 6.304449e-02 
2.828779e+00 -9.428966e-04 2.508238e+00 -7.305300e-03 2.136058e+00 -1.030604e-02 2.458564e+00 2.036890e-03 2.787920e+00 1.673170e-02 3.070741e+00 3.393121e-02 3.299895e+00 5.675074e-02 3.481354e+00 8.417738e-02 3.622319e+00 1.110845e-01 3.721798e+00 1.359059e-01 3.795569e+00 1.574317e-01 3.856889e+00 1.753275e-01 3.909566e+00 1.874830e-01 3.945863e+00 1.970257e-01 3.971816e+00 2.057894e-01 3.994343e+00 2.131411e-01 4.014264e+00 2.158095e-01 4.022147e+00 2.176762e-01 4.020983e+00 2.217674e-01 4.015648e+00 2.276117e-01 4.006022e+00 2.309463e-01 3.983683e+00 2.328022e-01 3.952721e+00 2.330832e-01 3.918330e+00 2.291665e-01 3.879237e+00 2.158089e-01 3.824803e+00 1.949056e-01 3.753601e+00 1.696578e-01 3.666492e+00 1.422627e-01 3.561347e+00 1.135024e-01 3.433205e+00 8.265291e-02 3.275267e+00 4.973537e-02 3.078133e+00 1.828419e-02 
2.969665e+00 5.711147e-02 2.719490e+00 4.428150e-02 2.434614e+00 4.138240e-02 2.669141e+00 4.234917e-02 2.923160e+00 4.860937e-02 3.155158e+00 6.196819e-02 3.353541e+00 8.347581e-02 3.520080e+00 1.102173e-01 3.658723e+00 1.327149e-01 3.756235e+00 1.463525e-01 3.826456e+00 1.570245e-01 3.887114e+00 1.686334e-01 3.943429e+00 1.753860e-01 3.979584e+00 1.762219e-01 4.000800e+00 1.784781e-01 4.020996e+00 1.852494e-01 4.043658e+00 1.891360e-01 4.052214e+00 1.889627e-01 4.048358e+00 1.918411e-01 4.044224e+00 2.000599e-01 4.042143e+00 2.051154e-01 4.025893e+00 2.045272e-01 3.995805e+00 2.042127e-01 3.962911e+00 2.057544e-01 3.928190e+00 2.000011e-01 3.875147e+00 1.839924e-01 3.799662e+00 1.641623e-01 3.710179e+00 1.450571e-01 3.607812e+00 1.277796e-01 3.488548e+00 1.108829e-01 3.346900e+00 9.256431e-02 3.176529e+00 7.305712e-02 
3.132555e+00 2.656445e-02 2.934611e+00 2.146233e-02 2.715922e+00 1.877616e-02 2.878943e+00 2.215608e-02 3.076358e+00 3.173716e-02 3.269278e+00 4.823330e-02 3.441143e+00 7.344473e-02 3.590290e+00 1.039381e-01 3.719205e+00 1.284750e-01 3.796321e+00 1.451773e-01 3.850569e+00 1.606395e-01 3.903509e+00 1.787818e-01 3.958858e+00 1.893695e-01 3.983747e+00 1.946555e-01 3.998140e+00 2.016147e-01 4.018504e+00 2.126172e-01 4.045629e+00 2.156905e-01 4.046611e+00 2.147866e-01 4.038343e+00 2.176657e-01 4.035816e+00 2.263491e-01 4.039234e+00 2.277342e-01 4.017864e+00 2.247026e-01 3.987268e+00 2.235349e-01 3.961215e+00 2.245489e-01 3.937841e+00 2.129310e-01 3.887122e+00 1.897720e-01 3.818247e+00 1.619903e-01 3.741442e+00 1.345313e-01 3.656694e+00 1.087717e-01 3.558955e+00 8.416330e-02 3.442479e+00 6.063039e-02 3.301873e+00 4.021847e-02 
3.287300e+00 6.983063e-02 3.142825e+00 6.348180e-02 2.989161e+00 6.103028e-02 3.090499e+00 5.741422e-02 3.228171e+00 5.866452e-02 3.374532e+00 6.803797e-02 3.515202e+00 9.064687e-02 3.648356e+00 1.272284e-01 3.779221e+00 1.601107e-01 3.846471e+00 1.584026e-01 3.885157e+00 1.564325e-01 3.934384e+00 1.733647e-01 4.000483e+00 1.907540e-01 4.023091e+00 1.798935e-01 4.024343e+00 1.731020e-01 4.041977e+00 1.877316e-01 4.080803e+00 2.028365e-01 4.082563e+00 1.911361e-01 4.063662e+00 1.845962e-01 4.061600e+00 1.999662e-01 4.080297e+00 2.150686e-01 4.064639e+00 2.029233e-01 4.026602e+00 1.946578e-01 4.002313e+00 2.063737e-01 3.993248e+00 2.147253e-01 3.948280e+00 1.906389e-01 3.869574e+00 1.601330e-01 3.790337e+00 1.359840e-01 3.711772e+00 1.185738e-01 3.626869e+00 1.047029e-01 3.529904e+00 9.193056e-02 3.417274e+00 7.987971e-02 
3.450185e+00 4.695664e-02 3.348173e+00 4.484153e-02 3.245635e+00 4.269621e-02 3.297244e+00 3.963733e-02 3.389544e+00 4.234876e-02 3.499585e+00 5.428228e-02 3.612898e+00 8.274949e-02 3.728241e+00 1.277351e-01 3.862239e+00 1.671891e-01 3.890851e+00 1.593323e-01 3.908426e+00 1.575557e-01 3.954366e+00 1.841113e-01 4.035578e+00 2.064752e-01 4.028411e+00 1.933711e-01 4.018387e+00 1.889759e-01 4.041366e+00 2.124532e-01 4.100776e+00 2.276155e-01 4.075999e+00 2.106357e-01 4.049251e+00 2.035674e-01 4.055620e+00 2.248176e-01 4.096763e+00 2.364846e-01 4.058047e+00 2.177500e-01 4.016999e+00 2.081439e-01 4.007202e+00 2.244162e-01 4.025628e+00 2.263364e-01 3.964835e+00 1.921267e-01 3.887818e+00 1.534452e-01 3.822462e+00 1.231892e-01 3.763534e+00 1.007731e-01 3.701133e+00 8.276245e-02 3.629286e+00 6.738403e-02 3.545505e+00 5.503621e-02 
3.605317e+00 8.072727e-02 3.546001e+00 7.959027e-02 3.493943e+00 7.776221e-02 3.498269e+00 6.938307e-02 3.542218e+00 6.245628e-02 3.610074e+00 6.059990e-02 3.692719e+00 7.747449e-02 3.795382e+00 1.356351e-01 3.959739e+00 2.499532e-01 3.955433e+00 1.757915e-01 3.932138e+00 1.277402e-01 3.977626e+00 1.594134e-01 4.103093e+00 2.585236e-01 4.076165e+00 1.850268e-01 4.028383e+00 1.373842e-01 4.053735e+00 1.695767e-01 4.159789e+00 2.662410e-01 4.120842e+00 1.940676e-01 4.057991e+00 1.469299e-01 4.069659e+00 1.793167e-01 4.159752e+00 2.739111e-01 4.113119e+00 2.036511e-01 4.038917e+00 1.569283e-01 4.037300e+00 1.880503e-01 4.105042e+00 2.792243e-01 4.044538e+00 2.095242e-01 3.934624e+00 1.479318e-01 3.868259e+00 1.176956e-01 3.821138e+00 1.040579e-01 3.775087e+00 9.636392e-02 3.723812e+00 9.026072e-02 3.666497e+00 8.488222e-02 
3.760935e+00 6.306050e-02 3.736784e+00 6.472047e-02 3.725848e+00 6.325851e-02 3.692415e+00 5.489352e-02 3.699749e+00 4.705822e-02 3.735910e+00 4.308566e-02 3.792947e+00 6.145301e-02 3.877387e+00 1.271042e-01 4.096798e+00 3.048440e-01 3.983372e+00 1.651425e-01 3.939324e+00 1.085712e-01 3.994042e+00 1.585484e-01 4.197953e+00 3.023049e-01 4.060352e+00 1.846651e-01 4.003134e+00 1.332088e-01 4.048597e+00 1.835155e-01 4.242758e+00 3.106654e-01 4.090268e+00 1.997060e-01 4.022381e+00 1.476395e-01 4.059577e+00 1.958158e-01 4.241724e+00 3.110222e-01 4.083576e+00 2.066149e-01 4.009317e+00 1.552680e-01 4.041460e+00 2.012696e-01 4.208360e+00 3.016620e-01 4.044138e+00 2.048898e-01 3.937883e+00 1.337430e-01 3.895387e+00 1.010524e-01 3.873065e+00 8.652901e-02 3.850413e+00 7.776839e-02 3.822971e+00 7.085188e-02 3.791887e+00 6.566655e-02 
3.909564e+00 9.068363e-02 3.920079e+00 9.481717e-02 3.949521e+00 9.374296e-02 3.878045e+00 8.320472e-02 3.843986e+00 6.706148e-02 3.836545e+00 3.970660e-02 3.851951e+00 2.677330e-03 3.924658e+00 -5.098301e-03 4.303907e+00 6.291417e-01 4.039638e+00 1.522014e-01 3.905408e+00 -7.814901e-03 3.978037e+00 -2.392862e-02 4.382719e+00 6.155976e-01 4.099342e+00 1.584159e-01 3.949602e+00 -2.910630e-04 4.016519e+00 -1.963350e-02 4.422778e+00 6.176437e-01 4.127900e+00 1.695464e-01 3.965384e+00 1.056758e-02 4.027054e+00 -1.204322e-02 4.425701e+00 6.139946e-01 4.131631e+00 1.813374e-01 3.963497e+00 2.527573e-02 4.024804e+00 -2.671118e-03 4.412165e+00 6.056550e-01 4.134459e+00 2.160594e-01 3.948713e+00 9.423475e-02 3.930307e+00 7.893303e-02 3.930998e+00 8.235361e-02 3.926993e+00 8.616642e-02 3.919155e+00 8.813497e-02 3.911609e+00 8.920758e-02 
4.054221e+00 7.710235e-02 4.093874e+00 8.370263e-02 4.157060e+00 8.304435e-02 4.054286e+00 7.433103e-02 3.988482e+00 5.867887e-02 3.951266e+00 2.575088e-02 3.942530e+00 -2.993049e-02 3.987972e+00 9.700313e-04 4.234234e+00 4.228686e-01 3.913644e+00 -5.245442e-03 3.876693e+00 -8.176358e-02 3.967234e+00 2.634921e-03 4.353221e+00 5.664120e-01 3.934460e+00 5.304584e-02 3.880545e+00 -5.346101e-02 3.975653e+00 3.201357e-02 4.420563e+00 6.545531e-01 3.947684e+00 9.141845e-02 3.880391e+00 -3.346106e-02 3.976251e+00 4.795533e-02 4.454678e+00 7.101990e-01 3.956666e+00 1.203842e-01 3.880257e+00 -1.499791e-02 3.983498e+00 6.046144e-02 4.511314e+00 7.913453e-01 4.007029e+00 1.878725e-01 3.915080e+00 5.944727e-02 3.955572e+00 5.572311e-02 3.986233e+00 6.524670e-02 4.003325e+00 7.079659e-02 4.015832e+00 7.297631e-02 4.030693e+00 7.438675e-02 
4.192278e+00 1.006751e-01 4.260204e+00 1.104567e-01 4.356328e+00 1.102154e-01 4.224837e+00 1.050364e-01 4.125984e+00 9.604552e-02 4.041074e+00 7.619123e-02 3.929333e+00 9.547024e-03 3.674471e+00 -2.173176e-01 2.690510e+00 -1.428667e+00 3.423335e+00 -5.113780e-01 3.740659e+00 -1.889787e-01 3.595745e+00 -2.907726e-01 2.709635e+00 -1.344098e+00 3.405857e+00 -4.852736e-01 3.719026e+00 -1.815405e-01 3.581622e+00 -2.802616e-01 2.743581e+00 -1.275539e+00 3.398227e+00 -4.591536e-01 3.711579e+00 -1.656993e-01 3.583456e+00 -2.534057e-01 2.803095e+00 -1.194148e+00 3.403602e+00 -4.215415e-01 3.717859e+00 -1.349534e-01 3.611067e+00 -1.963581e-01 2.943549e+00 -1.055870e+00 3.478155e+00 -3.592426e-01 3.875257e+00 -7.495443e-02 4.001113e+00 2.271267e-02 4.050899e+00 6.105264e-02 4.081360e+00 7.844376e-02 4.109870e+00 8.771791e-02 4.144623e+00 9.418239e-02 
4.323634e+00 9.029252e-02 4.415638e+00 1.019594e-01 4.539674e+00 1.021278e-01 4.381573e+00 1.004209e-01 4.252478e+00 9.943741e-02 4.127157e+00 9.904146e-02 3.947057e+00 6.089535e-02 3.566695e+00 -2.263240e-01 2.371664e+00 -1.778647e+00 3.283386e+00 -5.455455e-01 3.677150e+00 -1.720519e-01 3.416556e+00 -3.969031e-01 2.089624e+00 -1.997903e+00 3.229550e+00 -6.164890e-01 3.645567e+00 -2.050905e-01 3.376314e+00 -4.467133e-01 1.966764e+00 -2.096275e+00 3.210871e+00 -6.459447e-01 3.640692e+00 -2.165952e-01 3.370931e+00 -4.606892e-01 1.934515e+00 -2.139065e+00 3.218375e+00 -6.592737e-01 3.663023e+00 -2.180854e-01 3.405964e+00 -4.492540e-01 1.980783e+00 -2.182413e+00 3.322719e+00 -6.700835e-01 3.925146e+00 -1.491819e-01 4.065414e+00 1.589473e-03 4.118427e+00 5.008880e-02 4.158583e+00 6.836454e-02 4.201752e+00 7.697345e-02 4.254714e+00 8.312674e-02 
4.448413e+00 1.107011e-01 4.563645e+00 1.239721e-01 4.714697e+00 1.244533e-01 4.539060e+00 1.215088e-01 4.396114e+00 1.157278e-01 4.273698e+00 1.070072e-01 4.157154e+00 9.413382e-02 4.047459e+00 1.000764e-01 4.111806e+00 1.487972e-01 3.842473e+00 -1.319918e-02 3.895642e+00 -2.291959e-02 3.886549e+00 1.116415e-03 3.874365e+00 -8.130805e-02 3.737762e+00 -1.185234e-01 3.848314e+00 -7.687858e-02 3.848997e+00 -4.507575e-02 3.766253e+00 -2.054066e-01 3.703493e+00 -1.739553e-01 3.840768e+00 -1.055932e-01 3.844714e+00 -7.503405e-02 3.709205e+00 -2.950009e-01 3.709719e+00 -2.112967e-01 3.868558e+00 -1.243365e-01 3.878219e+00 -1.004675e-01 3.681693e+00 -4.039366e-01 3.790022e+00 -2.263926e-01 4.014007e+00 -5.869947e-02 4.116482e+00 2.194603e-02 4.178102e+00 5.999022e-02 4.231327e+00 7.948634e-02 4.289195e+00 9.134671e-02 4.359330e+00 1.007659e-01 
4.564715e+00 1.022100e-01 4.699978e+00 1.153747e-01 4.874006e+00 1.161914e-01 4.680991e+00 1.116029e-01 4.522702e+00 9.984398e-02 4.395066e+00 7.343990e-02 4.304957e+00 2.623107e-02 4.308381e+00 7.910304e-03 4.703005e+00 7.631633e-01 4.274360e+00 1.887483e-01 4.071214e+00 9.041399e-04 4.129528e+00 -4.147959e-03 4.608425e+00 7.672640e-01 4.158180e+00 1.589787e-01 3.996431e+00 -2.102882e-02 4.079771e+00 -7.432630e-03 4.585813e+00 7.716416e-01 4.122845e+00 1.446139e-01 3.979709e+00 -3.332041e-02 4.075667e+00 -1.286349e-02 4.588607e+00 7.635493e-01 4.133624e+00 1.316296e-01 4.010331e+00 -4.371359e-02 4.123806e+00 -1.920427e-02 4.642396e+00 7.687180e-01 4.224952e+00 1.647145e-01 4.120186e+00 4.187993e-02 4.175671e+00 4.734389e-02 4.238689e+00 6.424152e-02 4.301618e+00 7.628737e-02 4.372361e+00 8.484152e-02 4.457885e+00 9.273366e-02 
4.674659e+00 1.203931e-01 4.828801e+00 1.347093e-01 5.024940e+00 1.358157e-01 4.821802e+00 1.332150e-01 4.656533e+00 1.266219e-01 4.528594e+00 1.156370e-01 4.444719e+00 1.046073e-01 4.433013e+00 1.165374e-01 4.594367e+00 3.997606e-01 4.373149e+00 2.101682e-01 4.220816e+00 1.109543e-01 4.234284e+00 1.028829e-01 4.473955e+00 4.259433e-01 4.259965e+00 1.947401e-01 4.129416e+00 8.861149e-02 4.165296e+00 8.627736e-02 4.442762e+00 4.409136e-01 4.228557e+00 1.865490e-01 4.106865e+00 7.580391e-02 4.153868e+00 7.569496e-02 4.451144e+00 4.533357e-01 4.244827e+00 1.836363e-01 4.134458e+00 6.979757e-02 4.194399e+00 7.102157e-02 4.512403e+00 4.894274e-01 4.325181e+00 2.104402e-01 4.220037e+00 9.808609e-02 4.246418e+00 7.867034e-02 4.302845e+00 8.274600e-02 4.370927e+00 9.095643e-02 4.452144e+00 9.964810e-02 4.551408e+00 1.090917e-01 
4.774803e+00 1.134400e-01 4.945405e+00 1.268326e-01 5.160323e+00 1.282247e-01 4.945235e+00 1.246940e-01 4.768824e+00 1.178178e-01 4.632338e+00 1.112402e-01 4.540063e+00 1.205876e-01 4.501506e+00 1.832313e-01 4.540689e+00 2.862722e-01 4.420134e+00 2.068838e-01 4.305628e+00 1.561420e-01 4.291442e+00 1.965829e-01 4.389850e+00 2.963034e-01 4.281667e+00 2.039415e-01 4.195577e+00 1.502798e-01 4.209251e+00 1.941969e-01 4.341199e+00 2.996222e-01 4.238819e+00 2.012502e-01 4.167308e+00 1.454759e-01 4.196416e+00 1.900693e-01 4.348387e+00 3.004180e-01 4.255675e+00 1.988950e-01 4.199736e+00 1.429255e-01 4.245344e+00 1.897808e-01 4.417826e+00 3.133419e-01 4.336162e+00 2.089866e-01 4.282845e+00 1.295308e-01 4.303740e+00 9.801464e-02 4.359529e+00 9.021486e-02 4.433800e+00 9.127322e-02 4.525096e+00 9.597334e-02 4.636953e+00 1.032534e-01 
4.868882e+00 1.298025e-01 5.054538e+00 1.443000e-01 5.287249e+00 1.459645e-01 5.064285e+00 1.452669e-01 4.880656e+00 1.433160e-01 4.736588e+00 1.441548e-01 4.632718e+00 1.575725e-01 4.569357e+00 1.980382e-01 4.546460e+00 2.439616e-01 4.467889e+00 2.115683e-01 4.376343e+00 1.876402e-01 4.342920e+00 2.076508e-01 4.370296e+00 2.485666e-01 4.318872e+00 2.058303e-01 4.254558e+00 1.767733e-01 4.249394e+00 1.973685e-01 4.308137e+00 2.435649e-01 4.271959e+00 1.988037e-01 4.222627e+00 1.685490e-01 4.233870e+00 1.902491e-01 4.312546e+00 2.415057e-01 4.289732e+00 1.965713e-01 4.254888e+00 1.664859e-01 4.282353e+00 1.899464e-01 4.380979e+00 2.485569e-01 4.371474e+00 1.972897e-01 4.343350e+00 1.435893e-01 4.363786e+00 1.154675e-01 4.418482e+00 1.055129e-01 4.496407e+00 1.051399e-01 4.595427e+00 1.099126e-01 4.717991e+00 1.182142e-01 
4.952130e+00 1.240215e-01 5.150987e+00 1.376612e-01 5.398759e+00 1.395843e-01 5.166008e+00 1.391482e-01 4.972066e+00 1.388220e-01 4.817016e+00 1.438304e-01 4.699642e+00 1.624604e-01 4.617708e+00 1.983599e-01 4.568567e+00 2.198076e-01 4.495295e+00 2.078468e-01 4.415508e+00 2.014908e-01 4.371418e+00 2.190596e-01 4.368054e+00 2.286375e-01 4.325734e+00 2.092832e-01 4.277714e+00 1.991886e-01 4.265131e+00 2.159760e-01 4.292616e+00 2.253508e-01 4.269665e+00 2.052471e-01 4.240673e+00 1.944105e-01 4.247508e+00 2.110663e-01 4.295636e+00 2.211875e-01 4.288881e+00 2.015071e-01 4.277315e+00 1.908076e-01 4.302610e+00 2.070968e-01 4.370569e+00 2.160126e-01 4.377877e+00 1.863233e-01 4.376971e+00 1.486977e-01 4.406116e+00 1.225076e-01 4.465340e+00 1.092535e-01 4.549361e+00 1.051491e-01 4.656708e+00 1.070850e-01 4.789475e+00 1.135286e-01 
5.029546e+00 1.384749e-01 5.240107e+00 1.531042e-01 5.501731e+00 1.552650e-01 5.261848e+00 1.566083e-01 5.060623e+00 1.583219e-01 4.897167e+00 1.645814e-01 4.769291e+00 1.803429e-01 4.673675e+00 2.049408e-01 4.605921e+00 2.180082e-01 4.534736e+00 2.125389e-01 4.458784e+00 2.092423e-01 4.407569e+00 2.178862e-01 4.386061e+00 2.204906e-01 4.352118e+00 2.077064e-01 4.310297e+00 2.002629e-01 4.291849e+00 2.078789e-01 4.301389e+00 2.112526e-01 4.290866e+00 1.987240e-01 4.269871e+00 1.915241e-01 4.271914e+00 2.000870e-01 4.302378e+00 2.054135e-01 4.310183e+00 1.941948e-01 4.307435e+00 1.877588e-01 4.328641e+00 1.964388e-01 4.379476e+00 2.004385e-01 4.405023e+00 1.799140e-01 4.417665e+00 1.520261e-01 4.451600e+00 1.306183e-01 4.513578e+00 1.191114e-01 4.601821e+00 1.159529e-01 4.715569e+00 1.189364e-01 4.856748e+00 1.266426e-01 
5.095378e+00 1.332948e-01 5.316155e+00 1.473420e-01 5.589404e+00 1.497260e-01 5.341145e+00 1.514798e-01 5.130885e+00 1.542046e-01 4.957794e+00 1.621053e-01 4.819616e+00 1.787676e-01 4.713610e+00 2.010799e-01 4.635573e+00 2.123968e-01 4.558234e+00 2.115870e-01 4.481052e+00 2.123424e-01 4.425263e+00 2.198351e-01 4.395169e+00 2.197506e-01 4.358129e+00 2.118998e-01 4.318548e+00 2.089156e-01 4.298209e+00 2.148983e-01 4.300561e+00 2.139374e-01 4.289587e+00 2.056351e-01 4.273652e+00 2.023645e-01 4.276106e+00 2.083154e-01 4.300842e+00 2.075622e-01 4.310490e+00 1.994963e-01 4.315142e+00 1.959131e-01 4.338686e+00 2.001920e-01 4.384927e+00 1.949528e-01 4.414615e+00 1.757400e-01 4.438197e+00 1.514304e-01 4.480175e+00 1.312806e-01 4.548405e+00 1.190034e-01 4.643000e+00 1.142928e-01 4.763958e+00 1.157334e-01 4.913362e+00 1.222379e-01 
5.155544e+00 1.457991e-01 5.385017e+00 1.607203e-01 5.668472e+00 1.632956e-01 5.413863e+00 1.654481e-01 5.197077e+00 1.675775e-01 5.017033e+00 1.733823e-01 4.871684e+00 1.869244e-01 4.758545e+00 2.079670e-01 4.674564e+00 2.232383e-01 4.595659e+00 2.179886e-01 4.511695e+00 2.123334e-01 4.451062e+00 2.177750e-01 4.418383e+00 2.225989e-01 4.383192e+00 2.103605e-01 4.339494e+00 2.014211e-01 4.316256e+00 2.063073e-01 4.317569e+00 2.115105e-01 4.310260e+00 1.994517e-01 4.291572e+00 1.910643e-01 4.292159e+00 1.970385e-01 4.316636e+00 2.036522e-01 4.331397e+00 1.927110e-01 4.334523e+00 1.850386e-01 4.357494e+00 1.909483e-01 4.404883e+00 1.956599e-01 4.442994e+00 1.772458e-01 4.467833e+00 1.528228e-01 4.512146e+00 1.341497e-01 4.584159e+00 1.241257e-01 4.683451e+00 1.216661e-01 4.809976e+00 1.251030e-01 4.965930e+00 1.333225e-01 
5.203631e+00 1.407411e-01 5.440520e+00 1.553397e-01 5.732336e+00 1.580914e-01 5.470795e+00 1.603213e-01 5.246652e+00 1.624055e-01 5.059215e+00 1.681530e-01 4.906987e+00 1.820815e-01 4.788532e+00 2.051349e-01 4.702406e+00 2.252137e-01 4.613792e+00 2.181084e-01 4.522688e+00 2.108455e-01 4.460157e+00 2.181024e-01 4.429393e+00 2.276729e-01 4.386610e+00 2.139444e-01 4.338714e+00 2.040325e-01 4.316207e+00 2.108217e-01 4.321605e+00 2.200031e-01 4.308113e+00 2.056014e-01 4.287150e+00 1.955198e-01 4.290375e+00 2.024761e-01 4.320561e+00 2.119377e-01 4.330941e+00 1.974842e-01 4.333689e+00 1.869828e-01 4.361199e+00 1.926291e-01 4.415864e+00 1.993366e-01 4.452002e+00 1.772437e-01 4.478286e+00 1.504673e-01 4.528191e+00 1.312330e-01 4.606654e+00 1.210688e-01 4.712176e+00 1.182439e-01 4.844849e+00 1.210944e-01 5.007186e+00 1.287095e-01 
5.246185e+00 1.516014e-01 5.488921e+00 1.671257e-01 5.787549e+00 1.700206e-01 5.520551e+00 1.718622e-01 5.290634e+00 1.713994e-01 5.097213e+00 1.713026e-01 4.940208e+00 1.778414e-01 4.820877e+00 2.036776e-01 4.741482e+00 2.613983e-01 4.651403e+00 2.285116e-01 4.537505e+00 1.973624e-01 4.473612e+00 2.045194e-01 4.457268e+00 2.546959e-01 4.413366e+00 2.146203e-01 4.345391e+00 1.822539e-01 4.323878e+00 1.908085e-01 4.346649e+00 2.427872e-01 4.331628e+00 2.018914e-01 4.291321e+00 1.700710e-01 4.296494e+00 1.798629e-01 4.345093e+00 2.335700e-01 4.354861e+00 1.934949e-01 4.339424e+00 1.622561e-01 4.370710e+00 1.726184e-01 4.445479e+00 2.282435e-01 4.485782e+00 1.881007e-01 4.495231e+00 1.480067e-01 4.545611e+00 1.281246e-01 4.629478e+00 1.215914e-01 4.740176e+00 1.225139e-01 4.877508e+00 1.282779e-01 5.044565e+00 1.380312e-01 
5.276362e+00 1.464304e-01 5.523785e+00 1.618547e-01 5.827628e+00 1.648750e-01 5.555119e+00 1.665937e-01 5.319304e+00 1.652903e-01 5.120052e+00 1.632759e-01 4.958363e+00 1.674429e-01 4.838753e+00 1.930363e-01 4.776930e+00 2.854910e-01 4.658756e+00 2.276829e-01 4.531555e+00 1.860534e-01 4.471915e+00 1.944790e-01 4.481959e+00 2.789578e-01 4.408216e+00 2.155944e-01 4.330237e+00 1.744421e-01 4.315577e+00 1.849693e-01 4.368350e+00 2.702462e-01 4.322072e+00 2.052493e-01 4.273302e+00 1.640948e-01 4.287013e+00 1.748160e-01 4.367532e+00 2.610925e-01 4.346894e+00 1.958567e-01 4.324483e+00 1.542033e-01 4.366357e+00 1.639216e-01 4.475010e+00 2.531826e-01 4.488001e+00 1.894414e-01 4.491298e+00 1.410136e-01 4.548784e+00 1.211041e-01 4.640203e+00 1.159684e-01 4.756741e+00 1.176807e-01 4.898839e+00 1.235569e-01 5.070299e+00 1.330928e-01 
5.301101e+00 1.561916e-01 5.551564e+00 1.727619e-01 5.859033e+00 1.758815e-01 5.582333e+00 1.779189e-01 5.341165e+00 1.747176e-01 5.134059e+00 1.640557e-01 4.963269e+00 1.418509e-01 4.847761e+00 1.127791e-01 4.850996e+00 4.505443e-01 4.693781e+00 2.363830e-01 4.504292e+00 1.317237e-01 4.458179e+00 9.292152e-02 4.556504e+00 4.375650e-01 4.432121e+00 2.108486e-01 4.297333e+00 1.111450e-01 4.297728e+00 7.676453e-02 4.446164e+00 4.283411e-01 4.342636e+00 1.953656e-01 4.238426e+00 9.704785e-02 4.267911e+00 6.362621e-02 4.445784e+00 4.195371e-01 4.367367e+00 1.860178e-01 4.290386e+00 8.737881e-02 4.350576e+00 5.186075e-02 4.557555e+00 4.190262e-01 4.524344e+00 1.970988e-01 4.479254e+00 1.168785e-01 4.550011e+00 1.073206e-01 4.651682e+00 1.122635e-01 4.773218e+00 1.200439e-01 4.918311e+00 1.295003e-01 5.092333e+00 1.413025e-01 
5.313297e+00 1.508068e-01 5.565730e+00 1.673941e-01 5.875343e+00 1.705855e-01 5.594724e+00 1.728397e-01 5.348750e+00 1.694051e-01 5.135389e+00 1.568742e-01 4.956710e+00 1.288835e-01 4.833293e+00 9.713827e-02 4.858900e+00 4.818321e-01 4.648023e+00 2.022264e-01 4.464229e+00 9.948714e-02 4.426689e+00 7.371439e-02 4.556137e+00 4.672743e-01 4.373621e+00 1.772243e-01 4.251885e+00 8.243933e-02 4.262020e+00 6.345974e-02 4.441582e+00 4.584927e-01 4.278064e+00 1.631069e-01 4.191200e+00 7.049913e-02 4.231294e+00 5.222966e-02 4.439400e+00 4.466825e-01 4.302528e+00 1.524046e-01 4.245601e+00 5.964994e-02 4.317843e+00 3.820729e-02 4.556073e+00 4.421489e-01 4.470158e+00 1.626548e-01 4.451425e+00 9.320154e-02 4.542438e+00 9.495643e-02 4.652979e+00 1.052256e-01 4.778713e+00 1.148332e-01 4.926420e+00 1.245943e-01 5.102553e+00 1.361720e-01 
5.320063e+00 1.598543e-01 5.572810e+00 1.774699e-01 5.882976e+00 1.806978e-01 5.601211e+00 1.848976e-01 5.352386e+00 1.862031e-01 5.128659e+00 1.859832e-01 4.913819e+00 1.782552e-01 4.665515e+00 1.336984e-01 4.265380e+00 -4.574083e-01 4.246087e+00 -1.125313e-01 4.352138e+00 5.260185e-02 4.240277e+00 5.444820e-02 3.878448e+00 -5.295670e-01 3.983438e+00 -1.429018e-01 4.142430e+00 2.670189e-02 4.070442e+00 2.482776e-02 3.721947e+00 -5.694541e-01 3.889754e+00 -1.627147e-01 4.082725e+00 1.156161e-02 4.038240e+00 1.137222e-02 3.710055e+00 -5.913224e-01 3.911526e+00 -1.759452e-01 4.137188e+00 4.600206e-03 4.125239e+00 1.214813e-02 3.840523e+00 -6.092174e-01 4.079406e+00 -1.904697e-01 4.394694e+00 7.871229e-03 4.541814e+00 7.558762e-02 4.658862e+00 1.029569e-01 4.785089e+00 1.182859e-01 4.932844e+00 1.307765e-01 5.109095e+00 1.440353e-01 
5.314231e+00 1.540281e-01 5.566274e+00 1.714022e-01 5.875523e+00 1.746341e-01 5.592564e+00 1.792830e-01 5.341430e+00 1.823079e-01 5.111736e+00 1.868514e-01 4.878229e+00 1.851120e-01 4.567292e+00 1.237141e-01 3.946005e+00 -9.361701e-01 4.049191e+00 -2.672214e-01 4.290051e+00 2.379392e-02 4.135658e+00 2.661131e-02 3.527451e+00 -1.010757e+00 3.799181e+00 -2.848693e-01 4.082195e+00 3.397390e-03 3.964101e+00 -4.194563e-03 3.359569e+00 -1.045015e+00 3.711140e+00 -2.970051e-01 4.023889e+00 -7.753861e-03 3.933152e+00 -1.451835e-02 3.352732e+00 -1.057397e+00 3.736404e+00 -3.072379e-01 4.080643e+00 -1.307119e-02 4.024285e+00 -7.794656e-03 3.501553e+00 -1.071330e+00 3.911559e+00 -3.323455e-01 4.367568e+00 -2.386420e-02 4.535393e+00 6.759615e-02 4.654171e+00 9.916947e-02 4.780296e+00 1.146023e-01 4.927845e+00 1.263740e-01 5.103768e+00 1.388370e-01 
5.302919e+00 1.624440e-01 5.552706e+00 1.797213e-01 5.859393e+00 1.828731e-01 5.580361e+00 1.857136e-01 5.335271e+00 1.838413e-01 5.119322e+00 1.760861e-01 4.925747e+00 1.568932e-01 4.742492e+00 1.232161e-01 4.556568e+00 -1.668920e-03 4.424847e+00 2.919744e-02 4.399433e+00 7.023143e-02 4.331625e+00 6.922595e-02 4.228708e+00 -2.841850e-02 4.166038e+00 7.744547e-03 4.192837e+00 4.957897e-02 4.169310e+00 5.061491e-02 4.107588e+00 -3.698520e-02 4.077602e+00 -3.675690e-03 4.134258e+00 3.746960e-02 4.139722e+00 3.986879e-02 4.110696e+00 -3.763455e-02 4.104077e+00 -9.181581e-03 4.187537e+00 3.145495e-02 4.225868e+00 3.624550e-02 4.242780e+00 -2.685700e-02 4.274172e+00 -4.265848e-04 4.414399e+00 5.420672e-02 4.534632e+00 8.801271e-02 4.648992e+00 1.078943e-01 4.774321e+00 1.215998e-01 4.920517e+00 1.337223e-01 5.094583e+00 1.468292e-01 