# vtk DataFile Version 2.0
Comment goes here
ASCII

DATASET STRUCTURED_POINTS
FIELD FieldData 1
TIME 1 1 double
0.09300000
DIMENSIONS    64   64   1

ORIGIN    0.000   0.000   0.000
SPACING   0.03125 0.03125   1.000

POINT_DATA   4096
SCALARS uX double
LOOKUP_TABLE default

-2.710996e+00 6.900367e+00 -9.411194e+00 1.414747e+01 -1.051897e+01 1.403012e+01 -7.917964e+00 1.160942e+01 -1.123201e+00 9.889892e+00 -2.830682e-01 7.520818e+00 6.329284e+00 5.790295e-01 8.927290e+00 -6.529807e+00 9.574245e+00 -4.128356e+00 8.213063e+00 -7.347411e+00 1.464255e+01 -3.947477e+00 9.810764e+00 -3.163970e+00 1.275728e+01 -6.140892e-01 8.253969e-01 -8.157163e+00 -1.518550e+00 -5.158073e+00 -7.507148e+00 -1.631003e+01 7.408799e+00 -1.432038e+01 -4.725022e+00 3.752055e+00 -1.075467e+01 4.623248e+00 5.127870e-01 -5.394813e+00 -5.627924e+00 -2.433118e+00 5.609440e+00 2.367435e+00 -3.303184e+00 6.970822e+00 -4.726196e+00 9.885540e+00 -4.113656e+00 1.065412e+01 2.117356e-01 5.282565e+00 2.828168e+00 -1.908789e+00 -2.194263e+00 -5.887234e+00 -2.193380e-01 -4.406509e+00 -3.393300e+00 4.594274e+00 -1.110996e+01 -2.038409e+00 4.237725e+00 4.943005e+00 
-1.234520e+00 -4.137372e+00 1.240729e+00 -1.069350e+01 1.130078e+00 5.035671e+00 -6.234128e+00 1.134701e+01 -1.126874e+01 1.896727e+01 -7.474884e+00 8.806856e+00 -3.644180e+00 1.311349e+00 1.098679e+00 -1.132705e+01 4.478008e+00 -1.170118e+01 5.951108e+00 -1.904905e+01 7.889612e+00 -1.996729e+01 -1.110876e+00 -1.675479e+01 -6.907370e+00 -1.018694e+01 1.344228e+01 2.844196e+00 -4.489254e+00 1.139124e+00 2.820071e+01 9.138636e+00 5.786661e+00 1.289713e+01 -1.681573e+00 6.178189e+00 -3.972194e+00 -5.751323e+00 -1.329543e+01 5.529904e+00 -1.409224e+01 2.408722e+00 -7.311355e+00 1.228955e+00 -1.005441e+01 3.403497e+00 -1.599010e+01 5.018533e+00 -1.394704e+01 7.560610e-01 -1.204708e+00 -3.528355e+00 4.825386e+00 -5.133159e+00 1.046462e+01 -5.561859e+00 2.503242e+00 3.222274e+00 2.262786e+00 -2.059367e+00 1.452661e+01 3.140536e+01 -4.329178e+00 1.165816e+01 
2.878999e+00 1.469955e+01 1.412302e+01 8.690634e+00 9.380548e+00 -1.188282e+01 5.647779e-01 -4.417456e+00 -4.216561e+00 -1.941700e+00 -2.265007e+00 -5.350750e+00 -8.039172e+00 -7.278354e+00 -8.252694e+00 -4.740903e+00 -6.110071e+00 -6.224462e+00 -7.934786e-01 1.338513e+00 2.520784e+00 1.788623e+01 1.940030e+01 2.749928e+01 1.563293e+01 1.546064e+01 -3.983067e+01 1.314706e+01 -1.920113e+00 -1.454059e+01 -5.235482e+01 -8.990279e+00 -2.857023e+01 -7.290861e+00 4.844839e+00 1.014719e+00 1.794333e+01 1.006246e+01 1.210647e+01 1.761676e+01 1.884069e+01 1.419444e+01 1.310006e+01 1.245650e+01 8.596817e+00 1.106779e+01 3.673026e+00 6.756958e+00 2.846211e+00 3.103281e+00 3.682905e+00 7.974532e-02 -2.406669e+00 -8.683166e-01 -5.153674e+00 -3.108004e+00 -1.531734e+01 -3.189521e+00 -1.570799e+01 -2.229270e+01 -3.056811e+01 -7.046387e+01 -3.871946e+01 -3.553346e+00 
3.224156e+01 4.009444e+01 2.259320e+01 4.126321e+01 1.716789e+01 3.844079e+01 1.628774e+01 2.530169e+01 1.375570e+01 1.270139e+01 3.272011e+00 5.735702e+00 -4.734396e+00 -3.638344e+00 -1.257775e+01 -4.258179e+00 -1.574863e+01 -6.229057e+00 -1.437537e+01 4.075550e+00 -9.292708e+00 2.490791e+01 2.311015e+01 2.200193e+01 -3.668113e+01 -7.076839e+01 -8.587871e+01 -1.823031e+01 -5.148861e+01 -4.840686e+01 -7.696486e+01 -1.231539e+01 -6.246772e+01 -1.740910e+01 5.306679e-01 8.567409e+00 1.654171e+01 1.632047e+01 2.406764e+01 9.444164e+00 2.324483e+01 1.441402e+01 1.702496e+01 1.211317e+01 1.115312e+01 8.852056e+00 1.090044e+01 2.057502e+00 6.952148e+00 -2.954182e+00 -1.121674e+00 -4.093000e+00 -7.950876e+00 -3.465524e+00 -1.444891e+01 -1.208031e+00 -1.868184e+01 -1.053905e+01 -3.039534e+01 -2.910525e+01 -8.101598e+01 -1.291400e+02 -1.077961e+01 2.941072e+01 
4.861210e+01 4.018811e+01 2.683524e+01 2.801881e+01 1.496069e+01 2.533180e+01 7.039935e+00 1.375475e+01 8.363719e+00 7.103451e+00 1.576186e+00 3.752014e+00 -4.740143e+00 -1.123833e+00 -1.011525e+01 -2.791614e+00 -1.135296e+01 -4.307494e+00 -1.050716e+01 -1.459891e+00 -1.155606e+01 1.282853e+00 -8.995766e+00 -5.047312e+00 -9.627199e+01 -1.125168e+02 -5.390117e+01 -7.193243e+01 -1.100986e+02 -8.030536e+01 -5.997499e+01 -7.548381e+01 -4.822910e+01 -1.745473e+01 4.137640e+00 1.380996e+01 2.678270e+01 2.423501e+01 3.257403e+01 2.034586e+01 3.069543e+01 2.101893e+01 2.589576e+01 1.833524e+01 2.132487e+01 1.486535e+01 1.857892e+01 1.093013e+01 1.272163e+01 7.805998e+00 2.442734e+00 3.601198e+00 -9.202851e+00 -1.440440e+00 -2.255231e+01 -4.945857e+00 -3.176844e+01 -5.319793e+00 -3.453820e+01 -4.283289e+00 -5.162122e+01 -2.832929e+01 3.111648e+01 6.869956e+01 
5.380296e+01 5.964741e+01 2.615230e+01 4.647683e+01 1.772268e+01 4.647677e+01 2.084861e+01 3.335559e+01 8.769137e+00 1.970522e+01 -2.053758e+00 6.292166e+00 -1.075561e+01 -3.919534e+00 -1.545717e+01 -8.573417e+00 -1.650527e+01 -1.222839e+01 -1.904255e+01 -1.957303e+01 -3.744971e+01 -4.869385e+01 -7.710856e+01 -6.083670e+01 -5.389638e+01 -8.021635e+01 4.048985e+00 -5.845462e+01 1.665493e+01 -3.720885e+01 -7.233965e+01 -8.807235e+01 -8.093916e+00 -8.990253e+00 2.314765e+01 2.719279e+01 2.951970e+01 1.974702e+01 2.072672e+01 1.221776e+01 2.028081e+01 1.372910e+01 1.831411e+01 1.315870e+01 1.365667e+01 1.011244e+01 8.725754e+00 4.252678e+00 4.098883e+00 -4.307566e+00 -1.655315e+00 -6.235381e+00 -8.504300e+00 -6.055368e+00 -1.424313e+01 2.582655e-01 -1.878376e+01 1.553773e+01 -1.120039e+01 7.455991e+01 1.311557e+00 1.022946e+02 5.842236e+01 8.716970e+01 
3.199721e+01 2.915404e+01 1.898506e+01 1.905687e+01 1.426545e+01 2.069329e+01 4.436788e+00 1.366834e+01 7.151940e+00 7.742382e+00 -2.134606e+00 3.338975e+00 -1.010558e+01 -2.404722e+00 -1.303468e+01 -6.777931e+00 -1.156771e+01 -1.024205e+01 -9.125829e+00 -1.732227e+01 -1.409141e+01 -3.412398e+01 -4.234484e+01 -6.433889e+01 -1.938503e+01 5.826072e+00 5.457567e+01 -2.599077e+01 2.002780e+01 -7.089920e+01 4.753992e+00 -4.471062e+01 1.497565e+01 3.198983e+00 4.200822e+01 5.022388e+01 5.763807e+01 5.186843e+01 4.249528e+01 2.849313e+01 3.225438e+01 2.318098e+01 2.782867e+01 2.167903e+01 2.567751e+01 1.704662e+01 2.060164e+01 1.320214e+01 1.542804e+01 1.265596e+01 5.689563e+00 5.235425e+00 -7.116915e+00 -2.146826e+00 -2.491408e+01 -1.049173e+01 -3.932682e+01 1.586106e+01 -1.599357e+00 9.256277e+01 6.491510e+01 1.557753e+02 7.891824e+01 6.600288e+01 
4.787223e+00 4.049184e+01 8.475654e+00 4.679048e+01 1.701415e+01 4.945075e+01 3.774903e+01 4.379395e+01 6.702525e+00 2.392225e+01 -9.037889e+00 1.148201e+00 -1.997571e+01 -1.069892e+01 -2.158116e+01 -1.436083e+01 -1.719424e+01 -1.424721e+01 -1.191081e+01 -1.137054e+01 -1.799124e+01 -1.068345e+01 -2.536646e+01 -4.044904e+01 2.453813e+01 5.345172e+01 -8.461887e+00 -2.554094e+01 -2.683990e+00 1.024358e+01 7.529395e+01 2.878367e+01 6.270774e+01 4.406450e+01 5.938630e+01 8.247088e+01 6.399270e+01 2.447439e+01 1.094615e+01 8.107536e+00 1.832521e+01 1.548578e+01 1.999129e+01 1.528827e+01 1.222850e+01 1.076497e+01 4.546182e+00 8.065538e+00 1.424666e+00 -6.520431e+00 5.464379e+00 -8.626288e+00 -5.604785e+00 -1.966485e+01 -1.348875e+01 -1.975896e+01 -3.054334e+01 5.051816e-01 3.260697e+01 -2.469110e+01 1.341154e+02 1.413955e+02 5.217383e+01 2.507386e+01 
5.303949e+00 4.210289e+00 1.830214e+01 1.031756e+01 1.468994e+01 1.159421e+01 1.381528e+01 2.568920e+00 1.938887e+00 6.548164e+00 -1.031891e+01 2.941945e+00 -2.068248e+01 -6.673146e+00 -2.040190e+01 -1.157218e+01 -1.425917e+01 -1.089369e+01 -3.675038e+00 -1.144225e+01 -5.261729e+00 -1.543837e+01 2.817134e+01 -1.157594e+01 5.339830e+01 3.725110e+01 2.965437e+01 9.642129e+01 6.800887e+01 9.425721e+01 1.018609e+02 1.380327e+02 7.486649e+01 8.975494e+01 5.872328e+01 7.898213e+01 5.861083e+01 1.705360e+01 1.681074e+01 1.653252e+01 2.633374e+01 2.077501e+01 2.844633e+01 2.563771e+01 3.573241e+01 2.538905e+01 2.638163e+01 1.468002e+01 1.912676e+01 1.557428e+01 -3.979926e+00 -2.418907e+00 -1.218318e+01 -9.334373e+00 -4.228896e+01 -4.535155e+01 -7.341366e+01 -1.120826e+01 -6.604677e+01 2.145844e+01 1.385062e+02 5.511006e+01 9.173118e+01 -2.966659e+01 
-4.298883e+01 2.812334e+01 1.069162e+01 4.028193e+01 1.693457e+01 3.875455e+01 5.629161e+01 7.916767e+01 2.129735e+01 2.011382e+01 -1.975139e+01 -1.083931e+01 -3.595198e+01 -2.259571e+01 -3.269245e+01 -2.022623e+01 -2.019886e+01 -1.507526e+01 3.182430e+00 -1.142508e+01 -1.314135e+01 3.216909e+01 -1.924384e+00 -7.727435e+00 7.427380e+01 2.390996e+01 4.518755e+00 2.514290e+01 -2.313623e+01 3.239382e+01 5.206831e+01 1.095895e+02 7.872550e+01 6.143747e+01 5.274585e+01 5.100249e+01 8.056969e+01 1.059892e+02 1.210112e+02 8.704380e+01 5.919831e+01 3.828576e+01 2.715582e+01 1.511586e+01 6.849345e+00 2.279719e+00 -3.143373e+00 1.427090e+01 -7.510196e+00 5.430638e+00 2.735569e+01 4.718704e+00 2.160410e+01 2.771921e+00 -1.762573e+00 -6.529072e+01 -1.015994e+02 -3.925104e+01 -7.584148e+01 1.117533e+02 3.815752e+01 7.026358e+01 6.184654e-01 6.189672e+01 
-4.634790e+01 1.854628e+01 3.294905e+01 -1.681558e+01 1.512973e+01 -1.693811e+01 3.740751e+01 1.189848e+01 -4.207173e+01 3.322424e+01 -2.908558e+01 1.848598e+00 -3.860180e+01 -2.081928e+01 -3.373058e+01 -2.003443e+01 -2.107297e+01 2.513194e+00 2.216120e+01 -1.607804e+01 1.055373e+01 8.852291e+01 8.708206e+00 2.459766e+01 9.672409e+00 7.651597e+01 5.804897e+01 4.029785e+01 6.778574e+01 9.525052e+01 3.691766e+01 6.160719e+01 1.079184e+02 8.502461e+01 3.877259e+01 3.563698e+01 3.173379e+01 5.153833e+01 4.337642e+01 4.127776e+01 2.366140e+01 1.139760e+01 3.128689e+01 2.303542e+01 3.473506e+01 3.328601e+01 4.630454e+01 3.626666e+01 4.833776e+01 3.644373e+01 5.193196e+01 7.814978e+00 2.262552e+01 -4.375468e+01 -6.546334e+00 -1.283627e+02 -6.882470e+01 -8.807592e+01 1.559631e+01 -6.956905e+01 -1.347519e+02 -1.148619e+02 -1.343288e+02 -1.455627e+01 
8.571490e+01 -2.491151e+01 7.929287e+01 5.140964e+00 1.743935e+01 9.877118e+00 -2.399647e+01 -3.080276e+01 -3.455776e+01 -3.237272e+01 -3.980160e+01 -3.341265e+01 -6.234937e+01 -4.683824e+01 -5.036716e+01 -3.545044e+01 -3.000441e+01 3.478341e+01 3.359601e+01 1.854575e+01 5.545756e+01 4.866953e+01 6.610160e+01 5.952352e+01 -6.828440e-01 1.622471e+01 -5.073234e+00 7.045524e+01 9.171117e+01 5.906056e+01 6.064424e+01 5.197748e+01 7.123491e+01 9.994624e+01 8.443761e+01 5.067579e+01 4.359444e+01 1.269806e+01 1.471189e+01 -3.653075e+00 2.617344e+01 2.176780e+01 2.148867e+01 1.390550e+01 3.317338e+00 9.268756e+00 9.252027e-01 -4.397823e+01 -6.567921e+00 7.634485e+00 -5.190868e+01 -4.145394e+01 -2.937581e+01 -2.332274e+00 -1.906814e+01 -6.237625e+01 2.162747e+01 -4.425216e+01 7.544633e+01 -1.085818e+02 -2.013528e+01 -1.315788e+02 2.927386e+01 -9.272141e+01 
1.433886e+02 8.452169e+01 3.643204e+01 5.841918e+01 3.450970e+00 4.863785e+01 -7.850185e+01 1.325795e+02 -3.485977e+01 3.636994e+01 -3.232876e+01 -1.140595e+01 -5.825768e+01 -4.184746e+01 -5.526229e+01 -4.379265e+01 -2.046643e+00 4.731285e+01 -2.654654e+01 1.029920e+02 7.180177e+00 -1.566791e+00 3.127345e+00 1.040080e+02 6.845386e+01 7.918729e+01 -3.036893e+01 -5.153308e+01 -2.120427e+01 -3.236248e+01 4.761548e+01 3.937135e+01 -1.735831e+01 -3.187479e+01 6.773942e+00 -6.397941e-01 3.626626e+00 2.625383e+00 1.092792e+01 4.095049e+01 2.373484e+00 2.685704e+01 8.422212e+00 -3.910015e+01 -1.492011e+01 6.419248e+00 6.530909e+00 5.404545e+01 -3.744547e+01 3.818394e+01 1.961665e+01 7.605839e+01 5.872560e+01 6.185492e+01 1.122100e+02 1.648793e+02 1.917974e+02 1.090350e+02 7.940314e+01 8.487822e+01 5.280404e+01 4.399485e+01 -1.643847e+00 -1.094053e+02 
1.986759e+02 1.002437e+02 4.109727e+01 -4.749308e+01 1.889570e+01 -5.658384e+01 -1.396716e+02 -7.882061e+01 -3.609556e+01 5.333135e+00 -9.821306e+00 -2.442617e+01 -4.314645e+01 -1.537287e+01 -4.602613e+01 7.798470e+00 1.835638e+01 4.003028e+00 -4.819513e+01 4.595152e+01 -2.940349e+01 3.059464e+01 1.330460e+01 4.275328e+01 -3.694083e+01 1.052983e+02 6.794843e+01 1.871190e+01 -3.555968e+01 5.052962e+01 2.212928e+01 6.705187e+01 2.518420e+01 1.643098e+01 -9.250750e+00 -3.255681e+01 -4.502994e+01 -2.019690e+01 1.016617e+01 -1.238399e+01 -2.281211e+00 6.676357e+00 5.797095e+00 4.534730e+01 3.906826e+01 4.639665e+01 3.338756e+01 5.675582e+01 7.784946e-01 7.852252e+01 8.948920e+01 6.278012e+01 1.166675e+02 8.833052e+01 9.667648e+01 1.220016e+02 1.115712e+02 -3.657933e+01 -5.435439e-01 -1.625354e+02 1.056897e+02 4.752019e+01 1.352606e+02 -3.256224e+01 
1.116237e+01 1.045341e+01 -1.067077e+01 -3.580446e+01 -2.641025e+00 3.133691e+00 -7.046950e+01 -1.437451e+02 2.907827e+01 8.700552e+00 4.183605e+01 5.096143e+01 -9.242026e-02 7.833286e+01 8.241698e+00 9.821458e+01 9.633149e+01 1.222802e+02 8.026217e+01 1.212988e+02 5.007832e+01 8.353645e+01 8.949263e+01 2.679883e+01 3.133454e+01 3.682407e-01 1.693543e+01 8.760635e+01 -2.611133e+00 9.710122e+01 2.816922e+01 6.497217e+01 5.358035e+01 6.290647e+01 8.867416e+00 2.934941e+01 -1.071695e+01 6.125944e-01 -1.341440e+01 -8.609356e+00 2.181157e+00 3.099764e+01 7.126680e+00 5.776579e+01 1.926488e+01 -1.132442e+01 5.147096e+01 -5.366416e+01 5.909206e+01 8.955933e+01 4.039402e+01 1.194857e+02 8.330727e+01 6.144913e+01 1.233780e+02 1.396644e+02 2.320235e+02 3.208766e+01 1.120309e+02 1.043011e+01 2.142193e+02 3.367239e+00 2.027286e+01 1.247468e+02 
-1.707188e+02 -7.943017e-02 7.052458e+01 9.531257e+01 8.892550e+00 9.283506e+01 3.550160e+01 4.512433e+01 1.340352e+02 1.603860e+02 2.027194e+02 1.032325e+02 1.097800e+02 2.270909e+02 2.390854e+02 2.256208e+02 1.450906e+02 2.049104e+02 1.554776e+02 1.344012e+02 1.092879e+02 1.264405e+01 2.188599e+01 6.192884e+01 1.195505e+02 3.539166e+01 3.838929e+01 6.225514e+01 -2.825993e+01 5.496580e+01 1.353730e+01 1.278245e+01 -1.190627e+01 1.695373e+01 -5.848103e+01 -2.252859e+01 3.608106e+00 9.793153e-01 -1.634129e+01 6.214207e+01 -1.201388e+01 5.724765e+01 -7.022543e+00 8.629395e+00 1.875094e+01 4.487448e+01 3.975190e+01 1.214029e+01 6.489497e+01 2.865538e+01 -7.064640e+00 1.682677e+02 -1.078921e+01 9.583227e+01 1.462293e+02 8.220308e+01 1.014936e+02 1.779748e+02 2.624146e+02 1.495043e+02 -5.161929e+00 -8.312754e+00 -9.476732e+01 1.751555e+02 
-9.363497e+01 9.716508e+01 1.723755e+02 1.964577e+02 9.966705e+00 1.510315e+02 1.200542e+02 1.875765e+02 2.175773e+02 1.995438e+02 2.626343e+02 2.397198e+02 2.919998e+02 2.382481e+02 3.454360e+02 3.182278e+02 1.731928e+02 9.784375e+01 6.123584e+01 1.713734e+01 9.049835e+01 2.192530e+01 3.627346e+01 7.010616e+01 2.107774e+01 7.092603e+01 3.026071e+00 8.554761e+01 -1.017094e+01 2.947527e+01 -3.024128e+01 4.489464e+00 -7.438968e+00 1.931572e-01 5.387639e+01 -4.534611e+01 -3.411498e+01 -3.446553e+01 -1.536579e+01 4.525177e+00 3.522667e+01 5.640082e+01 4.539942e+01 -2.357468e+01 -7.162325e+01 -3.695508e+01 -6.618146e+01 1.058547e+01 3.326826e+01 1.360900e+01 4.324220e+01 -6.279235e+01 2.487138e+01 8.741548e+00 6.384571e+01 -3.575639e+00 -2.471637e+01 1.122920e+01 4.024941e+01 7.952138e+00 -4.570922e+01 9.835462e+01 4.755031e+01 1.422165e+02 
2.670267e+01 1.141001e+02 2.332703e+01 8.194903e+01 -2.729823e+01 7.478073e+01 1.755805e+02 1.929118e+02 1.917462e+02 1.434252e+02 1.863552e+02 3.238714e+02 3.981194e+02 2.733276e+02 2.559840e+02 1.905857e+02 1.884920e+02 4.503438e+01 5.603207e+01 7.272173e+01 5.187287e+01 6.377969e+01 6.040728e+01 5.576106e+00 -1.144170e+01 -6.703547e+01 -4.238233e+01 3.338632e+01 7.796485e+01 -8.791518e+00 -1.927398e+01 -2.138669e+01 -2.843378e+01 -5.372645e+01 1.699029e+01 8.345720e-01 -1.270211e+01 -1.381720e+01 -1.329350e+01 -5.798476e+01 2.091870e+01 -1.016686e+02 -3.198736e+01 -8.346541e+01 -1.306268e+01 3.261987e+01 -5.622531e+00 -2.215875e+01 8.513523e+01 8.626489e+01 1.169474e+02 -1.979565e+01 7.642439e+01 4.708104e+01 6.479808e+01 1.507678e+02 1.033034e+02 1.156859e+02 -6.686407e+01 1.855675e+02 7.516929e+01 1.513113e+02 6.624570e+01 1.183455e+01 
3.450465e+01 9.237382e+01 -5.458734e+01 1.589497e+02 1.112739e+01 1.518860e+02 1.165762e+02 6.839806e+01 1.279825e+02 -2.472341e+01 8.091469e+01 6.999668e+01 1.218922e+02 1.135662e+02 5.511943e+01 -8.053404e+00 4.677856e+01 -1.027267e+01 8.096523e+01 6.585667e+00 3.039044e+01 2.890372e+01 -3.012824e+01 -2.937807e+01 -4.822138e+01 -1.140324e+02 -2.353712e+01 -1.159134e+02 2.824388e+00 -9.245553e+01 -5.255010e+01 -6.179965e+01 -2.939925e+01 -7.155670e+01 -5.360943e+01 -3.636204e+01 -2.156099e+01 -2.865280e+01 -1.077171e+00 -7.401947e+01 -5.530589e+01 -7.732755e+01 -7.519556e+01 -2.338085e+01 2.456418e+00 5.715254e+01 2.604757e+01 7.579433e+01 -3.737783e+01 -1.402739e+01 -1.720435e+01 4.594105e+01 2.585503e+01 1.256008e+02 -4.609099e+01 7.346560e+01 -6.383047e+01 1.832448e+01 -4.587775e+01 -4.010823e+00 -1.586355e+02 7.350338e+01 -2.291150e+01 7.555342e+01 
-1.417175e+01 9.728596e+00 2.819958e+01 1.057339e+02 1.469370e+01 9.230916e+01 3.973611e+00 -5.875262e+01 -8.935025e+01 -4.512619e+01 -2.748225e+01 -3.838752e+01 -3.068504e+01 -4.848904e+01 -3.152129e+01 -2.388166e+01 6.707904e+00 5.193704e+00 5.383413e+01 -1.728408e+01 6.392320e+01 4.762428e+01 3.792065e+01 9.769948e+01 3.105194e+01 5.219230e+01 4.257872e+01 -7.686574e+01 -2.608895e+01 -4.491735e+01 -3.812272e+01 4.401947e-01 -3.191365e+01 -4.978307e+01 -1.739316e+01 -6.292847e+01 -4.576847e+01 -1.264881e+01 -2.899429e+01 8.333595e+01 2.989228e+01 7.550020e+01 2.658968e+01 5.007456e+01 -1.298341e+01 -3.692892e+01 4.828205e+01 6.256544e+01 -1.127410e+02 -5.127703e+01 -8.206660e+01 1.160502e+01 -1.892848e+01 2.685460e+01 -5.551060e+01 1.704413e+00 -8.725090e+01 -4.166507e+00 -1.733520e+01 -9.740034e+00 -7.710438e+01 -8.308104e+01 -1.161567e+02 -8.810633e+01 
-6.354419e+01 -7.827453e+00 2.723188e+01 -6.116291e+01 -2.440086e+00 -4.890864e+01 -4.749282e+01 -1.519082e+01 -1.040845e+02 3.175377e+01 -5.618721e+01 -3.862538e+01 -2.254335e+01 -3.435968e+01 -3.027233e+01 -2.667338e+01 -2.538733e+01 4.430784e+00 -8.886169e+00 -3.393230e+00 -2.800192e+01 3.918728e+00 1.122785e+01 3.546274e+01 5.415664e+01 2.925543e+01 7.366699e+01 -2.190913e+01 -1.337897e+01 -2.926263e+01 1.214765e+01 -1.873265e+00 -7.890129e-01 1.490446e+01 -7.654141e+00 -1.252379e+01 -7.961946e+00 -1.243553e+01 -1.731775e+01 1.257543e+01 3.636295e+01 1.616482e+01 3.317530e+00 3.121301e+01 1.950614e+00 5.545804e+01 3.639358e+01 9.270336e+00 1.062592e+02 3.783762e+01 7.238546e+01 7.359641e+01 5.223777e+00 2.136158e+01 -1.064125e+01 -1.325591e+01 1.502134e+01 1.247345e+02 6.757035e+01 7.386714e+01 7.551637e+01 2.340103e+01 3.977901e+01 -2.478041e+01 
-2.532098e+01 1.372678e+01 -9.569380e+01 -1.032525e+02 3.791833e+00 -7.540143e+01 -9.543263e+00 2.115163e+01 -2.994117e+01 -6.921721e+00 -4.270762e+01 -1.646771e+01 -3.732431e+01 -3.135389e+01 -3.072578e+01 -1.785274e+01 -2.261044e+01 7.151744e-01 6.195974e-01 -1.769941e+01 -1.074291e+01 -3.495973e+01 -1.390383e+01 -3.765746e+01 -3.566551e+01 3.262001e+01 6.552434e+00 7.875608e+01 6.185600e+00 8.872615e+01 9.320880e+01 1.599578e+01 5.901466e+01 4.662918e+01 -4.121791e+01 2.082574e+01 -1.438135e+01 -1.353196e+01 -3.954552e+00 -4.464117e+01 -3.177451e+01 -1.049794e+01 1.116381e+01 6.673044e+00 1.440554e+01 3.175089e+01 5.084911e+01 5.957007e+01 1.598430e+02 5.004611e+01 8.184719e+01 7.457138e+01 2.598285e+01 -6.015996e+00 -3.261886e+01 -1.186183e+00 2.635092e+01 -2.627347e+01 -6.038245e+01 -1.711169e+01 -1.013670e+02 -2.529752e+01 -7.844607e+01 -4.755424e+00 
-1.602275e+01 -5.677314e+01 -7.654968e+01 -7.926282e+01 2.533049e+01 -5.721813e+01 3.464385e+01 2.841026e+01 -1.673329e+01 4.798186e+00 -3.365903e+01 -4.155702e+00 -2.352053e+01 -1.342161e+01 -1.845163e+01 -9.688731e+00 -1.793409e+01 2.821856e+00 9.134891e+00 -1.841367e+01 2.134376e+01 -2.216644e+01 -3.114950e+01 -3.201364e+01 -2.250963e+01 -2.793738e+01 -3.239962e+01 3.169798e+01 7.271210e+01 2.760142e+01 -5.519540e+01 -4.233259e+01 3.257621e+00 2.099667e+01 -6.419071e+00 1.220329e+01 -3.490621e+00 2.178860e-01 1.729977e+00 7.645486e+00 -2.500242e+01 -2.891842e+01 -3.355948e+01 -3.133762e+01 -7.429581e+00 9.634954e+00 5.294897e+01 -3.425060e+01 -5.448831e+01 -2.512551e+01 -9.080885e+00 -3.595887e+00 1.125688e+01 2.737499e+01 1.829030e+01 6.020287e+01 1.188983e+01 1.486443e+01 -2.732222e+01 1.400077e+01 -4.060260e+01 -4.989537e+01 -8.385392e+01 -7.035782e+01 
-5.699586e+01 -1.013998e+02 -5.160750e+01 -1.901506e+01 2.361505e+01 -1.290413e+01 2.441447e+00 2.940725e+01 1.647660e+01 6.994038e+00 -1.219622e+01 8.489526e-01 -1.696215e+01 -5.976697e+00 -1.089672e+01 -2.613346e+00 -1.632914e+00 1.021639e+01 1.645024e+01 1.678784e+01 2.163724e+01 4.426299e+01 -1.716882e+00 1.861708e+01 3.341748e+01 -4.142383e+00 3.881590e+01 -3.808193e+01 8.369534e+01 4.817880e+01 2.313942e+01 -3.750762e+01 -3.251536e+01 1.008824e+01 4.083980e+01 4.481854e+01 2.367370e+01 4.429668e+01 1.638001e+01 -2.702568e+01 -2.079169e+01 -2.414130e+01 -3.645018e+01 -4.578691e+01 -2.356143e+01 -1.941638e+01 5.089684e+01 4.310261e+01 3.531575e+01 -1.213789e+01 5.199189e+01 2.114282e+01 5.611285e+01 4.536117e+01 -2.845436e+00 1.926804e+01 1.553270e+01 4.669792e+01 2.885973e+00 9.340093e+00 -1.037945e+01 -1.055803e+01 -1.534419e+01 -2.797959e+01 
-2.776863e+01 -9.104729e+01 -6.231386e+01 2.599516e+01 3.481515e+01 1.967094e+01 2.451078e+01 2.549597e+01 3.029849e+00 1.735347e+01 -7.003324e+00 7.919700e+00 -9.336872e+00 2.558341e+00 -5.619786e+00 3.794708e+00 -2.197528e+00 1.579876e+01 8.743761e-01 3.455400e+01 1.106640e+01 2.435175e+01 5.299424e+01 -1.654294e+01 6.964171e+01 5.017792e+01 5.583256e+01 6.552854e+01 -2.319791e+00 2.837779e+01 1.242397e+02 2.187749e+01 -1.500713e+00 -6.081028e+00 1.509351e+01 2.071475e+01 6.204944e+01 7.283930e+01 8.737845e+01 6.841067e+01 3.154838e+01 4.104797e+01 9.378674e+00 4.068620e+00 -2.455875e+01 -1.188506e+02 -5.281910e+00 7.503419e+00 2.394034e+01 -1.388282e+01 -1.873104e+01 -9.653631e-01 1.630194e+01 2.516400e+01 3.342562e+01 2.186417e+01 2.265494e+01 1.637683e+01 9.974545e+00 6.443252e+00 -2.013728e+01 -1.359710e+01 -1.324364e+01 -3.212432e+01 
3.439416e+01 -4.536448e+01 -4.520320e+01 4.014858e+00 3.751190e+01 1.116589e+01 3.187717e+00 2.399652e+01 1.084612e+01 2.115509e+01 2.759521e+00 1.386083e+01 -2.945827e+00 9.168180e+00 -1.820070e+00 1.036783e+01 8.474710e-01 2.186053e+01 -6.505892e+00 4.417888e+01 2.377979e+00 3.275196e+01 6.244810e+01 2.131657e+01 6.192590e+01 6.637557e+01 4.775913e+01 3.605364e+01 2.433361e+01 -7.677456e+01 -5.318050e+01 -6.548876e+01 -1.354330e+01 -4.765143e+01 7.241710e+00 -1.002256e+01 2.196135e+01 9.469575e+00 1.341923e+01 1.436273e+01 1.930184e+00 4.203426e+01 4.769808e+01 4.158310e+01 2.025345e-01 -2.097001e+01 -3.637822e+01 -2.744310e+01 -3.259799e+01 -3.922403e+01 -7.882946e+01 -7.129799e+01 -1.067878e+01 6.343508e+01 3.101585e+00 -7.605749e+00 9.504472e+00 3.215500e+01 5.085107e+01 5.760062e+01 4.386296e+01 2.364566e+01 5.850315e+01 7.022371e+01 
1.347828e+02 1.669417e+02 5.724617e+01 3.198595e+01 4.261264e+01 3.605468e+01 1.428629e+01 3.313804e+01 1.113614e+01 2.781755e+01 5.830994e+00 1.832125e+01 2.094987e+00 1.199697e+01 2.412440e+00 1.090202e+01 3.474337e+00 1.524091e+01 7.645965e+00 3.733388e+01 -1.677800e+00 6.702801e+01 1.676896e+01 7.080173e+01 3.943581e+01 5.979766e+01 4.775690e+01 2.482238e+01 8.425776e+01 2.979137e+01 -1.966103e+01 5.222673e+00 -3.328492e+01 -5.263003e+01 -1.634834e+00 -6.165514e+00 9.363045e+00 -3.295242e+00 4.318654e+01 -1.502722e+01 4.544861e+01 6.290606e+01 1.612927e+01 5.003744e+01 1.716656e+01 6.226016e+01 -2.398722e+01 1.848661e+01 -5.528964e+00 -1.210220e+01 -7.469071e+01 -8.175938e+01 -7.665572e+01 8.559469e+00 -3.226913e+01 -6.009058e+01 3.228859e+01 4.765455e+01 7.021149e+01 3.412136e+01 7.732204e+01 2.353236e+01 1.245558e+02 1.024144e+02 
1.758462e+02 1.932782e+02 1.964458e+02 8.833294e+01 4.656175e+01 6.254773e+01 8.815514e-01 3.835513e+01 1.148967e+01 3.385348e+01 1.173444e+01 2.373353e+01 6.231234e+00 1.832012e+01 2.706472e+00 2.069701e+01 1.863355e+00 3.043680e+01 1.045751e+01 1.970818e+01 5.087376e+01 2.880530e+01 6.261226e+00 7.577369e+01 5.479317e+01 2.497519e+01 5.027342e+01 4.020482e+01 4.865593e+01 6.699563e+01 7.008742e+01 6.945678e+01 5.896872e+01 -1.369578e+01 1.205424e+01 -5.545667e-01 3.200623e+01 1.120290e+01 5.528236e+01 3.179739e+00 5.725791e+01 8.594046e+01 1.046811e+02 1.893661e+02 7.229753e+01 1.247563e+02 7.850598e+01 1.823694e+01 1.080866e+02 2.114251e+01 9.427690e+01 7.853378e+01 2.980288e+01 -4.387108e+01 3.144457e+01 -2.781332e+01 5.825577e+01 2.104771e+01 9.983018e+01 5.218790e+01 9.200852e+01 6.982430e+01 1.237855e+02 1.668090e+02 
2.038882e+02 1.367066e+02 2.207621e+02 1.418981e+02 4.678929e+01 9.916357e+01 3.357409e+01 6.157837e+01 2.221649e+01 3.991126e+01 1.307757e+01 2.357745e+01 8.954993e+00 1.412463e+01 1.204363e+01 7.037057e+00 1.837943e+01 1.026838e+01 4.339098e+00 3.965386e+01 2.222466e+01 -1.947933e+01 7.194299e+01 7.795894e+01 1.680287e+01 3.429702e+01 3.455421e+01 6.889161e+01 1.934052e+01 1.044817e+02 6.421304e+01 2.667129e+01 1.041045e+02 9.246040e+01 1.024372e+01 6.049565e+01 1.290406e+01 7.425093e+01 3.178752e+00 -2.150207e+01 6.084028e+01 1.063820e+02 1.105026e+02 1.573408e+02 8.378320e+01 1.092308e+02 -4.827820e+00 6.325132e+00 1.145157e+02 -2.950154e+00 3.789383e+01 7.852961e+01 1.143550e+02 5.402942e+01 1.172803e+02 1.638619e+02 1.509999e+02 2.076106e+02 2.561497e+02 2.016997e+02 1.398181e+02 1.518981e+02 1.421025e+02 1.672313e+02 
1.707925e+02 2.272383e+02 1.841579e+02 1.671902e+02 2.349284e+01 1.481577e+02 1.093690e+02 1.157057e+02 5.844606e+01 5.166148e+01 2.605920e+01 2.660790e+01 1.438761e+01 2.127510e+01 5.012065e+00 3.207300e+01 -2.288429e+00 2.357255e+01 4.576157e+01 1.520106e+00 1.043894e+01 3.889386e+01 3.454140e+01 3.791104e+01 -2.375664e+01 7.804930e+01 2.526132e+01 5.027796e+01 1.528927e+01 4.412689e+01 5.374313e+01 3.643039e+01 3.093114e+01 7.234466e+01 3.703063e+01 8.322863e+01 1.201540e+01 1.037981e+02 1.849727e+01 7.910486e+01 -1.558187e+01 1.382251e+01 -6.889555e+00 -1.176462e+01 1.041043e+02 7.819189e+01 4.565134e+01 1.054165e+02 1.459509e+01 1.352703e+02 -7.451003e+01 4.642549e+01 6.999457e+01 1.295610e+02 1.544754e+02 1.595440e+02 1.230375e+02 2.353093e+02 1.794895e+02 1.713161e+02 1.182613e+02 2.423670e+02 1.613336e+02 1.685851e+02 
4.278979e+01 1.333437e+02 5.720537e+01 1.133820e+02 -4.422889e+00 1.303534e+02 6.857838e+01 7.174806e+01 3.505487e+01 2.937241e+01 1.747214e+01 1.653017e+01 9.275972e+00 1.022714e+01 7.101760e+00 5.358432e+00 9.844795e+00 2.089444e+01 -1.203352e+01 1.712822e+01 2.198187e+01 2.468458e+01 -1.459990e+01 -1.743974e+01 3.147500e+01 -9.835974e+00 4.232497e+01 1.477191e+01 3.793249e+01 9.954663e+00 9.713872e+01 6.087271e+01 -1.582891e+01 1.685076e+01 2.342047e+01 -1.375035e+01 -9.277329e+00 -5.290627e+01 -7.240391e+00 5.924518e+01 6.591826e-01 -6.260163e+00 1.797951e+01 -4.722242e+01 -1.097408e+01 -1.180286e+01 8.036583e+01 2.369774e+01 8.330562e+01 1.778702e+02 4.416518e+01 -1.865271e+01 -4.782414e+01 3.859187e+01 9.750118e+00 6.067042e+01 4.506814e+01 3.512325e+01 -5.019163e+01 3.517834e+01 -2.399902e+00 8.140914e+01 1.639941e+01 8.442643e+01 
-2.002334e+00 2.357048e+00 -2.287072e+01 4.674674e+01 -4.745783e+00 6.860766e+01 -8.798721e+00 1.135935e+01 7.924790e+00 1.101981e+01 1.333009e+01 1.039469e+01 1.540073e+01 5.331287e+00 2.771008e+01 -1.385379e+01 4.895946e+01 -1.521866e+01 2.472452e+01 3.154210e+01 -1.376608e+01 1.851124e+01 3.502347e+01 1.806462e+01 6.559137e+01 -3.553101e+00 8.607095e+01 3.177203e+01 2.388277e+01 3.802268e+01 1.547546e+01 5.996316e+01 5.860074e+00 4.327533e+01 4.395295e+01 1.323951e+00 5.621792e+01 -7.974882e+01 -6.845625e+00 4.076671e+01 7.821464e+01 3.868528e+01 7.815511e+01 -3.898239e+00 -8.572450e+01 4.923911e+01 -7.580737e+01 -4.763951e+01 -8.396042e+01 1.264410e+02 1.149007e+02 5.266229e+01 -6.107608e+01 -1.194637e+01 -1.941905e+01 1.674527e+01 -4.125337e+01 -4.095000e+01 -1.320447e+02 1.447734e+01 7.258335e+00 6.082160e+01 4.187499e+01 2.773915e+01 
-7.968246e+00 -5.191821e+01 -5.176394e+01 -2.263909e+01 -1.306673e+00 -6.003105e+00 -2.655445e+01 -1.028993e+01 5.630500e-01 1.917606e+00 1.009055e+01 8.416132e+00 1.150058e+01 1.777267e+01 5.461610e+00 3.709364e+01 -4.659523e+00 3.934517e+01 2.351016e+01 -1.425078e+01 4.820718e+01 -2.347167e+00 1.465016e+01 1.806222e+01 -1.203594e+01 5.749191e+01 -2.614538e+01 4.761046e+01 1.650453e+01 3.231460e+01 1.827291e+01 6.759322e+01 3.414332e+01 5.985544e+01 4.006391e+01 8.758872e+01 1.591578e+01 5.539836e+01 -4.947008e+01 6.755669e+01 -1.436897e+01 2.014847e+01 3.064559e+01 4.047809e+01 1.543472e+02 9.139928e+01 5.872189e+00 6.042249e+01 -4.142486e+01 -2.409790e+01 1.134475e+02 1.509599e+02 9.516436e+01 4.624897e+00 6.881279e+01 6.492469e+01 -1.036122e+01 -4.233018e+01 -6.755691e+01 2.034290e+01 5.844071e+01 6.626691e+01 5.657311e+01 2.755236e+01 
-7.060382e+01 -9.171994e+01 -7.682954e+01 -6.206022e+01 6.261647e+00 -4.775079e+01 -1.522422e+01 -2.296386e+01 -3.084911e+00 -6.888722e+00 6.011410e+00 -1.071123e+00 7.396915e+00 -1.372831e-01 2.497513e+00 -3.047866e+00 3.923436e+00 -8.173124e+00 -1.201995e+01 4.028913e+01 2.587876e+01 -6.042797e+00 5.720091e+01 -8.918135e+00 1.958839e+01 -6.005609e+00 1.865109e+00 7.875044e+00 4.837784e+01 3.494252e+01 4.659209e+01 2.791063e+01 1.100708e+01 2.175770e+01 -1.492875e+01 -3.081567e+00 -3.319929e+01 4.221284e+01 5.616963e+01 9.828641e+00 2.699449e+01 1.904717e+00 -1.448278e+01 1.019785e+01 3.403072e+01 -6.250968e+01 2.585038e+01 1.113039e+02 5.581907e+01 -3.098199e+01 3.183596e+01 -2.295488e+01 8.173084e+00 -3.382897e+01 -3.374838e+01 6.484547e+01 3.391375e+01 -1.997388e+01 4.145765e+00 -2.299127e+01 -9.066676e+00 -4.609958e+01 -4.124916e+01 -4.469406e+01 