# vtk DataFile Version 2.0
Comment goes here
ASCII

DATASET STRUCTURED_POINTS
FIELD FieldData 1
TIME 1 1 double
0.06000000
DIMENSIONS    64   64   1

ORIGIN    0.000   0.000   0.000
SPACING   0.03125 0.03125   1.000

POINT_DATA   4096
SCALARS uX double
LOOKUP_TABLE default

6.968507e-01 -1.644897e+00 4.612875e-01 -1.482060e+00 1.329851e-01 -1.313281e+00 1.652895e-01 -1.094557e+00 1.057937e-01 -9.109322e-01 2.748857e-02 -7.734900e-01 -2.966690e-02 -6.873784e-01 -5.281301e-02 -6.435066e-01 -5.319413e-02 -6.157554e-01 -5.817641e-02 -5.759713e-01 -9.154194e-02 -5.006817e-01 -1.755114e-01 -3.663318e-01 -3.280459e-01 -1.686407e-01 -5.320682e-01 6.376243e-02 -7.535804e-01 2.956880e-01 -9.603003e-01 5.052885e-01 -1.143162e+00 6.903698e-01 -1.302377e+00 8.450295e-01 -1.424195e+00 9.481311e-01 -1.479120e+00 9.652750e-01 -1.437164e+00 8.773087e-01 -1.301485e+00 7.041674e-01 -1.104625e+00 4.883257e-01 -8.850242e-01 2.536738e-01 -6.545654e-01 1.479034e-03 -4.117231e-01 -2.688521e-01 -1.601057e-01 -5.478467e-01 8.472188e-02 -8.164911e-01 2.925922e-01 -1.040196e+00 4.397993e-01 -1.219830e+00 5.419675e-01 -1.379022e+00 6.120635e-01 -1.528985e+00 
-4.421325e-01 3.982920e-01 -2.398762e-01 3.201684e-01 6.743480e-02 2.448285e-01 -1.506755e-01 1.067966e-01 -2.395063e-01 1.085189e-02 -2.824278e-01 -5.036553e-02 -3.174452e-01 -8.081868e-02 -3.586042e-01 -8.784150e-02 -4.036513e-01 -8.839074e-02 -4.381450e-01 -9.827067e-02 -4.501006e-01 -1.287504e-01 -4.306806e-01 -1.937679e-01 -3.685069e-01 -2.962008e-01 -2.749272e-01 -4.183110e-01 -1.702052e-01 -5.416860e-01 -7.197632e-02 -6.549156e-01 1.698945e-02 -7.581772e-01 9.780099e-02 -8.488736e-01 1.648569e-01 -9.175144e-01 2.032683e-01 -9.429942e-01 1.939446e-01 -9.127667e-01 1.380009e-01 -8.372424e-01 5.476940e-02 -7.420411e-01 -3.301842e-02 -6.383699e-01 -1.217318e-01 -5.237744e-01 -2.138504e-01 -3.971359e-01 -3.073702e-01 -2.625005e-01 -3.945704e-01 -1.285848e-01 -4.583619e-01 -1.686333e-02 -4.816413e-01 7.340932e-02 -4.725919e-01 1.552154e-01 -4.334212e-01 2.382561e-01 
1.433622e+00 7.293780e-01 1.182223e+00 6.526205e-01 9.148567e-01 5.330007e-01 1.521694e+00 4.907872e-01 1.928884e+00 3.961285e-01 2.222519e+00 3.071637e-01 2.429976e+00 2.477490e-01 2.570292e+00 2.190223e-01 2.664663e+00 2.052910e-01 2.741281e+00 1.860659e-01 2.819306e+00 1.460348e-01 2.919387e+00 6.847409e-02 3.057202e+00 -5.015111e-02 3.222527e+00 -1.900170e-01 3.393085e+00 -3.236800e-01 3.547872e+00 -4.382595e-01 3.684040e+00 -5.380348e-01 3.803550e+00 -6.222814e-01 3.897687e+00 -6.786287e-01 3.946199e+00 -6.832675e-01 3.926231e+00 -6.224051e-01 3.838073e+00 -5.113448e-01 3.703702e+00 -3.815663e-01 3.550625e+00 -2.495694e-01 3.381982e+00 -1.123688e-01 3.193421e+00 3.220942e-02 2.981269e+00 1.815244e-01 2.750083e+00 3.256139e-01 2.518098e+00 4.381187e-01 2.299769e+00 5.183263e-01 2.071845e+00 5.930747e-01 1.802028e+00 6.814450e-01 
3.457035e+00 -2.561473e-03 2.586862e+00 -1.352846e-01 1.282850e+00 -6.659235e-02 2.811765e+00 3.601793e-02 3.618292e+00 9.410833e-02 4.147275e+00 1.315320e-01 4.540010e+00 1.537001e-01 4.852975e+00 1.634756e-01 5.109073e+00 1.688674e-01 5.312249e+00 1.766951e-01 5.469223e+00 1.902495e-01 5.586005e+00 2.165526e-01 5.660463e+00 2.581674e-01 5.701057e+00 3.048649e-01 5.723028e+00 3.482913e-01 5.739010e+00 3.843746e-01 5.748192e+00 4.177361e-01 5.744366e+00 4.503241e-01 5.728904e+00 4.793308e-01 5.710038e+00 4.931198e-01 5.698610e+00 4.848875e-01 5.691778e+00 4.623973e-01 5.677871e+00 4.412424e-01 5.643613e+00 4.247169e-01 5.586705e+00 4.062458e-01 5.505695e+00 3.820795e-01 5.398197e+00 3.526354e-01 5.257520e+00 3.198837e-01 5.067456e+00 2.960814e-01 4.805640e+00 2.762768e-01 4.461435e+00 2.461710e-01 4.006047e+00 1.880511e-01 
3.550477e+00 1.788842e-01 2.841903e+00 -1.371021e-02 1.792011e+00 1.613166e-02 2.955059e+00 3.487633e-07 3.710969e+00 4.428350e-02 4.236663e+00 9.217830e-02 4.628747e+00 1.337710e-01 4.934497e+00 1.679602e-01 5.178440e+00 1.959992e-01 5.369034e+00 2.208604e-01 5.516702e+00 2.442168e-01 5.630416e+00 2.684855e-01 5.715296e+00 2.945756e-01 5.775463e+00 3.200697e-01 5.816418e+00 3.403707e-01 5.846383e+00 3.549902e-01 5.866945e+00 3.679173e-01 5.874706e+00 3.810518e-01 5.868628e+00 3.952717e-01 5.853589e+00 4.060980e-01 5.835541e+00 4.094513e-01 5.811338e+00 4.075211e-01 5.773429e+00 4.070545e-01 5.716215e+00 4.091936e-01 5.641013e+00 4.093151e-01 5.544195e+00 4.052896e-01 5.419534e+00 3.965991e-01 5.262564e+00 3.833187e-01 5.062584e+00 3.708509e-01 4.803548e+00 3.584057e-01 4.474142e+00 3.294060e-01 4.061849e+00 2.595882e-01 
3.734146e+00 4.813277e-02 3.091130e+00 -3.225275e-03 2.261786e+00 -9.339815e-03 3.092573e+00 2.424847e-02 3.799648e+00 7.084461e-02 4.312695e+00 1.099708e-01 4.696308e+00 1.411637e-01 4.996624e+00 1.656873e-01 5.236343e+00 1.864998e-01 5.421705e+00 2.072350e-01 5.562715e+00 2.298599e-01 5.669353e+00 2.563274e-01 5.745656e+00 2.879993e-01 5.792812e+00 3.233133e-01 5.819919e+00 3.584850e-01 5.836465e+00 3.899999e-01 5.844532e+00 4.181231e-01 5.839620e+00 4.447326e-01 5.825657e+00 4.684055e-01 5.809619e+00 4.833259e-01 5.794757e+00 4.857773e-01 5.774774e+00 4.788539e-01 5.745451e+00 4.674079e-01 5.702998e+00 4.524445e-01 5.644011e+00 4.323267e-01 5.561605e+00 4.070176e-01 5.452389e+00 3.773365e-01 5.310812e+00 3.443304e-01 5.126994e+00 3.102984e-01 4.888595e+00 2.721743e-01 4.584482e+00 2.210459e-01 4.200831e+00 1.459407e-01 
3.917418e+00 1.684727e-01 3.401376e+00 1.028247e-01 2.731790e+00 9.637059e-02 3.334131e+00 6.578982e-02 3.909423e+00 7.573406e-02 4.368106e+00 1.050349e-01 4.725388e+00 1.395805e-01 5.009324e+00 1.736879e-01 5.238719e+00 2.055417e-01 5.417359e+00 2.327241e-01 5.551967e+00 2.569195e-01 5.655596e+00 2.794793e-01 5.737487e+00 3.017502e-01 5.797857e+00 3.217552e-01 5.837159e+00 3.394620e-01 5.864333e+00 3.541887e-01 5.884994e+00 3.674936e-01 5.895597e+00 3.792391e-01 5.891541e+00 3.906849e-01 5.879018e+00 3.996635e-01 5.863768e+00 4.051172e-01 5.841741e+00 4.071069e-01 5.803563e+00 4.093039e-01 5.749273e+00 4.112464e-01 5.681274e+00 4.105038e-01 5.595358e+00 4.040409e-01 5.480673e+00 3.929047e-01 5.334993e+00 3.774616e-01 5.154639e+00 3.588735e-01 4.932105e+00 3.350646e-01 4.659286e+00 2.994071e-01 4.325928e+00 2.472138e-01 
4.151512e+00 1.113927e-01 3.709091e+00 9.400565e-02 3.166732e+00 8.763463e-02 3.596401e+00 7.753391e-02 4.073067e+00 9.323448e-02 4.486753e+00 1.203691e-01 4.821123e+00 1.502043e-01 5.092712e+00 1.785492e-01 5.314095e+00 2.054947e-01 5.480209e+00 2.311299e-01 5.602181e+00 2.551407e-01 5.696936e+00 2.780815e-01 5.771332e+00 3.027073e-01 5.816526e+00 3.307217e-01 5.841731e+00 3.593881e-01 5.859790e+00 3.849115e-01 5.874074e+00 4.072986e-01 5.872192e+00 4.288958e-01 5.860863e+00 4.478193e-01 5.849843e+00 4.594234e-01 5.840911e+00 4.623260e-01 5.819890e+00 4.597063e-01 5.788246e+00 4.534274e-01 5.748305e+00 4.419063e-01 5.697295e+00 4.235644e-01 5.620862e+00 3.991158e-01 5.519050e+00 3.703186e-01 5.391086e+00 3.382344e-01 5.232877e+00 3.040258e-01 5.037691e+00 2.664719e-01 4.797770e+00 2.222685e-01 4.504811e+00 1.699543e-01 
4.378164e+00 1.944397e-01 4.030987e+00 1.704610e-01 3.598898e+00 1.641934e-01 3.901240e+00 1.294212e-01 4.257391e+00 1.172285e-01 4.596826e+00 1.286981e-01 4.888119e+00 1.553558e-01 5.133361e+00 1.894609e-01 5.340971e+00 2.272460e-01 5.503006e+00 2.550628e-01 5.614906e+00 2.751734e-01 5.700858e+00 2.927524e-01 5.776621e+00 3.133015e-01 5.837309e+00 3.293280e-01 5.868920e+00 3.425716e-01 5.889011e+00 3.544947e-01 5.910454e+00 3.685766e-01 5.928022e+00 3.787669e-01 5.922457e+00 3.870662e-01 5.908255e+00 3.939755e-01 5.897661e+00 4.017250e-01 5.886526e+00 4.052721e-01 5.850242e+00 4.079496e-01 5.798150e+00 4.102867e-01 5.739999e+00 4.117382e-01 5.674393e+00 4.042086e-01 5.573119e+00 3.883132e-01 5.443413e+00 3.662179e-01 5.291601e+00 3.412991e-01 5.115637e+00 3.138362e-01 4.909498e+00 2.812521e-01 4.666066e+00 2.416293e-01 
4.621932e+00 1.596602e-01 4.339726e+00 1.610863e-01 3.999238e+00 1.552961e-01 4.201448e+00 1.317531e-01 4.472642e+00 1.268836e-01 4.755874e+00 1.407530e-01 5.013558e+00 1.678387e-01 5.241429e+00 2.004372e-01 5.439580e+00 2.376609e-01 5.579435e+00 2.659889e-01 5.669219e+00 2.829659e-01 5.746517e+00 2.981146e-01 5.821033e+00 3.196554e-01 5.858965e+00 3.424064e-01 5.873059e+00 3.624705e-01 5.890359e+00 3.810762e-01 5.916046e+00 4.010396e-01 5.913497e+00 4.185073e-01 5.897917e+00 4.314724e-01 5.891086e+00 4.398534e-01 5.895832e+00 4.451957e-01 5.875255e+00 4.444348e-01 5.841409e+00 4.398846e-01 5.808072e+00 4.320613e-01 5.774410e+00 4.198891e-01 5.705988e+00 3.960172e-01 5.612033e+00 3.643789e-01 5.501079e+00 3.288864e-01 5.375092e+00 2.935931e-01 5.230134e+00 2.592445e-01 5.059789e+00 2.246170e-01 4.858393e+00 1.899513e-01 
4.856476e+00 2.203819e-01 4.649076e+00 2.203946e-01 4.394532e+00 2.150256e-01 4.512469e+00 1.783247e-01 4.691699e+00 1.521672e-01 4.902907e+00 1.470408e-01 5.111689e+00 1.665144e-01 5.306818e+00 2.085538e-01 5.484828e+00 2.747697e-01 5.633271e+00 2.983811e-01 5.702985e+00 2.935634e-01 5.761300e+00 3.003098e-01 5.828866e+00 3.363301e-01 5.900760e+00 3.483756e-01 5.911626e+00 3.424304e-01 5.917997e+00 3.479498e-01 5.939854e+00 3.779670e-01 5.978805e+00 3.871232e-01 5.961061e+00 3.790538e-01 5.939300e+00 3.810326e-01 5.933610e+00 4.041512e-01 5.951982e+00 4.092164e-01 5.911601e+00 3.997458e-01 5.859052e+00 4.014350e-01 5.811299e+00 4.202364e-01 5.786261e+00 4.194157e-01 5.690156e+00 3.904052e-01 5.570169e+00 3.529515e-01 5.449929e+00 3.204363e-01 5.325986e+00 2.934679e-01 5.189489e+00 2.684533e-01 5.034149e+00 2.433770e-01 
5.093641e+00 1.964496e-01 4.941452e+00 2.113144e-01 4.760422e+00 2.066052e-01 4.811882e+00 1.768399e-01 4.927411e+00 1.555124e-01 5.086316e+00 1.515037e-01 5.258711e+00 1.708794e-01 5.439878e+00 2.153955e-01 5.615487e+00 3.167362e-01 5.723103e+00 3.283436e-01 5.749141e+00 2.977258e-01 5.808787e+00 2.970371e-01 5.900333e+00 3.603097e-01 5.921228e+00 3.679674e-01 5.901961e+00 3.523279e-01 5.922911e+00 3.605180e-01 5.980390e+00 4.187907e-01 5.964532e+00 4.219176e-01 5.926101e+00 4.051846e-01 5.929989e+00 4.071225e-01 5.971072e+00 4.505949e-01 5.941185e+00 4.393275e-01 5.893070e+00 4.148856e-01 5.877401e+00 4.091440e-01 5.885500e+00 4.381954e-01 5.817268e+00 4.093869e-01 5.716290e+00 3.620498e-01 5.619226e+00 3.145272e-01 5.530677e+00 2.772188e-01 5.441257e+00 2.489637e-01 5.341120e+00 2.259628e-01 5.225558e+00 2.072265e-01 
5.321068e+00 2.436470e-01 5.229388e+00 2.605103e-01 5.119535e+00 2.564644e-01 5.105728e+00 2.199229e-01 5.149489e+00 1.783375e-01 5.244877e+00 1.407252e-01 5.373390e+00 1.249851e-01 5.531082e+00 1.727702e-01 5.670446e+00 4.447856e-01 5.823443e+00 3.962332e-01 5.790762e+00 2.602559e-01 5.829897e+00 2.356334e-01 5.895618e+00 4.398356e-01 6.007347e+00 4.116936e-01 5.944418e+00 2.939992e-01 5.947590e+00 2.751593e-01 5.975492e+00 4.579050e-01 6.068204e+00 4.395201e-01 5.986917e+00 3.260745e-01 5.968579e+00 3.062538e-01 5.972574e+00 4.670464e-01 6.057620e+00 4.537307e-01 5.965884e+00 3.462497e-01 5.928258e+00 3.331889e-01 5.896177e+00 4.758759e-01 5.957771e+00 4.917580e-01 5.813225e+00 3.990256e-01 5.686575e+00 3.262539e-01 5.607063e+00 2.890615e-01 5.543173e+00 2.700518e-01 5.476708e+00 2.575074e-01 5.402602e+00 2.478529e-01 
5.544461e+00 2.267127e-01 5.499216e+00 2.535865e-01 5.451053e+00 2.503670e-01 5.387894e+00 2.230576e-01 5.384051e+00 1.870398e-01 5.434722e+00 1.439509e-01 5.525179e+00 9.490226e-02 5.683761e+00 5.881563e-02 5.885186e+00 6.740450e-01 5.910254e+00 4.402557e-01 5.782696e+00 1.996892e-01 5.868652e+00 1.012168e-01 6.080357e+00 6.163731e-01 5.992717e+00 4.297847e-01 5.874196e+00 2.474842e-01 5.946469e+00 1.647993e-01 6.149276e+00 6.349247e-01 6.009744e+00 4.587852e-01 5.891514e+00 2.957973e-01 5.956301e+00 2.159085e-01 6.151250e+00 6.347338e-01 5.998915e+00 4.606932e-01 5.886591e+00 3.120832e-01 5.945050e+00 2.440811e-01 6.117402e+00 6.033413e-01 5.949580e+00 4.595620e-01 5.790217e+00 3.516602e-01 5.714732e+00 2.790344e-01 5.682393e+00 2.468224e-01 5.657398e+00 2.329627e-01 5.625572e+00 2.253234e-01 5.586686e+00 2.219250e-01 
5.757491e+00 2.655524e-01 5.761644e+00 2.975249e-01 5.774513e+00 2.952078e-01 5.656840e+00 2.748737e-01 5.590976e+00 2.351231e-01 5.573391e+00 1.519715e-01 5.611909e+00 -2.376821e-02 5.781056e+00 -1.943290e-01 5.950428e+00 1.109761e+00 6.099512e+00 5.652150e-01 5.747885e+00 -2.185825e-02 5.877099e+00 -2.875316e-01 6.078726e+00 1.076723e+00 6.210549e+00 6.123695e-01 5.839621e+00 2.437892e-02 5.948991e+00 -2.732759e-01 6.136303e+00 1.064602e+00 6.253074e+00 6.506288e-01 5.869532e+00 6.438833e-02 5.966370e+00 -2.496254e-01 6.143304e+00 1.027674e+00 6.255783e+00 6.617026e-01 5.874775e+00 9.068861e-02 5.972867e+00 -2.329482e-01 6.142329e+00 9.354877e-01 6.255108e+00 7.051789e-01 5.853847e+00 3.418270e-01 5.751198e+00 2.456081e-01 5.755023e+00 2.371835e-01 5.762172e+00 2.426446e-01 5.761204e+00 2.479254e-01 5.757647e+00 2.537147e-01 
5.963404e+00 2.542658e-01 6.006094e+00 2.928230e-01 6.071694e+00 2.914076e-01 5.912739e+00 2.866664e-01 5.808654e+00 2.713439e-01 5.756785e+00 2.301248e-01 5.757597e+00 1.610276e-01 5.781059e+00 1.585461e-01 5.920651e+00 5.320166e-01 5.605614e+00 -3.101472e-03 5.606396e+00 -1.127071e-01 5.769657e+00 -5.382910e-04 6.110497e+00 9.773249e-01 5.743951e+00 2.430164e-01 5.635800e+00 -4.311222e-02 5.796087e+00 1.273119e-02 6.198566e+00 1.232615e+00 5.806721e+00 3.958420e-01 5.639451e+00 8.188126e-03 5.803346e+00 1.505800e-02 6.237034e+00 1.385418e+00 5.871238e+00 4.989161e-01 5.655239e+00 2.013146e-02 5.842920e+00 -3.833181e-02 6.304012e+00 1.528654e+00 6.040504e+00 6.941738e-01 5.723664e+00 2.355880e-01 5.768422e+00 1.779775e-01 5.841322e+00 1.979858e-01 5.882122e+00 2.152156e-01 5.907107e+00 2.256534e-01 5.931268e+00 2.359815e-01 
6.157387e+00 2.862759e-01 6.241390e+00 3.280689e-01 6.359859e+00 3.274883e-01 6.162941e+00 3.389442e-01 6.012410e+00 3.671285e-01 5.878744e+00 4.389156e-01 5.685323e+00 5.744790e-01 5.206089e+00 5.529878e-01 4.403909e+00 -2.388287e+00 4.552924e+00 -1.126069e+00 5.333183e+00 3.969016e-02 5.151987e+00 4.036383e-01 4.459339e+00 -2.080046e+00 4.664069e+00 -9.737440e-01 5.322329e+00 6.292781e-02 5.152868e+00 4.235323e-01 4.553862e+00 -1.798598e+00 4.700471e+00 -8.566856e-01 5.304559e+00 9.097480e-02 5.164088e+00 4.493144e-01 4.684041e+00 -1.519299e+00 4.733771e+00 -7.332140e-01 5.304682e+00 1.222709e-01 5.224861e+00 4.792789e-01 4.969918e+00 -1.091445e+00 4.902427e+00 -6.425003e-01 5.536129e+00 -1.109514e-01 5.833547e+00 1.060090e-01 5.938809e+00 1.872727e-01 5.992037e+00 2.230948e-01 6.037531e+00 2.437963e-01 6.090170e+00 2.617526e-01 
6.342838e+00 2.780146e-01 6.459415e+00 3.210616e-01 6.622735e+00 3.213389e-01 6.387701e+00 3.387628e-01 6.191738e+00 3.811172e-01 5.990713e+00 4.900819e-01 5.691813e+00 6.875727e-01 5.113556e+00 6.659519e-01 4.451897e+00 -2.163950e+00 4.433638e+00 -9.091813e-01 5.209838e+00 2.322123e-01 4.891554e+00 5.135828e-01 3.955461e+00 -2.854272e+00 4.389022e+00 -1.117272e+00 5.222163e+00 1.903377e-01 4.841752e+00 5.087333e-01 3.738832e+00 -3.131264e+00 4.378379e+00 -1.192123e+00 5.234315e+00 1.830685e-01 4.833709e+00 5.114609e-01 3.678763e+00 -3.260163e+00 4.388577e+00 -1.240305e+00 5.278924e+00 1.756150e-01 4.884926e+00 5.076338e-01 3.781845e+00 -3.401883e+00 4.533849e+00 -1.503368e+00 5.720643e+00 -2.652266e-01 6.011696e+00 9.475829e-02 6.075651e+00 1.862348e-01 6.119748e+00 2.156602e-01 6.175991e+00 2.325496e-01 6.249090e+00 2.504569e-01 
6.514478e+00 3.029424e-01 6.667585e+00 3.435663e-01 6.875764e+00 3.445763e-01 6.615788e+00 3.490012e-01 6.400229e+00 3.467836e-01 6.212167e+00 3.400919e-01 6.040539e+00 3.359744e-01 5.919983e+00 3.650694e-01 6.164491e+00 9.646983e-01 5.703749e+00 3.366755e-01 5.605524e+00 1.895994e-01 5.632215e+00 3.096647e-01 5.879480e+00 4.312004e-01 5.415281e+00 -2.317134e-03 5.526369e+00 9.146505e-02 5.567128e+00 3.021169e-01 5.722323e+00 9.279137e-02 5.300628e+00 -1.948683e-01 5.511828e+00 3.270700e-02 5.551682e+00 2.775195e-01 5.619008e+00 -1.936692e-01 5.270408e+00 -3.529550e-01 5.555196e+00 -1.787220e-02 5.584479e+00 2.331871e-01 5.541339e+00 -6.295969e-01 5.321621e+00 -6.057777e-01 5.766145e+00 -1.620083e-01 6.007409e+00 7.412359e-02 6.120731e+00 1.732981e-01 6.203182e+00 2.189080e-01 6.288515e+00 2.466200e-01 6.389721e+00 2.714804e-01 
6.677555e+00 2.930770e-01 6.859347e+00 3.306746e-01 7.104408e+00 3.324704e-01 6.820664e+00 3.330834e-01 6.586285e+00 3.090469e-01 6.399663e+00 2.262431e-01 6.294872e+00 1.793731e-02 6.384302e+00 -1.615204e-01 6.434890e+00 1.251723e+00 6.533230e+00 7.377967e-01 6.037035e+00 6.625378e-02 6.116114e+00 -2.091417e-01 6.343804e+00 1.362731e+00 6.332071e+00 6.598448e-01 5.909917e+00 1.020008e-02 6.041112e+00 -2.235519e-01 6.337005e+00 1.398846e+00 6.247904e+00 6.095034e-01 5.873499e+00 -2.124352e-02 6.030952e+00 -2.266980e-01 6.359964e+00 1.381602e+00 6.239580e+00 5.485110e-01 5.915763e+00 -6.269635e-02 6.102496e+00 -2.371811e-01 6.459199e+00 1.320327e+00 6.338590e+00 5.526627e-01 6.049775e+00 1.541292e-01 6.108671e+00 1.402155e-01 6.212852e+00 1.840465e-01 6.308641e+00 2.162660e-01 6.409897e+00 2.393936e-01 6.529944e+00 2.624629e-01 
6.826088e+00 3.135894e-01 7.039469e+00 3.477124e-01 7.322644e+00 3.500948e-01 7.029351e+00 3.512090e-01 6.790733e+00 3.370807e-01 6.609081e+00 3.007956e-01 6.504919e+00 2.255484e-01 6.530152e+00 1.531734e-01 6.574239e+00 6.855158e-01 6.447742e+00 5.544729e-01 6.216435e+00 2.739074e-01 6.240354e+00 6.712419e-02 6.370918e+00 7.472568e-01 6.311799e+00 5.617890e-01 6.080258e+00 2.169161e-01 6.139481e+00 -1.363613e-02 6.310838e+00 7.848665e-01 6.286347e+00 5.638669e-01 6.046056e+00 1.791832e-01 6.119797e+00 -6.242114e-02 6.306124e+00 8.113603e-01 6.325120e+00 5.606123e-01 6.085614e+00 1.409733e-01 6.177533e+00 -1.056608e-01 6.367761e+00 8.729293e-01 6.468728e+00 6.392308e-01 6.213801e+00 3.039699e-01 6.199617e+00 2.110701e-01 6.283581e+00 2.131227e-01 6.388926e+00 2.336744e-01 6.509259e+00 2.564020e-01 6.652194e+00 2.817662e-01 
6.965738e+00 3.026397e-01 7.203921e+00 3.312848e-01 7.517162e+00 3.342630e-01 7.210854e+00 3.311915e-01 6.960866e+00 3.106816e-01 6.770447e+00 2.790147e-01 6.646297e+00 2.666858e-01 6.581047e+00 3.274884e-01 6.512229e+00 5.190266e-01 6.509662e+00 4.687738e-01 6.357359e+00 3.555243e-01 6.303567e+00 3.298502e-01 6.315864e+00 5.543171e-01 6.304696e+00 4.606414e-01 6.187205e+00 3.269100e-01 6.183881e+00 2.923244e-01 6.253738e+00 5.631887e-01 6.237766e+00 4.531232e-01 6.138973e+00 3.074896e-01 6.164461e+00 2.660706e-01 6.269540e+00 5.657091e-01 6.261990e+00 4.449488e-01 6.184471e+00 2.899780e-01 6.238949e+00 2.483693e-01 6.371456e+00 6.013710e-01 6.374951e+00 4.973811e-01 6.289805e+00 3.441427e-01 6.299628e+00 2.592491e-01 6.375720e+00 2.361803e-01 6.483501e+00 2.398846e-01 6.614390e+00 2.539167e-01 6.772582e+00 2.746150e-01 
7.091304e+00 3.220245e-01 7.355465e+00 3.491372e-01 7.700743e+00 3.527334e-01 7.386217e+00 3.577951e-01 7.128445e+00 3.531251e-01 6.925735e+00 3.447413e-01 6.778711e+00 3.482838e-01 6.680317e+00 3.836874e-01 6.599031e+00 4.525463e-01 6.537917e+00 4.566186e-01 6.428384e+00 4.091867e-01 6.362290e+00 3.946105e-01 6.334615e+00 4.547350e-01 6.327403e+00 4.461213e-01 6.249779e+00 3.792992e-01 6.222950e+00 3.571493e-01 6.235254e+00 4.347590e-01 6.261380e+00 4.276132e-01 6.201661e+00 3.537132e-01 6.196815e+00 3.295167e-01 6.233657e+00 4.218734e-01 6.287900e+00 4.162012e-01 6.246577e+00 3.393785e-01 6.263332e+00 3.208796e-01 6.320413e+00 4.434877e-01 6.408611e+00 4.503295e-01 6.375628e+00 3.642506e-01 6.382093e+00 2.945670e-01 6.450359e+00 2.649457e-01 6.560376e+00 2.618283e-01 6.702332e+00 2.731467e-01 6.877235e+00 2.937487e-01 
7.207043e+00 3.120275e-01 7.491509e+00 3.341964e-01 7.861117e+00 3.383254e-01 7.535477e+00 3.435367e-01 7.264648e+00 3.417524e-01 7.044698e+00 3.427756e-01 6.871440e+00 3.592377e-01 6.737508e+00 3.901499e-01 6.639573e+00 4.302686e-01 6.582889e+00 4.352384e-01 6.484819e+00 4.266010e-01 6.403377e+00 4.248158e-01 6.363101e+00 4.435311e-01 6.338855e+00 4.309230e-01 6.280506e+00 4.097691e-01 6.246020e+00 4.035466e-01 6.252692e+00 4.255778e-01 6.254188e+00 4.141444e-01 6.222296e+00 3.914438e-01 6.218159e+00 3.849009e-01 6.256787e+00 4.105766e-01 6.280748e+00 4.022655e-01 6.272782e+00 3.812813e-01 6.295728e+00 3.782776e-01 6.360715e+00 4.115811e-01 6.403660e+00 4.008490e-01 6.411294e+00 3.532125e-01 6.445822e+00 3.042098e-01 6.523297e+00 2.749947e-01 6.639436e+00 2.659012e-01 6.790253e+00 2.714748e-01 6.977367e+00 2.877224e-01 
7.309531e+00 3.307612e-01 7.614561e+00 3.525672e-01 8.010082e+00 3.572505e-01 7.674890e+00 3.684133e-01 7.394906e+00 3.745690e-01 7.163028e+00 3.816460e-01 6.975499e+00 3.962463e-01 6.828156e+00 4.153435e-01 6.717121e+00 4.346212e-01 6.631374e+00 4.430643e-01 6.534385e+00 4.407023e-01 6.449816e+00 4.342503e-01 6.396992e+00 4.325615e-01 6.366158e+00 4.264365e-01 6.315205e+00 4.129668e-01 6.275846e+00 4.014574e-01 6.266731e+00 4.018494e-01 6.273698e+00 3.980352e-01 6.252760e+00 3.851111e-01 6.242191e+00 3.750883e-01 6.262344e+00 3.807513e-01 6.298104e+00 3.816841e-01 6.302859e+00 3.728523e-01 6.318296e+00 3.681928e-01 6.365328e+00 3.817191e-01 6.431676e+00 3.804933e-01 6.463878e+00 3.526370e-01 6.505863e+00 3.168223e-01 6.584864e+00 2.917653e-01 6.704840e+00 2.830176e-01 6.864068e+00 2.886964e-01 7.063726e+00 3.056818e-01 
7.401035e+00 3.218562e-01 7.721793e+00 3.401187e-01 8.136268e+00 3.452736e-01 7.790454e+00 3.577386e-01 7.498364e+00 3.663079e-01 7.252012e+00 3.768931e-01 7.047938e+00 3.939210e-01 6.884587e+00 4.128502e-01 6.762539e+00 4.319797e-01 6.671793e+00 4.420773e-01 6.570582e+00 4.450417e-01 6.480775e+00 4.414763e-01 6.422588e+00 4.381981e-01 6.382501e+00 4.318559e-01 6.330744e+00 4.248641e-01 6.291410e+00 4.170473e-01 6.281311e+00 4.129996e-01 6.278785e+00 4.075555e-01 6.261144e+00 4.014774e-01 6.255657e+00 3.948218e-01 6.278891e+00 3.928776e-01 6.305735e+00 3.906031e-01 6.316866e+00 3.873752e-01 6.340798e+00 3.822243e-01 6.393438e+00 3.790883e-01 6.449001e+00 3.678108e-01 6.490680e+00 3.435986e-01 6.546895e+00 3.138451e-01 6.636594e+00 2.910846e-01 6.765166e+00 2.814205e-01 6.933186e+00 2.849031e-01 7.142994e+00 2.994814e-01 
7.480148e+00 3.392954e-01 7.816406e+00 3.579200e-01 8.250672e+00 3.635204e-01 7.895356e+00 3.782736e-01 7.595253e+00 3.879588e-01 7.340905e+00 3.971550e-01 7.128684e+00 4.118059e-01 6.955024e+00 4.291758e-01 6.818456e+00 4.451738e-01 6.725170e+00 4.590872e-01 6.617041e+00 4.544349e-01 6.515153e+00 4.438152e-01 6.444243e+00 4.376306e-01 6.413729e+00 4.338861e-01 6.360256e+00 4.195892e-01 6.311252e+00 4.064075e-01 6.289687e+00 4.021138e-01 6.302484e+00 3.995460e-01 6.285302e+00 3.869382e-01 6.270502e+00 3.765596e-01 6.282275e+00 3.764998e-01 6.327780e+00 3.784938e-01 6.341784e+00 3.707984e-01 6.357960e+00 3.654999e-01 6.401285e+00 3.696771e-01 6.481337e+00 3.704974e-01 6.532058e+00 3.485953e-01 6.588567e+00 3.192906e-01 6.680521e+00 2.984892e-01 6.814498e+00 2.916602e-01 6.990321e+00 2.979868e-01 7.209999e+00 3.150967e-01 
7.547337e+00 3.310278e-01 7.894747e+00 3.475549e-01 8.342635e+00 3.535343e-01 7.977921e+00 3.690840e-01 7.668201e+00 3.788777e-01 7.403893e+00 3.875099e-01 7.182501e+00 4.029071e-01 7.001463e+00 4.263961e-01 6.856224e+00 4.504640e-01 6.760566e+00 4.665090e-01 6.640617e+00 4.551222e-01 6.534700e+00 4.447385e-01 6.462142e+00 4.470352e-01 6.428843e+00 4.441241e-01 6.366720e+00 4.245571e-01 6.318891e+00 4.128542e-01 6.300132e+00 4.174618e-01 6.310197e+00 4.142188e-01 6.286647e+00 3.956073e-01 6.276581e+00 3.857173e-01 6.294191e+00 3.927286e-01 6.338669e+00 3.921154e-01 6.348667e+00 3.761683e-01 6.372161e+00 3.683122e-01 6.422750e+00 3.755168e-01 6.502833e+00 3.730004e-01 6.549121e+00 3.437627e-01 6.611015e+00 3.113834e-01 6.712648e+00 2.909466e-01 6.856122e+00 2.850231e-01 7.040407e+00 2.915364e-01 7.268260e+00 3.080962e-01 
7.602868e+00 3.472741e-01 7.960723e+00 3.652620e-01 8.422555e+00 3.715880e-01 8.048751e+00 3.878933e-01 7.731836e+00 3.940539e-01 7.462009e+00 3.916687e-01 7.238693e+00 3.951805e-01 7.053750e+00 4.285615e-01 6.883065e+00 4.731864e-01 6.822761e+00 5.111935e-01 6.682279e+00 4.522742e-01 6.555700e+00 4.278211e-01 6.459310e+00 4.568138e-01 6.473494e+00 4.699268e-01 6.391670e+00 4.037765e-01 6.328551e+00 3.815239e-01 6.288741e+00 4.205290e-01 6.350133e+00 4.311150e-01 6.306281e+00 3.659685e-01 6.282270e+00 3.471627e-01 6.279662e+00 3.907745e-01 6.377867e+00 4.053757e-01 6.369782e+00 3.442331e-01 6.382423e+00 3.317708e-01 6.415800e+00 3.807346e-01 6.553938e+00 4.142004e-01 6.583503e+00 3.564174e-01 6.631594e+00 3.078704e-01 6.736969e+00 2.883578e-01 6.888410e+00 2.884555e-01 7.080239e+00 3.005588e-01 7.315507e+00 3.213525e-01 
7.645859e+00 3.396662e-01 8.010129e+00 3.568851e-01 8.480273e+00 3.634882e-01 8.098463e+00 3.807425e-01 7.773861e+00 3.859252e-01 7.496763e+00 3.780665e-01 7.269744e+00 3.691001e-01 7.091787e+00 4.005592e-01 6.916143e+00 5.261926e-01 6.856591e+00 5.352384e-01 6.679567e+00 4.302282e-01 6.562438e+00 3.897282e-01 6.481334e+00 5.121028e-01 6.487837e+00 4.896389e-01 6.374691e+00 3.842485e-01 6.327861e+00 3.466800e-01 6.311501e+00 4.848237e-01 6.358354e+00 4.542496e-01 6.285016e+00 3.497851e-01 6.280979e+00 3.140006e-01 6.305339e+00 4.563509e-01 6.389316e+00 4.277457e-01 6.353201e+00 3.241381e-01 6.388864e+00 2.919054e-01 6.450047e+00 4.356618e-01 6.579324e+00 4.328143e-01 6.577143e+00 3.441664e-01 6.632169e+00 2.897581e-01 6.751599e+00 2.741054e-01 6.913600e+00 2.782482e-01 7.112471e+00 2.924496e-01 7.353192e+00 3.138978e-01 
7.677606e+00 3.552153e-01 8.047230e+00 3.752054e-01 8.525796e+00 3.820811e-01 8.136091e+00 4.038584e-01 7.803335e+00 4.104418e-01 7.515387e+00 3.845452e-01 7.285246e+00 3.052265e-01 7.135480e+00 2.847769e-01 6.911572e+00 6.572022e-01 6.967486e+00 7.045230e-01 6.672007e+00 3.454700e-01 6.561721e+00 2.088390e-01 6.458189e+00 6.532745e-01 6.591024e+00 6.254525e-01 6.349731e+00 2.796163e-01 6.320514e+00 1.447962e-01 6.288252e+00 6.362989e-01 6.459590e+00 5.778869e-01 6.253504e+00 2.359611e-01 6.270577e+00 1.032417e-01 6.281680e+00 6.074762e-01 6.489246e+00 5.496253e-01 6.320814e+00 2.044947e-01 6.383125e+00 7.666257e-02 6.436389e+00 5.763583e-01 6.700640e+00 5.853734e-01 6.575321e+00 3.221759e-01 6.619640e+00 2.550293e-01 6.759397e+00 2.594899e-01 6.932174e+00 2.776582e-01 7.136079e+00 2.995784e-01 7.380668e+00 3.257867e-01 
7.696433e+00 3.481867e-01 8.067727e+00 3.682968e-01 8.549249e+00 3.753334e-01 8.153516e+00 3.998791e-01 7.814042e+00 4.099403e-01 7.517145e+00 3.863956e-01 7.276084e+00 3.048834e-01 7.118759e+00 2.686578e-01 6.927316e+00 7.185273e-01 6.926129e+00 6.809406e-01 6.591331e+00 2.810329e-01 6.510940e+00 1.723749e-01 6.469275e+00 7.188466e-01 6.524773e+00 5.834500e-01 6.262417e+00 2.236206e-01 6.265395e+00 1.264708e-01 6.299047e+00 7.069685e-01 6.376922e+00 5.284306e-01 6.163320e+00 1.853172e-01 6.214960e+00 9.325209e-02 6.292773e+00 6.734054e-01 6.401775e+00 4.934539e-01 6.233282e+00 1.509541e-01 6.332886e+00 6.152250e-02 6.454266e+00 6.271220e-01 6.624165e+00 5.169075e-01 6.504385e+00 2.485636e-01 6.601912e+00 2.180276e-01 6.765030e+00 2.425094e-01 6.945354e+00 2.681045e-01 7.151942e+00 2.921044e-01 7.398087e+00 3.186499e-01 
7.703878e+00 3.620104e-01 8.076236e+00 3.843624e-01 8.560432e+00 3.914685e-01 8.163303e+00 4.243193e-01 7.820463e+00 4.599960e-01 7.504723e+00 5.083952e-01 7.189094e+00 5.824746e-01 6.841138e+00 5.183554e-01 6.663826e+00 -1.582511e-01 6.109827e+00 -2.717157e-01 6.253993e+00 2.349351e-01 6.190351e+00 3.885783e-01 6.113034e+00 -3.766803e-01 5.691845e+00 -3.266337e-01 5.962546e+00 1.954915e-01 5.940996e+00 3.572886e-01 5.887488e+00 -4.897709e-01 5.537322e+00 -3.733550e-01 5.875484e+00 1.627936e-01 5.888228e+00 3.302939e-01 5.865395e+00 -5.449069e-01 5.554338e+00 -4.199136e-01 5.944682e+00 1.372259e-01 6.001885e+00 3.048400e-01 6.047090e+00 -5.741096e-01 5.786715e+00 -5.442160e-01 6.301763e+00 -4.263768e-02 6.600948e+00 1.639858e-01 6.780125e+00 2.372000e-01 6.954739e+00 2.726981e-01 7.158729e+00 3.004183e-01 7.404752e+00 3.297573e-01 
7.698330e+00 3.541937e-01 8.068139e+00 3.765113e-01 8.549582e+00 3.836112e-01 8.150978e+00 4.199538e-01 7.804880e+00 4.670199e-01 7.477835e+00 5.481711e-01 7.123204e+00 6.915377e-01 6.675148e+00 6.040963e-01 6.472572e+00 -6.770793e-01 5.677243e+00 -7.745483e-01 6.095440e+00 2.087524e-01 6.023162e+00 4.720052e-01 5.885792e+00 -9.595245e-01 5.287919e+00 -7.498308e-01 5.833774e+00 1.976955e-01 5.779679e+00 4.550067e-01 5.644228e+00 -1.077343e+00 5.156439e+00 -7.523723e-01 5.759879e+00 1.800966e-01 5.733789e+00 4.353328e-01 5.629366e+00 -1.105537e+00 5.191958e+00 -7.789126e-01 5.836077e+00 1.602944e-01 5.855354e+00 4.087761e-01 5.837386e+00 -1.098471e+00 5.452464e+00 -9.498566e-01 6.244039e+00 -1.332842e-01 6.609616e+00 1.529975e-01 6.787488e+00 2.359945e-01 6.956506e+00 2.697593e-01 7.157357e+00 2.951718e-01 7.401276e+00 3.228421e-01 
7.681079e+00 3.646913e-01 8.048690e+00 3.872490e-01 8.526414e+00 3.941931e-01 8.132836e+00 4.227539e-01 7.795092e+00 4.459667e-01 7.492895e+00 4.611293e-01 7.217368e+00 4.663236e-01 6.961229e+00 4.097347e-01 6.796693e+00 2.614841e-01 6.455464e+00 1.140059e-01 6.381325e+00 2.276901e-01 6.335667e+00 2.791127e-01 6.306804e+00 1.821744e-01 6.072556e+00 7.973807e-02 6.085095e+00 1.869403e-01 6.098371e+00 2.386926e-01 6.124542e+00 1.585526e-01 5.944614e+00 6.112565e-02 5.998562e+00 1.555750e-01 6.052623e+00 2.053742e-01 6.120101e+00 1.530890e-01 5.986754e+00 5.249041e-02 6.070570e+00 1.296594e-01 6.171882e+00 1.742699e-01 6.296368e+00 1.616657e-01 6.238605e+00 5.434165e-02 6.379290e+00 1.131124e-01 6.580273e+00 1.909462e-01 6.757316e+00 2.411397e-01 6.936815e+00 2.745002e-01 7.141486e+00 3.027256e-01 7.385458e+00 3.324248e-01 