# vtk DataFile Version 2.0
Comment goes here
ASCII

DATASET STRUCTURED_POINTS
FIELD FieldData 1
TIME 1 1 double
0.00700000
DIMENSIONS    64   64   1

ORIGIN    0.000   0.000   0.000
SPACING   0.03125 0.03125   1.000

POINT_DATA   4096
SCALARS uX double
LOOKUP_TABLE default

-5.675713e-02 -1.431861e-01 6.526247e-02 -1.144653e-01 2.014261e-02 -5.270422e-02 -6.155593e-02 3.295352e-02 -1.388673e-01 1.050798e-01 -1.924809e-01 1.494335e-01 -2.169731e-01 1.640833e-01 -2.127758e-01 1.522992e-01 -1.868944e-01 1.230722e-01 -1.554484e-01 9.848532e-02 -1.336746e-01 8.004810e-02 -1.103812e-01 5.495484e-02 -8.371519e-02 2.912119e-02 -5.719011e-02 2.468110e-03 -3.075429e-02 -2.256054e-02 -4.804458e-03 -4.838320e-02 2.073374e-02 -7.344168e-02 4.337592e-02 -9.385416e-02 6.148021e-02 -1.067425e-01 6.968705e-02 -1.107556e-01 6.955910e-02 -1.069234e-01 6.397369e-02 -1.007227e-01 5.858886e-02 -9.665744e-02 5.547184e-02 -9.497894e-02 5.516977e-02 -9.456652e-02 5.130337e-02 -9.039617e-02 5.261548e-02 -1.065589e-01 8.140209e-02 -1.412336e-01 1.053747e-01 -1.472597e-01 8.296202e-02 -9.909200e-02 7.422876e-03 -8.798802e-03 -9.815819e-02 8.498771e-02 
-5.179852e-02 2.643377e-01 -2.898809e-01 2.839740e-01 -2.843284e-01 2.580026e-01 -2.341059e-01 2.024978e-01 -1.846491e-01 1.506738e-01 -1.455488e-01 1.101122e-01 -1.184535e-01 8.148524e-02 -1.022251e-01 6.354293e-02 -9.415555e-02 5.420451e-02 -8.684916e-02 3.855141e-02 -6.887631e-02 1.439105e-02 -4.912858e-02 -6.744374e-03 -2.931853e-02 -2.806445e-02 -9.294816e-03 -4.787756e-02 9.109814e-03 -6.817694e-02 2.744438e-02 -8.718999e-02 4.566666e-02 -1.043811e-01 6.286437e-02 -1.194191e-01 7.415725e-02 -1.287110e-01 8.025938e-02 -1.312282e-01 8.034781e-02 -1.299519e-01 7.820346e-02 -1.263066e-01 7.467920e-02 -1.219345e-01 7.175643e-02 -1.186487e-01 6.970669e-02 -1.164525e-01 7.213897e-02 -1.191627e-01 7.350861e-02 -1.090356e-01 5.632269e-02 -8.500101e-02 4.041386e-02 -7.733302e-02 5.160415e-02 -9.796346e-02 8.770015e-02 -1.334721e-01 1.287293e-01 -1.466105e-01 
1.451111e-01 2.100209e-01 -6.325989e-02 2.119722e-01 -3.145705e-02 1.681832e-01 1.511341e-02 1.073976e-01 8.479140e-02 5.358429e-02 1.436288e-01 1.647513e-02 1.837923e-01 -3.421121e-03 2.050393e-01 -8.161279e-03 2.115817e-01 -2.469896e-03 2.145965e-01 -3.882259e-03 2.270921e-01 -1.356388e-02 2.386897e-01 -1.884224e-02 2.477347e-01 -2.421422e-02 2.560493e-01 -2.855675e-02 2.627923e-01 -3.403074e-02 2.687623e-01 -3.800032e-02 2.736762e-01 -4.067651e-02 2.778222e-01 -4.331571e-02 2.792723e-01 -4.532371e-02 2.809600e-01 -4.676198e-02 2.817343e-01 -4.874194e-02 2.820568e-01 -4.974583e-02 2.803460e-01 -4.902763e-02 2.769824e-01 -4.780328e-02 2.718298e-01 -4.672595e-02 2.701136e-01 -5.069749e-02 2.645144e-01 -3.809816e-02 2.336548e-01 -7.939977e-03 2.021777e-01 2.003063e-03 2.025312e-01 -2.635796e-02 2.367958e-01 -8.135793e-02 2.866436e-01 -1.287503e-01 
1.202678e-01 -1.405106e-01 1.539179e-01 -1.101208e-01 -4.594197e-02 -8.402926e-02 8.273454e-02 -4.915894e-02 1.603225e-01 -2.515645e-02 2.154805e-01 -1.104352e-02 2.587301e-01 -4.203650e-03 2.949398e-01 -3.126302e-03 3.267382e-01 -7.489561e-03 3.524056e-01 -7.028376e-03 3.658082e-01 -9.230006e-04 3.753366e-01 2.155450e-03 3.824333e-01 5.500223e-03 3.870345e-01 7.993829e-03 3.905728e-01 1.151749e-02 3.920273e-01 1.484704e-02 3.914208e-01 1.796250e-02 3.890272e-01 2.128310e-02 3.878437e-01 2.271978e-02 3.869009e-01 2.156293e-02 3.870600e-01 1.968494e-02 3.861022e-01 1.738080e-02 3.837117e-01 1.548457e-02 3.786594e-01 1.492925e-02 3.708902e-01 1.554047e-02 3.566905e-01 2.134764e-02 3.386930e-01 1.924848e-02 3.299515e-01 7.379678e-03 3.158099e-01 7.185726e-03 2.758762e-01 2.877066e-02 2.046105e-01 7.111321e-02 9.670622e-02 1.278627e-01 
1.854983e-01 -7.590288e-02 1.734068e-01 -5.976364e-02 -3.155614e-03 -4.657893e-02 1.381677e-01 -3.128499e-02 2.135996e-01 -2.105496e-02 2.642045e-01 -1.495758e-02 3.019791e-01 -1.135753e-02 3.316759e-01 -9.663364e-03 3.559676e-01 -1.028345e-02 3.749679e-01 -8.307255e-03 3.861050e-01 -3.497902e-03 3.942251e-01 -4.170257e-04 4.001475e-01 2.805752e-03 4.039542e-01 5.513441e-03 4.065725e-01 8.765098e-03 4.075725e-01 1.186891e-02 4.070468e-01 1.473906e-02 4.052878e-01 1.741183e-02 4.041363e-01 1.863810e-02 4.032081e-01 1.798713e-02 4.029069e-01 1.654187e-02 4.018266e-01 1.470110e-02 3.994940e-01 1.316134e-02 3.950189e-01 1.253340e-02 3.882508e-01 1.269543e-02 3.769091e-01 1.611270e-02 3.619698e-01 1.588650e-02 3.504970e-01 1.046089e-02 3.353375e-01 1.018207e-02 3.064353e-01 1.962449e-02 2.604293e-01 3.902230e-02 1.909988e-01 6.829443e-02 
1.682705e-01 -4.974685e-02 1.456966e-01 -6.087695e-02 6.220318e-02 -6.066116e-02 1.346442e-01 -4.207536e-02 1.934463e-01 -2.660357e-02 2.397426e-01 -1.574466e-02 2.771168e-01 -9.246220e-03 3.081364e-01 -6.345641e-03 3.340562e-01 -5.771045e-03 3.544656e-01 -4.150392e-03 3.683740e-01 -8.201158e-04 3.781962e-01 2.162155e-03 3.852040e-01 5.035066e-03 3.899604e-01 7.672974e-03 3.931205e-01 1.049146e-02 3.946998e-01 1.322299e-02 3.948340e-01 1.570259e-02 3.939123e-01 1.779343e-02 3.929413e-01 1.885081e-02 3.919703e-01 1.865659e-02 3.909756e-01 1.774468e-02 3.891349e-01 1.651038e-02 3.859443e-01 1.547090e-02 3.807489e-01 1.506264e-02 3.730156e-01 1.536103e-02 3.618130e-01 1.651641e-02 3.481874e-01 1.524890e-02 3.343449e-01 1.204945e-02 3.148534e-01 1.360836e-02 2.824800e-01 2.286958e-02 2.364543e-01 3.457344e-02 1.858125e-01 2.940735e-02 
2.186695e-01 -2.685387e-02 1.818662e-01 -3.410910e-02 1.012630e-01 -3.402729e-02 1.783920e-01 -2.622287e-02 2.372095e-01 -1.967685e-02 2.810672e-01 -1.485329e-02 3.146742e-01 -1.148263e-02 3.410835e-01 -9.286896e-03 3.620283e-01 -7.925317e-03 3.780340e-01 -5.877605e-03 3.892246e-01 -2.874559e-03 3.972838e-01 -4.545579e-05 4.030286e-01 2.678771e-03 4.068145e-01 5.212678e-03 4.092094e-01 7.843561e-03 4.103831e-01 1.039385e-02 4.104541e-01 1.264099e-02 4.096482e-01 1.442007e-02 4.087122e-01 1.539047e-02 4.077879e-01 1.541743e-02 4.067754e-01 1.476890e-02 4.050139e-01 1.378053e-02 4.021430e-01 1.293186e-02 3.976928e-01 1.253624e-02 3.911781e-01 1.259628e-02 3.818199e-01 1.325934e-02 3.700846e-01 1.279581e-02 3.572296e-01 1.120639e-02 3.405534e-01 1.159577e-02 3.162647e-01 1.525718e-02 2.833333e-01 1.975012e-02 2.448297e-01 1.574330e-02 
2.210590e-01 -2.483469e-02 1.971178e-01 -3.800357e-02 1.596097e-01 -3.814368e-02 1.997622e-01 -3.170900e-02 2.385237e-01 -2.335835e-02 2.724523e-01 -1.605170e-02 3.013961e-01 -1.068917e-02 3.259227e-01 -7.242623e-03 3.463462e-01 -5.110912e-03 3.625042e-01 -3.032464e-03 3.745302e-01 -4.575023e-04 3.833916e-01 2.176544e-03 3.897821e-01 4.682003e-03 3.940786e-01 7.021201e-03 3.968689e-01 9.384933e-03 3.984596e-01 1.167597e-02 3.989735e-01 1.364184e-02 3.985475e-01 1.513010e-02 3.977523e-01 1.602773e-02 3.967888e-01 1.626685e-02 3.954772e-01 1.592175e-02 3.932718e-01 1.524429e-02 3.899408e-01 1.464286e-02 3.851402e-01 1.432336e-02 3.783814e-01 1.417029e-02 3.691425e-01 1.397178e-02 3.577180e-01 1.303887e-02 3.442239e-01 1.186811e-02 3.265761e-01 1.236281e-02 3.025017e-01 1.461253e-02 2.727808e-01 1.467732e-02 2.426890e-01 4.061602e-03 
2.624781e-01 -1.388177e-02 2.336806e-01 -2.197151e-02 1.951545e-01 -2.207184e-02 2.371027e-01 -1.993852e-02 2.758272e-01 -1.657779e-02 3.081931e-01 -1.329103e-02 3.345682e-01 -1.042906e-02 3.559547e-01 -8.070044e-03 3.730269e-01 -6.242276e-03 3.859170e-01 -4.395507e-03 3.954758e-01 -2.076307e-03 4.026567e-01 4.340664e-04 4.078682e-01 2.746034e-03 4.110650e-01 4.815779e-03 4.130674e-01 7.002206e-03 4.142958e-01 9.222184e-03 4.147381e-01 1.101256e-02 4.141378e-01 1.223561e-02 4.132749e-01 1.308447e-02 4.124547e-01 1.352151e-02 4.113933e-01 1.333516e-02 4.093095e-01 1.271814e-02 4.063694e-01 1.224600e-02 4.024310e-01 1.207951e-02 3.969490e-01 1.189113e-02 3.891095e-01 1.153346e-02 3.793233e-01 1.082879e-02 3.677819e-01 9.957872e-03 3.533724e-01 9.716448e-03 3.347224e-01 1.003762e-02 3.117595e-01 8.976396e-03 2.864218e-01 2.349645e-03 
2.759967e-01 -1.599311e-02 2.617281e-01 -2.493636e-02 2.474740e-01 -2.507601e-02 2.664959e-01 -2.327026e-02 2.885161e-01 -1.907031e-02 3.101734e-01 -1.441264e-02 3.300986e-01 -1.021468e-02 3.478117e-01 -6.821509e-03 3.628997e-01 -4.391058e-03 3.746757e-01 -2.406265e-03 3.838526e-01 -1.520465e-04 3.910591e-01 2.322155e-03 3.964543e-01 4.498708e-03 3.997030e-01 6.346265e-03 4.018173e-01 8.351194e-03 4.032970e-01 1.045443e-02 4.040529e-01 1.206014e-02 4.035515e-01 1.305714e-02 4.027308e-01 1.386196e-02 4.019553e-01 1.445992e-02 4.008728e-01 1.443091e-02 3.985335e-01 1.390093e-02 3.954057e-01 1.353048e-02 3.914899e-01 1.341462e-02 3.862281e-01 1.302316e-02 3.786586e-01 1.216026e-02 3.693187e-01 1.106234e-02 3.582531e-01 1.001147e-02 3.447191e-01 9.350492e-03 3.281649e-01 8.524242e-03 3.094652e-01 5.452170e-03 2.911818e-01 -2.715948e-03 
3.110738e-01 -9.196639e-03 2.950300e-01 -1.483290e-02 2.796073e-01 -1.493186e-02 2.991532e-01 -1.489122e-02 3.208668e-01 -1.341129e-02 3.413417e-01 -1.130525e-02 3.594676e-01 -8.871478e-03 3.751497e-01 -6.318377e-03 3.882118e-01 -4.570059e-03 3.971347e-01 -3.380567e-03 4.041083e-01 -1.467490e-03 4.100020e-01 1.113192e-03 4.147230e-01 3.059992e-03 4.165097e-01 4.304055e-03 4.177001e-01 6.127007e-03 4.189963e-01 8.479012e-03 4.200646e-01 9.954005e-03 4.188888e-01 1.042572e-02 4.177946e-01 1.118876e-02 4.173636e-01 1.224624e-02 4.170334e-01 1.233302e-02 4.144597e-01 1.151024e-02 4.115933e-01 1.125182e-02 4.087134e-01 1.164025e-02 4.050777e-01 1.135437e-02 3.983446e-01 1.015377e-02 3.903161e-01 9.024760e-03 3.811975e-01 8.071500e-03 3.704205e-01 7.263126e-03 3.574729e-01 6.193274e-03 3.425374e-01 3.794475e-03 3.266503e-01 -1.335432e-03 
3.299192e-01 -1.156553e-02 3.261458e-01 -1.720540e-02 3.265157e-01 -1.731783e-02 3.303602e-01 -1.722311e-02 3.389509e-01 -1.524004e-02 3.496677e-01 -1.231368e-02 3.610340e-01 -8.935366e-03 3.723370e-01 -5.435354e-03 3.827663e-01 -3.218644e-03 3.894487e-01 -2.046596e-03 3.951490e-01 -6.609043e-05 4.005419e-01 2.765946e-03 4.052723e-01 4.649465e-03 4.064611e-01 5.515521e-03 4.074015e-01 7.218393e-03 4.088608e-01 9.728728e-03 4.103889e-01 1.109038e-02 4.088728e-01 1.117701e-02 4.076639e-01 1.190148e-02 4.074305e-01 1.327665e-02 4.075251e-01 1.344256e-02 4.045814e-01 1.239804e-02 4.016576e-01 1.216127e-02 3.991868e-01 1.277660e-02 3.963839e-01 1.234683e-02 3.899425e-01 1.058272e-02 3.826424e-01 9.035583e-03 3.747459e-01 7.759299e-03 3.658747e-01 6.496628e-03 3.559618e-01 4.676635e-03 3.457171e-01 1.334373e-03 3.365670e-01 -4.327953e-03 
3.600846e-01 -6.775889e-03 3.556738e-01 -1.048388e-02 3.553077e-01 -1.056579e-02 3.591035e-01 -1.127796e-02 3.671980e-01 -1.087315e-02 3.768741e-01 -9.649318e-03 3.868338e-01 -7.435145e-03 3.969825e-01 -3.764028e-03 4.075386e-01 -2.326356e-03 4.103045e-01 -3.085789e-03 4.138262e-01 -1.527063e-03 4.185280e-01 2.421203e-03 4.245106e-01 4.087601e-03 4.225478e-01 3.215702e-03 4.222286e-01 4.720828e-03 4.239304e-01 8.605301e-03 4.276344e-01 9.907927e-03 4.235535e-01 8.326159e-03 4.216512e-01 8.996126e-03 4.221760e-01 1.193244e-02 4.249174e-01 1.224780e-02 4.198972e-01 9.739175e-03 4.168293e-01 9.607864e-03 4.157549e-01 1.186456e-02 4.163056e-01 1.173682e-02 4.088689e-01 8.702544e-03 4.023942e-01 7.042242e-03 3.962651e-01 6.035487e-03 3.896274e-01 5.066312e-03 3.821943e-01 3.677893e-03 3.742489e-01 1.358594e-03 3.665566e-01 -2.265246e-03 
3.809043e-01 -8.757766e-03 3.863364e-01 -1.238043e-02 3.972417e-01 -1.246693e-02 3.895482e-01 -1.305797e-02 3.873184e-01 -1.235149e-02 3.885513e-01 -1.066734e-02 3.920589e-01 -7.782303e-03 3.977600e-01 -2.767969e-03 4.063724e-01 -9.848918e-04 4.052070e-01 -2.495585e-03 4.067593e-01 -8.354657e-04 4.106997e-01 4.151641e-03 4.176251e-01 5.832713e-03 4.134638e-01 3.848847e-03 4.124692e-01 5.274908e-03 4.143650e-01 1.014176e-02 4.197664e-01 1.140838e-02 4.138802e-01 8.660598e-03 4.116215e-01 9.287683e-03 4.125847e-01 1.329032e-02 4.172172e-01 1.367467e-02 4.106004e-01 1.008962e-02 4.074547e-01 9.938231e-03 4.072198e-01 1.316931e-02 4.101849e-01 1.301044e-02 4.020743e-01 8.789802e-03 3.965574e-01 6.735908e-03 3.922083e-01 5.490098e-03 3.880635e-01 4.196894e-03 3.840773e-01 2.350864e-03 3.808551e-01 -4.562142e-04 3.794216e-01 -4.351944e-03 
4.070002e-01 -5.171094e-03 4.122336e-01 -7.668986e-03 4.227491e-01 -7.734196e-03 4.147896e-01 -8.774192e-03 4.119843e-01 -9.152920e-03 4.121506e-01 -8.984299e-03 4.140326e-01 -7.460510e-03 4.184450e-01 9.907349e-04 4.346361e-01 2.150310e-03 4.227158e-01 -5.112191e-03 4.223719e-01 -3.979920e-03 4.257991e-01 5.972021e-03 4.422268e-01 7.691180e-03 4.269296e-01 -2.510502e-04 4.247390e-01 9.329318e-04 4.268835e-01 1.127079e-02 4.429777e-01 1.278320e-02 4.260222e-01 3.974711e-03 4.230807e-01 4.536005e-03 4.247895e-01 1.419549e-02 4.405579e-01 1.502133e-02 4.233619e-01 5.592041e-03 4.200695e-01 5.576220e-03 4.211840e-01 1.442943e-02 4.355237e-01 1.505554e-02 4.184083e-01 5.877066e-03 4.141228e-01 4.402802e-03 4.118359e-01 3.958781e-03 4.096202e-01 3.286911e-03 4.074142e-01 2.095045e-03 4.056907e-01 2.344121e-04 4.052236e-01 -2.301806e-03 
4.279020e-01 -6.739256e-03 4.410129e-01 -9.171886e-03 4.600437e-01 -9.237992e-03 4.433066e-01 -1.018496e-02 4.322607e-01 -1.043714e-02 4.251868e-01 -1.021971e-02 4.209103e-01 -8.774373e-03 4.203393e-01 9.320974e-04 4.354335e-01 2.320729e-03 4.182503e-01 -6.130857e-03 4.159888e-01 -4.941105e-03 4.179177e-01 6.444818e-03 4.362965e-01 8.256461e-03 4.172824e-01 -1.236970e-03 4.146489e-01 -1.124436e-04 4.163972e-01 1.167492e-02 4.354706e-01 1.323371e-02 4.152303e-01 2.764997e-03 4.123575e-01 3.300149e-03 4.140926e-01 1.447723e-02 4.332426e-01 1.540508e-02 4.131088e-01 4.348481e-03 4.103389e-01 4.339725e-03 4.120635e-01 1.466795e-02 4.304409e-01 1.542881e-02 4.115627e-01 4.834345e-03 4.093038e-01 3.624008e-03 4.094640e-01 3.265120e-03 4.100865e-01 2.448547e-03 4.114165e-01 9.871103e-04 4.141865e-01 -1.154096e-03 4.193347e-01 -3.861809e-03 
4.504400e-01 -3.942073e-03 4.634931e-01 -5.684736e-03 4.823135e-01 -5.734187e-03 4.653344e-01 -6.926291e-03 4.538197e-01 -7.976571e-03 4.457252e-01 -9.667615e-03 4.386963e-01 -1.439576e-02 4.281640e-01 -3.118909e-02 3.987980e-01 -3.206766e-02 4.234423e-01 -1.558086e-02 4.271509e-01 -1.522701e-02 4.200838e-01 -3.193495e-02 3.893522e-01 -3.191886e-02 4.180544e-01 -1.288824e-02 4.229154e-01 -1.197618e-02 4.158898e-01 -2.941404e-02 3.839110e-01 -2.951767e-02 4.143022e-01 -9.787039e-03 4.198606e-01 -8.985140e-03 4.133360e-01 -2.675499e-02 3.819303e-01 -2.730517e-02 4.127358e-01 -8.003438e-03 4.189029e-01 -7.283437e-03 4.133672e-01 -2.417065e-02 3.843671e-01 -2.436895e-02 4.149283e-01 -4.685556e-03 4.238720e-01 7.246048e-04 4.273351e-01 2.107230e-03 4.295962e-01 2.027249e-03 4.321407e-01 1.183035e-03 4.358633e-01 -2.100398e-04 4.416312e-01 -2.002434e-03 
4.703351e-01 -5.165666e-03 4.897508e-01 -6.857157e-03 5.152374e-01 -6.904503e-03 4.913857e-01 -8.004278e-03 4.732510e-01 -8.986267e-03 4.590329e-01 -1.097321e-02 4.460135e-01 -1.790651e-02 4.271104e-01 -4.632861e-02 3.744064e-01 -4.777539e-02 4.161226e-01 -1.938912e-02 4.209970e-01 -1.914547e-02 4.085741e-01 -4.870324e-02 3.541915e-01 -4.937049e-02 4.044864e-01 -1.695579e-02 4.124311e-01 -1.609072e-02 4.010257e-01 -4.715132e-02 3.450310e-01 -4.801964e-02 3.989988e-01 -1.417560e-02 4.084844e-01 -1.328178e-02 3.981399e-01 -4.466094e-02 3.431525e-01 -4.596190e-02 3.980696e-01 -1.250550e-02 4.087421e-01 -1.157583e-02 4.002474e-01 -4.143882e-02 3.495451e-01 -4.229871e-02 4.042951e-01 -8.597025e-03 4.196757e-01 -3.581845e-04 4.262614e-01 1.493997e-03 4.313961e-01 1.345141e-03 4.373055e-01 3.051448e-04 4.451259e-01 -1.282048e-03 4.558109e-01 -3.198814e-03 
4.896272e-01 -2.909838e-03 5.089798e-01 -4.129575e-03 5.343038e-01 -4.158773e-03 5.104140e-01 -5.219289e-03 4.922468e-01 -6.158279e-03 4.782454e-01 -7.305014e-03 4.668689e-01 -9.223574e-03 4.565746e-01 -1.225661e-02 4.468388e-01 -1.241280e-02 4.451999e-01 -9.781379e-03 4.426665e-01 -9.393506e-03 4.379429e-01 -1.144643e-02 4.315385e-01 -1.081445e-02 4.332096e-01 -7.307670e-03 4.329575e-01 -6.556268e-03 4.298087e-01 -8.665398e-03 4.244949e-01 -8.086651e-03 4.276719e-01 -4.553380e-03 4.287191e-01 -3.988351e-03 4.267703e-01 -6.433675e-03 4.225911e-01 -6.215935e-03 4.270546e-01 -2.985360e-03 4.294526e-01 -2.622660e-03 4.290756e-01 -5.078465e-03 4.267755e-01 -4.733922e-03 4.334046e-01 -9.630691e-04 4.390822e-01 1.076123e-03 4.440276e-01 1.719783e-03 4.492810e-01 1.533831e-03 4.556807e-01 8.228652e-04 4.639815e-01 -2.514388e-04 4.749887e-01 -1.552802e-03 
5.078678e-01 -3.864216e-03 5.324123e-01 -5.030675e-03 5.630768e-01 -5.054091e-03 5.337480e-01 -5.946450e-03 5.103413e-01 -6.542295e-03 4.917128e-01 -6.818459e-03 4.770960e-01 -5.701369e-03 4.677929e-01 4.483635e-03 4.767870e-01 5.449883e-03 4.513165e-01 -4.459049e-03 4.433297e-01 -3.671169e-03 4.412624e-01 8.398909e-03 4.580614e-01 9.902530e-03 4.345420e-01 -1.052202e-03 4.295743e-01 -2.511015e-04 4.302911e-01 1.236387e-02 4.503726e-01 1.374080e-02 4.277577e-01 1.924844e-03 4.244405e-01 2.317283e-03 4.268549e-01 1.452595e-02 4.486022e-01 1.548593e-02 4.277645e-01 3.272415e-03 4.262991e-01 3.229771e-03 4.306354e-01 1.457065e-02 4.537141e-01 1.534461e-02 4.368254e-01 3.572481e-03 4.387552e-01 2.078409e-03 4.444856e-01 1.733324e-03 4.519200e-01 1.137325e-03 4.612746e-01 1.741736e-04 4.731910e-01 -1.076321e-03 4.884379e-01 -2.481682e-03 
5.240995e-01 -2.011619e-03 5.484981e-01 -2.844076e-03 5.789575e-01 -2.851440e-03 5.497624e-01 -3.639273e-03 5.265161e-01 -4.144196e-03 5.081600e-01 -4.203365e-03 4.940100e-01 -3.045275e-03 4.845595e-01 2.537445e-03 4.843780e-01 3.145570e-03 4.680425e-01 -1.835185e-03 4.604232e-01 -1.189155e-03 4.575352e-01 5.376523e-03 4.637318e-01 6.386126e-03 4.504139e-01 9.758292e-04 4.459205e-01 1.695437e-03 4.458843e-01 8.601687e-03 4.549892e-01 9.549269e-03 4.432459e-01 3.631974e-03 4.405769e-01 4.024941e-03 4.423756e-01 1.060592e-02 4.533174e-01 1.120459e-02 4.434615e-01 4.920471e-03 4.427584e-01 4.900520e-03 4.465919e-01 1.084659e-02 4.594266e-01 1.109254e-02 4.527903e-01 4.547787e-03 4.549969e-01 2.842341e-03 4.604002e-01 2.169702e-03 4.678123e-01 1.570080e-03 4.773137e-01 8.302127e-04 4.893882e-01 -6.145655e-05 5.047111e-01 -1.043386e-03 
5.402854e-01 -2.773587e-03 5.689572e-01 -3.559220e-03 6.037602e-01 -3.560150e-03 5.701782e-01 -4.191234e-03 5.426576e-01 -4.424516e-03 5.203856e-01 -4.059623e-03 5.028476e-01 -2.530356e-03 4.901611e-01 1.012211e-03 4.825640e-01 1.785266e-03 4.688683e-01 -2.899770e-04 4.597551e-01 5.562113e-04 4.550519e-01 4.444589e-03 4.546084e-01 5.374469e-03 4.458527e-01 3.036428e-03 4.410391e-01 3.819011e-03 4.401486e-01 7.771707e-03 4.431663e-01 8.533562e-03 4.370041e-01 5.763179e-03 4.346668e-01 6.150412e-03 4.361873e-01 9.705787e-03 4.415925e-01 1.005045e-02 4.378629e-01 6.833090e-03 4.380520e-01 6.707372e-03 4.422256e-01 9.618574e-03 4.504430e-01 9.389434e-03 4.503183e-01 5.416821e-03 4.540632e-01 3.363258e-03 4.610061e-01 2.226855e-03 4.705193e-01 1.300631e-03 4.826769e-01 3.348478e-04 4.979211e-01 -7.109834e-04 5.168782e-01 -1.782292e-03 
5.535670e-01 -1.243983e-03 5.819646e-01 -1.796990e-03 6.164599e-01 -1.785727e-03 5.831462e-01 -2.347446e-03 5.558921e-01 -2.579995e-03 5.338666e-01 -2.315157e-03 5.164349e-01 -1.245971e-03 5.032406e-01 8.377178e-04 4.936705e-01 1.405213e-03 4.820458e-01 4.843629e-04 4.734444e-01 1.128870e-03 4.680323e-01 3.392658e-03 4.651948e-01 4.103380e-03 4.586742e-01 3.119596e-03 4.544245e-01 3.786473e-03 4.528231e-01 6.117767e-03 4.533788e-01 6.740517e-03 4.496327e-01 5.489463e-03 4.479669e-01 5.869065e-03 4.488549e-01 7.889807e-03 4.518706e-01 8.170859e-03 4.506146e-01 6.537406e-03 4.515299e-01 6.468244e-03 4.551374e-01 7.934744e-03 4.610752e-01 7.625449e-03 4.632562e-01 5.181545e-03 4.677307e-01 3.570487e-03 4.747651e-01 2.548378e-03 4.842524e-01 1.750085e-03 4.963717e-01 9.936150e-04 5.115459e-01 2.235667e-04 5.303696e-01 -5.425752e-04 
5.674439e-01 -1.882179e-03 5.993809e-01 -2.403536e-03 6.374431e-01 -2.386873e-03 6.005306e-01 -2.839588e-03 5.697204e-01 -2.908533e-03 5.443206e-01 -2.463472e-03 5.237409e-01 -1.360183e-03 5.074428e-01 2.559216e-04 4.944070e-01 1.008507e-03 4.817991e-01 9.654285e-04 4.717669e-01 1.748146e-03 4.645974e-01 3.370248e-03 4.594061e-01 4.140755e-03 4.531874e-01 4.008560e-03 4.485790e-01 4.722170e-03 4.461198e-01 6.278443e-03 4.450617e-01 6.875717e-03 4.423961e-01 6.444763e-03 4.410349e-01 6.815313e-03 4.416620e-01 7.997336e-03 4.436300e-01 8.185791e-03 4.440186e-01 7.299568e-03 4.458220e-01 7.144396e-03 4.498040e-01 7.703422e-03 4.554200e-01 7.174873e-03 4.599279e-01 5.332960e-03 4.661785e-01 3.727908e-03 4.749581e-01 2.511460e-03 4.864737e-01 1.506720e-03 5.009920e-01 5.798882e-04 5.189381e-01 -3.150279e-04 5.408704e-01 -1.157087e-03 
5.778439e-01 -6.183972e-04 6.093471e-01 -9.826912e-04 6.469578e-01 -9.576011e-04 6.104497e-01 -1.390310e-03 5.800302e-01 -1.516873e-03 5.549727e-01 -1.231830e-03 5.346160e-01 -4.601406e-04 5.183012e-01 6.223229e-04 5.050347e-01 1.169613e-03 4.930074e-01 1.243046e-03 4.832727e-01 1.828082e-03 4.759641e-01 2.931993e-03 4.703509e-01 3.536953e-03 4.646475e-01 3.616149e-03 4.602785e-01 4.212390e-03 4.576163e-01 5.314535e-03 4.560742e-01 5.830631e-03 4.539249e-01 5.718582e-03 4.528027e-01 6.070136e-03 4.532201e-01 6.887876e-03 4.546936e-01 7.078799e-03 4.555843e-01 6.590996e-03 4.576105e-01 6.497002e-03 4.613680e-01 6.776382e-03 4.664728e-01 6.321478e-03 4.714202e-01 4.981482e-03 4.779072e-01 3.708809e-03 4.866791e-01 2.704770e-03 4.980619e-01 1.891450e-03 5.123765e-01 1.174889e-03 5.300572e-01 5.098191e-04 5.516600e-01 -1.006959e-04 
5.892488e-01 -1.187339e-03 6.236941e-01 -1.537784e-03 6.642500e-01 -1.508809e-03 6.247596e-01 -1.877999e-03 5.913631e-01 -1.911195e-03 5.634287e-01 -1.528576e-03 5.403487e-01 -7.067965e-04 5.214646e-01 3.464710e-04 5.058289e-01 1.033225e-03 4.921445e-01 1.397549e-03 4.809139e-01 2.098135e-03 4.721703e-01 3.133256e-03 4.652357e-01 3.818618e-03 4.589032e-01 4.137716e-03 4.539688e-01 4.780202e-03 4.506968e-01 5.731673e-03 4.485663e-01 6.256891e-03 4.464758e-01 6.327609e-03 4.454145e-01 6.666154e-03 4.458034e-01 7.271517e-03 4.472463e-01 7.408002e-03 4.487523e-01 7.037511e-03 4.514142e-01 6.864411e-03 4.557570e-01 6.866717e-03 4.615018e-01 6.287236e-03 4.677895e-01 5.014951e-03 4.757652e-01 3.705026e-03 4.861755e-01 2.586462e-03 4.994273e-01 1.638280e-03 5.158814e-01 7.975095e-04 5.359726e-01 3.354380e-05 5.602274e-01 -6.424970e-04 
5.968143e-01 -1.391044e-04 6.306396e-01 -3.881031e-04 6.705676e-01 -3.539346e-04 6.316406e-01 -7.456873e-04 5.987937e-01 -8.704453e-04 5.713689e-01 -6.394134e-04 5.487498e-01 9.299903e-06 5.303138e-01 9.308612e-04 5.151611e-01 1.410419e-03 5.016700e-01 1.490728e-03 4.906730e-01 2.005196e-03 4.822039e-01 2.961245e-03 4.755987e-01 3.501341e-03 4.692817e-01 3.597303e-03 4.644250e-01 4.129944e-03 4.612935e-01 5.089649e-03 4.593774e-01 5.555404e-03 4.571854e-01 5.486232e-03 4.560988e-01 5.802968e-03 4.565334e-01 6.506179e-03 4.580994e-01 6.673014e-03 4.594143e-01 6.253227e-03 4.619605e-01 6.150694e-03 4.662562e-01 6.347050e-03 4.720268e-01 5.911340e-03 4.780413e-01 4.717765e-03 4.857995e-01 3.580532e-03 4.959844e-01 2.672954e-03 5.089424e-01 1.939574e-03 5.250192e-01 1.309218e-03 5.446524e-01 7.470122e-04 5.683780e-01 2.547167e-04 
6.056432e-01 -6.792225e-04 6.419147e-01 -9.317359e-04 6.842787e-01 -8.952949e-04 6.428711e-01 -1.259439e-03 6.075304e-01 -1.335539e-03 5.776735e-01 -1.038210e-03 5.527556e-01 -2.913169e-04 5.322375e-01 7.952613e-04 5.152983e-01 1.380882e-03 5.000312e-01 1.492732e-03 4.875724e-01 2.110022e-03 4.779367e-01 3.240005e-03 4.704633e-01 3.865297e-03 4.632175e-01 3.944255e-03 4.576956e-01 4.526900e-03 4.541354e-01 5.606428e-03 4.520312e-01 6.096310e-03 4.495230e-01 5.944236e-03 4.483440e-01 6.248603e-03 4.488937e-01 7.010816e-03 4.507996e-01 7.141836e-03 4.523272e-01 6.580360e-03 4.553259e-01 6.408191e-03 4.603117e-01 6.609136e-03 4.670410e-01 6.098260e-03 4.739609e-01 4.738607e-03 4.829177e-01 3.493555e-03 4.945536e-01 2.494056e-03 5.091816e-01 1.666235e-03 5.271381e-01 9.431335e-04 5.488497e-01 2.999998e-04 5.748268e-01 -2.523346e-04 
6.104107e-01 2.030366e-04 6.458493e-01 1.130554e-05 6.873792e-01 5.012234e-05 6.467252e-01 -3.751957e-04 6.121201e-01 -5.858129e-04 5.829486e-01 -4.701889e-04 5.586940e-01 1.991739e-04 5.390419e-01 1.671615e-03 5.236222e-01 2.053003e-03 5.078325e-01 1.303186e-03 4.955436e-01 1.736719e-03 4.865826e-01 3.398629e-03 4.805576e-01 3.914466e-03 4.724515e-01 3.142420e-03 4.668458e-01 3.617848e-03 4.637588e-01 5.352072e-03 4.629566e-01 5.820874e-03 4.593369e-01 4.869637e-03 4.578736e-01 5.147670e-03 4.587190e-01 6.655122e-03 4.617564e-01 6.860443e-03 4.620094e-01 5.600736e-03 4.645617e-01 5.504785e-03 4.696736e-01 6.545109e-03 4.773382e-01 6.266653e-03 4.829162e-01 4.401849e-03 4.912663e-01 3.225367e-03 5.025194e-01 2.469986e-03 5.167086e-01 1.888573e-03 5.341114e-01 1.380284e-03 5.551630e-01 9.201559e-04 5.803965e-01 5.184498e-04 
6.165976e-01 -3.374062e-04 6.540632e-01 -5.488088e-04 6.976037e-01 -5.093727e-04 6.548899e-01 -9.364977e-04 6.181986e-01 -1.139649e-03 5.869679e-01 -1.003121e-03 5.607560e-01 -2.225364e-04 5.394312e-01 1.734013e-03 5.230907e-01 2.206266e-03 5.051032e-01 1.080878e-03 4.914060e-01 1.604961e-03 4.815444e-01 3.842441e-03 4.754621e-01 4.464171e-03 4.658028e-01 3.247393e-03 4.594606e-01 3.774107e-03 4.561224e-01 6.063063e-03 4.559000e-01 6.584614e-03 4.512362e-01 5.105894e-03 4.495448e-01 5.371718e-03 4.506325e-01 7.374456e-03 4.547318e-01 7.575889e-03 4.544264e-01 5.736444e-03 4.572509e-01 5.578501e-03 4.631280e-01 7.057532e-03 4.723915e-01 6.766758e-03 4.780919e-01 4.351828e-03 4.873925e-01 3.039346e-03 4.999426e-01 2.233182e-03 5.156121e-01 1.593593e-03 5.346456e-01 1.013918e-03 5.574694e-01 4.817963e-04 5.845983e-01 1.950881e-05 
6.185995e-01 4.295942e-04 6.549891e-01 2.519688e-04 6.974585e-01 2.915013e-04 6.557333e-01 -2.270863e-04 6.199961e-01 -6.335571e-04 5.895978e-01 -8.592284e-04 5.640259e-01 -4.189919e-04 5.435414e-01 3.476882e-03 5.324450e-01 3.842496e-03 5.104806e-01 -7.035483e-05 4.970838e-01 2.365925e-04 4.880347e-01 4.956723e-03 4.875926e-01 5.633618e-03 4.731096e-01 1.439322e-03 4.667475e-01 1.845346e-03 4.639496e-01 6.855640e-03 4.693493e-01 7.525851e-03 4.593211e-01 3.024215e-03 4.573395e-01 3.262443e-03 4.587231e-01 8.083031e-03 4.681948e-01 8.533245e-03 4.622947e-01 3.786022e-03 4.646038e-01 3.723241e-03 4.705493e-01 8.040322e-03 4.847351e-01 8.229338e-03 4.850106e-01 3.399602e-03 4.938338e-01 2.450686e-03 5.061229e-01 2.096027e-03 5.212668e-01 1.768632e-03 5.395616e-01 1.408420e-03 5.615013e-01 1.041094e-03 5.876468e-01 7.030638e-04 
6.221025e-01 -1.327066e-04 6.601583e-01 -3.437432e-04 7.042766e-01 -3.051163e-04 6.608586e-01 -8.455518e-04 6.233892e-01 -1.289624e-03 5.912297e-01 -1.615761e-03 5.638575e-01 -1.332437e-03 5.416472e-01 3.121707e-03 5.304432e-01 3.566790e-03 5.058645e-01 -9.844031e-04 4.914013e-01 -6.150540e-04 4.813851e-01 4.894614e-03 4.816891e-01 5.709534e-03 4.650523e-01 8.048110e-04 4.582207e-01 1.259074e-03 4.550069e-01 7.061723e-03 4.617399e-01 7.821944e-03 4.499583e-01 2.521872e-03 4.479664e-01 2.758932e-03 4.493732e-01 8.316851e-03 4.606006e-01 8.802230e-03 4.533777e-01 3.210925e-03 4.561240e-01 3.113912e-03 4.625718e-01 8.115976e-03 4.789596e-01 8.372736e-03 4.786071e-01 2.862362e-03 4.886231e-01 2.079671e-03 5.022176e-01 1.808710e-03 5.186839e-01 1.465425e-03 5.383696e-01 1.042623e-03 5.617934e-01 6.002198e-04 5.895118e-01 1.934154e-04 
6.213689e-01 5.687249e-04 6.580711e-01 3.814374e-04 7.008470e-01 4.193328e-04 6.587246e-01 -1.995120e-04 6.225157e-01 -8.685565e-04 5.914045e-01 -1.915434e-03 5.642460e-01 -4.473462e-03 5.386453e-01 -1.298458e-02 5.067895e-01 -1.373170e-02 5.044708e-01 -5.685361e-03 4.942722e-01 -5.658115e-03 4.808774e-01 -1.409948e-02 4.575935e-01 -1.429085e-02 4.655538e-01 -4.885162e-03 4.630840e-01 -4.511699e-03 4.559414e-01 -1.327110e-02 4.374645e-01 -1.342899e-02 4.511638e-01 -3.581763e-03 4.534408e-01 -3.185042e-03 4.506389e-01 -1.205467e-02 4.363679e-01 -1.238954e-02 4.542766e-01 -2.733190e-03 4.610113e-01 -2.417767e-03 4.631872e-01 -1.094921e-02 4.550490e-01 -1.125324e-02 4.784699e-01 -1.506076e-03 4.929528e-01 1.080311e-03 5.068783e-01 1.698007e-03 5.226801e-01 1.686216e-03 5.413745e-01 1.449327e-03 5.636439e-01 1.139290e-03 5.901032e-01 8.305922e-04 
6.221596e-01 -3.447382e-05 6.602129e-01 -2.642152e-04 7.043260e-01 -2.280860e-04 6.608505e-01 -8.599518e-04 6.232531e-01 -1.564812e-03 5.906889e-01 -2.839504e-03 5.617692e-01 -6.586761e-03 5.328402e-01 -2.100686e-02 4.897091e-01 -2.213724e-02 4.963982e-01 -7.999058e-03 4.869462e-01 -7.950594e-03 4.708915e-01 -2.275546e-02 4.356471e-01 -2.326937e-02 4.543828e-01 -7.024526e-03 4.533625e-01 -6.578433e-03 4.439302e-01 -2.206939e-02 4.133311e-01 -2.260210e-02 4.387754e-01 -5.626338e-03 4.429901e-01 -5.148352e-03 4.382803e-01 -2.079017e-02 4.122577e-01 -2.155984e-02 4.422453e-01 -4.835081e-03 4.512974e-01 -4.422822e-03 4.520671e-01 -1.940484e-02 4.331956e-01 -2.011585e-02 4.686465e-01 -3.384073e-03 4.862967e-01 6.070614e-04 5.016272e-01 1.460377e-03 5.185418e-01 1.421890e-03 5.383627e-01 1.096847e-03 5.618323e-01 6.897982e-04 5.895659e-01 2.943007e-04 
6.187195e-01 6.418580e-04 6.551019e-01 4.414712e-04 6.975605e-01 4.784015e-04 6.557736e-01 -1.316146e-04 6.199225e-01 -7.365702e-04 5.892521e-01 -1.477629e-03 5.629224e-01 -2.619633e-03 5.399951e-01 -4.342264e-03 5.198893e-01 -4.552696e-03 5.064801e-01 -3.261378e-03 4.946572e-01 -3.117965e-03 4.836033e-01 -4.209106e-03 4.732960e-01 -3.926565e-03 4.685748e-01 -2.152378e-03 4.640937e-01 -1.766168e-03 4.592631e-01 -2.813731e-03 4.543242e-01 -2.511201e-03 4.545788e-01 -7.089950e-04 4.546202e-01 -3.935357e-04 4.540176e-01 -1.585999e-03 4.531880e-01 -1.475905e-03 4.575810e-01 1.195299e-04 4.619760e-01 2.644180e-04 4.661288e-01 -1.010766e-03 4.706581e-01 -9.487809e-04 4.810068e-01 7.910528e-04 4.926089e-01 1.691935e-03 5.057553e-01 1.936529e-03 5.212044e-01 1.834792e-03 5.396195e-01 1.569491e-03 5.616065e-01 1.242928e-03 5.877670e-01 9.189286e-04 