# vtk DataFile Version 2.0
Comment goes here
ASCII

DATASET STRUCTURED_POINTS
FIELD FieldData 1
TIME 1 1 double
0.09000000
DIMENSIONS    64   64   1

ORIGIN    0.000   0.000   0.000
SPACING   0.03125 0.03125   1.000

POINT_DATA   4096
SCALARS P double
LOOKUP_TABLE default

4.854409e+03 5.356142e+03 3.153719e+03 2.023030e+03 -2.489872e+02 -2.933715e+03 -2.927559e+03 -4.348612e+03 -3.932533e+03 -5.754318e+03 -5.312216e+03 -6.470436e+03 -6.461006e+03 -8.711987e+03 -8.611969e+03 -9.539709e+03 -9.172172e+03 -1.002569e+04 -9.456480e+03 -9.902764e+03 -8.783170e+03 -8.085116e+03 -5.146402e+03 -3.347949e+03 3.285193e+02 2.851928e+03 6.519259e+03 8.654261e+03 9.975126e+03 1.016149e+04 1.042938e+04 1.219794e+04 1.258237e+04 1.159927e+04 1.198621e+04 1.014679e+04 9.767156e+03 8.276869e+03 6.512423e+03 7.073149e+03 5.537032e+03 7.601009e+03 7.447906e+03 8.893748e+03 1.135304e+04 1.115203e+04 1.291294e+04 1.299972e+04 1.204170e+04 1.316900e+04 1.255185e+04 1.380527e+04 1.386325e+04 1.402737e+04 1.242743e+04 1.181482e+04 1.006443e+04 9.692404e+03 8.118516e+03 8.037989e+03 6.621232e+03 6.785149e+03 5.043010e+03 5.313251e+03 
7.441708e+03 9.100077e+03 7.290527e+03 6.224217e+03 3.703333e+03 1.070726e+03 1.887952e+03 3.512527e+02 1.311336e+02 -2.446053e+03 -2.116772e+03 -3.258042e+03 -2.531233e+03 -4.399636e+03 -5.290435e+03 -7.082139e+03 -7.538642e+03 -7.780671e+03 -6.759417e+03 -7.053017e+03 -4.973447e+03 -5.212888e+03 -2.508741e+03 -1.721462e+03 -4.549412e+01 1.766699e+03 4.732953e+03 6.549083e+03 7.663640e+03 7.685275e+03 9.495346e+03 1.336748e+04 1.467025e+04 1.460284e+04 1.614833e+04 1.427982e+04 1.486727e+04 1.505836e+04 1.532289e+04 1.708029e+04 1.603339e+04 1.825359e+04 1.676647e+04 1.880710e+04 2.191217e+04 2.049642e+04 2.166211e+04 2.217804e+04 2.224871e+04 2.419156e+04 2.401969e+04 2.472394e+04 2.347510e+04 2.313918e+04 2.126124e+04 2.039250e+04 1.840344e+04 1.763515e+04 1.531947e+04 1.472375e+04 1.284610e+04 1.272455e+04 1.077685e+04 9.571343e+03 
9.752255e+03 1.129819e+04 9.019762e+03 9.022687e+03 6.336183e+03 3.067514e+03 4.513363e+03 2.409963e+03 2.894804e+03 -1.931189e+01 4.253834e+02 -1.343252e+03 -6.720911e+02 -2.615725e+03 -3.200140e+03 -5.220714e+03 -5.502290e+03 -6.019054e+03 -4.894524e+03 -5.617833e+03 -3.964629e+03 -4.790140e+03 -3.214174e+03 -3.775044e+03 -3.152276e+03 -1.534734e+03 9.045026e+02 2.862304e+03 4.634248e+03 5.154432e+03 8.051770e+03 1.169850e+04 1.393883e+04 1.501736e+04 1.710222e+04 1.683329e+04 1.786316e+04 1.930911e+04 2.024726e+04 2.224828e+04 2.199193e+04 2.356183e+04 2.255520e+04 2.413488e+04 2.640613e+04 2.597442e+04 2.659009e+04 2.726340e+04 2.772247e+04 2.929724e+04 2.898780e+04 2.932389e+04 2.800307e+04 2.780048e+04 2.565466e+04 2.457245e+04 2.239347e+04 2.167654e+04 1.916469e+04 1.855227e+04 1.639334e+04 1.583068e+04 1.368950e+04 1.282731e+04 
1.002547e+04 1.104632e+04 8.485858e+03 9.125958e+03 6.203655e+03 2.906241e+03 4.277667e+03 1.786778e+03 2.468252e+03 -1.236921e+02 4.077295e+02 -1.509045e+03 -1.000731e+03 -2.742684e+03 -2.889290e+03 -4.496864e+03 -4.539617e+03 -5.308247e+03 -4.515018e+03 -5.473632e+03 -3.849375e+03 -4.365682e+03 -2.148978e+03 -1.938646e+03 -8.925367e+02 6.122177e+02 2.470275e+03 4.012398e+03 5.969882e+03 6.802117e+03 9.515019e+03 1.159669e+04 1.394481e+04 1.501265e+04 1.688700e+04 1.729327e+04 1.816319e+04 1.961280e+04 2.006095e+04 2.191090e+04 2.172483e+04 2.320634e+04 2.309649e+04 2.423454e+04 2.575194e+04 2.578749e+04 2.648750e+04 2.705425e+04 2.721560e+04 2.839024e+04 2.779655e+04 2.826118e+04 2.714327e+04 2.687830e+04 2.496668e+04 2.414419e+04 2.196200e+04 2.128487e+04 1.883770e+04 1.829234e+04 1.599157e+04 1.555698e+04 1.323129e+04 1.291789e+04 
1.057302e+04 1.142704e+04 8.630130e+03 9.600173e+03 6.505318e+03 2.909583e+03 4.566691e+03 1.668804e+03 2.761839e+03 6.793444e+01 8.893300e+02 -1.300200e+03 -6.395318e+02 -2.596359e+03 -2.320024e+03 -4.055182e+03 -3.779041e+03 -5.144260e+03 -4.788348e+03 -6.631711e+03 -5.794208e+03 -6.562039e+03 -4.773513e+03 -4.651324e+03 -4.061201e+03 -1.952065e+03 2.793762e+02 2.265752e+03 5.111965e+03 6.156875e+03 9.355875e+03 1.091180e+04 1.355565e+04 1.489037e+04 1.664987e+04 1.775919e+04 1.843789e+04 2.014030e+04 2.017464e+04 2.208812e+04 2.197179e+04 2.332289e+04 2.380978e+04 2.465307e+04 2.601859e+04 2.621952e+04 2.702062e+04 2.761113e+04 2.754260e+04 2.872192e+04 2.790349e+04 2.851560e+04 2.763857e+04 2.726209e+04 2.531343e+04 2.450519e+04 2.218450e+04 2.150718e+04 1.902951e+04 1.855510e+04 1.611398e+04 1.586063e+04 1.334521e+04 1.338117e+04 
1.030981e+04 1.117563e+04 8.231596e+03 9.453530e+03 6.186895e+03 2.531238e+03 4.219682e+03 1.211124e+03 2.376385e+03 -2.669363e+02 5.890580e+02 -1.601832e+03 -9.682164e+02 -2.816406e+03 -2.490646e+03 -4.002988e+03 -3.845638e+03 -5.067381e+03 -5.195480e+03 -7.478599e+03 -6.262638e+03 -6.708751e+03 -2.903537e+03 -1.812196e+03 -1.755771e+03 6.163644e+02 2.037355e+03 3.663057e+03 6.331898e+03 6.777850e+03 1.030659e+04 1.090839e+04 1.397861e+04 1.518067e+04 1.693850e+04 1.824880e+04 1.858428e+04 2.050977e+04 1.990547e+04 2.205183e+04 2.165214e+04 2.296115e+04 2.403621e+04 2.463736e+04 2.610595e+04 2.622847e+04 2.710985e+04 2.750766e+04 2.711954e+04 2.834757e+04 2.684773e+04 2.770232e+04 2.739052e+04 2.681401e+04 2.486832e+04 2.405479e+04 2.167968e+04 2.104866e+04 1.853877e+04 1.815268e+04 1.563218e+04 1.551475e+04 1.290876e+04 1.314818e+04 
1.051854e+04 1.140652e+04 8.401397e+03 9.708784e+03 6.423422e+03 2.607160e+03 4.480998e+03 1.282885e+03 2.687403e+03 -8.259098e+01 1.002429e+03 -1.345435e+03 -4.733987e+02 -2.487202e+03 -1.774421e+03 -3.498134e+03 -2.868767e+03 -4.540497e+03 -6.024468e+03 -1.039041e+04 -1.091367e+04 -1.056262e+04 -6.503314e+03 -6.418265e+03 -8.762301e+03 -4.089353e+03 -1.049988e+03 1.768428e+03 6.029362e+03 6.154852e+03 1.062479e+04 1.084544e+04 1.415232e+04 1.577613e+04 1.741512e+04 1.910761e+04 1.904399e+04 2.138429e+04 2.002757e+04 2.263020e+04 2.187977e+04 2.298332e+04 2.468054e+04 2.492826e+04 2.683280e+04 2.661477e+04 2.792337e+04 2.821062e+04 2.750811e+04 2.945618e+04 2.733608e+04 2.866124e+04 2.918959e+04 2.813683e+04 2.575717e+04 2.465661e+04 2.200353e+04 2.128604e+04 1.865314e+04 1.829818e+04 1.568570e+04 1.567326e+04 1.299166e+04 1.336610e+04 
1.005529e+04 1.104377e+04 7.935034e+03 9.393373e+03 5.977914e+03 2.132683e+03 4.032491e+03 7.900382e+02 2.223268e+03 -5.596942e+02 5.336606e+02 -1.833066e+03 -9.920611e+02 -2.988940e+03 -2.393559e+03 -3.999552e+03 -3.924451e+03 -5.313827e+03 -8.524614e+03 -1.213698e+04 -1.237988e+04 -1.363171e+04 -4.350815e+03 -1.426396e+03 -5.519142e+03 -2.020271e+02 8.966169e+02 3.040849e+03 6.921403e+03 5.657618e+03 1.136195e+04 1.003138e+04 1.452725e+04 1.641962e+04 1.818210e+04 1.992711e+04 1.929715e+04 2.209438e+04 1.928443e+04 2.281567e+04 2.082385e+04 2.191375e+04 2.522753e+04 2.509878e+04 2.748880e+04 2.693668e+04 2.870618e+04 2.833010e+04 2.727576e+04 2.974610e+04 2.460551e+04 2.689047e+04 3.013657e+04 2.839898e+04 2.537762e+04 2.416576e+04 2.134037e+04 2.069114e+04 1.800138e+04 1.775037e+04 1.508645e+04 1.519595e+04 1.245558e+04 1.296336e+04 
1.009727e+04 1.111604e+04 8.026359e+03 9.495508e+03 6.134504e+03 2.248668e+03 4.243286e+03 9.344067e+02 2.500195e+03 -3.432696e+02 8.973566e+02 -1.534120e+03 -5.199210e+02 -2.582487e+03 -1.697412e+03 -3.400424e+03 -2.686402e+03 -4.002023e+03 -3.170177e+03 -1.016543e+04 -1.563393e+04 -2.318345e+04 -2.150721e+04 -1.922757e+04 -2.424361e+04 -1.369788e+04 -5.480047e+03 -8.571854e+02 6.357886e+03 3.985211e+03 1.017067e+04 9.071030e+03 1.286193e+04 1.588271e+04 1.819687e+04 1.995323e+04 1.909073e+04 2.248670e+04 1.806999e+04 2.278973e+04 1.998436e+04 1.984280e+04 2.476590e+04 2.438440e+04 2.780908e+04 2.631021e+04 2.957632e+04 2.862221e+04 2.666883e+04 3.165229e+04 2.390988e+04 2.641689e+04 3.400443e+04 3.099009e+04 2.634432e+04 2.462124e+04 2.139695e+04 2.066725e+04 1.788390e+04 1.767189e+04 1.497814e+04 1.516187e+04 1.241153e+04 1.299142e+04 
9.513328e+03 1.063747e+04 7.469854e+03 9.055624e+03 5.589997e+03 1.701847e+03 3.706151e+03 3.742014e+02 1.946411e+03 -9.341714e+02 3.038043e+02 -2.199328e+03 -1.188896e+03 -3.387955e+03 -2.437177e+03 -4.414931e+03 -3.085345e+03 -5.118089e+03 -2.905897e+03 -6.890906e+03 -1.324140e+04 -2.560395e+04 -2.761332e+04 -2.398241e+04 -2.647946e+04 -2.064603e+04 -1.442031e+04 -1.148178e+04 -3.559473e+03 -5.998938e+03 -7.734876e+02 -1.288841e+03 6.775483e+02 4.019931e+03 6.269584e+03 9.757777e+03 8.661455e+03 1.341506e+04 9.499083e+03 1.296041e+04 1.295418e+04 9.313992e+03 1.454992e+04 1.405292e+04 1.821865e+04 1.737107e+04 2.059945e+04 2.207942e+04 1.841363e+04 2.636897e+04 2.029937e+04 1.831792e+04 2.801050e+04 2.840368e+04 2.423583e+04 2.332229e+04 2.024241e+04 1.977655e+04 1.702563e+04 1.695361e+04 1.424957e+04 1.454894e+04 1.176615e+04 1.245766e+04 
9.426880e+03 1.056729e+04 7.467574e+03 9.034986e+03 5.665411e+03 1.830207e+03 3.856415e+03 5.482186e+02 2.170765e+03 -6.928918e+02 6.003944e+02 -1.874470e+03 -8.392143e+02 -2.953003e+03 -2.105377e+03 -3.807248e+03 -3.104436e+03 -4.056565e+03 -3.134759e+03 -8.120720e+03 -1.194180e+04 -1.741104e+04 -2.005965e+04 -1.932256e+04 -2.492872e+04 -2.250237e+04 -1.758414e+04 -1.508940e+04 -6.638092e+03 -7.880287e+03 -2.956739e+03 -2.918804e+03 -1.829749e+03 1.217400e+03 2.409005e+03 6.461472e+03 5.465999e+03 9.581896e+03 7.881008e+03 9.192868e+03 1.096360e+04 7.735871e+03 1.057178e+04 1.056671e+04 1.335082e+04 1.393954e+04 1.518494e+04 1.832893e+04 1.525497e+04 2.122749e+04 1.953850e+04 1.639986e+04 1.991411e+04 2.319991e+04 2.145883e+04 2.163406e+04 1.916381e+04 1.904583e+04 1.647665e+04 1.655061e+04 1.392118e+04 1.430494e+04 1.157301e+04 1.231616e+04 
8.757449e+03 9.990859e+03 6.837214e+03 8.499797e+03 5.049972e+03 1.235462e+03 3.254438e+03 -6.107887e+01 1.549271e+03 -1.353643e+03 -8.347979e+01 -2.649293e+03 -1.656344e+03 -3.961527e+03 -3.190131e+03 -5.333419e+03 -4.784870e+03 -6.937900e+03 -6.975954e+03 -9.608131e+03 -1.160253e+04 -1.573724e+04 -1.648509e+04 -1.578812e+04 -1.642306e+04 -1.395835e+04 -1.150352e+04 -9.933379e+03 -5.886020e+03 -6.047938e+03 -2.534377e+03 -2.305905e+03 -1.744894e+02 1.625451e+03 2.914849e+03 5.595028e+03 5.377812e+03 8.300229e+03 7.478251e+03 8.979919e+03 9.907024e+03 8.989915e+03 1.149170e+04 1.134873e+04 1.366614e+04 1.425619e+04 1.527129e+04 1.758426e+04 1.593001e+04 1.969072e+04 1.833298e+04 1.818516e+04 2.041636e+04 2.180805e+04 2.044986e+04 2.047594e+04 1.817100e+04 1.809702e+04 1.557580e+04 1.572955e+04 1.310896e+04 1.358373e+04 1.084023e+04 1.167732e+04 
8.566128e+03 9.801241e+03 6.748522e+03 8.377147e+03 5.052139e+03 1.360164e+03 3.346225e+03 1.208287e+02 1.724562e+03 -1.103091e+03 1.688004e+02 -2.319626e+03 -1.339405e+03 -3.542872e+03 -2.830221e+03 -4.818310e+03 -4.376520e+03 -6.360809e+03 -6.144514e+03 -9.145929e+03 -1.022286e+04 -1.385080e+04 -1.382208e+04 -1.291074e+04 -1.457302e+04 -1.280229e+04 -1.092369e+04 -9.569391e+03 -5.943040e+03 -5.698013e+03 -2.464938e+03 -2.063541e+03 1.136048e+02 1.539333e+03 3.061441e+03 5.228018e+03 5.607994e+03 7.813850e+03 7.730997e+03 8.974525e+03 9.684866e+03 9.671682e+03 1.105966e+04 1.146262e+04 1.310772e+04 1.394281e+04 1.482244e+04 1.661736e+04 1.607439e+04 1.845360e+04 1.799349e+04 1.844775e+04 1.876744e+04 1.998953e+04 1.898979e+04 1.925284e+04 1.721529e+04 1.729476e+04 1.492212e+04 1.517166e+04 1.265001e+04 1.318694e+04 1.052783e+04 1.139855e+04 
7.836107e+03 9.148873e+03 6.069037e+03 7.771662e+03 4.395902e+03 7.488978e+02 2.712033e+03 -5.003639e+02 1.077320e+03 -1.770825e+03 -5.371849e+02 -3.085122e+03 -2.174451e+03 -4.481851e+03 -3.912392e+03 -6.031226e+03 -5.899420e+03 -7.846756e+03 -8.372588e+03 -1.018550e+04 -1.166194e+04 -1.499078e+04 -1.191241e+04 -9.886053e+03 -1.078199e+04 -8.729061e+03 -6.996766e+03 -5.732888e+03 -3.928981e+03 -3.404613e+03 -1.293145e+03 -1.079240e+03 1.289658e+03 1.878859e+03 3.810758e+03 5.129996e+03 5.944717e+03 7.510239e+03 7.641987e+03 9.051342e+03 9.262915e+03 1.022025e+04 1.110145e+04 1.181480e+04 1.337909e+04 1.411855e+04 1.509298e+04 1.634218e+04 1.629062e+04 1.798167e+04 1.735420e+04 1.859308e+04 1.811538e+04 1.933109e+04 1.858639e+04 1.853091e+04 1.639865e+04 1.639112e+04 1.399412e+04 1.427860e+04 1.176536e+04 1.237603e+04 9.724336e+03 1.067558e+04 
7.558900e+03 8.862679e+03 5.906278e+03 7.565376e+03 4.334971e+03 8.619549e+02 2.752376e+03 -3.217116e+02 1.212019e+03 -1.520331e+03 -3.119078e+02 -2.757302e+03 -1.859266e+03 -4.078548e+03 -3.506723e+03 -5.587090e+03 -5.423262e+03 -7.531526e+03 -8.067351e+03 -1.061591e+04 -1.419199e+04 -1.880717e+04 -1.271167e+04 -6.384660e+03 -9.298353e+03 -7.152924e+03 -6.340296e+03 -5.429811e+03 -4.029485e+03 -3.491701e+03 -1.220722e+03 -1.259865e+03 1.499435e+03 1.699698e+03 3.962795e+03 4.975656e+03 6.128839e+03 7.391783e+03 7.673992e+03 9.197873e+03 8.949276e+03 1.049872e+04 1.072130e+04 1.165813e+04 1.310013e+04 1.368775e+04 1.488577e+04 1.567266e+04 1.617244e+04 1.739756e+04 1.673877e+04 1.845679e+04 1.717237e+04 1.863502e+04 1.823982e+04 1.795922e+04 1.577214e+04 1.568998e+04 1.334816e+04 1.364876e+04 1.122628e+04 1.186975e+04 9.319013e+03 1.028893e+04 
6.791526e+03 8.158346e+03 5.205112e+03 6.915256e+03 3.669362e+03 2.655936e+02 2.121019e+03 -9.182822e+02 5.844529e+02 -2.144441e+03 -9.704134e+02 -3.439782e+03 -2.593183e+03 -4.852165e+03 -4.379785e+03 -6.474562e+03 -6.547010e+03 -8.517047e+03 -9.747260e+03 -1.173229e+04 -1.743642e+04 -2.180214e+04 -1.811018e+04 -1.221841e+04 -1.086756e+04 -7.243136e+03 -3.259351e+03 -1.771373e+03 -1.898784e+03 -9.462486e+02 -1.648606e+02 -5.232988e+02 2.717572e+03 1.779517e+03 4.925778e+03 5.442431e+03 6.915516e+03 7.507646e+03 7.873570e+03 9.474784e+03 8.369155e+03 1.102488e+04 1.019740e+04 1.155707e+04 1.356299e+04 1.401018e+04 1.542567e+04 1.564972e+04 1.674301e+04 1.720058e+04 1.647732e+04 1.881125e+04 1.571088e+04 1.808068e+04 1.891192e+04 1.773436e+04 1.484135e+04 1.464377e+04 1.224019e+04 1.261343e+04 1.023140e+04 1.096385e+04 8.452647e+03 9.499555e+03 
6.441930e+03 7.796511e+03 4.981228e+03 6.643267e+03 3.555460e+03 3.639845e+02 2.117020e+03 -7.484163e+02 6.832506e+02 -1.898550e+03 -7.700367e+02 -3.111000e+03 -2.281607e+03 -4.430621e+03 -3.917499e+03 -5.939026e+03 -5.795763e+03 -7.791292e+03 -8.229748e+03 -1.046552e+04 -1.200550e+04 -1.968061e+04 -2.002698e+04 -1.917441e+04 -1.982729e+04 -1.797148e+04 -1.302955e+04 -9.240041e+03 -6.537897e+03 -4.881556e+03 -2.550801e+03 -3.487369e+03 2.519572e+02 -5.756870e+02 2.313635e+03 3.359662e+03 5.341111e+03 6.054378e+03 6.204028e+03 8.457083e+03 6.277078e+03 9.368617e+03 8.358492e+03 8.662043e+03 1.126198e+04 1.162202e+04 1.374827e+04 1.361509e+04 1.531697e+04 1.593489e+04 1.434685e+04 1.807508e+04 1.384806e+04 1.496665e+04 1.772580e+04 1.707042e+04 1.412108e+04 1.381815e+04 1.146771e+04 1.185822e+04 9.582492e+03 1.035228e+04 7.959080e+03 9.024601e+03 
5.669928e+03 7.071006e+03 4.288886e+03 5.977214e+03 2.909993e+03 -1.920791e+02 1.518570e+03 -1.293363e+03 1.098306e+02 -2.448556e+03 -1.336481e+03 -3.679023e+03 -2.851320e+03 -5.018437e+03 -4.474143e+03 -6.515128e+03 -6.225838e+03 -8.223799e+03 -7.967842e+03 -1.028370e+04 -8.780290e+03 -1.341622e+04 -1.845178e+04 -1.831409e+04 -2.009451e+04 -2.153290e+04 -2.027057e+04 -1.812980e+04 -1.460453e+04 -1.445553e+04 -1.021249e+04 -1.225969e+04 -9.070706e+03 -9.300769e+03 -8.165392e+03 -6.407414e+03 -5.435100e+03 -2.908971e+03 -3.846271e+03 -5.926779e+02 -2.023404e+03 -7.386943e+02 8.016501e+02 -1.234237e+03 1.315475e+03 1.500313e+03 3.407506e+03 4.440412e+03 4.924726e+03 7.932395e+03 5.449474e+03 9.610727e+03 8.817081e+03 6.984149e+03 1.053056e+04 1.269615e+04 1.117520e+04 1.176896e+04 9.862739e+03 1.056121e+04 8.458159e+03 9.364259e+03 7.058798e+03 8.200197e+03 
5.265527e+03 6.656820e+03 4.019580e+03 5.658963e+03 2.754337e+03 -1.089397e+02 1.476880e+03 -1.136078e+03 1.725600e+02 -2.213565e+03 -1.173851e+03 -3.359261e+03 -2.589211e+03 -4.600909e+03 -4.114678e+03 -5.974922e+03 -5.806937e+03 -7.507988e+03 -7.715390e+03 -9.143098e+03 -9.703627e+03 -1.248348e+04 -1.452458e+04 -1.534654e+04 -1.737701e+04 -1.778714e+04 -1.783960e+04 -1.791011e+04 -1.497888e+04 -1.612504e+04 -1.158510e+04 -1.332410e+04 -1.079645e+04 -1.047310e+04 -1.017026e+04 -8.381232e+03 -8.279455e+03 -5.396274e+03 -6.218878e+03 -3.642553e+03 -3.585283e+03 -3.512405e+03 -1.209502e+03 -2.679794e+03 -1.404676e+03 -9.832467e+02 -3.165296e+01 1.654688e+03 1.195104e+03 4.566806e+03 2.874145e+03 5.591688e+03 7.005774e+03 5.838739e+03 6.484460e+03 9.708479e+03 9.088409e+03 1.027677e+04 8.664356e+03 9.588379e+03 7.651354e+03 8.653789e+03 6.485347e+03 7.660657e+03 
4.537176e+03 5.949260e+03 3.368341e+03 5.007573e+03 2.156165e+03 -6.075577e+02 9.327955e+02 -1.614201e+03 -3.299714e+02 -2.677964e+03 -1.640095e+03 -3.811352e+03 -3.011575e+03 -5.032735e+03 -4.460613e+03 -6.365349e+03 -5.997916e+03 -7.834212e+03 -7.635248e+03 -9.471506e+03 -9.553094e+03 -1.135149e+04 -1.317963e+04 -1.387390e+04 -1.476124e+04 -1.548831e+04 -1.501469e+04 -1.495691e+04 -1.322434e+04 -1.368387e+04 -1.109051e+04 -1.187997e+04 -9.817790e+03 -9.760399e+03 -8.797208e+03 -7.721686e+03 -7.405031e+03 -5.476098e+03 -5.782740e+03 -3.849646e+03 -3.802774e+03 -3.094884e+03 -1.856338e+03 -2.111204e+03 -8.490231e+02 -4.843231e+02 3.072001e+02 1.671946e+03 1.506858e+03 3.973044e+03 2.970280e+03 5.292319e+03 5.520397e+03 6.311171e+03 6.890632e+03 8.633912e+03 7.797881e+03 8.927854e+03 7.461327e+03 8.468385e+03 6.655017e+03 7.726428e+03 5.646551e+03 6.865108e+03 
4.112362e+03 5.511293e+03 3.075325e+03 4.664248e+03 1.974351e+03 -5.398844e+02 8.625215e+02 -1.473148e+03 -2.988390e+02 -2.460955e+03 -1.514204e+03 -3.512599e+03 -2.796388e+03 -4.642442e+03 -4.165017e+03 -5.868061e+03 -5.642200e+03 -7.207924e+03 -7.243300e+03 -8.708524e+03 -8.984235e+03 -1.061293e+04 -1.138296e+04 -1.247359e+04 -1.306582e+04 -1.380134e+04 -1.342599e+04 -1.397718e+04 -1.234994e+04 -1.306650e+04 -1.076913e+04 -1.140076e+04 -9.685721e+03 -9.470887e+03 -8.669590e+03 -7.618984e+03 -7.249300e+03 -5.665390e+03 -5.607531e+03 -4.184377e+03 -3.807914e+03 -3.241597e+03 -2.225386e+03 -2.127344e+03 -1.308680e+03 -6.500522e+02 -1.646179e+02 1.206618e+03 1.085642e+03 3.073243e+03 2.605350e+03 4.360392e+03 4.539743e+03 5.467658e+03 5.412972e+03 7.084216e+03 6.361587e+03 7.675887e+03 6.379753e+03 7.524783e+03 5.857536e+03 7.005114e+03 5.059379e+03 6.305151e+03 
3.461175e+03 4.852978e+03 2.489076e+03 4.053027e+03 1.441105e+03 -9.720362e+02 3.850683e+02 -1.877996e+03 -7.248634e+02 -2.838302e+03 -1.886538e+03 -3.857065e+03 -3.102646e+03 -4.940453e+03 -4.378069e+03 -6.094187e+03 -5.718858e+03 -7.319221e+03 -7.142218e+03 -8.609194e+03 -8.712091e+03 -9.954067e+03 -1.053926e+04 -1.139942e+04 -1.160065e+04 -1.228370e+04 -1.179210e+04 -1.218445e+04 -1.104599e+04 -1.141900e+04 -9.897125e+03 -1.018648e+04 -8.822840e+03 -8.670345e+03 -7.776900e+03 -7.065950e+03 -6.580227e+03 -5.436882e+03 -5.230658e+03 -4.055720e+03 -3.745579e+03 -2.968525e+03 -2.303799e+03 -1.819183e+03 -1.134741e+03 -4.225542e+02 -7.135883e+00 1.189845e+03 1.150211e+03 2.800010e+03 2.435923e+03 4.075928e+03 3.915417e+03 5.181299e+03 4.985760e+03 6.331134e+03 5.557144e+03 6.751003e+03 5.507217e+03 6.634060e+03 5.044284e+03 6.199822e+03 4.330397e+03 5.581690e+03 
3.047093e+03 4.417491e+03 2.193245e+03 3.704508e+03 1.248238e+03 -9.194903e+02 2.961078e+02 -1.755693e+03 -7.188341e+02 -2.644877e+03 -1.791935e+03 -3.589241e+03 -2.924419e+03 -4.593318e+03 -4.120248e+03 -5.662105e+03 -5.381725e+03 -6.800114e+03 -6.704741e+03 -8.015198e+03 -8.078636e+03 -9.308604e+03 -9.496260e+03 -1.049446e+04 -1.050699e+04 -1.128485e+04 -1.080028e+04 -1.141400e+04 -1.035236e+04 -1.086593e+04 -9.496742e+03 -9.791743e+03 -8.596368e+03 -8.433442e+03 -7.627512e+03 -6.987486e+03 -6.473972e+03 -5.525808e+03 -5.178254e+03 -4.238492e+03 -3.819784e+03 -3.135113e+03 -2.555698e+03 -1.991628e+03 -1.492992e+03 -7.016844e+02 -4.220141e+02 7.223499e+02 6.965565e+02 2.115151e+03 1.895855e+03 3.284679e+03 3.107026e+03 4.306906e+03 3.946551e+03 5.266198e+03 4.517437e+03 5.766246e+03 4.619708e+03 5.808170e+03 4.332919e+03 5.527582e+03 3.778792e+03 5.039494e+03 
2.486224e+03 3.826084e+03 1.683853e+03 3.150031e+03 7.884277e+02 -1.282775e+03 -1.103934e+02 -2.087798e+03 -1.070512e+03 -2.941062e+03 -2.082702e+03 -3.840379e+03 -3.141442e+03 -4.783432e+03 -4.242318e+03 -5.765138e+03 -5.380046e+03 -6.774294e+03 -6.547322e+03 -7.790031e+03 -7.727270e+03 -8.776705e+03 -8.839536e+03 -9.669619e+03 -9.544743e+03 -1.019735e+04 -9.718056e+03 -1.017985e+04 -9.361134e+03 -9.681293e+03 -8.670155e+03 -8.812400e+03 -7.848180e+03 -7.696703e+03 -6.945080e+03 -6.457492e+03 -5.934774e+03 -5.186864e+03 -4.822621e+03 -3.996706e+03 -3.641342e+03 -2.901636e+03 -2.473390e+03 -1.787687e+03 -1.395014e+03 -5.815591e+02 -3.615576e+02 6.955235e+02 6.636713e+02 1.937485e+03 1.703168e+03 3.018638e+03 2.715506e+03 3.941782e+03 3.491806e+03 4.701172e+03 3.920151e+03 5.083193e+03 3.960265e+03 5.103023e+03 3.680954e+03 4.849724e+03 3.167174e+03 4.404867e+03 
2.102425e+03 3.412070e+03 1.400678e+03 2.811989e+03 5.967803e+02 -1.244713e+03 -2.092209e+02 -1.985744e+03 -1.083051e+03 -2.774804e+03 -2.013917e+03 -3.608837e+03 -2.994684e+03 -4.485244e+03 -4.018563e+03 -5.399863e+03 -5.074998e+03 -6.344553e+03 -6.144310e+03 -7.302558e+03 -7.189596e+03 -8.232320e+03 -8.136170e+03 -9.024381e+03 -8.798542e+03 -9.523701e+03 -9.032608e+03 -9.600639e+03 -8.825058e+03 -9.232211e+03 -8.302059e+03 -8.490405e+03 -7.612620e+03 -7.501432e+03 -6.799706e+03 -6.386693e+03 -5.858505e+03 -5.232012e+03 -4.818852e+03 -4.122798e+03 -3.735409e+03 -3.069959e+03 -2.680960e+03 -2.005820e+03 -1.695490e+03 -8.896786e+02 -7.331952e+02 2.615841e+02 2.254489e+02 1.370529e+03 1.173730e+03 2.354658e+03 2.048014e+03 3.201197e+03 2.712616e+03 3.890753e+03 3.130416e+03 4.299205e+03 3.243420e+03 4.403027e+03 3.072514e+03 4.250483e+03 2.673768e+03 3.903292e+03 
1.631309e+03 2.893695e+03 9.700231e+02 2.321984e+03 2.109610e+02 -1.541765e+03 -5.463810e+02 -2.250169e+03 -1.366392e+03 -2.999367e+03 -2.235625e+03 -3.783022e+03 -3.142921e+03 -4.593576e+03 -4.076881e+03 -5.420091e+03 -5.022988e+03 -6.245682e+03 -5.959237e+03 -7.044183e+03 -6.846371e+03 -7.774716e+03 -7.605643e+03 -8.369755e+03 -8.097523e+03 -8.704335e+03 -8.246797e+03 -8.691689e+03 -8.054417e+03 -8.339192e+03 -7.600051e+03 -7.703092e+03 -6.978425e+03 -6.860459e+03 -6.240568e+03 -5.892379e+03 -5.404228e+03 -4.869575e+03 -4.488258e+03 -3.851932e+03 -3.522850e+03 -2.855186e+03 -2.552708e+03 -1.849321e+03 -1.615057e+03 -8.140932e+02 -7.112797e+02 2.310638e+02 1.627600e+02 1.229869e+03 9.985256e+02 2.119074e+03 1.751952e+03 2.867784e+03 2.330415e+03 3.441913e+03 2.664473e+03 3.767828e+03 2.729635e+03 3.837220e+03 2.550122e+03 3.685444e+03 2.169620e+03 3.357843e+03 
1.286795e+03 2.512393e+03 7.086172e+02 2.004941e+03 2.856990e+01 -1.517406e+03 -6.484787e+02 -2.168820e+03 -1.392284e+03 -2.861648e+03 -2.188727e+03 -3.589348e+03 -3.025518e+03 -4.344671e+03 -3.889456e+03 -5.117761e+03 -4.763038e+03 -5.893559e+03 -5.620127e+03 -6.647299e+03 -6.420103e+03 -7.336142e+03 -7.099634e+03 -7.889178e+03 -7.567315e+03 -8.219634e+03 -7.752689e+03 -8.258901e+03 -7.645184e+03 -7.989998e+03 -7.295206e+03 -7.448759e+03 -6.771375e+03 -6.704782e+03 -6.115646e+03 -5.834036e+03 -5.351214e+03 -4.901040e+03 -4.507357e+03 -3.956777e+03 -3.622363e+03 -3.018509e+03 -2.737371e+03 -2.073484e+03 -1.877960e+03 -1.114775e+03 -1.043259e+03 -1.601815e+02 -2.358134e+02 7.475517e+02 5.262296e+02 1.562001e+03 1.198817e+03 2.254305e+03 1.717855e+03 2.793979e+03 2.043232e+03 3.131049e+03 2.148087e+03 3.248268e+03 2.037939e+03 3.162927e+03 1.739839e+03 2.906979e+03 
8.980342e+02 2.065749e+03 3.523043e+02 1.580434e+03 -2.878062e+02 -1.753956e+03 -9.214891e+02 -2.373011e+03 -1.614957e+03 -3.025308e+03 -2.352844e+03 -3.702153e+03 -3.120795e+03 -4.393218e+03 -3.903407e+03 -5.084949e+03 -4.681680e+03 -5.758736e+03 -5.429494e+03 -6.388605e+03 -6.108523e+03 -6.938133e+03 -6.662730e+03 -7.356580e+03 -7.023165e+03 -7.578610e+03 -7.147235e+03 -7.558390e+03 -7.032312e+03 -7.292355e+03 -6.713264e+03 -6.809521e+03 -6.238350e+03 -6.157120e+03 -5.645627e+03 -5.388481e+03 -4.960757e+03 -4.553213e+03 -4.206814e+03 -3.690779e+03 -3.410047e+03 -2.820006e+03 -2.600315e+03 -1.941605e+03 -1.803270e+03 -1.058434e+03 -1.032924e+03 -1.896262e+02 -3.002989e+02 6.296053e+02 3.763408e+02 1.359810e+03 9.625645e+02 1.969691e+03 1.408780e+03 2.429134e+03 1.674151e+03 2.704850e+03 1.741453e+03 2.787995e+03 1.618692e+03 2.692732e+03 1.328555e+03 2.443588e+03 
5.948742e+02 1.722383e+03 1.166608e+02 1.290342e+03 -4.567332e+02 -1.742409e+03 -1.022638e+03 -2.311958e+03 -1.650526e+03 -2.915883e+03 -2.325075e+03 -3.545647e+03 -3.031500e+03 -4.191430e+03 -3.753634e+03 -4.840622e+03 -4.471586e+03 -5.475862e+03 -5.159076e+03 -6.072318e+03 -5.780831e+03 -6.594406e+03 -6.291319e+03 -6.994677e+03 -6.639243e+03 -7.221746e+03 -6.786588e+03 -7.236802e+03 -6.724832e+03 -7.028711e+03 -6.475298e+03 -6.616377e+03 -6.072962e+03 -6.040119e+03 -5.549041e+03 -5.348132e+03 -4.929256e+03 -4.585489e+03 -4.240129e+03 -3.788068e+03 -3.510635e+03 -2.975935e+03 -2.769204e+03 -2.156375e+03 -2.037326e+03 -1.337384e+03 -1.327446e+03 -5.369859e+02 -6.523004e+02 2.162433e+02 -3.202485e+01 8.909672e+02 5.023784e+02 1.460342e+03 9.138793e+02 1.898696e+03 1.173864e+03 2.179945e+03 1.265701e+03 2.292506e+03 1.189697e+03 2.242260e+03 9.594517e+02 2.045696e+03 
2.785169e+02 1.342168e+03 -1.728300e+02 9.280903e+02 -7.107785e+02 -1.925662e+03 -1.238461e+03 -2.464185e+03 -1.820630e+03 -3.029002e+03 -2.441626e+03 -3.610373e+03 -3.085915e+03 -4.196901e+03 -3.736687e+03 -4.774444e+03 -4.374134e+03 -5.324979e+03 -4.973459e+03 -5.825358e+03 -5.503081e+03 -6.246201e+03 -5.924667e+03 -6.551868e+03 -6.199067e+03 -6.704517e+03 -6.300999e+03 -6.678000e+03 -6.226608e+03 -6.467940e+03 -5.992151e+03 -6.090157e+03 -5.624218e+03 -5.573974e+03 -5.149430e+03 -4.954744e+03 -4.591047e+03 -4.267242e+03 -3.970950e+03 -3.540577e+03 -3.311667e+03 -2.794253e+03 -2.636338e+03 -2.040021e+03 -1.966059e+03 -1.289858e+03 -1.317927e+03 -5.623145e+02 -7.080290e+02 1.170588e+02 -1.559615e+02 7.203067e+02 3.121253e+02 1.221939e+03 6.657843e+02 1.598977e+03 8.797594e+02 1.832167e+03 9.416265e+02 1.914266e+03 8.532089e+02 1.850712e+03 6.265220e+02 1.654736e+03 
1.502245e+01 1.038066e+03 -3.820462e+02 6.675373e+02 -8.646909e+02 -1.925942e+03 -1.336326e+03 -2.422440e+03 -1.863427e+03 -2.946633e+03 -2.430846e+03 -3.489115e+03 -3.023201e+03 -4.039033e+03 -3.623733e+03 -4.583051e+03 -4.212925e+03 -5.104159e+03 -4.767181e+03 -5.580370e+03 -5.258136e+03 -5.983874e+03 -5.653609e+03 -6.282147e+03 -5.921880e+03 -6.443081e+03 -6.040196e+03 -6.443387e+03 -6.001782e+03 -6.275895e+03 -5.816167e+03 -5.951251e+03 -5.502806e+03 -5.493947e+03 -5.083655e+03 -4.935330e+03 -4.580504e+03 -4.306973e+03 -4.015708e+03 -3.636024e+03 -3.412315e+03 -2.942338e+03 -2.792602e+03 -2.239993e+03 -2.175819e+03 -1.542662e+03 -1.577877e+03 -8.678973e+02 -1.014632e+03 -2.376622e+02 -5.050285e+02 3.245811e+02 -7.210980e+01 7.969360e+02 2.597858e+02 1.159538e+03 4.709033e+02 1.395757e+03 5.495928e+02 1.497165e+03 4.942701e+02 1.465102e+03 3.119697e+02 1.308085e+03 
-2.392574e+02 7.171944e+02 -6.133129e+02 3.619696e+02 -1.064394e+03 -2.063437e+03 -1.502452e+03 -2.530791e+03 -1.988722e+03 -3.018425e+03 -2.508272e+03 -3.516430e+03 -3.045789e+03 -4.013409e+03 -3.584807e+03 -4.495816e+03 -4.106751e+03 -4.947351e+03 -4.590059e+03 -5.348490e+03 -5.009937e+03 -5.676444e+03 -5.339664e+03 -5.906271e+03 -5.554625e+03 -6.014334e+03 -5.638681e+03 -5.984717e+03 -5.587990e+03 -5.814029e+03 -5.410558e+03 -5.511512e+03 -5.122059e+03 -5.095916e+03 -4.741009e+03 -4.591176e+03 -4.286197e+03 -4.022209e+03 -3.776407e+03 -3.411597e+03 -3.230740e+03 -2.777695e+03 -2.668389e+03 -2.135475e+03 -2.107683e+03 -1.499747e+03 -1.565558e+03 -8.879165e+02 -1.058649e+03 -3.203108e+02 -6.050112e+02 1.817305e+02 -2.248757e+02 5.982019e+02 6.107749e+01 9.116984e+02 2.360118e+02 1.109025e+03 2.907236e+02 1.184142e+03 2.246805e+02 1.138640e+03 4.439368e+01 9.796614e+02 
-4.664062e+02 4.515071e+02 -7.972497e+02 1.314058e+02 -1.203299e+03 -2.074494e+03 -1.595944e+03 -2.507025e+03 -2.037113e+03 -2.961347e+03 -2.512624e+03 -3.427945e+03 -3.007676e+03 -3.895940e+03 -3.506308e+03 -4.352466e+03 -3.990718e+03 -4.782076e+03 -4.440760e+03 -5.166290e+03 -4.834106e+03 -5.483739e+03 -5.147553e+03 -5.711580e+03 -5.359949e+03 -5.828778e+03 -5.456395e+03 -5.820599e+03 -5.431507e+03 -5.682357e+03 -5.289722e+03 -5.420458e+03 -5.042668e+03 -5.050499e+03 -4.705735e+03 -4.593558e+03 -4.296040e+03 -4.072282e+03 -3.831759e+03 -3.507866e+03 -3.331630e+03 -2.918435e+03 -2.814093e+03 -2.319545e+03 -2.296374e+03 -1.726297e+03 -1.794415e+03 -1.155189e+03 -1.324029e+03 -6.244090e+02 -9.020563e+02 -1.526173e+02 -5.464551e+02 2.426198e+02 -2.746789e+02 5.458632e+02 -1.008863e+02 7.450626e+02 -3.375813e+01 8.335400e+02 -7.547345e+01 8.106923e+02 -2.223289e+02 6.808722e+02 
-6.683315e+02 1.823785e+02 -9.788276e+02 -1.240601e+02 -1.356550e+03 -2.173410e+03 -1.719630e+03 -2.578858e+03 -2.124612e+03 -2.999597e+03 -2.557837e+03 -3.426081e+03 -3.005040e+03 -3.847527e+03 -3.451056e+03 -4.251574e+03 -3.879397e+03 -4.624046e+03 -4.272001e+03 -4.948923e+03 -4.609568e+03 -5.208730e+03 -4.872855e+03 -5.385747e+03 -5.045167e+03 -5.464364e+03 -5.115467e+03 -5.434357e+03 -5.080325e+03 -5.293337e+03 -4.943839e+03 -5.047078e+03 -4.715764e+03 -4.708018e+03 -4.409122e+03 -4.292814e+03 -4.038511e+03 -3.819783e+03 -3.619368e+03 -3.306826e+03 -3.167695e+03 -2.770300e+03 -2.699742e+03 -2.225228e+03 -2.231547e+03 -1.686518e+03 -1.778708e+03 -1.170068e+03 -1.356684e+03 -6.928416e+02 -9.812739e+02 -2.719282e+02 -6.685419e+02 7.677866e+01 -4.336314e+02 3.397291e+02 -2.886112e+02 5.069066e+02 -2.405451e+02 5.730887e+02 -2.908157e+02 5.380715e+02 -4.358140e+02 4.056883e+02 