# vtk DataFile Version 2.0
Comment goes here
ASCII

DATASET STRUCTURED_POINTS
FIELD FieldData 1
TIME 1 1 double
0.02300000
DIMENSIONS    64   64   1

ORIGIN    0.000   0.000   0.000
SPACING   0.03125 0.03125   1.000

POINT_DATA   4096
SCALARS P double
LOOKUP_TABLE default

-3.652767e+01 -2.113026e+02 -3.513841e+01 -2.102184e+02 -4.674494e+01 1.237250e+02 -3.343340e+01 1.194819e+02 -3.307737e+01 1.146217e+02 -2.856313e+01 1.015352e+02 -1.686017e+01 8.618118e+01 -6.542583e+00 6.967025e+01 7.215656e+00 4.978563e+01 1.593232e+01 3.907632e+01 1.244760e+01 3.845658e+01 2.476563e+00 3.316861e+01 1.276147e+00 2.247054e+01 -2.359499e+00 1.393442e+01 -6.314498e+00 5.203813e+00 -1.458261e+01 3.356621e-01 -2.474609e+01 -3.947447e+00 -3.445358e+01 -1.203019e+01 -3.781728e+01 -2.691809e+01 -3.678379e+01 -4.185866e+01 -3.659221e+01 -5.905158e+01 -3.145392e+01 -8.136880e+01 -2.569034e+01 -9.638305e+01 -3.246901e+01 -9.712558e+01 -5.046302e+01 -9.282078e+01 -6.554670e+01 -9.586927e+01 -7.352173e+01 -1.007455e+02 -8.132456e+01 -1.067158e+02 -8.286174e+01 -1.249707e+02 -7.546532e+01 -1.424663e+02 -6.909548e+01 -1.629957e+02 -5.567249e+01 -1.914125e+02 
-9.274796e+00 -1.390709e+02 -1.001284e+01 -1.389438e+02 -1.954862e+01 1.098835e+02 -1.051390e+01 1.058096e+02 -1.127135e+01 1.018703e+02 -9.973922e+00 9.318202e+01 -4.697804e+00 8.345735e+01 -6.482652e-01 7.314057e+01 5.644181e+00 6.027005e+01 9.780761e+00 5.188000e+01 7.739248e+00 4.893042e+01 2.301274e+00 4.294677e+01 2.388469e+00 3.382945e+01 9.891163e-01 2.601524e+01 -1.723326e-01 1.787156e+01 -3.616129e+00 1.193216e+01 -8.010733e+00 6.522461e+00 -1.260474e+01 -6.115878e-01 -1.392232e+01 -1.133870e+01 -1.314258e+01 -2.152845e+01 -1.342001e+01 -3.259631e+01 -1.100841e+01 -4.682618e+01 -7.597311e+00 -5.763910e+01 -1.040990e+01 -6.118333e+01 -1.874760e+01 -6.221443e+01 -2.520236e+01 -6.732874e+01 -2.783589e+01 -7.285844e+01 -3.116999e+01 -7.811798e+01 -3.157977e+01 -8.985621e+01 -2.765322e+01 -1.000171e+02 -2.526744e+01 -1.113752e+02 -1.911199e+01 -1.273971e+02 
3.988052e+00 -9.018696e+01 3.157029e+00 -9.122780e+01 -2.229238e-01 9.502631e+01 2.522529e+00 9.250261e+01 1.944905e+00 8.929312e+01 1.671280e+00 8.447412e+01 2.157194e+00 7.908468e+01 2.187618e+00 7.324219e+01 2.757648e+00 6.627426e+01 3.207770e+00 5.962758e+01 2.800503e+00 5.375092e+01 1.783447e+00 4.700481e+01 2.113732e+00 3.952890e+01 2.054561e+00 3.234898e+01 2.199981e+00 2.496292e+01 1.972329e+00 1.796338e+01 1.584066e+00 1.117257e+01 8.525669e-01 4.235943e+00 6.036556e-01 -3.299267e+00 5.791438e-01 -1.038237e+01 1.698286e-02 -1.737412e+01 -6.892289e-02 -2.510210e+01 3.863462e-01 -3.250322e+01 9.172571e-02 -3.885429e+01 -7.858977e-01 -4.480842e+01 -1.064682e+00 -5.135209e+01 -6.284856e-01 -5.743627e+01 -6.535142e-01 -6.294362e+01 -2.285993e-01 -6.942220e+01 7.894735e-01 -7.481297e+01 1.064782e+00 -7.991978e+01 2.065100e+00 -8.574063e+01 
2.727779e+00 -9.367179e+01 2.766446e+00 -9.635715e+01 2.748954e+00 9.873255e+01 2.239072e+00 9.556968e+01 1.774579e+00 9.150820e+01 1.704557e+00 8.630214e+01 2.192165e+00 8.041539e+01 2.703207e+00 7.401636e+01 3.373990e+00 6.702255e+01 3.790560e+00 6.026244e+01 3.492240e+00 5.392704e+01 2.759548e+00 4.715970e+01 2.564849e+00 3.987998e+01 2.370179e+00 3.258332e+01 2.206396e+00 2.529314e+01 1.794847e+00 1.826570e+01 1.189478e+00 1.135925e+01 4.902260e-01 4.249670e+00 1.446946e-01 -3.275070e+00 4.896852e-02 -1.076027e+01 -1.523082e-01 -1.828713e+01 -1.340700e-01 -2.605800e+01 -3.055002e-04 -3.343716e+01 -4.150456e-01 -3.996623e+01 -1.253299e+00 -4.603716e+01 -1.775987e+00 -5.222468e+01 -1.831746e+00 -5.827297e+01 -1.843199e+00 -6.423813e+01 -1.456532e+00 -7.066927e+01 -6.506675e-01 -7.676814e+01 7.793457e-02 -8.275461e+01 1.247322e+00 -8.879174e+01 
2.776140e+00 -8.968707e+01 2.896677e+00 -9.249056e+01 3.092399e+00 9.595417e+01 2.673926e+00 9.286045e+01 2.360137e+00 8.901251e+01 2.272133e+00 8.428937e+01 2.478681e+00 7.896689e+01 2.675067e+00 7.312616e+01 2.885443e+00 6.662446e+01 2.987941e+00 6.006450e+01 2.746798e+00 5.360282e+01 2.281256e+00 4.679804e+01 2.145851e+00 3.963587e+01 2.053125e+00 3.241812e+01 2.002542e+00 2.520445e+01 1.793011e+00 1.815021e+01 1.426292e+00 1.117401e+01 9.635266e-01 4.079882e+00 6.698770e-01 -3.224275e+00 4.904117e-01 -1.043724e+01 1.994050e-01 -1.760238e+01 -1.858517e-02 -2.488830e+01 -1.511514e-01 -3.203371e+01 -4.360717e-01 -3.876892e+01 -8.235818e-01 -4.521914e+01 -9.122288e-01 -5.155431e+01 -6.877510e-01 -5.763432e+01 -4.375030e-01 -6.350590e+01 4.147716e-04 -6.946068e+01 6.302927e-01 -7.504443e+01 1.171920e+00 -8.035325e+01 1.905680e+00 -8.546464e+01 
1.898602e+00 -9.333230e+01 2.287790e+00 -9.694625e+01 2.527356e+00 9.924544e+01 2.308374e+00 9.565983e+01 2.151475e+00 9.127107e+01 2.222575e+00 8.612664e+01 2.566187e+00 8.040927e+01 2.996614e+00 7.422539e+01 3.307380e+00 6.747765e+01 3.460844e+00 6.072872e+01 3.275766e+00 5.404262e+01 2.822962e+00 4.714952e+01 2.488620e+00 3.997560e+01 2.245924e+00 3.268540e+01 2.027432e+00 2.543945e+01 1.673197e+00 1.833153e+01 1.168102e+00 1.127167e+01 6.348164e-01 4.052787e+00 2.875906e-01 -3.393225e+00 1.120588e-01 -1.087322e+01 -7.515936e-02 -1.832397e+01 -2.886766e-01 -2.574336e+01 -5.728313e-01 -3.298398e+01 -9.750078e-01 -3.986096e+01 -1.460709e+00 -4.641868e+01 -1.682108e+00 -5.268385e+01 -1.644975e+00 -5.880940e+01 -1.458575e+00 -6.491199e+01 -1.060001e+00 -7.109631e+01 -4.585491e-01 -7.714827e+01 2.263464e-01 -8.301447e+01 1.057310e+00 -8.856936e+01 
2.236251e+00 -9.067356e+01 2.569334e+00 -9.448144e+01 2.854674e+00 9.765489e+01 2.669899e+00 9.388855e+01 2.548826e+00 8.956427e+01 2.582939e+00 8.468652e+01 2.805472e+00 7.936294e+01 3.121608e+00 7.363020e+01 3.175740e+00 6.701056e+01 3.126708e+00 6.039789e+01 2.914156e+00 5.377713e+01 2.440888e+00 4.693593e+01 2.140700e+00 3.980029e+01 2.029305e+00 3.249805e+01 1.980072e+00 2.529066e+01 1.771430e+00 1.825007e+01 1.357000e+00 1.128416e+01 9.060263e-01 4.135866e+00 6.363443e-01 -3.229003e+00 5.226704e-01 -1.054213e+01 3.048575e-01 -1.772252e+01 -6.307439e-02 -2.482600e+01 -5.272121e-01 -3.196290e+01 -8.340218e-01 -3.897887e+01 -1.097961e+00 -4.579914e+01 -1.109823e+00 -5.200800e+01 -7.949660e-01 -5.803685e+01 -4.121919e-01 -6.398677e+01 4.216990e-02 -6.987838e+01 5.639929e-01 -7.556782e+01 1.092092e+00 -8.101023e+01 1.668079e+00 -8.613279e+01 
1.475253e+00 -9.418492e+01 1.915508e+00 -9.852222e+01 2.252745e+00 1.006993e+02 2.244926e+00 9.651258e+01 2.281619e+00 9.176851e+01 2.465329e+00 8.652194e+01 2.843790e+00 8.088075e+01 3.371692e+00 7.490963e+01 3.468767e+00 6.790602e+01 3.471143e+00 6.112996e+01 3.319892e+00 5.433729e+01 2.753663e+00 4.740043e+01 2.321925e+00 4.019071e+01 2.121172e+00 3.276409e+01 2.001598e+00 2.545371e+01 1.703543e+00 1.833726e+01 1.162491e+00 1.132931e+01 5.909608e-01 4.083881e+00 2.734206e-01 -3.460721e+00 1.991527e-01 -1.101710e+01 2.462270e-02 -1.840655e+01 -3.832635e-01 -2.562041e+01 -1.019939e+00 -3.287756e+01 -1.429733e+00 -4.008639e+01 -1.855898e+00 -4.718580e+01 -1.904757e+00 -5.326677e+01 -1.635085e+00 -5.936500e+01 -1.294128e+00 -6.550925e+01 -8.661296e-01 -7.166616e+01 -3.455471e-01 -7.772846e+01 2.378896e-01 -8.360435e+01 8.709686e-01 -8.916323e+01 
1.897397e+00 -9.239915e+01 2.254615e+00 -9.699196e+01 2.558822e+00 9.995278e+01 2.547099e+00 9.547910e+01 2.570409e+00 9.066606e+01 2.704663e+00 8.553482e+01 3.020678e+00 8.021234e+01 3.672034e+00 7.497008e+01 3.792939e+00 6.733241e+01 3.410048e+00 6.076294e+01 3.324211e+00 5.413733e+01 2.398523e+00 4.735164e+01 1.954610e+00 4.014241e+01 1.998763e+00 3.251125e+01 2.142172e+00 2.521154e+01 1.946152e+00 1.824869e+01 1.276285e+00 1.155744e+01 6.618553e-01 4.413817e+00 4.884604e-01 -3.252576e+00 6.964672e-01 -1.078104e+01 5.545955e-01 -1.794177e+01 -5.523006e-02 -2.475809e+01 -1.067836e+00 -3.197920e+01 -1.297878e+00 -3.937001e+01 -1.365349e+00 -4.717960e+01 -1.820070e+00 -5.255787e+01 -1.001173e+00 -5.850342e+01 -4.557404e-01 -6.452653e+01 2.409558e-02 -7.050313e+01 4.991710e-01 -7.634596e+01 9.728421e-01 -8.199592e+01 1.449088e+00 -8.738322e+01 
1.193304e+00 -9.570853e+01 1.602556e+00 -1.007133e+02 1.948206e+00 1.027926e+02 2.084786e+00 9.794906e+01 2.247224e+00 9.278059e+01 2.507869e+00 8.733472e+01 2.939953e+00 8.176481e+01 3.720413e+00 7.637400e+01 3.934645e+00 6.828792e+01 3.626955e+00 6.152794e+01 3.588141e+00 5.474483e+01 2.589863e+00 4.785510e+01 2.069247e+00 4.053695e+01 2.052951e+00 3.275908e+01 2.144566e+00 2.535084e+01 1.873298e+00 1.830352e+01 1.089962e+00 1.156013e+01 3.859579e-01 4.309046e+00 1.789897e-01 -3.538209e+00 4.168604e-01 -1.125349e+01 2.777349e-01 -1.857139e+01 -3.946807e-01 -2.548615e+01 -1.546239e+00 -3.283490e+01 -1.824790e+00 -4.038889e+01 -1.942194e+00 -4.843830e+01 -2.573409e+00 -5.377147e+01 -1.735146e+00 -5.986413e+01 -1.216484e+00 -6.609820e+01 -7.603436e-01 -7.233690e+01 -2.902199e-01 -7.850051e+01 2.045063e-01 -8.451376e+01 7.119065e-01 -9.028586e+01 
1.627052e+00 -9.451590e+01 1.949978e+00 -9.981278e+01 2.227167e+00 1.026301e+02 2.341541e+00 9.745404e+01 2.468076e+00 9.210661e+01 2.657584e+00 8.657653e+01 2.945676e+00 8.089456e+01 3.346520e+00 7.506909e+01 3.336545e+00 6.788244e+01 3.244554e+00 6.112206e+01 3.084827e+00 5.432797e+01 2.496650e+00 4.740364e+01 2.095390e+00 4.020090e+01 1.980908e+00 3.275182e+01 1.966966e+00 2.546874e+01 1.768853e+00 1.840393e+01 1.298538e+00 1.147452e+01 8.093792e-01 4.283432e+00 5.794352e-01 -3.207023e+00 5.838348e-01 -1.064319e+01 4.086384e-01 -1.784927e+01 -7.387713e-02 -2.485991e+01 -8.076730e-01 -3.206995e+01 -1.116252e+00 -3.938045e+01 -1.338892e+00 -4.673502e+01 -1.385074e+00 -5.279375e+01 -8.693416e-01 -5.895273e+01 -4.093619e-01 -6.512866e+01 2.258041e-02 -7.126649e+01 4.430504e-01 -7.731724e+01 8.548828e-01 -8.323841e+01 1.254815e+00 -8.898630e+01 
9.634035e-01 -9.760970e+01 1.312704e+00 -1.032525e+02 1.616080e+00 1.052657e+02 1.856681e+00 9.975672e+01 2.103811e+00 9.408302e+01 2.402387e+00 8.823264e+01 2.778079e+00 8.221097e+01 3.196209e+00 7.596242e+01 3.237346e+00 6.888273e+01 3.205255e+00 6.188774e+01 3.029623e+00 5.490703e+01 2.561340e+00 4.780468e+01 2.173038e+00 4.049156e+01 1.968633e+00 3.302692e+01 1.835602e+00 2.568288e+01 1.565879e+00 1.849629e+01 1.108825e+00 1.136657e+01 6.397030e-01 4.037077e+00 3.565079e-01 -3.507913e+00 2.380653e-01 -1.101207e+01 6.445777e-03 -1.835374e+01 -4.590504e-01 -2.557021e+01 -1.083681e+00 -3.289585e+01 -1.455373e+00 -4.024294e+01 -1.736279e+00 -4.745852e+01 -1.717530e+00 -5.394655e+01 -1.411092e+00 -6.032196e+01 -1.044048e+00 -6.670935e+01 -6.571806e-01 -7.309046e+01 -2.546057e-01 -7.942225e+01 1.590576e-01 -8.565515e+01 5.720076e-01 -9.173495e+01 
1.383144e+00 -9.682123e+01 1.648392e+00 -1.027693e+02 1.869454e+00 1.054994e+02 2.080600e+00 9.964880e+01 2.284682e+00 9.374829e+01 2.514808e+00 8.775401e+01 2.781849e+00 8.162734e+01 3.037050e+00 7.528740e+01 3.035787e+00 6.844190e+01 2.969757e+00 6.152989e+01 2.788057e+00 5.458622e+01 2.436216e+00 4.751815e+01 2.131221e+00 4.028818e+01 1.950173e+00 3.296453e+01 1.818066e+00 2.571902e+01 1.601872e+00 1.857697e+01 1.267014e+00 1.145260e+01 9.183988e-01 4.199301e+00 6.775510e-01 -3.177928e+00 5.258173e-01 -1.051454e+01 2.988566e-01 -1.774046e+01 -8.017423e-02 -2.489769e+01 -5.427843e-01 -3.211947e+01 -8.468693e-01 -3.932493e+01 -1.030638e+00 -4.637838e+01 -9.406025e-01 -5.298352e+01 -6.608408e-01 -5.940389e+01 -3.173458e-01 -6.577573e+01 4.217339e-02 -7.211710e+01 3.999817e-01 -7.841234e+01 7.479854e-01 -8.464011e+01 1.079174e+00 -9.078060e+01 
7.534282e-01 -9.969696e+01 1.029259e+00 -1.059433e+02 1.261902e+00 1.079237e+02 1.581131e+00 1.017764e+02 1.887675e+00 9.558511e+01 2.209710e+00 8.930929e+01 2.552290e+00 8.291415e+01 2.859333e+00 7.633543e+01 2.925478e+00 6.933823e+01 2.886941e+00 6.226614e+01 2.719149e+00 5.516938e+01 2.393759e+00 4.795874e+01 2.090639e+00 4.061197e+01 1.878834e+00 3.319968e+01 1.691475e+00 2.586356e+01 1.426463e+00 1.861510e+01 1.063344e+00 1.136355e+01 6.971490e-01 3.991702e+00 4.256177e-01 -3.487744e+00 2.252518e-01 -1.092787e+01 -3.974878e-02 -1.827243e+01 -4.355077e-01 -2.556171e+01 -8.946792e-01 -3.290038e+01 -1.222548e+00 -4.020846e+01 -1.432749e+00 -4.735829e+01 -1.395201e+00 -5.414647e+01 -1.179161e+00 -6.075528e+01 -8.886533e-01 -6.732769e+01 -5.659717e-01 -7.389239e+01 -2.293397e-01 -8.043622e+01 1.106004e-01 -8.693426e+01 4.427714e-01 -9.336069e+01 
1.152649e+00 -9.917638e+01 1.348573e+00 -1.057245e+02 1.495671e+00 1.084150e+02 1.784012e+00 1.019378e+02 2.048505e+00 9.551039e+01 2.315771e+00 8.908213e+01 2.598484e+00 8.260897e+01 2.868220e+00 7.602394e+01 2.911332e+00 6.900400e+01 2.819034e+00 6.197558e+01 2.639031e+00 5.494404e+01 2.310753e+00 4.778488e+01 2.049068e+00 4.048456e+01 1.903799e+00 3.312446e+01 1.765421e+00 2.586518e+01 1.541680e+00 1.870689e+01 1.219419e+00 1.154012e+01 9.146054e-01 4.245756e+00 7.123255e-01 -3.157135e+00 5.667535e-01 -1.049188e+01 3.361970e-01 -1.771902e+01 -3.113760e-02 -2.489634e+01 -4.479920e-01 -3.216893e+01 -6.960555e-01 -3.943953e+01 -8.442178e-01 -4.658350e+01 -8.136603e-01 -5.330816e+01 -5.536756e-01 -5.988623e+01 -2.469199e-01 -6.644707e+01 6.389623e-02 -7.300827e+01 3.656646e-01 -7.956530e+01 6.522044e-01 -8.611196e+01 9.172996e-01 -9.264651e+01 
5.529616e-01 -1.018331e+02 7.485529e-01 -1.086394e+02 8.949724e-01 1.106198e+02 1.276040e+00 1.038827e+02 1.626843e+00 9.720323e+01 1.971794e+00 9.053666e+01 2.326490e+00 8.385074e+01 2.686042e+00 7.711382e+01 2.813711e+00 6.983327e+01 2.699009e+00 6.267476e+01 2.549138e+00 5.552238e+01 2.186874e+00 4.823866e+01 1.921167e+00 4.081178e+01 1.791209e+00 3.331895e+01 1.635662e+00 2.595694e+01 1.375297e+00 1.871436e+01 9.968942e-01 1.146374e+01 6.568429e-01 4.061451e+00 4.456368e-01 -3.479062e+00 2.958065e-01 -1.093422e+01 4.051195e-02 -1.826356e+01 -3.711377e-01 -2.552489e+01 -8.431946e-01 -3.292237e+01 -1.099669e+00 -4.034066e+01 -1.268147e+00 -4.771254e+01 -1.326165e+00 -5.447851e+01 -1.059344e+00 -6.120134e+01 -7.771088e-01 -6.794440e+01 -4.931413e-01 -7.470862e+01 -2.120062e-01 -8.148606e+01 6.159263e-02 -8.826794e+01 3.200540e-01 -9.504904e+01 
9.333887e-01 -1.014782e+02 1.054355e+00 -1.085720e+02 1.117780e+00 1.112601e+02 1.468265e+00 1.042138e+02 1.778561e+00 9.730248e+01 2.074876e+00 9.048662e+01 2.389266e+00 8.376677e+01 2.802597e+00 7.723398e+01 3.062664e+00 6.952337e+01 2.746212e+00 6.243769e+01 2.618342e+00 5.540555e+01 2.103639e+00 4.818697e+01 1.861942e+00 4.075672e+01 1.887863e+00 3.320244e+01 1.810554e+00 2.590841e+01 1.568393e+00 1.882055e+01 1.123144e+00 1.174012e+01 8.071786e-01 4.408128e+00 7.206313e-01 -3.178461e+00 7.164265e-01 -1.057460e+01 5.060508e-01 -1.776610e+01 3.621287e-02 -2.482335e+01 -5.275989e-01 -3.220485e+01 -6.568854e-01 -3.967125e+01 -6.564467e-01 -4.731205e+01 -1.039444e+00 -5.369965e+01 -5.301526e-01 -6.036123e+01 -1.900598e-01 -6.710903e+01 9.014616e-02 -7.389652e+01 3.407800e-01 -8.071837e+01 5.676765e-01 -8.757960e+01 7.677165e-01 -9.449233e+01 
3.611061e-01 -1.039149e+02 4.744290e-01 -1.112304e+02 5.285935e-01 1.132350e+02 9.584238e-01 1.059645e+02 1.340542e+00 9.883681e+01 1.697799e+00 9.181760e+01 2.057446e+00 8.491364e+01 2.492719e+00 7.820744e+01 2.785712e+00 7.031638e+01 2.555136e+00 6.307835e+01 2.454033e+00 5.591262e+01 1.972673e+00 4.857984e+01 1.732654e+00 4.104623e+01 1.736791e+00 3.339339e+01 1.636164e+00 2.599599e+01 1.374318e+00 1.880178e+01 9.140195e-01 1.161644e+01 5.768907e-01 4.186581e+00 4.628613e-01 -3.492405e+00 4.320500e-01 -1.098918e+01 2.022233e-01 -1.828925e+01 -2.813074e-01 -2.545916e+01 -8.580768e-01 -3.294351e+01 -1.005671e+00 -4.051203e+01 -1.032896e+00 -4.824082e+01 -1.466092e+00 -5.477942e+01 -9.881328e-01 -6.160942e+01 -6.777738e-01 -6.853331e+01 -4.244277e-01 -7.550561e+01 -1.954375e-01 -8.252209e+01 1.541393e-02 -8.958726e+01 2.039902e-01 -9.671165e+01 
7.277231e-01 -1.036468e+02 7.727391e-01 -1.112285e+02 7.507549e-01 1.139375e+02 1.150118e+00 1.063800e+02 1.493331e+00 9.901874e+01 1.801258e+00 9.180509e+01 2.091289e+00 8.470197e+01 2.371651e+00 7.766076e+01 2.472071e+00 7.015283e+01 2.426496e+00 6.286399e+01 2.315932e+00 5.563502e+01 2.039456e+00 4.832650e+01 1.842917e+00 4.091524e+01 1.758768e+00 3.346040e+01 1.651136e+00 2.613081e+01 1.458473e+00 1.891409e+01 1.169821e+00 1.169995e+01 9.159267e-01 4.366349e+00 7.702651e-01 -3.077475e+00 6.741432e-01 -1.044280e+01 4.870026e-01 -1.770324e+01 1.700893e-01 -2.491335e+01 -1.927738e-01 -3.225708e+01 -3.570277e-01 -3.964019e+01 -4.672458e-01 -4.699633e+01 -5.429648e-01 -5.388051e+01 -3.010753e-01 -6.078182e+01 -6.945603e-02 -6.773634e+01 1.413869e-01 -7.474733e+01 3.307470e-01 -8.182416e+01 4.960926e-01 -8.898280e+01 6.314594e-01 -9.624631e+01 
1.810760e-01 -1.058630e+02 2.142335e-01 -1.136315e+02 1.786056e-01 1.156712e+02 6.458003e-01 1.079224e+02 1.050463e+00 1.003719e+02 1.411240e+00 9.296885e+01 1.742225e+00 8.566652e+01 2.040648e+00 7.839772e+01 2.161637e+00 7.088014e+01 2.156240e+00 6.344888e+01 2.067719e+00 5.607885e+01 1.851920e+00 4.865202e+01 1.673650e+00 4.115368e+01 1.562109e+00 3.363899e+01 1.429554e+00 2.622096e+01 1.224510e+00 1.888729e+01 9.485199e-01 1.154833e+01 6.943506e-01 4.119294e+00 5.154510e-01 -3.383916e+00 3.701327e-01 -1.082701e+01 1.586812e-01 -1.819267e+01 -1.459209e-01 -2.553056e+01 -4.730355e-01 -3.296022e+01 -6.621051e-01 -4.040849e+01 -7.955412e-01 -4.779599e+01 -8.403185e-01 -5.490556e+01 -6.917401e-01 -6.197137e+01 -5.125022e-01 -6.908395e+01 -3.358227e-01 -7.625748e+01 -1.709571e-01 -8.350298e+01 -2.399126e-02 -9.083615e+01 9.699977e-02 -9.827911e+01 
5.394470e-01 -1.056197e+02 5.111546e-01 -1.136285e+02 4.070667e-01 1.163696e+02 8.441237e-01 1.083617e+02 1.210977e+00 1.005938e+02 1.523695e+00 9.300816e+01 1.790472e+00 8.554774e+01 2.000816e+00 7.814482e+01 2.085716e+00 7.068294e+01 2.096152e+00 6.326209e+01 2.034145e+00 5.588374e+01 1.895129e+00 4.849215e+01 1.757180e+00 4.107656e+01 1.645110e+00 3.366660e+01 1.525602e+00 2.631353e+01 1.367963e+00 1.901120e+01 1.171672e+00 1.171135e+01 9.783916e-01 4.370921e+00 8.196166e-01 -3.000774e+00 6.792369e-01 -1.034315e+01 5.092247e-01 -1.764516e+01 2.942748e-01 -2.493474e+01 7.214170e-02 -3.226220e+01 -7.844123e-02 -3.959149e+01 -1.725892e-01 -4.687600e+01 -1.633143e-01 -5.403227e+01 -6.248209e-02 -6.115275e+01 7.033673e-02 -6.830794e+01 2.072212e-01 -7.552977e+01 3.330738e-01 -8.284250e+01 4.374157e-01 -9.027239e+01 5.101066e-01 -9.785136e+01 
1.702978e-02 -1.076155e+02 -2.495212e-02 -1.157771e+02 -1.445248e-01 1.178553e+02 3.505950e-01 1.096900e+02 7.699309e-01 1.017652e+02 1.127694e+00 9.402342e+01 1.429810e+00 8.640917e+01 1.664254e+00 7.886283e+01 1.782064e+00 7.130313e+01 1.820020e+00 6.377498e+01 1.781814e+00 5.628532e+01 1.672786e+00 4.879325e+01 1.548830e+00 4.129110e+01 1.431178e+00 3.380261e+01 1.299578e+00 2.636205e+01 1.132813e+00 1.896168e+01 9.335430e-01 1.156273e+01 7.331991e-01 4.134304e+00 5.553836e-01 -3.314290e+00 3.893170e-01 -1.074005e+01 2.018209e-01 -1.813601e+01 -1.617734e-02 -2.552497e+01 -2.336917e-01 -3.293923e+01 -3.944985e-01 -4.035090e+01 -4.990040e-01 -4.772328e+01 -5.125183e-01 -5.501538e+01 -4.503398e-01 -6.227717e+01 -3.529742e-01 -6.957210e+01 -2.450037e-01 -7.693504e+01 -1.420791e-01 -8.439163e+01 -5.608280e-02 -9.196819e+01 1.359035e-03 -9.969619e+01 
3.724342e-01 -1.073470e+02 2.763164e-01 -1.157204e+02 9.653737e-02 1.184980e+02 5.623706e-01 1.101062e+02 9.464514e-01 1.019905e+02 1.262293e+00 9.409153e+01 1.515887e+00 8.635308e+01 1.701448e+00 7.872088e+01 1.800393e+00 7.114305e+01 1.836659e+00 6.361699e+01 1.814315e+00 5.613737e+01 1.741068e+00 4.868100e+01 1.647062e+00 4.123993e+01 1.548170e+00 3.382316e+01 1.438829e+00 2.644404e+01 1.308712e+00 1.909618e+01 1.158767e+00 1.175745e+01 1.004299e+00 4.410190e+00 8.591378e-01 -2.942602e+00 7.204112e-01 -1.028254e+01 5.732570e-01 -1.760684e+01 4.138908e-01 -2.492808e+01 2.600070e-01 -3.226121e+01 1.430116e-01 -3.959434e+01 7.376979e-02 -4.691115e+01 7.355218e-02 -5.419665e+01 1.212881e-01 -6.148101e+01 1.935316e-01 -6.880950e+01 2.719169e-01 -7.621847e+01 3.417039e-01 -8.374022e+01 3.902249e-01 -9.140844e+01 4.050355e-01 -9.926190e+01 
-1.269079e-01 -1.091237e+02 -2.366475e-01 -1.176162e+02 -4.318098e-01 1.197322e+02 8.381080e-02 1.112178e+02 5.129579e-01 1.029792e+02 8.680372e-01 9.495813e+01 1.154374e+00 8.710090e+01 1.367459e+00 7.935727e+01 1.495729e+00 7.168101e+01 1.556251e+00 6.406054e+01 1.554656e+00 5.648765e+01 1.500503e+00 4.894324e+01 1.417368e+00 4.142001e+01 1.319178e+00 3.392369e+01 1.204382e+00 2.646189e+01 1.067426e+00 1.902745e+01 9.110031e-01 1.160207e+01 7.477860e-01 4.172146e+00 5.889730e-01 -3.260023e+00 4.336283e-01 -1.068183e+01 2.724685e-01 -1.809215e+01 1.045924e-01 -2.550118e+01 -5.486097e-02 -3.291911e+01 -1.814610e-01 -4.033767e+01 -2.635290e-01 -4.774619e+01 -2.866683e-01 -5.513995e+01 -2.653005e-01 -6.254097e+01 -2.187381e-01 -6.998804e+01 -1.633224e-01 -7.751622e+01 -1.131724e-01 -8.515766e+01 -8.128123e-02 -9.294582e+01 -8.092222e-02 -1.009191e+02 
2.303785e-01 -1.087899e+02 7.417597e-02 -1.174636e+02 -1.724176e-01 1.202770e+02 3.147846e-01 1.115704e+02 7.116056e-01 1.031704e+02 1.031173e+00 9.501877e+01 1.280992e+00 8.706187e+01 1.462481e+00 7.925146e+01 1.574887e+00 7.154640e+01 1.630651e+00 6.392288e+01 1.636723e+00 5.636441e+01 1.601609e+00 4.885385e+01 1.540102e+00 4.138130e+01 1.462649e+00 3.394453e+01 1.371365e+00 2.654278e+01 1.264850e+00 1.916870e+01 1.145119e+00 1.180975e+01 1.019226e+00 4.456057e+00 8.941808e-01 -2.894009e+00 7.712100e-01 -1.023699e+01 6.472130e-01 -1.757444e+01 5.231011e-01 -2.491356e+01 4.084171e-01 -3.226150e+01 3.181335e-01 -3.961764e+01 2.622661e-01 -4.698089e+01 2.481999e-01 -5.435478e+01 2.641829e-01 -6.175950e+01 2.959186e-01 -6.922731e+01 3.299770e-01 -7.679251e+01 3.535366e-01 -8.449033e+01 3.539258e-01 -9.235895e+01 3.178329e-01 -1.004418e+02 
-2.468195e-01 -1.103503e+02 -4.150419e-01 -1.191097e+02 -6.752336e-01 1.212580e+02 -1.454059e-01 1.124638e+02 2.902686e-01 1.039743e+02 6.443603e-01 9.573232e+01 9.243311e-01 8.768576e+01 1.132591e+00 7.978820e+01 1.270377e+00 7.200004e+01 1.347636e+00 6.429607e+01 1.371515e+00 5.665848e+01 1.350727e+00 4.907089e+01 1.297991e+00 4.152328e+01 1.222930e+00 3.401183e+01 1.129085e+00 2.653377e+01 1.017288e+00 1.908151e+01 8.907293e-01 1.164400e+01 7.560605e-01 4.212836e+00 6.196748e-01 -3.213986e+00 4.837167e-01 -1.063491e+01 3.473300e-01 -1.805208e+01 2.127435e-01 -2.547182e+01 8.858712e-02 -3.290009e+01 -1.276774e-02 -4.033782e+01 -8.251859e-02 -4.778643e+01 -1.155461e-01 -5.525239e+01 -1.201015e-01 -6.275389e+01 -1.083643e-01 -7.031984e+01 -9.264958e-02 -7.798266e+01 -8.528607e-02 -8.577663e+01 -9.900754e-02 -9.373929e+01 -1.476213e-01 -1.019136e+02 
1.167185e-01 -1.099181e+02 -9.017417e-02 -1.188269e+02 -3.928236e-01 1.216689e+02 1.088613e-01 1.127174e+02 5.143161e-01 1.040970e+02 8.373726e-01 9.575065e+01 1.087768e+00 8.762637e+01 1.271717e+00 7.967802e+01 1.394673e+00 7.186634e+01 1.465681e+00 6.416165e+01 1.492311e+00 5.654155e+01 1.482401e+00 4.898775e+01 1.445290e+00 4.148721e+01 1.388578e+00 3.403142e+01 1.316347e+00 2.661344e+01 1.230617e+00 1.922476e+01 1.134121e+00 1.185573e+01 1.031241e+00 4.498396e+00 9.264024e-01 -2.851692e+00 8.220162e-01 -1.019705e+01 7.189707e-01 -1.754183e+01 6.196723e-01 -2.489240e+01 5.299183e-01 -3.225539e+01 4.575346e-01 -3.963592e+01 4.083719e-01 -4.704037e+01 3.844032e-01 -5.447936e+01 3.788017e-01 -6.197211e+01 3.815971e-01 -6.954611e+01 3.820066e-01 -7.723374e+01 3.686502e-01 -8.507110e+01 3.293170e-01 -9.309874e+01 2.504935e-01 -1.013631e+02 
-3.391492e-01 -1.112668e+02 -5.552427e-01 -1.202282e+02 -8.682947e-01 1.223972e+02 -3.303632e-01 1.133929e+02 1.084991e-01 1.047156e+02 4.618135e-01 9.630886e+01 7.393387e-01 8.812177e+01 9.476934e-01 8.010922e+01 1.092740e+00 7.223282e+01 1.182556e+00 6.446304e+01 1.224481e+00 5.677723e+01 1.226193e+00 4.915733e+01 1.196306e+00 4.159017e+01 1.142135e+00 3.406669e+01 1.068386e+00 2.657930e+01 9.781837e-01 1.911957e+01 8.750731e-01 1.167857e+01 7.636737e-01 4.249030e+00 6.485053e-01 -3.173509e+00 5.325648e-01 -1.059206e+01 4.177721e-01 -1.801088e+01 3.071886e-01 -2.543590e+01 2.063172e-01 -3.287340e+01 1.219366e-01 -4.032900e+01 5.906389e-02 -4.780998e+01 1.910262e-02 -5.532768e+01 -3.185578e-03 -6.290039e+01 -1.645565e-02 -7.055370e+01 -3.072942e-02 -7.831831e+01 -5.703581e-02 -8.622910e+01 -1.075998e-01 -9.432566e+01 -1.962766e-01 -1.026537e+02 
3.446331e-02 -1.107092e+02 -2.126681e-01 -1.197873e+02 -5.593852e-01 1.226437e+02 -5.029317e-02 1.135172e+02 3.590979e-01 1.047397e+02 6.836052e-01 9.625499e+01 9.348174e-01 8.801216e+01 1.121678e+00 7.996583e+01 1.252055e+00 7.207695e+01 1.334217e+00 6.431369e+01 1.375655e+00 5.665059e+01 1.383516e+00 4.906725e+01 1.364936e+00 4.154786e+01 1.326031e+00 3.408028e+01 1.271197e+00 2.665435e+01 1.203599e+00 1.926045e+01 1.126281e+00 1.188938e+01 1.042682e+00 4.533246e+00 9.561781e-01 -2.814133e+00 8.693814e-01 -1.015805e+01 7.843294e-01 -1.750441e+01 7.035765e-01 -2.486020e+01 6.308551e-01 -3.223314e+01 5.703681e-01 -3.963152e+01 5.249249e-01 -4.706563e+01 4.943256e-01 -5.454946e+01 4.737478e-01 -6.210276e+01 4.555808e-01 -6.975149e+01 4.307021e-01 -7.752698e+01 3.887679e-01 -8.546548e+01 3.180736e-01 -9.360868e+01 2.051938e-01 -1.020046e+02 
-4.009357e-01 -1.118532e+02 -6.534986e-01 -1.209504e+02 -1.006294e+00 1.231223e+02 -4.667585e-01 1.139777e+02 -2.889003e-02 1.051752e+02 3.218719e-01 9.665917e+01 5.970317e-01 8.837931e+01 8.055478e-01 8.029108e+01 9.551944e-01 7.235629e+01 1.053722e+00 6.454367e+01 1.108300e+00 5.682813e+01 1.125841e+00 4.918964e+01 1.113177e+00 4.161262e+01 1.076347e+00 3.408496e+01 1.020092e+00 2.659655e+01 9.482016e-01 1.913810e+01 8.643063e-01 1.170097e+01 7.722390e-01 4.277815e+00 6.756964e-01 -3.137277e+00 5.777576e-01 -1.054949e+01 4.810503e-01 -1.796450e+01 3.885355e-01 -2.538888e+01 3.039311e-01 -3.283000e+01 2.310827e-01 -4.029607e+01 1.724835e-01 -4.779741e+01 1.279339e-01 -5.534781e+01 9.343528e-02 -6.296615e+01 6.222165e-02 -7.067695e+01 2.573727e-02 -7.851001e+01 -2.608249e-02 -8.650021e+01 -1.049360e-01 -9.468804e+01 -2.245013e-01 -1.031206e+02 
-1.402431e-02 -1.111478e+02 -2.903901e-01 -1.203288e+02 -6.685340e-01 1.231794e+02 -1.596492e-01 1.139473e+02 2.480645e-01 1.050755e+02 5.703159e-01 9.650840e+01 8.199940e-01 8.819553e+01 1.007548e+00 8.009196e+01 1.141925e+00 7.215873e+01 1.231288e+00 6.436305e+01 1.282918e+00 5.667795e+01 1.303421e+00 4.908144e+01 1.298869e+00 4.155584e+01 1.274521e+00 3.408691e+01 1.234608e+00 2.666272e+01 1.182538e+00 1.927276e+01 1.121373e+00 1.190761e+01 1.054111e+00 4.558990e+00 9.835930e-01 -2.780325e+00 9.122860e-01 -1.011708e+01 8.423495e-01 -1.745831e+01 7.760012e-01 -2.481185e+01 7.156766e-01 -3.218649e+01 6.635850e-01 -3.959235e+01 6.207344e-01 -4.704177e+01 5.859522e-01 -5.455045e+01 5.552289e-01 -6.213865e+01 5.222678e-01 -6.983181e+01 4.790619e-01 -7.766059e+01 4.160677e-01 -8.566109e+01 3.220811e-01 -9.387528e+01 1.839221e-01 -1.023519e+02 
-4.300308e-01 -1.120964e+02 -7.073178e-01 -1.212631e+02 -1.086330e+00 1.234147e+02 -5.523173e-01 1.141991e+02 -1.206185e-01 1.053339e+02 2.241807e-01 9.676371e+01 4.947506e-01 8.843875e+01 7.013191e-01 8.031491e+01 8.525351e-01 7.235414e+01 9.561356e-01 6.452456e+01 1.019052e+00 5.679994e+01 1.047635e+00 4.915900e+01 1.047773e+00 4.158469e+01 1.024718e+00 3.406324e+01 9.829323e-01 2.658321e+01 9.262425e-01 1.913466e+01 8.581715e-01 1.170883e+01 7.821336e-01 4.298056e+00 7.013567e-01 -3.104363e+00 6.187279e-01 -1.050472e+01 5.368457e-01 -1.790955e+01 4.582660e-01 -2.532613e+01 3.855710e-01 -3.276271e+01 3.209671e-01 -4.022890e+01 2.654850e-01 -4.773656e+01 2.181732e-01 -5.530067e+01 1.755743e-01 -6.294046e+01 1.319921e-01 -7.067992e+01 7.987358e-02 -7.854820e+01 9.924883e-03 -8.657980e+01 -8.902534e-02 -9.481529e+01 -2.303410e-01 -1.033022e+02 
-2.720416e-02 -1.112249e+02 -3.216336e-01 -1.204422e+02 -7.183515e-01 1.232618e+02 -2.179108e-01 1.139936e+02 1.816378e-01 1.050902e+02 4.966830e-01 9.649626e+01 7.409519e-01 8.816180e+01 9.257068e-01 8.004230e+01 1.060396e+00 7.209902e+01 1.153158e+00 6.429899e+01 1.211033e+00 5.661465e+01 1.240175e+00 4.902324e+01 1.246000e+00 4.150616e+01 1.233175e+00 3.404811e+01 1.205612e+00 2.663631e+01 1.166599e+00 1.925979e+01 1.119038e+00 1.190889e+01 1.065609e+00 4.575068e+00 1.008779e+00 -2.749435e+00 9.507416e-01 -1.007207e+01 8.934357e-01 -1.740051e+01 8.386303e-01 -2.474315e+01 7.878978e-01 -3.210945e+01 7.423045e-01 -3.951046e+01 7.018546e-01 -4.695947e+01 6.649175e-01 -5.447291e+01 6.278718e-01 -6.207115e+01 5.852085e-01 -6.977917e+01 5.297206e-01 -7.762702e+01 4.525342e-01 -8.565021e+01 3.429556e-01 -9.389045e+01 1.881672e-01 -1.023964e+02 
-4.252523e-01 -1.119901e+02 -7.155073e-01 -1.211597e+02 -1.107182e+00 1.232641e+02 -5.864441e-01 1.140471e+02 -1.669391e-01 1.051813e+02 1.673474e-01 9.661185e+01 4.297888e-01 8.828934e+01 6.312576e-01 8.017023e+01 7.807664e-01 7.221693e+01 8.859928e-01 6.439765e+01 9.535832e-01 5.668597e+01 9.894064e-01 4.906024e+01 9.987177e-01 4.150281e+01 9.861893e-01 3.399928e+01 9.559199e-01 2.653771e+01 9.115331e-01 1.910792e+01 8.563362e-01 1.170110e+01 7.934249e-01 4.309470e+00 7.256762e-01 -3.073985e+00 6.556953e-01 -1.045600e+01 5.858178e-01 -1.784353e+01 5.181539e-01 -2.524419e+01 4.545317e-01 -3.266666e+01 3.962170e-01 -4.012118e+01 3.434424e-01 -4.762016e+01 2.949177e-01 -5.517899e+01 2.475031e-01 -6.281673e+01 1.961931e-01 -7.055681e+01 1.341891e-01 -7.842750e+01 5.286855e-02 -8.646255e+01 -5.839376e-02 -9.470187e+01 -2.125386e-01 -1.031926e+02 