# vtk DataFile Version 2.0
Comment goes here
ASCII

DATASET STRUCTURED_POINTS
FIELD FieldData 1
TIME 1 1 double
0.06700000
DIMENSIONS    64   64   1

ORIGIN    0.000   0.000   0.000
SPACING   0.03125 0.03125   1.000

POINT_DATA   4096
VECTORS u double

0.525158 -0.019925 0.000000 -1.665135 0.005589 0.000000 0.321695 0.005201 0.000000 -1.510703 -0.003354 0.000000 -0.039649 -0.005284 0.000000 -1.349525 -0.004655 0.000000 0.079584 0.009851 0.000000 -1.187082 -0.004275 0.000000 0.144379 0.006558 0.000000 -1.122828 -0.007098 0.000000 0.209051 0.004081 0.000000 -1.105408 -0.010626 0.000000 0.259021 0.000437 0.000000 -1.073653 -0.014415 0.000000 0.255241 -0.003175 0.000000 -0.983836 -0.016110 0.000000 0.181298 0.001522 0.000000 -0.833333 -0.015283 0.000000 0.056558 0.005939 0.000000 -0.653581 -0.007329 0.000000 -0.101448 0.005727 0.000000 -0.460759 -0.005447 0.000000 -0.277351 0.011153 0.000000 -0.260110 -0.008281 0.000000 -0.465996 0.012954 0.000000 -0.053756 -0.007122 0.000000 -0.665318 0.013928 0.000000 0.161802 -0.005098 0.000000 -0.868660 0.008540 0.000000 0.366295 -0.007773 0.000000 -1.043131 0.004409 0.000000 0.533479 -0.007967 0.000000 -1.167728 0.005927 0.000000 0.648714 -0.008907 0.000000 -1.244719 0.008721 0.000000 0.722896 -0.005927 0.000000 -1.294675 0.009340 0.000000 0.775669 -0.002993 0.000000 -1.331111 0.005110 0.000000 0.810729 -0.003058 0.000000 -1.342416 0.000541 0.000000 0.810202 -0.001723 0.000000 -1.310563 0.002543 0.000000 0.753595 -0.000984 0.000000 -1.221918 0.008984 0.000000 0.632280 0.005479 0.000000 -1.080564 0.016836 0.000000 0.451587 0.012741 0.000000 -0.892191 0.019757 0.000000 0.212911 0.018210 0.000000 -0.654945 0.006932 0.000000 -0.080614 0.014814 0.000000 -0.388205 -0.000389 0.000000 -0.400037 0.008262 0.000000 -0.122692 -0.003259 0.000000 -0.706754 0.003581 0.000000 0.115120 -0.004420 0.000000 -0.992459 0.001460 0.000000 0.332021 -0.005211 0.000000 -1.272949 0.001206 0.000000 0.526384 -0.005780 0.000000 -1.530892 0.000956 0.000000 0.663241 -0.006365 0.000000 -1.727076 0.006101 0.000000 
-0.284179 -0.048006 0.000000 0.364770 0.098189 0.000000 -0.112746 -0.075105 0.000000 0.296752 0.175428 0.000000 0.248761 -0.067005 0.000000 0.209916 -0.065659 0.000000 -0.050885 -0.078216 0.000000 0.086721 -0.039406 0.000000 -0.214137 -0.025355 0.000000 0.044820 -0.038801 0.000000 -0.334531 0.000809 0.000000 0.035734 -0.030422 0.000000 -0.427085 -0.003379 0.000000 0.013619 -0.002254 0.000000 -0.480313 -0.030067 0.000000 -0.051662 0.032518 0.000000 -0.490574 -0.065076 0.000000 -0.154438 0.055928 0.000000 -0.473613 -0.082161 0.000000 -0.259272 0.068143 0.000000 -0.421009 -0.087455 0.000000 -0.363617 0.076258 0.000000 -0.353669 -0.095078 0.000000 -0.463016 0.086143 0.000000 -0.274236 -0.098840 0.000000 -0.562132 0.090423 0.000000 -0.184640 -0.103784 0.000000 -0.668009 0.090643 0.000000 -0.088490 -0.093695 0.000000 -0.770594 0.078708 0.000000 -0.015062 -0.073282 0.000000 -0.854706 0.054971 0.000000 0.026196 -0.049676 0.000000 -0.909310 0.033151 0.000000 0.045926 -0.033047 0.000000 -0.943752 0.019730 0.000000 0.061531 -0.024369 0.000000 -0.968394 0.011711 0.000000 0.075352 -0.013052 0.000000 -0.987785 0.000215 0.000000 0.074169 0.006147 0.000000 -0.989726 -0.020396 0.000000 0.047470 0.029916 0.000000 -0.956552 -0.046926 0.000000 -0.005565 0.053838 0.000000 -0.884185 -0.073938 0.000000 -0.070976 0.073910 0.000000 -0.771390 -0.100734 0.000000 -0.153964 0.099409 0.000000 -0.619225 -0.129086 0.000000 -0.261427 0.137627 0.000000 -0.433010 -0.138169 0.000000 -0.373927 0.156131 0.000000 -0.232206 -0.131428 0.000000 -0.483337 0.151280 0.000000 -0.044307 -0.114232 0.000000 -0.573172 0.140737 0.000000 0.124855 -0.102146 0.000000 -0.643717 0.137466 0.000000 0.286808 -0.090019 0.000000 -0.686224 0.125302 0.000000 0.424698 -0.060023 0.000000 -0.663868 0.092952 0.000000 0.495856 0.077554 0.000000 
1.730944 0.111161 0.000000 0.577168 -0.165845 0.000000 1.369534 0.073219 0.000000 0.490168 -0.364861 0.000000 1.032108 0.081552 0.000000 0.380112 0.294992 0.000000 1.743054 0.133046 0.000000 0.389101 0.158977 0.000000 2.131883 0.048459 0.000000 0.370351 0.113295 0.000000 2.373963 0.013167 0.000000 0.358494 0.081929 0.000000 2.555683 0.022553 0.000000 0.351095 0.038813 0.000000 2.740726 0.062106 0.000000 0.336583 -0.005849 0.000000 2.953695 0.104298 0.000000 0.303648 -0.032244 0.000000 3.188655 0.110773 0.000000 0.225804 -0.059932 0.000000 3.372878 0.110072 0.000000 0.126381 -0.072787 0.000000 3.547154 0.110552 0.000000 0.001616 -0.087714 0.000000 3.701369 0.112070 0.000000 -0.123882 -0.096718 0.000000 3.842919 0.119804 0.000000 -0.251898 -0.101248 0.000000 3.978460 0.111125 0.000000 -0.365563 -0.081201 0.000000 4.110553 0.088521 0.000000 -0.440815 -0.049225 0.000000 4.218394 0.060531 0.000000 -0.482300 -0.028636 0.000000 4.286422 0.043163 0.000000 -0.501218 -0.021533 0.000000 4.314993 0.033981 0.000000 -0.508468 -0.016813 0.000000 4.323334 0.024501 0.000000 -0.499459 -0.001875 0.000000 4.326537 0.002482 0.000000 -0.465526 0.024976 0.000000 4.305241 -0.030632 0.000000 -0.403281 0.052051 0.000000 4.234489 -0.063383 0.000000 -0.319915 0.070889 0.000000 4.090661 -0.095959 0.000000 -0.229938 0.095729 0.000000 3.884039 -0.132409 0.000000 -0.122199 0.125673 0.000000 3.639140 -0.179282 0.000000 0.009550 0.127314 0.000000 3.337338 -0.201194 0.000000 0.158687 0.117673 0.000000 3.030430 -0.191157 0.000000 0.301448 0.093416 0.000000 2.743120 -0.173582 0.000000 0.435788 0.072004 0.000000 2.454258 -0.167164 0.000000 0.572244 0.043713 0.000000 2.143433 -0.143670 0.000000 0.701743 -0.021400 0.000000 1.810186 -0.077523 0.000000 0.773526 -0.373588 0.000000 
3.730967 0.148352 0.000000 -0.071641 0.459598 0.000000 2.880502 0.011895 0.000000 -0.316621 0.512854 0.000000 1.458164 0.043051 0.000000 -0.241984 -0.776605 0.000000 3.210173 -0.087204 0.000000 -0.143597 -0.428235 0.000000 4.104895 -0.006605 0.000000 -0.138636 -0.280881 0.000000 4.712917 0.012666 0.000000 -0.156392 -0.212141 0.000000 5.191385 0.004021 0.000000 -0.140151 -0.187297 0.000000 5.596194 -0.015555 0.000000 -0.033071 -0.180451 0.000000 5.927184 -0.032141 0.000000 0.201905 -0.179032 0.000000 6.213569 -0.004318 0.000000 0.355471 -0.116080 0.000000 6.347845 0.011969 0.000000 0.434610 -0.098019 0.000000 6.471350 0.029686 0.000000 0.485052 -0.068072 0.000000 6.550610 0.026659 0.000000 0.525400 -0.051127 0.000000 6.578271 0.024232 0.000000 0.576659 -0.044898 0.000000 6.577107 0.019971 0.000000 0.624684 -0.053385 0.000000 6.593275 0.001970 0.000000 0.661541 -0.052870 0.000000 6.646713 -0.008191 0.000000 0.679963 -0.034877 0.000000 6.701906 -0.014130 0.000000 0.690751 -0.008841 0.000000 6.706215 -0.017119 0.000000 0.707979 0.003370 0.000000 6.672691 -0.022062 0.000000 0.741179 -0.002987 0.000000 6.640177 -0.027786 0.000000 0.774806 0.000900 0.000000 6.628355 -0.032328 0.000000 0.796625 0.023826 0.000000 6.625241 -0.029529 0.000000 0.793606 0.069891 0.000000 6.565847 -0.016067 0.000000 0.748632 0.105887 0.000000 6.438799 -0.008329 0.000000 0.670412 0.115812 0.000000 6.222281 0.005878 0.000000 0.538391 0.163634 0.000000 6.010129 0.006994 0.000000 0.401042 0.175480 0.000000 5.806501 0.008519 0.000000 0.290986 0.173079 0.000000 5.588149 0.006397 0.000000 0.214865 0.186715 0.000000 5.333080 0.001010 0.000000 0.145563 0.220806 0.000000 5.011614 -0.004197 0.000000 0.068865 0.273225 0.000000 4.575223 0.021169 0.000000 -0.016298 0.156796 0.000000 
3.860367 0.166504 0.000000 0.091670 0.684620 0.000000 3.148690 0.318200 0.000000 -0.185834 1.057478 0.000000 2.025307 0.006915 0.000000 -0.153379 -1.457018 0.000000 3.300982 0.034658 0.000000 -0.204525 -0.735745 0.000000 4.136376 0.043499 0.000000 -0.198036 -0.494726 0.000000 4.728635 0.030923 0.000000 -0.201362 -0.396540 0.000000 5.199938 0.006312 0.000000 -0.194098 -0.365996 0.000000 5.619140 -0.044974 0.000000 -0.093511 -0.336839 0.000000 5.961411 -0.130678 0.000000 0.271732 -0.318629 0.000000 6.300053 -0.042793 0.000000 0.436228 -0.194208 0.000000 6.428188 0.030933 0.000000 0.473434 -0.196292 0.000000 6.576780 0.060109 0.000000 0.510774 -0.166974 0.000000 6.659555 0.071723 0.000000 0.548196 -0.124379 0.000000 6.686415 0.068546 0.000000 0.592712 -0.100084 0.000000 6.694671 0.063101 0.000000 0.622222 -0.097368 0.000000 6.725421 0.051663 0.000000 0.624054 -0.102664 0.000000 6.796317 0.042109 0.000000 0.621950 -0.083829 0.000000 6.838467 0.032375 0.000000 0.645749 -0.025842 0.000000 6.815705 0.016753 0.000000 0.667514 0.016711 0.000000 6.767081 -0.008698 0.000000 0.696476 0.030639 0.000000 6.735650 -0.031146 0.000000 0.703283 0.036798 0.000000 6.736813 -0.052450 0.000000 0.705604 0.055165 0.000000 6.732707 -0.060364 0.000000 0.736675 0.130283 0.000000 6.629248 -0.050985 0.000000 0.747719 0.222778 0.000000 6.458086 -0.054188 0.000000 0.715761 0.342191 0.000000 6.288381 -0.047262 0.000000 0.603207 0.339466 0.000000 6.025837 -0.063844 0.000000 0.440511 0.321300 0.000000 5.781952 -0.081101 0.000000 0.330775 0.311768 0.000000 5.551707 -0.097462 0.000000 0.278478 0.327072 0.000000 5.290793 -0.097862 0.000000 0.246488 0.365179 0.000000 4.965393 -0.066972 0.000000 0.199164 0.414991 0.000000 4.554592 0.007640 0.000000 0.127000 0.470668 0.000000 
4.153656 0.183682 0.000000 -0.075440 1.171275 0.000000 3.466506 0.289399 0.000000 -0.144990 1.636237 0.000000 2.552480 0.010596 0.000000 -0.152782 -2.052280 0.000000 3.466534 -0.036058 0.000000 -0.157854 -1.263629 0.000000 4.260394 -0.013094 0.000000 -0.153089 -0.873140 0.000000 4.836672 0.015992 0.000000 -0.177806 -0.683445 0.000000 5.283458 -0.003243 0.000000 -0.239914 -0.606499 0.000000 5.711852 -0.116142 0.000000 -0.294895 -0.522722 0.000000 6.128723 -0.397384 0.000000 0.394918 -0.517675 0.000000 6.428579 -0.168814 0.000000 0.493487 -0.244215 0.000000 6.451841 -0.025237 0.000000 0.474395 -0.246611 0.000000 6.608648 -0.007654 0.000000 0.489944 -0.150847 0.000000 6.695837 -0.010763 0.000000 0.519344 -0.077986 0.000000 6.718857 -0.020285 0.000000 0.582492 -0.053155 0.000000 6.712337 -0.009539 0.000000 0.650373 -0.084134 0.000000 6.713874 0.000138 0.000000 0.686132 -0.123767 0.000000 6.772769 -0.006087 0.000000 0.672346 -0.077027 0.000000 6.837039 -0.037929 0.000000 0.682534 0.013921 0.000000 6.818284 -0.038883 0.000000 0.708067 0.051994 0.000000 6.768316 -0.051024 0.000000 0.772711 0.028444 0.000000 6.724310 -0.034593 0.000000 0.814578 -0.000263 0.000000 6.716805 -0.034649 0.000000 0.812106 0.027931 0.000000 6.759973 -0.060600 0.000000 0.817960 0.173351 0.000000 6.711742 -0.027111 0.000000 0.808277 0.277049 0.000000 6.584184 0.023629 0.000000 0.816330 0.285517 0.000000 6.246692 0.118432 0.000000 0.582603 0.426177 0.000000 6.005605 0.169690 0.000000 0.394127 0.419366 0.000000 5.820910 0.118254 0.000000 0.267620 0.403323 0.000000 5.641383 0.058694 0.000000 0.194755 0.447629 0.000000 5.420299 0.033000 0.000000 0.135402 0.546205 0.000000 5.125010 0.043127 0.000000 0.068081 0.684026 0.000000 4.721460 0.093334 0.000000 -0.013306 0.851020 0.000000 
4.350973 0.228637 0.000000 0.057312 1.371770 0.000000 3.804954 0.387750 0.000000 -0.012587 1.971504 0.000000 3.076625 0.014706 0.000000 -0.020468 -2.371073 0.000000 3.697782 0.039730 0.000000 -0.083391 -1.529605 0.000000 4.310754 0.038733 0.000000 -0.107406 -1.071004 0.000000 4.793687 0.055640 0.000000 -0.153381 -0.843327 0.000000 5.182597 0.068420 0.000000 -0.316659 -0.794390 0.000000 5.617935 0.010007 0.000000 -0.553328 -0.753710 0.000000 6.095143 -0.820491 0.000000 0.528484 -0.618485 0.000000 6.464069 -0.141362 0.000000 0.588935 -0.217471 0.000000 6.383946 0.050025 0.000000 0.411482 -0.353099 0.000000 6.622472 0.044560 0.000000 0.408203 -0.254163 0.000000 6.689503 0.042323 0.000000 0.490286 -0.147398 0.000000 6.694666 0.005398 0.000000 0.587780 -0.093565 0.000000 6.683129 -0.004780 0.000000 0.652743 -0.098906 0.000000 6.693744 0.015904 0.000000 0.618183 -0.161559 0.000000 6.824458 0.055895 0.000000 0.510086 -0.148099 0.000000 6.895827 0.022187 0.000000 0.607018 -0.007087 0.000000 6.826294 -0.008780 0.000000 0.652264 0.066679 0.000000 6.756761 -0.073342 0.000000 0.742644 0.074645 0.000000 6.715593 -0.073013 0.000000 0.728326 0.044303 0.000000 6.755866 -0.049979 0.000000 0.595211 0.011996 0.000000 6.869389 -0.066218 0.000000 0.657876 0.178515 0.000000 6.760759 -0.041302 0.000000 0.788284 0.350336 0.000000 6.516247 -0.062241 0.000000 1.045092 0.679682 0.000000 6.360905 0.186465 0.000000 0.662588 0.580553 0.000000 5.963917 0.124631 0.000000 0.297596 0.505995 0.000000 5.785245 0.045407 0.000000 0.218911 0.491296 0.000000 5.639307 -0.024597 0.000000 0.214720 0.548156 0.000000 5.438921 -0.038509 0.000000 0.204544 0.660468 0.000000 5.170732 0.000349 0.000000 0.173698 0.818541 0.000000 4.820809 0.089027 0.000000 0.124179 1.038472 0.000000 
4.656207 0.250549 0.000000 -0.006848 1.717294 0.000000 4.171306 0.359298 0.000000 -0.004551 2.364566 0.000000 3.564243 0.018478 0.000000 -0.012233 -2.673437 0.000000 4.004872 0.026864 0.000000 -0.039653 -1.876600 0.000000 4.509240 0.010921 0.000000 -0.039351 -1.356073 0.000000 4.940356 0.061967 0.000000 -0.037519 -1.072355 0.000000 5.274270 0.160034 0.000000 -0.063273 -1.041837 0.000000 5.507749 0.120528 0.000000 -0.127335 -0.999930 0.000000 5.759780 -1.479195 0.000000 -0.234996 -0.886601 0.000000 5.821478 -0.229265 0.000000 -0.317583 -0.164092 0.000000 5.969322 0.152215 0.000000 -0.222906 -0.485137 0.000000 6.169184 -0.004374 0.000000 -0.146738 -0.217879 0.000000 6.276861 -0.092846 0.000000 -0.042020 -0.083149 0.000000 6.327762 -0.117779 0.000000 0.081508 -0.041618 0.000000 6.359166 -0.074502 0.000000 0.181197 -0.094750 0.000000 6.365368 0.034698 0.000000 0.224424 -0.254481 0.000000 6.423741 0.102010 0.000000 0.192448 -0.148396 0.000000 6.483023 -0.134861 0.000000 0.280349 0.083453 0.000000 6.438805 -0.084130 0.000000 0.347961 0.121528 0.000000 6.410171 -0.141404 0.000000 0.455237 0.069612 0.000000 6.386208 -0.020276 0.000000 0.497638 -0.040536 0.000000 6.390806 0.098467 0.000000 0.435873 -0.085591 0.000000 6.504517 -0.123266 0.000000 0.517000 0.281981 0.000000 6.485972 -0.157519 0.000000 0.735178 0.521561 0.000000 6.459895 -0.233179 0.000000 1.452615 0.440859 0.000000 6.108770 0.500936 0.000000 0.568169 0.823165 0.000000 5.872156 0.534683 0.000000 0.167168 0.598037 0.000000 5.838914 0.196939 0.000000 0.129664 0.549262 0.000000 5.760573 0.062885 0.000000 0.137252 0.648015 0.000000 5.598928 0.043176 0.000000 0.121030 0.814394 0.000000 5.364520 0.073973 0.000000 0.083690 1.033949 0.000000 5.053988 0.142852 0.000000 0.036537 1.320856 0.000000 
4.899539 0.272022 0.000000 0.094182 1.856672 0.000000 4.525441 0.385453 0.000000 0.095315 2.578567 0.000000 4.046681 0.022388 0.000000 0.087830 -2.811702 0.000000 4.332323 0.067150 0.000000 0.054099 -2.033972 0.000000 4.678790 0.038432 0.000000 0.069663 -1.502120 0.000000 4.977105 0.053808 0.000000 0.184646 -1.177241 0.000000 5.098986 0.094174 0.000000 0.443673 -1.027869 0.000000 4.799458 0.074069 0.000000 0.623979 -1.005741 0.000000 4.052734 -0.712830 0.000000 -1.993199 -0.680183 0.000000 3.653983 -0.058775 0.000000 -2.256968 -0.365315 0.000000 4.148020 -0.044652 0.000000 -2.014538 -0.552961 0.000000 3.850927 -0.031608 0.000000 -1.948891 -0.361840 0.000000 3.905566 -0.062396 0.000000 -2.007846 -0.198299 0.000000 4.114475 -0.118130 0.000000 -2.138174 -0.124969 0.000000 4.312739 -0.104470 0.000000 -2.213370 -0.105107 0.000000 4.389406 -0.027323 0.000000 -2.120850 -0.219932 0.000000 4.151367 0.087872 0.000000 -1.855822 -0.207381 0.000000 3.969347 -0.065714 0.000000 -1.917987 0.037131 0.000000 4.149277 -0.076393 0.000000 -1.926119 0.095313 0.000000 4.336061 -0.180618 0.000000 -2.051636 0.098608 0.000000 4.420050 -0.115413 0.000000 -1.989466 0.039705 0.000000 4.295029 0.011786 0.000000 -1.705556 -0.101715 0.000000 3.978645 -0.147344 0.000000 -1.698214 0.197059 0.000000 4.157519 -0.259480 0.000000 -1.795289 0.376413 0.000000 4.579068 -0.779678 0.000000 -2.208942 1.030808 0.000000 5.162179 1.070910 0.000000 -1.005123 0.817167 0.000000 5.795700 0.525633 0.000000 -0.179886 0.539237 0.000000 5.926510 0.082911 0.000000 0.094905 0.569637 0.000000 5.834839 -0.032185 0.000000 0.165889 0.709800 0.000000 5.672394 -0.022287 0.000000 0.174888 0.894876 0.000000 5.466598 0.037689 0.000000 0.158664 1.129073 0.000000 5.212105 0.136181 0.000000 0.128442 1.436254 0.000000 
5.198848 0.284810 0.000000 0.060766 2.091392 0.000000 4.883597 0.358165 0.000000 0.095426 2.843326 0.000000 4.495072 0.025962 0.000000 0.088491 -2.959078 0.000000 4.674019 0.060595 0.000000 0.066426 -2.223068 0.000000 4.918040 -0.004643 0.000000 0.086789 -1.654388 0.000000 5.129568 -0.053016 0.000000 0.205942 -1.194235 0.000000 5.169746 -0.098993 0.000000 0.475654 -0.742309 0.000000 4.838711 -0.059779 0.000000 0.671069 -0.253206 0.000000 4.266987 1.137983 0.000000 -1.414586 -0.487850 0.000000 3.745836 0.034504 0.000000 -1.770964 -0.658128 0.000000 4.048108 -0.090215 0.000000 -1.705777 -0.188045 0.000000 3.697938 -0.070022 0.000000 -1.751822 -0.272517 0.000000 3.657950 -0.033891 0.000000 -1.924452 -0.292058 0.000000 3.807483 0.012550 0.000000 -2.181326 -0.239883 0.000000 3.986567 0.000694 0.000000 -2.372489 -0.171416 0.000000 4.064089 -0.057822 0.000000 -2.352648 -0.016442 0.000000 3.788909 -0.163017 0.000000 -2.094218 0.033624 0.000000 3.549345 -0.072697 0.000000 -2.215731 -0.096477 0.000000 3.740352 -0.075997 0.000000 -2.291750 -0.065257 0.000000 3.955845 -0.015887 0.000000 -2.525929 -0.014376 0.000000 4.069369 -0.082446 0.000000 -2.543425 0.084485 0.000000 3.942509 -0.185443 0.000000 -2.246359 0.230792 0.000000 3.502539 -0.130609 0.000000 -2.318202 0.103107 0.000000 3.640025 -0.060444 0.000000 -2.593825 0.100012 0.000000 4.089180 0.180474 0.000000 -3.733325 -0.142252 0.000000 5.149315 -0.702883 0.000000 -1.598361 0.189644 0.000000 6.018729 -0.290554 0.000000 -0.299039 0.467227 0.000000 6.119996 -0.077853 0.000000 0.064045 0.640933 0.000000 6.003885 -0.008099 0.000000 0.128658 0.810461 0.000000 5.850620 0.034177 0.000000 0.123006 1.020189 0.000000 5.672917 0.090197 0.000000 0.100162 1.288442 0.000000 5.458399 0.173074 0.000000 0.074830 1.633423 0.000000 
5.451305 0.286085 0.000000 0.138174 2.171923 0.000000 5.224152 0.350794 0.000000 0.172204 2.967092 0.000000 4.936727 0.029323 0.000000 0.165871 -2.990649 0.000000 5.017420 0.089214 0.000000 0.124056 -2.277994 0.000000 5.157213 0.018069 0.000000 0.082017 -1.713648 0.000000 5.316136 -0.065345 0.000000 0.048963 -1.217419 0.000000 5.449986 -0.175537 0.000000 0.005135 -0.696834 0.000000 5.585311 -0.121346 0.000000 -0.048334 -0.434017 0.000000 5.924779 1.372825 0.000000 0.492773 -0.159032 0.000000 5.965561 0.297603 0.000000 0.377417 -0.667587 0.000000 5.915235 -0.109840 0.000000 0.272859 -0.202791 0.000000 6.050359 0.014437 0.000000 0.199079 -0.321853 0.000000 6.066608 0.110234 0.000000 0.127138 -0.347832 0.000000 6.065779 0.138744 0.000000 0.070732 -0.304053 0.000000 6.082810 0.086694 0.000000 0.025282 -0.182630 0.000000 6.082019 -0.047164 0.000000 -0.012714 0.055248 0.000000 6.095255 -0.170559 0.000000 -0.087253 0.032184 0.000000 6.124652 0.055800 0.000000 -0.126318 -0.153876 0.000000 6.115209 -0.000374 0.000000 -0.172069 -0.120179 0.000000 6.132310 0.053562 0.000000 -0.188722 -0.014917 0.000000 6.131731 -0.097918 0.000000 -0.207761 0.166565 0.000000 6.112045 -0.285281 0.000000 -0.250424 0.338255 0.000000 6.121034 -0.075501 0.000000 -0.282011 0.059574 0.000000 6.115697 0.016143 0.000000 -0.238662 -0.072741 0.000000 6.141493 0.359822 0.000000 0.027035 -0.029327 0.000000 5.936540 -1.064054 0.000000 -0.265365 -0.052248 0.000000 6.010140 -0.773690 0.000000 -0.105034 0.437970 0.000000 6.055283 -0.280173 0.000000 0.055932 0.685749 0.000000 6.012439 -0.096798 0.000000 0.129165 0.863065 0.000000 5.919142 -0.016635 0.000000 0.152351 1.072578 0.000000 5.793250 0.060533 0.000000 0.152288 1.343591 0.000000 5.637589 0.161513 0.000000 0.142792 1.695804 0.000000 
5.734472 0.289427 0.000000 0.117078 2.318545 0.000000 5.559091 0.324135 0.000000 0.167423 3.130751 0.000000 5.346229 0.032295 0.000000 0.161899 -3.039771 0.000000 5.360218 0.102410 0.000000 0.124360 -2.362861 0.000000 5.437886 0.037395 0.000000 0.070017 -1.813311 0.000000 5.561456 -0.019961 0.000000 -0.024928 -1.328085 0.000000 5.732291 -0.055165 0.000000 -0.241706 -0.877634 0.000000 6.055398 -0.006310 0.000000 -0.492660 -0.592674 0.000000 6.395974 0.596875 0.000000 0.592955 -0.528632 0.000000 6.771301 0.149860 0.000000 0.749777 -0.607802 0.000000 6.638335 0.014343 0.000000 0.562075 -0.323169 0.000000 6.811999 0.003758 0.000000 0.528011 -0.288766 0.000000 6.840466 0.038050 0.000000 0.588925 -0.291229 0.000000 6.809741 0.068955 0.000000 0.666392 -0.256914 0.000000 6.769296 0.046144 0.000000 0.710261 -0.170625 0.000000 6.761755 -0.019826 0.000000 0.658135 -0.029678 0.000000 6.888994 -0.088478 0.000000 0.524912 0.004227 0.000000 6.968084 -0.033631 0.000000 0.612610 -0.087034 0.000000 6.895183 -0.030246 0.000000 0.643541 -0.082358 0.000000 6.832523 0.000766 0.000000 0.724904 -0.013798 0.000000 6.805973 -0.063406 0.000000 0.699042 0.104172 0.000000 6.867228 -0.142780 0.000000 0.536451 0.221803 0.000000 7.024816 -0.099022 0.000000 0.595258 0.108444 0.000000 6.954825 -0.103793 0.000000 0.763550 0.074215 0.000000 6.760998 -0.085224 0.000000 1.283543 0.062701 0.000000 6.567878 -0.410483 0.000000 0.565256 0.116045 0.000000 6.239221 -0.450884 0.000000 0.126498 0.422083 0.000000 6.177584 -0.238818 0.000000 0.080037 0.683777 0.000000 6.148253 -0.081332 0.000000 0.103492 0.903758 0.000000 6.086472 0.010991 0.000000 0.114300 1.146082 0.000000 5.994385 0.090260 0.000000 0.112307 1.444103 0.000000 5.876543 0.182571 0.000000 0.108255 1.819706 0.000000 
5.979869 0.277263 0.000000 0.180327 2.347303 0.000000 5.876048 0.300449 0.000000 0.229940 3.179954 0.000000 5.747898 0.034847 0.000000 0.225160 -3.004638 0.000000 5.700347 0.126753 0.000000 0.181335 -2.355662 0.000000 5.716672 0.072413 0.000000 0.113998 -1.837218 0.000000 5.801398 0.029600 0.000000 0.024914 -1.388254 0.000000 5.959093 0.041241 0.000000 -0.091411 -1.019940 0.000000 6.225535 0.129608 0.000000 -0.149321 -0.774593 0.000000 6.495334 0.287210 0.000000 0.394655 -0.534359 0.000000 6.738621 0.140782 0.000000 0.573342 -0.534621 0.000000 6.713960 0.077862 0.000000 0.540575 -0.376455 0.000000 6.805048 0.048501 0.000000 0.533340 -0.350319 0.000000 6.865273 0.049320 0.000000 0.560142 -0.317107 0.000000 6.857584 0.061277 0.000000 0.605458 -0.263608 0.000000 6.829183 0.042825 0.000000 0.631191 -0.175088 0.000000 6.827347 0.004962 0.000000 0.613738 -0.071992 0.000000 6.901157 -0.037336 0.000000 0.573496 -0.046906 0.000000 6.969255 -0.031897 0.000000 0.601804 -0.080976 0.000000 6.941362 -0.031306 0.000000 0.621954 -0.057518 0.000000 6.883827 -0.027800 0.000000 0.664436 0.011633 0.000000 6.857867 -0.072056 0.000000 0.665837 0.105309 0.000000 6.891079 -0.122689 0.000000 0.634147 0.180667 0.000000 6.972917 -0.134308 0.000000 0.696290 0.129565 0.000000 6.926161 -0.152149 0.000000 0.772242 0.121086 0.000000 6.793903 -0.160171 0.000000 0.858222 0.163792 0.000000 6.639495 -0.345766 0.000000 0.626213 0.276410 0.000000 6.380525 -0.334932 0.000000 0.298937 0.499606 0.000000 6.252307 -0.233712 0.000000 0.162341 0.715081 0.000000 6.210992 -0.120253 0.000000 0.141491 0.924846 0.000000 6.177242 -0.027442 0.000000 0.149380 1.164666 0.000000 6.127386 0.062526 0.000000 0.157474 1.461433 0.000000 6.060783 0.165565 0.000000 0.164130 1.837876 0.000000 
6.241441 0.273231 0.000000 0.165736 2.422366 0.000000 6.182889 0.274521 0.000000 0.222288 3.258900 0.000000 6.118832 0.037075 0.000000 0.218438 -2.992219 0.000000 6.029059 0.146236 0.000000 0.181599 -2.379187 0.000000 6.005925 0.104732 0.000000 0.116905 -1.898037 0.000000 6.055376 0.069122 0.000000 0.025258 -1.485780 0.000000 6.178910 0.061161 0.000000 -0.074233 -1.144076 0.000000 6.372795 0.051600 0.000000 -0.043233 -0.862473 0.000000 6.498070 0.052899 0.000000 0.331627 -0.771920 0.000000 6.823068 -0.028826 0.000000 0.592528 -0.583141 0.000000 6.833534 0.047110 0.000000 0.540277 -0.414257 0.000000 6.885796 0.010994 0.000000 0.559853 -0.348990 0.000000 6.925004 0.011248 0.000000 0.593051 -0.283541 0.000000 6.897833 0.023639 0.000000 0.622058 -0.228512 0.000000 6.862445 0.020411 0.000000 0.627872 -0.168789 0.000000 6.865400 -0.002374 0.000000 0.609159 -0.103488 0.000000 6.929304 -0.048236 0.000000 0.602628 -0.063870 0.000000 6.982245 -0.061939 0.000000 0.640308 -0.059142 0.000000 6.958579 -0.050396 0.000000 0.662872 -0.024822 0.000000 6.896386 -0.041716 0.000000 0.677011 0.012163 0.000000 6.881086 -0.064808 0.000000 0.667664 0.070959 0.000000 6.922052 -0.111090 0.000000 0.655444 0.139965 0.000000 6.992036 -0.161165 0.000000 0.717816 0.155200 0.000000 6.968696 -0.179745 0.000000 0.778118 0.206472 0.000000 6.831255 -0.171204 0.000000 0.814974 0.217109 0.000000 6.687646 -0.178474 0.000000 0.617259 0.375016 0.000000 6.474906 -0.123608 0.000000 0.335435 0.550300 0.000000 6.368839 -0.102222 0.000000 0.181636 0.725093 0.000000 6.347634 -0.060483 0.000000 0.135244 0.937508 0.000000 6.339473 0.003102 0.000000 0.129219 1.195937 0.000000 6.318640 0.082165 0.000000 0.133053 1.510706 0.000000 6.284673 0.175915 0.000000 0.142106 1.900621 0.000000 
6.472269 0.253633 0.000000 0.221923 2.405855 0.000000 6.472001 0.243897 0.000000 0.279105 3.244011 0.000000 6.481030 0.038697 0.000000 0.276238 -2.914865 0.000000 6.343959 0.163592 0.000000 0.252519 -2.332528 0.000000 6.269182 0.137106 0.000000 0.207027 -1.886669 0.000000 6.260778 0.121247 0.000000 0.131887 -1.511788 0.000000 6.325656 0.140732 0.000000 0.003734 -1.213825 0.000000 6.477397 0.098607 0.000000 -0.065639 -0.899868 0.000000 6.579832 -0.087650 0.000000 0.291275 -0.859357 0.000000 6.874466 -0.120119 0.000000 0.585904 -0.545087 0.000000 6.839813 0.130113 0.000000 0.441211 -0.428717 0.000000 6.873876 0.028926 0.000000 0.494146 -0.389528 0.000000 6.937680 0.016122 0.000000 0.562046 -0.289936 0.000000 6.902100 0.032270 0.000000 0.589637 -0.228221 0.000000 6.868724 0.037011 0.000000 0.575294 -0.178042 0.000000 6.869824 0.023675 0.000000 0.536279 -0.135896 0.000000 6.929142 -0.030806 0.000000 0.539749 -0.099847 0.000000 6.988945 -0.069577 0.000000 0.617203 -0.057310 0.000000 6.970443 -0.053869 0.000000 0.653307 0.004674 0.000000 6.892745 -0.041940 0.000000 0.632559 0.026933 0.000000 6.879965 -0.062710 0.000000 0.603065 0.064343 0.000000 6.916368 -0.110469 0.000000 0.570359 0.110683 0.000000 6.985375 -0.196680 0.000000 0.659318 0.152905 0.000000 6.995401 -0.212451 0.000000 0.757230 0.258526 0.000000 6.838577 -0.197028 0.000000 0.835012 0.307401 0.000000 6.772502 -0.148051 0.000000 0.682237 0.489150 0.000000 6.515868 -0.053109 0.000000 0.306660 0.605673 0.000000 6.426029 -0.079912 0.000000 0.179470 0.736286 0.000000 6.435476 -0.073861 0.000000 0.159579 0.933006 0.000000 6.452142 -0.021417 0.000000 0.165834 1.185499 0.000000 6.461198 0.058692 0.000000 0.177272 1.495400 0.000000 6.466578 0.156511 0.000000 0.192798 1.881108 0.000000 
6.709268 0.244106 0.000000 0.212907 2.422634 0.000000 6.748482 0.217339 0.000000 0.270676 3.249872 0.000000 6.813505 0.039942 0.000000 0.268736 -2.855149 0.000000 6.644483 0.169955 0.000000 0.255812 -2.304410 0.000000 6.537924 0.150224 0.000000 0.234338 -1.889633 0.000000 6.492206 0.144262 0.000000 0.214938 -1.550658 0.000000 6.496020 0.189315 0.000000 0.197905 -1.295818 0.000000 6.520773 0.120973 0.000000 0.146334 -0.964907 0.000000 6.574037 -0.304015 0.000000 0.086158 -1.066554 0.000000 6.544443 -0.323456 0.000000 -0.010405 -0.548488 0.000000 6.563695 0.191803 0.000000 0.018440 -0.448320 0.000000 6.612443 -0.041941 0.000000 0.067934 -0.412795 0.000000 6.635314 -0.056652 0.000000 0.124912 -0.247960 0.000000 6.628023 -0.003951 0.000000 0.176366 -0.195137 0.000000 6.616902 0.034754 0.000000 0.216575 -0.169888 0.000000 6.615629 0.036641 0.000000 0.240215 -0.162806 0.000000 6.636024 -0.051706 0.000000 0.258205 -0.123673 0.000000 6.666067 -0.139393 0.000000 0.304947 -0.040639 0.000000 6.653800 -0.086500 0.000000 0.340966 0.052876 0.000000 6.616626 -0.020967 0.000000 0.359564 0.024942 0.000000 6.610573 -0.035314 0.000000 0.379129 0.034557 0.000000 6.622276 -0.078384 0.000000 0.380557 0.070958 0.000000 6.664415 -0.250124 0.000000 0.429276 0.145174 0.000000 6.686894 -0.277657 0.000000 0.486153 0.363296 0.000000 6.632947 -0.248986 0.000000 0.630256 0.283185 0.000000 6.600568 -0.025699 0.000000 0.459322 0.631650 0.000000 6.496303 0.251970 0.000000 0.214996 0.640138 0.000000 6.521513 0.024968 0.000000 0.153561 0.715646 0.000000 6.572398 -0.040592 0.000000 0.148642 0.920842 0.000000 6.610316 -0.003152 0.000000 0.154344 1.186880 0.000000 6.640723 0.070727 0.000000 0.163873 1.505327 0.000000 6.672050 0.160389 0.000000 0.180145 1.894929 0.000000 