# vtk DataFile Version 2.0
Comment goes here
ASCII

DATASET STRUCTURED_POINTS
FIELD FieldData 1
TIME 1 1 double
0.00600000
DIMENSIONS    64   64   1

ORIGIN    0.000   0.000   0.000
SPACING   0.03125 0.03125   1.000

POINT_DATA   4096
VECTORS u double

-0.092426 0.000151 0.000000 -0.030301 0.000958 0.000000 0.007237 -0.000670 0.000000 -0.010159 0.000721 0.000000 -0.024296 -0.000388 0.000000 0.032418 0.000153 0.000000 -0.087107 -0.000271 0.000000 0.093052 0.000146 0.000000 -0.144442 -0.000250 0.000000 0.141358 0.000233 0.000000 -0.180579 -0.000313 0.000000 0.163412 0.000189 0.000000 -0.188831 -0.000307 0.000000 0.158450 -0.000046 0.000000 -0.170523 -0.000131 0.000000 0.131114 -0.000153 0.000000 -0.138982 -0.000028 0.000000 0.100635 -0.000747 0.000000 -0.112722 0.001841 0.000000 0.073928 -0.002449 0.000000 -0.085262 0.001472 0.000000 0.044564 -0.001288 0.000000 -0.057163 0.000994 0.000000 0.017644 -0.002386 0.000000 -0.029777 0.002516 0.000000 -0.013127 -0.001864 0.000000 -0.003745 0.000702 0.000000 -0.037556 0.000200 0.000000 0.016113 0.000825 0.000000 -0.059258 -0.001542 0.000000 0.038298 0.001221 0.000000 -0.082757 -0.000515 0.000000 0.058274 -0.000626 0.000000 -0.101231 0.000519 0.000000 0.071821 -0.000310 0.000000 -0.112210 0.000245 0.000000 0.077113 -0.000332 0.000000 -0.114851 0.000523 0.000000 0.074365 -0.000525 0.000000 -0.111353 0.000449 0.000000 0.069170 -0.000369 0.000000 -0.108527 0.000268 0.000000 0.066264 -0.000144 0.000000 -0.107409 0.000546 0.000000 0.062631 -0.000841 0.000000 -0.103479 0.001265 0.000000 0.053698 -0.000979 0.000000 -0.094402 0.000833 0.000000 0.042008 -0.000278 0.000000 -0.084485 0.000553 0.000000 0.031524 -0.000007 0.000000 -0.077767 0.000370 0.000000 0.023565 -0.000123 0.000000 -0.077057 0.000338 0.000000 0.030357 -0.000224 0.000000 -0.098623 0.000395 0.000000 0.053766 -0.000457 0.000000 -0.117710 0.000612 0.000000 0.049972 -0.000655 0.000000 -0.090634 0.000789 0.000000 -0.008377 -0.000836 0.000000 -0.012610 0.000818 0.000000 -0.108177 -0.000672 0.000000 0.082280 0.000091 0.000000 
-0.067522 0.056238 0.000000 0.239029 -0.049246 0.000000 -0.276110 -0.010697 0.000000 0.256955 0.016103 0.000000 -0.272540 -0.021563 0.000000 0.234156 0.031467 0.000000 -0.224981 -0.030078 0.000000 0.184205 0.028323 0.000000 -0.177369 -0.023669 0.000000 0.136334 0.017550 0.000000 -0.137820 -0.010448 0.000000 0.098184 0.003648 0.000000 -0.108934 0.002982 0.000000 0.069700 -0.009531 0.000000 -0.091121 0.014151 0.000000 0.051736 -0.016081 0.000000 -0.077701 0.015578 0.000000 0.033212 -0.013410 0.000000 -0.058043 0.013478 0.000000 0.014263 -0.013828 0.000000 -0.042835 0.015145 0.000000 -0.005103 -0.014660 0.000000 -0.023906 0.014060 0.000000 -0.027714 -0.013817 0.000000 -0.007959 0.015325 0.000000 -0.040612 -0.013167 0.000000 0.009234 0.012707 0.000000 -0.062816 -0.010831 0.000000 0.035326 0.011494 0.000000 -0.083642 -0.011700 0.000000 0.049638 0.012378 0.000000 -0.095253 -0.010733 0.000000 0.061288 0.009969 0.000000 -0.106733 -0.007040 0.000000 0.070028 0.005499 0.000000 -0.112418 -0.002511 0.000000 0.074805 0.001187 0.000000 -0.116257 0.001470 0.000000 0.079707 -0.001880 0.000000 -0.119276 0.002694 0.000000 0.081655 -0.001502 0.000000 -0.117569 0.001558 0.000000 0.077852 -0.000751 0.000000 -0.110172 0.001876 0.000000 0.071835 -0.002036 0.000000 -0.103285 0.004462 0.000000 0.068808 -0.004689 0.000000 -0.098461 0.006080 0.000000 0.064905 -0.005390 0.000000 -0.091634 0.005528 0.000000 0.060326 -0.003815 0.000000 -0.084113 0.004237 0.000000 0.058611 -0.000773 0.000000 -0.078737 -0.002970 0.000000 0.051701 0.010171 0.000000 -0.060170 -0.011058 0.000000 0.032183 0.008849 0.000000 -0.040623 0.002590 0.000000 0.028018 -0.014195 0.000000 -0.047290 0.029811 0.000000 0.054064 -0.039610 0.000000 -0.078159 0.050520 0.000000 0.092908 -0.048134 0.000000 -0.093562 -0.007110 0.000000 
0.107264 -0.332440 0.000000 0.150709 0.209547 0.000000 -0.070393 -0.018596 0.000000 0.157579 -0.002849 0.000000 -0.044161 0.022411 0.000000 0.124793 -0.047406 0.000000 -0.007109 0.049681 0.000000 0.076197 -0.047466 0.000000 0.051258 0.047622 0.000000 0.032667 -0.039317 0.000000 0.101337 0.037837 0.000000 0.004479 -0.028697 0.000000 0.134634 0.028176 0.000000 -0.008342 -0.017859 0.000000 0.150621 0.017833 0.000000 -0.006877 -0.013574 0.000000 0.158381 0.018496 0.000000 -0.006052 -0.020405 0.000000 0.171284 0.020789 0.000000 -0.009623 -0.017657 0.000000 0.180839 0.020838 0.000000 -0.012126 -0.020217 0.000000 0.189594 0.023605 0.000000 -0.017880 -0.018333 0.000000 0.197478 0.015414 0.000000 -0.018418 -0.019056 0.000000 0.205150 0.022907 0.000000 -0.024929 -0.025892 0.000000 0.216975 0.021651 0.000000 -0.031078 -0.015854 0.000000 0.221147 0.012832 0.000000 -0.030861 -0.012165 0.000000 0.222833 0.010854 0.000000 -0.031142 -0.008221 0.000000 0.224766 0.005375 0.000000 -0.032086 -0.004532 0.000000 0.227526 0.003507 0.000000 -0.034821 -0.004378 0.000000 0.232023 0.002494 0.000000 -0.038469 -0.001500 0.000000 0.234325 -0.002075 0.000000 -0.038342 0.004072 0.000000 0.231289 -0.007542 0.000000 -0.034388 0.006563 0.000000 0.226353 -0.007727 0.000000 -0.031709 0.004292 0.000000 0.223908 -0.005804 0.000000 -0.032759 0.004736 0.000000 0.221046 -0.007104 0.000000 -0.034008 0.005132 0.000000 0.215576 -0.007528 0.000000 -0.033754 0.002085 0.000000 0.210493 -0.005499 0.000000 -0.031465 0.007248 0.000000 0.195351 -0.018791 0.000000 -0.010501 0.019913 0.000000 0.163467 -0.020004 0.000000 0.011879 0.004776 0.000000 0.149125 0.006012 0.000000 0.000893 -0.025256 0.000000 0.172766 0.030033 0.000000 -0.045065 -0.038027 0.000000 0.221460 0.014731 0.000000 -0.091603 0.160521 0.000000 
0.079831 -0.186073 0.000000 -0.122145 0.128410 0.000000 0.112346 -0.017568 0.000000 -0.100421 -0.010129 0.000000 -0.057400 0.011223 0.000000 -0.077702 -0.005584 0.000000 0.050077 0.018518 0.000000 -0.048485 -0.030043 0.000000 0.114216 0.019861 0.000000 -0.027661 -0.032529 0.000000 0.159352 0.017740 0.000000 -0.015286 -0.029649 0.000000 0.195397 0.015802 0.000000 -0.008298 -0.025518 0.000000 0.227892 0.012687 0.000000 -0.006883 -0.023841 0.000000 0.256024 0.014753 0.000000 -0.003910 -0.026313 0.000000 0.272128 0.017049 0.000000 0.000779 -0.023382 0.000000 0.285808 0.017648 0.000000 0.004817 -0.023415 0.000000 0.294251 0.019814 0.000000 0.010485 -0.021700 0.000000 0.302153 0.015863 0.000000 0.009367 -0.020840 0.000000 0.307478 0.019218 0.000000 0.015008 -0.022656 0.000000 0.304357 0.017643 0.000000 0.021400 -0.015872 0.000000 0.305743 0.012160 0.000000 0.022886 -0.012418 0.000000 0.306705 0.010250 0.000000 0.024594 -0.008973 0.000000 0.308305 0.006444 0.000000 0.023459 -0.005271 0.000000 0.310173 0.003921 0.000000 0.022919 -0.003027 0.000000 0.308890 0.001769 0.000000 0.024181 0.000392 0.000000 0.306350 -0.001629 0.000000 0.024067 0.004594 0.000000 0.305272 -0.004705 0.000000 0.020783 0.006813 0.000000 0.304135 -0.004716 0.000000 0.017397 0.006906 0.000000 0.299034 -0.003639 0.000000 0.015396 0.008942 0.000000 0.291071 -0.004141 0.000000 0.012445 0.010998 0.000000 0.279386 -0.004069 0.000000 0.009766 0.009320 0.000000 0.263054 -0.003062 0.000000 0.011244 0.012172 0.000000 0.247281 -0.010793 0.000000 0.004354 0.020825 0.000000 0.237468 -0.013531 0.000000 -0.003285 0.016932 0.000000 0.211322 -0.003209 0.000000 0.009017 0.006170 0.000000 0.152228 0.006348 0.000000 0.045936 0.001827 0.000000 0.055938 -0.001597 0.000000 0.095293 0.107086 0.000000 
0.134625 -0.115002 0.000000 -0.070995 0.177032 0.000000 0.126653 -0.040320 0.000000 -0.060659 0.166897 0.000000 -0.024845 -0.000308 0.000000 -0.049184 -0.154883 0.000000 0.095399 0.020465 0.000000 -0.035780 -0.111604 0.000000 0.158030 0.026798 0.000000 -0.026140 -0.084453 0.000000 0.199227 0.025461 0.000000 -0.019902 -0.064742 0.000000 0.230142 0.021188 0.000000 -0.014997 -0.050353 0.000000 0.256168 0.016418 0.000000 -0.011354 -0.041705 0.000000 0.278932 0.015523 0.000000 -0.006774 -0.036510 0.000000 0.292287 0.016101 0.000000 -0.001281 -0.031336 0.000000 0.302451 0.016800 0.000000 0.003327 -0.028661 0.000000 0.309307 0.017937 0.000000 0.007809 -0.026235 0.000000 0.315728 0.016531 0.000000 0.008208 -0.024382 0.000000 0.320282 0.017266 0.000000 0.012254 -0.022770 0.000000 0.319225 0.015258 0.000000 0.017517 -0.017240 0.000000 0.319416 0.011346 0.000000 0.020194 -0.013127 0.000000 0.319482 0.009145 0.000000 0.021865 -0.009820 0.000000 0.320846 0.006510 0.000000 0.020982 -0.006400 0.000000 0.322642 0.004047 0.000000 0.020131 -0.003095 0.000000 0.322157 0.001232 0.000000 0.020944 0.001041 0.000000 0.319953 -0.001961 0.000000 0.021303 0.005150 0.000000 0.318187 -0.004258 0.000000 0.019484 0.007700 0.000000 0.316829 -0.004341 0.000000 0.016540 0.009393 0.000000 0.313280 -0.003803 0.000000 0.013851 0.012699 0.000000 0.306652 -0.004153 0.000000 0.010447 0.016817 0.000000 0.294764 -0.004848 0.000000 0.006956 0.018417 0.000000 0.281126 -0.006978 0.000000 0.007613 0.023021 0.000000 0.267161 -0.011900 0.000000 0.004720 0.029726 0.000000 0.255592 -0.012366 0.000000 0.001020 0.030922 0.000000 0.235132 -0.006290 0.000000 0.006389 0.033838 0.000000 0.197044 -0.006886 0.000000 0.023262 0.058264 0.000000 0.136489 -0.034626 0.000000 0.047296 0.136628 0.000000 
0.120549 -0.067782 0.000000 -0.048620 0.136383 0.000000 0.103473 -0.027903 0.000000 -0.058142 0.141369 0.000000 0.033889 -0.000253 0.000000 -0.057923 -0.125828 0.000000 0.093468 0.005115 0.000000 -0.042239 -0.092675 0.000000 0.141593 0.010221 0.000000 -0.029017 -0.073726 0.000000 0.179293 0.011502 0.000000 -0.019552 -0.060564 0.000000 0.210058 0.010898 0.000000 -0.013054 -0.051544 0.000000 0.236874 0.009043 0.000000 -0.007770 -0.046606 0.000000 0.261547 0.010173 0.000000 -0.003288 -0.039668 0.000000 0.277592 0.011556 0.000000 0.001554 -0.033546 0.000000 0.288789 0.013040 0.000000 0.006023 -0.030272 0.000000 0.296964 0.015333 0.000000 0.009188 -0.028121 0.000000 0.304279 0.015464 0.000000 0.010200 -0.025394 0.000000 0.309346 0.015171 0.000000 0.013110 -0.021599 0.000000 0.310107 0.012380 0.000000 0.017635 -0.016063 0.000000 0.310070 0.009484 0.000000 0.020828 -0.012485 0.000000 0.310214 0.008579 0.000000 0.022104 -0.010337 0.000000 0.311918 0.007326 0.000000 0.021138 -0.007067 0.000000 0.313666 0.004772 0.000000 0.020243 -0.002542 0.000000 0.313204 0.000956 0.000000 0.021131 0.002597 0.000000 0.310622 -0.001988 0.000000 0.021918 0.006359 0.000000 0.307980 -0.002886 0.000000 0.020831 0.008172 0.000000 0.305987 -0.001772 0.000000 0.018048 0.010455 0.000000 0.302485 -0.000950 0.000000 0.015157 0.015570 0.000000 0.295328 -0.000737 0.000000 0.011860 0.022885 0.000000 0.281112 -0.000577 0.000000 0.007717 0.022959 0.000000 0.267777 -0.003718 0.000000 0.006385 0.026138 0.000000 0.254084 -0.007901 0.000000 0.003939 0.032393 0.000000 0.238778 -0.009831 0.000000 0.002762 0.037392 0.000000 0.214403 -0.008578 0.000000 0.008313 0.044258 0.000000 0.176799 -0.010525 0.000000 0.018239 0.062382 0.000000 0.133708 -0.025631 0.000000 0.015166 0.108950 0.000000 
0.162104 -0.051216 0.000000 -0.030619 0.194107 0.000000 0.132044 -0.030798 0.000000 -0.037409 0.236481 0.000000 0.063904 -0.000527 0.000000 -0.037337 -0.214462 0.000000 0.128403 0.004781 0.000000 -0.030632 -0.159729 0.000000 0.176885 0.013576 0.000000 -0.024826 -0.122153 0.000000 0.212335 0.015996 0.000000 -0.020480 -0.095507 0.000000 0.239131 0.014690 0.000000 -0.016836 -0.077169 0.000000 0.261088 0.011134 0.000000 -0.010237 -0.066379 0.000000 0.285837 0.011041 0.000000 -0.005399 -0.052555 0.000000 0.298394 0.011259 0.000000 0.000204 -0.042533 0.000000 0.305712 0.012331 0.000000 0.005608 -0.036835 0.000000 0.311444 0.014772 0.000000 0.007929 -0.033550 0.000000 0.318444 0.015519 0.000000 0.007901 -0.029449 0.000000 0.324058 0.014357 0.000000 0.009450 -0.023531 0.000000 0.324753 0.010733 0.000000 0.014618 -0.017204 0.000000 0.322991 0.008153 0.000000 0.019281 -0.013271 0.000000 0.321624 0.007869 0.000000 0.020598 -0.011525 0.000000 0.324104 0.007476 0.000000 0.018415 -0.008148 0.000000 0.327153 0.004942 0.000000 0.016306 -0.002633 0.000000 0.327287 0.000343 0.000000 0.017995 0.003623 0.000000 0.323709 -0.002747 0.000000 0.020397 0.007793 0.000000 0.319996 -0.003171 0.000000 0.020585 0.009693 0.000000 0.319103 -0.001558 0.000000 0.017346 0.012894 0.000000 0.318386 -0.000912 0.000000 0.014053 0.019856 0.000000 0.313963 -0.000857 0.000000 0.010620 0.031034 0.000000 0.294834 -0.000705 0.000000 0.003812 0.031751 0.000000 0.284312 -0.005646 0.000000 0.003422 0.036713 0.000000 0.273427 -0.009454 0.000000 0.002787 0.045032 0.000000 0.260617 -0.011188 0.000000 0.002279 0.055298 0.000000 0.242041 -0.011841 0.000000 0.004438 0.071442 0.000000 0.215228 -0.016812 0.000000 0.008102 0.101354 0.000000 0.182976 -0.031552 0.000000 0.004715 0.149787 0.000000 
0.165044 -0.032448 0.000000 -0.027979 0.166443 0.000000 0.146200 -0.021113 0.000000 -0.038660 0.209510 0.000000 0.115774 -0.000325 0.000000 -0.038816 -0.190327 0.000000 0.148001 -0.001589 0.000000 -0.033414 -0.141157 0.000000 0.179035 0.004414 0.000000 -0.026570 -0.109176 0.000000 0.205865 0.007156 0.000000 -0.020836 -0.087360 0.000000 0.228355 0.007253 0.000000 -0.016598 -0.073501 0.000000 0.247655 0.002444 0.000000 -0.010681 -0.071355 0.000000 0.269682 0.005335 0.000000 -0.007057 -0.052226 0.000000 0.281800 0.005952 0.000000 -0.003032 -0.040863 0.000000 0.289417 0.007637 0.000000 0.001056 -0.036004 0.000000 0.295412 0.013012 0.000000 0.002755 -0.035121 0.000000 0.301958 0.015493 0.000000 0.002995 -0.031007 0.000000 0.307090 0.013622 0.000000 0.004198 -0.022294 0.000000 0.308365 0.007212 0.000000 0.008243 -0.014301 0.000000 0.307357 0.004820 0.000000 0.012021 -0.011118 0.000000 0.306486 0.007262 0.000000 0.013126 -0.012817 0.000000 0.308515 0.009510 0.000000 0.011591 -0.010116 0.000000 0.310762 0.006881 0.000000 0.010079 -0.002675 0.000000 0.310702 -0.000734 0.000000 0.011512 0.006175 0.000000 0.307649 -0.004390 0.000000 0.013469 0.010071 0.000000 0.304323 -0.003075 0.000000 0.013842 0.009065 0.000000 0.303122 0.001467 0.000000 0.011637 0.011171 0.000000 0.302059 0.002344 0.000000 0.009665 0.019993 0.000000 0.298185 0.002696 0.000000 0.007800 0.042014 0.000000 0.281806 0.006231 0.000000 0.002773 0.033481 0.000000 0.272748 -0.003328 0.000000 0.002570 0.037023 0.000000 0.262415 -0.007266 0.000000 0.002199 0.045203 0.000000 0.249065 -0.009322 0.000000 0.002103 0.055968 0.000000 0.230577 -0.010737 0.000000 0.003333 0.071071 0.000000 0.206749 -0.014189 0.000000 0.003466 0.094634 0.000000 0.182118 -0.022244 0.000000 -0.004737 0.129822 0.000000 
0.198777 -0.027974 0.000000 -0.019197 0.212951 0.000000 0.175238 -0.020117 0.000000 -0.026188 0.266908 0.000000 0.143286 -0.000372 0.000000 -0.026306 -0.246689 0.000000 0.177532 -0.000622 0.000000 -0.024607 -0.190764 0.000000 0.208801 0.006732 0.000000 -0.022053 -0.148983 0.000000 0.234103 0.010262 0.000000 -0.020354 -0.117997 0.000000 0.252951 0.010452 0.000000 -0.021618 -0.096469 0.000000 0.263202 0.005217 0.000000 -0.032895 -0.088406 0.000000 0.253064 0.007417 0.000000 -0.041076 -0.064673 0.000000 0.256444 0.007233 0.000000 -0.049751 -0.050150 0.000000 0.263992 0.008244 0.000000 -0.056696 -0.042830 0.000000 0.267886 0.013073 0.000000 -0.055204 -0.040096 0.000000 0.263534 0.015279 0.000000 -0.049216 -0.034581 0.000000 0.257627 0.013154 0.000000 -0.045379 -0.024806 0.000000 0.258490 0.006687 0.000000 -0.050309 -0.016196 0.000000 0.264971 0.004376 0.000000 -0.056579 -0.012401 0.000000 0.269535 0.006764 0.000000 -0.055989 -0.013553 0.000000 0.264436 0.009012 0.000000 -0.048639 -0.010395 0.000000 0.257137 0.006454 0.000000 -0.042492 -0.002574 0.000000 0.255511 -0.001089 0.000000 -0.045833 0.006676 0.000000 0.261818 -0.004703 0.000000 -0.052290 0.011118 0.000000 0.267821 -0.003544 0.000000 -0.054188 0.010894 0.000000 0.265360 0.000647 0.000000 -0.046866 0.013957 0.000000 0.259141 0.001060 0.000000 -0.036844 0.023731 0.000000 0.259145 0.001008 0.000000 -0.025002 0.047412 0.000000 0.286211 0.004323 0.000000 -0.005771 0.040810 0.000000 0.287872 -0.005443 0.000000 -0.000529 0.047046 0.000000 0.281622 -0.009084 0.000000 0.000722 0.058383 0.000000 0.271403 -0.011092 0.000000 0.000855 0.073785 0.000000 0.257175 -0.013072 0.000000 0.000966 0.095271 0.000000 0.238818 -0.016945 0.000000 -0.000007 0.125985 0.000000 0.218144 -0.023349 0.000000 -0.005595 0.166861 0.000000 
0.211219 -0.018846 0.000000 -0.020090 0.189982 0.000000 0.200278 -0.014122 0.000000 -0.027293 0.241461 0.000000 0.189395 -0.000207 0.000000 -0.027446 -0.224572 0.000000 0.203864 -0.003288 0.000000 -0.026037 -0.172426 0.000000 0.220732 0.001860 0.000000 -0.023011 -0.134479 0.000000 0.236789 0.005457 0.000000 -0.020613 -0.106208 0.000000 0.249826 0.008517 0.000000 -0.021777 -0.083751 0.000000 0.255631 0.013722 0.000000 -0.035717 -0.061217 0.000000 0.237963 0.013516 0.000000 -0.045938 -0.055606 0.000000 0.239280 0.014627 0.000000 -0.057138 -0.048412 0.000000 0.246862 0.014582 0.000000 -0.066416 -0.039898 0.000000 0.250550 0.011520 0.000000 -0.065168 -0.030769 0.000000 0.244267 0.009504 0.000000 -0.058198 -0.025100 0.000000 0.236389 0.009786 0.000000 -0.054050 -0.023158 0.000000 0.237423 0.012141 0.000000 -0.060986 -0.020782 0.000000 0.245572 0.011090 0.000000 -0.069415 -0.015683 0.000000 0.251339 0.006672 0.000000 -0.069048 -0.007717 0.000000 0.244856 0.002160 0.000000 -0.059976 -0.002817 0.000000 0.235600 0.000734 0.000000 -0.052303 -0.001049 0.000000 0.233553 0.002607 0.000000 -0.056589 -0.000132 0.000000 0.241585 0.002067 0.000000 -0.064705 0.004068 0.000000 0.249265 -0.001176 0.000000 -0.067024 0.011527 0.000000 0.246336 -0.005855 0.000000 -0.057782 0.017390 0.000000 0.238871 -0.007679 0.000000 -0.045398 0.019989 0.000000 0.239440 -0.009146 0.000000 -0.030914 0.014948 0.000000 0.275149 -0.013000 0.000000 -0.007038 0.031820 0.000000 0.279012 -0.008571 0.000000 -0.001087 0.043273 0.000000 0.273769 -0.008516 0.000000 0.000178 0.055422 0.000000 0.264484 -0.009456 0.000000 0.000110 0.070196 0.000000 0.252086 -0.010848 0.000000 -0.000560 0.089428 0.000000 0.237491 -0.013217 0.000000 -0.002978 0.115307 0.000000 0.223017 -0.016655 0.000000 -0.009435 0.149189 0.000000 
0.239583 -0.017318 0.000000 -0.014467 0.223892 0.000000 0.226727 -0.012914 0.000000 -0.019275 0.277791 0.000000 0.214405 -0.000219 0.000000 -0.019385 -0.261158 0.000000 0.229704 -0.002031 0.000000 -0.019442 -0.207632 0.000000 0.246721 0.003707 0.000000 -0.018428 -0.165040 0.000000 0.262344 0.007864 0.000000 -0.017263 -0.131034 0.000000 0.275377 0.011616 0.000000 -0.016378 -0.102274 0.000000 0.285689 0.019158 0.000000 -0.014827 -0.070737 0.000000 0.295661 0.017638 0.000000 -0.014026 -0.065990 0.000000 0.301592 0.018433 0.000000 -0.012931 -0.057732 0.000000 0.305645 0.017521 0.000000 -0.011495 -0.046518 0.000000 0.308623 0.011826 0.000000 -0.010445 -0.033813 0.000000 0.311195 0.008308 0.000000 -0.009560 -0.026703 0.000000 0.313029 0.009006 0.000000 -0.008526 -0.025840 0.000000 0.313690 0.013623 0.000000 -0.006830 -0.024345 0.000000 0.313602 0.012805 0.000000 -0.005265 -0.018169 0.000000 0.313338 0.006396 0.000000 -0.004398 -0.007070 0.000000 0.313695 -0.000060 0.000000 -0.004227 -0.001139 0.000000 0.313995 -0.001220 0.000000 -0.004214 -0.000527 0.000000 0.313772 0.003198 0.000000 -0.003589 -0.001356 0.000000 0.312807 0.003412 0.000000 -0.002929 0.003438 0.000000 0.311673 -0.001226 0.000000 -0.002495 0.013823 0.000000 0.310941 -0.008594 0.000000 -0.002447 0.021421 0.000000 0.310138 -0.011325 0.000000 -0.001914 0.023162 0.000000 0.308717 -0.013476 0.000000 -0.001061 0.011703 0.000000 0.303167 -0.019554 0.000000 -0.001348 0.036947 0.000000 0.299332 -0.011394 0.000000 -0.000484 0.052289 0.000000 0.293781 -0.010349 0.000000 -0.000230 0.067667 0.000000 0.286191 -0.011025 0.000000 -0.000552 0.086183 0.000000 0.276424 -0.012402 0.000000 -0.001427 0.109866 0.000000 0.264709 -0.014526 0.000000 -0.003485 0.140459 0.000000 0.252026 -0.016893 0.000000 -0.007832 0.178659 0.000000 
0.256481 -0.012211 0.000000 -0.015700 0.202838 0.000000 0.254193 -0.009314 0.000000 -0.020218 0.253783 0.000000 0.255451 -0.000098 0.000000 -0.020338 -0.239872 0.000000 0.257405 -0.003231 0.000000 -0.020276 -0.189443 0.000000 0.263289 0.000846 0.000000 -0.018828 -0.150102 0.000000 0.270765 0.004292 0.000000 -0.016841 -0.119241 0.000000 0.278572 0.007631 0.000000 -0.014236 -0.094064 0.000000 0.287184 0.012172 0.000000 -0.007171 -0.071188 0.000000 0.303799 0.012714 0.000000 -0.002430 -0.061537 0.000000 0.310355 0.013532 0.000000 0.002749 -0.052465 0.000000 0.312980 0.013146 0.000000 0.007600 -0.042875 0.000000 0.315649 0.010470 0.000000 0.008615 -0.033342 0.000000 0.320969 0.008619 0.000000 0.007602 -0.026934 0.000000 0.325867 0.008751 0.000000 0.007634 -0.023819 0.000000 0.326506 0.010445 0.000000 0.011920 -0.020694 0.000000 0.323948 0.009525 0.000000 0.016508 -0.015419 0.000000 0.321883 0.005805 0.000000 0.017472 -0.008074 0.000000 0.324358 0.001989 0.000000 0.014857 -0.003117 0.000000 0.327583 0.000721 0.000000 0.012496 -0.000826 0.000000 0.327850 0.001983 0.000000 0.014621 0.000833 0.000000 0.324005 0.001408 0.000000 0.017985 0.005202 0.000000 0.320027 -0.001610 0.000000 0.019223 0.012259 0.000000 0.319832 -0.005903 0.000000 0.016329 0.018193 0.000000 0.320938 -0.008211 0.000000 0.012966 0.021410 0.000000 0.318694 -0.009999 0.000000 0.009248 0.020498 0.000000 0.300487 -0.012713 0.000000 0.001143 0.035654 0.000000 0.294341 -0.009434 0.000000 -0.000047 0.048824 0.000000 0.289152 -0.008771 0.000000 -0.000509 0.063012 0.000000 0.283011 -0.009134 0.000000 -0.001283 0.079963 0.000000 0.275784 -0.009972 0.000000 -0.002707 0.101143 0.000000 0.268100 -0.011160 0.000000 -0.005379 0.127991 0.000000 0.261235 -0.012308 0.000000 -0.009900 0.161632 0.000000 
0.280772 -0.011518 0.000000 -0.011588 0.226180 0.000000 0.277633 -0.008396 0.000000 -0.014712 0.276533 0.000000 0.277951 -0.000100 0.000000 -0.014798 -0.263112 0.000000 0.280198 -0.002093 0.000000 -0.015345 -0.213515 0.000000 0.286067 0.002259 0.000000 -0.014958 -0.172516 0.000000 0.293201 0.005877 0.000000 -0.013905 -0.138841 0.000000 0.300552 0.009012 0.000000 -0.011836 -0.110886 0.000000 0.308579 0.012093 0.000000 -0.006961 -0.087353 0.000000 0.320207 0.012897 0.000000 -0.002818 -0.072546 0.000000 0.326011 0.013253 0.000000 0.001488 -0.060357 0.000000 0.328662 0.012671 0.000000 0.005267 -0.049187 0.000000 0.330978 0.010810 0.000000 0.006571 -0.039133 0.000000 0.334634 0.009322 0.000000 0.006472 -0.031601 0.000000 0.337833 0.008973 0.000000 0.007107 -0.026479 0.000000 0.338257 0.009337 0.000000 0.010269 -0.021787 0.000000 0.336556 0.008217 0.000000 0.013597 -0.016104 0.000000 0.335241 0.005432 0.000000 0.014539 -0.009545 0.000000 0.336670 0.002555 0.000000 0.013111 -0.004364 0.000000 0.338664 0.001142 0.000000 0.011835 -0.000794 0.000000 0.338727 0.001072 0.000000 0.013225 0.002489 0.000000 0.336188 0.000048 0.000000 0.015452 0.007416 0.000000 0.333517 -0.002464 0.000000 0.016166 0.014019 0.000000 0.333018 -0.005700 0.000000 0.014099 0.020315 0.000000 0.333035 -0.007962 0.000000 0.011153 0.025406 0.000000 0.330044 -0.009758 0.000000 0.007562 0.029910 0.000000 0.318345 -0.011448 0.000000 0.001941 0.043093 0.000000 0.312498 -0.010204 0.000000 0.000174 0.057478 0.000000 0.307973 -0.009888 0.000000 -0.000605 0.073809 0.000000 0.303148 -0.010250 0.000000 -0.001407 0.093410 0.000000 0.297610 -0.010977 0.000000 -0.002638 0.117550 0.000000 0.291558 -0.011855 0.000000 -0.004664 0.147324 0.000000 0.285659 -0.012373 0.000000 -0.007766 0.183413 0.000000 
0.299240 -0.008389 0.000000 -0.012604 0.205977 0.000000 0.304512 -0.006189 0.000000 -0.015466 0.253465 0.000000 0.314429 -0.000013 0.000000 -0.015554 -0.242118 0.000000 0.307057 -0.002684 0.000000 -0.015898 -0.195313 0.000000 0.304290 0.000460 0.000000 -0.015187 -0.157235 0.000000 0.304433 0.003240 0.000000 -0.013687 -0.126592 0.000000 0.306522 0.005562 0.000000 -0.011145 -0.102091 0.000000 0.310714 0.007296 0.000000 -0.006339 -0.082816 0.000000 0.318612 0.008571 0.000000 -0.002061 -0.067341 0.000000 0.322557 0.009225 0.000000 0.002180 -0.055116 0.000000 0.324166 0.009367 0.000000 0.005760 -0.045191 0.000000 0.325725 0.009167 0.000000 0.007152 -0.036998 0.000000 0.328528 0.008717 0.000000 0.007275 -0.030133 0.000000 0.331020 0.008116 0.000000 0.008012 -0.024243 0.000000 0.331227 0.007283 0.000000 0.010817 -0.018993 0.000000 0.329655 0.006197 0.000000 0.013749 -0.014104 0.000000 0.328464 0.004863 0.000000 0.014629 -0.009502 0.000000 0.329568 0.003417 0.000000 0.013473 -0.005111 0.000000 0.331187 0.001997 0.000000 0.012448 -0.000889 0.000000 0.331163 0.000593 0.000000 0.013618 0.003371 0.000000 0.328956 -0.000819 0.000000 0.015500 0.007873 0.000000 0.326648 -0.002324 0.000000 0.016022 0.012758 0.000000 0.326151 -0.003836 0.000000 0.014100 0.018177 0.000000 0.326056 -0.005266 0.000000 0.011195 0.024400 0.000000 0.323234 -0.006407 0.000000 0.007553 0.032198 0.000000 0.313673 -0.007092 0.000000 0.002387 0.041501 0.000000 0.308724 -0.007668 0.000000 0.000262 0.053349 0.000000 0.305485 -0.007992 0.000000 -0.000883 0.067837 0.000000 0.302617 -0.008332 0.000000 -0.002027 0.085502 0.000000 0.299930 -0.008741 0.000000 -0.003608 0.107195 0.000000 0.297879 -0.009134 0.000000 -0.005926 0.133891 0.000000 0.297325 -0.009206 0.000000 -0.009077 0.166519 0.000000 
0.320195 -0.007991 0.000000 -0.009413 0.220908 0.000000 0.325059 -0.005534 0.000000 -0.011469 0.266615 0.000000 0.334417 -0.000012 0.000000 -0.011531 -0.255739 0.000000 0.327087 -0.001749 0.000000 -0.012178 -0.210748 0.000000 0.324172 0.001548 0.000000 -0.012155 -0.172659 0.000000 0.323855 0.004377 0.000000 -0.011563 -0.140931 0.000000 0.325060 0.006469 0.000000 -0.010088 -0.115078 0.000000 0.327862 0.007288 0.000000 -0.005677 -0.095251 0.000000 0.335664 0.008618 0.000000 -0.002160 -0.076491 0.000000 0.338222 0.009013 0.000000 0.001629 -0.061966 0.000000 0.338580 0.009090 0.000000 0.005064 -0.050746 0.000000 0.339165 0.009418 0.000000 0.006114 -0.041936 0.000000 0.341491 0.009200 0.000000 0.005864 -0.034093 0.000000 0.343711 0.008236 0.000000 0.006267 -0.026685 0.000000 0.343495 0.006532 0.000000 0.009174 -0.020215 0.000000 0.341437 0.005286 0.000000 0.012254 -0.014913 0.000000 0.339837 0.004552 0.000000 0.013082 -0.010648 0.000000 0.341053 0.003711 0.000000 0.011682 -0.005983 0.000000 0.342875 0.002167 0.000000 0.010424 -0.000770 0.000000 0.342975 -0.000098 0.000000 0.011805 0.004696 0.000000 0.340682 -0.001834 0.000000 0.013936 0.009723 0.000000 0.338393 -0.002986 0.000000 0.014641 0.014516 0.000000 0.338429 -0.003778 0.000000 0.012657 0.020411 0.000000 0.339251 -0.005056 0.000000 0.010001 0.028227 0.000000 0.337840 -0.006116 0.000000 0.006866 0.039471 0.000000 0.327643 -0.006282 0.000000 0.001360 0.048042 0.000000 0.324346 -0.008079 0.000000 -0.000160 0.060718 0.000000 0.322461 -0.008742 0.000000 -0.000957 0.076676 0.000000 0.320813 -0.009107 0.000000 -0.001833 0.096097 0.000000 0.319300 -0.009396 0.000000 -0.003054 0.119601 0.000000 0.318246 -0.009536 0.000000 -0.004764 0.147879 0.000000 0.318267 -0.009221 0.000000 -0.006978 0.181498 0.000000 
0.338621 -0.005955 0.000000 -0.010178 0.201113 0.000000 0.350161 -0.004133 0.000000 -0.012047 0.244106 0.000000 0.366703 0.000050 0.000000 -0.012109 -0.234788 0.000000 0.352122 -0.002037 0.000000 -0.012573 -0.192397 0.000000 0.342402 0.000436 0.000000 -0.012332 -0.156919 0.000000 0.336169 0.002648 0.000000 -0.011574 -0.127797 0.000000 0.332379 0.004087 0.000000 -0.010311 -0.104892 0.000000 0.330551 0.002885 0.000000 -0.007601 -0.090618 0.000000 0.332073 0.005055 0.000000 -0.005376 -0.069899 0.000000 0.331659 0.005436 0.000000 -0.003018 -0.055475 0.000000 0.330655 0.005932 0.000000 -0.000812 -0.045776 0.000000 0.330015 0.008117 0.000000 0.000254 -0.039324 0.000000 0.330369 0.008967 0.000000 0.000690 -0.032352 0.000000 0.330793 0.007713 0.000000 0.001380 -0.024027 0.000000 0.330162 0.004376 0.000000 0.003211 -0.016936 0.000000 0.328750 0.003117 0.000000 0.005060 -0.012504 0.000000 0.327617 0.004036 0.000000 0.005785 -0.010718 0.000000 0.327901 0.004817 0.000000 0.005395 -0.006933 0.000000 0.328540 0.003254 0.000000 0.004993 -0.000989 0.000000 0.328455 -0.000788 0.000000 0.005779 0.005665 0.000000 0.327317 -0.002951 0.000000 0.006847 0.010162 0.000000 0.326256 -0.003029 0.000000 0.007200 0.012722 0.000000 0.326380 -0.001852 0.000000 0.006239 0.017355 0.000000 0.326973 -0.002609 0.000000 0.004955 0.025811 0.000000 0.326707 -0.003273 0.000000 0.003419 0.042395 0.000000 0.322225 -0.001586 0.000000 0.000582 0.044798 0.000000 0.321402 -0.006148 0.000000 -0.000412 0.055234 0.000000 0.321444 -0.007195 0.000000 -0.001262 0.069485 0.000000 0.322038 -0.007456 0.000000 -0.002334 0.087015 0.000000 0.323432 -0.007520 0.000000 -0.003770 0.108249 0.000000 0.326151 -0.007424 0.000000 -0.005638 0.133869 0.000000 0.330930 -0.006991 0.000000 -0.007876 0.164591 0.000000 