# vtk DataFile Version 2.0
Comment goes here
ASCII

DATASET STRUCTURED_POINTS
FIELD FieldData 1
TIME 1 1 double
0.04400000
DIMENSIONS    64   64   1

ORIGIN    0.000   0.000   0.000
SPACING   0.03125 0.03125   1.000

POINT_DATA   4096
SCALARS uX double
LOOKUP_TABLE default

7.080687e-01 -1.238492e+00 3.915518e-01 -1.122919e+00 1.712079e-01 -1.044599e+00 2.581859e-01 -9.964637e-01 3.112818e-01 -9.497383e-01 3.088553e-01 -8.633676e-01 2.390247e-01 -7.232036e-01 1.159196e-01 -5.500749e-01 -2.765077e-02 -3.735659e-01 -1.680537e-01 -2.236594e-01 -2.793331e-01 -1.117807e-01 -3.537983e-01 -3.600086e-02 -3.999834e-01 2.077311e-02 -4.442569e-01 8.582634e-02 -5.094141e-01 1.740634e-01 -5.956277e-01 2.748212e-01 -6.880653e-01 3.722190e-01 -7.775959e-01 4.607825e-01 -8.581272e-01 5.270743e-01 -9.094357e-01 5.507425e-01 -9.175151e-01 5.321020e-01 -8.847745e-01 4.701363e-01 -8.089183e-01 3.715011e-01 -7.099706e-01 2.606208e-01 -6.112386e-01 1.476831e-01 -5.158007e-01 2.700425e-02 -4.124285e-01 -1.132558e-01 -2.793669e-01 -2.941312e-01 -1.011870e-01 -5.226716e-01 1.069837e-01 -7.696218e-01 3.060090e-01 -1.003810e+00 4.747977e-01 -1.226440e+00 
-5.947144e-01 3.718515e-01 -2.278341e-01 2.882340e-01 8.976848e-03 2.451788e-01 -1.609565e-01 2.094896e-01 -2.698876e-01 1.840971e-01 -3.266343e-01 1.392943e-01 -3.345772e-01 6.098456e-02 -3.093682e-01 -4.117579e-02 -2.721338e-01 -1.475003e-01 -2.218147e-01 -2.365085e-01 -1.801834e-01 -3.031973e-01 -1.546336e-01 -3.476661e-01 -1.440533e-01 -3.805364e-01 -1.302664e-01 -4.180510e-01 -1.001058e-01 -4.692341e-01 -6.071030e-02 -5.247210e-01 -2.085348e-02 -5.741809e-01 1.710366e-02 -6.157688e-01 5.336873e-02 -6.446896e-01 7.921615e-02 -6.521862e-01 8.461725e-02 -6.405904e-01 6.748285e-02 -6.025761e-01 2.571439e-02 -5.419244e-01 -2.436340e-02 -4.726287e-01 -6.883229e-02 -3.967710e-01 -1.036142e-01 -3.146329e-01 -1.369635e-01 -2.282085e-01 -1.846663e-01 -1.261734e-01 -2.547119e-01 -1.832812e-03 -3.359687e-01 1.300302e-01 -4.016685e-01 2.513536e-01 -4.407613e-01 3.754731e-01 
7.816234e-01 5.408858e-01 8.206135e-01 4.485063e-01 6.189530e-01 3.684046e-01 9.832487e-01 3.729037e-01 1.207029e+00 3.513113e-01 1.390644e+00 2.982638e-01 1.579983e+00 2.179329e-01 1.788358e+00 1.349622e-01 2.007629e+00 5.415315e-02 2.181546e+00 -1.499018e-02 2.307512e+00 -6.483995e-02 2.401662e+00 -9.978239e-02 2.472023e+00 -1.199118e-01 2.524336e+00 -1.439515e-01 2.574580e+00 -1.774347e-01 2.637935e+00 -2.195700e-01 2.708201e+00 -2.700729e-01 2.777325e+00 -3.267989e-01 2.832801e+00 -3.722400e-01 2.851912e+00 -3.860882e-01 2.838429e+00 -3.688959e-01 2.804387e+00 -3.302021e-01 2.743257e+00 -2.750641e-01 2.656798e+00 -2.203582e-01 2.548069e+00 -1.766354e-01 2.418379e+00 -1.388595e-01 2.275911e+00 -8.328680e-02 2.120877e+00 8.529278e-03 1.932532e+00 1.399369e-01 1.708846e+00 2.851502e-01 1.468631e+00 4.232459e-01 1.210103e+00 5.726751e-01 
2.619306e+00 -1.549781e-01 1.811773e+00 -1.897799e-01 8.664322e-01 -1.431906e-01 1.916634e+00 -1.401966e-01 2.539192e+00 -1.398172e-01 2.962230e+00 -1.212799e-01 3.272323e+00 -6.611217e-02 3.524406e+00 3.031807e-02 3.766366e+00 1.474405e-01 3.903215e+00 2.213058e-01 3.996980e+00 2.596167e-01 4.092428e+00 2.658006e-01 4.183349e+00 2.576290e-01 4.242173e+00 2.615957e-01 4.260724e+00 2.853767e-01 4.263575e+00 3.146704e-01 4.273628e+00 3.321452e-01 4.290445e+00 3.431299e-01 4.291112e+00 3.596681e-01 4.266806e+00 3.823113e-01 4.236950e+00 4.044309e-01 4.216271e+00 4.038864e-01 4.210623e+00 3.781166e-01 4.187145e+00 3.377375e-01 4.112355e+00 2.735920e-01 3.965936e+00 1.930283e-01 3.810381e+00 1.263831e-01 3.672427e+00 7.543967e-02 3.540987e+00 2.822554e-02 3.389007e+00 -1.676280e-02 3.180307e+00 -5.983045e-02 2.886097e+00 -1.324098e-01 
2.609456e+00 -5.734462e-02 1.990831e+00 -1.201383e-01 1.234976e+00 -9.883897e-02 2.047452e+00 -1.207237e-01 2.594210e+00 -1.159800e-01 2.985066e+00 -9.907524e-02 3.286477e+00 -5.887795e-02 3.548460e+00 2.843340e-02 3.835000e+00 1.831825e-01 3.975041e+00 2.489266e-01 4.057198e+00 2.739239e-01 4.152914e+00 2.663400e-01 4.242712e+00 2.506687e-01 4.291061e+00 2.594394e-01 4.298241e+00 2.815488e-01 4.296350e+00 2.988669e-01 4.316116e+00 2.916713e-01 4.353056e+00 2.830152e-01 4.370882e+00 2.978863e-01 4.349594e+00 3.303278e-01 4.318445e+00 3.608942e-01 4.297757e+00 3.595300e-01 4.295195e+00 3.394833e-01 4.270499e+00 3.260903e-01 4.180861e+00 3.029377e-01 4.012085e+00 1.908983e-01 3.833300e+00 1.109858e-01 3.690981e+00 6.955747e-02 3.553198e+00 4.419708e-02 3.391583e+00 2.569137e-02 3.179552e+00 6.533698e-03 2.898598e+00 -3.943830e-02 
2.697301e+00 -1.364037e-01 2.190582e+00 -1.467319e-01 1.583357e+00 -1.505216e-01 2.181633e+00 -1.377924e-01 2.676802e+00 -1.314016e-01 3.046619e+00 -1.208775e-01 3.331420e+00 -9.025176e-02 3.578967e+00 -1.631026e-02 3.908506e+00 1.981814e-01 4.000255e+00 2.478948e-01 4.060934e+00 2.812680e-01 4.148751e+00 2.720735e-01 4.243161e+00 2.537592e-01 4.297603e+00 2.691981e-01 4.300119e+00 3.067504e-01 4.288512e+00 3.439278e-01 4.294501e+00 3.430970e-01 4.330361e+00 3.274328e-01 4.356082e+00 3.361898e-01 4.333751e+00 3.715416e-01 4.295324e+00 4.104193e-01 4.267802e+00 4.084592e-01 4.273799e+00 3.797834e-01 4.273629e+00 3.605817e-01 4.208931e+00 3.269564e-01 3.985160e+00 1.916150e-01 3.820484e+00 1.037952e-01 3.702606e+00 5.535620e-02 3.585616e+00 1.867267e-02 3.442864e+00 -1.760181e-02 3.254782e+00 -5.698122e-02 3.007498e+00 -1.038854e-01 
2.797889e+00 -4.726934e-02 2.400798e+00 -7.498995e-02 1.923585e+00 -7.859967e-02 2.364495e+00 -8.886524e-02 2.759493e+00 -9.524665e-02 3.068796e+00 -1.037892e-01 3.311404e+00 -1.219030e-01 3.543638e+00 -1.269997e-01 4.007907e+00 3.056291e-01 4.042154e+00 2.930421e-01 4.056914e+00 3.009944e-01 4.156649e+00 2.427288e-01 4.282437e+00 2.011105e-01 4.336197e+00 2.480623e-01 4.311101e+00 3.017055e-01 4.279740e+00 3.414852e-01 4.292567e+00 2.857232e-01 4.365094e+00 2.340779e-01 4.419674e+00 2.677367e-01 4.375967e+00 3.354665e-01 4.317906e+00 4.016489e-01 4.283656e+00 3.627141e-01 4.318976e+00 2.981682e-01 4.364303e+00 3.069013e-01 4.309566e+00 5.116381e-01 3.983727e+00 1.384737e-01 3.797176e+00 3.879636e-02 3.711024e+00 2.639393e-02 3.610417e+00 2.334952e-02 3.476554e+00 1.608360e-02 3.301079e+00 1.683720e-03 3.076885e+00 -2.376986e-02 
2.954326e+00 -9.167884e-02 2.628150e+00 -1.023602e-01 2.245280e+00 -1.056653e-01 2.565346e+00 -1.060709e-01 2.888594e+00 -1.076651e-01 3.155310e+00 -1.184596e-01 3.363548e+00 -1.497177e-01 3.542521e+00 -1.550247e-01 3.795602e+00 -1.250156e-02 3.836262e+00 -2.049644e-02 3.896459e+00 1.749462e-02 3.971435e+00 2.915193e-03 4.066257e+00 -3.534940e-03 4.118415e+00 4.515878e-02 4.111271e+00 9.912642e-02 4.096575e+00 1.433718e-01 4.096371e+00 1.159139e-01 4.143702e+00 8.923391e-02 4.184591e+00 1.200042e-01 4.156120e+00 1.785249e-01 4.117256e+00 2.361199e-01 4.089319e+00 2.152302e-01 4.120134e+00 1.765157e-01 4.182018e+00 2.297081e-01 4.215398e+00 4.715037e-01 3.846013e+00 7.812126e-02 3.771619e+00 7.114387e-03 3.733731e+00 3.480728e-03 3.659204e+00 -2.726420e-03 3.547438e+00 -1.898557e-02 3.396992e+00 -4.270840e-02 3.202383e+00 -7.019959e-02 
3.102826e+00 -2.677478e-02 2.850382e+00 -4.088899e-02 2.558236e+00 -4.401432e-02 2.781904e+00 -5.139533e-02 3.019353e+00 -5.588421e-02 3.214186e+00 -5.941706e-02 3.320436e+00 -8.897738e-02 3.235002e+00 -2.591037e-01 2.440259e+00 -1.233581e+00 2.648767e+00 -1.323200e+00 2.830559e+00 -1.384712e+00 2.777975e+00 -1.264030e+00 2.617275e+00 -1.155069e+00 2.600179e+00 -1.229613e+00 2.757393e+00 -1.349535e+00 2.900332e+00 -1.440251e+00 2.910554e+00 -1.315949e+00 2.750019e+00 -1.163708e+00 2.622610e+00 -1.174768e+00 2.721538e+00 -1.292292e+00 2.856135e+00 -1.418823e+00 2.916261e+00 -1.323738e+00 2.796762e+00 -1.142363e+00 2.652448e+00 -1.095552e+00 2.725590e+00 -1.307827e+00 3.449145e+00 -4.383056e-01 3.754882e+00 -1.226485e-01 3.772115e+00 -2.622152e-02 3.707509e+00 3.301148e-03 3.606037e+00 8.838242e-03 3.473363e+00 2.596280e-03 3.307317e+00 -1.115701e-02 
3.277289e+00 -5.618103e-02 3.078156e+00 -6.086030e-02 2.853711e+00 -6.371096e-02 3.000476e+00 -6.583749e-02 3.173712e+00 -6.278849e-02 3.316534e+00 -5.343299e-02 3.368740e+00 -5.904082e-02 3.213234e+00 -2.239361e-01 2.375955e+00 -1.226168e+00 2.512521e+00 -1.348282e+00 2.673505e+00 -1.467855e+00 2.590422e+00 -1.367272e+00 2.379232e+00 -1.267666e+00 2.331463e+00 -1.379131e+00 2.500363e+00 -1.545689e+00 2.664386e+00 -1.677171e+00 2.676984e+00 -1.539901e+00 2.475032e+00 -1.364924e+00 2.306153e+00 -1.392263e+00 2.419352e+00 -1.559673e+00 2.584504e+00 -1.746678e+00 2.667113e+00 -1.654573e+00 2.517680e+00 -1.452304e+00 2.316995e+00 -1.431093e+00 2.362243e+00 -1.793516e+00 3.423887e+00 -5.795511e-01 3.802877e+00 -1.616015e-01 3.827899e+00 -4.533936e-02 3.774063e+00 -1.682287e-02 3.690421e+00 -1.710375e-02 3.581409e+00 -2.854282e-02 3.444717e+00 -4.348896e-02 
3.440498e+00 -4.658775e-03 3.296951e+00 -8.954698e-03 3.140062e+00 -1.156174e-02 3.225064e+00 -2.020256e-02 3.342032e+00 -2.893344e-02 3.456034e+00 -3.806692e-02 3.544489e+00 -5.033676e-02 3.613039e+00 -4.863098e-02 3.824576e+00 6.927121e-02 3.774537e+00 1.545096e-02 3.800360e+00 -1.998776e-02 3.834268e+00 -7.263747e-02 3.873867e+00 -1.112314e-01 3.895849e+00 -1.255899e-01 3.900310e+00 -1.357991e-01 3.907260e+00 -1.421418e-01 3.906233e+00 -1.653744e-01 3.917696e+00 -1.830616e-01 3.929511e+00 -1.858694e-01 3.926749e+00 -1.814681e-01 3.922463e+00 -1.779815e-01 3.911697e+00 -1.888686e-01 3.910053e+00 -1.978497e-01 3.921076e+00 -1.605882e-01 3.942884e+00 -6.890397e-02 3.845444e+00 -1.269563e-01 3.880487e+00 -6.436423e-02 3.871753e+00 -1.958155e-02 3.828659e+00 2.462045e-03 3.761745e+00 1.014694e-02 3.674369e+00 9.130551e-03 3.567196e+00 3.077388e-03 
3.614807e+00 -2.512469e-02 3.514151e+00 -2.457628e-02 3.409675e+00 -2.683982e-02 3.443789e+00 -3.483736e-02 3.515813e+00 -4.505378e-02 3.600726e+00 -6.340259e-02 3.690689e+00 -9.647550e-02 3.828322e+00 -1.175995e-01 4.263409e+00 3.500137e-01 4.236728e+00 3.401113e-01 4.193784e+00 3.408163e-01 4.261723e+00 2.711092e-01 4.370912e+00 2.245419e-01 4.406589e+00 2.754193e-01 4.358544e+00 3.328215e-01 4.311605e+00 3.736091e-01 4.317880e+00 3.052995e-01 4.396160e+00 2.408623e-01 4.456782e+00 2.706119e-01 4.408786e+00 3.396424e-01 4.349895e+00 4.073540e-01 4.322770e+00 3.570284e-01 4.380395e+00 2.824240e-01 4.458242e+00 3.059102e-01 4.442346e+00 5.752549e-01 4.085972e+00 1.031368e-01 3.950860e+00 -5.450213e-03 3.927723e+00 -1.038645e-02 3.898076e+00 -5.718272e-03 3.850594e+00 -6.469061e-03 3.786523e+00 -1.205364e-02 3.707252e+00 -1.933320e-02 
3.778493e+00 1.811948e-02 3.721800e+00 2.050490e-02 3.669881e+00 1.855954e-02 3.661778e+00 8.292256e-03 3.694182e+00 -4.997873e-03 3.752671e+00 -2.119927e-02 3.834632e+00 -3.195535e-02 3.965527e+00 -2.048746e-04 4.243358e+00 2.473845e-01 4.274285e+00 2.886428e-01 4.264354e+00 2.987582e-01 4.317511e+00 2.663250e-01 4.391829e+00 2.413207e-01 4.418651e+00 2.642117e-01 4.390614e+00 2.986666e-01 4.361646e+00 3.205890e-01 4.373214e+00 2.886531e-01 4.427660e+00 2.531022e-01 4.464516e+00 2.669918e-01 4.435098e+00 3.110733e-01 4.394147e+00 3.551807e-01 4.380817e+00 3.411868e-01 4.417195e+00 3.130943e-01 4.449455e+00 3.298963e-01 4.408260e+00 3.888483e-01 4.190710e+00 1.585639e-01 4.044700e+00 4.749215e-02 3.996819e+00 1.987037e-02 3.967571e+00 1.813638e-02 3.932745e+00 2.042332e-02 3.888461e+00 2.101068e-02 3.835973e+00 1.972165e-02 
3.944731e+00 3.735768e-03 3.923488e+00 8.737190e-03 3.913884e+00 7.180706e-03 3.869601e+00 -2.540854e-03 3.867750e+00 -1.537642e-02 3.898077e+00 -3.064969e-02 3.957413e+00 -3.502388e-02 4.060205e+00 1.383680e-02 4.267348e+00 2.428102e-01 4.316071e+00 2.868025e-01 4.308229e+00 2.917845e-01 4.354417e+00 2.671691e-01 4.411643e+00 2.558775e-01 4.424364e+00 2.788445e-01 4.394972e+00 3.096312e-01 4.369631e+00 3.261711e-01 4.384001e+00 3.020437e-01 4.430349e+00 2.790544e-01 4.455492e+00 2.944413e-01 4.426226e+00 3.294831e-01 4.390792e+00 3.601359e-01 4.386822e+00 3.461069e-01 4.422387e+00 3.244963e-01 4.446871e+00 3.381474e-01 4.402937e+00 3.584621e-01 4.228294e+00 1.741515e-01 4.095640e+00 6.468409e-02 4.055460e+00 2.566081e-02 4.039866e+00 1.433550e-02 4.022823e+00 1.015425e-02 3.999751e+00 6.956627e-03 3.972342e+00 4.363972e-03 
4.101681e+00 4.144168e-02 4.115793e+00 4.908047e-02 4.148253e+00 4.790738e-02 4.071643e+00 3.954671e-02 4.036686e+00 2.748507e-02 4.034857e+00 1.021043e-02 4.062455e+00 -1.121426e-02 4.135803e+00 -2.152410e-02 4.335973e+00 2.764986e-01 4.361158e+00 2.803529e-01 4.338783e+00 2.669065e-01 4.387122e+00 2.345786e-01 4.442711e+00 2.348578e-01 4.446834e+00 2.692066e-01 4.411671e+00 2.941614e-01 4.386044e+00 2.984321e-01 4.406087e+00 2.597132e-01 4.457042e+00 2.417753e-01 4.478780e+00 2.762350e-01 4.443073e+00 3.123630e-01 4.405564e+00 3.356637e-01 4.408929e+00 3.055930e-01 4.450658e+00 2.789422e-01 4.481992e+00 3.056262e-01 4.449011e+00 4.230570e-01 4.266740e+00 1.553397e-01 4.138076e+00 5.479477e-02 4.117851e+00 3.342108e-02 4.114690e+00 3.190790e-02 4.110498e+00 3.414209e-02 4.104660e+00 3.633954e-02 4.100158e+00 3.839087e-02 
4.255796e+00 3.156520e-02 4.299431e+00 4.093067e-02 4.366810e+00 4.017915e-02 4.261838e+00 3.398520e-02 4.198194e+00 2.569441e-02 4.168191e+00 1.435388e-02 4.164885e+00 -1.567433e-03 4.185357e+00 -1.185830e-02 4.225629e+00 3.207057e-02 4.233392e+00 3.244772e-02 4.231338e+00 4.783573e-02 4.245064e+00 4.872069e-02 4.266599e+00 5.684393e-02 4.272213e+00 7.831177e-02 4.258527e+00 9.919564e-02 4.245345e+00 1.134944e-01 4.248252e+00 1.059632e-01 4.268477e+00 1.033198e-01 4.280356e+00 1.215580e-01 4.266174e+00 1.434320e-01 4.249208e+00 1.627140e-01 4.248320e+00 1.567409e-01 4.267692e+00 1.488377e-01 4.290216e+00 1.667789e-01 4.300541e+00 2.417220e-01 4.192130e+00 8.745536e-02 4.161753e+00 3.969656e-02 4.174109e+00 2.988901e-02 4.187499e+00 2.793407e-02 4.199093e+00 2.724750e-02 4.211596e+00 2.700222e-02 4.228791e+00 2.799428e-02 
4.401679e+00 6.496570e-02 4.473987e+00 7.692283e-02 4.575552e+00 7.657562e-02 4.445076e+00 7.387415e-02 4.353738e+00 7.201545e-02 4.289308e+00 7.490600e-02 4.227283e+00 8.192944e-02 4.104701e+00 6.716887e-02 3.708242e+00 -5.880464e-01 3.671750e+00 -6.212563e-01 3.713642e+00 -5.914594e-01 3.618075e+00 -5.338307e-01 3.526915e+00 -5.540387e-01 3.544206e+00 -6.276906e-01 3.624849e+00 -6.627565e-01 3.669087e+00 -6.479025e-01 3.620952e+00 -5.606204e-01 3.527766e+00 -5.294000e-01 3.504344e+00 -5.975834e-01 3.582378e+00 -6.498667e-01 3.649238e+00 -6.601695e-01 3.628854e+00 -5.720958e-01 3.550344e+00 -5.070532e-01 3.511523e+00 -5.659910e-01 3.587062e+00 -7.857532e-01 3.930528e+00 -2.385407e-01 4.182816e+00 -2.973880e-02 4.243286e+00 2.657280e-02 4.266531e+00 4.299138e-02 4.287640e+00 4.944152e-02 4.314277e+00 5.367058e-02 4.350614e+00 5.828634e-02 
4.541219e+00 5.830439e-02 4.638162e+00 7.126260e-02 4.768785e+00 7.132995e-02 4.615010e+00 7.050635e-02 4.499063e+00 7.208648e-02 4.408367e+00 8.177103e-02 4.317665e+00 1.012574e-01 4.173186e+00 9.780276e-02 3.846066e+00 -4.179929e-01 3.768128e+00 -4.622621e-01 3.782856e+00 -4.602701e-01 3.686897e+00 -4.269313e-01 3.592551e+00 -4.584020e-01 3.595727e+00 -5.393531e-01 3.662167e+00 -5.859709e-01 3.700513e+00 -5.843217e-01 3.653465e+00 -5.111307e-01 3.562747e+00 -4.884155e-01 3.537614e+00 -5.614316e-01 3.611695e+00 -6.230629e-01 3.678846e+00 -6.463815e-01 3.663736e+00 -5.734345e-01 3.591716e+00 -5.216370e-01 3.556133e+00 -5.882173e-01 3.626176e+00 -8.118500e-01 3.984479e+00 -2.619748e-01 4.241333e+00 -3.755966e-02 4.306360e+00 2.430229e-02 4.338169e+00 4.060043e-02 4.371582e+00 4.517441e-02 4.413728e+00 4.763544e-02 4.468591e+00 5.136423e-02 
4.673162e+00 8.774145e-02 4.793565e+00 1.020009e-01 4.952055e+00 1.024290e-01 4.779662e+00 1.012648e-01 4.646073e+00 9.883663e-02 4.543804e+00 9.490310e-02 4.465338e+00 8.548058e-02 4.416945e+00 6.234006e-02 4.482072e+00 2.415291e-01 4.423828e+00 2.158148e-01 4.378327e+00 1.877003e-01 4.378552e+00 1.573828e-01 4.384042e+00 1.501210e-01 4.369400e+00 1.567360e-01 4.343517e+00 1.546181e-01 4.327575e+00 1.453351e-01 4.330239e+00 1.195652e-01 4.347150e+00 1.081381e-01 4.354448e+00 1.193944e-01 4.341520e+00 1.253770e-01 4.331809e+00 1.243786e-01 4.339245e+00 1.010973e-01 4.363141e+00 8.177731e-02 4.389722e+00 9.639122e-02 4.404105e+00 1.801459e-01 4.339480e+00 5.136687e-02 4.339355e+00 4.241592e-02 4.372526e+00 5.425996e-02 4.409843e+00 6.248257e-02 4.453848e+00 6.762011e-02 4.509244e+00 7.234891e-02 4.580566e+00 7.855540e-02 
4.796519e+00 8.310317e-02 4.937470e+00 9.761439e-02 5.120073e+00 9.843169e-02 4.930031e+00 9.814898e-02 4.779107e+00 9.608101e-02 4.662658e+00 9.015734e-02 4.579327e+00 7.337712e-02 4.546288e+00 4.174924e-02 4.630128e+00 2.889019e-01 4.594255e+00 2.856106e-01 4.533295e+00 2.679948e-01 4.539186e+00 2.432812e-01 4.553966e+00 2.506501e-01 4.533913e+00 2.816094e-01 4.492327e+00 2.965962e-01 4.464268e+00 2.927029e-01 4.473544e+00 2.574095e-01 4.505097e+00 2.451929e-01 4.514998e+00 2.750737e-01 4.487446e+00 2.966201e-01 4.464659e+00 3.023529e-01 4.477086e+00 2.645856e-01 4.517285e+00 2.346047e-01 4.552597e+00 2.572798e-01 4.550017e+00 3.817239e-01 4.450022e+00 1.470609e-01 4.396466e+00 7.399909e-02 4.427618e+00 6.453917e-02 4.473816e+00 6.489068e-02 4.529480e+00 6.625396e-02 4.598579e+00 6.885837e-02 4.685768e+00 7.402621e-02 
4.912777e+00 1.091326e-01 5.072779e+00 1.243248e-01 5.278014e+00 1.254698e-01 5.074668e+00 1.256402e-01 4.911517e+00 1.242605e-01 4.785631e+00 1.222118e-01 4.696287e+00 1.220999e-01 4.649169e+00 1.358638e-01 4.657168e+00 2.290657e-01 4.627018e+00 2.503712e-01 4.585020e+00 2.536119e-01 4.573223e+00 2.473457e-01 4.568951e+00 2.497717e-01 4.550385e+00 2.615623e-01 4.521656e+00 2.698458e-01 4.501617e+00 2.695654e-01 4.503086e+00 2.559173e-01 4.517272e+00 2.485659e-01 4.521551e+00 2.580395e-01 4.508143e+00 2.688089e-01 4.497616e+00 2.731433e-01 4.506308e+00 2.593626e-01 4.530173e+00 2.465306e-01 4.548538e+00 2.518648e-01 4.546746e+00 2.661773e-01 4.503183e+00 1.690603e-01 4.475884e+00 1.138161e-01 4.498078e+00 9.408689e-02 4.543649e+00 8.845536e-02 4.605629e+00 8.844703e-02 4.685089e+00 9.183039e-02 4.785734e+00 9.851277e-02 
5.018924e+00 1.057877e-01 5.195870e+00 1.208351e-01 5.420900e+00 1.223303e-01 5.203880e+00 1.232243e-01 5.027011e+00 1.227912e-01 4.888166e+00 1.226762e-01 4.786091e+00 1.278714e-01 4.721166e+00 1.531771e-01 4.692710e+00 2.175871e-01 4.662587e+00 2.436821e-01 4.621032e+00 2.505597e-01 4.599823e+00 2.502802e-01 4.584071e+00 2.551885e-01 4.559578e+00 2.650047e-01 4.531387e+00 2.720618e-01 4.512393e+00 2.720801e-01 4.511073e+00 2.640876e-01 4.518292e+00 2.601495e-01 4.518169e+00 2.660308e-01 4.507850e+00 2.721343e-01 4.502204e+00 2.723923e-01 4.512647e+00 2.609967e-01 4.533948e+00 2.504004e-01 4.549567e+00 2.492407e-01 4.549905e+00 2.413124e-01 4.534116e+00 1.763248e-01 4.520803e+00 1.265968e-01 4.547752e+00 1.021606e-01 4.600379e+00 9.183264e-02 4.671928e+00 8.857862e-02 4.762896e+00 8.992453e-02 4.876823e+00 9.550857e-02 
5.118339e+00 1.288262e-01 5.310471e+00 1.444390e-01 5.553613e+00 1.462337e-01 5.326173e+00 1.483306e-01 5.139048e+00 1.497336e-01 4.989749e+00 1.527285e-01 4.875783e+00 1.615304e-01 4.794237e+00 1.826487e-01 4.740750e+00 2.147482e-01 4.696995e+00 2.339563e-01 4.655133e+00 2.435043e-01 4.625678e+00 2.467311e-01 4.602077e+00 2.494756e-01 4.577246e+00 2.533944e-01 4.552991e+00 2.565672e-01 4.536048e+00 2.567375e-01 4.530432e+00 2.531078e-01 4.531186e+00 2.500645e-01 4.529820e+00 2.506879e-01 4.524749e+00 2.523126e-01 4.523526e+00 2.516795e-01 4.532019e+00 2.456204e-01 4.547485e+00 2.374926e-01 4.561055e+00 2.284252e-01 4.568728e+00 2.098711e-01 4.568518e+00 1.733532e-01 4.574374e+00 1.408598e-01 4.606491e+00 1.208640e-01 4.662309e+00 1.110883e-01 4.739374e+00 1.082387e-01 4.838588e+00 1.105027e-01 4.963242e+00 1.173175e-01 
5.206609e+00 1.262054e-01 5.412382e+00 1.415767e-01 5.671422e+00 1.436791e-01 5.432921e+00 1.465437e-01 5.234293e+00 1.490517e-01 5.073169e+00 1.537545e-01 4.946621e+00 1.645210e-01 4.851025e+00 1.854298e-01 4.782531e+00 2.123025e-01 4.729767e+00 2.311503e-01 4.682653e+00 2.420038e-01 4.646375e+00 2.476269e-01 4.616036e+00 2.520812e-01 4.586937e+00 2.565370e-01 4.560886e+00 2.598896e-01 4.542631e+00 2.606755e-01 4.534430e+00 2.586988e-01 4.531820e+00 2.566771e-01 4.528761e+00 2.563752e-01 4.524854e+00 2.560740e-01 4.525720e+00 2.534348e-01 4.535326e+00 2.465859e-01 4.550943e+00 2.373197e-01 4.566085e+00 2.255021e-01 4.578830e+00 2.053315e-01 4.590479e+00 1.743104e-01 4.607623e+00 1.451386e-01 4.647108e+00 1.247750e-01 4.709974e+00 1.131547e-01 4.795174e+00 1.083841e-01 4.903857e+00 1.091628e-01 5.039333e+00 1.150604e-01 
5.288333e+00 1.464242e-01 5.505869e+00 1.623365e-01 5.778981e+00 1.646979e-01 5.532055e+00 1.686378e-01 5.324852e+00 1.722255e-01 5.154450e+00 1.775177e-01 5.017601e+00 1.868425e-01 4.910406e+00 2.014367e-01 4.828663e+00 2.175573e-01 4.764544e+00 2.301080e-01 4.711514e+00 2.385172e-01 4.669306e+00 2.431427e-01 4.634571e+00 2.457633e-01 4.604341e+00 2.475888e-01 4.578922e+00 2.487572e-01 4.560492e+00 2.486676e-01 4.549910e+00 2.469915e-01 4.544666e+00 2.446696e-01 4.541346e+00 2.426967e-01 4.539506e+00 2.407546e-01 4.541999e+00 2.376216e-01 4.550977e+00 2.318585e-01 4.565249e+00 2.231754e-01 4.581659e+00 2.107648e-01 4.599366e+00 1.928343e-01 4.618930e+00 1.713501e-01 4.646936e+00 1.512863e-01 4.693287e+00 1.364057e-01 4.761093e+00 1.276922e-01 4.851644e+00 1.247205e-01 4.967079e+00 1.269411e-01 5.110973e+00 1.341416e-01 
5.358265e+00 1.440052e-01 5.586361e+00 1.596963e-01 5.871756e+00 1.623149e-01 5.615955e+00 1.669202e-01 5.399421e+00 1.713079e-01 5.219335e+00 1.774969e-01 5.072496e+00 1.873299e-01 4.955231e+00 2.012978e-01 4.863808e+00 2.162864e-01 4.791724e+00 2.287016e-01 4.732660e+00 2.377189e-01 4.684900e+00 2.435507e-01 4.645349e+00 2.473996e-01 4.611657e+00 2.501364e-01 4.583999e+00 2.519187e-01 4.563763e+00 2.523897e-01 4.551183e+00 2.513640e-01 4.544061e+00 2.494087e-01 4.539886e+00 2.471115e-01 4.538535e+00 2.442308e-01 4.542152e+00 2.398663e-01 4.552211e+00 2.329910e-01 4.567709e+00 2.232215e-01 4.586546e+00 2.099257e-01 4.608651e+00 1.922353e-01 4.635403e+00 1.719236e-01 4.671288e+00 1.528332e-01 4.724411e+00 1.379052e-01 4.798623e+00 1.283593e-01 4.895990e+00 1.242853e-01 5.019021e+00 1.255100e-01 5.171426e+00 1.320250e-01 
5.421687e+00 1.615341e-01 5.658456e+00 1.777169e-01 5.954220e+00 1.805417e-01 5.691935e+00 1.857926e-01 5.468784e+00 1.904343e-01 5.281559e+00 1.959621e-01 5.127071e+00 2.034698e-01 5.001702e+00 2.129320e-01 4.901611e+00 2.224441e-01 4.821557e+00 2.303976e-01 4.756721e+00 2.362830e-01 4.704360e+00 2.399317e-01 4.661672e+00 2.418555e-01 4.626572e+00 2.427049e-01 4.598450e+00 2.428235e-01 4.577562e+00 2.421186e-01 4.563673e+00 2.404158e-01 4.555376e+00 2.378798e-01 4.551109e+00 2.348388e-01 4.550622e+00 2.312913e-01 4.555004e+00 2.267109e-01 4.565167e+00 2.202837e-01 4.580857e+00 2.113945e-01 4.601284e+00 1.996522e-01 4.626708e+00 1.852654e-01 4.658480e+00 1.701524e-01 4.700827e+00 1.564402e-01 4.759469e+00 1.458574e-01 4.838317e+00 1.394451e-01 4.940320e+00 1.376305e-01 5.068663e+00 1.405811e-01 5.227393e+00 1.484759e-01 
5.472962e+00 1.588842e-01 5.717371e+00 1.748837e-01 6.021994e+00 1.779068e-01 5.752975e+00 1.836329e-01 5.522747e+00 1.887449e-01 5.328246e+00 1.946967e-01 5.166432e+00 2.023627e-01 5.033889e+00 2.116078e-01 4.926976e+00 2.209608e-01 4.840895e+00 2.291204e-01 4.771039e+00 2.355514e-01 4.714345e+00 2.400641e-01 4.668053e+00 2.429703e-01 4.630202e+00 2.447139e-01 4.600065e+00 2.455368e-01 4.577555e+00 2.453761e-01 4.562208e+00 2.440958e-01 4.552761e+00 2.417715e-01 4.547998e+00 2.385885e-01 4.547770e+00 2.345115e-01 4.552908e+00 2.291316e-01 4.564093e+00 2.218457e-01 4.581206e+00 2.122046e-01 4.603903e+00 2.000245e-01 4.632783e+00 1.856807e-01 4.669431e+00 1.707138e-01 4.717279e+00 1.570258e-01 4.781245e+00 1.461428e-01 4.865278e+00 1.391086e-01 4.972631e+00 1.365175e-01 5.106728e+00 1.387327e-01 5.271757e+00 1.460874e-01 
5.517678e+00 1.739442e-01 5.767880e+00 1.903672e-01 6.079412e+00 1.935354e-01 5.805950e+00 1.995178e-01 5.571209e+00 2.043858e-01 5.371872e+00 2.092695e-01 5.204933e+00 2.147824e-01 5.067017e+00 2.208271e-01 4.954497e+00 2.265930e-01 4.863179e+00 2.314283e-01 4.789098e+00 2.350329e-01 4.729138e+00 2.372519e-01 4.680629e+00 2.382304e-01 4.641574e+00 2.382756e-01 4.610823e+00 2.376145e-01 4.587764e+00 2.362591e-01 4.571733e+00 2.341162e-01 4.561761e+00 2.311825e-01 4.556974e+00 2.275490e-01 4.557153e+00 2.232067e-01 4.562735e+00 2.178901e-01 4.574228e+00 2.111622e-01 4.591851e+00 2.026788e-01 4.615792e+00 1.924304e-01 4.646843e+00 1.809831e-01 4.686656e+00 1.696275e-01 4.738404e+00 1.596587e-01 4.806133e+00 1.521343e-01 4.893606e+00 1.478834e-01 5.004359e+00 1.475082e-01 5.142174e+00 1.514653e-01 5.311488e+00 1.601687e-01 
5.550092e+00 1.707358e-01 5.805118e+00 1.869970e-01 6.122208e+00 1.902980e-01 5.844168e+00 1.965576e-01 5.604608e+00 2.016656e-01 5.400366e+00 2.067691e-01 5.228548e+00 2.124178e-01 5.085884e+00 2.185382e-01 4.968847e+00 2.245102e-01 4.873439e+00 2.297707e-01 4.795817e+00 2.340044e-01 4.732824e+00 2.370360e-01 4.681804e+00 2.389180e-01 4.640777e+00 2.398319e-01 4.608514e+00 2.399091e-01 4.584253e+00 2.391307e-01 4.567240e+00 2.374011e-01 4.556569e+00 2.346863e-01 4.551503e+00 2.310203e-01 4.551868e+00 2.263705e-01 4.558010e+00 2.205290e-01 4.570368e+00 2.131858e-01 4.589232e+00 2.041376e-01 4.614984e+00 1.934847e-01 4.648570e+00 1.817949e-01 4.691689e+00 1.701665e-01 4.747164e+00 1.598099e-01 4.818658e+00 1.517519e-01 4.909842e+00 1.468382e-01 5.024335e+00 1.457465e-01 5.166037e+00 1.490400e-01 5.339477e+00 1.572373e-01 
5.575866e+00 1.836446e-01 5.833919e+00 2.002602e-01 6.154616e+00 2.036399e-01 5.874232e+00 2.098740e-01 5.632307e+00 2.144908e-01 5.425500e+00 2.184639e-01 5.250916e+00 2.222797e-01 5.105300e+00 2.259810e-01 4.985177e+00 2.292836e-01 4.886850e+00 2.319206e-01 4.806787e+00 2.337383e-01 4.741928e+00 2.346510e-01 4.689674e+00 2.347008e-01 4.647981e+00 2.340204e-01 4.615404e+00 2.327214e-01 4.590921e+00 2.308145e-01 4.573674e+00 2.282423e-01 4.562853e+00 2.249678e-01 4.557841e+00 2.209958e-01 4.558431e+00 2.162970e-01 4.564825e+00 2.107342e-01 4.577411e+00 2.041086e-01 4.596630e+00 1.963163e-01 4.623095e+00 1.875222e-01 4.657877e+00 1.782682e-01 4.702716e+00 1.694406e-01 4.760271e+00 1.619501e-01 4.833849e+00 1.565909e-01 4.926971e+00 1.540593e-01 5.043335e+00 1.549692e-01 5.187007e+00 1.598752e-01 5.362670e+00 1.693038e-01 
5.589314e+00 1.796254e-01 5.849425e+00 1.960767e-01 6.172447e+00 1.995201e-01 5.889648e+00 2.058530e-01 5.645138e+00 2.105657e-01 5.435725e+00 2.146886e-01 5.258566e+00 2.187006e-01 5.110440e+00 2.226751e-01 4.987911e+00 2.264019e-01 4.887367e+00 2.296391e-01 4.805343e+00 2.322120e-01 4.738791e+00 2.340016e-01 4.685125e+00 2.349852e-01 4.642306e+00 2.352101e-01 4.608847e+00 2.347111e-01 4.583666e+00 2.334542e-01 4.565873e+00 2.313611e-01 4.554690e+00 2.283734e-01 4.549563e+00 2.244689e-01 4.550313e+00 2.196094e-01 4.557114e+00 2.136933e-01 4.570338e+00 2.065990e-01 4.590463e+00 1.983095e-01 4.618181e+00 1.890441e-01 4.654624e+00 1.793307e-01 4.701514e+00 1.699738e-01 4.761329e+00 1.618502e-01 4.837169e+00 1.557651e-01 4.932453e+00 1.524495e-01 5.050870e+00 1.525744e-01 5.196523e+00 1.567677e-01 5.374144e+00 1.656336e-01 
5.596040e+00 1.907540e-01 5.856459e+00 2.074970e-01 6.179870e+00 2.109499e-01 5.896850e+00 2.170545e-01 5.652134e+00 2.211582e-01 5.442391e+00 2.241945e-01 5.264741e+00 2.266427e-01 5.115944e+00 2.286742e-01 4.992597e+00 2.302622e-01 4.891230e+00 2.313324e-01 4.808533e+00 2.318272e-01 4.741544e+00 2.317101e-01 4.687717e+00 2.309926e-01 4.644977e+00 2.297240e-01 4.611729e+00 2.279434e-01 4.586765e+00 2.256425e-01 4.569136e+00 2.227757e-01 4.558087e+00 2.193007e-01 4.553105e+00 2.151944e-01 4.553996e+00 2.104264e-01 4.560881e+00 2.049353e-01 4.574117e+00 1.986612e-01 4.594251e+00 1.916371e-01 4.622083e+00 1.840866e-01 4.658815e+00 1.764693e-01 4.706185e+00 1.694363e-01 4.766579e+00 1.636825e-01 4.842930e+00 1.598652e-01 4.938563e+00 1.586048e-01 5.057177e+00 1.604982e-01 5.202945e+00 1.661285e-01 5.380682e+00 1.760712e-01 
5.590506e+00 1.857074e-01 5.850219e+00 2.022578e-01 6.172737e+00 2.057040e-01 5.889481e+00 2.117502e-01 5.644411e+00 2.158606e-01 5.434332e+00 2.190402e-01 5.256353e+00 2.217716e-01 5.107209e+00 2.242397e-01 4.983484e+00 2.264371e-01 4.881728e+00 2.282841e-01 4.798655e+00 2.296922e-01 4.731318e+00 2.305816e-01 4.677188e+00 2.309050e-01 4.634199e+00 2.306421e-01 4.600748e+00 2.297675e-01 4.575614e+00 2.282252e-01 4.557845e+00 2.259396e-01 4.546717e+00 2.228463e-01 4.541752e+00 2.189047e-01 4.542781e+00 2.140818e-01 4.549923e+00 2.083393e-01 4.563535e+00 2.016643e-01 4.584178e+00 1.941409e-01 4.612679e+00 1.860242e-01 4.650245e+00 1.777703e-01 4.698573e+00 1.700032e-01 4.759931e+00 1.634133e-01 4.837116e+00 1.586829e-01 4.933357e+00 1.564756e-01 5.052302e+00 1.574438e-01 5.198118e+00 1.622350e-01 5.375628e+00 1.714921e-01 
5.578176e+00 1.954415e-01 5.835473e+00 2.122262e-01 6.155189e+00 2.156120e-01 5.873861e+00 2.212699e-01 5.630773e+00 2.247064e-01 5.422606e+00 2.268568e-01 5.246385e+00 2.282161e-01 5.098790e+00 2.290388e-01 4.976392e+00 2.294273e-01 4.875787e+00 2.294095e-01 4.793761e+00 2.289854e-01 4.727417e+00 2.281458e-01 4.674254e+00 2.268899e-01 4.632197e+00 2.252254e-01 4.599598e+00 2.231510e-01 4.575179e+00 2.206414e-01 4.557962e+00 2.176533e-01 4.547225e+00 2.141449e-01 4.542506e+00 2.100866e-01 4.543625e+00 2.054566e-01 4.550682e+00 2.002385e-01 4.564029e+00 1.944463e-01 4.584258e+00 1.881765e-01 4.612242e+00 1.816603e-01 4.649224e+00 1.752826e-01 4.696899e+00 1.695523e-01 4.757480e+00 1.650321e-01 4.833678e+00 1.622920e-01 4.928659e+00 1.619033e-01 5.046056e+00 1.644445e-01 5.190058e+00 1.705056e-01 5.365527e+00 1.806841e-01 