# vtk DataFile Version 2.0
Comment goes here
ASCII

DATASET STRUCTURED_POINTS
FIELD FieldData 1
TIME 1 1 double
0.04400000
DIMENSIONS    64   64   1

ORIGIN    0.000   0.000   0.000
SPACING   0.03125 0.03125   1.000

POINT_DATA   4096
SCALARS Omega double
LOOKUP_TABLE default

-7.014470e-01 -4.091252e-02 -1.986834e-01 2.251530e-02 -2.798996e-01 -3.280992e-01 -2.208055e-01 -1.676186e-01 -2.346990e-01 -1.299418e-01 -2.162957e-01 -6.393673e-02 -1.629930e-01 5.898045e-02 -8.411003e-02 2.374670e-01 2.257875e-02 3.741817e-01 8.012499e-02 4.955830e-01 1.781493e-01 6.144061e-01 1.271904e-01 7.020142e-01 1.149132e-01 7.636237e-01 1.365217e-01 7.339606e-01 1.187311e-01 7.299458e-01 1.415145e-01 7.022305e-01 1.764544e-01 6.520889e-01 2.337788e-01 5.894892e-01 3.280215e-01 4.743206e-01 3.910643e-01 4.048665e-01 4.212459e-01 3.691102e-01 4.515934e-01 2.925279e-01 4.631289e-01 2.341836e-01 4.583063e-01 6.032644e-02 4.437721e-01 -1.259390e-01 3.823235e-01 -3.109922e-01 3.041292e-01 -4.490776e-01 2.298676e-01 -5.172170e-01 1.807928e-01 -5.661986e-01 1.745049e-01 -6.042304e-01 1.791804e-01 -6.320005e-01 3.089446e-01 -4.802422e-01 
3.232241e+00 -3.000653e+01 -7.790035e+00 -2.522574e+01 -9.694967e+00 -2.268243e+01 -1.149936e+01 -2.224479e+01 -1.420445e+01 -2.140083e+01 -1.720863e+01 -1.928905e+01 -2.121708e+01 -1.575760e+01 -2.643800e+01 -1.121976e+01 -3.212347e+01 -6.552558e+00 -3.737387e+01 -2.662501e+00 -4.125328e+01 -1.363518e-01 -4.375228e+01 1.286701e+00 -4.527231e+01 2.191777e+00 -4.676849e+01 3.683544e+00 -4.892302e+01 5.809622e+00 -5.145251e+01 8.192198e+00 -5.398172e+01 1.048092e+01 -5.634472e+01 1.272227e+01 -5.848979e+01 1.460673e+01 -5.974487e+01 1.540108e+01 -5.995227e+01 1.513617e+01 -5.887485e+01 1.359696e+01 -5.645696e+01 1.100320e+01 -5.332041e+01 8.130750e+00 -5.003059e+01 5.521564e+00 -4.681972e+01 2.915439e+00 -4.337524e+01 -1.401405e-01 -3.900612e+01 -4.546932e+00 -3.296555e+01 -1.054194e+01 -2.570000e+01 -1.707126e+01 -1.839484e+01 -2.304957e+01 -1.211932e+01 -3.058797e+01 
-6.007063e+01 8.427652e+00 -3.022663e+01 6.166645e+00 -7.037579e+00 5.011636e+00 -3.431360e+01 4.360784e+00 -4.606051e+01 4.208545e+00 -5.371401e+01 3.303817e+00 -5.871385e+01 1.376797e+00 -6.171574e+01 -1.367776e+00 -6.361155e+01 -4.250590e+00 -6.458083e+01 -6.715150e+00 -6.573535e+01 -8.202075e+00 -6.679972e+01 -9.007150e+00 -6.811623e+01 -9.475395e+00 -6.913507e+01 -1.028831e+01 -6.907220e+01 -1.157218e+01 -6.867941e+01 -1.290801e+01 -6.806570e+01 -1.401376e+01 -6.732677e+01 -1.515160e+01 -6.646332e+01 -1.599369e+01 -6.564132e+01 -1.630747e+01 -6.510577e+01 -1.622908e+01 -6.506293e+01 -1.532151e+01 -6.539858e+01 -1.384965e+01 -6.587920e+01 -1.193583e+01 -6.594124e+01 -1.017000e+01 -6.519912e+01 -8.376137e+00 -6.392729e+01 -6.649833e+00 -6.259002e+01 -4.403543e+00 -6.177846e+01 -1.333218e+00 -6.090949e+01 1.932756e+00 -5.869935e+01 4.548751e+00 -5.256304e+01 1.035015e+01 
-3.227567e+01 9.055355e+00 -1.556566e+01 8.587453e+00 -2.146985e+01 6.317982e+00 -1.456387e+01 7.980747e+00 -2.118933e+01 7.224451e+00 -2.514348e+01 5.844251e+00 -2.738168e+01 3.743108e+00 -2.821202e+01 1.070264e+00 -2.824958e+01 -1.596668e+00 -2.786650e+01 -3.815022e+00 -2.756349e+01 -4.947458e+00 -2.750874e+01 -5.545251e+00 -2.770010e+01 -5.693525e+00 -2.774093e+01 -6.238671e+00 -2.717931e+01 -7.000984e+00 -2.637004e+01 -7.885152e+00 -2.550076e+01 -8.743729e+00 -2.468734e+01 -9.731153e+00 -2.393272e+01 -1.069984e+01 -2.343512e+01 -1.125393e+01 -2.327073e+01 -1.134893e+01 -2.347670e+01 -1.080506e+01 -2.408892e+01 -9.645995e+00 -2.480101e+01 -8.171578e+00 -2.531488e+01 -6.770808e+00 -2.541429e+01 -5.274048e+00 -2.530378e+01 -3.709012e+00 -2.538818e+01 -1.662004e+00 -2.609590e+01 1.078265e+00 -2.704940e+01 3.872778e+00 -2.729245e+01 6.238828e+00 -2.553467e+01 1.097443e+01 
-1.087309e+00 1.205996e+00 -1.713389e+00 -2.435910e+00 -3.701636e+01 4.879158e-01 1.642584e+00 -1.040631e-01 1.300521e-01 -7.080356e-02 -3.903223e-01 -3.578890e-02 -6.409743e-01 9.366466e-03 -8.051656e-01 4.811709e-02 -7.912035e-01 -8.137503e-02 -7.995886e-01 -5.974006e-02 -6.686411e-01 -1.003949e-01 -6.711437e-01 -1.512588e-01 -5.969261e-01 -1.211793e-01 -4.721048e-01 -2.347191e-01 -4.996433e-01 -2.602243e-01 -4.217725e-01 -2.441235e-01 -4.324508e-01 -2.608941e-01 -4.903846e-01 -1.368583e-01 -4.558608e-01 -1.151250e-01 -5.883535e-01 -9.061612e-02 -6.313963e-01 -8.882459e-03 -5.904929e-01 -8.382788e-02 -6.363095e-01 -1.076465e-01 -5.236205e-01 -1.718022e-01 -4.251310e-01 -3.325273e-01 -3.147910e-01 -3.338075e-01 -2.601596e-01 -2.597330e-01 -2.202916e-01 -1.682441e-01 -1.917807e-01 -4.723204e-02 -1.922959e-01 1.126278e-01 -2.413481e-01 3.150392e-01 -4.027254e-01 6.826816e-01 
-7.044113e-01 5.427435e-01 -1.341837e+00 -2.087218e+00 -4.797150e+01 -5.987079e-01 1.672564e+00 -4.495932e-01 9.227140e-01 -2.202777e-01 4.680859e-01 -1.132757e-01 2.119534e-01 -8.070431e-03 2.304529e-02 8.848091e-02 9.466020e-02 -1.772696e-01 1.619691e-02 -5.107436e-02 1.502926e-01 -2.892902e-02 -2.102998e-03 -1.012636e-01 -3.425561e-02 5.482991e-02 7.967083e-02 -5.066233e-02 -7.119221e-02 -5.544469e-02 1.891219e-02 3.359761e-02 -1.078905e-02 -9.232406e-02 -8.777484e-02 2.688404e-02 7.854458e-02 7.893244e-03 -4.733937e-02 -4.878227e-02 -4.605851e-02 1.206739e-01 5.299994e-02 2.606818e-02 -9.796935e-02 3.906972e-02 -1.155637e-02 8.734063e-02 2.457894e-02 -1.129537e-01 5.294824e-02 -3.522303e-02 3.894697e-03 5.362423e-02 -5.372493e-02 9.692468e-02 -1.090607e-01 1.273239e-01 -1.760482e-01 1.734678e-01 -2.923307e-01 2.449096e-01 -5.486130e-01 3.940631e-01 
-7.959145e-01 4.330701e-01 -1.060679e+00 -2.501268e+00 -5.564574e+01 -6.627670e-01 1.362850e+00 -4.398836e-01 9.384423e-01 -2.800013e-01 5.328016e-01 -1.576913e-01 2.618954e-01 3.199777e-02 -6.099116e-02 2.739525e-01 1.049342e-01 -3.635638e-01 1.734202e-02 -5.565779e-02 3.637375e-01 1.811030e-02 -5.074011e-02 -2.243080e-01 -1.071147e-02 1.843848e-01 1.886507e-01 -1.002943e-01 -1.863998e-01 -1.372020e-01 1.155506e-01 1.372812e-01 -5.938222e-02 -2.243803e-01 -1.696391e-01 8.816567e-02 2.203706e-01 3.667581e-02 -1.607366e-01 -1.660954e-01 -2.665485e-02 2.879634e-01 1.449224e-01 9.141440e-03 -2.141984e-01 5.246449e-02 5.720595e-02 2.564540e-01 -4.148397e-02 -3.100205e-01 1.978609e-01 -4.377911e-02 4.015952e-02 1.143258e-01 -9.090279e-02 1.410144e-01 -1.719274e-01 1.530499e-01 -2.504161e-01 1.894314e-01 -3.659271e-01 2.680725e-01 -5.646178e-01 3.807617e-01 
-6.850045e-01 4.455846e-01 -7.062067e-01 -2.255333e+00 -6.206733e+01 -7.731967e-01 7.722800e-01 -6.020837e-01 7.823174e-01 -3.901413e-01 5.249830e-01 -2.201802e-01 2.655256e-01 7.587102e-02 -2.049367e-01 6.278122e-01 1.501226e-01 -7.139036e-01 -9.077441e-02 -8.819601e-02 5.764910e-01 2.306364e-01 -1.977595e-01 -5.088474e-01 -8.016350e-02 3.852095e-01 3.392268e-01 -8.442886e-02 -3.339961e-01 -3.263328e-01 2.586783e-01 4.536343e-01 -7.685675e-02 -4.103768e-01 -2.577177e-01 1.248539e-01 4.452050e-01 2.249423e-01 -2.954295e-01 -4.210266e-01 -5.395458e-02 4.888057e-01 2.369057e-01 -1.271145e-02 -3.890946e-01 -7.428457e-02 1.108488e-01 5.500787e-01 -1.450905e-01 -5.418772e-01 3.098187e-01 -2.777072e-02 7.239955e-02 1.670410e-01 -8.477798e-02 1.959997e-01 -1.584405e-01 2.140864e-01 -2.246201e-01 2.577358e-01 -3.317383e-01 3.304197e-01 -5.089520e-01 4.111850e-01 
-6.049062e-01 4.159692e-01 -3.578160e-01 -2.563432e+00 -6.627946e+01 -6.886264e-01 4.575877e-01 -6.016697e-01 6.452201e-01 -4.648141e-01 5.308524e-01 -3.559171e-01 3.807965e-01 1.307740e-01 -4.990419e-01 1.327694e+00 6.389581e-01 -5.782469e-01 -1.095787e-01 7.959921e-01 1.332001e+00 8.006284e-01 -5.398920e-01 -8.454521e-01 8.975902e-02 1.437134e+00 7.921492e-01 -1.888213e-01 -7.581602e-01 -5.110673e-01 8.723448e-01 1.334658e+00 -2.216380e-01 -1.099375e+00 -4.024129e-01 6.593495e-01 1.119145e+00 5.249519e-01 -7.620085e-01 -1.221299e+00 2.201967e-01 1.442879e+00 5.806214e-01 -3.632754e-01 -7.999158e-01 -3.900957e-01 6.208267e-01 1.712398e+00 -8.259855e-01 -2.268801e+00 9.371974e-01 1.694856e-01 6.551854e-02 3.280862e-01 -2.060504e-01 2.304914e-01 -2.387958e-01 2.165712e-01 -2.717110e-01 2.568919e-01 -3.491793e-01 3.282304e-01 -4.746576e-01 3.960732e-01 
-4.459211e-01 4.063361e-01 -3.112998e-02 -2.436736e+00 -6.973426e+01 -6.788895e-01 1.135329e-01 -6.952767e-01 4.448868e-01 -6.078238e-01 4.629881e-01 -5.934891e-01 3.638625e-01 -1.620691e-01 -8.810839e-01 -1.431874e+00 1.024903e+01 1.139077e+01 2.126413e+00 7.449961e+00 8.456293e+00 3.975270e+00 4.454627e+00 7.960429e+00 2.097273e+00 4.478528e+00 9.025795e+00 5.330835e+00 2.674214e+00 7.169932e+00 5.264786e+00 2.536307e+00 6.590482e+00 6.032958e+00 1.508116e+00 5.914136e+00 7.854117e+00 2.678105e+00 4.264863e+00 5.754549e+00 2.267031e+00 3.759756e+00 7.893072e+00 3.638081e+00 2.450805e+00 5.184750e+00 4.198910e+00 2.263320e+00 5.447635e+00 2.023167e+00 2.361905e+00 9.959184e-01 -1.512488e-02 4.381237e-01 -2.744508e-01 2.836023e-01 -2.414290e-01 2.634861e-01 -2.385138e-01 2.985353e-01 -2.884490e-01 3.574985e-01 -3.756074e-01 4.157323e-01 
-3.339986e-01 3.694891e-01 2.698256e-01 -2.571572e+00 -7.159365e+01 -6.035876e-01 -9.380573e-02 -6.925183e-01 2.850356e-01 -6.978184e-01 4.259161e-01 -1.121836e+00 8.363572e-01 -2.088689e+00 1.457796e+00 -7.399190e+00 3.769635e+01 4.155414e+01 1.234910e+01 2.617811e+01 3.476043e+01 1.135160e+01 2.454023e+01 4.058866e+01 1.239737e+01 1.370490e+01 4.187977e+01 2.591163e+01 1.825607e+01 4.059621e+01 2.517226e+01 6.166976e+00 3.442296e+01 3.845228e+01 1.193191e+01 2.882863e+01 3.889960e+01 1.268666e+01 2.578946e+01 4.242938e+01 1.337341e+01 1.368233e+01 4.170969e+01 2.581894e+01 1.762424e+01 3.794583e+01 2.428315e+01 5.285366e+00 3.546238e+01 4.775718e+01 8.160263e+00 4.827313e+00 -1.745152e+00 2.896450e-01 -6.962464e-01 1.770494e-01 -3.172938e-01 2.261198e-01 -2.448167e-01 2.841170e-01 -2.658666e-01 3.474593e-01 -3.145665e-01 4.054110e-01 
-1.825675e-01 3.473667e-01 5.248474e-01 -2.444253e+00 -7.292515e+01 -5.551533e-01 -2.647841e-01 -6.922244e-01 1.615947e-01 -7.126691e-01 4.714735e-01 -1.215736e+00 1.286725e+00 -3.006644e+00 2.922689e+00 -4.145501e+00 2.435473e+01 2.028020e+01 1.014075e+01 1.730827e+01 2.382441e+01 4.268670e+00 2.177675e+01 2.762093e+01 9.021050e+00 1.158179e+01 3.265680e+01 1.650850e+01 1.742029e+01 3.312867e+01 1.749003e+01 5.209384e+00 3.095759e+01 2.902632e+01 9.579246e+00 2.688257e+01 3.038560e+01 9.365384e+00 2.545674e+01 3.596802e+01 8.457717e+00 1.491785e+01 3.623167e+01 2.092456e+01 1.744348e+01 3.652169e+01 1.715849e+01 7.939841e+00 3.938292e+01 4.770870e+01 1.170548e+00 4.614411e+00 -1.888736e+00 5.680859e-01 -6.758771e-01 2.525086e-01 -2.732035e-01 2.612734e-01 -1.859939e-01 3.061991e-01 -1.884661e-01 3.590886e-01 -2.073748e-01 4.093010e-01 
-7.882151e-02 3.105429e-01 7.534514e-01 -2.440807e+00 -7.306015e+01 -4.940882e-01 -3.883742e-01 -5.856335e-01 1.829118e-02 -3.628849e-01 1.866756e-01 1.363227e-02 1.236082e-01 7.423262e-01 8.013191e-01 3.099580e+00 -3.551462e+01 -3.664865e+01 -7.868989e+00 -2.626125e+01 -2.814403e+01 -1.087830e+01 -2.306008e+01 -3.482397e+01 -7.519219e+00 -1.479954e+01 -3.476173e+01 -2.008872e+01 -1.684433e+01 -3.530840e+01 -1.709896e+01 -6.173520e+00 -3.063044e+01 -2.904007e+01 -9.201508e+00 -2.640432e+01 -2.913275e+01 -8.526066e+00 -2.413371e+01 -3.278511e+01 -8.547737e+00 -1.314649e+01 -3.284360e+01 -1.675201e+01 -1.641652e+01 -3.010559e+01 -1.600562e+01 -4.763695e+00 -3.170600e+01 -3.569392e+01 -2.374961e+00 -1.599184e+00 6.566906e-01 3.679942e-01 1.761380e-01 3.292065e-01 -3.350579e-02 2.904093e-01 -1.042501e-01 3.087029e-01 -1.347947e-01 3.520822e-01 -1.392435e-01 3.989959e-01 
4.768369e-02 2.831302e-01 9.342616e-01 -2.281101e+00 -7.277691e+01 -4.379915e-01 -5.024588e-01 -5.464414e-01 -1.726657e-01 -2.799764e-01 -1.351039e-01 3.553654e-01 -6.614793e-01 1.802962e+00 -2.067761e+00 8.584162e+00 -3.285282e+01 -3.595270e+01 -1.333072e+01 -2.246342e+01 -3.354686e+01 -9.968241e+00 -2.344439e+01 -3.796332e+01 -1.308293e+01 -1.262447e+01 -4.122915e+01 -2.503728e+01 -1.838899e+01 -3.990013e+01 -2.544810e+01 -6.006517e+00 -3.469737e+01 -3.865143e+01 -1.221525e+01 -2.925580e+01 -3.945193e+01 -1.290323e+01 -2.662828e+01 -4.386659e+01 -1.345919e+01 -1.436529e+01 -4.320071e+01 -2.711275e+01 -1.848800e+01 -4.081241e+01 -2.472659e+01 -6.101100e+00 -3.893088e+01 -5.364234e+01 -7.229241e+00 -5.323580e+00 1.868470e+00 -3.162727e-03 5.479040e-01 2.512098e-01 9.505583e-02 2.758401e-01 -2.501871e-02 3.063442e-01 -5.526163e-02 3.481522e-01 -4.180797e-02 3.901136e-01 
1.268904e-01 2.491578e-01 1.094837e+00 -2.256654e+00 -7.164883e+01 -3.593126e-01 -5.815061e-01 -5.248198e-01 -3.015202e-01 -3.124220e-01 -2.701508e-01 -2.949690e-02 -5.266204e-01 2.977773e-01 -7.030411e-01 1.015506e+00 -5.483291e+00 -2.337325e+00 -2.675390e+00 -3.006096e+00 -6.166384e+00 -8.573552e-01 -3.941517e+00 -4.244825e+00 -2.513308e+00 -3.013431e+00 -8.037987e+00 -3.541122e+00 -2.909029e+00 -6.084069e+00 -5.347629e+00 -2.080678e+00 -6.736634e+00 -6.079280e+00 -1.726432e+00 -6.123547e+00 -8.451060e+00 -3.048403e+00 -4.748918e+00 -7.433583e+00 -2.418578e+00 -4.378393e+00 -9.462786e+00 -5.804718e+00 -2.745164e+00 -8.429815e+00 -5.155014e+00 -3.317335e+00 -8.152549e+00 -8.611680e+00 -2.690101e+00 -2.408653e+00 4.096413e-01 -3.394619e-01 2.617565e-01 8.729428e-02 8.200951e-02 2.157016e-01 4.173980e-03 2.794302e-01 -1.485081e-02 3.308679e-01 1.315225e-02 3.756789e-01 
2.223184e-01 2.162978e-01 1.210152e+00 -2.098773e+00 -7.014472e+01 -2.991660e-01 -6.341892e-01 -4.807929e-01 -4.107689e-01 -2.858684e-01 -3.710806e-01 -8.992139e-02 -4.799481e-01 -1.814029e-01 -1.031235e-01 -1.850614e+00 8.413968e-01 1.516743e+00 -2.447396e-01 -5.280570e-01 -9.557651e-01 -2.664089e-01 6.774312e-01 1.222033e+00 -3.412590e-01 -1.325651e+00 -5.295661e-01 4.826204e-01 6.874488e-01 6.098388e-01 -8.768342e-01 -1.295885e+00 2.415338e-01 1.173745e+00 3.751038e-01 -6.702427e-01 -1.084771e+00 -5.622412e-01 7.032478e-01 1.191438e+00 -8.569350e-02 -1.504627e+00 -7.127644e-01 1.896693e-01 8.296329e-01 2.627359e-01 -4.626504e-01 -1.907311e+00 2.130028e-01 2.307721e+00 -7.122120e-01 -3.961149e-01 1.014147e-01 -2.631079e-01 2.002071e-01 4.284138e-02 1.112447e-01 1.874153e-01 5.471311e-02 2.621520e-01 4.803609e-02 3.154250e-01 9.014066e-02 3.571800e-01 
2.730701e-01 1.854072e-01 1.307554e+00 -2.064937e+00 -6.806044e+01 -2.312485e-01 -6.507422e-01 -4.964547e-01 -4.418535e-01 -3.421026e-01 -3.446570e-01 -2.138107e-01 -3.078617e-01 -2.257511e-01 -2.598380e-02 -8.424741e-01 5.069759e-01 1.310805e-01 -9.307748e-06 -3.160370e-01 -3.130848e-01 -1.873918e-01 2.638235e-01 2.540724e-01 -5.806551e-02 -4.598958e-01 -1.918449e-01 3.383324e-02 2.846597e-01 2.094219e-01 -2.581697e-01 -4.650972e-01 8.554977e-02 3.418334e-01 2.112845e-01 -9.483088e-02 -4.167958e-01 -2.679497e-01 2.681965e-01 4.692102e-01 8.962483e-02 -3.881375e-01 -2.920750e-01 7.189600e-03 3.789223e-01 3.358966e-01 -1.026853e-01 -4.996152e-01 -1.274272e-01 9.406974e-01 -2.405553e-01 -1.001404e-02 5.330407e-02 -7.541240e-02 1.019357e-01 6.181261e-02 7.187910e-02 1.680043e-01 5.330884e-02 2.399375e-01 6.744756e-02 2.959782e-01 1.243241e-01 3.400512e-01 
3.367140e-01 1.503866e-01 1.367092e+00 -1.925568e+00 -6.559784e+01 -1.700894e-01 -6.451748e-01 -4.720245e-01 -4.688795e-01 -3.560947e-01 -3.421247e-01 -2.658715e-01 -2.494620e-01 -2.445404e-01 -5.608196e-02 -3.941713e-01 1.829211e-01 -2.036703e-01 5.078506e-03 -2.389328e-01 -9.032510e-02 -7.327513e-02 6.255212e-02 -2.180397e-02 -1.404101e-02 -1.822317e-01 -8.247540e-02 -1.927788e-02 8.712591e-02 1.304122e-02 -5.582871e-02 -1.188022e-01 -9.003745e-03 6.243377e-02 8.765207e-02 -3.498713e-02 -1.305707e-01 -5.382987e-02 6.527922e-02 1.253582e-01 7.981496e-02 -8.461511e-02 -1.290589e-01 1.183987e-02 1.352582e-01 1.603825e-01 -1.601524e-03 -1.637910e-02 -1.950969e-01 3.872451e-01 -5.321757e-02 9.447866e-02 5.051511e-02 4.274528e-02 7.376473e-02 1.015847e-01 7.054985e-02 1.700083e-01 7.670039e-02 2.283601e-01 1.079633e-01 2.783052e-01 1.770363e-01 3.170017e-01 
3.614586e-01 1.233212e-01 1.406249e+00 -1.869265e+00 -6.273409e+01 -1.239514e-01 -6.232637e-01 -4.898058e-01 -4.532716e-01 -3.970325e-01 -2.980683e-01 -3.153584e-01 -1.846167e-01 -1.708911e-01 -1.598016e-01 1.305344e-01 -1.123934e-01 -6.332042e-01 4.804852e-02 -8.575252e-02 1.954181e-01 3.277105e-02 -1.664524e-01 -3.135383e-01 8.692170e-02 1.858741e-01 -3.735752e-03 -1.463095e-01 -1.233373e-01 -1.261135e-01 2.033254e-01 1.963935e-01 -1.684709e-01 -2.517853e-01 1.811001e-02 1.322273e-01 1.314862e-01 4.181630e-02 -1.856746e-01 -1.946937e-01 1.779593e-01 2.761245e-01 -5.512263e-02 -1.007019e-01 -8.788412e-02 8.356768e-02 1.603068e-01 3.974310e-01 -4.510775e-01 -1.594749e-01 2.535584e-01 1.259891e-01 8.274898e-02 1.407942e-01 2.716219e-02 1.398747e-01 3.560179e-02 1.717671e-01 6.448607e-02 2.161137e-01 1.124918e-01 2.618242e-01 1.923679e-01 2.994369e-01 
3.968102e-01 8.991859e-02 1.417517e+00 -1.741810e+00 -5.948258e+01 -6.339557e-02 -5.838254e-01 -4.730801e-01 -4.412686e-01 -4.373719e-01 -2.566205e-01 -4.100845e-01 -1.078905e-01 -1.693448e-01 -2.815827e-01 4.486149e-01 -5.852696e-02 -2.198610e-01 7.009413e-02 5.815147e-01 5.929917e-01 3.855353e-01 -3.363798e-01 -2.428571e-01 2.059054e-01 8.059008e-01 2.486764e-01 -1.277159e-01 -2.910879e-01 1.474502e-02 5.547874e-01 6.282986e-01 -1.648291e-01 -4.965122e-01 -1.906882e-02 5.373017e-01 5.406754e-01 1.384946e-01 -3.086704e-01 -4.958050e-01 3.549616e-01 7.693320e-01 2.082774e-01 -3.405294e-01 -1.920751e-01 3.454789e-02 4.856218e-01 8.718719e-01 -5.361975e-01 -1.198465e+00 6.374394e-01 1.724260e-01 9.347847e-02 2.737276e-01 -3.567363e-02 1.860524e-01 9.003043e-03 1.770219e-01 6.991195e-02 2.055904e-01 1.355017e-01 2.435881e-01 2.237904e-01 2.748588e-01 
4.004138e-01 6.702471e-02 1.404186e+00 -1.652244e+00 -5.595971e+01 -3.915890e-02 -5.475859e-01 -4.723283e-01 -4.127903e-01 -4.675802e-01 -2.257813e-01 -5.489347e-01 -6.389046e-02 -6.154822e-01 1.114872e-01 -3.004939e+00 5.202584e+00 9.939558e+00 3.462649e+00 3.921082e+00 7.669488e+00 4.964221e+00 2.969511e+00 7.569124e+00 3.868430e+00 1.862076e+00 7.396218e+00 7.231256e+00 2.517531e+00 6.204734e+00 6.527763e+00 2.142021e+00 4.991957e+00 7.783813e+00 2.698698e+00 3.652249e+00 8.186590e+00 4.356438e+00 3.278426e+00 7.072350e+00 4.118528e+00 1.596987e+00 7.287305e+00 6.377753e+00 2.651519e+00 5.372800e+00 6.162460e+00 1.582822e+00 4.875061e+00 8.099817e+00 3.488152e+00 1.662690e+00 -1.355050e-01 3.162366e-01 -1.598937e-01 1.824876e-01 -2.925281e-02 1.722780e-01 5.815513e-02 1.952804e-01 1.336309e-01 2.286568e-01 2.257848e-01 2.569436e-01 
4.132301e-01 3.830264e-02 1.371722e+00 -1.513713e+00 -5.204844e+01 1.472614e-02 -4.995253e-01 -4.277785e-01 -4.024580e-01 -4.880951e-01 -1.925796e-01 -8.072094e-01 2.057717e-01 -1.707477e+00 1.569114e+00 -8.014080e+00 1.451033e+01 2.403841e+01 9.402496e+00 8.777593e+00 2.026783e+01 1.104761e+01 1.024578e+01 2.139548e+01 1.057686e+01 3.547797e+00 2.149434e+01 1.995139e+01 8.580331e+00 1.867147e+01 1.778511e+01 4.554770e+00 1.612015e+01 2.405041e+01 7.893599e+00 1.059198e+01 2.345769e+01 1.232297e+01 1.125425e+01 2.337258e+01 1.101564e+01 3.888648e+00 2.216282e+01 2.038941e+01 8.508153e+00 1.805979e+01 1.725758e+01 3.615275e+00 1.757860e+01 3.145796e+01 7.788496e+00 4.651484e+00 -1.023733e+00 3.437469e-01 -4.014277e-01 1.335858e-01 -6.065752e-02 1.481078e-01 6.837630e-02 1.778265e-01 1.509318e-01 2.090487e-01 2.424983e-01 2.321188e-01 
4.003334e-01 2.088895e-02 1.311878e+00 -1.384901e+00 -4.797601e+01 1.554265e-02 -4.586323e-01 -3.822911e-01 -3.596139e-01 -3.867980e-01 -1.507958e-01 -5.436192e-01 2.471214e-01 -1.093921e+00 1.183518e+00 -2.758212e+00 4.138447e+00 4.974284e+00 3.487185e+00 1.790125e+00 6.627549e+00 1.977138e+00 4.265216e+00 6.627589e+00 3.978033e+00 8.578221e-01 8.062692e+00 6.353219e+00 3.648976e+00 6.973798e+00 6.616825e+00 1.430420e+00 6.726784e+00 9.072041e+00 2.976434e+00 4.471969e+00 9.207006e+00 4.756530e+00 4.872090e+00 9.726435e+00 3.924028e+00 2.044512e+00 9.267138e+00 8.664734e+00 3.319263e+00 8.356356e+00 6.533690e+00 2.249524e+00 8.477279e+00 1.480685e+01 2.438207e+00 2.537590e+00 -6.535221e-01 3.676290e-01 -2.220016e-01 1.640529e-01 -1.224451e-02 1.514275e-01 7.947856e-02 1.684270e-01 1.501189e-01 1.935003e-01 2.356609e-01 2.129929e-01 
3.950365e-01 1.574707e-04 1.239911e+00 -1.220529e+00 -4.353869e+01 5.402643e-02 -4.059046e-01 -2.800620e-01 -3.570927e-01 -1.768341e-01 -2.649928e-01 1.285313e-01 -3.188972e-01 8.920759e-01 -1.135166e+00 7.068555e+00 -1.480942e+01 -2.457182e+01 -8.503594e+00 -9.560911e+00 -1.973991e+01 -1.146509e+01 -1.004689e+01 -2.135903e+01 -9.553396e+00 -4.101634e+00 -2.096348e+01 -1.923662e+01 -8.156774e+00 -1.851816e+01 -1.653800e+01 -4.467053e+00 -1.594664e+01 -2.284190e+01 -7.170647e+00 -1.064576e+01 -2.227017e+01 -1.126667e+01 -1.119654e+01 -2.223736e+01 -1.001953e+01 -3.838860e+00 -2.136975e+01 -1.849949e+01 -8.311589e+00 -1.718801e+01 -1.597596e+01 -2.946500e+00 -1.754436e+01 -2.946771e+01 -6.703960e+00 -3.508653e+00 7.538598e-01 5.083058e-02 3.489428e-01 1.773884e-01 1.507182e-01 1.575396e-01 1.300668e-01 1.596077e-01 1.684865e-01 1.758391e-01 2.409985e-01 1.889152e-01 
3.675712e-01 -9.836824e-03 1.142881e+00 -1.080255e+00 -3.902971e+01 4.879046e-02 -3.744906e-01 -2.463303e-01 -3.486744e-01 -1.457972e-01 -3.149776e-01 1.361730e-01 -4.797539e-01 8.407233e-01 -1.593626e+00 5.672813e+00 -9.368742e+00 -1.581728e+01 -7.376454e+00 -5.626169e+00 -1.449634e+01 -7.658273e+00 -6.990345e+00 -1.459265e+01 -8.189881e+00 -2.378557e+00 -1.529327e+01 -1.433894e+01 -6.139168e+00 -1.300139e+01 -1.343704e+01 -3.485112e+00 -1.125085e+01 -1.745972e+01 -6.018209e+00 -7.505424e+00 -1.738247e+01 -9.389120e+00 -7.770373e+00 -1.701139e+01 -8.497215e+00 -2.922542e+00 -1.616821e+01 -1.551953e+01 -6.000907e+00 -1.328437e+01 -1.314721e+01 -3.055882e+00 -1.229448e+01 -2.331447e+01 -6.591793e+00 -3.913205e+00 7.638892e-01 -1.376247e-01 3.839704e-01 1.021306e-01 1.656744e-01 1.242356e-01 1.315194e-01 1.376174e-01 1.605152e-01 1.554814e-01 2.247059e-01 1.678406e-01 
3.440555e-01 -2.521874e-02 1.043545e+00 -9.445007e-01 -3.422335e+01 9.156602e-02 -3.179168e-01 -1.858259e-01 -3.370270e-01 -1.363902e-01 -3.189137e-01 -5.375913e-02 -3.629363e-01 -9.478822e-02 -3.047910e-01 -4.961144e-01 -4.015140e-01 4.164986e-01 -7.215340e-01 -5.511125e-01 -1.334376e+00 -1.059396e-01 -3.333793e-01 -1.198716e-01 -7.446530e-01 -8.400855e-01 -1.269072e+00 -2.970378e-01 -1.938962e-01 -7.188498e-01 -1.301970e+00 -7.131074e-01 -7.366098e-01 -4.672284e-01 -2.439753e-01 -1.143183e+00 -1.652711e+00 -6.692561e-01 -2.669230e-01 -6.887555e-01 -6.354338e-01 -1.137856e+00 -1.418225e+00 -8.343442e-01 3.814526e-03 -1.199978e+00 -1.117483e+00 -1.183690e+00 -7.182648e-01 -4.068706e-01 -9.499424e-01 -5.361389e-01 7.434680e-02 -1.719104e-01 1.639352e-01 1.263278e-02 1.360542e-01 8.098945e-02 1.320650e-01 1.113225e-01 1.590489e-01 1.320710e-01 2.148343e-01 1.426895e-01 
3.038699e-01 -3.090097e-02 9.193060e-01 -8.073548e-01 -2.939566e+01 7.963149e-02 -2.762310e-01 -1.563332e-01 -2.982060e-01 -1.175143e-01 -2.801487e-01 -6.977347e-02 -2.772681e-01 -1.879346e-01 -7.417138e-02 -8.952265e-01 5.462779e-01 5.680425e-01 -2.257853e-01 -3.298303e-01 -3.732542e-01 -1.169902e-01 3.172181e-01 4.123207e-01 -2.891773e-01 -6.050983e-01 -2.236897e-02 2.404959e-01 2.457503e-01 1.372912e-01 -4.517050e-01 -4.902859e-01 3.059954e-01 5.116779e-01 2.084834e-02 -3.384268e-01 -3.700383e-01 -1.268715e-01 3.976229e-01 4.941696e-01 -2.233042e-01 -6.121736e-01 -3.288231e-02 2.383176e-01 3.182095e-01 9.968085e-02 -3.277823e-01 -6.765284e-01 4.350390e-01 1.076070e+00 -5.598613e-01 -4.042045e-02 -1.719404e-02 -1.089557e-01 1.183461e-01 -1.518992e-03 1.180750e-01 5.844997e-02 1.186151e-01 8.943548e-02 1.416002e-01 1.103175e-01 1.893808e-01 1.205264e-01 
2.649672e-01 -4.129108e-02 7.988913e-01 -6.948073e-01 -2.434519e+01 1.160380e-01 -2.044787e-01 -1.179892e-01 -2.489360e-01 -1.198942e-01 -2.168780e-01 -1.165556e-01 -1.598729e-01 -1.872139e-01 8.355801e-03 -3.636124e-01 1.514691e-01 5.038247e-02 -2.504876e-02 -1.356278e-01 -1.579757e-01 -3.147260e-02 6.703831e-02 7.351389e-02 -4.819597e-02 -1.945931e-01 -5.883172e-02 5.615457e-02 9.350571e-02 1.662108e-02 -1.218500e-01 -1.341593e-01 5.264101e-02 1.374179e-01 6.698964e-02 -1.034715e-01 -1.472576e-01 -2.718016e-02 1.109365e-01 1.411284e-01 3.690413e-03 -1.743838e-01 -5.599021e-02 6.893954e-02 1.487553e-01 3.977374e-02 -5.642047e-02 -1.271883e-01 1.082255e-02 4.113344e-01 -1.738283e-01 1.043916e-01 -2.504156e-02 -8.066675e-03 5.259400e-02 9.588015e-03 8.058553e-02 4.316336e-02 9.826036e-02 6.870350e-02 1.239188e-01 8.754524e-02 1.658025e-01 9.590600e-02 
2.151751e-01 -4.304633e-02 6.554011e-01 -5.601979e-01 -1.929155e+01 1.004353e-01 -1.537377e-01 -8.964933e-02 -1.954349e-01 -9.955554e-02 -1.660429e-01 -1.063699e-01 -1.080228e-01 -1.647850e-01 2.470345e-02 -2.452636e-01 8.859303e-02 -2.166985e-03 -1.081617e-02 -9.407174e-02 -1.059808e-01 -1.091083e-02 3.779918e-02 2.411310e-02 -3.132371e-02 -1.177685e-01 -3.710496e-02 3.680139e-02 5.503101e-02 -1.215392e-02 -7.524514e-02 -5.932070e-02 3.484427e-02 7.030476e-02 3.548265e-02 -7.587841e-02 -8.533444e-02 1.068367e-02 6.941744e-02 6.284453e-02 -2.047191e-03 -9.797957e-02 -2.253646e-02 5.447036e-02 8.883050e-02 2.332630e-03 -3.397398e-02 -2.681850e-02 8.791165e-03 2.469982e-01 -1.361156e-01 1.168101e-01 -3.878550e-02 1.639396e-02 2.962888e-02 1.200258e-02 6.014359e-02 3.227520e-02 7.809812e-02 5.178540e-02 9.970173e-02 6.741138e-02 1.333294e-01 7.417191e-02 
1.656908e-01 -4.807102e-02 5.185647e-01 -4.533883e-01 -1.408532e+01 1.267638e-01 -7.785913e-02 -5.294386e-02 -1.369429e-01 -8.159542e-02 -1.108773e-01 -9.076867e-02 -6.069640e-02 -1.163991e-01 1.144892e-02 -1.359376e-01 2.183009e-02 -5.529648e-02 5.289282e-03 -5.731777e-02 -4.650014e-02 -1.516203e-02 1.626074e-03 -8.912415e-03 -4.290892e-03 -4.753764e-02 -2.693754e-02 3.560241e-03 1.799509e-02 -1.318189e-02 -2.190942e-02 -1.994956e-02 1.076317e-03 1.713782e-02 2.342402e-02 -2.865363e-02 -3.397123e-02 4.986445e-03 2.003808e-02 1.662624e-02 1.750311e-02 -3.124678e-02 -1.262635e-02 2.140432e-02 3.912704e-02 1.043641e-02 -9.336108e-03 2.409140e-02 -3.970861e-02 1.243557e-01 -6.027636e-02 8.987262e-02 -2.276956e-02 3.622130e-02 1.282739e-02 2.047779e-02 3.720193e-02 2.579096e-02 5.541219e-02 3.662820e-02 7.465722e-02 4.729944e-02 1.010829e-01 5.131203e-02 
1.102582e-01 -4.636591e-02 3.630230e-01 -3.185975e-01 -8.886145e+00 1.113001e-01 -2.349598e-02 -2.135017e-02 -8.224392e-02 -5.469819e-02 -6.627291e-02 -6.612330e-02 -2.857913e-02 -8.510522e-02 2.112273e-02 -9.317782e-02 2.421305e-02 -4.538381e-02 8.823614e-03 -3.842921e-02 -2.765654e-02 -5.963037e-03 3.309908e-03 -8.814661e-03 -2.520831e-03 -2.785281e-02 -1.594494e-02 3.061317e-03 1.151434e-02 -1.153911e-02 -1.437753e-02 -7.630386e-03 2.551743e-03 7.323993e-03 1.347255e-02 -1.970806e-02 -2.089124e-02 7.602596e-03 1.421442e-02 5.240339e-03 1.003447e-02 -1.802185e-02 -5.547834e-03 1.501699e-02 2.373193e-02 4.984402e-03 -9.764465e-03 2.705736e-02 -2.894982e-02 8.181508e-02 -5.248412e-02 7.198530e-02 -2.745264e-02 3.303574e-02 4.950316e-05 1.581633e-02 2.007984e-02 1.556475e-02 3.433561e-02 2.146587e-02 4.769016e-02 2.832652e-02 6.491836e-02 3.030308e-02 
5.492211e-02 -4.715963e-02 2.158312e-01 -2.102231e-01 -3.601992e+00 1.293947e-01 4.923552e-02 1.690638e-02 -2.530431e-02 -2.623252e-02 -2.151594e-02 -3.734609e-02 3.629332e-05 -4.820038e-02 2.236329e-02 -5.140934e-02 1.920155e-02 -3.250375e-02 1.314458e-02 -2.214926e-02 -6.264859e-03 -5.549685e-03 2.771116e-03 -5.106557e-03 2.455625e-03 -1.081503e-02 -7.258923e-03 1.004974e-04 4.384422e-03 -4.800885e-03 -3.894887e-03 -2.937813e-03 -5.399550e-04 1.707028e-03 7.286874e-03 -8.021209e-03 -7.728992e-03 2.053988e-03 5.026116e-03 9.633988e-04 7.896866e-03 -6.503721e-03 -2.683575e-03 7.647386e-03 7.196816e-03 8.320565e-03 -1.045157e-02 2.285390e-02 -3.028805e-02 4.856421e-02 -3.386379e-02 4.621920e-02 -2.188802e-02 2.593496e-02 -7.762278e-03 1.171768e-02 4.083808e-03 6.833513e-03 1.294320e-02 7.273420e-03 2.027093e-02 9.622048e-03 2.850046e-02 9.002446e-03 
-2.022623e-03 -4.361561e-02 5.546154e-02 -7.424669e-02 1.663042e+00 1.170126e-01 1.048198e-01 5.276740e-02 2.704852e-02 5.159389e-03 1.809418e-02 -8.262629e-03 2.717528e-02 -1.897920e-02 3.712434e-02 -2.332943e-02 3.006964e-02 -1.392581e-02 2.016962e-02 -6.469510e-03 3.778183e-03 4.740335e-03 7.395970e-03 2.605580e-03 4.741060e-03 -1.133808e-03 -2.140045e-03 4.331941e-03 4.271962e-03 -4.440278e-04 -1.876322e-03 1.261347e-03 8.151683e-04 1.619074e-03 4.570167e-03 -4.795165e-03 -4.846199e-03 1.891955e-03 3.690453e-03 -1.177360e-03 4.278127e-03 -5.073211e-03 -2.205396e-03 3.452718e-03 2.441096e-03 3.653185e-03 -1.141187e-02 1.527114e-02 -2.561417e-02 3.016637e-02 -3.247884e-02 3.025172e-02 -2.573293e-02 1.499626e-02 -1.681649e-02 1.576943e-03 -9.992076e-03 -5.507645e-03 -6.612947e-03 -8.296387e-03 -6.343619e-03 -9.248620e-03 -8.054009e-03 -1.175388e-02 
-5.905022e-02 -4.229575e-02 -9.493016e-02 3.665597e-02 6.946338e+00 1.298668e-01 1.726032e-01 9.125815e-02 8.087780e-02 3.687273e-02 5.797182e-02 2.183342e-02 5.312013e-02 1.118015e-02 4.908193e-02 5.026412e-03 3.787530e-02 6.126418e-03 2.724554e-02 8.463516e-03 1.482306e-02 1.216670e-02 1.198925e-02 1.054879e-02 8.492644e-03 7.575698e-03 2.964072e-03 7.973429e-03 4.204878e-03 4.810432e-03 1.290032e-03 3.819042e-03 1.168481e-03 2.634883e-03 2.773684e-03 -1.115697e-03 -1.532715e-03 2.559735e-04 1.179073e-03 -1.587519e-03 1.595824e-03 -3.658528e-03 -3.042001e-03 -8.690333e-05 -3.920002e-03 1.063258e-03 -1.322151e-02 6.749594e-03 -2.405715e-02 1.378504e-02 -2.765170e-02 1.237227e-02 -2.598459e-02 2.173317e-03 -2.382001e-02 -9.037469e-03 -2.350990e-02 -1.756137e-02 -2.652787e-02 -2.342066e-02 -3.369196e-02 -2.769716e-02 -4.537888e-02 -3.214367e-02 