# vtk DataFile Version 2.0
Comment goes here
ASCII

DATASET STRUCTURED_POINTS
FIELD FieldData 1
TIME 1 1 double
0.04700000
DIMENSIONS    64   64   1

ORIGIN    0.000   0.000   0.000
SPACING   0.03125 0.03125   1.000

POINT_DATA   4096
SCALARS Omega double
LOOKUP_TABLE default

-7.427442e-01 2.519336e-01 -4.804425e-01 2.157132e-01 -5.885319e-01 -9.181745e-02 -4.370791e-01 -2.047514e-04 -4.153689e-01 7.954428e-04 -3.659810e-01 4.758884e-02 -2.883679e-01 1.458982e-01 -1.521574e-01 2.584980e-01 5.083204e-02 3.570263e-01 1.692777e-01 4.063586e-01 3.219162e-01 5.227533e-01 3.287983e-01 6.426195e-01 2.883261e-01 6.926356e-01 2.523006e-01 7.191138e-01 2.184474e-01 7.736556e-01 1.963906e-01 7.191013e-01 2.207595e-01 6.774886e-01 2.764374e-01 6.393126e-01 3.554465e-01 5.456352e-01 3.991555e-01 4.550835e-01 4.619912e-01 4.044762e-01 5.243021e-01 3.150682e-01 5.219412e-01 2.152385e-01 5.363058e-01 4.818432e-02 4.878331e-01 -1.452349e-01 4.095665e-01 -3.192932e-01 2.994831e-01 -4.596265e-01 2.488721e-01 -5.876443e-01 2.525228e-01 -6.708447e-01 2.582595e-01 -7.193686e-01 2.837529e-01 -7.789542e-01 4.970508e-01 -7.777835e-01 
3.325461e+00 -3.173428e+01 -8.440805e+00 -2.831667e+01 -8.429231e+00 -2.703828e+01 -1.023248e+01 -2.565765e+01 -1.466594e+01 -2.295902e+01 -1.970084e+01 -1.881305e+01 -2.572853e+01 -1.370886e+01 -3.177242e+01 -9.427993e+00 -3.628742e+01 -6.578293e+00 -3.941539e+01 -4.694550e+00 -4.189405e+01 -3.116876e+00 -4.393171e+01 -1.727348e+00 -4.578924e+01 -2.526123e-01 -4.790194e+01 1.688614e+00 -5.031097e+01 4.276880e+00 -5.383819e+01 8.530766e+00 -5.914024e+01 1.409891e+01 -6.475438e+01 1.890532e+01 -6.863061e+01 2.177196e+01 -7.011801e+01 2.195783e+01 -6.891235e+01 1.946858e+01 -6.522092e+01 1.531759e+01 -6.040497e+01 1.063921e+01 -5.554699e+01 6.547891e+00 -5.136739e+01 3.347044e+00 -4.784619e+01 5.649948e-01 -4.397435e+01 -3.090155e+00 -3.901964e+01 -7.747769e+00 -3.319263e+01 -1.311827e+01 -2.679574e+01 -1.867949e+01 -2.020109e+01 -2.412359e+01 -1.454537e+01 -3.152851e+01 
-6.473599e+01 7.727034e+00 -3.038751e+01 5.760048e+00 -7.822557e+00 6.008173e+00 -3.746197e+01 4.457960e+00 -4.903417e+01 3.318411e+00 -5.624589e+01 1.365903e+00 -6.047936e+01 -1.563262e+00 -6.333610e+01 -4.014130e+00 -6.651624e+01 -5.605608e+00 -6.939847e+01 -6.540815e+00 -7.185404e+01 -7.357706e+00 -7.361674e+01 -7.951360e+00 -7.505264e+01 -8.488283e+00 -7.604697e+01 -9.172345e+00 -7.653875e+01 -1.004117e+01 -7.627450e+01 -1.185965e+01 -7.444823e+01 -1.476370e+01 -7.201248e+01 -1.726747e+01 -7.042091e+01 -1.862592e+01 -6.938417e+01 -1.881134e+01 -6.952329e+01 -1.762546e+01 -7.076553e+01 -1.558943e+01 -7.188062e+01 -1.344630e+01 -7.263016e+01 -1.152415e+01 -7.233523e+01 -9.959664e+00 -7.087630e+01 -8.744940e+00 -6.912132e+01 -6.951381e+00 -6.769959e+01 -4.726438e+00 -6.621445e+01 -2.273449e+00 -6.421730e+01 2.232853e-01 -6.106710e+01 2.492224e+00 -5.324709e+01 8.273526e+00 
-3.482811e+01 8.377962e+00 -1.587558e+01 9.028276e+00 -2.327483e+01 7.452862e+00 -1.619937e+01 9.044890e+00 -2.260643e+01 7.371130e+00 -2.605851e+01 4.995898e+00 -2.760322e+01 2.023947e+00 -2.825006e+01 -5.150928e-01 -2.916314e+01 -2.260066e+00 -3.015031e+01 -3.409637e+00 -3.075609e+01 -4.048349e+00 -3.114172e+01 -4.562209e+00 -3.134866e+01 -4.850873e+00 -3.128243e+01 -5.460635e+00 -3.098025e+01 -6.109627e+00 -3.006228e+01 -7.603619e+00 -2.804244e+01 -9.940903e+00 -2.573397e+01 -1.202192e+01 -2.425142e+01 -1.338026e+01 -2.357239e+01 -1.371538e+01 -2.397411e+01 -1.281153e+01 -2.527280e+01 -1.121954e+01 -2.671211e+01 -9.349524e+00 -2.788017e+01 -7.692836e+00 -2.840050e+01 -6.347571e+00 -2.821411e+01 -5.136139e+00 -2.793459e+01 -3.402746e+00 -2.807458e+01 -1.298108e+00 -2.839732e+01 1.016898e+00 -2.862518e+01 3.207385e+00 -2.825353e+01 5.255730e+00 -2.556216e+01 1.034443e+01 
-1.361580e+00 1.393849e+00 -1.925076e+00 -2.540912e+00 -3.987132e+01 1.096979e-01 2.090958e+00 -1.055822e-01 2.176551e-01 -6.779693e-02 -4.286479e-01 -2.147266e-02 -7.361042e-01 3.274369e-02 -9.319789e-01 6.893464e-02 -9.086211e-01 -9.605494e-02 -9.153515e-01 -8.447031e-02 -7.567973e-01 -1.428972e-01 -7.688511e-01 -1.919506e-01 -7.007643e-01 -1.493105e-01 -5.705627e-01 -2.670195e-01 -6.189410e-01 -2.697775e-01 -5.395475e-01 -2.421726e-01 -5.541991e-01 -2.510974e-01 -6.141539e-01 -1.207426e-01 -5.429788e-01 -1.315609e-01 -6.690105e-01 -1.287008e-01 -6.978146e-01 -6.203080e-02 -6.333409e-01 -1.618622e-01 -6.820625e-01 -1.779424e-01 -5.605568e-01 -2.369449e-01 -4.602428e-01 -3.850579e-01 -3.482882e-01 -3.753915e-01 -2.908898e-01 -2.862132e-01 -2.474858e-01 -1.805076e-01 -2.189452e-01 -3.234305e-02 -2.283840e-01 1.657135e-01 -2.966628e-01 4.218335e-01 -4.607963e-01 7.935033e-01 
-8.907899e-01 7.718824e-01 -1.548103e+00 -2.309993e+00 -5.137913e+01 -9.484883e-01 2.055930e+00 -5.356731e-01 1.132768e+00 -2.511003e-01 5.768777e-01 -1.220889e-01 2.638466e-01 3.547308e-03 2.843740e-02 1.130140e-01 1.051949e-01 -2.166062e-01 1.483082e-02 -6.615115e-02 1.768327e-01 -4.539497e-02 -7.591159e-04 -1.182259e-01 -4.797524e-02 6.332715e-02 9.048037e-02 -6.437816e-02 -8.098868e-02 -5.987390e-02 2.521255e-02 4.303668e-02 -5.477386e-03 -9.792652e-02 -1.029179e-01 3.918017e-02 9.872039e-02 7.195468e-03 -5.025811e-02 -5.546261e-02 -6.511651e-02 1.382043e-01 5.273331e-02 2.529215e-02 -1.187045e-01 4.348813e-02 -2.210506e-02 9.172255e-02 3.598745e-02 -1.291574e-01 6.002688e-02 -3.777448e-02 8.833333e-03 7.063121e-02 -6.276993e-02 1.221649e-01 -1.335320e-01 1.610833e-01 -2.136782e-01 2.269122e-01 -3.506755e-01 3.311808e-01 -6.512138e-01 3.942055e-01 
-9.836613e-01 5.749291e-01 -1.178464e+00 -2.952908e+00 -5.968848e+01 -7.820859e-01 1.659601e+00 -5.426810e-01 1.147620e+00 -3.334851e-01 6.564973e-01 -1.787910e-01 3.265117e-01 6.012860e-02 -6.853125e-02 3.473302e-01 9.988877e-02 -4.492737e-01 1.498696e-02 -7.892192e-02 4.245609e-01 4.633786e-03 -5.689817e-02 -2.628661e-01 -1.717264e-02 2.193950e-01 2.099615e-01 -1.239187e-01 -2.017569e-01 -1.492793e-01 1.497600e-01 1.666076e-01 -5.797736e-02 -2.432526e-01 -1.905616e-01 1.186863e-01 2.638373e-01 3.708525e-02 -1.786080e-01 -1.886770e-01 -4.292295e-02 3.325385e-01 1.411013e-01 -1.525626e-03 -2.506133e-01 6.269855e-02 5.357732e-02 2.745200e-01 -5.341546e-02 -3.578010e-01 2.272176e-01 -5.395532e-02 5.973647e-02 1.489716e-01 -1.024380e-01 1.816055e-01 -2.079157e-01 1.952755e-01 -3.050172e-01 2.419301e-01 -4.427669e-01 3.359237e-01 -6.726643e-01 4.332897e-01 
-8.551826e-01 5.583013e-01 -8.064266e-01 -2.666315e+00 -6.641708e+01 -8.868369e-01 9.393060e-01 -7.494320e-01 9.565531e-01 -4.757332e-01 6.481736e-01 -2.625789e-01 3.351324e-01 1.169598e-01 -2.165837e-01 8.083849e-01 1.061198e-01 -8.910553e-01 -8.711051e-02 -1.034789e-01 6.853968e-01 2.777087e-01 -2.234893e-01 -6.117346e-01 -8.794796e-02 4.860794e-01 3.673252e-01 -1.112231e-01 -3.685169e-01 -3.972086e-01 3.158424e-01 5.594319e-01 -9.722521e-02 -4.891869e-01 -3.044565e-01 1.542025e-01 5.214418e-01 2.743338e-01 -3.257840e-01 -5.042361e-01 -7.044651e-02 5.950535e-01 2.401491e-01 -1.341006e-02 -4.345896e-01 -9.125902e-02 1.160899e-01 6.410600e-01 -1.548153e-01 -6.420190e-01 3.429631e-01 -3.195133e-02 1.015241e-01 2.144487e-01 -9.579025e-02 2.479826e-01 -1.931621e-01 2.682867e-01 -2.751540e-01 3.230873e-01 -4.033644e-01 4.103885e-01 -6.158550e-01 4.894635e-01 
-7.420924e-01 5.011709e-01 -3.632687e-01 -3.033589e+00 -7.096450e+01 -7.207648e-01 5.546864e-01 -7.565068e-01 7.755482e-01 -5.825523e-01 6.500025e-01 -4.479181e-01 4.737913e-01 1.743876e-01 -5.024323e-01 1.455764e+00 6.479786e-01 -5.841348e-01 -5.374777e-02 9.869852e-01 1.578604e+00 9.786669e-01 -6.302860e-01 -9.904292e-01 1.587521e-01 1.755022e+00 8.523506e-01 -2.456631e-01 -8.280729e-01 -5.977736e-01 1.056743e+00 1.608425e+00 -3.066081e-01 -1.302666e+00 -4.391898e-01 8.194287e-01 1.285612e+00 6.041744e-01 -8.665832e-01 -1.465316e+00 2.884807e-01 1.746925e+00 5.728823e-01 -4.819787e-01 -8.657446e-01 -4.545218e-01 7.208136e-01 2.019705e+00 -1.019337e+00 -2.718444e+00 1.062996e+00 1.796858e-01 1.274096e-01 4.271819e-01 -2.416667e-01 2.919364e-01 -2.938978e-01 2.696544e-01 -3.337338e-01 3.191250e-01 -4.246734e-01 4.047233e-01 -5.733275e-01 4.829411e-01 
-5.574795e-01 4.753134e-01 5.404605e-03 -2.867354e+00 -7.459205e+01 -7.093876e-01 1.420574e-01 -8.716757e-01 5.290619e-01 -7.641257e-01 5.584903e-01 -7.625936e-01 4.204442e-01 -3.032214e-01 -7.402715e-01 -3.054583e+00 1.090587e+01 1.363228e+01 2.696848e+00 8.101845e+00 1.006063e+01 5.212626e+00 4.666789e+00 9.203265e+00 2.776401e+00 4.457638e+00 1.011486e+01 6.747720e+00 2.750212e+00 7.679803e+00 6.246755e+00 2.811685e+00 6.908354e+00 6.906721e+00 1.643399e+00 6.154122e+00 9.021069e+00 3.392737e+00 4.421114e+00 6.246968e+00 2.765307e+00 3.718872e+00 8.800454e+00 4.489623e+00 2.548616e+00 5.360823e+00 4.877397e+00 2.365493e+00 5.569264e+00 1.408336e+00 2.692016e+00 1.241666e+00 7.021704e-02 5.770474e-01 -3.324218e-01 3.526910e-01 -3.027250e-01 3.231839e-01 -2.965644e-01 3.671311e-01 -3.549239e-01 4.387395e-01 -4.619308e-01 5.065441e-01 
-4.100596e-01 4.187421e-01 3.889876e-01 -3.014433e+00 -7.659466e+01 -5.785496e-01 -1.040879e-01 -8.617733e-01 3.186476e-01 -8.722676e-01 4.900734e-01 -1.425188e+00 9.450450e-01 -2.769638e+00 2.306945e+00 -1.183912e+01 3.857776e+01 4.644239e+01 1.414109e+01 2.660438e+01 3.976376e+01 1.455482e+01 2.564524e+01 4.564930e+01 1.543886e+01 1.182761e+01 4.569241e+01 3.185605e+01 1.905359e+01 4.316785e+01 2.933722e+01 6.113209e+00 3.552151e+01 4.344269e+01 1.332411e+01 2.896770e+01 4.401064e+01 1.619877e+01 2.664507e+01 4.706494e+01 1.632903e+01 1.203328e+01 4.586682e+01 3.208386e+01 1.846356e+01 4.046132e+01 2.889000e+01 4.815446e+00 3.494409e+01 5.237419e+01 1.036349e+01 6.607371e+00 -2.048774e+00 3.273924e-01 -9.022575e-01 1.862114e-01 -4.052395e-01 2.688669e-01 -3.041082e-01 3.476672e-01 -3.254178e-01 4.263753e-01 -3.843202e-01 4.956470e-01 
-2.326219e-01 3.824762e-01 6.857611e-01 -2.837771e+00 -7.800288e+01 -5.354009e-01 -3.041949e-01 -8.515154e-01 1.760539e-01 -8.624310e-01 5.574292e-01 -1.461183e+00 1.531609e+00 -3.556379e+00 3.589321e+00 -6.416268e+00 2.422962e+01 2.088016e+01 1.099429e+01 1.677059e+01 2.645827e+01 5.039441e+00 2.297212e+01 3.035841e+01 1.065388e+01 1.010098e+01 3.558665e+01 1.969592e+01 1.823249e+01 3.539046e+01 1.995428e+01 4.662852e+00 3.267375e+01 3.248989e+01 1.015312e+01 2.763167e+01 3.434175e+01 1.152272e+01 2.699094e+01 4.036169e+01 9.842427e+00 1.403410e+01 4.053700e+01 2.594743e+01 1.816618e+01 4.017549e+01 2.034599e+01 7.543841e+00 4.111100e+01 5.429458e+01 1.577963e+00 6.033752e+00 -2.373445e+00 6.338210e-01 -8.835482e-01 2.677061e-01 -3.508124e-01 3.065009e-01 -2.328018e-01 3.714922e-01 -2.342415e-01 4.381395e-01 -2.603025e-01 4.972763e-01 
-9.657989e-02 3.288594e-01 9.775562e-01 -2.812464e+00 -7.814671e+01 -4.405390e-01 -4.417222e-01 -7.171747e-01 9.382422e-03 -4.213480e-01 2.318208e-01 1.030571e-01 1.781246e-01 1.120328e+00 5.886281e-01 6.546522e+00 -3.724523e+01 -4.151126e+01 -8.639595e+00 -2.763624e+01 -3.267896e+01 -1.373194e+01 -2.462607e+01 -3.991229e+01 -9.210550e+00 -1.391297e+01 -3.859812e+01 -2.461479e+01 -1.758808e+01 -3.847773e+01 -1.973280e+01 -5.933870e+00 -3.250852e+01 -3.284921e+01 -9.766598e+00 -2.741254e+01 -3.306612e+01 -1.051633e+01 -2.565135e+01 -3.671741e+01 -9.985595e+00 -1.218522e+01 -3.661694e+01 -2.056150e+01 -1.725200e+01 -3.259566e+01 -1.868297e+01 -3.907394e+00 -3.255300e+01 -3.938855e+01 -2.892208e+00 -2.067728e+00 7.769878e-01 5.144305e-01 2.346888e-01 4.357176e-01 -3.403915e-02 3.672261e-01 -1.257513e-01 3.823518e-01 -1.650091e-01 4.320917e-01 -1.730329e-01 4.848665e-01 
5.361113e-02 2.910753e-01 1.189701e+00 -2.603260e+00 -7.785479e+01 -3.875000e-01 -5.743918e-01 -6.768966e-01 -2.167823e-01 -3.440692e-01 -1.528329e-01 4.541437e-01 -7.381621e-01 2.329232e+00 -3.065437e+00 1.271733e+01 -3.255878e+01 -3.924566e+01 -1.543587e+01 -2.213543e+01 -3.787560e+01 -1.271769e+01 -2.415791e+01 -4.199653e+01 -1.622932e+01 -1.059624e+01 -4.464726e+01 -3.055775e+01 -1.917454e+01 -4.208247e+01 -2.961573e+01 -5.890317e+00 -3.570721e+01 -4.350719e+01 -1.364487e+01 -2.933038e+01 -4.458345e+01 -1.642533e+01 -2.755890e+01 -4.873141e+01 -1.639126e+01 -1.272884e+01 -4.764632e+01 -3.376951e+01 -1.937955e+01 -4.392663e+01 -2.945964e+01 -5.630326e+00 -3.896572e+01 -5.978904e+01 -9.124016e+00 -7.233115e+00 2.250295e+00 5.976053e-02 7.271014e-01 3.589368e-01 1.306762e-01 3.560315e-01 -2.939905e-02 3.806745e-01 -7.117929e-02 4.263773e-01 -5.916309e-02 4.718635e-01 
1.587094e-01 2.428556e-01 1.396132e+00 -2.558537e+00 -7.663769e+01 -2.749091e-01 -6.639275e-01 -6.453915e-01 -3.831034e-01 -3.879288e-01 -3.385423e-01 -5.114206e-02 -6.363099e-01 2.933146e-01 -9.896085e-01 1.612167e+00 -5.548658e+00 -2.149921e+00 -3.001189e+00 -2.797128e+00 -6.812535e+00 -9.837547e-01 -4.044560e+00 -4.311667e+00 -2.990339e+00 -2.762729e+00 -8.741494e+00 -4.217047e+00 -2.976400e+00 -6.159737e+00 -6.175944e+00 -2.192559e+00 -6.971737e+00 -6.759024e+00 -1.863676e+00 -6.237969e+00 -9.604673e+00 -3.834924e+00 -4.853799e+00 -8.149692e+00 -2.969059e+00 -4.321388e+00 -1.054741e+01 -7.328897e+00 -2.759048e+00 -9.136412e+00 -6.227090e+00 -3.579064e+00 -8.262795e+00 -9.448425e+00 -3.354688e+00 -3.223883e+00 4.281551e-01 -4.623833e-01 3.317576e-01 1.150609e-01 1.085040e-01 2.731499e-01 7.816970e-03 3.466852e-01 -1.902059e-02 4.054970e-01 1.184274e-02 4.536004e-01 
2.733321e-01 2.008408e-01 1.530837e+00 -2.357411e+00 -7.505615e+01 -2.167339e-01 -7.254401e-01 -5.922329e-01 -5.130195e-01 -3.558094e-01 -4.630449e-01 -1.186165e-01 -5.967880e-01 -2.831357e-01 -1.846085e-01 -2.261930e+00 1.110947e+00 1.811088e+00 -3.248045e-01 -6.409153e-01 -1.088786e+00 -3.176815e-01 7.649476e-01 1.457426e+00 -4.359533e-01 -1.609881e+00 -5.271842e-01 6.154221e-01 7.439170e-01 7.334451e-01 -1.044037e+00 -1.537774e+00 3.421352e-01 1.405263e+00 4.138556e-01 -8.109746e-01 -1.242262e+00 -6.478829e-01 8.135210e-01 1.425998e+00 -1.312316e-01 -1.821642e+00 -7.469064e-01 2.479464e-01 9.238870e-01 2.941362e-01 -5.598064e-01 -2.242211e+00 2.937018e-01 2.776806e+00 -8.100779e-01 -4.800663e-01 7.759608e-02 -3.583731e-01 2.417000e-01 4.738869e-02 1.399927e-01 2.326875e-01 6.718083e-02 3.228348e-01 5.478067e-02 3.847592e-01 1.022451e-01 4.291392e-01 
3.423897e-01 1.577462e-01 1.658161e+00 -2.311601e+00 -7.281471e+01 -1.212433e-01 -7.382473e-01 -6.107184e-01 -5.539690e-01 -4.314275e-01 -4.314051e-01 -2.769918e-01 -3.791375e-01 -3.048971e-01 -3.625845e-02 -1.019125e+00 5.992487e-01 1.598664e-01 1.439269e-02 -3.703862e-01 -3.591337e-01 -2.467308e-01 2.827587e-01 3.076029e-01 -5.991728e-02 -5.660812e-01 -2.015867e-01 3.864572e-02 3.091596e-01 2.625587e-01 -3.019670e-01 -5.685543e-01 1.084636e-01 4.159875e-01 2.525665e-01 -1.150168e-01 -4.857325e-01 -3.274146e-01 2.985192e-01 5.719110e-01 1.085936e-01 -4.924847e-01 -3.154003e-01 1.851128e-02 4.219269e-01 4.071934e-01 -1.295374e-01 -6.047688e-01 -1.512541e-01 1.153265e+00 -2.736528e-01 -7.186232e-03 4.881051e-02 -1.100639e-01 1.210815e-01 6.762425e-02 8.861644e-02 2.040776e-01 6.487907e-02 2.930011e-01 7.988889e-02 3.597866e-01 1.470179e-01 4.068927e-01 
4.193925e-01 1.138612e-01 1.725874e+00 -2.138907e+00 -7.021658e+01 -6.315424e-02 -7.304116e-01 -5.807086e-01 -5.821981e-01 -4.493712e-01 -4.249850e-01 -3.392994e-01 -3.059805e-01 -3.127216e-01 -6.241791e-02 -4.598466e-01 2.030234e-01 -2.623405e-01 2.139732e-02 -2.848298e-01 -1.135745e-01 -9.601388e-02 7.067414e-02 -2.877590e-02 -8.047698e-03 -2.184348e-01 -1.011645e-01 -2.670510e-02 1.017213e-01 1.586033e-02 -6.851332e-02 -1.405885e-01 -8.784522e-03 7.229634e-02 1.121565e-01 -4.186563e-02 -1.654700e-01 -6.491871e-02 7.931050e-02 1.502620e-01 1.006371e-01 -1.059493e-01 -1.553027e-01 2.069895e-02 1.600972e-01 1.946807e-01 -1.138302e-02 -8.813359e-03 -2.319677e-01 4.667382e-01 -6.201548e-02 1.155171e-01 5.830710e-02 4.521969e-02 8.792719e-02 1.189430e-01 8.422310e-02 2.048743e-01 9.040773e-02 2.764854e-01 1.264774e-01 3.361813e-01 2.087397e-01 3.769194e-01 
4.553488e-01 7.700094e-02 1.779407e+00 -2.072086e+00 -6.713947e+01 5.097136e-04 -6.977036e-01 -6.014708e-01 -5.642865e-01 -5.030419e-01 -3.710908e-01 -4.018357e-01 -2.237272e-01 -2.107680e-01 -1.663148e-01 1.746965e-01 -2.063278e-01 -7.807919e-01 1.029630e-01 -9.071649e-02 1.897304e-01 1.242478e-02 -1.726708e-01 -3.617936e-01 1.299851e-01 2.332367e-01 -5.835681e-02 -1.945322e-01 -1.057810e-01 -1.361644e-01 2.294960e-01 2.250108e-01 -2.075036e-01 -2.992635e-01 5.648552e-02 1.720422e-01 1.039704e-01 3.009771e-02 -1.885445e-01 -2.213580e-01 2.296002e-01 3.329389e-01 -1.154654e-01 -1.235136e-01 -6.167365e-02 1.148246e-01 1.635303e-01 4.709220e-01 -5.377800e-01 -1.908256e-01 2.902297e-01 1.474589e-01 1.159650e-01 1.742086e-01 3.556919e-02 1.691461e-01 4.083150e-02 2.065356e-01 7.508492e-02 2.603106e-01 1.329820e-01 3.150676e-01 2.299100e-01 3.541047e-01 
4.983149e-01 3.613472e-02 1.787873e+00 -1.917338e+00 -6.369699e+01 5.554419e-02 -6.516746e-01 -5.805309e-01 -5.461462e-01 -5.549110e-01 -3.191172e-01 -5.233794e-01 -1.324038e-01 -2.230437e-01 -2.564658e-01 4.514869e-01 -2.343369e-01 -2.109238e-01 1.931897e-01 6.895171e-01 6.362940e-01 4.635773e-01 -3.667434e-01 -2.437678e-01 3.026856e-01 9.458427e-01 1.940292e-01 -1.519072e-01 -2.708173e-01 4.302743e-02 6.437057e-01 7.163899e-01 -2.292573e-01 -5.663602e-01 4.522915e-02 6.466559e-01 5.584112e-01 1.202547e-01 -3.171758e-01 -5.568199e-01 4.634246e-01 8.981340e-01 1.543160e-01 -4.191774e-01 -1.421570e-01 7.083489e-02 5.427857e-01 1.001527e+00 -6.426218e-01 -1.428804e+00 7.257938e-01 1.743080e-01 1.516866e-01 3.493279e-01 -4.081210e-02 2.283486e-01 3.892458e-03 2.113434e-01 7.836347e-02 2.454033e-01 1.587148e-01 2.911902e-01 2.665308e-01 3.226604e-01 
5.072399e-01 6.712681e-03 1.773768e+00 -1.812343e+00 -5.991032e+01 8.645328e-02 -6.055555e-01 -5.757663e-01 -5.140476e-01 -5.899066e-01 -2.902240e-01 -7.001829e-01 -1.016023e-01 -8.790242e-01 3.983429e-01 -3.965903e+00 4.537116e+00 1.081913e+01 4.512105e+00 3.737840e+00 8.475889e+00 6.704983e+00 2.990659e+00 8.101441e+00 5.029244e+00 1.740340e+00 7.591658e+00 8.818897e+00 2.947452e+00 6.127833e+00 7.582275e+00 2.868798e+00 4.771899e+00 8.550121e+00 3.427915e+00 3.207529e+00 8.978643e+00 5.809112e+00 3.297508e+00 7.395431e+00 5.177660e+00 1.389124e+00 7.557081e+00 7.808386e+00 3.144171e+00 5.242920e+00 7.217855e+00 2.188076e+00 4.457619e+00 8.432939e+00 4.269855e+00 2.265969e+00 -7.268232e-02 4.171338e-01 -2.050822e-01 2.186973e-01 -4.654863e-02 2.039211e-01 6.406335e-02 2.323255e-01 1.578184e-01 2.726220e-01 2.713502e-01 2.999087e-01 
5.229383e-01 -2.604725e-02 1.727006e+00 -1.644887e+00 -5.575440e+01 1.305244e-01 -5.531768e-01 -5.173531e-01 -5.008202e-01 -6.085700e-01 -2.558137e-01 -1.011039e+00 2.093444e-01 -2.261236e+00 2.277406e+00 -1.010067e+01 1.318911e+01 2.539046e+01 1.155515e+01 7.627471e+00 2.222814e+01 1.482956e+01 1.039567e+01 2.266864e+01 1.342771e+01 2.689676e+00 2.226093e+01 2.409516e+01 9.624533e+00 1.838984e+01 2.054789e+01 6.149273e+00 1.574420e+01 2.645379e+01 9.675264e+00 9.061689e+00 2.580917e+01 1.646414e+01 1.129447e+01 2.476653e+01 1.376196e+01 2.959595e+00 2.323310e+01 2.503000e+01 9.657860e+00 1.790681e+01 2.035649e+01 5.156178e+00 1.658015e+01 3.402857e+01 9.818295e+00 6.480680e+00 -1.151275e+00 4.336208e-01 -5.403249e-01 1.342179e-01 -9.367212e-02 1.669359e-01 7.497981e-02 2.091092e-01 1.782120e-01 2.480899e-01 2.911553e-01 2.691125e-01 
5.104132e-01 -4.535814e-02 1.652315e+00 -1.494869e+00 -5.137524e+01 1.268342e-01 -5.034567e-01 -4.585891e-01 -4.443443e-01 -4.728575e-01 -1.938152e-01 -6.521342e-01 2.836514e-01 -1.294707e+00 1.430610e+00 -3.273007e+00 3.702289e+00 4.636848e+00 3.953453e+00 1.043460e+00 7.025711e+00 2.547313e+00 4.353592e+00 6.723544e+00 4.846930e+00 3.548921e-01 8.334892e+00 7.489112e+00 3.990308e+00 6.786233e+00 7.556353e+00 1.854239e+00 6.663208e+00 9.918602e+00 3.537300e+00 3.881060e+00 1.013148e+01 6.284821e+00 4.879691e+00 1.039552e+01 4.874499e+00 1.703077e+00 9.809316e+00 1.065191e+01 3.627383e+00 8.505285e+00 7.759364e+00 2.976972e+00 8.219149e+00 1.638699e+01 3.177113e+00 3.463355e+00 -7.860362e-01 4.614816e-01 -2.996694e-01 1.855555e-01 -2.561418e-02 1.759861e-01 9.224221e-02 1.993415e-01 1.795790e-01 2.297276e-01 2.852380e-01 2.457261e-01 
5.036969e-01 -6.502170e-02 1.555298e+00 -1.299807e+00 -4.664722e+01 1.501667e-01 -4.445474e-01 -3.352204e-01 -4.304295e-01 -2.135567e-01 -3.130840e-01 1.830750e-01 -3.589958e-01 1.286902e+00 -1.814539e+00 9.031413e+00 -1.355136e+01 -2.624192e+01 -1.054212e+01 -8.661148e+00 -2.179265e+01 -1.533254e+01 -1.015041e+01 -2.288894e+01 -1.220205e+01 -3.362897e+00 -2.188301e+01 -2.329231e+01 -9.022023e+00 -1.845601e+01 -1.917566e+01 -5.910909e+00 -1.572645e+01 -2.523846e+01 -8.689270e+00 -9.273579e+00 -2.465072e+01 -1.504140e+01 -1.125945e+01 -2.370590e+01 -1.248261e+01 -2.877588e+00 -2.262484e+01 -2.274236e+01 -9.297666e+00 -1.711512e+01 -1.886431e+01 -4.130467e+00 -1.685480e+01 -3.198267e+01 -8.435699e+00 -4.932467e+00 8.416484e-01 6.001639e-02 4.598230e-01 2.418505e-01 1.934753e-01 1.995199e-01 1.585437e-01 1.939547e-01 2.027201e-01 2.099884e-01 2.917958e-01 2.170961e-01 
4.715897e-01 -7.197088e-02 1.432860e+00 -1.141185e+00 -4.179612e+01 1.384065e-01 -4.099386e-01 -2.955361e-01 -4.215199e-01 -1.821610e-01 -3.770504e-01 1.677403e-01 -5.637775e-01 1.136219e+00 -2.225423e+00 6.962221e+00 -8.198197e+00 -1.638117e+01 -9.069539e+00 -4.784099e+00 -1.569757e+01 -1.018512e+01 -7.070234e+00 -1.518141e+01 -1.033546e+01 -1.792733e+00 -1.562711e+01 -1.721053e+01 -6.994668e+00 -1.262493e+01 -1.547207e+01 -4.753357e+00 -1.081924e+01 -1.907815e+01 -7.469660e+00 -6.365644e+00 -1.901110e+01 -1.253469e+01 -7.758287e+00 -1.789238e+01 -1.064185e+01 -2.319220e+00 -1.679291e+01 -1.904150e+01 -6.921502e+00 -1.311145e+01 -1.549630e+01 -4.403923e+00 -1.136134e+01 -2.510985e+01 -8.277556e+00 -5.480139e+00 8.199203e-01 -2.026441e-01 5.045941e-01 1.433272e-01 2.138057e-01 1.583801e-01 1.620891e-01 1.677982e-01 1.946757e-01 1.858562e-01 2.738024e-01 1.921455e-01 
4.415940e-01 -8.413503e-02 1.302974e+00 -9.855076e-01 -3.666357e+01 1.697116e-01 -3.504041e-01 -2.196781e-01 -4.086475e-01 -1.688581e-01 -3.916425e-01 -7.306899e-02 -4.462886e-01 -1.510066e-01 -4.198687e-01 -5.701154e-01 -2.909849e-01 5.467044e-01 -8.774117e-01 -5.374755e-01 -1.448349e+00 -8.266863e-02 -3.602260e-01 -6.176783e-02 -9.133770e-01 -8.815863e-01 -1.310134e+00 -3.303253e-01 -2.467092e-01 -7.180657e-01 -1.495114e+00 -8.053342e-01 -6.922771e-01 -4.963330e-01 -3.374822e-01 -1.197405e+00 -1.819154e+00 -8.173542e-01 -2.344048e-01 -7.292375e-01 -8.140546e-01 -1.228974e+00 -1.466432e+00 -1.040148e+00 -1.822408e-02 -1.288153e+00 -1.321369e+00 -1.386919e+00 -5.994376e-01 -3.578201e-01 -1.150223e+00 -6.917607e-01 5.022151e-02 -2.414138e-01 1.994197e-01 9.879768e-03 1.691916e-01 9.845847e-02 1.617736e-01 1.344582e-01 1.928822e-01 1.575311e-01 2.617422e-01 1.623835e-01 
3.921182e-01 -8.444892e-02 1.146319e+00 -8.352069e-01 -3.147081e+01 1.474458e-01 -3.051354e-01 -1.845492e-01 -3.624466e-01 -1.457239e-01 -3.450833e-01 -9.072110e-02 -3.432105e-01 -2.553128e-01 -1.183627e-01 -1.080124e+00 6.855476e-01 6.712693e-01 -3.013882e-01 -3.961666e-01 -3.610251e-01 -1.148863e-01 3.042794e-01 4.643343e-01 -3.635713e-01 -7.303911e-01 6.280976e-02 3.103077e-01 2.071674e-01 1.392673e-01 -5.013364e-01 -5.616123e-01 3.733632e-01 6.036968e-01 -3.191438e-02 -4.306362e-01 -3.443488e-01 -1.080621e-01 4.109700e-01 5.640056e-01 -2.938886e-01 -7.434032e-01 5.951832e-02 3.119464e-01 2.898396e-01 8.901854e-02 -3.593887e-01 -7.809335e-01 5.304694e-01 1.294977e+00 -6.519068e-01 -3.113878e-02 -5.455821e-02 -1.524388e-01 1.389828e-01 -9.940520e-03 1.457678e-01 6.894828e-02 1.457056e-01 1.071683e-01 1.725896e-01 1.312071e-01 2.319084e-01 1.363954e-01 
3.420885e-01 -9.044857e-02 9.921355e-01 -7.141480e-01 -2.607097e+01 1.729184e-01 -2.258778e-01 -1.381448e-01 -3.013970e-01 -1.503474e-01 -2.669124e-01 -1.506969e-01 -1.969827e-01 -2.422589e-01 3.612997e-03 -4.268572e-01 1.810903e-01 4.128925e-02 -2.799909e-02 -1.547294e-01 -1.679895e-01 -3.281413e-02 5.887931e-02 7.253162e-02 -5.930798e-02 -2.273589e-01 -5.061714e-02 6.687728e-02 9.214996e-02 1.233737e-02 -1.394496e-01 -1.484848e-01 6.233322e-02 1.541293e-01 7.116083e-02 -1.274462e-01 -1.545423e-01 -2.009543e-02 1.159628e-01 1.542929e-01 -1.083293e-03 -2.064157e-01 -4.304734e-02 8.707891e-02 1.581865e-01 3.878383e-02 -6.334409e-02 -1.319804e-01 1.461921e-02 4.906241e-01 -2.053937e-01 1.348326e-01 -3.935007e-02 -1.554104e-02 5.896748e-02 5.360519e-03 9.676803e-02 4.878302e-02 1.191605e-01 8.089594e-02 1.503224e-01 1.033347e-01 2.026743e-01 1.073943e-01 
2.793080e-01 -8.524441e-02 8.114639e-01 -5.699012e-01 -2.063805e+01 1.438057e-01 -1.706067e-01 -1.044780e-01 -2.364952e-01 -1.245469e-01 -2.046062e-01 -1.363724e-01 -1.340068e-01 -2.097522e-01 2.336393e-02 -2.855150e-01 1.072511e-01 -2.352803e-02 -1.231341e-02 -1.072258e-01 -1.116219e-01 -6.051574e-03 3.094616e-02 1.380458e-02 -3.845895e-02 -1.327942e-01 -3.104078e-02 4.232348e-02 5.158545e-02 -2.223986e-02 -8.472146e-02 -5.734353e-02 4.063302e-02 7.196434e-02 3.650023e-02 -9.115478e-02 -8.691330e-02 2.324682e-02 7.050386e-02 6.044634e-02 -4.427774e-03 -1.094965e-01 -1.227522e-02 6.510096e-02 9.160543e-02 -3.633869e-03 -3.613294e-02 -1.078448e-02 1.031800e-02 2.854342e-01 -1.590931e-01 1.492836e-01 -5.296366e-02 1.839159e-02 3.125213e-02 1.017756e-02 7.154224e-02 3.591899e-02 9.469136e-02 6.045877e-02 1.213073e-01 7.921260e-02 1.636483e-01 8.226527e-02 
2.155171e-01 -8.433952e-02 6.382730e-01 -4.596784e-01 -1.506566e+01 1.588682e-01 -8.539416e-02 -5.994724e-02 -1.637803e-01 -1.018868e-01 -1.359756e-01 -1.151398e-01 -7.499505e-02 -1.452954e-01 1.130347e-02 -1.609642e-01 2.535014e-02 -7.619443e-02 8.499401e-03 -6.773090e-02 -5.178360e-02 -1.705154e-02 -1.029295e-03 -1.617046e-02 -4.662451e-03 -5.402584e-02 -2.976868e-02 2.962556e-03 1.869297e-02 -1.828980e-02 -2.620825e-02 -1.938754e-02 5.914404e-04 1.587676e-02 2.817426e-02 -3.437159e-02 -3.804976e-02 9.113342e-03 2.113784e-02 1.450311e-02 2.111594e-02 -3.442067e-02 -1.197463e-02 2.622238e-02 4.420241e-02 1.180273e-02 -1.171552e-02 3.796616e-02 -4.910073e-02 1.459619e-01 -7.196336e-02 1.113503e-01 -2.920547e-02 4.394789e-02 1.306383e-02 2.258404e-02 4.353708e-02 2.881253e-02 6.645247e-02 4.225565e-02 9.027737e-02 5.508721e-02 1.237241e-01 5.580351e-02 
1.447268e-01 -7.422572e-02 4.424661e-01 -3.167263e-01 -9.479641e+00 1.280272e-01 -2.665098e-02 -2.247598e-02 -9.727816e-02 -6.791000e-02 -8.137418e-02 -8.357733e-02 -3.593100e-02 -1.054288e-01 2.340403e-02 -1.100888e-01 2.942840e-02 -6.269008e-02 1.187769e-02 -4.552485e-02 -3.007914e-02 -6.019996e-03 2.566602e-03 -1.453603e-02 -2.901988e-03 -3.050165e-02 -1.705049e-02 2.303141e-03 1.184707e-02 -1.545885e-02 -1.745365e-02 -5.356144e-03 2.930795e-03 4.917087e-03 1.605785e-02 -2.314592e-02 -2.320672e-02 1.111379e-02 1.526842e-02 2.326552e-03 1.189576e-02 -1.853534e-02 -4.569343e-03 1.770054e-02 2.636403e-02 6.166727e-03 -1.235349e-02 3.954976e-02 -3.522407e-02 9.495052e-02 -6.293213e-02 8.892113e-02 -3.416964e-02 4.092798e-02 -1.865047e-03 1.805770e-02 2.296367e-02 1.718745e-02 4.100565e-02 2.442508e-02 5.772128e-02 3.267529e-02 7.977083e-02 3.192379e-02 
7.347907e-02 -6.770482e-02 2.572458e-01 -2.063422e-01 -3.817939e+00 1.349013e-01 5.497322e-02 2.415762e-02 -2.695504e-02 -3.176387e-02 -2.599451e-02 -4.678696e-02 -2.201295e-04 -5.916438e-02 2.660774e-02 -6.159754e-02 2.359357e-02 -4.222650e-02 1.691616e-02 -2.702724e-02 -6.297788e-03 -6.575669e-03 3.740448e-03 -7.321909e-03 3.509695e-03 -1.207176e-02 -8.242614e-03 -1.832809e-04 5.039312e-03 -6.207009e-03 -5.100762e-03 -2.320764e-03 -7.469955e-04 8.721675e-04 9.224131e-03 -9.640692e-03 -9.152195e-03 3.114029e-03 5.742806e-03 -8.037042e-06 9.709368e-03 -6.663830e-03 -2.964223e-03 9.794798e-03 8.214995e-03 1.082525e-02 -1.355783e-02 3.040666e-02 -3.760326e-02 5.787664e-02 -4.122050e-02 5.669642e-02 -2.682865e-02 3.202321e-02 -1.033902e-02 1.381475e-02 3.996329e-03 7.371395e-03 1.502739e-02 7.821224e-03 2.419927e-02 1.062169e-02 3.492556e-02 7.726200e-03 
2.214301e-04 -5.486602e-02 5.519687e-02 -6.239816e-02 1.834701e+00 1.062682e-01 1.145838e-01 6.678631e-02 3.688663e-02 7.687044e-03 2.267533e-02 -1.020931e-02 3.318284e-02 -2.268673e-02 4.508457e-02 -2.730158e-02 3.729281e-02 -1.881901e-02 2.540894e-02 -7.812463e-03 5.812504e-03 6.041402e-03 9.645526e-03 2.638616e-03 6.210338e-03 -3.130668e-04 -1.998636e-03 5.071779e-03 5.050620e-03 -6.076194e-04 -2.618207e-03 2.543684e-03 1.076745e-03 1.127426e-03 5.729068e-03 -5.592053e-03 -5.734549e-03 2.682988e-03 4.325938e-03 -2.109335e-03 5.125156e-03 -5.041242e-03 -2.473683e-03 4.537858e-03 2.513855e-03 5.276073e-03 -1.455008e-02 2.057695e-02 -3.133480e-02 3.585018e-02 -3.955795e-02 3.722543e-02 -3.134669e-02 1.899103e-02 -2.100901e-02 2.055409e-03 -1.282939e-02 -6.993511e-03 -8.541489e-03 -1.045673e-02 -8.026846e-03 -1.155990e-02 -9.747552e-03 -1.562453e-02 
-7.291086e-02 -4.558371e-02 -1.334860e-01 5.071723e-02 7.500504e+00 1.085045e-01 1.904253e-01 1.137047e-01 1.029431e-01 4.768332e-02 7.178355e-02 2.757743e-02 6.537544e-02 1.465187e-02 6.040419e-02 7.106491e-03 4.697315e-02 7.306342e-03 3.401848e-02 1.051274e-02 1.887109e-02 1.514097e-02 1.536522e-02 1.298850e-02 1.090557e-02 9.798982e-03 3.962327e-03 9.935993e-03 5.269067e-03 6.042565e-03 1.450915e-03 5.119015e-03 1.477630e-03 3.102145e-03 3.588172e-03 -1.237899e-03 -1.891148e-03 5.727010e-04 1.457905e-03 -1.930002e-03 1.995217e-03 -3.843140e-03 -3.778875e-03 4.654001e-04 -4.959886e-03 1.985238e-03 -1.661297e-02 9.189995e-03 -2.974833e-02 1.685064e-02 -3.378233e-02 1.550683e-02 -3.152250e-02 3.286743e-03 -2.906594e-02 -1.055311e-02 -2.880454e-02 -2.109330e-02 -3.244648e-02 -2.818503e-02 -4.113948e-02 -3.319599e-02 -5.540773e-02 -3.856039e-02 