# vtk DataFile Version 2.0
Comment goes here
ASCII

DATASET STRUCTURED_POINTS
FIELD FieldData 1
TIME 1 1 double
0.01500000
DIMENSIONS    64   64   1

ORIGIN    0.000   0.000   0.000
SPACING   0.03125 0.03125   1.000

POINT_DATA   4096
SCALARS P double
LOOKUP_TABLE default

-9.779348e+00 -1.305945e+02 -2.217052e+01 -1.256600e+02 3.625213e+01 1.429827e+02 5.239610e-01 1.314069e+02 1.355351e+01 1.188874e+02 2.628786e+01 1.071585e+02 3.469740e+01 9.753662e+01 4.057128e+01 8.935188e+01 4.181374e+01 8.301896e+01 4.124410e+01 7.788306e+01 3.661825e+01 7.503530e+01 3.043838e+01 7.085108e+01 2.712546e+01 6.294176e+01 2.478634e+01 5.607781e+01 2.164851e+01 4.694904e+01 2.210659e+01 3.600589e+01 1.946815e+01 2.864095e+01 1.631033e+01 1.807471e+01 1.483593e+01 6.474575e+00 1.238436e+01 -2.913243e+00 4.393303e+00 -6.023922e+00 -6.110336e+00 -1.495013e+01 -8.589908e+00 -2.782406e+01 -1.066645e+01 -4.394592e+01 -6.329476e+00 -6.219897e+01 -5.624051e+00 -7.723920e+01 -7.863294e+00 -8.324983e+01 -1.845409e+01 -8.553738e+01 -3.079346e+01 -8.341955e+01 -4.495664e+01 -8.331161e+01 -4.982395e+01 -9.760770e+01 -3.613555e+01 -1.323848e+02 
9.479783e-01 -1.007590e+02 -8.637071e+00 -9.810039e+01 3.207875e+01 1.050328e+02 1.540487e+00 9.854900e+01 7.013428e+00 9.120665e+01 1.235756e+01 8.402475e+01 1.545600e+01 7.761941e+01 1.760489e+01 7.150353e+01 1.764631e+01 6.598755e+01 1.718662e+01 6.074885e+01 1.483099e+01 5.655631e+01 1.178658e+01 5.165691e+01 1.049877e+01 4.455072e+01 9.630100e+00 3.839703e+01 7.997646e+00 3.113984e+01 8.500961e+00 2.276154e+01 7.222527e+00 1.662258e+01 5.726724e+00 8.602626e+00 5.275109e+00 8.217129e-02 4.484606e+00 -7.298555e+00 7.077988e-01 -1.104430e+01 -4.544368e+00 -1.793719e+01 -5.472555e+00 -2.654321e+01 -6.752787e+00 -3.667172e+01 -4.356640e+00 -4.790298e+01 -3.923861e+00 -5.791124e+01 -4.200721e+00 -6.344057e+01 -8.559055e+00 -6.758455e+01 -1.341426e+01 -6.924091e+01 -1.973404e+01 -7.137848e+01 -2.173480e+01 -8.074782e+01 -1.416112e+01 -1.021767e+02 
3.851168e+00 -8.993860e+01 1.143980e+00 -9.221717e+01 1.384183e+01 9.072599e+01 2.334115e+00 8.665731e+01 2.698427e+00 8.199129e+01 2.961114e+00 7.706721e+01 2.772042e+00 7.192038e+01 2.589025e+00 6.642846e+01 2.204242e+00 6.071759e+01 1.954637e+00 5.470081e+01 1.561124e+00 4.869005e+01 1.087430e+00 4.252220e+01 1.002690e+00 3.581619e+01 8.891683e-01 2.948708e+01 3.827181e-01 2.300918e+01 3.569396e-01 1.620340e+01 -5.049680e-02 9.946724e+00 -4.837311e-01 3.278636e+00 -6.490464e-01 -3.419704e+00 -8.432123e-01 -9.921471e+00 -1.544890e+00 -1.568403e+01 -2.586956e+00 -2.198606e+01 -2.886236e+00 -2.832456e+01 -3.540403e+00 -3.481098e+01 -3.377131e+00 -4.143424e+01 -3.490896e+00 -4.813515e+01 -3.066062e+00 -5.436692e+01 -2.927228e+00 -6.068771e+01 -2.530335e+00 -6.648384e+01 -2.488886e+00 -7.204030e+01 -1.914650e+00 -7.841918e+01 1.145282e-01 -8.720771e+01 
1.510481e+00 -8.573480e+01 9.374272e-01 -8.773612e+01 1.341532e+00 8.632890e+01 2.046300e+00 8.304221e+01 2.714016e+00 7.882642e+01 3.232517e+00 7.416905e+01 3.419005e+00 6.922907e+01 3.398697e+00 6.401169e+01 3.138175e+00 5.858147e+01 2.769577e+00 5.296157e+01 2.252788e+00 4.724720e+01 1.709295e+00 4.134212e+01 1.388112e+00 3.510068e+01 1.119221e+00 2.889493e+01 7.539417e-01 2.257762e+01 5.665411e-01 1.610958e+01 2.425508e-01 9.825654e+00 -1.181329e-01 3.387227e+00 -4.048169e-01 -3.052142e+00 -7.866216e-01 -9.268704e+00 -1.508550e+00 -1.512610e+01 -2.385816e+00 -2.122561e+01 -2.887526e+00 -2.752564e+01 -3.279626e+00 -3.403578e+01 -3.233739e+00 -4.063033e+01 -3.194943e+00 -4.709944e+01 -3.030168e+00 -5.312016e+01 -3.065409e+00 -5.886120e+01 -3.095949e+00 -6.423530e+01 -3.101877e+00 -6.963279e+01 -2.439017e+00 -7.572144e+01 -6.557978e-01 -8.234371e+01 
1.602635e+00 -8.951069e+01 1.379454e+00 -9.269836e+01 1.705443e+00 9.085163e+01 2.030135e+00 8.711941e+01 2.290390e+00 8.261428e+01 2.450713e+00 7.766827e+01 2.421631e+00 7.240013e+01 2.290061e+00 6.682701e+01 2.042422e+00 6.099608e+01 1.772784e+00 5.495955e+01 1.452783e+00 4.880323e+01 1.135473e+00 4.250554e+01 9.218740e-01 3.602125e+01 7.042214e-01 2.955128e+01 4.084887e-01 2.302060e+01 1.879278e-01 1.640955e+01 -1.187191e-01 9.895539e+00 -4.436267e-01 3.303016e+00 -7.252730e-01 -3.290256e+00 -1.046538e+00 -9.766912e+00 -1.544208e+00 -1.603854e+01 -2.133732e+00 -2.242488e+01 -2.528930e+00 -2.887660e+01 -2.889115e+00 -3.540814e+01 -2.984352e+00 -4.199238e+01 -2.992325e+00 -4.852921e+01 -2.789648e+00 -5.486941e+01 -2.551130e+00 -6.109847e+01 -2.203868e+00 -6.711228e+01 -1.812944e+00 -7.303224e+01 -1.100183e+00 -7.913192e+01 1.525411e-01 -8.530641e+01 
5.190156e-01 -8.614191e+01 8.936832e-01 -8.939746e+01 1.433808e+00 8.777499e+01 1.862807e+00 8.418661e+01 2.324143e+00 7.989568e+01 2.701567e+00 7.515089e+01 2.904186e+00 7.008177e+01 2.923118e+00 6.472877e+01 2.741636e+00 5.911810e+01 2.431238e+00 5.335204e+01 2.033614e+00 4.745062e+01 1.643134e+00 4.140939e+01 1.314727e+00 3.521704e+01 1.012565e+00 2.894206e+01 7.182462e-01 2.260211e+01 4.483480e-01 1.620309e+01 1.467166e-01 9.816434e+00 -1.763115e-01 3.410190e+00 -5.202791e-01 -2.987778e+00 -9.149262e-01 -9.286063e+00 -1.438128e+00 -1.547125e+01 -2.007825e+00 -2.174216e+01 -2.438260e+00 -2.811644e+01 -2.764135e+00 -3.459499e+01 -2.905972e+00 -4.110568e+01 -2.936847e+00 -4.745987e+01 -2.855956e+00 -5.354997e+01 -2.758609e+00 -5.941784e+01 -2.601588e+00 -6.509725e+01 -2.306289e+00 -7.073357e+01 -1.659061e+00 -7.644665e+01 -5.913974e-01 -8.192198e+01 
8.181793e-01 -9.015946e+01 1.153263e+00 -9.414687e+01 1.540250e+00 9.240060e+01 1.773155e+00 8.832892e+01 1.983153e+00 8.366337e+01 2.130782e+00 7.858188e+01 2.175055e+00 7.317794e+01 2.109371e+00 6.747591e+01 1.907602e+00 6.147494e+01 1.643928e+00 5.533270e+01 1.345297e+00 4.905648e+01 1.084330e+00 4.267438e+01 8.472410e-01 3.621107e+01 6.013516e-01 2.967719e+01 3.614826e-01 2.311243e+01 1.078313e-01 1.651934e+01 -1.675195e-01 9.919644e+00 -4.503244e-01 3.326156e+00 -7.570620e-01 -3.272556e+00 -1.068394e+00 -9.817934e+00 -1.453167e+00 -1.628200e+01 -1.873568e+00 -2.279929e+01 -2.205350e+00 -2.935344e+01 -2.501363e+00 -3.595575e+01 -2.673588e+00 -4.259983e+01 -2.700398e+00 -4.911821e+01 -2.545434e+00 -5.548330e+01 -2.281281e+00 -6.172818e+01 -1.918584e+00 -6.784272e+01 -1.457819e+00 -7.385442e+01 -8.214584e-01 -7.977635e+01 7.864413e-03 -8.540570e+01 
1.708072e-01 -8.752751e+01 6.959142e-01 -9.166964e+01 1.204634e+00 9.017105e+01 1.616086e+00 8.601588e+01 2.007475e+00 8.140679e+01 2.341574e+00 7.644881e+01 2.571070e+00 7.121131e+01 2.646849e+00 6.569288e+01 2.478620e+00 5.980307e+01 2.180394e+00 5.386983e+01 1.809804e+00 4.779433e+01 1.519653e+00 4.162623e+01 1.215305e+00 3.541472e+01 9.034005e-01 2.905813e+01 6.611168e-01 2.268392e+01 3.625830e-01 1.628518e+01 7.563383e-02 9.825566e+00 -2.163407e-01 3.421682e+00 -5.813695e-01 -3.017576e+00 -9.099570e-01 -9.418219e+00 -1.324008e+00 -1.573458e+01 -1.766803e+00 -2.215514e+01 -2.092871e+00 -2.860978e+01 -2.431230e+00 -3.512500e+01 -2.679671e+00 -4.174009e+01 -2.787275e+00 -4.807968e+01 -2.695541e+00 -5.419838e+01 -2.509367e+00 -6.016357e+01 -2.245111e+00 -6.600847e+01 -1.864890e+00 -7.176856e+01 -1.302252e+00 -7.742424e+01 -5.681843e-01 -8.278566e+01 
4.575699e-01 -9.157352e+01 8.759483e-01 -9.626432e+01 1.246072e+00 9.476778e+01 1.506662e+00 9.013679e+01 1.729510e+00 8.512832e+01 1.911739e+00 7.981706e+01 2.037157e+00 7.425153e+01 2.064646e+00 6.841240e+01 1.845452e+00 6.209281e+01 1.550657e+00 5.583179e+01 1.202837e+00 4.941889e+01 1.016462e+00 4.292266e+01 7.780947e-01 3.646776e+01 4.985599e-01 2.983955e+01 3.309675e-01 2.322834e+01 4.717942e-02 1.663697e+01 -2.024154e-01 9.937947e+00 -4.376173e-01 3.349351e+00 -7.812123e-01 -3.301611e+00 -1.011122e+00 -9.953319e+00 -1.331904e+00 -1.647559e+01 -1.696733e+00 -2.313303e+01 -1.916648e+00 -2.978995e+01 -2.237496e+00 -3.646392e+01 -2.495808e+00 -4.334087e+01 -2.590911e+00 -4.985809e+01 -2.410615e+00 -5.621532e+01 -2.108173e+00 -6.248828e+01 -1.728281e+00 -6.867793e+01 -1.274999e+00 -7.476895e+01 -7.327138e-01 -8.071500e+01 -1.215140e-01 -8.638409e+01 
8.236403e-03 -8.950147e+01 5.027268e-01 -9.438218e+01 9.603875e-01 9.311052e+01 1.362818e+00 8.831089e+01 1.736952e+00 8.327076e+01 2.080826e+00 7.802896e+01 2.386630e+00 7.262440e+01 2.607942e+00 6.700863e+01 2.363434e+00 6.052962e+01 1.995761e+00 5.451184e+01 1.505722e+00 4.824416e+01 1.422296e+00 4.188011e+01 1.110281e+00 3.574850e+01 7.363270e-01 2.920866e+01 6.629837e-01 2.277570e+01 2.557095e-01 1.643355e+01 2.550803e-02 9.781951e+00 -1.954559e-01 3.453631e+00 -6.752114e-01 -3.067944e+00 -8.090458e-01 -9.644890e+00 -1.197048e+00 -1.590096e+01 -1.630759e+00 -2.251913e+01 -1.736390e+00 -2.906107e+01 -2.194366e+00 -3.555478e+01 -2.568112e+00 -4.266783e+01 -2.845120e+00 -4.891097e+01 -2.632731e+00 -5.499464e+01 -2.337589e+00 -6.102850e+01 -2.003726e+00 -6.700670e+01 -1.606356e+00 -7.291214e+01 -1.119164e+00 -7.870034e+01 -5.571484e-01 -8.427019e+01 
2.364239e-01 -9.346983e+01 6.282743e-01 -9.881399e+01 9.682654e-01 9.758940e+01 1.252370e+00 9.234246e+01 1.504933e+00 8.690838e+01 1.743366e+00 8.131715e+01 1.989759e+00 7.561049e+01 2.253673e+00 6.978724e+01 1.893661e+00 6.266079e+01 1.496561e+00 5.645318e+01 8.896070e-01 4.988836e+01 1.022822e+00 4.311883e+01 7.209902e-01 3.687520e+01 3.003111e-01 3.001293e+01 4.171247e-01 2.329864e+01 -7.293806e-02 1.686696e+01 -2.208198e-01 9.848244e+00 -3.415900e-01 3.407714e+00 -9.201469e-01 -3.300480e+00 -8.470985e-01 -1.024011e+01 -1.198297e+00 -1.654884e+01 -1.644274e+00 -2.344156e+01 -1.536335e+00 -3.023975e+01 -2.054093e+00 -3.676594e+01 -2.440440e+00 -4.448669e+01 -2.778088e+00 -5.074481e+01 -2.404690e+00 -5.702501e+01 -2.012170e+00 -6.332870e+01 -1.608812e+00 -6.960997e+01 -1.178670e+00 -7.582623e+01 -7.125157e-01 -8.192640e+01 -2.255678e-01 -8.783466e+01 
-9.894033e-02 -9.180517e+01 3.290996e-01 -9.735421e+01 7.255785e-01 9.631845e+01 1.117220e+00 9.086968e+01 1.485887e+00 8.535034e+01 1.851465e+00 7.978558e+01 2.274366e+00 7.428264e+01 2.971395e+00 6.916317e+01 2.476790e+00 6.080131e+01 1.871423e+00 5.535380e+01 8.032739e-01 4.885093e+01 1.616939e+00 4.186814e+01 9.695299e-01 3.646352e+01 3.398729e-01 2.931172e+01 1.001978e+00 2.271421e+01 -1.016673e-01 1.691768e+01 7.133419e-02 9.423078e+00 -5.433121e-04 3.622603e+00 -1.101533e+00 -2.997035e+00 -3.876362e-01 -1.023522e+01 -1.133340e+00 -1.572884e+01 -1.748336e+00 -2.289916e+01 -1.031319e+00 -2.962155e+01 -2.116461e+00 -3.534171e+01 -2.408334e+00 -4.452497e+01 -3.474097e+00 -4.986036e+01 -2.662867e+00 -5.583195e+01 -2.203640e+00 -6.194747e+01 -1.824505e+00 -6.807748e+01 -1.437870e+00 -7.417240e+01 -1.013687e+00 -8.019167e+01 -5.570173e-01 -8.608422e+01 
7.103703e-02 -9.563725e+01 4.124793e-01 -1.015960e+02 7.105589e-01 1.006194e+02 1.009651e+00 9.475850e+01 1.283546e+00 8.886224e+01 1.559437e+00 8.295206e+01 1.903666e+00 7.713177e+01 2.537430e+00 7.171680e+01 2.044912e+00 6.299374e+01 1.447970e+00 5.725975e+01 4.130081e-01 5.046269e+01 1.241061e+00 4.318769e+01 6.268648e-01 3.755094e+01 3.372665e-02 3.013811e+01 7.315847e-01 2.330874e+01 -3.448511e-01 1.730674e+01 -1.279731e-01 9.577354e+00 -1.597170e-01 3.581798e+00 -1.225208e+00 -3.250419e+00 -4.389918e-01 -1.071088e+01 -1.141638e+00 -1.639698e+01 -1.703670e+00 -2.378385e+01 -9.073662e-01 -3.071015e+01 -1.978951e+00 -3.661200e+01 -2.230169e+00 -4.604331e+01 -3.308144e+00 -5.158575e+01 -2.432723e+00 -5.780452e+01 -1.925548e+00 -6.418911e+01 -1.513324e+00 -7.060430e+01 -1.116767e+00 -7.699525e+01 -7.143824e-01 -8.332240e+01 -3.114102e-01 -8.954645e+01 
-1.886480e-01 -9.425914e+01 1.692800e-01 -1.004245e+02 4.986683e-01 9.959863e+01 8.774263e-01 9.352168e+01 1.229072e+00 8.748755e+01 1.563648e+00 8.147923e+01 1.895442e+00 7.549902e+01 2.224735e+00 6.950766e+01 1.950065e+00 6.220189e+01 1.622115e+00 5.595378e+01 1.063923e+00 4.938035e+01 1.196093e+00 4.261950e+01 9.059346e-01 3.646609e+01 4.836796e-01 2.966507e+01 6.003762e-01 2.303588e+01 1.047449e-01 1.671591e+01 -3.745540e-02 9.769124e+00 -1.534713e-01 3.435483e+00 -7.392643e-01 -3.190170e+00 -6.366227e-01 -1.007279e+01 -9.834197e-01 -1.630731e+01 -1.419557e+00 -2.315913e+01 -1.273897e+00 -2.991515e+01 -1.829358e+00 -3.637856e+01 -2.241756e+00 -4.409249e+01 -2.667608e+00 -5.029314e+01 -2.319573e+00 -5.655017e+01 -1.981212e+00 -6.285732e+01 -1.650056e+00 -6.918355e+01 -1.307280e+00 -7.550560e+01 -9.440142e-01 -8.180326e+01 -5.656188e-01 -8.805739e+01 
-6.600517e-02 -9.791852e+01 2.208708e-01 -1.044499e+02 4.696787e-01 1.036801e+02 7.761435e-01 9.722726e+01 1.053594e+00 9.083575e+01 1.314419e+00 8.447855e+01 1.567118e+00 7.812973e+01 1.772592e+00 7.168305e+01 1.543045e+00 6.445719e+01 1.237316e+00 5.777686e+01 8.167720e-01 5.092454e+01 8.131883e-01 4.403873e+01 5.841046e-01 3.745772e+01 2.772208e-01 3.051160e+01 2.780218e-01 2.370623e+01 -6.080927e-02 1.702570e+01 -2.200287e-01 1.003850e+01 -3.517474e-01 3.384872e+00 -7.399800e-01 -3.468667e+00 -7.540114e-01 -1.040357e+01 -1.004682e+00 -1.702196e+01 -1.311021e+00 -2.400738e+01 -1.299242e+00 -3.091349e+01 -1.687951e+00 -3.775968e+01 -2.036838e+00 -4.525952e+01 -2.289467e+00 -5.190196e+01 -2.049331e+00 -5.845111e+01 -1.729263e+00 -6.502583e+01 -1.397001e+00 -7.162233e+01 -1.059619e+00 -7.822372e+01 -7.192350e-01 -8.481363e+01 -3.836463e-01 -9.137928e+01 
-2.715927e-01 -9.673094e+01 2.000122e-02 -1.034610e+02 2.828431e-01 1.028121e+02 6.489829e-01 9.614793e+01 9.808441e-01 8.960633e+01 1.278087e+00 8.313887e+01 1.528382e+00 7.669167e+01 1.680824e+00 7.016545e+01 1.568414e+00 6.331873e+01 1.369104e+00 5.665482e+01 1.093043e+00 4.994920e+01 9.732538e-01 4.325536e+01 7.754475e-01 3.667792e+01 5.266076e-01 2.996784e+01 3.992339e-01 2.331166e+01 1.446515e-01 1.669494e+01 -6.209352e-02 9.969148e+00 -2.481913e-01 3.362240e+00 -5.419244e-01 -3.329014e+00 -6.952920e-01 -1.005140e+01 -9.245376e-01 -1.667066e+01 -1.193600e+00 -2.344891e+01 -1.337541e+00 -3.022231e+01 -1.633913e+00 -3.701263e+01 -1.919548e+00 -4.403659e+01 -2.071833e+00 -5.068870e+01 -1.961503e+00 -5.722543e+01 -1.746502e+00 -6.375059e+01 -1.485652e+00 -7.029308e+01 -1.198456e+00 -7.685954e+01 -8.936285e-01 -8.345113e+01 -5.805200e-01 -9.007081e+01 
-1.848032e-01 -1.001932e+02 4.873452e-02 -1.072491e+02 2.462502e-01 1.066482e+02 5.559027e-01 9.964773e+01 8.305331e-01 9.278201e+01 1.071984e+00 8.599949e+01 1.267306e+00 7.924111e+01 1.365105e+00 7.241247e+01 1.252762e+00 6.536945e+01 1.056865e+00 5.842795e+01 8.133262e-01 5.147295e+01 6.747774e-01 4.455389e+01 4.990137e-01 3.771058e+01 2.925245e-01 3.079434e+01 1.619759e-01 2.392563e+01 -4.264760e-02 1.707616e+01 -2.229946e-01 1.017316e+01 -3.877537e-01 3.341479e+00 -6.153671e-01 -3.548643e+00 -7.579660e-01 -1.044734e+01 -9.422211e-01 -1.729846e+01 -1.154259e+00 -2.425835e+01 -1.294557e+00 -3.122521e+01 -1.531230e+00 -3.823720e+01 -1.760721e+00 -4.538158e+01 -1.862582e+00 -5.228279e+01 -1.757158e+00 -5.906944e+01 -1.544389e+00 -6.584062e+01 -1.285034e+00 -7.263356e+01 -1.006650e+00 -7.945932e+01 -7.232198e-01 -8.632199e+01 -4.456031e-01 -9.322800e+01 
-3.500345e-01 -9.911863e+01 -1.188539e-01 -1.063586e+02 8.212844e-02 1.058591e+02 4.382801e-01 9.866472e+01 7.557016e-01 9.165972e+01 1.030799e+00 8.478467e+01 1.246978e+00 7.797642e+01 1.361982e+00 7.115490e+01 1.309393e+00 6.422940e+01 1.167258e+00 5.737726e+01 9.769147e-01 5.053912e+01 8.344967e-01 4.374696e+01 6.650000e-01 3.701130e+01 4.713175e-01 3.024514e+01 3.148748e-01 2.351476e+01 1.144605e-01 1.679508e+01 -7.721051e-02 1.004991e+01 -2.636060e-01 3.343370e+00 -4.862825e-01 -3.402525e+00 -6.621801e-01 -1.015604e+01 -8.604681e-01 -1.689538e+01 -1.075462e+00 -2.371037e+01 -1.250474e+00 -3.054417e+01 -1.474842e+00 -3.742409e+01 -1.680412e+00 -4.437745e+01 -1.779561e+00 -5.118446e+01 -1.719239e+00 -5.790787e+01 -1.560699e+00 -6.462467e+01 -1.349663e+00 -7.137630e+01 -1.110537e+00 -7.818435e+01 -8.570308e-01 -8.506428e+01 -5.998852e-01 -9.203371e+01 
-2.893212e-01 -1.023671e+02 -1.057927e-01 -1.098943e+02 4.214622e-02 1.094329e+02 3.537946e-01 1.019434e+02 6.278482e-01 9.465357e+01 8.645623e-01 8.750532e+01 1.050851e+00 8.043611e+01 1.144699e+00 7.336233e+01 1.070469e+00 6.617230e+01 9.105448e-01 5.908053e+01 7.122585e-01 5.200337e+01 5.814403e-01 4.498220e+01 4.244958e-01 3.803150e+01 2.471902e-01 3.104603e+01 1.175891e-01 2.410905e+01 -6.122374e-02 1.718775e+01 -2.230026e-01 1.023903e+01 -3.779659e-01 3.341289e+00 -5.724825e-01 -3.601279e+00 -7.087256e-01 -1.054857e+01 -8.736799e-01 -1.747419e+01 -1.055884e+00 -2.448447e+01 -1.192269e+00 -3.150948e+01 -1.392575e+00 -3.858707e+01 -1.577651e+00 -4.575724e+01 -1.664304e+00 -5.276717e+01 -1.584191e+00 -5.969686e+01 -1.411054e+00 -6.663017e+01 -1.195117e+00 -7.360884e+01 -9.623372e-01 -8.065392e+01 -7.270041e-01 -8.778122e+01 -4.994848e-01 -9.500970e+01 
-4.234520e-01 -1.013419e+02 -2.462535e-01 -1.090335e+02 -1.009351e-01 1.086615e+02 2.483990e-01 1.010018e+02 5.588789e-01 9.359209e+01 8.303619e-01 8.637327e+01 1.053894e+00 7.928590e+01 1.196437e+00 7.225068e+01 1.151414e+00 6.506304e+01 1.006632e+00 5.807714e+01 8.159515e-01 5.109357e+01 7.268777e-01 4.417626e+01 5.678661e-01 3.737174e+01 3.862638e-01 3.049680e+01 2.733842e-01 2.369744e+01 6.909352e-02 1.692513e+01 -8.837820e-02 1.009382e+01 -2.516968e-01 3.354817e+00 -4.753887e-01 -3.457131e+00 -6.009820e-01 -1.028061e+01 -7.909911e-01 -1.704901e+01 -9.900533e-01 -2.394275e+01 -1.113251e+00 -3.083174e+01 -1.338397e+00 -3.776570e+01 -1.529399e+00 -4.487229e+01 -1.657941e+00 -5.175580e+01 -1.584509e+00 -5.859081e+01 -1.433064e+00 -6.546017e+01 -1.246252e+00 -7.240004e+01 -1.042101e+00 -7.943357e+01 -8.309981e-01 -8.658272e+01 -6.217124e-01 -9.387390e+01 
-3.808804e-01 -1.043657e+02 -2.433210e-01 -1.123067e+02 -1.417651e-01 1.119603e+02 1.712537e-01 1.040462e+02 4.479670e-01 9.639104e+01 6.945550e-01 8.894206e+01 9.129379e-01 8.164811e+01 1.078981e+00 7.442396e+01 9.897968e-01 6.687729e+01 7.939206e-01 5.970735e+01 5.439595e-01 5.248995e+01 5.218282e-01 4.533526e+01 3.557852e-01 3.838161e+01 1.627667e-01 3.126149e+01 1.221278e-01 2.426588e+01 -1.061243e-01 1.733145e+01 -2.176314e-01 1.025619e+01 -3.403137e-01 3.375499e+00 -5.853422e-01 -3.636109e+00 -6.237032e-01 -1.067868e+01 -8.026316e-01 -1.756953e+01 -9.933246e-01 -2.468426e+01 -1.027194e+00 -3.175461e+01 -1.274363e+00 -3.884476e+01 -1.470730e+00 -4.630536e+01 -1.644175e+00 -5.332241e+01 -1.514532e+00 -6.031348e+01 -1.326796e+00 -6.737012e+01 -1.126863e+00 -7.451462e+01 -9.258559e-01 -8.176311e+01 -7.300025e-01 -8.913535e+01 -5.458448e-01 -9.665768e+01 
-4.903185e-01 -1.033371e+02 -3.610723e-01 -1.114192e+02 -2.656006e-01 1.111530e+02 7.839993e-02 1.030947e+02 3.857022e-01 9.534044e+01 6.642852e-01 8.784026e+01 9.273768e-01 8.055954e+01 1.199526e+00 7.348480e+01 1.119324e+00 6.569881e+01 8.746789e-01 5.875292e+01 5.488186e-01 5.160536e+01 7.033706e-01 4.448162e+01 4.685853e-01 3.779047e+01 2.456145e-01 3.069607e+01 3.225258e-01 2.383024e+01 -4.085410e-02 1.712374e+01 -7.211774e-02 1.004805e+01 -1.992810e-01 3.418319e+00 -5.605151e-01 -3.474699e+00 -4.640615e-01 -1.047696e+01 -7.369824e-01 -1.708544e+01 -9.639456e-01 -2.415793e+01 -8.795337e-01 -3.109972e+01 -1.249924e+00 -3.792691e+01 -1.409413e+00 -4.561813e+01 -1.756755e+00 -5.236003e+01 -1.537634e+00 -5.923224e+01 -1.346986e+00 -6.622155e+01 -1.165644e+00 -7.332760e+01 -9.868660e-01 -8.056459e+01 -8.112083e-01 -8.795594e+01 -6.433103e-01 -9.553318e+01 
-4.594728e-01 -1.061299e+02 -3.639123e-01 -1.144246e+02 -3.056119e-01 1.141673e+02 6.395992e-03 1.058920e+02 2.832902e-01 9.792632e+01 5.395541e-01 9.023231e+01 8.100208e-01 8.281695e+01 1.214551e+00 7.582007e+01 1.087676e+00 6.720109e+01 6.815349e-01 6.035918e+01 1.642995e-01 5.295086e+01 6.423002e-01 4.546507e+01 2.501415e-01 3.889214e+01 -2.384796e-02 3.138245e+01 3.137847e-01 2.432728e+01 -3.092255e-01 1.763501e+01 -1.358460e-01 1.008297e+01 -2.352172e-01 3.513067e+00 -7.906251e-01 -3.605484e+00 -3.550350e-01 -1.098031e+01 -7.894566e-01 -1.745057e+01 -1.038348e+00 -2.489679e+01 -6.470489e-01 -3.201215e+01 -1.254881e+00 -3.871865e+01 -1.287424e+00 -4.731641e+01 -1.985140e+00 -5.387439e+01 -1.515722e+00 -6.085713e+01 -1.260110e+00 -6.801967e+01 -1.064617e+00 -7.531481e+01 -8.902766e-01 -8.274705e+01 -7.293190e-01 -9.033775e+01 -5.837896e-01 -9.811833e+01 
-5.487749e-01 -1.050535e+02 -4.621226e-01 -1.134633e+02 -4.115422e-01 1.132769e+02 -7.424032e-02 1.048839e+02 2.260332e-01 9.683652e+01 5.010762e-01 8.909192e+01 7.769118e-01 8.164059e+01 1.134368e+00 7.455578e+01 1.055667e+00 6.623485e+01 7.472970e-01 5.934829e+01 3.393852e-01 5.205844e+01 6.913557e-01 4.474145e+01 3.798555e-01 3.816545e+01 1.386003e-01 3.086798e+01 3.728521e-01 2.394386e+01 -1.380526e-01 1.730698e+01 -4.291981e-02 1.000642e+01 -1.526514e-01 3.479432e+00 -6.282259e-01 -3.484000e+00 -3.250130e-01 -1.064500e+01 -6.962137e-01 -1.710715e+01 -9.338415e-01 -2.434098e+01 -6.577527e-01 -3.132695e+01 -1.174881e+00 -3.802763e+01 -1.254779e+00 -4.621692e+01 -1.832831e+00 -5.282102e+01 -1.469328e+00 -5.975594e+01 -1.255785e+00 -6.686601e+01 -1.087536e+00 -7.412380e+01 -9.351808e-01 -8.154054e+01 -7.924808e-01 -8.914233e+01 -6.616563e-01 -9.696496e+01 
-5.244891e-01 -1.076136e+02 -4.669711e-01 -1.161996e+02 -4.486152e-01 1.160017e+02 -1.419718e-01 1.074251e+02 1.256370e-01 9.918621e+01 3.631847e-01 9.123323e+01 5.792881e-01 8.351878e+01 7.642373e-01 7.596360e+01 7.016576e-01 6.807969e+01 5.510530e-01 6.070286e+01 3.348288e-01 5.329713e+01 3.678844e-01 4.596006e+01 2.352430e-01 3.889353e+01 6.439021e-02 3.164252e+01 7.017619e-02 2.453506e+01 -1.429823e-01 1.752689e+01 -2.181623e-01 1.034285e+01 -3.045763e-01 3.396199e+00 -5.395631e-01 -3.688451e+00 -5.270121e-01 -1.082961e+01 -6.808689e-01 -1.777601e+01 -8.495749e-01 -2.497646e+01 -8.253790e-01 -3.213649e+01 -1.056397e+00 -3.929322e+01 -1.227804e+00 -4.691406e+01 -1.416076e+00 -5.405199e+01 -1.285379e+00 -6.123787e+01 -1.131681e+00 -6.854091e+01 -9.848354e-01 -7.597919e+01 -8.475945e-01 -8.357308e+01 -7.219014e-01 -9.135091e+01 -6.120830e-01 -9.934925e+01 
-5.970734e-01 -1.064520e+02 -5.478444e-01 -1.151249e+02 -5.369285e-01 1.149890e+02 -2.091809e-01 1.063229e+02 7.760818e-02 9.802412e+01 3.302019e-01 9.003626e+01 5.531387e-01 8.230389e+01 7.310097e-01 7.474257e+01 7.129251e-01 6.703367e+01 6.044966e-01 5.970074e+01 4.484732e-01 5.239623e+01 4.537723e-01 4.520229e+01 3.373767e-01 3.820330e+01 1.975750e-01 3.110667e+01 1.638949e-01 2.414000e+01 -1.846335e-02 1.723160e+01 -1.103303e-01 1.023155e+01 -2.190650e-01 3.390022e+00 -4.173578e-01 -3.557893e+00 -4.576412e-01 -1.052269e+01 -6.103572e-01 -1.738263e+01 -7.628252e-01 -2.442888e+01 -7.963404e-01 -3.144879e+01 -9.965440e-01 -3.851669e+01 -1.156390e+00 -4.590073e+01 -1.312977e+00 -5.299324e+01 -1.235130e+00 -6.012043e+01 -1.117983e+00 -6.736764e+01 -9.974902e-01 -7.476294e+01 -8.806672e-01 -8.233258e+01 -7.712742e-01 -9.010911e+01 -6.744264e-01 -9.813270e+01 
-5.752720e-01 -1.087814e+02 -5.512367e-01 -1.175948e+02 -5.682161e-01 1.174284e+02 -2.704503e-01 1.086142e+02 -1.667105e-02 1.001547e+02 1.973668e-01 9.199046e+01 3.700137e-01 8.406019e+01 4.825018e-01 7.628767e+01 4.774549e-01 6.855853e+01 4.141409e-01 6.102350e+01 3.144438e-01 5.358031e+01 2.624578e-01 4.624166e+01 1.754869e-01 3.901483e+01 6.636516e-02 3.179973e+01 -6.399902e-03 2.465543e+01 -1.254001e-01 1.755070e+01 -2.267300e-01 1.043569e+01 -3.242297e-01 3.375949e+00 -4.552894e-01 -3.716263e+00 -5.342010e-01 -1.081782e+01 -6.380755e-01 -1.790108e+01 -7.516691e-01 -2.506370e+01 -8.219396e-01 -3.225041e+01 -9.444807e-01 -3.949585e+01 -1.059285e+00 -4.686845e+01 -1.124592e+00 -5.417096e+01 -1.084728e+00 -6.150203e+01 -9.998374e-01 -6.892873e+01 -9.004381e-01 -7.648961e+01 -8.004102e-01 -8.421701e+01 -7.080057e-01 -9.214602e+01 -6.304077e-01 -1.003178e+02 
-6.339222e-01 -1.075028e+02 -6.165482e-01 -1.163736e+02 -6.393707e-01 1.162609e+02 -3.232786e-01 1.073880e+02 -5.248173e-02 9.889591e+01 1.761228e-01 9.072298e+01 3.601437e-01 8.280728e+01 4.835021e-01 7.507782e+01 5.071587e-01 6.744549e+01 4.715522e-01 5.999838e+01 4.012163e-01 5.266191e+01 3.539202e-01 4.544231e+01 2.755645e-01 3.832857e+01 1.779763e-01 3.124886e+01 9.756988e-02 2.423976e+01 -1.747538e-02 1.726749e+01 -1.235734e-01 1.030090e+01 -2.313139e-01 3.375181e+00 -3.602717e-01 -3.574730e+00 -4.558748e-01 -1.052997e+01 -5.685115e-01 -1.748496e+01 -6.844309e-01 -2.450657e+01 -7.722117e-01 -3.155915e+01 -8.923105e-01 -3.867868e+01 -1.001632e+00 -4.590400e+01 -1.068543e+00 -5.311043e+01 -1.050304e+00 -6.036291e+01 -9.887512e-01 -6.772231e+01 -9.097054e-01 -7.522939e+01 -8.264830e-01 -8.291976e+01 -7.476222e-01 -9.083159e+01 -6.807157e-01 -9.900883e+01 
-6.113243e-01 -1.096073e+02 -6.153219e-01 -1.185834e+02 -6.617148e-01 1.184248e+02 -3.747827e-01 1.094403e+02 -1.353052e-01 1.008229e+02 5.936345e-02 9.251157e+01 2.072155e-01 8.444734e+01 2.990943e-01 7.657174e+01 3.224465e-01 6.883378e+01 2.999849e-01 6.124399e+01 2.478274e-01 5.377026e+01 1.932736e-01 4.640187e+01 1.232839e-01 3.912158e+01 3.980174e-02 3.189574e+01 -4.088846e-02 2.472495e+01 -1.345915e-01 1.759000e+01 -2.288186e-01 1.047365e+01 -3.222487e-01 3.378386e+00 -4.227545e-01 -3.722911e+00 -5.107322e-01 -1.083129e+01 -6.001274e-01 -1.795262e+01 -6.903582e-01 -2.511554e+01 -7.678080e-01 -3.231691e+01 -8.505298e-01 -3.957416e+01 -9.212212e-01 -4.689957e+01 -9.544650e-01 -5.425488e+01 -9.382567e-01 -6.166871e+01 -8.889397e-01 -6.918284e+01 -8.232671e-01 -7.683510e+01 -7.535949e-01 -8.466186e+01 -6.894002e-01 -9.270210e+01 -6.391249e-01 -1.010001e+02 
-6.584696e-01 -1.081851e+02 -6.667107e-01 -1.171875e+02 -7.164249e-01 1.170751e+02 -4.128588e-01 1.080644e+02 -1.573598e-01 9.944367e+01 5.222590e-02 9.115096e+01 2.141109e-01 8.312723e+01 3.212209e-01 7.531566e+01 3.655008e-01 6.766759e+01 3.634916e-01 6.017854e+01 3.300552e-01 5.281788e+01 2.854928e-01 4.557121e+01 2.228347e-01 3.841750e+01 1.450927e-01 3.132725e+01 6.335590e-02 2.429519e+01 -3.133669e-02 1.730133e+01 -1.295941e-01 1.033024e+01 -2.300709e-01 3.378072e+00 -3.359761e-01 -3.578167e+00 -4.340275e-01 -1.054204e+01 -5.327409e-01 -1.752363e+01 -6.301547e-01 -2.454593e+01 -7.173450e-01 -3.161078e+01 -8.047078e-01 -3.873578e+01 -8.783445e-01 -4.593114e+01 -9.192751e-01 -5.317655e+01 -9.171500e-01 -6.049639e+01 -8.838586e-01 -6.792949e+01 -8.332704e-01 -7.551400e+01 -7.765204e-01 -8.328800e+01 -7.227353e-01 -9.129250e+01 -6.804259e-01 -9.957380e+01 
-6.323060e-01 -1.100737e+02 -6.581296e-01 -1.191471e+02 -7.270982e-01 1.189761e+02 -4.519328e-01 1.098902e+02 -2.257571e-01 1.011791e+02 -4.574431e-02 9.278269e+01 8.822116e-02 8.464549e+01 1.739386e-01 7.671727e+01 2.109084e-01 6.895755e+01 2.098333e-01 6.134528e+01 1.813698e-01 5.385617e+01 1.375380e-01 4.647192e+01 7.968075e-02 3.917294e+01 1.038031e-02 3.193847e+01 -6.438599e-02 2.475643e+01 -1.460843e-01 1.761153e+01 -2.309102e-01 1.049072e+01 -3.165442e-01 3.384929e+00 -4.033217e-01 -3.720246e+00 -4.856942e-01 -1.083306e+01 -5.652595e-01 -1.796384e+01 -6.414135e-01 -2.512710e+01 -7.095520e-01 -3.233060e+01 -7.709747e-01 -3.958618e+01 -8.179830e-01 -4.690221e+01 -8.393139e-01 -5.427861e+01 -8.315214e-01 -6.173424e+01 -8.010125e-01 -6.929932e+01 -7.573232e-01 -7.700782e+01 -7.098811e-01 -8.489627e+01 -6.674703e-01 -9.300503e+01 -6.386497e-01 -1.013800e+02 
-6.702054e-01 -1.084854e+02 -6.972563e-01 -1.175532e+02 -7.663375e-01 1.174210e+02 -4.754425e-01 1.083421e+02 -2.336078e-01 9.965774e+01 -3.830296e-02 9.130707e+01 1.107472e-01 8.323406e+01 2.121562e-01 7.538827e+01 2.662309e-01 6.772813e+01 2.813894e-01 6.022760e+01 2.669265e-01 5.286040e+01 2.326482e-01 4.560567e+01 1.810293e-01 3.844208e+01 1.151964e-01 3.134857e+01 4.009433e-02 2.431088e+01 -4.403968e-02 1.731282e+01 -1.335755e-01 1.034073e+01 -2.260366e-01 3.383666e+00 -3.203747e-01 -3.572522e+00 -4.120583e-01 -1.053738e+01 -5.012498e-01 -1.752247e+01 -5.864308e-01 -2.454173e+01 -6.637737e-01 -3.160467e+01 -7.328940e-01 -3.872401e+01 -7.871157e-01 -4.590966e+01 -8.176606e-01 -5.316717e+01 -8.213032e-01 -6.051593e+01 -8.029118e-01 -6.798570e+01 -7.705143e-01 -7.561075e+01 -7.325852e-01 -8.342864e+01 -6.974653e-01 -9.148110e+01 -6.736425e-01 -9.981536e+01 
-6.380254e-01 -1.101709e+02 -6.790357e-01 -1.192759e+02 -7.633079e-01 1.190742e+02 -5.004977e-01 1.099555e+02 -2.867282e-01 1.012139e+02 -1.184649e-01 9.279056e+01 6.309629e-03 8.463224e+01 8.889643e-02 7.669217e+01 1.320189e-01 6.893161e+01 1.422474e-01 6.132149e+01 1.268426e-01 5.383660e+01 9.294429e-02 4.645572e+01 4.446600e-02 3.915918e+01 -1.533486e-02 3.192890e+01 -8.281355e-02 2.475019e+01 -1.562751e-01 1.760895e+01 -2.332256e-01 1.049270e+01 -3.114315e-01 3.390378e+00 -3.894021e-01 -3.709619e+00 -4.644896e-01 -1.081726e+01 -5.356498e-01 -1.794310e+01 -6.014985e-01 -2.509849e+01 -6.594030e-01 -3.229344e+01 -7.075266e-01 -3.953889e+01 -7.416712e-01 -4.684523e+01 -7.570549e-01 -5.422300e+01 -7.527767e-01 -6.169042e+01 -7.324805e-01 -6.927328e+01 -7.024202e-01 -7.700258e+01 -6.699243e-01 -8.491371e+01 -6.427796e-01 -9.304691e+01 -6.291975e-01 -1.014483e+02 
-6.689265e-01 -1.083980e+02 -7.076815e-01 -1.174644e+02 -7.883098e-01 1.172937e+02 -5.100454e-01 1.082160e+02 -2.805265e-01 9.953186e+01 -9.656583e-02 9.118158e+01 4.372698e-02 8.311120e+01 1.417058e-01 7.527305e+01 1.999223e-01 6.762704e+01 2.238498e-01 6.014164e+01 2.197985e-01 5.278970e+01 1.939869e-01 4.554817e+01 1.504100e-01 3.839597e+01 9.252890e-02 3.131404e+01 2.390929e-02 2.428645e+01 -5.316190e-02 1.729822e+01 -1.359075e-01 1.033606e+01 -2.217793e-01 3.387977e+00 -3.086658e-01 -3.558079e+00 -3.938030e-01 -1.051287e+01 -4.755050e-01 -1.748763e+01 -5.518155e-01 -2.449409e+01 -6.200252e-01 -3.154322e+01 -6.778453e-01 -3.864695e+01 -7.213929e-01 -4.581711e+01 -7.466515e-01 -5.306658e+01 -7.526272e-01 -6.041465e+01 -7.421989e-01 -6.788747e+01 -7.207431e-01 -7.551649e+01 -6.949121e-01 -8.333784e+01 -6.721090e-01 -9.139267e+01 -6.604470e-01 -9.972806e+01 