# vtk DataFile Version 2.0
Comment goes here
ASCII

DATASET STRUCTURED_POINTS
FIELD FieldData 1
TIME 1 1 double
0.02800000
DIMENSIONS    64   64   1

ORIGIN    0.000   0.000   0.000
SPACING   0.03125 0.03125   1.000

POINT_DATA   4096
VECTORS u double

0.430450 0.018000 0.000000 -0.897564 -0.010724 0.000000 0.437477 0.008414 0.000000 -0.878419 -0.006441 0.000000 0.353771 -0.006064 0.000000 -0.859591 -0.003269 0.000000 0.397450 0.006460 0.000000 -0.832033 -0.003533 0.000000 0.410386 0.003505 0.000000 -0.788960 -0.003796 0.000000 0.386686 0.001397 0.000000 -0.706350 -0.003799 0.000000 0.300030 -0.000286 0.000000 -0.557631 -0.004072 0.000000 0.146944 -0.001150 0.000000 -0.362872 -0.004119 0.000000 -0.036218 -0.001057 0.000000 -0.160354 -0.003194 0.000000 -0.211273 -0.001151 0.000000 0.015620 -0.002607 0.000000 -0.348267 -0.001340 0.000000 0.142928 -0.000542 0.000000 -0.433925 -0.001885 0.000000 0.214616 0.001123 0.000000 -0.472371 -0.002756 0.000000 0.244706 0.001914 0.000000 -0.481611 -0.003202 0.000000 0.251535 0.002946 0.000000 -0.475900 -0.004157 0.000000 0.243695 0.003670 0.000000 -0.461292 -0.004630 0.000000 0.227795 0.004396 0.000000 -0.435248 -0.005254 0.000000 0.186919 0.005184 0.000000 -0.372113 -0.005753 0.000000 0.100561 0.006010 0.000000 -0.270484 -0.006633 0.000000 -0.004483 0.006259 0.000000 -0.181635 -0.006065 0.000000 -0.062651 0.004983 0.000000 -0.163490 -0.003495 0.000000 -0.040818 0.003271 0.000000 -0.224643 -0.001214 0.000000 0.042090 0.002471 0.000000 -0.328277 -0.000457 0.000000 0.151106 0.002609 0.000000 -0.445288 0.000704 0.000000 0.254765 0.002736 0.000000 -0.542021 0.002037 0.000000 0.324247 0.002771 0.000000 -0.599212 0.002794 0.000000 0.341741 0.002301 0.000000 -0.594687 0.002733 0.000000 0.287340 0.001411 0.000000 -0.513554 0.002509 0.000000 0.157779 0.000228 0.000000 -0.363279 0.002405 0.000000 -0.041805 -0.000675 0.000000 -0.148424 0.002182 0.000000 -0.304776 -0.000971 0.000000 0.110352 0.001909 0.000000 -0.596199 -0.001453 0.000000 0.366170 0.002854 0.000000 -0.853147 -0.006303 0.000000 
-0.213705 0.028640 0.000000 0.271367 -0.009151 0.000000 -0.259788 -0.005196 0.000000 0.281594 0.036652 0.000000 -0.172072 0.005697 0.000000 0.271045 -0.028378 0.000000 -0.252738 -0.010463 0.000000 0.253562 -0.011441 0.000000 -0.297502 -0.017400 0.000000 0.226359 0.008596 0.000000 -0.313690 -0.037171 0.000000 0.178463 0.041645 0.000000 -0.289985 -0.070279 0.000000 0.092826 0.076030 0.000000 -0.227033 -0.093249 0.000000 -0.017581 0.091410 0.000000 -0.146263 -0.097282 0.000000 -0.130928 0.087148 0.000000 -0.067825 -0.084652 0.000000 -0.228868 0.068189 0.000000 -0.008692 -0.061368 0.000000 -0.299280 0.042724 0.000000 0.025956 -0.034531 0.000000 -0.339571 0.019899 0.000000 0.038338 -0.015242 0.000000 -0.357620 0.006211 0.000000 0.037774 -0.004897 0.000000 -0.362541 -0.000470 0.000000 0.030839 0.001830 0.000000 -0.359217 -0.004124 0.000000 0.021356 0.004877 0.000000 -0.353488 -0.008960 0.000000 0.009289 0.016285 0.000000 -0.335007 -0.026283 0.000000 -0.023917 0.037464 0.000000 -0.287714 -0.044365 0.000000 -0.081000 0.046281 0.000000 -0.228118 -0.038091 0.000000 -0.132784 0.023236 0.000000 -0.193101 -0.004530 0.000000 -0.144514 -0.015116 0.000000 -0.199933 0.033741 0.000000 -0.115353 -0.044325 0.000000 -0.234608 0.053010 0.000000 -0.066742 -0.056551 0.000000 -0.279723 0.058302 0.000000 -0.009605 -0.053567 0.000000 -0.320726 0.047237 0.000000 0.037914 -0.036643 0.000000 -0.342350 0.026989 0.000000 0.067194 -0.010976 0.000000 -0.337544 -0.003772 0.000000 0.066781 0.025261 0.000000 -0.296733 -0.041766 0.000000 0.028471 0.063272 0.000000 -0.219729 -0.075782 0.000000 -0.041598 0.098509 0.000000 -0.109941 -0.107511 0.000000 -0.140716 0.130423 0.000000 0.031132 -0.129310 0.000000 -0.254695 0.145078 0.000000 0.180883 -0.128056 0.000000 -0.350719 0.128421 0.000000 0.286963 -0.032813 0.000000 
0.646744 0.033596 0.000000 0.413879 0.035359 0.000000 0.449597 -0.001813 0.000000 0.391636 -0.094156 0.000000 0.336775 0.004486 0.000000 0.395331 0.077397 0.000000 0.495423 0.023943 0.000000 0.374988 0.041231 0.000000 0.628438 0.030707 0.000000 0.345307 0.012392 0.000000 0.750416 0.049294 0.000000 0.294341 -0.027504 0.000000 0.892361 0.085350 0.000000 0.202646 -0.067024 0.000000 1.065793 0.109257 0.000000 0.085415 -0.084889 0.000000 1.247146 0.112290 0.000000 -0.032159 -0.081632 0.000000 1.408944 0.096789 0.000000 -0.129508 -0.061740 0.000000 1.535185 0.069073 0.000000 -0.194465 -0.035191 0.000000 1.616612 0.038405 0.000000 -0.224307 -0.011259 0.000000 1.659488 0.015293 0.000000 -0.231366 0.002478 0.000000 1.679715 0.001720 0.000000 -0.229151 0.009881 0.000000 1.686040 -0.007481 0.000000 -0.220580 0.013154 0.000000 1.685701 -0.010359 0.000000 -0.212353 0.016463 0.000000 1.678282 -0.023735 0.000000 -0.189018 0.038391 0.000000 1.641421 -0.053046 0.000000 -0.130671 0.063092 0.000000 1.572497 -0.066229 0.000000 -0.056145 0.058043 0.000000 1.506652 -0.041082 0.000000 -0.013553 0.016713 0.000000 1.487153 0.003337 0.000000 -0.027773 -0.025890 0.000000 1.518745 0.033461 0.000000 -0.083801 -0.046140 0.000000 1.570037 0.044657 0.000000 -0.156929 -0.054527 0.000000 1.624740 0.041707 0.000000 -0.230018 -0.044784 0.000000 1.659619 0.023661 0.000000 -0.283858 -0.026509 0.000000 1.663280 -0.002013 0.000000 -0.306356 0.002714 0.000000 1.623959 -0.038078 0.000000 -0.280362 0.039721 0.000000 1.531921 -0.074496 0.000000 -0.204170 0.070298 0.000000 1.391776 -0.107382 0.000000 -0.082329 0.098443 0.000000 1.200348 -0.138890 0.000000 0.082686 0.113008 0.000000 0.965468 -0.147843 0.000000 0.266621 0.094571 0.000000 0.714798 -0.103225 0.000000 0.421241 -0.143316 0.000000 
1.410904 0.036003 0.000000 -0.095173 0.187996 0.000000 1.072734 0.017046 0.000000 -0.118689 0.149474 0.000000 0.448753 0.002003 0.000000 -0.116200 -0.187026 0.000000 1.090817 0.009881 0.000000 -0.103768 -0.144457 0.000000 1.490795 0.012281 0.000000 -0.092491 -0.113382 0.000000 1.769651 0.013794 0.000000 -0.073497 -0.100299 0.000000 1.967651 0.021415 0.000000 -0.032154 -0.097403 0.000000 2.107259 0.023982 0.000000 0.023842 -0.089943 0.000000 2.210833 0.020292 0.000000 0.078308 -0.074650 0.000000 2.285373 0.012697 0.000000 0.120127 -0.058052 0.000000 2.347374 0.003589 0.000000 0.143844 -0.038703 0.000000 2.399924 -0.004689 0.000000 0.154954 -0.022977 0.000000 2.447368 -0.008183 0.000000 0.157236 -0.014016 0.000000 2.489117 -0.007111 0.000000 0.155814 -0.006796 0.000000 2.518441 -0.006742 0.000000 0.155695 -0.003785 0.000000 2.539562 -0.003350 0.000000 0.157666 -0.001540 0.000000 2.552391 -0.007050 0.000000 0.155965 0.010578 0.000000 2.569800 -0.020883 0.000000 0.136760 0.024559 0.000000 2.601525 -0.028245 0.000000 0.104979 0.027755 0.000000 2.625508 -0.019356 0.000000 0.088170 0.014969 0.000000 2.622047 -0.000896 0.000000 0.093563 0.002150 0.000000 2.593753 0.011703 0.000000 0.109058 0.001718 0.000000 2.547634 0.016577 0.000000 0.127340 0.003598 0.000000 2.489420 0.019522 0.000000 0.138023 0.012359 0.000000 2.423403 0.017197 0.000000 0.135039 0.023328 0.000000 2.345386 0.011522 0.000000 0.120377 0.035550 0.000000 2.265898 -0.000733 0.000000 0.095436 0.050272 0.000000 2.192367 -0.012921 0.000000 0.063219 0.064363 0.000000 2.116946 -0.023332 0.000000 0.023913 0.083917 0.000000 2.035005 -0.034593 0.000000 -0.029166 0.105570 0.000000 1.935336 -0.038857 0.000000 -0.091244 0.122614 0.000000 1.794646 -0.026199 0.000000 -0.134421 0.035241 0.000000 
1.511009 -0.005652 0.000000 -0.048755 0.373529 0.000000 1.212233 0.021703 0.000000 -0.061211 0.529824 0.000000 0.686499 0.001997 0.000000 -0.061061 -0.564667 0.000000 1.219481 0.011511 0.000000 -0.050490 -0.358747 0.000000 1.566600 0.019430 0.000000 -0.036356 -0.266464 0.000000 1.816734 0.030300 0.000000 -0.018580 -0.225504 0.000000 2.004807 0.044007 0.000000 0.010188 -0.206631 0.000000 2.149727 0.053262 0.000000 0.046352 -0.188463 0.000000 2.266555 0.057824 0.000000 0.078256 -0.156173 0.000000 2.351344 0.054970 0.000000 0.100205 -0.123742 0.000000 2.419921 0.045355 0.000000 0.109675 -0.087740 0.000000 2.473180 0.027295 0.000000 0.116173 -0.058703 0.000000 2.516498 0.013011 0.000000 0.118969 -0.039271 0.000000 2.555068 0.003143 0.000000 0.119726 -0.019443 0.000000 2.580263 -0.007363 0.000000 0.124039 -0.007967 0.000000 2.598712 -0.012330 0.000000 0.128428 0.003634 0.000000 2.610263 -0.022035 0.000000 0.132297 0.020982 0.000000 2.617955 -0.033840 0.000000 0.127871 0.031367 0.000000 2.632937 -0.034449 0.000000 0.113343 0.034060 0.000000 2.640596 -0.024273 0.000000 0.106813 0.020175 0.000000 2.633687 -0.002056 0.000000 0.107947 0.002403 0.000000 2.617270 0.017966 0.000000 0.109422 -0.000021 0.000000 2.587653 0.026375 0.000000 0.111997 0.003687 0.000000 2.549042 0.031024 0.000000 0.106924 0.021233 0.000000 2.500384 0.026646 0.000000 0.092353 0.051508 0.000000 2.432854 0.012649 0.000000 0.071716 0.082202 0.000000 2.357125 -0.013136 0.000000 0.050260 0.113252 0.000000 2.278615 -0.042280 0.000000 0.030831 0.145719 0.000000 2.191204 -0.068076 0.000000 0.012824 0.180384 0.000000 2.090398 -0.085811 0.000000 -0.008649 0.212677 0.000000 1.968373 -0.085764 0.000000 -0.033738 0.235261 0.000000 1.812228 -0.060048 0.000000 -0.055975 0.240425 0.000000 
1.557751 0.028782 0.000000 -0.101522 0.486772 0.000000 1.273501 0.029502 0.000000 -0.106687 0.675208 0.000000 0.902402 0.001853 0.000000 -0.107149 -0.720008 0.000000 1.280445 -0.000690 0.000000 -0.093671 -0.491576 0.000000 1.589209 -0.001854 0.000000 -0.079742 -0.363515 0.000000 1.824349 -0.003981 0.000000 -0.058754 -0.288373 0.000000 2.002618 -0.007353 0.000000 -0.022807 -0.242323 0.000000 2.141739 -0.012183 0.000000 0.028068 -0.206771 0.000000 2.257181 -0.011611 0.000000 0.077547 -0.159439 0.000000 2.330395 -0.009252 0.000000 0.113331 -0.126629 0.000000 2.393888 -0.005881 0.000000 0.130011 -0.091962 0.000000 2.440111 -0.011188 0.000000 0.146217 -0.066295 0.000000 2.477744 -0.010979 0.000000 0.151551 -0.052587 0.000000 2.519623 -0.007868 0.000000 0.149457 -0.031990 0.000000 2.542410 -0.011055 0.000000 0.153949 -0.022234 0.000000 2.563365 -0.007740 0.000000 0.149902 -0.013090 0.000000 2.582484 -0.010919 0.000000 0.147205 0.002886 0.000000 2.592981 -0.016456 0.000000 0.138941 0.009576 0.000000 2.615278 -0.013717 0.000000 0.119167 0.020096 0.000000 2.623447 -0.012827 0.000000 0.115407 0.021878 0.000000 2.615866 -0.002030 0.000000 0.116868 0.018567 0.000000 2.603129 0.010229 0.000000 0.120626 0.031334 0.000000 2.565412 0.014002 0.000000 0.133880 0.042210 0.000000 2.520852 0.024594 0.000000 0.134175 0.061017 0.000000 2.467123 0.031768 0.000000 0.123493 0.090858 0.000000 2.387858 0.032159 0.000000 0.096887 0.111279 0.000000 2.307630 0.020723 0.000000 0.069165 0.128782 0.000000 2.233893 0.006509 0.000000 0.041463 0.151774 0.000000 2.158776 -0.005326 0.000000 0.010781 0.184723 0.000000 2.072720 -0.013119 0.000000 -0.025325 0.227596 0.000000 1.962488 -0.013768 0.000000 -0.062995 0.278759 0.000000 1.805374 -0.003962 0.000000 -0.092524 0.336460 0.000000 
1.670396 0.003346 0.000000 -0.040497 0.657780 0.000000 1.430001 0.026868 0.000000 -0.050356 0.900923 0.000000 1.121652 0.002459 0.000000 -0.051254 -0.942710 0.000000 1.423611 -0.001967 0.000000 -0.043791 -0.667511 0.000000 1.680313 0.005501 0.000000 -0.034534 -0.501604 0.000000 1.884221 0.009312 0.000000 -0.020005 -0.403774 0.000000 2.047166 0.008059 0.000000 0.005664 -0.345752 0.000000 2.184295 0.002387 0.000000 0.045940 -0.303905 0.000000 2.311895 0.008346 0.000000 0.083132 -0.229387 0.000000 2.383777 0.019186 0.000000 0.104575 -0.187235 0.000000 2.452701 0.028675 0.000000 0.104999 -0.133963 0.000000 2.499362 0.011089 0.000000 0.118534 -0.096336 0.000000 2.530674 0.007678 0.000000 0.121671 -0.081150 0.000000 2.574660 0.005237 0.000000 0.117431 -0.042230 0.000000 2.591177 -0.011855 0.000000 0.128232 -0.028923 0.000000 2.607151 -0.008282 0.000000 0.124114 -0.015485 0.000000 2.625961 -0.019338 0.000000 0.127670 0.010485 0.000000 2.625245 -0.025576 0.000000 0.129715 0.009070 0.000000 2.642208 -0.014675 0.000000 0.113919 0.025891 0.000000 2.643737 -0.020512 0.000000 0.118917 0.027755 0.000000 2.631124 -0.003518 0.000000 0.118877 0.015141 0.000000 2.629701 0.014208 0.000000 0.113334 0.037695 0.000000 2.600430 0.013122 0.000000 0.122294 0.048247 0.000000 2.567905 0.030729 0.000000 0.112235 0.074963 0.000000 2.529908 0.037327 0.000000 0.094587 0.130773 0.000000 2.451774 0.039255 0.000000 0.060460 0.162430 0.000000 2.374319 0.014586 0.000000 0.034990 0.186989 0.000000 2.302298 -0.014578 0.000000 0.017497 0.220835 0.000000 2.225782 -0.037393 0.000000 0.003412 0.266440 0.000000 2.136255 -0.049705 0.000000 -0.010923 0.322910 0.000000 2.024860 -0.048095 0.000000 -0.026158 0.392375 0.000000 1.878156 -0.030519 0.000000 -0.040406 0.488048 0.000000 
1.741362 0.028873 0.000000 -0.077201 0.727167 0.000000 1.544823 0.039362 0.000000 -0.084813 0.983558 0.000000 1.320414 0.002751 0.000000 -0.085966 -1.021967 0.000000 1.533977 -0.008154 0.000000 -0.080060 -0.748278 0.000000 1.739601 -0.011111 0.000000 -0.071781 -0.567424 0.000000 1.913040 -0.018510 0.000000 -0.057680 -0.451318 0.000000 2.055758 -0.033022 0.000000 -0.028576 -0.379451 0.000000 2.183438 -0.052458 0.000000 0.030772 -0.334371 0.000000 2.328491 -0.048803 0.000000 0.093437 -0.231321 0.000000 2.372144 -0.030695 0.000000 0.123904 -0.195553 0.000000 2.442310 -0.006306 0.000000 0.112596 -0.138623 0.000000 2.479782 -0.024722 0.000000 0.147324 -0.097606 0.000000 2.493653 -0.014116 0.000000 0.147125 -0.096573 0.000000 2.555815 -0.003629 0.000000 0.134106 -0.048507 0.000000 2.559305 -0.021856 0.000000 0.159676 -0.038208 0.000000 2.574560 -0.003622 0.000000 0.135813 -0.031900 0.000000 2.608421 -0.014475 0.000000 0.143964 0.003602 0.000000 2.593429 -0.018501 0.000000 0.147964 -0.007387 0.000000 2.628238 0.002078 0.000000 0.112365 0.018566 0.000000 2.628738 -0.017824 0.000000 0.135806 0.034491 0.000000 2.603832 -0.001991 0.000000 0.130987 0.019990 0.000000 2.623689 0.015772 0.000000 0.120184 0.060605 0.000000 2.580418 0.005042 0.000000 0.151337 0.074735 0.000000 2.546698 0.034653 0.000000 0.135716 0.099014 0.000000 2.522916 0.049417 0.000000 0.130220 0.168992 0.000000 2.415144 0.066286 0.000000 0.072008 0.188734 0.000000 2.331210 0.046194 0.000000 0.037851 0.200803 0.000000 2.268652 0.024001 0.000000 0.016332 0.228290 0.000000 2.206583 0.008759 0.000000 -0.003736 0.274250 0.000000 2.132972 0.001216 0.000000 -0.026117 0.338990 0.000000 2.038132 0.001467 0.000000 -0.049245 0.425463 0.000000 1.910913 0.010287 0.000000 -0.068630 0.544220 0.000000 
1.862535 0.011917 0.000000 -0.033445 0.854318 0.000000 1.701053 0.034480 0.000000 -0.039647 1.125332 0.000000 1.521812 0.003612 0.000000 -0.040821 -1.156273 0.000000 1.685708 -0.007873 0.000000 -0.038533 -0.873135 0.000000 1.849089 -0.002779 0.000000 -0.036071 -0.675043 0.000000 1.992401 -0.004788 0.000000 -0.030989 -0.546492 0.000000 2.115354 -0.021045 0.000000 -0.013886 -0.473432 0.000000 2.232897 -0.056961 0.000000 0.042975 -0.448957 0.000000 2.409459 -0.054319 0.000000 0.110879 -0.273040 0.000000 2.421553 -0.011282 0.000000 0.130457 -0.257400 0.000000 2.501773 0.039983 0.000000 0.084086 -0.171435 0.000000 2.543830 -0.023639 0.000000 0.136810 -0.110207 0.000000 2.532952 0.007877 0.000000 0.127205 -0.143312 0.000000 2.616704 0.018255 0.000000 0.100913 -0.045720 0.000000 2.607446 -0.037426 0.000000 0.150648 -0.044177 0.000000 2.609625 0.015581 0.000000 0.106693 -0.049346 0.000000 2.661602 -0.027489 0.000000 0.129772 0.025476 0.000000 2.617918 -0.029576 0.000000 0.147546 -0.025738 0.000000 2.661211 0.020925 0.000000 0.091263 0.025391 0.000000 2.665389 -0.043954 0.000000 0.141076 0.052661 0.000000 2.616916 0.001301 0.000000 0.129766 -0.004717 0.000000 2.666033 0.025012 0.000000 0.103987 0.080967 0.000000 2.621681 -0.018032 0.000000 0.152733 0.081967 0.000000 2.590354 0.046350 0.000000 0.117772 0.098745 0.000000 2.602273 0.042823 0.000000 0.120461 0.238544 0.000000 2.465557 0.097468 0.000000 0.040690 0.246364 0.000000 2.385874 0.048743 0.000000 0.010537 0.249547 0.000000 2.331187 0.006940 0.000000 -0.000485 0.282904 0.000000 2.274055 -0.017325 0.000000 -0.007152 0.340051 0.000000 2.204404 -0.027325 0.000000 -0.014331 0.417750 0.000000 2.116475 -0.024966 0.000000 -0.022631 0.519594 0.000000 2.004251 -0.011134 0.000000 -0.030416 0.657600 0.000000 
1.948228 0.031902 0.000000 -0.059657 0.888649 0.000000 1.827992 0.045564 0.000000 -0.065970 1.162798 0.000000 1.703952 0.003925 0.000000 -0.067037 -1.185863 0.000000 1.809504 -0.010442 0.000000 -0.067316 -0.911658 0.000000 1.926366 -0.013573 0.000000 -0.067715 -0.710736 0.000000 2.032793 -0.023592 0.000000 -0.069417 -0.574271 0.000000 2.123139 -0.050125 0.000000 -0.065205 -0.496994 0.000000 2.218341 -0.109319 0.000000 0.008056 -0.510933 0.000000 2.488856 -0.116708 0.000000 0.149402 -0.243415 0.000000 2.392222 -0.050272 0.000000 0.163926 -0.275772 0.000000 2.508058 0.040065 0.000000 0.038684 -0.180680 0.000000 2.549157 -0.077446 0.000000 0.192064 -0.086729 0.000000 2.461249 -0.004511 0.000000 0.136281 -0.180325 0.000000 2.637196 0.022663 0.000000 0.081775 -0.039248 0.000000 2.574978 -0.071590 0.000000 0.218799 -0.040387 0.000000 2.556632 0.040333 0.000000 0.071836 -0.083877 0.000000 2.682355 -0.037554 0.000000 0.158258 0.047286 0.000000 2.550107 -0.036275 0.000000 0.186698 -0.050679 0.000000 2.659651 0.058361 0.000000 0.039617 0.014388 0.000000 2.668650 -0.067637 0.000000 0.198604 0.082964 0.000000 2.543972 0.009320 0.000000 0.133602 -0.029127 0.000000 2.696036 0.041551 0.000000 0.082915 0.104957 0.000000 2.596787 -0.043704 0.000000 0.220990 0.106061 0.000000 2.554753 0.069614 0.000000 0.104926 0.087096 0.000000 2.671473 0.046728 0.000000 0.217229 0.305707 0.000000 2.406420 0.146057 0.000000 0.020405 0.268417 0.000000 2.335159 0.076347 0.000000 -0.008248 0.255490 0.000000 2.304872 0.035024 0.000000 -0.011405 0.285422 0.000000 2.266865 0.015426 0.000000 -0.017017 0.343901 0.000000 2.214661 0.008394 0.000000 -0.027518 0.426918 0.000000 2.145639 0.009767 0.000000 -0.040403 0.537688 0.000000 2.056942 0.018073 0.000000 -0.052151 0.685936 0.000000 
2.070776 0.019423 0.000000 -0.026021 0.974555 0.000000 1.978181 0.040793 0.000000 -0.029569 1.249371 0.000000 1.887994 0.004679 0.000000 -0.030569 -1.261825 0.000000 1.958583 -0.007594 0.000000 -0.032811 -0.989996 0.000000 2.042632 -0.002379 0.000000 -0.038082 -0.781470 0.000000 2.121655 -0.003086 0.000000 -0.050369 -0.636838 0.000000 2.186987 -0.025257 0.000000 -0.072695 -0.568634 0.000000 2.244467 -0.130222 0.000000 -0.067779 -0.719472 0.000000 2.354508 -0.195665 0.000000 -0.044793 -0.176406 0.000000 2.328040 -0.025805 0.000000 -0.036955 -0.373236 0.000000 2.385137 0.165225 0.000000 -0.106537 -0.212535 0.000000 2.430532 -0.177019 0.000000 -0.030224 -0.022299 0.000000 2.386026 0.063660 0.000000 -0.052453 -0.319260 0.000000 2.479163 0.072762 0.000000 -0.089344 0.016498 0.000000 2.463213 -0.174450 0.000000 -0.006990 -0.025831 0.000000 2.441604 0.162543 0.000000 -0.084512 -0.175069 0.000000 2.524005 -0.113912 0.000000 -0.041452 0.157724 0.000000 2.451053 -0.058015 0.000000 -0.011374 -0.135282 0.000000 2.502718 0.168006 0.000000 -0.096934 0.016392 0.000000 2.525694 -0.202941 0.000000 -0.003178 0.177339 0.000000 2.442427 0.066302 0.000000 -0.029338 -0.156780 0.000000 2.533538 0.075699 0.000000 -0.062255 0.180216 0.000000 2.490340 -0.156106 0.000000 0.033147 0.124002 0.000000 2.458596 0.162413 0.000000 -0.018057 -0.017975 0.000000 2.562570 -0.069479 0.000000 0.067327 0.503597 0.000000 2.390289 0.294291 0.000000 -0.038850 0.317625 0.000000 2.376476 0.077396 0.000000 -0.036241 0.279834 0.000000 2.364883 0.010098 0.000000 -0.024336 0.320911 0.000000 2.335677 -0.011713 0.000000 -0.018265 0.392256 0.000000 2.290712 -0.016824 0.000000 -0.017608 0.486772 0.000000 2.231312 -0.012081 0.000000 -0.020112 0.608290 0.000000 2.157527 0.000614 0.000000 -0.023523 0.766313 0.000000 
2.161803 0.034399 0.000000 -0.044713 0.981245 0.000000 2.103609 0.049112 0.000000 -0.048781 1.252985 0.000000 2.053857 0.004925 0.000000 -0.049619 -1.256453 0.000000 2.082934 -0.008199 0.000000 -0.053087 -0.995707 0.000000 2.128591 -0.008302 0.000000 -0.059489 -0.789759 0.000000 2.168946 -0.011305 0.000000 -0.078765 -0.639603 0.000000 2.174134 -0.027799 0.000000 -0.147261 -0.554474 0.000000 2.070509 -0.114235 0.000000 -0.414904 -0.620973 0.000000 1.501640 -0.139694 0.000000 -0.784246 -0.216947 0.000000 1.791933 -0.058110 0.000000 -0.871547 -0.332870 0.000000 1.594485 0.109647 0.000000 -0.596699 -0.226075 0.000000 1.565699 -0.153759 0.000000 -0.926612 -0.042222 0.000000 1.826880 0.017718 0.000000 -0.839531 -0.273463 0.000000 1.473831 0.059553 0.000000 -0.700409 -0.023298 0.000000 1.650983 -0.153944 0.000000 -1.010847 -0.018778 0.000000 1.736840 0.117855 0.000000 -0.717889 -0.166279 0.000000 1.483497 -0.080614 0.000000 -0.887942 0.120239 0.000000 1.803016 -0.066353 0.000000 -0.986607 -0.102345 0.000000 1.582137 0.143921 0.000000 -0.656700 -0.008588 0.000000 1.568990 -0.161393 0.000000 -0.986385 0.166232 0.000000 1.849450 0.035479 0.000000 -0.865544 -0.120238 0.000000 1.498380 0.074468 0.000000 -0.697930 0.148156 0.000000 1.689507 -0.139107 0.000000 -0.963812 0.137805 0.000000 1.768392 0.120819 0.000000 -0.675714 -0.016877 0.000000 1.516053 -0.038657 0.000000 -0.764920 0.477989 0.000000 2.137752 0.252234 0.000000 -0.236405 0.282230 0.000000 2.322408 0.073737 0.000000 -0.082764 0.267082 0.000000 2.353523 0.023119 0.000000 -0.037395 0.314628 0.000000 2.341984 0.009355 0.000000 -0.026007 0.388866 0.000000 2.312616 0.007737 0.000000 -0.027165 0.486318 0.000000 2.271309 0.012271 0.000000 -0.033016 0.611473 0.000000 2.220029 0.021484 0.000000 -0.039567 0.772687 0.000000 
2.280810 0.024569 0.000000 -0.018034 1.032749 0.000000 2.244683 0.044861 0.000000 -0.019195 1.299123 0.000000 2.220927 0.005517 0.000000 -0.019921 -1.290902 0.000000 2.224413 -0.004126 0.000000 -0.023506 -1.035653 0.000000 2.245212 0.004022 0.000000 -0.030465 -0.821826 0.000000 2.263605 0.016190 0.000000 -0.048353 -0.642025 0.000000 2.250046 0.043239 0.000000 -0.108689 -0.465009 0.000000 2.133833 0.137421 0.000000 -0.359934 -0.150603 0.000000 1.604651 0.173677 0.000000 -0.714890 -0.466699 0.000000 1.847157 0.061495 0.000000 -0.819157 -0.175788 0.000000 1.653192 -0.109623 0.000000 -0.567131 -0.183749 0.000000 1.617785 0.152894 0.000000 -0.910957 -0.283480 0.000000 1.864687 -0.023421 0.000000 -0.836243 0.033790 0.000000 1.510631 -0.066360 0.000000 -0.705265 -0.160654 0.000000 1.681364 0.135989 0.000000 -1.029128 -0.111688 0.000000 1.762999 -0.130415 0.000000 -0.735373 0.078274 0.000000 1.501116 0.056141 0.000000 -0.914465 -0.161795 0.000000 1.823890 0.040650 0.000000 -1.019410 0.085597 0.000000 1.593084 -0.161901 0.000000 -0.682819 0.029540 0.000000 1.575959 0.126743 0.000000 -1.030257 -0.103121 0.000000 1.868629 -0.054539 0.000000 -0.908813 0.194290 0.000000 1.499530 -0.091915 0.000000 -0.742039 -0.010911 0.000000 1.702019 0.109776 0.000000 -1.031092 0.045116 0.000000 1.789228 -0.125685 0.000000 -0.734368 0.234363 0.000000 1.509212 0.019726 0.000000 -0.839331 -0.118101 0.000000 2.188478 -0.234223 0.000000 -0.268955 0.132969 0.000000 2.384439 -0.076245 0.000000 -0.098024 0.248719 0.000000 2.419826 -0.035272 0.000000 -0.043423 0.332449 0.000000 2.413179 -0.023102 0.000000 -0.024399 0.421624 0.000000 2.390579 -0.015665 0.000000 -0.018010 0.528079 0.000000 2.358868 -0.006231 0.000000 -0.016671 0.659570 0.000000 2.321060 0.007165 0.000000 -0.017178 0.824539 0.000000 
2.371066 0.035256 0.000000 -0.031071 1.017372 0.000000 2.363110 0.050272 0.000000 -0.032626 1.276741 0.000000 2.370754 0.005651 0.000000 -0.033187 -1.259939 0.000000 2.345348 -0.004614 0.000000 -0.036501 -1.016506 0.000000 2.341201 -0.001343 0.000000 -0.040527 -0.808153 0.000000 2.345763 0.006583 0.000000 -0.046882 -0.626044 0.000000 2.349824 0.032538 0.000000 -0.053812 -0.438261 0.000000 2.360683 0.137010 0.000000 -0.024412 -0.091791 0.000000 2.493225 0.215261 0.000000 0.031331 -0.459453 0.000000 2.394712 0.046157 0.000000 0.027894 -0.138906 0.000000 2.441692 -0.142379 0.000000 -0.057864 -0.190667 0.000000 2.465898 0.190068 0.000000 0.009725 -0.289124 0.000000 2.396262 -0.056996 0.000000 -0.023084 0.080593 0.000000 2.483616 -0.071425 0.000000 -0.066994 -0.194031 0.000000 2.456154 0.169919 0.000000 0.001050 -0.100413 0.000000 2.427774 -0.175899 0.000000 -0.077813 0.095605 0.000000 2.502221 0.098478 0.000000 -0.047027 -0.202535 0.000000 2.432769 0.038592 0.000000 -0.025214 0.128462 0.000000 2.475264 -0.192670 0.000000 -0.106868 0.008536 0.000000 2.496582 0.186046 0.000000 -0.032797 -0.126438 0.000000 2.426063 -0.085965 0.000000 -0.057932 0.248861 0.000000 2.499443 -0.092306 0.000000 -0.093036 -0.054334 0.000000 2.470454 0.149946 0.000000 -0.020253 0.050596 0.000000 2.447981 -0.175905 0.000000 -0.061526 0.263138 0.000000 2.526724 0.066307 0.000000 0.005621 -0.201277 0.000000 2.418832 -0.318142 0.000000 -0.060159 0.086269 0.000000 2.427847 -0.097194 0.000000 -0.043950 0.231695 0.000000 2.435482 -0.031482 0.000000 -0.028774 0.321276 0.000000 2.431899 -0.009668 0.000000 -0.022512 0.411465 0.000000 2.420706 0.001348 0.000000 -0.022271 0.518029 0.000000 2.404885 0.010932 0.000000 -0.024962 0.649281 0.000000 2.387062 0.021990 0.000000 -0.028344 0.812936 0.000000 
2.483378 0.027296 0.000000 -0.009519 1.040705 0.000000 2.493177 0.046416 0.000000 -0.008738 1.291479 0.000000 2.521162 0.006078 0.000000 -0.009178 -1.265495 0.000000 2.477373 -0.000812 0.000000 -0.012795 -1.031505 0.000000 2.456140 0.008048 0.000000 -0.018042 -0.826388 0.000000 2.448539 0.022545 0.000000 -0.025636 -0.646086 0.000000 2.451777 0.050169 0.000000 -0.029359 -0.475868 0.000000 2.485958 0.108021 0.000000 0.030062 -0.283145 0.000000 2.716115 0.117934 0.000000 0.167528 -0.368186 0.000000 2.585484 0.064932 0.000000 0.171925 -0.222769 0.000000 2.674779 -0.023865 0.000000 0.041714 -0.207954 0.000000 2.691749 0.085305 0.000000 0.187569 -0.213845 0.000000 2.584033 0.009388 0.000000 0.125393 -0.053563 0.000000 2.747269 -0.022451 0.000000 0.068711 -0.133192 0.000000 2.670860 0.067945 0.000000 0.205173 -0.083309 0.000000 2.642153 -0.051552 0.000000 0.056133 0.003827 0.000000 2.761739 0.025356 0.000000 0.145598 -0.092343 0.000000 2.620278 0.018837 0.000000 0.176880 0.043101 0.000000 2.727328 -0.080247 0.000000 0.029382 0.008221 0.000000 2.735055 0.052672 0.000000 0.193714 -0.032602 0.000000 2.611043 -0.029404 0.000000 0.126365 0.120909 0.000000 2.775052 -0.056811 0.000000 0.071493 0.018078 0.000000 2.686934 0.036993 0.000000 0.211442 0.067589 0.000000 2.660895 -0.084412 0.000000 0.088424 0.155621 0.000000 2.800866 -0.047421 0.000000 0.205199 -0.010210 0.000000 2.551322 -0.168444 0.000000 -0.001950 0.123954 0.000000 2.504962 -0.092454 0.000000 -0.028577 0.241084 0.000000 2.503994 -0.050448 0.000000 -0.023477 0.336032 0.000000 2.502565 -0.029363 0.000000 -0.016955 0.432818 0.000000 2.497454 -0.015907 0.000000 -0.013000 0.543900 0.000000 2.490516 -0.003540 0.000000 -0.011075 0.677393 0.000000 2.484491 0.010547 0.000000 -0.010160 0.840535 0.000000 
2.569056 0.034615 0.000000 -0.018300 1.007573 0.000000 2.601960 0.049491 0.000000 -0.017673 1.248757 0.000000 2.655110 0.006091 0.000000 -0.017943 -1.216150 0.000000 2.590056 -0.000998 0.000000 -0.020326 -0.995273 0.000000 2.550071 0.003904 0.000000 -0.021512 -0.800551 0.000000 2.529613 0.014177 0.000000 -0.019337 -0.629282 0.000000 2.528162 0.036261 0.000000 -0.005627 -0.472442 0.000000 2.557187 0.077589 0.000000 0.045824 -0.321948 0.000000 2.661182 0.077795 0.000000 0.110181 -0.328822 0.000000 2.624550 0.041760 0.000000 0.133212 -0.228200 0.000000 2.659592 -0.012168 0.000000 0.091067 -0.207638 0.000000 2.665916 0.044213 0.000000 0.143693 -0.181408 0.000000 2.626868 0.005180 0.000000 0.134581 -0.082643 0.000000 2.690442 -0.014743 0.000000 0.107985 -0.117622 0.000000 2.663686 0.033457 0.000000 0.158616 -0.071707 0.000000 2.654272 -0.026859 0.000000 0.111413 -0.023981 0.000000 2.700104 0.009013 0.000000 0.136086 -0.061074 0.000000 2.648001 0.007310 0.000000 0.155305 0.021412 0.000000 2.691434 -0.045172 0.000000 0.096968 0.000809 0.000000 2.694988 0.021713 0.000000 0.153324 -0.002426 0.000000 2.647685 -0.018615 0.000000 0.140188 0.084851 0.000000 2.711578 -0.037434 0.000000 0.112443 0.033784 0.000000 2.676929 0.009997 0.000000 0.166775 0.076636 0.000000 2.663126 -0.052886 0.000000 0.125192 0.123167 0.000000 2.703603 -0.050469 0.000000 0.132383 0.048267 0.000000 2.583776 -0.110992 0.000000 0.036261 0.132630 0.000000 2.536924 -0.070567 0.000000 0.001362 0.232663 0.000000 2.527104 -0.036583 0.000000 -0.008870 0.322705 0.000000 2.527755 -0.016190 0.000000 -0.012095 0.416576 0.000000 2.531804 -0.002607 0.000000 -0.014047 0.524966 0.000000 2.538533 0.009007 0.000000 -0.015944 0.655306 0.000000 2.549746 0.021076 0.000000 -0.017540 0.814049 0.000000 