# vtk DataFile Version 2.0
Comment goes here
ASCII

DATASET STRUCTURED_POINTS
FIELD FieldData 1
TIME 1 1 double
0.06500000
DIMENSIONS    64   64   1

ORIGIN    0.000   0.000   0.000
SPACING   0.03125 0.03125   1.000

POINT_DATA   4096
VECTORS u double

0.586020 -0.003753 0.000000 -1.665073 0.009392 0.000000 0.363265 -0.001184 0.000000 -1.464520 0.002225 0.000000 -0.028337 -0.001432 0.000000 -1.276686 -0.000422 0.000000 0.054849 0.001022 0.000000 -1.092922 -0.001522 0.000000 0.089551 -0.000048 0.000000 -1.005215 -0.004498 0.000000 0.133910 -0.001309 0.000000 -0.981057 -0.007570 0.000000 0.187481 -0.002581 0.000000 -0.971463 -0.010805 0.000000 0.210340 -0.002780 0.000000 -0.924225 -0.013640 0.000000 0.169086 -0.000456 0.000000 -0.816173 -0.015517 0.000000 0.062096 0.002750 0.000000 -0.656393 -0.016712 0.000000 -0.090284 0.003720 0.000000 -0.469136 -0.012655 0.000000 -0.266637 0.004416 0.000000 -0.269455 -0.012010 0.000000 -0.451642 0.005446 0.000000 -0.069144 -0.010157 0.000000 -0.635032 0.007026 0.000000 0.126436 -0.008615 0.000000 -0.817017 0.005340 0.000000 0.320780 -0.007933 0.000000 -0.998023 0.006349 0.000000 0.511407 -0.007123 0.000000 -1.166807 0.003890 0.000000 0.675382 -0.006347 0.000000 -1.294232 0.002000 0.000000 0.785400 -0.005438 0.000000 -1.359607 0.001245 0.000000 0.832795 -0.003073 0.000000 -1.369112 -0.001680 0.000000 0.830676 -0.001526 0.000000 -1.345454 -0.002142 0.000000 0.800049 -0.000283 0.000000 -1.299372 -0.002021 0.000000 0.738677 0.000821 0.000000 -1.217623 -0.002638 0.000000 0.621310 0.002538 0.000000 -1.074211 0.000732 0.000000 0.429458 0.003284 0.000000 -0.863439 0.001332 0.000000 0.168797 0.003055 0.000000 -0.605228 0.001772 0.000000 -0.133907 0.003903 0.000000 -0.329059 0.000872 0.000000 -0.448465 0.003840 0.000000 -0.053443 0.000156 0.000000 -0.765762 0.003096 0.000000 0.206307 0.000025 0.000000 -1.062050 0.002094 0.000000 0.422227 0.000081 0.000000 -1.316940 0.001178 0.000000 0.579484 0.000046 0.000000 -1.526608 -0.000117 0.000000 0.671803 0.000509 0.000000 -1.680779 -0.006409 0.000000 
-0.332163 -0.022790 0.000000 0.405695 0.112215 0.000000 -0.186628 -0.103736 0.000000 0.315855 0.196716 0.000000 0.179263 -0.094555 0.000000 0.224105 -0.040810 0.000000 -0.093600 -0.092018 0.000000 0.087551 -0.018018 0.000000 -0.237182 -0.040192 0.000000 0.026943 -0.023619 0.000000 -0.341357 -0.004430 0.000000 0.007986 -0.028944 0.000000 -0.428561 0.006660 0.000000 -0.002196 -0.014031 0.000000 -0.486422 -0.009554 0.000000 -0.034906 0.017743 0.000000 -0.502205 -0.039790 0.000000 -0.099463 0.050212 0.000000 -0.478209 -0.066519 0.000000 -0.187949 0.073014 0.000000 -0.426493 -0.080054 0.000000 -0.288077 0.081498 0.000000 -0.356384 -0.086267 0.000000 -0.391719 0.085455 0.000000 -0.279268 -0.087759 0.000000 -0.494772 0.083904 0.000000 -0.201148 -0.087761 0.000000 -0.593118 0.083535 0.000000 -0.120447 -0.086993 0.000000 -0.692283 0.083539 0.000000 -0.039258 -0.087214 0.000000 -0.790640 0.078376 0.000000 0.038508 -0.073465 0.000000 -0.877423 0.059068 0.000000 0.094728 -0.047343 0.000000 -0.935837 0.029477 0.000000 0.116150 -0.018603 0.000000 -0.959115 0.003278 0.000000 0.110437 0.005853 0.000000 -0.956494 -0.011682 0.000000 0.091822 0.018214 0.000000 -0.938590 -0.022085 0.000000 0.065801 0.031188 0.000000 -0.905056 -0.038392 0.000000 0.027745 0.058049 0.000000 -0.841730 -0.068273 0.000000 -0.037069 0.091302 0.000000 -0.734614 -0.101589 0.000000 -0.128267 0.124775 0.000000 -0.591214 -0.124193 0.000000 -0.233596 0.145242 0.000000 -0.427572 -0.134208 0.000000 -0.340066 0.152069 0.000000 -0.260369 -0.134987 0.000000 -0.441806 0.154705 0.000000 -0.089729 -0.128031 0.000000 -0.532241 0.145342 0.000000 0.070337 -0.106839 0.000000 -0.591201 0.125559 0.000000 0.207291 -0.077996 0.000000 -0.606087 0.103635 0.000000 0.314948 -0.045147 0.000000 -0.563315 0.075612 0.000000 0.378179 0.046999 0.000000 
1.643695 -0.031269 0.000000 0.658511 -0.136143 0.000000 1.292456 0.088656 0.000000 0.552837 -0.363665 0.000000 1.000250 0.090317 0.000000 0.410973 0.272441 0.000000 1.699553 0.137576 0.000000 0.411724 0.142060 0.000000 2.100923 0.060560 0.000000 0.386867 0.099677 0.000000 2.350084 0.017647 0.000000 0.379011 0.079634 0.000000 2.514383 0.007601 0.000000 0.380689 0.047057 0.000000 2.656393 0.029930 0.000000 0.360914 0.002142 0.000000 2.815289 0.064101 0.000000 0.303311 -0.039512 0.000000 2.996522 0.091237 0.000000 0.206813 -0.068428 0.000000 3.182889 0.103847 0.000000 0.099483 -0.082765 0.000000 3.355112 0.108059 0.000000 -0.014110 -0.089126 0.000000 3.515050 0.108498 0.000000 -0.124938 -0.088277 0.000000 3.663231 0.105373 0.000000 -0.234829 -0.089316 0.000000 3.799114 0.104505 0.000000 -0.339875 -0.089123 0.000000 3.934127 0.104705 0.000000 -0.445574 -0.084889 0.000000 4.057443 0.090674 0.000000 -0.527222 -0.062567 0.000000 4.149695 0.060414 0.000000 -0.566597 -0.026861 0.000000 4.201715 0.024523 0.000000 -0.567112 0.002640 0.000000 4.204560 -0.004302 0.000000 -0.537519 0.017089 0.000000 4.180793 -0.020046 0.000000 -0.497625 0.025739 0.000000 4.140995 -0.035554 0.000000 -0.453471 0.038877 0.000000 4.068978 -0.065964 0.000000 -0.383405 0.067352 0.000000 3.946968 -0.106384 0.000000 -0.284699 0.094482 0.000000 3.761208 -0.142069 0.000000 -0.154047 0.108384 0.000000 3.521470 -0.161870 0.000000 -0.001173 0.110373 0.000000 3.256785 -0.166331 0.000000 0.157304 0.105580 0.000000 2.977650 -0.170485 0.000000 0.318862 0.093531 0.000000 2.688614 -0.160041 0.000000 0.467281 0.061053 0.000000 2.404493 -0.136873 0.000000 0.586924 0.016064 0.000000 2.122115 -0.107611 0.000000 0.685850 -0.042889 0.000000 1.819367 -0.062722 0.000000 0.751691 -0.237561 0.000000 
3.658905 0.070390 0.000000 -0.059547 0.463455 0.000000 2.822553 0.001938 0.000000 -0.259219 0.488921 0.000000 1.412404 0.047309 0.000000 -0.175916 -0.740113 0.000000 3.108661 -0.092769 0.000000 -0.067105 -0.419387 0.000000 3.987002 -0.015335 0.000000 -0.030701 -0.272781 0.000000 4.576488 0.003426 0.000000 -0.012831 -0.193243 0.000000 5.026660 0.004983 0.000000 0.015723 -0.156040 0.000000 5.384716 0.010221 0.000000 0.072765 -0.141154 0.000000 5.672947 0.017812 0.000000 0.156679 -0.131021 0.000000 5.901341 0.029979 0.000000 0.243183 -0.113353 0.000000 6.066047 0.027276 0.000000 0.321104 -0.090725 0.000000 6.169018 0.027327 0.000000 0.384381 -0.074482 0.000000 6.245453 0.023069 0.000000 0.435715 -0.064277 0.000000 6.302521 0.022130 0.000000 0.481838 -0.052347 0.000000 6.340692 0.018052 0.000000 0.524241 -0.051474 0.000000 6.371262 0.018485 0.000000 0.566229 -0.044941 0.000000 6.373546 0.008184 0.000000 0.603679 -0.033184 0.000000 6.375642 -0.007968 0.000000 0.627917 -0.022544 0.000000 6.390500 -0.018088 0.000000 0.639807 0.000434 0.000000 6.390436 -0.023740 0.000000 0.641839 0.012084 0.000000 6.379363 -0.021680 0.000000 0.644051 0.017713 0.000000 6.348372 -0.012967 0.000000 0.651156 0.033625 0.000000 6.299038 -0.012016 0.000000 0.645373 0.053737 0.000000 6.245168 -0.007404 0.000000 0.612316 0.084171 0.000000 6.161125 -0.005877 0.000000 0.555591 0.115545 0.000000 6.049653 -0.007633 0.000000 0.484225 0.130477 0.000000 5.897797 -0.006408 0.000000 0.413084 0.144147 0.000000 5.713722 -0.006852 0.000000 0.340597 0.161005 0.000000 5.497393 -0.003077 0.000000 0.274594 0.177281 0.000000 5.226496 0.005916 0.000000 0.216023 0.204382 0.000000 4.876016 0.004709 0.000000 0.155704 0.257602 0.000000 4.410463 0.009771 0.000000 0.085593 0.222671 0.000000 
3.771273 0.113871 0.000000 0.122710 0.700209 0.000000 3.073738 0.288328 0.000000 -0.128410 1.046484 0.000000 1.962793 0.007014 0.000000 -0.091385 -1.423816 0.000000 3.219419 0.028765 0.000000 -0.126458 -0.736282 0.000000 4.045872 0.024156 0.000000 -0.089120 -0.489808 0.000000 4.627397 -0.000223 0.000000 -0.041345 -0.370538 0.000000 5.070256 -0.020952 0.000000 0.018621 -0.310999 0.000000 5.423649 -0.027113 0.000000 0.100516 -0.286089 0.000000 5.713543 -0.019813 0.000000 0.202756 -0.267906 0.000000 5.956457 0.004734 0.000000 0.295160 -0.233135 0.000000 6.133242 0.025926 0.000000 0.365601 -0.185735 0.000000 6.244999 0.044782 0.000000 0.412873 -0.165561 0.000000 6.334037 0.057164 0.000000 0.447630 -0.145345 0.000000 6.404760 0.059250 0.000000 0.482949 -0.127487 0.000000 6.453254 0.062102 0.000000 0.511476 -0.119694 0.000000 6.496371 0.062718 0.000000 0.539120 -0.087172 0.000000 6.506833 0.053223 0.000000 0.556938 -0.064663 0.000000 6.508016 0.036176 0.000000 0.568097 -0.041719 0.000000 6.521555 0.012633 0.000000 0.578923 0.002704 0.000000 6.509154 -0.006334 0.000000 0.582758 0.028163 0.000000 6.484655 -0.022258 0.000000 0.588172 0.056730 0.000000 6.449691 -0.042660 0.000000 0.600082 0.088210 0.000000 6.390175 -0.060180 0.000000 0.599508 0.121223 0.000000 6.325132 -0.073327 0.000000 0.578389 0.178525 0.000000 6.222238 -0.085344 0.000000 0.537477 0.219856 0.000000 6.068585 -0.090504 0.000000 0.487050 0.262228 0.000000 5.885618 -0.095189 0.000000 0.437137 0.289656 0.000000 5.682273 -0.097998 0.000000 0.389915 0.309860 0.000000 5.454191 -0.094038 0.000000 0.350530 0.331951 0.000000 5.180173 -0.078302 0.000000 0.318900 0.366544 0.000000 4.837641 -0.047292 0.000000 0.273738 0.422664 0.000000 4.411779 0.007389 0.000000 0.197868 0.513997 0.000000 
4.040011 0.145548 0.000000 -0.032607 1.160990 0.000000 3.369195 0.253058 0.000000 -0.099227 1.599866 0.000000 2.473511 0.010284 0.000000 -0.106459 -1.996739 0.000000 3.373137 -0.057696 0.000000 -0.098741 -1.245840 0.000000 4.153812 -0.052674 0.000000 -0.073064 -0.854306 0.000000 4.725337 -0.044348 0.000000 -0.048705 -0.636102 0.000000 5.160263 -0.054984 0.000000 -0.006401 -0.509433 0.000000 5.508748 -0.071674 0.000000 0.072880 -0.431048 0.000000 5.793551 -0.084428 0.000000 0.191263 -0.373935 0.000000 6.042443 -0.062425 0.000000 0.283750 -0.290138 0.000000 6.209075 -0.043165 0.000000 0.364156 -0.202482 0.000000 6.295864 -0.019946 0.000000 0.412517 -0.163521 0.000000 6.376391 -0.011688 0.000000 0.450765 -0.135000 0.000000 6.427385 -0.013189 0.000000 0.499418 -0.100841 0.000000 6.462488 -0.010475 0.000000 0.537572 -0.094591 0.000000 6.505704 -0.009159 0.000000 0.576194 -0.055402 0.000000 6.493352 -0.009634 0.000000 0.601471 -0.034367 0.000000 6.492065 -0.019127 0.000000 0.620500 -0.036083 0.000000 6.507423 -0.028914 0.000000 0.650578 0.012835 0.000000 6.487371 -0.027575 0.000000 0.659349 0.036584 0.000000 6.473842 -0.027094 0.000000 0.664707 0.052677 0.000000 6.436278 -0.024878 0.000000 0.680500 0.093140 0.000000 6.389417 -0.011441 0.000000 0.680234 0.118780 0.000000 6.344815 0.013715 0.000000 0.659542 0.187065 0.000000 6.237185 0.035035 0.000000 0.605958 0.269198 0.000000 6.117134 0.042794 0.000000 0.529030 0.313444 0.000000 5.949019 0.043505 0.000000 0.439204 0.347492 0.000000 5.758964 0.040370 0.000000 0.352003 0.389088 0.000000 5.550612 0.036308 0.000000 0.277195 0.451299 0.000000 5.302924 0.037546 0.000000 0.210949 0.546914 0.000000 4.988788 0.049871 0.000000 0.141432 0.683463 0.000000 4.579286 0.085641 0.000000 0.056764 0.863177 0.000000 
4.229614 0.203242 0.000000 0.099406 1.371025 0.000000 3.695188 0.354948 0.000000 0.023670 1.942168 0.000000 2.982258 0.014246 0.000000 0.016122 -2.323443 0.000000 3.613163 0.021046 0.000000 -0.046015 -1.516956 0.000000 4.236276 -0.001521 0.000000 -0.061070 -1.061333 0.000000 4.743211 -0.024582 0.000000 -0.050553 -0.805464 0.000000 5.149832 -0.063256 0.000000 -0.016287 -0.659484 0.000000 5.493239 -0.106393 0.000000 0.069070 -0.570892 0.000000 5.771370 -0.138197 0.000000 0.248732 -0.516799 0.000000 6.039345 -0.087753 0.000000 0.332499 -0.399767 0.000000 6.202844 -0.054479 0.000000 0.408869 -0.272523 0.000000 6.276540 -0.003580 0.000000 0.429496 -0.246088 0.000000 6.366193 0.018917 0.000000 0.444598 -0.196339 0.000000 6.431147 0.010597 0.000000 0.491448 -0.162590 0.000000 6.466086 0.023948 0.000000 0.512893 -0.162910 0.000000 6.532700 0.024096 0.000000 0.540197 -0.074820 0.000000 6.524873 0.027946 0.000000 0.548593 -0.063376 0.000000 6.520443 0.017147 0.000000 0.550719 -0.057077 0.000000 6.563481 -0.017445 0.000000 0.583354 0.022755 0.000000 6.533599 -0.015104 0.000000 0.581849 0.041692 0.000000 6.513529 -0.027616 0.000000 0.578464 0.094293 0.000000 6.492408 -0.058453 0.000000 0.607523 0.135071 0.000000 6.432790 -0.059914 0.000000 0.616612 0.165825 0.000000 6.398335 -0.052636 0.000000 0.602557 0.286155 0.000000 6.293048 -0.031760 0.000000 0.561220 0.339907 0.000000 6.112103 -0.013576 0.000000 0.494031 0.430343 0.000000 5.920806 -0.005363 0.000000 0.421539 0.479710 0.000000 5.731256 -0.010797 0.000000 0.360319 0.518213 0.000000 5.535169 -0.019230 0.000000 0.316504 0.579638 0.000000 5.308986 -0.012057 0.000000 0.280589 0.680681 0.000000 5.030674 0.022226 0.000000 0.238126 0.832166 0.000000 4.680753 0.092057 0.000000 0.181245 1.053272 0.000000 
4.517546 0.227387 0.000000 0.034407 1.695415 0.000000 4.045695 0.328795 0.000000 0.023133 2.312796 0.000000 3.454588 0.017832 0.000000 0.015684 -2.627643 0.000000 3.900100 0.004441 0.000000 -0.025853 -1.868953 0.000000 4.409813 -0.037619 0.000000 -0.050610 -1.361241 0.000000 4.863909 -0.054865 0.000000 -0.073188 -1.042723 0.000000 5.247699 -0.089249 0.000000 -0.085290 -0.852840 0.000000 5.593712 -0.157031 0.000000 -0.023806 -0.709179 0.000000 5.871410 -0.264090 0.000000 0.308998 -0.641909 0.000000 6.154768 -0.146192 0.000000 0.344213 -0.453638 0.000000 6.299530 -0.119535 0.000000 0.438197 -0.276178 0.000000 6.312803 -0.040573 0.000000 0.454775 -0.253173 0.000000 6.419110 -0.026790 0.000000 0.425089 -0.199955 0.000000 6.449074 -0.060039 0.000000 0.521707 -0.135780 0.000000 6.470622 -0.031920 0.000000 0.539785 -0.161204 0.000000 6.575644 -0.036463 0.000000 0.577115 -0.047575 0.000000 6.500741 -0.018031 0.000000 0.594956 -0.029938 0.000000 6.512109 -0.021253 0.000000 0.565829 -0.079121 0.000000 6.571954 -0.061550 0.000000 0.659667 0.042717 0.000000 6.508990 -0.026070 0.000000 0.649792 0.056654 0.000000 6.532113 -0.023708 0.000000 0.606957 0.073798 0.000000 6.484140 -0.053938 0.000000 0.669539 0.152758 0.000000 6.448520 -0.020530 0.000000 0.666997 0.153235 0.000000 6.470033 0.027770 0.000000 0.687972 0.292352 0.000000 6.297952 0.076372 0.000000 0.655939 0.450144 0.000000 6.192460 0.109983 0.000000 0.553874 0.504740 0.000000 5.988317 0.115997 0.000000 0.408368 0.537043 0.000000 5.805084 0.101590 0.000000 0.303483 0.585174 0.000000 5.639991 0.080124 0.000000 0.240225 0.677482 0.000000 5.450704 0.073461 0.000000 0.192401 0.825226 0.000000 5.209985 0.092334 0.000000 0.143853 1.033385 0.000000 4.902153 0.142522 0.000000 0.090136 1.314316 0.000000 
4.753530 0.258972 0.000000 0.130965 1.842876 0.000000 4.388851 0.366222 0.000000 0.117747 2.533275 0.000000 3.922844 0.021695 0.000000 0.110540 -2.768955 0.000000 4.222618 0.062583 0.000000 0.054929 -2.026669 0.000000 4.589178 0.023237 0.000000 0.007042 -1.515429 0.000000 4.948736 -0.002004 0.000000 -0.042525 -1.189254 0.000000 5.272620 -0.051154 0.000000 -0.125535 -1.005497 0.000000 5.613309 -0.167877 0.000000 -0.199480 -0.848590 0.000000 5.921724 -0.471001 0.000000 0.517060 -0.800157 0.000000 6.198551 -0.122968 0.000000 0.363620 -0.544528 0.000000 6.325162 -0.148463 0.000000 0.478158 -0.285797 0.000000 6.287635 -0.020157 0.000000 0.507062 -0.352395 0.000000 6.410870 0.048603 0.000000 0.332285 -0.226303 0.000000 6.489094 -0.086022 0.000000 0.547764 -0.184138 0.000000 6.456513 0.005871 0.000000 0.541204 -0.267932 0.000000 6.620772 -0.013234 0.000000 0.503654 0.000083 0.000000 6.539985 0.010104 0.000000 0.596656 -0.074745 0.000000 6.499789 0.046275 0.000000 0.469535 -0.116922 0.000000 6.664125 -0.111283 0.000000 0.605395 0.085719 0.000000 6.545386 -0.005229 0.000000 0.631084 0.018570 0.000000 6.540050 0.015218 0.000000 0.463988 0.142267 0.000000 6.579695 -0.121035 0.000000 0.640885 0.170691 0.000000 6.472232 -0.057371 0.000000 0.656298 0.144311 0.000000 6.542877 -0.073611 0.000000 0.604076 0.458236 0.000000 6.436092 0.000273 0.000000 0.672758 0.445399 0.000000 6.151137 0.088489 0.000000 0.506787 0.634486 0.000000 5.932904 0.140143 0.000000 0.366575 0.662943 0.000000 5.784121 0.094088 0.000000 0.287142 0.683306 0.000000 5.656226 0.044028 0.000000 0.255806 0.768925 0.000000 5.503128 0.035767 0.000000 0.236215 0.921400 0.000000 5.305769 0.070775 0.000000 0.210557 1.139998 0.000000 5.057330 0.145773 0.000000 0.174543 1.437878 0.000000 
5.039042 0.270965 0.000000 0.094709 2.060094 0.000000 4.733636 0.342012 0.000000 0.117283 2.778803 0.000000 4.357195 0.025039 0.000000 0.110762 -2.927417 0.000000 4.545144 0.060052 0.000000 0.078138 -2.235513 0.000000 4.806914 0.010268 0.000000 0.043844 -1.720799 0.000000 5.082296 -0.005298 0.000000 -0.022322 -1.366607 0.000000 5.348950 -0.006240 0.000000 -0.189617 -1.193529 0.000000 5.677274 -0.083086 0.000000 -0.387881 -1.017593 0.000000 6.028512 -0.980631 0.000000 0.595436 -0.918737 0.000000 6.278531 0.007248 0.000000 0.139567 -0.580249 0.000000 6.407099 -0.234073 0.000000 0.430686 -0.238650 0.000000 6.257510 -0.069477 0.000000 0.595555 -0.376408 0.000000 6.467909 0.147988 0.000000 0.059727 -0.278179 0.000000 6.480116 -0.275519 0.000000 0.632451 -0.103200 0.000000 6.411838 -0.025360 0.000000 0.533374 -0.325463 0.000000 6.745144 0.001088 0.000000 0.451865 0.033211 0.000000 6.447727 -0.111032 0.000000 0.750222 0.010258 0.000000 6.477311 0.105868 0.000000 0.266852 -0.243456 0.000000 6.716439 -0.197410 0.000000 0.763354 0.161456 0.000000 6.450639 -0.051760 0.000000 0.810787 0.061990 0.000000 6.605346 0.143389 0.000000 0.263282 0.034154 0.000000 6.534735 -0.230835 0.000000 0.804895 0.260221 0.000000 6.458816 -0.035942 0.000000 0.624634 0.082591 0.000000 6.756862 0.079991 0.000000 0.608995 0.399137 0.000000 6.371428 0.007691 0.000000 1.033382 0.735099 0.000000 6.325672 0.275953 0.000000 0.651797 0.722973 0.000000 5.959127 0.256209 0.000000 0.269789 0.685826 0.000000 5.843867 0.181023 0.000000 0.188303 0.713070 0.000000 5.773753 0.111460 0.000000 0.179444 0.830579 0.000000 5.660675 0.093051 0.000000 0.167213 1.022585 0.000000 5.498949 0.117992 0.000000 0.144264 1.281824 0.000000 5.291367 0.178536 0.000000 0.116384 1.618116 0.000000 
5.286337 0.280647 0.000000 0.168898 2.148282 0.000000 5.064242 0.343648 0.000000 0.194346 2.909716 0.000000 4.785850 0.028216 0.000000 0.188404 -2.956903 0.000000 4.880769 0.095207 0.000000 0.162005 -2.288440 0.000000 5.040891 0.057531 0.000000 0.142799 -1.790811 0.000000 5.230464 0.064162 0.000000 0.131753 -1.455908 0.000000 5.403920 0.116140 0.000000 0.115117 -1.333820 0.000000 5.488477 0.030387 0.000000 0.042031 -1.199828 0.000000 5.568058 -1.454318 0.000000 -0.481859 -1.050175 0.000000 5.427014 0.332900 0.000000 -0.497690 -0.673097 0.000000 5.643264 -0.439582 0.000000 -0.565147 -0.136208 0.000000 5.816747 -0.185027 0.000000 -0.198903 -0.562793 0.000000 5.779959 0.584431 0.000000 -0.378878 -0.238511 0.000000 6.003797 -0.658746 0.000000 -0.212684 -0.115859 0.000000 5.952963 0.104948 0.000000 0.010676 -0.601238 0.000000 6.029739 0.068275 0.000000 -0.219210 0.297500 0.000000 6.120905 -0.288253 0.000000 0.121465 -0.104328 0.000000 5.955459 0.529644 0.000000 -0.031643 -0.356050 0.000000 6.187293 -0.607785 0.000000 0.056175 0.351518 0.000000 6.100585 -0.052662 0.000000 0.400109 -0.136137 0.000000 6.009975 0.562723 0.000000 -0.042904 0.212877 0.000000 6.207129 -0.662648 0.000000 0.280852 0.246610 0.000000 6.053450 0.122890 0.000000 0.435039 -0.153734 0.000000 6.258112 -0.057973 0.000000 0.323969 0.843670 0.000000 6.291399 -0.424114 0.000000 1.182220 0.491156 0.000000 5.959943 0.470074 0.000000 0.446437 1.001031 0.000000 5.805739 0.522151 0.000000 0.133220 0.778203 0.000000 5.842349 0.175574 0.000000 0.139614 0.753420 0.000000 5.830923 0.052887 0.000000 0.180512 0.882003 0.000000 5.751493 0.047998 0.000000 0.197258 1.083126 0.000000 5.627592 0.093724 0.000000 0.193797 1.347579 0.000000 5.471369 0.173653 0.000000 0.180178 1.690204 0.000000 
5.556825 0.282246 0.000000 0.145306 2.282190 0.000000 5.386591 0.316564 0.000000 0.189160 3.057195 0.000000 5.182525 0.030981 0.000000 0.183996 -3.022337 0.000000 5.205489 0.086451 0.000000 0.177005 -2.395635 0.000000 5.286443 0.029474 0.000000 0.202832 -1.910373 0.000000 5.371460 0.005747 0.000000 0.307956 -1.540063 0.000000 5.341878 0.010397 0.000000 0.531301 -1.278085 0.000000 4.953354 -0.010000 0.000000 0.608622 -1.097174 0.000000 4.241450 -0.456740 0.000000 -2.177732 -0.777693 0.000000 3.872404 0.023079 0.000000 -1.454501 -0.796499 0.000000 3.552533 -0.166617 0.000000 -2.114600 -0.412134 0.000000 4.175592 -0.435721 0.000000 -2.559924 -0.339620 0.000000 4.037038 0.327963 0.000000 -1.248539 -0.502017 0.000000 3.906298 -0.441712 0.000000 -2.315247 -0.052365 0.000000 4.287737 -0.248720 0.000000 -2.272009 -0.402240 0.000000 3.587771 0.230973 0.000000 -1.778147 -0.057954 0.000000 4.148178 -0.451707 0.000000 -2.369359 0.175704 0.000000 4.394143 0.258976 0.000000 -1.407588 -0.475291 0.000000 3.637023 -0.285227 0.000000 -2.115672 0.248164 0.000000 4.232015 -0.395694 0.000000 -2.370469 0.152599 0.000000 4.147439 0.586401 0.000000 -1.070333 -0.163001 0.000000 4.051110 -0.554590 0.000000 -1.993244 0.413901 0.000000 4.352788 -0.190130 0.000000 -1.891417 -0.122071 0.000000 3.790773 0.191061 0.000000 -1.537599 0.365849 0.000000 4.441416 -0.850561 0.000000 -2.355879 1.066554 0.000000 5.053881 1.011737 0.000000 -1.086483 0.877178 0.000000 5.807355 0.569426 0.000000 -0.207710 0.649216 0.000000 6.013898 0.174629 0.000000 0.072908 0.724495 0.000000 5.996985 0.070562 0.000000 0.143442 0.910010 0.000000 5.920847 0.076304 0.000000 0.155481 1.146486 0.000000 5.819777 0.121453 0.000000 0.150152 1.438047 0.000000 5.698324 0.192155 0.000000 0.142173 1.803148 0.000000 
5.797906 0.277513 0.000000 0.204478 2.318517 0.000000 5.694860 0.299794 0.000000 0.248662 3.113782 0.000000 5.572174 0.033380 0.000000 0.244265 -2.979867 0.000000 5.523598 0.102198 0.000000 0.231492 -2.369395 0.000000 5.522064 0.031704 0.000000 0.242092 -1.875827 0.000000 5.525202 -0.040962 0.000000 0.323239 -1.426327 0.000000 5.437335 -0.107204 0.000000 0.512274 -0.945296 0.000000 5.124667 -0.046935 0.000000 0.603926 -0.487925 0.000000 4.810005 1.332036 0.000000 -0.951734 -0.681129 0.000000 4.254861 -0.390330 0.000000 -0.742062 -0.353226 0.000000 4.019263 0.220517 0.000000 -1.298745 -0.759266 0.000000 4.370706 0.260297 0.000000 -1.752589 -0.424239 0.000000 4.179369 -0.726953 0.000000 -0.910685 -0.107770 0.000000 4.092351 0.407962 0.000000 -1.890618 -0.497299 0.000000 4.343162 0.061710 0.000000 -1.964312 0.098728 0.000000 3.704709 -0.425587 0.000000 -1.623768 -0.262907 0.000000 4.202842 0.302959 0.000000 -2.269436 -0.350292 0.000000 4.417264 -0.432127 0.000000 -1.409605 0.401070 0.000000 3.657163 0.100299 0.000000 -2.201387 -0.243473 0.000000 4.238378 0.202135 0.000000 -2.561896 -0.051561 0.000000 4.155242 -0.737412 0.000000 -1.248703 0.309206 0.000000 3.966573 0.260262 0.000000 -2.377857 -0.055067 0.000000 4.333140 0.021064 0.000000 -2.339370 0.408281 0.000000 3.597055 -0.411791 0.000000 -2.026826 0.193026 0.000000 4.180622 0.394166 0.000000 -3.400848 -0.121309 0.000000 5.091411 -0.799322 0.000000 -1.575549 0.247557 0.000000 5.975767 -0.356622 0.000000 -0.324483 0.571660 0.000000 6.143658 -0.105044 0.000000 0.064202 0.770333 0.000000 6.102621 -0.017647 0.000000 0.162406 0.958140 0.000000 6.033982 0.035959 0.000000 0.186914 1.184197 0.000000 5.961487 0.099053 0.000000 0.192091 1.469032 0.000000 5.883498 0.181632 0.000000 0.193631 1.831703 0.000000 
6.046132 0.271399 0.000000 0.185743 2.385236 0.000000 5.990161 0.272381 0.000000 0.235628 3.179881 0.000000 5.931295 0.035378 0.000000 0.232149 -2.973761 0.000000 5.834260 0.099224 0.000000 0.212155 -2.394101 0.000000 5.788351 0.018874 0.000000 0.181969 -1.913510 0.000000 5.779378 -0.075400 0.000000 0.132841 -1.452196 0.000000 5.795849 -0.178638 0.000000 0.031958 -0.965417 0.000000 5.895722 -0.101652 0.000000 -0.069030 -0.782512 0.000000 6.182447 1.098920 0.000000 0.804656 -0.222549 0.000000 6.149985 -0.186594 0.000000 0.383339 -0.560901 0.000000 6.300997 0.390067 0.000000 0.495973 -0.763577 0.000000 6.163176 0.018124 0.000000 0.690921 -0.148283 0.000000 6.134903 -0.513942 0.000000 0.106821 -0.414999 0.000000 6.275280 0.538222 0.000000 0.333720 -0.303176 0.000000 6.116498 -0.175026 0.000000 0.397706 0.236213 0.000000 6.253646 -0.109571 0.000000 0.049723 -0.556087 0.000000 6.238950 0.193961 0.000000 0.301405 -0.038718 0.000000 6.046687 -0.600855 0.000000 0.043661 0.284810 0.000000 6.273622 0.506555 0.000000 0.035046 -0.333050 0.000000 6.177928 -0.035185 0.000000 0.286445 0.235735 0.000000 6.067547 -0.726792 0.000000 -0.181973 0.025669 0.000000 6.233009 0.574563 0.000000 -0.082426 0.047333 0.000000 6.126104 -0.228616 0.000000 0.051137 0.614014 0.000000 6.148525 -0.121483 0.000000 -0.205366 -0.217718 0.000000 6.239068 0.523460 0.000000 0.229753 0.155765 0.000000 5.987040 -0.813562 0.000000 -0.176910 -0.007178 0.000000 6.060875 -0.681640 0.000000 -0.094830 0.481325 0.000000 6.156504 -0.214056 0.000000 0.048825 0.765533 0.000000 6.181814 -0.027641 0.000000 0.122495 0.978648 0.000000 6.166072 0.051796 0.000000 0.149998 1.218981 0.000000 6.132796 0.116277 0.000000 0.159238 1.516037 0.000000 6.091646 0.190615 0.000000 0.166464 1.888739 0.000000 
6.272291 0.258234 0.000000 0.232364 2.374488 0.000000 6.272520 0.249908 0.000000 0.281094 3.172648 0.000000 6.282459 0.036859 0.000000 0.278483 -2.882833 0.000000 6.136795 0.122193 0.000000 0.256798 -2.323486 0.000000 6.043602 0.061890 0.000000 0.216490 -1.866854 0.000000 6.004502 0.008166 0.000000 0.135269 -1.442798 0.000000 6.038351 -0.006322 0.000000 -0.055830 -1.045169 0.000000 6.228880 0.054053 0.000000 -0.253306 -0.774650 0.000000 6.370762 0.458350 0.000000 0.650777 -0.648668 0.000000 6.699859 0.030987 0.000000 0.367896 -0.504237 0.000000 6.707735 0.107883 0.000000 0.662533 -0.621446 0.000000 6.500547 0.065349 0.000000 0.695454 -0.395966 0.000000 6.695487 -0.142854 0.000000 0.226659 -0.248147 0.000000 6.629649 0.181063 0.000000 0.722405 -0.338517 0.000000 6.570328 -0.002276 0.000000 0.577623 -0.038421 0.000000 6.886162 -0.077604 0.000000 0.486439 -0.248211 0.000000 6.571964 0.051277 0.000000 0.734660 -0.158030 0.000000 6.609573 -0.174383 0.000000 0.230976 0.174136 0.000000 6.848827 0.108913 0.000000 0.699233 -0.147780 0.000000 6.588603 -0.049264 0.000000 0.744056 0.058821 0.000000 6.741450 -0.268994 0.000000 0.141778 0.143744 0.000000 6.698388 0.160715 0.000000 0.697471 0.051838 0.000000 6.623856 -0.112499 0.000000 0.542544 0.385860 0.000000 6.944278 -0.155288 0.000000 0.488089 0.102483 0.000000 6.614286 -0.040953 0.000000 1.107131 0.130718 0.000000 6.549127 -0.392660 0.000000 0.540677 0.173722 0.000000 6.263769 -0.438702 0.000000 0.138943 0.476030 0.000000 6.246167 -0.248699 0.000000 0.110146 0.745023 0.000000 6.270155 -0.091317 0.000000 0.149901 0.973882 0.000000 6.276148 0.008456 0.000000 0.177731 1.217473 0.000000 6.273176 0.089813 0.000000 0.193794 1.510182 0.000000 6.270622 0.174406 0.000000 0.207980 1.877217 0.000000 
6.495845 0.247015 0.000000 0.217362 2.385007 0.000000 6.538572 0.223651 0.000000 0.264810 3.169942 0.000000 6.604323 0.037989 0.000000 0.262982 -2.828096 0.000000 6.433241 0.120909 0.000000 0.238758 -2.300909 0.000000 6.319932 0.059182 0.000000 0.198851 -1.874410 0.000000 6.272874 0.005821 0.000000 0.150119 -1.486044 0.000000 6.299763 0.012461 0.000000 0.096098 -1.155946 0.000000 6.420731 0.095823 0.000000 0.080406 -0.924395 0.000000 6.568543 0.194838 0.000000 0.436031 -0.551646 0.000000 6.658252 0.096287 0.000000 0.428666 -0.568777 0.000000 6.742537 0.095430 0.000000 0.509113 -0.556389 0.000000 6.657683 -0.014798 0.000000 0.564184 -0.343223 0.000000 6.669925 -0.045147 0.000000 0.425749 -0.349160 0.000000 6.726004 0.042476 0.000000 0.585968 -0.243855 0.000000 6.657068 -0.030244 0.000000 0.587793 -0.079622 0.000000 6.774632 -0.018386 0.000000 0.531763 -0.241888 0.000000 6.694350 -0.054260 0.000000 0.615398 -0.076328 0.000000 6.643565 -0.097171 0.000000 0.484919 0.045557 0.000000 6.801666 0.038298 0.000000 0.617715 -0.072826 0.000000 6.688672 -0.080009 0.000000 0.636997 0.082887 0.000000 6.709057 -0.124513 0.000000 0.449140 0.068731 0.000000 6.746805 0.018870 0.000000 0.661104 0.121865 0.000000 6.674493 -0.073689 0.000000 0.649002 0.293593 0.000000 6.814885 -0.067028 0.000000 0.619052 0.112274 0.000000 6.702417 -0.095581 0.000000 0.739655 0.220923 0.000000 6.590419 -0.247108 0.000000 0.528444 0.278180 0.000000 6.421154 -0.279906 0.000000 0.280921 0.498927 0.000000 6.369935 -0.185260 0.000000 0.179486 0.741545 0.000000 6.380492 -0.067396 0.000000 0.160730 0.972655 0.000000 6.403790 0.023965 0.000000 0.164976 1.221953 0.000000 6.429060 0.100214 0.000000 0.174715 1.518591 0.000000 6.458516 0.176428 0.000000 0.189710 1.887071 0.000000 