# vtk DataFile Version 2.0
Comment goes here
ASCII

DATASET STRUCTURED_POINTS
FIELD FieldData 1
TIME 1 1 double
0.01200000
DIMENSIONS    64   64   1

ORIGIN    0.000   0.000   0.000
SPACING   0.03125 0.03125   1.000

POINT_DATA   4096
SCALARS uX double
LOOKUP_TABLE default

1.816945e-01 -5.916190e-01 4.357650e-01 -5.780006e-01 3.696448e-01 -4.741475e-01 2.389529e-01 -3.326245e-01 9.974817e-02 -1.838245e-01 -3.360403e-02 -4.812332e-02 -1.454705e-01 5.884865e-02 -2.229765e-01 1.255864e-01 -2.576658e-01 1.504884e-01 -2.594863e-01 1.492903e-01 -2.453932e-01 1.373115e-01 -2.254161e-01 1.218357e-01 -2.082178e-01 1.139759e-01 -2.018388e-01 1.157602e-01 -2.032519e-01 1.182652e-01 -1.983929e-01 1.114103e-01 -1.892031e-01 1.063864e-01 -1.846364e-01 1.015130e-01 -1.754777e-01 9.133733e-02 -1.629879e-01 7.371564e-02 -1.395397e-01 4.979370e-02 -1.234138e-01 4.095238e-02 -1.200034e-01 3.047954e-02 -9.801168e-02 -1.205079e-02 -3.846968e-02 -8.900428e-02 4.028810e-02 -1.684999e-01 1.076685e-01 -2.231398e-01 1.342233e-01 -2.264318e-01 1.052725e-01 -1.821153e-01 4.014588e-02 -1.181483e-01 -2.125679e-02 -8.252203e-02 -3.419816e-02 -1.232064e-01 
5.305153e-02 2.874822e-01 -3.337575e-01 3.274791e-01 -3.191260e-01 2.801376e-01 -2.521540e-01 2.081128e-01 -1.886167e-01 1.321150e-01 -1.313320e-01 6.507425e-02 -8.772411e-02 1.435315e-02 -6.124626e-02 -1.581441e-02 -5.555866e-02 -2.526256e-02 -6.339007e-02 -2.451581e-02 -7.402667e-02 -2.188636e-02 -8.339135e-02 -1.911474e-02 -8.968423e-02 -2.159905e-02 -8.832482e-02 -3.095961e-02 -7.891558e-02 -4.210978e-02 -7.345772e-02 -4.798632e-02 -6.948259e-02 -5.562537e-02 -6.092306e-02 -6.520762e-02 -5.448993e-02 -7.163438e-02 -4.761574e-02 -7.397974e-02 -4.882916e-02 -7.362399e-02 -4.168019e-02 -8.857568e-02 -1.612482e-02 -1.099011e-01 4.477103e-03 -1.211592e-01 1.219569e-02 -1.166673e-01 1.440239e-02 -1.150321e-01 2.465894e-02 -1.279741e-01 5.842583e-02 -1.693634e-01 1.226107e-01 -2.333204e-01 2.025623e-01 -3.034272e-01 2.724788e-01 -3.468579e-01 3.013322e-01 -3.178465e-01 
3.445701e-01 3.514644e-01 -2.204007e-02 3.658541e-01 2.648074e-02 2.984751e-01 1.049135e-01 2.073914e-01 2.184608e-01 1.150174e-01 3.308788e-01 3.472624e-02 4.259046e-01 -2.436499e-02 4.950981e-01 -5.616073e-02 5.321977e-01 -6.119173e-02 5.449285e-01 -5.268497e-02 5.472972e-01 -4.171682e-02 5.450924e-01 -3.045335e-02 5.435154e-01 -2.664334e-02 5.495899e-01 -3.188633e-02 5.615455e-01 -3.898866e-02 5.675618e-01 -3.935880e-02 5.698397e-01 -4.285981e-02 5.767679e-01 -4.866956e-02 5.805650e-01 -5.223348e-02 5.827293e-01 -5.097178e-02 5.748571e-01 -4.617995e-02 5.747215e-01 -5.884624e-02 5.886914e-01 -7.594397e-02 5.904333e-01 -7.378612e-02 5.649724e-01 -4.881742e-02 5.245053e-01 -2.391635e-02 4.899952e-01 -1.552143e-02 4.830845e-01 -4.293940e-02 5.140351e-01 -1.018078e-01 5.664436e-01 -1.729034e-01 6.102674e-01 -2.187195e-01 6.121199e-01 -1.921584e-01 
3.440514e-01 -2.239375e-01 3.919902e-01 -1.834708e-01 4.724983e-02 -1.371634e-01 2.798000e-01 -8.791734e-02 4.256386e-01 -4.824329e-02 5.253091e-01 -1.738619e-02 6.011948e-01 5.385653e-03 6.646363e-01 1.941508e-02 7.233738e-01 2.318572e-02 7.744737e-01 2.225242e-02 8.154989e-01 2.040044e-02 8.470557e-01 1.855518e-02 8.707183e-01 1.887703e-02 8.862926e-01 2.286217e-02 8.927004e-01 2.826858e-02 8.998681e-01 2.797854e-02 9.067742e-01 2.938744e-02 9.070761e-01 3.232699e-02 9.077168e-01 3.272665e-02 9.053436e-01 3.102691e-02 9.069044e-01 2.518460e-02 9.018102e-01 2.920758e-02 8.805973e-01 3.724302e-02 8.590809e-01 3.499866e-02 8.423728e-01 1.960710e-02 8.232161e-01 4.409420e-03 7.969390e-01 -2.756981e-03 7.541628e-01 8.894065e-03 6.862689e-01 3.772757e-02 5.944950e-01 8.045603e-02 4.805166e-01 1.284005e-01 3.391179e-01 1.739168e-01 
4.611069e-01 -1.161189e-01 4.325737e-01 -9.164704e-02 1.276975e-01 -6.802844e-02 3.736681e-01 -4.561436e-02 5.123996e-01 -2.892749e-02 6.063304e-01 -1.616126e-02 6.779577e-01 -5.658802e-03 7.367745e-01 2.882291e-03 7.881196e-01 7.569068e-03 8.293624e-01 1.035298e-02 8.617749e-01 1.200143e-02 8.862801e-01 1.401542e-02 9.042472e-01 1.604988e-02 9.177058e-01 1.897375e-02 9.246922e-01 2.318998e-02 9.309755e-01 2.335390e-02 9.368919e-01 2.458288e-02 9.375707e-01 2.663475e-02 9.384308e-01 2.652730e-02 9.365496e-01 2.622214e-02 9.353004e-01 2.295362e-02 9.305995e-01 2.432112e-02 9.151852e-01 2.882976e-02 8.968164e-01 2.728312e-02 8.780837e-01 1.885165e-02 8.537166e-01 1.004345e-02 8.252377e-01 5.243713e-03 7.891505e-01 9.506821e-03 7.404701e-01 2.178288e-02 6.780126e-01 4.154421e-02 5.992017e-01 6.611487e-02 4.950058e-01 9.152024e-02 
4.325945e-01 -8.727591e-02 3.864091e-01 -1.050995e-01 2.367791e-01 -1.053486e-01 3.705556e-01 -7.576425e-02 4.797572e-01 -4.930565e-02 5.644393e-01 -2.661678e-02 6.328324e-01 -7.434243e-03 6.923689e-01 8.327442e-03 7.470012e-01 1.743883e-02 7.895827e-01 2.154757e-02 8.258097e-01 2.053523e-02 8.536032e-01 2.226090e-02 8.725204e-01 2.314749e-02 8.890837e-01 2.390211e-02 8.976706e-01 2.861434e-02 9.037637e-01 2.878382e-02 9.103275e-01 3.029303e-02 9.104443e-01 3.285718e-02 9.120379e-01 3.141692e-02 9.110035e-01 3.284398e-02 9.066562e-01 3.185533e-02 9.020980e-01 3.200729e-02 8.880215e-01 3.628153e-02 8.705059e-01 3.235401e-02 8.527115e-01 2.220219e-02 8.246940e-01 1.020338e-02 7.923918e-01 5.857300e-03 7.515469e-01 1.259213e-02 6.970975e-01 2.832899e-02 6.286864e-01 4.760417e-02 5.500386e-01 5.892352e-02 4.716463e-01 3.724879e-02 
5.251858e-01 -4.331291e-02 4.554948e-01 -5.388794e-02 3.115933e-01 -5.409766e-02 4.481981e-01 -4.137207e-02 5.547548e-01 -3.060856e-02 6.355738e-01 -2.105306e-02 6.998564e-01 -1.112347e-02 7.551909e-01 6.390989e-04 8.060989e-01 8.876178e-03 8.405280e-01 1.442286e-02 8.707509e-01 1.338093e-02 8.932038e-01 1.794700e-02 9.062045e-01 1.963339e-02 9.217471e-01 1.898807e-02 9.287182e-01 2.488450e-02 9.331417e-01 2.394412e-02 9.404014e-01 2.534771e-02 9.388864e-01 2.847859e-02 9.413948e-01 2.531889e-02 9.408879e-01 2.868900e-02 9.345994e-01 2.836180e-02 9.326119e-01 2.670799e-02 9.208032e-01 3.205421e-02 9.048691e-01 2.827789e-02 8.889107e-01 2.066960e-02 8.578773e-01 9.594774e-03 8.269859e-01 5.075540e-03 7.935466e-01 7.434062e-03 7.530949e-01 1.455244e-02 7.035670e-01 2.361883e-02 6.445519e-01 2.903604e-02 5.787089e-01 1.799361e-02 
5.269565e-01 -4.736765e-02 4.806457e-01 -6.952489e-02 4.100210e-01 -6.976753e-02 4.846737e-01 -6.000161e-02 5.561355e-01 -4.629416e-02 6.179319e-01 -3.216798e-02 6.716980e-01 -1.685091e-02 7.235149e-01 3.689217e-03 7.810346e-01 1.664008e-02 8.094538e-01 2.576786e-02 8.426905e-01 1.771116e-02 8.673065e-01 2.673006e-02 8.748280e-01 2.721354e-02 8.978312e-01 2.074730e-02 9.033531e-01 3.325207e-02 9.051646e-01 2.780385e-02 9.183944e-01 2.988737e-02 9.105493e-01 3.686999e-02 9.170155e-01 2.673147e-02 9.183119e-01 3.667635e-02 9.048653e-01 3.671991e-02 9.100422e-01 3.023795e-02 8.973152e-01 4.307005e-02 8.805820e-01 3.524867e-02 8.718957e-01 2.612207e-02 8.290691e-01 7.702853e-03 7.950589e-01 2.892572e-03 7.611439e-01 7.036805e-03 7.205675e-01 1.529239e-02 6.722922e-01 2.239749e-02 6.192942e-01 2.059801e-02 5.679382e-01 -7.954708e-04 
6.049833e-01 -2.573933e-02 5.505942e-01 -3.803148e-02 4.790236e-01 -3.823655e-02 5.537424e-01 -3.534868e-02 6.230734e-01 -3.101559e-02 6.814008e-01 -2.623648e-02 7.307259e-01 -1.841134e-02 7.781762e-01 1.792630e-03 8.403849e-01 1.309121e-02 8.560177e-01 2.511330e-02 8.872644e-01 9.044046e-03 9.096714e-01 2.500599e-02 9.056703e-01 2.537972e-02 9.341379e-01 1.250331e-02 9.354941e-01 3.354807e-02 9.323596e-01 2.197079e-02 9.526614e-01 2.461453e-02 9.363286e-01 3.651572e-02 9.471326e-01 1.748616e-02 9.511832e-01 3.505962e-02 9.295917e-01 3.484685e-02 9.442642e-01 2.216283e-02 9.308020e-01 4.446092e-02 9.128673e-01 3.286596e-02 9.148809e-01 2.619124e-02 8.617265e-01 2.559508e-03 8.312677e-01 -2.048345e-03 8.049786e-01 5.349938e-04 7.748398e-01 5.303629e-03 7.386029e-01 9.198569e-03 6.965238e-01 8.423390e-03 6.507081e-01 -2.231587e-03 
6.255525e-01 -3.393649e-02 5.973139e-01 -4.930966e-02 5.679954e-01 -4.951347e-02 6.031850e-01 -4.820661e-02 6.425822e-01 -4.364480e-02 6.795594e-01 -3.883655e-02 7.125219e-01 -3.149521e-02 7.493312e-01 5.813218e-03 8.435073e-01 1.982543e-02 8.247561e-01 4.651831e-02 8.674351e-01 -2.646494e-03 8.981610e-01 3.997253e-02 8.616984e-01 3.726960e-02 9.232766e-01 -1.352022e-03 9.131325e-01 5.578549e-02 8.947034e-01 1.841577e-02 9.472218e-01 2.504387e-02 8.966456e-01 5.733640e-02 9.263501e-01 1.625493e-03 9.405859e-01 5.082117e-02 8.843668e-01 4.719721e-02 9.352054e-01 9.333245e-03 9.110675e-01 7.054538e-02 8.822254e-01 3.865901e-02 9.252708e-01 4.006508e-02 8.241990e-01 -8.512690e-03 7.976784e-01 -9.137458e-03 7.774572e-01 -2.689713e-03 7.518016e-01 3.371160e-03 7.206837e-01 6.026241e-03 6.868948e-01 1.843956e-03 6.542172e-01 -1.219960e-02 
6.929699e-01 -2.030226e-02 6.617997e-01 -2.903096e-02 6.310998e-01 -2.920888e-02 6.653600e-01 -3.081913e-02 7.027205e-01 -3.183457e-02 7.363352e-01 -3.436845e-02 7.634632e-01 -3.808820e-02 7.872033e-01 -2.620698e-02 8.405814e-01 -2.711063e-02 8.306823e-01 -1.611417e-02 8.557088e-01 -4.739847e-02 8.753241e-01 -2.452980e-02 8.548911e-01 -2.686726e-02 8.911127e-01 -5.044893e-02 8.861246e-01 -1.719566e-02 8.751148e-01 -3.959175e-02 9.068326e-01 -3.598941e-02 8.769950e-01 -1.594664e-02 8.938645e-01 -4.855473e-02 9.029344e-01 -1.868543e-02 8.689439e-01 -1.924312e-02 8.987574e-01 -4.011153e-02 8.847017e-01 -2.945473e-04 8.677000e-01 -1.408761e-02 8.978041e-01 -4.081061e-03 8.417493e-01 -2.373272e-02 8.315196e-01 -1.650314e-02 8.203170e-01 -8.638051e-03 8.026808e-01 -3.143622e-03 7.794219e-01 -5.973279e-04 7.521489e-01 -2.158218e-03 7.227607e-01 -9.066458e-03 
7.231099e-01 -2.735881e-02 7.140474e-01 -3.718460e-02 7.113887e-01 -3.734996e-02 7.182000e-01 -3.962073e-02 7.318540e-01 -4.115763e-02 7.453072e-01 -4.782288e-02 7.490785e-01 -7.541531e-02 7.175356e-01 -1.840717e-01 5.461648e-01 -2.450795e-01 6.243898e-01 -3.244301e-01 5.662614e-01 -2.297163e-01 5.323897e-01 -3.342482e-01 6.414914e-01 -3.363529e-01 5.253960e-01 -2.538896e-01 5.624773e-01 -3.823926e-01 6.145062e-01 -3.026847e-01 5.059339e-01 -3.151914e-01 6.202369e-01 -3.842380e-01 5.540811e-01 -2.574596e-01 5.199890e-01 -3.610937e-01 6.389983e-01 -3.475860e-01 5.167644e-01 -2.514108e-01 5.571085e-01 -3.699777e-01 6.108103e-01 -2.745386e-01 5.151654e-01 -2.302003e-01 7.424297e-01 -7.367588e-02 7.947070e-01 -2.844552e-02 7.993234e-01 -1.209338e-02 7.885150e-01 -5.179562e-03 7.717257e-01 -3.530108e-03 7.533159e-01 -6.988900e-03 7.363929e-01 -1.564487e-02 
7.819981e-01 -1.760792e-02 7.719893e-01 -2.336493e-02 7.685542e-01 -2.350455e-02 7.742869e-01 -2.684599e-02 7.863850e-01 -3.104387e-02 7.977700e-01 -4.089355e-02 7.989148e-01 -7.146553e-02 7.638682e-01 -1.837771e-01 5.873685e-01 -2.474420e-01 6.625933e-01 -3.301987e-01 5.999101e-01 -2.343285e-01 5.618883e-01 -3.426573e-01 6.708377e-01 -3.454845e-01 5.494041e-01 -2.611131e-01 5.857397e-01 -3.943867e-01 6.380794e-01 -3.124511e-01 5.251308e-01 -3.258785e-01 6.426893e-01 -3.977558e-01 5.740355e-01 -2.668030e-01 5.387212e-01 -3.746077e-01 6.624897e-01 -3.608355e-01 5.362550e-01 -2.614069e-01 5.791112e-01 -3.852131e-01 6.362003e-01 -2.864594e-01 5.372555e-01 -2.410877e-01 7.763324e-01 -7.840489e-02 8.333513e-01 -3.188755e-02 8.421810e-01 -1.552203e-02 8.361153e-01 -8.678689e-03 8.241796e-01 -6.282649e-03 8.097996e-01 -7.302707e-03 7.951323e-01 -1.144956e-02 
8.160605e-01 -2.280246e-02 8.238342e-01 -2.892719e-02 8.407092e-01 -2.903694e-02 8.267758e-01 -3.174091e-02 8.216947e-01 -3.353896e-02 8.210574e-01 -3.593064e-02 8.215716e-01 -3.864461e-02 8.246129e-01 -2.652218e-02 8.611887e-01 -2.674794e-02 8.397543e-01 -1.703679e-02 8.547351e-01 -4.600046e-02 8.665316e-01 -2.627485e-02 8.433725e-01 -2.912190e-02 8.728521e-01 -5.080331e-02 8.660891e-01 -2.227150e-02 8.546136e-01 -4.240888e-02 8.815883e-01 -3.972603e-02 8.546957e-01 -2.245861e-02 8.690378e-01 -5.095273e-02 8.771135e-01 -2.528807e-02 8.482391e-01 -2.571197e-02 8.749212e-01 -4.381651e-02 8.647825e-01 -9.907533e-03 8.529546e-01 -2.130874e-02 8.819100e-01 -1.135584e-02 8.403029e-01 -2.600155e-02 8.382664e-01 -1.860276e-02 8.363360e-01 -1.200795e-02 8.311089e-01 -8.458836e-03 8.243082e-01 -7.969283e-03 8.181380e-01 -1.058386e-02 8.147458e-01 -1.597477e-02 
8.676791e-01 -1.537760e-02 8.753024e-01 -1.900795e-02 8.919146e-01 -1.909352e-02 8.770998e-01 -2.204820e-02 8.710956e-01 -2.479589e-02 8.699626e-01 -2.740706e-02 8.720393e-01 -2.594832e-02 8.841996e-01 7.830314e-03 9.591296e-01 2.023529e-02 9.224714e-01 4.632672e-02 9.510812e-01 -3.974117e-03 9.701342e-01 3.911930e-02 9.232324e-01 3.596493e-02 9.787864e-01 -3.875081e-03 9.631294e-01 5.382414e-02 9.405230e-01 1.528592e-02 9.916613e-01 2.173590e-02 9.386377e-01 5.448109e-02 9.686962e-01 -2.425581e-03 9.839238e-01 4.810034e-02 9.281868e-01 4.461502e-02 9.834318e-01 5.854869e-03 9.635510e-01 6.842012e-02 9.400170e-01 3.563155e-02 9.911918e-01 3.684854e-02 8.965994e-01 -1.396434e-02 8.818217e-01 -1.646215e-02 8.785255e-01 -1.271926e-02 8.752596e-01 -9.718041e-03 8.712721e-01 -8.516474e-03 8.676308e-01 -9.264028e-03 8.658427e-01 -1.177581e-02 
9.023098e-01 -1.897580e-02 9.242125e-01 -2.269029e-02 9.563358e-01 -2.274077e-02 9.267224e-01 -2.479647e-02 9.073965e-01 -2.544426e-02 8.959924e-01 -2.404161e-02 8.919975e-01 -1.754529e-02 8.993210e-01 3.468703e-03 9.315793e-01 1.629710e-02 9.220360e-01 2.990307e-02 9.344377e-01 1.349071e-02 9.421287e-01 3.058146e-02 9.255724e-01 3.067887e-02 9.469835e-01 1.634541e-02 9.419894e-01 3.828539e-02 9.339808e-01 2.549709e-02 9.526423e-01 2.812078e-02 9.333855e-01 4.073184e-02 9.446803e-01 2.026092e-02 9.499053e-01 3.957178e-02 9.287524e-01 3.954364e-02 9.489123e-01 2.538704e-02 9.410048e-01 4.870461e-02 9.301362e-01 3.508655e-02 9.427339e-01 2.695013e-02 8.976901e-01 -3.853658e-04 8.817309e-01 -7.811373e-03 8.765500e-01 -8.803426e-03 8.751895e-01 -8.643244e-03 8.761704e-01 -9.277800e-03 8.800660e-01 -1.137040e-02 8.882267e-01 -1.484236e-02 
9.474380e-01 -1.312475e-02 9.694557e-01 -1.530030e-02 1.001565e+00 -1.533015e-02 9.712147e-01 -1.747497e-02 9.511250e-01 -1.872937e-02 9.390889e-01 -1.794037e-02 9.348286e-01 -1.191977e-02 9.414706e-01 4.486388e-03 9.634048e-01 1.624489e-02 9.600082e-01 2.561013e-02 9.678726e-01 1.655073e-02 9.716638e-01 2.676016e-02 9.617332e-01 2.691969e-02 9.739878e-01 1.861136e-02 9.706861e-01 3.151858e-02 9.659200e-01 2.471618e-02 9.761074e-01 2.645674e-02 9.649577e-01 3.384187e-02 9.717317e-01 2.246032e-02 9.743474e-01 3.426324e-02 9.622035e-01 3.499723e-02 9.741904e-01 2.735794e-02 9.696267e-01 4.115505e-02 9.627895e-01 3.238160e-02 9.665149e-01 2.239090e-02 9.346601e-01 1.016633e-03 9.194028e-01 -7.406154e-03 9.148590e-01 -9.160930e-03 9.150596e-01 -8.929899e-03 9.179371e-01 -8.768042e-03 9.235180e-01 -9.420791e-03 9.328218e-01 -1.098102e-02 
9.805972e-01 -1.555658e-02 1.014201e+00 -1.774881e-02 1.058558e+00 -1.774567e-02 1.016466e+00 -1.927644e-02 9.853364e-01 -1.941397e-02 9.636287e-01 -1.717368e-02 9.510170e-01 -1.043725e-02 9.489112e-01 3.103711e-03 9.577345e-01 1.404066e-02 9.536174e-01 2.204363e-02 9.559288e-01 1.889170e-02 9.560008e-01 2.576270e-02 9.490622e-01 2.671318e-02 9.547168e-01 2.279283e-02 9.520236e-01 3.045114e-02 9.488059e-01 2.734359e-02 9.537630e-01 2.876035e-02 9.473526e-01 3.309217e-02 9.510105e-01 2.718644e-02 9.522569e-01 3.401978e-02 9.456294e-01 3.468025e-02 9.523758e-01 3.042184e-02 9.498496e-01 3.733010e-02 9.455528e-01 3.061234e-02 9.455788e-01 2.109404e-02 9.252185e-01 4.799756e-03 9.146346e-01 -3.565119e-03 9.129732e-01 -6.761725e-03 9.168944e-01 -8.018699e-03 9.250539e-01 -9.105412e-03 9.376392e-01 -1.074962e-02 9.556674e-01 -1.302325e-02 
1.019727e+00 -1.082352e-02 1.053434e+00 -1.207287e-02 1.097797e+00 -1.205355e-02 1.055075e+00 -1.379267e-02 1.023172e+00 -1.469031e-02 1.000470e+00 -1.362173e-02 9.866625e-01 -8.093419e-03 9.835639e-01 5.111493e-03 9.929097e-01 1.545149e-02 9.863005e-01 2.300292e-02 9.879812e-01 1.770875e-02 9.871175e-01 2.511481e-02 9.778470e-01 2.545408e-02 9.840037e-01 2.018803e-02 9.800619e-01 2.903387e-02 9.757752e-01 2.470958e-02 9.815671e-01 2.621526e-02 9.735634e-01 3.121339e-02 9.780276e-01 2.382478e-02 9.796930e-01 3.199594e-02 9.719897e-01 3.259493e-02 9.806870e-01 2.754404e-02 9.783651e-01 3.630651e-02 9.746417e-01 2.915407e-02 9.771605e-01 2.007338e-02 9.558210e-01 2.864745e-03 9.463711e-01 -5.132273e-03 9.464876e-01 -7.622516e-03 9.521664e-01 -8.068870e-03 9.618544e-01 -8.182892e-03 9.756235e-01 -8.638780e-03 9.944215e-01 -9.573234e-03 
1.050142e+00 -1.245094e-02 1.093359e+00 -1.372584e-02 1.147607e+00 -1.367770e-02 1.095234e+00 -1.515625e-02 1.053908e+00 -1.574520e-02 1.022195e+00 -1.474528e-02 9.995217e-01 -1.007970e-02 9.877384e-01 4.922700e-03 9.969484e-01 1.504643e-02 9.789202e-01 2.516924e-02 9.792822e-01 1.419647e-02 9.772339e-01 2.719978e-02 9.599141e-01 2.725041e-02 9.704881e-01 1.781035e-02 9.630181e-01 3.353390e-02 9.551668e-01 2.430031e-02 9.662908e-01 2.686958e-02 9.514885e-01 3.549487e-02 9.593091e-01 2.124710e-02 9.628563e-01 3.501295e-02 9.491168e-01 3.435396e-02 9.647822e-01 2.439600e-02 9.609248e-01 3.971147e-02 9.564566e-01 2.851205e-02 9.688285e-01 2.252717e-02 9.427279e-01 2.005173e-03 9.386628e-01 -4.558208e-03 9.438483e-01 -6.688449e-03 9.543559e-01 -7.563920e-03 9.694769e-01 -8.358508e-03 9.897148e-01 -9.473297e-03 1.016138e+00 -1.091529e-02 
1.083596e+00 -8.494841e-03 1.126738e+00 -9.188537e-03 1.180846e+00 -9.128201e-03 1.128048e+00 -1.095243e-02 1.086016e+00 -1.259141e-02 1.052930e+00 -1.370005e-02 1.027750e+00 -1.194304e-02 1.013522e+00 7.715985e-03 1.037982e+00 1.750174e-02 1.004496e+00 3.246867e-02 1.010031e+00 5.792933e-03 1.011004e+00 3.060497e-02 9.785174e-01 2.865625e-02 1.003473e+00 7.665250e-03 9.900139e-01 3.952918e-02 9.751552e-01 1.812348e-02 1.000488e+00 2.279857e-02 9.698666e-01 4.030943e-02 9.864296e-01 9.373795e-03 9.944591e-01 3.758425e-02 9.652684e-01 3.503961e-02 9.975666e-01 1.405170e-02 9.887383e-01 4.733861e-02 9.798671e-01 2.719910e-02 1.011472e+00 2.654845e-02 9.647431e-01 -4.535075e-03 9.638298e-01 -8.448129e-03 9.726032e-01 -8.164911e-03 9.852725e-01 -7.542547e-03 1.001674e+00 -7.238124e-03 1.022673e+00 -7.349612e-03 1.049486e+00 -7.817901e-03 
1.110457e+00 -9.569014e-03 1.161475e+00 -1.029121e-02 1.223678e+00 -1.020521e-02 1.162875e+00 -1.193684e-02 1.112854e+00 -1.364302e-02 1.071679e+00 -1.591012e-02 1.037017e+00 -1.997246e-02 1.006006e+00 -2.653167e-02 9.774333e-01 -3.221823e-02 9.590425e-01 -3.557208e-02 9.426454e-01 -3.536731e-02 9.307756e-01 -3.775102e-02 9.232285e-01 -3.819276e-02 9.141165e-01 -3.727558e-02 9.092512e-01 -3.901267e-02 9.056286e-01 -3.803717e-02 9.015455e-01 -3.790863e-02 9.011393e-01 -3.802006e-02 8.991530e-01 -3.571974e-02 8.992556e-01 -3.620144e-02 9.018779e-01 -3.499154e-02 9.026582e-01 -3.248963e-02 9.069814e-01 -3.212949e-02 9.131660e-01 -2.831763e-02 9.218354e-01 -2.227647e-02 9.371910e-01 -1.494195e-02 9.536118e-01 -1.006551e-02 9.694619e-01 -7.898291e-03 9.872153e-01 -7.188783e-03 1.008770e+00 -7.273118e-03 1.035580e+00 -7.841236e-03 1.069003e+00 -8.679337e-03 
1.138456e+00 -6.111576e-03 1.189104e+00 -6.431858e-03 1.250906e+00 -6.335312e-03 1.190142e+00 -8.315951e-03 1.139869e+00 -1.100415e-02 1.097394e+00 -1.649932e-02 1.057498e+00 -3.302105e-02 1.004630e+00 -9.574027e-02 8.743953e-01 -1.343109e-01 8.984668e-01 -1.790294e-01 8.423620e-01 -1.214148e-01 8.076171e-01 -1.849340e-01 8.594338e-01 -1.838491e-01 7.790322e-01 -1.354451e-01 7.951870e-01 -2.125037e-01 8.187328e-01 -1.627447e-01 7.504134e-01 -1.727665e-01 8.177051e-01 -2.127700e-01 7.752908e-01 -1.365290e-01 7.568948e-01 -2.004140e-01 8.299994e-01 -1.908576e-01 7.593971e-01 -1.351862e-01 7.905803e-01 -2.081214e-01 8.276056e-01 -1.513168e-01 7.785848e-01 -1.316884e-01 9.261116e-01 -3.990057e-02 9.720598e-01 -1.610048e-02 9.949098e-01 -9.067701e-03 1.014659e+00 -6.688154e-03 1.036894e+00 -5.853505e-03 1.063904e+00 -5.671386e-03 1.097257e+00 -5.817188e-03 
1.161235e+00 -6.808828e-03 1.218440e+00 -7.131020e-03 1.286932e+00 -7.010014e-03 1.219612e+00 -8.779783e-03 1.162924e+00 -1.098576e-02 1.114599e+00 -1.517375e-02 1.070627e+00 -2.673998e-02 1.020692e+00 -6.682737e-02 9.269206e-01 -9.243334e-02 9.286271e-01 -1.209006e-01 8.848417e-01 -8.666671e-02 8.562315e-01 -1.259138e-01 8.816642e-01 -1.255259e-01 8.279056e-01 -9.612743e-02 8.341352e-01 -1.434241e-01 8.457200e-01 -1.131105e-01 8.021435e-01 -1.193036e-01 8.421140e-01 -1.436986e-01 8.154265e-01 -9.688518e-02 8.043960e-01 -1.361276e-01 8.501031e-01 -1.301428e-01 8.081502e-01 -9.573297e-02 8.298581e-01 -1.401970e-01 8.564149e-01 -1.041371e-01 8.320162e-01 -8.941016e-02 9.312708e-01 -2.985674e-02 9.692764e-01 -1.292534e-02 9.931864e-01 -7.645672e-03 1.016267e+00 -5.998881e-03 1.042800e+00 -5.674989e-03 1.074829e+00 -5.903746e-03 1.113842e+00 -6.350815e-03 
1.183917e+00 -3.655530e-03 1.240382e+00 -3.626065e-03 1.308130e+00 -3.493512e-03 1.241614e+00 -5.036356e-03 1.185916e+00 -6.713638e-03 1.139398e+00 -8.554180e-03 1.100814e+00 -8.932536e-03 1.072485e+00 5.588383e-03 1.080150e+00 1.150256e-02 1.038809e+00 2.301141e-02 1.034485e+00 -1.227897e-03 1.028337e+00 1.986067e-02 9.941088e-01 1.784619e-02 1.011456e+00 -7.220485e-04 9.962734e-01 2.682341e-02 9.806110e-01 7.860994e-03 1.001094e+00 1.168486e-02 9.732221e-01 2.687014e-02 9.870442e-01 -3.351722e-04 9.944029e-01 2.387727e-02 9.698211e-01 2.139939e-02 9.994533e-01 2.919403e-03 9.944752e-01 3.207644e-02 9.908334e-01 1.565203e-02 1.024793e+00 1.796431e-02 9.930944e-01 -5.810651e-03 1.002541e+00 -6.663907e-03 1.020115e+00 -5.221021e-03 1.041509e+00 -4.242465e-03 1.067332e+00 -3.778544e-03 1.098801e+00 -3.625784e-03 1.137209e+00 -3.624744e-03 
1.202256e+00 -4.130907e-03 1.264192e+00 -4.096367e-03 1.337493e+00 -3.942452e-03 1.265584e+00 -5.268763e-03 1.204631e+00 -6.485906e-03 1.153315e+00 -7.434080e-03 1.110849e+00 -6.293479e-03 1.079775e+00 8.559618e-03 1.081351e+00 1.605420e-02 1.040772e+00 2.752149e-02 1.032970e+00 7.144596e-03 1.023874e+00 2.664461e-02 9.908599e-01 2.546307e-02 1.004014e+00 9.551353e-03 9.887471e-01 3.443232e-02 9.736777e-01 1.800471e-02 9.907607e-01 2.169839e-02 9.654682e-01 3.518501e-02 9.777362e-01 1.103152e-02 9.842033e-01 3.263632e-02 9.627961e-01 3.025031e-02 9.901334e-01 1.354373e-02 9.867823e-01 3.912797e-02 9.850051e-01 2.349707e-02 1.016266e+00 2.311561e-02 9.886546e-01 -8.430708e-04 9.983192e-01 -3.804159e-03 1.017552e+00 -3.650193e-03 1.041816e+00 -3.431357e-03 1.071325e+00 -3.481623e-03 1.107104e+00 -3.704995e-03 1.150331e+00 -3.964077e-03 
1.219698e+00 -1.206057e-03 1.280473e+00 -8.718190e-04 1.352630e+00 -7.085248e-04 1.282111e+00 -1.689951e-03 1.222734e+00 -2.332845e-03 1.173440e+00 -2.135656e-03 1.133747e+00 3.904028e-04 1.104786e+00 8.497026e-03 1.089846e+00 1.435949e-02 1.064730e+00 1.951337e-02 1.051084e+00 1.426539e-02 1.038606e+00 2.072812e-02 1.020895e+00 2.100239e-02 1.018839e+00 1.641591e-02 1.009530e+00 2.426523e-02 1.001381e+00 2.002564e-02 1.003738e+00 2.126256e-02 9.946211e-01 2.554888e-02 9.977535e-01 1.847593e-02 9.997359e-01 2.517891e-02 9.942578e-01 2.485676e-02 1.004619e+00 1.962654e-02 1.006687e+00 2.706561e-02 1.009835e+00 2.128371e-02 1.022420e+00 1.662746e-02 1.017239e+00 4.912321e-03 1.025147e+00 4.808647e-04 1.041523e+00 -8.661525e-04 1.063933e+00 -1.240358e-03 1.092135e+00 -1.351584e-03 1.126788e+00 -1.385030e-03 1.168909e+00 -1.352563e-03 
1.233343e+00 -1.596995e-03 1.298680e+00 -1.273446e-03 1.375447e+00 -1.092770e-03 1.300438e+00 -1.930809e-03 1.236631e+00 -2.301412e-03 1.183107e+00 -1.744433e-03 1.139395e+00 9.228609e-04 1.106116e+00 7.676545e-03 1.084457e+00 1.306162e-02 1.058208e+00 1.740678e-02 1.040896e+00 1.480279e-02 1.025606e+00 1.962789e-02 1.008424e+00 2.030453e-02 1.002488e+00 1.780691e-02 9.928258e-01 2.323836e-02 9.849101e-01 2.087686e-02 9.843917e-01 2.193143e-02 9.773588e-01 2.477222e-02 9.789526e-01 2.033628e-02 9.802935e-01 2.468728e-02 9.776781e-01 2.438548e-02 9.859810e-01 2.083499e-02 9.896330e-01 2.519468e-02 9.947925e-01 2.067110e-02 1.006401e+00 1.597711e-02 1.007371e+00 6.575517e-03 1.018145e+00 2.135683e-03 1.036944e+00 3.013815e-04 1.062136e+00 -5.589567e-04 1.093599e+00 -1.074976e-03 1.131961e+00 -1.425891e-03 1.178172e+00 -1.619266e-03 
1.245582e+00 1.112359e-03 1.309306e+00 1.664036e-03 1.384481e+00 1.849690e-03 1.311291e+00 1.262809e-03 1.249375e+00 1.173307e-03 1.197791e+00 1.970633e-03 1.155819e+00 4.277223e-03 1.123015e+00 8.485604e-03 1.098230e+00 1.228073e-02 1.075375e+00 1.510331e-02 1.057672e+00 1.531921e-02 1.042683e+00 1.749133e-02 1.029107e+00 1.827322e-02 1.020654e+00 1.792149e-02 1.012544e+00 1.994704e-02 1.006201e+00 1.965639e-02 1.003176e+00 2.022032e-02 9.993094e-01 2.127460e-02 9.990213e-01 2.008640e-02 9.995354e-01 2.148302e-02 9.998131e-01 2.140312e-02 1.004403e+00 2.002245e-02 1.008558e+00 2.065606e-02 1.014001e+00 1.790014e-02 1.022074e+00 1.385595e-02 1.028091e+00 8.188888e-03 1.039388e+00 4.496012e-03 1.056948e+00 2.523953e-03 1.080595e+00 1.526686e-03 1.110520e+00 1.034643e-03 1.147351e+00 8.334316e-04 1.192005e+00 8.554991e-04 
1.254357e+00 6.940445e-04 1.321866e+00 1.209039e-03 1.400853e+00 1.407849e-03 1.323909e+00 8.857067e-04 1.258248e+00 9.235561e-04 1.202992e+00 1.840048e-03 1.157404e+00 4.086472e-03 1.120878e+00 7.823786e-03 1.092142e+00 1.135461e-02 1.066771e+00 1.407214e-02 1.046480e+00 1.495852e-02 1.029433e+00 1.698473e-02 1.014682e+00 1.800823e-02 1.004431e+00 1.823079e-02 9.954292e-01 1.991015e-02 9.885069e-01 2.004112e-02 9.845178e-01 2.063699e-02 9.807788e-01 2.144408e-02 9.800763e-01 2.075036e-02 9.805527e-01 2.163452e-02 9.816217e-01 2.144919e-02 9.862066e-01 2.028896e-02 9.912683e-01 2.021456e-02 9.979726e-01 1.766399e-02 1.007175e+00 1.390973e-02 1.016140e+00 8.979614e-03 1.030013e+00 5.440884e-03 1.049994e+00 3.286020e-03 1.076220e+00 1.995001e-03 1.109012e+00 1.202841e-03 1.149017e+00 7.396232e-04 1.197119e+00 5.609896e-04 
1.261422e+00 3.193487e-03 1.326829e+00 3.865724e-03 1.403731e+00 4.064523e-03 1.329012e+00 3.665717e-03 1.265576e+00 3.756336e-03 1.212441e+00 4.548844e-03 1.168648e+00 6.240829e-03 1.133209e+00 8.742219e-03 1.104709e+00 1.122637e-02 1.080866e+00 1.322461e-02 1.061449e+00 1.439722e-02 1.045419e+00 1.570826e-02 1.032166e+00 1.657498e-02 1.022064e+00 1.708260e-02 1.013876e+00 1.797030e-02 1.007640e+00 1.834730e-02 1.003465e+00 1.877408e-02 1.000466e+00 1.919344e-02 9.993967e-01 1.908480e-02 9.996475e-01 1.935565e-02 1.001060e+00 1.916403e-02 1.004555e+00 1.842749e-02 1.009242e+00 1.768116e-02 1.015512e+00 1.571882e-02 1.023767e+00 1.286186e-02 1.033621e+00 9.502386e-03 1.047395e+00 6.788310e-03 1.066325e+00 4.951404e-03 1.091017e+00 3.813882e-03 1.122045e+00 3.165247e-03 1.160150e+00 2.871803e-03 1.206253e+00 2.879243e-03 
1.265199e+00 2.661656e-03 1.333720e+00 3.268968e-03 1.413744e+00 3.476745e-03 1.335912e+00 3.087927e-03 1.269351e+00 3.229794e-03 1.213124e+00 4.065485e-03 1.166287e+00 5.720907e-03 1.127842e+00 8.073563e-03 1.096458e+00 1.047882e-02 1.070257e+00 1.251971e-02 1.048751e+00 1.394845e-02 1.031003e+00 1.538127e-02 1.016425e+00 1.644654e-02 1.005079e+00 1.720947e-02 9.960107e-01 1.814665e-02 9.891280e-01 1.868690e-02 9.843980e-01 1.918153e-02 9.811956e-01 1.958582e-02 9.799603e-01 1.957122e-02 9.802715e-01 1.970873e-02 9.820507e-01 1.943511e-02 9.859142e-01 1.867539e-02 9.913323e-01 1.773832e-02 9.986335e-01 1.581640e-02 1.008184e+00 1.312205e-02 1.019965e+00 1.001617e-02 1.035792e+00 7.370080e-03 1.056833e+00 5.422524e-03 1.083775e+00 4.076389e-03 1.117256e+00 3.187209e-03 1.158032e+00 2.664134e-03 1.207006e+00 2.480740e-03 
1.267131e+00 4.974308e-03 1.333014e+00 5.682554e-03 1.410409e+00 5.885519e-03 1.335264e+00 5.524161e-03 1.271365e+00 5.593088e-03 1.217660e+00 6.189413e-03 1.173061e+00 7.351920e-03 1.136437e+00 8.953579e-03 1.106516e+00 1.063951e-02 1.081917e+00 1.213778e-02 1.061808e+00 1.331804e-02 1.045382e+00 1.437099e-02 1.032063e+00 1.520621e-02 1.021543e+00 1.586178e-02 1.013270e+00 1.650445e-02 1.007004e+00 1.696893e-02 1.002579e+00 1.734910e-02 9.997027e-01 1.762910e-02 9.984349e-01 1.769948e-02 9.986140e-01 1.771062e-02 1.000227e+00 1.745490e-02 1.003506e+00 1.685057e-02 1.008366e+00 1.593754e-02 1.015036e+00 1.443109e-02 1.023856e+00 1.242282e-02 1.035224e+00 1.019877e-02 1.050261e+00 8.221415e-03 1.069968e+00 6.700268e-03 1.095141e+00 5.640141e-03 1.126542e+00 4.976394e-03 1.165014e+00 4.652603e-03 1.211519e+00 4.646849e-03 
1.265821e+00 4.261313e-03 1.334222e+00 4.875323e-03 1.414136e+00 5.083236e-03 1.336458e+00 4.702169e-03 1.270012e+00 4.794612e-03 1.213786e+00 5.428730e-03 1.166720e+00 6.612864e-03 1.127717e+00 8.217349e-03 1.095574e+00 9.944187e-03 1.069034e+00 1.155033e-02 1.047239e+00 1.291434e-02 1.029401e+00 1.414082e-02 1.014927e+00 1.516443e-02 1.003436e+00 1.600833e-02 9.944151e-01 1.677786e-02 9.875874e-01 1.736452e-02 9.827504e-01 1.782350e-02 9.796514e-01 1.813914e-02 9.782864e-01 1.823787e-02 9.785338e-01 1.820714e-02 9.803983e-01 1.789946e-02 9.840624e-01 1.724711e-02 9.895313e-01 1.625962e-02 9.970447e-01 1.474686e-02 1.006960e+00 1.278654e-02 1.019738e+00 1.062134e-02 1.036369e+00 8.622060e-03 1.057796e+00 6.980911e-03 1.084828e+00 5.730109e-03 1.118250e+00 4.841904e-03 1.158911e+00 4.292776e-03 1.207755e+00 4.087412e-03 
1.262680e+00 6.431902e-03 1.327845e+00 7.107857e-03 1.404520e+00 7.306525e-03 1.330085e+00 6.894520e-03 1.266851e+00 6.852962e-03 1.213691e+00 7.219039e-03 1.169439e+00 7.980034e-03 1.132927e+00 9.037377e-03 1.102977e+00 1.021089e-02 1.078459e+00 1.134247e-02 1.058466e+00 1.234682e-02 1.042231e+00 1.323952e-02 1.029150e+00 1.400155e-02 1.018768e+00 1.464576e-02 1.010658e+00 1.521142e-02 1.004522e+00 1.566738e-02 1.000142e+00 1.602453e-02 9.973324e-01 1.627118e-02 9.960234e-01 1.637326e-02 9.961509e-01 1.633824e-02 9.977313e-01 1.609469e-02 1.000877e+00 1.558932e-02 1.005691e+00 1.479871e-02 1.012411e+00 1.365843e-02 1.021398e+00 1.222780e-02 1.033160e+00 1.067483e-02 1.048472e+00 9.222327e-03 1.068170e+00 8.013954e-03 1.093072e+00 7.100665e-03 1.124015e+00 6.484454e-03 1.161910e+00 6.159038e-03 1.207764e+00 6.131942e-03 