# vtk DataFile Version 2.0
Comment goes here
ASCII

DATASET STRUCTURED_POINTS
FIELD FieldData 1
TIME 1 1 double
0.60000000
DIMENSIONS    512   128   1

ORIGIN    0.000   0.000   0.000
SPACING   0.0019531 0.0019531   1.000

POINT_DATA   65536
SCALARS Omega double
LOOKUP_TABLE default

6.571982e-01 8.046700e-01 9.471569e-01 1.115831e+00 1.275326e+00 1.458071e+00 1.625717e+00 1.810507e+00 1.972441e+00 2.141372e+00 2.277733e+00 2.406101e+00 2.490419e+00 2.547302e+00 2.548573e+00 2.502460e+00 2.393849e+00 2.227348e+00 2.003863e+00 1.736100e+00 1.434576e+00 1.134675e+00 8.331844e-01 5.926066e-01 3.662152e-01 2.307754e-01 9.873302e-02 4.508900e-02 -2.110609e-02 -3.167364e-02 -6.176750e-02 -5.219771e-02 -6.302505e-02 -4.520592e-02 -4.637927e-02 -2.760435e-02 -2.512233e-02 -9.676214e-03 -6.706335e-03 3.629952e-03 6.076626e-03 1.123955e-02 1.329515e-02 1.414208e-02 1.621477e-02 1.393507e-02 1.620285e-02 1.195540e-02 1.415752e-02 9.100995e-03 1.053652e-02 6.463015e-03 6.141162e-03 5.720273e-03 2.985219e-03 7.507237e-03 3.362484e-03 1.052277e-02 6.756260e-03 1.353663e-02 1.092376e-02 1.602799e-02 1.471010e-02 1.835095e-02 1.830033e-02 2.111800e-02 2.216752e-02 2.452073e-02 2.633973e-02 2.800462e-02 3.002892e-02 3.004508e-02 3.125686e-02 2.809777e-02 2.707006e-02 1.986502e-02 1.580248e-02 6.521780e-03 6.209423e-04 -5.713258e-03 -1.103176e-02 -1.113606e-02 -1.431248e-02 -1.060286e-02 -1.092026e-02 -7.219976e-03 -5.362137e-03 -2.726482e-03 -1.157981e-04 1.657597e-03 4.024171e-03 5.291569e-03 7.112136e-03 8.134199e-03 9.517446e-03 1.046695e-02 1.164063e-02 1.263390e-02 1.379736e-02 1.491039e-02 1.619239e-02 1.746875e-02 1.893232e-02 2.038937e-02 2.204919e-02 2.368266e-02 2.551928e-02 2.730421e-02 2.927084e-02 3.115851e-02 3.318130e-02 3.509383e-02 3.706919e-02 3.889434e-02 4.068656e-02 4.227528e-02 4.371714e-02 4.488569e-02 4.578392e-02 4.632180e-02 4.646804e-02 4.615203e-02 4.533911e-02 4.395256e-02 4.199425e-02 3.934942e-02 3.610116e-02 3.206116e-02 2.743811e-02 2.193448e-02 1.592383e-02 8.966304e-03 1.632504e-03 -6.689280e-03 -1.520406e-02 -2.472304e-02 -3.419707e-02 -4.466740e-02 -5.478925e-02 -6.587453e-02 -7.622345e-02 -8.747727e-02 -9.750615e-02 -1.083632e-01 -1.174101e-01 -1.272172e-01 -1.345732e-01 -1.426821e-01 -1.477228e-01 -1.536333e-01 -1.559754e-01 -1.594728e-01 -1.590872e-01 -1.602967e-01 -1.575104e-01 -1.568323e-01 -1.522161e-01 -1.501772e-01 -1.443807e-01 -1.414899e-01 -1.351036e-01 -1.317708e-01 -1.252566e-01 -1.217789e-01 -1.154597e-01 -1.120391e-01 -1.061169e-01 -1.028819e-01 -9.746161e-02 -9.448155e-02 -8.959366e-02 -8.688932e-02 -8.251027e-02 -8.006395e-02 -7.613458e-02 -7.390152e-02 -7.034316e-02 -6.826348e-02 -6.499120e-02 -6.300080e-02 -5.993349e-02 -5.797300e-02 -5.504042e-02 -5.306146e-02 -5.020852e-02 -4.817740e-02 -4.536618e-02 -4.326540e-02 -4.047547e-02 -3.830357e-02 -3.553103e-02 -3.330139e-02 -3.055718e-02 -2.829610e-02 -2.560378e-02 -2.334813e-02 -2.074126e-02 -1.853582e-02 -1.605518e-02 -1.394974e-02 -1.164031e-02 -9.686671e-03 -7.594488e-03 -5.843390e-03 -4.012489e-03 -2.510595e-03 -9.800589e-04 2.327644e-04 1.431381e-03 2.324370e-03 3.169086e-03 3.722244e-03 4.201975e-03 4.406938e-03 4.521949e-03 4.381941e-03 4.143350e-03 3.672170e-03 3.100501e-03 2.320594e-03 1.443463e-03 3.832242e-04 -7.676283e-04 -2.077090e-03 -3.469153e-03 -4.997452e-03 -6.600824e-03 -8.321575e-03 -1.011199e-02 -1.200554e-02 -1.396666e-02 -1.602195e-02 -1.814663e-02 -2.036185e-02 -2.265219e-02 -2.503417e-02 -2.750017e-02 -3.006249e-02 -3.271950e-02 -3.547932e-02 -3.834441e-02 -4.131843e-02 -4.440593e-02 -4.760575e-02 -5.092244e-02 -5.434967e-02 -5.788995e-02 -6.153153e-02 -6.527294e-02 -6.909701e-02 -7.299655e-02 -7.694927e-02 -8.094072e-02 -8.494423e-02 -8.893684e-02 -9.288856e-02 -9.676712e-02 -1.005406e-01 -1.041671e-01 -1.076143e-01 -1.108309e-01 -1.137862e-01 -1.164203e-01 -1.187056e-01 -1.205754e-01 -1.220073e-01 -1.229299e-01 -1.233277e-01 -1.231281e-01 -1.223241e-01 -1.208455e-01 -1.186957e-01 -1.158111e-01 -1.122070e-01 -1.078311e-01 -1.027111e-01 -9.681062e-02 -9.017022e-02 -8.277298e-02 -7.467173e-02 -6.587192e-02 -5.643687e-02 -4.639593e-02 -3.582022e-02 -2.476308e-02 -1.329989e-02 -1.506653e-03 1.054104e-02 2.274716e-02 3.504001e-02 4.730722e-02 5.948485e-02 7.144863e-02 8.314572e-02 9.444479e-02 1.053067e-01 1.155982e-01 1.252957e-01 1.342688e-01 1.425106e-01 1.498981e-01 1.564416e-01 1.620295e-01 1.666890e-01 1.703233e-01 1.729752e-01 1.745659e-01 1.751520e-01 1.746745e-01 1.732015e-01 1.706956e-01 1.672331e-01 1.627988e-01 1.574743e-01 1.512663e-01 1.442584e-01 1.364784e-01 1.280085e-01 1.188962e-01 1.092193e-01 9.904276e-02 8.843750e-02 7.748314e-02 6.624170e-02 5.480432e-02 4.322267e-02 3.159597e-02 1.996462e-02 8.432374e-03 -2.971979e-03 -1.414374e-02 -2.506559e-02 -3.563525e-02 -4.584638e-02 -5.560214e-02 -6.490642e-02 -7.367037e-02 -8.190715e-02 -8.953796e-02 -9.658412e-02 -1.029783e-01 -1.087490e-01 -1.138411e-01 -1.182889e-01 -1.220503e-01 -1.251640e-01 -1.276008e-01 -1.294023e-01 -1.305521e-01 -1.310936e-01 -1.310220e-01 -1.303814e-01 -1.291777e-01 -1.274546e-01 -1.252273e-01 -1.225381e-01 -1.194103e-01 -1.158836e-01 -1.119884e-01 -1.077608e-01 -1.032366e-01 -9.844771e-02 -9.343442e-02 -8.822371e-02 -8.285887e-02 -7.736168e-02 -7.177737e-02 -6.612220e-02 -6.044231e-02 -5.474842e-02 -4.908661e-02 -4.346218e-02 -3.792035e-02 -3.246125e-02 -2.712853e-02 -2.191752e-02 -1.686972e-02 -1.197617e-02 -7.275678e-03 -2.755579e-03 1.548381e-03 5.652002e-03 9.522904e-03 1.317939e-02 1.659267e-02 1.978294e-02 2.272514e-02 2.544078e-02 2.790857e-02 3.015082e-02 3.215000e-02 3.392875e-02 3.547319e-02 3.680591e-02 3.791650e-02 3.882717e-02 3.953078e-02 4.004885e-02 4.037726e-02 4.053665e-02 4.052555e-02 4.036359e-02 4.005159e-02 3.960803e-02 3.903567e-02 3.835176e-02 3.756061e-02 3.667816e-02 3.570991e-02 3.467043e-02 3.356607e-02 3.240997e-02 3.120902e-02 2.997492e-02 2.871478e-02 2.743881e-02 2.615415e-02 2.486949e-02 2.359177e-02 2.232815e-02 2.108525e-02 1.986864e-02 1.868456e-02 1.753697e-02 1.643170e-02 1.537103e-02 1.436048e-02 1.340053e-02 1.249652e-02 1.164705e-02 1.085751e-02 1.012443e-02 9.453538e-03 8.839103e-03 8.287597e-03 7.790728e-03 7.356200e-03 6.972822e-03 6.650094e-03 6.373523e-03 6.155046e-03 5.976400e-03 5.852685e-03 5.761322e-03 5.721395e-03 5.705362e-03 5.737236e-03 5.783742e-03 5.874902e-03 5.970780e-03 6.108666e-03 6.240823e-03 6.413272e-03 6.569077e-03 6.764708e-03 6.932337e-03 7.140971e-03 7.309862e-03 7.523207e-03 7.684878e-03 7.897592e-03 8.046795e-03 8.257515e-03 8.393174e-03 8.604648e-03 8.730132e-03 8.948103e-03 9.071140e-03 9.302179e-03 9.434453e-03 9.682397e-03 9.838987e-03 1.010196e-02 1.030519e-02 1.057693e-02 1.086207e-02 1.111425e-02 1.148837e-02 1.155776e-02 1.183623e-02 1.117646e-02 1.073237e-02 8.167964e-03 5.788785e-03 -4.525308e-04 -6.386868e-03 -1.803904e-02 -2.878976e-02 -4.618302e-02 -6.133888e-02 -8.239521e-02 -9.937630e-02 -1.204619e-01 -1.355943e-01 -1.530593e-01 -1.628773e-01 -1.738103e-01 -1.754904e-01 -1.776117e-01 -1.687663e-01 -1.600388e-01 -1.383797e-01 -1.166940e-01 -7.979880e-02 -4.282023e-02 1.194377e-02 6.675895e-02 1.421238e-01 2.173074e-01 3.157497e-01 4.133387e-01 5.364287e-01 
-6.082047e+00 -6.122747e+00 -6.168829e+00 -6.188556e+00 -6.213529e+00 -6.209226e+00 -6.207731e+00 -6.172728e+00 -6.134791e+00 -6.057762e+00 -5.968219e+00 -5.833401e+00 -5.673274e+00 -5.462859e+00 -5.213616e+00 -4.912981e+00 -4.564842e+00 -4.172031e+00 -3.738134e+00 -3.278825e+00 -2.811817e+00 -2.350137e+00 -1.936297e+00 -1.550091e+00 -1.249815e+00 -9.675977e-01 -7.623049e-01 -5.552952e-01 -4.063349e-01 -2.578560e-01 -1.683102e-01 -9.203430e-02 -7.735972e-02 -8.137484e-02 -1.401531e-01 -2.136170e-01 -3.275346e-01 -4.472819e-01 -5.894738e-01 -7.269168e-01 -8.667281e-01 -9.907360e-01 -1.096190e+00 -1.175197e+00 -1.215796e+00 -1.220688e+00 -1.170548e+00 -1.077675e+00 -9.190920e-01 -7.153424e-01 -4.490843e-01 -1.491277e-01 1.785809e-01 5.013538e-01 7.806456e-01 1.001335e+00 1.116837e+00 1.145787e+00 1.064262e+00 9.086522e-01 6.766148e-01 4.011040e-01 8.772206e-02 -2.407447e-01 -5.795687e-01 -9.134489e-01 -1.240547e+00 -1.548768e+00 -1.836019e+00 -2.090317e+00 -2.302865e+00 -2.460044e+00 -2.540170e+00 -2.528829e+00 -2.393739e+00 -2.127527e+00 -1.710449e+00 -1.164518e+00 -5.251706e-01 1.290134e-01 7.054586e-01 1.108116e+00 1.293563e+00 1.256415e+00 1.055033e+00 7.626403e-01 4.470803e-01 1.614245e-01 -6.940898e-02 -2.316993e-01 -3.300818e-01 -3.710821e-01 -3.674460e-01 -3.294878e-01 -2.676304e-01 -1.894212e-01 -1.010205e-01 -6.482948e-03 9.122409e-02 1.904854e-01 2.902126e-01 3.901480e-01 4.901969e-01 5.907402e-01 6.921721e-01 7.951073e-01 9.001546e-01 1.007958e+00 1.119190e+00 1.234436e+00 1.354335e+00 1.479388e+00 1.610132e+00 1.746993e+00 1.890331e+00 2.040529e+00 2.197696e+00 2.362212e+00 2.533853e+00 2.713049e+00 2.899157e+00 3.092697e+00 3.292542e+00 3.499323e+00 3.711387e+00 3.929464e+00 4.151400e+00 4.377955e+00 4.606589e+00 4.837964e+00 5.069405e+00 5.301257e+00 5.531135e+00 5.758746e+00 5.982588e+00 6.201304e+00 6.414979e+00 6.620670e+00 6.820737e+00 7.010100e+00 7.193872e+00 7.364399e+00 7.529611e+00 7.679194e+00 7.823425e+00 7.949853e+00 8.070132e+00 8.170915e+00 8.263996e+00 8.336849e+00 8.400191e+00 8.444006e+00 8.476946e+00 8.492588e+00 8.496882e+00 8.487171e+00 8.466532e+00 8.435399e+00 8.394397e+00 8.345847e+00 8.288858e+00 8.226340e+00 8.157012e+00 8.083320e+00 8.004518e+00 7.921963e+00 7.835938e+00 7.746520e+00 7.655082e+00 7.560559e+00 7.465186e+00 7.367064e+00 7.268956e+00 7.168466e+00 7.068571e+00 6.966667e+00 6.865712e+00 6.763088e+00 6.661604e+00 6.558740e+00 6.457094e+00 6.354301e+00 6.252729e+00 6.150189e+00 6.048823e+00 5.946624e+00 5.845521e+00 5.743682e+00 5.642840e+00 5.541334e+00 5.440713e+00 5.339478e+00 5.239012e+00 5.137966e+00 5.037573e+00 4.936626e+00 4.836220e+00 4.735280e+00 4.634777e+00 4.533761e+00 4.433090e+00 4.331929e+00 4.231038e+00 4.129686e+00 4.028547e+00 3.926987e+00 3.825604e+00 3.723851e+00 3.622263e+00 3.520371e+00 3.418656e+00 3.316719e+00 3.214997e+00 3.113152e+00 3.011582e+00 2.910006e+00 2.808789e+00 2.707697e+00 2.607069e+00 2.506712e+00 2.406941e+00 2.307598e+00 2.208976e+00 2.110947e+00 2.013786e+00 1.917385e+00 1.822001e+00 1.727548e+00 1.634262e+00 1.542070e+00 1.451191e+00 1.361563e+00 1.273388e+00 1.186607e+00 1.101405e+00 1.017728e+00 9.357427e-01 8.553971e-01 7.768386e-01 7.000164e-01 6.250603e-01 5.519186e-01 4.807042e-01 4.113640e-01 3.439951e-01 2.785426e-01 2.150890e-01 1.535771e-01 9.407707e-02 3.652932e-02 -1.900702e-02 -7.259352e-02 -1.241799e-01 -1.738297e-01 -2.214992e-01 -2.672539e-01 -3.110541e-01 -3.529669e-01 -3.929545e-01 -4.310852e-01 -4.673207e-01 -5.017299e-01 -5.342726e-01 -5.650176e-01 -5.939214e-01 -6.210524e-01 -6.463632e-01 -6.699219e-01 -6.916780e-01 -7.116995e-01 -7.299350e-01 -7.464533e-01 -7.612058e-01 -7.742638e-01 -7.855856e-01 -7.952474e-01 -8.032199e-01 -8.095860e-01 -8.143337e-01 -8.175543e-01 -8.192578e-01 -8.195438e-01 -8.184476e-01 -8.160758e-01 -8.124902e-01 -8.078017e-01 -8.020978e-01 -7.954898e-01 -7.880884e-01 -7.800008e-01 -7.713566e-01 -7.622542e-01 -7.528372e-01 -7.431914e-01 -7.334686e-01 -7.237384e-01 -7.141559e-01 -7.047724e-01 -6.957408e-01 -6.870930e-01 -6.789755e-01 -6.714005e-01 -6.645042e-01 -6.582802e-01 -6.528510e-01 -6.481933e-01 -6.444133e-01 -6.414731e-01 -6.394604e-01 -6.383253e-01 -6.381354e-01 -6.388320e-01 -6.404610e-01 -6.429579e-01 -6.463462e-01 -6.505582e-01 -6.555947e-01 -6.613875e-01 -6.679147e-01 -6.751097e-01 -6.829289e-01 -6.913091e-01 -7.001862e-01 -7.095021e-01 -7.191745e-01 -7.291510e-01 -7.393345e-01 -7.496789e-01 -7.600756e-01 -7.704856e-01 -7.807928e-01 -7.909652e-01 -8.008837e-01 -8.105232e-01 -8.197657e-01 -8.285931e-01 -8.368924e-01 -8.446524e-01 -8.517682e-01 -8.582355e-01 -8.639604e-01 -8.689451e-01 -8.731090e-01 -8.764602e-01 -8.789329e-01 -8.805407e-01 -8.812334e-01 -8.810296e-01 -8.798951e-01 -8.778524e-01 -8.748832e-01 -8.710132e-01 -8.662393e-01 -8.605896e-01 -8.540752e-01 -8.467253e-01 -8.385641e-01 -8.296213e-01 -8.199324e-01 -8.095266e-01 -7.984495e-01 -7.867285e-01 -7.744178e-01 -7.615421e-01 -7.481628e-01 -7.343011e-01 -7.200239e-01 -7.053485e-01 -6.903455e-01 -6.750281e-01 -6.594693e-01 -6.436776e-01 -6.277272e-01 -6.116221e-01 -5.954363e-01 -5.791693e-01 -5.628940e-01 -5.466054e-01 -5.303745e-01 -5.141923e-01 -4.981268e-01 -4.821655e-01 -4.663729e-01 -4.507331e-01 -4.353066e-01 -4.200749e-01 -4.050938e-01 -3.903425e-01 -3.758721e-01 -3.616599e-01 -3.477518e-01 -3.341237e-01 -3.208162e-01 -3.078041e-01 -2.951228e-01 -2.827462e-01 -2.707045e-01 -2.589711e-01 -2.475711e-01 -2.364775e-01 -2.257106e-01 -2.152431e-01 -2.050909e-01 -1.952266e-01 -1.856619e-01 -1.763695e-01 -1.673574e-01 -1.585983e-01 -1.500970e-01 -1.418265e-01 -1.337887e-01 -1.259569e-01 -1.183307e-01 -1.108839e-01 -1.036142e-01 -9.649600e-02 -8.952533e-02 -8.267752e-02 -7.594740e-02 -6.931127e-02 -6.276314e-02 -5.628042e-02 -4.985663e-02 -4.347045e-02 -3.711515e-02 -3.077086e-02 -2.443076e-02 -1.807664e-02 -1.170171e-02 -5.289578e-03 1.166506e-03 7.680886e-03 1.426034e-02 2.091692e-02 2.765760e-02 3.449179e-02 4.142696e-02 4.846943e-02 5.562747e-02 6.290371e-02 7.030764e-02 7.783731e-02 8.550379e-02 9.329938e-02 1.012370e-01 1.093014e-01 1.175072e-01 1.258298e-01 1.342847e-01 1.428351e-01 1.514970e-01 1.602189e-01 1.690169e-01 1.778245e-01 1.866600e-01 1.954462e-01 2.042108e-01 2.128768e-01 2.214960e-01 2.300101e-01 2.385146e-01 2.469902e-01 2.555921e-01 2.643485e-01 2.734693e-01 2.830074e-01 2.931842e-01 3.040054e-01 3.156122e-01 3.278451e-01 3.406343e-01 3.535214e-01 3.660762e-01 3.774439e-01 3.866506e-01 3.924058e-01 3.928673e-01 3.862825e-01 3.693087e-01 3.396996e-01 2.917147e-01 2.228373e-01 1.244637e-01 -4.930869e-03 -1.752479e-01 -3.837991e-01 -6.370995e-01 -9.243974e-01 -1.244835e+00 -1.580762e+00 -1.928022e+00 -2.269214e+00 -2.604334e+00 -2.920792e+00 -3.224253e+00 -3.505425e+00 -3.773289e+00 -4.018996e+00 -4.253201e+00 -4.465907e+00 -4.669236e+00 -4.851427e+00 -5.026421e+00 -5.180363e+00 -5.329406e+00 -5.457284e+00 -5.582667e+00 -5.686559e+00 -5.790374e+00 -5.872103e+00 -5.956045e+00 -6.016968e+00 
-1.275041e+01 -1.297541e+01 -1.320684e+01 -1.341283e+01 -1.362158e+01 -1.379690e+01 -1.396523e+01 -1.408644e+01 -1.418259e+01 -1.421097e+01 -1.418632e+01 -1.406648e+01 -1.385642e+01 -1.352008e+01 -1.305265e+01 -1.243266e+01 -1.165183e+01 -1.071485e+01 -9.627867e+00 -8.431947e+00 -7.173975e+00 -5.920078e+00 -4.760077e+00 -3.723503e+00 -2.887388e+00 -2.186962e+00 -1.649538e+00 -1.183426e+00 -8.156365e-01 -5.006951e-01 -2.826041e-01 -1.318653e-01 -8.608196e-02 -1.088122e-01 -2.246308e-01 -3.913592e-01 -6.249626e-01 -8.837767e-01 -1.177345e+00 -1.468552e+00 -1.759075e+00 -2.019584e+00 -2.242298e+00 -2.408839e+00 -2.502096e+00 -2.516790e+00 -2.427818e+00 -2.243354e+00 -1.932881e+00 -1.519000e+00 -9.770868e-01 -3.533433e-01 3.393465e-01 1.024658e+00 1.632084e+00 2.101447e+00 2.360536e+00 2.419045e+00 2.259944e+00 1.934628e+00 1.463389e+00 8.967757e-01 2.598683e-01 -4.104432e-01 -1.099108e+00 -1.779614e+00 -2.446635e+00 -3.079082e+00 -3.671902e+00 -4.205129e+00 -4.659677e+00 -5.011396e+00 -5.214137e+00 -5.236515e+00 -5.008622e+00 -4.503407e+00 -3.673835e+00 -2.546186e+00 -1.194466e+00 2.225297e-01 1.485732e+00 2.369570e+00 2.768754e+00 2.665992e+00 2.211289e+00 1.567866e+00 8.895280e-01 2.863504e-01 -1.932255e-01 -5.243059e-01 -7.211280e-01 -7.992771e-01 -7.870508e-01 -7.061457e-01 -5.782476e-01 -4.186116e-01 -2.395943e-01 -4.918757e-02 1.468111e-01 3.453065e-01 5.442302e-01 7.431793e-01 9.420071e-01 1.141585e+00 1.342688e+00 1.546666e+00 1.754689e+00 1.968176e+00 2.188413e+00 2.416698e+00 2.654274e+00 2.902247e+00 3.161694e+00 3.433537e+00 3.718557e+00 4.017544e+00 4.330835e+00 4.659172e+00 5.002277e+00 5.360948e+00 5.734107e+00 6.122708e+00 6.524699e+00 6.941261e+00 7.369243e+00 7.810064e+00 8.259455e+00 8.718984e+00 9.183440e+00 9.654320e+00 1.012593e+01 1.059930e+01 1.106906e+01 1.153519e+01 1.199383e+01 1.244305e+01 1.288196e+01 1.330569e+01 1.371770e+01 1.410907e+01 1.448854e+01 1.484229e+01 1.518441e+01 1.549595e+01 1.579534e+01 1.605963e+01 1.630950e+01 1.652069e+01 1.671355e+01 1.686620e+01 1.699619e+01 1.708768e+01 1.715334e+01 1.718564e+01 1.719106e+01 1.717059e+01 1.712420e+01 1.705970e+01 1.697161e+01 1.687176e+01 1.675143e+01 1.662348e+01 1.647860e+01 1.632828e+01 1.616478e+01 1.599679e+01 1.581929e+01 1.563769e+01 1.544985e+01 1.525823e+01 1.506301e+01 1.486440e+01 1.466417e+01 1.446104e+01 1.425763e+01 1.405184e+01 1.384663e+01 1.363951e+01 1.343349e+01 1.322594e+01 1.301976e+01 1.281235e+01 1.260642e+01 1.239948e+01 1.219403e+01 1.198771e+01 1.178282e+01 1.157715e+01 1.137281e+01 1.116775e+01 1.096389e+01 1.075933e+01 1.055583e+01 1.035165e+01 1.014836e+01 9.944408e+00 9.741206e+00 9.537340e+00 9.334090e+00 9.130187e+00 8.926783e+00 8.722749e+00 8.519121e+00 8.314903e+00 8.111028e+00 7.906622e+00 7.702532e+00 7.497995e+00 7.293784e+00 7.089238e+00 6.885068e+00 6.680707e+00 6.476812e+00 6.272901e+00 6.069589e+00 5.866468e+00 5.664115e+00 5.462191e+00 5.261243e+00 5.060988e+00 4.861948e+00 4.663888e+00 4.467308e+00 4.272015e+00 4.078485e+00 3.886560e+00 3.696695e+00 3.508757e+00 3.323179e+00 3.139849e+00 2.959175e+00 2.781058e+00 2.605883e+00 2.433557e+00 2.264438e+00 2.098437e+00 1.935882e+00 1.776684e+00 1.621139e+00 1.469154e+00 1.320993e+00 1.176555e+00 1.036073e+00 8.994350e-01 7.668412e-01 6.381694e-01 5.135869e-01 3.929602e-01 2.764249e-01 1.638358e-01 5.529953e-02 -4.934083e-02 -1.500053e-01 -2.468611e-01 -3.398515e-01 -4.291526e-01 -5.147266e-01 -5.967561e-01 -6.752176e-01 -7.502973e-01 -8.219802e-01 -8.904526e-01 -9.557025e-01 -1.017912e+00 -1.077066e+00 -1.133337e+00 -1.186705e+00 -1.237327e+00 -1.285172e+00 -1.330382e+00 -1.372912e+00 -1.412887e+00 -1.450249e+00 -1.485107e+00 -1.517394e+00 -1.547206e+00 -1.574475e+00 -1.599288e+00 -1.621582e+00 -1.641442e+00 -1.658822e+00 -1.673808e+00 -1.686381e+00 -1.696630e+00 -1.704570e+00 -1.710298e+00 -1.713863e+00 -1.715371e+00 -1.714906e+00 -1.712580e+00 -1.708512e+00 -1.702812e+00 -1.695631e+00 -1.687076e+00 -1.677323e+00 -1.666469e+00 -1.654709e+00 -1.642129e+00 -1.628935e+00 -1.615202e+00 -1.601137e+00 -1.586803e+00 -1.572408e+00 -1.557997e+00 -1.543774e+00 -1.529770e+00 -1.516177e+00 -1.503015e+00 -1.490462e+00 -1.478527e+00 -1.467368e+00 -1.456986e+00 -1.447517e+00 -1.438955e+00 -1.431411e+00 -1.424872e+00 -1.419421e+00 -1.415041e+00 -1.411783e+00 -1.409627e+00 -1.408590e+00 -1.408648e+00 -1.409786e+00 -1.411974e+00 -1.415167e+00 -1.419328e+00 -1.424382e+00 -1.430289e+00 -1.436945e+00 -1.444306e+00 -1.452247e+00 -1.460720e+00 -1.469581e+00 -1.478781e+00 -1.488164e+00 -1.497679e+00 -1.507167e+00 -1.516575e+00 -1.525746e+00 -1.534626e+00 -1.543066e+00 -1.551015e+00 -1.558334e+00 -1.564977e+00 -1.570818e+00 -1.575818e+00 -1.579867e+00 -1.582933e+00 -1.584926e+00 -1.585819e+00 -1.585544e+00 -1.584081e+00 -1.581384e+00 -1.577439e+00 -1.572220e+00 -1.565723e+00 -1.557942e+00 -1.548876e+00 -1.538541e+00 -1.526941e+00 -1.514111e+00 -1.500059e+00 -1.484835e+00 -1.468453e+00 -1.450975e+00 -1.432419e+00 -1.412859e+00 -1.392314e+00 -1.370869e+00 -1.348541e+00 -1.325427e+00 -1.301541e+00 -1.276986e+00 -1.251775e+00 -1.226015e+00 -1.199715e+00 -1.172988e+00 -1.145839e+00 -1.118381e+00 -1.090615e+00 -1.062654e+00 -1.034497e+00 -1.006253e+00 -9.779181e-01 -9.495981e-01 -9.212860e-01 -8.930824e-01 -8.649775e-01 -8.370661e-01 -8.093354e-01 -7.818741e-01 -7.546662e-01 -7.277937e-01 -7.012378e-01 -6.750730e-01 -6.492781e-01 -6.239198e-01 -5.989743e-01 -5.745007e-01 -5.504727e-01 -5.269417e-01 -5.038791e-01 -4.813285e-01 -4.592593e-01 -4.377078e-01 -4.166411e-01 -3.960887e-01 -3.760156e-01 -3.564449e-01 -3.373399e-01 -3.187175e-01 -3.005396e-01 -2.828177e-01 -2.655123e-01 -2.486301e-01 -2.321306e-01 -2.160162e-01 -2.002458e-01 -1.848181e-01 -1.696917e-01 -1.548624e-01 -1.402886e-01 -1.259639e-01 -1.118469e-01 -9.792944e-02 -8.417085e-02 -7.056152e-02 -5.706196e-02 -4.366159e-02 -3.032238e-02 -1.703311e-02 -3.757558e-03 9.515908e-03 2.282126e-02 3.617048e-02 4.959481e-02 6.310650e-02 7.673349e-02 9.048828e-02 1.043947e-01 1.184654e-01 1.327191e-01 1.471679e-01 1.618244e-01 1.766990e-01 1.917958e-01 2.071219e-01 2.226701e-01 2.384407e-01 2.544117e-01 2.705728e-01 2.868836e-01 3.033202e-01 3.198242e-01 3.363599e-01 3.528592e-01 3.692880e-01 3.855904e-01 4.017627e-01 4.177986e-01 4.337666e-01 4.497520e-01 4.659330e-01 4.825065e-01 4.997586e-01 5.179560e-01 5.374122e-01 5.583226e-01 5.808496e-01 6.048741e-01 6.301532e-01 6.559698e-01 6.814012e-01 7.049125e-01 7.246028e-01 7.380096e-01 7.417482e-01 7.323168e-01 7.038216e-01 6.514710e-01 5.653184e-01 4.391801e-01 2.581394e-01 1.605821e-02 -3.040499e-01 -7.027860e-01 -1.189188e+00 -1.749657e+00 -2.375037e+00 -3.037850e+00 -3.719488e+00 -4.393425e+00 -5.050046e+00 -5.673725e+00 -6.267287e+00 -6.822383e+00 -7.348404e+00 -7.838370e+00 -8.304072e+00 -8.737164e+00 -9.150874e+00 -9.534865e+00 -9.904113e+00 -1.024617e+01 -1.057815e+01 -1.088532e+01 -1.118720e+01 -1.146641e+01 -1.174497e+01 -1.200248e+01 -1.226338e+01 -1.250384e+01 
-1.926556e+01 -1.966488e+01 -2.007257e+01 -2.045793e+01 -2.084611e+01 -2.120090e+01 -2.154381e+01 -2.183271e+01 -2.208216e+01 -2.224451e+01 -2.232356e+01 -2.226832e+01 -2.206862e+01 -2.167535e+01 -2.106449e+01 -2.019944e+01 -1.905201e+01 -1.761836e+01 -1.589594e+01 -1.394414e+01 -1.183557e+01 -9.702547e+00 -7.701533e+00 -5.941536e+00 -4.536017e+00 -3.419836e+00 -2.569030e+00 -1.857763e+00 -1.268734e+00 -7.756748e-01 -4.109940e-01 -1.707423e-01 -8.134366e-02 -1.172470e-01 -2.876986e-01 -5.510848e-01 -9.096547e-01 -1.317373e+00 -1.773420e+00 -2.233155e+00 -2.689722e+00 -3.104496e+00 -3.461644e+00 -3.733852e+00 -3.896239e+00 -3.936988e+00 -3.823583e+00 -3.560297e+00 -3.108067e+00 -2.486290e+00 -1.660730e+00 -6.820743e-01 4.276903e-01 1.556155e+00 2.576492e+00 3.380257e+00 3.840140e+00 3.962863e+00 3.735887e+00 3.232875e+00 2.506979e+00 1.624458e+00 6.423715e-01 -3.968466e-01 -1.456054e+00 -2.506658e+00 -3.533041e+00 -4.509757e+00 -5.432099e+00 -6.269436e+00 -7.008436e+00 -7.602550e+00 -8.005750e+00 -8.146336e+00 -7.934447e+00 -7.286254e+00 -6.117402e+00 -4.413244e+00 -2.260720e+00 1.051363e-01 2.300889e+00 3.875714e+00 4.605398e+00 4.415963e+00 3.605998e+00 2.484660e+00 1.333969e+00 3.406616e-01 -4.273933e-01 -9.387654e-01 -1.230472e+00 -1.333184e+00 -1.298136e+00 -1.160342e+00 -9.550780e-01 -7.049433e-01 -4.288387e-01 -1.378443e-01 1.594699e-01 4.592331e-01 7.584012e-01 1.056936e+00 1.354535e+00 1.652956e+00 1.953175e+00 2.257627e+00 2.567814e+00 2.886267e+00 3.214631e+00 3.555254e+00 3.909706e+00 4.280045e+00 4.667602e+00 5.074143e+00 5.500583e+00 5.948461e+00 6.418062e+00 6.910821e+00 7.426132e+00 7.965481e+00 8.527089e+00 9.112644e+00 9.718917e+00 1.034791e+01 1.099473e+01 1.166172e+01 1.234223e+01 1.303888e+01 1.374344e+01 1.445851e+01 1.517493e+01 1.589473e+01 1.660903e+01 1.731844e+01 1.801617e+01 1.870019e+01 1.936805e+01 2.001350e+01 2.064069e+01 2.123736e+01 2.181581e+01 2.235619e+01 2.287910e+01 2.335658e+01 2.381592e+01 2.422262e+01 2.460737e+01 2.493347e+01 2.523089e+01 2.546691e+01 2.566685e+01 2.580810e+01 2.590801e+01 2.595781e+01 2.596468e+01 2.593385e+01 2.586174e+01 2.576457e+01 2.562979e+01 2.547986e+01 2.529709e+01 2.510525e+01 2.488603e+01 2.466063e+01 2.441369e+01 2.416159e+01 2.389372e+01 2.362098e+01 2.333762e+01 2.304964e+01 2.275523e+01 2.245663e+01 2.215471e+01 2.184921e+01 2.154252e+01 2.123292e+01 2.092350e+01 2.061180e+01 2.030110e+01 1.998863e+01 1.967763e+01 1.936525e+01 1.905456e+01 1.874275e+01 1.843272e+01 1.812174e+01 1.781251e+01 1.750245e+01 1.719403e+01 1.688482e+01 1.657713e+01 1.626867e+01 1.596156e+01 1.565369e+01 1.534698e+01 1.503951e+01 1.473302e+01 1.442576e+01 1.411933e+01 1.381212e+01 1.350560e+01 1.319833e+01 1.289162e+01 1.258421e+01 1.227729e+01 1.196973e+01 1.166265e+01 1.135504e+01 1.104792e+01 1.074043e+01 1.043350e+01 1.012640e+01 9.820002e+00 9.513667e+00 9.208224e+00 8.903136e+00 8.599190e+00 8.295934e+00 7.994121e+00 7.693376e+00 7.394425e+00 7.096956e+00 6.801673e+00 6.508319e+00 6.217573e+00 5.929225e+00 5.643932e+00 5.361516e+00 5.082613e+00 4.807071e+00 4.535496e+00 4.267756e+00 4.004426e+00 3.745384e+00 3.491168e+00 3.241661e+00 2.997360e+00 2.758143e+00 2.524466e+00 2.296197e+00 2.073742e+00 1.856956e+00 1.646195e+00 1.441294e+00 1.242559e+00 1.049803e+00 8.632766e-01 6.827701e-01 5.084819e-01 3.401771e-01 1.780028e-01 2.169948e-02 -1.286345e-01 -2.732818e-01 -4.121886e-01 -5.456585e-01 -6.736762e-01 -7.965625e-01 -9.143335e-01 -1.027322e+00 -1.135565e+00 -1.239401e+00 -1.338880e+00 -1.434334e+00 -1.525813e+00 -1.613635e+00 -1.697837e+00 -1.778709e+00 -1.856264e+00 -1.930756e+00 -2.002163e+00 -2.070691e+00 -2.136277e+00 -2.199078e+00 -2.258987e+00 -2.316111e+00 -2.370307e+00 -2.421637e+00 -2.469931e+00 -2.515220e+00 -2.557323e+00 -2.596250e+00 -2.631832e+00 -2.664072e+00 -2.692829e+00 -2.718113e+00 -2.739826e+00 -2.757993e+00 -2.772573e+00 -2.783608e+00 -2.791121e+00 -2.795171e+00 -2.795844e+00 -2.793221e+00 -2.787442e+00 -2.778605e+00 -2.766905e+00 -2.752447e+00 -2.735472e+00 -2.716092e+00 -2.694584e+00 -2.671064e+00 -2.645833e+00 -2.619010e+00 -2.590912e+00 -2.561658e+00 -2.531573e+00 -2.500774e+00 -2.469587e+00 -2.438124e+00 -2.406705e+00 -2.375438e+00 -2.344627e+00 -2.314376e+00 -2.284966e+00 -2.256492e+00 -2.229207e+00 -2.203198e+00 -2.178676e+00 -2.155720e+00 -2.134496e+00 -2.115067e+00 -2.097552e+00 -2.081994e+00 -2.068459e+00 -2.056972e+00 -2.047544e+00 -2.040177e+00 -2.034830e+00 -2.031482e+00 -2.030045e+00 -2.030474e+00 -2.032637e+00 -2.036469e+00 -2.041803e+00 -2.048555e+00 -2.056531e+00 -2.065633e+00 -2.075648e+00 -2.086466e+00 -2.097864e+00 -2.109727e+00 -2.121830e+00 -2.134054e+00 -2.146179e+00 -2.158089e+00 -2.169575e+00 -2.180525e+00 -2.190748e+00 -2.200139e+00 -2.208527e+00 -2.215818e+00 -2.221867e+00 -2.226588e+00 -2.229865e+00 -2.231625e+00 -2.231778e+00 -2.230267e+00 -2.227029e+00 -2.222020e+00 -2.215208e+00 -2.206559e+00 -2.196071e+00 -2.183723e+00 -2.169537e+00 -2.153504e+00 -2.135672e+00 -2.116040e+00 -2.094679e+00 -2.071597e+00 -2.046884e+00 -2.020554e+00 -1.992716e+00 -1.963387e+00 -1.932692e+00 -1.900649e+00 -1.867397e+00 -1.832954e+00 -1.797467e+00 -1.760956e+00 -1.723573e+00 -1.685339e+00 -1.646407e+00 -1.606797e+00 -1.566664e+00 -1.526024e+00 -1.485032e+00 -1.443700e+00 -1.402180e+00 -1.360480e+00 -1.318748e+00 -1.276988e+00 -1.235340e+00 -1.193806e+00 -1.152516e+00 -1.111468e+00 -1.070784e+00 -1.030457e+00 -9.905987e-01 -9.511972e-01 -9.123553e-01 -8.740547e-01 -8.363882e-01 -7.993324e-01 -7.629692e-01 -7.272703e-01 -6.923071e-01 -6.580460e-01 -6.245481e-01 -5.917751e-01 -5.597778e-01 -5.285134e-01 -4.980232e-01 -4.682600e-01 -4.392560e-01 -4.109603e-01 -3.833965e-01 -3.565106e-01 -3.303183e-01 -3.047627e-01 -2.798527e-01 -2.555290e-01 -2.317944e-01 -2.085878e-01 -1.859068e-01 -1.636891e-01 -1.419278e-01 -1.205599e-01 -9.957470e-02 -7.890917e-02 -5.854977e-02 -3.843355e-02 -1.854484e-02 1.178637e-03 2.075407e-02 4.024260e-02 5.966225e-02 7.907238e-02 9.849116e-02 1.179753e-01 1.375422e-01 1.572448e-01 1.770982e-01 1.971496e-01 2.174102e-01 2.379183e-01 2.586774e-01 2.797127e-01 3.010150e-01 3.225903e-01 3.444095e-01 3.664536e-01 3.886677e-01 4.110055e-01 4.333878e-01 4.557512e-01 4.780094e-01 5.001143e-01 5.220161e-01 5.437394e-01 5.653375e-01 5.869798e-01 6.088872e-01 6.314191e-01 6.549735e-01 6.800556e-01 7.071283e-01 7.366449e-01 7.688619e-01 8.038160e-01 8.411653e-01 8.800935e-01 9.192592e-01 9.566643e-01 9.896086e-01 1.014775e+00 1.027550e+00 1.023146e+00 9.937799e-01 9.326464e-01 8.265340e-01 6.656553e-01 4.291220e-01 1.044226e-01 -3.345738e-01 -8.963732e-01 -1.596770e+00 -2.423440e+00 -3.358833e+00 -4.363247e+00 -5.398327e+00 -6.424219e+00 -7.418910e+00 -8.362362e+00 -9.254708e+00 -1.008881e+01 -1.087535e+01 -1.160974e+01 -1.230553e+01 -1.295634e+01 -1.357683e+01 -1.415820e+01 -1.471654e+01 -1.524088e+01 -1.574924e+01 -1.622846e+01 -1.669879e+01 -1.714462e+01 -1.758841e+01 -1.801171e+01 -1.843895e+01 -1.884827e+01 