# vtk DataFile Version 2.0
Comment goes here
ASCII

DATASET STRUCTURED_POINTS
FIELD FieldData 1
TIME 1 1 double
0.25000000
DIMENSIONS    512   128   1

ORIGIN    0.000   0.000   0.000
SPACING   0.0019531 0.0019531   1.000

POINT_DATA   65536
VECTORS u double

-0.153808 -0.000001 0.000000 -0.142155 -0.000001 0.000000 -0.123698 -0.000001 0.000000 -0.111525 -0.000001 0.000000 -0.092261 -0.000001 0.000000 -0.080301 -0.000001 0.000000 -0.060957 -0.000001 0.000000 -0.050005 -0.000001 0.000000 -0.031367 -0.000002 0.000000 -0.022287 -0.000002 0.000000 -0.005214 -0.000002 0.000000 0.001057 -0.000002 0.000000 0.015654 -0.000002 0.000000 0.018139 -0.000002 0.000000 0.029362 -0.000002 0.000000 0.027145 -0.000002 0.000000 0.034286 -0.000002 0.000000 0.026753 -0.000002 0.000000 0.029626 -0.000002 0.000000 0.016868 -0.000002 0.000000 0.016264 -0.000002 0.000000 -0.000469 -0.000002 0.000000 -0.002444 -0.000002 0.000000 -0.020623 -0.000002 0.000000 -0.020857 -0.000002 0.000000 -0.037420 -0.000002 0.000000 -0.033120 -0.000001 0.000000 -0.046092 -0.000001 0.000000 -0.036526 -0.000001 0.000000 -0.046245 -0.000001 0.000000 -0.033168 -0.000001 0.000000 -0.041303 -0.000001 0.000000 -0.027121 -0.000001 0.000000 -0.035169 -0.000000 0.000000 -0.021654 -0.000000 0.000000 -0.030430 -0.000000 0.000000 -0.018589 -0.000000 0.000000 -0.028409 -0.000000 0.000000 -0.018795 0.000000 0.000000 -0.029785 0.000000 0.000000 -0.022779 0.000000 0.000000 -0.035077 0.000000 0.000000 -0.031058 0.000000 0.000000 -0.044872 0.000000 0.000000 -0.044251 0.000001 0.000000 -0.059771 0.000001 0.000000 -0.062882 0.000001 0.000000 -0.080012 0.000001 0.000000 -0.086869 0.000001 0.000000 -0.104891 0.000001 0.000000 -0.114940 0.000001 0.000000 -0.132355 0.000001 0.000000 -0.144492 0.000001 0.000000 -0.159370 0.000001 0.000000 -0.172386 0.000002 0.000000 -0.183161 0.000002 0.000000 -0.196305 0.000002 0.000000 -0.202298 0.000001 0.000000 -0.215347 0.000001 0.000000 -0.216728 0.000001 0.000000 -0.229717 0.000001 0.000000 -0.227164 0.000001 0.000000 -0.240153 0.000001 0.000000 -0.234525 0.000001 0.000000 -0.247501 0.000001 0.000000 -0.239624 0.000001 0.000000 -0.252499 0.000001 0.000000 -0.243069 0.000001 0.000000 -0.255677 0.000001 0.000000 -0.245235 0.000000 0.000000 -0.257280 0.000001 0.000000 -0.246220 0.000000 0.000000 -0.257183 0.000001 0.000000 -0.245759 0.000000 0.000000 -0.254787 0.000001 0.000000 -0.243066 -0.000000 0.000000 -0.248928 0.000000 0.000000 -0.236715 -0.000001 0.000000 -0.237960 0.000000 0.000000 -0.224797 -0.000001 0.000000 -0.220268 -0.000000 0.000000 -0.205722 -0.000002 0.000000 -0.195364 -0.000001 0.000000 -0.179585 -0.000002 0.000000 -0.164959 -0.000001 0.000000 -0.148929 -0.000002 0.000000 -0.132638 -0.000001 0.000000 -0.117643 -0.000002 0.000000 -0.102160 -0.000001 0.000000 -0.089119 -0.000002 0.000000 -0.075997 -0.000000 0.000000 -0.065206 -0.000002 0.000000 -0.054985 0.000000 0.000000 -0.046257 -0.000001 0.000000 -0.038773 0.000001 0.000000 -0.031694 -0.000001 0.000000 -0.026444 0.000001 0.000000 -0.020573 -0.000000 0.000000 -0.016975 0.000002 0.000000 -0.011941 0.000000 0.000000 -0.009476 0.000002 0.000000 -0.005001 0.000000 0.000000 -0.003258 0.000003 0.000000 0.000849 0.000001 0.000000 0.002175 0.000003 0.000000 0.006042 0.000001 0.000000 0.007165 0.000003 0.000000 0.010878 0.000001 0.000000 0.011948 0.000004 0.000000 0.015563 0.000002 0.000000 0.016680 0.000004 0.000000 0.020237 0.000002 0.000000 0.021472 0.000004 0.000000 0.024997 0.000002 0.000000 0.026399 0.000004 0.000000 0.029912 0.000002 0.000000 0.031511 0.000004 0.000000 0.035027 0.000003 0.000000 0.036842 0.000004 0.000000 0.040369 0.000003 0.000000 0.042409 0.000004 0.000000 0.045951 0.000003 0.000000 0.048213 0.000003 0.000000 0.051768 0.000002 0.000000 0.054240 0.000003 0.000000 0.057800 0.000002 0.000000 0.060459 0.000002 0.000000 0.064008 0.000001 0.000000 0.066823 0.000001 0.000000 0.070339 0.000001 0.000000 0.073264 -0.000000 0.000000 0.076719 -0.000000 0.000000 0.079700 -0.000001 0.000000 0.083060 -0.000001 0.000000 0.086032 -0.000003 0.000000 0.089259 -0.000002 0.000000 0.092150 -0.000004 0.000000 0.095203 -0.000004 0.000000 0.097936 -0.000006 0.000000 0.100773 -0.000005 0.000000 0.103270 -0.000007 0.000000 0.105850 -0.000006 0.000000 0.108037 -0.000009 0.000000 0.110321 -0.000008 0.000000 0.112131 -0.000010 0.000000 0.114087 -0.000009 0.000000 0.115464 -0.000011 0.000000 0.117067 -0.000009 0.000000 0.117971 -0.000012 0.000000 0.119201 -0.000010 0.000000 0.119608 -0.000012 0.000000 0.120459 -0.000010 0.000000 0.120363 -0.000012 0.000000 0.120835 -0.000010 0.000000 0.120245 -0.000012 0.000000 0.120349 -0.000010 0.000000 0.119290 -0.000012 0.000000 0.119047 -0.000009 0.000000 0.117556 -0.000011 0.000000 0.116991 -0.000008 0.000000 0.115114 -0.000010 0.000000 0.114262 -0.000007 0.000000 0.112047 -0.000009 0.000000 0.110947 -0.000006 0.000000 0.108448 -0.000007 0.000000 0.107139 -0.000005 0.000000 0.104408 -0.000006 0.000000 0.102932 -0.000004 0.000000 0.100019 -0.000005 0.000000 0.098416 -0.000003 0.000000 0.095368 -0.000004 0.000000 0.093676 -0.000002 0.000000 0.090538 -0.000002 0.000000 0.088792 -0.000001 0.000000 0.085601 -0.000001 0.000000 0.083833 -0.000000 0.000000 0.080623 -0.000000 0.000000 0.078860 0.000001 0.000000 0.075662 0.000001 0.000000 0.073928 0.000001 0.000000 0.070767 0.000001 0.000000 0.069082 0.000002 0.000000 0.065979 0.000002 0.000000 0.064359 0.000003 0.000000 0.061334 0.000002 0.000000 0.059792 0.000003 0.000000 0.056860 0.000003 0.000000 0.055406 0.000003 0.000000 0.052579 0.000003 0.000000 0.051222 0.000004 0.000000 0.048510 0.000004 0.000000 0.047256 0.000004 0.000000 0.044665 0.000004 0.000000 0.043517 0.000004 0.000000 0.041054 0.000004 0.000000 0.040016 0.000004 0.000000 0.037682 0.000004 0.000000 0.036755 0.000004 0.000000 0.034553 0.000004 0.000000 0.033737 0.000004 0.000000 0.031667 0.000004 0.000000 0.030962 0.000004 0.000000 0.029021 0.000004 0.000000 0.028425 0.000004 0.000000 0.026613 0.000004 0.000000 0.026124 0.000004 0.000000 0.024437 0.000004 0.000000 0.024052 0.000004 0.000000 0.022486 0.000004 0.000000 0.022203 0.000004 0.000000 0.020754 0.000003 0.000000 0.020568 0.000003 0.000000 0.019232 0.000003 0.000000 0.019140 0.000003 0.000000 0.017913 0.000003 0.000000 0.017911 0.000003 0.000000 0.016787 0.000003 0.000000 0.016872 0.000003 0.000000 0.015847 0.000003 0.000000 0.016014 0.000003 0.000000 0.015083 0.000003 0.000000 0.015329 0.000003 0.000000 0.014487 0.000002 0.000000 0.014809 0.000002 0.000000 0.014051 0.000002 0.000000 0.014444 0.000002 0.000000 0.013767 0.000002 0.000000 0.014227 0.000002 0.000000 0.013625 0.000002 0.000000 0.014149 0.000002 0.000000 0.013616 0.000002 0.000000 0.014200 0.000002 0.000000 0.013733 0.000002 0.000000 0.014372 0.000002 0.000000 0.013965 0.000002 0.000000 0.014655 0.000002 0.000000 0.014304 0.000001 0.000000 0.015040 0.000001 0.000000 0.014739 0.000001 0.000000 0.015517 0.000001 0.000000 0.015261 0.000001 0.000000 0.016075 0.000001 0.000000 0.015859 0.000001 0.000000 0.016706 0.000001 0.000000 0.016523 0.000001 0.000000 0.017397 0.000001 0.000000 0.017244 0.000001 0.000000 0.018139 0.000001 0.000000 0.018010 0.000001 0.000000 0.018922 0.000001 0.000000 0.018811 0.000001 0.000000 0.019736 0.000001 0.000000 0.019637 0.000001 0.000000 0.020570 0.000001 0.000000 0.020480 0.000000 0.000000 0.021416 0.000000 0.000000 0.021331 0.000000 0.000000 0.022266 0.000000 0.000000 0.022180 0.000000 0.000000 0.023110 0.000000 0.000000 0.023020 0.000000 0.000000 0.023943 0.000000 0.000000 0.023845 0.000000 0.000000 0.024757 0.000000 0.000000 0.024649 0.000000 0.000000 0.025548 0.000000 0.000000 0.025426 0.000000 0.000000 0.026309 0.000000 0.000000 0.026173 0.000000 0.000000 0.027038 0.000000 0.000000 0.026885 0.000000 0.000000 0.027731 0.000000 0.000000 0.027559 0.000000 0.000000 0.028385 0.000000 0.000000 0.028195 0.000000 0.000000 0.029001 0.000000 0.000000 0.028790 0.000000 0.000000 0.029575 0.000000 0.000000 0.029345 0.000000 0.000000 0.030109 0.000000 0.000000 0.029859 0.000000 0.000000 0.030602 0.000000 0.000000 0.030332 0.000000 0.000000 0.031056 0.000000 0.000000 0.030767 0.000000 0.000000 0.031471 0.000000 0.000000 0.031163 0.000000 0.000000 0.031849 0.000000 0.000000 0.031524 0.000000 0.000000 0.032191 0.000000 0.000000 0.031850 0.000000 0.000000 0.032501 0.000000 0.000000 0.032145 0.000000 0.000000 0.032781 0.000000 0.000000 0.032410 0.000000 0.000000 0.033032 0.000000 0.000000 0.032648 0.000000 0.000000 0.033257 0.000000 0.000000 0.032861 0.000000 0.000000 0.033458 0.000000 0.000000 0.033051 0.000000 0.000000 0.033638 0.000000 0.000000 0.033222 0.000000 0.000000 0.033800 0.000000 0.000000 0.033375 0.000000 0.000000 0.033944 0.000000 0.000000 0.033512 0.000000 0.000000 0.034074 0.000000 0.000000 0.033635 0.000000 0.000000 0.034191 0.000000 0.000000 0.033747 0.000000 0.000000 0.034297 0.000000 0.000000 0.033848 0.000000 0.000000 0.034394 0.000000 0.000000 0.033940 0.000000 0.000000 0.034482 0.000000 0.000000 0.034025 0.000000 0.000000 0.034563 0.000000 0.000000 0.034103 0.000000 0.000000 0.034638 0.000000 0.000000 0.034176 0.000000 0.000000 0.034709 0.000000 0.000000 0.034244 0.000000 0.000000 0.034775 0.000000 0.000000 0.034309 0.000000 0.000000 0.034838 0.000000 0.000000 0.034370 0.000000 0.000000 0.034898 0.000000 0.000000 0.034429 0.000000 0.000000 0.034955 0.000000 0.000000 0.034486 0.000000 0.000000 0.035011 0.000000 0.000000 0.034540 0.000000 0.000000 0.035065 0.000000 0.000000 0.034594 0.000000 0.000000 0.035118 0.000000 0.000000 0.034646 0.000000 0.000000 0.035170 0.000000 0.000000 0.034698 0.000000 0.000000 0.035220 0.000000 0.000000 0.034748 0.000000 0.000000 0.035270 0.000000 0.000000 0.034798 0.000000 0.000000 0.035320 0.000000 0.000000 0.034847 0.000000 0.000000 0.035369 0.000000 0.000000 0.034896 0.000000 0.000000 0.035418 0.000000 0.000000 0.034945 0.000000 0.000000 0.035466 0.000000 0.000000 0.034993 0.000000 0.000000 0.035514 0.000000 0.000000 0.035041 0.000000 0.000000 0.035561 0.000000 0.000000 0.035089 0.000000 0.000000 0.035609 0.000000 0.000000 0.035136 0.000000 0.000000 0.035656 0.000000 0.000000 0.035184 0.000000 0.000000 0.035703 0.000000 0.000000 0.035231 0.000000 0.000000 0.035750 0.000000 0.000000 0.035278 0.000000 0.000000 0.035797 0.000000 0.000000 0.035325 0.000000 0.000000 0.035844 0.000000 0.000000 0.035372 0.000000 0.000000 0.035890 0.000000 0.000000 0.035419 0.000000 0.000000 0.035937 0.000000 0.000000 0.035466 0.000000 0.000000 0.035983 0.000000 0.000000 0.035513 0.000000 0.000000 0.036029 0.000000 0.000000 0.035559 0.000000 0.000000 0.036075 0.000000 0.000000 0.035606 0.000000 0.000000 0.036122 0.000000 0.000000 0.035652 0.000000 0.000000 0.036167 0.000000 0.000000 0.035699 0.000000 0.000000 0.036213 0.000000 0.000000 0.035746 0.000000 0.000000 0.036259 0.000000 0.000000 0.035792 0.000000 0.000000 0.036305 0.000000 0.000000 0.035839 0.000000 0.000000 0.036351 0.000000 0.000000 0.035886 0.000000 0.000000 0.036397 0.000000 0.000000 0.035932 0.000000 0.000000 0.036442 0.000000 0.000000 0.035979 0.000000 0.000000 0.036488 0.000000 0.000000 0.036026 0.000000 0.000000 0.036534 0.000000 0.000000 0.036073 0.000000 0.000000 0.036580 0.000000 0.000000 0.036121 0.000000 0.000000 0.036626 0.000000 0.000000 0.036169 0.000000 0.000000 0.036672 0.000000 0.000000 0.036217 0.000000 0.000000 0.036718 0.000000 0.000000 0.036265 0.000000 0.000000 0.036764 0.000000 0.000000 0.036314 0.000000 0.000000 0.036811 0.000000 0.000000 0.036363 0.000000 0.000000 0.036858 0.000000 0.000000 0.036413 0.000000 0.000000 0.036905 0.000000 0.000000 0.036464 0.000000 0.000000 0.036953 0.000000 0.000000 0.036516 0.000000 0.000000 0.037002 0.000000 0.000000 0.036568 0.000000 0.000000 0.037051 0.000000 0.000000 0.036622 0.000000 0.000000 0.037101 0.000000 0.000000 0.036678 0.000000 0.000000 0.037153 0.000000 0.000000 0.036735 0.000000 0.000000 0.037205 0.000000 0.000000 0.036794 0.000000 0.000000 0.037260 0.000000 0.000000 0.036855 0.000000 0.000000 0.037316 0.000000 0.000000 0.036919 0.000000 0.000000 0.037374 0.000000 0.000000 0.036987 0.000000 0.000000 0.037435 0.000000 0.000000 0.037058 0.000000 0.000000 0.037499 0.000000 0.000000 0.037132 0.000000 0.000000 0.037567 0.000000 0.000000 0.037212 0.000000 0.000000 0.037639 0.000000 0.000000 0.037297 0.000000 0.000000 0.037716 0.000000 0.000000 0.037389 0.000000 0.000000 0.037798 0.000000 0.000000 0.037487 0.000000 0.000000 0.037888 0.000000 0.000000 0.037595 0.000000 0.000000 0.037986 0.000000 0.000000 0.037711 0.000000 0.000000 0.038094 0.000000 0.000000 0.037838 0.000000 0.000000 0.038214 0.000000 0.000000 0.037977 0.000000 0.000000 0.038350 0.000000 0.000000 0.038127 0.000000 0.000000 0.038505 0.000000 0.000000 0.038291 0.000000 0.000000 0.038684 0.000000 0.000000 0.038466 0.000000 0.000000 0.038892 0.000000 0.000000 0.038653 0.000000 0.000000 0.039132 0.000000 0.000000 0.038850 0.000000 0.000000 0.039404 0.000000 0.000000 0.039056 0.000000 0.000000 0.039697 0.000000 0.000000 0.039264 0.000000 0.000000 0.039990 0.000000 0.000000 0.039464 0.000000 0.000000 0.040239 0.000000 0.000000 0.039628 0.000000 0.000000 0.040369 0.000000 0.000000 0.039699 0.000000 0.000000 0.040260 0.000000 0.000000 0.039556 0.000000 0.000000 0.039714 0.000000 0.000000 0.038960 0.000000 0.000000 0.038390 0.000000 0.000000 0.037447 0.000000 0.000000 0.035700 0.000000 0.000000 0.034199 0.000000 0.000000 0.030662 0.000000 0.000000 0.027895 0.000000 0.000000 0.021791 0.000000 0.000000 0.016694 0.000000 0.000000 0.007169 0.000000 0.000000 -0.001471 0.000000 0.000000 -0.015063 0.000000 0.000000 -0.028050 0.000000 0.000000 -0.045640 0.000000 0.000000 -0.062573 0.000000 0.000000 -0.082929 0.000000 0.000000 -0.101875 0.000000 0.000000 -0.122840 0.000000 0.000000 -0.141326 0.000000 0.000000 -0.160758 -0.000000 0.000000 -0.176743 -0.000000 0.000000 -0.193116 -0.000000 0.000000 -0.205316 -0.000000 0.000000 -0.217799 -0.000000 0.000000 -0.225604 -0.000000 0.000000 -0.233900 -0.000000 0.000000 -0.237157 -0.000000 0.000000 -0.241320 -0.000000 0.000000 -0.240164 -0.000000 0.000000 -0.240461 -0.000000 0.000000 -0.235195 -0.000000 0.000000 -0.232023 -0.000000 0.000000 -0.223055 -0.000000 0.000000 -0.216896 -0.000001 0.000000 -0.204708 -0.000001 0.000000 -0.196108 -0.000001 0.000000 -0.181233 -0.000001 0.000000 -0.170787 -0.000001 0.000000 
-0.150381 -0.014316 0.000000 -0.138918 -0.015056 0.000000 -0.120482 -0.015316 0.000000 -0.108546 -0.015720 0.000000 -0.089308 -0.015613 0.000000 -0.077628 -0.015653 0.000000 -0.058302 -0.015150 0.000000 -0.047665 -0.014796 0.000000 -0.029026 -0.013860 0.000000 -0.020290 -0.013078 0.000000 -0.003182 -0.011674 0.000000 0.002721 -0.010436 0.000000 0.017395 -0.008543 0.000000 0.019485 -0.006856 0.000000 0.030830 -0.004505 0.000000 0.028177 -0.002464 0.000000 0.035472 0.000194 0.000000 0.027429 0.002328 0.000000 0.030457 0.004941 0.000000 0.017068 0.006679 0.000000 0.016595 0.008666 0.000000 -0.000930 0.009352 0.000000 -0.002772 0.010075 0.000000 -0.021892 0.009205 0.000000 -0.021856 0.008397 0.000000 -0.039432 0.006130 0.000000 -0.034508 0.004335 0.000000 -0.048491 0.001702 0.000000 -0.037824 0.000075 0.000000 -0.048578 -0.001680 0.000000 -0.034075 -0.002472 0.000000 -0.043358 -0.003024 0.000000 -0.027538 -0.003067 0.000000 -0.036872 -0.002733 0.000000 -0.021493 -0.002370 0.000000 -0.031685 -0.001532 0.000000 -0.017680 -0.001010 0.000000 -0.029044 0.000103 0.000000 -0.016877 0.000688 0.000000 -0.029543 0.001993 0.000000 -0.019517 0.002646 0.000000 -0.033618 0.004140 0.000000 -0.026058 0.004898 0.000000 -0.041784 0.006597 0.000000 -0.037097 0.007450 0.000000 -0.054603 0.009316 0.000000 -0.053198 0.010122 0.000000 -0.072343 0.011995 0.000000 -0.074396 0.012441 0.000000 -0.094396 0.014037 0.000000 -0.099589 0.013734 0.000000 -0.118854 0.014778 0.000000 -0.126346 0.013510 0.000000 -0.142845 0.013949 0.000000 -0.151672 0.011897 0.000000 -0.163786 0.011961 0.000000 -0.173388 0.009571 0.000000 -0.180452 0.009522 0.000000 -0.190691 0.007216 0.000000 -0.192916 0.007187 0.000000 -0.203817 0.005220 0.000000 -0.201924 0.005219 0.000000 -0.213473 0.003682 0.000000 -0.208356 0.003675 0.000000 -0.220451 0.002551 0.000000 -0.212963 0.002500 0.000000 -0.225447 0.001724 0.000000 -0.216302 0.001589 0.000000 -0.228975 0.001084 0.000000 -0.218715 0.000802 0.000000 -0.231290 0.000494 0.000000 -0.220299 -0.000048 0.000000 -0.232305 -0.000230 0.000000 -0.220814 -0.001198 0.000000 -0.231469 -0.001346 0.000000 -0.219517 -0.002930 0.000000 -0.227656 -0.003175 0.000000 -0.215018 -0.005484 0.000000 -0.219197 -0.005959 0.000000 -0.205378 -0.008847 0.000000 -0.204341 -0.009538 0.000000 -0.188883 -0.012453 0.000000 -0.182383 -0.013069 0.000000 -0.165457 -0.015204 0.000000 -0.154837 -0.015329 0.000000 -0.137508 -0.016163 0.000000 -0.125174 -0.015643 0.000000 -0.108820 -0.015241 0.000000 -0.097072 -0.014262 0.000000 -0.082674 -0.013083 0.000000 -0.072937 -0.011956 0.000000 -0.060823 -0.010507 0.000000 -0.053569 -0.009474 0.000000 -0.043574 -0.008107 0.000000 -0.038625 -0.007280 0.000000 -0.030352 -0.006165 0.000000 -0.027235 -0.005559 0.000000 -0.020255 -0.004734 0.000000 -0.018441 -0.004313 0.000000 -0.012391 -0.003748 0.000000 -0.011416 -0.003466 0.000000 -0.006023 -0.003107 0.000000 -0.005527 -0.002921 0.000000 -0.000597 -0.002714 0.000000 -0.000323 -0.002592 0.000000 0.004276 -0.002493 0.000000 0.004507 -0.002413 0.000000 0.008866 -0.002388 0.000000 0.009171 -0.002337 0.000000 0.013356 -0.002363 0.000000 0.013813 -0.002331 0.000000 0.017870 -0.002392 0.000000 0.018529 -0.002374 0.000000 0.022493 -0.002459 0.000000 0.023386 -0.002451 0.000000 0.027284 -0.002551 0.000000 0.028430 -0.002551 0.000000 0.032283 -0.002660 0.000000 0.033691 -0.002664 0.000000 0.037513 -0.002778 0.000000 0.039184 -0.002784 0.000000 0.042984 -0.002896 0.000000 0.044908 -0.002902 0.000000 0.048689 -0.003008 0.000000 0.050850 -0.003010 0.000000 0.054607 -0.003104 0.000000 0.056979 -0.003099 0.000000 0.060702 -0.003177 0.000000 0.063248 -0.003161 0.000000 0.066918 -0.003216 0.000000 0.069593 -0.003186 0.000000 0.073185 -0.003214 0.000000 0.075932 -0.003168 0.000000 0.079416 -0.003164 0.000000 0.082170 -0.003099 0.000000 0.085510 -0.003058 0.000000 0.088199 -0.002973 0.000000 0.091356 -0.002894 0.000000 0.093904 -0.002788 0.000000 0.096840 -0.002669 0.000000 0.099167 -0.002543 0.000000 0.101842 -0.002387 0.000000 0.103875 -0.002242 0.000000 0.106255 -0.002053 0.000000 0.107926 -0.001891 0.000000 0.109979 -0.001674 0.000000 0.111232 -0.001500 0.000000 0.112934 -0.001261 0.000000 0.113729 -0.001078 0.000000 0.115063 -0.000828 0.000000 0.115376 -0.000641 0.000000 0.116333 -0.000387 0.000000 0.116156 -0.000200 0.000000 0.116740 0.000048 0.000000 0.116082 0.000230 0.000000 0.116302 0.000466 0.000000 0.115187 0.000638 0.000000 0.115064 0.000857 0.000000 0.113526 0.001015 0.000000 0.113086 0.001211 0.000000 0.111169 0.001353 0.000000 0.110445 0.001524 0.000000 0.108199 0.001647 0.000000 0.107227 0.001791 0.000000 0.104702 0.001894 0.000000 0.103523 0.002012 0.000000 0.100771 0.002095 0.000000 0.099425 0.002187 0.000000 0.096494 0.002250 0.000000 0.095020 0.002319 0.000000 0.091956 0.002363 0.000000 0.090393 0.002410 0.000000 0.087239 0.002437 0.000000 0.085619 0.002464 0.000000 0.082413 0.002475 0.000000 0.080768 0.002486 0.000000 0.077543 0.002483 0.000000 0.075900 0.002478 0.000000 0.072685 0.002464 0.000000 0.071068 0.002446 0.000000 0.067889 0.002422 0.000000 0.066316 0.002393 0.000000 0.063194 0.002360 0.000000 0.061682 0.002322 0.000000 0.058637 0.002283 0.000000 0.057199 0.002238 0.000000 0.054243 0.002193 0.000000 0.052890 0.002141 0.000000 0.050037 0.002093 0.000000 0.048776 0.002036 0.000000 0.046036 0.001985 0.000000 0.044873 0.001924 0.000000 0.042252 0.001871 0.000000 0.041193 0.001808 0.000000 0.038697 0.001753 0.000000 0.037744 0.001688 0.000000 0.035375 0.001632 0.000000 0.034530 0.001567 0.000000 0.032290 0.001511 0.000000 0.031553 0.001446 0.000000 0.029442 0.001390 0.000000 0.028813 0.001325 0.000000 0.026831 0.001270 0.000000 0.026307 0.001207 0.000000 0.024451 0.001153 0.000000 0.024032 0.001091 0.000000 0.022300 0.001038 0.000000 0.021982 0.000978 0.000000 0.020369 0.000927 0.000000 0.020151 0.000869 0.000000 0.018653 0.000820 0.000000 0.018530 0.000763 0.000000 0.017144 0.000716 0.000000 0.017114 0.000662 0.000000 0.015834 0.000617 0.000000 0.015892 0.000565 0.000000 0.014715 0.000522 0.000000 0.014858 0.000472 0.000000 0.013778 0.000431 0.000000 0.014003 0.000384 0.000000 0.013016 0.000344 0.000000 0.013318 0.000300 0.000000 0.012419 0.000262 0.000000 0.012795 0.000220 0.000000 0.011980 0.000184 0.000000 0.012426 0.000144 0.000000 0.011690 0.000110 0.000000 0.012203 0.000073 0.000000 0.011542 0.000041 0.000000 0.012117 0.000006 0.000000 0.011525 -0.000024 0.000000 0.012159 -0.000057 0.000000 0.011632 -0.000085 0.000000 0.012320 -0.000115 0.000000 0.011854 -0.000140 0.000000 0.012592 -0.000168 0.000000 0.012181 -0.000191 0.000000 0.012965 -0.000217 0.000000 0.012603 -0.000237 0.000000 0.013429 -0.000260 0.000000 0.013112 -0.000278 0.000000 0.013974 -0.000298 0.000000 0.013697 -0.000314 0.000000 0.014591 -0.000331 0.000000 0.014347 -0.000345 0.000000 0.015268 -0.000359 0.000000 0.015053 -0.000370 0.000000 0.015996 -0.000382 0.000000 0.015805 -0.000391 0.000000 0.016765 -0.000400 0.000000 0.016592 -0.000406 0.000000 0.017565 -0.000413 0.000000 0.017405 -0.000417 0.000000 0.018386 -0.000421 0.000000 0.018235 -0.000423 0.000000 0.019219 -0.000425 0.000000 0.019072 -0.000424 0.000000 0.020055 -0.000424 0.000000 0.019909 -0.000422 0.000000 0.020888 -0.000420 0.000000 0.020737 -0.000416 0.000000 0.021708 -0.000412 0.000000 0.021551 -0.000407 0.000000 0.022512 -0.000402 0.000000 0.022344 -0.000395 0.000000 0.023291 -0.000388 0.000000 0.023111 -0.000381 0.000000 0.024043 -0.000373 0.000000 0.023848 -0.000364 0.000000 0.024763 -0.000356 0.000000 0.024551 -0.000346 0.000000 0.025447 -0.000337 0.000000 0.025218 -0.000327 0.000000 0.026094 -0.000318 0.000000 0.025846 -0.000308 0.000000 0.026702 -0.000298 0.000000 0.026434 -0.000287 0.000000 0.027270 -0.000277 0.000000 0.026983 -0.000267 0.000000 0.027798 -0.000257 0.000000 0.027491 -0.000247 0.000000 0.028286 -0.000237 0.000000 0.027960 -0.000227 0.000000 0.028735 -0.000217 0.000000 0.028390 -0.000207 0.000000 0.029146 -0.000198 0.000000 0.028782 -0.000189 0.000000 0.029520 -0.000180 0.000000 0.029139 -0.000171 0.000000 0.029860 -0.000163 0.000000 0.029463 -0.000155 0.000000 0.030167 -0.000147 0.000000 0.029755 -0.000140 0.000000 0.030444 -0.000133 0.000000 0.030017 -0.000125 0.000000 0.030693 -0.000119 0.000000 0.030254 -0.000112 0.000000 0.030916 -0.000107 0.000000 0.030465 -0.000101 0.000000 0.031116 -0.000095 0.000000 0.030655 -0.000090 0.000000 0.031295 -0.000085 0.000000 0.030825 -0.000081 0.000000 0.031456 -0.000076 0.000000 0.030977 -0.000072 0.000000 0.031600 -0.000069 0.000000 0.031113 -0.000065 0.000000 0.031730 -0.000062 0.000000 0.031237 -0.000058 0.000000 0.031847 -0.000056 0.000000 0.031348 -0.000053 0.000000 0.031953 -0.000051 0.000000 0.031449 -0.000048 0.000000 0.032049 -0.000046 0.000000 0.031541 -0.000044 0.000000 0.032137 -0.000042 0.000000 0.031626 -0.000041 0.000000 0.032219 -0.000039 0.000000 0.031705 -0.000038 0.000000 0.032295 -0.000036 0.000000 0.031778 -0.000035 0.000000 0.032365 -0.000034 0.000000 0.031847 -0.000033 0.000000 0.032432 -0.000032 0.000000 0.031912 -0.000031 0.000000 0.032495 -0.000031 0.000000 0.031974 -0.000030 0.000000 0.032556 -0.000029 0.000000 0.032033 -0.000029 0.000000 0.032614 -0.000028 0.000000 0.032090 -0.000028 0.000000 0.032670 -0.000027 0.000000 0.032146 -0.000027 0.000000 0.032725 -0.000027 0.000000 0.032200 -0.000026 0.000000 0.032778 -0.000026 0.000000 0.032252 -0.000026 0.000000 0.032830 -0.000026 0.000000 0.032304 -0.000025 0.000000 0.032881 -0.000025 0.000000 0.032355 -0.000025 0.000000 0.032932 -0.000025 0.000000 0.032405 -0.000025 0.000000 0.032981 -0.000025 0.000000 0.032455 -0.000024 0.000000 0.033031 -0.000024 0.000000 0.032504 -0.000024 0.000000 0.033080 -0.000024 0.000000 0.032553 -0.000024 0.000000 0.033128 -0.000024 0.000000 0.032601 -0.000024 0.000000 0.033176 -0.000024 0.000000 0.032650 -0.000024 0.000000 0.033224 -0.000024 0.000000 0.032698 -0.000024 0.000000 0.033272 -0.000024 0.000000 0.032745 -0.000024 0.000000 0.033319 -0.000024 0.000000 0.032793 -0.000024 0.000000 0.033367 -0.000024 0.000000 0.032841 -0.000023 0.000000 0.033414 -0.000024 0.000000 0.032888 -0.000023 0.000000 0.033461 -0.000024 0.000000 0.032935 -0.000023 0.000000 0.033508 -0.000023 0.000000 0.032982 -0.000023 0.000000 0.033554 -0.000023 0.000000 0.033029 -0.000023 0.000000 0.033601 -0.000023 0.000000 0.033076 -0.000023 0.000000 0.033647 -0.000023 0.000000 0.033123 -0.000023 0.000000 0.033694 -0.000023 0.000000 0.033170 -0.000023 0.000000 0.033740 -0.000023 0.000000 0.033216 -0.000023 0.000000 0.033786 -0.000023 0.000000 0.033263 -0.000023 0.000000 0.033832 -0.000023 0.000000 0.033310 -0.000023 0.000000 0.033878 -0.000023 0.000000 0.033356 -0.000023 0.000000 0.033924 -0.000023 0.000000 0.033403 -0.000023 0.000000 0.033970 -0.000023 0.000000 0.033450 -0.000023 0.000000 0.034016 -0.000023 0.000000 0.033497 -0.000023 0.000000 0.034061 -0.000023 0.000000 0.033543 -0.000023 0.000000 0.034107 -0.000023 0.000000 0.033590 -0.000023 0.000000 0.034153 -0.000024 0.000000 0.033637 -0.000023 0.000000 0.034199 -0.000024 0.000000 0.033684 -0.000023 0.000000 0.034244 -0.000024 0.000000 0.033732 -0.000023 0.000000 0.034290 -0.000024 0.000000 0.033779 -0.000023 0.000000 0.034336 -0.000024 0.000000 0.033827 -0.000023 0.000000 0.034382 -0.000024 0.000000 0.033876 -0.000023 0.000000 0.034428 -0.000024 0.000000 0.033924 -0.000023 0.000000 0.034475 -0.000025 0.000000 0.033973 -0.000024 0.000000 0.034522 -0.000025 0.000000 0.034023 -0.000024 0.000000 0.034569 -0.000025 0.000000 0.034074 -0.000024 0.000000 0.034616 -0.000026 0.000000 0.034125 -0.000024 0.000000 0.034664 -0.000026 0.000000 0.034177 -0.000025 0.000000 0.034713 -0.000027 0.000000 0.034231 -0.000025 0.000000 0.034763 -0.000028 0.000000 0.034285 -0.000026 0.000000 0.034813 -0.000029 0.000000 0.034342 -0.000026 0.000000 0.034865 -0.000030 0.000000 0.034400 -0.000027 0.000000 0.034919 -0.000031 0.000000 0.034461 -0.000028 0.000000 0.034974 -0.000032 0.000000 0.034524 -0.000029 0.000000 0.035031 -0.000034 0.000000 0.034590 -0.000030 0.000000 0.035090 -0.000035 0.000000 0.034660 -0.000032 0.000000 0.035153 -0.000037 0.000000 0.034733 -0.000034 0.000000 0.035219 -0.000040 0.000000 0.034811 -0.000036 0.000000 0.035289 -0.000043 0.000000 0.034894 -0.000038 0.000000 0.035363 -0.000046 0.000000 0.034984 -0.000041 0.000000 0.035443 -0.000049 0.000000 0.035080 -0.000045 0.000000 0.035530 -0.000054 0.000000 0.035184 -0.000049 0.000000 0.035625 -0.000058 0.000000 0.035297 -0.000054 0.000000 0.035729 -0.000064 0.000000 0.035420 -0.000060 0.000000 0.035845 -0.000069 0.000000 0.035555 -0.000068 0.000000 0.035976 -0.000075 0.000000 0.035701 -0.000078 0.000000 0.036125 -0.000082 0.000000 0.035858 -0.000090 0.000000 0.036298 -0.000088 0.000000 0.036028 -0.000104 0.000000 0.036498 -0.000094 0.000000 0.036208 -0.000120 0.000000 0.036730 -0.000099 0.000000 0.036398 -0.000136 0.000000 0.036992 -0.000103 0.000000 0.036595 -0.000147 0.000000 0.037276 -0.000104 0.000000 0.036796 -0.000146 0.000000 0.037559 -0.000100 0.000000 0.036989 -0.000124 0.000000 0.037800 -0.000082 0.000000 0.037149 -0.000065 0.000000 0.037926 -0.000035 0.000000 0.037222 0.000054 0.000000 0.037823 0.000071 0.000000 0.037096 0.000273 0.000000 0.037302 0.000298 0.000000 0.036541 0.000662 0.000000 0.036040 0.000756 0.000000 0.035120 0.001345 0.000000 0.033475 0.001624 0.000000 0.032042 0.002519 0.000000 0.028661 0.003152 0.000000 0.026022 0.004435 0.000000 0.020141 0.005600 0.000000 0.015237 0.007311 0.000000 0.005994 0.009083 0.000000 -0.002414 0.011116 0.000000 -0.015705 0.013289 0.000000 -0.028474 0.015288 0.000000 -0.045805 0.017261 0.000000 -0.062575 0.018645 0.000000 -0.082722 0.019651 0.000000 -0.101510 0.019955 0.000000 -0.122257 0.019725 0.000000 -0.140538 0.018959 0.000000 -0.159717 0.017708 0.000000 -0.175447 0.016179 0.000000 -0.191545 0.014287 0.000000 -0.203470 0.012341 0.000000 -0.215687 0.010143 0.000000 -0.223227 0.008050 0.000000 -0.231293 0.005777 0.000000 -0.234320 0.003710 0.000000 -0.238307 0.001503 0.000000 -0.236964 -0.000430 0.000000 -0.237148 -0.002485 0.000000 -0.231743 -0.004220 0.000000 -0.228524 -0.006070 0.000000 -0.219463 -0.007564 0.000000 -0.213321 -0.009174 0.000000 -0.201080 -0.010395 0.000000 -0.192559 -0.011738 0.000000 -0.177664 -0.012661 0.000000 -0.167354 -0.013713 0.000000 