# vtk DataFile Version 2.0
Comment goes here
ASCII

DATASET STRUCTURED_POINTS
FIELD FieldData 1
TIME 1 1 double
0.45000000
DIMENSIONS    512   128   1

ORIGIN    0.000   0.000   0.000
SPACING   0.0019531 0.0019531   1.000

POINT_DATA   65536
VECTORS u double

-0.407897 0.000037 0.000000 -0.415093 0.000029 0.000000 -0.407457 0.000018 0.000000 -0.413977 0.000010 0.000000 -0.404311 -0.000000 0.000000 -0.410260 -0.000007 0.000000 -0.398557 -0.000015 0.000000 -0.403967 -0.000019 0.000000 -0.390140 -0.000025 0.000000 -0.394940 -0.000025 0.000000 -0.378803 -0.000027 0.000000 -0.382799 -0.000023 0.000000 -0.364052 -0.000021 0.000000 -0.366910 -0.000012 0.000000 -0.345155 -0.000006 0.000000 -0.346432 0.000006 0.000000 -0.321254 0.000015 0.000000 -0.320523 0.000030 0.000000 -0.291686 0.000039 0.000000 -0.288792 0.000053 0.000000 -0.256554 0.000060 0.000000 -0.251963 0.000070 0.000000 -0.217323 0.000073 0.000000 -0.212292 0.000078 0.000000 -0.176783 0.000075 0.000000 -0.172983 0.000076 0.000000 -0.137844 0.000068 0.000000 -0.136750 0.000065 0.000000 -0.102587 0.000055 0.000000 -0.105738 0.000050 0.000000 -0.073593 0.000040 0.000000 -0.082206 0.000036 0.000000 -0.052830 0.000026 0.000000 -0.067015 0.000023 0.000000 -0.040517 0.000014 0.000000 -0.059441 0.000013 0.000000 -0.035682 0.000006 0.000000 -0.058101 0.000007 0.000000 -0.037016 0.000001 0.000000 -0.061598 0.000002 0.000000 -0.043196 -0.000002 0.000000 -0.068627 -0.000001 0.000000 -0.052870 -0.000005 0.000000 -0.077913 -0.000003 0.000000 -0.064685 -0.000007 0.000000 -0.088241 -0.000006 0.000000 -0.077406 -0.000010 0.000000 -0.098513 -0.000008 0.000000 -0.089949 -0.000012 0.000000 -0.107688 -0.000009 0.000000 -0.101243 -0.000014 0.000000 -0.114740 -0.000010 0.000000 -0.110318 -0.000016 0.000000 -0.119124 -0.000011 0.000000 -0.117097 -0.000019 0.000000 -0.121788 -0.000012 0.000000 -0.123258 -0.000024 0.000000 -0.125206 -0.000015 0.000000 -0.131380 -0.000029 0.000000 -0.131718 -0.000019 0.000000 -0.143186 -0.000034 0.000000 -0.142169 -0.000023 0.000000 -0.158751 -0.000039 0.000000 -0.155869 -0.000026 0.000000 -0.176851 -0.000042 0.000000 -0.171263 -0.000028 0.000000 -0.195643 -0.000043 0.000000 -0.186540 -0.000027 0.000000 -0.213078 -0.000041 0.000000 -0.199818 -0.000022 0.000000 -0.226915 -0.000034 0.000000 -0.208987 -0.000010 0.000000 -0.234519 -0.000022 0.000000 -0.211497 0.000010 0.000000 -0.232858 -0.000002 0.000000 -0.204567 0.000035 0.000000 -0.219268 0.000019 0.000000 -0.186387 0.000060 0.000000 -0.193386 0.000034 0.000000 -0.158415 0.000073 0.000000 -0.159619 0.000032 0.000000 -0.127175 0.000066 0.000000 -0.127063 0.000010 0.000000 -0.101634 0.000045 0.000000 -0.103531 -0.000018 0.000000 -0.085762 0.000023 0.000000 -0.089060 -0.000041 0.000000 -0.076542 0.000010 0.000000 -0.079308 -0.000055 0.000000 -0.069503 0.000006 0.000000 -0.070689 -0.000060 0.000000 -0.062151 0.000007 0.000000 -0.061792 -0.000063 0.000000 -0.053960 0.000010 0.000000 -0.052578 -0.000065 0.000000 -0.045275 0.000012 0.000000 -0.043405 -0.000068 0.000000 -0.036547 0.000013 0.000000 -0.034549 -0.000072 0.000000 -0.028040 0.000012 0.000000 -0.026093 -0.000077 0.000000 -0.019820 0.000011 0.000000 -0.017977 -0.000082 0.000000 -0.011817 0.000010 0.000000 -0.010055 -0.000088 0.000000 -0.003892 0.000008 0.000000 -0.002151 -0.000092 0.000000 0.004119 0.000007 0.000000 0.005918 -0.000097 0.000000 0.012384 0.000005 0.000000 0.014325 -0.000100 0.000000 0.021057 0.000004 0.000000 0.023221 -0.000102 0.000000 0.030271 0.000004 0.000000 0.032736 -0.000102 0.000000 0.040133 0.000004 0.000000 0.042971 -0.000100 0.000000 0.050726 0.000005 0.000000 0.053996 -0.000095 0.000000 0.062105 0.000006 0.000000 0.065851 -0.000088 0.000000 0.074293 0.000009 0.000000 0.078540 -0.000077 0.000000 0.087281 0.000013 0.000000 0.092028 -0.000062 0.000000 0.101024 0.000018 0.000000 0.106242 -0.000044 0.000000 0.115438 0.000024 0.000000 0.121061 -0.000023 0.000000 0.130396 0.000030 0.000000 0.136324 0.000001 0.000000 0.145732 0.000038 0.000000 0.151828 0.000027 0.000000 0.161240 0.000045 0.000000 0.167336 0.000055 0.000000 0.176684 0.000053 0.000000 0.182585 0.000083 0.000000 0.191802 0.000060 0.000000 0.197299 0.000110 0.000000 0.206316 0.000067 0.000000 0.211200 0.000135 0.000000 0.219948 0.000072 0.000000 0.224027 0.000155 0.000000 0.232426 0.000075 0.000000 0.235542 0.000170 0.000000 0.243504 0.000075 0.000000 0.245549 0.000178 0.000000 0.252975 0.000072 0.000000 0.253902 0.000181 0.000000 0.260682 0.000068 0.000000 0.260510 0.000178 0.000000 0.266533 0.000062 0.000000 0.265342 0.000171 0.000000 0.270507 0.000055 0.000000 0.268424 0.000161 0.000000 0.272647 0.000048 0.000000 0.269831 0.000150 0.000000 0.273058 0.000043 0.000000 0.269675 0.000139 0.000000 0.271890 0.000039 0.000000 0.268095 0.000130 0.000000 0.269318 0.000036 0.000000 0.265244 0.000122 0.000000 0.265528 0.000036 0.000000 0.261277 0.000116 0.000000 0.260706 0.000036 0.000000 0.256346 0.000112 0.000000 0.255023 0.000037 0.000000 0.250595 0.000108 0.000000 0.248634 0.000039 0.000000 0.244159 0.000105 0.000000 0.241674 0.000040 0.000000 0.237157 0.000101 0.000000 0.234257 0.000040 0.000000 0.229698 0.000097 0.000000 0.226482 0.000039 0.000000 0.221873 0.000092 0.000000 0.218427 0.000036 0.000000 0.213763 0.000085 0.000000 0.210159 0.000032 0.000000 0.205437 0.000076 0.000000 0.201732 0.000026 0.000000 0.196950 0.000065 0.000000 0.193189 0.000018 0.000000 0.188348 0.000053 0.000000 0.184565 0.000008 0.000000 0.179669 0.000039 0.000000 0.175889 -0.000004 0.000000 0.170944 0.000023 0.000000 0.167184 -0.000018 0.000000 0.162198 0.000006 0.000000 0.158470 -0.000032 0.000000 0.153450 -0.000012 0.000000 0.149763 -0.000048 0.000000 0.144719 -0.000031 0.000000 0.141078 -0.000064 0.000000 0.136021 -0.000050 0.000000 0.132429 -0.000080 0.000000 0.127369 -0.000068 0.000000 0.123830 -0.000096 0.000000 0.118777 -0.000085 0.000000 0.115294 -0.000110 0.000000 0.110259 -0.000101 0.000000 0.106836 -0.000124 0.000000 0.101830 -0.000115 0.000000 0.098471 -0.000135 0.000000 0.093505 -0.000127 0.000000 0.090215 -0.000144 0.000000 0.085301 -0.000137 0.000000 0.082085 -0.000152 0.000000 0.077233 -0.000144 0.000000 0.074099 -0.000156 0.000000 0.069321 -0.000149 0.000000 0.066275 -0.000159 0.000000 0.061582 -0.000151 0.000000 0.058632 -0.000159 0.000000 0.054036 -0.000150 0.000000 0.051190 -0.000156 0.000000 0.046700 -0.000148 0.000000 0.043968 -0.000152 0.000000 0.039593 -0.000143 0.000000 0.036982 -0.000145 0.000000 0.032733 -0.000136 0.000000 0.030251 -0.000136 0.000000 0.026135 -0.000127 0.000000 0.023790 -0.000126 0.000000 0.019816 -0.000116 0.000000 0.017613 -0.000113 0.000000 0.013786 -0.000103 0.000000 0.011731 -0.000099 0.000000 0.008056 -0.000088 0.000000 0.006154 -0.000084 0.000000 0.002635 -0.000072 0.000000 0.000888 -0.000066 0.000000 -0.002474 -0.000055 0.000000 -0.004064 -0.000048 0.000000 -0.007268 -0.000036 0.000000 -0.008701 -0.000028 0.000000 -0.011747 -0.000016 0.000000 -0.013025 -0.000008 0.000000 -0.015915 0.000004 0.000000 -0.017041 0.000013 0.000000 -0.019780 0.000025 0.000000 -0.020757 0.000034 0.000000 -0.023348 0.000045 0.000000 -0.024181 0.000054 0.000000 -0.026631 0.000065 0.000000 -0.027327 0.000073 0.000000 -0.029642 0.000083 0.000000 -0.030207 0.000090 0.000000 -0.032394 0.000099 0.000000 -0.032836 0.000105 0.000000 -0.034903 0.000112 0.000000 -0.035229 0.000116 0.000000 -0.037184 0.000122 0.000000 -0.037402 0.000125 0.000000 -0.039253 0.000128 0.000000 -0.039371 0.000129 0.000000 -0.041125 0.000130 0.000000 -0.041152 0.000130 0.000000 -0.042817 0.000129 0.000000 -0.042759 0.000126 0.000000 -0.044342 0.000124 0.000000 -0.044206 0.000120 0.000000 -0.045715 0.000116 0.000000 -0.045509 0.000110 0.000000 -0.046949 0.000105 0.000000 -0.046678 0.000099 0.000000 -0.048056 0.000093 0.000000 -0.047725 0.000086 0.000000 -0.049046 0.000079 0.000000 -0.048661 0.000072 0.000000 -0.049929 0.000066 0.000000 -0.049494 0.000059 0.000000 -0.050714 0.000053 0.000000 -0.050233 0.000046 0.000000 -0.051408 0.000041 0.000000 -0.050884 0.000036 0.000000 -0.052018 0.000031 0.000000 -0.051453 0.000027 0.000000 -0.052548 0.000024 0.000000 -0.051947 0.000020 0.000000 -0.053005 0.000018 0.000000 -0.052368 0.000017 0.000000 -0.053392 0.000016 0.000000 -0.052722 0.000015 0.000000 -0.053713 0.000015 0.000000 -0.053010 0.000016 0.000000 -0.053970 0.000017 0.000000 -0.053237 0.000018 0.000000 -0.054166 0.000020 0.000000 -0.053403 0.000022 0.000000 -0.054302 0.000024 0.000000 -0.053510 0.000026 0.000000 -0.054380 0.000028 0.000000 -0.053560 0.000031 0.000000 -0.054402 0.000033 0.000000 -0.053553 0.000035 0.000000 -0.054367 0.000037 0.000000 -0.053491 0.000038 0.000000 -0.054277 0.000039 0.000000 -0.053374 0.000040 0.000000 -0.054132 0.000040 0.000000 -0.053201 0.000040 0.000000 -0.053932 0.000040 0.000000 -0.052974 0.000038 0.000000 -0.053678 0.000037 0.000000 -0.052692 0.000034 0.000000 -0.053368 0.000032 0.000000 -0.052355 0.000028 0.000000 -0.053003 0.000024 0.000000 -0.051963 0.000020 0.000000 -0.052584 0.000015 0.000000 -0.051515 0.000010 0.000000 -0.052108 0.000004 0.000000 -0.051013 -0.000002 0.000000 -0.051578 -0.000009 0.000000 -0.050455 -0.000016 0.000000 -0.050992 -0.000023 0.000000 -0.049842 -0.000030 0.000000 -0.050352 -0.000038 0.000000 -0.049174 -0.000045 0.000000 -0.049656 -0.000053 0.000000 -0.048451 -0.000061 0.000000 -0.048906 -0.000068 0.000000 -0.047674 -0.000075 0.000000 -0.048103 -0.000082 0.000000 -0.046845 -0.000089 0.000000 -0.047247 -0.000096 0.000000 -0.045963 -0.000102 0.000000 -0.046340 -0.000108 0.000000 -0.045030 -0.000113 0.000000 -0.045382 -0.000118 0.000000 -0.044048 -0.000123 0.000000 -0.044376 -0.000126 0.000000 -0.043019 -0.000130 0.000000 -0.043323 -0.000132 0.000000 -0.041944 -0.000135 0.000000 -0.042226 -0.000136 0.000000 -0.040826 -0.000137 0.000000 -0.041087 -0.000137 0.000000 -0.039667 -0.000136 0.000000 -0.039909 -0.000135 0.000000 -0.038470 -0.000134 0.000000 -0.038694 -0.000131 0.000000 -0.037238 -0.000129 0.000000 -0.037446 -0.000125 0.000000 -0.035974 -0.000121 0.000000 -0.036167 -0.000117 0.000000 -0.034682 -0.000112 0.000000 -0.034861 -0.000106 0.000000 -0.033363 -0.000100 0.000000 -0.033531 -0.000094 0.000000 -0.032023 -0.000088 0.000000 -0.032181 -0.000081 0.000000 -0.030665 -0.000074 0.000000 -0.030814 -0.000066 0.000000 -0.029291 -0.000059 0.000000 -0.029433 -0.000051 0.000000 -0.027906 -0.000044 0.000000 -0.028043 -0.000036 0.000000 -0.026513 -0.000028 0.000000 -0.026647 -0.000021 0.000000 -0.025115 -0.000013 0.000000 -0.025247 -0.000005 0.000000 -0.023716 0.000002 0.000000 -0.023849 0.000009 0.000000 -0.022319 0.000016 0.000000 -0.022453 0.000023 0.000000 -0.020927 0.000030 0.000000 -0.021065 0.000036 0.000000 -0.019544 0.000042 0.000000 -0.019686 0.000047 0.000000 -0.018172 0.000053 0.000000 -0.018319 0.000057 0.000000 -0.016814 0.000062 0.000000 -0.016968 0.000066 0.000000 -0.015472 0.000070 0.000000 -0.015634 0.000073 0.000000 -0.014149 0.000076 0.000000 -0.014320 0.000078 0.000000 -0.012846 0.000081 0.000000 -0.013027 0.000082 0.000000 -0.011567 0.000083 0.000000 -0.011758 0.000084 0.000000 -0.010312 0.000085 0.000000 -0.010515 0.000085 0.000000 -0.009083 0.000085 0.000000 -0.009298 0.000084 0.000000 -0.007882 0.000083 0.000000 -0.008109 0.000082 0.000000 -0.006709 0.000080 0.000000 -0.006949 0.000078 0.000000 -0.005567 0.000076 0.000000 -0.005820 0.000073 0.000000 -0.004455 0.000070 0.000000 -0.004721 0.000067 0.000000 -0.003374 0.000064 0.000000 -0.003653 0.000061 0.000000 -0.002326 0.000057 0.000000 -0.002618 0.000054 0.000000 -0.001309 0.000050 0.000000 -0.001614 0.000046 0.000000 -0.000326 0.000042 0.000000 -0.000643 0.000038 0.000000 0.000625 0.000034 0.000000 0.000296 0.000030 0.000000 0.001543 0.000026 0.000000 0.001202 0.000022 0.000000 0.002429 0.000018 0.000000 0.002077 0.000014 0.000000 0.003282 0.000010 0.000000 0.002919 0.000007 0.000000 0.004103 0.000003 0.000000 0.003730 -0.000000 0.000000 0.004892 -0.000004 0.000000 0.004511 -0.000007 0.000000 0.005650 -0.000010 0.000000 0.005261 -0.000013 0.000000 0.006377 -0.000015 0.000000 0.005981 -0.000018 0.000000 0.007073 -0.000020 0.000000 0.006672 -0.000022 0.000000 0.007741 -0.000024 0.000000 0.007334 -0.000026 0.000000 0.008379 -0.000027 0.000000 0.007970 -0.000028 0.000000 0.008988 -0.000029 0.000000 0.008578 -0.000030 0.000000 0.009571 -0.000031 0.000000 0.009161 -0.000031 0.000000 0.010126 -0.000032 0.000000 0.009719 -0.000032 0.000000 0.010656 -0.000032 0.000000 0.010253 -0.000031 0.000000 0.011161 -0.000031 0.000000 0.010765 -0.000031 0.000000 0.011642 -0.000030 0.000000 0.011255 -0.000029 0.000000 0.012101 -0.000028 0.000000 0.011724 -0.000027 0.000000 0.012539 -0.000026 0.000000 0.012173 -0.000025 0.000000 0.012959 -0.000024 0.000000 0.012600 -0.000022 0.000000 0.013362 -0.000021 0.000000 0.013006 -0.000020 0.000000 0.013753 -0.000018 0.000000 0.013390 -0.000017 0.000000 0.014135 -0.000015 0.000000 0.013750 -0.000014 0.000000 0.014508 -0.000012 0.000000 0.014085 -0.000011 0.000000 0.014875 -0.000009 0.000000 0.014393 -0.000008 0.000000 0.015231 -0.000006 0.000000 0.014675 -0.000005 0.000000 0.015570 -0.000004 0.000000 0.014932 -0.000003 0.000000 0.015877 -0.000001 0.000000 0.015168 -0.000000 0.000000 0.016136 0.000001 0.000000 0.015391 0.000002 0.000000 0.016324 0.000003 0.000000 0.015608 0.000004 0.000000 0.016419 0.000005 0.000000 0.015827 0.000006 0.000000 0.016397 0.000007 0.000000 0.016036 0.000007 0.000000 0.016217 0.000008 0.000000 0.016179 0.000008 0.000000 0.015795 0.000009 0.000000 0.016103 0.000009 0.000000 0.014941 0.000010 0.000000 0.015476 0.000010 0.000000 0.013275 0.000011 0.000000 0.013694 0.000011 0.000000 0.010108 0.000012 0.000000 0.009773 0.000012 0.000000 0.004329 0.000013 0.000000 0.002265 0.000013 0.000000 -0.005678 0.000014 0.000000 -0.010712 0.000014 0.000000 -0.021941 0.000016 0.000000 -0.031198 0.000017 0.000000 -0.046451 0.000019 0.000000 -0.060658 0.000021 0.000000 -0.080176 0.000025 0.000000 -0.098841 0.000029 0.000000 -0.121833 0.000034 0.000000 -0.143026 0.000039 0.000000 -0.167693 0.000046 0.000000 -0.189050 0.000053 0.000000 -0.213508 0.000060 0.000000 -0.233168 0.000067 0.000000 -0.256086 0.000074 0.000000 -0.272962 0.000080 0.000000 -0.293654 0.000086 0.000000 -0.307291 0.000090 0.000000 -0.325551 0.000095 0.000000 -0.335885 0.000097 0.000000 -0.351795 0.000099 0.000000 -0.358959 0.000098 0.000000 -0.372741 0.000098 0.000000 -0.376948 0.000094 0.000000 -0.388883 0.000092 0.000000 -0.390362 0.000086 0.000000 -0.400735 0.000081 0.000000 -0.399699 0.000073 0.000000 -0.408782 0.000066 0.000000 -0.405414 0.000056 0.000000 -0.413451 0.000048 0.000000 
-0.403678 0.000859 0.000000 -0.410899 -0.000191 0.000000 -0.403156 -0.000541 0.000000 -0.409753 -0.001563 0.000000 -0.399983 -0.001859 0.000000 -0.406068 -0.002884 0.000000 -0.394261 -0.003163 0.000000 -0.399869 -0.004228 0.000000 -0.385936 -0.004539 0.000000 -0.391010 -0.005694 0.000000 -0.374763 -0.006098 0.000000 -0.379119 -0.007399 0.000000 -0.360256 -0.007966 0.000000 -0.363573 -0.009462 0.000000 -0.341688 -0.010246 0.000000 -0.343532 -0.011946 0.000000 -0.318191 -0.012941 0.000000 -0.318132 -0.014756 0.000000 -0.289065 -0.015828 0.000000 -0.286935 -0.017515 0.000000 -0.254357 -0.018356 0.000000 -0.250621 -0.019547 0.000000 -0.215520 -0.019765 0.000000 -0.211476 -0.020194 0.000000 -0.175418 -0.019581 0.000000 -0.172800 -0.019396 0.000000 -0.136984 -0.018051 0.000000 -0.137211 -0.017566 0.000000 -0.102035 -0.015454 0.000000 -0.106629 -0.014450 0.000000 -0.073126 -0.011729 0.000000 -0.083355 -0.010350 0.000000 -0.052265 -0.007573 0.000000 -0.068242 -0.006138 0.000000 -0.039610 -0.003777 0.000000 -0.060490 -0.002409 0.000000 -0.034110 -0.000668 0.000000 -0.058662 0.000669 0.000000 -0.034417 0.001745 0.000000 -0.061331 0.003087 0.000000 -0.039185 0.003507 0.000000 -0.067155 0.004831 0.000000 -0.047039 0.004632 0.000000 -0.074809 0.005898 0.000000 -0.056610 0.005150 0.000000 -0.083031 0.006349 0.000000 -0.066691 0.005119 0.000000 -0.090722 0.006257 0.000000 -0.076300 0.004569 0.000000 -0.096915 0.005632 0.000000 -0.084537 0.003505 0.000000 -0.100708 0.004522 0.000000 -0.090600 0.002169 0.000000 -0.101724 0.003374 0.000000 -0.094586 0.001307 0.000000 -0.101179 0.003064 0.000000 -0.098394 0.001680 0.000000 -0.101871 0.004043 0.000000 -0.104770 0.003222 0.000000 -0.106317 0.005882 0.000000 -0.115435 0.005187 0.000000 -0.115349 0.007758 0.000000 -0.130358 0.006808 0.000000 -0.128175 0.009023 0.000000 -0.148214 0.007653 0.000000 -0.143154 0.009368 0.000000 -0.167115 0.007594 0.000000 -0.158430 0.008691 0.000000 -0.185028 0.006597 0.000000 -0.172123 0.006898 0.000000 -0.199776 0.004549 0.000000 -0.182152 0.003794 0.000000 -0.208791 0.001232 0.000000 -0.185982 -0.000819 0.000000 -0.209052 -0.003468 0.000000 -0.180780 -0.006758 0.000000 -0.197778 -0.009071 0.000000 -0.164566 -0.012877 0.000000 -0.174361 -0.013952 0.000000 -0.138609 -0.016807 0.000000 -0.143049 -0.015588 0.000000 -0.109528 -0.016209 0.000000 -0.113200 -0.012762 0.000000 -0.086730 -0.011719 0.000000 -0.092922 -0.007957 0.000000 -0.074101 -0.007212 0.000000 -0.081703 -0.004656 0.000000 -0.067944 -0.004866 0.000000 -0.074658 -0.003579 0.000000 -0.063423 -0.004304 0.000000 -0.068092 -0.003741 0.000000 -0.058047 -0.004442 0.000000 -0.060720 -0.004163 0.000000 -0.051407 -0.004598 0.000000 -0.052650 -0.004412 0.000000 -0.043957 -0.004576 0.000000 -0.044347 -0.004437 0.000000 -0.036215 -0.004417 0.000000 -0.036155 -0.004331 0.000000 -0.028495 -0.004216 0.000000 -0.028208 -0.004193 0.000000 -0.020903 -0.004048 0.000000 -0.020484 -0.004089 0.000000 -0.013405 -0.003951 0.000000 -0.012872 -0.004055 0.000000 -0.005895 -0.003944 0.000000 -0.005220 -0.004103 0.000000 0.001769 -0.004027 0.000000 0.002632 -0.004234 0.000000 0.009730 -0.004196 0.000000 0.010841 -0.004440 0.000000 0.018126 -0.004441 0.000000 0.019547 -0.004711 0.000000 0.027076 -0.004749 0.000000 0.028868 -0.005034 0.000000 0.036678 -0.005108 0.000000 0.038897 -0.005397 0.000000 0.047007 -0.005501 0.000000 0.049701 -0.005783 0.000000 0.058112 -0.005913 0.000000 0.061315 -0.006179 0.000000 0.070012 -0.006326 0.000000 0.073743 -0.006567 0.000000 0.082698 -0.006721 0.000000 0.086951 -0.006929 0.000000 0.096125 -0.007078 0.000000 0.100865 -0.007246 0.000000 0.110208 -0.007375 0.000000 0.115371 -0.007497 0.000000 0.124827 -0.007591 0.000000 0.130310 -0.007662 0.000000 0.139818 -0.007706 0.000000 0.145487 -0.007723 0.000000 0.154983 -0.007703 0.000000 0.160670 -0.007665 0.000000 0.170091 -0.007568 0.000000 0.175605 -0.007476 0.000000 0.184887 -0.007297 0.000000 0.190022 -0.007150 0.000000 0.199101 -0.006889 0.000000 0.203653 -0.006688 0.000000 0.212462 -0.006352 0.000000 0.216241 -0.006096 0.000000 0.224704 -0.005700 0.000000 0.227555 -0.005386 0.000000 0.235589 -0.004952 0.000000 0.237404 -0.004579 0.000000 0.244910 -0.004133 0.000000 0.245642 -0.003701 0.000000 0.252515 -0.003271 0.000000 0.252181 -0.002781 0.000000 0.258312 -0.002396 0.000000 0.256988 -0.001855 0.000000 0.262277 -0.001533 0.000000 0.260088 -0.000953 0.000000 0.264452 -0.000707 0.000000 0.261551 -0.000104 0.000000 0.264937 0.000065 0.000000 0.261486 0.000672 0.000000 0.263877 0.000770 0.000000 0.260027 0.001362 0.000000 0.261441 0.001401 0.000000 0.257322 0.001961 0.000000 0.257811 0.001957 0.000000 0.253521 0.002470 0.000000 0.253166 0.002438 0.000000 0.248772 0.002896 0.000000 0.247674 0.002849 0.000000 0.243215 0.003246 0.000000 0.241484 0.003195 0.000000 0.236980 0.003529 0.000000 0.234729 0.003480 0.000000 0.230185 0.003755 0.000000 0.227520 0.003711 0.000000 0.222934 0.003932 0.000000 0.219953 0.003895 0.000000 0.215319 0.004069 0.000000 0.212106 0.004037 0.000000 0.207417 0.004171 0.000000 0.204044 0.004144 0.000000 0.199297 0.004244 0.000000 0.195821 0.004221 0.000000 0.191014 0.004294 0.000000 0.187478 0.004273 0.000000 0.182612 0.004325 0.000000 0.179051 0.004305 0.000000 0.174130 0.004339 0.000000 0.170568 0.004319 0.000000 0.165598 0.004340 0.000000 0.162053 0.004319 0.000000 0.157041 0.004330 0.000000 0.153525 0.004307 0.000000 0.148479 0.004311 0.000000 0.145000 0.004285 0.000000 0.139929 0.004283 0.000000 0.136494 0.004255 0.000000 0.131409 0.004248 0.000000 0.128020 0.004218 0.000000 0.122931 0.004207 0.000000 0.119592 0.004174 0.000000 0.114509 0.004159 0.000000 0.111224 0.004123 0.000000 0.106158 0.004105 0.000000 0.102929 0.004067 0.000000 0.097891 0.004046 0.000000 0.094724 0.004004 0.000000 0.089724 0.003980 0.000000 0.086623 0.003936 0.000000 0.081673 0.003908 0.000000 0.078644 0.003860 0.000000 0.073754 0.003829 0.000000 0.070804 0.003778 0.000000 0.065986 0.003743 0.000000 0.063121 0.003690 0.000000 0.058385 0.003650 0.000000 0.055614 0.003594 0.000000 0.050972 0.003551 0.000000 0.048301 0.003491 0.000000 0.043763 0.003444 0.000000 0.041202 0.003381 0.000000 0.036777 0.003330 0.000000 0.034334 0.003264 0.000000 0.030032 0.003210 0.000000 0.027715 0.003142 0.000000 0.023543 0.003084 0.000000 0.021359 0.003014 0.000000 0.017325 0.002953 0.000000 0.015280 0.002882 0.000000 0.011390 0.002819 0.000000 0.009490 0.002746 0.000000 0.005750 0.002681 0.000000 0.003999 0.002608 0.000000 0.000411 0.002543 0.000000 -0.001189 0.002470 0.000000 -0.004622 0.002404 0.000000 -0.006068 0.002332 0.000000 -0.009346 0.002266 0.000000 -0.010638 0.002195 0.000000 -0.013762 0.002131 0.000000 -0.014902 0.002062 0.000000 -0.017873 0.001999 0.000000 -0.018863 0.001932 0.000000 -0.021685 0.001871 0.000000 -0.022530 0.001807 0.000000 -0.025207 0.001748 0.000000 -0.025911 0.001687 0.000000 -0.028449 0.001630 0.000000 -0.029018 0.001572 0.000000 -0.031423 0.001518 0.000000 -0.031865 0.001462 0.000000 -0.034144 0.001410 0.000000 -0.034464 0.001357 0.000000 -0.036625 0.001308 0.000000 -0.036831 0.001257 0.000000 -0.038881 0.001210 0.000000 -0.038982 0.001162 0.000000 -0.040929 0.001116 0.000000 -0.040932 0.001070 0.000000 -0.042784 0.001026 0.000000 -0.042695 0.000982 0.000000 -0.044460 0.000939 0.000000 -0.044288 0.000897 0.000000 -0.045972 0.000856 0.000000 -0.045723 0.000815 0.000000 -0.047334 0.000776 0.000000 -0.047015 0.000736 0.000000 -0.048558 0.000699 0.000000 -0.048174 0.000661 0.000000 -0.049655 0.000625 0.000000 -0.049213 0.000590 0.000000 -0.050638 0.000556 0.000000 -0.050142 0.000522 0.000000 -0.051514 0.000490 0.000000 -0.050968 0.000458 0.000000 -0.052292 0.000429 0.000000 -0.051701 0.000399 0.000000 -0.052981 0.000372 0.000000 -0.052348 0.000345 0.000000 -0.053586 0.000320 0.000000 -0.052913 0.000296 0.000000 -0.054114 0.000273 0.000000 -0.053404 0.000251 0.000000 -0.054568 0.000231 0.000000 -0.053824 0.000211 0.000000 -0.054954 0.000193 0.000000 -0.054177 0.000175 0.000000 -0.055275 0.000159 0.000000 -0.054467 0.000143 0.000000 -0.055534 0.000128 0.000000 -0.054695 0.000114 0.000000 -0.055732 0.000101 0.000000 -0.054865 0.000087 0.000000 -0.055873 0.000075 0.000000 -0.054977 0.000063 0.000000 -0.055957 0.000051 0.000000 -0.055034 0.000039 0.000000 -0.055986 0.000027 0.000000 -0.055035 0.000015 0.000000 -0.055960 0.000003 0.000000 -0.054982 -0.000009 0.000000 -0.055880 -0.000021 0.000000 -0.054876 -0.000034 0.000000 -0.055747 -0.000047 0.000000 -0.054716 -0.000060 0.000000 -0.055560 -0.000074 0.000000 -0.054502 -0.000089 0.000000 -0.055319 -0.000103 0.000000 -0.054234 -0.000119 0.000000 -0.055025 -0.000135 0.000000 -0.053913 -0.000152 0.000000 -0.054676 -0.000169 0.000000 -0.053537 -0.000187 0.000000 -0.054273 -0.000205 0.000000 -0.053108 -0.000224 0.000000 -0.053816 -0.000243 0.000000 -0.052623 -0.000263 0.000000 -0.053305 -0.000283 0.000000 -0.052085 -0.000304 0.000000 -0.052739 -0.000324 0.000000 -0.051491 -0.000345 0.000000 -0.052118 -0.000366 0.000000 -0.050844 -0.000388 0.000000 -0.051444 -0.000409 0.000000 -0.050143 -0.000430 0.000000 -0.050716 -0.000451 0.000000 -0.049388 -0.000472 0.000000 -0.049934 -0.000492 0.000000 -0.048580 -0.000512 0.000000 -0.049101 -0.000532 0.000000 -0.047722 -0.000552 0.000000 -0.048217 -0.000570 0.000000 -0.046812 -0.000589 0.000000 -0.047283 -0.000606 0.000000 -0.045854 -0.000623 0.000000 -0.046301 -0.000639 0.000000 -0.044849 -0.000654 0.000000 -0.045272 -0.000669 0.000000 -0.043799 -0.000682 0.000000 -0.044200 -0.000695 0.000000 -0.042706 -0.000707 0.000000 -0.043087 -0.000717 0.000000 -0.041573 -0.000727 0.000000 -0.041934 -0.000736 0.000000 -0.040402 -0.000744 0.000000 -0.040746 -0.000750 0.000000 -0.039196 -0.000756 0.000000 -0.039524 -0.000761 0.000000 -0.037959 -0.000765 0.000000 -0.038271 -0.000768 0.000000 -0.036693 -0.000770 0.000000 -0.036992 -0.000771 0.000000 -0.035402 -0.000771 0.000000 -0.035690 -0.000771 0.000000 -0.034090 -0.000769 0.000000 -0.034367 -0.000767 0.000000 -0.032758 -0.000764 0.000000 -0.033028 -0.000760 0.000000 -0.031412 -0.000756 0.000000 -0.031675 -0.000751 0.000000 -0.030055 -0.000746 0.000000 -0.030313 -0.000740 0.000000 -0.028689 -0.000734 0.000000 -0.028944 -0.000727 0.000000 -0.027319 -0.000720 0.000000 -0.027572 -0.000712 0.000000 -0.025947 -0.000704 0.000000 -0.026200 -0.000696 0.000000 -0.024578 -0.000688 0.000000 -0.024832 -0.000679 0.000000 -0.023213 -0.000671 0.000000 -0.023470 -0.000662 0.000000 -0.021856 -0.000653 0.000000 -0.022118 -0.000644 0.000000 -0.020510 -0.000635 0.000000 -0.020777 -0.000626 0.000000 -0.019177 -0.000618 0.000000 -0.019451 -0.000608 0.000000 -0.017860 -0.000600 0.000000 -0.018141 -0.000591 0.000000 -0.016561 -0.000583 0.000000 -0.016851 -0.000575 0.000000 -0.015283 -0.000567 0.000000 -0.015582 -0.000559 0.000000 -0.014026 -0.000552 0.000000 -0.014335 -0.000543 0.000000 -0.012793 -0.000537 0.000000 -0.013114 -0.000529 0.000000 -0.011586 -0.000523 0.000000 -0.011918 -0.000515 0.000000 -0.010405 -0.000510 0.000000 -0.010749 -0.000503 0.000000 -0.009253 -0.000498 0.000000 -0.009609 -0.000491 0.000000 -0.008129 -0.000486 0.000000 -0.008497 -0.000480 0.000000 -0.007035 -0.000476 0.000000 -0.007416 -0.000469 0.000000 -0.005972 -0.000466 0.000000 -0.006365 -0.000459 0.000000 -0.004940 -0.000456 0.000000 -0.005346 -0.000450 0.000000 -0.003939 -0.000448 0.000000 -0.004357 -0.000441 0.000000 -0.002970 -0.000439 0.000000 -0.003401 -0.000433 0.000000 -0.002033 -0.000431 0.000000 -0.002475 -0.000425 0.000000 -0.001128 -0.000423 0.000000 -0.001581 -0.000417 0.000000 -0.000255 -0.000415 0.000000 -0.000719 -0.000408 0.000000 0.000587 -0.000407 0.000000 0.000112 -0.000400 0.000000 0.001396 -0.000399 0.000000 0.000913 -0.000391 0.000000 0.002175 -0.000390 0.000000 0.001683 -0.000383 0.000000 0.002923 -0.000382 0.000000 0.002424 -0.000373 0.000000 0.003641 -0.000373 0.000000 0.003135 -0.000364 0.000000 0.004329 -0.000363 0.000000 0.003818 -0.000354 0.000000 0.004988 -0.000354 0.000000 0.004473 -0.000343 0.000000 0.005618 -0.000343 0.000000 0.005100 -0.000332 0.000000 0.006221 -0.000333 0.000000 0.005702 -0.000321 0.000000 0.006796 -0.000322 0.000000 0.006278 -0.000309 0.000000 0.007345 -0.000311 0.000000 0.006830 -0.000297 0.000000 0.007868 -0.000299 0.000000 0.007358 -0.000284 0.000000 0.008367 -0.000288 0.000000 0.007864 -0.000272 0.000000 0.008842 -0.000276 0.000000 0.008348 -0.000260 0.000000 0.009295 -0.000264 0.000000 0.008811 -0.000248 0.000000 0.009727 -0.000252 0.000000 0.009254 -0.000236 0.000000 0.010140 -0.000239 0.000000 0.009676 -0.000226 0.000000 0.010538 -0.000226 0.000000 0.010076 -0.000217 0.000000 0.010922 -0.000212 0.000000 0.010455 -0.000209 0.000000 0.011297 -0.000197 0.000000 0.010809 -0.000202 0.000000 0.011664 -0.000181 0.000000 0.011138 -0.000196 0.000000 0.012024 -0.000165 0.000000 0.011441 -0.000188 0.000000 0.012373 -0.000149 0.000000 0.011718 -0.000176 0.000000 0.012704 -0.000134 0.000000 0.011970 -0.000158 0.000000 0.013004 -0.000121 0.000000 0.012201 -0.000131 0.000000 0.013255 -0.000111 0.000000 0.012419 -0.000093 0.000000 0.013436 -0.000107 0.000000 0.012631 -0.000045 0.000000 0.013525 -0.000105 0.000000 0.012845 0.000016 0.000000 0.013498 -0.000099 0.000000 0.013052 0.000096 0.000000 0.013319 -0.000064 0.000000 0.013200 0.000219 0.000000 0.012910 0.000047 0.000000 0.013145 0.000436 0.000000 0.012094 0.000323 0.000000 0.012571 0.000843 0.000000 0.010509 0.000901 0.000000 0.010899 0.001594 0.000000 0.007493 0.001972 0.000000 0.007173 0.002902 0.000000 0.001965 0.003767 0.000000 -0.000021 0.005016 0.000000 -0.007659 0.006502 0.000000 -0.012547 0.008146 0.000000 -0.023413 0.010259 0.000000 -0.032476 0.012272 0.000000 -0.047355 0.014749 0.000000 -0.061377 0.016884 0.000000 -0.080577 0.019116 0.000000 -0.099113 0.020857 0.000000 -0.121869 0.022127 0.000000 -0.142948 0.022969 0.000000 -0.167393 0.023058 0.000000 -0.188600 0.022960 0.000000 -0.212804 0.022119 0.000000 -0.232266 0.021356 0.000000 -0.254898 0.019972 0.000000 -0.271547 0.018864 0.000000 -0.291942 0.017251 0.000000 -0.305348 0.016039 0.000000 -0.323325 0.014392 0.000000 -0.333438 0.013219 0.000000 -0.349095 0.011636 0.000000 -0.356057 0.010572 0.000000 -0.369627 0.009093 0.000000 -0.373655 0.008166 0.000000 -0.385421 0.006799 0.000000 -0.386742 0.006012 0.000000 -0.396993 0.004750 0.000000 -0.395818 0.004097 0.000000 -0.404827 0.002924 0.000000 -0.401335 0.002390 0.000000 -0.409346 0.001290 0.000000 