# vtk DataFile Version 2.0
Comment goes here
ASCII

DATASET STRUCTURED_POINTS
FIELD FieldData 1
TIME 1 1 double
0.50000000
DIMENSIONS    512   128   1

ORIGIN    0.000   0.000   0.000
SPACING   0.0019531 0.0019531   1.000

POINT_DATA   65536
SCALARS uMag double
LOOKUP_TABLE default

4.718864e-01 4.827976e-01 4.775948e-01 4.877698e-01 4.803238e-01 4.897570e-01 4.799185e-01 4.884793e-01 4.759602e-01 4.833500e-01 4.676873e-01 4.734019e-01 4.539411e-01 4.572669e-01 4.332077e-01 4.333087e-01 4.038830e-01 4.000576e-01 3.649140e-01 3.570786e-01 3.168505e-01 3.061199e-01 2.628369e-01 2.516868e-01 2.083037e-01 1.996647e-01 1.584688e-01 1.543682e-01 1.161249e-01 1.179381e-01 8.334467e-02 9.189517e-02 6.131593e-02 7.633012e-02 4.955542e-02 6.982074e-02 4.641096e-02 7.027355e-02 4.984677e-02 7.553598e-02 5.777113e-02 8.353409e-02 6.807962e-02 9.226976e-02 7.874309e-02 9.991522e-02 8.799817e-02 1.049763e-01 9.449544e-02 1.064112e-01 9.735554e-02 1.038093e-01 9.645675e-02 9.801163e-02 9.328713e-02 9.190888e-02 9.136718e-02 8.965182e-02 9.450174e-02 9.411457e-02 1.045285e-01 1.055426e-01 1.208647e-01 1.221263e-01 1.414063e-01 1.412174e-01 1.634994e-01 1.601321e-01 1.843623e-01 1.762505e-01 2.009493e-01 1.866400e-01 2.095971e-01 1.877358e-01 2.060938e-01 1.758482e-01 1.870255e-01 1.492965e-01 1.529389e-01 1.120316e-01 1.118901e-01 7.552489e-02 7.808339e-02 5.284541e-02 6.140918e-02 4.704653e-02 5.889325e-02 5.081556e-02 6.183461e-02 5.586562e-02 6.379001e-02 5.782970e-02 6.238606e-02 5.590828e-02 5.782493e-02 5.098249e-02 5.117014e-02 4.423114e-02 4.341148e-02 3.654563e-02 3.517904e-02 2.843084e-02 2.676619e-02 2.009055e-02 1.823702e-02 1.154043e-02 9.524269e-03 2.697985e-03 5.008002e-04 6.582290e-03 9.005004e-03 1.642238e-02 1.913215e-02 2.696589e-02 3.002673e-02 3.832650e-02 4.180367e-02 5.059211e-02 5.454596e-02 6.381951e-02 6.829922e-02 7.803033e-02 8.306693e-02 9.320706e-02 9.880599e-02 1.092892e-01 1.154229e-01 1.261700e-01 1.327717e-01 1.436953e-01 1.506545e-01 1.616651e-01 1.688256e-01 1.798376e-01 1.870007e-01 1.979376e-01 2.048685e-01 2.156655e-01 2.221059e-01 2.327079e-01 2.383934e-01 2.487479e-01 2.534306e-01 2.634761e-01 2.669494e-01 2.766032e-01 2.787270e-01 2.878771e-01 2.885967e-01 2.971011e-01 2.964574e-01 3.041534e-01 3.022774e-01 3.089996e-01 3.060922e-01 3.116949e-01 3.079953e-01 3.123729e-01 3.081230e-01 3.112241e-01 3.066382e-01 3.084714e-01 3.037156e-01 3.043453e-01 2.995314e-01 2.990668e-01 2.942561e-01 2.928365e-01 2.880512e-01 2.858297e-01 2.810662e-01 2.781966e-01 2.734374e-01 2.700633e-01 2.652864e-01 2.615350e-01 2.567194e-01 2.526985e-01 2.478274e-01 2.436248e-01 2.386870e-01 2.343717e-01 2.293607e-01 2.249856e-01 2.198996e-01 2.155035e-01 2.103443e-01 2.059550e-01 2.007268e-01 1.963635e-01 1.910726e-01 1.867475e-01 1.814016e-01 1.771225e-01 1.717300e-01 1.675011e-01 1.620712e-01 1.578947e-01 1.524368e-01 1.483138e-01 1.428377e-01 1.387688e-01 1.332844e-01 1.292705e-01 1.237882e-01 1.198307e-01 1.143609e-01 1.104622e-01 1.050155e-01 1.011790e-01 9.576658e-02 9.199688e-02 8.662987e-02 8.293275e-02 7.762265e-02 7.400495e-02 6.876344e-02 6.523294e-02 6.007177e-02 5.663704e-02 5.156792e-02 4.823803e-02 4.327250e-02 4.005681e-02 3.520605e-02 3.211395e-02 2.738866e-02 2.442935e-02 1.983969e-02 1.702206e-02 1.257816e-02 9.911615e-03 5.629483e-03 3.140861e-03 1.219152e-03 3.465130e-03 7.411839e-03 9.595282e-03 1.339865e-02 1.541776e-02 1.905528e-02 2.090546e-02 2.437392e-02 2.605416e-02 2.935318e-02 3.086402e-02 3.399471e-02 3.533787e-02 3.830244e-02 3.948064e-02 4.228224e-02 4.329905e-02 4.594163e-02 4.680134e-02 4.928955e-02 4.999712e-02 5.233620e-02 5.289718e-02 5.509293e-02 5.551341e-02 5.757214e-02 5.785870e-02 5.978721e-02 5.994690e-02 6.175243e-02 6.179277e-02 6.348302e-02 6.341191e-02 6.499496e-02 6.482072e-02 6.630502e-02 6.603627e-02 6.743056e-02 6.707618e-02 6.838943e-02 6.795846e-02 6.919976e-02 6.870130e-02 6.987974e-02 6.932284e-02 7.044738e-02 6.984086e-02 7.092019e-02 7.027256e-02 7.131493e-02 7.063418e-02 7.164730e-02 7.094078e-02 7.193163e-02 7.120596e-02 7.218072e-02 7.144162e-02 7.240555e-02 7.165784e-02 7.261524e-02 7.186273e-02 7.281690e-02 7.206241e-02 7.301563e-02 7.226100e-02 7.321461e-02 7.246072e-02 7.341514e-02 7.266200e-02 7.361682e-02 7.286365e-02 7.381770e-02 7.306302e-02 7.401452e-02 7.325628e-02 7.420293e-02 7.343860e-02 7.437767e-02 7.360441e-02 7.453291e-02 7.374762e-02 7.466239e-02 7.386187e-02 7.475968e-02 7.394074e-02 7.481842e-02 7.397794e-02 7.483247e-02 7.396754e-02 7.479607e-02 7.390403e-02 7.470404e-02 7.378254e-02 7.455185e-02 7.359892e-02 7.433571e-02 7.334976e-02 7.405262e-02 7.303250e-02 7.370044e-02 7.264540e-02 7.327784e-02 7.218753e-02 7.278431e-02 7.165878e-02 7.222008e-02 7.105975e-02 7.158612e-02 7.039173e-02 7.088404e-02 6.965662e-02 7.011597e-02 6.885681e-02 6.928458e-02 6.799517e-02 6.839290e-02 6.707492e-02 6.744429e-02 6.609954e-02 6.644237e-02 6.507277e-02 6.539094e-02 6.399846e-02 6.429390e-02 6.288056e-02 6.315523e-02 6.172306e-02 6.197890e-02 6.052994e-02 6.076887e-02 5.930513e-02 5.952901e-02 5.805246e-02 5.826313e-02 5.677568e-02 5.697487e-02 5.547837e-02 5.566776e-02 5.416400e-02 5.434515e-02 5.283584e-02 5.301023e-02 5.149700e-02 5.166602e-02 5.015041e-02 5.031534e-02 4.879881e-02 4.896083e-02 4.744478e-02 4.760496e-02 4.609069e-02 4.625002e-02 4.473876e-02 4.489811e-02 4.339104e-02 4.355119e-02 4.204942e-02 4.221105e-02 4.071562e-02 4.087934e-02 3.939124e-02 3.955756e-02 3.807775e-02 3.824708e-02 3.677648e-02 3.694915e-02 3.548865e-02 3.566492e-02 3.421538e-02 3.439541e-02 3.295768e-02 3.314156e-02 3.171648e-02 3.190420e-02 3.049261e-02 3.068409e-02 2.928684e-02 2.948190e-02 2.809986e-02 2.829824e-02 2.693229e-02 2.713364e-02 2.578471e-02 2.598858e-02 2.465762e-02 2.486348e-02 2.355149e-02 2.375868e-02 2.246675e-02 2.267449e-02 2.140380e-02 2.161114e-02 2.036300e-02 2.056883e-02 1.934469e-02 1.954767e-02 1.834915e-02 1.854777e-02 1.737658e-02 1.756922e-02 1.642702e-02 1.661222e-02 1.550029e-02 1.567710e-02 1.459586e-02 1.476447e-02 1.371280e-02 1.387534e-02 1.284978e-02 1.301118e-02 1.200514e-02 1.217392e-02 1.117727e-02 1.136586e-02 1.036520e-02 1.058943e-02 9.569544e-03 9.846799e-03 8.793658e-03 9.139403e-03 8.044867e-03 8.467313e-03 7.335174e-03 7.828384e-03 6.680901e-03 7.217242e-03 6.100779e-03 6.624627e-03 5.612962e-03 6.038771e-03 5.233184e-03 5.452251e-03 4.978711e-03 4.879490e-03 4.884743e-03 4.390508e-03 5.040086e-03 4.164434e-03 5.646272e-03 4.561482e-03 7.099481e-03 6.206508e-03 1.008929e-02 1.007210e-02 1.570072e-02 1.753901e-02 2.548318e-02 3.037758e-02 4.138721e-02 5.051768e-02 6.537329e-02 7.941393e-02 9.850479e-02 1.170033e-01 1.397723e-01 1.609501e-01 1.858060e-01 2.074513e-01 2.326292e-01 2.529715e-01 2.771701e-01 2.951482e-01 3.176527e-01 3.327873e-01 3.533329e-01 3.655067e-01 3.841024e-01 3.933845e-01 4.101811e-01 4.167177e-01 4.319255e-01 4.358808e-01 4.497247e-01 4.512500e-01 4.639438e-01 4.631622e-01 4.748925e-01 
4.676776e-01 4.785857e-01 4.732460e-01 4.834713e-01 4.758868e-01 4.854313e-01 4.754532e-01 4.841988e-01 4.715426e-01 4.792096e-01 4.634198e-01 4.695286e-01 4.499603e-01 4.538249e-01 4.296837e-01 4.304882e-01 4.009961e-01 3.980342e-01 3.627991e-01 3.559400e-01 3.155212e-01 3.058058e-01 2.621722e-01 2.520553e-01 2.081840e-01 2.006748e-01 1.588551e-01 1.559701e-01 1.167209e-01 1.197645e-01 8.370361e-02 9.359566e-02 6.110336e-02 7.773604e-02 4.862086e-02 7.086723e-02 4.468451e-02 7.083703e-02 4.713111e-02 7.534616e-02 5.368021e-02 8.219076e-02 6.213985e-02 8.929522e-02 7.048922e-02 9.480422e-02 7.703730e-02 9.724810e-02 8.056740e-02 9.566539e-02 8.037078e-02 8.976292e-02 7.646989e-02 8.052604e-02 7.046612e-02 7.110374e-02 6.611687e-02 6.606758e-02 6.756288e-02 6.859641e-02 7.667682e-02 7.881799e-02 9.257301e-02 9.463178e-02 1.129289e-01 1.132648e-01 1.350819e-01 1.320607e-01 1.563499e-01 1.484879e-01 1.738250e-01 1.597275e-01 1.839897e-01 1.623405e-01 1.827378e-01 1.527257e-01 1.666056e-01 1.291012e-01 1.357423e-01 9.486958e-02 9.741361e-02 6.051786e-02 6.549921e-02 3.914115e-02 5.133430e-02 3.588600e-02 5.214891e-02 4.276918e-02 5.778255e-02 5.022751e-02 6.160279e-02 5.400723e-02 6.156311e-02 5.353776e-02 5.806357e-02 4.980710e-02 5.225528e-02 4.404613e-02 4.517733e-02 3.718637e-02 3.750147e-02 2.977679e-02 2.956652e-02 2.208257e-02 2.150054e-02 1.425094e-02 1.338851e-02 6.853341e-03 6.029010e-03 6.196503e-03 7.314769e-03 1.434713e-02 1.619426e-02 2.426655e-02 2.658524e-02 3.519131e-02 3.799580e-02 4.707499e-02 5.040435e-02 5.993290e-02 6.382328e-02 7.376906e-02 7.824259e-02 8.855773e-02 9.361383e-02 1.042352e-01 1.098428e-01 1.206952e-01 1.267860e-01 1.377863e-01 1.442504e-01 1.553136e-01 1.619973e-01 1.730424e-01 1.797505e-01 1.907057e-01 1.972079e-01 2.080134e-01 2.140561e-01 2.246620e-01 2.299853e-01 2.403443e-01 2.447038e-01 2.547599e-01 2.579511e-01 2.676273e-01 2.695102e-01 2.786996e-01 2.792182e-01 2.877832e-01 2.869750e-01 2.947563e-01 2.927479e-01 2.995826e-01 2.965696e-01 3.023127e-01 2.985288e-01 3.030742e-01 2.987561e-01 3.020509e-01 2.974079e-01 2.994578e-01 2.946523e-01 2.955182e-01 2.906592e-01 2.904463e-01 2.855933e-01 2.844365e-01 2.796106e-01 2.776594e-01 2.728566e-01 2.702609e-01 2.654636e-01 2.623644e-01 2.575505e-01 2.540728e-01 2.492213e-01 2.454712e-01 2.405655e-01 2.366296e-01 2.316581e-01 2.276050e-01 2.225613e-01 2.184433e-01 2.133256e-01 2.091816e-01 2.039913e-01 1.998493e-01 1.945905e-01 1.904698e-01 1.851488e-01 1.810621e-01 1.756864e-01 1.716416e-01 1.662195e-01 1.622213e-01 1.567618e-01 1.528127e-01 1.473252e-01 1.434265e-01 1.379207e-01 1.340732e-01 1.285590e-01 1.247638e-01 1.192513e-01 1.155099e-01 1.100095e-01 1.063243e-01 1.008465e-01 9.722101e-02 9.177669e-02 8.821551e-02 8.281582e-02 7.932466e-02 7.398100e-02 7.056666e-02 6.529068e-02 6.196093e-02 5.676450e-02 5.352795e-02 4.842312e-02 4.528906e-02 4.028818e-02 3.726649e-02 3.238253e-02 2.948388e-02 2.473168e-02 2.196854e-02 1.736961e-02 1.476125e-02 1.036865e-02 7.976232e-03 4.154860e-03 2.797794e-03 4.338604e-03 6.190670e-03 9.997407e-03 1.195508e-02 1.576455e-02 1.759741e-02 2.127833e-02 2.295726e-02 2.648479e-02 2.800199e-02 3.136873e-02 3.272206e-02 3.592615e-02 3.711601e-02 4.015818e-02 4.118655e-02 4.406915e-02 4.493916e-02 4.766570e-02 4.838145e-02 5.095635e-02 5.152271e-02 5.395115e-02 5.437368e-02 5.666149e-02 5.694635e-02 5.909994e-02 5.925383e-02 6.128010e-02 6.131018e-02 6.321651e-02 6.313037e-02 6.492450e-02 6.473009e-02 6.642011e-02 6.612569e-02 6.771998e-02 6.733403e-02 6.884114e-02 6.837231e-02 6.980094e-02 6.925794e-02 7.061682e-02 7.000836e-02 7.130614e-02 7.064080e-02 7.188596e-02 7.117207e-02 7.237280e-02 7.161836e-02 7.278242e-02 7.199492e-02 7.312954e-02 7.231591e-02 7.342767e-02 7.259412e-02 7.368884e-02 7.284080e-02 7.392347e-02 7.306552e-02 7.414025e-02 7.327606e-02 7.434603e-02 7.347835e-02 7.454585e-02 7.367652e-02 7.474291e-02 7.387292e-02 7.493873e-02 7.406821e-02 7.513320e-02 7.426156e-02 7.532478e-02 7.445079e-02 7.551070e-02 7.463255e-02 7.568711e-02 7.480258e-02 7.584937e-02 7.495587e-02 7.599220e-02 7.508694e-02 7.610993e-02 7.519001e-02 7.619673e-02 7.525922e-02 7.624676e-02 7.528880e-02 7.625436e-02 7.527326e-02 7.621424e-02 7.520751e-02 7.612154e-02 7.508699e-02 7.597201e-02 7.490776e-02 7.576203e-02 7.466656e-02 7.548870e-02 7.436084e-02 7.514985e-02 7.398881e-02 7.474405e-02 7.354940e-02 7.427060e-02 7.304227e-02 7.372948e-02 7.246773e-02 7.312133e-02 7.182675e-02 7.244741e-02 7.112082e-02 7.170949e-02 7.035199e-02 7.090981e-02 6.952271e-02 7.005104e-02 6.863582e-02 6.913616e-02 6.769446e-02 6.816846e-02 6.670204e-02 6.715142e-02 6.566211e-02 6.608869e-02 6.457839e-02 6.498400e-02 6.345468e-02 6.384117e-02 6.229477e-02 6.266401e-02 6.110249e-02 6.145630e-02 5.988160e-02 6.022177e-02 5.863579e-02 5.896404e-02 5.736863e-02 5.768663e-02 5.608358e-02 5.639291e-02 5.478395e-02 5.508610e-02 5.347287e-02 5.376925e-02 5.215333e-02 5.244524e-02 5.082812e-02 5.111677e-02 4.949988e-02 4.978637e-02 4.817103e-02 4.845637e-02 4.684385e-02 4.712894e-02 4.552045e-02 4.580609e-02 4.420274e-02 4.448965e-02 4.289252e-02 4.318131e-02 4.159142e-02 4.188261e-02 4.030092e-02 4.059495e-02 3.902239e-02 3.931959e-02 3.775706e-02 3.805768e-02 3.650606e-02 3.681027e-02 3.527040e-02 3.557829e-02 3.405101e-02 3.436256e-02 3.284871e-02 3.316383e-02 3.166427e-02 3.198275e-02 3.049834e-02 3.081993e-02 2.935155e-02 2.967586e-02 2.822443e-02 2.855101e-02 2.711747e-02 2.744575e-02 2.603113e-02 2.636044e-02 2.496581e-02 2.529534e-02 2.392188e-02 2.425067e-02 2.289970e-02 2.322661e-02 2.189960e-02 2.222327e-02 2.092184e-02 2.124075e-02 1.996663e-02 2.027914e-02 1.903402e-02 1.933863e-02 1.812382e-02 1.841957e-02 1.723555e-02 1.752258e-02 1.636830e-02 1.664867e-02 1.552075e-02 1.579932e-02 1.469131e-02 1.497646e-02 1.387839e-02 1.418238e-02 1.308105e-02 1.341944e-02 1.229989e-02 1.268974e-02 1.153827e-02 1.199461e-02 1.080347e-02 1.133405e-02 1.010746e-02 1.070592e-02 9.466605e-03 1.010503e-02 8.899716e-03 9.522421e-03 8.424930e-03 8.946509e-03 8.057399e-03 8.369261e-03 7.812307e-03 7.802793e-03 7.719980e-03 7.312465e-03 7.861278e-03 7.071934e-03 8.431268e-03 7.442232e-03 9.832945e-03 9.061719e-03 1.277964e-02 1.291021e-02 1.836871e-02 2.034479e-02 2.812071e-02 3.309736e-02 4.393163e-02 5.306952e-02 6.771913e-02 8.170374e-02 1.005341e-01 1.189220e-01 1.413592e-01 1.623407e-01 1.867903e-01 2.081620e-01 2.328931e-01 2.529248e-01 2.766780e-01 2.943462e-01 3.164373e-01 3.312854e-01 3.514660e-01 3.633857e-01 3.816713e-01 3.907320e-01 4.072739e-01 4.136178e-01 4.286245e-01 4.324098e-01 4.461037e-01 4.474756e-01 4.600685e-01 4.591439e-01 4.708216e-01 
4.467634e-01 4.573049e-01 4.518606e-01 4.617800e-01 4.542015e-01 4.635090e-01 4.536682e-01 4.622674e-01 4.499159e-01 4.575645e-01 4.423003e-01 4.485723e-01 4.298182e-01 4.340855e-01 4.111131e-01 4.125909e-01 3.846492e-01 3.825749e-01 3.492037e-01 3.432306e-01 3.048015e-01 2.956142e-01 2.539165e-01 2.437383e-01 2.018702e-01 1.938856e-01 1.543714e-01 1.506488e-01 1.134872e-01 1.150975e-01 8.090355e-02 8.899209e-02 5.839718e-02 7.326517e-02 4.633431e-02 6.701154e-02 4.352052e-02 6.802711e-02 4.755734e-02 7.376668e-02 5.581803e-02 8.191646e-02 6.607100e-02 9.047905e-02 7.643524e-02 9.777682e-02 8.538331e-02 1.025200e-01 9.179761e-02 1.038082e-01 9.484308e-02 1.010816e-01 9.394749e-02 9.464004e-02 8.984471e-02 8.714056e-02 8.625021e-02 8.361120e-02 8.820631e-02 8.781864e-02 9.802133e-02 9.960986e-02 1.143691e-01 1.162376e-01 1.345053e-01 1.346883e-01 1.557722e-01 1.525016e-01 1.757618e-01 1.675649e-01 1.919477e-01 1.775691e-01 2.012142e-01 1.795962e-01 1.997386e-01 1.703742e-01 1.838814e-01 1.477187e-01 1.525937e-01 1.131659e-01 1.109990e-01 7.474342e-02 7.301309e-02 4.762603e-02 5.566782e-02 4.305702e-02 5.669769e-02 4.992893e-02 6.169070e-02 5.609762e-02 6.398940e-02 5.819564e-02 6.254361e-02 5.634724e-02 5.812638e-02 5.170736e-02 5.187809e-02 4.545947e-02 4.472797e-02 3.844985e-02 3.725346e-02 3.116929e-02 2.974870e-02 2.388294e-02 2.237158e-02 1.685584e-02 1.539691e-02 1.098207e-02 1.007980e-02 9.687864e-03 1.048590e-02 1.507679e-02 1.700382e-02 2.356053e-02 2.603893e-02 3.349703e-02 3.642946e-02 4.452875e-02 4.792774e-02 5.656903e-02 6.046771e-02 6.958202e-02 7.400776e-02 8.352554e-02 8.848660e-02 9.833047e-02 1.038064e-01 1.138915e-01 1.198256e-01 1.300629e-01 1.363566e-01 1.466587e-01 1.531690e-01 1.634565e-01 1.699967e-01 1.802037e-01 1.865496e-01 1.966265e-01 2.025268e-01 2.124386e-01 2.176320e-01 2.273491e-01 2.315875e-01 2.410720e-01 2.441464e-01 2.533362e-01 2.551040e-01 2.639004e-01 2.643076e-01 2.725725e-01 2.716647e-01 2.792292e-01 2.771460e-01 2.838304e-01 2.807836e-01 2.864231e-01 2.826614e-01 2.871313e-01 2.829014e-01 2.861347e-01 2.816490e-01 2.836437e-01 2.790601e-01 2.798750e-01 2.752928e-01 2.750352e-01 2.705016e-01 2.693105e-01 2.648339e-01 2.628629e-01 2.584283e-01 2.558306e-01 2.514119e-01 2.483297e-01 2.438990e-01 2.404573e-01 2.359900e-01 2.322936e-01 2.277710e-01 2.239048e-01 2.193144e-01 2.153444e-01 2.106797e-01 2.066562e-01 2.019152e-01 1.978749e-01 1.930595e-01 1.890284e-01 1.841430e-01 1.801387e-01 1.751898e-01 1.712237e-01 1.662189e-01 1.622977e-01 1.572456e-01 1.533730e-01 1.482825e-01 1.444601e-01 1.393408e-01 1.355691e-01 1.304305e-01 1.267098e-01 1.215618e-01 1.178925e-01 1.127449e-01 1.091281e-01 1.039912e-01 1.004289e-01 9.531315e-02 9.180836e-02 8.672447e-02 8.328149e-02 7.824063e-02 7.486494e-02 6.987870e-02 6.657702e-02 6.165756e-02 5.843782e-02 5.359809e-02 5.046944e-02 4.572358e-02 4.269664e-02 3.806099e-02 3.514850e-02 3.064413e-02 2.786300e-02 2.352267e-02 2.090058e-02 1.679202e-02 1.439255e-02 1.072007e-02 8.771139e-03 6.444852e-03 5.951783e-03 7.133162e-03 8.463135e-03 1.148530e-02 1.321110e-02 1.654332e-02 1.825765e-02 2.157645e-02 2.318676e-02 2.640686e-02 2.788382e-02 3.097522e-02 3.230764e-02 3.525830e-02 3.644215e-02 3.924756e-02 4.028231e-02 4.294180e-02 4.382907e-02 4.634422e-02 4.708702e-02 4.946095e-02 5.006336e-02 5.230028e-02 5.276721e-02 5.487216e-02 5.520920e-02 5.718792e-02 5.740122e-02 5.925999e-02 5.935619e-02 6.110178e-02 6.108792e-02 6.272749e-02 6.261097e-02 6.415198e-02 6.394045e-02 6.539065e-02 6.509198e-02 6.645927e-02 6.608147e-02 6.737389e-02 6.692503e-02 6.815063e-02 6.763880e-02 6.880559e-02 6.823874e-02 6.935462e-02 6.874054e-02 6.981313e-02 6.915933e-02 7.019594e-02 6.950951e-02 7.051698e-02 6.980453e-02 7.078918e-02 7.005671e-02 7.102418e-02 7.027703e-02 7.123224e-02 7.047496e-02 7.142205e-02 7.065839e-02 7.160068e-02 7.083357e-02 7.177352e-02 7.100503e-02 7.194430e-02 7.117569e-02 7.211510e-02 7.134686e-02 7.228652e-02 7.151840e-02 7.245773e-02 7.168887e-02 7.262668e-02 7.185563e-02 7.279026e-02 7.201512e-02 7.294445e-02 7.216296e-02 7.308458e-02 7.229421e-02 7.320549e-02 7.240354e-02 7.330172e-02 7.248541e-02 7.336772e-02 7.253429e-02 7.339798e-02 7.254477e-02 7.338723e-02 7.251173e-02 7.333055e-02 7.243048e-02 7.322349e-02 7.229683e-02 7.306214e-02 7.210720e-02 7.284324e-02 7.185864e-02 7.256418e-02 7.154890e-02 7.222307e-02 7.117643e-02 7.181867e-02 7.074034e-02 7.135047e-02 7.024043e-02 7.081855e-02 6.967711e-02 7.022364e-02 6.905138e-02 6.956699e-02 6.836477e-02 6.885038e-02 6.761927e-02 6.807600e-02 6.681726e-02 6.724641e-02 6.596149e-02 6.636451e-02 6.505499e-02 6.543344e-02 6.410100e-02 6.445653e-02 6.310295e-02 6.343728e-02 6.206438e-02 6.237925e-02 6.098891e-02 6.128609e-02 5.988019e-02 6.016144e-02 5.874185e-02 5.900891e-02 5.757750e-02 5.783206e-02 5.639064e-02 5.663434e-02 5.518470e-02 5.541912e-02 5.396297e-02 5.418960e-02 5.272861e-02 5.294886e-02 5.148460e-02 5.169980e-02 5.023378e-02 5.044516e-02 4.897882e-02 4.918750e-02 4.772219e-02 4.792920e-02 4.646620e-02 4.667248e-02 4.521299e-02 4.541936e-02 4.396453e-02 4.417171e-02 4.272262e-02 4.293124e-02 4.148891e-02 4.169950e-02 4.026489e-02 4.047789e-02 3.905191e-02 3.926767e-02 3.785122e-02 3.806998e-02 3.666389e-02 3.688581e-02 3.549093e-02 3.571608e-02 3.433321e-02 3.456156e-02 3.319152e-02 3.342296e-02 3.206656e-02 3.230088e-02 3.095894e-02 3.119584e-02 2.986922e-02 3.010831e-02 2.879787e-02 2.903868e-02 2.774534e-02 2.798728e-02 2.671200e-02 2.695438e-02 2.569820e-02 2.594022e-02 2.470427e-02 2.494496e-02 2.373052e-02 2.396871e-02 2.277723e-02 2.301157e-02 2.184467e-02 2.207355e-02 2.093303e-02 2.115472e-02 2.004238e-02 2.025521e-02 1.917256e-02 1.937533e-02 1.832309e-02 1.851567e-02 1.749308e-02 1.767727e-02 1.668115e-02 1.686168e-02 1.588552e-02 1.607096e-02 1.510435e-02 1.530760e-02 1.433624e-02 1.457417e-02 1.358124e-02 1.387292e-02 1.284210e-02 1.320524e-02 1.212560e-02 1.257100e-02 1.144361e-02 1.196785e-02 1.081306e-02 1.139024e-02 1.025406e-02 1.082848e-02 9.786353e-03 1.026904e-02 9.425484e-03 9.699046e-03 9.182893e-03 9.120717e-03 9.076947e-03 8.583002e-03 9.165877e-03 8.240122e-03 9.619545e-03 8.448805e-03 1.084330e-02 9.887121e-03 1.360768e-02 1.358807e-02 1.906256e-02 2.088226e-02 2.867106e-02 3.340938e-02 4.418247e-02 5.299244e-02 6.739311e-02 8.102472e-02 9.932565e-02 1.173269e-01 1.389309e-01 1.592526e-01 1.825915e-01 2.030044e-01 2.264815e-01 2.453933e-01 2.678877e-01 2.844214e-01 3.053379e-01 3.191318e-01 3.382628e-01 3.492538e-01 3.666241e-01 3.748950e-01 3.906486e-01 3.963384e-01 4.106695e-01 4.139266e-01 4.270414e-01 4.280003e-01 4.400955e-01 4.388640e-01 4.501135e-01 
4.172139e-01 4.273745e-01 4.215476e-01 4.312516e-01 4.233967e-01 4.326748e-01 4.226819e-01 4.314801e-01 4.191407e-01 4.272871e-01 4.122651e-01 4.194339e-01 4.012421e-01 4.069235e-01 3.849283e-01 3.884306e-01 3.619276e-01 3.624587e-01 3.308915e-01 3.278129e-01 2.912313e-01 2.846389e-01 2.444336e-01 2.360992e-01 1.954610e-01 1.889762e-01 1.508767e-01 1.485731e-01 1.117740e-01 1.141327e-01 7.912040e-02 8.780591e-02 5.552903e-02 7.173248e-02 4.249468e-02 6.559441e-02 3.940967e-02 6.690583e-02 4.328577e-02 7.254818e-02 5.065437e-02 7.983385e-02 5.902576e-02 8.665168e-02 6.664362e-02 9.140117e-02 7.227995e-02 9.299997e-02 7.523005e-02 9.080339e-02 7.502854e-02 8.434284e-02 7.101775e-02 7.367187e-02 6.327098e-02 6.143265e-02 5.566685e-02 5.398502e-02 5.520126e-02 5.672137e-02 6.471518e-02 6.835780e-02 8.091769e-02 8.429270e-02 1.001505e-01 1.012435e-01 1.201322e-01 1.172969e-01 1.391459e-01 1.310706e-01 1.553918e-01 1.410850e-01 1.665315e-01 1.454257e-01 1.694842e-01 1.418656e-01 1.607986e-01 1.283204e-01 1.377512e-01 1.032306e-01 1.007044e-01 6.763944e-02 5.951411e-02 3.351139e-02 4.083620e-02 2.867232e-02 4.858872e-02 4.162418e-02 5.794645e-02 5.107028e-02 6.228672e-02 5.507263e-02 6.217409e-02 5.474761e-02 5.896561e-02 5.153483e-02 5.391049e-02 4.666582e-02 4.793181e-02 4.098740e-02 4.159798e-02 3.499538e-02 3.521018e-02 2.896598e-02 2.893297e-02 2.312564e-02 2.295108e-02 1.790758e-02 1.773566e-02 1.445393e-02 1.458045e-02 1.477955e-02 1.553508e-02 1.939546e-02 2.075057e-02 2.678256e-02 2.862455e-02 3.584042e-02 3.814463e-02 4.611808e-02 4.890061e-02 5.742340e-02 6.070617e-02 6.964422e-02 7.343731e-02 8.268145e-02 8.697169e-02 9.642174e-02 1.011642e-01 1.107259e-01 1.158376e-01 1.254252e-01 1.307809e-01 1.403232e-01 1.457546e-01 1.552001e-01 1.604996e-01 1.698195e-01 1.747493e-01 1.839347e-01 1.882421e-01 1.972938e-01 2.007339e-01 2.096452e-01 2.120085e-01 2.207445e-01 2.218865e-01 2.303677e-01 2.302336e-01 2.383291e-01 2.369670e-01 2.445024e-01 2.420583e-01 2.488381e-01 2.455313e-01 2.513688e-01 2.474534e-01 2.522012e-01 2.479239e-01 2.514956e-01 2.470620e-01 2.494411e-01 2.449963e-01 2.462327e-01 2.418588e-01 2.420547e-01 2.377810e-01 2.370726e-01 2.328912e-01 2.314296e-01 2.273122e-01 2.252480e-01 2.211587e-01 2.186307e-01 2.145349e-01 2.116644e-01 2.075336e-01 2.044215e-01 2.002346e-01 1.969618e-01 1.927053e-01 1.893348e-01 1.850018e-01 1.815807e-01 1.771693e-01 1.737322e-01 1.692444e-01 1.658156e-01 1.612561e-01 1.578519e-01 1.532274e-01 1.498582e-01 1.451766e-01 1.418484e-01 1.371184e-01 1.338343e-01 1.290651e-01 1.258265e-01 1.210275e-01 1.178345e-01 1.130153e-01 1.098680e-01 1.050384e-01 1.019369e-01 9.710677e-02 9.405193e-02 8.923153e-02 8.622512e-02 8.142499e-02 7.846989e-02 7.370114e-02 7.080155e-02 6.607610e-02 6.323764e-02 5.856857e-02 5.579848e-02 5.120074e-02 4.850819e-02 4.399973e-02 4.139652e-02 3.700083e-02 3.450301e-02 3.025465e-02 2.788642e-02 2.384473e-02 2.164917e-02 1.793643e-02 1.600729e-02 1.292485e-02 1.150262e-02 9.811779e-03 9.402536e-03 1.003100e-02 1.075371e-02 1.307925e-02 1.431523e-02 1.727607e-02 1.863168e-02 2.176519e-02 2.309338e-02 2.622960e-02 2.747251e-02 3.054150e-02 3.167332e-02 3.464269e-02 3.565098e-02 3.850468e-02 3.938358e-02 4.211374e-02 4.286107e-02 4.546441e-02 4.608035e-02 4.855645e-02 4.904283e-02 5.139318e-02 5.175303e-02 5.398054e-02 5.421785e-02 5.632646e-02 5.644600e-02 5.844049e-02 5.844765e-02 6.033347e-02 6.023416e-02 6.201728e-02 6.181784e-02 6.350464e-02 6.321176e-02 6.480896e-02 6.442955e-02 6.594408e-02 6.548525e-02 6.692424e-02 6.639319e-02 6.776383e-02 6.716781e-02 6.847733e-02 6.782358e-02 6.907914e-02 6.837482e-02 6.958350e-02 6.883561e-02 7.000428e-02 6.921958e-02 7.035486e-02 6.953982e-02 7.064795e-02 6.980861e-02 7.089538e-02 7.003731e-02 7.110799e-02 7.023617e-02 7.129538e-02 7.041414e-02 7.146586e-02 7.057883e-02 7.162628e-02 7.073636e-02 7.178203e-02 7.089135e-02 7.193697e-02 7.104694e-02 7.209352e-02 7.120481e-02 7.225268e-02 7.136529e-02 7.241413e-02 7.152747e-02 7.257639e-02 7.168933e-02 7.273696e-02 7.184792e-02 7.289248e-02 7.199950e-02 7.303889e-02 7.213975e-02 7.317165e-02 7.226394e-02 7.328587e-02 7.236707e-02 7.337650e-02 7.244408e-02 7.343846e-02 7.248993e-02 7.346684e-02 7.249983e-02 7.345696e-02 7.246927e-02 7.340450e-02 7.239415e-02 7.330560e-02 7.227087e-02 7.315692e-02 7.209636e-02 7.295569e-02 7.186813e-02 7.269971e-02 7.158431e-02 7.238740e-02 7.124362e-02 7.201779e-02 7.084537e-02 7.159048e-02 7.038948e-02 7.110567e-02 6.987638e-02 7.056404e-02 6.930704e-02 6.996679e-02 6.868286e-02 6.931555e-02 6.800568e-02 6.861233e-02 6.727771e-02 6.785951e-02 6.650147e-02 6.705974e-02 6.567974e-02 6.621591e-02 6.481552e-02 6.533110e-02 6.391197e-02 6.440853e-02 6.297236e-02 6.345151e-02 6.200004e-02 6.246340e-02 6.099839e-02 6.144756e-02 5.997075e-02 6.040734e-02 5.892046e-02 5.934599e-02 5.785074e-02 5.826672e-02 5.676473e-02 5.717257e-02 5.566543e-02 5.606648e-02 5.455571e-02 5.495123e-02 5.343829e-02 5.382944e-02 5.231569e-02 5.270355e-02 5.119030e-02 5.157584e-02 5.006432e-02 5.044842e-02 4.893978e-02 4.932322e-02 4.781855e-02 4.820201e-02 4.670234e-02 4.708639e-02 4.559268e-02 4.597781e-02 4.449098e-02 4.487758e-02 4.339850e-02 4.378686e-02 4.231637e-02 4.270669e-02 4.124560e-02 4.163799e-02 4.018708e-02 4.058157e-02 3.914161e-02 3.953812e-02 3.810989e-02 3.850827e-02 3.709255e-02 3.749254e-02 3.609012e-02 3.649139e-02 3.510309e-02 3.550520e-02 3.413188e-02 3.453433e-02 3.317687e-02 3.357905e-02 3.223840e-02 3.263961e-02 3.131679e-02 3.171621e-02 3.041235e-02 3.080899e-02 2.952536e-02 2.991808e-02 2.865614e-02 2.904353e-02 2.780498e-02 2.818540e-02 2.697212e-02 2.734374e-02 2.615772e-02 2.651868e-02 2.536175e-02 2.571056e-02 2.458382e-02 2.492001e-02 2.382315e-02 2.414811e-02 2.307840e-02 2.339652e-02 2.234779e-02 2.266747e-02 2.162926e-02 2.196360e-02 2.092110e-02 2.128767e-02 2.022283e-02 2.064206e-02 1.953651e-02 2.002813e-02 1.886829e-02 1.944568e-02 1.822976e-02 1.889227e-02 1.763819e-02 1.836235e-02 1.711498e-02 1.784605e-02 1.668147e-02 1.732831e-02 1.635337e-02 1.679094e-02 1.613722e-02 1.622307e-02 1.603557e-02 1.564767e-02 1.607244e-02 1.517431e-02 1.635872e-02 1.509444e-02 1.722689e-02 1.603518e-02 1.943224e-02 1.910366e-02 2.426537e-02 2.581775e-02 3.336733e-02 3.788096e-02 4.845672e-02 5.701907e-02 7.110841e-02 8.445665e-02 1.020714e-01 1.196621e-01 1.399523e-01 1.592867e-01 1.807106e-01 1.995884e-01 2.208567e-01 2.379725e-01 2.582510e-01 2.729821e-01 2.918450e-01 3.039764e-01 3.212901e-01 3.308191e-01 3.466265e-01 3.536463e-01 3.680819e-01 3.727181e-01 3.859556e-01 3.883339e-01 4.005570e-01 4.007877e-01 4.121734e-01 4.103428e-01 4.210503e-01 